/*--------------------------------*- C++ -*----------------------------------*\
| =========                 |                                                 |
| \\      /  F ield         | OpenFOAM: The Open Source CFD Toolbox           |
|  \\    /   O peration     | Version:  5.x                                   |
|   \\  /    A nd           | Web:      www.OpenFOAM.org                      |
|    \\/     M anipulation  |                                                 |
\*---------------------------------------------------------------------------*/
FoamFile
{
    version     2.0;
    format      ascii;
    class       surfaceScalarField;
    location    "1.3";
    object      alphaPhi10;
}
// * * * * * * * * * * * * * * * * * * * * * * * * * * * * * * * * * * * * * //

dimensions      [0 3 -1 0 0 0 0];

internalField   nonuniform List<scalar> 
30582
(
0.000276611
-1.39793e-06
0.000276371
2.39533e-07
0.000276265
-2.41755e-06
0.000272013
4.35864e-06
0.000275555
9.49471e-07
0.000274661
-1.76113e-06
0.000264482
7.53089e-06
0.000271298
8.61611e-06
0.000275288
3.22843e-07
0.000272246
1.41411e-06
0.000258956
5.52578e-06
0.000263684
1.51444e-05
0.000271263
1.26414e-05
0.000271293
1.27663e-06
0.000268398
8.57252e-06
0.000256585
2.37116e-06
0.000257899
1.13114e-05
0.000263645
2.27626e-05
0.000267273
1.6661e-05
0.000270724
-1.05023e-06
0.000261524
2.27821e-05
0.000258487
-1.90242e-06
0.000255502
4.76787e-06
0.00025732
1.76356e-05
0.000260026
3.00098e-05
0.00026687
2.0515e-05
0.000260413
5.99704e-08
0.000256221
4.25019e-05
0.000263311
-4.82351e-06
0.000257672
-4.07258e-06
0.000254892
7.19587e-06
0.000253521
2.4141e-05
0.000259909
3.69711e-05
0.00025801
2.29185e-05
0.000260357
-4.07579e-06
0.00023793
8.07508e-05
0.000269549
-6.23861e-06
0.000263036
-1.01874e-05
0.000257054
-6.23389e-06
0.000250942
9.77429e-06
0.000252909
3.11413e-05
0.000252613
4.23679e-05
0.000259009
2.42659e-05
0.000233302
4.86984e-07
9.95924e-05
-9.1798e-06
0.000274505
-4.95572e-06
0.000269817
-1.3019e-05
0.000262918
-1.60516e-05
0.000253952
-9.24409e-06
0.000249934
1.27494e-05
0.000246448
3.7306e-05
0.000253286
4.80912e-05
0.000238549
1.8386e-05
0.000121937
-2.31846e-06
-7.5277e-06
1.92573e-07
0.000276089
-1.58422e-06
0.000275269
-1.04082e-05
0.000270477
-2.05783e-05
0.000261312
-2.34115e-05
0.000252464
-1.17742e-05
0.000243265
1.59331e-05
0.000244461
4.61298e-05
0.000241162
4.41595e-05
0.000150168
-3.15099e-06
-5.29468e-06
-5.66075e-09
-2.76802e-10
4.52986e-09
0.000272584
3.505e-06
0.000276826
-3.14144e-06
0.000276911
-1.68424e-05
0.00027066
-2.99259e-05
0.000260602
-3.15493e-05
0.000246877
-1.53863e-05
0.000238953
2.1439e-05
0.000236134
4.87214e-05
0.000166379
5.10256e-06
-1.77873e-06
-3.54464e-08
1.41885e-10
-1.43538e-10
3.93242e-10
5.88392e-12
0.000263429
9.15533e-06
0.000273638
6.69285e-06
0.000279907
-6.13737e-06
0.000278762
-2.49448e-05
0.000271892
-4.12164e-05
0.000257555
-4.22275e-05
0.000242353
-1.87782e-05
0.000232019
2.37156e-05
0.000166629
1.29381e-05
4.3616e-06
-5.14853e-08
-9.64493e-09
-8.46889e-12
5.15247e-12
-5.76671e-16
-3.00599e-17
4.78589e-16
0.000248991
1.44378e-05
0.000264671
1.81227e-05
0.000276664
9.93569e-06
0.000282077
-9.45179e-06
0.000282201
-3.52539e-05
0.00027219
-5.58515e-05
0.000254682
-5.45309e-05
0.000236742
-2.02791e-05
0.000170118
4.56968e-06
8.12567e-06
-3.24484e-08
-1.53412e-08
-4.29163e-11
2.90549e-12
-1.44871e-16
-4.90994e-17
-2.60471e-18
1.62635e-17
8.1919e-21
0.000230078
1.89132e-05
0.000250212
2.88964e-05
0.000267479
2.73077e-05
0.000280023
1.19889e-05
0.000288212
-1.54624e-05
0.000285701
-4.87649e-05
0.000272794
-7.39457e-05
0.000251587
-5.95414e-05
0.000181403
-7.04954e-06
1.15091e-05
-6.8238e-08
-4.55192e-09
-8.95113e-11
5.39628e-12
-4.61537e-15
7.86058e-17
-1.04838e-20
6.61912e-21
-4.00789e-26
-4.15478e-27
0.000207672
2.24057e-05
0.000231125
3.80005e-05
0.000252709
4.36664e-05
0.000271227
3.61041e-05
0.000286289
1.39116e-05
0.000292901
-2.26626e-05
0.000290286
-6.62532e-05
0.000274294
-8.40092e-05
0.000206561
-1.95271e-05
1.83122e-05
-2.28726e-07
3.71358e-08
-2.82003e-10
2.95924e-11
-2.11523e-14
2.40283e-16
-1.24371e-19
1.02227e-21
-8.73915e-26
-1.01603e-26
0.000182807
2.48647e-05
0.000208495
4.50356e-05
0.000233199
5.7511e-05
0.000256189
5.87047e-05
0.000277113
4.52801e-05
0.000292851
1.39617e-05
0.00030152
-3.38966e-05
0.000296255
-7.80978e-05
0.000238387
-3.28073e-05
3.00153e-05
-5.59291e-07
1.33525e-07
-9.22804e-10
8.65086e-11
-8.42945e-14
1.75837e-15
-6.75845e-19
2.23066e-21
-2.51763e-24
4.00402e-27
0.000156399
2.64079e-05
0.00018341
4.99504e-05
0.000210097
6.81376e-05
0.0002361
7.75994e-05
0.000261414
7.44037e-05
0.000284027
5.41043e-05
0.000301643
1.38391e-05
0.000309501
-4.22692e-05
0.000266947
-3.82363e-05
4.95776e-05
-1.15008e-06
3.71462e-07
-2.67019e-09
2.24373e-10
-3.30032e-13
7.16794e-15
-2.88937e-18
2.40859e-20
-1.69465e-23
3.7978e-26
0.000129172
2.7228e-05
0.000156813
5.30049e-05
0.000184563
7.54841e-05
0.00021231
9.19278e-05
0.000240415
9.85986e-05
0.000267603
9.08272e-05
0.000292311
6.34357e-05
0.00031129
1.21032e-05
0.000284174
-2.5443e-05
7.53893e-05
-1.83539e-06
9.50166e-07
-6.66644e-09
5.33125e-10
-1.05772e-12
2.19682e-14
-1.20622e-17
1.01422e-19
-7.78759e-23
3.39916e-25
0.000101639
2.75328e-05
0.00012944
5.46012e-05
0.000157589
7.99793e-05
0.000186119
0.000101675
0.000215615
0.000116728
0.000245385
0.000120817
0.000274859
0.000108279
0.000302862
7.18638e-05
0.000286607
3.22302e-06
9.52336e-05
-1.70649e-06
2.13927e-06
-1.2704e-08
1.23095e-09
-2.94241e-12
4.17626e-14
-3.82857e-17
2.88363e-19
-3.58265e-22
1.09251e-24
7.41268e-05
2.7512e-05
0.000101806
5.51669e-05
0.00012993
8.22596e-05
0.000158596
0.000107502
0.000188483
0.000128808
0.000219218
0.000142894
0.000251202
0.000144475
0.000284525
0.000126616
0.000277032
2.85818e-05
9.89465e-05
-1.24354e-07
3.78304e-06
-1.5131e-08
2.65313e-09
-6.08046e-12
2.38305e-14
-1.06604e-16
2.53536e-19
-1.15389e-21
3.23266e-24
4.68137e-05
2.73131e-05
7.4232e-05
5.50856e-05
0.000102107
8.29908e-05
0.000130532
0.000110324
0.00016018
0.000135805
0.000190849
0.000157176
0.00022343
0.000170666
0.000259069
0.000169931
0.000251989
4.92283e-05
9.55956e-05
2.18295e-06
4.69024e-06
-6.03051e-09
4.95863e-09
-8.02863e-12
-1.59607e-13
-2.17713e-16
-1.51858e-18
-3.3583e-21
2.42149e-24
1.97665e-05
2.70472e-05
4.68905e-05
5.46546e-05
7.44262e-05
8.27659e-05
0.000102444
0.000111079
0.000131533
0.000138971
0.000161562
0.000165092
0.000193611
0.000186995
0.000229117
0.000200618
0.00022104
6.09771e-05
7.98444e-05
3.68073e-06
4.69114e-06
2.20545e-08
7.11428e-09
-4.13348e-12
-6.04422e-13
-2.8706e-16
-8.64049e-18
-7.09351e-21
-2.03222e-23
-7.00326e-06
2.67697e-05
1.98373e-05
5.41003e-05
4.70389e-05
8.20419e-05
7.46246e-05
0.000110585
0.000103056
0.000139556
0.000132224
0.000168309
0.000163173
0.00019553
0.000197543
0.000218569
0.000188311
6.4618e-05
6.26822e-05
3.94486e-06
3.37624e-06
4.41529e-08
7.1433e-09
2.03492e-11
-1.02648e-12
-1.50016e-16
-2.3788e-17
-9.86168e-21
-1.18114e-22
-3.35163e-05
2.6513e-05
-6.92839e-06
5.35354e-05
1.99794e-05
8.11598e-05
4.7197e-05
0.000109469
7.50145e-05
0.000138627
0.000103338
0.000168441
0.000133045
0.000198437
0.000165796
0.000227277
0.000156465
6.22572e-05
4.72638e-05
3.44353e-06
1.96129e-06
3.76273e-08
4.03506e-09
3.71663e-11
-7.77478e-13
1.03166e-15
-3.96037e-17
-5.55772e-21
-3.33052e-22
-5.97749e-05
2.62586e-05
-3.34408e-05
5.30254e-05
-6.77526e-06
8.02901e-05
2.01625e-05
0.000108194
4.74913e-05
0.000136993
7.51278e-05
0.000166837
0.000103696
0.000197791
0.0001347
0.000229532
0.000127062
5.68117e-05
3.42207e-05
2.67353e-06
1.06759e-06
2.3237e-08
1.55194e-09
2.4003e-11
-2.91773e-13
1.63863e-15
-3.1978e-17
4.04516e-20
-6.21169e-22
-8.57449e-05
2.597e-05
-5.97143e-05
5.25321e-05
-3.32841e-05
7.95343e-05
-6.53902e-06
0.000106992
2.04442e-05
0.000135241
4.7618e-05
0.000164502
7.52808e-05
0.000195252
0.0001047
0.000227792
0.000100603
5.03453e-05
2.39417e-05
1.93611e-06
5.45255e-07
1.26731e-08
5.11701e-10
1.03774e-11
-6.83913e-14
1.02852e-15
-1.22778e-17
7.03476e-20
-4.72281e-22
-0.00011134
2.55951e-05
-8.5726e-05
5.19817e-05
-5.95838e-05
7.88318e-05
-3.30065e-05
0.000106002
-6.23331e-06
0.000133669
2.07052e-05
0.000162154
4.77628e-05
0.00019202
7.59152e-05
0.000224036
7.69312e-05
4.42154e-05
1.62388e-05
1.36841e-06
2.63416e-07
6.45452e-09
1.53865e-10
3.75149e-12
-1.22624e-14
4.24649e-16
-2.83813e-18
4.40345e-20
-1.74186e-22
-0.000136405
2.50653e-05
-0.000111396
5.12656e-05
-8.56666e-05
7.80645e-05
-5.93123e-05
0.000105138
-3.26926e-05
0.000132461
-5.77821e-06
0.000160152
2.09751e-05
0.000188942
4.82547e-05
0.000219681
5.54686e-05
3.91666e-05
1.06379e-05
9.78604e-07
1.24527e-07
3.24303e-09
4.69805e-11
1.24701e-12
-1.62213e-15
1.42129e-16
-4.82702e-19
1.73629e-20
-3.65091e-23
-0.000160718
2.43123e-05
-0.000136572
5.02409e-05
-0.000111467
7.70656e-05
-8.54769e-05
0.000104229
-5.90488e-05
0.000131494
-3.20674e-05
0.00015875
-5.315e-06
0.000186443
2.14926e-05
0.000215704
3.5485e-05
3.54677e-05
6.6598e-06
7.2533e-07
5.94454e-08
1.69455e-09
1.59511e-11
4.1466e-13
-7.71114e-17
4.33992e-17
-6.34944e-20
5.40773e-21
-5.1693e-24
-0.000183991
2.32737e-05
-0.00016103
4.87704e-05
-0.000136845
7.56199e-05
-0.000111456
0.000103044
-8.53586e-05
0.000130539
-5.83433e-05
0.00015777
-3.14367e-05
0.000184872
-4.66471e-06
0.0002126
1.63201e-05
3.31232e-05
3.8184e-06
5.70814e-07
2.90251e-08
9.64133e-10
6.08603e-12
1.49214e-13
5.39833e-17
1.33722e-17
-5.42216e-21
1.53653e-21
-4.7594e-25
-0.000205886
2.18948e-05
-0.000184484
4.67272e-05
-0.000161585
7.35099e-05
-0.000137121
0.000101286
-0.000111606
0.000129292
-8.47099e-05
0.000156906
-5.76313e-05
0.000183964
-3.07002e-05
0.000210907
-2.55996e-06
3.20239e-05
1.63886e-06
4.87335e-07
1.4036e-08
6.23837e-10
2.5429e-12
6.22826e-14
3.33154e-17
4.58392e-18
5.4302e-22
4.50332e-22
9.13125e-27
-0.000226026
2.014e-05
-0.000206587
4.39983e-05
-0.000185394
7.05364e-05
-0.000162262
9.86506e-05
-0.000137686
0.000127365
-0.000111192
0.000155774
-8.40592e-05
0.000183334
-5.69492e-05
0.000210213
-2.13215e-05
3.21557e-05
-3.21947e-07
4.57352e-07
5.29414e-09
4.74537e-10
1.05114e-12
3.22096e-14
1.46616e-17
1.90283e-18
6.2562e-22
1.52759e-22
2.39086e-26
-0.000244035
1.80088e-05
-0.000226959
4.05115e-05
-0.000207918
6.65223e-05
-0.000186586
9.48604e-05
-0.000163397
0.000124361
-0.000137714
0.000153888
-0.000110789
0.000182504
-8.36229e-05
0.000210007
-4.0308e-05
3.34035e-05
-2.33895e-06
4.68598e-07
-1.45671e-09
4.28373e-10
2.3738e-13
2.15723e-14
3.50153e-18
1.02169e-18
3.28745e-22
6.4944e-23
1.21976e-26
-0.000259552
1.55168e-05
-0.000245207
3.6257e-05
-0.000228758
6.13513e-05
-0.000209726
8.96621e-05
-0.000188445
0.000119909
-0.000164091
0.000150739
-0.000137794
0.000180893
-0.000110821
0.000209702
-5.99373e-05
3.56724e-05
-4.71694e-06
5.211e-07
-8.9495e-09
4.5168e-10
-4.20875e-13
1.86792e-14
-3.86064e-18
7.18354e-19
9.32026e-23
3.5827e-23
5.28812e-27
-0.000272273
1.27214e-05
-0.000260951
3.12604e-05
-0.000247497
5.4996e-05
-0.000231255
8.28801e-05
-0.000212448
0.000113665
-0.000190034
0.000145851
-0.000164916
0.000177861
-0.000138518
0.00020859
-8.06748e-05
3.88949e-05
-7.8299e-06
6.25482e-07
-2.05146e-08
5.51488e-10
-1.25001e-12
2.0419e-14
-1.16489e-17
6.35466e-19
-8.07461e-23
2.54701e-23
1.54145e-27
-0.000281976
9.70331e-06
-0.000273855
2.56252e-05
-0.000263725
4.7488e-05
-0.000250716
7.4457e-05
-0.000234946
0.000105378
-0.000215137
0.000138768
-0.000191876
0.000172811
-0.00016656
0.000205903
-0.000102945
4.29029e-05
-1.20129e-05
7.93114e-07
-4.1239e-08
7.73889e-10
-2.64157e-12
2.77411e-14
-2.17772e-17
6.84626e-19
-2.61799e-22
2.25727e-23
-8.66258e-28
-0.000288555
6.57819e-06
-0.000283632
1.94807e-05
-0.000277081
3.89815e-05
-0.000267644
6.44166e-05
-0.000255434
9.49443e-05
-0.000238904
0.000129145
-0.000218245
0.000165138
-0.000194674
0.000200925
-0.000127018
4.7388e-05
-1.75512e-05
1.04025e-06
-8.15508e-08
1.21891e-09
-5.55493e-12
4.64858e-14
-4.0506e-17
8.93954e-19
-5.05262e-22
2.43751e-23
-3.21669e-27
-0.000291821
3.26683e-06
-0.000290062
1.30082e-05
-0.00028728
2.96803e-05
-0.000281621
5.29583e-05
-0.000273378
8.23606e-05
-0.000260765
0.000116805
-0.000243475
0.000154374
-0.000222485
0.000192948
-0.000152923
5.18905e-05
-2.46889e-05
1.38637e-06
-1.60256e-07
2.07455e-09
-1.23695e-11
9.4087e-14
-8.38982e-17
1.43958e-18
-9.36302e-22
3.16933e-23
-6.33791e-27
-3.48603e-07
-0.000291473
-0.000293124
6.3289e-06
-0.000294152
1.98798e-05
-0.00029229
4.0349e-05
-0.000288299
6.78801e-05
-0.000280071
0.000101667
-0.000266927
0.000140257
-0.000249488
0.000181378
-0.000180424
5.58145e-05
-3.36121e-05
1.84595e-06
-3.09206e-07
3.68158e-09
-2.96675e-11
2.17909e-13
-1.89918e-16
2.8796e-18
-1.84184e-21
4.99898e-23
-1.20363e-26
-1.72073e-07
-0.0002933
-1.29585e-05
-0.000278514
-0.000297702
9.87884e-06
-0.000299351
2.69408e-05
-0.000299829
5.18783e-05
-0.000296222
8.40307e-05
-0.000287812
0.000122552
-0.000274988
0.000165757
-0.000208993
5.84669e-05
-4.44083e-05
2.41409e-06
-5.75857e-07
6.59718e-09
-7.67976e-11
5.46269e-13
-4.59065e-16
6.85092e-18
-3.88193e-21
9.72763e-23
-2.46191e-26
-5.29528e-07
-0.000297344
-2.55241e-05
-0.000280735
-2.73077e-05
-0.000251207
-0.000302578
1.3106e-05
-0.000307739
3.48517e-05
-0.000308737
6.43936e-05
-0.000305402
0.000101621
-0.000297882
0.000145446
-0.000237719
5.90877e-05
-5.70291e-05
3.05126e-06
-1.02317e-06
1.16249e-08
-2.09487e-10
1.4104e-12
-1.0729e-15
1.81553e-17
-8.60438e-21
2.29636e-22
-5.49559e-26
-4.53296e-08
-0.000303062
-3.81055e-05
-0.000284763
-5.41605e-05
-0.000253882
-3.86753e-05
-0.000212531
-0.000312064
1.74301e-05
-0.000317149
4.32634e-05
-0.000319212
7.82033e-05
-0.000317008
0.000120747
-0.00026518
5.67489e-05
-7.11968e-05
3.66999e-06
-1.72844e-06
1.9814e-08
-5.72284e-10
3.58805e-12
-2.11411e-15
5.04044e-17
-1.70767e-20
6.24432e-22
-1.33822e-25
-3.38107e-07
-0.000311771
-5.02619e-05
-0.000290906
-8.1417e-05
-0.000257507
-7.53338e-05
-0.000217224
-5.16005e-05
-0.000160931
-0.000320834
2.11149e-05
-0.000328833
5.28844e-05
-0.000332002
9.31975e-05
-0.000290094
5.1066e-05
-8.62825e-05
4.11633e-06
-2.76831e-06
3.21164e-08
-1.47913e-09
8.7613e-12
-2.26897e-15
1.38587e-16
-1.24354e-20
1.82945e-21
-3.29165e-25
1.87268e-07
-0.000321359
-6.29397e-05
-0.000299093
-0.000108576
-0.000263746
-0.00011189
-0.00022095
-9.61864e-05
-0.000172638
-6.46403e-05
-9.62904e-05
-0.000334385
2.66665e-05
-0.000342064
6.29464e-05
-0.00031081
4.21174e-05
-0.00010159
4.24456e-06
-4.18827e-06
4.7863e-08
-3.47536e-09
2.00383e-11
7.80063e-15
3.63713e-16
1.40187e-19
5.38798e-21
-6.36049e-25
-5.27571e-07
-0.00033367
-7.5428e-05
-0.000308871
-0.000136811
-0.000270858
-0.000146903
-0.000228733
-0.000137218
-0.000179918
-0.000117089
-0.00012019
-0.000123254
2.69634e-05
-0.000345809
3.04114e-05
-0.000325373
2.96952e-05
-0.00011634
3.92868e-06
-6.01858e-06
6.37709e-08
-7.32359e-09
4.12773e-11
7.08495e-14
8.82596e-16
1.13251e-18
1.51439e-20
2.62175e-25
2.66319e-08
-0.000346363
-8.87859e-05
-0.000320312
-0.000166839
-0.000278843
-0.000182284
-0.000235476
-0.000172147
-0.000193805
-0.000159776
-0.000137231
-0.00021032
-3.31236e-05
-0.000136194
0.000163157
-0.000331409
1.41873e-05
-0.000127601
2.96984e-06
-7.93423e-06
7.07011e-08
-1.38631e-08
7.24745e-11
3.37688e-13
1.94987e-15
5.75516e-18
3.88802e-20
1.16651e-23
-1.64067e-06
-0.000330052
-9.4267e-05
-0.00033436
-0.00019931
-0.000287818
-0.000219574
-0.000241553
-0.000205305
-0.000202318
-0.000191504
-0.000162077
-0.0002553
-9.22505e-05
-0.000240921
7.16034e-05
-0.000236549
0.000399706
-0.000129246
1.24094e-06
-8.49753e-06
5.08482e-08
-2.24287e-08
9.83639e-11
1.16354e-12
4.56467e-15
2.27917e-17
8.68959e-20
7.77209e-23
-5.7417e-07
-0.000128352
-5.67262e-05
-0.000317397
-0.000215543
-0.000300168
-0.000259673
-0.000247543
-0.000239789
-0.000207069
-0.00021952
-0.000174302
-0.000264222
-0.000153155
-0.000285307
-4.78646e-05
-0.000376688
0.000211743
-0.000118187
0.000517892
-8.16807e-06
8.73858e-09
-2.3246e-08
7.73403e-11
2.82432e-12
7.56228e-15
7.76137e-17
1.74312e-19
3.45065e-22
-1.06461e-08
-7.50424e-06
-4.45444e-06
-0.000100165
-0.000106515
-0.000273483
-0.000269122
-0.000258146
-0.000275809
-0.000210938
-0.000244016
-0.000182572
-0.000259727
-0.000178797
-0.000290071
-0.00014839
-0.000438578
1.40249e-05
-0.000227769
0.000321325
0.000207878
0.000310015
-2.0096e-08
8.11807e-12
4.02486e-12
6.77405e-15
1.97038e-16
2.71604e-19
1.14408e-21
-1.1829e-11
-1.65054e-08
-4.67162e-08
-4.01779e-06
-5.64151e-06
-5.20765e-05
-8.92064e-05
-0.000211361
-0.000265064
-0.000219223
-0.00026616
-0.000187454
-0.000254692
-0.000187601
-0.000270877
-0.000197991
-0.000396864
-0.000190104
-0.000245864
3.21201e-05
0.000281841
0.000247362
0.00142175
0.000389164
-0.00150091
3.69871e-12
1.01543e-15
2.7389e-16
2.39646e-19
2.82025e-21
-6.94642e-16
2.16388e-12
-3.58547e-11
-6.30197e-09
-4.60501e-08
-1.26308e-06
-3.07316e-06
-1.975e-05
-5.53643e-05
-0.00014929
-0.000231898
-0.000189645
-0.000251133
-0.000188619
-0.000245925
-0.000212542
-0.000318058
-0.000276797
-0.000225609
-0.000210359
0.000257185
5.67753e-05
0.0013363
0.000332818
0.00162824
0.000507902
-0.00174697
0.000239771
-0.00174068
2.79431e-16
3.63509e-20
4.1621e-21
-2.7963e-20
1.61429e-16
-1.52455e-15
8.56538e-13
-2.9158e-11
-1.68768e-09
-2.02327e-08
-3.04436e-07
-1.34953e-06
-5.56442e-06
-3.10995e-05
-0.000101888
-0.000192378
-0.00017752
-0.000220999
-0.000210454
-0.000250187
-0.000280399
-0.000186566
-0.000315839
0.00017995
-0.000133123
0.00118963
0.000203448
0.00144009
0.000520965
0.00162768
0.000691784
-0.00181157
0.0003787
-0.0018859
0.000171341
-0.00191202
4.3774e-21
2.47178e-21
-5.51127e-20
3.60314e-17
-1.1496e-15
1.73447e-13
-1.09586e-11
-4.77798e-10
-6.53772e-09
-7.07975e-08
-5.85813e-07
-6.31622e-07
-1.74548e-05
-7.34572e-05
-0.000150316
-0.000180155
-0.000204271
-0.000253209
-0.000145612
-0.000321352
0.000153336
-0.000289226
0.000988899
6.76064e-05
0.00122494
0.000418595
0.00141137
0.000737281
0.00164517
0.000970748
-0.00192413
0.000582817
-0.00201568
0.000299846
-0.0020144
9.59796e-05
-0.002008
4.58494e-22
-3.83015e-20
1.07124e-17
-3.97661e-16
-1.60366e-14
-2.91941e-12
-1.71623e-10
-2.04785e-09
-1.68393e-08
-2.71618e-07
8.30365e-07
-9.98738e-06
-5.69518e-05
-0.00012862
-0.0001925
-0.000129909
-0.000267692
0.000130364
-0.000298379
0.000739581
-3.991e-05
0.000992509
0.000300038
0.00114226
0.000687699
0.00138051
0.00100193
0.00172389
0.00133698
-0.00209013
0.000836536
-0.00217785
0.000430929
-0.00214675
0.000168948
-0.00208737
3.64986e-05
-0.0020445
1.24696e-22
-1.19481e-20
8.38576e-19
-1.00043e-16
-1.66963e-14
-7.36061e-13
-6.72793e-11
-6.9464e-10
-1.87254e-09
-1.39298e-07
1.39267e-06
-6.26775e-06
-5.28393e-05
-9.92455e-05
-0.000176812
2.91322e-05
-0.00016647
0.000467955
-2.67534e-05
0.000673332
0.000279267
0.000857206
0.000585092
0.00110358
0.00096463
0.00138391
0.00134191
0.00172221
0.00168292
-0.00206814
0.00108621
-0.0023398
0.000564243
-0.00231116
0.000235501
-0.00221331
6.11272e-05
-0.00211199
-8.67049e-06
-0.00203581
5.22398e-24
-2.80187e-21
-1.17994e-19
-2.34588e-17
-6.03785e-15
-1.92194e-13
-2.4461e-11
-2.61858e-10
3.4924e-09
-7.08187e-08
1.45326e-06
-4.46607e-06
-4.01828e-05
-5.95948e-05
-6.73879e-05
0.000218145
8.33404e-05
0.000327342
0.000319235
0.000589408
0.000547068
0.000789327
0.000899341
0.00106705
0.00128149
0.00132855
0.00173557
0.00152036
0.000486591
-0.00180359
0.00048684
0.000496231
0.000496494
0.0012659
-0.00224783
0.000620126
-0.00239568
0.000252869
-0.00232853
5.8106e-05
-0.0022103
-3.67486e-05
-0.00208392
-4.49269e-05
-0.00199087
-2.06973e-24
-6.10383e-22
-7.5071e-20
-5.42887e-18
-1.5803e-15
-5.31166e-14
-6.87747e-12
-9.63607e-11
4.11208e-09
-3.86708e-08
1.57116e-06
-3.442e-06
-5.59269e-06
-1.49172e-06
0.000147643
9.80936e-05
0.000312589
0.000362002
0.000546641
0.000536457
0.000799941
0.000743321
0.00122307
0.00101397
0.00159607
0.00109871
0.00215722
-4.81126e-07
0.000346475
-0.000366633
0.000507231
0.000373181
-0.00196536
0.000371159
0.000342994
0.000340437
0.000347522
-0.000366791
0.000505628
-2.21955e-07
0.000300272
0.000542656
0.000301964
0.00054183
0.000606634
-0.00223431
0.00016831
-0.00231112
5.0363e-06
-0.00227546
-8.6772e-05
-0.00216028
-0.000100133
-0.00202872
-7.48772e-05
-0.00191602
-8.84703e-25
-1.2735e-22
-2.04679e-20
-1.28603e-18
-2.78053e-16
-1.439e-14
-8.78824e-13
-3.45289e-11
2.20624e-09
-1.91196e-08
1.41636e-06
-2.23031e-06
6.01203e-05
-2.64002e-05
0.000275166
0.000155095
0.000519496
0.000359609
0.000723488
0.000412645
0.00113062
0.000751384
0.00148565
0.000712541
0.00198224
-0.000236103
-0.00023803
0.000781522
0.00061163
0.000604967
0.000618524
0.000616945
-7.27114e-07
-0.000401985
0.000409271
2.35035e-07
0.00026587
-0.00030357
0.000544696
-0.0018283
0.000470346
-0.000399261
0.000402915
-5.53551e-07
-0.000396998
0.000338616
-0.000392122
0.000332803
0.000265397
-0.000300494
0.000540961
3.04693e-07
0.000572119
0.000569502
-9.17092e-05
-0.00197421
-0.000165933
-0.00214014
-0.000177388
-0.00218484
-0.000173127
-0.00208728
-0.00015247
-0.00195113
-9.94801e-05
-0.00181655
-2.11857e-25
-2.65119e-23
-3.27904e-21
-2.98683e-19
-3.58033e-18
-3.74988e-15
5.06178e-14
-1.13524e-11
7.49952e-10
-6.0706e-09
1.26101e-06
-1.64299e-06
8.8017e-05
-1.38715e-05
0.000445371
0.000162994
0.000716111
0.000152647
0.000983486
0.000492274
0.00138973
0.000459041
0.00173915
0.000499272
0.000578121
0.000577181
0.000556472
0.000552715
3.96882e-07
0.000108986
-0.000136381
0.000638629
0.000107406
-0.000136464
0.000634421
-2.96268e-07
9.92386e-05
0.000628568
9.82519e-05
0.000625803
-5.08382e-07
-0.000345496
0.000451711
8.75437e-07
0.000181485
-0.00020667
0.000162659
0.000116334
0.000160128
0.000129885
-0.0014932
-0.000425142
0.000362635
0.000358949
-0.00145054
4.94935e-05
5.89201e-05
0.00015094
0.000152369
-0.000341951
0.000443868
-7.64773e-07
0.000356577
0.000349099
0.000179878
-0.000203432
0.00016127
0.000117306
0.000158244
0.00012857
1.02037e-06
0.000170574
0.000135891
0.000169311
0.000140426
0.000169404
0.000137566
0.000167547
0.00013942
-0.000472548
-0.00166748
-0.000339278
-0.00197825
-0.000272603
-0.00208537
-0.00024885
-0.0019909
-0.000204596
-0.00184602
-0.00012755
-0.001689
-3.31284e-26
-5.177e-24
-9.16867e-23
-7.26119e-20
6.12887e-18
-8.45862e-16
5.33649e-14
-2.90209e-12
1.55907e-10
-2.9763e-09
1.31151e-06
-1.3744e-06
0.00012072
-2.59317e-05
0.000627174
-9.13438e-06
0.000877252
0.000214551
0.00126121
0.000247597
0.00160117
0.000286513
0.000481546
0.000480076
0.000495827
0.000494465
-1.24562e-07
7.46256e-05
0.000602859
7.30883e-05
0.00060222
-1.06947e-08
4.47416e-05
0.000586367
4.21821e-05
0.00058361
4.04074e-07
2.77861e-05
-2.38208e-05
-9.06055e-06
0.000139115
-1.53704e-05
0.000184853
0.000143038
0.000186246
5.40822e-06
2.65193e-05
-2.3672e-05
-8.49526e-06
-1.51505e-05
0.000137907
0.00018442
0.000141852
0.000185354
6.09095e-06
7.69263e-07
1.03951e-05
0.000137951
0.000180923
0.000140679
0.000185587
9.81793e-06
0.000137947
0.00018017
0.000140484
0.000184673
-2.29665e-07
-0.000232412
0.000139447
9.93471e-05
0.000137757
0.000101134
-2.23521e-05
9.15566e-06
1.11481e-07
2.05431e-05
0.000155201
-7.88249e-06
1.62666e-05
-1.89669e-05
0.000126917
2.4651e-08
-2.36768e-05
0.000153545
1.71327e-05
0.000138175
-0.00113343
-0.000830786
-0.00123359
-0.000217462
-0.000199049
-0.000115997
-0.00010649
-2.46016e-06
0.000229452
-0.00018225
4.93612e-06
0.000237125
-0.000187533
6.97183e-06
-3.2844e-06
0.000241213
0.00014258
0.000245563
0.000140738
-0.000230872
0.000137653
9.90658e-05
0.000135917
9.84484e-05
-2.0956e-06
0.000112159
7.40033e-05
0.000101839
7.95048e-05
0.000109881
7.44094e-05
9.97996e-05
7.76526e-05
-2.13174e-05
8.96318e-06
1.9746e-05
0.000153989
-7.67234e-06
1.6077e-05
-1.86842e-05
0.000127585
-2.29072e-05
0.000152186
1.67344e-05
0.000136876
1.90428e-05
1.11958e-05
2.21373e-07
0.000160657
-1.55126e-05
-1.87658e-05
0.000146349
2.22142e-07
0.000163557
0.000149988
1.84453e-05
1.13036e-05
0.000159622
-1.53892e-05
-1.83772e-05
0.000147661
0.00016233
0.000149081
-0.00062215
-0.0013846
-0.000420776
-0.00183008
-0.000384269
-0.00194995
-0.000323696
-0.00187181
-0.000254305
-0.00171926
-0.000160876
-0.00152812
-3.68642e-27
-9.88318e-25
3.03739e-23
-1.70574e-20
-3.78461e-19
-1.59134e-16
-2.42426e-15
-9.54621e-13
9.12265e-12
-1.25422e-09
1.14353e-06
-1.26429e-06
0.000130979
-5.83704e-05
0.000667541
-2.15293e-05
0.00111265
4.50124e-05
0.0014638
0.000113131
0.000436584
0.00043638
0.000451284
0.000450308
2.60181e-07
1.12468e-05
0.000514781
1.02817e-05
0.000512236
-4.09842e-08
2.93471e-06
0.00050418
3.56387e-06
0.000501141
1.25934e-06
2.24599e-06
0.000130566
0.000171347
0.000134539
0.000173261
2.20702e-06
0.000131168
0.000171297
0.000135705
0.00017291
1.51771e-06
-1.0736e-05
0.000127179
0.000168088
0.000129727
0.000172844
-1.18188e-05
0.000128349
0.000167337
0.000131317
0.000172172
-1.02053e-06
-1.08006e-05
-1.36614e-06
0.000152302
-2.13292e-06
-6.23794e-06
0.000139349
-1.45893e-05
-3.24608e-07
0.00018666
1.21209e-05
-5.60868e-06
-1.12179e-05
0.000149064
-1.33486e-07
-1.31809e-05
0.000179379
-3.29982e-08
9.96743e-07
0.00016585
-2.75843e-06
-6.30527e-06
0.000141574
-4.70942e-07
-1.08507e-05
-2.09657e-06
0.000151325
-1.49544e-05
1.33353e-05
0.000185244
-5.16349e-06
-1.17015e-05
0.000147866
-1.3601e-05
0.000178704
1.42305e-06
0.000164207
-6.27355e-06
1.29803e-05
-1.34806e-05
0.000144725
1.23815e-05
1.3512e-07
-1.02545e-05
0.000172386
-5.9542e-06
0.000148396
2.63498e-08
0.00017884
-6.29218e-06
1.31525e-05
-1.35516e-05
0.000144639
1.29938e-05
-1.08155e-05
0.000171834
-6.02367e-06
0.000147959
0.000178069
2.82077e-05
8.14849e-06
-2.15965e-07
-3.09266e-05
0.000134233
-6.98913e-06
-2.37579e-05
0.000111127
2.96804e-09
0.000135296
-2.60443e-05
0.000111569
-1.02108e-05
-3.81354e-07
3.44184e-08
5.48827e-06
0.000160271
9.68119e-07
2.50874e-06
-3.06098e-06
0.000126501
-1.7848e-07
-1.11093e-05
0.000155572
3.37642e-07
0.000139964
-0.000794805
-0.00096083
-0.000864753
-0.000337477
-0.00032737
-0.000274953
-0.000259816
-1.31029e-06
0.00016642
-0.000155051
-0.000227639
0.000171447
-0.000160701
-0.000211055
-1.98585e-06
-0.000129613
-0.000124286
-3.86116e-06
0.000106936
-0.000108857
-2.07063e-05
1.27608e-05
-3.80355e-06
2.24472e-05
0.000121786
-0.000125741
-2.11293e-05
1.17279e-05
-5.10792e-06
2.15893e-05
-3.17806e-06
1.99509e-05
3.8866e-05
4.33738e-05
1.33098e-07
5.19149e-05
2.12317e-05
4.5339e-05
3.18795e-05
2.11734e-05
4.1115e-05
4.42922e-05
2.83528e-06
5.07794e-05
2.05619e-05
4.43595e-05
3.42383e-05
2.78072e-05
7.72278e-06
-3.0714e-05
0.000132621
-6.83584e-06
-2.3368e-05
0.000110586
0.000133984
-2.57238e-05
0.000108528
-3.50626e-05
9.56306e-06
-5.49598e-07
0.000107282
-1.30799e-05
2.83811e-05
7.86544e-05
-7.93091e-07
9.33391e-05
9.14061e-05
-3.55943e-05
8.90696e-06
0.000105304
-1.23248e-05
2.86288e-05
7.92813e-05
9.22024e-05
8.94672e-05
-8.84766e-06
-8.21833e-07
4.7275e-06
0.000158966
1.10752e-06
2.23225e-06
-2.66699e-06
0.000126912
-1.00827e-05
0.00015435
2.16479e-07
0.00013807
2.39656e-06
9.02074e-08
0.000164676
0.000146485
2.57212e-06
0.000163291
0.000145564
-0.000600644
-0.00120474
-0.000531769
-0.00168258
-0.000470405
-0.00180324
-0.000390867
-0.00173524
-0.000314222
-0.00156592
-0.000205249
-0.00132287
-5.80351e-28
-1.54839e-25
-6.12997e-23
-3.84909e-21
-1.01339e-18
-3.48831e-17
-1.91274e-14
-2.39074e-13
-1.93888e-11
-3.12071e-10
5.59541e-07
-6.91333e-07
9.90871e-05
-4.67072e-05
0.000693807
-0.000120027
0.00127714
-8.59325e-05
0.000401954
0.0004016
0.0004297
0.000429616
1.47361e-07
-3.68197e-06
0.000443053
-3.18399e-06
0.000443275
-6.84408e-08
-1.91261e-05
0.000466796
-1.90577e-05
0.000466114
1.6358e-06
-2.36646e-05
0.000111185
0.00014865
0.000115502
0.000150773
-2.48403e-05
0.000112441
0.000147855
0.000116781
0.000149809
1.60252e-06
-3.44292e-05
0.000113035
0.000143394
0.000112024
0.00014486
-3.76795e-05
0.000114715
0.000142833
0.000113764
0.000144245
-6.55065e-06
-1.7166e-05
0.000140802
-1.4272e-05
1.74453e-07
0.000168655
-6.39171e-06
-1.55123e-05
0.000139282
6.70002e-08
-1.12047e-05
0.000163771
-6.47883e-06
-1.76863e-05
0.000141782
-1.46201e-05
0.000168797
-6.14714e-06
-1.62226e-05
0.000140389
-1.14341e-05
0.000163634
-7.92602e-06
1.82434e-05
-1.70736e-05
0.000133931
1.00669e-05
7.87883e-08
-1.16699e-05
0.000161708
-6.0023e-06
0.000138455
4.70625e-08
0.000165637
-7.79318e-06
1.8848e-05
-1.77714e-05
0.000135065
1.05272e-05
-1.21967e-05
0.000161301
-5.97909e-06
0.000139921
0.000165344
-1.43587e-07
6.16389e-06
2.47783e-07
-3.04179e-05
-3.69127e-05
-7.10735e-08
-1.46659e-07
1.36981e-05
2.77182e-07
-1.27717e-05
-3.90902e-08
-1.34301e-05
-3.25373e-07
5.87293e-06
2.94014e-07
-3.01675e-05
1.44206e-05
-3.70929e-05
3.8197e-07
-1.28293e-05
-1.36345e-05
1.82583e-07
1.29958e-05
-1.3528e-05
1.08441e-05
2.61186e-08
-1.11446e-05
2.52239e-07
-1.50293e-09
1.76259e-07
1.30961e-05
-1.38193e-05
1.10876e-05
-1.13651e-05
1.82979e-07
1.42117e-05
1.10925e-06
-3.35829e-07
-1.99295e-05
0.000139192
6.91556e-07
-2.97043e-06
0.000110345
-1.30943e-07
0.000139237
-1.47507e-06
0.000111183
3.31483e-06
1.2183e-07
-9.43406e-08
-1.00496e-05
-5.96913e-07
-8.51733e-06
9.00165e-06
-1.53434e-07
1.85672e-06
-9.89367e-06
-0.000638048
-0.000757405
-0.000596952
-0.000304706
-0.000298806
-0.000318056
-0.00030619
1.77213e-06
0.000135795
-0.000111067
-0.000364061
0.000139058
-0.000113396
-0.000351262
1.47403e-06
-0.000295863
-0.000280087
-2.3628e-06
0.000104124
-0.000100882
-8.15484e-05
-4.40482e-05
-6.7735e-05
-3.51727e-05
0.000124857
-0.000122243
-7.61285e-05
-4.13236e-05
-6.42206e-05
-3.42932e-05
-3.83346e-06
-4.05959e-05
-1.38654e-05
-5.32785e-05
-2.26967e-05
-4.01578e-05
-1.40816e-05
-5.16003e-05
-2.30367e-05
-1.01586e-05
-1.23479e-05
1.19769e-05
-1.01767e-05
1.35424e-05
-4.03223e-07
-2.45775e-06
-8.02645e-06
-7.08435e-06
-1.67606e-05
7.69355e-06
-1.34552e-07
1.3481e-05
1.55588e-05
-9.23628e-06
-1.02201e-05
8.65858e-06
-1.03315e-05
1.54144e-05
-4.37986e-06
-8.94614e-06
-6.7334e-06
-1.52894e-05
6.69478e-06
1.56108e-05
1.4525e-05
-2.85205e-06
1.56405e-05
-2.74131e-05
5.79988e-05
-4.05048e-06
-3.05387e-06
8.58924e-05
-4.87696e-06
-4.03825e-07
5.327e-05
1.11176e-06
-7.91367e-06
2.80255e-05
-1.17806e-07
4.61472e-05
-7.8803e-07
2.62102e-05
9.57269e-05
-2.59343e-06
1.43691e-05
-2.70174e-05
5.95344e-05
-3.90276e-06