/*--------------------------------*- C++ -*----------------------------------*\
| =========                 |                                                 |
| \\      /  F ield         | OpenFOAM: The Open Source CFD Toolbox           |
|  \\    /   O peration     | Version:  5.x                                   |
|   \\  /    A nd           | Web:      www.OpenFOAM.org                      |
|    \\/     M anipulation  |                                                 |
\*---------------------------------------------------------------------------*/
FoamFile
{
    version     2.0;
    format      ascii;
    class       volScalarField;
    location    "1.3";
    object      alpha.water;
}
// * * * * * * * * * * * * * * * * * * * * * * * * * * * * * * * * * * * * * //

dimensions      [0 0 0 0 0 0 0];

internalField   nonuniform List<scalar> 
12160
(
1
1
1
1
1
1
1
1
1
1
1
1
1
1
1
1
1
1
1
1
1
1
1
1
1
1
1
1
1
1
1
1
1
1
1
1
1
1
1
1
1
1
1
0.999853
0.630725
1
1
1
1
1
1
1
0.998411
0.666216
0.0278749
1
1
1
1
1
1
0.999998
0.996126
0.664476
0.0279454
0.000809709
1
1
1
1
1
1
0.999992
0.992196
0.654868
0.0366818
1.35622e-05
6.05112e-06
1
1
1
1
1
1
0.999985
0.988118
0.631113
0.0448537
7.70587e-05
2.87689e-07
4.33246e-09
1
1
1
1
1
1
0.999987
0.985725
0.609389
0.047769
0.000136441
7.59513e-08
1.15641e-12
2.05028e-13
1
1
1
1
1
1
0.999996
0.987088
0.605938
0.0474602
0.00026321
9.88122e-08
4.47294e-12
5.49941e-15
3.38115e-18
1
1
1
1
1
1
0.999999
0.991393
0.622473
0.0521712
0.00038624
2.94521e-07
1.0141e-11
9.85844e-17
1.0518e-22
1
1
1
1
1
1
1
0.996028
0.655233
0.0629843
0.000585082
6.20608e-07
5.54903e-11
3.1645e-16
1.47212e-21
1
1
1
1
1
1
1
0.999161
0.690018
0.0820172
0.000941744
1.33006e-06
1.53601e-10
1.85591e-15
5.60846e-21
1
1
1
1
1
1
1
0.999996
0.715463
0.108555
0.00162361
2.81956e-06
4.35586e-10
5.17331e-15
4.16924e-20
1
1
1
1
1
1
1
1
0.727243
0.134567
0.0028453
6.08068e-06
1.0674e-09
1.60586e-14
1.3026e-19
1
1
1
1
1
1
1
1
0.724043
0.147687
0.00455869
1.24995e-05
2.61082e-09
3.99174e-14
4.67907e-19
1
1
1
1
1
1
1
1
0.704195
0.146782
0.00597236
2.2455e-05
5.77975e-09
1.00698e-13
1.21563e-18
1
1
1
1
1
1
1
1
0.671353
0.13461
0.00621995
3.28517e-05
1.10392e-08
2.24143e-13
3.26363e-18
1
1
1
1
1
1
1
1
0.630274
0.115374
0.00534888
3.73778e-05
1.74259e-08
4.32422e-13
7.53741e-18
1
1
1
1
1
1
1
1
0.585055
0.0948047
0.0038313
2.92041e-05
2.14492e-08
7.01375e-13
1.52187e-17
1
1
1
1
1
1
1
1
0.539504
0.0756245
0.00251782
1.67028e-05
1.47992e-08
9.06769e-13
2.58089e-17
1
1
1
1
1
1
1
1
0.49669
0.0593141
0.00158177
8.24343e-06
6.55621e-09
6.10471e-13
3.4093e-17
1
1
1
1
1
1
1
1
0.459012
0.0464556
0.000971458
3.79068e-06
2.29299e-09
2.64026e-13
2.35753e-17
1
1
1
1
1
1
1
1
0.428203
0.0369406
0.000602659
1.69042e-06
7.09175e-10
8.73396e-14
9.99712e-18
1
1
1
1
1
1
1
1
0.405388
0.0303268
0.00038906
7.67564e-07
2.09577e-10
2.50343e-14
3.14632e-18
0.999999
0.999999
1
1
1
1
1
1
0.391179
0.0260844
0.000268245
3.72464e-07
6.40719e-11
6.874e-15
8.46644e-19
0.999999
0.999999
0.999999
1
1
1
1
1
0.385749
0.0237243
0.000202587
2.01984e-07
2.20505e-11
1.99841e-15
2.20542e-19
1
0.999999
0.999999
0.999999
0.999999
1
1
1
0.388837
0.0228981
0.000170269
1.27821e-07
9.24147e-12
6.8142e-16
6.26036e-20
1
1
1
0.999999
0.999999
1
1
1
0.400122
0.0234122
0.00016017
9.68674e-08
5.02492e-12
2.93607e-16
2.1428e-20
1
1
1
1
0.999999
0.999999
1
1
0.418982
0.0252759
0.000167076
8.8091e-08
3.5757e-12
1.64959e-16
9.29605e-21
1
1
1
1
1
1
1
1
0.444554
0.0286483
0.000192116
9.44648e-08
3.2016e-12
1.19295e-16
5.18519e-21
1
1
1
1
1
1
1
1
0.475744
0.0337844
0.000242436
1.18296e-07
3.48583e-12
1.07204e-16
3.71167e-21
1
1
1
1
1
1
1
1
0.511277
0.0409831
0.000330408
1.72114e-07
4.59794e-12
1.16787e-16
3.32425e-21
1
1
1
1
1
1
1
1
0.549726
0.0505052
0.000476614
2.85617e-07
7.48201e-12
1.52661e-16
3.64495e-21
1
1
1
1
1
1
1
1
0.589562
0.0625092
0.000711967
5.22583e-07
1.51074e-11
2.41824e-16
4.82552e-21
1
1
1
1
1
1
1
1
0.629216
0.076981
0.0010807
1.01498e-06
3.63362e-11
4.72905e-16
7.71186e-21
1
1
1
1
1
1
1
1
0.66712
0.0936758
0.0016385
2.02554e-06
9.76723e-11
1.12598e-15
1.50309e-20
1
1
1
1
1
1
1
1
0.701668
0.112066
0.00244617
4.036e-06
2.76907e-10
3.10268e-15
3.54579e-20
1
1
1
1
1
1
1
1
0.731338
0.131237
0.00355488
7.88386e-06
7.86505e-10
9.27856e-15
9.82338e-20
1
1
1
1
1
1
1
1
0.754987
0.149955
0.00497743
1.4874e-05
2.16979e-09
2.82305e-14
3.03004e-19
1
1
1
1
1
1
1
1
0.771624
0.166938
0.00667325
2.66117e-05
5.67642e-09
8.35527e-14
9.71542e-19
1
1
1
1
1
1
1
1
0.780982
0.180491
0.0084965
4.43299e-05
1.37215e-08
2.32676e-13
3.05369e-18
0.783818
0.999234
0.999997
1
1
1
1
1
1
0.187591
0.00985326
6.71242e-05
2.96104e-08
5.91512e-13
8.99114e-18
0.187821
0.780957
0.994748
0.999967
1
1
1
1
0.999999
1
0.0101024
8.49682e-05
5.451e-08
1.46084e-12
2.38167e-17
0.0094948
0.178532
0.744859
0.985648
0.999836
1
1
1
0.999999
0.999999
1
8.36481e-05
7.76633e-08
3.16314e-12
5.59118e-17
6.83849e-05
0.00811116
0.131866
0.672433
0.970853
0.999478
0.999998
1
0.999999
0.999997
1
0.999996
7.63016e-08
4.99251e-12
1.13229e-16
5.79467e-08
5.26868e-05
0.00444026
0.0791677
0.578949
0.950112
0.99876
0.999996
1
0.999997
0.999998
0.999996
0.999998
0.999999
5.05766e-12
1.7323e-16
3.69907e-12
3.18026e-08
2.61216e-05
0.00188048
0.0446184
0.486217
0.925638
0.997932
0.999994
0.999999
0.999997
0.999998
0.999996
1
0.999998
1
1.77468e-16
1.35208e-16
1.35762e-12
1.52064e-08
9.44305e-06
0.000806211
0.0262459
0.408587
0.904361
0.997536
0.999998
0.999998
0.999999
0.999996
0.999999
1
0.999999
0.999993
1
4.56959e-17
6.2264e-13
4.9786e-09
3.22232e-06
0.000398359
0.0169906
0.35402
0.892311
0.998831
0.999998
0.999999
0.999998
0.999995
1
1
1
0.999995
0.999993
0.999999
2.0347e-17
1.8812e-13
1.43446e-09
1.22358e-06
0.000231315
0.0123229
0.319393
0.904791
0.999984
0.999998
0.999998
0.999995
0.999997
1
1
1
1
0.999993
0.999993
0.999993
5.70256e-18
5.09453e-14
4.34486e-10
5.31969e-07
0.00014965
0.0088776
0.317939
0.93311
0.999998
0.999998
0.999997
0.999995
0.999998
1
1
1
1
1
0.999995
0.999993
0.999984
1.44051e-18
1.42513e-14
1.40479e-10
2.50329e-07
8.99798e-05
0.00666971
0.322778
0.975459
0.999998
0.999999
0.999996
0.999995
1
1
1
0.999965
1
1
1
0.999996
1
1
0.999999
0.999997
0.999989
3.66066e-19
4.10973e-15
4.7162e-11
1.0905e-07
4.63134e-05
0.00470886
0.351742
0.939533
0.999999
0.999999
0.999997
0.999995
1
1
0.99999
1
0.999666
0.999989
0.999923
0.999902
1
1
1
0.999972
1
1
1
0.999999
0.999999
9.15617e-20
1.21871e-15
1.4804e-11
4.01683e-08
2.12908e-05
0.00324589
0.31292
0.943871
0.999998
0.999998
0.999997
0.999997
1
1
1
1
1
0.999996
1
0.998939
0.999148
0.999998
0.999934
0.999915
1
1
1
0.999954
1
1
1
1
1
2.26405e-20
3.48926e-16
4.11726e-12
1.30937e-08
7.344e-06
0.00255393
0.285426
0.929256
0.999417
0.999998
0.999998
0.999998
1
1
1
1
1
1
1
1
0.999999
1
1
1
1
0.998638
0.997079
0.999502
0.999794
0.999742
0.999752
0.999995
0.999969
0.99994
1
1
1
1
1
1
1
1
1
1
1
1
0.999992
1
1
1
1
1
5.05764e-21
1.02045e-16
9.53899e-13
3.89453e-09
3.06667e-06
0.00191099
0.222498
0.866708
0.998509
0.999998
0.999997
1
1
1
1
1
1
1
1
1
1
1
1
1
1
1
1
1
1
1
1
1
1
1
1
1
1
1
1
1
1
1
0.999999
1
1
1
1
0.999727
0.995698
0.996533
0.997109
0.998073
0.998822
0.999977
0.99998
0.99999
0.999986
1
0.999998
1
0.999996
1
0.999991
1
0.99999
1
0.999977
1
0.999977
1
1
1
1
1
1
1
1
1
1
1
1
1
1
1.06478e-21
2.75552e-17
2.24135e-13
1.0955e-09
1.17222e-06
0.00105414
0.138487
0.788584
0.992654
0.999833
1
1
0.999997
0.999997
0.999998
0.999999
0.999998
0.999999
1
1
1
1
1
1
1
1
1
1
1
1
1
1
1
1
1
1
1
1
1
1
1
1
1
1
1
1
1
1
1
1
1
1
1
1
1
1
1
1
1
1
1
1
0.999977
0.998265
0.995866
0.995698
0.996338
0.996353
0.997622
0.997744
0.999482
0.9995
1
1
1
1
0.999999
1
1
1
0.999998
0.999997
1
0.999999
1
1
0.999995
0.999991
1
0.999998
1
1
1
0.999999
1
0.999997
1
0.999995
1
0.999985
1
1
1
1
1
1
1
1
1
1
1
1
1
1
1.80678e-22
8.35991e-18
4.7332e-14
2.59447e-10
2.63337e-07
0.00048227
0.0778809
0.674748
0.97001
1
1
1
1
0.999998
0.999999
0.999997
0.999997
0.999998
0.999999
0.999998
0.999999
0.999999
1
0.999999
1
0.999998
0.999999
0.999998
0.999998
1
1
0.999999
1
1
1
1
1
1
1
1
1
1
1
1
1
1
1
1
1
1
1
1
1
1
0.999831
0.998787
0.99708
0.99461
0.994605
0.997128
0.996785
0.997286
0.997339
0.994348
1
0.997167
1
0.99469
1
0.997013
1
0.999989
1
0.999703
1
0.99999
1
0.999725
1
1
1
1
1
0.999999
1
1
1
0.999999
0.999998
1
1
1
1
0.999994
0.999995
1
1
0.999999
1
1
1
1
1
1
1
1
1
1
1
1
1
1
0.999999
3.62193e-23
2.34483e-18
8.89182e-15
3.43999e-11
4.84924e-08
0.000207473
0.0365824
0.490741
0.886947
1
1
1
1
1
1
1
1
0.999998
0.999999
0.999998
0.999998
1
1
1
1
1
1
0.999998
0.999998
1
1
0.999999
1
1
1
1
1
1
0.999998
0.999992
0.999841
0.999859
0.998802
0.997152
0.9973
0.994971
0.9946
0.995116
1
0.99687
0.999997
0.994421
1
0.996426
1
0.994371
1
0.996336
1
0.994714
1
0.996143
1
0.994991
0.999981
0.996412
1
0.995203
0.999976
0.996424
1
0.999995
1
0.999589
1
0.999984
1
0.99956
1
1
1
1
1
1
0.999999
5.91437e-24
7.38714e-19
8.51088e-16
3.60618e-12
1.07031e-10
5.52834e-05
0.0126761
0.238386
0.853028
0.853087
0.611074
0.611067
0.998772
0.998873
0.983662
0.983663
1
0.999992
1
0.999992
1
1
1
0.999969
1
0.999665
1
0.999913
1
0.999624
1
0.999817
1
0.999999
1
0.999998
1
1
1
1
0.999998
1
1
0.999999
1
1
0.999999
1
1
1
0.999992
0.999957
0.999913
0.999511
0.999408
0.995559
0.995657
0.994715
0.994104
0.995242
0.999682
0.995368
0.999624
0.994768
0.999722
0.995327
0.999619
0.99565
0.999871
0.99617
0.999693
0.995928
0.999848
0.996214
0.999674
0.993546
0.99999
0.993713
0.999983
1
1
1
1
1
0.999998
1.34781e-24
1.19204e-19
8.09509e-17
3.05079e-13
4.25513e-08
4.49614e-06
0.00310064
0.0765931
0.788774
0.789637
0.437593
0.437958
0.998836
1
1
0.9988
0.998954
1
1
0.998936
1
1
1
0.999998
1
1
1
0.999989
1
0.99997
1
0.999242
1
0.999798
1
0.999313
1
0.999881
0.999998
1
0.999991
1
1
1
0.999996
0.999994
0.999994
0.999986
0.999936
0.999737
0.999589
0.99807
0.998144
0.997574
0.991022
0.998424
0.991034
0.997686
0.991029
0.998467
0.991043
0.996095
0.993638
0.999788
0.991047
0.995899
0.993314
0.999778
0.991095
0.994043
0.99967
0.994882
0.999669
0.993896
0.999692
0.994715
0.999666
0.995379
0.999949
0.995804
0.999783
0.995677
0.999926
0.995741
0.999762
1
1
1
1
1
7.85764e-26
2.45378e-20
1.15636e-17
5.04558e-11
1.91348e-06
2.27935e-05
0.000213935
0.034934
0.0349175
1.31614e-05
1.31614e-05
0.667496
0.846046
0.532933
0.69542
0.666983
0.84872
0.532252
0.696654
0.232331
0.232577
0.998877
1
1
0.998904
0.998959
1
1
0.998955
0.804474
0.970949
0.917343
0.998998
0.804473
0.971668
0.918013
0.999012
1
0.999248
1
0.999685
1
0.999321
1
0.999616
1
1
0.999997
0.999994
0.99998
0.999969
0.99989
0.999846
0.99884
0.9987
0.991603
0.99844
0.998869
0.993893
0.992151
0.998475
0.998874
0.993812
0.995732
0.991009
0.996183
0.99106
0.995762
0.991016
0.996177
0.991103
0.995266
0.992683
0.999797
0.991348
0.995255
0.992582
0.999674
0.991271
0.993745
0.999835
0.99358
0.999842
1
1
1
1
1.51584e-26
4.74923e-20
2.03868e-13
1.28321e-08
1.78854e-05
6.80445e-05
9.57552e-05
9.48807e-05
5.95754e-06
5.9776e-06
0.0160402
0.0160161
0.000101331
0.000126155
0.597465
0.84492
0.420227
0.597286
0.596852
0.847619
0.420016
0.598751
0.142294
0.0451252
0.0647526
0.112325
0.142442
0.0449308
0.0648998
0.112297
0.9992
1
0.999995
0.999996
0.999278
1
0.999993
0.999994
0.79685
0.978064
0.866126
0.996552
0.796874
0.97883
0.866826
0.996691
1
1
1
0.999994
1
0.999992
0.99999
0.999991
0.999975
0.999979
0.999474
1
0.999898
1
0.999289
1
0.999836
1
0.998586
1
0.996275
0.999863
0.995595
0.998408
0.998102
1
0.995744
0.999725
0.995478
0.998427
0.99271
0.996795
0.993142
0.996757
0.992872
0.990379
0.993872
0.990388
0.992846
0.990329
0.993845
0.990351
1
1
1
2.74062e-28
3.95851e-17
1.34445e-10
5.12761e-07
8.24882e-05
0.000750018
0.000313049
0.000433939
0.00146454
0.00111565
0.00806594
0.0234133
0.0137698
0.00404772
0.00735895
0.0232297
0.0233104
0.0079741
0.0233031
0.0137529
0.00393069
0.00755954
0.000823795
0.00106538
0.00218464
0.00261918
0.000780345
0.00118709
0.00208486
0.00314237
0.485991
0.722933
0.340411
0.486688
0.48569
0.725547
0.340653
0.487646
0.036834
0.0362397
0.0368832
0.0361563
0.999999
0.958239
0.999999
0.958583
0.676637
0.91154
0.675929
0.913371
1
1
1
0.999998
0.999999
0.999989
0.999998
0.999989
1
0.999994
0.999997
0.999989
1
0.999915
1
0.999536
1
0.999361
1
0.999935
1
0.999527
0.999999
0.999224
0.998778
0.999996
0.998277
0.999987
0.997892
0.999969
0.996542
0.995905
0.99979
0.998993
0.997019
0.999869
0.995258
0.995418
0.999153
0.998626
0.99238
0.995995
0.992293
0.995726
1
1
1.95102e-22
1.33459e-13
7.68175e-09
1.635e-05
0.000360817
0.00799586
0.00723367
0.0045658
0.00368149
0.00497185
0.00617024
0.00851443
0.00872744
0.0119339
0.00437275
0.00518609
0.0087462
0.00235133
0.00324912
0.0115319
0.00454494
0.00879343
0.00503928
0.00247994
0.00421935
0.00405906
0.0055228
0.00293104
0.00488613
0.00314086
0.0041077
0.00263583
0.00411817
0.151321
0.146533
0.1515
0.14657
1
1
1
1
0.999998
1
0.999997
0.999995
0.99999
0.999993
1
0.999993
1
0.99999
1
0.999987
0.999999
0.99998
0.999913
1
0.999993
1
1
0.999981
0.999889
1
0.999987
0.999999
1
1
1
0.999624
0.999065
1
0.999999
0.999526
0.998773
0.997914
0.999996
0.997229
0.999966
0.997068
0.999968
0.995357
0.999204
0.995989
0.99972
0.993924
0.998238
1
3.58893e-18
2.30319e-11
3.04759e-07
7.0936e-05
0.00142094
0.011512
0.0119785
0.00644098
0.00636168
0.0185985
0.0128975
0.0119221
0.011688
0.0240002
0.0115785
0.0162626
0.012183
0.0139754
0.0171667
0.00990546
0.0122472
0.00658126
0.0182164
0.00842826
0.00990557
0.00576364
0.0111051
1
1
1
1
0.999999
0.999999
0.999996
1
0.999998
1
1
1
1
0.999996
1
0.999998
1
0.999992
0.999999
0.999993
1
0.999952
0.999993
1
1
0.999997
1
0.999927
0.99999
0.999999
1
0.99999
1
1
0.998757
1
0.998436
5.67764e-15
4.6127e-10
2.67736e-06
7.27511e-05
0.00218903
0.00143605
0.000325914
0.000287558
0.00507303
0.00763884
0.00563011
0.00522178
0.0171109
0.0194689
0.0176918
0.0150243
0.0231718
0.0182205
0.0292346
0.0155165
0.00126957
0.00658541
0.0047904
0.00611112
0.00605586
0.0131498
0.0081285
0.0119448
0.0223525
0.0298781
0.0203632
0.0327784
1
1
1
1
0.999998
0.999998
0.999996
0.999999
0.999996
0.999998
0.999996
0.999999
0.999995
0.999999
0.999995
0.999999
0.999991
0.999999
0.999991
0.999997
1
1
1
0.999994
0.999999
0.999995
1
2.0281e-13
8.11369e-09
2.99817e-06
9.29307e-05
0.00106841
0.000863458
0.000241457
0.00018448
0.00123479
0.00219406
0.00190355
0.000810327
0.00124844
0.000852311
0.0034441
0.00128747
0.00259784
0.00229049
0.00162528
0.00181017
0.00158488
0.00180082
0.0098657
0.0182989
0.0230673
0.011525
0.00989717
0.0169384
0.0256696
0.0115937
0.0016489
0.00275093
0.00359957
0.00146922
1
1
1
1
1
0.999997
1
0.999998
1
1
1
1
0.999999
1
0.999998
1
0.999997
1
0.999999
1
0.999995
1
0.999991
0.999999
0.999998
1
0.99999
0.999998
0.999994
1
0.999991
0.999998
1.68241e-12
3.07132e-08
1.63352e-05
0.000213885
0.000174878
0.000180231
0.000119866
0.000265847
0.000253536
0.000218941
0.000183274
0.000765113
0.000885091
0.00125821
0.000757992
0.00234216
0.000834615
0.00201128
0.000732546
0.00118679
0.00157045
0.00121417
0.00179128
0.000564988
0.0004662
0.000934878
0.00151024
0.000466853
0.000349726
0.00140426
0.000821065
1
1
1
0.999999
1
0.999997
0.999998
0.999998
1
1
0.999997
1
1
1
1
1
1
0.999999
1
0.999999
0.999998
1
0.999996
1
1
1
0.999999
0.999992
1
0.999999
1
0.999999
0.99999
0.999997
2.1361e-11
4.76305e-07
5.04612e-05
0.000197283
0.000145179
0.000141768
9.2059e-05
0.000562558
0.000638225
6.68633e-05
0.000424758
0.000211593
7.71932e-05
0.000449985
0.000343604
4.78109e-05
0.000186266
0.00011251
4.77135e-05
0.000136388
0.000116234
0.00226049
0.000846524
0.00185437
0.00168196
0.000929217
0.00188849
0.00148138
0.00127638
1
1
1
1
1
1
0.999999
1
1
1
0.999998
1
1
1
1
1
1
0.999999
0.999999
1
1
0.999998
1
1
1
1
1
0.999999
0.999998
1
1
1.07801e-09
3.13505e-06
1.39579e-05
7.82047e-05
5.24367e-05
5.50098e-05
2.71707e-05
0.000897316
0.000706679
0.000140308
0.000719515
0.000431132
0.000164257
0.000972805
0.000477519
5.6769e-05
0.000495094
0.000261701
6.58792e-05
6.84872e-05
0.000117788
0.000130689
0.000115526
3.79933e-05
8.86755e-05
4.20046e-05
5.63665e-05
0.000909585
0.00163502
0.00153879
0.00119234
1
1
1
1
0.999999
1
0.999997
1
0.999997
1
1
1
1
1
1
0.999999
1
1
0.999997
1
0.999998
1
1
1
1
0.999998
1
1
1
2.54808e-08
8.81837e-07
3.12824e-06
2.51716e-05
1.3715e-05
3.64645e-06
2.86181e-07
2.29463e-07
5.62839e-05
6.05483e-05
8.24763e-05
2.9579e-05
2.59245e-05
4.76447e-05
0.00101056
0.00116198
0.000296144
0.000628227
0.000938104
0.000346278
0.00136179
0.000772571
0.000146858
0.0006253
0.000524452
0.000181783
0.000189278
0.000172262
6.44724e-05
9.37804e-05
0.999999
0.999999
0.999998
1
0.999999
1
0.999998
1
1
1
1
1
1
1
0.999997
1
1
0.999997
1
1
1
1
1
0.999995
1
0.999995
1
1
1
0.999999
1
3.09616e-09
1.48369e-08
1.0207e-05
4.30642e-07
1.24098e-05
5.49178e-07
6.60713e-09
6.51419e-09
3.96297e-05
5.26793e-05
0.000306631
6.00711e-05
0.000111744
0.000103153
2.22934e-05
5.81305e-05
2.51544e-05
1.72106e-05
0.000199135
2.57511e-05
7.63439e-05
5.83826e-05
6.84792e-06
2.73804e-05
0.000457801
0.000368268
0.000257921
0.000238133
0.000224861
0.000393363
0.000130551
0.000317246
0.999997
0.999998
0.999998
0.999999
0.999997
0.999995
0.999999
0.999995
1
1
1
0.999997
1
1
1
1
1
1
0.999997
0.999999
0.999999
1
1
1
1
1
0.999995
1
0.999995
0.999999
1.20157e-11
5.2305e-07
4.55344e-06
4.53589e-05
1.06726e-05
5.59796e-07
1.36265e-05
2.96841e-05
6.85235e-06
4.99021e-07
4.28748e-08
4.49442e-08
3.6438e-05
2.12733e-05
0.000167464
0.000621091
0.0002284
8.8751e-05
1.93613e-05
9.67892e-05
7.5032e-06
0.000438315
0.000167126
5.96381e-05
0.000914886
0.000326879
0.000671477
0.000296703
0.999995
0.999996
0.999996
1
1
0.999996
0.999996
0.999995
0.999999
1
1
1
1
1
0.999999
1
0.999992
0.999995
1
1
1
0.999999
0.999991
1
1
1
1
1
1
0.999999
1
1
6.15359e-10
5.70773e-06
6.45155e-07
4.62892e-07
5.43432e-06
4.33709e-06
4.05734e-06
6.34125e-07
2.06465e-05
2.49871e-06
1.39041e-05
3.66245e-06
4.76989e-06
1.70795e-06
6.72115e-06
1.19285e-06
5.64935e-07
7.47797e-06
6.90606e-06
2.54601e-05
7.98943e-06
3.68431e-05
7.09665e-06
1.75649e-05
1.07551e-05
2.21464e-05
1.2271e-06
2.85087e-06
1.7054e-05
2.12358e-05
6.10709e-06
9.6742e-05
4.2516e-05
1.18796e-05
6.77553e-06
9.21385e-05
3.44435e-05
0.999994
0.999996
0.999999
1
1
0.999998
0.999996
1
0.999991
0.999997
0.999999
0.999998
0.999999
0.999998
1
1
1
1
0.999993
0.999993
0.999999
1
0.999999
0.999999
1
1
1
0.999999
1.36347e-28
5.2764e-06
2.03447e-05
4.67335e-06
2.02649e-05
9.46469e-06
8.86513e-06
2.47123e-06
1.61105e-06
1.12485e-05
1.33663e-05
8.47547e-07
1.54914e-05
1.07601e-06
8.89701e-07
8.92089e-06
7.19982e-07
8.89184e-06
2.37893e-06
1.595e-06
1.89741e-06
6.72678e-06
7.55268e-06
2.53826e-05
4.78807e-05
5.77537e-06
5.12095e-05
1.13171e-06
1.20021e-06
1.43019e-05
1.1547e-06
1.31077e-05
3.08964e-06
1.37102e-06
1.54635e-06
0.999996
0.999998
0.999995
0.999995
0.999995
0.999994
0.999994
0.999995
1
0.999998
1
0.999998
1
0.999998
1
0.999997
0.999999
0.999997
0.999999
0.999994
1
0.999998
1
1
0.999994
0.999999
0.999999
0.999992
0.999999
0.999998
0.999998
1
1
0.999993
0.999993
0.999999
0.999998
-3.96752e-31
1.52138e-05
2.96077e-06
3.25237e-06
1.017e-05
1.45771e-05
2.13837e-06
2.66477e-06
1.00948e-05
3.42308e-06
3.31274e-06
9.32876e-07
1.35097e-05
4.60171e-07
1.62594e-05
7.80545e-07
1.44996e-06
5.35515e-07
1.35971e-05
8.41842e-06
2.72991e-06
5.57956e-06
5.53068e-05
1.76695e-06
4.96844e-05
1.19906e-06
1.07096e-06
1.25524e-06
2.76037e-05
1.44612e-05
2.78e-06
0.999995
0.999998
0.999993
0.999997
0.999995
0.999998
0.999995
0.999997
0.999999
1
1
0.999994
0.999999
0.999994
0.999999
0.999998
0.999999
0.999992
0.999998
0.999998
0.999998
0.999999
0.999997
0.999999
1
1
1
0.999999
0.999997
0.999999
0.999993
0.999999
1
1
1
0.000237011
3.654e-06
3.52315e-06
7.59617e-06
4.74562e-06
5.96258e-06
5.64631e-06
5.30104e-06
1.25213e-05
7.24442e-06
3.47747e-06
4.66583e-06
6.9561e-06
4.47892e-06
1.24691e-05
5.91474e-07
6.37019e-07
1.72194e-06
9.36441e-06
5.97954e-06
2.14917e-06
1.0971e-06
1.00128e-06
1.17633e-06
1.04512e-05
1.11206e-05
1.53075e-06
0.999994
0.999998
0.999974
1
1
0.999974
1
1
0.999992
0.999996
0.999992
0.999995
1
0.999994
0.999999
0.999993
0.999999
0.999994
0.999997
0.999999
0.999998
0.999999
0.999999
0.999998
0.999999
0.999999
1
0.999995
0.999997
0.999999
0.999999
5.12837e-05
0.000108739
0.000938496
9.90478e-05
0.000915091
9.39959e-06
2.25057e-06
4.40771e-06
4.66968e-06
2.90215e-06
2.00118e-06
1.9877e-06
0.000485841
8.99576e-06
2.8818e-06
3.04794e-06
5.6971e-06
1.78489e-06
1.04188e-06
2.28931e-06
0.000463892
4.1186e-07
3.70485e-06
9.14326e-07
3.96141e-06
0.999994
0.999991
0.999991
0.999974
0.999986
0.999982
0.999983
0.999983
0.999974
0.999985
0.999981
0.999983
0.999981
0.999995
0.999996
1
0.999999
0.999992
1
0.999998
0.999995
0.999999
0.999997
0.999999
0.999998
1
0.999995
-1.31422e-32
0.000133746
1.66362e-06
0.000131946
1.67686e-06
0.00223592
0.00218284
0.000506886
3.61007e-07
4.33935e-06
2.72041e-06
1.30967e-07
1.70218e-06
1.89275e-06
2.1476e-06
9.74239e-07
2.49492e-07
1.45994e-06
0.000489531
6.16375e-07
4.34473e-06
3.45773e-06
4.16423e-07
1.23216e-05
8.93621e-07
5.41035e-06
6.73842e-07
9.054e-07
2.25131e-06
0.999997
0.999995
0.999993
0.999995
0.999994
0.999974
0.99999
0.999986
0.99999
0.999985
0.999993
0.999995
0.999979
0.999999
1
1
0.999999
0.999992
0.999994
0.999997
0.999998
1
1
0.999999
0.999999
-6.08424e-31
1.41212e-08
1.08826e-08
1.51988e-08
1.2495e-08
0.000280156
7.9047e-06
0.000271215
6.56033e-06
0.00406172
0.00399392
0.000883118
8.56603e-05
0.00025051
0.000498582
7.40518e-07
5.87963e-07
3.82029e-08
1.34821e-07
1.34406e-06
3.52118e-07
1.02452e-06
2.70399e-07
0.000866763
7.80319e-05
0.000243363
0.000467831
5.3524e-06
8.37483e-07
3.82028e-08
4.17748e-07
1.70402e-05
8.08895e-07
1.67499e-05
7.32139e-07
0.999996
0.999996
0.999995
0.999998
0.999998
0.999993
0.999992
1
0.999998
0.999999
0.999999
0.999997
0.999996
0.999993
0.999996
0.999997
1
1
1
1
1
1
1
1
1
1
0.999999
0.999999
1
3.23477e-12
-1.19073e-29
1.78827e-10
7.45029e-32
7.6316e-12
2.47403e-06
4.4706e-06
1.97434e-06
3.30254e-06
0.000493075
5.91506e-05
0.000476985
5.37146e-05
0.00644285
0.00415157
0.0064282
0.0047498
0.00644193
0.00410918
0.00641686
0.00468732
0.00125324
7.08698e-05
0.000304699
0.000573589
0.00121074
6.40062e-05
0.000295995
0.000536642
0.999997
0.999995
0.999999
0.999991
0.99999
0.999998
0.999997
0.999998
0.999998
0.999996
0.999991
1
1
1
0.999999
1
1
1
0.999997
0.999999
1
0.999999
1
1
1
1
0.999998
1
1
1
1
1
1
1
1
3.25709e-12
9.03134e-12
4.00024e-06
4.28058e-07
2.68995e-06
3.30195e-07
4.52533e-05
8.78118e-05
4.08289e-05
7.74581e-05
0.000107145
0.000402193
0.000547979
0.000123003
3.5814e-05
2.9398e-05
3.28956e-05
4.38918e-05
0.000102557
0.000385321
0.000531686
0.000112647
3.36666e-05
2.60575e-05
2.98302e-05
3.97312e-05
0.00644193
0.00422534
0.00644285
0.00566826
0.00644285
0.00419836
0.00644193
0.00561972
0.999997
0.999999
0.999999
0.999996
0.999996
0.999994
0.999996
0.999996
0.999991
1
1
0.999998
0.999997
0.999999
0.999987
0.999998
0.999992
0.999999
0.999985
0.999998
0.999994
1
1
1
1
1
1
1
1
2.51983e-11
2.77303e-07
4.53197e-08
6.76009e-07
2.35487e-07
1.9155e-10
8.87124e-05
3.5912e-05
7.82244e-05
3.93037e-05
4.24107e-05
5.01808e-05
5.0031e-05
6.48473e-05
5.7677e-05
8.78728e-05
0.000156792
8.88284e-05
3.89259e-05
4.38236e-05
4.98791e-05
5.69256e-05
5.46304e-05
7.67909e-05
0.000140493
7.80291e-05
7.95266e-05
0.000331727
0.000762285
4.06635e-05
2.29591e-05
2.63952e-05
2.39914e-05
3.00433e-05
7.82105e-05
0.000320266
0.000739808
3.6856e-05
2.20686e-05
2.35349e-05
2.15338e-05
2.71424e-05
0.999998
0.999998
0.999999
0.999994
0.999994
0.999991
0.999981
0.999966
0.999977
0.999965
1
0.999995
1
0.999999
0.999999
0.999989
0.999999
0.999993
1
0.999993
0.999999
0.999997
0.999999
0.999982
0.999998
0.999991
0.999998
0.999987
0.999993
0.999995
0.999998
0.999976
0.999991
0.999992
5.15977e-08
1.46957e-08
1.97884e-06
3.85049e-08
1.674e-06
9.00488e-05
7.14227e-05
9.47511e-05
8.1769e-05
4.70859e-10
0.000258943
8.47343e-05
0.00025862
7.80062e-05
0.000215479
5.33517e-05
0.000209459
4.25374e-05
0.000232154
7.3239e-05
0.000218901
6.32647e-05
0.000191414
5.34032e-05
0.000207913
3.99368e-05
2.476e-05
4.13041e-05
3.99361e-05
4.62105e-05
2.30785e-05
7.46292e-05
8.71039e-05
5.89486e-05
2.20722e-05
3.65712e-05
3.61698e-05
3.96225e-05
2.12677e-05
6.24605e-05
7.97888e-05
4.88451e-05
0.999998
0.999997
0.999996
1
0.999998
0.999999
0.999965
0.999987
0.999965
0.99999
1
1
1
1
1
1
1
1
1
0.999999
1
1
1
0.999995
0.999995
1
1
0.999997
1
1
0.999999
0.999989
0.999995
0.999996
0.999998
0.999992
0.999998
0.999993
0.999999
0.999979
0.999992
0.999993
4.07309e-06
1.42997e-08
2.34693e-05
3.64081e-05
2.47059e-05
3.3579e-05
0.000109348
7.79404e-05
0.000182217
8.18837e-05
0.000167685
0.000281733
7.0255e-05
0.000202419
5.77261e-05
0.000162987
0.000106905
7.18993e-05
0.000162348
8.47035e-05
0.000164628
0.000281731
7.9895e-05
0.000202467
6.33299e-05
0.000176427
6.28761e-10
0.000281733
6.90093e-05
0.0002281
6.98873e-05
0.000281731
7.18655e-05
0.000250419
5.7054e-05
0.000185509
4.99742e-05
0.000280443
4.68898e-05
1.54457e-05
5.01119e-05
4.79927e-05
3.17086e-05
1.5408e-05
3.79662e-05
4.68435e-05
2.50138e-05
0.999994
0.999997
1
1
0.999995
0.999994
1
1
1
0.999999
0.999984
0.999968
0.999966
0.999979
1
1
1
1
0.999977
0.999965
0.999965
0.999969
1
1
1
1
1
1
1
1
1
1
1
1
1
0.999999
1
1
1
1
0.999998
1
1.97661e-06
2.52967e-05
2.50679e-05
3.3877e-05
3.06299e-05
4.02182e-09
0.000123326
5.99703e-05
0.000122803
5.28992e-05
0.000114607
9.61774e-05
0.000235571
0.000142921
5.97057e-05
9.32171e-05
8.03431e-05
0.000165874
4.27191e-05
0.000107132
0.000106402
9.14353e-05
0.00020218
0.000132675
5.68795e-05
9.63037e-05
8.37906e-05
0.000164695
4.63173e-05
0.000112549
6.44233e-10
0.000241412
5.82538e-05
0.000149883
7.21608e-05
0.000270023
0.000100532
0.000196463
4.38228e-05
0.000134182
5.36941e-05
0.000222585
7.83116e-05
0.999988
0.999998
0.999998
1
1
0.999995
0.999995
0.999998
0.999998
1
0.999999
1
1
1
1
1
1
0.999999
0.999998
1
1
1
1
0.999995
1
1
1
0.999993
0.999975
0.999982
0.999984
1
0.999992
0.999986
0.99997
0.999978
0.999981
1
1
1
1
1
1
1
0.999975
0.999999
1
6.77498e-07
3.32753e-05
2.30989e-05
3.88919e-05
2.80077e-05
6.14303e-05
4.6908e-05
7.32748e-05
5.09558e-05
6.76187e-09
2.75763e-05
9.39301e-05
3.50615e-05
6.92259e-05
2.72907e-05
3.15771e-05
3.56007e-05
3.10887e-05
2.77338e-05
9.52959e-05
3.5815e-05
6.67136e-05
3.6334e-05
4.51616e-05
7.48822e-05
2.93797e-05
0.000128298
0.000147546
7.88908e-05
8.12634e-05
4.31642e-05
7.18697e-05
0.000112228
0.000125523
8.21254e-05
8.52346e-05
4.67684e-05
7.69521e-05
8.14432e-10
0.999993
0.999999
1
1
1
0.999994
0.999997
1
1
1
1
0.999999
0.999996
1
1
0.999997
1
1
1
1
1
0.999995
0.999999
1
1
1
1
0.999995
0.999999
0.999996
1
0.999995
0.999978
0.999993
0.999983
0.999999
0.999987
0.99999
0.99997
0.999986
0.99997
0.999998
0.999995
2.73013e-05
6.99687e-07
0.000174175
0.0001463
0.000183881
0.000154862
8.59704e-06
3.42388e-05
5.71713e-05
9.2066e-06
2.24202e-05
8.29718e-05
8.18341e-05
0.000123967
1.27215e-05
2.33684e-05
8.6273e-06
5.35938e-05
3.94051e-05
9.32568e-06
1.75956e-05
0.00012407
8.32454e-05
0.000127935
1.27696e-05
2.31274e-05
2.47454e-08
1.7825e-05
5.16496e-05
3.08907e-05
1.81165e-05
3.94735e-05
1.00111e-05
2.0007e-05
5.19178e-05
2.74189e-05
1.95447e-05
8.43097e-05
1.64264e-05
1.94653e-10
0.999998
0.999998
1
1
1
1
1
1
1
0.999994
0.999997
1
1
1
1
1
1
1
1
1
0.999996
0.999998
0.999997
1
0.999993
1
0.999995
0.999999
0.999999
1
1
1
1
0.999995
1
0.999996
0.999998
0.999998
0.999999
9.88517e-05
0.000138975
0.000114162
0.000144944
0.000116662
2.12678e-06
0.0003256
0.000323067
0.000333928
0.000335317
6.25671e-06
6.81657e-05
0.000120581
0.000114046
0.000106083
9.69796e-05
8.98815e-05
0.000123505
7.47936e-05
7.56206e-05
8.50526e-06
5.69904e-05
0.000118695
8.57402e-05
8.85327e-05
8.70296e-05
8.7511e-05
0.000131543
6.27739e-05
7.17116e-05
1.53541e-08
0.000104699
6.06001e-06
0.000122215
8.59778e-06
1.25862e-11
1
0.999998
0.999999
1
1
1
1
1
0.999998
0.999999
0.999999
1
1
1
1
1
1
1
0.99999
0.99999
0.999998
0.999998
1
0.999998
1
1
1
1
1
1
1
1
1
1
1
0.999996
0.999998
1
0.999999
0.999993
0.00140245
0.000102587
0.000231032
0.000546551
0.000235883
0.000528933
5.54908e-07
0.000445685
0.000147254
0.000370835
0.000362003
0.000403439
0.000445697
0.000165161
0.000368325
0.000373986
0.000410695
0.000308756
0.000276976
6.76948e-05
6.7504e-05
0.000212254
0.000213505
0.000278501
0.000264563
5.30118e-05
7.00272e-05
0.000186041
0.000209841
4.88839e-09
2.76311e-14
1
0.999999
0.999998
0.999998
1
1
1
0.999998
1
1
1
1
0.999994
0.999997
0.999998
0.999998
1
1
1
1
1
1
0.99999
0.999995
0.999996
0.999997
0.999999
1
1
1
1
1
0.999999
1
0.999998
0.99999
0.000475338
0.00542779
0.00189857
0.00517825
0.00176539
2.26786e-05
0.000856336
0.00360573
0.000878116
0.00346088
1.77828e-07
0.000445697
0.000182843
0.000185615
0.000355527
0.000197639
0.000618588
0.000218565
0.000601471
0.000445685
0.000188802
0.000178276
0.000358772
0.00020059
0.000620451
0.000215003
0.000597206
7.27391e-05
6.15927e-05
5.44091e-05
5.30118e-05
1.61452e-10
6.9646e-19
1
1
0.999998
0.999997
0.999998
1
1
1
1
1
1
1
1
1
1
1
1
1
1
1
1
1
1
1
1
1
1
1
1
1
1
0.000356587
0.000119658
0.00988479
0.00310389
0.00983458
0.003019
1.9388e-06
0.00302139
0.000387674
0.000399864
0.00179615
0.000194576
0.00041921
0.00980059
0.000197492
0.000415713
0.00301228
0.00034571
0.000371623
0.00163424
0.00946897
3.01921e-08
0.00033785
0.000140445
0.000107774
0.00016285
0.000198255
0.000206915
0.000329297
0.000118313
0.00010766
0.000163041
0.000195559
0.000201128
1.7078e-13
7.1289e-25
0.999999
0.999999
0.999998
0.999997
0.999997
1
1
0.999997
0.999996
1
1
1
1
1
1
1
1
1
1
1
1
1
1
1
1
1
1
1
1
1
1
1
1
8.88531e-05
0.00017619
8.69444e-20
0.000162921
6.99114e-20
3.13893e-05
0.0131732
0.00361859
0.0136863
0.00371293
5.65952e-07
0.00435504
0.0010079
0.000176847
0.000513304
0.000160165
0.00236195
0.00931658
0.0202438
0.00477465
0.0134114
0.00016834
0.000158675
0.00419752
0.000857749
0.000520097
0.00194199
0.00863643
0.0202503
0.00438693
0.012318
5.51667e-10
5.41191e-05
6.75269e-05
5.41824e-05
6.96132e-05
2.9162e-18
2.55817e-27
0.99997
0.999993
0.999995
0.999996
0.999997
0.999998
1
1
0.999998
0.999999
1
1
1
1
1
1
1
1
1
1
1
1
1
1
1
1
1
1
1
1
1
1
1
1
1
1