/*--------------------------------*- C++ -*----------------------------------*\
| =========                 |                                                 |
| \\      /  F ield         | OpenFOAM: The Open Source CFD Toolbox           |
|  \\    /   O peration     | Version:  5.x                                   |
|   \\  /    A nd           | Web:      www.OpenFOAM.org                      |
|    \\/     M anipulation  |                                                 |
\*---------------------------------------------------------------------------*/
FoamFile
{
    version     2.0;
    format      ascii;
    class       volScalarField;
    location    "1.3";
    object      k;
}
// * * * * * * * * * * * * * * * * * * * * * * * * * * * * * * * * * * * * * //

dimensions      [0 2 -2 0 0 0 0];

internalField   nonuniform List<scalar> 
12160
(
9.95868e-09
9.93396e-09
1.0022e-08
9.92237e-09
1.00496e-08
1.00076e-08
9.91796e-09
1.00747e-08
1.00151e-08
1.00066e-08
9.91663e-09
1.00795e-08
1.00216e-08
1.00117e-08
1.00066e-08
9.91648e-09
1.00695e-08
1.00236e-08
1.00147e-08
1.00112e-08
1.00073e-08
9.91678e-09
1.0065e-08
1.00223e-08
1.00156e-08
1.00137e-08
1.00124e-08
1.00077e-08
9.91681e-09
1.0063e-08
1.00205e-08
1.00153e-08
1.00144e-08
1.00145e-08
1.00137e-08
1.00102e-08
9.91663e-09
1.00576e-08
1.00191e-08
1.00146e-08
1.00143e-08
1.00149e-08
1.00159e-08
1.00171e-08
1.00554e-08
9.91635e-09
1.00521e-08
1.00181e-08
1.00141e-08
1.00139e-08
1.00147e-08
1.0016e-08
1.00181e-08
1.00492e-08
1.00592e-08
9.91616e-09
1.00471e-08
1.00172e-08
1.00137e-08
1.00136e-08
1.00144e-08
1.00155e-08
1.00183e-08
1.00404e-08
1.00555e-08
1.00883e-08
9.91613e-09
1.00422e-08
1.00165e-08
1.00134e-08
1.00132e-08
1.0014e-08
1.0015e-08
1.00188e-08
1.0037e-08
1.00522e-08
1.00532e-08
1.00759e-08
9.91613e-09
1.00375e-08
1.00159e-08
1.00131e-08
1.00129e-08
1.00136e-08
1.00146e-08
1.00196e-08
1.00369e-08
1.00535e-08
1.0058e-08
1.00346e-08
1.00373e-08
9.91613e-09
1.00332e-08
1.00153e-08
1.00128e-08
1.00126e-08
1.00133e-08
1.00142e-08
1.00201e-08
1.00374e-08
1.005e-08
1.00667e-08
1.00277e-08
1.00228e-08
1.00287e-08
9.91613e-09
1.00293e-08
1.00147e-08
1.00125e-08
1.00124e-08
1.00129e-08
1.00136e-08
1.00198e-08
1.00369e-08
1.00473e-08
1.00679e-08
1.00338e-08
1.00186e-08
1.00173e-08
1.00198e-08
9.91613e-09
1.00259e-08
1.00141e-08
1.00122e-08
1.00121e-08
1.00126e-08
1.00131e-08
1.00191e-08
1.00353e-08
1.00441e-08
1.0067e-08
1.00428e-08
1.00185e-08
1.00161e-08
1.00089e-08
9.91613e-09
1.0023e-08
1.00135e-08
1.0012e-08
1.00119e-08
1.00124e-08
1.00126e-08
1.00182e-08
1.0033e-08
1.00404e-08
1.00642e-08
1.00495e-08
1.00185e-08
1.00145e-08
1.001e-08
9.91613e-09
1.00206e-08
1.00129e-08
1.00118e-08
1.00117e-08
1.00121e-08
1.00123e-08
1.00174e-08
1.00304e-08
1.00363e-08
1.00604e-08
1.00531e-08
1.00183e-08
1.00143e-08
1.00084e-08
9.91613e-09
1.00184e-08
1.00123e-08
1.00116e-08
1.00115e-08
1.00119e-08
1.0012e-08
1.0017e-08
1.00279e-08
1.00321e-08
1.00558e-08
1.00544e-08
1.00188e-08
1.00139e-08
1.00085e-08
9.91613e-09
1.00166e-08
1.00117e-08
1.00113e-08
1.00114e-08
1.00117e-08
1.00118e-08
1.00167e-08
1.00254e-08
1.00285e-08
1.00505e-08
1.00545e-08
1.00195e-08
1.0014e-08
1.00082e-08
9.91613e-09
1.00151e-08
1.00111e-08
1.00109e-08
1.00111e-08
1.00115e-08
1.00116e-08
1.00166e-08
1.00234e-08
1.00258e-08
1.0045e-08
1.00529e-08
1.00203e-08
1.00141e-08
1.00085e-08
9.91613e-09
1.0014e-08
1.00106e-08
1.00105e-08
1.00107e-08
1.00112e-08
1.00114e-08
1.00165e-08
1.00217e-08
1.00239e-08
1.00402e-08
1.0049e-08
1.00209e-08
1.00143e-08
1.00091e-08
9.91613e-09
1.00131e-08
1.00101e-08
1.001e-08
1.00103e-08
1.00108e-08
1.00112e-08
1.00164e-08
1.00202e-08
1.00224e-08
1.00361e-08
1.00426e-08
1.00211e-08
1.00144e-08
1.001e-08
9.91613e-09
1.00125e-08
1.00097e-08
1.00097e-08
1.00099e-08
1.00104e-08
1.00108e-08
1.00162e-08
1.00189e-08
1.00211e-08
1.00325e-08
1.00352e-08
1.00206e-08
1.00143e-08
1.0011e-08
9.91613e-09
1.00122e-08
1.00094e-08
1.00093e-08
1.00095e-08
1.001e-08
1.00104e-08
1.00159e-08
1.00177e-08
1.00202e-08
1.00292e-08
1.00288e-08
1.00194e-08
1.00141e-08
1.00119e-08
9.91613e-09
1.00121e-08
1.00092e-08
1.00091e-08
1.00092e-08
1.00096e-08
1.00099e-08
1.00155e-08
1.00166e-08
1.00194e-08
1.00258e-08
1.00236e-08
1.00175e-08
1.00137e-08
1.00123e-08
9.91613e-09
1.00124e-08
1.00092e-08
1.00089e-08
1.00088e-08
1.00093e-08
1.00095e-08
1.00149e-08
1.00156e-08
1.00187e-08
1.00226e-08
1.00198e-08
1.00156e-08
1.00131e-08
1.00121e-08
9.91613e-09
1.00129e-08
1.00093e-08
1.00088e-08
1.00086e-08
1.00089e-08
1.00091e-08
1.00141e-08
1.00147e-08
1.00179e-08
1.00198e-08
1.0017e-08
1.0014e-08
1.00125e-08
1.00119e-08
9.91613e-09
1.00136e-08
1.00095e-08
1.00089e-08
1.00085e-08
1.00087e-08
1.00085e-08
1.0013e-08
1.00142e-08
1.00172e-08
1.00177e-08
1.00151e-08
1.00129e-08
1.00119e-08
1.00116e-08
9.91613e-09
1.00146e-08
1.00098e-08
1.00091e-08
1.00086e-08
1.00086e-08
1.00077e-08
1.00118e-08
1.00138e-08
1.00163e-08
1.00161e-08
1.00139e-08
1.00122e-08
1.00115e-08
1.00113e-08
9.91613e-09
1.00158e-08
1.00102e-08
1.00093e-08
1.00088e-08
1.00087e-08
1.00074e-08
1.00105e-08
1.00136e-08
1.00153e-08
1.00148e-08
1.0013e-08
1.00118e-08
1.00113e-08
1.00111e-08
9.91613e-09
1.00172e-08
1.00106e-08
1.00096e-08
1.00091e-08
1.00089e-08
1.0008e-08
1.00098e-08
1.00133e-08
1.00142e-08
1.00136e-08
1.00124e-08
1.00115e-08
1.00112e-08
1.0011e-08
9.91613e-09
1.00188e-08
1.0011e-08
1.00099e-08
1.00094e-08
1.00092e-08
1.00086e-08
1.00105e-08
1.0013e-08
1.00132e-08
1.00126e-08
1.00118e-08
1.00113e-08
1.0011e-08
1.00109e-08
9.91613e-09
1.00206e-08
1.00115e-08
1.00102e-08
1.00097e-08
1.00095e-08
1.0009e-08
1.00114e-08
1.0013e-08
1.00125e-08
1.00116e-08
1.00113e-08
1.0011e-08
1.00109e-08
1.00106e-08
9.91613e-09
1.00226e-08
1.0012e-08
1.00105e-08
1.001e-08
1.00098e-08
1.00094e-08
1.00124e-08
1.00131e-08
1.0013e-08
1.00111e-08
1.00108e-08
1.00107e-08
1.00106e-08
1.00099e-08
9.91613e-09
1.00248e-08
1.00126e-08
1.00108e-08
1.00103e-08
1.00102e-08
1.00098e-08
1.00132e-08
1.00134e-08
1.00138e-08
1.00115e-08
1.00104e-08
1.00102e-08
1.00103e-08
1.00099e-08
9.91613e-09
1.00273e-08
1.00131e-08
1.00111e-08
1.00106e-08
1.00104e-08
1.00101e-08
1.00138e-08
1.00139e-08
1.00148e-08
1.00123e-08
1.00105e-08
1.00098e-08
1.00098e-08
1.00097e-08
9.91613e-09
1.003e-08
1.00137e-08
1.00114e-08
1.00109e-08
1.00107e-08
1.00104e-08
1.00142e-08
1.00146e-08
1.00157e-08
1.00134e-08
1.00109e-08
1.00097e-08
1.00092e-08
1.0009e-08
9.91613e-09
1.00331e-08
1.00143e-08
1.00117e-08
1.00111e-08
1.0011e-08
1.00107e-08
1.00145e-08
1.00153e-08
1.00165e-08
1.00147e-08
1.00114e-08
1.001e-08
1.00091e-08
1.00084e-08
9.91616e-09
1.00366e-08
1.00149e-08
1.00119e-08
1.00114e-08
1.00113e-08
1.00109e-08
1.00148e-08
1.0016e-08
1.00171e-08
1.00162e-08
1.00122e-08
1.00104e-08
1.00094e-08
1.00082e-08
1.00407e-08
9.91649e-09
1.00155e-08
1.00122e-08
1.00116e-08
1.00115e-08
1.00112e-08
1.00149e-08
1.00168e-08
1.00175e-08
1.00178e-08
1.00132e-08
1.00109e-08
1.00099e-08
1.00085e-08
1.00162e-08
1.00448e-08
9.91786e-09
1.00125e-08
1.00118e-08
1.00117e-08
1.00115e-08
1.0015e-08
1.00175e-08
1.00178e-08
1.00194e-08
1.00143e-08
1.00114e-08
1.00104e-08
1.00088e-08
1.00128e-08
1.00167e-08
1.00528e-08
9.92073e-09
1.0012e-08
1.0012e-08
1.00117e-08
1.00152e-08
1.00182e-08
1.00183e-08
1.00211e-08
1.00155e-08
1.0012e-08
1.00107e-08
1.00095e-08
1.00123e-08
1.00131e-08
1.00182e-08
1.00626e-08
9.92661e-09
1.00122e-08
1.00119e-08
1.00153e-08
1.00191e-08
1.0019e-08
1.00228e-08
1.00169e-08
1.00126e-08
1.00111e-08
1.00103e-08
1.00125e-08
1.00126e-08
1.00138e-08
1.00206e-08
1.00785e-08
9.93879e-09
1.00122e-08
1.00154e-08
1.00201e-08
1.002e-08
1.00247e-08
1.00186e-08
1.00131e-08
1.00114e-08
1.00107e-08
1.00125e-08
1.00128e-08
1.00132e-08
1.0015e-08
1.00261e-08
1.01092e-08
9.96818e-09
1.00156e-08
1.00213e-08
1.00212e-08
1.00269e-08
1.00209e-08
1.00137e-08
1.00116e-08
1.00109e-08
1.00159e-08
1.00129e-08
1.00135e-08
1.00141e-08
1.00179e-08
1.00397e-08
1.01641e-08
1.00032e-08
1.00227e-08
1.00225e-08
1.00292e-08
1.00241e-08
1.00145e-08
1.00117e-08
1.0011e-08
1.0024e-08
1.00162e-08
1.00137e-08
1.00143e-08
1.00157e-08
1.00254e-08
1.00695e-08
1.02644e-08
1.01082e-08
1.00236e-08
1.00314e-08
1.00283e-08
1.00158e-08
1.00118e-08
1.0011e-08
1.00246e-08
1.00251e-08
1.00173e-08
1.00148e-08
1.00153e-08
1.00194e-08
1.00441e-08
1.01266e-08
1.03053e-08
1.00891e-08
1.00333e-08
1.00333e-08
1.00176e-08
1.00123e-08
1.0011e-08
1.00351e-08
1.00257e-08
1.00269e-08
1.00187e-08
1.00158e-08
1.0017e-08
1.0029e-08
1.00841e-08
1.01941e-08
1.04968e-08
1.00111e-08
1.00388e-08
1.00198e-08
1.0013e-08
1.00112e-08
1.00443e-08
1.00371e-08
1.00288e-08
1.00282e-08
1.00197e-08
1.00167e-08
1.00209e-08
1.00531e-08
1.01518e-08
1.03189e-08
1.03402e-08
1.00311e-08
1.00218e-08
1.00139e-08
1.00116e-08
1.0023e-08
1.00481e-08
1.00424e-08
1.00325e-08
1.00288e-08
1.00202e-08
1.0018e-08
1.00317e-08
1.01038e-08
1.0249e-08
1.03624e-08
1.0115e-08
1.01137e-08
9.97443e-09
1.00148e-08
1.00122e-08
1.00152e-08
1.00224e-08
1.00512e-08
1.00468e-08
1.00358e-08
1.00289e-08
1.00204e-08
1.00217e-08
1.00594e-08
1.01837e-08
1.03152e-08
1.01626e-08
1.0115e-08
1.01225e-08
1.01328e-08
9.98593e-09
1.00127e-08
1.00128e-08
1.00147e-08
1.00221e-08
1.00489e-08
1.00486e-08
1.0038e-08
1.00289e-08
1.00213e-08
1.00322e-08
1.01147e-08
1.02599e-08
1.02044e-08
1.01179e-08
1.01116e-08
1.01321e-08
1.01392e-08
1.0164e-08
9.99949e-09
1.00119e-08
1.00145e-08
1.00199e-08
1.00443e-08
1.00482e-08
1.0039e-08
1.00292e-08
1.00245e-08
1.00561e-08
1.01972e-08
1.02312e-08
1.01091e-08
1.01028e-08
1.01147e-08
1.01568e-08
1.01533e-08
1.01583e-08
1.01957e-08
1.00153e-08
1.00103e-08
1.00136e-08
1.00176e-08
1.00393e-08
1.00462e-08
1.00388e-08
1.00305e-08
1.003e-08
1.01081e-08
1.02346e-08
1.00918e-08
1.0091e-08
1.01002e-08
1.01291e-08
1.02181e-08
1.01989e-08
1.01792e-08
1.01791e-08
1.02254e-08
1.00335e-08
1.00084e-08
1.00125e-08
1.00159e-08
1.00342e-08
1.00425e-08
1.00377e-08
1.00322e-08
1.00392e-08
1.01839e-08
1.00804e-08
1.00789e-08
1.00864e-08
1.01068e-08
1.01526e-08
1.03821e-08
1.04503e-08
1.03092e-08
1.02211e-08
1.02048e-08
1.02523e-08
1.0053e-08
1.0007e-08
1.00116e-08
1.00149e-08
1.00285e-08
1.00369e-08
1.00358e-08
1.00341e-08
1.00834e-08
1.0081e-08
1.00714e-08
1.00744e-08
1.00882e-08
1.01179e-08
1.01846e-08
1.04723e-08
1.15441e-08
1.04701e-08
1.0287e-08
1.02868e-08
1.16269e-08
1.08052e-08
1.03511e-08
1.0249e-08
1.0279e-08
1.00716e-08
1.0006e-08
1.00109e-08
1.00142e-08
1.00229e-08
1.00314e-08
1.0034e-08
1.00359e-08
1.0049e-08
1.00659e-08
1.00668e-08
1.00738e-08
1.00927e-08
1.0128e-08
1.01754e-08
1.15321e-08
1.0444e-08
1.91774e-08
1.15179e-08
1.59806e-08
1.5931e-08
1.04397e-08
1.02526e-08
1.02519e-08
1.85168e-08
1.36909e-08
1.10359e-08
1.03607e-08
1.03111e-08
1.00895e-08
1.00054e-08
1.00104e-08
1.00136e-08
1.00191e-08
1.00278e-08
1.00332e-08
1.00364e-08
1.00462e-08
1.00603e-08
1.00647e-08
1.00751e-08
1.00951e-08
1.01295e-08
1.0172e-08
1.0172e-08
1.01648e-08
1.01648e-08
1.14225e-08
1.03151e-08
7.61183e-08
4.1164e-08
1.14049e-08
1.62017e-08
1.61547e-08
1.03123e-08
1.02233e-08
1.02227e-08
6.40851e-08
2.92055e-08
1.40519e-08
1.06912e-08
1.03496e-08
1.01066e-08
1.00049e-08
1.00096e-08
1.00131e-08
1.00169e-08
1.00269e-08
1.0034e-08
1.00429e-08
1.00779e-08
1.00821e-08
1.00645e-08
1.00742e-08
1.00956e-08
1.013e-08
1.013e-08
1.0125e-08
1.0125e-08
1.0167e-08
1.01669e-08
1.01585e-08
1.01584e-08
1.06381e-08
1.02633e-08
1.02633e-08
1.02731e-08
1.02571e-08
5.40951e-07
3.14552e-07
1.25813e-08
1.24236e-08
1.30007e-08
1.29921e-08
1.06282e-08
1.15873e-08
1.15636e-08
1.02616e-08
1.0262e-08
1.0271e-08
1.02556e-08
1.02134e-08
1.02079e-08
1.02097e-08
1.02114e-08
1.02128e-08
1.02077e-08
1.02093e-08
1.02109e-08
3.26278e-07
1.00916e-07
2.59366e-08
1.13289e-08
1.03789e-08
1.01216e-08
1.00044e-08
1.00089e-08
1.00122e-08
1.00162e-08
1.00299e-08
1.02166e-08
1.29182e-08
1.57593e-08
1.14208e-08
1.00676e-08
1.00735e-08
1.00953e-08
1.00952e-08
1.0093e-08
1.00929e-08
1.01268e-08
1.01266e-08
1.01242e-08
1.01247e-08
1.01641e-08
1.02e-08
1.01644e-08
1.01633e-08
1.0164e-08
1.02004e-08
1.01999e-08
1.01642e-08
1.01643e-08
1.01632e-08
1.01639e-08
1.02e-08
1.0153e-08
1.01545e-08
1.01555e-08
1.01561e-08
1.01529e-08
1.01543e-08
1.01554e-08
1.01561e-08
1.04408e-08
1.03811e-08
1.04125e-08
1.04037e-08
1.0236e-08
1.0235e-08
1.02442e-08
1.02314e-08
4.323e-06
3.67138e-06
1.76346e-07
1.47771e-07
2.5262e-08
2.25177e-08
1.0641e-08
1.0884e-08
1.04914e-08
1.05002e-08
1.04345e-08
1.03771e-08
1.04069e-08
1.03971e-08
1.07466e-08
1.06227e-08
1.06942e-08
1.06489e-08
1.07312e-08
1.06174e-08
1.06807e-08
1.06358e-08
1.0235e-08
1.02344e-08
1.02427e-08
1.02305e-08
1.02045e-08
1.02026e-08
1.0204e-08
1.02023e-08
1.53977e-06
4.20598e-07
4.94428e-08
1.12833e-08
1.04028e-08
1.0131e-08
1.0004e-08
1.0008e-08
1.00118e-08
1.00373e-08
1.41492e-08
5.50153e-08
1.8184e-07
1.99692e-07
2.08127e-07
5.25697e-07
1.23628e-08
1.22158e-08
2.55206e-07
2.56253e-07
1.03732e-08
1.04077e-08
1.98106e-08
2.06465e-08
1.0125e-08
1.01253e-08
1.01249e-08
1.01251e-08
1.01248e-08
1.01252e-08
1.01249e-08
1.0125e-08
1.01714e-08
1.01471e-08
1.01264e-08
1.01232e-08
1.01778e-08
1.01512e-08
1.01274e-08
1.01238e-08
1.01959e-08
1.01632e-08
1.01636e-08
1.01941e-08
1.01616e-08
1.01624e-08
1.01959e-08
1.01633e-08
1.01935e-08
1.01636e-08
1.01615e-08
1.01623e-08
1.01494e-08
1.01516e-08
1.01539e-08
1.01548e-08
1.01493e-08
1.01514e-08
1.01538e-08
1.01547e-08
1.03288e-08
1.02891e-08
1.03111e-08
1.02985e-08
1.02249e-08
1.02251e-08
1.02325e-08
1.02212e-08
2.27894e-05
5.10703e-05
2.13568e-05
1.71179e-05
1.92546e-06
1.5713e-06
1.67939e-07
2.00903e-07
1.79625e-08
2.10731e-08
1.02168e-08
1.02311e-08
1.0227e-08
1.02545e-08
1.02167e-08
1.02387e-08
1.02271e-08
1.02724e-08
1.02867e-08
1.03577e-08
1.02948e-08
1.02637e-08
1.02867e-08
1.04051e-08
1.02884e-08
1.03577e-08
1.02944e-08
1.02632e-08
1.02869e-08
1.04008e-08
1.03253e-08
1.02874e-08
1.03082e-08
1.02948e-08
1.04276e-08
1.03784e-08
1.04198e-08
1.03717e-08
1.02241e-08
1.02247e-08
1.02314e-08
1.02206e-08
1.01999e-08
1.01988e-08
1.01995e-08
1.01986e-08
8.02693e-06
1.07349e-06
3.95308e-08
1.12688e-08
1.04008e-08
1.01288e-08
1.00035e-08
1.00075e-08
1.00108e-08
1.3178e-08
6.53511e-07
1.91115e-06
3.70707e-06
5.3333e-06
2.62959e-05
7.82901e-06
7.85364e-06
9.18983e-05
9.19085e-05
2.38834e-07
2.38982e-07
2.78656e-06
2.74309e-06
1.06644e-08
1.0593e-08
1.35523e-08
1.36154e-08
1.0718e-08
1.06427e-08
1.37822e-08
1.38549e-08
2.24594e-07
3.29969e-07
4.07219e-08
4.92059e-08
2.28428e-07
3.31967e-07
4.19895e-08
5.06835e-08
1.01244e-08
1.01245e-08
1.01267e-08
1.01249e-08
1.01243e-08
1.01244e-08
1.0127e-08
1.01249e-08
1.04035e-08
1.03647e-08
1.0152e-08
1.01343e-08
1.04263e-08
1.03806e-08
1.01548e-08
1.01358e-08
1.02896e-08
1.02596e-08
1.02783e-08
1.02663e-08
0.000139311
0.000337624
0.00101667
0.000786501
0.000163278
0.000131365
7.2315e-05
6.56245e-05
3.37421e-06
3.52e-06
2.25058e-08
1.32774e-08
1.11829e-08
1.04385e-08
2.62324e-08
1.16675e-08
1.14944e-08
1.0395e-08
1.0213e-08
1.02084e-08
1.02269e-08
1.02082e-08
1.02127e-08
1.02079e-08
1.0254e-08
1.02077e-08
1.02157e-08
1.02101e-08
1.02225e-08
1.02188e-08
1.02156e-08
1.02097e-08
1.02223e-08
1.022e-08
1.02851e-08
1.02664e-08
1.02684e-08
1.03072e-08
1.02393e-08
1.02521e-08
1.02855e-08
1.02675e-08
1.02675e-08
1.03047e-08
1.02388e-08
1.02511e-08
1.02872e-08
1.02587e-08
1.02763e-08
1.02639e-08
1.0333e-08
1.03018e-08
1.03281e-08
1.02979e-08
2.08647e-05
6.63092e-07
3.54161e-08
1.06556e-08
1.03886e-08
1.01081e-08
1.00033e-08
1.00067e-08
1.00136e-08
1.38338e-07
2.49686e-05
3.29971e-05
5.88567e-05
0.000383684
0.000906724
2.62981e-05
2.6037e-05
0.00017459
0.000174118
2.32796e-06
2.31305e-06
1.78824e-05
1.78234e-05
1.21278e-08
1.25372e-08
2.15697e-08
2.76366e-08
1.22641e-08
1.266e-08
2.21544e-08
2.82037e-08
3.73747e-07
6.39236e-07
7.65454e-08
1.29085e-07
3.79433e-07
6.38574e-07
7.87583e-08
1.30641e-07
1.12911e-08
1.15741e-08
1.13481e-08
1.1633e-08
0.000311951
0.00213087
0.00713423
0.00685237
0.00313486
0.00241941
0.00697177
0.00561945
0.000810857
0.00072694
0.000212473
0.000724055
1.585e-05
6.71948e-05
0.000175254
0.000698306
1.54754e-05
6.58365e-05
1.2319e-07
2.38481e-08
1.13437e-06
1.31249e-06
1.67367e-07
4.00389e-08
1.43265e-06
2.21059e-06
3.78338e-08
1.66001e-08
1.21627e-08
1.09392e-08
4.74452e-08
1.41167e-08
1.31219e-08
1.10083e-08
1.02133e-08
1.02075e-08
1.02342e-08
1.02062e-08
1.02134e-08
1.0207e-08
1.0286e-08
1.02057e-08
1.06262e-05
5.3306e-07
1.59685e-08
1.04778e-08
1.03495e-08
1.00541e-08
1.0003e-08
1.00067e-08
1.02613e-08
2.33075e-06
0.000441215
0.000371242
0.0027187
0.00556431
0.00380475
0.00379326
0.0158892
0.0158636
0.000127599
0.000126864
0.000749401
0.000743914
6.04309e-06
2.75255e-06
2.71574e-06
6.6422e-06
6.02694e-06
2.73997e-06
2.70198e-06
6.6406e-06
2.34182e-05
6.77964e-05
6.23701e-05
2.51849e-05
2.33916e-05
6.70273e-05
6.24772e-05
2.50353e-05
1.49987e-08
1.72262e-08
3.55253e-08
5.63162e-08
1.519e-08
1.74658e-08
3.61656e-08
5.72171e-08
6.56383e-07
9.48021e-07
1.31915e-07
2.38505e-07
6.57237e-07
9.44515e-07
1.33367e-07
2.39991e-07
0.000132239
0.00340483
0.0241644
0.0530071
0.0510685
0.0242498
0.0198402
0.0475631
0.0392669
0.00399522
0.0038336
0.000422288
0.00101215
2.98141e-05
5.55454e-05
0.000349689
0.000989088
2.66308e-05
4.45627e-05
2.91254e-07
4.54942e-08
2.50238e-06
1.30982e-07
3.94166e-07
2.81104e-08
2.99389e-06
7.62725e-08
6.39957e-08
2.43549e-08
7.7346e-08
2.12435e-08
7.6905e-06
1.097e-07
1.14487e-08
1.04294e-08
1.02532e-08
9.93114e-09
1.0003e-08
1.00132e-08
2.72683e-08
2.60757e-05
0.00395746
0.0152242
0.0178944
0.0543819
0.0439227
0.0436552
0.0869145
0.0867985
0.000285616
0.000297592
0.00127462
0.00113791
0.000282624
0.000297256
0.00127038
0.00112992
0.00702028
0.00698305
1.24311e-05
4.59235e-06
4.27047e-06
1.34554e-05
1.23882e-05
4.55188e-06
4.25361e-06
1.33119e-05
4.63804e-05
0.000142345
0.000151864
4.63886e-05
4.63109e-05
0.000140374
0.00015188
4.59012e-05
1.49441e-06
1.65294e-06
1.48342e-06
1.64847e-06
8.04961e-05
0.00132476
0.0247183
0.214096
0.191895
0.219152
0.198779
0.238447
0.229622
0.150836
0.131793
0.140782
0.386106
0.169226
0.325704
0.131024
0.31983
0.151972
0.279
0.0290732
0.0107934
0.0137814
0.0346174
0.0285963
0.00944536
0.0134472
0.0344796
0.0011976
0.00224266
0.00010686
0.000157147
0.00106496
0.0021314
0.000105876
0.000126619
7.56608e-07
1.11978e-07
7.40201e-06
3.93678e-07
1.07005e-06
6.93906e-08
9.3041e-06
2.44868e-07
1.38637e-06
2.47826e-08
1.07743e-08
1.03719e-08
9.98887e-09
1.00029e-08
1.0571e-08
8.46699e-07
0.000248258
0.01483
0.0649391
0.0588612
1.6068
1.60634
2.03667
2.03753
1.15348
0.468366
1.32255
0.704502
1.15499
0.468627
1.32635
0.705034
1.17084
1.17076
0.000486163
0.000561495
0.00198806
0.00172924
0.000479517
0.000560249
0.00197868
0.00171126
0.453515
0.160376
0.0951572
0.0390679
0.454335
0.160525
0.0951973
0.0390911
0.000145906
0.000704444
0.000522419
0.000174412
0.000145925
0.000695913
0.00052279
0.000172531
1.43515e-05
0.00066399
0.0102566
0.126323
0.39535
0.375792
0.375161
0.357377
0.463448
0.450692
0.465765
0.234553
0.344942
0.571651
0.409987
0.216474
0.333791
0.540032
0.285029
0.650943
0.319069
0.631193
0.273884
0.588766
0.303268
0.582154
0.0684946
0.0359517
0.0367333
0.106673
0.0691849
0.0319884
0.0365858
0.105379
0.00364859
0.00457896
0.00334942
0.00444252
1.80637e-07
1.34936e-08
1.08261e-08
1.01015e-08
1.00032e-08
3.8401e-08
2.41397e-05
0.00212462
0.0351398
0.19889
0.565687
0.56578
0.396543
0.391621
1.58823
1.5881
1.35402
1.35291
1.5574
0.774522
1.67535
0.978468
1.55912
0.77495
1.67685
0.9788
1.18626
1.85741
1.25666
1.87543
1.18648
1.86197
1.25716
1.87647
0.00392949
0.00229247
0.00951557
0.0191827
0.00390409
0.00229322
0.00951985
0.0191358
1.28869
0.531624
0.872707
0.270697
1.2897
0.531828
0.871434
0.27049
1.69997e-06
0.000123418
0.00450589
0.0605773
0.361338
0.340719
0.424781
0.40953
0.451008
0.440536
0.58813
0.373493
0.532506
0.367141
0.563275
0.365632
0.513488
0.359677
0.678624
0.420287
0.766321
0.464049
0.760643
0.43538
0.660123
0.414761
0.754279
0.460615
0.736273
0.428697
0.677718
0.36434
0.633867
0.352634
0.366043
0.764106
0.444276
0.68236
0.359023
0.720783
0.433355
0.650284
3.72968e-08
1.35275e-08
1.03348e-08
1.00314e-08
1.13078e-06
0.000375705
0.0139093
0.100061
0.616695
1.61407
1.61358
1.57586
1.57995
1.35629
1.85844
1.19439
1.17425
1.15528
1.24832
1.86203
1.35774
1.24892
1.19446
1.17363
1.1563
2.82454
1.42391
1.74468
1.18905
2.79615
1.41633
1.76593
1.19241
1.73221
0.925176
1.89416
1.08666
1.73319
0.925461
1.89491
1.08686
1.17771
1.92388
1.17807
1.92549
0.0992379
0.302033
0.0992169
0.301898
1.51425
0.703643
1.51609
0.703946
2.43148e-07
1.49335e-05
0.000897198
0.0245864
0.223223
0.198086
0.323126
0.29833
0.323265
0.311702
0.396592
0.387826
0.387152
0.575159
0.376539
0.663711
0.384746
0.637238
0.383595
0.558816
0.369967
0.651294
0.380827
0.622218
0.635809
0.387153
0.617247
0.382831
0.701329
0.428423
0.784401
0.800828
0.476143
0.476182
0.684657
0.424715
0.773068
0.785512
0.4735
0.472307
0.768852
0.459681
0.738618
0.451814
3.06263e-08
1.12554e-08
2.72183e-08
2.84489e-05
0.00312769
0.0417759
0.302084
1.56664
1.57482
1.5184
1.53191
1.95049
1.94522
1.63988
1.63942
1.66701
1.33937
1.09984
1.16129
1.8585
1.1293
1.6704
1.34215
1.16173
1.09994
1.86357
1.13179
3.47843
1.57012
3.03386
1.41108
3.52434
1.5782
3.11377
1.42381
1.9198
1.11426
1.92096
1.11452
1.38252e-07
1.9267e-06
0.000112562
0.00534279
0.101535
0.268547
0.252578
0.298228
0.284687
0.355752
0.283133
0.376969
0.255151
0.338883
0.274623
0.363082
0.249909
0.505268
0.624154
0.305577
0.42451
0.273879
0.362732
0.492108
0.610372
0.302085
0.412051
0.269787
0.358846
0.391976
0.399896
0.6943
0.684611
0.388947
0.396038
0.682308
0.668346
0.681262
0.41847
0.662878
0.414387
0.72064
0.452941
0.825846
0.508373
0.705567
0.449669
0.816154
0.505985
1.5836e-08
1.27567e-06
0.000395914
0.0126642
0.119696
0.598763
0.716381
0.718771
0.669959
0.678455
1.07233
2.47664
1.25991
1.94132
1.07635
2.5128
1.26819
1.95719
0.830819
0.825289
2.91069
1.38579
3.05977
1.39757
2.96611
1.39948
3.15255
1.41645
3.87284e-08
8.02026e-07
1.43784e-05
0.000738905
0.024612
0.245494
0.231216
0.320967
0.308862
0.279076
0.269467
0.304939
0.295937
0.428588
0.260503
0.399961
0.24184
0.415712
0.257352
0.393568
0.240217
0.590119
0.458873
0.346471
0.285441
0.41298
0.257102
0.577846
0.447994
0.2831
0.343725
0.406918
0.255539
0.426899
0.735351
0.423101
0.718672
3.4483e-05
0.00252637
0.0348255
0.25737
0.333112
0.338557
0.345934
0.348185
0.35179
0.318167
0.301711
0.303296
0.629945
1.31875
0.761024
1.01305
0.625377
1.31202
0.761201
0.988239
0.655933
0.341773
0.660946
0.373674
0.538485
0.31312
0.58757
0.356702
1.5745
0.857275
1.58509
0.861409
1.53245e-07
4.6715e-06
9.96182e-05
0.00408327
0.0777486
0.264927
0.256382
0.325184
0.31782
0.349801
0.339171
0.298228
0.448353
0.274178
0.407586
0.291719
0.429136
0.26831
0.389672
0.43985
0.264022
0.428741
0.26568
0.428154
0.261559
0.425457
0.264696
0.000337738
0.00849693
0.0723198
0.122837
0.256224
0.258722
0.248562
0.250331
0.670259
0.316421
0.259313
0.733066
0.321637
0.552182
0.536214
0.282779
0.216453
0.524245
0.271676
0.362399
0.238397
0.218936
0.443039
0.940891
0.552351
0.729619
0.43452
0.912498
0.547587
0.686702
0.610284
0.315789
0.512677
0.295206
7.08655e-07
2.58217e-05
0.000615779
0.0170721
0.125214
0.119474
0.185522
0.179808
0.176797
0.176555
0.282425
0.277558
0.417978
0.299848
0.544275
0.305294
0.549103
0.312556
0.397227
0.290416
0.517252
0.298368
0.520825
0.305792
0.514717
0.296343
0.491175
0.291703
0.473666
0.294417
0.460062
0.292427
0.0017095
0.0159723
0.0501231
0.232913
0.233128
0.176264
0.176246
0.270007
0.267463
0.270447
0.271686
0.761243
0.348904
0.31547
0.905126
0.404148
0.680357
0.609153
0.314264
0.264155
0.687071
0.352693
0.468729
0.388535
0.238678
0.582018
0.276168
0.310171
0.223004
0.412079
0.231689
3.35134e-06
0.000133637
0.00305727
0.0520595
0.216226
0.205651
0.227653
0.22197
0.243822
0.239992
0.437418
0.266632
0.256415
0.362276
0.233133
0.277451
0.257569
0.358963
0.232038
0.277411
0.427952
0.263801
0.510799
0.583311
0.295604
0.321781
0.490255
0.550309
0.291929
0.3162
0.56315
0.325297
0.533606
0.320953
0.00312657
0.018645
0.0996046
0.288892
0.289336
0.229311
0.229486
0.378253
0.221087
0.283517
0.403846
0.240998
0.443169
0.312655
0.20439
0.283931
0.38362
0.23672
0.436753
0.308207
0.308643
0.387169
0.830155
0.327042
0.599463
0.54166
0.26261
0.407462
0.225165
1.55409e-05
0.000621404
0.0114482
0.0938528
0.0751464
0.14583
0.130676
0.145719
0.137932
0.196857
0.1908
0.26551
0.260139
0.33776
0.212106
0.34518
0.222277
0.253232
0.339188
0.220111
0.251412
0.327318
0.209577
0.396361
0.244401
0.357014
0.218108
0.352923
0.391304
0.217048
0.242998
0.00554763
0.0420972
0.0612462
0.260815
0.262226
0.207708
0.208546
0.42678
0.231912
0.263725
0.394051
0.219497
0.429796
0.360057
0.212782
0.264802
0.369878
0.212391
0.425951
0.405194
0.280135
0.380637
0.249656
0.410061
0.282549
0.386793
0.25256
0.515333
0.281529
0.42676
0.255162
6.6834e-05
0.00247091
0.0340695
0.153003
0.13215
0.155239
0.142107
0.175621
0.166186
0.265189
0.189206
0.267102
0.241486
0.180302
0.208028
0.257574
0.186467
0.26131
0.229886
0.176484
0.199096
0.29234
0.353901
0.181498
0.209883
0.344704
0.208216
0.285086
0.179996
0.0137762
0.0205987
0.0563072
0.122749
0.124598
0.0576422
0.0190326
0.0196015
0.16424
0.364376
0.247641
0.165825
0.371427
0.249978
0.409088
0.226803
0.215957
0.316808
0.191404
0.354887
0.349077
0.20843
0.21734
0.306046
0.188075
0.357055
0.3462
0.214244
0.353465
0.216781
0.000256531
0.00842887
0.079986
0.157688
0.144741
0.168904
0.15899
0.220712
0.298172
0.242735
0.180286
0.221333
0.184234
0.204772
0.206091
0.177176
0.28303
0.226456
0.175107
0.250067
0.166058
0.218483
0.152026
0.240399
0.164284
0.205639
0.149678
0.276121
0.182361
0.268238
0.18114
0.00871279
0.0137642
0.0929075
0.0588377
0.0945269
0.0585924
0.0270452
0.0267191
0.169877
0.206315
0.172509
0.266523
0.205076
0.13654
0.16655
0.151195
0.209413
0.17032
0.172979
0.272156
0.207418
0.136247
0.170164
0.148695
0.192434
0.307697
0.19392
0.311507
0.262144
0.177906
0.268194
0.180019
0.000877076
0.0230658
0.143817
0.18733
0.179362
0.129142
0.197791
0.188718
0.190251
0.20681
0.225472
0.18401
0.195315
0.218866
0.223705
0.214501
0.150113
0.14193
0.207457
0.147264
0.202573
0.139274
0.242327
0.174521
0.23272
0.171036
0.232774
0.173528
0.217528
0.170366
0.00803439
0.0138044
0.0820048
0.139918
0.153879
0.0686848
0.0825453
0.135805
0.153531
0.068195
0.0310273
0.0310406
0.180419
0.161077
0.221024
0.156312
0.139477
0.111401
0.181574
0.2271
0.156942
0.158774
0.13945
0.109744
0.169631
0.252951
0.170932
0.256898
0.00241396
0.0466967
0.185948
0.181798
0.176383
0.173858
0.222205
0.214356
0.219797
0.223943
0.170507
0.219147
0.197098
0.173816
0.213639
0.301752
0.210116
0.21548
0.166703
0.208501
0.19181
0.170444
0.203397
0.290519
0.228309
0.227299
0.159584
0.147437
0.216109
0.158343
0.217751
0.145637
0.00877608
0.0476777
0.0554671
0.0559623
0.0474297
0.0267407
0.0266818
0.104512
0.134312
0.13528
0.12753
0.142703
0.122576
0.117924
0.101702
0.0862402
0.12858
0.130821
0.106247
0.13218
0.13849
0.127227
0.14183
0.122044
0.121192
0.104186
0.0862498
0.129167
0.128907
0.161327
0.149014
0.116418
0.101245
0.157664
0.144179
0.115893
0.0991011
0.00424923
0.0445853
0.146183
0.249946
0.227853
0.208815
0.243054
0.226823
0.204223
0.131345
0.211733
0.198513
0.200391
0.198554
0.225071
0.139919
0.149201
0.13861
0.194054
0.191676
0.217799
0.147869
0.138735
0.137061
0.244522
0.164669
0.23494
0.163843
0.0131256
0.0716166
0.0498638
0.0718476
0.0495661
0.0395552
0.0393156
0.146097
0.143302
0.108594
0.104692
0.141565
0.0938651
0.167264
0.161148
0.142325
0.151867
0.138775
0.124588
0.120662
0.127905
0.146637
0.148436
0.103544
0.10957
0.145772
0.0956185
0.161077
0.164165
0.140519
0.151082
0.136141
0.123067
0.118963
0.124599
0.00275096
0.0124501
0.153267
0.145295
0.0124823
0.00209606
0.00166296
0.320723
0.206472
0.321433
0.207664
0.247353
0.317073
0.411986
0.24077
0.296679
0.203519
0.309656
0.203746
0.240679
0.301795
0.389895
0.23551
0.209423
0.319708
0.254199
0.19826
0.292584
0.241022
0.205613
0.237619
0.149856
0.16516
0.199992
0.230187
0.148948
0.163825
0.0161889
0.0893118
0.14039
0.144863
0.0634538
0.0887771
0.138678
0.143563
0.063516
0.102407
0.101726
0.143275
0.0963579
0.159315
0.100785
0.20003
0.211266
0.172804
0.112235
0.129725
0.131901
0.149497
0.0980044
0.160723
0.100666
0.198491
0.173661
0.206626
0.111529
0.128085
0.130037
3.56593e-06
0.00189147
0.0488314
0.0458539
0.00204228
0.000139735
9.72523e-05
0.29268
0.377907
0.191826
0.212948
0.38594
0.212787
0.281538
0.358767
0.190417
0.209685
0.36128
0.20763
0.204968
0.263909
0.188016
0.295498
0.230272
0.192529
0.190507
0.274256
0.186762
0.24492
0.182256
0.267924
0.218608
0.18254
0.179596
0.259539
0.086686
0.177282
0.176645
0.100507
0.154359
0.172586
0.1647
0.16401
0.0911075
0.0997283
0.154796
0.172808
0.164071
0.164418
0.0918331
0.192909
0.219846
0.223608
0.117523
0.128018
0.136773
0.192635
0.217752
0.221559
0.11648
0.126557
0.135958
4.22703e-06
0.000131531
0.00432325
0.17621
0.115797
0.00260011
0.171157
0.113269
0.000161899
7.71118e-06
2.69186e-06
0.408399
0.219471
0.339797
0.201169
0.382548
0.215539
0.312112
0.196842
0.232177
0.0872406
0.257698
0.145615
0.180466
0.0956008
0.21406
0.067577
0.238515
0.179318
0.142356
0.08662
0.0662318
0.194463
0.11959
0.19509
0.120013
0.100679
0.170871
0.183685
0.171083
0.182283
0.228806
0.142453
0.0636712
0.10019
0.170342
0.182581
0.16908
0.181341
0.227407
0.141658
0.0639509
0.241441
0.13483
0.239749
0.133688
3.53534e-05
1.38434e-05
4.86456e-06
0.000635388
0.0345044
0.00927858
0.00310148
0.0246817
4.39372e-05
0.0332599
0.00161078
0.0015502
0.0228457
5.7351e-05
3.22966e-05
0.144342
0.217477
0.0347318
0.107207
0.172129
0.0356771
0.125827
0.207459
0.0163792
0.174183
0.102601
0.0257864
0.00966852
0.157257
0.19385
0.1575
0.193857
0.0827599
0.0831141
0.0805293
0.16218
0.130457
0.144614
0.16358
0.153183
0.237627
0.14857
0.248709
0.259198
0.144382
0.0803879
0.163432
0.131502
0.145039
0.164765
0.152442
0.235029
0.147187
0.24779
0.257295
0.143275
9.09086e-05
0.000181744
0.00183281
7.57064e-05
0.000877811
0.000110101
0.000380821
0.00449339
0.000516411
0.00224464
0.0196689
0.00524793
7.67704e-05
2.07013e-05
0.0004581