/*--------------------------------*- C++ -*----------------------------------*\
| =========                 |                                                 |
| \\      /  F ield         | OpenFOAM: The Open Source CFD Toolbox           |
|  \\    /   O peration     | Version:  5.x                                   |
|   \\  /    A nd           | Web:      www.OpenFOAM.org                      |
|    \\/     M anipulation  |                                                 |
\*---------------------------------------------------------------------------*/
FoamFile
{
    version     2.0;
    format      ascii;
    class       surfaceScalarField;
    location    "1.3";
    object      meshPhi;
}
// * * * * * * * * * * * * * * * * * * * * * * * * * * * * * * * * * * * * * //

dimensions      [0 3 -1 0 0 0 0];

internalField   nonuniform List<scalar> 
30582
(
0
0
0
0
0
0
0
0
0
0
0
0
0
0
0
0
0
0
0
0
0
0
0
0
0
0
0
0
0
0
0
0
0
0
0
0
0
0
0
0
0
0
0
0
0
0
0
0
0
0
0
0
0
0
0
0
0
0
0
0
0
0
0
0
0
0
0
0
0
0
0
0
0
0
0
0
0
0
0
0
0
0
0
0
0
0
0
0
0
0
0
0
0
0
0
0
0
0
0
0
0
0
0
0
0
0
0
0
0
0
0
0
0
0
0
0
0
0
0
0
0
0
0
0
0
0
0
0
0
0
0
0
0
0
0
0
0
0
0
0
0
0
0
0
0
0
0
0
0
0
0
0
0
0
0
0
0
0
0
0
0
0
0
0
0
0
0
0
0
0
0
0
0
0
0
0
0
0
0
0
0
0
0
0
0
0
0
0
0
0
0
0
0
0
0
0
0
0
0
0
0
0
0
0
0
0
0
0
0
0
0
0
0
0
0
0
0
0
0
0
0
0
0
0
0
0
0
0
0
0
0
0
0
0
0
0
0
0
0
0
0
0
0
0
0
0
0
0
0
0
0
0
0
0
0
0
0
0
0
0
0
0
0
0
0
0
0
0
0
0
0
0
0
0
0
0
0
0
0
0
0
0
0
0
0
0
0
0
0
0
0
0
0
0
0
0
0
0
0
0
0
0
0
0
0
0
0
0
0
0
0
0
0
0
0
0
0
0
0
0
0
0
0
0
0
0
0
0
0
0
0
0
0
0
0
0
0
0
0
0
0
0
0
0
0
0
0
0
0
0
0
0
0
0
0
0
0
0
0
0
0
0
0
0
0
0
0
0
0
0
0
0
0
0
0
0
0
0
0
0
0
0
0
0
0
0
0
0
0
0
0
0
0
0
0
0
0
0
0
0
0
0
0
0
0
0
0
0
0
0
0
0
0
0
0
0
0
0
0
0
0
0
0
0
0
0
0
0
0
0
0
0
0
0
0
0
0
0
0
0
0
0
0
0
0
0
0
0
0
0
0
0
0
0
0
0
0
0
0
0
0
0
0
0
0
0
0
0
0
0
0
0
0
0
0
0
0
0
0
0
0
0
0
0
0
0
0
0
0
0
0
0
0
0
0
0
0
0
0
0
0
0
0
0
0
0
0
0
0
0
0
0
0
0
0
0
0
0
0
0
0
0
0
0
0
0
0
0
0
0
0
0
0
0
0
0
0
0
0
0
0
0
0
0
0
0
0
0
0
0
0
0
0
0
0
0
0
0
0
0
0
0
0
0
0
0
0
0
0
0
0
0
0
0
0
0
0
0
0
0
0
0
0
0
0
0
0
0
0
0
0
0
0
0
0
0
0
0
0
0
0
0
0
0
0
0
0
0
0
0
0
0
0
0
0
0
0
0
0
0
0
0
0
0
0
0
0
0
0
0
0
0
0
0
0
0
0
0
0
0
0
0
0
0
0
0
0
0
0
0
0
0
0
0
0
0
0
0
0
0
0
0
0
0
0
0
0
0
0
0
0
0
0
0
0
0
0
0
0
0
0
0
0
0
0
0
0
0
0
0
0
0
0
0
0
0
0
0
0
0
0
0
0
0
0
0
0
0
0
0
0
0
0
0
0
0
0
0
0
0
0
0
0
0
0
0
0
0
0
0
0
0
0
0
0
0
0
0
0
0
0
0
0
0
0
0
0
0
0
0
0
0
0
0
0
0
0
0
0
0
0
0
0
0
0
0
0
0
0
0
0
0
0
0
0
0
0
0
0
0
0
0
0
0
0
0
0
0
0
0
0
0
0
0
0
0
0
0
0
0
0
0
0
0
0
0
0
0
0
0
0
0
0
0
0
0
0
0
0
0
0
0
0
0
0
0
0
0
0
0
0
0
0
0
0
0
0
0
0
0
0
0
0
0
0
0
0
0
0
0
0
0
0
0
0
0
0
0
0
0
0
0
0
0
0
0
0
0
0
0
0
0
0
0
0
0
0
0
0
0
0
0
0
0
0
0
0
0
0
0
0
0
0
0
0
0
0
0
0
0
0
0
0
0
0
0
0
0
0
0
0
0
0
0
0
0
0
0
0
0
0
0
0
0
0
0
0
0
0
0
0
0
0
0
0
0
0
0
0
0
0
0
0
0
0
0
0
0
0
0
0
0
0
0
0
0
0
0
0
0
0
0
0
0
0
0
0
0
0
0
0
0
0
0
0
0
0
0
0
0
0
0
0
0
0
0
0
0
0
0
0
0
0
0
0
0
0
0
0
0
0
0
0
0
0
0
0
0
0
0
0
0
0
0
0
0
0
0
0
0
0
0
0
0
0
0
0
0
0
0
0
0
0
0
0
0
0
0
0
0
0
0
0
0
0
0
0
0
0
0
0
0
0
0
0
0
0
0
0
0
0
0
0
0
0
0
0
0
0
0
0
0
0
0
0
0
0
0
0
0
0
0
0
0
0
0
0
0
0
0
0
0
0
0
0
0
0
0
0
0
0
0
0
0
0
0
0
0
0
0
0
0
0
0
0
0
0
0
0
0
0
0
0
0
0
0
0
0
0
0
0
0
0
0
0
0
0
0
0
0
0
0
0
0
0
0
0
0
0
0
0
0
0
0
0
0
0
0
0
0
0
0
0
0
0
0
0
0
0
0
0
0
0
0
0
0
0
0
0
0
0
0
0
0
0
0
0
0
0
0
0
0
0
0
0
0
0
0
0
0
0
0
0
0
0
0
0
0
0
0
0
0
0
0
0
0
0
0
0
0
0
0
0
0
0
0
0
0
0
0
0
0
0
0
0
0
0
0
0
0
0
0
0
0
0
0
0
0
0
0
0
0
0
0
0
0
0
0
0
0
0
0
0
0
0
0
0
0
0
0
0
0
0
0
0
0
0
0
0
0
0
0
0
0
0
0
0
0
0
0
0
0
0
0
0
0
0
0
0
0
0
0
0
0
0
0
0
0
0
0
0
0
0
0
0
0
0
0
0
0
0
0
0
0
0
0
0
0
0
0
0
0
0
0
0
0
0
0
0
0
0
0
0
0
0
0
0
0
0
0
0
0
0
0
0
0
0
0
0
0
0
0
0
0
0
0
0
0
0
0
0
0
0
0
0
0
0
0
0
0
0
0
0
0
0
0
0
0
0
0
0
0
0
0
0
0
0
0
0
0
0
0
0
0
0
0
0
0
0
0
0
0
0
0
0
0
0
0
0
0
0
0
0
0
0
0
0
0
0
0
0
0
0
0
0
0
0
0
0
0
0
0
0
0
0
0
0
0
0
0
0
0
0
0
0
0
0
0
0
0
0
0
0
0
0
0
0
0
0
0
0
0
0
0
0
0
0
0
0
0
0
0
0
0
0
0
0
0
0
0
0
-2.77968e-18
9.80341e-18
-3.97766e-25
2.94067e-17
1.47004e-17
1.96162e-17
0
0
0
0
0
0
0
0
0
0
0
0
0
0
0
0
0
0
0
0
0
0
0
0
0
0
0
0
0
0
0
0
0
0
0
0
0
0
4.89016e-18
1.53953e-34
-7.13327e-19
1.13338e-25
2.44832e-17
-1.96041e-17
-2.73305e-18
2.94067e-17
-4.90041e-18
2.94154e-17
-1.41867e-18
-3.10765e-25
-4.89702e-17
3.54967e-34
-2.10081e-18
2.93911e-17
7.10394e-18
-4.89852e-17
0
0
0
0
0
0
0
0
0
0
0
0
0
0
0
0
0
0
0
0
0
0
0
0
0
0
0
0
0
0
0
0
0
0
0
0
0
8.14649e-19
-4.21967e-18
3.09647e-17
-3.44192e-20
-5.86001e-17
-1.95157e-17
3.91457e-17
-1.2853e-35
-1.39795e-18
1.469e-17
1.78468e-33
-7.2109e-19
1.98148e-25
2.44254e-17
0
8.32493e-17
-8.19272e-21
-3.91761e-17
-2.18835e-35
6.84975e-19
2.93911e-17
7.10394e-18
-2.93923e-17
-4.4202e-20
3.11806e-24
-2.93158e-17
2.7361e-34
-6.43259e-21
-3.90843e-17
0
0
0
0
0
0
0
0
0
0
0
0
0
0
0
0
0
0
0
0
0
0
0
0
0
0
0
0
0
0
0
0
0
0
0
1.53806e-17
2.93129e-17
1.95125e-17
4.94062e-18
5.0069e-20
2.30505e-34
8.81998e-20
5.28665e-20
3.42155e-17
1.1255e-17
-2.70088e-18
-1.92752e-17
-1.77588e-34
2.35629e-19
1.46067e-17
-2.63271e-18
-1.94772e-17
1.05414e-34
7.72748e-20
-4.89011e-18
0
4.1917e-19
8.51737e-24
8.51307e-18
-1.45857e-17
1.09425e-17
-1.46064e-17
0
0
2.03545e-18
-4.18252e-18
1.99975e-17
1.2468e-20
2.93688e-17
9.72924e-18
-5.86001e-17
-8.8404e-20
-3.90877e-17
-2.22537e-34
-9.77747e-18
-7.82082e-17
0
-3.96384e-24
2.18964e-17
-2.43018e-18
2.18818e-17
-4.87812e-18
0
-9.75927e-18
2.51986e-18
-9.83811e-18
9.75506e-18
-1.22013e-17
9.82394e-18
-1.23292e-17
2.44893e-18
0
0
0
0
0
0
0
0
0
0
0
0
0
0
0
0
0
0
0
0
0
0
0
0
0
0
0
0
0
0
0
0
0
-1.349e-17
2.45253e-17
-1.95785e-17
1.46979e-17
9.92255e-18
-7.71667e-35
-4.21914e-18
2.92805e-17
2.66496e-18
-3.89538e-17
-2.89033e-34
9.93245e-18
1.47207e-17
0
-3.93439e-17
1.00318e-35
-2.08973e-11
-5.626e-12
-2.09028e-09
8.40654e-14
-3.08828e-13
1.63988e-08
2.39297e-13
1.65975e-08
-1.4573e-10
8.88057e-19
-1.71615e-19
5.61032e-19
1.72368e-19
-4.95765e-18
1.89964e-17
1.24555e-18
1.17655e-17
2.26462e-18
3.66541e-34
-3.57199e-16
9.70129e-13
1.62243e-08
-1.29504e-14
3.2744e-08
6.85598e-19
1.18957e-18
2.6636e-17
4.85374e-18
3.39692e-17
0
-3.79666e-19
1.09529e-17
-4.86578e-18
1.58012e-17
-9.72743e-18
7.96581e-19
8.14236e-20
0
-5.07825e-19
8.48568e-18
8.11279e-20
8.20731e-19
1.75028e-23
-2.41837e-18
0
2.87781e-22
-6.41799e-16
9.50354e-19
-9.68929e-18
0
0
-4.00068e-17
4.94077e-18
9.88267e-18
-1.6943e-20
1.95125e-17
0
1.40258e-18
1.27825e-18
4.86657e-18
-7.03001e-18
-2.6326e-18
-2.09468e-33
0
1.59634e-22
1.46181e-17
-2.80703e-18
-9.71875e-18
-8.0926e-20
1.3378e-17
-4.8611e-18
8.51169e-18
-4.8717e-18
0
-9.75122e-18
4.95879e-18
-1.47148e-17
9.74909e-18
-1.46288e-17
1.22743e-17
-1.23054e-17
4.88075e-18
1.20669e-18
8.1307e-20
-1.38496e-18
8.47301e-18
0
8.10039e-20
-8.48723e-26
-8.47672e-18
-9.43258e-26
6.05493e-18
0
1.67877e-21
-1.37798e-18
0
0
1.93705e-17
-8.06092e-20
-1.31101e-18
9.70126e-13
0
1.37188e-10
-1.44806e-17
-9.90609e-19
1.61824e-19
1.69235e-17
8.04234e-20
-1.31045e-18
-9.75781e-18
3.67237e-17
-9.69118e-18
0
0
0
0
0
0
0
0
0
0
0
0
0
0
0
0
0
0
0
0
0
0
0
0
0
0
0
0
0
0
0
5.45291e-18
1.70411e-20
-9.75026e-18
9.93309e-18
-9.88655e-18
-2.46432e-35
-1.23529e-18
-1.47581e-17
1.37317e-17
-3.91603e-17
-3.46936e-35
-9.61154e-20
4.86956e-18
1.13287e-17
-1.95258e-17
1.08593e-25
4.70725e-09
-3.49251e-12
1.47093e-08
8.11408e-11
1.61342e-08
1.02917e-08
-4.79013e-18
1.95943e-17
1.5374e-12
-1.17921e-10
-3.7735e-27
-4.58687e-09
3.83583e-10
1.48011e-09
-1.36823e-10
4.71903e-10
-1.00271e-08
-1.41613e-12
-7.33681e-10
-1.25041e-12
2.40328e-10
1.38612e-19
-3.69652e-19
-6.52539e-19
-9.8953e-13
7.93e-20
-2.26367e-13
-1.43915e-13
2.44693e-16
-1.20285e-34
-1.74707e-08
-3.52304e-16
-1.93014e-24
5.23874e-13
1.95228e-17
-3.37717e-34
-9.22432e-11
-4.84757e-18
0
2.12666e-09
1.61054e-08
7.92578e-20
-4.84809e-19
-9.83118e-18
0
6.11338e-19
-7.60801e-20
1.06165e-17
-1.2952e-18
4.04019e-18
6.17111e-19
-6.6354e-20
-1.76787e-19
1.46373e-17
-1.19631e-18
-2.31631e-17
5.03065e-19
1.70382e-17
1.26259e-25
-5.17407e-13
6.98501e-12
1.29352e-12
4.61787e-11
1.14728e-34
1.9312e-08
-2.04394e-09
0
1.94861e-17
-4.29227e-35
-1.58611e-17
0
5.25472e-19
1.38257e-18
4.75311e-18
-9.79778e-19
-1.13566e-17
4.0933e-18
6.8563e-20
9.7319e-18
-1.82885e-17
6.65771e-19
8.14237e-20
0
-1.01788e-18
1.09164e-17
-1.62256e-19
7.31397e-19
-1.21052e-17
0
-6.32108e-16
5.38155e-19
-1.94206e-17
-2.20729e-09
-1.63231e-19
0
2.08001e-09
2.50594e-11
8.04612e-20
1.16417e-13
3.82071e-22
-3.09749e-13
0
2.02369e-21
1.62646e-08
7.76131e-14
-1.61763e-14
0
0
-1.349e-17
1.47795e-17
-9.75739e-18
-4.94669e-18
-9.72162e-18
4.59051e-34
4.05279e-18
1.32788e-18
9.87004e-18
-2.88686e-18
1.07582e-19
0
-5.47508e-34
4.92141e-18
0
0
8.04875e-17
1.80461e-08
-3.88056e-12
1.74047e-08
-7.27754e-18
-2.38965e-15
-2.40912e-18
6.85515e-19
-9.60605e-18
1.2271e-17
-4.85359e-18
2.6685e-17
0
-1.98879e-12
-1.44187e-10
7.11257e-14
-1.2628e-12
1.70923e-08
-1.49027e-17
-3.7986e-15
-2.27318e-09
1.01893e-21
2.3146e-18
-1.2073e-18
3.23842e-20
4.15625e-17
-6.09021e-18
3.91717e-17
3.88127e-18
9.86647e-19
8.13073e-20
-1.40608e-18
2.54825e-17
8.09828e-20
8.10081e-20
-1.21095e-18
1.45314e-17
-2.33781e-36
-2.42988e-18
-9.90797e-19
1.62053e-19
0
2.42243e-17
-1.61216e-19
-1.4593e-18
5.30331e-13
0
1.65649e-08
-1.69315e-17
-1.28712e-18
8.09107e-20
2.78607e-17
0
-1.42397e-18
-2.42711e-18
1.70067e-17
9.72528e-34
6.48377e-19
-1.63178e-19
-2.83209e-18
2.6739e-17
0
2.94824e-19
-2.18835e-24
-1.00035e-21
-1.01087e-23
4.81976e-17
9.94464e-20
-2.42946e-18
-8.1018e-20
0
-1.62131e-08
-1.56846e-13
-8.09929e-20
9.49852e-18
-3.57967e-18
0
0
0
0
0
0
0
0
0
0
0
0
0
0
0
0
0
0
0
0
0
0
0
0
0
0
0
0
0
-1.67287e-17
2.45465e-17
-2.29211e-20
-4.88021e-18
-4.6389e-20
-8.75321e-34
-2.43869e-18
1.94793e-17
2.20996e-17
-1.94268e-17
-1.34368e-33
5.82344e-18
-1.96455e-17
5.82524e-18
-1.92527e-17
-3.87364e-26
-4.49573e-09
1.57754e-10
-1.66002e-08
-4.03023e-09
-1.6605e-08
-9.82927e-09
9.14896e-13
-3.06989e-10
-8.08455e-13
8.05029e-09
-1.18017e-26
6.65637e-11
-4.1612e-09
1.66711e-08
-4.0875e-09
1.65201e-08
1.41369e-10
4.00182e-13
8.33413e-09
7.47813e-13
8.16822e-09
7.36566e-20
6.27357e-12
-1.29351e-12
2.00861e-08
-1.09341e-34
-2.0423e-09
7.63131e-20
-5.12392e-09
3.13299e-17
1.51112e-26
-1.82036e-12
-2.16698e-17
0
-3.54443e-18
4.99367e-18
6.61506e-19
-1.28085e-17
-7.62238e-20
1.93354e-12
1.20423e-17
1.02466e-08
-3.48876e-17
7.71952e-20
-6.98501e-12
4.85307e-09
1.45881e-17
-1.99643e-08
1.49934e-26
1.8128e-12
-1.25716e-15
-7.83265e-20
2.47492e-17
-1.42166e-26
-1.23189e-17
-1.54224e-19
-1.49994e-18
-1.81227e-12
8.76652e-18
7.20431e-18
-9.70469e-09
6.58324e-18
7.82479e-20
1.48494e-17
-1.96871e-17
-5.92279e-20
4.52732e-13
-3.92525e-25
-2.45296e-18
-5.92308e-17
-7.88476e-35
1.29939e-34
2.76412e-09
2.76157e-20
6.4675e-14
-4.63255e-34
-8.74706e-09
-1.43948e-33
5.31133e-20
-3.14379e-34
-8.17577e-19
-1.15068e-18
2.02061e-18
-2.76361e-20
-4.85549e-19
1.92861e-19
3.82271e-20
9.263e-19
-1.50218e-19
-1.27208e-18
-1.3837e-35
2.07422e-16
3.59625e-20
-4.65434e-34
-4.24127e-34
1.37777e-19
-7.83168e-19
-1.24341e-18
-2.30742e-18
0
8.12847e-11
-8.16114e-20
0
2.14939e-09
-1.64144e-08
-8.04569e-20
6.69536e-19
1.36341e-14
0
-1.62794e-08
3.23393e-14
-1.53613e-13
-1.21463e-09
-4.46651e-20
7.81742e-34
1.36672e-09
0
-1.16417e-13
-2.11938e-21
3.66586e-34
-3.64836e-21
-7.76109e-14
0
0
5.68238e-18
9.88487e-18
-1.31665e-32
-9.76658e-18
-9.78383e-18
1.41956e-35
8.42248e-18
-3.86943e-19
4.84621e-18
-1.36381e-17
1.15244e-17
-5.86264e-17
1.24037e-35
4.82176e-18
-3.90946e-17
1.65476e-26
-4.70719e-09
-4.58693e-09
3.87916e-10
1.8297e-08
-1.40211e-10
1.70515e-08
-1.02919e-08
-1.00271e-08
-1.46869e-12
-7.33656e-10
-1.24771e-12
2.40352e-10
-4.7618e-25
-1.19651e-12
3.23573e-08
8.09151e-11
1.61344e-08
-3.59243e-18
1.46957e-17
1.54279e-12
-1.17872e-10
-7.09109e-20
6.91648e-20
-6.9365e-12
-4.52732e-13
-1.72371e-16
0
-1.93116e-08
-1.60537e-08
0
8.54881e-19
1.70693e-17
0
-9.01961e-17
-1.45545e-17
7.08574e-20
3.3769e-19
7.05143e-19
3.77099e-20
4.94811e-19
-4.85455e-18
6.18673e-18
-6.85551e-20
6.86477e-19
7.29357e-18
-9.36907e-19
-2.30999e-17
-6.93098e-20
-1.68468e-18
-6.6293e-13
-9.89528e-13
-7.93009e-20
1.48754e-13
2.44149e-13
1.69793e-17
0
-1.74707e-08
-3.56344e-09
-1.32786e-19
2.42949e-17
0
-2.06545e-17
0
-2.50495e-10
3.36214e-08
-6.9302e-20
-5.76576e-19
3.94893e-19
-2.51473e-19
7.9258e-20
-3.00829e-19
-4.90905e-18
5.1901e-19
-4.48181e-18
4.04007e-18
6.63537e-20
9.75199e-18
-1.08647e-17
4.40187e-19
3.17395e-17
1.36682e-18
-8.15882e-20
-3.36191e-18
3.4026e-17
2.05003e-33
1.60512e-19
-2.40945e-18
2.65136e-17
-2.29456e-19
-1.11114e-21
-8.10176e-20
0
1.63226e-08
4.02601e-13
-8.09941e-20
2.86785e-17
-3.58979e-18
-4.24098e-19
-4.46341e-20
-5.45547e-19
-4.22641e-20
1.0472e-19
-5.47845e-24
3.06712e-23
-5.48613e-20
0
1.67708e-34
-4.82322e-20
0
0
0
0
0
0
0
0
0
0
0
0
0
0
0
0
0
0
0
0
0
0
0
0
0
0
0
0
7.35291e-17
8.11023e-34
8.52318e-18
-9.83972e-18
2.75563e-17
-9.68629e-18
3.68087e-33
8.20712e-18
4.8425e-18
-1.67217e-17
-2.93683e-17
-4.82136e-25
-5.76621e-18
3.86063e-09
2.76617e-17
8.4489e-09
-6.07919e-34
-1.38708e-17
2.44312e-17
2.86805e-17
-4.88634e-17
0
-2.45768e-12
-1.35202e-17
-2.6003e-10
0
-1.25161e-15
-1.52219e-19
4.91965e-09
-2.43326e-17
0
2.46577e-12
9.74479e-18
1.4988e-19
-7.3989e-19
-3.67543e-18
-7.73679e-18
2.18511e-17
-7.60243e-20
-1.65732e-12
-1.62072e-20
-9.83613e-09
1.82641e-17
7.75552e-20
-3.29848e-12
-1.04975e-10
2.52235e-12
-4.51843e-10
0
4.49289e-10
1.66735e-08
-1.95469e-24
-2.4354e-17
0
8.47962e-18
-7.74627e-20
-2.42447e-18
5.49749e-13
-9.78712e-18
2.8011e-18
2.2272e-10
2.68395e-17
-7.70886e-20
-1.21715e-17
1.82346e-17
-4.13563e-20
3.23377e-13
4.41737e-11
-1.33033e-34
4.67353e-20
3.23376e-13
-3.77157e-34
-1.06012e-10
4.13739e-20
-8.45676e-19
1.74704e-18
-4.67614e-20
-1.0262e-18
2.71637e-18
4.38443e-31
-5.43013e-18
9.16398e-19
7.13151e-18
-5.36124e-16
-1.23723e-34
1.6165e-16
2.89879e-15
1.2045e-19
-5.45931e-34
7.38928e-20
1.38778e-19
-6.80335e-19
1.34959e-18
6.56444e-18
-1.36065e-18
-3.76539e-17
-6.02326e-20
8.24829e-11
0
5.28835e-34
1.18672e-09
4.22883e-20
-6.95266e-14
2.41951e-34
-3.2338e-14
0
0
2.76115e-17
-4.89165e-18
-9.82656e-18
-1.46636e-17
1.96222e-17
-9.02789e-35
2.43869e-18
1.13605e-17
-9.01163e-20
-1.66468e-17
-6.58327e-32
-3.90496e-17
-6.14674e-34
9.66018e-18
-3.90122e-17
5.23763e-27
4.49594e-09
-1.56137e-17
-5.65107e-12
-1.66715e-08
-4.07941e-09
-1.65215e-08
9.82949e-09
1.9407e-17
-4.90341e-18
1.47017e-17
7.11428e-13
8.16839e-09
3.87365e-26
1.57564e-10
-1.66001e-08
-4.03045e-09
-1.66051e-08
9.18928e-13
-3.06952e-10
-8.08453e-13
8.05029e-09
-7.71977e-20
-8.92529e-12
4.85298e-09
7.37202e-18
-2.02849e-08
0
1.8128e-12
-1.25739e-15
-7.83211e-20
5.12373e-09
2.72604e-17
0
1.76511e-12
-5.06369e-18
0
-1.57066e-18
-1.81227e-12
8.98977e-18
1.04805e-17
-9.70469e-09
1.5362e-18
0
-1.8783e-12
9.97475e-18
-1.02466e-08
-1.9819e-17
0
6.53227e-12
4.52736e-13
2.00861e-08
0
-1.61024e-08
-1.52628e-19
1.46458e-17
0
-1.09138e-17
-6.72789e-34
-2.20631e-18
-2.23261e-18
7.50471e-19
1.30346e-17
7.62244e-20
7.27567e-18
-2.294e-17
-3.82103e-20
6.46765e-14
2.11814e-12
-9.90375e-09
0
1.05794e-08
0
-1.48754e-13
0
7.82876e-09
-2.92466e-33
-9.24865e-20
-1.05887e-20
6.73833e-19
-1.15395e-18
0
4.85578e-19
-2.03519e-18
-5.92201e-20
1.37437e-13
-3.92527e-25
-4.0306e-18
-5.71546e-17
0
2.96438e-34
1.43061e-09
0
0
5.9202e-20
1.24244e-19
-3.17326e-34
-2.91265e-19
3.77548e-18
-8.66213e-19
0
8.01061e-19
0
-1.31059e-18
-4.22662e-20
-1.22947e-20
-5.63647e-20
-4.82476e-20
3.85562e-34
0
0
0
0
0
0
0
0
0
0
0
0
0
0
0
0
0
0
0
0
0
0
0
0
0
0
0
0
2.90576e-18
-9.97465e-35
-2.18348e-17
-1.96141e-17
-3.91908e-17
-7.79104e-22
-1.96006e-17
-2.89478e-33
-2.85068e-18
4.92937e-18
1.03796e-17
-2.91398e-17
-2.04844e-33
9.81609e-18
-3.91287e-17
0
-2.79315e-18
-1.03482e-12
-4.69016e-10
1.4741e-17
-1.23122e-17
-6.14215e-16
-7.24995e-18
-1.13744e-18
-2.93469e-18
1.54543e-17
1.71362e-17
-7.28133e-18
2.18012e-17
-3.29925e-20
0
1.1799e-18
3.5496e-18
-1.71861e-17
8.42949e-18
-1.95356e-17
1.38387e-17
1.09466e-17
7.38583e-18
2.0721e-17
0
0
-2.09774e-19
-8.30157e-18
-3.26948e-18
0
3.61779e-17
0
7.10164e-18
-1.68768e-17
0
-6.16133e-18
1.44183e-17
0
-1.42179e-18
1.20409e-18
-1.37245e-18
1.30467e-17
-7.50024e-20
6.7917e-19
-2.33092e-18
-7.21832e-18
2.30099e-17
7.85358e-20
-8.88741e-18
-9.32752e-18
5.43455e-18
0
-5.91554e-16
8.9664e-34
-4.75356e-18
0
3.5652e-18
-6.99231e-34
1.80616e-18
5.03695e-18
8.17642e-18
2.05076e-17
-7.82814e-20
-7.25917e-18
1.07848e-17
-6.27058e-32
8.8876e-19
-4.28068e-35
-1.73058e-16
6.55969e-34
1.61239e-18
3.31383e-18
0
0
0
7.35445e-17
-1.57203e-33
-1.15686e-19
2.60857e-18
-4.92799e-18
-1.07415e-17
-2.22442e-17
-1.96553e-17
-9.66686e-34
-1.02174e-19
-3.91045e-17
7.35648e-36
1.94386e-19
-1.40585e-17
2.44311e-17
-1.69087e-17
2.79297e-17
-9.48371e-18
-3.96334e-35
-1.59459e-17
-2.42796e-18
0
3.29847e-12
-6.42717e-12
-2.52237e-12
4.51843e-10
0
-4.49837e-10
-1.66735e-08
-7.71661e-20
-4.91956e-09
-2.19095e-17
0
-2.48194e-12
1.94579e-17
7.74625e-20
-2.9336e-18
2.75832e-18
-7.36198e-18
6.80992e-18
-7.328e-18
1.82449e-17
0
1.65732e-12
-7.30339e-18
9.83586e-09
2.55792e-17
-7.50008e-20
-2.65171e-12
-1.83597e-17
-2.60523e-10
0
-1.25039e-15
-7.61143e-20
-2.67781e-17
0
1.22016e-17
7.49391e-20
3.09113e-18
-1.09658e-17
-5.46082e-18
2.65882e-17
7.60218e-20
-9.73381e-18
1.7063e-17
0
-7.45657e-18
1.6124e-18
1.62668e-17
-5.35021e-16
0
1.59412e-16
3.53324e-15
-6.02241e-20
-3.23376e-13
0
1.06012e-10
0
-1.39147e-18
-1.3413e-18
-2.61165e-18
8.92997e-18
-2.69586e-18
-3.25114e-17
1.20465e-19
1.0262e-18
-2.71637e-18
8.27004e-20
3.23378e-13
4.41737e-11
0
0
0
-3.71194e-33
-1.26196e-18
2.14347e-18
-4.67612e-20
0
0
0
0
0
0
0
0
0
0
0
0
0
0
0
0
0
0
0
0
0
0
0
0
0
0
-1.47546e-17
5.20777e-33
1.12694e-17
1.62614e-17
4.82771e-18
1.59128e-17
-1.67775e-17
-4.89955e-17
7.36175e-33
-1.96895e-17
-4.89282e-18
0
-2.94177e-17
4.01752e-25
2.76503e-18
4.12947e-09
-3.31466e-13
5.55203e-12
4.19758e-09
5.531e-18
3.31462e-13
-8.25894e-09
-8.3708e-09
8.28661e-13
1.92792e-33
5.05597e-18
-9.50816e-18
-2.07161e-19
7.53736e-20
0
4.88059e-18
-1.46618e-17
-7.20019e-20
-1.5665e-18
2.13431e-12
7.1144e-13
0
1.8653e-08
1.66438e-08
-2.79148e-18
4.92453e-18
-1.72625e-18
9.07686e-35
1.05337e-17
-9.83095e-18
0
-1.47358e-18
-1.73964e-20
7.22963e-18
9.71467e-18
-1.56745e-17
-2.86671e-18
-4.86263e-18
-1.54767e-17
7.6244e-20
0
2.18024e-18
-7.62505e-20
-1.65132e-17
-9.281e-12
-2.65173e-12
0
-6.96738e-10
-1.63848e-08
-9.78668e-18
-2.30099e-17
1.52371e-19
1.21007e-17
7.61556e-20
-4.2735e-18
7.43411e-19
2.40258e-18
-7.24043e-18
1.82993e-17
-2.42045e-18
0
-2.19839e-18
9.5511e-19
0
0
1.4946e-18
0
-9.95241e-19
2.99972e-20
5.05151e-19
8.01077e-19
4.43778e-20
1.50218e-18
-2.75414e-18
-7.59185e-20
-8.40792e-13
2.58713e-13
1.70378e-08
0
3.44823e-08
0
0
-2.51708e-33
3.52269e-19
9.36337e-18
7.09052e-18
-2.9977e-17
-1.17639e-19
0
0
0
0
-2.83118e-18
-5.66236e-18
-2.21442e-17
-9.85909e-18
-6.87837e-17
4.91298e-18
-2.94405e-17
1.85037e-33
2.6806e-18
-1.474e-17
-2.17811e-17
-2.93462e-17
1.87497e-33
2.43848e-17
-4.89418e-17
0
2.50766e-18
2.98102e-18
1.21494e-17
-1.09954e-17
1.09189e-17
-9.79181e-18
0
3.34587e-17
1.82358e-17
-1.10698e-17
1.57823e-17
-2.45493e-18
0
-2.70023e-12
-1.93682e-08
6.09039e-18
-4.52733e-12
9.20576e-11
-2.35832e-18
-1.32884e-18
2.04114e-17
6.04447e-18
-4.84556e-18
1.08458e-17
-7.31893e-18
-7.85323e-20
-6.90362e-18
4.52731e-12
6.85472e-18
0
1.23606e-09
-1.56626e-19
-5.43385e-18
-1.93016e-17
0
3.25031e-18
3.59985e-18
1.56985e-19
-3.49994e-18
4.52101e-20
6.5144e-18
5.35155e-18
7.82891e-20
-2.03772e-18
2.42644e-18
6.7623e-18
1.44543e-17
7.11151e-20
3.31707e-18
2.50757e-18
-3.79123e-18
0
5.98537e-16
-7.5033e-20
-1.21129e-17
0
2.33052e-18
1.42183e-19
5.33535e-19
-9.63151e-18
-4.50229e-18
-4.96672e-18
1.50007e-19
-9.42495e-18
8.56553e-18
-1.47696e-31
3.97466e-19
0
-2.78036e-16
3.5109e-34
9.40644e-19
8.95715e-19
0
0
0
0
0
0
0
0
0
0
0
0
0
0
0
0
0
0
0
0
0
0
0
0
5.12936e-18
0
-2.77725e-17
1.95811e-17
-2.94711e-17
-1.45978e-17
-1.95244e-17
-1.49008e-24
4.69772e-09
-4.48094e-09
4.03397e-09
5.37657e-13
-4.41939e-09
-2.92384e-12
1.02499e-08
-9.79921e-09
-5.37625e-13
-8.06838e-09
2.92389e-12
8.83963e-09
4.692e-24
3.96805e-09
8.658e-09
-2.2821e-24
1.7987e-10
2.65171e-12
1.31372e-12
-1.09374e-25
-1.64898e-08
-7.89043e-20
-2.34332e-25
2.03189e-08
4.40368e-10
-7.69644e-12
7.69642e-12
0
-8.28655e-13
-7.32024e-18
-3.5843e-10
2.19575e-17
1.57523e-19
-1.23595e-17
4.38092e-17
-1.19803e-19
-7.34817e-18
-3.07347e-26
-2.02802e-08
-4.91538e-12
3.95871e-09
-7.74027e-13
-9.8749e-18
-3.15129e-15
1.91341e-17
-1.62597e-18
7.72072e-13
-7.91737e-09
2.52421e-18
2.94587e-17
-1.26459e-08
-5.64268e-20
0
-1.37145e-09
-3.48322e-20
1.29348e-13
-1.77857e-13
0
1.9849e-08
-3.88061e-13
-6.4822e-18
0
-5.12233e-18
1.63984e-33
9.55444e-22
1.68418e-18
-4.98848e-18
-5.7622e-19
1.89518e-08
-7.48535e-20
0
-1.77701e-08
-7.34573e-20
1.35819e-12
2.18282e-12
5.17412e-13
0
1.94357e-08
-2.62901e-09
2.102e-13
-1.88565e-17
1.4974e-19
-1.06531e-17
-7.34231e-20
-2.82025e-18
2.65729e-18
1.07579e-18
-2.17384e-17
-1.17824e-18
5.29415e-18
-2.11422e-24
0
5.84525e-34
0
0
0
0
0
-1.47546e-17
-5.82824e-33
-2.82676e-19
8.32288e-18
1.47374e-17
-1.61015e-17
0
-2.9418e-17
-1.69479e-33
2.36664e-18
4.94156e-17
-1.65194e-17
-2.93254e-17
-8.11845e-34
2.76747e-18
1.95646e-17
-1.04948e-17
-1.97532e-17
-7.34201e-25
4.14825e-09
-1.21536e-12
1.91973e-11
4.3568e-09
1.21537e-12
-8.29772e-09
-8.63084e-09
2.43074e-12
-9.09513e-18
-7.62446e-20
0
-7.92941e-18
2.52605e-18
2.31957e-24
-7.90459e-18
2.12649e-11
6.46759e-12
0
2.01322e-08
-8.85495e-11
1.1478e-17
-2.63254e-19
-1.44334e-17
-7.61888e-20
-1.12664e-17
1.42186e-18
0
-5.71743e-18
2.18157e-18
-2.45682e-18
0
9.71816e-18
4.33807e-18
7.36598e-18
-2.00485e-18
-1.07e-33
0
-1.58876e-17
7.19937e-20
1.8372e-19
-5.82084e-12
-1.61688e-12
0
-3.74364e-08
-4.87696e-10
1.95543e-17
1.63451e-18
0
-2.32186e-17
0
1.33655e-18
-7.05695e-19
-3.66058e-18
1.80156e-17
-2.40105e-17
7.34616e-18
-2.2774e-19
-6.46763e-13
2.70023e-12
-1.49161e-09
0
1.93317e-08
5.73145e-24
3.88054e-13
0
1.35638e-08
-7.5919e-20
2.31126e-19
2.72872e-18
5.25433e-18
-2.71527e-17
5.8819e-20
-4.98625e-19
3.01797e-18
-2.99673e-20
-2.37224e-18
9.55084e-19
0
7.61198e-25
0
0
-1.65256e-18
1.76125e-18
-4.43672e-20
0
0
0
0
0
0
0
0
0
0
0
0
0
0
0
0
0
0
0
0
1.67752e-17
-3.11164e-22
-9.93611e-18
9.91388e-18
-9.76515e-18
-1.29677e-33
-1.38393e-17
1.39571e-17
2.21819e-21
1.6239e-17
0
-1.9639e-17
-1.97172e-33
1.21226e-19
1.49146e-17
-2.42796e-19
-4.08716e-17
-7.70661e-20
1.26002e-17
4.78048e-09
-1.47971e-17
7.33131e-16
0
9.8089e-13
-2.52352e-15
-7.79136e-20
-5.23888e-09
-1.44417e-17
0
-6.3679e-12
1.69559e-17
-7.70094e-20
2.8756e-18
-9.82267e-13
1.42126e-19
-2.0236e-17
-9.55999e-09
3.24076e-17
0
5.08245e-12
-2.32739e-18
1.04716e-08
2.41217e-17
0
-6.56457e-18
5.9643e-18
4.84403e-18
1.23468e-17
-8.85786e-18
9.68834e-18
1.76127e-18
1.20694e-17
-3.63184e-18
0
-1.74426e-17
-9.68639e-18
1.56039e-19
-1.16415e-12
-3.97866e-18
-2.08075e-08
1.65704e-33
-3.76437e-17
-4.58725e-24
3.35224e-33
-9.67619e-10
-3.94524e-12
1.57283e-33
3.32813e-18
-3.62566e-18
-2.08378e-17
7.89914e-18
-7.9962e-20
1.21148e-17
-1.06865e-18
-7.77906e-20
-8.48815e-18
-2.63223e-17
6.6315e-17
0
-2.51599e-15
1.51927e-19
4.45439e-18
4.8929e-18
0
4.50474e-17
4.76666e-18
-7.76871e-20
8.93709e-19
-7.65956e-20
9.16823e-18
4.39885e-17
-7.59369e-20
1.19832e-18
-4.96598e-18
-2.77529e-18
1.19614e-18
3.04213e-09
1.44544e-24
0
3.50996e-20
4.85057e-14
3.49251e-12
0
2.6327e-08
-1.90671e-18
-1.12373e-33
3.5107e-20
-8.61522e-19
1.01504e-18
-8.02857e-18
0
0
0
0
0
0
1.66218e-17
0
6.1398e-17
-4.5642e-18
-1.02186e-17
-9.69209e-18
-1.96809e-17
-1.83825e-24
-4.56858e-09
7.83785e-11
-9.97664e-09
1.54694e-10
2.26452e-24
1.54662e-10
4.1734e-09
6.10698e-10
-1.73004e-10
8.00891e-10
3.31876e-10
5.10669e-13
-8.37814e-09
1.92545e-12
3.93707e-10
5.72264e-27
1.95263e-08
-5.04473e-12
4.28753e-09
1.82395e-08
3.89672e-12
1.77228e-08
-1.63308e-12
-8.46037e-10
7.3869e-18
-1.19116e-19
-9.59366e-13
-8.51269e-09
-1.31097e-18
4.41598e-18
-1.37492e-18
1.63818e-17
7.74194e-20
5.22767e-09
-6.46761e-12
4.75099e-12
-1.41834e-25
6.4757e-12
0
-7.16425e-26
1.62489e-08
-5.04473e-12
-7.73548e-20
-2.43074e-12
-7.32009e-18
-1.04481e-08
3.65505e-18
-7.87546e-20
5.84158e-18
-9.84969e-18
-1.89522e-08
7.4849e-20
0
1.6957e-08
1.76795e-08
-7.34515e-20
-7.11444e-13
8.79594e-12
-2.66936e-18
0
4.03559e-08
6.52893e-17
-5.82081e-13
-3.07211e-13
-1.90985e-18
0
2.34029e-18
-2.69096e-18
7.343e-20
-5.64205e-18
4.25972e-18
2.39659e-18
-2.76717e-18
4.69582e-18
6.27351e-18
-1.31551e-18
1.22978e-08
-1.12853e-19
0
-3.48337e-20
1.29347e-13
-1.98878e-12
0
-5.12278e-09
-8.89543e-18
-5.64377e-20
0
7.81222e-20
4.75249e-19
-7.16599e-18
3.32736e-24
0
4.29988e-34
0
0
0
0
0
0
0
0
0
0
0
0
0
0
0
0
0
1.97678e-17
-4.75691e-35
-1.1232e-17
-5.6077e-18
-1.73023e-19
-2.00118e-17
1.36831e-34
3.52058e-19
-1.51721e-19
1.12317e-17
-2.9729e-17
-1.00806e-24
-4.52163e-09
1.52797e-11
1.90363e-08
-2.06963e-12
2.3445e-12
-3.41448e-08
1.5214e-10
-1.68239e-08
1.87793e-08
-9.89171e-09
1.94452e-19
1.32549e-17
1.39025e-18
2.52691e-18
3.0435e-18
-9.95054e-18
-1.28005e-12
-3.25252e-10
2.96656e-24
-4.64069e-09
4.59973e-09
1.73146e-08
1.76743e-10
1.69766e-08
-1.01266e-08
-3.63399e-12
-9.16273e-09
4.75638e-13
-3.66628e-10
0
1.72447e-17
-3.68654e-12
-9.70137e-13
-1.51546e-17
0
-1.93168e-08
-3.59356e-11
0
-1.45954e-17
0
1.20994e-17
-9.8139e-34
3.21142e-18
-6.78136e-19
3.63964e-18
-2.01398e-17
5.19542e-18
5.96515e-24
0
-7.34914e-18
1.0938e-17
8.31671e-18
7.47603e-20
0
-1.96046e-18
-1.7006e-17
0
1.04618e-17
-1.29351e-12
0
1.60737e-08
4.02572e-18
2.90307e-17
1.14022e-17
-7.47234e-20
2.12416e-19
-2.66642e-17
-7.89619e-20
1.34135e-18
3.64576e-18
-9.1692e-18
1.05614e-19
9.54756e-18
-5.79815e-20
1.16417e-12
-1.90735e-08
0
-2.31789e-24
0
-2.00128e-17
1.32509e-17
1.15953e-19
-1.02641e-18
-1.36128e-17
1.51355e-33
-3.8749e-17
5.31931e-18
-1.49038e-19
-2.58712e-13
1.53606e-12
-1.07581e-09
0
1.71768e-08
4.86284e-20
-3.88048e-13
0
-1.09304e-08
7.45078e-20
1.59295e-19
6.52852e-18
1.59634e-17
-2.06851e-17
0
3.77571e-19
-9.54479e-18
0
0
0
0
0
0
6.1446e-17
9.91388e-18
1.96809e-17
-1.96723e-17
-9.93611e-18
6.28401e-34
1.38397e-17
1.09708e-17
2.50148e-17
-3.94251e-17
9.8057e-32
-1.92573e-17
-7.05674e-35
-3.18861e-18
-1.83331e-21
0
1.05342e-18
0
5.01968e-09
4.02743e-12
8.47345e-18
-7.50154e-22
-4.91019e-18
-9.68871e-18
8.64641e-18
-5.36423e-18
-3.2594e-12
-1.00357e-08
8.47521e-18
0
1.86533e-19
-9.68645e-18
1.03072e-17
6.06501e-18
-7.70682e-20
1.02188e-11
-1.71422e-10
-1.21229e-17
1.97921e-08
0
-1.10568e-12
9.47563e-17
7.79137e-20
-2.19023e-17
0
2.06306e-17
5.04239e-25
7.58816e-18
1.10488e-12
-1.33693e-17
-1.98251e-17
3.42071e-10
1.54409e-17
7.77856e-20
-1.23349e-17
1.93194e-17
-9.84588e-24
-9.83075e-12
-7.1973e-18
-2.02277e-08
0
1.15878e-16
7.59765e-20
-2.53704e-19
-4.98005e-12
0
2.7374e-18
-1.96089e-08
-7.99944e-20
1.55222e-12
2.63554e-12
-7.13481e-34
-1.00729e-09
1.78194e-08
1.55367e-19
1.49537e-18
1.21322e-18
-5.12081e-18
1.77523e-17
-7.59248e-20
0
-1.45037e-18
3.96939e-18
8.19074e-18
-7.99572e-20
-1.93782e-18
1.28221e-18
6.55671e-18
-4.99869e-19
2.74702e-24
1.76242e-12
-3.41789e-34
1.56015e-08
-7.79941e-20
-1.29305e-18
4.84921e-18
-8.5834e-09
-3.62665e-25
0
-3.50921e-20
6.46753e-14
-6.30595e-13
0
1.29861e-10
3.04336e-09
2.06582e-24
-1.84943e-24
-7.4377e-13
-9.44542e-19
2.74903e-18
0
0
0
0
0
0
0
0
0
0
0
0
0
0
2.77188e-17
1.44424e-18
6.1162e-17
-1.39919e-19
-2.93054e-17
-4.49746e-18
2.05533e-19
-3.29998e-25
-1.67311e-17
-4.10986e-09
2.30045e-17
-8.96682e-09
-6.32273e-34
1.94675e-17
-1.928e-17
1.24822e-19
-2.13431e-12
-1.66541e-12
7.77139e-18
-7.736e-20
-1.29344e-13
-2.89425e-12
1.36904e-10
0
1.30255e-08
-1.51898e-08
-7.18383e-20
4.90099e-09
1.43959e-17
0
1.2073e-12
-1.57102e-17
0
1.88563e-08
-1.9449e-08
-1.54711e-19
-2.42473e-18
2.92266e-18
6.24157e-20
-1.38439e-18
-7.22276e-19
6.61405e-18
-8.56106e-18
-2.66511e-17
-3.96763e-18
-8.97528e-18
-1.6419e-17
1.43521e-19
-1.21538e-12
7.19775e-18
-9.80137e-09
-1.80935e-17
7.83296e-20
-5.75619e-12
5.07686e-09
-4.85125e-18
-7.31649e-10
0
3.82949e-12
4.73944e-17
7.74717e-20
2.54154e-18
0
-6.76627e-22
-5.71984e-26
-2.61295e-18
-3.82801e-12
-3.83234e-18
2.5499e-17
-1.01519e-08
6.39523e-18
0
-5.21124e-18
6.53501e-20
-4.80904e-20
5.93628e-18
-1.08332e-12
-8.14397e-18
0
-8.20545e-09
-7.42143e-20
2.55874e-17
0
-2.81959e-17
4.8101e-20
1.90127e-18
2.46197e-18
-1.07475e-17
-7.01837e-18
0
1.02276e-17
-3.846e-17
0
0
4.15643e-16
7.25328e-18
7.51172e-34
-1.02292e-17
2.5077e-18
-5.03193e-26
0
-1.35282e-34
3.67017e-24
0
6.13813e-34
0
0
0
0
0
0
0
1.93533e-17
1.23596e-34
1.1232e-17
1.12279e-17
1.96671e-17
1.73023e-19
1.12317e-17
-1.98193e-17
-2.64025e-34
4.39844e-18
-2.00118e-17
-6.55958e-25
-5.6834e-18
-4.64061e-09
4.59929e-09
1.73139e-08
-7.20868e-12
1.69776e-08
-1.88701e-17
-1.01266e-08
-3.51271e-12
-9.16263e-09
2.64931e-18
1.92413e-17
-2.73437e-34
-4.1684e-18
-7.36331e-16
2.42545e-13
-2.58704e-12
-1.60071e-08
-1.12833e-11
-1.68249e-08
-1.87796e-08
-1.47072e-18
4.15845e-18
2.60425e-18
-2.79687e-18
-4.71434e-19
-8.54307e-18
4.88235e-18
9.84079e-18
8.985e-18
7.47621e-20
0
-5.00826e-18
-3.11085e-18
0
1.27413e-17
1.00013e-17
0
-5.81272e-16
2.18209e-17
1.55422e-18
7.748e-20
0
1.34823e-17
1.45263e-17
-1.9948e-17
-1.46302e-17
1.24712e-17
1.8739e-34
-1.58639e-17
-6.62402e-18
0
4.42427e-18
-5.21706e-18
-4.87352e-18
8.2913e-20
2.11472e-19
-7.74383e-20
1.71798e-17
3.58821e-18
-5.40804e-18
-9.77595e-18
7.56622e-20
-2.62523e-19
-1.18426e-18
0
2.78536e-16
2.65663e-15
7.56357e-20
-4.92672e-18
-1.2178e-18
-8.05451e-18
-2.42676e-17
7.45191e-20
-4.52731e-13
9.05471e-13
-1.07522e-09
0
1.74824e-08
0
-1.94025e-13
1.56524e-19
-3.12062e-12
-7.11423e-13
0
-1.09269e-08
0
-1.90742e-08
-1.75907e-08
-1.5943e-33
-2.66134e-18
3.81738e-18
3.83168e-18
-3.62609e-17
4.863e-20
4.04151e-19
1.56504e-19
-1.67098e-18
3.98774e-18
-6.23209e-18
1.41173e-18
-1.46619e-17
5.79852e-20
0
5.7979e-20
0
0
0
0
0
0
0
0
0
0
0
2.49703e-17
-2.94136e-34
1.69998e-19
5.51043e-18
1.99668e-17
6.8183e-19
-4.31023e-17
-9.17021e-18
6.01852e-34
2.8541e-17
2.00959e-17
2.20197e-17
-4.9991e-17
0
-3.35019e-17
-2.19899e-12
-4.01098e-10
9.69629e-18
-2.91043e-12
1.68837e-08
-1.46948e-17
2.29334e-17
-5.50424e-18
1.11276e-17
1.57983e-17
-3.46144e-18
2.07633e-17
-4.83465e-18
0
4.86405e-18
-2.91748e-17
6.37453e-24
-9.31134e-25