/*--------------------------------*- C++ -*----------------------------------*\
| =========                 |                                                 |
| \\      /  F ield         | OpenFOAM: The Open Source CFD Toolbox           |
|  \\    /   O peration     | Version:  5.x                                   |
|   \\  /    A nd           | Web:      www.OpenFOAM.org                      |
|    \\/     M anipulation  |                                                 |
\*---------------------------------------------------------------------------*/
FoamFile
{
    version     2.0;
    format      ascii;
    class       volScalarField;
    location    "1.3";
    object      nut;
}
// * * * * * * * * * * * * * * * * * * * * * * * * * * * * * * * * * * * * * //

dimensions      [0 2 -1 0 0 0 0];

internalField   nonuniform List<scalar> 
12160
(
9.85596e-10
9.79451e-10
1.44019e-07
9.96699e-10
2.00552e-07
2.00461e-07
1.01847e-09
6.82071e-08
2.30055e-07
9.46654e-08
1.05238e-09
4.45926e-08
8.37521e-08
8.42521e-08
6.39373e-08
1.06517e-09
5.43005e-08
4.51392e-08
6.78703e-08
5.63236e-08
2.42663e-08
1.0666e-09
1.12342e-07
4.54813e-08
4.41251e-08
7.4859e-08
3.62628e-08
2.11988e-08
1.049e-09
1.20258e-07
5.84259e-08
4.25155e-08
4.25196e-08
1.01781e-07
1.67524e-08
4.95444e-09
1.02402e-09
6.00888e-08
5.79112e-08
5.38706e-08
3.39885e-08
5.66273e-08
3.18028e-08
5.43218e-09
5.78439e-09
1.00068e-09
4.87167e-08
4.52103e-08
4.98357e-08
3.59606e-08
3.60321e-08
3.51294e-08
1.18047e-08
6.54117e-09
7.59276e-09
9.87831e-10
5.69718e-08
3.94836e-08
4.02663e-08
3.32226e-08
2.8734e-08
2.67376e-08
1.27321e-07
5.05485e-09
2.01095e-08
6.16237e-09
9.90108e-10
8.17298e-08
4.20526e-08
3.61503e-08
2.862e-08
2.52288e-08
2.71263e-08
4.74229e-08
7.1812e-09
9.74022e-09
3.74887e-09
6.02226e-09
1.01215e-09
5.22205e-08
5.19492e-08
3.65474e-08
2.57759e-08
2.40593e-08
2.55224e-08
2.59336e-08
1.12419e-08
1.05712e-08
2.7279e-09
3.52176e-09
4.31896e-09
1.05776e-09
2.7693e-08
4.26531e-08
3.64248e-08
2.50923e-08
2.30708e-08
1.91013e-08
1.7435e-08
2.65709e-08
1.06528e-08
1.16035e-08
3.97151e-09
4.71383e-09
3.40409e-09
1.13011e-09
1.82852e-08
2.60509e-08
2.8718e-08
2.54097e-08
2.24195e-08
1.57558e-08
1.03214e-08
3.99243e-08
1.19812e-08
7.52422e-09
7.55906e-09
8.83814e-09
8.88059e-09
3.54858e-09
1.23495e-09
1.39771e-08
1.80377e-08
2.0415e-08
2.26735e-08
2.09173e-08
1.47202e-08
7.28856e-09
1.405e-08
1.31733e-08
5.72936e-09
8.26527e-09
1.1823e-08
1.1644e-08
1.32611e-08
1.38121e-09
1.17086e-08
1.39979e-08
1.51871e-08
1.80317e-08
1.80853e-08
1.50267e-08
5.8133e-09
8.12188e-09
1.42608e-08
5.27571e-09
1.017e-08
1.12226e-08
1.16462e-08
1.22282e-08
1.58387e-09
1.04262e-08
1.17999e-08
1.22639e-08
1.45014e-08
1.51012e-08
1.47553e-08
5.15191e-09
5.58594e-09
1.23668e-08
5.18379e-09
6.3727e-09
5.43187e-09
2.68828e-08
1.93701e-08
1.86904e-09
9.67886e-09
1.05471e-08
1.05988e-08
1.21937e-08
1.24358e-08
1.28268e-08
4.79004e-09
4.27278e-09
7.99006e-09
5.97782e-09
4.22648e-09
4.35777e-09
1.07584e-08
3.38442e-08
2.28497e-09
9.24348e-09
9.81977e-09
9.63456e-09
1.07851e-08
1.05786e-08
1.06449e-08
4.56719e-09
3.54419e-09
5.15646e-09
7.8673e-09
3.23066e-09
3.85748e-09
9.8362e-09
1.30124e-08
2.9283e-09
8.99405e-09
9.40225e-09
9.07859e-09
9.96573e-09
9.42089e-09
9.40928e-09
4.50351e-09
3.08146e-09
3.79181e-09
1.02866e-08
2.68706e-09
3.58787e-09
1.04159e-08
1.2925e-08
4.00908e-09
8.8529e-09
9.16991e-09
8.77042e-09
9.51559e-09
8.76142e-09
8.84248e-09
4.5593e-09
2.76767e-09
3.145e-09
1.08436e-08
2.31523e-09
3.47054e-09
1.83046e-08
1.5727e-08
5.95733e-09
8.76856e-09
9.04305e-09
8.61175e-09
9.29908e-09
8.39438e-09
8.64364e-09
4.66169e-09
2.53078e-09
2.81786e-09
1.03019e-08
1.90061e-09
3.37787e-09
1.64949e-08
3.04452e-08
8.44685e-09
8.70636e-09
8.96778e-09
8.53706e-09
9.22369e-09
8.20545e-09
8.67369e-09
4.78496e-09
2.32114e-09
2.73638e-09
9.53671e-09
1.43962e-09
3.22509e-09
7.37273e-09
9.84947e-09
7.22726e-09
8.64369e-09
8.91038e-09
8.4997e-09
9.22228e-09
8.12831e-09
8.85313e-09
4.95319e-09
2.13656e-09
2.87332e-09
6.07082e-09
1.08622e-09
3.10637e-09
5.5313e-09
5.46647e-09
4.82121e-09
8.57156e-09
8.84821e-09
8.46781e-09
9.24351e-09
8.11361e-09
9.11576e-09
5.20026e-09
2.00847e-09
3.20753e-09
3.44406e-09
8.98225e-10
3.33282e-09
5.56341e-09
4.36046e-09
3.42884e-09
8.4977e-09
8.77136e-09
8.41906e-09
9.25044e-09
8.12021e-09
9.40064e-09
5.58556e-09
1.98401e-09
3.70854e-09
1.89201e-09
9.33246e-10
3.89365e-09
6.61401e-09
5.95928e-09
2.63046e-09
8.43354e-09
8.68892e-09
8.34316e-09
9.21457e-09
8.11906e-09
9.65333e-09
6.198e-09
2.12299e-09
3.95389e-09
1.26503e-09
1.08466e-09
5.06251e-09
8.82545e-09
6.81445e-09
2.1304e-09
8.39701e-09
8.61379e-09
8.25e-09
9.12193e-09
8.08651e-09
9.82126e-09
7.15939e-09
2.48059e-09
3.60021e-09
1.28143e-09
1.33151e-09
7.2711e-09
1.29333e-08
9.10397e-09
1.79367e-09
8.41356e-09
8.56331e-09
8.15462e-09
8.98871e-09
8.00565e-09
9.85748e-09
8.49324e-09
3.05778e-09
3.12737e-09
1.48585e-09
1.73032e-09
1.07206e-08
2.02319e-08
1.34123e-08
1.55507e-09
8.50918e-09
8.56141e-09
8.07562e-09
8.8367e-09
7.89192e-09
9.72684e-09
9.66148e-09
3.77632e-09
2.82662e-09
1.84067e-09
2.36554e-09
1.51146e-08
3.47682e-08
2.1422e-08
1.38007e-09
8.71615e-09
8.63667e-09
8.03654e-09
8.69047e-09
7.76609e-09
9.47062e-09
9.54717e-09
4.33223e-09
2.68305e-09
2.46653e-09
3.38346e-09
2.05054e-08
7.14429e-08
3.78404e-08
1.24893e-09
9.07781e-09
8.82234e-09
8.06122e-09
8.57806e-09
7.64791e-09
9.13642e-09
8.36014e-09
4.20432e-09
2.59417e-09
3.54001e-09
5.21503e-09
2.7455e-08
2.27234e-07
7.69934e-08
1.14964e-09
9.65574e-09
9.15928e-09
8.17569e-09
8.52648e-09
7.55977e-09
8.76751e-09
7.16602e-09
3.58086e-09
2.59006e-09
5.10605e-09
9.00494e-09
3.52403e-08
3.04672e-07
2.01776e-07
1.07453e-09
1.05467e-08
9.70368e-09
8.41074e-09
8.56168e-09
7.52206e-09
8.40823e-09
6.31372e-09
2.93852e-09
2.63895e-09
4.65022e-09
2.46796e-08
4.27276e-08
1.72216e-07
5.66749e-07
1.01853e-09
1.19155e-08
1.0541e-08
8.80608e-09
8.71097e-09
7.55185e-09
8.0895e-09
5.74973e-09
2.4498e-09
2.73274e-09
3.14565e-09
1.73334e-08
4.04281e-08
1.26356e-07
6.05706e-07
9.7824e-10
1.4069e-08
1.18065e-08
9.41713e-09
9.00475e-09
7.66644e-09
7.83646e-09
5.37335e-09
2.14373e-09
2.94661e-09
2.29611e-09
7.07164e-09
3.59512e-08
8.53544e-08
3.96433e-07
9.51227e-10
1.7653e-08
1.37204e-08
1.0323e-08
9.47898e-09
7.88879e-09
7.66877e-09
5.1131e-09
1.99075e-09
3.24938e-09
1.78803e-09
4.41825e-09
2.96659e-08
6.44475e-08
1.81133e-07
9.35555e-10
2.40337e-08
1.66299e-08
1.16301e-08
1.01772e-08
8.25071e-09
7.60286e-09
4.92135e-09
1.95146e-09
3.41062e-09
1.49474e-09
3.01161e-09
2.36041e-08
5.74528e-08
1.09166e-07
9.30484e-10
3.48325e-08
2.08934e-08
1.34586e-08
1.11295e-08
8.79102e-09
7.65551e-09
4.76662e-09
1.98938e-09
3.23699e-09
1.32118e-09
2.19973e-09
1.87808e-08
5.06616e-08
8.31309e-08
4.52685e-08
9.45563e-10
2.62607e-08
1.5817e-08
1.23013e-08
9.52169e-09
7.85101e-09
4.63365e-09
2.07342e-09
2.90081e-09
1.25755e-09
1.68341e-09
1.4819e-08
5.18737e-08
7.26567e-08
2.81999e-08
2.62041e-08
1.00925e-09
1.80119e-08
1.35142e-08
1.03741e-08
8.23036e-09
4.52113e-09
2.18192e-09
2.6218e-09
1.53564e-09
1.34768e-09
1.1568e-08
6.16471e-08
7.66091e-08
1.90494e-08
2.00211e-08
1.36203e-08
1.1416e-09
1.46564e-08
1.12366e-08
8.8102e-09
4.42191e-09
2.30117e-09
2.43981e-09
2.42104e-09
1.12711e-09
8.68549e-09
7.84387e-08
1.06591e-07
1.50362e-08
1.67083e-08
1.21177e-08
9.50863e-09
1.32626e-09
1.17932e-08
9.49063e-09
4.33751e-09
2.42491e-09
2.3575e-09
3.99134e-09
9.80407e-10
6.33385e-09
6.85325e-08
2.2689e-07
1.21229e-08
1.31464e-08
1.17131e-08
8.9037e-09
6.61962e-09
1.85522e-09
1.02837e-08
4.28605e-09
2.56064e-09
2.37199e-09
6.32457e-09
8.77156e-10
4.64634e-09
3.94389e-08
9.86675e-08
1.06242e-08
1.15094e-08
1.00272e-08
9.14578e-09
6.8991e-09
5.23209e-09
1.69676e-09
4.34429e-09
2.72909e-09
2.48669e-09
7.61037e-09
8.27882e-10
3.58342e-09
2.32623e-08
4.07938e-08
4.56203e-09
9.56314e-09
9.59186e-09
8.4818e-09
7.94493e-09
5.5229e-09
2.98563e-09
1.66972e-09
2.95867e-09
2.69782e-09
8.30612e-09
8.95181e-10
2.93994e-09
1.4773e-08
2.25883e-08
3.31879e-09
4.60213e-09
7.58451e-09
8.67287e-09
8.27527e-09
6.61197e-09
4.24604e-09
3.25255e-09
8.80534e-10
2.98978e-09
9.00955e-09
1.09319e-09
2.56229e-09
9.97786e-09
1.41941e-08
3.40439e-09
3.78013e-09
4.45607e-09
6.8111e-09
8.97599e-09
8.40914e-09
6.94363e-09
4.15917e-09
2.70109e-09
5.26109e-10
9.05821e-09
1.36385e-09
2.38287e-09
7.17039e-09
9.71083e-09
9.03566e-09
4.08834e-09
4.62593e-09
4.81105e-09
7.13183e-09
1.11723e-08
1.17744e-08
6.68077e-09
6.33684e-09
6.6889e-09
3.07811e-10
1.65622e-09
2.31992e-09
5.52028e-09
7.10336e-09
1.96381e-09
9.60828e-09
6.07298e-09
7.3427e-09
6.2293e-09
9.39992e-09
1.87719e-08
7.68176e-09
2.08741e-08
2.81669e-08
4.61257e-09
4.4964e-10
2.34782e-09
4.72042e-09
5.60676e-09
2.37377e-09
2.18835e-09
9.83738e-09
8.05892e-09
1.17142e-08
9.31372e-09
2.74885e-08
8.14034e-09
1.74123e-08
8.11761e-08
3.5618e-08
1.2066e-08
4.04358e-09
1.78257e-10
4.40747e-09
4.85547e-09
5.25892e-09
2.77846e-09
2.43094e-09
5.5405e-09
8.71318e-09
7.23093e-09
3.3591e-08
1.22872e-08
9.49135e-09
7.69627e-08
6.33869e-08
5.04302e-08
1.46798e-08
7.66472e-09
1.80061e-09
1.75561e-10
4.67184e-09
3.4281e-09
5.63516e-09
3.94793e-09
2.95337e-09
4.39851e-09
1.04498e-08
5.04319e-09
2.02211e-08
7.31215e-09
2.6028e-08
6.0464e-08
9.60458e-08
2.68588e-08
1.32492e-08
6.72523e-09
4.605e-09
2.08654e-09
1.68146e-10
3.79704e-09
7.01996e-09
4.71872e-09
4.25365e-09
5.91815e-09
1.24702e-08
4.17487e-09
8.90688e-09
9.23565e-09
4.3882e-08
9.36926e-08
2.24916e-08
1.25406e-08
8.70551e-09
7.54437e-09
6.35471e-09
5.10163e-09
2.90045e-09
1.66042e-10
4.90873e-09
1.73679e-08
4.9123e-09
6.9105e-09
5.55164e-09
1.22879e-08
3.81689e-09
5.85918e-09
1.69112e-08
7.44918e-08
1.20655e-08
1.1266e-08
9.60376e-09
8.38197e-09
1.25376e-08
1.05037e-08
9.10851e-09
6.59359e-09
4.44924e-09
1.66679e-10
1.00914e-08
1.62261e-08
4.95421e-09
9.87139e-09
3.52358e-09
1.09949e-08
3.88913e-09
4.5881e-09
4.01619e-08
7.89433e-09
1.00694e-08
8.4456e-09
9.11071e-09
9.96535e-09
2.39703e-08
2.26365e-08
1.64814e-08
1.31209e-08
9.50696e-09
6.21105e-09
1.69633e-10
2.93382e-08
1.12583e-08
5.61599e-09
9.26003e-09
2.52295e-09
9.36066e-09
3.45471e-09
1.06976e-08
9.44211e-09
9.77134e-09
9.19141e-09
8.6431e-09
1.06671e-08
1.26312e-08
1.30545e-09
4.04513e-08
1.30514e-09
1.19531e-09
1.19518e-09
3.05788e-08
2.45036e-08
2.31493e-08
1.39382e-08
6.55846e-09
1.76592e-10
1.45936e-08
1.13924e-08
7.66337e-09
6.52605e-09
2.04025e-09
6.41543e-09
3.4385e-09
6.26297e-09
8.52734e-09
1.11856e-08
7.38548e-09
1.11693e-08
1.06438e-08
2.15485e-08
1.80142e-09
1.74303e-09
4.51669e-08
1.80117e-09
2.13093e-09
2.1296e-09
1.74242e-09
1.4831e-09
1.48303e-09
3.21439e-08
2.89944e-08
3.37962e-08
1.78974e-08
6.26206e-09
1.838e-10
1.3071e-08
1.50929e-08
1.3524e-08
6.75057e-09
1.56135e-09
4.00435e-09
4.77365e-09
5.76715e-09
8.11879e-09
7.92616e-09
1.04929e-08
1.23318e-08
1.39511e-08
1.21776e-09
1.22011e-09
1.1528e-09
1.15294e-09
2.27832e-09
2.13385e-09
5.00152e-08
5.54703e-08
2.27915e-09
3.02052e-09
3.02094e-09
2.13411e-09
1.83956e-09
1.84049e-09
3.81168e-08
3.61292e-08
4.33348e-08
2.13022e-08
5.95097e-09
1.9402e-10
1.72479e-08
2.5448e-08
4.1608e-08
6.86689e-09
1.12226e-09
2.81008e-09
5.37452e-09
5.0535e-09
8.81117e-09
8.17558e-09
1.12392e-08
1.29255e-08
9.27958e-10
9.27622e-10
9.66676e-10
9.67005e-10
1.43473e-09
1.43649e-09
1.30168e-09
1.30251e-09
2.83657e-09
1.54083e-08
1.2995e-09
9.37224e-09
1.20794e-09
8.34219e-08
1.5767e-07
8.41207e-09
8.31078e-09
5.9852e-09
5.97445e-09
2.83899e-09
3.5972e-09
3.59781e-09
1.36173e-08
1.30385e-09
9.03696e-09
1.21976e-09
1.77785e-08
1.06099e-09
1.21606e-08
1.03336e-09
1.5771e-08
1.05936e-09
1.23783e-08
1.04138e-09
4.38262e-08
3.95507e-08
4.27735e-08
2.55854e-08
5.86567e-09
2.09077e-10
3.3907e-08
6.39587e-08
2.43843e-08
7.02778e-09
9.65606e-10
2.41358e-09
5.3259e-09
8.32481e-09
7.20832e-09
1.01141e-08
1.42986e-08
8.25407e-10
8.24841e-10
8.27206e-10
8.27491e-10
1.12518e-09
1.12487e-09
1.10827e-09
1.10937e-09
8.53964e-10
1.17287e-09
8.0593e-09
8.34458e-10
9.53893e-09
8.30925e-09
1.17105e-09
8.67607e-10
7.14223e-09
8.41489e-10
8.8047e-09
8.39795e-09
7.84946e-10
7.90973e-09
7.7187e-10
8.11595e-09
7.8574e-10
7.81798e-09
7.74147e-10
7.87886e-09
1.14992e-08
1.62314e-09
1.1209e-08
1.5796e-09
1.18005e-08
1.3979e-09
1.01102e-08
1.34672e-09
2.41136e-07
4.02064e-07
1.30193e-08
1.22693e-08
1.24036e-08
1.21289e-08
1.24536e-08
1.25586e-08
1.04023e-08
1.0367e-08
9.86051e-09
1.63905e-09
1.04573e-08
1.61586e-09
1.36993e-08
2.15607e-09
1.38356e-08
2.038e-09
1.2216e-08
2.15685e-09
1.38984e-08
2.07382e-09
1.07722e-08
1.39526e-09
1.01496e-08
1.35831e-09
1.28367e-08
1.1659e-09
1.19755e-08
1.17268e-09
9.57315e-08
5.66251e-08
5.15808e-08
3.05634e-08
5.64188e-09
2.27539e-10
1.04356e-07
4.58044e-08
1.0622e-08
3.12207e-09
1.56046e-09
1.03939e-08
1.46344e-08
2.23901e-08
1.93481e-08
4.00147e-08
8.03325e-10
8.0019e-10
4.52139e-09
4.54258e-09
1.05508e-09
1.05687e-09
1.28021e-09
1.30012e-09
6.8149e-10
6.32488e-09
6.73148e-10
7.50619e-09
6.79331e-10
6.45764e-09
6.70179e-10
7.71558e-09
7.01582e-10
5.63333e-09
6.7922e-10
5.75967e-09
6.99025e-10
5.70132e-09
6.75934e-10
5.95681e-09
1.28148e-09
8.861e-10
8.06422e-09
7.97042e-09
8.61231e-10
8.91333e-09
1.27676e-09
8.95222e-10
8.12208e-09
7.50856e-09
8.66946e-10
8.37378e-09
8.16404e-10
7.54057e-09
8.15559e-10
8.04803e-09
8.18012e-10
7.34319e-09
8.18527e-10
7.72065e-09
1.33244e-08
1.69242e-09
1.21976e-08
1.74912e-09
1.49213e-08
1.51866e-09
1.00718e-08
1.39224e-09
1.42694e-06
3.96168e-06
3.94553e-07
2.84267e-07
4.33414e-08
3.55038e-08
1.33916e-08
1.39582e-08
1.10721e-08
1.13841e-08
4.2055e-08
9.18776e-09
1.25944e-08
9.13434e-09
3.93516e-08
9.17488e-09
1.28009e-08
9.4203e-09
4.09037e-09
2.54757e-09
1.99256e-08
6.0599e-09
1.02642e-08
9.39903e-09
4.04567e-09
2.52454e-09
2.20366e-08
6.139e-09
1.06263e-08
1.03332e-08
1.16548e-08
1.69976e-09
1.17336e-08
1.77989e-09
1.46911e-08
2.19108e-09
1.32908e-08
2.23315e-09
1.30157e-08
1.52399e-09
9.80847e-09
1.40685e-09
1.43456e-08
1.24546e-09
1.27919e-08
1.25563e-09
5.59673e-07
8.63103e-08
6.17045e-08
3.65051e-08
5.48654e-09
2.55514e-10
4.82229e-08
1.37248e-08
9.40705e-09
2.55643e-09
4.6759e-08
8.91747e-08
2.09849e-07
4.86832e-07
1.90367e-06
1.15826e-07
1.16169e-07
1.13892e-06
1.13899e-06
5.11455e-09
5.11538e-09
5.20592e-08
5.13263e-08
6.48693e-10
4.99144e-09
6.92995e-10
5.97733e-09
6.46944e-10
5.12813e-09
6.94155e-10
6.16496e-09
2.97908e-09
2.10629e-08
1.11863e-09
8.46818e-09
2.99524e-09
2.25729e-08
1.12896e-09
9.15552e-09
7.29778e-10
6.10107e-09
7.24318e-10
5.87428e-09
7.27452e-10
6.21183e-09
7.20582e-10
6.09498e-09
7.20417e-10
4.71835e-09
7.18181e-10
4.82479e-09
7.18054e-10
4.79735e-09
7.15079e-10
4.96425e-09
1.21619e-08
1.85353e-09
1.12603e-08
1.82858e-09
1.18169e-05
3.08828e-05
2.07577e-05
1.51633e-05
3.12232e-06
2.23624e-06
1.28373e-06
1.05149e-06
5.16298e-08
5.23057e-08
6.18948e-09
1.46789e-08
6.10863e-09
1.63037e-08
6.78504e-09
1.65184e-08
6.39103e-09
1.65639e-08
9.79133e-09
1.44636e-08
6.66507e-09
1.53548e-08
9.48937e-09
1.41657e-08
6.67658e-09
1.47457e-08
1.20892e-08
1.58244e-08
1.58445e-08
1.63611e-08
1.23748e-08
1.67324e-08
1.74034e-08
1.77946e-08
2.57694e-09
4.55967e-09
2.38176e-08
9.42013e-09
5.44037e-09
1.06912e-08
2.56295e-09
4.56676e-09
2.63529e-08
1.00005e-08
5.50093e-09
1.0718e-08
1.08717e-08
1.86197e-09
1.08322e-08
1.86119e-09
1.61418e-08
2.27891e-09
1.43032e-08
2.33115e-09
1.40481e-06
6.78904e-08
8.12783e-08
3.81489e-08
5.13509e-09
2.90493e-10
2.33263e-08
7.00959e-09
5.33817e-09
2.58081e-08
1.53996e-06
1.26112e-06
4.89176e-06
5.25802e-05
0.000177486
5.93568e-07
5.88349e-07
3.49378e-06
3.4874e-06
4.82701e-08
4.78954e-08
3.9589e-07
3.94637e-07
7.35985e-10
4.24829e-09
9.35828e-10
5.35531e-09
7.35803e-10
4.35214e-09
9.42077e-10
5.53005e-09
6.03448e-09
3.42771e-08
1.90955e-09
1.01835e-08
6.05471e-09
3.56602e-08
1.93048e-09
1.07502e-08
7.4506e-10
4.45611e-09
7.42737e-10
4.52505e-09
2.72431e-05
0.000286427
0.00034553
0.000336636
8.25545e-05
6.11574e-05
0.000279927
0.000217583
2.00847e-05
1.62957e-05
4.57156e-06
2.77797e-05
2.87655e-07
3.12123e-06
3.63551e-06
3.14225e-05
2.44534e-07
3.25219e-06
9.43168e-09
1.43706e-08
2.35925e-08
5.12285e-08
1.02134e-08
1.7905e-08
2.70707e-08
6.45229e-08
7.36034e-09
1.50611e-08
6.86419e-09
1.27579e-08
7.98853e-09
1.20054e-08
7.30488e-09
1.13784e-08
8.29698e-09
1.71611e-08
7.51702e-09
1.39746e-08
8.35046e-09
1.71729e-08
7.68226e-09
1.32347e-08
6.43697e-07
7.31853e-08
1.00872e-07
3.62603e-08
4.27826e-09
3.35781e-10
1.03415e-08
4.5461e-09
2.61e-09
5.09065e-07
6.69656e-05
4.44502e-05
0.000406024
0.000922538
0.000161724
0.000161272
0.00069648
0.00069587
3.51563e-06
3.49982e-06
2.35791e-05
2.34353e-05
5.65563e-07
4.93614e-08
2.25828e-07
1.11357e-07
5.56638e-07
4.89769e-08
2.26872e-07
1.10924e-07
2.79204e-06
1.19409e-06
5.74779e-06
4.63913e-07
2.73475e-06
1.17455e-06
5.88503e-06
4.60997e-07
8.13121e-10
4.6885e-09
1.22955e-09
7.12573e-09
8.13191e-10
4.8218e-09
1.23762e-09
7.28014e-09
1.28471e-08
5.18301e-08
3.0963e-09
1.64171e-08
1.27504e-08
5.37032e-08
3.09847e-09
1.749e-08
1.3526e-05
0.000460388
0.00108107
0.00114052
0.00110599
0.000966858
0.000884589
0.00104299
0.000964768
0.000199171
0.000176973
1.0165e-05
5.47313e-05
6.24461e-07
2.82409e-06
8.25098e-06
5.34116e-05
5.02111e-07
2.07814e-06
1.26928e-08
2.19246e-08
4.47461e-08
6.04213e-08
1.37732e-08
1.69496e-08
5.15432e-08
3.84801e-08
7.73935e-09
1.36434e-08
8.46761e-09
1.15988e-08
4.15139e-07
7.86645e-08
8.26852e-08
1.80651e-08
2.15588e-09
4.0247e-10
5.80614e-09
3.25782e-09
4.35511e-09
7.84118e-06
0.000779867
0.00105351
0.00120538
0.000811381
0.000624513
0.000621457
0.00089652
0.000895884
5.97349e-06
4.34141e-05
0.000286312
2.44914e-05
5.89095e-06
4.37678e-05
0.000283037
2.43126e-05
0.000408476
0.000406771
8.21629e-07
9.2295e-08
2.95011e-07
2.83147e-07
7.85898e-07
9.14981e-08
2.90227e-07
2.79968e-07
3.61354e-06
3.50364e-06
1.23547e-05
1.11359e-06
3.52157e-06
3.43564e-06
1.26087e-05
1.10224e-06
2.55838e-08
9.40504e-08
2.52888e-08
9.64006e-08
7.47195e-06
0.000176865
0.00109529
0.00130783
0.00120569
0.00134549
0.00126061
0.0013433
0.00130632
0.00127275
0.00120547
0.00122243
0.00143399
0.00121808
0.00145184
0.00122325
0.00135014
0.00123011
0.0013611
0.000814658
0.00050703
0.000850105
0.00059894
0.000819012
0.00047451
0.000841818
0.000620803
3.95407e-05
0.000187188
2.43932e-06
7.87748e-06
3.42192e-05
0.000144599
2.22548e-06
5.98543e-06
2.22285e-08
2.71747e-08
1.16844e-07
1.20557e-07
2.53131e-08
2.00287e-08
1.42303e-07
7.54071e-08
9.52237e-08
7.25701e-08
1.91084e-08
2.03914e-09
3.01438e-10
3.41374e-09
2.84809e-09
9.79924e-08
0.000112415
0.000854343
0.00122157
0.00115976
0.0028856
0.00288556
0.0034514
0.0034524
0.00222955
0.00172322
0.00218127
0.00202298
0.00223063
0.00172336
0.00218242
0.00202249
0.00236119
0.00236144
1.35811e-05
9.14871e-05
0.000333868
5.06933e-05
1.33449e-05
9.37194e-05
0.00033292
5.02005e-05
0.00175026
0.00127355
0.000968207
0.000812673
0.00175095
0.00127395
0.000968494
0.000813152
1.02593e-05
1.99211e-05
6.60733e-05
3.46986e-06
1.02588e-05
1.95744e-05
6.83009e-05
3.42257e-06
1.59185e-06
0.000138571
0.000975842
0.00114612
0.00121077
0.00116319
0.00113861
0.00110872
0.00121669
0.00119941
0.00127314
0.00116132
0.0012135
0.00119181
0.00122643
0.00117594
0.00122773
0.00118012
0.00130875
0.00141825
0.00128092
0.00152207
0.00131559
0.00136512
0.00129581
0.00146979
0.000989147
0.000720565
0.00106259
0.000840874
0.00100292
0.000677024
0.00106418
0.00084497
0.000159099
0.000455735
0.000143564
0.000394177
6.14422e-08
3.44056e-08
2.42093e-09
2.192e-10
2.313e-09
8.03403e-09
2.93375e-06
0.000586591
0.000926616
0.00145587
0.00140311
0.00140383
0.00122255
0.00121469
0.00232896
0.00232942
0.00212555
0.00212505
0.00195556
0.00176655
0.00199605
0.00200897
0.00195733
0.00176711
0.00199687
0.002009
0.00205837
0.00199623
0.00215271
0.00194733
0.00205827
0.00199697
0.00215231
0.00194766
0.000189293
0.000321311
0.000509385
0.000497251
0.000188105
0.000321564
0.000509932
0.000496562
0.00201833
0.00158524
0.00214233
0.00140655
0.0020194
0.00158586
0.00214108
0.00140684
5.06964e-07
3.56621e-05
0.00088839
0.00107106
0.00111861
0.00106218
0.00109112
0.00105738
0.0010061
0.000991625
0.000941082
0.00100507
0.000899101
0.00100828
0.000927158
0.00100974
0.000889105
0.001012
0.00101235
0.00106263
0.00108144
0.00112049
0.00119226
0.00118096
0.0010012
0.00106613
0.0010759
0.00112443
0.00118308
0.00119124
0.00124945
0.00119566
0.00121903
0.00120688
0.00138483
0.00134221
0.00137453
0.0014168
0.00138262
0.00130297
0.00137714
0.00137733
1.2261e-07
4.69603e-09
1.60694e-10
1.6455e-09
1.78827e-07
0.000138347
0.000817116
0.00121277
0.00175747
0.00203216
0.00203344
0.00199171
0.00199737
0.00151683
0.00178933
0.00198818
0.00135573
0.00195847
0.00198223
0.00179063
0.00151794
0.00198197
0.0019882
0.00135483
0.00196016
0.0019933
0.00178638
0.00154462
0.0017469
0.00197742
0.00178507
0.00155551
0.00174739
0.00181293
0.00172913
0.00183629
0.00185715
0.00181378
0.0017294
0.00183664
0.00185713
0.00188321
0.00177598
0.00188308
0.00177677
0.00117932
0.00170138
0.00117943
0.00170047
0.00191463
0.00164126
0.00191546
0.00164153
5.00833e-08
1.77118e-05
0.000219896
0.000971704
0.001104
0.000997996
0.00115321
0.00107363
0.000881293
0.000858996
0.00090801
0.000894626
0.00095042
0.00089781
0.000959923
0.000951754
0.000967334
0.000940958
0.000951502
0.000884073
0.000957875
0.000943431
0.000970464
0.000932178
0.000937143
0.000981162
0.000924541
0.000983942
0.000994127
0.00104666
0.00106471
0.00112563
0.00111841
0.00116266
0.000981929
0.00104847
0.00105738
0.00111569
0.00111989
0.00116563
0.00121562
0.00126903
0.00119126
0.00127144
1.75863e-08
1.42587e-10
4.16776e-09
3.34464e-06
0.000586851
0.000921415
0.00158709
0.00195024
0.00195928
0.00194565
0.00195927
0.00197922
0.0019745
0.00192608
0.0019268
0.00160605
0.00140677
0.00182633
0.00186286
0.00164561
0.00173537
0.00160722
0.00140932
0.00186248
0.0018264
0.00164957
0.00173634
0.00223397
0.00184531
0.00211665
0.00181095
0.00224957
0.00184903
0.00215023
0.00181569
0.00177535
0.0018142
0.00177575
0.00181405
2.72049e-08
1.8627e-07
3.33133e-05
0.0008313
0.000985677
0.000947923
0.000896428
0.000911257
0.000876651
0.000709384
0.000872734
0.000724129
0.00080154
0.000692893
0.000867313
0.000711264
0.000800079
0.000837348
0.000928309
0.000858944
0.000765605
0.000819711
0.000923241
0.000825101
0.000917207
0.000858449
0.000753152
0.000818612
0.000923051
0.000956947
0.000971491
0.000971126
0.000957822
0.000957269
0.000972659
0.000962031
0.000946124
0.000963497
0.0010206
0.000948948
0.00102119
0.00101262
0.00109177
0.0011202
0.0011954
0.000999895
0.0010918
0.00111244
0.00119553
1.9604e-10
1.93524e-07
0.000105729
0.000700255
0.00123886
0.00174627
0.00127851
0.00128789
0.00126067
0.00127446
0.00154937
0.0018734
0.00168903
0.00162576
0.00154934
0.00188795
0.00168949
0.00163196
0.00130233
0.00130285
0.00209122
0.00180396
0.0022426
0.00187789
0.00211313
0.00180653
0.00228221
0.001882
4.89774e-10
5.34398e-08
1.28113e-06
0.000114304
0.000893258
0.000956922
0.00090556
0.000958325
0.000924225
0.000829492
0.000804935
0.000787812
0.000772484
0.000770592
0.000790537
0.000734562
0.000760543
0.000757515
0.000790543
0.000727905
0.000760942
0.000902989
0.000789847
0.000914931
0.000841641
0.000744475
0.000791771
0.000891686
0.000778342
0.000841193
0.000914711
0.000738073
0.000791777
0.00101531
0.00100288
0.00101541
0.000989946
6.03404e-06
0.000554946
0.00085486
0.0015174
0.000942124
0.000958992
0.00101309
0.00101981
0.000842124
0.00080183
0.000824457
0.000834233
0.00122601
0.00136746
0.00137087
0.00116305
0.00122369
0.00136116
0.00137078
0.00114532
0.000939636
0.000849122
0.000948626
0.000924545
0.000841833
0.000844397
0.000886085
0.00091956
0.00156537
0.0015045
0.0015698
0.00150599
2.01724e-09
3.20703e-07
9.11371e-06
0.000613893
0.000873809
0.000881721
0.000853997
0.000875408
0.000858502
0.000834954
0.00081793
0.000866344
0.000789718
0.000809617
0.000756855
0.000864394
0.000771527
0.000807382
0.000740384
0.000774676
0.00079808
0.00076439
0.000810126
0.000761406
0.000797411
0.000760091
0.00080946
0.000158269
0.000640345
0.0010457
0.00084821
0.000780799
0.000791863
0.000797733
0.000803998
0.000977616
0.000820546
0.000722331
0.00103469
0.000819633
0.00087215
0.00086294
0.0008142
0.000704255
0.000858673
0.000808017
0.000682327
0.00070653
0.000683168
0.00105948
0.00119877
0.00121878
0.0010197
0.00105678
0.00117704
0.00121954
0.000982083
0.000946907
0.000862269
0.000851832
0.00085598
9.84698e-09
1.82954e-06
5.68593e-05
0.000795492
0.000786404
0.000748153
0.000772876
0.000748015
0.000665613
0.000659654
0.000747556
0.0007384
0.000775147
0.000871816
0.000886579
0.000850737
0.000884882
0.000858436
0.000753111
0.000864052
0.000861133
0.000848144
0.000859384
0.000857049
0.00084771
0.000843983
0.000823546
0.000842748
0.000816667
0.00086214
0.000800108
0.000861043
0.000524427
0.000704876
0.000682241
0.000799642
0.000802399
0.000676006
0.000676952
0.000761542
0.000765354
0.000804384
0.000809977
0.0010778
0.000889136
0.00081946
0.00118669
0.000958102
0.000998182
0.000946939
0.000881875
0.000800505
0.00101616
0.000945236
0.000808578
0.000713873
0.000703492
0.000916625
0.000767828
0.000627621
0.000699918
0.000752762
0.000741751
4.62055e-08
9.2651e-06
0.000285191
0.000795273
0.000835162
0.000797446
0.000746682
0.00073138
0.00069566
0.000688137
0.000792334
0.000806391
0.000841597
0.000715631
0.000757882
0.000624833
0.000844583
0.000712155
0.000757545
0.000624675
0.000781682
0.000805059
0.000859507
0.000917475
0.000853761
0.000881555
0.000837408
0.000884389
0.000852557
0.000880323
0.000904442
0.000901135
0.000872261
0.000899521
0.00053058
0.000576857
0.000708635
0.000829798
0.000832347
0.000742173
0.000743397
0.000699211
0.000668899
0.000783579
0.000759217
0.000721892
0.000803052
0.000623409
0.000655778
0.000790063
0.000743513
0.000724201
0.000801249
0.000818944
0.000822737
0.000947252
0.00114165
0.000925921
0.000955361
0.000886367
0.000758812
0.000756794
0.000736293
2.1634e-07
4.28681e-05
0.000704629
0.000809245
0.000677256
0.00076696
0.000695656
0.000632436
0.000603811
0.000630527
0.00061782
0.000615522
0.00086916
0.000694664
0.000723196
0.000700317
0.000740331
0.000599977
0.000693819
0.000738995
0.000858561
0.000682321
0.000722349
0.000743229
0.000776705
0.000705402
0.000730822
0.000700483
0.000736878
0.000730327
0.000775711
0.000500797
0.000641327
0.000566866
0.00074961
0.000753154
0.000690961
0.000693788
0.000767339
0.000710789
0.000738351
0.000723573
0.000681967
0.000744949
0.000694963
0.000697097
0.000743425
0.00069907
0.000678142
0.000742531
0.000765784
0.000782019
0.000734626
0.000737566
0.000772176
0.000786126
0.000743627
0.000742343
0.000886353
0.000823669
0.000797658
0.000807607
1.01924e-06
0.000176747
0.000726822
0.00080383
0.000708593
0.000672478
0.000626288
0.000607335
0.000585086
0.00061422
0.000701757
0.000952403
0.00058603
0.000696797
0.000548339
0.000604205
0.000700036
0.00094749
0.000571891
0.000695377
0.000538234
0.000638708
0.000703267
0.000671808
0.000714525
0.000691612
0.000713985
0.000629145
0.000671393
0.000557762
0.000480286
0.000427961
0.000540221
0.000546774
0.000434908
0.000246615
0.00025109
0.000598645
0.000671991
0.000712887
0.000602741
0.000679976
0.000715676
0.000757947
0.000716444
0.000666339
0.000632874
0.00063576
0.000661883
0.000692666
0.000703984
0.000668753
0.00061969
0.000633171
0.00066418
0.000657382
0.000665749
0.000666114
0.0006688
4.37005e-06
0.000496655
0.000725832
0.000703486
0.000653794
0.000622188
0.000595489
0.000571971
0.00103435
0.000590093
0.000700334
0.0005624
0.000724143
0.000551758
0.000543481
0.000718737
0.00101413
0.000569461
0.000699034
0.000586155
0.000650994
0.000551229
0.000632196
0.000571879
0.000650737
0.000532085
0.000632441
0.00061659
0.000683867
0.00060495
0.000683486
0.000486179
0.000497454
0.000469863
0.000413464
0.000475942
0.000412292
0.000323779
0.00031961
0.000499332
0.000483057
0.000590346
0.000550107
0.000640133
0.000560244
0.000496672
0.000589674
0.000486339
0.000499725
0.000588409
0.000556788
0.00064272
0.000557967
0.000500116
0.000582963
0.000626721
0.000606738
0.000628134
0.000610767
0.000553086
0.00059718
0.000560501
0.000598977
1.69087e-05
0.000705972
0.000706601
0.000687542
0.000662114
0.000642385
0.000725798
0.000694295
0.000616149
0.000546813
0.000854932
0.000601834
0.000531759
0.000849077
0.000551951
0.000548207
0.000621462
0.000601769
0.000527765
0.000622006
0.000531643
0.000602253
0.000577092
0.000680877
0.000559798
0.000678183
0.000561662
0.000681051
0.000534751
0.000680159
0.000562067
0.000451058
0.000442809
0.000562439
0.000454543
0.000430641
0.000445132
0.000551442
0.000452074
0.000428125
0.000332134
0.000331514
0.00044808
0.000451084
0.000498796
0.000552707
0.000530312
0.000483806
0.000447291
0.000506072
0.000443002
0.000553996
0.000526381
0.00047871
0.000587248
0.000542126
0.000588103
0.000546528
5.65595e-05
0.000710145
0.00072973
0.000625767
0.00061105
0.000685745
0.000716249
0.000694714
0.000565855
0.000563836
0.000678473
0.000555166
0.000750755
0.000700435
0.000562797
0.0010426
0.00055215
0.00055129
0.000674417
0.000540209
0.00074558
0.000698267
0.000547898
0.00102424
0.00055557
0.000560741
0.000641773
0.000609386
0.000537327
0.000643138
0.000546738
0.000609509
0.000692395
0.000440001
0.000468374
0.000472025
0.000439634
0.00038569
0.000386809
0.000412297
0.00055171
0.000427661
0.000543756
0.000436637
0.000569107
0.000428634
0.000503738
0.000480565
0.000437954
0.000576521
0.00041457
0.00054546
0.00043269
0.00054128
0.000434361
0.000567084
0.000434793
0.000509515
0.000480007
0.000437155
0.000570949
0.000427362
0.000425257
0.000480977
0.000448588
0.000418642
0.000415799
0.000476906
0.000441732
0.000136585
0.000659419
0.000642108
0.000694287
0.000846947
0.000545277
0.000680746
0.000847803
0.000538995
0.000589059
0.000668046
0.000638444
0.000525814
0.000529669
0.000557597
0.000610203
0.000619241
0.000606072
0.00051457
0.000519401
0.000545889
0.000618822
0.000609787
0.00060616
0.000578614
0.000651244
0.000564056
0.000652213
0.000783855
0.000463123
0.000388682
0.000465009
0.000388101
0.000454187
0.000453613
0.000425198
0.000428792
0.000491948
0.000461218
0.000434729
0.000451109