/*--------------------------------*- C++ -*----------------------------------*\
| =========                 |                                                 |
| \\      /  F ield         | OpenFOAM: The Open Source CFD Toolbox           |
|  \\    /   O peration     | Version:  5.x                                   |
|   \\  /    A nd           | Web:      www.OpenFOAM.org                      |
|    \\/     M anipulation  |                                                 |
\*---------------------------------------------------------------------------*/
FoamFile
{
    version     2.0;
    format      ascii;
    class       volScalarField;
    location    "1.3";
    object      omega;
}
// * * * * * * * * * * * * * * * * * * * * * * * * * * * * * * * * * * * * * //

dimensions      [0 0 -1 0 0 0 0];

internalField   nonuniform List<scalar> 
12160
(
0.0719999
0.0719999
0.00288433
0.0719999
0.00620424
0.00126845
0.0719999
0.0098196
0.0017538
0.00119256
0.0719999
0.0110718
0.00241344
0.0014222
0.00119906
0.0719999
0.0105689
0.00264972
0.00162969
0.00138928
0.00136831
0.0719999
0.00982239
0.00251686
0.00168565
0.00152247
0.00158752
0.0014222
0.0719999
0.00939015
0.00233209
0.00164631
0.00157024
0.00163483
0.00186165
0.00228301
0.0719999
0.00913574
0.00222584
0.0015922
0.00156621
0.00164407
0.00191606
0.00285276
0.0104482
0.0719999
0.00897301
0.00216549
0.00156407
0.00153523
0.00164371
0.00186099
0.00244637
0.00875704
0.0100585
0.0719999
0.00889658
0.00212726
0.00154194
0.00151643
0.00162738
0.00181032
0.00224376
0.00714967
0.00935268
0.0203392
0.0719999
0.00889126
0.00210564
0.00152316
0.00149805
0.0016091
0.00177831
0.00240179
0.00608029
0.00893594
0.0119701
0.0189021
0.0719999
0.00891137
0.00209781
0.00150809
0.00147755
0.0015885
0.00177741
0.00274775
0.00584452
0.00947332
0.0124214
0.00706815
0.00758239
0.0719999
0.00881387
0.00209685
0.00149643
0.00145579
0.001565
0.00175694
0.00305037
0.00605106
0.00903452
0.0134887
0.00488778
0.00417711
0.00619727
0.0719999
0.00856435
0.00207228
0.0014856
0.00143521
0.00154035
0.00169829
0.00320261
0.00645474
0.00875078
0.0147854
0.00578519
0.00259768
0.0028515
0.00424166
0.0719999
0.00818694
0.00201555
0.00146852
0.0014166
0.00151579
0.00161991
0.00318049
0.00672887
0.00831074
0.0154747
0.00841447
0.00287692
0.00220167
0.00170523
0.0719999
0.00772401
0.00193354
0.00144274
0.00139618
0.00149006
0.00154844
0.00305008
0.00677823
0.0077464
0.0153073
0.0114427
0.00292805
0.0022334
0.0016012
0.0719999
0.00722265
0.00183744
0.0014096
0.00137163
0.00146208
0.00150174
0.00290094
0.00664939
0.00711954
0.0146268
0.0140326
0.00305959
0.00210592
0.00158254
0.0719999
0.00672475
0.00173853
0.00137246
0.00134336
0.00143126
0.00146504
0.0028017
0.00637278
0.00650064
0.0135003
0.0161162
0.003282
0.0021024
0.00154918
0.0719999
0.00626459
0.00164561
0.00133476
0.00131288
0.00139737
0.00142507
0.00273709
0.00597673
0.00596963
0.0119879
0.0179125
0.00357478
0.00210236
0.00155263
0.0719999
0.00586576
0.00156445
0.00129927
0.0012821
0.00136169
0.00138159
0.00268693
0.00555953
0.00556422
0.0103733
0.0192037
0.00399818
0.00209976
0.0015698
0.0719999
0.00554479
0.00149782
0.00126783
0.00125278
0.00132622
0.00133764
0.00265179
0.00517693
0.00519337
0.00924396
0.0195538
0.00443874
0.0021306
0.00159509
0.0719999
0.00531056
0.00144665
0.00124147
0.00122628
0.00129279
0.00129575
0.00262597
0.00481955
0.00477381
0.0088682
0.0184482
0.00482596
0.00218818
0.00166359
0.0719999
0.00516703
0.00141064
0.00122062
0.00120348
0.0012627
0.00125743
0.00259731
0.0044632
0.00436025
0.00880098
0.0159075
0.0050473
0.00220546
0.00171561
0.0719999
0.00511377
0.00138905
0.00120545
0.00118491
0.00123683
0.00122355
0.00254997
0.00408176
0.00400916
0.00876261
0.01297
0.00493428
0.00217059
0.00169995
0.0719999
0.00515307
0.00138106
0.00119598
0.00117096
0.00121576
0.00119454
0.0024662
0.00366548
0.00374673
0.00850551
0.00976386
0.00423667
0.00209444
0.00161163
0.0719999
0.0052787
0.00138674
0.00119225
0.00116194
0.00119993
0.0011706
0.00232866
0.00323081
0.00356518
0.00777835
0.0069941
0.00335939
0.00190631
0.00150708
0.0719999
0.00548368
0.00140534
0.00119446
0.00115818
0.00118969
0.00115202
0.00212239
0.00282118
0.00342037
0.00641422
0.00501341
0.00261705
0.00168344
0.00140799
0.0719999
0.00576106
0.00143648
0.00120224
0.00116008
0.00118536
0.00113925
0.00185064
0.00248245
0.0032427
0.00494131
0.00364716
0.0020867
0.00149662
0.00131696
0.0719999
0.00610148
0.00148011
0.00121512
0.00116723
0.00118743
0.00113313
0.00155099
0.00224113
0.00298849
0.00379793
0.00274218
0.00173196
0.00136065
0.00124594
0.0719999
0.00649346
0.00153596
0.0012328
0.00117897
0.00119546
0.00113519
0.00128471
0.00209336
0.00267486
0.0029374
0.002154
0.0014982
0.00126522
0.00119329
0.0719999
0.00692279
0.00160333
0.00125488
0.00119477
0.00120866
0.00114499
0.00117578
0.0020145
0.00235562
0.002295
0.001764
0.00134223
0.0011962
0.00115316
0.0719999
0.00737331
0.00168089
0.00128093
0.00121405
0.00122641
0.00116056
0.00137736
0.00199254
0.00209255
0.00183013
0.00150062
0.00123713
0.00114492
0.00111995
0.0719999
0.00782732
0.00176654
0.00131044
0.00123625
0.00124806
0.00118083
0.00162897
0.00207333
0.00200117
0.00151755
0.00132179
0.00116642
0.00110666
0.0010911
0.0719999
0.00826654
0.00185731
0.0013427
0.00126085
0.00127301
0.00120507
0.00186425
0.00220544
0.00219509
0.00148596
0.00120069
0.00112026
0.0010794
0.00106652
0.0719999
0.00867201
0.00194935
0.00137678
0.00128725
0.00130066
0.00123281
0.0020525
0.00239978
0.00246079
0.00176728
0.00119541
0.00109423
0.00106303
0.0010467
0.0719999
0.00902685
0.0020381
0.00141151
0.00131476
0.0013304
0.00126371
0.00218623
0.00265641
0.00272301
0.00218454
0.00131688
0.00109695
0.00105795
0.00103267
0.0719999
0.00932122
0.00211899
0.00144552
0.00134263
0.00136156
0.00129739
0.00227406
0.0029558
0.00294287
0.00273399
0.0014913
0.00113003
0.00106306
0.00102818
0.0719999
0.00955989
0.00218895
0.00147749
0.00137005
0.0013934
0.00133339
0.00232921
0.00327043
0.00310906
0.00342053
0.00173822
0.00117974
0.00107666
0.00103597
0.0719999
0.0097472
0.00224863
0.00150672
0.00139638
0.00142514
0.00137111
0.00236414
0.00357556
0.00324737
0.00425699
0.00207901
0.00125051
0.00109775
0.00104807
0.00982309
0.0719999
0.00230005
0.001534
0.00142152
0.00145615
0.00140983
0.00238891
0.0038571
0.0033968
0.00524965
0.00255178
0.0013479
0.00112633
0.00106405
0.00233338
0.00977375
0.0719999
0.00156137
0.00144655
0.00148646
0.00144873
0.00241088
0.00411308
0.00358467
0.00625923
0.00320732
0.00148275
0.00116256
0.00108372
0.00158894
0.00234449
0.0101532
0.0719999
0.00147344
0.0015172
0.00148719
0.00243549
0.00435119
0.00382359
0.00693873
0.00410372
0.00166931
0.00120781
0.00110636
0.00150378
0.00161748
0.00249986
0.0111501
0.0719999
0.00155059
0.00152535
0.00246665
0.00458672
0.0041166
0.00727281
0.00528899
0.00192791
0.00126477
0.00113156
0.00158941
0.00154208
0.00172937
0.0028879
0.0139694
0.0719999
0.00156421
0.00250619
0.00483988
0.00445663
0.00740475
0.00682488
0.00228486
0.00133776
0.00115941
0.00160851
0.00163653
0.00165475
0.00196383
0.00394768
0.0211334
0.0719999
0.00255011
0.00512492
0.00482209
0.0074585
0.00880493
0.0027679
0.0014337
0.0011915
0.00259718
0.00167854
0.00175567
0.00183262
0.0025248
0.00677745
0.0382261
0.0719999
0.0054195
0.00517196
0.00750357
0.0111601
0.00339964
0.00156092
0.00122995
0.00566042
0.00270441
0.00187488
0.00191067
0.00213939
0.0039847
0.0132446
0.0638393
0.0719999
0.00544868
0.00753088
0.0134288
0.00418284
0.00172674
0.00127794
0.00561722
0.00581766
0.00300791
0.00211457
0.00210004
0.00278726
0.00734085
0.0244846
0.066953
0.0719999
0.00757726
0.0154146
0.00504605
0.00193227
0.00133887
0.00787308
0.00576051
0.00600057
0.00332976
0.00232356
0.00235451
0.00431745
0.0142876
0.032865
0.100306
0.0719999
0.0173688
0.00582611
0.00216582
0.00141501
0.0191258
0.00856818
0.00628225
0.00595287
0.0034722
0.00243833
0.00289005
0.00853294
0.0251325
0.056893
0.106736
0.133232
0.00629889
0.00238087
0.00150461
0.00647625
0.0197556
0.010556
0.00704749
0.00572765
0.0034069
0.00251463
0.00477821
0.0172931
0.0466299
0.0933684
0.12463
0.0665674
0.0568889
0.00253011
0.0015988
0.00250026
0.0058037
0.0189496
0.0122522
0.0078525
0.00556947
0.00324794
0.00313452
0.00987348
0.0339737
0.0782208
0.116224
0.0673556
0.0392003
0.0575065
0.0568889
0.00167962
0.00174526
0.00231172
0.00505892
0.016395
0.0129505
0.00837516
0.00559206
0.00335489
0.00542637
0.0203933
0.0611755
0.106245
0.0607959
0.0403418
0.0298104
0.0366446
0.057291
0.0568889
0.00176392
0.00229032
0.00394918
0.0133953
0.0126479
0.00848219
0.00580106
0.00430518
0.0102557
0.0408095
0.0898002
0.0474465
0.0377588
0.0299111
0.0276764
0.0296531
0.0359157
0.0580893
0.0568889
0.00177456
0.00220227
0.00316438
0.0106005
0.0116665
0.00826169
0.00630862
0.00603312
0.0202452
0.0686277
0.0333746
0.0315469
0.0285332
0.0264784
0.0285407
0.0290813
0.0304485
0.0359983
0.0602573
0.0568889
0.00170264
0.00205254
0.00268913
0.00805656
0.0104737
0.00787735
0.00688005
0.0085133
0.0418236
0.0234762
0.0246447
0.0252255
0.0248218
0.0260686
0.0305503
0.0315008
0.0311751
0.0323798
0.0376718
0.0633941
0.0568889
0.00155737
0.00195631
0.00239911
0.00586512
0.00890101
0.0073783
0.0076358
0.0170276
0.0182762
0.0190644
0.0208967
0.0222605
0.0235492
0.0266929
0.0346978
0.0354202
0.0346967
0.0331246
0.0331253
0.0350961
0.0338172
0.0354556
0.0411936
0.0675614
0.0568889
0.00145985
0.00187815
0.0021988
0.00417896
0.00741902
0.00715409
0.00834633
0.0104149
0.0149855
0.0168338
0.0190787
0.0207421
0.0231779
0.0276394
0.0384754
0.0373059
0.0411348
0.0384762
0.0406251
0.0406208
0.0372999
0.035211
0.0352103
0.0388106
0.0366927
0.0395212
0.0464322
0.0727604
0.0568889
0.00139311
0.00180567
0.00203662
0.00322459
0.00714742
0.00770152
0.00831502
0.0101725
0.0136232
0.0157777
0.0178533
0.0196936
0.0229418
0.0301837
0.0302058
0.028973
0.0289771
0.0403941
0.038694
0.0479123
0.0447942
0.0404058
0.042418
0.042425
0.0386909
0.0366053
0.0366086
0.042548
0.0394121
0.0443294
0.0529035
0.0789528
0.0568889
0.00133261
0.00173032
0.00198448
0.00288565
0.00854795
0.00920582
0.00907377
0.0100368
0.0123961
0.0151608
0.0166806
0.0189297
0.0251172
0.0251149
0.0244774
0.0244847
0.0315366
0.0315578
0.0300415
0.030048
0.0410982
0.0382745
0.0400388
0.0385839
0.0397595
0.0593778
0.0566266
0.0448476
0.0446228
0.0436097
0.0435379
0.041113
0.0425022
0.042503
0.0382809
0.040023
0.0385812
0.0397527
0.036415
0.0377264
0.036251
0.0379735
0.0364224
0.0377226
0.036252
0.0379704
0.0466524
0.0426406
0.050164
0.0606665
0.0861453
0.0568889
0.00127145
0.00170057
0.00199973
0.00291226
0.0120423
0.011266
0.0104779
0.00969731
0.0121039
0.0141693
0.0156895
0.0211542
0.0211481
0.0207327
0.020738
0.0264675
0.0264599
0.0257804
0.0257872
0.0328162
0.0387655
0.0313045
0.0325552
0.031204
0.0358037
0.0387438
0.0328708
0.0313395
0.0325722
0.031229
0.0357831
0.0310291
0.0296276
0.0312673
0.0298138
0.0310304
0.0296241
0.0312703
0.0298222
0.0407636
0.0419518
0.0405911
0.0421287
0.0378805
0.0410607
0.0383015
0.0407569
0.0904298
0.10897
0.060538
0.0583891
0.0480448
0.0475372
0.0415139
0.0415659
0.0411448
0.0411205
0.0408005
0.0419541
0.040615
0.0421329
0.0417208
0.0425804
0.0415751
0.0428951
0.0417318
0.0425729
0.0415542
0.0428924
0.037904
0.0410425
0.0382902
0.040749
0.0360809
0.039012
0.0360914
0.0390047
0.0508948
0.0478453
0.0571993
0.0697139
0.0941762
0.0568889
0.00124663
0.00161273
0.00211441
0.00320703
0.0149215
0.013839
0.0145133
0.0129472
0.0156629
0.0230876
0.0185429
0.0185115
0.0439115
0.044021
0.0227938
0.0228064
0.0243894
0.024566
0.0280163
0.0263032
0.0279774
0.0262385
0.0280056
0.026291
0.0279638
0.0262259
0.0270189
0.0254504
0.027366
0.0256213
0.0270143
0.0254468
0.027362
0.0256216
0.0395318
0.0330283
0.0312197
0.0352994
0.0329246
0.0310118
0.0394955
0.0330771
0.0352491
0.0312543
0.0329402
0.0310379
0.0314636
0.0293098
0.0318614
0.0296804
0.0314575
0.0293034
0.0318627
0.0296891
0.0403099
0.0427759
0.0401013
0.0428801
0.0375396
0.0414912
0.0380724
0.041165
0.116999
0.334831
0.415742
0.351971
0.121998
0.109753
0.0556023
0.0565919
0.0449551
0.045153
0.0400753
0.0400876
0.040037
0.0406741
0.0399124
0.0398961
0.0398896
0.0405005
0.041744
0.0428653
0.0401569
0.0408572
0.0404713
0.041023
0.0417653
0.0428698
0.0401109
0.0408292
0.0404137
0.0409783
0.0403619
0.0427745
0.0401206
0.0428782
0.041026
0.0432457
0.0410392
0.0432599
0.0375643
0.0414779
0.0380631
0.041155
0.0358074
0.039593
0.0358195
0.0395775
0.0643013
0.0549922
0.0652943
0.0799041
0.102485
0.0568889
0.00121193
0.00160881
0.00197726
0.00396433
0.019781
0.0287279
0.0399671
0.0605482
0.137953
0.207214
0.207533
0.651705
0.651776
0.0463824
0.0463743
0.146237
0.145207
0.024759
0.0227482
0.0257226
0.0230379
0.0247735
0.0227563
0.0257875
0.0230648
0.0519092
0.0431862
0.0317726
0.0263227
0.0522275
0.0432757
0.0320201
0.0264722
0.0288461
0.0262217
0.0288885
0.026132
0.0288321
0.0262076
0.0288727
0.0261141
0.0283889
0.0251448
0.0285851
0.0255818
0.0283841
0.0251346
0.0285749
0.025573
0.040045
0.0430316
0.0398247
0.0432431
0.260599
0.736128
2.81054
2.40647
1.15329
0.975124
0.740222
0.668843
0.130989
0.131447
0.0526369
0.0463686
0.0473699
0.0438145
0.0522856
0.046108
0.0476002
0.0438419
0.0414366
0.0406623
0.043507
0.0416624
0.0413657
0.0405237
0.0437023
0.0415571
0.0403599
0.0394458
0.0398698
0.0396021
0.0402885
0.0393229
0.0397485
0.0394108
0.0430433
0.0416736
0.0399752
0.040626
0.0407272
0.0401545
0.0430813
0.0417016
0.039924
0.0405667
0.0406986
0.0400843
0.0401041
0.0430214
0.039837
0.0432293
0.0406205
0.0433883
0.0406386
0.0434017
0.0863125
0.0594274
0.0748462
0.0906513
0.110502
0.0568889
0.00118411
0.00153554
0.00210451
0.00477937
0.0963123
0.151288
0.321894
0.836015
1.51592
0.47208
0.470013
1.14254
1.14154
0.143231
0.14268
0.420479
0.419813
0.0272352
0.022994
0.0306361
0.0244651
0.027276
0.0229985
0.0307958
0.0244958
0.0768485
0.0637638
0.0432691
0.0327741
0.0771758
0.0635764
0.0436286
0.032824
0.0288403
0.0248267
0.0288468
0.0248181
0.45661
2.4842
9.21218
9.09866
5.27195
4.54262
10.2511
9.05454
2.97988
2.68447
1.95716
2.5286
0.451029
0.56761
1.71031
2.4621
0.412612
0.547991
0.0658659
0.0498336
0.11649
0.0780425
0.0662301
0.0489112
0.12342
0.0845435
0.0544411
0.0465724
0.0475723
0.0437321
0.0544237
0.0463174
0.0479087
0.043786
0.0416379
0.0405761
0.0435924
0.0415563
0.0415932
0.0404879
0.0437268
0.0414776
0.0754501
0.0660931
0.0851783
0.101313
0.11659
0.0568889
0.00115535
0.0016145
0.00206487
0.0153836
0.825541
1.22492
3.51985
6.03153
8.34726
8.33578
22.8136
22.7967
1.22189
1.21879
3.20623
3.19704
0.200283
0.219467
0.149007
0.331478
0.199791
0.21873
0.14836
0.33158
0.442375
1.08263
0.64915
0.682777
0.441766
1.07533
0.648559
0.680252
0.0292375
0.0234725
0.0363813
0.0270706
0.0292928
0.0234801
0.0365378
0.0270974
0.116514
0.0815454
0.0573833
0.0409634
0.116421
0.0810553
0.0575712
0.0408777
0.252414
3.61081
22.3523
46.4764
46.1746
25.0811
22.4287
45.6027
40.7009
9.00602
8.49465
2.92792
3.03491
0.662251
0.626108
2.58186
3.08685
0.587409
0.585831
0.0797172
0.0527474
0.164404
0.0786625
0.0815076
0.0503642
0.173972
0.0699865
0.054227
0.0472721
0.0545292
0.046965
0.0747142
0.0726429
0.0962211
0.110817
0.116705
0.0719993
0.00119245
0.00160115
0.00270723
0.10303
5.07453
14.451
14.8454
67.0239
70.331
70.2466
96.9465
96.8858
2.40165
1.6788
4.14826
4.95781
2.38669
1.6775
4.14585
4.93836
17.1865
17.167
0.269959
0.307869
0.17012
0.549689
0.269588
0.306478
0.169625
0.547108
0.567395
1.9426
1.03394
1.10252
0.566403
1.92569
1.03229
1.09584
0.165918
0.101442
0.165328
0.100984
0.179083
1.65788
22.5678
163.703
159.157
162.879
157.685
177.508
175.778
118.512
109.329
115.166
269.254
138.929
224.339
107.112
236.886
123.544
204.981
35.6877
21.2874
16.2115
57.7977
34.9156
19.9055
15.974
55.5404
5.572
5.53333
1.28038
1.17362
5.06363
5.45504
1.21103
1.10036
0.105161
0.0608013
0.262058
0.124817
0.110827
0.0565028
0.285701
0.109203
0.0638666
0.0833274
0.10755
0.116695
0.0719993
0.00124268
0.0017831
0.00944913
0.669558
17.3583
53.1605
50.753
556.835
556.683
590.099
590.177
517.361
271.797
606.319
348.249
517.787
271.926
607.743
348.598
495.869
495.781
3.81172
2.44386
5.95465
7.49141
3.78148
2.44056
5.94341
7.45337
259.112
125.928
98.2819
48.0733
259.479
126.005
98.2941
48.0736
0.94298
4.81789
2.3142
1.96426
0.941603
4.78232
2.31169
1.95191
0.0817849
0.900357
10.5105
110.218
326.528
323.07
329.492
322.334
380.91
375.761
365.84
201.971
284.253
479.65
334.293
184.087
271.878
457.609
217.787
458.976
249.093
414.693
208.184
431.292
234.037
396.079
69.2462
49.8937
34.5697
126.86
68.9837
47.2485
34.3792
124.713
11.1547
10.0474
10.3845
9.91304
0.0659894
0.0990308
0.116122
0.0719993
0.00139039
0.00219249
0.103763
3.62198
37.9227
136.613
403.168
403.027
324.358
322.404
681.947
681.759
637.024
636.651
796.398
438.438
839.331
487.05
796.553
438.541
839.735
487.207
576.314
930.457
583.759
963.078
576.445
932.398
584.096
963.449
15.2459
7.13474
18.6805
38.5776
15.1993
7.13145
18.6689
38.5366
638.491
335.359
407.364
192.455
638.654
335.355
407.006
192.267
0.0578156
0.248912
5.07198
56.558
323.023
320.773
389.306
387.304
448.276
444.257
624.951
371.609
592.265
364.127
607.528
362.106
577.533
355.411
670.346
395.514
708.615
414.15
637.986
368.666
659.331
389.035
701.071
409.643
622.338
359.873
542.413
304.72
519.977
292.187
264.323
569.29
323.22
481.622
259.669
553.183
314.678
472.132
0.0849509
0.118018
0.0719993
0.00158684
0.00926151
0.912734
17.0225
82.5061
350.9
794.264
793.523
791.212
791.014
894.161
1038.63
600.745
866.137
589.89
629.755
1039.87
894.461
630.139
600.775
866.252
589.897
1417.02
797.092
1129.52
680.662
1414.04
793.433
1135.27
682.395
955.475
535.053
1031.52
585.123
955.569
535.134
1031.72
585.239
625.375
1083.27
625.609
1083.71
84.1484
177.522
84.1226
177.539
790.885
428.722
791.504
428.835
0.0734387
0.083684
1.2687
25.3023
202.196
198.484
280.197
277.871
366.808
362.868
436.77
433.506
407.348
640.624
392.26
697.356
397.738
677.222
403.146
632.092
386.237
690.346
392.417
667.488
678.455
394.586
667.625
389.079
705.472
409.322
736.725
711.45
425.733
409.561
697.257
405.08
731.117
704.057
422.81
405.194
632.476
362.231
620.03
355.357
0.123079
0.0719993
0.00204153
0.112089
5.32961
45.3389
190.339
803.304
803.775
780.407
781.878
985.485
985.168
851.411
850.855
1037.95
952.089
602.212
623.394
1129.37
650.755
1039.31
952.342
623.752
602.246
1129.73
651.827
1557.06
850.872
1433.33
779.19
1566.67
853.528
1448.11
784.167
1081.36
614.188
1081.78
614.383
0.131159
0.0812469
0.262096
6.42704
103.011
283.301
281.761
327.27
324.744
501.494
324.42
520.582
318.326
489.083
316.636
510.474
312.355
603.415
672.356
355.759
554.476
334.117
392.889
596.421
665.468
351.896
547.102
329.566
388.761
409.611
411.631
714.943
714.758
406.309
407.17
709.237
706.404
707.072
410.023
698.54
405.788
711.658
414.869
737.229
425.275
705.642
411.861
733.664
423.23
0.0719993
0.00922184
0.959118
18.0852
96.6173
342.881
560.325
558.101
531.432
532.346
692.106
1322
745.936
1194.1
694.719
1330.97
750.636
1199.29
637.947
633.449
1391.86
768.192
1364.39
744.222
1403.66
774.682
1381.36
752.63
0.0719993
0.145653
0.123589
1.20362
27.5531
256.545
255.329
334.925
334.185
336.442
334.769
387.071
383.098
556.18
329.527
544.49
317.983
548.784
325.538
540.686
315.683
653.517
580.964
378.685
339.148
554.726
324.717
648.037
575.575
336.546
375.774
551.326
322.742
420.463
733.241
416.681
725.971
0.118663
4.55246
40.7383
169.612
353.576
353.034
341.464
341.42
417.742
396.801
365.952
363.563
513.819
964.375
555.139
871.032
511.057
963.9
555.303
862.853
698.071
402.502
696.74
404.171
639.657
370.821
663.108
387.904
1005.83
569.806
1009.74
571.99
0.0719979
0.178794
0.316541
5.52946
88.9767
300.466
300.214
371.466
370.203
418.946
414.67
344.237
567.738
338.651
538.526
337.484
556.216
332.322
526.311
567.786
330.821
560.893
327.949
562.32
328.01
559.745
327.004
0.79691
13.2693
69.1595
144.819
328.156
326.725
311.586
311.358
685.606
385.622
358.994
708.488
392.416
633.128
621.38
347.309
307.351
610.529
336.226
531.122
337.419
320.472
418.168
784.883
453.201
715.521
411.173
775.246
449.01
699.231
644.503
366.231
601.852
344.875
0.106165
0.261563
1.22453
21.461
159.224
159.692
240.042
240.381
265.616
267.648
377.798
375.891
539.225
343.935
613.905
358.858
620.538
364.1
527.449
336.11
600.664
351.789
606.045
356.797
607.184
351.125
596.415
346.133
579.999
341.495
575
339.619
3.25974
22.6597
73.4683
291.271
290.539
260.743
260.352
354.552
349.463
336.216
335.425
706.296
392.407
384.974
762.734
421.821
681.596
643.287
356.358
329.986
676.147
373.127
579.695
544.264
339.277
634.958
359.675
494.201
318.614
547.422
312.354
0.231526
0.546461
4.80533
65.4612
258.903
257.886
304.886
303.495
350.49
348.756
552.063
330.648
304.677
506.232
307.612
444.04
304.966
504.052
306.302
444.089
547.476
327.678
594.293
635.779
346.237
365.016
585.443
622.248
342.416
359.187
622.65
360.985
611.751
356.804
5.89275
32.3218
140.558
348.147
347.614
308.973
308.699
540.971
330.523
361.823
531.924
333.841
551.856
501.524
311.676
359.378
515.956
326.871
545.09
376.346
375.142
408.728
727.156
353.208
627.473
611.101
346.08
538.405
305.809
0.500692
1.52747
16.2472
115.976
110.957
190.141
187.846
230.409
228.436
312.211
308.828
431.357
299.3
486.22
293.289
492.89
300.24
422.069
488.871
297.852
292.829
479.713
290.132
533.296
314.664
506.114
298.442
503.827
531.03
297.193
313.258
11.0776
65.6408
108.043
347.934
348.17
300.608
300.59
556.182
326.274
357.181
544.59
321.859
576.947
518.096
305.24
356.192
529.101
313.196
573.647
529.123
358.22
518.137
338.486
531.046
359.419
520.143
340.22
581.409
341.799
535.017
315.948
1.04373
4.50538
46.8746
190.343
186.497
230.846
226.904
289.167
284.036
431.749
269.617
280.45
412.071
258.759
379.379
426.302
266.368
275.792
401.976
253.796
369.905
457.705
503.224
270.164
293.737
498.406
291.625
453.132
268.094
24.6991
42.8884
131.571
227.221
227.878
132.539
77.1755
78.0657
274.353
542.234
347.378
275.119
546.236
349.289
539.732
316.568
324.096
500.587
301.063
536.177
503.962
296.072
324.993
493.87
297.038
537.587
526.635
321.809
530.637
324.134
2.05654
12.9878
110.199
224.152
221.386
271.468
266.991
385.88
288.269
411.351
257.429
393.551
254.417
371.126
379.206
246.51
279.087
397.667
250.498
426.623
255.083
396.356
240.473
420.368
252.459
386.479
236.668
447.819
266.662
443.405
265.024
17.921
27.6693
197.733
142.304
198.61
142.114
83.53
83.5988
340.208
427.103
292.217
484.493
320.365
243.716
335.332
256.404
430.592
340.827
293.977
488.798
322.719
244.184
340.248
255.067
307.048
507.133
308.723
510.025
473.967
297.91
478.49
300.543
3.8228
32.6723
203.534
272.463
270.893
201.035
272.515
271.812
308.774
378.209
263.731
305.748
367.299
257.77
405.299
391.278
241.549
235.854
393.086
236.756
381.033
231.255
419.911
256.318
415.721
252.198
414.438
254.795
406.784
250.48
14.2944
30.6045
185.192
248.77
338.536
159.494
185.44
246.272
339.616
159.288
93.418
93.6329
402.65
357.089
443.116
282.811
263.01
230.26
405.942
448.75
354.27
286.598
264.922
229.249
288.857
466.591
290.65
470.055
6.3748
65.7565
254.818
290.52
288.656
253.531
310.235
308.553
388.434
397.177
251.31
394.741
262.533
248.155
379.602
289.424
380.542
390.864
247.181
385.963
257.262
244.095
371.233
283.644
410.945
405.354
248.662
241.945
402.193
246.204
398.273
238.941
12.675
108.358
118.425
118.558
107.884
69.3321
68.9792
253.486
243.446
316.325
234.535
326.824
215.384
275.115
201.895
179.456
293.593
226.914
256.283
242.327
320.067
235.049
326.526
215.213
278.736
204.48
179.685
295.472
225.777
377.496
350.409
242.046
225.697
376.608
346.751
243.01
224.347
8.48302
67.6129
227.661
360.004
269.028
382.951
357.04
267.542
378.897
222.974
316.944
310.933
381.105
374.865
403.644
229.299
240.942
228.703
377.12
369.033
398.98
238.951
227.514
226.114
422.599
252.853
416.52
251.211
16.745
154.638
128.289
154.508
127.714
87.0901
86.6721
343.598
334.198
220.744
226.99
325.641
208.076
313.921
328.258
238.692
319.265
236.575
218.359
260.389
214.004
345.177
339.872
226.753
222.452
330.379
210.375
329.09
311.509
237.436
319.92
234.687
217.053
259.298
211.8
6.82525
39.8672
228.543
228.06
40.02
15.5286
13.7026
475.011
274.806
471.713
287.496
419.38
331.944
531.887
316.695
457.725
271.669
464.424
283.219
414.123
321.08
519.143
310.221
311.512
473.044
306.739
305.719
453.295
294.808
387.99
413.762
235.962
251.03
384.647
408.602
234.684
249.069
26.9544
184.14
228.704
302.121
147.504
183.54
227.723
301.222
147.182
143.108
142.611
339.391
214.972
350.464
220.578
381.939
383.593
363.063
231.136
236.996
238.794
346.184
217.342
352.585
220.869
381.25
364.585
380.164
230.68
235.151
237.025
0.235717
14.2705
112.471
110.569
14.9265
2.77335
2.15089
455.208
512.708
271.727
296.261
518.184
299.454
449.352
502.546
269.82
291.866
503.695
292.428
341.737
410.748
253.624
448.725
287.384
230.03
333.016
257.067
321.565
394.427
245.632
428.572
275.973
219.944
322.676
250.267
95.4519
209.851
209.29
201.592
245.589
345.437
255.79
333.616
184.275
200.923
246.235
346.233
255.745
333.923
184.257
384.985
410.604
411.04
236.365
245.539
252.952
385.401
409.137
409.452
235.221
243.625
252.087
0.25725
3.18644
21.3872
177.18
234.72
16.3285
174.145
228.943
3.55517
0.697902
0.464319
527.603
299.053
482.787
280.752
514.76
293.86
466.159
274.394
372.629
200.853
415.634
216.662
249.266
134.344
354.02
169.775
402.341
246.159
208.943
122.56
64.7302
252.702
209.998
252.817
210.116
205.361
266.208
360.933
263.879
365.207
423.609
262.49
160.292
204.936
265.881
360.887
262.591
364.61
422.716
261.745
160.382
435.869
258.709
434.523
257.003
0.729706
1.24213
0.743673
4.81769
61.9862
37.2269
22.4354
84.1454
1.29012
59.0356
14.9016
15.3686
78.1687
1.90974
1.34499
279.811
375.524
104.133
169.326
230.414
72.1647
254.953
366.779
63.9955
230.184
158.499
55.6841
21.6382
234.913
235.101
234.989
235.137
177.998
178.087
183.099
260.548
317.452
243.455
354.67
278.214
436.365
271.125
450.196
455.382
271.177
182.948
261.525
318.913
243.828
355.596
277.379
434.712
269.788
449.555
453.956
269.565
1.16818
4.69496
14.6308
2.80157
9.7751
2.46235
6.18419
20.1136
8.07803
12.762
65.3163
33.9482
1.85353
1.3868
4.58846
1.42387
2.57176
22.5203
13.7076
9.47945
6.28068
182.495
112.243
131.576
88.9391
11.7529
198.406
172.227
198.451
172.219
200.641
220.026
200.859
220.084
231.059
231.024
206.202
289.802
211.36
307.66
273.674
375.141
249.86
432.074
284.683
464.719
280.249
469.34
206.215
289.742
210.876
307.67
273.851
376.955
250.422
433.406
283.191
462.942
278.525
467.998
0.322557
18.4721
16.8294
13.1093
9.29059
36.7872
27.5416
25.2156
2.88913
9.8308
8.57626
5.48667
10.3652
42.5306
17.0479
28.9995
133.263
80.5321
17.7337
2.33029
7.44994
6.36297
1.88666
1.49173
12.7184
2.83991
7.29977
75.8935
51.6005
6.71572
120.457
76.1549
120.312
75.9436
232.998
201.45
232.76
201.149
206.127
213.381
206.114
213.33
246.867
404.074
242.331
413.661
247.275
405.156
242.861
414.452
223.792
342.945
220.581
375.629
224.035
342.975
220.468
376.213
0.227516
4.35119
2.29117
2.11951
2.30777
45.7176
41.7534
36.7498
27.9291
100.243
83.0275
66.9556
36.1875
30.6496
98.5154
4.78539
8.97864
8.60998
14.5616
32.4586
94.6813
53.5748
71.1716
52.7842
21.7112
20.9219
71.2268
2.4206
4.07379
6.22947
2.53319
12.2758
46.6976
25.0946
29.5785
19.9779
7.12595
143.171
96.8472
142.678
96.1377
216.405
183.614
216.29
183.441
227.492
331.502
221.14
321.358
242.992
357.846
252.727
339.741
228.897
333.11
222.12
323.082
243.762
359.192
252.866
340.558
270.548
480.349
263.713
492.85
271.217
481.601
264.491
493.949
6.31486
11.555
38.7846
11.8297
38.4425
7.20318
1.38436
4.22999
0.954033
119.777
111.317
106.335
88.5378
145.1
237.38
159.012
221.066
133.969
209.659
146.404
196.944
77.4229
40.5247
36.9882
129.269
64.8026
20.1931
26.2199
91.0424
20.6569
107.884
74.3262
107.964
74.6394
9.17546
148.747
126.468
148.292
126.037
248.295
357.361
254.475
340.924
235.381
282.269
224.074
301.908
249.693
359.163
255.176
342.412
235.525
280.928
222.173
302.005
240.339
389.546
235.381
376.274
258.614
428.49
270.745
400.592
241.541
391.512
236.614
378.453
259.158
429.722
271.081
401.838
11.8945
64.7716
2.90913
16.8463
2.39755
14.4304
27.9843
6.78583
14.899
3.19352
170.93
265.141
175.933
251.424
165.993
245.734
164.721
245.234
163.789
244.36
166.523
233.878
154.977
203.124
144.78
219.017
157.709
284.319
167.375
272.883
145.304
259.57
156.348
249.793
32.6689
63.7478
83.6425
63.6385
83.6671
136.681
101.512
137.034
101.995
10.7397
191.954
246.738
205.2
236.82
180.285
212.252
183.857
228.52
193.453
246.371
204.756
238.279
179.19
207.372
179.982
226.513
260.033
431.677
269.455
417.301
244.228
348.627
225.193
384.939
260.09
433.095
269.916
417.808
244.104
347.766
224.449
384.869
8.74506
84.7137
226.504
200.465
225.438
194.855
14.6478
91.5932
15.081
90.9784
37.8753
122.34
78.7407
67.3672
14.376
14.3939
7.73864
29.5157
20.475
71.3177
53.0137
30.8449
7.13491
6.11028
3.56184
13.4963
184.238
313.342
186.403
306.461
176.813
290.945
170.341
296.257
176.305
294.959
178.461
289.228
166.567
256.849
157.231
271.005
69.2575
30.9429
84.6047
95.7471
84.3034
95.6394
232.333
261.832
192.316
220.926
191.203
190.193
188.346
191.447
196.639
183.157
229.275
254.75
189.402
216.012
186.708
186.559
185.114
188.324
193.283
179.587
5.66557
200.314
320.781
209.413
311.948
193.549
302.279
200.724
321.47
209.775
312.119
191.074
296.791
259.007
393.139
244.082
423.283
259.007
396.675
244.447
424.933
5.36642
43.6604
265.604
236.578
265.041
235.508
307.124
284.287
303.194
278.142
49.4164
12.2293
14.2203
83.7784
166.618
312.993
238.112
243.408
54.4779
12.694
14.7916
95.5616
167.173
306.852
232.661
244.005
83.7283
190.786
112.264
129.587
31.3444
23.0043
11.6269
54.0203
63.9239
128.363
90.6487
70.0776
20.9543
11.3075
6.58076
28.2309
74.101
122.94
172.964
124.422
174.333
18.9304
122.897
130.951
122.08
131.176
303.538
277.544
193.713
190.539
267.504
180.911
206.634
175.749
234.496
166.726
296.928
274.647
190.149
187.945
261.533
176.821
201.725
174.074
229.898
163.685
3.66909
217.746
368.555
228.771
353.769
204.595
332.197
218.344
371.568
229.56
355.493
203.227
329.03
2.95241
17.7109
125.193
322.979
301.103
321.353
300.321
427.963
328.876
264.264
419.072
276.062
247.09