/*--------------------------------*- C++ -*----------------------------------*\
| =========                 |                                                 |
| \\      /  F ield         | OpenFOAM: The Open Source CFD Toolbox           |
|  \\    /   O peration     | Version:  5.x                                   |
|   \\  /    A nd           | Web:      www.OpenFOAM.org                      |
|    \\/     M anipulation  |                                                 |
\*---------------------------------------------------------------------------*/
FoamFile
{
    version     2.0;
    format      ascii;
    class       volScalarField;
    location    "1.3";
    object      p;
}
// * * * * * * * * * * * * * * * * * * * * * * * * * * * * * * * * * * * * * //

dimensions      [1 -1 -2 0 0 0 0];

internalField   nonuniform List<scalar> 
12160
(
5331.12
5337.87
4677.08
5342.51
4683.65
4023.46
5345.37
4688.58
4031.18
3369.05
5347.81
4691.37
4035.36
3376.45
2716.02
5351.71
4693.51
4037.53
3381.7
2725.38
2061.18
5359.04
4697.12
4039.03
3383.63
2729.32
2071.37
1408.13
5369.34
4704.2
4042.1
3384.12
2730.14
2076.51
1422.33
752.349
5381.55
4714.86
4049.19
3386.2
2729.11
2076.8
1425.14
769.309
219.024
5393.09
4727.56
4060.16
3392.56
2729.76
2073.72
1424.15
773.611
230.318
3.52031
5401.3
4739.65
4073.83
3404.4
2736.17
2072.15
1418.16
773.786
235.123
2.96766
-6.68866
5404.06
4748.38
4087.11
3419.73
2748.57
2077.1
1413.4
765.263
236.894
5.80584
-6.83929
-7.47915
5400.35
4751.14
4096.84
3434.84
2766.01
2090.84
1417.99
757.192
232.037
8.48474
-6.81454
-7.50669
-8.21703
5390.31
4747.66
4100.79
3446.16
2783.8
2111.39
1432.92
760.706
226.001
9.581
-6.822
-7.52609
-8.16857
-8.80418
5374.79
4737.53
4096.99
3450.34
2797.44
2132.83
1457.27
775.79
228.586
9.6581
-6.75006
-7.53016
-8.16167
-8.8221
-9.50698
5355.4
4721.72
4086.35
3447.18
2803.66
2149.6
1483.62
803.788
241.282
11.3676
-6.66778
-7.49916
-8.17346
-8.83076
-9.48442
5333.87
4701.9
4069.8
3436.13
2800.07
2156.73
1504.48
835.183
263.754
15.1381
-6.57957
-7.46727
-8.15643
-8.8298
-9.47804
5311.92
4679.9
4049.06
3418.56
2788.04
2154.11
1514.7
860.566
291.113
21.7341
-6.46952
-7.45172
-8.13833
-8.81799
-9.48344
5291.11
4657.49
4026.07
3396.46
2768.91
2141.18
1510.91
870.526
314.864
31.0082
-6.29745
-7.46157
-8.12944
-8.80791
-9.48016
5272.71
4636.27
4002.72
3372.01
2744.87
2120.1
1496.41
869.946
326.784
40.3472
-5.99186
-7.50201
-8.13902
-8.80299
-9.47846
5257.7
4617.52
3980.65
3347.24
2718.38
2093.49
1472.72
854.218
325.267
45.478
-5.53019
-7.56528
-8.16928
-8.80933
-9.47838
5246.73
4602.23
3961.19
3323.91
2691.68
2064.31
1442.9
827.628
311.673
45.426
-5.11384
-7.62625
-8.21614
-8.82644
-9.48199
5240.22
4591.06
3945.33
3303.39
2666.65
2035.08
1410.48
793.42
289.425
40.9579
-5.02492
-7.66032
-8.26199
-8.85279
-9.48853
5238.29
4584.41
3933.76
3286.71
2644.72
2007.81
1378.26
756.722
263.358
33.8215
-5.28004
-7.66525
-8.28587
-8.87713
-9.49672
5240.88
4582.42
3926.84
3274.52
2626.94
1984.03
1348.47
720.747
236.451
26.3551
-5.71015
-7.64512
-8.28908
-8.89104
-9.50212
5247.75
4585.02
3924.71
3267.21
2613.95
1964.79
1322.68
687.668
211.081
19.5732
-6.08763
-7.60261
-8.26984
-8.89362
-9.50443
5258.47
4591.95
3927.32
3264.9
2606.12
1950.75
1301.94
659.091
188.696
13.9001
-6.3471
-7.56136
-8.238
-8.88395
-9.5037
5272.49
4602.8
3934.38
3267.5
2603.55
1942.23
1286.82
636.095
170.096
9.4921
-6.5044
-7.52676
-8.207
-8.8663
-9.50069
5289.16
4617.02
3945.5
3274.75
2606.15
1939.32
1277.61
619.291
155.619
6.2697
-6.59055
-7.49586
-8.18022
-8.84835
-9.49532
5307.72
4633.95
3960.11
3286.25
2613.66
1941.91
1274.36
608.973
145.33
4.05047
-6.63477
-7.47038
-8.15751
-8.83241
-9.48962
5327.35
4652.83
3977.56
3301.44
2625.66
1949.73
1276.91
605.173
139.108
2.63308
-6.65856
-7.45036
-8.13942
-8.81885
-9.48436
5347.2
4672.83
3997.09
3319.66
2641.61
1962.38
1285.02
607.72
136.785
1.84509
-6.67168
-7.43489
-8.12541
-8.80802
-9.47979
5366.4
4693.09
4017.84
3340.14
2660.84
1979.31
1298.3
616.359
138.162
1.56048
-6.67796
-7.42484
-8.11454
-8.79968
-9.47617
5384.13
4712.74
4038.95
3362.02
2682.59
1999.87
1316.22
630.685
143.135
1.73816
-6.68341
-7.41916
-8.10753
-8.79328
-9.47336
5399.63
4730.91
4059.49
3384.38
2705.97
2023.27
1338.12
650.159
151.595
2.37215
-6.67904
-7.41566
-8.10353
-8.78907
-9.47124
5412.23
4746.84
4078.6
3406.27
2730.02
2048.6
1363.28
674.083
163.433
3.50529
-6.66675
-7.41536
-8.1012
-8.78659
-9.4698
5421.41
4759.82
4095.43
3426.75
2753.75
2074.87
1390.79
701.676
178.483
5.23195
-6.65267
-7.41762
-8.10086
-8.78531
-9.46896
5426.75
4769.3
4109.26
3444.92
2776.13
2100.99
1419.6
731.987
196.452
7.66507
-6.63074
-7.42247
-8.10237
-8.78509
-9.46854
5428.06
4774.82
4119.51
3459.97
2796.18
2125.86
1448.54
763.958
216.944
10.9129
-6.59663
-7.43146
-8.10576
-8.78592
-9.46847
5425.36
4776.08
4125.76
3471.24
2812.98
2148.36
1476.41
796.478
239.4
15.0521
-6.54103
-7.44443
-8.11204
-8.78802
-9.46876
4773.21
5414.2
4127.8
3478.17
2825.82
2167.39
1501.96
828.278
263.089
20.11
-6.44772
-7.46071
-8.12118
-8.79177
-9.46949
4125.38
4762.64
5378.34
3480.22
2834.22
2182.08
1523.79
857.893
287.095
26.0204
-6.29664
-7.48065
-8.13273
-8.7972
-9.47075
3476.59
4114
4726.37
5329.06
2838.26
2191.75
1540.99
883.096
310.209
32.6749
-6.06681
-7.50349
-8.14722
-8.80417
-9.47256
2839.78
3467.64
4076.67
4676.15
5272.11
2195.48
1552.86
902.816
331.157
39.7542
-5.73995
-7.52828
-8.16451
-8.81286
-9.47491
2189.57
2825.01
3429.02
4024.66
4618.48
5223.25
1559.78
916.336
348.917
46.8469
-5.31605
-7.55772
-8.18452
-8.82322
-9.47784
1565.3
2184.19
2783.99
3374.47
3965.48
4567.87
5161.68
922.016
361.974
53.4251
-4.80682
-7.59186
-8.20845
-8.83542
-9.48139
918.074
1548.61
2141.13
2725.84
3313
3912.04
4503.15
5113.16
369.045
58.5677
-4.27352
-7.6308
-8.23641
-8.84972
-9.48555
371.298
914.542
1501.96
2078.55
2660.92
3255.64
3845.88
4458.31
5059.13
61.0442
-3.88363
-7.67293
-8.26783
-8.86604
-9.49031
60.6647
361.191
865.631
1433.73
2009.05
2599.14
3189.61
3802.71
4383.26
4970.92
-3.79988
-7.70596
-8.30029
-8.88364
-9.49559
-3.98794
56.5416
320.496
793.27
1358.07
1942.65
2534.46
3145.12
3718.57
4284.7
4924.21
-7.71421
-8.32705
-8.90075
-9.5011
-7.7099
-4.46351
39.2628
264.558
715.075
1286.03
1878.44
2488.03
3067.26
3630.81
4194.57
4987.65
-8.33816
-8.91345
-9.50639
-8.32992
-7.69862
-5.60125
20.7617
213.357
643.017
1220.7
1831.93
2429.84
3004.02
3509.78
4182.59
4775.61
5553.28
-8.91499
-9.51106
-8.91816
-8.32013
-7.65529
-6.31942
8.95115
171.4
582.364
1174.45
1788.65
2392.45
2886.01
3511
4157.31
4665.11
5370.61
6083
-9.51526
-9.51456
-8.91497
-8.28971
-7.58206
-6.57105
2.75802
139.992
539.889
1139.66
1769.36
2334.71
2970.56
3573.51
4109.39
4468.31
5214.14
5963.27
6675.42
-9.51415
-8.89905
-8.22978
-7.5115
-6.64887
-0.354025
119.031
511.35
1135.39
1777.9
2420.86
3013.63
3552.94
3959.7
4173.66
4982.18
5803.03
6590.19
7318.24
-9.51651
-8.86837
-8.1781
-7.46604
-6.68231
-1.95327
105.302
512.387
1161.55
1824.5
2438.3
2999.36
3447.28
3747.79
3730.49
4595.46
5551.96
6434.58
7251.92
8015.61
-9.5117
-8.83829
-8.14366
-7.445
-6.706
-3.11086
103.169
523.2
1198.21
1826.62
2417.51
2912.86
3284.07
3438.49
3195.28
4052.9
5145.09
6191.39
7115.4
7959.54
8757.82
-9.50159
-8.81808
-8.12617
-7.43795
-6.71409
-3.86643
103.288
555.64
1178.19
1796.51
2340.07
2778.36
3059.64
3031.67
2072.01
3366.93
2074.96
2094.7
2096.03
4572.73
5820.48
6899.66
7837.87
8703.85
9534.73
-9.493
-8.80628
-8.1188
-7.42741
-6.71667
-4.50191
111.649
522.277
1147.98
1720.48
2223.22
2595.95
2788.71
2575.31
2096.24
1768.51
3898.95
2100.72
2217.52
2220.92
1766.98
1805.2
1803.2
5320.83
6593.03
7653.38
8597.22
9486.04
10341.6
-9.48649
-8.80025
-8.11038
-7.41841
-6.70689
-4.91381
98.6875
504.391
1082.86
1621.9
2070.31
2382.53
2460.75
1662.75
1660.06
1698.88
1700.87
1744.59
1472.87
4793.64
3028.12
1747.6
1809.86
1814.42
1467.61
1570.46
1564.29
6227.87
7409.55
8435.23
9389.05
10296.5
11175.2
-9.48232
-8.79439
-8.10137
-7.40329
-6.68085
-5.12371
89.1432
451.26
987.293
1497.82
1879
2132.69
1702.81
1703.61
1670.44
1670.49
1466.26
1462.41
1545.17
1540.19
1376.7
1147.11
1005.61
1094.27
1044.86
5864.06
4035.37
1921.03
1936.37
1514.77
1534.58
1377.81
1316.34
1328.46
1145.7
1007.31
1093.78
1045.44
1214.63
1155.06
1330.28
1088.79
1211.97
1153.23
1327.53
1084.63
7154.69
8230.93
9244.72
10205.5
11128.4
12032.6
-9.4792
-8.78805
-8.08858
-7.37255
-6.64939
-5.30779
67.855
371.843
883.644
1327.22
1662.97
1551.52
1549.93
1395.23
1395.48
1573.85
1566.32
1565.01
1556.13
1166.48
1149.22
1178.49
1143.56
1218.35
1173.79
1142.65
1180.2
1185.01
1151.21
1220.24
1174.27
1248.56
1326.73
1205.92
1282.47
1246.68
1325.04
1204.73
1282.19
1015.44
962.387
1041.45
924.022
999.526
958.433
946.945
1003.74
6933.7
5376.29
2937.51
2945.51
2377.74
2390.22
1633.88
1658.5
1197.94
1217.64
1017.78
963.856
1041.3
930.806
1005.25
902.838
1051.47
898.01
1011.4
920.183
1060.49
911.123
999.061
961.899
948.812
1008.07
1096.81
1069.78
1095.74
1066.71
8041.95
9062.81
10073.5
11037.3
11980.7
12906
-9.47655
-8.7795
-8.06694
-7.34587
-6.60552
-5.4765
40.2522
302.89
740.664
1137.84
1205.47
1204.53
1053.54
1053.95
1451
1441.12
1304.11
1294.41
1240.35
1320.04
1210.33
1285.19
1239.07
1317.89
1212.16
1284.33
1223.33
1316.74
1210.38
1279
1223.81
1315.78
1210.13
1278.46
1122.74
1145.96
1119.87
1124.43
1159.7
1150.7
1123.08
1154.42
1127.29
1128.71
1164.48
1152.01
1245.83
1241.4
1211.73
1205.67
1245.1
1240.79
1210.06
1205.77
882.713
922.788
915.2
870.062
974.575
924.157
936.756
972.286
7895.13
6687.81
4108.56
4097.5
3527.84
3518.61
2689.14
2703.31
2106.32
2129.72
1327.75
1460.03
1151.88
1246.98
1344.84
1465.27
1157.96
1248.76
848.479
859.844
886.025
1015.64
1126.6
907.661
856.879
871.686
891.309
1014.42
1128.16
917.297
886.532
920.617
916.63
873.635
877.163
806.56
885.736
828.519
976.359
932.91
939.906
974.895
1068.99
1040.25
1069.53
1036.71
8908.9
9913.23
10909.9
11879.7
12848.9
13789
-9.47333
-8.7669
-8.04557
-7.30575
-6.58834
-5.53158
20.3412
232.093
580.444
841.997
843.448
637.57
638.371
1136.51
1131.67
949.794
948.54
1148.53
1250.92
1072.53
1172.53
1146.52
1248.79
1071.84
1170.72
966.812
1117.87
1017.53
1125.08
965.156
1115.1
1015.82
1123.17
1246.38
1235.26
1223.06
1177.61
1247.88
1236.54
1222.3
1179.1
1223.42
1189.83
1217.93
1152.02
1224.71
1191.9
1215.75
1153.77
865.707
882.298
880.753
847.56
8799.9
7745.98
5154.12
5137.59
4653.9
4640.15
3960.61
3946.23
3309.65
3305.99
2216.99
2479.55
1956.27
2178.5
2247.71
2497.16
1989.45
2193.51
1522.02
1674.46
1751.15
1936.12
1547.78
1687.7
1783.68
1951
1329.98
1452.23
1140.87
1216.37
1349.03
1459.65
1154.92
1220.14
783.063
879.013
950.161
842.399
1009.76
1104.74
801.604
885.393
954.953
850.645
1014.82
1106.42
867.579
882.323
883.469
844.804
851.681
780.31
858.832
796.641
9773.28
10768
11741
12733.2
13726.2
14671.3
-9.46861
-8.75331
-8.02033
-7.24508
-6.5658
-5.51692
6.77601
156.272
386.868
742.498
742.389
524.213
524.881
1024.2
1020.43
854.929
850.374
1142.31
1128.18
1072.72
1070.06
1141.9
1129.11
1071.63
1070.67
951.236
994.052
1006.43
1024.71
948.711
993.304
1005.48
1024.44
1163.82
1164.62
1167.74
1166.55
9703.52
8734.9
6117.97
6114.55
5651.88
5630.7
5101
5081.69
4568.79
4549.79
3293.53
3797.71
2965.15
3426.95
3304.6
3800.83
2997.97
3436.42
2473.54
2745.91
2732.99
3080.81
2500.96
2756.81
2763.15
3091.41
2189.92
2357.62
1967.11
2128.96
2216.19
2370.13
1996.98
2141.8
1555.91
1682.99
1767.56
1908.26
1581.1
1693.48
1794.9
1920.57
10636.1
11596.3
12567.3
13592.3
14609.1
15518.3
-9.46374
-8.73364
-7.99798
-7.16869
-6.49657
-5.45649
-1.12893
73.1209
254.396
255.006
126.566
126.883
657.013
654.004
441.748
442.415
787.148
847.29
852.616
760.478
785.916
845.334
851.872
758.387
730.942
610.85
669.869
686.321
729.55
609.813
668.916
683.035
1098.45
1099.97
1032.73
1050.19
1100.37
1101.35
1033.99
1050.86
930.805
932.229
971.276
1001.38
930.412
931.611
969.517
1000.87
10591.1
9701.55
8745.42
6119.37
6095.01
5581.44
5563.66
5035.85
5015.09
4450.79
4454.31
3280.22
3600.57
2988.84
3242.32
3293.42
3604.91
2997.59
3252.5
2472.02
2622.41
2731.14
2909.76
2491.38
2633.53
2746.89
2919.94
2238.1
2307.03
2260.36
2318.59
11484.8
12392.8
13387.7
14460.3
15471.3
16269.8
-9.45757
-8.70383
-7.97792
-7.09138
-6.38366
-5.61682
-3.21407
17.8289
183.016
182.318
68.5793
68.4631
522.597
594.109
526.172
428.945
521.749
592.695
523.953
427.837
377.263
375.555
721.37
816.626
796.367
750.249
721.105
818.467
796.326
749.827
658.038
590.729
593.454
679.417
657.79
588.097
593.137
678.092
888.375
887.595
891.445
887.878
11458.2
10619.9
9769.27
6972.06
6983.31
6426.11
6429.99
6039.27
6031.31
5536.49
5519.5
4294.04
4221.46
4489.84
4029.34
4299.67
4237.64
4495.51
4037.08
4048.99
3475.74
3795.91
3746.13
4052.04
3479.74
3795.12
3746.13
3246.78
3442.75
2990.89
3133.09
3253.77
3440.49
2994.99
3136.24
2467.44
2545.73
2712.44
2825.89
2481.82
2555.38
2725.04
2833.87
12278.1
13169.6
14209.3
15351.4
16226.8
-9.45414
-8.65782
-7.94286
-7.0319
-6.2754
-5.46063
-3.62941
7.24221
7.24278
0.419665
0.43132
144.36
158.247
91.6721
103.236
144.562
158.157
92.0388
103.175
50.2509
50.1874
495.778
517.002
439.066
395.984
493.109
516.418
438.457
395.624
216.25
233.868
284.651
305.644
216.604
233.55
284.951
305.318
636.279
538.788
561.937
627.593
636.513
537.381
561.58
627.271
12270.8
11486.3
10700.5
9880.53
6929.79
6924.53
6428.08
6413.97
6063.98
6046.95
4488.66
4814.72
5008.99
4645.64
4503.8
4819.39
5009.19
4646.89
4187.99
4324.96
4411.57
4091.84
4189.35
4336.66
4416.53
4093.76
3945.97
3543.56
3715.29
3826.37
3941.69
3541.48
3708.32
3818.37
3276.03
3454.39
3285.71
3449.35
13045.9
13934.1
15108.7
16118.6
-9.45643
-8.61087
-7.87444
-7.01809
-6.07524
-6.51738
-1.40238
-1.38197
-1.48556
-1.4714
8.76213
8.67153
1.49724
1.49253
109.416
116.441
58.0124
62.1977
109.374
116.502
58.0297
62.191
27.9417
21.0266
22.1315
27.7719
27.9321
21.0633
22.1139
27.7873
451.31
481.364
387.892
364.625
449.076
480.549
387.428
364.442
180.754
185.472
247.868
253.554
180.67
185.398
247.422
253.326
13042.8
12306.5
11564.6
10809.8
7680.42
7682.76
7265.67
7260.28
6790.28
6793.37
5260.42
5607.11
5322.62
5813.74
5277.72
5612.91
5351.01
5821.18
5036.52
5333.5
4865.28
5110.64
4696.25
4904.64
5067.65
5342.3
4886.01
5118.36
4701.83
4906.76
4568.28
4676.68
4578.47
4681.68
4211.72
4329.79
4407.18
4130.8
4214.59
4345.52
4412.37
4137.64
13794.9
14769
15876.1
-9.45491
-8.59182
-7.7853
-6.91971
-5.85046
-5.14289
-1.42284
-1.43664
-0.851326
-0.852051
23.1968
28.5341
25.9392
11.222
11.0408
29.7477
28.4915
23.1337
29.7233
25.8933
11.0548
10.9529
3.71725
3.8849
4.79657
4.36892
3.89022
3.97584
4.80767
4.34036
95.0773
101.163
48.4118
53.7732
95.0794
101.187
48.3973
53.7621
30.3113
30.2766
30.3012
30.2604
344.934
321.884
344.597
321.705
151.072
157.464
151.353
157.557
13777.5
13091.5
12381.3
11686.9
8530.29
8542.7
8113.57
8114.81
7664.31
7659.85
7199.76
7204.12
5977.83
5660.91
6211.63
5634.12
5736.52
5441.21
5987.56
5720.52
6231.31
5653.54
5742.73
5456.1
5365.27
5502.35
5379.03
5508.63
5163.49
5267.55
4986.6
4720.96
5081.09
4803.37
5184.97
5275.07
4997.68
4742.65
5086.15
4810.82
4540
4604.66
4555.49
4609.86
14556
15555.5
-9.42419
-8.55985
-7.66742
-6.82728
-5.37347
-4.32179
-4.5931
-5.47945
-5.59023
2.45371
2.61636
-1.45543
-1.58826
32.8754
25.6036
28.4822
34.5317
19.1041
20.2176
32.8087
25.6433
34.4876
28.5227
18.8867
20.1134
6.51704
6.56188
11.3419
11.1755
6.78359
6.70693
11.1775
11.1128
41.9023
42.123
41.8676
42.0912
14494.9
13821.8
13164.9
12505.4
11847.3
8491.71
8497.24
8132.29
8117.88
6361.25
6914
6301.28
6734.02
6394.05
6923.96
6328.73
6745.16
5910.35
5740.49
6292.46
6068.98
6457.2
6101.27
5935.35
5765.47
6303.15
6109.05
6470.92
6112.74
5912.44
5655.02
5732.36
5542.98
5918.36
5659.82
5745.18
5552.96
5390.49
5468.13
5402.04
5472.85
5218.32
5303.14
4788.57
4872.4
5239.38
5309.56
4805.35
4878.44
15341
-9.40327
-8.52572
-7.57955
-6.45507
-7.78993
-6.12037
-6.97229
-8.14172
-8.46415
5.18185
6.44416
7.13591
4.04889
5.96103
7.17918
7.53037
5.1708
-1.91229
-1.65089
9.16444
9.42421
13.9024
15.046
9.60224
9.70756
14.011
15.0477
15255.7
14548.5
13888.3
13282.8
12663.4
9330.9
9353.63
8861.88
8863.85
8435.27
8437.93
8046.59
8042.21
6510.28
6890.04
6466.09
6685.38
6535.36
6899.3
6487.04
6693.76
5880.06
6105.1
6092.62
6315.88
6297.69
6486.12
5902.23
6120.87
6322.06
6101.65
6314.79
6493.3
5720.67
5607.37
5724.42
5617.13
-9.38665
-8.50199
-7.63626
-7.35661
-6.17574
-6.30123
-6.21448
-6.24627
-3.39923
-3.79642
-5.29053
-5.67842
2.34931
5.77173
6.41441
2.11554
2.965
6.98331
7.20954
3.20874
-1.42444
-1.64684
-0.106712
0.0044308
-1.30145
-1.49029
1.0201
0.507257
8.09832
8.3731
9.03972
9.11347
15259.8
14634.1
13991.7
13444.5
12828.1
9208.38
9220.77
8932.32
8916.08
8492.6
8477.77
7423.08
6775.91
7228.11
6804.25
7422.53
6777.01
7229.85
6801.37
6646.1
6868.57
6523.68
6692.8
6668.5
6876.49
6544.56
6700.47
-9.38088
-8.56244
-8.05984
-7.9968
-5.37933
-5.45846
-5.8212
-5.84925
-1.2514
-1.29087
-3.06826
-1.87652
-1.951
-2.66007
-1.17032
-1.2288
-3.09764
-1.74292
-1.85635
-2.77025
-4.22982
-4.38905
2.19359
4.32074
5.15009
1.84623
3.00078
5.68121
5.80323
3.38548
-0.663187
-0.56036
-0.229196
-0.414302
15329.8
14726.6
14157.2
13633
10077.7
10095.6
9588.62
9595.62
9097.6
9106.72
8889.65
8861.41
7100.43
7785.86
7068.74
7570.7
6890.33
7371.02
7143.75
7794.54
7084.88
7576.11
6883.6
7369.72
6880.65
7119.81
6887.3
7122.32
6721.64
6936.7
6742.97
6942.17
-9.40909
-8.74743
-8.46502
-6.16627
-6.18057
-6.35274
-6.36549
-5.50746
-5.54459
-5.84435
-5.87091
-1.38267
-1.35662
-2.90552
-2.00986
-2.02541
-2.5969
-1.1926
-1.26451
-2.86691
-1.73269
-1.95755
-2.50345
-4.07845
-4.63486
-3.58691
-3.9334
-4.19022
-4.65517
-3.64397
-3.95603
15434.5
14880.8
14385.7
13828
10044.3
10043.2
9693.26
9666.21
9227.89
9211.05
7196.55
7740.65
8100.05
7452.97
7987.48
7455.29
8098.7
7449.65
7985.14
7453.04
7210.71
7744.03
7185.51
6986.25
7548.21
7274.86
7189
7002.27
7548.37
7278.9
6899.85
7118.23
6914.93
7120.95
-9.45316
-8.99289
-8.63171
-6.27062
-6.27387
-6.31473
-6.32362
-4.36388
-4.87438
-5.51209
-4.95463
-5.26573
-5.01144
-4.43503
-4.88388
-5.5229
-4.99592
-5.27514
-5.05562
-6.1655
-6.17761
-3.1106
-3.0323
-3.1397
-2.96076
-4.28774
-4.5254
-4.30055
-4.54484
15594.9
15110
14617.7
10850.4
10857
10417.4
10422.5
10057.4
10054.9
9601.84
9586.81
7749.19
8388.31
7754.18
8248.54
7554.03
8099.56
7783.21
7552.97
8098.42
8395.96
7769.88
8253.29
7381.34
7701.79
7562.82
7932.78
7564.54
7390.78
7933.41
7703.39
-9.53656
-9.04918
-8.61201
-6.25986
-6.25821
-6.2925
-6.29725
-4.96552
-5.1575
-5.56838
-5.36115
-5.53662
-5.21838
-4.98471
-5.16902
-5.57627
-5.3741
-5.53967
-5.25857
-5.20941
-5.68822
-5.34389
-5.58313
-5.23421
-5.69154
-5.36554
-5.58678
-4.84757
-5.02881
-4.85135
-5.03727
15826.7
15371.7
14845.5
10892.7
10883.1
10522.8
10507.3
9980.57
9981.92
7894.22
8415.72
8632.32
8109.51
8578.91
8066.07
7915.86
8423.9
8636.56
8106.45
8579.17
8071.63
7918
7709.62
8259.82
8006.64
7726.13
8010.23
7923.2
8262.45
-9.57118
-9.09508
-6.43627
-6.32995
-6.31568
-6.43131
-6.60657
-6.61039
-6.23073
-5.27611
-5.60504
-6.23087
-5.28996
-5.60697
-5.39671
-5.50277
-5.58284
-5.55148
-5.68589
-5.44444
-5.41643
-5.51917
-5.58398
-5.54477
-5.6831
-5.45548
-5.36849
-5.52176
-5.38225
-5.52415
16085.9
15645.1
15113.2
10958.7
10954.9
10472.2
10470
8320.65
8911.27
8386.9
8845.53
8236.96
8732.1
8360.82
8241
8734.77
8924.35
8414.91
8855.8
8066.18
8330.04
8250.05
8588.36
8087.11
8336.44
8262.48
8592.41
7979.45
8241.2
7994
8245.81
-9.58904
-9.11677
-6.29065
-6.46977
-6.28111
-6.45786
-6.68101
-6.68353
-5.27837
-5.24803
-5.49028
-5.24444
-5.53962
-5.51521
-5.09491
-5.50419
-5.24877
-5.27373
-5.49272
-5.25716
-5.54372
-5.5112
-5.12141
-5.51247
-5.57353
-5.47549
-5.57199
-5.47287
-5.293
-5.5187
-5.29687
-5.51783
16354.4
15894.3
11815.9
10946.6
10928.6
11830.5
11328.4
11333.9
10366.1
8470.96
8998.38
10372.2
8504.59
9012.64
8339.99
8563.01
8570.98
8917.96
8364.38
8579.42
8579.45
8926.03
8118.14
8406.33
8225.4
8492.37
8140.72
8412.03
8250.62
8498.98
-9.6257
-9.13769
-6.27491
-5.47155
-5.17997
-6.4318
-6.26305
-5.47408
-5.17705
-6.40981
-6.62946
-6.63123
-5.26121
-5.22864
-5.22995
-5.51998
-5.40523
-5.43094
-5.24331
-5.22708
-5.21741
-5.51747
-5.40309
-5.42507
-5.56915
-5.42041
-5.56701
-5.41476
16607.8
16098.7
11825.8
10814.9
10816.4
11819.3
11424.6
11407.9
8682.55
8425.1
8876.39
8421.87
8893.78
9193.41
8610.17
9219
8711.86
8463.51
8891.56
8460.19
8908.11
9204.54
8651.29
9231.74
8432.89
8565.87
8661.61
8860.22
8442.71
8666.05
8585.39
8868.42
-9.70142
-6.7623
-6.60832
-6.59569
-6.76078
-7.02548
-7.03752
-5.14274
-5.44678
-5.23906
-5.41909
-5.18181
-5.51791
-5.26107
-5.4844
-6.34115
-5.23867
-5.51582
-5.15314
-5.44157
-5.23576
-5.41884
-5.16944
-5.51794
-5.26888
-5.48626
-6.33107
-5.243
-5.5153
-5.19204
-5.19092
-5.38464
-5.41823
-5.18676
-5.1742
-5.3811
-5.41415
16845.6
16278.4
11850.8
10824.8
9327.74
8815.93
10825.5
9334.69
8830.54
11843.5
11352.3
11333.4
8619.82
8907.59
8534.6
8885.75
8841.03
9280.98
8657.06
8916.39
8563.36
8852.24
8899.5
9285.22
8473.66
8714.01
8485.49
8719.08
-9.81281
-6.59766
-6.72868
-6.58065
-6.72894
-7.06429
-7.07576
-5.18469
-5.22124
-5.36403
-5.42537
-5.23495
-5.44188
-5.32272
-5.24752
-5.41586
-5.21436
-5.46332
-5.52976
-5.26163
-5.63436
-5.17782
-5.22867
-5.4228
-5.36708
-5.24805
-5.44468
-5.25654
-5.32068
-5.41963
-5.22592
-5.46464
-5.5297
-5.25609
-5.62813
17083.4
12381.3
11781.6
11753.9
12419.2
12061.5
12054.7
8995.99
9258.54
8772.88
9304.85
8763.7
9696.25
9020.74
9569.74
9049.5
9263.94
8790.63
9311.36
8775.53
9715.95
9048.74
9579.45
11166.9
9161.69
9733.74
11155.7
9203.19
9748.95
8766.57
8883.64
9045.29
9224.87
8791.57
8881.8
9053.4
9226.6
-9.85101
-6.55545
-5.63929
-5.38815
-6.64286
-6.53296
-5.63264
-5.37363
-6.64423
-7.02966
-7.04379
-5.15477
-5.36169
-5.18512
-5.39937
-5.25755
-5.35749
-5.16069
-5.36402
-5.32353
-5.51135
-5.17118
-5.36677
-5.1986
-5.40543
-5.27917
-5.17979
-5.34434
-5.3718
-5.33107
-5.5065
16980.5
12419.9
11747.6
11712
12458.5
12134.3
12126.1
8801.55
8952.25
9196.86
9272.8
9243.93
9578.43
8813.98
8970.21
9201.18
9279.27
9262.81
9584.3
9320.77
9163.64
9621.16
9120.62
9629.41
9756.29
9389.17
10006.1
9310.12
9180.3
9626.51
9165.61
9642.49
9750.88
9408.14
10015
-10.4943
-6.85313
-6.86799
-6.45545
-5.59205
-5.33433
-5.54121
-5.37155
-6.48237
-6.43747
-5.58504
-5.32215
-5.53509
-5.35699
-6.48265
-5.14042
-5.18239
-5.31882
-5.3024
-5.28446
-5.48031
-5.16932
-5.20274
-5.30933
-5.31277
-5.29175
-5.47549
17138.4
12436.3
11817.7
9937.64
9492.42
11779.3
9929.73
9470.31
12474.8
12156
12147.1
9116.16
9379.15
9232.13
9531.19
9127.38
9381.33
9238.65
9532.76
9356.13
9527.08
9201.26
9612.65
9508.15
9826.39
9359.93
9481.36
9198.34
9505.41
9609.34
9808.12
-9.93175
-6.98838
-6.83931
-6.99857
-6.84544
-6.3051
-5.42012
-5.29121
-5.50024
-5.22128
-5.28752
-5.44696
-6.47774
-6.2897
-5.41466
-5.28758
-5.4956
-5.21417
-5.28163
-5.44418
-6.47339
-5.15298
-5.2797
-5.17373
-5.28633
17238.9
12432.4
12466.2
11815.7
9823.7
9397.2
9781.55
9459.01
11793.7
9824.93
9392.13
9777.73
9453.4
12121.7
12104.4
9512.22
9216.89
9576.07
9753.2
9527.95
9866.18
9521.89
9216.4
9543.66
9521.67
9752.26
9856.59
-10.2076
-6.6926
-7.02541
-6.70223
-7.03765
-6.48593
-6.48224
-6.20292
-5.30691
-4.97092
-5.16649
-5.11877
-5.33173
-5.23617
-5.40477
-5.15667
-5.13806
-5.2836
-6.18576
-5.30247
-4.97184
-5.16309
-5.11408
-5.33009
-5.23246
-5.40381
-5.15201
-5.15605
-5.28949
17265.2
12453.1
12493.6
12473.4
12513.6
11767.3
9715.92
9364.7
9761.44
9338.03
9555.96
9922.34
11727.6
9702.53
9356.52
9751.16
9325.76
9546.56
9930.87
12142.3
12123.4
9575.92
9821.89
9593.59
9828.02
-9.76828
-7.04947
-7.06596
-7.06293
-7.07714
-6.50329
-6.60947
-6.5034
-6.61155
-6.13771
-6.12428
-5.11574
-4.89292
-5.10265
-4.88879
-5.26078
-4.97507
-5.14769
-5.08529
-5.26412
-5.10266
-5.29065
-5.05587
-5.11298
-4.89727
-5.10153
-4.88671
-5.25907
-4.97358
-5.14604
-5.0835
-5.2673
-5.11873
-5.29554
-5.06962
17116.7
12499.2
12471.1
12515.4
12487.9
12169.1
12151
11684.9
9685.91
9256.23
9684.29
9325.32
9939.31
9532.99
9937.73
9520.06
9548.82
9853.61
11643.5
9679.15
9241.26
9687.3
9314.05
9924.45
9526.19
9941.22
9512.39
9577.07
9880.58
-9.72418
-7.05905
-7.10138
-7.07061
-7.11375
-6.65254
-6.71935
-6.65414
-6.71977
-6.1766
-6.31406
-6.16581
-6.30145
-5.01357
-4.78293
-5.04404
-4.73756
-5.00987
-4.77852
-5.03883
-4.73371
-5.02612
-4.89837
-5.05214
-4.90211
-5.02627
-4.89682
-5.05062
-4.90699
16965.5
12420.6
12413.6
12440.2
12443.4
12202.9
12146.6
12178.1
12133
11731.9
11680.9
9923.2
9280.35
9871.65
9410.86
9888.54
9335.87
9762.91
9478.66
9950.36
9559.29
9908.26
9557.55
9917.36
9261.16
9867.59
9371.03
9863.2
9341.98
9750.75
9452.23
9963.72
9587.47
9936.53
9572.19
-9.1573
-9.60606
-6.78225
-6.79616
-6.78205
-6.79769
-6.37662
-6.48065
-6.36381
-6.4632
-5.1853
-4.90897
-5.13659
-4.99134
-5.24462
-5.13732
-5.32739
-5.06026
-5.18336
-4.90849
-5.13375
-4.98941
-5.24238
-5.14153
-5.32642
-5.0573
-4.87088
-4.89917
-4.87168
-4.91266
-4.87241
-4.89494
-4.86979
-4.91642
17065.9
12410.9
12355.1
12442.9
12390.6
12149
12129.5
12127.8
12122.6
11757.1
11671
11706.6
11639.3
9995.88
9492.96
9997.48
9484.72
9986.4
9471.14
9989.81
9458.33
10040.9
9313.2
9869.85
9566.82
10028.8
9352.43
9876.45
9515.7
-9.12037
-6.61822
-6.60641
-6.60364
-6.60253
-9.54976
-6.56698
-6.60263
-6.54324
-6.58474
-5.47146
-5.19034
-5.38846
-5.28259
-5.5203
-5.37281
-5.58931
-5.33079
-5.46881
-5.19551
-5.38881
-5.27815
-5.51566
-5.36214
-5.58243
-5.3208
-5.13666
-4.93761
-5.06187
-4.98093
-5.22167
-5.10653
-5.29351
-5.04598
-5.13623
-4.9352
-5.05993
-4.9845
-5.2219
-5.1095
-5.2939
-5.05105
16851.6
16235
12129.8
12013.8
12117.1
12013.2
11751
11755.5
11694.9
11720.8
10006.9
9528.22
10035.2
9518.05
9983.72
9425.3
9932.15
9493.08
10005
9508.47
10024
9505.59
9986.38
9433.06
9929.49
9492.62
10006.4
9615.81
10009.4
9611.66
10000
9599
10003.2
9589.27
-9.0455
-6.64262
-6.57289
-6.64747
-6.57886
-6.3013
-6.34331
-6.28908
-6.32036
-9.54037
-5.63628
-5.39962
-5.6246
-5.3932
-5.72652
-5.29284
-5.67276
-5.41845
-5.62864
-5.38247
-5.61687
-5.3774
-5.71759
-5.28845
-5.66789
-5.40013
-5.37086
-5.13203
-5.30395
-5.19857
-5.42307
-5.31142
-5.4747
-5.25115
-5.37053
-5.13756
-5.30499
-5.20141
-5.41941
-5.30273
-5.47134
-5.24555
16591.8
16081.5
11746.1
11804.6
11724.5
11797.4
11803.7
11680.6
11766.6
11638.5
9905.75
9421.14
9947.98
9387.87
9833.85
9370.41
9768.52
9379.37
9910.54
9423.53
9962.5
9367.12
9810.38
9370.09
9760.61
9346.37
10028.3
9636.88
10023.8
9636.81
10009
9570.66
9968.65
9615.12
10024.1
9628.43
10018.9
9627.15
10008.1
9575.97
9971.68
9611.15
-8.47671
-8.91755
-6.31983
-6.26942
-6.30839
-6.26059
-5.18754
-5.29932
-5.35822
-5.09693
-5.3459
-5.50353
-5.04093
-5.42415
-5.13347
-5.45266
-5.19444
-5.28886
-5.36195
-5.1115
-5.34999
-5.49982
-5.05153
-5.42426
-5.1367
-5.4519
-9.50409
-5.50325
-5.32498
-5.49004
-5.32667
-5.54336
-5.34308
-5.4949
-5.31593
-5.48584
-5.3083
-5.53301
-5.31663
-5.29511
-5.16131
-5.31511
-5.13961
-5.2992
-5.18658
-5.32238
-5.15628
16331.3
15876.9
11789.5
11807.9
11785.9
11823.9
11091.7
11294.4
11086.5
11280.6
9779.44
9427.91
9760.78
9448.23
9894.2
9390.2
10009.6
9474.19
9777.53
9422.71
9760.72
9439.66
9883.88
9416.04
10016.9
9446.41
9948.91
9547.71
10006.5
9440.16
9625.28
9308.71
9712.99
9256.13
9949.4
9551.75
10021.3
9417.56
9611.18
9299.68
9710.03
9227.8
-8.32971
-5.96526
-5.98558
-5.95255
-5.98222
-8.89547
-6.02257
-5.99434
-6.00914
-5.97763
-5.21665
-5.08186
-5.31343
-5.28646
-4.99716
-5.22019
-5.04898
-5.30132
-5.01456
-5.27961
-5.22754
-5.086
-5.31698
-5.29076
-5.00857
-5.22711
-5.05623
-5.30271
-5.02154
-5.28257
-9.4271
-5.3258
-5.16785
-5.3203
-5.17334
-5.33133
-5.17739
-5.32725
-5.18794
-5.32595
-5.18332
-5.33307
-5.18518
16050.3
15617.7
15074
11403.2
11324
11387.5
11328
9030.8
9157.92
9463.51
9029.03
9530.77
9562.74
8961.45
9634.44
9083.86
9652.28
9151.04
9070.05
9480.49
9089.65
9551.06
9565.01
9004.99
9641.19
9134.83
9673.44
9602.07
9346.19
9657.5
9356.99
9569.5
9296.39
9600.2
9352.8
9660.13
9354.61
9564.19
9277.91
9737.7
9440.27
9800.55
9321.15
9726.33
9445.14
9797.74
9302.26
-8.30541
-5.97711
-6.03986
-5.97804
-6.05051
-5.68351
-5.75665
-5.68321
-5.74805
-8.64405
-5.16107
-5.01604
-5.19349
-4.89538
-5.19635
-4.7842
-5.18795
-4.85872
-5.16023
-5.02195
-5.19534
-4.89519
-5.19381
-4.80184
-5.19373
-4.85279
-5.09381
-5.29423
-4.97958
-5.12229
-4.92562
-5.15338
-5.10796
-5.29903
-4.99483
-5.12915
-4.94023
-5.15957
-9.41963
15782.6
15328.2
14816.4
10917.5
10924.9
10899
10923.8
10814.5
10819
10810.5
10824.2
9169.97
9178.76
9445.38
9315.66
9213.29
9523.17
8989.26
9548.83
9203.14
9601.09
9212.48
9207.73
9328.51
9456.17
9231.45
9531.9
9011.88
9556.47
9227.51
9610.02
9619.44
9416.66
9742.86
9400.95
9445.52
9294.32
9622.05
9427.15
9744.76
9424.37
9451.45
9315.78
-7.71901
-7.84178
-5.74144
-5.76679
-5.73729
-5.76987
-4.70339
-4.83273
-4.97187
-4.66764
-4.99663
-5.06789
-4.60065
-5.03153
-4.68593
-5.05318
-4.74304
-4.83859
-4.98715
-4.69218
-5.00756
-5.07199
-4.6124
-5.03638
-4.69821
-5.05983
-8.60889
-5.09198
-4.87305
-5.15646
-4.80702
-5.03789
-4.8021
-5.09255
-4.87823
-5.15779
-4.8056
-5.0407
-4.81016
-9.41173
15552.6
15061.8
14571.5
10870.6
10828.5
10867.6
10836.6
10374.9
10450.9
10370.2
10450.6
9351.56
8808.74
9327.3
8827.62
9427.35
8633.69
9305.82
8848.79
9353.16
8816.82
9328.59
8831.3
9433.75
8669.38
9312.96
8862.34
9146.02
9318.69
8918.28
9260.52
9038.46
9342.78
9194.54
9332.9
8925.89
9262.01
9052.44
9347.26
-6.82366
-5.60596
-5.61121
-5.60215
-5.61861
-7.75841
-5.57691
-5.59609
-5.57131
-5.59037
-4.84627
-4.66987
-4.97082
-4.92107
-4.67557
-4.89715
-4.56148
-4.78072
-4.62135
-4.81999
-4.8754
-4.70576
-4.98188
-4.93432
-4.69677
-4.90603
-4.57586
-4.78614
-4.63817
-4.82655
-8.61826
-4.99186
-4.81535
-5.0001
-4.84548
-9.41976
15400.5
14840.7
14339.6
13773.1
10512.1
10386.3
10499.7
10394.6
8410.94
8677.19
8873.38
8407.16
8858.77
9229.86
8321.47
8903.26
8464.44
8966.85
8693.18
8450.84
8888.3
8451.81
8883.67
9236.77
8358.75
8916.04
8497.29
8981.15
9241.04
8858.53
9200.82
8931.47
9266.73
8902.9
9238.66
8857.49
9198.36
8925.33
9269.92
8913.5
-6.7443
-6.71872
-5.3268
-5.89727
-5.30648
-5.8921
-7.80486
-4.82486
-4.31796
-4.63575
-4.3885
-5.06514
-4.82045
-4.31694
-4.63599
-4.38171
-5.04252
-4.70387
-4.85291
-4.44357
-4.5767