/*--------------------------------*- C++ -*----------------------------------*\
| =========                 |                                                 |
| \\      /  F ield         | OpenFOAM: The Open Source CFD Toolbox           |
|  \\    /   O peration     | Version:  5.x                                   |
|   \\  /    A nd           | Web:      www.OpenFOAM.org                      |
|    \\/     M anipulation  |                                                 |
\*---------------------------------------------------------------------------*/
FoamFile
{
    version     2.0;
    format      ascii;
    class       volScalarField;
    location    "1.3";
    object      p_rgh;
}
// * * * * * * * * * * * * * * * * * * * * * * * * * * * * * * * * * * * * * //

dimensions      [1 -1 -2 0 0 0 0];

internalField   nonuniform List<scalar> 
12160
(
5658.12
5664.87
5658.07
5669.51
5664.65
5658.46
5672.37
5669.58
5666.18
5658.05
5674.81
5672.36
5670.36
5665.45
5659.02
5678.71
5674.5
5672.53
5670.7
5668.38
5658.17
5686.04
5678.12
5674.03
5672.63
5672.32
5668.37
5659.13
5696.34
5685.2
5677.09
5673.12
5673.14
5673.51
5673.33
5657.35
5708.55
5695.86
5684.19
5675.2
5672.11
5673.8
5676.15
5673.59
3727.28
5720.09
5708.55
5695.15
5681.56
5672.76
5670.72
5675.15
5670.82
3935.67
182.747
5728.3
5720.65
5708.83
5693.4
5679.17
5669.15
5669.16
5659.8
3930.81
182.632
5.73306
5731.06
5729.38
5722.1
5708.73
5691.57
5674.1
5664.37
5632.02
3879.22
239.695
0.120749
0.0873083
5727.35
5732.14
5731.84
5723.84
5709.01
5687.84
5668.93
5603.97
3742.44
293.095
0.581096
0.0164671
-0.0419962
5717.31
5728.66
5735.79
5735.16
5726.8
5708.38
5683.87
5595.76
3615.76
312.286
0.980999
-0.0045162
0.00643642
0.0248206
5701.79
5718.53
5731.99
5739.34
5740.44
5729.82
5708.25
5617.52
3599.18
310.446
1.9226
-0.00841782
0.0133301
0.00689627
-0.0239844
5682.4
5702.72
5721.35
5736.18
5746.66
5746.6
5734.62
5666.61
3703.71
341.396
2.84887
0.0240471
0.00154604
-0.00176109
-0.00142367
5660.87
5682.9
5704.8
5725.13
5743.07
5753.73
5755.49
5720.72
3908.11
412.282
4.30117
0.0583917
0.0185757
-0.000796672
0.00495772
5638.92
5660.9
5684.06
5707.57
5731.04
5751.11
5765.7
5761.46
4128.65
537.011
6.85798
0.0792753
0.0366733
0.0110066
-0.000436781
5618.11
5638.49
5661.07
5685.46
5711.91
5738.18
5761.91
5775.5
4293.71
710.997
11.7077
0.0806119
0.0455676
0.0210871
0.00284255
5599.71
5617.27
5637.72
5661.01
5687.87
5717.1
5747.42
5774.95
4371.04
881.789
20.3943
0.0646723
0.0359894
0.0260092
0.00454106
5584.7
5598.52
5615.65
5636.24
5661.38
5690.49
5723.72
5759.22
4351.75
968.353
32.61
0.0496367
0.00574229
0.0196731
0.0046226
5573.73
5583.23
5596.19
5612.91
5634.68
5661.31
5693.9
5732.63
4227.93
962.683
42.7243
0.0634599
-0.0410872
0.00256473
0.00100829
5567.22
5572.06
5580.33
5592.4
5609.65
5632.08
5661.48
5698.42
4023.3
882.667
44.5117
0.10751
-0.0868934
-0.0237921
-0.00553268
5565.29
5565.41
5568.75
5575.71
5587.73
5604.81
5629.26
5661.72
3769.11
756.139
38.281
0.136584
-0.110731
-0.048131
-0.0137215
5567.88
5563.42
5561.84
5563.53
5569.94
5581.03
5599.47
5625.75
3491.08
621.001
27.4401
0.0953013
-0.113904
-0.0620449
-0.019118
5574.75
5566.02
5559.71
5556.21
5556.95
5561.79
5573.68
5592.67
3212.74
495.172
18.052
0.0438861
-0.0947128
-0.0646234
-0.02143
5585.47
5572.95
5562.31
5553.9
5549.12
5547.75
5552.94
5564.09
2952.59
388.263
11.371
0.0215789
-0.0629497
-0.0549459
-0.0206977
5599.49
5583.8
5569.38
5556.5
5546.55
5539.23
5537.82
5541.1
2724.75
304.045
7.02693
0.0227232
-0.0319785
-0.0372964
-0.017689
5616.16
5598.02
5580.49
5563.75
5549.15
5536.32
5528.61
5524.29
2539.18
241.765
4.41077
0.0378407
-0.00521579
-0.0193526
-0.0123222
5634.72
5614.95
5595.11
5575.25
5556.66
5538.91
5525.36
5513.97
2402.19
198.496
2.90123
0.0563868
0.0174973
-0.00340569
-0.00662076
5654.35
5633.83
5612.56
5590.44
5568.66
5546.73
5527.91
5510.17
2317.05
170.746
2.04863
0.0734392
0.0355855
0.0101538
-0.00135772
5674.2
5653.83
5632.08
5608.66
5584.61
5559.38
5536.03
5512.72
2284.58
155.31
1.58509
0.087622
0.0495873
0.0209795
0.00320482
5693.4
5674.09
5652.84
5629.14
5603.84
5576.31
5549.3
5521.36
2303.11
149.897
1.35711
0.0971212
0.0604663
0.0293219
0.00683161
5711.13
5693.73
5673.95
5651.02
5625.59
5596.87
5567.22
5535.68
2370.74
153.266
1.28238
0.102562
0.0674726
0.0357243
0.00963836
5726.63
5711.91
5694.49
5673.38
5648.96
5620.27
5589.12
5555.16
2483.95
165.467
1.33412
0.105997
0.0714717
0.0399348
0.0117611
5739.23
5727.84
5713.6
5695.27
5673.02
5645.6
5614.29
5579.08
2637.8
187.532
1.51818
0.106346
0.0738006
0.0424068
0.0131954
5748.41
5740.82
5730.43
5715.75
5696.75
5671.87
5641.79
5606.67
2826.06
221.138
1.87747
0.104268
0.0741376
0.0436853
0.0140364
5753.75
5750.3
5744.26
5733.93
5719.13
5697.98
5670.61
5636.99
3041.36
268.252
2.50291
0.0998206
0.0726284
0.0439052
0.0144622
5755.06
5755.81
5754.51
5748.98
5739.18
5722.86
5699.54
5668.96
3275.37
330.601
3.54
0.0916825
0.0692376
0.043081
0.014526
5752.36
5757.08
5760.76
5760.24
5755.98
5745.36
5727.42
5701.48
3519.06
409.246
5.21016
0.0804958
0.0629656
0.0409756
0.0142386
5754.21
5741.2
5762.8
5767.17
5768.82
5764.39
5752.97
5733.28
3762.96
504.128
7.83305
0.0679161
0.0538184
0.0372345
0.0135117
5760.38
5743.63
5705.34
5769.22
5777.22
5779.08
5774.79
5762.89
3997.46
613.659
11.8107
0.0555657
0.0422739
0.0317976
0.0122533
5765.6
5749
5707.37
5656.06
5781.26
5788.75
5791.99
5788.1
4212.44
734.456
17.5812
0.0478313
0.0277859
0.0248306
0.0104337
5782.78
5756.64
5711.67
5657.15
5599.11
5792.48
5803.86
5807.82
4398.16
860.529
25.514
0.051956
0.0105028
0.0161386
0.00808784
5786.56
5768.01
5718.02
5659.65
5599.47
5550.25
5810.78
5821.34
4547.25
983.798
35.6968
0.0750356
-0.00950257
0.00578112
0.005162
5816.3
5781.19
5726.99
5663.47
5600.47
5548.86
5488.68
5827.02
4652.7
1095.79
47.8396
0.129084
-0.0333973
-0.00641802
0.00160906
5823.07
5799.61
5738.13
5668.84
5602
5547.04
5484.15
5440.16
4711.74
1185.05
60.8806
0.223272
-0.0612982
-0.0207241
-0.0025527
4729.74
5815.79
5752.95
5675.55
5603.92
5544.64
5480.87
5439.31
5386.13
1231.6
70.5781
0.352405
-0.0925879
-0.0370359
-0.00730892
1232.65
4703.75
5744.9
5684.59
5606.05
5542.14
5478.61
5437.71
5364.26
5297.92
72.3712
0.453448
-0.124844
-0.054636
-0.0125916
68.0147
1170.86
4462.58
5627.95
5608.37
5539.65
5477.46
5434.12
5353.57
5265.7
5251.21
0.435274
-0.15141
-0.0717528
-0.0181036
0.324911
58.0471
863.942
4004.44
5477.25
5534.81
5475.43
5431.03
5356.25
5265.8
5175.57
5314.65
-0.162531
-0.0844529
-0.0233927
-0.154444
0.218241
31.7265
518.352
3434.07
5303.56
5466.43
5428.91
5372.84
5293.01
5144.78
5163.59
5102.61
5226.28
-0.0859855
-0.0280624
-0.0891609
-0.144868
0.0619725
13.448
292.101
2877.14
5122.98
5416.67
5385.63
5335.45
5175
5146
5138.31
4992.11
5043.62
5102
-0.0322639
-0.0315601
-0.0859703
-0.114585
0.00988998
5.82667
171.874
2414.61
4976.25
5380.2
5366.35
5277.71
5259.56
5208.51
5090.38
4795.3
4887.15
4982.28
5040.42
-0.0311506
-0.0700457
-0.0547358
0.0337072
2.95092
111.316
2090.62
4888.66
5381.42
5374.89
5363.86
5302.62
5187.92
4940.67
4500.62
4655.2
4822.04
4955.21
5029.24
-0.033513
-0.0393726
-0.00309141
0.0641488
1.77154
80.7452
1884.59
4950.85
5412.48
5421.49
5381.29
5288.34
5082.22
4728.67
4057.38
4268.5
4570.98
4799.6
4962.94
5072.63
-0.0287045
-0.00928661
0.0313403
0.0799972
1.18762
58.2035
1874.38
5100.43
5449.2
5423.62
5360.49
5201.79
4918.89
4419.16
3522
3726.01
4164.2
4556.44
4826.42
5016.56
5160.88
-0.0185938
0.0109174
0.0488372
0.0849263
0.770179
43.7441
1901.37
5340.38
5429.19
5393.5
5283.03
5067.15
4694.08
4011.84
2235.17
3040.23
2238.11
2584.45
2585.77
3592.06
4185.65
4610.71
4894.89
5106.86
5283.77
-0.00999923
0.0227194
0.0561999
0.0944119
0.468045
30.938
2070.59
5130.98
5398.97
5317.44
5166.07
4884.36
4422.16
3553.29
1933.09
1931.39
2919.1
1937.57
1727.81
1731.23
1929.86
2293.95
2291.94
3686.44
4304.22
4710.41
5000.22
5235.04
5436.65
-0.00349618
0.0287489
0.0646174
0.102889
0.306167
21.4458
1842.03
5134.35
5333.83
5218.8
5012.85
4669.92
4091.91
2475.47
2472.76
2838.67
2840.67
1581.71
1635.25
3161.93
2050.98
1584.72
1321.14
1325.71
1629.99
2057.68
2051.51
3939.56
4466.68
4838.25
5138.06
5391.48
5616.25
0.000679758
0.0346133
0.0736357
0.117809
0.236531
16.941
1679.8
5009.6
5235.76
5094.51
4820.78
4417.79
3167.54
3168.34
3461.2
3461.25
2276.38
2272.54
2683.9
2678.91
1214.32
1390.05
1086.28
1174.91
1287.85
3579.78
2408.97
781.809
796.8
702.255
722.08
1215.43
829.129
841.266
1388.61
1087.99
1174.44
1288.4
1619.15
1722.51
1897.77
1493.27
1616.5
1720.65
1894.99
1489.13
4212.16
4634.01
4993.74
5300.52
5569.38
5819.6
0.00379669
0.040946
0.0864244
0.148475
0.238644
12.7663
1309.04
4623.66
5128.09
4923.34
4603.1
3669.81
3668.2
3841.44
3841.68
3035.26
3027.73
3350.47
3341.58
1893.2
1714.07
1905.19
2038.89
2113.68
1738.63
1707.49
1906.89
1911.7
2046.55
2115.57
1739.11
2466.51
2544.69
2263.63
2340.18
2464.62
2542.99
2262.44
2339.9
772.507
881.715
960.809
681.033
1241.67
1039.01
1027.53
1245.9
3992.72
3101
1152.95
1159.91
915.83
927.22
495.182
519.799
387.826
407.516
774.866
883.17
960.641
687.852
600.728
335.398
483.983
493.531
606.872
352.774
493.029
506.632
1241.21
1042.48
1029.4
1250.22
1500.08
1473.05
1499.02
1469.98
4445.25
4811.85
5168.49
5478.34
5767.7
6039.02
0.00644744
0.0494971
0.108062
0.175135
0.269526
7.27929
814.889
4171.79
4959.8
4732.09
3979.13
3978.17
4154.71
4155.11
3565.17
3555.28
3745.99
3736.3
2617.3
2697
2746.96
2821.85
2616.04
2694.85
2748.8
2820.99
3086.68
3180.12
2908.43
2977.05
3087.16
3179.14
2908.18
2976.51
1688.43
1909.59
1883.49
1690.12
2067.2
2058.2
1688.75
1918.03
1692.96
1892.32
2071.99
2059.51
2463.82
2459.39
2271.67
2265.6
2463.09
2458.78
2269.98
2265.69
640.563
842.21
834.616
627.911
1217.08
1004.57
1017.16
1214.79
4299.09
3752.78
1672.46
1661.81
1417.3
1408.06
907.93
921.885
645.666
669.043
109.796
242.071
94.1811
189.278
126.884
247.317
100.246
191.051
121.767
295.001
159.322
120.316
231.269
342.814
130.201
306.846
164.617
119.088
232.83
352.453
644.384
840.035
836.044
631.486
473.891
403.29
482.464
425.257
1218.87
1013.31
1020.31
1217.4
1474.21
1445.45
1474.74
1441.93
4658.11
5008.26
5350.93
5666.66
5981.93
6267.99
0.00967305
0.0621023
0.129427
0.215251
0.28046
3.67473
458.397
3542.92
4702.3
4270.81
4272.25
4394.02
4394.82
3905.65
3900.8
4046.11
4044.84
3177.28
3279.69
3264.87
3364.91
3175.27
3277.56
3264.18
3363.09
3485.34
3636.46
3372.28
3479.85
3483.68
3633.67
3370.56
3477.94
2623.07
2611.95
2759.88
2714.42
2624.58
2613.24
2759.13
2715.92
3083.03
3049.44
2915.15
2849.24
3084.3
3051.49
2912.95
2850.98
623.2
801.887
800.346
605.051
4549.57
4151.74
2056.7
2045.46
1895.18
1881.46
1525.72
1512.19
1201.21
1197.45
364.164
616.172
263.028
480.447
394.243
633.795
296.469
495.464
145.087
297.494
214.975
399.455
170.827
310.735
247.46
414.352
112.002
234.235
80.9445
156.445
131.036
241.659
94.9911
160.21
217.368
115.379
186.538
276.715
102.264
197.248
235.94
121.791
191.339
284.969
107.32
198.921
625.072
801.922
803.065
602.298
446.469
375.106
453.616
391.421
4868.43
5208.98
5527.96
5866.22
6205.25
6496.34
0.0143842
0.0756912
0.154672
0.27592
0.301525
1.98374
215.477
2564.95
4152.4
4166.86
4166.73
4276.57
4277.22
3785.6
3781.82
3943.35
3938.76
3170.43
3156.31
3261.94
3259.29
3170.03
3157.24
3260.86
3259.9
3464.37
3507.21
3356.16
3374.46
3461.85
3506.46
3355.23
3374.2
3060.65
3061.44
3064.55
3063.38
4799.11
4485.75
2361.54
2358.7
2223.55
2206
2013.49
1993.74
1813.56
1795.6
787.28
1279.12
617.759
1072.18
800.108
1282.26
651.643
1081.66
456.191
717.14
548.681
888.427
482.924
728.043
579.262
899.042
339.621
498.049
275.978
431.74
365.519
510.576
305.841
444.592
179.231
306.296
231.375
371.443
204.417
316.78
258.743
383.744
5077.19
5383.29
5700.27
6071.32
6434.05
6689.34
0.0192614
0.095361
0.177021
0.352309
0.370395
1.09937
74.8073
1244.9
3729.87
3730.7
2818.47
2818.75
4069.61
4066.92
4125.77
4126.35
3623.32
3521.64
3527
3596.71
3622.07
3519.74
3526.27
3594.53
3730.11
3773.28
3833.41
3685.25
3728.72
3772.1
3832.43
3681.67
3138.72
3140.24
3223.68
3241.14
3140.66
3141.64
3224.96
3241.82
3437.94
3439.37
3318.55
3348.64
3437.55
3438.75
3316.78
3348.14
5032.55
4798.4
4500.5
2367.17
2343
2158.75
2141.34
1961.14
1940.11
1703.97
1709.19
779.032
1088.21
649.977
893.451
793.413
1092.46
658.811
903.638
452.722
594.537
550.306
721.202
471.498
605.707
565.951
731.418
353.5
410.22
375.455
421.804
5271.88
5525.74
5866.68
6285.34
6642.27
6786.79
0.025433
0.125171
0.197084
0.429607
0.483505
0.623288
19.5488
396.929
3389.35
3392.14
1993.68
1995.16
3844.8
3920.23
4016.2
3914.92
3844.32
3918.78
4013.91
3914.16
4110.26
4108.53
3557.59
3503.79
3483.56
3586.47
3557.33
3505.67
3483.55
3585.97
3651.77
3747.24
3752.37
3672.54
3651.52
3744.84
3752.05
3671.46
3432.09
3431.33
3435.2
3431.65
5245.4
5062.3
4869.49
2569.69
2580.94
2352.59
2356.7
2295.12
2287.79
2126.29
2109.07
1302.14
1086.35
1331.27
1057.02
1307.44
1102.51
1336.84
1064.74
1223.89
818.365
1122.09
935.244
1227.51
823.207
1121.32
935.139
754.557
936.428
655.627
786.605
761.923
934.121
660.125
789.764
436.597
505.563
530.685
635.409
450.336
515.242
543.396
643.433
5411.16
5648.54
6034.24
6522.4
6743.76
0.0288544
0.17118
0.232133
0.489043
0.604312
0.89166
3.10694
176.331
176.252
5.53071
5.54237
2796.73
3519.09
2298.53
2981.75
2794.89
3529.58
2296.07
2986.75
1071.16
1072.17
3810.74
3835.7
3920.38
3873.49
3808.32
3835.11
3919.75
3873.25
3278.37
3928.92
3623.68
3941.57
3278.71
3931.31
3626.4
3941.28
3665.01
3705.57
3731.12
3655.36
3665.25
3704.43
3730.77
3654.84
5403.88
5274.11
5145.26
4989.99
2536.23
2531.04
2364.65
2350.75
2335.31
2318.82
1190.51
1493.79
1522.92
1176.79
1203.83
1498.37
1523.15
1178.42
1207.02
1194.44
1264.71
1124.85
1208.3
1206.11
1269.69
1126.65
1123.16
876.014
1028.64
1014.66
1118.92
874.173
1021.99
1006.88
748.18
911.061
758.277
906.006
5524.9
5759.12
6279.74
6635.61
0.0265705
0.218127
0.300538
0.502816
0.913241
0.112736
4.49076
4.50646
4.25855
4.27283
88.7339
88.5305
7.04116
7.16129
2480.17
3467.48
1795.45
2529.97
2477.71
3478.24
1794.6
2536.01
641.106
225.972
314.29
512.699
641.732
225.143
314.922
512.599
3763.57
3796.29
3859.62
3836.35
3761.62
3795.48
3859.15
3836.16
3209.05
3901.58
3407.68
3888.64
3209.05
3904.41
3409.79
3888.92
5521.84
5439.9
5353.75
5259.62
2635.7
2638.07
2555.6
2550.25
2410.65
2413.74
1290.87
1635.41
1185.69
1676.31
1308.92
1641.24
1214.37
1683.79
1236.47
1528
1239.28
1471.58
1230.29
1428.86
1269.42
1536.83
1261.93
1479.8
1236.27
1430.93
1273.78
1368.61
1282.53
1373.73
1204.55
1191.07
1257.39
1131.13
1207.52
1206.95
1262.67
1138.13
5619.88
5939.98
6393.1
0.0280847
0.23717
0.389624
0.604564
1.57909
5.70299
5.62652
6.26122
13.1938
11.2055
65.0198
136.798
94.0726
35.3079
50.924
137.198
136.299
64.5333
137.499
93.9489
34.5826
51.793
13.0301
14.4309
20.5147
22.2313
12.9813
15.1429
20.0336
24.7842
2027.46
2973.74
1453.79
2061.29
2026.28
2984.14
1454.78
2065.22
192.408
189.827
192.609
189.454
3849.8
3680.51
3849.48
3681.59
2745.62
3651.42
2743.21
3658.53
5602.46
5570.61
5515.48
5478.8
2820.17
2832.63
2734.96
2736.27
2630.01
2625.59
2502.22
2506.62
1694.51
1213.69
1763.95
1352.77
1607.66
1315.01
1704.23
1273.25
1783.7
1372.22
1613.86
1330.46
1404.76
1536.99
1420.49
1543.3
1372.13
1468.29
1351.55
1263.42
1434.2
1335.11
1396.92
1476.2
1367.3
1286.81
1441.58
1343.84
1250.31
1303
1266.09
1309.09
5726.97
6072.54
0.0588109
0.269125
0.507414
0.815012
3.95846
49.7897
44.934
29.8572
24.1331
34.4248
41.0017
52.632
53.709
90.661
50.5969
57.2584
78.0765
35.1209
40.5238
88.7985
51.4377
78.2434
56.6162
35.518
45.0552
32.3073
39.8128
30.7046
40.1658
27.894
32.7453
29.0866
36.3214
673.668
654.034
674.378
654.154
5665.91
5646.8
5644.49
5641.48
5647.07
2789.45
2795.03
2762.34
2747.98
1252.68
1805.3
1362.3
1794.96
1285.51
1815.32
1389.79
1806.13
1293.12
1301.99
1675.13
1293.52
1681.67
1662.37
1318.11
1327.07
1685.82
1333.62
1695.41
1673.83
1623.84
1534.51
1445.38
1426.33
1629.76
1539.31
1458.6
1437.51
1426.79
1496.16
1441.05
1500.99
1396.9
1470.61
1299.95
1370.32
1422.06
1477.97
1321.74
1379.73
5858.02
0.0797297
0.303204
0.597318
1.5951
8.78252
68.9116
70.8557
39.003
38.178
111.545
79.6054
75.163
72.9121
141.637
73.3978
98.4059
76.7184
82.9122
101.247
64.7936
76.9979
51.4639
110.247
57.6971
65.3375
47.5222
75.0196
5772.7
5719.45
5713.52
5763.28
5803.99
2976.82
2999.54
2841.38
2843.39
2745.41
2748.16
2688.5
2684.17
1408.37
1788.08
1536.82
1756.1
1433.45
1797.35
1557.79
1764.47
1408.4
1449.43
1620.73
1660.2
1515.11
1703.54
1430.67
1465.25
1666.4
1629.76
1532.26
1710.73
1568.94
1460.8
1572.69
1471.88
0.0963357
0.326797
0.559172
0.703642
15.0834
9.93979
3.0788
2.77839
32.8917
47.8238
36.6144
33.6452
100.504
113.664
104.94
88.9627
133.966
108.295
166.574
92.7225
11.5726
41.7793
32.0775
39.5282
39.0922
79.5103
51.7547
72.4499
128.083
167.024
118.805
182.665
5776.77
5805.15
5817.35
5927.05
5978.68
2867.09
2879.51
2930.04
2913.88
2823.1
2808.31
1990.85
1506.7
1958.85
1371.88
1990.34
1507.79
1960.58
1369.1
1540.45
1762.87
1564.86
1733.98
1562.83
1770.79
1585.75
1741.65
0.102066
0.266124
0.136939
0.210045
8.39584
6.95232
2.87485
2.44797
11.5374
16.985
14.4889
8.77642
11.2785
8.54366
24.2559
11.8614
18.656
17.6154
13.5895
14.2234
12.0743
13.2765
61.1003
106.701
132.824
69.748
62.0779
100.843
147.281
71.659
14.1245
20.3771
25.4442
13.3707
5846.78
5897.77
5983.6
6118.82
3067
3084.97
2917.7
2924.75
2771.83
2781.1
2908.92
2880.76
1370.63
2055.94
1505.99
2007.91
1465.61
1946.25
1413.99
2064.7
1522.11
2013.32
1458.87
1944.95
1604.65
1843.77
1611.31
1846.28
1578.75
1793.76
1600.07
1799.24
0.073785
0.0808277
-0.160849
2.74221
2.44183
2.70271
2.22719
2.92233
2.80319
2.69004
2.41386
8.77011
9.4859
10.7476
8.38448
17.7302
8.49638
16.124
8.70109
10.3546
13.4628
11.1325
14.3713
5.92885
4.74122
8.44143
11.6698
5.18984
3.97649
11.3007
7.36508
5951.59
6052.32
6213.37
6318.38
3038.23
3037.21
3030.07
3003.04
2916.53
2899.71
1470.83
2014.89
2049.3
1565.81
2100.35
1404.02
2048.04
1562.47
2098
1401.95
1484.94
2018.26
1599.49
1560.02
1962.17
1848.6
1602.94
1576.04
1962.32
1852.64
1589.92
1808.29
1605
1811
0.0295863
-0.161546
-0.0529544
2.50862
2.12358
2.44027
2.05053
5.64061
5.61426
1.68211
4.41489
2.70299
2.2525
4.84913
3.7196
1.54289
2.80636
2.04244
2.00959
1.78193
1.62893
16.6957
8.18731
14.2003
13.3322
7.76726
13.5206
11.2029
9.67826
6111.99
6282.02
6446.89
3176.63
3183.21
3077.28
3082.46
3054.68
3052.29
2941.04
2926.08
1352.45
1991.47
1534.64
2028.97
1504.65
2050.19
1386.45
1503.56
2049.04
1999.16
1550.3
2033.72
1626.94
1947.37
1647.66
2017.62
1649.35
1636.36
2018.23
1948.96
-0.0540676
-0.196253
-0.340264
1.63531
1.44837
1.78896
1.57115
7.21456
5.79943
2.11119
5.94163
3.87168
2.62233
7.67978
4.31757
1.54117
4.4544
2.75558
1.92015
2.34566
2.21522
2.45553
2.11178
2.10535
2.00614
1.82259
1.70036
7.18788
11.5764
11.1477
8.77935
6343.92
6544.56
6678.47
3223.85
3214.19
3188.95
3173.55
2986.15
2987.55
1489.32
2010.79
1888.58
1531.34
2000.7
1322.22
1510.92
2018.96
1892.85
1528.25
2000.95
1327.85
1666.38
1630.8
2008.19
1927.8
1647.27
1931.38
1671.54
2010.8
-0.0889916
-0.264974
1.56987
1.51222
1.43891
1.57892
1.71534
1.71107
1.48653
2.21689
2.04276
1.29146
1.95855
1.79491
7.57135
8.44145
3.13438
5.18302
7.09029
3.60973
9.816
5.91466
2.12997
5.17042
4.36763
2.49317
2.83331
2.56277
1.95948
2.01954
6603.44
6819.82
6955.19
3298.17
3294.39
3149.2
3147.05
1249.42
1839.92
1488.23
1946.81
1501.52
1996.62
1289.6
1505.54
1999.28
1853.05
1516.22
1957.08
1643.52
1907.35
1674.07
2012.35
1664.44
1913.74
1686.48
2016.39
1673.8
1935.55
1688.35
1940.15
-0.10791
-0.299127
1.42615
1.50502
1.45243
1.51779
1.63262
1.63009
2.21706
2.16728
3.71223
2.23654
2.30568
2.4378
2.45239
2.30752
1.97285
2.06024
2.95328
1.9818
2.05196
2.11933
2.31194
2.07238
4.26061
3.75514
2.91469
2.88041
3.16013
4.09633
2.50589
3.5723
6872.5
7072.03
3496.4
3296.84
3278.87
3511.01
3347.25
3352.82
3059.64
1405.39
1932.75
3065.82
1439
1947.02
1612.98
1665.53
1843.94
2020.44
1637.34
1852.38
1681.89
2028.48
1664.93
1953.1
1630.13
1897.08
1687.5
1958.79
1655.34
1903.68
-0.145792
-0.32083
1.38546
2.24071
2.27674
1.5305
1.46638
2.12263
2.25146
1.55191
1.67701
1.67524
2.05526
2.13462
2.84909
5.69554
3.26506
2.41837
1.95277
2.36331
2.0467
4.43429
2.83509
2.21455
7.42894
3.58843
5.77969
3.38935
7126.73
7281.23
3512.29
3176.04
3177.56
3505.75
3453.29
3436.7
1472.58
1380.55
1831.81
1364.47
1836.33
1983.4
1227.31
1836.03
1501.9
1418.92
1846.96
1402.73
1850.65
1994.52
1268.51
1848.83
1684.92
1663.37
1913.62
1957.69
1694.68
1918.04
1682.79
1965.85
-0.222021
1.9307
1.69855
1.70963
1.9298
1.99448
1.97991
2.56035
2.07895
2.14765
2.05157
2.21894
2.21711
2.2778
2.09217
1.61708
2.4535
2.2295
2.59806
2.1196
2.19139
2.22068
2.25657
2.31535
2.338
2.20628
1.62739
2.46667
2.3035
2.05316
2.08191
2.39573
2.11754
1.99214
2.1035
2.36664
2.06333
7365.8
7466.21
3544.67
3199.15
1949.81
1437.92
3199.93
1956.77
1452.59
3537.4
3394.43
3375.68
1560.34
1697.57
1613.49
1826.24
1919.9
2070.94
1597.57
1706.38
1642.16
1931.06
1839.99
2075.18
1682.52
1922.86
1694.3
1927.9
-0.334062
1.74503
2.08808
1.75693
2.08707
1.9999
1.98303
2.09109
2.17191
2.10019
1.92941
2.28667
2.18968
2.53925
2.44194
2.33525
2.47323
2.28703
2.34249
2.78627
2.4161
2.12884
2.20832
2.01912
2.36727
2.31056
2.45504
2.43475
2.54225
2.37276
2.46495
2.31801
2.3481
2.78995
2.41943
7604.06
3400.25
3480.14
3452.5
3438.18
3417.85
3411.11
1297.84
1884.91
1404.61
1936.55
1389.97
1997.92
1494.76
2043.71
1351.42
1890.32
1422.32
1943.04
1401.82
2017.73
1522.71
2053.4
3218.2
1473.94
2045.87
3206.94
1515.44
2061.11
1671.91
1654.94
1950.59
1996.15
1696.9
1653.09
1958.7
1997.87
-0.374599
1.86848
2.41721
2.67072
2.07989
1.8856
2.41719
2.68039
2.07783
1.97671
1.96158
2.25557
2.14168
2.34276
2.24726
2.42668
2.50272
2.39447
2.28968
2.41932
2.35897
2.27355
2.44574
2.33909
2.49244
2.40828
2.37941
2.51436
2.38755
2.45812
2.36421
7501.76
3440.68
3448.74
3413.24
3479.26
3493.19
3485.05
1543.71
1571.01
1939
1891.53
1728.75
2063.18
1556.14
1588.91
1943.32
1897.98
1747.59
2069.05
1467.25
1481.06
1938.54
1438.64
1947.32
1902.71
1354.07
1970.88
1456.63
1497.69
1943.88
1483.6
1960.41
1897.33
1373.12
1979.91
1.22393
2.15136
2.13532
1.89726
2.48093
2.75293
2.54361
2.70593
2.25304
1.91224
2.4777
2.75467
2.5602
2.71376
2.25225
2.43687
2.50642
2.54935
2.34127
2.44539
2.39128
2.41182
2.48891
2.55459
2.33912
2.47758
2.39125
7662
3460.64
3520.07
1904.91
1459.67
3481.77
1897.06
1437.67
3499.21
3521.05
3512.19
1712.75
1975.7
1707.8
2006.81
1723.96
1977.87
1714.25
2008.36
1677.89
1678.27
1650.17
1934.4
1957.04
1977.5
1681.69
1632.49
1647.24
1954.3
1931.09
1959.22
0.0284766
2.95555
10.5392
2.85853
10.3233
2.04624
2.62362
2.78264
2.57579
2.82782
2.59623
2.43674
6.33278
2.05823
2.6341
2.77532
2.58864
2.82589
2.59461
2.4419
6.14794
2.55815
2.4568
2.5413
2.45215
7764.13
3460.71
3494.54
3526.1
1788.94
1357.98
1742.22
1424.23
3504.16
1790.23
1352.93
1738.44
1418.74
3494.3
3476.98
1828.29
1644.08
1721.5
2069.26
1955.14
2011.5
1837.94
1643.61
1688.94
1948.87
2068.31
2001.89
-0.731143
3.4751
1.95912
3.44934
1.947
21.4058
20.9519
6.25789
2.70534
3.0656
2.85712
2.89182
2.54338
2.65413
2.48758
2.71271
2.60049
2.46433
6.13154
2.71178
3.06468
2.86636
2.8987
2.62842
2.65001
2.5142
2.71502
2.58759
2.46455
7790.41
3483.59
3524.36
3503.91
3544.34
3493.92
1690.31
1326.37
1722.98
1312.34
1688
2054.3
3454.22
1676.86
1318.08
1712.67
1300
1678.56
2062.83
3517.81
3498.95
1867.98
2113.92
1885.6
2120.05
-0.289516
1.92248
1.90989
1.90902
1.89872
4.53614
2.08327
4.45893
2.06957
35.727
35.1795
9.96314
3.79638
4.90488
7.11282
2.5976
2.88748
2.71053
2.76834
2.51522
2.65997
2.47721
2.71512
9.83497
3.73099
4.84879
6.86871
2.63549
2.89091
2.71218
2.77237
2.63387
2.64747
2.59423
2.70498
7640.25
3529.97
3501.5
3546.12
3518.25
3543.79
3525.79
3412.84
1676.57
1254.45
1682.45
1315.84
2077.61
1657.65
2062.31
1658.37
1812.21
2116.97
3371.51
1669.82
1239.44
1685.47
1304.58
2062.71
1650.76
2065.77
1650.65
1840.42
2143.94
-0.244789
1.92029
1.8797
1.90873
1.86732
1.99641
1.9544
1.99045
1.94386
6.17829
2.44685
6.05592
2.41446
54.6058
36.5035
54.4845
41.3227
54.602
36.168
54.3987
40.8258
12.7177
3.52697
5.21117
7.49201
12.3831
3.47456
5.14427
7.19633
7486.75
3448.8
3437.8
3468.42
3467.73
3577.5
3521.97
3552.76
3508.43
3454.46
3403.53
1912.05
1276.06
1867.3
1399.59
2035.98
1477.98
1904.99
1626.14
2181.46
1799.39
2148.34
1788.66
1906.22
1256.84
1863.26
1359.78
2010.62
1484.04
1892.82
1599.62
2194.81
1827.54
2176.6
1803.27
-0.345068
-0.126171
1.89352
1.85129
1.88235
1.84886
2.27116
2.5367
2.24732
2.46832
3.69024
6.33433
7.27484
4.01137
3.05301
3.10227
2.9402
3.30217
3.6554
6.19956
7.14709
3.93029
3.03803
3.07132
2.91662
3.27177
53.7705
36.3003
53.8085
47.6331
53.7762
36.0918
53.8031
47.247
7586.57
3431.56
3374.04
3463.63
3409.53
3521.46
3494.32
3500.22
3487.53
3479.54
3398.91
3429.17
3367.26
1978.66
1472.3
1976.7
1467.43
1969.2
1450.48
1969.05
1441.04
2161.7
1444.96
2001.59
1687.62
2149.6
1484.16
2008.18
1636.47
-0.302908
1.68558
1.69999
1.70342
1.70543
-0.0686609
2.46638
1.99413
2.40309
2.04003
2.8774
3.21252
3.01323
3.24597
2.96844
3.37174
3.70882
3.40786
2.85213
3.15649
3.01161
3.18696
2.94863
3.29341
3.58476
3.3312
3.37688
5.56802
8.83776
3.22641
2.83796
2.96955
2.76367
3.06941
3.36695
5.48008
8.66251
3.19285
2.83073
2.94409
2.74396
3.04153
7371.76
7422.78
3488.59
3370.14
3475.93
3369.54
3477.41
3465.67
3421.46
3431.08
1989.5
1507.63
2014.56
1500.56
1972.73
1420.91
1927.62
1482.01
1987.63
1487.87
2003.4
1488.14
1975.4
1428.7
1924.99
1481.58
2119.7
1725
2118.5
1725.02
2113.33
1708.24
2112.3
1702.62
-0.222736
1.67095
1.76298
1.6663
1.75449
2.36247
2.18211
2.41199
2.28721
-0.0584223
4.47718
3.32057
4.49229
3.26794
4.03555
3.17062
4.04396
2.95582
4.26971
3.24536
4.18096
3.16527
3.85129
3.17535
4.03632
2.95313
2.67623
3.04981
2.86715
3.0168
2.62091
3.15161
3.08654
3.07456
2.65549
3.00712
2.83654
2.9623
2.61036
3.06462
3.03235
3.00084
7110.72
7264.11
3444.62
3498.59
3423.08
3491.35
3506.02
3381.64
3468.97
3339.67
1896.24
1419.46
1946.24
1378.2
1807.56
1331.53
1729.56
1352.96
1901.06
1421.82
1960.78
1357.51
1784.13
1331.27
1721.73
1320.03
2141.41
1746.24
2133.16
1749.87
2130.08
1702.18
2100.11
1736.23
2137.15
1737.8
2128.24
1740.24
2129.22
1707.53
2103.15
1732.26
-0.285588
-0.0921581
1.8382
2.00188
1.85941
1.98811
3.33464
3.16578
3.72329
3.21323
3.62279
4.56056
3.19716
3.83045
2.99738
3.48665
3.30902
3.12883
3.56705
3.22031
3.5952
4.56422
3.26058
3.83057
3.03717
3.59059
-0.0216026
4.56205
3.08583
4.17137
3.07626
4.51499
3.06958
4.32469
3.00094
3.84078
2.9384
4.51523
2.9002
2.59389
2.9875
2.81729
2.87559
2.58951
2.8681
2.80112
2.807
6849.39
7054.65
3476.01
3488.42
3472.52
3504.52
3142.99
3336.8
3137.78
3323.08
1744.62
1388.53
1721.31
1413.42
1861.32
1355.03
1974.29
1441.3
1742.82
1383.38
1721.3
1405.03
1851.04
1380.89
1981.67
1413.6
2096.06
1690.12
2148.85
1587.31
1762.57
1432.84
1837.07
1393.44
2096.53
1694.13
2163.65
1564.68
1748.46
1423.77
1834.13
1365.08
-0.14655
1.87767
1.86666
1.95593
1.91257
-0.0683028
2.5422
2.10188
2.5516
2.06456
3.34071
3.19542
4.17184
3.34347
2.97544
3.0043
3.08046
3.47118
2.82102
3.03955
3.26692
3.15553
3.91215
3.26188
2.94284
3.0206
3.09917
3.46092
2.84109
3.07727
0.0556494
4.24076
3.01934
3.57514
3.08997
4.42602
3.27879
3.89321
2.88775
3.44814
2.93782
4.06011
3.10046
6567.92
6792.49
6916.13
3432.08
3343.01
3416.5
3347.07
1347.93
1304.36
1780.58
1347.28
1848.93
1709.08
1263.64
1936.49
1396.35
1964.68
1297.42
1387.12
1797.54
1407.86
1869.23
1711.36
1307.31
1943.35
1447.32
1985.89
1747.53
1478
1789.22
1502.58
1720.31
1447.37
1745.69
1484.65
1791.88
1500.18
1714.97
1428.72
1968.57
1679.95
2040.21
1552.03
1957.2
1684.99
2037.4
1533.13
-0.129064
1.94668
1.81099
1.98877
1.83797
2.07103
1.90951
2.15778
1.94767
0.183989
2.41508
3.04323
2.43249
2.98768
2.3823
2.8311
2.45714
2.74803
2.41709
3.04743
2.43621
2.96936
2.45148
2.91365
2.741
2.74136
3.45028
3.39551
2.98248
2.8573
2.79636
2.78089
3.31457
3.22408
2.99114
2.87974
2.80843
2.81231
0.0632546
6299.94
6501.07
6649.34
3267.85
3264.51
3249.43
3263.4
3189.15
3180.43
3185.27
3185.63
1491.75
1627.1
1893.67
1637.38
1689.48
1999.33
1463.83
2023.36
1688.26
2086.2
1534.21
1656.01
1650.22
1904.45
1707.57
2008.03
1486.45
2031
1712.64
2095.12
1911.79
1679.87
2005.95
1693.41
1761.09
1610.03
1914.42
1690.41
2007.91
1716.89
1766.99
1631.32
-0.00457793
0.336229
2.86852
2.64609
2.94375
2.70575
2.40123
2.62323
2.47462
2.45433
2.21854
2.73911
3.04877
2.91566
2.46943
2.17738
2.36188
2.75684
2.33434
2.43069
2.17361
3.03102
3.04697
2.93877
2.45749
2.16902
0.219815
2.26462
2.75862
2.32472
2.55168
2.45611
2.47967
2.27983
2.75542
2.29824
2.56347
2.77626
2.51788
0.0712238
6069.73
6233.85
6400.7
3201.71
3154.74
3198.77
3162.85
3068.68
3127.93
3064.09
3127.64
1978.52
1440.84
1959.38
1454.45
2049.82
1251.26
1923.29
1471.16
1980.13
1448.91
1960.67
1458.17
2056.24
1287
1930.49
1484.77
1572.62
1745.28
1537.87
1880.09
1635.69
1940
1621.13
1759.47
1545.46
1881.58
1649.67
1944.48
1.43248
2.37267
2.19889
2.41822
2.20902
0.432517
3.69286
3.66674
3.75662
3.75806
2.25643
2.72173
2.93808
2.78775
2.95804
2.67371
2.95686
2.96939
2.79181
2.5989
2.24323
2.60868
2.91374
2.57885
2.8159
2.59626
2.92616
3.01937
2.69221
2.56543
0.210662
2.84426
2.32169
2.96017
2.30959
0.0632247
5917.52
6012.22
6167.36
6263.46
3178.26
3046.17
3165.9
3054.56
1366.82
1467.82
1829.22
1350.07
1801.65
2020.43
1250.13
1831.8
1398.87
1901.22
1483.81
1406.71
1844.13
1394.72
1826.56
2027.35
1287.44
1844.65
1431.73
1915.55
2013.14
1601.3
1943.6
1703.57
2057.03
1693.22
2010.74
1600.26
1941.13
1697.39
2060.21
1703.82
9.70139
1.56914
2.87387
4.41566
2.92646
4.30337
0.37404
4.92202
3.40899
4.5958
4.79473
4.27987
4.92647
3.53056
4.57869
4.88218
4.3507
4.18289
3.81824
2.73862
2.60424
3.57447
3.46528
3.96266
3.72741
2.62067
2.61466
3.38576
3.4351
0.183169
0.0487042
5816.54
5865.99
5943.39
6070.39
2999.34
3011.43
2999.17
3023.87
2985.45
3015.84
2983.48
3016.85
1510.65
1555.74
1917.94
1843.08
1627.24
1933.1
1478.67
1924.07
1652.1
1992.46
1539.49
1576.95
1853.28
1926.33
1642.86
1940.57
1501.86
1932.71
1666.01
1998.94
1954.64
1665.54
1960.6
1690.23
4.16096
33.3463
13.6534
31.7773
12.7901
0.470072
7.13265
22.8097
7.28238
21.8974
0.318204
5.29058
3.70533
3.53643
4.94377
3.94678
6.29553