/*--------------------------------*- C++ -*----------------------------------*\
| =========                 |                                                 |
| \\      /  F ield         | OpenFOAM: The Open Source CFD Toolbox           |
|  \\    /   O peration     | Version:  5.x                                   |
|   \\  /    A nd           | Web:      www.OpenFOAM.org                      |
|    \\/     M anipulation  |                                                 |
\*---------------------------------------------------------------------------*/
FoamFile
{
    version     2.0;
    format      ascii;
    class       surfaceScalarField;
    location    "1.3";
    object      phi;
}
// * * * * * * * * * * * * * * * * * * * * * * * * * * * * * * * * * * * * * //

dimensions      [0 3 -1 0 0 0 0];

internalField   nonuniform List<scalar> 
30582
(
0.000276637
-1.36788e-06
0.000276388
2.48159e-07
0.000276292
-2.35832e-06
0.000272032
4.35676e-06
0.000275569
9.71324e-07
0.000274681
-1.66593e-06
0.000264491
7.54108e-06
0.000271317
8.60913e-06
0.000275305
3.47915e-07
0.000272269
1.54262e-06
0.000258936
5.55465e-06
0.000263696
1.51617e-05
0.000271283
1.26309e-05
0.000271296
1.32103e-06
0.000268413
8.74189e-06
0.000256521
2.41509e-06
0.000257882
1.1369e-05
0.000263661
2.27833e-05
0.000267292
1.66344e-05
0.000270727
-9.92907e-07
0.000261532
2.2999e-05
0.000258378
-1.85675e-06
0.000255441
4.8562e-06
0.000257309
1.77212e-05
0.000260051
3.0025e-05
0.000266892
2.04687e-05
0.000260401
1.38162e-07
0.000256205
4.27906e-05
0.00026317
-4.79232e-06
0.000257558
-3.97458e-06
0.000254828
7.33722e-06
0.000253518
2.4254e-05
0.000259945
3.69718e-05
0.000258029
2.28409e-05
0.000260337
-3.99363e-06
0.000237899
8.11268e-05
0.000269411
-6.24115e-06
0.000262889
-1.01233e-05
0.000256936
-6.0825e-06
0.000250885
9.97033e-06
0.000252921
3.1278e-05
0.000252663
4.23371e-05
0.000259032
2.41462e-05
0.00023333
5.75738e-07
0.000157004
-9.88068e-05
0.000274405
-4.99425e-06
0.000269671
-1.30231e-05
0.000262761
-1.59479e-05
0.000253824
-9.02166e-06
0.000249875
1.30171e-05
0.000246481
3.746e-05
0.000253358
4.80105e-05
0.00023914
1.83359e-05
0.000182617
-2.50376e-05
-0.000275175
0.000175351
0.000276056
-1.65061e-06
0.000275163
-1.04859e-05
0.000270317
-2.05793e-05
0.000261135
-2.32586e-05
0.000252329
-1.14757e-05
0.00024322
1.62785e-05
0.000244529
4.6289e-05
0.000242537
4.46133e-05
0.000227155
-2.62018e-05
-0.000164622
-0.000135591
-2.04664e-05
0.000195788
0.000272639
3.41684e-06
0.000276795
-3.28255e-06
0.000276792
-1.69612e-05
0.000270476
-2.99203e-05
0.0002604
-3.13296e-05
0.000246726
-1.49814e-05
0.000238915
2.18927e-05
0.000238581
5.02454e-05
0.0002584
1.33682e-05
-4.24718e-05
-0.000148352
1.10149e-05
-0.000167072
6.51646e-05
0.000130623
0.000263573
9.0662e-06
0.00027369
6.52168e-06
0.00027986
-6.35035e-06
0.000278622
-2.51072e-05
0.000271674
-4.11947e-05
0.000257316
-4.19201e-05
0.000242192
-1.82582e-05
0.00023515
2.53233e-05
0.000270592
3.80532e-05
9.22651e-05
-0.000121369
-0.000100387
-3.69503e-05
6.48014e-05
-0.000166709
-2.60677e-05
0.000156691
0.000249211
1.43615e-05
0.000264814
1.79418e-05
0.00027672
9.66163e-06
0.000282026
-9.75509e-06
0.00028203
-3.54633e-05
0.000271925
-5.58038e-05
0.000254405
-5.41333e-05
0.000239996
-2.31041e-05
0.00028072
1.51955e-05
0.000169723
-3.94052e-05
-7.68471e-05
-0.000144908
3.82913e-05
-1.04401e-05
-2.04391e-05
-0.000172337
7.99855e-05
7.67051e-05
0.000230356
1.88553e-05
0.000250436
2.87397e-05
0.000267629
2.70326e-05
0.000280069
1.16191e-05
0.000288132
-1.58574e-05
0.000285489
-4.90266e-05
0.000272469
-7.38679e-05
0.000254275
-6.84128e-05
0.000297338
-3.97219e-05
0.000240355
-5.54362e-05
-1.5298e-05
-0.000100954
4.49584e-05
-0.000151575
1.20015e-05
-4.28807e-05
3.39422e-05
-0.000126294
-3.93782e-05
0.000207985
2.23712e-05
0.000231409
3.78826e-05
0.000252943
4.34261e-05
0.00027138
3.57215e-05
0.000286339
1.34126e-05
0.00029281
-2.31787e-05
0.000290019
-6.65762e-05
0.000275661
-9.52533e-05
0.000322213
-9.3288e-05
0.000324064
-0.000123431
7.92856e-05
-0.00015002
7.0534e-05
-0.00012653
1.57425e-05
-0.000155316
1.03667e-05
-1.93052e-05
-2.26099e-05
0.00018313
2.48545e-05
0.000208815
4.49657e-05
0.000233495
5.73305e-05
0.000256435
5.83716e-05
0.000277278
4.47821e-05
0.000292886
1.33364e-05
0.000301384
-3.45434e-05
0.000296557
-8.74729e-05
0.00035041
-0.00012345
0.000417708
-0.000186933
0.000185074
-0.000229219
0.000102061
-0.000181546
2.0124e-05
-0.000130911
4.32501e-06
-0.000149275
1.58971e-06
0.00015671
2.64204e-05
0.000183739
4.993e-05
0.000210429
6.80312e-05
0.000236414
7.73512e-05
0.00026168
7.39702e-05
0.000284203
5.34657e-05
0.00030169
1.303e-05
0.000309424
-4.74098e-05
0.000375496
-0.000112559
0.000515307
-0.000221049
0.000311424
-0.000313283
0.00012342
-0.000250578
3.15274e-05
-0.00019295
8.1747e-06
-0.000134761
4.06674e-06
0.00012945
2.72599e-05
0.000157129
5.30304e-05
0.000184905
7.54538e-05
0.000212662
9.17831e-05
0.000240754
9.8277e-05
0.000267895
9.0278e-05
0.000292504
6.2652e-05
0.000311296
1.11582e-05
0.000391203
-6.31168e-05
0.000602072
-0.000199324
0.000453708
-0.000363333
0.000138164
-0.000328027
3.48177e-05
-0.000253868
1.3094e-05
-0.000197869
5.01775e-06
0.00010187
2.75804e-05
0.000129723
5.4666e-05
0.000157917
8.0019e-05
0.00018648
0.000101636
0.000215994
0.000116543
0.000245758
0.000120414
0.000275181
0.000107601
0.000303064
7.08834e-05
0.000394579
7.78195e-06
0.000654539
-0.000115583
0.000592225
-0.000337841
0.000148635
-0.000373804
2.77371e-05
-0.000320947
1.22953e-05
-0.000253069
5.43791e-06
7.42984e-05
2.75713e-05
0.00010204
5.5263e-05
0.000130224
8.23589e-05
0.000158942
0.000107558
0.000188871
0.000128759
0.000219634
0.000142667
0.000251615
0.00014398
0.000284878
0.000125787
0.00038679
7.86723e-05
0.000670159
-7.83855e-06
0.000702111
-0.000225469
0.000161025
-0.000350231
6.95705e-06
-0.000353024
4.6229e-06
-0.000313274
4.63233e-06
4.69181e-05
2.73803e-05
7.44065e-05
5.52052e-05
0.000102349
8.31376e-05
0.00013084
0.000110461
0.00016055
0.000135879
0.000191273
0.00015712
0.000223888
0.000170394
0.000259533
0.000169325
0.000368913
0.000143664
0.000664416
8.44156e-05
0.000757481
-6.32094e-05
0.00017944
-0.000243885
-1.90409e-05
-0.000324233
-1.0039e-05
-0.000338362
1.4357e-06
1.9799e-05
2.7119e-05
4.69967e-05
5.47901e-05
7.46067e-05
8.29479e-05
0.000102698
0.000111279
0.000131862
0.000139149
0.000161962
0.00016519
0.000194073
0.000186935
0.000229627
0.0002003
0.000344554
0.000193684
0.000643401
0.000164679
0.000758965
8.29316e-05
0.000197779
-8.15483e-05
-4.00287e-05
-0.000222897
-2.70481e-05
-0.000307224
-4.12362e-06
-7.04388e-06
2.68429e-05
1.98709e-05
5.42449e-05
4.71491e-05
8.22477e-05
7.48137e-05
0.000110833
0.000103327
0.000139814
0.000132579
0.000168532
0.000163608
0.000195655
0.000198053
0.000218509
0.000316253
0.000228601
0.000612601
0.000224484
0.000714066
0.000209578
0.000192287
8.8423e-05
-4.79109e-05
-7.36662e-05
-4.03676e-05
-0.000209578
-1.08318e-05
-3.36287e-05
2.65848e-05
-6.96906e-06
5.36828e-05
2.00148e-05
8.13791e-05
4.73129e-05
0.000109748
7.52153e-05
0.000138944
0.00010363
0.000168763
0.000133427
0.000198713
0.000166272
0.000227436
0.000285254
0.000249508
0.000574815
0.000266386
0.000638703
0.000299848
0.000168692
0.000233172
-4.24189e-05
8.2931e-05
-4.381e-05
-7.02239e-05
-1.56405e-05
-5.9955e-05
2.63263e-05
-3.35543e-05
5.31701e-05
-6.816e-06
8.05137e-05
2.02007e-05
0.000108491
4.76148e-05
0.000137349
7.53439e-05
0.00016723
0.000104008
0.000198182
0.000135119
0.000229866
0.000252041
0.000260649
0.000528416
0.000295908
0.00055237
0.000352719
0.00013585
0.000332691
-3.16567e-05
0.00022241
-4.19192e-05
8.10401e-05
-1.82797e-05
-8.59863e-05
2.60312e-05
-5.98966e-05
5.26687e-05
-3.33997e-05
7.97538e-05
-6.57981e-06
0.000107294
2.04862e-05
0.00013562
4.77517e-05
0.000164941
7.55124e-05
0.000195725
0.000105042
0.000228259
0.000216458
0.000265449
0.000472759
0.000316306
0.000459254
0.000389024
9.85218e-05
0.000390047
-2.03058e-05
0.00032134
-3.2809e-05
0.0002133
-1.61897e-05
-0.000111634
2.56473e-05
-8.59705e-05
5.21052e-05
-5.97703e-05
7.90392e-05
-3.3125e-05
0.000106299
-6.27419e-06
0.000134055
2.07523e-05
0.000162619
4.79065e-05
0.000192547
7.617e-05
0.000224597
0.000178002
0.000266716
0.00040647
0.000331738
0.000363124
0.000412435
6.69468e-05
0.000420599
-1.16384e-05
0.00038138
-2.18301e-05
0.000310361
-1.22246e-05
-0.00013674
2.51063e-05
-0.000111694
5.13712e-05
-8.59176e-05
7.82525e-05
-5.95048e-05
0.000105419
-3.28152e-05
0.00013284
-5.8189e-06
0.000160626
2.10273e-05
0.000189499
4.84139e-05
0.000220303
0.000136096
0.000266503
0.000329142
0.000344043
0.000272583
0.000422279
4.603e-05
0.000433352
-5.32054e-06
0.000414281
-1.27867e-05
0.000372337
-7.72998e-06
-0.00016108
2.43402e-05
-0.000136912
5.03242e-05
-0.000111773
7.72268e-05
-8.57372e-05
0.000104485
-5.92494e-05
0.000131853
-3.21948e-05
0.000159216
-5.35514e-06
0.000187008
2.15524e-05
0.00021636
9.0614e-05
0.000265785
0.00024445
0.000351195
0.000195071
0.000421555
3.33448e-05
0.000434964
-9.81531e-07
0.000429013
-6.23457e-06
0.000407729
-4.02944e-06
-0.000184367
2.32867e-05
-0.000161399
4.88271e-05
-0.000137197
7.57476e-05
-0.000111775
0.000103265
-8.56314e-05
0.000130867
-5.85541e-05
0.000158213
-3.15684e-05
0.000185429
-4.70525e-06
0.000213266
4.24037e-05
0.00026457
0.000157617
0.000352618
0.000131604
0.000414662
2.46353e-05
0.000430265
1.63191e-06
0.000432351
-1.9762e-06
0.000424755
-1.47619e-06
-0.000206258
2.18917e-05
-0.000184867
4.67542e-05
-0.000161967
7.35977e-05
-0.000137488
0.000101461
-0.000111943
0.000129576
-8.49984e-05
0.000157311
-5.78517e-05
0.000184496
-3.08404e-05
0.000211564
-6.69925e-06
0.000262369
7.15923e-05
0.000350595
7.93543e-05
0.000404869
1.73499e-05
0.000421948
2.69512e-06
0.000429202
4.68322e-07
0.000429907
4.47002e-08
-0.000226379
2.01202e-05
-0.000206968
4.39928e-05
-0.000185792
7.05791e-05
-0.000162663
9.87727e-05
-0.000138075
0.000127593
-0.00011155
0.000156128
-8.43633e-05
0.000183823
-5.71863e-05
0.000210842
-5.49137e-05
0.000259779
-1.418e-05
0.000348141
3.3288e-05
0.000396661
1.01738e-05
0.000412045
2.40891e-06
0.000422234
1.60067e-06
0.00042807
7.855e-07
-0.000244351
1.79726e-05
-0.00022732
4.04724e-05
-0.000208315
6.65158e-05
-0.000187006
9.49215e-05
-0.000163824
0.000124522
-0.000138131
0.000154174
-0.000111169
0.000182933
-8.39519e-05
0.000210588
-0.000100518
0.000256447
-9.85028e-05
0.000344101
-9.21071e-06
0.00039064
2.70437e-06
0.000404131
8.63619e-07
0.000413591
1.65476e-06
0.00042218
1.0143e-06
-0.000259816
1.54651e-05
-0.000245532
3.61845e-05
-0.000229136
6.12935e-05
-0.000210147
8.96566e-05
-0.000188895
0.000119993
-0.000164553
0.000150944
-0.00013824
0.000181246
-0.000111233
0.000210214
-0.00014236
0.00025243
-0.000180369
0.000338312
-5.21787e-05
0.000387069
-4.82165e-06
0.000398165
-1.26217e-06
0.000406256
6.91247e-07
0.000414554
8.55669e-07
-0.000272473
1.26562e-05
-0.000261223
3.11563e-05
-0.000247839
5.48871e-05
-0.000231658
8.28048e-05
-0.000212902
0.000113664
-0.000190524
0.000145963
-0.000165415
0.000178119
-0.000139002
0.000209015
-0.000180297
0.000248151
-0.000259798
0.00033186
-9.97397e-05
0.000385872
-1.25839e-05
0.00039483
-3.67336e-06
0.000400575
-7.92636e-07
0.00040774
3.7502e-07
-0.0002821
9.62732e-06
-0.00027406
2.5493e-05
-0.000264013
4.73307e-05
-0.000251082
7.43115e-05
-0.000235385
0.000105287
-0.000215636
0.000138776
-0.00019241
0.000172958
-0.000167103
0.000206219
-0.000214803
0.000243521
-0.000333971
0.000322324
-0.000153198
0.000385317
-1.99489e-05
0.000393236
-5.87672e-06
0.000397032
-2.46444e-06
0.000402246
-2.75119e-07
-0.000288593
6.49329e-06
-0.000283758
1.93251e-05
-0.000277301
3.87812e-05
-0.000267956
6.42042e-05
-0.000255836
9.47624e-05
-0.00023939
0.000129042
-0.000218793
0.000165159
-0.000195258
0.000201113
-0.000246535
0.00023795
-0.000399696
0.000309246
-0.000215985
0.000385111
-2.72188e-05
0.000392587
-7.67887e-06
0.000395038
-4.06873e-06
0.000398636
-9.77455e-07
-0.000291769
3.17541e-06
-0.000290099
1.28344e-05
-0.000287421
2.94448e-05
-0.000281861
5.26865e-05
-0.000273723
8.20914e-05
-0.000261215
0.000116587
-0.000244014
0.000154262
-0.000223091
0.000192992
-0.000276037
0.000230616
-0.000455803
0.000294058
-0.000288532
0.000381794
-3.49063e-05
0.0003928
-9.00036e-06
0.000393909
-5.38187e-06
0.000396351
-1.6314e-06
-4.43795e-07
-0.000291325
-0.000293071
6.14726e-06
-0.000294205
1.96182e-05
-0.000292443
4.00271e-05
-0.00028857
6.75338e-05
-0.000280461
0.000101338
-0.000267432
0.000140005
-0.000250093
0.000181264
-0.000303678
0.000220633
-0.000503025
0.000277837
-0.000368308
0.000373835
-4.44304e-05
0.00039132
-9.37446e-06
0.000393175
-6.19777e-06
0.000394726
-2.18296e-06
-3.52478e-07
-0.000293162
-1.31683e-05
-0.000278157
-0.000297656
9.59872e-06
-0.000299403
2.6578e-05
-0.000300012
5.14688e-05
-0.000296531
8.36037e-05
-0.000288253
0.000122159
-0.000275562
0.000165474
-0.000329595
0.000207181
-0.000542937
0.000260545
-0.000450019
0.000359549
-5.82347e-05
0.00038764
-8.92476e-06
0.000390872
-6.1894e-06
0.000393168
-2.60402e-06
-8.12014e-07
-0.000297197
-2.59563e-05
-0.000280374
-2.74743e-05
-0.000250682
-0.00030251
1.27057e-05
-0.000307832
3.43984e-05
-0.000308947
6.38846e-05
-0.000305758
0.000101109
-0.00029838
0.000144978
-0.000353625
0.000189504
-0.000577199
0.000241444
-0.000528728
0.000339253
-7.91994e-05
0.000380513
-7.45486e-06
0.000386171
-5.38657e-06
0.00039007
-2.78633e-06
-3.79335e-07
-0.000302943
-3.87605e-05
-0.000284393
-5.44974e-05
-0.000253351
-3.87778e-05
-0.000211904
-0.000312096
1.69689e-05
-0.000317236
4.26871e-05
-0.000319465
7.7591e-05
-0.000317407
0.000120136
-0.000375196
0.000166548
-0.000607131
0.000219436
-0.00060303
0.000315746
-0.000108646
0.000368699
-5.05307e-06
0.000378111
-3.64336e-06
0.000384427
-2.69745e-06
-8.91762e-07
-0.000311583
-5.11798e-05
-0.000290524
-8.19316e-05
-0.000256958
-7.55435e-05
-0.000216585
-5.16612e-05
-0.000160243
-0.000320722
2.04555e-05
-0.000328984
5.22068e-05
-0.000332282
9.24661e-05
-0.000394001
0.000138941
-0.000633468
0.000192885
-0.000673572
0.000289977
-0.000144237
0.000351335
-1.80511e-06
0.00036545
-7.2706e-07
0.000375193
-2.25684e-06
-3.30066e-07
-0.000321284
-6.40731e-05
-0.00029869
-0.00010928
-0.000263175
-0.00011221
-0.000220292
-9.63067e-05
-0.00017194
-6.4643e-05
-9.56003e-05
-0.000334494
2.59653e-05
-0.000342186
6.21101e-05
-0.000409302
0.000107767
-0.00065692
0.000162393
-0.000738898
0.000258212
-0.000181432
0.000327171
2.68407e-06
0.000346845
3.59666e-06
0.000361125
-1.33432e-06
-1.36425e-06
-0.00033346
-7.69122e-05
-0.000308445
-0.000137716
-0.000270253
-0.000147337
-0.000228049
-0.000137389
-0.000179209
-0.000117096
-0.000119487
-0.000123201
2.76007e-05
-0.000345736
2.95159e-05
-0.000419709
7.25168e-05
-0.000676914
0.000127762
-0.000795227
0.000218722
-0.000217034
0.000293814
9.07348e-06
0.000320782
9.58643e-06
0.000340856
2.64483e-07
-7.83218e-07
-0.000346317
-9.05183e-05
-0.000319854
-0.000167969
-0.000278192
-0.000182834
-0.000234756
-0.000172355
-0.000193082
-0.000159778
-0.000136527
-0.000210314
-3.23735e-05
-0.00013621
0.000163811
-0.00042344
3.32478e-05
-0.000689358
8.49604e-05
-0.000833556
0.000166091
-0.000246478
0.000248167
1.82111e-05
0.000284678
1.76398e-05
0.00031273
2.70573e-06
-4.07463e-06
-0.000420149
-0.000102177
-0.000334659
-0.000200706
-0.000287117
-0.000220242
-0.000240783
-0.000205537
-0.000201575
-0.000191503
-0.000161358
-0.000255324
-9.15171e-05
-0.000240993
7.24096e-05
-0.000236221
0.000400032
-0.00068848
3.23698e-05
-0.000843588
9.49925e-05
-0.000266109
0.000185722
3.02019e-05
0.000236176
2.77352e-05
0.000274583
6.12674e-06
-1.92919e-05
-0.000673263
-0.000113088
-0.000409238
-0.000233305
-0.00030206
-0.000260622
-0.000246737
-0.000240041
-0.000206279
-0.000219499
-0.000173579
-0.00026424
-0.000152443
-0.000285386
-4.7124e-05
-0.000376504
0.000212692
-0.000118056
0.000518088
-0.00082587
1.46518e-05
-0.000275178
0.000104061
4.29905e-05
0.000172932
3.90316e-05
0.000224879
1.04873e-05
-5.29492e-05
-0.000792213
-0.000167977
-0.000618373
-0.00026657
-0.000375973
-0.000300073
-0.00026261
-0.000276606
-0.000210172
-0.000243946
-0.000181831
-0.000259672
-0.000178147
-0.000290126
-0.000147703
-0.000438606
1.49781e-05
-0.000227942
0.000322578
0.000207484
0.000310604
-0.000269994
9.46618e-06
5.21806e-05
9.48688e-05
4.94394e-05
0.000162523
1.53261e-05
-6.98865e-05
-0.000253057
-0.000297468
-0.000662722
-0.000389513
-0.00049543
-0.000349284
-0.000326762
-0.000312284
-0.000226932
-0.000267252
-0.000186866
-0.000254509
-0.000186994
-0.000270829
-0.000197443
-0.000397087
-0.000189222
-0.000246672
3.37087e-05
0.000281382
0.000248679
0.00142143
0.000390127
-0.00150096
4.89613e-05
1.26855e-05
5.42725e-05
9.00352e-05
2.01039e-05
-6.45484e-05
4.36248e-05
-0.000379243
-0.000171281
-0.000586398
-0.000465837
-0.000513097
-0.000331617
-0.000369079
-0.000269966
-0.000293029
-0.000201154
-0.000253001
-0.000188375
-0.000245707
-0.000212116
-0.000318272
-0.000276258
-0.00022636
-0.000209534
0.000256921
5.81697e-05
0.00133608
0.000334031
0.00162928
0.000508773
-0.00174793
0.000240299
-0.00174126
5.53703e-05
1.15888e-05
2.36012e-05
-6.27505e-05
5.35738e-05
-0.00037771
4.20936e-05
-0.000638874
-0.000118804
-0.000710715
-0.000268218
-0.000537043
-0.000163654
-0.000343054
-0.000219941
-0.000260688
-0.000193468
-0.000223478
-0.000210604
-0.000250168
-0.000280219
-0.000187101
-0.000315517
0.000179436
-0.00013205
0.00118965
0.000204602
0.00144123
0.00052209
0.00162889
0.000692537
-0.00181266
0.000379254
-0.00188689
0.000171718
-0.00191297
2.46703e-05
2.21123e-05
-0.000372454
4.83181e-05
-0.000615872
1.90917e-05
-0.000730111
-9.94083e-05
-0.000671802
-0.000133459
-0.000477936
-2.87727e-05
-0.000293577
-0.000187052
-0.00021575
-0.000201195
-0.000207172
-0.0002536
-0.000145854
-0.000321467
0.00015281
-0.000288891
0.000989326
6.8274e-05
0.00122609
0.000419734
0.00141284
0.000738141
0.00164623
0.000971586
-0.00192528
0.000583523
-0.00201692
0.000300375
-0.00201554
9.6097e-05
-0.00200907
1.89505e-05
-0.000597903
3.03485e-05
-0.000703462
-7.55811e-06
-0.000673637
-9.75752e-05
-0.000553685
-5.77113e-05
-0.000384327
6.19777e-05
-0.000230829
-0.000171973
-0.000193339
-0.000215029
-0.000131472
-0.000267982
0.000130295
-0.000298952
0.000740356
-3.99207e-05
0.000993922
0.000300446
0.00114384
0.000688731
0.00138139
0.00100299
0.0017251
0.00133751
-0.00209103
0.000837107
-0.00217886
0.000431346
-0.0021479
0.000169104
-0.00208855
3.66893e-05
-0.00204576
1.11598e-05
-0.000682996
9.88145e-06
-0.000656034
-2.51616e-05
-0.00056032
-9.09396e-05
-0.000431971
-1.00679e-05
-0.000305927
0.000137076
-0.000200835
-0.000164478
-0.00015248
-0.000194021
2.93975e-05
-0.000167084
0.000468741
-2.73374e-05
0.000675006
0.000278996
0.000858761
0.000585529
0.00110467
0.000965447
0.00138498
0.00134311
0.00172306
0.00168282
-0.00206836
0.00108581
-0.00233973
0.000564276
-0.00231179
0.000235657
-0.00221445
6.14003e-05
-0.00211326
-8.35229e-06
-0.00203741
2.12035e-06
-0.000640683
-5.46911e-06
-0.000557133
-2.83485e-05
-0.000452528
-7.03816e-05
-0.000346224
3.02296e-05
-0.000259283
0.000195525
-0.000189752
-0.000127205
-9.51942e-05
-6.94292e-05
0.000218781
8.28759e-05
0.000328579
0.00031909
0.000590608
0.000547148
0.000790532
0.000899666
0.00106793
0.0012825
0.00133004
0.00173613
0.00152134
0.000486399
-0.00180392
0.000486596
0.000496074
0.000496325
0.00126452
-0.00224708
0.000619366
-0.00239482
0.000252909
-0.00232905
5.83625e-05
-0.00221141
-3.62186e-05
-0.00208539
-4.45926e-05
-0.00199282
-3.56604e-06
-0.000550813
-1.1789e-05
-0.000458859
-2.20163e-05
-0.000372657
-4.39483e-05
-0.00029241
6.33567e-05
-0.000275523
0.000281296
-0.000206425
-1.59748e-05
-2.08043e-06
0.000151432
9.88262e-05
0.000312628
0.000362681
0.000547017
0.000537637
0.000800043
0.000743809
0.00122379
0.00101565
0.00159689
0.00110013
0.00215735
-4.83926e-07
0.000346702
-0.00036688
0.000507061
0.000372843
-0.00196574
0.000370832
0.000342585
0.000340081
0.000347735
-0.00036701
0.000505387
-2.2092e-07
0.000300506
0.000542491
0.000302186
0.000541654
0.000605016
-0.00223273
0.000168159
-0.00231007
5.38135e-06
-0.00227606
-8.60123e-05
-0.00216162
-9.9331e-05
-0.00203066
-7.45311e-05
-0.00191828
-5.99612e-06
-0.000459851
-1.07961e-05
-0.000382547
-1.21241e-05
-0.000321631
-1.47253e-05
-0.000284577
7.24126e-05
-0.000296569
0.00037144
-0.000193084
0.000175029
-4.32498e-05
0.000293509
0.0001555
0.00051981
0.000360661
0.000723993
0.000412874
0.00113098
0.00075259
0.00148684
0.000714079
0.00198294
-0.000236239
-0.000238169
0.000781864
0.000611783
0.000605097
0.000618619
0.000617082
-7.3387e-07
-0.000402323
0.000409021
2.43602e-07
0.000266158
-0.000303998
0.000544658
-0.00183042
0.000469705
-0.000399571
0.00040266
-5.60043e-07
-0.000397539
0.000338361
-0.000392669
0.000332618
0.000265697
-0.000300944
0.000540877
3.19214e-07
0.00057209
0.0005695
-9.17251e-05
-0.00197285
-0.000165386
-0.0021393
-0.00017643
-0.00218565
-0.000171999
-0.00208895
-0.000151816
-0.00195337
-9.9218e-05
-0.00181907
-5.7296e-06
-0.000387275
-6.06656e-06
-0.000333078
-6.74267e-07
-0.000301439
2.13813e-06
-0.000286886
6.27302e-05
-0.000272728
0.000451084
-0.000181172
0.000312951
-2.43511e-05
0.000473359
0.000163948
0.000716523
0.000153282
0.000983585
0.000492805
0.00139076
0.000460388
0.00174053
0.00049964
0.00057843
0.000577485
0.000556513
0.000552733
4.23579e-07
0.000109051
-0.000136506
0.000638815
0.000107481
-0.000136589
0.000634629
-3.23656e-07
9.91714e-05
0.000628823
9.81868e-05
0.000626053
-5.15344e-07
-0.000345933
0.000451471
8.80865e-07
0.000181874
-0.000207298
0.000162785
0.000116325
0.000160059
0.000130032
-0.00149713
-0.000425018
0.00036322
0.000359514
-0.00145717
5.04118e-05
5.9765e-05
0.000151143
0.00015261
-0.000342373
0.000443574
-7.71736e-07
0.000356419
0.000348987
0.000180258
-0.000204049
0.00016139
0.000117289
0.000158155
0.000128715
1.03143e-06
0.000170607
0.00013595
0.000169372
0.000140498
0.000169461
0.000137629
0.000167624
0.000139488
-0.000472096
-0.00166614
-0.000338068
-0.00197767
-0.000271477
-0.00208617
-0.000248025
-0.00199274
-0.000204126
-0.00184846
-0.000127396
-0.00169167
-3.95926e-06
-0.000338472
-6.72754e-07
-0.000305598
3.48457e-06
-0.000293574
8.82503e-06
-0.000246294
3.62949e-05
-0.000319927
0.000589838
-0.000203358
0.000491958
-5.33139e-05
0.000690621
-8.5478e-06
0.000878353
0.000214929
0.00126146
0.000248513
0.00160264
0.000286995
0.000481827
0.000480361
0.000496168
0.000494821
-1.30972e-07
7.45122e-05
0.00060322
7.2966e-05
0.000602574
-8.31061e-09
4.46124e-05
0.000586421
4.20506e-05
0.000583641
6.29692e-07
2.78792e-05
-2.38915e-05
-9.14078e-06
0.000139546
-1.54639e-05
0.000184416
0.000143164
0.000186225
5.42073e-06
2.6597e-05
-2.37576e-05
-8.58732e-06
-1.52422e-05
0.000138357
0.000184517
0.000141975
0.000185323
6.07616e-06
7.92414e-07
1.03781e-05
0.000138015
0.000180992
0.000140788
0.000185687
9.83134e-06
0.000138015
0.000180236
0.000140586
0.000184773
-2.32981e-07
-0.00023311
0.00013938
9.93017e-05
0.000137738
0.000101097
-2.24031e-05
9.21527e-06
1.16212e-07
2.0596e-05
0.000155261
-7.89822e-06
1.63549e-05
-1.90255e-05
0.000126894
2.66545e-08
-2.38209e-05
0.000153552
1.73413e-05
0.000138261
-0.00113695
-0.000832282
-0.00124458
-0.000217312
-0.000198916
-0.000115465
-0.000105909
-2.47872e-06
0.000230389
-0.000183408
5.90991e-06
0.000237985
-0.00018857
7.87103e-06
-3.29102e-06
0.000242137
0.000142685
0.000246509
0.000140795
-0.00023158
0.000137583
9.89972e-05
0.000135883
9.84096e-05
-2.12434e-06
0.000112151
7.40029e-05
0.000101847
7.95696e-05
0.000109882
7.43907e-05
9.97919e-05
7.77273e-05
-2.13692e-05
9.01995e-06
1.98017e-05
0.000154054
-7.68491e-06
1.61386e-05
-1.8739e-05
0.000127574
-2.30478e-05
0.000152175
1.6915e-05
0.000136959
1.90816e-05
1.12092e-05
2.23987e-07
0.000160688
-1.54989e-05
-1.88802e-05
0.000146438
2.32211e-07
0.000163579
0.000150168
1.84857e-05
1.13268e-05
0.000159674
-1.53867e-05
-1.84841e-05
0.000147742
0.000162368
0.000149245
-0.000620803
-0.0013834
-0.000419641
-0.0018295
-0.000383614
-0.00195058
-0.000323106
-0.00187376
-0.000253968
-0.00172189
-0.000160804
-0.00153087
-2.06923e-06
-0.000306798
5.23869e-07
-0.000288626
-1.46739e-06
-0.000235394
-2.08032e-06
-0.000287804
4.16929e-06
-0.00035261
0.000739089
-0.000345692
0.000784336
-0.000142156
0.000824229
-2.22215e-05
0.0011155
4.55349e-05
0.00146444
0.000113708
0.000436971
0.000436767
0.000451581
0.000450605
2.60977e-07
1.11803e-05
0.000514998
1.02214e-05
0.000512451
-4.17114e-08
2.94342e-06
0.000504447
3.58201e-06
0.000501418
1.25736e-06
2.25546e-06
0.000130633
0.000171349
0.000134691
0.000173377
2.24777e-06
0.000131234
0.000171294
0.00013585
0.000173027
1.51187e-06
-1.08607e-05
0.000127211
0.000168098
0.000129815
0.000172909
-1.19474e-05
0.00012838
0.000167348
0.000131403
0.000172237
-8.63361e-07
-1.09201e-05
-1.26882e-06
0.000152599
-2.13895e-06
-6.2944e-06
0.000139407
-1.46011e-05
-4.91566e-07
0.000186698
1.19814e-05
-5.62221e-06
-1.12913e-05
0.000149157
-1.43444e-07
-1.31816e-05
0.000179343
-4.39343e-08
9.59439e-07
0.000165927
-2.7518e-06
-6.33876e-06
0.000141591
-3.64163e-07
-1.09674e-05
-1.91833e-06
0.000151607
-1.49129e-05
1.32819e-05
0.000185293
-5.18248e-06
-1.17675e-05
0.000147957
-1.359e-05
0.000178674
1.37127e-06
0.000164277
-6.26602e-06
1.30072e-05
-1.3532e-05
0.000144806
1.23773e-05
1.34805e-07
-1.02303e-05
0.000172443
-5.96404e-06
0.000148468
2.08387e-08
0.000178931
-6.27906e-06
1.31841e-05
-1.36069e-05
0.000144717
1.29925e-05
-1.07966e-05
0.000171895
-6.03194e-06
0.000148035
0.000178165
2.84143e-05
8.14351e-06
-2.20374e-07
-3.11593e-05
0.000134202
-6.96685e-06
-2.38912e-05
0.000111134
1.69221e-09
0.000135362
-2.62319e-05
0.000111581
-1.02288e-05
-3.78976e-07
3.9622e-08
5.59523e-06
0.000160234
1.02364e-06
2.46147e-06
-3.13232e-06
0.000126541
-1.68803e-07
-1.12089e-05
0.000155706
3.05136e-07
0.000140039
-0.000798753
-0.000958997
-0.000874108
-0.000338429
-0.000328317
-0.000275494
-0.000260518
-1.31128e-06
0.000168142
-0.000157056
-0.000227086
0.000173135
-0.000162797
-0.000210566
-2.0266e-06
-0.000128705
-0.00012337
-3.88051e-06
0.000108373
-0.000110306
-2.04782e-05
1.31247e-05
-3.553e-06
2.2595e-05
0.000123293
-0.000127303
-2.09282e-05
1.20716e-05
-4.8744e-06
2.17313e-05
-3.21385e-06
2.02127e-05
3.92164e-05
4.34823e-05
4.82623e-07
5.20124e-05
2.13419e-05
4.53555e-05
3.21535e-05
2.14097e-05
4.1498e-05
4.44064e-05
3.09815e-06
5.08838e-05
2.0663e-05
4.4369e-05
3.45461e-05
2.80119e-05
7.7182e-06
-3.09526e-05
0.000132585
-6.81105e-06
-2.35022e-05
0.000110571
0.000134038
-2.59065e-05
0.000108532
-3.53282e-05
9.5578e-06
-5.54463e-07
0.000107317
-1.31394e-05
2.86073e-05
7.87477e-05
-8.0908e-07
9.33878e-05
9.15026e-05
-3.58796e-05
8.91091e-06
0.000105343
-1.23753e-05
2.88342e-05
7.93415e-05
9.22259e-05
8.95658e-05
-8.86487e-06
-8.11771e-07
4.83734e-06
0.000158933
1.16719e-06
2.17123e-06
-2.72006e-06
0.000126956
-1.01653e-05
0.000154474
1.87194e-07
0.000138131
2.41864e-06
9.43383e-08
0.000164751
0.000146598
2.59572e-06
0.000163381
0.00014569
-0.000598977
-0.00120406
-0.000531263
-0.00168185
-0.00046988
-0.00180381
-0.000390384
-0.00173734
-0.000314031
-0.00156866
-0.00020523
-0.00132564
-1.87304e-06
-0.000283073
-5.03099e-06
-0.000223567
-1.32964e-05
-0.000245432
-4.44555e-05
-0.000304036
-4.44059e-05
-0.000390361
0.000783757
-0.000427586
0.00106977
-0.000190314
0.000992321
-0.000133301
0.00129434
-8.56079e-05
0.000402162
0.0004018
0.00042994
0.000429854
1.4924e-07
-3.52827e-06
0.000443293
-3.01816e-06
0.000443516
-6.82064e-08
-1.89539e-05
0.000467075
-1.88754e-05
0.000466394
1.63477e-06
-2.36742e-05
0.00011121
0.000148662
0.000115539
0.000150803
-2.48584e-05
0.000112471
0.000147866
0.000116819
0.000149833
1.59921e-06
-3.44048e-05
0.000113086
0.000143437
0.000112093
0.000144933
-3.76465e-05
0.000114764
0.000142873
0.000113824
0.000144318
-6.55457e-06
-1.71943e-05
0.000140849
-1.42293e-05
1.77731e-07
0.000168632
-6.40155e-06
-1.55221e-05
0.000139426
7.2295e-08
-1.12002e-05
0.00016391
-6.48224e-06
-1.77124e-05
0.000141822
-1.45833e-05
0.000168776
-6.16628e-06
-1.62321e-05
0.000140536
-1.14337e-05
0.000163773
-7.90723e-06
1.81575e-05
-1.70328e-05
0.000133989
1.00856e-05
8.03811e-08
-1.1678e-05
0.000161724
-6.00994e-06
0.000138455
4.5863e-08
0.000165719
-7.7764e-06
1.87786e-05
-1.7743e-05
0.000135121
1.05495e-05
-1.22079e-05
0.000161319
-5.98222e-06
0.000139931
0.000165427
-1.11157e-07
6.17276e-06
2.63443e-07
-3.04612e-05
-3.68625e-05
-1.0271e-07
-1.86929e-07
1.36736e-05
2.66285e-07
-1.2792e-05
-3.9084e-08
-1.34534e-05
-2.75534e-07
5.90333e-06
3.06192e-07
-3.02316e-05
1.43959e-05
-3.70541e-05
3.68461e-07
-1.28528e-05
-1.36593e-05
1.87548e-07
1.30085e-05
-1.35247e-05
1.08549e-05
2.49926e-08
-1.11448e-05
2.43675e-07
-3.88728e-09
1.82297e-07
1.31016e-05
-1.38042e-05
1.11e-05
-1.13688e-05
1.72632e-07
1.4336e-05
1.1422e-06
-3.47734e-07
-2.0143e-05
0.000139228
6.7605e-07
-3.12225e-06
0.000110448
-1.29669e-07
0.000139312
-1.67862e-06
0.00011128
3.17034e-06
1.18255e-07
-9.27059e-08
-1.00977e-05
-5.97565e-07
-8.45722e-06
8.96532e-06
-1.54083e-07
1.75496e-06
-9.91875e-06
-0.000642098
-0.000755632
-0.000604068
-0.000304447
-0.000298774
-0.000318788
-0.000307027
1.74854e-06
0.000137889
-0.000113154
-0.000364913
0.000141278
-0.000115655
-0.000352191
1.47292e-06
-0.000296133
-0.000280564
-2.38992e-06
0.000105871
-0.000102757
-8.17084e-05
-4.37087e-05
-6.76283e-05
-3.47914e-05
0.000126711
-0.000124204
-7.63199e-05
-4.10323e-05
-6.41422e-05
-3.39477e-05
-3.86099e-06
-4.03662e-05
-1.35683e-05
-5.30337e-05
-2.23459e-05
-3.99607e-05
-1.38002e-05
-5.13763e-05
-2.2696e-05
-1.01144e-05
-1.21124e-05
1.16795e-05
-9.93096e-06
1.39725e-05
-4.01886e-07
-2.83913e-06
-7.66839e-06
-7.0362e-06
-1.6516e-05
7.88682e-06
-1.29799e-07
1.37216e-05
1.59395e-05
-9.21178e-06
-9.95291e-06
8.34604e-06
-1.01096e-05
1.58541e-05
-4.78253e-06
-8.61365e-06
-6.71867e-06
-1.49693e-05
6.86064e-06
1.58697e-05
1.48672e-05
-2.82348e-06
1.5493e-05
-2.727e-05
5.80828e-05
-4.11301e-06
-2.8157e-06
8.6159e-05
-5.09369e-06
-3.94375e-07
5.35012e-05
1.21388e-06
-7.93486e-06
2.82537e-05
-1.09328e-07
4.61579e-05
-8.22046e-07
2.63775e-05
9.58537e-05
-2.5855e-06
1.41303e-05
-2.67365e-05
5.9598e-05
-3.92031e-06
-1.57875e-06