/*--------------------------------*- C++ -*----------------------------------*\
| =========                 |                                                 |
| \\      /  F ield         | OpenFOAM: The Open Source CFD Toolbox           |
|  \\    /   O peration     | Version:  5.x                                   |
|   \\  /    A nd           | Web:      www.OpenFOAM.org                      |
|    \\/     M anipulation  |                                                 |
\*---------------------------------------------------------------------------*/
FoamFile
{
    version     2.0;
    format      ascii;
    class       volScalarField;
    location    "1.3";
    object      rAU;
}
// * * * * * * * * * * * * * * * * * * * * * * * * * * * * * * * * * * * * * //

dimensions      [-1 3 1 0 0 0 0];

internalField   nonuniform List<scalar> 
12160
(
1.25609e-06
1.25607e-06
1.25608e-06
1.25604e-06
1.25607e-06
1.25608e-06
1.25704e-06
1.25601e-06
1.25668e-06
1.25513e-06
1.25704e-06
1.25698e-06
1.2566e-06
1.25511e-06
1.25606e-06
1.25705e-06
1.257e-06
1.25681e-06
1.25597e-06
1.25672e-06
1.25507e-06
1.2561e-06
1.25704e-06
1.25684e-06
1.25681e-06
1.25658e-06
1.25519e-06
1.25506e-06
1.25607e-06
1.25622e-06
1.25702e-06
1.25685e-06
1.25635e-06
1.25596e-06
1.25521e-06
1.25496e-06
1.25704e-06
1.25617e-06
1.25702e-06
1.257e-06
1.25638e-06
1.25625e-06
1.25594e-06
1.25556e-06
1.9902e-06
1.25705e-06
1.25704e-06
1.25696e-06
1.257e-06
1.25698e-06
1.2562e-06
1.25605e-06
1.25812e-06
1.88395e-06
4.35079e-05
1.2559e-06
1.25701e-06
1.25698e-06
1.25691e-06
1.25698e-06
1.25688e-06
1.25606e-06
1.26071e-06
1.88976e-06
4.34195e-05
0.000694491
1.25507e-06
1.25687e-06
1.25696e-06
1.25686e-06
1.25685e-06
1.25696e-06
1.25693e-06
1.26476e-06
1.91833e-06
3.33656e-05
0.0012396
0.00124836
1.25623e-06
1.25659e-06
1.25703e-06
1.25692e-06
1.25678e-06
1.25677e-06
1.25695e-06
1.27106e-06
1.99041e-06
2.74297e-05
0.00116621
0.00125585
0.00125594
1.25707e-06
1.25678e-06
1.25692e-06
1.257e-06
1.25685e-06
1.25667e-06
1.2567e-06
1.27508e-06
2.06138e-06
2.57949e-05
0.00110506
0.00125639
0.00125566
0.00125594
1.25707e-06
1.25707e-06
1.25696e-06
1.25702e-06
1.25697e-06
1.25674e-06
1.25663e-06
1.27323e-06
2.07276e-06
2.59598e-05
0.000994805
0.00125568
0.00125672
0.00125557
0.00125623
1.25706e-06
1.25707e-06
1.25707e-06
1.25702e-06
1.257e-06
1.25692e-06
1.25689e-06
1.26769e-06
2.01739e-06
2.36459e-05
0.000906281
0.00125584
0.0012558
0.00125665
0.00125415
1.25706e-06
1.25706e-06
1.25707e-06
1.25704e-06
1.25702e-06
1.25699e-06
1.25698e-06
1.26203e-06
1.91642e-06
1.96174e-05
0.000792114
0.00125514
0.00125615
0.00125641
0.00125618
1.25706e-06
1.25706e-06
1.25706e-06
1.25707e-06
1.25704e-06
1.25695e-06
1.25698e-06
1.2581e-06
1.82006e-06
1.51083e-05
0.000646864
0.00125405
0.00125617
0.00125599
0.00125459
1.25706e-06
1.25706e-06
1.25706e-06
1.25706e-06
1.25707e-06
1.2569e-06
1.25695e-06
1.25698e-06
1.75587e-06
1.14516e-05
0.000478395
0.00125271
0.00125582
0.00125656
0.00125428
1.25706e-06
1.25706e-06
1.25706e-06
1.25706e-06
1.25706e-06
1.25686e-06
1.2569e-06
1.25683e-06
1.72786e-06
9.26725e-06
0.000326294
0.00124811
0.00125519
0.00125636
0.00125373
1.25705e-06
1.25706e-06
1.25706e-06
1.25706e-06
1.25706e-06
1.25684e-06
1.25686e-06
1.25665e-06
1.73542e-06
8.46271e-06
0.000225632
0.00123928
0.00125448
0.00125585
0.00125278
1.25705e-06
1.25705e-06
1.25706e-06
1.25706e-06
1.25706e-06
1.25683e-06
1.25684e-06
1.25649e-06
1.78428e-06
8.51852e-06
0.00018035
0.00122764
0.0012544
0.0012543
0.00125159
1.25705e-06
1.25705e-06
1.25705e-06
1.25706e-06
1.25706e-06
1.25681e-06
1.25683e-06
1.25632e-06
1.8714e-06
9.2892e-06
0.000174435
0.00121672
0.00125509
0.00125571
0.00124994
1.25705e-06
1.25705e-06
1.25705e-06
1.25705e-06
1.25706e-06
1.25679e-06
1.25681e-06
1.25619e-06
1.99312e-06
1.08299e-05
0.000198685
0.00121146
0.00125667
0.00125611
0.00125173
1.25704e-06
1.25705e-06
1.25705e-06
1.25705e-06
1.25705e-06
1.25677e-06
1.25679e-06
1.25609e-06
2.14685e-06
1.31615e-05
0.000261364
0.00122055
0.00125664
0.00125703
0.00125337
1.25704e-06
1.25705e-06
1.25705e-06
1.25705e-06
1.25705e-06
1.25675e-06
1.25677e-06
1.25603e-06
2.32773e-06
1.64622e-05
0.000359058
0.00123512
0.00125701
0.00125636
0.00125583
1.25704e-06
1.25704e-06
1.25705e-06
1.25705e-06
1.25705e-06
1.25674e-06
1.25578e-06
1.25598e-06
2.52796e-06
2.09258e-05
0.000487134
0.0012452
0.00125702
0.00125609
0.00125639
1.25704e-06
1.25704e-06
1.25704e-06
1.25705e-06
1.25705e-06
1.25673e-06
1.25577e-06
1.25498e-06
2.73502e-06
2.66131e-05
0.00063766
0.00125091
0.00125703
0.00125569
0.00125517
1.25703e-06
1.25704e-06
1.25704e-06
1.25704e-06
1.25704e-06
1.25672e-06
1.25575e-06
1.25497e-06
2.93132e-06
3.33134e-05
0.000784252
0.00125403
0.00125703
0.00125553
0.00125433
1.25703e-06
1.25703e-06
1.25704e-06
1.25704e-06
1.25704e-06
1.25672e-06
1.25574e-06
1.25496e-06
3.09585e-06
4.03774e-05
0.000904509
0.001256
0.00125703
0.00125569
0.00125386
1.25703e-06
1.25703e-06
1.25703e-06
1.25704e-06
1.25704e-06
1.25672e-06
1.25573e-06
1.25495e-06
3.20803e-06
4.67133e-05
0.000990385
0.00125658
0.00125703
0.0012562
0.00125382
1.25703e-06
1.25703e-06
1.25703e-06
1.25703e-06
1.25704e-06
1.25673e-06
1.25572e-06
1.25493e-06
3.25307e-06
5.11802e-05
0.00104427
0.00125679
0.00125702
0.00125696
0.00125421
1.25702e-06
1.25703e-06
1.25703e-06
1.25703e-06
1.25703e-06
1.25673e-06
1.25571e-06
1.2549e-06
3.22728e-06
5.29602e-05
0.00107301
0.00125688
0.00125701
0.00125636
0.00125491
1.25702e-06
1.25702e-06
1.25703e-06
1.25703e-06
1.25703e-06
1.25675e-06
1.25571e-06
1.25486e-06
3.13645e-06
5.18431e-05
0.00108362
0.00125691
0.00125702
0.00125536
0.00125428
1.25702e-06
1.25702e-06
1.25702e-06
1.25703e-06
1.25703e-06
1.25676e-06
1.25675e-06
1.25483e-06
2.99555e-06
4.81585e-05
0.00107642
0.0012528
0.00125703
0.00125493
0.00125328
1.25701e-06
1.25702e-06
1.25702e-06
1.25702e-06
1.25702e-06
1.25677e-06
1.25676e-06
1.25586e-06
2.82354e-06
4.26746e-05
0.00105337
0.00125276
0.00125495
0.00125703
0.00125285
1.25701e-06
1.25701e-06
1.25702e-06
1.25702e-06
1.25702e-06
1.25678e-06
1.25677e-06
1.25589e-06
2.63878e-06
3.63599e-05
0.00101082
0.00125689
0.00125493
0.00125653
0.00125494
1.25644e-06
1.25701e-06
1.25701e-06
1.25702e-06
1.25702e-06
1.25679e-06
1.25678e-06
1.25594e-06
2.45575e-06
3.01021e-05
0.000944166
0.00125682
0.00125703
0.00125703
0.00125443
1.25445e-06
1.25701e-06
1.25701e-06
1.25701e-06
1.25702e-06
1.2568e-06
1.25679e-06
1.25601e-06
2.28433e-06
2.45214e-05
0.000850939
0.00125668
0.00125703
0.00125703
0.00125491
1.2558e-06
1.257e-06
1.25701e-06
1.25699e-06
1.25701e-06
1.25681e-06
1.2568e-06
1.2561e-06
2.13028e-06
1.98758e-05
0.000734096
0.00125638
0.00125703
0.00125703
0.00125489
1.25783e-06
1.25736e-06
1.257e-06
1.25697e-06
1.25699e-06
1.25683e-06
1.25681e-06
1.25621e-06
1.99629e-06
1.61795e-05
0.000604133
0.00125532
0.00125701
0.00125703
0.00125486
1.25784e-06
1.25736e-06
1.25698e-06
1.25698e-06
1.25697e-06
1.25687e-06
1.25683e-06
1.25635e-06
1.88309e-06
1.33231e-05
0.000476602
0.00125335
0.00125701
0.00125703
0.00125482
1.25785e-06
1.25736e-06
1.25698e-06
1.25698e-06
1.25698e-06
1.25691e-06
1.25686e-06
1.25648e-06
1.79056e-06
1.11518e-05
0.000366776
0.00125035
0.00125703
0.00125703
0.00125478
1.25788e-06
1.25737e-06
1.25698e-06
1.25698e-06
1.25699e-06
1.25695e-06
1.25691e-06
1.2566e-06
1.71804e-06
9.53158e-06
0.000277498
0.00124528
0.00125703
0.00125703
0.00125478
1.2579e-06
1.25731e-06
1.25698e-06
1.25698e-06
1.25699e-06
1.25701e-06
1.25695e-06
1.25672e-06
1.6643e-06
8.34689e-06
0.00021139
0.00123685
0.00125703
0.00125577
0.00125482
1.25793e-06
1.25732e-06
1.2568e-06
1.25698e-06
1.25697e-06
1.257e-06
1.25696e-06
1.25685e-06
1.62846e-06
7.50046e-06
0.000164587
0.00122291
0.00125703
0.00125493
0.00125361
1.25797e-06
1.25741e-06
1.2568e-06
1.2567e-06
1.25697e-06
1.25697e-06
1.257e-06
1.257e-06
1.60899e-06
6.93786e-06
0.000132885
0.00120243
0.00125702
0.00125507
0.00125286
1.60474e-06
1.25836e-06
1.25697e-06
1.2567e-06
1.25659e-06
1.25696e-06
1.25615e-06
1.25703e-06
1.25567e-06
6.6733e-06
0.000116109
0.00117708
0.001257
0.00125528
0.00125314
6.6731e-06
1.60945e-06
1.26353e-06
1.257e-06
1.25659e-06
1.25638e-06
1.2562e-06
1.25635e-06
1.25625e-06
1.2526e-06
0.000113365
0.0011581
0.00125697
0.00125557
0.00125355
0.000119971
7.00404e-06
1.68554e-06
1.27511e-06
1.25675e-06
1.25601e-06
1.25613e-06
1.25555e-06
1.25671e-06
1.25499e-06
1.25122e-06
0.00115994
0.00125694
0.00125595
0.00125413
0.0011768
0.000137741
9.42556e-06
1.8658e-06
1.29306e-06
1.25618e-06
1.25471e-06
1.25554e-06
1.25614e-06
1.25666e-06
1.25364e-06
1.24155e-06
0.00125692
0.00125642
0.0012549
0.00125596
0.00119322
0.000229597
1.55839e-05
2.16336e-06
1.32023e-06
1.25544e-06
1.25578e-06
1.25587e-06
1.25575e-06
1.25666e-06
1.23994e-06
1.25661e-06
1.25439e-06
0.00125692
0.00125582
0.00125645
0.00125472
0.00122177
0.000434799
2.74543e-05
2.57365e-06
1.35372e-06
1.25728e-06
1.25564e-06
1.25484e-06
1.25628e-06
1.24968e-06
1.25596e-06
1.25635e-06
1.25661e-06
1.25303e-06
0.00125686
0.00125521
0.00125583
0.0012529
0.00124155
0.000694359
4.58576e-05
3.05963e-06
1.38628e-06
1.25872e-06
1.25552e-06
1.25464e-06
1.25405e-06
1.25596e-06
1.25705e-06
1.25635e-06
1.25705e-06
1.25705e-06
1.24718e-06
0.00125217
0.00125502
0.0012522
0.00125112
0.000896446
6.94337e-05
3.5359e-06
1.40693e-06
1.25806e-06
1.25408e-06
1.25525e-06
1.25698e-06
1.25705e-06
1.25704e-06
1.25703e-06
1.25704e-06
1.25705e-06
1.25706e-06
1.23536e-06
0.00124866
0.00125422
0.00125266
0.00125178
0.00101893
9.38782e-05
3.92034e-06
1.38876e-06
1.25634e-06
1.2547e-06
1.25705e-06
1.25698e-06
1.25705e-06
1.25703e-06
1.25608e-06
1.25703e-06
1.25704e-06
1.25706e-06
1.25706e-06
1.24111e-06
0.00124638
0.00125204
0.00125342
0.00125325
0.00109174
0.000126699
3.93881e-06
1.34679e-06
1.25593e-06
1.25705e-06
1.25705e-06
1.25705e-06
1.25703e-06
1.25686e-06
1.25841e-06
1.25701e-06
1.25217e-06
1.25704e-06
1.25705e-06
1.25706e-06
1.25707e-06
0.00124405
0.0012548
0.00125444
0.00125393
0.00115162
0.000163165
3.88065e-06
1.28861e-06
1.2566e-06
1.25705e-06
1.25705e-06
1.25704e-06
1.257e-06
1.25685e-06
1.25243e-06
1.25808e-06
1.25274e-06
1.25912e-06
1.25901e-06
1.24927e-06
1.25572e-06
1.257e-06
1.25705e-06
1.25705e-06
1.25706e-06
0.00124717
0.00125559
0.0012545
0.00125421
0.00119954
0.000219102
3.56287e-06
1.33784e-06
1.25705e-06
1.25705e-06
1.25704e-06
1.25627e-06
1.25691e-06
1.25711e-06
1.26177e-06
1.2559e-06
1.25275e-06
1.26144e-06
1.26159e-06
1.2614e-06
1.25591e-06
1.25005e-06
1.24993e-06
1.25576e-06
1.25701e-06
1.25704e-06
1.25705e-06
1.25705e-06
1.25705e-06
0.00124808
0.00125557
0.00125416
0.00125363
0.00122847
0.000294331
4.00397e-06
1.33108e-06
1.25594e-06
1.25486e-06
1.25703e-06
1.25623e-06
1.26001e-06
1.2597e-06
1.26506e-06
1.25919e-06
1.26502e-06
1.25609e-06
1.26708e-06
1.2574e-06
1.26161e-06
1.25609e-06
1.26234e-06
1.2627e-06
1.26703e-06
1.26727e-06
1.2663e-06
1.25711e-06
1.25704e-06
1.25704e-06
1.25705e-06
1.25705e-06
1.25705e-06
0.00124885
0.00125527
0.00125356
0.00125474
0.00124486
0.000351578
4.38797e-06
1.35177e-06
1.25693e-06
1.25485e-06
1.25701e-06
1.26149e-06
1.26412e-06
1.26318e-06
1.26759e-06
1.26752e-06
1.27137e-06
1.27133e-06
1.2707e-06
1.2707e-06
1.26545e-06
1.26928e-06
1.26205e-06
1.26635e-06
1.27183e-06
1.2548e-06
1.25651e-06
1.25845e-06
1.25828e-06
1.2564e-06
1.2552e-06
1.26532e-06
1.26225e-06
1.26258e-06
1.27119e-06
1.26267e-06
1.26699e-06
1.27229e-06
1.26043e-06
1.2585e-06
1.26548e-06
1.26359e-06
1.26259e-06
1.25971e-06
1.26633e-06
1.26424e-06
1.25589e-06
1.25704e-06
1.25704e-06
1.25705e-06
1.25705e-06
1.25705e-06
0.00124929
0.00125354
0.00125446
0.00125384
0.00124844
0.000429061
5.62322e-06
1.45003e-06
1.25875e-06
1.25703e-06
1.25867e-06
1.26641e-06
1.26638e-06
1.26431e-06
1.26498e-06
1.26844e-06
1.26852e-06
1.26774e-06
1.26771e-06
1.19989e-06
1.25996e-06
1.18882e-06
1.28728e-06
1.31711e-06
1.26716e-06
1.25986e-06
1.20008e-06
1.31293e-06
1.2857e-06
1.31676e-06
1.2667e-06
1.2929e-06
1.30752e-06
1.29977e-06
1.31297e-06
1.29346e-06
1.30734e-06
1.29955e-06
1.31259e-06
1.2595e-06
1.24933e-06
1.2508e-06
1.25129e-06
1.26547e-06
1.26795e-06
1.27707e-06
1.2656e-06
1.25155e-06
1.24996e-06
1.25566e-06
1.25676e-06
1.25377e-06
1.25184e-06
1.25202e-06
1.25194e-06
1.25504e-06
1.25353e-06
1.2595e-06
1.25048e-06
1.25146e-06
1.24936e-06
1.2677e-06
1.26372e-06
1.25965e-06
1.25792e-06
1.26797e-06
1.2641e-06
1.26107e-06
1.25622e-06
1.26579e-06
1.26898e-06
1.27728e-06
1.26646e-06
1.27149e-06
1.26944e-06
1.27132e-06
1.2693e-06
1.25444e-06
1.25704e-06
1.25704e-06
1.25705e-06
1.25705e-06
1.25705e-06
0.00124776
0.00125351
0.00125377
0.00125281
0.00125071
0.000607076
9.00211e-06
1.59274e-06
1.26537e-06
1.26023e-06
1.24943e-06
1.24979e-06
1.26451e-06
1.26453e-06
1.26519e-06
1.26508e-06
1.26352e-06
1.26331e-06
1.27335e-06
1.29576e-06
1.28356e-06
1.29428e-06
1.27458e-06
1.29556e-06
1.28384e-06
1.29428e-06
1.24547e-06
1.27727e-06
1.2825e-06
1.29093e-06
1.24545e-06
1.27688e-06
1.28299e-06
1.29096e-06
1.27291e-06
8.21276e-07
7.62053e-07
1.27132e-06
1.21252e-06
1.24972e-06
1.27284e-06
8.0337e-07
1.27306e-06
1.06126e-06
1.20981e-06
1.24899e-06
1.30795e-06
1.2369e-06
1.28798e-06
1.28499e-06
1.3063e-06
1.2401e-06
1.28774e-06
1.28426e-06
1.27477e-06
1.26892e-06
1.27473e-06
1.27117e-06
1.33723e-06
1.24693e-06
1.33208e-06
1.3143e-06
1.25234e-06
1.2436e-06
1.23036e-06
1.23429e-06
1.24389e-06
1.2343e-06
1.24736e-06
1.2482e-06
1.24834e-06
1.24557e-06
1.23828e-06
1.24235e-06
1.24762e-06
1.23361e-06
1.23981e-06
1.24301e-06
1.24772e-06
1.23453e-06
1.2587e-06
1.26077e-06
1.23706e-06
1.25782e-06
1.21975e-06
1.23521e-06
1.256e-06
1.26128e-06
1.23668e-06
1.26236e-06
1.21886e-06
1.23415e-06
1.2746e-06
1.2695e-06
1.27218e-06
1.27083e-06
1.26157e-06
1.2645e-06
1.2623e-06
1.26512e-06
1.33304e-06
1.26385e-06
1.33117e-06
1.31658e-06
1.26112e-06
1.25874e-06
1.25726e-06
1.25878e-06
1.25567e-06
1.25704e-06
1.25704e-06
1.25705e-06
1.25705e-06
1.25705e-06
0.00124783
0.00125563
0.00125379
0.00125279
0.00125181
0.000841806
1.58745e-05
1.8591e-06
1.29383e-06
1.2573e-06
1.25647e-06
1.25821e-06
1.25843e-06
1.2492e-06
1.24865e-06
1.25043e-06
1.25044e-06
1.25512e-06
1.26486e-06
1.25467e-06
1.26681e-06
1.25488e-06
1.26444e-06
1.25723e-06
1.26667e-06
1.25343e-06
1.27675e-06
1.25336e-06
1.2723e-06
1.25331e-06
1.27694e-06
1.25589e-06
1.2724e-06
1.32707e-06
1.34863e-06
1.2746e-06
1.26884e-06
1.32764e-06
1.34869e-06
1.2765e-06
1.26883e-06
1.26136e-06
1.28405e-06
1.27526e-06
1.28049e-06
1.26139e-06
1.28414e-06
1.27683e-06
1.28042e-06
1.24991e-06
1.25671e-06
1.30476e-06
1.27394e-06
1.25564e-06
1.25017e-06
1.24701e-06
1.24693e-06
1.23758e-06
1.23632e-06
1.22762e-06
1.22931e-06
1.23407e-06
1.22409e-06
1.21039e-06
1.21405e-06
1.21414e-06
1.22085e-06
1.21639e-06
1.21635e-06
1.21634e-06
1.22313e-06
1.2309e-06
1.23498e-06
1.21497e-06
1.22837e-06
1.2321e-06
1.23532e-06
1.21695e-06
1.22935e-06
1.24693e-06
1.24381e-06
1.23968e-06
1.23564e-06
1.24585e-06
1.24342e-06
1.24082e-06
1.23741e-06
1.27005e-06
1.21688e-06
1.01032e-06
1.21134e-06
1.26228e-06
1.17489e-06
1.26555e-06
1.23557e-06
1.0127e-06
1.21008e-06
1.27435e-06
1.17327e-06
1.25067e-06
1.26178e-06
1.29838e-06
1.2731e-06
1.27655e-06
1.27241e-06
1.27687e-06
1.27267e-06
1.25667e-06
1.25704e-06
1.25704e-06
1.25705e-06
1.25705e-06
1.25705e-06
0.00124974
0.00125573
0.00125405
0.00125322
0.00125263
0.00103524
3.32233e-05
2.54946e-06
1.4193e-06
1.25198e-06
1.24635e-06
1.25316e-06
1.24766e-06
1.26039e-06
1.26032e-06
1.25454e-06
1.25452e-06
1.25377e-06
1.26644e-06
1.24998e-06
1.2747e-06
1.25261e-06
1.26684e-06
1.25101e-06
1.2746e-06
1.22433e-06
1.24907e-06
1.25075e-06
1.25031e-06
1.22256e-06
1.24886e-06
1.24857e-06
1.25007e-06
1.21678e-06
1.04825e-06
1.21591e-06
1.05313e-06
1.25661e-06
1.25673e-06
1.23908e-06
1.24223e-06
1.2464e-06
1.2482e-06
1.25572e-06
1.25361e-06
1.25687e-06
1.25757e-06
1.1661e-06
1.15897e-06
1.18061e-06
1.18574e-06
1.16831e-06
1.15724e-06
1.17931e-06
1.1913e-06
1.18144e-06
1.20676e-06
1.18022e-06
1.19779e-06
1.18531e-06
1.21016e-06
1.1791e-06
1.20004e-06
1.2365e-06
1.21347e-06
1.243e-06
1.22419e-06
1.23901e-06
1.21607e-06
1.24378e-06
1.22475e-06
1.23332e-06
1.2292e-06
1.23399e-06
1.21623e-06
1.22628e-06
1.22841e-06
1.234e-06
1.21733e-06
1.25703e-06
1.25704e-06
1.25704e-06
1.25705e-06
1.25705e-06
1.25705e-06
0.00124999
0.00125588
0.00125416
0.00125144
0.00125241
0.00118759
9.07272e-05
5.24613e-06
1.45848e-06
1.45847e-06
2.03112e-06
2.03124e-06
1.25069e-06
1.25052e-06
1.26071e-06
1.26079e-06
1.24786e-06
1.26705e-06
1.26643e-06
1.25569e-06
1.24764e-06
1.26856e-06
1.26584e-06
1.25593e-06
1.2591e-06
1.25412e-06
1.27347e-06
1.25671e-06
1.25901e-06
1.25432e-06
1.2732e-06
1.25661e-06
1.2815e-06
1.29858e-06
1.24677e-06
1.28499e-06
1.27937e-06
1.30012e-06
1.24886e-06
1.28495e-06
1.2297e-06
1.21646e-06
1.2602e-06
1.2624e-06
1.22731e-06
1.217e-06
1.24327e-06
1.26206e-06
1.25671e-06
1.25661e-06
1.24962e-06
1.22945e-06
1.23108e-06
1.23857e-06
1.23706e-06
1.22396e-06
1.22484e-06
1.23578e-06
1.24118e-06
1.19691e-06
1.18936e-06
1.23288e-06
1.21933e-06
1.20253e-06
1.19315e-06
1.23624e-06
1.22064e-06
1.20825e-06
1.21842e-06
1.22156e-06
1.21974e-06
1.20653e-06
1.21988e-06
1.22146e-06
1.22128e-06
1.24164e-06
9.84894e-07
1.24501e-06
9.9088e-07
1.2561e-06
1.25704e-06
1.25704e-06
1.25705e-06
1.25705e-06
1.25705e-06
0.0012508
0.00125491
0.00125473
0.0012527
0.00125301
0.00124351
0.000297544
1.60667e-05
1.55544e-06
1.55419e-06
2.81036e-06
2.80816e-06
1.21757e-06
1.26237e-06
1.24791e-06
1.2231e-06
1.22266e-06
1.26153e-06
1.24759e-06
1.22302e-06
1.23595e-06
1.23621e-06
1.23705e-06
1.19642e-06
1.22149e-06
1.2523e-06
1.23357e-06
1.20477e-06
1.21859e-06
1.26491e-06
1.26847e-06
1.25378e-06
1.26278e-06
1.26135e-06
1.26743e-06
1.23203e-06
1.26212e-06
1.26685e-06
1.03184e-06
8.70688e-07
1.01594e-06
8.73363e-07
1.25579e-06
1.25674e-06
1.25041e-06
1.21065e-06
1.21278e-06
1.19385e-06
1.19543e-06
1.22361e-06
1.2236e-06
1.21607e-06
1.21788e-06
1.06286e-06
1.11912e-06
1.06341e-06
1.12202e-06
1.06561e-06
1.12469e-06
1.0665e-06
1.11911e-06
1.10477e-06
1.13517e-06
1.11222e-06
1.1358e-06
1.12039e-06
1.14338e-06
1.11924e-06
1.13636e-06
1.20669e-06
1.1592e-06
1.24995e-06
1.23692e-06
1.21043e-06
1.16456e-06
1.2516e-06
1.23838e-06
1.20329e-06
1.18546e-06
1.23834e-06
1.23015e-06
1.20403e-06
1.18507e-06
1.23792e-06
1.2295e-06
1.2551e-06
1.25692e-06
1.25603e-06
1.25705e-06
1.25705e-06
0.00125126
0.00125544
0.00125579
0.00125628
0.00124788
0.00122259
0.00100359
3.32668e-05
3.32822e-05
0.00103513
0.00103581
1.55954e-06
1.23068e-06
1.98032e-06
1.4745e-06
1.56187e-06
1.22729e-06
1.98275e-06
1.47229e-06
5.10485e-06
5.09984e-06
1.22438e-06
1.21865e-06
1.20612e-06
1.23063e-06
1.20982e-06
1.21805e-06
1.20614e-06
1.23065e-06
1.34314e-06
1.12719e-06
1.23619e-06
1.17599e-06
1.34372e-06
1.12637e-06
1.23559e-06
1.17595e-06
1.10603e-06
1.25617e-06
1.25961e-06
1.29476e-06
1.09389e-06
1.21117e-06
1.25933e-06
1.28374e-06
1.2551e-06
1.25682e-06
1.25175e-06
1.23623e-06
1.19304e-06
1.19218e-06
1.19913e-06
1.19431e-06
1.20233e-06
1.20014e-06
1.12364e-06
1.07203e-06
1.06784e-06
1.08415e-06
1.127e-06
1.07331e-06
1.06826e-06
1.09259e-06
1.05549e-06
1.14762e-06
1.07133e-06
1.13203e-06
1.05878e-06
1.15131e-06
1.07506e-06
1.12968e-06
1.09324e-06
1.09935e-06
1.02646e-06
1.14853e-06
1.09323e-06
1.10956e-06
1.02787e-06
1.15288e-06
1.19364e-06
1.13029e-06
1.20172e-06
1.13702e-06
1.25323e-06
1.25593e-06
1.25032e-06
1.25705e-06
0.00125351
0.00125649
0.00125617
0.00125554
0.00121944
0.00116261
0.00109751
0.00109783
0.00118327
0.00118553
6.72835e-05
6.73783e-05
0.00105925
0.00103884
1.84172e-06
1.25067e-06
2.60805e-06
1.698e-06
1.84395e-06
1.24708e-06
2.60878e-06
1.69423e-06
6.57072e-06
2.08766e-05
1.48914e-05
8.48658e-06
6.56455e-06
2.09536e-05
1.48624e-05
8.5087e-06
1.23852e-06
1.2038e-06
1.18617e-06
1.22725e-06
1.21546e-06
1.20371e-06
1.18578e-06
1.22746e-06
1.42015e-06
1.10125e-06
1.28815e-06
1.05438e-06
1.41999e-06
1.10064e-06
1.28305e-06
1.05333e-06
1.25191e-06
1.25693e-06
1.25322e-06
1.24591e-06
1.2088e-06
1.21908e-06
1.19716e-06
1.19633e-06
1.18109e-06
1.18226e-06
1.10284e-06
1.07941e-06
1.07957e-06
1.07596e-06
1.10575e-06
1.08042e-06
1.08308e-06
1.07705e-06
1.10574e-06
1.07413e-06
1.10517e-06
1.05524e-06
1.09055e-06
1.07573e-06
1.11133e-06
1.0754e-06
1.10862e-06
1.05627e-06
1.09289e-06
1.07729e-06
1.14535e-06
1.0861e-06
1.15638e-06
1.08619e-06
1.00847e-06
1.05186e-06
1.01504e-06
1.06638e-06
1.00927e-06
1.05524e-06
1.01688e-06
1.06997e-06
1.24937e-06
1.25232e-06
1.25084e-06
0.00125659
0.0012556
0.00125456
0.00125188
0.00114524
0.000696251
0.000855999
0.00078417
0.000458947
0.000531785
0.000123713
4.24168e-05
6.89079e-05
0.000219587
0.000122934
3.8378e-05
4.25917e-05
0.00012495
3.83102e-05
6.89724e-05
0.00022444
0.000120502
0.000556392
0.000465423
0.000347123
0.000286735
0.000570856
0.000442788
0.000354118
0.000254162
2.29104e-06
1.49141e-06
3.20013e-06
2.12658e-06
2.29207e-06
1.48667e-06
3.1981e-06
2.12285e-06
2.09531e-05
2.36609e-05
2.09429e-05
2.39661e-05
1.0241e-06
1.10413e-06
1.0218e-06
1.09974e-06
1.53652e-06
1.09652e-06
1.53798e-06
1.09523e-06
1.24092e-06
1.25505e-06
1.25531e-06
1.25589e-06
1.211e-06
1.21261e-06
1.19699e-06
1.20721e-06
1.21359e-06
1.21466e-06
1.19886e-06
1.19984e-06
1.06194e-06
1.08793e-06
1.07776e-06
1.10586e-06
1.08441e-06
1.07684e-06
1.06243e-06
1.06008e-06
1.08015e-06
1.09514e-06
1.08566e-06
1.07834e-06
1.13147e-06
1.09691e-06
1.12333e-06
1.09665e-06
1.14861e-06
1.07627e-06
1.0843e-06
1.10608e-06
1.02034e-06
1.06358e-06
1.15335e-06
1.07916e-06
1.08724e-06
1.10868e-06
1.02305e-06
1.06601e-06
1.09198e-06
1.06545e-06
1.10731e-06
1.06796e-06
1.25106e-06
1.2477e-06
0.00125538
0.00125541
0.00125348
0.0012262
0.000908211
0.000135192
0.000148238
0.000216462
0.000256591
0.000190022
0.000160091
0.000125276
0.000123651
7.67496e-05
0.000180951
0.000139451
9.87618e-05
0.000306699
0.000221309
7.89168e-05
0.000175301
9.85162e-05
0.000141246
0.000294036
0.00018534
0.000195437
0.00015201
0.000264424
0.000168925
0.000237597
0.000187739
0.000288465
0.000195006
5.77435e-06
5.34123e-06
5.76943e-06
5.34053e-06
1.25229e-06
1.24664e-06
1.25615e-06
1.25618e-06
1.24278e-06
1.19842e-06
1.20459e-06
1.20071e-06
1.20098e-06
1.087e-06
1.09966e-06
1.11714e-06
1.10536e-06
1.09246e-06
1.10159e-06
1.12162e-06
1.10706e-06
1.08824e-06
1.12034e-06
1.08095e-06
1.09762e-06
1.10112e-06
1.08309e-06
1.08991e-06
1.09885e-06
1.08236e-06
1.10102e-06
1.10316e-06
1.08463e-06
1.03409e-06
1.08437e-06
1.10443e-06
1.10272e-06
1.03447e-06
1.08422e-06
1.10649e-06
1.10339e-06
1.1195e-06
1.07632e-06
1.11179e-06
1.07761e-06
1.11086e-06
1.05189e-06
1.03015e-06
1.01906e-06
1.11424e-06
1.05304e-06
1.03618e-06
1.02087e-06
1.24588e-06
0.00125514
0.00125389
0.00124898
0.00116901
0.000517178
9.49168e-05
9.21027e-05
0.000163562
0.00016575
5.23133e-05
8.06426e-05
7.87289e-05
8.23132e-05
4.10315e-05
8.72677e-05
6.12601e-05
7.75231e-05
7.90259e-05
6.56736e-05
9.4239e-05
7.49094e-05
0.000112432
4.74556e-05
0.000109299
8.82402e-05
0.000130134
6.93148e-05
1.24328e-06
1.25671e-06
1.25586e-06
1.25613e-06
1.25194e-06
1.20518e-06
1.2116e-06
1.18673e-06
1.18741e-06
1.1965e-06
1.20313e-06
1.19115e-06
1.19226e-06
1.10123e-06
1.10209e-06
1.14895e-06
1.10348e-06
1.10294e-06
1.10362e-06
1.15149e-06
1.10434e-06
1.12161e-06
1.06309e-06
1.07654e-06
1.00782e-06
1.10329e-06
1.07619e-06
1.1217e-06
1.06637e-06
1.0108e-06
1.07838e-06
1.10417e-06
1.07757e-06
1.0218e-06
1.03798e-06
1.02052e-06
1.03696e-06
0.00125382
0.00125499
0.00124694
0.00116983
0.000393909
0.00051135
0.000935275
0.000960337
0.000192648
0.000137869
0.000184697
0.00019858
5.67563e-05
5.49388e-05
5.53735e-05
7.05534e-05
4.30899e-05
5.72177e-05
3.65875e-05
6.77551e-05
0.000470516
0.000140772
0.000197267
0.000147663
0.000156876
7.59699e-05
0.000122892
8.07469e-05
4.61443e-05
3.29277e-05
4.99794e-05
3.03153e-05
1.24619e-06
1.25656e-06
1.25587e-06
1.25564e-06
1.24824e-06
1.1954e-06
1.19464e-06
1.19878e-06
1.21164e-06
1.18465e-06
1.19832e-06
1.09569e-06
1.09646e-06
1.09273e-06
1.06313e-06
1.09642e-06
1.0963e-06
1.09342e-06
1.06544e-06
1.14768e-06
1.08599e-06
1.15384e-06
1.08675e-06
1.14648e-06
1.09459e-06
1.15512e-06
1.09853e-06
0.00125218
0.00125402
0.00124437
0.00114098
0.000602809
0.000667229
0.000987608
0.00103255
0.000485743
0.000330911
0.000377355
0.000585609
0.000482925
0.000596102
0.00025238
0.000426761
0.000301855
0.000333029
0.000400113
0.000405947
0.000470457
0.000437316
9.69873e-05
5.19048e-05
3.77878e-05
9.03508e-05
9.2022e-05
5.55083e-05
3.40041e-05
8.9844e-05
0.000398848
0.000277948
0.000228197
0.000384815
1.24351e-06
1.25652e-06
1.2558e-06
1.24957e-06
1.21702e-06
1.21918e-06
1.21278e-06
1.21146e-06
1.2098e-06
1.2072e-06
1.21038e-06
1.20842e-06
1.07624e-06
1.09532e-06
1.10065e-06
1.08883e-06
1.08523e-06
1.07943e-06
1.06771e-06
1.0973e-06
1.10326e-06
1.08996e-06
1.08644e-06
1.08022e-06
1.12377e-06
1.08353e-06
1.12734e-06
1.0855e-06
1.09884e-06
1.04602e-06
1.09783e-06
1.04763e-06
0.00125102
0.00124949
0.00123186
0.000996695
0.00103017
0.00104019
0.0010962
0.000962408
0.000970141
0.000996648
0.0010267
0.000608274
0.000548176
0.000499116
0.000572126
0.000322335
0.000600023
0.000354935
0.000592792
0.000509316
0.000399113
0.000445637
0.000413681
0.000769492
0.000761953
0.000596441
0.000453352
0.00082189
0.000823381
0.00049776
0.000612273
1.24629e-06
1.25674e-06
1.25515e-06
1.24451e-06
1.2031e-06
1.20598e-06
1.20888e-06
1.21236e-06
1.19881e-06
1.19901e-06
1.11117e-06
1.09719e-06
1.11371e-06
1.09677e-06
1.10739e-06
1.0905e-06
1.11359e-06
1.09668e-06
1.10756e-06
1.0827e-06
1.09579e-06
1.09771e-06
1.1418e-06
1.1237e-06
1.0943e-06
1.07016e-06
1.14495e-06
1.12751e-06
1.09598e-06
1.07336e-06
1.07886e-06
1.0368e-06
1.08483e-06
1.03892e-06
0.00125162
0.00124947
0.00119099
0.00100744
0.00105334
0.00107063
0.00112002
0.000754026
0.000702534
0.0010238
0.000796352
0.000905671
0.00103908
0.000811496
0.000845854
0.00104008
0.000957197
0.000985551
0.00106507
0.00105289
0.00107212
0.000336688
0.000597898
0.000388463
0.000424307
0.000587119
0.00040037
0.000471865
0.000490536
1.25704e-06
1.25678e-06
1.2559e-06
1.22102e-06
1.22054e-06
1.21808e-06
1.21794e-06
1.21002e-06
1.21024e-06
1.21289e-06
1.21369e-06
1.08868e-06
1.11317e-06
1.11398e-06
1.11852e-06
1.10229e-06
1.11184e-06
1.08533e-06
1.10242e-06
1.11188e-06
1.11498e-06
1.1164e-06
1.11918e-06
1.08903e-06
1.06835e-06
1.11061e-06
1.0909e-06
1.11318e-06
1.08833e-06
1.09128e-06
1.06953e-06
0.00125069
0.00124981
0.00123362
0.00112177
0.00114805
0.0011599
0.00119082
0.000599266
0.00065752
0.000958554
0.000679237
0.00078599
0.000998254
0.0005914
0.000766054
0.00102561
0.000786479
0.000888294
0.00106472
0.00103105
0.000954512
0.000978198
0.000978516
0.00105972
0.000978598
0.00105704
0.00102971
0.000557518
0.000401005
0.00042973
0.000480629
1.25704e-06
1.25676e-06
1.25406e-06
1.20934e-06
1.21117e-06
1.21718e-06
1.21827e-06
1.20728e-06
1.20893e-06
1.12156e-06
1.11112e-06
1.1179e-06
1.11049e-06
1.11712e-06
1.09419e-06
1.11375e-06
1.1122e-06
1.11885e-06
1.11215e-06
1.1178e-06
1.09714e-06
1.13947e-06
1.11899e-06
1.08592e-06
1.09508e-06
1.12096e-06
1.09704e-06
1.14132e-06
1.08833e-06
0.00125119
0.00125491
0.0012434
0.00120187
0.00121431
0.00124251
0.00124458
0.00124524
0.00115164
0.00108903
0.00101146
0.00117999
0.0011238
0.00104051
0.00052837
0.000511884
0.000883556
0.000720596
0.000592843
0.000870399
0.000462028
0.000618476
0.000991958
0.000727301
0.000744064
0.000971257
0.000970582
0.000968306
0.00108057
0.00103163
1.25701e-06
1.25652e-06
1.24777e-06
1.21127e-06
1.21291e-06
1.21531e-06
1.21722e-06
1.10389e-06
1.10762e-06
1.12174e-06
1.11788e-06
1.12801e-06
1.12152e-06
1.11072e-06
1.12863e-06
1.12283e-06
1.11051e-06
1.125e-06
1.11957e-06
1.13507e-06
1.10371e-06
1.15507e-06
1.12985e-06
1.13622e-06
1.10681e-06
1.16057e-06
1.13582e-06
1.06231e-06
1.01655e-06
1.06633e-06
1.01806e-06
0.00125476
0.00125388
0.00122847
0.00124348
0.00122588
0.00123368
0.00123711
0.00123738
0.00110064
0.00110958
0.00088919
0.00112169
0.00102077
0.00103653
0.00113333
0.00106783
0.00114145
0.00112617
0.000964725
0.00115974
0.00105068
0.00107734
0.0011524
0.00109647
0.000802981
0.000859158
0.00092511
0.000949186
0.00097653
0.000833709
0.00105687
0.000879476
1.25695e-06
1.25535e-06
1.22111e-06
1.19904e-06
1.20359e-06
1.22204e-06
1.20598e-06
1.20846e-06
1.20143e-06
1.13921e-06
1.11991e-06
1.20297e-06
1.1427e-06
1.12231e-06
1.16692e-06
1.17447e-06
1.1324e-06
1.13591e-06
1.16987e-06
1.13558e-06
1.16767e-06
1.13135e-06
1.05886e-06
1.10563e-06
1.16525e-06
1.11e-06
1.05229e-06
1.10623e-06
1.16997e-06
1.11532e-06
0.00124257
0.00124546
0.00122404
0.00109933
0.00116685
0.00122832
0.00121284
0.00111401
0.00117152
0.00121787
0.00123402
0.0012333
0.00112593
0.00114745
0.000991239
0.000716076
0.000951141
0.00106803
0.00114715
0.00105522
0.00116536
0.000805664
0.00100118
0.00109902
0.000587695
0.000862135
0.000665948
0.000885691
1.25585e-06
1.25045e-06
1.21245e-06
1.20614e-06
1.21056e-06
1.2168e-06
1.21532e-06
1.21221e-06
1.12604e-06
1.13855e-06
1.1307e-06
1.13578e-06
1.12352e-06
1.11462e-06
1.10758e-06
1.1073e-06
1.12897e-06
1.13981e-06
1.13253e-06
1.13902e-06
1.12549e-06
1.11643e-06
1.11321e-06
1.10897e-06
1.14749e-06
1.16879e-06
1.13357e-06
1.1169e-06
1.14931e-06
1.13583e-06
1.17514e-06
1.12254e-06
0.00122907
0.00122427
0.00121762
0.00121733
0.00122931
0.00122
0.0012197
0.00114316
0.00113988
0.00114292
0.00113883
0.00116562
0.00114108
0.0011269
0.00114255
0.00121226
0.0011657
0.0011471
0.00113581
0.00113911
0.00113682
0.00111825
0.00116329
0.00112693
0.00111732
0.00112427
0.00121105
0.00116274
0.00113677
0.00111809
0.00119143
0.00102629
0.00111591
0.00113995
0.00119192
0.00104165
0.0011263
1.24954e-06
1.24846e-06
1.20881e-06
1.19359e-06
1.12342e-06
1.14107e-06
1.19435e-06
1.1242e-06
1.14027e-06
1.21365e-06
1.20569e-06
1.20775e-06
1.15118e-06
1.16393e-06
1.08468e-06
1.10316e-06
1.10369e-06
1.12141e-06
1.15384e-06
1.15947e-06
1.09003e-06
1.1109e-06
1.10667e-06
1.12268e-06
1.11691e-06
1.07387e-06
1.12101e-06
1.07565e-06
0.00121312
0.00122443
0.0012135
0.00122561
0.00121336
0.0012181
0.0012184
0.00105838
0.00116638
0.0011247
0.00110555
0.00117887
0.00114324
0.00112403
0.00111536
0.00113436
0.00113642
0.00115266
0.00112879
0.00112143
0.00113297
0.00105698
0.00115869
0.00109306