/*--------------------------------*- C++ -*----------------------------------*\
| =========                 |                                                 |
| \\      /  F ield         | OpenFOAM: The Open Source CFD Toolbox           |
|  \\    /   O peration     | Version:  5.x                                   |
|   \\  /    A nd           | Web:      www.OpenFOAM.org                      |
|    \\/     M anipulation  |                                                 |
\*---------------------------------------------------------------------------*/
FoamFile
{
    version     2.0;
    format      ascii;
    class       volVectorField;
    location    "1.3";
    object      U;
}
// * * * * * * * * * * * * * * * * * * * * * * * * * * * * * * * * * * * * * //

dimensions      [0 1 -1 0 0 0 0];

internalField   nonuniform List<vector> 
12160
(
(0.207797 0 0.00117623)
(0.209284 0 0.00319154)
(0.207767 0 -0.00203831)
(0.205829 0 0.00415836)
(0.208744 0 -0.0030978)
(0.206779 0 0.000767955)
(0.201663 0 0.00427773)
(0.205176 0 -0.00161736)
(0.207988 0 0.00383272)
(0.206038 0 -0.00188615)
(0.195452 0 0.00343935)
(0.201048 0 0.000321269)
(0.204939 0 0.00710402)
(0.205076 0 -0.00374136)
(0.203738 0 0.00296404)
(0.193297 0 0.0024662)
(0.194738 0 4.06233e-06)
(0.201089 0 0.00926285)
(0.201721 0 0.000265382)
(0.203062 0 0.00476635)
(0.201129 0 0.00176955)
(0.192982 0 0.00121358)
(0.192454 0 -0.000956369)
(0.194475 0 0.00733614)
(0.197975 0 0.00465065)
(0.201213 0 0.0102947)
(0.195399 0 -0.00555784)
(0.19749 0 0.0125416)
(0.195818 0 0.000375191)
(0.192223 0 -0.0025209)
(0.192047 0 0.00419156)
(0.191687 0 0.00368501)
(0.197844 0 0.0142556)
(0.193726 0 0.00174623)
(0.192485 0 0.00574189)
(0.192037 0 0.0116531)
(0.200179 0 -6.96193e-05)
(0.195447 0 -0.00366359)
(0.191707 0 0.000111752)
(0.188954 0 0.000425437)
(0.191318 0 0.0118941)
(0.191611 0 0.00840358)
(0.19482 0 0.0126683)
(0.171005 0 -0.00856143)
(0.120594 0 0.0369284)
(0.204447 0 2.47084e-05)
(0.200164 0 -0.00427608)
(0.195256 0 -0.00286528)
(0.188962 0 -0.00437781)
(0.188552 0 0.00617389)
(0.185898 0 0.0077433)
(0.192521 0 0.0177203)
(0.175851 0 0.00133514)
(0.119785 0 0.00913828)
(-0.292095 0 -0.0921308)
(0.206939 0 0.000516628)
(0.204826 0 -0.00358856)
(0.200352 0 -0.00434713)
(0.193561 0 -0.00809358)
(0.187829 0 -0.00111242)
(0.183495 0 0.0021453)
(0.185297 0 0.0159787)
(0.181685 0 0.012517)
(0.151687 0 0.0109727)
(-0.136143 0 -0.0249645)
(-0.155778 0 0.181918)
(0.206321 0 0.00100974)
(0.20751 0 -0.00172821)
(0.205731 0 -0.0034551)
(0.199826 0 -0.00995742)
(0.192637 0 -0.00691599)
(0.18301 0 -0.00687769)
(0.180914 0 0.00845512)
(0.179022 0 0.0138737)
(0.187308 0 0.0158099)
(-0.100739 0 -0.0264478)
(0.117089 0 -0.0595794)
(0.0198447 0 -0.0460648)
(0.201498 0 0.0018731)
(0.206963 0 0.0012415)
(0.209336 0 -0.000492882)
(0.206553 0 -0.00860789)
(0.200062 0 -0.00989241)
(0.189368 0 -0.0145812)
(0.179246 0 -0.00237396)
(0.177577 0 0.00593081)
(0.19646 0 0.0166451)
(0.0380989 0 -0.00641689)
(-0.0952443 0 -0.0571158)
(0.0737833 0 -0.0391644)
(-0.00391223 0 0.106908)
(0.192527 0 0.00282801)
(0.20235 0 0.00453446)
(0.209263 0 0.00379846)
(0.210892 0 -0.004175)
(0.208425 0 -0.00832828)
(0.199103 0 -0.0187206)
(0.186425 0 -0.0124585)
(0.176864 0 -0.00983104)
(0.207195 0 0.00895226)
(0.0961549 0 0.00735074)
(-0.0631046 0 -0.0645192)
(0.0222837 0 0.0295039)
(-0.0314339 0 -0.0630002)
(0.0753569 0 0.000579234)
(0.179957 0 0.00369553)
(0.193479 0 0.00766254)
(0.204544 0 0.00893354)
(0.211394 0 0.00258818)
(0.214617 0 -0.00245309)
(0.209978 0 -0.0168215)
(0.198273 0 -0.0182463)
(0.185524 0 -0.024753)
(0.215634 0 -0.00709572)
(0.151322 0 -7.35356e-06)
(-0.0471647 0 -0.0302414)
(0.0332533 0 -0.0330065)
(-0.00106676 0 -0.0336086)
(0.0415011 0 -0.0364573)
(-0.022866 0 0.0351244)
(0.164383 0 0.00441716)
(0.180813 0 0.0104247)
(0.195479 0 0.0140406)
(0.207273 0 0.0101907)
(0.21613 0 0.00633687)
(0.217801 0 -0.00911533)
(0.212108 0 -0.0162761)
(0.199603 0 -0.0331695)
(0.233326 0 -0.0227012)
(0.20954 0 -0.0208264)
(0.0236378 0 -0.0339056)
(0.0373736 0 -0.0371341)
(0.0170945 0 -0.0559637)
(0.0101402 0 0.00373285)
(-0.0332855 0 -0.0428327)
(0.146593 0 0.00496407)
(0.165086 0 0.0126965)
(0.18253 0 0.0185718)
(0.198223 0 0.0176058)
(0.211863 0 0.0164993)
(0.220485 0 0.00257466)
(0.222999 0 -0.00674689)
(0.215984 0 -0.0310071)
(0.254212 0 -0.030239)
(0.278761 0 -0.0421366)
(0.0920741 0 -0.0577773)
(0.0694348 0 -0.0591042)
(0.00827423 0 -0.0402237)
(0.00508263 0 -0.0442165)
(-0.00168525 0 -0.0134448)
(0.12732 0 0.00534447)
(0.147127 0 0.0144288)
(0.166462 0 0.0222618)
(0.184934 0 0.0241629)
(0.202415 0 0.0263932)
(0.21705 0 0.0154647)
(0.22717 0 0.00774883)
(0.228537 0 -0.018438)
(0.274471 0 -0.0268201)
(0.354081 0 -0.0533731)
(0.180517 0 -0.0843306)
(0.0859387 0 -0.0877104)
(0.0225218 0 -0.0562427)
(0.00204457 0 -0.0436642)
(0.00359335 0 -0.0471908)
(0.107175 0 0.00558649)
(0.1277 0 0.0156624)
(0.148157 0 0.0250333)
(0.168381 0 0.0294876)
(0.188523 0 0.0350318)
(0.207394 0 0.0278507)
(0.223494 0 0.0234605)
(0.233927 0 0.000431191)
(0.288758 0 -0.0125084)
(0.426047 0 -0.0491063)
(0.28722 0 -0.100065)
(0.0982075 0 -0.120145)
(0.0260809 0 -0.076447)
(0.0101879 0 -0.0660924)
(0.00300617 0 -0.0429381)
(0.0866192 0 0.00572796)
(0.10743 0 0.0164878)
(0.12842 0 0.026962)
(0.149566 0 0.0334787)
(0.171239 0 0.0419335)
(0.19273 0 0.0385318)
(0.213253 0 0.0390657)
(0.231269 0 0.0218363)
(0.295417 0 0.00930444)
(0.47771 0 -0.029959)
(0.401015 0 -0.0889627)
(0.105674 0 -0.144681)
(0.0261275 0 -0.100131)
(0.010148 0 -0.0867059)
(0.00438274 0 -0.0638418)
(0.0659612 0 0.00581034)
(0.0867821 0 0.017011)
(0.107902 0 0.0282071)
(0.129376 0 0.0362593)
(0.151688 0 0.0469933)
(0.174451 0 0.0469274)
(0.197643 0 0.0527413)
(0.220944 0 0.0419258)
(0.293325 0 0.0335259)
(0.498591 0 -0.00274642)
(0.496374 0 -0.050317)
(0.112313 0 -0.144621)
(0.0147969 0 -0.112839)
(0.00826712 0 -0.109675)
(0.00401006 0 -0.082665)
(0.0453873 0 0.00586742)
(0.0660628 0 0.0173312)
(0.0870766 0 0.0289557)
(0.108502 0 0.0380648)
(0.130853 0 0.050418)
(0.153915 0 0.0529338)
(0.178206 0 0.0634941)
(0.204255 0 0.0577851)
(0.283206 0 0.055432)
(0.499425 0 0.0269786)
(0.554913 0 -0.00324636)
(0.125954 0 -0.107644)
(-0.00489729 0 -0.104514)
(-0.00138068 0 -0.121686)
(0.00286999 0 -0.103441)
(0.0249858 0 0.00591437)
(0.0454552 0 0.0175306)
(0.0662471 0 0.0293876)
(0.0874264 0 0.0391633)
(0.10947 0 0.0525506)
(0.132246 0 0.0568678)
(0.156517 0 0.0710598)
(0.183283 0 0.0689167)
(0.267047 0 0.0721764)
(0.488254 0 0.0548948)
(0.571884 0 0.0312259)
(0.144373 0 -0.0403328)
(-0.0249647 0 -0.0719793)
(-0.0145289 0 -0.113564)
(-0.000768354 0 -0.113015)
(0.00479444 0 0.00595948)
(0.0250409 0 0.0176775)
(0.0455829 0 0.0296514)
(0.0664466 0 0.0398064)
(0.0880311 0 0.0537692)
(0.110236 0 0.0591988)
(0.133873 0 0.0760218)
(0.160108 0 0.0759285)
(0.247217 0 0.0838793)
(0.468623 0 0.0768517)
(0.553967 0 0.06344)
(0.152471 0 0.0273576)
(-0.0359197 0 -0.0222297)
(-0.0269102 0 -0.0795026)
(-0.00569719 0 -0.103865)
(-0.0152068 0 0.00600777)
(0.00484903 0 0.0178147)
(0.0251492 0 0.0298554)
(0.0457156 0 0.0402008)
(0.0668227 0 0.0544228)
(0.0883872 0 0.0604304)
(0.11114 0 0.0790402)
(0.136318 0 0.0797044)
(0.225065 0 0.0918783)
(0.443781 0 0.0920381)
(0.509281 0 0.0906532)
(0.140183 0 0.0879612)
(-0.0346692 0 0.0333945)
(-0.0331086 0 -0.0280033)
(-0.0104206 0 -0.0720537)
(-0.0350256 0 0.00605613)
(-0.0151504 0 0.0179597)
(0.00495977 0 0.0300657)
(0.0252764 0 0.0404997)
(0.0459725 0 0.054795)
(0.0669647 0 0.0610112)
(0.0888262 0 0.080712)
(0.112732 0 0.081231)
(0.201171 0 0.0968302)
(0.414075 0 0.102213)
(0.449599 0 0.112124)
(0.116265 0 0.130471)
(-0.0273447 0 0.0858896)
(-0.0332734 0 0.029613)
(-0.0134258 0 -0.0242048)
(-0.0546341 0 0.00609649)
(-0.0349747 0 0.0181035)
(-0.0150337 0 0.0303118)
(0.0051172 0 0.0407982)
(0.0254924 0 0.0550931)
(0.0460585 0 0.0612946)
(0.0671545 0 0.0815632)
(0.089809 0 0.0813885)
(0.175607 0 0.0994725)
(0.377912 0 0.109225)
(0.383134 0 0.130787)
(0.0875627 0 0.155741)
(-0.0187263 0 0.124666)
(-0.0282382 0 0.0805766)
(-0.0134193 0 0.0287754)
(-0.0739955 0 0.00612131)
(-0.0546046 0 0.0182206)
(-0.034867 0 0.030578)
(-0.0148403 0 0.0411397)
(0.00533824 0 0.0554457)
(0.0256354 0 0.061535)
(0.0461684 0 0.0820246)
(0.0677575 0 0.0808951)
(0.148089 0 0.100592)
(0.333561 0 0.114365)
(0.310838 0 0.146816)
(0.0602543 0 0.171107)
(-0.0113757 0 0.149166)
(-0.0200174 0 0.11898)
(-0.0107453 0 0.0777153)
(-0.0930177 0 0.00612103)
(-0.0740103 0 0.0182659)
(-0.0545339 0 0.0308193)
(-0.0346611 0 0.0415018)
(-0.014607 0 0.0559154)
(0.00560724 0 0.0618915)
(0.0257898 0 0.0824013)
(0.0465822 0 0.0802837)
(0.118183 0 0.10089)
(0.280031 0 0.118664)
(0.238619 0 0.160953)
(0.0403103 0 0.178635)
(-0.00595941 0 0.16423)
(-0.0124246 0 0.14474)
(-0.00732451 0 0.115619)
(-0.111558 0 0.00606795)
(-0.093103 0 0.0181822)
(-0.0740151 0 0.0309664)
(-0.0543619 0 0.0418222)
(-0.0344452 0 0.05647)
(-0.0141979 0 0.0624458)
(0.00588405 0 0.082888)
(0.0261618 0 0.0799442)
(0.0854811 0 0.100889)
(0.218107 0 0.122536)
(0.173933 0 0.172557)
(0.0284535 0 0.180695)
(-0.00203082 0 0.172754)
(-0.00667034 0 0.160928)
(-0.00416441 0 0.141842)
(-0.129426 0 0.00593502)
(-0.11174 0 0.0179186)
(-0.093233 0 0.0309308)
(-0.0739419 0 0.0420018)
(-0.0542208 0 0.0570173)
(-0.0339415 0 0.0631536)
(-0.0137833 0 0.0836107)
(0.00632292 0 0.0801053)
(0.0502128 0 0.100955)
(0.1527 0 0.1261)
(0.120763 0 0.179249)
(0.0212722 0 0.179343)
(0.000512151 0 0.17658)
(-0.00271257 0 0.170396)
(-0.0018367 0 0.1587)
(-0.146385 0 0.00570287)
(-0.129731 0 0.0174214)
(-0.112053 0 0.0306112)
(-0.0933353 0 0.0419158)
(-0.073958 0 0.0574218)
(-0.0537087 0 0.0639031)
(-0.0334335 0 0.0845032)
(-0.0132523 0 0.0809424)
(0.0134929 0 0.10133)
(0.0869711 0 0.129065)
(0.0775484 0 0.181834)
(0.0155301 0 0.176286)
(0.0018469 0 0.177597)
(-0.000306379 0 0.175362)
(-0.000370252 0 0.168745)
(-0.162165 0 0.00535823)
(-0.146836 0 0.0166384)
(-0.130283 0 0.0299049)
(-0.112414 0 0.0414262)
(-0.0936095 0 0.0575123)
(-0.0735556 0 0.0645259)
(-0.053193 0 0.085415)
(-0.0328897 0 0.082345)
(-0.0233003 0 0.102276)
(0.0220475 0 0.130565)
(0.0431064 0 0.182753)
(0.0101351 0 0.173409)
(0.00212859 0 0.177206)
(0.000948135 0 0.177576)
(0.000410859 0 0.174179)
(-0.176481 0 0.00489558)
(-0.162781 0 0.0155291)
(-0.147679 0 0.0287198)
(-0.130988 0 0.0403918)
(-0.113059 0 0.0570969)
(-0.0934619 0 0.0648138)
(-0.0731566 0 0.0861444)
(-0.0527628 0 0.084129)
(-0.0587263 0 0.103638)
(-0.0430222 0 0.131549)
(0.00586802 0 0.184855)
(0.00482217 0 0.172274)
(0.00133513 0 0.17633)
(0.00139604 0 0.178096)
(0.000736622 0 0.176754)
(-0.189056 0 0.00431636)
(-0.177274 0 0.0140717)
(-0.163958 0 0.0269856)
(-0.148809 0 0.0386827)
(-0.13212 0 0.0559792)
(-0.113329 0 0.0645236)
(-0.0933395 0 0.0864366)
(-0.0729961 0 0.0860347)
(-0.0915469 0 0.105198)
(-0.105848 0 0.131532)
(-0.0192123 0 0.185545)
(-0.000604254 0 0.171913)
(-0.000130598 0 0.176091)
(0.00099426 0 0.177825)
(0.000759027 0 0.177607)
(-0.199638 0 0.00363248)
(-0.190025 0 0.0122636)
(-0.178812 0 0.02466)
(-0.165578 0 0.0361965)
(-0.150538 0 0.0539762)
(-0.132977 0 0.0634014)
(-0.113668 0 0.0860037)
(-0.093619 0 0.0877219)
(-0.121328 0 0.10669)
(-0.167127 0 0.130395)
(-0.057508 0 0.186142)
(-0.00664775 0 0.174069)
(-0.00170292 0 0.176288)
(-7.57941e-06 0 0.177931)
(0.000493403 0 0.177672)
(-0.208025 0 0.00287029)
(-0.200763 0 0.0101285)
(-0.19193 0 0.0217362)
(-0.180964 0 0.0328671)
(-0.167996 0 0.050938)
(-0.152145 0 0.0612023)
(-0.133979 0 0.0845589)
(-0.114556 0 0.0888105)
(-0.148298 0 0.107801)
(-0.225716 0 0.128832)
(-0.0932282 0 0.186878)
(-0.012042 0 0.177572)
(-0.00377176 0 0.177812)
(-0.00119099 0 0.178815)
(5.12341e-05 0 0.17795)
(-0.214058 0 0.00207141)
(-0.209253 0 0.00771538)
(-0.203019 0 0.0182513)
(-0.194617 0 0.0286794)
(-0.184132 0 0.0467605)
(-0.170496 0 0.0577196)
(-0.154006 0 0.0818225)
(-0.135648 0 0.0888774)
(-0.17296 0 0.108176)
(-0.278641 0 0.126963)
(-0.136964 0 0.185474)
(-0.0173741 0 0.181701)
(-0.00497642 0 0.180491)
(-0.00246785 0 0.180378)
(-0.000466245 0 0.178741)
(-0.217886 0 0.0011858)
(-0.215298 0 0.00509385)
(-0.211836 0 0.0142813)
(-0.206204 0 0.0236821)
(-0.198553 0 0.0414057)
(-0.187626 0 0.0528023)
(-0.173383 0 0.0775203)
(-0.156652 0 0.0874837)
(-0.195771 0 0.107429)
(-0.324078 0 0.124788)
(-0.188334 0 0.180392)
(-0.022971 0 0.18728)
(-0.00627185 0 0.183335)
(-0.00353462 0 0.182489)
(-0.000987499 0 0.180285)
(-0.219045 0 0.000360515)
(-0.218833 0 0.00224677)
(-0.21821 0 0.00993587)
(-0.215431 0 0.0179832)
(-0.210877 0 0.0349315)
(-0.203079 0 0.0463727)
(-0.191663 0 0.0714021)
(-0.177239 0 0.0841875)
(-0.217077 0 0.105199)
(-0.362177 0 0.122058)
(-0.246941 0 0.1718)
(-0.0291165 0 0.192739)
(-0.00698275 0 0.186555)
(-0.00439754 0 0.185106)
(-0.00142545 0 0.18242)
(-0.220105 0 -0.000988493)
(-0.215107 0 -0.00108529)
(-0.222129 0 0.00534384)
(-0.222052 0 0.0117264)
(-0.220784 0 0.0274799)
(-0.216383 0 0.0384897)
(-0.208308 0 0.063306)
(-0.196959 0 0.0785818)
(-0.237074 0 0.101172)
(-0.394 0 0.118278)
(-0.308856 0 0.161455)
(-0.037057 0 0.196412)
(-0.00696107 0 0.189301)
(-0.0047477 0 0.187826)
(-0.00180396 0 0.184877)
(-0.223283 0 0.000673344)
(-0.216653 0 -0.00589021)
(-0.200872 0 -0.00332115)
(-0.225904 0 0.00506132)
(-0.228048 0 0.0192404)
(-0.227129 0 0.0293372)
(-0.222744 0 0.0533359)
(-0.215134 0 0.0703742)
(-0.255756 0 0.0950973)
(-0.420901 0 0.11285)
(-0.369853 0 0.150366)
(-0.0497715 0 0.197125)
(-0.00623035 0 0.191087)
(-0.00444025 0 0.189786)
(-0.00205039 0 0.187332)
(-0.227231 0 -0.00190174)
(-0.219651 0 -0.0072754)
(-0.202502 0 -0.012218)
(-0.175867 0 -0.00557283)
(-0.232662 0 0.0104821)
(-0.234959 0 0.019146)
(-0.234519 0 0.0419071)
(-0.230905 0 0.0594798)
(-0.272845 0 0.086759)
(-0.444049 0 0.105166)
(-0.426768 0 0.138926)
(-0.0686908 0 0.19447)
(-0.00476255 0 0.191132)
(-0.00352228 0 0.190526)
(-0.00209141 0 0.189059)
(-0.234092 0 0.0016937)
(-0.224067 0 -0.0132347)
(-0.205487 0 -0.0179785)
(-0.178281 0 -0.0180867)
(-0.146955 0 -0.00865302)
(-0.239449 0 0.00822781)
(-0.243307 0 0.0293501)
(-0.243715 0 0.0459197)
(-0.288012 0 0.0758537)
(-0.464315 0 0.0947168)
(-0.480753 0 0.127069)
(-0.0936394 0 0.187791)
(-0.00266326 0 0.188634)
(-0.00183449 0 0.189478)
(-0.00191076 0 0.189497)
(-0.240923 0 -0.00311629)
(-0.230458 0 -0.0127317)
(-0.210057 0 -0.0283184)
(-0.180948 0 -0.0272767)
(-0.150987 0 -0.0253072)
(-0.0905405 0 -0.0124991)
(-0.24902 0 0.0161307)
(-0.253159 0 0.0299812)
(-0.300883 0 0.0619894)
(-0.482338 0 0.080639)
(-0.531505 0 0.112455)
(-0.121579 0 0.176589)
(8.733e-05 0 0.183151)
(0.000805132 0 0.185905)
(-0.00142567 0 0.188006)
(-0.250656 0 0.00318874)
(-0.237862 0 -0.0211936)
(-0.215895 0 -0.0322394)
(-0.185852 0 -0.040917)
(-0.153294 0 -0.037225)
(-0.103553 0 -0.0337275)
(-0.058595 0 -0.0281144)
(-0.258279 0 0.0122658)
(-0.310779 0 0.0452056)
(-0.498395 0 0.0630095)
(-0.57661 0 0.095418)
(-0.149523 0 0.160239)
(0.00398383 0 0.173877)
(0.00457941 0 0.178963)
(-0.000538987 0 0.183834)
(-0.259612 0 -0.00529711)
(-0.246881 0 -0.0177778)
(-0.22276 0 -0.0457074)
(-0.190921 0 -0.0475333)
(-0.159268 0 -0.0525977)
(-0.112208 0 -0.048415)
(-0.0821714 0 -0.0678065)
(0.0958024 0 -0.0266604)
(-0.316299 0 0.0256183)
(-0.511489 0 0.0416349)
(-0.611263 0 0.0758086)
(-0.175084 0 0.137275)
(0.00957803 0 0.15919)
(0.00980062 0 0.167655)
(0.000925821 0 0.176159)
(-0.316113 0 0.00500629)
(-0.257193 0 -0.030487)
(-0.23074 0 -0.046875)
(-0.196174 0 -0.0639044)
(-0.16397 0 -0.059352)
(-0.127492 0 -0.0646588)
(-0.0992254 0 -0.0913895)
(0.0330363 0 -0.0853642)
(0.153807 0 -0.0779154)
(-0.517156 0 0.0160122)
(-0.629222 0 0.0509106)
(-0.195716 0 0.103207)
(0.017401 0 0.13695)
(0.0165319 0 0.150486)
(0.00310668 0 0.163892)
(-0.510557 0 -0.00977372)
(-0.311711 0 -0.018605)
(-0.242207 0 -0.0677788)
(-0.201834 0 -0.0673292)
(-0.168058 0 -0.0756372)
(-0.13713 0 -0.0702458)
(-0.120896 0 -0.101973)
(-0.0334842 0 -0.111205)
(0.0725713 0 -0.139834)
(0.420898 0 -0.0254443)
(-0.627635 0 0.0187097)
(-0.208479 0 0.0530831)
(0.026717 0 0.104678)
(0.0246733 0 0.12594)
(0.0060062 0 0.145758)
(-0.60717 0 -0.0140544)
(-0.488392 0 -0.0365132)
(-0.299005 0 -0.0565791)
(-0.213368 0 -0.0927645)
(-0.171831 0 -0.0791116)
(-0.142925 0 -0.0843732)
(-0.128823 0 -0.0973112)
(-0.100346 0 -0.125588)
(-0.0409526 0 -0.194081)
(0.236605 0 -0.0959937)
(0.339744 0 0.077367)
(-0.207434 0 -0.00402683)
(0.0355836 0 0.0611455)
(0.0329493 0 0.0926686)
(0.00958034 0 0.120792)
(-0.19808 0 -0.052447)
(-0.558334 0 -0.0484745)
(-0.437086 0 -0.0877362)
(-0.269595 0 -0.0822734)
(-0.184682 0 -0.104185)
(-0.146704 0 -0.0856161)
(-0.134744 0 -0.0992107)
(-0.132087 0 -0.112465)
(-0.127972 0 -0.190705)
(0.061295 0 -0.116803)
(0.232091 0 0.121993)
(0.181949 0 0.91455)
(0.0410887 0 0.0127331)
(0.0395457 0 0.0509334)
(0.0131731 0 0.0881401)
(0.0331651 0 -0.0322571)
(-0.162523 0 -0.11085)
(-0.447015 0 -0.126743)
(-0.322046 0 -0.123698)
(-0.226323 0 -0.0941464)
(-0.159898 0 -0.105795)
(-0.13816 0 -0.092544)
(-0.14205 0 -0.107651)
(-0.170016 0 -0.154269)
(-0.143538 0 -0.118324)
(-0.0144814 0 0.162314)
(0.162401 0 0.91121)
(0.363412 7.38206e-28 1.11403)
(0.105557 0 1.14046)
(0.0417531 0 0.00479843)
(0.0167277 0 0.0492286)
(0.0413651 0 -0.0409176)
(0.0339553 0 -0.0933518)
(-0.101799 0 -0.207294)
(-0.274647 0 -0.190634)
(-0.190588 0 -0.146386)
(-0.183817 0 -0.0972123)
(-0.146041 0 -0.103274)
(-0.144895 0 -0.0910814)
(-0.181012 0 -0.126039)
(-0.232567 0 -0.0916284)
(-0.192695 0 0.106499)
(0.0916472 0 0.88188)
(0.344936 8.25134e-28 1.02955)
(0.433598 -3.09383e-30 1.15625)
(0.230475 9.38066e-28 1.23224)
(0.0591716 0 1.22241)
(0.0185609 0 0.00619382)
(0.0178215 0 -0.0354421)
(0.0397425 0 -0.0985114)
(0.026891 0 -0.161948)
(-0.0741062 0 -0.244731)
(-0.135762 0 -0.208119)
(-0.0643869 0 -0.149985)
(-0.150672 0 -0.0953182)
(-0.146132 0 -0.0967288)
(-0.175952 0 -0.0929684)
(-0.241009 0 -0.0862568)
(-0.262337 0 0.0910927)
(-0.0107544 0 0.746676)
(0.233299 0 0.906771)
(0.459284 0 1.01908)
(0.608138 1.78004e-26 1.20459)
(0.359852 -2.59043e-30 1.29104)
(0.185904 6.89502e-28 1.31138)
(0.0412048 0 1.32193)
(0.0154407 0 -0.0955732)
(0.0312814 0 -0.174033)
(0.00461094 0 -0.203323)
(-0.0713544 0 -0.235119)
(-0.0609834 0 -0.186501)
(0.0179055 0 -0.134196)
(-0.132561 0 -0.085486)
(-0.160918 0 -0.095795)
(-0.203762 0 -0.0506947)
(-0.244422 0 0.0754835)
(-0.159559 0 0.586757)
(0.114804 0 0.751555)
(0.399972 0 0.8728)
(0.630065 5.37013e-26 1.00721)
(0.876047 -7.01027e-30 1.29118)
(0.538967 1.39957e-26 1.39373)
(0.278186 0 1.40738)
(0.099672 0 1.37698)
(0.0136743 0 1.35467)
(0.012085 0 -0.164897)
(0.0161371 0 -0.214325)
(-0.0146774 0 -0.206784)
(-0.0728691 0 -0.205057)
(-0.0237679 0 -0.151859)
(0.0762216 0 -0.110594)
(-0.130676 0 -0.082113)
(-0.156041 0 -0.078724)
(-0.193652 0 0.0549086)
(-0.194375 0 0.387556)
(0.0963766 0 0.5885)
(0.344277 -5.38252e-27 0.672864)
(0.619745 3.25802e-26 0.851804)
(0.895378 0 1.03019)
(1.10118 4.31773e-25 1.3347)
(0.731204 -5.1243e-30 1.55071)
(0.387819 1.84851e-26 1.52927)
(0.159988 0 1.46015)
(0.0425531 0 1.4083)
(0.00580967 0 1.36568)
(0.0046886 0 -0.203378)
(0.000178569 0 -0.215328)
(-0.0221712 0 -0.1896)
(-0.0640043 0 -0.174138)
(0.00700101 0 -0.130344)
(0.124892 0 -0.102335)
(-0.111064 0 -0.0744683)
(-0.141513 0 -0.0277958)
(-0.0617474 0 0.23607)
(0.151883 0 0.304194)
(0.331001 -6.55975e-27 0.476245)
(0.521017 0 0.632718)
(0.824636 -1.71739e-25 0.822565)
(1.13357 -6.32927e-25 1.00106)
(1.39553 7.84907e-10 1.14299)
(0.878312 0 1.47971)
(0.468489 0 1.58192)
(0.204863 -9.8959e-27 1.54405)
(0.0522808 2.97252e-27 1.47808)
(-0.017261 0 1.39641)
(-0.0191551 0 1.34224)
(-0.000992003 0 -0.206994)
(-0.00796878 0 -0.198446)
(-0.0207693 0 -0.168488)
(-0.0447449 0 -0.153118)
(0.0381759 0 -0.116716)
(0.171993 0 -0.112764)
(-0.0858737 0 -0.0759766)
(0.025133 0 0.0502489)
(0.179189 0 0.129002)
(0.334718 -2.17887e-42 0.300364)
(0.478133 0 0.426564)
(0.826108 2.80945e-25 0.606678)
(1.10356 -2.02179e-24 0.758482)
(1.44145 -9.9101e-10 0.907224)
(1.46882 5.78315e-09 0.921097)
(0.97414 -3.22557e-10 1.33167)
(1.47084 6.21289e-10 0.922365)
(1.49524 5.53792e-09 0.901222)
(1.49608 2.8291e-10 0.906027)
(0.439799 1.09276e-24 1.53242)
(0.17905 3.84771e-25 1.58225)
(0.038404 -1.92001e-26 1.53731)
(-0.0364079 1.08428e-26 1.45442)
(-0.0468824 0 1.37246)
(-0.027609 0 1.30188)
(-0.00410542 0 -0.193058)
(-0.00984644 0 -0.17761)
(-0.0136933 0 -0.151722)
(-0.0217473 0 -0.142284)
(0.0540999 0 -0.138233)
(0.242159 0 -0.139912)
(0.0490053 0 -0.0541979)
(0.189699 0 -0.00351145)
(0.300213 -1.95695e-42 0.177481)
(0.47482 0 0.277431)
(0.718409 0 0.383309)
(1.00381 1.11525e-24 0.572234)
(1.28839 -1.05055e-24 0.571406)
(1.75707 -8.0749e-10 0.616242)
(1.17405 6.50457e-09 1.01973)
(1.57391 1.15787e-08 0.710847)
(0.468787 -2.80884e-09 1.29725)
(1.16572 9.41938e-10 1.01802)
(1.05434 5.91637e-09 1.10216)
(1.03995 7.17169e-10 1.09005)
(1.56761 -3.22374e-10 0.706184)
(1.71413 9.09748e-09 0.618242)
(1.7115 -4.18914e-10 0.624565)
(0.0590167 2.95e-24 1.39259)
(-0.0312898 -5.94352e-25 1.45496)
(-0.0909913 0 1.4716)
(-0.100254 7.58523e-27 1.41505)
(-0.0836227 0 1.32289)
(-0.0351258 0 1.24377)
(-0.00476279 0 -0.174965)
(-0.00699649 0 -0.160573)
(-0.00492014 0 -0.143032)
(-0.00214351 0 -0.142689)
(0.0534681 0 -0.155076)
(0.302377 0 -0.193274)
(0.201547 0 -0.0585963)
(0.26466 6.91055e-28 0.0265084)
(0.472855 4.88765e-28 0.200195)
(0.608777 9.866e-26 0.159743)
(0.983273 0 0.416533)
(1.21698 -1.53058e-24 0.342858)
(1.6315 -4.97064e-09 0.390155)
(1.8692 -6.08789e-09 0.265877)
(1.84769 8.60443e-09 0.265972)
(1.84941 7.02953e-10 0.269108)
(1.84291 4.16451e-10 0.262251)
(1.31068 1.44015e-08 0.857962)
(1.67148 1.29677e-08 0.463161)
(-0.18019 2.24162e-24 1.05442)
(0.210556 -7.01695e-11 0.935365)
(1.28406 6.82002e-10 0.845468)
(0.98558 1.59613e-08 0.929634)
(0.972974 1.01297e-09 0.923658)
(1.66197 4.26649e-10 0.451213)
(1.76269 1.05311e-08 0.4195)
(1.75465 -2.33382e-09 0.420503)
(-0.227048 4.04875e-25 1.17095)
(-0.183762 0 1.36152)
(-0.162522 0 1.42896)
(-0.142358 9.36739e-27 1.35718)
(-0.112325 0 1.26767)
(-0.049319 0 1.17396)
(-0.00387243 0 -0.159801)
(-0.00236413 0 -0.151023)
(0.00348653 0 -0.143505)
(0.0044528 0 -0.150871)
(0.0415752 0 -0.175505)
(0.383383 0 -0.178181)
(0.281648 0 -0.0630697)
(0.437242 -2.40661e-28 0.0145273)
(0.588807 0 0.0410297)
(0.874616 1.90796e-25 0.231635)
(1.08596 1.87731e-24 0.248148)
(1.35516 -2.02004e-09 0.230374)
(1.77717 -3.29854e-10 0.213722)
(1.77353 1.69443e-10 0.212464)
(1.67569 2.64775e-10 0.154231)
(1.66979 1.08389e-11 0.147316)
(1.96357 -7.59535e-09 0.0699306)
(1.95961 5.47077e-09 0.0675654)
(1.99342 -1.09959e-09 0.0690196)
(1.98414 8.94077e-10 0.0635198)
(1.35683 1.39437e-08 0.568428)
(1.90305 2.38049e-08 0.183524)
(1.4429 5.35331e-09 0.154068)
(1.88939 1.63185e-08 0.206806)
(1.64453 3.26447e-09 0.137677)
(-0.453277 6.60694e-24 0.866645)
(-0.494892 -8.98596e-09 0.896077)
(0.107478 3.87864e-09 0.56158)
(0.148268 3.18183e-09 0.591556)
(0.533524 -1.06098e-08 0.575687)
(0.543434 2.55183e-08 0.587935)
(1.34223 3.58393e-09 0.56333)
(1.08918 1.8997e-08 0.641785)
(1.06212 3.57671e-09 0.63737)
(1.88735 -9.37345e-09 0.171435)
(1.45234 -3.24168e-09 0.160767)
(1.86398 1.5984e-09 0.19972)
(1.62666 -3.18888e-09 0.128152)
(1.99253 2.65498e-08 0.182949)
(1.70871 1.63439e-08 0.222994)
(1.95769 2.28242e-08 0.115294)
(1.80105 3.95239e-09 0.160571)
(1.98046 -1.41635e-08 0.180226)
(1.72817 -9.28204e-09 0.222615)
(1.9407 -7.52e-09 0.107765)
(1.78439 -3.98586e-09 0.154689)
(-0.337335 0 1.00565)
(-0.25821 -1.74184e-25 1.25902)
(-0.235254 0 1.34051)
(-0.194095 1.06148e-26 1.28636)
(-0.141238 0 1.18861)
(-0.0605678 0 1.06976)
(-0.00220643 0 -0.150987)
(0.00113845 0 -0.148675)
(0.00123927 0 -0.14883)
(0.00966545 0 -0.151879)
(0.0133878 0 -0.236974)
(0.498937 0 -0.194923)
(0.447809 0 -0.0907849)
(0.580762 0 -0.0544788)
(0.746308 2.40982e-25 0.0565863)
(1.00196 1.27794e-24 0.0750346)
(1.29193 -4.96091e-10 0.121846)
(1.52261 5.63146e-10 0.0283517)
(1.51665 -3.37414e-10 0.0221425)
(1.51221 1.81333e-09 0.00647909)
(1.5119 5.36284e-11 0.00844803)
(1.83295 -5.92148e-09 -0.0459835)
(1.83589 1.78916e-09 -0.0443559)
(1.81449 -7.12312e-09 -0.00048375)
(1.81567 1.56647e-09 -0.00224168)
(1.72587 1.69208e-09 -0.189863)
(1.6733 1.30641e-09 0.117026)
(2.12124 1.48318e-09 -0.245937)
(1.79364 2.46186e-09 -0.0838842)
(2.10127 3.76197e-09 -0.110941)
(2.06052 1.30308e-09 -0.106736)
(1.69421 -1.17371e-09 0.116103)
(1.71155 8.0138e-10 -0.180139)
(2.08622 -4.80107e-10 -0.253736)
(1.775 -1.70147e-09 -0.0947927)
(2.08979 -4.10126e-09 -0.11558)
(2.04132 -6.12562e-10 -0.113288)
(1.75218 2.40181e-09 -0.128086)
(2.08715 6.67562e-09 -0.0949331)
(1.78714 2.21804e-09 -0.11861)
(2.12409 5.5412e-09 -0.13253)
(1.75479 -2.22111e-09 -0.128331)
(2.08002 -4.17718e-09 -0.102646)
(1.78526 -2.07932e-09 -0.120872)
(2.11442 -4.29887e-09 -0.137416)
(1.69654 2.19414e-08 0.285776)
(1.2518 4.98499e-09 0.202024)
(1.65319 1.41413e-08 0.256795)
(1.29269 2.87249e-09 0.262563)
(1.96774 -7.9425e-10 0.0790381)
(1.52882 -9.70138e-10 0.027479)
(1.95777 -5.99395e-11 0.0811811)
(1.61046 -6.85367e-11 0.00365162)
(-0.581862 -3.65265e-25 0.603033)
(-0.829746 -4.7058e-09 0.661967)
(-0.681724 2.14291e-09 0.416904)
(-0.601132 1.71099e-09 0.444837)
(-0.313443 1.59507e-09 0.398165)
(-0.270211 2.62085e-09 0.393989)
(-0.0681963 3.61015e-09 0.349307)
(-0.0928893 6.27753e-09 0.390657)
(0.400271 -7.23031e-09 0.176611)
(0.383133 1.5028e-08 0.210162)
(1.67518 -7.72966e-09 0.282625)
(1.24305 -2.7207e-09 0.202145)
(1.63269 1.36061e-09 0.250943)
(1.24788 -2.71648e-09 0.252421)
(1.36828 2.3823e-08 0.336885)
(0.957115 7.37347e-09 0.261068)
(1.22492 2.25295e-08 0.409958)
(1.02361 3.35289e-09 0.254065)
(1.34515 -1.10361e-08 0.335017)
(0.967133 -4.39811e-09 0.264411)
(1.20604 -4.63148e-09 0.423647)
(1.00259 -3.11904e-09 0.254963)
(1.95031 3.06672e-09 0.0665482)
(1.5448 1.00809e-09 0.0275013)
(1.94535 2.31651e-09 0.0685322)
(1.59575 6.23347e-10 -0.00145319)
(2.04386 8.81534e-10 0.0285063)
(1.75325 7.50313e-10 -0.00726474)
(2.02746 -1.65001e-10 0.0257018)
(1.74641 -8.91497e-10 -0.0055505)
(-0.385155 -3.69885e-25 0.836303)
(-0.357466 0 1.18257)
(-0.296612 0 1.24777)
(-0.241522 0 1.20022)
(-0.180356 0 1.09932)
(-0.0756897 0 0.959071)
(-0.00107172 0 -0.147099)
(-0.000462193 0 -0.149543)
(-0.00274242 0 -0.157998)
(-0.0131695 0 -0.155437)
(-0.00539253 0 -0.267322)
(0.590178 0 -0.338148)
(0.702668 0 -0.140526)
(0.666817 0 -0.0897771)
(0.911004 2.71678e-25 -0.0179602)
(1.19556 -4.15184e-10 0.0206755)
(1.29643 1.33261e-09 -0.0196699)
(1.29696 -1.90966e-10 -0.0191367)
(1.36236 2.0261e-09 -0.0152185)
(1.36152 8.71984e-11 -0.0135234)
(1.53041 -6.88504e-09 -0.10695)
(1.52947 2.09065e-09 -0.111285)
(1.50667 -6.80521e-09 -0.0546545)
(1.51013 2.30421e-09 -0.0619897)
(1.66077 2.63728e-09 -0.194551)
(1.99121 5.78775e-09 -0.156662)
(1.72487 3.85378e-09 -0.210018)
(2.01398 7.76952e-09 -0.195662)
(1.66909 -2.30897e-09 -0.195741)
(1.99048 -4.83007e-09 -0.161625)
(1.73779 -2.48227e-09 -0.218857)
(2.01033 -5.71799e-09 -0.197694)
(1.53849 6.44186e-09 -0.1988)
(1.88945 9.35449e-09 -0.1057)
(1.61863 4.1889e-09 -0.173646)
(1.97759 8.26433e-09 -0.122923)
(1.55338 -3.66031e-09 -0.205052)
(1.88283 -5.5586e-09 -0.111973)
(1.6396 -2.58863e-09 -0.179876)
(1.97053 -5.41265e-09 -0.124998)
(1.66518 4.09171e-10 0.00921453)
(1.73968 -4.70938e-11 -0.194438)
(2.1294 -8.40754e-11 -0.238672)
(2.06984 1.17173e-09 -0.255268)
(1.82126 -2.00995e-11 -0.175293)
(2.16617 -3.51644e-10 -0.175097)
(1.69219 1.04668e-09 0.012788)
(1.725 -2.04263e-11 -0.18783)
(2.04903 -4.55369e-11 -0.269189)
(2.11561 -1.16898e-10 -0.238648)
(1.80596 -1.27312e-10 -0.180234)
(2.15792 -4.76494e-10 -0.182201)
(1.78832 -2.34486e-10 -0.220823)
(2.14935 1.93578e-10 -0.170712)
(1.81277 -1.3954e-11 -0.234667)
(2.16692 3.04308e-10 -0.194148)
(1.78655 -1.29372e-10 -0.221907)
(2.14048 -4.60611e-11 -0.17661)
(1.80858 -3.01376e-11 -0.236757)
(2.15634 -2.56124e-10 -0.198441)
(1.68509 4.71832e-10 0.161575)
(1.36872 -9.50054e-10 0.0241141)
(1.74761 1.44623e-10 0.133785)
(1.33742 3.73179e-10 0.0426913)
(1.99787 2.57515e-10 -0.116892)
(1.49692 9.20069e-11 -0.150551)
(1.93416 1.11591e-10 -0.0383381)
(1.69719 1.2573e-10 -0.155109)
(-0.495983 0 0.470696)
(-0.864033 -1.66447e-09 0.445749)
(-1.0563 1.56315e-10 0.333783)
(-1.01687 -2.25112e-09 0.340109)
(-0.839551 -1.83106e-10 0.359716)
(-0.780119 -1.89695e-09 0.370675)
(-0.698665 -3.58613e-09 0.25602)
(-0.658377 7.77425e-09 0.308763)
(-0.493197 5.1871e-10 0.221921)
(-0.472291 8.09909e-09 0.270537)
(-0.276189 4.8762e-09 -0.10139)
(0.199048 7.06369e-09 0.0689861)
(-0.00342176 2.77035e-09 -0.173391)
(0.358286 4.13307e-09 0.20131)
(-0.277568 -3.14561e-09 -0.0721135)
(0.190464 -5.84644e-09 0.0807109)
(-0.01378 -2.1342e-09 -0.156508)
(0.352719 -4.7778e-09 0.228442)
(0.614821 1.18379e-09 -0.250092)
(0.89771 3.29868e-10 -0.060774)
(0.613646 1.51093e-09 -0.0734881)
(0.250606 3.16249e-09 -0.166553)
(0.564795 4.37452e-09 0.14682)
(1.15749 3.31273e-09 0.34494)
(0.644188 -1.12467e-09 -0.229497)
(0.920237 -8.59354e-10 -0.0278954)
(0.606649 -1.60349e-09 -0.0644411)
(0.245642 -2.49468e-09 -0.151976)
(0.558123 -5.29482e-09 0.171184)
(1.14735 -5.66877e-10 0.361501)
(1.66358 1.64948e-09 0.159128)
(1.37092 7.18249e-10 0.0206905)
(1.73201 1.68019e-09 0.129542)
(1.3062 -1.11807e-10 0.0405743)
(1.35848 4.26145e-09 0.225156)
(1.10469 2.09305e-09 0.00775435)
(1.33228 -1.00476e-09 0.22411)
(1.08632 -1.47246e-09 0.00530146)
(1.97958 6.65289e-12 -0.128656)
(1.50064 4.28803e-11 -0.136233)
(1.91744 -6.916e-11 -0.0475549)
(1.67481 4.40484e-10 -0.165688)
(2.05746 5.89709e-10 -0.12489)
(1.78053 2.09995e-10 -0.147342)
(2.03988 -7.13788e-10 -0.132896)
(1.76413 -3.21577e-10 -0.143348)
(-0.452354 -4.42805e-25 0.773328)
(-0.425063 0 1.06232)
(-0.352345 0 1.14096)
(-0.293633 0 1.11424)
(-0.229411 0 0.979132)
(-0.0955331 0 0.796054)
(-0.0018416 0 -0.145677)
(-0.00622798 0 -0.144188)
(-0.0177866 0 -0.165042)
(-0.05448 0 -0.14878)
(-0.0646128 0 -0.22092)
(0.586134 5.25931e-27 -0.387352)
(0.883761 -1.87064e-25 -0.162644)
(0.816994 -1.93333e-25 -0.155947)
(1.04838 -7.29105e-10 -0.141829)
(1.2369 1.84625e-09 -0.117142)
(1.23725 2.96829e-10 -0.118343)