/*--------------------------------*- C++ -*----------------------------------*\
| =========                 |                                                 |
| \\      /  F ield         | OpenFOAM: The Open Source CFD Toolbox           |
|  \\    /   O peration     | Version:  5.x                                   |
|   \\  /    A nd           | Web:      www.OpenFOAM.org                      |
|    \\/     M anipulation  |                                                 |
\*---------------------------------------------------------------------------*/
FoamFile
{
    version     2.0;
    format      ascii;
    class       surfaceVectorField;
    location    "1.3";
    object      Uf;
}
// * * * * * * * * * * * * * * * * * * * * * * * * * * * * * * * * * * * * * //

dimensions      [0 1 -1 0 0 0 0];

internalField   nonuniform List<vector> 
30582
(
(0.207477 0 0.00219284)
(0.207782 0 -0.000403147)
(0.207291 0 0.00367925)
(0.209014 0 7.44506e-05)
(0.20722 0 -0.00257276)
(0.207273 0 -0.000695056)
(0.204024 0 0.00421857)
(0.205502 0 0.00133055)
(0.206678 0 -0.00235099)
(0.208366 0 0.000291409)
(0.20601 0 0.00231396)
(0.206408 0 -0.000490991)
(0.198368 0 0.00385482)
(0.201356 0 0.00234428)
(0.203489 0 -0.000639444)
(0.205058 0 0.00262922)
(0.206478 0 0.00548293)
(0.206532 0 0.000104379)
(0.204201 0 -0.002822)
(0.204888 0 0.000454647)
(0.194202 0 0.00294844)
(0.195095 0 0.00175769)
(0.197773 0 0.000161258)
(0.201069 0 0.00471328)
(0.203461 0 0.00819302)
(0.20333 0 0.00385747)
(0.203471 0 -0.00172016)
(0.204069 0 0.000396325)
(0.201311 0 0.00387321)
(0.202434 0 0.00257645)
(0.192391 0 0.00183433)
(0.192875 0 0.000777957)
(0.193412 0 -0.000480431)
(0.194606 0 0.00359754)
(0.197745 0 0.00829094)
(0.199532 0 0.00708259)
(0.200468 0 0.00247747)
(0.201467 0 0.00508013)
(0.203047 0 0.00755515)
(0.19923 0 -0.000297884)
(0.196148 0 -0.00192672)
(0.19931 0 0.00677837)
(0.193783 0 0.000790654)
(0.192603 0 -0.000608811)
(0.191581 0 -0.00174558)
(0.192251 0 0.0015643)
(0.192981 0 0.00574984)
(0.193081 0 0.00560763)
(0.195037 0 0.00416354)
(0.197909 0 0.00933382)
(0.200171 0 0.0122928)
(0.19747 0 0.00625112)
(0.1953 0 -0.0018733)
(0.193942 0 4.14504e-05)
(0.192153 0 0.0091115)
(0.194764 0 0.0126114)
(0.197377 0 0.000150808)
(0.195633 0 -0.00159957)
(0.19317 0 -0.00309733)
(0.191965 0 -0.00130323)
(0.19112 0 0.00213356)
(0.1905 0 0.00236349)
(0.190137 0 0.0020407)
(0.191502 0 0.00767484)
(0.194961 0 0.0130644)
(0.194728 0 0.0114934)
(0.193521 0 0.00510444)
(0.194273 0 0.00697559)
(0.195252 0 0.0092359)
(0.181745 0 -0.00119814)
(0.178426 0 0.00145598)
(0.156316 0 0.02391)
(0.202058 0 -2.20384e-05)
(0.200171 0 -0.00212053)
(0.197168 0 -0.00397256)
(0.195352 0 -0.00337894)
(0.192701 0 -0.00139001)
(0.190334 0 -0.00199439)
(0.188163 0 -0.00199749)
(0.188753 0 0.00321168)
(0.189693 0 0.00900854)
(0.188608 0 0.00989748)
(0.189497 0 0.00807051)
(0.192066 0 0.0131612)
(0.194273 0 0.0152167)
(0.185335 0 0.00737422)
(0.174999 0 -0.00356911)
(0.145395 0 0.000172728)
(0.117752 0 0.0229098)
(-0.0857505 0 -0.0291208)
(0.205804 0 0.000272865)
(0.204636 0 -0.00172716)
(0.202255 0 -0.00392928)
(0.200258 0 -0.00442482)
(0.197069 0 -0.00361279)
(0.194409 0 -0.00532305)
(0.190367 0 -0.00625223)
(0.188395 0 -0.00295811)
(0.187408 0 0.00249841)
(0.186024 0 0.00419312)
(0.18486 0 0.00491937)
(0.185598 0 0.0118537)
(0.190018 0 0.0168418)
(0.187103 0 0.0149249)
(0.179357 0 0.00697568)
(0.163769 0 0.00559976)
(0.136962 0 0.0100636)
(-0.00817897 0 -0.0075116)
(-0.20638 0 -0.058249)
(-0.223936 0 0.0516802)
(0.207042 0 0.000765371)
(0.207225 0 -0.00058112)
(0.206373 0 -0.00265008)
(0.205279 0 -0.00362634)
(0.202737 0 -0.00389717)
(0.200089 0 -0.00699215)
(0.19585 0 -0.00903379)
(0.193099 0 -0.00776321)
(0.189248 0 -0.00404003)
(0.185419 0 -0.00376278)
(0.182414 0 -0.00240622)
(0.182205 0 0.0052437)
(0.183396 0 0.0121834)
(0.18216 0 0.0146475)
(0.181905 0 0.0132014)
(0.184496 0 0.0138688)
(0.170365 0 0.0134127)
(0.025474 0 -0.00800203)
(-0.123466 0 -0.0257128)
(-0.00952592 0 -0.0406788)
(-0.0153499 0 0.0600959)
(-0.0679671 0 0.0577034)
(0.204479 0 0.00144524)
(0.206642 0 0.0012245)
(0.207597 0 -0.000230168)
(0.208423 0 -0.00115566)
(0.207593 0 -0.00196076)
(0.206142 0 -0.00586568)
(0.202856 0 -0.00927669)
(0.199944 0 -0.0101659)
(0.195302 0 -0.00841743)
(0.191002 0 -0.0104571)
(0.185043 0 -0.0107637)
(0.181128 0 -0.00491227)
(0.179186 0 0.00299254)
(0.179245 0 0.00705214)
(0.178937 0 0.0098669)
(0.187741 0 0.0158994)
(0.193799 0 0.0162312)
(0.112703 0 0.00415575)
(-0.0318537 0 -0.0163435)
(-0.0979916 0 -0.0453066)
(0.00826129 0 -0.0583367)
(0.0954363 0 -0.0501236)
(0.0488732 0 -0.0425839)
(0.00796622 0 0.0384978)
(0.19768 0 0.00235481)
(0.201924 0 0.00330714)
(0.205269 0 0.00290257)
(0.208113 0 0.00233719)
(0.209894 0 0.00167184)
(0.210114 0 -0.00223572)
(0.208965 0 -0.00637165)
(0.207489 0 -0.0086828)
(0.203758 0 -0.00910343)
(0.199583 0 -0.0139966)
(0.192986 0 -0.0166693)
(0.187896 0 -0.013992)
(0.181643 0 -0.00746113)
(0.178055 0 -0.0059867)
(0.176364 0 -0.00202003)
(0.192386 0 0.00815722)
(0.202943 0 0.0127644)
(0.146308 0 0.0120414)
(0.0691984 0 0.000528025)
(-0.0125032 0 -0.0377296)
(-0.0752907 0 -0.0608503)
(-0.0364807 0 -0.0112846)
(0.0486008 0 -0.00452474)
(0.0211747 0 -0.0500147)
(-0.0195507 0 0.0211985)
(0.0357226 0 0.0461805)
(0.186908 0 0.00326564)
(0.193003 0 0.00533292)
(0.198612 0 0.00611243)
(0.203447 0 0.00654477)
(0.207539 0 0.00638874)
(0.210328 0 0.00346245)
(0.211519 0 -0.000763383)
(0.212755 0 -0.00343441)
(0.211525 0 -0.00536444)
(0.209201 0 -0.0122642)
(0.203943 0 -0.0177627)
(0.198688 0 -0.0189603)
(0.190803 0 -0.0153781)
(0.185974 0 -0.0180685)
(0.179999 0 -0.0173584)
(0.196249 0 -0.0075756)
(0.210539 0 0.000857081)
(0.179259 0 0.00489483)
(0.127292 0 0.00363892)
(0.0244945 0 -0.0124692)
(-0.0576359 0 -0.0472282)
(-0.014926 0 -0.0450473)
(0.0287183 0 -0.00202863)
(0.0106085 0 -0.00318841)
(-0.0153293 0 -0.0481736)
(0.00503385 0 -0.0517033)
(0.0599897 0 -0.0181037)
(0.0262458 0 0.0226069)
(0.172767 0 0.00405954)
(0.180385 0 0.00712758)
(0.187828 0 0.00905595)
(0.194479 0 0.010672)
(0.200721 0 0.0115098)
(0.205909 0 0.00986087)
(0.210051 0 0.00642309)
(0.213762 0 0.00416396)
(0.216102 0 0.00198092)
(0.216209 0 -0.00558281)
(0.214115 0 -0.012934)
(0.211043 0 -0.0169548)
(0.204351 0 -0.0172525)
(0.198938 0 -0.0250978)
(0.190708 0 -0.0289987)
(0.209424 0 -0.0228347)
(0.223002 0 -0.0149679)
(0.212587 0 -0.0130244)
(0.180265 0 -0.0105092)
(0.0874795 0 -0.0178573)
(-0.0114736 0 -0.0320898)
(-0.00489587 0 -0.0319455)
(0.0337187 0 -0.0350886)
(0.0251739 0 -0.0471199)
(0.00900105 0 -0.0448853)
(0.00453675 0 -0.0130958)
(0.0254569 0 -0.0161834)
(0.00410804 0 -0.0378898)
(-0.0295335 0 -0.00420071)
(0.155989 0 0.00469305)
(0.164734 0 0.00860761)
(0.173558 0 0.0115707)
(0.181672 0 0.0143202)
(0.189706 0 0.0163264)
(0.196851 0 0.0161255)
(0.203534 0 0.0139313)
(0.209568 0 0.0130304)
(0.214756 0 0.0114631)
(0.218308 0 0.00480671)
(0.219606 0 -0.00321843)
(0.2204 0 -0.00816036)
(0.217513 0 -0.011469)
(0.214046 0 -0.023024)
(0.206748 0 -0.0320788)
(0.226908 0 -0.0323639)
(0.241658 0 -0.0265036)
(0.256043 0 -0.0311375)
(0.243047 0 -0.0315763)
(0.150807 0 -0.0404717)
(0.0594648 0 -0.0459474)
(0.0465361 0 -0.0483249)
(0.0529002 0 -0.048217)
(0.0228239 0 -0.0400386)
(0.0118068 0 -0.0480238)
(0.0110885 0 -0.0482828)
(0.00777507 0 -0.0204546)
(0.00422751 0 -0.0058958)
(-0.0169573 0 -0.028008)
(0.137348 0 0.00515596)
(0.14686 0 0.00973465)
(0.156612 0 0.0135704)
(0.165774 0 0.0173011)
(0.17512 0 0.0204331)
(0.183732 0 0.0216718)
(0.192325 0 0.0209136)
(0.200319 0 0.0216753)
(0.207961 0 0.0214904)
(0.214457 0 0.0163355)
(0.219664 0 0.00907677)
(0.223827 0 0.00477939)
(0.226037 0 0.000565327)
(0.225768 0 -0.0121615)
(0.22242 0 -0.0246664)
(0.245228 0 -0.0302507)
(0.262806 0 -0.0285145)
(0.304146 0 -0.0419441)
(0.31328 0 -0.0478048)
(0.229638 0 -0.0623941)
(0.138807 0 -0.0711721)
(0.0890065 0 -0.0751587)
(0.0765452 0 -0.0735342)
(0.0459783 0 -0.0584804)
(0.0150929 0 -0.0483046)
(0.00515937 0 -0.041425)
(0.00324379 0 -0.0439379)
(0.004338 0 -0.0464047)
(0.00119227 0 -0.0304675)
(0.117532 0 0.00546656)
(0.12751 0 0.0105336)
(0.137805 0 0.0150511)
(0.147642 0 0.0195558)
(0.157821 0 0.0236598)
(0.167421 0 0.0261759)
(0.177309 0 0.0268488)
(0.186728 0 0.0292399)
(0.196262 0 0.030751)
(0.204904 0 0.0274676)
(0.213151 0 0.0217129)
(0.220272 0 0.0195031)
(0.226266 0 0.0156743)
(0.230549 0 0.00466957)
(0.23207 0 -0.00891963)
(0.258647 0 -0.0166912)
(0.281621 0 -0.0196004)
(0.350259 0 -0.0389264)
(0.386478 0 -0.0512208)
(0.32065 0 -0.0751049)
(0.233571 0 -0.0922676)
(0.139362 0 -0.104567)
(0.0925642 0 -0.104072)
(0.0560098 0 -0.082162)
(0.0236454 0 -0.0664345)
(0.0163548 0 -0.0621537)
(0.00613108 0 -0.0549782)
(0.00252536 0 -0.0426432)
(0.00305004 0 -0.0450456)
(0.0970875 0 0.00565785)
(0.107303 0 0.0110633)
(0.117847 0 0.0160788)
(0.12806 0 0.0211428)
(0.138678 0 0.0260062)
(0.148861 0 0.0295526)
(0.159496 0 0.0315009)
(0.16981 0 0.0353148)
(0.180567 0 0.0385132)
(0.190626 0 0.0371501)
(0.20092 0 0.0332389)
(0.210323 0 0.0335232)
(0.219377 0 0.0313326)
(0.227382 0 0.022854)
(0.233474 0 0.0112285)
(0.264672 0 0.0039988)
(0.293401 0 -0.00150513)
(0.383234 0 -0.0222211)
(0.451552 0 -0.0394471)
(0.413531 0 -0.0689322)
(0.340284 0 -0.0944646)
(0.196448 0 -0.123448)
(0.103622 0 -0.132522)
(0.0621675 0 -0.109488)
(0.0261131 0 -0.0883943)
(0.0181144 0 -0.0832409)
(0.00982062 0 -0.0764906)
(0.00728534 0 -0.0637383)
(0.00376329 0 -0.053483)
(0.0764022 0 0.00576952)
(0.0867006 0 0.011394)
(0.0972928 0 0.0167517)
(0.107666 0 0.0221859)
(0.118437 0 0.0275901)
(0.128898 0 0.031903)
(0.139859 0 0.0348814)
(0.150627 0 0.0398071)
(0.161997 0 0.0444859)
(0.172845 0 0.0448413)
(0.184318 0 0.0427668)
(0.195186 0 0.0455181)
(0.206385 0 0.0459644)
(0.217099 0 0.0399556)
(0.2273 0 0.0319705)
(0.262297 0 0.0258566)
(0.295933 0 0.0215224)
(0.397004 0 0.00278883)
(0.490902 0 -0.0162319)
(0.487042 0 -0.0406927)
(0.444173 0 -0.0694672)
(0.256665 0 -0.116835)
(0.111476 0 -0.144651)
(0.0602354 0 -0.127006)
(0.0208027 0 -0.106541)
(0.0171973 0 -0.107125)
(0.00922153 0 -0.0982926)
(0.00707906 0 -0.082979)
(0.00407841 0 -0.0733369)
(0.0557237 0 0.00583914)
(0.066012 0 0.0115943)
(0.0765307 0 0.0171725)
(0.0869293 0 0.0228303)
(0.0976674 0 0.0285847)
(0.108202 0 0.0334249)
(0.119206 0 0.0371701)
(0.130115 0 0.0428824)
(0.141655 0 0.0487209)
(0.152802 0 0.0504304)
(0.164725 0 0.0499573)
(0.176329 0 0.0548929)
(0.18871 0 0.0581653)
(0.200949 0 0.0544266)
(0.213661 0 0.0499262)
(0.252075 0 0.0467087)
(0.290091 0 0.0445765)
(0.396375 0 0.0286978)
(0.502617 0 0.0122478)
(0.526752 0 -0.00280912)
(0.526588 0 -0.0265727)
(0.311165 0 -0.0793794)
(0.120768 0 -0.125967)
(0.053708 0 -0.12112)
(0.00521776 0 -0.108639)
(0.00670806 0 -0.119946)
(0.00346721 0 -0.115734)
(0.00556858 0 -0.104564)
(0.00347423 0 -0.0931456)
(0.0351885 0 0.0058911)
(0.0454212 0 0.011721)
(0.0558052 0 0.0174318)
(0.0661549 0 0.023215)
(0.0767616 0 0.0291735)
(0.0872515 0 0.0343459)
(0.0981294 0 0.0386189)
(0.108986 0 0.0448298)
(0.120413 0 0.0514938)
(0.13155 0 0.054174)
(0.143454 0 0.0549183)
(0.155216 0 0.0615385)
(0.167915 0 0.0673106)
(0.180745 0 0.0655614)
(0.194652 0 0.0634001)
(0.23565 0 0.0640072)
(0.276683 0 0.0638789)
(0.38573 0 0.0533472)
(0.498309 0 0.0410611)
(0.535655 0 0.0307929)
(0.568117 0 0.0141425)
(0.349644 0 -0.0226525)
(0.134579 0 -0.0736893)
(0.0504949 0 -0.0858628)
(-0.0142806 0 -0.0881013)
(-0.00971312 0 -0.112129)
(-0.00752929 0 -0.117589)
(-0.00107452 0 -0.114964)
(0.00107677 0 -0.108271)
(0.0148493 0 0.00593712)
(0.0250133 0 0.0118166)
(0.0352478 0 0.0176047)
(0.045519 0 0.0234546)
(0.0559547 0 0.0295207)
(0.0663469 0 0.0348814)
(0.0770234 0 0.0394877)
(0.0877287 0 0.0459717)
(0.0988971 0 0.0531653)
(0.109853 0 0.0564727)
(0.121471 0 0.0580437)
(0.133059 0 0.0658599)
(0.145554 0 0.0735628)
(0.158312 0 0.0732158)
(0.172222 0 0.0724538)
(0.21525 0 0.0770681)
(0.258414 0 0.0780797)
(0.367835 0 0.0732153)
(0.482549 0 0.0659712)
(0.521111 0 0.0611507)
(0.56923 0 0.0474764)
(0.362179 0 0.0302516)
(0.148333 0 -0.00618781)
(0.0542264 0 -0.0292246)
(-0.0300214 0 -0.0468836)
(-0.0259374 0 -0.0784738)
(-0.0202863 0 -0.096381)
(-0.0101131 0 -0.106247)
(-0.0030927 0 -0.1084)
(-0.00528291 0 0.00598384)
(0.00482173 0 0.0119069)
(0.0149032 0 0.0177467)
(0.025095 0 0.0236361)
(0.0353616 0 0.0297543)
(0.0456493 0 0.0352088)
(0.05611 0 0.0400054)
(0.0666347 0 0.0466075)
(0.0774958 0 0.0540989)
(0.0882091 0 0.05776)
(0.0994334 0 0.0598201)
(0.110688 0 0.0683979)
(0.122705 0 0.0775444)
(0.135095 0 0.0780063)
(0.148541 0 0.0778333)
(0.192586 0 0.0855825)
(0.237189 0 0.0879144)
(0.345499 0 0.0879572)
(0.459448 0 0.0845121)
(0.488952 0 0.0848584)
(0.535555 0 0.0771679)
(0.347077 0 0.0778232)
(0.144215 0 0.0579293)
(0.058901 0 0.0322547)
(-0.035933 0 0.00582877)
(-0.0345141 0 -0.0263999)
(-0.030276 0 -0.0535243)
(-0.0186654 0 -0.0737845)
(-0.0081238 0 -0.0878174)
(-0.0252215 0 0.00603216)
(-0.0151786 0 0.0120033)
(-0.00522682 0 0.0178878)
(0.0049044 0 0.0238125)
(0.0150111 0 0.0299615)
(0.0252128 0 0.0354593)
(0.0354845 0 0.0403515)
(0.0458441 0 0.0469814)
(0.056412 0 0.0546105)
(0.0668937 0 0.0584289)
(0.0777218 0 0.0607234)
(0.0886067 0 0.0697194)
(0.10007 0 0.0798835)
(0.111936 0 0.0806465)
(0.124705 0 0.0804745)
(0.168744 0 0.090677)
(0.213939 0 0.0943763)
(0.31957 0 0.0977238)
(0.431109 0 0.0971709)
(0.44669 0 0.102496)
(0.479032 0 0.101484)
(0.312774 0 0.113347)
(0.126519 0 0.109406)
(0.0564193 0 0.0865847)
(-0.031814 0 0.0598758)
(-0.0339713 0 0.0302513)
(-0.0328578 0 0.00105998)
(-0.0232673 0 -0.0251662)
(-0.0117303 0 -0.0479168)
(-0.0449663 0 0.00607649)
(-0.0350002 0 0.0120996)
(-0.0251658 0 0.0180323)
(-0.015092 0 0.0240067)
(-0.00511198 0 0.0301898)
(0.00503848 0 0.035714)
(0.0151505 0 0.0406502)
(0.0253844 0 0.0472729)
(0.0357115 0 0.0549454)
(0.0460155 0 0.0587966)
(0.0565077 0 0.0611541)
(0.0670596 0 0.0703236)
(0.0780054 0 0.0811414)
(0.0893176 0 0.0818731)
(0.10134 0 0.0813105)
(0.144169 0 0.0932898)
(0.18903 0 0.0981631)
(0.289542 0 0.103919)
(0.39631 0 0.10575)
(0.398605 0 0.115897)
(0.414282 0 0.121538)
(0.268582 0 0.135713)
(0.101887 0 0.143218)
(0.0487692 0 0.125762)
(-0.0237424 0 0.105451)
(-0.0277915 0 0.0825883)
(-0.0314397 0 0.0553217)
(-0.0233464 0 0.0295616)
(-0.0137097 0 0.00251991)
(-0.0644897 0 0.00610901)
(-0.0546193 0 0.0121789)
(-0.0449227 0 0.0181626)
(-0.0349209 0 0.0242066)
(-0.0250497 0 0.0304461)
(-0.014937 0 0.0360095)
(-0.00493483 0 0.0409705)
(0.00522772 0 0.0475932)
(0.0153648 0 0.055271)
(0.0255639 0 0.0590937)
(0.0358136 0 0.0614158)
(0.0461135 0 0.0706084)
(0.056634 0 0.081796)
(0.067456 0 0.0823065)
(0.0787824 0 0.0811396)
(0.118949 0 0.0942984)
(0.162343 0 0.100037)
(0.254584 0 0.107731)
(0.354568 0 0.111818)
(0.344375 0 0.126109)
(0.344444 0 0.138873)
(0.221696 0 0.152367)
(0.073891 0 0.163492)
(0.0380935 0 0.150076)
(-0.0152293 0 0.137024)
(-0.0193718 0 0.121471)
(-0.024607 0 0.0999497)
(-0.0194918 0 0.0792054)
(-0.0121422 0 0.0534633)
(-0.0837251 0 0.00612117)
(-0.0740029 0 0.0122142)
(-0.0644783 0 0.0182434)
(-0.0545692 0 0.0243778)
(-0.0448275 0 0.0306997)
(-0.0347641 0 0.0363265)
(-0.0248437 0 0.0413224)
(-0.0147236 0 0.0479949)
(-0.00470569 0 0.0556826)
(0.00547274 0 0.0594635)
(0.0155641 0 0.0617148)
(0.0257126 0 0.0708581)
(0.0359297 0 0.0822146)
(0.0463753 0 0.082426)
(0.0571281 0 0.0805867)
(0.09297 0 0.0944479)
(0.1335 0 0.100742)
(0.21406 0 0.110186)
(0.304851 0 0.116533)
(0.28609 0 0.134634)
(0.272346 0 0.153947)
(0.175575 0 0.164435)
(0.0502099 0 0.174905)
(0.0271474 0 0.164734)
(-0.00872876 0 0.156765)
(-0.0119002 0 0.146741)
(-0.0163727 0 0.131974)
(-0.013671 0 0.117321)
(-0.0091684 0 0.0968361)
(-0.102555 0 0.00609425)
(-0.0930604 0 0.012171)
(-0.0837713 0 0.0182237)
(-0.0740127 0 0.0244648)
(-0.0644378 0 0.0308935)
(-0.0544479 0 0.036611)
(-0.0446284 0 0.0416634)
(-0.0345531 0 0.0484507)
(-0.0246116 0 0.0561952)
(-0.0144024 0 0.0599783)
(-0.00436415 0 0.0621711)
(0.00574564 0 0.0712499)
(0.0157704 0 0.0826468)
(0.0259758 0 0.0825702)
(0.0363108 0 0.0801125)
(0.0660315 0 0.0943079)
(0.102071 0 0.10089)
(0.168145 0 0.11207)
(0.246855 0 0.120617)
(0.226982 0 0.142131)
(0.204439 0 0.166806)
(0.133537 0 0.171379)
(0.0345223 0 0.179674)
(0.0191398 0 0.172774)
(-0.00399038 0 0.16853)
(-0.00631488 0 0.16226)
(-0.0095901 0 0.152906)
(-0.00829455 0 0.143262)
(-0.00579746 0 0.128847)
(-0.12081 0 0.0060009)
(-0.111649 0 0.0120115)
(-0.102685 0 0.0180492)
(-0.093168 0 0.024396)
(-0.0838295 0 0.0309484)
(-0.0739785 0 0.0367782)
(-0.0643026 0 0.0419128)
(-0.0542913 0 0.0488841)
(-0.0444375 0 0.0567461)
(-0.0341933 0 0.0605999)
(-0.024146 0 0.0628029)
(-0.0139906 0 0.0718873)
(-0.00401634 0 0.0832525)
(0.00610349 0 0.0829525)
(0.0161645 0 0.0800255)
(0.0381872 0 0.0942745)
(0.0679602 0 0.100923)
(0.11909 0 0.113778)
(0.183337 0 0.124334)
(0.169435 0 0.147685)
(0.146305 0 0.175933)
(0.0976034 0 0.174153)
(0.0250085 0 0.180013)
(0.0144828 0 0.176528)
(-0.000736144 0 0.174684)
(-0.0023717 0 0.171044)
(-0.00467598 0 0.165704)
(-0.00425354 0 0.159693)
(-0.00302207 0 0.150346)
(-0.138275 0 0.00581792)
(-0.129579 0 0.0116972)
(-0.12105 0 0.0176678)
(-0.111897 0 0.0240955)
(-0.102897 0 0.0307696)
(-0.0932842 0 0.0367208)
(-0.0838308 0 0.0419584)
(-0.0739499 0 0.0491783)
(-0.0642242 0 0.0572213)
(-0.0539648 0 0.0612271)
(-0.0439154 0 0.0635317)
(-0.0336875 0 0.0727147)
(-0.0236762 0 0.0840609)
(-0.0135178 0 0.0837228)
(-0.00352897 0 0.0805275)
(0.0099079 0 0.0945998)
(0.0318026 0 0.101144)
(0.068592 0 0.115281)
(0.118212 0 0.127596)
(0.115124 0 0.15095)
(0.0987043 0 0.180553)
(0.0681471 0 0.174374)
(0.0184764 0 0.177801)
(0.0115596 0 0.177751)
(0.00122393 0 0.177093)
(0.000102883 0 0.175467)
(-0.00148217 0 0.172901)
(-0.00154142 0 0.169347)
(-0.00110714 0 0.163767)
(-0.154694 0 0.00552901)
(-0.14661 0 0.0111932)
(-0.138651 0 0.0170264)
(-0.130007 0 0.0234851)
(-0.121475 0 0.0302549)
(-0.112233 0 0.0363195)
(-0.103116 0 0.0416688)
(-0.0934724 0 0.0491861)
(-0.0839579 0 0.0574674)
(-0.0737568 0 0.0617087)
(-0.0637485 0 0.0642173)
(-0.0534508 0 0.0735993)
(-0.0433885 0 0.0849631)
(-0.0331616 0 0.0847945)
(-0.0231305 0 0.0816499)
(-0.0182763 0 0.095523)
(-0.00502441 0 0.101807)
(0.0177702 0 0.116381)
(0.053694 0 0.129822)
(0.0650386 0 0.152765)
(0.0595163 0 0.182297)
(0.043842 0 0.173317)
(0.0130124 0 0.174835)
(0.00882935 0 0.177438)
(0.00202133 0 0.1774)
(0.00139752 0 0.177312)
(0.000351245 0 0.176479)
(5.22373e-05 0 0.174475)
(3.3525e-05 0 0.171486)
(-0.169784 0 0.00512485)
(-0.162473 0 0.0104727)
(-0.155227 0 0.0160788)
(-0.147257 0 0.0224935)
(-0.139343 0 0.0293071)
(-0.130635 0 0.0354526)
(-0.121997 0 0.0409044)
(-0.112736 0 0.0487429)
(-0.103557 0 0.0573028)
(-0.0935357 0 0.0618545)
(-0.0836622 0 0.0646712)
(-0.0733561 0 0.0743537)
(-0.0632721 0 0.0857829)
(-0.0529779 0 0.0860029)
(-0.0428902 0 0.083245)
(-0.0458079 0 0.0969031)
(-0.0411851 0 0.102963)
(-0.0331612 0 0.117292)
(-0.010635 0 0.131061)
(0.0139577 0 0.154427)
(0.0249662 0 0.183813)
(0.0239644 0 0.172837)
(0.00763033 0 0.172836)
(0.0057351 0 0.176389)
(0.00180668 0 0.176764)
(0.00176231 0 0.177559)
(0.00120051 0 0.177838)
(0.000842379 0 0.176845)
(0.000589122 0 0.175478)
(-0.183263 0 0.00460338)
(-0.176878 0 0.0095224)
(-0.170491 0 0.014794)
(-0.163369 0 0.0210662)
(-0.156236 0 0.027845)
(-0.148244 0 0.0340095)
(-0.140254 0 0.0395297)
(-0.131554 0 0.0476801)
(-0.12287 0 0.0565331)
(-0.113194 0 0.0614498)
(-0.103598 0 0.0646674)
(-0.0934007 0 0.0747402)
(-0.0833763 0 0.0862918)
(-0.0730764 0 0.0871195)
(-0.0629646 0 0.0850903)
(-0.0721547 0 0.0985254)
(-0.0753884 0 0.104425)
(-0.0822872 0 0.117863)
(-0.0738767 0 0.13154)
(-0.0311171 0 0.155365)
(-0.0069081 0 0.185203)
(0.00263191 0 0.173279)
(0.00202827 0 0.172092)
(0.00234579 0 0.176092)
(0.000647711 0 0.176209)
(0.0011647 0 0.177051)
(0.00124108 0 0.177959)
(0.00107753 0 0.177536)
(0.00076072 0 0.177184)
(-0.194862 0 0.0039714)
(-0.18954 0 0.0083415)
(-0.18415 0 0.0131596)
(-0.178043 0 0.0191716)
(-0.171851 0 0.0258125)
(-0.164768 0 0.0319038)
(-0.157609 0 0.0374285)
(-0.149673 0 0.0458414)
(-0.141673 0 0.0549688)
(-0.132548 0 0.0602735)
(-0.123414 0 0.0639575)
(-0.113499 0 0.0744889)
(-0.10368 0 0.0862182)
(-0.0934793 0 0.0878638)
(-0.0834255 0 0.0868858)
(-0.097162 0 0.100112)
(-0.10677 0 0.105951)
(-0.129337 0 0.118102)
(-0.135276 0 0.130958)
(-0.0816779 0 0.155489)
(-0.0391345 0 0.185846)
(-0.0129301 0 0.174765)
(-0.00361622 0 0.173001)
(-0.00115359 0 0.176617)
(-0.00094662 0 0.17619)
(-6.90881e-05 0 0.177018)
(0.00051844 0 0.177878)
(0.000743834 0 0.177463)
(0.000641748 0 0.17764)
(-0.204354 0 0.00324799)
(-0.200201 0 0.00694784)
(-0.195918 0 0.0111867)
(-0.190977 0 0.0168049)
(-0.185878 0 0.023185)
(-0.179888 0 0.0290808)
(-0.173743 0 0.0345171)
(-0.166787 0 0.0431006)
(-0.159678 0 0.0524435)
(-0.151342 0 0.0581162)
(-0.142892 0 0.0622921)
(-0.133478 0 0.0733187)
(-0.12406 0 0.0852749)
(-0.114112 0 0.0878991)
(-0.104253 0 0.088271)
(-0.120958 0 0.101326)
(-0.135222 0 0.107251)
(-0.173522 0 0.118178)
(-0.194848 0 0.129607)
(-0.130178 0 0.155263)
(-0.0748055 0 0.186514)
(-0.0347752 0 0.177347)
(-0.00943791 0 0.175836)
(-0.00520975 0 0.178269)
(-0.002755 0 0.177057)
(-0.00144696 0 0.177686)
(-0.000594483 0 0.178377)
(2.18271e-05 0 0.177664)
(0.000281264 0 0.177813)
(-0.211575 0 0.00246729)
(-0.208639 0 0.00538019)
(-0.205546 0 0.00891118)
(-0.201891 0 0.0139949)
(-0.198009 0 0.0199784)
(-0.193273 0 0.025529)
(-0.188311 0 0.0307546)
(-0.182548 0 0.0393724)
(-0.17654 0 0.0488307)
(-0.169246 0 0.0548028)
(-0.161726 0 0.0594454)
(-0.153076 0 0.070956)
(-0.144307 0 0.0831786)
(-0.134814 0 0.0868785)
(-0.125328 0 0.0888442)
(-0.143758 0 0.101766)
(-0.161102 0 0.10799)
(-0.213469 0 0.118054)
(-0.250477 0 0.127889)
(-0.18134 0 0.153502)
(-0.114899 0 0.18617)
(-0.0553015 0 0.180274)
(-0.0149616 0 0.179655)
(-0.00850921 0 0.180732)
(-0.00440752 0 0.179163)
(-0.0031198 0 0.179263)
(-0.00184835 0 0.179603)
(-0.000828622 0 0.178427)
(-0.000206338 0 0.178349)
(-0.216445 0 0.00162469)
(-0.214678 0 0.00369399)
(-0.212819 0 0.00639294)
(-0.210545 0 0.0107998)
(-0.207975 0 0.0162486)
(-0.204612 0 0.0212896)
(-0.200966 0 0.0261587)
(-0.196585 0 0.0346301)
(-0.191879 0 0.0440592)
(-0.185879 0 0.0502079)
(-0.179542 0 0.0552391)
(-0.171939 0 0.0671672)
(-0.164094 0 0.0796522)
(-0.155329 0 0.0844459)
(-0.146445 0 0.0881744)
(-0.165709 0 0.101021)
(-0.1849 0 0.107799)
(-0.248519 0 0.117425)
(-0.29977 0 0.125866)
(-0.233487 0 0.149916)
(-0.16199 0 0.182911)
(-0.079968 0 0.183404)
(-0.020414 0 0.184515)
(-0.011823 0 0.183675)
(-0.00575913 0 0.181926)
(-0.00425551 0 0.18156)
(-0.00305158 0 0.181443)
(-0.00172768 0 0.179987)
(-0.000733088 0 0.17952)
(-0.218826 0 0.000769468)
(-0.21836 0 0.00183869)
(-0.217575 0 0.00365772)
(-0.216754 0 0.00730139)
(-0.215565 0 0.0120892)
(-0.213634 0 0.0164551)
(-0.211395 0 0.0208073)
(-0.208541 0 0.0289232)
(-0.205294 0 0.0381401)
(-0.200816 0 0.044278)
(-0.19591 0 0.0495588)
(-0.189645 0 0.0617712)
(-0.18301 0 0.074434)
(-0.175311 0 0.0802948)
(-0.16732 0 0.0858209)
(-0.186865 0 0.0986768)
(-0.207027 0 0.106304)
(-0.278974 0 0.115841)
(-0.341851 0 0.123411)
(-0.28551 0 0.145114)
(-0.216401 0 0.176058)
(-0.108726 0 0.185085)
(-0.0261796 0 0.190033)
(-0.0149769 0 0.187065)
(-0.00675023 0 0.184959)
(-0.00533469 0 0.184294)
(-0.00403644 0 0.183809)
(-0.00248004 0 0.182163)
(-0.00122355 0 0.181362)
(-0.219575 0 -0.00026161)
(-0.218494 0 -8.05317e-05)
(-0.219804 0 0.000614678)
(-0.220481 0 0.0035595)
(-0.220653 0 0.00761956)
(-0.220131 0 0.0111607)
(-0.219331 0 0.0148269)
(-0.218107 0 0.022369)
(-0.21643 0 0.0311725)
(-0.21363 0 0.0370739)
(-0.210345 0 0.0423965)
(-0.205693 0 0.0546592)
(-0.200573 0 0.0673179)
(-0.194311 0 0.0741786)
(-0.187571 0 0.0813597)
(-0.207156 0 0.0943496)
(-0.227757 0 0.103167)
(-0.305539 0 0.112809)
(-0.377267 0 0.120152)
(-0.335516 0 0.13956)
(-0.276233 0 0.166582)
(-0.142 0 0.184482)
(-0.0333226 0 0.194592)
(-0.0180388 0 0.189703)
(-0.00703081 0 0.187941)
(-0.00586522 0 0.187244)
(-0.00464837 0 0.186478)
(-0.00310076 0 0.184676)
(-0.00163721 0 0.18366)
(-0.221694 0 -0.00020778)
(-0.219873 0 -0.00248378)
(-0.21588 0 -0.00340741)
(-0.208617 0 -0.00224627)
(-0.223241 0 0.00298772)
(-0.224016 0 0.00555803)
(-0.224551 0 0.00836439)
(-0.22505 0 0.0151201)
(-0.225011 0 0.0233234)
(-0.223956 0 0.0287632)
(-0.222397 0 0.0338726)
(-0.219563 0 0.0458957)
(-0.216189 0 0.058277)
(-0.211721 0 0.0658895)
(-0.206673 0 0.0744414)
(-0.226357 0 0.0876729)
(-0.247195 0 0.0981076)
(-0.328987 0 0.10784)
(-0.407201 0 0.11554)
(-0.381927 0 0.133216)
(-0.337518 0 0.155861)
(-0.179315 0 0.180605)
(-0.0436758 0 0.196772)
(-0.0216437 0 0.191295)
(-0.00669354 0 0.190202)
(-0.00570065 0 0.189486)
(-0.00464209 0 0.188814)
(-0.00339905 0 0.187241)
(-0.00195301 0 0.186116)
(-0.225257 0 -0.000478669)
(-0.222896 0 -0.00175144)
(-0.218152 0 -0.00671642)
(-0.210282 0 -0.00917595)
(-0.201687 0 -0.00767866)
(-0.188012 0 -0.00449028)
(-0.226881 0 0.00154867)
(-0.229283 0 0.00735707)
(-0.230877 0 0.0148225)
(-0.231504 0 0.019569)
(-0.231709 0 0.0241962)
(-0.230824 0 0.0357017)
(-0.229317 0 0.0475706)
(-0.226824 0 0.0555055)
(-0.223787 0 0.064879)
(-0.243989 0 0.0781971)
(-0.265218 0 0.0908909)
(-0.349902 0 0.100405)
(-0.432897 0 0.108974)
(-0.423834 0 0.125673)
(-0.39655 0 0.144595)
(-0.219273 0 0.17346)
(-0.0593992 0 0.195786)
(-0.027267 0 0.191136)
(-0.00559111 0 0.191109)
(-0.00487631 0 0.19057)
(-0.00403996 0 0.190159)
(-0.00326584 0 0.189097)
(-0.00208974 0 0.188203)
(-0.230661 0 -0.000223612)
(-0.227206 0 -0.0053589)
(-0.221859 0 -0.0100296)
(-0.213293 0 -0.012833)
(-0.203994 0 -0.0152312)
(-0.190014 0 -0.0152652)
(-0.177074 0 -0.0117047)
(-0.158928 0 -0.00717226)
(-0.234074 0 0.00604863)
(-0.236055 0 0.00982564)
(-0.237925 0 0.0136387)
(-0.239133 0 0.0242844)
(-0.239597 0 0.0355727)
(-0.239117 0 0.0433615)
(-0.238058 0 0.0526393)
(-0.259459 0 0.0659509)
(-0.281395 0 0.0812583)
(-0.36858 0 0.0898317)
(-0.455346 0 0.0998947)
(-0.462401 0 0.116264)
(-0.452277 0 0.132945)
(-0.260205 0 0.164348)
(-0.0814845 0 0.191101)
(-0.035677 0 0.188516)
(-0.00378979 0 0.189872)
(-0.00329851 0 0.189929)
(-0.00273255 0 0.189997)
(-0.00271653 0 0.18971)
(-0.00202308 0 0.18928)
(-0.237507 0 -0.000525679)
(-0.23369 0 -0.00270682)
(-0.227263 0 -0.0132432)
(-0.217892 0 -0.021067)
(-0.207772 0 -0.0228987)
(-0.192718 0 -0.0228064)
(-0.179614 0 -0.0228021)
(-0.16244 0 -0.021836)
(-0.148971 0 -0.0168431)
(-0.120182 0 -0.01065)
(-0.24054 0 0.00250506)
(-0.244234 0 0.0118445)
(-0.246737 0 0.022682)
(-0.248233 0 0.0297001)
(-0.249214 0 0.0378795)
(-0.272299 0 0.0516743)
(-0.295499 0 0.0688597)
(-0.385175 0 0.0762743)
(-0.475099 0 0.0876159)
(-0.49791 0 0.104037)
(-0.505184 0 0.119697)
(-0.301167 0 0.153638)
(-0.108178 0 0.18214)
(-0.046776 0 0.182873)
(-0.00135383 0 0.185868)
(-0.000929049 0 0.186854)
(-0.000545301 0 0.187676)
(-0.00163008 0 0.188464)
(-0.00169262 0 0.188745)
(-0.245789 0 -0.000194568)
(-0.240962 0 -0.00863083)
(-0.23416 0 -0.0165795)
(-0.22402 0 -0.0228611)
(-0.212976 0 -0.0305421)
(-0.197381 0 -0.0348599)
(-0.1834 0 -0.0338697)
(-0.165218 0 -0.0324425)
(-0.152141 0 -0.0313989)
(-0.128955 0 -0.0296793)
(-0.0970467 0 -0.0227616)
(-0.0717002 0 -0.0206074)
(-0.250869 0 0.00960189)
(-0.253649 0 0.0150349)
(-0.256642 0 0.0210452)
(-0.281969 0 0.035334)
(-0.306975 0 0.0535228)
(-0.399639 0 0.0602254)
(-0.492687 0 0.0717456)
(-0.529474 0 0.0891485)
(-0.554179 0 0.103861)
(-0.340515 0 0.139273)
(-0.136073 0 0.168341)
(-0.0587976 0 0.173345)
(0.00201304 0 0.178473)
(0.00233339 0 0.180536)
(0.00269752 0 0.182403)
(0.000133077 0 0.184643)
(-0.00100073 0 0.185902)
(-0.255134 0 -0.000804205)
(-0.250094 0 -0.00320718)
(-0.242372 0 -0.0199017)
(-0.231332 0 -0.0339225)
(-0.219328 0 -0.0384897)
(-0.202692 0 -0.0401804)
(-0.188387 0 -0.0444723)
(-0.171036 0 -0.0469824)
(-0.156281 0 -0.0447929)
(-0.134406 0 -0.0430352)
(-0.107881 0 -0.0412311)
(-0.0896154 0 -0.0514231)
(-0.0703833 0 -0.0468552)
(0.0207005 0 -0.0273594)
(-0.259305 0 0.00340584)
(-0.287289 0 0.0170909)
(-0.31478 0 0.0353254)
(-0.411134 0 0.0412543)
(-0.507683 0 0.052227)
(-0.55483 0 0.0713992)
(-0.596426 0 0.0855258)
(-0.375848 0 0.120071)
(-0.162775 0 0.148656)
(-0.0699725 0 0.158476)
(0.00680508 0 0.166468)
(0.00689225 0 0.16996)
(0.00718989 0 0.173259)
(0.00275263 0 0.177418)
(0.000198361 0 0.179963)
(-0.287862 0 -0.000461694)
(-0.259741 0 -0.0129814)
(-0.252037 0 -0.0234224)
(-0.239889 0 -0.0328866)
(-0.22675 0 -0.0469451)
(-0.208643 0 -0.0551558)
(-0.193547 0 -0.0551867)
(-0.176069 0 -0.0536703)
(-0.161619 0 -0.056193)
(-0.144811 0 -0.0588602)
(-0.11985 0 -0.0562599)
(-0.102395 0 -0.0707296)
(-0.0906984 0 -0.0799855)
(-0.0242803 0 -0.0769234)
(0.0644193 0 -0.0559521)
(0.122858 0 -0.0532729)
(-0.317579 0 0.0152202)
(-0.416727 0 0.0192517)
(-0.517016 0 0.0287103)
(-0.570356 0 0.0483334)
(-0.625173 0 0.0632487)
(-0.403491 0 0.0928192)
(-0.184857 0 0.12009)
(-0.0788414 0 0.136236)
(0.0136583 0 0.147972)
(0.013055 0 0.153548)
(0.01323 0 0.158994)
(0.00645368 0 0.165693)
(0.00202929 0 0.169971)
(-0.413335 0 -0.00240193)
(-0.31511 0 -0.00219642)
(-0.284452 0 -0.0264391)
(-0.250997 0 -0.0498509)
(-0.236473 0 -0.0560945)
(-0.215337 0 -0.0574954)
(-0.199004 0 -0.0664782)
(-0.180586 0 -0.0699968)
(-0.166014 0 -0.0670112)
(-0.151183 0 -0.0650084)
(-0.132311 0 -0.0674305)
(-0.121018 0 -0.0840342)
(-0.110061 0 -0.0971036)
(-0.0686375 0 -0.101679)
(-0.000223801 0 -0.0989948)
(0.0543075 0 -0.113646)
(0.113189 0 -0.104792)
(0.300024 0 -0.0506694)
(-0.516357 0 0.00300402)
(-0.572396 0 0.0187433)
(-0.632697 0 0.0346679)
(-0.418852 0 0.0540406)
(-0.199581 0 0.077922)
(-0.0844993 0 0.10379)
(0.0226513 0 0.12067)
(0.0210372 0 0.129653)
(0.0208016 0 0.138105)
(0.0112691 0 0.148103)
(0.00459503 0 0.154744)
(-0.558864 0 -0.0113723)
(-0.504944 0 -0.0179307)
(-0.400052 0 -0.0292625)
(-0.306927 0 -0.0383232)
(-0.270605 0 -0.0652055)
(-0.226547 0 -0.0807521)
(-0.207601 0 -0.0786666)
(-0.185052 0 -0.0734473)
(-0.169944 0 -0.0782606)
(-0.154708 0 -0.0801732)
(-0.140028 0 -0.0772883)
(-0.130185 0 -0.0842996)
(-0.12486 0 -0.100494)
(-0.114331 0 -0.114235)
(-0.0669152 0 -0.117231)