/*--------------------------------*- C++ -*----------------------------------*\
| =========                 |                                                 |
| \\      /  F ield         | OpenFOAM: The Open Source CFD Toolbox           |
|  \\    /   O peration     | Version:  5.x                                   |
|   \\  /    A nd           | Web:      www.OpenFOAM.org                      |
|    \\/     M anipulation  |                                                 |
\*---------------------------------------------------------------------------*/
FoamFile
{
    version     2.0;
    format      ascii;
    class       volScalarField;
    location    "0.6";
    object      alpha.water;
}
// * * * * * * * * * * * * * * * * * * * * * * * * * * * * * * * * * * * * * //

dimensions      [0 0 0 0 0 0 0];

internalField   nonuniform List<scalar> 
12160
(
1
1
1
1
1
1
1
1
1
1
1
1
1
1
1
1
1
1
1
1
1
1
1
1
1
1
1
1
1
1
1
1
1
1
1
1
1
1
1
1
1
1
1
0.999983
0.659068
1
1
1
1
1
1
1
1
0.687421
0.0259679
1
1
1
1
1
1
1
1
0.700711
0.0653058
7.62419e-05
1
1
1
1
1
1
1
1
0.691269
0.0937376
0.000262531
3.43267e-08
1
1
1
1
1
1
1
1
0.643545
0.111492
0.000727576
1.15472e-07
1.05935e-12
1
1
1
1
1
1
1
1
0.566685
0.101273
0.00182923
5.90068e-07
3.39958e-12
3.98562e-17
1
1
1
1
1
1
1
1
0.476271
0.0717437
0.00228752
2.26235e-06
2.76819e-11
7.33359e-17
6.8613e-22
1
1
1
1
1
1
1
1
0.38722
0.0421478
0.00137151
5.07921e-06
1.84673e-10
5.00463e-16
1.09291e-21
1
1
1
1
1
1
1
1
0.307993
0.0223747
0.00046095
2.4649e-06
6.88242e-10
4.20898e-15
7.76407e-21
1
1
1
1
1
1
1
1
0.241129
0.0110923
0.00012384
4.19033e-07
2.56837e-10
1.71124e-14
8.63501e-20
1
1
1
1
1
1
1
1
0.186633
0.00524681
3.07962e-05
4.63545e-08
2.04498e-11
6.29595e-15
3.81499e-19
1
1
1
1
1
1
1
1
0.143313
0.00239366
7.09527e-06
4.5177e-09
1.36177e-12
5.15234e-16
1.43817e-19
1
1
1
1
1
1
1
1
0.109488
0.00106948
1.51212e-06
4.00318e-10
1.06969e-13
3.58752e-17
1.28239e-20
1
1
1
1
1
1
1
1
0.0834116
0.000473388
3.03944e-07
3.6422e-11
7.81418e-15
2.3553e-18
8.47341e-22
1
1
1
1
1
1
1
1
0.0634888
0.000209657
5.89797e-08
5.28357e-12
6.87577e-16
1.49265e-19
4.76282e-23
1
1
1
1
1
1
1
1
0.048366
9.37068e-05
1.13365e-08
7.73138e-13
8.0566e-17
1.21284e-20
2.72394e-24
1
1
1
1
1
1
1
1
0.0369481
4.27376e-05
2.23708e-09
1.12502e-13
9.06462e-18
1.10259e-21
1.93129e-25
1
0.999999
1
1
1
1
1
1
0.0283751
2.01519e-05
4.93204e-10
1.75797e-14
1.03003e-18
9.56873e-23
1.37271e-26
1
1
1
1
1
1
1
1
0.0219851
1.0066e-05
1.43459e-10
3.41612e-15
1.33673e-19
8.69926e-24
9.3857e-28
1
1
1
1
1
1
1
1
0.0172758
5.46186e-06
5.93944e-11
9.35388e-16
2.33268e-20
9.65341e-25
7.01785e-29
1
1
1
1
1
1
1
1
0.0138753
3.31243e-06
2.87684e-11
3.32304e-16
5.57145e-21
1.47951e-25
6.7199e-30
1
1
1
1
1
1
1
1
0.0115111
2.2595e-06
1.68465e-11
1.44985e-16
1.70621e-21
2.98798e-26
8.80181e-31
0.999999
0.999999
1
1
1
1
1
1
0.00999594
1.71752e-06
1.175e-11
8.15265e-17
6.7138e-22
7.94264e-27
1.49315e-31
0.999999
0.999999
0.999999
1
1
1
1
1
0.00920685
1.43185e-06
9.58489e-12
5.7027e-17
3.59716e-22
2.82098e-27
3.46303e-32
0.999999
0.999999
0.999999
0.999999
1
1
1
1
0.00906876
1.30171e-06
8.63561e-12
4.81618e-17
2.48146e-22
1.43122e-27
1.11063e-32
1
1
0.999999
0.999999
0.999999
1
1
1
0.00954626
1.28319e-06
8.31365e-12
4.52107e-17
2.12396e-22
9.62255e-28
5.31358e-33
1
1
1
0.999999
0.999999
1
1
1
0.0106421
1.36995e-06
8.32098e-12
4.4955e-17
2.03533e-22
8.21936e-28
3.45745e-33
1
1
1
1
1
1
1
1
0.0123878
1.57218e-06
8.64616e-12
4.53882e-17
2.06321e-22
7.92065e-28
2.92122e-33
1
1
1
1
1
1
1
1
0.0148428
1.9358e-06
9.33441e-12
4.65247e-17
2.09535e-22
8.10155e-28
2.80882e-33
1
1
1
1
1
1
1
1
0.0180967
2.56197e-06
1.0693e-11
4.86402e-17
2.13341e-22
8.25454e-28
2.88339e-33
1
1
1
1
1
1
1
1
0.0222713
3.65886e-06
1.33825e-11
5.37609e-17
2.19312e-22
8.38769e-28
2.94309e-33
1
1
1
1
1
1
1
1
0.0275128
5.66044e-06
1.88371e-11
6.56131e-17
2.38398e-22
8.57513e-28
2.991e-33
1
1
1
1
1
1
1
1
0.0339949
9.33882e-06
3.01402e-11
9.25478e-17
2.89331e-22
9.29789e-28
3.05733e-33
1
1
1
1
1
1
1
1
0.0419175
1.61004e-05
5.41216e-11
1.53914e-16
4.14509e-22
1.13782e-27
3.33161e-33
1
1
1
1
1
1
1
1
0.0515052
2.84727e-05
1.06288e-10
2.99081e-16
7.21248e-22
1.6733e-27
4.14098e-33
1
1
1
1
1
1
1
1
0.0630047
5.09075e-05
2.40576e-10
6.59723e-16
1.51598e-21
3.06181e-27
6.29028e-33
1
1
1
1
1
1
1
1
0.0766819
9.1106e-05
6.72855e-10
1.62016e-15
3.73488e-21
6.96192e-27
1.21426e-32
1
1
1
1
1
1
1
1
0.0928146
0.000162216
2.07677e-09
4.71085e-15
1.03793e-20
1.90741e-26
2.98747e-32
1
1
1
1
1
1
1
1
0.111682
0.000285714
6.60212e-09
1.60502e-14
3.27396e-20
6.02731e-26
9.07815e-32
0.133494
1
1
1
1
1
1
1
1
0.000497789
2.07964e-08
5.95908e-14
1.20552e-19
2.1358e-25
3.25344e-31
0.000869114
0.174942
1
1
1
1
1
1
1
1
6.4419e-08
2.25077e-13
5.04063e-19
8.60396e-25
1.31409e-30
2.01986e-07
0.00194072
0.25058
1
1
1
1
1
1
1
1
8.46018e-13
2.21699e-18
3.97434e-24
5.91064e-30
3.19691e-12
9.63203e-07
0.00583268
0.341365
1
1
1
1
1
0.999999
0.999999
0.999999
9.85905e-18
1.98751e-23
3.01075e-29
4.40003e-17
1.9727e-11
8.26414e-06
0.0147821
0.442029
1
1
1
1
0.999999
0.999998
0.999998
0.999997
0.999997
1.02903e-22
1.68166e-28
5.40105e-22
3.47529e-16
4.72579e-10
5.00549e-05
0.0318326
0.545114
1
1
1
1
0.999999
0.999997
0.999997
0.999998
0.999997
0.999995
9.94479e-28
6.06957e-27
5.4762e-21
8.85081e-15
8.9606e-09
0.000223986
0.0586371
0.642635
1
1
1
1
0.999998
0.999997
0.999997
0.999999
0.999999
0.999998
0.999999
7.75205e-26
1.60821e-19
2.10612e-13
1.06312e-07
0.000756145
0.094096
0.728645
1
1
1
0.999999
0.999998
0.999997
0.999997
0.999999
0.999999
0.999999
0.999998
1
2.7858e-24
4.55941e-18
3.11226e-12
7.90238e-07
0.00192675
0.134538
0.800117
1
1
1
1
0.999999
0.999998
0.999997
0.999999
0.999999
0.999999
0.999996
0.999997
0.999999
8.99373e-23
8.10598e-17
4.27461e-11
3.54169e-06
0.00375553
0.175507
0.854291
1
1
1
1
0.999999
0.999998
0.999998
0.999999
0.999999
0.999999
0.999998
0.999996
0.999996
0.999998
1.90732e-21
1.0201e-15
3.71211e-10
9.4843e-06
0.00584192
0.214327
0.887887
1
1
1
1
0.999999
0.999998
0.999999
1
0.999999
0.999993
0.999998
0.999993
0.999999
0.999999
0.999996
0.999996
0.999996
0.999996
2.41553e-20
9.03422e-15
1.3903e-09
1.58338e-05
0.00752519
0.244821
0.904935
1
1
1
1
0.999999
0.999998
0.999997
1
0.999998
0.999999
0.999996
1
1
0.999997
0.999995
0.999994
0.999999
0.999998
0.999996
0.999996
0.999996
0.999997
2.05853e-19
3.39259e-14
2.29059e-09
1.59652e-05
0.00800441
0.256859
0.907758
1
1
1
1
0.999999
0.999998
1
1
1
0.999999
0.999994
1.00001
0.999999
1
0.999996
0.999994
0.999994
1.00001
1
1
0.999998
0.999996
0.999996
0.999996
0.999996
0.999998
7.60439e-19
4.98437e-14
1.64499e-09
1.17869e-05
0.00701761
0.251233
0.904703
1
1
1
1
0.999999
1
1
0.999999
1
1.00001
1.00001
1.00001
1
1.00001
1.00001
1.00001
1.00001
1.00001
1
1
1
1.00001
1.00001
1.00001
1.00001
1.00001
1.00001
1.00001
1.00001
1.00001
1.00001
1.00001
1.00001
1.00001
1.00001
1.00001
1.00001
1.00001
1.00001
0.999999
0.999996
0.999996
0.999996
0.999996
0.999998
1.01259e-18
2.98386e-14
8.71646e-10
7.23895e-06
0.00557358
0.230058
0.883702
1
1
1
0.999999
0.999999
1
0.999999
1
1
1
1
1
1.00001
1.00001
1.00001
1.00001
1.00001
1.00001
1.00001
1.00001
1.00001
1.00001
1.00001
1.00001
1.00001
1.00001
1.00001
1.00001
1.00001
1.00001
1.00001
1.00001
1.00001
1.00001
1.00001
1.00001
1.00001
1.00001
1.00001
1.00001
1
1
1
1.00001
1
1.00001
1.00001
1.00001
1.00001
1.00001
1.00001
1.00001
1.00001
1.00001
1.00001
1.00001
1.00001
1.00001
1.00001
1.00001
1.00001
1.00001
1.00001
1.00001
1.00001
1.00001
1.00001
1.00001
1.00001
1.00001
1
0.999999
0.999997
0.999996
0.999996
0.999998
5.29263e-19
1.32145e-14
3.87002e-10
3.83802e-06
0.0037588
0.187247
0.844698
0.99994
1
1
0.999999
1
1
1
1
1
1
1
1
1
1
1
1
1
1
1
1
1
1
1
1
1
1
1
1.00001
1.00001
1.00001
1.00001
1.00001
1.00001
1.00001
1.00001
1.00001
1.00001
1.00001
1.00001
1
1.00001
1.00001
1.00001
1
1.00001
1.00001
1.00001
1.00001
1.00001
1.00001
1.00001
1.00001
1.00001
1.00001
1.00001
1
1
1
1.00001
1
1.00001
1.00001
1.00001
1.00001
1.00001
1.00001
1.00001
1.00001
1.00001
1.00001
1.00001
1.00001
1.00001
1.00001
1.00001
1.00001
1.00001
1.00001
1.00001
1.00001
1.00001
1.00001
1.00001
1.00001
1.00001
1.00001
1.00001
1.00001
1.00001
1.00001
1.00001
1.00001
1.00001
1.00001
1.00001
1.00001
1.00001
1.00001
1.00001
1.00001
1.00001
1
0.999999
0.999998
0.999997
0.999996
0.999997
1.96511e-19
5.19243e-15
1.41132e-10
1.63103e-06
0.00212198
0.127763
0.760892
0.99424
1
1
1
1
1
1
1
1
1
1
1
1
1
1
1
1
1
1
1
1
1
1
1
1
1
1
1
0.999999
1
1
1
0.999998
1
0.999984
1
0.999989
1
0.999979
1
0.999993
1
1.00001
1.00001
1.00001
1.00001
1
1
1.00001
1.00001
1.00001
1.00001
1.00001
1.00001
1.00001
1.00001
1
1.00001
1
1.00001
1.00001
1.00001
1.00001
1.00001
1.00001
1.00001
1
1.00001
1.00001
1.00001
1.00001
1.00001
1
1
1.00001
1.00001
1.00001
1.00001
1.00001
1.00001
1.00001
1.00001
1.00001
1.00001
1.00001
1.00001
1.00001
1.00001
1.00001
1.00001
1.00001
1.00001
1.00001
1.00001
1.00001
1.00001
1.00001
1.00001
1.00001
1.00001
1
0.999999
0.999998
0.999996
0.999996
0.999997
6.9698e-20
1.6698e-15
4.12835e-11
4.63036e-07
0.000855575
0.0699808
0.616462
0.97843
1
1
1
1
1
1
1
1
1
0.999992
1
0.999995
1
1
1
0.999994
1
1
1
0.999998
1
1
1
0.999999
1
0.999952
1
0.999928
1
1
1
1
0.999998
1.00001
1.00001
1.00001
1.00001
1.00001
1.00001
1.00001
1.00001
1.00001
1.00001
1.00001
1.00001
1.00001
1.00001
1
1.00001
1
1.00001
1.00001
1.00001
1.00001
1.00001
1
1
1
1
1
1
1.00001
1.00001
1
1
1
1
1.00001
1.00001
1.00001
1.00001
0.999999
0.999996
0.999996
0.999996
0.999996
0.999998
1.86763e-20
5.2093e-16
5.96832e-12
9.37188e-08
0.00018158
0.0296719
0.419346
0.921611
0.998925
0.998922
0.976767
0.976742
0.999999
1
0.999976
0.999975
1
0.999996
1
1
1
1
1
0.999999
1
1
1
1
1
1
1
1
0.999983
1
1
1
0.999998
1
1
1
0.999979
1
1
1
0.999989
1
1
1
1
1.00001
1.00001
1.00001
1.00001
1.00001
1.00001
1.00001
1.00001
1.00001
1.00001
1
1
1
1
1
1.00001
1
1
1
1
1
1
1
1
1
1
1
1
1
1
0.999996
0.999996
0.999996
0.999996
0.999997
0.999998
5.76644e-21
7.0862e-17
6.46365e-13
7.6956e-09
9.34657e-06
0.00866793
0.194658
0.61332
1
1
0.932898
0.932849
1
1
1
1
1
1
1
0.999999
1
1
1
0.999997
1
0.999998
1
1
1
1
1
1
1
0.999988
1
1
1
1
1
1
0.99997
1
0.999999
1
1.00001
1.00001
1.00001
1.00001
1.00001
1.00001
1.00001
1.00001
1.00001
1
1
1
1
1
1.00001
1.00001
1
1
0.999999
0.999999
1
1
1
1
1
0.999998
0.999998
0.999997
0.999997
1
1
1
1
1
1
1
0.999999
1
1
1
1
0.999996
0.999996
0.999996
0.999998
0.999999
4.71382e-22
1.0098e-17
2.7543e-14
2.69531e-16
1.72362e-09
0.00156859
0.0372559
0.432208
0.432047
0.186044
0.185827
0.957565
1
0.89889
1
0.957427
1
0.898573
1
0.798529
0.799003
1
1
1
1
0.999995
1
1
0.999999
0.989995
1
0.998889
1
0.989702
1
0.998689
1
1
0.999946
1
0.999999
1
0.99992
1
0.99994
0.999997
1
1.00001
1.00001
1.00001
1.00001
1.00001
1.00001
1.00001
1.00001
1
1.00001
1.00001
1.00001
1.00001
1.00001
1.00001
1.00001
1
1
1
1
1
1
1
1
1
0.999999
0.999998
0.999999
1
1
1
1
0.999999
0.999997
1
1
0.999996
0.999996
0.999998
0.999999
8.30225e-23
4.31955e-19
2.68274e-16
1.70484e-09
5.34201e-08
5.79839e-05
0.0154404
0.0154343
8.19804e-20
9.50367e-19
0.245086
0.24427
0.0531013
0.0528343
0.915846
1
0.851217
0.996874
0.915649
1
0.851369
0.996944
0.83122
0.484948
0.695678
0.622103
0.831265
0.482275
0.695784
0.620252
0.999985
1
1
0.999736
1
1
1
0.999911
0.975375
1
0.991391
1
0.975085
1
0.991308
1
0.999996
1
1
1.00001
1.00001
1.00002
1.00001
1.00001
1.00001
1.00001
1.00001
1.00001
1.00001
1.00001
1.00001
1.00001
1.00001
1.00001
1.00001
1.00001
1
1
1
1.00001
1.00001
1.00001
1.00001
1.00001
1.00001
1.00001
1
1
1.00001
1.00001
1
1
1
1
1
1.00001
1
1
0.999996
0.999998
0.999999
7.24992e-25
1.60101e-21
7.55369e-13
1.47717e-08
4.12658e-08
4.7147e-06
0.00456362
0.00454072
4.69711e-07
4.88311e-07
0.143186
0.420993
0.193908
0.0631822
0.0983733
0.59968
0.418519
0.14133
0.601291
0.194706
0.0619906
0.0973648
0.0020624
0.00540674
0.0105471
0.0202664
0.0019912
0.00526739
0.0104125
0.0200029
0.866701
0.995959
0.806453
0.975163
0.866456
0.995922
0.806354
0.975311
0.666747
0.518652
0.669946
0.515873
1
0.99759
1
0.997656
0.929607
0.999695
0.929115
0.999624
0.999996
0.999999
1
1.00001
1.00001
1.00002
1.00001
1.00002
1
1.00001
1
1.00001
1.00001
1.00001
1.00001
1
1.00001
1.00001
1.00001
1.00001
1.00001
1.00001
1.00001
1.00001
1
1
1.00001
1.00001
1
1
1
1
1
1
1.00001
1.00001
1.00001
1.00001
1.00001
1.00001
1
1
1.00001
1
0.999997
0.999999
1.68956e-26
2.78139e-16
1.80029e-10
2.43057e-08
8.55998e-06
3.87645e-07
5.83543e-07
2.06694e-05
2.34242e-05
0.00203432
0.00196495
4.97303e-24
1.14809e-23
0.279786
0.0493186
0.0683505
0.175215
0.0119478
0.0299418
0.2767
0.0480821
0.178879
0.0705629
0.0114621
0.0302309
0.0020624
0.00201876
0.00928835
0.0138263
0.0019912
0.0019912
0.00900189
0.0136684
0.674057
0.820265
0.672467
0.821498
0.999997
0.999998
1
1
1.00001
1.00001
1.00002
1.00001
1.00001
1
1
1
1
1.00001
1.00001
1.00001
1.00001
1
1
1
1
1
1
1.00001
1.00001
1.00001
1.00001
1.00001
1.00001
1
1
1
1
1.00001
1.00001
1.00001
1.00001
1
1
1.00001
1.00001
1
1
1
1
1.00001
1.00001
1.00001
1
0.999999
2.30946e-22
1.25736e-13
5.85852e-10
1.25261e-06
0.000196718
6.40813e-06
5.59719e-06
6.14796e-05
3.95854e-05
0.0008808
0.00207149
0.00183272
0.000716855
0.000814169
0.00199823
0.0018285
0.000724293
0.000112341
8.76939e-05
0.00213276
0.00269744
0.00454914
0.00608881
0.00208236
0.0027933
0.00436673
0.00624224
0.999999
0.999999
1
1
1.00001
1.00001
1.00001
1.00001
1.00002
1.00001
1.00001
1.00001
1.00002
1
1.00001
1
1
1.00001
1.00001
1.00001
1.00001
1
1
1
1
1
1
1.00001
1.00001
1
1
1.00001
1
1
1
1.00001
1.00001
-1.80737e-42
1.33475e-12
6.52412e-10
1.18799e-05
0.00122957
0.000910496
0.000414317
0.000689219
0.000159866
0.000149453
0.000596695
0.000260631
0.00129364
0.00233479
0.00431629
0.00110144
0.00113973
0.00226084
0.0042425
0.00110186
0.000304498
0.000341745
0.00097244
0.0010777
0.000216968
0.000264581
0.000810722
0.000926398
0.00218528
0.00437522
0.00212262
0.0043494
1
0.999999
1
1
1.00001
1.00001
1.00002
1.00001
1.00001
1
1.00001
1.00001
1
1
1.00001
1.00002
1.00001
1.00002
1.00002
1
1
1
1
1.00001
1.00001
1.00001
1.00001
-2.58401e-40
8.01874e-14
2.15503e-08
4.1856e-05
0.00191505
0.00243726
0.00022257
0.000698432
0.000744021
0.00071608
0.000210444
0.00068439
0.000601702
0.000496606
0.000453212
0.000522721
0.000436759
0.000462436
0.000696532
0.00025105
0.00414543
0.00177855
0.00303104
0.00246046
0.0044797
0.00194388
0.0025895
0.00242562
0.0043494
0.00188985
0.0014978
0.00126019
0.00104587
0.000991591
1
1
1
1
1
1
1
1
1
1.00001
1
1.00001
1
1
1
0.999999
1
1
1.00001
1.00001
1.00001
1.00001
1.00001
1.00001
1
1
1.00001
1.00001
1
1
1.00001
1.00001
-5.82044e-39
1.08745e-13
1.74328e-07
9.12301e-06
1.03613e-05
4.27438e-09
4.38791e-09
0.00136495
0.00264632
0.000151866
0.000288545
0.00125528
0.00196373
0.0080567
0.00161585
0.00204886
0.00188677
0.000721954
0.00135175
0.0010095
0.000846143
0.0016367
0.000361151
0.00362977
0.00631694
0.00475082
0.00893178
0.00366331
0.00701399
0.00355821
0.00682607
1
1
1
1
1
1.00001
1
1.00001
1
1.00001
1
1
1
1
1
1
1.00001
1
1
1.00001
1.00001
1.00001
0.999998
1
0.999998
0.999998
1.00001
1.00001
1
1.00001
1
0.999999
1.00001
1.00001
1.98511e-19
2.72742e-11
1.00075e-08
1.16698e-05
2.71579e-06
3.96143e-07
2.49285e-08
0.00166191
0.00459301
7.43024e-05
6.99126e-05
0.000293882
1.91827e-05
0.00354893
0.00706972
0.000250831
0.00130153
0.00107365
0.000451091
3.55734e-05
4.45358e-05
0.0110614
0.00439599
0.00336051
0.000881959
0.00374308
0.00667891
0.00515101
0.00744186
1
1
1
1
1
1
1.00001
1
1.00001
1
1.00001
1
1
1
1
1
1
1.00001
1.00001
1.00001
1.00001
1.00001
1.00001
1
0.999999
1
1
1
1
1
1
2.138e-15
5.78299e-10
3.20331e-10
1.69454e-06
1.67649e-06
1.25633e-08
8.68721e-09
0.000504062
0.00105642
4.27887e-05
1.65594e-05
5.41618e-05
1.68398e-05
0.00271016
0.00282225
7.22839e-05
0.000206175
9.97386e-05
3.17264e-05
4.35185e-06
2.73082e-05
1.87653e-05
5.81132e-05
7.26746e-06
2.70782e-05
1.59543e-05
5.34908e-05
0.00132452
0.00151023
0.00467795
0.00499535
1
1
1.00001
1.00001
1.00001
1.00001
1.00001
1.00001
1.00001
1
1
1
1
1
1
1.00001
1.00001
1.00001
1.00001
1.00001
1.00001
1
1
1
1
1
1
1
1
1.23139e-12
1.51346e-11
-9.20135e-35
2.31074e-10
9.18167e-11
2.01306e-34
7.64222e-18
6.19996e-18
6.54315e-08
2.11478e-06
8.05545e-06
1.89954e-08
4.05585e-06
9.83004e-06
1.8826e-05
4.94646e-05
5.86455e-05
1.11727e-05
4.87732e-05
2.57681e-05
0.000458515
0.000146632
4.92736e-05
1.28141e-05
2.66761e-05
1.76847e-05
8.66042e-06
2.3365e-05
1.03435e-05
2.17789e-05
1
1
1.00001
1.00001
1.00001
1.00001
1.00001
1.00001
1.00001
1
1.00001
1
1
1.00001
1.00001
1.00001
1.00001
1.00001
1.00001
1
1
1
1
1
1
1.00001
1.00001
1
1
1
1
3.08093e-14
1.5761e-15
2.43058e-15
-6.82097e-42
2.24338e-15
1.40996e-40
-1.63154e-34
4.37256e-35
-2.58162e-26
1.67111e-08
1.02859e-07
1.80805e-08
7.2789e-07
1.70221e-09
2.58295e-26
7.52188e-28
1.83023e-09
2.39142e-26
5.83819e-09
1.90594e-09
2.68478e-07
2.83165e-10
5.4047e-27
-4.4257e-29
3.60609e-05
6.72113e-06
2.7576e-05
8.94771e-06
1.06823e-06
6.20306e-07
1.08174e-06
6.39784e-07
0.999999
1
1
1.00001
1.00001
1
1.00001
1.00001
1.00001
1.00001
1.00001
1.00001
1.00001
1.00001
1
1
1
1
1.00001
1.00001
1.00001
1.00001
1
1
1
1
1.00001
1
1.00001
1
4.28973e-17
1.09573e-24
1.21544e-15
4.28438e-13
1.78929e-26
9.48993e-21
3.64781e-14
1.67273e-13
4.52033e-33
3.80111e-22
9.90364e-23
5.44252e-25
1.67194e-08
4.93506e-13
1.12993e-07
2.73639e-07
5.38311e-08
1.57572e-10
1.29061e-09
3.15946e-10
2.671e-32
3.36697e-10
3.40302e-09
1.4428e-11
6.4413e-07
1.19565e-06
1.95557e-06
2.32808e-06
0.999997
0.999998
1
1.00001
1.00001
1
1
1.00001
1
1
1
1
1
1
1.00001
1.00001
1.00001
1.00001
1.00001
1.00001
1.00001
1.00001
1.00001
1.00001
1
1
1
1
1.00001
1.00001
1.00001
1.00001
5.41978e-23
7.06011e-22
2.83363e-20
1.44701e-21
2.49975e-24
5.2704e-40
8.05834e-40
-9.05401e-34
3.35984e-14
3.64567e-16
1.02806e-14
3.19657e-16
9.22798e-35
6.76203e-17
1.22093e-17
1.08214e-18
3.45991e-20
1.14093e-20
-2.33311e-33
1.77897e-12
8.23777e-15
9.76236e-13
7.36398e-15
1.65045e-35
4.66377e-15
1.95609e-16
9.84871e-20
-2.30036e-40
1.27548e-20
2.19638e-10
7.20834e-18
7.58966e-09
5.45748e-18
7.94558e-11
7.63967e-14
5.43093e-10
2.38516e-11
0.999995
0.999994
0.999998
1
1.00001
1.00001
1.00001
1.00001
1.00001
1
0.999999
1
1
1
1
1
1
1
1.00001
1.00001
1.00001
1.00001
1.00001
1.00001
1
1
1.00001
1
9.38683e-32
8.90482e-19
3.48293e-21
1.92324e-19
4.29323e-23
8.05882e-40
7.25259e-40
5.45748e-18
5.38952e-17
1.48182e-29
6.68976e-14
3.66852e-19
6.80605e-20
1.81254e-18
6.82747e-19
9.30591e-18
4.29919e-19
3.76659e-19
3.23904e-17
1.66607e-19
5.29831e-18
6.88366e-15
1.77699e-15
8.87311e-12
1.42271e-29
3.99678e-18
3.64862e-19
8.80305e-20
1.52197e-19
1.90189e-18
1.74332e-21
2.9901e-20
4.79868e-18
3.87501e-20
4.90766e-19
0.999997
0.999998
0.999994
0.999998
0.999994
0.999988
0.999988
0.999994
1
1
1
1
1
0.999987
0.999998
1
1.00001
1.00001
1.00001
1.00001
1
1
0.999999
0.999999
0.999998
1
0.999998
1
1
1
1
1
1
1.00001
1.00001
1.00001
1.00001
1.12527e-36
3.02652e-18
3.57053e-17
1.55599e-19
1.01463e-22
1.39029e-18
6.403e-18
3.68649e-20
1.79576e-22
3.57201e-38
5.54152e-38
7.3733e-19
1.42281e-29
9.34812e-20
4.51464e-19
5.65054e-17
2.94413e-16
2.26405e-25
2.70126e-18
1.05861e-16
3.1594e-16
1.06811e-16
5.15285e-18
8.34851e-39
6.02966e-21
8.69681e-18
-3.93764e-37
1.20752e-17
3.06714e-19
1.94557e-17
3.34196e-17
0.999998
0.999998
0.999997
0.999999
0.999986
0.999984
0.999983
1
0.999994
1
0.999997
0.999987
0.999997
1.00001
1
1.00001
0.999999
0.999992
0.999998
1
0.999999
1
0.999988
0.999998
1
1
1
1
0.999991
0.999999
0.999991
0.999999
1
1
1
6.32286e-42
1.08892e-55
-2.86945e-55
3.34268e-19
9.30211e-17
1.03091e-17
9.37484e-17
3.74005e-18
-7.27603e-43
9.17987e-19
2.1631e-17
2.43537e-19
2.87716e-17
2.55774e-19
8.90232e-28
2.26313e-25
1.2624e-15
3.11339e-15
1.02965e-17
7.44678e-16
1.30735e-15
2.90244e-35
1.15591e-16
6.45918e-17
4.43569e-18
7.38029e-17
7.74002e-17
0.999998
0.999995
0.999972
1
1
0.999983
1
1
0.999986
0.999987
0.999992
0.999994
0.999994
0.999988
0.999994
0.999996
0.999995
0.999989
0.999994
1
1
0.999995
1
1
1
1
1
0.999991
0.999997
1
1
1.2716e-47
2.86565e-51
5.52069e-50
9.27677e-44
8.59508e-61
2.42086e-24
4.94978e-18
9.47595e-18
3.40488e-17
5.93089e-18
6.57527e-15
2.04547e-15
1.17243e-30
2.89126e-22
1.02002e-17
1.48929e-19
2.45543e-17
1.27937e-19
6.51871e-17
8.92511e-17
2.64693e-34
1.42617e-14
4.25442e-15
3.005e-16
1.34609e-16
0.999999
0.999992
0.999987
0.999972
0.999995
0.999992
0.999992
0.999994
0.999993
1
1
1
1
0.999993
0.999993
1
1
0.999999
1
1
1
1
0.999995
1
1
1
1
2.51777e-35
-6.99835e-67
1.43971e-49
1.84709e-66
1.67385e-49
6.79941e-31
1.49388e-33
5.81049e-27
5.95197e-22
1.13671e-28
1.10828e-28
3.3479e-26
1.96387e-16
7.00153e-15
1.54883e-15
2.52758e-15
4.60428e-14
9.28111e-15
2.11241e-34
4.45918e-20
1.05339e-28
1.08053e-28
1.33253e-23
5.72494e-17
6.27958e-17
8.91796e-17
4.64847e-17
5.07828e-17
1.15366e-16
1
0.999997
0.999991
0.999989
0.999976
0.999987
0.999998
0.999999
0.999999
0.999998
0.999998
0.999999
0.999991
1
1
1
1
1
1
0.999986
0.999988
1
1
1
1
5.88181e-30
6.47972e-54
8.41982e-37
2.85439e-53
8.82183e-37
5.09075e-33
2.46824e-37
1.5545e-35
1.2649e-40
1.65099e-28
9.46151e-29
1.8094e-26
4.01847e-27
3.72744e-26
1.19681e-27
9.61851e-20
2.0153e-26
1.13671e-28
5.61319e-45
7.39276e-16
6.46341e-14
1.05175e-14
2.5944e-14
3.28107e-27
1.0269e-28
2.39502e-27
4.44014e-29
1.03938e-18
1.06746e-27
1.10828e-28
4.71336e-51
8.69254e-17
4.80621e-17
1.15177e-16
4.94492e-17
1
0.999998
1
0.999988
0.999996
0.999975
0.999975
1
1
1
1
1
1
0.999999
1
1
1
1
1
1
1
1
1
1
1
1
1
1
1
3.55532e-24
2.88171e-48
2.95026e-50
-1.46435e-48
-2.98332e-49
1.91743e-42
1.93025e-56
6.46064e-46
4.19718e-55
8.02216e-30
8.03836e-31
3.77992e-30
7.83222e-32
1.62762e-27
2.87319e-30
2.92577e-29
8.27087e-29
1.43128e-27
5.36836e-29
7.62966e-29
4.13006e-29
2.47487e-26
1.06217e-26
4.54729e-26
9.23299e-28
4.15193e-27
4.53852e-28
3.59912e-27
6.54329e-29
1
1
1
0.999995
0.999976
0.999976
0.999988
0.999984
0.999991
0.999993
0.999998
1
1
1
1
1
1
1
1
1
1
1
1
1
1
1
0.999999
1
1
1
1
1
1
1
1
1.30931e-24
7.83494e-18
-6.19156e-52
1.66637e-42
0
8.04432e-43
5.11297e-33
4.72917e-28
2.2842e-34
1.55802e-29
2.48605e-29
2.90989e-30
7.3637e-29
9.22125e-31
7.469e-30
4.73697e-31
1.06833e-30
4.04557e-31
6.1634e-30
3.36061e-30
2.00654e-29
3.60441e-32
1.27782e-30
-5.49832e-50
4.32727e-32
3.67884e-32
1.00108e-27
1.36673e-28
6.15161e-28
4.31633e-29
1.48447e-27
1.89018e-29
8.38724e-29
1.69245e-29
0.999992
1
1
0.999975
0.999985
0.999998
0.999988
0.999997
0.999985
0.999998
1
1
1
0.999999
1
1
0.999997
0.999999
1
1
0.999997
0.999999
1
1
0.999999
0.999999
1
1
0.999998
5.53084e-16
4.75113e-37
1.66395e-25
4.71859e-36
1.6326e-25
1.06522e-13
4.88685e-26
1.73719e-26
1.37456e-27
7.19344e-28
2.6898e-33
2.86129e-32
3.82869e-32
2.69175e-33
3.26055e-36
1.60019e-28
1.26062e-26
3.43874e-36
9.88791e-33
3.19836e-49
3.89487e-34
7.66763e-35
1.06578e-29
5.51254e-30
5.97137e-28
6.30417e-47
4.4698e-29
2.89846e-28
3.48234e-28
2.19673e-29
6.49291e-30
2.00484e-31
1.20418e-30
3.05428e-31
7.90013e-30
2.17842e-30
3.34623e-29
3.90902e-32
1.2999e-30
4.79354e-35
9.87097e-32
1.23436e-32
0.999988
0.999982
0.999975
0.999986
0.999962
0.999977
0.999986
0.999965
0.999984
0.999981
1
1
1
0.999999
0.999999
0.999999
1
0.999995
1
1
1
1
0.999999
0.999998
1
0.999995
0.999991
1
1
0.999987
0.99999
0.999997
1
0.999985
2.34263e-11
8.37707e-35
6.62772e-19
2.74465e-34
5.33749e-19
2.72791e-25
4.27002e-26
1.1182e-26
7.00911e-27
1.68079e-10
4.40063e-25
2.23461e-26
1.5448e-25
1.99076e-26
2.67878e-25
2.59305e-26
9.61157e-26
5.83944e-27
2.19685e-26
1.72654e-28
7.2275e-27
1.96304e-28
2.21193e-26
2.13024e-28
1.21043e-26
2.21276e-28
-2.72889e-47
2.01802e-32
7.20925e-32
7.43951e-34
2.34114e-28
3.90601e-30
1.92202e-26
4.80318e-36
5.52719e-48
1.2954e-39
2.84611e-33
1.69239e-35
3.14904e-29
8.6123e-31
1.12243e-27
4.49261e-54
0.99999
0.999981
0.999992
0.999999
0.999985
0.999994
0.999965
0.999996
0.999971
0.999999
1
1
1
1
1
0.999998
1
0.999999
1
0.999999
1
0.999999
1
1
1
1
0.999999
1
1
0.999997
0.99999
0.999999
0.999999
0.999985
0.999999
1
1
0.999998
0.999989
0.99999
0.999999
0.999979
1.93454e-10
7.08081e-09
3.48198e-28
7.57907e-24
7.06973e-28
4.35614e-24
7.93725e-26
4.32901e-26
1.97657e-24
8.70957e-26
1.32225e-24
9.52701e-25
1.75173e-27
5.86222e-26
1.76537e-26
4.74647e-25
2.55539e-27
2.7895e-28
1.33566e-25
2.26659e-27
7.68779e-26
8.2095e-26
3.61734e-44
8.03461e-28
8.03953e-44
1.40597e-26
4.19029e-09
1.46955e-24
3.67255e-27
2.41354e-25
1.58754e-27
1.04423e-24
1.58897e-27
2.76627e-26
6.91897e-29
1.04236e-26
5.36355e-29
8.46111e-26
2.44816e-29
-1.416e-43
4.55536e-26
8.77508e-27
-6.31217e-44
7.24607e-30
4.8593e-31
4.69716e-28
1.16649e-48
0.999995
0.999981
0.999995
0.999991
0.999992
0.999982
1
0.999999
1
0.999998
0.999985
0.999972
0.999982
0.999978
1
1
1
1
1
1
1
1
1
1
1
1
1
1
1
1
1
0.99999
1
0.999995
1
0.999998
1
0.999999
1
1
1
1
1.81749e-08
5.64624e-29
6.08811e-12
4.27493e-29
5.84743e-12
9.28654e-08
8.21076e-27
3.85673e-27
1.76732e-28
1.40241e-27
3.30105e-25
5.4475e-26
2.4831e-24
1.74814e-24
2.92656e-26
1.62507e-24
7.62938e-28
3.41792e-25
2.90479e-27
1.21521e-24
3.52702e-29
1.15493e-28
1.24638e-25
3.06666e-26
2.27311e-28
1.72656e-26
4.16275e-30
2.84714e-27
4.77975e-29
1.10668e-26
2.25671e-09
5.28802e-23
6.76187e-24
1.30832e-27
5.20491e-22
7.55278e-24
1.63957e-23
5.80374e-28
8.40943e-30
1.23765e-27
9.97841e-30
9.54726e-26
8.52611e-30
0.999999
0.999981
0.999989
0.999997
0.999997
0.999996
0.999996
0.999999
0.999999
1
0.999991
0.999999
1
0.999996
1
0.999999
1
0.999993
0.999989
1
0.999985
0.999998
0.999999
0.999998
1
0.999998
1
0.999997
0.99999
0.999994
0.999995
1
0.999996
1
1
1
1
1
1
1
0.999999
1
1
1
1
1
1
2.24596e-07
3.65672e-11
1.40507e-09
4.59159e-11
2.19184e-09
1.19362e-15
2.65412e-12
1.0361e-15
2.97438e-12
1.09797e-07
1.75947e-28
1.70926e-27
7.83727e-27
8.45167e-30
1.272e-24
-6.83469e-34
1.56033e-42
4.3054e-45
3.57723e-28
1.37858e-29
3.61907e-26
1.31715e-29
4.00928e-25
-3.22157e-34
-9.6923e-44
-5.88809e-47
5.75035e-26
1.95225e-24
1.61475e-28
2.47363e-26
2.87167e-29
2.54892e-29
3.54158e-29
3.98584e-26
2.72714e-31
4.27404e-28
1.20308e-29
3.02039e-27
1.55337e-10
1
0.999992
0.999978
0.999998
0.999993
0.999996
0.99998
1
1
1
1
1
0.999997
1
1
0.999984
0.999996
0.999994
0.999999
0.999994
0.999998
0.999986
0.999988
0.999998
0.999999
0.999982
0.999993
0.999986
0.999999
0.999982
0.999997
1
1
1
1
1
1
1
1
1
1
1
0.999998
9.46017e-06
9.156e-06
1.36522e-10
6.63125e-10
1.86485e-10
1.25454e-09
3.89224e-20
-2.6796e-33
5.65101e-20
1.27519e-15
3.7086e-16
-8.82379e-37
3.97304e-12
6.30062e-13
3.01091e-17
8.69404e-33
5.65101e-20
1.07339e-33
3.89224e-20
1.08006e-15
3.32085e-16
-1.5532e-36
3.68434e-12
5.95625e-13
1.90259e-17
1.35547e-32
3.13548e-08
-6.11843e-50
3.17106e-41
6.27268e-41
1.01919e-27
1.08389e-21
-1.49846e-31
1.12161e-42
4.43326e-31
2.69509e-24
8.4301e-27
2.84479e-22
-5.21976e-45
5.7303e-13
1
0.999999
0.999982
0.99997
0.999989
0.999969
0.999979
1
0.999997
1
0.999993
1
0.999997
0.999999
1
1
1
1
1
1
0.999999
1
1
1
1
1
1
1
1
0.999997
0.999998
0.999997
0.999996
0.999986
0.999996
0.999995
0.999998
0.999989
0.999994
0.000189062
3.65649e-05
0.000423413
4.16964e-05
0.000470424
1.94087e-06
1.53201e-30
5.78141e-07
-3.84263e-31
7.72748e-07
4.04213e-18
2.9626e-17
7.72163e-18
3.01908e-17
1.28965e-15
4.83187e-16
1.26211e-13
1.14183e-14
1.21048e-15
7.90367e-16
6.36394e-18
2.39504e-17
4.83822e-18
4.05887e-18
1.09253e-15
4.34068e-16
1.26221e-17
7.84761e-18
1.0597e-16
1.69661e-16
1.1451e-09
3.29401e-19
2.74053e-28
7.90604e-20
-3.85325e-47
1.15262e-14
1
1
0.999992
0.999988
0.999989
0.999972
0.999989
0.999972
1
1
1
1
1
1
1
1
1
1
0.999999
0.999999
1
1
1
1
1
1
1
1
1
0.999996
0.999998
1
1
1
1
1
0.999999
1
1
1
0.00071275
6.3389e-05
0.00109073
0.00280604
0.00122527
0.00281594
7.7135e-08
8.0815e-31
1.63702e-13
5.13122e-13
-1.45691e-31
6.13758e-05
-7.82951e-31
8.54577e-16
1.18477e-13
2.53916e-33
8.09912e-05
1.70954e-15
8.48882e-17
4.85728e-15
1.17613e-15
1.16355e-14
6.4867e-15
6.16504e-16
8.43258e-17
6.64056e-17
1.15127e-34
2.74129e-16
1.54962e-16
1.04219e-11
1.39392e-17
1
1
0.999999
0.999996
0.999984
1
0.999984
0.999992
1
1
1
1
1
0.999999
1
1
1
1
1
1
1
1
0.999999
0.999999
1
1
1
1
1
1
1
1
1
1
1
1
0.00021275
0.000323619
1.40341e-05
0.000268896
1.40025e-05
3.00431e-06
0.00583452
0.00332362
0.00594619
0.00304784
1.50124e-09
1.1313e-30
1.50827e-15
1.08993e-12
2.89545e-33
0.00153518
0.00132247
3.90828e-05
2.82346e-05
2.15453e-30
1.98588e-34
6.01805e-13
-9.19354e-36
0.00186547
0.00166774
7.77569e-05
4.70264e-05
7.97192e-15
-2.99556e-32
3.53334e-17
1.73203e-33
1.85721e-14
6.98964e-23
1
1
1
1
0.999989
0.999998
1
0.999996
0.999999
0.999998
1
1
0.999999
0.99998
1
1
1
1
0.99998
1
1
1
1
1
1
1
1
1
1
1
1
8.31322e-05
6.64089e-06
0.000103881
2.21742e-05
9.42289e-05
2.05899e-05
3.39048e-08
0.00797737
0.00687821
0.0105917
0.00473176
0.00329301
0.00402781
0.00136623
0.00368747
0.00428343
0.00666806
0.0066967
0.0106225
0.00392169
0.00118973
5.0796e-12
1.1164e-30
3.16495e-16
1.07259e-12
-2.04407e-33
0.000277952
0.000338787
-7.60961e-31
4.72545e-19
8.64707e-13
3.22514e-36
0.000411243
0.000428057
6.61479e-19
2.45918e-24
1
1
1
1
0.999992
0.99999
0.999994
0.999991
0.999994
1
0.999999
1
0.999997
1
1
1
1
1
1
1
1
1
1
1
1
1
1
1
1
1
1
1
1
0.000119179
1.78973e-05
3.16277e-18
1.79603e-05
-2.57896e-19
3.40138e-08
0.000631089
3.8195e-07
0.000567171
7.06471e-07
2.21702e-09
0.00402106
0.00668813
0.00606692
0.00898487
0.00781372
0.00396522
0.00150349
0.0025341
0.00269116
0.00375687
0.00624073
0.00774165
0.00327284
0.00605361
0.00794996
0.00338894
0.001416
0.00225986
0.00264276
0.00365964
1.5622e-16
2.96243e-31
-7.73616e-23
1.48238e-30
-6.29845e-24
6.52449e-19
7.252e-23
1
1
1
1
0.999999
0.999983
0.999994
0.99999
0.999996
0.999991
1
1
1
1
1
1
0.999996
1
1
1
1
1
0.999998
0.999995
1
1
1
1
1
1
1
1
1
1
1
1
0.0499756
0.0026429
0.007291
0.0217371
0.00727569
0.0217416
3.52762e-07
0.00342784
0.00627252
0.00264796
0.00282985
0.00513031
0.00184169
0.00311164
0.00323518
0.00572571
0.00257236
0.00272107
0.00471455
0.00180868
0.00309881
1.57501e-16
0.00198546
0.0033886
0.00416913
0.00524004
0.00198783
0.00336135
0.00406838
0.00526963
3.53474e-14
1.22528e-17
1.91317e-22
1
1
1
1
1
0.999985
0.999981
0.999985
0.999978
0.999974
0.999999
0.999996
1
0.999996
1
1
1
1
1
1
0.999997
1