/*--------------------------------*- C++ -*----------------------------------*\
| =========                 |                                                 |
| \\      /  F ield         | OpenFOAM: The Open Source CFD Toolbox           |
|  \\    /   O peration     | Version:  5.x                                   |
|   \\  /    A nd           | Web:      www.OpenFOAM.org                      |
|    \\/     M anipulation  |                                                 |
\*---------------------------------------------------------------------------*/
FoamFile
{
    version     2.0;
    format      ascii;
    class       surfaceScalarField;
    location    "0.6";
    object      alphaPhi10;
}
// * * * * * * * * * * * * * * * * * * * * * * * * * * * * * * * * * * * * * //

dimensions      [0 3 -1 0 0 0 0];

internalField   nonuniform List<scalar> 
30582
(
0.000296012
2.00377e-06
0.000288073
7.9386e-06
0.000294971
5.08332e-06
0.000272652
1.54213e-05
0.000287204
1.57055e-05
0.000293952
9.25835e-06
0.000254299
1.83533e-05
0.000272784
2.98409e-05
0.000287745
2.19122e-05
0.000289045
1.84505e-05
0.000230099
2.41997e-05
0.000254799
3.63387e-05
0.000275269
4.23173e-05
0.00028335
2.76071e-05
0.000285466
3.13646e-05
0.000202793
2.73059e-05
0.000230776
4.82224e-05
0.000256953
5.46545e-05
0.000274511
5.1157e-05
0.00028404
2.90325e-05
0.000271722
5.82104e-05
0.000173724
2.90689e-05
0.0002032
5.48826e-05
0.000232552
7.26239e-05
0.00025774
7.14255e-05
0.000279533
5.56647e-05
0.000273856
2.68983e-05
0.0002646
9.23986e-05
0.000145507
2.82167e-05
0.00017374
5.8529e-05
0.000204096
8.33386e-05
0.000233973
9.63903e-05
0.000263334
8.7624e-05
0.00027734
5.21814e-05
0.000276925
1.45735e-05
0.000234273
0.000157167
0.000119569
2.5938e-05
0.000145191
5.67651e-05
0.000173753
8.88715e-05
0.000204753
0.000112559
0.000238847
0.000120878
0.000264737
0.000100227
0.000286047
4.30599e-05
0.000253585
-4.24717e-06
0.000124762
-4.52488e-06
9.67781e-05
2.27912e-05
0.00011904
5.20894e-05
0.000144479
8.60387e-05
0.000173359
0.000120265
0.000207306
0.0001441
0.00024112
0.000144495
0.000274403
0.00011187
0.00028109
1.55588e-05
0.000190929
-1.91118e-05
-7.25045e-06
9.9668e-08
7.74174e-05
1.93607e-05
9.61481e-05
4.56829e-05
0.000117891
7.8678e-05
0.000143171
0.000116227
0.000173766
0.000153805
0.000207909
0.00017731
0.000248541
0.000170357
0.000281036
0.000111925
0.000236535
-1.49862e-05
2.15865e-05
-4.17828e-07
7.05652e-09
1.21508e-11
6.13644e-05
1.6053e-05
7.67675e-05
3.87413e-05
9.48117e-05
6.87621e-05
0.000116029
0.00010582
0.000141944
0.000148049
0.000172231
0.000189483
0.000211473
0.000214379
0.000256074
0.000195319
0.000245093
2.98255e-05
5.16335e-05
-6.62409e-07
6.20714e-08
-2.1265e-10
9.3187e-12
-2.38671e-16
4.82915e-05
1.30729e-05
6.07462e-05
3.20744e-05
7.54103e-05
5.81427e-05
9.27254e-05
9.20659e-05
0.00011386
0.000133904
0.000138848
0.000181432
0.000172085
0.00022887
0.000214842
0.000255611
0.000210274
6.04624e-05
6.78879e-05
-2.475e-07
3.17458e-07
-7.53598e-10
4.68463e-12
-5.17971e-15
6.4099e-17
-9.49243e-21
3.7786e-05
1.05055e-05
4.77332e-05
2.60858e-05
5.94696e-05
4.8015e-05
7.33268e-05
7.75413e-05
9.01481e-05
0.000115777
0.000109932
0.00016282
0.00013645
0.000217067
0.000171023
0.00027269
0.000160779
6.7435e-05
5.89005e-05
2.53863e-06
1.06591e-06
-1.61616e-09
-4.30985e-11
-3.0268e-14
-1.63816e-16
-8.53838e-20
2.62984e-21
-3.00338e-25
2.94215e-05
8.36454e-06
3.72998e-05
2.09389e-05
4.65903e-05
3.89652e-05
5.75281e-05
6.38137e-05
7.06935e-05
9.69959e-05
8.59929e-05
0.000139716
0.00010643
0.00019284
0.000132365
0.000255725
0.00011656
5.41034e-05
3.46814e-05
2.55511e-06
1.21034e-06
6.89863e-09
-2.14471e-10
-1.27582e-13
-3.98211e-15
-4.70868e-19
-2.619e-22
-1.34514e-24
2.73115e-27
2.27986e-05
6.62288e-06
2.9009e-05
1.66554e-05
3.63106e-05
3.12186e-05
4.48614e-05
5.16318e-05
5.50474e-05
7.94598e-05
6.66901e-05
0.000116299
8.21985e-05
0.000163947
0.000100578
0.000224627
8.275e-05
3.5608e-05
1.69023e-05
1.28689e-06
3.92811e-07
1.0248e-08
-1.02224e-10
1.35665e-12
-6.51492e-14
-2.43315e-18
-5.10392e-20
-6.80764e-24
-8.52142e-27
1.75667e-05
5.23196e-06
2.24558e-05
1.31761e-05
2.81738e-05
2.47921e-05
3.48197e-05
4.12604e-05
4.26394e-05
6.40398e-05
5.14083e-05
9.47416e-05
6.30471e-05
0.00013545
7.56165e-05
0.000188909
5.91732e-05
2.05945e-05
7.59152e-06
4.40301e-07
6.27885e-08
2.45852e-09
-2.79942e-12
1.61525e-12
-3.44431e-14
3.75486e-17
-1.07873e-18
-4.38922e-23
-2.98063e-25
1.34278e-05
4.13886e-06
1.72872e-05
1.04006e-05
2.17649e-05
1.9585e-05
2.69189e-05
3.26929e-05
3.28971e-05
5.10027e-05
3.94584e-05
7.59897e-05
4.81301e-05
0.000109659
5.64331e-05
0.000154634
4.24063e-05
1.10293e-05
3.08327e-06
1.27639e-07
9.43833e-09
3.0822e-10
2.31393e-12
1.73709e-13
-1.66112e-15
4.10887e-17
-5.56161e-19
9.3813e-22
-7.61343e-24
1.01329e-05
3.29489e-06
1.32045e-05
8.22154e-06
1.67263e-05
1.54392e-05
2.07292e-05
2.57748e-05
2.52973e-05
4.02927e-05
3.01938e-05
6.02672e-05
3.66222e-05
8.74977e-05
4.19239e-05
0.000124168
3.05409e-05
5.5544e-06
1.13882e-06
3.29796e-08
1.45044e-09
3.27225e-11
3.17417e-13
1.00401e-14
-1.14139e-17
4.23476e-18
-2.71445e-20
9.92646e-22
-3.96946e-24
7.47756e-06
2.65535e-06
9.95871e-06
6.54067e-06
1.27574e-05
1.21904e-05
1.58865e-05
2.02819e-05
1.93892e-05
3.16828e-05
2.3049e-05
4.74375e-05
2.78037e-05
6.90857e-05
3.10669e-05
9.83547e-05
2.20979e-05
2.68086e-06
3.85415e-07
7.66936e-09
2.19854e-10
3.11082e-12
2.93064e-14
8.54816e-16
3.00568e-18
2.84931e-19
-1.93983e-22
1.07455e-22
-2.01219e-25
5.29206e-06
2.1855e-06
7.34565e-06
5.26841e-06
9.61006e-06
9.68806e-06
1.20885e-05
1.59883e-05
1.47991e-05
2.4872e-05
1.75521e-05
3.71798e-05
2.10729e-05
5.41683e-05
2.30007e-05
7.71519e-05
1.60656e-05
1.25674e-06
1.22516e-07
1.64228e-09
3.31098e-11
2.59042e-13
2.45738e-15
6.45303e-17
3.54006e-19
2.0301e-20
4.65765e-23
7.53664e-24
-2.73665e-28
3.43696e-06
1.8551e-06
5.19701e-06
4.33413e-06
7.08177e-06
7.7967e-06
9.08882e-06
1.26878e-05
1.12222e-05
1.95652e-05
1.33216e-05
2.91025e-05
1.59431e-05
4.23096e-05
1.70294e-05
6.01395e-05
1.17286e-05
5.79462e-07
3.73775e-08
3.3268e-10
5.01943e-12
3.37899e-14
2.81501e-16
4.9302e-18
2.97705e-20
1.27713e-21
4.24562e-24
4.51949e-25
3.95364e-28
1.79527e-06
1.64169e-06
3.37506e-06
3.67705e-06
5.00741e-06
6.40849e-06
6.68812e-06
1.01974e-05
8.41362e-06
1.54963e-05
1.00534e-05
2.28335e-05
1.20299e-05
3.30157e-05
1.2612e-05
4.6727e-05
8.589e-06
2.65857e-07
1.11953e-08
6.5623e-11
7.72675e-13
5.1409e-15
4.59076e-17
5.87202e-19
3.29538e-21
9.48212e-23
3.26139e-25
2.49452e-26
2.81375e-29
2.68489e-07
1.52678e-06
1.76448e-06
3.25226e-06
3.25231e-06
5.43216e-06
4.72549e-06
8.37112e-06
6.17828e-06
1.24327e-05
7.50793e-06
1.80418e-05
9.03207e-06
2.58313e-05
9.33695e-06
3.62908e-05
6.29883e-06
1.22937e-07
3.40176e-09
1.28966e-11
1.22015e-13
7.58459e-16
5.94117e-18
6.85771e-20
4.0009e-22
9.03382e-24
3.07657e-26
1.71378e-27
1.91584e-30
-1.2307e-06
1.49919e-06
2.67947e-07
3.02332e-06
1.70388e-06
4.80068e-06
3.07034e-06
7.0873e-06
4.36048e-06
1.01889e-05
5.49752e-06
1.44431e-05
6.71648e-06
2.03574e-05
6.8958e-06
2.82724e-05
4.61759e-06
5.81454e-08
1.07558e-09
2.64271e-12
2.01684e-14
1.13958e-16
7.48943e-19
7.78286e-21
3.91701e-23
8.07205e-25
2.65232e-27
1.27206e-28
1.4369e-31
-2.78124e-06
1.55054e-06
-1.20109e-06
2.96823e-06
2.67075e-07
4.46013e-06
1.61429e-06
6.25673e-06
2.83483e-06
8.61295e-06
3.87448e-06
1.1812e-05
4.90253e-06
1.62571e-05
5.05876e-06
2.21944e-05
3.37256e-06
2.8816e-08
3.59369e-10
5.90591e-13
3.97196e-15
1.92754e-17
1.07347e-19
9.38569e-22
4.00543e-24
7.1798e-26
2.01784e-28
8.82003e-30
9.06217e-33
-4.45864e-06
1.6774e-06
-2.72082e-06
3.07027e-06
-1.14263e-06
4.37794e-06
2.65772e-07
5.80864e-06
1.49839e-06
7.59317e-06
2.52119e-06
9.96623e-06
3.45001e-06
1.32645e-05
3.6563e-06
1.76595e-05
2.44231e-06
1.53949e-08
1.29343e-10
2.19449e-13
1.06144e-15
4.40494e-18
2.05239e-20
1.41693e-22
5.12638e-25
7.25719e-27
1.7396e-29
6.31908e-31
5.50907e-34
-6.33709e-06
1.87845e-06
-4.36602e-06
3.32259e-06
-2.6016e-06
4.52924e-06
-1.05621e-06
5.69992e-06
2.6424e-07
7.0428e-06
1.34251e-06
8.77185e-06
2.24792e-06
1.11683e-05
2.56054e-06
1.43602e-05
1.73882e-06
9.14007e-09
5.04687e-11
1.01923e-13
3.33224e-16
1.48113e-18
5.14238e-21
3.06439e-23
8.95976e-26
9.91201e-28
1.99709e-30
5.49513e-32
4.07842e-35
-8.49106e-06
2.15397e-06
-6.20984e-06
3.72227e-06
-4.18246e-06
4.90346e-06
-2.42498e-06
5.89801e-06
-9.43911e-07
6.90807e-06
2.58262e-07
8.12704e-06
1.20829e-06
9.81148e-06
1.67274e-06
1.20561e-05
1.19691e-06
6.15215e-09
2.09153e-11
5.73621e-14
9.63193e-17
6.13477e-19
1.44839e-21
8.85461e-24
1.93975e-26
1.87637e-28
3.05655e-31
6.61295e-33
4.10143e-36
-1.0996e-05
2.50492e-06
-8.32548e-06
4.26962e-06
-5.95627e-06
5.49607e-06
-3.90995e-06
6.38843e-06
-2.19546e-06
7.14956e-06
-8.01063e-07
7.96739e-06
2.57472e-07
9.07786e-06
9.20559e-07
1.05637e-05
7.69359e-07
4.65137e-09
9.28268e-12
3.89829e-14
1.84262e-17
3.28688e-19
4.41282e-22
3.29312e-24
4.82556e-27
4.68784e-29
5.66442e-32
1.06106e-33
5.30458e-37
-1.39289e-05
2.93298e-06
-1.07874e-05
4.96681e-06
-7.99413e-06
6.30748e-06
-5.57914e-06
7.16526e-06
-3.55564e-06
7.74861e-06
-1.89899e-06
8.24748e-06
-6.69014e-07
8.89388e-06
2.42421e-07
9.75599e-06
4.19278e-07
3.87148e-09
4.17763e-12
3.14485e-14
-1.13912e-17
2.23234e-19
1.32638e-22
1.67626e-24
1.37016e-27
1.57152e-29
1.27721e-32
2.30542e-34
8.40005e-38
-1.73689e-05
3.43999e-06
-1.36722e-05
5.81775e-06
-1.0369e-05
7.34164e-06
-7.50104e-06
8.22938e-06
-5.08856e-06
8.69818e-06
-3.09482e-06
8.94444e-06
-1.6299e-06
9.20837e-06
-4.13688e-07
9.54999e-06
1.12195e-07
3.50566e-09
1.69796e-12
2.82968e-14
-2.04902e-17
1.86205e-19
1.78579e-23
1.12253e-24
3.88818e-28
7.57379e-30
3.47891e-33
6.97366e-35
1.71552e-38
-2.13966e-05
4.02762e-06
-1.70589e-05
6.82676e-06
-1.31568e-05
8.60557e-06
-9.74659e-06
9.5872e-06
-6.85936e-06
1.00002e-05
-4.44734e-06
1.00507e-05
-2.67976e-06
9.9943e-06
-1.09487e-06
9.88955e-06
-1.84678e-07
3.42193e-09
2.52995e-13
2.7141e-14
-1.76897e-17
1.74626e-19
-2.70702e-23
9.49587e-25
3.17118e-29
4.9469e-30
1.01786e-33
3.17137e-35
4.42463e-39
-2.60951e-05
4.69847e-06
-2.10291e-05
7.99773e-06
-1.64368e-05
1.01068e-05
-1.23906e-05
1.12496e-05
-8.93654e-06
1.16644e-05
-6.0169e-06
1.15697e-05
-3.87219e-06
1.12431e-05
-1.8458e-06
1.07452e-05
-4.96515e-07
3.58793e-09
-1.08601e-12
2.6887e-14
-7.56162e-18
1.7303e-19
-3.57318e-23
9.09883e-25
-1.10902e-28
4.18013e-30
1.58719e-34
2.00588e-35
1.30891e-39
-3.15469e-05
5.45181e-06
-2.56667e-05
9.33611e-06
-2.0291e-05
1.1852e-05
-1.55118e-05
1.3228e-05
-1.13933e-05
1.37063e-05
-7.86827e-06
1.35158e-05
-5.26328e-06
1.29608e-05
-2.70988e-06
1.21072e-05
-8.50829e-07
4.02744e-09
-3.06265e-12
2.73803e-14
4.8467e-18
1.7291e-19
-2.22931e-23
9.19757e-25
-1.34476e-28
4.02817e-30
-1.80844e-34
1.67732e-35
2.54646e-40
-3.78342e-05
6.28731e-06
-3.10554e-05
1.08405e-05
-2.48046e-05
1.38496e-05
-1.91925e-05
1.55326e-05
-1.43075e-05
1.61422e-05
-1.00716e-05
1.59097e-05
-6.91446e-06
1.51669e-05
-3.73357e-06
1.39845e-05
-1.27115e-06
4.85533e-09
-6.71689e-12
2.88806e-14
1.3063e-17
1.73708e-19
-4.23828e-24
9.24822e-25
-7.63211e-29
4.10918e-30
-2.62146e-34
1.61236e-35
-1.62553e-40
-4.5031e-05
7.19681e-06
-3.72784e-05
1.25103e-05
-3.00624e-05
1.60983e-05
-2.35189e-05
1.8176e-05
-1.77617e-05
1.89869e-05
-1.27026e-05
1.87732e-05
-8.89265e-06
1.78878e-05
-4.97369e-06
1.64071e-05
-1.77907e-06
6.31198e-09
-1.38343e-11
3.24392e-14
1.18036e-17
1.77507e-19
9.66476e-26
9.23441e-25
1.93952e-30
4.14667e-30
-1.74285e-34
1.65062e-35
-2.79654e-40
-5.32032e-05
8.17227e-06
-4.44114e-05
1.43298e-05
-3.61503e-05
1.85982e-05
-2.85786e-05
2.1158e-05
-2.18438e-05
2.22581e-05
-1.58431e-05
2.21273e-05
-1.1271e-05
2.11515e-05
-6.4926e-06
1.94068e-05
-2.4002e-06
8.92855e-09
-2.8698e-11
4.02683e-14
-3.98849e-18
1.92559e-19
-2.41229e-23
9.27805e-25
3.45134e-29
4.13571e-30
-4.52445e-35
1.6691e-35
-1.98001e-40
-6.24043e-05
9.2011e-06
-5.25227e-05
1.62836e-05
-4.31475e-05
2.13271e-05
-3.4461e-05
2.44806e-05
-2.66444e-05
2.59586e-05
-1.95815e-05
2.59965e-05
-1.41295e-05
2.49858e-05
-8.36068e-06
2.30196e-05
-3.16648e-06
1.37036e-08
-6.15838e-11
5.6899e-14
-4.42114e-17
2.33564e-19
-9.48494e-23
9.90442e-25
-3.57698e-29
4.13683e-30
-2.13704e-35
1.66677e-35
-6.81869e-41
1.0264e-05
-7.26683e-05
-6.16687e-05
1.8347e-05
-5.11274e-05
2.42635e-05
-4.12511e-05
2.81172e-05
-3.22584e-05
3.00947e-05
-2.40116e-05
3.03887e-05
-1.75561e-05
2.94231e-05
-1.06592e-05
2.72844e-05
-4.1133e-06
2.23009e-08
-1.35656e-10
9.18285e-14
-1.3918e-16
3.32188e-19
-2.56798e-22
1.1943e-24
-2.53238e-28
4.40669e-30
-2.0975e-34
1.66875e-35
-6.12043e-41
2.04826e-05
-7.18873e-05
2.82202e-05
-0.000100889
-6.01522e-05
2.73718e-05
-4.90301e-05
3.20425e-05
-3.87788e-05
3.46377e-05
-2.92339e-05
3.53169e-05
-2.16458e-05
3.44784e-05
-1.34811e-05
3.22451e-05
-5.28265e-06
3.76606e-08
-3.07869e-10
1.66169e-13
-3.80548e-16
5.61535e-19
-6.47399e-22
1.72653e-24
-7.61653e-28
5.35731e-30
-7.45433e-34
1.7877e-35
-3.00894e-40
3.05966e-05
-7.02662e-05
5.63843e-05
-0.000100051
3.26506e-05
-0.000133539
-5.787e-05
3.62118e-05
-4.62974e-05
3.9561e-05
-3.53506e-05
4.07544e-05
-2.65019e-05
4.01731e-05
-1.6931e-05
3.79282e-05
-6.72444e-06
6.47685e-08
-7.17407e-10
3.27161e-13
-1.0004e-15
1.10984e-18
-1.70059e-21
3.06144e-24
-2.04358e-27
7.9433e-30
-1.99779e-33
2.20781e-35
-9.50171e-40
4.05509e-05
-6.78243e-05
8.43841e-05
-9.8266e-05
6.53839e-05
-0.000132785
3.54116e-05
-0.000168951
-5.48987e-05
4.48132e-05
-4.24675e-05
4.66779e-05
-3.2233e-05
4.64854e-05
-2.11274e-05
4.43695e-05
-8.49734e-06
1.11848e-07
-1.69618e-09
9.13833e-13
-2.67797e-15
2.47707e-18
-4.76142e-21
6.57155e-24
-5.74738e-27
1.48132e-29
-5.28183e-33
3.37833e-35
-2.51367e-39
5.03113e-05
-6.46591e-05
0.000112129
-9.55691e-05
9.81808e-05
-0.000131063
7.11865e-05
-0.00016856
3.5705e-05
-0.000204656
-5.06895e-05
5.30352e-05
-3.89534e-05
5.33982e-05
-2.62003e-05
5.15582e-05
-1.06714e-05
1.92203e-07
-4.02686e-09
2.83022e-12
-8.41108e-15
6.47265e-18
-1.38643e-20
1.64601e-23
-1.77254e-26
3.44415e-29
-1.53625e-32
6.6434e-35
-6.84602e-39
5.97431e-05
-6.01213e-05
0.000139581
-9.21109e-05
0.000131048
-0.000128437
0.000107335
-0.000167211
7.27026e-05
-0.000205557
3.15365e-05
-0.000236192
-4.678e-05
6.08618e-05
-3.22919e-05
5.94899e-05
-1.33305e-05
3.2664e-07
-9.52866e-09
8.86982e-12
-3.02559e-14
2.11813e-17
-4.45813e-20
4.66552e-23
-5.87801e-26
9.61543e-29
-5.09887e-32
1.67231e-34
-2.11527e-38
6.88261e-05
-5.5863e-05
0.000166409
-8.69493e-05
0.000164076
-0.000125139
0.000143957
-0.000165059
0.000110345
-0.000204854
6.93358e-05
-0.000243356
1.88577e-05
-0.00025505
-3.95711e-05
6.8141e-05
-1.65708e-05
5.46287e-07
-2.2227e-08
2.76032e-11
-1.13458e-13
7.69578e-17
-1.66505e-19
1.57619e-22
-2.0879e-25
3.07619e-28
-1.89868e-31
5.18731e-34
-7.63215e-38
7.76068e-05
-4.83518e-05
0.000192553
-8.20072e-05
0.000197008
-0.000119882
0.000181282
-0.000162464
0.000148822
-0.000203535
0.000107169
-0.000242688
6.10271e-05
-0.000285526
-1.18605e-05
-0.000243189
-2.04814e-05
8.95991e-07
-5.05208e-08
8.37035e-11
-4.18186e-13
2.87959e-16
-6.96534e-19
6.26042e-22
-8.29425e-25
1.12349e-27
-7.66568e-31
1.8838e-33
-3.17366e-37
1.49244e-06
-2.49701e-05
0.000218243
-7.4042e-05
0.000229778
-0.000114777
0.000219164
-0.000157764
0.000188357
-0.000201999
0.000146038
-0.000242404
9.89586e-05
-0.000280619
3.66237e-05
-0.00033401
-0.000106978
-0.000136212
-1.13153e-07
2.47035e-10
-1.48072e-12
1.06295e-15
-2.99174e-18
2.70842e-21
-3.7737e-24
4.79285e-27
-3.35491e-30
7.71481e-33
-1.46045e-36
7.38749e-10
-1.90601e-07
6.83772e-06
-4.01323e-05
0.000263154
-0.000107418
0.000257679
-0.000153292
0.000228852
-0.000198259
0.00018563
-0.000241591
0.000138409
-0.000281854
8.42037e-05
-0.000328199
-2.24846e-05
-0.000418503
7.44706e-05
-0.000210682
-5.16948e-12
3.83755e-15
-1.24451e-17
1.18419e-20
-1.84026e-23
2.31704e-26
-1.6602e-29
3.59123e-32
-7.20971e-36
1.38397e-14
-1.98117e-12
7.42336e-09
-1.06969e-06
1.63944e-05
-6.25959e-05
0.000298047
-0.000147786
0.000270587
-0.000195026
0.000225728
-0.000238357
0.000176865
-0.000280046
0.000130605
-0.000328255
6.80127e-05
-0.000418696
0.00010375
-0.000447782
0.000229234
-0.000439916
-4.82227e-17
5.09774e-20
-8.96383e-23
1.17157e-25
-9.00209e-29
1.90862e-31
-3.93147e-35
2.16943e-19
8.12177e-17
1.80654e-13
-1.86772e-10
5.09816e-08
-3.86859e-06
3.25456e-05
-9.33418e-05
0.00031495
-0.00019215
0.000266641
-0.000235939
0.000213821
-0.000275314
0.000169767
-0.000319208
0.00013702
-0.000397262
0.00016667
-0.000481616
0.000280911
-0.000499459
0.00120548
-0.000236913
-0.00140848
-4.01201e-22
5.9407e-25
-5.03993e-28
1.09096e-30
-2.34537e-34
2.98407e-24
1.46379e-21
3.64809e-18
-2.18487e-15
4.89336e-12
-2.21095e-09
2.43045e-07
-1.05174e-05
5.41616e-05
-0.00013268
0.00031039
-0.0002359
0.000248998
-0.000271115
0.000202345
-0.000307892
0.00018011
-0.000362298
0.000223946
-0.000454538
0.000349714
-0.000550418
0.00101665
-0.000310636
0.00111972
-0.000127201
-0.00122943
-9.4407e-05
-0.00131407
-2.58658e-27
6.40105e-30
-1.47898e-33
3.76061e-29
1.83146e-26
6.4823e-23
-2.58617e-20
9.80933e-17
-5.43279e-14
7.70747e-11
-1.95458e-08
8.27238e-07
-2.22743e-05
7.59356e-05
-0.000177148
0.000286431
-0.000273333
0.000227056
-0.000295827
0.000204359
-0.000332141
0.000243169
-0.000381521
0.000365641
-0.000470464
0.000789555
-0.000323321
0.00096406
-0.000154974
0.0010943
-2.48438e-05
-0.00119666
-8.26979e-05
-0.00124114
-6.79585e-05
-0.00124611
-8.60232e-33
1.06436e-31
1.0447e-27
-2.72659e-25
1.85902e-21
-6.7407e-19
2.00969e-15
-8.26383e-13
7.452e-10
-1.23867e-07
2.0553e-06
-3.87432e-05
9.09228e-05
-0.000219185
0.000249925
-0.000296202
0.000212965
-0.000304433
0.000238586
-0.000327558
0.000341692
-0.000357572
0.000594022
-0.00027493
0.000775232
-0.000134493
0.000947478
-8.1512e-06
0.00113939
6.88815e-05
-0.00123312
-4.25699e-05
-0.00123679
-7.74532e-05
-0.00123165
-5.56311e-05
-0.00119048
-1.54974e-30
3.45367e-26
-8.32764e-24
4.72481e-20
-7.4585e-18
2.44007e-14
-5.87371e-12
4.33056e-09
-5.13303e-07
3.71568e-06
-5.73094e-05
9.52882e-05
-0.000250522
0.000214814
-0.000298051
0.00022039
-0.000286237
0.000294098
-0.000279963
0.00044827
-0.00021182
0.00059706
-9.67563e-05
0.000796885
1.61004e-05
0.00101152
0.000119722
0.00120121
0.000176983
-0.00130931
1.48727e-05
-0.00129056
-7.22102e-05
-0.00124203
-9.54852e-05
-0.0011918
-6.2116e-05
-0.00112837
-5.54203e-29
1.03578e-24
-1.22749e-22
6.88361e-19
2.42871e-17
3.52089e-13
-1.70588e-11
1.39927e-08
-1.36279e-06
4.94817e-06
-7.34436e-05
9.03848e-05
-0.000262078
0.000193519
-0.00027118
0.000239343
-0.000231483
0.000330859
-0.000162552
0.000451104
-6.58635e-05
0.000652292
4.78381e-05
0.000850549
0.000177071
0.00104731
0.00027362
0.00131766
0.00027276
-0.00141344
6.66336e-05
-0.00136107
-6.35956e-05
-0.00129918
-0.000120207
-0.00121731
-0.000113486
-0.00114042
-6.6243e-05
-0.00106212
-1.10431e-27
1.82842e-23
3.97505e-22
8.40606e-18
2.49984e-15
2.24955e-12
-1.93288e-11
2.43946e-08
-2.48062e-06
4.96723e-06
-8.3562e-05
8.62475e-05
-0.000242831
0.000177677
-0.000209514
0.000233136
-0.00013376
0.000331059
-4.25071e-05
0.000511021
7.54074e-05
0.00067477
0.000223618
0.00087563
0.000348749
0.00117154
0.000419742
0.00136147
5.45231e-05
-0.00145608
5.42873e-05
0.000124122
0.000134437
0.000117162
-0.00146397
-3.88897e-05
-0.00138577
-0.000149833
-0.00126955
-0.000164703
-0.00116609
-0.000131184
-0.00107548
-7.9139e-05
-0.000982982
7.27872e-28
2.05048e-22
3.94342e-20
5.75373e-17
3.89251e-14
5.25248e-12
1.31009e-10
2.05261e-08
-3.35301e-06
3.73869e-06
-8.4122e-05
7.3528e-05
-0.000193381
0.000146193
-0.000122571
0.000226649
-2.93499e-05
0.000373299
9.52156e-05
0.000502544
0.000247633
0.000710041
0.000389208
0.00098465
0.000535637
0.00121168
0.000569537
-3.50099e-06
0.000154201
-0.000155062
5.88851e-05
1.79768e-05
-0.0013941
8.98739e-06
1.83055e-05
9.9066e-06
0.000153269
-0.00013925
3.67661e-05
-1.69711e-06
0.000169212
0.000110807
0.00017496
0.000111049
-4.8566e-05
-0.00145429
-0.000173954
-0.00136165
-0.000223624
-0.00121063
-0.000193665
-0.00110361
-0.000157194
-0.000997428
-8.85956e-05
-0.000894382
2.79975e-25
1.4018e-21
6.41161e-19
1.32515e-16
1.68042e-13
3.46576e-12
5.77878e-10
-8.40933e-10
-3.02245e-06
1.08406e-06
-6.95072e-05
4.85722e-05
-0.000125517
0.000132217
-2.81395e-05
0.000243674
0.000100275
0.000345946
0.000251814
0.000547223
0.000410451
0.00075198
0.000621878
0.00103024
0.000717076
-0.000144652
-0.000138438
0.000772327
8.11846e-05
8.13991e-05
0.000127816
0.000134073
-8.00665e-06
-0.000169708
4.06293e-05
8.53177e-06
7.89832e-05
-5.0545e-05
2.1915e-05
-0.0013243
-0.000118367
-0.000153897
1.56273e-05
-8.21529e-06
-0.000173671
3.04834e-05
-0.000166312
1.41061e-05
4.23642e-05
1.53897e-05
-1.24559e-05
8.65106e-06
3.64874e-05
2.36266e-05
-0.000189859
-0.00143838
-0.000289833
-0.00129544
-0.00025364
-0.00115065
-0.00023443
-0.00102637
-0.000180127
-0.000905896
-9.79216e-05
-0.000796463
4.62261e-24
3.1708e-21
2.63625e-18
6.70999e-17
2.56262e-13
-2.569e-13
1.13e-09
-4.50821e-09
-1.77848e-06
-7.34419e-07
-4.49428e-05
3.28465e-05
-4.78629e-05
0.000125257
9.02772e-05
0.000207924
0.000238296
0.000383917
0.000415121
0.000507024
0.000655407
0.00081784
0.000834275
0.000814962
0.000143265
0.000144933
0.000192754
0.00019349
7.82413e-06
-4.8881e-05
0.00011562
6.62147e-06
-5.13777e-05
0.0001297
1.09015e-05
2.31146e-06
-4.8445e-06
8.14684e-05
-4.62657e-06
8.96334e-05
9.09148e-07
-2.00881e-05
9.26302e-06
1.43268e-05
-0.000197169
0.000245597
1.97861e-05
-4.46585e-05
2.5961e-05
-4.19284e-05
-0.00127049
-0.000243663
5.70634e-07
-5.2714e-05
-0.000235095
-2.82239e-05
-3.79474e-05
-5.04379e-05
-5.45019e-05
4.65835e-05
-1.46576e-05
-6.43387e-06
1.73997e-05
1.54155e-06
-0.000219487
0.000262776
1.86853e-05
-4.2945e-05
2.37186e-05
-4.08768e-05
1.4623e-05
1.49739e-05
-3.32721e-05
-3.85174e-06
-3.75338e-05
1.59064e-05
-2.93451e-05
-2.6872e-06
-3.54112e-05
-0.000367644
-0.00136057
-0.000331791
-0.00121729
-0.000309928
-0.00107515
-0.000276828
-0.000929671
-0.000198482
-0.000805335
-0.000104135
-0.000692329
1.85631e-23
1.31963e-21
3.49155e-18
-5.65793e-18
1.61507e-13
-4.23478e-13
1.01443e-09
-3.98135e-09
-5.33509e-07
-1.39226e-06
-1.41573e-05
1.61639e-05
4.43928e-05
8.48609e-05
0.000213341
0.000215325
0.000406888
0.000285998
0.000636147
0.000570458
0.00090279
0.000722139
0.000220659
0.000219062
0.000245257
0.000242121
2.09552e-06
4.20999e-05
9.42249e-05
4.22444e-05
0.000100158
-2.3294e-08
8.12704e-05
0.000153607
8.06407e-05
0.00015507
1.87869e-06
-0.000293082
6.10193e-05
0.000120296
-5.23113e-05
5.97326e-05
7.49214e-06
-4.66307e-05
1.93035e-05
0.000128947
-0.000287161
5.8701e-05
0.000117948
5.75256e-05
-5.01493e-05
1.02862e-05
-4.4252e-05
2.10861e-05
0.000128796
1.13074e-06
-0.000236438
-2.32935e-05
3.92796e-05
-2.90329e-05
3.67785e-05
-0.000229748
-2.04441e-05
4.13021e-05
-2.67096e-05
3.92037e-05
1.01167e-05
0.000294181
2.8306e-05
-5.43061e-05
2.3819e-05
-4.72566e-05
0.000105776
1.66379e-05
2.15782e-06
-0.000111341
6.55533e-06
-1.93518e-05
-8.78447e-05
9.51488e-05
-3.26107e-05
1.9872e-06
0.000101892
8.50536e-06
-8.17295e-05
-3.14057e-05
-0.00123184
-0.000406301
-0.000305167
-3.33592e-05
-5.22783e-05
-3.56676e-05
-5.22875e-05
2.06623e-06
-0.000296344
0.000309956
-4.39018e-05
-0.000304398
0.000319712
-5.1195e-05
2.60803e-06
-0.000314634
-3.47565e-05
-0.000324073
-3.22188e-05
0.000307519
2.64375e-05
-5.1132e-05
2.19225e-05
-4.65126e-05
6.55096e-06
3.10876e-05
-3.4555e-05
3.73457e-05
-4.34828e-05
2.98247e-05
-3.14762e-05
3.59744e-05
-4.27841e-05
0.000106453
1.79184e-05
-0.000110701
7.17362e-06
-1.98649e-05
-8.67534e-05
9.5034e-05
-3.13607e-05
0.000103889
8.4048e-06
-8.03549e-05
-2.93569e-05
-0.00010808
1.13006e-05
1.54608e-06
-1.13296e-06
-1.89503e-05
7.45251e-05
-2.78275e-05
1.07559e-06
-1.16599e-05
-3.34375e-05
-0.000106488
1.258e-05
6.59335e-07
-1.90426e-05
7.27303e-05
-2.43317e-05
-9.19433e-06
-3.04558e-05
-0.000432628
-0.00125974
-0.000386379
-0.00114084
-0.000383299
-0.000968681
-0.000305388
-0.000822765
-0.000210421
-0.00069905
-0.000109363
-0.000582966
2.50438e-23
-1.08726e-22
1.56973e-18
-6.72684e-18
7.3867e-14
-2.36525e-13
6.92897e-10
-3.04994e-09
5.09045e-07
-1.67803e-06
1.94553e-05
-1.09168e-05
0.00013515
5.57163e-05
0.000372949
0.00011803
0.000574856
0.000290238
0.000916367
0.0005614
0.000260978
0.000259359
0.000270945
0.000272248
-4.18927e-07
0.000102688
0.000199661
0.000103038
0.000196246
4.2408e-09
0.000113824
0.000234116
0.000114096
0.000231067
1.03883e-06
-0.000179999
-2.0344e-05
3.99505e-05
-2.26351e-05
3.98034e-05
-0.000175612
-1.7435e-05
4.18069e-05
-1.89779e-05
4.16745e-05
1.32048e-06
-9.58372e-05
-1.42868e-05
4.95226e-05
-1.59835e-05
4.88684e-05
-9.46875e-05
-1.18689e-05
5.00123e-05
-1.33631e-05
5.06709e-05
-1.61509e-05
-8.08063e-05
8.48904e-05
-4.02444e-05
-2.79598e-06
7.67418e-05
-4.20406e-05
-6.58886e-05
5.51551e-07
-1.46467e-05
7.12994e-05
-1.25215e-05
-8.8302e-05
-2.66134e-05
1.35409e-08
-7.19701e-05
1.28372e-05
4.54803e-07
0.00012252
-8.46953e-06
-2.53277e-06
7.45363e-05
-3.88096e-05
-1.54209e-05
-8.08255e-05
8.33779e-05
-3.72807e-05
-6.5375e-05
7.00939e-05
-9.30201e-06
-1.19949e-05
-8.86974e-05
-2.43851e-05
-7.08395e-05
1.45694e-05
0.000123546
-6.02266e-06
-9.5818e-06
8.8618e-05
-8.94536e-05
-1.28759e-05
6.88826e-05
-5.29245e-07
-6.57643e-05
2.71096e-05
-1.12509e-05
-1.74659e-05
-2.75741e-07
2.26911e-05
-8.91213e-06
8.94389e-05
-9.03239e-05
-1.06468e-05
6.76405e-05
-6.47754e-05
2.89958e-05
-1.07065e-05
-1.52614e-05
2.50224e-05
-9.48362e-05
1.7811e-05
1.35765e-06
9.1523e-05
1.24506e-05
-1.85592e-05
9.5739e-05
-3.63371e-05
1.44632e-06
1.08697e-05
0.000100161
-3.38677e-05
0.000121576
1.51354e-05
1.14027e-06
-0.000123692
-7.6038e-06
-1.9438e-05
-8.58475e-05
9.30797e-05
-2.04049e-05
1.25001e-06
0.000117494
-8.08632e-06
-7.92008e-05
-2.2917e-05
-0.00114501
-0.000519456
-0.000386184
-9.03555e-05
-0.000103617
-5.66615e-05
-7.46518e-05
2.31981e-06
-0.000310912
0.000305205
-2.99724e-05
-0.000323534
0.000317401
-4.38259e-05
2.73319e-06
-3.93576e-05
-5.33768e-05
3.5056e-06
-0.000345117
0.000367375
-5.17059e-05
1.53064e-05
-4.76007e-05
1.43614e-05
-0.000357119
0.00037917
-5.12248e-05
1.45357e-05
-4.72391e-05
1.41885e-05
3.12573e-06
-0.000126065
-5.69942e-05
-6.72141e-06
-0.000130697
2.16326e-05
-3.43645e-05
1.89807e-05
-6.87589e-05
-0.00012899
-6.04282e-05
-3.80214e-06
-0.000133668
2.42274e-05
-3.24989e-05
2.0668e-05
-7.17204e-05
-9.78182e-05
1.92525e-05
9.44215e-05
1.19394e-05
-1.90451e-05
9.64193e-05
-3.34723e-05
1.03943e-05
0.000101098
-3.19392e-05
8.08201e-05
2.29289e-05
9.02534e-07
1.7959e-05
-3.51217e-05
-0.000105962
-1.95361e-05
3.87902e-07
2.56746e-05
-2.63551e-05
8.41275e-05
2.36291e-05
1.73922e-05
-3.48855e-05
-0.000107656
-1.79251e-05
2.51761e-05
-2.57125e-05
0.000123732
1.54527e-05
-0.000125417
-5.45464e-06
-1.95573e-05
-8.58401e-05
9.3605e-05
-1.95683e-05
0.000119886
-6.05619e-06
-7.76933e-05
-2.20509e-05
5.13102e-06
8.67897e-07
-8.31992e-06
-3.07654e-05
5.44965e-06
-5.79266e-06
-2.81631e-05
-0.00046913
-0.00117699
-0.000503743
-0.0010204
-0.000426014
-0.000848058
-0.000321165
-0.000712021
-0.000220506
-0.000587907
-0.000113102
-0.000469863
8.93404e-24
-1.01773e-22
5.77053e-19
-3.1502e-18
3.05656e-14
-1.18408e-13
3.61515e-10
-1.65056e-09
9.00183e-07
-1.57775e-06
4.32528e-05
-3.29601e-05
0.000236381
-1.45515e-05
0.000506453
3.89745e-05
0.000826119
0.000351857
0.000268991
0.000268532
0.000294058
0.000294329
1.69319e-07
0.00010558
0.000269053
0.000106352
0.000267272
-1.41936e-07
9.10201e-05
0.000285647
9.18948e-05
0.000286564
1.28565e-06
-3.31734e-05
-8.45253e-07
6.33486e-05
1.02473e-05
6.29327e-05
-3.6081e-05
1.08543e-06
6.31783e-05
1.18022e-05
6.28658e-05
1.32873e-06
1.2073e-05
3.08695e-05
6.57091e-05
2.1349e-05
6.96356e-05
7.20544e-06
3.18353e-05
6.4693e-05
2.30175e-05
6.95842e-05
-8.26593e-06
-8.9944e-05
-1.15874e-05
-6.33114e-05
-7.49523e-07
2.99692e-05
-6.95237e-06
-9.09441e-05
-1.46864e-05
-1.11386e-06
-6.09861e-05
3.1612e-05
-7.48438e-06
-9.07932e-05
-9.48125e-06
-6.2793e-05
3.15906e-05
-6.03733e-06
-9.111e-05
-1.26236e-05
-6.15056e-05
3.32439e-05
-4.92163e-06
8.08657e-05
-6.95028e-05
-2.07248e-05
5.08702e-05
-5.10299e-07
-4.33334e-05
3.75583e-05
-5.69465e-06
-2.0363e-05
-8.56016e-07
3.39288e-05
-4.09817e-06
8.10305e-05
-7.00351e-05
-1.8766e-05
5.21902e-05
-4.47617e-05
3.79686e-05
-4.98932e-06
-1.84531e-05
3.55023e-05
-1.35707e-05
6.57855e-05
-4.8991e-06
-2.90331e-05
-2.50226e-05
5.28407e-08
4.5967e-07
5.91637e-05
-8.0745e-06
-4.3522e-05
1.91361e-07
-3.36435e-05
-1.34172e-05
6.49999e-05
-4.81681e-06
-2.87193e-05
5.8341e-05
-2.51001e-05
-7.80408e-06
-4.30072e-05
-3.35667e-05
-7.94873e-06
4.70987e-05
-4.9788e-05
3.54542e-05
-1.15274e-08
-3.67865e-05
-8.8388e-06
5.24385e-08
-7.68518e-06
4.67318e-05
-4.95697e-05
3.51439e-05
-3.63913e-05
-8.65676e-06
-0.000115739
2.25583e-05
1.23119e-06
0.000112576
-8.18642e-06
-2.09831e-05
9.73228e-05
-1.95971e-05
1.199e-06
-9.57002e-06
0.00010255
-1.65372e-05
5.05343e-05
7.97392e-06
5.96977e-07
-5.10782e-05
-7.56689e-06
-5.46637e-05
5.30851e-05
6.53569e-07
5.05408e-05
-5.66956e-05
-0.00108304
-0.000531103
-0.000435449
-0.000130492
-0.000123365
-0.000110498
-0.000105838
1.66784e-06
-0.000291323
0.000277697
-7.83972e-05
-0.000302871
0.000282169
-8.12476e-05
2.39916e-06
-4.51789e-05
-5.77226e-05
5.03064e-06
-0.000377726
0.000364912
-4.58054e-05
3.75406e-05
-4.54832e-05
3.15788e-05
-0.000386139
0.000367384
-4.41117e-05
3.70077e-05
-4.39532e-05
3.10009e-05
4.22638e-06
-5.09628e-05
1.80661e-05
-4.65363e-05
2.5525e-05
-5.07687e-05
1.64455e-05
-4.57432e-05
2.39545e-05
-2.49893e-05
-0.000101065
0.000102311
-2.79627e-05
-9.1105e-05
-2.51702e-07
9.56666e-05
-1.40329e-05
-2.28855e-05
-9.98413e-05
-2.59388e-05
6.31543e-08
-8.93602e-05
-1.03321e-05
-2.48455e-05
-0.000102715
0.000104033
-2.76967e-05
-9.31262e-05
9.79924e-05
-1.54278e-05
-2.29681e-05
-0.000101172
-2.58146e-05
-9.11065e-05
-1.07362e-05
-1.6274e-05
9.87574e-05
-9.80899e-05
8.88502e-06
-4.07474e-05
-0.000111607
2.12113e-06
8.88796e-05
-1.00605e-07
1.16464e-05
-9.50959e-05
-2.01047e-05
-1.53438e-05
2.11986e-07
-1.81649e-06
1.16853e-06
-0.000100633
1.56477e-05
-1.59345e-05
9.97551e-05
-9.82877e-05
1.06649e-05
-4.09668e-05
-0.000113768
3.14146e-06
9.03048e-05
1.40269e-05
-9.61395e-05
-1.99189e-05