/*--------------------------------*- C++ -*----------------------------------*\
| =========                 |                                                 |
| \\      /  F ield         | OpenFOAM: The Open Source CFD Toolbox           |
|  \\    /   O peration     | Version:  5.x                                   |
|   \\  /    A nd           | Web:      www.OpenFOAM.org                      |
|    \\/     M anipulation  |                                                 |
\*---------------------------------------------------------------------------*/
FoamFile
{
    version     2.0;
    format      ascii;
    class       volScalarField;
    location    "0.6";
    object      k;
}
// * * * * * * * * * * * * * * * * * * * * * * * * * * * * * * * * * * * * * //

dimensions      [0 2 -2 0 0 0 0];

internalField   nonuniform List<scalar> 
12160
(
9.97275e-09
9.9637e-09
1.00187e-08
9.96161e-09
1.00279e-08
1.00057e-08
9.96125e-09
1.00301e-08
1.00084e-08
1.00046e-08
9.9612e-09
1.00244e-08
1.00095e-08
1.00063e-08
1.00045e-08
9.9612e-09
1.00201e-08
1.00083e-08
1.00067e-08
1.00059e-08
1.00049e-08
9.9612e-09
1.00158e-08
1.00075e-08
1.00062e-08
1.00062e-08
1.00063e-08
1.00051e-08
9.9612e-09
1.00129e-08
1.00066e-08
1.00059e-08
1.0006e-08
1.00064e-08
1.00067e-08
1.00056e-08
9.9612e-09
1.00107e-08
1.0006e-08
1.00056e-08
1.00057e-08
1.0006e-08
1.00066e-08
1.0007e-08
1.00146e-08
9.9612e-09
1.00091e-08
1.00056e-08
1.00054e-08
1.00055e-08
1.00058e-08
1.00062e-08
1.00065e-08
1.0011e-08
1.00159e-08
9.9612e-09
1.00079e-08
1.00054e-08
1.00052e-08
1.00053e-08
1.00055e-08
1.00058e-08
1.00062e-08
1.00092e-08
1.00129e-08
1.00106e-08
9.9612e-09
1.00071e-08
1.00052e-08
1.00051e-08
1.00052e-08
1.00054e-08
1.00055e-08
1.00059e-08
1.00092e-08
1.00099e-08
1.0014e-08
1.00081e-08
9.9612e-09
1.00065e-08
1.00051e-08
1.00051e-08
1.00051e-08
1.00052e-08
1.00053e-08
1.00058e-08
1.00084e-08
1.00084e-08
1.00134e-08
1.00083e-08
1.00076e-08
9.9612e-09
1.0006e-08
1.0005e-08
1.0005e-08
1.0005e-08
1.00051e-08
1.00052e-08
1.00058e-08
1.00077e-08
1.00077e-08
1.00137e-08
1.00081e-08
1.00072e-08
1.00065e-08
9.9612e-09
1.00057e-08
1.0005e-08
1.0005e-08
1.0005e-08
1.00051e-08
1.00051e-08
1.00058e-08
1.00069e-08
1.00073e-08
1.00119e-08
1.00099e-08
1.00067e-08
1.00066e-08
1.00046e-08
9.9612e-09
1.00055e-08
1.00049e-08
1.00049e-08
1.0005e-08
1.0005e-08
1.0005e-08
1.00059e-08
1.00064e-08
1.00069e-08
1.00099e-08
1.00088e-08
1.00066e-08
1.00063e-08
1.00049e-08
9.9612e-09
1.00053e-08
1.00049e-08
1.00049e-08
1.00049e-08
1.0005e-08
1.0005e-08
1.00059e-08
1.00059e-08
1.00066e-08
1.00082e-08
1.00077e-08
1.00064e-08
1.00061e-08
1.00052e-08
9.9612e-09
1.0005e-08
1.00049e-08
1.00049e-08
1.00049e-08
1.00049e-08
1.0005e-08
1.0006e-08
1.00056e-08
1.00063e-08
1.0007e-08
1.00066e-08
1.00061e-08
1.00058e-08
1.00056e-08
9.9612e-09
1.00047e-08
1.00047e-08
1.00049e-08
1.00049e-08
1.00049e-08
1.00049e-08
1.0006e-08
1.00054e-08
1.00062e-08
1.00063e-08
1.00059e-08
1.00057e-08
1.00056e-08
1.00055e-08
9.9612e-09
1.00043e-08
1.00044e-08
1.00047e-08
1.00049e-08
1.00049e-08
1.00049e-08
1.0006e-08
1.00053e-08
1.00061e-08
1.00058e-08
1.00055e-08
1.00055e-08
1.00054e-08
1.00054e-08
9.9612e-09
1.00039e-08
1.00041e-08
1.00044e-08
1.00047e-08
1.00049e-08
1.00049e-08
1.00059e-08
1.00052e-08
1.0006e-08
1.00055e-08
1.00053e-08
1.00053e-08
1.00053e-08
1.00053e-08
9.9612e-09
1.00037e-08
1.00038e-08
1.00041e-08
1.00044e-08
1.00047e-08
1.00049e-08
1.00059e-08
1.00051e-08
1.0006e-08
1.00053e-08
1.00052e-08
1.00052e-08
1.00052e-08
1.00052e-08
9.9612e-09
1.00034e-08
1.00035e-08
1.00038e-08
1.00041e-08
1.00044e-08
1.00048e-08
1.00058e-08
1.00051e-08
1.00059e-08
1.00052e-08
1.00051e-08
1.00051e-08
1.00052e-08
1.00052e-08
9.9612e-09
1.00032e-08
1.00032e-08
1.00035e-08
1.00037e-08
1.00041e-08
1.00045e-08
1.00057e-08
1.00051e-08
1.00058e-08
1.00051e-08
1.0005e-08
1.0005e-08
1.00051e-08
1.00051e-08
9.9612e-09
1.0003e-08
1.0003e-08
1.00032e-08
1.00034e-08
1.00038e-08
1.00041e-08
1.00056e-08
1.0005e-08
1.00057e-08
1.00049e-08
1.00049e-08
1.0005e-08
1.0005e-08
1.0005e-08
9.9612e-09
1.0003e-08
1.00029e-08
1.0003e-08
1.00031e-08
1.00035e-08
1.00038e-08
1.00055e-08
1.0005e-08
1.00055e-08
1.00048e-08
1.00049e-08
1.00049e-08
1.0005e-08
1.0005e-08
9.9612e-09
1.0003e-08
1.00028e-08
1.00028e-08
1.00028e-08
1.00032e-08
1.00034e-08
1.00054e-08
1.0005e-08
1.00055e-08
1.00048e-08
1.00048e-08
1.00049e-08
1.00049e-08
1.0005e-08
9.9612e-09
1.00031e-08
1.00029e-08
1.00028e-08
1.00026e-08
1.00029e-08
1.0003e-08
1.00053e-08
1.0005e-08
1.00055e-08
1.00048e-08
1.00047e-08
1.00048e-08
1.00049e-08
1.00049e-08
9.9612e-09
1.00033e-08
1.0003e-08
1.00028e-08
1.00025e-08
1.00027e-08
1.00024e-08
1.00051e-08
1.00051e-08
1.00055e-08
1.00049e-08
1.00048e-08
1.00048e-08
1.00048e-08
1.00049e-08
9.9612e-09
1.00035e-08
1.00032e-08
1.0003e-08
1.00026e-08
1.00026e-08
1.00015e-08
1.0005e-08
1.00052e-08
1.00055e-08
1.0005e-08
1.00049e-08
1.00048e-08
1.00048e-08
1.00048e-08
9.9612e-09
1.00037e-08
1.00034e-08
1.00031e-08
1.00028e-08
1.00027e-08
1.00011e-08
1.00049e-08
1.00052e-08
1.00054e-08
1.0005e-08
1.0005e-08
1.00049e-08
1.00049e-08
1.00048e-08
9.9612e-09
1.0004e-08
1.00036e-08
1.00034e-08
1.0003e-08
1.00029e-08
1.00018e-08
1.00047e-08
1.00051e-08
1.00052e-08
1.00049e-08
1.00049e-08
1.00049e-08
1.00049e-08
1.00049e-08
9.9612e-09
1.00042e-08
1.00038e-08
1.00036e-08
1.00033e-08
1.00031e-08
1.00025e-08
1.00045e-08
1.0005e-08
1.00049e-08
1.00046e-08
1.00048e-08
1.00049e-08
1.00049e-08
1.00049e-08
9.9612e-09
1.00044e-08
1.0004e-08
1.00038e-08
1.00035e-08
1.00033e-08
1.00029e-08
1.00043e-08
1.00048e-08
1.00047e-08
1.00042e-08
1.00047e-08
1.00048e-08
1.00048e-08
1.00042e-08
9.9612e-09
1.00046e-08
1.00041e-08
1.0004e-08
1.00037e-08
1.00036e-08
1.00033e-08
1.00045e-08
1.00047e-08
1.00045e-08
1.00039e-08
1.00045e-08
1.00045e-08
1.00046e-08
1.0003e-08
9.9612e-09
1.00049e-08
1.00043e-08
1.00041e-08
1.00039e-08
1.00038e-08
1.00035e-08
1.00048e-08
1.00047e-08
1.00045e-08
1.00037e-08
1.00043e-08
1.0004e-08
1.00043e-08
1.00036e-08
9.96121e-09
1.00051e-08
1.00044e-08
1.00043e-08
1.00041e-08
1.0004e-08
1.00038e-08
1.00049e-08
1.00048e-08
1.00047e-08
1.00038e-08
1.00041e-08
1.00035e-08
1.00038e-08
1.00033e-08
9.9612e-09
1.00053e-08
1.00046e-08
1.00044e-08
1.00043e-08
1.00042e-08
1.0004e-08
1.00051e-08
1.00049e-08
1.00049e-08
1.0004e-08
1.00042e-08
1.00032e-08
1.0003e-08
1.00027e-08
9.9612e-09
1.00055e-08
1.00046e-08
1.00045e-08
1.00044e-08
1.00043e-08
1.00042e-08
1.00052e-08
1.0005e-08
1.00052e-08
1.00043e-08
1.00042e-08
1.00035e-08
1.00028e-08
1.00018e-08
9.9612e-09
1.00058e-08
1.00047e-08
1.00046e-08
1.00045e-08
1.00044e-08
1.00043e-08
1.00053e-08
1.0005e-08
1.00054e-08
1.00046e-08
1.00044e-08
1.00039e-08
1.00031e-08
1.00016e-08
1.00061e-08
9.9612e-09
1.00048e-08
1.00047e-08
1.00046e-08
1.00046e-08
1.00045e-08
1.00054e-08
1.0005e-08
1.00055e-08
1.00048e-08
1.00046e-08
1.00043e-08
1.00036e-08
1.00017e-08
1.00049e-08
1.00066e-08
9.9612e-09
1.00048e-08
1.00047e-08
1.00046e-08
1.00046e-08
1.00054e-08
1.0005e-08
1.00055e-08
1.0005e-08
1.00048e-08
1.00045e-08
1.00041e-08
1.00018e-08
1.00048e-08
1.0005e-08
1.00078e-08
9.9612e-09
1.00048e-08
1.00047e-08
1.00046e-08
1.00055e-08
1.00048e-08
1.00053e-08
1.00049e-08
1.00049e-08
1.00048e-08
1.00044e-08
1.00026e-08
1.00048e-08
1.00049e-08
1.00052e-08
1.00094e-08
9.9612e-09
1.00048e-08
1.00047e-08
1.00055e-08
1.00047e-08
1.0005e-08
1.00046e-08
1.00048e-08
1.00048e-08
1.00046e-08
1.0004e-08
1.00048e-08
1.00049e-08
1.0005e-08
1.00055e-08
1.00118e-08
9.9612e-09
1.00048e-08
1.00055e-08
1.00046e-08
1.00047e-08
1.00042e-08
1.00045e-08
1.00047e-08
1.00047e-08
1.00044e-08
1.00048e-08
1.00049e-08
1.0005e-08
1.00051e-08
1.00059e-08
1.00154e-08
9.96127e-09
1.00056e-08
1.00047e-08
1.00046e-08
1.00039e-08
1.00042e-08
1.00044e-08
1.00046e-08
1.00045e-08
1.00056e-08
1.00049e-08
1.0005e-08
1.00051e-08
1.00053e-08
1.00068e-08
1.00217e-08
9.96206e-09
1.00049e-08
1.00049e-08
1.0004e-08
1.0004e-08
1.00042e-08
1.00044e-08
1.00044e-08
1.00051e-08
1.00056e-08
1.0005e-08
1.00051e-08
1.00052e-08
1.00056e-08
1.00085e-08
1.0035e-08
9.96789e-09
1.00054e-08
1.00044e-08
1.00041e-08
1.00041e-08
1.00043e-08
1.00044e-08
1.00059e-08
1.00053e-08
1.00056e-08
1.00051e-08
1.00053e-08
1.00054e-08
1.00061e-08
1.00133e-08
1.00626e-08
9.97512e-09
1.00051e-08
1.00045e-08
1.00043e-08
1.00044e-08
1.00044e-08
1.00057e-08
1.0006e-08
1.00055e-08
1.00055e-08
1.00052e-08
1.00054e-08
1.00057e-08
1.00077e-08
1.00267e-08
1.00957e-08
9.99894e-09
1.00051e-08
1.00047e-08
1.00046e-08
1.00045e-08
1.00055e-08
1.00057e-08
1.00062e-08
1.00058e-08
1.00055e-08
1.00054e-08
1.00056e-08
1.00063e-08
1.0013e-08
1.00547e-08
1.00958e-08
1.00158e-08
1.00052e-08
1.00049e-08
1.00047e-08
1.00055e-08
1.00055e-08
1.00061e-08
1.00064e-08
1.00061e-08
1.00054e-08
1.00056e-08
1.00059e-08
1.00082e-08
1.00271e-08
1.00741e-08
1.00444e-08
1.00069e-08
9.97617e-09
1.00052e-08
1.00049e-08
1.00053e-08
1.00053e-08
1.00057e-08
1.00064e-08
1.00064e-08
1.00063e-08
1.00054e-08
1.00058e-08
1.00066e-08
1.00137e-08
1.00452e-08
1.00543e-08
1.00076e-08
1.00062e-08
1.00067e-08
9.97522e-09
1.00051e-08
1.00052e-08
1.00052e-08
1.00054e-08
1.00058e-08
1.00067e-08
1.00063e-08
1.00063e-08
1.00054e-08
1.00061e-08
1.00084e-08
1.00239e-08
1.00466e-08
1.00087e-08
1.00064e-08
1.00063e-08
1.00063e-08
1.00067e-08
9.97495e-09
1.00051e-08
1.00053e-08
1.00054e-08
1.00058e-08
1.0007e-08
1.00063e-08
1.00062e-08
1.00055e-08
1.00067e-08
1.00125e-08
1.00302e-08
1.00093e-08
1.00069e-08
1.00063e-08
1.00074e-08
1.00066e-08
1.00066e-08
1.00069e-08
9.97514e-09
1.00051e-08
1.00053e-08
1.00054e-08
1.00061e-08
1.00075e-08
1.00064e-08
1.0006e-08
1.00057e-08
1.0008e-08
1.00166e-08
1.00089e-08
1.00074e-08
1.00068e-08
1.00072e-08
1.001e-08
1.00079e-08
1.00071e-08
1.00069e-08
1.00071e-08
9.9754e-09
1.00051e-08
1.00052e-08
1.00055e-08
1.00066e-08
1.00079e-08
1.00065e-08
1.00059e-08
1.00063e-08
1.00095e-08
1.0008e-08
1.00076e-08
1.00075e-08
1.00074e-08
1.0009e-08
1.00191e-08
1.00115e-08
1.00089e-08
1.00076e-08
1.00072e-08
1.00072e-08
9.97581e-09
1.00051e-08
1.00053e-08
1.00058e-08
1.00073e-08
1.00083e-08
1.00067e-08
1.0006e-08
1.00069e-08
1.00072e-08
1.00075e-08
1.00079e-08
1.00075e-08
1.00087e-08
1.00158e-08
1.00381e-08
1.00224e-08
1.00377e-08
1.00308e-08
1.003e-08
1.00136e-08
1.00099e-08
1.0008e-08
1.00074e-08
1.00074e-08
9.97616e-09
1.00052e-08
1.00056e-08
1.00064e-08
1.0008e-08
1.00085e-08
1.00068e-08
1.00062e-08
1.00065e-08
1.00072e-08
1.00079e-08
1.00076e-08
1.00088e-08
1.00129e-08
1.00299e-08
1.00413e-08
1.00421e-08
1.00263e-08
1.00422e-08
1.00411e-08
1.00415e-08
1.00538e-08
1.00386e-08
1.00427e-08
1.00159e-08
1.00106e-08
1.00083e-08
1.00077e-08
1.00076e-08
9.97647e-09
1.00054e-08
1.0006e-08
1.00068e-08
1.00082e-08
1.00086e-08
1.0007e-08
1.00062e-08
1.00067e-08
1.00075e-08
1.00076e-08
1.00089e-08
1.00108e-08
1.00235e-08
1.00435e-08
1.00424e-08
1.00377e-08
1.00366e-08
1.00473e-08
1.00637e-08
1.00294e-08
1.00443e-08
1.00568e-08
1.00487e-08
1.00539e-08
1.00627e-08
1.00562e-08
1.0055e-08
1.00173e-08
1.00107e-08
1.00086e-08
1.00079e-08
1.00077e-08
9.97671e-09
1.00056e-08
1.00062e-08
1.00069e-08
1.0008e-08
1.00086e-08
1.00072e-08
1.00064e-08
1.0007e-08
1.00077e-08
1.00087e-08
1.00097e-08
1.00178e-08
1.00325e-08
1.00314e-08
1.00292e-08
1.00287e-08
1.006e-08
1.00585e-08
1.00527e-08
1.0051e-08
1.00693e-08
1.0065e-08
1.00703e-08
1.00662e-08
1.00686e-08
1.00313e-08
1.00483e-08
1.00753e-08
1.00768e-08
1.00737e-08
1.00746e-08
1.00684e-08
1.00716e-08
1.0072e-08
1.00635e-08
1.00689e-08
1.00648e-08
1.00673e-08
1.00633e-08
1.00635e-08
1.00621e-08
1.00664e-08
1.00618e-08
1.00621e-08
1.00606e-08
1.00651e-08
1.0017e-08
1.00111e-08
1.00089e-08
1.0008e-08
1.00079e-08
9.97694e-09
1.00057e-08
1.00062e-08
1.00067e-08
1.00076e-08
1.00086e-08
1.00076e-08
1.00066e-08
1.00074e-08
1.00083e-08
1.00092e-08
1.00137e-08
1.00233e-08
1.00232e-08
1.00215e-08
1.00216e-08
1.00471e-08
1.00458e-08
1.00399e-08
1.00391e-08
1.00632e-08
1.00643e-08
1.00609e-08
1.00616e-08
1.00584e-08
1.00621e-08
1.00632e-08
1.00627e-08
1.00596e-08
1.00614e-08
1.0057e-08
1.00605e-08
1.00586e-08
1.00528e-08
1.00601e-08
1.0055e-08
1.00587e-08
1.00515e-08
1.006e-08
1.00535e-08
1.00699e-08
1.00717e-08
1.00683e-08
1.00731e-08
1.00658e-08
1.00711e-08
1.00674e-08
1.00694e-08
1.003e-08
1.00539e-08
1.00772e-08
1.00795e-08
1.00764e-08
1.00784e-08
1.00782e-08
1.00781e-08
1.00764e-08
1.00759e-08
1.00686e-08
1.00705e-08
1.00668e-08
1.00719e-08
1.00715e-08
1.00746e-08
1.00726e-08
1.00742e-08
1.00707e-08
1.00738e-08
1.00723e-08
1.00731e-08
1.00642e-08
1.007e-08
1.00658e-08
1.00684e-08
1.0064e-08
1.00672e-08
1.00625e-08
1.00662e-08
1.00171e-08
1.00119e-08
1.00089e-08
1.00081e-08
1.00085e-08
9.97725e-09
1.00057e-08
1.00061e-08
1.00065e-08
1.00073e-08
1.00088e-08
1.00083e-08
1.00072e-08
1.00078e-08
1.00092e-08
1.00114e-08
1.00178e-08
1.00179e-08
1.00165e-08
1.00165e-08
1.00314e-08
1.00312e-08
1.00268e-08
1.00269e-08
1.00569e-08
1.00493e-08
1.00551e-08
1.00467e-08
1.00572e-08
1.00481e-08
1.00554e-08
1.00457e-08
1.00497e-08
1.00399e-08
1.00529e-08
1.00424e-08
1.00499e-08
1.00392e-08
1.00532e-08
1.00417e-08
1.00653e-08
1.00628e-08
1.0059e-08
1.00638e-08
1.00613e-08
1.00576e-08
1.00646e-08
1.00622e-08
1.00624e-08
1.00579e-08
1.00611e-08
1.00564e-08
1.0059e-08
1.00523e-08
1.00602e-08
1.00551e-08
1.00592e-08
1.00514e-08
1.00602e-08
1.0054e-08
1.00702e-08
1.00724e-08
1.00689e-08
1.00735e-08
1.00687e-08
1.00717e-08
1.00704e-08
1.00698e-08
1.00279e-08
1.0052e-08
1.00796e-08
1.00811e-08
1.00782e-08
1.00803e-08
1.0081e-08
1.00814e-08
1.00796e-08
1.00798e-08
1.00771e-08
1.00769e-08
1.00766e-08
1.0076e-08
1.00777e-08
1.00772e-08
1.00771e-08
1.00762e-08
1.00758e-08
1.00747e-08
1.00741e-08
1.00762e-08
1.0075e-08
1.00725e-08
1.00758e-08
1.00737e-08
1.00743e-08
1.00764e-08
1.00751e-08
1.00714e-08
1.00686e-08
1.00714e-08
1.00673e-08
1.00725e-08
1.00713e-08
1.00743e-08
1.00699e-08
1.00733e-08
1.00676e-08
1.0071e-08
1.00696e-08
1.00691e-08
1.00663e-08
1.00676e-08
1.00649e-08
1.00667e-08
1.00187e-08
1.00118e-08
1.00087e-08
1.00087e-08
1.00102e-08
9.97782e-09
1.00053e-08
1.00059e-08
1.00064e-08
1.00071e-08
1.00093e-08
1.00095e-08
1.0008e-08
1.00089e-08
1.00107e-08
1.00145e-08
1.00145e-08
1.00136e-08
1.00136e-08
1.00223e-08
1.00224e-08
1.00205e-08
1.00205e-08
1.0045e-08
1.00344e-08
1.00396e-08
1.00331e-08
1.00449e-08
1.00342e-08
1.00394e-08
1.00329e-08
1.00314e-08
1.00293e-08
1.00346e-08
1.00296e-08
1.00316e-08
1.00295e-08
1.00345e-08
1.00297e-08
1.00578e-08
1.00491e-08
1.00568e-08
1.00461e-08
1.00582e-08
1.00483e-08
1.00573e-08
1.00455e-08
1.00544e-08
1.00401e-08
1.00557e-08
1.00428e-08
1.0055e-08
1.00398e-08
1.00563e-08
1.00424e-08
1.00725e-08
1.00732e-08
1.00717e-08
1.00743e-08
1.00307e-08
1.0043e-08
1.00812e-08
1.00807e-08
1.00808e-08
1.00814e-08
1.00833e-08
1.00838e-08
1.00822e-08
1.00826e-08
1.00797e-08
1.00809e-08
1.0079e-08
1.008e-08
1.00803e-08
1.00812e-08
1.00797e-08
1.00803e-08
1.00777e-08
1.00778e-08
1.00783e-08
1.00788e-08
1.00784e-08
1.00782e-08
1.0079e-08
1.00791e-08
1.0077e-08
1.00761e-08
1.00767e-08
1.00756e-08
1.00783e-08
1.00777e-08
1.0078e-08
1.00771e-08
1.00754e-08
1.00762e-08
1.00746e-08
1.00732e-08
1.00765e-08
1.00751e-08
1.00754e-08
1.00772e-08
1.00759e-08
1.00735e-08
1.00776e-08
1.00766e-08
1.00724e-08
1.00727e-08
1.00713e-08
1.00739e-08
1.00729e-08
1.0075e-08
1.00731e-08
1.00748e-08
1.00188e-08
1.00106e-08
1.0009e-08
1.00103e-08
1.0015e-08
9.97885e-09
1.00047e-08
1.00055e-08
1.00062e-08
1.00072e-08
1.00095e-08
1.00112e-08
1.00102e-08
1.00105e-08
1.00126e-08
1.00182e-08
1.00183e-08
1.00168e-08
1.00168e-08
1.00282e-08
1.00284e-08
1.0025e-08
1.00252e-08
1.00515e-08
1.00365e-08
1.0048e-08
1.00345e-08
1.00519e-08
1.00364e-08
1.00483e-08
1.00345e-08
1.00365e-08
1.00307e-08
1.00431e-08
1.00321e-08
1.00368e-08
1.00309e-08
1.00434e-08
1.00323e-08
1.00556e-08
1.00394e-08
1.0056e-08
1.00394e-08
1.00323e-08
1.00462e-08
1.0061e-08
1.00596e-08
1.00776e-08
1.00757e-08
1.00837e-08
1.00846e-08
1.00838e-08
1.00845e-08
1.00821e-08
1.00842e-08
1.00812e-08
1.00835e-08
1.00828e-08
1.00846e-08
1.00819e-08
1.00839e-08
1.00803e-08
1.00819e-08
1.00807e-08
1.00826e-08
1.00809e-08
1.00822e-08
1.00813e-08
1.0083e-08
1.00781e-08
1.00777e-08
1.00777e-08
1.00769e-08
1.00793e-08
1.0079e-08
1.00791e-08
1.00785e-08
1.00773e-08
1.00765e-08
1.00775e-08
1.00766e-08
1.00787e-08
1.00781e-08
1.00789e-08
1.00783e-08
1.00158e-08
1.00099e-08
1.00104e-08
1.0015e-08
1.00268e-08
9.97898e-09
1.00042e-08
1.00052e-08
1.00062e-08
1.00073e-08
1.00111e-08
1.00143e-08
1.00147e-08
1.00164e-08
1.0018e-08
1.00179e-08
1.00257e-08
1.00256e-08
1.00224e-08
1.00225e-08
1.00201e-08
1.00202e-08
1.00296e-08
1.00367e-08
1.00305e-08
1.00333e-08
1.00298e-08
1.00368e-08
1.00309e-08
1.00334e-08
1.00272e-08
1.00284e-08
1.00266e-08
1.00302e-08
1.00274e-08
1.00284e-08
1.00268e-08
1.00302e-08
1.00542e-08
1.00374e-08
1.00519e-08
1.00358e-08
1.00544e-08
1.00375e-08
1.00519e-08
1.00361e-08
1.00433e-08
1.00327e-08
1.00481e-08
1.00342e-08
1.00432e-08
1.00331e-08
1.0048e-08
1.00346e-08
1.00274e-08
1.00511e-08
1.00634e-08
1.00813e-08
1.00817e-08
1.00832e-08
1.00839e-08
1.00791e-08
1.00814e-08
1.00801e-08
1.00818e-08
1.00793e-08
1.00804e-08
1.00786e-08
1.00785e-08
1.00805e-08
1.00815e-08
1.00798e-08
1.00798e-08
1.00784e-08
1.00781e-08
1.00784e-08
1.0078e-08
1.00794e-08
1.00792e-08
1.00795e-08
1.00793e-08
1.0078e-08
1.00757e-08
1.00794e-08
1.00781e-08
1.00128e-08
1.00106e-08
1.00149e-08
1.00267e-08
1.00457e-08
9.96121e-09
1.00042e-08
1.00051e-08
1.00065e-08
1.00081e-08
1.00164e-08
1.00191e-08
1.00301e-08
1.00535e-08
1.00279e-08
1.00279e-08
1.00377e-08
1.00377e-08
1.00263e-08
1.0025e-08
1.00254e-08
1.00259e-08
1.00264e-08
1.00251e-08
1.00256e-08
1.00261e-08
1.00264e-08
1.00266e-08
1.0031e-08
1.00419e-08
1.00318e-08
1.00392e-08
1.00313e-08
1.00418e-08
1.00321e-08
1.00392e-08
1.00295e-08
1.00334e-08
1.00286e-08
1.00367e-08
1.00298e-08
1.00334e-08
1.00289e-08
1.00366e-08
1.00448e-08
1.00329e-08
1.00447e-08
1.00334e-08
1.002e-08
1.00463e-08
1.00692e-08
1.0071e-08
1.00741e-08
1.0078e-08
1.00802e-08
1.00799e-08
1.0082e-08
1.00792e-08
1.00818e-08
1.0073e-08
1.00727e-08
1.00754e-08
1.0072e-08
1.00769e-08
1.00766e-08
1.00789e-08
1.00758e-08
1.00703e-08
1.0073e-08
1.00696e-08
1.0072e-08
1.00747e-08
1.00758e-08
1.00736e-08
1.00754e-08
1.00743e-08
1.00709e-08
1.00757e-08
1.00722e-08
1.00767e-08
1.00744e-08
1.00775e-08
1.00752e-08
1.00775e-08
1.00749e-08
1.00767e-08
1.00737e-08
1.0079e-08
1.00774e-08
1.00784e-08
1.00764e-08
1.00117e-08
1.00147e-08
1.00264e-08
1.00455e-08
9.96122e-09
1.00039e-08
1.00054e-08
1.00071e-08
1.0014e-08
1.00253e-08
1.00436e-08
1.00878e-08
1.00695e-08
1.00695e-08
1.00853e-08
1.00854e-08
1.00354e-08
1.00343e-08
1.00404e-08
1.00402e-08
1.00354e-08
1.00344e-08
1.00405e-08
1.00403e-08
1.00551e-08
1.00552e-08
1.00308e-08
1.00277e-08
1.00276e-08
1.00289e-08
1.00309e-08
1.00279e-08
1.00278e-08
1.00292e-08
1.00328e-08
1.00312e-08
1.00322e-08
1.003e-08
1.00329e-08
1.00314e-08
1.00323e-08
1.00302e-08
1.00302e-08
1.00372e-08
1.00302e-08
1.00385e-08
1.00306e-08
1.00371e-08
1.00306e-08
1.00384e-08
1.00151e-08
1.00341e-08
1.00689e-08
1.00831e-08
1.00785e-08
1.00809e-08
1.00787e-08
1.00814e-08
1.00771e-08
1.00802e-08
1.00739e-08
1.00774e-08
1.0079e-08
1.00758e-08
1.00778e-08
1.00805e-08
1.00817e-08
1.00794e-08
1.00661e-08
1.00692e-08
1.00673e-08
1.00693e-08
1.00706e-08
1.00733e-08
1.00719e-08
1.00731e-08
1.00659e-08
1.00721e-08
1.00668e-08
1.00705e-08
1.00701e-08
1.00749e-08
1.00707e-08
1.00737e-08
1.00737e-08
1.0068e-08
1.00762e-08
1.00718e-08
1.00148e-08
1.00257e-08
1.00449e-08
9.96122e-09
1.00034e-08
1.0006e-08
1.00078e-08
1.00248e-08
1.00932e-08
1.01258e-08
1.01142e-08
1.01143e-08
1.01446e-08
1.01446e-08
1.00926e-08
1.00927e-08
1.01145e-08
1.01146e-08
1.00439e-08
1.00424e-08
1.00487e-08
1.00487e-08
1.00439e-08
1.00426e-08
1.00488e-08
1.00489e-08
1.00648e-08
1.00728e-08
1.00732e-08
1.00652e-08
1.0065e-08
1.00731e-08
1.00734e-08
1.00654e-08
1.00359e-08
1.00304e-08
1.00306e-08
1.00342e-08
1.00359e-08
1.00307e-08
1.00309e-08
1.00343e-08
1.00409e-08
1.0038e-08
1.00385e-08
1.00345e-08
1.0041e-08
1.00383e-08
1.00386e-08
1.00348e-08
1.00162e-08
1.00228e-08
1.00559e-08
1.00882e-08
1.00857e-08
1.00897e-08
1.00824e-08
1.00854e-08
1.00796e-08
1.00823e-08
1.00753e-08
1.00777e-08
1.00773e-08
1.00791e-08
1.00792e-08
1.00807e-08
1.00806e-08
1.00817e-08
1.00733e-08
1.00751e-08
1.00714e-08
1.00713e-08
1.0073e-08
1.00754e-08
1.00777e-08
1.0079e-08
1.00762e-08
1.00765e-08
1.00765e-08
1.00785e-08
1.00705e-08
1.00705e-08
1.00745e-08
1.00747e-08
1.0065e-08
1.00683e-08
1.00651e-08
1.00687e-08
1.00695e-08
1.00728e-08
1.00698e-08
1.00727e-08
1.00246e-08
1.00435e-08
9.96122e-09
1.00032e-08
1.00059e-08
1.00103e-08
1.00698e-08
1.01878e-08
1.03177e-08
1.01476e-08
1.01476e-08
1.02059e-08
1.0206e-08
1.00982e-08
1.00832e-08
1.00981e-08
1.01038e-08
1.01043e-08
1.00835e-08
1.00835e-08
1.00984e-08
1.00838e-08
1.00983e-08
1.0104e-08
1.01046e-08
1.01276e-08
1.01304e-08
1.01189e-08
1.01203e-08
1.0128e-08
1.01309e-08
1.01189e-08
1.01206e-08
1.00523e-08
1.00505e-08
1.00591e-08
1.00583e-08
1.00524e-08
1.00507e-08
1.00593e-08
1.00585e-08
1.00741e-08
1.00741e-08
1.00743e-08
1.00744e-08
1.00327e-08
1.00374e-08
1.0033e-08
1.00374e-08
1.00463e-08
1.00434e-08
1.00464e-08
1.00437e-08
1.00244e-08
1.00212e-08
1.00364e-08
1.00834e-08
1.00977e-08
1.01011e-08
1.00912e-08
1.00961e-08
1.00801e-08
1.00863e-08
1.00763e-08
1.00818e-08
1.00735e-08
1.00763e-08
1.00782e-08
1.00735e-08
1.00763e-08
1.00749e-08
1.00786e-08
1.00808e-08
1.00818e-08
1.00785e-08
1.00793e-08
1.00784e-08
1.0072e-08
1.00714e-08
1.00761e-08
1.00755e-08
1.00696e-08
1.00669e-08
1.00686e-08
1.00697e-08
1.00647e-08
1.00675e-08
1.00741e-08
1.00715e-08
1.00732e-08
1.00746e-08
1.0069e-08
1.00728e-08
1.00683e-08
1.00653e-08
1.00732e-08
1.00701e-08
1.00415e-08
9.96122e-09
1.00027e-08
1.00062e-08
1.00283e-08
1.01106e-08
1.03974e-08
1.0338e-08
1.03508e-08
1.04072e-08
1.04344e-08
1.01652e-08
1.01663e-08
1.02273e-08
1.02306e-08
1.00901e-08
1.01024e-08
1.01029e-08
1.00901e-08
1.01097e-08
1.01117e-08
1.00905e-08
1.01027e-08
1.00903e-08
1.01031e-08
1.011e-08
1.0112e-08
1.01344e-08
1.014e-08
1.01228e-08
1.01264e-08
1.01351e-08
1.01405e-08
1.0123e-08
1.01271e-08
1.00656e-08
1.00651e-08
1.00659e-08
1.00654e-08
1.00392e-08
1.00272e-08
1.00318e-08
1.00567e-08
1.01033e-08
1.00958e-08
1.01021e-08
1.00884e-08
1.00953e-08
1.00791e-08
1.00801e-08
1.00739e-08
1.00749e-08
1.00856e-08
1.00866e-08
1.00805e-08
1.00817e-08
1.00692e-08
1.007e-08
1.00665e-08
1.00707e-08
1.00696e-08
1.00697e-08
1.00749e-08
1.00756e-08
1.00728e-08
1.00769e-08
1.00764e-08
1.00757e-08
1.00644e-08
1.00685e-08
1.00683e-08
1.00716e-08
1.00691e-08
1.00736e-08
1.00731e-08
1.00764e-08
1.00695e-08
1.00651e-08
1.00743e-08
1.00696e-08
1.0069e-08
1.00644e-08
1.00689e-08
1.00644e-08
1.00736e-08
1.00682e-08
1.00737e-08
1.00687e-08
9.96123e-09
1.00028e-08
1.00124e-08
1.00323e-08
1.03314e-08
1.05913e-08
1.02703e-08
1.02806e-08
1.02938e-08
1.03023e-08
1.01643e-08
1.01608e-08
1.01636e-08
1.01634e-08
1.01666e-08
1.01627e-08
1.01642e-08
1.01644e-08
1.0217e-08
1.02216e-08
1.01356e-08
1.01456e-08
1.01243e-08
1.01312e-08
1.01362e-08
1.01462e-08
1.01245e-08
1.0132e-08
9.96129e-09
1.00381e-08
1.00367e-08
1.00491e-08
1.00855e-08
1.01056e-08
1.01053e-08
1.01071e-08
1.01133e-08
1.01066e-08
1.01084e-08
1.00902e-08
1.00992e-08
1.00825e-08
1.0086e-08
1.00733e-08
1.00713e-08
1.00901e-08
1.0094e-08
1.00797e-08
1.00781e-08
1.00688e-08
1.00695e-08
1.00642e-08
1.00651e-08
1.00706e-08
1.00672e-08
1.0074e-08
1.00745e-08
1.00702e-08
1.0069e-08
1.00762e-08
1.00731e-08
1.0064e-08
1.00693e-08
1.00682e-08
1.00744e-08
1.00089e-08
1.00101e-08
1.00833e-08
1.06663e-08
1.04398e-08
1.03909e-08
1.08447e-08
1.08044e-08
1.02425e-08
1.02486e-08
1.02943e-08
1.02855e-08
1.0163e-08
1.01562e-08
1.01626e-08
1.01604e-08
1.01646e-08
1.01584e-08
1.01632e-08
1.01617e-08
1.02062e-08
1.02088e-08
1.01921e-08
1.01969e-08
1.02127e-08
1.02141e-08
1.01982e-08
1.02012e-08
1.01365e-08
1.01485e-08
1.01364e-08
1.01491e-08
9.96152e-09
1.00406e-08
1.00561e-08
1.00727e-08
1.01102e-08
1.01019e-08
1.01107e-08
1.0093e-08
1.01039e-08
1.00875e-08
1.00996e-08
1.00926e-08
1.00811e-08
1.00828e-08
1.00873e-08
1.01026e-08
1.00966e-08
1.00991e-08
1.01011e-08
1.00763e-08
1.0072e-08
1.0074e-08
1.00699e-08
1.00889e-08
1.00894e-08
1.00824e-08
1.00791e-08
1.0009e-08
1.00167e-08
1.02378e-08
1.09526e-08
1.07072e-08
1.05519e-08
1.10525e-08
1.11106e-08
1.02033e-08
1.02057e-08
1.02514e-08
1.0242e-08
1.02333e-08
1.02542e-08
1.02089e-08
1.02105e-08
1.02495e-08
1.02395e-08
1.02355e-08
1.02502e-08
1.03746e-08
1.03296e-08
1.01623e-08
1.01557e-08
1.01617e-08
1.01598e-08
1.01629e-08
1.01575e-08
1.01621e-08
1.01617e-08
1.01936e-08
1.01969e-08
1.01992e-08
1.02007e-08
9.96229e-09
1.00513e-08
1.00873e-08
1.01011e-08
1.01297e-08
1.01297e-08
1.01234e-08
1.0122e-08
1.011e-08
1.01107e-08
1.00859e-08
1.00944e-08
1.00776e-08
1.0079e-08
1.00739e-08
1.00696e-08
1.00762e-08
1.00744e-08
1.0088e-08
1.00893e-08
1.00845e-08
1.00789e-08
1.00928e-08
1.00922e-08
1.00753e-08
1.00714e-08
1.00902e-08
1.00864e-08
1.00764e-08
1.00703e-08
1.00886e-08
1.00815e-08
1.00047e-08
1.00451e-08
1.04603e-08
1.11267e-08
1.13701e-08
1.09129e-08
1.11113e-08
1.10174e-08
1.09722e-08
1.12408e-08
1.14643e-08
1.0209e-08
1.02076e-08
1.02792e-08
1.02583e-08
1.02483e-08
1.02804e-08
1.02112e-08
1.02108e-08
1.02594e-08
1.02471e-08
1.02422e-08
1.02634e-08
1.04408e-08
1.04651e-08
1.04393e-08
1.04478e-08
1.03853e-08
1.04042e-08
1.03768e-08
1.0375e-08
9.96454e-09
1.00758e-08
1.01271e-08
1.0136e-08
1.01285e-08
1.01278e-08
1.0117e-08
1.01175e-08
1.0104e-08
1.01065e-08
1.00751e-08
1.00735e-08
1.00832e-08
1.0076e-08
1.00737e-08
1.00823e-08
1.00908e-08
1.00842e-08
1.00817e-08
1.00896e-08
1.00841e-08
1.00833e-08
1.00729e-08
1.00746e-08
1.00677e-08
1.00685e-08
1.00807e-08
1.00863e-08
1.00759e-08
1.00775e-08
1.00747e-08
1.00687e-08
1.00872e-08
1.00779e-08
1.00104e-08
1.01119e-08
1.03707e-08
1.10769e-08
1.1348e-08
1.06392e-08
1.07896e-08
1.05661e-08
1.0601e-08
1.14236e-08
1.12431e-08
1.12982e-08
1.13212e-08
1.04838e-08
1.05312e-08
1.16568e-08
1.11824e-08
1.13753e-08
1.13174e-08
1.14497e-08
1.18606e-08
1.03056e-08
1.0312e-08
1.02798e-08
1.0281e-08
1.05137e-08
1.05335e-08
1.04314e-08
1.04499e-08
9.97013e-09
1.01173e-08
1.01678e-08
1.01721e-08
1.01681e-08
1.01531e-08
1.01459e-08
1.01302e-08
1.01296e-08
1.0114e-08
1.01158e-08
1.00985e-08
1.01029e-08
1.00896e-08
1.00919e-08
1.00899e-08
1.00936e-08
1.01022e-08
1.00929e-08
1.00956e-08
1.01055e-08
1.00944e-08
1.00958e-08
1.00742e-08
1.00684e-08
1.00743e-08
1.00705e-08
1.00811e-08
1.00827e-08
1.00767e-08
1.00757e-08
1.00179e-08
1.00657e-08
1.00823e-08
1.07834e-08
1.09757e-08
1.03335e-08
1.04014e-08
1.10533e-08
1.10649e-08
1.16246e-08
1.14952e-08
1.16334e-08
1.15293e-08
1.07715e-08
1.08995e-08
1.22242e-08
1.21552e-08
1.22001e-08
1.22393e-08
1.11561e-08
1.12606e-08
1.15325e-08
1.15157e-08
1.19212e-08
1.17998e-08
1.22734e-08
1.20679e-08
1.08264e-08
1.08407e-08
1.05526e-08
1.06224e-08
9.98198e-09
1.01721e-08
1.01938e-08
1.01609e-08
1.01656e-08
1.01438e-08
1.0146e-08
1.01294e-08
1.01306e-08
1.00989e-08
1.01019e-08
1.01157e-08
1.01037e-08
1.01089e-08
1.0112e-08
1.01011e-08
1.01036e-08
1.01171e-08
1.01055e-08
1.01103e-08
1.01136e-08
1.00885e-08
1.00805e-08
1.00848e-08
1.00727e-08
1.00864e-08
1.00787e-08
1.00917e-08
1.00882e-08
1.00148e-08
1.0017e-08
1.08751e-08
1.02531e-08
1.02461e-08
1.05416e-08
1.05436e-08
1.03476e-08
1.06937e-08
1.08076e-08
1.10145e-08
1.06875e-08
1.13404e-08
1.14067e-08
1.14401e-08
1.15699e-08
1.15818e-08
1.15648e-08
1.16577e-08
1.15397e-08
1.18622e-08
1.20116e-08
1.21793e-08
1.23953e-08
1.23062e-08
1.23538e-08
1.12849e-08
1.12628e-08
1.18565e-08
1.16951e-08
1.00035e-08
1.02241e-08
1.01998e-08
1.01671e-08
1.01749e-08
1.01488e-08
1.01543e-08
1.01319e-08
1.01331e-08
1.01246e-08
1.01276e-08
1.01158e-08
1.01199e-08
1.01347e-08
1.01167e-08
1.01206e-08
1.01346e-08
1.01276e-08
1.01294e-08
1.00952e-08
1.00934e-08
1.01059e-08
1.01046e-08
1.00973e-08
1.00952e-08
1.0107e-08
1.01054e-08
1.00856e-08
1.0081e-08
1.00885e-08
1.00833e-08
1.0005e-08
1.012e-08
1.16066e-08
2.75223e-08
1.12524e-08
1.93521e-08
1.43323e-08
1.15632e-08
1.06347e-08
1.06489e-08
1.07506e-08
1.0653e-08
1.07943e-08
1.07223e-08
1.08102e-08
1.07147e-08
1.06365e-08
1.06106e-08
1.07494e-08
1.06431e-08
1.0865e-08
1.06837e-08
1.06829e-08
1.06438e-08
1.13304e-08
1.13483e-08
1.18097e-08
1.19475e-08
1.07263e-08
1.08755e-08
1.09394e-08
1.10576e-08
1.00374e-08
1.0253e-08
1.02152e-08
1.01572e-08
1.01669e-08
1.02387e-08
1.01865e-08
1.01963e-08
1.01392e-08
1.01303e-08
1.01365e-08
1.0149e-08
1.01369e-08
1.01421e-08
1.01161e-08
1.01169e-08
1.01115e-08
1.01116e-08
1.01184e-08
1.01138e-08
1.01233e-08
1.01186e-08
1.00975e-08
1.00909e-08
1.01063e-08
1.00958e-08
1.00992e-08
1.00924e-08
1.01083e-08
1.0099e-08
1.00051e-08
1.11958e-08
2.75254e-08
1.10796e-08
1.10791e-08
3.33059e-07
2.53137e-08
1.08851e-08
1.08088e-08
2.00481e-07
6.65725e-08
2.9278e-08
1.06294e-08
1.0732e-08
1.06852e-08
1.07809e-08
1.07299e-08
1.09409e-08
1.06359e-08
1.07099e-08
1.05996e-08
1.08152e-08
1.07219e-08
1.08175e-08
1.10559e-08
1.10438e-08
1.13159e-08
1.13292e-08
1.00776e-08
1.02735e-08
1.0178e-08
1.01714e-08
1.01808e-08
1.02088e-08
1.01537e-08
1.01724e-08
1.01308e-08
1.01168e-08
1.01211e-08
1.0119e-08
1.01262e-08
1.01281e-08
1.01403e-08
1.01393e-08
1.01424e-08
1.01279e-08
1.01314e-08
1.01293e-08
1.01345e-08
1.01411e-08
1.01511e-08
1.01505e-08
1.01106e-08
1.01031e-08
1.00941e-08
1.00945e-08
1.01163e-08
1.01028e-08
1.01152e-08
1.01064e-08
1.00316e-08
1.1789e-07
5.02663e-07
2.01266e-07
1.22287e-08
1.28434e-08
1.02352e-08
1.41207e-07
1.36576e-08
1.71838e-08
2.24822e-08
1.69275e-08
2.04376e-07
5.37605e-08
1.36847e-07
2.74955e-06
2.76446e-07
8.29675e-07
7.96922e-08
1.31543e-08
1.62072e-08
2.11054e-08
1.59995e-08
1.90929e-07
3.25684e-08
1.24367e-07
1.71989e-06
1.64954e-07
8.35281e-07
1.0607e-08
1.31645e-08
1.07919e-08
1.2187e-08
1.05482e-08
1.27276e-08
1.07473e-08
1.18642e-08
1.00963e-08
1.02804e-08
1.01715e-08
1.01365e-08
1.01629e-08
1.01652e-08
1.01535e-08
1.0172e-08
1.01735e-08
1.02128e-08
1.01412e-08
1.01675e-08
1.01171e-08
1.01453e-08
1.01029e-08
1.01111e-08