/*--------------------------------*- C++ -*----------------------------------*\
| =========                 |                                                 |
| \\      /  F ield         | OpenFOAM: The Open Source CFD Toolbox           |
|  \\    /   O peration     | Version:  5.x                                   |
|   \\  /    A nd           | Web:      www.OpenFOAM.org                      |
|    \\/     M anipulation  |                                                 |
\*---------------------------------------------------------------------------*/
FoamFile
{
    version     2.0;
    format      ascii;
    class       surfaceScalarField;
    location    "0.6";
    object      meshPhi;
}
// * * * * * * * * * * * * * * * * * * * * * * * * * * * * * * * * * * * * * //

dimensions      [0 3 -1 0 0 0 0];

internalField   nonuniform List<scalar> 
30582
(
0
0
0
0
0
0
0
0
0
0
0
0
0
0
0
0
0
0
0
0
0
0
0
0
0
0
0
0
0
0
0
0
0
0
0
0
0
0
0
0
0
0
0
0
0
0
0
0
0
0
0
0
0
0
0
0
0
0
0
0
0
0
0
0
0
0
0
0
0
0
0
0
0
0
0
0
0
0
0
0
0
0
0
0
0
0
0
0
0
0
0
0
0
0
0
0
0
0
0
0
0
0
0
0
0
0
0
0
0
0
0
0
0
0
0
0
0
0
0
0
0
0
0
0
0
0
0
0
0
0
0
0
0
0
0
0
0
0
0
0
0
0
0
0
0
0
0
0
0
0
0
0
0
0
0
0
0
0
0
0
0
0
0
0
0
0
0
0
0
0
0
0
0
0
0
0
0
0
0
0
0
0
0
0
0
0
0
0
0
0
0
0
0
0
0
0
0
0
0
0
0
0
0
0
0
0
0
0
0
0
0
0
0
0
0
0
0
0
0
0
0
0
0
0
0
0
0
0
0
0
0
0
0
0
0
0
0
0
0
0
0
0
0
0
0
0
0
0
0
0
0
0
0
0
0
0
0
0
0
0
0
0
0
0
0
0
0
0
0
0
0
0
0
0
0
0
0
0
0
0
0
0
0
0
0
0
0
0
0
0
0
0
0
0
0
0
0
0
0
0
0
0
0
0
0
0
0
0
0
0
0
0
0
0
0
0
0
0
0
0
0
0
0
0
0
0
0
0
0
0
0
0
0
0
0
0
0
0
0
0
0
0
0
0
0
0
0
0
0
0
0
0
0
0
0
0
0
0
0
0
0
0
0
0
0
0
0
0
0
0
0
0
0
0
0
0
0
0
0
0
0
0
0
0
0
0
0
0
0
0
0
0
0
0
0
0
0
0
0
0
0
0
0
0
0
0
0
0
0
0
0
0
0
0
0
0
0
0
0
0
0
0
0
0
0
0
0
0
0
0
0
0
0
0
0
0
0
0
0
0
0
0
0
0
0
0
0
0
0
0
0
0
0
0
0
0
0
0
0
0
0
0
0
0
0
0
0
0
0
0
0
0
0
0
0
0
0
0
0
0
0
0
0
0
0
0
0
0
0
0
0
0
0
0
0
0
0
0
0
0
0
0
0
0
0
0
0
0
0
0
0
0
0
0
0
0
0
0
0
0
0
0
0
0
0
0
0
0
0
0
0
0
0
0
0
0
0
0
0
0
0
0
0
0
0
0
0
0
0
0
0
0
0
0
0
0
0
0
0
0
0
0
0
0
0
0
0
0
0
0
0
0
0
0
0
0
0
0
0
0
0
0
0
0
0
0
0
0
0
0
0
0
0
0
0
0
0
0
0
0
0
0
0
0
0
0
0
0
0
0
0
0
0
0
0
0
0
0
0
0
0
0
0
0
0
0
0
0
0
0
0
0
0
0
0
0
0
0
0
0
0
0
0
0
0
0
0
0
0
0
0
0
0
0
0
0
0
0
0
0
0
0
0
0
0
0
0
0
0
0
0
0
0
0
0
0
0
0
0
0
0
0
0
0
0
0
0
0
0
0
0
0
0
0
0
0
0
0
0
0
0
0
0
0
0
0
0
0
0
0
0
0
0
0
0
0
0
0
0
0
0
0
0
0
0
0
0
0
0
0
0
0
0
0
0
0
0
0
0
0
0
0
0
0
0
0
0
0
0
0
0
0
0
0
0
0
0
0
0
0
0
0
0
0
0
0
0
0
0
0
0
0
0
0
0
0
0
0
0
0
0
0
0
0
0
0
0
0
0
0
0
0
0
0
0
0
0
0
0
0
0
0
0
0
0
0
0
0
0
0
0
0
0
0
0
0
0
0
0
0
0
0
0
0
0
0
0
0
0
0
0
0
0
0
0
0
0
0
0
0
0
0
0
0
0
0
0
0
0
0
0
0
0
0
0
0
0
0
0
0
0
0
0
0
0
0
0
0
0
0
0
0
0
0
0
0
0
0
0
0
0
0
0
0
0
0
0
0
0
0
0
0
0
0
0
0
0
0
0
0
0
0
0
0
0
0
0
0
0
0
0
0
0
0
0
0
0
0
0
0
0
0
0
0
0
0
0
0
0
0
0
0
0
0
0
0
0
0
0
0
0
0
0
0
0
0
0
0
0
0
0
0
0
0
0
0
0
0
0
0
0
0
0
0
0
0
0
0
0
0
0
0
0
0
0
0
0
0
0
0
0
0
0
0
0
0
0
0
0
0
0
0
0
0
0
0
0
0
0
0
0
0
0
0
0
0
0
0
0
0
0
0
0
0
0
0
0
0
0
0
0
0
0
0
0
0
0
0
0
0
0
0
0
0
0
0
0
0
0
0
0
0
0
0
0
0
0
0
0
0
0
0
0
0
0
0
0
0
0
0
0
0
0
0
0
0
0
0
0
0
0
0
0
0
0
0
0
0
0
0
0
0
0
0
0
0
0
0
0
0
0
0
0
0
0
0
0
0
0
0
0
0
0
0
0
0
0
0
0
0
0
0
0
0
0
0
0
0
0
0
0
0
0
0
0
0
0
0
0
0
0
0
0
0
0
0
0
0
0
0
0
0
0
0
0
0
0
0
0
0
0
0
0
0
0
0
0
0
0
0
0
0
0
0
0
0
0
0
0
0
0
0
0
0
0
0
0
0
0
0
0
0
0
0
0
0
0
0
0
0
0
0
0
0
0
0
0
0
0
0
0
0
0
0
0
0
0
0
0
0
0
0
0
0
0
0
0
0
0
0
0
0
0
0
0
0
0
0
0
0
0
0
0
0
0
0
0
0
0
0
0
0
0
0
0
0
0
0
0
0
0
0
0
0
0
0
0
0
0
0
0
0
0
0
0
0
0
0
0
0
0
0
0
0
0
0
0
0
0
0
0
0
0
0
0
0
0
0
0
0
0
0
0
0
0
0
0
0
0
0
0
0
0
0
0
0
0
0
0
0
0
0
0
0
0
0
0
0
0
0
0
0
0
0
0
0
0
0
0
0
0
0
0
0
0
0
0
0
0
0
0
0
0
0
0
0
0
0
0
0
0
0
0
0
0
0
0
0
0
0
0
0
0
0
0
0
0
0
0
0
0
0
0
0
0
0
0
0
0
0
0
0
0
0
0
0
0
0
0
0
0
0
0
0
0
0
0
0
0
0
0
0
0
0
0
0
0
0
0
0
0
0
0
0
0
0
0
0
0
0
0
0
0
0
0
0
0
0
0
0
0
0
0
0
0
0
0
0
0
0
0
0
0
0
0
0
0
0
0
0
0
0
0
0
0
0
0
0
0
0
0
0
0
0
0
0
0
0
0
0
0
0
0
0
0
0
0
0
0
0
0
0
0
0
0
0
0
0
0
0
0
2.11531e-18
-7.46029e-18
3.02695e-25
-2.23782e-17
-1.11869e-17
-1.49277e-17
0
0
0
0
0
0
0
0
0
0
0
0
0
0
0
0
0
0
0
0
0
0
0
0
0
0
0
0
0
0
0
0
0
0
0
0
0
0
-3.72136e-18
-1.17156e-34
5.42834e-19
-8.62488e-26
-1.86315e-17
1.49185e-17
2.07982e-18
-2.23782e-17
3.72916e-18
-2.23848e-17
1.07959e-18
2.36488e-25
3.72658e-17
-2.70126e-34
1.5987e-18
-2.23663e-17
-5.40602e-18
3.72772e-17
0
0
0
0
0
0
0
0
0
0
0
0
0
0
0
0
0
0
0
0
0
0
0
0
0
0
0
0
0
0
0
0
0
0
0
0
0
-6.19939e-19
3.21112e-18
-2.35638e-17
2.61927e-20
4.4594e-17
1.48512e-17
-2.97895e-17
9.78102e-36
1.06383e-18
-1.11789e-17
-1.35813e-33
5.48742e-19
-1.50789e-25
-1.85875e-17
0
-6.33518e-17
6.23457e-21
2.98126e-17
1.66531e-35
-5.21259e-19
-2.23663e-17
-5.40602e-18
2.23672e-17
3.36372e-20
-2.37281e-24
2.2309e-17
-2.08214e-34
4.89513e-21
2.97428e-17
0
0
0
0
0
0
0
0
0
0
0
0
0
0
0
0
0
0
0
0
0
0
0
0
0
0
0
0
0
0
0
0
0
0
0
-1.17045e-17
-2.23068e-17
-1.48488e-17
-3.75976e-18
-3.81019e-20
-1.75412e-34
-6.71191e-20
-4.02308e-20
-2.60376e-17
-8.56492e-18
2.05534e-18
1.46682e-17
1.35143e-34
-1.79311e-19
-1.11155e-17
2.00346e-18
1.4822e-17
-8.02187e-35
-5.88053e-20
3.72132e-18
0
-3.18984e-19
-6.48162e-24
-6.47836e-18
1.10996e-17
-8.32713e-18
1.11153e-17
0
0
-1.54895e-18
3.18285e-18
-1.52179e-17
-9.48801e-21
-2.23494e-17
-7.40385e-18
4.4594e-17
6.72745e-20
2.97453e-17
1.69348e-34
7.44055e-18
5.95156e-17
0
3.01644e-24
-1.66629e-17
1.84934e-18
-1.66518e-17
3.7122e-18
0
7.4267e-18
-1.91759e-18
7.4867e-18
-7.4235e-18
9.28508e-18
-7.47591e-18
9.38238e-18
-1.86361e-18
0
0
0
0
0
0
0
0
0
0
0
0
0
0
0
0
0
0
0
0
0
0
0
0
0
0
0
0
0
0
0
0
0
1.02658e-17
-1.86635e-17
1.4899e-17
-1.11849e-17
-7.55095e-18
5.87231e-35
3.21072e-18
-2.22821e-17
-2.028e-18
2.96434e-17
2.19951e-34
-7.55848e-18
-1.12023e-17
0
2.99403e-17
-7.63413e-36
1.59026e-11
4.28133e-12
1.59068e-09
-6.39749e-14
2.35015e-13
-1.24793e-08
-1.82104e-13
-1.26305e-08
1.10899e-10
-6.75802e-19
1.30597e-19
-4.2694e-19
-1.3117e-19
3.77272e-18
-1.44561e-17
-9.47849e-19
-8.95339e-18
-1.72335e-18
-2.78934e-34
7.40925e-17
-7.38254e-13
-1.23465e-08
9.85507e-15
-2.49178e-08
-5.21733e-19
-9.05253e-19
-2.02697e-17
-3.69364e-18
-2.58502e-17
0
2.88922e-19
-8.33507e-18
3.70281e-18
-1.20245e-17
7.40247e-18
-6.06189e-19
-6.19624e-20
0
3.86449e-19
-6.45751e-18
1.23475e-19
-6.24568e-19
-7.57618e-24
6.4503e-18
0
-5.57149e-23
1.29012e-16
-7.23209e-19
7.37344e-18
0
0
3.04447e-17
-3.75987e-18
-7.52061e-18
1.28935e-20
-1.48488e-17
0
-1.06734e-18
-9.72736e-19
-3.70341e-18
5.34976e-18
2.00338e-18
6.07248e-34
0
-1.2148e-22
-1.11242e-17
2.13612e-18
7.39586e-18
6.15838e-20
-1.01805e-17
3.69924e-18
-6.4773e-18
3.70731e-18
0
7.42057e-18
-3.77359e-18
1.11978e-17
-7.41895e-18
1.11324e-17
-9.34062e-18
9.36427e-18
-3.7142e-18
-9.18275e-19
-6.18737e-20
1.05394e-18
-6.44787e-18
0
-6.16431e-20
6.45869e-26
6.45069e-18
7.17809e-26
-4.60773e-18
0
-1.27753e-21
1.04863e-18
0
0
-1.47408e-17
-6.13429e-20
9.97664e-19
-7.38255e-13
0
-1.044e-10
1.10196e-17
7.53843e-19
-1.23146e-19
-1.28786e-17
-6.12013e-20
9.97241e-19
7.42559e-18
-2.79464e-17
7.37489e-18
0
0
0
0
0
0
0
0
0
0
0
0
0
0
0
0
0
0
0
0
0
0
0
0
0
0
0
0
0
0
0
-4.14961e-18
-1.29681e-20
7.41985e-18
-7.55898e-18
7.52356e-18
1.87532e-35
9.4004e-19
1.12308e-17
-1.04497e-17
2.98006e-17
2.64014e-35
7.31428e-20
-3.70568e-18
-8.62102e-18
1.48589e-17
-8.26384e-26
-3.58216e-09
2.65776e-12
-1.11936e-08
-6.17472e-11
-1.2278e-08
-7.83191e-09
3.64524e-18
-1.49111e-17
-1.16994e-12
8.97362e-11
2.87159e-27
3.49056e-09
-2.91903e-10
-1.12634e-09
1.04121e-10
-3.59113e-10
7.63048e-09
1.07766e-12
5.58323e-10
9.51549e-13
-1.82887e-10
-1.05485e-19
6.5304e-19
8.12315e-19
7.53024e-13
0
1.72263e-13
1.09513e-13
-4.79897e-17
9.15352e-35
1.3295e-08
6.65851e-17
1.46881e-24
-3.98663e-13
-1.48566e-17
2.56999e-34
7.01962e-11
3.68895e-18
0
-1.61837e-09
-1.22561e-08
-6.03143e-20
3.68935e-19
7.48143e-18
0
-4.65222e-19
5.78961e-20
-8.07907e-18
9.85637e-19
-3.07454e-18
-4.69615e-19
5.04947e-20
1.34533e-19
-1.11388e-17
9.10378e-19
1.76269e-17
-3.82827e-19
-1.29659e-17
5.39538e-20
3.93741e-13
-5.31552e-12
-9.84356e-13
-3.51415e-11
-8.7307e-35
-1.46962e-08
1.55542e-09
0
-1.48287e-17
3.26637e-35
1.20701e-17
0
-3.99879e-19
-1.05212e-18
-3.61707e-18
7.456e-19
8.64224e-18
-3.11496e-18
-5.21757e-20
-7.40587e-18
1.39174e-17
-5.06645e-19
-6.19625e-20
0
7.74596e-19
-8.30727e-18
1.23475e-19
-5.56585e-19
1.1979e-17
0
1.17953e-16
-4.0953e-19
1.47789e-17
1.67972e-09
-6.21085e-20
0
-1.58287e-09
-1.90714e-11
-1.62558e-24
-8.85923e-14
-7.58573e-23
2.35715e-13
0
-3.83024e-22
-1.23772e-08
-5.90625e-14
1.23082e-14
0
0
1.02658e-17
-1.12471e-17
7.42527e-18
3.76438e-18
7.39805e-18
-3.49333e-34
-3.08413e-18
-1.0105e-18
-7.51099e-18
2.19687e-18
-8.18688e-20
0
4.16648e-34
-3.74514e-18
0
0
-1.67052e-17
-1.37329e-08
2.95307e-12
-1.32448e-08
3.69434e-18
3.69639e-16
1.83331e-18
-5.2167e-19
7.3101e-18
-9.33809e-18
3.69353e-18
-2.0307e-17
0
1.51345e-12
1.09725e-10
-5.41295e-14
9.60977e-13
-1.30071e-08
1.13062e-17
7.00028e-16
1.72986e-09
-7.75397e-22
-1.76139e-18
9.18742e-19
-2.46441e-20
-3.16286e-17
4.63458e-18
-2.98092e-17
-2.95361e-18
-7.50827e-19
-6.1874e-20
1.07001e-18
-1.93919e-17
-6.1627e-20
-6.16463e-20
9.21517e-19
-1.10582e-17
-4.44762e-37
1.84911e-18
7.53986e-19
-1.23321e-19
0
-1.84344e-17
6.13419e-20
1.11051e-18
-4.03574e-13
0
-1.26057e-08
1.28847e-17
9.79483e-19
-6.15722e-20
-2.12017e-17
0
1.08362e-18
1.847e-18
-1.29419e-17
-7.97013e-34
-4.93408e-19
1.24177e-19
2.15519e-18
-2.03481e-17
0
-2.24358e-19
1.66531e-24
7.61259e-22
7.69257e-24
-3.66779e-17
-7.56776e-20
1.84879e-18
6.16538e-20
0
1.2338e-08
1.19355e-13
6.16347e-20
-7.22827e-18
2.72409e-18
0
0
0
0
0
0
0
0
0
0
0
0
0
0
0
0
0
0
0
0
0
0
0
0
0
0
0
0
0
1.27304e-17
-1.86796e-17
1.74427e-20
3.71379e-18
3.53015e-20
6.6611e-34
1.85582e-18
-1.48235e-17
-1.68175e-17
1.47836e-17
1.02253e-33
-4.43157e-18
1.495e-17
-4.43295e-18
1.46511e-17
2.9478e-26
3.4212e-09
-1.20049e-10
1.26326e-08
3.06696e-09
1.26362e-08
7.47997e-09
-6.96226e-13
2.33615e-10
6.15226e-13
-6.12619e-09
8.98096e-27
-5.06543e-11
3.16663e-09
-1.26865e-08
3.11054e-09
-1.25716e-08
-1.07581e-10
-3.04535e-13
-6.34219e-09
-5.69078e-13
-6.21592e-09
-5.60519e-20
-4.77412e-12
9.84347e-13
-1.52853e-08
8.32077e-35
1.55417e-09
-5.80771e-20
3.89925e-09
-2.38417e-17
-1.14994e-26
1.38527e-12
1.64905e-17
0
2.69727e-18
-3.80013e-18
-5.03399e-19
9.7471e-18
5.80055e-20
-1.47141e-12
-9.16406e-18
-7.79756e-09
2.65491e-17
5.87432e-20
5.31552e-12
-3.69313e-09
-1.45755e-17
1.51926e-08
-1.14098e-26
-1.37921e-12
2.51209e-16
5.96034e-20
-1.88339e-17
1.08187e-26
9.37454e-18
1.17363e-19
1.14144e-18
1.37912e-12
-6.67123e-18
-5.4824e-18
7.38516e-09
-5.00978e-18
-5.95458e-20
-1.13002e-17
1.49817e-17
4.50693e-20
-3.44525e-13
2.98708e-25
1.77755e-18
1.04571e-17
6.00022e-35
-9.88823e-35
-2.10347e-09
2.10171e-20
-4.9217e-14
3.52532e-34
6.65642e-09
1.09543e-33
-4.04187e-20
2.39239e-34
6.22167e-19
8.75657e-19
-1.53766e-18
2.10308e-20
3.69498e-19
-1.46765e-19
0
-7.04904e-19
-7.72793e-19
9.68039e-19
1.05298e-35
-4.49275e-17
-2.73671e-20
3.5419e-34
3.22756e-34
-1.04847e-19
5.95982e-19
9.46223e-19
1.75592e-18
0
-6.18568e-11
0
0
-1.63566e-09
1.24911e-08
0
-4.45711e-19
-1.03736e-14
0
1.23885e-08
-2.46097e-14
1.16905e-13
9.24318e-10
-3.39897e-20
-5.94897e-34
-1.04006e-09
-3.21795e-20
8.85921e-14
4.11625e-22
-2.78968e-34
7.11166e-22
5.9061e-14
0
0
-4.32423e-18
-7.52228e-18
1.09305e-32
7.43226e-18
7.44539e-18
-1.08027e-35
-6.40941e-18
2.94459e-19
-3.68791e-18
1.03785e-17
-8.76998e-18
4.46141e-17
-9.4391e-36
-3.66931e-18
2.97506e-17
-1.25925e-26
3.58212e-09
3.49061e-09
-2.952e-10
-1.39238e-08
1.06699e-10
-1.2976e-08
7.83199e-09
7.63048e-09
1.11765e-12
5.58305e-10
9.49493e-13
-1.82905e-10
3.62368e-25
9.10532e-13
-2.46235e-08
-6.15755e-11
-1.22781e-08
2.7338e-18
-1.11832e-17
-1.17405e-12
8.96993e-11
-5.39578e-20
-2.05079e-20
5.2786e-12
3.44524e-13
2.84887e-17
0
1.46959e-08
1.22167e-08
0
-1.02574e-18
-1.29896e-17
0
1.65668e-17
1.10758e-17
-5.39217e-20
-2.56978e-19
-5.36606e-19
-2.86968e-20
-3.76546e-19
3.69426e-18
-4.70803e-18
5.21697e-20
-5.22401e-19
-5.55033e-18
7.12976e-19
1.75788e-17
5.27474e-20
1.21607e-18
5.04482e-13
7.53022e-13
1.20693e-19
-1.132e-13
-1.85791e-13
-2.21954e-18
0
1.3295e-08
2.71174e-09
-1.01049e-19
-1.84882e-17
0
1.57178e-17
0
1.90624e-10
-2.55855e-08
5.27381e-20
4.38768e-19
-3.00509e-19
1.91368e-19
-6.03145e-20
2.28928e-19
3.73573e-18
-3.94961e-19
3.41061e-18
-3.07445e-18
-5.04944e-20
-7.42116e-18
8.26792e-18
-3.34977e-19
-2.41534e-17
-1.04013e-18
6.20878e-20
2.55838e-18
-2.58934e-17
-1.56005e-33
-1.22148e-19
1.83357e-18
-2.01766e-17
1.74613e-19
8.45565e-22
6.16536e-20
0
-1.24213e-08
-3.06372e-13
6.16357e-20
-2.1824e-17
2.73179e-18
3.22734e-19
3.39661e-20
4.15156e-19
3.21625e-20
-7.96908e-20
4.16904e-24
-2.33405e-23
4.17489e-20
1.07083e-24
-1.27624e-34
3.67042e-20
0
0
0
0
0
0
0
0
0
0
0
0
0
0
0
0
0
0
0
0
0
0
0
0
0
0
0
0
-5.59548e-17
-6.1718e-34
-6.48605e-18
7.48792e-18
-2.09701e-17
7.37117e-18
-2.8011e-33
-6.24553e-18
-3.68509e-18
1.2725e-17
2.2349e-17
3.669e-25
4.38802e-18
-2.93789e-09
-2.10503e-17
-6.42952e-09
4.6262e-34
1.05555e-17
-1.85919e-17
-2.18256e-17
3.71845e-17
0
1.87027e-12
8.37373e-18
1.9788e-10
0
2.31465e-16
-5.79198e-20
-3.7438e-09
1.85168e-17
0
-1.87642e-12
-7.41568e-18
-1.14057e-19
5.63048e-19
2.79696e-18
5.88761e-18
-1.66284e-17
5.78537e-20
1.2612e-12
1.23335e-20
7.48519e-09
-1.38988e-17
-5.90187e-20
2.51011e-12
7.9885e-11
-1.91948e-12
3.43847e-10
0
-3.41903e-10
-1.26883e-08
0
1.85332e-17
0
-6.4529e-18
5.89483e-20
1.84499e-18
-4.18353e-13
7.4479e-18
-2.13161e-18
-1.69487e-10
-2.04245e-17
5.86636e-20
9.26237e-18
-1.38763e-17
-3.14707e-20
-2.46086e-13
-3.36157e-11
1.01237e-34
-3.5565e-20
-2.46086e-13
2.87013e-34
8.0674e-11
-3.14851e-20
6.4355e-19
-1.32948e-18
3.55849e-20
7.80927e-19
-2.06713e-18
-8.9528e-32
3.55052e-18
1.9951e-20
-9.303e-18
1.0169e-16
9.4152e-35
-1.99622e-17
-6.08246e-16
0
4.15447e-34
-5.62316e-20
-1.05609e-19
5.17727e-19
-1.02702e-18
-4.99546e-18
1.03544e-18
2.86542e-17
4.58364e-20
-6.27686e-11
1.5563e-24
-4.02438e-34
-9.03078e-10
3.21809e-20
5.2909e-14
-1.84122e-34
2.46088e-14
0
0
-2.1012e-17
3.7225e-18
7.4779e-18
1.11589e-17
-1.49323e-17
6.87013e-35
-1.85582e-18
-8.64524e-18
6.85775e-20
1.2668e-17
5.10088e-32
2.97163e-17
4.6776e-34
-7.3513e-18
2.96879e-17
-3.98578e-27
-3.42136e-09
1.18819e-17
4.3004e-12
1.26868e-08
3.10438e-09
1.25727e-08
-7.48013e-09
-1.47685e-17
3.73144e-18
-1.11878e-17
-5.41389e-13
-6.21605e-09
-2.9478e-26
-1.19904e-10
1.26325e-08
3.06713e-09
1.26363e-08
-6.99294e-13
2.33587e-10
6.15224e-13
-6.12619e-09
0
6.79205e-12
-3.69307e-09
-1.08772e-17
1.54366e-08
0
-1.37921e-12
2.47774e-16
-5.96015e-20
-3.8991e-09
-2.07449e-17
0
-1.34323e-12
3.85341e-18
0
1.19525e-18
1.37912e-12
-6.84112e-18
-7.97555e-18
7.38516e-09
-1.16903e-18
0
1.42937e-12
-7.59068e-18
7.79756e-09
1.5082e-17
-1.12105e-19
-4.97099e-12
-3.44529e-13
-1.52853e-08
0
1.22538e-08
-5.80761e-20
-1.11453e-17
0
8.30527e-18
5.11985e-34
1.67898e-18
1.699e-18
-5.711e-19
-9.9192e-18
-5.8006e-20
-5.53671e-18
1.74571e-17
2.90776e-20
-4.9218e-14
-1.61188e-12
7.53665e-09
0
-8.0508e-09
-2.73496e-20
1.132e-13
0
-5.9576e-09
2.22563e-33
7.03812e-20
8.05787e-21
-5.12779e-19
8.7814e-19
0
-3.69519e-19
1.54875e-18
-4.50698e-20
-1.04588e-13
2.98709e-25
2.9352e-18
8.6105e-18
0
-2.25586e-34
-1.08868e-09
0
0
-4.50521e-20
-9.45486e-20
2.41482e-34
2.2165e-19
-2.8731e-18
6.59179e-19
0
-6.09599e-19
0
9.97348e-19
3.21641e-20
9.35613e-21
4.28929e-20
0
-2.93409e-34
0
0
0
0
0
0
0
0
0
0
0
0
0
0
0
0
0
0
0
0
0
0
0
0
0
0
0
0
-2.21125e-18
0
1.66161e-17
1.49261e-17
2.98238e-17
5.9289e-22
1.49159e-17
2.2029e-33
2.16933e-18
-3.7512e-18
-7.89874e-18
2.2175e-17
1.55884e-33
-7.46994e-18
2.97765e-17
0
2.12556e-18
7.87487e-13
3.56915e-10
-1.12177e-17
6.47553e-18
1.08205e-16
5.51713e-18
8.65581e-19
2.23327e-18
-1.17606e-17
-1.30405e-17
5.54101e-18
-1.65905e-17
2.51069e-20
0
-8.97889e-19
-2.70121e-18
1.30785e-17
-6.41475e-18
1.48664e-17
-1.05311e-17
-8.33022e-18
-5.62053e-18
-1.57685e-17
0
-2.81181e-32
1.59636e-19
4.44451e-18
2.48804e-18
0
-2.07138e-17
0
-5.40427e-18
1.28431e-17
0
4.68871e-18
-1.09721e-17
0
1.08197e-18
-9.16302e-19
1.04442e-18
-9.92838e-18
5.7076e-20
-5.16841e-19
1.77381e-18
5.49306e-18
-1.75103e-17
0
6.76322e-18
1.0055e-17
-4.13563e-18
0
1.04306e-16
-6.82333e-34
3.61741e-18
0
-2.71308e-18
5.32107e-34
-1.37447e-18
-3.83307e-18
-6.22217e-18
-1.56061e-17
5.95713e-20
5.52415e-18
-8.20708e-18
1.37945e-32
1.66983e-18
3.25755e-35
3.72673e-17
-4.99185e-34
-1.22701e-18
-2.52179e-18
0
0
0
-5.59665e-17
1.1963e-33
8.80356e-20
-1.9851e-18
3.75015e-18
8.17414e-18
1.69276e-17
1.49575e-17
7.35638e-34
7.77532e-20
2.97581e-17
-5.5982e-36
-1.47926e-19
1.06984e-17
-1.85918e-17
1.28674e-17
-2.12542e-17
7.217e-18
3.01606e-35
1.21347e-17
1.84765e-18
1.77055e-19
-2.5101e-12
4.89101e-12
1.9195e-12
-3.43847e-10
0
3.42322e-10
1.26883e-08
-1.17445e-19
3.74373e-09
1.66729e-17
0
1.88873e-12
-1.48073e-17
-5.89481e-20
2.23244e-18
-2.09905e-18
5.60239e-18
-5.18227e-18
5.57653e-18
-1.38842e-17
0
-1.2612e-12
5.5578e-18
-7.48498e-09
-1.94655e-17
1.14151e-19
2.01792e-12
1.01456e-17
1.98255e-10
0
2.36115e-16
-5.79222e-20
2.03778e-17
0
-9.28528e-18
-5.70279e-20
-2.35232e-18
8.34489e-18
4.15563e-18
-2.02333e-17
-5.78517e-20
7.40732e-18
-1.29847e-17
-9.86098e-32
4.30944e-18
1.66381e-20
-9.24608e-18
1.00411e-16
0
-2.01086e-17
-6.8822e-16
-4.58299e-20
2.46086e-13
0
-8.0674e-11
0
1.0589e-18
1.02072e-18
1.98744e-18
-6.79561e-18
2.05152e-18
2.47408e-17
-9.16725e-20
-7.80927e-19
2.06713e-18
0
-2.46087e-13
-3.36157e-11
0
0
0
2.82475e-33
9.6034e-19
-1.63116e-18
3.55848e-20
0
0
0
0
0
0
0
0
0
0
0
0
0
0
0
0
0
0
0
0
0
0
0
0
0
0
1.12281e-17
-3.96306e-33
-8.57587e-18
-1.23747e-17
-3.67384e-18
-1.21095e-17
1.27675e-17
3.72851e-17
-5.60221e-33
1.49835e-17
3.72338e-18
0
2.23866e-17
-3.05729e-25
-2.10416e-18
-3.14248e-09
2.52242e-13
-4.22503e-12
-3.19432e-09
-4.20903e-18
-2.52239e-13
6.28496e-09
6.37009e-09
-6.30602e-13
-1.46713e-33
-3.84754e-18
7.23561e-18
1.57647e-19
-5.73585e-20
0
-3.71407e-18
1.11575e-17
0
1.19209e-18
-1.62418e-12
-5.41398e-13
0
-1.41947e-08
-1.26658e-08
2.12429e-18
-3.74751e-18
1.31366e-18
-6.90739e-35
-8.01605e-18
7.48125e-18
0
1.12138e-18
1.32385e-20
-5.50167e-18
-7.39276e-18
1.19281e-17
2.18153e-18
3.70041e-18
1.17776e-17
-5.80209e-20
0
-1.65914e-18
0
1.25663e-17
7.06274e-12
2.01794e-12
0
5.3021e-10
1.24686e-08
7.44756e-18
1.75103e-17
-1.15953e-19
-9.2085e-18
-5.79536e-20
3.25209e-18
-5.65728e-19
-1.82834e-18
5.50989e-18
-1.39256e-17
1.84193e-18
2.28079e-20
1.67295e-18
-7.26828e-19
0
0
-1.13737e-18
0
7.57368e-19
-2.28275e-20
-3.84415e-19
-6.09611e-19
-3.37711e-20
-1.14315e-18
2.09587e-18
-1.15549e-19
6.39833e-13
-1.96876e-13
-1.29656e-08
0
-2.62407e-08
8.95084e-20
0
1.91547e-33
-2.68073e-19
-7.12543e-18
-5.39581e-18
2.28122e-17
8.95223e-20
0
0
0
0
2.1545e-18
4.30899e-18
1.68515e-17
7.50266e-18
5.23437e-17
-3.73873e-18
2.24039e-17
-1.40811e-33
-2.03991e-18
1.1217e-17
1.65752e-17
2.23321e-17
-1.42683e-33
-1.85566e-17
3.72442e-17
0
-1.9083e-18
-2.26853e-18
-9.24554e-18
8.36737e-18
-8.30914e-18
7.45146e-18
0
-2.54617e-17
-1.38772e-17
8.42397e-18
-1.20102e-17
1.86817e-18
0
2.05484e-12
1.4739e-08
-4.63472e-18
3.44525e-12
-7.00552e-11
1.79466e-18
1.01123e-18
-1.55329e-17
-4.59978e-18
3.68742e-18
-8.25351e-18
5.56963e-18
5.97622e-20
5.25358e-18
-3.44524e-12
-5.21637e-18
0
-9.40631e-10
1.1919e-19
4.1351e-18
1.46883e-17
0
-2.47345e-18
-2.73945e-18
-1.19464e-19
2.66342e-18
-3.44044e-20
-4.95739e-18
-4.07248e-18
-5.95772e-20
1.55068e-18
-1.84649e-18
-5.14604e-18
-1.09996e-17
0
-2.52426e-18
6.36529e-18
2.88508e-18
0
-8.84811e-17
5.70993e-20
9.21778e-18
0
-1.7735e-18
-1.082e-19
-4.06014e-19
7.32947e-18
3.4262e-18
3.77962e-18
-1.14154e-19
7.17228e-18
-6.51828e-18
2.43458e-32
1.32986e-18
0
5.17792e-17
-2.67175e-34
-7.1582e-19
-6.8163e-19
0
0
0
0
0
0
0
0
0
0
0
0
0
0
0
0
0
0
0
0
0
0
0
0
-3.90339e-18
0
2.11346e-17
-1.4901e-17
2.24272e-17
1.11088e-17
1.48579e-17
1.13393e-24
-3.57491e-09
3.40995e-09
-3.0698e-09
-4.09138e-13
3.36311e-09
2.22504e-12
-7.80004e-09
7.45709e-09
4.09127e-13
6.13995e-09
-2.22505e-12
-6.72686e-09
-3.57056e-24
-3.01964e-09
-6.58865e-09
5.89134e-20
-1.36879e-10
-2.01792e-12
-9.99727e-13
8.32326e-26
1.25485e-08
6.00439e-20
1.78324e-25
-1.54624e-08
-3.35117e-10
5.85691e-12
-5.8569e-12
0
6.30598e-13
5.57062e-18
2.72762e-10
-1.67094e-17
-1.19873e-19
9.40541e-18
-3.33383e-17
9.11686e-20
5.59188e-18
2.33888e-26
1.5433e-08
3.74055e-12
-3.01253e-09
5.87907e-13
4.67124e-18
5.6935e-16
-1.45608e-17
1.23735e-18
-5.87539e-13
6.02504e-09
-1.9209e-18
-2.24177e-17
9.62342e-09
0
0
1.04366e-09
-2.65097e-20
-9.84317e-14
1.35348e-13
0
-1.51049e-08
2.9531e-13
4.93288e-18
0
3.89804e-18
-1.2479e-33
-7.27083e-22
-1.28164e-18
3.79618e-18
4.38497e-19
-1.44221e-08
5.6963e-20
0
1.35229e-08
-5.59015e-20
-1.03357e-12
-1.66111e-12
-3.93743e-13
0
-1.47903e-08
2.00065e-09
-1.5996e-13
1.43496e-17
-1.13951e-19
8.10691e-18
5.58742e-20
2.14618e-18
-2.02217e-18
-8.18664e-19
1.65427e-17
8.96632e-19
-4.02879e-18
1.6089e-24
0
-4.44817e-34
0
0
0
0
0
1.12281e-17
4.43523e-33
2.15114e-19
-6.33362e-18
-1.1215e-17
1.22531e-17
0
2.23868e-17
1.28972e-33
-1.80099e-18
-3.76048e-17
1.2571e-17
2.23163e-17
6.17805e-34
-2.10601e-18
-1.48885e-17
7.98646e-18
1.5032e-17
5.58719e-25
-3.15677e-09
9.24878e-13
-1.4609e-11
-3.31548e-09
-9.24881e-13
6.31447e-09
6.56798e-09
-1.84977e-12
6.92129e-18
5.80213e-20
0
6.03419e-18
-1.9223e-18
-1.76517e-24
6.01531e-18
-1.61824e-11
-4.92176e-12
0
-1.53204e-08
6.73852e-11
-8.73462e-18
2.00334e-19
1.09836e-17
5.79788e-20
8.57359e-18
-1.08202e-18
0
4.3509e-18
-1.66015e-18
1.86961e-18
0
-7.39541e-18
-3.30122e-18
-5.60543e-18
1.52567e-18
8.14256e-34
0
1.20903e-17
1.09576e-19
-1.39809e-19
4.4296e-12
1.23043e-12
0
2.84887e-08
3.71132e-10
-1.48806e-17
-1.24385e-18
0
1.76691e-17
0
-1.0171e-18
5.37027e-19
2.78567e-18
-1.37097e-17
1.82717e-17
-5.59035e-18
5.77677e-20
4.9218e-13
-2.05485e-12
1.1351e-09
0
-1.47112e-08
0
-2.95304e-13
0
-1.03219e-08
5.77735e-20
-1.75884e-19
-2.07653e-18
-3.99849e-18
2.06629e-17
-4.47606e-20
3.79449e-19
-2.29664e-18
-2.28048e-20
1.80525e-18
-7.26809e-19
0
3.37459e-20
0
0
1.25758e-18
-1.3403e-18
3.3763e-20
0
0
0
0
0
0
0
0
0
0
0
0
0
0
0
0
0
0
0
0
-1.27658e-17
2.36793e-22
7.56128e-18
-7.54436e-18
7.43118e-18
9.86826e-34
1.05316e-17
-1.06212e-17
-1.68802e-21
-1.23577e-17
0
1.49451e-17
1.50046e-33
-9.22516e-20
-1.13499e-17
1.84765e-19
3.11028e-17
5.86465e-20
-1.14342e-17
-3.63789e-09
9.13792e-18
-1.18348e-16
0
-7.47259e-13
4.75611e-16
0
3.98673e-09
1.09899e-17
0
4.8459e-12
-1.29032e-17
5.86033e-20
-2.1883e-18
7.47494e-13
-1.08157e-19
1.53994e-17
7.27505e-09
-2.46618e-17
0
-3.86769e-12
1.77112e-18
-7.9688e-09
-1.83564e-17
0
4.99557e-18
-4.53877e-18
-3.68625e-18
-9.39574e-18
6.74073e-18
-7.37272e-18
-1.34031e-18
-9.18468e-18
2.76379e-18
0
1.32736e-17
7.37124e-18
2.09034e-24
8.85908e-13
1.07005e-18
1.58342e-08
-1.26099e-33
-6.74877e-19
0
-2.55102e-33
7.36347e-10
3.00229e-12
-1.1969e-33
-2.53267e-18
2.75909e-18
1.58573e-17
-6.01116e-18
6.08502e-20
-9.21924e-18
8.13233e-19
7.69121e-25
5.62266e-18
1.8433e-17
-1.26614e-17
0
4.70516e-16
5.78072e-20
-5.38477e-18
-3.72345e-18
0
-1.12081e-17
-3.62737e-18
5.9119e-20
-6.80103e-19
5.82884e-20
-6.97692e-18
-3.34748e-17
5.77872e-20
-9.11912e-19
3.77906e-18
2.11197e-18
-9.10253e-19
-2.31502e-09
-1.09997e-24
0
-5.34186e-20
-3.69134e-14
-2.65776e-12
0
-2.00346e-08
1.45099e-18
8.55147e-34
-2.6716e-20
6.55609e-19
-7.72434e-19
6.10965e-18
0
0
0
0
0
0
-1.2649e-17
0
-4.67233e-17
3.47331e-18
7.77624e-18
7.37557e-18
1.4977e-17
1.39889e-24
3.47664e-09
-5.96452e-11
7.59212e-09
-1.1772e-10
-1.72327e-24
-1.17696e-10
-3.17591e-09
-4.64735e-10
1.31654e-10
-6.0947e-10
-2.52554e-10
-3.88614e-13
6.37568e-09
-1.46525e-12
-2.99607e-10
-4.35487e-27
-1.48593e-08
3.83899e-12
-3.26277e-09
-1.38801e-08
-2.96537e-12
-1.34868e-08
1.24275e-12
6.43824e-10
-5.62135e-18
9.06457e-20
7.30067e-13
6.47806e-09
9.97633e-19
-3.36052e-18
1.0463e-18
-1.24663e-17
-5.89154e-20
-3.9782e-09
4.92178e-12
-3.61545e-12
1.07934e-25
-4.92794e-12
-6.0046e-20
5.45192e-26
-1.23652e-08
3.83899e-12
5.88662e-20
1.84977e-12
5.57051e-18
7.95089e-09
-2.78146e-18
5.99314e-20
-4.44538e-18
7.49551e-18
1.44224e-08
5.69607e-20
0
-1.29041e-08
-1.34539e-08
-5.58958e-20
5.41399e-13
-6.69362e-12
1.91559e-18
0
-3.07104e-08
-3.339e-17
4.42958e-13
2.33782e-13
1.45337e-18
0
-1.78094e-18
2.04779e-18
-5.58794e-20
4.29354e-18
-3.2416e-18
-1.82378e-18
2.10579e-18
-3.57347e-18
-4.77408e-18
1.00109e-18
-9.3585e-09
-4.29397e-20
0
0
-9.84321e-14
1.51344e-12
0
3.89838e-09
6.76932e-18
4.29485e-20
0
-5.94501e-20
-3.61659e-19
5.45324e-18
-2.53208e-24
0
-3.27216e-34
0
0
0
0
0
0
0
0
0
0
0
0
0
0
0
0
0
-1.50431e-17
3.61996e-35
8.54741e-18
4.2674e-18
1.31669e-19
1.52287e-17
-1.04127e-34
-2.67912e-19
1.15458e-19
-8.54722e-18
2.26234e-17
7.67123e-25
3.44091e-09
-1.16277e-11
-1.44864e-08
1.57497e-12
-1.78414e-12
2.59838e-08
-1.15777e-10
1.28028e-08
-1.42909e-08
7.52748e-09
-1.47976e-19
-1.00868e-17
-1.05796e-18
-1.92295e-18
-2.31607e-18
7.57225e-18
9.74103e-13
2.47513e-10
-2.25752e-24
3.53152e-09
-3.50035e-09
-1.31762e-08
-1.34499e-10
-1.2919e-08
7.70624e-09
2.76542e-12
6.97274e-09
-3.61955e-13
2.79e-10
-1.15154e-19
-1.3123e-17
2.80541e-12
7.38264e-13
1.15325e-17
0
1.46998e-08
2.73466e-11
0
1.11069e-17
0
-9.20754e-18
7.46827e-34
-2.44386e-18
5.16054e-19
-2.76973e-18
1.53262e-17
-3.95366e-18
-4.53942e-24
0
5.59262e-18
-8.32373e-18
-6.32892e-18
-5.68918e-20
0
1.49189e-18
1.29414e-17
-6.0256e-20
-7.9613e-18
9.84345e-13
0
-1.22319e-08
-3.06353e-18
-2.20921e-17
-8.67699e-18
5.68637e-20
-1.61646e-19
2.02912e-17
6.00892e-20
-1.02076e-18
-2.77438e-18
6.97766e-18
-8.03712e-20
-7.26559e-18
4.41233e-20
-8.85922e-13
1.45147e-08
0
-5.95692e-20
0
1.52295e-17
-1.00838e-17
-8.82388e-20
7.81086e-19
1.03592e-17
-1.1518e-33
2.94875e-17
-4.04794e-18
0
1.96877e-13
-1.16893e-12
8.18682e-10
0
-1.30714e-08
0
2.95303e-13
0
8.31793e-09
-5.66996e-20
-1.21222e-19
-4.96814e-18
-1.2148e-17
1.57412e-17
0
-2.87327e-19
7.26349e-18
0
0
0
0
0
0
-4.67597e-17
-7.54436e-18
-1.49769e-17
1.49704e-17
7.56128e-18
-4.78207e-34
-1.05318e-17
-8.34863e-18
-1.9036e-17
3.00021e-17
-7.46203e-32
1.46546e-17
5.3701e-35
2.4265e-18
1.39513e-21
0
-8.01642e-19
0
-3.81992e-09
-3.06483e-12
-6.4482e-18
5.70859e-22
3.7366e-18
7.373e-18
-6.57982e-18
4.08212e-18
2.48037e-12
7.63704e-09
-6.44954e-18
0
-1.4195e-19
7.37129e-18
-7.8437e-18
-4.6154e-18
1.17296e-19
-7.77641e-12
1.30451e-10
9.041e-18
-1.50616e-08
0
8.40974e-13
-6.35925e-17
-5.92915e-20
1.66674e-17
0
-1.56997e-17
-3.8372e-25
-5.77451e-18
-8.40802e-13
1.01739e-17
1.50867e-17
-2.60313e-10
-1.17504e-17
-5.9194e-20
9.38673e-18
-1.47019e-17
0
7.4811e-12
9.37603e-18
1.53931e-08
0
-6.89466e-17
0
1.93066e-19
3.78977e-12
0
-2.08313e-18
1.49221e-08
-6.0875e-20
-1.18122e-12
-2.00562e-12
5.42951e-34
7.66536e-10
-1.35604e-08
-1.18233e-19
-1.13796e-18
-9.23244e-19
3.89688e-18
-1.35093e-17
5.7778e-20
0
1.10372e-18
-3.02066e-18
-6.23306e-18
6.08466e-20
1.47466e-18
-9.75745e-19
-4.98958e-18
3.80395e-19
-2.09046e-24
-1.34118e-12
2.60098e-34
-1.18726e-08
5.93527e-20
9.83999e-19
-3.69019e-18
6.53188e-09
2.75984e-25
0
2.67045e-20
-4.92183e-14
4.79873e-13
0
-9.88229e-11
-2.31597e-09
-1.57207e-24
0
5.66003e-13
7.18787e-19
-2.09198e-18
0
0
0
0
0
0
0
0
0
0
0
0
0
0
-2.10937e-17
-1.09905e-18
-4.65436e-17
1.06477e-19
2.23011e-17
3.42252e-18
-1.56408e-19
2.51125e-25
1.27322e-17
3.12756e-09
-1.75062e-17
6.82365e-09
4.81153e-34
-1.48145e-17
1.46719e-17
-4.74955e-20
1.62418e-12
1.26736e-12
-4.38959e-18
-1.76604e-19
9.84267e-14
2.20249e-12
-1.04182e-10
0
-9.91229e-09
1.15592e-08
1.09336e-19
-3.7296e-09
-1.09551e-17
0
-9.18739e-13
1.19553e-17
0
-1.43494e-08
1.48005e-08
1.17734e-19
1.84519e-18
-2.22411e-18
-4.74977e-20
1.05351e-18
5.49644e-19
-5.03322e-18
6.51487e-18
2.02812e-17
3.01932e-18
6.83009e-18
1.24947e-17
-1.09218e-19
9.24888e-13
-5.47741e-18
7.45874e-09
1.37689e-17
-5.9608e-20
4.38039e-12
-3.86344e-09
5.99531e-18
5.56776e-10
0
-2.91334e-12
4.63318e-18
-1.17906e-19
-1.93408e-18
0
5.14906e-22
4.35274e-26
1.98843e-18
2.91307e-12
2.91637e-18
-1.94044e-17
7.72549e-09
-4.8667e-18
0
3.9657e-18
-4.97307e-20
0
-4.51745e-18
8.24396e-13
6.19747e-18
0
6.24426e-09
5.64763e-20
-1.94717e-17
0
2.14568e-17
-3.66044e-20
-1.44684e-18
-1.87353e-18
8.17872e-18
5.3409e-18
0
-7.78311e-18
2.92677e-17
9.70117e-25
0
-6.33989e-17
-3.92881e-18
-5.71633e-34
7.78429e-18
-1.90833e-18
3.82925e-26
0
1.02948e-34
-2.79296e-24
0
-4.67105e-34
0
0
0
0
0
0
0
-1.47276e-17
-9.4055e-35
-8.54741e-18
-8.54429e-18
-1.49664e-17
-1.31669e-19
-8.54722e-18
1.50823e-17
2.0092e-34
-3.34716e-18
1.52287e-17
4.99177e-25
4.325e-18
3.53146e-09
-3.50001e-09
-1.31757e-08
5.48573e-12
-1.29198e-08
1.436e-17
7.70624e-09
2.67314e-12
6.97267e-09
-2.0161e-18
-1.46424e-17
2.08082e-34
1.84527e-18
1.41506e-16
-1.84569e-13
1.96871e-12
1.21813e-08
8.58644e-12
1.28036e-08
1.42911e-08
1.1192e-18
-3.16453e-18
-1.9818e-18
2.12839e-18
3.58756e-19
6.50118e-18
-3.71542e-18
-7.48873e-18
-6.83749e-18
-5.68931e-20
0
3.81123e-18
2.36733e-18
-6.02516e-20
-9.69597e-18
-6.6285e-18
0
8.65063e-17
-1.66054e-17
-1.18275e-18
-5.89615e-20
0
-1.02599e-17
-1.10543e-17
1.51802e-17
1.11334e-17
-9.49043e-18
-1.42602e-34
1.20722e-17
5.04081e-18
0
-3.36682e-18
3.97012e-18
3.70869e-18
-6.30959e-20
-1.60928e-19
5.89297e-20
-1.30737e-17
-2.73059e-18
4.11546e-18
7.43939e-18
0
-1.39132e-18
9.23019e-19
0
-4.59376e-17
-5.7904e-16
-5.7558e-20
3.74918e-18
9.26735e-19
6.12939e-18
1.84674e-17
1.44393e-24
3.4452e-13
-6.89054e-13
8.18233e-10
0
-1.33039e-08
0
1.47651e-13
-5.95565e-20
2.37476e-12
5.41385e-13
0
8.31529e-09
0
1.45153e-08
1.33864e-08
1.21325e-33
2.02525e-18
-2.90499e-18
-2.91587e-18
2.75942e-17
-3.70069e-20
-3.07554e-19
-1.19098e-19
1.2716e-18
-3.03463e-18
4.74255e-18
-1.07431e-18
1.11575e-17
0
0
-4.41214e-20
0
0
0
0
0
0
0
0
0
0
0
-1.90021e-17
2.23834e-34
-1.29367e-19
-4.19338e-18
-1.51945e-17
-5.18865e-19
3.28004e-17
6.97843e-18
-4.58003e-34
-2.17194e-17
-1.52927e-17
-1.67567e-17
3.80426e-17
0
2.54946e-17
1.67341e-12
3.0523e-10
-7.37877e-18
2.21481e-12
-1.28483e-08
1.11826e-17
-1.74521e-17
4.18867e-18
-8.46798e-18
-1.20223e-17
2.63412e-18
-1.58007e-17
3.67912e-18
0
-3.70149e-18
2.22017e-17
-4.85095e-24
7.08583e-25
-5.96624e-20
-3.14083e-17
0
0
3.48237e-20
-1.47646e-13
0
1.29808e-08
-9.92187e-34
-1.00388e-33
7.04926e-19
1.73911e-18
3.48348e-20
1.06291e-18
-1.54122e-17
5.90194e-20