/*--------------------------------*- C++ -*----------------------------------*\
| =========                 |                                                 |
| \\      /  F ield         | OpenFOAM: The Open Source CFD Toolbox           |
|  \\    /   O peration     | Version:  5.x                                   |
|   \\  /    A nd           | Web:      www.OpenFOAM.org                      |
|    \\/     M anipulation  |                                                 |
\*---------------------------------------------------------------------------*/
FoamFile
{
    version     2.0;
    format      ascii;
    class       volScalarField;
    location    "0.6";
    object      nut;
}
// * * * * * * * * * * * * * * * * * * * * * * * * * * * * * * * * * * * * * //

dimensions      [0 2 -1 0 0 0 0];

internalField   nonuniform List<scalar> 
12160
(
9.76166e-10
9.00094e-10
6.73195e-08
9.96741e-10
4.94348e-08
6.5071e-08
1.01852e-09
1.99084e-08
1.29866e-07
3.00559e-08
1.14188e-09
1.75286e-08
2.57267e-08
5.34148e-08
2.86072e-08
1.24448e-09
1.29477e-08
1.95342e-08
2.52801e-08
4.9154e-08
1.22968e-08
1.45502e-09
1.17001e-08
1.35522e-08
1.70321e-08
4.71256e-08
3.62228e-08
1.19535e-08
1.69859e-09
1.05531e-08
1.19163e-08
1.20311e-08
1.98916e-08
3.78138e-08
1.11013e-08
4.20507e-09
2.04782e-09
1.09921e-08
1.0581e-08
1.05531e-08
1.25919e-08
1.72565e-08
3.20022e-08
8.54898e-09
1.90237e-09
2.50478e-09
1.15922e-08
1.09597e-08
9.59268e-09
1.08844e-08
1.12164e-08
1.48945e-08
8.82416e-09
3.08293e-09
3.82077e-09
3.10768e-09
1.30039e-08
1.15495e-08
1.00275e-08
9.94926e-09
9.07415e-09
9.21783e-09
5.15324e-09
3.33126e-09
2.19931e-09
1.1292e-09
3.89613e-09
1.50085e-08
1.29643e-08
1.07219e-08
1.0529e-08
8.20681e-09
8.33983e-09
4.32168e-09
2.04497e-09
1.97605e-09
1.9885e-09
2.22247e-09
4.92534e-09
1.77731e-08
1.49777e-08
1.21326e-08
1.13768e-08
8.52534e-09
8.3738e-09
4.1517e-09
1.63279e-09
2.35606e-09
1.47189e-09
2.24947e-09
3.45356e-09
6.26678e-09
2.14277e-08
1.77507e-08
1.41103e-08
1.29926e-08
9.18504e-09
9.5925e-09
4.34012e-09
1.43349e-09
2.41345e-09
1.57852e-09
2.71353e-09
3.33706e-09
2.74398e-09
8.01516e-09
2.61826e-08
2.14137e-08
1.68086e-08
1.52118e-08
1.04244e-08
1.10369e-08
4.56084e-09
1.34048e-09
2.84732e-09
1.61109e-09
1.26375e-09
6.21742e-09
9.60526e-09
3.64138e-09
1.02986e-08
3.22928e-08
2.61803e-08
2.0363e-08
1.82046e-08
1.21642e-08
1.30598e-08
4.63568e-09
1.38136e-09
4.38032e-09
9.8646e-10
1.08532e-09
5.55338e-09
5.56536e-09
1.03657e-08
1.32936e-08
4.00669e-08
3.23108e-08
2.49873e-08
2.21176e-08
1.45308e-08
1.55079e-08
4.59236e-09
1.50866e-09
4.34884e-09
9.05649e-10
1.09839e-09
8.0622e-09
4.03444e-09
7.51709e-09
1.72584e-08
4.98402e-08
4.01265e-08
3.09445e-08
2.71896e-08
1.76554e-08
1.854e-08
4.48014e-09
1.79209e-09
3.20631e-09
1.00257e-09
1.40586e-09
5.92751e-09
3.24238e-09
3.98861e-09
2.25895e-08
6.19358e-08
4.99872e-08
3.85644e-08
3.37174e-08
2.1736e-08
2.23256e-08
4.35582e-09
2.28422e-09
2.80203e-09
1.15984e-09
2.2005e-09
7.08354e-09
4.61697e-09
4.32975e-09
2.99545e-08
7.65446e-08
6.2255e-08
4.82275e-08
4.20855e-08
2.70191e-08
2.71237e-08
4.24734e-09
3.14695e-09
2.73767e-09
1.409e-09
3.56217e-09
1.02561e-08
9.12839e-09
6.27367e-09
4.06066e-08
9.34999e-08
7.71937e-08
6.03412e-08
5.27629e-08
3.3818e-08
3.32583e-08
4.16639e-09
4.5643e-09
2.88134e-09
1.80381e-09
5.50539e-09
1.22672e-08
1.93205e-08
1.47874e-08
5.71346e-08
1.11958e-07
9.47529e-08
7.52679e-08
6.63118e-08
4.25066e-08
4.11553e-08
4.1192e-09
6.9422e-09
3.14286e-09
2.45714e-09
7.84395e-09
1.26652e-08
1.65949e-08
5.15111e-08
8.5201e-08
1.30107e-07
1.14244e-07
9.31311e-08
8.33703e-08
5.35155e-08
5.13835e-08
4.11022e-09
1.05438e-08
3.44571e-09
3.50857e-09
1.05328e-08
1.2914e-08
1.39151e-08
2.53165e-08
1.31143e-07
1.45067e-07
1.33913e-07
1.13496e-07
1.04527e-07
6.72929e-08
6.47464e-08
4.1463e-09
1.51922e-08
3.69583e-09
5.25204e-09
1.35642e-08
1.33674e-08
1.33143e-08
1.91307e-08
1.3835e-07
1.537e-07
1.5059e-07
1.34768e-07
1.30021e-07
8.41817e-08
8.24405e-08
4.24206e-09
1.97983e-08
3.85526e-09
7.9778e-09
1.63955e-08
1.44382e-08
1.3565e-08
1.79157e-08
9.97113e-08
1.53895e-07
1.60441e-07
1.53568e-07
1.58823e-07
1.04114e-07
1.06347e-07
4.4282e-09
2.19703e-08
3.97264e-09
1.19968e-08
1.96212e-08
1.64595e-08
1.46743e-08
1.81897e-08
6.62645e-08
1.45842e-07
1.60694e-07
1.6513e-07
1.86877e-07
1.25924e-07
1.39588e-07
4.76449e-09
2.04562e-08
4.10912e-09
1.7677e-08
2.41015e-08
1.97699e-08
1.6794e-08
1.96852e-08
4.70393e-08
1.31927e-07
1.51546e-07
1.65611e-07
2.05798e-07
1.46382e-07
1.86981e-07
5.38476e-09
1.68612e-08
4.31286e-09
2.5469e-08
3.06807e-08
2.49241e-08
2.02063e-08
2.25216e-08
3.50693e-08
1.153e-07
1.36031e-07
1.55139e-07
2.06777e-07
1.5971e-07
2.53254e-07
6.60976e-09
1.33728e-08
4.64281e-09
3.64104e-08
4.01019e-08
3.29672e-08
2.54607e-08
2.71023e-08
2.70013e-08
9.84768e-08
1.17926e-07
1.37722e-07
1.89671e-07
1.60513e-07
3.23301e-07
9.43736e-09
1.04451e-08
5.26156e-09
5.25722e-08
5.1982e-08
4.61797e-08
3.3573e-08
3.42481e-08
2.12491e-08
8.30073e-08
1.00041e-07
1.18031e-07
1.63299e-07
1.48722e-07
3.28506e-07
1.93422e-08
8.52797e-09
6.50259e-09
7.26984e-08
6.16121e-08
6.99225e-08
4.64765e-08
4.55347e-08
1.69896e-08
6.95436e-08
8.38953e-08
9.91476e-08
1.36042e-07
1.29779e-07
2.62498e-07
1.19123e-07
7.51957e-09
9.26149e-09
7.10009e-08
6.50476e-08
1.18697e-07
6.86887e-08
6.44226e-08
1.37523e-08
5.81913e-08
7.00218e-08
8.24965e-08
1.11834e-07
1.09355e-07
1.95863e-07
1.57674e-08
7.28353e-09
1.77391e-08
5.10271e-08
6.29045e-08
2.01751e-07
1.07122e-07
1.00203e-07
1.12456e-08
4.87857e-08
5.84267e-08
6.8437e-08
9.16677e-08
9.05832e-08
1.48004e-07
8.92424e-09
7.75117e-09
3.98421e-08
3.98786e-08
6.30324e-08
1.66961e-07
1.5718e-07
1.84368e-07
9.27757e-09
4.1065e-08
4.88806e-08
5.68327e-08
7.52989e-08
7.45446e-08
1.14603e-07
6.64278e-09
8.94753e-09
1.50225e-08
3.75237e-08
6.61741e-08
1.11774e-07
1.76007e-07
4.94164e-07
7.71605e-09
3.47584e-08
4.10821e-08
4.73652e-08
6.21409e-08
6.13174e-08
9.06955e-08
5.59033e-09
1.09239e-08
8.80983e-09
4.27217e-08
6.8056e-08
8.9382e-08
1.772e-07
1.03491e-06
6.46621e-09
2.96129e-08
3.4734e-08
3.96817e-08
5.15893e-08
5.0586e-08
7.30775e-08
5.03389e-09
1.35483e-08
6.54203e-09
5.69969e-08
6.54134e-08
8.5309e-08
1.87434e-07
5.61217e-07
5.45942e-09
2.54216e-08
2.95679e-08
3.34573e-08
4.31204e-08
4.19385e-08
5.9752e-08
4.7177e-09
1.64589e-08
5.47328e-09
7.37416e-08
6.24501e-08
9.57435e-08
1.98264e-07
5.00557e-07
4.64231e-09
2.19896e-08
2.53664e-08
2.84101e-08
3.63059e-08
3.49847e-08
4.9471e-08
4.53296e-09
1.91145e-08
4.9226e-09
6.42581e-08
6.12799e-08
1.26701e-07
1.94093e-07
5.55989e-07
3.98003e-09
1.92408e-08
2.19299e-08
2.43147e-08
3.08015e-08
2.93897e-08
4.142e-08
4.4282e-09
2.03646e-08
4.60952e-09
4.6851e-08
5.96494e-08
1.72208e-07
1.85872e-07
6.79456e-07
1.68103e-08
3.13148e-09
1.91782e-08
2.09723e-08
2.6343e-08
2.48779e-08
3.50394e-08
4.37639e-09
1.94794e-08
4.41189e-09
3.41246e-08
5.40638e-08
1.4223e-07
1.69201e-07
9.63205e-07
1.67451e-08
1.39924e-08
2.32749e-09
1.8293e-08
2.27061e-08
2.12308e-08
2.99309e-08
4.36297e-09
1.68427e-08
4.2793e-09
2.55753e-08
4.56671e-08
8.81878e-08
1.2764e-07
5.63669e-07
1.59463e-08
1.3928e-08
1.13105e-08
1.8008e-09
1.97941e-08
1.82676e-08
2.58041e-08
4.37981e-09
1.35656e-08
4.1755e-09
1.93074e-08
3.68861e-08
5.87662e-08
8.62431e-08
2.35744e-07
1.72148e-08
1.32177e-08
1.1242e-08
9.61321e-09
1.45617e-09
1.5883e-08
2.24381e-08
4.42224e-09
1.04698e-08
4.07048e-09
1.44968e-08
2.9608e-08
4.22752e-08
5.93903e-08
1.296e-07
1.38396e-08
1.42487e-08
1.05977e-08
9.53048e-09
8.6436e-09
1.22016e-09
1.96913e-08
4.48743e-09
7.91802e-09
3.93431e-09
1.08211e-08
2.42497e-08
3.22644e-08
4.31216e-08
8.3586e-08
1.73196e-08
1.14821e-08
1.13884e-08
8.92466e-09
8.55601e-09
7.97681e-09
1.0569e-09
4.57522e-09
5.95971e-09
3.74118e-09
8.04847e-09
2.03352e-08
2.56612e-08
3.29332e-08
5.93304e-08
4.66632e-09
1.44995e-08
9.21879e-09
9.53701e-09
7.94867e-09
7.92512e-09
6.67663e-09
9.51543e-10
4.5282e-09
3.49011e-09
5.99024e-09
1.74391e-08
2.11272e-08
2.61826e-08
4.47776e-08
3.50367e-09
4.73745e-09
1.15266e-08
7.8249e-09
8.48154e-09
7.32332e-09
7.1063e-09
3.50026e-09
8.13768e-10
3.18873e-09
4.47737e-09
1.52663e-08
1.78957e-08
2.1543e-08
3.5429e-08
2.89671e-09
2.36994e-09
5.05784e-09
9.38464e-09
7.09273e-09
7.88525e-09
6.69366e-09
4.501e-09
3.35882e-09
1.73726e-09
3.41341e-09
1.34777e-08
1.5596e-08
1.82531e-08
2.90392e-08
2.7551e-09
2.7725e-09
1.78906e-09
5.21091e-09
8.03861e-09
6.81663e-09
7.4162e-09
5.21594e-09
2.73547e-09
2.34672e-09
8.82009e-10
1.15662e-08
1.3975e-08
1.5951e-08
2.45785e-08
1.04312e-08
1.8871e-09
3.05412e-09
1.56711e-09
5.25065e-09
7.39261e-09
6.92421e-09
6.31522e-09
3.5388e-09
4.96764e-09
1.93657e-09
1.05893e-09
1.30052e-08
1.43597e-08
2.14876e-08
1.29432e-08
8.42464e-09
1.40139e-09
4.01752e-09
1.57031e-09
5.35267e-09
7.59172e-09
7.11457e-09
4.35281e-09
4.2826e-09
5.05814e-09
2.5743e-09
1.20807e-09
3.01214e-10
1.34209e-08
1.93732e-08
1.31195e-08
1.31082e-08
5.48337e-09
1.17429e-09
8.72652e-09
1.7006e-09
5.80824e-09
9.3473e-09
6.22698e-09
3.13698e-09
5.43285e-09
5.68007e-09
9.36689e-10
1.57849e-09
2.28683e-09
2.81356e-10
1.81279e-08
1.76016e-08
1.31985e-08
1.29951e-08
3.33102e-09
1.07354e-09
5.54273e-09
1.93218e-09
7.8661e-09
1.18331e-08
3.94414e-09
3.03866e-09
6.16766e-09
7.42731e-10
1.1059e-09
1.48078e-09
3.65761e-09
8.18821e-09
2.83714e-10
1.76295e-08
1.4071e-08
1.27998e-08
2.00899e-09
1.04043e-09
3.05222e-09
2.35575e-09
2.0475e-08
5.96993e-09
2.17156e-09
3.88196e-09
8.36235e-10
9.99367e-10
1.13817e-09
1.22651e-09
2.09029e-09
5.70014e-09
3.89094e-09
2.97431e-10
1.91649e-08
1.76414e-08
1.10757e-08
1.37022e-09
1.09794e-09
2.42735e-09
3.00309e-09
9.26686e-09
2.57434e-09
2.18421e-09
1.02306e-09
1.06862e-09
8.9919e-10
9.43379e-10
1.06796e-09
1.48549e-09
2.53282e-09
3.81038e-09
2.88736e-09
3.09643e-10
2.63978e-08
2.30241e-08
8.00954e-09
1.13249e-09
1.27099e-09
2.19405e-09
3.48168e-09
3.32869e-09
1.653e-09
1.2451e-09
1.10038e-09
8.44873e-10
8.51391e-10
9.22869e-10
3.02617e-09
1.61773e-09
1.53359e-09
2.1639e-09
2.68127e-09
2.36462e-09
3.30677e-10
6.16921e-08
1.14186e-08
7.40756e-09
1.0691e-09
1.50671e-09
2.03483e-09
2.84267e-09
1.96201e-09
1.41647e-09
1.1666e-09
9.04652e-10
9.34821e-10
8.20742e-10
2.44234e-09
1.6819e-09
4.36113e-09
1.64256e-09
7.66911e-10
7.34895e-10
2.63288e-09
1.48894e-09
1.92119e-09
2.25532e-09
1.91544e-09
3.57175e-10
1.7863e-08
5.91554e-09
8.75671e-09
1.09752e-09
1.42817e-09
1.81527e-09
2.01423e-09
1.67454e-09
1.2163e-09
1.04163e-09
9.82621e-10
8.2465e-10
1.63096e-09
4.5413e-09
1.65567e-09
2.76144e-09
3.43425e-09
1.73132e-09
1.13131e-09
1.15764e-09
3.6317e-09
1.77319e-09
1.95634e-09
3.04023e-09
1.62284e-09
1.89544e-09
1.80301e-09
1.68477e-09
3.93473e-10
7.97455e-09
4.0468e-09
9.41463e-09
1.26819e-09
1.31897e-09
1.50144e-09
1.74612e-09
1.38993e-09
1.14214e-09
1.03165e-09
9.40797e-10
1.28359e-09
5.40301e-09
2.55729e-09
2.4792e-09
1.53236e-09
1.48704e-09
3.0803e-09
2.88111e-09
4.36901e-09
5.36548e-09
3.66333e-09
3.26658e-09
3.48266e-09
2.85254e-09
3.04349e-09
2.96371e-09
3.56899e-09
1.7062e-09
1.58173e-09
1.52756e-09
1.52971e-09
4.41077e-10
5.24389e-09
3.24752e-09
7.64934e-09
1.71995e-09
1.24505e-09
1.28959e-09
1.50512e-09
1.29793e-09
1.03427e-09
1.09137e-09
1.03695e-09
5.67469e-09
1.11661e-09
1.081e-09
7.79778e-10
7.70243e-10
2.33967e-09
2.24956e-09
2.12438e-09
2.01916e-09
2.67214e-09
2.24236e-09
1.49509e-09
2.18364e-09
1.4043e-09
5.44315e-09
5.35449e-09
2.74961e-09
2.83501e-09
2.6855e-09
2.74488e-09
2.65225e-09
2.71409e-09
2.77046e-09
2.23459e-09
1.44299e-09
2.15752e-09
1.37705e-09
2.20727e-09
1.27714e-09
2.99443e-09
1.34022e-09
2.21314e-09
1.27629e-09
2.96015e-09
1.32797e-09
2.89708e-09
1.52976e-09
1.32367e-09
1.42522e-09
1.45299e-09
5.04308e-10
4.31638e-09
2.81928e-09
5.30432e-09
2.90563e-09
1.18221e-09
1.10793e-09
1.41536e-09
1.15363e-09
1.23261e-09
1.03596e-09
2.71355e-09
5.28321e-10
5.29321e-10
4.67632e-10
4.72121e-10
2.27339e-09
2.17205e-09
1.87627e-09
1.82683e-09
1.46989e-09
1.2598e-09
2.50153e-09
1.4291e-09
2.16546e-09
3.02251e-09
1.2478e-09
1.46899e-09
2.51406e-09
1.42472e-09
2.13433e-09
2.92315e-09
1.50313e-09
1.7885e-09
1.44544e-09
1.86677e-09
1.50667e-09
1.7836e-09
1.44958e-09
1.85316e-09
2.1614e-09
1.49704e-09
2.03726e-09
1.54996e-09
4.44031e-09
1.43495e-09
5.36189e-09
1.42299e-09
4.17692e-09
6.46926e-09
2.77824e-09
2.89075e-09
2.76069e-09
2.86495e-09
2.84463e-09
2.86256e-09
2.69557e-09
2.69374e-09
2.12442e-09
1.45667e-09
2.03944e-09
1.49383e-09
2.28826e-09
1.71366e-09
2.09797e-09
1.56251e-09
2.23526e-09
1.65108e-09
2.08042e-09
1.50622e-09
4.55896e-09
1.39537e-09
5.79469e-09
1.39738e-09
3.5362e-09
1.37391e-09
3.48066e-09
1.36244e-09
2.70116e-09
1.25014e-09
1.27593e-09
1.38503e-09
1.39073e-09
5.90414e-10
2.82788e-09
2.67629e-09
3.78323e-09
4.74174e-09
1.04049e-09
1.10319e-09
1.27024e-09
1.33988e-09
1.23583e-09
1.73976e-09
3.93492e-10
3.96322e-10
3.78032e-10
3.77327e-10
1.36022e-09
1.35589e-09
1.00397e-09
1.01597e-09
1.54234e-09
1.6487e-09
1.53769e-09
1.53539e-09
1.54871e-09
1.64906e-09
1.54392e-09
1.55588e-09
1.54608e-09
1.26668e-09
1.59787e-09
1.29256e-09
1.5313e-09
1.27087e-09
1.57136e-09
1.31295e-09
1.49398e-09
1.34497e-09
2.79206e-09
3.01259e-09
1.46957e-09
3.40374e-09
1.49934e-09
1.36404e-09
3.16892e-09
2.99331e-09
1.47987e-09
3.70495e-09
1.53185e-09
3.07111e-09
1.48808e-09
3.29541e-09
1.54557e-09
3.2818e-09
1.49572e-09
3.53568e-09
6.88972e-09
1.41365e-09
5.89812e-09
1.42094e-09
8.01939e-09
1.52177e-09
1.08091e-08
1.50211e-09
5.34213e-09
6.06517e-09
2.94503e-09
3.0064e-09
2.85482e-09
2.95638e-09
2.94153e-09
2.97087e-09
2.90845e-09
2.93632e-09
1.44687e-09
2.93645e-09
1.36982e-09
3.08372e-09
1.43913e-09
2.94385e-09
1.36575e-09
3.11928e-09
1.34069e-09
1.47457e-09
6.92822e-09
1.30198e-09
3.60973e-09
3.56056e-09
1.34562e-09
1.42684e-09
7.83615e-09
1.29418e-09
3.76733e-09
3.33024e-09
7.5825e-09
1.37736e-09
6.54016e-09
1.3791e-09
6.73352e-09
1.40585e-09
6.88345e-09
1.36425e-09
9.02912e-09
1.50669e-09
1.23968e-08
1.49778e-09
4.8092e-09
1.48449e-09
5.39304e-09
1.49366e-09
2.25122e-09
1.18895e-09
1.30037e-09
1.34403e-09
1.35015e-09
7.09399e-10
2.79639e-09
2.50753e-09
3.1149e-09
2.58432e-09
8.77383e-10
1.20554e-09
1.3589e-09
1.58703e-09
1.48307e-09
3.65542e-10
3.65882e-10
3.38962e-10
3.39011e-10
7.10088e-10
7.16129e-10
6.5214e-10
6.5144e-10
1.50522e-09
9.70789e-10
1.25086e-09
1.19394e-09
1.44827e-09
9.9133e-10
1.19066e-09
1.23442e-09
8.23764e-10
1.66824e-09
9.84551e-10
1.20627e-09
8.15183e-10
1.75146e-09
9.40773e-10
1.26578e-09
1.54555e-09
2.7494e-09
1.56753e-09
2.4207e-09
1.55855e-09
2.89557e-09
1.57931e-09
2.52671e-09
1.56243e-09
1.88564e-09
1.58731e-09
2.07698e-09
1.5565e-09
1.92123e-09
1.58832e-09
2.13427e-09
1.4422e-08
1.52284e-09
1.33123e-08
1.50289e-09
1.18158e-08
4.68919e-09
3.2716e-09
3.23126e-09
3.04901e-09
3.058e-09
3.04973e-09
3.07146e-09
2.93077e-09
2.95678e-09
1.53753e-09
2.7931e-09
1.52601e-09
2.92168e-09
1.55098e-09
2.82585e-09
1.52907e-09
2.93462e-09
1.48866e-09
2.94807e-09
1.50674e-09
2.9977e-09
1.48415e-09
2.93825e-09
1.50523e-09
2.98552e-09
1.6058e-09
6.34243e-09
1.56759e-09
6.7475e-09
1.58221e-09
6.27896e-09
1.54755e-09
6.55573e-09
1.39968e-09
1.46388e-09
6.22535e-09
8.08083e-09
1.5276e-09
7.92223e-09
1.39141e-09
1.46143e-09
6.11491e-09
8.26406e-09
1.5156e-09
7.35692e-09
1.61956e-08
1.50142e-09
1.55765e-08
1.48632e-09
1.22171e-08
1.48268e-09
1.37475e-08
1.46523e-09
1.90452e-09
1.22723e-09
1.28529e-09
1.31239e-09
1.3268e-09
8.73531e-10
2.68916e-09
2.7282e-09
2.55446e-09
1.78469e-09
8.93539e-10
1.7196e-09
1.94837e-09
1.73304e-09
1.98435e-09
6.43521e-10
6.45063e-10
6.12085e-10
6.13484e-10
1.21207e-09
1.22103e-09
9.98719e-10
1.00577e-09
1.56649e-09
1.65984e-09
1.40577e-09
1.61251e-09
1.54726e-09
1.67635e-09
1.39459e-09
1.6177e-09
1.0291e-09
1.44154e-09
1.24471e-09
1.54714e-09
1.04167e-09
1.44576e-09
1.24268e-09
1.56053e-09
1.4248e-09
1.76573e-09
1.4154e-09
1.77828e-09
6.49772e-09
7.15676e-09
5.4227e-09
5.27094e-09
3.17723e-09
3.06664e-09
3.53454e-09
3.55521e-09
3.27411e-09
3.30332e-09
2.16299e-09
2.44925e-09
1.70809e-09
2.59987e-09
2.17861e-09
2.51661e-09
1.73997e-09
2.65508e-09
1.56312e-09
2.62825e-09
1.65803e-09
2.6057e-09
1.5806e-09
2.68352e-09
1.68448e-09
2.64947e-09
1.70843e-09
9.89133e-09
1.79556e-09
6.59301e-09
1.68264e-09
1.15493e-08
1.74719e-09
6.96188e-09
1.68267e-09
5.97979e-09
1.75348e-09
6.05492e-09
1.636e-09
6.07417e-09
1.71393e-09
6.34434e-09
1.62923e-09
1.2446e-09
1.26764e-09
1.30572e-09
1.31242e-09
1.08306e-09
2.96476e-09
2.8289e-09
2.22857e-09
1.41169e-09
6.38487e-10
3.13195e-09
2.37691e-09
3.4084e-09
3.67161e-10
3.67555e-10
4.41088e-10
4.40399e-10
8.62923e-10
8.66793e-10
6.71579e-10
6.74174e-10
1.61345e-09
9.10098e-10
1.38521e-09
7.54694e-10
1.62049e-09
9.06671e-10
1.36989e-09
7.49359e-10
1.55594e-09
6.04249e-10
2.02871e-09
6.85294e-10
1.5766e-09
5.87543e-10
2.23217e-09
6.74684e-10
1.47671e-09
1.61971e-09
1.41687e-09
1.51645e-09
1.46699e-09
1.63152e-09
1.40911e-09
1.53834e-09
1.13314e-09
1.47543e-09
1.3261e-09
1.52065e-09
1.1218e-09
1.51153e-09
1.31401e-09
1.55059e-09
3.1802e-09
1.42003e-08
1.14874e-08
2.7072e-09
2.69521e-09
3.62578e-09
3.61983e-09
3.48609e-09
3.5833e-09
3.47024e-09
3.54706e-09
2.23667e-09
3.51075e-09
1.82584e-09
7.68001e-09
2.23566e-09
3.5558e-09
1.82507e-09
8.28829e-09
1.75816e-09
9.29297e-09
1.89481e-09
9.76145e-09
1.73036e-09
1.07467e-08
1.88734e-09
1.11812e-08
1.95355e-09
8.48607e-09
1.91425e-09
8.31833e-09
1.35705e-09
1.23726e-09
1.41392e-09
1.60174e-09
1.45492e-09
1.29539e-09
2.91496e-09
4.04652e-09
2.46618e-09
1.13867e-09
7.66051e-10
3.83609e-09
4.5013e-09
1.46756e-08
6.0565e-10
6.06664e-10
6.92775e-10
6.92645e-10
5.21804e-10
2.17196e-09
2.75708e-09
4.66043e-10
5.12111e-10
2.37989e-09
2.73984e-09
4.67863e-10
7.75346e-10
7.78982e-10
1.65236e-09
1.05583e-09
1.44718e-09
9.44418e-10
1.65492e-09
1.04629e-09
1.44147e-09
9.33108e-10
1.68124e-09
7.12518e-10
1.73079e-09
8.25882e-10
1.69596e-09
7.00609e-10
1.81444e-09
8.14143e-10
1.12425e-09
1.48419e-09
1.11888e-09
1.49129e-09
2.00585e-09
8.36403e-09
9.87625e-09
4.48385e-09
4.81317e-09
3.34932e-09
3.44849e-09
4.00126e-09
4.10065e-09
3.55019e-09
3.65751e-09
2.30813e-09
1.49422e-09
2.09244e-09
1.47669e-09
2.59973e-09
1.58616e-09
2.3077e-09
1.54281e-09
2.89182e-09
1.54765e-09
5.64828e-09
1.48279e-09
3.61598e-09
1.62623e-09
8.24653e-09
1.54442e-09
1.72315e-09
7.4514e-09
1.92902e-09
8.11856e-09
1.77795e-09
7.33761e-09
1.91401e-09
8.49241e-09
2.02252e-09
1.02055e-08
2.03385e-09
9.20374e-09
1.98233e-09
9.9706e-09
2.03157e-09
9.20857e-09
1.23096e-09
1.3628e-09
1.56908e-09
1.44059e-09
9.89496e-10
3.60779e-09
4.93057e-09
1.95892e-09
9.09119e-10
1.13492e-09
2.47926e-09
1.19938e-08
1.29967e-09
1.30191e-09
1.97868e-09
1.98074e-09
4.29758e-10
4.75553e-09
4.52575e-10
6.35749e-09
4.26258e-10
5.1907e-09
4.50645e-10
6.69414e-09
1.09204e-09
1.09277e-09
6.2389e-10
1.97128e-09
2.4129e-09
5.43481e-10
6.23008e-10
1.95682e-09
2.30301e-09
5.4966e-10
4.80243e-10
4.27745e-09
5.13033e-10
2.82377e-09
4.77066e-10
4.52496e-09
5.11971e-10
2.83674e-09
1.68235e-09
8.10967e-10
1.79241e-09
8.29741e-10
1.70269e-09
8.01853e-10
1.82622e-09
8.19707e-10
1.43916e-09
4.25344e-09
1.20167e-08
3.64529e-08
2.36007e-09
2.45042e-09
2.73306e-09
2.82635e-09
2.94781e-09
3.06791e-09
1.47537e-09
1.92845e-09
1.72388e-09
1.9886e-09
1.56033e-09
2.12694e-09
1.79941e-09
1.95044e-09
5.54927e-09
1.81181e-09
7.52678e-09
1.77706e-09
5.34235e-09
1.81976e-09
7.20331e-09
1.79929e-09
4.53376e-09
1.89749e-09
5.10088e-09
1.98777e-09
4.26735e-09
1.87619e-09
4.72706e-09
1.99166e-09
1.85558e-09
4.98269e-09
1.87602e-09
4.50959e-09
1.3082e-09
1.51311e-09
1.41508e-09
7.47258e-10
3.74073e-09
5.3705e-09
1.92872e-09
1.2104e-09
2.39022e-09
2.14345e-09
2.29061e-09
2.2927e-09
1.51487e-10
1.51575e-10
1.87426e-09
1.88038e-09
2.49175e-09
2.49721e-09
5.49749e-10
4.39239e-09
5.59489e-10
6.35788e-09
5.45036e-10
4.75914e-09
5.56199e-10
6.8945e-09
1.02258e-08
7.69096e-10
7.91719e-09
6.84976e-10
1.04613e-08
7.68843e-10
8.05592e-09
6.84969e-10
7.51705e-10
2.12987e-09
2.31234e-09
6.48911e-10
7.47162e-10
2.12722e-09
2.29717e-09
6.47902e-10
5.83068e-10
3.58981e-09
6.10842e-10
3.00088e-09
5.76913e-10
3.84647e-09
6.05349e-10
3.0493e-09
1.34764e-09
2.74117e-09
6.44577e-09
1.39674e-08
2.48621e-09
2.56674e-09
2.64079e-09
2.71119e-09
2.45954e-09
2.53076e-09
1.29089e-09
1.57839e-09
1.52921e-09
1.43438e-09
1.38126e-09
1.76254e-09
1.54517e-09
1.5311e-09
1.40473e-09
1.77794e-09
1.47251e-09
2.55616e-09
2.34605e-09
2.19106e-09
1.49774e-09
2.02597e-09
1.62946e-09
3.62132e-09
2.17815e-09
2.14594e-09
1.60879e-09
4.86036e-09
1.62029e-09
5.87817e-09
3.62198e-09
2.1254e-09
6.32041e-09
1.78798e-09
3.4966e-09
2.37882e-09
5.2921e-09
1.88563e-09
1.44982e-09
1.37656e-09
5.80882e-10
6.50185e-09
2.13113e-09
1.79885e-09
3.37065e-09
3.5204e-09
5.04966e-09
2.42312e-09
2.41658e-09
2.785e-10
2.78594e-10
9.82379e-10
9.03389e-10
1.59006e-08
1.09236e-09
1.55537e-08
6.45887e-09
9.05084e-10
9.84669e-10
6.56822e-09
1.65295e-08
1.09619e-09
1.56419e-08
4.23108e-10
2.07145e-08
1.34088e-09
2.78739e-08
4.111e-10
2.03136e-08
1.34583e-09
2.91872e-08
6.68132e-10
5.42824e-09
7.03246e-10
7.43033e-09
6.64034e-10
5.75339e-09
7.00832e-10
7.70501e-09
6.73459e-09
8.05357e-10
6.85204e-09
8.05409e-10
2.79185e-09
6.46379e-10
2.83458e-09
6.40357e-10
6.28637e-10
4.17012e-09
6.21615e-10
4.60296e-09
1.41969e-09
1.9789e-09
4.41048e-09
1.01451e-08
3.25652e-09
3.26923e-09
2.41184e-09
2.49842e-09
2.12223e-09
2.27125e-09
2.13673e-09
2.27973e-09
2.07838e-09
1.43064e-09
1.46164e-09
1.29656e-09
1.90706e-09
1.8066e-09
2.6994e-09
1.48303e-09
1.60821e-09
1.40124e-09
1.92081e-09
1.71812e-09
1.33734e-09
3.75537e-09
1.37349e-09
4.75899e-09
1.50185e-09
5.61805e-09
1.58514e-09
1.81544e-09
3.88674e-09
4.57197e-09
1.57815e-09
5.35149e-09
1.67889e-09
2.03769e-09
3.47464e-09
4.94242e-09
1.93965e-09
5.79195e-09
2.14497e-09
5.20839e-09
1.32754e-09
4.68395e-10
4.40675e-09
2.28967e-09
1.89235e-09
4.86359e-09
2.23609e-08
1.3949e-09
1.48351e-09
2.73131e-09
3.20288e-09
1.19468e-09
1.16622e-09
3.69681e-10
3.73764e-10
9.51832e-10
1.0372e-09
1.3544e-08
8.1226e-09
1.15049e-09
1.25214e-08
9.51419e-10
1.04078e-09
8.44382e-09
1.37239e-08
1.15348e-09
1.30162e-08
4.83673e-10
3.41951e-09
1.46126e-09
1.92797e-08
4.71688e-10
3.42029e-09
1.47009e-09
2.03912e-08
7.61758e-10
6.78872e-09
7.60138e-10
6.96239e-09
1.271e-09
1.47248e-09
7.75811e-09
3.85985e-09
1.30297e-08
2.09805e-09
2.22257e-09
2.23494e-09
2.38264e-09
1.97773e-09
1.17677e-09
1.18395e-09
1.31324e-09
2.07292e-09
1.32345e-09
1.34353e-09
1.55872e-09
1.08741e-09
1.69632e-09
2.38469e-09
1.24698e-09
1.44897e-09
1.57054e-09
1.2725e-09
1.90551e-09
3.40011e-09
1.43442e-09
1.88892e-09
1.93424e-09
2.5116e-09
3.65049e-09
1.30863e-09
1.70115e-09
2.40433e-09
4.32344e-09
1.47317e-09
1.8496e-09
1.71786e-09
5.63204e-09
1.87585e-09
5.31713e-09
1.73692e-09
4.32521e-09
1.74484e-09
3.56139e-09
1.9504e-09
3.61482e-09
1.86047e-09
3.11456e-09
3.89626e-10
5.19849e-09
7.18947e-09
1.30648e-09
1.33969e-08
5.97021e-08
8.73677e-10
9.09126e-10
2.22734e-09
2.26592e-09
1.71229e-09
5.9474e-10
2.40968e-09
2.30965e-10
1.8549e-09
5.73705e-10
2.82362e-09
2.36105e-10
4.51909e-10
4.48965e-10
5.18016e-10
2.75252e-09
8.63678e-10
1.04704e-08
5.11062e-10
3.01268e-09
8.34089e-10
1.14812e-08
3.32081e-10
1.22864e-09
1.94533e-09
6.03982e-09
6.77574e-09
2.58248e-09
2.60722e-09
3.65352e-09
3.76098e-09
4.82355e-09
4.87136e-09
3.0019e-09
3.26822e-09
4.17338e-09
1.60761e-09
1.46935e-09
3.11066e-09
4.80566e-09
1.88196e-09
1.57917e-09
3.98993e-09
1.09084e-09
1.44037e-09
1.98959e-09
2.63546e-09
1.61189e-09
2.95809e-09
1.26661e-09
1.66261e-09
2.54253e-09
1.9138e-09
1.89576e-09
2.9379e-09
3.41035e-09
1.73465e-09
2.91099e-09
2.04505e-09
2.94311e-09
1.46247e-09
2.18553e-09
3.76398e-08
7.31829e-09
4.80199e-09
9.50388e-09
1.01696e-08
6.40589e-10
6.65968e-10
1.67238e-09
1.18565e-09
2.14613e-09
6.22036e-10
4.24872e-09
3.20902e-10
2.24031e-09
6.02435e-10
4.46048e-09
3.22864e-10
2.85592e-10
3.26569e-09
4.22519e-10
3.31792e-09
2.646e-10
1.56351e-09
3.87521e-10
4.69024e-09
4.75265e-10
3.54645e-09
4.61403e-10
4.21227e-09
2.88085e-10
1.28932e-09
5.99329e-09
3.84695e-09
1.02692e-08
1.95289e-09
2.09074e-09
2.06328e-09
2.27564e-09
2.39364e-09
2.70341e-09
1.32744e-09
1.4175e-09
1.47572e-09
3.82393e-09
1.57124e-09
1.96731e-09
2.73411e-09
4.65056e-09
1.54178e-09
1.90846e-09
1.6037e-09
3.39216e-09
2.906e-09
3.17289e-09
2.24126e-09
2.58343e-09
2.36667e-09
7.41409e-10
6.39611e-09
4.02135e-08
2.34424e-08
1.85074e-08
8.08776e-09
1.30933e-08
4.39307e-10
2.39451e-09
1.39663e-09
5.50964e-10
2.0088e-09
4.62135e-10
3.34268e-10
2.12686e-09
2.57809e-09
4.23767e-10
3.0874e-09
3.86567e-10
1.00489e-08
3.64423e-09
4.20631e-09
5.81806e-10
4.33915e-09
5.15124e-10
5.22461e-09
5.8404e-10
4.56211e-09
4.99271e-10
6.4726e-10
2.71834e-09
4.7077e-10
3.91518e-09
2.5428e-10
1.59777e-09
5.81041e-09
5.19281e-09
2.92053e-09
2.92182e-09
6.84141e-09
6.10934e-09
3.83861e-09
4.08637e-09
2.0969e-09
2.29053e-09
1.60727e-09
1.03355e-09
8.15171e-10
1.5764e-09
1.6043e-09
1.09056e-09
1.7456e-09
1.21189e-09
9.80753e-10
2.45635e-09
3.7567e-09
1.8053e-09
1.32479e-09
2.26247e-09
1.95693e-09
2.28218e-09
1.91001e-09
3.31357e-09
4.65384e-09
1.70295e-09
8.79958e-10
1.11594e-09
1.34805e-08
3.98134e-09
4.59354e-09
3.40678e-09
3.98238e-09
1.94647e-08
3.00406e-08
5.56995e-09
7.34521e-09
7.59768e-10
2.9963e-09
1.45483e-08
1.41932e-09
3.43047e-09
1.42141e-09
4.5803e-10
3.18878e-09
3.98943e-09
6.57611e-10
3.83224e-09
4.39679e-10
5.44979e-09
3.53572e-08
7.08225e-09
5.74779e-08
3.39654e-09
3.2258e-08
3.1903e-09
3.02775e-08
2.303e-10
2.47362e-09
3.83971e-09
1.1877e-08
2.56773e-09
2.53561e-09
2.78142e-09
2.82862e-09
2.50268e-09
2.60909e-09
2.93205e-09
1.24959e-09
1.06975e-09
8.95937e-10
1.54563e-09
1.82551e-09
1.121e-09
9.88077e-10
2.0679e-09
1.67594e-09
3.41546e-09
1.48163e-09
1.06726e-09
9.66843e-10
1.27123e-09
1.65054e-09
1.16452e-09
1.17631e-09
1.38687e-09
1.46507e-09
9.83152e-10
1.97507e-09
1.20318e-09
1.53915e-09
8.89068e-10
2.35154e-09
7.5965e-09
3.21193e-09
3.79312e-09
3.06796e-09
3.72925e-09
4.39331e-09
2.97667e-08
3.97213e-09
2.02467e-09
8.12438e-09
2.07557e-09
4.65814e-09
3.15312e-08
3.31031e-09
7.57339e-09
9.0912e-09
3.3984e-09
3.59374e-09
4.4681e-09
2.55191e-08
3.5207e-09
1.08985e-08
7.83113e-10
7.02911e-09
6.7713e-08
5.44664e-09
4.07466e-08
2.14455e-10
2.53049e-09
8.26964e-09
1.2477e-08
1.40021e-08
3.45442e-09
3.25512e-09
3.08991e-09
3.12576e-09
2.21402e-09
2.25187e-09
1.25862e-09
1.02339e-09
9.93003e-10
1.44652e-09
2.82001e-09
1.42046e-09
1.2523e-09
2.9704e-09
1.43601e-09
1.0173e-09
1.07715e-09
1.55205e-09
1.04351e-09
1.41314e-09
1.44729e-09
1.27352e-09
1.38084e-09
1.11882e-09
1.44048e-09
1.39805e-09
1.86382e-09
1.61031e-09
2.70231e-09
2.95002e-09
3.42134e-09
1.39647e-09
1.64551e-09
3.71707e-09
1.02833e-08
5.93578e-09
1.9583e-09
8.19919e-09
2.12061e-09
6.55786e-09
1.41583e-08
8.35174e-09
4.21024e-09
9.43504e-09
3.24957e-09
2.55782e-09
1.98013e-09
1.94689e-09
6.44059e-09
3.3068e-09
3.47697e-09
2.74493e-09
6.75636e-09
5.78727e-09
1.15164e-08
6.28048e-09
2.03761e-08
1.99855e-10
6.35963e-09
7.64001e-09
2.22598e-09
2.2777e-09
2.35213e-09
2.38984e-09
2.22976e-09
2.25626e-09
1.27787e-09
1.25295e-09
1.0935e-09
1.02058e-09
1.619e-09
1.18124e-09
1.27654e-09
1.23084e-09
1.10586e-09
1.04792e-09
1.68504e-09
1.17972e-09
9.71289e-10
1.21802e-09
1.67533e-09
1.13754e-09
1.32615e-09
1.23655e-09
9.91061e-10
1.89185e-09
5.53931e-09
2.63233e-08
1.96009e-09
2.46286e-09
2.49732e-09
1.72908e-09
1.25032e-09
1.17929e-09
3.38803e-09
1.83844e-09
1.75196e-09
3.28533e-09
2.57049e-09
2.91278e-09
2.21584e-09
4.93236e-09
1.04706e-08
2.084e-09
7.94198e-09
2.03983e-09
6.28418e-09
6.78764e-09
7.64434e-09
3.14621e-09
7.02879e-09
2.97052e-09
1.82538e-09
9.07188e-09
2.23418e-09
1.02935e-08
1.902e-10
2.33481e-09
6.8631e-09
3.27195e-09
3.37354e-09
2.64082e-09
2.72495e-09
1.39701e-09
9.61047e-10
1.18931e-09
1.37814e-09
1.64822e-09
1.23234e-09
1.55417e-09
1.61163e-09
1.25132e-09
1.02079e-09
1.28422e-09
1.47021e-09
1.22432e-09
1.92944e-09
1.11607e-09
3.73993e-09
1.20532e-09
2.0248e-09
1.11675e-09
3.90878e-09
1.08789e-09
1.28627e-09
1.07496e-09
1.38465e-09
5.62719e-09
1.86295e-09
5.41473e-09
2.20002e-08
4.6316e-09
1.23394e-08
5.32517e-09
3.26682e-09
2.74958e-09
1.24863e-09
1.38645e-09
2.74762e-09
1.34278e-09
1.24257e-09
1.89691e-09
9.13284e-10
1.33819e-09
2.16178e-09
1.33137e-09
2.95742e-09
1.35457e-09
1.19782e-09
1.88093e-09
8.69719e-10
1.65675e-08
1.78829e-09
1.03786e-08
2.39838e-09
2.13e-09
3.02515e-09
2.07945e-09
5.10959e-09
1.96262e-10
2.40094e-09
2.02852e-09
1.88128e-09
1.99135e-09
2.29524e-09
1.92309e-09
2.02809e-09
1.68368e-09
1.64681e-09
1.21448e-09
1.79283e-09
1.74318e-09
1.3548e-09
1.82112e-09
1.0089e-09
2.61167e-09
2.18642e-09
1.82286e-09
3.2423e-09
1.14505e-09
2.74894e-09
1.60058e-09
1.72118e-09
1.32024e-09
2.13508e-09
1.51317e-09
1.69881e-09
1.29027e-09
2.15561e-09
3.78504e-09
7.06335e-09
2.98548e-08
1.15508e-09
1.80343e-09
2.78252e-07
2.41875e-08
1.00616e-09
1.91512e-09
2.13202e-07
4.60568e-08
1.03412e-08
1.31491e-09
1.6931e-09
1.64587e-09
2.87441e-09
2.59373e-09
2.4945e-09
1.22825e-09
1.86506e-09
1.93306e-09
2.71843e-09
2.83631e-09
2.21605e-09
6.33442e-09
2.10629e-09
1.37859e-08
2.30519e-09
2.13935e-10
2.73744e-09
9.43921e-10
3.24665e-09
3.36494e-09
1.11196e-09
1.27841e-09
1.41694e-09
9.73291e-10
1.83951e-09
1.13303e-09
1.84333e-09
1.1e-09
1.38236e-09
1.21999e-09
9.69798e-10
1.17389e-09
1.98282e-09
1.20789e-09
1.89508e-09
1.1836e-09
1.80349e-09
1.39141e-09
1.11481e-09
1.46552e-09
8.37693e-10
2.42539e-09
2.16641e-09
1.62022e-09
2.25396e-09
9.43827e-10
2.30394e-09
5.27526e-09
4.66902e-08
3.84913e-07
1.36541e-07
2.60453e-09
1.48549e-09
8.54443e-10
6.76391e-08
2.06293e-09
3.43904e-09
4.46283e-09
7.14932e-09
6.96002e-08
1.34999e-08
5.30539e-08
8.9307e-07
1.7842e-07
4.21249e-07
2.69609e-08
1.83058e-09
3.20993e-09
3.85579e-09
7.4646e-09
5.24815e-08
6.89442e-09
3.82072e-08
8.07345e-07
6.51759e-08
4.68139e-07
1.26602e-09
2.99298e-09
3.17056e-09
3.46262e-09
1.31114e-09
2.88752e-09
3.26557e-09
2.9489e-09
2.52673e-10
2.17127e-09
1.21066e-09
1.61303e-09
1.57846e-09
2.66664e-09
1.79422e-09
1.65116e-09
2.40626e-09
1.51224e-09
1.23492e-09
1.44675e-09
1.06604e-09
2.24326e-09
1.00711e-09
1.72611e-09
1.54762e-09