/*--------------------------------*- C++ -*----------------------------------*\
| =========                 |                                                 |
| \\      /  F ield         | OpenFOAM: The Open Source CFD Toolbox           |
|  \\    /   O peration     | Version:  5.x                                   |
|   \\  /    A nd           | Web:      www.OpenFOAM.org                      |
|    \\/     M anipulation  |                                                 |
\*---------------------------------------------------------------------------*/
FoamFile
{
    version     2.0;
    format      ascii;
    class       volScalarField;
    location    "0.6";
    object      omega;
}
// * * * * * * * * * * * * * * * * * * * * * * * * * * * * * * * * * * * * * //

dimensions      [0 0 -1 0 0 0 0];

internalField   nonuniform List<scalar> 
12160
(
0.0719999
0.0719999
0.00537566
0.0719999
0.00865037
0.00159045
0.0719999
0.0105497
0.00206633
0.00133531
0.0719999
0.00915161
0.00245578
0.0015035
0.00131136
0.0719999
0.00832057
0.00214086
0.00160699
0.00140032
0.00145535
0.0719999
0.00702129
0.00196616
0.00149183
0.00145773
0.00150742
0.00151967
0.0719999
0.00602076
0.00170435
0.00142884
0.00140485
0.00149797
0.001651
0.00180696
0.0719999
0.00504153
0.00153462
0.00132646
0.00136467
0.00144587
0.00155762
0.00176307
0.00581077
0.0719999
0.00422879
0.00138015
0.00126555
0.00128668
0.00139991
0.00150446
0.00166342
0.00357698
0.00555678
0.0719999
0.00354352
0.00127313
0.00120216
0.00123691
0.0013279
0.0014215
0.00167479
0.00311742
0.00535172
0.00407725
0.0719999
0.00298625
0.00119328
0.00115792
0.00118316
0.0012737
0.00132432
0.00159467
0.0035683
0.00380703
0.0067628
0.00251863
0.0719999
0.00254173
0.00113704
0.00112124
0.00114447
0.00121604
0.00125414
0.00156191
0.00341421
0.00284837
0.0070411
0.00287629
0.00223633
0.0719999
0.00219221
0.00109757
0.00109307
0.00111166
0.0011713
0.00119275
0.00153774
0.00312131
0.00252014
0.00737634
0.00292983
0.00213275
0.00187421
0.0719999
0.00192017
0.00107001
0.00107124
0.0010861
0.00113321
0.00114923
0.00155038
0.00270913
0.00232944
0.00649446
0.00487015
0.00188701
0.00181682
0.00151772
0.0719999
0.00171014
0.00105069
0.00105448
0.00106609
0.00110303
0.00111491
0.00157534
0.00230686
0.00217941
0.00553225
0.00424179
0.00185404
0.00180988
0.00148165
0.0719999
0.00154907
0.00103706
0.00104164
0.00105063
0.00107922
0.0010888
0.00160211
0.00195452
0.00207138
0.00412704
0.00339077
0.00184387
0.00171614
0.00152135
0.0719999
0.00142638
0.00102737
0.00103183
0.00103874
0.00106072
0.00106864
0.00162378
0.00166558
0.00197677
0.00302962
0.00239349
0.00170947
0.00153806
0.00151779
0.0719999
0.00133328
0.00102034
0.00102435
0.00102963
0.00104644
0.00105303
0.0016366
0.00145472
0.00188258
0.00233125
0.00179323
0.0014602
0.00137485
0.00134438
0.0719999
0.00126397
0.00101524
0.0010186
0.00102265
0.00103548
0.00104091
0.00163874
0.00131154
0.00180354
0.00187834
0.00147363
0.00131484
0.00125957
0.00123809
0.0719999
0.00121249
0.00101155
0.00101421
0.00101726
0.0010271
0.0010315
0.00163016
0.00121913
0.00174194
0.00158105
0.00130007
0.00123179
0.0012203
0.0011725
0.0719999
0.00117575
0.0010089
0.0010109
0.00101313
0.00102065
0.0010242
0.00161166
0.00116196
0.00169551
0.00138422
0.00120053
0.00118205
0.0011925
0.00116201
0.0719999
0.00115086
0.00100701
0.00100844
0.00101
0.00101572
0.00101851
0.00158395
0.0011283
0.00165916
0.00125508
0.00113995
0.00114493
0.00116667
0.00114833
0.0719999
0.0011357
0.0010057
0.00100663
0.00100764
0.001012
0.00101403
0.00154839
0.00110963
0.00162682
0.00117112
0.00110138
0.00111496
0.00113862
0.00112948
0.0719999
0.0011279
0.00100486
0.00100534
0.00100586
0.00100921
0.00101056
0.00150502
0.0011007
0.00159306
0.00111762
0.00107553
0.00108976
0.00111211
0.00110715
0.0719999
0.00112696
0.00100443
0.00100448
0.00100456
0.00100713
0.00100786
0.00145419
0.00109986
0.00155434
0.00108326
0.00105711
0.00106864
0.001088
0.00108604
0.0719999
0.00113257
0.00100437
0.00100403
0.00100366
0.00100562
0.00100574
0.00139629
0.00110388
0.00150938
0.00106052
0.00104358
0.00105148
0.00106729
0.00106711
0.0719999
0.00114497
0.00100467
0.00100396
0.00100317
0.00100459
0.00100404
0.00132962
0.00111402
0.00145756
0.0010457
0.00103362
0.00103763
0.00105051
0.00105109
0.0719999
0.00116468
0.00100533
0.00100427
0.00100309
0.00100403
0.00100269
0.00125529
0.00112906
0.00139845
0.00103501
0.00102686
0.00102681
0.00103701
0.00103815
0.0719999
0.00119249
0.00100635
0.00100493
0.00100342
0.00100394
0.00100165
0.00117494
0.00114805
0.00133074
0.00102911
0.00102244
0.00101866
0.0010266
0.00102767
0.0719999
0.00122938
0.00100778
0.00100594
0.00100413
0.00100431
0.00100144
0.0010925
0.00116695
0.00125624
0.00102677
0.0010202
0.00101249
0.00101884
0.00101947
0.0719999
0.00127652
0.00100968
0.00100732
0.00100517
0.0010051
0.00100223
0.00101822
0.00118093
0.00117807
0.00102882
0.00101965
0.00100888
0.001013
0.00101314
0.0719999
0.00133543
0.00101213
0.0010091
0.00100654
0.00100628
0.00100342
0.00106496
0.00118459
0.00110126
0.00103229
0.00101972
0.00100812
0.0010091
0.00100811
0.0719999
0.00140791
0.00101525
0.00101134
0.00100828
0.00100787
0.00100488
0.0011369
0.00117703
0.00104537
0.00103459
0.00101946
0.00100962
0.00100721
0.00100407
0.0719999
0.00149609
0.00101919
0.0010141
0.00101044
0.0010099
0.00100662
0.00120442
0.0011607
0.00107839
0.00103389
0.00101871
0.00101118
0.00100654
0.00100186
0.0719999
0.00160233
0.00102415
0.00101749
0.00101308
0.00101243
0.00100869
0.00126375
0.00114078
0.00114268
0.00103238
0.0010182
0.001012
0.00100582
0.00100227
0.0719999
0.00172928
0.00103037
0.00102159
0.00101629
0.00101555
0.00101118
0.00131444
0.00112217
0.00120718
0.00102926
0.00101839
0.00101191
0.00100469
0.00100237
0.0719999
0.00187966
0.00103817
0.00102653
0.00102015
0.00101935
0.00101415
0.00135712
0.00110766
0.001266
0.00102559
0.00101887
0.00101104
0.00100368
0.0010018
0.0719999
0.00205647
0.0010479
0.00103242
0.00102478
0.00102395
0.00101769
0.00139273
0.00109779
0.00131722
0.00102409
0.00101908
0.00100949
0.0010038
0.00100106
0.0719999
0.00226293
0.0010601
0.00103941
0.0010303
0.00102947
0.0010219
0.00142225
0.00109239
0.00136032
0.00102614
0.00101926
0.00100777
0.00100436
0.00100092
0.00251512
0.0719999
0.00107522
0.00104769
0.00103681
0.00103604
0.00102689
0.00144639
0.00109125
0.00139614
0.0010312
0.00102014
0.00100711
0.00100495
0.00100088
0.00109588
0.0029668
0.0719999
0.00105731
0.0010445
0.00104383
0.00103276
0.00146549
0.0010943
0.0014261
0.00103874
0.00102237
0.00100854
0.00100611
0.00100088
0.00106978
0.00113596
0.003825
0.0719999
0.00105341
0.001053
0.00103965
0.00147976
0.00110178
0.00145118
0.00104883
0.00102615
0.00101253
0.00100851
0.00100209
0.00106485
0.00109175
0.00122463
0.00494135
0.0719999
0.00106369
0.00104769
0.00148931
0.00111439
0.00147236
0.00106217
0.00103149
0.00101794
0.00101247
0.00100483
0.00107704
0.00108495
0.00113359
0.00136764
0.00636652
0.0719999
0.00105705
0.00149416
0.00113317
0.00149056
0.00107984
0.00103848
0.0010245
0.00101784
0.0010084
0.00106835
0.00110061
0.00112197
0.00119247
0.00159386
0.00822606
0.0719999
0.00149448
0.00116002
0.00150769
0.00110317
0.00104708
0.00103233
0.00102432
0.00101268
0.00149083
0.00108884
0.00114383
0.00117176
0.00127418
0.00197609
0.0108972
0.0719999
0.00119891
0.00152658
0.00113426
0.00105757
0.00104142
0.001032
0.00101771
0.00126051
0.00149111
0.00112624
0.00119938
0.00123492
0.00140018
0.00275373
0.0165444
0.0719999
0.00155783
0.00117643
0.00106993
0.00105196
0.0010409
0.00102358
0.00158516
0.00136574
0.00145317
0.0011759
0.00126547
0.00131839
0.00164833
0.00497394
0.0323613
0.0719999
0.00123232
0.00108498
0.00106361
0.00105114
0.00103054
0.00129895
0.00163466
0.0015762
0.0014163
0.0012367
0.00134265
0.00144623
0.00238099
0.0121103
0.0615281
0.0719999
0.00110333
0.00107672
0.0010624
0.00103848
0.00112211
0.00146148
0.00168818
0.00181076
0.0013821
0.00130714
0.00143503
0.00173043
0.00498921
0.0274662
0.0751783
0.0671148
0.00109029
0.00107497
0.00104726
0.00110304
0.0011666
0.00175872
0.00171573
0.00198783
0.00135497
0.0013815
0.00157164
0.00263927
0.0121661
0.0419938
0.0572662
0.00260047
0.0568889
0.00108774
0.00105698
0.00110068
0.00112614
0.00126673
0.00214579
0.00167414
0.00204886
0.00133086
0.0014585
0.00188581
0.00549207
0.0221031
0.0417738
0.00347823
0.00187644
0.00211513
0.0568889
0.00106682
0.00107717
0.00112226
0.00116239
0.00142737
0.00255025
0.00161221
0.00199086
0.00130111
0.00157654
0.00283274
0.011004
0.0265282
0.00483542
0.00231072
0.00201523
0.00173384
0.00199358
0.0568889
0.0010945
0.00114978
0.00120474
0.00167049
0.0028918
0.00161265
0.00184098
0.00128167
0.00189618
0.00518243
0.0147495
0.0052291
0.00289362
0.00225691
0.0027576
0.00207667
0.00190787
0.00219308
0.0568889
0.00111648
0.00116998
0.0012604
0.00200248
0.00307669
0.00165771
0.00166158
0.0014131
0.00273586
0.0074721
0.00451588
0.00325638
0.00291206
0.00298523
0.00390481
0.00293607
0.00235539
0.00221132
0.00238357
0.0568889
0.00113184
0.00118128
0.00133907
0.00235679
0.00307984
0.00173475
0.00156281
0.0018016
0.003787
0.00350646
0.00338952
0.0036068
0.00333284
0.00378978
0.00727022
0.00419321
0.00340932
0.00273023
0.00248243
0.00256233
0.0568889
0.00113522
0.00119938
0.00142492
0.00262373
0.00298529
0.00185362
0.00164354
0.00229618
0.00277349
0.00318597
0.00385606
0.00341913
0.00404028
0.00616829
0.0175228
0.0081775
0.017361
0.0157223
0.0154011
0.00483451
0.00390947
0.00300708
0.00270153
0.00275295
0.0568889
0.00113855
0.00124207
0.00146905
0.00272342
0.00295975
0.00203267
0.00187284
0.0022485
0.00287693
0.00360806
0.00346699
0.00444557
0.00521725
0.0121548
0.0192714
0.0178202
0.00948149
0.0197406
0.0179463
0.0182197
0.0206727
0.0178774
0.0188927
0.00567758
0.00416974
0.00318459
0.00294227
0.00291931
0.0568889
0.00116242
0.00130012
0.00145638
0.00262643
0.00302948
0.00229018
0.00200051
0.00246631
0.00320295
0.00348907
0.00460991
0.00465184
0.00891147
0.0178724
0.0175855
0.0160456
0.0157862
0.0198824
0.0265866
0.0103175
0.0161003
0.0218397
0.0203388
0.0212837
0.0263211
0.0234337
0.0230352
0.00617621
0.00426502
0.00348088
0.00316506
0.00307232
0.0568889
0.00120442
0.00136563
0.00141022
0.00232996
0.00317924
0.00252796
0.00218222
0.00271331
0.00349725
0.00435905
0.00457758
0.0065258
0.0139447
0.0137131
0.0133305
0.0132494
0.0261453
0.0256364
0.0230969
0.0225162
0.0288991
0.0274513
0.0313923
0.0278295
0.0308718
0.0109342
0.017446
0.0303638
0.0308084
0.0301094
0.0304204
0.0286993
0.0296589
0.0298842
0.0269617
0.0310494
0.0273807
0.0304617
0.0269361
0.028337
0.026674
0.0299273
0.0264172
0.0278831
0.0261817
0.0294936
0.00617562
0.00458698
0.00380746
0.00330073
0.00324975
0.0568889
0.00125322
0.00144064
0.00143202
0.00196396
0.00331966
0.00290615
0.00237759
0.00316556
0.0038756
0.00457703
0.00522532
0.0117462
0.0117586
0.0112821
0.0113367
0.0208103
0.0203414
0.0181772
0.0179338
0.0289924
0.0288917
0.0259768
0.0288051
0.0254159
0.026622
0.0285574
0.0288503
0.0255454
0.0287226
0.0248764
0.026137
0.0280341
0.0234222
0.0284657
0.0241895
0.0280674
0.0228995
0.0284354
0.0236139
0.0292106
0.03185
0.0286243
0.0322215
0.0272024
0.0313826
0.0273256
0.0310202
0.0104813
0.0193166
0.030541
0.0311494
0.0304853
0.0310398
0.0317998
0.0318892
0.031538
0.0315224
0.0288275
0.0315624
0.0281867
0.0319782
0.0297374
0.0323122
0.0301412
0.0324322
0.0295358
0.0322521
0.030123
0.032259
0.0267504
0.0311693
0.0268852
0.0307748
0.0269811
0.0302945
0.0265172
0.0300216
0.006269
0.00511818
0.0038883
0.00341912
0.00363384
0.0568889
0.00132323
0.00152431
0.00149631
0.00173019
0.00357437
0.00345313
0.00283095
0.00331046
0.004531
0.00484022
0.0103328
0.0103697
0.0099897
0.00998129
0.015188
0.015156
0.013947
0.0140258
0.0275047
0.0221339
0.0269036
0.021286
0.0275823
0.0216654
0.0270039
0.0208748
0.0248932
0.018868
0.0260939
0.0197818
0.0249475
0.0186247
0.0261881
0.0194662
0.0294667
0.0283057
0.0246686
0.0264455
0.028018
0.0243772
0.0292758
0.0280862
0.0260305
0.024195
0.0279146
0.0239177
0.0277198
0.0227733
0.0278806
0.0236375
0.0277306
0.0223518
0.0278294
0.0231694
0.0275494
0.0316181
0.0274383
0.0317593
0.0266485
0.0308387
0.0265968
0.0304886
0.00938905
0.0186432
0.0310224
0.0313746
0.0306956
0.031242
0.0322638
0.0324132
0.031998
0.0321427
0.0317375
0.029552
0.0316602
0.0289863
0.0319908
0.0296669
0.0318671
0.0291113
0.0313737
0.0315603
0.027461
0.0315566
0.0283078
0.0284832
0.031452
0.0314543
0.0275945
0.0317047
0.0284402
0.0282384
0.0271568
0.0314494
0.0270156
0.0316341
0.0278459
0.031784
0.0274868
0.031667
0.0263481
0.0306427
0.0263853
0.0302702
0.026622
0.0299903
0.0262315
0.029769
0.0069708
0.00516003
0.00380657
0.00375455
0.00471124
0.0568889
0.00138168
0.00161717
0.00162119
0.00173606
0.00415717
0.00421747
0.00330159
0.00398297
0.00500354
0.00964334
0.00964816
0.0094
0.00940112
0.0135546
0.0136091
0.0132881
0.013281
0.0229456
0.0169682
0.0206369
0.0163626
0.0229209
0.0168671
0.0205771
0.0162885
0.0173355
0.0153576
0.0185956
0.0153001
0.0173908
0.0154458
0.018595
0.0153516
0.027543
0.0217337
0.0273924
0.020793
0.0276056
0.0213624
0.027502
0.0204911
0.0269203
0.0189324
0.0272036
0.0197783
0.0270454
0.0187776
0.0273345
0.0195493
0.0264694
0.0310628
0.0265472
0.0311623
0.00994239
0.01502
0.0307878
0.0306165
0.0311646
0.0312537
0.0327368
0.0328512
0.0325643
0.0326998
0.0326352
0.0317039
0.0323418
0.0312276
0.0328725
0.0317597
0.0325987
0.031273
0.0318606
0.0300821
0.0320498
0.0306428
0.0321343
0.0301646
0.0323242
0.0306897
0.0311487
0.0287122
0.0312147
0.0284399
0.0316479
0.0291723
0.0316753
0.0288672
0.0311626
0.0314841
0.0280504
0.0267065
0.0313447
0.028211
0.0311958
0.0318309
0.0283693
0.0268008
0.0317568
0.028594
0.0264425
0.0309211
0.0264384
0.0310806
0.0264219
0.0311406
0.0264775
0.0311218
0.00720377
0.00469125
0.00397554
0.00480905
0.00793559
0.0568889
0.00144889
0.00165978
0.00181744
0.00201224
0.00430957
0.00534059
0.00456641
0.00472738
0.00575756
0.0127956
0.0128112
0.0124664
0.0124803
0.0159937
0.0160623
0.0155581
0.0155894
0.0257963
0.0178036
0.0245833
0.0171802
0.0258683
0.0177483
0.0245972
0.0171913
0.020052
0.0163768
0.0227435
0.0165593
0.020115
0.0164724
0.0227368
0.0166454
0.0279939
0.0188501
0.0280972
0.0187868
0.0106683
0.0148731
0.0227805
0.0224574
0.0292396
0.0287471
0.0317824
0.031876
0.0323698
0.0325132
0.0328265
0.0330534
0.0328162
0.0327802
0.0330132
0.0330744
0.0330106
0.0328238
0.0327878
0.0321468
0.0327926
0.0324842
0.033012
0.0322004
0.0330006
0.0325401
0.0310056
0.0292233
0.0309846
0.0291705
0.0314506
0.0295193
0.0315125
0.0296249
0.0310555
0.02891
0.0309557
0.0290206
0.0315934
0.0294007
0.0315054
0.029523
0.00640424
0.00443847
0.00492412
0.00800948
0.0173676
0.0568889
0.00144478
0.00175704
0.00200454
0.00230879
0.0067059
0.00770952
0.00656604
0.00625512
0.0105439
0.0105485
0.0117722
0.0117636
0.0152147
0.0152442
0.0143531
0.0143829
0.0165969
0.0216215
0.0168992
0.0204625
0.0166636
0.0216077
0.0169843
0.0204492
0.0161708
0.0189455
0.0159507
0.0195323
0.0162068
0.0189141
0.0159582
0.0195085
0.0276915
0.0183133
0.0270874
0.017994
0.0277384
0.0183268
0.0270614
0.0180662
0.024194
0.0174375
0.0258904
0.0177045
0.0241228
0.0175552
0.0258242
0.0178169
0.00975013
0.0160464
0.0219096
0.0305598
0.0304946
0.031077
0.031066
0.0307519
0.0311706
0.0311448
0.031479
0.0306548
0.0301146
0.0306826
0.0291053
0.0309319
0.0303089
0.0309824
0.029355
0.0310174
0.0291984
0.0308545
0.0290128
0.0313764
0.0294226
0.0311675
0.0292501
0.031311
0.0294016
0.031804
0.0300467
0.00548306
0.00507363
0.00800174
0.0171846
0.0417099
0.0719993
0.00152832
0.00163812
0.00214674
0.00339656
0.0120003
0.00944071
0.0114367
0.0174313
0.0148683
0.0148766
0.0159535
0.0159475
0.0183866
0.0157267
0.0159144
0.0178837
0.018373
0.0157422
0.0159571
0.0179034
0.0165994
0.0166354
0.0171267
0.0243022
0.0173607
0.0236453
0.0171992
0.0242323
0.0174487
0.0235724
0.0168258
0.0219733
0.0165652
0.0230422
0.0168793
0.0218836
0.0165987
0.0229667
0.0252207
0.0176278
0.0251491
0.0177361
0.00771133
0.0151539
0.0222141
0.0255001
0.0265521
0.029177
0.0295981
0.0300602
0.0303876
0.0307018
0.0310956
0.028553
0.0300779
0.0296039
0.0297692
0.0293906
0.0308717
0.0302569
0.0305258
0.0274242
0.0297001
0.0269255
0.029587
0.0284498
0.0302667
0.0278919
0.0302681
0.0300162
0.0273094
0.0304603
0.0278587
0.0305361
0.0282479
0.03092
0.0286543
0.0310922
0.0289388
0.0307816
0.0284193
0.0315863
0.0296042
0.0312366
0.0291343
0.00546096
0.00793437
0.0171359
0.0418214
0.0719993
0.00143823
0.00170818
0.0023487
0.00895257
0.0135364
0.0169005
0.0302569
0.0249732
0.0249878
0.0321348
0.0321559
0.0190101
0.0160987
0.0195785
0.0176072
0.0189942
0.016101
0.0195811
0.0176203
0.0215521
0.0215603
0.0210151
0.0163951
0.0164709
0.0196882
0.020971
0.0164518
0.0165352
0.0196865
0.0197401
0.016599
0.0201961
0.0168629
0.0197413
0.016614
0.0202035
0.0168754
0.0170074
0.0235008
0.016973
0.0238639
0.0170636
0.0233948
0.0170188
0.0237702
0.00649523
0.011743
0.022389
0.0288864
0.0308083
0.0313388
0.0312077
0.0317112
0.030705
0.0312968
0.0305628
0.0304466
0.0312085
0.0310148
0.0313299
0.0309172
0.031541
0.0317097
0.026686
0.0287821
0.0267049
0.0289914
0.0279406
0.0298322
0.0279497
0.0299339
0.026762
0.0300523
0.0269073
0.0294553
0.0279639
0.0306869
0.0280475
0.0302214
0.030524
0.0272666
0.0310287
0.0283286
0.00785131
0.0167838
0.0416788
0.0719993
0.00151482
0.00158793
0.00257267
0.0112544
0.0326404
0.0438445
0.0455482
0.0455624
0.0629307
0.0629352
0.034929
0.0349831
0.0454333
0.0454732
0.0224388
0.0178179
0.0223948
0.0195154
0.0224164
0.017809
0.0223879
0.0195161
0.0240865
0.0286608
0.0273325
0.0262906
0.0241052
0.0287025
0.027366
0.0263048
0.0230202
0.0170034
0.0171092
0.0219875
0.0229395
0.0170482
0.0171293
0.0219563
0.0228708
0.0174294
0.0227718
0.0173075
0.0228458
0.0174229
0.022738
0.0173027
0.00812763
0.0087022
0.0183949
0.0301027
0.0354411
0.036004
0.0337928
0.034234
0.0326422
0.0330941
0.0315524
0.0312871
0.0323045
0.0320344
0.0323425
0.0317623
0.0329874
0.0324139
0.0305597
0.0301087
0.0296406
0.0285018
0.0296185
0.0297287
0.0314734
0.0308355
0.0306572
0.0296134
0.0304761
0.0303206
0.0290153
0.027531
0.0300203
0.028501
0.027055
0.0287683
0.0269036
0.0290613
0.0283219
0.0297889
0.0282451
0.0299627
0.0161093
0.0410175
0.0719993
0.0013248
0.00218826
0.0040243
0.0229159
0.0618831
0.0960467
0.0611367
0.0611455
0.0881194
0.0881037
0.0380401
0.0325602
0.0363992
0.0409136
0.0394936
0.0306738
0.0326092
0.0381196
0.0307215
0.036478
0.0410115
0.0395962
0.0556215
0.0534929
0.0487722
0.047567
0.0558626
0.0536922
0.04888
0.0476889
0.0251253
0.0196549
0.0259131
0.0217978
0.025101
0.0196497
0.0259032
0.0218041
0.0268934
0.0297703
0.0269245
0.0297914
0.0172993
0.0230046
0.0173006
0.0229553
0.0243315
0.0183696
0.0243036
0.0183615
0.0155023
0.00926928
0.0130113
0.0274465
0.0382235
0.0382892
0.0374443
0.0381541
0.0352315
0.0364101
0.0333378
0.0344141
0.0301072
0.0324924
0.0324323
0.0311784
0.0307987
0.031082
0.0312242
0.0333362
0.0330307
0.0321407
0.0313789
0.0318502
0.0301904
0.0284409
0.0310952
0.0293739
0.0294364
0.0270138
0.0292487
0.0288336
0.026675
0.0271169
0.0304408
0.0283382
0.0301848
0.0299438
0.0280014
0.0284578
0.0285839
0.0267211
0.0297095
0.0280931
0.0396986
0.0719993
0.00139407
0.00206113
0.0112301
0.0391681
0.118289
0.121291
0.125841
0.139333
0.150116
0.0733319
0.0737207
0.110009
0.110632
0.0352386
0.0401999
0.03826
0.0329385
0.0439073
0.0422419
0.0353062
0.040304
0.0330046
0.0383754
0.0440367
0.0424227
0.0611713
0.0583306
0.0512408
0.0499206
0.0615579
0.058692
0.0514234
0.050182
0.0278662
0.0238336
0.0278657
0.0238485
0.0379327
0.0158672
0.0120813
0.0199634
0.0363504
0.0397246
0.0407513
0.037556
0.0387657
0.0358323
0.0364038
0.0341176
0.0336405
0.0371395
0.0374775
0.0355618
0.0350933
0.0320411
0.0307692
0.029207
0.0327239
0.0308547
0.0301045
0.0333255
0.0319651
0.0311001
0.0341165
0.0326255
0.0315436
0.027566
0.0278495
0.0301167
0.0300121
0.0291574
0.0291577
0.0311658
0.030982
0.0294557
0.0268166
0.0303888
0.0281202
0.0295598
0.026816
0.0291963
0.0266983
0.0303486
0.0280245
0.030058
0.0280396
0.0719993
0.00133963
0.00387347
0.017195
0.100232
0.177402
0.1302
0.13297
0.134553
0.138011
0.0740121
0.0741621
0.0724402
0.0813822
0.0750333
0.0750811
0.0728028
0.0813713
0.118221
0.120136
0.0625895
0.0610805
0.052357
0.0521429
0.0630284
0.0615172
0.0526484
0.0525065
0.0719993
0.0362535
0.0180833
0.0179235
0.0291692
0.0415676
0.0414408
0.0429408
0.0436737
0.0393031
0.0396016
0.0377235
0.0392436
0.0355761
0.0373724
0.0326691
0.030663
0.0370741
0.0389006
0.034316
0.0326079
0.0315189
0.0321381
0.0282708
0.0286479
0.0322748
0.0293441
0.0325913
0.0333301
0.0304264
0.0299607
0.033565
0.031264
0.0270815
0.0299594
0.0285232
0.0308109
0.00180395
0.00501097
0.0355377
0.18902
0.148401
0.138732
0.25601
0.226073
0.126661
0.130188
0.126583
0.131348
0.0739781
0.0728581
0.0710786
0.0826154
0.0744117
0.0739845
0.0713642
0.0828923
0.121073
0.112015
0.105341
0.101432
0.125977
0.115366
0.109588
0.103224
0.0634904
0.0625064
0.0639397
0.0630499
0.0719979
0.0354459
0.0229008
0.0262302
0.0394605
0.0442629
0.0458442
0.0412284
0.0433011
0.0385128
0.0408348
0.0399386
0.0359606
0.0357489
0.0378373
0.0415804
0.0388778
0.0391614
0.04038
0.0340947
0.0313944
0.0332451
0.0303669
0.0365347
0.0364812
0.0350855
0.033622
0.00244307
0.0121901
0.0781757
0.272361
0.206039
0.162469
0.311288
0.293618
0.119018
0.108543
0.118543
0.124875
0.11499
0.127572
0.127263
0.111552
0.121354
0.134302
0.118142
0.139232
0.129509
0.127001
0.073003
0.0731772
0.0707765
0.0813528
0.0729643
0.0741416
0.0710038
0.0821655
0.105628
0.100765
0.111226
0.102274
0.0719922
0.037228
0.032365
0.0349698
0.0466794
0.0467969
0.0444824
0.0443611
0.0439577
0.0445776
0.040562
0.0422988
0.0376697
0.0371853
0.0368059
0.0327416
0.0351348
0.0345191
0.0398855
0.0393345
0.0390236
0.0353078
0.0388085
0.0392514
0.0338336
0.0316434
0.0376804
0.0363281
0.0335374
0.0308399
0.0362165
0.0350993
0.00413309
0.0228625
0.138051
0.358824
0.380521
0.306119
0.327695
0.289562
0.249474
0.367904
0.377886
0.118795
0.1079
0.114201
0.120699
0.11269
0.121706
0.12897
0.110187
0.11724
0.134358
0.115898
0.141583
0.141939
0.14343
0.140046
0.138033
0.131833
0.131641
0.130848
0.126412
0.0719775
0.0439266
0.045424
0.045835
0.0499209
0.0497496
0.0465461
0.0469584
0.0444585
0.0451904
0.0362745
0.0355886
0.0403678
0.0384155
0.0353819
0.0404158
0.0419467
0.0403396
0.0375152
0.0421557
0.0385774
0.0383229
0.0362549
0.0362763
0.0322437
0.0317166
0.0381215
0.0386173
0.0349137
0.0346795
0.0355215
0.0311407
0.0379372
0.0340875
0.0049644
0.0412123
0.123991
0.365068
0.395017
0.243509
0.26795
0.181311
0.176877
0.407116
0.375864
0.361455
0.407099
0.14896
0.152229
0.401007
0.298898
0.329464
0.336696
0.434651
0.471656
0.113758
0.121616
0.114862
0.137658
0.159333
0.155562
0.137241
0.135804
0.0719467
0.0573595
0.0572176
0.0593462
0.0586766
0.0568645
0.0549371
0.0515928
0.0515577
0.0494534
0.0498582
0.0457897
0.0455728
0.0429568
0.041554
0.0416225
0.0431374
0.0468618
0.0422638
0.0434409
0.0463904
0.0441502
0.0427062
0.0373562
0.0327483
0.0367293
0.0341098
0.0386451
0.039228
0.0359521
0.0351538
0.00582096
0.0264907
0.0416998
0.330052
0.354123
0.176731
0.192152
0.310995
0.295541
0.455812
0.428527
0.444681
0.452288
0.208189
0.225973
0.517369
0.48819
0.498045
0.522368
0.397723
0.419571
0.475808
0.45809
0.507691
0.489609
0.561317
0.52566
0.241729
0.233363
0.159962
0.167497
0.0718876
0.073743
0.0678671
0.0629382
0.0638196
0.0589225
0.0593634
0.0553776
0.0557077
0.0463192
0.0460893
0.0512375
0.0489086
0.0481404
0.0519276
0.0469106
0.0465898
0.0514972
0.0493721
0.0484106
0.0522926
0.0427114
0.039341
0.0394474
0.0353245
0.0408716
0.0372671
0.0435098
0.0403376
0.00626613
0.0101879
0.186098
0.159849
0.163098
0.177543
0.181465
0.177473
0.367644
0.339287
0.389645
0.362098
0.426757
0.441259
0.398363
0.422243
0.463932
0.456584
0.472226
0.467853
0.417197
0.448829
0.535742
0.549916
0.544977
0.559583
0.449846
0.429747
0.52331
0.485812
0.0717744
0.0929743
0.0757047
0.0649728
0.0659639
0.0622487
0.063151
0.0587098
0.0584063
0.0556472
0.0551908
0.0525255
0.0532831
0.0591607
0.0527615
0.0533011
0.0586453
0.0562971
0.0555253
0.0451495
0.0427692
0.0489004
0.0456243
0.0458005
0.0432623
0.0492492
0.0457865
0.0415822
0.0380162
0.04248
0.0387696
0.00339446
0.0531232
0.333885
0.367796
0.31235
0.323183
0.24512
0.212718
0.335692
0.362035
0.414724
0.345554
0.398491
0.410473
0.323421
0.394029
0.351899
0.332351
0.407321
0.338409
0.398028
0.401706
0.311455
0.382504
0.445476
0.464312
0.504869
0.532735
0.351041
0.390968
0.391418
0.410944
0.0715405
0.104765
0.0967007
0.0685323
0.0703987
0.102759
0.0806254
0.0829352
0.0624757
0.0578786
0.0598716
0.0643269
0.059253
0.0609858
0.0516572
0.0529019
0.0485132
0.04874
0.0522648
0.0489367
0.0542237
0.0505487
0.045492
0.0414549
0.0486777
0.0425421
0.0461063
0.0419305
0.04935
0.0434907
0.00311529
0.179171
0.622212
0.440546
0.324855
1.19697
0.582622
0.419115
0.301576
0.90594
0.607454
0.429779
0.362118
0.342471
0.363758
0.393027
0.411912
0.436838
0.365377
0.359111
0.32554
0.392954
0.407089
0.419766
0.425885
0.43696
0.458321
0.474877
0.0711729
0.119432
0.0947202
0.0704054
0.0720408
0.102709
0.0770274
0.081124
0.0600211
0.054825
0.0565529
0.055082
0.0572899
0.0573689
0.0643112
0.0635165
0.0624423
0.0573558
0.0588751
0.0574304
0.0591381
0.0605209
0.0663357
0.0657287
0.0499397
0.0500907
0.0426287
0.0434717
0.0513329
0.0452725
0.0528829
0.0468851
0.00932946
0.498175
1.30592
0.73498
0.357107
0.222721
0.187864
0.952293
0.628011
0.573623
0.766917
0.554085
1.17371
0.761933
1.13775
3.07877
1.18755
1.96956
0.742734
0.605233
0.543801
0.727235
0.52342
1.0354
0.642026
1.0066
2.13031
0.90099
1.78426
0.3481
0.524206
0.421717
0.563815
0.336972
0.497406
0.413342
0.545476
0.0706553
0.127921
0.0927393
0.0666002
0.0700774
0.0692801
0.0701934
0.0716181
0.0707485
0.103151
0.077199
0.0831553
0.0551102
0.0606727
0.0499867
0.049394
0.0453099
0.0588152
0.0580984
0.0625221
0.0530924
0.048619
0.0531898
0.0608527
0.0474507
0.0400461
0.0504375
0.043689
0.0053371
3.70668
0.79465
2.01117
0.354312
0.166459
0.154298
0.55855
0.712776
0.953668
0.643493
1.1772
1.88026
5.10409
3.59006
7.95969
2.49103
4.23822
9.42504
2.71567
5.66152
0.530361
0.620215
0.615596
0.870345
0.902891
1.64082
2.62391
2.76674
7.51545
1.74355
3.8887
6.75125
1.53891
3.64389
0.0704379
0.22188
0.0993165
0.104105
0.223872
0.158246
0.145448
0.0644621
0.0679871
0.0593542
0.051336
0.0665924
0.0623809
0.0606754
0.0509349
0.068462
0.0718522
0.0627603
0.0562426
0.0704174
0.0672788
0.0646764
0.0569926
0.0801633
0.0655038
0.0674959
0.0847416
0.0716343
0.0749999
0.0563696
0.0606875
0.0509317
0.0560526
0.0588926
0.0656111
0.0544626
0.0642516
0.00287704
7.6555
9.85124
3.18258
1.06728
4.93058
6.89967
1.83733
0.384217
0.169183
0.155683
1.03841
1.46502
2.15374
3.34464
9.82388
18.2451
3.38264
5.56273
13.4369
18.2426
0.82341
1.26898
1.52829
2.99215
8.35129
2.41469
11.9552
5.22793
13.0711
14.4504
0.0701625
0.272429
0.106461
0.107742
0.255736
0.139388
0.122293
0.0592224
0.0584568
0.0491117
0.047485
0.0613145
0.052471
0.063036
0.0624118
0.0546785
0.05363
0.0652079
0.0585914
0.0805228
0.067899
0.0598977
0.0646988
0.0625732
0.0709505
0.0878029
0.0853547
0.0841711
0.0705421
0.0655469
0.0697848
0.0701993
0.0778394
0.0912304
0.0897617
0.00222658
0.169092
0.160129
12.0763
17.1353
7.60374
24.0558
5.31754
1.31851
7.50135
13.8762
3.63816
20.0161
3.07023
0.415277
7.85574
25.4141
46.0566
9.38447
23.0968
32.0074
6.77015
24.7739
37.2331
9.05547
23.7841
29.5026
0.0691821
0.294821
0.120668
0.104055
0.0988863
0.119646
0.105493
0.101003
0.244497
0.106755
0.112547
0.0597195
0.0498475
0.0632951
0.0538582
0.0639398
0.0558416
0.0669724
0.0597247
0.0726284
0.0850864
0.0679214
0.0594119
0.0550232
0.0800031
0.0760091
0.0867753
0.070222
0.0616837
0.0677402
0.0824689
0.00247586
0.182421
0.184383
0.170552
0.170767
19.5716
43.5271
12.5219
31.6386
27.6843
84.5851
47.4934
0.4026
11.3891
29.9235
5.27695
25.156
8.28052
73.0204
44.1521
0.347499
54.1627
39.5118
57.4853
40.4234
0.0685184
0.29195
0.26608
0.116562
0.122749
0.11928
0.12699
0.111677
0.119454
0.121396
0.11683
0.126265
0.11053
0.153931
0.148623
0.0745172
0.0693938
0.0977176
0.0619089
0.0569465
0.10903
0.0756253
0.0727441
0.0965004
0.0659691
0.0675974
0.105315
0.00168716
0.190185
0.192942
0.183469
0.188742
0.388819
0.331485
4.55516
81.9141
59.6769
58.7417
83.3163
82.7954
127.18
65.4858
139.069
100.941
58.9042
3.09569
59.9952
31.1972
40.9185
51.4002
68.8218
105.276
57.9807
112.608
110.66
61.5779
0.0685231
0.222286
0.211624
0.226168
0.202812
0.11694
0.121585
0.121647
0.122161
0.121113
0.114105
0.124379
0.119518
0.124499
0.12104
0.124901
0.122633
0.109369
0.123081
0.119841
0.125371
0.078652
0.0688052
0.0771081
0.0699497
0.00232654
0.183224
0.171456
0.18149
0.169272
0.381298
0.374772
0.351476
0.348808
1.31696
1.22399
8.56984
10.9139
23.0515
3.67428
104.23
129.007
91.2892
143.018
107.283
134.271
82.1007
126.203
7.94288
5.80273
17.5982
2.39937
101.743
130.353
88.6549
142.593
113.19
137.227
83.6131
127.757
0.0691927
0.21467
0.226501
0.205328
0.226442
0.102399
0.110925
0.105636
0.120492
0.109582
0.115644
0.116605
0.120646
0.121474
0.123171
0.122949
0.0948114
0.1043
0.114389
0.122499
0.113083
0.118769
0.119226
0.123029
0.119242
0.12527
0.123483
0.0821116
0.0850986
0.00629707
0.156837
0.187709
0.153703
0.173425
0.361132
0.342994
0.342944
0.326634
1.05494
0.967796
0.867551
0.83753
2.32901
1.17852
1.38061
1.27652
3.14296
1.07182
1.55734
1.1694
15.4887
22.9538
48.3246
5.11635
19.4697
28.3397
53.802
5.35331
0.0701706
0.296786
0.297802
0.263795
0.244014
0.101902
0.119918
0.110888
0.125455
0.101266
0.110136
0.095066
0.0938169
0.0960724
0.0894468
0.116387
0.112315
0.113148
0.115347
0.120715
0.114194
0.121326
0.119644
0.105716
0.101623
0.105414
0.0991903
0.118352
0.109003
0.112786
0.117655
0.122918
0.109132
0.122644
0.11679
0.134948
0.00236203
0.326254
0.334513
0.310361
0.306025
0.86761
0.821366
0.782213
0.748262
1.38072
1.0309
1.52629
1.0454
1.30405
0.968374
1.28392
0.98619
1.2234
0.866606
1.29083
0.859684
1.19222
0.837966
1.21198
0.838911
2.516
1.30046
1.4794
1.31063
5.43456
1.0703
1.70991
1.47653
0.0704366
0.274409
0.223601
0.262222
0.221018
0.156276
0.110491
0.146623
0.110856
0.101243
0.106387