/*--------------------------------*- C++ -*----------------------------------*\
| =========                 |                                                 |
| \\      /  F ield         | OpenFOAM: The Open Source CFD Toolbox           |
|  \\    /   O peration     | Version:  5.x                                   |
|   \\  /    A nd           | Web:      www.OpenFOAM.org                      |
|    \\/     M anipulation  |                                                 |
\*---------------------------------------------------------------------------*/
FoamFile
{
    version     2.0;
    format      ascii;
    class       volScalarField;
    location    "0.6";
    object      p;
}
// * * * * * * * * * * * * * * * * * * * * * * * * * * * * * * * * * * * * * //

dimensions      [1 -1 -2 0 0 0 0];

internalField   nonuniform List<scalar> 
12160
(
5353.05
5351.06
4699.01
5346.76
4697.63
4046.61
5332.06
4694.03
4046.78
3392.59
5306.34
4679.58
4044.13
3394.82
2740.43
5270.47
4653.91
4029.67
3394.54
2746.79
2085.99
5228.57
4617.58
4003.61
3380.8
2748.2
2096.44
1431.81
5183.79
4575.02
3966.01
3354.57
2735.07
2102.87
1453.08
773.954
5140.28
4529.62
3922
3315.28
2708.26
2091.41
1460.48
804.195
227.291
5099.91
4485.65
3875.3
3269.18
2666.42
2063.87
1450.79
815.613
262.31
2.62624
5063.98
4444.99
3830.36
3220.59
2617.23
2018.46
1422.27
813.747
282.017
15.2174
-6.79405
5033.03
4408.93
3789.11
3174.24
2565.93
1964.92
1372.59
785.306
287.282
24.747
-6.79654
-7.35807
5007.02
4377.96
3752.79
3132.17
2517.63
1909.93
1313.75
729.138
266.707
31.036
-6.71455
-7.54827
-8.19752
4985.56
4352
3721.79
3095.5
2474.43
1859.08
1254.6
662.394
225.15
27.8831
-6.52766
-7.58654
-8.19767
-8.73394
4968.13
4330.63
3695.93
3064.48
2437.29
1814.49
1201.18
596.902
177.858
17.8271
-6.418
-7.69051
-8.22317
-8.84445
-9.53175
4954.15
4313.31
3674.75
3038.8
2406.22
1776.83
1155.41
539.037
135.988
7.80935
-6.60305
-7.72013
-8.30187
-8.85638
-9.49621
4943.07
4299.44
3657.65
3017.91
2380.78
1745.85
1117.46
490.66
102.597
1.21181
-6.7342
-7.66741
-8.30836
-8.90133
-9.49518
4934.39
4288.46
3644
3001.15
2360.26
1720.84
1086.7
451.593
76.8276
-2.49877
-6.77682
-7.55989
-8.26974
-8.90536
-9.50773
4927.67
4279.86
3633.22
2987.83
2343.92
1700.94
1062.16
420.786
57.1066
-4.40858
-6.79453
-7.49924
-8.20282
-8.88311
-9.50681
4922.58
4273.22
3624.81
2977.37
2331.04
1685.28
1042.82
396.913
42.0683
-5.32924
-6.79788
-7.47749
-8.16341
-8.84625
-9.49997
4918.82
4268.19
3618.33
2969.24
2320.99
1673.07
1027.73
378.648
30.6174
-5.75504
-6.79593
-7.46839
-8.14628
-8.82345
-9.48878
4916.18
4264.48
3613.42
2962.98
2313.2
1663.62
1016.04
364.801
21.9135
-5.95402
-6.79341
-7.46316
-8.13853
-8.8127
-9.48154
4914.51
4261.88
3609.8
2958.26
2307.25
1656.37
1007.06
354.372
15.316
-6.05209
-6.79518
-7.46126
-8.13438
-8.80754
-9.4778
4913.68
4260.22
3607.27
2954.8
2302.78
1650.86
1000.2
346.557
10.3292
-6.10567
-6.80117
-7.46342
-8.13291
-8.80485
-9.47595
4913.64
4259.41
3605.66
2952.37
2299.5
1646.74
995.021
340.729
6.57281
-6.13817
-6.80984
-7.46895
-8.1343
-8.80395
-9.475
4914.35
4259.37
3604.87
2950.82
2297.2
1643.73
991.16
336.411
3.75633
-6.15895
-6.81952
-7.47628
-8.13805
-8.80475
-9.4747
4915.8
4260.06
3604.82
2950.06
2295.74
1641.63
988.35
333.245
1.65936
-6.17249
-6.82851
-7.48384
-8.14306
-8.80693
-9.47496
4918.02
4261.49
3605.49
2950.01
2295.02
1640.29
986.392
330.969
0.115901
-6.18134
-6.83585
-7.49071
-8.14829
-8.80986
-9.47566
4921.05
4263.68
3606.87
2950.64
2294.96
1639.62
985.143
329.389
-0.997535
-6.18753
-6.84141
-7.49647
-8.15309
-8.81294
-9.47662
4924.95
4266.66
3608.98
2951.94
2295.54
1639.55
984.509
328.38
-1.77079
-6.19156
-6.84504
-7.501
-8.15713
-8.8158
-9.47763
4929.81
4270.5
3611.87
2953.95
2296.75
1640.06
984.433
327.858
-2.26481
-6.19412
-6.84726
-7.50431
-8.16026
-8.81823
-9.47857
4935.7
4275.29
3615.61
2956.71
2298.62
1641.14
984.885
327.767
-2.52174
-6.1957
-6.84816
-7.5066
-8.16248
-8.82013
-9.47937
4942.74
4281.11
3620.26
2960.27
2301.2
1642.83
985.868
328.084
-2.56673
-6.19645
-6.84824
-7.50809
-8.16393
-8.82151
-9.48
4951.03
4288.07
3625.93
2964.73
2304.54
1645.15
987.405
328.815
-2.41122
-6.19651
-6.848
-7.50891
-8.16473
-8.82245
-9.48046
4960.65
4296.26
3632.72
2970.17
2308.74
1648.18
989.539
329.984
-2.05387
-6.1959
-6.84784
-7.5093
-8.16504
-8.82304
-9.48077
4971.72
4305.8
3640.73
2976.7
2313.88
1652.01
992.335
331.632
-1.48334
-6.19453
-6.84782
-7.5093
-8.16508
-8.82333
-9.48095
4984.29
4316.77
3650.08
2984.44
2320.09
1656.73
995.879
333.82
-0.678513
-6.19219
-6.84768
-7.5089
-8.16501
-8.82344
-9.48104
4998.44
4329.26
3660.86
2993.5
2327.47
1662.45
1000.27
336.641
0.387657
-6.18886
-6.84685
-7.50819
-8.16485
-8.82341
-9.48107
5014.19
4343.33
3673.17
3003.99
2336.16
1669.31
1005.63
340.199
1.75698
-6.18402
-6.84501
-7.5068
-8.16454
-8.82327
-9.48107
5031.54
4359.02
3687.08
3016.02
2346.28
1677.44
1012.08
344.624
3.47801
-6.17759
-6.84213
-7.50474
-8.1638
-8.82297
-9.48102
4376.32
5062.69
3702.64
3029.68
2357.95
1686.99
1019.77
350.064
5.60816
-6.16935
-6.83811
-7.50198
-8.16257
-8.82243
-9.48093
3719.86
4407.46
5113.46
3045.02
2371.27
1698.09
1028.86
356.689
8.21412
-6.15853
-6.83277
-7.49842
-8.16077
-8.82159
-9.48076
3062.1
3750.95
4458.43
5166.62
2386.35
1710.88
1039.48
364.686
11.3717
-6.14395
-6.82623
-7.49404
-8.15835
-8.82044
-9.48049
2403.24
3093.1
3802.29
4512.15
5217.69
1725.5
1051.81
374.26
15.166
-6.1244
-6.81877
-7.48889
-8.15532
-8.81895
-9.48011
1742.04
2434.12
3144.93
3857.08
4564.19
5260.94
1065.98
385.622
19.6921
-6.09795
-6.81061
-7.48311
-8.15172
-8.81711
-9.47961
1082.14
1772.58
2486.61
3201.22
3910.94
4609.65
5291.71
398.99
25.0543
-6.06136
-6.80232
-7.4769
-8.14767
-8.81495
-9.479
414.573
1112.23
1825.68
2544.86
3257.68
3959.2
4645.51
5318.34
31.3668
-6.00895
-6.79464
-7.47051
-8.14333
-8.81253
-9.47828
38.7507
444.273
1165.58
1886.21
2604.72
3309.86
3998.03
4666.36
5242.66
-5.92887
-6.78802
-7.46427
-8.13888
-8.80995
-9.47748
-5.79849
53.0061
499.023
1228.03
1950.19
2661.75
3353.97
4022.39
4637.42
5322.61
-6.78305
-7.45861
-8.13459
-8.80732
-9.47663
-6.7798
-5.45713
80.3465
565.432
1296.1
2013
2711.84
3387
4016.92
4683.9
4893.64
-7.45423
-8.13078
-8.8048
-9.47576
-7.45167
-6.78233
-4.20856
116.037
639.793
1365.07
2070.08
2751.79
3405.97
4049.75
4558.69
5205.21
-8.12789
-8.80261
-9.47494
-8.12629
-7.45254
-6.78773
-1.27889
160.195
716.719
1429.66
2117.92
2781.52
3436.77
3984.44
4645.51
5283.38
5932.67
-8.80097
-9.47423
-8.80009
-8.12669
-7.46069
-6.77643
4.35826
210.984
790.905
1485.58
2156.38
2813.62
3436.01
4057.61
4649.81
5273.17
5967.56
6666.13
-9.47371
-9.47344
-8.80025
-8.13253
-7.46949
-6.7355
13.3651
264.046
856.904
1531.66
2191.19
2831.53
3452.67
4039.02
4637.13
5207.62
5944.36
6674.48
7403.41
-9.47347
-8.8038
-8.14067
-7.49781
-6.63292
25.5154
313.921
910.852
1570.74
2212.94
2841.69
3431.88
4023.03
4559.82
5104.96
5884.61
6647.18
7400.54
8148.8
-9.47468
-8.8094
-8.1614
-7.55632
-6.36936
39.6596
357.699
953.775
1596.38
2225.45
2820.11
3410.85
3939.98
4455.81
4924.39
5789.39
6590.94
7373.63
8140.04
8898.09
-9.47673
-8.82205
-8.19963
-7.63126
-5.86841
54.1006
393.425
982.802
1609.71
2206.95
2798.58
3332.46
3836.96
4266.48
4681.73
5620.02
6505.66
7324.43
8115.79
8888.88
9650.72
-9.48105
-8.84472
-8.25185
-7.69774
-5.25643
67.5654
417.031
996.506
1595.81
2187.32
2729.46
3231.35
3656.72
4029.95
3478.25
5408.68
3494.58
3209.27
3217.1
6347.77
7244.41
8075.15
8868.08
9642.99
10404.1
-9.48844
-8.87453
-8.30064
-7.74812
-4.77305
77.9194
427.274
987.563
1578.33
2127.42
2634.02
3077.41
3436.03
3627.15
3761.3
3468.15
6178.98
3799.23
4012.58
4051.66
3429.11
3116.21
3076.47
7103.64
8005.01
8833.77
9626.9
10398.7
11153.6
-9.49769
-8.90204
-8.33676
-7.76842
-4.6546
81.1267
423.193
970.821
1526.62
2044.47
2508.37
2861.2
3099.26
2844.67
2808.71
2554.32
2543.84
3807.96
3435.23
6976.26
6063.9
3803.59
4150.32
4180.01
3372.01
3138.06
3073.21
7903.78
8778.78
9599.07
10387.4
11150.5
11897
-9.50642
-8.92181
-8.35614
-7.77261
-4.97422
78.4526
410.32
924.633
1456.08
1933.87
2308.1
2572.61
2334.12
2324.37
2079.07
2079.19
2761.7
2752.62
2532.27
2526.68
3755.84
2912.66
2882.04
3053.46
2765.33
7804.85
6827.15
4704.13
4694.36
4378.22
4366.06
3710.71
4069.02
4039.32
2893.53
2860.54
3035.79
2735.79
2743.01
2483.37
2656.17
2643.8
2729.27
2471.61
2645.46
2618.67
8713.7
9556.47
10368.2
11143.9
11895.6
12631.6
-9.51298
-8.93334
-8.3711
-7.76977
-5.44933
70.5248
382.207
860.155
1356.93
1764.84
2061.96
1853.58
1855.54
1657.89
1657.83
2250.92
2245.9
1973.87
1967.86
2308.22
2486.91
2482.71
2164.33
2300.27
2513.13
2485.04
2310.64
2477.08
2169.53
2300.16
2508.84
1958.25
2055.07
2068.03
2185.46
1970.21
2060.49
2076.6
2188.32
3298.9
2996.25
3165.24
3135.68
2972.9
2990.8
3161.89
2840.84
8655.19
7562.34
5324
5312.85
5014.24
5001.26
4665.67
4648.47
4238.62
4223.04
3286.74
2982.38
3152.3
3114.18
3451.6
3248.89
3583.83
3240.72
3443.31
3245.89
3580.08
3225.95
2963.11
2978.6
3150.88
2828.27
2727.78
2680.13
2719.87
2669.43
9507.47
10339.8
11133.3
11892.7
12631.7
13355.4
-9.51856
-8.94069
-8.3746
-7.76573
-6.0015
55.4018
337.065
770.669
1217.8
1550.94
1456.75
1455.89
1278.16
1278.77
1728.88
1722.84
1529.99
1523.79
1837.37
1917.44
1718.73
1783.51
1852.22
1924.84
1737.72
1794.08
1512.08
1557.29
1622.42
1673.67
1524
1561.71
1636.43
1681.17
2498.9
2322.82
2578.31
2668.14
2217.39
2430.38
2496.07
2324.78
2662.53
2575.6
2219.27
2425.51
1992.64
2140.8
2114.61
2290.46
1996.33
2140.95
2115.43
2289.42
3463.64
3129.49
3316.54
3263.57
2992.3
3021.69
3148.24
2866.02
9459.81
8596.72
6001.24
5993.21
5652.51
5640.84
5285.82
5262.3
4975.76
4956.3
3900.26
4155.8
3773.79
4018.7
3904.78
4158.36
3775.74
4017.89
3555.45
3390.54
3726.75
3639.99
3860.71
3786.2
3560.31
3376.6
3727.97
3642.69
3858.3
3774.9
3452.57
3120.15
3305.81
3254.67
3630.26
3374.18
3617.54
3360.26
2982.87
3000.58
3137.42
2848.71
2828.91
2688
2822.47
2679.21
10301.5
11117.9
11888.1
12631.8
13356.6
14066.8
-9.52445
-8.94402
-8.37429
-7.75949
-6.51758
35.3967
274.457
653.555
1030.26
1101.61
1102.94
934.291
934.757
1327.97
1323.96
1138.4
1137.65
1414.83
1458.17
1312.68
1373.88
1419.75
1462.41
1323.84
1379.62
1159.05
1273.32
1232.88
1313.38
1158.04
1270.9
1239.86
1316.73
1871.42
2004.19
1757.97
1872.39
1878.6
2006.85
1768.49
1878.18
1537.57
1612.78
1649.83
1746.19
1549.53
1619.75
1659.79
1752.02
3426
3158.52
3292.5
3280.81
10241.4
9408.81
6727.32
6713.96
6369.12
6359.22
5992.44
5970.46
5641.98
5615.68
4341.47
4587.91
4220.86
4472.09
4367.51
4598.4
4239.47
4479.34
4010.5
4266.97
4105.21
4364.8
4017.09
4272.24
4121.9
4371.95
3988.34
4307.87
3853.87
4158.38
3993.79
4305.9
3856.37
4157.99
3476.67
3604.21
3831
3659.47
3725.75
4006.98
3468.16
3605.13
3832.19
3655.57
3726.94
4008.06
3416.58
3138.83
3281.69
3265.49
3549.06
3388.06
3543.4
3375.21
11092.2
11881.7
12631.9
13359
14068.8
14764.8
-9.53042
-8.94637
-8.36803
-7.75452
-6.82125
16.0983
204.417
526.081
792.969
962.414
961.889
789.614
790.965
1200.09
1195.32
1028.55
1021.82
1423.21
1499.96
1326.93
1388.95
1431.88
1505.88
1336.2
1393.56
1126.05
1138.63
1222.25
1260.62
1131.21
1138.33
1229.39
1263.02
1564.27
1662.92
1574.68
1667.12
11049.7
10162.6
7432.78
7422.86
7100.53
7081.23
6738.1
6718.59
6394.86
6375.02
4873.3
5336.48
4821.24
5127.5
4888.25
5340.48
4840.48
5135.23
4503.72
4733.23
4665.86
4914.32
4522.01
4742.05
4689.71
4922.37
4529.55
4787.98
4412.83
4706.46
4534.59
4788.55
4413.61
4707.48
4132.7
4465.84
4275.53
4609.13
4136.59
4462.36
4277.26
4604.95
11870.3
12631.7
13362.5
14072.8
14767.3
15448.5
-9.53633
-8.94757
-8.36229
-7.76445
-6.9825
2.85332
130.634
352.555
538.435
537.67
371.536
371.612
860.696
854.106
696.194
696.171
933.311
1013.38
1011.86
923.454
931.858
1013.82
1011.52
919.714
870.155
759.858
807.472
844.979
868.058
756.947
805.834
838.291
1484.64
1559.72
1374.17
1426.19
1489.47
1562.63
1374.05
1427.43
1109.83
1108.58
1236.57
1273.43
1116.92
1109.6
1238.2
1274.38
11851.6
11006.7
10206.7
7287.14
7278.5
7037.79
7010.41
6587.31
6584.41
6197.95
6196.57
4989.77
5483.57
5006.74
5358.17
4991.1
5475.88
5012.01
5355.31
4699.6
4953.75
4875.54
5149.69
4703.02
4953.34
4882.35
5148.56
4539.4
4769.77
4552.47
4767.91
12630.5
13367
14078.7
14772.4
15451.4
16117.4
-9.54158
-8.9498
-8.35496
-7.79464
-7.0206
-3.92787
55.6347
169.378
435.467
431.23
256.126
254.116
682.259
744.288
697.313
594.865
680.402
743.17
696.609
593.557
606.3
601.719
967.329
1014.54
1044.51
938.48
968.038
1015.32
1044.78
938.057
872.856
770.452
784.735
852.129
873.152
773.232
785.139
853.853
1097.84
1141.67
1103.2
1141.94
12630.7
11847.3
11050.6
8025.78
8019.19
7758.51
7716.11
7414.1
7378.4
7049.79
7021.21
5697.31
5525.99
5855.22
5402.53
5704.7
5550.63
5860.62
5412.79
5570.13
5180.89
5467.75
5274.61
5575.09
5182.29
5466.6
5278.02
5141.76
5383.77
5028.51
5237.67
5144.29
5380.38
5023.8
5235.11
4702.07
4922.73
4875.7
5080.87
4708.2
4916.7
4880.46
5075.93
13372.4
14086.6
14780
15457.1
16120.5
-9.54697
-8.95172
-8.34862
-7.78741
-7.15911
-5.76967
1.1815
72.7206
72.4098
24.0543
24.0023
346.682
383.953
245.982
309.026
343.618
382.608
247.115
308.372
169.411
168.223
695.932
707.699
622.557
603.458
698.565
707.952
622.942
604.08
438.591
462.501
534.402
528.359
433.091
460.084
528.523
526.438
901.417
772.591
816.524
845.663
900.856
776.237
815.799
848.907
13380.4
12642.3
11893
11056.9
7996.52
7953.49
7603.09
7560.31
7165.12
7133.99
5683.27
6038.84
6159.99
5700.55
5690.18
6037.01
6156.69
5690.88
5837.36
5664.17
5956.11
5523.7
5830.7
5646.86
5942.38
5515.04
5716.6
5288.47
5538.01
5414.68
5716.96
5281.44
5536.8
5404
5143.33
5360.04
5148.45
5359.93
14097
14790.5
15465.9
16126.6
-9.54898
-8.95773
-8.34229
-7.79619
-7.37465
-6.31487
-3.57527
-3.57286
-4.54405
-4.54718
32.9079
32.7046
3.6458
3.63522
335.843
343.285
235.048
254.863
333.383
342.033
233.212
254.084
148.758
84.2106
92.7738
142.175
148.374
84.0392
92.4351
141.205
701.78
715.808
600.312
626.675
701.216
715.197
599.334
623.815
431.619
436.828
522.487
520.005
428.751
435.353
518.816
518.752
14109.3
13400.3
12698.6
11964.2
8737.37
8743.14
8320.3
8319.02
7779.2
7780.58
6189.75
6549.13
6174.34
6689.59
6192.27
6545.58
6194.77
6695.96
6045.35
6372.29
5972.39
6258.61
5758.72
6243.62
6070.21
6368.65
5986.05
6247.09
5748.17
6229.44
5813.02
6185.94
5792.62
6169.28
5704.53
5606.74
5848.33
5452.04
5706.58
5628.86
5846.97
5466.02
14804.3
15478.1
16135.9
-9.55665
-8.95482
-8.37177
-7.77056
-7.58834
-7.05879
-3.95398
-3.92783
-5.4559
-5.45079
25.6185
67.846
26.8772
9.35477
11.347
66.058
67.4693
25.0095
65.9311
26.4458
9.18898
11.1292
0.651235
0.38207
3.10313
3.1649
0.618679
0.37282
3.05705
3.14884
316.537
321.399
224.341
224.613
315.521
320.358
223.667
223.772
120.976
123.308
120.668
122.424
596.294
605.18
595.239
601.327
399.482
414.58
398.506
413.51
14822.9
14130.2
13452.1
12836.8
9490.28
9484.95
9089.09
9085.58
8469.14
8471.57
8032.34
8036.01
6836.91
6361.33
6929.53
6454.02
6778.9
6245.28
6827.19
6400.82
6934.07
6457.54
6770.45
6245.05
6320
6712.24
6305.61
6701.54
6188.68
6495.42
6084.11
5945.33
6385.51
6214.49
6183.28
6486.01
6074.9
5946.22
6387.29
6204.9
5797.47
6063.48
5798.82
6055.04
15494.3
16148.7
-9.55425
-8.96773
-8.39095
-7.77841
-7.76045
-6.5101
-6.54312
-6.43154
-6.46211
-2.77274
-2.76682
-5.57038
-5.56181
55.1052
18.6106
17.9086
51.5124
8.79409
9.14448
54.403
18.2599
51.1459
17.8178
8.72302
9.16081
1.38832
1.27496
3.68441
4.13083
1.3576
1.26489
3.59626
4.09647
199.318
196.536
198.465
195.61
15515.7
14849.2
14167.8
13545.6
12868.2
9117.82
9138.7
8925.8
8902.29
7032.24
7604.71
7017.89
7461.5
7061.31
7605.42
7051.31
7474.6
6695.84
6441.16
7113.98
6884.32
7295.67
7056.91
6728.03
6452.46
7117.97
6916.93
7304.45
7058.1
7078.82
6778.16
6586.92
6504.25
7076.11
6766.76
6580.25
6487
6351.99
6635.66
6343.9
6624.93
6183.14
6453.43
5944.38
6213.51
6195.17
6449.32
5947.75
6214.98
16165.6
-9.5678
-8.96424
-8.41363
-7.92435
-8.37865
-6.12599
-6.20903
-6.0553
-6.13172
-3.63668
0.113555
-0.347362
-3.02179
-3.64752
0.0639155
-0.369543
-3.08672
-5.26196
-5.30458
1.78711
2.0641
3.81606
4.19781
1.80377
2.03893
3.75585
4.15576
16187.9
15543.8
14885
14220.4
13633.7
10123.5
10078.8
9597.65
9615
9282.26
9293.1
8933.27
8897.54
7167.25
7711.29
7223.76
7731.15
7135
7659.18
7181.66
7680.33
6568.7
6848.26
6961.2
7211.26
7092.78
7483.79
6603.33
6846.16
7208.09
6977.6
7056.09
7461.32
6802.11
6491.94
6795.82
6485.35
-9.556
-8.96185
-8.42169
-8.12561
-5.60518
-5.67144
-5.98164
-6.00003
-4.72117
-4.92563
-5.17329
-5.3375
-3.13021
-0.0271346
-0.387466
-2.34101
-3.17204
0.0231366
-0.42706
-2.43494
-3.47344
-4.16694
-3.06403
-3.65807
-3.70724
-4.22553
-3.25275
-3.70736
1.44863
1.82077
1.47792
1.793
16217.2
15580.8
14933.4
14303.6
13574.9
9846.79
9843.59
9558.98
9522.01
9137.32
9050.89
7918.07
7405.82
7872.69
7354.95
7878.69
7340.88
7801.96
7316.52
7308.35
7595.68
7167.63
7490.62
7292.14
7568.03
7176.96
7515.41
-9.55619
-8.93983
-8.402
-7.91978
-5.21723
-4.97409
-5.67749
-5.54731
-2.92914
-3.4696
-3.55147
-3.34159
-3.54975
-3.26097
-3.2262
-3.58745
-3.6508
-3.34499
-3.53443
-3.37148
-4.30778
-4.51354
-2.8278
-0.81534
-1.09449
-2.18568
-2.85254
-0.721228
-1.09179
-2.24975
-2.79119
-3.23144
-3.03225
-3.35684
16256.1
15630.7
14999.5
14503.4
10411.4
10444.3
10083.4
10148.7
9895.08
9887.76
9529.37
9440.38
7615.41
8301.68
7610.88
8137.6
7364.58
8060.42
7621.53
8296.31
7621.17
8129.37
7334.3
8011.51
7461.75
8069.28
7440.52
8008.65
7292.29
7642.48
7317.38
7659.41
-9.52391
-8.92855
-8.29587
-5.6058
-5.61108
-5.96959
-5.96272
-5.30899
-5.03282
-5.45719
-5.39817
-2.93893
-3.27327
-3.286
-3.1297
-3.34527
-3.13753
-3.11879
-3.34462
-3.42563
-3.18356
-3.3453
-3.18221
-3.83893
-4.36098
-3.29624
-3.47233
-3.49239
-4.0749
-3.30454
-3.34845
16309.3
15695.7
15049.8
14251.9
10348.4
10376.3
10055.8
10045
9733.47
9678.76
7806.84
8537.24
8441.4
7801.92
8300.97
7836.66
8418.58
7790.31
8289.39
7790.23
7772.97
8515.58
7776.31
7466.4
8383.9
7867.73
7742.33
7503.41
8368.3
7883
7366.97
7805.83
7404.82
7813.27
-9.51192
-8.88121
-8.19967
-5.40038
-5.37366
-5.73757
-5.69993
-3.6655
-3.9997
-4.49059
-3.87313
-4.09691
-4.02818
-3.47231
-3.8172
-4.48322
-3.76002
-4.05445
-4.01026
-5.20437
-5.19398
-3.15182
-3.12075
-3.25884
-3.04173
-3.35752
-3.51211
-3.163
-3.37884
16373.1
15754.9
14985.4
11111.1
11152.6
10821.2
10823.4
10502.7
10474.7
10014.1
9979.31
8076.37
8672.83
8148.58
8626.41
8042
8731.73
8073.36
7989.12
8696.58
8665.1
8117.27
8588.55
7818.82
8209.04
8070.85
8750.57
8026.72
7807.69
8710.17
8201.89
-9.49263
-8.81061
-7.99565
-5.27305
-5.22787
-5.6078
-5.5917
-3.58407
-3.68108
-4.19554
-3.63944
-3.79725
-3.79879
-3.37492
-3.58797
-4.17147
-3.54472
-3.75726
-3.76113
-4.2036
-4.63091
-3.87867
-4.26195
-4.15709
-4.61098
-3.90784
-4.25525
-3.35019
-3.52456
-3.08685
-3.36373
16421.6
15799.3
15061.5
11060.9
11070.5
10696.4
10711.7
10221.8
10224.3
8126.66
8724.27
8856.89
8302.97
8654.15
8314.27
8112.85
8712.29
8857.77
8301.7
8657.11
8311.85
8230.09
8143.27
8896.71
8560.99
8110.95
8539.96
8183.15
8858.34
-9.48449
-8.71815
-5.68594
-5.35736
-5.33814
-5.68475
-6.14154
-6.15528
-5.03946
-3.9954
-4.35886
-5.02546
-3.96045
-4.34562
-3.48385
-3.57166
-3.92342
-3.66717
-3.75452
-3.75423
-3.31848
-3.50472
-3.89958
-3.58325
-3.71815
-3.72201
-3.72756
-3.99332
-3.72128
-3.97747
16485.6
16011.7
15428.7
11312.1
11298.2
10854.2
10847.1
8531.41
9117.61
8612.59
8984.38
8306.34
8814.88
8580.15
8297.49
8807.59
9138.55
8608.15
8976.71
8345.72
8782.55
8358.77
8764.15
8340.21
8777.85
8350.7
8755.73
8223.45
8743.83
8196.91
8722.43
-9.44146
-8.59779
-5.27029
-5.54407
-5.25749
-5.53694
-6.0822
-6.08858
-3.92047
-3.8995
-4.08176
-4.02061
-4.23137
-4.21644
-4.26104
-4.60657
-3.88039
-3.91239
-4.07393
-4.00057
-4.22688
-4.2089
-4.24128
-4.59317
-3.77972
-3.62969
-3.76584
-3.61131
-3.69568
-3.91515
-3.66779
-3.90681
16684.4
16243.4
12037.9
11204.5
11174.9
12055.2
11591
11602.3
10270.4
8639.7
9221.21
10296.6
8661.96
9231.98
8714.44
8828.58
9025.37
9300.27
8697.73
9008.8
8809.44
9287.98
8287.62
8670.11
8480.78
8884.07
8282.06
8666.61
8468.44
8867.46
-9.42065
-8.53459
-5.12116
-4.41836
-4.12537
-5.48236
-5.11162
-4.41336
-4.11902
-5.46816
-5.99193
-5.99372
-3.76564
-3.77637
-3.51972
-3.83333
-3.92661
-4.04163
-3.78453
-3.5174
-3.78036
-3.83652
-3.92946
-4.04003
-3.75589
-3.56397
-3.7482
-3.55883
16939.9
16417.8
12082.9
11176.9
11182.3
12059.2
11638.6
11619.1
8851.28
8600.89
9166.97
8614.28
9179.7
9228.6
8842.34
9508.45
8892.01
8624.65
9168.58
8661.25
9195.82
9244.3
8894.21
9510.58
8811.41
8799.3
9124.21
9242.77
8789.99
9109.51
8797.9
9243.17
-9.38899
-6.15595
-5.87856
-5.88566
-6.18296
-6.72516
-6.75832
-4.43871
-4.30867
-4.14648
-4.26183
-4.08649
-4.77699
-4.19792
-4.46527
-5.41146
-4.34545
-4.61499
-4.43914
-4.30379
-4.14179
-4.26052
-4.08157
-4.77466
-4.19643
-4.46161
-5.40925
-4.33957
-4.60913
-3.63408
-3.72449
-3.87191
-3.99717
-3.65701
-3.71885
-3.87531
-3.99165
17200.1
16687
12173.1
10944.2
9469.51
8872.55
10948.1
9487.41
8897.29
12142.8
11524.1
11554
8756.09
8969.05
8727.72
9070.5
9275.14
9447.58
8786.09
8976.57
8732.01
9269.77
9101.84
9460.21
8773.77
9100.17
8766.68
9093.1
-9.27628
-5.87115
-6.0337
-5.85613
-6.04971
-6.70241
-6.70987
-3.82389
-3.96484
-4.10388
-4.06557
-4.06649
-4.30955
-4.41474
-4.40828
-4.53501
-4.36093
-4.54798
-4.75
-4.85039
-5.20891
-3.82264
-3.97771
-4.06465
-4.10707
-4.05727
-4.30258
-4.39623
-4.41879
-4.52354
-4.35584
-4.54085
-4.74842
-4.82059
-5.18544
17482.1
12676.9
12112.2
12073.2
12752.3
12381.3
12406.6
9234.41
9425.78
8953.23
9588.02
8905.97
10003
9216.55
9765.06
9291.87
9376.54
8947.2
9590.72
8864.2
9996.49
9251.45
9778.67
11218.5
9291.02
9951.25
11204.3
9335.56
9965.24
8874.11
9002.66
9212.71
9623.81
8874.74
8981.42
9224.16
9611.82
-9.25473
-5.86816
-5.00509
-4.6977
-6.02943
-5.83605
-4.98477
-4.6703
-6.04533
-6.64465
-6.65368
-3.86688
-4.0982
-4.16758
-4.35467
-4.262
-4.21388
-4.18544
-4.37532
-4.42198
-4.55781
-3.86782
-4.09675
-4.14406
-4.34264
-4.23756
-4.17827
-4.21772
-4.3624
-4.40935
-4.55024
17366.6
12674.8
12014
11998.7
12763.5
12349.3
12363.6
8988.61
9127.18
9524.15
9500.93
9351.47
9824.72
8973.46
9137.31
9523.6
9511.46
9353.82
9816.64
9436.31
9371.52
9961.03
9294.2
9880.6
9932.81
9534.18
10199.8
9443.72
9392.35
9975.43
9334.6
9891.01
9938.02
9552.07
10194.6
-9.28679
-6.59156
-6.60263
-5.7902
-4.95133
-4.63618
-4.92359
-4.67504
-5.97827
-5.77372
-4.933
-4.63352
-4.90961
-4.66441
-5.99863
-4.12743
-4.11186
-4.22055
-4.32309
-4.34439
-4.51296
-4.11449
-4.07591
-4.19002
-4.31221
-4.32942
-4.49724
17496.6
12695
11997.1
10124.8
9584.12
11936.3
10116
9576.05
12735.9
12407.9
12397.5
9104.03
9454.89
9236.1
9744.26
9137.76
9458.23
9246.47
9731.84
9509.85
9739.29
9339.37
9796.36
9758.16
10185
9566.7
9709.07
9320.88
9771.53
9806.43
10169.3
-9.3354
-6.57266
-6.52832
-6.58408
-6.54051
-5.66919
-4.84875
-4.57687
-4.88602
-4.53087
-4.18844
-4.49597
-6.03938
-5.66901
-4.83684
-4.58899
-4.87404
-4.53704
-4.15234
-4.47958
-6.0598
-4.12634
-4.31917
-4.11122
-4.31231
17503.2
12687.8
12683
12067.4
10022.1
9569.17
9941.29
9606.9
12037
10024.4
9569.22
9945.01
9600.87
12362.8
12329.8
9631.54
9342.6
9730.64
9938.91
9602.51
10070.7
9668.58
9375.44
9721.03
9616.82
9933.92
10068.1
-9.35586
-6.5205
-6.49821
-6.53357
-6.5184
-6.02864
-6.04982
-5.68151
-4.79938
-4.44288
-4.77937
-4.47408
-4.48776
-4.16727
-4.48999
-4.17041
-4.08781
-4.3024
-5.67849
-4.77689
-4.40463
-4.75561
-4.42494
-4.45749
-4.12989
-4.46889
-4.10318
-4.06383
-4.28997
17502.2
12688.9
12684.3
12684.8
12689.6
11927.1
9832.87
9566.85
9908.81
9505.89
9689.48
10040.2
11874.9
9826.99
9571.78
9908.17
9530.35
9709.2
10064.4
12433.2
12402.6
9624.3
9932.67
9677.59
9947.72
-9.33987
-6.51391
-6.56825
-6.53463
-6.58812
-6.05263
-6.06525
-6.07557
-6.07705
-5.66239
-5.64507
-4.81497
-4.58647
-4.82808
-4.56986
-4.53777
-4.22524
-4.50865
-4.19309
-4.38495
-4.09026
-4.34028
-4.14361
-4.81781
-4.56221
-4.81252
-4.58087
-4.51451
-4.15293
-4.48865
-4.1351
-4.3523
-4.0546
-4.3197
-4.0815
17496.8
12684.2
12688.6
12687.5
12682.6
12454.5
12426.1
11830.8
9872.73
9423.01
9880.44
9462.58
9747.45
9615.11
9892.59
9537.79
9648.03
9979.17
11785.8
9837.83
9448.73
9880.93
9478.13
9753.87
9612.2
9883.91
9571.72
9656.2
9962.22
-9.39979
-6.64741
-6.71095
-6.66104
-6.73312
-6.0682
-6.10303
-6.08346
-6.11824
-5.66547
-5.63405
-5.64371
-5.62166
-4.82835
-4.59049
-4.8475
-4.57746
-4.83762
-4.62821
-4.85819
-4.60356
-4.54167
-4.38106
-4.61822
-4.28416
-4.55367
-4.3835
-4.61781
-4.30244
17371.3
12692.1
12691
12681.8
12735
12452
12432.9
12426
12403.8
11834.6
11776.4
10241.6
9541.98
10121.2
9661.38
9963.53
9559.5
10016.5
9595.67
9840.47
9599.66
9901.82
9531.41
10230
9539.3
10118.9
9639.4
9749.78
9404.73
9784.32
9485.37
9820.81
9598.58
9876.61
9558.29
-8.5302
-9.44161
-6.10699
-6.19634
-6.12039
-6.20638
-5.64122
-5.70223
-5.63435
-5.69214
-4.8373
-4.53254
-4.82578
-4.55872
-4.83382
-4.5845
-4.81131
-4.59071
-4.85067
-4.63158
-4.85781
-4.61628
-4.8342
-4.60496
-4.8154
-4.60536
-4.55055
-4.18992
-4.53672
-4.27776
-4.56024
-4.30847
-4.57482
-4.29988
17495.4
12666.6
12691.2
12762.5
12748.9
12361.8
12408.1
12337.2
12397.7
11838.8
11840
11781.9
11796.5
10310.2
9741.27
10348.7
9709.5
10293.2
9704.33
10326.7
9679.12
10296.9
9619.37
10074.9
9765.9
10273.9
9567.9
10019.6
9720.93
-8.58977
-5.81987
-5.95168
-5.81645
-5.9427
-9.44056
-5.78745
-5.83366
-5.76681
-5.81752
-4.81799
-4.59132
-4.80927
-4.60336
-4.86215
-4.73272
-4.90791
-4.67423
-4.81561
-4.60722
-4.81157
-4.61415
-4.85927
-4.73254
-4.9028
-4.68259
-4.53573
-4.14942
-4.51925
-4.17957
-4.57608
-4.27503
-4.54202
-4.29554
-4.57946
-4.31981
-4.58675
-4.29858
-4.57449
-4.2993
-4.55323
-4.29783
17209
16700.7
12339.3
12378.2
12372
12403.2
11936.5
12074.8
11892.3
12044.8
10307.2
9743.19
10349.1
9705.5
10238.5
9538.42
10121.1
9661.26
10292.6
9707.21
10327.8
9678.73
10228.7
9547.15
10125.4
9642.91
10319.8
9805.15
10367.2
9777.01
10300.3
9778.25
10348.8
9741.77
-8.70102
-6.0276
-6.1099
-6.03041
-6.12107
-5.40988
-5.46743
-5.40393
-5.45628
-9.49031
-4.9275
-4.7567
-4.93777
-4.72218
-4.96501
-4.73315
-5.09456
-4.64906
-4.91988
-4.74176
-4.92855
-4.70907
-4.95668
-4.71588
-5.08115
-4.64045
-4.50913
-4.27822
-4.52399
-4.29269
-4.51472
-4.33355
-4.5237
-4.31803
-4.52507
-4.31268
-4.54063
-4.33253
-4.53031
-4.36109
-4.53384
-4.35388
16952.7
16427.1
12119.7
12175.2
12079.8
12148.4
12003
12018.3
11934.2
12011.3
9882.81
9415.32
9876.75
9469.94
9840.68
9575.87
9913.24
9515.35
9852.41
9456.5
9877.12
9499.33
9836.49
9572.56
9911.17
9540.91
10322.3
9806.45
10368.5
9778.01
10304.1
9619.19
10085.4
9769.04
10299.7
9780.53
10350.7
9740.13
10281.5
9577.6
10037.1
9724.69
-7.95964
-8.82884
-5.49674
-5.65879
-5.48454
-5.65553
-4.16288
-4.2899
-4.40871
-4.23207
-4.48702
-4.62063
-4.45022
-4.7896
-4.2666
-4.56952
-4.19937
-4.32913
-4.42473
-4.24489
-4.49133
-4.63864
-4.44884
-4.78586
-4.26881
-4.57078
-9.50953
-4.45748
-4.27652
-4.49361
-4.20824
-4.47155
-4.15568
-4.46784
-4.31357
-4.50533
-4.24047
-4.49477
-4.21024
-4.31379
-4.059
-4.26763
-4.07448
-4.32863
-4.08863
-4.27772
-4.09998
16700.9
16259.5
12085
12044.9
12063.7
12062.5
11209.9
11516.6
11210.5
11549.3
10024.8
9570.99
9943.56
9610.56
10121.5
9525.11
10195.1
9575.22
10018
9567.62
9945.74
9597.93
10120.2
9558.03
10198.6
9581.92
9985.72
9556.33
10017.7
9601.29
9760.12
9632.56
9896.16
9554.51
9773.3
9424.93
9778.41
9521.92
9767.28
9603.75
9883.43
9567.52
-8.1956
-5.30956
-5.55619
-5.29715
-5.54429
-8.8941
-5.14576
-5.22693
-5.13678
-5.21648
-3.96879
-3.82219
-4.22347
-4.15867
-3.91084
-4.1916
-4.13732
-4.42863
-3.93222
-4.23023
-4.02004
-3.82344
-4.2355
-4.16137
-3.89024
-4.18418
-4.12677
-4.42288
-3.919
-4.22177
-9.54507
-4.21295
-4.02208
-4.23437
-4.00305
-4.17452
-3.92305
-4.20221
-4.04324
-4.23775
-3.98208
-4.1779
-3.95294
16500.7
16027.7
15446.6
11638.9
11606.1
11620.8
11612.1
9351.01
9433.88
9958.69
9300.36
9884.02
9926.89
9256.3
10029.5
9301.06
9962.58
9440.71
9432.16
9989.39
9355.56
9902.82
9937.01
9325.08
10036.2
9355.95
9982.55
10079.2
9702.8
10054.3
9736.13
10186.5
9739.32
10078.4
9706.91
10073.8
9730.6
10175.2
9711.08
9848.6
9617.63
9904.9
9546.46
9826.23
9581.11
9866.34
9554.68
-8.37045
-5.71448
-5.90256
-5.69615
-5.90006
-4.96994
-5.20244
-4.96287
-5.18303
-8.98663
-4.27977
-4.09474
-4.22261
-4.04935
-4.38126
-4.249
-4.58957
-4.08445
-4.28042
-4.08245
-4.22407
-4.04742
-4.38028
-4.25
-4.58907
-4.07957
-3.84385
-4.11225
-3.8895
-4.0708
-3.71786
-4.03249
-3.86891
-4.11648
-3.89208
-4.0694
-3.71048
-4.02804
-9.53345
16439.1
15814.3
15070.5
11210.1
11327.3
11178.4
11312.5
10958.8
11205.1
10957.6
11210.8
9494.04
9355.92
9771.25
9792.27
9243.97
9754.45
9231.14
9784.98
9370.18
9839.69
9588.41
9343.75
9809.51
9786.79
9236.54
9737.26
9265.69
9799.65
9367.4
9831.96
9948.31
9663.5
9988.47
9637.52
9942.88
9637.21
9959.11
9646.25
9962.35
9678.16
9935.65
9657.65
-7.90083
-8.52283
-5.33894
-5.51209
-5.31267
-5.49256
-3.83022
-3.89156
-4.01265
-3.96707
-4.16535
-4.18939
-4.12203
-4.5131
-3.9913
-4.29458
-3.8373
-3.8727
-4.01538
-3.96708
-4.16897
-4.18678
-4.09269
-4.50118
-3.99365
-4.29572
-8.92384
-3.96438
-3.76146
-4.00752
-3.69005
-3.9991
-3.71884
-3.95877
-3.74229
-4.00181
-3.67689
-3.99863
-3.71882
-9.55148
16390
15774.7
14994
11070.7
11119
11075.9
11159.1
10276.3
10866.2
10302.6
10855.5
9428.85
8962.21
9598.17
8912.15
9471.84
8851.61
9521.24
8875.93
9377.57
8958.66
9603.74
8870.06
9491.96
8903.62
9521.08
8906.48
9337.18
9606.61
9145.9
9518.4
9121.46
9470.34
9412.09
9626.78
9152.54
9530.62
9151.24
9475.47
-8.25754
-5.50588
-6.07809
-5.49145
-6.07579
-8.54861
-5.00258
-5.15627
-4.9864
-5.14162
-3.67766
-3.44759
-3.86667
-3.73397
-3.56442
-3.80113
-3.73693
-4.09724
-3.57586
-3.87384
-3.72731
-3.43925
-3.8822
-3.73664
-3.57105
-3.80589
-3.76352
-4.10667
-3.60972
-3.88893
-8.96995
-3.81495
-3.54885
-3.82818
-3.58574
-9.56219
16324.2
15713.2
15075.4
14262.7
10709.7
10829.4
10720.8
10828.7
8609.03
8861.6
9178.78
8621.89
9193
9235.68
8545.45
9131.36
8658.41
9238.58
8896.08
8624.41
9173.11
8661.89
9206.23
9248.96
8589.52
9150.26
8666.84
9242.21
9626.59
8993.57
9531.17
9009.13
9454.01
8972.3
9612.51
8983.34
9531.8
8988.75
9467.83
8987.32
-8.82052
-8.26182
-5.12487
-5.63793
-5.0667
-5.62103
-8.46271
-4.23623
-3.58476
-3.96829
-3.7526
-4.75052
-4.22683
-3.58384
-3.97065