/*--------------------------------*- C++ -*----------------------------------*\
| =========                 |                                                 |
| \\      /  F ield         | OpenFOAM: The Open Source CFD Toolbox           |
|  \\    /   O peration     | Version:  5.x                                   |
|   \\  /    A nd           | Web:      www.OpenFOAM.org                      |
|    \\/     M anipulation  |                                                 |
\*---------------------------------------------------------------------------*/
FoamFile
{
    version     2.0;
    format      ascii;
    class       volScalarField;
    location    "0.6";
    object      p_rgh;
}
// * * * * * * * * * * * * * * * * * * * * * * * * * * * * * * * * * * * * * //

dimensions      [1 -1 -2 0 0 0 0];

internalField   nonuniform List<scalar> 
12160
(
5680.06
5678.06
5680.01
5673.76
5678.63
5681.6
5659.06
5675.03
5681.78
5681.6
5633.34
5660.58
5679.13
5683.82
5683.43
5597.47
5634.91
5664.67
5683.54
5689.79
5682.98
5555.57
5598.58
5638.61
5669.8
5691.2
5693.44
5682.81
5510.79
5556.02
5601.01
5643.57
5678.07
5699.87
5704.08
5678.95
5467.28
5510.62
5556.99
5604.28
5651.26
5688.41
5711.48
5709.11
3892.94
5426.91
5466.65
5510.3
5558.18
5609.42
5660.87
5701.79
5720.61
4085.42
170.017
5390.98
5425.99
5465.35
5509.59
5560.23
5615.45
5673.27
5718.75
4178.93
426.77
0.595976
5360.03
5389.93
5424.11
5463.24
5508.93
5561.92
5623.59
5690.31
4131.76
612.769
1.87146
0.163182
5334.02
5358.96
5387.79
5421.17
5460.63
5506.92
5564.75
5634.14
3846.15
729.256
5.14372
-0.0264004
-0.0225147
5312.56
5332.99
5356.79
5384.5
5417.43
5456.08
5505.6
5567.39
3377.76
662.678
12.8881
-0.0611116
-0.0226647
0.0950596
5295.13
5311.63
5330.93
5353.48
5380.29
5411.49
5452.18
5501.9
2828.36
469.338
16.1417
-0.152512
-0.048171
-0.0154454
-0.0487502
5281.15
5294.3
5309.75
5327.81
5349.22
5373.83
5406.41
5444.04
2291.95
275.625
9.67267
-0.160967
-0.126868
-0.0273833
-0.0132094
5270.07
5280.44
5292.65
5306.92
5323.78
5342.85
5368.47
5395.66
1818.57
146.3
3.29498
-0.127891
-0.133356
-0.0723347
-0.0121804
5261.39
5269.45
5279
5290.15
5303.26
5317.84
5337.7
5356.59
1421.48
72.5621
0.939737
-0.0357445
-0.0947385
-0.0763566
-0.0247335
5254.67
5260.86
5268.22
5276.84
5286.92
5297.94
5313.16
5325.79
1099.12
34.3703
0.283736
0.022106
-0.0278218
-0.0541145
-0.0238092
5249.58
5254.22
5259.81
5266.37
5274.04
5282.28
5293.82
5301.91
843.508
15.7407
0.117794
0.0435406
0.0115925
-0.0172549
-0.0169681
5245.82
5249.19
5253.33
5258.24
5263.99
5270.07
5278.73
5283.65
644.213
7.096
0.0814395
0.0526104
0.0287173
0.00554847
-0.00578573
5243.18
5245.48
5248.42
5251.99
5256.21
5260.62
5267.04
5269.8
490.694
3.1972
0.0756769
0.0578405
0.0364683
0.0163014
0.00145916
5241.51
5242.88
5244.8
5247.27
5250.26
5253.37
5258.06
5259.37
373.456
1.4622
0.072221
0.0597335
0.0406249
0.0214619
0.00519616
5240.68
5241.22
5242.27
5243.8
5245.78
5247.86
5251.2
5251.56
284.486
0.688949
0.065905
0.057582
0.0420892
0.024146
0.00704856
5240.64
5240.41
5240.66
5241.37
5242.5
5243.74
5246.02
5245.73
217.321
0.34009
0.0571772
0.052053
0.0406993
0.0250462
0.00799632
5241.35
5240.37
5239.87
5239.82
5240.2
5240.73
5242.16
5241.41
166.895
0.179126
0.0474802
0.0447165
0.0369529
0.024248
0.00830148
5242.8
5241.06
5239.82
5239.06
5238.74
5238.63
5239.35
5238.25
129.311
0.102993
0.0384927
0.0371593
0.0319403
0.022074
0.00804252
5245.02
5242.49
5240.49
5239.01
5238.02
5237.29
5237.39
5235.97
101.615
0.0655651
0.0311539
0.0302855
0.0267102
0.0191444
0.00733646
5248.05
5244.67
5241.87
5239.64
5237.96
5236.62
5236.14
5234.39
81.617
0.0460339
0.0255903
0.0245307
0.0219078
0.0160568
0.0063824
5251.95
5247.66
5243.98
5240.95
5238.54
5236.55
5235.51
5233.38
67.7142
0.0354648
0.0219558
0.0200011
0.0178764
0.0131971
0.00537003
5256.81
5251.5
5246.87
5242.95
5239.75
5237.06
5235.43
5232.86
58.806
0.0295393
0.0197386
0.0166928
0.0147424
0.0107745
0.00442838
5262.7
5256.29
5250.61
5245.71
5241.62
5238.14
5235.89
5232.77
54.167
0.0261852
0.0188411
0.0143989
0.0125169
0.00887464
0.00362867
5269.74
5262.11
5255.26
5249.27
5244.2
5239.82
5236.87
5233.08
53.3551
0.0246284
0.0187613
0.0129125
0.0110687
0.00749105
0.00299655
5278.03
5269.07
5260.93
5253.73
5247.54
5242.15
5238.41
5233.81
56.1623
0.0244562
0.0189981
0.0120889
0.0102722
0.0065454
0.00253985
5287.65
5277.26
5267.72
5259.17
5251.74
5245.18
5240.54
5234.98
62.6056
0.0256061
0.0191606
0.0117028
0.00996624
0.00596439
0.0022314
5298.72
5286.8
5275.73
5265.7
5256.88
5249.01
5243.34
5236.63
72.8708
0.0282315
0.0191778
0.0116996
0.00991706
0.00567325
0.00204599
5311.29
5297.77
5285.08
5273.44
5263.09
5253.72
5246.88
5238.82
87.3091
0.0328256
0.0193249
0.0121004
0.0099884
0.00556447
0.00195623
5325.44
5310.26
5295.86
5282.51
5270.47
5259.45
5251.27
5241.64
106.446
0.0400391
0.0201511
0.0128074
0.0101513
0.00558703
0.00192564
5341.19
5324.33
5308.17
5293
5279.16
5266.31
5256.63
5245.2
130.998
0.0516887
0.0219888
0.0141967
0.0104655
0.00573341
0.00193249
5358.54
5340.01
5322.08
5305.03
5289.28
5274.44
5263.08
5249.62
161.828
0.070545
0.0248745
0.0162555
0.0111986
0.00602871
0.00197501
5357.32
5389.69
5337.63
5318.68
5300.95
5283.99
5270.78
5255.06
199.956
0.101616
0.0288868
0.0190152
0.0124323
0.00657457
0.00206454
5354.85
5388.46
5440.46
5334.03
5314.27
5295.09
5279.86
5261.69
246.56
0.154407
0.0342262
0.022574
0.0142365
0.00740664
0.00223501
5351.1
5385.95
5439.43
5493.62
5329.35
5307.88
5290.49
5269.69
302.962
0.245775
0.0407752
0.0269588
0.0166499
0.00855682
0.00250511
5346.24
5382.1
5437.29
5493.15
5544.69
5322.49
5302.81
5279.26
370.618
0.404571
0.0482362
0.0321049
0.0196858
0.0100493
0.00288696
5339.03
5377.12
5433.93
5492.08
5545.18
5587.94
5316.98
5290.62
451.099
0.68053
0.0563961
0.0378847
0.023286
0.0118923
0.00338758
5333.14
5369.58
5429.61
5490.22
5545.94
5590.65
5618.71
5303.99
546.054
1.15848
0.0646973
0.0441018
0.0273292
0.0140538
0.00400278
5319.57
5363.24
5422.68
5487.86
5546.68
5594.2
5626.51
5645.34
657.146
1.97742
0.072401
0.0504913
0.0316721
0.0164689
0.00471998
785.66
5349.27
5416.58
5483.21
5547.72
5598.86
5633.02
5647.35
5569.66
3.3738
0.0791244
0.0567254
0.0361186
0.0190533
0.00551909
5.80892
1030.09
5404.02
5479.03
5547.19
5604.75
5642.97
5657.39
5618.42
5649.61
0.0843935
0.0623849
0.0404141
0.0216845
0.00637222
0.0885848
12.8015
1477.48
5470.43
5547.11
5610
5654.84
5676
5651.92
5664.9
5220.64
0.0667721
0.0442252
0.024201
0.00723674
0.0693327
0.0912768
38.2067
2017.34
5544.79
5616.07
5667.08
5694.79
5694.97
5684.75
5539.69
5532.21
0.0471149
0.0263946
0.00805738
0.048708
0.0684576
0.135967
96.6837
2620.53
5621.72
5680.66
5714.92
5724.52
5725.77
5619.44
5626.5
5610.38
5605.67
0.0280323
0.0087643
0.0289051
0.0483127
0.060311
0.433956
208.15
3243.8
5695.9
5736.58
5753.37
5756.62
5725.01
5692.6
5630.81
5600.17
5640.56
5685.14
0.00928689
0.0095607
0.0287465
0.0424729
0.0515745
1.66807
383.526
3838.44
5761.9
5782.66
5788.18
5774.53
5741.66
5674.01
5618.12
5534.61
5617.36
5693.48
5768.41
0.00952448
0.0251951
0.0343333
0.0239873
5.42133
615.763
4365.97
5815.85
5821.75
5809.93
5784.69
5720.87
5658.01
5540.79
5431.92
5557.63
5666.19
5765.54
5859.8
0.00832276
0.0196001
0.0135984
-0.0293848
13.7154
880.918
4806.66
5858.77
5847.38
5822.45
5763.11
5699.84
5574.92
5436.69
5251.28
5462.43
5609.97
5738.65
5851.05
5955.09
0.00626672
0.0069463
-0.024627
-0.0836506
26.7621
1149.65
5143.24
5887.8
5860.71
5803.94
5741.56
5621.4
5471.79
5247.15
5008.45
5293.13
5524.78
5689.49
5826.81
5945.89
6053.73
0.00194352
-0.0157213
-0.076844
-0.105486
41.6869
1404.06
5353.42
5901.51
5846.81
5784.31
5672.42
5520.15
5291.16
5010.13
3641.41
5081.96
3657.73
3699.01
3706.84
5367.1
5609.58
5786.22
5925.11
6046
6153.09
-0.00543901
-0.0455328
-0.125628
-0.108152
53.7177
1603.68
5458.33
5892.56
5829.33
5724.39
5576.88
5365.83
5069.48
4605.12
3598.15
3631.03
5198.81
3636.08
3522.84
3561.92
3591.99
3604.96
3565.21
5469.2
5716.21
5890.81
6029.92
6147.73
6248.57
-0.0146939
-0.0730448
-0.161745
-0.127464
57.1237
1681.61
5469.93
5875.82
5777.6
5641.38
5450.92
5148.59
4730.41
3657.39
3621.4
3694.11
3683.64
3645.08
3597.61
5342.81
5085.92
3640.71
3661.57
3691.27
3534.39
3625.29
3560.43
5615.37
5835.93
6002.11
6136.41
6245.49
6338.03
-0.0234256
-0.0928081
-0.181127
-0.163047
50.0345
1644.01
5440.09
5829.62
5707.02
5530.57
5249.88
4857.72
3798.85
3789.1
3869.82
3869.95
3571.83
3562.76
3671.01
3665.42
3593.46
3155.6
2962.71
3134.1
3008.32
5517.46
5195.99
3564.34
3554.55
3565.5
3553.36
3548.34
3581.79
3552.1
3136.45
2941.22
3116.46
2978.75
3147.54
3050.83
3223.67
3048.29
3133.81
3039.03
3212.93
3023.18
5771.15
5959.57
6117.24
6238.94
6336.65
6418.61
-0.0299791
-0.10434
-0.19609
-0.194379
39.6532
1504.66
5295.35
5765.11
5607.71
5360.97
5002.09
3971.87
3973.82
4104.1
4104.04
3712.33
3707.31
3759.33
3753.31
3034.94
3051.76
3209.42
3059.66
3195.61
3077.98
3049.89
3037.33
3203.78
3064.87
3195.49
3073.68
3176.21
3273.04
3125.74
3243.17
3188.17
3278.45
3134.32
3246.03
3055.97
2915.58
3084.59
2892.69
3215.05
3071.38
3242.47
3082.99
5713.4
5277.22
3533.24
3522.07
3549.5
3536.53
3526.94
3509.74
3428.5
3412.9
3043.82
2901.69
3071.64
2871.22
3047.07
2681.44
3016.33
2836.23
3038.77
2678.47
3012.62
2821.44
3205.26
3059.18
3231.47
3070.42
3131.06
3083.41
3123.15
3072.71
5910.77
6088.9
6228.32
6333.69
6418.71
6488.44
-0.0355655
-0.11169
-0.199597
-0.215894
26.6514
1223.82
5033.58
5675.2
5468.12
5145.79
4230.41
4229.54
4379.34
4379.94
3843.05
3837
3971.88
3965.68
3214.33
3294.41
3255.36
3320.18
3229.18
3301.8
3274.37
3330.74
3375.43
3420.68
3320.46
3371.72
3387.35
3425.09
3334.48
3379.23
3064.6
3086.46
3341.94
3233.83
3124.89
3337.89
3061.75
3088.39
3228.21
3339.22
3126.78
3333.02
3210.63
3358.8
3174.55
3350.4
3214.33
3358.95
3175.36
3349.35
3221.49
3048.91
3235.95
3021.42
3234.81
3102.11
3228.65
3108.53
5863.68
5656.58
3555.03
3547
3534.21
3522.55
3500.35
3476.83
3514.34
3494.88
2682.3
2937.83
2716.09
2960.98
2686.82
2940.39
2718.02
2960.18
2828.73
2825.69
3000.05
2744.65
2965.37
3221.35
2833.62
2811.75
3001.28
2747.35
2962.96
3210.05
3210.42
3039.57
3225.22
3012.52
3226.98
2970.9
3214.26
2956.98
3225.38
3080.98
3217.82
3091.22
3234.12
3093.21
3227.69
3084.43
6050.68
6212.98
6329.15
6418.8
6489.64
6545.87
-0.0414511
-0.115024
-0.199292
-0.226241
14.9064
834.607
4505.48
5529.73
5279.42
4530.43
4531.74
4690.74
4691.2
4097.11
4093.09
4234.72
4233.96
3443.59
3486.95
3505.02
3566.26
3448.51
3491.18
3516.17
3571.99
3677.59
3791.91
3587.64
3668.16
3676.56
3789.47
3594.6
3671.5
3248.11
3380.88
3294.78
3409.21
3255.31
3383.55
3305.31
3415.01
3397.15
3472.4
3347.04
3443.41
3409.07
3479.35
3356.99
3449.24
3183.49
3078.11
3212.09
3038.3
5991.07
5813.96
3626.12
3612.76
3595.45
3585.55
3550.53
3528.56
3527.8
3501.5
2478.11
2724.52
2522.8
2774.02
2504.15
2735.01
2541.41
2781.28
2633.54
2890
2568.57
2828.14
2640.12
2895.27
2585.25
2835.29
2770.35
3089.87
2793.94
3098.45
2775.79
3087.89
2796.43
3098.05
2910.97
2840.57
3067.37
3093.78
2818.25
3099.48
2902.49
2841.52
3068.57
3089.89
2819.43
3100.56
3174.07
3058.43
3201.29
3022.98
3143.84
2982.85
3138.18
2969.98
6187.38
6322.71
6418.92
6492.01
6547.84
6589.82
-0.0474185
-0.117368
-0.193031
-0.23004
5.91509
456.663
3633.19
5323.58
5037.92
4386.77
4386.23
4541.97
4543.3
3961.49
3956.71
4116.97
4110.2
3451.31
3528.1
3516.14
3578.18
3460.01
3534.01
3525.41
3582.8
3639.18
3651.79
3571.98
3610.38
3644.36
3651.49
3579.14
3612.79
3461.01
3559.75
3471.37
3563.94
6145.26
5913.43
3676.32
3666.42
3671.7
3652.41
3641.75
3622.25
3625.69
3605.86
2354.75
2817.87
2466.48
2772.71
2369.71
2821.89
2485.73
2780.44
2474.95
2704.45
2473.51
2721.92
2493.24
2713.27
2497.36
2729.99
2669.94
2928.36
2715.61
3009.24
2675
2928.94
2716.39
3010.26
2756
3089.14
2738.71
3072.31
2759.88
3085.64
2740.42
3068.12
6311.39
6418.72
6495.57
6551.79
6592.35
6619.51
-0.0533305
-0.118567
-0.187289
-0.242749
1.13011
193.225
2464.43
4868.65
4607.64
4606.84
4671.75
4671.72
4277.49
4270.87
4441.25
4441.14
3769.48
3687.74
3686.25
3759.71
3768.01
3688.22
3685.91
3755.94
3869.33
3923.35
3971.02
3844.17
3867.23
3920.43
3969.35
3837.48
3524.88
3600
3565.11
3617.15
3529.76
3602.92
3565.03
3618.4
3616.92
3615.73
3583.84
3620.7
3624.03
3616.74
3585.46
3621.65
6293.04
6103.5
5961.73
3534.74
3526.12
3613.39
3586.03
3498.88
3496
3436.54
3435.17
2476.63
2970.4
2657.01
3008.41
2477.94
2962.72
2662.26
3005.54
2671.49
2925.62
2686.33
2960.46
2674.88
2925.2
2693.12
2959.32
2642.57
2872.94
2655.65
2871.08
6417.55
6500.06
6557.73
6597.41
6622.38
6634.46
-0.0585802
-0.120803
-0.179962
-0.273596
-0.0896076
56.0775
1141.48
3170.76
4499.34
4495.08
4355.25
4353
4008.33
4070.41
4187.34
4085.03
4006.45
4069.25
4186.56
4083.59
4339.3
4334.69
3803.55
3701.71
3731.71
3774.7
3804.26
3702.56
3732
3774.28
3866.59
3929.35
3943.65
3845.82
3866.88
3932.14
3944.05
3847.57
3641.56
3685.4
3646.9
3685.7
6418
6289.67
6150.71
3623.36
3616.74
3684.89
3642.5
3668.92
3633.29
3632.97
3604.41
2698.13
2362.5
2691.66
2403.34
2705.52
2387.14
2697.09
2413.6
2733.97
2506.52
2793.37
2438.36
2738.93
2507.89
2792.21
2441.79
2634.62
2876.63
2681.25
2890.41
2637.15
2873.24
2676.54
2887.84
2661.8
2882.46
2684.76
2889.92
2667.91
2876.4
2689.49
2884.96
6505.45
6565.67
6605.08
6628.15
6637.48
-0.0639722
-0.122715
-0.173619
-0.266473
-0.292511
10.1737
213.301
2111.15
2110.06
966.699
965.557
4149.95
4355.64
3965.42
4446.46
4146.32
4354.26
3965.21
4445.76
3667.65
3668.52
4014.62
4026.4
4103.87
4084.77
4017.22
4026.64
4104.23
4085.34
4205.99
4268
4169.92
4167.93
4199.37
4265.55
4163.3
4165.99
3930.15
3941.59
3985.71
3874.38
3929.59
3945.18
3984.99
3877.46
6513.54
6430.11
6337.73
6166.25
3602.83
3559.8
3539.18
3496.39
3432.1
3400.97
2357.2
2712.7
2669.95
2210.38
2364.11
2710.9
2666.69
2200.8
2843.63
2505.27
2797.2
2529.97
2836.97
2487.94
2783.46
2521.32
2880.38
2601.28
2850.81
2578.46
2880.73
2594.22
2849.59
2567.77
2599.59
2816.3
2604.7
2816.18
6576.09
6615.53
6636.96
6643.57
-0.065977
-0.12873
-0.167316
-0.275372
-0.50848
0.252845
84.7682
84.7376
1.16608
1.16295
1187.76
1183.73
275.74
274.387
3967.82
4308.66
3750.2
4370.83
3964.6
4307.42
3748.99
4370.35
3709.87
2243.35
3188.28
2808.47
3709.68
2231.29
3188.37
2799.59
4016.64
4030.73
4072.06
4097.5
4016.15
4030.13
4071.08
4095.25
4137.52
4236.2
4138.76
4167.65
4133.54
4234.72
4134.8
4166.41
6588.42
6533.74
6487.67
6413.95
3692.61
3698.33
3610.14
3608.89
3399.42
3400.79
2218.08
2577.41
2036.96
2552.12
2220.59
2573.87
2057.39
2558.52
2239.9
2566.77
2332.84
2619.03
2277.42
2762.28
2264.72
2563.13
2346.46
2607.49
2266.86
2748.1
2494.34
2867.23
2473.92
2850.56
2675.79
2437.56
2679.15
2423.29
2677.84
2459.65
2677.77
2437.3
6629.38
6649.13
6652.87
-0.073652
-0.125826
-0.196851
-0.250028
-0.724132
-0.829343
25.898
25.8012
0.249034
0.254221
690.709
1939.15
925.938
315.553
485.437
2729.76
1927.81
681.544
2736.77
929.186
309.705
480.407
16.2853
33.0846
60.0824
108.101
15.8893
32.3638
59.3723
106.784
3759.58
4277.35
3548.13
4242.88
3757.6
4276.16
3547.05
4242.65
2981.82
2349.66
2995.22
2336.88
4101.16
4101.59
4100.13
4098.02
3962.61
4246.07
3959.77
4244.74
6647.96
6609.43
6586.24
6628.61
3780.08
3774.7
3710.42
3706.87
3434.82
3437.22
3334.76
3338.41
2553.56
1913.7
2481.82
2170.67
2650
2116.42
2543.81
1953.21
2486.39
2174.15
2641.53
2116.15
2354.63
2746.85
2340.19
2736.11
2389.31
2696.04
2436.45
2473.58
2737.86
2742.74
2383.88
2686.62
2427.21
2474.45
2739.61
2733.13
2482.54
2748.55
2483.87
2740.09
6665.36
6665.67
-0.0712531
-0.138758
-0.216178
-0.258757
-0.842377
-0.487263
-0.519137
0.0537503
0.0406963
13.4745
13.109
0.119488
0.127966
1309.49
252.647
340.463
838.74
70.6606
156.983
1295.01
246.548
854.747
350.664
68.2694
158.381
17.0019
16.6662
54.3527
77.1456
16.6084
16.5157
52.8541
76.3338
2999.17
3602.8
2991.74
3606.99
6686.73
6674.31
6647.38
6681.62
6667.86
3415.5
3436.37
3555.78
3532.26
1923.61
2495.98
2078.86
2522.43
1952.68
2496.71
2112.26
2535.52
2078.51
2002.26
2496.65
2108.82
2520.13
2618
2110.67
2013.52
2500.62
2141.41
2528.91
2619.16
2790.22
2657.64
2298.31
2383.74
2787.48
2646.21
2291.6
2366.46
2380.01
2663.67
2371.88
2652.91
2350.48
2620.77
2439.51
2708.64
2362.47
2616.63
2442.84
2710.08
6682.65
-0.0848029
-0.135323
-0.239248
-0.397492
-0.18311
-0.0852614
-0.173247
0.675481
0.460326
6.57551
16.2871
14.5694
6.301
6.20297
15.8519
14.5249
6.27623
1.04386
0.861574
17.771
20.9283
31.3107
39.3197
17.5308
21.3921
30.3469
40.0378
6704.94
6714.85
6710.24
6700.92
6774.19
3769.35
3724.63
3577.1
3594.44
3592.36
3603.26
3575.14
3539.41
2065.29
2609.3
2294.48
2801.86
2033
2557.15
2252.34
2751.02
2096.81
2192.55
2489.31
2555.57
2310.18
2701.21
2131.41
2190.46
2552.4
2505.69
2273.48
2678.72
2650.38
2340.21
2644.06
2333.57
-0.0730167
-0.133069
-0.248112
-0.522299
9.25991
7.06718
3.93079
5.83774
2.21474
1.94796
4.92327
2.63512
9.30526
17.555
27.6387
9.05286
8.42928
17.2155
27.2102
8.96114
3.99941
3.51922
7.90287
7.89375
3.26444
3.01879
6.81538
7.00362
17.819
29.4427
17.5265
29.2823
6734.18
6751.84
6759.03
6786.15
6725.36
3505.44
3502.21
3556.66
3519.7
3467.79
3381.32
2485.79
2136.56
2603.4
1922.52
2446.4
2071.53
2532.6
1884.12
2202.67
2489.98
2208.8
2531.81
2186.38
2462.27
2218.09
2556.55
-0.0732411
-0.111329
-0.229523
-0.0961062
14.1936
17.9127
2.88637
6.34708
7.05246
6.35217
3.77137
6.57068
5.87617
5.79243
5.09197
5.1283
5.03991
5.26194
6.44921
4.19724
28.1408
13.0116
19.0293
17.5466
27.9787
13.7781
16.6109
17.4558
27.2902
13.4211
11.1533
9.38706
8.39026
7.76274
6773.15
6801.89
6825.9
6989.27
3400.74
3433.62
3412.5
3477.83
3569.29
3562.06
3548.63
3459.68
1885.6
2571.75
2048.12
2574.81
1939.84
2635.65
1891.72
2566.42
2058.33
2566.55
1909.46
2586.68
2185.73
2793.25
2164.42
2732.56
2149.36
2499.54
2174.38
2516.43
-0.0410347
-0.100566
-0.123619
1.8012
1.80496
1.70422
1.71108
10.4344
19.2367
2.60796
3.62303
10.0316
13.77
51.4526
12.334
14.6771
14.3143
6.78593
10.1806
8.72448
7.73174
12.2416
5.04977
25.7535
42.4039
32.442
58.2436
26.3141
47.1439
25.0234
45.2838
6826.4
6867.23
6877.48
6742.21
3342.29
3370.15
3392.6
3381.74
3422.1
3367.37
2081.1
2811.48
2390.64
1914.76
2413.84
1785.38
2367.87
1903.09
2402.21
1739.09
2047.16
2789.79
2190.28
2040.17
2797.87
2441.49
2156.24
2077.09
2782.23
2456.71
2057.03
2495.88
2094.8
2503.28
-0.0291766
-0.0540688
-0.0325398
2.01897
1.98004
1.93435
1.96913
13.3732
31.7938
2.75373
3.16449
4.41259
2.84493
25.6405
47.8235
3.95031
11.3714
9.57938
5.77252
2.03862
2.11157
70.1002
29.6539
23.2276
8.39304
26.2712
44.4519
35.2587
49.35
6890.2
6926.91
6814.59
3437.29
3478.83
3481.08
3483.22
3499.96
3471.95
3353.33
3318.51
1679.61
2275.97
1929.03
2406.83
1992.61
2682.35
1676.55
1939.67
2647.16
2268.25
1897.65
2368.94
2064.42
2454.63
2155.69
2835.41
2111.51
2053.23
2794.98
2447.45
-0.0101418
0.0146795
0.16235
2.0624
2.10737
2.05278
2.06883
6.07279
9.51988
2.82785
3.04534
3.13457
3.05
20.4369
20.9431
3.05037
4.38575
3.47398
3.18778
2.89841
2.63334
3.14938
3.03728
2.96542
2.65157
3.10075
3.01208
11.2991
12.2946
32.6869
34.4094
6938.9
6972.13
6894.44
3391.96
3401.51
3362.54
3377.79
3227.38
3229.83
1721.75
2319.33
2113.12
1724.78
2075.92
1570.39
1707.86
2307.3
2114
1723.44
2078.84
1568
1978.46
2064.45
2645.08
2482.15
2032.06
2461.1
1931.46
2606.67
-0.00253991
0.104184
2.29526
2.29245
2.31163
2.29641
2.17799
2.16427
2.26745
3.08514
2.76363
2.28111
3.1337
2.78934
3.09073
3.20045
3.19774
3.00174
3.16212
3.146
6.09072
3.89382
3.15858
3.09646
3.0529
3.12385
3.22967
3.06522
3.24748
3.0701
7003.1
7186.41
7270.6
3651.59
3637.61
3531.1
3524.07
1460.14
2046.23
1713.89
2085.63
1570.87
2079.37
1508.86
1561.95
2072.05
2067.18
1709.38
2077.92
1923.04
2359.85
1782.78
2188.12
1917.47
2355.12
1774.62
2179.66
1917.79
2438.18
1891.23
2416.76
0.0396407
0.219723
2.36861
2.42729
2.38135
2.43433
2.23137
2.22498
3.28951
3.14519
2.96355
3.03697
2.83122
2.99359
3.12184
2.7764
3.16422
3.29762
2.9707
3.05685
2.83244
3.00111
3.14157
2.78974
3.21138
3.16365
3.16803
3.19698
3.21425
2.99167
3.2422
3.00012
7202.44
7421.1
3718.32
3554.65
3525.07
3735.66
3609.73
3621.03
2963.94
1574.09
2155.55
2990.05
1596.31
2166.29
1987.41
1931.08
2298.31
2402.72
1970.61
2281.69
1911.82
2390.36
1834.4
2216.87
1885.49
2288.76
1828.78
2213.35
1873.08
2272.12
0.0592512
0.27766
2.50452
2.95958
3.25268
2.47548
2.51401
2.96456
3.25898
2.48959
2.31419
2.31238
3.29397
3.43367
3.40222
3.08971
3.13328
3.16842
3.27501
3.40377
3.4297
3.08463
3.13009
3.17003
3.03965
3.23532
3.05623
3.24812
7458.8
7600.26
3769.34
3537.96
3543.35
3745.59
3667.25
3647.78
1641.27
1556.32
2122.36
1556.86
2122.22
2018.56
1459.44
2125.45
1681.92
1579.96
2123.91
1603.72
2138.29
2034.2
1511.28
2127.59
2063.42
1896.78
2376.21
2340.23
2041.9
2361.46
1895.25
2340.55
0.0903996
2.48775
2.42296
2.41582
2.46069
2.25589
2.22271
3.25951
3.06497
3.22183
3.10649
3.28728
2.92135
3.32811
3.06078
2.5373
3.34238
3.0729
3.25895
3.06984
3.22655
3.1078
3.29217
2.92355
3.32959
3.06443
2.53947
3.3482
3.0787
3.46061
3.50424
3.22284
3.23157
3.43769
3.50992
3.2194
3.23709
7720.24
7874.81
3866.97
3318.52
2091.53
1494.47
3322.46
2109.39
1519.18
3836.72
3566.26
3596.23
1696.58
1759
1806.6
2010.98
2354
2237.51
1726.48
1766.42
1810.75
2348.54
2042.25
2250.08
1982.62
2309.01
1975.44
2301.89
0.20247
2.42779
2.60743
2.4427
2.59136
2.27688
2.26941
3.43398
3.41642
3.2774
3.1923
3.44877
3.20571
3.43878
3.27434
3.14763
3.32114
3.13414
3.10359
3.18471
2.82632
3.43525
3.40359
3.19323
3.27422
3.45798
3.21267
3.28638
3.43472
3.15909
3.32617
3.1412
3.10514
3.21445
2.84972
8002.74
3695.86
3810.77
3771.74
3771.29
3737.68
3763.09
1536.27
2052.15
1584.94
2219.71
1532.2
2304.68
1690.64
2239.04
1593.76
2002.87
1578.81
2222.35
1490.39
2298.26
1725.4
2252.63
3269.81
1603.24
2263.37
3255.58
1647.75
2277.39
1779.41
1773.92
2118
2395.07
1779.94
1752.58
2129.39
2383
0.221682
2.42965
3.02764
3.33507
2.6056
2.46168
3.04791
3.36234
2.58964
2.33102
2.32199
3.53656
3.30525
3.35684
3.16973
3.41624
3.63496
3.36568
3.1758
3.25629
3.2911
3.53564
3.30671
3.38035
3.18176
3.4407
3.37285
3.63114
3.18872
3.26892
3.29867
7887.87
3695.48
3715.07
3699.9
3784.36
3708.32
3722.66
1730.76
1745.97
2266.29
2119.68
1836.33
2309.49
1715.51
1755.99
2265.69
2130.18
1838.61
2301.38
1582.78
1688.95
2278.41
1612.3
2198.51
2079.22
1499.08
2164.55
1590.23
1709.78
2292.8
1652.6
2208.93
2084.48
1517.05
2159.43
0.188006
2.38017
2.36911
2.4996
3.08356
3.40319
3.11589
3.35989
2.64921
2.51599
3.10182
3.40582
3.12982
3.37039
2.6288
3.44538
3.57205
3.63411
3.24973
3.33956
3.34176
3.45834
3.60805
3.66468
3.26061
3.35453
3.35749
8020.18
3719.4
3699.56
2092.12
1551.37
3638.74
2083.33
1543.4
3760.36
3773.03
3762.62
1700.63
2051.49
1711.81
2219.9
1734.32
2054.81
1722.1
2207.46
1831.61
1890.46
1788.3
2118.1
2207.04
2336.1
1888.45
1860.2
1769.81
2220.42
2128.17
2320.42
0.139404
2.39691
2.44096
2.38549
2.42877
2.60446
3.17695
3.46158
3.15252
3.49496
3.67958
3.37211
2.58517
2.60455
3.18882
3.44944
3.16445
3.48871
3.71571
3.38849
2.5647
3.58162
3.3888
3.59676
3.39566
8028.41
3716.12
3711.42
3777.82
1987.24
1529.88
1901.88
1572.03
3747.37
1989.58
1529.87
1905.58
1566.05
3735.39
3702.46
1947.61
1769.77
1876.01
2254.96
2029.69
2215.99
1984.63
1802.66
1866.31
2044
2249.97
2213.38
0.12057
2.44879
2.47141
2.43572
2.45122
2.59673
2.57549
2.59052
3.20998
3.55896
3.22249
3.53546
3.37398
3.70814
3.38546
3.69132
3.64881
3.43424
2.59347
3.23243
3.59716
3.2462
3.5845
3.40425
3.74554
3.40655
3.75856
3.67282
3.44668
8027.38
3719.38
3715.06
3715.37
3720.55
3653.62
1807.19
1528.41
1870.27
1480.09
1821.48
2172.13
3601.41
1801.32
1533.34
1869.68
1504.58
1841.14
2196.29
3808.74
3778.24
1916.37
2224.71
1969.59
2239.73
0.138899
2.4579
2.40751
2.43718
2.38763
2.57277
2.55939
2.54978
2.54754
2.61511
2.63237
3.19619
3.41786
3.17628
3.44145
3.3148
3.63269
3.34927
3.65948
3.38396
3.66964
3.41964
3.62529
3.19332
3.44208
3.1918
3.43038
3.33806
3.70498
3.36926
3.71748
3.41661
3.70533
3.44023
3.68742
8020.32
3714.94
3718.93
3718.35
3713.03
3829.36
3801.03
3558.75
1863.38
1421.22
1878.6
1453.07
1885.72
1739.71
2017.15
1676.08
1911.42
2242.53
3513.82
1828.49
1446.91
1879.1
1468.66
1892.12
1736.76
2008.46
1709.97
1919.55
2225.57
0.0796033
2.33194
2.27013
2.3183
2.24795
2.55942
2.53215
2.54411
2.5169
2.61205
2.63805
2.63374
2.65037
3.18888
3.43032
3.1733
3.43992
3.17959
3.39255
3.16259
3.41377
3.33754
3.48721
3.25004
3.59505
3.32554
3.48476
3.25045
3.57679
7892.49
3720.26
3715.26
3710.06
3759.48
3826.84
3808.34
3800.74
3779.27
3557.21
3498.97
2230.4
1537.7
2116.82
1650.1
2110.96
1701.6
2158.54
1743.12
2071.56
1839.76
2141.9
1762.52
2218.85
1534.98
2114.53
1628.14
1897.19
1546.8
1926.39
1632.77
2051.9
1838.65
2116.69
1789.37
0.282025
0.0382833
2.53424
2.44741
2.52079
2.43732
2.63252
2.58788
2.63931
2.59789
3.18007
3.48814
3.19489
3.4588
3.17719
3.42001
3.19323
3.42044
3.16667
3.38905
3.16283
3.40118
3.17678
3.39952
3.1891
3.40574
3.33613
3.70102
3.35422
3.60893
3.32645
3.58247
3.31611
3.58682
8016.11
3687.3
3710.13
3783.43
3768.01
3734.22
3773.05
3709.65
3762.73
3561.28
3567.91
3504.48
3524.47
2293
1720.51
2327.88
1692.17
2275.97
1683.55
2305.88
1661.81
2417.71
1751.12
2206.65
1886.7
2394.65
1699.62
2151.32
1841.71
0.227686
2.48162
2.35434
2.485
2.3633
0.0405435
2.51052
2.46536
2.53107
2.4814
3.19152
3.41041
3.19248
3.40632
3.16412
3.30614
3.13104
3.35216
3.19387
3.39446
3.19014
3.39545
3.16698
3.30631
3.13612
3.34376
3.35121
3.74127
3.37143
3.70737
3.30284
3.59357
3.32657
3.58338
3.30749
3.57087
3.30393
3.58838
3.30444
3.56929
3.31536
3.58111
7729.24
7888.67
3698.24
3734.52
3731.09
3759.72
3662.86
3785.02
3618.73
3754.94
2289.79
1722.56
2328.45
1688.01
2227.5
1533.95
2116.58
1650.16
2275.27
1686.56
2307.17
1661.25
2217.68
1542.67
2120.88
1631.84
2433.19
1914.24
2476.3
1890.44
2413.73
1887.33
2457.84
1855.18
0.121289
2.28585
2.20953
2.28304
2.19837
2.53883
2.49021
2.54475
2.50126
-0.0083625
3.10744
3.28293
3.10197
3.31281
3.06788
3.30205
2.94077
3.38385
3.115
3.29785
3.11114
3.32579
3.07614
3.31925
2.9541
3.39234
3.34372
3.5794
3.33361
3.56016
3.34799
3.5423
3.35221
3.54464
3.32779
3.54493
3.31697
3.52035
3.33241
3.51481
3.34207
3.50883
7471.69
7609.75
3818.29
3869.21
3778.45
3842.44
3705.29
3719.29
3636.51
3712.4
1873.31
1413.64
1875
1460.28
1814.4
1537.01
1874.28
1488.95
1842.93
1454.8
1875.39
1489.72
1810.23
1533.7
1872.25
1514.57
2435.38
1915.78
2477.81
1891.1
2425.31
1750.63
2216.83
1890.25
2412.75
1889.82
2460.02
1853.18
2402.67
1709.08
2168.54
1845.91
0.198288
-0.00350511
2.4744
2.32223
2.48652
2.32545
3.52004
3.5637
3.27424
3.44971
3.19483
3.23304
3.24759
2.90834
3.42093
3.11807
3.48356
3.52446
3.25821
3.4369
3.19048
3.215
3.24887
2.91198
3.4187
3.11678
-0.027009
3.39713
3.59184
3.37481
3.6463
3.37765
3.69346
3.38677
3.55483
3.36308
3.6141
3.35443
3.6389
3.45533
3.70131
3.4927
3.69462
3.4405
3.67172
3.48262
3.66915
7218.98
7437.32
3771.54
3725.53
3750.28
3743.25
3261.17
3558.93
3261.85
3591.74
1989.96
1531.57
1903.96
1575.75
2088.61
1489.94
2159.77
1542.33
1983.15
1528
1906.04
1563.06
2087.33
1522.88
2163.38
1549.11
2132.86
1698.74
2160.13
1748.44
1897.41
1756.77
2020.25
1691.85
1920.43
1567.32
1920.79
1669.05
1904.56
1727.85
2007.51
1704.8
-0.0284219
2.34006
2.10421
2.35244
2.1161
-0.0661502
2.47955
2.41166
2.48849
2.42205
3.70947
3.72951
3.45482
3.39304
3.61299
3.33224
3.38811
3.09683
3.58265
3.28465
3.65824
3.72828
3.44278
3.39035
3.63364
3.33968
3.3987
3.10259
3.5959
3.29313
-0.0623064
3.49474
3.71486
3.50259
3.70462
3.50992
3.76137
3.50549
3.69373
3.49922
3.72562
3.50655
3.73151
7018.27
7202.59
7288.73
3667.78
3625.1
3649.74
3631.15
1668.14
1580.32
2275.75
1618.67
2202.18
2073.23
1558.53
2331.57
1613.55
2274.99
1587.15
1749.29
2306.45
1673.88
2221.01
2083.36
1627.38
2338.41
1668.45
2295
2224.61
1834.5
2185.89
1881.64
2337.35
1890.26
2223.77
1838.53
2205.4
1876.01
2326.01
1861.89
2079.47
1857.32
2144.56
1777.35
2057.1
1820.76
2105.99
1785.55
-0.197801
1.95439
1.77122
1.9727
1.77372
2.33622
2.12056
2.34331
2.13993
-0.157683
3.09327
3.27316
3.1453
3.3238
2.99625
3.13342
2.79296
3.29316
3.09262
3.28549
3.14386
3.32574
2.99723
3.13242
2.7934
3.29804
3.72956
3.46117
3.49091
3.30963
3.6849
3.37028
3.70452
3.45694
3.48837
3.31105
3.69231
3.37474
-0.0505758
6956.38
6987.19
6903.63
3560.51
3666.98
3528.88
3652.3
3333.5
3566.46
3332.3
3572.26
1815.81
1804.26
2219.54
2113.98
1720.26
2230.63
1705.76
2259.52
1855.35
2324.82
1910.21
1792.11
2131.24
2235.07
1712.8
2213.45
1740.33
2274.19
1852.63
2317.09
2240.62
1926.55
2251.51
1929.86
2258.44
1952.82
2251.41
1909.28
2225.38
1970.45
2251.19
1973.17
-0.320244
-0.275786
1.99492
1.82801
2.02117
1.84751
3.21391
3.3178
3.03151
3.08999
2.89177
3.02003
2.94929
2.55834
3.07426
2.77104
3.20691
3.33673
3.0288
3.09004
2.88815
3.02265
2.97861
2.5702
3.07192
2.76988
-0.0950731
3.26352
3.49576
3.2497
3.53783
3.21059
3.49082
3.26915
3.51496
3.25543
3.55105
3.21108
3.49091
-0.0685272
6907.13
6946.76
6823.38
3402.09
3445.29
3407.29
3485.52
2970.17
3543.24
2996.41
3532.64
2055.81
1594.33
2230.26
1538.98
2094.31
1469.18
2138.71
1498.3
2004.54
1590.72
2235.81
1496.91
2114.45
1521.2
2138.61
1528.87
1763.79
2033.19
1765.52
2137.99
1718.71
2067.6
1838.75
2053.38
1772.12
2150.19
1748.52
2072.72
0.675765
1.75599
3.89786
1.8063
4.22943
-0.359202
1.99203
1.85052
2.00818
1.86646
3.38092
3.47276
3.19195
3.1864
3.33772
3.10103
3.16194
2.80167
3.3219
3.02395
3.33134
3.48118
3.17644
3.18377
3.33116
3.0963
3.13537
2.79224
3.28809
3.00888
-0.14116
3.27917
3.54524
3.26594
3.5084
-0.079203
6841.25
6884.69
6903.19
6753.18
3375.89
3489.49
3387.02
3488.81
1564.88
1652.22
2134.61
1564.81
2135.87
2026.25
1474.12
2059.91
1592.84
2172.96
1686.65
1580.21
2128.92
1604.78
2149.11
2039.52
1518.21
2078.88
1601.27
2176.61
2398.69
1736.37
2273.96
1781.23
2244.31
1762.62
2384.59
1726.1
2274.58
1760.81
2258.11
1777.6
2.9059
-0.26833
8.79817
19.7323
9.75182
19.815
-0.28771
2.5079
3.15128
2.76779
2.99164
2.31843
2.51727
3.15223
2.76544
3.00704
2.48475
3.34632
3.15869
3.16676
2.98124
3.26645
3.10974
3.32479
3.14988
3.13535
2.96943
3.25276
3.09925
-0.152813
-0.0886771
6786.6
6816.71
6841.7
7025.91
3353.36
3413.98
3375.99
3443.65
3246.38
3510.85
3242.47
3478.19
1703.6
1823.67
2360.76
2011.49
1917.55
2362.48
1725.53
2095.26
1952.89
2430.34
1728.12
1815.56
2050.15
2350.54
1905.52
2354.78
1714.92