/*--------------------------------*- C++ -*----------------------------------*\
| =========                 |                                                 |
| \\      /  F ield         | OpenFOAM: The Open Source CFD Toolbox           |
|  \\    /   O peration     | Version:  5.x                                   |
|   \\  /    A nd           | Web:      www.OpenFOAM.org                      |
|    \\/     M anipulation  |                                                 |
\*---------------------------------------------------------------------------*/
FoamFile
{
    version     2.0;
    format      ascii;
    class       surfaceScalarField;
    location    "0.6";
    object      phi;
}
// * * * * * * * * * * * * * * * * * * * * * * * * * * * * * * * * * * * * * //

dimensions      [0 3 -1 0 0 0 0];

internalField   nonuniform List<scalar> 
30582
(
0.000295981
1.96246e-06
0.000288149
7.83176e-06
0.000294937
5.00424e-06
0.000272889
1.52603e-05
0.000287272
1.54958e-05
0.000293905
9.15413e-06
0.000254689
1.81996e-05
0.000273015
2.95177e-05
0.000287802
2.15993e-05
0.000288988
1.83312e-05
0.000230641
2.40482e-05
0.000255189
3.6026e-05
0.000275493
4.18263e-05
0.000283382
2.72055e-05
0.000285373
3.12657e-05
0.000203434
2.72074e-05
0.000231324
4.79128e-05
0.00025735
5.41692e-05
0.000274713
5.04947e-05
0.000284043
2.85351e-05
0.000271612
5.81498e-05
0.000174408
2.90258e-05
0.00020385
5.46814e-05
0.000233117
7.21453e-05
0.000258137
7.07462e-05
0.000279711
5.48274e-05
0.000273802
2.63445e-05
0.000264458
9.24081e-05
0.000146184
2.82235e-05
0.000174433
5.84427e-05
0.000204768
8.30306e-05
0.000234558
9.57235e-05
0.000263739
8.6718e-05
0.000277477
5.11526e-05
0.000276825
1.39775e-05
0.000234155
0.000157222
0.000120204
2.59808e-05
0.000145876
5.67809e-05
0.000174467
8.87437e-05
0.000205455
0.000112134
0.000239466
0.000119996
0.00026515
9.90453e-05
0.000286142
4.1836e-05
0.000253404
-5.27198e-06
0.000188039
-5.24569e-05
9.73483e-05
2.28553e-05
0.000119679
5.21777e-05
0.000145179
8.60683e-05
0.000174102
0.000120097
0.000208056
0.000143544
0.000241781
0.000143365
0.000274819
0.000110368
0.000281058
1.41821e-05
0.000272678
-8.99113e-05
-0.000154754
0.000101441
7.79147e-05
1.94336e-05
9.67209e-05
4.58134e-05
0.000118539
7.88177e-05
0.000143893
0.000116277
0.000174553
0.0001536
0.000208723
0.000176603
0.00024925
0.000168934
0.000281437
0.00010999
0.000338574
-5.1714e-05
0.000254173
-0.000498838
4.3535e-05
5.79036e-05
6.17881e-05
1.61266e-05
7.72654e-05
3.88891e-05
9.53888e-05
6.89639e-05
0.000116691
0.00010602
0.000142698
0.000148132
0.000173075
0.000189248
0.000212363
0.000213489
0.000256845
0.000193525
0.000364209
8.4355e-05
0.000484972
-0.000282513
0.000154265
-0.000609568
0.000130879
-7.2975e-05
4.8646e-05
1.31421e-05
6.11693e-05
3.22228e-05
7.59091e-05
5.83688e-05
9.33086e-05
9.23464e-05
0.00011454
0.000134177
0.00013964
0.000181567
0.000172994
0.000228617
0.000215847
0.000254488
0.000352807
0.000204927
0.000614023
-4.46956e-05
0.000297036
-0.000425284
2.62525e-05
-0.000504942
2.96379e-05
-0.000102613
3.80784e-05
1.05676e-05
4.80865e-05
2.62249e-05
5.98912e-05
4.82406e-05
7.38264e-05
7.78511e-05
9.07402e-05
0.000116147
0.000110634
0.000163183
0.000137282
0.000217279
0.000172031
0.000272432
0.000319711
0.000287584
0.000648477
0.000170472
0.000493917
-0.000241576
-3.44115e-05
-0.00036462
-2.3349e-05
-0.000451955
4.23462e-05
-0.000144959
2.96597e-05
8.41869e-06
3.75906e-05
2.10635e-05
4.69407e-05
3.91755e-05
5.79471e-05
6.41198e-05
7.11947e-05
9.73966e-05
8.65928e-05
0.000140188
0.000107151
0.000193315
0.000133271
0.00025604
0.00028445
0.000307692
0.000635257
0.000300805
0.000534893
0.000129496
-4.17352e-05
-0.000234252
-5.96814e-05
-0.000328288
-1.30548e-06
-0.000408303
3.01299e-06
2.29906e-05
6.66913e-06
2.92455e-05
1.67638e-05
3.65978e-05
3.14064e-05
4.52073e-05
5.19153e-05
5.54634e-05
7.98511e-05
6.71898e-05
0.0001168
8.28034e-05
0.000164535
0.000101345
0.00022524
0.000252892
0.000287598
0.000582104
0.000360845
0.000441434
0.000394263
-2.82456e-05
0.000116007
-9.50939e-05
-0.00019884
-3.73174e-05
-0.000292276
-5.02232e-06
1.77196e-05
5.27096e-06
2.26461e-05
1.32686e-05
2.84066e-05
2.49549e-05
3.51015e-05
4.15121e-05
4.29796e-05
6.43991e-05
5.18171e-05
9.52238e-05
6.35436e-05
0.000136059
7.62442e-05
0.000189637
0.000229266
0.000248865
0.000518537
0.000351166
0.000303881
0.000498398
-3.99823e-06
0.000370016
-8.61656e-05
0.000107078
-6.3418e-05
-0.000172739
-1.18708e-05
1.35481e-05
4.17156e-06
1.74386e-05
1.04784e-05
2.19517e-05
1.97235e-05
2.71461e-05
3.29103e-05
3.3172e-05
5.13197e-05
3.97883e-05
7.64279e-05
4.85315e-05
0.000110236
5.69348e-05
0.000155369
0.000210446
0.000208457
0.000439884
0.000327518
0.000193225
0.000461822
2.30851e-05
0.000471314
-4.56844e-05
0.000329535
-5.6769e-05
0.000100429
-2.00901e-05
1.02257e-05
3.32232e-06
1.33234e-05
8.28673e-06
1.68745e-05
1.55556e-05
2.09106e-05
2.5959e-05
2.55174e-05
4.0565e-05
3.04573e-05
6.06507e-05
3.6943e-05
8.80164e-05
4.23181e-05
0.000124853
0.000195694
0.000170121
0.000352537
0.000295804
0.000126971
0.000393773
3.85945e-05
0.000446313
-5.15198e-06
0.000430782
-2.97085e-05
0.000302474
-1.78879e-05
7.54718e-06
2.67855e-06
1.00504e-05
6.5953e-06
1.28736e-05
1.22876e-05
1.60299e-05
2.04363e-05
1.95638e-05
3.19126e-05
2.32578e-05
4.77646e-05
2.80578e-05
6.95358e-05
3.13728e-05
9.89618e-05
0.00018394
0.000136606
0.000266524
0.000256133
8.9004e-05
0.000333771
4.08858e-05
0.000391482
1.74395e-05
0.000423721
-3.31859e-06
0.000404392
-8.87726e-06
5.34173e-06
2.20545e-06
7.41439e-06
5.31458e-06
9.69951e-06
9.76942e-06
1.22006e-05
1.61169e-05
1.49364e-05
2.50637e-05
1.77162e-05
3.74541e-05
2.12727e-05
5.45497e-05
2.3236e-05
7.76726e-05
0.000174461
0.000108441
0.000191633
0.000211498
6.65992e-05
0.000278538
4.00765e-05
0.00033458
2.54434e-05
0.000383478
1.10446e-05
0.000409358
-2.92605e-07
3.46903e-06
1.87271e-06
5.24604e-06
4.37381e-06
7.14874e-06
7.86535e-06
9.17487e-06
1.27951e-05
1.13289e-05
1.97244e-05
1.34496e-05
2.93303e-05
1.60992e-05
4.26277e-05
1.72093e-05
6.05764e-05
0.00016657
8.55636e-05
0.000132547
0.000167527
5.22932e-05
0.000225804
3.85406e-05
0.000280074
2.76291e-05
0.000332395
1.63257e-05
0.000378197
4.42577e-06
1.81127e-06
1.65775e-06
3.40671e-06
3.71204e-06
5.05514e-06
6.46741e-06
6.75242e-06
1.02878e-05
8.49527e-06
1.56288e-05
1.01522e-05
2.30218e-05
1.21509e-05
3.32785e-05
1.27488e-05
4.70882e-05
0.000159648
6.74986e-05
8.93599e-05
0.000128751
4.23154e-05
0.000177505
3.5898e-05
0.000228446
2.73988e-05
0.000280305
1.76537e-05
0.000331067
6.12132e-06
2.69239e-07
1.54203e-06
1.7803e-06
3.28416e-06
3.28313e-06
5.48404e-06
4.77127e-06
8.44856e-06
6.23913e-06
1.25439e-05
7.58313e-06
1.81979e-05
9.12506e-06
2.60477e-05
9.44056e-06
3.65868e-05
0.000153067
5.3669e-05
6.01126e-05
9.67459e-05
3.45501e-05
0.000136516
3.18686e-05
0.000181534
2.56727e-05
0.000230173
1.72621e-05
0.000280696
6.44009e-06
-1.24505e-06
1.51429e-06
2.68738e-07
3.05359e-06
1.71933e-06
4.84797e-06
3.09991e-06
7.1554e-06
4.40374e-06
1.02839e-05
5.55334e-06
1.45737e-05
6.78695e-06
2.0536e-05
6.97377e-06
2.85144e-05
0.000146208
4.34453e-05
4.08862e-05
7.28955e-05
2.72683e-05
0.000104028
2.68324e-05
0.000141552
2.27532e-05
0.000184454
1.59588e-05
0.000231476
6.15434e-06
-2.81114e-06
1.56609e-06
-1.21517e-06
2.9982e-06
2.67948e-07
4.50498e-06
1.62917e-06
6.31871e-06
2.8628e-06
8.69634e-06
3.91409e-06
1.19232e-05
4.95468e-06
1.6406e-05
5.11686e-06
2.23929e-05
0.000138243
3.64794e-05
2.80583e-05
5.62732e-05
2.04613e-05
7.97026e-05
2.14853e-05
0.000109375
1.91229e-05
0.000145183
1.40281e-05
0.000186385
5.58548e-06
-4.5051e-06
1.69396e-06
-2.75023e-06
3.10114e-06
-1.15618e-06
4.42233e-06
2.66763e-07
5.86738e-06
1.51256e-06
7.66896e-06
2.54682e-06
1.00636e-05
3.48697e-06
1.33909e-05
3.69876e-06
1.78241e-05
0.000128192
3.2444e-05
1.92647e-05
4.52731e-05
1.44806e-05
6.22541e-05
1.63937e-05
8.47943e-05
1.53066e-05
0.000113191
1.1751e-05
0.00014746
4.84673e-06
-6.40165e-06
1.89655e-06
-4.41176e-06
3.35548e-06
-2.63e-06
4.57497e-06
-1.06896e-06
5.75805e-06
2.65389e-07
7.11455e-06
1.3556e-06
8.86018e-06
2.27189e-06
1.12787e-05
2.59048e-06
1.44992e-05
0.000114842
3.11749e-05
1.29931e-05
3.87156e-05
9.30589e-06
5.04478e-05
1.18404e-05
6.68075e-05
1.16858e-05
8.84151e-05
9.40519e-06
0.000115537
4.02806e-06
-8.57574e-06
2.17409e-06
-6.27343e-06
3.75822e-06
-4.22673e-06
4.95221e-06
-2.4519e-06
5.95791e-06
-9.55619e-07
6.97905e-06
2.59583e-07
8.21057e-06
1.22065e-06
9.91143e-06
1.69222e-06
1.21769e-05
9.6832e-05
3.25087e-05
8.27122e-06
3.58969e-05
4.93299e-06
4.30886e-05
7.9253e-06
5.4363e-05
8.43911e-06
7.00542e-05
7.19847e-06
9.06218e-05
3.20942e-06
-1.11032e-05
2.5275e-06
-8.40897e-06
4.30962e-06
-6.01792e-06
5.54941e-06
-3.95204e-06
6.45234e-06
-2.22045e-06
7.22275e-06
-8.11356e-07
8.04999e-06
2.5898e-07
9.17224e-06
9.30791e-07
1.06729e-05
7.33085e-05
3.57005e-05
5.04331e-06
3.57367e-05
1.45574e-06
3.93742e-05
4.68864e-06
4.63253e-05
5.64442e-06
5.71577e-05
5.22381e-06
7.20289e-05
2.44609e-06
-1.40617e-05
2.95842e-06
-1.08932e-05
5.01176e-06
-8.07518e-06
6.36688e-06
-5.63789e-06
7.23526e-06
-3.59488e-06
7.82676e-06
-1.92131e-06
8.3327e-06
-6.78193e-07
8.98717e-06
2.44214e-07
9.85882e-06
4.4581e-05
3.94003e-05
2.83339e-06
3.79105e-05
-1.11059e-06
3.83031e-05
2.16501e-06
4.18979e-05
3.30085e-06
4.86689e-05
3.52379e-06
5.88577e-05
1.76832e-06
-1.75303e-05
3.46864e-06
-1.38032e-05
5.86845e-06
-1.04719e-05
7.40846e-06
-7.57845e-06
8.30744e-06
-5.14353e-06
8.7839e-06
-3.13008e-06
9.03554e-06
-1.65017e-06
9.30467e-06
-4.20146e-07
9.65153e-06
1.23854e-05
4.20544e-05
1.31944e-06
4.09143e-05
-2.34412e-06
3.91442e-05
3.88277e-07
4.00799e-05
1.4635e-06
4.37353e-05
2.10276e-06
5.00899e-05
1.19311e-06
-2.159e-05
4.05971e-06
-1.72184e-05
6.88387e-06
-1.32844e-05
8.68103e-06
-9.84513e-06
9.67516e-06
-6.93203e-06
1.00959e-05
-4.49696e-06
1.01508e-05
-2.71199e-06
1.00974e-05
-1.11002e-06
9.99454e-06
-2.02737e-05
4.23107e-05
2.06971e-07
4.3167e-05
-2.16781e-06
4.07382e-05
-5.92455e-07
4.0125e-05
1.62046e-07
4.13814e-05
9.87037e-07
4.48511e-05
7.18146e-07
-2.63241e-05
4.73416e-06
-2.12204e-05
8.06177e-06
-1.65925e-05
1.01919e-05
-1.25132e-05
1.13491e-05
-9.0294e-06
1.17725e-05
-6.08281e-06
1.16818e-05
-3.91775e-06
1.13565e-05
-1.87044e-06
1.08578e-05
-5.03166e-05
4.00374e-05
-8.64435e-07
4.33822e-05
-9.28408e-07
4.19277e-05
-8.04778e-07
4.09506e-05
-5.51785e-07
4.08389e-05
2.01995e-07
4.21665e-05
3.51808e-07
-3.18152e-05
5.49111e-06
-2.58936e-05
9.40739e-06
-2.04782e-05
1.19476e-05
-1.56617e-05
1.33405e-05
-1.15092e-05
1.3829e-05
-7.95291e-06
1.36426e-05
-5.32407e-06
1.30881e-05
-2.74522e-06
1.22313e-05
-7.56263e-05
3.61675e-05
-2.20704e-06
4.13802e-05
5.90033e-07
4.1864e-05
-5.05412e-07
4.16285e-05
-6.71394e-07
4.10703e-05
-2.28956e-07
4.12699e-05
9.00263e-08
-3.81452e-05
6.33008e-06
-3.13215e-05
1.09191e-05
-2.5027e-05
1.39563e-05
-1.93734e-05
1.56593e-05
-1.44499e-05
1.62812e-05
-1.01779e-05
1.6054e-05
-6.99289e-06
1.53115e-05
-3.7814e-06
1.41243e-05
-9.55854e-05
3.21904e-05
-4.07807e-06
3.80387e-05
1.49302e-06
4.04774e-05
-1.02319e-07
4.1461e-05
-3.77935e-07
4.13351e-05
-3.33999e-07
4.11754e-05
-5.78701e-08
-4.53879e-05
7.24272e-06
-3.75874e-05
1.2596e-05
-3.0324e-05
1.62161e-05
-2.37347e-05
1.83176e-05
-1.79345e-05
1.91439e-05
-1.28341e-05
1.89374e-05
-8.99165e-06
1.80528e-05
-5.03648e-06
1.65666e-05
-0.000110625
2.91641e-05
-6.60006e-06
3.47125e-05
1.20656e-06
3.83253e-05
-1.77281e-08
4.03929e-05
5.2039e-09
4.1078e-05
-2.19604e-07
4.12208e-05
-1.00625e-07
-5.36086e-05
8.22075e-06
-4.47665e-05
1.44219e-05
-3.64549e-05
1.87269e-05
-2.88334e-05
2.13148e-05
-2.20509e-05
2.24341e-05
-1.60035e-05
2.23133e-05
-1.1394e-05
2.13397e-05
-6.57331e-06
1.95896e-05
-0.000121836
2.77771e-05
-1.00204e-05
3.25846e-05
-3.90819e-07
3.631e-05
-5.19302e-07
3.8827e-05
1.56324e-07
4.02419e-05
-5.90035e-08
4.09175e-05
-7.02952e-08
-6.286e-05
9.25134e-06
-5.29268e-05
1.6381e-05
-4.34987e-05
2.14656e-05
-3.47588e-05
2.46524e-05
-2.68903e-05
2.61542e-05
-1.97753e-05
2.62059e-05
-1.42804e-05
2.51998e-05
-8.46297e-06
2.32294e-05
-0.000130415
2.81684e-05
-1.45134e-05
3.22702e-05
-3.03219e-06
3.52261e-05
-1.73111e-06
3.7522e-05
-1.78931e-07
3.91623e-05
-3.2184e-08
4.02151e-05
-2.47196e-08
1.03149e-05
-7.31749e-05
-6.21236e-05
1.84481e-05
-5.15281e-05
2.44105e-05
-4.1596e-05
2.83028e-05
-3.25476e-05
3.03097e-05
-2.42435e-05
3.06224e-05
-1.77395e-05
2.9665e-05
-1.07874e-05
2.75243e-05
-0.000137243
3.00577e-05
-2.00408e-05
3.36959e-05
-6.39878e-06
3.5637e-05
-3.61123e-06
3.71063e-05
-1.05172e-06
3.83948e-05
-2.57739e-07
3.9388e-05
-2.3062e-08
2.05853e-05
-7.23939e-05
2.83372e-05
-0.000101512
-6.0605e-05
2.7525e-05
-4.94257e-05
3.22401e-05
-3.91159e-05
3.48711e-05
-2.95089e-05
3.55751e-05
-2.18664e-05
3.47494e-05
-1.36403e-05
3.25179e-05
-0.000142988
3.32695e-05
-2.69759e-05
3.69929e-05
-1.04014e-05
3.76988e-05
-6.04695e-06
3.80728e-05
-2.43624e-06
3.84909e-05
-7.93751e-07
3.89309e-05
-1.03134e-07
3.07526e-05
-7.07723e-05
5.66213e-05
-0.000100678
3.27396e-05
-0.000134252
-5.83193e-05
3.64186e-05
-4.66865e-05
3.98107e-05
-3.5674e-05
4.10361e-05
-2.67652e-05
4.04739e-05
-1.7127e-05
3.82361e-05
-0.000148131
3.76613e-05
-3.59805e-05
4.22742e-05
-1.49526e-05
4.15443e-05
-8.98185e-06
4.06338e-05
-4.24269e-06
3.98794e-05
-1.62159e-06
3.93188e-05
-2.8194e-07
4.07626e-05
-6.83293e-05
8.47469e-05
-9.88978e-05
6.55671e-05
-0.000133505
3.54463e-05
-0.000169698
-5.53437e-05
4.50758e-05
-4.28443e-05
4.6981e-05
-3.25444e-05
4.68154e-05
-2.13667e-05
4.47136e-05
-0.00015302
4.31246e-05
-4.77807e-05
4.94617e-05
-1.99361e-05
4.7258e-05
-1.23511e-05
4.49137e-05
-6.39737e-06
4.27886e-05
-2.69842e-06
4.09563e-05
-5.58136e-07
5.05819e-05
-6.5163e-05
0.000112626
-9.62082e-05
9.84675e-05
-0.000131798
7.12647e-05
-0.000169324
3.56615e-05
-0.000205359
-5.11247e-05
5.33561e-05
-3.93188e-05
5.37553e-05
-2.64901e-05
5.19387e-05
-0.000157911
4.9605e-05
-6.33259e-05
5.86701e-05
-2.53315e-05
5.48575e-05
-1.60889e-05
5.0996e-05
-8.85398e-06
4.73705e-05
-3.97947e-06
4.40697e-05
-9.23417e-07
6.00766e-05
-6.06193e-05
0.000140223
-9.27602e-05
0.000131451
-0.000129192
0.00010747
-0.000168003
7.2631e-05
-0.000206293
3.13497e-05
-0.000236709
-4.72051e-05
6.12424e-05
-3.26398e-05
5.99051e-05
-0.000163024
5.7051e-05
-8.37478e-05
7.00271e-05
-3.10612e-05
6.44001e-05
-2.01342e-05
5.8903e-05
-1.15504e-05
5.36926e-05
-5.44738e-06
4.88385e-05
-1.36579e-06
6.92249e-05
-5.63534e-05
0.00016721
-8.76067e-05
0.000164613
-0.000125921
0.000144166
-0.000165889
0.000110261
-0.000205634
6.90591e-05
-0.000244003
1.84475e-05
-0.000255157
-3.99851e-05
6.85877e-05
-0.000168482
6.53629e-05
-0.000110151
8.34546e-05
-3.69066e-05
7.58728e-05
-2.43718e-05
6.8638e-05
-1.44466e-05
6.17994e-05
-7.07735e-06
5.53227e-05
-1.8716e-06
7.808e-05
-4.88402e-05
0.000193526
-8.26687e-05
0.0001977
-0.000120694
0.000181589
-0.000163344
0.00014875
-0.000204378
0.000106805
-0.00024338
6.04928e-05
-0.000286048
-1.23322e-05
-0.000242824
-0.00017432
7.44261e-05
-0.000143291
9.85033e-05
-4.27215e-05
8.92699e-05
-2.86447e-05
8.01459e-05
-1.74509e-05
7.16426e-05
-8.84665e-06
6.35688e-05
-2.42895e-06
8.74225e-05
-0.000183662
0.000219414
-7.47288e-05
0.000230646
-0.000115615
0.000219597
-0.000158702
0.000188324
-0.000202918
0.000145623
-0.000243196
9.82659e-05
-0.000281153
3.57116e-05
-0.000334092
-0.000108444
-0.00013438
-0.00018387
0.000115005
-4.87329e-05
0.000104515
-3.27188e-05
9.33443e-05
-2.04598e-05
8.31549e-05
-1.06817e-05
7.34777e-05
-3.02706e-06
0.000134596
-0.000231043
0.000237156
-0.000201404
0.000264232
-0.000108315
0.000258268
-0.000154286
0.000228887
-0.000199265
0.000185188
-0.000242482
0.000137629
-0.000282559
8.31346e-05
-0.000328576
-2.43027e-05
-0.000418234
7.44669e-05
-0.000208847
-5.5373e-05
0.000121645
-3.61691e-05
0.000107966
-2.3273e-05
9.61577e-05
-1.25346e-05
8.5008e-05
-3.64696e-06
0.000139644
-6.04213e-05
0.000354518
-0.000348405
0.000288525
-0.000225698
0.000298828
-0.000148875
0.000270727
-0.000196126
0.000225281
-0.000239358
0.000176005
-0.000280857
0.000129455
-0.00032888
6.62453e-05
-0.000419124
0.000103237
-0.000447004
0.0002296
-0.000438448
-3.83022e-05
0.000123779
-2.56231e-05
0.000110316
-1.42692e-05
9.78924e-05
-4.27652e-06
0.000139802
-3.84596e-05
0.000381151
-8.70543e-05
0.000385047
-0.000444927
0.000326408
-0.000253278
0.000315223
-0.000193371
0.000266211
-0.000237056
0.000212889
-0.000276242
0.00016853
-0.000319932
0.000135431
-0.000398066
0.000165742
-0.000481629
0.000280934
-0.000498338
0.00120709
-0.000236025
-0.00140951
-2.71276e-05
0.000125284
-1.57431e-05
0.00011179
-4.87094e-06
0.000140181
-2.75062e-05
0.000381977
-3.92851e-05
0.000431416
-0.000133423
0.000390269
-0.000508788
0.0003453
-0.000283355
0.000310009
-0.00023717
0.000248003
-0.00027217
0.000201011
-0.000308724
0.000178592
-0.000363092
0.000222826
-0.00045515
0.000349477
-0.000550172
0.00101836
-0.00030961
0.00112114
-0.00012613
-0.00123104
-9.38264e-05
-0.00131569
-1.67696e-05
0.00012631
-5.39581e-06
0.000140657
-1.72454e-05
0.000381807
-2.73354e-05
0.000432168
-4.00365e-05
0.000468983
-0.000212137
0.000374114
-0.000537601
0.000337721
-0.000311066
0.000285376
-0.000274543
0.000225584
-0.000296743
0.000202772
-0.000332905
0.000241884
-0.000382151
0.000365061
-0.000470734
0.0007909
-0.000322711
0.000965368
-0.000153834
0.00109577
-2.34158e-05
-0.00119849
-8.18396e-05
-0.00124303
-6.76243e-05
-0.00124806
-5.79361e-06
-6.04345e-06
0.000382091
-1.75297e-05
0.000429475
-2.46427e-05
0.000465028
-3.6082e-05
0.000485897
-0.00032392
0.00034374
-0.00054362
0.000303904
-0.000329594
0.000248265
-0.000297225
0.000211224
-0.000305194
0.000237081
-0.000328102
0.000340818
-0.000357908
0.000594674
-0.000274508
0.000776
-0.000133343
0.000948576
-6.63798e-06
0.00114106
7.0905e-05
-0.00123538
-4.13687e-05
-0.00123896
-7.68554e-05
-0.00123379
-5.53808e-05
-0.00119268
-6.35144e-06
0.000427862
-1.59166e-05
0.000455521
-1.51363e-05
0.000473326
-2.35119e-05
0.000453952
-0.000434132
0.000291429
-0.000531146
0.000252764
-0.000334093
0.00021285
-0.000298851
0.000218633
-0.000286747
0.00029287
-0.000280154
0.000448219
-0.000211453
0.000597213
-9.57212e-05
0.000797409
1.78241e-05
0.00101258
0.000121842
0.00120317
0.000179587
-0.00131185
1.63991e-05
-0.00129315
-7.13178e-05
-0.00124449
-9.5068e-05
-0.00119411
-6.19792e-05
-0.0011307
-5.95837e-06
0.000449468
-9.86388e-06
0.000453288
4.90117e-06
0.000440973
-1.05342e-05
0.000359988
-0.000502692
0.000220189
-0.000498571
0.000198298
-0.00031954
0.000191461
-0.000271679
0.000237725
-0.000231602
0.000330241
-0.000162175
0.000450643
-6.48826e-05
0.000652327
4.93608e-05
0.000851193
0.000179212
0.00104853
0.000276487
0.00131982
0.0002762
-0.00141643
6.88604e-05
-0.00136432
-6.24898e-05
-0.00130198
-0.000119672
-0.00121989
-0.000113196
-0.00114289
-6.61917e-05
-0.00106451
-4.00738e-06
0.000440323
3.10088e-06
0.000411502
3.43711e-05
0.000352926
-3.47311e-06
0.000233945
-0.000516449
0.000144323
-0.000444596
0.000151675
-0.000279754
0.000175636
-0.00020959
0.000232032
-0.000133393
0.000330115
-4.16481e-05
0.000510643
7.68013e-05
0.000674803
0.000225751
0.000875973
0.000351768
0.00117255
0.000423752
0.00136409
5.53289e-05
-0.0014585
5.51029e-05
0.000124856
0.000135323
0.000119744
-0.00146732
-3.77249e-05
-0.00138908
-0.000149232
-0.00127242
-0.000164321
-0.00116877
-0.000131099
-0.00107798
-7.92079e-05
-0.000985302
3.30938e-07
0.000391801
2.28004e-05
0.000321526
6.57695e-05
0.000220191
1.02794e-05
0.000103554
-0.000475681
7.68031e-05
-0.000369724
0.000110913
-0.000215031
0.000144651
-0.000122209
0.000225305
-2.85828e-05
0.0003725
9.64943e-05
0.000501938
0.000249667
0.000709644
0.00039208
0.000984894
0.000539428
0.00121295
0.000574892
-3.43879e-06
0.000155393
-0.000156017
5.93913e-05
1.86531e-05
-0.00139664
9.71598e-06
1.89608e-05
1.05567e-05
0.000154563
-0.000140224
3.73248e-05
-1.63551e-06
0.000170383
0.000111501
0.000176272
0.000111979
-4.74113e-05
-0.00145763
-0.000173434
-0.00136488
-0.000223123
-0.00121362
-0.000193519
-0.00110635
-0.000157339
-0.000999854
-8.87236e-05
-0.000896579
6.86309e-06
0.000299726
4.45995e-05
0.000194116
9.18434e-05
7.76085e-05
3.62241e-05
-2.11139e-05
-0.000377764
1.52305e-05
-0.000274041
6.77256e-05
-0.000138106
0.00013051
-2.74142e-05
0.000242454
0.000101463
0.000344795
0.000253637
0.000546359
0.000412951
0.000751452
0.000625522
0.00103033
0.00072204
-0.000145188
-0.000138931
0.000775088
8.24602e-05
8.26748e-05
0.000129551
0.000135892
-7.95691e-06
-0.00017032
4.09132e-05
8.48277e-06
7.95618e-05
-5.12047e-05
2.25515e-05
-0.00132695
-0.000117101
-0.000154495
1.60309e-05
-8.19533e-06
-0.00017377
3.06062e-05
-0.000166389
1.42549e-05
4.29343e-05
1.45785e-05
-1.17054e-05
8.55499e-06
3.73202e-05
2.45369e-05
-0.000189205
-0.00144186
-0.00028915
-0.00129885
-0.0002534
-0.00115373
-0.000234691
-0.00102899
-0.000180423
-0.000908154
-9.811e-05
-0.000798469
1.41895e-05
0.000177126
6.15891e-05
5.63448e-05
0.000113107
-5.58045e-05
7.09143e-05
-0.00013029
-0.000232243
-3.24717e-05
-0.000173844
4.4506e-05
-5.2102e-05
0.000123604
9.14362e-05
0.000206395
0.000239863
0.000382828
0.000417169
0.000505947
0.000658456
0.000816867
0.000838989
0.000815926
0.000144981
0.000146626
0.000194437
0.000195159
7.76767e-06
-4.72765e-05
0.000114303
7.66561e-06
-4.98411e-05
0.000128514
1.17696e-05
2.2292e-06
-2.98778e-06
8.30329e-05
-2.84418e-06
9.11245e-05
9.49307e-07
-2.05444e-05
9.30389e-06
1.42153e-05
-0.000196236
0.000245252
1.98242e-05
-4.46173e-05
2.59644e-05
-4.18509e-05
-0.00127285
-0.000243308
6.69193e-07
-5.25922e-05
-0.000233433
-2.87194e-05
-3.80696e-05
-5.06065e-05
-5.45092e-05
4.60829e-05
-1.45246e-05
-6.41656e-06
1.71478e-05
1.32896e-06
-0.000218668
0.000262604
1.8683e-05
-4.29557e-05
2.36824e-05
-4.08359e-05
1.44829e-05
1.51142e-05
-3.30846e-05
-3.70928e-06
-3.74154e-05
1.6017e-05
-2.91686e-05
-2.6739e-06
-3.53089e-05
-0.000366911
-0.0013641
-0.000331513
-0.00122074
-0.000310357
-0.00107807
-0.000277358
-0.000932058
-0.000198872
-0.000807392
-0.000104352
-0.000694116
2.02421e-05
4.71515e-05
7.07819e-05
-6.70046e-05
0.000124306
-0.000165413
0.000106037
-0.000184351
-8.03641e-05
-7.44193e-05
-5.49194e-05
2.12042e-05
5.0298e-05
8.30012e-05
0.00021483
0.000213906
0.000408784
0.000284552
0.000638564
0.00056851
0.000906813
0.000721306
0.000222294
0.000220736
0.000246825
0.000243754
2.08142e-06
4.37993e-05
9.61125e-05
4.39053e-05
0.000101958
-2.77822e-08
8.24021e-05
0.000155862
8.17789e-05
0.000157258
1.89631e-06
-0.00029234
6.09966e-05
0.000120179
-5.22103e-05
5.97736e-05
7.63449e-06
-4.64947e-05
1.94398e-05
0.000128815
-0.000286424
5.86638e-05
0.000117816
5.755e-05
-5.00622e-05
1.03913e-05
-4.41323e-05
2.12067e-05
0.000128656
1.14347e-06
-0.000235127
-2.30632e-05
3.95557e-05
-2.88392e-05
3.70601e-05
-0.000228469
-2.02159e-05
4.15647e-05
-2.65111e-05
3.94752e-05
9.9852e-06
0.000294257
2.8228e-05
-5.4342e-05
2.37317e-05
-4.73038e-05
0.000105776
1.66216e-05
2.17168e-06
-0.000111301
6.55548e-06
-1.93211e-05
-8.78913e-05
9.52422e-05
-3.26472e-05
1.99193e-06
0.000101956
8.47209e-06
-8.17303e-05
-3.139e-05
-0.00123372
-0.000406036
-0.000302404
-3.36064e-05
-5.23331e-05
-3.60183e-05
-5.23789e-05
2.05805e-06
-0.000296854
0.000310562
-4.44855e-05
-0.00030483
0.00032022
-5.14009e-05
2.57491e-06
-0.000314876
-3.51596e-05
-0.000324205
-3.25594e-05
0.000307607
2.6358e-05
-5.11678e-05
2.18333e-05
-4.65652e-05
6.48082e-06
3.09829e-05
-3.4688e-05
3.72778e-05
-4.3524e-05
2.97273e-05
-3.15962e-05
3.59135e-05
-4.28337e-05
0.000106479
1.79008e-05
-0.000110691
7.16639e-06
-1.98349e-05
-8.67921e-05
9.50852e-05
-3.1414e-05
0.000103961
8.35778e-06
-8.03605e-05
-2.93666e-05
-0.000108013
1.1288e-05
1.5669e-06
-1.02894e-06
-1.88523e-05
7.44758e-05
-2.77117e-05
1.13618e-06
-1.15296e-05
-3.33818e-05
-0.000106414
1.25718e-05
7.34904e-07
-1.89462e-05
7.26789e-05
-2.42375e-05
-9.08167e-06
-3.04185e-05
-0.000432634
-0.00126298
-0.000387036
-0.00114406
-0.000384166
-0.000971262
-0.000306011
-0.000824919
-0.000210863
-0.000700881
-0.000109618
-0.000584498
2.4984e-05
-7.15782e-05
7.53548e-05
-0.000173241
0.000132133
-0.000205745
0.00012743
-0.000264887
0.000110103
-0.000131535
9.78194e-05
-2.52397e-05
0.000158539
5.39709e-05
0.000374765
0.000116247
0.000577088
0.000287442
0.000919633
0.00055953
0.000262345
0.000260759
0.000272118
0.000273366
-4.15448e-07
0.000103307
0.000201805
0.000103658
0.000198442
8.84154e-09
0.000114057
0.000236067
0.000114337
0.000233084
1.08117e-06
-0.000178047
-2.009e-05
4.02498e-05
-2.23418e-05
4.01614e-05
-0.00017367
-1.71921e-05
4.20917e-05
-1.8692e-05
4.20401e-05
1.32044e-06
-9.36334e-05
-1.38503e-05
5.00426e-05
-1.55687e-05
4.94983e-05
-9.24804e-05
-1.14411e-05
5.04904e-05
-1.29696e-05
5.12939e-05
-1.60618e-05
-8.08829e-05
8.49459e-05
-4.02116e-05
-2.80189e-06
7.68174e-05
-4.19537e-05
-6.58507e-05
5.32734e-07
-1.4347e-05
7.1212e-05
-1.24293e-05
-8.83909e-05
-2.65574e-05
1.09135e-08
-7.18642e-05
1.30004e-05
4.66892e-07
0.000122462
-8.43138e-06
-2.5448e-06
7.46e-05
-3.87427e-05
-1.53304e-05
-8.09086e-05
8.34545e-05
-3.72777e-05
-6.53365e-05
7.0008e-05
-9.07763e-06
-1.18971e-05
-8.8809e-05
-2.43348e-05
-7.0731e-05
1.4715e-05
0.000123492
-5.99583e-06
-9.49931e-06
8.86852e-05
-8.94942e-05
-1.27551e-05
6.86608e-05
-5.22619e-07
-6.54731e-05
2.73923e-05
-1.11826e-05
-1.73623e-05
-2.71505e-07
2.29209e-05
-8.83957e-06
8.95314e-05
-9.03753e-05
-1.05325e-05
6.74284e-05
-6.44951e-05
2.92695e-05
-1.06275e-05
-1.5161e-05
2.52736e-05
-9.49184e-05
1.78143e-05
1.34466e-06
9.16155e-05
1.2372e-05
-1.85377e-05
9.58476e-05
-3.64096e-05
1.43505e-06
1.07964e-05
0.000100309
-3.39509e-05
0.000121509
1.5167e-05
1.13549e-06
-0.000123633
-7.62314e-06
-1.9442e-05
-8.60104e-05
9.32383e-05
-2.04332e-05
1.2464e-06
0.000117458
-8.15138e-06
-7.93398e-05
-2.28933e-05
-0.00114656
-0.000519795
-0.000382848
-9.02762e-05
-0.000103744
-5.6805e-05
-7.47661e-05
2.3346e-06
-0.000311588
0.000305932
-3.02854e-05
-0.000324173
0.00031818
-4.40057e-05
2.73357e-06
-3.97776e-05
-5.35987e-05
3.45925e-06
-0.000346053
0.000368307
-5.17582e-05
1.50934e-05
-4.76349e-05
1.41281e-05
-0.000358069
0.000380253
-5.12185e-05
1.43578e-05
-4.72506e-05
1.39853e-05
3.17935e-06
-0.000126253
-5.71758e-05
-6.78873e-06
-0.000130865
2.14357e-05
-3.43975e-05
1.87268e-05
-6.90645e-05
-0.000129145
-6.05907e-05
-3.82575e-06
-0.000133816
2.40386e-05
-3.25216e-05
2.04448e-05
-7.2033e-05
-9.78945e-05
1.92558e-05
9.44892e-05
1.18524e-05
-1.90229e-05
9.64886e-05
-3.35484e-05
1.03122e-05
0.000101214
-3.20343e-05
8.09283e-05
2.29368e-05
8.93095e-07
1.78403e-05
-3.50912e-05
-0.000106154
-1.96953e-05
3.80637e-07
2.55713e-05
-2.64322e-05
8.42103e-05
2.36354e-05
1.72639e-05
-3.48522e-05
-0.000107816
-1.80733e-05
2.50618e-05
-2.58005e-05
0.000123631
1.54884e-05
-0.000125327
-5.48975e-06
-1.95746e-05
-8.59665e-05
9.3733e-05
-1.96059e-05
0.000119816
-6.15472e-06
-7.78052e-05
-2.20396e-05
5.20585e-06
8.66775e-07
-8.28768e-06
-3.06982e-05
5.518e-06
-5.75117e-06
-2.81056e-05
-0.000470019
-0.00117999
-0.000505042
-0.00102318
-0.000426934
-0.000850339
-0.000321845
-0.000713937
-0.000221024
-0.000589475
-0.000113382
-0.000471116
2.68661e-05
-0.000175005
7.71169e-05
-0.000204863
0.000131247
-0.000280863
0.000143403
-0.000336065
0.000314633
-0.000221066
0.000293646
-8.7315e-05
0.000299825
-1.76652e-05
0.000508678
3.62116e-05
0.000828318
0.000349517
0.00026991
0.000269446
0.000295007
0.000295282
1.73778e-07
0.00010545
0.000270778
0.000106246
0.000269024
-1.30906e-07
9.06237e-05
0.000287075
9.15021e-05
0.000287979
1.2928e-06
-3.13589e-05
-2.68921e-07
6.39713e-05
1.09602e-05
6.35471e-05
-3.41374e-05
1.64842e-06
6.37796e-05
1.25123e-05
6.34571e-05
1.3274e-06
1.33766e-05
3.14307e-05
6.63933e-05
2.1949e-05
7.02534e-05
8.64645e-06
3.24407e-05
6.53997e-05
2.36136e-05
7.01934e-05
-8.18124e-06
-8.99421e-05
-1.1461e-05
-6.29355e-05
-7.41311e-07
3.02602e-05
-6.88247e-06
-9.08714e-05
-1.4534e-05
-1.10397e-06
-6.05742e-05
3.19942e-05
-7.40612e-06
-9.07942e-05
-9.36704e-06
-6.24411e-05
3.18905e-05
-5.97287e-06
-9.10348e-05
-1.24785e-05
-6.1136e-05
3.3666e-05
-4.82725e-06
8.06671e-05
-6.92178e-05
-2.04691e-05
5.03665e-05
-4.6409e-07
-4.27691e-05
3.80659e-05
-5.61406e-06
-2.01549e-05
-8.15264e-07
3.45067e-05
-4.0262e-06
8.08276e-05
-6.97142e-05
-1.85284e-05
5.16841e-05
-4.41309e-05
3.84404e-05
-4.9137e-06
-1.82629e-05
3.61051e-05
-1.35179e-05
6.58453e-05
-4.88448e-06
-2.90151e-05
-2.49872e-05
5.39857e-08
4.51394e-07
5.9128e-05
-8.03684e-06
-4.35086e-05
1.84924e-07
-3.35475e-05
-1.33492e-05
6.50718e-05
-4.80034e-06
-2.87073e-05
5.82974e-05
-2.50685e-05
-7.76517e-06
-4.30037e-05
-3.34788e-05
-7.9044e-06
4.70475e-05
-4.97172e-05
3.52909e-05
-8.03063e-09
-3.6559e-05
-8.80865e-06
5.22357e-08
-7.6434e-06
4.66977e-05
-4.95216e-05
3.498e-05
-3.61777e-05
-8.62226e-06
-0.000115733
2.25962e-05
1.22073e-06
0.000112616
-8.33822e-06
-2.10021e-05
9.74836e-05
-1.96528e-05
1.18646e-06
-9.67964e-06
0.000102743
-1.66135e-05
5.05747e-05
7.96945e-06
5.95276e-07
-5.10921e-05
-7.57098e-06
-5.4806e-05
5.32317e-05
6.48484e-07
5.06009e-05
-5.68079e-05
-0.00108438
-0.000532195
-0.000432095
-0.000130533
-0.000123483
-0.000110477
-0.000106055
1.66558e-06
-0.000291965
0.000278407
-7.83838e-05
-0.000303626
0.000283011
-8.14629e-05
2.41157e-06
-4.52496e-05
-5.78007e-05
5.01864e-06
-0.000378619
0.000365711
-4.58562e-05
3.75e-05
-4.55344e-05
3.15148e-05
-0.000387174
0.000368331
-4.41137e-05
3.69732e-05
-4.39586e-05
3.09382e-05
4.16272e-06
-5.10218e-05
1.79405e-05
-4.65785e-05
2.54347e-05
-5.07675e-05
1.63077e-05
-4.57288e-05
2.38405e-05
-2.5018e-05
-0.000101308
0.000102575
-2.80072e-05
-9.14031e-05
-2.54771e-07
9.59343e-05
-1.4241e-05
-2.29185e-05
-0.000100055
-2.59693e-05
7.81869e-08
-8.96134e-05
-1.06581e-05
-2.48589e-05
-0.00010294
0.000104294
-2.7713e-05
-9.34119e-05
9.82637e-05
-1.56074e-05
-2.30061e-05
-0.000101372
-2.58128e-05
-9.13543e-05
-1.1e-05
-1.63325e-05
9.89196e-05
-9.82639e-05
8.88804e-06
-4.07177e-05
-0.000111844
2.00183e-06
8.90355e-05
-1.1713e-07
1.14257e-05
-9.527e-05
-2.0157e-05
-1.53758e-05
2.25431e-07
-2.23339e-06
1.1679e-06
-0.000100808
1.54439e-05
-1.5981e-05
9.99381e-05
-9.84594e-05
1.06765e-05
-4.09306e-05
-0.00011401
3.05084e-06
9.04947e-05
1.37916e-05
-9.63458e-05