/*--------------------------------*- C++ -*----------------------------------*\
| =========                 |                                                 |
| \\      /  F ield         | OpenFOAM: The Open Source CFD Toolbox           |
|  \\    /   O peration     | Version:  5.x                                   |
|   \\  /    A nd           | Web:      www.OpenFOAM.org                      |
|    \\/     M anipulation  |                                                 |
\*---------------------------------------------------------------------------*/
FoamFile
{
    version     2.0;
    format      ascii;
    class       volScalarField;
    location    "0.6";
    object      rAU;
}
// * * * * * * * * * * * * * * * * * * * * * * * * * * * * * * * * * * * * * //

dimensions      [-1 3 1 0 0 0 0];

internalField   nonuniform List<scalar> 
12160
(
1.64827e-06
1.64823e-06
1.64825e-06
1.64998e-06
1.64815e-06
1.64821e-06
1.65094e-06
1.64985e-06
1.64806e-06
1.64816e-06
1.65092e-06
1.65088e-06
1.64967e-06
1.64805e-06
1.64805e-06
1.65188e-06
1.65089e-06
1.65079e-06
1.64952e-06
1.64802e-06
1.64789e-06
1.65188e-06
1.65188e-06
1.65079e-06
1.65037e-06
1.64943e-06
1.64817e-06
1.64756e-06
1.65188e-06
1.65188e-06
1.65188e-06
1.6505e-06
1.64959e-06
1.6493e-06
1.64829e-06
1.64742e-06
1.65176e-06
1.65188e-06
1.65188e-06
1.65188e-06
1.65028e-06
1.64916e-06
1.64839e-06
1.64878e-06
2.50396e-06
1.65171e-06
1.65176e-06
1.65188e-06
1.65188e-06
1.65188e-06
1.64979e-06
1.64806e-06
1.64993e-06
2.4012e-06
6.12932e-05
1.65173e-06
1.65171e-06
1.65187e-06
1.65188e-06
1.65188e-06
1.65124e-06
1.64983e-06
1.64998e-06
2.35587e-06
2.48698e-05
0.00153382
1.65175e-06
1.65173e-06
1.65187e-06
1.65187e-06
1.65188e-06
1.65128e-06
1.65124e-06
1.65033e-06
2.38807e-06
1.74125e-05
0.00130225
0.00165101
1.65177e-06
1.65175e-06
1.65187e-06
1.65187e-06
1.65187e-06
1.65131e-06
1.65128e-06
1.65042e-06
2.56534e-06
1.47012e-05
0.000952644
0.00164841
0.00165058
1.65178e-06
1.65177e-06
1.65187e-06
1.65187e-06
1.65187e-06
1.65134e-06
1.64983e-06
1.65011e-06
2.91266e-06
1.61946e-05
0.000582977
0.00164632
0.0016458
0.00165078
1.6518e-06
1.65178e-06
1.65187e-06
1.65187e-06
1.65187e-06
1.65138e-06
1.65e-06
1.64865e-06
3.46405e-06
2.27912e-05
0.000502575
0.00164533
0.00164964
0.00164658
0.00164753
1.65181e-06
1.6518e-06
1.65186e-06
1.65187e-06
1.65187e-06
1.65143e-06
1.65022e-06
1.64898e-06
4.25888e-06
3.84527e-05
0.000697101
0.00164286
0.00165037
0.00165184
0.00163877
1.65182e-06
1.65181e-06
1.65186e-06
1.65186e-06
1.65186e-06
1.65149e-06
1.65046e-06
1.64938e-06
5.35158e-06
7.12032e-05
0.00113036
0.0016464
0.00165111
0.00165183
0.00164417
1.65183e-06
1.65182e-06
1.65186e-06
1.65186e-06
1.65186e-06
1.65155e-06
1.65069e-06
1.64978e-06
6.8298e-06
0.000137907
0.00146839
0.00165098
0.00164951
0.00165111
0.00164741
1.65183e-06
1.65183e-06
1.65186e-06
1.65186e-06
1.65186e-06
1.6516e-06
1.6509e-06
1.65015e-06
8.81382e-06
0.000266961
0.00160046
0.00165161
0.0016517
0.00164955
0.00165118
1.65184e-06
1.65183e-06
1.65186e-06
1.65186e-06
1.65186e-06
1.65165e-06
1.65108e-06
1.65048e-06
1.14599e-05
0.000490889
0.00163817
0.00165184
0.00165184
0.00165173
0.00164986
1.65184e-06
1.65184e-06
1.65186e-06
1.65186e-06
1.65186e-06
1.65169e-06
1.65123e-06
1.65075e-06
1.49676e-05
0.000803293
0.00164753
0.00165184
0.00165184
0.00165183
0.00164915
1.65185e-06
1.65184e-06
1.65186e-06
1.65186e-06
1.65186e-06
1.65173e-06
1.65136e-06
1.65098e-06
1.95919e-05
0.001121
0.0016498
0.00165184
0.00165184
0.00165184
0.00164906
1.65186e-06
1.65185e-06
1.65186e-06
1.65186e-06
1.65186e-06
1.65175e-06
1.65146e-06
1.65116e-06
2.56448e-05
0.00136547
0.00165089
0.00165184
0.00165184
0.00165184
0.00164921
1.65186e-06
1.65186e-06
1.65186e-06
1.65186e-06
1.65186e-06
1.65177e-06
1.65154e-06
1.6513e-06
3.35008e-05
0.00151005
0.00165182
0.00165184
0.00165184
0.00165184
0.00164952
1.65186e-06
1.65186e-06
1.65186e-06
1.65186e-06
1.65186e-06
1.65179e-06
1.6516e-06
1.65142e-06
4.35804e-05
0.00158382
0.00165184
0.00165184
0.00165184
0.00165184
0.00164983
1.65186e-06
1.65186e-06
1.65186e-06
1.65186e-06
1.65186e-06
1.6518e-06
1.65165e-06
1.65151e-06
5.62985e-05
0.00161891
0.00165184
0.00165184
0.00165184
0.00165184
0.00165016
1.65186e-06
1.65186e-06
1.65186e-06
1.65186e-06
1.65186e-06
1.6518e-06
1.65168e-06
1.65157e-06
7.19489e-05
0.0016351
0.00165184
0.00165184
0.00165184
0.00165184
0.00165046
1.65184e-06
1.65186e-06
1.65186e-06
1.65186e-06
1.65186e-06
1.65181e-06
1.6517e-06
1.65162e-06
9.04869e-05
0.0016426
0.00165175
0.00165184
0.00165184
0.00165184
0.00165073
1.65183e-06
1.65185e-06
1.65186e-06
1.65186e-06
1.65186e-06
1.65181e-06
1.65172e-06
1.65166e-06
0.000111169
0.00164612
0.00165148
0.00165155
0.00165184
0.00165184
0.00165095
1.65183e-06
1.65184e-06
1.65186e-06
1.65186e-06
1.65186e-06
1.65181e-06
1.65172e-06
1.65168e-06
0.000132173
0.00164784
0.00165151
0.0016511
0.00165164
0.00165184
0.00165113
1.65183e-06
1.65183e-06
1.65186e-06
1.65186e-06
1.65186e-06
1.65181e-06
1.65173e-06
1.65169e-06
0.000150381
0.00164869
0.0016515
0.00165115
0.00165107
0.00165184
0.00165127
1.65182e-06
1.65183e-06
1.65186e-06
1.65186e-06
1.65186e-06
1.6518e-06
1.65172e-06
1.65169e-06
0.000162003
0.00164876
0.00165147
0.00165117
0.00165112
0.00165146
0.00165136
1.65181e-06
1.65182e-06
1.65186e-06
1.65186e-06
1.65186e-06
1.6518e-06
1.65171e-06
1.65168e-06
0.000164224
0.00164892
0.00165109
0.00165115
0.00165114
0.00165147
0.00165143
1.6518e-06
1.65181e-06
1.65186e-06
1.65186e-06
1.65186e-06
1.65179e-06
1.65169e-06
1.65166e-06
0.00015679
0.00164901
0.00165107
0.00165111
0.00165113
0.00165112
0.00165147
1.65179e-06
1.6518e-06
1.65185e-06
1.65186e-06
1.65186e-06
1.65178e-06
1.65166e-06
1.65163e-06
0.000142034
0.00164881
0.00165105
0.00165107
0.00165111
0.00165112
0.00165112
1.65178e-06
1.65179e-06
1.65185e-06
1.65185e-06
1.65186e-06
1.65177e-06
1.65163e-06
1.65159e-06
0.000123516
0.00164854
0.00165107
0.00165106
0.00165109
0.00165111
0.00165112
1.65177e-06
1.65178e-06
1.65185e-06
1.65185e-06
1.65185e-06
1.65175e-06
1.65158e-06
1.65154e-06
0.000104379
0.00164833
0.0016511
0.00165108
0.00165108
0.00165109
0.00165111
1.65175e-06
1.65177e-06
1.65185e-06
1.65185e-06
1.65185e-06
1.65173e-06
1.65153e-06
1.65147e-06
8.65951e-05
0.00164733
0.00165147
0.0016511
0.00165108
0.00165108
0.0016511
1.65174e-06
1.65175e-06
1.65185e-06
1.65185e-06
1.65185e-06
1.6517e-06
1.65146e-06
1.65139e-06
7.10622e-05
0.00164553
0.00165149
0.00165112
0.00165109
0.00165108
0.00165109
1.65207e-06
1.65174e-06
1.65185e-06
1.65185e-06
1.65185e-06
1.65167e-06
1.65138e-06
1.6513e-06
5.79995e-05
0.00164225
0.00165148
0.00165112
0.0016511
0.00165109
0.00165109
1.65207e-06
1.65184e-06
1.65185e-06
1.65185e-06
1.65185e-06
1.65164e-06
1.65129e-06
1.65119e-06
4.72567e-05
0.00163625
0.00165145
0.00165109
0.00165109
0.00165108
0.00165109
1.65218e-06
1.65184e-06
1.65162e-06
1.65185e-06
1.65185e-06
1.6516e-06
1.65119e-06
1.65106e-06
3.85333e-05
0.00162533
0.00165163
0.00165103
0.00165105
0.00165145
0.00165109
1.65217e-06
1.65198e-06
1.65162e-06
1.65163e-06
1.65185e-06
1.65156e-06
1.65107e-06
1.65091e-06
3.1497e-05
0.00160575
0.00165183
0.00165163
0.00165128
0.00165143
0.00165145
1.65216e-06
1.65198e-06
1.65181e-06
1.65163e-06
1.65176e-06
1.65152e-06
1.65094e-06
1.65073e-06
2.58379e-05
0.00157146
0.00165183
0.00165183
0.00165183
0.0016517
0.00165143
1.65176e-06
1.65197e-06
1.65181e-06
1.65179e-06
1.65176e-06
1.6501e-06
1.6508e-06
1.65054e-06
2.12885e-05
0.00151359
0.00165183
0.00165183
0.00165183
0.00165183
0.00165139
1.65091e-06
1.65153e-06
1.65181e-06
1.65179e-06
1.65176e-06
1.65173e-06
1.64995e-06
1.65032e-06
1.76274e-05
0.00142107
0.00165182
0.00165183
0.00165183
0.00165183
0.00165133
1.65032e-06
1.6505e-06
1.65129e-06
1.65179e-06
1.65176e-06
1.65173e-06
1.6517e-06
1.64964e-06
1.46755e-05
0.00128472
0.00165181
0.00165183
0.00165183
0.00165183
0.00165125
1.23026e-05
1.64977e-06
1.64998e-06
1.65121e-06
1.65177e-06
1.65173e-06
1.6517e-06
1.6486e-06
1.64745e-06
0.00110261
0.00165173
0.00165183
0.00165183
0.00165183
0.00165115
0.000889675
9.40081e-06
1.649e-06
1.64962e-06
1.65114e-06
1.65174e-06
1.6517e-06
1.65139e-06
1.64762e-06
1.64878e-06
0.00165058
0.00165182
0.00165183
0.00165183
0.00165103
0.00165016
0.000566667
6.57266e-06
1.64837e-06
1.64934e-06
1.65106e-06
1.6517e-06
1.65166e-06
1.6515e-06
1.6508e-06
1.64371e-06
0.00165182
0.00165183
0.00165183
0.00165089
0.00165201
0.00164849
0.000244242
4.82906e-06
1.64787e-06
1.65106e-06
1.65096e-06
1.65166e-06
1.65161e-06
1.65152e-06
1.64106e-06
1.62815e-06
0.00165183
0.00165183
0.00165072
0.00165196
0.00165191
0.00163612
0.000105542
3.73102e-06
1.64951e-06
1.65097e-06
1.65093e-06
1.65162e-06
1.65109e-06
1.64022e-06
1.64231e-06
1.64235e-06
1.63097e-06
0.00165183
0.00165054
0.00165191
0.00165189
0.00165182
0.00157101
5.05113e-05
3.02613e-06
1.64945e-06
1.64927e-06
1.65155e-06
1.65113e-06
1.64481e-06
1.64537e-06
1.65186e-06
1.64731e-06
1.6295e-06
1.64634e-06
0.00165035
0.00165018
0.00165187
0.00165183
0.00165181
0.00134848
2.78056e-05
2.56506e-06
1.64719e-06
1.64783e-06
1.65161e-06
1.65027e-06
1.64724e-06
1.65159e-06
1.65115e-06
1.65186e-06
1.64256e-06
1.6391e-06
1.65177e-06
0.00164985
0.00165183
0.00165183
0.0016515
0.000940637
1.74415e-05
2.26241e-06
1.64521e-06
1.64992e-06
1.65135e-06
1.65001e-06
1.65134e-06
1.65186e-06
1.65186e-06
1.65186e-06
1.65186e-06
1.64627e-06
1.65177e-06
1.65186e-06
0.00164941
0.00165181
0.00165183
0.00164967
0.000564816
1.22233e-05
2.06178e-06
1.64803e-06
1.65143e-06
1.65138e-06
1.65186e-06
1.65186e-06
1.65186e-06
1.65186e-06
1.65185e-06
1.65186e-06
1.65186e-06
1.65186e-06
1.65186e-06
1.65186e-06
0.00164907
0.0016518
0.0016518
0.00164379
0.000349701
9.37679e-06
1.93064e-06
1.65147e-06
1.65146e-06
1.65186e-06
1.65186e-06
1.65186e-06
1.65185e-06
1.65184e-06
1.64767e-06
1.65027e-06
1.65133e-06
1.65186e-06
1.65186e-06
1.65186e-06
1.65186e-06
0.00164892
0.00165178
0.0016493
0.00163438
0.000242693
7.68009e-06
1.85972e-06
1.6515e-06
1.65186e-06
1.65186e-06
1.65186e-06
1.65185e-06
1.64985e-06
1.64417e-06
1.63446e-06
1.64419e-06
1.63447e-06
1.62501e-06
1.6161e-06
1.65134e-06
1.64911e-06
1.65187e-06
1.65186e-06
1.65186e-06
1.65186e-06
0.00164905
0.00164929
0.00165023
0.00162518
0.000194354
6.72448e-06
1.82498e-06
1.65186e-06
1.65186e-06
1.65186e-06
1.65185e-06
1.64872e-06
1.64025e-06
1.64122e-06
1.62987e-06
1.6357e-06
1.64632e-06
1.62981e-06
1.63078e-06
1.63628e-06
1.64475e-06
1.63594e-06
1.64107e-06
1.64951e-06
1.64754e-06
1.65186e-06
1.65186e-06
1.65186e-06
1.65186e-06
0.00164954
0.00165021
0.00165136
0.00162531
0.000183526
6.41196e-06
1.81973e-06
1.65186e-06
1.65186e-06
1.65186e-06
1.64938e-06
1.63895e-06
1.64154e-06
1.65133e-06
1.65102e-06
1.65628e-06
1.65595e-06
1.64271e-06
1.63691e-06
1.6519e-06
1.64895e-06
1.64443e-06
1.64765e-06
1.64064e-06
1.63917e-06
1.64263e-06
1.6446e-06
1.64794e-06
1.64917e-06
1.65186e-06
1.65186e-06
1.65186e-06
1.65186e-06
0.0016504
0.00165134
0.00165141
0.00162987
0.000205696
6.55417e-06
1.82586e-06
1.65186e-06
1.65186e-06
1.65144e-06
1.64937e-06
1.63841e-06
1.64641e-06
1.64723e-06
1.64914e-06
1.64965e-06
1.61914e-06
1.61968e-06
1.63635e-06
1.63559e-06
1.61716e-06
1.61747e-06
1.58636e-06
1.6096e-06
1.56639e-06
1.64715e-06
1.64956e-06
1.63758e-06
1.63653e-06
1.64026e-06
1.63831e-06
1.61283e-06
1.61811e-06
1.61419e-06
1.6169e-06
1.6049e-06
1.61135e-06
1.59282e-06
1.64092e-06
1.57253e-06
1.54104e-06
1.58109e-06
1.64143e-06
1.57445e-06
1.54418e-06
1.5867e-06
1.64918e-06
1.65051e-06
1.65186e-06
1.65186e-06
1.65186e-06
1.65186e-06
0.00165144
0.00165189
0.00165035
0.00163489
0.000250648
7.15074e-06
1.86909e-06
1.65186e-06
1.65185e-06
1.65143e-06
1.64902e-06
1.6312e-06
1.63159e-06
1.63888e-06
1.64464e-06
1.6387e-06
1.63945e-06
1.63762e-06
1.64045e-06
1.48791e-06
1.52546e-06
1.56684e-06
1.55789e-06
1.60936e-06
1.57333e-06
1.52647e-06
1.48917e-06
1.56746e-06
1.55063e-06
1.60645e-06
1.57619e-06
1.6158e-06
1.56693e-06
1.60349e-06
1.5897e-06
1.61947e-06
1.55844e-06
1.60571e-06
1.58563e-06
1.57999e-06
1.52641e-06
1.58348e-06
1.49877e-06
1.63076e-06
1.63256e-06
1.6156e-06
1.60604e-06
1.64713e-06
1.64413e-06
1.61713e-06
1.58816e-06
1.64379e-06
1.60779e-06
1.59727e-06
1.60434e-06
1.5727e-06
1.57676e-06
1.57948e-06
1.59723e-06
1.58363e-06
1.57529e-06
1.54719e-06
1.48503e-06
1.50435e-06
1.53744e-06
1.54621e-06
1.48026e-06
1.50342e-06
1.54369e-06
1.6286e-06
1.6322e-06
1.61706e-06
1.60935e-06
1.55181e-06
1.54966e-06
1.55107e-06
1.55477e-06
1.65051e-06
1.65186e-06
1.65186e-06
1.65186e-06
1.65186e-06
1.65186e-06
0.00164888
0.00165197
0.00164929
0.00163816
0.000345506
8.77021e-06
1.95496e-06
1.65174e-06
1.65136e-06
1.64655e-06
1.61196e-06
1.61154e-06
1.6471e-06
1.64703e-06
1.64051e-06
1.64169e-06
1.64454e-06
1.64818e-06
1.62243e-06
1.56833e-06
1.62248e-06
1.57902e-06
1.62616e-06
1.56059e-06
1.62604e-06
1.57186e-06
1.6194e-06
1.56249e-06
1.62771e-06
1.59055e-06
1.62345e-06
1.56117e-06
1.6301e-06
1.59885e-06
1.54226e-06
1.44154e-06
1.55662e-06
1.55962e-06
1.55707e-06
1.58514e-06
1.55194e-06
1.43445e-06
1.56345e-06
1.5615e-06
1.55043e-06
1.58309e-06
1.61206e-06
1.59773e-06
1.60405e-06
1.59953e-06
1.58609e-06
1.59375e-06
1.57599e-06
1.5938e-06
1.56078e-06
1.6278e-06
1.58169e-06
1.6223e-06
1.62487e-06
1.62328e-06
1.63035e-06
1.62498e-06
1.65186e-06
1.64007e-06
1.62027e-06
1.61959e-06
1.59962e-06
1.60352e-06
1.5813e-06
1.59597e-06
1.61279e-06
1.63182e-06
1.56505e-06
1.61063e-06
1.52261e-06
1.61523e-06
1.57108e-06
1.61103e-06
1.57441e-06
1.61295e-06
1.57425e-06
1.48456e-06
1.58969e-06
1.5467e-06
1.61696e-06
1.50008e-06
1.57486e-06
1.48392e-06
1.58851e-06
1.59801e-06
1.61315e-06
1.49806e-06
1.54069e-06
1.62872e-06
1.57281e-06
1.6229e-06
1.52831e-06
1.57842e-06
1.51923e-06
1.57956e-06
1.6255e-06
1.62197e-06
1.62887e-06
1.62404e-06
1.62426e-06
1.6293e-06
1.62762e-06
1.62753e-06
1.65186e-06
1.65186e-06
1.65186e-06
1.65186e-06
1.65186e-06
1.65186e-06
0.00164402
0.00165196
0.00164659
0.00163999
0.000524461
1.28073e-05
2.16823e-06
1.65954e-06
1.65127e-06
1.62167e-06
1.62525e-06
1.65131e-06
1.65215e-06
1.63872e-06
1.63793e-06
1.64266e-06
1.64246e-06
1.63984e-06
1.60653e-06
1.63973e-06
1.59131e-06
1.64122e-06
1.60756e-06
1.64139e-06
1.59043e-06
1.6541e-06
1.58402e-06
1.64779e-06
1.58446e-06
1.65407e-06
1.58276e-06
1.65018e-06
1.58612e-06
1.63176e-06
1.59998e-06
1.63635e-06
1.61108e-06
1.63298e-06
1.59722e-06
1.63649e-06
1.60915e-06
1.60979e-06
1.61442e-06
1.64483e-06
1.63456e-06
1.61278e-06
1.61927e-06
1.6455e-06
1.6344e-06
1.59582e-06
1.62107e-06
1.63119e-06
1.61669e-06
1.64766e-06
1.64582e-06
1.6267e-06
1.62552e-06
1.62823e-06
1.6275e-06
1.59298e-06
1.60313e-06
1.59166e-06
1.58621e-06
1.57954e-06
1.45131e-06
1.57034e-06
1.52635e-06
1.57789e-06
1.49246e-06
1.56801e-06
1.57178e-06
1.50386e-06
1.54892e-06
1.51307e-06
1.5478e-06
1.5257e-06
1.53271e-06
1.53562e-06
1.53312e-06
1.59187e-06
1.59888e-06
1.58982e-06
1.61932e-06
1.59714e-06
1.61655e-06
1.60259e-06
1.63091e-06
1.55493e-06
1.63494e-06
1.61324e-06
1.558e-06
1.59946e-06
1.62492e-06
1.55174e-06
1.62905e-06
1.59485e-06
1.56146e-06
1.61609e-06
1.64117e-06
1.59416e-06
1.61682e-06
1.62544e-06
1.61077e-06
1.55719e-06
1.61226e-06
1.55112e-06
1.59586e-06
1.6514e-06
1.65186e-06
1.65186e-06
1.65186e-06
1.65186e-06
1.65186e-06
0.00164015
0.00165036
0.00164564
0.00163788
0.0008816
2.31344e-05
2.67418e-06
1.68601e-06
1.65296e-06
1.64048e-06
1.64167e-06
1.64114e-06
1.64082e-06
1.64768e-06
1.64795e-06
1.65626e-06
1.65568e-06
1.63031e-06
1.62089e-06
1.64553e-06
1.59322e-06
1.63305e-06
1.62734e-06
1.64626e-06
1.59261e-06
1.63032e-06
1.64335e-06
1.63107e-06
1.60137e-06
1.62904e-06
1.64567e-06
1.62968e-06
1.60124e-06
1.48831e-06
1.5337e-06
1.5012e-06
1.53872e-06
1.6472e-06
1.64157e-06
1.63045e-06
1.63092e-06
1.62152e-06
1.62399e-06
1.63486e-06
1.63776e-06
1.60898e-06
1.62526e-06
1.44717e-06
1.50462e-06
1.45599e-06
1.54915e-06
1.45177e-06
1.50427e-06
1.46153e-06
1.55024e-06
1.56685e-06
1.51336e-06
1.49373e-06
1.58542e-06
1.57144e-06
1.51293e-06
1.49842e-06
1.58577e-06
1.61365e-06
1.59943e-06
1.57676e-06
1.51424e-06
1.58588e-06
1.57882e-06
1.58546e-06
1.50765e-06
1.593e-06
1.59372e-06
1.59825e-06
1.53696e-06
1.59542e-06
1.60956e-06
1.60001e-06
1.53518e-06
1.65186e-06
1.65186e-06
1.65186e-06
1.65186e-06
1.65186e-06
1.65186e-06
0.00163632
0.00165026
0.00164252
0.00164096
0.00138454
5.32569e-05
3.92425e-06
1.78967e-06
1.6373e-06
1.6382e-06
1.67725e-06
1.67748e-06
1.65468e-06
1.65501e-06
1.63206e-06
1.63233e-06
1.57832e-06
1.65126e-06
1.59886e-06
1.65316e-06
1.57819e-06
1.65339e-06
1.59838e-06
1.65561e-06
1.63566e-06
1.66024e-06
1.65675e-06
1.65872e-06
1.63461e-06
1.65703e-06
1.65419e-06
1.65929e-06
1.59374e-06
1.61627e-06
1.63344e-06
1.6638e-06
1.6045e-06
1.61782e-06
1.63208e-06
1.66669e-06
1.64853e-06
1.63994e-06
1.63362e-06
1.634e-06
1.64709e-06
1.64291e-06
1.63293e-06
1.61633e-06
1.65187e-06
1.63572e-06
1.63759e-06
1.60302e-06
1.60559e-06
1.61936e-06
1.62671e-06
1.59731e-06
1.60731e-06
1.57931e-06
1.5903e-06
1.49519e-06
1.52362e-06
1.53329e-06
1.51515e-06
1.49208e-06
1.52193e-06
1.52215e-06
1.5166e-06
1.61199e-06
1.5954e-06
1.56359e-06
1.54319e-06
1.58536e-06
1.58673e-06
1.55577e-06
1.54857e-06
1.63555e-06
1.52423e-06
1.64787e-06
1.52424e-06
1.65187e-06
1.65186e-06
1.65186e-06
1.65186e-06
1.65186e-06
1.65186e-06
0.00163357
0.00164645
0.001647
0.00163749
0.0016172
0.000167766
8.42266e-06
2.67683e-06
1.63342e-06
1.63006e-06
1.73571e-06
1.7356e-06
1.66207e-06
1.61845e-06
1.64229e-06
1.66912e-06
1.66281e-06
1.61581e-06
1.64208e-06
1.65966e-06
1.65412e-06
1.65484e-06
1.59259e-06
1.67213e-06
1.4882e-06
1.68915e-06
1.59793e-06
1.67107e-06
1.48985e-06
1.68979e-06
1.68218e-06
1.64667e-06
1.59781e-06
1.67029e-06
1.6831e-06
1.64943e-06
1.59629e-06
1.67113e-06
1.60669e-06
1.46538e-06
1.60793e-06
1.48721e-06
1.65186e-06
1.64071e-06
1.64774e-06
1.61996e-06
1.61471e-06
1.613e-06
1.60714e-06
1.60975e-06
1.60956e-06
1.60802e-06
1.61526e-06
1.60043e-06
1.49474e-06
1.58889e-06
1.56299e-06
1.59604e-06
1.5209e-06
1.58722e-06
1.58674e-06
1.60902e-06
1.5594e-06
1.55228e-06
1.57871e-06
1.60384e-06
1.55485e-06
1.55865e-06
1.58358e-06
1.54684e-06
1.55346e-06
1.52473e-06
1.56368e-06
1.54794e-06
1.57145e-06
1.52138e-06
1.55565e-06
1.60626e-06
1.4765e-06
1.55758e-06
1.51141e-06
1.61418e-06
1.46897e-06
1.56034e-06
1.50138e-06
1.65187e-06
1.65186e-06
1.65186e-06
1.65186e-06
1.65186e-06
0.00162832
0.00165016
0.00163843
0.00163417
0.0016255
0.000626075
4.28935e-05
3.83136e-06
3.83171e-06
8.91087e-06
8.92052e-06
1.70048e-06
1.60077e-06
1.83808e-06
1.64174e-06
1.6762e-06
1.59825e-06
1.80781e-06
1.64178e-06
2.07109e-06
2.06993e-06
1.6448e-06
1.57639e-06
1.62538e-06
1.63222e-06
1.65279e-06
1.60097e-06
1.65042e-06
1.62585e-06
1.65812e-06
1.60378e-06
1.64847e-06
1.60235e-06
1.65737e-06
1.60131e-06
1.65023e-06
1.60209e-06
1.46289e-06
1.57968e-06
1.50079e-06
1.62332e-06
1.47113e-06
1.58814e-06
1.49718e-06
1.62417e-06
1.65187e-06
1.65081e-06
1.65055e-06
1.6345e-06
1.59357e-06
1.60117e-06
1.57785e-06
1.58736e-06
1.57997e-06
1.57742e-06
1.45806e-06
1.54167e-06
1.50447e-06
1.45127e-06
1.47516e-06
1.53723e-06
1.49786e-06
1.46522e-06
1.54172e-06
1.5599e-06
1.56111e-06
1.56352e-06
1.53716e-06
1.56765e-06
1.57182e-06
1.56639e-06
1.52298e-06
1.60892e-06
1.57326e-06
1.53671e-06
1.52682e-06
1.61824e-06
1.57648e-06
1.54287e-06
1.64061e-06
1.65664e-06
1.6313e-06
1.65329e-06
1.65186e-06
1.65186e-06
1.65186e-06
1.65186e-06
0.00162709
0.00164103
0.00163828
0.00162996
0.00163069
0.00149089
9.81623e-05
9.81964e-05
0.00145407
0.00145412
6.62184e-06
6.64431e-06
2.99114e-05
3.00543e-05
1.74352e-06
1.60748e-06
1.92361e-06
1.67422e-06
1.7412e-06
1.60744e-06
1.92448e-06
1.674e-06
2.03909e-06
3.16389e-06
2.35321e-06
2.45062e-06
2.03882e-06
3.18126e-06
2.3529e-06
2.45914e-06
1.60342e-06
1.52456e-06
1.64772e-06
1.60671e-06
1.60622e-06
1.52533e-06
1.64742e-06
1.60783e-06
1.72137e-06
1.62029e-06
1.57736e-06
1.62285e-06
1.72242e-06
1.62146e-06
1.58922e-06
1.62644e-06
1.6504e-06
1.65186e-06
1.65085e-06
1.64469e-06
1.62878e-06
1.63473e-06
1.61721e-06
1.62119e-06
1.58769e-06
1.58703e-06
1.53744e-06
1.51864e-06
1.45529e-06
1.4758e-06
1.54652e-06
1.5129e-06
1.46785e-06
1.47063e-06
1.58743e-06
1.58021e-06
1.57822e-06
1.5706e-06
1.51159e-06
1.53537e-06
1.59415e-06
1.57636e-06
1.58218e-06
1.56791e-06
1.5044e-06
1.52876e-06
1.56051e-06
1.56146e-06
1.53903e-06
1.54541e-06
1.62513e-06
1.61447e-06
1.53444e-06
1.63774e-06
1.61789e-06
1.63052e-06
1.54478e-06
1.65656e-06
1.65186e-06
1.65186e-06
1.65186e-06
0.00162172
0.0016461
0.00163498
0.0016356
0.00160915
0.00162209
0.000253485
0.000254636
0.00148417
0.00148467
1.14977e-05
3.80835e-06
9.12588e-06
2.35723e-05
1.66038e-05
2.69353e-06
3.83407e-06
1.16442e-05
2.69047e-06
9.08429e-06
2.40086e-05
1.67641e-05
0.000490022
0.000216568
0.000134361
6.12934e-05
0.000501775
0.000221067
0.000135766
6.19134e-05
1.75651e-06
1.59591e-06
1.9976e-06
1.71535e-06
1.75117e-06
1.54808e-06
1.97754e-06
1.71568e-06
2.49888e-06
2.77723e-06
2.46294e-06
2.78984e-06
1.52533e-06
1.61845e-06
1.53685e-06
1.64881e-06
1.71754e-06
1.61649e-06
1.7175e-06
1.62034e-06
1.65186e-06
1.6504e-06
1.64574e-06
1.64385e-06
1.59247e-06
1.60348e-06
1.59491e-06
1.60415e-06
1.60309e-06
1.60499e-06
1.60435e-06
1.60757e-06
1.52192e-06
1.4931e-06
1.4945e-06
1.55919e-06
1.52338e-06
1.50753e-06
1.51461e-06
1.49714e-06
1.48494e-06
1.55433e-06
1.51697e-06
1.5077e-06
1.61331e-06
1.5524e-06
1.60042e-06
1.5325e-06
1.605e-06
1.5267e-06
1.5802e-06
1.58986e-06
1.48248e-06
1.56951e-06
1.63125e-06
1.53576e-06
1.60048e-06
1.58227e-06
1.48428e-06
1.57238e-06
1.59976e-06
1.57582e-06
1.60556e-06
1.57973e-06
1.65186e-06
1.65186e-06
0.00162495
0.00163748
0.00163859
0.00162708
0.00161437
0.00164932
0.00164479
0.00160073
0.00159381
0.000504376
0.000515809
0.00156694
0.00156826
5.83053e-06
3.10808e-05
2.79664e-05
8.97327e-06
0.000114347
5.69003e-05
5.91034e-06
3.20855e-05
9.03504e-06
2.71711e-05
0.000118413
5.40144e-05
0.000528665
0.000486239
0.000153072
0.000106883
0.000541279
0.000491022
0.000157666
0.000103342
2.06114e-06
1.72802e-06
1.99018e-06
1.93419e-06
1.65186e-06
1.65186e-06
1.64675e-06
1.64983e-06
1.62702e-06
1.58869e-06
1.59372e-06
1.58947e-06
1.59279e-06
1.47574e-06
1.51909e-06
1.49504e-06
1.54989e-06
1.4843e-06
1.5132e-06
1.51123e-06
1.54401e-06
1.56088e-06
1.51233e-06
1.55992e-06
1.50231e-06
1.58409e-06
1.54451e-06
1.56199e-06
1.51725e-06
1.55312e-06
1.52328e-06
1.58018e-06
1.53972e-06
1.49994e-06
1.57255e-06
1.53525e-06
1.57793e-06
1.52584e-06
1.57013e-06
1.56797e-06
1.57418e-06
1.57599e-06
1.59732e-06
1.59341e-06
1.59452e-06
1.63155e-06
1.59023e-06
1.61805e-06
1.53792e-06
1.63981e-06
1.61538e-06
1.63188e-06
1.54892e-06
1.65186e-06
0.00161368
0.00164244
0.0016397
0.00163974
0.00136984
0.00161832
0.00161722
0.00154751
0.00158323
0.00078629
0.000545724
0.000500208
0.000929637
0.000795238
0.000559114
0.000497168
0.000930224
0.00146756
0.00147892
0.000526269
0.000425264
0.000248316
0.000243128
0.000535941
0.000413239
0.000257708
0.000236643
1.65186e-06
1.65186e-06
1.65105e-06
1.64798e-06
1.645e-06
1.64232e-06
1.64095e-06
1.6206e-06
1.62651e-06
1.64108e-06
1.63857e-06
1.61207e-06
1.60941e-06
1.54831e-06
1.56491e-06
1.58744e-06
1.55998e-06
1.54881e-06
1.54879e-06
1.60899e-06
1.57733e-06
1.58202e-06
1.54377e-06
1.53028e-06
1.57701e-06
1.54633e-06
1.48392e-06
1.59925e-06
1.59801e-06
1.64899e-06
1.55268e-06
1.56221e-06
1.53253e-06
1.46132e-06
1.566e-06
1.47656e-06
1.5883e-06
0.00162616
0.00164295
0.00165182
0.00162678
0.000733235
0.000837958
0.00114436
0.00095205
0.00136831
0.00138202
0.00100719
0.00126785
0.000710043
0.000489597
0.000313522
0.000751
0.000756633
0.000502242
0.00031374
0.000753208
0.00113234
0.00118626
0.00075113
0.000789965
0.00124445
0.00125972
0.000815648
0.000768977
0.000457632
0.000302279
0.000465955
0.000301848
1.65186e-06
1.65186e-06
1.64611e-06
1.64439e-06
1.63513e-06
1.59075e-06
1.59478e-06
1.61136e-06
1.61886e-06
1.61607e-06
1.61913e-06
1.55302e-06
1.51544e-06
1.57055e-06
1.5146e-06
1.54414e-06
1.5244e-06
1.55554e-06
1.52716e-06
1.60221e-06
1.57759e-06
1.61447e-06
1.47578e-06
1.59789e-06
1.59572e-06
1.62773e-06
1.55518e-06
0.0016212
0.00165182
0.0016461
0.00156358
0.000569
0.000471271
0.00135365
0.000966139
0.000872229
0.000904317
0.00114965
0.000888588
0.000914384
0.00097316
0.0010589
0.00104275
0.00100993
0.00100998
0.000876354
0.00118758
0.000312803
0.000576122
0.000379102
0.00045543
0.000287218
0.000500124
0.000424179
0.000415613
0.000293518
0.000517847
0.000600631
0.000605887
0.000683148
0.000638995
1.65186e-06
1.64875e-06
1.63947e-06
1.64163e-06
1.62524e-06
1.62869e-06
1.62905e-06
1.63206e-06
1.62132e-06
1.62017e-06
1.61004e-06
1.6056e-06
1.47693e-06
1.53596e-06
1.55639e-06
1.54769e-06
1.50763e-06
1.56034e-06
1.48851e-06
1.52518e-06
1.55376e-06
1.5257e-06
1.52627e-06
1.55272e-06
1.57234e-06
1.50876e-06
1.63677e-06
1.58929e-06
1.5854e-06
1.38365e-06
1.58912e-06
1.54582e-06
0.00163528
0.00165173
0.00163937
0.00158726
0.00158735
0.00157249
0.00157567
0.000695274
0.00044594
0.00141622
0.00127635
0.000733263
0.000514694
0.000168276
0.000560587
0.000438283
0.000544285
0.00092284
0.000624714
0.000719617
0.000788887
0.000587257
0.00114253
0.000350618
0.000216758
0.000287074
0.000163727
0.00035192
0.000194455
0.000361581
0.000201675
1.65186e-06
1.64943e-06
1.64059e-06
1.64382e-06
1.61629e-06
1.60925e-06
1.61648e-06
1.60871e-06
1.59401e-06
1.58257e-06
1.54149e-06
1.56613e-06
1.52337e-06
1.48736e-06
1.54623e-06
1.46818e-06
1.51411e-06
1.53143e-06
1.53498e-06
1.4963e-06
1.55872e-06
1.56175e-06
1.50923e-06
1.52204e-06
1.54517e-06
1.43156e-06
1.57956e-06
1.58552e-06
1.57105e-06
1.41081e-06
1.52658e-06
1.28642e-06
1.62281e-06
1.34294e-06
0.0016498
0.00165063
0.00164325
0.00160638
0.00161195
0.00162856
0.0016274
0.000599844
0.000289191
0.00140426
0.00146588
0.00125314
0.00151996
0.00035115
0.000201836
0.0012291
0.000684077
0.000793568
0.00106623
0.00151546
0.00150243
0.000130201
0.00027536
0.000351458
0.000808694
0.000333867
0.000218046
0.000264581
0.000188728
1.65186e-06
1.64842e-06
1.64871e-06
1.6461e-06
1.63399e-06
1.63479e-06
1.62488e-06
1.60859e-06
1.60163e-06
1.59475e-06
1.59261e-06
1.4878e-06
1.47641e-06
1.54754e-06
1.56596e-06
1.50412e-06
1.54646e-06
1.48482e-06
1.49982e-06
1.55026e-06
1.4787e-06
1.53963e-06
1.52154e-06
1.49382e-06
1.40377e-06
1.48074e-06
1.51943e-06
1.49034e-06
1.52501e-06
1.5533e-06
1.43027e-06
0.00165034
0.00165032
0.0016458
0.0016279
0.00162357
0.00163024
0.00163048
0.00106906
0.000810845
0.00148247
0.00150028
0.00153399
0.00151235
0.000429921
0.000440697
0.00144218
0.00125978
0.00145478
0.00150541
0.00156854
0.00152377
0.00150268
0.00152085
0.00154853
0.00149053
0.00147717
0.00152035
0.00064864
0.000640524
0.000272336
0.000256777
1.63615e-06
1.64961e-06
1.63736e-06
1.63345e-06
1.63808e-06
1.61719e-06
1.62215e-06
1.57237e-06
1.57502e-06
1.50087e-06
1.50441e-06
1.46914e-06
1.5244e-06
1.48448e-06
1.48178e-06
1.5009e-06
1.50812e-06
1.46774e-06
1.52482e-06
1.47793e-06
1.48217e-06
1.60506e-06
1.55755e-06
1.53336e-06
1.53922e-06
1.57347e-06
1.55512e-06
1.56379e-06
1.50568e-06
0.00164943
0.00164846
0.00164204
0.00163719
0.00163798
0.00164325
0.00162959
0.0016303
0.0016194
0.00157684
0.00153191
0.00161709
0.0015761
0.00153368
0.00137564
0.00152996
0.00151121
0.00131075
0.00152134
0.00146068
0.00100845
0.00134775
0.00151651
0.00129564
0.0015509
0.00146632
0.00154756
0.00151728
0.00151865
0.00156497
1.6164e-06
1.64742e-06
1.62784e-06
1.61899e-06
1.62736e-06
1.60239e-06
1.60541e-06
1.48245e-06
1.48283e-06
1.55426e-06
1.49602e-06
1.51188e-06
1.52251e-06
1.48876e-06
1.51144e-06
1.52086e-06
1.48894e-06
1.54997e-06
1.49655e-06
1.54135e-06
1.52984e-06
1.58947e-06
1.55639e-06
1.54178e-06
1.52661e-06
1.58234e-06
1.5505e-06
1.57423e-06
1.52848e-06
1.56729e-06
1.52297e-06
0.0016468
0.00165096
0.00162861
0.00164237
0.0016311
0.00164283
0.00163606
0.00163688
0.00157761
0.00159657
0.00155095
0.00158089
0.00152524
0.00154841
0.00155743
0.00155213
0.00160325
0.00157955
0.00156025
0.00159111
0.00154248
0.00154983
0.00156314
0.00154602
0.00149116
0.00147282
0.00152574
0.00145463
0.00159311
0.00154144
0.00160821
0.00157248
1.63146e-06
1.6475e-06
1.61677e-06
1.59097e-06
1.5948e-06
1.61598e-06
1.62405e-06
1.61511e-06
1.58219e-06
1.4995e-06
1.54299e-06
1.57527e-06
1.51018e-06
1.54078e-06
1.5976e-06
1.60966e-06
1.5644e-06
1.55512e-06
1.58732e-06
1.55617e-06
1.59033e-06
1.53068e-06
1.57621e-06
1.55517e-06
1.6007e-06
1.56723e-06
1.57686e-06
1.55785e-06
1.59936e-06
1.55473e-06
0.00164969
0.00164734
0.00162112
0.00154308
0.00155757
0.00161245
0.00162118
0.00154713
0.00155985
0.00161558
0.0016284
0.00163137
0.00160648
0.00157669
0.00162801
0.00150167
0.00160576
0.00158748
0.00160637
0.00159328
0.00157845
0.00150337
0.00161043
0.00158914
0.00163762
0.00163957
0.00160687
0.00141329
1.65189e-06
1.64291e-06
1.58538e-06
1.61774e-06
1.62223e-06
1.62826e-06
1.5953e-06
1.61542e-06
1.50063e-06
1.52478e-06
1.56931e-06
1.47336e-06
1.56143e-06
1.53882e-06
1.44067e-06
1.5084e-06
1.50719e-06
1.47249e-06
1.58052e-06
1.47589e-06
1.57865e-06
1.5237e-06
1.45552e-06
1.50709e-06
1.57777e-06
1.58139e-06
1.53686e-06
1.5488e-06
1.59602e-06
1.55695e-06
1.60914e-06
1.5693e-06
0.00164891
0.00162877
0.00163585
0.00163306
0.00163655
0.00162949
0.00163466
0.00151987
0.00156199
0.0015617
0.00158889
0.00155482
0.00155688
0.00152437
0.00157079
0.00161151
0.00153043
0.00155197
0.00152885
0.00156402
0.00156313
0.00158662
0.00155903
0.00155445
0.0015305
0.00157269
0.0016122
0.00153821
0.00156447
0.00154168
0.00158718
0.00162704
0.00158486
0.00155203
0.00158798
0.00162829
0.00158423
1.64394e-06
1.63321e-06
1.58529e-06
1.58275e-06
1.5453e-06
1.52276e-06
1.58866e-06
1.54475e-06
1.51994e-06
1.61344e-06
1.5986e-06
1.60692e-06
1.53985e-06
1.58533e-06
1.53978e-06
1.52289e-06
1.48532e-06
1.57807e-06
1.55046e-06
1.61347e-06
1.54256e-06
1.48886e-06
1.52883e-06
1.60112e-06
1.44519e-06
1.58543e-06
1.46989e-06
1.57714e-06
0.00164285
0.00162303
0.00163727
0.00162504
0.00164058
0.0016419
0.00164639
0.00151771
0.00155235
0.00159655
0.00162329
0.00158414
0.00157958
0.00154932
0.00155791
0.00157716
0.00154885
0.00157416
0.00157375
0.00152815
0.00154135
0.00151893
0.00156934
0.00162181
0.00159489
0.00158595
0.00158129
0.00154955
0.00154088
0.00157944
0.0015515