/*--------------------------------*- C++ -*----------------------------------*\
| =========                 |                                                 |
| \\      /  F ield         | OpenFOAM: The Open Source CFD Toolbox           |
|  \\    /   O peration     | Version:  5.x                                   |
|   \\  /    A nd           | Web:      www.OpenFOAM.org                      |
|    \\/     M anipulation  |                                                 |
\*---------------------------------------------------------------------------*/
FoamFile
{
    version     2.0;
    format      ascii;
    class       volVectorField;
    location    "0.6";
    object      U;
}
// * * * * * * * * * * * * * * * * * * * * * * * * * * * * * * * * * * * * * //

dimensions      [0 1 -1 0 0 0 0];

internalField   nonuniform List<vector> 
12160
(
(0.210349 0 0.00217053)
(0.228812 0 0.00325183)
(0.209789 0 -0.00117394)
(0.206395 0 0.00387108)
(0.228006 0 0.0010953)
(0.208995 0 0.00447752)
(0.201606 0 0.00354332)
(0.206097 0 0.0050049)
(0.227741 0 0.00886774)
(0.206459 0 0.000428769)
(0.179149 0 0.00419251)
(0.201888 0 0.00737412)
(0.207463 0 0.0137972)
(0.223706 0 0.00317993)
(0.204242 0 0.0111324)
(0.164177 0 0.00460649)
(0.179667 0 0.0107295)
(0.203762 0 0.0156941)
(0.205457 0 0.0107382)
(0.222327 0 0.0142425)
(0.197638 0 0.00656306)
(0.14004 0 0.00492117)
(0.164578 0 0.0128167)
(0.18118 0 0.0201703)
(0.204049 0 0.0169893)
(0.207987 0 0.0210003)
(0.211917 0 0.00149344)
(0.194884 0 0.0290433)
(0.119924 0 0.00485288)
(0.140212 0 0.0141255)
(0.165542 0 0.0228724)
(0.182262 0 0.0245431)
(0.208554 0 0.0277618)
(0.203639 0 0.0116682)
(0.209559 0 0.0159338)
(0.178959 0 0.0240364)
(0.0993131 0 0.00453372)
(0.1198 0 0.0140395)
(0.140575 0 0.024563)
(0.166314 0 0.0298592)
(0.186501 0 0.0369139)
(0.209009 0 0.0252644)
(0.208971 0 0.0197581)
(0.182153 0 -0.00873103)
(0.120993 0 0.0654108)
(0.0811263 0 0.00403624)
(0.0989962 0 0.0131751)
(0.119508 0 0.0241306)
(0.140731 0 0.0330702)
(0.169 0 0.043442)
(0.188273 0 0.0380277)
(0.216796 0 0.0356203)
(0.199257 0 0.00342859)
(0.172643 0 0.00638238)
(-0.291358 0 -0.0956923)
(0.0653195 0 0.00347678)
(0.0806899 0 0.0118102)
(0.0982952 0 0.0224565)
(0.118842 0 0.0329102)
(0.141876 0 0.0468276)
(0.170167 0 0.047756)
(0.194729 0 0.0528755)
(0.219453 0 0.0328219)
(0.229902 0 0.00756238)
(0.0797295 0 -0.0643911)
(-0.0544797 0 0.139784)
(0.05205 0 0.00292604)
(0.0648369 0 0.0102288)
(0.0797526 0 0.0199866)
(0.0971032 0 0.030782)
(0.118465 0 0.0458409)
(0.141625 0 0.0524231)
(0.174248 0 0.0673268)
(0.200989 0 0.0565827)
(0.274578 0 0.0417001)
(0.291135 0 -0.0381234)
(0.113485 0 -0.220363)
(0.106346 0 -0.0896235)
(0.0411333 0 0.00242047)
(0.0515724 0 0.00864113)
(0.0638209 0 0.0172166)
(0.0782638 0 0.0274521)
(0.0958055 0 0.0423063)
(0.116686 0 0.0514132)
(0.142895 0 0.0736653)
(0.178428 0 0.07194)
(0.267078 0 0.0711559)
(0.432302 0 0.0157219)
(0.123639 0 -0.14057)
(0.0717341 0 -0.163222)
(0.0394444 0 0.0283141)
(0.0322959 0 0.00197732)
(0.0406905 0 0.007167)
(0.0505803 0 0.0144841)
(0.0622481 0 0.0236673)
(0.076461 0 0.0373454)
(0.0931381 0 0.0471681)
(0.115628 0 0.0722546)
(0.143767 0 0.0759697)
(0.253292 0 0.0906142)
(0.471346 0 0.0655079)
(0.333052 0 -0.0472169)
(-0.0252749 0 -0.120214)
(0.00477075 0 -0.137603)
(0.0367116 0 -0.0678856)
(0.0252229 0 0.0016013)
(0.0319032 0 0.00586566)
(0.03978 0 0.011974)
(0.0490642 0 0.0199148)
(0.0602766 0 0.0319424)
(0.0733991 0 0.0413098)
(0.0908416 0 0.0664737)
(0.113585 0 0.0707302)
(0.223328 0 0.0970741)
(0.477355 0 0.0988924)
(0.402478 0 0.0390243)
(-0.0327771 0 -0.094137)
(-0.0367021 0 -0.107577)
(0.0192348 0 -0.129791)
(0.00667762 0 -0.0406496)
(0.0196038 0 0.00128988)
(0.0248852 0 0.00475622)
(0.0311014 0 0.00977384)
(0.0383986 0 0.0164618)
(0.0471346 0 0.0267032)
(0.057194 0 0.0350638)
(0.070607 0 0.0584933)
(0.0870176 0 0.0616711)
(0.200055 0 0.0929543)
(0.455523 0 0.107709)
(0.382371 0 0.101934)
(-0.0277647 0 0.0403577)
(-0.0606952 0 -0.0612066)
(-0.0194362 0 -0.091565)
(-0.000820895 0 -0.119965)
(0.0151589 0 0.0010369)
(0.01932 0 0.00383443)
(0.0241993 0 0.00790783)
(0.0298905 0 0.0134332)
(0.0366271 0 0.0219515)
(0.0442528 0 0.0291152)
(0.0543706 0 0.0499273)
(0.0658603 0 0.0515066)
(0.179669 0 0.0839104)
(0.415847 0 0.103113)
(0.283762 0 0.140587)
(-0.0116353 0 0.138262)
(-0.0762714 0 0.0319906)
(-0.0412682 0 -0.0583754)
(-0.00676838 0 -0.0871502)
(0.0116434 0 0.000834679)
(0.014925 0 0.00308422)
(0.0187464 0 0.00636348)
(0.0231671 0 0.0108643)
(0.0283309 0 0.0178269)
(0.0340588 0 0.0238015)
(0.0416365 0 0.0416657)
(0.0493634 0 0.0419434)
(0.163994 0 0.0726987)
(0.366386 0 0.0908801)
(0.17852 0 0.143755)
(0.00722547 0 0.169804)
(-0.0487871 0 0.110176)
(-0.0503359 0 0.032953)
(-0.0126142 0 -0.0511533)
(0.00885375 0 0.00067612)
(0.0114544 0 0.00248401)
(0.0144545 0 0.00511041)
(0.0178855 0 0.00873851)
(0.0218344 0 0.0143563)
(0.0261169 0 0.0192449)
(0.0317535 0 0.0341953)
(0.0367853 0 0.0335889)
(0.151605 0 0.0613206)
(0.303233 0 0.0781162)
(0.114395 0 0.137169)
(0.025317 0 0.153901)
(-0.0160245 0 0.147823)
(-0.0322858 0 0.101591)
(-0.0162535 0 0.0310216)
(0.00662048 0 0.000554502)
(0.00870446 0 0.00201333)
(0.0110757 0 0.00411054)
(0.0137497 0 0.00701404)
(0.0167724 0 0.0115026)
(0.0199723 0 0.0154469)
(0.0241496 0 0.0277208)
(0.027312 0 0.026615)
(0.141859 0 0.0506818)
(0.236918 0 0.0659821)
(0.0779039 0 0.123422)
(0.0298218 0 0.132378)
(0.00779578 0 0.145231)
(-0.0101792 0 0.136764)
(-0.009964 0 0.0944917)
(0.00480211 0 0.000464471)
(0.00650552 0 0.00165204)
(0.00840551 0 0.00332782)
(0.0105088 0 0.00563862)
(0.0128375 0 0.00919984)
(0.0152365 0 0.0123464)
(0.0183303 0 0.0222796)
(0.0202434 0 0.0209512)
(0.134086 0 0.0412557)
(0.173683 0 0.055041)
(0.0564461 0 0.107128)
(0.0303205 0 0.113424)
(0.016928 0 0.131661)
(0.00492361 0 0.139138)
(-0.00274784 0 0.129783)
(0.0032839 0 0.00040113)
(0.00471684 0 0.00138445)
(0.00627528 0 0.00272806)
(0.00795828 0 0.00456242)
(0.00977473 0 0.00737189)
(0.0115916 0 0.00985784)
(0.0138892 0 0.0178116)
(0.0149975 0 0.0164357)
(0.127771 0 0.0332007)
(0.122011 0 0.0451154)
(0.0433086 0 0.0881578)
(0.0294151 0 0.0962632)
(0.0203047 0 0.115352)
(0.0108633 0 0.129529)
(0.00224241 0 0.135074)
(0.00196892 0 0.000361309)
(0.00322482 0 0.00119666)
(0.00454631 0 0.00228411)
(0.00593139 0 0.00373818)
(0.00737907 0 0.00594684)
(0.00878002 0 0.00789021)
(0.0105017 0 0.0142119)
(0.0111127 0 0.0128816)
(0.122405 0 0.0265124)
(0.0821938 0 0.036673)
(0.034434 0 0.0693301)
(0.0278901 0 0.0801304)
(0.0207522 0 0.0986593)
(0.0130418 0 0.11482)
(0.00416669 0 0.127931)
(0.000776265 0 0.000342239)
(0.00193399 0 0.00107803)
(0.00310727 0 0.00197225)
(0.00429231 0 0.00312804)
(0.00548598 0 0.00485896)
(0.00659919 0 0.00636059)
(0.00791117 0 0.01136)
(0.00823463 0 0.010113)
(0.117524 0 0.0210734)
(0.0548329 0 0.0296144)
(0.0284179 0 0.052534)
(0.0253567 0 0.0650966)
(0.0199507 0 0.082188)
(0.0131646 0 0.0988198)
(0.00482016 0 0.114386)
(-0.000363099 0 0.000342191)
(0.000764466 0 0.00102058)
(0.00186496 0 0.00177515)
(0.0029328 0 0.00269939)
(0.00396345 0 0.004055)
(0.00488947 0 0.00519513)
(0.0059183 0 0.00914079)
(0.0060941 0 0.00797676)
(0.112672 0 0.0167275)
(0.0370079 0 0.0241753)
(0.0229705 0 0.038979)
(0.0219233 0 0.0519686)
(0.0181351 0 0.0667492)
(0.0124732 0 0.0827662)
(0.00474317 0 0.0989253)
(-0.00151139 0 0.000360294)
(-0.000352133 0 0.00101999)
(0.000741329 0 0.00167957)
(0.00176279 0 0.00242831)
(0.00270699 0 0.00349066)
(0.00352463 0 0.00433488)
(0.00436859 0 0.00744947)
(0.00449082 0 0.00634749)
(0.107322 0 0.0133088)
(0.025311 0 0.0203547)
(0.0177458 0 0.029007)
(0.0180216 0 0.0410601)
(0.0156313 0 0.0531615)
(0.0112141 0 0.0676765)
(0.00440149 0 0.08316)
(-0.00272814 0 0.000396778)
(-0.00147747 0 0.00107383)
(-0.000330388 0 0.00167825)
(0.000707221 0 0.00229684)
(0.00163063 0 0.00313334)
(0.0024062 0 0.00373148)
(0.00314161 0 0.00620067)
(0.00327594 0 0.0051243)
(0.100802 0 0.0106711)
(0.0174286 0 0.0181896)
(0.0129727 0 0.0220972)
(0.0141104 0 0.0325586)
(0.012835 0 0.0418838)
(0.00961377 0 0.0543948)
(0.00389558 0 0.0682598)
(-0.00406834 0 0.000452612)
(-0.00267047 0 0.00118258)
(-0.00141052 0 0.00176705)
(-0.000298257 0 0.0022951)
(0.000663125 0 0.00295906)
(0.00145398 0 0.00334944)
(0.00214395 0 0.0053247)
(0.00233795 0 0.00423048)
(0.0922989 0 0.0086894)
(0.0118649 0 0.0175812)
(0.00882842 0 0.0175089)
(0.0105052 0 0.0263263)
(0.0100485 0 0.0330219)
(0.00788049 0 0.04334)
(0.00330543 0 0.0550615)
(-0.00558875 0 0.000528477)
(-0.00398559 0 0.00134777)
(-0.00255646 0 0.0019467)
(-0.00131154 0 0.00241732)
(-0.000256485 0 0.0029543)
(0.000602284 0 0.00316337)
(0.00130079 0 0.00476873)
(0.00159277 0 0.00360687)
(0.0807654 0 0.00724939)
(0.00779595 0 0.0183585)
(0.00525226 0 0.0145195)
(0.0073362 0 0.0221142)
(0.00747892 0 0.0263991)
(0.006178 0 0.0346148)
(0.00269336 0 0.0439842)
(-0.00734559 0 0.000625644)
(-0.00547861 0 0.00157285)
(-0.00382107 0 0.00222008)
(-0.00238741 0 0.00266436)
(-0.00118293 0 0.00311166)
(-0.000204879 0 0.00315901)
(0.000551534 0 0.00449653)
(0.000976115 0 0.00321173)
(0.0652646 0 0.00631727)
(0.00484409 0 0.0199496)
(0.00226679 0 0.0127401)
(0.00465008 0 0.0195795)
(0.00523247 0 0.0217229)
(0.00461639 0 0.0280484)
(0.00210254 0 0.035161)
(-0.0093964 0 0.00074563)
(-0.00720487 0 0.00186161)
(-0.00525849 0 0.00259233)
(-0.00357659 0 0.00303998)
(-0.0021677 0 0.00343182)
(-0.00101756 0 0.00332872)
(-0.000155499 0 0.00448595)
(0.000437689 0 0.00301679)
(0.0454245 0 0.00586019)
(0.0028467 0 0.0229952)
(-5.3908e-05 0 0.0120242)
(0.00247543 0 0.0185532)
(0.00329691 0 0.0186704)
(0.00324907 0 0.0233939)
(0.00156459 0 0.0284756)
(-0.0117998 0 0.000890145)
(-0.00922133 0 0.0022183)
(-0.00692268 0 0.00306995)
(-0.00493095 0 0.00355127)
(-0.00325866 0 0.00391995)
(-0.00188256 0 0.00367279)
(-0.000866716 0 0.00472626)
(-6.49277e-05 0 0.00300533)
(0.0219674 0 0.00569511)
(0.00147604 0 0.0264936)
(-0.00151388 0 0.0119437)
(0.000825124 0 0.0186277)
(0.00171783 0 0.0169266)
(0.00207766 0 0.0203263)
(0.00109829 0 0.0236941)
(-0.0146158 0 0.00106095)
(-0.0115865 0 0.0026479)
(-0.00886979 0 0.00366066)
(-0.00650279 0 0.00420757)
(-0.00450483 0 0.00458595)
(-0.00284366 0 0.00419654)
(-0.00162522 0 0.00521717)
(-0.000569045 0 0.00316958)
(-0.00314441 0 0.00569616)
(0.000543858 0 0.0292213)
(-0.00188196 0 0.0122327)
(-0.000217177 0 0.0195961)
(0.000512083 0 0.0161801)
(0.00111563 0 0.0186181)
(0.000703365 0 0.02052)
(-0.0179059 0 0.00125999)
(-0.0143608 0 0.00315564)
(-0.0111582 0 0.00437332)
(-0.00834707 0 0.00501992)
(-0.00595639 0 0.00544313)
(-0.00394603 0 0.00491074)
(-0.00247119 0 0.00596668)
(-0.00110952 0 0.00350982)
(-0.0273374 0 0.00587101)
(-0.000226889 0 0.0300438)
(-0.0012727 0 0.0125543)
(-0.000628492 0 0.0209003)
(-0.000252113 0 0.0161445)
(0.000387149 0 0.0179174)
(0.000387685 0 0.0186787)
(-0.0217324 0 0.00148882)
(-0.0176064 0 0.00374669)
(-0.0138487 0 0.0052172)
(-0.0105216 0 0.00600097)
(-0.00766676 0 0.00650752)
(-0.00523668 0 0.00583041)
(-0.00344613 0 0.00699074)
(-0.001719 0 0.00403333)
(-0.0484667 0 0.00624752)
(-0.00109575 0 0.0287172)
(-9.85377e-05 0 0.0127077)
(-0.000546427 0 0.0219886)
(-0.00053698 0 0.0164455)
(-7.03134e-05 0 0.0179631)
(0.000148235 0 0.0178402)
(-0.0261566 0 0.00174834)
(-0.0213864 0 0.00442499)
(-0.0170041 0 0.0062013)
(-0.0130871 0 0.00716376)
(-0.00969292 0 0.00779726)
(-0.00676651 0 0.00697356)
(-0.00459424 0 0.00831246)
(-0.00243162 0 0.00475361)
(-0.0654857 0 0.00696987)
(-0.00226832 0 0.0259303)
(0.000925864 0 0.0126653)
(-0.000206837 0 0.0223651)
(-0.00043663 0 0.0167991)
(-0.000254793 0 0.0183413)
(-7.52832e-06 0 0.0177281)
(-0.0312388 0 0.00203863)
(-0.0257629 0 0.00519274)
(-0.0206884 0 0.00733275)
(-0.0161068 0 0.0085208)
(-0.0120953 0 0.00933119)
(-0.00859059 0 0.00836091)
(-0.00596396 0 0.00995812)
(-0.00328615 0 0.00569102)
(-0.0784605 0 0.00810082)
(-0.00390568 0 0.0228517)
(0.00121262 0 0.0125468)
(4.62512e-05 0 0.0219604)
(-0.000123397 0 0.0169891)
(-0.000230372 0 0.0187578)
(-7.37433e-05 0 0.0179576)
(-0.0370261 0 0.00235872)
(-0.0307972 0 0.00604911)
(-0.0249652 0 0.00861591)
(-0.0196464 0 0.010082)
(-0.0149381 0 0.0111276)
(-0.0107682 0 0.0100143)
(-0.00760816 0 0.011957)
(-0.00432771 0 0.00687129)
(-0.0880998 0 0.00961272)
(-0.00611474 0 0.0205893)
(0.000521029 0 0.0125577)
(-7.48514e-05 0 0.0210328)
(0.000125376 0 0.0169852)
(-9.63638e-05 0 0.0189582)
(-7.19587e-05 0 0.0182685)
(-0.0435804 0 0.00270624)
(-0.0365379 0 0.00699005)
(-0.029898 0 0.0100505)
(-0.0237718 0 0.0118536)
(-0.0182886 0 0.0132018)
(-0.0133636 0 0.0119556)
(-0.00958458 0 0.0143394)
(-0.00560646 0 0.00832446)
(-0.0953313 0 0.0115228)
(-0.0090607 0 0.0193488)
(-0.00110692 0 0.0129569)
(-0.000718342 0 0.0200975)
(8.6901e-05 0 0.0169141)
(3.1795e-06 0 0.01891)
(-3.29125e-05 0 0.0184514)
(-0.050841 0 0.00307782)
(-0.0430491 0 0.00800707)
(-0.035539 0 0.0116312)
(-0.0285499 0 0.0138355)
(-0.022216 0 0.0155647)
(-0.0164455 0 0.0142044)
(-0.0119565 0 0.0171342)
(-0.00717958 0 0.010085)
(-0.10095 0 0.013872)
(-0.0128081 0 0.0188837)
(-0.00343092 0 0.0139768)
(-0.00190255 0 0.0195964)
(-0.000362393 0 0.017008)
(-5.45566e-05 0 0.0187458)
(-5.99602e-06 0 0.0184798)
(-0.0502722 0 0.00908864)
(-0.0647081 0 0.00372652)
(-0.0419559 0 0.0133453)
(-0.0340383 0 0.0160205)
(-0.0267923 0 0.0182197)
(-0.0200865 0 0.0167764)
(-0.0147929 0 0.0203659)
(-0.00911282 0 0.0121909)
(-0.105537 0 0.0166946)
(-0.0174508 0 0.0194275)
(-0.00622997 0 0.0158013)
(-0.00354822 0 0.019873)
(-0.00123269 0 0.0174998)
(-0.000339754 0 0.0187214)
(-3.07496e-05 0 0.0184634)
(-0.0490954 0 0.0151748)
(-0.0641005 0 0.0109583)
(-0.0871978 0 0.00468618)
(-0.0403113 0 0.0183912)
(-0.0320825 0 0.0211613)
(-0.0243639 0 0.0196802)
(-0.0181681 0 0.024052)
(-0.0114807 0 0.0146824)
(-0.109517 0 0.0200256)
(-0.0233624 0 0.0209997)
(-0.00944268 0 0.0184672)
(-0.00557387 0 0.0210515)
(-0.00244843 0 0.0186152)
(-0.000862684 0 0.0191116)
(-0.00012736 0 0.0186238)
(-0.0473226 0 0.0209229)
(-0.0628243 0 0.0183529)
(-0.0866037 0 0.0136691)
(-0.112809 0 0.00553601)
(-0.0381689 0 0.0243695)
(-0.029352 0 0.0229162)
(-0.0221625 0 0.0281985)
(-0.0143672 0 0.0176007)
(-0.113191 0 0.0238996)
(-0.0310791 0 0.0235864)
(-0.0130192 0 0.0220443)
(-0.00794908 0 0.0232437)
(-0.00394627 0 0.0204875)
(-0.00158795 0 0.0201475)
(-0.000300143 0 0.0191935)
(-0.0450196 0 0.0278139)
(-0.0608948 0 0.0253119)
(-0.0853023 0 0.0230278)
(-0.112375 0 0.0159792)
(-0.139393 0 0.0060377)
(-0.035145 0 0.0264697)
(-0.0268569 0 0.0327982)
(-0.0178663 0 0.0209854)
(-0.116781 0 0.0283457)
(-0.0412386 0 0.0271246)
(-0.0169059 0 0.0267958)
(-0.0106185 0 0.0265517)
(-0.00568491 0 0.0232392)
(-0.00248062 0 0.0219801)
(-0.000543579 0 0.0203903)
(-0.0417325 0 0.0303174)
(-0.0584011 0 0.0338079)
(-0.0833183 0 0.0317655)
(-0.111265 0 0.0271465)
(-0.139515 0 0.017463)
(-0.165369 0 0.00553562)
(-0.0323508 0 0.0378209)
(-0.0220796 0 0.0248728)
(-0.120459 0 0.0333824)
(-0.054692 0 0.0315493)
(-0.0210548 0 0.0329924)
(-0.0135327 0 0.0309898)
(-0.00761709 0 0.0269793)
(-0.0035105 0 0.0247378)
(-0.000848167 0 0.0223575)
(-0.03866 0 0.0432373)
(-0.054747 0 0.0370536)
(-0.0807837 0 0.0427826)
(-0.109527 0 0.0374283)
(-0.13884 0 0.0300802)
(-0.167155 0 0.0172423)
(-0.186214 0 0.00200828)
(-0.0271191 0 0.0292885)
(-0.124359 0 0.0390131)
(-0.0723309 0 0.0368012)
(-0.0253966 0 0.0408459)
(-0.0166345 0 0.0366183)
(-0.00971093 0 0.0317834)
(-0.00467366 0 0.0284865)
(-0.00120618 0 0.0252283)
(-0.0331233 0 0.0342837)
(-0.0512721 0 0.0525016)
(-0.076857 0 0.0473214)
(-0.10737 0 0.0508952)
(-0.137647 0 0.0414527)
(-0.166931 0 0.0314101)
(-0.194683 0 0.0133243)
(-0.181742 0 -0.00974597)
(-0.128588 0 0.0452314)
(-0.0951368 0 0.0426775)
(-0.0297144 0 0.0505286)
(-0.019837 0 0.043455)
(-0.0119192 0 0.0377091)
(-0.00593827 0 0.0333037)
(-0.00160524 0 0.0290847)
(-0.133304 0 0.0521447)
(-0.0453893 0 0.0432632)
(-0.0730466 0 0.0664003)
(-0.103671 0 0.0567585)
(-0.136237 0 0.0570244)
(-0.166505 0 0.0434314)
(-0.194222 0 0.0313231)
(-0.226601 0 -0.000878955)
(-0.206801 0 -0.0407126)
(-0.123642 0 0.0490781)
(-0.0339709 0 0.06207)
(-0.0229539 0 0.0514937)
(-0.0141839 0 0.0447579)
(-0.00729176 0 0.0392089)
(-0.00203506 0 0.0339965)
(-0.155673 0 0.0597485)
(-0.144615 0 0.0636119)
(-0.0671474 0 0.0582585)
(-0.100074 0 0.0788833)
(-0.133211 0 0.0638701)
(-0.165923 0 0.0607412)
(-0.195288 0 0.0435879)
(-0.221883 0 0.0290963)
(-0.289922 0 -0.046883)
(0.0297928 0 0.0566)
(-0.0387743 0 0.0755036)
(-0.0258086 0 0.060581)
(-0.0163572 0 0.0529326)
(-0.00868154 0 0.0462148)
(-0.00249019 0 0.0399656)
(-0.0428398 0 0.0894834)
(-0.227658 0 0.0676811)
(-0.158847 0 0.0813908)
(-0.0951375 0 0.0737113)
(-0.13042 0 0.088066)
(-0.163626 0 0.0678903)
(-0.195043 0 0.0627769)
(-0.226178 0 0.0418247)
(-0.282325 0 0.0230955)
(-0.303039 0 0.0182968)
(-0.38568 0 0.219285)
(-0.0279726 0 0.0706766)
(-0.0183208 0 0.0620977)
(-0.010023 0 0.0542665)
(-0.00296272 0 0.047012)
(-0.0287591 0 0.0816834)
(-0.0529037 0 0.10748)
(-0.306756 0 0.0870959)
(-0.17788 0 0.0978906)
(-0.127278 0 0.086882)
(-0.16184 0 0.0929893)
(-0.192683 0 0.0694522)
(-0.224189 0 0.0656075)
(-0.27224 0 0.0403309)
(-0.319891 0 0.0759658)
(-0.409578 0 0.0586167)
(-0.221019 0 0.915359)
(-0.0197863 0 0.0721191)
(-0.0112425 0 0.0632131)
(-0.00341803 0 0.0550394)
(-0.0204878 0 0.0825147)
(-0.0291372 0 0.0972403)
(-0.0784714 0 0.127212)
(-0.365856 0 0.105175)
(-0.19949 0 0.110326)
(-0.160861 0 0.0951962)
(-0.1909 0 0.0940955)
(-0.219005 0 0.0712885)
(-0.257286 0 0.0762982)
(-0.3111 0 0.0906416)
(-0.434759 0 0.201641)
(-0.308677 0 0.751529)
(-0.152148 -9.9373e-29 0.796067)
(-0.0488531 0 0.910701)
(-0.0121798 0 0.0728696)
(-0.00384331 0 0.0638963)
(-0.0127534 0 0.0827957)
(-0.0207726 0 0.0987705)
(-0.0298047 0 0.119355)
(-0.123028 0 0.140536)
(-0.393553 0 0.119423)
(-0.221402 0 0.116809)
(-0.191935 0 0.0973746)
(-0.21435 0 0.0942586)
(-0.242706 0 0.0796616)
(-0.279659 0 0.118893)
(-0.382729 0 0.177407)
(-0.360434 0 0.595265)
(-0.171105 6.52092e-28 0.718718)
(-0.0464786 -1.5072e-32 0.776418)
(-0.080107 -8.40134e-28 0.826132)
(-0.0329102 0 0.845634)
(-0.00418891 0 0.0733711)
(-0.00443487 0 0.0830652)
(-0.0131694 0 0.0988828)
(-0.0200516 0 0.120262)
(-0.0287611 0 0.141152)
(-0.197874 0 0.139202)
(-0.402164 0 0.124999)
(-0.240159 0 0.116934)
(-0.21637 0 0.0947816)
(-0.228355 0 0.098842)
(-0.25051 0 0.109833)
(-0.293318 0 0.186983)
(-0.313318 0 0.447309)
(-0.144289 0 0.588355)
(-0.0484244 0 0.696271)
(0.00814518 -1.38072e-27 0.795147)
(-0.0481662 1.31409e-30 0.814715)
(-0.0613798 -1.27093e-27 0.825258)
(-0.0190287 0 0.823438)
(-0.00468417 0 0.0989514)
(-0.012924 0 0.119896)
(-0.0160089 0 0.138685)
(-0.0231516 0 0.161764)
(-0.293853 0 0.129972)
(-0.400152 0 0.120442)
(-0.249469 0 0.111918)
(-0.22625 0 0.0918207)
(-0.224801 0 0.115524)
(-0.240052 0 0.157098)
(-0.237874 0 0.345264)
(-0.110501 0 0.446558)
(-0.0425627 0 0.586599)
(0.0359062 9.91508e-27 0.72603)
(0.104622 5.1513e-31 0.846651)
(-0.0163758 -6.17818e-27 0.8461)
(-0.0564552 0 0.829341)
(-0.0594356 0 0.811305)
(-0.02553 0 0.768234)
(-0.00475297 0 0.119474)
(-0.0104197 0 0.136702)
(-0.00588521 0 0.150987)
(-0.0116652 0 0.171303)
(-0.364681 0 0.109484)
(-0.384108 0 0.105797)
(-0.247516 0 0.104092)
(-0.218485 0 0.0952368)
(-0.202907 0 0.14491)
(-0.177111 0 0.246749)
(-0.0892422 0 0.348169)
(-0.0230368 -3.42448e-27 0.476213)
(0.0663088 1.32153e-26 0.634322)
(0.157304 0 0.761711)
(0.157104 2.45682e-25 0.911227)
(0.0436375 1.85894e-30 0.887872)
(-0.0515751 -3.24325e-26 0.866913)
(-0.0819873 0 0.821619)
(-0.0646884 0 0.775089)
(-0.0234519 0 0.737856)
(-0.00400914 0 0.135089)
(-0.00391673 0 0.145742)
(0.0126728 0 0.149541)
(-0.00579478 0 0.149807)
(-0.389691 0 0.0800421)
(-0.353631 0 0.0841157)
(-0.227493 0 0.0973462)
(-0.186897 0 0.100119)
(-0.143259 0 0.192386)
(-0.0744457 0 0.249131)
(-0.000494498 -6.92441e-27 0.392138)
(0.0923064 0 0.50777)
(0.215037 -1.65048e-25 0.644341)
(0.244881 -4.94872e-25 0.831896)
(0.272862 -6.11628e-12 0.964896)
(0.0538386 0 0.960232)
(-0.0350792 0 0.923189)
(-0.0933052 -5.77921e-26 0.857366)
(-0.103011 7.64344e-27 0.795305)
(-0.0741913 0 0.742281)
(-0.0299383 0 0.680399)
(-0.00185536 0 0.142158)
(0.00813686 0 0.141277)
(0.0364209 0 0.126987)
(-4.39922e-05 0 0.0997924)
(-0.376288 0 0.0449848)
(-0.304983 0 0.0609548)
(-0.189865 0 0.0911126)
(-0.127968 0 0.114195)
(-0.0631858 0 0.19073)
(0.0174918 -2.14529e-42 0.285816)
(0.110909 0 0.396292)
(0.256474 2.97369e-25 0.52027)
(0.299282 -1.47442e-24 0.738407)
(0.420681 -1.52374e-09 0.86217)
(0.0937036 6.18704e-09 0.338891)
(0.141328 2.39533e-10 0.934096)
(0.108638 4.41437e-09 0.314232)
(0.376387 5.52392e-09 0.450846)
(0.429062 2.08877e-09 0.473436)
(-0.0286042 3.78179e-25 0.978006)
(-0.121842 1.27861e-25 0.922195)
(-0.137456 -3.30058e-26 0.826084)
(-0.120376 1.66514e-26 0.756713)
(-0.087987 0 0.690978)
(-0.0328103 0 0.628301)
(0.00219561 0 0.135665)
(0.0244743 0 0.118055)
(0.0587796 0 0.0843431)
(0.0134236 0 0.0372409)
(-0.322955 0 0.00940551)
(-0.242673 0 0.0366827)
(-0.134286 0 0.0885541)
(-0.0593156 0 0.106666)
(0.0243838 -1.86654e-42 0.211671)
(0.12264 0 0.271865)
(0.269173 0 0.426592)
(0.336976 1.73427e-24 0.581664)
(0.533688 -1.27997e-24 0.741726)
(0.380487 -1.42608e-10 0.488009)
(-0.00719708 1.16276e-08 0.441369)
(0.295503 -8.94378e-09 0.129139)
(-0.0515063 -4.52153e-10 0.89626)
(-0.0393302 1.0214e-08 0.37704)
(-0.0125612 1.21663e-08 0.529426)
(-0.0418559 1.05131e-08 0.507119)
(0.12586 -1.12571e-08 -0.0364503)
(0.296022 -8.96574e-09 0.274356)
(0.212807 -1.12453e-08 0.258038)
(-0.152529 1.42099e-24 0.971249)
(-0.197487 -1.9802e-25 0.882946)
(-0.165325 0 0.78734)
(-0.145502 8.66139e-27 0.712529)
(-0.0997183 0 0.635968)
(-0.0365852 0 0.563889)
(0.00762351 0 0.111186)
(0.0402336 0 0.0762738)
(0.0763341 0 0.0295705)
(0.0401199 0 -0.0316426)
(-0.234094 0 -0.0251417)
(-0.169536 0 0.0136149)
(-0.0728843 0 0.0775658)
(0.0215547 -4.46221e-27 0.107184)
(0.123505 4.31329e-27 0.189572)
(0.263466 1.12893e-25 0.305495)
(0.365598 0 0.421983)
(0.607352 4.74349e-25 0.605333)
(0.494372 -3.98602e-09 0.537746)
(0.220713 -9.81336e-09 -0.189712)
(0.216621 -1.1386e-08 -0.192414)
(0.403256 -2.70117e-09 -0.0743309)
(0.414035 -2.86143e-09 -0.0785578)
(0.297166 1.38918e-10 0.136158)
(-0.178302 -1.68887e-08 -0.528516)
(-0.116747 6.27154e-25 0.867073)
(-0.134348 -2.3568e-10 0.107873)
(0.160418 -1.25696e-09 -0.0433794)
(0.249974 7.8922e-09 -0.0458048)
(0.164755 8.40315e-09 -0.216445)
(-0.202718 -1.93638e-08 -0.588568)
(-0.0472973 -1.73934e-08 -0.396836)
(-0.0439382 -1.98883e-08 -0.449117)
(-0.246729 5.59667e-25 0.920155)
(-0.220732 0 0.836852)
(-0.204193 0 0.746405)
(-0.169336 8.56816e-27 0.652671)
(-0.110465 0 0.570816)
(-0.0389587 0 0.49721)
(0.0129993 0 0.070239)
(0.0500975 0 0.0226451)
(0.0904913 0 -0.0256393)
(0.0658875 0 -0.110361)
(-0.122218 0 -0.0614782)
(-0.0886269 0 -0.00852462)
(-0.00234129 0 0.0684618)
(0.112411 5.14891e-27 0.0795896)
(0.242551 0 0.210341)
(0.374818 2.65727e-25 0.249523)
(0.613276 3.04394e-24 0.483821)
(0.618913 -2.16286e-09 0.513446)
(0.441957 -2.98159e-09 0.062129)
(0.443909 -2.69448e-09 0.0656825)
(0.601244 4.25185e-10 0.136657)
(0.599524 3.62407e-11 0.135749)
(-0.108982 -5.78158e-09 -0.832942)
(-0.0707359 -3.78708e-10 -0.813271)
(0.139819 -1.33295e-09 -0.704549)
(0.183607 -4.33178e-10 -0.68709)
(-0.267731 -9.33818e-09 -0.684622)
(0.380931 3.21811e-08 -1.04773)
(-0.564559 5.44589e-08 -0.847128)
(0.398501 2.41413e-08 -0.936214)
(-0.484249 5.78783e-09 -0.797318)
(-0.270555 3.86183e-24 0.811833)
(-0.278756 -1.03034e-09 0.212549)
(-0.0595261 -2.51663e-09 -0.790126)
(-0.105433 -2.64116e-09 -0.80886)
(-0.153279 -4.46467e-09 -0.78613)
(-0.169243 -2.10051e-09 -0.802517)
(-0.277048 -1.30302e-08 -0.713155)
(-0.190631 -1.33031e-09 -0.742686)
(-0.191104 -8.80607e-09 -0.778783)
(0.379182 -1.73701e-08 -1.04666)
(-0.533166 -3.06772e-08 -0.851803)
(0.381964 -8.5481e-09 -0.956495)
(-0.452099 -6.27839e-09 -0.786656)
(0.226895 3.66695e-08 -1.12013)
(-0.367385 4.83888e-08 -0.612042)
(0.0113074 3.4723e-08 -1.07738)
(-0.50572 3.90132e-09 -0.684124)
(0.245173 -1.86319e-08 -1.10831)
(-0.316804 -2.5202e-08 -0.589951)
(0.0369479 -8.11209e-09 -1.05858)
(-0.466519 -4.34612e-09 -0.667509)
(-0.285612 0 0.874661)
(-0.266884 -5.30913e-26 0.792784)
(-0.245642 0 0.682131)
(-0.187618 8.08681e-27 0.584526)
(-0.117685 0 0.502257)
(-0.0409858 0 0.425728)
(0.017041 0 0.0187777)
(0.056087 0 -0.0358945)
(0.0952181 0 -0.0755549)
(0.0908258 0 -0.178902)
(0.00225605 0 -0.0984775)
(0.00994417 0 -0.033574)
(0.0763339 0 0.0420325)
(0.215477 0 0.0661011)
(0.376406 3.73058e-25 0.13565)
(0.586149 1.78453e-24 0.281001)
(0.756937 -5.87968e-10 0.434769)
(0.681357 1.79398e-09 0.277478)
(0.675862 5.372e-10 0.274932)
(0.755839 2.77941e-09 0.263567)
(0.742129 -1.13822e-11 0.263825)
(0.150111 -3.9588e-09 -0.530264)
(0.192985 6.25336e-10 -0.51401)
(0.35705 -5.70952e-09 -0.373638)
(0.371903 1.25612e-09 -0.369854)
(-0.442265 7.88441e-09 -0.938555)
(-0.288528 2.83516e-09 -0.643992)
(0.35612 9.39696e-09 -0.812291)
(-0.485897 6.74659e-09 -0.987689)
(0.401541 7.63747e-09 -0.793865)
(-0.0739239 1.44622e-09 -1.25467)
(-0.246821 -1.38913e-09 -0.620492)
(-0.429731 -4.31853e-09 -0.930064)
(0.370631 -1.0093e-08 -0.804667)
(-0.467489 -4.11803e-09 -0.991511)
(0.408663 -7.77157e-09 -0.785444)
(-0.0523082 -2.28982e-09 -1.26258)
(-0.492544 6.93664e-09 -0.937922)
(0.423724 8.59566e-09 -0.702823)
(-0.505888 6.20633e-09 -0.975504)
(0.417973 8.60007e-09 -0.759467)
(-0.467183 -4.32797e-09 -0.949026)
(0.439911 -5.21715e-09 -0.692503)
(-0.488283 -4.39439e-09 -0.983204)
(0.438611 -6.68353e-09 -0.744106)
(0.443382 3.19427e-08 -0.870525)
(-0.652672 5.36354e-08 -0.909375)
(0.453081 2.40096e-08 -0.916682)
(-0.639706 6.13795e-09 -0.927093)
(-0.114206 1.03756e-08 -1.144)
(-0.330433 8.98857e-09 -0.836226)
(-0.117448 1.22558e-08 -1.09462)
(-0.321064 5.21081e-09 -0.768014)
(-0.353361 7.70788e-25 0.788344)
(-0.39667 -1.31868e-09 0.221064)
(0.00106921 -3.09604e-09 -0.788086)
(-0.0817277 -3.0174e-09 -0.823447)
(-0.000584325 -3.58263e-09 -0.791737)
(-0.0760089 -3.49868e-09 -0.822675)
(-0.219277 -4.66412e-09 -0.931278)
(-0.212814 -4.0461e-09 -0.96213)
(-0.199263 -6.46017e-10 -0.977609)
(-0.173509 -7.39736e-09 -1.01668)
(0.423847 -1.75309e-08 -0.898222)
(-0.598085 -3.06791e-08 -0.905518)
(0.432018 -7.25093e-09 -0.939731)
(-0.608657 -6.79571e-09 -0.941249)
(0.466968 3.92991e-08 -0.851992)
(-0.503514 7.0162e-08 -1.1272)
(0.517126 4.12313e-08 -0.511824)
(-0.582745 8.05201e-09 -0.969387)
(0.450295 -2.43367e-08 -0.881312)
(-0.467371 -3.55846e-08 -1.1467)
(0.502065 -2.03893e-08 -0.546044)
(-0.572145 -8.30489e-09 -0.988506)
(-0.0960283 -1.36715e-08 -1.16219)
(-0.323526 -8.80709e-09 -0.845956)
(-0.105972 -1.55433e-08 -1.11888)
(-0.306282 -6.16309e-09 -0.761569)
(-0.109225 3.7247e-09 -1.21288)
(-0.31928 1.89187e-09 -0.682631)
(-0.0899123 -6.38533e-09 -1.22578)
(-0.28636 -2.17325e-09 -0.66196)
(-0.318527 -2.38725e-25 0.820308)
(-0.330296 0 0.722112)
(-0.271825 0 0.60492)
(-0.199056 0 0.512148)
(-0.123638 0 0.429662)
(-0.0424248 0 0.351569)
(0.0201299 0 -0.0351856)
(0.0563481 0 -0.0956641)
(0.102411 0 -0.116069)
(0.0993916 0 -0.244177)
(0.157759 0 -0.152215)
(0.135897 0 -0.0712189)
(0.165457 0 0.0158643)
(0.343053 0 0.0115321)
(0.501216 3.81401e-25 0.110563)
(0.789691 -6.83011e-10 0.302661)
(0.772355 2.35639e-09 0.299004)
(0.766265 -2.22304e-10 0.300059)
(0.79626 3.49267e-09 0.253634)
(0.802345 1.67352e-10 0.257577)
(0.505105 -6.56281e-09 -0.128841)
(0.497899 3.06207e-09 -0.128203)
(0.618781 -7.60956e-09 -0.0335311)
(0.62254 3.96296e-09 -0.0470983)
(-0.45821 6.90241e-09 -0.92188)
(0.43174 6.96314e-09 -0.642063)
(-0.408559 9.99011e-09 -0.890728)
(0.496578 8.06024e-09 -0.631716)
(-0.430985 -3.76286e-09 -0.931736)
(0.447102 -4.58094e-09 -0.634237)
(-0.372831 -4.23176e-09 -0.895284)
(0.510605 -4.33992e-09 -0.627102)
(-0.266042 1.02816e-08 -0.773066)
(0.624346 6.94329e-09 -0.504351)
(-0.349342 1.0012e-08 -0.834661)
(0.581063 7.33167e-09 -0.541431)
(-0.238055 -4.01666e-09 -0.776884)
(0.627441 -2.55772e-09 -0.510911)
(-0.318813 -4.21913e-09 -0.838079)
(0.605963 -3.72783e-09 -0.561494)
(-0.393318 3.57403e-09 -0.939354)
(-0.147306 2.35589e-10 -1.01203)
(0.0267545 9.86058e-10 -0.851526)
(0.217956 6.4815e-09 -0.820524)
(-0.188209 8.92416e-10 -0.952286)
(0.173239 2.20269e-09 -0.735588)
(-0.371636 -3.62641e-09 -0.92226)
(-0.118196 -2.08045e-10 -0.976545)
(0.246502 -7.12655e-09 -0.810106)
(0.0816741 -1.811e-10 -0.833679)
(-0.16002 -9.64445e-10 -0.939179)
(0.200061 -8.17674e-10 -0.723645)
(-0.200155 1.46786e-09 -0.939211)
(0.217844 2.27975e-09 -0.691505)
(-0.197929 1.32273e-09 -0.947666)
(0.193445 2.3189e-09 -0.724599)
(-0.17028 -1.2044e-09 -0.932597)
(0.244348 -2.35434e-09 -0.682775)
(-0.168177 -1.37056e-09 -0.93694)
(0.226666 -2.1748e-09 -0.718892)
(-0.0849635 1.54046e-08 -1.05283)
(-0.315738 1.01087e-08 -0.905005)
(-0.0947646 1.32167e-08 -1.08799)
(-0.289063 8.21263e-09 -0.950855)
(-0.0874896 2.32953e-09 -0.885385)
(-0.243048 1.53902e-09 -0.954278)
(-0.130878 2.4152e-09 -0.89632)
(-0.263631 1.45566e-09 -0.958023)
(-0.376757 0 0.757157)
(-0.462692 -1.08475e-09 0.224826)
(-0.163573 -3.0038e-09 -0.745092)
(-0.22322 -2.14044e-09 -0.775734)
(-0.0301593 -3.39124e-09 -0.774527)
(-0.109855 -3.12169e-09 -0.805374)
(-0.248855 -8.24622e-09 -0.930262)
(-0.244502 -5.39996e-09 -0.944082)
(-0.241986 -6.08563e-09 -0.920385)
(-0.24362 -4.9543e-09 -0.947563)
(-0.526484 2.02895e-08 -1.06771)
(0.360202 1.68057e-08 -0.996237)
(-0.536841 1.32956e-08 -1.12202)
(0.265697 1.38081e-08 -1.02783)
(-0.518528 -1.00514e-08 -1.08755)
(0.351873 -1.60222e-08 -1.02057)
(-0.527125 -8.21651e-09 -1.13765)
(0.262555 -1.53761e-08 -1.04804)
(-0.273829 9.92953e-09 -1.13531)
(-0.225272 1.99322e-08 -1.22184)
(0.019592 8.78854e-09 -1.04925)
(-0.532385 1.22215e-08 -1.15682)
(0.111432 1.13686e-08 -1.07077)
(0.149739 2.71958e-08 -0.712581)
(-0.256439 -4.81684e-09 -1.13009)
(-0.217204 -1.56374e-08 -1.24518)
(0.0409377 -1.03868e-08 -1.06104)
(-0.515026 -6.64408e-09 -1.17851)
(0.120932 -1.30603e-08 -1.0898)
(0.141121 -2.93583e-08 -0.741652)
(-0.084166 -1.8316e-08 -1.08174)
(-0.297501 -9.52381e-09 -0.918412)