/*--------------------------------*- C++ -*----------------------------------*\
| =========                 |                                                 |
| \\      /  F ield         | OpenFOAM: The Open Source CFD Toolbox           |
|  \\    /   O peration     | Version:  5.x                                   |
|   \\  /    A nd           | Web:      www.OpenFOAM.org                      |
|    \\/     M anipulation  |                                                 |
\*---------------------------------------------------------------------------*/
FoamFile
{
    version     2.0;
    format      ascii;
    class       surfaceVectorField;
    location    "0.6";
    object      Uf;
}
// * * * * * * * * * * * * * * * * * * * * * * * * * * * * * * * * * * * * * //

dimensions      [0 1 -1 0 0 0 0];

internalField   nonuniform List<vector> 
30582
(
(0.221986 0 0.00271598)
(0.210069 0 0.000578386)
(0.216112 0 0.00356421)
(0.228409 0 0.00234962)
(0.221204 0 -2.92316e-05)
(0.209392 0 0.00147487)
(0.204667 0 0.00370574)
(0.206246 0 0.00466048)
(0.215456 0 0.00306749)
(0.227874 0 0.00464894)
(0.220428 0 0.00669214)
(0.207727 0 0.00269795)
(0.191017 0 0.0038708)
(0.201747 0 0.00565767)
(0.204762 0 0.00620002)
(0.20678 0 0.00901469)
(0.21585 0 0.0113544)
(0.225723 0 0.00648005)
(0.21674 0 0.00181658)
(0.205351 0 0.00540264)
(0.172981 0 0.00440134)
(0.179408 0 0.00760972)
(0.191393 0 0.00906667)
(0.202825 0 0.0111993)
(0.206619 0 0.0147541)
(0.20646 0 0.0127737)
(0.212535 0 0.0069927)
(0.223016 0 0.00816198)
(0.214032 0 0.0127013)
(0.20094 0 0.00921476)
(0.152575 0 0.00476522)
(0.164377 0 0.00876413)
(0.173494 0 0.0117824)
(0.180424 0 0.0151613)
(0.193011 0 0.0179521)
(0.203906 0 0.0168395)
(0.206034 0 0.0138915)
(0.206722 0 0.0154211)
(0.213035 0 0.0176514)
(0.217122 0 0.00856086)
(0.203708 0 0.00400571)
(0.196261 0 0.0171382)
(0.130806 0 0.00488672)
(0.140126 0 0.00951727)
(0.152888 0 0.0134769)
(0.16506 0 0.0176142)
(0.174837 0 0.0215334)
(0.181721 0 0.0228293)
(0.193601 0 0.0207997)
(0.206302 0 0.0219927)
(0.209785 0 0.024411)
(0.205813 0 0.0167443)
(0.205351 0 0.00662608)
(0.210738 0 0.00790367)
(0.198343 0 0.0224303)
(0.186921 0 0.0272349)
(0.109638 0 0.00469188)
(0.119862 0 0.0094204)
(0.130826 0 0.0140821)
(0.140393 0 0.0191628)
(0.153575 0 0.0237252)
(0.165928 0 0.0267461)
(0.175918 0 0.0272248)
(0.184381 0 0.0302903)
(0.197806 0 0.0323785)
(0.208781 0 0.0269578)
(0.208107 0 0.0185266)
(0.206305 0 0.015622)
(0.207618 0 0.017863)
(0.195856 0 0.00419343)
(0.175618 0 0.007507)
(0.149976 0 0.0463373)
(0.0901526 0 0.00428278)
(0.0991546 0 0.0088274)
(0.109407 0 0.0136035)
(0.119654 0 0.0189522)
(0.13085 0 0.0243449)
(0.140653 0 0.0290982)
(0.15409 0 0.0314789)
(0.167657 0 0.036121)
(0.179602 0 0.040207)
(0.187387 0 0.0379711)
(0.198861 0 0.0317027)
(0.212902 0 0.03079)
(0.214605 0 0.0277596)
(0.204114 0 0.0127767)
(0.190055 0 -0.00259712)
(0.177398 0 -0.00158166)
(0.141028 0 0.0356342)
(-0.0851824 0 -0.0154603)
(0.0730112 0 0.00375401)
(0.0809081 0 0.00790402)
(0.0897597 0 0.0124866)
(0.0986457 0 0.0177282)
(0.108884 0 0.0232861)
(0.119175 0 0.0287277)
(0.130576 0 0.0329895)
(0.141304 0 0.0393786)
(0.156043 0 0.0451498)
(0.169584 0 0.046239)
(0.181335 0 0.0429351)
(0.191501 0 0.0453657)
(0.206113 0 0.0443245)
(0.218125 0 0.0343099)
(0.210796 0 0.0182556)
(0.214579 0 0.00433121)
(0.204507 0 0.00697763)
(0.126186 0 -0.0269745)
(-0.116065 0 -0.0799025)
(-0.172918 0 0.0298972)
(0.058436 0 0.00319896)
(0.0650782 0 0.00684187)
(0.072541 0 0.0110124)
(0.0802212 0 0.0158436)
(0.0889041 0 0.0212106)
(0.0976992 0 0.0267796)
(0.107919 0 0.0318367)
(0.118654 0 0.0388108)
(0.130916 0 0.0463299)
(0.14175 0 0.0503639)
(0.156542 0 0.0501102)
(0.172207 0 0.0568879)
(0.186936 0 0.0601655)
(0.197859 0 0.0534566)
(0.21108 0 0.0448077)
(0.247015 0 0.0341923)
(0.253929 0 0.0247827)
(0.260518 0 -0.0157934)
(0.190629 0 -0.0511404)
(0.0966076 0 -0.149657)
(0.0326516 0 -0.0418907)
(0.0259326 0 0.0170656)
(0.046341 0 0.00267101)
(0.0518112 0 0.00577931)
(0.0579494 0 0.0094279)
(0.0643289 0 0.0136914)
(0.0715413 0 0.0185892)
(0.0790082 0 0.0238498)
(0.0875178 0 0.0291023)
(0.0964544 0 0.0360218)
(0.107024 0 0.0440579)
(0.117576 0 0.0494434)
(0.129806 0 0.0519137)
(0.14226 0 0.0620525)
(0.159272 0 0.0705242)
(0.176338 0 0.0687699)
(0.192636 0 0.0643297)
(0.234033 0 0.0612383)
(0.273155 0 0.0565587)
(0.35344 0 0.0262233)
(0.363727 0 -0.0109619)
(0.207386 0 -0.0862793)
(0.1157 0 -0.180112)
(0.0926099 0 -0.182878)
(0.0981584 0 -0.12675)
(0.0728953 0 -0.0215075)
(0.0364845 0 0.00219692)
(0.0409119 0 0.00479392)
(0.0458772 0 0.00789754)
(0.0510764 0 0.0115477)
(0.0569315 0 0.0158382)
(0.0630345 0 0.0205495)
(0.0699811 0 0.0255428)
(0.0773624 0 0.0319361)
(0.0859061 0 0.0398039)
(0.0944718 0 0.0455888)
(0.10473 0 0.0492718)
(0.116157 0 0.0606032)
(0.129745 0 0.0729537)
(0.143331 0 0.0749612)
(0.161887 0 0.0739727)
(0.21586 0 0.0819764)
(0.264604 0 0.0809717)
(0.369212 0 0.0648462)
(0.460515 0 0.0408358)
(0.382677 0 -0.0138944)
(0.22278 0 -0.0934791)
(0.0491825 0 -0.129882)
(0.0196893 0 -0.141527)
(0.0382524 0 -0.151489)
(0.0222283 0 -0.0553819)
(0.038078 0 -0.0302425)
(0.0285588 0 0.00178763)
(0.0320995 0 0.00392411)
(0.036065 0 0.00651054)
(0.0402352 0 0.00956624)
(0.0449182 0 0.0132179)
(0.0498223 0 0.017288)
(0.0553695 0 0.0217744)
(0.0612624 0 0.0274085)
(0.0680558 0 0.0346198)
(0.0749301 0 0.0401669)
(0.0829753 0 0.0442131)
(0.0919899 0 0.0554441)
(0.102961 0 0.0693385)
(0.114606 0 0.0725231)
(0.129025 0 0.0733266)
(0.183548 0 0.0893277)
(0.239782 0 0.0938728)
(0.365324 0 0.0926376)
(0.486355 0 0.0823488)
(0.436912 0 0.0539435)
(0.370441 0 -0.00371353)
(0.150139 0 -0.0750982)
(-0.0258085 0 -0.10706)
(-0.0309885 0 -0.111355)
(-0.0175116 0 -0.122456)
(0.0120028 0 -0.135592)
(0.0317599 0 -0.0991133)
(0.0216947 0 -0.042723)
(0.0222448 0 0.00144421)
(0.0250541 0 0.00318239)
(0.0281931 0 0.005306)
(0.0315023 0 0.00782158)
(0.0352053 0 0.0108641)
(0.0390893 0 0.0142903)
(0.0434601 0 0.018173)
(0.0480994 0 0.0229787)
(0.0533966 0 0.0292996)
(0.0587353 0 0.0342897)
(0.0649443 0 0.0381589)
(0.0720031 0 0.0484811)
(0.0803627 0 0.0624482)
(0.0889296 0 0.0656818)
(0.0999539 0 0.0661604)
(0.15682 0 0.0854606)
(0.213337 0 0.0949959)
(0.339426 0 0.100889)
(0.47644 0 0.10334)
(0.429863 0 0.0968962)
(0.401174 0 0.0707594)
(0.187358 0 0.0409772)
(-0.0313012 0 -0.0262928)
(-0.0467362 0 -0.0728215)
(-0.0447608 0 -0.0841859)
(-0.0280691 0 -0.100259)
(-0.000979123 0 -0.110508)
(0.00920702 0 -0.122496)
(0.00225973 0 -0.0806598)
(0.0172429 0 0.00116226)
(0.0194619 0 0.00256604)
(0.0219342 0 0.00429124)
(0.0245423 0 0.00633695)
(0.0274482 0 0.00883252)
(0.0304959 0 0.0116622)
(0.0339053 0 0.014934)
(0.0375129 0 0.0189375)
(0.041598 0 0.0243063)
(0.0456937 0 0.0286164)
(0.0503921 0 0.0320631)
(0.0557823 0 0.0411208)
(0.0621022 0 0.0541721)
(0.0682336 0 0.0569012)
(0.0760098 0 0.0565439)
(0.133343 0 0.0765289)
(0.189668 0 0.0883921)
(0.307951 0 0.0959941)
(0.436576 0 0.10539)
(0.369642 0 0.118317)
(0.331079 0 0.121432)
(0.185369 0 0.127001)
(-0.0211841 0 0.0897459)
(-0.052018 0 0.0367086)
(-0.07132 0 -0.0141944)
(-0.0509816 0 -0.0618129)
(-0.0279883 0 -0.0748229)
(-0.0131023 0 -0.089261)
(-0.00376672 0 -0.103412)
(0.0132897 0 0.000934889)
(0.0150419 0 0.00206445)
(0.0169846 0 0.00345599)
(0.0190332 0 0.00510525)
(0.0213049 0 0.00712882)
(0.0236832 0 0.00943333)
(0.026326 0 0.0121373)
(0.0291107 0 0.0154148)
(0.032235 0 0.0198708)
(0.035343 0 0.0234913)
(0.0388626 0 0.0264348)
(0.0429446 0 0.0341255)
(0.0476574 0 0.0457598)
(0.051867 0 0.0479015)
(0.0571837 0 0.0466823)
(0.114927 0 0.0655819)
(0.171949 0 0.0782549)
(0.273028 0 0.0845561)
(0.388901 0 0.0969422)
(0.297182 0 0.117212)
(0.227913 0 0.142185)
(0.145495 0 0.16342)
(-0.00299865 0 0.154173)
(-0.0302112 0 0.119191)
(-0.0646239 0 0.0714313)
(-0.0633035 0 0.0338834)
(-0.047564 0 -0.0123059)
(-0.0269413 0 -0.0536991)
(-0.00890309 0 -0.068992)
(0.010161 0 0.000754695)
(0.0115489 0 0.00166317)
(0.013079 0 0.00278145)
(0.0146897 0 0.00410404)
(0.0164637 0 0.00573138)
(0.018316 0 0.00758889)
(0.0203595 0 0.00979201)
(0.0225007 0 0.0124406)
(0.0248793 0 0.0160761)
(0.0272239 0 0.0190567)
(0.0298411 0 0.0215029)
(0.0329061 0 0.0278792)
(0.0363985 0 0.0378974)
(0.0392109 0 0.0395054)
(0.0427015 0 0.0377291)
(0.100484 0 0.0546996)
(0.157833 0 0.0669588)
(0.233613 0 0.0720906)
(0.329911 0 0.0844417)
(0.24039 0 0.11128)
(0.14492 0 0.140433)
(0.101919 0 0.154146)
(0.0173137 0 0.161782)
(-0.0043995 0 0.154539)
(-0.0342631 0 0.129166)
(-0.0405364 0 0.106151)
(-0.0425772 0 0.0675777)
(-0.0332948 0 0.0317795)
(-0.0150675 0 -0.00970117)
(0.0076693 0 0.000614771)
(0.0087791 0 0.00134834)
(0.00999261 0 0.00224658)
(0.011265 0 0.00330385)
(0.0126558 0 0.00460603)
(0.0141021 0 0.00609259)
(0.0156829 0 0.00786861)
(0.0173289 0 0.00998808)
(0.0191382 0 0.0129168)
(0.0209033 0 0.0153342)
(0.0228429 0 0.017329)
(0.0251333 0 0.0225216)
(0.0277071 0 0.0309292)
(0.0295327 0 0.0321064)
(0.0317389 0 0.0300711)
(0.0893218 0 0.0447436)
(0.146769 0 0.055954)
(0.194261 0 0.0598933)
(0.264401 0 0.0719949)
(0.190568 0 0.102298)
(0.0952289 0 0.130235)
(0.0721087 0 0.133791)
(0.0289457 0 0.143044)
(0.0165564 0 0.14897)
(-0.00386397 0 0.146516)
(-0.0131018 0 0.141249)
(-0.0222816 0 0.119334)
(-0.021125 0 0.097434)
(-0.0134159 0 0.0630393)
(0.00566038 0 0.000509087)
(0.006563 0 0.00110656)
(0.00753786 0 0.00183108)
(0.00855498 0 0.00267666)
(0.00965518 0 0.0037157)
(0.0107922 0 0.00489897)
(0.0120224 0 0.00632022)
(0.0132936 0 0.00800419)
(0.014673 0 0.010341)
(0.0160045 0 0.0122788)
(0.0174432 0 0.0138829)
(0.0191513 0 0.0180557)
(0.0210433 0 0.0249759)
(0.0221965 0 0.025821)
(0.0235298 0 0.0237579)
(0.0806986 0 0.036099)
(0.137954 0 0.045927)
(0.157771 0 0.0489557)
(0.199892 0 0.060463)
(0.146681 0 0.0901751)
(0.0667537 0 0.115202)
(0.0541124 0 0.115428)
(0.0306642 0 0.122817)
(0.0233749 0 0.133012)
(0.0130796 0 0.138386)
(0.00635968 0 0.141429)
(-0.00248897 0 0.137962)
(-0.00646354 0 0.132596)
(-0.00665791 0 0.112294)
(0.0040063 0 0.000432519)
(0.00475947 0 0.000927439)
(0.00556083 0 0.00151706)
(0.0063904 0 0.00219556)
(0.0072746 0 0.00302528)
(0.0081819 0 0.00396486)
(0.00915039 0 0.00509574)
(0.0101418 0 0.0064257)
(0.0112024 0 0.00827774)
(0.0122145 0 0.00981659)
(0.0132871 0 0.0110911)
(0.0145629 0 0.014411)
(0.0159545 0 0.0200258)
(0.0166639 0 0.0206206)
(0.0174272 0 0.0186733)
(0.0740069 0 0.0288424)
(0.130845 0 0.0371923)
(0.128049 0 0.0395568)
(0.143724 0 0.0500343)
(0.108495 0 0.0757947)
(0.0499499 0 0.0975586)
(0.0429307 0 0.098063)
(0.0300572 0 0.104767)
(0.0253126 0 0.115708)
(0.0190825 0 0.123435)
(0.0138957 0 0.130293)
(0.00828355 0 0.134291)
(0.00358302 0 0.136635)
(-0.000219453 0 0.132452)
(0.00260177 0 0.000381044)
(0.00325436 0 0.000801672)
(0.00393455 0 0.00128972)
(0.00463157 0 0.00183928)
(0.00536153 0 0.00250412)
(0.00610333 0 0.00324934)
(0.00688112 0 0.00414664)
(0.00766867 0 0.00519283)
(0.00849678 0 0.00665303)
(0.00927737 0 0.00786398)
(0.0100872 0 0.00886528)
(0.0110466 0 0.0114877)
(0.0120743 0 0.0159957)
(0.0125009 0 0.0164016)
(0.0129071 0 0.0146429)
(0.068701 0 0.0228988)
(0.124927 0 0.0298268)
(0.104982 0 0.0317726)
(0.0994097 0 0.0408566)
(0.0782223 0 0.06111)
(0.0392203 0 0.0786606)
(0.0355995 0 0.0809216)
(0.0289053 0 0.0881252)
(0.0250837 0 0.0986038)
(0.0207217 0 0.106931)
(0.0166732 0 0.114952)
(0.0122444 0 0.122109)
(0.00751503 0 0.128498)
(0.00331931 0 0.131471)
(0.00135845 0 0.000351689)
(0.00195145 0 0.000722333)
(0.00255504 0 0.00113682)
(0.00316605 0 0.00158906)
(0.00379134 0 0.00212679)
(0.00441931 0 0.00271968)
(0.00506429 0 0.00343041)
(0.00570868 0 0.00425011)
(0.00637152 0 0.00539807)
(0.00698914 0 0.00634285)
(0.00761414 0 0.0071186)
(0.00834559 0 0.00917862)
(0.00911314 0 0.0127733)
(0.00936816 0 0.013034)
(0.00956172 0 0.011485)
(0.0643181 0 0.0181178)
(0.119735 0 0.0237689)
(0.0886191 0 0.0255154)
(0.0670196 0 0.0331122)
(0.0553056 0 0.0478094)
(0.0317368 0 0.0608572)
(0.0298954 0 0.0647497)
(0.0269234 0 0.0725469)
(0.0239204 0 0.0818687)
(0.020549 0 0.0903505)
(0.0169583 0 0.0986849)
(0.0132404 0 0.106748)
(0.008931 0 0.114493)
(0.00459097 0 0.121099)
(0.000201929 0 0.000342215)
(0.000770365 0 0.00068401)
(0.00133523 0 0.00104905)
(0.00189947 0 0.00143101)
(0.00246234 0 0.00187283)
(0.00302003 0 0.00234762)
(0.00357843 0 0.00291181)
(0.00412788 0 0.0035528)
(0.0046794 0 0.00445341)
(0.00518773 0 0.00518216)
(0.00568732 0 0.00577268)
(0.00625875 0 0.00738551)
(0.00684376 0 0.0102405)
(0.00700263 0 0.010385)
(0.00708049 0 0.00903538)
(0.0604529 0 0.0143298)
(0.1148 0 0.0188811)
(0.0772661 0 0.0206498)
(0.0450843 0 0.0268708)
(0.0389016 0 0.0365714)
(0.0259129 0 0.0456961)
(0.0251707 0 0.0506929)
(0.0239014 0 0.0584741)
(0.0217459 0 0.0662196)
(0.0192544 0 0.0744002)
(0.0162119 0 0.0824873)
(0.0129467 0 0.0907217)
(0.0089539 0 0.0988228)
(0.00483005 0 0.106587)
(-0.000933787 0 0.000351323)
(-0.000357616 0 0.000683714)
(0.000201554 0 0.00102028)
(0.000752898 0 0.0013545)
(0.00128949 0 0.00172694)
(0.00181388 0 0.0021124)
(0.00232492 0 0.00256265)
(0.00281989 0 0.0030631)
(0.00330284 0 0.00377032)
(0.00374404 0 0.00432462)
(0.00416499 0 0.00476119)
(0.00462903 0 0.00602071)
(0.00509019 0 0.00828762)
(0.00520455 0 0.00833442)
(0.00523038 0 0.00715489)
(0.0567079 0 0.0113685)
(0.109656 0 0.015003)
(0.0689915 0 0.017016)
(0.0306645 0 0.022248)
(0.0273768 0 0.0280475)
(0.0204514 0 0.0339489)
(0.0204961 0 0.039324)
(0.0201242 0 0.0464657)
(0.0187773 0 0.0525631)
(0.0170648 0 0.0598949)
(0.0146745 0 0.0672846)
(0.0119692 0 0.0751545)
(0.0084374 0 0.0829544)
(0.00461573 0 0.0909727)
(-0.00210835 0 0.000378699)
(-0.00149443 0 0.000719777)
(-0.000911386 0 0.00104715)
(-0.000341261 0 0.00135371)
(0.00020096 0 0.00167891)
(0.000724275 0 0.0019983)
(0.00122187 0 0.00236199)
(0.00169671 0 0.00275325)
(0.00214712 0 0.00331042)
(0.0025566 0 0.00372275)
(0.00293555 0 0.00403049)
(0.00333312 0 0.00501396)
(0.00371599 0 0.00681952)
(0.00382226 0 0.00677766)
(0.00383769 0 0.00573046)
(0.0526463 0 0.00908803)
(0.103682 0 0.0119782)
(0.0623755 0 0.0145441)
(0.0210436 0 0.0192625)
(0.0191418 0 0.0220403)
(0.0153461 0 0.0255214)
(0.0159281 0 0.0306666)
(0.0161139 0 0.0367718)
(0.0154283 0 0.0413453)
(0.0143421 0 0.0474724)
(0.0126225 0 0.0539111)
(0.0105212 0 0.0609765)
(0.00755486 0 0.0679888)
(0.00418909 0 0.0756439)
(-0.00337882 0 0.000424943)
(-0.0026993 0 0.000792531)
(-0.00206268 0 0.00112869)
(-0.00144399 0 0.00142529)
(-0.000867127 0 0.00172304)
(-0.000314323 0 0.00199672)
(0.000200072 0 0.00229596)
(0.000685173 0 0.00260264)
(0.00113443 0 0.00304542)
(0.00154231 0 0.00334159)
(0.00191011 0 0.00353877)
(0.00227508 0 0.00430805)
(0.00261521 0 0.00575878)
(0.00273978 0 0.00563117)
(0.0027741 0 0.00467342)
(0.0477871 0 0.00736351)
(0.0961438 0 0.00967145)
(0.0563337 0 0.0131672)
(0.0144484 0 0.0178827)
(0.0131285 0 0.01805)
(0.0108605 0 0.0197826)
(0.011739 0 0.0243828)
(0.0122952 0 0.0294148)
(0.0120794 0 0.0326257)
(0.0114799 0 0.0374137)
(0.0103577 0 0.042788)
(0.00881335 0 0.0488181)
(0.00645962 0 0.0547567)
(0.00363503 0 0.0616019)
(-0.00480123 0 0.000490882)
(-0.00402696 0 0.000903205)
(-0.00330884 0 0.00126591)
(-0.00261347 0 0.00156989)
(-0.00197249 0 0.00185767)
(-0.00136103 0 0.00210266)
(-0.000801714 0 0.00235675)
(-0.000277371 0 0.0025998)
(0.000199044 0 0.00295666)
(0.000632704 0 0.00315585)
(0.0010167 0 0.00325557)
(0.00137739 0 0.00386065)
(0.00170391 0 0.00504425)
(0.00186836 0 0.0048282)
(0.00194288 0 0.0039159)
(0.0415514 0 0.00609722)
(0.0861308 0 0.007963)
(0.0500474 0 0.012879)
(0.00974478 0 0.0179733)
(0.00855855 0 0.0157125)
(0.00697949 0 0.0160009)
(0.00808231 0 0.0201132)
(0.00888023 0 0.0242015)
(0.00899208 0 0.0261662)
(0.00876433 0 0.0296811)
(0.00811324 0 0.0340189)
(0.00705397 0 0.0389388)
(0.00528694 0 0.0436747)
(0.00302103 0 0.0494734)
(-0.0064318 0 0.000577493)
(-0.00553368 0 0.00105395)
(-0.0047051 0 0.00146131)
(-0.00390333 0 0.0017898)
(-0.00317003 0 0.0020846)
(-0.00247194 0 0.00231693)
(-0.00183892 0 0.00254194)
(-0.00124723 0 0.00273826)
(-0.000716722 0 0.00303368)
(-0.000230682 0 0.0031511)
(0.000194686 0 0.00316117)
(0.000576909 0 0.00364202)
(0.000915483 0 0.00463141)
(0.00113845 0 0.0043187)
(0.00126917 0 0.00340755)
(0.0334285 0 0.00521273)
(0.0726237 0 0.00677918)
(0.0428047 0 0.0136706)
(0.00620339 0 0.0191611)
(0.00503135 0 0.0148297)
(0.00369978 0 0.0136219)
(0.00495117 0 0.0174872)
(0.00594394 0 0.0208356)
(0.00628434 0 0.0216741)
(0.0063293 0 0.0240402)
(0.00604765 0 0.0274378)
(0.0053989 0 0.0313024)
(0.00414029 0 0.034868)
(0.00240706 0 0.0395336)
(-0.00832742 0 0.000686169)
(-0.00727523 0 0.00124729)
(-0.00630676 0 0.00171852)
(-0.00536855 0 0.00208921)
(-0.00451342 0 0.00240786)
(-0.00369883 0 0.00264283)
(-0.00296401 0 0.00285384)
(-0.00227756 0 0.00301878)
(-0.00166536 0 0.00327316)
(-0.00110024 0 0.00331958)
(-0.000608514 0 0.00324462)
(-0.000180189 0 0.00363464)
(0.000194234 0 0.00449119)
(0.000494611 0 0.00406859)
(0.0006981 0 0.00311339)
(0.0232001 0 0.00465048)
(0.0549811 0 0.00608671)
(0.0340557 0 0.0152828)
(0.00378246 0 0.021486)
(0.00239507 0 0.015028)
(0.00109182 0 0.012379)
(0.00237111 0 0.0162663)
(0.00351647 0 0.0190618)
(0.0039735 0 0.0188008)
(0.0042333 0 0.0201831)
(0.00424076 0 0.0227883)
(0.0039179 0 0.0257004)
(0.0030905 0 0.0282112)
(0.00183456 0 0.0317886)
(-0.0105462 0 0.000818528)
(-0.00930887 0 0.00148605)
(-0.00816995 0 0.00204154)
(-0.00706378 0 0.00247323)
(-0.00605635 0 0.00283326)
(-0.00509472 0 0.00308652)
(-0.0042284 0 0.0032979)
(-0.00341762 0 0.00344569)
(-0.00269619 0 0.00367805)
(-0.00202513 0 0.00366181)
(-0.00144097 0 0.00350229)
(-0.000942137 0 0.00382972)
(-0.000508642 0 0.00460717)
(-0.000110213 0 0.00405778)
(0.000183162 0 0.00301101)
(0.0112025 0 0.00437314)
(0.0334356 0 0.00577691)
(0.0234503 0 0.0171679)
(0.00212503 0 0.0247599)
(0.000666394 0 0.0162288)
(-0.000832951 0 0.0119836)
(0.000385605 0 0.0161073)
(0.00162375 0 0.0185908)
(0.00209663 0 0.0173089)
(0.00247563 0 0.0177908)
(0.00268728 0 0.019752)
(0.00264287 0 0.0218465)
(0.00217369 0 0.0234661)
(0.00132623 0 0.0260636)
(-0.0131477 0 0.000976309)
(-0.0116932 0 0.00177351)
(-0.0103525 0 0.002435)
(-0.00904556 0 0.00294778)
(-0.00785387 0 0.00336792)
(-0.00671274 0 0.00365597)
(-0.00568381 0 0.00388234)
(-0.00471789 0 0.00402726)
(-0.00385768 0 0.00425591)
(-0.00305116 0 0.00418321)
(-0.00234755 0 0.00393699)
(-0.00175389 0 0.00422735)
(-0.00123762 0 0.0049739)
(-0.000717879 0 0.00427644)
(-0.000315113 0 0.00308819)
(-0.00160466 0 0.00435774)
(0.00928903 0 0.00569564)
(0.0112556 0 0.0186544)
(0.000989575 0 0.0278696)
(-0.000202975 0 0.0178276)
(-0.00175811 0 0.0120895)
(-0.000865533 0 0.0167569)
(0.000291206 0 0.0191162)
(0.000668604 0 0.0168545)
(0.00109762 0 0.01655)
(0.00141673 0 0.018068)
(0.00157709 0 0.0194646)
(0.00139052 0 0.0203287)
(0.000894825 0 0.022093)
(-0.0161925 0 0.00116135)
(-0.0144883 0 0.00211311)
(-0.0129139 0 0.00290404)
(-0.0113724 0 0.00351972)
(-0.00996328 0 0.00402015)
(-0.00860843 0 0.00436057)
(-0.00738381 0 0.00461734)
(-0.00622959 0 0.00477455)
(-0.00519908 0 0.00501836)
(-0.00422543 0 0.00489429)
(-0.0033727 0 0.00455681)
(-0.00265743 0 0.00483416)
(-0.00203398 0 0.00559525)
(-0.00136737 0 0.00472413)
(-0.000832522 0 0.00334122)
(-0.0139531 0 0.0045935)
(-0.0152052 0 0.00578436)
(-0.00168565 0 0.0191036)
(0.000155228 0 0.0296362)
(-0.000364428 0 0.0191479)
(-0.00162588 0 0.012395)
(-0.00125523 0 0.0177508)
(-0.000444339 0 0.020254)
(-0.000234645 0 0.0171768)
(0.000121534 0 0.0161621)
(0.000449615 0 0.0174018)
(0.000740285 0 0.0182647)
(0.000751661 0 0.0185289)
(0.000538606 0 0.0195912)
(-0.0197431 0 0.00137543)
(-0.0177561 0 0.0025083)
(-0.0159154 0 0.00345379)
(-0.0141048 0 0.00419621)
(-0.0124443 0 0.00479902)
(-0.0108399 0 0.00521113)
(-0.00938484 0 0.00551479)
(-0.00800691 0 0.00570077)
(-0.00677211 0 0.00598004)
(-0.00559653 0 0.00580958)
(-0.00456208 0 0.00537467)
(-0.00369608 0 0.00566308)
(-0.0029383 0 0.00648326)
(-0.00209509 0 0.00540839)
(-0.00140285 0 0.0037739)
(-0.0247879 0 0.0050799)
(-0.0377373 0 0.00606094)
(-0.0142166 0 0.0184012)
(-0.000648323 0 0.0293746)
(-0.000162713 0 0.0195874)
(-0.000696313 0 0.0126317)
(-0.000909567 0 0.0185982)
(-0.000603581 0 0.0214493)
(-0.000582736 0 0.0178434)
(-0.000413837 0 0.0162964)
(-0.000161212 0 0.0174824)
(0.000151498 0 0.0179405)
(0.000267693 0 0.0177319)
(0.000263855 0 0.0182557)
(-0.0238614 0 0.00161973)
(-0.0215594 0 0.00296176)
(-0.0194203 0 0.00408887)
(-0.0173052 0 0.00498431)
(-0.0153586 0 0.00571362)
(-0.0134679 0 0.00621881)
(-0.0117462 0 0.00658756)
(-0.0101073 0 0.00682099)
(-0.00863202 0 0.00715811)
(-0.00721664 0 0.00694644)
(-0.00596466 0 0.00640705)
(-0.00491546 0 0.00673245)
(-0.00399303 0 0.00765748)
(-0.00293887 0 0.00634483)
(-0.00205894 0 0.00439667)
(-0.0336021 0 0.00582499)
(-0.0567195 0 0.0066119)
(-0.0253675 0 0.0169213)
(-0.00165527 0 0.0273114)
(-8.49334e-05 0 0.0190184)
(0.000442529 0 0.0126863)
(-0.000152687 0 0.0189019)
(-0.000379057 0 0.0221785)
(-0.000491529 0 0.0184654)
(-0.000503543 0 0.0166239)
(-0.000395885 0 0.0178956)
(-0.000171719 0 0.0181539)
(-3.89211e-05 0 0.0176669)
(6.75194e-05 0 0.0177836)
(-0.0286089 0 0.00189478)
(-0.0259598 0 0.00347501)
(-0.0234913 0 0.00481225)
(-0.0210374 0 0.00588947)
(-0.0187702 0 0.00677208)
(-0.0165555 0 0.00739443)
(-0.01453 0 0.0078483)
(-0.0125912 0 0.00815079)
(-0.0108376 0 0.00857107)
(-0.00914176 0 0.00832458)
(-0.00763341 0 0.00767339)
(-0.00636524 0 0.00806409)
(-0.00524464 0 0.00914258)
(-0.00394019 0 0.00755599)
(-0.00283608 0 0.00522649)
(-0.0404458 0 0.00684715)
(-0.0716887 0 0.00754037)
(-0.0346957 0 0.0153302)
(-0.00305853 0 0.0243773)
(-0.000527837 0 0.0177967)
(0.00111978 0 0.0126055)
(0.000486061 0 0.0186034)
(-7.67386e-05 0 0.022161)
(-0.000165117 0 0.01872)
(-0.00028345 0 0.0168949)
(-0.000333501 0 0.0183353)
(-0.000250502 0 0.0185514)
(-0.000164269 0 0.0179414)
(-4.34024e-05 0 0.0178439)
(-0.0340409 0 0.0022001)
(-0.031018 0 0.00404757)
(-0.0281907 0 0.00562474)
(-0.0253641 0 0.00691479)
(-0.0227429 0 0.00797998)
(-0.0201674 0 0.00874655)
(-0.017801 0 0.00930839)
(-0.0155225 0 0.00970522)
(-0.013451 0 0.0102374)
(-0.0114318 0 0.00996453)
(-0.0096255 0 0.00919501)
(-0.00809937 0 0.00968267)
(-0.0067437 0 0.0109664)
(-0.00514583 0 0.00906809)
(-0.0037774 0 0.00628639)
(-0.0456927 0 0.00817536)
(-0.0829685 0 0.0088635)
(-0.0422876 0 0.0141381)
(-0.00495002 0 0.0217104)
(-0.00169231 0 0.0165313)
(0.00090493 0 0.0125523)
(0.000568888 0 0.0179308)
(-1.3296e-05 0 0.0214925)
(8.58135e-05 0 0.0185646)
(3.90291e-06 0 0.0169871)
(-0.000109881 0 0.018547)
(-0.000164704 0 0.0188589)
(-0.000151166 0 0.0182846)
(-7.54683e-05 0 0.0181144)
(-0.0402065 0 0.00253401)
(-0.036782 0 0.00467672)
(-0.0335751 0 0.00652377)
(-0.0303476 0 0.00805961)
(-0.027341 0 0.00933961)
(-0.0243685 0 0.0102805)
(-0.0216249 0 0.0109756)
(-0.0189675 0 0.0114966)
(-0.0165384 0 0.0121739)
(-0.0141509 0 0.0118863)
(-0.0120026 0 0.0109936)
(-0.0101764 0 0.0116143)
(-0.00854544 0 0.0131588)
(-0.0066073 0 0.010911)
(-0.00493003 0 0.00760432)
(-0.0498292 0 0.00984006)
(-0.0913763 0 0.0105762)
(-0.0485803 0 0.0137076)
(-0.00751524 0 0.0199635)
(-0.00361081 0 0.0157963)
(-0.000293117 0 0.0127591)
(-9.86522e-05 0 0.0172921)
(-0.000389475 0 0.020561)
(6.02482e-06 0 0.0181655)
(0.000117243 0 0.0169494)
(6.42772e-05 0 0.0184952)
(-4.42531e-05 0 0.0189339)
(-6.46384e-05 0 0.0184746)
(-5.27211e-05 0 0.0183608)
(-0.047145 0 0.00289369)
(-0.0433147 0 0.00535688)
(-0.0396953 0 0.00750305)
(-0.0360384 0 0.00931903)
(-0.0326238 0 0.0108479)
(-0.0292239 0 0.011996)
(-0.026069 0 0.0128534)
(-0.0229939 0 0.0135334)
(-0.0201679 0 0.0143937)
(-0.017367 0 0.0141069)
(-0.0148314 0 0.0130901)
(-0.0126601 0 0.0138847)
(-0.0107103 0 0.0157492)
(-0.00838207 0 0.0131167)
(-0.00634729 0 0.0092126)
(-0.0532781 0 0.0118772)
(-0.0978104 0 0.0127078)
(-0.0540697 0 0.0141493)
(-0.010885 0 0.0191142)
(-0.00624579 0 0.0159249)
(-0.00227416 0 0.0134714)
(-0.00150473 0 0.0170768)
(-0.00129833 0 0.0198447)
(-0.000540368 0 0.0178693)
(-0.000134198 0 0.0169615)
(1.61717e-05 0 0.0183224)
(-2.41383e-05 0 0.0188272)
(-1.40823e-06 0 0.0184829)
(-1.85396e-05 0 0.0184657)
(-0.0505566 0 0.00608045)
(-0.0548811 0 0.00327571)
(-0.0465929 0 0.00855268)
(-0.0425025 0 0.0106822)
(-0.0386459 0 0.0124958)
(-0.0347886 0 0.0138869)
(-0.0311969 0 0.0149377)
(-0.0276711 0 0.0158169)
(-0.024411 0 0.0169041)
(-0.0211512 0 0.0166391)
(-0.0181825 0 0.0155017)
(-0.0156192 0 0.0165169)
(-0.0133045 0 0.0187645)
(-0.0105347 0 0.0157174)
(-0.00809064 0 0.0111473)
(-0.0563581 0 0.0143266)
(-0.102932 0 0.0152959)
(-0.0592006 0 0.0153685)
(-0.0150305 0 0.019158)
(-0.00951899 0 0.0169258)
(-0.00479914 0 0.0148971)
(-0.00348957 0 0.0175863)
(-0.00270841 0 0.0197359)
(-0.00156762 0 0.0179883)
(-0.000788788 0 0.0172561)
(-0.000351074 0 0.018285)
(-0.000193306 0 0.0187335)
(-4.26532e-05 0 0.018428)
(-1.72964e-05 0 0.0184715)
(-0.0496838 0 0.0121347)
(-0.0542957 0 0.00965898)
(-0.0644043 0 0.00733249)
(-0.076134 0 0.00422483)
(-0.0454535 0 0.0142682)
(-0.0411336 0 0.015938)
(-0.0370691 0 0.0172163)
(-0.0330604 0 0.0183412)
(-0.0293372 0 0.0197036)
(-0.0255781 0 0.0194876)
(-0.0221316 0 0.0182412)
(-0.0191273 0 0.0195296)
(-0.0163997 0 0.0222252)
(-0.0131368 0 0.0187429)
(-0.0102304 0 0.0134478)
(-0.0593145 0 0.0172289)
(-0.107241 0 0.0183749)
(-0.0644499 0 0.017317)
(-0.0202318 0 0.0202206)
(-0.0134467 0 0.0189145)
(-0.00780115 0 0.017146)
(-0.00590192 0 0.0189365)
(-0.00453519 0 0.0204675)
(-0.00299832 0 0.0187884)
(-0.00182717 0 0.0180624)
(-0.00104769 0 0.0186596)
(-0.000595319 0 0.0189182)
(-0.000233558 0 0.0185403)
(-7.73501e-05 0 0.0185443)
(-0.048209 0 0.0181282)
(-0.053079 0 0.0161442)
(-0.0634624 0 0.0146513)
(-0.0755089 0 0.0123659)
(-0.0869007 0 0.00915026)
(-0.100689 0 0.00512744)
(-0.0437393 0 0.0196684)
(-0.0392401 0 0.0210878)
(-0.0350152 0 0.0227796)
(-0.0307173 0 0.022648)
(-0.0267553 0 0.0213126)
(-0.0232632 0 0.0229329)
(-0.0200738 0 0.0261437)
(-0.0162676 0 0.0222189)
(-0.0128454 0 0.0161544)
(-0.0623353 0 0.0206235)
(-0.111098 0 0.0219799)
(-0.070298 0 0.0199541)
(-0.0269852 0 0.0223045)
(-0.0181908 0 0.0220041)
(-0.0112145 0 0.0202717)
(-0.00869588 0 0.0212416)
(-0.00673635 0 0.0221573)
(-0.00476007 0 0.0204108)
(-0.003182 0 0.0195596)
(-0.00201819 0 0.0196799)
(-0.0012162 0 0.0196342)
(-0.000581415 0 0.0190609)
(-0.000211454 0 0.0189112)
(-0.0461711 0 0.0240289)
(-0.0512467 0 0.0222618)
(-0.0618596 0 0.021929)
(-0.074173 0 0.0207803)
(-0.085953 0 0.0183251)
(-0.10013 0 0.0148686)
(-0.112592 0 0.0106992)
(-0.127273 0 0.00579652)
(-0.0415082 0 0.0261071)
(-0.036657 0 0.0261006)
(-0.0321331 0 0.0247087)
(-0.0281044 0 0.0267272)
(-0.0244082 0 0.0305189)
(-0.0200144 0 0.0261626)
(-0.0160252 0 0.0193081)
(-0.0655735 0 0.0245464)
(-0.114764 0 0.0261422)
(-0.0772146 0 0.0232603)
(-0.0358353 0 0.0253713)
(-0.0239924 0 0.0262062)
(-0.0149522 0 0.0244412)
(-0.0118188 0 0.0245982)
(-0.00926329 0 0.0249124)
(-0.006817 0 0.0229644)
(-0.004798 0 0.0218756)
(-0.00321344 0 0.0214932)
(-0.00202383 0 0.0210719)
(-0.00106577 0 0.0202113)
(-0.0004186 0 0.0197972)
(-0.043376 0 0.0298172)
(-0.0488727 0 0.0296424)
(-0.059648 0 0.0291429)
(-0.0721558 0 0.028663)
(-0.0843103 0 0.0275203)
(-0.0988481 0 0.0251663)
(-0.11182 0 0.0215106)
(-0.126993 0 0.0167497)
(-0.139454 0 0.0116267)
(-0.154019 0 0.00577701)
(-0.0383433 0 0.0284107)
(-0.0337479 0 0.0308953)
(-0.0294889 0 0.0353318)
(-0.0244683 0 0.030581)
(-0.0198677 0 0.0229464)
(-0.0691625 0 0.0290257)
(-0.118433 0 0.0308865)
(-0.0857363 0 0.0272315)
(-0.0474942 0 0.0293565)
(-0.0311467 0 0.0316451)
(-0.0189988 0 0.0299217)
(-0.0152193 0 0.0290651)
(-0.0120666 0 0.0287904)
(-0.00911779 0 0.0265438)
(-0.00664045 0 0.0251259)
(-0.0045977 0 0.0242205)
(-0.00298463 0 0.0233712)
(-0.0016644 0 0.0221367)
(-0.000692559 0 0.0213826)
(-0.0401962 0 0.0354142)
(-0.0454642 0 0.0323723)
(-0.0565741 0 0.036284)
(-0.0695709 0 0.0384681)
(-0.082051 0 0.0367388)
(-0.0968936 0 0.0347058)
(-0.110396 0 0.0324388)
(-0.126002 0 0.0286699)
(-0.139178 0 0.0236799)
(-0.154721 0 0.0173484)
(-0.166262 0 0.0110386)
(-0.177532 0 0.00370404)
(-0.0354036 0 0.0405533)
(-0.029735 0 0.0354618)
(-0.0244801 0 0.0271002)
(-0.0732189 0 0.0340796)
(-0.122267 0 0.0362228)
(-0.0963952 0 0.0318828)
(-0.0628105 0 0.0341987)
(-0.0400442 0 0.0384426)
(-0.0232962 0 0.0369537)
(-0.0188447 0 0.0347358)
(-0.0151006 0 0.0338292)
(-0.0116218 0 0.0312086)
(-0.00866278 0 0.0294026)
(-0.00614536 0 0.0279474)
(-0.00408558 0 0.0266289)
(-0.00235835 0 0.0249711)
(-0.00102434 0 0.0238056)
(-0.0358917 0 0.040807)
(-0.0422649 0 0.0460634)
(-0.0530096 0 0.0432672)
(-0.0657047 0 0.0423852)
(-0.0788204 0 0.0460069)
(-0.094442 0 0.0469949)
(-0.108449 0 0.0435153)
(-0.124416 0 0.039518)
(-0.138244 0 0.0359486)
(-0.154224 0 0.0307707)
(-0.167043 0 0.0243166)
(-0.183003 0 0.0152079)
(-0.190449 0 0.00701586)
(-0.191367 0 -0.00409516)
(-0.0299891 0 0.0318084)
(-0.0778534 0 0.039715)
(-0.126361 0 0.0421498)
(-0.109748 0 0.0371845)
(-0.082613 0 0.0397656)
(-0.0510225 0 0.0466383)
(-0.0276802 0 0.0457304)
(-0.0226169 0 0.0416517)
(-0.0182788 0 0.0400668)
(-0.0142769 0 0.0370216)
(-0.0108349 0 0.0347727)
(-0.00782458 0 0.0327431)
(-0.00530807 0 0.0309165)
(-0.00313946 0 0.0287959)
(-0.0014037 0 0.0271737)
(-0.0832135 0 0.0460269)
(-0.0366305 0 0.0370229)
(-0.0483307 0 0.0500765)
(-0.0620012 0 0.0597186)
(-0.0749518 0 0.0552543)
(-0.0905199 0 0.0522214)
(-0.10552 0 0.054811)
(-0.122509 0 0.0540779)
(-0.136942 0 0.0484971)
(-0.153282 0 0.0424801)
(-0.166718 0 0.0376075)
(-0.182534 0 0.0313649)
(-0.194453 0 0.0230063)
(-0.214537 0 0.00594919)
(-0.204172 0 -0.00506583)
(-0.182118 0 -0.0258244)
(-0.130739 0 0.048719)
(-0.126115 0 0.0430956)
(-0.107468 0 0.0459061)
(-0.0645536 0 0.0560378)
(-0.0320415 0 0.0563507)
(-0.0263342 0 0.0498882)
(-0.0214834 0 0.0475102)
(-0.0170105 0 0.0439975)
(-0.0130881 0 0.0412646)
(-0.00960547 0 0.0386422)
(-0.00663506 0 0.0362826)
(-0.00398668 0 0.0336806)
(-0.00182171 0 0.0315624)
(-0.144488 0 0.0515341)
(-0.137746 0 0.0556428)
(-0.0950019 0 0.0567755)
(-0.0560472 0 0.0510496)
(-0.070097 0 0.0644622)