/*--------------------------------*- C++ -*----------------------------------*\
| =========                 |                                                 |
| \\      /  F ield         | OpenFOAM: The Open Source CFD Toolbox           |
|  \\    /   O peration     | Version:  5.x                                   |
|   \\  /    A nd           | Web:      www.OpenFOAM.org                      |
|    \\/     M anipulation  |                                                 |
\*---------------------------------------------------------------------------*/
FoamFile
{
    version     2.0;
    format      ascii;
    class       volScalarField;
    location    "2.1";
    object      alpha.water;
}
// * * * * * * * * * * * * * * * * * * * * * * * * * * * * * * * * * * * * * //

dimensions      [0 0 0 0 0 0 0];

internalField   nonuniform List<scalar> 
12160
(
1
1
1
1
1
1
1
1
1
1
1
1
1
1
1
1
1
1
1
1
1
1
1
1
1
1
1
1
1
1
1
1
1
1
0.999996
1
1
1
1
1
1
1
0.999999
0.991721
0.52055
1
1
1
1
1
1
1
0.994528
0.569189
0.0196943
1
1
1
1
1
1
0.999999
0.996601
0.582578
0.0210917
0.000913257
1
1
1
1
1
1
0.999998
0.995753
0.608378
0.0216652
0.000372018
9.51336e-06
1
1
1
1
1
1
0.999994
0.994093
0.627685
0.0252892
7.26168e-05
2.66675e-06
7.3566e-09
1
1
1
1
1
1
0.999989
0.992422
0.646931
0.0331242
4.02602e-05
2.1303e-07
2.52765e-10
2.38639e-12
1
1
1
1
1
1
0.999985
0.991682
0.66967
0.0425912
7.14051e-05
3.04477e-08
1.3768e-10
4.60933e-13
1.65116e-17
1
1
1
1
1
1
0.999986
0.991871
0.695416
0.0566056
0.000118535
5.86958e-08
3.62555e-12
1.5326e-14
2.60517e-20
1
1
1
1
1
1
0.999988
0.99253
0.725112
0.0783341
0.000237575
1.11375e-07
1.40154e-11
1.42546e-16
7.76075e-19
1
1
1
1
1
1
0.999992
0.993505
0.756999
0.107356
0.000489831
2.59778e-07
2.93473e-11
6.35072e-16
3.0083e-21
1
1
1
1
1
1
0.999996
0.994607
0.785709
0.13886
0.00116357
5.00635e-07
8.79175e-11
1.19982e-15
1.33931e-20
1
1
1
1
1
1
0.999999
0.996033
0.808255
0.167273
0.00309171
1.06889e-06
1.92482e-10
3.6348e-15
2.64993e-20
1
1
1
1
1
1
1
0.997807
0.826446
0.188827
0.00582848
3.39297e-06
4.7666e-10
7.84919e-15
9.80531e-20
1
1
1
1
1
1
1
0.999541
0.844009
0.204676
0.00840932
1.83483e-05
1.33651e-09
2.00936e-14
2.26504e-19
1
1
1
1
1
1
1
0.999987
0.863554
0.218691
0.010361
5.03357e-05
6.32276e-09
5.5908e-14
6.36602e-19
1
1
1
1
1
1
1
1
0.884263
0.238495
0.0118258
8.35275e-05
2.98964e-08
3.12522e-13
1.75887e-18
0.999999
0.999999
1
1
1
1
1
1
0.907444
0.270784
0.0138694
0.00011179
7.39881e-08
1.53592e-12
1.34235e-17
1
1
0.999999
1
1
1
1
1
0.931046
0.320463
0.0179566
0.000143857
1.26563e-07
5.57653e-12
6.90654e-17
1
1
1
1
1
1
1
0.999999
0.95036
0.387837
0.0254618
0.000194901
1.8629e-07
1.28763e-11
2.40261e-16
1
1
1
1
1
1
1
0.999989
0.964048
0.467534
0.038124
0.000316055
2.86975e-07
2.33368e-11
5.63981e-16
1
1
1
1
1
1
1
0.999982
0.972581
0.548989
0.0577572
0.000702623
7.6838e-07
5.1876e-11
1.07353e-15
0.999999
0.999999
0.999999
1
1
1
1
0.999974
0.977447
0.621244
0.0845393
0.00167277
3.37426e-06
2.9206e-10
2.62024e-15
0.999999
0.999999
0.999999
0.999999
1
1
1
0.999965
0.979558
0.675749
0.115621
0.00346607
1.2173e-05
2.78215e-09
1.5078e-14
1
1
0.999999
0.999999
0.999999
1
1
0.999952
0.97966
0.707897
0.145314
0.00616518
3.35611e-05
1.65707e-08
1.97359e-13
1
1
1
0.999999
0.999999
0.999999
1
0.99993
0.978166
0.716817
0.166952
0.00941467
8.0789e-05
7.13993e-08
2.30115e-12
1
1
1
1
0.999999
0.999999
1
0.999884
0.974316
0.703017
0.17433
0.0122071
0.000163393
2.6042e-07
1.87789e-11
1
1
1
1
1
1
1
0.99978
0.966664
0.665486
0.163363
0.0132675
0.000252378
7.10046e-07
1.12649e-10
1
1
1
1
1
1
1
0.999543
0.953361
0.60456
0.138162
0.0119942
0.000288075
1.26635e-06
4.38961e-10
1
1
1
1
1
1
0.999999
0.999009
0.932136
0.523059
0.105955
0.00913538
0.000255162
1.47167e-06
9.07064e-10
1
1
1
1
1
1
0.999996
0.997872
0.900711
0.428331
0.0734787
0.00592166
0.000172415
1.31097e-06
1.04342e-09
1
1
1
1
1
1
0.999986
0.995677
0.858491
0.330684
0.0462695
0.00330795
8.76654e-05
8.1985e-07
9.21746e-10
1
1
1
1
1
1
0.999955
0.991649
0.807927
0.241029
0.0267088
0.00158731
3.72007e-05
3.25642e-07
5.08234e-10
1
1
1
1
1
1
0.99988
0.984948
0.746865
0.168318
0.0145597
0.000637709
1.40307e-05
9.66169e-08
1.42393e-10
1
1
1
1
1
1
0.999738
0.975329
0.677319
0.117184
0.00798971
0.000221081
4.69428e-06
2.34978e-08
2.54076e-11
1
1
1
1
1
0.999999
0.999517
0.96332
0.604673
0.0816243
0.00458483
8.08305e-05
1.36151e-06
4.70112e-09
3.2661e-12
1
1
1
1
1
0.999999
0.999208
0.949864
0.535307
0.0568383
0.00271156
3.58716e-05
3.91367e-07
8.11565e-10
3.08084e-13
0.999998
1
1
1
1
1
0.998811
0.935942
0.473777
0.0399406
0.00162411
1.91014e-05
1.25149e-07
1.43492e-10
3.02272e-14
0.998381
0.999996
1
1
1
1
1
0.922417
0.422668
0.0288587
0.00098438
1.15438e-05
4.72144e-08
2.99508e-11
4.4013e-15
0.911132
0.997626
0.999991
1
1
1
1
1
0.38221
0.0221106
0.000622916
7.50341e-06
2.12955e-08
8.02299e-12
8.33232e-16
0.351248
0.896874
0.99662
0.999988
1
1
1
1
1
0.0182293
0.000430299
4.98329e-06
1.11729e-08
2.73208e-12
2.14502e-16
0.01574
0.311862
0.883602
0.996111
0.999977
1
1
1
1
1
0.000316016
3.36482e-06
6.51387e-09
1.14107e-12
7.34822e-17
0.000211516
0.0130408
0.283386
0.8821
0.995062
0.99996
0.999999
1
1
0.999999
1
2.29654e-06
3.9585e-09
5.78367e-13
3.17254e-17
1.42541e-06
0.000123607
0.0125865
0.28202
0.877827
0.994191
0.999806
0.999994
1
0.999999
0.999999
1
2.49159e-09
3.3548e-13
1.68593e-17
1.5726e-09
6.11318e-07
0.000111913
0.0143674
0.282308
0.880596
0.989896
0.999396
0.999982
1
0.999998
1
1
1
2.09456e-13
1.01987e-17
1.41084e-13
6.01674e-10
4.3649e-07
0.000142512
0.0168015
0.29698
0.875643
0.984722
0.999073
0.999997
0.999998
1
1
1
1
1
6.64311e-18
4.96306e-18
5.25511e-14
4.80723e-10
4.72901e-07
0.000204091
0.0195788
0.311543
0.87375
0.981036
0.99984
0.999998
0.999999
1
1
1
1
1
1
1.96313e-18
6.70372e-14
4.85633e-10
6.8721e-07
0.000270955
0.0229983
0.329754
0.846441
0.990986
0.999996
0.999998
1
1
1
1
1
1
1
1
3.29974e-18
8.66195e-14
6.80411e-10
1.03694e-06
0.000348494
0.0251831
0.338797
0.834075
0.998844
0.999999
0.999999
1
1
1
1
0.999998
1
1
1
1
5.90239e-18
1.56751e-13
1.33404e-09
2.74652e-06
0.000669274
0.0395629
0.266417
0.927008
0.999998
0.999999
1
1
1
1
0.999993
0.999987
0.999977
1
1
1
1
4.55335e-17
2.02177e-11
2.19204e-07
0.000160356
0.00468288
0.0353631
0.254636
0.997317
0.999999
1
1
1
1
0.999997
0.999948
0.999817
0.999945
0.999987
0.999977
0.999795
0.999936
0.999999
1
1
1
2.02396e-13
2.20958e-08
4.36044e-05
0.00167689
0.00970298
0.0155798
0.49728
0.999796
0.999999
1
1
1
0.999998
0.999959
0.999854
0.999934
0.998868
0.999832
0.999673
0.999652
0.99993
0.999922
0.99993
0.998993
0.99991
0.999999
1
1
1
5.08399e-10
6.44194e-06
0.000636438
0.00314064
0.00974436
0.0209629
0.678607
0.99981
1
1
1
1
0.999982
0.999478
0.999491
0.999907
0.999903
0.999836
0.99854
0.998052
0.999068
0.999806
0.99962
0.999595
0.998724
0.998608
0.998619
0.998245
0.999909
0.999999
1
1
1
2.50558e-07
0.000152958
0.00135216
0.00182882
0.00345137
0.0416662
0.767917
0.999951
0.999999
1
1
0.999999
0.999985
0.999991
0.999987
1
0.999348
0.999345
0.999792
0.999757
0.999512
1
0.998524
1
0.998125
0.998052
0.998052
0.999206
0.999168
0.999209
0.999221
1
1
1
1
0.998104
1
0.998174
1
0.998609
1
0.998303
1
0.998531
1
0.998411
0.999158
0.999946
0.999999
1
1
1
1.19403e-05
0.000452032
0.000804707
8.68466e-05
0.00278664
0.0655154
0.887044
0.999933
0.999999
1
1
0.999997
1
1
1
0.999981
0.999995
0.999988
1
0.998941
0.998307
1
0.999467
1
1
0.998318
0.998809
1
0.999391
1
1
0.999864
1
0.99986
1
0.999822
1
0.999817
1
1
0.997896
1
0.997283
1
0.997985
1
0.997848
0.998052
0.998052
0.998602
0.99856
0.998672
0.998658
1
0.999999
1
1
1
0.996973
1
0.99693
1
0.998685
1
0.997433
1
0.998821
1
0.998406
1
0.997789
1
0.99785
1
0.998185
1
0.998238
0.999572
0.999948
0.999999
1
1
1
5.81605e-05
0.00036535
4.60672e-05
1.71702e-05
0.00319619
0.092783
0.860843
0.99987
0.999998
1
1
1
1
1
0.999997
1
1
1
0.999988
1
0.999988
1
0.999971
1
0.999998
1
0.999992
1
0.999992
1
1
1
1
1
0.998343
0.999098
1
1
0.999536
1
0.998336
0.998923
1
1
0.999523
1
0.999896
1
0.999888
1
0.99985
1
0.999848
1
1
0.997728
1
0.997285
1
0.998011
1
0.997774
0.998052
0.999063
0.998857
0.998842
0.998552
0.998529
0.998615
0.998895
0.99999
0.999924
0.998095
1
0.999085
1
0.998642
1
0.998833
1
0.998828
0.998506
0.999951
0.999357
1
1
0.998719
0.998148
0.999953
0.999341
1
1
1
0.997114
1
0.996814
1
0.997363
1
0.997373
1
0.997894
1
0.997775
1
0.998242
1
0.998288
0.999607
0.999922
0.999999
1
1
1
3.66019e-05
4.97754e-05
6.44008e-06
1.04847e-05
0.00369449
0.0586769
0.770168
0.993993
0.999968
1
1
0.999998
0.999999
1
1
1
1
0.999998
1
0.999998
1
1
1
1
1
1
1
1
1
1
1
1
1
1
1
0.999993
1
0.999976
1
1
1
0.999992
1
0.999994
1
1
1
1
1
1
0.997494
1
0.997316
0.999106
0.999735
0.999781
0.999762
0.99952
0.999505
0.999469
0.999514
0.999027
0.999065
0.999084
1
0.998962
0.999976
0.999202
1
0.998542
1
0.996007
1
0.998435
0.999983
0.998072
1
0.998277
1
0.997635
0.999997
0.999332
0.999998
0.998158
0.999998
0.99905
0.999998
0.99838
0.998781
0.999961
0.99999
0.999065
1
0.997491
0.998777
0.999963
0.999991
0.999054
1
1
0.997243
1
0.996915
1
0.997471
1
0.996959
0.999582
0.999899
0.999998
1
0.999999
1
1.02576e-06
7.52579e-06
1.51418e-06
8.83253e-06
0.00349877
0.0357989
0.588999
0.967112
0.999999
1
1
0.999998
0.999998
1
1
1
1
0.999999
1
0.999999
1
1
1
1
1
1
1
1
1
1
1
1
1
0.999998
1
1
1
0.99951
0.999792
0.999925
0.999895
0.999913
0.999895
0.999986
0.99997
0.999829
0.99985
0.999705
1
0.999693
1
0.99972
1
0.999708
1
0.999363
1
0.999444
1
0.999346
1
0.999434
1
0.998974
0.999978
0.998782
0.999955
0.999128
1
0.998368
1
0.996017
1
0.998632
0.999984
0.997439
1
0.998431
1
0.999009
0.999861
0.999999
0.999999
0.999997
0.999999
4.00098e-08
6.8958e-07
6.42415e-07
7.82083e-06
0.00190022
0.0209494
0.408062
0.922054
0.999875
0.999872
0.995869
0.995669
0.999997
0.999997
0.999995
0.999995
1
1
1
1
1
1
1
0.999999
1
1
1
0.999999
1
0.999998
1
0.999999
1
1
0.999999
1
1
1
1
1
1
1
1
1
1
1
1
1
0.997981
0.999458
0.999791
0.999934
0.999887
0.999967
0.999928
0.999986
0.99999
1
1
0.999768
1
0.99977
1
0.999781
1
0.999763
1
0.999417
1
0.999536
1
0.999436
1
0.999533
1
0.999207
0.999985
0.999217
1
0.998676
0.99992
0.999999
0.999997
0.999995
1
3.71269e-09
1.13251e-07
4.17364e-07
3.72532e-06
0.00117285
0.0145716
0.248326
0.783589
1
1
0.985525
0.985367
0.999996
1
1
0.999996
0.999997
1
1
0.999997
1
1
1
1
1
1
1
0.999999
1
0.999999
1
0.999999
1
0.999999
1
0.999998
1
0.999999
1
1
0.999999
1
0.99734
0.998777
0.999422
0.999668
0.999635
0.999745
0.99977
0.999943
0.99995
0.999941
0.999941
1
1
1
0.999924
1
0.999994
1
0.999936
1
0.999759
1
0.999848
1
0.999874
1
0.999893
0.999758
1
0.999778
1
0.999832
1
0.999751
1
0.999524
1
0.999579
1
0.999509
1
0.999595
1
0.999076
0.999964
0.999999
0.999993
0.999995
4.99746e-10
5.60706e-08
1.9653e-07
1.48415e-06
0.000594337
0.0227198
0.108783
0.723329
0.722987
0.491525
0.491195
0.996503
1
0.994027
1
0.996461
1
0.993962
1
0.99251
0.992831
0.999996
1
1
0.999998
0.999997
1
1
0.999998
0.99943
1
1
1
0.999277
1
0.999999
1
1
1
1
1
1
1
1
1
0.997298
0.998042
0.999248
0.999454
0.999917
0.999931
0.999978
0.999975
0.999974
0.999976
1
1
1
0.99999
0.999992
1
1
0.999985
1
0.999939
1
0.999829
1
0.999974
1
0.999859
1
0.999766
1
0.999787
1
0.999751
1
0.999819
0.999793
1
0.99973
1
0.999475
0.999995
0.999999
0.99999
1.56399e-10
3.96236e-08
5.25127e-08
3.21968e-07
0.00154408
0.0203125
0.0808832
0.0812135
0.0259152
0.025883
0.597581
0.595731
0.294879
0.295483
0.99384
1
0.991606
1
0.993822
1
0.991533
1
0.987979
0.769309
0.954459
0.861392
0.988275
0.766577
0.953435
0.860479
1
1
1
1
1
1
1
1
0.999016
1
0.99985
1
0.999024
1
0.999866
1
0.998015
0.997216
0.999365
0.998567
0.999754
0.999743
0.999901
0.999905
1
1
0.999997
1
0.999994
1
0.999996
1
0.999992
1
1
1
0.999988
1
0.999988
1
0.999999
1
0.999976
1
0.999998
1
0.999957
1
0.999996
1
1
0.999897
1
0.999818
1
0.9999
1
0.999866
0.999869
0.999999
0.999999
3.09124e-10
1.65e-08
4.99749e-09
3.35578e-07
0.00110701
0.00959657
0.0722437
0.0719414
0.0199833
0.0198947
0.402219
0.706142
0.57049
0.308202
0.508997
0.933257
0.703776
0.408674
0.932035
0.597744
0.317627
0.53094
0.150103
0.188663
0.199336
0.276876
0.148031
0.176455
0.201823
0.277972
0.990384
1
0.982568
1
0.990396
1
0.982735
1
0.975132
0.762311
0.975631
0.760688
1
0.999976
1
0.999983
0.994871
1
0.994831
1
0.999233
0.99719
0.999388
0.999029
0.998704
0.99869
0.999253
0.999293
0.999712
0.999713
0.999823
0.999838
1
0.999834
1
0.999826
1
0.999981
1
0.999849
1
0.99985
1
0.999979
0.999979
1
0.999992
1
0.99997
1
0.999911
0.999987
1
1
0.99997
1
0.999957
0.99999
1
1
0.999922
1
0.999951
1
0.999991
1
9.41248e-10
3.58636e-10
1.44922e-08
2.51297e-06
0.000218308
0.00364211
0.00365342
0.000818335
0.000819548
0.0587449
0.0580167
0.0115585
0.0115374
0.57455
0.262154
0.549431
0.814102
0.210755
0.419278
0.57477
0.275032
0.829805
0.604928
0.219034
0.46767
0.140151
0.20462
0.210442
0.352023
0.135807
0.193553
0.21627
0.358012
0.904981
0.99571
0.904692
0.99594
0.999968
0.998511
0.998614
0.999753
0.99777
0.998929
0.998955
0.999248
0.999312
0.997765
0.999852
0.998282
0.999742
0.997774
0.999853
0.998358
0.999754
0.998587
0.998951
0.999926
0.998588
0.999827
1
0.998593
0.999072
0.999946
0.998534
0.999828
1
0.999993
1
0.999197
0.999845
0.999998
1
0.999253
0.999867
0.999878
1
0.999901
1
0.999966
1
0.999936
1
0.999974
1
0.999918
1
0.999998
1.95463e-11
2.00286e-10
8.40973e-08
1.12617e-05
0.000274324
0.00131148
0.00134047
0.000286423
0.000285551
0.0321109
0.053624
0.0706722
0.0230078
0.0316816
0.0502974
0.0615792
0.0220064
0.00599407
0.00602108
0.148279
0.199001
0.205498
0.329715
0.143782
0.206394
0.209522
0.336684
0.999996
0.99993
0.998888
0.99977
0.999002
0.997773
0.997749
0.998394
0.998391
0.998948
0.998951
0.998807
0.998852
0.997752
0.999098
0.997888
0.9989
0.997761
0.999194
0.997956
0.998928
0.998582
0.998098
0.999938
0.999551
0.997864
0.998929
0.998593
0.998136
0.99964
0.999978
0.997922
0.998951
1
0.99938
1
0.999393
4.84429e-13
4.58872e-10
1.97089e-07
7.522e-05
0.000409573
0.000397279
0.000379399
0.000373707
0.00058164
0.000575764
0.000393856
0.000379813
0.0217242
0.0442251
0.0674711
0.0141522
0.020667
0.0411801
0.0638047
0.0130561
0.00173055
0.00239972
0.00395096
0.00486721
0.00174278
0.00237079
0.00388071
0.00471491
0.0987145
0.0854705
0.0949167
0.09978
0.999991
0.999867
0.999694
0.999771
0.997595
0.997713
0.997717
0.997902
0.997898
0.99861
0.998606
0.999569
0.997727
0.999495
0.997527
0.999569
0.997797
0.999537
0.99749
0.99774
0.998855
0.997481
0.99815
0.997747
0.998939
0.997537
0.998175
4.44977e-13
2.06767e-10
1.59429e-06
0.000162827
0.000585823
0.000635043
0.00043713
0.000443142
0.000823033
0.00111987
0.000582576
0.000377648
0.000414381
0.000272286
0.000785475
0.00112632
0.000585807
0.000378028
0.000392798
0.000291604
0.000558212
0.000619835
0.0118357
0.0258164
0.0254735
0.00964173
0.0122206
0.0250678
0.0277963
0.00956766
0.00272197
0.00312087
0.00264239
0.00322689
0.999951
0.999587
0.999348
0.999566
0.99738
0.99738
0.99738
0.99738
0.997714
0.997715
0.997433
0.997406
0.996298
0.999541
0.996989
0.99955
0.997523
0.999569
0.996297
0.999531
0.99701
0.999527
0.997486
0.999569
0.997718
0.999393
0.997704
0.999395
0.997623
0.998883
0.997601
0.998895
2.81242e-13
1.08252e-09
5.27374e-06
0.000207084
0.000186001
5.45311e-05
5.22636e-05
0.000770354
0.000839296
0.000550123
0.000542315
0.000339452
0.000328201
0.000405182
0.000337738
0.000301305
0.000216226
0.000340584
0.0003333
0.000321422
0.000307271
0.000301064
0.000207447
0.000210451
0.000997907
0.000239158
0.000257014
0.000397288
0.00107168
0.000255596
0.000296653
0.999797
0.998749
0.998414
0.999544
0.997622
0.997681
0.99738
0.997407
0.997426
0.997404
0.996296
0.998921
0.99871
0.996296
0.998574
0.9963
0.99871
0.996296
0.998598
0.9963
0.996296
0.99889
0.996795
0.99752
0.999391
0.999569
0.996824
0.997483
0.999346
0.999569
0.997544
0.999569
0.997503
0.999569
8.7818e-13
1.30538e-06
5.11899e-06
0.000219183
0.000184673
3.583e-05
3.54651e-05
0.000180381
0.00104397
0.00113544
0.000454903
0.00113543
0.000453962
0.000401583
0.00107973
0.00113543
0.000622488
0.00113544
0.000521889
0.000601972
0.000515064
5.17322e-05
0.000102456
5.17381e-05
7.27637e-05
0.000140204
0.000357244
0.000213867
0.000363233
0.999526
0.997483
0.998315
0.999806
0.999812
0.999176
0.99923
0.998411
0.998391
0.997518
0.997547
0.99638
0.998794
0.996517
0.998792
0.996296
0.998615
0.996344
0.9963
0.998611
0.998792
0.99649
0.998794
0.996296
0.997224
0.996296
0.99756
0.996301
0.996296
0.997558
0.997244
7.08533e-31
0.000294015
0.0221722
7.56895e-05
7.10907e-05
2.10477e-05
2.1049e-05
0.000236341
0.00113114
0.00113543
0.000358088
0.00113544
0.000274195
0.000508468
0.00113543
0.00112132
0.000519967
0.00113543
0.000304056
0.000187953
0.000233009
0.000250594
0.000795098
0.000138608
0.000217092
0.000210733
0.000668191
0.000111698
0.000521421
0.000195089
0.000559976
0.999278
0.996268
0.998854
0.999823
0.999828
0.999199
0.999268
0.998463
0.998444
0.99637
0.998753
0.999561
0.996367
0.998747
0.996367
0.996334
0.998747
0.999561
0.99633
0.998761
0.996329
0.996587
0.996719
0.99865
0.998762
0.996681
0.998739
0.996576
0.998642
0.00035716
0.0214383
0.0477775
0.0305211
0.0331447
0.0551601
0.0260988
0.0284592
0.0204354
5.79554e-05
0.000210281
0.0179434
4.67461e-05
0.000201391
0.000197131
0.0011301
0.00113544
0.000123859
0.000801092
0.000187914
0.000402192
0.00113544
0.00111825
0.000191157
0.000813564
0.000214326
7.48939e-05
0.000577666
5.94898e-05
0.000525249
0.99905
0.99499
0.998702
0.99976
0.999763
0.999102
0.99911
0.997689
0.999625
0.997683
0.999601
0.996367
0.999425
0.997617
0.99633
0.999431
0.999624
0.997612
0.999549
0.99637
0.998199
0.996671
0.998611
0.996335
0.998204
0.996689
0.998633
0.996374
0.997452
0.996358
0.997437
0.00782443
0.00596622
0.0764152
0.00389123
0.0904581
0.00328048
0.000520734
6.59586e-05
0.101364
0.00624657
0.0121153
7.88738e-05
8.75755e-05
0.146193
0.0959707
0.118609
0.00628836
0.100492
0.0124389
4.67461e-05
5.83355e-05
0.126617
0.0863398
0.130723
0.00079679
0.000106396
0.000718816
0.000105586
0.000102134
0.000815491
8.46436e-05
0.00079742
0.998725
0.992827
0.994723
0.99946
0.999527
0.994493
0.999538
0.99954
0.99895
0.997693
0.999638
0.998956
0.99762
0.999594
0.997298
0.998065
0.999603
0.999619
0.997311
0.999572
0.998071
0.999531
0.996363
0.997871
0.99681
0.99949
0.996334
0.997871
0.996828
0.9995
0.000619093
1.62362e-06
0.0091215
0.0988808
0.0902571
2.01844e-07
0.00802898
0.140088
0.0898456
1.78702e-07
3.57451e-07
2.82742e-07
0.0954282
0.117564
0.000104297
0.00166093
0.13593
0.167608
0.0957721
8.64381e-05
0.117216
0.0016308
0.126085
0.167683
0.000825687
0.000104297
0.000813051
8.64381e-05
0.998331
0.991866
0.995883
0.999529
0.99953
0.995569
0.999132
0.999125
0.99809
0.998031
0.999625
0.99798
0.999729
0.999169
0.997978
0.999497
0.998189
0.998033
0.999615
0.99795
0.999726
0.999149
0.998144
0.999483
0.997594
0.998232
0.999782
0.999733
0.997625
0.999745
0.998217
0.999698
1.13759e-07
1.40272e-08
2.48937e-08
2.50029e-08
1.90766e-08
2.25599e-08
2.38551e-08
1.88545e-08
0.02633
0.00462017
0.00357726
0.0271279
1.88545e-08
2.7218e-05
3.65167e-05
2.58774e-07
9.48342e-08
1.07455e-07
1.88545e-08
0.0202457
0.00453864
0.00405988
0.0281005
1.88545e-08
2.78111e-05
3.55125e-05
2.269e-07
1.20097e-07
8.87558e-08
0.127092
0.0429879
0.167683
0.0579227
0.126999
0.0431094
0.167608
0.0552319
0.998073
0.991863
0.994072
0.999516
0.999705
0.997947
0.999515
0.999715
0.998111
0.99378
0.998819
0.998719
0.99817
0.998178
0.998385
0.999398
0.999729
0.999364
0.998215
0.998231
0.998361
0.999721
0.999392
0.999408
0.997844
0.999758
0.997829
0.999726
1.48603e-07
8.6773e-08
8.54405e-09
8.52754e-08
8.54673e-09
3.28889e-08
3.65372e-08
0.00851176
0.000300084
0.000319177
0.00737635
1.8858e-08
1.90768e-08
1.50663e-06
2.54147e-06
2.68105e-06
1.52725e-07
2.39361e-07
1.26998e-06
1.54953e-07
2.64551e-07
0.00850701
0.000301473
0.00762817
0.000324433
1.88542e-08
1.98183e-08
2.36755e-06
1.14035e-06
2.53821e-06
1.46611e-07
1.96297e-07
1.06267e-06
1.09218e-07
2.13339e-07
0.99823
0.99223
0.992894
0.992795
0.991798
0.991962
0.991902
0.999306
0.999786
0.997956
0.999758
0.997881
0.999998
0.998686
0.999918
0.999229
0.999832
0.998128
0.999827
0.998079
0.999998
0.998769
0.999967
0.997893
0.999355
0.999997
0.997703
0.999314
0.999998
0.997949
0.997856
0.999283
0.999378
0.997996
0.998011
0.999275
0.99946
2.3075e-06
1.62189e-07
8.86692e-07
1.09461e-06
3.08246e-08
1.29995e-07
6.62412e-07
6.97627e-07
2.27777e-08
2.48523e-07
2.77814e-07
1.88541e-08
1.88541e-08
9.06323e-08
1.33801e-07
6.11453e-06
5.8246e-06
4.46954e-06
6.46895e-06
4.5529e-06
4.10923e-06
1.88541e-08
1.88541e-08
9.33888e-08
1.1715e-07
5.66946e-06
4.4166e-06
4.74733e-06
6.31009e-06
4.28868e-06
3.61885e-06
0.998831
0.989874
0.99165
0.991654
0.989653
0.992535
0.992448
0.997592
0.998261
0.99938
0.999385
0.998665
0.999827
0.997724
0.998431
0.999511
0.99958
0.998751
0.999886
0.994341
0.998925
0.999996
0.999163
0.99998
0.99967
0.988814
0.999664
0.994067
0.998968
0.999996
0.999144
0.999986
0.999678
0.988592
0.999669
5.7047e-06
1.0427e-06
1.01968e-06
2.89782e-07
1.68108e-06
3.24347e-06
2.12574e-06
2.73973e-06
7.1849e-07
2.25575e-07
1.29464e-06
2.56742e-06
1.74976e-06
1.85885e-06
4.75216e-07
1.10661e-05
1.0767e-05
1.15939e-05
1.37468e-05
1.18836e-05
8.59805e-06
1.10689e-05
1.04571e-05
9.9211e-06
1.33954e-05
1.11807e-05
7.8012e-06
0.998795
0.98998
0.993506
0.998533
0.988886
0.99345
0.998546
0.988666
0.989593
0.991039
0.991004
0.998049
0.999393
0.998506
0.999643
0.998214
0.999572
0.99859
0.999681
0.997869
0.990861
0.998923
0.999886
0.999809
0.998296
0.997834
0.990646
0.99901
0.999818
0.999891
0.998343
1.26284e-14
6.37405e-06
7.69039e-06
4.86791e-06
5.76147e-06
8.61815e-07
4.62671e-06
3.3354e-06
2.67227e-06
4.84872e-06
1.47746e-05
1.37108e-05
1.35223e-05
6.29662e-07
4.0353e-06
2.73789e-06
2.28289e-06
3.64261e-06
1.33871e-05
1.27701e-05
9.04943e-06
1.51155e-05
2.25099e-05
1.50449e-05
2.10059e-05
0.999119
0.989193
0.989015
0.995541
0.997676
0.992198
0.998339
0.988588
0.995457
0.997661
0.991677
0.998293
0.9883
0.988486
0.988297
0.994412
0.998565
0.988654
0.999545
0.999814
0.996963
0.994047
0.998672
0.988365
0.999823
0.999578
0.997015
2.36644e-19
1.18265e-28
4.40746e-13
1.02468e-28
3.05295e-13
3.11002e-05
2.16779e-05
1.60071e-05
4.49708e-06
1.41628e-06
2.99903e-06
3.39301e-06
2.33003e-05
1.56333e-05
1.79031e-05
1.68549e-05
1.85721e-05
3.65905e-05
1.0574e-05
3.81763e-06
1.10193e-06
2.34324e-06
2.41519e-06
2.22906e-05
1.42522e-05
1.69719e-05
1.51599e-05
1.83486e-05
3.55731e-05
0.998829
0.991271
0.992061
0.990797
0.991703
0.991392
0.999144
0.995131
0.998922
0.997304
0.98881
0.995735
0.991247
0.999144
0.994828
0.998903
0.997182
0.988458
0.995737
0.986385
0.986064
0.991024
0.99858
0.99047
0.998577
2.70871e-16
9.79068e-17
9.24857e-35
2.06732e-17
1.50487e-34
1.01744e-06
1.70822e-09
7.6429e-07
1.09378e-09
6.11519e-05
4.93664e-05
4.49546e-06
3.20035e-06
1.83296e-06
9.30125e-06
2.00769e-05
1.11364e-05
1.41837e-05
1.46891e-05
4.49716e-05
1.92808e-05
4.21248e-05
1.93444e-05
3.63156e-06
1.76382e-06
1.78587e-06
5.66473e-06
1.86675e-05
9.78724e-06
1.28057e-05
1.26126e-05
4.41045e-05
1.88126e-05
4.12021e-05
1.90055e-05
0.998866
0.990509
0.990596
0.990461
0.990394
0.989819
0.989347
0.984225
0.999144
0.995703
0.999144
0.996787
0.999009
0.991509
0.996118
0.996033
0.988687
0.995866
0.984178
0.999144
0.995383
0.999144
0.996642
0.999003
0.991252
0.996233
0.995835
0.988081
0.995658
7.4516e-16
4.39544e-16
2.88888e-16
4.40143e-16
2.96549e-16
1.28349e-10
6.03102e-13
8.01474e-11
4.25668e-13
2.79006e-05
2.6174e-06
2.07609e-05
1.93713e-06
2.11764e-05
3.62088e-05
6.10464e-05
3.45353e-05
1.23217e-05
2.65653e-05
3.30575e-05
2.34584e-05
1.69513e-06
5.04026e-06
5.58124e-06
2.54083e-06
1.68763e-06
4.46713e-06
4.72888e-06
1.78557e-06
0.998915
0.989673
0.990326
0.989656
0.990295
0.992249
0.992082
0.992266
0.992187
0.98626
0.985759
0.997079
0.989201
0.998257
0.983741
0.999144
0.995926
0.999144
0.996251
0.998369
0.991086
0.995253
0.995101
0.99699
0.988975
0.998231
0.983291
0.999144
0.995526
0.999144
0.996033
0.998142
0.990681
0.995105
0.994787
6.43049e-12
1.3954e-40
1.1978e-15
8.11091e-16
1.16737e-15
5.85012e-16
3.13577e-08
2.39669e-11
2.2183e-08
4.9252e-12
2.30418e-05
1.79161e-05
4.54272e-05
1.73437e-05
8.84715e-06
5.09122e-07
1.0845e-06
3.19996e-06
1.96007e-05
1.38047e-05
3.05506e-05
1.16418e-05
7.88634e-06
3.62287e-07
1.16093e-06
1.8238e-06
3.34442e-06
1.11416e-05
8.14155e-06
7.79166e-06
2.65439e-06
7.04162e-06
6.3528e-06
4.43307e-06
0.998343
0.990021
0.990927
0.989878
0.990574
0.989167
0.988815
0.989328
0.988792
0.993321
0.99373
0.993048
0.99374
0.99551
0.978919
0.99615
0.973908
0.995201
0.978119
0.995929
0.974091
0.995992
0.990754
0.998199
0.985299
0.996009
0.990477
0.998148
0.98541
3.52704e-10
1.67221e-12
1.91883e-11
1.53773e-12
1.82956e-11
-9.39909e-47
1.17259e-15
7.05023e-13
1.16998e-15
5.68382e-13
1.92573e-11
1.88111e-08
3.38251e-08
1.9223e-11
4.83732e-11
7.40845e-12
2.93024e-11
1.92046e-11
5.4015e-11
1.50762e-08
4.16816e-08
1.95607e-11
5.42094e-11
9.02305e-12
3.00802e-11
5.44322e-11
1.21778e-05
5.68303e-06
1.41459e-05
5.04312e-06
5.97568e-06
1.57331e-07
1.22787e-06
1.62663e-06
9.07233e-06
4.60155e-06
1.01619e-05
3.27379e-06
5.40772e-06
7.57205e-08
1.41787e-06
9.09744e-07
0.997396
0.991986
0.989884
0.990916
0.989759
0.990769
0.989158
0.988926
0.989174
0.988716
0.997724
0.988162
0.997724
0.990998
0.997724
0.990105
0.997724
0.992537
0.997724
0.986595
0.997724
0.990277
0.997724
0.989916
0.997724
0.992376
0.98887
0.973627
0.985129
0.973963
0.989142
0.973784
0.984721
0.974162
6.92905e-11
5.32881e-10
3.53935e-10
5.28401e-10
3.53935e-10
7.57518e-12
1.47648e-11
7.32262e-12
2.52009e-11
1.91035e-14
1.65039e-12
1.0052e-12
5.44168e-12
3.22482e-14
2.7149e-12
6.58477e-13
2.4307e-12
5.82538e-13
1.28922e-12
3.97496e-13
5.4865e-12
7.99941e-15
2.11232e-12
5.30409e-13
2.04151e-12
4.73056e-13
1.93074e-11
1.37082e-08
8.46274e-08
1.92573e-11
1.52476e-10
1.1399e-11
5.88376e-11
2.24571e-11
1.93738e-11
6.74918e-09
1.11517e-07
1.94588e-11
1.42568e-10
2.29059e-11
6.35984e-11
4.80669e-11
0.997197
0.991338
0.995944
0.995724
0.9957
0.995318
0.991333
0.994527
0.990996
0.994216
0.996992
0.985135
0.99698
0.984826
0.998229
0.992464
0.999355
0.988637
0.996687
0.984247
0.99677
0.984137
0.998092
0.991822
0.999267
0.98794
0.997492
0.982272
0.994191
0.986474
0.997724
0.989158
0.996797
0.989682
0.99723
0.980995
0.993544
0.985629
0.997724
0.9891
0.996711
0.989452
1.898e-06
1.91542e-14
1.50853e-09
1.13217e-07
1.27363e-09
1.12876e-07
9.24267e-12
9.53492e-13
1.47821e-11
1.23613e-11
2.21663e-11
5.5893e-12
1.15931e-10
8.92556e-11
2.65421e-11
7.03629e-11
7.74779e-12
5.76405e-13
1.22958e-11
1.16519e-11
2.02505e-11
4.42962e-12
1.26415e-10
9.66041e-11
3.66027e-11
7.10752e-11
3.70235e-14
4.80797e-12
1.9249e-12
1.2699e-11
1.84246e-13
5.28887e-12
5.01645e-13
3.80359e-12
2.78154e-12
1.31546e-11
1.16158e-13
4.05139e-12
3.75675e-13
1.00485e-10
1.10081e-11
5.22744e-11
1.55365e-11
9.99783e-11
2.57475e-11
5.57475e-11
3.27915e-11
0.997773
0.991326
0.995627
0.993926
0.995151
0.993178
0.998511
0.998742
0.998223
0.99852
1
0.994707
0.999851
0.995513
1
0.996399
1
0.996437
1
0.994189
0.999777
0.995116
1
0.996004
1
0.996183
0.992995
0.985011
0.99324
0.984522
0.999105
0.992928
0.999915
0.990944
0.992502
0.984755
0.992801
0.984112
0.998864
0.992256
0.999815
0.990375
6.0025e-07
2.01416e-06
4.22172e-06
1.94499e-06
4.42856e-06
1.67491e-11
9.28481e-10
1.64392e-07
4.66046e-10
1.3857e-07
5.61153e-13
1.16216e-11
8.3822e-12
2.2425e-11
1.48942e-11
3.33474e-11
2.05985e-10
1.04736e-10
1.49938e-11
6.34252e-11
4.11469e-13
9.41239e-12
6.74449e-12
1.80515e-11
1.40368e-11
2.91109e-11
2.28346e-10
1.14873e-10
1.6853e-11
5.98579e-11
1.96376e-13
9.17459e-12
3.43414e-12
2.09665e-11
7.23067e-13
8.25051e-12
5.5446e-13
8.41674e-12
7.33509e-12
2.27701e-11
8.40469e-13
6.48368e-12
4.06239e-13
0.998933
0.992224
0.997322
0.998987
0.999327
0.998837
0.999184
0.997292
0.99566
1
0.997913
1
1
0.999123
1
0.99872
1
0.994936
0.996751
1
0.997373
1
1
0.998879
1
0.998469
1
0.999955
0.993273
0.999942
0.993872
0.999984
0.994851
0.999901
0.992636
0.999852
0.993184
0.999971
0.994274
0.999999
0.991783
0.999996
0.991149
0.999999
0.991009
0.999965
0.990578
1.58255e-07
2.58618e-06
1.18073e-06
2.70236e-06
1.20274e-06
1.08598e-06
9.00174e-06
1.0035e-06
8.8508e-06
1.31343e-10
6.80772e-10
2.42892e-10
2.41444e-10
8.00881e-10
8.23498e-09
1.45944e-07
5.79513e-08
4.02424e-09
9.54289e-10
2.44355e-10
2.42892e-10
1.38665e-09
3.79039e-09
1.19921e-07
4.67366e-08
1.38929e-09
1.8233e-12
1.23522e-11
3.08662e-10
2.39998e-10
7.9261e-11
9.86992e-11
1.22068e-12
1.00207e-11
3.20142e-10
2.47733e-10
9.80173e-11
9.20692e-11
2.88098e-13
0.999731
0.996588
0.9971
0.99963
0.999654
0.999504
0.999464
0.9999
0.999844
0.999872
0.999841
0.997309
0.997938
1
1
0.998289
1
0.999437
1
0.999078
1
0.996586
0.997542
0.999999
1
0.998135
1
0.999429
1
0.998969
1
0.999997
0.992566
0.999992
0.993625
0.999999
0.994601
0.999989
0.991746
0.999967
0.992751
0.999996
0.993753
8.89342e-06
1.55465e-07
9.38822e-06
7.869e-06
1.07118e-05
8.41731e-06
1.16028e-08
9.29589e-08
2.77108e-08
6.44061e-07
1.91778e-07
1.07076e-08
6.67896e-06
4.55038e-06
4.8255e-06
1.53833e-06
1.14003e-08
6.61714e-08
2.16999e-08
5.75814e-07
1.67899e-07
7.71498e-09
6.52056e-06
4.40004e-06
4.42296e-06
1.33199e-06
2.07281e-10
3.81972e-09
3.41429e-10
3.73523e-10
1.66417e-09
3.09206e-09
1.68792e-09
3.97011e-09
4.26688e-10
4.65896e-10
1.51295e-09
2.84257e-09
1.39207e-09
1.47559e-13
0.99996
0.999082
0.997055
0.999616
0.999321
0.999499
0.99925
0.99991
0.999938
0.999813
0.999771
1
0.999838
1
0.999658
1
0.99942
1
0.999423
1
0.999774
1
0.999652
1
0.999519
1
0.999522
0.99793
1
0.999839
1
0.999593
1
0.997428
1
0.999835
1
0.999544
1
8.60822e-05
2.88395e-05
7.33589e-05
2.84992e-05
6.78942e-05
6.81326e-08
2.3374e-05
2.90063e-05
2.37024e-05
2.86874e-05
8.52148e-08
1.15676e-08
5.93742e-08
1.14386e-08
2.77064e-07
5.78264e-08
6.28295e-06
1.47264e-06
2.03437e-06
8.49457e-07
5.97409e-08
1.12745e-08
4.64204e-08
1.14003e-08
2.31679e-07
5.01517e-08
6.07397e-06
1.3916e-06
1.7446e-06
6.92209e-07
1.49793e-10
1.22547e-08
1.80525e-08
8.33288e-09
8.72126e-09
1.16801e-12
0.999994
0.999802
0.998598
0.999679
0.999809
0.999815
0.99972
0.999812
0.999648
0.999534
1
0.999687
1
1