/*--------------------------------*- C++ -*----------------------------------*\
| =========                 |                                                 |
| \\      /  F ield         | OpenFOAM: The Open Source CFD Toolbox           |
|  \\    /   O peration     | Version:  5.x                                   |
|   \\  /    A nd           | Web:      www.OpenFOAM.org                      |
|    \\/     M anipulation  |                                                 |
\*---------------------------------------------------------------------------*/
FoamFile
{
    version     2.0;
    format      ascii;
    class       surfaceScalarField;
    location    "2.1";
    object      alphaPhi10;
}
// * * * * * * * * * * * * * * * * * * * * * * * * * * * * * * * * * * * * * //

dimensions      [0 3 -1 0 0 0 0];

internalField   nonuniform List<scalar> 
30582
(
0.000202178
-4.08539e-06
0.000206004
-3.82565e-06
0.000202068
-8.03528e-06
0.000206018
-1.50206e-08
0.000205861
-7.61881e-06
0.000201272
-1.1134e-05
0.000200822
5.19667e-06
0.000205686
1.59607e-07
0.00020526
-1.16071e-05
0.000200055
-1.29359e-05
0.000192844
7.9776e-06
0.000200188
1.06949e-05
0.000205837
-4.1739e-07
0.000203277
-1.48299e-05
0.000198136
-1.27158e-05
0.000183424
9.42052e-06
0.000192235
1.59307e-05
0.000200747
1.57849e-05
0.000202211
6.48809e-07
0.000201706
-1.83995e-05
0.000194085
-8.30853e-06
0.000173801
9.62284e-06
0.00018322
1.8435e-05
0.000193111
2.3567e-05
0.000197322
2.06747e-05
0.000201946
4.08288e-07
0.000195548
-1.98627e-05
0.000191227
-8.83175e-07
0.000162944
1.08565e-05
0.000173896
1.89474e-05
0.000184037
2.75083e-05
0.000190217
3.0672e-05
0.000197845
2.4776e-05
0.000192707
3.24959e-06
0.000194262
-2.28952e-05
0.000175235
2.27175e-05
0.000150226
1.27182e-05
0.000163374
2.13786e-05
0.000174751
2.82339e-05
0.000182376
3.53491e-05
0.000191839
3.66779e-05
0.000190168
2.73151e-05
0.000193667
3.84503e-06
0.000169772
-1.54706e-05
4.91668e-05
-6.19766e-06
0.000134802
1.54243e-05
0.000150918
2.5174e-05
0.000164592
3.15373e-05
0.00017428
3.63297e-05
0.000184427
4.27615e-05
0.000186496
4.03499e-05
0.000192174
2.88083e-05
0.000169108
5.09945e-06
5.79916e-05
-1.76017e-06
-5.34843e-06
1.06639e-07
0.000116422
1.83803e-05
0.000135636
3.07067e-05
0.0001524
3.73663e-05
0.000165213
4.06047e-05
0.00017637
4.43867e-05
0.000181542
4.77156e-05
0.000188613
4.39104e-05
0.000172394
2.53491e-05
7.34998e-05
-1.40067e-06
-6.95273e-06
3.08747e-08
1.72654e-07
-5.42334e-10
9.55134e-05
2.09081e-05
0.000117229
3.67867e-05
0.000137236
4.5871e-05
0.000153826
4.87527e-05
0.000167488
4.94861e-05
0.000175688
5.02407e-05
0.000183145
5.31833e-05
0.000175008
4.04187e-05
9.33284e-05
-5.08555e-08
-8.50569e-06
2.11231e-08
3.08504e-08
3.65838e-10
7.90414e-10
-2.25295e-12
7.31725e-05
2.23409e-05
9.60822e-05
4.20551e-05
0.000118684
5.53378e-05
0.00013914
6.05569e-05
0.000156592
5.96486e-05
0.000168696
5.64773e-05
0.000177306
5.60778e-05
0.000175441
5.13102e-05
0.000108616
7.55504e-06
-9.49801e-06
-5.31255e-09
-1.73469e-09
5.87444e-11
1.03067e-10
3.48244e-13
-5.61405e-14
2.91292e-16
5.10212e-05
2.21514e-05
7.33366e-05
4.50866e-05
9.71333e-05
6.36063e-05
0.00012055
7.39285e-05
0.000142327
7.48225e-05
0.000159467
6.88779e-05
0.000170606
6.31744e-05
0.000174807
5.49734e-05
0.000122549
1.34491e-05
-8.55139e-06
-1.68936e-08
-6.37631e-09
2.25692e-12
3.41949e-12
1.75819e-13
-2.197e-14
-3.40162e-17
2.20287e-16
-7.26076e-22
3.07607e-05
2.02605e-05
5.06612e-05
4.48267e-05
7.38384e-05
6.83815e-05
9.83139e-05
8.58421e-05
0.000123589
9.26659e-05
0.000146211
8.80785e-05
0.000162386
7.7094e-05
0.000172933
6.31404e-05
0.000136324
1.64356e-05
-6.6046e-06
-2.14348e-08
-1.3443e-08
-6.87766e-12
2.17112e-12
1.0642e-15
-3.22762e-17
1.66401e-17
8.67546e-18
-1.72203e-24
-2.5741e-24
1.34626e-05
1.72981e-05
2.98254e-05
4.10963e-05
5.05048e-05
6.81603e-05
7.37099e-05
9.29855e-05
0.000100539
0.000108892
0.000127433
0.000111444
0.000150057
0.000100404
0.000169152
7.86859e-05
0.000151894
1.98938e-05
-2.43218e-06
-4.40211e-08
-2.7685e-08
-1.33073e-11
3.55797e-12
-5.81311e-16
4.01466e-17
4.96133e-20
2.71418e-20
1.85452e-21
-6.81053e-23
1.80439e-07
1.32821e-05
1.22811e-05
3.48425e-05
2.88792e-05
6.27219e-05
4.88562e-05
9.30139e-05
7.47136e-05
0.000118811
0.000103103
0.000133222
0.000131158
0.000130339
0.000160398
0.000106572
0.000167265
2.7683e-05
7.04375e-06
-9.74813e-08
-5.89645e-08
-3.34016e-11
6.5847e-12
-3.30259e-15
1.76391e-16
-1.7463e-20
3.93291e-21
3.84126e-24
-9.56882e-26
-8.37081e-06
8.55125e-06
-8.87498e-07
2.64507e-05
1.05696e-05
5.31521e-05
2.59634e-05
8.56148e-05
4.84605e-05
0.000119267
7.49922e-05
0.000146922
0.000105428
0.000158949
0.00014297
0.000144778
0.000176295
4.43825e-05
2.08868e-05
-7.89538e-08
-1.20533e-07
-1.09501e-10
1.568e-11
-1.14996e-14
5.82344e-16
-1.31364e-19
6.07554e-21
3.1543e-24
-6.28046e-26
-1.2552e-05
4.18123e-06
-9.50172e-06
1.71655e-05
-3.16647e-06
4.01867e-05
6.87559e-06
7.22399e-05
2.39872e-05
0.000110088
4.60049e-05
0.000148254
7.50622e-05
0.000177286
0.000116204
0.000182625
0.00017212
7.01452e-05
3.51587e-05
1.15751e-06
-1.7755e-07
-3.58372e-10
3.12553e-11
-4.32797e-14
2.60393e-15
-5.02023e-19
-3.24583e-21
-2.74493e-24
6.11016e-26
-1.25494e-05
-2.65374e-09
-1.34609e-05
8.14039e-06
-1.20578e-05
2.60568e-05
-7.14234e-06
5.42046e-05
3.36164e-06
9.28654e-05
1.90822e-05
0.000137011
4.3692e-05
0.000179624
8.23292e-05
0.000208631
0.000154467
9.75316e-05
4.39688e-05
4.46181e-06
2.59135e-07
-1.04775e-09
7.3544e-11
-1.61828e-13
5.28606e-15
-1.65166e-18
-2.70904e-20
-1.35773e-23
2.92395e-25
-8.98433e-06
-3.56506e-06
-1.35765e-05
1.1294e-07
-1.63275e-05
1.241e-05
-1.59177e-05
3.48321e-05
-1.17525e-05
6.93188e-05
-2.89684e-06
0.000114844
1.44288e-05
0.000166274
4.51966e-05
0.000215362
0.000125643
0.000123788
4.46128e-05
8.59894e-06
1.09585e-06
1.04064e-08
2.54007e-10
-4.06693e-13
-2.8925e-15
-5.21164e-18
-8.10306e-20
-4.91175e-23
1.51213e-24
-2.39039e-06
-6.59394e-06
-9.92374e-06
-7.2178e-06
-1.5894e-05
-3.2048e-07
-1.95739e-05
1.60662e-05
-2.10526e-05
4.41323e-05
-1.86704e-05
8.50923e-05
-9.93593e-06
0.000139209
9.15223e-06
0.000202067
8.93247e-05
0.000140673
3.85786e-05
1.22493e-05
1.64302e-06
7.73611e-08
1.95743e-09
1.73492e-12
-8.42656e-14
-1.13805e-17
-3.14847e-19
-1.59441e-22
2.2738e-24
6.60325e-06
-8.99363e-06
-3.22068e-06
-1.3297e-05
-1.19898e-05
-1.1122e-05
-1.93427e-05
-5.5166e-07
-2.49609e-05
1.99745e-05
-2.77584e-05
5.32203e-05
-2.7111e-05
0.000102267
-2.01634e-05
0.000168518
5.16247e-05
0.000144591
2.96852e-05
1.45099e-05
1.54023e-06
1.66971e-07
6.34656e-09
5.49492e-11
-6.30049e-13
1.11221e-16
-2.16706e-18
-3.175e-22
-1.70082e-24
1.75166e-05
-1.09134e-05
5.90858e-06
-1.81229e-05
-5.02675e-06
-2.026e-05
-1.50035e-05
-1.54612e-05
-2.38592e-05
-1.65336e-06
-3.10391e-05
2.32553e-05
-3.64025e-05
6.25118e-05
-3.97191e-05
0.000121823
1.94743e-05
0.000131252
2.14021e-05
1.55832e-05
7.71428e-07
2.41887e-07
1.22014e-08
1.98778e-10
-6.67757e-13
2.67774e-15
-1.59451e-17
7.01291e-21
-5.93059e-23
2.98139e-05
-1.22973e-05
1.6976e-05
-2.19808e-05
4.43777e-06
-2.75874e-05
-7.56063e-06
-2.77029e-05
-1.91819e-05
-2.01385e-05
-2.97535e-05
-2.93892e-06
-3.88259e-05
2.56786e-05
-4.96498e-05
7.24424e-05
-4.69588e-06
0.000104472
1.4565e-05
1.57213e-05
-3.94024e-07
2.965e-07
1.93274e-08
3.7693e-10
2.91851e-12
1.63767e-14
-6.8396e-17
1.24273e-19
-5.16062e-22
4.29481e-05
-1.31342e-05
2.94119e-05
-2.47331e-05
1.58283e-05
-3.33713e-05
2.38662e-06
-3.75347e-05
-1.12336e-05
-3.56512e-05
-2.42184e-05
-2.56736e-05
-3.62392e-05
-5.52556e-06
-5.24901e-05
2.8519e-05
-2.19786e-05
7.00885e-05
1.07941e-05
1.4455e-05
-1.59361e-06
3.37331e-07
2.91321e-08
5.22668e-10
1.2118e-11
4.38423e-14
-8.15231e-17
7.07846e-19
-1.96371e-21
5.64074e-05
-1.34593e-05
4.27513e-05
-2.64735e-05
2.86028e-05
-3.75076e-05
1.41769e-05
-4.51616e-05
-6.69861e-07
-4.80984e-05
-1.53611e-05
-4.45086e-05
-2.98003e-05
-3.21122e-05
-5.05178e-05
-7.47619e-06
-3.13657e-05
3.15647e-05
1.04324e-05
1.14812e-05
-2.62135e-06
3.45898e-07
4.15717e-08
6.10711e-10
2.81726e-11
7.27064e-14
9.18885e-17
1.98691e-18
-3.44276e-21
6.96904e-05
-1.3283e-05
5.64029e-05
-2.7111e-05
4.22377e-05
-4.01084e-05
2.74943e-05
-5.0825e-05
1.17672e-05
-5.75987e-05
-4.02083e-06
-5.94386e-05
-2.02737e-05
-5.40352e-05
-4.34749e-05
-3.90776e-05
-3.52571e-05
-3.17156e-06
1.19571e-05
6.28603e-06
-3.26138e-06
2.86123e-07
5.15404e-08
9.02253e-10
5.94749e-11
1.07365e-13
4.88386e-16
3.57431e-18
2.69637e-22
8.23398e-05
-1.26494e-05
6.98855e-05
-2.67656e-05
5.62447e-05
-4.11181e-05
4.17454e-05
-5.43595e-05
2.57817e-05
-6.48395e-05
9.09428e-06
-7.07138e-05
-8.50946e-06
-7.12028e-05
-3.22294e-05
-6.51787e-05
-3.30845e-05
-3.62143e-05
1.30206e-05
-7.48297e-07
-3.29246e-06
9.55238e-08
3.0795e-08
2.24015e-09
2.2355e-10
3.77509e-13
2.02919e-15
6.6119e-18
1.3671e-20
9.3918e-05
-1.15782e-05
8.27006e-05
-2.54645e-05
7.01089e-05
-4.06299e-05
5.64247e-05
-5.57975e-05
4.06945e-05
-6.92723e-05
2.37697e-05
-7.95149e-05
5.10912e-06
-8.43324e-05
-1.67479e-05
-8.65613e-05
-2.65937e-05
-6.49566e-05
1.14472e-05
-1.33631e-05
-2.71549e-06
-2.58737e-07
-1.08498e-07
4.38638e-09
1.12356e-09
2.53783e-12
2.35911e-14
2.73615e-17
4.33812e-20
0.000104135
-1.02174e-05
9.44378e-05
-2.33154e-05
8.33605e-05
-3.87161e-05
7.09531e-05
-5.51583e-05
5.5988e-05
-7.1091e-05
3.96625e-05
-8.51651e-05
2.06213e-05
-9.50271e-05
2.10938e-06
-0.000103041
-1.62114e-05
-8.94027e-05
6.49233e-06
-2.7752e-05
-2.13774e-06
-9.66974e-07
-3.64277e-07
1.30676e-09
3.80645e-09
8.32563e-12
3.67872e-13
2.96231e-16
6.76921e-20
0.000112716
-8.58036e-06
0.000104729
-2.05086e-05
9.55096e-05
-3.54645e-05
8.47248e-05
-5.24878e-05
7.11774e-05
-7.03477e-05
5.62057e-05
-8.76343e-05
3.77314e-05
-0.000102275
2.22549e-05
-0.000114991
-3.01961e-06
-0.00010776
-2.50546e-06
-4.08709e-05
-2.36295e-06
-2.00583e-06
-6.32794e-07
-1.1335e-08
8.78113e-09
1.11853e-11
2.63092e-12
1.68486e-15
-3.39794e-18
0.000119506
-6.79016e-06
0.000113377
-1.72284e-05
0.000106155
-3.11541e-05
9.72795e-05
-4.80192e-05
8.58099e-05
-6.71202e-05
7.27405e-05
-8.68826e-05
5.54669e-05
-0.00010537
4.18329e-05
-0.000121618
1.00028e-05
-0.000117895
-1.37968e-05
-5.04189e-05
-3.62705e-06
-3.12445e-06
-7.84103e-07
-3.82855e-08
1.46698e-08
2.65326e-12
1.11862e-11
4.85815e-15
-6.21911e-17
0.000124412
-4.90568e-06
0.000120212
-1.36248e-05
0.000115011
-2.60843e-05
0.000108244
-4.21184e-05
9.92628e-05
-6.14721e-05
8.84768e-05
-8.28566e-05
7.31216e-05
-0.000104537
6.08385e-05
-0.000124036
2.2207e-05
-0.000120839
-2.09118e-05
-5.60078e-05
-4.68127e-06
-4.10576e-06
-6.41312e-07
-7.57777e-08
1.51879e-08
-4.20044e-11
3.46511e-11
1.07003e-14
-4.07368e-16
0.000127376
-2.96429e-06
0.000125221
-9.91519e-06
0.00012199
-2.06033e-05
0.00011734
-3.51799e-05
0.000110908
-5.37638e-05
0.000102705
-7.57005e-05
9.02619e-05
-9.99965e-05
7.9752e-05
-0.000122912
3.37692e-05
-0.000118113
-2.12785e-05
-5.4851e-05
-4.21666e-06
-4.60444e-06
-2.21883e-07
-1.09788e-07
7.1068e-09
-1.97373e-10
5.96221e-11
1.88441e-14
-1.37126e-15
0.00012837
-9.93921e-07
0.00012838
-6.12339e-06
0.00012708
-1.50052e-05
0.000124554
-2.78181e-05
0.000120416
-4.46873e-05
0.000114848
-6.59064e-05
0.000106122
-9.15598e-05
9.73361e-05
-0.000116695
4.35502e-05
-0.000109184
-1.55703e-05
-4.73086e-05
-1.87318e-06
-4.24749e-06
1.45611e-07
-1.14189e-07
-3.07773e-09
-3.96675e-10
4.54176e-11
-7.9586e-14
1.05056e-15
0.000127462
9.07915e-07
0.000129628
-2.24194e-06
0.000130117
-9.16087e-06
0.000129949
-2.03996e-05
0.000127925
-3.53274e-05
0.000124727
-5.45668e-05
0.00011941
-7.91925e-05
0.000111796
-0.000104609
5.10226e-05
-9.43689e-05
-4.80019e-06
-3.60682e-05
1.14091e-06
-3.22083e-06
3.21189e-07
-9.02557e-08
-1.14655e-08
-4.18513e-10
6.32709e-12
-2.59666e-13
5.13257e-15
0.000124665
2.79739e-06
0.000128678
1.85829e-06
0.000131119
-3.24432e-06
0.000133605
-1.28169e-05
0.000133505
-2.59797e-05
0.000132529
-4.31293e-05
0.000129547
-6.46978e-05
0.000121482
-8.68623e-05
5.54463e-05
-7.51815e-05
7.00152e-06
-2.41923e-05
3.43119e-06
-2.07131e-06
2.94667e-07
-5.14317e-08
-1.27979e-08
-2.97678e-10
-2.43382e-11
-2.92942e-13
3.58712e-15
0.000120241
4.42381e-06
0.000126001
5.47459e-06
0.000130565
2.41255e-06
0.000135277
-4.91695e-06
0.000136962
-1.62735e-05
0.000138763
-3.22135e-05
0.000137536
-5.11062e-05
0.000126209
-6.69702e-05
5.49822e-05
-5.34913e-05
1.66435e-05
-1.42851e-05
4.30666e-06
-1.10186e-06
1.49188e-07
-2.23171e-08
-8.1499e-09
-1.46347e-10
-2.16247e-11
-2.01855e-13
4.83896e-15
5.56279e-06
0.000114678
0.000121559
8.86517e-06
0.000127856
8.18395e-06
0.000134247
3.44259e-06
0.000138169
-6.12392e-06
0.000143341
-2.08509e-05
0.000143765
-3.84223e-05
0.000127296
-4.9484e-05
4.85039e-05
-3.24761e-05
2.23088e-05
-7.33629e-06
3.92e-06
-4.69916e-07
1.90935e-08
-7.47965e-09
-3.74473e-09
-5.00806e-11
-8.32581e-12
-7.98263e-14
4.40482e-15
1.14227e-05
0.000115699
1.79533e-05
9.67247e-05
0.000123298
1.34224e-05
0.000131425
1.1006e-05
0.000137799
3.81267e-06
0.000145877
-8.66035e-06
0.000147813
-2.48772e-05
0.000126552
-3.50295e-05
4.04357e-05
-1.72531e-05
2.32163e-05
-3.3331e-06
2.85662e-06
-1.5026e-07
-2.33549e-08
-2.13679e-09
-1.28313e-09
-1.26418e-11
-2.0429e-12
-1.77337e-14
1.12335e-15
1.7594e-05
0.000117127
3.66727e-05
9.69801e-05
1.852e-05
7.82047e-05
0.00012671
1.81374e-05
0.000134769
1.4036e-05
0.000145105
4.58494e-06
0.00014895
-9.79607e-06
0.000124284
-2.07984e-05
3.46138e-05
-9.57179e-06
2.12194e-05
-1.49363e-06
1.81601e-06
-3.99701e-08
-1.93553e-08
-5.27268e-10
-3.54731e-10
-2.30399e-12
-3.84955e-13
-2.39999e-15
1.53436e-16
2.40761e-05
0.000120228
5.62791e-05
9.75208e-05
3.82971e-05
7.7203e-05
1.58194e-05
6.23852e-05
0.00012968
2.32256e-05
0.000141983
1.71572e-05
0.000147747
5.74007e-06
0.000120705
-6.46562e-06
3.17421e-05
-4.95327e-06
1.78144e-05
-6.95837e-07
1.06234e-06
-1.05233e-08
-1.11392e-08
-1.18134e-10
-8.97918e-11
-3.58511e-13
-4.49149e-14
-2.20166e-16
1.30738e-17
3.10586e-05
0.000122698
7.76432e-05
9.88639e-05
5.91746e-05
7.66433e-05
3.39217e-05
5.91008e-05
3.27353e-06
5.91117e-05
0.000136596
2.86124e-05
0.00014321
2.15921e-05
0.000114645
8.52998e-06
3.04465e-05
-1.76139e-06
1.42351e-05
-3.20969e-07
5.61999e-07
-2.41766e-09
-5.92315e-09
-3.1779e-11
-2.28954e-11
-5.43525e-14
-4.4009e-15
-1.9231e-17
4.2121e-19
3.87661e-05
0.000128888
0.000100163
0.000100178
8.31343e-05
7.49043e-05
5.29253e-05
5.76396e-05
1.0957e-05
5.14173e-05
-1.46545e-05
7.37662e-05
0.000136319
3.53159e-05
0.000105956
2.29782e-05
2.96765e-05
8.20921e-07
1.12089e-05
-1.33918e-07
2.64495e-07
-1.4421e-11
-3.26913e-09
-7.72034e-12
-7.28019e-12
-8.84649e-15
-6.56541e-16
-2.20062e-18
-4.30674e-20
4.76889e-05
0.000127103
0.00012591
0.00010314
0.000109493
7.38195e-05
7.5605e-05
5.22246e-05
2.23425e-05
4.62542e-05
-1.85088e-05
5.52716e-05
-5.46777e-05
0.000128444
9.5788e-05
3.36082e-05
2.83838e-05
4.08971e-06
8.69969e-06
-1.7643e-08
1.02836e-07
8.97783e-10
-1.99969e-09
-6.26906e-13
-2.85676e-12
-1.52513e-15
-1.59144e-16
-2.96248e-19
-1.73306e-20
4.23576e-05
8.44826e-05
0.000153444
9.8331e-05
0.000139918
7.27112e-05
0.000100818
4.86066e-05
4.24194e-05
3.21477e-05
-1.38203e-05
4.15657e-05
-9.40694e-05
9.46634e-05
-7.61772e-05
0.000204621
2.64462e-05
5.9959e-06
6.74202e-06
3.97853e-08
3.11097e-08
8.71786e-10
-1.24001e-09
1.40711e-12
-1.13387e-12
-2.50339e-16
-3.56629e-17
-4.8381e-20
-5.23916e-21
6.89476e-06
2.48254e-05
0.000124812
5.58231e-05
0.000172048
6.43363e-05
0.000129919
4.36054e-05
6.9408e-05
2.1618e-05
1.93842e-06
1.63889e-05
-0.00010983
5.73264e-05
-0.000148525
0.000167011
-0.000131
0.000335621
5.38305e-06
5.46231e-08
4.30409e-09
7.2479e-10
-7.55097e-10
1.85589e-12
-4.20405e-13
-8.95519e-18
-1.91598e-17
-6.41295e-21
-2.15299e-21
5.42683e-08
4.44824e-06
1.82506e-05
1.93495e-05
0.000132981
2.51081e-05
0.000159856
3.24601e-05
0.000103552
9.45456e-06
2.70194e-05
-3.46303e-06
-0.000104105
1.06638e-05
-0.000208581
0.000117382
-0.000240339
0.00027635
-1.72735e-05
0.000352895
-4.47741e-09
5.22294e-10
-4.41771e-10
1.54409e-12
-1.62093e-13
2.40052e-16
-1.80039e-17
5.56858e-21
-7.10467e-22
2.84686e-10
-5.27679e-09
1.43726e-07
2.83141e-06
1.86798e-05
1.00431e-05
0.000124229
-4.76845e-06
0.000140925
-7.0275e-06
6.71215e-05
-3.06528e-05
-7.00607e-05
-3.75071e-05
-0.000232872
3.4955e-05
-0.00031707
0.000194113
-8.0792e-05
0.000339868
5.31669e-05
0.000299728
-2.30079e-10
1.16295e-12
-8.11905e-14
2.41565e-16
-1.20891e-17
1.02656e-20
-1.20605e-22
8.41825e-13
-9.08989e-11
3.22078e-10
-4.95108e-09
1.81366e-07
1.64136e-06
1.78253e-05
-1.27689e-06
0.0001154
-4.16555e-05
0.000113484
-5.51622e-05
7.42028e-07
-0.000101416
-0.000200652
-6.97214e-05
-0.000390744
0.000108629
-0.000223537
0.000336858
7.01786e-05
0.000322856
0.00209215
0.000627808
-0.00242023
-5.46181e-14
1.9195e-16
-7.54225e-18
9.53258e-21
1.81172e-23
1.60273e-16
-2.40038e-14
8.17752e-13
-4.83833e-11
3.43102e-10
-7.07621e-09
2.25699e-07
7.3549e-07
1.75652e-05
-1.65434e-05
0.000101054
-8.04579e-05
8.63527e-05
-0.000142223
-8.47157e-05
-0.000217056
-0.000390756
-6.96927e-05
-0.000392188
0.00027728
5.99196e-05
0.000347117
0.00165307
0.000761943
0.00237388
0.000714751
-0.00246082
0.000384307
-0.00280454
-4.82964e-18
7.87118e-21
3.06753e-23
6.99001e-21
-1.42318e-18
1.70617e-16
-2.46393e-14
6.315e-13
-5.90478e-11
5.2531e-10
-1.96801e-08
3.09713e-07
-6.47744e-07
1.63864e-05
-3.07893e-05
9.83791e-05
-0.000141184
5.55227e-05
-0.000281763
-0.000267355
-0.000340016
-0.000446558
-1.53225e-05
1.07633e-05
0.000326436
0.00123699
0.000763198
0.00219153
0.000944296
0.00209617
0.000732386
-0.0021138
0.000486517
-0.00256303
0.000230458
-0.003035
1.45508e-23
-8.62803e-25
8.33708e-21
-1.87857e-18
2.17525e-16
-4.15777e-14
6.84465e-13
-1.08203e-10
1.0862e-09
-5.53031e-08
3.24306e-07
-2.00364e-06
1.68846e-05
-4.45961e-05
0.000100459
-0.000227452
-7.5904e-05
-0.00047083
-0.000389622
-0.000396868
-9.98557e-05
9.52964e-05
0.000938294
0.000625126
0.00190738
0.00104735
0.0020398
0.00100066
0.0017437
0.000834178
-0.00184549
0.00057377
-0.00220106
0.00037436
-0.00270693
0.000186626
-0.00322163
-2.11362e-23
1.57293e-20
-3.59115e-18
2.57251e-16
-8.34961e-14
1.30604e-12
-2.40231e-10
1.8603e-09
-1.35948e-07
3.89471e-07
-3.16993e-06
1.74662e-05
-5.39321e-05
6.89256e-05
-0.000388025
-0.000240574
-0.000617571
-0.000273227
-0.000223495
0.000661531
0.000372059
0.00156231
0.000970194
0.00190557
0.00118158
0.00170989
0.00103447
0.00155332
0.000997897
-0.00171704
0.000768943
-0.00204067
0.000523447
-0.00235014
0.000298694
-0.002819
0.000112493
-0.00333412
-7.12917e-23
2.74674e-20
-8.72601e-18
4.70178e-16
-1.84663e-13
2.94522e-12
-5.4955e-10
3.68816e-09
-3.41769e-07
4.23059e-07
-7.6635e-06
2.89283e-05
-9.92434e-05
-1.76473e-05
-0.000601632
-0.000260346
-0.000630148
0.000390887
4.71497e-05
0.00115696
0.00077741
0.00169586
0.0011799
0.00162164
0.00126983
0.00148049
0.00110731
0.00134213
0.00124534
-0.00158957
0.00102927
-0.00197736
0.000753934
-0.00227115
0.000439389
-0.00249084
0.000236757
-0.00294327
8.71689e-05
-0.00342129
-3.06739e-22
9.56925e-20
-1.72094e-16
3.07273e-15
-4.26402e-12
3.05288e-11
-1.96126e-08
1.02587e-08
-3.80414e-06
1.57204e-06
-1.48205e-05
1.72063e-05
-0.000166864
-9.8808e-05
-0.000756603
0.000185687
-0.000424948
0.000782491
0.000421617
0.00143616
0.0010371
0.00148953
0.00131201
0.00136614
0.00138418
0.00118828
0.00126115
0.00127984
0.00036672
-0.00149432
0.000366164
0.000363523
0.000363416
0.00130521
-0.00186545
0.000998295
-0.0022217
0.000614267
-0.00244603
0.000335666
-0.00258975
0.000157279
-0.00301338
1.10063e-05
-0.00343229
-6.19811e-19
5.17635e-16
-3.12134e-13
4.5436e-11
-3.01644e-09
6.46174e-08
-1.37416e-06
2.36029e-07
-1.9049e-05
1.49737e-06
-1.32957e-05
-3.85101e-06
-0.000267234
-3.09067e-05
-0.000533413
0.000422326
-6.47824e-05
0.00107244
0.000785343
0.00129713
0.0012295
0.001173
0.00150515
0.00111196
0.00146051
0.00100126
0.00153973
-6.75597e-07
0.000282594
-0.000322018
0.000406826
0.000382038
-0.00173825
0.00038154
0.000392973
0.000393101
0.000282709
-0.000322001
0.000404787
-4.29851e-07
0.000248661
0.000397877
0.000250148
0.000395541
0.00125947
-0.00212621
0.000834777
-0.00244224
0.000436596
-0.00254696
0.000200812
-0.00263328
4.45727e-05
-0.00304694
-5.6116e-05
-0.00337618
-3.0332e-15
3.94795e-12
-2.46184e-10
2.41154e-08
-3.15956e-07
4.64534e-07
-6.15433e-06
1.04868e-06
-2.21105e-05
1.5897e-08
-1.82991e-05
-2.17066e-05
-0.000286586
0.000123998
-0.00023525
0.000574838
0.000432817
0.00107877
0.0010037
0.000945674
0.00145683
0.000999649
0.00161746
0.000787193
0.00167456
-0.000217163
-0.000218092
0.000777024
0.000409609
0.000408201
0.00043925
0.000439603
-7.67119e-07
-0.000352706
0.000413535
-3.67368e-07
0.000230338
-0.000258579
0.00043542
-0.00199562
0.00151789
-0.000352476
0.00041129
-5.90555e-07
-0.000374512
0.000415454
-0.000373437
0.000413558
0.000230651
-0.000258302
0.000432059
-2.51905e-07
0.000411277
0.000407823
0.00108264
-0.00237321
0.000578018
-0.0025838
0.000242247
-0.0025884
6.36763e-05
-0.00265238
-7.74937e-05
-0.00302556
-0.00015711
-0.00321907
-3.34733e-12
1.98552e-09
-3.10897e-08
3.00912e-07
-1.8052e-06
2.89711e-07
-5.91838e-06
-9.00538e-07
-9.08272e-06
-3.55931e-06
-3.10035e-05
-1.93064e-05
-0.000171116
0.000224878
0.000114495
0.00076497
0.000746616
0.000707564
0.00124181
0.000828747
0.00162773
0.00062065
0.001784
0.000603762
0.000454882
0.000455249
0.000468957
0.000468744
2.76123e-07
0.000128969
-0.000159494
0.000439843
0.000127774
-0.000158061
0.000438753
-1.76836e-07
0.0001134
0.000454987
0.000112866
0.00045434
-4.31034e-07
-0.00028477
0.000440167
1.26284e-06
0.000188286
-0.000205102
0.000126833
9.67033e-05
0.000123834
0.000103196
-0.00223164
0.00131866
0.000306012
0.000305615
-0.00162536
0.000450532
0.000450927
0.000443053
0.000441981
-0.000284552
0.00043714
-3.67222e-07
0.00043712
0.00043431
0.000187645
-0.000205026
0.000126022
9.81073e-05
0.000123288
0.000102668
9.69778e-07
0.000122781
9.55907e-05
0.000121589
9.89278e-05
0.000122045
9.6762e-05
0.000120932
9.84113e-05
0.00076835
-0.00256418
0.000329328
-0.00267104
5.08064e-05
-0.00257553
-0.000112795
-0.00261708
-0.000260579
-0.00292209
-0.000257262
-0.0029618
-6.71353e-10
5.88582e-08
-2.64232e-07
2.41551e-07
-1.97553e-06
-1.10765e-06
-3.09303e-07
-1.50288e-07
-4.41985e-06
-3.3776e-06
-4.02728e-05
-5.02517e-06
-3.95578e-06
0.000383076
0.000496324
0.000497852
0.000956327
0.000610058
0.0014605
0.000470673
0.00177771
0.00047226
0.000472455
0.000472335
0.000485887
0.000484828
-1.92146e-07
9.22443e-05
0.000476231
9.22254e-05
0.0004757
-2.13082e-07
7.14159e-05
0.000490001
7.13244e-05
0.000489432
4.46866e-07
6.42088e-05
-3.22919e-05
-1.54904e-05
0.000100326
-2.71178e-05
0.000127255
0.000102223
0.000127797
-7.42404e-06
6.38214e-05
-3.25139e-05
-1.5296e-05
-2.71157e-05
0.000100608
0.000127181
0.000102283
0.000127649
-7.38215e-06
6.34636e-07
4.95724e-05
0.000105318
0.000127517
0.00010623
0.000130043
4.98344e-05
0.000105447
0.000127349
0.000106331
0.000129885
1.18506e-06
-0.000228126
0.00012805
0.000101411
0.00012787
0.000104037
-3.34643e-05
9.13896e-06
1.85122e-07
3.1954e-05
0.000119019
-9.58132e-06
3.14276e-05
-3.39545e-05
0.000108779
1.82794e-07
-3.55452e-05
0.00011615
3.09715e-05
0.00011276
-0.0024583
0.000995015
-0.00188554
0.000387467
0.000387425
0.000401613
0.000402335
-1.24156e-07
0.000272832
-0.000299751
0.000477766
0.000273881
-0.000300428
0.000477544
4.16057e-07
0.000251231
0.000464366
0.000252784
0.000463632
-0.000227913
0.000127488
0.000102598
0.000127242
0.000103843
1.00883e-06
0.000128834
9.95616e-05
0.000124869
0.000105953
0.000128224
0.000101617
0.000124539
0.00010581
-3.34819e-05
9.02339e-06
3.18785e-05
0.000118787
-9.20754e-06
3.17715e-05
-3.39437e-05
0.000109506
-3.55211e-05
0.000116302
3.09585e-05
0.000112487
2.66604e-05
1.03496e-05
2.18636e-07
0.000117506
-1.61571e-05
-2.82348e-05
0.000107662
2.90069e-07
0.000116314
0.00011201
2.65626e-05
1.0372e-05
0.000117207
-1.60618e-05
-2.82244e-05
0.000108516
0.000116427
0.000111506
0.000475351
-0.0027126
5.12169e-05
-0.00267147
-0.000192219
-0.0024961
-0.000346183
-0.00253148
-0.000450083
-0.00272927
-0.000385461
-0.00257634
-9.45982e-09
9.76801e-08
-2.99481e-07
-6.60509e-07
-1.61279e-07
-7.67135e-08
-4.17698e-08
-2.9854e-08
-3.53318e-06
-3.88154e-06
-3.98615e-05
4.47879e-05
0.000277079
0.000250471
0.000743623
0.000370953
0.00119543
0.000342374
0.0015888
0.000324998
0.000478011
0.000477519
0.000485016
0.000484425
-1.15075e-07
4.8603e-05
0.000495384
4.8843e-05
0.000494702
-7.75783e-08
3.76676e-05
0.0004969
3.78879e-05
0.000495706
9.06091e-07
3.76958e-05
0.000110487
0.000131771
0.000111865
0.000133123
3.79978e-05
0.000110881
0.000131708
0.000112874
0.000132994
1.14043e-06
1.99892e-05
0.000116548
0.000137
0.000116023
0.000136991
2.00693e-05
0.000117548
0.000136867
0.000117139
0.000136926
-5.72328e-06
2.01236e-06
-1.26656e-05
0.000116725
-7.21859e-06
-2.10863e-05
0.000108847
1.386e-06
-3.85753e-08
0.00012781
-7.66142e-06
-7.30081e-06
3.66023e-07
0.000111181
-9.79782e-09
1.0773e-06
0.000120797
5.6569e-08
-1.51131e-05
0.000116747
-7.31435e-06
-2.1168e-05
0.000109881
-5.56225e-06
2.08449e-06
-1.29247e-05
0.00011703
1.37574e-06
-7.67654e-06
0.000127881
-7.18988e-06
4.00592e-07
0.000111164
1.07232e-06
0.000120752
-1.51602e-05
0.000116947
-7.31314e-06
1.36153e-06
-3.13056e-06
0.000114406
4.64006e-08
2.74439e-08
-1.74e-06
0.000121872
-7.63664e-06
0.0001156
7.38779e-09
0.000123489
-7.24291e-06
1.32954e-06
-3.19247e-06
0.000114558
4.16416e-08
-1.77992e-06
0.000121872
-7.54502e-06
0.000115611
0.000123462
3.64771e-05
9.65701e-06
1.4228e-07
-3.93892e-05
0.000121163
-9.64772e-06
-3.52487e-05
0.000112388
1.566e-07
0.000118998
-3.69835e-05
0.000115424
-1.99152e-05
2.04172e-06
-5.14715e-08
1.84903e-05
0.000118454
-1.55379e-06
1.92252e-05
-2.07946e-05
0.000111869
-4.1709e-08
-2.15618e-05
0.000116304
1.90904e-05
0.000114913
-0.00258202
0.000599068
-0.00210189
0.000285151
0.000284821
0.0003206
0.000320797
-2.34007e-07
0.000334377
-0.000355219
0.000408792
0.000334301
-0.000355061
0.000408237
-1.67236e-07
0.000436801
0.000436476
7.76988e-07
0.000168951
-0.000181401
0.000108031
0.0001337
0.000111542
0.000136204
0.000168843
-0.000180663
0.000108567
0.000133555
0.00011186
0.000136165
6.05036e-07
3.16108e-05
5.3537e-05
0.00010733
2.05737e-05
0.000132984
0.000108175
0.000134905
4.36108e-05
3.16517e-05
5.33984e-05
0.000107718
2.06401e-05
0.000132941
0.000108374
0.000134782
4.35745e-05
3.64827e-05
9.60184e-06
-3.93919e-05
0.000120938
-9.35145e-06
-3.49839e-05
0.000112705
0.000119009
-3.70719e-05
0.000115188
-4.17364e-05
1.02778e-05
1.8889e-07
0.000120714
-1.6912e-05
3.59516e-05
0.000112039
1.95153e-07
0.00011958
0.00011509
-4.18082e-05
1.01621e-05
0.000120667
-1.64509e-05
3.64191e-05
0.000113231
0.000119873
0.000115243
-1.99529e-05
1.80024e-06
1.85419e-05
0.000118347
-1.35464e-06
1.93505e-05
-2.08384e-05
0.000112344
-2.15494e-05
0.000116503
1.93114e-05
0.000114308
3.60957e-06
7.11084e-09
0.000117245
0.000113621
3.52418e-06
0.000117072
0.000113166
6.92701e-05
-0.00273125
-0.000291223
-0.00257242
-0.000468186
-0.00237409
-0.000594644
-0.00238691
-0.000666477
-0.00244826
-0.000488569
-0.00208777
-8.12368e-09
-1.19388e-07
-5.91021e-08
-6.57509e-08
-1.78475e-08
-1.19221e-08
-1.50586e-08
-1.99383e-08
-3.39196e-06
-3.59536e-06
-5.07867e-06
2.03169e-05
0.000434947
0.00014978
0.000964651
0.000157218
0.00138058
0.000177235
0.000434859
0.000434383
0.000433781
0.000433535
-3.73258e-08
2.93297e-05
0.000486387
2.96708e-05
0.000485699
-8.15004e-08
2.18982e-05
0.000492529
2.21656e-05
0.000491849
1.08189e-06
8.82439e-06
0.000115852
0.000136175
0.000117035
0.000136368
8.83211e-06
0.000116812
0.000136043
0.000117968
0.000136205
1.10812e-06
-2.3859e-06
0.00011777
0.000135848
0.000117368
0.000136047
-3.09689e-06
0.000118883
0.000135669
0.000118353
0.000135866
-7.58758e-06
-5.60299e-06
0.000120548
-4.88292e-06
1.37246e-08
0.000127296
-7.70948e-06
-6.84885e-06
0.000120816
-3.35125e-08
-6.4585e-06
0.000126985
-7.4835e-06
-5.80194e-06
0.000120975
-4.93994e-06
0.000127398
-7.31392e-06
-7.06997e-06
0.000121456
-6.48558e-06
0.000127203
-7.62193e-06
9.41606e-06
-1.06237e-05
0.000125383
8.91341e-06
7.33507e-09
-1.05383e-05
0.000130974
-7.69213e-06
0.000126289
-1.22359e-08
0.000131787
-7.26144e-06
9.57443e-06
-1.09516e-05
0.000126187
8.99521e-06
-1.06134e-05
0.000131222
-7.36351e-06
0.000127007
0.000132048
-2.38359e-06
-5.07253e-06
-5.43229e-07
-1.90587e-05
-2.07813e-05
-1.73928e-08
-2.94134e-08
-2.14041e-06
-8.41506e-07
-5.56058e-06
-1.90816e-08
-5.45611e-06
-2.32431e-06
-4.92876e-06
-4.95146e-07
-1.90538e-05
-2.12286e-06
-2.07726e-05
-8.02764e-07
-5.58181e-06
-5.44251e-06
-1.07931e-06
4.61633e-06
-6.49619e-06
4.52306e-06
-2.78487e-08
-6.36913e-06
-1.13807e-06
-2.03822e-08
-1.01128e-06
4.63967e-06
-6.62097e-06
4.52388e-06
-6.39346e-06
-1.10438e-06
2.30487e-05
2.1619e-06
-5.0614e-08
-2.74791e-05
0.000123467
-1.70322e-06
-2.16413e-05
0.000114929
-2.74851e-08
0.000118792
-2.39531e-05
0.000119894
-5.12264e-06
8.90374e-07
6.25236e-09
2.64505e-06
-6.56933e-07
4.72497e-06
-6.44983e-06
-1.30121e-08
-6.78944e-06
3.1121e-06
-0.0025982
8.54182e-05
-0.00221679
0.000161177
0.00016059
0.000195113
0.000194871
-1.67935e-07
0.000371678
-0.000364179
0.000277831
0.00037103
-0.000363869
0.000277503
-7.34334e-08
0.000337292
0.000336869
1.30865e-06
0.000200311
-0.000207423
8.83437e-05
0.000111171
9.59918e-05
0.000119412
0.000199627
-0.000206999
8.94743e-05
0.000111096
9.72437e-05
0.000119349
1.03006e-06
0.000103067
0.000127205
9.98788e-05
0.000124651
0.00010385
0.000127088
0.000101105
0.000124609
-8.61958e-06
2.16854e-05
-2.1369e-05
0.000116373
2.31146e-05
-3.87611e-08
-2.30504e-05
0.000124999
-8.07571e-06
1.99328e-05
0.000121399
-3.64589e-08
2.1606e-05
0.000129673
-8.3872e-06
2.1791e-05
-2.17643e-05
0.000116934
2.31231e-05
-2.30998e-05
0.000125106
-7.90441e-06
1.999e-05
0.000121605
2.15973e-05
0.00012975
-5.53097e-06
-1.49002e-05
1.54433e-06
0.000126189
-8.18099e-06
2.3717e-05
0.000117042
-1.88165e-05
-3.97375e-08
0.000137167
9.0939e-06
-7.52398e-06
0.000120697
-2.74868e-08
0.000130198
2.47099e-08
3.18438e-05
0.000123161
-5.32233e-06
-1.4847e-05
1.18313e-06
0.000126677
-8.19742e-06
2.37948e-05
0.000118171
-1.87626e-05
0.000137307
9.02623e-06
-7.36665e-06
0.000120853
0.000130223
3.18448e-05
0.00012343
2.29969e-05
1.97414e-06