/*--------------------------------*- C++ -*----------------------------------*\
| =========                 |                                                 |
| \\      /  F ield         | OpenFOAM: The Open Source CFD Toolbox           |
|  \\    /   O peration     | Version:  5.x                                   |
|   \\  /    A nd           | Web:      www.OpenFOAM.org                      |
|    \\/     M anipulation  |                                                 |
\*---------------------------------------------------------------------------*/
FoamFile
{
    version     2.0;
    format      ascii;
    class       volScalarField;
    location    "2.1";
    object      k;
}
// * * * * * * * * * * * * * * * * * * * * * * * * * * * * * * * * * * * * * //

dimensions      [0 2 -2 0 0 0 0];

internalField   nonuniform List<scalar> 
12160
(
9.94761e-09
9.91137e-09
1.0019e-08
9.88764e-09
1.00516e-08
1.00085e-08
9.87456e-09
1.0082e-08
1.00178e-08
1.00079e-08
9.86853e-09
1.01225e-08
1.0028e-08
1.00151e-08
1.00079e-08
9.8662e-09
1.01392e-08
1.00379e-08
1.00208e-08
1.0015e-08
1.00089e-08
9.86561e-09
1.01376e-08
1.00425e-08
1.00249e-08
1.00201e-08
1.00172e-08
1.00092e-08
9.86565e-09
1.01304e-08
1.00424e-08
1.00267e-08
1.00231e-08
1.00222e-08
1.00202e-08
1.00153e-08
9.86587e-09
1.01219e-08
1.00402e-08
1.00268e-08
1.00244e-08
1.00244e-08
1.00259e-08
1.00359e-08
1.01226e-08
9.86602e-09
1.0114e-08
1.00383e-08
1.00261e-08
1.00246e-08
1.00253e-08
1.00279e-08
1.00392e-08
1.01228e-08
1.01301e-08
9.866e-09
1.01069e-08
1.00369e-08
1.00255e-08
1.00244e-08
1.00251e-08
1.00279e-08
1.00364e-08
1.01129e-08
1.01276e-08
1.02014e-08
9.8658e-09
1.01005e-08
1.00359e-08
1.0025e-08
1.0024e-08
1.00251e-08
1.00274e-08
1.00351e-08
1.00989e-08
1.01334e-08
1.01847e-08
1.02104e-08
9.86542e-09
1.00945e-08
1.0035e-08
1.00246e-08
1.00236e-08
1.00249e-08
1.0027e-08
1.00361e-08
1.00891e-08
1.01344e-08
1.01982e-08
1.01506e-08
1.01112e-08
9.86506e-09
1.00891e-08
1.00341e-08
1.00242e-08
1.00233e-08
1.00246e-08
1.00268e-08
1.00384e-08
1.00818e-08
1.01336e-08
1.01578e-08
1.01231e-08
1.00592e-08
1.0099e-08
9.86492e-09
1.00882e-08
1.00332e-08
1.00238e-08
1.00229e-08
1.00242e-08
1.00265e-08
1.00406e-08
1.00768e-08
1.01306e-08
1.01577e-08
1.00753e-08
1.0067e-08
1.00533e-08
1.00617e-08
9.86489e-09
1.00875e-08
1.00328e-08
1.00234e-08
1.00225e-08
1.00237e-08
1.00261e-08
1.00419e-08
1.00748e-08
1.01231e-08
1.01618e-08
1.00909e-08
1.00393e-08
1.00404e-08
1.00184e-08
9.86489e-09
1.00862e-08
1.00327e-08
1.00232e-08
1.00221e-08
1.00232e-08
1.00256e-08
1.00423e-08
1.00742e-08
1.0112e-08
1.01667e-08
1.00994e-08
1.00362e-08
1.00297e-08
1.00272e-08
9.86489e-09
1.00849e-08
1.0033e-08
1.00231e-08
1.00218e-08
1.00228e-08
1.0025e-08
1.00419e-08
1.00733e-08
1.01006e-08
1.01662e-08
1.01122e-08
1.00355e-08
1.00256e-08
1.00157e-08
9.86489e-09
1.00837e-08
1.00333e-08
1.00231e-08
1.00216e-08
1.00224e-08
1.00241e-08
1.0041e-08
1.00716e-08
1.00941e-08
1.01624e-08
1.01222e-08
1.0038e-08
1.00234e-08
1.00142e-08
9.86489e-09
1.00826e-08
1.00336e-08
1.00232e-08
1.00215e-08
1.00221e-08
1.00232e-08
1.00398e-08
1.00696e-08
1.00897e-08
1.01513e-08
1.01379e-08
1.00415e-08
1.0024e-08
1.00125e-08
9.86498e-09
1.00806e-08
1.00338e-08
1.00232e-08
1.00214e-08
1.00219e-08
1.00224e-08
1.00383e-08
1.00673e-08
1.00857e-08
1.01392e-08
1.01572e-08
1.00473e-08
1.00243e-08
1.00131e-08
9.86514e-09
1.00776e-08
1.00339e-08
1.00231e-08
1.00212e-08
1.00217e-08
1.0022e-08
1.00367e-08
1.00649e-08
1.00814e-08
1.01297e-08
1.01631e-08
1.00566e-08
1.00255e-08
1.00134e-08
9.86532e-09
1.00762e-08
1.0034e-08
1.00229e-08
1.0021e-08
1.00214e-08
1.00217e-08
1.00352e-08
1.00622e-08
1.00764e-08
1.01212e-08
1.01586e-08
1.00742e-08
1.00271e-08
1.00148e-08
9.8655e-09
1.00757e-08
1.00339e-08
1.00228e-08
1.00207e-08
1.00211e-08
1.00214e-08
1.00338e-08
1.00587e-08
1.00709e-08
1.0113e-08
1.01535e-08
1.00878e-08
1.00316e-08
1.00165e-08
9.86568e-09
1.00756e-08
1.00338e-08
1.00225e-08
1.00203e-08
1.00207e-08
1.00211e-08
1.00322e-08
1.00546e-08
1.00657e-08
1.01032e-08
1.01491e-08
1.00942e-08
1.00372e-08
1.00184e-08
9.86586e-09
1.00762e-08
1.00335e-08
1.00223e-08
1.002e-08
1.00203e-08
1.00207e-08
1.00304e-08
1.00501e-08
1.00614e-08
1.00913e-08
1.01457e-08
1.00966e-08
1.00409e-08
1.00203e-08
9.86606e-09
1.00774e-08
1.00334e-08
1.00221e-08
1.00197e-08
1.00199e-08
1.00203e-08
1.00285e-08
1.00455e-08
1.00575e-08
1.00807e-08
1.01429e-08
1.00963e-08
1.00425e-08
1.0022e-08
9.86627e-09
1.00789e-08
1.00332e-08
1.0022e-08
1.00194e-08
1.00195e-08
1.00198e-08
1.00264e-08
1.00408e-08
1.00533e-08
1.00723e-08
1.01349e-08
1.00952e-08
1.00422e-08
1.00233e-08
9.86652e-09
1.00807e-08
1.00329e-08
1.0022e-08
1.00194e-08
1.00192e-08
1.00193e-08
1.00242e-08
1.00363e-08
1.00489e-08
1.00649e-08
1.01169e-08
1.00954e-08
1.00417e-08
1.00242e-08
9.8668e-09
1.00826e-08
1.00326e-08
1.0022e-08
1.00195e-08
1.00192e-08
1.00187e-08
1.0022e-08
1.0032e-08
1.00442e-08
1.00578e-08
1.00949e-08
1.00924e-08
1.00439e-08
1.00253e-08
9.86717e-09
1.00842e-08
1.00321e-08
1.00221e-08
1.00197e-08
1.00194e-08
1.00186e-08
1.00198e-08
1.00281e-08
1.00394e-08
1.0051e-08
1.00754e-08
1.00838e-08
1.00489e-08
1.00267e-08
9.86771e-09
1.00853e-08
1.00315e-08
1.00221e-08
1.002e-08
1.00197e-08
1.00191e-08
1.00195e-08
1.0025e-08
1.0035e-08
1.00446e-08
1.00602e-08
1.00722e-08
1.00505e-08
1.0029e-08
9.86847e-09
1.00864e-08
1.00309e-08
1.00221e-08
1.00202e-08
1.00201e-08
1.00197e-08
1.00214e-08
1.00249e-08
1.00314e-08
1.0039e-08
1.00484e-08
1.00595e-08
1.00482e-08
1.00308e-08
9.86943e-09
1.00876e-08
1.00304e-08
1.00221e-08
1.00205e-08
1.00204e-08
1.00203e-08
1.00237e-08
1.00281e-08
1.00315e-08
1.00344e-08
1.00396e-08
1.00473e-08
1.0043e-08
1.00311e-08
9.87051e-09
1.0089e-08
1.003e-08
1.00222e-08
1.00208e-08
1.00208e-08
1.00209e-08
1.00261e-08
1.00322e-08
1.00351e-08
1.00348e-08
1.00336e-08
1.0037e-08
1.00362e-08
1.00297e-08
9.8716e-09
1.00907e-08
1.00298e-08
1.00223e-08
1.00211e-08
1.00212e-08
1.00216e-08
1.00286e-08
1.00366e-08
1.00397e-08
1.00391e-08
1.00347e-08
1.003e-08
1.00297e-08
1.00271e-08
9.87265e-09
1.0093e-08
1.00299e-08
1.00225e-08
1.00214e-08
1.00217e-08
1.00224e-08
1.00311e-08
1.00411e-08
1.00445e-08
1.00447e-08
1.00413e-08
1.00314e-08
1.00249e-08
1.00237e-08
9.87377e-09
1.00957e-08
1.00301e-08
1.00227e-08
1.00218e-08
1.00221e-08
1.00233e-08
1.00336e-08
1.00457e-08
1.00491e-08
1.0051e-08
1.00503e-08
1.00392e-08
1.00253e-08
1.00208e-08
9.87504e-09
1.00987e-08
1.00305e-08
1.00231e-08
1.00222e-08
1.00227e-08
1.00245e-08
1.00362e-08
1.00501e-08
1.00539e-08
1.00582e-08
1.00619e-08
1.00489e-08
1.00298e-08
1.00207e-08
9.87653e-09
1.01019e-08
1.00312e-08
1.00235e-08
1.00226e-08
1.00233e-08
1.00259e-08
1.00388e-08
1.00544e-08
1.0059e-08
1.0067e-08
1.00757e-08
1.00592e-08
1.00344e-08
1.00227e-08
1.01054e-08
9.87791e-09
1.00321e-08
1.0024e-08
1.00231e-08
1.0024e-08
1.00274e-08
1.00416e-08
1.00585e-08
1.00646e-08
1.00771e-08
1.00913e-08
1.00678e-08
1.00382e-08
1.00242e-08
1.0033e-08
1.01082e-08
9.88062e-09
1.00246e-08
1.00237e-08
1.00248e-08
1.00291e-08
1.00445e-08
1.00627e-08
1.00707e-08
1.00869e-08
1.01042e-08
1.0073e-08
1.00397e-08
1.00247e-08
1.00252e-08
1.00344e-08
1.01182e-08
9.88483e-09
1.00244e-08
1.00256e-08
1.00308e-08
1.00474e-08
1.00669e-08
1.00771e-08
1.00957e-08
1.01119e-08
1.00737e-08
1.00384e-08
1.00243e-08
1.00251e-08
1.0026e-08
1.00379e-08
1.01359e-08
9.898e-09
1.00266e-08
1.00326e-08
1.00502e-08
1.00712e-08
1.00838e-08
1.0104e-08
1.01153e-08
1.00716e-08
1.00358e-08
1.0023e-08
1.00276e-08
1.00259e-08
1.0028e-08
1.00443e-08
1.01773e-08
9.92447e-09
1.00344e-08
1.00529e-08
1.00753e-08
1.00904e-08
1.01121e-08
1.01168e-08
1.00687e-08
1.00331e-08
1.00211e-08
1.00362e-08
1.00285e-08
1.00276e-08
1.00314e-08
1.00573e-08
1.02538e-08
1.00049e-08
1.00553e-08
1.0079e-08
1.00963e-08
1.01199e-08
1.0118e-08
1.00659e-08
1.00306e-08
1.00188e-08
1.00574e-08
1.00375e-08
1.00303e-08
1.00297e-08
1.00386e-08
1.00912e-08
1.03757e-08
1.00819e-08
1.0082e-08
1.01013e-08
1.0127e-08
1.01185e-08
1.00634e-08
1.00283e-08
1.00167e-08
1.00844e-08
1.00583e-08
1.00395e-08
1.00318e-08
1.00332e-08
1.00581e-08
1.0145e-08
1.04915e-08
1.01757e-08
1.01053e-08
1.01328e-08
1.01183e-08
1.00612e-08
1.00265e-08
1.0015e-08
1.01088e-08
1.00863e-08
1.00594e-08
1.00403e-08
1.00336e-08
1.00427e-08
1.00928e-08
1.02264e-08
1.05271e-08
1.01583e-08
1.01365e-08
1.01175e-08
1.00593e-08
1.00251e-08
1.00137e-08
1.01369e-08
1.01126e-08
1.00885e-08
1.00585e-08
1.00405e-08
1.004e-08
1.00853e-08
1.02185e-08
1.04946e-08
1.07065e-08
2.08105e-07
1.01158e-08
1.0057e-08
1.00241e-08
1.00128e-08
1.01124e-08
1.01423e-08
1.01149e-08
1.00878e-08
1.00616e-08
1.00951e-08
1.05373e-08
1.18207e-08
1.42035e-08
1.24708e-08
2.01547e-07
0.00180172
1.00544e-08
1.00236e-08
1.00122e-08
1.00506e-08
1.0196e-08
1.17015e-08
1.01244e-08
1.01381e-08
1.11329e-08
1.86144e-08
4.60233e-08
7.71987e-08
6.24417e-08
1.02959e-07
0.00124932
0.00339264
0.00250022
1.00234e-08
1.00118e-08
1.00229e-08
1.00576e-08
2.10063e-08
2.97201e-07
1.25738e-08
1.93422e-08
1.0914e-07
4.54347e-07
9.64193e-07
7.76349e-07
3.68465e-08
0.000677699
0.0024759
0.00557205
0.00449894
0.00316564
1.00115e-08
1.00113e-08
1.00223e-08
1.33429e-08
9.56532e-07
2.50532e-05
6.11087e-07
7.70471e-07
4.37697e-06
9.88109e-06
9.26636e-06
6.51114e-07
0.000271724
0.00177022
0.00401775
0.00908291
0.00736947
0.00564076
0.00388798
1.00106e-08
1.04451e-08
4.51356e-07
4.87915e-05
0.000888749
4.90855e-05
3.8106e-05
9.76976e-05
9.82927e-05
2.53526e-05
8.82285e-05
0.00111019
0.00287107
0.00648007
0.0133706
0.0119096
0.00899815
0.00668955
0.00467795
1.0034e-08
1.00409e-07
2.76726e-05
0.00126693
0.0121333
0.00144218
0.0013315
0.00101703
0.000342547
2.17274e-05
0.000608909
0.0020666
0.00460185
0.00970712
0.0178828
0.016906
0.0141552
0.010243
0.00774833
0.00556326
1.77238e-08
8.5363e-06
0.000775121
0.0142297
0.0588704
0.0142313
0.0151026
0.00446018
3.02175e-05
0.000287264
0.00135669
0.00339881
0.00693251
0.0132833
0.03005
0.0216008
0.0195642
0.015865
0.0113465
0.00882633
0.00655041
1.1876e-06
0.000322259
0.00930231
0.0608658
0.0991964
0.0927115
0.0441761
0.00336772
0.000113631
0.000811764
0.0024312
0.00537824
0.00921762
0.0207209
0.594023
0.0333553
0.594478
0.50847
0.508717
0.0248643
0.0223008
0.0175967
0.0126041
0.010182
0.0076556
7.10559e-05
0.00480709
0.0457825
0.0868151
0.108834
0.165456
0.0661093
0.00121076
0.000426492
0.00151311
0.00401971
0.00681005
0.0133103
0.159436
0.67197
0.673218
0.0300578
0.672516
0.602296
0.602939
0.673403
0.591489
0.591654
0.0286786
0.0251745
0.0196172
0.0141082
0.0118087
0.0088213
0.00163582
0.0282804
0.0779692
0.0741436
0.104052
0.126127
0.042364
0.000550598
0.000818954
0.00241167
0.00538316
0.00864428
0.0567177
0.468098
0.468099
0.504612
0.504761
0.733704
0.665494
0.0348241
0.0506798
0.73394
0.647383
0.647742
0.665256
0.585417
0.585164
0.0330538
0.0284506
0.021822
0.0159085
0.0137569
0.00997091
0.0136808
0.059352
0.0643282
0.0553791
0.0699609
0.108174
0.0217867
0.000867729
0.0011257
0.0033714
0.00619803
0.0264592
0.535211
0.535343
0.554561
0.554922
0.562819
0.563269
0.625874
0.625945
0.723351
0.578961
0.921801
0.582099
0.935925
0.0407424
0.0467319
0.621757
0.621834
0.622528
0.622648
0.723153
0.747648
0.747712
0.578338
0.928657
0.582738
0.932852
0.53615
0.81449
0.516504
0.886329
0.535067
0.818481
0.516718
0.88027
0.0378662
0.0319257
0.0242371
0.0179609
0.0159517
0.0110418
0.0377582
0.0582239
0.0451815
0.0413792
0.0584857
0.0982408
0.0234833
0.00276934
0.0015377
0.00391245
0.0181416
0.559755
0.56006
0.576171
0.576893
0.695288
0.695259
0.723756
0.723732
0.824277
0.856258
0.510608
0.858008
0.526345
0.486477
0.861897
0.827005
0.511139
0.858483
0.526536
0.487329
0.968433
0.593025
0.967513
0.589631
0.969179
0.593161
0.968023
0.589715
0.644667
0.998785
0.627815
1.04321
0.530617
0.931547
0.530221
0.955735
0.0470813
0.0527992
0.539083
0.539371
0.579896
0.579928
0.73527
0.735253
0.759685
0.759896
0.644058
1.00192
0.627922
1.03994
0.672683
1.02385
0.678661
1.07769
0.672888
1.03508
0.680054
1.0789
0.530126
0.938753
0.531477
0.953608
0.50689
0.926429
0.505876
0.921844
0.0431397
0.0358167
0.0265021
0.020141
0.0182827
0.011847
0.0479398
0.0447097
0.0350827
0.0383769
0.0539462
0.0850638
0.0407679
0.00610294
0.00175502
0.0125664
0.57974
0.580164
0.59399
0.594475
0.733913
0.733865
0.746157
0.746258
1.06319
0.651238
1.07259
0.655379
1.06634
0.651759
1.07928
0.656379
1.09738
0.675544
1.11994
0.680484
1.10491
0.67672
1.12816
0.681808
0.86236
0.871647
0.5085
0.468142
0.928025
0.525442
0.870031
0.873882
0.469511
0.508957
0.928145
0.525547
1.05623
0.59348
1.03299
0.583117
1.0578
0.593772
1.03323
0.583194
0.59076
0.993004
0.566107
1.04624
0.508586
0.941215
0.510887
0.944903
0.0545679
0.0602614
0.389673
0.389864
0.462095
0.462266
0.575791
0.575766
0.658043
0.658024
1.04202
0.652894
1.09854
0.676401
1.04548
0.653397
1.10111
0.67679
1.0616
1.06763
0.674208
1.08601
0.685093
0.646751
1.06491
1.07997
0.674752
1.08763
0.685367
0.648895
0.590265
0.996808
0.566653
1.04397
0.619973
1.0828
0.620594
1.08549
0.507958
0.947285
0.512144
0.941458
0.492232
0.93463
0.491178
0.929821
0.0491824
0.039242
0.0284899
0.0224729
0.0204677
0.0121867
0.0386661
0.0279011
0.032004
0.037341
0.0490254
0.0777377
0.0596824
0.0149526
0.00410428
0.478809
0.479179
0.431159
0.431564
0.709639
0.709571
0.710346
0.710561
1.11013
0.683962
1.12023
0.687548
1.11675
0.685011
1.12697
0.688588
1.10667
0.693723
1.13572
0.695481
1.11406
0.694838
1.1426
0.696609
1.14053
0.64142
1.15118
0.646087
1.14477
0.642241
1.15851
0.647531
1.16226
0.650789
1.17494
0.659457
1.1712
0.652574
1.18326
0.661236
0.56749
0.982898
0.539347
1.04964
0.0631109
0.0685113
0.314249
0.3144
0.321728
0.321805
0.333207
0.33296
0.442508
0.442408
0.701152
0.459957
0.821126
0.506262
0.70838
0.46085
0.829405
0.507459
0.953976
0.590862
0.906758
0.568442
0.958779
0.591613
0.915514
0.569682
1.08566
0.626258
1.13985
0.655331
1.08998
0.62702
1.14278
0.655875
1.04678
1.10138
0.66013
0.604018
1.14209
0.665134
1.05813
1.10461
0.660714
0.60635
1.1439
0.665488
0.566913
0.984949
0.539813
1.04645
0.592782
1.08423
0.593409
1.08657
0.0550626
0.0416772
0.0301713
0.0247519
0.0217286
0.0118976
0.0146885
0.0187081
0.0281602
0.0343483
0.0428463
0.0694793
0.0739135
0.0288362
0.0246118
0.607638
0.607879
0.571611
0.572096
0.7486
0.74871
0.743338
0.743454
1.17489
0.65767
1.19676
0.663365
1.18327
0.659383
1.20406
0.664898
1.16622
0.669514
1.19156
0.66464
1.17454
0.671112
1.19898
0.666225
1.17936
0.646322
1.18841
0.64819
0.0727756
0.0752597
0.268709
0.268915
0.291656
0.291816
0.229438
0.228952
0.246581
0.246172
0.371598
0.244857
0.403258
0.266196
0.380556
0.245746
0.411933
0.267133
0.567071
0.368652
0.528738
0.345863
0.57488
0.3696
0.536401
0.346726
0.738751
0.413768
0.847392
0.472769
0.747574
0.415341
0.855706
0.474466
0.981949
0.563567
0.929181
0.532917
0.987538
0.56464
0.93815
0.534631
0.0591534
0.0425342
0.031152
0.026166
0.0218228
0.0109355
0.00654867
0.0139789
0.0236449
0.029165
0.0377368
0.0594431
0.0812242
0.0425053
0.440739
0.440973
0.43696
0.437271
0.624832
0.624632
0.579588
0.579986
0.674403
1.10476
0.672646
1.11501
0.67429
1.10507
0.672785
1.11413
0.662641
1.0406
0.641827
1.08849
0.662547
1.04456
0.642409
1.08778
1.19632
0.647852
1.20177
0.646651
1.20432
0.64964
1.20835
0.648186
1.18496
0.645383
1.21302
0.645974
1.19217
0.646914
1.21917
0.647471
0.0808031
0.0914992
0.0840982
0.206926
0.206939
0.202449
0.201871
0.120872
0.120515
0.149441
0.149424
0.303013
0.191561
0.386749
0.222495
0.311785
0.192872
0.395109
0.224038
0.585594
0.329068
0.513389
0.293896
0.594723
0.330754
0.521191
0.295347
0.702485
0.393282
0.711224
0.394958
0.0594881
0.041069
0.0312516
0.0261445
0.0207506
0.00931134
0.00380387
0.0112433
0.018413
0.0209485
0.0342624
0.0540656
0.0870156
0.0592252
0.578876
0.578679
0.548554
0.548323
0.938237
0.568093
0.571642
0.925556
0.942651
0.568662
0.571391
0.924895
0.621693
0.621652
0.652302
1.17907
0.655715
1.20407
0.652099
1.17991
0.655863
1.2028
0.630876
1.09031
0.597657
1.17192
0.630793
1.09654
0.59879
1.1712
1.18978
0.642833
1.19587
0.644068
0.0816999
0.109894
0.108771
0.129613
0.12931
0.076202
0.0755248
0.0568658
0.054666
0.0714264
0.0712803
0.105684
0.123687
0.0974826
0.154411
0.105645
0.121905
0.0971373
0.150771
0.124422
0.228523
0.135653
0.191774
0.12436
0.230868
0.135998
0.190842
0.310084
0.172157
0.372784
0.205338
0.316194
0.173432
0.377983
0.206579
0.558985
0.311441
0.490159
0.270033
0.567256
0.313221
0.496362
0.271431
0.0554223
0.0387507
0.0299008
0.0248905
0.0176801
0.00243781
0.00811281
0.0131578
0.0166012
0.0322014
0.0566642
0.0778485
0.381383
0.381204
0.29562
0.295834
0.918494
0.550776
0.893432
0.556229
0.920677
0.551111
0.896722
0.556596
0.604967
0.604951
1.00999
0.549868
0.559173
0.990454
1.01431
0.550692
0.559105
0.990602
0.940403
0.562377
0.959185
0.566951
0.942946
0.562721
0.959052
0.566912
0.613295
1.08906
0.577175
1.15663
0.613551
1.09437
0.578253
1.15839
0.0754544
0.113309
0.151654
0.134348
0.15627
0.154945
0.114322
0.111191
0.073655
0.0725466
0.0961605
0.075783
0.0796442
0.0767371
0.0957591
0.0742364
0.0777167
0.0765025
0.103675
0.173084
0.0932904
0.194846
0.103461
0.170744
0.092732
0.193237
0.116564
0.235869
0.128706
0.217171
0.116568
0.238449
0.129163
0.216925
0.301528
0.164821
0.307135
0.16603
0.0496204
0.0350548
0.0281832
0.023646
0.00164168
0.00656757
0.0104087
0.014733
0.0404689
0.0425835
0.161604
0.161695
0.277008
0.277119
0.385354
0.385253
0.247652
0.247558
0.996564
0.545457
0.967237
0.556707
0.999616
0.546089
0.96984
0.557172
0.543374
0.794246
0.496879
0.916446
0.543422
0.79636
0.497104
0.916579
1.04798
0.544818
0.551267
1.04006
1.04957
0.545283
0.550983
1.03833
1.02131
0.548463
1.03453
0.555522
1.02466
0.549112
1.03529
0.555684
0.0651066
0.104041
0.159468
0.227193
0.32373
0.322969
0.306312
0.305552
0.315696
0.313919
0.34819
0.161185
0.329185
0.181115
0.33687
0.158162
0.319375
0.177567
0.315191
0.137855
0.303694
0.127303
0.1289
0.0822543
0.308626
0.136216
0.299899
0.126207
0.126733
0.0810161
0.158038
0.0815028
0.155695
0.0805391
0.106411
0.235665
0.10439
0.229487
0.106087
0.232979
0.103749
0.227635
0.0423952
0.0317553
0.0288907
0.00153623
0.00533775
0.00930233
0.0165608
0.0337968
0.036501
0.144758
0.144932
0.280856
0.280835
0.495144
0.798842
0.312788
0.438597
0.28003
0.448694
0.800657
0.495178
0.448998
0.312648
0.438386
0.279774
0.277434
0.183463
0.299455
0.19082
0.280481
0.183899
0.301437
0.191061
1.03083
0.543303
1.02749
0.549218
1.03343
0.543889
1.02941
0.549614
0.505976
0.926029
0.50607
0.926297
0.550525
1.05108
0.550342
1.05009
1.03606
0.544958
1.0395
0.54564
0.0527472
0.0868877
0.145596
0.232487
0.483447
0.483161
0.436038
0.435264
0.449748
0.447408
0.462653
0.462498
0.341856
0.643689
0.332691
0.702336
0.254478
0.531522
0.341833
0.642737
0.332186
0.701952
0.253314
0.527388
0.510975
0.236093
0.505681
0.23484
0.477758
0.218389
0.453546
0.276442
0.204654
0.118064
0.47371
0.217329
0.45011
0.273181
0.203731
0.117038
0.274419
0.112844
0.270911
0.111909
0.0359679
0.0338857
0.0012975
0.00446392
0.0109177
0.0180414
0.0271803
0.188917
0.188853
0.111281
0.111276
0.167054
0.166923
0.279307
0.27934
0.713798
0.443949
0.271175
0.3944
0.347651
0.218485
0.714816
0.443666
0.394535
0.270865
0.347533
0.218171
0.257043
0.155529
0.247926
0.149524
0.25907
0.155891
0.249613
0.149809
1.00646
0.533273
1.00786
0.533576
0.0410342
0.0669551
0.117895
0.207514
0.38164
0.544563
0.543983
0.51204
0.510258
0.825103
0.450417
0.87594
0.455043
0.814788
0.447085
0.868272
0.453185
0.90698
0.787917
0.479856
0.884903
0.466182
0.403986
0.910124
0.792126
0.480521
0.882483
0.465558
0.405015
0.419455
0.337764
0.820888
0.704108
0.420509
0.337217
0.825911
0.701797
0.692985
0.327887
0.689288
0.327035
0.640254
0.300917
0.401201
0.179566
0.636439
0.299969
0.397384
0.178513
0.0390209
0.000887405
0.00542331
0.0127651
0.0161193
0.0391648
0.134018
0.133953
0.0965332
0.0964403
0.162967
0.250627
0.156981
0.255244
0.163024
0.250715
0.156972
0.25617
0.221167
0.221536
0.26379
0.149361
0.235278
0.139312
0.264454
0.149447
0.236131
0.139517
0.0442937
0.0477039
0.0863895
0.162663
0.309376
0.802093
0.802073
0.78816
0.787292
0.641554
0.640897
0.671667
0.669071
1.06387
0.545114
1.06316
0.550341
1.05802
0.543542
1.05766
0.549026
0.92252
1.03142
0.493152
0.566853
1.06103
0.568333
0.929716
1.03155
0.566739
0.494562
1.05759
0.567491
0.407773
0.803107
0.408205
0.805576
0.00098397
0.0059386
0.0134832
0.0253423
0.14688
0.147268
0.12254
0.122711
0.177227
0.178077
0.161746
0.162186
0.166518
0.299238
0.165448
0.28909
0.167203
0.299512
0.16541
0.291727
0.323134
0.194783
0.40201
0.213721
0.328435
0.196104
0.408732
0.215031
0.283841
0.155561
0.282933
0.155247
0.0496305
0.0567012
0.113224
0.230373
0.515212
0.852573
0.852315
0.901905
0.900829
0.880416
0.879229
0.636447
1.2527
0.645186
1.18312
0.636175
1.24825
0.64429
1.18251
1.27216
0.65425
1.26784
0.667091
1.26757
0.653236
1.26059
0.665486
0.00151204
0.00692035
0.0221344
0.0536038
0.115797
0.115504
0.094938
0.0949501
0.452346
0.215854
0.133408
0.330514
0.173905
0.269275
0.457693
0.216926
0.131282
0.319757
0.171815
0.259148
0.141972
0.139669
0.19366
0.344913
0.177093
0.397266
0.194913
0.345396
0.17722
0.403633
0.50455
0.233312
0.510171
0.234473
0.0550688
0.0691636
0.150652
0.341887
1.03562
1.03503
0.989561
0.988535
0.85489
0.855636
1.00256
1.00176
1.48786
0.79485
1.61188
0.828132
1.44685
0.746025
1.48381
0.793253
1.61133
0.828081
1.44825
0.746488
1.46522
0.754332
1.46955
0.755301
1.46391
0.76577
1.46843
0.766621
0.00189918
0.0142825
0.0529187
0.136588
0.137057
0.183854
0.184212
0.103524
0.100476
0.0980027
0.0979837
0.50018
0.228234
0.136828
0.384257
0.182293
0.307069
0.492975
0.226976
0.135653
0.374291
0.180195
0.301031
0.254333
0.0938841
0.321352
0.118294
0.229602
0.0893051
0.30122
0.114083
0.0607135
0.0865174
0.202455
0.549194
1.06093
1.05943
1.08288
1.08121
1.04774
1.04756
1.6487
0.87854
0.843387
1.65889
0.899285
1.51316
0.844763
1.66142
0.899843
1.51934
1.65165
0.879121
1.74235
1.63536
0.922749
0.84321
1.7457
1.6378
0.923352
0.843759
1.62941
0.845116
1.63543
0.846312
0.00412958
0.0591644
0.115038
0.129471
0.129485
0.192597
0.193108
0.220639
0.0812767
0.0774046
0.160494
0.0709276
0.144268
0.192167
0.0759629
0.0765697
0.145283
0.0680116
0.138766
0.0987448
0.0985419
0.159665
0.409407
0.157079
0.397307
0.3039
0.106417
0.276721
0.100659
0.0667799
0.108134
0.272149
0.940496
0.939596
1.00442
1.0027
0.983968
0.981483
1.12656
1.12196
1.57741
0.869247
1.72244
0.911643
1.71424
0.917725
1.56947
1.7176
0.918677
0.86674
1.72381
0.912279
1.70738
0.946424
1.7817
0.970352
1.78666
1.71162
0.971518
0.947064
0.0193391
0.12111
0.147037
0.110049
0.110171
0.0920735
0.0919573
0.200924
0.0750483
0.0747908
0.183393
0.0741751
0.14969
0.173367
0.0695058
0.073638
0.168623
0.0706933
0.145614
0.107314
0.0838051
0.145395
0.0824498
0.107839
0.0839046
0.145033
0.0821326
0.279084
0.100332
0.251586
0.0942117
0.073132
0.13135
0.351269
0.897804
0.89626
0.927501
0.924577
1.04848
1.04355
1.71146
0.912965
0.884806
1.80499
0.934785
1.62553
1.70472
0.911237
0.881648
1.79103
0.931603
1.61472
1.76448
1.80611
0.949469
0.961844
1.81403
0.963721
1.76312
0.949223
0.184452
0.181342
0.219125
0.12697
0.127127
0.21919
0.241391
0.241516
0.0984794
0.0938402
0.0824562
0.0980405
0.0935273
0.082528
0.23101
0.0828242
0.0861104
0.236196
0.0906688
0.199352
0.207861
0.0774663
0.0847282
0.226006
0.0878409
0.195006
0.156866
0.0907545
0.156305
0.0903983
0.078687
0.151042
0.368768
0.80531
0.803231
0.863746
0.860005
1.29618
0.733279
1.50555
0.790184
1.70854
0.888727
1.28269
1.69381
0.885118
0.728733
1.49439
0.787774
1.82986
0.957564
1.8462
0.948844
1.81973
0.955268
1.83449
0.946221
1.82034
0.9853
1.81312
0.983791
0.219777
0.178034
0.154496
0.311983
0.155063
0.312188
0.283204
0.282782
0.100532
0.0667547
0.0731539
0.0810894
0.0753355
0.0945928
0.110681
0.104402
0.0674939
0.0994073
0.073036
0.0793545
0.073456
0.0943184
0.109407
0.104294
0.0938896
0.206508
0.0928145
0.203457
0.123599
0.0836259
0.124767
0.0835004
0.0824988
0.157113
0.479034
0.806123
0.802779
0.477439
0.628899
0.625692
0.890758
1.29067
0.708347
0.887909
1.28793
0.707419
1.6314
1.39814
0.855295
0.746209
1.6201
0.853038
1.3974
0.746185
1.89431
0.99413
1.76711
0.936696
1.88356
0.99168
1.75916
0.934813
0.159746
0.175245
0.285665
0.123905
0.14679
0.640828
0.289056
0.124337
0.148357
0.644234
0.452907
0.454215
0.0811681
0.129494
0.0980781
0.081981
0.0839512
0.11681
0.0812207
0.0991276
0.128152
0.0823677
0.0839125
0.116592
0.0942906
0.168351
0.0936133
0.167448
0.0821702
0.162333
0.434118
0.738128
0.731677
0.431501
0.530261
0.525745
1.32557
1.31509
0.722509
1.29942
0.714176
0.712938
1.1721
0.679783
1.31224
1.31982
0.723632
1.30124
0.714495
0.710158
1.15389
0.673512
1.47079
1.37833
0.805314
0.747774
1.46854
0.804976
1.38537
0.749426
0.0801648
0.12369
0.233986
0.234579
0.123836
0.108103
0.10785
1.57789
0.203272
0.767955
0.542779
0.257735
0.782642
2.21213
1.09673
0.380945
1.50243
0.795457
1.59734
0.204575
0.785764
0.54624
0.262092
0.785107
2.22824
1.09877
0.382346
1.51009
0.795532
0.093035
0.343704
0.0909918
0.292117
0.0927932
0.346698
0.0909047
0.292779
0.0784385
0.122749
0.322401
0.68611
0.669878
1.21002
0.679287
0.666082
1.19731
0.318558
0.413208
0.405774
1.31912
1.32283
1.3557
0.729741
0.753365
0.711846
1.31852
1.3052
1.36994
0.756292
0.729784
0.708456
1.42553
0.796632
1.43088
0.797812
0.0223958
0.177469
0.08602
0.178187
0.0862033
0.087988
0.0878208
1.317
2.86177
1.58145
0.963371
2.14746
1.12596
0.414647
0.792521
0.487063
0.992136
0.573174
0.283291
0.291688
0.248215
1.32677
2.87096
0.964713
1.58361
2.15189
1.12599
0.796619
0.41874
0.487239
0.999702
0.573343
0.283584
0.301825
0.247383
0.0656557
0.0767683
0.28707
0.283542
0.0786364
0.148588
0.147374
0.629731
0.653395
1.09759
0.61395
1.17344
0.445148
0.819468
0.468566
0.611332
0.64819
1.07914
0.609162
1.15518
0.437042
0.810443
0.467511
0.389734
0.625521
0.393691
0.383514
0.611087
0.387788
1.31631
1.29685
0.741736
0.708017
1.3068
1.27301
0.740506
0.703809
0.00872368
0.12426
0.213452
0.25316
0.0614537
0.124604
0.213743
0.252296
0.060935
0.0450565
0.0446771
2.69742
1.53896
1.43759
0.821289
0.58673
0.349003
1.15457
0.690005
0.382737
0.241994
2.70134
1.53918
1.43982
0.821384
0.59002
1.15741
0.348047
0.690174
0.38242
0.241459
0.0546539
0.0931288
0.17986
0.176498
0.0933911
0.129365
0.128138
1.22416
0.87533
0.682617
0.508771
0.73579
0.420904
1.19936
0.871436
0.678672
0.508223
0.731542
0.420205
0.447215
0.578133
0.337247
0.607123
0.371317
0.280454
0.31638
0.359472
0.435826
0.567457
0.334325
0.591339
0.365676
0.276761
0.304813
0.349932
0.00917994
0.0305614
0.0304399
0.107082
0.204037
0.201428
0.194804
0.231268
0.0370993
0.107117
0.204405
0.206626
0.193618
0.229016
0.0366653
0.849411
0.467282
0.321354
0.547422
0.318913
0.228228
0.849053
0.465064
0.319491
0.546559
0.317642
0.227531
0.0462196
0.0701906
0.170885
0.254834
0.236861
0.166938
0.255751
0.233791
0.0711501
0.103721
0.103939
0.788915
0.472941
0.670445
0.390222
0.788295
0.473015
0.665097
0.389451
0.480781
0.312033
0.621513
0.285853
0.357905
0.206246
0.473095
0.303553
0.61279
0.356595
0.284263
0.204479
0.00114622
0.0254921
0.0189711
0.025399
0.0190665
0.0724654
0.178524
0.184037
0.187315
0.186206
0.288768
0.213317
0.0272651
0.0722737
0.17842
0.188919
0.185679
0.184027
0.289809
0.213264
0.026871
0.413952
0.293238
0.40981
0.291587
0.0370359
0.0587004
0.059293
0.152232
0.2462
0.256155
0.252227
0.236885
0.150528
0.243587
0.242458
0.242976
0.230773
0.0869256
0.0872822
0.358883
0.541793
0.282268
0.248555
0.331391
0.194469
0.353005
0.535025
0.272127
0.330424
0.247726
0.192822
0.000997833
0.0147151
0.0200809
0.0146608
0.0200514
0.0154914
0.0152343
0.0529744
0.150358
0.101492
0.125166
0.147446
0.200879
0.277499
0.20622
0.267807
0.361284
0.268209
0.0526404
0.151513
0.101728
0.124351
0.14357
0.200221
0.278593
0.206238
0.264963
0.359521
0.267235
0.0479957
0.0469468
0.0446688
0.0478479
0.0460073
0.133056
0.238204
0.246371
0.24995
0.225797
0.276686
0.19178
0.132658
0.240942
0.236474
0.244048
0.226745
0.266495
0.190115
0.0703091
0.0709813
0.304267
0.232127
0.298154
0.231796
0.00102992
0.0383134
0.04684
0.038455
0.0468158
0.0174668
0.024701
0.0174573
0.0246899
0.0362333
0.0360596
0.09729
0.0749466
0.10834
0.0598301
0.169139
0.170776
0.137792
0.216451
0.248308
0.345534
0.258335
0.327826
0.0969731
0.0749168
0.106267
0.0594591
0.168583
0.171366
0.138021
0.214441
0.247501
0.34426
0.257687
0.324664
0.0631007
0.0648127
0.0896183
0.0659084
0.0898157
0.0676858
0.068943
0.107439
0.225448
0.211264
0.228396
0.221952
0.197789
0.278092
0.194746
0.271986
0.276848
0.223597
0.107752
0.22813
0.206374
0.223296
0.225105
0.196895
0.267853
0.19317
0.266335
0.269797
0.223441
0.00026358
0.0582847
0.0369932
0.0581743
0.0365773
0.0455139
0.0608098
0.0456647
0.0608805
0.0298772
0.0332373
0.0294368
0.0328385
0.0917873
0.0420568
0.0873694
0.0459039
0.0922013
0.0424355
0.0875549
0.0462726
0.0783077
0.119189
0.102222
0.087279
0.0793733
0.1215
0.103009
0.0898172
0.0762654
0.11279
0.12655
0.112025
0.126307
0.0974021
0.152744
0.0978825
0.150954
0.103477
0.104575
0.218875
0.182196
0.233213
0.160811
0.184554
0.238776
0.172958
0.263367
0.226562
0.27563
0.222413
0.28212
0.225051
0.179276
0.229367
0.166474
0.184515
0.239499
0.173009
0.263599
0.226596
0.268059
0.222286
0.276616
0.00702787
0.000368599
0.0677602
0.0426834
0.0677825
0.0422235
0.0434532
0.0633598
0.0430814
0.06339
0.0935084
0.0408768
0.0877717
0.0417242
0.100977
0.0496937
0.107369
0.0454867
0.0961631
0.0414835
0.0893943
0.0426612
0.103846
0.0498419
0.1077
0.0466436
0.0615041
0.0513611
0.0485424
0.0656074
0.0628358
0.0542142
0.0498359
0.0689874
0.0835373
0.15033
0.141734
0.15031
0.1434
0.169512
0.161196
0.166456
0.159479
0.135903
0.219597
0.135995
0.215086
0.216539
0.174869
0.225994
0.162005
0.221804
0.175432
0.225881
0.16702
0.150071
0.189737
0.155546
0.169189
0.150891
0.192361
0.155896
0.174141
0.00209337
0.0537864
0.0376128
0.0534289
0.0378886
0.000432634
0.0770514
0.0601188
0.0770297
0.0594352
0.11598
0.0604954
0.114879
0.060657
0.124444
0.0882555
0.12017
0.0757615
0.118829
0.0604891
0.115217
0.0619133
0.127922
0.087615
0.119065
0.07799
0.041084
0.0482694
0.0447415
0.0462377
0.0417614
0.0524649
0.0493116
0.0469062