/*--------------------------------*- C++ -*----------------------------------*\
| =========                 |                                                 |
| \\      /  F ield         | OpenFOAM: The Open Source CFD Toolbox           |
|  \\    /   O peration     | Version:  5.x                                   |
|   \\  /    A nd           | Web:      www.OpenFOAM.org                      |
|    \\/     M anipulation  |                                                 |
\*---------------------------------------------------------------------------*/
FoamFile
{
    version     2.0;
    format      ascii;
    class       surfaceScalarField;
    location    "2.1";
    object      meshPhi;
}
// * * * * * * * * * * * * * * * * * * * * * * * * * * * * * * * * * * * * * //

dimensions      [0 3 -1 0 0 0 0];

internalField   nonuniform List<scalar> 
30582
(
0
0
0
0
0
0
0
0
0
0
0
0
0
0
0
0
0
0
0
0
0
0
0
0
0
0
0
0
0
0
0
0
0
0
0
0
0
0
0
0
0
0
0
0
0
0
0
0
0
0
0
0
0
0
0
0
0
0
0
0
0
0
0
0
0
0
0
0
0
0
0
0
0
0
0
0
0
0
0
0
0
0
0
0
0
0
0
0
0
0
0
0
0
0
0
0
0
0
0
0
0
0
0
0
0
0
0
0
0
0
0
0
0
0
0
0
0
0
0
0
0
0
0
0
0
0
0
0
0
0
0
0
0
0
0
0
0
0
0
0
0
0
0
0
0
0
0
0
0
0
0
0
0
0
0
0
0
0
0
0
0
0
0
0
0
0
0
0
0
0
0
0
0
0
0
0
0
0
0
0
0
0
0
0
0
0
0
0
0
0
0
0
0
0
0
0
0
0
0
0
0
0
0
0
0
0
0
0
0
0
0
0
0
0
0
0
0
0
0
0
0
0
0
0
0
0
0
0
0
0
0
0
0
0
0
0
0
0
0
0
0
0
0
0
0
0
0
0
0
0
0
0
0
0
0
0
0
0
0
0
0
0
0
0
0
0
0
0
0
0
0
0
0
0
0
0
0
0
0
0
0
0
0
0
0
0
0
0
0
0
0
0
0
0
0
0
0
0
0
0
0
0
0
0
0
0
0
0
0
0
0
0
0
0
0
0
0
0
0
0
0
0
0
0
0
0
0
0
0
0
0
0
0
0
0
0
0
0
0
0
0
0
0
0
0
0
0
0
0
0
0
0
0
0
0
0
0
0
0
0
0
0
0
0
0
0
0
0
0
0
0
0
0
0
0
0
0
0
0
0
0
0
0
0
0
0
0
0
0
0
0
0
0
0
0
0
0
0
0
0
0
0
0
0
0
0
0
0
0
0
0
0
0
0
0
0
0
0
0
0
0
0
0
0
0
0
0
0
0
0
0
0
0
0
0
0
0
0
0
0
0
0
0
0
0
0
0
0
0
0
0
0
0
0
0
0
0
0
0
0
0
0
0
0
0
0
0
0
0
0
0
0
0
0
0
0
0
0
0
0
0
0
0
0
0
0
0
0
0
0
0
0
0
0
0
0
0
0
0
0
0
0
0
0
0
0
0
0
0
0
0
0
0
0
0
0
0
0
0
0
0
0
0
0
0
0
0
0
0
0
0
0
0
0
0
0
0
0
0
0
0
0
0
0
0
0
0
0
0
0
0
0
0
0
0
0
0
0
0
0
0
0
0
0
0
0
0
0
0
0
0
0
0
0
0
0
0
0
0
0
0
0
0
0
0
0
0
0
0
0
0
0
0
0
0
0
0
0
0
0
0
0
0
0
0
0
0
0
0
0
0
0
0
0
0
0
0
0
0
0
0
0
0
0
0
0
0
0
0
0
0
0
0
0
0
0
0
0
0
0
0
0
0
0
0
0
0
0
0
0
0
0
0
0
0
0
0
0
0
0
0
0
0
0
0
0
0
0
0
0
0
0
0
0
0
0
0
0
0
0
0
0
0
0
0
0
0
0
0
0
0
0
0
0
0
0
0
0
0
0
0
0
0
0
0
0
0
0
0
0
0
0
0
0
0
0
0
0
0
0
0
0
0
0
0
0
0
0
0
0
0
0
0
0
0
0
0
0
0
0
0
0
0
0
0
0
0
0
0
0
0
0
0
0
0
0
0
0
0
0
0
0
0
0
0
0
0
0
0
0
0
0
0
0
0
0
0
0
0
0
0
0
0
0
0
0
0
0
0
0
0
0
0
0
0
0
0
0
0
0
0
0
0
0
0
0
0
0
0
0
0
0
0
0
0
0
0
0
0
0
0
0
0
0
0
0
0
0
0
0
0
0
0
0
0
0
0
0
0
0
0
0
0
0
0
0
0
0
0
0
0
0
0
0
0
0
0
0
0
0
0
0
0
0
0
0
0
0
0
0
0
0
0
0
0
0
0
0
0
0
0
0
0
0
0
0
0
0
0
0
0
0
0
0
0
0
0
0
0
0
0
0
0
0
0
0
0
0
0
0
0
0
0
0
0
0
0
0
0
0
0
0
0
0
0
0
0
0
0
0
0
0
0
0
0
0
0
0
0
0
0
0
0
0
0
0
0
0
0
0
0
0
0
0
0
0
0
0
0
0
0
0
0
0
0
0
0
0
0
0
0
0
0
0
0
0
0
0
0
0
0
0
0
0
0
0
0
0
0
0
0
0
0
0
0
0
0
0
0
0
0
0
0
0
0
0
0
0
0
0
0
0
0
0
0
0
0
0
0
0
0
0
0
0
0
0
0
0
0
0
0
0
0
0
0
0
0
0
0
0
0
0
0
0
0
0
0
0
0
0
0
0
0
0
0
0
0
0
0
0
0
0
0
0
0
0
0
0
0
0
0
0
0
0
0
0
0
0
0
0
0
0
0
0
0
0
0
0
0
0
0
0
0
0
0
0
0
0
0
0
0
0
0
0
0
0
0
0
0
0
0
0
0
0
0
0
0
0
0
0
0
0
0
0
0
0
0
0
0
0
0
0
0
0
0
0
0
0
0
0
0
0
0
0
0
0
0
0
0
0
0
0
0
0
0
0
0
0
0
0
0
0
0
0
0
0
0
0
0
0
0
0
0
0
0
0
0
0
0
0
0
0
0
0
0
0
0
0
0
0
0
0
0
0
0
0
0
0
0
0
0
0
0
0
0
0
0
0
0
0
0
0
0
0
0
0
0
0
0
0
0
0
0
0
0
0
0
0
0
0
0
0
0
0
0
0
0
0
0
0
0
0
0
0
0
0
0
0
0
0
0
0
0
0
0
0
0
0
0
0
0
0
0
0
0
0
0
0
0
0
0
0
0
0
0
0
0
0
0
0
0
0
0
0
0
0
0
0
0
0
0
0
0
0
0
0
0
0
0
0
0
0
0
0
0
0
0
0
0
0
0
0
0
0
0
0
0
0
0
0
0
0
0
0
0
0
0
0
0
0
0
0
0
0
0
0
0
0
0
0
0
0
0
0
0
0
0
0
0
0
0
0
0
0
0
0
0
0
0
0
0
0
0
0
0
0
0
0
0
0
0
0
0
0
0
0
0
0
0
0
0
0
0
0
0
0
0
0
0
0
0
0
0
0
0
0
0
0
0
0
0
0
0
0
0
0
0
0
0
0
0
0
0
0
0
0
0
0
0
0
0
0
0
0
0
0
0
0
0
0
0
0
0
0
0
0
0
0
0
0
0
0
0
0
0
0
0
0
0
0
0
0
0
0
0
0
0
0
0
0
0
0
0
0
0
0
0
0
0
0
0
0
0
0
0
0
0
0
0
0
0
0
0
0
0
0
0
0
0
0
0
2.91078e-18
-1.02658e-17
4.16525e-25
-3.07936e-17
-1.53937e-17
-2.05413e-17
0
0
0
0
0
0
0
0
0
0
0
0
0
0
0
0
0
0
0
0
0
0
0
0
0
0
0
0
0
0
0
0
0
0
0
0
0
0
-5.12079e-18
-1.61213e-34
7.46969e-19
-1.18683e-25
-2.56379e-17
2.05287e-17
2.86195e-18
-3.07936e-17
5.13152e-18
-3.08027e-17
1.48558e-18
3.25421e-25
5.12797e-17
-3.71708e-34
2.19989e-18
-3.07772e-17
-7.43898e-18
5.12955e-17
0
0
0
0
0
0
0
0
0
0
0
0
0
0
0
0
0
0
0
0
0
0
0
0
0
0
0
0
0
0
0
0
0
0
0
0
0
-8.53069e-19
4.41867e-18
-3.24251e-17
3.60425e-20
6.13638e-17
2.04361e-17
-4.09919e-17
1.34592e-35
1.46388e-18
-1.53828e-17
-1.86885e-33
7.55099e-19
-2.07493e-25
-2.55774e-17
0
-8.71755e-17
8.57911e-21
4.10238e-17
2.29156e-35
-7.1728e-19
-3.07772e-17
-7.43898e-18
3.07785e-17
4.62867e-20
-3.26511e-24
3.06984e-17
-2.86514e-34
6.73596e-21
4.09276e-17
0
0
0
0
0
0
0
0
0
0
0
0
0
0
0
0
0
0
0
0
0
0
0
0
0
0
0
0
0
0
0
0
0
0
0
-1.6106e-17
-3.06954e-17
-2.04328e-17
-5.17363e-18
-5.24303e-20
-2.41376e-34
-9.23595e-20
-5.53598e-20
-3.58292e-17
-1.17858e-17
2.82826e-18
2.01843e-17
1.85964e-34
-2.46741e-19
-1.52956e-17
2.75688e-18
2.03958e-17
-1.10385e-34
-8.09193e-20
5.12074e-18
0
-4.38939e-19
-8.91906e-24
-8.91457e-18
1.52736e-17
-1.14586e-17
1.52953e-17
0
0
-2.13144e-18
4.37977e-18
-2.09406e-17
-1.3056e-20
-3.07539e-17
-1.01881e-17
6.13638e-17
9.25733e-20
4.09312e-17
2.33032e-34
1.02386e-17
8.18967e-17
0
4.15078e-24
-2.29291e-17
2.5448e-18
-2.29138e-17
5.10818e-18
0
1.02195e-17
-2.6387e-18
1.03021e-17
-1.02151e-17
1.27768e-17
-1.02873e-17
1.29107e-17
-2.56443e-18
0
0
0
0
0
0
0
0
0
0
0
0
0
0
0
0
0
0
0
0
0
0
0
0
0
0
0
0
0
0
0
0
0
1.41263e-17
-2.5682e-17
2.05019e-17
-1.5391e-17
-1.03905e-17
8.08061e-35
4.41813e-18
-3.06614e-17
-2.79064e-18
4.07909e-17
3.02664e-34
-1.04009e-17
-1.54149e-17
0
4.11994e-17
-1.0505e-35
2.18831e-11
5.89134e-12
2.18886e-09
-8.80298e-14
3.23394e-13
-1.71722e-08
-2.50583e-13
-1.73803e-08
1.52603e-10
-9.29939e-19
1.79709e-19
-5.87492e-19
-1.80498e-19
5.19147e-18
-1.98923e-17
-1.30429e-18
-1.23204e-17
-2.37142e-18
-3.83828e-34
7.04691e-16
-1.01589e-12
-1.69895e-08
1.3551e-14
-3.42883e-08
-7.17932e-19
-1.24568e-18
-2.78922e-17
-5.08265e-18
-3.55712e-17
0
3.97572e-19
-1.14695e-17
5.09526e-18
-1.65464e-17
1.01862e-17
-8.34149e-19
-8.52637e-20
0
5.31775e-19
-8.88588e-18
-8.49541e-20
-8.59439e-19
-3.76117e-23
6.33277e-18
0
-5.69087e-22
1.27312e-15
-9.95175e-19
1.01463e-17
0
0
4.18936e-17
-5.17379e-18
-1.03488e-17
1.77421e-20
-2.04328e-17
0
-1.46872e-18
-1.33854e-18
-5.09609e-18
7.36156e-18
2.75675e-18
8.35606e-34
0
-1.67163e-22
-1.53075e-17
2.93942e-18
1.01771e-17
8.47427e-20
-1.40089e-17
5.09036e-18
-8.91312e-18
5.10146e-18
0
1.02111e-17
-5.19266e-18
1.54088e-17
-1.02089e-17
1.53187e-17
-1.28532e-17
1.28857e-17
-5.11093e-18
-1.2636e-18
-8.51416e-20
1.45028e-18
-8.87261e-18
0
-8.48243e-20
8.88751e-26
8.8765e-18
9.87744e-26
-6.34049e-18
0
-1.75795e-21
1.44297e-18
0
0
-2.02841e-17
1.68822e-19
1.37284e-18
-1.01588e-12
0
-1.43656e-10
1.51636e-17
1.03733e-18
-1.69456e-19
-1.77216e-17
-8.42164e-20
1.37226e-18
1.0218e-17
-3.84557e-17
1.01482e-17
0
0
0
0
0
0
0
0
0
0
0
0
0
0
0
0
0
0
0
0
0
0
0
0
0
0
0
0
0
0
0
-5.71008e-18
-1.78448e-20
1.02101e-17
-1.04016e-17
1.03528e-17
2.58054e-35
1.29355e-18
1.54542e-17
-1.43793e-17
4.10072e-17
3.63298e-35
1.00648e-19
-5.09922e-18
-1.1863e-17
2.04467e-17
-1.13715e-25
-4.92925e-09
3.65722e-12
-1.5403e-08
-8.49675e-11
-1.68952e-08
-1.07771e-08
5.01604e-18
-2.05184e-17
-1.60991e-12
1.23482e-10
3.95146e-27
4.8032e-09
-4.01674e-10
-1.54991e-09
1.43276e-10
-4.94159e-10
1.05e-08
1.48292e-12
7.68282e-10
1.30938e-12
-2.51662e-10
7.25748e-20
-1.87309e-19
9.41367e-19
1.03621e-12
8.30399e-20
2.37042e-13
1.50703e-13
-4.86033e-16
1.25957e-34
1.82947e-08
7.03171e-16
-1.39042e-19
-5.48582e-13
-2.04435e-17
3.53644e-34
9.65934e-11
5.0762e-18
0
-2.22696e-09
-1.6865e-08
-8.29958e-20
5.07674e-19
1.02948e-17
0
-6.4017e-19
7.96682e-20
-1.11172e-17
1.35629e-18
-4.23074e-18
-6.46215e-19
6.94834e-20
1.85125e-19
-1.53276e-17
1.25273e-18
2.42555e-17
-5.2679e-19
-1.78418e-17
1.48487e-19
5.41809e-13
-7.31444e-12
-1.35453e-12
-4.83565e-11
-1.20139e-34
-2.02228e-08
2.14034e-09
-7.18205e-20
-2.04051e-17
4.4947e-35
1.66091e-17
0
-5.50254e-19
-1.44777e-18
-4.97728e-18
1.02599e-18
1.18922e-17
-4.28635e-18
-7.17965e-20
-1.01909e-17
1.9151e-17
-6.9717e-19
-8.52638e-20
0
1.06589e-18
-1.14312e-17
1.46668e-31
-7.65891e-19
8.86717e-18
0
1.26297e-15
-5.63536e-19
2.03365e-17
2.31139e-09
0
0
-2.17811e-09
-2.62389e-11
8.42537e-20
-1.21908e-13
-7.59075e-22
3.24364e-13
0
-4.03741e-21
-1.70316e-08
-8.12736e-14
1.69392e-14
0
0
1.41262e-17
-1.54766e-17
1.02176e-17
5.17999e-18
1.01801e-17
-4.80701e-34
-4.24393e-18
-1.39051e-18
-1.03355e-17
3.02301e-18
-1.12656e-19
0
5.7333e-34
-5.15351e-18
0
0
-1.67668e-16
-1.88972e-08
4.06358e-12
-1.82255e-08
1.01654e-17
4.89276e-15
2.52273e-18
-7.17846e-19
1.00591e-17
-1.28497e-17
5.0825e-18
-2.79435e-17
0
2.08258e-12
1.50988e-10
-7.44856e-14
1.32236e-12
-1.78984e-08
1.57679e-17
7.60329e-15
2.38039e-09
-1.06699e-21
-2.42376e-18
1.26424e-18
-3.39115e-20
-4.35226e-17
6.37743e-18
-4.10191e-17
-4.06432e-18
-1.03318e-18
-8.5142e-20
1.47239e-18
-2.66843e-17
-8.48021e-20
-8.48286e-20
1.26806e-18
-1.52167e-17
-6.12016e-37
2.54447e-18
1.03752e-18
-1.69696e-19
0
-2.53667e-17
1.68822e-19
1.52813e-18
-5.55343e-13
0
-1.73461e-08
1.77301e-17
1.34782e-18
-8.47266e-20
-2.91746e-17
0
1.49112e-18
2.54157e-18
-1.78088e-17
-1.09673e-33
-6.78956e-19
1.70874e-19
2.96566e-18
-2.8e-17
0
-3.08728e-19
2.29155e-24
1.04753e-21
1.05854e-23
-5.04707e-17
-1.04137e-19
2.54403e-18
0
0
1.69777e-08
1.64237e-13
8.48127e-20
-9.94649e-18
3.74849e-18
0
0
0
0
0
0
0
0
0
0
0
0
0
0
0
0
0
0
0
0
0
0
0
0
0
0
0
0
0
1.75177e-17
-2.57042e-17
2.40021e-20
5.11038e-18
4.85768e-20
9.16603e-34
2.5537e-18
-2.0398e-17
-2.31418e-17
2.03431e-17
1.40705e-33
-6.09808e-18
2.0572e-17
-6.09997e-18
2.01607e-17
4.05633e-26
4.70775e-09
-1.65194e-10
1.73831e-08
4.2203e-09
1.73881e-08
1.02928e-08
-9.58045e-13
3.21467e-10
8.46584e-13
-8.42996e-09
1.23583e-26
-6.9703e-11
4.35745e-09
-1.74573e-08
4.28027e-09
-1.72992e-08
-1.48037e-10
-4.19056e-13
-8.72719e-09
-7.83082e-13
-8.55345e-09
0
-6.56944e-12
1.35451e-12
-2.10334e-08
1.14498e-34
2.13862e-09
5.01567e-24
5.36557e-09
-3.28075e-17
-1.58238e-26
1.90621e-12
2.26918e-17
0
3.7116e-18
-5.22918e-18
-6.92704e-19
1.34125e-17
7.98187e-20
-2.02473e-12
-1.26102e-17
-1.07299e-08
3.6533e-17
8.08358e-20
7.31444e-12
-5.08195e-09
-1.05968e-17
2.09058e-08
-1.57005e-26
-1.89882e-12
2.49285e-15
-8.20205e-20
-2.59165e-17
1.48871e-26
1.28999e-17
1.61498e-19
1.57068e-18
1.89774e-12
-9.17997e-18
-7.54408e-18
1.01624e-08
-6.89372e-18
-8.19382e-20
-1.55497e-17
2.06156e-17
1.24032e-19
-4.74084e-13
4.11038e-25
2.38639e-18
1.19434e-16
8.25662e-35
-1.36067e-34
-2.89449e-09
2.89207e-20
-6.77253e-14
4.85103e-34
9.15959e-09
1.50737e-33
-5.56183e-20
3.29205e-34
8.56135e-19
1.20495e-18
-2.11591e-18
2.89395e-20
5.08448e-19
-2.01957e-19
-4.00294e-20
-9.69986e-19
-6.71192e-19
1.33207e-18
1.44895e-35
-4.04538e-16
-3.76586e-20
4.87384e-34
4.44129e-34
-1.44275e-19
8.20103e-19
1.30205e-18
2.41624e-18
0
-8.51182e-11
-1.70922e-19
0
-2.25076e-09
1.71885e-08
-8.42514e-20
-8.00948e-19
-1.42822e-14
0
1.70472e-08
-3.3864e-14
1.60862e-13
1.27191e-09
-4.67716e-20
-8.18611e-34
-1.43118e-09
-8.85669e-20
1.21907e-13
4.208e-21
-3.83875e-34
7.25673e-21
8.12712e-14
0
0
-5.95037e-18
-1.03511e-17
1.50409e-32
1.02272e-17
1.02453e-17
-1.48651e-35
-8.8197e-18
4.05192e-19
-5.07477e-18
1.42813e-17
-1.2068e-17
6.13914e-17
-1.29887e-35
-5.04917e-18
4.09384e-17
-1.7328e-26
4.92919e-09
4.80326e-09
-4.06211e-10
-1.91599e-08
1.46823e-10
-1.78557e-08
1.07772e-08
1.05e-08
1.53795e-12
7.68257e-10
1.30655e-12
-2.51688e-10
4.98638e-25
1.25294e-12
-3.38833e-08
-8.47312e-11
-1.68953e-08
3.76186e-18
-1.53887e-17
-1.61555e-12
1.23431e-10
-7.42489e-20
2.40504e-19
7.26364e-12
4.74084e-13
3.51674e-16
0
2.02224e-08
1.68108e-08
-7.18323e-20
-2.16619e-18
-1.78744e-17
0
1.80908e-16
1.52409e-17
-7.41992e-20
-3.53616e-19
-7.38399e-19
-3.94884e-20
-5.18148e-19
5.0835e-18
-6.47851e-18
7.17883e-20
-7.18852e-19
-7.63755e-18
9.81093e-19
2.41893e-17
4.61692e-24
1.82681e-18
6.94196e-13
1.0362e-12
8.30386e-20
-1.55769e-13
-2.55663e-13
-3.62587e-17
0
1.82947e-08
3.7315e-09
6.95244e-20
-2.54407e-17
0
2.16286e-17
0
2.62309e-10
-3.52071e-08
7.25704e-20
6.03768e-19
-4.13517e-19
2.63333e-19
-8.29959e-20
3.15017e-19
5.14057e-18
-5.43488e-19
4.69318e-18
-4.23061e-18
-6.9483e-20
-1.02119e-17
1.13771e-17
-4.60947e-19
-3.32364e-17
-1.43128e-18
8.54361e-20
3.52046e-18
-3.56307e-17
-2.14671e-33
-1.68083e-19
2.52309e-18
-2.7764e-17
2.40277e-19
1.16354e-21
0
0
-1.70924e-08
-4.21593e-13
8.4814e-20
-3.00311e-17
3.75909e-18
4.44099e-19
4.67392e-20
5.71277e-19
4.42574e-20
-1.09659e-19
5.73683e-24
-3.21177e-23
5.74487e-20
-5.0524e-20
-1.75617e-34
5.05069e-20
0
0
0
0
0
0
0
0
0
0
0
0
0
0
0
0
0
0
0
0
0
0
0
0
0
0
0
0
-7.69969e-17
-8.49273e-34
-8.92515e-18
1.03038e-17
-2.88559e-17
1.01431e-17
-3.85447e-33
-8.59418e-18
-5.07089e-18
1.75103e-17
3.07534e-17
5.04875e-25
6.03816e-18
-4.0427e-09
-2.89663e-17
-8.84737e-09
6.36589e-34
1.45249e-17
-2.55834e-17
-3.00332e-17
5.11679e-17
-1.5708e-19
2.57359e-12
1.69835e-17
2.72293e-10
0
2.50558e-15
-7.97008e-20
-5.15167e-09
2.54802e-17
0
-2.58206e-12
-1.02044e-17
-1.56949e-19
7.74784e-19
3.84877e-18
8.10167e-18
-2.28816e-17
7.96098e-20
1.73548e-12
1.69716e-20
1.03e-08
-1.91255e-17
-4.91102e-25
3.45404e-12
1.09926e-10
-2.6413e-12
4.73153e-10
0
-4.70479e-10
-1.74598e-08
8.08015e-20
2.55026e-17
0
-8.87954e-18
8.1116e-20
2.53881e-18
-5.75676e-13
1.02487e-17
-2.93321e-18
-2.33224e-10
-2.81053e-17
8.07243e-20
1.27455e-17
-1.90945e-17
-4.33054e-20
-3.38628e-13
-4.6257e-11
1.39307e-34
-4.89394e-20
-3.38628e-13
3.94945e-34
1.11012e-10
-4.33252e-20
8.8556e-19
-1.82944e-18
4.89668e-20
1.0746e-18
-2.84448e-18
-7.73736e-20
5.2753e-18
-5.06654e-19
-1.01752e-17
1.06901e-15
1.29558e-34
-3.39449e-16
-5.69357e-15
-6.30642e-20
5.71678e-34
-7.73777e-20
-1.45323e-19
7.12421e-19
-1.41324e-18
-6.87403e-18
1.42483e-18
3.94297e-17
6.30733e-20
-8.63729e-11
4.67729e-20
-5.53776e-34
-1.24268e-09
0
7.28057e-14
-2.53362e-34
3.38629e-14
0
0
-2.89137e-17
5.12235e-18
1.029e-17
1.53552e-17
-2.05476e-17
9.45367e-35
-2.5537e-18
-1.18963e-17
9.43664e-20
1.74319e-17
7.01909e-32
4.08913e-17
6.43663e-34
-1.01158e-17
4.08521e-17
-5.48465e-27
-4.70798e-09
1.63501e-17
5.91758e-12
1.74577e-08
4.2718e-09
1.73007e-08
-1.02931e-08
-2.03223e-17
5.13467e-18
-1.53951e-17
-7.4498e-13
-8.55362e-09
-4.05634e-26
-1.64995e-10
1.7383e-08
4.22053e-09
1.73883e-08
-9.62267e-13
3.21429e-10
8.46581e-13
-8.42996e-09
4.1303e-24
9.34623e-12
-5.08186e-09
-1.83104e-17
2.12416e-08
0
-1.89881e-12
2.49568e-15
0
-5.36537e-09
-2.85461e-17
0
-1.84836e-12
5.30251e-18
0
1.64473e-18
1.89775e-12
-9.41375e-18
-1.09748e-17
1.01624e-08
-1.60865e-18
0
1.96689e-12
-1.04452e-17
1.07299e-08
2.07537e-17
0
-6.84035e-12
-4.74088e-13
-2.10334e-08
0
1.68618e-08
5.01566e-24
-1.53365e-17
0
1.14285e-17
7.04519e-34
2.31036e-18
2.33791e-18
-7.85864e-19
-1.36494e-17
-7.98193e-20
-7.61881e-18
2.40219e-17
4.00124e-20
-6.7726e-14
-2.21804e-12
1.03708e-08
0
-1.10783e-08
-3.76367e-20
1.55769e-13
0
-8.19798e-09
3.06259e-33
9.68483e-20
1.10881e-20
-7.05612e-19
1.20837e-18
0
-5.08478e-19
2.13117e-18
-1.24026e-19
-1.43919e-13
4.11039e-25
3.24191e-18
1.18114e-16
0
-3.10419e-34
-1.49808e-09
0
0
-6.19941e-20
-1.30104e-19
3.32292e-34
3.05002e-19
-3.95354e-18
9.07066e-19
0
-8.38841e-19
0
1.3724e-18
4.42595e-20
1.28745e-20
5.9023e-20
0
-4.03746e-34
0
0
0
0
0
0
0
0
0
0
0
0
0
0
0
0
0
0
0
0
0
0
0
0
0
0
0
0
-3.04281e-18
0
2.28646e-17
2.05391e-17
4.10391e-17
8.15848e-22
2.0525e-17
3.03131e-33
2.98512e-18
-5.16185e-18
-1.08691e-17
3.05141e-17
2.14505e-33
-1.0279e-17
4.09741e-17
0
2.92488e-18
1.08362e-12
4.91137e-10
-1.54362e-17
9.25341e-18
1.23094e-15
7.59187e-18
1.19109e-18
3.0731e-18
-1.61832e-17
-1.79444e-17
7.62473e-18
-2.28294e-17
3.45485e-20
0
-1.23554e-18
-3.71701e-18
1.79967e-17
-8.82704e-18
2.0457e-17
-1.44914e-17
-1.14628e-17
-7.73416e-18
-2.16983e-17
0
-7.44687e-20
2.19667e-19
8.62411e-18
3.42368e-18
0
-4.68311e-17
0
-7.43657e-18
1.76728e-17
0
6.45192e-18
-1.50983e-17
0
1.48884e-18
-1.26088e-18
1.43718e-18
-1.3662e-17
7.85397e-20
-7.11201e-19
2.44085e-18
7.55875e-18
-2.40951e-17
-8.22378e-20
9.30656e-18
1.33181e-17
-5.69085e-18
0
1.18248e-15
-9.38927e-34
4.97775e-18
0
-3.73334e-18
7.32208e-34
-1.89134e-18
-5.27451e-18
-8.56204e-18
-2.14748e-17
8.19733e-20
7.60153e-18
-1.12934e-17
1.22111e-31
1.1833e-18
4.48256e-35
3.37221e-16
-6.86906e-34
-1.68844e-18
-3.47012e-18
0
0
0
-7.7013e-17
1.64617e-33
1.21142e-19
-2.7316e-18
5.1604e-18
1.12481e-17
2.32933e-17
2.05823e-17
1.01228e-33
1.06993e-19
4.09488e-17
-7.70343e-36
-2.03554e-19
1.47216e-17
-2.55833e-17
1.77062e-17
-2.92469e-17
9.93098e-18
4.15026e-35
1.66979e-17
2.54246e-18
8.12123e-20
-3.45403e-12
6.73029e-12
2.64133e-12
-4.73152e-10
0
4.71052e-10
1.74598e-08
-1.84396e-24
5.15157e-09
2.29428e-17
0
2.59899e-12
-2.03756e-17
-8.11158e-20
3.07196e-18
-2.88841e-18
7.70919e-18
-7.13109e-18
7.6736e-18
-1.91053e-17
0
-1.73549e-12
7.64784e-18
-1.02997e-08
-2.67856e-17
-7.85393e-20
2.77677e-12
1.94213e-17
2.7281e-10
0
2.50175e-15
7.97009e-20
2.8041e-17
0
-1.2777e-17
-7.84734e-20
-3.23691e-18
1.1483e-17
5.71837e-18
-2.78422e-17
-7.96071e-20
1.01929e-17
-1.78677e-17
-1.01569e-30
6.68946e-18
-1.25124e-18
-7.42796e-18
1.06565e-15
0
-3.33287e-16
-7.02257e-15
0
3.38628e-13
0
-1.11012e-10
0
1.4571e-18
1.40456e-18
2.73482e-18
-9.35113e-18
2.823e-18
3.40447e-17
-1.26146e-19
-1.0746e-18
2.84448e-18
4.33001e-20
-3.38629e-13
-4.6257e-11
0
0
0
3.887e-33
1.32148e-18
-2.24456e-18
4.89666e-20
0
0
0
0
0
0
0
0
0
0
0
0
0
0
0
0
0
0
0
0
0
0
0
0
0
0
1.54504e-17
-5.45338e-33
-1.18009e-17
-1.70283e-17
-5.0554e-18
-1.66633e-17
1.75688e-17
5.13063e-17
-7.70895e-33
2.06181e-17
5.12357e-18
0
3.08051e-17
-4.207e-25
-2.89544e-18
-4.32422e-09
3.47099e-13
-5.81387e-12
-4.39555e-09
-5.79185e-18
-3.47094e-13
8.64844e-09
8.76559e-09
-8.67743e-13
-2.01885e-33
-5.29442e-18
9.95659e-18
2.16931e-19
-7.89284e-20
0
-5.11076e-18
1.53533e-17
0
1.64038e-18
-2.23496e-12
-7.4499e-13
0
-1.95327e-08
-1.74288e-08
2.92314e-18
-5.15678e-18
1.80767e-18
-9.50494e-35
-1.10305e-17
1.02946e-17
0
1.54308e-18
1.82168e-20
-7.57059e-18
-1.01728e-17
1.64138e-17
3.00191e-18
5.09197e-18
1.62066e-17
-7.98399e-20
0
-2.28306e-18
-7.98466e-20
1.7292e-17
9.71872e-12
2.7768e-12
0
7.29597e-10
1.71575e-08
1.02482e-17
2.40951e-17
-1.59558e-19
-1.26714e-17
-7.97473e-20
4.47505e-18
-7.78472e-19
-2.51589e-18
7.58191e-18
-1.91623e-17
2.5346e-18
-7.11585e-32
2.30207e-18
-1.00015e-18
0
0
-1.56509e-18
0
1.04218e-18
-3.14119e-20
-5.28975e-19
-8.38858e-19
-4.64708e-20
-1.57303e-18
2.88403e-18
-7.9503e-20
8.80446e-13
-2.70915e-13
-1.78413e-08
0
-3.61086e-08
-1.23169e-19
0
2.63579e-33
-3.68882e-19
-9.80497e-18
-7.42492e-18
3.13908e-17
1.23187e-19
0
0
0
0
2.9647e-18
5.92941e-18
2.31886e-17
1.03241e-17
7.20277e-17
-5.14469e-18
3.08289e-17
-1.93763e-33
-2.80702e-18
1.54352e-17
2.28084e-17
3.07302e-17
-1.9634e-33
-2.55348e-17
5.125e-17
0
-2.62593e-18
-3.12161e-18
-1.27224e-17
1.15139e-17
-1.14338e-17
1.02536e-17
0
-3.50367e-17
-1.90958e-17
1.15918e-17
-1.65267e-17
2.57071e-18
0
2.82758e-12
2.02816e-08
-6.37763e-18
4.74084e-12
-9.63986e-11
2.46954e-18
1.39151e-18
-2.13741e-17
-6.32954e-18
5.07409e-18
-1.13573e-17
7.66411e-18
-8.22406e-20
7.22921e-18
-4.74083e-12
-7.17801e-18
0
-1.29436e-09
1.64012e-19
5.69012e-18
2.02119e-17
0
-3.40361e-18
-3.76963e-18
-1.64389e-19
3.66501e-18
-4.73423e-20
-6.82163e-18
-5.60395e-18
-8.19814e-20
2.13382e-18
-2.54087e-18
-7.08123e-18
-1.5136e-17
-7.44691e-20
-3.47351e-18
3.71014e-18
3.97003e-18
0
-1.22697e-15
7.85717e-20
1.26842e-17
0
-2.44043e-18
-1.48889e-19
-5.58697e-19
1.00857e-17
4.71463e-18
5.20096e-18
-1.57082e-19
9.86945e-18
-8.9695e-18
3.00429e-31
-3.18987e-19
0
5.54642e-16
-3.67648e-34
-9.85007e-19
-9.37959e-19
0
0
0
0
0
0
0
0
0
0
0
0
0
0
0
0
0
0
0
0
0
0
0
0
-5.37127e-18
0
2.90823e-17
-2.05046e-17
3.0861e-17
1.52863e-17
2.04453e-17
1.56035e-24
-4.91927e-09
4.69227e-09
-4.22422e-09
-5.63039e-13
4.62782e-09
3.06171e-12
-1.07333e-08
1.02614e-08
5.62981e-13
8.4489e-09
-3.06179e-12
-9.25652e-09
-4.91328e-24
-4.15519e-09
-9.06633e-09
8.1068e-20
-1.88353e-10
-2.77676e-12
-1.37568e-12
1.14533e-25
1.72675e-08
8.26256e-20
2.45384e-25
-2.12771e-08
-4.61135e-10
8.05943e-12
-8.05941e-12
0
8.67736e-13
7.66547e-18
3.75335e-10
-2.2993e-17
-1.64952e-19
1.29424e-17
-4.58753e-17
1.25453e-19
7.69473e-18
3.21843e-26
2.12367e-08
5.1472e-12
-4.14541e-09
8.12405e-13
1.16564e-17
6.33783e-15
-2.00365e-17
1.70266e-18
-8.08485e-13
8.29077e-09
-2.64326e-18
-3.0848e-17
1.32423e-08
-4.18356e-24
0
1.43612e-09
-3.6475e-20
-1.3545e-13
1.86245e-13
0
-2.07851e-08
4.06361e-13
6.78791e-18
0
5.36391e-18
-1.71717e-33
-1.00051e-21
-1.76361e-18
5.22374e-18
6.03395e-19
-1.98456e-08
0
0
1.86082e-08
0
-1.42224e-12
-2.28577e-12
-5.41809e-13
0
-2.03523e-08
2.75301e-09
-2.20114e-13
1.97458e-17
-1.56802e-19
1.11555e-17
7.68859e-20
2.95326e-18
-2.78261e-18
-1.12653e-18
2.27636e-17
1.23381e-18
-5.54384e-18
2.21393e-24
0
-6.12092e-34
0
0
0
0
0
1.54505e-17
6.10312e-33
2.96008e-19
-8.71541e-18
-1.54324e-17
1.68609e-17
0
3.08054e-17
1.77472e-33
-2.47825e-18
-5.17462e-17
1.72984e-17
3.07085e-17
8.50134e-34
-2.89799e-18
-2.04873e-17
1.09898e-17
2.06848e-17
7.68828e-25
-4.34389e-09
1.27268e-12
-2.01027e-11
-4.56227e-09
-1.27269e-12
8.68906e-09
9.03789e-09
-2.54538e-12
9.52407e-18
7.98405e-20
0
8.30337e-18
-2.64518e-18
-2.42897e-24
8.27739e-18
-2.22678e-11
-6.77261e-12
0
-2.10817e-08
9.27257e-11
-1.20193e-17
2.7567e-19
1.51141e-17
7.9782e-20
1.17977e-17
-1.48892e-18
0
5.98707e-18
-2.28445e-18
2.57269e-18
0
-1.01765e-17
-4.54266e-18
-7.71337e-18
2.0994e-18
1.12046e-33
0
1.66369e-17
4.60416e-24
-1.92384e-19
6.09537e-12
1.69314e-12
0
3.9202e-08
5.10696e-10
-2.04765e-17
-1.7116e-18
0
2.43136e-17
0
-1.39959e-18
7.38977e-19
3.83323e-18
-1.88652e-17
2.51429e-17
-7.69263e-18
-6.54448e-24
6.77265e-13
-2.82759e-12
1.56195e-09
0
-2.02435e-08
6.15763e-20
-4.06356e-13
0
-1.42035e-08
7.94995e-20
-2.42026e-19
-2.85741e-18
-5.50213e-18
2.84332e-17
-6.1593e-20
5.22142e-19
-3.1603e-18
0
2.48412e-18
-1.00013e-18
0
0
0
0
1.7305e-18
-1.84432e-18
4.64597e-20
0
0
0
0
0
0
0
0
0
0
0
0
0
0
0
0
0
0
0
0
-1.75664e-17
3.25839e-22
1.04047e-17
-1.03814e-17
1.02257e-17
1.35793e-33
1.4492e-17
-1.46153e-17
-2.3228e-21
-1.70049e-17
0
2.05652e-17
2.06471e-33
-1.26943e-19
-1.5618e-17
2.54246e-19
4.27992e-17
-8.07008e-20
-1.32192e-17
-5.00593e-09
1.58071e-17
-1.48617e-15
0
-1.0258e-12
5.03782e-15
-1.63176e-19
5.48596e-09
1.51228e-17
0
6.66822e-12
-1.77556e-17
8.06413e-20
-3.01122e-18
1.02859e-12
-1.48829e-19
2.11904e-17
1.00109e-08
-3.3936e-17
0
-5.32215e-12
2.43715e-18
-1.09655e-08
-2.52594e-17
0
6.87417e-18
-6.24559e-18
-5.07248e-18
-1.29291e-17
9.27561e-18
-1.01453e-17
-1.84434e-18
-1.26386e-17
3.80312e-18
0
1.82652e-17
1.01432e-17
-8.16976e-20
1.21906e-12
4.38108e-18
2.17888e-08
-1.73519e-33
8.47223e-17
8.37703e-20
-3.51034e-33
1.01326e-09
4.13131e-12
-1.64701e-33
-3.48509e-18
3.79666e-18
2.18205e-17
-8.27168e-18
8.37332e-20
-1.26862e-17
1.11905e-18
-8.14573e-20
8.45034e-18
1.94801e-17
-1.33736e-16
0
5.02861e-15
7.95459e-20
-6.05947e-18
-5.12366e-18
0
-9.17357e-17
-4.99146e-18
8.1351e-20
-9.35859e-19
8.0208e-20
-9.60062e-18
-4.60631e-17
7.95183e-20
-1.25484e-18
5.20018e-18
2.90618e-18
-1.25256e-18
-3.1856e-09
-1.51362e-24
0
-1.56981e-24
-5.07936e-14
-3.65722e-12
0
-2.75686e-08
1.99664e-18
1.17673e-33
-3.67627e-20
9.02154e-19
-1.06291e-18
8.40721e-18
0
0
0
0
0
0
-1.74057e-17
0
-6.42937e-17
4.77945e-18
1.07005e-17
1.01492e-17
2.06091e-17
1.92495e-24
4.78404e-09
-8.2075e-11
1.04472e-08
-1.6199e-10
-2.37132e-24
-1.61957e-10
-4.37023e-09
-6.39498e-10
1.81163e-10
-8.38662e-10
-3.47528e-10
-5.34753e-13
8.77327e-09
-2.01626e-12
-4.12275e-10
-5.99253e-27
-2.04472e-08
5.28265e-12
-4.48974e-09
-1.90997e-08
-4.0805e-12
-1.85586e-08
1.71009e-12
8.8594e-10
-7.73528e-18
1.24733e-19
1.00461e-12
8.91416e-09
1.3728e-18
-4.62425e-18
1.43977e-18
-1.71544e-17
-8.10707e-20
-5.47421e-09
6.77263e-12
-4.97505e-12
1.48523e-25
-6.78111e-12
0
7.50213e-26
-1.70152e-08
5.28265e-12
8.1003e-20
2.54538e-12
7.66533e-18
1.09408e-08
-3.82743e-18
8.24689e-20
-6.11708e-18
1.03142e-17
1.9846e-08
-7.83772e-20
0
-1.77567e-08
-1.85133e-08
-7.1928e-24
7.44992e-13
-9.21078e-12
5.1081e-18
0
-4.22592e-08
-8.98452e-17
6.09533e-13
3.21694e-13
1.99992e-18
0
-2.45067e-18
2.81787e-18
-7.68931e-20
5.90814e-18
-4.46062e-18
-2.50962e-18
2.89768e-18
-4.91729e-18
-6.56939e-18
1.37755e-18
-1.28778e-08
0
0
0
-1.35447e-13
2.08258e-12
0
5.36438e-09
9.31496e-18
5.90994e-20
0
-8.18066e-20
-4.97663e-19
7.50396e-18
-3.48428e-24
0
-4.50267e-34
0
0
0
0
0
0
0
0
0
0
0
0
0
0
0
0
0
-2.07001e-17
4.98125e-35
1.17617e-17
5.87217e-18
1.81183e-19
2.09556e-17
-1.43284e-34
-3.68662e-19
1.58876e-19
-1.17614e-17
3.11311e-17
1.0556e-24
4.73488e-09
-1.60003e-11
-1.99341e-08
2.16724e-12
-2.45507e-12
3.57551e-08
-1.59315e-10
1.76174e-08
-1.9665e-08
1.03582e-08
-2.03623e-19
-1.388e-17
-1.45581e-18
-2.64608e-18
-3.18703e-18
1.04198e-17
1.34042e-12
3.40591e-10
-3.10647e-24
4.85956e-09
-4.81667e-09
-1.81312e-08
-1.85078e-10
-1.77772e-08
1.06042e-08
3.80537e-12
9.59486e-09
-4.9807e-13
3.83919e-10
1.5846e-19
-1.8058e-17
3.8604e-12
1.01589e-12
1.58693e-17
0
2.02278e-08
3.76304e-11
0
1.52837e-17
0
-1.26701e-17
1.02767e-33
-3.36288e-18
7.10118e-19
-3.8113e-18
2.10896e-17
-5.44044e-18
-6.24648e-24
0
7.69574e-18
-1.14539e-17
-8.70894e-18
-7.82861e-20
0
2.05292e-18
1.7808e-17
8.29162e-20
-1.09552e-17
1.35452e-12
0
-1.68318e-08
-4.21558e-18
-3.03999e-17
-1.194e-17
7.82475e-20
-2.22434e-19
2.79217e-17
8.26859e-20
-1.40462e-18
-3.8177e-18
9.60164e-18
-1.10595e-19
-9.99784e-18
-6.07097e-20
-1.21908e-12
1.9973e-08
0
8.19705e-20
0
2.09566e-17
-1.38758e-17
-1.21421e-19
1.07482e-18
1.42548e-17
-1.58493e-33
4.05764e-17
-5.57018e-18
7.80336e-20
2.70916e-13
-1.6085e-12
1.12655e-09
0
-1.79869e-08
-4.5345e-25
4.06349e-13
0
1.14459e-08
-7.80217e-20
-1.66807e-19
-6.83642e-18
-1.67163e-17
2.16607e-17
0
-3.95378e-19
9.99495e-18
0
0
0
0
0
0
-6.43439e-17
-1.03814e-17
-2.06091e-17
2.06001e-17
1.04047e-17
-6.58038e-34
-1.44924e-17
-1.14882e-17
-2.61945e-17
4.12845e-17
-1.02682e-31
2.01655e-17
7.38955e-35
3.33899e-18
1.91977e-21
0
-1.1031e-18
0
-5.25641e-09
-4.21737e-12
-8.87307e-18
7.85533e-22
5.14176e-18
1.01457e-17
-9.05419e-18
5.61722e-18
3.41312e-12
1.0509e-08
-8.87492e-18
0
-1.9533e-19
1.01433e-17
-1.07933e-17
-6.35104e-18
-1.79641e-24
-1.07008e-11
1.79507e-10
1.04444e-17
-2.07255e-08
0
1.15855e-12
-1.22496e-16
-8.15882e-20
2.29353e-17
0
-2.16036e-17
-5.2802e-25
-7.94603e-18
-1.15699e-12
1.39998e-17
2.07601e-17
-3.58204e-10
-1.61691e-17
-8.14541e-20
1.29166e-17
-2.02306e-17
5.15511e-24
1.02944e-11
1.26159e-17
2.11817e-08
0
-1.64425e-16
7.95597e-20
2.6567e-19
5.21492e-12
0
-2.8665e-18
2.05336e-08
-8.37672e-20
-1.62542e-12
-2.75983e-12
7.4713e-34
1.05479e-09
-1.86598e-08
-1.62694e-19
-1.5659e-18
-1.27043e-18
5.36232e-18
-1.85896e-17
7.95056e-20
0
1.51878e-18
-4.15659e-18
-8.57703e-18
8.37281e-20
2.02921e-18
-1.34268e-18
-6.86594e-18
5.23444e-19
-2.87658e-24
-1.84553e-12
3.57909e-34
-1.63374e-08
8.16725e-20
1.35404e-18
-5.07791e-18
8.98822e-09
3.79769e-25
0
3.67471e-20
-6.77277e-14
6.60333e-13
0
-1.35985e-10
-3.18689e-09
-2.16325e-24
3.67617e-20
7.78851e-13
9.89089e-19
-2.87868e-18
0
0
0
0
0
0
0
0
0
0
0
0
0
0
-2.90261e-17
-1.51235e-18
-6.40466e-17
1.46518e-19
3.06875e-17
4.70957e-18
-2.15226e-19
3.45561e-25
1.75201e-17
4.30369e-09
-2.40895e-17
9.38971e-09
6.62093e-34
-2.03856e-17
2.01893e-17
-3.8899e-24
2.23496e-12
1.74395e-12
-8.37389e-18
8.10084e-20
1.35443e-13
3.03074e-12
-1.43361e-10
0
-1.36398e-08
1.59061e-08
-2.59535e-24
-5.13213e-09
-1.50748e-17
0
-1.26423e-12
1.64511e-17
0
-1.97456e-08
2.03662e-08
1.62008e-19
2.53908e-18
-3.0605e-18
-6.53594e-20
1.44968e-18
7.5634e-19
-6.92598e-18
8.96482e-18
2.7908e-17
4.15475e-18
9.39857e-18
1.71933e-17
-1.5029e-19
1.2727e-12
-7.53721e-18
1.02636e-08
1.89468e-17
-8.20238e-20
6.02766e-12
-5.3163e-09
6.86411e-18
7.66156e-10
0
-4.01153e-12
-1.24523e-16
-8.11254e-20
-2.6614e-18
0
7.08539e-22
5.9896e-26
2.73619e-18
4.00854e-12
4.01308e-18
-2.67016e-17
1.06307e-08
-6.69685e-18
0
5.45702e-18
-6.84321e-20
0
-6.21625e-18
1.13441e-12
8.52806e-18
0
8.59244e-09
7.77144e-20
-2.67942e-17
0
2.95256e-17
-5.03696e-20
-1.99093e-18
-2.57808e-18
1.12544e-17
7.34937e-18
0
-1.071e-17
4.02739e-17
1.33493e-24
0
-8.47785e-16
-9.78589e-18
-7.86598e-34
1.07116e-17
-2.62597e-18
5.26923e-26
0
1.41663e-34
-3.84326e-24
0
-6.42762e-34
0
0
0
0
0
0
0
-2.0266e-17
-1.29425e-34
-1.17617e-17
-1.17574e-17
-2.05946e-17
-1.81183e-19
-1.17614e-17
2.0754e-17
2.76477e-34
-4.60588e-18
2.09556e-17
6.86894e-25
5.95144e-18
4.85947e-09
-4.8162e-09
-1.81305e-08
7.54866e-12
-1.77783e-08
1.97601e-17
1.06042e-08
3.67838e-12
9.59476e-09
-2.77426e-18
-2.01488e-17
2.86332e-34
1.50035e-18
1.46528e-15
-2.53976e-13
2.70906e-12
1.67621e-08
1.18154e-11
1.76184e-08
1.96653e-08
1.54008e-18
-4.35457e-18
-2.72707e-18
2.92878e-18
4.93668e-19
8.94598e-18
-5.11261e-18
-1.03049e-17
-9.40875e-18
-7.8288e-20
0
5.24446e-18
3.25757e-18
-3.3204e-32
-1.33422e-17
-9.03445e-18
0
1.19567e-15
-2.285e-17
-1.62752e-18
-8.11342e-20
0
-1.41181e-17
-1.52114e-17
2.08888e-17
1.53201e-17
-1.30593e-17
-1.96228e-34
1.66121e-17
6.93643e-18
0
-4.63293e-18
5.4631e-18
5.10336e-18
-8.68233e-20
-2.21446e-19
8.10905e-20
-1.79901e-17
-3.75743e-18
5.66309e-18
1.0237e-17
-1.58461e-19
1.22254e-18
-3.86662e-18
0
-5.70216e-16
-5.1763e-15
-7.92029e-20
5.15908e-18
1.27524e-18
8.43438e-18
2.54121e-17
-1.98693e-24
4.74082e-13
-9.48183e-13
1.12593e-09
0
-1.83069e-08
5.09084e-20
2.03177e-13
4.22338e-24
3.26779e-12
7.44975e-13
0
1.14423e-08
0
1.99738e-08
1.84204e-08
1.66949e-33
2.78686e-18
-3.99742e-18
-4.01239e-18
3.7971e-17
-5.09235e-20
-4.23211e-19
-1.63885e-19
1.74978e-18
-4.17581e-18
6.52601e-18
-1.47831e-18
1.53533e-17
6.072e-20
0
-6.07134e-20
0
0
0
0
0
0
0
0
0
0
0
-2.61479e-17
3.08008e-34
-1.78016e-19
-5.77032e-18
-2.09085e-17
-7.13986e-19
4.51351e-17
9.6027e-18
-6.30237e-34
-2.98871e-17
-2.10436e-17
-2.30582e-17
5.23487e-17
0
3.50819e-17
2.3027e-12
4.20016e-10
-1.01536e-17
3.04769e-12
-1.768e-08
1.53879e-17
-2.4015e-17
5.76383e-18
-1.16524e-17
-1.65434e-17
3.62469e-18
-2.17426e-17
5.06266e-18
0
-5.09345e-18
3.05508e-17
-6.67516e-24
9.75049e-25