/*--------------------------------*- C++ -*----------------------------------*\
| =========                 |                                                 |
| \\      /  F ield         | OpenFOAM: The Open Source CFD Toolbox           |
|  \\    /   O peration     | Version:  5.x                                   |
|   \\  /    A nd           | Web:      www.OpenFOAM.org                      |
|    \\/     M anipulation  |                                                 |
\*---------------------------------------------------------------------------*/
FoamFile
{
    version     2.0;
    format      ascii;
    class       volScalarField;
    location    "2.1";
    object      nut;
}
// * * * * * * * * * * * * * * * * * * * * * * * * * * * * * * * * * * * * * //

dimensions      [0 2 -1 0 0 0 0];

internalField   nonuniform List<scalar> 
12160
(
1.27145e-09
1.36889e-09
5.4583e-08
1.30795e-09
9.61421e-08
5.87216e-08
1.3283e-09
1.61374e-07
8.84931e-08
7.77029e-08
1.38247e-09
5.73516e-08
1.2472e-07
8.54391e-08
1.1024e-07
1.45051e-09
3.97578e-08
6.86286e-08
1.56593e-07
7.09518e-08
8.28419e-08
1.52448e-09
3.56738e-08
4.11506e-08
5.89402e-08
1.24441e-07
5.22646e-08
6.49744e-08
1.61161e-09
3.37882e-08
3.56782e-08
4.37453e-08
6.78319e-08
1.29522e-07
2.27899e-08
5.88029e-09
1.72672e-09
2.92925e-08
3.42063e-08
4.01832e-08
5.02634e-08
9.16549e-08
3.45923e-08
7.1151e-09
1.28472e-08
1.88915e-09
2.41104e-08
3.03385e-08
3.76721e-08
4.49101e-08
8.62743e-08
3.36094e-08
8.88818e-09
1.31257e-08
1.65462e-08
2.13258e-09
1.93725e-08
2.4427e-08
3.22007e-08
3.96778e-08
6.50798e-08
4.3559e-08
1.30793e-08
9.9403e-09
2.08896e-08
9.25683e-09
2.5109e-09
1.58915e-08
1.93259e-08
2.46901e-08
3.30237e-08
5.06435e-08
5.02036e-08
2.04235e-08
8.20796e-09
6.22539e-08
7.44065e-09
8.63565e-09
3.11964e-09
1.36903e-08
1.56892e-08
1.89261e-08
2.49795e-08
3.93916e-08
5.23037e-08
8.19058e-08
7.43667e-09
3.58785e-08
4.96447e-09
5.43515e-09
4.95464e-09
4.17236e-09
1.254e-08
1.34543e-08
1.50169e-08
1.86608e-08
2.7306e-08
3.87118e-08
3.90644e-08
7.24421e-09
2.51327e-08
3.70439e-09
2.124e-08
6.30488e-09
8.23501e-09
6.11647e-09
1.23349e-08
1.23284e-08
1.26693e-08
1.44843e-08
1.90671e-08
2.41225e-08
1.68444e-08
7.26997e-09
2.19822e-08
3.99644e-09
1.16551e-08
4.61706e-09
4.89338e-09
4.79328e-09
1.01317e-08
1.30954e-08
1.21052e-08
1.14616e-08
1.20852e-08
1.43159e-08
1.59053e-08
1.083e-08
1.1381e-08
1.77575e-08
5.54658e-09
4.87699e-09
6.57992e-09
1.31964e-08
1.61094e-08
1.87857e-08
1.50196e-08
1.27478e-08
1.11387e-08
1.09235e-08
1.17458e-08
1.15717e-08
8.21845e-09
4.5033e-08
1.36037e-08
1.03932e-08
4.47985e-09
1.028e-08
6.95058e-09
4.26658e-09
2.38609e-08
1.90549e-08
1.44775e-08
1.16372e-08
1.06314e-08
1.05059e-08
9.392e-09
7.06342e-09
3.59673e-08
1.10973e-08
3.91315e-08
4.39794e-09
1.01862e-08
1.19436e-08
5.90139e-09
1.99436e-08
2.75465e-08
1.80859e-08
1.30641e-08
1.10327e-08
1.00525e-08
8.42897e-09
6.58799e-09
1.87118e-08
1.67049e-08
1.95307e-08
4.85934e-09
9.12342e-09
1.67618e-08
1.63721e-08
1.84839e-08
4.68558e-08
2.50911e-08
1.58754e-08
1.22139e-08
1.01316e-08
8.2401e-09
6.61704e-09
1.5453e-08
4.76685e-08
2.90822e-08
7.23578e-09
9.98193e-09
1.69315e-08
2.34196e-08
2.03178e-08
7.72078e-08
3.74166e-08
2.07055e-08
1.45261e-08
1.0787e-08
8.51353e-09
7.17948e-09
1.52461e-08
8.08795e-08
6.40546e-08
7.02494e-08
8.77699e-09
1.59126e-08
2.96364e-08
2.55173e-08
5.4233e-08
4.64121e-08
2.7622e-08
1.8285e-08
1.22777e-08
9.25767e-09
8.45993e-09
1.63996e-08
3.66034e-08
1.02836e-07
1.83067e-08
6.86682e-09
3.4878e-08
5.25256e-08
2.52665e-08
3.43374e-08
3.81835e-08
3.30514e-08
2.24693e-08
1.48794e-08
1.06773e-08
1.10677e-08
1.82147e-08
2.84672e-08
1.03165e-07
1.42923e-08
1.68642e-08
1.31063e-08
2.52819e-08
1.57218e-08
2.56024e-08
2.87975e-08
3.11371e-08
2.48156e-08
1.81818e-08
1.23825e-08
1.63091e-08
2.12459e-08
2.269e-08
5.97535e-08
1.83425e-08
1.27161e-08
6.65416e-09
9.20127e-09
9.85224e-09
2.10878e-08
2.27635e-08
2.58495e-08
2.42803e-08
2.08312e-08
1.36651e-08
2.53501e-08
2.48653e-08
1.71998e-08
4.23139e-08
4.14119e-08
9.65373e-09
7.90123e-09
1.10086e-08
6.85302e-09
1.85931e-08
1.92631e-08
2.16199e-08
2.20331e-08
2.07709e-08
1.42132e-08
3.97903e-08
2.61655e-08
1.70234e-08
3.93661e-08
2.73609e-08
8.40522e-09
1.9194e-08
9.8709e-09
5.16616e-09
1.71126e-08
1.71856e-08
1.89499e-08
1.95026e-08
1.87402e-08
1.44511e-08
3.57584e-08
2.43741e-08
2.18468e-08
4.67853e-08
1.5934e-08
7.91538e-09
1.15037e-08
1.34034e-08
4.13104e-09
1.64124e-08
1.59851e-08
1.70921e-08
1.73123e-08
1.67613e-08
1.47116e-08
2.25947e-08
2.1303e-08
3.39074e-08
1.13095e-07
1.23712e-08
8.43497e-09
4.90646e-09
2.12872e-08
3.45849e-09
1.63353e-08
1.5396e-08
1.59263e-08
1.56268e-08
1.53276e-08
1.52099e-08
1.63084e-08
1.94061e-08
7.18966e-08
3.44514e-08
1.13786e-08
1.19033e-08
3.3092e-09
2.08979e-08
3.00272e-09
1.68859e-08
1.53121e-08
1.52902e-08
1.45924e-08
1.42354e-08
1.55824e-08
1.25717e-08
2.08562e-08
1.60942e-07
2.01427e-08
1.55823e-08
3.05751e-08
2.78808e-09
1.96565e-08
2.68435e-09
1.8112e-08
1.57084e-08
1.52077e-08
1.40696e-08
1.3556e-08
1.49367e-08
1.06581e-08
2.74887e-08
6.87058e-08
1.69266e-08
2.4695e-08
1.86289e-08
2.69457e-09
9.6197e-09
2.45941e-09
2.02366e-08
1.66949e-08
1.56998e-08
1.39123e-08
1.3189e-08
1.36638e-08
1.0028e-08
2.00913e-08
3.28651e-08
1.65995e-08
2.68958e-08
7.68014e-09
2.89534e-09
5.3319e-09
2.30194e-09
2.35907e-08
1.84414e-08
1.67777e-08
1.40497e-08
1.32075e-08
1.27536e-08
1.01897e-08
1.13228e-08
1.92035e-08
1.88296e-08
2.49399e-08
4.5988e-09
3.17433e-09
4.07712e-09
2.19481e-09
2.89941e-08
2.11836e-08
1.85408e-08
1.46337e-08
1.37168e-08
1.19678e-08
1.05568e-08
9.27388e-09
1.81103e-08
3.15268e-08
2.5672e-08
3.68605e-09
3.45921e-09
4.0867e-09
2.12664e-09
3.79339e-08
2.53037e-08
2.12215e-08
1.58515e-08
1.4672e-08
1.14206e-08
1.0949e-08
9.57798e-09
2.22583e-08
1.00512e-07
1.70993e-08
4.47655e-09
4.02796e-09
4.75002e-09
2.09223e-09
5.50359e-08
3.13141e-08
2.49019e-08
1.78043e-08
1.60139e-08
1.15172e-08
1.17638e-08
1.13516e-08
3.09668e-08
2.5206e-08
1.83094e-08
7.11433e-09
4.9596e-09
6.03288e-09
2.0904e-09
8.72639e-08
3.96623e-08
2.93082e-08
2.02186e-08
1.79048e-08
1.28952e-08
1.34853e-08
1.53496e-08
3.57893e-08
1.6669e-08
1.92267e-08
6.05477e-09
5.8672e-09
7.50095e-09
2.12233e-09
8.2709e-08
4.72315e-08
3.40305e-08
2.29315e-08
2.02018e-08
1.59803e-08
1.58185e-08
2.59764e-08
2.1925e-08
1.50901e-08
1.94035e-08
4.17989e-09
5.78737e-09
1.23934e-08
2.18075e-09
5.19032e-08
4.85742e-08
3.80148e-08
2.53738e-08
2.16909e-08
2.06979e-08
1.5258e-08
1.02404e-07
1.36952e-08
1.66278e-08
1.581e-08
4.40847e-09
5.05897e-09
2.47099e-08
2.27974e-09
3.55768e-08
4.16342e-08
3.68979e-08
2.64377e-08
2.25915e-08
2.84867e-08
1.29493e-08
4.44687e-08
1.04302e-08
1.88971e-08
9.00342e-09
6.61405e-09
4.2951e-09
1.64311e-08
2.83807e-08
2.4647e-09
3.28531e-08
3.13858e-08
2.59775e-08
2.34064e-08
4.43418e-08
1.21368e-08
2.11889e-08
9.90308e-09
2.13814e-08
5.41018e-09
1.20211e-08
3.66736e-09
1.69007e-08
2.68886e-08
2.05893e-08
3.14498e-09
2.63209e-08
2.44094e-08
2.38414e-08
9.28906e-08
1.2763e-08
1.52957e-08
1.13042e-08
2.2369e-08
4.24266e-09
2.0325e-08
3.0934e-09
2.71551e-08
2.20367e-08
2.02631e-08
1.90046e-08
3.70368e-09
2.25057e-08
2.269e-08
9.37335e-08
1.43717e-08
1.29851e-08
1.46935e-08
1.85143e-08
4.11799e-09
1.11859e-08
2.71268e-09
1.39763e-08
2.02191e-08
1.68996e-08
1.8936e-08
1.75948e-08
5.81742e-09
2.05654e-08
3.98609e-08
1.66779e-08
1.15747e-08
2.09592e-08
1.08439e-08
4.2625e-09
5.95267e-09
2.72634e-09
7.93937e-09
1.75296e-08
1.70004e-08
1.51911e-08
1.68757e-08
2.85018e-08
4.514e-09
2.57279e-08
1.89808e-08
1.09842e-08
3.46327e-08
6.77252e-09
4.51966e-09
4.59367e-09
3.18931e-09
7.51972e-09
1.91565e-08
1.35788e-08
1.53274e-08
1.34118e-08
2.02146e-08
1.50768e-08
3.21351e-09
2.14422e-08
1.14589e-08
9.51079e-08
4.76585e-09
5.03678e-09
4.06362e-09
3.72117e-09
9.36587e-09
2.26401e-08
1.30837e-08
1.16036e-08
1.30956e-08
1.27284e-08
9.43121e-09
7.44277e-09
1.66205e-09
1.25525e-08
1.56226e-07
4.0643e-09
6.29445e-09
3.58007e-09
3.93594e-09
9.75707e-09
1.42361e-08
2.46528e-08
1.02823e-08
1.01341e-08
1.09717e-08
7.40263e-09
7.32035e-09
6.02191e-09
1.05107e-09
6.91558e-08
3.9584e-09
8.88338e-09
3.43642e-09
4.50871e-09
9.05161e-09
6.08712e-08
1.63559e-08
2.17489e-08
8.5732e-09
8.07466e-09
6.77784e-09
7.00633e-09
6.26058e-09
4.78867e-09
6.34859e-10
3.91734e-09
1.21536e-08
3.57607e-09
5.79315e-09
8.2671e-09
3.97595e-09
5.32391e-08
2.32481e-08
1.6774e-08
6.99575e-09
5.4111e-09
5.82078e-09
8.88303e-09
8.8586e-09
9.9072e-09
5.65369e-09
1.41613e-08
3.89151e-09
7.71496e-09
7.55671e-09
2.0154e-08
4.28418e-09
4.65233e-08
3.1708e-08
1.17971e-08
5.31322e-09
5.42702e-09
1.05853e-08
1.78621e-08
1.47433e-08
4.99257e-08
4.42305e-05
4.30685e-09
1.02778e-08
8.28139e-09
4.48863e-09
2.59903e-08
6.36127e-09
4.06432e-08
3.09677e-08
9.25218e-09
7.16164e-09
1.78078e-08
3.27255e-08
4.26537e-08
5.92659e-08
6.00983e-05
0.00028385
2.93872e-05
1.03597e-08
8.53461e-09
9.85142e-09
4.63021e-09
6.89908e-08
1.25536e-07
3.25106e-08
3.34986e-08
4.3029e-08
7.48443e-08
1.32232e-07
1.69409e-07
1.02915e-07
6.36547e-05
0.000194984
0.000666719
0.000563463
3.80899e-05
8.75182e-09
9.40796e-09
8.53447e-09
5.58427e-09
6.29074e-07
4.23986e-06
3.00268e-07
4.93636e-07
1.09878e-06
1.13109e-06
1.02826e-06
3.43664e-07
4.48193e-05
0.000191989
0.000567985
0.000797676
0.000736909
0.000532123
4.44304e-05
9.0713e-09
5.94815e-09
1.33926e-07
1.26758e-05
9.24073e-05
2.20846e-05
5.15194e-05
1.04999e-05
1.10947e-05
3.01045e-06
2.08934e-05
0.000156097
0.000474305
0.000724435
0.000879718
0.000848579
0.000771982
0.000604433
5.20302e-05
7.3036e-09
3.27182e-08
5.18807e-06
0.000149984
0.000872392
0.000264178
0.000204426
0.000140781
0.000245769
6.47346e-06
9.84846e-05
0.000408142
0.000647892
0.000823751
0.000927068
0.000916929
0.000868997
0.000785618
0.000688461
6.02816e-05
7.87538e-09
1.50126e-06
8.70836e-05
0.00128675
0.004795
0.00142573
0.00211251
0.00115339
9.58778e-06
5.98883e-05
0.000264559
0.000589051
0.000771135
0.000880864
0.000635257
0.00095177
0.000927167
0.00087191
0.000792349
0.000709991
6.95387e-05
2.84898e-07
3.24587e-05
0.0011545
0.00489711
0.00530738
0.00522632
0.00316775
0.000726635
2.51499e-05
0.000134037
0.0004826
0.000754179
0.000831538
0.00067759
0.00169263
0.000752703
0.00169315
0.00155439
0.00155471
0.000962294
0.000936979
0.000877429
0.000802303
0.000736043
8.0749e-05
9.75673e-06
0.000541873
0.00447991
0.00477353
0.00494509
0.0063455
0.00374438
0.000332035
6.40005e-05
0.000289521
0.000711831
0.000815929
0.000724079
0.00125975
0.0019016
0.00149568
0.000968438
0.00190228
0.00209606
0.00209719
0.00149554
0.00138926
0.0013891
0.000975072
0.000949553
0.000890969
0.000815781
0.000765815
9.49679e-05
0.000206993
0.0038745
0.00462707
0.00388949
0.00443547
0.0050583
0.00273466
0.000195678
0.000146641
0.00044708
0.000821128
0.000762424
0.000947446
0.00134512
0.00134511
0.00147996
0.0014803
0.00163779
0.00137225
0.000978789
0.000760092
0.00163768
0.00178745
0.00178762
0.00137193
0.00127812
0.00127776
0.000993366
0.000970352
0.000908234
0.000832598
0.000799583
0.000110705
0.00318927
0.0043021
0.00366445
0.00310394
0.0033796
0.00443915
0.001624
0.000249844
0.000249093
0.000710958
0.000791778
0.000608513
0.00163598
0.00163635
0.00168873
0.00168929
0.00126045
0.00126105
0.0014029
0.00140314
0.00147159
0.00124774
0.00122719
0.0012556
0.00124055
0.0009949
0.000803342
0.00172079
0.00172094
0.00170567
0.00170573
0.00147135
0.00160909
0.00160928
0.00124739
0.00123243
0.00125542
0.00123784
0.00119395
0.00116664
0.0011839
0.00120826
0.00119363
0.00116987
0.00118373
0.00120334
0.00101642
0.000993856
0.000927083
0.000852491
0.000836139
0.000132641
0.00385766
0.00365379
0.00289386
0.00266927
0.00302527
0.0040591
0.0018165
0.000609356
0.00031544
0.000710759
0.000448667
0.00173151
0.00173202
0.00177296
0.00177396
0.00151464
0.00151489
0.00155261
0.00155306
0.00117319
0.00110932
0.00117369
0.00121842
0.00120351
0.00108726
0.00111376
0.00117483
0.0011737
0.00121846
0.0012036
0.00108732
0.00130936
0.00130918
0.00131529
0.001307
0.00130986
0.00130923
0.00131555
0.00130703
0.00134283
0.00129084
0.0013206
0.00132632
0.0011226
0.00114068
0.00112719
0.00115911
0.00101313
0.000858872
0.00156064
0.00156111
0.00163995
0.00164019
0.00154958
0.00154983
0.00155445
0.00155468
0.00134263
0.00129295
0.00132033
0.00132374
0.00142175
0.00138378
0.00145867
0.00138282
0.00142164
0.00139267
0.00145878
0.00138359
0.0011222
0.0011454
0.00112708
0.00115698
0.00109381
0.00114467
0.00109354
0.00114116
0.00104239
0.00101998
0.000942381
0.000874561
0.000873713
0.00016089
0.00361439
0.00303954
0.00268816
0.00267189
0.00286974
0.00362181
0.00270438
0.000946745
0.000540044
0.000360888
0.00177903
0.00177967
0.00180537
0.00180603
0.00157923
0.00157966
0.00159797
0.00159859
0.00137745
0.00138456
0.00138078
0.00138703
0.00137986
0.00138471
0.00138516
0.00138702
0.00140102
0.00141475
0.00141214
0.00141446
0.00140618
0.00141488
0.00141801
0.00141469
0.00108107
0.00117195
0.00115692
0.00103057
0.00120494
0.00117227
0.00108658
0.001173
0.00103067
0.00115679
0.0012047
0.0011722
0.00128013
0.00125088
0.00127253
0.00124534
0.00128092
0.00125082
0.00127258
0.00124531
0.00120035
0.00118309
0.00117217
0.00121962
0.00106685
0.00112283
0.00107363
0.00112599
0.00103769
0.000902299
0.00124134
0.0012415
0.00139643
0.00139676
0.00135187
0.00135226
0.00145205
0.00145239
0.00136507
0.00139166
0.00140999
0.0014171
0.00136763
0.00139174
0.00141176
0.00141718
0.00136191
0.00129136
0.00140212
0.00139265
0.00142152
0.00133379
0.00136377
0.0013002
0.00140201
0.00139346
0.00142147
0.00133391
0.00120008
0.00118538
0.00117201
0.00121767
0.00125693
0.00125804
0.00125682
0.0012596
0.00106668
0.0011269
0.00107365
0.00112372
0.0010455
0.00112338
0.00104534
0.00112008
0.00107105
0.00104045
0.000953261
0.000900906
0.000847509
0.00019444
0.00314207
0.00269385
0.00282036
0.00272963
0.00268276
0.0033012
0.00335023
0.00166242
0.000531041
0.00162337
0.00162399
0.0015767
0.00157739
0.00157156
0.00157167
0.00157743
0.00157762
0.00141637
0.00143209
0.00142338
0.00143463
0.00142141
0.00143236
0.00142758
0.00143461
0.00143253
0.00145277
0.00143364
0.0014444
0.00143774
0.00145298
0.00143844
0.00144459
0.0013287
0.0013033
0.00132502
0.00129837
0.00133135
0.00130333
0.00132957
0.00129834
0.00130988
0.00128282
0.00132607
0.00130019
0.00131521
0.00128282
0.00133161
0.00130042
0.00113764
0.0011495
0.00110859
0.0011925
0.0010637
0.000941887
0.00103558
0.00103549
0.00106647
0.0010664
0.000998317
0.00099796
0.0011692
0.00116935
0.00109989
0.00116159
0.00119815
0.00120892
0.00110626
0.00116147
0.00120507
0.00120905
0.00129748
0.00131291
0.00125961
0.00128712
0.00130133
0.00131307
0.00126618
0.00128713
0.00129952
0.00129837
0.001341
0.00133433
0.0013021
0.00129827
0.00134284
0.00133429
0.0012151
0.00133645
0.0013583
0.00122417
0.00134912
0.00135202
0.00122237
0.0013382
0.00135814
0.00122416
0.00135007
0.0013519
0.00113752
0.00115082
0.00110854
0.00119049
0.00117881
0.00122141
0.00117873
0.00122271
0.001101
0.00105253
0.00096041
0.000930664
0.000760632
0.000234961
0.00254716
0.00256402
0.00284855
0.00264521
0.00244377
0.00306809
0.00367852
0.00245385
0.000486342
0.00146146
0.00146171
0.00145382
0.0014543
0.00146071
0.00146102
0.0014678
0.00146802
0.00132058
0.00129372
0.00133109
0.00129413
0.00132605
0.00129393
0.00133547
0.00129413
0.00133851
0.00132559
0.00132801
0.00129729
0.0013438
0.00132569
0.00133265
0.00129741
0.00129803
0.00125395
0.00130303
0.0012539
0.00110565
0.00097693
0.00107131
0.00107118
0.000994055
0.00099385
0.000815738
0.000813844
0.000840188
0.000838969
0.000807051
0.000842056
0.000823737
0.000871643
0.000819333
0.000842044
0.000834701
0.000871481
0.000984854
0.00103219
0.000953222
0.0010021
0.000993178
0.00103221
0.000961129
0.00100185
0.00103791
0.00101989
0.00112323
0.00109721
0.00104465
0.00101966
0.0011296
0.00109735
0.00122672
0.00122102
0.00118427
0.00118
0.00123044
0.001221
0.00119054
0.00117995
0.00112513
0.00104923
0.000960934
0.000957728
0.000710681
0.00029779
0.00209762
0.00247721
0.00270742
0.00240918
0.00231407
0.0028185
0.00388205
0.00291537
0.00150397
0.00150421
0.00164739
0.00164809
0.00134797
0.00134811
0.00134513
0.0013453
0.00135326
0.00136532
0.00135023
0.00137454
0.00135339
0.00136606
0.0013505
0.001374
0.00134774
0.00133186
0.00133024
0.00136024
0.00134772
0.00133392
0.00133016
0.00135961
0.00129829
0.00124326
0.00129061
0.0012274
0.00130306
0.00124334
0.00129437
0.00122735
0.00129146
0.00123785
0.0012924
0.00121928
0.00129551
0.0012378
0.00129605
0.00121932
0.0011535
0.0010522
0.000782076
0.000926107
0.000924342
0.000801669
0.000799079
0.00057955
0.000577827
0.000625415
0.000625091
0.000664968
0.000709725
0.000746346
0.000746879
0.000676512
0.000709544
0.000755748
0.000746913
0.000922963
0.000908642
0.000862072
0.000860648
0.000931356
0.00090869
0.000869514
0.000860493
0.000997099
0.000978736
0.0010035
0.000978478
0.0011284
0.00102251
0.000960192
0.000986501
0.000640729
0.000301076
0.000963368
0.00238242
0.00239035
0.002008
0.00223962
0.00268724
0.00395765
0.00124488
0.0014088
0.00140912
0.00152167
0.0015217
0.00126599
0.00125003
0.00126712
0.00128499
0.00126945
0.00125023
0.00126727
0.00128482
0.00131679
0.00131702
0.00126162
0.00133158
0.00128332
0.00132976
0.00126168
0.00133196
0.00128338
0.00132917
0.00123134
0.00125559
0.00120339
0.00130174
0.00123123
0.00125948
0.0012034
0.00130116
0.0012912
0.00122964
0.001294
0.00122942
0.00118491
0.0011448
0.000931858
0.000580716
0.00057978
0.000426253
0.000423595
0.000386239
0.000373688
0.000453953
0.000453367
0.000532862
0.0004306
0.000521219
0.000488024
0.000533251
0.00042592
0.000520451
0.000480031
0.000566785
0.000592651
0.000581467
0.000546249
0.00056665
0.000596438
0.000581325
0.000544432
0.00064951
0.000634285
0.000711055
0.000688318
0.000656612
0.00063417
0.000716649
0.000688278
0.000880402
0.000860908
0.00081915
0.000794935
0.000887629
0.000860921
0.000824745
0.000794766
0.0010957
0.000990469
0.00096948
0.000869146
0.000396397
0.000645538
0.0020657
0.00198181
0.00177208
0.0021725
0.00254956
0.00259753
0.00144341
0.00144312
0.00135027
0.00135082
0.00129447
0.00128443
0.0013268
0.0013243
0.00129662
0.00128465
0.00132792
0.00132398
0.00141809
0.00141822
0.00121187
0.00115521
0.00119566
0.00123884
0.00121484
0.00115536
0.00119562
0.00123865
0.00126561
0.00123742
0.00126702
0.00122779
0.00126698
0.0012374
0.00126681
0.00122778
0.0011928
0.00122495
0.00114759
0.00127256
0.00119261
0.00122793
0.00114756
0.00127304
0.00116678
0.00122637
0.00109947
0.000772804
0.0005943
0.00059084
0.000489803
0.000480705
0.000381912
0.000377765
0.000371907
0.000462791
0.000492101
0.000326589
0.000373057
0.000458852
0.000486759
0.000329115
0.000492608
0.000492317
0.000469167
0.00052393
0.000492439
0.00048802
0.000468576
0.000520849
0.000522861
0.000577696
0.000549872
0.000554547
0.000522735
0.000581274
0.000549738
0.000554066
0.000636514
0.000612281
0.000642647
0.000612114
0.0010409
0.000968629
0.00103537
0.000437195
0.000475708
0.00182577
0.00178658
0.00161552
0.00226081
0.00179873
0.00110013
0.00110074
0.00148004
0.0014804
0.00116314
0.00116317
0.000986964
0.00098708
0.00123008
0.00118369
0.00127762
0.0012535
0.00123239
0.00118384
0.00127889
0.00125326
0.00126896
0.00125277
0.00125408
0.00129187
0.0012689
0.00125357
0.00125393
0.00129173
0.00119969
0.00110724
0.00113755
0.0012172
0.00120087
0.00110735
0.00113753
0.00121606
0.00122043
0.00115205
0.00123337
0.00116004
0.00122242
0.00115201
0.00123397
0.00116005
0.00110213
0.00123451
0.00124623
0.00104538
0.000852098
0.000850384
0.000806001
0.0008046
0.000771554
0.000769014
0.000690419
0.000567733
0.000669206
0.000616749
0.000678025
0.000565901
0.000658423
0.000614202
0.000659792
0.000521794
0.000652262
0.000502002
0.000423475
0.000454489
0.000651588
0.000520778
0.000647948
0.000501586
0.000420581
0.000452989
0.000471438
0.000435389
0.000468204
0.000434537
0.000485799
0.000578475
0.00047295
0.000570231
0.000485434
0.000574059
0.00047234
0.000566938
0.000986929
0.00102244
0.00041442
0.000581525
0.00168723
0.00169485
0.001513
0.00186143
0.000990387
0.000780369
0.000781622
0.00117331
0.00117334
0.000968077
0.00117566
0.000994966
0.000912146
0.000948951
0.00113311
0.00117655
0.00096767
0.00113289
0.000994615
0.000911536
0.00094854
0.000748581
0.000788703
0.000763405
0.000798209
0.00075316
0.000789067
0.000766539
0.000798185
0.00121305
0.00113626
0.00124513
0.00117752
0.00121471
0.00113627
0.00124607
0.00117733
0.00116099
0.00121043
0.00116084
0.00121045
0.00112702
0.00121493
0.00112702
0.00121426
0.00121012
0.00112869
0.00121191
0.00112859
0.00101884
0.00116822
0.00129459
0.00124916
0.00108125
0.00108047
0.0010121
0.00101072
0.00094988
0.000946805
0.000934156
0.000933719
0.00083038
0.000932048
0.000829082
0.000964675
0.000711018
0.000844967
0.000830337
0.000929713
0.000828183
0.000963924
0.000710583
0.000841208
0.000823122
0.000679386
0.000818214
0.00067893
0.000796979
0.000653165
0.000781255
0.000625559
0.000635426
0.000490981
0.000792958
0.000652737
0.000778203
0.000621968
0.000635181
0.000490739
0.000627278
0.000481384
0.000622964
0.000480971
0.00100796
0.000404239
0.000751739
0.00163603
0.00165795
0.00132058
0.00138992
0.00100126
0.00100098
0.000782405
0.000782162
0.000721728
0.00072168
0.00100143
0.00100131
0.00108406
0.00086229
0.000897368
0.00104823
0.000739917
0.000793343
0.00108419
0.000861638
0.00104787
0.000896696
0.000739798
0.000792658
0.000646472
0.000666049
0.00061907
0.000645132
0.000649765
0.000666345
0.000621532
0.000644884
0.00122093
0.00114908
0.00122152
0.00114886
0.000988876
0.00106187
0.00123585
0.00134198
0.00125872
0.00111775
0.00111659
0.00105185
0.00104957
0.00105303
0.000976726
0.00107918
0.000978606
0.00104422
0.00097455
0.00107279
0.000977439
0.00110656
0.00102903
0.00102638
0.0010881
0.00100082
0.000924528
0.0011078
0.00103124
0.00102592
0.00108478
0.000999823
0.000924333
0.000946995
0.000822324
0.00104634
0.000962019
0.000947019
0.000822006
0.00104977
0.000959859
0.000957297
0.000810583
0.000953951
0.000810125
0.000921314
0.000774642
0.000738767
0.000597619
0.000917357
0.00077401
0.000735101
0.000597118
0.000388745
0.000608914
0.00116508
0.00154745
0.000946118
0.000603663
0.000679485
0.000679409
0.000559056
0.000559405
0.000690737
0.000657496
0.00066774
0.000679998
0.000690531
0.000658362
0.000667992
0.000681054
0.00080139
0.000801292
0.000618419
0.00061085
0.000583099
0.000597642
0.000619476
0.000610912
0.000584237
0.000597314
0.000380084
0.000976267
0.00111397
0.00129985
0.00137822
0.00138842
0.00138798
0.00134581
0.00134449
0.00116192
0.00116063
0.00112069
0.00111804
0.00118689
0.00106408
0.00118232
0.00108153
0.00118251
0.00106338
0.00117851
0.00108107
0.00112168
0.00119253
0.00105441
0.00114591
0.00119557
0.00112712
0.00112592
0.00119212
0.00114535
0.0010542
0.00119297
0.00112661
0.000931505
0.00103463
0.000931434
0.00103622
0.000322885
0.00107937
0.00132564
0.000771742
0.000641012
0.00064265
0.000621023
0.000622072
0.000643967
0.000645808
0.000638616
0.000640052
0.000651232
0.000668292
0.000642175
0.000657876
0.000651568
0.000668971
0.000642361
0.000661011
0.000737799
0.000721741
0.000812463
0.000732656
0.000742941
0.000721924
0.000819411
0.000732797
0.000633272
0.000606916
0.000631927
0.000606472
0.000384617
0.000977626
0.00117141
0.0013564
0.00143875
0.00139717
0.00139661
0.001385
0.00138406
0.00128402
0.00128283
0.00115111
0.00127925
0.00115359
0.00125272
0.00115093
0.00127655
0.00115311
0.00125222
0.00128922
0.00117191
0.00130193
0.0012095
0.00128569
0.00117137
0.00129736
0.00120906
0.000372314
0.00117689
0.00115488
0.000696015
0.000533823
0.00053453
0.00051254
0.000513707
0.000822721
0.000706037
0.000535541
0.000685061
0.000619705
0.000611142
0.000827535
0.000706061
0.000534002
0.000672112
0.000618757
0.000597427
0.00054252
0.00053815
0.000668143
0.000709719
0.000647047
0.000762643
0.000668804
0.000710654
0.000647326
0.000769779
0.000879403
0.000735016
0.000884709
0.000735135
0.00040261
0.000997075
0.00122747
0.00140964
0.0015773
0.00157609
0.00150729
0.00150582
0.00134893
0.00134889
0.00138131
0.00138051
0.00141754
0.00129873
0.00146167
0.00131942
0.00138044
0.00124286
0.00141215
0.00129686
0.00145989
0.00131867
0.0013807
0.0012425
0.00137947
0.00125398
0.00138095
0.00125362
0.00138694
0.00127975
0.00138844
0.00127955
0.000198898
0.00127119
0.00138027
0.000686085
0.000689257
0.0008285
0.000830284
0.000473293
0.000468708
0.000500391
0.000502325
0.000841256
0.000697622
0.000531078
0.000725451
0.000616124
0.000649626
0.000834282
0.0006973
0.000530061
0.00071412
0.000614596
0.000641704
0.000607176
0.000431466
0.000683089
0.000486558
0.000574227
0.000428392
0.000658669
0.000484351
0.000433065
0.00103453
0.00127324
0.00146812
0.00155677
0.00155479
0.00151709
0.00151574
0.00140969
0.00140938
0.00149459
0.00138574
0.00135562
0.00149799
0.0014121
0.00142979
0.00135581
0.00149866
0.00141172
0.0014325
0.00149485
0.00138522
0.0015368
0.00146834
0.00143239
0.00133747
0.00153812
0.00146818
0.00143216
0.00133692
0.00146749
0.00134557
0.00146938
0.00134524
0.000352004
0.00196923
0.00101542
0.000586277
0.000586812
0.000738305
0.000740032
0.000560566
0.000400249
0.000410889
0.00047279
0.000385731
0.000451756
0.000518519
0.000394624
0.000412214
0.000449345
0.00038331
0.000444913
0.000465312
0.000465989
0.000570579
0.000769395
0.00056902
0.000755262
0.000673492
0.000464115
0.000638009
0.000459737
0.000476537
0.00107211
0.00130028
0.00150781
0.00150629
0.0015168
0.00151449
0.00143665
0.00143353
0.00145222
0.00144849
0.00145705
0.00136345
0.00151346
0.00139679
0.00152004
0.00141514
0.00145034
0.00152112
0.00141482
0.00136146
0.00151284
0.00139624
0.0015376
0.00147956
0.00156127
0.00148725
0.00156333
0.00153876
0.00148706
0.00147913
0.00148969
0.00160427
0.000907907
0.000495587
0.000496004
0.00046735
0.000467151
0.000534131
0.000388803
0.000388908
0.00049932
0.000385687
0.000440674
0.000490278
0.000381627
0.000388094
0.000475927
0.000381017
0.000434459
0.000367286
0.000425905
0.000439784
0.000413352
0.000368156
0.000426483
0.000439552
0.000413467
0.000649042
0.000454338
0.000610575
0.000448443
0.000554059
0.00108738
0.00128515
0.00144748
0.00144536
0.00140607
0.00140315
0.00139832
0.001394
0.00150815
0.00139513
0.00136413
0.00154489
0.00139729
0.00147562
0.00150367
0.00139428
0.00136359
0.00153813
0.00139659
0.00147052
0.00153249
0.0015559
0.00144511
0.00145733
0.00155867
0.00145697
0.00153135
0.00144469
0.00283891
0.00127185
0.000708294
0.000535752
0.000536502
0.000708587
0.000758802
0.000759098
0.000451127
0.000323592
0.000407151
0.000449353
0.000323099
0.000408392
0.00057762
0.000407213
0.00041241
0.000582168
0.000426913
0.000518301
0.000543148
0.000400496
0.000411272
0.000568217
0.000424003
0.000512263
0.00044376
0.000424764
0.000443304
0.000425054
0.000647988
0.00106541
0.00118426
0.00134136
0.00133843
0.00130118
0.00129756
0.00132259
0.00125362
0.00140983
0.00128581
0.00150458
0.00136147
0.00131275
0.00149734
0.00136055
0.00125063
0.00140272
0.0012847
0.00155364
0.00143233
0.00155903
0.00141632
0.0015475
0.00143156
0.00155253
0.0014156
0.00156538
0.00148533
0.00156115
0.00148476
0.0017578
0.000993001
0.000564047
0.00083616
0.000565799
0.000836779
0.000815529
0.000814856
0.000327018
0.000259241
0.000413618
0.000301111
0.00040159
0.000473875
0.000344393
0.000494989
0.000261022
0.000324687
0.000413084
0.000296049
0.000396861
0.000473241
0.000341543
0.000494908
0.000430417
0.000526961
0.000429812
0.000523187
0.000380407
0.000412653
0.000382897
0.000413098
0.000773539
0.000986868
0.0010723
0.00131732
0.0013133
0.00106882
0.00118943
0.00118423
0.00129713
0.00130993
0.00122903
0.00129398
0.00130657
0.00122761
0.00146071
0.00134779
0.00134689
0.00126019
0.00145374
0.00134605
0.00134661
0.00125961
0.00159235
0.00147612
0.00153667
0.00143363
0.00158614
0.00147555
0.00153152
0.00143307
0.00147412
0.00088667
0.000773329
0.000540653
0.000406529
0.00114576
0.000779328
0.00054109
0.000409325
0.00114968
0.0010168
0.00101889
0.000291595
0.000386644
0.00033005
0.000425494
0.000454591
0.000542929
0.00029171
0.000332423
0.000384396
0.000426724
0.000454481
0.000542943
0.000436667
0.000463353
0.000436438
0.000462396
0.000926322
0.000878168
0.00100792
0.00120965
0.00120237
0.0010028
0.00106866
0.00106196
0.0013475
0.00133775
0.00126545
0.00131965
0.0012433
0.0012542
0.0012744
0.00122982
0.00133863
0.00133841
0.00126446
0.00131859
0.00124202
0.00125313
0.00126163
0.00122662
0.00139177
0.0013463
0.0013342
0.00127875
0.00139025
0.0013338
0.00134925
0.0012782
0.00122014
0.000547287
0.000721958
0.000723313
0.000548169
0.00060173
0.000602365
0.0014814
0.000728551
0.00105976
0.00123556
0.000578878
0.00129399
0.00177762
0.00159322
0.000878764
0.00143914
0.00131977
0.00149095
0.000729536
0.00107396
0.00123651
0.000584925
0.00129473
0.00178524
0.0015936
0.000880964
0.00144328
0.00132028
0.000318727
0.000727249
0.000476792
0.00095663
0.00031809
0.000731284
0.000476627
0.000957162
0.00110598
0.000695257
0.000845501
0.00114562
0.00121705
0.00128793
0.00113759
0.00121627
0.00128029
0.000837867
0.000897478
0.000887285
0.00134823
0.00134268
0.00135271
0.00129605
0.00130935
0.00126393
0.00134611
0.00133157
0.00135968
0.00130899
0.00129529
0.00126319
0.00137935
0.00134449
0.00138185
0.00134414
0.000808423
0.000606819
0.000459561
0.000607885
0.000460955
0.000537505
0.000538499
0.00146051
0.00204184
0.0019801
0.00170746
0.00175329
0.00163079
0.000713355
0.00101702
0.00103825
0.00115218
0.00112334
0.000770354
0.000577334
0.000702964
0.00146722
0.0020463
0.00170752
0.00198056
0.00175563
0.00163127
0.00102054
0.000717966
0.00103917
0.00115711
0.00112401
0.000771444
0.000589521
0.000700887
0.00122981
0.000429851
0.000783804
0.000776666
0.000436324
0.000576411
0.00057163
0.000931281
0.00121502
0.00124215
0.00118963
0.00127785
0.00103012
0.00105816
0.00102923
0.000915114
0.00121358
0.00122932
0.0011876
0.00126679
0.00102364
0.00104968
0.00102872
0.000851283
0.000920864
0.000950295
0.000842146
0.000907537
0.000945538
0.00136512
0.00134899
0.00132869
0.00128368
0.00135759
0.00133403
0.00132799
0.00128301
0.000340671
0.000512118
0.00064781
0.000523661
0.000387718
0.000512658
0.000648464
0.00052269