/*--------------------------------*- C++ -*----------------------------------*\
| =========                 |                                                 |
| \\      /  F ield         | OpenFOAM: The Open Source CFD Toolbox           |
|  \\    /   O peration     | Version:  5.x                                   |
|   \\  /    A nd           | Web:      www.OpenFOAM.org                      |
|    \\/     M anipulation  |                                                 |
\*---------------------------------------------------------------------------*/
FoamFile
{
    version     2.0;
    format      ascii;
    class       volScalarField;
    location    "2.1";
    object      omega;
}
// * * * * * * * * * * * * * * * * * * * * * * * * * * * * * * * * * * * * * //

dimensions      [0 0 -1 0 0 0 0];

internalField   nonuniform List<scalar> 
12160
(
0.0719999
0.0719999
0.00188942
0.0719999
0.00394236
0.00115618
0.0719999
0.006965
0.00146291
0.00111903
0.0719999
0.0103521
0.00196378
0.00130962
0.00111153
0.0719999
0.0121227
0.00260042
0.00149333
0.00132787
0.00124567
0.0719999
0.0123741
0.0029738
0.00168571
0.00147345
0.00155879
0.00129106
0.0719999
0.011964
0.00300778
0.0017887
0.00158516
0.00164358
0.00199049
0.00265997
0.0719999
0.0117213
0.00289144
0.00179664
0.00164265
0.00167282
0.00215459
0.00455836
0.0129726
0.0719999
0.0116739
0.00282747
0.00177603
0.00164877
0.00168879
0.00212967
0.00429199
0.0127825
0.0125236
0.0719999
0.0117761
0.00282485
0.00177366
0.00166046
0.00169962
0.00202267
0.00332468
0.0124293
0.0121696
0.0225767
0.0719999
0.0118985
0.00285897
0.00178994
0.00168123
0.0017341
0.00193032
0.00285416
0.011014
0.0131131
0.02495
0.0249471
0.0719999
0.0119714
0.00289283
0.00180932
0.00170562
0.00177751
0.00193023
0.00285606
0.00978698
0.0135358
0.0317608
0.024306
0.0169201
0.0719999
0.0120194
0.002907
0.00182066
0.00172378
0.00181785
0.00200353
0.0032694
0.00846345
0.0137243
0.0238451
0.0170192
0.00801848
0.0140947
0.0719999
0.0121829
0.00290716
0.00181832
0.00172942
0.00184383
0.00207862
0.00377771
0.00736079
0.0135403
0.0214167
0.00861285
0.00976799
0.00728118
0.01061
0.0719999
0.012577
0.00293425
0.00180626
0.0017188
0.00184886
0.00212869
0.00416618
0.00676949
0.0128679
0.0197253
0.0128068
0.00453779
0.00445801
0.00204142
0.0719999
0.01322
0.0030308
0.00180256
0.00169467
0.00183198
0.00214106
0.00438656
0.00678606
0.0116422
0.0194005
0.0134873
0.00360753
0.00342313
0.00349833
0.0719999
0.0139852
0.0032058
0.00182447
0.00166927
0.0017986
0.00210701
0.00445263
0.00712093
0.0101321
0.019612
0.014616
0.00356276
0.00242454
0.00202393
0.0719999
0.0148116
0.00343183
0.00187132
0.00166238
0.00176266
0.00202788
0.00441181
0.00733944
0.0092222
0.0193194
0.015315
0.00388178
0.00218709
0.00156599
0.0719999
0.0156736
0.00369239
0.00193932
0.00167674
0.00174604
0.00192132
0.00429137
0.00742061
0.0087628
0.0174753
0.0173442
0.00453205
0.00222172
0.00146855
0.0719999
0.016491
0.00397732
0.00202517
0.00170834
0.00175029
0.00182915
0.00411077
0.00743337
0.00859722
0.0157121
0.0209424
0.00576621
0.00228553
0.00149936
0.0719999
0.0172219
0.00426221
0.00212294
0.00175101
0.00176712
0.00179244
0.00389126
0.00741985
0.00846703
0.014608
0.0227745
0.00759715
0.00246976
0.00156579
0.0719999
0.0178094
0.00452749
0.00222345
0.0018013
0.00179629
0.00179159
0.00370629
0.00737105
0.0082231
0.0137312
0.0224972
0.0107356
0.00278151
0.00174542
0.0719999
0.0181701
0.00474208
0.00231827
0.00185383
0.00183325
0.00181678
0.00354261
0.00718915
0.0079102
0.0128903
0.0219482
0.0138062
0.00358834
0.00187652
0.0719999
0.0182648
0.00487516
0.00239625
0.00190243
0.0018722
0.00185696
0.00336647
0.00684358
0.00757092
0.0117821
0.0215024
0.0156356
0.0045791
0.00192461
0.0719999
0.0180945
0.00491039
0.00244605
0.00194104
0.00190856
0.00190181
0.0031666
0.00638002
0.00725819
0.0102923
0.0215904
0.0167823
0.00532095
0.00213912
0.0719999
0.0176707
0.00484802
0.00246176
0.00196557
0.00193956
0.00194615
0.00295369
0.00583799
0.00694369
0.00900529
0.0220905
0.0174368
0.00597445
0.0023239
0.0719999
0.0170261
0.00469333
0.00244395
0.00197651
0.00196361
0.00197806
0.00274135
0.00524749
0.00657114
0.00811505
0.0215346
0.0178175
0.0063258
0.00249107
0.0719999
0.0162064
0.00446329
0.00239537
0.00197606
0.00197917
0.00199248
0.00251293
0.00460378
0.00611535
0.00742261
0.0187182
0.0180021
0.00646914
0.00257181
0.0719999
0.0152665
0.00418071
0.00232304
0.00196358
0.00198413
0.00199268
0.0022661
0.00391799
0.0055728
0.00680665
0.0146656
0.017155
0.00710203
0.00263605
0.0719999
0.0142703
0.00387199
0.00223558
0.00194071
0.00197949
0.0019918
0.00205513
0.00324867
0.00496007
0.00618134
0.0110798
0.0153209
0.00861258
0.00288621
0.0719999
0.0132953
0.00356394
0.00214232
0.00191116
0.00196993
0.00199895
0.00205544
0.00279425
0.00439907
0.00554764
0.0084594
0.0130943
0.00925072
0.00346231
0.0719999
0.0124334
0.00328163
0.00205304
0.00188037
0.00195967
0.00201437
0.00231567
0.00296781
0.00403364
0.00499086
0.00656048
0.010713
0.00874975
0.00391585
0.0719999
0.0117562
0.0030482
0.00197669
0.00185325
0.00194914
0.00203387
0.00263148
0.00358444
0.00415585
0.00455614
0.00520532
0.00815368
0.0073085
0.00398064
0.0719999
0.0112866
0.00287761
0.00191974
0.0018334
0.00194072
0.00206458
0.00296471
0.00429377
0.00468642
0.00460099
0.00435502
0.0056208
0.00540152
0.00365529
0.0719999
0.0110001
0.00276904
0.00188561
0.00182384
0.00193834
0.00211173
0.00330519
0.00498632
0.00530546
0.00505254
0.00465002
0.00399082
0.00375143
0.00303696
0.0719999
0.0108624
0.00271179
0.00187403
0.00182771
0.00194568
0.00217782
0.00364964
0.00561732
0.0058914
0.00564737
0.00573751
0.0046667
0.00270665
0.00232136
0.0719999
0.0108486
0.00269485
0.00188165
0.00184559
0.00196703
0.00226714
0.00399109
0.00617811
0.0064354
0.00637526
0.00724221
0.00684222
0.00300054
0.00180229
0.0719999
0.0109524
0.00271106
0.00190445
0.00187673
0.00200748
0.00239228
0.00433535
0.00665489
0.00699254
0.00732162
0.00928555
0.00909198
0.00417092
0.00192072
0.0719999
0.0111222
0.00275881
0.00194019
0.00191952
0.00206578
0.002556
0.00469971
0.00705072
0.00762991
0.00866692
0.0119799
0.0112374
0.00537807
0.00244357
0.0113395
0.0719999
0.00282779
0.00198896
0.0019728
0.00213831
0.00274565
0.00506904
0.00741734
0.00834631
0.0103883
0.0153299
0.0129935
0.00636167
0.00283335
0.00291391
0.0116931
0.0719999
0.00204901
0.00203709
0.00222125
0.00294223
0.00541176
0.00777187
0.00906625
0.0120153
0.0183713
0.014073
0.00665766
0.0029974
0.00212118
0.00303762
0.0126059
0.0719999
0.00211196
0.00231572
0.00313622
0.00570401
0.00813095
0.00977141
0.0133512
0.0200379
0.0142657
0.0061682
0.00300967
0.00219648
0.00220117
0.00337381
0.0141229
0.0719999
0.00242432
0.00333659
0.0059372
0.00850297
0.010464
0.0146554
0.0205362
0.0140421
0.00534175
0.00298971
0.00253703
0.00226816
0.00240844
0.00397375
0.0181821
0.0719999
0.00353913
0.00611825
0.00887097
0.0111187
0.0160338
0.0205182
0.0137037
0.00469086
0.00282074
0.00372268
0.00261904
0.00243571
0.00271481
0.00543017
0.0292456
0.0719999
0.00624837
0.00918507
0.0116456
0.0175443
0.0201686
0.0132635
0.00418516
0.00251111
0.00634462
0.00384429
0.00279272
0.00258449
0.00346305
0.0102529
0.0543364
0.0719999
0.00941211
0.0120208
0.0190141
0.0194309
0.0127548
0.00379546
0.00224032
0.00956425
0.00624014
0.0039958
0.00288024
0.00289358
0.00625044
0.018365
0.0696489
0.0719999
0.0123196
0.020125
0.0185376
0.0122143
0.0034696
0.00205354
0.012627
0.0098063
0.00603886
0.00400996
0.00306215
0.00425348
0.0105818
0.0274407
0.0722127
0.0719999
0.0209467
0.0178464
0.0114902
0.00315354
0.00191707
0.0213878
0.0131241
0.00988293
0.00575249
0.00395747
0.00389557
0.00831287
0.017824
0.0338755
0.0841001
0.0719999
0.0173734
0.010519
0.00289824
0.00181633
0.0164274
0.0219039
0.0131154
0.00955765
0.00547707
0.00428582
0.00773168
0.0169309
0.030298
0.0496027
0.252425
7.50177
0.00942783
0.00273456
0.00173807
0.00800563
0.0150725
0.0225078
0.0125484
0.00916657
0.00534332
0.00706776
0.0193799
0.036602
0.0545699
0.147195
7.4573
7.06927
5.90706
0.00270127
0.00168435
0.00263695
0.00658191
0.0146698
0.0224117
0.0120802
0.00882083
0.00701346
0.0209779
0.0534058
0.0728799
0.0898973
5.4304
6.7527
8.35741
7.70011
6.64897
0.00167262
0.00166219
0.00256968
0.00737013
0.0154548
0.043707
0.0423495
0.0145861
0.0261776
0.0825017
0.127989
0.0994337
3.03653
6.10444
7.0737
11.3867
10.0005
8.96302
7.37005
0.00164891
0.00320977
0.00841845
0.0494467
0.488252
0.483695
0.145807
0.262039
0.308482
0.235199
1.49845
4.73857
6.05323
8.945
15.1987
14.0348
11.6559
10.1031
8.0854
0.00192627
0.00401773
0.0321113
0.598221
3.81877
2.55922
1.38679
1.52673
0.653591
0.631935
3.29884
5.06344
7.10281
11.784
19.2896
18.4377
16.2891
13.0382
11.2546
8.81876
0.0022991
0.014543
0.423769
4.13674
12.04
7.35633
7.14911
3.86703
0.564855
2.08651
3.95932
5.76998
8.99001
15.0798
47.3037
22.6954
21.101
18.1957
14.32
12.4316
9.57119
0.00470555
0.230533
3.05623
12.4289
18.6903
17.7393
13.9456
4.63468
1.14665
2.95158
4.642
7.13124
11.085
30.5803
350.947
44.314
351.107
327.118
327.211
25.8386
23.8007
20.0549
15.7099
13.8334
10.3499
0.0744715
1.98035
10.2195
18.1868
22.0085
26.0745
17.6556
3.40429
2.09083
3.52266
5.647
8.34638
18.3824
126.561
353.371
450.107
31.0374
353.532
287.347
287.499
450.273
425.76
425.925
29.4118
26.5119
22.0178
17.2941
15.4198
11.1133
0.893986
7.2991
16.8507
19.0626
23.4591
24.9347
15.4915
2.70945
2.49858
4.15671
6.55581
11.3379
59.8638
347.998
347.999
340.963
340.985
447.984
484.964
35.5787
66.6758
448.158
362.182
362.35
484.905
458.029
457.961
33.2745
29.3199
24.0269
19.107
17.2051
11.8191
4.28963
13.796
17.5547
17.8415
20.7009
24.3683
13.4155
3.01245
2.65346
4.74206
7.828
43.4818
327.15
327.156
328.389
328.494
446.523
446.668
446.13
446.104
491.544
464.006
751.146
463.602
754.446
40.9513
58.1718
361.32
361.334
364.976
365.034
491.491
464.639
464.624
463.639
753.517
464.176
753.611
449.055
698.153
436.272
733.561
448.268
699.635
436.517
731.525
37.2545
32.1231
26.1434
21.0688
19.0778
12.4418
9.78785
15.9352
15.6129
15.502
19.3324
24.2026
12.9278
4.5447
2.96369
5.50461
40.4344
323.275
323.356
324.977
325.2
459.046
458.95
466.155
466.002
702.592
771.878
435.044
704.2
437.343
447.434
773.861
703.937
435.493
704.563
437.468
448.193
739.622
452.975
735.587
451.132
739.911
453.063
735.834
451.188
480.079
773.747
475.4
786.548
472.667
816.657
470.392
824.54
46.4713
61.475
345.425
345.504
353.606
353.574
474.495
474.409
488.716
488.779
479.7
774.912
475.578
785.605
473.139
739.893
465.261
779.347
473.318
743.229
466.181
779.781
472.4
819.584
471.551
824.224
463.416
809.341
462.605
807.809
41.3852
35.1151
28.1225
23.0298
20.9253
12.8916
13.2636
14.7093
13.0508
14.3632
18.7983
23.4866
15.0748
6.44623
3.1611
34.8206
325.873
325.996
329.012
329.161
464.727
464.572
466.939
466.822
771.854
470.358
776.797
472.507
772.786
470.682
779.179
473.229
783.273
477.502
793.077
481.092
785.756
478.287
795.594
481.949
797.689
743.757
439.531
454.255
770.186
448.225
800.708
744.995
455.541
439.973
770.437
448.34
825.093
474.451
811.757
468.239
825.812
474.705
811.921
468.312
492.156
839.33
482.957
857.84
476.718
838.254
475.85
839.177
52.586
66.7865
313.912
314.027
330.913
330.957
425.92
425.781
453.183
453.063
763.342
469.147
779.107
477.315
764.446
469.483
779.951
477.561
779.498
826.748
480.85
779.818
481.945
484.896
780.856
830.621
481.276
780.525
482.153
486.463
491.855
840.916
483.49
857.348
493.243
860.71
493.78
861.773
476.206
840.611
477.011
837.805
470.809
831.978
469.874
830.14
45.9198
37.7162
29.8868
24.9448
22.5395
13.0788
12.3059
10.3574
11.3475
13.6799
18.2742
23.5484
17.8144
8.9945
7.72875
294.947
295.062
273.455
273.593
451.551
451.477
450.318
450.401
783.787
477.597
787.02
479.251
785.659
478.238
789.428
479.983
772.528
477.519
792.195
481.503
774.87
478.216
794.331
482.219
858.377
492.149
868.806
497.615
859.854
492.768
871.341
498.737
887.302
507.311
886.031
507.2
890.499
508.704
888.596
508.478
498.831
855.063
486.517
880.201
59.3313
72.7384
303.454
303.623
301.676
301.767
333.768
333.64
378.471
378.338
637.473
395.971
685.327
418.773
640.34
396.782
688.264
419.717
735.254
450.041
719.872
441.637
736.766
450.556
723.05
442.6
835.426
482.342
850.004
491.131
837.091
482.966
851.022
491.552
861.484
824.108
485.998
493.41
846.544
491.954
865.643
825.441
486.485
495.321
847.293
492.263
498.375
855.867
486.96
879.008
502.864
887.685
503.432
888.66
50.0114
39.5972
31.415
26.596
23.3821
12.9259
5.76663
7.29638
9.88582
12.9851
17.5329
22.6458
20.0933
11.7514
50.6059
415.775
415.87
393.18
393.381
512.49
512.458
506.431
506.434
889.68
508.355
899.085
512.596
892.328
509.596
901.603
513.778
871.287
505.069
897.25
512.331
874.047
506.236
899.698
513.505
908.573
515.429
912.03
516.94
65.8217
77.037
250.822
251.046
293.4
293.622
281.265
281.321
293.483
293.423
460.439
290.785
489.547
305.396
464.471
291.844
493.51
306.528
575.792
357.156
554.685
345.139
578.829
358.068
558.094
346.085
711.766
405.7
754.425
430.885
715.621
407.334
757.528
432.373
800.467
461.555
784.603
451.626
802.59
462.44
788.004
453.095
52.5745
40.5384
32.4184
27.3209
23.0629
12.3934
3.12195
5.64299
8.73336
12.1058
16.3075
21.0903
20.923
14.5797
293.05
293.159
265.243
265.321
463.535
463.338
430.877
431.119
498.354
809.156
498.171
811.184
498.223
808.948
498.173
810.867
491.669
781.311
482.489
800.22
491.606
783.074
482.956
800.065
921.457
521.09
931.165
526.844
924.217
522.495
933.545
528.117
917.532
521.372
938.581
529.8
920.232
522.634
940.682
531.009
70.0502
86.9597
107.532
223.437
223.877
252.534
252.63
208.561
208.566
238.947
239.044
455.68
269.908
518.191
297.899
460.871
271.825
522.805
299.952
634.472
362.154
595.53
341.483
638.556
363.99
599.405
343.23
704.529
401.827
708.742
403.645
52.719
40.1648
32.5472
26.5022
21.5854
12.8654
2.13662
4.71926
7.70307
10.4325
15.2983
20.1194
21.9867
47.5752
410.899
410.666
360.494
360.335
741.11
454.466
451.136
720.284
742.564
454.847
450.882
719.865
472.128
472.015
517.035
885.472
510.952
905.479
516.848
885.841
511.044
904.932
512.349
868.36
496.646
900.274
512.327
870.629
497.582
900.118
921.457
522.781
924.166
523.879
68.95
95.9935
116.725
223.195
223.033
178.772
178.295
147.229
146.288
157.343
157.224
198.333
287.243
187.028
316.399
198.114
286.217
186.641
314.087
219.522
385.594
233.294
351.075
219.466
387.077
233.945
350.534
477.412
271.419
524.268
298.318
481.554
273.479
527.431
300.139
634.92
361.759
598.376
339.692
639.069
363.821
601.836
341.523
50.5816
39.1236
30.842
24.2208
17.7392
1.65376
3.92739
6.63927
9.36821
14.8223
22.2251
29.9703
264.223
264.152
218.935
219.003
709.551
428.811
673.376
420.018
710.061
428.998
675.283
420.397
426.607
426.555
833.419
475.99
467.671
799.501
834.933
476.639
467.629
799.743
743.043
454.476
757.038
461.765
744.248
454.759
757.06
461.738
514.166
889.061
502.944
908.897
514.461
891.229
503.897
909.944
64.6687
92.3939
137.933
173.845
262.949
262.245
233.403
231.307
192.859
192.042
258.561
163.752
161.845
234.966
256.688
161.787
159.662
232.449
210.462
351.571
198.843
371.894
210.099
349.871
197.902
371.003
222.935
408.292
234.065
391.619
222.997
410.217
234.953
391.514
473.718
269.192
477.922
271.241
47.6707
36.1901
27.2205
20.5167
1.33148
3.59715
5.82607
9.1197
17.9001
23.6742
146.895
146.897
187.162
187.193
331.305
331.21
250.923
250.798
810.163
460.812
757.06
444.123
811.117
461.286
758.346
444.576
428.204
633.99
396.21
709.393
428.262
635.276
396.438
709.576
873.541
492.048
484.611
854.467
874.013
492.422
484.37
853.855
836.849
476.075
838.787
478.88
838.228
476.655
838.991
479.017
59.0735
84.277
127.96
217.331
379.922
379.792
380.039
379.756
409.168
408.21
504.317
283.91
491.904
293.661
496.84
279.487
485.06
289.103
477.713
264.194
465.602
253.59
304.386
180.982
473.652
261.562
462.844
251.616
301.328
178.848
335.225
187.195
332.537
185.345
219.044
407.39
220.722
402.446
218.54
405.845
219.648
401.517
42.9567
31.0584
22.6746
1.27065
3.16361
5.48858
10.9456
18.1564
36.8553
185.499
185.425
239.371
239.346
511.471
679.483
314.371
480.841
295.094
395.983
680.513
511.722
396.328
314.34
480.931
294.952
370.613
232.613
392.262
239.06
372.405
233.059
393.243
239.37
849.783
478.149
825.205
466.42
850.765
478.66
826.121
466.83
435.816
765.04
435.951
765.25
488.476
865.137
488.316
864.793
856.161
482.823
857.737
483.469
51.7718
74.3764
112.464
186.114
447.117
447.178
430.827
430.645
473.479
472.545
495.263
495.329
411.686
690.619
401.276
728.054
357.907
629.045
411.68
691.329
401.103
728.223
356.487
626.941
620.776
347.509
618.031
345.897
599.461
334.355
580.534
441.912
322.073
240.466
597.396
332.95
578.397
439.22
320.744
238.492
437.475
234.417
434.874
232.673
35.6838
24.5504
1.13055
2.72851
6.58507
13.6617
19.5553
188.678
188.667
142.23
142.267
231.464
231.298
278.908
278.973
658.451
514.849
302.189
376.255
469.852
275.398
659.307
514.91
376.511
302.071
469.768
275.24
397.609
233.511
400.481
231.773
398.714
233.95
401.609
232.303
824.34
464.086
825.085
464.439
41.4958
63.0541
95.3961
154.633
303.196
487.197
487.181
486.798
486.157
783.555
461.15
811.672
464.99
780.281
458.76
809.359
463.645
819.64
765.69
467.522
813.255
465.799
436.965
821.563
768.13
468.381
813.512
465.641
438.17
442.933
410.743
784.535
731.906
444.034
410.236
786.753
731.146
723.897
404.508
722.561
403.685
694.936
388.459
543.069
300.469
693.774
387.552
540.584
298.958
26.3388
0.904898
3.23521
8.24914
17.0373
64.8785
197.234
197.161
172.672
172.398
235.932
381.184
235.093
375.36
236.084
380.817
234.99
376.138
275.979
276.474
426.555
244.513
403.496
233.103
426.9
244.629
404.17
233.574
28.058
48.8636
77.5508
125.139
224.475
577.701
577.871
585.639
585.57
552.15
552.196
599.335
598.433
896.349
512.284
899.21
508.857
894.727
511.145
897.456
507.853
822.442
864.904
467.705
494.675
887.473
504.235
825.738
865.305
494.817
469.137
886.514
503.714
437.757
776.225
438.254
777.417
1.05296
3.96604
10.1711
32.8378
229.138
229.157
197.32
197.262
275.211
275.744
253.276
253.396
255.697
447.766
257.637
439.429
256.617
447.72
257.503
441.334
437.971
269.879
494.804
291.707
442.075
271.641
498.812
293.439
448.213
256.313
447.731
255.983
29.6984
57.9988
96.6566
169.841
358.097
610.213
610.276
651.194
650.859
685.67
685.381
552.898
979.249
559.287
944.447
552.748
977.831
558.741
944.328
986.767
558.278
973.815
551.54
985.907
557.669
971.657
550.417
1.40501
5.11603
19.166
77.0152
216.921
216.085
185.23
184.833
549.817
305.726
249.109
482.459
280.625
440.609
553.08
307.234
245.845
475.75
277.678
433.773
261.69
259.535
289.848
485.985
273.695
520.906
291.436
486.025
273.773
524.349
573.741
317.425
576.654
318.952
31.2822
69.3665
122.734
242.536
656.577
656.709
656.518
656.477
633.754
634.326
725.803
725.65
1049.6
612.019
1102.76
627.65
1048.11
600.25
1050.75
611.672
1103.73
627.965
1048.92
600.797
1062.17
601.548
1064.16
602.497
1055.49
598.373
1057.61
599.134
1.96169
11.2356
38.3393
199.082
198.847
221.912
221.867
218.731
214.368
195.852
195.06
594.564
327.16
257.642
529.68
295.87
472.686
590.897
325.507
255.919
524.129
293.193
469.111
418.879
217.593
470.439
243.123
399.845
208.466
457.316
235.538
32.8447
83.6293
159.008
374.08
681.492
681.395
713.79
713.325
743.247
743.278
1103.11
633.986
622.14
1107.41
636.843
1058.31
623.067
1108.6
637.411
1060.62
1104.89
634.643
1133.75
1113.75
644.2
630.449
1134.96
1115.53
644.725
631.121
1110.34
628.073
1113.01
629.116
4.17477
30.0444
113.291
220.837
220.659
260.864
260.945
393.599
203.066
188.383
339.461
183.878
319.35
370.608
192.494
185.752
323.322
177.433
311.894
212.212
211.468
279.83
532.116
276.052
526.052
451.23
229.29
433.727
218.949
34.4419
100.861
209.301
623.75
623.782
662.195
662.067
684.906
684.661
775.75
774.572
1082.6
637.534
1138.08
652.669
1127.76
648.506
1082.14
1129.16
649.324
636.623
1139.46
653.383
1110.42
639.668
1141.18
652.448
1142.86
1112.34
653.316
640.285
12.982
75.4927
161.951
222.058
222.118
197.012
196.847
376.171
193.024
192.31
367.285
192.319
339.685
353.61
182.13
189.743
354.304
185.538
335.162
292.181
196.77
330.605
199.466
292.917
196.736
329.956
198.644
429.995
220.83
412.047
210.086
36.0325
120.796
273.329
620.251
620.094
659.639
658.929
749.813
748.606
1134.81
654.393
648.624
1168.36
668.999
1101.59
1133.71
653.552
646.563
1164.42
667.053
1098.06
1151.38
1160.81
657.023
660.006
1163.84
661.455
1151.36
657.042
64.9729
142.582
309.37
236.995
236.956
309.334
318.122
318.162
218.296
289.995
202.52
218.182
289.469
202.081
399.934
203.393
208.798
405.718
212.382
384.626
382.696
193.426
206.015
397.746
207.17
380.676
353.493
213.658
352.592
212.675
37.3504
141.768
311.392
600.369
600.128
663.819
662.786
980.028
584.93
1067.9
614.541
1135.56
652.77
977.102
1131.22
650.56
582.692
1065.35
613.197
1177.79
668.537
1184.2
669.939
1175.92
667.294
1181.61
668.423
1162.87
663.354
1161.4
662.591
125.029
179.289
273.907
373.115
274.06
373.083
347.264
347.034
307.421
257.5
176.864
269.301
187.593
199.616
321.381
210.917
258.576
306.163
176.807
268.046
185.093
199.303
320.332
210.735
218.136
391.885
215.942
388.881
324.913
202.654
325.852
202.132
38.1885
159.204
446.737
611.944
611.268
446.696
528.738
528.355
686.715
985.295
576.349
686.184
985.733
576.258
1116.86
1037.36
635.015
592.14
1114.43
633.734
1037.72
592.394
1189.63
673.477
1149.96
653.374
1187.51
672.076
1148.64
652.317
108.367
197.644
369.396
229.177
361.08
559.306
370.904
229.79
362.443
560.36
445.425
445.793
278.359
334.919
297.161
192.673
184.674
215.147
278.43
298.197
333.384
193.023
184.634
214.741
215.933
363.332
214.494
362.132
38.0249
184.854
430.705
610.201
608.529
430.295
496.192
495.07
983.722
983.067
570.953
984.67
574.417
568.442
919.725
552.752
980.29
986.107
572.284
986.843
575.267
566.705
914.604
549.078
1056.78
1023.79
603.591
584.77
1056.32
603.519
1026.77
586.313
65.7016
226.006
324.1
324.312
225.908
179.654
179.045
1065.14
279.008
724.651
439.297
445.232
604.829
1244.43
688.372
433.501
1043.98
602.726
1071.36
280.417
731.652
441.759
448.077
606.385
1248.15
689.491
434.009
1046.29
602.548
291.896
472.608
190.842
305.361
291.72
474.095
190.725
305.882
37.0263
176.552
381.314
598.9
550.411
939.505
597.129
547.641
935.185
380.201
460.411
457.321
978.409
985.213
1002.21
563.052
575.372
563.202
979.508
980.196
1007.54
577.765
563.414
560.845
1033.48
592.518
1035.48
593.55
27.7031
292.458
187.179
293.125
187.01
163.697
163.085
901.736
1401.56
798.674
564.214
1224.82
690.44
581.263
779.258
469.12
861.092
510.239
367.741
505.232
353.097
904.273
1403
564.979
799.577
1225.71
690.251
780.582
583.232
468.874
863.965
510.087
367.602
511.984
352.957
33.8453
178.593
366.253
365.077
180.225
257.782
257.813
676.199
537.765
883.618
516.085
918.299
432.132
774.428
455.26
668.039
534.116
877.831
512.937
911.891
426.95
772.083
454.457
457.82
679.276
414.283
455.4
673.347
410.125
964.247
961.351
558.247
551.552
962.586
954.258
557.613
548.56
25.6073
242.639
329.498
483.442
158.501
243.055
329.614
482.687
157.738
122.023
121.297
1342.14
779.883
1008.23
586.797
683.636
548.808
910.151
534.786
411.498
341.05
1343.01
779.921
1008.55
586.627
684.8
910.824
547.733
534.578
410.544
340.278
30.8411
198.628
306.842
304.989
199.148
244.721
244.504
923.154
803.548
533.923
466.399
743.555
431.545
916.353
803.042
531.193
466.156
742.7
431.119
572.907
649.891
384.876
667.732
403.085
346.435
484.007
352.75
566.692
645.521
382.36
661.5
398.946
342.978
475.799
347.348
33.2818
98.6844
98.2952
222.636
317.354
436.843
307.525
463.561
120.014
222.721
317.438
440.694
307.286
461.714
119.295
795.707
622.688
529.717
474.94
377.458
330.205
795.194
620.932
528.06
473.771
375.615
329.244
28.1671
173.511
303.544
298.14
422.814
301.034
297.984
420.205
174.457
220.213
220.81
764.5
445.897
709.722
412.585
764.934
446.137
708.01
411.919
604.222
488.732
679.565
352.69
392.856
294.722
601.17
482.76
676.319
391.583
351.134
292.361
8.94052
95.8474
79.8731
95.6735
79.9288
177.57
293.904
418.975
300.704
417.871
504.897
319.04
102.49
177.263
293.462
422.662
299.796
415.902
505.247
318.642
102.02
593.867
363.702
591.01
361.422
25.0953
159.446
160.009
287.401
296.769
442.425
301.899
428.164
286.393
294.102
430.865
294.818
422.567
202.482
202.853
529.121
636.752
468.5
319.785
372.426
283.267
527.406
634.455
461.161
371.499
319.011
280.834
10.279
55.6718
62.2842
55.5678
62.2751
76.6265
76.2872
148.778
269.819
306.549
243.5
373.767
308.584
494.481
314.138
483.563
559.71
348.511
148.658
270.378
307.42
242.966
369.225
307.483
494.913
313.676
481.196
558.263
346.838
28.5438
143.094
139.682
144.02
141.004
269.078
289.999
432.733
298.349
415.514
462.162
279.623
268.613
291.558
425.245
293.872
416.945
455.445
277.253
182.779
183.496
490.866
303.688
488.927
303.292
10.4891
79.6412
87.9493
79.8332
87.9217
74.8508
86.3773
74.517
86.0586
120.072
120.026
206.363
258.063
221.705
229.973
284.996
387.212
258.875
435.731
334.626
546.351
342.459
528.381
206.649
258.898
220.444
229.727
284.446
387.823
259.242
433.911
333.343
545.273
341.138
526.133
32.8828
167.269
194.346
168.279
194.904
179.451
180.681
243.074
284.036
399.683
280.496
411.021
281.094
462.058
280.344
456.428
469.463
294.576
243.362
285.967
395.66
277.252
413.936
279.875
455.863
278.185
453.024
466.625
294.183
2.02218
95.4443
79.0652
95.3415
78.7312
111.109
128.044
110.972
127.806
104.903
107.848
104.077
107.188
194.425
187.496
184.941
199.691
195.373
188.432
185.618
200.521
196.893
323.451
223.32
278.631
199.302
326.594
224.979
282.4
36.4294
216.886
228.265
216.973
228.608
213.536
264.34
214.112
263.96
238.59
239.443
261.243
368.398
271.263
346.666
273.665
427.679
262.959
448.247
296.485
469.247
293.296
470.724
265.183
366.773
269.267
353.201
273.684
429.05
263.369
448.365
296.185
466.094
292.823
468.079
22.9502
1.14655
133.671
107.927
133.411
107.313
120.863
144.952
120.41
144.741
181.528
178.577
179.715
180.331
183.868
190.548
185.139
185.138
183.465
179.544
181.126
181.747
185.835
190.929
185.275
187.02
176.928
217.057
160.047
243.176
179.999
222.287
163.167
248.613
38.2018
247.701
239.605
248.088
240.712
277.232
269.434
276.405
269.309
269.568
337.795
269.517
335.622
261.1
360.677
268.161
346.827
264.385
361.404
268.135
352.337
234.91
381.971
242.544
361.634
236.396
385.479
243.547
367.026
11.5645
107.4
89.0364
107.096
89.4838
1.27367
159.405
142.375
159.131
141.697
187.011
203.734
187.638
203.986
193.434
232.033
192.986
221.093
188.95
203.965
187.801
205.829
195.806
231.445
192.146
223.906
147.977
207.346
154.611
201.895
145.561
208.282
150.365
200.462
150.957
211.131
157.434
205.821
148.882
210.353
151.974
205.035
40.5284
192.681
286.533
318.033
286.409
317.999
346.999
331.681
343.651
329.644
280.856
368.434
270.275
401.631
307.183
523.113
329.545
472.976
281.779
366.868
269.058
403.331
306.16
511.988
322.998
470.702
241.671
384.271
251.787
366.871
242.497
387.18
252.44
370.435
5.01212
94.7758
78.7316
95.0125
79.1153
166.387
146.849
166.171
146.928
1.1827
196.399
252.214
196.444
253.545
192.535
255.562
211.765
243.342
197.032
250.377
194.931
254.103
193.685
253.086
210.058
244.52
164.006
231.895
163.199
236.701
170.689
280.081
184.195
252.627
166.204
232.73
163.95
239.88
173.593
278.362
183.292
257.174
41.2979
184.644
388.272
401.382
387.208
400.566
338.718
355.859
336.574
354.114
322.441
527.675
331.38
507.534
312.447
474.6
313.223
480.133
317.495
512.814
322.923
498.802
310.287
464.394
307.283
474.964
276.666
402.417
264.83
440.055
309.683
557.795
327.111
519.834
276.234
402.404
264.653
440.478
307.53
548.967
323.929
514.672
24.6011
4.26211
144.842
106.737
144.842
106.599
260.389
304.946
191.938
256.91
195.433
223.685
254.692
208.082
247.015
192.432
257.214
299.134
189.145
252.613
191.344
220.919
249.359
203.131
242.445
187.986
1.49492
200.252
307.484
197.136
313.557
202.273
308.308
199.856
302.995
194.641
312.404
202.641
308.618
170.111
291.181
184.313
256.528
172.323
288.741
182.682
260.803
41.1361
157.504
439.093
455.222
438.721
455.15
465.37
460.971
463.485
458.475
317.702
479.429
315.835
480.221
327.172
528.537
364.211
499.791
315.113
468.374
308.889
475.616
326.433
519.874
358.428
497.211
321.163
557.167
328.834
538.457
301.123
489.116
290.68
503.961
318.315
546.776
325.704
528.528
297.931
479.192
286.845
494.987
18.1595
98.1093
81.978
98.2088
82.1934
4.44784
176.557
140.293
176.021
139.993
321.049
299.559
205.846
196.652
305.731
199.572
304.331
220.121
307.824
202.976
314.499
295.282
202.211
193.673
298.732
194.99
294.592
214.888
299.973
198.012
1.95083
199.98
320.023
198.271
320.925
202.732
325.342
198.377
314.659
195.09
318.535
202.204
324.869
40.0511
138.519
306.566
486.252
516.205
485.15
515.866
656.131
626.196
386.124
643.002
388.285
370.543
661.604
420.94
652.761
398.235
620.379
656.225
385.958
640.756
386.062
368.046
654.173
415.61
648.658
394.736
305.699
496.264
292.103
522.418
330.286
568.707
303.827
488.704
288.806
518.133
328.886
564.148
310.698
497.981
300.39
511.611
309.343
491.705
298.591
504.281
12.4797
77.8334
88.5617
77.9317
88.1972
145.588
131.647
145.64
131.971
4.85805
192.595
259.497
190.761
253.196
183.979
231.475
201.102
224.152
192.119
256.906
188.828
252.441
184.047
229.282
198.45
224.025
323.263
203.707
324.598
213.253
320.762
205.804
316.742
199.878
313.05
207.173
311.717
200.567
1.68756
38.5102
116.561
264.878
600.731
604.971
599.79
604.591
575.142
581.864
573.395
580.581
649.926
667.603
390.637
373.578
663.721
392.703
762.611
446.418
709.012
413.572
653.579
672.857
375.645
393.24
665.916
393.674
758.478
444.399
707.95
412.92
320.385
506.42
301.353
546.062
344.62
595.398
320.165
501.774
299.693
545.624
346.161
598.711
53.2959
10.6733
114.081
113.054
114.296
112.755
213.818
259.385
174.731
212.552
183.465
201.419
231.54
207.658
216.091
185.148
211.723
253.741
171.561
211.895
180.646
198.332
231.585
204.176
216.846
183.071
4.23572
193.653
284.074
194.736
289.341
187.703
273.775
193.215
281.362
193.027
288.343
187.392
272.786
1.33281
36.8487
95.9367
199.547
625.713
626.173
625.556
626.233
701.392
690.039
699.614
688.585
505.416
842.701
489.676
863.778
519.074
888.327
533.373
885.865
502.594
837.075
486.481
859.141
517.698
883.271
530.051
884.216
673.499
389.085
794.885
458.928
732.639
429.057
681.918
393.049
791.165