/*--------------------------------*- C++ -*----------------------------------*\
| =========                 |                                                 |
| \\      /  F ield         | OpenFOAM: The Open Source CFD Toolbox           |
|  \\    /   O peration     | Version:  5.x                                   |
|   \\  /    A nd           | Web:      www.OpenFOAM.org                      |
|    \\/     M anipulation  |                                                 |
\*---------------------------------------------------------------------------*/
FoamFile
{
    version     2.0;
    format      ascii;
    class       volScalarField;
    location    "2.1";
    object      p;
}
// * * * * * * * * * * * * * * * * * * * * * * * * * * * * * * * * * * * * * //

dimensions      [1 -1 -2 0 0 0 0];

internalField   nonuniform List<scalar> 
12160
(
5255.55
5285.59
4601.37
5301.85
4631.38
3947.24
5322.62
4647.5
3977.11
3292.7
5345.35
4668.23
3993.14
3322.45
2638.57
5370.05
4690.9
4013.59
3337.79
2667.99
1983.67
5397.24
4715.49
4035.97
3358.45
2682.93
2012.96
1329.77
5427.05
4742.63
4060.35
3380.6
2703.16
2027.01
1358.46
674.746
5459.13
4772.48
4087.38
3404.6
2724.78
2047.6
1371.61
705.778
177.994
5492.71
4804.67
4117.3
3431.47
2748.27
2068.52
1391.8
716.86
194.446
0.926189
5526.99
4838.37
4149.71
3461.49
2774.86
2091.25
1411.82
737.083
199.051
0.937967
-6.60823
5561.51
4872.71
4183.69
3494.26
2805.02
2117.45
1433.53
756.315
209.833
0.961098
-6.76637
-7.47003
5596.42
4907.19
4218.18
3528.67
2838.31
2147.79
1459.18
777.236
221.388
2.11259
-6.81194
-7.48745
-8.20604
5632.06
4941.97
4252.58
3563.41
2873.38
2181.82
1489.7
802.488
234.296
4.65611
-6.81936
-7.49602
-8.2058
-8.79363
5668.88
4977.51
4287.1
3597.68
2908.5
2217.86
1524.71
833.352
251.446
7.82928
-6.79858
-7.49554
-8.16514
-8.79791
-9.51195
5707.03
5014.32
4322.41
3631.76
2942.58
2253.55
1562.01
869.651
274.564
12.5137
-6.75572
-7.51377
-8.1552
-8.80879
-9.51618
5745.3
5052.77
4359.2
3666.63
2975.99
2287.36
1598.42
908.767
303.293
19.7639
-6.69399
-7.49357
-8.14502
-8.81709
-9.49163
5790.11
5092.61
4398.05
3703.25
3010.16
2319.82
1631.76
946.321
334.693
29.6716
-6.6018
-7.4889
-8.13176
-8.82659
-9.47885
5825.3
5134.91
4439.1
3742.42
3046.51
2352.89
1662.76
979.133
363.939
41.1032
-6.42815
-7.48719
-8.12156
-8.82233
-9.47249
5857.47
5171.79
4481.22
3784.67
3086.08
2388.61
1694.14
1008.18
387.839
52.0732
-5.89874
-7.49051
-8.12726
-8.82193
-9.46684
5882.47
5203.2
4520.42
3827.71
3129.78
2428.56
1728.99
1036.95
407.328
60.9012
-5.01896
-7.52499
-8.15296
-8.81213
-9.46389
5898.96
5230.91
4556.28
3868.96
3174.89
2473.53
1769.29
1069.7
425.891
67.5926
-4.13713
-7.5296
-8.19218
-8.81572
-9.47416
5905.09
5248.21
4582.7
3905.97
3219.49
2521.57
1816.3
1109.26
448.907
73.4402
-3.42941
-7.52442
-8.20705
-8.82869
-9.47954
5899.76
5254.82
4601
3936.56
3260.49
2570.2
1868.2
1157.45
480.925
81.5322
-2.85974
-7.49094
-8.19143
-8.83282
-9.48931
5882.88
5249.73
4608.51
3957.06
3293.63
2615.5
1922.13
1213.61
525.101
95.0447
-2.11508
-7.4457
-8.17213
-8.83712
-9.49149
5855.09
5232.84
4603.9
3965.99
3316.92
2653.56
1973.14
1273.74
580.295
116.273
-0.722153
-7.40433
-8.14542
-8.82719
-9.48583
5817.54
5204.83
4586.99
3962.17
3327.82
2680.61
2016.54
1332.68
642.604
146.283
1.79945
-7.37207
-8.12178
-8.81172
-9.48205
5771.85
5166.85
4558.5
3945.25
3325.11
2694.21
2048.18
1383.14
706.05
184.281
6.12383
-7.32914
-8.11145
-8.79853
-9.47697
5719.92
5120.59
4519.66
3916.03
3308.16
2692.85
2065.15
1420.79
761.795
226.589
13.033
-7.21981
-8.12215
-8.7926
-9.47303
5663.71
5067.99
4472.22
3875.85
3277.93
2675.89
2065.58
1442.06
804.9
267.812
22.7137
-6.95711
-8.15922
-8.79434
-9.47181
5605.15
5011.08
4418.25
3826.61
3235.89
2644.32
2048.69
1444.66
830.538
301.714
34.2241
-6.44904
-8.20622
-8.7993
-9.47475
5545.94
4951.83
4359.92
3770.56
3184.13
2599.81
2015.5
1427.8
835.696
323.514
45.4893
-5.64235
-8.24016
-8.81986
-9.48611
5487.57
4891.98
4299.28
3710.03
3125.16
2544.74
1967.93
1392.57
819.684
329.314
53.8275
-4.63196
-8.23867
-8.86091
-9.49934
5431.23
4833.03
4238.18
3647.25
3061.61
2481.95
1908.66
1341.11
783.51
318.012
56.6135
-3.73112
-8.26225
-8.93175
-9.50113
5377.89
4776.15
4178.12
3584.18
2995.96
2414.4
1841.02
1276.45
730.105
291.254
52.3574
-3.39488
-8.26398
-8.9589
-9.48565
5328.33
4722.25
4120.31
3522.36
2930.36
2344.9
1768.57
1202.41
663.925
253.167
42.7067
-3.82728
-8.27106
-8.95854
-9.4745
5282.86
4671.99
4065.75
3462.9
2866.38
2275.93
1694.47
1123.6
589.995
208.321
30.538
-4.76821
-8.28124
-8.96453
-9.50284
5242.12
4626.55
4015.33
3406.62
2805.09
2208.98
1621.63
1044.01
513.922
161.435
18.7105
-5.80685
-8.29072
-8.96283
-9.51196
5206.17
4585.63
3968.64
3354.15
2747.46
2144.99
1551.6
967.391
441.081
118.296
8.99816
-6.5895
-8.29397
-8.95389
-9.51404
5174.9
4549.59
3927.23
3307.49
2694.41
2084.54
1484.72
895.16
376.144
81.8688
2.15925
-7.05402
-8.2802
-8.93544
-9.51221
4518.32
5130.67
3890.89
3265.54
2645.18
2028.39
1421.67
827.42
320.678
54.133
-1.97995
-7.28908
-8.25586
-8.90256
-9.50949
3859.52
4474.2
5090.67
3228.96
2602.21
1978.75
1363.56
764.236
273.034
35.2278
-4.14245
-7.38878
-8.22772
-8.86388
-9.50862
3197.59
3815.49
4434.51
5069.65
2565.08
1934.79
1310.71
706.638
232.26
22.3976
-5.24575
-7.42837
-8.19123
-8.8256
-9.50677
2533.61
3153.91
3776.4
4414.1
5057.37
1897.21
1265.52
654.585
198.046
13.5783
-5.81953
-7.44789
-8.15212
-8.80555
-9.50644
1865.77
2490.27
3115.8
3757.09
4402
5053.47
1227.59
612.147
170.364
7.67474
-6.13155
-7.46199
-8.12085
-8.79921
-9.49966
1196.51
1823.18
2453.38
3098.3
3745.7
4398.79
5051.84
577.741
148.849
3.89065
-6.32617
-7.46543
-8.08206
-8.79921
-9.48725
550.442
1155.25
1787.98
2438.19
3087.72
3744.48
4396.67
5048.04
132.76
1.62048
-6.43883
-7.43241
-8.04515
-8.80933
-9.47305
120.719
515.628
1122.4
1775.87
2429.09
3087.87
3742.07
4394.55
5036.23
0.249972
-6.51955
-7.40239
-8.04314
-8.82254
-9.45432
-0.661793
105.815
489.879
1113.88
1768.23
2431.99
3086.32
3739.82
4377.78
5032.12
-6.56913
-7.38143
-8.05462
-8.81008
-9.43409
-6.61752
-1.63933
96.1377
486.742
1108.67
1773.89
2432.71
3086.57
3724.15
4377.9
4970.12
-7.37639
-8.06039
-8.78505
-9.4373
-7.37662
-6.66101
-1.81462
96.8088
485.713
1117.4
1776.17
2434.54
3066.1
3704.6
4291.82
5084.74
-8.06487
-8.77578
-9.44743
-8.06935
-7.37956
-6.66797
-1.20951
98.6178
496.372
1123.4
1784.15
2414.53
3015.21
3640.99
4436.35
4567.6
5394.9
-8.77124
-9.45199
-8.76924
-8.07474
-7.37847
-6.63442
-0.307384
105.338
506.148
1133.98
1767.99
2348.12
2948.5
3703.48
4011.67
4290.94
5032.9
5731.12
-9.45579
-9.45884
-8.76786
-8.07235
-7.35752
-6.53136
0.789313
112.64
519.641
1127.02
1710.53
2273.49
2928.63
3423.97
3843.67
4120.44
4771.92
5481.58
6145.66
-9.46203
-8.76456
-8.0504
-7.28451
-6.35136
2.27956
119.805
530.127
1084.29
1606.12
2223.76
2867.78
3401.02
3662.32
3945
4589.8
5260.57
5967.83
6644.72
-9.46109
-8.74977
-7.99004
-7.16035
-5.97489
2.82507
137.204
496.255
1021.93
1628.85
2338.99
2919.13
3237.15
3494.23
3761.41
4375.21
5043.42
5755.79
6499.67
7245.17
-9.45509
-8.71006
-7.89879
-6.93011
-5.90103
8.58396
118.875
479.209
1127.92
1800.27
2411.47
2835.51
3081.15
3337.37
3541.75
4126.53
4777.6
5509.2
6294.36
7111.39
7953.28
-9.44011
-8.65273
-7.77375
-7.063
-5.28046
14.4972
102.765
612.736
1266.16
1898.61
2406.53
2697.4
2928.69
3160.94
2617.03
3832.99
2621.47
2521.18
2524.01
4450.89
5178.25
6022.85
6896.37
7805.02
8760.6
-9.41969
-8.60825
-7.95649
-7.35031
-1.86348
10.6344
165.251
739.797
1390.01
1954.84
2322.21
2555.86
2791.62
2959.68
2711.53
2514.34
4047.63
2716.59
2803.09
2807.03
2516.67
2382.95
2384.56
4756.22
5634.75
6612.55
7587.66
8602.55
9685.02
-9.41201
-8.76674
-8.59798
-7.02921
-2.46177
7.11141
233.694
837.169
1450.99
1898.42
2188.25
2435.99
2647.1
2207.95
2206.09
2081.44
2082.62
2600.62
2416.14
4243.29
3670.88
2603.34
2665.76
2668.1
2408.2
2322.13
2315.94
5128.49
6187.19
7295.34
8375.97
9508.14
10728.1
-9.49202
-9.32882
-9.21775
-6.90107
-5.11327
9.90595
278.865
893.265
1428.53
1784.73
2072.51
2316.74
1964
1965.26
1859.34
1860.71
2108.68
2105.71
2003.57
1999.26
2483.1
2054.29
1956.9
2082.25
1934.5
4496.13
3687.18
2513.82
2514.63
2542.11
2539.32
2475.64
2531.38
2524.93
2051.69
1958.94
2079.65
1933.16
2033.21
1822.16
2033.98
1898.12
2030.18
1819.94
2029.99
1894.65
5606.38
6846.68
8084.48
9266.42
10521.4
11866.7
-9.76402
-9.98174
-8.90929
-7.09978
-5.36946
15.7331
330.374
879.942
1315.18
1662.08
1945.53
1747.58
1748.32
1618.48
1618.98
1900.72
1894.9
1801.61
1794.44
1761.93
1818.15
1846.66
1690.34
1803.8
1914.54
1816.45
1765.05
1847.3
1692.29
1803.99
1913.77
1605.57
1713.58
1650.32
1766.38
1606.13
1713.14
1651.63
1766.28
2123.46
1974.07
2100.68
1996.34
1970.6
1975.27
1995.49
1944.23
4865.68
3764.86
2396.04
2397.56
2442.89
2443.99
2309.12
2303.86
2368.1
2364.1
2121.38
1975.98
2098.45
1995.19
2150.56
1966.75
2194
2013.72
2147.85
1969.35
2191
2012.14
1971.26
1978.35
1996
1947.95
1948.94
1902.15
1948.86
1903.18
6221.99
7629.96
8969.47
10261.9
11634.1
13040.8
-10.2405
-9.68101
-8.29326
-7.16785
-5.5056
23.024
305.91
778.973
1191.09
1549.22
1461.85
1462.09
1335.4
1335.93
1698.5
1691.5
1580.35
1573.16
1564.34
1672.1
1519.24
1625.74
1565.73
1671.92
1525.13
1626.24
1435.72
1540.82
1480.32
1584.66
1440.47
1540.71
1484.79
1584.79
1833.68
1755.75
1798.39
1875.44
1712.65
1745.24
1835.49
1760.97
1876.04
1799.72
1715.15
1746.05
1638.15
1667.86
1690.26
1723.43
1640.75
1668.63
1691.95
1724.07
2039.76
2008.77
2031.06
2011.81
1943.79
1946.72
1962.73
1923
5398.86
3980.62
2379.47
2380.54
2375.94
2376.4
2149.16
2140.82
2206.46
2199.79
1829.88
1957.18
1868.6
1993.06
1833.96
1957.83
1871.86
1993.67
1938.47
1997.79
2022.78
1908.89
2028.21
2107.69
1942.28
1997.03
2023.42
1911.84
2028.69
2107.3
2040.42
2011.21
2031.44
2014.98
2046.75
2003.35
2047.16
2005.08
1943.65
1946.85
1963.09
1921.37
1908.35
1870.68
1908.61
1871.44
6987.63
8535.52
9944.17
11337.9
12805.9
14155
-9.95038
-9.18149
-8.07974
-7.23312
-5.52406
13.2275
260.266
664.505
1048.93
1175.39
1176.13
1002.65
1002.93
1424.37
1421.27
1284.9
1284.28
1387.17
1491.69
1332.08
1436.94
1389.59
1490.96
1336.73
1436.56
1228
1376.83
1288.17
1396.29
1229.35
1375.08
1290.94
1395.33
1601.85
1627.24
1544.45
1563.1
1604.6
1628.2
1546.86
1564.17
1470.51
1489.75
1512.49
1531.76
1474.02
1490.94
1514.35
1532.84
2006.18
1987.2
2005.14
1977.12
6140.33
4428.48
2559.57
2561.13
2430.25
2430.96
2091.78
2081.07
2112.64
2103.6
1612.82
1719.4
1657.67
1787.39
1619.56
1720.21
1664.41
1788.21
1764.91
1882.04
1704.19
1825.8
1769.14
1882.83
1712.05
1827.06
1842.96
1870.95
1896.18
1923.8
1848.39
1872.83
1898.61
1924.85
1953.16
1933.78
1979.93
1998.11
1920.93
1952.62
1955.86
1935.61
1980.42
1998.82
1922.5
1953.21
2006.07
1986.62
2004.9
1976.36
1996.9
1953.07
1997.58
1955.01
7908.25
9522.33
10987.3
12475.1
13942.8
15148.9
-9.8929
-8.95881
-8.03187
-7.26393
-5.64119
6.53373
196.254
540.547
874.497
1119.72
1119.85
918.493
919.063
1369.63
1368
1241.8
1239.03
1422.08
1439.79
1368.11
1389.09
1423.48
1440.47
1369.49
1389.67
1227.24
1295.24
1308.23
1337.18
1227.77
1295.25
1309.03
1337.54
1442.11
1474.97
1446.27
1476.19
7081.38
5164.35
2976.99
2978.5
2731.01
2732.25
2251.81
2247.29
2159.12
2151.02
1552.8
1729.11
1552.43
1679.4
1548.84
1725.01
1555.13
1678.43
1593.28
1697.46
1581.59
1708.74
1597
1697.65
1587.07
1708.75
1650.74
1683.4
1703.44
1736.35
1656.5
1685.49
1707.32
1738.29
1781.29
1808.98
1727.27
1751.05
1787.47
1811.26
1732.94
1753.42
8936.39
10565.9
12079.2
13619.6
14962.9
16038.9
-9.78542
-8.86519
-8.00967
-7.24691
-5.88808
2.39309
133.558
411.104
702.645
703.822
514.793
515.584
1086.25
1082.53
888.552
890.62
1180.11
1166.71
1227.49
1104.88
1179.4
1165.25
1227.02
1103.37
1123.54
982.23
1065.1
1044.74
1123.19
985.454
1065.08
1044.73
1398.72
1423.99
1355.15
1377.07
1401.24
1424.92
1356.87
1377.73
1242.25
1265.26
1293.51
1316.11
1245.03
1266.18
1294.69
1316.68
8170.37
6142.84
4109.65
2547.09
2550.34
2381.2
2377.26
2007.46
2004.77
1923.86
1915.55
1558.65
1647.51
1550.32
1623.41
1558.57
1646.38
1555.65
1624.93
1609.44
1638.8
1592.78
1627.96
1613.37
1640.4
1594.69
1628.84
1604.71
1644.25
1613.53
1647.02
10025.1
11634.4
13206.6
14658.3
15875.2
16752.5
-9.69044
-8.80772
-7.98896
-7.18107
-5.89538
0.448794
79.4426
298.855
664.453
660.888
449.362
446.718
905.107
983.729
930.916
815.934
906.768
982.807
928.962
815.277
857.971
855.62
1130.94
1174.06
1192.1
1120.93
1131.06
1176.93
1192.95
1120.87
1074.06
992.166
1011.04
1062.94
1074.21
993.945
1011.69
1063.61
1224.27
1247.83
1229.25
1249.22
9347.44
7304.72
5196.96
3039.3
3038.35
2588.89
2596.55
2272.16
2276.62
2127.79
2113.46
1764.89
1676.98
1807.07
1649.26
1765.73
1688.63
1809.75
1653.47
1722.09
1561.68
1637.33
1613.15
1721.35
1559.49
1636.01
1612.89
1546.07
1595.22
1542.87
1588.87
1549.62
1595.85
1546.37
1590.24
1583.05
1617.7
1564.24
1598.31
1588.96
1619.7
1568.23
1599.72
11119
12736.6
14267.2
15568.2
16609
-9.61214
-8.76646
-7.93546
-7.06623
-5.95919
1.8266
33.3673
254.337
254.284
116.556
116.51
563.723
615.98
466.331
542.207
566.901
616.018
473.878
542.927
413.183
413.455
912.221
935.817
864.222
806.07
912.935
935.936
863.906
806.871
646.272
704.87
726.381
774.067
645.312
703.369
724.318
772.719
1046.99
978.395
994.367
1031.75
1047.68
981.155
995.171
1035
10520
8593.13
6483.74
4925.11
3104.24
3093.41
2588.26
2585.66
2287.03
2279.49
1727.41
1875.67
1966.37
1775.33
1730.34
1876.31
1961.5
1764.25
1777.04
1741.46
1817.52
1716.75
1777.87
1748.57
1820.04
1719.42
1739.94
1601.88
1644.2
1683.63
1740.18
1603.81
1644.55
1683.86
1567.07
1619.35
1572.98
1620.81
12209.5
13805.5
15195.6
16334.2
-9.55433
-8.72397
-7.86447
-6.99759
-6.00305
0.861271
24.898
24.8784
6.91185
6.9092
204.492
204.717
85.6688
85.2259
547.106
562.763
440.597
477.854
547.513
562.976
443.304
478.749
371.878
268.539
307.251
347.138
372.29
270.576
307.294
348.467
892.251
907.373
833.163
815.474
892.237
907.42
832.862
814.803
642.214
655.752
719.634
730.508
641.026
655.151
717.783
729.828
11648.5
9894.76
7924.11
6250.31
4099.6
4102.88
3672.86
3670.88
3196.95
3196.38
2176.24
2330.9
2259.84
2553.71
2187.1
2335.76
2273.47
2557.82
2072.75
2177.74
1988.38
2060.35
1794.34
1988.46
2088.79
2181.29
1996.33
2061.83
1799.46
1988.26
1774.18
1890.21
1781.77
1892.65
1808.57
1793.19
1852.06
1749.15
1810.2
1803.17
1855.09
1754.39
13295.3
14763.8
15983.4
-9.51986
-8.67922
-7.79632
-7.06903
-5.79218
-2.01078
21.292
21.1454
3.81632
3.80492
177.166
270.418
192.96
120.347
133.096
302.347
272.372
178.529
303.178
194.158
120.984
133.993
42.7554
47.6715
75.8646
79.3994
42.347
47.0774
75.6618
79.0081
523.54
537.264
441.079
456.019
525.088
537.906
443.165
456.882
350.579
336.561
351.039
337.803
806.584
791.999
806.161
791.296
599.891
616.264
600.919
616.489
12758
11117.6
9389.54
7685.53
5186.45
5191.83
4581.79
4581.03
4318.35
4312.14
3839.39
3839.97
2914.9
2802.33
3153.53
2737.61
2684.85
2437.3
2919.07
2822.08
3158.32
2747.28
2687.55
2445.39
2348.63
2441.68
2355.36
2444.28
2236.96
2303.43
2125.83
1925.44
2178.68
1990.49
2246.71
2306.27
2131.76
1934.36
2180.93
1992.85
1852.59
1911.54
1861.57
1914.61
14285.8
15568.3
-9.49536
-8.63148
-7.76487
-6.87373
-5.35092
-1.56792
-1.56504
-2.60558
-2.61397
15.3487
15.2731
1.7834
1.79882
248.669
159.87
165.017
269.96
122.806
124.234
251.333
160.312
271.312
166.583
122.464
124.72
44.2344
45.5652
85.6212
89.242
43.4323
44.9076
85.1039
89.0323
412.575
429.589
414.391
430.334
13785
12271.3
10736.8
9242.51
7953.3
5338.33
5333.93
4814.7
4799.99
3734.78
4185.86
3664.63
3916.72
3755.86
4189.92
3678.93
3921.72
3288.33
2969.74
3494.5
3471.32
3694.42
3240.23
3301.61
2983.17
3499.46
3492.55
3700.71
3244.56
3013.95
2710.82
2910.86
2635.62
3017.03
2714.21
2919.22
2643.98
2491.88
2537.91
2499.86
2541.03
2344.83
2391.38
2024.21
2068.3
2356.37
2394.84
2032.49
2071.19
15100
-9.47452
-8.58681
-7.52652
-6.57425
-4.73043
-1.46824
-1.45248
-2.21972
-2.22062
6.50412
16.3951
17.7333
5.89542
6.53344
16.0562
17.3206
5.95491
1.11917
1.14963
45.8188
47.9747
85.0392
93.5565
44.7376
47.4558
84.9838
94.087
14614.6
13322.2
11960.6
10661.9
9510.73
6775.72
6786.07
6064.52
6063.16
5503.99
5504.67
5023.72
5016.48
3949.87
4257.12
3888.45
3978.82
3962.69
4260.45
3896.45
3981.97
3161.17
3498.12
3302.44
3611.28
3701.27
3793.2
3176.64
3505.63
3614
3307.89
3707.93
3795.79
2820
2764.75
2823.56
2774.59
-9.45634
-8.47263
-7.13477
-5.82573
-2.52747
-2.53345
-3.34537
-3.35439
-0.829789
-0.812118
-1.66811
-1.66708
7.22283
15.2874
18.3588
6.42444
7.18913
15.1518
17.9489
6.45193
0.0808548
0.0550172
1.92498
2.11632
0.0958265
0.0627225
1.9293
2.10712
40.8033
46.3264
39.5566
45.8964
14175
13036.8
11940.3
10951.4
10150.1
6982.15
6980.28
6457.28
6440.96
5870.3
5858.28
4934.27
4337.66
4589.2
4428.98
4932.42
4337.15
4589.97
4426.45
4202.03
4286
4034.63
4089.53
4215.64
4290.18
4042.65
4092.44
-9.42108
-8.2901
-6.84999
-5.23321
-2.01873
-2.02911
-2.91549
-2.93235
0.190346
0.21966
-0.339389
0.00586265
0.0195291
-0.296053
0.193993
0.218372
-0.325818
0.0154626
0.0224614
-0.27372
-0.969901
-0.953284
6.17431
11.1391
13.0824
5.47853
6.09449
10.9955
12.9825
5.41083
1.20472
1.37455
1.18619
1.36162
13902.4
13046.1
12245.9
11590.4
8574.71
8587.84
7774.09
7773.68
7125.17
7138.58
6805.03
6788.51
5096.09
5666.62
5038.97
5312.86
4651.02
5015.18
5131.32
5672.48
5061.59
5320.97
4653.14
5016.28
4595.82
4677.29
4604.17
4680.3
4412.37
4451.69
4427.11
4455.86
-9.45067
-8.09112
-6.54976
-3.27728
-3.27848
-4.01791
-4.02356
-1.56355
-1.58004
-2.51964
-2.53363
0.23304
0.285626
-0.0704271
0.155261
0.189165
-0.0711263
0.230956
0.281586
-0.0664761
0.152334
0.179194
-0.0550705
-0.567093
-0.705316
-0.0906818
-0.0637821
-0.557264
-0.695947
-0.0466012
-0.0455408
13914.7
13351.2
12871.8
12485.8
8811.57
8809.02
8234.74
8213.52
7645.08
7637.75
5331.16
5761.45
6550.27
5807.92
6139.44
5942.53
6546.48
5814.27
6141.61
5940.42
5349.8
5766.94
5293.46
4913.63
5438.07
5031.17
5306.91
4934.61
5442.82
5038.22
4750.03
4817.83
4766.88
4822.65
-9.55654
-8.01939
-6.39359
-3.1776
-3.16384
-3.81669
-3.82495
-0.383813
-0.481503
-1.56998
-0.760797
-0.886611
-1.27145
-0.359602
-0.467316
-1.58365
-0.782276
-0.89144
-1.30739
-2.25897
-2.26863
0.188437
0.149485
0.200139
0.179737
-0.0181936
0.0273367
0.0308586
0.0453648
14236.7
13961.4
13733
10383.9
10390
9687.25
9683.88
9119.36
9118.13
8586.73
8576.85
6668.23
7354.13
6580.98
6928.03
6154.51
6584.54
6702.75
6159.26
6586.46
7361.29
6598.19
6934.21
5653.77
5857.09
6081.91
6239.61
6089.04
5669.05
6242.42
5861.74
-9.96468
-8.15394
-8.33693
-1.76724
-1.74946
-2.79222
-2.79891
-0.282964
-0.262197
-1.41111
-0.794804
-0.872121
-1.17263
-0.243832
-0.246768
-1.42582
-0.809493
-0.878646
-1.20448
-1.42266
-1.64223
-1.24432
-1.39081
-1.43367
-1.64052
-1.26719
-1.40043
-0.0216298
0.0594325
0.0373536
0.0799658
14836.6
14793.6
14687.2
10679
10675.6
10149.9
10130.6
9540.24
9537.81
6889.09
7341.61
8243.63
7358.88
7740.79
7518.98
6908.84
7348.1
8242.39
7358.7
7742.22
7516.11
6841.18
6463.99
6990.31
6631.14
6481.68
6637.01
6848.41
6993.73
-10.4647
-12.7113
-4.50303
-3.97022
-4.03676
-4.48107
-5.93545
-5.86946
-3.42844
-1.31139
-1.50466
-3.33772
-1.33109
-1.5112
-0.367665
-0.342917
-1.22552
-0.97232
-1.01882
-1.14513
-0.349235
-0.335872
-1.23779
-0.980104
-1.02731
-1.16261
-1.14356
-1.29259
-1.16325
-1.3025
15649.9
15680.5
15536.8
10989.9
10992.2
10428.7
10419.7
8154.12
8951.51
8099.6
8520.42
7711.32
8182.27
8191.92
7710.94
8183.62
8961.33
8120.74
8528.19
7215.79
7343.63
7653.03
7778.96
7235.7
7350.17
7666.59
7783.8
7032.21
7139.41
7044.01
7143.56
-13.1105
-9.5552
-2.51169
-4.83946
-2.54004
-4.82899
-5.45348
-5.42784
-4.01452
-1.57063
-1.6831
-1.2349
-1.32027
-4.13168
-0.856151
-0.676035
-1.53472
-3.7921
-1.65307
-1.25819
-1.3338
-4.52955
-0.574639
-0.592321
-1.4681
-1.36628
-1.47544
-1.38025
-0.948578
-0.998005
-0.980351
-1.01927
16522.9
16472.6
12451.3
11167.5
11150.1
12463
11836.5
11837.1
10610.2
8348.51
8907.22
10610.4
8378.81
8917.87
7995.66
8374.52
8133.93
8528.42
8015.96
8141.1
8389.03
8534.57
7449.31
7524.83
7822.94
7921.54
7469.39
7530.5
7846.14
7928.31
-11.6126
-8.00365
-3.11102
0.8331
0.40583
-4.48658
-3.11675
1.58444
0.468027
-4.47214
-5.26725
-5.25595
-3.87571
0.847955
-0.964428
-0.886471
-2.60924
2.38818
-3.84117
-0.99018
0.776373
-0.902884
-2.60056
2.1736
-1.52821
-1.42931
-1.53293
-1.44455
17307.7
17080.2
12561.1
11287.2
11286.6
12561.2
12136.5
12122.9
8864.89
8481.43
9015.49
8425.26
8957.61
9355.4
8943.57
9812.01
8887.43
8514.15
9028.51
8458.2
8969.74
9364.3
8988.21
9823.3
8175.35
8464.46
8239.4
8619.29
8182.21
8242.8
8482.87
8626.94
-9.87819
-6.08914
-5.46367
-5.44883
-6.08814
-6.48317
-6.49369
-2.99622
0.798767
1.1369
1.33639
0.790033
-3.31814
-2.42977
-2.52961
-4.98712
-3.28602
-3.62662
-3.01091
0.573587
1.01854
1.26904
0.683562
-3.31852
-2.45614
-2.54223
-4.98097
-3.30765
-3.63113
-1.37959
7.59203
0.516151
9.41234
-1.26716
7.56465
0.576657
9.10538
17919.9
17466.3
12661.6
11501.1
9765.01
9161.34
11502.2
9769.22
9171.85
12660.3
12155.8
12134.5
8745.83
9170.25
8506.11
8988.25
8727.76
9383.8
8773.5
9177.47
8536.04
8739.07
8997.94
9386.3
8309.05
8404.43
8320.53
8409.11
-9.53521
-5.72972
-6.32083
-5.70974
-6.31802
-6.59349
-6.60542
4.83634
-1.37266
-1.31086
5.18411
-3.0492
-3.1362
-4.43881
-4.15334
-4.43505
-3.64056
-3.95739
-4.67097
-4.44854
-4.87793
4.76491
-1.41376
5.18132
-1.33007
-3.07334
-3.14599
-4.1698
-4.44936
-4.44077
-3.66631
-3.96468
-4.6753
-4.44528
-4.87473
18256.1
13532.8
12666.1
12641
13552.2
13082.4
13073
9628.82
9835.92
9274.29
9877.49
9231.48
10488.7
9591.3
10134.8
9671.19
9838.02
9288.78
9882.91
9234.55
10498.3
9626.22
10146.9
12051.6
9791.58
10426
12043.5
9840.56
10442.6
8965.03
9254.41
9146.39
9510.19
8982.93
9246.84
9151.14
9507.98
-9.57048
-6.21206
-5.17311
-4.79943
-6.51901
-6.19049
-5.16887
-4.79206
-6.51603
-6.72735
-6.74128
-2.6839
-2.70791
-3.65723
-3.80501
-4.56417
-4.82064
-4.33193
-4.47232
-4.65686
-4.99353
-2.71065
-2.71891
-3.67261
-3.81147
-4.58809
-4.34725
-4.81821
-4.47824
-4.66495
-4.99321
18421.1
13484.1
12580.1
12556.7
13496.6
13076
13063.9
9281.41
9502.48
9638.76
9777.07
9825.57
10115.4
9285
9527.8
9638.32
9786.15
9852.25
10125.5
10097.8
9750.08
10285.9
9714.57
10298.6
10602.8
10071
10755.2
10113.5
9783.28
10299.3
9775.17
10318.3
10607.1
10074.6
10740.8
-9.64843
-6.8018
-6.81815
-6.43484
-5.37857
-5.31656
-5.59817
-5.07549
-6.60081
-6.41381
-5.37319
-5.29849
-5.59102
-5.06794
-6.60144
-4.70056
-4.98009
-5.09324
-4.78215
-5.04125
-5.25042
-4.72239
-4.99438
-5.092
-4.78978
-5.04608
-5.25053
18500.4
13431.7
12610.4
10827.9
10254.7
12563.5
10825.9
10248.2
13450.6
13061
13051.9
9653.17
9889.27
9800.98
10053.9
9675.49
9897.22
9824.31
10063.6
10018.3
10326.1
9811.84
10239.9
10074.2
10655.3
10039.7
10311.5
9828.93
10081
10248
10651.1
-9.59706
-6.82989
-6.83701
-6.84573
-6.85327
-6.53963
-5.78333
-5.42872
-5.7214
-5.49249
-5.27042
-5.43918
-6.63055
-6.52483
-5.77974
-5.42418
-5.71676
-5.49069
-5.27823
-5.44197
-6.631
-5.2483
-5.32163
-5.26623
-5.32681
18438.7
13395.4
13418.5
12573.2
10644.5
10158.5
10647.1
10176.1
12544.3
10648.7
10156.8
10643.9
10174.6
13034.2
13024.3
10105.2
9899.98
10305.4
10301.2
10111.3
10573.7
10139.9
9918.81
10293.5
10117.7
10310.1
10571
-9.60873
-6.8175
-6.82216
-6.83466
-6.84042
-6.61161
-6.6136
-6.54188
-5.76786
-5.44813
-5.75564
-5.47368
-5.63851
-5.3769
-5.57582
-5.43308
-5.39585
-5.49267
-6.52603
-5.75991
-5.4459
-5.75134
-5.45795
-5.64006
-5.39226
-5.57995
-5.44023
-5.41781
-5.49914
18461.3
13358.4
13343.3
13386.2
13373.9
12526.7
10592.8
10124.3
10634.6
10105.2
10250.6
10539.4
12491.8
10593.8
10127.8
10622.8
10105.5
10254.6
10541.1
13016
13007.5
10109.6
10327.3
10150.3
10336.9
-9.5561
-6.82402
-6.8138
-6.8415
-6.8282
-6.57957
-6.55702
-6.58325
-6.56136
-6.46219
-6.44701
-5.7319
-5.44284
-5.74293
-5.44126
-5.66361
-5.36729
-5.6752
-5.40747
-5.69112
-5.48731
-5.62057
-5.51697
-5.72426
-5.43646
-5.7372
-5.42642
-5.66009
-5.36272
-5.67243
-5.39748
-5.69513
-5.50945
-5.62729
-5.53292
18348.6
13355.9
13384.6
13383.8
13404.4
13004.5
12999.8
12463.8
10565.3
10042.7
10545.9
10075.7
10543
10214
10534.9
10197.5
10077.5
10313.1
12435.7
10579
10045.2
10535.5
10084.9
10544.7
10229.1
10538.6
10208.6
10111.4
10321.6
-9.52539
-6.83701
-6.85728
-6.84809
-6.8715
-6.52883
-6.51922
-6.53386
-6.5221
-6.39577
-6.32294
-6.38194
-6.31019
-5.67931
-5.37849
-5.66878
-5.39153
-5.67163
-5.36765
-5.66147
-5.37843
-5.64235
-5.388
-5.67201
-5.35914
-5.63709
-5.37967
-5.66822
-5.34817
18062.1
13349.4
13295
13364.1
13309.6
12989.4
13006.5
12984.1
12996.1
12474.1
12446.4
10552.5
10024.6
10538
10057.9
10544.6
10182.1
10512.8
10220.6
10342.3
10043.9
10309.1
10033
10552.6
10047.4
10542.5
10059.2
10542
10198.1
10517.1
10213.4
10347.3
10078.3
10317.7
10055.9
-8.72844
-9.49128
-6.50954
-6.50146
-6.51122
-6.50742
-6.25505
-6.23374
-6.24044
-6.21803
-5.54909
-5.3367
-5.59929
-5.29837
-5.45789
-5.15901
-5.37844
-5.22349
-5.54163
-5.32528
-5.59041
-5.28921
-5.45348
-5.15918
-5.37373
-5.22013
-5.58742
-5.24402
-5.53551
-5.2985
-5.58156
-5.22833
-5.52891
-5.28562
17688.4
13272.6
13246.1
13283.5
13259.4
12966.3
12935.1
12953.6
12923.9
12441.6
12432.9
12415.4
12409.1
10587.7
10060.3
10599.1
10070.3
10584.1
10058.8
10595.3
10065.8
10567.2
10156.6
10521.5
10191.6
10568.8
10183.7
10529.2
10202.9
-8.72691
-6.1264
-6.15451
-6.11739
-6.15301
-9.45149
-6.20938
-6.17014
-6.18622
-6.15413
-5.25377
-5.09542
-5.29222
-5.05793
-5.2216
-5.02097
-5.23625
-5.02141
-5.25064
-5.09507
-5.28894
-5.054
-5.21775
-5.01649
-5.23204
-5.01629
-5.43103
-5.18748
-5.50119
-5.15042
-5.36211
-5.06239
-5.28332
-5.12052
-5.42642
-5.17766
-5.49485
-5.14653
-5.35825
-5.06559
-5.28293
-5.11979
17219.4
16879.5
12864.5
12754
12853.1
12744.7
12436.9
12452.8
12406.8
12415.8
10659.3
10057
10618.5
10084.8
10662.9
10031.5
10631.6
10074.8
10653.9
10053.4
10614
10076.1
10660.5
10046.5
10632.4
10070.7
10611.3
10133.1
10556.5
10188.5
10611.3
10145.7
10559.4
10190.7
-8.70446
-6.14885
-6.18867
-6.15113
-6.19904
-5.71049
-5.76467
-5.70264
-5.74382
-9.44916
-5.17731
-5.0087
-5.21108
-4.9605
-5.19068
-4.94241
-5.28398
-4.90971
-5.17157
-4.99232
-5.20397
-4.94747
-5.18622
-4.93763
-5.27878
-4.89902
-5.16722
-4.99473
-5.20301
-4.96961
-5.12906
-4.94262
-5.1008
-4.93984
-5.16538
-4.99841
-5.20281
-4.97048
-5.12688
-4.93647
-5.09779
-4.93965
16578.7
16394.4
12291.3
12234.3
12262.2
12229.6
12399.1
12292.1
12363.1
12257.6
10588.4
10027.4
10605
10033.5
10565.9
10015.4
10514.9
10058.4
10583.9
10032.9
10602.9
10029.1
10559.1
10043.2
10532.7
10050.3
10602.1
10112.7
10579.3
10164
10564.5
10141.7
10479.3
10188.7
10599.4
10123.7
10581.2
10161.3
10561.1
10150.5
10479.4
10184.5
-7.87967
-8.72007
-5.74384
-5.77071
-5.73541
-5.76844
-4.57564
-4.78918
-4.71134
-4.48451
-4.6904
-5.02935
-4.5189
-4.85311
-4.45717
-4.73917
-4.58004
-4.78161
-4.71355
-4.49907
-4.69426
-5.02587
-4.52175
-4.85121
-4.46832
-4.74169
-9.4511
-4.99482
-4.90582
-5.04661
-4.84869
-4.97618
-4.75216
-4.98882
-4.89281
-5.04153
-4.83442
-4.97026
-4.73784
-4.97863
-4.73409
-4.92773
-4.75157
-4.98044
-4.74892
-4.93154
-4.76085
15796.9
15729.5
12088.8
11925.8
12087.1
11937.9
11667.1
11696.7
11657.9
11677.6
10508.6
10038.1
10508.3
10057.4
10590.5
9825.71
10561.7
10056.1
10492.2
10039
10507.2
10039.9
10577.2
9851.64
10576.7
10041.6
10457
10111.5
10432.9
10080.6
10476.2
10146.2
10448
10145.8
10452
10115.6
10431.3
10075.1
10471.8
10151.6
10449.8
10140.6
-7.92296
-5.39856
-5.50303
-5.38668
-5.49511
-8.71493
-5.26502
-5.34943
-5.25712
-5.33671
-4.56666
-4.4388
-4.67453
-4.57387
-4.3839
-4.52697
-4.35882
-4.58315
-4.30704
-4.51877
-4.57329
-4.43979
-4.67663
-4.57565
-4.38913
-4.53021
-4.35695
-4.58324
-4.30635
-4.51994
-9.46089
-4.781
-4.67637
-4.85684
-4.62162
-4.70495
-4.53785
-4.78268
-4.68753
-4.85925
-4.62993
-4.70508
-4.53982
14965
14937.2
14820.9
11629.2
11309.6
11619.6
11313.6
9493.33
9878.59
10019.3
9409.03
10000.9
10426.2
9277.38
10128.6
9464.96
10074.8
9891.05
9544.29
10040.3
9477.47
10024.2
10431.4
9318.77
10138.1
9517.7
10093.1
10394.9
10147.7
10408.4
10160.2
10406.6
10121.5
10392.1
10149
10409.1
10151.6
10402.9
10102.8
10300.5
10027.3
10264.8
10024.5
10298.5
10046.1
10268.6
10032.9
-7.96759
-5.56245
-5.62521
-5.55759
-5.63164
-4.9127
-5.02673
-4.90802
-5.0124
-8.76192
-4.35838
-4.18732
-4.32029
-4.1532
-4.41797
-4.20277
-4.51536
-4.14812
-4.35816
-4.18802
-4.32078
-4.15241
-4.418
-4.20431
-4.51401
-4.14826
-4.43639
-4.57953
-4.19634
-4.33488
-4.1482
-4.35645
-4.44759
-4.58333
-4.20223
-4.3364
-4.15311
-4.35853
-9.47367
14251.7
14102.4
13981.5
10665.4
10458.6
10647.8
10459.2
11002.4
10782.5
11005
10783.7
9801.08
9519.34
9776.84
10032.9
9405.58
9762.56
9233.74
9844.58
9439.46
9795.51
9855.87
9565.85
10051.3
9794.48
9437.73
9776.73
9268.85
9856.72
9476.48
9809.3
10148.8
10014.7
10207.1
9990.16
10076.9
9917.37
10156.1
10030.6
10211.1
10018.1
10087.4
9948.49
-7.19635
-8.06016
-5.05296
-5.13568
-5.03629
-5.13308
-3.83962
-3.99705
-3.97835
-3.85419
-4.06188
-4.25477
-3.98123
-4.31414
-3.90313
-4.1745
-3.85116
-3.99538
-3.98397
-3.86699
-4.06787
-4.25568
-3.98031
-4.31315
-3.91059
-4.1775
-8.81268
-4.17782
-3.99019
-4.21149
-3.98484
-4.18512
-3.9317
-4.17635
-3.99003
-4.21188
-3.98042
-4.18466
-3.93083
-9.49459
13739.1
13365.5
13080.2
10136.1
9850.29
10133.2
9856.53
10112.8
9912.15
10110.5
9904.78
9462.66
8929.09
9516.05
8889.54
9390.51
8578.56
9421.71
8811.94
9466.02
8944.14
9522.2
8895.98
9395.09
8601.01
9424.26
8825.3
9666.98
9880.45
9141.02
9466.65
9245.68
9527.53
9729.74
9900.99
9164.84
9475.67
9276.17
9538.48
-7.31149
-4.86164
-5.06372
-4.86338
-5.07682
-8.099
-4.66424
-4.70688
-4.65464
-4.70115
-3.79683
-3.60374
-3.97011
-3.83445
-3.60415
-3.80895
-3.69532
-3.96704
-3.59724
-3.84049
-3.81617
-3.61701
-3.97695
-3.84147
-3.61379
-3.81191
-3.68657
-3.96375
-3.60288
-3.84223
-8.82871
-4.01126
-3.76486
-4.01486
-3.77681
-9.52488
13509.9
12870.8
12342.7
11914.7
9619.85
9190.94
9602.57
9188.91
8119.54
8495.16
8628.67
8031.72
8548.59
9038.56
7710.1
8487.24
7955.57
8487.52
8511.02
8141.01
8637.22
8057.25
8558.43
9044.91
7747.61
8497.26
7982.59
8497.4
9183.04
8933.76
9274.33
8910.18
9049.63
8788.74
9183.55
8942.42
9276.51
8909.48
9053.01
8798.26
-6.73981
-7.5601
-4.35657
-4.53393
-4.34262
-4.53436
-8.11935
-3.93323
-3.54907
-3.76497
-3.61122
-4.24747
-3.9313
-3.54325