/*--------------------------------*- C++ -*----------------------------------*\
| =========                 |                                                 |
| \\      /  F ield         | OpenFOAM: The Open Source CFD Toolbox           |
|  \\    /   O peration     | Version:  5.x                                   |
|   \\  /    A nd           | Web:      www.OpenFOAM.org                      |
|    \\/     M anipulation  |                                                 |
\*---------------------------------------------------------------------------*/
FoamFile
{
    version     2.0;
    format      ascii;
    class       volScalarField;
    location    "2.1";
    object      p_rgh;
}
// * * * * * * * * * * * * * * * * * * * * * * * * * * * * * * * * * * * * * //

dimensions      [1 -1 -2 0 0 0 0];

internalField   nonuniform List<scalar> 
12160
(
5582.55
5612.59
5582.37
5628.85
5612.38
5582.24
5649.62
5628.5
5612.11
5581.7
5672.35
5649.23
5628.14
5611.45
5581.57
5697.05
5671.89
5648.59
5626.79
5611
5580.67
5724.24
5696.49
5670.97
5647.45
5625.93
5609.95
5580.78
5754.05
5723.63
5695.35
5669.6
5646.16
5624.01
5609.45
5579.75
5786.13
5753.48
5722.38
5693.6
5667.78
5644.6
5622.6
5570.21
3074.4
5819.71
5785.66
5752.3
5720.47
5691.27
5665.52
5642.8
5595.05
3360.96
129.378
5853.99
5819.37
5784.71
5750.5
5717.86
5688.25
5662.82
5625.43
3439.92
138.063
6.52383
5888.51
5853.71
5818.68
5783.26
5748.02
5714.45
5684.52
5640.5
3593.98
141.646
2.65272
0.12245
5923.42
5888.19
5853.17
5817.67
5781.31
5744.79
5710.15
5653.29
3712.76
165.29
0.553216
0.0535844
-0.0309817
5959.06
5922.97
5887.58
5852.41
5816.38
5778.81
5740.66
5670.35
3832.55
216.464
0.323834
0.0265818
-0.0307969
0.0353662
5995.88
5958.51
5922.1
5886.68
5851.5
5814.85
5775.65
5697.59
3975.98
278.397
0.55827
0.0256847
0.00985872
0.0310915
-0.0289513
6034.03
5995.32
5957.41
5920.76
5885.58
5850.55
5812.96
5734.82
4142.07
370.066
0.924451
0.00766519
0.0198008
0.0202144
-0.0331833
6072.3
6033.77
5994.2
5955.63
5918.99
5884.36
5849.37
5777.16
4335.72
512.18
1.80281
0.0282629
0.0299798
0.0119111
-0.00862895
6117.11
6073.61
6033.05
5992.25
5953.16
5916.82
5882.73
5819.5
4544.2
702.219
3.62551
0.034048
0.043237
0.00240649
0.00414735
6152.3
6115.91
6074.1
6031.42
5989.51
5949.89
5913.75
5857.71
4732.88
909.188
8.4211
0.037565
0.0534439
0.00667054
0.0105055
6184.47
6152.79
6116.22
6073.67
6029.08
5985.61
5945.14
5893.74
4881.99
1096.51
22.1778
0.0385186
0.0477432
0.00707165
0.0161607
6209.47
6184.2
6155.42
6116.72
6072.78
6025.56
5979.99
5931.2
5002.5
1239.13
41.8322
0.0214982
0.0220454
0.0168656
0.0191075
6225.96
6211.91
6191.28
6157.97
6117.89
6070.53
6020.3
5972.45
5118.6
1344.19
60.4189
0.129255
-0.0171659
0.0132804
0.0088409
6232.09
6229.21
6217.7
6194.97
6162.49
6118.57
6067.3
6014.2
5250.16
1437.02
74.5153
0.374772
-0.0319933
0.00030681
0.00345776
6226.76
6235.81
6236
6225.56
6203.49
6167.2
6119.2
6062.45
5397.19
1568.03
85.1342
0.657642
-0.0161845
-0.00381838
-0.00630717
6209.88
6230.72
6243.51
6246.06
6236.63
6212.5
6173.13
6118.61
5570.09
1781.95
99.8981
0.915225
0.00347864
-0.00812224
-0.00849141
6182.09
6213.83
6238.9
6255
6259.92
6250.56
6224.14
6178.74
5756.36
2111.53
129.33
1.19754
0.0306104
0.00180851
-0.00282721
6144.54
6185.83
6221.99
6251.17
6270.82
6277.61
6267.54
6237.68
5925.93
2559.72
183.338
1.61331
0.0547448
0.0172835
0.000950857
6098.85
6147.85
6193.5
6234.25
6268.1
6291.21
6299.18
6288.09
6065.39
3092.38
274.526
2.56653
0.0658976
0.030475
0.00602658
6046.92
6101.59
6154.65
6205.04
6251.16
6289.85
6316.15
6325.7
6168.52
3640.26
416.122
5.58033
0.0591252
0.0364031
0.00996366
5990.71
6048.99
6107.21
6164.86
6220.93
6272.89
6316.58
6346.93
6238.65
4129.95
609.532
13.1322
0.0433356
0.0346661
0.0111872
5932.15
5992.08
6053.25
6115.61
6178.89
6241.32
6299.69
6349.49
6276.02
4502.16
834.265
27.1142
0.0681919
0.0297204
0.00824561
5872.94
5932.82
5994.91
6059.56
6127.12
6196.81
6266.5
6332.57
6281.74
4723.49
1049.23
48.2006
0.208927
0.00928817
-0.00311573
5814.57
5872.98
5934.28
5999.03
6068.16
6141.74
6218.93
6297.23
6257.43
4784.66
1206.01
73.626
0.596126
-0.0312844
-0.0163448
5758.23
5814.03
5873.18
5936.25
6004.61
6078.95
6159.66
6245.54
6199.87
4687.71
1259.41
95.5075
1.24715
-0.100453
-0.018128
5704.89
5757.15
5813.12
5873.18
5938.96
6011.39
6092.02
6180.37
6103.97
4428
1179.92
103.811
1.97215
-0.123634
-0.00265057
5655.33
5703.25
5755.3
5811.36
5873.36
5941.89
6019.57
6105.17
5963.92
4011.75
997.384
93.8116
2.2566
-0.118367
0.00850581
5609.86
5652.99
5700.74
5751.9
5809.38
5872.92
5945.47
6023.74
5772.12
3461.05
764.271
71.3913
1.97763
-0.122548
-0.0198346
5569.12
5607.55
5650.33
5695.62
5748.1
5805.98
5872.62
5938.58
5521.52
2826.21
529.651
46.2064
1.29236
-0.122271
-0.0289477
5533.17
5566.63
5603.64
5643.15
5690.46
5741.99
5802.55
5851.21
5214.22
2176.99
333.28
25.7857
0.596976
-0.117654
-0.031031
5501.9
5530.59
5562.23
5596.49
5637.41
5681.54
5735.53
5759.24
4868.48
1584.1
192.252
12.3932
0.198614
-0.103564
-0.0292092
5499.32
5457.67
5525.89
5554.55
5588.18
5625.39
5672.16
5658.66
4473.9
1105.06
104.769
5.02333
0.0337332
-0.072709
-0.0264876
5494.52
5455.2
5417.67
5517.96
5545.21
5575.75
5613.45
5548.35
4040.04
768.779
57.535
1.79331
-0.0143827
-0.034673
-0.0256215
5486.59
5450.49
5415.51
5396.65
5508.08
5531.79
5559.66
5431.9
3595.83
535.236
33.0738
0.699942
-0.00511203
0.00344038
-0.0237762
5476.61
5442.92
5411.4
5395.09
5384.37
5494.21
5513.15
5313.91
3176.4
372.574
19.6491
0.342627
0.0260818
0.0234535
-0.023443
5462.76
5433.27
5404.8
5392.08
5383
5380.47
5473.54
5203.26
2807.01
261.791
11.8771
0.202521
0.0551725
0.0297867
-0.0166614
5440.63
5420.16
5396.38
5387.3
5380.7
5379.79
5378.84
5102.58
2501.67
189.224
7.2938
0.142302
0.0933229
0.0297947
-0.00425001
5019.98
5396.17
5384.95
5381.19
5376.72
5379.48
5377.67
5375.04
2260.9
145.069
4.70146
0.144962
0.130028
0.0196652
0.00995007
2076.91
4915.3
5359.05
5372.82
5372.09
5376.87
5377.07
5375.55
5363.23
119.608
3.29935
0.156054
0.131954
0.00645881
0.0286795
103.246
1843.28
4824.52
5348.37
5365.15
5374.99
5375.32
5374.81
5358.78
5359.12
2.46577
0.164852
0.120438
0.0189193
0.0489128
1.70051
85.5151
1675.47
4814.02
5338.71
5370.75
5375.71
5375.57
5359.14
5358.9
5297.12
0.161864
0.114647
0.0439527
0.0456995
0.155092
1.05394
82.5204
1668.55
4792.05
5343.73
5372.47
5377.52
5355.1
5339.6
5272.81
5411.74
0.110152
0.0532244
0.035567
0.105664
0.146031
0.966772
94.1789
1671.96
4816.28
5331.5
5378.98
5357.48
5304.21
5275.99
5417.35
4894.6
5067.9
0.0577567
0.0310082
0.0597595
0.100266
0.14581
1.21023
110.189
1760.16
4801.79
5320.1
5361.66
5291.11
5237.49
5338.48
4992.66
4617.94
4705.9
4750.12
0.0272093
0.024157
0.061143
0.10266
0.167031
1.73573
128.524
1848.33
4806.01
5297.48
5306.95
5216.48
5217.63
5058.96
4824.66
4447.43
4444.92
4500.58
4510.66
0.0209713
0.0644408
0.124604
0.241649
2.37443
151.238
1956.63
4682.68
5297.01
5203.11
5166.75
5156.78
5036.01
4643.29
4271.96
4262.81
4279.58
4332.83
4355.72
0.0219107
0.0792254
0.184963
0.36844
3.28283
165.344
2024.25
4588.21
5268.02
5225.84
5281.98
5208.12
4872.09
4475.11
4088.3
4048.25
4062.44
4120.8
4210.67
4302.17
0.0279115
0.118941
0.27622
0.611523
5.55728
260.356
1603.96
5026.54
5378.91
5397.26
5354.45
5124.46
4715.97
4318.04
3868.47
3799.64
3796.74
3874.26
4005.37
4168.39
4356.28
0.0428855
0.176275
0.403045
1.66284
33.7117
240.201
1522.43
5504.59
5517.16
5495.6
5349.49
4986.21
4563.13
4141.11
2780.18
3506.33
2784.61
3010.92
3013.74
3470.42
3543.52
3733.91
3953.38
4208.02
4509.59
0.0633103
0.220944
0.574625
12.77
71.5673
113.548
2932.43
5643.8
5641
5551.81
5265.07
4844.28
4425.07
3937.62
2548.4
2677.21
3068.57
2553.47
2313.51
2317.46
2679.54
2871.65
2873.27
3123.42
3346.15
3669.58
3990.66
4351.54
4780.02
0.0709926
0.11908
4.7747
24.0889
71.2528
143.437
4007.85
5741.24
5701.96
5495.33
5130.81
4723.38
4278.23
3020.25
3018.38
3221.13
3222.31
2437.76
2578.28
2613.02
2693.81
2440.5
2177.2
2179.56
2570.37
2808.67
2802.49
2844.08
3244.6
3698.38
4124.97
4603.13
5169.06
-0.00664659
0.849297
10.0001
14.3607
25.4306
274.732
4549.01
5798.02
5679.47
5381.43
5014.29
4601.85
3428.71
3429.97
3650.08
3651.48
2918.28
2915.32
3142.06
3137.71
2320.8
2297.22
2037.46
2162.9
2177.04
2213.19
2059.2
1374.93
1375.77
1730.03
1727.25
2313.26
2044.16
2037.71
2294.6
2039.47
2160.32
2175.68
2437.73
2388.82
2601.47
2301.92
2434.71
2386.53
2597.45
2298.51
2666.3
3249.97
3833.5
4361.42
4962.38
5653.74
-0.167905
2.83426
5.83762
1.07374
20.6143
428.586
5262.07
5784.56
5565.95
5258.2
4885.66
3865.86
3866.6
4064.68
4065.18
3362.1
3356.3
3587.05
3579.89
2487.88
2382.04
2573.37
2585.19
2699.13
2479.38
2380.35
2490.86
2574
2587.08
2699.32
2478.61
2823.36
2931.54
2707.88
2824.09
2823.86
2931.1
2709.15
2823.99
1880.53
1893.57
2020.03
1754.02
2212.74
2055.68
2076.07
2185.86
1929.63
1484.2
607.786
609.368
980.101
981.223
1170.39
1165.13
1557.98
1553.96
1878.46
1895.54
2017.78
1752.98
1746.04
1400.05
1626.51
1610.27
1743.32
1402.6
1623.54
1608.28
2213.41
2058.75
2076.59
2189.58
2352.22
2304.69
2352.13
2305.73
2626.83
3379.24
4064.49
4702.91
5421.11
6173.75
-0.206542
2.37044
0.257967
0.48216
23.2877
605.121
5092.08
5683.16
5441.41
5144.07
4235.51
4235.73
4436.58
4437.1
3812.66
3805.67
4022.25
4015.04
2941.28
3049.06
3055.85
3162.4
2942.65
3048.88
3061.77
3162.89
3299.05
3404.2
3178.36
3282.71
3303.82
3404.08
3182.84
3282.84
2398.44
2518.7
2562.01
2441.13
2619.72
2652.74
2400.22
2523.75
2441.72
2563.33
2622.22
2653.55
2856
2885.85
2750.08
2783.35
2858.56
2886.62
2751.71
2783.99
1797.61
1928.38
1950.48
1770.32
2186.3
2026.97
2043.14
2164.97
1809.74
1043.24
-63.9378
-62.8289
260.718
261.236
366.176
357.34
745.07
738.499
614.252
739.225
811.859
935.355
617.661
739.873
815.382
935.964
1212.61
1433.79
1296.11
1014.14
1132.88
1542.84
1216.53
1433.23
1296.76
1017.1
1133.36
1542.46
1798.27
1930.86
1950.85
1773.6
1643.48
1601.15
1643.89
1602.87
2186.16
2027.08
2043.49
2163.33
2313.57
2275.17
2313.82
2275.97
2738.52
3630.95
4385.19
5124.89
5938.89
6633.99
-0.120631
0.0865378
0.147857
0.366656
26.6876
383.634
4542.81
5539.47
5297.95
4604.21
4604.93
4759.09
4759.37
4193.51
4190.4
4381.22
4380.58
3415.93
3520.47
3524.42
3629.32
3418.34
3519.72
3529.07
3628.92
3746.53
3895.42
3642.93
3751.07
3747.88
3893.64
3645.68
3750.09
2978.53
3003.93
3081.25
3099.92
2981.28
3004.9
3083.69
3100.99
3330.11
3349.36
3209.7
3228.98
3333.61
3350.53
3211.55
3230.05
1763.67
1906.99
1924.73
1735.26
1893.8
834.581
-540.935
-539.302
-342.082
-341.314
-348.814
-359.633
0.533877
-8.58418
-248.822
-143.981
-38.6174
89.3833
-242.303
-143.158
-31.1708
90.1603
393.453
505.074
169.967
289.17
394.827
505.864
178.052
290.407
627.86
652.962
836.963
863.872
632.633
654.841
839.683
864.927
1388.38
1171.08
1216.34
1432.43
1014.29
1045.13
1391.61
1172.94
1216.84
1433.15
1015.85
1045.71
1763.57
1906.44
1924.49
1734.61
1591.68
1548.89
1592.36
1551.02
3005.47
3963.93
4774.3
5608.11
6421.81
6973.95
-0.400186
-0.063434
0.155497
0.323433
25.2278
234.94
3472.53
5282.61
5119.45
4544.08
4544.19
4670.85
4671.39
4131.03
4129.38
4330.22
4327.41
3450.19
3467.92
3557.33
3578.32
3451.61
3468.61
3558.72
3578.9
3740.38
3808.4
3657.96
3686.94
3740.91
3808.4
3658.78
3687.3
3338.93
3371.8
3343.09
3373.01
2179.38
916.076
-779.175
-777.548
-697.504
-696.193
-844.465
-848.916
-609.552
-617.694
-964.995
-789.483
-801.602
-675.373
-968.977
-793.556
-798.92
-676.332
-434.19
-331.312
-609.533
-483.647
-430.423
-331.115
-604.021
-483.613
-206.966
-176.168
8.28255
39.2066
-201.471
-174.109
12.8802
41.0786
410.075
432.284
192.556
214.258
414.291
434.561
198.515
216.601
3383.03
4353.82
5212.23
6098.56
6787.91
7209.9
-0.302045
-0.0301044
0.170581
0.332847
14.0146
138.629
2404.7
4929.36
4775.72
4776.85
4899.02
4898.94
4503.04
4499.28
4633.68
4635.66
4016.28
3841.08
3901.88
3941.14
4015.56
3839.66
3901.41
3939.59
4122.71
4145.72
4228.64
4043.93
4122.35
4148.93
4228.59
4043.91
3438.99
3464.27
3546.09
3568.02
3441.54
3465.21
3547.85
3568.7
3749.4
3772.41
3640.78
3663.38
3752.17
3773.33
3641.96
3663.94
2623.02
1242.34
-134.42
-1205.03
-1201.58
-1043.04
-1046.83
-1080.91
-1083.58
-837.534
-845.835
-953.906
-865.639
-798.873
-726.341
-954.026
-866.777
-793.532
-724.828
-417.495
-389.331
-595.416
-561.262
-413.611
-387.733
-593.508
-560.386
-290.611
-252.549
-281.803
-249.798
3820.43
4767.93
5685.56
6483.33
7046.21
7269.47
-0.207405
0.0222832
0.189449
0.367907
9.01722
97.0923
1463.13
4132.11
4728.32
4724.74
4779.48
4776.12
4231.16
4309.85
4420.94
4306.08
4232.8
4308.89
4418.92
4305.3
4590.97
4588.6
3967.16
3861.23
3879.29
3957.15
3967.28
3864.16
3880.17
3957.09
4067.79
4151.06
4169.95
4056.67
4067.94
4152.85
4170.6
4057.33
3767.99
3791.57
3773.03
3792.98
3151.2
1753.89
299.986
-1361.64
-1362.44
-1483.64
-1476.07
-1472.76
-1468.26
-1288.8
-1303.1
-1234.28
-1486.5
-1356.47
-1349.69
-1233.44
-1474.83
-1353.76
-1345.52
-1114.07
-1112.05
-1037.06
-1222.67
-1114.8
-1114.57
-1038.38
-1223.03
-960.472
-911.927
-803.871
-758.4
-957.097
-911.289
-800.307
-757.024
-456.246
-422.572
-625.783
-592.646
-450.338
-420.587
-621.847
-591.243
4258.35
5215.9
6092.25
6739.3
7126.01
-0.129136
0.0630392
0.241145
0.465866
4.98438
149.006
642.076
3662.61
3660.91
2598.73
2597.02
4521.49
4587.67
4578.99
4679.64
4524.48
4587.68
4586.24
4680.31
4760.16
4761.81
4230.89
4254.52
4345.54
4287.38
4231.59
4254.62
4345.2
4288.13
4449.54
4510.37
4365.95
4413.63
4448
4508.83
4363.86
4412.27
4075.72
4147.56
4163.55
4060.47
4076.41
4150.35
4164.36
4063.73
3671.68
2393.08
932.675
37.202
-1289.05
-1299.92
-1475.53
-1478.09
-1445.87
-1453.41
-1598.64
-1450.45
-1523.65
-1714.77
-1595.69
-1449.78
-1528.46
-1725.75
-1216.69
-1417.25
-1341.39
-1276.47
-1215.86
-1410.25
-1338.87
-1273.87
-1096.28
-1084.68
-1043
-1151.99
-1096.04
-1082.74
-1042.65
-1151.85
-976.153
-924.395
-970.087
-922.935
4692.46
5630.5
6366.58
6851.25
-0.071335
0.105378
0.310939
0.525635
11.4535
133.046
464.882
466.636
160.453
160.267
3013.55
3005.1
1573.73
1576.32
4488.05
4528.14
4534.81
4606.72
4488.41
4528.36
4537.22
4607.62
4603.76
3691.14
4552.58
4037.36
4605.45
3681.01
4548.02
4034.8
4207.17
4222.3
4304.91
4287.21
4207.17
4222.35
4304.61
4286.54
4437.84
4455.12
4366.74
4378.16
4436.68
4454.52
4364.95
4377.48
4142.52
3047.27
1717.18
708.097
-943.883
-940.546
-1036.79
-1038.74
-1182.8
-1183.34
-1795.39
-1640.79
-1877.48
-1583.73
-1784.51
-1635.9
-1863.82
-1579.57
-1732.68
-1627.75
-1651.12
-1579.21
-1686.9
-1492.85
-1716.65
-1624.18
-1643.14
-1577.74
-1681.82
-1493.04
-1544.34
-1428.49
-1536.89
-1426.04
-1220.17
-1375.67
-1317.12
-1279.05
-1218.53
-1365.7
-1314.1
-1273.91
5121.38
5934.81
6500.39
-0.0368587
0.149916
0.378643
0.453912
8.66255
63.631
414.221
412.451
123.354
122.838
2037.09
3406.21
2829.08
1595.46
2566.17
4445.28
3397.68
2068.25
4440.69
2956
1641.07
2671.74
813.914
1015.64
1064.34
1450.47
802.929
952.729
1076.41
1455.49
4457.35
4509.25
4489.82
4576.53
4458.96
4509.89
4492.6
4577.39
4532.64
3606.83
4535.24
3601.13
4311.45
4296.76
4311.05
4296.14
4412.9
4448.92
4413.8
4449.15
4589.26
3617.88
2527.93
1483.44
-516.291
-510.838
-792.814
-793.779
-714.507
-720.714
-857.331
-856.822
-1368.42
-1644.54
-1294.15
-1544.97
-1444.02
-1691.46
-1364.27
-1624.8
-1289.3
-1535.42
-1441.32
-1683.37
-1616.63
-1523.7
-1609.98
-1521.1
-1562.29
-1495.94
-1521.49
-1546.26
-1468.97
-1481.26
-1552.54
-1493.1
-1515.74
-1537.35
-1466.73
-1478.89
-1462.07
-1403.39
-1453.19
-1400.32
5456.85
6085.31
-0.0123546
0.197502
0.410017
0.664623
3.00446
26.358
26.4287
8.94308
8.94244
335.153
331.176
73.1741
73.068
2819.89
1383.81
2725.08
3911.36
1134.53
2132.24
2823.54
1444.15
3982.87
2984.78
1173.75
2363.94
763.662
1093.59
1126.84
1827.66
740.721
1036.52
1155.03
1856.94
4170.2
4563.52
4170.84
4565.23
4956.28
4108.57
3226.76
2380.28
1766.87
-357.829
-362.34
-551.246
-566.273
-1362.42
-922.089
-1265.92
-1021.06
-1341.37
-917.976
-1251.98
-1016.1
-1322.48
-1464.5
-1122.49
-1297.44
-1080.28
-1198.67
-1309.23
-1451.62
-1117.62
-1275.95
-1073.98
-1194.34
-1274.62
-1409.69
-1374.3
-1484.24
-1271.57
-1406.3
-1366.19
-1475.97
-1479.61
-1434.08
-1471.73
-1430.96
-1487.69
-1441.28
-1480.44
-1436.57
-1476.2
-1437.82
-1472.11
-1433.69
5617.06
0.00847943
0.242109
0.64854
1.02778
3.99615
12.3981
12.5875
5.93607
5.92961
186.196
303.94
395.021
136.191
183.894
286.09
346.743
130.813
40.7383
40.9213
807.232
1068.1
1108
1731.88
783.217
1105.29
1127.89
1766.93
5131.68
4493.82
3794.9
3144.16
2658.15
435.764
446.242
53.6786
52.3632
-179.891
-179.138
-327.992
-335.418
-1140.61
-840.244
-1030.42
-945.047
-1127.84
-837.4
-1022.77
-942.038
-1304.38
-1148.74
-1169.17
-1042.32
-1071.12
-984.269
-1288.97
-1141.36
-1039.99
-1163.9
-1064.72
-981.769
-1331.73
-1384.39
-1328.18
-1374.63
0.026641
0.356158
1.04041
2.25305
6.87294
6.78499
6.3225
6.27364
8.62612
8.60854
7.14662
7.05869
130.379
253.663
379.259
88.545
124.615
237.478
359.524
82.6321
15.7166
19.5214
29.4443
34.7273
15.8013
19.3632
29.058
33.8717
553.12
490.599
532.363
563.689
4692.05
4209.03
3768.38
3435.67
3317.08
655.331
653.471
467.57
451.333
208.661
196.684
-495.627
-919.614
-677.405
-989.994
-497.433
-920.519
-676.874
-992.236
-892.117
-813.848
-911.716
-860.128
-878.565
-810.108
-903.974
-857.342
0.0618676
0.538398
1.33533
3.49801
8.54404
8.86123
7.15009
7.17526
10.6239
12.3512
9.23289
8.11409
8.34376
7.40128
10.4127
12.3867
9.26583
8.12596
8.21977
7.54015
8.86103
9.26611
75.7601
153.397
153.521
63.1713
77.7664
149.281
165.742
62.7017
21.9807
24.3765
21.518
24.9552
4419.88
4220.92
4077.66
4079.53
1582.37
1595.49
1120.64
1120.25
813.853
827.402
839.638
823.36
-612.527
-60.6724
-507.067
-247.425
-760.289
-407.243
-577.253
-54.6734
-484.588
-239.186
-758.007
-406.155
-668.162
-595.546
-659.772
-592.552
-718.342
-685.508
-703.518
-681.413
0.0322115
0.736875
1.66412
5.58132
5.42547
4.07391
4.05087
10.2233
10.6654
8.3316
8.26286
7.93884
7.92676
8.42759
8.06621
7.88482
7.28501
7.9433
7.95205
7.92536
7.88328
7.87344
7.24802
7.17457
12.0686
7.61489
7.75271
8.37826
12.5493
7.76106
8.01722
4433.66
4533.77
4712.48
4979.57
1822.14
1819.21
1588.97
1567.59
1349.96
1342.78
-373.395
41.8596
507.315
-57.4564
260.693
-86.3725
503.611
-51.1316
262.709
-88.3095
-354.789
47.5205
-274.698
-499.165
-144.569
-392.751
-261.432
-478.023
-139.574
-385.701
-546.879
-489.836
-529.847
-485.027
-0.0737939
0.81926
1.81523
5.76209
5.52296
4.12669
4.11562
7.1753
12.6033
12.8232
8.80683
13.1533
8.53083
8.61486
12.8463
12.8094
9.88669
13.1485
8.95235
8.94169
8.32467
6.58144
6.85053
6.59317
6.70046
7.1091
8.5101
7.61818
8.56552
4758.34
5155.58
5575.9
2711.57
2717.69
2353.19
2349.46
2127.74
2126.73
1942.45
1932.42
294.627
964.992
383.083
715.968
127.51
543.552
329.348
132.205
545.476
972.207
400.41
722.124
-79.3412
118.636
188.631
338.866
195.701
-64.0869
341.673
123.157
-0.48219
3.26352
180.521
6.10953
6.09359
5.02934
5.02264
7.65613
13.4182
12.9644
8.13362
13.1631
7.40783
9.44135
13.4612
12.8547
9.18241
13.1565
7.57685
6.97635
7.07515
7.38146
10.9876
6.61664
6.96432
7.08377
10.1033
6.98765
9.6497
7.57194
9.9131
5360.66
5999.35
6529.48
3011.51
3008.06
2821.91
2802.17
2556.57
2554.29
507.414
944.664
1502.85
804.587
1170.81
799.609
527.35
951.177
1501.63
804.599
1172.14
797.04
610.874
405.098
747.113
559.815
422.978
565.82
618.133
750.562
2.40046
185.057
384.419
236.927
256.909
443.301
219.297
238.981
153.039
6.16331
7.04525
134.939
6.06439
6.97591
7.3564
13.3958
13.132
6.43905
10.8546
6.84478
8.69687
13.4373
13.0042
6.87466
10.9283
7.00473
6.27007
9.58543
6.14415
9.21427
6176.44
6899.4
7389.35
3331.25
3333.52
3112.2
3103.22
1099.21
1882.82
1216.9
1624.46
1000.34
1450.66
1137.53
1000.15
1451.95
1892.69
1238.49
1632.58
816.42
932.493
1098.93
1212.07
836.507
938.992
1112.31
1216.75
749.397
849.811
761.29
854.053
70.4807
51.8169
588.272
34.1193
695.402
29.2657
7.18492
3.43353
733.297
49.4344
90.6237
6.37865
6.35464
1056.08
714.358
881.516
49.7645
727.244
92.9306
6.12879
6.13491
914.676
643.605
970.938
10.6513
6.099
10.1182
6.0795
6.65827
11.5279
6.50585
11.382
7053.04
7713.45
4175.6
3521.86
3503.96
4189.19
3859.02
3859.56
3311.42
1299.22
1844.14
3311.57
1330.03
1855.12
1286.81
1490.38
1409.56
1633.53
1306.97
1416.93
1504.76
1640.24
1019.55
1085.33
1248.69
1329.61
1039.77
1090.99
1271.72
1336.3
3.73039
0.8229
74.0028
737.018
673.039
3.47287
65.6737
1041.48
670.064
3.48703
3.04183
3.05249
676.184
854.854
6.67786
17.5187
963.089
1216.85
678.648
6.52864
852.274
17.294
893.665
1217.18
10.8647
6.06946
10.7743
5.93304
7842.43
8334.29
4281.69
3651.89
3651.33
4284.39
4172.1
4158.6
1668.67
1450.74
1973.55
1382.11
1902.07
2151.37
1575.61
2432.75
1690.46
1483.37
1986.62
1415.19
1914.21
2160.41
1619.05
2444.21
1443.61
1574.14
1492.88
1718.6
1450.19
1496.5
1592.57
1726.44
-0.39772
2.55469
2.83806
2.85286
2.55567
2.49807
2.48755
4.70214
202.126
42.514
35.0367
207.999
4.38034
5.3009
5.27098
2.9637
4.40254
4.0621
4.68732
157.082
41.7956
38.5219
215.056
4.37983
5.27898
5.25081
2.96955
4.38105
4.05738
906.489
325.258
1196.08
434.93
905.948
326.11
1195.61
415.192
8458.23
8725.65
4404.69
3879.08
2389.25
1798.45
3880.24
2393.4
1807.76
4405.83
4207.39
4186.89
1699.25
1973.36
1596.16
1932.99
1808.5
2178.34
1726.56
1980.16
1626.17
1819.82
1942.71
2180.51
1532.53
1614.92
1544.07
1619.78
-0.0550596
2.56994
2.32038
2.58979
2.32313
2.38609
2.37418
73.8096
8.22139
8.424
65.925
4.4662
4.3792
3.42653
3.54879
3.26816
4.04268
3.72657
3.19258
3.5878
3.15943
73.704
8.19058
67.7481
8.44356
4.44205
4.36941
3.53098
3.41309
3.26133
4.01683
3.71888
3.1866
3.59063
3.16214
8793.47
4621.49
4423.46
4399.24
4644.72
4508.15
4499.25
1935.98
2463.88
1921.05
2510.97
1873.35
2790.37
2075.18
2609.39
1979.02
2465.64
1934.22
2515.86
1874.96
2800.08
2109.43
2621.07
4119.55
2108.75
2738.13
4113.04
2158.03
2754.81
1884.89
2041.18
2056.77
2285.96
1902.41
2032.44
2061.57
2283.14
-0.0722289
2.0871
2.86675
3.24212
2.11628
2.10831
2.86912
3.24618
2.11914
2.25056
2.23688
4.71969
4.69568
3.86786
3.7204
3.16097
3.07387
3.25291
3.12761
3.05633
2.8876
4.69295
4.68469
3.8525
3.71381
3.13366
3.2372
3.06787
3.12048
3.04621
2.88407
8953.39
4595.66
4350.39
4327.11
4610.15
4499.32
4488.03
2041.02
2134.05
2385.4
2400.33
2320.36
2601.49
2043.62
2158.06
2383.99
2407.96
2346.34
2611.04
2288.64
2075.75
2603.32
2039
2616.67
2751.83
2125.74
2722.65
2306.61
2108.57
2616.71
2099.68
2636.29
2756.1
2131.18
2708.34
-0.119635
2.17928
2.16273
1.85736
2.66981
2.74887
2.45838
2.98143
2.03286
1.87777
2.67203
2.76147
2.46246
2.98178
2.03009
2.95597
2.78648
2.85239
2.89467
2.73392
2.67178
2.93419
2.76985
2.84054
2.88439
2.7237
2.66542
9035.43
4545.88
4366.41
2806.97
2311.13
4320.06
2804.94
2306.48
4568.23
4503.26
4494.56
2264.16
2490.3
2287.84
2532.14
2285.22
2496.93
2310.46
2541.61
2356.41
2548.96
2268.86
2562.46
2524.5
2819.79
2378.1
2535.98
2285.26
2531.28
2570.55
2815.22
-0.122252
2.19679
2.20117
2.16746
2.16763
1.74114
2.27946
2.63652
2.3386
2.57222
2.71374
2.53667
2.1105
1.75394
2.27826
2.63623
2.34006
2.56426
2.69505
2.52648
2.07146
2.57604
2.55967
2.5576
2.54292
8972.29
4520.52
4545.2
4320.35
2628.3
2181.79
2620.93
2232.81
4292.23
2632.64
2184.26
2618.2
2233.75
4505.95
4497.74
2464.14
2338.02
2539.84
2620.72
2539.88
2742.86
2501.64
2356.04
2530.04
2546.22
2629.4
2739.71
-0.132294
2.15179
2.14747
2.13463
2.1292
2.28173
2.19851
1.86243
2.27749
2.56503
2.27019
2.56301
2.40623
2.6215
2.44048
2.56102
2.48431
2.52677
1.83331
2.27995
2.56469
2.2692
2.57082
2.39676
2.5953
2.42902
2.54057
2.46066
2.51245
8997.62
4467.08
4445.2
4499.09
4478.91
4324.24
2573.95
2124.91
2604.7
2101.01
2470.55
2704.84
4290.52
2574.97
2130.85
2593.09
2102.3
2477.25
2706.57
4508.77
4503.02
2470.79
2630.3
2515.66
2639.85
-0.0773357
2.1478
2.16195
2.13032
2.14754
2.05459
2.06764
2.04868
2.06324
2.32099
2.23864
2.31523
2.58709
2.27609
2.64449
2.34646
2.57806
2.29406
2.56033
2.42682
2.42206
2.46591
2.40206
2.31594
2.58193
2.2814
2.63017
2.33892
2.57202
2.28601
2.55405
2.41609
2.39632
2.45204
2.38351
8882.92
4471.67
4499.25
4499.97
4520.88
4466.9
4466.3
4322.14
2562.8
2075.29
2550.92
2091.89
2689.01
2405.42
2690
2366.9
2428.36
2608.43
4294.51
2576.55
2080.25
2540.48
2102.3
2690.8
2422.53
2692.79
2379.6
2466.85
2618.54
-0.0460025
2.14234
2.1238
2.13124
2.10956
2.09879
2.11597
2.09371
2.11303
2.11248
1.97079
2.06719
1.97785
2.50753
2.93245
2.84117
2.90245
2.44427
2.86597
2.62419
2.82678
2.2502
2.51989
2.24012
2.54007
2.25541
2.5237
2.23722
2.54511
8593.6
4470.15
4405.97
4484.98
4420.89
4430.8
4450.04
4425.39
4438.81
4310.22
4286.67
2564.76
2106.66
2547.58
2176.76
2698.71
2356.15
2661.6
2397.48
2586.09
2353.09
2585.99
2302.13
2565.51
2131.2
2552.3
2181.7
2696.09
2375.28
2665.89
2391.93
2592.81
2390.66
2595.72
2327.46
0.0837836
-0.0113866
2.1317
2.14229
2.12997
2.13628
2.01896
2.05637
2.03341
2.072
2.65283
2.82753
2.78537
2.85806
2.62392
2.84957
2.63477
2.81327
2.63271
2.80596
2.67503
2.8215
2.62061
2.84819
2.64005
2.80556
2.32562
2.73475
2.4196
2.64958
2.32605
2.71811
2.4121
2.63601
8224.65
4382.77
4346.43
4394.97
4362.91
4432.04
4396.38
4417.99
4385.46
4219.34
4212.59
4195.43
4188.76
2606.47
2208.43
2609.2
2261.88
2605.3
2213.34
2607.13
2255.94
2719.57
2361.05
2667.42
2428.11
2720.98
2390.28
2675.49
2438.53
0.0905499
2.1751
2.15151
2.18407
2.15299
0.0296056
2.08858
2.12889
2.11166
2.14479
2.75574
2.90646
2.70979
2.95174
2.80468
3.01789
2.80271
3.00498
2.75884
2.90673
2.7131
2.95561
2.8085
3.02237
2.80687
3.01005
2.55187
2.74801
2.501
2.77626
2.56385
2.80744
2.59493
2.77121
2.53201
2.7493
2.47593
2.76623
2.56324
2.8036
2.59681
2.76631
7764.2
8137.85
4310.57
4188.72
4300.36
4180.67
4252.81
4254.41
4222.64
4219.18
2660.17
2131.25
2616.03
2139.44
2670.08
2106.1
2645.26
2123.41
2654.8
2140.14
2611.61
2136.46
2667.68
2122.66
2646.1
2120.62
2812.33
2450.06
2782.77
2506.94
2810.12
2461.45
2788.92
2507.54
0.117855
2.16461
2.13076
2.16232
2.1204
2.23822
2.19297
2.24604
2.21372
0.0327916
2.85764
3.03094
2.82866
3.07448
2.8422
3.09279
2.75135
3.12321
2.86331
3.04729
2.83572
3.08739
2.8466
3.0975
2.75646
3.13377
2.68563
2.86299
2.65526
2.88324
2.73364
2.93323
2.7751
2.92284
2.68748
2.85924
2.65568
2.88239
2.73584
2.93943
2.77812
2.92307
7124.1
7653.26
4023.47
3963.73
3996.35
3962.43
4172.94
4038.48
4139.81
4006.64
2602.99
2144.52
2627.4
2145.3
2553.85
2037.04
2481.13
2123.08
2600.96
2157.08
2626.98
2146.41
2548.14
2070.02
2499.67
2120.64
2734.88
2361.78
2734.44
2383.6
2703.48
2358.33
2635.87
2391.01
2734.31
2382.82
2741.4
2387.54
2700.06
2367.59
2636.63
2388.53
0.293723
0.105198
2.22731
2.2112
2.23566
2.21343
3.10727
3.06443
2.9716
3.19727
2.99144
2.82432
3.17891
2.84484
3.23035
2.94842
3.1029
3.07198
2.96939
3.18271
2.98756
2.82777
3.17596
2.84662
3.21919
2.94586
0.0313815
2.85979
2.96254
2.82181
3.00586
2.87302
3.09697
2.86578
2.97559
2.82689
3.02015
2.87894
3.11131
2.79049
3.02622
2.8326
3.01753
2.78869
3.01143
2.82881
3.00829
6336.09
6983.64
3811.65
3656.89
3813.92
3675.14
3730.24
3749.11
3723.29
3731.82
2473.68
2040.98
2469.74
2058.47
2557.62
1819.44
2526.34
2051.77
2457.26
2046.08
2469.3
2044.26
2544.32
1848.57
2541.45
2039.38
2659.07
2371.59
2628.34
2349.18
2620.56
2325.95
2572.71
2354.23
2657.99
2377.62
2630.19
2346.89
2617.98
2336.65
2575.36
2353.45
0.248969
2.26645
2.18968
2.27777
2.19918
0.112206
2.3603
2.29041
2.36815
2.30288
3.1116
3.11291
3.00376
2.97784
3.13994
2.99687
3.16661
2.94232
3.20783
2.99611
3.10499
3.11194
3.00165
2.97606
3.13475
2.99365
3.16851
2.94223
3.20856
2.99496
0.0218485
2.92669
3.06056
2.88012
3.08605
2.9795
3.14657
2.92502
3.04945
2.87771
3.07777
2.97937
3.14464
5492.6
6180.44
6684.82
3666.16
3333.96
3657.75
3339.07
1831.24
2059.07
2336.36
1743.3
2319.06
2572.5
1586.32
2430.66
1787.28
2387.25
2077.16
1886.27
2357.31
1815.83
2342.35
2577.76
1629.68
2440.22
1841.95
2405.54
2540.66
2332.21
2540.39
2353.73
2557.54
2312.76
2538.27
2338.48
2541.88
2350.53
2553.91
2298.5
2531.38
2330.64
2504.51
2324.03
2529.33
2355.44
2508.54
2336.86
0.204516
2.12623
2.05761
2.13197
2.05134
2.40139
2.36212
2.40548
2.3753
0.0660578
3.01466
3.18057
3.04762
3.21996
2.9596
3.18073
2.86759
3.22952
3.01488
3.17992
3.04716
3.22076
2.95954
3.17899
2.86881
3.22935
3.13702
2.99389
3.18407
3.04554
3.25456
3.04632
3.12584
2.9901
3.17823
3.04404
3.24969
3.04425
0.00920646
4771.54
5305.4
5838.17
3018.57
2800.81
3001.98
2802.95
3377.86
3145.08
3380.73
3146.39
2143.49
1983.21
2225.13
2354.63
1894.6
2238.72
1712.54
2319.11
1931.51
2280.63
2203.75
2032.67
2372.97
2242.76
1927.87
2252.86
1747.67
2331.25
1969.32
2294.4
2441.11
2335.25
2470.16
2331.58
2392.44
2274.43
2448.44
2357.45
2474.42
2366.21
2402.96
2311.96
0.379982
0.113398
2.34969
2.26212
2.37602
2.26871
3.20459
3.21299
3.06601
3.20741
2.99658
2.95472
3.13728
2.78944
3.1965
2.90198
3.19313
3.21453
3.06038
3.19419
2.99044
2.95381
3.13706
2.78931
3.1862
2.89751
0.0158085
3.05011
3.26703
3.04573
3.24305
3.0246
3.27797
3.0516
3.26722
3.04536
3.24754
3.02507
3.2789
-0.0116364
4256.59
4545.59
4933.47
2470.16
2181.72
2468.18
2188.51
2807.29
2589.6
2805.66
2583.5
2089.62
1562.38
2148.14
1518.9
2012.99
1200.41
2039.18
1438.56
2092.99
1577.86
2154.27
1525.4
2017.58
1222.14
2041.79
1451.23
2109.24
2307.03
1761.8
2086.22
1845.92
2124.76
2175.76
2327.56
1785.59
2095.23
1876.75
2135.69
0.848796
2.34616
2.46061
2.342
2.40926
0.0751149
2.49369
2.49878
2.50557
2.50221
3.26236
3.31668
3.08893
3.086
3.2999
3.09361
3.24685
2.94203
3.31455
3.06316
3.2429
3.3035
3.08201
3.07902
3.29002
3.09063
3.25418
2.94475
3.30695
3.06036
7.63852e-05
3.08295
3.32936
3.07933
3.31739
-0.0418997
4026.98
4044.08
4181.88
4407.51
2287.39
1852.19
2270.79
1850.22
1077.88
1289.13
1584.5
976.837
1491.47
1829.13
642.386
1415.79
892.726
1421.89
1304.14
1098.92
1593.03
1002.4
1501.32
1835.48
680.015
1425.88
919.971
1431.8
1955.14
1677.53
2017.11
1684.89
1839.93
1582.35
1955.66
1686.74
2019.29
1684.02
1843.3
1591.11
3.29871
0.207891
3.27457
6.23489
3.28787
6.14215
0.0552479
2.89263
3.27026
2.99652
3.25361
2.76602
2.89462
3.27333
2.99656
3.25711
2.78696
3.35089
3.18556
3.29489
3.13412
3.33692
3.1775
3.3393
3.17812
3.28044
3.12821
3.32631
3.17252
-0.0069047
-0.0645464
4092.69
3827.53
3684.1
3640.46
1389.3
1190.54
1387.12
1203.24
2027.77
1646.93
2024.72
1648.19
1327.14
1211.68
1461.45
1580.19
1139.39
1330.6
732.843
1169.17
1025.83
1214.53
1349.8