/*--------------------------------*- C++ -*----------------------------------*\
| =========                 |                                                 |
| \\      /  F ield         | OpenFOAM: The Open Source CFD Toolbox           |
|  \\    /   O peration     | Version:  5.x                                   |
|   \\  /    A nd           | Web:      www.OpenFOAM.org                      |
|    \\/     M anipulation  |                                                 |
\*---------------------------------------------------------------------------*/
FoamFile
{
    version     2.0;
    format      ascii;
    class       surfaceScalarField;
    location    "2.1";
    object      phi;
}
// * * * * * * * * * * * * * * * * * * * * * * * * * * * * * * * * * * * * * //

dimensions      [0 3 -1 0 0 0 0];

internalField   nonuniform List<scalar> 
30582
(
0.000202166
-4.00633e-06
0.000205924
-3.758e-06
0.000202055
-7.87581e-06
0.000205886
3.79671e-08
0.000205779
-7.48235e-06
0.000201255
-1.08904e-05
0.00020065
5.23619e-06
0.000205553
2.64045e-07
0.000205174
-1.14017e-05
0.000200033
-1.26034e-05
0.000192632
8.01775e-06
0.000200016
1.07734e-05
0.000205701
-2.62546e-07
0.000203186
-1.45543e-05
0.000198105
-1.22851e-05
0.000183171
9.46166e-06
0.000192023
1.60108e-05
0.000200573
1.59011e-05
0.000202072
8.51493e-07
0.000201607
-1.80563e-05
0.000194042
-7.76758e-06
0.000173508
9.66232e-06
0.000182967
1.85175e-05
0.000192898
2.36859e-05
0.000197146
2.08267e-05
0.000201799
6.60077e-07
0.000195435
-1.94495e-05
0.000191161
-2.09785e-07
0.000162618
1.08901e-05
0.000173602
1.90268e-05
0.000183783
2.76323e-05
0.000190004
3.08284e-05
0.000197667
2.4959e-05
0.000192557
3.53885e-06
0.000194133
-2.24214e-05
0.000175131
2.35621e-05
0.000149875
1.27429e-05
0.000163046
2.14463e-05
0.000174456
2.83548e-05
0.000182121
3.55154e-05
0.000191626
3.68688e-05
0.000189988
2.75272e-05
0.000193505
4.16724e-06
0.000171038
-1.83291e-05
9.32901e-05
-9.12219e-05
0.000134435
1.544e-05
0.000150566
2.52235e-05
0.000164261
3.16406e-05
0.000173981
3.64941e-05
0.000184171
4.29704e-05
0.000186284
4.05734e-05
0.000191992
2.90402e-05
0.000169667
5.53868e-06
9.89807e-05
-2.40197e-05
-0.000262456
0.000170418
0.000116044
1.83911e-05
0.000135268
3.07374e-05
0.000152044
3.74409e-05
0.000164876
4.07456e-05
0.000176067
4.45978e-05
0.000181286
4.79687e-05
0.000188405
4.41604e-05
0.000172797
2.59104e-05
0.000123216
-1.86971e-05
-0.000329268
4.27924e-05
0.000188495
-1.8114e-05
9.51238e-05
2.09204e-05
0.000116852
3.68071e-05
0.000136866
4.59153e-05
0.000153464
4.88528e-05
0.000167144
4.96685e-05
0.00017538
5.05032e-05
0.000182891
5.34826e-05
0.000175648
4.13095e-05
0.000149444
-3.17427e-07
-0.000375052
2.70865e-05
0.000174165
5.71222e-05
8.321e-05
-0.000101324
7.27644e-05
2.23594e-05
9.56939e-05
4.20787e-05
0.000118308
5.53651e-05
0.000138767
6.06127e-05
0.000156222
5.97757e-05
0.000168342
5.67064e-05
0.000176995
5.6399e-05
0.000176378
5.2752e-05
0.000169114
2.16396e-05
-0.000332681
-4.26883e-05
-4.26436e-05
0.000243895
0.000121696
1.86357e-05
-0.000153456
5.21314e-05
5.05891e-05
2.21753e-05
7.29299e-05
4.51234e-05
9.67475e-05
6.3639e-05
0.000120173
7.39588e-05
0.000141947
7.48869e-05
0.000159085
6.90334e-05
0.000170242
6.346e-05
0.000175913
5.68641e-05
0.000184845
3.70214e-05
-0.000234627
-7.64146e-05
-0.000121088
3.57563e-05
8.26766e-05
0.000282915
-0.000110275
-2.45452e-05
9.23548e-05
-4.02234e-05
3.03045e-05
2.02847e-05
5.02292e-05
4.4876e-05
7.34346e-05
6.84364e-05
9.79322e-05
8.58801e-05
0.000123213
9.26929e-05
0.000145824
8.81469e-05
0.000161989
7.72865e-05
0.000173995
6.53784e-05
0.000198046
4.36631e-05
-0.000140156
-5.74496e-05
-0.000158767
-3.87359e-05
7.15215e-05
4.69114e-05
-8.83286e-06
0.000181473
8.97449e-05
-2.19353e-05
-9.94703e-05
1.29967e-05
1.73078e-05
2.93656e-05
4.11483e-05
5.00733e-05
6.82373e-05
7.33113e-05
9.30573e-05
0.000100163
0.00010893
0.000127058
0.000111459
0.00014966
0.000100476
0.000170081
8.12004e-05
0.000211946
5.14786e-05
-3.85494e-05
-5.79433e-05
-0.000177192
-3.90249e-05
4.61257e-05
-1.334e-05
1.10788e-05
2.69997e-05
5.26113e-05
0.000218606
-8.81428e-05
-2.21527e-07
1.32182e-05
1.17958e-05
3.48776e-05
2.84147e-05
6.28069e-05
4.84266e-05
9.3122e-05
7.43228e-05
0.000118898
0.000102736
0.000133252
0.000130784
0.000130335
0.000161114
0.000109442
0.00022357
6.95762e-05
7.4469e-05
-6.15397e-05
-0.000193384
-4.17512e-05
4.37666e-05
-3.66658e-05
8.66898e-06
-1.09302e-05
2.77776e-05
5.18334e-05
-3.1857e-05
-8.82356e-06
8.60204e-06
-1.41868e-06
2.64327e-05
1.00712e-05
5.32212e-05
2.54945e-05
8.5739e-05
4.80347e-05
0.00011941
7.4614e-05
0.00014702
0.000105071
0.000158965
0.000143442
0.000148007
0.000226328
0.000106684
0.000164557
-2.0512e-05
-0.000183163
-7.17604e-05
4.45517e-05
-4.25363e-05
1.39863e-05
-4.19831e-05
6.81374e-06
1.00337e-05
-8.25745e-06
-1.29713e-05
4.14771e-06
-9.9756e-06
1.7159e-05
-3.69588e-06
4.01997e-05
6.36665e-06
7.2349e-05
2.35137e-05
0.00011026
4.55877e-05
0.000148436
7.46969e-05
0.000177394
0.000116406
0.000186
0.00021412
0.000160215
0.000221905
4.93364e-05
-9.28337e-05
-0.000110841
4.66615e-05
-7.38702e-05
2.0789e-05
-4.9339e-05
-1.56723e-06
-3.36021e-05
3.16567e-06
-1.28796e-05
-9.17083e-08
-1.38717e-05
8.04385e-06
-1.25616e-05
2.60246e-05
-7.68315e-06
5.42496e-05
2.84404e-06
9.30187e-05
1.86034e-05
0.000137244
4.32826e-05
0.000179851
8.22394e-05
0.000211562
0.000187698
0.000212422
0.000239571
0.000142549
5.95152e-05
-0.000103013
4.83239e-05
-0.000112504
1.9886e-05
-7.29672e-05
-5.80965e-06
-4.50966e-05
7.79618e-06
-9.20517e-06
-3.67439e-06
-1.39406e-05
-2.28496e-08
-1.67901e-05
1.22724e-05
-1.64456e-05
3.47871e-05
-1.23192e-05
6.94128e-05
-3.44999e-06
0.000115072
1.39455e-05
0.000166581
4.4862e-05
0.000217228
0.000149562
0.000249698
0.000221779
0.000230214
0.000151008
5.10563e-05
4.7041e-05
-0.00010173
-4.48211e-06
-8.81357e-05
-7.3557e-06
-7.14212e-05
1.04909e-05
-2.4714e-06
-6.73378e-06
-1.01549e-05
-7.46006e-06
-1.62439e-05
-5.69102e-07
-2.00573e-05
1.58841e-05
-2.16229e-05
4.40909e-05
-1.92737e-05
8.52364e-05
-1.05119e-05
0.00013953
8.67498e-06
0.000202768
0.000103947
0.000262843
0.000179193
0.000292283
0.000171195
0.000210027
6.86818e-05
2.94155e-05
-3.75541e-05
-6.86576e-05
-1.26679e-05
-8.28235e-05
7.05992e-06
6.67924e-06
-9.15064e-06
-3.30805e-06
-1.35807e-05
-1.2235e-05
-1.14689e-05
-1.97422e-05
-8.84256e-07
-2.5489e-05
1.97502e-05
-2.83781e-05
5.31953e-05
-2.77595e-05
0.000102484
-2.07591e-05
0.000168964
5.83917e-05
0.000248324
0.000128083
0.000313953
0.000136802
0.000326677
9.53638e-05
0.000183345
-4.34337e-05
3.52951e-05
-2.12489e-05
-6.00766e-05
-2.25542e-06
1.77569e-05
-1.10776e-05
5.98123e-06
-1.84399e-05
-5.12565e-06
-2.069e-05
-1.52773e-05
-1.59338e-05
-2.42972e-05
-2.0761e-06
-3.16262e-05
2.29984e-05
-3.70858e-05
6.25216e-05
-4.04215e-05
0.000122146
2.10345e-05
0.000206321
8.23384e-05
0.000294069
6.02886e-05
0.000390466
0.000123582
0.000298459
-1.35523e-05
0.000153464
-2.65188e-05
4.05649e-05
-1.54104e-05
3.02154e-05
-1.24585e-05
1.72162e-05
-2.23126e-05
4.50384e-06
-2.80694e-05
-7.67988e-06
-2.82874e-05
-1.94915e-05
-2.07395e-05
-3.02517e-05
-3.45063e-06
-3.94854e-05
2.53979e-05
-5.04132e-05
7.25133e-05
-5.91021e-06
0.000149091
4.72936e-05
0.000241366
-2.66191e-05
0.000380977
0.000152288
0.00036176
2.99877e-05
0.000254919
-2.32002e-05
0.000150145
-1.89952e-05
4.34991e-05
-1.32837e-05
2.98167e-05
-2.5059e-05
1.60685e-05
-3.38772e-05
2.44221e-06
-3.81915e-05
-1.13797e-05
-3.63993e-05
-2.4579e-05
-2.64122e-05
-3.68108e-05
-6.12522e-06
-5.32529e-05
2.82376e-05
-2.42312e-05
9.08343e-05
2.83777e-05
0.000168007
-7.97108e-05
0.000294457
0.000177489
0.000355776
7.91365e-05
0.000312611
-9.72434e-06
0.000241443
-1.54215e-05
5.7089e-05
-1.359e-05
4.33083e-05
-2.67754e-05
2.90142e-05
-3.80047e-05
1.44173e-05
-4.58523e-05
-6.26702e-07
-4.89444e-05
-1.55441e-05
-4.54341e-05
-3.02251e-05
-3.29979e-05
-5.1172e-05
-8.20612e-06
-3.3622e-05
3.76284e-05
2.2242e-05
9.697e-05
-9.0571e-05
0.000178867
0.0001785
0.000293447
0.00012696
0.000307952
5.35242e-06
0.000297534
-9.54834e-06
7.04787e-05
-1.33897e-05
5.7093e-05
-2.73746e-05
4.28077e-05
-4.05689e-05
2.79159e-05
-5.15034e-05
1.20076e-05
-5.84866e-05
-3.9987e-06
-6.04899e-05
-2.05061e-05
-5.51531e-05
-4.39726e-05
-4.01972e-05
-3.7132e-05
-4.69609e-06
2.14369e-05
3.84334e-05
-7.49968e-05
8.13958e-05
0.000123656
0.000233711
0.000161491
0.000258916
1.59815e-05
0.000297323
3.18939e-07
8.32082e-05
-1.27295e-05
7.0684e-05
-2.69807e-05
5.69525e-05
-4.15194e-05
4.23344e-05
-5.49874e-05
2.62176e-05
-6.57134e-05
9.33426e-06
-7.18195e-05
-8.51382e-06
-7.24822e-05
-3.2513e-05
-6.66127e-05
-3.44782e-05
-4.2851e-05
2.0491e-05
-3.75011e-06
-5.09629e-05
1.43995e-05
2.91879e-05
0.000175864
0.000190575
0.000204628
2.65993e-05
0.000248298
9.47715e-06
9.48396e-05
-1.16314e-05
8.358e-05
-2.56255e-05
7.0928e-05
-4.09562e-05
5.71588e-05
-5.63438e-05
4.13107e-05
-7.00805e-05
2.42245e-05
-8.06036e-05
5.34809e-06
-8.56814e-05
-1.67811e-05
-8.8214e-05
-2.74848e-05
-7.36061e-05
1.64477e-05
-3.88077e-05
-2.98829e-05
-2.48301e-05
-4.82512e-05
9.18387e-05
0.000208481
0.000157957
4.66773e-05
0.00018455
1.09942e-05
0.000105085
-1.0245e-05
9.53704e-05
-2.34218e-05
8.42618e-05
-3.89593e-05
7.18034e-05
-5.56008e-05
5.67595e-05
-7.17926e-05
4.03142e-05
-8.61701e-05
2.11008e-05
-9.63564e-05
2.34521e-06
-0.000104808
-1.66056e-05
-9.90932e-05
8.79161e-06
-6.59501e-05
-1.7936e-05
-5.07546e-05
-8.11811e-05
8.09994e-06
0.000206125
9.41951e-05
7.58855e-05
0.000128749
2.64101e-06
0.00011367
-8.58527e-06
0.000105689
-2.05634e-05
9.64639e-05
-3.56239e-05
8.56598e-05
-5.28157e-05
7.20722e-05
-7.09135e-05
5.70262e-05
-8.85046e-05
3.84309e-05
-0.0001035
2.2758e-05
-0.000116769
-2.85981e-06
-0.000118554
-3.62101e-06
-8.66806e-05
-1.57687e-05
-6.81174e-05
-8.30503e-05
-4.88855e-05
0.000180663
3.3562e-05
9.61371e-05
7.39435e-05
-7.48314e-06
0.000120445
-6.77529e-06
0.000114341
-1.72373e-05
0.000107135
-3.12346e-05
9.82673e-05
-4.82313e-05
8.67918e-05
-6.75353e-05
7.36923e-05
-8.75797e-05
5.63538e-05
-0.000106428
4.25815e-05
-0.000123324
1.07335e-05
-0.000130363
-1.90067e-05
-0.000103168
-2.11834e-05
-8.12658e-05
-7.05015e-05
-8.06662e-05
0.000131718
5.88715e-08
9.92711e-05
3.04279e-05
-1.26838e-05
0.000125319
-4.8737e-06
0.00012116
-1.35944e-05
0.000115993
-2.60954e-05
0.000109255
-4.22224e-05
0.000100296
-6.17357e-05
8.95191e-05
-8.33621e-05
7.41512e-05
-0.000105377
6.17965e-05
-0.000125642
2.36096e-05
-0.0001362
-2.9287e-05
-0.000120082
-2.66319e-05
-9.77194e-05
-4.88269e-05
-0.00010294
7.31732e-05
-2.21213e-05
8.83941e-05
1.09356e-05
-1.00839e-05
0.000128236
-2.91747e-06
0.000126138
-9.85179e-06
0.000122954
-2.05551e-05
0.00011835
-3.51905e-05
0.000111961
-5.38873e-05
0.000103797
-7.6014e-05
9.13842e-05
-0.000100595
8.08768e-05
-0.000124457
3.61108e-05
-0.000138144
-3.13673e-05
-0.00013412
-2.58387e-05
-0.000120875
-1.66802e-05
-0.000129866
2.55219e-05
-5.52894e-05
6.20156e-05
4.25683e-06
-5.44171e-06
0.000129175
-9.3909e-07
0.000129253
-6.03225e-06
0.000128008
-1.49056e-05
0.000125546
-2.77504e-05
0.000121463
-4.46925e-05
0.000115954
-6.60439e-05
0.000107289
-9.19188e-05
9.85873e-05
-0.000118306
4.73152e-05
-0.000135662
-2.49747e-05
-0.000144536
-1.3168e-05
-0.00014679
1.44291e-05
-0.000151985
-1.09197e-05
-9.3425e-05
3.20283e-05
-2.53029e-05
1.78086e-06
0.0001282
9.75379e-07
0.000130434
-2.11989e-06
0.000130992
-9.01683e-06
0.000130906
-2.02659e-05
0.000128948
-3.52353e-05
0.000125823
-5.45617e-05
0.000120578
-7.93327e-05
0.000113165
-0.000106497
5.69902e-05
-0.000127981
-7.94968e-06
-0.000152687
1.55387e-05
-0.000173243
4.47594e-05
-0.000177121
-5.30048e-05
-0.0001099
4.2329e-06
-6.56306e-05
5.06107e-06
0.000125332
2.86842e-06
0.00012942
1.9893e-06
0.000131948
-3.07525e-06
0.000134515
-1.26259e-05
0.000134486
-2.58037e-05
0.000133597
-4.30096e-05
0.000130692
-6.46757e-05
0.000123031
-8.91986e-05
6.46347e-05
-0.000114141
2.19564e-05
-0.000157887
6.44672e-05
-0.000201615
6.94091e-05
-0.000197893
-0.000106017
-0.00012411
-2.29034e-05
-8.27655e-05
3.43809e-06
0.000120834
4.49792e-06
0.000126669
5.61905e-06
0.000131315
2.62192e-06
0.000136103
-4.66302e-06
0.000137882
-1.60224e-05
0.000139791
-3.19972e-05
0.000138652
-5.09696e-05
0.000128111
-6.97556e-05
6.79854e-05
-9.25493e-05
6.67517e-05
-0.000158936
0.000132927
-0.000226346
6.93478e-05
-0.000201555
-0.000151675
-0.000152236
-4.48406e-05
-0.000102174
5.78161e-06
5.63627e-06
0.000115198
0.000122153
9.01433e-06
0.000128529
8.40466e-06
0.000135007
3.71744e-06
0.000139042
-5.82238e-06
0.000144314
-2.05451e-05
0.000144843
-3.81885e-05
0.00012985
-5.27083e-05
6.46908e-05
-6.6461e-05
0.000124229
-0.000150026
0.000216354
-0.000242363
2.14882e-05
-0.000178487
-0.000178913
-0.000174318
-5.47502e-05
-0.000142328
1.39041e-05
1.15707e-05
0.000116218
1.81156e-05
9.7082e-05
0.000123894
1.36502e-05
0.000132103
1.13087e-05
0.000138576
4.18316e-06
0.000146753
-8.26195e-06
0.000148843
-2.45452e-05
0.000130157
-3.84957e-05
5.95169e-05
-4.75345e-05
0.000183983
-0.000126215
0.000290796
-0.000224469
-6.89218e-05
-0.000151954
-0.000177472
-0.000179929
-5.31972e-05
-0.000175872
2.08642e-05
1.78192e-05
0.000117645
3.69988e-05
9.7335e-05
1.86507e-05
7.84313e-05
0.000127305
1.8448e-05
0.000135456
1.44281e-05
0.0001459
5.03647e-06
0.000149938
-9.35696e-06
0.000129283
-2.36716e-05
5.72575e-05
-3.62363e-05
0.000237005
-0.000100557
0.000328127
-0.000163547
-0.000164615
-0.000128775
-0.000166118
-0.000163307
-4.86566e-05
-0.00018447
2.27512e-05
2.43825e-05
0.000120742
5.67735e-05
9.78703e-05
3.85593e-05
7.74263e-05
1.59053e-05
6.2526e-05
0.000130278
2.36269e-05
0.000142679
1.76492e-05
0.000148657
6.31805e-06
0.000127288
-7.36116e-06
5.9511e-05
-2.5925e-05
0.000281418
-8.06488e-05
0.000324514
-9.6944e-05
-0.000228172
-9.99908e-05
-0.000148116
-0.000146778
-3.253e-05
-0.000179434
2.02347e-05
3.14517e-05
0.000123208
7.83103e-05
9.92052e-05
5.9572e-05
7.68576e-05
3.40953e-05
5.92362e-05
3.33808e-06
5.91879e-05
0.000137193
2.91132e-05
0.000144055
2.22513e-05
0.000122638
1.09671e-05
6.46168e-05
-1.2467e-05
0.000318357
-6.28637e-05
0.000285349
-4.14834e-05
-0.000241165
-8.39515e-05
-0.000122533
-0.000125575
-1.82189e-05
-0.00016109
7.91729e-06
3.9254e-05
0.00012939
0.000101011
0.000100507
8.36701e-05
7.51071e-05
5.31867e-05
5.77663e-05
1.10803e-05
5.1494e-05
-1.46338e-05
7.38217e-05
0.000137105
3.60626e-05
0.00011501
2.98794e-05
7.06713e-05
4.91262e-06
0.000349288
-4.33982e-05
0.000222011
4.73189e-07
-0.000229043
-5.36061e-05
-0.000108892
-9.75936e-05
-1.34062e-05
-0.000130389
-5.76991e-06
4.85272e-05
0.000127832
0.000126946
0.000103455
0.000110172
7.40053e-05
7.59569e-05
5.23369e-05
2.25287e-05
4.63178e-05
-1.84641e-05
5.53242e-05
-5.46612e-05
0.000128483
0.000105372
4.57005e-05
7.47603e-05
2.57904e-05
0.000362098
-7.89814e-06
0.000139807
3.88054e-05
-0.000220273
-8.29776e-06
-9.99963e-05
-6.25029e-05
-1.25818e-05
-9.84189e-05
-1.27512e-05
5.99951e-05
9.39044e-05
0.000155863
9.89156e-05
0.00014075
7.28772e-05
0.000101265
4.86974e-05
4.26675e-05
3.21981e-05
-1.37589e-05
4.16126e-05
-9.40532e-05
9.47162e-05
-7.61852e-05
0.000204668
7.5799e-05
4.46618e-05
0.000349684
3.82049e-05
6.44839e-05
6.74255e-05
-0.000207301
2.58336e-05
-7.87738e-05
-2.95203e-05
-8.77176e-06
-6.63134e-05
-1.59532e-05
5.95453e-05
7.62488e-05
0.000186581
6.3186e-05
0.000174942
6.4724e-05
0.000130471
4.36714e-05
6.972e-05
2.16449e-05
2.02326e-06
1.6416e-05
-0.000109817
5.73767e-05
-0.000148552
0.000167083
-0.000131031
0.000335699
0.000326421
6.79253e-05
1.31449e-05
8.95445e-05
-0.000187916
4.80408e-05
-5.14046e-05
-1.53496e-06
-1.25331e-05
-2.57587e-05
-2.03771e-05
8.1735e-05
0.000304231
0.000195318
6.75115e-05
0.000209525
2.86031e-05
0.000162553
3.26415e-05
0.000103938
9.45333e-06
2.71389e-05
-3.47069e-06
-0.000104114
1.07125e-05
-0.000208679
0.000117503
-0.000240493
0.000276545
-1.74024e-05
0.000353101
-1.70226e-05
9.8093e-05
-0.000158592
6.02209e-05
-3.31972e-05
2.9834e-05
-2.44677e-05
1.04e-05
-1.65782e-05
0.000102772
-3.80596e-05
0.000274801
0.000224748
0.000241193
3.58432e-05
0.000196584
-5.42755e-06
0.000143676
-7.09605e-06
6.73121e-05
-3.07198e-05
-7.00892e-05
-3.74953e-05
-0.000233069
3.51029e-05
-0.000317263
0.000194273
-8.07836e-05
0.000339926
5.31772e-05
0.000299924
-0.000131679
7.11798e-05
-2.66473e-05
5.36707e-05
-2.9205e-05
3.45712e-05
-5.69881e-06
8.90334e-05
-0.00011794
0.000280446
-4.37044e-05
0.000336349
0.000129592
0.000237083
-4.65562e-06
0.000185633
-4.73853e-05
0.000115909
-5.56926e-05
7.64969e-07
-0.000101574
-0.000200929
-6.96354e-05
-0.000391063
0.000108903
-0.000223405
0.000336894
6.97978e-05
0.000323306
0.00209296
0.00062719
-0.00242023
-2.8382e-05
7.29141e-05
-2.99738e-05
5.4439e-05
1.46915e-06
9.42829e-05
-3.36312e-05
0.000273359
-0.000110851
0.000350664
-5.80179e-05
0.000319844
4.68305e-05
0.000238855
-5.78767e-05
0.000160414
-9.18903e-05
8.93401e-05
-0.000144268
-8.50506e-05
-0.000217452
-0.0003912
-6.9499e-05
-0.000392206
0.000277705
5.93284e-05
0.000347364
0.00165445
0.000761823
0.0023737
0.000713788
-0.00246029
0.000384037
-0.00280427
-2.8463e-05
7.1403e-05
3.90135e-06
9.31742e-05
-2.73539e-05
0.000291306
-5.15766e-05
0.000373817
-0.000134002
0.000377466
-0.000115639
0.000322686
-3.70007e-05
0.000205679
-0.000103142
0.000158717
-0.000161267
5.82287e-05
-0.000287547
-0.000268527
-0.000340125
-0.000446912
-1.47932e-05
1.04374e-05
0.000326596
0.00123815
0.000763662
0.00219199
0.000943528
0.00209544
0.000731621
-0.00211328
0.000486763
-0.00256302
0.000231029
-0.0030353
2.64426e-06
-4.61402e-07
0.000296279
-3.23257e-05
0.000409427
-8.71853e-05
0.000439946
-0.000196481
0.000445347
-0.000238299
0.000262956
-9.42778e-05
0.000195633
-0.000140059
0.00016237
-0.000265408
-7.82719e-05
-0.000477802
-0.000390336
-0.000396701
-9.99564e-05
9.56006e-05
0.000938515
0.000626228
0.00190819
0.00104747
0.00203962
0.000999348
0.00174279
0.000834421
-0.00184559
0.000574818
-0.00220133
0.000375672
-0.00270766
0.00018759
-0.00322289
-8.8283e-06
0.000427894
-5.0792e-05
0.000510803
-0.000158041
0.000571166
-0.000322299
0.000505422
-0.000480765
0.000241211
-0.000139855
0.000180622
-0.000158311
0.000124271
-0.000467951
-0.000248794
-0.000619345
-0.000273491
-0.000223166
0.000661367
0.000372748
0.0015633
0.000971118
0.00190592
0.00118117
0.00170906
0.00103308
0.00155248
0.000998927
-0.00171698
0.000770749
-0.00204152
0.000525256
-0.00235092
0.000300641
-0.00282071
0.000113406
-0.00333629
-2.04215e-05
0.000558981
-9.89709e-05
0.000693289
-0.000280165
0.000754712
-0.000571588
0.000720779
-0.000960334
0.000240753
-0.000199987
0.00031107
-0.00034511
-2.86272e-05
-0.000688118
-0.000262658
-0.000630178
0.000390267
4.79346e-05
0.0011576
0.000778445
0.00169648
0.00118056
0.00162144
0.00126879
0.00147904
0.00110652
0.00134073
0.00124679
-0.00158859
0.0010315
-0.00197773
0.000755664
-0.00227193
0.000441389
-0.00249167
0.000238587
-0.00294589
8.78294e-05
-0.00342412
-4.22496e-05
0.000789744
-0.000195425
0.00095473
-0.000480183
0.00117578
-0.00102659
0.000924558
-0.00164414
0.000491879
-0.000380796
0.00032493
-0.000698667
-0.000189169
-0.000761606
0.000184753
-0.000424664
0.000782448
0.000423088
0.00143681
0.00103812
0.00148997
0.00131203
0.00136514
0.00138269
0.00118668
0.00126057
0.0012782
0.000367129
-0.00149259
0.000366565
0.000363795
0.000363688
0.00130749
-0.00186458
0.00100001
-0.00222208
0.000615555
-0.00244609
0.000337756
-0.00259083
0.000158512
-0.00301658
1.11332e-05
-0.00343525
-8.30905e-05
0.00111759
-0.000358281
0.00142453
-0.000728934
0.00154933
-0.00165135
0.000958702
-0.00211096
0.000755884
-0.00081175
-8.93011e-05
-0.000798535
-4.25186e-05
-0.000534334
0.0004218
-6.40166e-05
0.00107323
0.000786668
0.00129766
0.00123043
0.00117242
0.00150475
0.00111061
0.00145876
0.000999825
0.00153894
-6.74078e-07
0.0002822
-0.0003216
0.000407203
0.000382551
-0.00173712
0.000382055
0.000393639
0.000393768
0.000282321
-0.00032159
0.00040516
-4.30343e-07
0.000248337
0.000398088
0.000249829
0.000395749
0.00126162
-0.00212618
0.000835932
-0.00244246
0.000438723
-0.00254706
0.000202947
-0.00263527
4.52515e-05
-0.0030507
-5.65214e-05
-0.00337873
-0.000155333
0.00158971
-0.00052346
0.00193686
-0.00111647
0.00142585
-0.0021185
0.000801144
-0.00215622
0.000184654
-0.00108571
-0.000317447
-0.000523607
0.000123444
-0.000235978
0.000575443
0.000433772
0.00107921
0.00100511
0.000945587
0.00145726
0.000998655
0.0016167
0.000785664
0.00167292
-0.000216925
-0.000217854
0.000776144
0.000409469
0.000408066
0.000438928
0.000439284
-7.64928e-07
-0.000352288
0.000414004
-3.64229e-07
0.000230106
-0.000258303
0.000435764
-0.00199692
0.00152143
-0.000352067
0.000411767
-5.90755e-07
-0.000374125
0.000416066
-0.000373069
0.000414179
0.000230419
-0.000258032
0.000432409
-2.51732e-07
0.00041152
0.000408063
0.00108577
-0.00237602
0.000580575
-0.00258431
0.000245223
-0.00258934
6.53961e-05
-0.00265542
-7.79085e-05
-0.00302931
-0.000157957
-0.00322078
-0.000241536
0.00201234
-0.000598939
0.00178307
-0.00147369
0.000751539
-0.0020689
-0.000206497
-0.00176507
-0.000353669
-0.00104948
-0.00014487
-0.000255293
0.000224959
0.000114506
0.00076543
0.000747555
0.000707743
0.00124296
0.000828105
0.00162781
0.000619299
0.00178306
0.000602748
0.000454513
0.000454877
0.000468572
0.000468354
2.73926e-07
0.00012885
-0.000159468
0.000439813
0.000127663
-0.000158041
0.000438718
-1.78772e-07
0.000113235
0.000454722
0.0001127
0.000454068
-4.2552e-07
-0.000284424
0.00044055
1.2639e-06
0.000188183
-0.000204847
0.000126861
9.69413e-05
0.000123923
0.000103439
-0.00223444
0.00132328
0.000305631
0.000305232
-0.00162582
0.000451345
0.000451746
0.00044359
0.00044251
-0.000284207
0.000437516
-3.65669e-07
0.00043764
0.000434838
0.000187531
-0.000204607
0.000126051
9.84075e-05
0.000123379
0.000102911
9.73518e-07
0.000122798
9.57416e-05
0.000121596
9.91262e-05
0.000122062
9.6926e-05
0.000120941
9.85977e-05
0.00077301
-0.00256846
0.000333096
-0.00267219
5.35926e-05
-0.00257753
-0.000112339
-0.00262098
-0.0002619
-0.00292537
-0.00025835
-0.00296243
-0.000248212
0.00181344
-0.000629305
0.00078265
-0.0015048
-0.000592272
-0.00168312
-0.000687594
-0.00143114
-0.000395938
-0.000798416
-2.50303e-05
-5.30402e-06
0.000383353
0.000496583
0.000498035
0.000957264
0.000609457
0.0014616
0.00046952
0.00177759
0.00047115
0.000472257
0.000472137
0.000485662
0.000484605
-1.90942e-07
9.20411e-05
0.000475897
9.2019e-05
0.000475367
-2.11512e-07
7.12036e-05
0.000489621
7.11094e-05
0.000489052
4.49615e-07
6.42049e-05
-3.23121e-05
-1.54854e-05
0.000100408
-2.71376e-05
0.000127191
0.000102195
0.000127738
-7.4059e-06
6.38185e-05
-3.25342e-05
-1.52862e-05
-2.7138e-05
0.000100708
0.000127116
0.000102259
0.000127589
-7.36435e-06
6.37903e-07
4.95721e-05
0.000105219
0.000127437
0.000106154
0.000129958
4.9837e-05
0.000105356
0.000127267
0.000106265
0.000129799
1.18429e-06
-0.000227673
0.000128103
0.00010174
0.000127922
0.000104428
-3.34147e-05
9.13117e-06
1.84609e-07
3.18948e-05
0.000119065
-9.57664e-06
3.14336e-05
-3.39253e-05
0.00010901
1.81106e-07
-3.5452e-05
0.000116203
3.09773e-05
0.000113026
-0.00246196
0.00100053
-0.00188671
0.000388838
0.000388796
0.000402907
0.000403635
-1.23345e-07
0.000272461
-0.000299424
0.000478432
0.000273517
-0.000300106
0.000478211
4.14173e-07
0.000250773
0.000464863
0.000252315
0.000464126
-0.000227468
0.00012754
0.000102729
0.000127292
0.000104
1.00639e-06
0.000128886
9.97079e-05
0.000124905
0.000106234
0.000128276
0.000101794
0.000124563
0.00010606
-3.343e-05
9.01517e-06
3.18169e-05
0.000118834
-9.20112e-06
3.1782e-05
-3.39551e-05
0.000109782
-3.54272e-05
0.000116356
3.09558e-05
0.000112753
2.66201e-05
1.03427e-05
2.16813e-07
0.000117513
-1.61479e-05
-2.82344e-05
0.000107812
2.89471e-07
0.000116296
0.000112212
2.65179e-05
1.0364e-05
0.000117213
-1.60535e-05
-2.82223e-05
0.000108668
0.000116409
0.000111695
0.000480135
-0.00271549
5.46591e-05
-0.00267325
-0.00019065
-0.00249922
-0.000346942
-0.00253594
-0.000451674
-0.00273204
-0.000386412
-0.00257601
-0.000165713
0.000795973
-0.000642629
-0.000765677
-0.0013314
-0.0008735
-0.00149722
-0.000647633
-0.00117945
-0.000388299
-0.000435147
6.52309e-05
0.000312818
0.000250487
0.000744131
0.000370422
0.0011963
0.000341413
0.00158971
0.000323954
0.000477963
0.00047747
0.000484972
0.00048438
-1.13745e-07
4.8428e-05
0.000495147
4.86666e-05
0.000494466
-7.7149e-08
3.74621e-05
0.000496705
3.76825e-05
0.000495512
9.04279e-07
3.77445e-05
0.000110396
0.000131624
0.000111791
0.000133048
3.80508e-05
0.000110783
0.000131558
0.000112806
0.00013292
1.13707e-06
1.99686e-05
0.000116483
0.000136927
0.000115946
0.000136897
2.00513e-05
0.000117482
0.000136794
0.000117059
0.000136832
-5.71564e-06
2.05231e-06
-1.27338e-05
0.000116805
-7.22443e-06
-2.11403e-05
0.000109039
1.39788e-06
-4.19461e-08
0.000127794
-7.7103e-06
-7.31065e-06
3.86289e-07
0.000111171
-1.13171e-08
1.08239e-06
0.000120737
5.5789e-08
-1.51304e-05
0.000116759
-7.321e-06
-2.12228e-05
0.000110073
-5.54859e-06
2.12395e-06
-1.29961e-05
0.000117129
1.38734e-06
-7.7263e-06
0.000127864
-7.19558e-06
4.20386e-07
0.000111158
1.07699e-06
0.000120693
-1.51782e-05
0.000116958
-7.32289e-06
1.3401e-06
-3.10386e-06
0.000114306
4.0124e-08
2.81843e-08
-1.68762e-06
0.000121734
-7.64063e-06
0.000115521
5.77235e-09
0.0001234
-7.25354e-06
1.30594e-06
-3.15504e-06
0.000114458
3.52398e-08
-1.72627e-06
0.000121733
-7.54453e-06
0.000115536
0.000123373
3.63809e-05
9.63803e-06
1.43221e-07
-3.92861e-05
0.000121227
-9.62856e-06
-3.52582e-05
0.000112701
1.561e-07
0.000119066
-3.69893e-05
0.000115797
-1.99444e-05
2.04508e-06
-5.13997e-08
1.85593e-05
0.000118457
-1.55376e-06
1.92976e-05
-2.08084e-05
0.000112074
-4.0356e-08
-2.15355e-05
0.0001163
1.91948e-05
0.000115174
-0.00258694
0.000605117
-0.00210341
0.00028677
0.000286423
0.000321918
0.000322119
-2.3378e-07
0.000334108
-0.000355151
0.000410115
0.000334047
-0.000355004
0.00040952
-1.66502e-07
0.000437757
0.000437409
7.75849e-07
0.000168712
-0.00018119
0.000108388
0.000133792
0.000111717
0.000136275
0.00016861
-0.000180458
0.000108872
0.000133646
0.000112082
0.000136236
6.05656e-07
3.15492e-05
5.3432e-05
0.000107523
2.05375e-05
0.000133065
0.000108333
0.000135001
4.35445e-05
3.15838e-05
5.32882e-05
0.000107918
2.06094e-05
0.00013302
0.000108534
0.000134879
4.35075e-05
3.63881e-05
9.58234e-06
-3.92893e-05
0.000121002
-9.32924e-06
-3.50188e-05
0.000113122
0.00011908
-3.70483e-05
0.000115612
-4.1647e-05
1.02753e-05
1.8978e-07
0.000120782
-1.69007e-05
3.59399e-05
0.000112218
2.01421e-07
0.000119606
0.00011546
-4.17168e-05
1.01602e-05
0.000120733
-1.64347e-05
3.63835e-05
0.000113429
0.000119901
0.000115555
-1.99821e-05
1.80389e-06
1.86124e-05
0.000118348
-1.35744e-06
1.94259e-05
-2.08627e-05
0.000112576
-2.15223e-05
0.000116498
1.9418e-05
0.000114564
3.60765e-06
5.77851e-09
0.000117307
0.000113874
3.51882e-06
0.000117135
0.000113409
7.32219e-05
-0.00273406
-0.000288852
-0.00257505
-0.000467835
-0.00237833
-0.000596282
-0.00239134
-0.000668498
-0.00244996
-0.000489013
-0.002087
-0.000157564
-0.000914243
-0.000494062
-0.00119322
-0.00101168
-0.000909408
-0.00123545
-0.000656682
-0.00091107
-0.000305384
-6.45323e-05
2.97847e-05
0.000533521
0.000149491
0.000965061
0.00015668
0.00138103
0.000176309
0.000435071
0.000434594
0.000433969
0.000433723
-3.68178e-08
2.91277e-05
0.000486334
2.94695e-05
0.000485646
-8.07607e-08
2.16484e-05
0.000492532
2.19166e-05
0.000491852
1.07833e-06
8.78702e-06
0.000115825
0.000136138
0.000116963
0.000136285
8.79674e-06
0.000116784
0.000136007
0.000117894
0.000136123
1.1067e-06
-2.46698e-06
0.000117729
0.000135798
0.000117343
0.000136014
-3.1797e-06
0.000118842
0.000135619
0.000118329
0.000135833
-7.54186e-06
-5.63001e-06
0.000120464
-4.88115e-06
1.17231e-08
0.000127247
-7.72207e-06
-6.85456e-06
0.000120732
-3.54681e-08
-6.46951e-06
0.000126912
-7.43477e-06
-5.82996e-06
0.000120893
-4.93999e-06
0.000127349
-7.32163e-06
-7.07803e-06
0.000121376
-6.4969e-06
0.000127131
-7.61411e-06
9.42307e-06
-1.06327e-05
0.000125311
8.92426e-06
6.50188e-09
-1.05476e-05
0.000130907
-7.67925e-06
0.000126199
-1.05402e-08
0.000131703
-7.25212e-06
9.57773e-06
-1.09597e-05
0.000126116
9.00527e-06
-1.06228e-05
0.000131156
-7.35489e-06
0.000126914
0.000131964
-2.36929e-06
-5.0399e-06
-5.46417e-07
-1.90593e-05
-2.07753e-05
-1.74608e-08
-3.30427e-08
-2.11103e-06
-8.468e-07
-5.5502e-06
-2.06301e-08
-5.43871e-06
-2.30148e-06
-4.90353e-06
-4.98013e-07
-1.9055e-05
-2.09493e-06
-2.07665e-05
-8.04402e-07
-5.57293e-06
-5.42496e-06
-1.08428e-06
4.59097e-06
-6.44613e-06
4.485e-06
-2.72093e-08
-6.32976e-06
-1.14373e-06
-2.15231e-08
-1.01759e-06
4.61483e-06
-6.57519e-06
4.48589e-06
-6.35503e-06
-1.10769e-06
2.29962e-05
2.16269e-06
-5.10187e-08
-2.74177e-05
0.000123522
-1.71431e-06
-2.16329e-05
0.00011524
-2.92156e-08
0.000118825
-2.3946e-05
0.000120273
-5.09822e-06
8.99303e-07
5.81204e-09
2.64741e-06
-6.58994e-07
4.70907e-06
-6.46565e-06
-1.44669e-08
-6.78197e-06
3.14288e-06
-0.00260411
9.0397e-05
-0.0022157
0.000162596
0.000162008
0.000196523
0.000196282
-1.67733e-07
0.000371672
-0.000363933
0.000279199
0.000371033
-0.000363634
0.000278857
-7.33084e-08
0.000338513
0.000338075
1.31266e-06
0.000200397
-0.00020738
8.87397e-05
0.000111418
9.61965e-05
0.000119458
0.000199661
-0.00020694
8.98501e-05
0.000111343
9.74761e-05
0.00011942
1.03432e-06
0.000103635
0.000127301
0.000100242
0.000124789
0.000104231
0.000127183
0.000101494
0.000124749
-8.61709e-06
2.16988e-05
-2.13667e-05
0.000116673
2.31163e-05
-4.24708e-08
-2.29669e-05
0.000125012
-8.08987e-06
1.99129e-05
0.000121592
-3.79896e-08
2.15857e-05
0.000129754
-8.37541e-06
2.18031e-05
-2.17234e-05
0.000117168
2.31245e-05
-2.30169e-05
0.00012512
-7.9159e-06
1.99698e-05
0.000121831
2.15755e-05
0.000129831
-5.55764e-06
-1.49111e-05
1.51732e-06
0.000126474
-8.16675e-06
2.36654e-05
0.000117257
-1.88094e-05
-4.1155e-08
0.000137273
9.04446e-06
-7.53547e-06
0.00012087
-2.84793e-08
0.00013027
2.65165e-08
3.17508e-05
0.000123226
-5.34451e-06
-1.4854e-05
1.15504e-06
0.000126962
-8.19014e-06
2.37501e-05
0.000118478
-1.87546e-05
0.000137412
8.9768e-06
-7.37639e-06
0.000121026
0.000130296
3.17497e-05
0.000123495
2.29424e-05
1.9742e-06
-2.73888e-05
0.000123423
-1.56036e-06
-2.16822e-05