/*--------------------------------*- C++ -*----------------------------------*\
| =========                 |                                                 |
| \\      /  F ield         | OpenFOAM: The Open Source CFD Toolbox           |
|  \\    /   O peration     | Version:  5.x                                   |
|   \\  /    A nd           | Web:      www.OpenFOAM.org                      |
|    \\/     M anipulation  |                                                 |
\*---------------------------------------------------------------------------*/
FoamFile
{
    version     2.0;
    format      ascii;
    class       volScalarField;
    location    "2.1";
    object      rAU;
}
// * * * * * * * * * * * * * * * * * * * * * * * * * * * * * * * * * * * * * //

dimensions      [-1 3 1 0 0 0 0];

internalField   nonuniform List<scalar> 
12160
(
1.19914e-06
1.1991e-06
1.19912e-06
1.19907e-06
1.19907e-06
1.1991e-06
1.19958e-06
1.19907e-06
1.19905e-06
1.19909e-06
1.20027e-06
1.19959e-06
1.19931e-06
1.19904e-06
1.19909e-06
1.20041e-06
1.20025e-06
1.1999e-06
1.19909e-06
1.19903e-06
1.19912e-06
1.20041e-06
1.20035e-06
1.20031e-06
1.19964e-06
1.19977e-06
1.19905e-06
1.19917e-06
1.20044e-06
1.20034e-06
1.20028e-06
1.20026e-06
1.20029e-06
1.19947e-06
1.19912e-06
1.19918e-06
1.20044e-06
1.20037e-06
1.20028e-06
1.20022e-06
1.20021e-06
1.19995e-06
1.19977e-06
1.2093e-06
2.30285e-06
1.20044e-06
1.20038e-06
1.20025e-06
1.20021e-06
1.20017e-06
1.20018e-06
1.20026e-06
1.20645e-06
2.10611e-06
5.80066e-05
1.20044e-06
1.2004e-06
1.20038e-06
1.20018e-06
1.20016e-06
1.20013e-06
1.20016e-06
1.20444e-06
2.0584e-06
5.43281e-05
0.000627097
1.20044e-06
1.20041e-06
1.2004e-06
1.20031e-06
1.20012e-06
1.20011e-06
1.20009e-06
1.20541e-06
1.97196e-06
5.29582e-05
0.000874268
0.00118847
1.20044e-06
1.20043e-06
1.20041e-06
1.20034e-06
1.20031e-06
1.20006e-06
1.20007e-06
1.20721e-06
1.91145e-06
4.571e-05
0.00111865
0.00119678
0.00119943
1.20044e-06
1.20044e-06
1.20043e-06
1.20037e-06
1.20034e-06
1.20025e-06
1.20002e-06
1.20921e-06
1.85424e-06
3.52107e-05
0.0011537
0.00119897
0.00119958
0.00119983
1.20043e-06
1.20044e-06
1.20044e-06
1.20038e-06
1.20037e-06
1.20032e-06
1.20022e-06
1.21006e-06
1.79134e-06
2.75613e-05
0.00112005
0.00119995
0.0011986
0.00119985
0.00119979
1.20043e-06
1.20043e-06
1.20044e-06
1.20039e-06
1.20038e-06
1.20038e-06
1.20033e-06
1.21001e-06
1.72511e-06
2.08546e-05
0.00107284
0.00120017
0.00120015
0.00119881
0.00119927
1.20043e-06
1.20043e-06
1.20043e-06
1.2004e-06
1.20039e-06
1.20043e-06
1.2004e-06
1.20921e-06
1.65456e-06
1.51408e-05
0.000969114
0.00119987
0.00120034
0.00119999
0.00119884
1.20042e-06
1.20043e-06
1.20043e-06
1.2004e-06
1.2004e-06
1.20044e-06
1.20044e-06
1.20795e-06
1.58489e-06
1.10853e-05
0.000805156
0.00119949
0.00120014
0.00120035
0.00120012
1.20036e-06
1.20042e-06
1.20043e-06
1.20041e-06
1.2004e-06
1.20044e-06
1.20044e-06
1.20651e-06
1.52737e-06
8.5886e-06
0.000554944
0.00119921
0.00120009
0.00120015
0.00120036
1.20037e-06
1.2004e-06
1.20042e-06
1.2004e-06
1.20041e-06
1.2004e-06
1.20044e-06
1.20467e-06
1.48482e-06
7.14808e-06
0.000293533
0.0011985
0.00119991
0.00120008
0.00119971
1.20042e-06
1.20043e-06
1.2004e-06
1.20038e-06
1.2004e-06
1.20036e-06
1.2004e-06
1.20241e-06
1.45209e-06
6.33842e-06
0.000175867
0.00119543
0.00119981
0.00119987
0.00119951
1.20042e-06
1.20041e-06
1.20043e-06
1.20038e-06
1.20038e-06
1.20033e-06
1.20036e-06
1.20019e-06
1.42174e-06
5.85192e-06
0.000127656
0.00117867
0.00119978
0.00119976
0.00119909
1.20042e-06
1.20042e-06
1.2004e-06
1.20043e-06
1.20036e-06
1.20034e-06
1.20033e-06
1.19975e-06
1.38936e-06
5.47969e-06
0.000105732
0.00114321
0.00120027
0.00120011
0.00119894
1.20043e-06
1.20042e-06
1.20039e-06
1.2004e-06
1.20043e-06
1.20035e-06
1.20032e-06
1.19991e-06
1.35685e-06
5.02604e-06
9.36578e-05
0.00110811
0.00119979
0.00120015
0.00119961
1.20043e-06
1.20043e-06
1.20039e-06
1.20039e-06
1.20041e-06
1.20043e-06
1.20033e-06
1.2001e-06
1.32232e-06
4.42729e-06
8.08044e-05
0.00107738
0.00119986
0.00119982
0.00120012
1.20043e-06
1.20043e-06
1.20038e-06
1.20039e-06
1.20043e-06
1.20041e-06
1.2004e-06
1.20025e-06
1.28898e-06
3.74126e-06
6.33844e-05
0.00104675
0.00119883
0.00119945
0.00119986
1.20044e-06
1.20043e-06
1.20039e-06
1.20038e-06
1.20043e-06
1.20043e-06
1.20028e-06
1.2004e-06
1.26293e-06
3.09167e-06
4.54081e-05
0.00100256
0.00119876
0.0012004
0.00119853
1.20044e-06
1.20044e-06
1.2004e-06
1.20039e-06
1.20043e-06
1.20043e-06
1.20018e-06
1.20029e-06
1.24513e-06
2.56492e-06
3.07122e-05
0.000911902
0.00119845
0.00120036
0.00119925
1.20044e-06
1.20044e-06
1.20041e-06
1.2004e-06
1.20043e-06
1.20043e-06
1.20038e-06
1.2002e-06
1.23404e-06
2.18473e-06
2.04501e-05
0.000705244
0.00119866
0.00119993
0.00119922
1.20044e-06
1.20044e-06
1.20041e-06
1.20041e-06
1.2004e-06
1.20042e-06
1.20043e-06
1.2e-06
1.22775e-06
1.93045e-06
1.40467e-05
0.000449392
0.00119524
0.00119956
0.00119937
1.20043e-06
1.20044e-06
1.20039e-06
1.20041e-06
1.20038e-06
1.2004e-06
1.20043e-06
1.19998e-06
1.22456e-06
1.77461e-06
1.0299e-05
0.000268813
0.00118481
0.00119974
0.00119961
1.20043e-06
1.20043e-06
1.20038e-06
1.20039e-06
1.20035e-06
1.20039e-06
1.20043e-06
1.20006e-06
1.22477e-06
1.69386e-06
8.20664e-06
0.000167485
0.00116129
0.00119999
0.00119983
1.20043e-06
1.20043e-06
1.20036e-06
1.20038e-06
1.20029e-06
1.20035e-06
1.20007e-06
1.20052e-06
1.22621e-06
1.67358e-06
7.14796e-06
0.000115196
0.00111048
0.00119975
0.00120007
1.20042e-06
1.20043e-06
1.20035e-06
1.20036e-06
1.20023e-06
1.20029e-06
1.1999e-06
1.20021e-06
1.23135e-06
1.70471e-06
6.84579e-06
9.07993e-05
0.00103141
0.0011994
0.00120029
1.20043e-06
1.20042e-06
1.20035e-06
1.20035e-06
1.2002e-06
1.20023e-06
1.19992e-06
1.20016e-06
1.24106e-06
1.80077e-06
7.29044e-06
8.40071e-05
0.000957824
0.0011992
0.00120039
1.20044e-06
1.20043e-06
1.20036e-06
1.20035e-06
1.2002e-06
1.2002e-06
1.19995e-06
1.20046e-06
1.25835e-06
1.98164e-06
8.61999e-06
9.21834e-05
0.000930929
0.00119855
0.00120038
1.19985e-06
1.20043e-06
1.20039e-06
1.20036e-06
1.20025e-06
1.1999e-06
1.20001e-06
1.20102e-06
1.28699e-06
2.28931e-06
1.12125e-05
0.000118113
0.00095511
0.00119823
0.00119983
1.19984e-06
1.20038e-06
1.20041e-06
1.20032e-06
1.20029e-06
1.2e-06
1.19979e-06
1.20208e-06
1.33176e-06
2.79314e-06
1.6098e-05
0.000172866
0.00102237
0.00119794
0.00119916
1.20044e-06
1.20036e-06
1.20042e-06
1.2004e-06
1.20028e-06
1.20011e-06
1.20021e-06
1.2049e-06
1.3972e-06
3.61506e-06
2.53073e-05
0.00027765
0.00110237
0.00119841
0.0011983
1.20015e-06
1.2004e-06
1.20036e-06
1.20041e-06
1.20038e-06
1.20023e-06
1.20032e-06
1.21024e-06
1.48467e-06
4.95934e-06
4.31722e-05
0.000463283
0.0011562
0.00119922
0.00119762
1.2001e-06
1.20032e-06
1.20031e-06
1.20033e-06
1.2004e-06
1.20036e-06
1.20047e-06
1.21855e-06
1.60602e-06
7.09046e-06
7.6912e-05
0.00073208
0.00118234
0.0011994
0.0011965
1.20003e-06
1.20025e-06
1.20045e-06
1.20025e-06
1.20029e-06
1.2004e-06
1.20071e-06
1.23064e-06
1.77076e-06
1.01613e-05
0.000133252
0.000981082
0.00119292
0.0011992
0.00119562
1.19994e-06
1.20025e-06
1.20039e-06
1.20038e-06
1.20019e-06
1.20026e-06
1.20096e-06
1.24607e-06
1.98335e-06
1.45346e-05
0.000214437
0.00110952
0.00119727
0.00119866
0.00119526
1.19979e-06
1.20013e-06
1.20039e-06
1.20032e-06
1.2002e-06
1.20012e-06
1.20116e-06
1.26371e-06
2.24034e-06
2.07654e-05
0.000322673
0.00115822
0.00119914
0.00119875
0.00119552
1.19968e-06
1.19985e-06
1.20026e-06
1.20036e-06
1.20019e-06
1.20019e-06
1.20147e-06
1.28242e-06
2.5311e-06
2.93494e-05
0.000457732
0.00117761
0.0011996
0.00119916
0.00119609
1.20152e-06
1.19968e-06
1.20026e-06
1.20026e-06
1.20019e-06
1.20013e-06
1.20005e-06
1.30113e-06
2.83682e-06
4.02609e-05
0.000605267
0.0011866
0.00119996
0.00119931
0.00119691
1.3169e-06
1.20238e-06
1.20004e-06
1.20027e-06
1.20032e-06
1.20017e-06
1.19999e-06
1.20004e-06
3.13672e-06
5.19947e-05
0.000740082
0.00119118
0.00120017
0.00119967
0.00119753
3.41238e-06
1.33743e-06
1.20362e-06
1.20009e-06
1.20034e-06
1.20041e-06
1.20022e-06
1.20008e-06
1.19944e-06
6.24774e-05
0.000839502
0.00119417
0.00120024
0.00120008
0.00119847
7.17523e-05
3.83938e-06
1.35755e-06
1.2044e-06
1.20025e-06
1.20043e-06
1.20041e-06
1.20032e-06
1.19947e-06
1.19749e-06
0.000912156
0.00119602
0.00119995
0.00120035
0.00119947
0.000990724
8.55628e-05
4.22414e-06
1.36e-06
1.20601e-06
1.20038e-06
1.20043e-06
1.20044e-06
1.19955e-06
1.19761e-06
1.1968e-06
0.00119706
0.00119973
0.00120004
0.00120031
0.00119724
0.00106782
8.84936e-05
4.24494e-06
1.367e-06
1.20734e-06
1.20064e-06
1.20032e-06
1.2002e-06
1.19953e-06
1.19669e-06
1.19445e-06
0.00119953
0.00119977
0.00120006
0.00119994
0.00119859
0.00107878
7.82543e-05
4.24231e-06
1.36325e-06
1.21265e-06
1.20108e-06
1.19997e-06
1.19943e-06
1.19856e-06
1.19816e-06
1.19277e-06
1.19379e-06
0.00119953
0.00119978
0.0012
0.0011997
0.00119875
0.00105003
6.75981e-05
4.03676e-06
1.37094e-06
1.21894e-06
1.19975e-06
1.20007e-06
1.19822e-06
1.19846e-06
1.1934e-06
1.19304e-06
1.19495e-06
1.19731e-06
0.00119954
0.00119933
0.00120024
0.00119928
0.00119839
0.000996376
5.85373e-05
3.84604e-06
1.37384e-06
1.22281e-06
1.19819e-06
1.20026e-06
1.19905e-06
1.1904e-06
1.19228e-06
1.19745e-06
1.19804e-06
1.19764e-06
1.19681e-06
0.00119937
0.00120041
0.00119896
0.00119752
0.000944118
5.00437e-05
3.63191e-06
1.41787e-06
1.20677e-06
1.19948e-06
1.20026e-06
1.19791e-06
1.18892e-06
1.19676e-06
1.19928e-06
1.19945e-06
1.19956e-06
1.1979e-06
1.19319e-06
0.00119911
0.0012004
0.00119835
0.00119892
0.000889555
4.58752e-05
3.53559e-06
1.43399e-06
1.19697e-06
1.20021e-06
1.20031e-06
1.19572e-06
1.19616e-06
1.19933e-06
1.19937e-06
1.19937e-06
1.19943e-06
1.19953e-06
1.1989e-06
1.1892e-06
0.00119854
0.00120038
0.0012002
0.00119584
0.000715514
2.95985e-05
4.47826e-06
1.28942e-06
1.19971e-06
1.20036e-06
1.19899e-06
1.19412e-06
1.19952e-06
1.19727e-06
1.20274e-06
1.19935e-06
1.19938e-06
1.19942e-06
1.19951e-06
1.19905e-06
1.19517e-06
0.0011975
0.00120029
0.00119902
0.00102742
0.000209102
3.29164e-05
4.67174e-06
1.20205e-06
1.20035e-06
1.20026e-06
1.19738e-06
1.19813e-06
1.1973e-06
1.19886e-06
1.17174e-06
1.20146e-06
1.1719e-06
1.17474e-06
1.17473e-06
1.19954e-06
1.19942e-06
1.19941e-06
1.1995e-06
1.19957e-06
1.20023e-06
0.00119589
0.00119829
0.00114734
0.000447788
0.000110799
7.12504e-05
2.40428e-06
1.20007e-06
1.20032e-06
1.19829e-06
1.19822e-06
1.19639e-06
1.19824e-06
1.19987e-06
1.16861e-06
1.16907e-06
1.20061e-06
1.16869e-06
1.15816e-06
1.15676e-06
1.16944e-06
1.17099e-06
1.17097e-06
1.20048e-06
1.19944e-06
1.19766e-06
1.19948e-06
1.19934e-06
1.20021e-06
0.00119233
0.00118556
0.000731435
0.000288702
0.000110571
5.3474e-05
1.76494e-06
1.2001e-06
1.19734e-06
1.19665e-06
1.19484e-06
1.19854e-06
1.20135e-06
1.18026e-06
1.17998e-06
1.17809e-06
1.17808e-06
1.16662e-06
1.1806e-06
1.20159e-06
1.20376e-06
1.16702e-06
1.17161e-06
1.17126e-06
1.18091e-06
1.18176e-06
1.18248e-06
1.20138e-06
1.19762e-06
1.19901e-06
1.19837e-06
1.1992e-06
1.20019e-06
0.00118851
0.00103721
0.000508142
0.000417513
0.000262557
2.78833e-05
1.56142e-06
1.19979e-06
1.19718e-06
1.19669e-06
1.19696e-06
1.20095e-06
1.17555e-06
1.1754e-06
1.17774e-06
1.17773e-06
1.18455e-06
1.18454e-06
1.18317e-06
1.18321e-06
1.18079e-06
1.04619e-06
1.11382e-06
1.05336e-06
1.10435e-06
1.2016e-06
1.2051e-06
1.1772e-06
1.17729e-06
1.17833e-06
1.1783e-06
1.18023e-06
1.17765e-06
1.17769e-06
1.04642e-06
1.11437e-06
1.05303e-06
1.10443e-06
1.05885e-06
1.10683e-06
1.06812e-06
1.11088e-06
1.05942e-06
1.11684e-06
1.06967e-06
1.11291e-06
1.19943e-06
1.19898e-06
1.19855e-06
1.1983e-06
1.19955e-06
1.20017e-06
0.00117603
0.000824858
0.000659225
0.00108837
0.000311722
1.79636e-05
1.35176e-06
1.19959e-06
1.19988e-06
1.19709e-06
1.20314e-06
1.17084e-06
1.17092e-06
1.1762e-06
1.17634e-06
1.18062e-06
1.18063e-06
1.17997e-06
1.18e-06
1.1389e-06
1.10386e-06
1.1001e-06
1.14111e-06
1.09099e-06
1.07026e-06
1.11334e-06
1.13837e-06
1.10008e-06
1.14198e-06
1.09101e-06
1.07001e-06
1.12664e-06
1.07254e-06
1.13508e-06
1.07242e-06
1.12736e-06
1.07257e-06
1.13527e-06
1.07237e-06
1.04126e-06
1.11101e-06
1.04586e-06
1.0973e-06
1.06489e-06
1.1273e-06
1.07127e-06
1.11986e-06
1.20032e-06
1.20225e-06
1.1797e-06
1.17953e-06
1.17788e-06
1.17795e-06
1.17804e-06
1.17812e-06
1.17907e-06
1.17908e-06
1.04461e-06
1.11658e-06
1.04843e-06
1.10198e-06
1.03655e-06
1.10459e-06
1.01755e-06
1.0916e-06
1.03657e-06
1.10445e-06
1.01746e-06
1.09046e-06
1.06501e-06
1.12741e-06
1.07122e-06
1.11988e-06
1.06809e-06
1.12016e-06
1.06818e-06
1.12084e-06
1.19925e-06
1.19723e-06
1.19859e-06
1.19941e-06
1.19952e-06
1.20015e-06
0.00112857
0.000872926
0.00114011
0.00117074
0.000280998
1.27636e-05
1.39224e-06
1.19928e-06
1.19962e-06
1.20272e-06
1.17303e-06
1.17328e-06
1.17511e-06
1.17505e-06
1.17954e-06
1.17958e-06
1.1789e-06
1.17892e-06
1.11978e-06
1.06594e-06
1.12399e-06
1.06103e-06
1.12183e-06
1.0659e-06
1.12408e-06
1.06101e-06
1.11108e-06
1.04741e-06
1.11471e-06
1.04701e-06
1.11068e-06
1.04731e-06
1.11461e-06
1.04744e-06
1.12472e-06
9.74152e-07
1.03641e-06
1.07919e-06
1.10277e-06
1.06118e-06
1.12515e-06
9.74228e-07
1.07903e-06
1.03653e-06
1.10491e-06
1.06118e-06
1.12146e-06
1.07357e-06
1.13379e-06
1.07185e-06
1.12229e-06
1.07357e-06
1.13419e-06
1.07172e-06
1.06425e-06
1.12902e-06
1.07185e-06
1.11847e-06
1.08688e-06
1.14683e-06
1.09353e-06
1.13942e-06
1.20082e-06
1.20001e-06
1.17518e-06
1.17515e-06
1.18235e-06
1.18238e-06
1.17566e-06
1.17532e-06
1.17892e-06
1.17909e-06
1.13095e-06
1.0649e-06
1.12219e-06
1.05735e-06
1.13049e-06
1.06448e-06
1.1225e-06
1.05751e-06
1.10808e-06
1.10947e-06
1.08011e-06
1.12602e-06
1.06221e-06
1.04635e-06
1.10558e-06
1.10951e-06
1.08008e-06
1.12573e-06
1.0622e-06
1.04593e-06
1.06564e-06
1.13285e-06
1.07272e-06
1.12219e-06
1.06197e-06
1.10765e-06
1.06197e-06
1.10761e-06
1.08692e-06
1.14684e-06
1.09328e-06
1.13937e-06
1.10305e-06
1.15311e-06
1.1032e-06
1.15324e-06
1.19758e-06
1.19932e-06
1.19933e-06
1.19938e-06
1.19954e-06
1.20014e-06
0.00113245
0.00113041
0.00118664
0.00118323
0.000250747
2.0002e-05
1.5555e-06
1.20584e-06
1.19951e-06
1.17377e-06
1.17377e-06
1.18073e-06
1.18072e-06
1.17077e-06
1.17074e-06
1.16954e-06
1.16954e-06
1.11256e-06
1.04771e-06
1.10998e-06
1.04955e-06
1.11217e-06
1.04761e-06
1.11001e-06
1.04957e-06
1.11081e-06
1.05053e-06
1.10419e-06
1.04787e-06
1.11084e-06
1.05045e-06
1.10406e-06
1.0478e-06
1.10793e-06
1.05803e-06
1.10777e-06
1.04407e-06
1.10997e-06
1.05796e-06
1.10642e-06
1.04393e-06
1.13282e-06
1.07535e-06
1.1233e-06
1.05294e-06
1.13228e-06
1.07528e-06
1.1217e-06
1.05412e-06
1.06443e-06
1.14821e-06
1.08431e-06
1.12188e-06
1.2003e-06
1.19911e-06
1.18152e-06
1.18143e-06
1.18106e-06
1.18108e-06
1.18701e-06
1.18701e-06
1.18403e-06
1.18398e-06
1.11486e-06
1.01713e-06
1.13161e-06
1.07119e-06
1.11594e-06
1.01658e-06
1.13212e-06
1.07115e-06
1.13687e-06
1.07153e-06
1.13312e-06
1.07254e-06
1.13467e-06
1.07105e-06
1.13343e-06
1.07248e-06
1.12638e-06
1.06383e-06
1.14321e-06
1.08014e-06
1.12542e-06
1.0637e-06
1.1435e-06
1.08041e-06
1.11919e-06
8.56755e-07
9.20843e-07
1.0647e-06
1.07367e-06
1.01385e-06
1.1223e-06
8.50271e-07
9.20923e-07
1.06436e-06
1.07367e-06
1.01384e-06
1.06465e-06
1.14907e-06
1.08561e-06
1.12283e-06
1.06121e-06
1.12212e-06
1.06116e-06
1.12251e-06
1.19966e-06
1.19934e-06
1.19932e-06
1.19936e-06
1.19959e-06
1.20011e-06
0.00115048
0.00118432
0.00119391
0.00118104
0.000263345
3.22142e-05
2.03186e-06
1.23869e-06
1.20127e-06
1.17151e-06
1.17151e-06
1.17128e-06
1.17123e-06
1.17885e-06
1.17891e-06
1.17744e-06
1.17761e-06
1.11706e-06
1.05996e-06
1.10466e-06
1.05552e-06
1.11656e-06
1.06001e-06
1.10438e-06
1.0555e-06
1.10428e-06
1.04366e-06
1.09997e-06
1.0459e-06
1.10405e-06
1.0435e-06
1.09969e-06
1.04575e-06
1.00914e-06
9.77188e-07
1.00705e-06
9.77173e-07
1.19976e-06
1.19958e-06
1.18804e-06
1.18803e-06
1.18153e-06
1.18151e-06
1.18507e-06
1.1851e-06
1.18463e-06
1.18461e-06
1.14349e-06
1.09214e-06
1.14138e-06
1.08684e-06
1.14308e-06
1.09209e-06
1.14081e-06
1.08627e-06
1.13607e-06
1.07988e-06
1.13538e-06
1.07504e-06
1.13615e-06
1.07969e-06
1.13502e-06
1.07438e-06
1.12266e-06
1.09782e-06
1.14661e-06
1.09092e-06
1.1239e-06
1.09661e-06
1.14705e-06
1.09075e-06
1.12208e-06
1.06108e-06
1.11714e-06
1.0584e-06
1.12013e-06
1.0609e-06
1.11715e-06
1.05818e-06
1.20031e-06
1.19938e-06
1.19932e-06
1.19935e-06
1.19964e-06
1.20008e-06
0.00115734
0.0011959
0.00119598
0.00118483
0.000408577
5.36505e-05
2.9258e-06
1.29892e-06
1.16462e-06
1.16538e-06
1.17946e-06
1.17982e-06
1.18245e-06
1.18257e-06
1.16712e-06
1.16716e-06
1.05333e-06
1.10942e-06
1.0575e-06
1.10858e-06
1.05333e-06
1.11783e-06
1.05581e-06
1.11593e-06
1.0594e-06
1.11134e-06
1.05099e-06
1.11039e-06
1.05945e-06
1.11135e-06
1.0514e-06
1.1099e-06
1.07997e-06
1.03537e-06
1.10731e-06
1.05492e-06
1.07906e-06
1.03384e-06
1.107e-06
1.05365e-06
1.12588e-06
1.06674e-06
1.11341e-06
1.04982e-06
1.12709e-06
1.06513e-06
1.11475e-06
1.04968e-06
1.20153e-06
1.19991e-06
1.20159e-06
1.18877e-06
1.18899e-06
1.18408e-06
1.18413e-06
1.18947e-06
1.19004e-06
1.18995e-06
1.19009e-06
1.14605e-06
1.11081e-06
1.14791e-06
1.10947e-06
1.14572e-06
1.11092e-06
1.14751e-06
1.1093e-06
1.14628e-06
1.10129e-06
1.14564e-06
1.10221e-06
1.14594e-06
1.10102e-06
1.14536e-06
1.10202e-06
1.04471e-06
1.02501e-06
1.0465e-06
1.02593e-06
1.20071e-06
1.19934e-06
1.19932e-06
1.19935e-06
1.19974e-06
1.20016e-06
0.00116442
0.00119716
0.00119542
0.00118992
0.000546092
7.50038e-05
4.77868e-06
1.52901e-06
1.17485e-06
1.16967e-06
1.18691e-06
1.18728e-06
1.10308e-06
1.04655e-06
1.05915e-06
1.11696e-06
1.103e-06
1.04687e-06
1.05928e-06
1.1171e-06
1.18104e-06
1.18039e-06
1.06089e-06
1.06828e-06
1.05481e-06
1.10997e-06
1.06084e-06
1.06536e-06
1.05481e-06
1.11109e-06
1.07812e-06
1.1145e-06
1.06026e-06
1.11818e-06
1.07815e-06
1.1165e-06
1.0603e-06
1.1225e-06
1.0239e-06
1.03355e-06
1.01908e-06
1.03355e-06
1.20224e-06
1.20062e-06
1.20016e-06
1.1842e-06
1.1845e-06
1.18873e-06
1.18916e-06
1.19116e-06
1.19202e-06
1.19007e-06
1.19087e-06
1.13738e-06
1.16566e-06
1.13852e-06
1.16456e-06
1.13813e-06
1.1663e-06
1.13876e-06
1.16495e-06
1.13366e-06
1.16269e-06
1.12325e-06
1.16426e-06
1.13392e-06
1.16208e-06
1.12265e-06
1.16434e-06
1.16099e-06
1.12578e-06
1.15108e-06
1.11733e-06
1.16045e-06
1.12582e-06
1.15107e-06
1.11721e-06
1.13544e-06
1.09659e-06
1.14478e-06
1.1065e-06
1.13554e-06
1.09633e-06
1.14485e-06
1.10641e-06
1.20026e-06
1.19932e-06
1.1993e-06
1.19949e-06
1.20001e-06
0.00117004
0.00119748
0.00119399
0.00119086
0.000744581
4.96794e-05
1.07663e-05
1.61654e-06
1.61741e-06
2.38358e-06
2.38527e-06
1.10373e-06
1.05135e-06
1.13406e-06
1.06069e-06
1.07142e-06
1.05075e-06
1.12902e-06
1.05985e-06
1.1804e-06
1.18021e-06
1.09909e-06
1.04618e-06
1.05269e-06
1.1077e-06
1.10023e-06
1.04622e-06
1.05274e-06
1.10774e-06
1.11929e-06
1.06293e-06
1.13292e-06
1.07638e-06
1.11291e-06
1.06326e-06
1.13106e-06
1.07638e-06
1.00355e-06
1.09661e-06
1.05678e-06
1.01017e-06
1.00908e-06
1.1064e-06
1.06034e-06
1.03663e-06
1.20229e-06
1.20141e-06
1.20012e-06
1.19162e-06
1.18583e-06
1.18615e-06
1.18607e-06
1.18636e-06
1.18387e-06
1.18544e-06
1.16299e-06
1.13396e-06
1.12323e-06
1.14381e-06
1.16512e-06
1.13385e-06
1.12295e-06
1.15612e-06
1.14344e-06
1.16535e-06
1.14176e-06
1.16781e-06
1.14361e-06
1.16568e-06
1.14206e-06
1.16795e-06
1.13283e-06
1.15198e-06
1.10461e-06
1.16033e-06
1.13257e-06
1.15194e-06
1.10371e-06
1.16024e-06
1.12233e-06
1.09344e-06
1.12207e-06
1.09348e-06
1.19985e-06
1.1993e-06
1.19937e-06
1.19994e-06
0.00117449
0.00119604
0.00119302
0.00119155
0.000464741
5.55471e-05
1.39683e-05
1.39139e-05
4.23025e-05
4.23522e-05
1.95794e-06
1.96365e-06
3.96196e-06
3.95381e-06
1.10317e-06
1.03805e-06
1.11059e-06
1.04443e-06
1.10366e-06
1.03815e-06
1.11068e-06
1.04443e-06
1.07347e-06
1.43583e-06
1.07456e-06
1.30732e-06
1.07329e-06
1.44348e-06
1.07558e-06
1.30867e-06
1.12042e-06
1.08082e-06
1.08302e-06
1.13003e-06
1.12186e-06
1.08107e-06
1.08306e-06
1.12959e-06
1.13143e-06
1.07092e-06
1.11055e-06
1.07343e-06
1.13192e-06
1.07104e-06
1.1064e-06
1.07336e-06
1.20153e-06
1.2024e-06
1.19981e-06
1.1954e-06
1.16729e-06
1.16735e-06
1.17282e-06
1.1728e-06
1.16807e-06
1.1681e-06
1.13581e-06
1.09972e-06
1.11373e-06
1.08182e-06
1.1373e-06
1.10179e-06
1.11488e-06
1.0828e-06
1.14904e-06
1.12244e-06
1.152e-06
1.11642e-06
1.13343e-06
1.10671e-06
1.14991e-06
1.12353e-06
1.15131e-06
1.11685e-06
1.13212e-06
1.10691e-06
1.15717e-06
1.12934e-06
1.15722e-06
1.1294e-06
1.0955e-06
1.14792e-06
1.12912e-06
1.11599e-06
1.09597e-06
1.14844e-06
1.12943e-06
1.11665e-06
1.19943e-06
1.19936e-06
1.19991e-06
0.00117767
0.00119532
0.00119474
0.00119173
0.000560836
0.000113038
1.58037e-05
1.58686e-05
5.50891e-05
5.53157e-05
2.83137e-06
1.56442e-06
1.83161e-06
3.66604e-06
2.06699e-06
1.15821e-06
1.57231e-06
2.7827e-06
1.1596e-06
1.75447e-06
3.55726e-06
1.98345e-06
7.56056e-06
5.67261e-06
5.67843e-06
3.80803e-06
7.67354e-06
6.03778e-06
5.60635e-06
3.78083e-06
1.13438e-06
1.04076e-06
1.15426e-06
1.05043e-06
1.134e-06
1.04126e-06
1.15404e-06
1.05065e-06
1.09689e-06
1.4589e-06
1.09648e-06
1.46066e-06
1.06659e-06
1.07787e-06
1.06653e-06
1.06968e-06
1.05459e-06
1.00639e-06
1.05411e-06
1.00737e-06
1.20016e-06
1.20248e-06
1.19973e-06
1.20029e-06
1.16667e-06
1.16766e-06
1.16663e-06
1.16786e-06
1.16816e-06
1.16773e-06
1.15494e-06
1.15502e-06
1.05965e-06
1.06454e-06
1.03288e-06
1.11084e-06
1.08469e-06
1.08437e-06
1.0603e-06
1.06479e-06
1.03324e-06
1.11091e-06
1.085e-06
1.08259e-06
1.13831e-06
1.1028e-06
1.1363e-06
1.10199e-06
1.13696e-06
1.1066e-06
1.12487e-06
1.1523e-06
1.09651e-06
1.11861e-06
1.13724e-06
1.1066e-06
1.12483e-06
1.15156e-06
1.09594e-06
1.11883e-06
1.14767e-06
1.12522e-06
1.14809e-06
1.1247e-06
1.19938e-06
1.19991e-06
0.00117966
0.0011962
0.00119493
0.00119022
0.000977314
0.000256179
0.000255549
0.000644899
0.000644473
1.94571e-05
1.97185e-05
9.26585e-05
9.28337e-05
1.72654e-06
3.92916e-06
1.73164e-06
1.17851e-06
5.35815e-06
2.6281e-06
1.72411e-06
3.68264e-06
1.15967e-06
1.57492e-06
5.13275e-06
2.37341e-06
8.05429e-06
5.37177e-06
5.40133e-06
3.14809e-06
8.30844e-06
5.65442e-06
5.25627e-06
3.09301e-06
1.15636e-06
1.00991e-06
1.14726e-06
1.00993e-06
1.1964e-06
1.20099e-06
1.20073e-06
1.19929e-06
1.19362e-06
1.17406e-06
1.17401e-06
1.18014e-06
1.17942e-06
1.07298e-06
1.0197e-06
1.09245e-06
1.04906e-06
1.07293e-06
1.01976e-06
1.09293e-06
1.05e-06
1.07323e-06
1.0647e-06
9.96302e-07
1.09244e-06
1.0456e-06
1.03823e-06
1.07237e-06
1.06442e-06
9.99503e-07
1.09331e-06
1.04738e-06
1.03858e-06
1.0346e-06
1.07984e-06
1.09341e-06
1.11736e-06
1.03392e-06
1.07996e-06
1.09412e-06
1.11698e-06
1.10421e-06
1.07008e-06
1.10495e-06
1.07073e-06
1.06413e-06
1.04072e-06
1.12666e-06
1.10671e-06
1.06568e-06
1.04165e-06
1.12696e-06
1.10663e-06
1.19992e-06
0.00118093
0.00119646
0.00119487
0.00118449
0.000934822
0.000509891
0.000503692
0.000917786
0.000918407
3.3561e-05
2.05012e-05
1.55675e-05
4.661e-05
3.40774e-05
2.19389e-05
1.76978e-05
4.86431e-05
0.000167564
0.000166994
7.70199e-06
5.63123e-06
5.47177e-06
3.42595e-06
7.92927e-06
5.43917e-06
5.37622e-06
3.35612e-06
1.1969e-06
1.19712e-06
1.20052e-06
1.19916e-06
1.20022e-06
1.14663e-06
1.14764e-06
1.15464e-06
1.15434e-06
1.16502e-06
1.16741e-06
1.1447e-06
1.14542e-06
1.04857e-06
1.03046e-06
1.09018e-06
1.04283e-06
1.04713e-06
1.02961e-06
1.09136e-06
1.0437e-06
1.07925e-06
1.034e-06
9.83181e-07
1.00792e-06
1.05701e-06
1.00747e-06
1.0772e-06
1.03289e-06
1.00809e-06
9.86065e-07
1.05755e-06
1.00788e-06
1.07384e-06
1.10378e-06
1.07585e-06
1.10046e-06
0.00118119
0.00119465
0.00119686
0.00110835
0.000819542
0.000827538
0.000840796
0.000845062
0.000746185
0.000748887
0.000834545
0.000843115
4.90613e-05
2.5264e-05
1.6471e-05
7.46186e-05
5.13542e-05
2.70684e-05
1.73688e-05
8.03552e-05
0.000414943
0.000327661
0.000225482
0.000187363
0.000413903
0.000330509
0.000228652
0.000192273
1.14538e-05
1.30251e-05
1.18747e-05
1.12341e-05
1.19571e-06
1.198e-06
1.19937e-06
1.19923e-06
1.19294e-06
1.1478e-06
1.15325e-06
1.16302e-06
1.16769e-06
1.13576e-06
1.13641e-06
9.8052e-07
1.06935e-06
1.0176e-06
1.00861e-06
9.81384e-07
1.06947e-06
1.01779e-06
1.00846e-06
1.08289e-06
1.03154e-06
1.06661e-06
1.02167e-06
1.08324e-06
1.03273e-06
1.06824e-06
1.02237e-06
0.00118083
0.00119483
0.00119514
0.00102734
0.000740323
0.000718484
0.000826267
0.000823929
0.000608194
0.000519166
0.000708488
0.00081711
0.000781106
0.000898293
0.000620376
0.000516871
0.000706153
0.000818157
0.00079353
0.000884659
0.000743907
0.000716232
8.56352e-05
4.06567e-05
4.12659e-05
0.000105154
8.3257e-05
4.16527e-05
3.81564e-05
0.000105831
0.000297997
0.000266071
0.000301853
0.000259816
1.1893e-06
1.19927e-06
1.19981e-06
1.19945e-06
1.14256e-06
1.14235e-06
1.15008e-06
1.15447e-06
1.15806e-06
1.16241e-06
1.13673e-06
1.13824e-06
1.00729e-06
9.59305e-07
1.04643e-06
9.68214e-07
1.00984e-06
1.01e-06
1.00709e-06
9.59033e-07
1.04483e-06
9.72679e-07
1.01005e-06
1.00989e-06
1.06618e-06
1.00583e-06
1.06823e-06
1.00514e-06
1.07666e-06
1.02464e-06
1.07703e-06
1.02483e-06
0.00117727
0.00119691
0.00119078
0.000972908
0.000987236
0.00109305
0.00109631
0.000665645
0.000642215
0.000768019
0.000770717
0.000810169
0.000793269
0.000780426
0.000808526
0.000808286
0.00092418
0.00081288
0.000793699
0.000828789
0.000831575
0.000814245
0.000930075
0.000914147
0.000562903
0.000907
0.000879814
0.000788689
0.000545066
0.000884102
0.000852119
1.19225e-06
1.2008e-06
1.20091e-06
1.18973e-06
1.14377e-06
1.14488e-06
1.16714e-06
1.17068e-06
1.12895e-06
1.13042e-06
1.00268e-06
9.83801e-07
9.59033e-07
1.03445e-06
9.71075e-07
9.9057e-07
9.58791e-07
1.03363e-06
9.70822e-07
9.91184e-07
9.99685e-07
9.84218e-07
1.07026e-06
1.01216e-06
9.80312e-07
9.42593e-07
1.07045e-06
1.00733e-06
9.80697e-07
9.48398e-07
9.64959e-07
9.2864e-07
9.66605e-07
9.28889e-07
0.00117716
0.00119082
0.0011779
0.000976941
0.00100464
0.00112483
0.00112535
0.000928799
0.000541182
0.000526304
0.000791578
0.000536771
0.000781223
0.000792059
0.00053704
0.000527185
0.000713271
0.000535971
0.000750597
0.000737134
0.000779318
0.000974838
0.000961218
0.000973757
0.00098734
0.000969519
0.000802611
0.000912999
0.000798807
1.20039e-06
1.20228e-06
1.20109e-06
1.14107e-06
1.14168e-06
1.16242e-06
1.16176e-06
1.15763e-06
1.16217e-06
1.1306e-06
1.13079e-06
9.91351e-07
9.66777e-07
1.03618e-06
9.87209e-07
9.7633e-07
9.88939e-07
9.91524e-07
9.76502e-07
9.89038e-07
9.66822e-07
1.03712e-06
9.8827e-07
9.60734e-07
9.13175e-07
1.06433e-06
9.87472e-07
1.06481e-06
9.57027e-07
9.87254e-07
9.13376e-07
0.00115385
0.000912577
5.1613e-05
0.00108859
0.00109487
0.00114096
0.00114069
0.000911568
0.00053151
0.000535662
0.000839483
0.000533638
0.000879128
0.000753263
0.000530765
0.000529512
0.000755223
0.000520706
0.000862222
0.000975616
0.000914794
0.000930235
0.000641095
0.00101703
0.000925895
0.000961811
0.000688063
0.000938315
0.000657761
0.000825448
0.000637563
1.20063e-06
1.20373e-06
1.19684e-06
1.14879e-06
1.15042e-06
1.17577e-06
1.17569e-06
1.12526e-06
1.12886e-06
9.74227e-07
9.79346e-07
9.50287e-07
1.04293e-06
9.55964e-07
9.81116e-07
9.72821e-07
9.8052e-07
9.50763e-07
1.04308e-06
9.58254e-07
9.82221e-07
1.03267e-06
9.55121e-07
9.75981e-07
9.28121e-07
9.54078e-07
9.2899e-07
1.03319e-06
9.76298e-07
0.000855368
5.29118e-05
2.39581e-05
3.77491e-05
3.49045e-05
2.08414e-05
4.30401e-05
3.96515e-05
5.53512e-05
0.00109841
0.000936308
6.26719e-05
0.00110935
0.000943385
0.000839368
0.000490695
0.000533614
0.00092638
0.000590462
0.000940781
0.000732481
0.000490433
0.000538293
0.000879144
0.000582247
0.000922436
0.00105756
0.000716563
0.00107361
0.000739981
1.20084e-06
1.20527e-06
1.19027e-06
1.15661e-06
1.15666e-06
1.14109e-06
1.14207e-06
9.99049e-07
9.56975e-07
1.0667e-06
9.83756e-07
1.00785e-06
9.82168e-07
1.00078e-06
1.01109e-06
9.83685e-07
9.57396e-07
1.07092e-06
9.84762e-07
9.89276e-07
9.71621e-07
1.05515e-06
9.60905e-07
9.90439e-07
9.74644e-07
1.05882e-06
9.61269e-07
9.37875e-07
8.92394e-07
9.39024e-07
8.92924e-07
0.000128467
0.000168811
1.53005e-05
0.000235829
1.29662e-05
0.000268943
0.000740954
0.00104752
1.13083e-05
0.000160757
8.70001e-05
0.00105982
0.00103479
7.77924e-06
1.1947e-05
9.49276e-06
0.000159983
1.14345e-05
8.5012e-05
0.00109672
0.00106461
8.93005e-06
1.32276e-05
8.68025e-06
0.00061753
0.000988379
0.000643808
0.000988133
0.00103119
0.000619556
0.0010507
0.000625798
1.20114e-06
1.20798e-06
1.14787e-06
1.14971e-06
1.15085e-06
1.14964e-06
1.15527e-06
1.15506e-06
1.12512e-06
1.02519e-06
9.73539e-07
1.12551e-06
1.02613e-06
9.74384e-07
1.06858e-06
1.0778e-06
9.99545e-07
9.95248e-07
1.07148e-06
1.00092e-06
1.07963e-06
9.96688e-07
9.76098e-07
9.75041e-07
1.00403e-06
9.43218e-07
9.79029e-07
9.75736e-07
1.00837e-06
9.43443e-07
0.000719066
0.00117038
0.000115115
1.12627e-05
1.26766e-05
0.00114968
0.00012877
8.03043e-06
1.26812e-05
0.00115008
0.0011498
0.00115049
1.20624e-05
9.75793e-06
0.000934935
0.000366636
8.34755e-06
6.74909e-06
1.2032e-05
0.000957323
9.78889e-06
0.000371458
8.96808e-06
6.74679e-06
0.000586509
0.000974738
0.000591419
0.00099047
1.20153e-06
1.20455e-06
1.15298e-06
1.14652e-06
1.14768e-06
1.15427e-06
1.1739e-06
1.17075e-06
1.04859e-06
1.02117e-06
9.86604e-07
1.02051e-06
9.89869e-07
9.65366e-07
1.00556e-06
9.62362e-07
1.04836e-06
1.02207e-06
9.87334e-07
1.02232e-06
9.90449e-07
9.67818e-07
1.00525e-06
9.63101e-07
1.05413e-06
1.02435e-06
9.92447e-07
9.63183e-07
1.05442e-06
9.92678e-07
1.02584e-06
9.6382e-07
0.00116038
0.00117157
0.00117743
0.00117747
0.00117187
0.00118022
0.00118008
0.00102669
3.97324e-05
0.000190052
0.000221668
4.01787e-05
0.000979346
0.000963023
0.000903785
0.00117195
0.00108013
0.00102874
0.00102593
5.02415e-05
0.000192143
0.000203072
3.89993e-05
0.000982054
0.000959524
0.00090712
0.00117185
0.00108058
0.00102867
8.73057e-06
2.50004e-05
6.46923e-06
1.79306e-05
8.73891e-06
2.49637e-05
6.48208e-06
1.87711e-05
1.20175e-06
1.1991e-06
1.14583e-06
1.14445e-06
9.75182e-07
1.04207e-06
1.14766e-06
9.75953e-07
1.03935e-06
1.14602e-06
1.14655e-06
1.14413e-06
1.02627e-06
1.07385e-06
1.00482e-06
9.7931e-07
9.45306e-07
9.71508e-07
1.03077e-06
1.07443e-06
1.0045e-06
9.45782e-07
9.80059e-07
9.72713e-07
9.51431e-07
9.03043e-07
9.5177e-07
9.03355e-07
0.00117112
0.00117194
0.00118384
0.0011718
0.00118402
0.00118745
0.00118728
0.000104779
0.000736571
0.000677087