/*--------------------------------*- C++ -*----------------------------------*\
| =========                 |                                                 |
| \\      /  F ield         | OpenFOAM: The Open Source CFD Toolbox           |
|  \\    /   O peration     | Version:  5.x                                   |
|   \\  /    A nd           | Web:      www.OpenFOAM.org                      |
|    \\/     M anipulation  |                                                 |
\*---------------------------------------------------------------------------*/
FoamFile
{
    version     2.0;
    format      ascii;
    class       volVectorField;
    location    "2.1";
    object      U;
}
// * * * * * * * * * * * * * * * * * * * * * * * * * * * * * * * * * * * * * //

dimensions      [0 1 -1 0 0 0 0];

internalField   nonuniform List<vector> 
12160
(
(0.160999 0 0.000138021)
(0.149027 0 0.00144643)
(0.160955 0 -0.00256945)
(0.155702 0 0.00336464)
(0.148919 0 -0.00376076)
(0.160468 0 -0.00193582)
(0.153461 0 0.00445565)
(0.155531 0 -0.00334786)
(0.14817 0 -0.000612149)
(0.159837 0 -0.00469737)
(0.147854 0 0.00449369)
(0.153279 0 -0.00126795)
(0.155406 0 0.00354413)
(0.147007 0 -0.00642205)
(0.158709 0 -0.00245619)
(0.140742 0 0.00414565)
(0.147144 0 0.000599054)
(0.153389 0 0.008089)
(0.153386 0 -0.00375659)
(0.145196 0 -0.00205938)
(0.156656 0 -0.00512352)
(0.133731 0 0.00372735)
(0.140469 0 0.00194841)
(0.147864 0 0.0095327)
(0.151005 0 0.00163046)
(0.15288 0 0.00435655)
(0.141201 0 -0.00911418)
(0.154762 0 0.000850368)
(0.1262 0 0.00360181)
(0.133691 0 0.00261074)
(0.141196 0 0.0100392)
(0.144867 0 0.00542636)
(0.150929 0 0.0114427)
(0.147283 0 -0.00402001)
(0.138743 0 -0.00216699)
(0.148289 0 -0.00102674)
(0.117434 0 0.0037067)
(0.126419 0 0.00366246)
(0.134205 0 0.00991455)
(0.13959 0 0.00769202)
(0.145911 0 0.0141732)
(0.143851 0 0.00396186)
(0.147659 0 0.00636085)
(0.121593 0 -0.0117259)
(0.083241 0 0.0155129)
(0.106906 0 0.00407076)
(0.117876 0 0.00492481)
(0.127262 0 0.0106867)
(0.133418 0 0.00865113)
(0.141055 0 0.0153504)
(0.140662 0 0.00907969)
(0.145039 0 0.0130495)
(0.129657 0 -0.00400365)
(0.0621035 0 0.000889803)
(-0.186447 0 -0.067116)
(0.0941962 0 0.00456082)
(0.107502 0 0.00655961)
(0.118915 0 0.0122421)
(0.127418 0 0.0103759)
(0.135115 0 0.0153931)
(0.138161 0 0.0122317)
(0.142407 0 0.0165778)
(0.127819 0 0.00522166)
(0.0819491 0 0.00711366)
(-0.210435 0 -0.0147996)
(-0.000693497 0 0.156506)
(0.0793801 0 0.00503243)
(0.0948229 0 0.00832829)
(0.108692 0 0.0147324)
(0.119752 0 0.0130754)
(0.12909 0 0.0168925)
(0.133987 0 0.0137869)
(0.139618 0 0.0187922)
(0.130161 0 0.0117948)
(0.105241 0 0.0101343)
(-0.29161 0 -0.018084)
(0.267909 0 0.0365301)
(0.00342186 0 -0.16182)
(0.0631284 0 0.00533073)
(0.0799034 0 0.00990679)
(0.0959908 0 0.0176508)
(0.110013 0 0.0168486)
(0.121651 0 0.0201444)
(0.129411 0 0.0162296)
(0.135219 0 0.0195294)
(0.132773 0 0.0162315)
(0.117971 0 0.013074)
(-0.27244 0 -0.0102643)
(0.00263426 0 0.0334908)
(0.117171 0 0.0053171)
(-0.101093 0 0.0890676)
(0.0461981 0 0.00527508)
(0.0633828 0 0.0109435)
(0.0808291 0 0.0203588)
(0.097457 0 0.0211434)
(0.112321 0 0.025062)
(0.123373 0 0.0203466)
(0.130861 0 0.0215753)
(0.132647 0 0.0178772)
(0.134129 0 0.0159739)
(-0.220295 0 0.000217566)
(-0.0647733 0 -0.0153967)
(0.0654121 0 0.120506)
(-0.13397 0 0.000916694)
(0.055891 0 -0.0496272)
(0.0301982 0 0.00480786)
(0.0461487 0 0.0111495)
(0.0639114 0 0.0221338)
(0.0820057 0 0.0251038)
(0.0998574 0 0.0309746)
(0.115034 0 0.0265958)
(0.125289 0 0.0262916)
(0.132132 0 0.0208398)
(0.143964 0 0.0174799)
(-0.137907 0 0.00688332)
(-0.114452 0 -0.0426674)
(0.0616858 0 0.0366764)
(-0.0260421 0 0.0451672)
(0.0836724 0 -0.00986769)
(-0.0609859 0 0.0185613)
(0.0159541 0 0.00408644)
(0.0296804 0 0.0104563)
(0.0462905 0 0.0223935)
(0.0643164 0 0.0277249)
(0.0839999 0 0.0365996)
(0.102896 0 0.0342976)
(0.117727 0 0.0338075)
(0.130112 0 0.0263925)
(0.154899 0 0.0209215)
(-0.0742913 0 0.00972385)
(-0.124277 0 -0.0389756)
(0.0412997 0 0.0126826)
(0.0112804 0 -0.00675551)
(0.0493969 0 0.0735643)
(-0.0920672 0 -0.00880487)
(0.00408029 0 0.0032273)
(0.0150508 0 0.00913305)
(0.0292486 0 0.020918)
(0.0455626 0 0.0282264)
(0.0654318 0 0.0404193)
(0.08651 0 0.041716)
(0.105905 0 0.0433304)
(0.125476 0 0.0361692)
(0.16511 0 0.0273061)
(0.0170378 0 0.0117705)
(-0.144325 0 -0.0423683)
(0.0316694 0 0.00856698)
(0.00483858 0 -0.0181808)
(0.0303965 0 0.0231953)
(-0.0363836 0 0.0499871)
(-0.00424948 0 0.00227558)
(0.00318732 0 0.0070005)
(0.0140327 0 0.0180143)
(0.0274272 0 0.0264272)
(0.0457562 0 0.0413012)
(0.0664948 0 0.0467768)
(0.088885 0 0.052732)
(0.115319 0 0.049476)
(0.171203 0 0.038609)
(0.0974565 0 0.0193773)
(-0.151773 0 -0.0469906)
(0.0321896 0 0.00883028)
(0.00876488 0 -0.0272208)
(0.00995339 0 0.00890592)
(-0.0124533 0 0.00877222)
(-0.00890074 0 0.00139565)
(-0.00512902 0 0.00443639)
(0.00163814 0 0.0140244)
(0.0114108 0 0.0227042)
(0.0265276 0 0.0388774)
(0.0448821 0 0.0478999)
(0.0673152 0 0.0592704)
(0.0982261 0 0.0628328)
(0.166974 0 0.0534097)
(0.152485 0 0.0361048)
(-0.133692 0 -0.031536)
(0.03588 0 -0.00927967)
(0.0131849 0 -0.0304383)
(0.00117139 0 -0.00475949)
(-0.000422259 0 -0.000701739)
(-0.0102674 0 0.000703218)
(-0.00965904 0 0.00178709)
(-0.00695898 0 0.00955939)
(-0.00130626 0 0.0171693)
(0.00927277 0 0.033528)
(0.02356 0 0.0447748)
(0.0438546 0 0.0611265)
(0.0746533 0 0.0723388)
(0.151924 0 0.068137)
(0.178826 0 0.058748)
(-0.000599735 0 -0.00144137)
(0.0358238 0 -0.048496)
(0.0185068 0 -0.0323857)
(-0.00381261 0 -0.00802753)
(0.00507773 0 -0.0126933)
(-0.00876881 0 -5.84267e-05)
(-0.0109897 0 -0.000847674)
(-0.0116997 0 0.00508157)
(-0.00992538 0 0.010838)
(-0.00450093 0 0.0258842)
(0.0047478 0 0.0379755)
(0.0209355 0 0.0581352)
(0.0474646 0 0.0750058)
(0.127013 0 0.0785708)
(0.176911 0 0.0816767)
(0.0950105 0 0.0444409)
(0.0325108 0 -0.064044)
(0.0107526 0 -0.0255096)
(-0.00402602 0 -0.0216659)
(0.00724161 0 -0.0161247)
(-0.00482997 0 -0.000711538)
(-0.00950444 0 -0.00314359)
(-0.0129388 0 0.000925537)
(-0.0143684 0 0.00444741)
(-0.0136537 0 0.0174128)
(-0.00968926 0 0.0282405)
(0.000262479 0 0.050669)
(0.0193612 0 0.0703982)
(0.095035 0 0.0821527)
(0.15148 0 0.0994807)
(0.131074 0 0.0856124)
(0.0400093 0 -0.00395889)
(-0.0183541 0 -0.0133597)
(-0.00749722 0 -0.0329679)
(0.00750182 0 -0.0227852)
(0.00121237 0 -0.00126058)
(-0.00548691 0 -0.00516832)
(-0.0111595 0 -0.00294287)
(-0.0154428 0 -0.00153578)
(-0.0183408 0 0.00892212)
(-0.0188031 0 0.0173689)
(-0.0157004 0 0.0391971)
(-0.00617643 0 0.0588383)
(0.0594694 0 0.0786109)
(0.11263 0 0.107418)
(0.121923 0 0.113172)
(0.0623008 0 0.0704576)
(-0.037393 0 0.0199447)
(-0.0126481 0 -0.0294231)
(0.0037225 0 -0.0249551)
(0.00888902 0 -0.00171452)
(0.000639768 0 -0.00684838)
(-0.00692595 0 -0.00628421)
(-0.0135763 0 -0.00696965)
(-0.0191709 0 0.000934557)
(-0.0231114 0 0.00673022)
(-0.0253749 0 0.0257092)
(-0.0246026 0 0.0417784)
(0.0282577 0 0.0674799)
(0.0759118 0 0.102894)
(0.07827 0 0.123835)
(0.083853 0 0.130279)
(-0.0253296 0 0.0560268)
(-0.019132 0 0.00911785)
(-0.00744534 0 -0.0160562)
(0.0177108 0 -0.00206645)
(0.00841318 0 -0.00825916)
(-0.000579468 0 -0.00903947)
(-0.00898923 0 -0.0117072)
(-0.0168247 0 -0.00621968)
(-0.0236544 0 -0.00281875)
(-0.0293599 0 0.0123948)
(-0.0351199 0 0.023702)
(0.0043191 0 0.0516289)
(0.0465774 0 0.0855626)
(0.00890965 0 0.115906)
(0.104659 0 0.165469)
(0.00469792 0 0.0910849)
(-0.0210785 0 0.0546081)
(-0.0150886 0 0.0157384)
(0.0273396 0 -0.00228761)
(0.0173611 0 -0.00933873)
(0.0074089 0 -0.0113443)
(-0.00231232 0 -0.0157433)
(-0.0119159 0 -0.0123677)
(-0.02095 0 -0.0113184)
(-0.0290036 0 3.86038e-05)
(-0.0393847 0 0.00762699)
(-0.0128198 0 0.0343182)
(0.025991 0 0.0608677)
(-0.0500359 0 0.0958772)
(0.122992 0 0.169118)
(0.0414979 0 0.111478)
(-0.0128525 0 0.0922118)
(-0.0128691 0 0.0525302)
(0.0374197 0 -0.00240503)
(0.0271198 0 -0.0100747)
(0.0166022 0 -0.0130908)
(0.00602199 0 -0.0190723)
(-0.00485543 0 -0.0174534)
(-0.015356 0 -0.0186549)
(-0.0254016 0 -0.0111952)
(-0.0394592 0 -0.00511061)
(-0.0226876 0 0.0160786)
(0.0183573 0 0.0362225)
(-0.0711197 0 0.0676154)
(0.137885 0 0.133043)
(0.0792154 0 0.110207)
(-0.00116818 0 0.116785)
(-0.010288 0 0.0859211)
(0.0475694 0 -0.0023684)
(0.0373406 0 -0.0104542)
(0.0266299 0 -0.0143416)
(0.0155771 0 -0.0216161)
(0.0039309 0 -0.0214797)
(-0.00759018 0 -0.0249474)
(-0.0192419 0 -0.0208463)
(-0.0359632 0 -0.0161913)
(-0.0271274 0 -0.00179827)
(0.0168231 0 0.016166)
(-0.0640218 0 0.0400462)
(0.122033 0 0.0772007)
(0.111785 0 0.101939)
(0.00956703 0 0.117963)
(-0.0037006 0 0.106813)
(0.0573944 0 -0.00219991)
(0.0476487 0 -0.0105161)
(0.0371095 0 -0.0149735)
(0.0259963 0 -0.0233392)
(0.0140198 0 -0.0247414)
(0.00171097 0 -0.0302178)
(-0.0110632 0 -0.0285573)
(-0.0290868 0 -0.0257193)
(-0.0273853 0 -0.017986)
(0.0170608 0 -0.00141751)
(-0.0462241 0 0.0165554)
(0.0573249 0 0.029651)
(0.130854 0 0.102098)
(0.0142022 0 0.094385)
(0.00418071 0 0.108936)
(0.0665768 0 -0.00194029)
(0.0576212 0 -0.010258)
(0.0476598 0 -0.0149975)
(0.0369669 0 -0.0242508)
(0.0249867 0 -0.0270331)
(0.0122152 0 -0.0345745)
(-0.00149093 0 -0.034361)
(-0.0190362 0 -0.0337876)
(-0.0234721 0 -0.0322376)
(0.0152765 0 -0.0149054)
(-0.0280598 0 -0.00113687)
(-0.0148332 0 -0.00299046)
(0.149834 0 0.0993613)
(0.0248685 0 0.064124)
(0.0103183 0 0.094978)
(0.0748293 0 -0.00165937)
(0.0669162 0 -0.00964735)
(0.0579317 0 -0.0144043)
(0.048054 0 -0.0243595)
(0.036426 0 -0.0282695)
(0.0237918 0 -0.0376434)
(0.00943364 0 -0.0390712)
(-0.00585626 0 -0.0407567)
(-0.0170819 0 -0.0444458)
(0.0106513 0 -0.0261236)
(-0.0152718 0 -0.0150331)
(-0.0550745 0 -0.0184432)
(0.158207 0 0.0679216)
(0.0468339 0 0.0380552)
(0.00672428 0 0.0756427)
(0.0819438 0 -0.00129508)
(0.0752574 0 -0.00873813)
(0.0675757 0 -0.013266)
(0.0587976 0 -0.0236798)
(0.0479585 0 -0.0283638)
(0.0360869 0 -0.039298)
(0.0218718 0 -0.0423472)
(0.00925004 0 -0.047069)
(-0.00746792 0 -0.0538395)
(0.00336634 0 -0.0361304)
(-0.0105582 0 -0.0260766)
(-0.0629245 0 -0.0266332)
(0.149745 0 0.0225525)
(0.0668989 0 0.0189976)
(-0.00296156 0 0.055719)
(0.08776 0 -0.000887335)
(0.082422 0 -0.00759067)
(0.0762155 0 -0.0116913)
(0.0687768 0 -0.0221845)
(0.0592675 0 -0.0272505)
(0.0486617 0 -0.0395903)
(0.035164 0 -0.0440566)
(0.0244726 0 -0.0520561)
(0.00323057 0 -0.0599323)
(-0.00847245 0 -0.0447632)
(-0.012086 0 -0.0339867)
(-0.0569794 0 -0.0304234)
(0.122877 0 -0.0138102)
(0.0750048 0 0.00959557)
(-0.00906585 0 0.0326438)
(0.0921642 0 -0.000429345)
(0.0882629 0 -0.00627177)
(0.0835963 0 -0.00978761)
(0.0776787 0 -0.0199842)
(0.0699416 0 -0.0250601)
(0.0609201 0 -0.0386334)
(0.0484971 0 -0.0439394)
(0.0387056 0 -0.0551111)
(0.0125692 0 -0.0623851)
(-0.0201543 0 -0.050747)
(-0.018507 0 -0.0403988)
(-0.0450428 0 -0.0340378)
(0.0774967 0 -0.0347494)
(0.0721877 0 0.0119228)
(-0.00950325 0 0.0116984)
(0.0951339 0 7.54034e-05)
(0.0927244 0 -0.00484365)
(0.0895842 0 -0.00762834)
(0.0852912 0 -0.0172184)
(0.0794745 0 -0.0219735)
(0.0722645 0 -0.0363153)
(0.0616601 0 -0.0418475)
(0.0530303 0 -0.0568842)
(0.0222493 0 -0.0623892)
(-0.0247623 0 -0.0555493)
(-0.0223967 0 -0.0507868)
(-0.0261625 0 -0.0426979)
(0.0344944 0 -0.0523193)
(0.0588673 0 0.00986967)
(-0.00564911 0 0.00179222)
(0.0966042 0 0.000675644)
(0.0958053 0 -0.00335757)
(0.0941119 0 -0.00533826)
(0.0914342 0 -0.0141138)
(0.0875024 0 -0.0182409)
(0.0822855 0 -0.0326784)
(0.0742501 0 -0.0379895)
(0.0669963 0 -0.0568372)
(0.0311053 0 -0.0599059)
(-0.023593 0 -0.05962)
(-0.0183183 0 -0.060568)
(-0.000403674 0 -0.0545023)
(0.0040982 0 -0.0709546)
(0.0351533 0 -0.00433512)
(-0.00141433 0 -0.00267094)
(0.0966554 0 0.00138269)
(0.0974441 0 -0.00185471)
(0.0971617 0 -0.00284588)
(0.0961611 0 -0.0108308)
(0.0939038 0 -0.0142072)
(0.0906664 0 -0.0280394)
(0.0854343 0 -0.0327734)
(0.0794537 0 -0.0540822)
(0.038888 0 -0.0552337)
(-0.0155012 0 -0.0625536)
(-0.0034699 0 -0.0687033)
(0.0205488 0 -0.0706358)
(-0.0203312 0 -0.0817881)
(0.0132659 0 -0.022536)
(0.00327912 0 -0.01309)
(0.0951974 0 0.00196759)
(0.0975834 0 -0.000365928)
(0.0986754 0 -0.000149317)
(0.0995691 0 -0.00733516)
(0.098784 0 -0.0100494)
(0.0973049 0 -0.0231653)
(0.0943293 0 -0.0268638)
(0.0887639 0 -0.0481211)
(0.0453351 0 -0.0483006)
(0.00209244 0 -0.0633076)
(0.025535 0 -0.0765189)
(0.0431361 0 -0.0898588)
(-0.0605806 0 -0.0912251)
(-0.00667447 0 -0.028785)
(0.0037358 0 -0.028842)
(0.0925621 0 0.00248924)
(0.0961584 0 0.00116389)
(0.09886 0 0.00275016)
(0.101546 0 -0.00369363)
(0.102178 0 -0.00561418)
(0.102527 0 -0.0180238)
(0.101129 0 -0.020698)
(0.0946225 0 -0.0401884)
(0.0502967 0 -0.0393067)
(0.0298022 0 -0.0606048)
(0.0677734 0 -0.0837363)
(0.0567467 0 -0.110613)
(-0.100914 0 -0.0999691)
(-0.027689 0 -0.0348157)
(0.00176461 0 -0.0388111)
(0.0884686 0 0.00291239)
(0.0935962 0 0.00257379)
(0.0975723 0 0.00550982)
(0.101807 0 -1.61768e-05)
(0.103935 0 -0.000763772)
(0.10656 0 -0.0124517)
(0.106349 0 -0.0150676)
(0.0969899 0 -0.0331694)
(0.0506861 0 -0.0300549)
(0.0678861 0 -0.0529125)
(0.1257 0 -0.0906012)
(0.0450415 0 -0.127516)
(-0.128371 0 -0.0922737)
(-0.0393791 0 -0.0543383)
(0.0070188 0 -0.0510531)
(0.0893941 0 0.00358572)
(0.0818532 0 0.00377585)
(0.0949488 0 0.00818404)
(0.100337 0 0.00367301)
(0.104258 0 0.00446381)
(0.109222 0 -0.00636676)
(0.110168 0 -0.00892536)
(0.0975171 0 -0.0257566)
(0.0465669 0 -0.0231773)
(0.114407 0 -0.0409477)
(0.191354 0 -0.0932815)
(-0.0122969 0 -0.135246)
(-0.13722 0 -0.0615901)
(-0.0411665 0 -0.0793946)
(0.013649 0 -0.0701329)
(0.0906661 0 0.0103862)
(0.0822455 0 0.00545522)
(0.0641706 0 0.00399131)
(0.0975506 0 0.00719208)
(0.102958 0 0.00972572)
(0.109904 0 -5.18526e-05)
(0.112141 0 -0.00193368)
(0.0971754 0 -0.0176084)
(0.0427294 0 -0.0174892)
(0.159199 0 -0.0291543)
(0.242103 0 -0.0843806)
(-0.0857873 0 -0.117695)
(-0.129487 0 -0.0334144)
(-0.0392881 0 -0.100319)
(0.0171409 0 -0.0846904)
(0.0932178 0 0.0101654)
(0.0830069 0 0.0140216)
(0.0641616 0 0.00629002)
(0.0554494 0 0.00372997)
(0.0999296 0 0.0147934)
(0.108447 0 0.00614024)
(0.112166 0 0.00598019)
(0.0961032 0 -0.00871626)
(0.0428591 0 -0.0104787)
(0.196782 0 -0.0230822)
(0.256055 0 -0.071056)
(-0.153688 0 -0.0743888)
(-0.117643 0 -0.028391)
(-0.0310509 0 -0.110262)
(0.0177676 0 -0.0879499)
(0.0953374 0 0.0192577)
(0.0847557 0 0.0148977)
(0.0641558 0 0.0155895)
(0.0540979 0 0.00575869)
(0.0384141 0 0.00143206)
(0.105202 0 0.0118958)
(0.110015 0 0.0146346)
(0.0938319 0 0.000645054)
(0.0458224 0 -0.00108785)
(0.224532 0 -0.0193504)
(0.237709 0 -0.056344)
(-0.182372 0 -0.034812)
(-0.100487 0 -0.037446)
(-0.0179133 0 -0.102901)
(0.0116858 0 -0.0818689)
(0.100473 0 0.0170373)
(0.0862435 0 0.0263335)
(0.0643932 0 0.0172565)
(0.0533495 0 0.0150796)
(0.0346218 0 0.000662959)
(0.0512154 0 -0.0026379)
(0.105754 0 0.0227764)
(0.0892941 0 0.00955433)
(0.0506145 0 0.00987638)
(0.251142 0 -0.0140723)
(0.198095 0 -0.0402364)
(-0.177278 0 0.00439877)
(-0.0853107 0 -0.0468692)
(-0.0103829 0 -0.0804448)
(4.34725e-05 0 -0.0734318)
(0.0999235 0 0.0304349)
(0.0898113 0 0.0250392)
(0.0647089 0 0.0302134)
(0.0507951 0 0.0166464)
(0.0331131 0 0.00677201)
(0.0437506 0 -0.0079868)
(0.0607187 0 -0.0123229)
(0.0831587 0 0.0172343)
(0.054853 0 0.0211627)
(0.271747 0 -0.00509652)
(0.139351 0 -0.0261005)
(-0.167912 0 0.0381132)
(-0.0784638 0 -0.0498121)
(-0.0101194 0 -0.0549883)
(-0.00825144 0 -0.0627521)
(0.0752562 0 0.0244688)
(0.0877633 0 0.0420822)
(0.0654682 0 0.0304266)
(0.0490748 0 0.0298103)
(0.0273891 0 0.00755541)
(0.037889 0 -0.00443126)
(0.0399146 0 -0.0300316)
(0.131275 0 -0.00956301)
(0.0578812 0 0.031454)
(0.272735 0 0.00681198)
(0.0747202 0 -0.000639232)
(-0.159964 0 0.0592529)
(-0.0683742 0 -0.0408325)
(-0.00825361 0 -0.0272438)
(-0.0109008 0 -0.0495839)
(0.0566671 0 0.0413993)
(0.0611333 0 0.0356832)
(0.0605586 0 0.0498153)
(0.0469979 0 0.0304872)
(0.0235139 0 0.0208955)
(0.0225794 0 -0.00582788)
(0.0246182 0 -0.040643)
(0.102914 0 -0.0521088)
(0.169933 0 -0.0376211)
(0.259052 0 0.0189501)
(0.0236907 0 0.0386748)
(-0.148568 0 0.0662486)
(-0.0492178 0 -0.0219834)
(-0.0064613 0 -0.00150617)
(-0.013575 0 -0.0333974)
(0.235071 0 0.0281668)
(0.0594844 0 0.0553195)
(0.0337318 0 0.0447572)
(0.0398253 0 0.0496392)
(0.0179837 0 0.0236845)
(0.0108047 0 0.00742502)
(0.00223904 0 -0.0444642)
(0.0624997 0 -0.0716386)
(0.140338 0 -0.081451)
(0.34087 0 -0.00318659)
(-0.00253133 0 0.0616647)
(-0.129895 0 0.059673)
(-0.0307426 0 -0.00336714)
(-0.0130013 0 0.0176116)
(-0.0150991 0 -0.0172071)
(-0.0248482 0 0.0690893)
(0.208912 0 0.0466606)
(0.0410473 0 0.0665285)
(0.0117648 0 0.0457431)
(0.00877392 0 0.0454244)
(-0.00205687 0 0.0110632)
(-0.0152973 0 -0.0327805)
(0.014733 0 -0.0990123)
(0.111826 0 -0.128286)
(0.284308 0 -0.0118263)
(0.166987 0 0.0187211)
(-0.108695 0 0.0548726)
(-0.0201041 0 0.0156477)
(-0.0208962 0 0.0303965)
(-0.00897478 0 -0.00132707)
(-0.0915921 0 0.0587682)
(-0.0332138 0 0.0944036)
(0.135705 0 0.0683338)
(0.0160636 0 0.0677595)
(-0.0193462 0 0.0457826)
(-0.0175916 0 0.0375059)
(-0.0438857 0 -0.021998)
(-0.0374228 0 -0.0919276)
(0.0390646 0 -0.158463)
(0.184498 0 -0.067485)
(0.196871 0 0.0314725)
(0.317817 0 1.48776)
(-0.0201384 0 0.0325122)
(-0.022626 0 0.0391673)
(-0.000667817 0 0.0147492)
(-0.0229066 0 0.0490129)
(-0.0799577 0 0.0591204)
(-0.0309151 0 0.121491)
(0.0670539 0 0.0737137)
(-0.0221929 0 0.0704471)
(-0.0485524 0 0.0419447)
(-0.0657841 0 0.0227306)
(-0.10138 0 -0.0703875)
(-0.0619502 0 -0.186716)
(0.118253 0 -0.155234)
(0.293657 0 0.0474667)
(0.326682 0 1.22727)
(0.544215 2.12202e-27 1.60346)
(0.194775 0 1.83488)
(-0.0225399 0 0.0465367)
(0.00306171 0 0.0292279)
(-0.0205807 0 0.0579129)
(-0.029542 0 0.0778067)
(-0.0888979 0 0.0837797)
(-0.0585414 0 0.12555)
(0.00429009 0 0.0823927)
(-0.0607305 0 0.0670973)
(-0.0897747 0 0.042878)
(-0.142777 0 0.00151731)
(-0.214592 0 -0.155826)
(-0.0465372 0 -0.222158)
(0.280379 0 0.00812873)
(0.27357 0 0.94507)
(0.731224 1.21693e-27 1.52463)
(0.558502 -5.48952e-30 1.40281)
(0.335943 2.92094e-27 1.71221)
(0.0797676 0 1.94723)
(0.00303751 0 0.0418583)
(0.000922617 0 0.0566414)
(-0.0215352 0 0.0744422)
(-0.048668 0 0.118838)
(-0.116553 0 0.109673)
(-0.115497 0 0.137245)
(-0.0579161 0 0.0749715)
(-0.0937162 0 0.0741111)
(-0.146694 0 0.0445999)
(-0.277093 0 -0.0789252)
(-0.284651 0 -0.197191)
(0.0195837 0 0.00352843)
(0.228196 0 0.667336)
(0.800936 0 1.37194)
(0.736479 0 1.41402)
(0.567418 2.26122e-26 1.16791)
(0.395492 -4.91183e-30 1.42251)
(0.239193 2.77186e-27 1.74946)
(0.0910081 0 2.10843)
(-0.00315451 0 0.078814)
(-0.0280895 0 0.113632)
(-0.0841859 0 0.150788)
(-0.178547 0 0.15793)
(-0.247707 0 0.121182)
(-0.0767819 0 0.0734947)
(-0.120364 0 0.0842666)
(-0.237942 0 0.0087625)
(-0.437231 0 -0.168367)
(-0.334561 0 -0.115418)
(0.0997669 0 0.562584)
(0.683331 0 1.17088)
(0.834971 0 1.32081)
(0.745534 7.56715e-26 1.1666)
(0.692276 -6.20385e-30 1.03712)
(0.494306 2.29193e-26 1.28775)
(0.333166 0 1.52207)
(0.172802 0 1.86648)
(0.0275651 0 2.18903)
(-0.00971954 0 0.122819)
(-0.0494896 0 0.159616)
(-0.152269 0 0.210175)
(-0.30955 0 0.226675)
(-0.438394 0 0.126477)
(-0.145641 0 0.0631885)
(-0.104964 0 0.0979524)
(-0.470773 0 -0.0651062)
(-0.521684 0 -0.154633)
(-0.0509933 0 0.331715)
(0.490098 0 0.922382)
(0.823034 -9.44893e-27 1.20378)
(0.897885 5.71286e-26 1.12752)
(0.799396 0 1.01881)
(0.818419 1.69989e-25 0.946633)
(0.672424 -6.90702e-30 1.2473)
(0.472834 6.93954e-26 1.45169)
(0.283209 0 1.63503)
(0.132334 0 1.91887)
(0.0379154 0 2.26035)
(-0.0212292 0 0.175272)
(-0.0983449 0 0.241773)
(-0.267442 0 0.303117)
(-0.505618 0 0.397437)
(-1.0172 0 0.160602)
(-0.149568 0 0.159174)
(-0.416984 0 0.0334019)
(-0.587592 0 -0.102007)
(-0.414433 0 0.211825)
(0.134008 0 0.612978)
(0.689698 -1.71073e-26 1.04213)
(0.925122 0 1.05636)
(0.98898 -1.30406e-25 0.962467)
(0.87749 -2.8101e-25 0.803391)
(1.02461 4.6614e-10 0.901237)
(0.880992 0 1.16381)
(0.674159 0 1.40343)
(0.394229 7.82469e-26 1.59982)
(0.231817 -4.98375e-27 1.70336)
(0.087164 0 2.00235)
(0.00813217 0 2.29269)
(-0.0417645 0 0.270709)
(-0.189854 0 0.365544)
(-0.419123 0 0.498813)
(-1.00018 0 0.546703)
(-1.49843 0 0.310746)
(-0.381687 0 0.267562)
(-0.66601 0 -0.100705)
(-0.531324 0 0.0481914)
(-0.204693 0 0.4422)
(0.49376 3.02833e-42 0.880532)
(0.87368 0 0.924626)
(1.01483 2.36044e-25 0.874904)
(1.08383 -1.60956e-24 0.776721)
(1.01659 -3.05691e-10 0.745792)
(1.17558 2.48211e-09 0.771429)
(1.04682 -5.0575e-10 1.06238)
(1.1728 8.65367e-10 0.77102)
(1.12848 2.94853e-09 0.699877)
(1.1252 5.5112e-10 0.701451)
(0.827785 6.14202e-25 1.33625)
(0.540844 3.18067e-25 1.59042)
(0.287945 2.43809e-26 1.68345)
(0.150538 -8.77366e-28 1.7566)
(0.00540283 0 2.01574)
(-0.0256932 0 2.28526)
(-0.0799595 0 0.418831)
(-0.323909 0 0.574574)
(-0.626785 0 0.740448)
(-1.51216 0 0.511826)
(-1.5502 0 0.440371)
(-0.823324 0 0.0136346)
(-0.51038 0 -0.108971)
(-0.254852 0 0.14152)
(0.115149 3.62157e-42 0.576657)
(0.707477 0 0.820888)
(0.951575 0 0.713197)
(1.22494 2.03255e-26 0.716112)
(1.12141 -4.72252e-25 0.586231)
(1.26164 -4.26422e-10 0.556502)
(1.21823 2.61923e-09 0.890705)
(1.25042 4.73087e-09 0.618608)
(1.02729 -2.00954e-09 1.27176)
(1.21523 9.81964e-10 0.890111)
(1.24719 2.14168e-09 0.931255)
(1.24586 7.56097e-10 0.930189)
(1.24371 4.82099e-10 0.61798)
(1.21897 4.06009e-09 0.52405)
(1.21078 3.30373e-10 0.526385)
(0.704484 7.69284e-25 1.53452)
(0.376071 -7.55995e-25 1.69458)
(0.166782 0 1.71884)
(0.0628511 5.10698e-27 1.76396)
(-0.0667218 0 2.04071)
(-0.0620375 0 2.21589)
(-0.143474 0 0.637445)
(-0.423854 0 0.830578)
(-1.04879 0 0.710913)
(-1.61969 0 0.332691)
(-1.64181 0 0.149098)
(-0.843058 0 -0.26669)
(-0.255752 0 0.0158706)
(-0.0985407 -3.6014e-27 0.202505)
(0.538443 7.32199e-27 0.626165)
(0.777379 7.18214e-26 0.537756)
(1.20406 0 0.63109)
(1.2113 -3.67284e-24 0.459179)
(1.36388 -2.88838e-09 0.456416)
(1.2427 -1.32532e-09 0.349858)
(1.23885 1.32916e-09 0.346433)
(1.32087 3.35941e-10 0.302133)
(1.3208 2.29497e-10 0.299615)
(1.27342 5.04067e-09 0.684282)
(1.34535 2.85882e-09 0.478493)
(0.910839 1.79184e-24 1.41244)
(1.28594 7.71007e-10 1.01045)
(1.26711 5.63224e-10 0.683312)
(1.25692 4.64485e-09 0.719307)
(1.25252 4.79834e-10 0.718719)
(1.33818 -1.44209e-09 0.476007)
(1.26586 2.15897e-09 0.419545)
(1.25982 -1.82349e-09 0.417001)
(0.503263 -1.83612e-24 1.6512)
(0.205757 0 1.75933)
(0.0425698 0 1.731)
(-0.0506278 1.10253e-26 1.76024)
(-0.189089 0 1.98795)
(-0.103329 0 2.07147)
(-0.201577 0 0.830102)
(-0.477904 0 0.848892)
(-1.22204 0 0.358512)
(-1.47928 0 -0.33387)
(-1.14841 0 -0.279416)
(-0.729242 0 -0.189039)
(-0.139348 0 0.0836898)
(0.276893 4.48027e-27 0.386204)
(0.587642 0 0.418613)
(1.06379 3.06478e-25 0.482388)
(1.25398 -4.03904e-25 0.376022)
(1.43007 -1.72192e-09 0.333343)
(1.38097 -2.06502e-11 0.259445)
(1.38148 2.47103e-10 0.258938)
(1.4037 3.98721e-10 0.193075)
(1.40417 2.75865e-10 0.192919)
(1.34596 -1.999e-09 0.175008)
(1.34425 9.49076e-10 0.173036)
(1.42024 -9.1398e-10 0.151909)
(1.41934 1.83691e-10 0.151625)
(1.36334 2.68537e-09 0.514757)
(1.47866 2.04585e-08 0.306756)
(1.25626 2.25984e-08 0.296777)
(1.46266 1.53278e-08 0.312893)
(1.30498 3.31886e-09 0.294719)
(0.666259 -5.26466e-24 1.5826)
(1.09466 -1.58045e-09 1.16198)
(1.37097 1.04986e-09 0.741569)
(1.37162 1.5835e-10 0.743575)
(1.35899 -6.14373e-09 0.68231)
(1.35881 6.80344e-09 0.685168)
(1.35714 -4.24796e-10 0.514058)
(1.39361 3.55317e-09 0.586199)
(1.38972 -7.29975e-10 0.587125)
(1.47322 -8.6199e-09 0.30683)
(1.27343 -1.22287e-08 0.300001)
(1.4617 -7.379e-10 0.313533)
(1.30048 -3.27177e-09 0.296761)
(1.45344 2.30801e-08 0.269252)
(1.20008 2.67767e-08 0.283536)
(1.40688 2.19229e-08 0.17619)
(1.2839 3.72968e-09 0.276645)
(1.44704 -1.2283e-08 0.268501)
(1.21311 -1.4357e-08 0.287149)
(1.40553 -8.13894e-09 0.174909)
(1.27613 -3.73446e-09 0.275015)
(0.301163 0 1.78782)
(0.0400612 -4.5382e-25 1.79976)
(-0.106169 0 1.68725)
(-0.208951 1.71856e-26 1.72299)
(-0.305717 0 1.9055)
(-0.176678 0 1.84566)
(-0.161048 0 0.768429)
(-0.527852 0 0.427222)
(-1.07507 0 -0.328088)
(-1.14997 0 -0.551687)
(-0.96699 0 -0.37241)
(-0.460894 0 -0.111512)
(0.133535 0 0.131011)
(0.46622 0 0.244847)
(0.81983 3.4515e-25 0.320577)
(1.1163 7.94093e-25 0.251757)
(1.37813 -8.27557e-10 0.268748)
(1.42345 7.25693e-10 0.148943)
(1.42359 1.47066e-10 0.149001)
(1.45188 1.21111e-09 0.0846339)
(1.45148 9.91698e-11 0.0851004)
(1.48098 -3.43239e-09 0.0855517)
(1.48235 5.34311e-10 0.0865673)
(1.50205 -4.62017e-09 0.0501335)
(1.50314 6.16562e-10 0.0508508)
(1.25505 3.7262e-09 0.0287583)
(1.26157 3.72359e-09 0.226517)
(1.43393 3.66103e-09 0.00651317)
(1.2901 3.90734e-09 0.0319374)
(1.47051 4.56887e-09 0.0412863)
(1.40635 4.75897e-09 0.0506674)
(1.27384 -2.94475e-09 0.227031)
(1.25903 -1.17228e-09 0.0299454)
(1.43446 -3.78506e-09 0.00635595)
(1.29083 -2.52891e-09 0.0328798)
(1.46994 -5.03724e-09 0.0412718)
(1.40749 -4.1027e-09 0.0510249)
(1.3605 4.48599e-09 -0.0177787)
(1.5155 6.55436e-09 0.00292663)
(1.36651 3.97799e-09 -0.00672302)
(1.53411 6.05815e-09 0.0031662)
(1.36195 -3.15483e-09 -0.0175765)
(1.51474 -4.53697e-09 0.00302993)
(1.36774 -3.02122e-09 -0.00662881)
(1.53355 -4.87246e-09 0.00315571)
(1.53072 2.10936e-08 0.346492)
(1.31215 2.29793e-08 0.335233)
(1.50189 1.47316e-08 0.347274)
(1.36469 3.50023e-09 0.332852)
(1.44634 1.1539e-09 0.179536)
(1.31619 6.7062e-10 0.177411)
(1.41448 1.4684e-09 0.184738)
(1.3635 7.89936e-10 0.179272)
(0.431285 -1.25338e-23 1.69405)
(0.830635 -2.5323e-10 1.36608)
(1.18548 8.4703e-10 0.894906)
(1.18547 3.04887e-10 0.894409)
(1.23639 3.59533e-11 0.839062)
(1.23722 2.15497e-10 0.840033)
(1.47584 -4.03441e-10 0.445959)
(1.47649 -9.65814e-10 0.444967)
(1.49651 -6.53688e-09 0.456869)
(1.49464 4.2247e-09 0.455769)
(1.52628 -8.88585e-09 0.346751)
(1.32284 -1.24778e-08 0.333699)
(1.49963 -1.09306e-09 0.347078)
(1.36036 -3.47679e-09 0.332182)
(1.53052 2.41488e-08 0.400763)
(1.29377 2.86127e-08 0.314917)
(1.49039 2.34144e-08 0.455391)
(1.36806 3.71225e-09 0.346536)
(1.5275 -1.23287e-08 0.401747)
(1.31691 -1.47203e-08 0.317866)
(1.49117 -7.96792e-09 0.455532)
(1.36872 -3.66352e-09 0.350046)
(1.44433 1.80965e-10 0.179942)
(1.32638 -5.03855e-10 0.179312)
(1.41612 2.83498e-11 0.185359)
(1.3604 -6.12669e-10 0.180882)
(1.42758 1.93697e-09 0.160477)
(1.34876 1.25937e-09 0.179036)
(1.42474 -1.12207e-09 0.161008)
(1.34408 -1.262e-09 0.180834)
(0.0454521 -6.461e-25 1.81444)
(-0.176405 0 1.748)
(-0.292628 0 1.62322)
(-0.374965 0 1.64092)
(-0.431067 0 1.7283)
(-0.194842 0 1.53601)
(-0.125034 0 0.376233)
(-0.435865 0 -0.432769)
(-0.86576 0 -0.683592)
(-1.04259 0 -0.483935)
(-0.791675 0 -0.370947)
(-0.16032 0 -0.0382268)
(0.319882 0 0.0785662)
(0.626079 0 0.176937)
(0.984043 2.25905e-25 0.192756)
(1.28232 -5.68861e-10 0.172617)
(1.46097 1.18369e-09 0.0724888)
(1.46033 4.71103e-11 0.0730353)
(1.48593 1.53246e-09 0.0664)
(1.48489 1.03245e-10 0.0675312)
(1.51395 -4.94749e-09 0.0118314)
(1.51434 1.63704e-09 0.0126147)
(1.52033 -5.08096e-09 -0.0047216)
(1.52079 1.76929e-09 -0.00599508)
(1.42348 4.93812e-09 -0.0615039)
(1.57189 5.82744e-09 -0.0533239)
(1.43118 7.0665e-09 -0.0840323)
(1.57857 7.56899e-09 -0.079644)
(1.4281 -3.18554e-09 -0.0625666)
(1.57242 -5.03508e-09 -0.0535501)
(1.44234 -3.74625e-09 -0.0860976)
(1.5801 -5.79923e-09 -0.0799417)
(1.44692 8.76533e-09 -0.117509)
(1.58569 7.59631e-09 -0.116899)
(1.46889 7.81623e-09 -0.112942)
(1.61088 7.62303e-09 -0.114657)
(1.45883 -4.27271e-09 -0.120231)
(1.58731 -4.87791e-09 -0.117501)
(1.48155 -4.14598e-09 -0.115401)
(1.61305 -5.64735e-09 -0.115042)
(1.31124 1.06304e-09 0.0912458)
(1.29906 3.57373e-11 -0.0195151)
(1.42432 -2.91831e-11 -0.02123)
(1.38696 1.7349e-09 0.00592628)
(1.345 4.5381e-11 -0.0396816)
(1.45107 7.25011e-11 -0.0274662)
(1.32411 -1.96541e-10 0.0901466)
(1.30118 -3.81732e-11 -0.0180742)
(1.39062 -1.14241e-09 0.00558073)
(1.42459 -1.77417e-10 -0.0210413)
(1.34457 -1.98068e-10 -0.0396954)
(1.45041 -4.67541e-10 -0.0273997)
(1.42619 1.42362e-10 -0.0959015)
(1.51406 4.74669e-10 -0.095173)
(1.4041 1.36313e-10 -0.0711518)
(1.49637 5.065e-10 -0.0622303)
(1.42817 -2.22851e-10 -0.0972321)
(1.51407 -3.56259e-10 -0.0955121)
(1.40392 -2.14979e-10 -0.0712676)
(1.49596 -4.23343e-10 -0.062144)
(1.47649 1.11522e-09 0.235493)
(1.35718 9.60595e-10 0.201756)
(1.44787 1.43485e-09 0.211246)
(1.39993 7.76445e-10 0.220334)
(1.4213 4.29267e-10 0.0723237)
(1.39581 2.07172e-11 0.0851239)
(1.43895 5.66203e-10 0.0925354)
(1.39148 2.16191e-10 0.0701062)
(0.0630233 0 1.73842)
(0.458711 1.03625e-09 1.45345)
(0.853994 2.79414e-09 0.996199)
(0.853391 2.15597e-10 0.995182)
(1.0078 1.0072e-09 0.954947)
(1.00744 9.47807e-11 0.953834)
(1.29841 -2.43303e-09 0.514647)
(1.30088 -7.15201e-10 0.512884)
(1.36676 -5.07342e-10 0.521767)
(1.36861 -1.33202e-09 0.519639)
(1.37812 7.90455e-09 0.232122)
(1.56011 5.59184e-09 0.245393)
(1.43701 5.1143e-09 0.22619)
(1.61162 4.57081e-09 0.235025)
(1.38403 -3.57276e-09 0.234517)
(1.56023 -5.30199e-09 0.245826)
(1.44108 -2.98605e-09 0.226398)
(1.61207 -5.29243e-09 0.234866)
(1.39941 2.62905e-09 0.127785)
(1.38346 3.4741e-09 0.17691)
(1.56715 1.9977e-09 0.190853)
(1.40388 4.22985e-09 0.210898)
(1.5939 3.9282e-09 0.237092)
(1.513 5.52887e-09 0.361545)
(1.40482 -2.41697e-09 0.124864)
(1.40033 -2.93719e-09 0.178929)
(1.56811 -3.8337e-09 0.189748)
(1.40651 -2.45301e-09 0.211108)
(1.59371 -5.25196e-09 0.236953)
(1.51664 -4.20921e-09 0.361649)
(1.47438 1.62176e-10 0.234956)
(1.36432 -8.15479e-10 0.201454)
(1.44861 -3.65353e-10 0.210615)
(1.39753 -6.90846e-10 0.220358)
(1.48833 1.7394e-09 0.294268)
(1.4082 1.08211e-09 0.238069)
(1.48819 -4.51947e-10 0.294327)
(1.41062 -9.79693e-10 0.238083)
(1.4196 -3.66752e-10 0.0729842)
(1.40314 1.61766e-10 0.0870752)
(1.4416 -2.34524e-10 0.0931899)
(1.3857 -1.28787e-10 0.0717512)
(1.44389 9.4075e-10 0.0605137)
(1.40687 2.79218e-10 0.0712174)
(1.44159 -7.15658e-10 0.0603434)
(1.40151 -2.18164e-10 0.0704802)
(-0.24674 -1.43688e-24 1.80993)
(-0.394078 0 1.64983)
(-0.499622 0 1.52554)
(-0.579869 0 1.54122)
(-0.568374 0 1.49304)
(-0.226006 0 1.20335)
(-0.0795483 0 -0.521489)
(-0.278982 0 -0.872188)
(-0.641505 0 -0.751889)
(-0.816153 0 -0.551209)
(-0.559952 0 -0.323698)