/*--------------------------------*- C++ -*----------------------------------*\
| =========                 |                                                 |
| \\      /  F ield         | OpenFOAM: The Open Source CFD Toolbox           |
|  \\    /   O peration     | Version:  5.x                                   |
|   \\  /    A nd           | Web:      www.OpenFOAM.org                      |
|    \\/     M anipulation  |                                                 |
\*---------------------------------------------------------------------------*/
FoamFile
{
    version     2.0;
    format      ascii;
    class       surfaceVectorField;
    location    "2.1";
    object      Uf;
}
// * * * * * * * * * * * * * * * * * * * * * * * * * * * * * * * * * * * * * //

dimensions      [0 1 -1 0 0 0 0];

internalField   nonuniform List<vector> 
30582
(
(0.151625 0 0.000798041)
(0.160977 0 -0.00118076)
(0.154443 0 0.00241407)
(0.148973 0 -0.00112745)
(0.151542 0 -0.0031704)
(0.160711 0 -0.00232119)
(0.154415 0 0.00391498)
(0.155617 0 1.15951e-05)
(0.154335 0 -0.00355247)
(0.148544 0 -0.00224479)
(0.150941 0 -0.0012681)
(0.160152 0 -0.00320967)
(0.150487 0 0.00447484)
(0.15337 0 0.00162776)
(0.154166 0 -0.00229868)
(0.155469 0 8.06393e-05)
(0.15388 0 0.00148448)
(0.147588 0 -0.00342066)
(0.150024 0 -0.00556738)
(0.159273 0 -0.00371454)
(0.144474 0 0.00431812)
(0.147499 0 0.0025371)
(0.150013 0 -0.000326165)
(0.153334 0 0.00334912)
(0.154275 0 0.00583673)
(0.154396 0 -8.01813e-05)
(0.152389 0 -0.00507746)
(0.146102 0 -0.00436647)
(0.148581 0 -0.00225602)
(0.157683 0 -0.00362072)
(0.137378 0 0.00393465)
(0.140606 0 0.00304782)
(0.144018 0 0.00127974)
(0.147504 0 0.00506637)
(0.150429 0 0.00881726)
(0.152197 0 0.00494314)
(0.151553 0 -0.00103916)
(0.153133 0 0.000260045)
(0.151207 0 0.00117713)
(0.143199 0 -0.00541711)
(0.145531 0 -0.00713659)
(0.155709 0 -0.0022893)
(0.130131 0 0.00366402)
(0.133711 0 0.00316818)
(0.137226 0 0.00228251)
(0.140833 0 0.00596492)
(0.144673 0 0.00978819)
(0.146365 0 0.00749505)
(0.147859 0 0.00354526)
(0.150967 0 0.00647436)
(0.151351 0 0.00793106)
(0.150081 0 0.000201587)
(0.146576 0 -0.00654443)
(0.139972 0 -0.00583508)
(0.14337 0 -0.000671722)
(0.151525 0 -6.18287e-05)
(0.121964 0 0.00365472)
(0.126309 0 0.00363486)
(0.130202 0 0.00314128)
(0.133948 0 0.00623872)
(0.137837 0 0.0099763)
(0.140393 0 0.00890101)
(0.142502 0 0.00656928)
(0.145389 0 0.00975521)
(0.148251 0 0.0128201)
(0.14739 0 0.00775895)
(0.144417 0 6.33899e-06)
(0.147471 0 0.00108076)
(0.145599 0 0.00213487)
(0.130168 0 -0.0067267)
(0.131349 0 -0.00642388)
(0.115765 0 0.00694431)
(0.112406 0 0.00389034)
(0.117655 0 0.0043296)
(0.122285 0 0.00429925)
(0.12684 0 0.0071583)
(0.130841 0 0.010304)
(0.133812 0 0.00929726)
(0.13659 0 0.00817583)
(0.140323 0 0.0114403)
(0.143721 0 0.014767)
(0.143287 0 0.0116666)
(0.142491 0 0.00654349)
(0.144445 0 0.00855733)
(0.145128 0 0.00973485)
(0.138658 0 0.00127267)
(0.12828 0 -0.00783042)
(0.0918485 0 -0.00549896)
(0.0699672 0 0.00813634)
(-0.0516029 0 -0.0268853)
(0.100826 0 0.00431798)
(0.107204 0 0.00533961)
(0.112925 0 0.00574944)
(0.118396 0 0.00857008)
(0.123195 0 0.0114713)
(0.12734 0 0.010561)
(0.130485 0 0.00952116)
(0.134267 0 0.011966)
(0.13813 0 0.0153719)
(0.139608 0 0.0138418)
(0.139712 0 0.0106697)
(0.141535 0 0.0128389)
(0.143993 0 0.0148293)
(0.136429 0 0.00902767)
(0.127252 0 0.000649937)
(0.105803 0 0.00169151)
(0.0742351 0 0.00402942)
(-0.0741657 0 -0.00720619)
(-0.196841 0 -0.0407253)
(-0.0935694 0 0.0502265)
(0.0870331 0 0.00479872)
(0.0945095 0 0.00647483)
(0.101452 0 0.00745185)
(0.108097 0 0.0106299)
(0.114032 0 0.0134983)
(0.119334 0 0.0127212)
(0.123657 0 0.0117376)
(0.128254 0 0.0136)
(0.132052 0 0.0161495)
(0.134551 0 0.0146232)
(0.135963 0 0.0130162)
(0.138889 0 0.0154518)
(0.141303 0 0.0176949)
(0.136284 0 0.0139739)
(0.129599 0 0.0085374)
(0.11653 0 0.00805473)
(0.0924119 0 0.0086374)
(-0.104831 0 -0.00571008)
(-0.24695 0 -0.0164564)
(0.028739 0 0.0128382)
(0.141372 0 0.0959848)
(0.00136417 0 -0.00533863)
(0.0713428 0 0.0051829)
(0.0796418 0 0.00749729)
(0.0876396 0 0.00912455)
(0.0954069 0 0.0129584)
(0.102649 0 0.0162046)
(0.109352 0 0.0158789)
(0.115098 0 0.0149787)
(0.120701 0 0.0165985)
(0.12536 0 0.0185329)
(0.129251 0 0.0165783)
(0.131534 0 0.0150191)
(0.134603 0 0.0165595)
(0.137168 0 0.0191641)
(0.136195 0 0.017228)
(0.131737 0 0.0140329)
(0.124066 0 0.0130718)
(0.112083 0 0.0116172)
(-0.0835994 0 -9.8678e-05)
(-0.281287 0 -0.0141395)
(-0.144487 0 0.00827219)
(0.130625 0 0.0349969)
(0.192541 0 0.0171373)
(0.0624072 0 -0.0775086)
(-0.0488357 0 -0.0298628)
(0.0545733 0 0.00530266)
(0.0632556 0 0.0081562)
(0.0717708 0 0.0104297)
(0.0803663 0 0.0150798)
(0.0887304 0 0.0190168)
(0.0967239 0 0.019492)
(0.104075 0 0.0190152)
(0.111167 0 0.0209616)
(0.117167 0 0.022625)
(0.122512 0 0.0203098)
(0.126256 0 0.0183064)
(0.130136 0 0.0189274)
(0.132746 0 0.0205614)
(0.133933 0 0.0184927)
(0.132285 0 0.0170616)
(0.133451 0 0.0169927)
(0.126835 0 0.0145368)
(-0.0511624 0 0.00684753)
(-0.249509 0 -0.00497686)
(-0.168606 0 -0.0132704)
(-0.031983 0 0.00883018)
(0.034023 0 0.0744854)
(0.0912719 0 0.0634241)
(-0.00839964 0 0.00559093)
(-0.115091 0 0.0446003)
(-0.0226005 0 0.0153644)
(0.0379418 0 0.00503939)
(0.0461734 0 0.00823441)
(0.0546977 0 0.0110474)
(0.0636471 0 0.01646)
(0.0725602 0 0.0212542)
(0.0814174 0 0.0228064)
(0.0901295 0 0.0231412)
(0.0986572 0 0.0260382)
(0.106462 0 0.0280447)
(0.113677 0 0.0258981)
(0.119313 0 0.0234988)
(0.124331 0 0.0234552)
(0.127681 0 0.0239544)
(0.131496 0 0.0211816)
(0.131936 0 0.0193717)
(0.138306 0 0.0186452)
(0.138633 0 0.0167336)
(-0.00188879 0 0.0119255)
(-0.175969 0 0.00358013)
(-0.167373 0 -0.0241803)
(-0.0908171 0 -0.029153)
(-0.00154423 0 0.0111155)
(0.0620071 0 0.0782193)
(0.019685 0 0.086402)
(-0.0827058 0 0.0232388)
(-0.0251482 0 -0.00736385)
(0.0692668 0 -0.0295707)
(-0.00254699 0 -0.0118548)
(0.0227283 0 0.00444396)
(0.0299393 0 0.0076679)
(0.0376721 0 0.0107998)
(0.0462196 0 0.0166639)
(0.0550756 0 0.0222648)
(0.0641139 0 0.024964)
(0.0734488 0 0.026426)
(0.0830028 0 0.030777)
(0.0924109 0 0.0338121)
(0.101377 0 0.0326338)
(0.109368 0 0.0304811)
(0.11638 0 0.0304838)
(0.121491 0 0.0300828)
(0.1277 0 0.0262593)
(0.130497 0 0.0236409)
(0.143515 0 0.0218219)
(0.148534 0 0.019216)
(0.0348363 0 0.0143167)
(-0.105116 0 0.00831618)
(-0.131092 0 -0.0185059)
(-0.119076 0 -0.040805)
(-0.0365767 0 -0.0122574)
(0.0536409 0 0.024573)
(0.0364831 0 0.0145832)
(-0.00662461 0 0.0189755)
(0.0116777 0 0.0554217)
(0.0673094 0 0.0322195)
(-0.00419671 0 -0.00658085)
(-0.0746023 0 0.00475656)
(0.0097475 0 0.00365306)
(0.0155024 0 0.00665941)
(0.0220243 0 0.00978881)
(0.0294645 0 0.0155546)
(0.0375548 0 0.0216492)
(0.0459266 0 0.0253388)
(0.0549832 0 0.0279779)
(0.0648741 0 0.0339452)
(0.0751233 0 0.0385264)
(0.0852549 0 0.0390374)
(0.0952931 0 0.0380397)
(0.1044 0 0.0392407)
(0.112244 0 0.0386115)
(0.121602 0 0.0347474)
(0.127562 0 0.0313241)
(0.147611 0 0.0275892)
(0.158958 0 0.0241422)
(0.0859683 0 0.0171825)
(-0.0289119 0 0.0107563)
(-0.109308 0 -0.0189991)
(-0.132895 0 -0.040687)
(-0.0463043 0 -0.0125708)
(0.0345941 0 0.0106065)
(0.0230691 0 -0.00422125)
(0.00830905 0 -0.0125188)
(0.0208386 0 0.00839334)
(0.0394589 0 0.0481563)
(0.00650699 0 0.0667622)
(-0.0661068 0 0.0208527)
(-0.000166145 0 0.00274721)
(0.0036338 0 0.00517712)
(0.00884689 0 0.0080573)
(0.0145418 0 0.0134196)
(0.0213109 0 0.0194533)
(0.0283379 0 0.0237419)
(0.0363197 0 0.0273188)
(0.0456594 0 0.0345793)
(0.0557427 0 0.0408642)
(0.0659633 0 0.0433712)
(0.077052 0 0.0442688)
(0.0876975 0 0.0477536)
(0.0980875 0 0.0480729)
(0.110612 0 0.0458862)
(0.120837 0 0.042882)
(0.148339 0 0.0378484)
(0.167676 0 0.0330075)
(0.131283 0 0.0236397)
(0.0558515 0 0.0156077)
(-0.0673683 0 -0.0205406)
(-0.145039 0 -0.0447)
(-0.0560681 0 -0.0136898)
(0.0328248 0 0.0086998)
(0.0202171 0 -0.0118109)
(0.0065017 0 -0.0227411)
(0.007396 0 -0.0034587)
(0.0208334 0 0.0159872)
(0.00897178 0 0.0161133)
(-0.0238926 0 0.0291968)
(-0.00661767 0 0.0018317)
(-0.00468925 0 0.00342957)
(-0.00106402 0 0.00570705)
(0.00241273 0 0.0103528)
(0.00755333 0 0.0160016)
(0.0127217 0 0.0204776)
(0.0191208 0 0.0245493)
(0.0269774 0 0.0324106)
(0.0360264 0 0.0400785)
(0.0453191 0 0.0443409)
(0.0559602 0 0.0473434)
(0.066905 0 0.0536297)
(0.0788029 0 0.0560301)
(0.0935556 0 0.0569684)
(0.107583 0 0.0562137)
(0.141146 0 0.0521079)
(0.169745 0 0.0460755)
(0.161844 0 0.0368945)
(0.123417 0 0.027815)
(-0.0181186 0 -0.00696929)
(-0.137374 0 -0.0391946)
(-0.0579472 0 -0.0239521)
(0.0334136 0 -0.000305274)
(0.0226873 0 -0.0139473)
(0.0104897 0 -0.0288438)
(0.00496811 0 -0.0135237)
(0.00511035 0 0.00201235)
(0.0047656 0 0.00317501)
(-0.00619305 0 0.0039932)
(-0.00972844 0 0.00104636)
(-0.00927989 0 0.00168332)
(-0.00748174 0 0.00309997)
(-0.006044 0 0.00684115)
(-0.0027719 0 0.0117721)
(0.000165941 0 0.0157448)
(0.00477497 0 0.0199122)
(0.0103418 0 0.0278372)
(0.0176355 0 0.036179)
(0.0250438 0 0.0416799)
(0.0341906 0 0.0463235)
(0.0443684 0 0.0551194)
(0.0560224 0 0.0602067)
(0.0709843 0 0.0647095)
(0.0873057 0 0.0676279)
(0.125075 0 0.0666572)
(0.160589 0 0.0608387)
(0.1729 0 0.0564059)
(0.166428 0 0.0475275)
(0.0759422 0 0.017062)
(-0.069626 0 -0.0163556)
(-0.0489347 0 -0.0376602)
(0.0349959 0 -0.0290622)
(0.0271934 0 -0.0246563)
(0.0155916 0 -0.0314207)
(0.0046861 0 -0.0161778)
(-0.00117543 0 -0.00640801)
(0.00312454 0 -0.010824)
(0.00237424 0 -0.00675091)
(-0.00965966 0 0.000319015)
(-0.0106286 0 -3.78866e-05)
(-0.0104039 0 0.000458004)
(-0.0106794 0 0.00326455)
(-0.00942112 0 0.00730058)
(-0.00844218 0 0.0103758)
(-0.00576233 0 0.0139755)
(-0.0029036 0 0.0212477)
(0.00213305 0 0.0296721)
(0.0070103 0 0.0357902)
(0.0139525 0 0.0413451)
(0.0222478 0 0.0518803)
(0.0324618 0 0.0596175)
(0.0456596 0 0.0667845)
(0.0616802 0 0.0736842)
(0.100833 0 0.0771728)
(0.140773 0 0.0734001)
(0.164417 0 0.0761259)
(0.179678 0 0.0703141)
(0.136918 0 0.0501863)
(0.0446368 0 0.0217047)
(0.0159554 0 -0.0356247)
(0.0362428 0 -0.0563388)
(0.0232882 0 -0.038225)
(0.0149144 0 -0.0289171)
(0.00724028 0 -0.0243549)
(-0.00435728 0 -0.0149074)
(0.00171446 0 -0.0147867)
(0.00584711 0 -0.0144242)
(-0.00690388 0 -0.000387892)
(-0.00913663 0 -0.00154516)
(-0.0104555 0 -0.00200582)
(-0.0119642 0 -9.43964e-06)
(-0.0125925 0 0.00298509)
(-0.013034 0 0.0049807)
(-0.0123342 0 0.00761431)
(-0.0117896 0 0.0138694)
(-0.00923946 0 0.0216108)
(-0.00709507 0 0.0271866)
(-0.00258748 0 0.0330647)
(0.00250514 0 0.0442755)
(0.0104591 0 0.0543691)
(0.0201484 0 0.0629702)
(0.0336468 0 0.0726814)
(0.0712496 0 0.080664)
(0.112171 0 0.0803777)
(0.139247 0 0.0910841)
(0.166333 0 0.0906576)
(0.153992 0 0.0825022)
(0.113257 0 0.0652095)
(0.0675101 0 0.017975)
(0.0352806 0 -0.0337331)
(0.00707835 0 -0.0351811)
(-0.00336156 0 -0.019381)
(0.00162764 0 -0.0299455)
(-0.00551683 0 -0.0273672)
(0.00173786 0 -0.0238388)
(0.00786817 0 -0.0194846)
(-0.00185355 0 -0.000988488)
(-0.00515844 0 -0.00288261)
(-0.00761624 0 -0.00416497)
(-0.010332 0 -0.00313712)
(-0.0121829 0 -0.00102584)
(-0.0141908 0 -0.000235108)
(-0.0150429 0 0.00142923)
(-0.0163546 0 0.00644648)
(-0.0162174 0 0.0131297)
(-0.0162284 0 0.0175787)
(-0.0144552 0 0.0227564)
(-0.0126948 0 0.0333842)
(-0.00788391 0 0.0448821)
(-0.002957 0 0.0536859)
(0.0065063 0 0.0645671)
(0.0394152 0 0.0766494)
(0.0779602 0 0.080366)
(0.103832 0 0.0976022)
(0.134394 0 0.103485)
(0.136701 0 0.106618)
(0.128398 0 0.0995141)
(0.0966875 0 0.0752677)
(0.0515111 0 0.0335797)
(0.00130815 0 0.0103561)
(-0.0281655 0 0.00344121)
(-0.0155011 0 -0.0237438)
(-0.00950102 0 -0.0311799)
(-0.0018874 0 -0.0281406)
(0.00529492 0 -0.0238798)
(0.00500943 0 -0.00148957)
(0.000926066 0 -0.00398721)
(-0.00248105 0 -0.00601579)
(-0.00620642 0 -0.00581364)
(-0.00917622 0 -0.00462842)
(-0.0123679 0 -0.00482293)
(-0.0148065 0 -0.00427684)
(-0.0173069 0 -0.000365305)
(-0.019117 0 0.00489286)
(-0.0207261 0 0.0080155)
(-0.0212834 0 0.0120023)
(-0.022089 0 0.0212086)
(-0.0208195 0 0.0323932)
(-0.0201515 0 0.0401394)
(-0.0155695 0 0.0502325)
(0.0110405 0 0.065011)
(0.0437936 0 0.0729962)
(0.0676906 0 0.0938702)
(0.096062 0 0.105136)
(0.0954497 0 0.116581)
(0.102602 0 0.118551)
(0.102888 0 0.119164)
(0.0715225 0 0.100633)
(0.0184856 0 0.0657056)
(-0.0325751 0 0.0381459)
(-0.0282624 0 0.0124261)
(-0.0159368 0 -0.0099805)
(-0.0100467 0 -0.0207763)
(-0.00169156 0 -0.0204663)
(0.0133176 0 -0.00189204)
(0.0086511 0 -0.00491377)
(0.00448595 0 -0.00756006)
(3.01533e-05 0 -0.00803482)
(-0.00384422 0 -0.00767404)
(-0.00795759 0 -0.00885703)
(-0.0114579 0 -0.00935953)
(-0.0152005 0 -0.00670052)
(-0.0182231 0 -0.00267432)
(-0.0214126 0 -0.000857679)
(-0.0237196 0 0.00191331)
(-0.0262356 0 0.00933375)
(-0.0278142 0 0.0189928)
(-0.0302475 0 0.0249269)
(-0.0303165 0 0.0326598)
(-0.0101419 0 0.0478405)
(0.0157758 0 0.059484)
(0.0374175 0 0.0793847)
(0.0617535 0 0.0941517)
(0.0424105 0 0.111162)
(0.0452169 0 0.119835)
(0.0914643 0 0.144993)
(0.0926861 0 0.148031)
(0.0442754 0 0.108871)
(-0.0101642 0 0.0737111)
(-0.023204 0 0.054997)
(-0.0198893 0 0.0320649)
(-0.0171103 0 0.0142814)
(-0.0115577 0 -1.69104e-05)
(0.0226615 0 -0.00217801)
(0.0175359 0 -0.00562512)
(0.0129122 0 -0.00880372)
(0.00791104 0 -0.00989736)
(0.00337786 0 -0.0102022)
(-0.0014459 0 -0.0122307)
(-0.00575988 0 -0.0137431)
(-0.0104526 0 -0.0121093)
(-0.0146188 0 -0.00932109)
(-0.0188873 0 -0.0087214)
(-0.0226887 0 -0.00710628)
(-0.026329 0 -0.00142553)
(-0.0296139 0 0.00616183)
(-0.0343723 0 0.0103076)
(-0.0378103 0 0.015593)
(-0.02397 0 0.0289105)
(-0.00443263 0 0.0428966)
(0.0151551 0 0.0583938)
(0.03547 0 0.0731054)
(-0.00172962 0 0.0928686)
(-0.0199645 0 0.105803)
(0.0659506 0 0.144015)
(0.114215 0 0.16731)
(0.0730784 0 0.134333)
(0.0224906 0 0.101372)
(-0.00407737 0 0.0929885)
(-0.0174003 0 0.0735765)
(-0.0169738 0 0.0538077)
(-0.0142463 0 0.0342976)
(0.0326243 0 -0.00234684)
(0.0272297 0 -0.00610521)
(0.0223627 0 -0.00970997)
(0.0169816 0 -0.0113143)
(0.0120513 0 -0.0122253)
(0.00671544 0 -0.0150272)
(0.00183164 0 -0.0174226)
(-0.00358389 0 -0.0166412)
(-0.00853483 0 -0.0149331)
(-0.0136359 0 -0.0155819)
(-0.0184342 0 -0.0150193)
(-0.0231758 0 -0.0111069)
(-0.0276079 0 -0.00562814)
(-0.0342314 0 -0.00253046)
(-0.03994 0 0.0012016)
(-0.0310362 0 0.0114601)
(-0.0181733 0 0.0251173)
(0.00276876 0 0.0362149)
(0.0212832 0 0.0484355)
(-0.0225647 0 0.0658026)
(-0.0597837 0 0.0816206)
(0.0439239 0 0.113296)
(0.133116 0 0.150921)
(0.101104 0 0.134488)
(0.0593521 0 0.110837)
(0.0201647 0 0.116083)
(-0.00729333 0 0.104608)
(-0.0115703 0 0.0880728)
(-0.011566 0 0.0693735)
(0.0428167 0 -0.00238655)
(0.0373801 0 -0.00635817)
(0.0324814 0 -0.0102661)
(0.0268749 0 -0.012306)
(0.0217605 0 -0.0137218)
(0.0160896 0 -0.0171594)
(0.0108129 0 -0.0203555)
(0.00497644 0 -0.020339)
(-0.000470031 0 -0.0194845)
(-0.00622279 0 -0.0213266)
(-0.011658 0 -0.021829)
(-0.0172989 0 -0.0194495)
(-0.0226687 0 -0.0160637)
(-0.0306824 0 -0.0138763)
(-0.0383794 0 -0.0107002)
(-0.0332933 0 -0.00339012)
(-0.0252164 0 0.00706073)
(-0.00293225 0 0.0152713)
(0.0166814 0 0.0261051)
(-0.0228326 0 0.0386612)
(-0.0679289 0 0.0537082)
(0.0254559 0 0.0700561)
(0.133874 0 0.104874)
(0.124835 0 0.112908)
(0.0952196 0 0.106036)
(0.044391 0 0.116411)
(0.00401436 0 0.117379)
(-0.00243438 0 0.110484)
(-0.00716122 0 0.0964601)
(0.052859 0 -0.00228341)
(0.0476091 0 -0.00637664)
(0.04282 0 -0.0104854)
(0.037225 0 -0.0128074)
(0.0321056 0 -0.0146604)
(0.0263131 0 -0.0186455)
(0.0209368 0 -0.0224853)
(0.0147984 0 -0.0232542)
(0.00900576 0 -0.023125)
(0.00282094 0 -0.0259433)
(-0.00299901 0 -0.0276061)
(-0.00932668 0 -0.0263572)
(-0.0153795 0 -0.0247359)
(-0.0241644 0 -0.02361)
(-0.0329798 0 -0.0209978)
(-0.0316743 0 -0.0169038)
(-0.0278489 0 -0.009964)
(-0.00503328 0 -0.00194005)
(0.0160776 0 0.00729613)
(-0.0147007 0 0.015598)
(-0.0562482 0 0.0281964)
(-0.00334893 0 0.0324519)
(0.0927413 0 0.0532145)
(0.126444 0 0.0915366)
(0.121117 0 0.102019)
(0.062993 0 0.0996215)
(0.0119862 0 0.10607)
(0.00687389 0 0.112393)
(0.000239203 0 0.107884)
(0.0624061 0 -0.00206895)
(0.0575078 0 -0.00617098)
(0.0530133 0 -0.0103859)
(0.0476543 0 -0.0128492)
(0.0427141 0 -0.0149856)
(0.0370382 0 -0.0194252)
(0.0317506 0 -0.0237991)
(0.0254915 0 -0.0252723)
(0.0196634 0 -0.0258974)
(0.0131175 0 -0.0296701)
(0.00700066 0 -0.0324155)
(0.00011002 0 -0.0318575)
(-0.00638533 0 -0.031485)
(-0.0150497 0 -0.0315827)
(-0.024385 0 -0.0297892)
(-0.0262795 0 -0.0285157)
(-0.0258586 0 -0.0251753)
(-0.00605439 0 -0.0180198)
(0.0153681 0 -0.00822135)
(-0.00549967 0 -0.00154925)
(-0.0382225 0 0.00763066)
(-0.0305288 0 0.00584394)
(0.0218908 0 0.0131852)
(0.103579 0 0.0701155)
(0.14293 0 0.100717)
(0.0778609 0 0.0801455)
(0.0199497 0 0.07912)
(0.0122603 0 0.0955361)
(0.00710783 0 0.101895)
(0.0711297 0 -0.00179859)
(0.0667465 0 -0.00573995)
(0.0626854 0 -0.00994996)
(0.0577764 0 -0.0124227)
(0.0531957 0 -0.0146982)
(0.0478569 0 -0.0195048)
(0.0428689 0 -0.0243057)
(0.0366964 0 -0.0263609)
(0.0309833 0 -0.0276568)
(0.0243892 0 -0.0322091)
(0.0181683 0 -0.0361226)
(0.0108244 0 -0.0363932)
(0.00401105 0 -0.036737)
(-0.00367361 0 -0.0380063)
(-0.012586 0 -0.0373032)
(-0.0180591 0 -0.0384375)
(-0.0206135 0 -0.0383957)
(-0.00641041 0 -0.0315095)
(0.0123357 0 -0.0205645)
(2.22874e-06 0 -0.0163195)
(-0.0224124 0 -0.00814667)
(-0.0415671 0 -0.0102578)
(-0.0361882 0 -0.0107855)
(0.0716867 0 0.0372722)
(0.15636 0 0.0835017)
(0.0983335 0 0.0629763)
(0.0350083 0 0.0509737)
(0.0157965 0 0.0722817)
(0.00824558 0 0.0852244)
(0.0788135 0 -0.00147561)
(0.0750434 0 -0.0051462)
(0.0715282 0 -0.00918871)
(0.067246 0 -0.0115583)
(0.063196 0 -0.0138301)
(0.0583647 0 -0.0188866)
(0.0538523 0 -0.0240167)
(0.0480062 0 -0.0264791)
(0.0425701 0 -0.028317)
(0.0362565 0 -0.0335888)
(0.0302355 0 -0.0384781)
(0.0228318 0 -0.0396039)
(0.0158255 0 -0.0407238)
(0.00934184 0 -0.0435057)
(0.00175893 0 -0.0439408)
(-0.00666208 0 -0.0464903)
(-0.0124541 0 -0.0491846)
(-0.00685779 0 -0.0431779)
(0.00659367 0 -0.0311713)
(4.64404e-05 0 -0.0282321)
(-0.0134521 0 -0.020604)
(-0.039098 0 -0.0213434)
(-0.0608856 0 -0.0225746)
(0.0473354 0 0.00334625)
(0.154593 0 0.0450355)
(0.112552 0 0.0382285)
(0.0569147 0 0.0284417)
(0.0219364 0 0.0513312)
(0.00198074 0 0.0655923)
(0.0852524 0 -0.00108939)
(0.0821829 0 -0.00438964)
(0.0792669 0 -0.00815931)
(0.0757365 0 -0.0103292)
(0.0723475 0 -0.0124717)
(0.0681763 0 -0.0175799)
(0.0642446 0 -0.0229255)
(0.0590326 0 -0.0256039)
(0.0540547 0 -0.0278022)
(0.0483101 0 -0.0337716)
(0.0427694 0 -0.0394455)
(0.0356255 0 -0.0414076)
(0.028823 0 -0.0432095)
(0.0231722 0 -0.0475688)
(0.0170687 0 -0.0495847)
(0.00624033 0 -0.0527222)
(-0.00214485 0 -0.0569129)
(-0.00797018 0 -0.0525876)
(-0.00271574 0 -0.0404853)
(-0.00435988 0 -0.0377693)
(-0.0118266 0 -0.0300667)
(-0.0337687 0 -0.0291599)
(-0.0622874 0 -0.0285452)
(0.0299765 0 -0.0205574)
(0.135496 0 0.00420977)
(0.112375 0 0.0138652)
(0.0721036 0 0.0142548)
(0.0289168 0 0.0300096)
(-0.00561233 0 0.0440788)
(0.0903339 0 -0.000656308)
(0.0880114 0 -0.00352659)
(0.085756 0 -0.00692533)
(0.0830091 0 -0.00881343)
(0.0803509 0 -0.010731)
(0.0769471 0 -0.0156895)
(0.0737001 0 -0.0210746)
(0.0693592 0 -0.0238015)
(0.0650945 0 -0.0261456)
(0.0600938 0 -0.0327396)
(0.055269 0 -0.0391076)
(0.0485794 0 -0.0417086)
(0.0422652 0 -0.0439975)
(0.0369348 0 -0.049793)
(0.0319365 0 -0.0535972)
(0.018521 0 -0.0566797)
(0.00805011 0 -0.0611696)
(-0.00846187 0 -0.0588597)
(-0.0142549 0 -0.0477816)
(-0.0134898 0 -0.0457629)
(-0.0158877 0 -0.0372214)
(-0.0285642 0 -0.0354099)
(-0.0528759 0 -0.0322466)
(0.0102586 0 -0.0345318)
(0.0987883 0 -0.0243731)
(0.0975324 0 2.47567e-05)
(0.0744541 0 0.0107695)
(0.0327511 0 0.0125704)
(-0.00951278 0 0.022078)
(0.0939891 0 -0.000174718)
(0.0924443 0 -0.00258223)
(0.0908704 0 -0.00555137)
(0.0889236 0 -0.00707602)
(0.0869944 0 -0.00869834)
(0.0844437 0 -0.0133426)
(0.081941 0 -0.0185891)
(0.0785766 0 -0.0212088)
(0.0752228 0 -0.0235031)
(0.0711031 0 -0.0304657)
(0.067139 0 -0.037464)
(0.0612901 0 -0.0404121)
(0.0556131 0 -0.0428842)
(0.0507637 0 -0.0501843)
(0.0463478 0 -0.0560055)
(0.0304775 0 -0.0587829)
(0.0177071 0 -0.0623872)
(-0.00609659 0 -0.0625976)
(-0.0219652 0 -0.0531695)
(-0.0212755 0 -0.0542181)
(-0.0199742 0 -0.0456388)
(-0.0223347 0 -0.0433461)
(-0.03662 0 -0.0384065)
(-0.00527416 0 -0.0448542)
(0.0548797 0 -0.0436121)
(0.068182 0 -0.00946972)
(0.0662963 0 0.0108871)
(0.0332696 0 0.00459865)
(-0.00756287 0 0.00670132)
(0.0961772 0 0.000378169)
(0.0954696 0 -0.00157361)
(0.094604 0 -0.00409397)
(0.0934181 0 -0.00521977)
(0.0922149 0 -0.00647314)
(0.0905092 0 -0.0106991)
(0.0887623 0 -0.0156522)
(0.0863968 0 -0.0179929)
(0.0839716 0 -0.0200906)
(0.08088 0 -0.0270682)
(0.0778476 0 -0.0344807)
(0.0732573 0 -0.0375118)
(0.0685378 0 -0.0399013)
(0.0643282 0 -0.0487663)
(0.0606582 0 -0.0568605)
(0.0420679 0 -0.0592711)
(0.027083 0 -0.0611366)
(-0.000671852 0 -0.0646316)
(-0.0235254 0 -0.0576028)
(-0.0215403 0 -0.0616415)
(-0.0193792 0 -0.0557208)
(-0.0114003 0 -0.0545762)
(-0.0125101 0 -0.0486524)
(-0.0110322 0 -0.0576056)
(0.0191413 0 -0.0617201)
(0.0348239 0 -0.0240912)
(0.0465121 0 0.00270439)
(0.0287267 0 0.00182227)
(-0.00408126 0 -0.000459244)
(0.0968816 0 0.00103232)
(0.0970242 0 -0.000515531)
(0.0969401 0 -0.00259951)
(0.0964835 0 -0.00325364)
(0.0960052 0 -0.00408095)
(0.0951365 0 -0.00789742)
(0.0941587 0 -0.0124577)
(0.092669 0 -0.0144443)
(0.0910981 0 -0.0162061)
(0.0890844 0 -0.0228513)
(0.0869651 0 -0.0303383)
(0.0838599 0 -0.0331746)
(0.0804664 0 -0.0353583)
(0.0768519 0 -0.0453606)
(0.0739412 0 -0.0554474)
(0.0529422 0 -0.0573519)
(0.0354862 0 -0.0575491)
(0.00780205 0 -0.064607)
(-0.0187309 0 -0.0610998)
(-0.0135314 0 -0.0676225)
(-0.00987606 0 -0.0646719)
(0.00111508 0 -0.067465)
(0.0108217 0 -0.0626407)
(-0.0103674 0 -0.0686224)
(-0.00818976 0 -0.0764193)
(0.0086821 0 -0.0414412)
(0.0240215 0 -0.0135168)
(0.0192163 0 -0.0110252)
(0.00133564 0 -0.00792659)
(0.09615 0 0.00167774)
(0.0971194 0 0.000545087)
(0.0978257 0 -0.00110368)
(0.0980597 0 -0.00116375)
(0.0982436 0 -0.00148571)
(0.0983654 0 -0.00486345)
(0.0981789 0 -0.00906736)
(0.0974726 0 -0.0107375)
(0.0967119 0 -0.0121098)
(0.0956043 0 -0.0183403)
(0.0943669 0 -0.0255806)
(0.0924979 0 -0.0278974)
(0.0904329 0 -0.0297924)
(0.0870991 0 -0.0398497)
(0.0848747 0 -0.0510752)
(0.0623945 0 -0.0525546)
(0.0427424 0 -0.0517363)
(0.0204902 0 -0.0620422)
(-0.00596223 0 -0.0629339)
(0.00501706 0 -0.072715)
(0.0116541 0 -0.0726458)
(0.0198329 0 -0.0810531)
(0.0335694 0 -0.0803329)
(-0.0200159 0 -0.0814049)
(-0.0397534 0 -0.0865485)
(-0.0135028 0 -0.0496209)
(0.00317471 0 -0.0256882)
(0.0085009 0 -0.0291122)
(0.00379578 0 -0.0210363)
(0.0939987 0 0.00223072)
(0.0956779 0 0.00163182)
(0.0970653 0 0.000405796)
(0.0982217 0 0.00111171)
(0.0989602 0 0.00131335)
(0.100111 0 -0.00168821)
(0.100886 0 -0.00549835)
(0.100874 0 -0.00681006)
(0.100865 0 -0.00781197)
(0.100655 0 -0.0136715)
(0.100198 0 -0.0205717)
(0.0992169 0 -0.0223868)
(0.0980184 0 -0.0237534)
(0.0944759 0 -0.0330687)
(0.0922741 0 -0.0441196)
(0.0695304 0 -0.0448054)
(0.0484758 0 -0.0437638)
(0.0375686 0 -0.056327)
(0.0164672 0 -0.0619442)
(0.0349332 0 -0.07654)
(0.0483509 0 -0.0801596)
(0.0411407 0 -0.0960165)
(0.0520566 0 -0.100328)
(-0.0288887 0 -0.0925858)
(-0.0795125 0 -0.095636)
(-0.0441347 0 -0.0570409)
(-0.0171777 0 -0.0318272)
(-0.00245496 0 -0.0373693)
(0.00257856 0 -0.0338707)
(0.0906253 0 0.00270271)
(0.0930791 0 0.00260447)
(0.0950023 0 0.00187507)
(0.0968654 0 0.00319664)
(0.0984857 0 0.00414228)
(0.100333 0 0.00146525)
(0.102077 0 -0.00183851)
(0.10274 0 -0.00255985)
(0.103413 0 -0.0031676)
(0.104369 0 -0.00864207)
(0.104843 0 -0.0152129)
(0.104438 0 -0.016953)
(0.103988 0 -0.0178578)
(0.0990594 0 -0.0265301)
(0.0960841 0 -0.0366476)
(0.0726545 0 -0.035666)
(0.0509888 0 -0.0346398)
(0.0590914 0 -0.0464885)
(0.0500635 0 -0.0567245)
(0.0777516 0 -0.0784329)
(0.0996962 0 -0.0871993)
(0.0564075 0 -0.109728)
(0.0520106 0 -0.11914)
(-0.035812 0 -0.0959875)
(-0.113756 0 -0.0960872)
(-0.0701461 0 -0.0712248)
(-0.0336308 0 -0.0446639)
(-0.0103352 0 -0.0469592)
(0.00433619 0 -0.0449864)
(0.0889314 0 0.00332249)
(0.0863981 0 0.00317579)
(0.091615 0 0.00308428)
(0.0942725 0 0.00521964)
(0.0963965 0 0.00685875)
(0.0989545 0 0.00478135)
(0.101255 0 0.00184485)
(0.103033 0 0.00207748)
(0.104282 0 0.00187333)
(0.106578 0 -0.0031963)
(0.108235 0 -0.00938242)
(0.108364 0 -0.0110815)
(0.108632 0 -0.0119691)
(0.101933 0 -0.0202334)
(0.0973882 0 -0.0294301)
(0.0717786 0 -0.0274351)
(0.0485179 0 -0.0265854)
(0.0825466 0 -0.0339815)
(0.0931712 0 -0.046877)
(0.129621 0 -0.0753599)
(0.162267 0 -0.0919532)
(0.0567022 0 -0.119603)
(0.0161161 0 -0.131416)
(-0.0460891 0 -0.0865267)
(-0.134184 0 -0.0767955)
(-0.0847683 0 -0.0830166)
(-0.0410631 0 -0.0669776)
(-0.0128652 0 -0.0665892)
(0.010428 0 -0.0606779)
(0.0900301 0 0.00682071)
(0.0871642 0 0.00415602)
(0.0820494 0 0.00468756)
(0.0728115 0 0.00388773)
(0.0929197 0 0.00929498)
(0.0962497 0 0.00790397)
(0.0990769 0 0.00544809)
(0.101647 0 0.00643346)
(0.103933 0 0.00711821)
(0.107081 0 0.00233775)
(0.110064 0 -0.00318115)
(0.110681 0 -0.00453555)
(0.111632 0 -0.00539871)
(0.103672 0 -0.013239)
(0.0976187 0 -0.0216461)
(0.0701234 0 -0.0203962)
(0.0446375 0 -0.020308)
(0.102883 0 -0.0247421)
(0.137987 0 -0.0349984)
(0.178256 0 -0.0645339)
(0.218099 0 -0.0887916)
(0.0527845 0 -0.112753)
(-0.0516911 0 -0.126393)
(-0.0708921 0 -0.0749869)
(-0.133103 0 -0.0473769)
(-0.0882535 0 -0.0872258)
(-0.0398983 0 -0.0899496)
(-0.012013 0 -0.0837566)
(0.0156481 0 -0.0774763)
(0.0919419 0 0.0105041)
(0.0882333 0 0.0114952)
(0.0826262 0 0.00957378)
(0.0730016 0 0.00588869)
(0.0641661 0 0.00521261)
(0.0588234 0 0.00385561)
(0.0954785 0 0.00869202)
(0.0987401 0 0.0106821)
(0.101593 0 0.0122819)
(0.105702 0 0.00820803)
(0.109424 0 0.00307177)
(0.111035 0 0.00281461)
(0.112453 0 0.00205854)
(0.104122 0 -0.00513667)
(0.0969634 0 -0.0131231)
(0.0700175 0 -0.0127678)
(0.0429429 0 -0.0139527)
(0.119755 0 -0.0191991)
(0.177753 0 -0.0260913)
(0.207628 0 -0.0523405)
(0.246098 0 -0.0776589)
(0.044209 0 -0.0836214)
(-0.123461 0 -0.0958499)
(-0.101715 0 -0.0646852)
(-0.124588 0 -0.0308805)
(-0.0802687 0 -0.0805899)
(-0.0364928 0 -0.105334)
(-0.0107605 0 -0.0894271)
(0.0170633 0 -0.0863346)
(0.0942776 0 0.0143731)
(0.0905561 0 0.011609)
(0.0838813 0 0.0146907)
(0.0734023 0 0.0148357)
(0.0641587 0 0.0107768)
(0.0580701 0 0.00601414)
(0.0547736 0 0.00480087)
(0.0468945 0 0.00253675)
(0.0977092 0 0.0170455)
(0.102566 0 0.0136809)
(0.107009 0 0.00904344)
(0.109231 0 0.0100405)
(0.111492 0 0.0103459)
(0.102999 0 0.00353082)
(0.0954666 0 -0.00399387)
(0.070963 0 -0.00404104)
(0.044633 0 -0.0057419)
(0.133695 0 -0.0139833)
(0.211062 0 -0.0211996)
(0.217245 0 -0.0427301)
(0.243388 0 -0.0636347)
(0.0368433 0 -0.0504601)
(-0.171128 0 -0.0544238)
(-0.127088 0 -0.0511253)
(-0.111086 0 -0.0329587)
(-0.067778 0 -0.0737283)
(-0.0243978 0 -0.106549)
(-0.00968274 0 -0.0885482)
(0.0151759 0 -0.0848823)
(0.0979052 0 0.0185403)
(0.0924072 0 0.0214162)
(0.0854996 0 0.0202635)
(0.0744036 0 0.0161225)
(0.0642745 0 0.0166495)
(0.0576429 0 0.0153247)
(0.0537237 0 0.0102914)
(0.0444274 0 0.00311267)
(0.036518 0 0.00108831)
(0.0443909 0 -0.00068119)
(0.102894 0 0.0144895)
(0.105478 0 0.0168576)
(0.10804 0 0.0187414)
(0.0996544 0 0.0126586)
(0.0919798 0 0.00513937)
(0.0722234 0 0.00612892)
(0.0484624 0 0.00444315)
(0.148482 0 -0.006844)
(0.238766 0 -0.0166881)
(0.211313 0 -0.033907)
(0.214014 0 -0.0482183)
(0.0302169 0 -0.0219791)
(-0.180873 0 -0.0150326)
(-0.133841 0 -0.0436974)
(-0.091899 0 -0.0421997)
(-0.0554348 0 -0.0642066)
(-0.0136643 0 -0.0915733)
(-0.008935 0 -0.0809172)
(0.00593794 0 -0.0776129)
(0.100198 0 0.0231396)
(0.0970422 0 0.0194783)
(0.0880274 0 0.0261376)
(0.0753814 0 0.0283482)
(0.064551 0 0.0233846)
(0.05633 0 0.0169397)
(0.0520723 0 0.0160539)
(0.0433245 0 0.0107658)
(0.0338674 0 0.00361251)
(0.0386207 0 -0.00382826)
(0.047483 0 -0.00515276)
(0.0553662 0 -0.00766684)
(0.102828 0 0.0266399)
(0.0944561 0 0.0208816)
(0.0862586 0 0.0134283)
(0.0720737 0 0.0169982)
(0.0530032 0 0.0155698)
(0.161181 0 0.0027454)
(0.261964 0 -0.0095444)
(0.195246 0 -0.0238242)
(0.16651 0 -0.0331062)
(0.0150929 0 0.000255226)
(-0.171782 0 0.0214065)
(-0.127871 0 -0.0284021)
(-0.0816686 0 -0.0483537)
(-0.0477148 0 -0.0507983)
(-0.0100547 0 -0.067603)
(-0.00931719 0 -0.0666678)
(-0.00432741 0 -0.0680446)
(0.0875898 0 0.028606)
(0.0958735 0 0.033988)
(0.0887873 0 0.0328485)
(0.0775909 0 0.0278367)
(0.0650886 0 0.0307916)
(0.0555045 0 0.0300041)
(0.0499349 0 0.0229269)
(0.0392524 0 0.0119258)
(0.0302511 0 0.00734504)
(0.0347382 0 0.000954929)
(0.0408198 0 -0.00650145)
(0.0414934 0 -0.0194336)
(0.0503166 0 -0.0207885)
(0.0963621 0 -0.0108898)
(0.0790301 0 0.0208839)
(0.07052 0 0.0264624)
(0.0560699 0 0.0263538)
(0.163794 0 0.014672)
(0.271573 0 0.000910768)
(0.173233 0 -0.00441385)
(0.104857 0 -0.0132564)
(-0.0103055 0 0.0213029)
(-0.165204 0 0.0487762)
(-0.118143 0 -0.0044756)
(-0.0749969 0 -0.0452822)
(-0.0433584 0 -0.0331159)
(-0.00943647 0 -0.0409929)
(-0.0105101 0 -0.0512278)
(-0.00956333 0 -0.0561092)
(0.0659617 0 0.0353661)
(0.070429 0 0.0278898)
(0.0744482 0 0.0403309)
(0.0741863 0 0.0460976)
(0.0630134 0 0.0393377)
(0.0546576 0 0.0304581)
(0.0480363 0 0.0305659)
(0.0365234 0 0.0251812)
(0.0254515 0 0.0139109)
(0.0241484 0 0.000606396)
(0.0302342 0 -0.00484467)
(0.0312093 0 -0.0232343)
(0.0322664 0 -0.0357698)
(0.0710375 0 -0.0414953)
(0.117094 0 -0.0312953)
(0.153501 0 -0.0241312)
(0.056849 0 0.0364711)
(0.158467 0 0.0258609)
(0.262262 0 0.0129347)
(0.148212 0 0.0217345)
(0.0483634 0 0.0191929)
(-0.0369233 0 0.0376805)
(-0.155475 0 0.0627819)
(-0.104591 0 0.0141818)
(-0.0590801 0 -0.0313248)
(-0.0374175 0 -0.0159225)
(-0.00657889 0 -0.0142601)
(-0.0109143 0 -0.0351348)
(-0.0119648 0 -0.0414189)
(0.145869 0 0.035101)
(0.0571863 0 0.0456457)
(0.0603089 0 0.0482796)
(0.0473899 0 0.0403949)
(0.0471451 0 0.0488937)
(0.0485428 0 0.0497238)
(0.0434116 0 0.0393815)
(0.0327534 0 0.0269548)
(0.0207488 0 0.0227308)
(0.0162339 0 0.0139012)
(0.016692 0 0.000712417)