/*--------------------------------*- C++ -*----------------------------------*\
| =========                 |                                                 |
| \\      /  F ield         | OpenFOAM: The Open Source CFD Toolbox           |
|  \\    /   O peration     | Version:  5.x                                   |
|   \\  /    A nd           | Web:      www.OpenFOAM.org                      |
|    \\/     M anipulation  |                                                 |
\*---------------------------------------------------------------------------*/
FoamFile
{
    version     2.0;
    format      ascii;
    class       surfaceScalarField;
    location    "0.3";
    object      alphaPhi10;
}
// * * * * * * * * * * * * * * * * * * * * * * * * * * * * * * * * * * * * * //

dimensions      [0 3 -1 0 0 0 0];

internalField   nonuniform List<scalar> 
30582
(
0.000241552
1.47108e-05
0.000210335
3.1217e-05
0.000241575
2.94329e-05
0.000169
4.13347e-05
0.000210164
6.26279e-05
0.000243007
4.27981e-05
0.00013594
3.30603e-05
0.000168791
8.27085e-05
0.000211112
9.4523e-05
0.000241806
5.7473e-05
0.000104356
3.15837e-05
0.000135246
6.66044e-05
0.00016898
0.000124841
0.000208624
0.000127705
0.000246007
6.80872e-05
7.95219e-05
2.48344e-05
0.0001035
6.33304e-05
0.000133887
0.000101698
0.000166686
0.000166778
0.00021107
0.000162643
0.000242106
8.2787e-05
5.9474e-05
2.00479e-05
7.8642e-05
4.96922e-05
0.000101704
9.55128e-05
0.000130638
0.000137745
0.000168223
0.000209625
0.00020292
0.000201829
0.000254031
8.57793e-05
4.41324e-05
1.53416e-05
5.86557e-05
4.00342e-05
7.68158e-05
7.45805e-05
9.85244e-05
0.000127627
0.00012893
0.000177038
0.000162055
0.000250491
0.000208318
0.000247542
0.000234478
0.000108574
3.25273e-05
1.16051e-05
4.34269e-05
3.05704e-05
5.69834e-05
5.98666e-05
7.37921e-05
9.93129e-05
9.57252e-05
0.000160832
0.000121139
0.000217954
0.000166166
0.000292643
0.000191949
0.000290071
0.000182855
-4.07343e-05
2.38745e-05
8.65279e-06
3.19461e-05
2.30859e-05
4.19933e-05
4.55605e-05
5.43296e-05
7.93291e-05
7.05717e-05
0.000124466
8.87769e-05
0.000193194
0.000119468
0.000264652
0.000158283
0.000326309
0.000142161
8.04319e-05
2.61195e-05
-4.21534e-07
1.74852e-05
6.3893e-06
2.34117e-05
1.71871e-05
3.07729e-05
3.43063e-05
3.97725e-05
6.01176e-05
5.13009e-05
9.85998e-05
6.42587e-05
0.000148985
8.54101e-05
0.000227252
0.000108113
0.000314821
0.000109347
6.52727e-05
3.79933e-05
1.23451e-06
4.75075e-08
-2.16666e-10
1.2794e-05
4.69125e-06
1.71241e-05
1.26769e-05
2.24817e-05
2.54783e-05
2.89806e-05
4.50982e-05
3.71353e-05
7.42832e-05
4.60296e-05
0.000116829
6.01173e-05
0.000174277
7.49142e-05
0.000260451
6.00503e-05
3.84444e-05
1.79462e-05
1.19711e-06
2.19074e-07
-7.68556e-12
-6.24325e-11
-5.62133e-15
9.3614e-06
3.43257e-06
1.25161e-05
9.29928e-06
1.64008e-05
1.87579e-05
2.10729e-05
3.3386e-05
2.68085e-05
5.5425e-05
3.29071e-05
8.74057e-05
4.22031e-05
0.000134743
4.99604e-05
0.000199231
4.07736e-05
1.80018e-05
4.67258e-06
4.06525e-07
3.17444e-08
1.23062e-09
-4.17082e-11
-1.65788e-16
-9.09883e-16
-1.14816e-19
6.85437e-06
2.50703e-06
9.14965e-06
6.79896e-06
1.19609e-05
1.37392e-05
1.53115e-05
2.45193e-05
1.93435e-05
4.0851e-05
2.34958e-05
6.48364e-05
2.97008e-05
9.9908e-05
3.34105e-05
0.000151293
2.46383e-05
7.14416e-06
1.32354e-06
7.05287e-08
2.707e-09
1.56939e-10
-1.98086e-12
3.46933e-14
-8.14854e-16
5.66431e-20
-9.38753e-21
-2.53896e-24
5.02367e-06
1.8307e-06
6.69416e-06
4.96253e-06
8.72741e-06
1.00324e-05
1.11285e-05
1.79222e-05
1.3963e-05
2.98998e-05
1.67959e-05
4.75508e-05
2.09118e-05
7.36253e-05
2.25357e-05
0.000110783
1.66575e-05
2.69991e-06
2.91994e-07
9.90996e-09
2.23319e-10
9.38406e-12
-1.23801e-14
3.40998e-15
-3.28796e-17
6.46548e-19
-8.39378e-21
1.52369e-24
-3.75066e-26
3.68492e-06
1.33874e-06
4.90285e-06
3.62201e-06
6.37489e-06
7.31504e-06
8.09629e-06
1.30646e-05
1.00917e-05
2.17935e-05
1.20268e-05
3.4669e-05
1.47673e-05
5.36953e-05
1.52238e-05
8.09372e-05
1.0932e-05
1.0073e-06
6.41543e-08
1.22451e-09
1.97311e-11
3.05295e-13
1.93675e-15
1.90304e-16
-3.47077e-19
6.13745e-20
-3.03969e-22
1.15003e-23
-3.80554e-26
2.70258e-06
9.82344e-07
3.59383e-06
2.64776e-06
4.6624e-06
5.33451e-06
5.89887e-06
9.51246e-06
7.30663e-06
1.58497e-05
8.63227e-06
2.5188e-05
1.04599e-05
3.89764e-05
1.03558e-05
5.85633e-05
7.36428e-06
3.63442e-07
1.41222e-08
1.47989e-10
1.88898e-12
2.2165e-14
1.24965e-16
5.20754e-18
2.01714e-20
3.38381e-21
-3.01419e-24
9.92469e-25
-1.30909e-27
1.97891e-06
7.23668e-07
2.63417e-06
1.94201e-06
3.4134e-06
3.89675e-06
4.30463e-06
6.92875e-06
5.30117e-06
1.15179e-05
6.21239e-06
1.82696e-05
7.43479e-06
2.82131e-05
7.0933e-06
4.2239e-05
4.97799e-06
1.32629e-07
3.10917e-09
1.74242e-11
1.77249e-13
1.81978e-15
1.43486e-17
3.33387e-19
1.14668e-21
8.61062e-23
2.07578e-25
5.5977e-26
-9.66861e-30
1.44055e-06
5.38366e-07
1.92772e-06
1.43012e-06
2.49959e-06
2.85582e-06
3.14533e-06
5.05606e-06
3.85423e-06
8.37568e-06
4.4835e-06
1.32468e-05
5.30359e-06
2.04008e-05
4.89309e-06
3.04133e-05
3.38381e-06
4.86814e-08
7.36771e-10
2.14495e-12
1.76208e-14
1.50463e-16
1.0144e-18
1.95265e-20
9.87647e-23
4.3534e-24
8.44406e-27
1.31031e-27
1.20079e-30
1.03592e-06
4.04631e-07
1.40308e-06
1.06301e-06
1.82779e-06
2.10192e-06
2.29942e-06
3.70172e-06
2.80715e-06
6.10314e-06
3.2446e-06
9.61458e-06
3.79698e-06
1.47534e-05
3.3981e-06
2.18958e-05
2.30597e-06
1.82104e-08
1.85958e-10
3.66956e-13
2.52184e-15
1.46911e-17
8.43853e-20
1.20513e-21
5.10949e-24
1.85334e-25
5.20359e-28
5.17746e-29
3.18145e-32
7.24693e-07
3.11222e-07
1.00871e-06
7.98997e-07
1.32956e-06
1.56124e-06
1.6788e-06
2.72254e-06
2.04651e-06
4.46236e-06
2.35342e-06
6.99432e-06
2.72775e-06
1.06838e-05
2.37477e-06
1.57767e-05
1.57234e-06
7.00614e-09
5.01871e-11
9.9604e-14
5.39588e-16
2.37559e-18
1.08171e-20
1.01831e-22
3.66082e-25
9.00702e-27
2.05443e-29
1.65355e-30
1.4347e-33
4.77235e-07
2.47458e-07
7.05422e-07
6.1451e-07
9.5515e-07
1.17341e-06
1.21974e-06
2.0203e-06
1.49054e-06
3.27851e-06
1.70947e-06
5.10631e-06
1.9653e-06
7.75677e-06
1.66932e-06
1.13893e-05
1.06994e-06
2.80905e-09
1.44229e-11
2.91251e-14
1.19349e-16
4.80892e-19
1.81399e-21
1.32925e-23
3.90558e-26
6.50895e-28
1.25377e-30
6.55559e-32
4.45797e-35
2.70352e-07
2.06883e-07
4.64441e-07
4.88439e-07
6.67505e-07
9.02154e-07
8.7537e-07
1.51778e-06
1.08079e-06
2.43006e-06
1.24088e-06
3.7471e-06
1.41899e-06
5.65263e-06
1.17916e-06
8.24692e-06
7.2496e-07
1.18528e-09
4.38613e-12
9.33131e-15
2.73845e-17
1.08967e-19
3.06703e-22
2.02615e-24
4.82519e-27
6.45738e-29
1.04703e-31
3.86343e-33
2.25154e-36
8.63604e-08
1.83991e-07
2.6329e-07
4.08033e-07
4.39366e-07
7.16578e-07
6.11475e-07
1.16605e-06
7.74404e-07
1.82416e-06
8.97413e-07
2.77353e-06
1.02442e-06
4.14167e-06
8.36243e-07
5.99555e-06
4.87343e-07
5.3441e-10
1.39801e-12
3.30122e-15
6.8612e-18
2.83258e-20
5.83553e-23
3.57902e-25
6.30424e-28
7.46084e-30
9.48844e-33
2.86593e-34
1.41457e-37
-8.9865e-08
1.76225e-07
8.47732e-08
3.62508e-07
2.49444e-07
5.97954e-07
4.02745e-07
9.25308e-07
5.4056e-07
1.39989e-06
6.41764e-07
2.07981e-06
7.37695e-07
3.06025e-06
5.936e-07
4.38431e-06
3.24279e-07
2.55958e-10
4.61285e-13
1.30817e-15
1.84566e-18
8.47143e-21
1.2684e-23
7.57739e-26
9.67957e-29
1.03076e-30
9.69389e-34
2.51649e-35
9.52458e-39
-2.71685e-07
1.8182e-07
-8.62176e-08
3.47216e-07
8.13153e-08
5.30637e-07
2.2955e-07
7.71149e-07
3.5638e-07
1.10949e-06
4.47658e-07
1.594e-06
5.25811e-07
2.29169e-06
4.22058e-07
3.23179e-06
2.12305e-07
1.31996e-10
1.53085e-13
5.69364e-16
5.22601e-19
2.94436e-21
3.06359e-24
1.91211e-26
1.76331e-29
1.77648e-31
1.21287e-34
2.71926e-36
7.62977e-40
-4.72513e-07
2.00828e-07
-2.62664e-07
3.58266e-07
-7.95708e-08
5.08102e-07
7.65343e-08
6.83653e-07
2.04361e-07
9.23168e-07
2.95519e-07
1.26163e-06
3.66435e-07
1.75337e-06
2.97933e-07
2.41582e-06
1.37046e-07
6.91831e-11
5.02612e-14
2.78358e-16
1.50023e-19
1.15272e-21
8.00437e-25
5.78139e-27
3.66487e-30
3.76361e-32
1.87018e-35
3.8054e-37
7.74909e-41
-7.0615e-07
2.33637e-07
-4.57726e-07
3.9589e-07
-2.45656e-07
5.24351e-07
-6.96478e-08
6.54285e-07
7.0468e-08
8.17546e-07
1.7083e-07
1.04786e-06
2.42639e-07
1.38542e-06
2.06855e-07
1.84445e-06
8.66466e-08
3.8667e-11
1.51847e-14
1.35776e-16
4.68067e-20
5.20418e-22
2.1462e-25
2.01457e-27
8.50543e-31
9.81589e-33
3.37969e-36
6.73407e-38
1.00332e-41
-9.8749e-07
2.81341e-07
-6.84783e-07
4.60694e-07
-4.29335e-07
5.7957e-07
-2.20479e-07
6.75182e-07
-5.68897e-08
7.81642e-07
6.14718e-08
9.26904e-07
1.42194e-07
1.1483e-06
1.37981e-07
1.4543e-06
5.35802e-08
2.22639e-11
4.63377e-15
7.3132e-17
1.25743e-20
2.3298e-22
5.80049e-26
8.26926e-28
2.1027e-31
3.02039e-33
6.99056e-37
1.50603e-38
1.55794e-42
-1.33296e-06
3.45466e-07
-9.58139e-07
5.54696e-07
-6.4304e-07
6.74399e-07
-3.87168e-07
7.46259e-07
-1.882e-07
8.06491e-07
-4.20327e-08
8.85147e-07
5.49271e-08
1.01417e-06
8.41017e-08
1.20218e-06
3.19964e-08
1.36259e-11
1.28215e-15
4.06469e-17
4.08249e-21
1.18652e-22
1.34132e-26
3.37255e-28
5.61049e-32
1.1159e-33
1.568e-37
4.0759e-39
2.83809e-43
-1.76105e-06
4.2809e-07
-1.29361e-06
6.80933e-07
-9.00098e-07
8.11754e-07
-5.81053e-07
8.68284e-07
-3.33168e-07
8.91228e-07
-1.48446e-07
9.12905e-07
-2.70197e-08
9.67094e-07
3.86447e-08
1.05963e-06
1.78263e-08
9.02337e-12
3.36061e-16
2.43919e-17
1.50139e-21
6.32626e-23
3.15298e-27
1.60972e-28
1.34841e-32
4.14599e-34
3.76419e-38
1.34948e-39
5.77369e-44
-2.29328e-06
5.32233e-07
-1.70923e-06
8.43713e-07
-1.21546e-06
9.96294e-07
-8.14288e-07
1.04499e-06
-5.01667e-07
1.03678e-06
-2.65685e-07
1.00847e-06
-1.1081e-07
9.96695e-07
-2.7939e-09
1.00853e-06
7.83593e-09
6.80572e-12
5.87537e-17
1.59764e-17
7.67875e-22
3.7101e-23
5.56614e-28
8.18422e-29
3.85097e-33
1.846e-34
8.29098e-39
4.57184e-40
1.27859e-44
-2.95488e-06
6.61604e-07
-2.22609e-06
1.04909e-06
-1.60634e-06
1.2346e-06
-1.10058e-06
1.28259e-06
-7.04353e-07
1.24767e-06
-4.01852e-07
1.17295e-06
-2.02848e-07
1.1005e-06
-4.42469e-08
1.03815e-06
-4.5932e-10
5.98251e-12
-4.29958e-18
1.20997e-17
3.89403e-22
2.39192e-23
3.4751e-29
4.62764e-29
1.13003e-33
8.88502e-35
2.10935e-39
1.89202e-40
2.72235e-45
-3.77596e-06
8.21072e-07
-2.86895e-06
1.30446e-06
-2.09296e-06
1.53572e-06
-1.4558e-06
1.58982e-06
-9.5336e-07
1.5316e-06
-5.65759e-07
1.41158e-06
-3.09634e-07
1.27974e-06
-8.92628e-08
1.14552e-06
-9.02936e-09
6.21029e-12
-3.12831e-17
1.05311e-17
2.69388e-22
1.78379e-23
-4.40214e-29
2.87306e-29
4.04818e-34
4.77192e-35
5.33013e-40
8.54974e-41
7.21337e-46
-4.79181e-06
1.01585e-06
-3.66731e-06
1.61944e-06
-2.69904e-06
1.91053e-06
-1.89857e-06
1.97849e-06
-1.26282e-06
1.89928e-06
-7.67494e-07
1.73333e-06
-4.38404e-07
1.54035e-06
-1.41249e-07
1.33172e-06
-1.9801e-08
7.49671e-12
-8.28965e-17
1.05753e-17
1.92619e-22
1.51859e-23
-3.03345e-29
2.06181e-29
1.54139e-34
2.8077e-35
1.56404e-40
4.3107e-41
1.99854e-46
-6.04427e-06
1.25246e-06
-4.6557e-06
2.00424e-06
-3.45255e-06
2.37295e-06
-2.45073e-06
2.46269e-06
-1.64934e-06
2.365e-06
-1.0188e-06
2.15058e-06
-5.97415e-07
1.89234e-06
-2.04219e-07
1.60332e-06
-3.47405e-08
1.01434e-11
-2.61748e-16
1.21598e-17
1.1921e-22
1.48313e-23
-1.15542e-29
1.69865e-29
8.22029e-35
1.91422e-35
5.37101e-41
2.38192e-41
6.08187e-47
-7.58134e-06
1.53707e-06
-5.87481e-06
2.47157e-06
-4.3862e-06
2.93788e-06
-3.13814e-06
3.06036e-06
-2.1324e-06
2.94576e-06
-1.3335e-06
2.6797e-06
-7.96342e-07
2.34951e-06
-2.82889e-07
1.97101e-06
-5.59756e-08
1.48337e-11
-8.54197e-16
1.5821e-17
-1.38453e-23
1.64994e-23
-1.92357e-29
1.62239e-29
4.3796e-35
1.5207e-35
2.77803e-41
1.53594e-41
1.8286e-47
-9.4588e-06
1.87747e-06
-7.37137e-06
3.03364e-06
-5.53871e-06
3.62408e-06
-3.99105e-06
3.79079e-06
-2.73506e-06
3.66302e-06
-1.7279e-06
3.34016e-06
-1.04659e-06
2.92995e-06
-3.82606e-07
2.44923e-06
-8.59306e-08
2.2767e-11
-2.59089e-15
2.27473e-17
-4.40494e-22
2.08446e-23
-1.26262e-28
1.78259e-29
-1.06386e-36
1.42401e-35
1.48632e-41
1.17559e-41
5.68196e-48
-1.17405e-05
2.28173e-06
-9.19997e-06
3.70608e-06
-6.95461e-06
4.44954e-06
-5.04521e-06
4.67824e-06
-3.4843e-06
4.54002e-06
-2.22136e-06
4.15647e-06
-1.36176e-06
3.65533e-06
-5.09971e-07
3.05732e-06
-1.27449e-07
3.60012e-11
-7.36737e-15
3.50942e-17
-1.74239e-21
2.95263e-23
-5.27702e-28
2.23959e-29
-9.91786e-35
1.56159e-35
-3.46259e-42
1.0805e-41
-1.00431e-48
2.75963e-06
-1.45002e-05
-1.14229e-05
4.50468e-06
-8.68599e-06
5.43746e-06
-6.3419e-06
5.74623e-06
-4.41226e-06
5.6062e-06
-2.8366e-06
5.15527e-06
-1.75806e-06
4.55277e-06
-6.72957e-07
3.81832e-06
-1.83916e-07
5.81413e-11
-1.98682e-14
5.68863e-17
-5.57958e-21
4.58967e-23
-1.76416e-27
3.17419e-29
-4.02512e-34
1.9846e-35
-5.80977e-41
1.18799e-41
-8.36987e-48
5.44928e-06
-1.41126e-05
8.61053e-06
-2.31107e-05
-1.07924e-05
6.61113e-06
-7.92967e-06
7.02524e-06
-5.55622e-06
6.89018e-06
-3.60078e-06
6.37038e-06
-2.25452e-06
5.65173e-06
-8.81787e-07
4.7616e-06
-2.59331e-07
9.54729e-11
-5.08672e-14
9.54505e-17
-1.63081e-20
7.6965e-23
-5.46871e-27
5.00668e-29
-1.281e-33
2.86092e-35
-2.27324e-40
1.54125e-41
-2.06844e-47
7.99998e-06
-1.33431e-05
1.70078e-05
-2.25098e-05
1.23062e-05
-3.54169e-05
-9.86417e-06
8.54563e-06
-6.9601e-06
8.42912e-06
-4.54567e-06
7.83508e-06
-2.874e-06
6.98985e-06
-1.14795e-06
5.9179e-06
-3.58438e-07
1.59515e-10
-1.24864e-13
1.64529e-16
-4.5124e-20
1.3608e-22
-1.61924e-26
8.72599e-29
-4.0011e-33
4.6296e-35
-6.89486e-40
2.28546e-41
-5.29063e-47
1.03461e-05
-1.22102e-05
2.49783e-05
-2.13137e-05
2.43162e-05
-3.45197e-05
1.7009e-05
-5.24259e-05
-8.67477e-06
1.02603e-05
-5.70883e-06
9.59228e-06
-3.64354e-06
8.60462e-06
-1.4861e-06
7.32799e-06
-4.86776e-07
2.71242e-10
-2.97204e-13
2.92044e-16
-1.20589e-19
2.504e-22
-4.69077e-26
1.63698e-28
-1.21524e-32
8.42489e-35
-2.10084e-39
3.83298e-41
-1.59804e-46
1.24315e-05
-1.07602e-05
3.23234e-05
-1.95553e-05
3.57313e-05
-3.27289e-05
3.36044e-05
-5.11151e-05
2.2755e-05
-7.5181e-05
-7.13457e-06
1.1686e-05
-4.59491e-06
1.05437e-05
-1.91416e-06
9.03268e-06
-6.51241e-07
4.72093e-10
-6.97544e-13
5.36455e-16
-3.15784e-19
4.7991e-22
-1.33076e-25
3.24536e-28
-3.6818e-32
1.68278e-34
-6.42069e-39
7.31551e-41
-5.3104e-46
1.41742e-05
-8.87725e-06
3.88723e-05
-1.73091e-05
4.62815e-05
-3.01055e-05
4.93681e-05
-4.84926e-05
4.49221e-05
-7.32821e-05
2.97938e-05
-0.000104975
-5.76677e-06
1.28579e-05
-2.45201e-06
1.10815e-05
-8.60333e-07
8.40506e-10
-1.63012e-12
1.02564e-15
-8.20724e-19
9.63438e-22
-3.74274e-25
6.78837e-28
-1.11238e-31
3.60913e-34
-2.03133e-38
1.55961e-40
-1.79985e-45
1.56164e-05
-7.20904e-06
4.43686e-05
-1.43735e-05
5.57418e-05
-2.67694e-05
6.39457e-05
-4.46832e-05
6.58939e-05
-6.94644e-05
5.87094e-05
-0.000102198
3.83939e-05
-0.000143369
-3.12506e-06
1.35309e-05
-1.12316e-06
1.50982e-09
-3.76689e-12
2.04847e-15
-2.14593e-18
2.03481e-21
-1.05056e-24
1.50378e-27
-3.38364e-31
8.28363e-34
-6.64541e-38
3.62706e-40
-6.18152e-45
1.64922e-05
-4.00081e-06
4.89387e-05
-1.17791e-05
6.37598e-05
-2.23914e-05
7.70606e-05
-3.98843e-05
8.52187e-05
-6.4008e-05
8.57424e-05
-9.64974e-05
7.54781e-05
-0.000139282
4.75556e-05
-0.000190924
-1.45095e-06
2.76e-09
-8.67246e-12
4.18668e-15
-5.56904e-18
4.56415e-21
-3.02479e-24
3.53698e-27
-1.03541e-30
2.03463e-33
-2.23598e-37
9.16131e-40
-2.17311e-44
5.37747e-09
-1.79381e-06
5.17673e-05
-6.82942e-06
7.0501e-05
-1.85204e-05
8.82655e-05
-3.35963e-05
0.000102583
-5.72483e-05
0.000110351
-8.86164e-05
0.000109445
-0.000130465
9.75817e-05
-0.000189308
5.16909e-05
-0.000242615
-2.10146e-11
8.98716e-15
-1.47578e-17
1.05943e-20
-8.70611e-24
8.95283e-27
-3.32024e-30
5.3627e-33
-7.60236e-37
2.49975e-39
-7.77513e-44
2.09203e-14
-3.10437e-11
3.00198e-08
-3.11015e-06
7.49654e-05
-1.12938e-05
9.7757e-05
-2.80119e-05
0.000117483
-4.84971e-05
0.000132239
-7.91362e-05
0.000139624
-0.000118795
0.000139849
-0.000172732
0.000124222
-0.000261839
9.73673e-05
-0.000339983
-4.1372e-17
2.64766e-20
-2.62385e-23
2.3648e-26
-1.07273e-29
1.5381e-32
-2.75974e-36
7.41773e-39
-2.86931e-43
7.10988e-20
-4.76879e-17
1.52347e-13
-2.64472e-10
1.13604e-07
-5.20506e-06
0.000104492
-1.80292e-05
0.000130136
-4.0664e-05
0.000150963
-6.72208e-05
0.000165802
-0.000105315
0.000175172
-0.000154118
0.000176862
-0.000225372
0.000185991
-0.000350463
0.000133552
-0.000473535
-8.12705e-23
6.8482e-26
-3.72291e-29
4.63909e-32
-1.01243e-35
2.41747e-38
-1.1538e-42
2.10314e-25
-4.03135e-23
6.78951e-19
-6.99672e-16
9.18532e-13
-1.66477e-09
3.77541e-07
-8.31302e-06
0.000139745
-2.76392e-05
0.000166757
-5.64589e-05
0.000187809
-8.92278e-05
0.000204169
-0.000134311
0.000217164
-0.00019442
0.000246791
-0.000286172
0.00023245
-0.000449361
0.000706137
-0.000270711
-0.00090896
-1.28167e-28
1.55395e-31
-4.04878e-35
8.3482e-38
-4.74897e-42
5.45462e-31
9.14581e-29
2.63226e-24
-2.37528e-21
6.22224e-18
-7.51097e-15
1.14497e-11
-9.52309e-09
1.13214e-06
-1.2829e-05
0.00017951
-4.03922e-05
0.000205975
-7.46241e-05
0.000227598
-0.000112657
0.000247274
-0.000164421
0.000282061
-0.00022969
0.000307491
-0.000361212
0.000563934
-0.000307158
0.000684408
-0.000182523
-0.000772595
-0.000102111
-0.000806849
-1.54486e-34
3.23401e-37
-2.18698e-41
1.30045e-36
4.26184e-34
8.90981e-30
-6.54685e-27
3.58921e-23
-3.16984e-20
7.97577e-17
-1.11055e-13
1.18864e-10
-4.72234e-08
2.99749e-06
-1.90209e-05
0.000221359
-5.57766e-05
0.000246061
-9.30865e-05
0.000269389
-0.000134772
0.000302769
-0.000185129
0.000341288
-0.000263487
0.000461955
-0.000259233
0.000578185
-0.000200935
0.000663296
-0.000134047
-0.000711771
-0.000130273
-0.000744431
-7.15343e-05
-0.000735315
-9.30117e-41
5.64796e-40
2.76244e-35
-1.35232e-32
1.78231e-28
-1.18515e-25
5.27766e-22
-5.69414e-19
1.17224e-15
-1.44346e-12
9.57058e-10
-1.94772e-07
6.97586e-06
-2.69608e-05
0.000262234
-7.19499e-05
0.000285071
-0.000108769
0.000315276
-0.000147279
0.00035237
-0.000196211
0.000401274
-0.000202806
0.000494732
-0.00017578
0.000596465
-0.000134105
0.000679239
-0.000104564
-0.000708722
-0.000125198
-0.000716846
-0.000105815
-0.00071015
-5.56014e-05
-0.000679713
-1.43033e-38
8.05092e-34
-3.49786e-31
3.29622e-27
-2.58698e-24
1.00922e-20
-9.80197e-18
1.31739e-14
-1.36366e-11
5.81458e-09
-6.40181e-07
1.41793e-05
-3.61029e-05
0.000298727
-8.56057e-05
0.000322383
-0.000115876
0.00035413
-0.00014904
0.000362119
-0.000157056
0.000437612
-0.000145685
0.0005366
-0.000115915
0.000623774
-7.86395e-05
0.000678705
-5.35607e-05
-0.000729708
-0.000120046
-0.000713872
-0.000123714
-0.000698948
-9.552e-05
-0.000670231
-5.19182e-05
-0.000627794
-5.41589e-37
1.99055e-32
-9.44426e-30
7.71005e-26
-5.7415e-23
1.5228e-19
-1.05277e-16
1.06096e-13
-9.17659e-11
2.63e-08
-1.63525e-06
2.51289e-05
-4.51893e-05
0.000329087
-9.23106e-05
0.000351516
-0.000113261
0.000333219
-0.00012014
0.000396351
-0.000115796
0.000482227
-9.13121e-05
0.00056395
-5.60915e-05
0.000634784
-3.47183e-05
0.00078858
-4.92109e-05
-0.00079293
-0.000114128
-0.000735625
-0.000135498
-0.000702089
-0.000125704
-0.000668765
-9.59146e-05
-0.000626235
-5.0738e-05
-0.000577056
-1.84573e-35
5.56764e-31
-2.63395e-28
1.53035e-24
-8.60085e-22
1.58378e-18
-8.15452e-16
1.04086e-12
-4.52413e-10
8.96255e-08
-3.26446e-06
3.91745e-05
-5.15076e-05
0.000348842
-8.96372e-05
0.000313491
-9.35328e-05
0.000362917
-8.6706e-05
0.000433309
-6.68777e-05
0.000506421
-3.37828e-05
0.000594866
-1.61735e-05
0.000706232
4.76303e-05
0.000678016
-8.28878e-06
-0.000814814
-1.6823e-05
5.83796e-05
5.43196e-05
-0.000129009
-0.000778047
-0.000148613
-0.000722511
-0.000148941
-0.000678853
-0.000134844
-0.000629835
-9.85464e-05
-0.000578427
-5.20006e-05
-0.000525056
-6.33366e-34
1.40872e-29
-5.26155e-27
2.04597e-23
-7.54219e-21
1.43092e-17
-6.43455e-15
8.21955e-12
-1.58449e-09
2.29708e-07
-4.99496e-06
5.38181e-05
-5.31639e-05
0.000299457
-7.56031e-05
0.00033641
-6.70258e-05
0.000390341
-4.37375e-05
0.000452351
-1.28072e-05
0.000547768
1.33152e-05
0.000618179
7.18796e-05
0.000686764
3.88828e-05
-5.29451e-06
1.78694e-05
-5.50112e-05
3.41476e-05
-2.69919e-05
-0.00083795
-3.39256e-05
-2.12646e-05
-2.36918e-05
1.86469e-05
-4.69883e-05
6.22396e-06
-4.65547e-06
3.38488e-05
4.70556e-05
3.73758e-05
3.09352e-05
-0.000174415
-0.000752245
-0.000165892
-0.000705561
-0.000171662
-0.000642035
-0.000144541
-0.000583839
-0.000102904
-0.000527524
-5.38819e-05
-0.000471174
-1.63301e-32
2.38832e-28
-5.81647e-26
1.94142e-22
-5.81962e-20
1.25806e-16
-2.83697e-14
4.022e-11
-4.12615e-09
4.67616e-07
-6.0358e-06
5.41902e-05
-4.73578e-05
0.000315994
-5.51873e-05
0.000354145
-3.08299e-05
0.000402621
5.99191e-06
0.000489031
4.59301e-05
0.000540981
9.05124e-05
0.000686662
7.19813e-05
-9.37319e-05
-9.71148e-05
0.00040543
-5.55887e-05
-6.14743e-05
6.67832e-06
5.90889e-06
-6.57183e-06
-0.000104493
2.90617e-05
2.62713e-06
2.08829e-05
6.14492e-06
4.49267e-06
-0.000791145
-0.00022122
-9.6466e-05
8.98038e-06
-7.60301e-06
-0.000147942
2.9787e-05
-0.000143198
1.54376e-05
1.49862e-05
2.09342e-05
-2.70696e-05
4.38138e-06
-3.01749e-05
-4.68121e-05
-0.000171645
-0.000746493
-0.000208619
-0.000668604
-0.000191148
-0.000595427
-0.000153208
-0.000533535
-0.000107682
-0.000473724
-5.58247e-05
-0.000415349
-2.37441e-31
2.59641e-27
-4.62277e-25
1.7433e-21
-2.49111e-19
6.90621e-16
-1.27843e-14
1.34303e-10
-7.21202e-09
6.1701e-07
-5.95382e-06
6.35725e-05
-3.70675e-05
0.000326007
-2.70498e-05
0.000359156
1.26349e-05
0.000424615
7.04076e-05
0.000474261
0.00011265
0.000662745
0.00011443
0.000483042
-8.9522e-06
-5.00721e-06
3.28097e-06
5.04833e-06
5.38868e-06
-0.000102273
9.3106e-05
-5.18108e-05
-0.000105294
0.00010502
-5.58122e-05
3.97869e-06
-0.000104163
4.58921e-06
-0.000102964
7.55792e-06
3.41196e-07
1.90165e-05
1.58488e-05
8.42558e-06
-0.000127407
0.000139139
3.26639e-05
-4.50673e-05
3.5483e-05
-3.87455e-05
-0.000762825
-0.000199965
2.0989e-06
-2.31461e-05
-0.000384459
-2.06697e-05
-3.21717e-05
-2.077e-05
-3.32437e-05
4.16889e-05
-1.14331e-05
-2.9262e-06
5.38284e-05
3.10545e-05
-0.000139226
0.000148112
2.91954e-05
-4.65996e-05
3.2015e-05
-4.21421e-05
9.34239e-06
2.26711e-05
-5.37655e-05
3.61767e-07
-4.30864e-05
2.08086e-05
-4.92288e-05
-1.09593e-06
-4.21591e-05
-0.000247714
-0.000707398
-0.000244232
-0.00061552
-0.000204297
-0.000544339
-0.000161919
-0.000479299
-0.000112088
-0.00041746
-5.7442e-05
-0.000357907
-2.08217e-30
2.31685e-26
-2.10047e-24
1.0479e-20
2.23035e-19
2.47057e-15
4.93689e-13
2.47966e-10
-7.45711e-09
8.86696e-07
-4.94241e-06
6.97714e-05
-2.122e-05
0.00032395
8.15629e-06
0.000362594
7.46562e-05
0.000404599
0.00014007
0.000584306
0.000191089
0.000549541
8.42379e-06
8.25697e-06
1.66858e-05
1.45639e-05
3.47963e-06
-0.000100806
-1.57887e-05
-9.83771e-05
-6.11453e-06
2.11313e-06
-8.31909e-05
-1.6447e-05
-8.41232e-05
-7.0924e-06
1.43277e-06
-0.000204917
1.34438e-05
9.9019e-05
-5.111e-05
7.64495e-06
1.79477e-05
-4.72043e-05
2.40138e-05
8.79011e-05
-0.000206586
1.20298e-05
9.95072e-05
6.21574e-06
-5.03044e-05
1.8308e-05
-4.62234e-05
2.43934e-05
8.828e-05
1.76738e-06
-0.000190906
-3.56008e-05
3.22447e-05
-3.92194e-05
3.13583e-05
-0.000192262
-3.33413e-05
3.33925e-05
-3.75135e-05
3.24628e-05
7.8922e-06
0.000165529
4.00468e-05
-5.18416e-05
3.70837e-05
-4.37245e-05
6.27817e-05
2.5493e-05
1.04444e-06
-6.93652e-05
1.27098e-05
-2.34218e-05
-5.31935e-05
5.70835e-05
-2.55354e-05
4.20139e-07
5.78179e-05
1.66048e-05
-4.17637e-05
-2.4682e-05
-0.000716515
-0.000294024
-0.000504876
-2.03167e-05
-2.33599e-05
-1.43216e-05
-2.15486e-05
9.58897e-07
-0.000161463
0.000175463
-3.56271e-05
-0.000161617
0.000177867
-4.74627e-05
1.59697e-06
-0.000159584
-2.42471e-05
-0.000161873
-3.13909e-05
0.000171644
3.61651e-05
-5.08407e-05
3.30245e-05
-4.54241e-05
3.6622e-06
5.05502e-05
-2.15567e-05
5.71983e-05
-3.00813e-05
4.66489e-05
-2.04144e-05
5.25293e-05
-3.42764e-05
6.69275e-05
2.52074e-05
-7.31617e-05
1.12666e-05
-2.31563e-05
-5.27317e-05
5.75659e-05
-2.82776e-05
6.19179e-05
1.42885e-05
-4.17846e-05
-2.78817e-05
-7.83694e-05
2.59023e-05
1.25563e-06
4.51736e-06
-2.74665e-05
2.61375e-05
-3.89926e-05
7.18598e-07
-7.17506e-06
-3.28101e-05
-8.04434e-05
2.59788e-05
3.36699e-06
-2.68785e-05
2.57172e-05
-3.60378e-05
-8.19215e-06
-3.22476e-05
-0.000309443
-0.000642188
-0.000255287
-0.00056453
-0.000217274
-0.000488983
-0.000169565
-0.000421821
-0.000115474
-0.000359428
-5.86004e-05
-0.000299307
-1.02717e-29
1.47661e-25
1.95429e-24
3.94251e-20
7.81661e-18
4.74134e-15
2.27866e-12
4.5931e-10
6.4731e-11
1.09186e-06
-2.75346e-06
6.99364e-05
2.98991e-07
0.00031351
5.72402e-05
0.00033576
0.000143495
0.000466635
0.000257741
0.000552296
3.08343e-05
2.89803e-05
6.53253e-05
6.31948e-05
1.34612e-06
-6.289e-05
-1.32232e-05
-6.79379e-05
-6.5823e-06
6.22866e-07
-5.6916e-05
1.00889e-05
-6.4668e-05
1.19167e-05
1.52741e-06
-0.000190222
-3.54728e-05
2.90494e-05
-3.86451e-05
2.70476e-05
-0.000190888
-3.18558e-05
3.12242e-05
-3.41379e-05
2.88028e-05
1.793e-06
-0.000165582
-4.41388e-05
2.09679e-05
-4.29008e-05
2.3196e-05
-0.000165817
-3.96044e-05
2.26513e-05
-3.81793e-05
2.47735e-05
-2.09292e-05
-4.79898e-05
4.49528e-05
-2.71439e-05
-1.04933e-05
1.58394e-05
-3.66937e-05
-4.14332e-05
5.91296e-07
-3.69882e-06
4.15783e-05
-1.86156e-05
-5.65262e-05
-2.00524e-05
1.52457e-07
-4.80206e-05
1.18425e-05
4.69088e-07
7.11646e-05
-1.41127e-06
-1.02577e-05
1.48304e-05
-3.43947e-05
-2.06124e-05
-4.90467e-05
4.49672e-05
-2.56125e-05
-4.2033e-05
4.15965e-05
-1.27667e-06
-1.83264e-05
-5.82229e-05
-1.87209e-05
-4.87556e-05
1.2942e-05
7.14061e-05
-1.10686e-06
-1.79595e-05
6.06004e-05
-6.30803e-05
-1.51614e-05
5.07177e-05
-1.27465e-07
-5.21343e-05
1.58285e-05
-1.81484e-05
-1.69969e-05
3.64934e-08
1.58888e-05
-1.75905e-05
6.25667e-05
-6.50071e-05
-1.33104e-05
5.14616e-05
-5.26609e-05
1.68738e-05
-1.77663e-05
-1.54034e-05
1.74389e-05
-5.03019e-05
2.02764e-05
1.65615e-07
4.34916e-05
2.64151e-05
-2.16178e-05
5.52959e-05
-2.84363e-05
3.49791e-07
2.26321e-05
5.60631e-05
-2.42155e-05
6.18402e-05
2.18276e-05
2.9953e-07
-6.45961e-05
-6.66129e-06
-2.18942e-05
-3.93062e-05
4.80934e-05
-1.24281e-05
3.48794e-07
6.00742e-05
-3.88259e-06
-2.72522e-05
-1.49077e-05
-0.000643406
-0.000382551
-0.000524552
-9.17529e-05
-7.81434e-05
-5.66802e-05
-4.77723e-05
3.75966e-06
-0.000170582
0.000157657
-1.11517e-05
-0.000174
0.000157443
-3.04306e-06
2.74841e-06
-1.21889e-05
-1.49339e-05
2.19752e-06
-0.000178667
0.00019245
-5.3318e-05
2.99649e-05
-5.27947e-05
2.45199e-05
-0.000182741
0.000191723
-5.33698e-05
2.88971e-05
-5.33157e-05
2.3541e-05
3.48789e-06
-8.99108e-05
-1.02311e-05
-2.13647e-05
-9.21411e-05
2.83954e-05
-4.72163e-05
2.58695e-05
1.89478e-07
-9.0318e-05
-9.10783e-06
-2.23387e-05
-9.3585e-05
2.71706e-05
-4.78108e-05
2.49252e-05
4.19548e-07
-5.37288e-05
2.0558e-05
4.5435e-05
2.40665e-05
-2.13312e-05
5.67722e-05
-2.87158e-05
2.02321e-05
5.77156e-05
-2.58096e-05
3.02866e-05
2.75511e-05
-1.64609e-07
3.63687e-05
-3.82374e-05
-6.52207e-05
-8.00942e-06
-7.17371e-08
3.90788e-05
-1.16878e-05
2.98171e-05
2.76561e-05
3.4446e-05
-3.73952e-05
-6.56515e-05
-7.68566e-06
3.57717e-05
-1.45563e-05
6.26825e-05
2.07365e-05
-6.46422e-05
-7.21036e-06
-2.13226e-05
-3.83542e-05
4.58983e-05
-1.44988e-05
6.13318e-05
-5.3342e-06
-2.79143e-05
-1.75846e-05
1.75117e-05
7.01014e-07
-7.11528e-06
-2.67109e-05
1.81791e-05
-7.34717e-06
-2.71522e-05
-0.000305704
-0.000591771
-0.000276936
-0.000504868
-0.000229713
-0.000428834
-0.000174911
-0.000362384
-0.000117736
-0.000300292
-5.93482e-05
-0.000239958
3.96038e-30
5.78473e-25
7.35166e-23
7.78335e-20
3.26197e-17
8.81525e-15
7.29475e-12
6.39789e-10
1.69509e-08
1.08458e-06
3.61121e-07
6.38778e-05
2.88056e-05
0.000278387
0.000114614
0.000326495
0.000283634
0.000428029
7.93839e-05
7.67114e-05
0.000114061
0.000111852
4.02721e-08
-5.64777e-05
3.03556e-05
-6.131e-05
2.56625e-05
-5.63163e-07
-4.27017e-05
5.21125e-05
-4.50899e-05
4.64117e-05
1.71346e-06
-0.000145385
-4.12689e-05
2.20878e-05
-3.71592e-05
2.12268e-05
-0.000146478
-3.71613e-05
2.35747e-05
-3.33996e-05
2.27729e-05
1.67875e-06
-0.000109684
-2.52012e-05
7.42066e-06
-3.05727e-05
2.1046e-05
-0.00011344
-2.25414e-05
8.34506e-06
-2.72082e-05
2.19476e-05
-1.79972e-05
-6.51778e-05
-1.53781e-05
-5.51503e-05
-4.04858e-07
1.44819e-05
-1.92488e-05
-6.45967e-05
-1.99744e-05
-6.47778e-07
-5.80368e-05
1.13534e-05
-1.74671e-05
-6.6532e-05
-1.28636e-05
-5.51114e-05
1.58027e-05
-1.80634e-05
-6.52319e-05
-1.73746e-05
-5.73473e-05
1.23216e-05
-1.6838e-05
5.95737e-05
-5.37937e-05
-3.30834e-05
5.72219e-05
-7.95275e-07
-5.73845e-05
5.09963e-06
-1.82574e-05
-2.96694e-05
-7.64643e-07
4.87743e-06
-1.55939e-05
5.94426e-05
-5.37054e-05
-2.97479e-05
5.63442e-05
-5.60462e-05
5.96911e-06
-1.72222e-05
-2.67464e-05
5.78938e-06
-1.3667e-05
3.0218e-05
-6.06692e-06
-1.907e-05
-1.80895e-05
-3.26147e-08
4.40739e-07
3.30047e-05
-1.01892e-05
-2.82182e-05
3.10262e-07
-2.31313e-05
-1.37674e-05
3.25366e-05
-6.121e-06
-1.91285e-05
3.33508e-05
-1.81118e-05
-1.00262e-05
-2.84127e-05
-2.33282e-05
-1.14886e-05
3.25879e-05
-3.71649e-05
2.63948e-05
6.98671e-07
-3.11097e-05
-1.17707e-05
7.45064e-07
-1.09325e-05
3.31638e-05
-3.77111e-05
2.70182e-05
-3.16041e-05
-1.1284e-05
-5.75869e-05
2.4156e-05
-3.47879e-10
5.08152e-05
9.03919e-06
-2.2978e-05
5.25632e-05
-9.92788e-06
1.43518e-07
2.00711e-06
5.98241e-05
-7.32037e-06
2.18209e-05
8.13038e-06
4.39217e-07
-2.49641e-05
-8.90762e-06
-1.72224e-05
1.79807e-05
4.39718e-07
2.00969e-05
-1.93036e-05
-0.00060254
-0.000346572
-0.000526832
-9.73556e-05
-9.82997e-05
-9.51026e-05
-8.95121e-05
3.84656e-06
-0.000150586
0.000129727
-7.47406e-05
-0.000151584
0.000128142
-5.08552e-05
4.10841e-06
-5.37185e-05
-3.78052e-05
3.42832e-06
-0.000201571
0.000198064
-5.31274e-05
4.84925e-05
-4.9379e-05
4.29259e-05
-0.000195442
0.000188492
-4.61106e-05
5.15379e-05
-4.38542e-05
4.57735e-05
2.4441e-06
-4.89011e-05
3.51329e-05
-4.84888e-05
3.84828e-05
-4.66953e-05
3.62202e-05
-4.51267e-05
3.93872e-05
-2.8899e-05
-6.10508e-05
6.20237e-05
-2.5392e-05
-5.26697e-05
-4.47224e-07
5.69196e-05
-2.70725e-06
-2.80451e-05
-6.09427e-05
-2.48578e-05
-2.80853e-07
-4.73559e-05
-8.55829e-06
-2.83632e-05
-6.09052e-05
6.08681e-05
-2.49695e-05
-5.34296e-05
5.68897e-05
-3.37357e-06
-2.72142e-05
-6.14102e-05
-2.55968e-05
-4.82274e-05
-9.15643e-06
-2.10214e-05
6.52197e-05
-6.90549e-05
3.49196e-06
-3.63166e-05
-7.25997e-05
8.76617e-06
4.28012e-05
-1.13289e-06
7.60319e-06
-4.1876e-05
-2.64271e-05
-1.65123e-05
-6.00678e-07
-4.5117e-06
3.06499e-08
-2.61963e-05
2.91068e-05
-2.06119e-05
6.62074e-05
-7.03634e-05
2.42903e-06
-3.64393e-05