/*--------------------------------*- C++ -*----------------------------------*\
| =========                 |                                                 |
| \\      /  F ield         | OpenFOAM: The Open Source CFD Toolbox           |
|  \\    /   O peration     | Version:  5.x                                   |
|   \\  /    A nd           | Web:      www.OpenFOAM.org                      |
|    \\/     M anipulation  |                                                 |
\*---------------------------------------------------------------------------*/
FoamFile
{
    version     2.0;
    format      ascii;
    class       volScalarField;
    location    "0.3";
    object      alpha.water;
}
// * * * * * * * * * * * * * * * * * * * * * * * * * * * * * * * * * * * * * //

dimensions      [0 0 0 0 0 0 0];

internalField   nonuniform List<scalar> 
12160
(
1
1
1
1
1
1
1
1
1
1
1
1
1
1
1
1
1
1
1
1
1
1
1
1
1
1
1
1
1
1
1
1
1
1
1
1
1
1
1
1
1
1
1
1
0.70552
1
1
1
1
1
1
1
1
0.612577
0.0609866
1
1
1
1
1
1
1
1
0.50786
0.0786513
0.000244092
1
1
1
1
1
1
1
1
0.356986
0.0486903
0.000999048
1.14156e-07
1
1
1
1
1
1
1
1
0.266722
0.0185547
0.000428577
5.26876e-07
3.65166e-12
1
1
1
1
1
1
1
1
0.184984
0.00703685
8.03091e-05
2.34679e-07
1.08566e-11
1.04589e-16
1
1
1
1
1
1
1
1
0.131655
0.0023625
1.25769e-05
1.7292e-08
5.73673e-12
1.85667e-16
2.24146e-21
1
1
1
1
1
1
1
1
0.0923248
0.00080939
1.47082e-06
9.94283e-10
3.44172e-13
1.09382e-16
2.90202e-21
1
1
1
1
1
1
1
1
0.0649245
0.00028078
1.70694e-07
3.27351e-11
1.8637e-14
5.79236e-18
1.82649e-21
1
1
1
1
1
1
1
1
0.0456846
9.70846e-05
1.96451e-08
2.61022e-12
5.53236e-16
3.13792e-19
8.62797e-23
1
1
1
1
1
1
1
1
0.0322287
3.44599e-05
2.28967e-09
2.06481e-13
3.45599e-17
8.41265e-21
4.85179e-24
1
1
1
1
1
1
1
1
0.0228038
1.25094e-05
3.14398e-10
1.75213e-14
1.96629e-18
4.04004e-22
1.14128e-25
1
1
1
1
1
1
1
1
0.0161907
4.69121e-06
7.05092e-11
2.04301e-15
1.2911e-19
1.69796e-23
4.29414e-27
1
1
1
1
1
1
1
1
0.0115384
1.83612e-06
1.96066e-11
3.69011e-16
1.27358e-20
8.98414e-25
1.38252e-28
1
1
1
1
1
1
1
1
0.00825692
7.57935e-07
5.9526e-12
7.70748e-17
1.73943e-21
7.19546e-26
6.00143e-30
1
1
1
1
1
1
1
1
0.00593521
3.31328e-07
2.00475e-12
1.82712e-17
2.7422e-22
7.3209e-27
3.76136e-31
1
1
1
1
1
1
1
1
0.00428918
1.53952e-07
7.47919e-13
5.02931e-18
5.07767e-23
8.7492e-28
2.85093e-32
1
0.999999
1
1
1
1
1
1
0.0031196
7.48344e-08
3.09339e-13
1.59285e-18
1.13959e-23
1.26619e-28
2.59123e-33
1
1
1
1
1
1
1
1
0.0022887
3.85611e-08
1.37608e-13
5.78677e-19
3.04176e-24
2.30948e-29
2.93115e-34
1
1
1
1
1
1
1
1
0.00170103
1.975e-08
6.72092e-14
2.317e-19
9.59717e-25
5.16011e-30
4.33344e-35
1
1
1
1
1
1
1
1
0.00129035
1.07572e-08
3.18854e-14
1.04499e-19
3.41965e-25
1.40107e-30
8.06683e-36
1
1
1
1
1
1
1
1
0.00100919
6.06188e-09
1.66993e-14
4.57042e-20
1.40398e-25
4.40844e-31
1.87514e-36
0.999999
0.999999
1
1
1
1
1
1
0.000826687
3.67678e-09
9.10329e-15
2.27198e-20
5.62764e-26
1.63176e-31
5.19221e-37
0.999999
0.999999
0.999999
1
1
1
1
1
0.000721947
2.4541e-09
5.42847e-15
1.19079e-20
2.63121e-26
5.98818e-32
1.72533e-37
0.999999
0.999999
0.999999
0.999999
1
1
1
1
0.000683223
1.88648e-09
3.56477e-15
6.88995e-21
1.31219e-26
2.6151e-32
5.7931e-38
1
1
0.999999
0.999999
0.999999
1
1
1
0.000703875
1.67426e-09
2.70639e-15
4.37395e-21
7.24337e-27
1.22898e-32
2.35034e-38
1
1
1
0.999999
0.999999
1
1
1
0.00078436
1.7182e-09
2.34942e-15
3.20374e-21
4.36729e-27
6.38892e-33
1.03215e-38
1
1
1
1
1
1
1
1
0.000928356
2.02701e-09
2.34432e-15
2.69423e-21
3.04588e-27
3.62471e-33
5.01061e-39
1
1
1
1
1
1
1
1
0.00114427
2.71307e-09
2.66989e-15
2.62713e-21
2.47117e-27
2.39427e-33
2.66289e-39
1
1
1
1
1
1
1
1
0.00144505
4.01236e-09
3.45491e-15
2.9461e-21
2.36141e-27
1.87224e-33
1.66373e-39
1
1
1
1
1
1
1
1
0.0018486
6.34476e-09
5.00175e-15
3.77221e-21
2.63855e-27
1.7555e-33
1.25412e-39
1
1
1
1
1
1
1
1
0.0023784
1.04589e-08
7.89818e-15
5.42983e-21
3.40492e-27
1.96383e-33
1.15476e-39
1
1
1
1
1
1
1
1
0.00306416
1.76359e-08
1.33218e-14
8.63299e-21
4.96244e-27
2.58032e-33
1.2961e-39
1
1
1
1
1
1
1
1
0.00394296
3.00855e-08
2.33597e-14
1.50031e-20
8.04447e-27
3.85807e-33
1.74273e-39
1
1
1
1
1
1
1
1
0.00506004
5.18e-08
4.18986e-14
2.76103e-20
1.4512e-26
6.45834e-33
2.69343e-39
1
1
1
1
1
1
1
1
0.00647052
9.00406e-08
7.66413e-14
5.27431e-20
2.82343e-26
1.2181e-32
4.69942e-39
1
1
1
1
1
1
1
1
0.00824058
1.5862e-07
1.43352e-13
1.0407e-19
5.79277e-26
2.51907e-32
9.31878e-39
1
1
1
1
1
1
1
1
0.0104488
2.84246e-07
2.75946e-13
2.12662e-19
1.24541e-25
5.57734e-32
2.05697e-38
1
1
1
1
1
1
1
1
0.0131868
5.14024e-07
5.50927e-13
4.52251e-19
2.80752e-25
1.31337e-31
4.9313e-38
0.0165533
1
1
1
1
1
1
1
1
9.52418e-07
1.12403e-12
1.01376e-18
6.65552e-25
3.28111e-31
1.27591e-37
1.85146e-06
0.023424
1
1
1
1
1
1
1
1
2.41851e-12
2.34455e-18
1.68607e-24
8.72476e-31
3.53769e-37
5.54204e-12
4.6169e-06
0.0379749
1
1
1
1
1
1
1
1
5.84741e-18
4.44055e-24
2.50871e-30
1.05959e-36
1.54289e-17
1.7796e-11
1.92548e-05
0.0594249
1
1
1
1
1
1
0.999999
0.999999
1.2822e-23
7.55623e-30
3.46557e-36
3.87622e-23
6.45246e-17
1.15729e-10
7.1759e-05
0.0894794
1
1
1
1
1
0.999999
0.999998
0.999998
0.999999
2.52572e-29
1.19651e-35
8.75466e-29
2.11525e-22
6.32279e-16
1.10679e-09
0.000244004
0.129692
1
1
1
1
1
0.999999
0.999998
0.999998
0.999997
0.999999
4.62913e-35
1.84393e-34
6.21824e-28
3.07483e-21
7.02806e-15
1.24459e-08
0.000741307
0.180661
1
1
1
1
0.999999
0.999999
0.999999
0.999998
0.999997
0.999997
0.999998
1.69803e-33
1.32518e-26
4.33599e-20
1.05627e-13
1.13435e-07
0.00199717
0.241434
1
1
1
1
0.999999
0.999999
0.999999
0.999999
0.999998
0.999997
0.999997
0.999998
5.26088e-32
2.50838e-25
8.12097e-19
1.32967e-12
7.94651e-07
0.00472269
0.308766
1
1
1
1
1
0.999999
0.999999
0.999999
0.999998
0.999998
0.999998
0.999997
0.999998
1.37452e-30
5.67981e-24
1.35574e-17
1.23156e-11
4.19498e-06
0.00972054
0.377905
1
1
1
1
1
0.999999
0.999999
0.999999
0.999998
0.999999
0.999999
0.999998
0.999997
0.999998
3.76806e-29
1.22292e-22
1.61562e-16
1.06555e-10
1.67227e-05
0.0174083
0.441617
1
1
1
1
1
1
0.999999
0.999997
0.999999
0.999988
0.999995
0.999995
0.999999
0.999999
0.999998
0.999997
0.999997
0.999998
1.01227e-27
1.86404e-21
1.46243e-15
9.25912e-10
5.00487e-05
0.0271861
0.492026
1
1
1
1
1
0.999999
0.999998
0.999996
0.999997
0.999999
0.999988
0.999999
0.999992
0.99999
0.999995
0.999995
0.999999
0.999998
0.999998
0.999997
0.999997
0.999998
1.93628e-26
1.93265e-20
1.31686e-14
5.23465e-09
0.000116861
0.0368017
0.525878
1
1
1
1
1
1
1
1
1
1
0.999992
1
0.999999
1
0.999991
0.999991
0.999993
1
1
1
0.999999
0.999998
0.999998
0.999997
0.999996
0.999998
2.37777e-25
1.74189e-19
8.22037e-14
1.99597e-08
0.000209814
0.044831
0.549855
1
1
1
1
1
1
1
1
1
1.00001
1.00001
1.00001
1.00001
0.999997
1
1.00002
1
1.00002
0.999999
0.999999
0.999999
1
0.999992
1
0.999996
0.999992
1
1
1.00002
1
1.00001
1
1.00001
1.00001
1.00001
1
1.00001
1.00001
1.00001
0.999999
0.999998
0.999997
0.999996
0.999996
0.999998
2.18853e-24
1.16126e-18
3.36012e-13
5.02617e-08
0.000317052
0.0509553
0.560071
1
1
1
1
1
1
1
1
1.00001
1.00001
1.00001
1.00001
1.00001
1.00001
1
1.00001
1
1.00001
1.00001
1.00001
1
1.00001
1
1.00001
1.00001
1.00001
1.00001
1.00001
1.00001
1.00001
1.00001
1.00001
1
1.00002
1
1.00001
1.00001
1.00003
1.00001
1.00003
0.999999
0.999999
1
1
0.999999
1
1.00001
1.00001
1.00002
1.00001
1
1.00001
1
1.00001
1
1.00001
1
1.00001
1
1.00001
1
1.00001
1.00001
1.00003
1.00001
1.00002
1.00001
1.00002
1.00001
1.00001
0.999998
0.999997
0.999997
0.999996
0.999996
0.999998
1.51147e-23
4.9872e-18
8.82077e-13
9.88491e-08
0.000409806
0.0532633
0.557031
1
1
1
1
1
1
1
1.00001
1
1
1
1.00001
1.00001
1.00001
1.00001
1.00001
1.00001
1.00001
1
1.00001
1
1.00001
1
1.00001
1
1.00001
1
1.00001
1.00001
1
1
1.00001
1
1.00001
1.00001
1
1.00001
1.00001
1.00001
1.00002
1.00001
1.00001
1.00001
1.00002
1.00001
1.00002
1.00001
1
1.00003
1.00001
1.00002
1.00002
1.00005
1.00002
1.00004
0.999999
0.999997
1
1
1
1
1.00001
1.00001
1.00001
1.00001
1.00001
1.00001
1.00001
1.00001
1.00001
1.00001
1.00001
1.00001
1.00003
1.00002
1.00001
1.00002
1.00001
1
1.00003
1.00002
1.00002
1.00002
1.00002
1.00001
1.00001
1.00003
1.00001
1.00003
1
1.00002
1.00001
1.00002
1.00002
1.00004
1.00003
1.00003
1.00001
1.00001
1.00001
1.00001
0.999998
0.999997
0.999997
0.999996
0.999996
0.999998
6.70766e-23
1.3505e-17
1.74513e-12
1.47013e-07
0.000431974
0.0507278
0.530454
1
1
1
1
1
1
1
1
1
1
1.00001
1
1.00001
1.00001
1.00001
1
1.00001
1.00001
1.00001
1.00001
1.00002
1.00001
1.00001
1.00001
1.00001
1.00001
1.00002
1.00001
1.00002
1.00001
1.00002
1.00001
1.00002
1.00001
1.00002
1.00001
1.00002
1.00001
1.00003
1.00001
1.00002
1.00001
1.00002
1.00005
1.00003
1.00005
0.999998
0.999998
0.999995
0.999989
0.999998
0.999998
1.00001
1.00001
1.00001
1.00001
1.00002
1.00001
1.00001
1.00001
1.00002
1.00001
1.00002
1.00001
1.00001
1.00001
1.00001
1.00001
1.00001
1.00001
1.00001
1.00001
1
1
1
1
1
1
0.999999
1
1.00003
1
1
1.00001
1
1
1.00004
1.00001
1.00001
1.00002
1
1
1.00003
1.00005
1.00003
1.00004
1.00001
1.00004
1.00003
1.00004
0.999998
0.999997
0.999997
0.999996
0.999996
0.999998
1.86857e-22
2.59014e-17
2.55745e-12
1.4032e-07
0.000342662
0.0408639
0.471236
1
1
1
1
1
1
1.00001
1.00001
1.00001
1.00001
1.00002
1.00001
1.00002
1.00001
1.00002
1.00001
1.00002
1.00001
1.00002
1.00001
1.00002
1.00001
1.00002
1.00001
1.00002
1.00001
1.00003
1.00002
1.00004
1.00003
0.999998
0.999999
0.999999
0.999989
0.999991
0.999989
1
1
1.00001
1.00001
1.00002
1.00002
1.00002
1.00001
1.00002
1.00002
1.00002
1.00001
1.00002
1.00001
1.00002
1.00001
1.00003
1.00001
1.00002
1.00001
1.00003
1.00001
1.00002
1.00001
1.00003
1.00002
1.00002
1.00001
1.00001
1
1.00001
1.00001
1.00001
1.00001
1.00001
1.00001
0.999998
0.999997
0.999997
0.999996
0.999996
0.999998
3.41624e-22
3.77267e-17
2.05601e-12
7.96363e-08
0.000127726
0.0227597
0.361651
0.991917
1
1
0.998619
0.99858
1.00001
1.00001
1
1
1.00001
1.00003
1.00001
1.00003
1.00002
1.00003
1.00002
1.00003
1.00001
1.00003
1.00001
1.00003
1.00002
1.00002
1.00001
1.00003
1.00004
1.00003
1.00003
1.00002
1.00004
1.00004
1.00003
1.00003
1.00003
1.00001
1.00003
1.00002
1.00003
1.00002
1.00003
1.00002
0.999998
0.999999
0.999999
0.999992
0.999992
0.999995
1
1.00002
1.00002
1.00002
1.00003
1.00002
1.00002
1.00002
1.00002
1.00002
1.00002
1.00002
1.00002
1.00003
1.00002
1.00003
1.00002
1.00004
1.00002
1.00003
1.00002
1.00006
1.00002
1.00005
1.00002
0.999998
0.999997
0.999997
0.999996
0.999996
0.999998
4.93116e-22
2.51347e-17
9.97567e-13
5.3952e-09
4.42969e-06
0.00397312
0.150346
0.726564
0.999475
0.999586
0.989276
0.989018
1.00003
1
1
1.00001
1.00002
1.00001
1
1
0.999961
0.999967
1.00002
1.00003
1.00002
1.00003
1.00003
1.00003
1.00003
1.00003
1.00002
1.00003
1.00001
1.00003
1.00003
1.00002
1.00003
1.00003
1.00003
1.00002
1.00003
1.00003
0.999998
0.999999
1
1
0.999997
0.999996
0.999997
0.999996
1
1
1.00001
1.00002
1.00002
1.00001
1.00003
1.00002
1.00003
1.00002
1.00004
1.00002
1.00003
1.00002
1.00003
1.00003
1.00003
1.00002
1.00004
1.00003
1.00002
1.00003
1.00002
1.00003
1.00002
1.00003
1.00002
1.00006
1.00003
1.00004
1.00003
1.00005
1.00003
1.00004
1.00003
0.999997
0.999997
0.999996
0.999997
0.999998
2.61714e-22
1.22462e-17
5.00951e-14
2.89195e-11
5.74076e-08
0.00034515
0.0401014
0.637685
0.635614
0.28852
0.287332
0.986926
1
0.962854
1
0.987138
1
0.96292
1
0.917191
0.91712
1.00002
1
1
1.00001
1.00001
1.00001
1
0.999999
0.997412
1
0.999821
1
0.997342
0.999999
0.9998
0.999999
1.00002
1.00001
1.00001
1.00002
1.00002
1.00001
1.00002
1.00002
0.999998
0.999998
0.999999
1
1.00001
1.00001
1.00001
1.00001
1.00001
1.00001
1.00002
1
1
1.00001
1.00002
1.00001
1.00001
1.00002
1.00001
1.00003
1.00001
1.00003
1.00003
1.00004
1.00003
1.00004
1.00001
1.00002
1.00001
1.00002
1.00002
1.00003
1.00001
1.00003
1.00002
1.00001
1.00003
1.00001
0.999997
0.999996
0.999997
0.999998
1.3522e-22
3.92537e-19
3.17345e-16
4.5703e-11
6.95293e-06
3.16189e-06
-6.34666e-22
-2.78986e-21
-8.2651e-20
2.73892e-19
0.484951
0.482646
0.108568
0.107273
0.987012
1
0.959319
1
0.987509
1
0.959938
1
0.991723
0.74729
0.889395
0.879652
0.991383
0.745465
0.887726
0.880445
1
1
1
0.999997
1
1.00001
1
0.999997
0.998195
1
0.999982
1
0.998324
1
0.999989
1
0.999997
0.999998
0.999999
0.999998
1.00002
1.00002
1.00003
1.00003
1.00003
1.00004
1.00001
1.00001
1.00002
1.00001
1.00002
1.00001
1.00002
1.00001
1.00001
1.00001
1.00001
1.00001
1.00001
1
1.00002
1.00001
1.00001
1.00001
1.00002
1.00001
1.00002
1.00001
1.00003
1.00001
1.00002
1.00003
1.00001
1.00004
1.00004
1.00004
1.00003
1.00005
0.999997
0.999997
0.999998
2.13072e-24
6.00285e-21
3.50741e-22
3.50727e-08
1.70454e-06
1.50336e-07
-7.08707e-25
-7.69623e-22
-2.20116e-20
-1.24436e-20
0.474955
0.707348
0.634248
0.253118
0.263221
0.869571
0.705582
0.474367
0.867787
0.646563
0.253427
0.272625
0.0167639
0.0238874
0.0747555
0.058973
0.0182077
0.0216994
0.0780676
0.0581606
0.986882
1
0.951392
0.999857
0.987043
1
0.952078
0.999839
0.985123
0.84565
0.984541
0.845338
1
1
1
1
0.999165
1
0.999143
1
0.999997
0.999997
0.999998
0.999998
0.999998
0.999989
1
0.999998
1.00003
1.00003
1.00004
1.00005
1.00004
1.00004
1.00003
1.00005
1.00002
1.00002
1.00005
1.00005
1.00004
1.00005
1.00003
1.00003
1.00002
1.00001
1.00003
1.00002
1.00002
1.00001
1.00001
1.00001
1.00001
1.00001
1.00002
1.00002
1.00002
1.00002
1.00001
1.00001
1.00002
1.00001
1.00002
1.00002
0.999997
0.999998
1.49145e-25
3.50971e-22
9.35825e-12
4.37594e-07
2.58777e-07
2.06166e-07
1.50931e-06
2.81632e-08
3.38937e-07
8.0806e-06
3.11602e-22
1.06629e-22
1.23691e-10
0.719464
0.364616
0.338825
0.921601
0.152288
0.068617
0.71256
0.368385
0.922574
0.370557
0.169202
0.0806284
0.00244301
0.00313504
0.037585
0.0258129
0.00345621
0.00299476
0.0476172
0.0286109
0.942338
1
0.942193
1
0.999997
0.999997
0.999998
0.999999
0.999999
0.999998
0.999998
1.00001
1.00001
1.00002
1.00002
1.00003
1.00003
1.00003
1.00002
1.00004
1.00003
1.00002
1.00003
1.00001
1.00003
1.00003
1.00002
1.00005
1.00004
1.00004
1.00005
1.00004
1.00004
1
1.00003
1.00003
1.00006
1.00002
1.00004
1.00004
1.00005
1.00006
1.00002
1.00005
1.00003
1.00009
1.00002
1.00001
1.00001
1.00008
1.00004
1.00001
1.00001
0.999999
5.12734e-27
1.25413e-16
1.28432e-08
8.07168e-08
1.47945e-08
1.01437e-06
3.14736e-06
2.08879e-07
6.39714e-07
3.42135e-05
8.39542e-05
0.000292814
3.86055e-07
9.58266e-06
4.07339e-05
0.000134793
7.63557e-07
1.65619e-07
4.06617e-07
0.00119151
0.000802418
0.0108644
0.00432281
0.000611569
0.000929952
0.0104926
0.00664455
0.999999
0.999997
0.999997
0.999999
0.999999
0.999999
0.999997
1.00001
1.00001
0.999994
1
1.00002
1.00002
1.00002
1.00002
1.00003
1.00002
1.00003
1.00002
1.00003
1.00003
1.00002
1.00002
1
1
1.00002
1.00001
1.00004
1.00003
1.00002
1.00002
1.00003
1.00002
1.00001
1.00005
1.00002
1.00005
1.3985e-21
1.06399e-11
7.26793e-10
5.40697e-10
6.65366e-09
6.38813e-09
3.69435e-14
3.65419e-14
2.65504e-06
4.49211e-06
5.77071e-07
7.23189e-07
2.826e-05
0.000639692
0.000686758
3.20466e-07
1.44699e-05
0.000380046
0.000454584
1.96522e-06
8.9508e-08
7.01741e-07
1.87238e-07
1.76138e-06
5.42123e-07
4.65611e-06
1.13061e-06
7.32382e-06
0.00647769
0.00420798
0.00335322
0.00435495
0.999999
0.999998
0.999998
0.999999
1
1.00001
1.00002
1.00003
1.00003
1.00003
1.00004
1.00002
1.00003
1.00002
1.00003
1.00003
1.00003
1.00003
1.00004
1.00005
1.00004
1.00003
1.00003
1.00004
1.00004
1.00003
1.00003
6.37614e-17
2.68452e-13
2.75277e-12
1.10112e-13
4.26897e-11
2.58724e-12
2.45091e-12
2.71628e-13
1.33065e-07
3.3036e-06
3.76677e-08
1.09071e-06
1.62015e-06
3.75649e-07
1.61217e-06
9.74585e-06
7.05371e-08
4.13929e-07
1.42324e-06
2.50701e-08
2.74023e-09
1.7049e-08
6.93338e-06
9.18435e-05
0.000101389
1.9187e-07
7.84166e-06
7.6614e-05
0.000206275
1.18141e-06
1.59832e-07
2.56872e-06
1.15352e-06
9.75101e-06
0.999999
0.999998
0.999999
0.999999
0.999999
0.999998
1
0.999998
1
1
1.00003
1.00004
1.00003
1.00003
1.00002
1.00001
1.00003
1.00002
1.00004
1.00004
1.00004
1.00003
1.00004
1.00003
1.00003
1.00002
1.00004
1.00003
1.00007
1.00003
1.00005
1.00003
-1.70386e-36
5.5792e-17
4.23105e-16
1.26969e-13
2.13975e-31
-4.92233e-32
-3.60264e-32
3.77898e-10
2.03405e-10
1.89305e-11
1.26911e-12
6.41104e-07
4.08935e-06
6.5349e-09
9.54807e-08
4.36249e-08
2.85721e-11
7.58811e-07
6.1536e-06
1.1342e-06
6.39054e-06
3.42341e-06
1.71763e-06
1.63336e-09
1.11551e-08
7.60702e-08
1.24681e-07
1.74521e-10
4.98052e-09
1.09857e-06
5.57025e-07
0.999999
0.999999
0.999999
0.999999
1
1.00001
1.00001
1.00001
1.00001
1.00001
1.00002
1.00002
1.00002
1.00002
1.00002
1.00002
1.00003
1.00003
1.00003
1.00003
1.00004
1.00004
1.00001
1.00002
1
1.00001
1.00003
1.00004
1.00002
1.00002
1.00002
1.00001
1.00004
1.00002
-2.12587e-39
5.18692e-22
6.54573e-20
9.71919e-15
-1.60657e-33
-5.61444e-39
9.31895e-39
7.67894e-09
3.57694e-08
2.67522e-10
3.23117e-11
7.21535e-09
3.2306e-11
3.11884e-08
2.35116e-08
6.04259e-12
2.52348e-11
4.49356e-11
2.58087e-14
3.36634e-11
3.90807e-13
2.85721e-11
2.87207e-11
4.67714e-06
1.41622e-05
3.24519e-06
1.55957e-06
2.74357e-06
8.0496e-07
0.999999
0.999999
0.999999
0.999999
0.999995
0.999999
0.999995
1
0.999999
1.00002
1.00002
1.00001
1.00001
1.00001
1.00001
1.00001
1.00001
1.00002
1.00002
1.00002
1.00002
1.00001
1.00001
1.00001
1
1.00001
1.00001
1.00002
1.00003
1.00002
1.00001
-2.37266e-41
5.68591e-41
1.08029e-23
4.0985e-16
1.90835e-42
2.95711e-41
1.01928e-24
8.41043e-07
3.68798e-07
7.5388e-10
2.15927e-07
7.24485e-08
3.23117e-11
3.46817e-11
1.39516e-14
1.821e-11
2.81421e-13
5.81741e-10
2.9051e-14
7.78819e-13
-4.24518e-30
7.1848e-12
2.60782e-12
2.48374e-31
8.21978e-38
1.56534e-31
2.68509e-16
1.22468e-05
2.17498e-06
3.07268e-11
3.00355e-09
1
0.999999
1
1
0.999997
0.999997
1
0.999999
1.00001
1.00001
1.00001
1.00001
1.00003
1.00002
1.00002
1.00002
1.00002
1.00002
1.00003
1.00002
1.00003
1.00001
1.00001
1.00001
1
1.00001
1.00001
1.00002
1.00001
1.07808e-34
1.41183e-40
-6.72307e-43
-2.92337e-41
4.32654e-42
2.8398e-42
1.56028e-42
-9.73675e-44
1.08984e-17
1.21593e-15
3.26163e-16
5.67871e-19
3.36995e-21
1.66656e-18
7.41433e-06
2.13171e-06
7.03091e-10
2.38671e-07
5.53497e-08
3.86508e-09
1.39516e-14
1.18975e-14
2.2779e-14
7.96074e-13
2.38713e-14
6.23876e-14
1.2045e-13
1.08393e-13
2.56069e-35
1.74843e-31
1
0.999999
1
1
1
0.99999
0.999995
0.999991
1
0.999996
1
1.00002
1
0.999998
1.00002
1.00001
1
1
1
1.00003
1.00002
1.00003
1.00002
1.00003
1.00002
1.00003
1.00002
1.00002
1.00001
1.00003
1.00002
2.56884e-36
4.08217e-36
1.23097e-29
-2.12021e-55
1.98182e-28
3.35211e-54
5.0061e-37
6.17535e-36
-3.70872e-36
9.47462e-18
6.72948e-17
9.44136e-18
3.02232e-16
2.1957e-19
6.47803e-36
4.63851e-46
7.35182e-19
6.36071e-20
6.4778e-18
4.85307e-19
1.33519e-17
4.98746e-20
1.22522e-36
9.12603e-45
1.68562e-09
9.52161e-09
3.43007e-14
2.69173e-15
3.26741e-14
7.26429e-14
2.68191e-19
2.29326e-16
1
0.999999
1
1.00001
1.00002
0.999995
0.999999
0.999998
1.00002
0.999992
1
1.00002
0.999998
1
1.00001
1
1
1
1.00001
1
1.00001
1
1.00004
1.00003
1.00003
1.00001
1.00004
1.00003
1.00002
1.00002
1.96366e-40
3.50849e-32
3.07807e-28
1.20682e-27
9.53178e-30
6.18692e-33
2.99232e-27
1.9419e-26
1.56482e-28
-4.18837e-50
1.49876e-32
5.98545e-33
4.22853e-18
1.41164e-46
2.22663e-30
8.65365e-31
-2.83553e-36
1.55752e-45
3.68958e-19
6.23862e-19
1.6271e-37
7.44537e-17
-1.57292e-37
9.85726e-44
5.22526e-10
3.50091e-09
1.15694e-14
2.71665e-19
1
0.999999
0.999994
1
1.00001
0.999994
0.999996
1
1.00003
1.00002
1.00002
1.00001
1.00001
1.00002
1.00002
1.00001
1.00003
1.00002
1.00002
1.00001
1.00001
1.00002
1.00002
1.00002
1.00001
1.00001
1.00001
1.00001
1.00002
1.00002
1.00002
1.00001
1.13084e-52
8.98595e-30
6.9439e-29
1.11874e-31
8.44831e-32
1.32007e-57
-1.21826e-57
2.28262e-45
4.54602e-27
3.08317e-28
1.69559e-28
2.57816e-28
8.18511e-46
2.50038e-29
3.03595e-30
6.61743e-29
1.51734e-33
6.47542e-34
2.75215e-28
2.83374e-26
3.56393e-27
2.90533e-27
3.54629e-27
6.45955e-29
1.0795e-27
1.65914e-28
4.5837e-31
4.32783e-30
1.70359e-30
1.01867e-18
1.38189e-28
1.68026e-19
9.0182e-28
7.16448e-20
2.58578e-27
1.09738e-20
9.35546e-27
0.999999
0.999998
0.999998
1
1.00001
1
1
1.00001
1.00001
0.999993
0.999987
0.999994
1.00003
1.00001
1.00002
1.00001
1.00001
1.00001
1.00004
1.00002
1.00002
1.00002
1.00002
1.00002
1.00001
1.00001
1.00002
1.00002
9.27437e-76
2.74186e-26
6.57247e-29
2.96293e-28
5.13921e-31
6.89597e-39
9.96531e-39
2.45142e-29
1.22851e-28
1.21706e-31
2.40391e-29
-6.59583e-47
-2.41571e-51
8.43064e-31
2.24361e-29
3.39018e-46
-2.62442e-46
-1.25839e-47
9.65851e-27
7.57759e-28
1.47821e-28
2.40391e-29
2.53513e-27
2.45142e-29
2.48315e-28
-8.7553e-46
1.31832e-47
5.47171e-46
6.58817e-35
7.91903e-47
6.58818e-35
3.81848e-32
1.05064e-28
6.58818e-35
7.53972e-31
0.999999
0.999999
0.999981
0.999991
0.99999
0.99999
0.999988
0.999998
1
1
1
1
1
0.999998
1
1
1.00001
1.00001
1.00001
1.00001
1
1
1
0.999987
0.999997
1
0.999993
0.999998
1
1.00001
1.00001
1.00001
1.00001
1.00001
1.00001
1.00001
1.00001
5.68261e-57
4.04516e-25
1.4139e-25
1.24429e-26
6.2294e-28
1.3499e-26
3.44993e-27
6.58817e-35
3.37168e-30
1.19645e-38
2.10309e-38
2.33302e-29
1.26762e-30
-1.83063e-62
-4.33278e-48
1.04901e-30
2.51599e-25
4.68494e-30
1.08162e-31
3.08906e-27
5.73836e-25
6.02831e-28
5.00449e-29
3.17228e-33
5.49425e-33
6.58817e-35
1.6478e-33
1.88932e-26
6.61089e-33
5.05596e-29
3.6802e-26
0.999999
0.999995
0.999981
0.999988
0.999989
0.999989
0.999992
1
0.999999
1
0.999999
0.999997
0.999999
1.00001
1
1.00001
1
0.999999
1
0.999991
0.999997
1
0.999996
1
1
0.999994
1
0.999997
1
1
0.999999
1
1
0.999998
1
-5.87929e-144
-7.825e-74
2.51498e-69
4.7569e-25
2.20531e-24
1.0739e-25
7.1801e-24
1.14981e-25
1.04044e-37
2.17035e-26
1.82098e-25
2.89128e-27
8.7799e-25
2.58048e-27
3.90646e-37
6.5884e-35
2.10728e-25
5.89231e-24
6.58817e-35
1.46048e-25
5.32368e-24
6.58817e-35
3.27933e-26
1.41876e-24
6.58818e-35
1.22333e-26
1.21768e-24
0.999999
0.999993
0.999972
1
0.999992
0.999972
1
0.999988
0.99999
0.99999
0.999992
0.999997
0.999997
0.999993
0.999997
1
1
0.999999
1
0.99999
0.999993
0.999995
1
0.999998
1
0.999997
1
1
1
1
1
1.97467e-55
1.09476e-54
-3.03719e-59
9.26457e-51
1.25545e-49
2.62663e-30
2.59853e-24
1.17585e-25
8.69152e-24
9.62493e-26
2.23153e-23
1.65977e-23
-6.22596e-58
1.68448e-32
6.19895e-26
4.57318e-27
1.24769e-24
2.17272e-28
1.25075e-23
8.0557e-24
4.52803e-42
5.35391e-24
1.49059e-24
3.6715e-24
1.12189e-24
1
0.999995
0.999994
0.999972
0.999988
0.999981
0.999986
0.999978
0.999987
0.999996
0.999992
0.999998
0.999981
0.999994
0.999995
0.999991
0.999993
0.999989
1
1
0.999997
0.999992
0.999998
0.999984
1
0.999999
0.999997
1.20059e-56
-7.71849e-74
1.18257e-55
1.90364e-52
1.4464e-55
-7.27745e-54
3.15804e-50
1.08689e-30
9.97224e-32
2.66684e-31
1.45627e-28
8.08169e-31
2.44611e-23
3.68964e-23
2.72138e-23
3.22337e-23
2.77206e-23
1.23351e-23
1.17844e-32
9.17733e-34
4.38781e-50
2.03904e-30
5.24131e-33
4.80674e-24
2.63459e-23
1.51858e-23
1.58277e-23
3.92387e-23
1.51642e-23
1
0.999998
0.999999
0.999998
0.999999
0.999986
1
0.999996
1
0.999993
0.999994
0.999997
0.999993
1
0.999997
1
0.999995
0.999999
1
0.999996
0.999995
0.999993
1
0.999988
0.999999
8.17626e-55
1.0462e-56
5.65267e-57
-4.05856e-75
5.47753e-57
-1.17302e-50
-3.28457e-51
4.6513e-53
-3.93485e-53
1.40594e-33
4.55643e-35
4.77876e-30
2.92747e-31
6.89941e-29
3.10749e-31
-1.37375e-41
1.05532e-29
2.38508e-27
-1.17332e-41
4.85622e-23
6.52321e-23
3.52585e-23
7.4601e-23
1.13356e-31
3.11465e-33
1.09564e-30
3.23781e-33
-1.00775e-63
-4.08808e-40
4.60236e-29
-3.33441e-51
3.93804e-23
1.04053e-22
4.08239e-23
1.15716e-22
1
1
1
1
1
0.999992
0.999985
0.999993
1
0.999997
1
0.999996
1
0.999997
1
0.999993
1
1
0.999993
1
1
1
0.999998
1
1
1
0.999996
1
1
-2.43291e-88
6.68259e-55
6.0227e-55
6.98922e-55
6.22629e-55
-5.72428e-52
-7.65085e-53
-7.39589e-54
-1.27661e-54
9.18341e-39
3.26273e-43
6.43489e-40
1.32524e-44
1.17591e-32
8.38673e-51
3.09043e-55
5.82722e-33
5.9612e-34
2.05097e-52
-1.35418e-52
4.61029e-35
2.29771e-29
2.25479e-31
6.43606e-28
2.9389e-32
6.4556e-31
1.67134e-34
1.21223e-29
2.74226e-34
1
1
1
1
0.999996
0.999996
0.999999
0.999993
0.999997
0.999955
0.999955
1
1
1
0.999999
1
0.999996
1
0.999997
1
1
1
1
1
1
1
0.999998
1
1
1
0.999996
1
1
1
0.999996
-5.07095e-61
2.08955e-40
4.74068e-42
8.09303e-42
3.35045e-43
8.32126e-43
1.15162e-42
6.92699e-37
9.02981e-42
3.47117e-35
4.08207e-41
1.94541e-39
3.25114e-40
5.22019e-44
5.99149e-43
1.70693e-60
-1.34489e-61
6.18025e-44
5.14047e-43
1.19683e-40
8.7665e-42
1.71546e-45
4.49061e-45
-3.26502e-62
5.7702e-47
2.22776e-45
2.09158e-32
-1.3707e-58
1.57741e-37
1.82376e-33
2.19963e-33
-6.89863e-52
-9.87756e-58
1.3823e-35
1
0.999999
0.999999
0.999992
0.999994
1
0.999995
0.999999
0.999986
0.999963
0.999982
0.99997
0.999985
0.999977
0.999963
0.999982
0.999967
0.999978
0.999987
0.999999
0.999956
1
1
1
0.999997
0.999999
1
1
0.999995
1.90921e-43
1.05411e-36
1.92849e-40
7.32058e-36
4.76664e-40
1.02707e-34
1.193e-34
4.36086e-35
1.95956e-33
4.49938e-34
8.92598e-42
1.08913e-59
1.58142e-62
7.68343e-43
-4.75386e-56
3.21542e-37
5.7881e-36
3.70997e-55
1.08262e-40
3.97842e-60
-2.25858e-59
8.16003e-42
2.57998e-37
1.91188e-35
5.8904e-34
4.96659e-36
2.27943e-40
2.02758e-39
1.32825e-39
4.63376e-40
7.93711e-42
7.80568e-60
1.06811e-44
1.20946e-41
1.89217e-42
1.41837e-42
2.52929e-41
8.09901e-45
3.33349e-44
3.46973e-66
3.7605e-46
1.98671e-47
1
0.999987
0.99999
0.999986
0.99998
0.999989
0.999983
0.999965
0.999982
0.999975
1
0.999991
1
0.999992
1
0.999995
1
0.999992
1
0.999996
1
0.99998
1
0.999993
1
0.999979
0.999998
0.999986
0.999999
0.999989
0.999995
0.99999
1
0.999974
1.8109e-43
2.49026e-59
1.02525e-41
9.39728e-60
-1.98812e-42
5.07871e-35
1.80382e-37
1.02044e-34
1.57807e-37
2.26154e-29
1.74054e-33
4.95927e-35
4.87255e-34
4.54204e-35
1.03187e-33
1.57332e-35
2.72598e-34
1.89402e-35
1.16145e-32
9.26804e-34
9.862e-33
8.87508e-34
5.01562e-33
2.1187e-34
9.31148e-34
2.83224e-34
1.68695e-42
-1.63867e-60
1.539e-44
2.53753e-43
5.96995e-57
1.77052e-37
2.52878e-38
-3.78529e-56
3.3009e-54
-6.2879e-60
-1.02925e-63
-3.05771e-60
2.16401e-35
8.39466e-36
5.90157e-34
3.83694e-36
1
0.999997
0.99995
0.999984
0.99995
0.999983
0.99994
0.999952
0.99994
0.999969
1
0.999995
1
0.999996
1
0.999996
1
0.999989
1
0.999997
1
0.999995
1
0.999998
1
0.999991
1
0.999995
1
0.999998
1
0.999994
0.999999
0.999996
1
0.999997
1
0.999995
1
0.999983
0.999999
0.999993
1.07287e-21
-7.705e-38
1.8276e-58
4.39828e-40
-3.30375e-42
-1.29603e-40
3.18652e-35
1.47311e-35
2.47931e-34
1.01137e-35
1.90132e-35
1.42628e-33
1.44117e-39
1.21879e-38
1.17968e-37
1.05913e-36
6.29122e-35
9.24599e-35
1.68296e-34
1.10669e-35
7.48115e-35
3.56713e-33
1.39166e-38
2.59178e-37
3.54083e-37
8.93535e-36
3.29303e-24
8.68365e-33
3.98877e-36
1.44417e-53
9.78968e-35
5.10622e-33
1.93203e-35
5.9707e-32
9.11731e-35
1.0146e-32
2.35248e-33
2.39269e-32
1.78961e-34
8.82127e-39
6.22402e-38
7.02526e-39
8.79896e-39
9.48703e-36
2.36833e-36
2.30946e-34
3.68752e-36
1
1
0.999975
0.999997
0.999978
0.999993
0.999955
0.999959
0.999955
0.99997
0.999991
0.999978
0.999986
0.999963
1
0.999992
1
0.999979
0.999996
0.999984
0.999996
0.999949
1
0.999989
1
0.999972
0.999999
0.999987
0.999999
0.999985
1
0.999997
1
0.999983
1
0.999984
0.999999
0.999985
1
1
1
0.999988
6.98169e-18
1.45614e-39
1.63744e-22
2.5977e-39
1.80363e-22
6.02193e-19
2.42845e-39
2.25841e-38
3.63736e-38
-1.36492e-39
1.82535e-35
2.01925e-35
4.56044e-33
6.16529e-35
2.50042e-36
6.58742e-35
1.50779e-39
7.81443e-38
2.28296e-37
3.79806e-36
3.7406e-34
3.13196e-35
6.75039e-33
1.1939e-34
7.05544e-36
2.29032e-34
1.42051e-38
8.97241e-37
1.12192e-36
2.08145e-35
4.49525e-19
2.79949e-32
-1.89306e-56
-7.56745e-57
1.17612e-33
1.62405e-32
2.68707e-34
2.35131e-31
4.69524e-38
7.32695e-33
8.35044e-32
7.07756e-32
1.34429e-32
1
1
0.999992
0.999952
0.999976
0.999952
0.999983
0.999986
0.999969
1
0.999982
1
1
0.999994
1
0.999985
1
0.999961
0.99999
1
0.999992
1
1
0.999991
1
0.99999
1
0.999996
0.999992
0.999998
0.999973
0.999998
0.999959
0.999996
0.99999
0.999998
0.999944
0.999997
0.999957
1
1
1
0.999992
1
1
1
0.999996
4.74997e-14
-3.32705e-36
-6.22116e-28
1.5495e-36
-1.04463e-27
3.33392e-28
8.068e-41
6.5771e-26
8.53384e-24
3.33483e-14
3.23374e-38
1.83431e-39
2.3963e-39
6.51617e-37
4.57263e-36
-3.97608e-46
7.8932e-54
1.68626e-35
2.79808e-39
2.7452e-38
1.16026e-37
7.96186e-39
-2.19271e-39
1.1529e-44
-2.38181e-39
-1.59274e-39
-1.20335e-52
-1.34804e-50
4.78016e-40
1.2581e-38
4.57995e-52
9.57757e-53
-9.90219e-51
-2.6443e-50
1.32497e-38
4.65185e-37
2.74282e-37
5.04924e-52
5.86398e-15
1
1
0.999999
0.999959
0.999989
0.999959
0.999991
0.999969
0.999985
0.999961
0.999986
0.999983
0.999964
1
0.999998
0.999954
1
0.999993
1
0.999969
0.999999
0.999944
0.999972
0.999996
0.999995
0.999977
0.999992
0.999988
1
0.999987
0.999997
0.999999
1
1
0.999978
0.999997
0.999959
0.999996
1
1
0.999931
0.999989
0.99993
4.90887e-09
8.9727e-11
-1.73352e-29
-1.22824e-28
-6.25212e-29
-1.95573e-27
7.77012e-28
1.05269e-29
2.94381e-28
3.07779e-24
8.94192e-28
4.38011e-30
7.82593e-36
7.47775e-21
3.55284e-22
1.17496e-22
4.03151e-26
1.49771e-43
8.40845e-27
1.76203e-25
6.07151e-25
-5.29651e-40
-8.43383e-36
1.43699e-40
2.51443e-41
4.22118e-23
4.84333e-11
8.12335e-40
-1.3788e-56
1.2667e-56
3.10235e-37
1.3451e-54
-9.48496e-53
-6.93846e-41
-1.09941e-56
-7.2263e-55
4.71912e-40
-8.08819e-40
-1.16229e-39
8.56222e-13
1
1
1
0.999999
1
1
1.00001
0.999964
0.999978
0.999959
0.999972
0.999999
0.999991
0.999999
0.999993
0.999999
0.999992
0.999999
0.999996
0.999999
0.999987
0.999999
0.999988
0.999999
0.999995
0.999999
0.999998
0.999985
1
0.999995
0.999999
0.999988
0.999999
0.999972
1
0.999987
0.999996
0.999969
0.999985
1.64855e-07
2.91989e-09
5.52583e-07
2.88524e-09
5.38416e-07
4.23458e-09
6.29044e-18
1.15051e-13
7.51646e-18
1.25267e-13
2.8026e-28
2.00062e-39
4.98952e-29
1.25168e-46
8.02339e-22
2.82582e-23
1.11006e-20
4.20596e-20
2.05467e-20
5.27184e-21
6.24103e-27
1.4463e-40
7.75631e-28
-3.09297e-46
4.59888e-23
1.02697e-25
4.08802e-36
1.26862e-20
4.4549e-22
4.08579e-22
1.00143e-09
2.03597e-29
7.66901e-29
2.75721e-28
7.86203e-28
7.46162e-19
1
1
1
1
0.999964
1
0.999964
1
0.999978
0.999965
0.999997
0.999981
0.999997
0.999998
0.999958
0.999997
0.999959
0.999997
0.999963
0.999979
0.999997
0.999981
0.999997
0.999997
0.99993
0.999983
0.999968
0.999997
0.999999
0.999985
0.999998
0.999988
0.999999
0.99999
0.999999
0.999979
0.999998
0.999987