/*--------------------------------*- C++ -*----------------------------------*\
| =========                 |                                                 |
| \\      /  F ield         | OpenFOAM: The Open Source CFD Toolbox           |
|  \\    /   O peration     | Version:  5.x                                   |
|   \\  /    A nd           | Web:      www.OpenFOAM.org                      |
|    \\/     M anipulation  |                                                 |
\*---------------------------------------------------------------------------*/
FoamFile
{
    version     2.0;
    format      ascii;
    class       volScalarField;
    location    "0.3";
    object      k;
}
// * * * * * * * * * * * * * * * * * * * * * * * * * * * * * * * * * * * * * //

dimensions      [0 2 -2 0 0 0 0];

internalField   nonuniform List<scalar> 
12160
(
9.98358e-09
9.98089e-09
1.00102e-08
9.9806e-09
1.00107e-08
1.00033e-08
9.98058e-09
1.00097e-08
1.00036e-08
1.00027e-08
9.98058e-09
1.00071e-08
1.00035e-08
1.0003e-08
1.00026e-08
9.98058e-09
1.00058e-08
1.0003e-08
1.00029e-08
1.00029e-08
1.00028e-08
9.98058e-09
1.00046e-08
1.00028e-08
1.00027e-08
1.00028e-08
1.0003e-08
1.00029e-08
9.98058e-09
1.00039e-08
1.00026e-08
1.00026e-08
1.00027e-08
1.00029e-08
1.00032e-08
1.00031e-08
9.98058e-09
1.00034e-08
1.00026e-08
1.00025e-08
1.00026e-08
1.00027e-08
1.00029e-08
1.00031e-08
1.00044e-08
9.98058e-09
1.00031e-08
1.00025e-08
1.00025e-08
1.00025e-08
1.00026e-08
1.00028e-08
1.00027e-08
1.00036e-08
1.00052e-08
9.98058e-09
1.00029e-08
1.00025e-08
1.00025e-08
1.00025e-08
1.00026e-08
1.00026e-08
1.00026e-08
1.0003e-08
1.00035e-08
1.00037e-08
9.98058e-09
1.00027e-08
1.00025e-08
1.00025e-08
1.00025e-08
1.00025e-08
1.00026e-08
1.00026e-08
1.0003e-08
1.0003e-08
1.0004e-08
1.00033e-08
9.98058e-09
1.00026e-08
1.00024e-08
1.00025e-08
1.00025e-08
1.00025e-08
1.00025e-08
1.00026e-08
1.00028e-08
1.00029e-08
1.00032e-08
1.00031e-08
1.00032e-08
9.98058e-09
1.00026e-08
1.00024e-08
1.00024e-08
1.00025e-08
1.00025e-08
1.00025e-08
1.00026e-08
1.00026e-08
1.00028e-08
1.00032e-08
1.00029e-08
1.0003e-08
1.0003e-08
9.98058e-09
1.00025e-08
1.00024e-08
1.00024e-08
1.00024e-08
1.00025e-08
1.00025e-08
1.00026e-08
1.00026e-08
1.00027e-08
1.00029e-08
1.00029e-08
1.00028e-08
1.00029e-08
1.00026e-08
9.98058e-09
1.00025e-08
1.00024e-08
1.00024e-08
1.00024e-08
1.00024e-08
1.00025e-08
1.00026e-08
1.00025e-08
1.00026e-08
1.00027e-08
1.00027e-08
1.00027e-08
1.00027e-08
1.00027e-08
9.98058e-09
1.00025e-08
1.00024e-08
1.00024e-08
1.00024e-08
1.00024e-08
1.00024e-08
1.00026e-08
1.00025e-08
1.00026e-08
1.00026e-08
1.00026e-08
1.00026e-08
1.00027e-08
1.00026e-08
9.98058e-09
1.00023e-08
1.00024e-08
1.00024e-08
1.00024e-08
1.00024e-08
1.00024e-08
1.00026e-08
1.00025e-08
1.00026e-08
1.00026e-08
1.00026e-08
1.00026e-08
1.00026e-08
1.00026e-08
9.98058e-09
1.0002e-08
1.00023e-08
1.00024e-08
1.00024e-08
1.00024e-08
1.00024e-08
1.00026e-08
1.00025e-08
1.00026e-08
1.00025e-08
1.00025e-08
1.00026e-08
1.00026e-08
1.00026e-08
9.98058e-09
1.00017e-08
1.0002e-08
1.00023e-08
1.00024e-08
1.00024e-08
1.00024e-08
1.00026e-08
1.00025e-08
1.00026e-08
1.00025e-08
1.00025e-08
1.00025e-08
1.00026e-08
1.00026e-08
9.98058e-09
1.00014e-08
1.00016e-08
1.0002e-08
1.00022e-08
1.00024e-08
1.00024e-08
1.00026e-08
1.00025e-08
1.00026e-08
1.00025e-08
1.00025e-08
1.00025e-08
1.00025e-08
1.00025e-08
9.98058e-09
1.00011e-08
1.00013e-08
1.00017e-08
1.00019e-08
1.00023e-08
1.00024e-08
1.00026e-08
1.00025e-08
1.00026e-08
1.00025e-08
1.00025e-08
1.00025e-08
1.00025e-08
1.00025e-08
9.98058e-09
1.00008e-08
1.00011e-08
1.00014e-08
1.00016e-08
1.0002e-08
1.00023e-08
1.00025e-08
1.00025e-08
1.00026e-08
1.00024e-08
1.00025e-08
1.00025e-08
1.00025e-08
1.00025e-08
9.98058e-09
1.00006e-08
1.00008e-08
1.00011e-08
1.00013e-08
1.00017e-08
1.0002e-08
1.00025e-08
1.00025e-08
1.00025e-08
1.00024e-08
1.00024e-08
1.00025e-08
1.00025e-08
1.00025e-08
9.98058e-09
1.00005e-08
1.00006e-08
1.00008e-08
1.0001e-08
1.00014e-08
1.00017e-08
1.00025e-08
1.00024e-08
1.00024e-08
1.00023e-08
1.00024e-08
1.00024e-08
1.00025e-08
1.00025e-08
9.98058e-09
1.00005e-08
1.00005e-08
1.00006e-08
1.00007e-08
1.00011e-08
1.00014e-08
1.00025e-08
1.00024e-08
1.00023e-08
1.00023e-08
1.00023e-08
1.00024e-08
1.00024e-08
1.00025e-08
9.98058e-09
1.00005e-08
1.00004e-08
1.00004e-08
1.00004e-08
1.00008e-08
1.0001e-08
1.00025e-08
1.00024e-08
1.00023e-08
1.00022e-08
1.00023e-08
1.00024e-08
1.00024e-08
1.00024e-08
9.98058e-09
1.00006e-08
1.00004e-08
1.00004e-08
1.00003e-08
1.00005e-08
1.00006e-08
1.00024e-08
1.00024e-08
1.00024e-08
1.00023e-08
1.00023e-08
1.00023e-08
1.00024e-08
1.00024e-08
9.98058e-09
1.00008e-08
1.00006e-08
1.00004e-08
1.00002e-08
1.00003e-08
1.00003e-08
1.00024e-08
1.00025e-08
1.00026e-08
1.00024e-08
1.00023e-08
1.00023e-08
1.00024e-08
1.00024e-08
9.98058e-09
1.00009e-08
1.00007e-08
1.00005e-08
1.00002e-08
1.00003e-08
9.99998e-09
1.00024e-08
1.00026e-08
1.00027e-08
1.00025e-08
1.00024e-08
1.00024e-08
1.00024e-08
1.00024e-08
9.98058e-09
1.00011e-08
1.00009e-08
1.00007e-08
1.00004e-08
1.00003e-08
9.99983e-09
1.00023e-08
1.00025e-08
1.00027e-08
1.00025e-08
1.00025e-08
1.00024e-08
1.00024e-08
1.00024e-08
9.98058e-09
1.00014e-08
1.00011e-08
1.00009e-08
1.00006e-08
1.00005e-08
9.99995e-09
1.00022e-08
1.00025e-08
1.00026e-08
1.00024e-08
1.00025e-08
1.00025e-08
1.00025e-08
1.00024e-08
9.98058e-09
1.00015e-08
1.00013e-08
1.00011e-08
1.00008e-08
1.00007e-08
1.00002e-08
1.0002e-08
1.00023e-08
1.00024e-08
1.00021e-08
1.00024e-08
1.00025e-08
1.00025e-08
1.00024e-08
9.98058e-09
1.00017e-08
1.00015e-08
1.00013e-08
1.00011e-08
1.00009e-08
1.00005e-08
1.00017e-08
1.00021e-08
1.00022e-08
1.00017e-08
1.00022e-08
1.00023e-08
1.00024e-08
1.00023e-08
9.98058e-09
1.00019e-08
1.00017e-08
1.00015e-08
1.00013e-08
1.00011e-08
1.00008e-08
1.00019e-08
1.0002e-08
1.0002e-08
1.00014e-08
1.0002e-08
1.00021e-08
1.00022e-08
1.0002e-08
9.98058e-09
1.0002e-08
1.00018e-08
1.00017e-08
1.00015e-08
1.00013e-08
1.00011e-08
1.0002e-08
1.00021e-08
1.00019e-08
1.00012e-08
1.00018e-08
1.00015e-08
1.0002e-08
1.00016e-08
9.98059e-09
1.00021e-08
1.0002e-08
1.00018e-08
1.00017e-08
1.00015e-08
1.00013e-08
1.00021e-08
1.00021e-08
1.0002e-08
1.00013e-08
1.00017e-08
1.0001e-08
1.00015e-08
1.00013e-08
9.98059e-09
1.00022e-08
1.00021e-08
1.0002e-08
1.00018e-08
1.00017e-08
1.00015e-08
1.00022e-08
1.00023e-08
1.00022e-08
1.00015e-08
1.00017e-08
1.00007e-08
1.0001e-08
1.00008e-08
9.98058e-09
1.00023e-08
1.00022e-08
1.00021e-08
1.0002e-08
1.00019e-08
1.00017e-08
1.00023e-08
1.00024e-08
1.00024e-08
1.00018e-08
1.00018e-08
1.0001e-08
1.00008e-08
1.00004e-08
9.98058e-09
1.00024e-08
1.00022e-08
1.00022e-08
1.00021e-08
1.0002e-08
1.00019e-08
1.00023e-08
1.00025e-08
1.00025e-08
1.00021e-08
1.0002e-08
1.00015e-08
1.00009e-08
1.00001e-08
1.00024e-08
9.98058e-09
1.00023e-08
1.00022e-08
1.00021e-08
1.00021e-08
1.0002e-08
1.00024e-08
1.00025e-08
1.00026e-08
1.00024e-08
1.00022e-08
1.00019e-08
1.00013e-08
1.00003e-08
1.00023e-08
1.00025e-08
9.98058e-09
1.00023e-08
1.00022e-08
1.00022e-08
1.00021e-08
1.00024e-08
1.00024e-08
1.00025e-08
1.00025e-08
1.00023e-08
1.00021e-08
1.00017e-08
1.00007e-08
1.00023e-08
1.00024e-08
1.00027e-08
9.98058e-09
1.00023e-08
1.00022e-08
1.00022e-08
1.00024e-08
1.00023e-08
1.00023e-08
1.00024e-08
1.00024e-08
1.00023e-08
1.0002e-08
1.00013e-08
1.00023e-08
1.00024e-08
1.00024e-08
1.00029e-08
9.98058e-09
1.00023e-08
1.00022e-08
1.00024e-08
1.00021e-08
1.0002e-08
1.00021e-08
1.00023e-08
1.00023e-08
1.00021e-08
1.00018e-08
1.00023e-08
1.00024e-08
1.00024e-08
1.00024e-08
1.00031e-08
9.98058e-09
1.00023e-08
1.00024e-08
1.00019e-08
1.00016e-08
1.00017e-08
1.00021e-08
1.00022e-08
1.00022e-08
1.0002e-08
1.00023e-08
1.00024e-08
1.00024e-08
1.00024e-08
1.00025e-08
1.00036e-08
9.98058e-09
1.00025e-08
1.0002e-08
1.00015e-08
1.00014e-08
1.00017e-08
1.00019e-08
1.00021e-08
1.0002e-08
1.00025e-08
1.00024e-08
1.00024e-08
1.00024e-08
1.00025e-08
1.00025e-08
1.00042e-08
9.98058e-09
1.00021e-08
1.00017e-08
1.00014e-08
1.00015e-08
1.00017e-08
1.0002e-08
1.0002e-08
1.00024e-08
1.00025e-08
1.00024e-08
1.00024e-08
1.00025e-08
1.00025e-08
1.00026e-08
1.00053e-08
9.98071e-09
1.00022e-08
1.00018e-08
1.00016e-08
1.00016e-08
1.00019e-08
1.00019e-08
1.00027e-08
1.00025e-08
1.00025e-08
1.00024e-08
1.00025e-08
1.00025e-08
1.00025e-08
1.00028e-08
1.00072e-08
9.98234e-09
1.00024e-08
1.0002e-08
1.00018e-08
1.00019e-08
1.00019e-08
1.0003e-08
1.00027e-08
1.00025e-08
1.00025e-08
1.00025e-08
1.00025e-08
1.00025e-08
1.00026e-08
1.00032e-08
1.00112e-08
9.99218e-09
1.00026e-08
1.00022e-08
1.00021e-08
1.0002e-08
1.0003e-08
1.00029e-08
1.0003e-08
1.00026e-08
1.00025e-08
1.00025e-08
1.00025e-08
1.00025e-08
1.00027e-08
1.00044e-08
1.00156e-08
1.00182e-08
1.00027e-08
1.00024e-08
1.00022e-08
1.00029e-08
1.00028e-08
1.0003e-08
1.00032e-08
1.00027e-08
1.00025e-08
1.00025e-08
1.00025e-08
1.00026e-08
1.00029e-08
1.00062e-08
1.00182e-08
1.00029e-08
9.98624e-09
1.00027e-08
1.00024e-08
1.00028e-08
1.00027e-08
1.00029e-08
1.00029e-08
1.00032e-08
1.00028e-08
1.00025e-08
1.00025e-08
1.00026e-08
1.00027e-08
1.00034e-08
1.00088e-08
1.0003e-08
1.00026e-08
1.00027e-08
9.98587e-09
1.00026e-08
1.00026e-08
1.00026e-08
1.00027e-08
1.00028e-08
1.00027e-08
1.00031e-08
1.00029e-08
1.00025e-08
1.00026e-08
1.00026e-08
1.00028e-08
1.00042e-08
1.00029e-08
1.00027e-08
1.00025e-08
1.00026e-08
1.00027e-08
9.98566e-09
1.00025e-08
1.00026e-08
1.00026e-08
1.00026e-08
1.00026e-08
1.0003e-08
1.0003e-08
1.00025e-08
1.00026e-08
1.00027e-08
1.0003e-08
1.00028e-08
1.00027e-08
1.00026e-08
1.00027e-08
1.00025e-08
1.00026e-08
1.00027e-08
9.98561e-09
1.00025e-08
1.00025e-08
1.00025e-08
1.00025e-08
1.00028e-08
1.0003e-08
1.0003e-08
1.00025e-08
1.00027e-08
1.00027e-08
1.00027e-08
1.00027e-08
1.00027e-08
1.00027e-08
1.00028e-08
1.00026e-08
1.00026e-08
1.00026e-08
1.00027e-08
9.98561e-09
1.00024e-08
1.00024e-08
1.00025e-08
1.00027e-08
1.00033e-08
1.00033e-08
1.00029e-08
1.00025e-08
1.00027e-08
1.00026e-08
1.00027e-08
1.00027e-08
1.00026e-08
1.00028e-08
1.00038e-08
1.00029e-08
1.00026e-08
1.00026e-08
1.00027e-08
1.00027e-08
9.98562e-09
1.00024e-08
1.00025e-08
1.00028e-08
1.00033e-08
1.00039e-08
1.00036e-08
1.00028e-08
1.00026e-08
1.00026e-08
1.00026e-08
1.00027e-08
1.00026e-08
1.00028e-08
1.00032e-08
1.00072e-08
1.00039e-08
1.00064e-08
1.00092e-08
1.00095e-08
1.00028e-08
1.00026e-08
1.00027e-08
1.00027e-08
1.00027e-08
9.98566e-09
1.00026e-08
1.00028e-08
1.00032e-08
1.00039e-08
1.00042e-08
1.00036e-08
1.00028e-08
1.00026e-08
1.00026e-08
1.00026e-08
1.00026e-08
1.00028e-08
1.00029e-08
1.00094e-08
1.0011e-08
1.00088e-08
1.00036e-08
1.00111e-08
1.00095e-08
1.00097e-08
1.00118e-08
1.00123e-08
1.00133e-08
1.00027e-08
1.00027e-08
1.00027e-08
1.00027e-08
1.00027e-08
9.98569e-09
1.00027e-08
1.0003e-08
1.00036e-08
1.00042e-08
1.00043e-08
1.00036e-08
1.00027e-08
1.00025e-08
1.00026e-08
1.00026e-08
1.00027e-08
1.00027e-08
1.00061e-08
1.00153e-08
1.00154e-08
1.00108e-08
1.00106e-08
1.00116e-08
1.00203e-08
1.00036e-08
1.00069e-08
1.00129e-08
1.00131e-08
1.00135e-08
1.00206e-08
1.00193e-08
1.00191e-08
1.00028e-08
1.00027e-08
1.00027e-08
1.00027e-08
1.00027e-08
9.98571e-09
1.00027e-08
1.00032e-08
1.00036e-08
1.00041e-08
1.00043e-08
1.00033e-08
1.00028e-08
1.00025e-08
1.00027e-08
1.00027e-08
1.00026e-08
1.00045e-08
1.0012e-08
1.00113e-08
1.00112e-08
1.00105e-08
1.00213e-08
1.0021e-08
1.00201e-08
1.00195e-08
1.0021e-08
1.00213e-08
1.00228e-08
1.00212e-08
1.00229e-08
1.00039e-08
1.00067e-08
1.00193e-08
1.00198e-08
1.00198e-08
1.00203e-08
1.00217e-08
1.00196e-08
1.00204e-08
1.00214e-08
1.0023e-08
1.00213e-08
1.00231e-08
1.00215e-08
1.00227e-08
1.00217e-08
1.0023e-08
1.00213e-08
1.00226e-08
1.00214e-08
1.0023e-08
1.00029e-08
1.00027e-08
1.00027e-08
1.00027e-08
1.00027e-08
9.98572e-09
1.00028e-08
1.00031e-08
1.00035e-08
1.0004e-08
1.00039e-08
1.00033e-08
1.00028e-08
1.00026e-08
1.00027e-08
1.00027e-08
1.00039e-08
1.00099e-08
1.00095e-08
1.00085e-08
1.00083e-08
1.00194e-08
1.00188e-08
1.00182e-08
1.00177e-08
1.00222e-08
1.00232e-08
1.00217e-08
1.00218e-08
1.00211e-08
1.00217e-08
1.00231e-08
1.00219e-08
1.00214e-08
1.00214e-08
1.00207e-08
1.00214e-08
1.00213e-08
1.00203e-08
1.00215e-08
1.00205e-08
1.00209e-08
1.00196e-08
1.00211e-08
1.00199e-08
1.00216e-08
1.0023e-08
1.00214e-08
1.00233e-08
1.00222e-08
1.00233e-08
1.00221e-08
1.00234e-08
1.00039e-08
1.00081e-08
1.00161e-08
1.00158e-08
1.00175e-08
1.00178e-08
1.0025e-08
1.0025e-08
1.00247e-08
1.00249e-08
1.0022e-08
1.00232e-08
1.00217e-08
1.00235e-08
1.00208e-08
1.00221e-08
1.00203e-08
1.00229e-08
1.00213e-08
1.00225e-08
1.0021e-08
1.00232e-08
1.00221e-08
1.00233e-08
1.00222e-08
1.00234e-08
1.00221e-08
1.00236e-08
1.00219e-08
1.00235e-08
1.00028e-08
1.00028e-08
1.00027e-08
1.00027e-08
1.00027e-08
9.98572e-09
1.00028e-08
1.0003e-08
1.00034e-08
1.00039e-08
1.0004e-08
1.00035e-08
1.00029e-08
1.00026e-08
1.00029e-08
1.00037e-08
1.00082e-08
1.00082e-08
1.00074e-08
1.00074e-08
1.00162e-08
1.00157e-08
1.00132e-08
1.00128e-08
1.00209e-08
1.00198e-08
1.00204e-08
1.00193e-08
1.00206e-08
1.00192e-08
1.00202e-08
1.00187e-08
1.00195e-08
1.00177e-08
1.00199e-08
1.00185e-08
1.00194e-08
1.00173e-08
1.00198e-08
1.0018e-08
1.00229e-08
1.0022e-08
1.00211e-08
1.00221e-08
1.00218e-08
1.00208e-08
1.00226e-08
1.00216e-08
1.00219e-08
1.00208e-08
1.00214e-08
1.00204e-08
1.00211e-08
1.00199e-08
1.00215e-08
1.00203e-08
1.00209e-08
1.00194e-08
1.00211e-08
1.00199e-08
1.00223e-08
1.00234e-08
1.00222e-08
1.00236e-08
1.00215e-08
1.00223e-08
1.00213e-08
1.00229e-08
1.00034e-08
1.00075e-08
1.00183e-08
1.00171e-08
1.00172e-08
1.00163e-08
1.00238e-08
1.00234e-08
1.00244e-08
1.00242e-08
1.00245e-08
1.00251e-08
1.00243e-08
1.00247e-08
1.00243e-08
1.0025e-08
1.00242e-08
1.00246e-08
1.00242e-08
1.00235e-08
1.00241e-08
1.00244e-08
1.00245e-08
1.00223e-08
1.00243e-08
1.00239e-08
1.00243e-08
1.00244e-08
1.00246e-08
1.00228e-08
1.00226e-08
1.00234e-08
1.00223e-08
1.00237e-08
1.0022e-08
1.00236e-08
1.00224e-08
1.00238e-08
1.00215e-08
1.00223e-08
1.00213e-08
1.00228e-08
1.0022e-08
1.00232e-08
1.00219e-08
1.00231e-08
1.00028e-08
1.00028e-08
1.00027e-08
1.00027e-08
1.00027e-08
9.98571e-09
1.00027e-08
1.00028e-08
1.00033e-08
1.0004e-08
1.00043e-08
1.00037e-08
1.00028e-08
1.00028e-08
1.00034e-08
1.00069e-08
1.00071e-08
1.00064e-08
1.00065e-08
1.00093e-08
1.00093e-08
1.0008e-08
1.00081e-08
1.0019e-08
1.00168e-08
1.00186e-08
1.00163e-08
1.0019e-08
1.00164e-08
1.00187e-08
1.00162e-08
1.0017e-08
1.00163e-08
1.0018e-08
1.00159e-08
1.00173e-08
1.00165e-08
1.00182e-08
1.00159e-08
1.00207e-08
1.00193e-08
1.00203e-08
1.00186e-08
1.00206e-08
1.00189e-08
1.00202e-08
1.00184e-08
1.00198e-08
1.00177e-08
1.002e-08
1.00181e-08
1.00199e-08
1.00177e-08
1.002e-08
1.0018e-08
1.00219e-08
1.00222e-08
1.00214e-08
1.00224e-08
1.00032e-08
1.00053e-08
1.00147e-08
1.00145e-08
1.00178e-08
1.00165e-08
1.00238e-08
1.0023e-08
1.00239e-08
1.00234e-08
1.00243e-08
1.0024e-08
1.00244e-08
1.00242e-08
1.00241e-08
1.00235e-08
1.00242e-08
1.00238e-08
1.00247e-08
1.00249e-08
1.00246e-08
1.00246e-08
1.00245e-08
1.00247e-08
1.00244e-08
1.00244e-08
1.00226e-08
1.00211e-08
1.00226e-08
1.00209e-08
1.00222e-08
1.00207e-08
1.00222e-08
1.00205e-08
1.00236e-08
1.0023e-08
1.00219e-08
1.00228e-08
1.00228e-08
1.00213e-08
1.00238e-08
1.00229e-08
1.00215e-08
1.00231e-08
1.00226e-08
1.0021e-08
1.00219e-08
1.00221e-08
1.00214e-08
1.00224e-08
1.00222e-08
1.0023e-08
1.00224e-08
1.00231e-08
1.00028e-08
1.00027e-08
1.00027e-08
1.00027e-08
1.00028e-08
9.98573e-09
1.00023e-08
1.00023e-08
1.0003e-08
1.00041e-08
1.00045e-08
1.0004e-08
1.0003e-08
1.00032e-08
1.00041e-08
1.00071e-08
1.00072e-08
1.00059e-08
1.00059e-08
1.00161e-08
1.00165e-08
1.00143e-08
1.00146e-08
1.00197e-08
1.00171e-08
1.00196e-08
1.00168e-08
1.00198e-08
1.00173e-08
1.00198e-08
1.00172e-08
1.00182e-08
1.00165e-08
1.00193e-08
1.00167e-08
1.00186e-08
1.00169e-08
1.00196e-08
1.0017e-08
1.00203e-08
1.00185e-08
1.00201e-08
1.00182e-08
1.00032e-08
1.00045e-08
1.00098e-08
1.00099e-08
1.00122e-08
1.00122e-08
1.00188e-08
1.0019e-08
1.00223e-08
1.00209e-08
1.00246e-08
1.00249e-08
1.00245e-08
1.00242e-08
1.00239e-08
1.0024e-08
1.00239e-08
1.00234e-08
1.00244e-08
1.00241e-08
1.00245e-08
1.00242e-08
1.00242e-08
1.00235e-08
1.00241e-08
1.00236e-08
1.00237e-08
1.00229e-08
1.00232e-08
1.00222e-08
1.00239e-08
1.0023e-08
1.00234e-08
1.00225e-08
1.00232e-08
1.00223e-08
1.00233e-08
1.00224e-08
1.0023e-08
1.00221e-08
1.00233e-08
1.00224e-08
1.00028e-08
1.00028e-08
1.00027e-08
1.00028e-08
1.00033e-08
9.9856e-09
1.0002e-08
1.00017e-08
1.00029e-08
1.00037e-08
1.00046e-08
1.00046e-08
1.00052e-08
1.00037e-08
1.0011e-08
1.00112e-08
1.00172e-08
1.00173e-08
1.00125e-08
1.00127e-08
1.00103e-08
1.00106e-08
1.00164e-08
1.00192e-08
1.00169e-08
1.0019e-08
1.00165e-08
1.00195e-08
1.0017e-08
1.00194e-08
1.00157e-08
1.00183e-08
1.00154e-08
1.00188e-08
1.00158e-08
1.00186e-08
1.00157e-08
1.00191e-08
1.00202e-08
1.00181e-08
1.00203e-08
1.00183e-08
1.00201e-08
1.00177e-08
1.00203e-08
1.00179e-08
1.00197e-08
1.00176e-08
1.00201e-08
1.00182e-08
1.002e-08
1.00175e-08
1.00203e-08
1.00179e-08
1.0003e-08
1.00047e-08
1.00086e-08
1.00149e-08
1.00154e-08
1.0016e-08
1.00165e-08
1.00238e-08
1.00242e-08
1.0025e-08
1.00247e-08
1.00249e-08
1.00249e-08
1.00248e-08
1.00245e-08
1.00247e-08
1.00249e-08
1.00244e-08
1.00238e-08
1.00241e-08
1.00235e-08
1.00245e-08
1.00241e-08
1.00242e-08
1.00232e-08
1.00243e-08
1.00235e-08
1.00239e-08
1.00227e-08
1.00243e-08
1.0023e-08
1.00028e-08
1.00028e-08
1.00028e-08
1.00033e-08
1.00069e-08
9.9806e-09
1.00024e-08
1.00018e-08
1.00028e-08
1.00029e-08
1.00044e-08
1.00073e-08
1.00389e-08
1.00462e-08
1.00157e-08
1.00156e-08
1.00211e-08
1.00212e-08
1.00175e-08
1.00152e-08
1.00158e-08
1.00165e-08
1.00178e-08
1.00154e-08
1.00159e-08
1.00166e-08
1.00162e-08
1.00162e-08
1.00165e-08
1.00195e-08
1.00168e-08
1.00196e-08
1.00166e-08
1.00197e-08
1.00168e-08
1.00199e-08
1.00163e-08
1.00197e-08
1.0016e-08
1.00198e-08
1.00165e-08
1.00199e-08
1.00163e-08
1.00201e-08
1.00195e-08
1.00172e-08
1.00197e-08
1.0017e-08
1.00028e-08
1.00036e-08
1.00096e-08
1.0017e-08
1.00159e-08
1.00153e-08
1.00156e-08
1.00179e-08
1.00185e-08
1.00215e-08
1.00215e-08
1.00239e-08
1.00244e-08
1.00239e-08
1.00242e-08
1.00242e-08
1.00247e-08
1.00243e-08
1.00244e-08
1.00236e-08
1.00231e-08
1.0022e-08
1.00237e-08
1.00238e-08
1.00235e-08
1.00227e-08
1.00239e-08
1.00232e-08
1.00218e-08
1.00231e-08
1.00224e-08
1.00236e-08
1.00225e-08
1.00234e-08
1.00229e-08
1.00229e-08
1.00231e-08
1.00229e-08
1.00228e-08
1.00231e-08
1.00231e-08
1.0023e-08
1.00231e-08
1.00028e-08
1.00028e-08
1.00033e-08
1.00069e-08
9.9806e-09
1.00027e-08
1.00027e-08
1.00025e-08
1.00038e-08
1.00076e-08
1.00323e-08
1.01109e-08
1.00537e-08
1.00709e-08
1.00883e-08
1.0141e-08
1.0025e-08
1.00233e-08
1.00276e-08
1.00279e-08
1.00269e-08
1.0025e-08
1.00311e-08
1.00316e-08
1.0034e-08
1.00408e-08
1.00194e-08
1.0016e-08
1.00161e-08
1.00184e-08
1.00196e-08
1.00161e-08
1.00162e-08
1.00184e-08
1.00235e-08
1.00208e-08
1.00224e-08
1.00193e-08
1.00244e-08
1.00216e-08
1.00228e-08
1.00195e-08
1.00181e-08
1.00213e-08
1.00183e-08
1.00211e-08
1.00185e-08
1.00215e-08
1.00185e-08
1.00214e-08
1.00027e-08
1.0003e-08
1.00059e-08
1.0021e-08
1.00275e-08
1.0026e-08
1.00266e-08
1.00266e-08
1.00237e-08
1.00245e-08
1.00237e-08
1.00221e-08
1.00226e-08
1.00233e-08
1.00238e-08
1.00222e-08
1.00226e-08
1.00232e-08
1.00233e-08
1.00246e-08
1.00238e-08
1.0024e-08
1.00237e-08
1.0025e-08
1.00242e-08
1.00243e-08
1.00221e-08
1.00224e-08
1.00207e-08
1.00231e-08
1.00228e-08
1.00232e-08
1.00217e-08
1.00237e-08
1.0022e-08
1.00199e-08
1.0023e-08
1.00211e-08
1.00028e-08
1.00033e-08
1.00068e-08
9.98059e-09
1.00018e-08
1.00044e-08
1.00048e-08
1.00013e-08
1.00416e-08
1.00976e-08
1.02071e-08
1.03379e-08
1.012e-08
1.01202e-08
1.00623e-08
1.01049e-08
1.01242e-08
1.02191e-08
1.00277e-08
1.0027e-08
1.00299e-08
1.00307e-08
1.00304e-08
1.00302e-08
1.00343e-08
1.00357e-08
1.00398e-08
1.00452e-08
1.00482e-08
1.00389e-08
1.00571e-08
1.00698e-08
1.00754e-08
1.00549e-08
1.00216e-08
1.00185e-08
1.00188e-08
1.00218e-08
1.00217e-08
1.00187e-08
1.00189e-08
1.00221e-08
1.00257e-08
1.00234e-08
1.0024e-08
1.00209e-08
1.00274e-08
1.00253e-08
1.00249e-08
1.00221e-08
1.00028e-08
1.00027e-08
1.00042e-08
1.00118e-08
1.0034e-08
1.0033e-08
1.00342e-08
1.00339e-08
1.00322e-08
1.0032e-08
1.00276e-08
1.00267e-08
1.00286e-08
1.00281e-08
1.00279e-08
1.00269e-08
1.00285e-08
1.0028e-08
1.00269e-08
1.00249e-08
1.00268e-08
1.0025e-08
1.00248e-08
1.0024e-08
1.00272e-08
1.00257e-08
1.00269e-08
1.00256e-08
1.00251e-08
1.00245e-08
1.00247e-08
1.00231e-08
1.00249e-08
1.00232e-08
1.00239e-08
1.00252e-08
1.00239e-08
1.00248e-08
1.00242e-08
1.00255e-08
1.00243e-08
1.0025e-08
1.00033e-08
1.00067e-08
9.9806e-09
1.00024e-08
1.00033e-08
1.00053e-08
1.00307e-08
1.00543e-08
1.01268e-08
1.03589e-08
1.04812e-08
1.01314e-08
1.01321e-08
1.00549e-08
1.00491e-08
1.00533e-08
1.00691e-08
1.00589e-08
1.00511e-08
1.00768e-08
1.00976e-08
1.00816e-08
1.00766e-08
1.01396e-08
1.01071e-08
1.01921e-08
1.01056e-08
1.01136e-08
1.00849e-08
1.03231e-08
1.02576e-08
1.02325e-08
1.01898e-08
1.00318e-08
1.00297e-08
1.00347e-08
1.00338e-08
1.00385e-08
1.00381e-08
1.00448e-08
1.00454e-08
1.00443e-08
1.00442e-08
1.0066e-08
1.00651e-08
1.00192e-08
1.00227e-08
1.002e-08
1.00232e-08
1.00295e-08
1.00265e-08
1.00342e-08
1.00329e-08
1.00032e-08
1.00027e-08
1.00029e-08
1.00085e-08
1.00206e-08
1.00198e-08
1.00294e-08
1.00278e-08
1.00368e-08
1.00368e-08
1.0034e-08
1.00347e-08
1.00298e-08
1.00321e-08
1.00332e-08
1.00302e-08
1.00319e-08
1.00305e-08
1.00309e-08
1.00326e-08
1.00333e-08
1.00311e-08
1.00314e-08
1.00303e-08
1.00281e-08
1.00269e-08
1.00283e-08
1.00272e-08
1.00272e-08
1.00253e-08
1.00266e-08
1.00266e-08
1.00243e-08
1.0025e-08
1.00275e-08
1.00259e-08
1.00269e-08
1.00263e-08
1.0025e-08
1.00251e-08
1.00255e-08
1.00237e-08
1.00254e-08
1.00237e-08
1.00066e-08
9.98061e-09
1.00014e-08
1.00043e-08
1.00094e-08
1.00332e-08
1.00389e-08
1.01756e-08
1.03598e-08
1.01255e-08
1.01861e-08
1.06434e-08
1.07261e-08
1.01437e-08
1.01453e-08
1.00494e-08
1.00228e-08
1.00669e-08
1.00495e-08
1.0039e-08
1.00766e-08
1.00784e-08
1.00911e-08
1.00596e-08
1.02422e-08
1.01426e-08
1.02984e-08
1.02236e-08
1.01483e-08
1.01063e-08
1.0104e-08
1.04316e-08
1.05034e-08
1.02755e-08
1.03959e-08
1.00405e-08
1.00394e-08
1.00568e-08
1.00554e-08
1.00065e-08
1.00031e-08
1.00027e-08
1.00042e-08
1.00197e-08
1.00292e-08
1.00284e-08
1.00351e-08
1.00336e-08
1.0037e-08
1.00374e-08
1.00354e-08
1.00362e-08
1.00371e-08
1.00376e-08
1.00359e-08
1.00365e-08
1.00297e-08
1.00299e-08
1.00289e-08
1.00315e-08
1.00314e-08
1.00307e-08
1.0031e-08
1.00315e-08
1.00306e-08
1.00327e-08
1.00329e-08
1.00325e-08
1.00246e-08
1.00271e-08
1.00266e-08
1.00298e-08
1.00267e-08
1.00287e-08
1.00284e-08
1.00305e-08
1.0029e-08
1.00266e-08
1.00295e-08
1.00278e-08
1.00278e-08
1.0025e-08
1.00268e-08
1.00242e-08
1.0029e-08
1.00271e-08
1.00267e-08
1.00245e-08
9.98059e-09
1.00021e-08
1.0003e-08
1.00147e-08
1.00177e-08
1.00346e-08
1.02273e-08
1.04235e-08
1.01516e-08
1.02457e-08
1.07079e-08
1.06917e-08
1.10631e-08
1.0279e-08
1.06645e-08
1.12475e-08
1.12044e-08
1.04298e-08
1.01614e-08
1.01787e-08
1.0208e-08
1.01583e-08
1.00463e-08
1.01331e-08
1.07697e-08
1.07011e-08
1.03481e-08
1.05628e-08
9.98056e-09
1.00062e-08
1.0003e-08
1.0003e-08
1.00087e-08
1.00244e-08
1.00243e-08
1.00352e-08
1.00349e-08
1.00284e-08
1.00282e-08
1.00369e-08
1.00374e-08
1.00373e-08
1.00374e-08
1.00356e-08
1.00363e-08
1.00372e-08
1.00377e-08
1.00358e-08
1.00367e-08
1.00283e-08
1.00291e-08
1.00256e-08
1.00266e-08
1.00301e-08
1.00282e-08
1.00299e-08
1.003e-08
1.00281e-08
1.00274e-08
1.00313e-08
1.003e-08
1.00236e-08
1.00266e-08
1.00257e-08
1.00285e-08
1.00098e-08
9.99697e-09
1.00059e-08
1.00084e-08
1.01653e-08
1.0073e-08
1.01694e-08
1.00025e-08
1.03407e-08
1.05305e-08
1.02321e-08
1.03551e-08
1.08745e-08
1.13896e-08
1.14383e-08
1.01667e-08
1.04645e-08
1.15361e-08
1.12868e-08
1.03497e-08
1.01537e-08
1.01722e-08
1.01532e-08
1.01589e-08
1.02304e-08
1.02364e-08
1.0213e-08
1.01772e-08
1.04532e-08
1.01299e-08
1.06628e-08
1.03838e-08
9.98061e-09
1.00058e-08
1.0003e-08
1.00043e-08
1.00229e-08
1.00378e-08
1.00384e-08
1.00404e-08
1.00414e-08
1.00373e-08
1.0039e-08
1.0038e-08
1.0038e-08
1.0038e-08
1.00377e-08
1.0039e-08
1.00386e-08
1.00384e-08
1.00388e-08
1.00386e-08
1.00368e-08
1.00379e-08
1.00358e-08
1.00386e-08
1.00375e-08
1.00376e-08
1.00375e-08
1.00109e-08
1.00012e-08
1.00001e-08
1.00203e-08
1.02893e-08
1.02187e-08
1.01748e-08
1.01078e-08
1.01789e-08
1.02211e-08
1.03311e-08
1.03386e-08
1.02796e-08
1.03271e-08
1.04332e-08
1.03655e-08
1.0598e-08
1.06245e-08
1.04712e-08
1.06128e-08
1.03331e-08
1.04444e-08
1.03966e-08
1.12553e-08
1.14699e-08
1.01438e-08
1.02808e-08
1.11411e-08
1.08763e-08
1.03911e-08
1.01586e-08
1.01644e-08
1.02754e-08
1.01833e-08
9.98061e-09
1.00055e-08
1.00032e-08
1.00093e-08
1.00274e-08
1.00274e-08
1.00305e-08
1.00306e-08
1.00353e-08
1.00361e-08
1.00416e-08
1.00435e-08
1.00373e-08
1.00386e-08
1.00321e-08
1.00295e-08
1.00342e-08
1.00332e-08
1.00395e-08
1.00405e-08
1.00351e-08
1.00325e-08
1.00372e-08
1.00365e-08
1.00336e-08
1.00317e-08
1.00363e-08
1.00346e-08
1.00355e-08
1.0032e-08
1.00378e-08
1.00348e-08
9.99912e-09
1.00054e-08
9.99991e-09
1.00971e-08
1.00011e-08
1.00358e-08
1.00316e-08
1.03914e-08
1.05066e-08
1.02501e-08
1.02689e-08
1.02256e-08
1.02483e-08
1.03554e-08
1.0325e-08
1.03721e-08
1.03177e-08
1.05606e-08
1.03664e-08
1.07969e-08
1.10022e-08
1.06845e-08
1.09603e-08
1.03724e-08
1.04172e-08
1.03965e-08
1.04828e-08
1.04658e-08
1.06005e-08
1.09282e-08
1.08278e-08
9.98058e-09
1.0005e-08
1.00045e-08
1.00243e-08
1.00405e-08
1.00402e-08
1.00418e-08
1.0042e-08
1.00412e-08
1.00426e-08
1.00395e-08
1.00415e-08
1.00423e-08
1.00395e-08
1.00398e-08
1.0042e-08
1.00439e-08
1.00406e-08
1.00408e-08
1.00434e-08
1.0042e-08
1.00436e-08
1.00319e-08
1.00308e-08
1.00289e-08
1.00267e-08
1.00358e-08
1.00337e-08
1.00325e-08
1.00298e-08
1.00306e-08
1.00267e-08
1.00337e-08
1.00299e-08
1.00028e-08
1.00038e-08
1.0005e-08
1.01035e-08
1.00515e-08
1.0038e-08
1.00295e-08
1.04205e-08
1.04708e-08
1.03558e-08
1.03369e-08
1.04237e-08
1.0281e-08
1.07069e-08
1.07046e-08
1.03947e-08
1.04586e-08
1.04618e-08
1.03514e-08
1.02625e-08
1.02724e-08
1.03738e-08
1.03645e-08
1.09733e-08
1.12794e-08
1.06167e-08
1.05928e-08
1.1221e-08
1.10358e-08
9.98062e-09
1.00046e-08
1.00095e-08
1.00344e-08
1.00336e-08
1.00414e-08
1.00415e-08
1.00388e-08
1.00387e-08
1.00498e-08
1.00505e-08
1.0044e-08
1.00439e-08
1.00421e-08
1.00415e-08
1.00436e-08
1.00428e-08
1.00448e-08
1.00448e-08
1.00443e-08
1.0045e-08
1.00425e-08
1.00422e-08
1.00359e-08
1.00336e-08
1.00423e-08
1.00422e-08
1.00428e-08
1.00372e-08
1.00436e-08
1.00345e-08
1.00065e-08
1.00023e-08
1.00065e-08
1.01094e-08
1.00928e-08
1.00443e-08
1.00391e-08
1.05573e-08
1.05176e-08
1.03649e-08
1.05204e-08
1.05276e-08
1.0279e-08
1.08726e-08
1.0626e-08
1.03791e-08
1.03858e-08
1.04725e-08
1.03052e-08
1.01485e-08
1.01785e-08
1.02018e-08
1.02287e-08
1.01486e-08
1.01774e-08
1.02168e-08
1.02446e-08
1.0798e-08
1.06305e-08
1.11979e-08
1.10158e-08
9.98065e-09
1.00046e-08
1.00252e-08
1.00468e-08
1.00447e-08
1.00512e-08
1.00499e-08
1.0055e-08
1.00564e-08
1.0046e-08
1.00475e-08
1.00525e-08
1.00497e-08
1.00505e-08
1.00522e-08
1.00465e-08
1.00483e-08
1.00535e-08
1.00504e-08
1.00512e-08
1.00531e-08
1.00421e-08
1.004e-08
1.00409e-08
1.00379e-08
1.00402e-08
1.00378e-08
1.00424e-08
1.00414e-08
1.00025e-08
9.9996e-09
1.00871e-08
1.00532e-08
1.00521e-08
1.00898e-08
1.0054e-08
1.00589e-08
1.01672e-08
1.01287e-08
1.01876e-08
1.01656e-08
1.01174e-08
1.01842e-08
1.08143e-08
1.06635e-08
1.03173e-08
1.06411e-08
1.05057e-08
1.02869e-08
1.04419e-08
1.04911e-08
1.03578e-08
1.07497e-08
1.06144e-08
1.03362e-08
1.01672e-08
1.02243e-08
1.01676e-08
1.0231e-08
9.98078e-09
1.00071e-08
1.00482e-08
1.00569e-08
1.00546e-08
1.00599e-08
1.00586e-08
1.00585e-08
1.00575e-08
1.00583e-08
1.00567e-08
1.00552e-08
1.00553e-08
1.0059e-08
1.00562e-08
1.00565e-08
1.0058e-08
1.00592e-08
1.00579e-08
1.00465e-08
1.00466e-08
1.00525e-08
1.00525e-08
1.00471e-08
1.00472e-08
1.00534e-08
1.00535e-08
1.0043e-08
1.00416e-08
1.00434e-08
1.0042e-08
9.99793e-09
1.00171e-08
1.01505e-08
1.01356e-08
1.01487e-08
1.01416e-08
1.00667e-08
1.00709e-08
1.0189e-08
1.01862e-08
1.03938e-08
1.01787e-08
1.02923e-08
1.02846e-08
1.0172e-08
1.02301e-08
1.01855e-08
1.01879e-08
1.03866e-08
1.01769e-08
1.03011e-08
1.02829e-08
1.01704e-08
1.02275e-08
1.02622e-08
1.02182e-08
1.02953e-08
1.02437e-08
1.01937e-08
1.0267e-08
1.01934e-08
1.02773e-08
9.98125e-09
1.00161e-08
1.00646e-08
1.00688e-08
1.0068e-08
1.00587e-08
1.00714e-08
1.00706e-08
1.00678e-08
1.00591e-08
1.00597e-08
1.00676e-08
1.0059e-08
1.00589e-08
1.00578e-08
1.00567e-08
1.00568e-08
1.00561e-08
1.00589e-08
1.00578e-08
1.00581e-08
1.00576e-08
1.00488e-08
1.00483e-08
1.00547e-08
1.00539e-08
1.00494e-08
1.0049e-08
1.00555e-08
1.00548e-08
9.998e-09
1.01443e-08
1.02742e-08
1.03027e-08
1.01776e-08
1.02517e-08
1.02835e-08
1.02873e-08
1.01739e-08
1.02546e-08
1.02073e-08
1.02034e-08
1.02053e-08
1.02073e-08
1.01966e-08
1.03161e-08
1.03294e-08
1.035e-08
1.02052e-08
1.0197e-08
1.02057e-08
1.03173e-08
1.03264e-08
1.03413e-08
1.02689e-08
1.0205e-08
1.029e-08
1.02131e-08
9.9828e-09
1.00373e-08
1.00808e-08
1.00642e-08
1.00643e-08
1.00777e-08
1.0074e-08
1.00764e-08
1.0065e-08
1.00632e-08
1.00684e-08
1.00613e-08
1.00673e-08
1.00652e-08
1.00672e-08
1.00676e-08
1.00653e-08
1.0064e-08
1.00686e-08
1.00619e-08
1.0067e-08
1.0065e-08
1.00669e-08
1.00671e-08
1.00547e-08
1.00543e-08
1.00505e-08
1.00536e-08
1.00558e-08
1.00526e-08
1.00562e-08
1.0056e-08
1.00028e-08
1.0617e-08
1.03553e-08
1.03183e-08
1.04352e-08
1.01332e-08
1.01093e-08
1.02719e-08
1.04937e-08
1.0304e-08
1.05492e-08
1.02901e-08
1.02985e-08
1.02958e-08
1.0345e-08
1.06096e-08
1.02731e-08
1.03064e-08
1.02779e-08
1.05178e-08
1.03167e-08
1.06326e-08
1.03016e-08
1.03063e-08
1.03053e-08
1.03596e-08
1.05678e-08
1.02778e-08
1.03143e-08
1.02136e-08
1.0305e-08
1.03461e-08
1.04787e-08
1.02135e-08
1.03168e-08
1.03429e-08
1.05155e-08
9.98608e-09
1.00784e-08
1.00839e-08
1.00648e-08
1.00653e-08
1.00654e-08
1.00696e-08
1.00652e-08
1.00654e-08
1.00792e-08
1.00756e-08
1.00809e-08