/*--------------------------------*- C++ -*----------------------------------*\
| =========                 |                                                 |
| \\      /  F ield         | OpenFOAM: The Open Source CFD Toolbox           |
|  \\    /   O peration     | Version:  5.x                                   |
|   \\  /    A nd           | Web:      www.OpenFOAM.org                      |
|    \\/     M anipulation  |                                                 |
\*---------------------------------------------------------------------------*/
FoamFile
{
    version     2.0;
    format      ascii;
    class       surfaceScalarField;
    location    "0.3";
    object      meshPhi;
}
// * * * * * * * * * * * * * * * * * * * * * * * * * * * * * * * * * * * * * //

dimensions      [0 3 -1 0 0 0 0];

internalField   nonuniform List<scalar> 
30582
(
0
0
0
0
0
0
0
0
0
0
0
0
0
0
0
0
0
0
0
0
0
0
0
0
0
0
0
0
0
0
0
0
0
0
0
0
0
0
0
0
0
0
0
0
0
0
0
0
0
0
0
0
0
0
0
0
0
0
0
0
0
0
0
0
0
0
0
0
0
0
0
0
0
0
0
0
0
0
0
0
0
0
0
0
0
0
0
0
0
0
0
0
0
0
0
0
0
0
0
0
0
0
0
0
0
0
0
0
0
0
0
0
0
0
0
0
0
0
0
0
0
0
0
0
0
0
0
0
0
0
0
0
0
0
0
0
0
0
0
0
0
0
0
0
0
0
0
0
0
0
0
0
0
0
0
0
0
0
0
0
0
0
0
0
0
0
0
0
0
0
0
0
0
0
0
0
0
0
0
0
0
0
0
0
0
0
0
0
0
0
0
0
0
0
0
0
0
0
0
0
0
0
0
0
0
0
0
0
0
0
0
0
0
0
0
0
0
0
0
0
0
0
0
0
0
0
0
0
0
0
0
0
0
0
0
0
0
0
0
0
0
0
0
0
0
0
0
0
0
0
0
0
0
0
0
0
0
0
0
0
0
0
0
0
0
0
0
0
0
0
0
0
0
0
0
0
0
0
0
0
0
0
0
0
0
0
0
0
0
0
0
0
0
0
0
0
0
0
0
0
0
0
0
0
0
0
0
0
0
0
0
0
0
0
0
0
0
0
0
0
0
0
0
0
0
0
0
0
0
0
0
0
0
0
0
0
0
0
0
0
0
0
0
0
0
0
0
0
0
0
0
0
0
0
0
0
0
0
0
0
0
0
0
0
0
0
0
0
0
0
0
0
0
0
0
0
0
0
0
0
0
0
0
0
0
0
0
0
0
0
0
0
0
0
0
0
0
0
0
0
0
0
0
0
0
0
0
0
0
0
0
0
0
0
0
0
0
0
0
0
0
0
0
0
0
0
0
0
0
0
0
0
0
0
0
0
0
0
0
0
0
0
0
0
0
0
0
0
0
0
0
0
0
0
0
0
0
0
0
0
0
0
0
0
0
0
0
0
0
0
0
0
0
0
0
0
0
0
0
0
0
0
0
0
0
0
0
0
0
0
0
0
0
0
0
0
0
0
0
0
0
0
0
0
0
0
0
0
0
0
0
0
0
0
0
0
0
0
0
0
0
0
0
0
0
0
0
0
0
0
0
0
0
0
0
0
0
0
0
0
0
0
0
0
0
0
0
0
0
0
0
0
0
0
0
0
0
0
0
0
0
0
0
0
0
0
0
0
0
0
0
0
0
0
0
0
0
0
0
0
0
0
0
0
0
0
0
0
0
0
0
0
0
0
0
0
0
0
0
0
0
0
0
0
0
0
0
0
0
0
0
0
0
0
0
0
0
0
0
0
0
0
0
0
0
0
0
0
0
0
0
0
0
0
0
0
0
0
0
0
0
0
0
0
0
0
0
0
0
0
0
0
0
0
0
0
0
0
0
0
0
0
0
0
0
0
0
0
0
0
0
0
0
0
0
0
0
0
0
0
0
0
0
0
0
0
0
0
0
0
0
0
0
0
0
0
0
0
0
0
0
0
0
0
0
0
0
0
0
0
0
0
0
0
0
0
0
0
0
0
0
0
0
0
0
0
0
0
0
0
0
0
0
0
0
0
0
0
0
0
0
0
0
0
0
0
0
0
0
0
0
0
0
0
0
0
0
0
0
0
0
0
0
0
0
0
0
0
0
0
0
0
0
0
0
0
0
0
0
0
0
0
0
0
0
0
0
0
0
0
0
0
0
0
0
0
0
0
0
0
0
0
0
0
0
0
0
0
0
0
0
0
0
0
0
0
0
0
0
0
0
0
0
0
0
0
0
0
0
0
0
0
0
0
0
0
0
0
0
0
0
0
0
0
0
0
0
0
0
0
0
0
0
0
0
0
0
0
0
0
0
0
0
0
0
0
0
0
0
0
0
0
0
0
0
0
0
0
0
0
0
0
0
0
0
0
0
0
0
0
0
0
0
0
0
0
0
0
0
0
0
0
0
0
0
0
0
0
0
0
0
0
0
0
0
0
0
0
0
0
0
0
0
0
0
0
0
0
0
0
0
0
0
0
0
0
0
0
0
0
0
0
0
0
0
0
0
0
0
0
0
0
0
0
0
0
0
0
0
0
0
0
0
0
0
0
0
0
0
0
0
0
0
0
0
0
0
0
0
0
0
0
0
0
0
0
0
0
0
0
0
0
0
0
0
0
0
0
0
0
0
0
0
0
0
0
0
0
0
0
0
0
0
0
0
0
0
0
0
0
0
0
0
0
0
0
0
0
0
0
0
0
0
0
0
0
0
0
0
0
0
0
0
0
0
0
0
0
0
0
0
0
0
0
0
0
0
0
0
0
0
0
0
0
0
0
0
0
0
0
0
0
0
0
0
0
0
0
0
0
0
0
0
0
0
0
0
0
0
0
0
0
0
0
0
0
0
0
0
0
0
0
0
0
0
0
0
0
0
0
0
0
0
0
0
0
0
0
0
0
0
0
0
0
0
0
0
0
0
0
0
0
0
0
0
0
0
0
0
0
0
0
0
0
0
0
0
0
0
0
0
0
0
0
0
0
0
0
0
0
0
0
0
0
0
0
0
0
0
0
0
0
0
0
0
0
0
0
0
0
0
0
0
0
0
0
0
0
0
0
0
0
0
0
0
0
0
0
0
0
0
0
0
0
0
0
0
0
0
0
0
0
0
0
0
0
0
0
0
0
0
0
0
0
0
0
0
0
0
0
0
0
0
0
0
0
0
0
0
0
0
0
0
0
0
0
0
0
0
0
0
0
0
0
0
0
0
0
0
0
0
0
0
0
0
0
0
0
0
0
0
0
0
0
0
0
0
0
0
0
0
0
0
0
0
0
0
0
0
0
0
0
0
0
0
0
0
0
0
0
0
0
0
0
0
0
0
0
0
0
0
0
0
0
0
0
0
0
0
0
0
0
0
0
0
0
0
0
0
0
0
0
0
0
0
0
0
0
0
0
0
0
0
0
0
0
0
0
0
0
0
0
0
0
0
0
0
0
0
0
0
0
0
0
0
0
0
0
0
0
0
0
0
0
0
0
0
0
0
0
0
0
0
0
0
0
0
0
0
0
0
0
0
0
0
0
0
0
0
0
0
0
0
0
0
0
0
0
0
0
0
0
0
0
0
0
0
0
0
0
0
0
0
0
0
0
0
0
0
0
0
0
0
0
0
0
0
0
0
0
0
0
0
0
0
0
0
0
0
0
0
0
0
0
0
0
0
0
0
0
0
0
0
0
0
0
0
0
0
0
0
0
0
0
0
0
0
0
0
0
0
0
0
0
0
0
0
0
0
0
0
-1.55946e-18
5.49994e-18
-2.23156e-25
1.64978e-17
8.24726e-18
1.10051e-17
0
0
0
0
0
0
0
0
0
0
0
0
0
0
0
0
0
0
0
0
0
0
0
0
0
0
0
0
0
0
0
0
0
0
0
0
0
0
2.74349e-18
8.6371e-35
-4.00192e-19
6.35851e-26
1.37356e-17
-1.09984e-17
-1.5333e-18
1.64978e-17
-2.74924e-18
1.65027e-17
-7.95906e-19
-1.74346e-25
-2.74734e-17
1.99145e-34
-1.1786e-18
1.64891e-17
3.98547e-18
-2.74818e-17
0
0
0
0
0
0
0
0
0
0
0
0
0
0
0
0
0
0
0
0
0
0
0
0
0
0
0
0
0
0
0
0
0
0
0
0
0
4.57036e-19
-2.36733e-18
1.73719e-17
-1.931e-20
-3.2876e-17
-1.09488e-17
2.19617e-17
-7.21084e-36
-7.84284e-19
8.2414e-18
1.00125e-33
-4.04548e-19
1.11166e-25
1.37032e-17
0
4.67048e-17
-4.5963e-21
-2.19787e-17
-1.22771e-35
3.84287e-19
1.64891e-17
3.98547e-18
-1.64897e-17
-2.47983e-20
1.7493e-24
-1.64468e-17
1.53501e-34
-3.60883e-21
-2.19272e-17
0
0
0
0
0
0
0
0
0
0
0
0
0
0
0
0
0
0
0
0
0
0
0
0
0
0
0
0
0
0
0
0
0
0
0
8.62886e-18
1.64452e-17
1.0947e-17
2.7718e-18
2.80898e-20
1.29319e-34
4.94821e-20
2.96593e-20
1.91957e-17
6.3143e-18
-1.51526e-18
-1.08138e-17
-9.96311e-35
1.32193e-19
8.19468e-18
-1.47701e-18
-1.09272e-17
5.91395e-35
4.33529e-20
-2.74347e-18
0
2.35164e-19
4.77844e-24
4.77603e-18
-8.18291e-18
6.13899e-18
-8.19452e-18
0
0
1.14193e-18
-2.34649e-18
1.12191e-17
6.99483e-21
1.64766e-17
5.45833e-18
-3.2876e-17
-4.95967e-20
-2.19291e-17
-1.24848e-34
-5.48539e-18
-4.38766e-17
0
-2.2238e-24
1.22844e-17
-1.36339e-18
1.22762e-17
-2.73674e-18
0
-5.47517e-18
1.4137e-18
-5.5194e-18
5.47281e-18
-6.84523e-18
5.51145e-18
-6.91695e-18
1.37391e-18
0
0
0
0
0
0
0
0
0
0
0
0
0
0
0
0
0
0
0
0
0
0
0
0
0
0
0
0
0
0
0
0
0
-7.56822e-18
1.37593e-17
-1.0984e-17
8.24583e-18
5.56678e-18
-4.32923e-35
-2.36704e-18
1.6427e-17
1.4951e-18
-2.1854e-17
-1.62154e-34
5.57233e-18
8.25862e-18
0
-2.20728e-17
5.62809e-36
-1.17238e-11
-3.15632e-12
-1.17269e-09
4.71642e-14
-1.7326e-13
9.20009e-09
1.34251e-13
9.31157e-09
-8.17576e-11
4.9822e-19
-9.62799e-20
3.14752e-19
9.67026e-20
-2.78136e-18
1.06574e-17
6.98781e-19
6.6007e-18
1.2705e-18
2.05638e-34
-1.62765e-17
5.44271e-13
9.10222e-09
-7.26815e-15
1.83701e-08
3.84636e-19
6.67378e-19
1.49434e-17
2.72306e-18
1.90575e-17
0
-2.13001e-19
6.14485e-18
-2.72982e-18
8.86483e-18
-5.45731e-18
4.469e-19
4.56805e-20
0
-2.84901e-19
4.76066e-18
4.55146e-20
4.60449e-19
3.71959e-23
-4.0764e-18
0
-1.7701e-22
-2.98921e-17
5.3317e-19
-5.43591e-18
0
0
-2.24447e-17
2.77189e-18
5.5444e-18
-9.50542e-21
1.0947e-17
0
7.86877e-19
7.17128e-19
2.73026e-18
-3.944e-18
-1.47695e-18
-1.17516e-33
0
8.95586e-23
8.20109e-18
-1.57481e-18
-5.45244e-18
-4.54014e-20
7.50537e-18
-2.72719e-18
4.77525e-18
-2.73314e-18
0
-5.47066e-18
2.78199e-18
-8.25534e-18
5.46946e-18
-8.20709e-18
6.88617e-18
-6.9036e-18
2.73821e-18
6.76979e-19
4.56151e-20
-7.76995e-19
4.75355e-18
0
4.54451e-20
1.04052e-23
-4.75563e-18
-8.95388e-23
3.39695e-18
0
9.4183e-22
-7.73079e-19
0
0
1.08673e-17
4.52237e-20
-7.35506e-19
5.44266e-13
0
7.69671e-11
-8.12397e-18
-5.55754e-19
9.07868e-20
9.49444e-18
4.51194e-20
-7.35194e-19
-5.47435e-18
2.06029e-17
-5.43698e-18
0
0
0
0
0
0
0
0
0
0
0
0
0
0
0
0
0
0
0
0
0
0
0
0
0
0
0
0
0
0
0
3.05921e-18
9.56046e-21
-5.47012e-18
5.57269e-18
-5.54658e-18
-1.38254e-35
-6.93024e-19
-8.27966e-18
7.70379e-18
-2.19698e-17
-1.94639e-35
-5.39229e-20
2.73194e-18
6.35566e-18
-1.09544e-17
6.09234e-26
2.64087e-09
-1.95938e-12
8.25226e-09
4.55218e-11
9.05168e-09
5.7739e-09
-2.68737e-18
1.09928e-17
8.62516e-13
-6.61561e-11
-2.11702e-27
-2.57334e-09
2.15199e-10
8.30373e-10
-7.67607e-11
2.64748e-10
-5.62541e-09
-7.94484e-13
-4.11612e-10
-7.01509e-13
1.34829e-10
0
-2.13178e-19
-6.00125e-19
-5.55149e-13
8.89794e-20
-1.26997e-13
-8.07381e-14
8.99284e-18
-6.74824e-35
-9.80148e-09
-1.13644e-17
-3.72469e-20
2.93906e-13
1.09527e-17
-1.89467e-34
-5.17506e-11
-2.7196e-18
0
1.19311e-09
9.03552e-09
4.44654e-20
-2.71989e-19
-5.51552e-18
0
3.42975e-19
-4.26827e-20
5.95612e-18
-7.26639e-19
2.26664e-18
3.46213e-19
-3.72261e-20
-9.91815e-20
8.21187e-18
-6.71157e-19
-1.2995e-17
2.82231e-19
9.55882e-18
0
-2.90277e-13
3.91875e-12
7.25696e-13
2.59073e-11
6.43652e-35
1.08345e-08
-1.1467e-09
-3.84782e-20
1.09322e-17
-2.40806e-35
-8.89844e-18
0
2.94802e-19
7.75651e-19
2.6666e-18
-5.49678e-19
-6.37131e-18
2.29643e-18
3.84654e-20
5.45982e-18
-1.02603e-17
3.73513e-19
4.56805e-20
0
-5.71054e-19
6.12435e-18
-4.55145e-20
4.1033e-19
-6.79364e-18
0
-2.30982e-17
3.01917e-19
-1.08954e-17
-1.23834e-09
-4.57881e-20
0
1.16693e-09
1.40603e-11
-4.51406e-20
6.53127e-14
1.05809e-22
-1.73777e-13
0
-4.07104e-22
9.12479e-09
4.35426e-14
-9.07665e-15
0
0
-7.56821e-18
8.29166e-18
-5.47412e-18
-2.77521e-18
-5.45405e-18
2.57538e-34
2.27371e-18
7.44971e-19
5.53732e-18
-1.6196e-18
6.0356e-20
0
-3.07165e-34
2.76102e-18
0
0
2.014e-19
1.01243e-08
-2.17709e-12
9.76441e-09
-5.45178e-18
-2.75623e-18
-1.35157e-18
3.8459e-19
-5.38921e-18
6.88431e-18
-2.72298e-18
1.49709e-17
0
-1.11576e-12
-8.08922e-11
3.99084e-14
-7.08459e-13
9.58919e-09
-6.90426e-18
-1.06923e-16
-1.2753e-09
5.71644e-22
1.29854e-18
-6.77323e-19
1.81683e-20
2.33175e-17
-3.41674e-18
2.19762e-17
2.17748e-18
5.53531e-19
4.56153e-20
-7.88841e-19
1.42962e-17
4.54332e-20
4.54474e-20
-6.79368e-19
8.15244e-18
-1.31156e-36
-1.36322e-18
-5.55859e-19
9.09155e-20
0
1.35904e-17
0
-8.18702e-19
2.97527e-13
0
9.29327e-09
-9.49897e-18
-7.22103e-19
4.53928e-20
1.56305e-17
0
-7.98877e-19
-1.36166e-18
9.54115e-18
5.4561e-34
3.63754e-19
-9.15468e-20
-1.58887e-18
1.50012e-17
0
1.65403e-19
2.53802e-23
-5.61137e-22
-2.31385e-22
2.704e-17
5.57917e-20
-1.36298e-18
0
0
-9.09591e-09
-8.79927e-14
-4.54389e-20
5.32888e-18
-2.00828e-18
0
0
0
0
0
0
0
0
0
0
0
0
0
0
0
0
0
0
0
0
0
0
0
0
0
0
0
0
0
-9.38521e-18
1.37712e-17
-1.28593e-20
-2.73791e-18
-2.60253e-20
-4.91075e-34
-1.36816e-18
1.09283e-17
1.23984e-17
-1.08989e-17
-7.53836e-34
3.26708e-18
-1.10216e-17
3.26809e-18
-1.08012e-17
-2.1732e-26
-2.5222e-09
8.85033e-11
-9.3131e-09
-2.26105e-09
-9.31579e-09
-5.51444e-09
5.13278e-13
-1.72228e-10
-4.53562e-13
4.5164e-09
-6.62102e-27
3.73438e-11
-2.33453e-09
9.35285e-09
-2.29318e-09
9.26815e-09
7.93115e-11
2.24511e-13
4.67564e-09
4.1954e-13
4.58256e-09
-1.03657e-24
3.51962e-12
-7.25688e-13
1.12688e-08
-6.13431e-35
-1.14578e-09
2.68717e-24
-2.87464e-09
1.75768e-17
8.47771e-27
-1.02126e-12
-1.21572e-17
0
-1.98851e-18
2.80156e-18
3.7112e-19
-7.18584e-18
-4.27633e-20
1.08476e-12
6.756e-18
5.74858e-09
-1.95727e-17
4.33071e-20
-3.91875e-12
2.72268e-09
5.08788e-18
-1.12004e-08
8.41165e-27
1.01674e-12
-4.75624e-17
0
1.38849e-17
-7.97584e-27
-6.91118e-18
-8.65233e-20
-8.41501e-19
-1.01673e-12
4.91822e-18
4.04178e-18
-5.44455e-09
3.69335e-18
4.38988e-20
8.33086e-18
-1.10449e-17
-3.32282e-20
2.53993e-13
-2.20216e-25
-1.37635e-18
-7.95231e-19
-4.42353e-35
7.28988e-35
1.55074e-09
-1.54944e-20
3.62842e-14
-2.59897e-34
-4.9073e-09
-8.07581e-34
2.97978e-20
-1.76374e-34
-4.58679e-19
-6.45559e-19
1.13361e-18
-1.55045e-20
-2.72404e-19
1.08199e-19
-2.1446e-20
5.19675e-19
1.48482e-19
-7.13666e-19
-7.76285e-36
1.16334e-17
2.01758e-20
-2.61119e-34
-2.37945e-34
7.72961e-20
-4.39375e-19
-6.97582e-19
-1.29452e-18
0
4.56026e-11
9.15735e-20
0
1.20586e-09
-9.20883e-09
-1.0615e-24
3.90831e-19
7.64769e-15
0
-9.13313e-09
1.81431e-14
-8.61806e-14
-6.81433e-10
-2.50581e-20
4.38575e-34
7.66763e-10
-9.76459e-25
-6.53126e-14
-4.98725e-23
2.05663e-34
-2.78113e-22
-4.35415e-14
0
0
3.18794e-18
5.54564e-18
-7.38673e-33
-5.47927e-18
-5.48895e-18
7.96408e-36
4.7252e-18
-2.17084e-19
2.71883e-18
-7.65129e-18
6.46547e-18
-3.28908e-17
6.95877e-36
2.70512e-18
-2.1933e-17
9.28356e-27
-2.64084e-09
-2.57337e-09
2.1763e-10
1.0265e-08
-7.86615e-11
9.56627e-09
-5.77396e-09
-5.62541e-09
-8.23966e-13
-4.11598e-10
-6.99993e-13
1.34843e-10
-2.67148e-25
-6.71269e-13
1.81532e-08
4.53952e-11
9.05175e-09
-2.01544e-18
8.24461e-18
8.65541e-13
-6.61289e-11
0
1.39339e-20
-3.89153e-12
-2.5399e-13
-9.91957e-19
0
-1.08342e-08
-9.00648e-09
3.84846e-20
6.51691e-19
9.57629e-18
0
-1.92911e-18
-8.16542e-18
3.97526e-20
1.89452e-19
3.95601e-19
2.11561e-20
2.776e-19
-2.72352e-18
3.4709e-18
-3.84609e-20
3.85129e-19
4.09186e-18
-5.25626e-19
-1.29596e-17
-3.88844e-20
-8.99756e-19
-3.71919e-13
-5.55149e-13
1.23793e-24
8.34546e-14
1.36967e-13
-2.44149e-19
0
-9.80147e-09
-1.99917e-09
1.49573e-32
1.363e-17
0
-1.15876e-17
0
-1.40533e-10
1.88624e-08
-3.888e-20
-3.23472e-19
2.21544e-19
-1.41082e-19
4.44655e-20
-1.68772e-19
-2.75409e-18
2.91177e-19
-2.5144e-18
2.26657e-18
3.72259e-20
5.47109e-18
-6.09534e-18
2.46955e-19
1.78066e-17
7.66816e-19
-4.57729e-20
-1.88611e-18
1.90893e-17
1.15013e-33
9.00512e-20
-1.35176e-18
1.48747e-17
-1.2873e-19
-6.23374e-22
0
0
9.15734e-09
2.25866e-13
-4.54395e-20
1.60893e-17
-2.01395e-18
-2.37929e-19
-2.50408e-20
-3.06065e-19
-2.37111e-20
5.87503e-20
5.4499e-24
-5.47294e-23
-3.07784e-20
-7.89447e-25
9.40878e-35
-2.70594e-20
0
0
0
0
0
0
0
0
0
0
0
0
0
0
0
0
0
0
0
0
0
0
0
0
0
0
0
0
4.12515e-17
4.55002e-34
4.7817e-18
-5.52031e-18
1.54597e-17
-5.43423e-18
2.06505e-33
4.60438e-18
2.71676e-18
-9.38125e-18
-1.64763e-17
-2.70489e-25
-3.23497e-18
2.1659e-09
1.55189e-17
4.74002e-09
-3.41056e-34
-7.78182e-18
1.37064e-17
1.60904e-17
-2.74135e-17
4.20776e-20
-1.37882e-12
-7.52863e-18
-1.45883e-10
0
-3.82725e-17
4.27001e-20
2.76004e-09
-1.36511e-17
0
1.38335e-12
5.46705e-18
8.40861e-20
-4.15095e-19
-2.062e-18
-4.34051e-18
1.2259e-17
-4.26514e-20
-9.29794e-13
-9.09263e-21
-5.51829e-09
1.02466e-17
8.70202e-20
-1.85052e-12
-5.88935e-11
1.41509e-12
-2.53494e-10
0
2.52061e-10
9.3542e-09
0
-1.36632e-17
0
4.75726e-18
-4.34583e-20
-1.36018e-18
3.08422e-13
-5.4908e-18
1.57148e-18
1.24951e-10
1.50575e-17
-4.32485e-20
-6.82848e-18
1.023e-17
0
1.81422e-13
2.47825e-11
-7.46346e-35
2.62196e-20
1.81422e-13
-2.11594e-34
-5.94752e-11
2.32117e-20
-4.74444e-19
9.80131e-19
-2.62342e-20
-5.75722e-19
1.52395e-18
-4.14533e-20
-2.70402e-18
1.89917e-19
6.94449e-18
-1.77373e-17
-6.94115e-35
-5.27473e-18
1.43114e-16
-3.3789e-20
-3.06279e-34
4.14555e-20
7.78578e-20
-3.81683e-19
7.5715e-19
3.6828e-18
-7.63358e-19
-2.11247e-17
-3.37919e-20
4.62748e-11
-2.50588e-20
2.96689e-34
6.65775e-10
2.37257e-20
-3.9006e-14
1.3574e-34
-1.81423e-14
0
0
1.54907e-17
-2.74433e-18
-5.51292e-18
-8.22662e-18
1.10085e-17
-5.06485e-35
1.36816e-18
6.37352e-18
-5.05573e-20
-9.33923e-18
-3.69336e-32
-2.19077e-17
-3.44846e-34
5.41958e-18
-2.18867e-17
2.93843e-27
2.52232e-09
-8.75967e-18
-3.17038e-12
-9.35307e-09
-2.28864e-09
-9.26897e-09
5.51457e-09
1.08878e-17
-2.75093e-18
8.24799e-18
3.99127e-13
4.58265e-09
2.1732e-26
8.83967e-11
-9.31304e-09
-2.26117e-09
-9.31585e-09
5.1554e-13
-1.72207e-10
-4.5356e-13
4.5164e-09
-4.33097e-20
-5.00729e-12
2.72263e-09
6.57714e-18
-1.13803e-08
0
1.01674e-12
-4.90739e-17
-4.39399e-20
2.87453e-09
1.52937e-17
0
9.90269e-13
-2.84085e-18
0
-8.81173e-19
-1.01673e-12
5.04347e-18
5.8798e-18
-5.44455e-09
8.61844e-19
0
-1.05377e-12
5.59606e-18
-5.74858e-09
-1.11189e-17
0
3.66475e-12
2.53994e-13
1.12688e-08
0
-9.03382e-09
4.28154e-20
8.21661e-18
0
-6.12288e-18
-3.7745e-34
-1.23779e-18
-1.25255e-18
4.21031e-19
7.31272e-18
4.27636e-20
4.08182e-18
-1.28699e-17
4.28765e-20
3.62849e-14
1.18833e-12
-5.55623e-09
0
5.93528e-09
-2.0164e-20
-8.3454e-14
0
4.39211e-09
-1.6408e-33
-5.1887e-20
-5.94049e-21
3.78036e-19
-6.4739e-19
0
2.7242e-19
-1.14179e-18
-3.32267e-20
7.71051e-14
-2.20216e-25
-1.5739e-18
-2.53661e-19
0
1.66309e-34
8.02603e-10
0
0
3.32137e-20
6.97039e-20
-1.78027e-34
-1.63407e-19
2.11813e-18
-4.85965e-19
0
4.49414e-19
0
-7.35273e-19
-2.37123e-20
-6.8976e-21
-3.16219e-20
2.70692e-20
2.16309e-34
0
0
0
0
0
0
0
0
0
0
0
0
0
0
0
0
0
0
0
0
0
0
0
0
0
0
0
0
1.6302e-18
-5.596e-35
-1.22498e-17
-1.10039e-17
-2.19869e-17
-4.37095e-22
-1.09964e-17
-1.62404e-33
-1.59929e-18
2.76549e-18
5.82317e-18
-1.63481e-17
-1.14922e-33
5.50705e-18
-2.19521e-17
0
-1.56702e-18
-5.80558e-13
-2.63128e-10
8.27004e-18
-8.16396e-18
-1.06911e-17
-4.06739e-18
-6.38131e-19
-1.64643e-18
8.67023e-18
9.6138e-18
-4.08499e-18
1.2231e-17
-1.85095e-20
0
6.6195e-19
1.99141e-18
-9.64182e-18
4.72913e-18
-1.09599e-17
7.76385e-18
6.14127e-18
4.14362e-18
1.1625e-17
0
7.17426e-33
-1.17688e-19
-4.6818e-18
-1.83425e-18
0
1.66396e-17
0
3.98418e-18
-9.46828e-18
0
-3.45665e-18
8.08898e-18
0
-7.97656e-19
6.75524e-19
-7.69976e-19
7.31948e-18
-4.20781e-20
3.8103e-19
-1.3077e-18
-4.04964e-18
1.29091e-17
-4.40615e-20
-4.98604e-18
-2.5836e-18
3.04891e-18
0
-1.20365e-17
5.03035e-34
-2.66686e-18
0
2.00016e-18
-3.92285e-34
1.0133e-18
2.82585e-18
4.58716e-18
1.15052e-17
-4.39176e-20
-4.07256e-18
6.0505e-18
-3.70294e-33
-1.00445e-18
-2.40156e-35
-1.10753e-17
3.68014e-34
9.0459e-19
1.85914e-18
0
0
0
4.12601e-17
-8.81947e-34
-6.49023e-20
1.46347e-18
-2.76471e-18
-6.02621e-18
-1.24795e-17
-1.10271e-17
-5.42333e-34
-5.73219e-20
-2.19385e-17
4.12716e-36
1.09055e-19
-7.88716e-18
1.37064e-17
-9.48618e-18
1.56692e-17
-5.32058e-18
-2.22352e-35
-8.94601e-18
-1.36214e-18
1.1397e-32
1.85052e-12
-3.60579e-12
-1.41511e-12
2.53494e-10
0
-2.52369e-10
-9.3542e-09
0
-2.75998e-09
-1.22917e-17
0
-1.39242e-12
1.09163e-17
4.34582e-20
-1.64582e-18
1.54748e-18
-4.13024e-18
3.82052e-18
-4.11117e-18
1.02358e-17
0
9.29796e-13
-4.09737e-18
5.51814e-09
1.43505e-17
0
-1.48767e-12
-7.46013e-18
-1.46159e-10
0
-4.1726e-17
-4.27002e-20
-1.50231e-17
0
6.84537e-18
4.20426e-20
1.73419e-18
-6.15209e-18
-3.06365e-18
1.49166e-17
4.26499e-20
-5.46089e-18
9.57272e-18
-4.14544e-20
-3.74173e-18
-5.69994e-19
3.07332e-18
-1.62258e-17
0
-5.19451e-18
1.31635e-16
-3.37861e-20
-1.81422e-13
0
5.94752e-11
0
-7.80648e-19
-7.52502e-19
-1.46519e-18
5.00992e-18
-1.51244e-18
-1.82396e-17
6.75836e-20
5.75722e-19
-1.52395e-18
1.74201e-25
1.81422e-13
2.47825e-11
0
0
0
-2.08248e-33
-7.0799e-19
1.20253e-18
-2.62341e-20
0
0
0
0
0
0
0
0
0
0
0
0
0
0
0
0
0
0
0
0
0
0
0
0
0
0
-8.27764e-18
2.92168e-33
6.32238e-18
9.123e-18
2.70846e-18
8.92743e-18
-9.41257e-18
-2.74876e-17
4.13011e-33
-1.10463e-17
-2.74498e-18
0
-1.6504e-17
2.25392e-25
1.55125e-18
2.31673e-09
-1.8596e-13
3.11481e-12
2.35494e-09
3.10302e-18
1.85958e-13
-4.63345e-09
-4.69621e-09
4.64898e-13
1.08161e-33
2.83651e-18
-5.3343e-18
-1.16222e-19
4.22863e-20
0
2.73812e-18
-8.22562e-18
2.29018e-24
-8.78841e-19
1.19739e-12
3.99134e-13
0
1.04648e-08
9.33757e-09
-1.56609e-18
2.76277e-18
-9.68468e-19
5.09232e-35
5.90966e-18
-5.51539e-18
0
-8.26714e-19
-9.75977e-21
4.05599e-18
5.45015e-18
-8.79376e-18
-1.60829e-18
-2.72805e-18
-8.6828e-18
4.27746e-20
0
1.22316e-18
4.27783e-20
-9.26426e-18
-5.20685e-12
-1.48768e-12
0
-3.90886e-10
-9.19224e-09
-5.49055e-18
-1.29091e-17
8.54838e-20
6.78877e-18
4.2725e-20
-2.39753e-18
4.17071e-19
1.3479e-18
-4.06205e-18
1.02663e-17
-1.35793e-18
0
-1.23335e-18
5.35838e-19
0
0
8.38504e-19
0
-5.58353e-19
1.68291e-20
2.83401e-19
4.49423e-19
2.4897e-20
8.4276e-19
-1.54513e-18
8.51862e-20
-4.71703e-13
1.45145e-13
9.5586e-09
0
1.93454e-08
-6.59881e-20
0
-1.41214e-33
1.97631e-19
5.25307e-18
3.97794e-18
-1.68178e-17
-6.59983e-20
0
0
0
0
-1.58836e-18
-3.17671e-18
-1.24234e-17
-5.53117e-18
-3.85892e-17
2.7563e-18
-1.65168e-17
1.0381e-33
1.50388e-18
-8.26949e-18
-1.22197e-17
-1.64639e-17
1.0519e-33
1.36804e-17
-2.74575e-17
0
1.40685e-18
1.67242e-18
6.81607e-18
-6.16866e-18
6.12573e-18
-5.49343e-18
0
1.87711e-17
1.02307e-17
-6.21039e-18
8.85425e-18
-1.37727e-18
0
-1.51489e-12
-1.0866e-08
3.41685e-18
-2.53994e-12
5.16467e-11
-1.32307e-18
-7.45511e-19
1.14513e-17
3.39109e-18
-2.71847e-18
6.08472e-18
-4.10609e-18
2.41918e-24
-3.87309e-18
2.53993e-12
3.84566e-18
0
6.9346e-10
-8.78705e-20
-3.04851e-18
-1.08286e-17
0
1.8235e-18
2.0196e-18
8.80721e-20
-1.96355e-18
2.53639e-20
3.65473e-18
3.00234e-18
4.3922e-20
-1.14321e-18
1.36129e-18
3.7938e-18
8.10919e-18
-3.98972e-20
1.86095e-18
-2.68119e-18
-2.12697e-18
0
-5.64904e-18
-4.20952e-20
-6.79561e-18
0
1.30747e-18
7.9768e-20
2.99325e-19
-5.40349e-18
-2.52589e-18
-2.78644e-18
8.41575e-20
-5.28761e-18
4.80546e-18
-1.23847e-33
-1.76628e-19
0
-7.98565e-18
1.96969e-34
5.27723e-19
5.02517e-19
0
0
0
0
0
0
0
0
0
0
0
0
0
0
0
0
0
0
0
0
0
0
0
0
2.87769e-18
0
-1.5581e-17
1.09854e-17
-1.6534e-17
-8.1897e-18
-1.09537e-17
-8.35968e-25
2.63553e-09
-2.51391e-09
2.26315e-09
3.01627e-13
-2.47938e-09
-1.64036e-12
5.75041e-09
-5.49758e-09
-3.0162e-13
-4.52654e-09
1.64037e-12
4.95923e-09
2.63232e-24
2.22616e-09
4.85734e-09
-1.28031e-24
1.00911e-10
1.48766e-12
7.37027e-13
-6.13614e-26
-9.25114e-09
0
-1.31466e-25
1.13993e-08
2.47058e-10
-4.31788e-12
4.31787e-12
0
-4.64894e-13
-4.10682e-18
-2.01088e-10
1.23187e-17
8.83741e-20
-6.93394e-18
2.4578e-17
-6.72121e-20
-4.12249e-18
-1.72429e-26
-1.13777e-08
-2.75764e-12
2.22092e-09
-4.33209e-13
-4.14029e-18
-7.06458e-17
1.07347e-17
-9.12208e-19
4.3315e-13
-4.44183e-09
1.41614e-18
1.6527e-17
-7.09465e-09
3.1659e-20
0
-7.69413e-10
0
7.25666e-14
-9.97827e-14
0
1.11357e-08
-2.1771e-13
-3.63666e-18
0
-2.87374e-18
9.19986e-34
5.36026e-22
9.44864e-19
-2.79865e-18
-3.23272e-19
1.06324e-08
-4.19945e-20
0
-9.96944e-09
0
7.61974e-13
1.22461e-12
2.90278e-13
0
1.09038e-08
-1.47494e-09
1.1793e-13
-1.05789e-17
8.40077e-20
-5.97664e-18
-4.11921e-20
-1.58222e-18
1.4908e-18
6.03543e-19
-1.21957e-17
-6.61022e-19
2.97014e-18
-1.18613e-24
0
3.27932e-34
0
0
0
0
0
-8.27767e-18
-3.26978e-33
-1.58588e-19
4.66933e-18
8.268e-18
-9.03331e-18
0
-1.65042e-17
-9.50818e-34
1.32774e-18
2.77233e-17
-9.26773e-18
-1.64522e-17
-4.55464e-34
1.55261e-18
1.09762e-17
-5.88784e-18
-1.1082e-17
-4.11904e-25
2.32726e-09
-6.81846e-13
1.07701e-11
2.44426e-09
6.81849e-13
-4.65521e-09
-4.8421e-09
1.3637e-12
-5.10257e-18
-4.2775e-20
0
-4.44858e-18
1.41717e-18
1.30133e-24
-4.43466e-18
1.19301e-11
3.62846e-12
0
1.12946e-08
-4.96783e-11
6.43941e-18
-1.47692e-19
-8.09746e-18
-4.27436e-20
-6.32069e-18
7.97697e-19
0
-3.20761e-18
1.22391e-18
-1.37833e-18
0
5.45211e-18
2.43375e-18
4.13248e-18
-1.12477e-18
-6.00293e-34
0
-8.91329e-18
-4.03926e-20
1.03071e-19
-3.26563e-12
-9.07109e-13
0
-2.10027e-08
-2.73609e-10
1.09704e-17
9.16999e-19
0
-1.30261e-17
0
7.49836e-19
-3.95911e-19
-2.05367e-18
1.01071e-17
-1.34704e-17
4.12137e-18
-4.25845e-20
-3.62849e-13
1.51489e-12
-8.36825e-10
0
1.08455e-08
-3.29931e-20
2.17706e-13
0
7.60958e-09
-4.25923e-20
1.29667e-19
1.53087e-18
2.9478e-18
-1.52333e-17
3.29988e-20
-2.7974e-19
1.69315e-18
-1.68123e-20
-1.33088e-18
5.35824e-19
0
4.97577e-20
0
0
-9.27127e-19
9.88104e-19
-2.4891e-20
0
0
0
0
0
0
0
0
0
0
0
0
0
0
0
0
0
0
0
0
9.41128e-18
-1.7457e-22
-5.57439e-18
5.56191e-18
-5.47847e-18
-7.27516e-34
-7.76418e-18
7.83024e-18
1.24445e-21
9.11045e-18
0
-1.10179e-17
-1.10618e-33
6.80105e-20
8.36744e-18
-1.36214e-19
-2.29299e-17
4.84755e-26
6.81711e-18
2.68196e-09
-8.07619e-18
7.83593e-18
0
5.51051e-13
-7.79703e-17
0
-2.93913e-09
-8.1021e-18
0
-3.57254e-12
9.51264e-18
-4.3204e-20
1.61328e-18
-5.51074e-13
7.97361e-20
-1.13528e-17
-5.36337e-09
1.81814e-17
0
2.85137e-12
-1.30572e-18
5.87482e-09
1.35328e-17
0
-3.68287e-18
3.34611e-18
2.71761e-18
6.92681e-18
-4.96946e-18
5.43538e-18
9.88114e-19
6.77121e-18
-2.03754e-18
0
-9.78568e-18
-5.43429e-18
4.37699e-20
-6.53117e-13
-2.13762e-18
-1.16735e-08
9.29637e-34
4.23674e-18
0
1.88069e-33
-5.42856e-10
-2.21337e-12
8.82392e-34
1.86716e-18
-2.03408e-18
-1.16905e-17
4.4316e-18
-4.48605e-20
6.79669e-18
-5.99538e-19
-5.67018e-25
-4.9348e-18
-1.23386e-17
1.4733e-18
0
-7.46637e-17
9.94505e-33
3.95382e-18
2.74503e-18
0
1.09571e-18
2.6742e-18
-4.35842e-20
5.01391e-19
-4.29719e-20
5.14358e-18
2.46786e-17
-4.26024e-20
6.72287e-19
-2.78603e-18
-1.557e-18
6.71064e-19
1.7067e-09
8.10927e-25
0
0
2.72121e-14
1.95938e-12
0
1.477e-08
-1.06971e-18
-6.30438e-34
1.96958e-20
-4.83334e-19
5.6946e-19
-4.50421e-18
0
0
0
0
0
0
9.3252e-18
0
3.44457e-17
-2.56062e-18
-5.73286e-18
-5.43748e-18
-1.10415e-17
-1.0313e-24
-2.56308e-09
4.39721e-11
-5.59712e-09
8.67869e-11
1.27045e-24
8.67692e-11
2.34137e-09
3.42616e-10
-9.7059e-11
4.49319e-10
1.8619e-10
2.86497e-13
-4.70033e-09
1.08022e-12
2.20879e-10
3.21053e-27
1.09547e-08
-2.83021e-12
2.4054e-09
1.02328e-08
2.18615e-12
9.94287e-09
-9.16191e-13
-4.74645e-10
4.14422e-18
-6.68266e-20
-5.38226e-13
-4.77581e-09
-7.35483e-19
2.47747e-18
-7.71362e-19
9.19055e-18
4.34341e-20
2.93284e-09
-3.62848e-12
2.66541e-12
-7.9572e-26
3.63301e-12
0
-4.01931e-26
9.116e-09
-2.83021e-12
-4.33978e-20
-1.3637e-12
-4.10674e-18
-5.86162e-09
2.05057e-18
-4.41831e-20
3.27726e-18
-5.5259e-18
-1.06326e-08
0
0
9.51326e-09
9.91861e-09
4.12118e-20
-3.99132e-13
4.93472e-12
-1.76261e-19
0
2.26406e-08
2.32322e-17
-3.2656e-13
-1.72351e-13
-1.07147e-18
0
1.31296e-18
-1.50969e-18
4.11959e-20
-3.16532e-18
2.3898e-18
1.34454e-18
-1.55245e-18
2.63446e-18
3.51958e-18
-7.38032e-19
6.89935e-09
-3.16568e-20
0
-1.95425e-20
7.25664e-14
-1.11575e-12
0
-2.874e-09
-4.99054e-18
-3.16628e-20
0
4.38283e-20
2.66625e-19
-4.02029e-18
1.86672e-24
0
2.41233e-34
0
0
0
0
0
0
0
0
0
0
0
0
0
0
0
0
0
1.10902e-17
-2.66873e-35
-6.3014e-18
-3.14605e-18
-9.70698e-20
-1.12271e-17
7.67652e-35
1.97512e-19
-8.51189e-20
6.30125e-18
-1.66786e-17
-5.65545e-25
-2.53674e-09
8.57226e-12
1.06798e-08
-1.16111e-12
1.31532e-12
-1.9156e-08
8.53541e-11
-9.4386e-09
1.05356e-08
-5.54948e-09
1.09092e-19
7.43628e-18
7.7996e-19
1.41765e-18
1.70747e-18
-5.58248e-18
-7.18137e-13
-1.82474e-10
1.66431e-24
-2.60353e-09
2.58056e-09
9.71389e-09
9.91567e-11
9.52424e-09
-5.68126e-09
-2.03875e-12
-5.1405e-09
2.66844e-13
-2.05687e-10
-1.2559e-24
9.67468e-18
-2.06823e-12
-5.44267e-13
-8.50207e-18
0
-1.08371e-08
-2.01607e-11
0
-8.18834e-18
0
6.78806e-18
-5.50582e-34
1.80168e-18
-3.8045e-19
2.04192e-18
-1.12989e-17
2.91475e-18
3.34659e-24
0
-4.12303e-18
6.13649e-18
4.66586e-18
4.19422e-20
0
-1.09986e-18
-9.54076e-18
0
5.8693e-18
-7.25691e-13
0
9.01771e-09
2.25852e-18
1.62869e-17
6.39692e-18
-4.19215e-20
1.1917e-19
-1.49592e-17
-4.42994e-20
7.52531e-19
2.04535e-18
-5.14413e-18
5.92519e-20
5.3564e-18
3.25289e-20
6.53126e-13
-1.07007e-08
0
-1.30039e-24
0
-1.12276e-17
7.43403e-18
6.50522e-20
-5.75839e-19
-7.63707e-18
8.49137e-34
-2.1739e-17
2.98425e-18
0
-1.45143e-13
8.61767e-13
-6.03555e-10
0
9.6366e-09
2.72816e-20
-2.17704e-13
0
-6.13221e-09
4.18006e-20
8.9368e-20
3.66265e-18
8.95586e-18
-1.16048e-17
0
2.11826e-19
-5.35485e-18
0
0
0
0
0
0
3.44726e-17
5.56191e-18
1.10414e-17
-1.10366e-17
-5.57439e-18
3.52547e-34
7.76436e-18
6.15485e-18
1.40339e-17
-2.21184e-17
5.50122e-32
-1.08038e-17
-3.95899e-35
-1.78888e-18
-1.02853e-21
0
5.90993e-19
0
2.81615e-09
2.25948e-12
4.7538e-18
-4.20853e-22
-2.75473e-18
-5.43559e-18
4.85083e-18
-3.00945e-18
-1.8286e-12
-5.63024e-09
4.75479e-18
0
1.04649e-19
-5.43432e-18
5.78259e-18
3.40261e-18
4.3238e-20
5.73299e-12
-9.61719e-11
-8.02768e-18
1.11038e-08
0
-6.19907e-13
4.424e-17
-4.37113e-20
-1.22877e-17
0
1.15743e-17
2.82889e-25
4.25713e-18
6.19863e-13
-7.50047e-18
-1.11223e-17
1.9191e-10
8.6627e-18
4.36395e-20
-6.92016e-18
1.08386e-17
4.36419e-20
-5.51527e-12
-5.66452e-18
-1.13482e-08
0
4.92993e-17
1.10968e-24
-1.42334e-19
-2.79392e-12
0
1.53574e-18
-1.1001e-08
8.97574e-20
8.70828e-13
1.4786e-12
-4.00279e-34
-5.65112e-10
9.99709e-09
8.71645e-20
8.38938e-19
6.80642e-19
-2.87289e-18
9.95947e-18
-4.25955e-20
0
-8.13693e-19
2.22692e-18
4.59519e-18
-4.48578e-20
-1.08716e-18
7.19347e-19
3.67846e-18
-2.80438e-19
1.54114e-24
9.88755e-13
-1.91752e-34
8.75283e-09
-4.37565e-20
-7.25432e-19
2.72052e-18
-4.81549e-09
-2.03463e-25
0
0
3.62849e-14
-3.53775e-13
0
7.28551e-11
1.7074e-09
1.15897e-24
1.96932e-20
-4.17274e-13
-5.2991e-19
1.54227e-18
0
0
0
0
0
0
0
0
0
0
0
0
0
0
1.55509e-17
8.10252e-19
3.43133e-17
-7.84976e-20
-1.6441e-17
-2.52318e-18
1.15309e-19
-1.85136e-25
-9.38651e-18
-2.30573e-09
1.29061e-17
-5.03059e-09
-3.5472e-34
1.09217e-17
-1.08165e-17
-3.5013e-20
-1.1974e-12
-9.34332e-13
3.10962e-18
-4.3403e-20
-7.25637e-14
-1.62374e-12
7.68057e-11
0
7.30762e-09
-8.5218e-09
4.03043e-20
2.74956e-09
8.07641e-18
0
6.7732e-13
-8.81378e-18
0
1.05788e-08
-1.09113e-08
-8.67967e-20
-1.36033e-18
1.63968e-18
3.50167e-20
-7.76676e-19
-4.05213e-19
3.71063e-18
-4.80295e-18
-1.49519e-17
-2.22593e-18
-5.03533e-18
-9.21142e-18
8.05184e-20
-6.81853e-13
4.0381e-18
-5.49879e-09
-1.01509e-17
8.78894e-20
-3.22935e-12
2.84823e-09
-3.13362e-18
-4.10471e-10
0
2.14764e-12
-1.26992e-17
0
1.42586e-18
0
-3.79603e-22
-3.20896e-26
-1.46593e-18
-2.1476e-12
-2.15003e-18
1.43055e-17
-5.69545e-09
3.58787e-18
0
-2.92363e-18
3.66629e-20
5.39602e-20
3.33039e-18
-6.07768e-13
-4.56895e-18
0
-4.60345e-09
-4.16359e-20
1.43551e-17
0
-1.58185e-17
2.69858e-20
1.06665e-18
1.38122e-18
-6.02958e-18
-3.93746e-18
0
5.73793e-18
-2.1577e-17
5.49776e-20
0
3.74885e-19
3.3686e-18
4.21424e-34
-5.7388e-18
1.40688e-18
-2.82304e-26
0
-7.58965e-35
2.05905e-24
0
3.44363e-34
0
0
0
0
0
0
0
1.08576e-17
6.934e-35
6.3014e-18
6.29909e-18
1.10337e-17
9.70698e-20
6.30125e-18
-1.11191e-17
-1.48124e-34
2.46762e-18
-1.12271e-17
-3.68007e-25
-3.18851e-18
-2.60349e-09
2.5803e-09
9.7135e-09
-4.04424e-12
9.52483e-09
-1.05866e-17
-5.68126e-09
-1.97071e-12
-5.14045e-09
1.48632e-18
1.07948e-17
-1.53404e-34
-5.22874e-19
-2.49815e-17
1.36069e-13
-1.45139e-12
-8.98037e-09
-6.33017e-12
-9.43916e-09
-1.05358e-08
-8.25106e-19
2.33298e-18
1.46104e-18
-1.56911e-18
-2.64485e-19
-4.79286e-18
2.73911e-18
5.52091e-18
5.04079e-18
4.19432e-20
0
-2.80975e-18
-1.74526e-18
-4.44192e-20
7.14815e-18
6.87493e-18
0
2.28181e-18
1.2242e-17
8.71954e-19
4.34681e-20
0
7.56385e-18
8.14956e-18
-1.11913e-17
-8.20785e-18
6.99661e-18
1.0513e-34
-8.9e-18
-3.71623e-18
0
2.48212e-18
-2.92689e-18
-2.73415e-18
4.65161e-20
1.18641e-19
-4.34447e-20
9.63827e-18
2.01307e-18
-3.03403e-18
-5.48453e-18
1.51683e-32
-3.7796e-20
-6.83308e-19
0
-9.50574e-19
1.54529e-16
4.24334e-20
-2.764e-18
-6.83215e-19
-4.51876e-18
-1.36147e-17
-4.18058e-20
-2.53991e-13
5.07991e-13
-6.03224e-10
0
9.80802e-09
0
-1.08852e-13
-4.3909e-20
-1.75074e-12
-3.99125e-13
0
-6.13027e-09
0
-1.07011e-08
-9.86881e-09
-8.94441e-34
-1.49307e-18
2.14164e-18
2.14966e-18
-2.03432e-17
2.72826e-20
2.26738e-19
8.78022e-20
-9.37456e-19
2.23721e-18
-3.49635e-18
7.9201e-19
-8.22564e-18
0
0
3.25275e-20
0
0
0
0
0
0
0
0
0
0
0
1.40089e-17
-1.65017e-34
9.53729e-20
3.09148e-18
1.12018e-17
3.82522e-19
-2.41814e-17
-5.1447e-18
3.37653e-34
1.60122e-17
1.12742e-17
1.23535e-17
-2.80461e-17
0
-1.87953e-17
-1.23369e-12
-2.25024e-10
5.43984e-18
-1.63282e-12
9.47215e-09
-8.24414e-18
1.28662e-17
-3.088e-18
6.24283e-18
8.86319e-18
-1.94195e-18
1.16487e-17
-2.71235e-18
0
2.72884e-18
-1.63677e-17
3.57625e-24
-5.22388e-25
-8.94954e-19
1.77856e-17
0
0
1.37171e-25
1.08847e-13
0
-9.5698e-09
7.31468e-34
7.40088e-34
-5.19691e-19
-1.28212e-18