/*--------------------------------*- C++ -*----------------------------------*\
| =========                 |                                                 |
| \\      /  F ield         | OpenFOAM: The Open Source CFD Toolbox           |
|  \\    /   O peration     | Version:  5.x                                   |
|   \\  /    A nd           | Web:      www.OpenFOAM.org                      |
|    \\/     M anipulation  |                                                 |
\*---------------------------------------------------------------------------*/
FoamFile
{
    version     2.0;
    format      ascii;
    class       volScalarField;
    location    "0.3";
    object      nut;
}
// * * * * * * * * * * * * * * * * * * * * * * * * * * * * * * * * * * * * * //

dimensions      [0 2 -1 0 0 0 0];

internalField   nonuniform List<scalar> 
12160
(
1.14239e-09
1.11838e-09
2.01177e-08
1.55864e-09
1.01041e-08
2.08223e-08
1.67369e-09
8.01332e-09
1.14132e-08
1.61301e-08
2.37495e-09
1.00763e-08
8.58577e-09
9.08202e-09
1.43971e-08
2.8601e-09
9.76276e-09
1.0313e-08
7.49048e-09
1.06994e-08
1.22024e-08
3.97803e-09
1.31262e-08
9.94988e-09
8.99062e-09
8.30196e-09
8.45726e-09
1.00797e-08
5.1939e-09
1.49662e-08
1.33313e-08
9.13189e-09
9.2771e-09
7.68372e-09
7.47281e-09
9.18587e-09
7.04445e-09
2.02623e-08
1.51806e-08
1.21814e-08
9.51274e-09
7.94571e-09
6.91299e-09
4.95349e-09
1.17995e-09
9.54394e-09
2.55251e-08
2.04401e-08
1.4264e-08
1.26788e-08
8.37648e-09
8.05737e-09
6.03231e-09
2.05592e-09
1.14878e-09
1.29951e-08
3.38864e-08
2.57747e-08
1.91209e-08
1.50547e-08
1.06803e-08
9.20465e-09
4.84068e-09
1.75891e-09
2.12078e-09
1.3611e-09
1.77225e-08
4.49413e-08
3.41652e-08
2.44468e-08
2.0102e-08
1.28995e-08
1.2433e-08
5.91273e-09
1.27952e-09
5.95833e-09
1.03777e-09
3.22496e-09
2.41845e-08
6.01226e-08
4.52819e-08
3.25291e-08
2.58356e-08
1.6962e-08
1.51758e-08
5.36272e-09
1.67526e-09
3.56169e-09
1.14074e-09
2.38288e-09
3.38662e-09
3.2994e-08
8.06918e-08
6.05402e-08
4.33224e-08
3.43862e-08
2.20373e-08
1.95164e-08
5.3959e-09
2.14569e-09
2.47835e-09
9.69624e-10
3.2207e-09
2.93257e-09
7.23432e-09
4.49719e-08
1.08506e-07
8.12065e-08
5.81267e-08
4.58295e-08
2.93781e-08
2.49892e-08
5.067e-09
3.51835e-09
2.53749e-09
1.27075e-09
2.77273e-09
3.83069e-09
2.81644e-09
2.56111e-08
6.12455e-08
1.4593e-07
1.09146e-07
7.82004e-08
6.1496e-08
3.93309e-08
3.26173e-08
4.90144e-09
5.58943e-09
2.91275e-09
1.66886e-09
4.69333e-09
7.1246e-09
4.43247e-09
3.9539e-09
8.33156e-08
1.96059e-07
1.46741e-07
1.05366e-07
8.27216e-08
5.29586e-08
4.29722e-08
4.79713e-09
9.29039e-09
3.69585e-09
2.66151e-09
6.33472e-09
1.22797e-08
8.00334e-09
6.66776e-09
1.13424e-07
2.62564e-07
1.97146e-07
1.41969e-07
1.11441e-07
7.14705e-08
5.70423e-08
4.76167e-09
1.42593e-08
4.22664e-09
4.3291e-09
9.19657e-09
1.23724e-08
1.83298e-08
1.24135e-08
1.38619e-07
3.50058e-07
2.64201e-07
1.9114e-07
1.50167e-07
9.65555e-08
7.6103e-08
4.78211e-09
2.02293e-08
4.56006e-09
7.37187e-09
1.16125e-08
1.17717e-08
1.46696e-08
4.94475e-08
1.38619e-07
4.63562e-07
3.5274e-07
2.56769e-07
2.02292e-07
1.30423e-07
1.0187e-07
4.8556e-09
2.63485e-08
4.67575e-09
1.20311e-08
1.4388e-08
1.22146e-08
1.27502e-08
2.20888e-08
1.38619e-07
6.06263e-07
4.68402e-07
3.43829e-07
2.72146e-07
1.76022e-07
1.3663e-07
4.98446e-09
3.16421e-08
4.74654e-09
1.86826e-08
1.834e-08
1.4842e-08
1.27201e-08
1.78277e-08
1.38619e-07
7.76206e-07
6.15307e-07
4.58571e-07
3.65498e-07
2.37113e-07
1.83492e-07
5.1775e-09
3.48517e-08
4.83416e-09
2.75952e-08
2.44253e-08
1.88278e-08
1.52288e-08
1.73648e-08
1.38619e-07
9.6427e-07
7.94527e-07
6.06343e-07
4.90221e-07
3.18628e-07
2.46609e-07
5.45305e-09
3.55609e-08
4.96569e-09
3.97327e-08
3.32383e-08
2.49427e-08
1.91169e-08
2.06035e-08
1.38619e-07
1.14233e-06
9.99337e-07
7.9186e-07
6.55428e-07
4.27267e-07
3.31864e-07
5.83909e-09
3.41208e-08
5.15722e-09
5.67898e-08
4.54049e-08
3.40183e-08
2.51827e-08
2.56952e-08
1.38619e-07
1.27117e-06
1.202e-06
1.01292e-06
8.73174e-07
5.7027e-07
4.48196e-07
6.38872e-09
3.1563e-08
5.42651e-09
8.10808e-08
6.14224e-08
4.71834e-08
3.41597e-08
3.37421e-08
1.38619e-07
1.30861e-06
1.3541e-06
1.24545e-06
1.15466e-06
7.56802e-07
6.0989e-07
7.17296e-09
2.82059e-08
5.81444e-09
1.15406e-07
8.16109e-08
6.64817e-08
4.74053e-08
4.56812e-08
1.38619e-07
1.24135e-06
1.39755e-06
1.432e-06
1.49111e-06
9.92574e-07
8.41142e-07
8.3018e-09
2.59297e-08
6.36404e-09
1.62936e-07
1.05403e-07
9.54474e-08
6.69285e-08
6.33417e-08
1.38619e-07
1.09661e-06
1.31494e-06
1.48994e-06
1.80677e-06
1.26646e-06
1.1899e-06
1.00406e-08
2.37018e-08
7.14551e-09
1.92604e-07
1.30751e-07
1.4179e-07
9.53724e-08
8.95352e-08
1.38619e-07
9.20672e-07
1.14551e-06
1.38938e-06
1.92194e-06
1.5111e-06
1.75447e-06
1.28763e-08
2.22001e-08
8.27045e-09
1.93967e-07
1.50879e-07
2.17369e-07
1.38541e-07
1.28644e-07
1.38619e-07
7.47751e-07
9.48864e-07
1.18839e-06
1.7382e-06
1.59881e-06
2.66133e-06
1.81496e-08
2.12469e-08
9.97589e-09
1.60455e-07
1.66393e-07
3.12932e-07
2.01945e-07
1.91144e-07
1.38619e-07
5.9668e-07
7.63017e-07
9.66757e-07
1.41083e-06
1.46288e-06
3.2273e-06
3.08554e-08
2.07631e-08
1.27284e-08
1.41378e-07
1.77801e-07
4.00315e-07
2.86671e-07
2.95074e-07
1.29452e-07
4.72144e-07
6.04717e-07
7.66748e-07
1.09752e-06
1.20825e-06
2.39959e-06
1.00541e-07
2.04907e-08
1.7748e-08
1.28206e-07
1.86261e-07
4.01871e-07
3.97974e-07
4.70523e-07
1.00266e-07
3.72581e-07
4.76359e-07
6.01946e-07
8.44407e-07
9.52333e-07
1.58792e-06
8.03523e-08
2.04604e-08
2.90589e-08
1.2378e-07
1.93709e-07
3.98596e-07
5.43201e-07
7.98377e-07
7.83105e-08
2.9412e-07
3.7475e-07
4.71134e-07
6.50484e-07
7.38819e-07
1.10108e-06
2.96179e-08
2.06324e-08
6.54461e-08
1.19446e-07
1.99894e-07
3.9898e-07
7.02237e-07
1.46515e-06
6.15875e-08
2.32685e-07
2.95226e-07
3.68999e-07
5.03311e-07
5.71761e-07
7.97486e-07
1.85177e-08
2.10899e-08
5.87029e-08
1.18902e-07
2.05261e-07
4.19934e-07
8.83391e-07
2.72622e-06
4.87351e-08
1.84737e-07
2.33274e-07
2.89798e-07
3.91537e-07
4.43516e-07
5.94968e-07
1.37267e-08
2.18862e-08
2.80342e-08
1.19816e-07
2.08501e-07
4.38298e-07
1.08945e-06
4.60496e-06
3.87786e-08
1.47239e-07
1.85076e-07
2.28469e-07
3.06307e-07
3.45417e-07
4.52564e-07
1.10907e-08
2.29831e-08
1.8136e-08
1.23869e-07
2.09358e-07
4.61368e-07
1.32239e-06
6.50685e-06
3.10314e-08
1.17964e-07
1.47465e-07
1.80961e-07
2.41002e-07
2.70313e-07
3.48849e-07
9.45348e-09
2.4409e-08
1.35897e-08
1.31942e-07
2.07891e-07
4.82208e-07
1.50845e-06
8.16805e-06
2.49483e-08
9.48432e-08
1.18122e-07
1.44014e-07
1.90709e-07
2.12637e-07
2.7164e-07
8.36326e-09
2.6225e-08
1.10295e-08
1.45047e-07
2.03792e-07
5.03277e-07
1.61809e-06
9.99955e-06
2.01878e-08
7.69905e-08
9.49793e-08
1.15226e-07
1.51737e-07
1.68173e-07
2.13311e-07
7.60335e-09
2.84095e-08
9.42436e-09
1.64405e-07
1.97699e-07
5.32933e-07
1.59801e-06
9.99976e-06
6.17682e-08
1.44156e-08
7.70652e-08
9.25861e-08
1.21414e-07
1.3372e-07
1.68744e-07
7.06002e-09
3.08989e-08
8.35109e-09
1.88126e-07
1.89198e-07
5.61881e-07
1.38103e-06
9.99941e-06
6.19155e-08
4.49898e-08
9.31974e-09
7.5002e-08
9.76187e-08
1.06893e-07
1.34376e-07
6.66881e-09
3.35318e-08
7.59676e-09
2.05955e-07
1.78255e-07
5.7661e-07
1.05612e-06
5.88694e-06
6.0361e-08
4.50571e-08
2.95946e-08
6.18161e-09
7.90749e-08
8.58842e-08
1.0767e-07
6.38773e-09
3.5896e-08
7.05257e-09
1.97019e-07
1.62955e-07
4.98787e-07
7.42354e-07
2.38129e-06
6.3793e-08
4.38418e-08
2.96459e-08
1.98436e-08
4.25138e-09
6.94168e-08
8.67912e-08
6.18813e-09
3.75173e-08
6.66312e-09
1.61167e-07
1.44949e-07
3.75856e-07
5.1012e-07
1.32437e-06
5.61196e-08
4.62555e-08
2.87831e-08
1.99182e-08
1.38036e-08
3.01423e-09
7.02769e-08
6.0545e-09
3.81189e-08
6.39292e-09
1.22912e-07
1.24002e-07
2.67519e-07
3.47916e-07
8.03828e-07
5.73419e-08
4.07243e-08
3.04693e-08
1.9363e-08
1.38987e-08
9.79177e-09
2.18836e-09
5.97417e-09
3.76432e-08
6.20502e-09
9.34279e-08
1.03238e-07
1.88662e-07
2.46329e-07
5.1432e-07
5.94702e-09
4.17162e-08
2.6669e-08
2.05748e-08
1.3561e-08
9.93651e-09
7.11844e-09
1.61946e-09
3.54787e-08
6.07506e-09
7.17175e-08
8.44628e-08
1.36945e-07
1.78954e-07
3.51298e-07
2.85288e-08
5.83065e-09
2.78225e-08
1.80485e-08
1.44886e-08
9.79965e-09
7.25747e-09
4.87311e-09
1.23857e-09
5.89932e-09
5.50315e-08
6.91864e-08
1.0195e-07
1.33028e-07
2.51432e-07
5.91071e-09
2.61573e-08
6.10189e-09
1.92152e-08
1.2795e-08
1.05642e-08
7.26409e-09
5.15201e-09
3.40684e-09
1.00218e-09
4.31153e-08
5.63087e-08
7.86122e-08
1.00506e-07
1.8201e-07
3.62688e-08
5.78926e-09
1.73404e-08
6.5675e-09
1.3946e-08
9.47918e-09
7.92729e-09
5.45626e-09
3.59932e-09
2.24725e-09
1.03997e-09
4.6088e-08
6.13982e-08
7.82904e-08
1.35572e-07
3.87462e-08
2.42179e-08
5.7483e-09
1.15157e-08
7.41951e-09
1.05903e-08
7.32705e-09
6.10687e-09
4.01776e-09
2.31521e-09
9.96921e-10
1.11704e-09
4.93372e-08
6.1517e-08
1.04521e-07
4.03913e-08
2.8284e-08
1.5287e-08
5.50931e-09
7.39102e-09
8.88796e-09
8.39562e-09
5.91162e-09
4.63773e-09
3.24074e-09
1.19212e-09
9.67066e-10
1.47734e-09
5.29353e-10
4.96109e-08
8.18443e-08
4.03389e-08
2.91453e-08
1.95411e-08
9.27534e-09
4.95818e-09
5.06203e-09
1.14409e-08
6.93377e-09
4.85885e-09
3.89294e-09
1.73891e-09
1.13996e-09
1.32297e-09
3.07072e-09
2.02438e-09
4.70112e-10
6.60562e-08
5.36371e-08
2.92147e-08
2.03295e-08
1.46075e-08
5.66299e-09
4.44973e-09
3.85638e-09
1.60308e-08
5.87884e-09
4.33765e-09
2.51424e-09
1.5422e-09
1.54545e-09
2.52326e-09
4.52195e-09
5.96297e-09
3.44426e-09
4.91998e-10
3.90407e-08
2.05123e-08
1.53409e-08
1.19506e-08
3.71885e-09
4.3286e-09
3.44531e-09
2.36897e-08
5.28707e-09
3.39845e-09
2.13851e-09
2.19188e-09
2.38937e-09
2.50297e-09
2.61846e-09
1.45944e-08
8.06644e-09
3.79708e-09
5.25452e-10
2.75912e-08
1.56108e-08
1.27963e-08
1.03355e-08
2.72252e-09
4.64136e-09
3.59986e-09
2.13185e-08
4.51415e-09
3.1252e-09
2.62655e-09
2.64061e-09
2.19222e-09
2.52497e-09
4.4676e-09
4.76298e-09
1.13923e-08
5.20111e-09
3.42695e-09
5.64104e-10
2.10771e-08
1.31859e-08
1.19946e-08
9.28107e-09
2.2903e-09
4.89928e-09
4.40523e-09
1.21075e-08
4.0964e-09
3.47031e-09
2.73048e-09
2.30904e-09
3.26092e-09
1.83654e-09
9.42054e-10
2.48783e-09
5.36547e-09
5.85447e-09
3.95323e-09
3.23596e-09
6.1184e-10
1.78338e-08
1.25269e-08
1.25905e-08
8.46326e-09
2.19401e-09
4.45703e-09
5.97032e-09
7.47711e-09
4.14178e-09
3.45626e-09
2.35207e-09
3.38481e-09
1.47444e-09
3.92071e-09
1.1559e-09
2.0888e-09
1.11568e-09
7.45031e-10
7.59571e-10
3.94548e-09
4.32637e-09
3.87227e-09
3.35228e-09
3.01585e-09
6.71383e-10
1.70243e-08
1.34219e-08
1.44641e-08
7.8796e-09
2.2734e-09
3.75204e-09
7.28299e-09
6.09036e-09
3.80042e-09
2.89642e-09
2.60644e-09
1.58826e-09
3.17679e-09
1.47036e-09
9.63281e-10
9.13886e-10
1.40389e-09
9.60324e-10
5.10445e-10
5.21324e-10
1.20329e-09
1.23876e-09
1.3385e-09
4.17397e-09
2.98701e-09
3.19201e-09
3.04764e-09
2.85926e-09
7.46981e-10
1.85166e-08
1.62727e-08
1.72291e-08
7.77891e-09
2.40973e-09
3.15257e-09
6.88059e-09
4.98066e-09
3.21786e-09
2.53063e-09
1.73696e-09
5.6262e-09
1.03834e-09
1.28603e-09
1.28825e-09
1.02847e-09
1.01462e-09
1.15592e-09
1.53566e-09
2.32134e-09
1.1181e-09
1.22234e-09
1.20099e-09
1.19716e-09
1.57289e-09
1.68259e-09
1.65835e-09
3.31112e-09
2.58554e-09
2.90321e-09
2.82103e-09
2.73457e-09
8.44731e-10
2.34084e-08
2.20984e-08
1.95914e-08
7.25751e-09
2.47732e-09
3.03033e-09
6.15661e-09
4.04039e-09
2.39273e-09
1.97341e-09
2.18788e-09
9.61961e-10
1.10228e-09
1.04928e-09
1.10425e-09
1.04298e-09
1.44805e-09
1.43582e-09
1.41811e-09
1.38815e-09
1.52343e-09
9.38141e-10
9.80462e-10
8.60441e-10
9.74935e-10
2.09579e-09
8.93499e-10
1.33675e-09
1.37693e-09
1.43491e-09
1.475e-09
1.59691e-09
1.45845e-09
1.53342e-09
9.11589e-10
9.64211e-10
8.55947e-10
9.63275e-10
8.94366e-10
9.90347e-10
7.64827e-10
9.20693e-10
9.12156e-10
1.01732e-09
7.65567e-10
8.95585e-10
2.71234e-09
2.71199e-09
2.69849e-09
2.66854e-09
2.65238e-09
9.73421e-10
3.67364e-08
2.99527e-08
1.38466e-08
7.60958e-09
2.53861e-09
2.73007e-09
4.95317e-09
2.92279e-09
2.122e-09
1.39567e-09
1.04223e-09
1.13621e-09
1.09421e-09
1.04046e-09
1.0462e-09
1.49799e-09
1.45087e-09
1.45396e-09
1.40105e-09
1.09586e-09
1.18244e-09
1.1513e-09
9.84009e-10
1.06055e-09
9.62283e-10
1.24521e-09
1.08779e-09
1.15717e-09
9.57514e-10
1.05792e-09
9.37743e-10
9.46098e-10
9.88521e-10
9.42842e-10
9.81244e-10
9.16616e-10
9.84078e-10
9.16671e-10
9.73521e-10
8.39432e-10
9.87539e-10
7.95888e-10
1.10179e-09
2.2052e-09
1.01502e-09
2.5113e-09
1.10701e-09
1.84757e-09
1.30629e-09
1.13605e-09
1.11673e-09
1.17929e-09
1.198e-09
1.90542e-09
1.90905e-09
1.67592e-09
1.69096e-09
8.53344e-10
9.67637e-10
8.23774e-10
1.08102e-09
8.12797e-10
1.20778e-09
6.45917e-10
1.0099e-09
8.00958e-10
1.26719e-09
6.78762e-10
1.01782e-09
2.08069e-09
1.01869e-09
2.17917e-09
1.09143e-09
1.6818e-09
9.82222e-10
1.73009e-09
9.70843e-10
3.14705e-09
2.47036e-09
2.52964e-09
2.5857e-09
2.60304e-09
1.14649e-09
8.31922e-08
1.84072e-08
1.0736e-08
5.96983e-09
2.52608e-09
2.30884e-09
3.41213e-09
2.45627e-09
1.06234e-09
1.00132e-09
1.03037e-09
1.04191e-09
7.28504e-10
7.38836e-10
1.38217e-09
1.3251e-09
1.41538e-09
1.35484e-09
9.45602e-10
1.01794e-09
9.24832e-10
1.01603e-09
9.21693e-10
1.0193e-09
9.08435e-10
1.02007e-09
9.34507e-10
9.60713e-10
9.24115e-10
9.8846e-10
9.29571e-10
9.67027e-10
9.14603e-10
9.91497e-10
1.11484e-09
8.20804e-10
1.49882e-09
1.54671e-09
9.38165e-10
1.883e-09
1.10753e-09
8.21285e-10
1.59828e-09
1.54677e-09
9.28385e-10
2.03208e-09
8.64504e-10
2.33124e-09
9.31939e-10
2.13211e-09
8.37519e-10
2.42395e-09
9.06418e-10
2.35811e-09
2.30388e-09
9.27865e-10
2.2059e-09
1.02503e-09
4.51249e-09
1.17775e-09
5.0802e-09
1.23239e-09
2.76426e-09
1.23286e-09
1.28986e-09
1.20688e-09
1.2846e-09
1.21734e-09
1.72836e-09
1.67976e-09
1.87059e-09
1.84842e-09
9.999e-10
1.1169e-09
1.00555e-09
1.1788e-09
9.90307e-10
1.11276e-09
9.96282e-10
1.16067e-09
9.12019e-10
1.47785e-09
1.67257e-09
9.11163e-10
1.25957e-09
9.42605e-10
9.02044e-10
1.59439e-09
1.57832e-09
8.98534e-10
1.2267e-09
9.64492e-10
2.04139e-09
9.40059e-10
2.02538e-09
1.02641e-09
1.82936e-09
8.62181e-10
1.74414e-09
8.84216e-10
5.67502e-09
1.15469e-09
6.00186e-09
1.18076e-09
3.03087e-09
1.22033e-09
3.14229e-09
1.17506e-09
2.30639e-09
2.31505e-09
2.46557e-09
2.55111e-09
2.57556e-09
1.38407e-09
3.73582e-08
1.12329e-08
6.90721e-09
5.80499e-09
2.34051e-09
1.55523e-09
2.47217e-09
1.43927e-09
9.81098e-10
6.39173e-10
6.50042e-10
4.80222e-10
4.87858e-10
8.73048e-10
8.77742e-10
8.50155e-10
8.50907e-10
9.26822e-10
9.04474e-10
8.99776e-10
9.16493e-10
9.2955e-10
9.11186e-10
9.08097e-10
9.22981e-10
8.79961e-10
1.10255e-09
9.27114e-10
8.98008e-10
9.19926e-10
1.07765e-09
9.41031e-10
9.08494e-10
7.88265e-10
2.47624e-09
7.61067e-10
2.23325e-09
7.75408e-10
2.74387e-09
7.51682e-10
2.3649e-09
8.72047e-10
2.16265e-09
7.7936e-10
2.20063e-09
8.80931e-10
2.41953e-09
7.81119e-10
2.26079e-09
3.03999e-09
1.1169e-09
4.17844e-09
1.08331e-09
2.17243e-09
1.20901e-09
1.23449e-09
1.22731e-09
1.3527e-09
1.26732e-09
1.74206e-09
1.66798e-09
1.68148e-09
1.61973e-09
1.02966e-09
8.75809e-10
1.04475e-09
9.72818e-10
1.06656e-09
9.00001e-10
1.07316e-09
9.84146e-10
1.01083e-09
1.07966e-09
1.03813e-09
1.04298e-09
1.02382e-09
1.09189e-09
1.06304e-09
1.05564e-09
1.07417e-09
2.08819e-09
1.01526e-09
2.2235e-09
1.06614e-09
2.06148e-09
1.00555e-09
2.20532e-09
1.02869e-09
8.94871e-10
2.0415e-09
1.91086e-09
9.08033e-10
2.48159e-09
1.0205e-09
8.71348e-10
1.9688e-09
1.82242e-09
9.05029e-10
2.47348e-09
3.01867e-09
1.11088e-09
4.33246e-09
1.08018e-09
2.92178e-09
8.79637e-10
2.76357e-09
9.07429e-10
2.0152e-09
2.29458e-09
2.46981e-09
2.53866e-09
2.56288e-09
1.71071e-09
1.63558e-08
8.08974e-09
5.09058e-09
4.42829e-09
1.93403e-09
9.71775e-10
1.2921e-09
1.19255e-09
1.01843e-09
8.27382e-10
8.24415e-10
6.48566e-10
6.49019e-10
1.36105e-09
1.37691e-09
1.26958e-09
1.29086e-09
9.0064e-10
1.97595e-09
9.62471e-10
1.87358e-09
9.13401e-10
2.13508e-09
9.8357e-10
1.93718e-09
9.45525e-10
1.26244e-09
9.76074e-10
1.56247e-09
9.99516e-10
1.19992e-09
1.00649e-09
1.533e-09
9.82211e-10
2.28795e-09
9.76507e-10
2.22358e-09
1.51943e-09
2.60643e-09
6.27089e-10
6.41242e-10
1.29795e-09
1.33763e-09
1.45342e-09
1.45632e-09
2.06921e-09
1.89975e-09
5.36335e-09
8.36536e-10
1.4612e-09
9.21382e-10
3.24204e-09
8.2881e-10
1.38071e-09
8.98815e-10
1.09643e-09
8.51803e-10
1.32298e-09
8.87264e-10
1.12922e-09
8.66998e-10
1.37517e-09
8.8444e-10
1.02122e-09
2.8357e-09
1.07113e-09
2.19788e-09
1.0074e-09
4.2028e-09
1.06985e-09
2.31361e-09
1.10719e-09
2.00814e-09
1.10742e-09
1.95541e-09
1.09671e-09
2.02416e-09
1.09298e-09
2.05057e-09
2.03091e-09
2.36453e-09
2.48517e-09
2.53978e-09
2.55858e-09
2.12681e-09
1.29481e-08
5.17113e-09
3.83784e-09
3.13174e-09
9.82421e-10
5.58842e-10
9.16938e-10
2.23613e-09
8.34228e-10
8.42846e-10
1.09862e-09
1.10559e-09
1.1924e-09
1.21548e-09
8.49488e-10
8.76598e-10
1.00709e-09
9.35859e-10
1.01396e-09
8.95526e-10
1.01284e-09
9.39002e-10
1.02731e-09
8.98413e-10
9.50209e-10
9.24954e-10
9.10881e-10
9.35222e-10
9.57917e-10
9.24727e-10
9.40641e-10
9.34973e-10
1.17264e-09
2.24311e-09
1.21404e-09
2.65433e-09
1.17775e-09
2.443e-09
1.21704e-09
2.84042e-09
9.61792e-10
1.41377e-09
1.10979e-09
1.87854e-09
9.69438e-10
1.4646e-09
1.11002e-09
1.95315e-09
1.69954e-09
1.31213e-09
1.57324e-09
9.37437e-10
9.69924e-10
1.09203e-09
1.11501e-09
2.338e-09
2.42935e-09
1.92065e-09
1.8842e-09
2.0299e-09
1.03137e-09
1.27351e-09
2.10178e-09
2.84685e-09
1.10199e-09
1.17085e-09
2.15933e-09
1.14146e-09
2.65024e-09
1.5098e-09
2.85562e-09
1.09968e-09
3.58266e-09
1.46814e-09
3.49383e-09
1.34069e-09
2.40182e-09
1.25647e-09
2.83577e-09
2.23397e-09
2.42131e-09
2.50964e-09
2.54632e-09
2.55885e-09
2.55025e-09
7.33642e-09
5.13991e-09
2.96572e-09
1.69367e-09
2.07676e-09
1.95266e-09
1.44549e-08
4.19335e-08
1.37706e-09
1.35113e-09
1.59516e-09
1.61486e-09
9.47066e-10
9.15255e-10
1.1499e-09
9.09413e-10
9.50378e-10
9.32109e-10
1.13871e-09
9.08358e-10
1.40389e-09
1.39897e-09
1.8704e-09
7.79515e-10
1.94301e-09
8.00512e-10
1.8566e-09
7.85429e-10
1.98768e-09
8.06952e-10
2.04253e-09
9.23804e-10
1.81843e-09
8.94632e-10
2.07138e-09
9.3296e-10
1.82664e-09
8.99788e-10
7.8507e-10
2.11003e-09
7.91821e-10
2.23581e-09
2.04683e-09
1.51249e-09
1.94465e-09
1.50264e-09
1.32702e-09
1.37075e-09
1.38851e-09
1.20308e-09
1.23511e-09
2.00565e-09
1.99815e-09
8.83117e-10
1.21492e-09
7.86421e-10
1.07632e-09
8.88916e-10
1.15978e-09
8.07878e-10
1.02705e-09
1.05274e-09
8.46949e-10
1.4487e-09
9.8601e-10
1.09724e-09
8.81209e-10
1.76086e-09
9.84478e-10
8.68918e-10
3.1093e-09
1.08922e-09
2.40894e-09
8.97671e-10
2.71894e-09
1.11807e-09
2.3869e-09
1.58869e-09
2.79483e-09
1.63882e-09
2.957e-09
1.44795e-09
3.37265e-09
1.62967e-09
3.52898e-09
2.35904e-09
2.47939e-09
2.5336e-09
2.55387e-09
1.95172e-09
6.98906e-09
3.59942e-09
2.01665e-09
6.55649e-10
1.43263e-09
1.16689e-09
1.42791e-07
6.94189e-09
7.6174e-09
2.15345e-08
2.3436e-08
1.30627e-09
1.62218e-09
1.54424e-09
2.70907e-09
1.32252e-09
1.73611e-09
1.60177e-09
2.89772e-09
3.54081e-09
3.82367e-09
9.56457e-10
1.72642e-09
1.36263e-09
8.99577e-10
9.63938e-10
1.6845e-09
1.3532e-09
8.98269e-10
1.14702e-09
1.37039e-09
1.08035e-09
1.19012e-09
1.13645e-09
1.46265e-09
1.07152e-09
1.20771e-09
1.98711e-09
1.00629e-09
2.4589e-09
9.33586e-10
2.0285e-09
1.00557e-09
2.50698e-09
9.33231e-10
2.33661e-09
1.8904e-09
1.38982e-09
1.21585e-08
1.61477e-09
1.50745e-09
1.82282e-09
1.80921e-09
2.06404e-09
2.17606e-09
1.21329e-09
6.20827e-10
5.51525e-10
1.85842e-09
1.16038e-09
6.35103e-10
5.60875e-10
1.64695e-09
3.37274e-09
1.04031e-09
1.95806e-09
1.01099e-09
3.55883e-09
1.01723e-09
1.92395e-09
1.01348e-09
1.85707e-09
9.95777e-10
2.17467e-09
1.16071e-09
1.85681e-09
1.05335e-09
2.09921e-09
1.18733e-09
9.28359e-10
2.2688e-09
9.98135e-10
1.96539e-09
2.4604e-09
2.52812e-09
2.55216e-09
1.47911e-09
4.54043e-09
3.97376e-09
3.91368e-09
2.63963e-09
1.66942e-09
4.70791e-09
2.22939e-09
2.30412e-09
2.6305e-10
2.63211e-10
1.17732e-08
1.35007e-08
3.13255e-08
3.48957e-08
1.26378e-09
3.24685e-09
1.48393e-09
3.20429e-09
1.31776e-09
3.42553e-09
1.56963e-09
3.40782e-09
4.46293e-09
4.17213e-09
8.91013e-09
2.53986e-09
5.24858e-09
4.61104e-09
1.09202e-08
2.81947e-09
9.96999e-10
1.97088e-09
1.49965e-09
1.02005e-09
9.93146e-10
1.97471e-09
1.51801e-09
1.01231e-09
1.11147e-09
3.69345e-09
9.79362e-10
2.84743e-09
1.13485e-09
4.26686e-09
9.92144e-10
3.02207e-09
2.48448e-09
2.46459e-09
2.22082e-09
1.45052e-09
1.91725e-09
1.8289e-09
1.90641e-09
1.88155e-09
1.6364e-09
1.6188e-09
8.90157e-10
7.13508e-10
1.61111e-09
6.50367e-10
9.53839e-10
7.52181e-10
1.5604e-09
6.69724e-10
1.11951e-09
7.03691e-10
1.22301e-09
9.05655e-10
2.11571e-09
7.82596e-10
1.11897e-09
7.25956e-10
1.19828e-09
9.80054e-10
2.05906e-09
7.815e-10
1.08534e-09
1.33101e-09
1.00427e-09
1.25995e-09
2.21397e-09
1.35164e-09
2.93318e-09
1.8049e-09
2.44636e-09
1.36054e-09
2.93763e-09
1.92988e-09
2.54312e-09
2.56093e-09
1.15556e-09
4.43745e-09
2.80121e-09
1.30855e-09
2.56341e-09
2.3184e-09
2.79717e-09
3.08007e-09
3.2289e-09
3.37689e-10
3.37779e-10
5.82961e-09
4.23612e-09
2.11614e-08
7.29938e-09
3.57776e-08
1.74806e-08
4.89576e-09
6.61441e-09
2.13797e-08
2.30669e-08
7.88382e-09
4.54828e-08
1.78181e-08
5.881e-08
1.3556e-08
5.83519e-08
1.83995e-08
6.91331e-08
1.44724e-08
8.64089e-08
1.4498e-09
3.8694e-09
1.81942e-09
4.0321e-09
1.5351e-09
4.40549e-09
1.95626e-09
4.69445e-09
1.24578e-08
3.19171e-09
1.47194e-08
3.64282e-09
2.74746e-09
8.70912e-10
2.86731e-09
8.74414e-10
1.29451e-09
4.11141e-09
1.34263e-09
4.81022e-09
2.60578e-09
2.63077e-09
3.78406e-09
1.50697e-09
1.87835e-09
1.76352e-09
1.38321e-09
1.30114e-09
1.69756e-09
1.6779e-09
1.46403e-09
1.48294e-09
1.13482e-09
1.81726e-09
8.19826e-10
8.24538e-10
9.89044e-10
2.93769e-09
1.34406e-09
1.88471e-09
8.45697e-10
9.01407e-10
9.98544e-10
2.81972e-09
8.59463e-10
1.6005e-09
8.59839e-10
1.77582e-09
1.06303e-09
2.62211e-09
1.01059e-09
1.49304e-09
1.98064e-09
2.18269e-09
1.05266e-09
3.23673e-09
1.02562e-09
1.38058e-09
2.07608e-09
2.0635e-09
1.09323e-09
2.28399e-09
1.03889e-09
2.21187e-09
2.59047e-09
9.3809e-10
8.73641e-09
1.03771e-08
4.75189e-09
1.65576e-09
1.42153e-09
1.7624e-09
2.47849e-09
1.1684e-09
1.56322e-09
2.00762e-09
2.07162e-09
4.29988e-10
4.29789e-10
4.01211e-09
1.06321e-08
2.55297e-08
1.25154e-08
1.4264e-08
3.34612e-08
4.4883e-09
1.07057e-08
1.45174e-08
2.34874e-08
1.37535e-08
3.39905e-08
1.03575e-08
1.89114e-08
2.29363e-08
4.63633e-08
1.41745e-08
1.50661e-08
2.13644e-08
5.45245e-08
2.4021e-09
7.91044e-09
2.69565e-09
9.01629e-09
2.65432e-09
2.76293e-09
2.93668e-09
4.12481e-09
2.74331e-09
1.25867e-09
1.22154e-09
2.22846e-09
2.10351e-09
4.94884e-09
7.13964e-10
1.68564e-09
9.19301e-10
6.43883e-09
7.31214e-10
1.81472e-09
9.5982e-10
1.02899e-09
1.55129e-09
1.15284e-09
1.21338e-09
9.26357e-10
9.35185e-10
1.20316e-09
1.83453e-09
1.23044e-09
1.38556e-09
1.01181e-09
1.07271e-09
1.45083e-09
2.24786e-09
8.54792e-10
1.07327e-09
1.52827e-09
2.78147e-09
9.84138e-10
1.19985e-09
1.1888e-09
1.8692e-09
1.06899e-09
2.58229e-09
1.79071e-09
2.54126e-09
1.57637e-09
3.37508e-09
2.19173e-09
3.27716e-09
1.48074e-09
2.56196e-09
7.86895e-10
9.77783e-09
2.4069e-09
1.96204e-09
1.04821e-09
1.0541e-09
2.08221e-09
3.23114e-09
2.23004e-09
3.2194e-09
1.30597e-09
1.03029e-09
3.73256e-09
1.71329e-09
1.17429e-09
1.13571e-09
3.12557e-09
2.08295e-09
6.54842e-10
6.6334e-10
2.92373e-09
4.5699e-09
2.95603e-08
1.25531e-08
2.09897e-09
4.83645e-09
3.70141e-08
1.67153e-08
6.78075e-10
2.75276e-09
2.99896e-09
4.20239e-09
1.06441e-09
9.83293e-10
9.72982e-10
1.6362e-09
1.6027e-09
1.40005e-09
1.4051e-09
2.93492e-09
2.97128e-09
2.31549e-09
8.41943e-10
2.23257e-09
1.99282e-09
2.92243e-09
8.61891e-10
2.12955e-09
2.18291e-09
7.85626e-10
1.12446e-09
1.20856e-09
1.79347e-09
9.46138e-10
1.67516e-09
8.80547e-10
1.20952e-09
1.90421e-09
1.32053e-09
1.00423e-09
1.82388e-09
2.00661e-09
1.213e-09
1.78373e-09
1.65475e-09
2.07459e-08
3.98682e-09
2.4371e-09
1.2758e-09
1.61307e-09
1.82007e-09
1.37972e-09
1.08724e-09
2.58279e-09
4.16217e-09
3.69205e-09
4.99633e-09
1.63658e-09
3.16287e-09
9.34321e-09
1.07622e-09
1.38346e-09
2.56782e-09
8.39e-09
1.08394e-09
3.6358e-10
1.91072e-09
3.87854e-10
2.21838e-09
4.53221e-10
2.14432e-09
4.29717e-10
2.85083e-09
2.84045e-08
3.73664e-08
1.59973e-08
4.20981e-08
5.97476e-10
2.83304e-09
3.06254e-09
2.50179e-09
2.26294e-09
1.25316e-09
1.26642e-09
1.4032e-09
1.42036e-09
1.73271e-09
1.7819e-09
7.77181e-10
3.62175e-09
9.26823e-10
4.91425e-09
8.05042e-10
2.92596e-09
9.42049e-10
5.04918e-09
1.58947e-09
2.23717e-09
2.18977e-09
2.30255e-09
1.58764e-09
2.88344e-09
1.61761e-09
2.53758e-09
2.56153e-09
3.97987e-09
1.71663e-09
6.67728e-10
1.70717e-08
1.6075e-08
4.15484e-09
2.27213e-09
5.02206e-10
1.01431e-09
1.83271e-09
2.40113e-09
1.98617e-09
3.75175e-09
1.24462e-09
1.26381e-09
4.60538e-09
1.94724e-08
5.80001e-09
5.3634e-09
9.07465e-09
1.13884e-08
1.98757e-09
2.31239e-09
7.36551e-09
7.1709e-10
1.87612e-09
2.4191e-09
6.8879e-09
7.89387e-10
4.0913e-10
1.37785e-09
5.23908e-10
1.63838e-09
5.35181e-10
2.85351e-09
3.30489e-09
9.90226e-10
8.77997e-10
8.73156e-10
1.54014e-09
1.53514e-09
1.24752e-09
1.29614e-09
2.12003e-09
2.20772e-09
2.42362e-09
6.90399e-10
6.44113e-10
9.44373e-10
1.08971e-09
8.3419e-10
2.79008e-09
7.45058e-10
7.2445e-10
1.13998e-09
1.45433e-09
1.02772e-09
1.13195e-09
1.43914e-09
1.32152e-09
1.56197e-09
3.81816e-09
2.3995e-09
3.45248e-09
1.80735e-09
3.12135e-09
1.99335e-09
1.01872e-09
1.09926e-09
5.72959e-10
7.27471e-10
6.61788e-10
6.38674e-09
6.47363e-09
8.27385e-09
5.73174e-09
8.26868e-10
1.4006e-09
2.41217e-09
3.57174e-09
3.03672e-09
5.68373e-09
3.7988e-09
1.95576e-09
1.01582e-08
1.00256e-08
1.03741e-08
7.16806e-09
4.38906e-09
2.02415e-09
6.93436e-09
3.26108e-09
6.16109e-09
2.63805e-09
8.1286e-09
7.3008e-09
4.84645e-10
2.72486e-09
2.35363e-09
2.97661e-09
1.25606e-09
1.24551e-09
2.07967e-09
2.08601e-09
2.07151e-09
2.1498e-09
2.57128e-09
9.51062e-10
6.79123e-10
9.97028e-10
9.59488e-10
2.12389e-09
6.75021e-10
9.52873e-10
9.42198e-10
2.24238e-09
2.6399e-09
1.00111e-09
1.07263e-09
6.57741e-10
8.53141e-10
1.00274e-09
1.33054e-09
7.48533e-10
9.45781e-10
1.00502e-09
6.77953e-10
1.02071e-09
7.96676e-10
9.69449e-10
2.67473e-09
1.35511e-09
8.89309e-10
8.64348e-10
7.05391e-10
4.39176e-10
4.13167e-10
3.02644e-09
3.09358e-09
1.47577e-09
5.69544e-09
2.62471e-09
2.19592e-09
5.59505e-09
5.09171e-09
1.12275e-09
3.66732e-09
1.63162e-09
3.18854e-09
6.09722e-09
5.45604e-09
3.62196e-09
3.7506e-09
9.56426e-09
9.89781e-09
5.15029e-09
6.769e-09
1.06879e-08
1.28491e-08
4.45211e-10
3.00243e-09
3.8634e-09
1.05664e-09
1.04253e-09
1.27989e-09
1.26111e-09
1.9504e-09
1.94831e-09
2.0763e-09
2.10584e-09
1.27453e-09
6.02492e-10
9.69139e-10
8.15083e-10
1.68518e-09
8.68045e-10
1.32646e-09
1.93483e-09
8.80027e-10
6.07814e-10
9.57261e-10
7.68874e-10
8.71409e-10
1.30363e-09
1.36073e-09
1.37352e-09
1.41133e-09
8.64693e-10
1.35783e-09
1.34015e-09
1.94333e-09
9.04413e-10
6.50732e-10
5.77065e-10
5.53142e-10
2.87837e-10
2.81217e-10
4.76767e-09
7.81916e-09
1.80461e-09
3.24454e-09
7.0287e-09
1.64724e-09
1.10249e-08
5.82405e-09
1.29751e-09
2.25901e-09
2.22223e-09
1.83196e-09
5.26168e-10
7.08194e-10
7.21915e-10
9.77424e-10
5.38112e-10
6.72012e-10
7.30818e-10
9.18455e-10
9.20613e-09
6.83942e-09
1.59652e-08
1.0248e-08
4.02553e-10
3.9676e-09
2.05526e-09
1.32636e-09
1.29246e-09
2.58659e-09
2.38965e-09
1.99206e-09
2.01552e-09
1.16911e-09
8.17182e-10
6.87818e-10
9.4677e-10
9.56715e-10
1.43977e-09
1.19101e-09
8.12775e-10
7.02228e-10
1.00709e-09
9.61923e-10
1.60585e-09
7.0981e-10
1.31983e-09
1.31918e-09
1.02312e-09
1.17453e-09
1.05952e-09
7.13762e-10
1.31584e-09
1.15297e-09
8.37007e-10
4.03905e-10
2.33186e-10
2.31679e-10
3.97615e-10
2.84968e-10
2.91241e-10
6.32239e-10
3.97703e-10
7.36989e-10
6.2701e-10
3.84185e-10
7.05382e-10
6.27061e-09
5.21178e-09
2.12234e-09
5.47485e-09
5.0081e-09
1.40083e-09
1.76344e-09
3.12998e-09
1.9921e-09
4.84821e-09
4.83683e-09
1.41951e-09
4.28859e-10
1.18976e-09
4.32754e-10
1.27073e-09
3.74179e-10
1.62485e-09
2.59272e-09
2.06297e-09
2.00554e-09
2.18758e-09
2.06199e-09
1.63053e-09
5.88773e-10
1.027e-09
8.28501e-10
1.73973e-09
8.25313e-10
2.0129e-09
1.93617e-09
8.47419e-10
5.95527e-10
1.16444e-09
8.25238e-10
9.20771e-10
1.64645e-09
9.3309e-10
2.22428e-09
9.49897e-10
1.65389e-09
9.80553e-10
2.48802e-09
7.02893e-10
1.29031e-09
7.28295e-10
1.36766e-09
1.489e-09
9.52929e-10
5.50033e-10
5.04672e-10
5.3786e-10
5.01451e-10
2.71187e-10
2.73717e-10
3.37968e-10
6.42397e-10
1.09154e-09
6.74026e-10
8.60494e-10
7.47431e-10
3.61391e-10
6.35338e-10
6.55883e-10
3.43064e-10
1.07222e-09
6.44158e-10
8.06494e-10
7.42005e-10
3.60356e-10
6.25064e-10
1.99697e-09
6.81759e-10
2.29987e-09
7.00562e-10
3.96905e-10
1.08914e-09
4.0094e-10
1.12791e-09
3.8975e-10
1.17371e-09
1.48634e-09
1.58593e-09
1.55691e-09
1.37217e-09
1.20282e-09
1.18058e-09
1.46241e-09
1.41694e-09
7.58737e-10
1.45136e-09
1.45029e-09
7.60678e-10
1.5936e-09
1.15446e-09
2.20948e-09
1.45923e-09
1.82284e-09
2.28964e-09
1.4396e-09
1.7434e-09
9.81647e-10
1.61775e-09
9.94494e-10
2.76953e-09
9.91553e-10
1.69115e-09
1.05229e-09
2.91838e-09
2.95155e-09
1.82112e-09
8.07829e-10
7.68363e-10
3.89804e-10
5.19142e-10
7.81675e-10
6.45813e-10
3.5376e-10
5.19091e-10
4.73328e-10
4.65304e-10
3.56942e-10
3.37842e-10
3.9981e-10
1.02103e-09
9.16928e-10
1.26185e-09
3.66958e-10
4.02046e-10
3.33283e-10
9.89134e-10
9.37833e-10
1.16909e-09
1.32423e-09
4.76004e-10
1.47505e-09
4.91344e-10
4.75274e-10
1.33176e-09
8.58981e-10
2.71021e-09
2.66107e-09
8.69563e-10
1.08184e-09
1.09995e-09
1.08811e-09
1.76726e-09
1.00054e-09
3.05032e-09
9.32709e-10
9.83285e-10
2.2828e-09
6.88623e-10
1.24288e-09
1.89509e-09
1.00829e-09
3.36152e-09
9.3788e-10
9.66919e-10
3.00708e-09
7.038e-10
1.25457e-09
8.3594e-10
2.88658e-09
1.52628e-09
1.34359e-09
2.84062e-09
9.58292e-10
1.72923e-09
1.25996e-09
1.85226e-09
6.03172e-10
5.46415e-10
1.2665e-09
5.43875e-10
4.84513e-10
3.05788e-10
9.17462e-10
4.86087e-10
1.1093e-09
9.52231e-10
6.80455e-10
3.12673e-10
6.50287e-10
9.9759e-10
2.65802e-10
6.8401e-10
3.12031e-10
8.69221e-10
4.96375e-10
1.22767e-09
8.54252e-10
7.18629e-10
3.15457e-10
6.60689e-10
9.37937e-10
2.71694e-10
7.15293e-10
3.6767e-10
4.69366e-10
1.28615e-09
1.4042e-09
3.70196e-10
4.58779e-10
1.23152e-09
1.32235e-09
4.37357e-10
1.02058e-09
1.74129e-09
1.31898e-09
7.90354e-10
1.61711e-09
1.39751e-09
7.64802e-10
1.65256e-09
1.78343e-09
1.30463e-09
1.34414e-09
8.95958e-10
1.73592e-09
6.91716e-10
1.95721e-09