/*--------------------------------*- C++ -*----------------------------------*\
| =========                 |                                                 |
| \\      /  F ield         | OpenFOAM: The Open Source CFD Toolbox           |
|  \\    /   O peration     | Version:  5.x                                   |
|   \\  /    A nd           | Web:      www.OpenFOAM.org                      |
|    \\/     M anipulation  |                                                 |
\*---------------------------------------------------------------------------*/
FoamFile
{
    version     2.0;
    format      ascii;
    class       volScalarField;
    location    "0.3";
    object      omega;
}
// * * * * * * * * * * * * * * * * * * * * * * * * * * * * * * * * * * * * * //

dimensions      [0 0 -1 0 0 0 0];

internalField   nonuniform List<scalar> 
12160
(
0.0719999
0.0719999
0.0064025
0.0719999
0.00717287
0.00167916
0.0719999
0.00705898
0.00174156
0.00137819
0.0719999
0.004982
0.00171396
0.00137902
0.00134657
0.0719999
0.00414608
0.00136995
0.00134477
0.00133126
0.00148339
0.0719999
0.00315608
0.00126781
0.0012047
0.0012907
0.00141098
0.00157292
0.0719999
0.00256784
0.00114945
0.00116037
0.0011932
0.0013215
0.0015355
0.00170903
0.0719999
0.00210684
0.00110126
0.0011004
0.00114584
0.00121679
0.00134628
0.00152229
0.00298629
0.0719999
0.00178956
0.00106273
0.00107479
0.0010953
0.00115734
0.00124379
0.00125302
0.00214897
0.00374867
0.0719999
0.00156248
0.0010422
0.00105042
0.00106967
0.00110664
0.00115461
0.00120415
0.00167525
0.00198247
0.00223737
0.0719999
0.00140177
0.00102824
0.00103616
0.00104761
0.0010764
0.00110899
0.00114979
0.00181115
0.0014886
0.00290168
0.00169903
0.0719999
0.00128804
0.0010193
0.00102545
0.00103407
0.00105314
0.00107425
0.00116972
0.00145444
0.00148842
0.00208912
0.0016381
0.00160136
0.0719999
0.00120754
0.00101335
0.00101805
0.00102401
0.00103779
0.00105278
0.00117909
0.00130957
0.00148269
0.00216371
0.00144952
0.00151562
0.00143377
0.0719999
0.00115048
0.00100933
0.00101283
0.00101704
0.00102667
0.00103744
0.00119502
0.00118097
0.00134387
0.00164086
0.00147157
0.00131624
0.00143255
0.00129653
0.0719999
0.00110999
0.00100658
0.00100915
0.00101212
0.00101892
0.0010266
0.00120372
0.00111655
0.00127306
0.00141809
0.00126859
0.00122249
0.0012366
0.00129527
0.0719999
0.00108124
0.00100468
0.00100655
0.00100864
0.00101345
0.00101894
0.00120716
0.001077
0.00122636
0.00123882
0.00118856
0.00115902
0.0011751
0.00115371
0.0719999
0.00106086
0.00100335
0.0010047
0.00100619
0.00100959
0.00101352
0.00120562
0.00105497
0.00121305
0.00114581
0.00112277
0.00114298
0.00113405
0.00112345
0.0719999
0.00104632
0.00100234
0.00100339
0.00100444
0.00100687
0.00100968
0.00119984
0.00104251
0.00120734
0.00109132
0.00108888
0.00110862
0.0011322
0.00109638
0.0719999
0.00103656
0.0010016
0.00100239
0.0010032
0.00100493
0.00100695
0.00119023
0.00103591
0.00120372
0.00105946
0.00106394
0.00108503
0.00110403
0.00109929
0.0719999
0.00102968
0.00100108
0.00100164
0.00100223
0.00100355
0.001005
0.0011775
0.00103291
0.00119787
0.00103973
0.00104557
0.00106222
0.00108308
0.00107851
0.0719999
0.00102532
0.00100073
0.00100111
0.00100152
0.0010025
0.0010036
0.00116244
0.00103231
0.0011886
0.00102709
0.00103217
0.00104472
0.00106122
0.00106273
0.0719999
0.0010229
0.00100048
0.00100074
0.00100101
0.00100171
0.00100256
0.00114554
0.00103277
0.00117624
0.00101868
0.00102273
0.00103162
0.00104428
0.00104617
0.0719999
0.00102191
0.00100031
0.00100048
0.00100066
0.00100116
0.00100174
0.00112781
0.00103356
0.00116142
0.00101306
0.00101611
0.00102216
0.00103144
0.00103339
0.0719999
0.00102123
0.0010002
0.0010003
0.00100041
0.00100077
0.00100116
0.00110961
0.00103407
0.0011448
0.00100972
0.00101172
0.00101539
0.00102213
0.0010237
0.0719999
0.001021
0.00100015
0.00100018
0.00100022
0.00100049
0.00100074
0.00109171
0.0010345
0.00112708
0.00100782
0.00100899
0.00101063
0.00101542
0.00101668
0.0719999
0.00102121
0.00100014
0.00100013
0.00100012
0.00100029
0.00100042
0.00107508
0.00103312
0.00110915
0.00100672
0.00100722
0.00100752
0.00101072
0.00101162
0.0719999
0.00102196
0.00100015
0.00100011
0.00100007
0.00100016
0.00100019
0.0010593
0.00103178
0.00109154
0.00100658
0.00100612
0.0010054
0.00100765
0.00100808
0.0719999
0.0010234
0.00100021
0.00100013
0.00100005
0.0010001
0.00100007
0.00104485
0.00103013
0.00107492
0.00100585
0.0010055
0.00100412
0.00100549
0.00100574
0.0719999
0.00102572
0.00100031
0.00100019
0.00100007
0.00100008
0.00100001
0.00103165
0.0010282
0.00105942
0.00100566
0.00100505
0.00100354
0.00100416
0.00100408
0.0719999
0.00102915
0.00100046
0.00100029
0.00100012
0.0010001
0.000999988
0.00101959
0.00102627
0.00104521
0.00100518
0.00100455
0.00100304
0.00100339
0.00100303
0.0719999
0.00103396
0.00100066
0.00100045
0.00100022
0.00100017
0.00100001
0.00100839
0.0010248
0.00103225
0.00100466
0.00100411
0.00100274
0.00100282
0.0010024
0.0719999
0.0010405
0.00100093
0.00100066
0.00100038
0.00100029
0.00100007
0.00100396
0.00102378
0.00102057
0.00100399
0.00100371
0.0010024
0.00100234
0.00100191
0.0719999
0.00104918
0.00100127
0.00100092
0.00100058
0.00100046
0.00100019
0.00101258
0.00102317
0.00101062
0.00100355
0.00100333
0.00100202
0.00100192
0.0010015
0.0719999
0.00106049
0.0010017
0.00100127
0.00100085
0.00100068
0.0010004
0.00102255
0.00102298
0.00100773
0.0010032
0.00100298
0.00100158
0.00100155
0.00100114
0.0719999
0.00107504
0.00100225
0.0010017
0.00100118
0.00100097
0.00100066
0.00103258
0.00102313
0.00101442
0.00100308
0.00100274
0.00100103
0.00100118
0.00100083
0.0719999
0.00109354
0.00100295
0.00100225
0.0010016
0.00100134
0.00100097
0.00104274
0.00102357
0.00102355
0.00100312
0.00100261
0.00100067
0.00100076
0.00100052
0.0719999
0.00111687
0.00100383
0.00100294
0.00100213
0.0010018
0.00100137
0.00105304
0.0010242
0.00103316
0.0010033
0.00100264
0.00100055
0.00100041
0.00100025
0.0719999
0.00114606
0.00100493
0.0010038
0.00100279
0.00100238
0.00100186
0.00106332
0.00102488
0.00104311
0.00100354
0.0010028
0.00100067
0.00100027
0.00100008
0.0719999
0.00118232
0.00100633
0.00100487
0.00100361
0.00100311
0.00100246
0.00107349
0.00102545
0.0010532
0.00100378
0.00100306
0.00100098
0.00100035
0.00100003
0.00122771
0.0719999
0.00100806
0.0010062
0.00100463
0.00100402
0.00100322
0.00108342
0.00102582
0.00106316
0.00100409
0.00100341
0.00100135
0.00100063
0.00100009
0.00101038
0.00131871
0.0719999
0.00100783
0.0010059
0.00100516
0.00100416
0.00109286
0.00102593
0.00107303
0.00100436
0.00100378
0.00100167
0.00100105
0.00100028
0.00100994
0.00101513
0.0015126
0.0719999
0.00100745
0.00100656
0.00100533
0.00110164
0.00102579
0.00108269
0.0010046
0.0010042
0.00100208
0.00100144
0.00100062
0.00100943
0.00101417
0.0010255
0.00180481
0.0719999
0.00100829
0.00100677
0.0011096
0.00102562
0.00109195
0.001005
0.00100469
0.00100255
0.00100191
0.00100099
0.00101046
0.00101348
0.00102272
0.00104317
0.00223197
0.0719999
0.00100856
0.00111659
0.00102555
0.00110056
0.00100575
0.00100534
0.00100307
0.00100253
0.00100138
0.00101074
0.00101491
0.00102155
0.0010358
0.00107252
0.00286031
0.0719999
0.00112265
0.00102576
0.00110844
0.00100689
0.00100618
0.00100378
0.00100319
0.00100181
0.0011271
0.00101535
0.00102392
0.00103381
0.0010546
0.00112316
0.00379447
0.0719999
0.0010263
0.00111535
0.00100845
0.00100733
0.00100477
0.00100399
0.00100226
0.00102899
0.00113599
0.00102441
0.00103739
0.00105116
0.00108143
0.00121422
0.00529665
0.0719999
0.00112195
0.00101073
0.00100874
0.00100609
0.001005
0.00100284
0.00112556
0.00103109
0.00113686
0.00103781
0.00105621
0.00107517
0.00111994
0.00140098
0.00764997
0.0719999
0.00101373
0.00101066
0.00100767
0.00100626
0.00100367
0.00101723
0.00113414
0.00104046
0.00113225
0.00105617
0.00108148
0.00110764
0.00117782
0.00181484
0.0138574
0.0719999
0.00101306
0.00100977
0.00100778
0.00100466
0.00101604
0.00102523
0.00113781
0.00105488
0.00112093
0.00108031
0.0011138
0.00115009
0.00128207
0.00309201
0.0213071
0.0484527
0.00101217
0.00100984
0.00100593
0.00101523
0.00102241
0.00103942
0.00114009
0.00107621
0.00110415
0.00111035
0.00115236
0.00121034
0.00150813
0.00537926
0.0259945
0.00160307
0.0568889
0.00101221
0.00100754
0.00101534
0.00102152
0.00103362
0.00106118
0.00114421
0.00110281
0.00108408
0.00114518
0.00119753
0.00128167
0.00208853
0.00890778
0.00170723
0.00123409
0.00139263
0.0568889
0.00100932
0.00101168
0.00102168
0.0010322
0.00104823
0.00109172
0.00115085
0.00113037
0.00106447
0.00118314
0.00123551
0.00146305
0.00294268
0.00159015
0.00130192
0.00114709
0.00115328
0.00126542
0.0568889
0.00101641
0.00103227
0.00104614
0.00106475
0.00113284
0.00115631
0.00115014
0.00105256
0.00121521
0.0013055
0.00162635
0.00141953
0.00133181
0.00126344
0.00127796
0.00107757
0.00114703
0.00125229
0.0568889
0.00102422
0.0010458
0.00106179
0.00108209
0.00118169
0.00115587
0.0011542
0.00106657
0.00125221
0.00132803
0.00133644
0.00131124
0.00132303
0.00129956
0.00132036
0.00119758
0.00112492
0.00119656
0.00127099
0.0568889
0.00103439
0.00106033
0.00107627
0.0010994
0.00122826
0.00115486
0.00114476
0.00110213
0.00126336
0.00125281
0.00129705
0.00132128
0.00124023
0.00143792
0.00246058
0.00146202
0.00119396
0.00118417
0.00124085
0.00128679
0.0568889
0.00104555
0.00107326
0.00108671
0.00111528
0.00125828
0.00116653
0.00113173
0.00113205
0.00123696
0.00123178
0.00131738
0.00120541
0.00153361
0.00169638
0.00681133
0.00238858
0.00593816
0.00964607
0.00974613
0.00136777
0.0012338
0.00124417
0.00127546
0.00130403
0.0568889
0.00105543
0.00108193
0.00109157
0.00112704
0.00126669
0.00119663
0.0011202
0.00113877
0.00123051
0.00125344
0.00124498
0.00148692
0.00145723
0.00749439
0.0112276
0.00880168
0.00224884
0.0111505
0.0104866
0.0106011
0.0102095
0.0113473
0.0117825
0.00132688
0.00130727
0.00128793
0.00130071
0.0013187
0.0568889
0.00106171
0.00108458
0.00109072
0.00113051
0.00126473
0.00123484
0.00112556
0.00114883
0.00124748
0.00124495
0.00143351
0.00126388
0.0046939
0.0130356
0.0130453
0.0103529
0.01026
0.0108175
0.0161954
0.00213441
0.00526718
0.0112188
0.0123856
0.0124178
0.0163208
0.0154311
0.0152805
0.00141884
0.00135037
0.00131607
0.00132179
0.00133068
0.0568889
0.00106324
0.00108084
0.00108505
0.00113187
0.00127042
0.00124642
0.00113153
0.00116744
0.00129445
0.00136424
0.00130955
0.0032129
0.0110452
0.010756
0.010332
0.0100303
0.0171636
0.0170987
0.0163688
0.0161799
0.0167295
0.0179638
0.0196241
0.0179859
0.0196376
0.00243435
0.00573057
0.0156911
0.0159378
0.0158036
0.0160338
0.0170776
0.0158985
0.0162625
0.0181691
0.0198036
0.0182747
0.0198001
0.0180521
0.0194159
0.0180239
0.019823
0.0180691
0.0194165
0.0179994
0.0199599
0.00147225
0.00135494
0.00134113
0.00133688
0.00133898
0.0568889
0.0010596
0.00107127
0.0010863
0.00112732
0.00127919
0.00128102
0.00114724
0.00121929
0.00134953
0.00148568
0.0025914
0.00922892
0.00904458
0.00815438
0.0081836
0.0158934
0.0156326
0.015249
0.0149659
0.0192933
0.01953
0.0180901
0.0192743
0.0178011
0.0177255
0.0195209
0.0192613
0.0180305
0.0192471
0.0176556
0.017727
0.0191453
0.0172895
0.0192225
0.0174091
0.0190582
0.0169916
0.0191722
0.0171727
0.0185161
0.0198128
0.0183857
0.0198523
0.0171539
0.0186135
0.0169536
0.0187032
0.00246794
0.00645964
0.0144028
0.0143041
0.0150986
0.0152295
0.0194229
0.0194533
0.0199235
0.0200181
0.018916
0.0200334
0.0187114
0.020099
0.0178524
0.0193666
0.0179218
0.0197794
0.0183499
0.0196021
0.0182997
0.0200546
0.0172281
0.0187295
0.0171453
0.0188643
0.0175765
0.0195102
0.0175674
0.0196039
0.00141194
0.00138531
0.00135826
0.00134518
0.00134428
0.0568889
0.00105012
0.00106841
0.0010822
0.00116312
0.00127975
0.00132057
0.0011958
0.00127212
0.00173752
0.00237443
0.00791158
0.00795818
0.00736842
0.0074268
0.0138764
0.0135821
0.0116203
0.0113655
0.0189792
0.0170412
0.0187177
0.0168293
0.018853
0.0166725
0.0185781
0.0164682
0.0181086
0.0159446
0.0184013
0.0164206
0.0179633
0.0156229
0.01825
0.0160659
0.0194681
0.0188414
0.0169704
0.017939
0.0185938
0.0168069
0.0194659
0.0187125
0.0178975
0.0167725
0.018472
0.0165902
0.0184912
0.0158088
0.0184977
0.0163155
0.0183755
0.0155141
0.0183881
0.0160363
0.0175771
0.0189688
0.017251
0.0191952
0.0156793
0.016867
0.0150083
0.0177615
0.00194333
0.00595533
0.0151865
0.0146887
0.0146736
0.0142985
0.0182586
0.0179971
0.01855
0.0184536
0.0204756
0.0199001
0.0204232
0.019537
0.020433
0.0198881
0.0203989
0.0195286
0.0201577
0.0197982
0.0189286
0.0204888
0.0194455
0.0193817
0.0202943
0.0199914
0.0190941
0.0205494
0.0194933
0.0198056
0.017983
0.0190819
0.0175421
0.0193329
0.0177348
0.0196837
0.0182112
0.0198841
0.0155446
0.0171723
0.0148931
0.0180954
0.0169108
0.0190652
0.0168349
0.0191735
0.00146874
0.00140169
0.00136348
0.00134846
0.0013516
0.0568889
0.00104417
0.00106333
0.00111627
0.00115847
0.00132642
0.00147743
0.00126571
0.00154116
0.00216393
0.00707993
0.00714769
0.00706181
0.00711928
0.00915191
0.00917955
0.00803154
0.00803372
0.0178795
0.0152275
0.0176151
0.0147577
0.017732
0.0149437
0.017495
0.0145548
0.0160125
0.0141657
0.0171328
0.0141973
0.0159905
0.0142031
0.0170438
0.0140882
0.0184019
0.0152519
0.0181241
0.0147697
0.0182515
0.0149429
0.0179443
0.0144964
0.0176654
0.0141956
0.0178442
0.0143429
0.0174828
0.0139951
0.0176417
0.0141268
0.0158635
0.0169029
0.0151662
0.0174248
0.00177382
0.00379648
0.0128942
0.0126981
0.0145586
0.0141362
0.0180083
0.0175954
0.0184798
0.0181299
0.0203531
0.0194273
0.0202808
0.01939
0.020152
0.019021
0.0201554
0.0190851
0.0205144
0.0197088
0.0203838
0.0195305
0.0204668
0.0196176
0.0203172
0.0193731
0.0186687
0.0166528
0.0188656
0.0164531
0.0184675
0.0164117
0.0186751
0.0161898
0.0193842
0.0193944
0.0169931
0.0180484
0.0192122
0.0165327
0.019513
0.0192953
0.0166909
0.018298
0.0190664
0.016288
0.0158757
0.0170606
0.015045
0.0175118
0.0167608
0.0186205
0.0170449
0.0186902
0.00150504
0.00139535
0.00136078
0.00135343
0.00140715
0.0568889
0.00104067
0.00108463
0.00112667
0.00123251
0.00135687
0.00178307
0.00163549
0.00185942
0.00258693
0.00707986
0.00706956
0.00625245
0.00626299
0.0139626
0.0140483
0.012512
0.0125972
0.0177305
0.0142482
0.0178584
0.0142041
0.0175686
0.0141568
0.0177257
0.0142244
0.0171019
0.0141936
0.0180062
0.0142204
0.0170977
0.0143383
0.0179299
0.0143405
0.0176038
0.0138259
0.0173134
0.0135856
0.00186802
0.00281756
0.00988444
0.00999704
0.0111522
0.0111242
0.0146188
0.0145895
0.0162819
0.0154753
0.0191691
0.0198099
0.0197356
0.0196394
0.018844
0.0192885
0.0193697
0.0190788
0.0203485
0.0197645
0.02006
0.0199399
0.0201077
0.01927
0.0197216
0.0194289
0.0195677
0.0179146
0.0190763
0.0176827
0.0195541
0.0177288
0.0191451
0.0178235
0.0188707
0.01749
0.0189503
0.0177025
0.018769
0.0173888
0.0189712
0.0177447
0.00146103
0.0013784
0.00136074
0.00140672
0.00201024
0.0568889
0.00104842
0.00110598
0.00119108
0.00127116
0.00181481
0.00295364
0.00355064
0.00183315
0.00892416
0.00896188
0.0113336
0.0113696
0.0110154
0.0111191
0.00944092
0.00958773
0.0147217
0.0185308
0.0151461
0.0181758
0.0147559
0.0185642
0.0151659
0.0182237
0.0140773
0.0171952
0.0137352
0.0177088
0.0141158
0.0172557
0.0137661
0.0177691
0.0176369
0.0136611
0.0182476
0.0143283
0.0173738
0.0133282
0.0181008
0.0140715
0.0189189
0.015449
0.0188494
0.0152295
0.0189471
0.0153995
0.0188238
0.0150847
0.00163772
0.00305808
0.00645183
0.0138902
0.0141063
0.0137274
0.013885
0.0175487
0.0178817
0.0190461
0.018891
0.0193872
0.0197462
0.0193433
0.0190744
0.0190988
0.0197365
0.0191456
0.0185429
0.0195329
0.0182152
0.0191403
0.018596
0.0195379
0.0177829
0.0190214
0.0180466
0.0190601
0.0174607
0.0192168
0.0174586
0.00140391
0.00136905
0.00140954
0.00200696
0.00852426
0.0719993
0.00107237
0.00112747
0.00127049
0.00144106
0.00179176
0.00480003
0.0195165
0.0250415
0.0117951
0.0116841
0.0136298
0.0137094
0.0164127
0.0131508
0.0130001
0.0150769
0.0164547
0.0132157
0.0130343
0.015081
0.0129027
0.0128639
0.0133644
0.0181099
0.013829
0.0179436
0.0133847
0.0181423
0.0138224
0.0179907
0.0130636
0.0177331
0.0129443
0.0178938
0.0130972
0.0177964
0.0129982
0.0179662
0.0183221
0.0141945
0.018342
0.0141506
0.0014572
0.00224642
0.00641518
0.0140292
0.0133644
0.0125163
0.0127832
0.0153255
0.015515
0.0157634
0.0157011
0.018755
0.0199726
0.0189081
0.0199635
0.0189883
0.0203367
0.0192523
0.0201724
0.0185622
0.01934
0.0171875
0.0197551
0.0186261
0.0194039
0.0174596
0.0198305
0.0190159
0.0168105
0.0183204
0.0173026
0.0190482
0.0171692
0.018344
0.0174712
0.0176172
0.0173664
0.0173309
0.0172229
0.017567
0.017149
0.0172114
0.0171302
0.00137533
0.00141028
0.00200175
0.00851133
0.0719993
0.00107764
0.00121015
0.00136027
0.00230902
0.00376997
0.0186076
0.0620566
0.0337532
0.0353175
0.0621693
0.0646351
0.0190527
0.0158482
0.0194688
0.0178688
0.0192609
0.0159092
0.0198687
0.0182401
0.0212549
0.0220754
0.0174959
0.0128707
0.01299
0.0164286
0.0175517
0.0129145
0.0129767
0.0164337
0.0189141
0.0152577
0.0188426
0.0150791
0.0190595
0.0152026
0.0189504
0.0150113
0.0137888
0.0188447
0.0140957
0.0186044
0.0137684
0.0189387
0.0140787
0.0187174
0.00137362
0.0016433
0.00433295
0.0136931
0.0204435
0.0197082
0.0199812
0.0198921
0.0183995
0.0187197
0.0194124
0.0179111
0.0183355
0.0188424
0.0195864
0.017865
0.018212
0.0188522
0.0178116
0.0201334
0.0182952
0.0198566
0.0180729
0.0204209
0.0186367
0.0200552
0.0178166
0.0194613
0.0169823
0.0195643
0.018191
0.019699
0.0175611
0.0197627
0.0192829
0.0165753
0.0195382
0.0173033
0.00140545
0.00198573
0.00847225
0.0719993
0.00116469
0.00117454
0.00138004
0.00277571
0.0264488
0.0576792
0.135445
0.136654
0.0827226
0.0827198
0.0426872
0.0456591
0.0802365
0.0844397
0.0204102
0.0170841
0.0208751
0.0192304
0.020668
0.0175174
0.0213312
0.0198678
0.025921
0.0313457
0.0321592
0.0270141
0.0274859
0.033272
0.0343609
0.0284006
0.0190433
0.0146235
0.0149986
0.0189771
0.0191222
0.0145878
0.0149313
0.0190638
0.0197344
0.0150335
0.0190743
0.0138719
0.0199095
0.0152493
0.0191807
0.0139688
0.00138955
0.00136712
0.00252838
0.0094892
0.0245955
0.0240112
0.0251222
0.0249365
0.0243658
0.0242182
0.0225991
0.0215631
0.0230373
0.0227752
0.0226635
0.0214602
0.022913
0.0224699
0.0215566
0.0202468
0.0211327
0.0197402
0.019911
0.0196906
0.021825
0.0205304
0.0213016
0.0198894
0.0201318
0.019865
0.0202238
0.0186883
0.0204687
0.0186836
0.0179875
0.0198997
0.0179931
0.019436
0.0181511
0.0201412
0.0183006
0.0195746
0.00195154
0.00837924
0.0719993
0.00113964
0.00132777
0.00190898
0.019159
0.0331969
0.0862674
0.139372
0.140978
0.104556
0.104521
0.0422335
0.034619
0.041059
0.0523495
0.0507947
0.0338376
0.0368121
0.0443849
0.0365175
0.0441582
0.0547608
0.0552127
0.092956
0.08143
0.076196
0.072439
0.0972484
0.0898515
0.0801646
0.0790614
0.02275
0.0191701
0.024341
0.0218044
0.0233963
0.0199509
0.0252564
0.0229037
0.0280945
0.030682
0.0303259
0.0324844
0.0129607
0.0187568
0.0129888
0.0188302
0.0216219
0.0172313
0.0221231
0.0177891
0.00189248
0.00135879
0.00147115
0.00617039
0.0175849
0.0169798
0.0227674
0.0221376
0.0274275
0.0272417
0.0266634
0.0268189
0.0227786
0.0253284
0.0261778
0.0241533
0.0252168
0.0236937
0.0231625
0.0254135
0.026116
0.024402
0.0248967
0.0235529
0.0224835
0.0208114
0.0225875
0.0207775
0.0213972
0.0189755
0.0211353
0.0207045
0.0185284
0.018768
0.021689
0.0192166
0.0213719
0.0208429
0.0189409
0.0189514
0.0206485
0.0185883
0.0207686
0.0185135
0.00820036
0.0719993
0.00123383
0.00120914
0.00775665
0.0200784
0.0313875
0.143644
0.16855
0.108428
0.124948
0.154258
0.156812
0.124837
0.124781
0.0377678
0.05906
0.0565707
0.035234
0.072825
0.0685014
0.0396933
0.0588143
0.0377316
0.0581396
0.0723028
0.0692499
0.113676
0.104954
0.0948346
0.0864269
0.11617
0.10435
0.095646
0.088473
0.027837
0.0241221
0.0293151
0.0259944
0.00790951
0.00180894
0.00134564
0.00244587
0.0147515
0.0231422
0.0227885
0.0249224
0.024171
0.0276552
0.0284975
0.0277933
0.028623
0.0273133
0.0282226
0.0277573
0.0284559
0.025116
0.0244877
0.0236436
0.026166
0.0256878
0.0250906
0.0254781
0.0250255
0.024533
0.0265061
0.0263154
0.0259231
0.0204463
0.0205973
0.0226928
0.0231833
0.0216645
0.0212647
0.0233351
0.0234657
0.0223559
0.0204196
0.0227664
0.0206494
0.0202265
0.0190596
0.0205
0.0178074
0.0204346
0.0191579
0.020795
0.0181226
0.0719993
0.00112901
0.00284184
0.00826654
0.0117255
0.0353287
0.160226
0.197939
0.126667
0.151219
0.167484
0.171864
0.162979
0.153888
0.170336
0.181052
0.168446
0.156024
0.140892
0.14168
0.152989
0.135022
0.102773
0.102093
0.156012
0.142963
0.10587
0.100889
0.0719993
0.00750679
0.00172303
0.00151725
0.00675419
0.0232244
0.0230725
0.0277729
0.0275243
0.0238788
0.0238734
0.0260484
0.0258677
0.0274826
0.0279843
0.0269678
0.02756
0.0271511
0.0277805
0.0270007
0.0274921
0.0246895
0.0245531
0.0216284
0.0219492
0.0254063
0.0228217
0.0251728
0.0248675
0.0227604
0.0226731
0.0258173
0.0237281
0.0195119
0.0220403
0.0208109
0.0226208
0.00148157
0.00288167
0.00353134
0.00540529
0.107798
0.115331
0.103296
0.0926168
0.212764
0.264793
0.188058
0.216784
0.171474
0.172865
0.170754
0.151961
0.169753
0.181666
0.177772
0.156604
0.158929
0.151778
0.15856
0.14735
0.165871
0.158727
0.162155
0.150715
0.157567
0.15317
0.165051
0.16961
0.0719979
0.00702869
0.00168549
0.00266576
0.0178565
0.0302232
0.0303476
0.0308763
0.0310486
0.0296143
0.0299242
0.0300245
0.0279495
0.028974
0.0289129
0.0298544
0.0279905
0.0285701
0.0288942
0.0276781
0.0262801
0.0275144
0.0267592
0.0278949
0.0263074
0.0278225
0.0274072
0.00235637
0.0025357
0.00224609
0.0169727
0.188341
0.161013
0.147083
0.110783
0.178467
0.171303
0.257175
0.222761
0.239851
0.230459
0.214957
0.191956
0.356093
0.351591
0.327792
0.338708
0.242676
0.280977
0.16884
0.182036
0.183128
0.161873
0.169068
0.191153
0.186161
0.168736
0.170156
0.153272
0.181697
0.158961
0.0719922
0.00647894
0.00181133
0.00727789
0.0263597
0.0262899
0.0270617
0.0270666
0.0303651
0.0308792
0.0314565
0.0318327
0.0313174
0.0319718
0.0299973
0.0266666
0.0291059
0.0286004
0.0318166
0.032324
0.0310537
0.0280077
0.029848
0.0298587
0.0273857
0.0258407
0.0283538
0.0273321
0.0253455
0.0249416
0.027163
0.0266639
0.00185586
0.00237426
0.00225247
0.0953608
0.068622
0.0656174
0.0623985
0.288006
0.287799
0.211348
0.179952
0.194173
0.192763
0.285349
0.23303
0.266692
0.237502
0.308376
0.235639
0.434856
0.471328
0.420463
0.46709
0.281072
0.311365
0.2871
0.333305
0.27636
0.346095
0.467291
0.443871
0.0719775
0.00585234
0.00277355
0.0193282
0.0332365
0.0330541
0.0307378
0.0307573
0.0324714
0.0329548
0.0316761
0.0331308
0.0339234
0.0324454
0.0316123
0.0334623
0.0344066
0.0329089
0.0318741
0.033879
0.0325357
0.0336666
0.0285508
0.0288593
0.0264974
0.0244152
0.0301786
0.029949
0.0284886
0.0261916
0.0279013
0.0237257
0.0290959
0.0255468
0.0018643
0.00180668
0.00332585
0.13015
0.117822
0.0855793
0.0830186
0.307231
0.329152
0.298905
0.270304
0.316179
0.252249
0.380119
0.382143
0.279206
0.269972
0.288591
0.238895
0.233297
0.213484
0.314823
0.285265
0.493139
0.578672
0.378348
0.369308
0.571223
0.509477
0.0719467
0.00520777
0.00669127
0.0335372
0.0332759
0.036124
0.0359137
0.0327289
0.0323414
0.0380313
0.0380735
0.0363527
0.0361605
0.0349106
0.0339717
0.0348145
0.0347734
0.0365744
0.0349464
0.0353497
0.0365327
0.0350432
0.0342287
0.0304488
0.0281061
0.0336685
0.0336563
0.0336039
0.0309772
0.0341926
0.028408
0.00145751
0.0033527
0.00357568
0.158597
0.155343
0.0956386
0.094496
0.35712
0.345604
0.311087
0.361562
0.365039
0.259217
0.442975
0.350336
0.288057
0.25286
0.299447
0.228936
0.192621
0.229304
0.227075
0.26085
0.189214
0.224483
0.218954
0.255366
0.435419
0.373942
0.563379
0.468694
0.0718876
0.00457642
0.0201845
0.0401449
0.039799
0.0373025
0.0364082
0.0420782
0.0423188
0.0382655
0.038775
0.0418378
0.0410705
0.0396561
0.0421024
0.038339
0.0389378
0.0419908
0.0410304
0.0396979
0.0420046
0.0358363
0.0327119
0.0335559
0.0314828
0.03266
0.0309639
0.0358651
0.0336285
0.00232958
0.00263865
0.1537
0.114071
0.113604
0.152509
0.109326
0.110567
0.230697
0.188686
0.247806
0.229558
0.1873
0.243161
0.453906
0.400231
0.297166
0.412917
0.368177
0.278542
0.280701
0.302864
0.294131
0.41718
0.381218
0.270612
0.229081
0.268807
0.226961
0.264192
0.0717744
0.00609101
0.0391193
0.0433831
0.0425431
0.0443258
0.0430334
0.0463974
0.0462428
0.0458747
0.0448842
0.0440039
0.0444605
0.0457143
0.0439437
0.0445848
0.0458516
0.0455669
0.0451709
0.0389704
0.0374115
0.0427779
0.0405088
0.0390653
0.0374577
0.0427967
0.0405736
0.0364334
0.0338496
0.0365417
0.0339089
0.00154418
0.0145202
0.219169
0.222953
0.216685
0.222148
0.13691
0.137569
0.280942
0.252243
0.482699
0.243443
0.368421
0.355541
0.25438
0.304032
0.251622
0.279736
0.47579
0.243375
0.35988
0.351941
0.252977
0.301265
0.282999
0.262628
0.28201
0.261911
0.269242
0.316094
0.268807
0.312759
0.0715405
0.0136896
0.0634602
0.0520229
0.0514712
0.0598151
0.0638451
0.0631463
0.0526861
0.0469716
0.0477377
0.0523389
0.0461015
0.046392
0.0441212
0.0445503
0.0425405
0.0434505
0.0438195
0.0423962
0.0443138
0.0438986
0.0403504
0.0380689
0.04372
0.040548
0.0404013
0.0380435
0.0436469
0.0405194
0.00126694
0.11525
0.341734
0.374331
0.259123
0.321323
0.335969
0.361111
0.260027
0.320885
0.229381
0.227317
0.301474
0.31242
0.269607
0.380397
0.39257
0.40542
0.300228
0.269435
0.313359
0.375083
0.388861
0.392435
0.307255
0.275429
0.304414
0.275131
0.0711729
0.0338525
0.0742749
0.0470766
0.046669
0.0746571
0.0620321
0.0626714
0.0518708
0.0504987
0.0546309
0.0487614
0.0544738
0.0511142
0.0527848
0.053986
0.0517702
0.0505228
0.0546344
0.048468
0.0538953
0.0510094
0.0519528
0.0531886
0.0424549
0.0445729
0.0372948
0.041698
0.0423397
0.0382471
0.0449334
0.0428253
0.00264668
0.424953
0.306612
0.291511
0.354447
0.180242
0.16998
0.376654
0.551137
0.381343
0.592318
0.35319
0.389126
0.420143
0.446667
0.524928
0.3949
0.401889
0.375735
0.546059
0.374264
0.605156
0.350239
0.386547
0.417662
0.444434
0.509147
0.39449
0.399901
0.321609
0.381451
0.402603
0.517972
0.321998
0.378128
0.393788
0.513518
0.0706553
0.0768937
0.0679229
0.056734
0.0512398
0.0512483
0.0582797
0.0508006
0.050873
0.0664908
0.0639645
0.0649384
0.048769
0.0522086
0.0462473
0.0423763
0.0432236
0.05046
0.0491814
0.052165
0.0466505
0.0439803
0.0422889
0.05009
0.0414742
0.0359698
0.0423445
0.037509
0.00628606
0.695732
0.475054
0.595803
0.369842
0.171667
0.160389
0.394791
0.455393
0.48627
0.59464
0.478805
0.467818
0.666895
0.554007
0.966496
0.568746
0.582135
0.937754
0.693214
0.839317
0.388558
0.452182
0.598348
0.484905
0.477654
0.464177
0.540618
0.625684
0.942577
0.557259
0.574318
0.87048
0.617533
0.783537
0.0704379
0.173028
0.0843713
0.086815
0.176064
0.130018
0.121402
0.0569738
0.0576225
0.0497885
0.0445436
0.0552026
0.0560435
0.0523274
0.0437927
0.0597311
0.0589184
0.0508645
0.0461326
0.0561236
0.0594791
0.0553757
0.0486498
0.0709949
0.0595724
0.0629147
0.0735628
0.0637863
0.0657474
0.0523801
0.0505668
0.0506376
0.0494432
0.0524038
0.0510785
0.0502826
0.0504754
0.00351745
1.07275
0.994223
0.772871
0.5173
0.926576
0.914572
0.679154
0.376146
0.148207
0.131672
0.492723
0.483783
0.615568
0.608521
0.705871
0.973106
0.592632
0.812024
0.976153
1.15505
0.491071
0.480117
0.606223
0.601542
0.67749
0.581335
0.873693
0.794813
0.928063
1.05849
0.0701625
0.188687
0.0787233
0.0770691
0.174841
0.0655478
0.0697414
0.0500856
0.0495798
0.0421033
0.0391427
0.051738
0.0439147
0.0508373
0.0523178
0.0436887
0.0436443
0.0552812
0.0520725
0.0688137
0.0559943
0.0526296
0.0581997
0.0594207
0.0645767
0.0776185
0.0781283
0.0693649
0.0597611
0.0577692
0.0631366
0.0656963
0.0675938
0.0778819
0.0802925
0.0026775
0.0910044
0.0777099
1.24353
1.2575
1.08457
1.41513
1.05054
0.277013
1.13692
1.16083
0.966122
1.31391
0.936309
0.245448
0.699333
1.04256
1.40516
0.97783
1.03973
1.43881
0.675617
0.955062
1.25447
0.934884
0.96817
1.33211
0.0691821
0.155374
0.0888724
0.0838012
0.0822497
0.0882375
0.0829044
0.0817671
0.135827
0.0289102
0.0409928
0.0510091
0.0407558
0.0532908
0.044121
0.0538428
0.0459607
0.0562062
0.0500942
0.0587815
0.0726591
0.0538259
0.0475852
0.0442284
0.0715136
0.0596093
0.0728997
0.0565911
0.0490288
0.0509219
0.0722983
0.00234642
0.100613
0.115508
0.0740177
0.0719331
0.969542
1.50913
1.21322
1.57091
1.16235
1.72903
1.66752
0.261594
0.819412
1.37168
1.12904
1.46425
1.08392
1.5389
1.55178
0.222352
1.44853
1.2269
1.36284
1.17673
0.0685184
0.104355
0.086982
0.0803006
0.0929041
0.0861965
0.0963009
0.0875477
0.080287
0.092649
0.0847769
0.0958585
0.0872568
0.0382674
0.0440591
0.0635315
0.0531285
0.0828783
0.0533428
0.0440768
0.086098
0.063805
0.056225
0.0835202
0.0474037
0.055344
0.0855363
0.00163847
0.131945
0.128027
0.105161
0.110894
0.278163
0.208512
0.889455
1.47163
1.19442
1.56326
1.05574
2.08865
2.09895
1.94296
2.30182
1.76773
1.55364
0.77766
1.32385
0.879663
1.32243
0.861734
1.8143
1.84118
1.77623
1.93277
1.75059
1.55732
0.0685231
0.0969436
0.0711057
0.0968828
0.0771253
0.0716125
0.0864155
0.0843346
0.0881715
0.0838247
0.0783995
0.0917694
0.0722179
0.0869054
0.0836074
0.088422
0.0840369
0.07566
0.0868533
0.052603
0.0545286
0.0712725
0.0709095
0.0711784
0.0691287
0.00314814
0.160678
0.153301
0.157311
0.14868
0.302588
0.299237
0.238185
0.26154
0.862154
0.710377
1.23028
0.964352
1.3278
0.920681
2.58511
3.07912
2.56155
3.18386
2.37676
2.3968
1.97541
2.96608
1.17491
0.848083
1.22071
0.819712
2.34362
2.58561
2.21854
2.82898
2.30558
2.33263
1.95755
2.82801
0.0691927
0.0709844
0.0972027
0.0771968
0.0975264
0.0281225
0.0439582
0.0796779
0.0792365
0.075464
0.0783658
0.0791068
0.0830775
0.0837432
0.0885012
0.0846899
0.0558321
0.053646
0.0811058
0.079285
0.0767517
0.0786207
0.0796259
0.0835292
0.0821456
0.0888506
0.0846225
0.0544942
0.0501443
0.00193153
0.156637
0.156095
0.153153
0.149571
0.30138
0.290127
0.285178
0.275947
0.872057
0.738193
0.680999
0.645112
1.13538
0.870039
1.13932
0.866683
1.06898
0.736406
1.04143
0.737078
1.37491
1.43884
1.82917
1.05279
1.30824
1.24912
1.66846
0.947493
0.0701706
0.10405
0.156952
0.0858915
0.137221
0.0282458
0.0515636
0.0446023
0.0549873
0.0779134
0.0787551
0.0820319
0.0699261
0.0723638
0.0739831
0.0774566
0.0692427
0.0709283
0.0775158
0.0824604
0.0710642
0.080922
0.079936
0.0859214
0.0727271
0.0759855
0.0778822
0.0770862
0.0709393
0.0728478
0.078237
0.082631
0.0703228
0.0799861
0.0790341
0.0967269
0.00132934
0.29999
0.320538
0.282674
0.297246
0.626592
0.671751
0.578694
0.629655
1.15109
0.884475