/*--------------------------------*- C++ -*----------------------------------*\
| =========                 |                                                 |
| \\      /  F ield         | OpenFOAM: The Open Source CFD Toolbox           |
|  \\    /   O peration     | Version:  5.x                                   |
|   \\  /    A nd           | Web:      www.OpenFOAM.org                      |
|    \\/     M anipulation  |                                                 |
\*---------------------------------------------------------------------------*/
FoamFile
{
    version     2.0;
    format      ascii;
    class       volScalarField;
    location    "0.3";
    object      p;
}
// * * * * * * * * * * * * * * * * * * * * * * * * * * * * * * * * * * * * * //

dimensions      [1 -1 -2 0 0 0 0];

internalField   nonuniform List<scalar> 
12160
(
5340.43
5291.58
4687.39
5236.31
4638.03
4037.83
5179.74
4582.6
3986.75
3387.13
5126.2
4525.16
3930.03
3335.11
2741.01
5077.96
4471.13
3870.25
3276.96
2686.4
2094.68
5037.96
4422.57
3815.04
3214.01
2625.86
2038.44
1450.44
5005.1
4382.53
3765.79
3157.42
2557.74
1975.2
1393.08
801.869
4979.46
4349.78
3725.66
3107.31
2499.05
1899.7
1325.55
752.805
263.785
4959.59
4324.31
3693.12
3067.19
2447.54
1838.53
1240.49
679.076
243.453
13.8942
4944.49
4304.63
3668
3035.04
2407.39
1785.31
1177.06
578.626
191.271
19.6462
-6.86356
4933.12
4289.71
3648.71
3010.48
2375.73
1745.35
1122.31
510.941
123.922
9.7488
-6.83925
-7.57057
4924.6
4278.5
3634.15
2991.8
2351.91
1714.5
1083.02
452.723
86.4575
-0.0951962
-6.8478
-7.65981
-8.22381
4918.26
4270.12
3623.26
2977.81
2334.02
1691.78
1053.24
413.954
56.6419
-3.83337
-6.83274
-7.63185
-8.30457
-8.85966
4913.55
4263.88
3615.14
2967.4
2320.77
1675
1031.75
385.73
38.1398
-5.30154
-6.8039
-7.52316
-8.24226
-8.88776
-9.49691
4910.07
4259.26
3609.12
2959.69
2310.99
1662.76
1016.15
366.301
24.9207
-5.80206
-6.77291
-7.48064
-8.17896
-8.86656
-9.50131
4907.49
4255.84
3604.67
2953.99
2303.8
1653.84
1004.92
352.817
15.8199
-5.99527
-6.76494
-7.44838
-8.14902
-8.83189
-9.49486
4905.59
4253.31
3601.39
2949.8
2298.53
1647.36
996.839
343.502
9.46881
-6.08064
-6.77297
-7.44224
-8.12559
-8.81433
-9.48406
4904.2
4251.45
3598.97
2946.71
2294.67
1642.65
991.033
337.048
5.03787
-6.12636
-6.78828
-7.44866
-8.12038
-8.80034
-9.47832
4903.18
4250.09
3597.19
2944.45
2291.85
1639.23
986.858
332.561
1.93778
-6.15364
-6.80551
-7.45997
-8.12416
-8.79689
-9.4737
4902.46
4249.1
3595.88
2942.78
2289.78
1636.74
983.851
329.428
-0.236528
-6.17123
-6.82079
-7.47284
-8.13162
-8.79884
-9.47247
4901.96
4248.4
3594.94
2941.57
2288.27
1634.93
981.682
327.232
-1.76589
-6.18328
-6.83297
-7.48447
-8.14045
-8.80305
-9.47303
4901.64
4247.91
3594.26
2940.69
2287.17
1633.61
980.117
325.685
-2.84438
-6.19182
-6.84212
-7.49394
-8.14858
-8.8082
-9.47437
4901.47
4247.6
3593.8
2940.06
2286.37
1632.66
978.987
324.593
-3.60709
-6.19788
-6.84885
-7.5012
-8.15532
-8.81301
-9.47604
4901.43
4247.43
3593.5
2939.63
2285.81
1631.98
978.174
323.82
-4.14779
-6.20206
-6.85368
-7.5066
-8.16053
-8.81705
-9.47763
4901.52
4247.39
3593.34
2939.35
2285.42
1631.49
977.592
323.274
-4.53132
-6.20469
-6.857
-7.51051
-8.16441
-8.82019
-9.47897
4901.72
4247.47
3593.3
2939.2
2285.17
1631.16
977.182
322.888
-4.80239
-6.2061
-6.85911
-7.51322
-8.1672
-8.82255
-9.48002
4902.06
4247.67
3593.38
2939.17
2285.04
1630.94
976.9
322.619
-4.99281
-6.20653
-6.86013
-7.51498
-8.16912
-8.82425
-9.48081
4902.55
4248
3593.57
2939.24
2285
1630.83
976.719
322.436
-5.12475
-6.20624
-6.86031
-7.51593
-8.17035
-8.82543
-9.48139
4903.2
4248.47
3593.88
2939.41
2285.06
1630.79
976.619
322.317
-5.21405
-6.20545
-6.8598
-7.51623
-8.171
-8.82619
-9.48178
4904.05
4249.11
3594.33
2939.69
2285.21
1630.84
976.589
322.249
-5.27134
-6.20433
-6.85894
-7.51602
-8.17123
-8.82661
-9.48204
4905.13
4249.94
3594.93
2940.11
2285.46
1630.96
976.623
322.225
-5.30378
-6.20322
-6.85784
-7.51549
-8.1711
-8.82676
-9.48218
4906.49
4250.99
3595.72
2940.66
2285.83
1631.17
976.722
322.238
-5.31558
-6.20228
-6.8568
-7.51475
-8.17076
-8.8267
-9.48224
4908.17
4252.32
3596.72
2941.38
2286.32
1631.48
976.89
322.291
-5.30885
-6.20181
-6.85597
-7.51399
-8.17028
-8.82649
-9.48222
4910.24
4253.96
3597.98
2942.31
2286.96
1631.89
977.135
322.384
-5.28354
-6.20177
-6.85554
-7.51339
-8.16979
-8.82621
-9.48216
4912.77
4255.99
3599.54
2943.47
2287.79
1632.43
977.472
322.525
-5.2382
-6.20219
-6.85552
-7.51307
-8.1694
-8.82592
-9.48207
4915.83
4258.46
3601.47
2944.92
2288.83
1633.13
977.917
322.723
-5.16966
-6.20295
-6.8559
-7.51304
-8.16919
-8.82568
-9.48197
4919.51
4261.45
3603.83
2946.71
2290.13
1634.01
978.492
322.988
-5.07331
-6.20373
-6.85665
-7.5133
-8.16917
-8.82556
-9.4819
4923.9
4265.05
3606.7
2948.91
2291.74
1635.12
979.226
323.337
-4.94296
-6.20434
-6.85741
-7.51377
-8.16936
-8.82554
-9.48186
4929.11
4269.36
3610.15
2951.58
2293.72
1636.5
980.153
323.789
-4.77063
-6.20462
-6.85808
-7.51426
-8.16966
-8.82565
-9.48185
4274.47
4939.22
3614.28
2954.8
2296.13
1638.2
981.313
324.371
-4.54633
-6.20441
-6.8585
-7.51464
-8.16997
-8.82581
-9.48189
3619.19
4284.4
4958.94
2958.67
2299.06
1640.29
982.755
325.114
-4.25782
-6.20364
-6.85852
-7.51482
-8.17021
-8.82599
-9.48194
2963.29
3628.76
4303.81
4985
2302.59
1642.84
984.536
326.056
-3.89044
-6.20222
-6.85802
-7.51468
-8.17031
-8.82612
-9.48199
2306.83
2972.31
3647.53
4329.51
5017.57
1645.92
986.723
327.242
-3.42669
-6.20006
-6.85691
-7.51415
-8.17019
-8.82617
-9.48203
1649.65
2315.13
2990.13
3672.54
4361.75
5056.43
989.393
328.728
-2.84466
-6.19708
-6.85515
-7.51315
-8.1698
-8.82608
-9.48204
992.637
1657
2331.71
3014.08
3704.09
4400.35
5100.59
330.579
-2.11839
-6.19329
-6.85279
-7.51167
-8.16907
-8.82582
-9.48201
332.872
999.094
1671.88
2354.27
3044.58
3742.09
4444.38
5146.52
-1.21773
-6.18861
-6.84983
-7.50977
-8.16803
-8.82537
-9.48192
-0.107694
337.586
1012.37
1692.52
2383.39
3081.65
3785.73
4492.28
5188.98
-6.18286
-6.84616
-7.5074
-8.1667
-8.82473
-9.48176
-6.17569
2.15057
347.736
1031.14
1719.68
2419.26
3124.6
3833.79
4543.69
5245.63
-6.84156
-7.50447
-8.16503
-8.82394
-9.48155
-6.83578
-6.16201
6.94154
363.008
1056.33
1753.8
2461.3
3172.31
3885.01
4602.92
5120.09
-7.50078
-8.16293
-8.82294
-9.48129
-7.49624
-6.82527
-6.13218
14.0147
384.836
1088.57
1794.51
2508.31
3223.23
3942.56
4636.46
5428.54
-8.16026
-8.82167
-9.48096
-8.15698
-7.48782
-6.80528
-6.08528
23.979
414.494
1127.69
1840.59
2558.44
3277.75
3983.17
4762.66
5525.03
6240.92
-8.82003
-9.48053
-8.81804
-8.15089
-7.47253
-6.78354
-6.00063
37.4711
452.388
1172.49
1889.77
2610.4
3326.66
4073.14
4805.76
5563.95
6282.12
7023.44
-9.47997
-9.4793
-8.81436
-8.14016
-7.45651
-6.76536
-5.82352
54.9847
497.538
1220.57
1939.84
2658.44
3383.82
4105.17
4838.44
5574.63
6307.36
7044.61
7794.87
-9.47807
-8.808
-8.12919
-7.44374
-6.75869
-5.42292
76.7043
547.199
1269.23
1985.16
2700.88
3409.61
4128.66
4842.36
5576.5
6319.65
7061.4
7806.55
8557.22
-9.47597
-8.80162
-8.12075
-7.43929
-6.76731
-4.55716
102.09
597.716
1313.22
2021.92
2722.43
3427.51
4124.86
4846.62
5541.38
6322.48
7072.54
7818.3
8564.72
9312.69
-9.4739
-8.79682
-8.11798
-7.44528
-6.78458
-2.9597
129.773
643.641
1347.55
2041.96
2735.73
3419.08
4125.53
4784.54
5520.62
6303.12
7076.78
7829.16
8575.38
9318.77
10060.7
-9.47237
-8.79531
-8.12215
-7.45886
-6.80332
-0.482088
156.864
678.923
1367.77
2053.11
2726.01
3409.88
4060.98
4806.51
4269.21
6282.14
4287.81
3950.87
3967.27
7066.77
7836.15
8587.95
9329.47
10066.8
10801.5
-9.47191
-8.79781
-8.1318
-7.47739
-6.81868
2.70727
179.006
701.658
1379.06
2045.36
2709.83
3353.66
4050.81
4595
4597.38
4274.27
7073.87
4620.58
4877.02
4904.08
4265.28
3985.48
3970.29
7832.38
8599.28
9344.18
10078.5
10808.1
11534.4
-9.47275
-8.80365
-8.14546
-7.49946
-6.83095
5.84114
194.642
715.707
1374.78
2025.01
2655.97
3309.23
3879.46
3720.59
3701.59
3418.65
3404.36
4615.06
4283.56
7851.65
7067.41
4613.97
4896.32
4906.62
4254.98
4044.38
4012.63
8608.24
9360.85
10095.3
10821.2
11541.7
12258.8
-9.47472
-8.81206
-8.16208
-7.5284
-6.84643
8.4459
205.407
716.492
1356.56
1975.62
2589.92
3172.26
3128.45
3116.3
2823.52
2816.31
3576.77
3572.82
3329.74
3323.17
4596.76
3614.06
3552.45
3710.64
3443.7
8633.41
7772.21
5492.99
5489.65
5190.59
5184.94
4570.05
4881.73
4868.84
3606.93
3552.06
3707.5
3438.83
3465.12
3189.25
3381.71
3293.02
3456.45
3188.03
3376.31
3283.19
9381.23
10116
10840.4
11556.2
12266.6
12973.9
-9.47757
-8.82223
-8.18354
-7.56171
-6.86847
10.4124
208.703
703.933
1312.85
1901.71
2460.26
2522.23
2517.62
2212.06
2209.93
3027.83
3022.49
2744.56
2738.46
3001.8
3196.55
3169.46
2855.87
3010.42
3267.87
3187.84
2999.41
3164.95
2856.19
3009.16
3262.24
2621.71
2761.87
2737.41
2883.73
2626.07
2763
2739.59
2883.52
3926.69
3659.51
3807.08
3786.49
3687.64
3681.33
3825.02
3546.89
9420.12
8558.49
6060.15
6046.98
5771.09
5761.49
5425.86
5417.77
4947.02
4936.31
3925.38
3658.81
3804.6
3782.45
4080.75
3872.83
4142.68
3891.15
4081.57
3875.82
4139.59
3889.69
3685.57
3682.99
3822.86
3551.31
3469.7
3354.9
3464.64
3344.39
10143.4
10865.4
11578
12282.4
12982.2
13679.4
-9.48099
-8.83523
-8.20699
-7.59761
-6.89621
11.0905
203.48
669.205
1243.15
1774.37
1908.92
1908.82
1633.46
1635.47
2453.14
2447.21
2193.9
2188.08
2503.03
2638.22
2387.38
2524.23
2511.26
2641.32
2400.9
2528.79
2170.76
2290.23
2280.91
2407.89
2185.5
2295.91
2293.59
2413.3
3210.81
3028.12
3267.87
3336.49
2929.73
3132.46
3205.17
3025.95
3332.14
3268.12
2925.47
3125.65
2718.66
2880.31
2833.05
3006.12
2715.35
2870.36
2828.72
2995.08
4098.29
3808.87
3960.44
3938.39
3660.24
3700.98
3813.64
3564.61
10178.5
9450.67
6694.33
6680.73
6375.37
6360.88
6002.57
5990.73
5697.33
5688.61
4485.77
4708.98
4386.35
4610.79
4495.33
4713.19
4395.58
4613.15
4139.49
3953.85
4303.97
4250.12
4467.23
4211.33
4152.47
3953.78
4313.94
4261.69
4472.45
4211.23
4098.15
3808.92
3959.05
3939.39
4234.57
4024.43
4236
4023.93
3654.98
3695.94
3808.15
3555.92
3495.58
3399.67
3490.43
3390.64
10896.6
11607.1
12306.2
12999
13688.1
14374.9
-9.48538
-8.84881
-8.23128
-7.63598
-6.95091
10.0904
186.17
609.367
1129.51
1378.6
1380.77
1113.35
1115.45
1917.13
1913.07
1632.11
1630.4
2059.02
2173.98
1936.61
2052.67
2070.28
2179.22
1950.14
2058.69
1751.98
1871.68
1847.09
1941.79
1762.44
1876.46
1854.76
1946.76
2596.2
2752.52
2482.3
2644.2
2595.7
2746.33
2487.63
2645.09
2277.44
2416.02
2380.63
2541.01
2286.63
2416.75
2385.28
2543.88
4095.65
3832.44
3954.72
3961.88
10927.9
10192.2
7366.53
7364.39
7032.89
7015.02
6662.26
6648.22
6339.03
6326.17
4923.29
5122.75
4798.75
5002.95
4950.98
5132.55
4820.47
5012.41
4580.45
4788.22
4675.75
4882.59
4591.8
4795.72
4693.36
4889.78
4611.95
4863.05
4500.64
4734.78
4618.68
4863.07
4506.07
4736.18
4120.2
4220.76
4411.05
4284.4
4364.48
4585.49
4115.75
4231.36
4418.24
4281.69
4372.23
4589.67
4089.11
3826.34
3948.21
3953.31
4246.88
4077.5
4242.22
4070.95
11644.1
12338.5
13024.3
13705.5
14383.8
15060.2
-9.48975
-8.8628
-8.25649
-7.67783
-7.034
6.66542
154.98
512.296
938.187
1343.18
1342.83
1045.31
1045.21
1853.3
1852.77
1583.1
1578.69
2154.28
2276.36
2024.53
2126.15
2158.91
2276.7
2026.71
2125.61
1736.83
1776.92
1888.72
1941.63
1742.6
1778.98
1889.53
1941.96
2264.85
2380.15
2269.85
2381.02
11685.7
10943.4
7906.64
7930.89
7697.32
7708.77
7326.37
7308.97
7047.94
7031.15
5427.66
5806.09
5419.72
5711.6
5447.78
5811.05
5434.5
5714.41
5084.37
5272.9
5245.81
5460.42
5107.97
5282.54
5274.61
5468.02
5117.62
5267.71
5004.52
5219.84
5108.39
5254.31
4992.01
5215.55
4735.18
5000.79
4875.63
5139.56
4736.96
4998.51
4870.35
5135.07
12379.7
13058.5
13731.8
14401.7
15069.2
15735.1
-9.49416
-8.8774
-8.28253
-7.72642
-7.08144
0.397265
111.35
370.016
768.389
765.36
498.346
498.073
1325.72
1317.69
1046.88
1042.33
1544.65
1580.28
1658.41
1459.69
1545.13
1580.8
1659.01
1460.25
1434.57
1233.14
1315.84
1351.22
1434.82
1236.07
1316.37
1351.22
2164.97
2250.09
2047.12
2120.54
2165.24
2249.65
2046.42
2119.71
1741.33
1793.86
1906
1966.4
1744.73
1794.46
1905.68
1965.83
12428.9
11728.3
10948
7811.25
7811.05
7584.07
7560.69
7243.42
7224.1
6774.48
6775.23
5476.7
5794.11
5566.12
5846.4
5482.11
5796.37
5570.21
5841.99
5283.75
5441.45
5445.07
5634.14
5281.83
5434.41
5446.2
5623.99
5171.16
5330.66
5173.79
5323.66
13102.2
13767.4
14428.6
15087.3
15744.2
16399.5
-9.4985
-8.89311
-8.30406
-7.73985
-7.19475
-5.34402
42.731
232.98
713.45
709.128
433.122
430.017
1134.05
1201.09
1108.37
1030.61
1133.99
1200.54
1106.47
1028.2
991.089
985.477
1614.88
1595.41
1717.91
1494.64
1613.97
1596.97
1717.28
1493.31
1481.41
1260.76
1340.57
1389.04
1480.53
1262
1339.99
1389.5
1715.74
1828.29
1718.5
1827
13155.6
12490.5
11788.2
8512.76
8513.4
8331.98
8318.37
7917.16
7909.93
7668.2
7644.26
6213.63
6020.09
6259.74
5959.74
6203.45
6044.41
6266.39
5952.99
6102.24
5704.09
5943.19
5837.61
6095.73
5709.07
5944.96
5834.4
5656.77
5813.76
5616.83
5798.82
5667.66
5820.47
5613.02
5792.74
5341.57
5491.18
5494.85
5660.75
5341.79
5482.46
5494.03
5652.83
13812.7
14465
15114.7
15762.5
16408.7
-9.50263
-8.91116
-8.29696
-7.79514
-7.21719
-5.93724
3.85209
164.399
163.57
45.3848
45.1886
619.79
666.186
498.068
543.647
619.798
666.336
498.53
544.104
376.806
375.084
1137.13
1182.05
1030.8
1001.64
1137.71
1181.43
1029.92
1000.02
738.643
797.795
874.637
935.174
739.536
796.758
873.604
934.094
1463.39
1258.47
1335
1364.01
1461.91
1258.86
1333.52
1365.3
13868.5
13222.6
12582.2
11914
8540.96
8518.6
8067.81
8068.33
7701.57
7683.27
6190.2
6480.71
6565.51
6202.99
6211.41
6491.76
6565.22
6200.33
6212.53
6140
6321.9
6022.84
6206.83
6134.05
6316.55
6018.65
6157.69
5834.31
6025.66
5940.48
6156.98
5838.05
6028.38
5933.32
5717.37
5882.9
5727.96
5886.95
14511.1
15151.5
15790
16427.1
-9.50509
-8.91979
-8.3465
-7.71545
-7.30498
-6.47172
-2.56762
-2.57504
-3.79066
-3.79689
104.279
103.894
13.6672
13.5287
610.808
649.612
471.753
499.886
610.709
649.486
471.502
500.338
378.827
219.27
241.22
342.645
378.472
219.877
240.777
343.258
1146.6
1203.26
1065.96
1016.51
1144.2
1201.56
1064.38
1014.3
748.454
812.547
869.136
952.877
750.202
811.324
868.204
950.408
14567.5
13936.4
13309.9
12671.4
9236.72
9225.52
8844.05
8835.12
8154.09
8162.73
6656.44
6964.86
6636.95
7079.78
6685.85
6980.23
6670.16
7087.56
6545.01
6825.23
6477.31
6696.24
6185.65
6505.37
6573.73
6829.97
6485.94
6690.57
6181.18
6501.48
6268.79
6509.5
6266.04
6513.58
6178.6
6169.2
6307.6
6021.96
6164.55
6163.17
6294.48
6015.41
15197.9
15827
16454.7
-9.50164
-8.94224
-8.33795
-7.57113
-7.65457
-6.38085
-4.12394
-4.12254
-4.99131
-4.99943
85.442
195.438
91.6469
31.2123
29.0395
219.664
196.457
86.6944
220.234
93.8729
32.2554
30.0641
-0.983037
-1.57623
6.68787
5.23866
-0.944983
-1.55057
7.02899
5.40836
603.705
652.537
476.963
519.673
603.799
652.239
477.22
519.241
357.448
316.346
357.202
315.881
1073.66
987.132
1071.37
985.17
720.888
779.261
721.964
778.52
15254.4
14635.3
14017.2
13421
9891.03
9899.98
9597.57
9577.3
9019.61
9009.11
8494.76
8504.11
7232.04
6817.82
7284.76
6918.28
7111.14
6714.99
7231.69
6858.26
7296.79
6930.79
7103.48
6722.27
6823.49
7115.5
6805.13
7100.74
6702.97
6914.68
6587.37
6432.77
6793.82
6550.55
6691.93
6896.95
6576.96
6434.8
6783.13
6551.52
6364.25
6532.19
6362.09
6532.91
15873.6
16491.7
-9.50141
-8.90419
-8.33731
-7.56679
-6.96871
-4.50376
-4.50867
-4.61505
-4.62633
-3.62611
-3.62559
-3.43182
-3.46212
174.926
64.9443
62.9689
208.318
22.3787
20.1373
177.497
66.8734
210.312
67.2247
23.612
21.5038
-1.02652
-1.18549
3.25956
2.45443
-1.20756
-1.24012
3.76222
3.10203
440.688
494.638
440.966
494.038
15930
15321.1
14712.9
14111.1
13470.3
9666.57
9671.58
9461.56
9436.14
7501.78
7978.19
7510.02
7891.11
7525.08
7983.72
7516.57
7888.4
7156.4
6962.02
7493.48
7319.24
7689.44
7411.86
7178.65
6975.99
7501.57
7341.05
7692.41
7410.01
7538.21
7134.87
7149.87
6952.86
7530.19
7139.32
7149.24
6970.17
6866.69
7071.76
6855.28
7051.8
6722.64
6903.78
6476.25
6592.26
6711.01
6857.34
6483.81
6596.55
16538.3
-9.51122
-8.88484
-8.43817
-7.47441
-6.61903
-3.87989
-3.86925
-4.31816
-4.31305
-2.77212
-2.15324
-2.29294
-2.65715
-2.75506
-2.1099
-2.27848
-2.60426
-2.81277
-2.78957
-1.28047
-1.1632
1.25425
1.1998
-1.35559
-1.18027
0.90582
1.39826
16594.7
15996.5
15397.7
14798.6
14204.4
10570.1
10584.8
10054.1
10065.7
9795.86
9800.53
9245.83
9244.76
7574.72
7938.4
7637.74
7939.95
7569.4
7934.9
7609.21
7907.54
7095.45
7344.35
7357.1
7626.34
7561.21
7852.87
7120.75
7337.41
7621.77
7361.97
7537.23
7830.74
7247.48
7035.18
7243.78
7043.1
-9.50808
-8.86501
-8.20492
-7.31495
-4.64917
-4.66445
-5.1148
-5.12791
-3.89689
-3.83642
-4.08277
-4.09614
-2.68477
-2.21265
-2.39016
-2.49339
-2.64777
-2.04415
-2.31099
-2.38466
-2.66116
-2.81824
-2.47244
-2.51478
-2.42921
-2.72583
-2.31949
-2.46497
-1.42294
-1.43816
-1.43825
-1.3859
16660.8
16072.7
15483.2
14893.5
14238.3
10307.5
10308.2
10044.8
10032.4
9697.24
9654.22
8235.14
7818.98
8197.82
7750.47
8230.28
7794.77
8178.19
7744.72
7765.72
7918.92
7707.7
7918.33
7751.68
7902.39
7687.21
7904.31
-9.51795
-8.84698
-8.12109
-7.29581
-4.57571
-4.54872
-5.08887
-5.109
-2.59619
-2.72503
-3.38672
-2.85088
-2.95263
-3.12803
-2.5199
-2.69556
-3.42196
-2.90321
-3.00291
-3.17837
-4.19486
-4.20296
-2.57551
-2.02578
-2.21433
-2.41941
-2.49488
-1.89111
-2.1423
-2.29348
-2.41601
-2.49787
-2.30762
-2.45506
16736.7
16159.4
15577.3
15022.2
10997
11023.8
10521.5
10537.7
10280.4
10295
9968.34
9943.35
8132.85
8711.29
8103.07
8506.43
7829.82
8344.33
8152.14
8709.03
8103.91
8488.66
7816.97
8330.6
7911.61
8353.33
7899.85
8331.36
7807.42
8018.17
7797.92
7994.32
-9.48274
-8.778
-8.08628
-5.41098
-5.40384
-5.78328
-5.79081
-4.74226
-4.71479
-5.04877
-5.01826
-2.63475
-2.71684
-3.40184
-2.98087
-3.1428
-3.23892
-2.70455
-2.7413
-3.39134
-2.95428
-3.14503
-3.16102
-3.75697
-4.0323
-3.45794
-3.6799
-3.73266
-4.01822
-3.33892
-3.64399
16822.4
16256.7
15681.4
15010
10885.1
10887
10497.8
10489.1
10152.4
10144.2
8213.81
8737.04
8868.23
8248.14
8622.87
8348.65
8860.44
8234.9
8614.11
8329.9
8189.88
8711.75
8307.39
7955
8889.89
8247.64
8314.69
7969.87
8899.61
8246.42
7872.61
8222.8
7893.97
8221.44
-9.47102
-8.7777
-8.10997
-5.45195
-5.4337
-5.77307
-5.76857
-3.74836
-3.94889
-4.43235
-3.89202
-4.13504
-4.15185
-3.63515
-3.90903
-4.39105
-3.86826
-4.11644
-4.07918
-5.2082
-5.17682
-3.42242
-3.28541
-3.44243
-3.28423
-3.40362
-3.6679
-3.34975
-3.64466
16917.5
16358.1
15781.4
11659.4
11679.1
11141.3
11164.7
11052
11050.7
10609.3
10587.3
8590.36
9085.73
8624.26
9004.41
8376.32
8862.49
8607.49
8361.94
8852.04
9094.2
8616.37
8996.45
8295.1
8547.89
8457.01
8908.63
8454.38
8287.77
8908.29
8537.39
-9.47152
-8.79075
-8.08226
-5.45036
-5.43084
-5.76031
-5.75596
-3.72702
-3.88731
-4.29725
-3.80735
-4.05744
-4.09758
-3.79789
-3.888
-4.2965
-3.89894
-4.09098
-4.11156
-4.4197
-4.68774
-4.27895
-4.48895
-4.37844
-4.6617
-4.25763
-4.4681
-3.55753
-3.75001
-3.59792
-3.74386
17021.6
16467.5
15847.8
11648
11650.1
11237.9
11228
10744.2
10764.2
8528.36
8978.75
9301.62
8780.74
9068.37
8825.77
8552.16
8992.35
9304.46
8786.25
9079.57
8830.37
8694.08
8666.45
9182.57
8971.36
8649.81
8946.75
8675.57
9166.01
-9.48207
-8.80372
-6.01574
-5.69593
-5.68991
-6.01549
-6.35759
-6.36755
-5.26691
-4.46577
-4.6447
-5.2674
-4.44037
-4.63434
-3.71474
-3.93975
-4.17998
-3.86592
-4.03257
-4.04079
-3.74002
-3.93037
-4.17065
-3.84317
-4.03204
-4.02732
-4.32639
-4.49115
-4.30243
-4.47467
17135
16607.3
16028.5
11682.7
11666.2
11222.4
11211.7
8993.12
9522.01
9031.43
9347.42
8775.86
9180.4
9040.97
8788.8
9184.7
9547.85
9038.59
9355.02
8759.69
8992.1
8841.61
9096.42
8779.55
9001.15
8854.34
9102.51
8705.17
9091.33
8703.82
9086.76
-9.50343
-8.82499
-5.67993
-5.9836
-5.67681
-5.97772
-6.2741
-6.28062
-4.59587
-4.52312
-4.53278
-4.44228
-4.5339
-4.73468
-4.57465
-4.84676
-4.51552
-4.59255
-4.52735
-4.42514
-4.52322
-4.73303
-4.57779
-4.84514
-4.19547
-4.03488
-4.18107
-4.01128
-4.41721
-4.49243
-4.3796
-4.47802
17264
16766.3
12398.7
11674.7
11644.1
12418.5
11984.5
11990.6
10750.1
9062.59
9539.57
10783.3
9093.82
9554.68
9079.56
9252.6
9219.16
9585.6
9076.69
9208.9
9259.48
9586.53
8786.17
9044.74
8938.89
9224.59
8805.21
9053.69
8951.09
9212.88
-9.52461
-8.81408
-5.57026
-4.85546
-4.694
-6.07005
-5.56066
-4.85531
-4.68842
-6.04682
-6.33259
-6.33782
-4.51687
-4.64526
-4.44047
-4.5393
-4.5568
-4.76181
-4.51637
-4.42065
-4.63247
-4.52971
-4.55713
-4.74955
-4.25021
-4.17596
-4.24194
-4.13934
17424.1
16890.8
12468.1
11571.8
11557.8
12469.3
12041.4
12030.7
9279.74
9029.07
9422.21
9012.98
9427.77
9615.68
9329.19
9917.97
9305.07
9058.89
9431.15
9040.56
9434.71
9634.78
9356.74
9924.24
9203.26
9223.09
9352.91
9542.43
9171.18
9338.53
9240.09
9551.15
-9.51587
-6.51838
-6.25886
-6.25839
-6.5386
-6.89737
-6.91713
-4.75953
-4.80111
-4.74298
-4.74802
-4.7007
-5.05778
-4.79186
-4.92247
-5.86142
-4.96542
-5.16391
-4.7696
-4.79264
-4.73766
-4.74195
-4.69091
-5.05778
-4.78695
-4.92033
-5.85766
-4.97053
-5.16481
-4.43366
-4.66771
-4.58998
-4.79697
-4.43406
-4.65287
-4.59028
-4.78313
17591.3
17050.8
12465.6
11376.6
9791.9
9346.14
11393.5
9800.64
9366.74
12437.8
11962.2
11965.5
9162.48
9245.61
9127.83
9264.58
9423.35
9493.06
9196.85
9260.8
9151.96
9439.85
9272.49
9502.72
9184.52
9385.21
9180.38
9390.82
-9.50658
-6.30032
-6.46751
-6.29721
-6.48603
-6.83654
-6.86031
-4.67575
-4.772
-4.79108
-4.8054
-4.91849
-5.02048
-5.21509
-5.10445
-5.1112
-4.94813
-5.06617
-5.4045
-5.29576
-5.57439
-4.6726
-4.76709
-4.80821
-4.78787
-4.91126
-5.01821
-5.10345
-5.19225
-5.11571
-4.95627
-5.06791
-5.3908
-5.27082
-5.55647
17767.6
13053.3
12464.3
12412.6
13091.9
12769.5
12755.6
9593.72
9599.26
9286.68
9787.81
9190.93
10239.7
9604
10051.9
9645.11
9611.08
9322.07
9799.82
9213.15
10251.9
9621.96
10044.4
11542.3
9685.49
10222
11569.5
9716.32
10216.6
9266.16
9359.01
9455
9791.5
9285.33
9367.14
9463.53
9792.24
-9.50221
-6.30567
-5.4787
-5.28404
-6.43188
-6.2735
-5.4596
-5.25421
-6.45182
-6.79042
-6.81244
-4.73172
-4.88387
-4.93249
-4.95082
-5.03754
-5.07634
-5.0912
-5.16637
-5.06311
-5.29434
-4.72365
-4.87914
-4.93055
-4.95419
-5.03447
-5.08589
-5.05989
-5.16719
-5.06197
-5.2845
17783.2
13043.4
12424.7
12377
13087
12757.2
12751
9309.24
9495.34
9718.1
9789.76
9763.09
10157.6
9329.89
9573.42
9726.58
9804.96
9739.14
10174.6
9767.58
9719.73
10227.1
9678.92
10191
10139.2
9941.12
10530.7
9829.82
9732.68
10231.8
9721.67
10207.6
10171.1
9974.27
10541.6
-9.51125
-6.76383
-6.78116
-6.26645
-5.45834
-5.20933
-5.4343
-5.27199
-6.41497
-6.23845
-5.44193
-5.20334
-5.42234
-5.24925
-6.43129
-4.96562
-4.91716
-5.07762
-5.02035
-5.08411
-5.24808
-4.95789
-4.91009
-5.04963
-5.01832
-5.07375
-5.23225
17913.6
13031.8
12344.9
10431.9
9983.04
12300.3
10436.3
9998.2
13063
12767.5
12763.8
9509.86
9793.85
9658.37
10053.9
9580.34
9810.31
9651.94
10046.9
9922.68
10048.2
9714.19
10099
10093.9
10315.4
9962.45
10047.6
9722.65
10100.1
10124.8
10319.9
-9.51575
-6.74941
-6.74078
-6.76845
-6.75928
-6.20142
-5.35634
-5.14789
-5.40461
-5.10194
-4.96293
-5.17296
-6.41971
-6.18235
-5.359
-5.16747
-5.40278
-5.1182
-4.94741
-5.16112
-6.43123
-5.04952
-5.14254
-5.018
-5.1256
17929.6
12967.2
12988.9
12409.5
10279.9
9934.07
10272.1
9951.46
12360.8
10278.5
9936.9
10272.8
9950.48
12728.5
12711.2
9995.74
9729.89
10111.2
10179
9939.69
10354.2
10045.8
9740.13
10119
9956.56
10195.1
10365.6
-9.53687
-6.74158
-6.74133
-6.76137
-6.76204
-6.42117
-6.43209
-6.16792
-5.25995
-4.93725
-5.22752
-4.97315
-5.03002
-4.85094
-5.08703
-4.79557
-4.95722
-5.07345
-6.15438
-5.25646
-4.97131
-5.23343
-4.98125
-5.02805
-4.84886
-5.08524
-4.79322
-4.92903
-5.05884
17928.6
12997.2
12961.4
13017.8
12998.2
12290.5
10140.1
9901.6
10228.1
9834.79
10164.3
10452.7
12243.3
10135.4
9915.94
10227.5
9837.15
10172.2
10461.9
12780.5
12765
10050.1
10280.5
10095.2
10291.7
-9.51769
-6.75156
-6.78993
-6.77204
-6.8054
-6.42181
-6.43116
-6.43697
-6.44207
-6.15344
-6.13725
-5.30123
-5.06881
-5.28183
-5.0975
-4.99219
-4.69536
-4.99541
-4.68327
-4.97016
-4.80819
-4.98823
-4.78133
-5.30579
-5.09189
-5.28919
-5.11172
-4.98317
-4.67138
-4.98993
-4.66542
-4.96109
-4.79505
-4.97928
-4.76443
17914.1
12960.3
12995.1
12997
13018.2
12764
12754.3
12259.7
10148.7
9847.3
10249.4
9803.65
10170
10111
10342.6
10000
10074.2
10301
12220.2
10133.9
9839.05
10235.9
9793.69
10183.2
10132.6
10353.9
10029.7
10100.3
10306.7
-9.50512
-6.84067
-6.8749
-6.85222
-6.8921
-6.43953
-6.45363
-6.45039
-6.46547
-6.16488
-6.14032
-6.14607
-6.12726
-5.32957
-5.12786
-5.35158
-5.12512
-5.33099
-5.15941
-5.35882
-5.13196
-5.08037
-4.9359
-5.12496
-4.89263
-5.09427
-4.95307
-5.13366
-4.91413
17787
12968.3
13033.5
12990.2
13063.4
12761.8
12776.7
12752.6
12762.5
12263
12227.7
10444.9
9926.61
10404.9
9995.54
10242.5
9998.89
10354.7
9970.79
10138.8
10025.2
10276.7
9922.35
10430.7
9922.34
10394.8
9982.31
10133.3
9984.25
10330.7
9895.91
10138.5
10063.7
10298.8
9964.16
-8.77876
-9.5143
-6.45455
-6.47108
-6.46728
-6.4884
-6.14561
-6.19103
-6.1313
-6.17762
-5.34102
-5.07094
-5.33004
-5.1057
-5.33317
-5.14367
-5.32056
-5.13508
-5.35255
-5.14983
-5.35176
-5.14509
-5.34244
-5.15033
-5.31815
-5.15493
-5.10161
-4.8368
-5.0877
-4.91925
-5.09851
-4.89754
-5.11064
-4.90659
17777.6
13043.1
13062.9
13085.8
13091.4
12724.4
12766.2
12710.4
12763
12261.8
12259.7
12226.5
12221.5
10355.3
10014
10440.6
9962.85
10341.5
9987.33
10418.1
9933.97
10561.6
10068.3
10437.4
10131.1
10564.6
10062.6
10423.2
10126.3
-8.80356
-6.17732
-6.26995
-6.18513
-6.27935
-9.48847
-6.22487
-6.22237
-6.20608
-6.21984
-5.2859
-5.13572
-5.31066
-5.11154
-5.33675
-5.18453
-5.36812
-5.16581
-5.28232
-5.13693
-5.29962
-5.11854
-5.33132
-5.19446
-5.36517
-5.1653
-5.10027
-4.80933
-5.06938
-4.85577
-5.14083
-4.94185
-5.1288
-4.94589
-5.10906
-4.87215
-5.09676
-4.86517
-5.14655
-4.96363
-5.13969
-4.93312
17602.5
17059.6
12754.3
12779.8
12747.1
12747.3
12290.4
12408.7
12249
12360.1
10347.3
10008.2
10430.6
9956.18
10439.1
9914.7
10393.2
9990.97
10334.8
9979.4
10407.6
9928.39
10425.3
9911.47
10383.6
9977.08
10615.2
10187.8
10656.5
10159.9
10606.5
10186.5
10642.9
10142.9
-8.7852
-6.24135
-6.3151
-6.24537
-6.32411
-5.81741
-5.96375
-5.81902
-5.9571
-9.47034
-5.36032
-5.16553
-5.37231
-5.15893
-5.40683
-5.23237
-5.53087
-5.18481
-5.34664
-5.14853
-5.35897
-5.14102
-5.39809
-5.21492
-5.51704
-5.17052
-5.09476
-4.93594
-5.12972
-4.95149
-5.08104
-4.90512
-5.07416
-4.94977
-5.10587
-4.97431
-5.14234
-4.97779
-5.0857
-4.94533
-5.0881
-4.96341
17436.5
16901.5
12471.4
12473.2
12416.8
12449
12343.9
12420.3
12292.1
12372.5
10142.3
9829.82
10220.4
9798.08
10137.6
9897.69
10223.9
9831.87
10130.6
9819.66
10206.4
9796.16
10133.4
9907.17
10219.6
9835.31
10609.8
10186.6
10658.6
10156.8
10554.2
10053.1
10416
10126.8
10600.6
10180.3
10649.6
10137.7
10556
10046.9
10402
10120.9
-8.04474
-8.7716
-5.93916
-5.95711
-5.92999
-5.95606
-4.92183
-5.01149
-4.94226
-4.87716
-4.95892
-5.24927
-4.75482
-5.04985
-4.83549
-4.99171
-4.93041
-5.00995
-4.94685
-4.88311
-4.96183
-5.2445
-4.76868
-5.05177
-4.84194
-4.99607
-9.45853
-5.01657
-4.8453
-5.03164
-4.8265
-5.0738
-4.84001
-5.01442
-4.84841
-5.03314
-4.8278
-5.07558
-4.8425
-4.92605
-4.69662
-4.87902
-4.74885
-4.9263
-4.74917
-4.90053
-4.75873
17276.3
16779.6
12474.8
12407.5
12479.4
12430.8
11540
11975.2
11580
11981.7
10278.1
9931.67
10269
9947.11
10420.8
9942.16
10532.3
9966.75
10271.3
9927.72
10263.7
9943.54
10429.6
9982.61
10552.3
9989.92
10251.8
9980.58
10333.2
9970.28
10167.4
10108.5
10336.6
10000.8
10131.5
9968.88
10303.4
9915.31
10179.2
10111.7
10344.1
10017.2
-8.06285
-5.62545
-5.69087
-5.61501
-5.69027
-8.76094
-5.54651
-5.58823
-5.53502
-5.58071
-4.82147
-4.90419
-4.88728
-4.96027
-4.9308
-5.02163
-4.7186
-4.86333
-4.84185
-4.94264
-4.82184
-4.88397
-4.88429
-4.96233
-4.91858
-5.02276
-4.71259
-4.86092
-4.82508
-4.93579
-9.46024
-4.82542
-4.68718
-4.84085
-4.68927
-4.82311
-4.66667
-4.8215
-4.72097
-4.8538
-4.68288
-4.8149
-4.64905
17147.3
16619.3
16044.9
12051.8
12002
12043.2
12005.2
9700.87
9786.35
10217.8
9677.91
10189.7
10136.7
9598.14
10243.9
9688.34
10223.3
9790.16
9751.57
10231.1
9728.25
10210.4
10157.7
9650.29
10256.7
9720.86
10219.2
10345.6
10158.4
10447.7
10100.1
10301.8
10038
10354.6
10161.2
10453.1
10109.4
10306
10030.2
10142.4
10031
10270.1
9928.83
10141.5
10043.6
10286.7
9956.28
-8.04086
-5.71445
-5.73454
-5.7161
-5.74251
-5.24724
-5.33578
-5.24203
-5.32364
-8.75351
-4.73938
-4.6632
-4.68659
-4.62858
-4.80464
-4.55874
-4.82674
-4.62728
-4.7276
-4.65718
-4.68185
-4.60751
-4.79409
-4.5627
-4.82662
-4.60874
-4.7457
-4.85917
-4.65807
-4.71084
-4.62983
-4.78834
-4.71582
-4.85421
-4.64653
-4.70851
-4.60838
-4.77807
-9.47111
17034.2
16479.8
15859.6
11688.6
11692.6
11657.3
11679.9
11393.7
11608.9
11405
11584.9
9888.06
9715.6
10093.2
10089.9
9656.06
10049.9
9614.1
10063.4
9770.13
10161.4
9979.44
9723.71
10126.3
10099.7
9643.61
10038.6
9630.47
10058
9746.41
10179.5
10267.7
10073.2
10296.5
10041.6
10163.7
9984.83
10276.6
10087.3
10298.5
10075.5
10182.1
10013.4
-7.32276
-8.01789
-5.39425
-5.35559
-5.37989
-5.3602
-4.41335
-4.53145
-4.42136
-4.36857
-4.47395
-4.71263
-4.30554
-4.56593
-4.36452
-4.52332
-4.41771
-4.52202
-4.42601
-4.37235
-4.47759
-4.71077
-4.30786
-4.56444
-4.36064
-4.52324
-8.86748
-4.73662
-4.57311
-4.64844
-4.58217
-4.67406
-4.511
-4.71683
-4.55704
-4.64109
-4.55617
-4.66078
-4.48519
-9.51559
16930.3
16370.9
15793.1
11655
11666.7
11661.2
11688.8
10751.4
11228.4
10784.3
11225
9587.18
9290.88
9786.87
9194.08
9804.27
9344.71
9935.78
9350.98
9593.32
9326.89
9799.98
9213.17
9814.87
9372.75
9942.8
9380.31
9699.9
9929.29
9504.08
9800.9
9520.18
9801.16
9764.39
9956.29
9582.82
9817.27
9589.21
9819.85
-7.18493
-5.05391
-5.12918
-5.05873
-5.13988
-8.19867
-5.07504
-5.02816
-5.05279
-5.02079
-4.37621
-4.30554
-4.42925
-4.38976
-4.3231
-4.42243
-4.27657
-4.40937
-4.29657
-4.43058
-4.377
-4.30332
-4.43118
-4.39874
-4.31706
-4.42026
-4.26536
-4.4071
-4.28114
-4.42304
-8.94601
-4.45848
-4.28702
-4.453
-4.28231
-9.50981
16835.4
16269.6
15694.1
15020.8
11243.9
11152.5
11237.2
11176.2
9037.05
9286.03
9437.91
9021.46
9442.83
9612.3
9003.91
9530.98
9066.05
9544.05
9306.73
9066.71
9447.77
9051.95
9453.62
9633.82
9050.39
9556.77
9097.32
9559.78
9805.47
9314.59
9723.43
9375.34
9515.48
9276.92
9807.87
9336.39
9731.85
9386.81
9520.6
9279.72
-6.40064
-7.53376
-4.63083
-4.75705
-4.62323
-4.75884
-8.42281
-4.31246
-4.16524
-4.25712
-4.09579