/*--------------------------------*- C++ -*----------------------------------*\
| =========                 |                                                 |
| \\      /  F ield         | OpenFOAM: The Open Source CFD Toolbox           |
|  \\    /   O peration     | Version:  5.x                                   |
|   \\  /    A nd           | Web:      www.OpenFOAM.org                      |
|    \\/     M anipulation  |                                                 |
\*---------------------------------------------------------------------------*/
FoamFile
{
    version     2.0;
    format      ascii;
    class       volScalarField;
    location    "0.3";
    object      p_rgh;
}
// * * * * * * * * * * * * * * * * * * * * * * * * * * * * * * * * * * * * * //

dimensions      [1 -1 -2 0 0 0 0];

internalField   nonuniform List<scalar> 
12160
(
5667.43
5618.58
5668.39
5563.31
5619.03
5672.83
5506.74
5563.59
5621.74
5676.13
5453.2
5506.16
5565.03
5624.11
5684.01
5404.96
5452.12
5505.25
5565.96
5629.4
5691.68
5364.96
5403.57
5450.04
5503.01
5568.86
5635.43
5701.44
5332.1
5363.53
5400.79
5446.42
5500.74
5572.2
5644.08
5706.87
5306.46
5330.78
5360.66
5396.31
5442.05
5496.7
5576.55
5657.8
4187.41
5286.59
5305.31
5328.12
5356.19
5390.54
5435.53
5491.49
5584.08
3650.92
398.638
5271.5
5285.63
5302.99
5324.04
5350.38
5382.3
5428.06
5483.63
3017.2
514.031
1.67795
5260.12
5270.71
5283.7
5299.48
5318.73
5342.35
5373.31
5415.94
2111.98
318.172
6.88135
-0.0487188
5251.6
5259.5
5269.15
5280.8
5294.91
5311.5
5334.02
5357.72
1573.24
121.283
2.9593
-0.134849
-0.0488084
5245.26
5251.11
5258.25
5266.81
5277.02
5288.78
5304.24
5318.95
1089.5
46.0559
0.585193
-0.109086
-0.129573
-0.0306565
5240.55
5244.88
5250.14
5256.4
5263.76
5272
5282.76
5290.73
774.837
15.575
0.149374
-0.00203024
-0.0672618
-0.0587648
-0.013913
5237.07
5240.26
5244.12
5248.69
5253.99
5259.76
5267.15
5271.3
543.2
5.43465
0.104179
0.0403661
-0.00395802
-0.0375564
-0.0183097
5234.49
5236.84
5239.67
5243
5246.8
5250.84
5255.92
5257.82
381.933
1.96048
0.103233
0.0726155
0.0259859
-0.0028898
-0.0118649
5232.59
5234.31
5236.39
5238.8
5241.53
5244.36
5247.84
5248.5
268.734
0.734946
0.0941665
0.0787626
0.0494079
0.0146687
-0.00106206
5231.2
5232.45
5233.96
5235.72
5237.67
5239.65
5242.04
5242.05
189.577
0.300529
0.0787347
0.0723377
0.0546198
0.0286603
0.00468327
5230.18
5231.09
5232.18
5233.45
5234.85
5236.23
5237.86
5237.56
134.136
0.137005
0.0614934
0.0610235
0.0508397
0.0321089
0.00929564
5229.46
5230.1
5230.88
5231.78
5232.78
5233.74
5234.85
5234.43
95.2364
0.0708924
0.0462062
0.0481566
0.0433848
0.0301631
0.0105285
5228.96
5229.39
5229.94
5230.57
5231.27
5231.93
5232.68
5232.23
67.8712
0.0411161
0.0340308
0.0365324
0.034556
0.0259498
0.00996466
5228.64
5228.91
5229.26
5229.69
5230.17
5230.61
5231.12
5230.69
48.5689
0.0258886
0.0248796
0.0270573
0.0264188
0.0208018
0.00863169
5228.47
5228.59
5228.8
5229.06
5229.37
5229.66
5229.99
5229.59
34.9127
0.017174
0.0181503
0.0197971
0.0196789
0.0159866
0.00695701
5228.43
5228.43
5228.5
5228.63
5228.81
5228.98
5229.18
5228.82
25.2309
0.0118971
0.0133237
0.0143956
0.0144677
0.0119527
0.00537064
5228.52
5228.39
5228.34
5228.35
5228.42
5228.49
5228.59
5228.27
18.3522
0.00877827
0.0100002
0.0104924
0.0105871
0.00880764
0.00402858
5228.72
5228.47
5228.3
5228.21
5228.17
5228.16
5228.18
5227.89
13.4668
0.00714487
0.00788503
0.00777951
0.00780028
0.00645132
0.00297529
5229.06
5228.67
5228.38
5228.17
5228.04
5227.94
5227.9
5227.62
10.0127
0.00659415
0.00687082
0.00601609
0.00588527
0.00474843
0.00218387
5229.55
5229
5228.57
5228.24
5228
5227.82
5227.72
5227.43
7.60013
0.00683065
0.00669051
0.0050665
0.00465083
0.00357064
0.00161119
5230.2
5229.47
5228.88
5228.41
5228.06
5227.79
5227.62
5227.32
5.94941
0.00759244
0.00720299
0.00476515
0.00399866
0.00280525
0.00121417
5231.05
5230.11
5229.32
5228.7
5228.21
5227.84
5227.59
5227.25
4.87862
0.00869356
0.0080609
0.0049759
0.00377154
0.00238921
0.000956858
5232.13
5230.94
5229.93
5229.11
5228.46
5227.96
5227.62
5227.22
4.26451
0.0098014
0.00916358
0.00550373
0.00390379
0.00223793
0.0008163
5233.49
5231.99
5230.71
5229.66
5228.82
5228.17
5227.72
5227.24
4.03766
0.0107303
0.0102013
0.00624955
0.00424209
0.00230464
0.000761523
5235.17
5233.32
5231.72
5230.38
5229.32
5228.47
5227.89
5227.29
4.15908
0.0112039
0.0110337
0.00701234
0.00472596
0.00250504
0.000778603
5237.24
5234.96
5232.98
5231.31
5229.96
5228.89
5228.14
5227.38
4.63135
0.011245
0.0114603
0.007606
0.00521353
0.00279333
0.000841188
5239.77
5236.99
5234.54
5232.47
5230.78
5229.43
5228.47
5227.52
5.47637
0.0108246
0.0114814
0.00793076
0.00560398
0.00308487
0.000932663
5242.83
5239.46
5236.47
5233.93
5231.83
5230.13
5228.92
5227.72
6.74397
0.0100725
0.0111044
0.00796313
0.00581219
0.00331969
0.00102595
5246.51
5242.45
5238.83
5235.72
5233.13
5231.01
5229.49
5227.99
8.51069
0.00929845
0.0103479
0.00770044
0.00583074
0.00344493
0.00110083
5250.9
5246.05
5241.69
5237.91
5234.74
5232.12
5230.23
5228.34
10.8821
0.00869606
0.0095877
0.00722639
0.00564177
0.00345829
0.00114092
5256.11
5250.35
5245.14
5240.58
5236.72
5233.5
5231.16
5228.79
13.9967
0.00845111
0.00891601
0.00674212
0.00534303
0.0033516
0.00114474
5255.47
5266.22
5249.27
5243.8
5239.13
5235.2
5232.32
5229.37
18.0293
0.00869649
0.00850227
0.00635646
0.00503173
0.00318679
0.00111196
5254.19
5265.4
5285.94
5247.67
5242.06
5237.29
5233.76
5230.11
23.1982
0.00954575
0.00848272
0.00618207
0.0047879
0.00301346
0.00106121
5252.3
5263.76
5284.81
5312
5245.59
5239.83
5235.54
5231.06
29.7692
0.0111062
0.00897976
0.00631631
0.00469078
0.00287771
0.00100739
5249.83
5261.31
5282.53
5310.51
5344.57
5242.92
5237.72
5232.24
38.0659
0.0134991
0.0100889
0.00685061
0.00480805
0.00283088
0.000966067
5246.64
5258.13
5279.14
5307.54
5342.75
5383.43
5240.39
5233.73
48.4779
0.0169039
0.0118452
0.00785212
0.00520483
0.00291815
0.000954745
5243.64
5254
5274.71
5303.08
5339.09
5381.35
5427.59
5235.58
61.4673
0.0214802
0.0142066
0.00932406
0.00592857
0.00317834
0.000989231
5237.87
5250.1
5268.88
5297.27
5333.58
5377.09
5425.38
5473.52
77.5735
0.0275857
0.0171676
0.0112315
0.00697027
0.00363475
0.00108199
97.3793
5242.58
5263.37
5289.51
5326.39
5370.65
5420.72
5473.28
5515.98
0.0360514
0.0208382
0.0135959
0.00830453
0.00426897
0.0012389
0.048805
137.793
5252.74
5282.14
5316.68
5362.25
5413.6
5468.78
5524.69
5572.63
0.0254399
0.0165333
0.0099677
0.00506339
0.00145105
0.0312204
0.0796473
223.392
5268.01
5307.33
5350.8
5404.3
5461.31
5520
5583.92
5447.09
0.0202191
0.0120687
0.00605529
0.00171253
0.0247562
0.0417348
0.200333
349.587
5289.83
5339.57
5391.51
5451.31
5512.23
5577.55
5617.45
5755.54
0.0147421
0.00732866
0.00204184
0.0180194
0.03318
0.0617217
0.573117
526.457
5319.49
5378.69
5437.58
5501.44
5566.75
5618.16
5743.66
5852.03
5913.92
0.00896611
0.00247201
0.0109623
0.0241093
0.0484634
0.083468
1.72686
763.265
5357.39
5423.49
5486.76
5553.4
5615.66
5708.13
5786.76
5890.95
5955.12
6042.44
0.00302885
0.00370253
0.0146367
0.0348458
0.0644841
0.101727
4.99061
1063.83
5402.54
5471.57
5536.84
5601.44
5672.82
5740.17
5819.42
5901.62
5980.36
6063.62
6159.88
0.00492986
0.0209951
0.0458096
0.0772538
0.10909
13.1861
1423.05
5452.2
5520.23
5582.16
5643.88
5698.61
5763.65
5823.33
5903.46
5992.66
6080.41
6171.56
6268.22
0.00702571
0.0273756
0.0542533
0.0817047
0.105139
30.9686
1822.36
5502.71
5564.22
5618.92
5665.42
5716.5
5759.8
5827.5
5868.27
5995.52
6091.57
6183.32
6275.73
6369.69
0.00909984
0.0321817
0.0570231
0.0757174
0.111193
63.5867
2234
5548.64
5598.55
5638.96
5678.72
5708.02
5760.35
5765.21
5847.34
5976.22
6095.9
6194.22
6286.39
6375.78
6463.71
0.0106323
0.0336857
0.0528529
0.0621389
0.178405
113.78
2614.91
5583.92
5618.77
5650.11
5668.98
5698.69
5695.42
5786.69
4432.37
5955.43
4450.96
4440.61
4457.01
6086.1
6201.33
6299.01
6386.5
6469.8
6550.53
0.0110884
0.031185
0.0431975
0.0436191
0.391658
177.659
2917
5606.66
5630.06
5642.33
5652.69
5642.08
5684.26
5572.98
4434.23
4437.15
6093.69
4457.43
4387.28
4414.34
4428.16
4474.22
4459.03
6197.94
6310.47
6401.22
6481.51
6557.13
6629.43
0.0102437
0.0253506
0.0295376
0.0215772
0.837724
240.475
3120.63
5620.7
5625.76
5621.92
5598.52
5596.62
5510.62
4533.31
4514.29
4558.44
4544.16
4452.18
4445.93
6218.2
6089.43
4451.1
4407.58
4417.88
4417.36
4531.6
4499.85
6319.82
6418
6498.32
6570.2
6636.69
6699.77
0.00827915
0.0169434
0.0129207
-0.00725633
1.45992
292.915
3264.55
5621.48
5607.5
5572.32
5531.71
5457.37
4593.18
4581.03
4614.28
4607.08
4386.89
4382.96
4468.47
4461.91
4434.38
3856.99
3633.13
3791.29
3686.7
6346.02
6141.05
4353.2
4349.84
4377.88
4372.24
4407.67
4394.51
4381.62
3849.84
3632.75
3788.17
3681.79
3869.65
3756.7
3949.2
3697.51
3860.98
3755.45
3943.78
3687.7
6438.68
6519.08
6589.42
6651.22
6707.63
6760.92
0.0054236
0.00676927
-0.00853651
-0.0403361
2.17355
332.895
3324.58
5608.88
5563.62
5497.84
5400.39
4640.52
4635.9
4658.27
4656.13
4489.26
4483.91
4530.03
4523.92
3728.52
3761.4
3896.17
3751.2
3905.75
3832.72
3752.69
3726.1
3891.65
3751.53
3904.49
3827.08
3839.68
3979.84
3795.13
3941.44
3844.04
3980.96
3797.31
3941.23
3683.76
3578.83
3726.43
3543.5
3929.8
3761.91
3905.6
3789.05
6478.35
6273.38
4269.39
4256.21
4306.36
4296.76
4287.12
4279.03
4136.89
4126.17
3682.47
3578.12
3723.93
3539.49
3676.23
3305.38
3575.19
3486.66
3677.04
3308.39
3572.13
3485.19
3927.72
3763.57
3903.45
3793.46
3872.98
3758.18
3867.92
3747.66
6546.72
6614.49
6673
6723.4
6769.25
6812.42
0.0020058
-0.00623054
-0.0319839
-0.0758674
2.78211
347.897
3302.46
5574.03
5493.48
5369.22
4682.58
4682.47
4734.64
4736.65
4567.32
4561.38
4635.8
4629.98
3880
4015.19
3924.03
4060.9
3888.24
4018.29
3937.56
4065.44
4034.14
4153.62
3978.98
4105.95
4048.88
4159.28
3991.67
4111.35
3776.51
3791.76
4031.49
3902.18
3837.23
4039.96
3770.84
3789.56
3897.82
4031.73
3832.98
4033.16
3936.66
4098.31
3893
4066.05
3933.37
4088.36
3888.66
4055.01
3856.14
3728.29
3879.86
3696.24
3902.75
3781.4
3894.05
3807.13
6582.34
6510.55
4248.13
4234.53
4257.08
4242.6
4217.09
4205.25
4235.9
4227.19
3267.8
3491.01
3328.63
3553.07
3277.36
3495.23
3337.86
3555.43
3412.75
3388.99
3577.26
3354.78
3571.88
3646.48
3425.76
3388.92
3587.23
3366.34
3577.1
3646.38
3855.99
3728.34
3878.46
3697.23
3831.3
3621.15
3832.72
3620.65
3897.49
3776.35
3888.55
3798.44
3900.8
3804.88
3895.65
3795.87
6645.82
6702.17
6747.25
6785.98
6821.09
6853.92
-0.00238128
-0.0198127
-0.0562814
-0.113877
2.87949
331.158
3137.5
5513.76
5378.67
4807.42
4809.58
4869.8
4871.9
4686.27
4682.2
4728.43
4726.71
4087.81
4202.77
4128.99
4245.07
4099.06
4207.99
4142.5
4251.06
4270.55
4390.3
4201.88
4296.59
4281
4395.05
4209.53
4301.54
3972.91
4129.23
4019.14
4181.03
3972.44
4123.05
4024.49
4181.93
4137.09
4275.64
4077.88
4238.24
4146.26
4276.38
4082.52
4241.11
3853.14
3752.02
3874.31
3719.36
6677.59
6597.34
4265.37
4263.25
4259.24
4241.38
4220.34
4206.31
4224.84
4211.98
3059.91
3259.34
3100.68
3304.88
3087.59
3269.16
3122.39
3314.34
3203.48
3411.25
3139.1
3345.92
3214.83
3418.75
3156.7
3353.11
3393.97
3645.06
3440.72
3674.86
3400.68
3645.08
3446.14
3676.25
3554.49
3457.12
3647.42
3718.71
3456.99
3678
3550.06
3467.74
3654.62
3716
3464.72
3682.17
3846.6
3745.94
3867.8
3710.8
3841.67
3672.28
3836.99
3665.71
6739.3
6779.56
6811.29
6838.51
6862.82
6885.19
-0.00675626
-0.0337953
-0.0814867
-0.155782
2.1837
266.509
2777.32
5415.45
5183.14
4767.54
4767.18
4797.68
4797.55
4614.74
4614.19
4671.55
4667.1
4182.44
4304.51
4213.8
4315.4
4187.08
4304.85
4215.98
4314.86
4250.02
4290.11
4238.51
4291.42
4255.79
4292.16
4239.33
4291.75
4161.74
4277.01
4166.75
4277.9
6781.26
6694.27
4150.19
4174.49
4268.54
4280.01
4230.04
4212.65
4278.77
4262
2909.08
3287.46
3064.93
3356.8
2929.21
3292.45
3079.72
3359.62
3055.57
3244.1
3053.42
3268.01
3079.17
3253.75
3082.22
3275.63
3257.96
3408.08
3307.28
3522.61
3248.74
3394.68
3294.77
3518.32
3358.48
3624.09
3338.8
3602.73
3360.24
3621.8
3333.5
3598.24
6820.87
6845.58
6864.85
6880.68
6894.24
6906.09
-0.0111602
-0.0483979
-0.107523
-0.204823
0.661737
147.869
2124.82
5230.25
4841.97
4838.91
4894.66
4894.23
4742.55
4734.48
4792.04
4787.39
4380.85
4254.73
4332.83
4296.03
4381.34
4255.28
4333.45
4296.56
4433.78
4396.73
4479.41
4350.5
4434.04
4399.62
4479.93
4350.48
4205.31
4290.42
4238.13
4311.54
4205.62
4290.03
4237.47
4310.75
4248.55
4301.04
4253.34
4313.7
4251.94
4301.65
4253.01
4313.15
6870.36
6825.12
6703
4058.92
4058.74
4159.73
4136.35
4154.95
4135.65
4013.02
4013.78
2963.51
3280.9
3216.34
3496.61
2968.9
3283.16
3220.41
3492.2
3255.57
3413.29
3255.79
3444.88
3253.63
3406.23
3256.91
3434.72
3274.21
3433.79
3276.87
3426.79
6889.24
6900.45
6907.66
6912.38
6915.23
6916.56
-0.0155041
-0.064112
-0.129062
-0.218823
-0.297485
25.5254
882.659
3787.63
4775.19
4771.3
4779.71
4775.44
4460.22
4527.22
4598.4
4520.82
4460.09
4526.65
4596.43
4518.25
4723.94
4718.33
4451.15
4282.67
4405.14
4330.96
4450.29
4284.29
4404.59
4329.63
4475.18
4419.75
4499.52
4382.86
4474.37
4420.99
4498.99
4383.31
4259.55
4372.06
4262.35
4370.84
6942.83
6932.86
6888.35
4110.37
4111.01
4258.42
4244.83
4172.04
4164.86
4251.39
4227.46
3214.41
2856.52
3096.16
2960.47
3204.21
2880.83
3102.81
2953.7
3266.01
3029.64
3268.75
3001.27
3259.5
3034.58
3270.5
2998.08
3149.54
3306.57
3269.49
3451.51
3160.45
3313.27
3265.69
3445.42
3301.18
3450.84
3303.81
3469.75
3301.39
3442.11
3302.98
3461.8
6945.73
6944.02
6939.73
6933.51
6925.71
-0.0196335
-0.0821611
-0.121961
-0.274201
-0.350213
2.41517
231.749
3169.68
3159.07
1504.48
1498.3
4539.56
4637.87
4481.88
4681.08
4540.39
4637.99
4482.59
4681.49
4394.23
4392.18
4455.89
4500.76
4512.12
4482.97
4456.42
4500.16
4511.21
4481.27
4534.24
4603.29
4513.55
4574.74
4534.86
4602.22
4512.42
4573.65
4492.17
4427.67
4504.22
4392.79
4490.72
4428.09
4502.77
4394.09
7001.61
7010.37
7026.95
7023.36
4147.28
4124.94
4003.91
4004.43
3968.56
3950.25
2864.09
3154.58
3075.48
2712.81
2885.28
3165.64
3075.22
2710.23
3218.76
2981.01
3162.95
3029.03
3213.03
2975.02
3157.56
3024.81
3321.45
3147.07
3338.45
3104.19
3320.71
3150.76
3341.13
3097.01
3173.57
3339.14
3184.14
3343.17
6990.09
6976.5
6961.06
6944.07
-0.0220903
-0.090795
-0.171518
-0.194637
-0.391481
-0.244006
2.811
2.80357
1.91947
1.91324
2384.78
2373.58
564.716
558.068
4524.71
4614.99
4432.79
4628.75
4526.6
4614.87
4435.1
4629.21
4626.74
3544.04
4197.46
4111
4624.94
3536.51
4189.54
4115.03
4461.53
4518.2
4537.71
4488.24
4459.15
4516.52
4536.13
4486.03
4540.96
4611.92
4516.72
4600.53
4543.2
4610.69
4515.82
4598.07
7046.57
7069.8
7099.05
7121.2
4191.92
4180.72
4133.79
4124.89
3774.21
3782.85
2684.74
2993.14
2499.54
2942.3
2714.16
3008.52
2532.77
2950.12
2739.53
3019.71
2837.73
3056.65
2704.32
3024.04
2768.23
3024.46
2846.33
3050.97
2699.82
3020.14
2950.06
3190.78
2947.26
3194.84
3149.81
2999.92
3138.37
2993.11
3135.7
2993.85
3125.19
2986.54
7022.93
6998.04
6971.71
-0.0186377
-0.113253
-0.163023
-0.0504416
-0.778953
-0.17968
1.24604
1.24741
0.710956
0.702799
2280.88
3336.57
3021.87
1243.54
1289.58
4080.18
3329.77
2279.44
4072.84
3080.9
1246.06
1335.46
89.6801
125.444
380.476
301.157
97.086
114.302
397.16
297.318
4523.62
4624.52
4397.37
4639.59
4524.37
4624.23
4400.46
4639.09
4582.31
3943.66
4579.58
3941.87
4578.53
4491.98
4576.28
4490.07
4550.34
4611.92
4551.35
4611.19
7079.42
7114.49
7151.37
7212.86
4180.91
4189.91
4218.95
4198.7
3985.15
3974.65
3797
3806.31
2948.56
2370.01
2836.92
2634.72
2982.19
2586.06
2948.16
2410.49
2848.99
2647.21
2974.48
2593.29
2858.05
3150.07
2839.65
3135.29
2903.53
3115.27
2939.69
2960.98
3146.14
3078.77
2892.49
3097.53
2929.24
2963.01
3135.43
3079.74
3049.27
3217.24
3047.09
3217.93
7044.62
7008.75
-0.0184132
-0.0752165
-0.162537
-0.0440329
-0.107524
1.51799
1.52088
1.73922
1.72994
1.77524
1.73245
2.25805
2.22766
3393.54
1765.43
1643.5
4329.96
754.759
352.757
3365.27
1784.91
4336.3
1795.35
836.813
411.513
16.527
19.8953
193.27
134.495
21.5102
19.1257
243.176
148.922
4353.25
4646.37
4352.95
4645.77
7101.06
7146.24
7192.47
7247.14
7270.1
3964.32
3969.37
4091.52
4066.12
2393.06
2869.39
2570.85
2951.93
2416.36
2874.95
2577.36
2949.2
2538.97
2523
2876.08
2543.59
2913.79
2972.87
2561.1
2536.89
2884.08
2565.32
2916.69
2970.94
3249.59
3014.24
2861.16
2832.12
3241.51
3018.65
2860.47
2849.45
2894.49
3099.69
2883.09
3079.69
2889.66
3071.03
2971.33
3087.34
2878.02
3024.51
2978.88
3091.63
7055.36
-0.0282241
-0.0559213
-0.263695
0.0436513
0.23054
2.12849
2.15184
2.02447
2.03228
2.8458
3.55794
4.5177
2.77737
2.72913
3.37378
3.70034
2.83218
2.85771
2.88221
9.90256
8.0353
60.0337
27.5732
6.86948
8.66873
57.8436
39.2733
7111.69
7167.5
7222.92
7279.15
7344.99
4216.02
4230.68
4033.59
4045.19
4106.03
4110.75
3887.64
3886.59
2472.66
2836.35
2708.34
3010.57
2467.32
2832.82
2679.78
2978.13
2623.49
2688.56
2885.2
2970.64
2778.49
3070.24
2648.69
2681.59
2966.03
2890.01
2754.49
3048.05
3095.72
2883.27
3091.98
2891.15
-0.0250995
-0.0362311
-0.0313411
0.199187
2.0218
2.00648
1.89588
1.88279
2.09972
2.17107
2.24666
2.23405
2.89315
6.43504
6.50562
2.93313
2.85541
5.23501
5.36106
3.05074
3.06922
2.91571
3.09141
3.0578
3.30364
3.03066
3.24957
3.13851
37.0009
25.3245
20.9329
26.1319
7177.83
7243.85
7308.89
7376.03
7388.81
3966.15
3966.8
4042.32
4029.97
4027.56
3984.49
2802.77
2549.58
2928.46
2317.92
2797.9
2525.33
2908.78
2312.21
2659.8
2813.03
2748.71
2959.39
2645.78
2796.5
2728.23
2945.36
-0.0350045
-0.0184814
0.051211
0.213857
2.0875
2.11445
1.91721
1.89704
3.13034
3.01964
2.66428
3.0427
2.94404
2.92554
3.21509
3.08596
2.62914
2.98643
2.89262
2.87289
2.11653
2.10847
2.88834
3.7714
3.63348
3.00792
2.97389
3.82526
4.26187
3.13917
3.17094
3.10251
3.28487
3.1854
7253.73
7330.63
7403.72
7508.04
3986.32
4013.16
3850.54
3866.85
3954.58
3969.34
3987.46
3962.48
2402.88
2981.22
2540.19
2943.59
2404.94
2919.46
2422.12
2978.97
2540.88
2925.71
2391.98
2905.64
2635.45
3077.19
2623.62
3055.17
2664.14
2875.08
2654.72
2851.21
0.000138408
0.0499933
0.0845512
1.92913
1.93622
1.8905
1.88296
1.91855
1.94594
1.95396
1.98439
3.12334
3.06109
2.64758
2.93486
2.77263
2.81049
3.05425
3.04851
2.66489
2.99868
2.79038
2.89877
2.63984
2.36462
2.76213
2.54045
2.66406
2.37858
2.88746
2.57903
7339.45
7428.2
7509.14
7500.34
3879.03
3880.93
3834.6
3825.85
3840.98
3832.74
2487.93
3011.14
2817.38
2360.89
2735.63
2297.29
2809.61
2347.55
2726.81
2278.65
2463.88
2985.78
2721.29
2528.67
3303.83
2821.34
2728.47
2543.39
3313.47
2820.05
2562.6
2912.78
2583.81
2911.36
0.0117212
0.0494366
0.057081
1.8819
1.9001
1.89581
1.9003
2.65663
2.45627
2.3114
2.68616
2.44321
2.59203
2.76997
2.49605
2.35264
2.70994
2.46177
2.66459
1.78623
1.81754
2.65642
2.79344
2.66481
2.88062
2.86831
2.59348
2.91902
2.61199
7434.67
7530.14
7610.6
3985.66
4005.34
3801.22
3824.71
4049.32
4048.01
3948.39
3926.35
2193.55
2688.84
2404.67
2784.81
2326.89
2813.07
2210.62
2312.43
2802.55
2697.31
2396.69
2776.8
2540.63
2793.46
2541.79
2993.4
2539.09
2533.19
2993
2782.9
0.0109665
0.0345336
0.0757354
1.87269
1.89213
1.90018
1.9045
2.70105
2.53775
2.43824
2.77007
2.51905
2.6379
2.62481
2.5347
2.43896
2.67707
2.48504
2.62388
2.65156
2.3836
2.61978
2.40977
2.69273
2.40956
2.64101
2.43058
2.82527
2.56934
2.70774
2.56181
7538.87
7640.4
7680.74
3979.09
3981.25
3904.04
3894.23
3749.83
3769.77
2123.36
2573.74
2557.8
2202.37
2490.04
2081.77
2147.08
2587.28
2560.63
2207.81
2501.19
2086.4
2442.39
2587.6
2930.9
2892.5
2570.89
2867.85
2423.8
2914.28
-0.000113677
0.018614
1.96546
1.95389
1.95987
1.96567
1.96195
1.95199
2.03953
2.59985
2.42093
2.03903
2.62516
2.43124
2.78627
2.52722
2.54706
2.73095
2.56309
2.6863
2.71323
2.52287
2.55637
2.75212
2.56325
2.69969
2.57117
2.40639
2.59505
2.42283
7652.47
7782.01
7870.5
4022.2
4005.72
3899.44
3888.79
1921.95
2450.67
2132.79
2448.71
2040.3
2444.91
1969.77
2053.19
2449.16
2476.56
2139.87
2456.29
2336.86
2569.3
2265.41
2520.3
2356.64
2578.3
2278.08
2526.35
2399.39
2785.59
2398
2780.98
-0.0223197
-0.00748219
1.95897
1.98775
1.96202
1.99356
2.03947
2.03295
2.61411
2.52146
2.51181
2.61518
2.52356
2.47534
2.80822
2.53621
2.52907
2.61747
2.51723
2.63226
2.5342
2.47699
2.80506
2.53777
2.55254
2.71321
2.5669
2.7367
2.48536
2.41012
2.52293
2.4245
7782.08
7943.99
4079.13
4024.8
3994.24
4098.97
4003.36
4009.49
3443.55
1997.08
2473.95
3476.72
2028.24
2489.07
2352.5
2355.12
2492.12
2688.06
2349.57
2481.82
2361.88
2688.94
2332.72
2591.35
2343.45
2629.22
2351.7
2600.25
2355.61
2617.48
-0.0447085
-0.0018283
2.05542
2.52248
2.68406
1.88779
2.06497
2.52261
2.68958
1.91093
1.97353
1.96828
2.54261
2.56478
2.48068
2.38185
2.50271
2.44823
2.54316
2.50052
2.57759
2.39144
2.50239
2.46051
2.54096
2.61524
2.54921
2.65182
7943.03
8073.3
4154.53
3932.84
3918.89
4155.73
4070.05
4059.44
2069.58
1984.4
2377.51
1955.54
2370.25
2405.54
1946.2
2534.91
2094.81
2014.1
2386.38
1983.01
2377.16
2424.59
1973.74
2541.22
2455.24
2320.52
2604.84
2639.84
2423.04
2590.39
2337.38
2648.48
-0.036481
2.12533
2.04266
2.04309
2.10505
2.08367
2.06391
2.93869
2.57253
2.62533
2.6203
2.67307
2.64056
2.73416
2.60358
2.08734
2.72241
2.52398
2.92849
2.58099
2.63068
2.62638
2.68283
2.64043
2.73907
2.6057
2.09105
2.71725
2.52302
2.66103
2.56103
2.50471
2.43176
2.66064
2.5759
2.50442
2.44562
8111.37
8238.56
4159.49
3750.92
2413.93
1968.08
3767.87
2422.65
1988.66
4131.8
4004.51
4007.84
2102.78
2035.52
2206.61
2204.99
2502.13
2282.95
2137.04
2050.63
2230.6
2518.55
2212.81
2292.55
2393.29
2593.96
2389.04
2599.49
-0.0278346
1.99862
2.17363
2.00161
2.15505
2.14274
2.11896
2.58212
2.60926
2.5902
2.45247
2.59677
2.49478
2.63843
2.57817
2.57144
2.73394
2.61594
2.44909
2.73935
2.46084
2.58529
2.61421
2.44967
2.59342
2.60399
2.49705
2.57916
2.66126
2.56691
2.72574
2.61414
2.46276
2.76421
2.47868
8288.23
4072.23
4162.9
4111.24
4110.98
4125.84
4112.07
1895.55
2225.64
1918.36
2419.48
1817.17
2541.36
2078.01
2525.88
1947.01
2237.42
1953.66
2431.43
1839.34
2553.66
2095.91
2518.33
3593.71
1997.72
2534.09
3620.85
2028.53
2528.8
2171.41
2130.25
2360.25
2562.74
2190.51
2138.27
2368.72
2563.39
-0.0257978
1.99215
2.55403
2.74873
2.20315
2.02422
2.57307
2.77843
2.18315
2.18526
2.16323
2.67173
2.51958
2.59193
2.57359
2.64071
2.77249
2.45993
2.38476
2.61516
2.55457
2.67982
2.52432
2.59386
2.5702
2.64379
2.46523
2.78897
2.38393
2.61629
2.56441
8304.45
4064.15
4125.95
4078.3
4107.85
4116.16
4110.02
2051.36
2114.1
2460.21
2408.49
2247.88
2642.4
2071.91
2192.1
2468.63
2423.66
2223.87
2659.33
1914.11
2037.16
2544.46
1996.95
2508.85
2285.63
1906.07
2495.49
1976.35
2050.05
2549.13
2039.61
2525.47
2317.57
1939.26
2506.51
-0.0364532
2.2079
2.19058
2.02335
2.57655
2.83005
2.60518
2.76293
2.21252
2.05126
2.5929
2.83601
2.61709
2.78555
2.19614
2.6072
2.76676
2.77705
2.55247
2.59984
2.60665
2.61494
2.77387
2.80507
2.55451
2.61021
2.62248
8437.16
4056.14
4047.29
2399.16
1950.35
4002.78
2403.63
1965.65
4087.41
4132.58
4128.92
2106.44
2390.42
2134.05
2529.57
2176.85
2406.84
2127.5
2522.48
2244.51
2199.41
2163.12
2420.7
2542.79
2466.48
2284.23
2198.78
2171.51
2549
2446.58
2471.04
-0.0409422
2.22016
2.22849
2.20112
2.21
2.07223
2.66936
2.89057
2.63392
2.9239
2.9051
2.69512
2.20484
2.09122
2.66665
2.87096
2.63571
2.90754
2.92064
2.70696
2.19327
2.65844
2.56543
2.68998
2.58238
8454.77
3995.46
4017.21
4119.94
2245.14
1894.86
2232.75
1916.72
4071.16
2243.7
1897.62
2233.43
1915.83
4101.06
4083.78
2311.88
2157.12
2256.65
2495.09
2366.86
2499.55
2361.92
2167.33
2264.41
2383.74
2511.2
2510.84
-0.0604328
2.22772
2.22829
2.20792
2.20758
2.20419
2.19323
2.10411
2.74942
3.06459
2.77433
3.03639
2.83172
3.02447
2.78842
3.06616
2.7794
2.66319
2.11758
2.75285
3.03048
2.76839
3.0282
2.83369
3.02657
2.7902
3.06852
2.80762
2.6778
8453.75
4027.65
3992.12
4048.2
4028.97
4016.96
2114.39
1863.19
2189.55
1809.04
2296.33
2584.68
3969.81
2109.69
1877.52
2188.98
1811.43
2304.15
2593.82
4155.96
4140.54
2342.22
2572.54
2387.25
2583.73
-0.0389215
2.22026
2.18583
2.19978
2.17034
2.20359
2.19348
2.18838
2.18252
2.12406
2.14019
2.70993
2.93552
2.72253
2.9138
2.86038
3.16257
2.86251
3.1693
2.79875
2.95171
2.77169
2.98757
2.70534
2.9124
2.71513
2.89953
2.86941
3.18653
2.86798
3.18717
2.80782
2.96488
2.78065
3.00449
8437.65
3990.99
4025.47
4027.64
4048.51
4138.71
4129.08
3987.72
2139.39
1845.54
2247.57
1794.17
2308.24
2235.64
2467.2
2138.35
2337.6
2564.37
3948.28
2124.61
1837.23
2234.07
1784.24
2321.44
2257.21
2478.47
2167.98
2363.61
2570.03
-0.0257337
2.13868
2.10617
2.12712
2.08897
2.18809
2.18156
2.17718
2.16966
2.11265
2.13178
2.13139
2.14477
2.68766
2.89295
2.66923
2.89225
2.68621
2.86135
2.66195
2.88536
2.79884
2.93237
2.74331
2.98658
2.78494
2.91519
2.7346
2.9651
8308.2
3996.44
4057.69
4018.39
4087.71
4136.47
4152.05
4127.3
4137.89
3985.85
3950.66
2433.78
1922.33
2400.56
1984.27
2389.95
2141.02
2496.78
2118.26
2369.94
2265.24
2516.76
2153.45
2419.51
1918.02
2390.44
1971.06
2280.67
2126.32
2472.79
2043.34
2369.57
2303.71
2538.88
2195.26
0.0334652
-0.0344026
2.18669
2.17268
2.1739
2.1553
2.12814
2.09907
2.14237
2.11241
2.67636
2.94973
2.69063
2.91182
2.67783
2.86084
2.68398
2.87607
2.6648
2.8708
2.66888
2.87238
2.66854
2.85415
2.68635
2.85617
2.78507
3.05414
2.80323
2.96744
2.78818
2.99339
2.78029
2.98012
8298.24
4063.73
4081.86
4106.49
4110.41
4096.79
4131.07
4082.87
4127.95
3984.63
3987.79
3949.25
3949.59
2338.3
1993.58
2419.99
1945.77
2324.52
1966.64
2397.37
1916.99
2682.44
2200.01
2569.18
2251.93
2685.38
2194.37
2554.9
2247.11
0.0139029
2.12418
2.03607
2.11632
2.02665
-0.00737303
2.0731
2.07665
2.0918
2.07908
2.72361
2.86601
2.69109
2.89813
2.68953
2.85433
2.67084
2.86059
2.72716
2.86475
2.70209
2.89107
2.69493
2.8444
2.67375
2.86104
2.78668
3.08136
2.8213
3.03117
2.73809
2.92674
2.73979
2.93303
2.7779
3.01854
2.79393
3.02179
2.73238
2.90495
2.7289
2.94582
8122.66
8247.47
4113.16
4136.17
4106.05
4103.63
4016.82
4118.85
3975.46
4070.25
2329.95
1987.66
2409.94
1938.75
2428.06
1910.27
2388.69
1979.91
2317.4
1958.78
2386.95
1911.06
2414.34
1907.02
2379.04
1966.13
2728.54
2297.02
2765.61
2273.28
2719.89
2295.65
2751.98
2256.39
0.0371058
2.07211
2.00433
2.06808
1.99533
2.13131
1.99389
2.12966
2.00044
0.0116096
2.67463
2.8741
2.66742
2.87606
2.62606
2.80283
2.50446
2.84811
2.68824
2.89108
2.68072
2.89384
2.63473
2.82021
2.5182
2.86226
2.75809
2.92168
2.72788
2.90136
2.78167
2.97073
2.80174
2.9129
2.74699
2.88329
2.71527
2.87508
2.77702
2.93058
2.78781
2.8993
7955.37
8084.1
4170.26
4167.33
4115.76
4143.14
4046.45
4121.65
3994.68
4073.83
2132.82
1828.18
2218.63
1788.45
2111.27
1858.85
2184.95
1805.56
2121.13
1817.96
2204.71
1786.59
2107.19
1868.33
2180.65
1809.05
2722.9
2295.98
2767.88
2269.84
2675.31
2184.55
2547.43
2247.96
2713.67
2289.64
2758.92
2250.73
2677.04
2178.39
2533.45
2242.05
0.113187
0.0536646
2.03198
2.0239
2.04107
2.02491
2.76109
2.84212
2.74068
2.80462
2.72293
2.6044
2.943
2.6481
2.85203
2.69588
2.75252
2.84364
2.73609
2.79867
2.71998
2.60914
2.92903
2.64606
2.84557
2.69149
0.023952
2.83803
3.02306
2.83678
3.02804
2.7754
3.00912
2.84018
3.01998
2.83528
3.02677
2.77362
3.00665
2.84307
3.06369
2.88132
3.02025
2.84283
3.01119
2.85981
3.0104
7794.34
7957.33
4161.55
4088.1
4166.13
4111.45
3591.69
4017.91
3631.7
4024.44
2243.24
1892.2
2229.31
1912.43
2387.97
1907.05
2497
1934.02
2236.46
1888.23
2224.02
1909.07
2396.72
1947.54
2517.06
1957.33
2398.96
2123.09
2475.64
2117.55
2304.68
2232.64
2460.65
2138.2
2278.64
2111.39
2445.79
2062.55
2316.44
2235.78
2468.2
2154.61
0.104186
2.02417
1.96953
2.03458
1.97013
0.0661887
2.0788
2.05035
2.09025
2.05782
2.85679
2.64751
2.79101
2.59144
2.59303
2.50221
2.80684
2.66213
2.67302
2.57224
2.85644
2.66775
2.794
2.58938
2.60531
2.50111
2.81288
2.66454
2.68982
2.57911
0.0224989
2.88227
3.04976
2.89611
3.0184
2.86134
3.01775
2.88619
3.016
2.88317
3.02482
2.86955
3.03541
7664.83
7794.07
7887.05
4080.99
4021.15
4072.5
4024.37
2018.1
1933.02
2534.91
1996.29
2507.86
2283.08
1900.38
2545.94
2000.94
2535.66
1936.85
2068.7
2548.12
2046.52
2528.6
2304.05
1952.65
2558.87
2033.42
2531.62
2491.08
2290.07
2579.33
2245.74
2452.62
2189.19
2500.04
2292.92
2584.69
2255.22
2456.76
2181.31
2373.24
2270.7
2509.81
2159.78
2372.37
2283.24
2526.36
2187.18
0.129956
1.95441
1.93923
1.95274
1.93125
2.05893
1.98722
2.06414
1.99932
0.0744722
2.63365
2.70469
2.68132
2.74457
2.57288
2.82368
2.55579
2.75033
2.64544
2.71077
2.68608
2.76565
2.58342
2.81972
2.55585
2.76886
2.82772
2.71425
2.72233
2.66958
2.77293
2.61443
2.85761
2.71921
2.73393
2.67193
2.79442
2.62472
0.0117621
7551.43
7652.69
7692.53
4039.27
4032.27
4008.07
4019.61
3768.61
3970.45
3780.03
3946.43
2209.96
2164.18
2541.46
2411.61
2132.58
2526.01
2088.73
2537.93
2255.49
2646.48
2301.56
2172.19
2448.01
2548.06
2119.9
2514.77
2105.09
2532.56
2231.6
2664.63
2560.05
2336.27
2559.57
2334.14
2479.25
2300.75
2568.95
2350.3
2561.49
2368.28
2497.73
2329.45
0.186889
0.1544
1.93961
1.98451
1.95394
1.97987
2.63077
2.67791
2.62281
2.68849
2.58316
2.49679
2.76578
2.50551
2.70104
2.5423
2.6265
2.68742
2.61818
2.68477
2.57953
2.49866
2.76344
2.50694
2.70493
2.54237
-0.0389886
2.49128
2.68411
2.60878
2.64571
2.53563
2.69867
2.5111
2.7002
2.61615
2.67178
2.54894
2.72454
-0.032642
7447.45
7542.9
7622.33
3986.16
3992.89
3992.33
4015.04
3445.49
3905.55
3478.4
3902.2
2214.15
1923.04
2418.96
1820.96
2426.76
1962.34
2553.26
1973.38
2220.29
1959.04
2432.06
1840.11
2437.37
1990.37
2560.33
2002.72
2126.62
2355.87
2123.71
2420.49
2117.5
2398.39
2191.15
2382.86
2202.46
2436.86
2186.64
2417.17
0.33041
1.95206
1.88525
1.94721
1.87447
-0.0250696
1.91956
1.97458
1.94179
1.98187
2.68237
2.6148
2.62937
2.5306
2.57904
2.47973
2.62231
2.48954
2.6012
2.46722
2.68165
2.61712
2.62746
2.52167
2.58516
2.48193
2.63353
2.49181
2.61668
2.47478
-0.117217
2.63564
2.80707
2.64113
2.81183
-0.0268231
7352.42
7441.08
7521.8
7511.22
3910.3
3812.38
3903.58
3836.18
1993.06
2076.9
2393.76
1964.5
2385.73
2402.88
1932.88
2459.56
2000.77
2478.45
2097.55
2022.67
2403.61
1994.98
2396.52
2424.41
1979.58
2485.51
2031.98
2494.2
2577.58
2057.48
2466.23
2147.53
2305.79
2067.31
2579.96
2079.3
2474.63
2158.95
2310.89
2070
0.49432
-0.0158468
2.03233
1.92257
2.03993
1.9212
-0.248116
2.43167
2.5708
2.47896
2.64845
1.99423
2.44152
2.59447
2.48713
2.6702
2.00987
2.73085
2.62845
2.63118
2.56738
2.76678
2.65769
2.73884
2.63236
2.64743
2.57482
2.78126
2.66691
-0.120069
-0.0320139
7266.89
7343.71
7416.57
7521.62
3882.1
3995.56
3883.31
4018.71
3767.38