/*--------------------------------*- C++ -*----------------------------------*\
| =========                 |                                                 |
| \\      /  F ield         | OpenFOAM: The Open Source CFD Toolbox           |
|  \\    /   O peration     | Version:  5.x                                   |
|   \\  /    A nd           | Web:      www.OpenFOAM.org                      |
|    \\/     M anipulation  |                                                 |
\*---------------------------------------------------------------------------*/
FoamFile
{
    version     2.0;
    format      ascii;
    class       surfaceScalarField;
    location    "0.3";
    object      phi;
}
// * * * * * * * * * * * * * * * * * * * * * * * * * * * * * * * * * * * * * //

dimensions      [0 3 -1 0 0 0 0];

internalField   nonuniform List<scalar> 
30582
(
0.000242343
1.44504e-05
0.000211304
3.1039e-05
0.000242374
2.8904e-05
0.000170073
4.12311e-05
0.00021114
6.22735e-05
0.00024383
4.19768e-05
0.000136971
3.31021e-05
0.000169878
8.24933e-05
0.000212125
9.39782e-05
0.000242636
5.63528e-05
0.000105288
3.16824e-05
0.000136289
6.66909e-05
0.000170111
0.000124508
0.000209671
0.000126943
0.000246835
6.66701e-05
8.03163e-05
2.49721e-05
0.000104439
6.35323e-05
0.000134957
0.000101845
0.000167865
0.000166314
0.000212179
0.000161599
0.000242908
8.10987e-05
6.01267e-05
2.01895e-05
7.94382e-05
4.99729e-05
0.000102658
9.58311e-05
0.00013174
0.00013797
0.000169489
0.000209004
0.000204117
0.00020039
0.000254765
8.38877e-05
4.46545e-05
1.54722e-05
5.93072e-05
4.03205e-05
7.76154e-05
7.50154e-05
9.94953e-05
0.000128076
0.000130089
0.00017737
0.000163423
0.000249698
0.000209627
0.000245527
0.000235214
0.000106477
3.2937e-05
1.17175e-05
4.39461e-05
3.08333e-05
5.76319e-05
6.0304e-05
7.45937e-05
9.99171e-05
9.6726e-05
0.000161439
0.000122361
0.000218432
0.000167665
0.000291661
0.00019343
0.000287312
0.000264496
-0.000206478
2.41917e-05
8.74534e-06
3.23522e-05
2.33114e-05
4.25061e-05
4.59591e-05
5.49718e-05
7.99259e-05
7.13793e-05
0.000125264
8.98054e-05
0.000193995
0.000120765
0.000265332
0.000159965
0.000325126
0.00026578
0.000286028
0.000330004
-0.000540703
1.77284e-05
6.46329e-06
2.37253e-05
1.73723e-05
3.11715e-05
3.4646e-05
4.02748e-05
6.06561e-05
5.1936e-05
9.93692e-05
6.50652e-05
0.000150004
8.64611e-05
0.000228298
0.000109563
0.000315733
0.000262628
0.000328278
0.000493582
0.00012245
8.74867e-05
-0.000628206
1.29792e-05
4.74924e-06
1.7364e-05
1.28246e-05
2.27879e-05
2.57559e-05
2.93674e-05
4.55533e-05
3.76243e-05
7.49678e-05
4.66487e-05
0.000117786
6.09176e-05
0.000175547
7.60332e-05
0.000261828
0.000215625
0.000362736
0.000556764
0.000265096
0.000223107
-1.31702e-05
-0.000117537
-0.000510669
9.50179e-06
3.47738e-06
1.26984e-05
9.4148e-06
1.6634e-05
1.89785e-05
2.13678e-05
3.37556e-05
2.71801e-05
5.59975e-05
3.33744e-05
8.82421e-05
4.28016e-05
0.000135902
5.07728e-05
0.000200808
0.000193857
0.000283596
0.000482823
0.000436677
0.000157992
0.00033021
-0.000118339
-1.2368e-05
-8.28497e-05
-0.00042782
6.96045e-06
2.54134e-06
9.2877e-06
6.88812e-06
1.21376e-05
1.39113e-05
1.55346e-05
2.48116e-05
1.96236e-05
4.13121e-05
2.38447e-05
6.55272e-05
3.0144e-05
0.0001009
3.39883e-05
0.000152686
0.000170216
0.000224449
0.000373469
0.00039295
0.000123353
0.000471316
-6.47288e-05
0.0002766
-0.000100322
5.10401e-06
-5.02852e-05
-0.000377534
5.10363e-06
1.85682e-06
6.79833e-06
5.03071e-06
8.86074e-06
1.0165e-05
1.12965e-05
1.81494e-05
1.41729e-05
3.02623e-05
1.7055e-05
4.81018e-05
2.12373e-05
7.44339e-05
2.29435e-05
0.000111945
0.000159285
0.000163618
0.000255941
0.000341978
7.89137e-05
0.000437389
-7.51046e-06
0.000414098
-5.40282e-05
0.000230306
-5.6139e-05
1.09579e-05
-1.28527e-05
3.74506e-06
1.35856e-06
4.98129e-06
3.67385e-06
6.47525e-06
7.41619e-06
8.22251e-06
1.3239e-05
1.02486e-05
2.20737e-05
1.22185e-05
3.50988e-05
1.50055e-05
5.43336e-05
1.55096e-05
8.18678e-05
0.000148445
0.000122785
0.000162049
0.000257509
6.95019e-05
0.00035139
2.54445e-05
0.000404435
-1.08964e-05
0.000370966
-2.97282e-05
0.000203895
-1.57127e-05
2.74767e-06
9.97377e-07
3.65277e-06
2.68706e-06
4.73779e-06
5.41129e-06
5.9935e-06
9.6452e-06
7.42362e-06
1.60639e-05
8.77395e-06
2.55182e-05
1.06339e-05
3.94704e-05
1.05561e-05
5.92871e-05
0.00014119
8.91231e-05
0.000102495
0.00018234
5.775e-05
0.000269262
3.98977e-05
0.000336937
1.52389e-05
0.0003783
-5.6881e-06
0.000346926
-8.63801e-06
2.01255e-06
7.35107e-07
2.67833e-06
1.9718e-06
3.46995e-06
3.95489e-06
4.37548e-06
7.02929e-06
5.38836e-06
1.16805e-05
6.31707e-06
1.85208e-05
7.5619e-06
2.85902e-05
7.23397e-06
4.27926e-05
0.00013493
6.55468e-05
6.46605e-05
0.000126957
4.71288e-05
0.000192962
4.10958e-05
0.000268064
2.68869e-05
0.00032529
9.69722e-06
0.000362915
-1.23073e-06
1.46543e-06
5.47117e-07
1.96065e-06
1.45278e-06
2.54189e-06
2.89985e-06
3.1983e-06
5.13207e-06
3.91918e-06
8.49846e-06
4.56088e-06
1.34366e-05
5.39655e-06
2.06862e-05
4.99231e-06
3.08319e-05
0.000129422
4.83002e-05
4.2348e-05
8.78594e-05
3.68974e-05
0.000137189
3.59096e-05
0.000198148
2.87055e-05
0.000266246
1.64473e-05
0.00031854
3.70074e-06
1.054e-06
4.11419e-07
1.42741e-06
1.08034e-06
1.85928e-06
2.13537e-06
2.33895e-06
3.75919e-06
2.8555e-06
6.19574e-06
3.30183e-06
9.75751e-06
3.86505e-06
1.49681e-05
3.46843e-06
2.221e-05
0.000124182
3.60726e-05
2.88164e-05
6.18316e-05
2.75654e-05
9.71911e-05
2.87038e-05
0.000144395
2.55307e-05
0.000201323
1.74834e-05
0.00026521
5.77528e-06
7.374e-07
3.16601e-07
1.02639e-06
8.12437e-07
1.35282e-06
1.58681e-06
1.70817e-06
2.76613e-06
2.08245e-06
4.53223e-06
2.39577e-06
7.1018e-06
2.77768e-06
1.08449e-05
2.42486e-06
1.60117e-05
0.000118877
2.75144e-05
2.01585e-05
4.473e-05
1.99769e-05
6.94193e-05
2.17943e-05
0.0001041
2.06332e-05
0.000149293
1.55588e-05
0.000203248
6.01776e-06
4.85538e-07
2.51864e-07
7.17841e-07
6.25157e-07
9.7203e-07
1.19322e-06
1.24138e-06
2.0536e-06
1.51716e-06
3.33141e-06
1.74077e-06
5.18721e-06
2.00196e-06
7.87751e-06
1.70515e-06
1.15646e-05
0.00011319
2.16987e-05
1.42882e-05
3.33838e-05
1.42095e-05
5.04961e-05
1.60405e-05
7.51725e-05
1.57886e-05
0.000108945
1.25929e-05
0.000152259
5.31984e-06
2.74877e-07
2.10665e-07
4.72555e-07
4.97155e-07
6.79352e-07
9.17837e-07
8.91059e-07
1.54354e-06
1.10035e-06
2.47041e-06
1.26395e-06
3.80823e-06
1.4459e-06
5.74327e-06
1.2049e-06
8.37776e-06
0.000106902
1.7853e-05
1.01167e-05
2.58693e-05
9.96138e-06
3.76305e-05
1.15964e-05
5.49392e-05
1.1681e-05
7.92795e-05
9.65234e-06
0.000111885
4.29462e-06
8.74475e-08
1.87434e-07
2.67717e-07
4.15507e-07
4.47107e-07
7.29405e-07
6.22477e-07
1.18642e-06
7.88552e-07
1.85534e-06
9.14303e-07
2.82005e-06
1.04414e-06
4.21e-06
8.54753e-07
6.09342e-06
9.97283e-05
1.55511e-05
7.07551e-06
2.08937e-05
6.85175e-06
2.8978e-05
8.2929e-06
4.09331e-05
8.44904e-06
5.81703e-05
7.14962e-06
8.17817e-05
3.28967e-06
-9.21266e-08
1.79576e-07
8.58465e-08
3.69304e-07
2.53677e-07
6.0894e-07
4.09937e-07
9.41949e-07
5.5047e-07
1.42451e-06
6.53942e-07
2.1157e-06
7.52049e-07
3.11214e-06
6.06924e-07
4.45783e-06
9.15771e-05
1.42447e-05
4.84478e-06
1.77819e-05
4.57914e-06
2.31663e-05
5.82977e-06
3.14406e-05
5.99788e-06
4.33835e-05
5.17917e-06
6.01403e-05
2.43589e-06
-2.77429e-07
1.853e-07
-8.84071e-08
3.53822e-07
8.23637e-08
5.40618e-07
2.33497e-07
7.85383e-07
3.62862e-07
1.12956e-06
4.56174e-07
1.62228e-06
5.36118e-07
2.33163e-06
4.3162e-07
3.28744e-06
8.21535e-05
1.38817e-05
3.19195e-06
1.58983e-05
2.94566e-06
1.94163e-05
3.99216e-06
2.50041e-05
4.17786e-06
3.32604e-05
3.68722e-06
4.48751e-05
1.76471e-06
-4.82091e-07
2.04652e-07
-2.68248e-07
3.65124e-07
-8.16183e-08
5.17797e-07
7.75438e-08
6.9657e-07
2.07938e-07
9.40308e-07
3.01096e-07
1.28464e-06
3.73626e-07
1.78477e-06
3.04721e-07
2.45853e-06
7.19061e-05
1.35353e-05
1.99597e-06
1.50788e-05
1.78847e-06
1.70568e-05
2.63442e-06
2.07748e-05
2.83514e-06
2.6347e-05
2.5814e-06
3.43661e-05
1.25611e-06
-7.20129e-07
2.38022e-07
-4.6705e-07
4.03428e-07
-2.50925e-07
5.34416e-07
-7.14892e-08
6.66824e-07
7.14271e-08
8.3308e-07
1.73932e-07
1.06747e-06
2.47355e-07
1.41091e-06
2.11562e-07
1.87793e-06
6.06433e-05
1.37214e-05
1.14852e-06
1.43835e-05
1.10892e-06
1.57595e-05
1.62862e-06
1.80637e-05
1.86793e-06
2.17427e-05
1.76703e-06
2.71617e-05
8.79656e-07
-1.00667e-06
2.86518e-07
-6.98404e-07
4.69348e-07
-4.38157e-07
5.90638e-07
-2.25287e-07
6.882e-07
-5.84661e-08
7.96711e-07
6.23588e-08
9.44652e-07
1.44847e-07
1.16998e-06
1.41082e-07
1.48139e-06
4.8755e-05
1.37661e-05
6.13436e-07
1.42565e-05
6.0015e-07
1.48926e-05
9.43687e-07
1.64452e-05
1.17203e-06
1.87604e-05
1.17571e-06
2.23346e-05
6.02828e-07
-1.35836e-06
3.51683e-07
-9.76833e-07
5.64926e-07
-6.55946e-07
6.87115e-07
-3.9525e-07
7.60582e-07
-1.92413e-07
8.22135e-07
-4.32822e-08
9.02346e-07
5.57497e-08
1.03375e-06
8.59022e-08
1.22516e-06
3.64229e-05
1.38131e-05
2.77736e-07
1.4101e-05
3.41324e-07
1.45148e-05
4.73521e-07
1.53629e-05
7.28732e-07
1.6889e-05
7.42237e-07
1.91944e-05
4.01512e-07
-1.79399e-06
4.35619e-07
-1.31839e-06
6.93231e-07
-9.17828e-07
8.26793e-07
-5.92902e-07
8.84749e-07
-3.40292e-07
9.08446e-07
-1.51915e-07
9.30759e-07
-2.79513e-08
9.86043e-07
3.93207e-08
1.08033e-06
2.39772e-05
1.36703e-05
1.00936e-07
1.39889e-05
2.08107e-07
1.42332e-05
2.00797e-07
1.4787e-05
4.10234e-07
1.56814e-05
4.54569e-07
1.71769e-05
2.55433e-07
-2.33535e-06
5.41371e-07
-1.74137e-06
8.58613e-07
-1.23898e-06
1.01438e-06
-8.30593e-07
1.06447e-06
-5.12146e-07
1.05659e-06
-2.71606e-07
1.02813e-06
-1.13562e-07
1.01636e-06
-3.16954e-09
1.02853e-06
1.15093e-05
1.35481e-05
1.37539e-08
1.3757e-05
1.63277e-07
1.40329e-05
5.15722e-08
1.43816e-05
2.26794e-07
1.49699e-05
2.52371e-07
1.58834e-05
1.58299e-07
-3.00802e-06
6.72678e-07
-2.26716e-06
1.06718e-06
-1.63688e-06
1.25652e-06
-1.12225e-06
1.30604e-06
-7.18812e-07
1.27113e-06
-4.10607e-07
1.19558e-06
-2.07612e-07
1.12217e-06
-4.57147e-08
1.05891e-06
-7.7647e-07
1.33145e-05
-1.11614e-08
1.35731e-05
1.15602e-07
1.38044e-05
-9.19502e-09
1.40931e-05
1.19342e-07
1.44885e-05
1.31469e-07
1.50904e-05
9.15641e-08
-3.84245e-06
8.34446e-07
-2.92083e-06
1.32638e-06
-2.13202e-06
1.56235e-06
-1.48398e-06
1.61826e-06
-9.72621e-07
1.55985e-06
-5.77887e-07
1.43841e-06
-3.16734e-07
1.3047e-06
-9.19365e-08
1.16839e-06
-1.27452e-05
1.3028e-05
-1.881e-08
1.33226e-05
1.03642e-07
1.35855e-05
-2.71945e-08
1.38224e-05
6.8142e-08
1.41439e-05
6.22752e-08
1.45573e-05
5.33497e-08
-4.87435e-06
1.03192e-06
-3.73228e-06
1.64592e-06
-2.74845e-06
1.94283e-06
-1.93467e-06
2.01306e-06
-1.28793e-06
1.93357e-06
-7.83712e-07
1.76567e-06
-4.48303e-07
1.56997e-06
-1.4534e-07
1.3581e-06
-2.42312e-05
1.26546e-05
-3.75178e-08
1.30471e-05
8.59867e-08
1.33408e-05
-1.8869e-08
1.35776e-05
3.80142e-08
1.38526e-05
2.98093e-08
1.41763e-05
3.03483e-08
-6.14602e-06
1.27167e-06
-4.73642e-06
2.03608e-06
-3.51451e-06
2.412e-06
-2.49648e-06
2.50466e-06
-1.6816e-06
2.40674e-06
-1.04002e-06
2.18989e-06
-6.1073e-07
1.9281e-06
-2.10037e-07
1.63467e-06
-3.50775e-05
1.22041e-05
-1.0407e-07
1.27207e-05
6.3778e-08
1.30692e-05
-4.30762e-09
1.33266e-05
2.82059e-08
1.35877e-05
1.52734e-08
1.38673e-05
1.69478e-08
-7.7059e-06
1.55989e-06
-5.97439e-06
2.50965e-06
-4.46329e-06
2.98487e-06
-3.19564e-06
3.11117e-06
-2.17343e-06
2.9965e-06
-1.36088e-06
2.72761e-06
-8.13872e-07
2.39304e-06
-2.90856e-07
2.00892e-06
-4.51665e-05
1.17232e-05
-2.63392e-07
1.23623e-05
1.02233e-08
1.27734e-05
-3.95136e-10
1.30651e-05
1.97553e-08
1.33352e-05
1.18663e-08
1.35914e-05
8.24939e-09
-9.61029e-06
1.90438e-06
-7.49338e-06
3.07889e-06
-5.63396e-06
3.68033e-06
-4.06276e-06
3.85199e-06
-2.78677e-06
3.72452e-06
-1.76287e-06
3.3985e-06
-1.06935e-06
2.98309e-06
-3.93275e-07
2.49546e-06
-5.44157e-05
1.12576e-05
-5.42307e-07
1.20008e-05
-9.4546e-08
1.24657e-05
-2.87368e-08
1.28009e-05
3.83958e-09
1.30808e-05
9.05127e-09
1.33381e-05
3.57902e-09
-1.19235e-05
2.31324e-06
-9.34848e-06
3.75949e-06
-7.07151e-06
4.51644e-06
-5.13402e-06
4.7516e-06
-3.54901e-06
4.61423e-06
-2.26563e-06
4.22729e-06
-1.39101e-06
3.72016e-06
-5.2405e-07
3.11387e-06
-6.27777e-05
1.08572e-05
-9.71022e-07
1.16855e-05
-2.82967e-07
1.21881e-05
-1.14652e-07
1.25506e-05
-2.84228e-08
1.28325e-05
5.66494e-10
1.30889e-05
-8.65696e-10
2.79622e-06
-1.47197e-05
-1.16025e-05
4.56725e-06
-8.82852e-06
5.5165e-06
-6.45117e-06
5.83359e-06
-4.4927e-06
5.69529e-06
-2.89227e-06
5.24087e-06
-1.79533e-06
4.63162e-06
-6.9139e-07
3.88751e-06
-7.02427e-05
1.05789e-05
-1.58159e-06
1.14676e-05
-5.79542e-07
1.19816e-05
-2.7358e-07
1.23462e-05
-1.00003e-07
1.26213e-05
-2.42884e-08
1.28568e-05
-6.6072e-09
5.52199e-06
-1.43283e-05
8.7176e-06
-2.34373e-05
-1.09651e-05
6.70383e-06
-8.06328e-06
7.12861e-06
-5.65557e-06
6.99646e-06
-3.67031e-06
6.47333e-06
-2.30168e-06
5.74722e-06
-9.05756e-07
4.84599e-06
-7.68155e-05
1.04605e-05
-2.39623e-06
1.13941e-05
-1.00355e-06
1.18921e-05
-5.263e-07
1.22342e-05
-2.20471e-07
1.24662e-05
-7.61006e-08
1.26727e-05
-1.40493e-08
8.10784e-06
-1.35509e-05
1.72208e-05
-2.28315e-05
1.24432e-05
-3.58805e-05
-1.00265e-05
8.66705e-06
-7.08206e-06
8.5551e-06
-4.632e-06
7.95815e-06
-2.93329e-06
7.10494e-06
-1.17887e-06
6.02033e-06
-8.25253e-05
1.05561e-05
-3.43993e-06
1.1505e-05
-1.58266e-06
1.19741e-05
-8.84358e-07
1.22505e-05
-4.14274e-07
1.2428e-05
-1.53555e-07
1.25435e-05
-2.63408e-08
1.04876e-05
-1.24062e-05
2.52949e-05
-2.16251e-05
2.45892e-05
-3.49775e-05
1.71743e-05
-5.30548e-05
-8.82361e-06
1.04086e-05
-5.8154e-06
9.73851e-06
-3.71766e-06
8.74253e-06
-1.52577e-06
7.45184e-06
-8.74122e-05
1.09074e-05
-4.74607e-06
1.18631e-05
-2.35271e-06
1.22761e-05
-1.37979e-06
1.24702e-05
-6.81929e-07
1.25185e-05
-2.70732e-07
1.25453e-05
-5.08751e-08
1.26048e-05
-1.09408e-05
3.274e-05
-1.98513e-05
3.61386e-05
-3.31744e-05
3.39347e-05
-5.1738e-05
2.29426e-05
-7.59974e-05
-7.26542e-06
1.18586e-05
-4.68706e-06
1.07079e-05
-1.96481e-06
9.18156e-06
-9.15866e-05
1.16264e-05
-6.38645e-06
1.25486e-05
-3.35379e-06
1.28653e-05
-2.03293e-06
1.29301e-05
-1.04625e-06
1.2835e-05
-4.26354e-07
1.26744e-05
-9.37681e-08
1.43765e-05
-9.03716e-06
3.93841e-05
-1.75849e-05
4.68199e-05
-3.05326e-05
4.98625e-05
-4.91022e-05
4.52985e-05
-7.40939e-05
2.99932e-05
-0.00010599
-5.88074e-06
1.30523e-05
-2.51632e-06
1.12594e-05
-9.51831e-05
1.27782e-05
-8.39784e-06
1.36388e-05
-4.62705e-06
1.38232e-05
-2.87047e-06
1.37039e-05
-1.52101e-06
1.34055e-05
-6.39916e-07
1.30489e-05
-1.54976e-07
1.58453e-05
-7.34947e-06
4.49685e-05
-1.46215e-05
5.64076e-05
-2.71726e-05
6.46027e-05
-4.52728e-05
6.64595e-05
-7.02632e-05
5.91143e-05
-0.000103215
3.85909e-05
-0.000144581
-3.20632e-06
1.37423e-05
-9.82151e-05
1.42915e-05
-1.08424e-05
1.52236e-05
-6.17937e-06
1.51922e-05
-3.90892e-06
1.4863e-05
-2.1238e-06
1.43077e-05
-9.28805e-07
1.3695e-05
-2.35616e-07
1.67431e-05
-4.10416e-06
4.96198e-05
-1.20008e-05
6.45463e-05
-2.27603e-05
7.78783e-05
-4.04483e-05
8.59739e-05
-6.47872e-05
8.63544e-05
-9.75033e-05
7.58892e-05
-0.000140513
4.76053e-05
-0.000192187
-0.000100883
1.64102e-05
-1.37794e-05
1.72285e-05
-8.05584e-06
1.71002e-05
-5.17079e-06
1.64551e-05
-2.85554e-06
1.5596e-05
-1.30617e-06
1.4686e-05
-3.37768e-07
2.03127e-05
-0.000104453
5.25183e-05
-7.00262e-06
7.14016e-05
-1.88561e-05
8.92399e-05
-3.41218e-05
0.000103529
-5.8003e-05
0.000111172
-8.96045e-05
0.000110075
-0.000131689
9.79381e-05
-0.000190846
5.14481e-05
-0.000243635
-1.73474e-05
1.99769e-05
-1.03191e-05
1.94901e-05
-6.67431e-06
1.86032e-05
-3.75602e-06
1.73561e-05
-1.75666e-06
1.60473e-05
-4.59835e-07
2.39573e-05
-2.09937e-05
5.66232e-05
-0.000108558
7.59721e-05
-1.15731e-05
9.88825e-05
-2.84987e-05
0.00011862
-4.92128e-05
0.000133271
-8.01028e-05
0.000140474
-0.000120003
0.000140469
-0.00017422
0.000124521
-0.000263919
9.73987e-05
-0.000341034
-1.30136e-05
2.26694e-05
-8.45836e-06
2.12722e-05
-4.82668e-06
1.96729e-05
-2.32406e-06
1.79233e-05
-6.0258e-07
2.66173e-05
-1.56729e-05
6.997e-05
-3.43406e-05
8.15593e-05
-0.000114145
0.00010577
-1.84611e-05
0.000131459
-4.13377e-05
0.000152209
-6.81506e-05
0.000166872
-0.000106501
0.00017603
-0.000155565
0.00017752
-0.00022722
0.000186295
-0.000352815
0.000134141
-0.000475175
-1.05106e-05
2.47199e-05
-6.11434e-06
2.25577e-05
-2.9913e-06
2.03386e-05
-7.82978e-07
2.88109e-05
-1.27035e-05
7.91921e-05
-2.48902e-05
0.00010117
-5.39485e-05
0.000110869
-0.000119243
0.000141271
-2.82737e-05
0.000168217
-5.73453e-05
0.0001891
-9.03787e-05
0.000205244
-0.000135715
0.000218066
-0.000196111
0.000247604
-0.000288528
0.000233122
-0.000451795
0.000711208
-0.000271479
-0.000914904
-7.59096e-06
2.6195e-05
-3.78458e-06
2.33491e-05
-9.9492e-07
3.04621e-05
-9.24102e-06
8.61419e-05
-1.9649e-05
0.000111661
-3.53749e-05
0.000141354
-8.44288e-05
0.000147326
-0.000125298
0.000181213
-4.12703e-05
0.000207483
-7.57276e-05
0.000228878
-0.000114013
0.000248367
-0.000166016
0.000283141
-0.000231648
0.000308703
-0.000364109
0.000568086
-0.000308672
0.000689034
-0.00018313
-0.000777382
-0.000102748
-0.000812157
-4.68277e-06
2.70926e-05
-1.25626e-06
3.14822e-05
-5.70141e-06
9.11269e-05
-1.42223e-05
0.000119557
-2.7541e-05
0.000152041
-4.60608e-05
0.000189903
-0.000127005
0.000187565
-0.000131649
0.000223125
-5.69122e-05
0.000247527
-9.43764e-05
0.000270638
-0.000136284
0.000303977
-0.000186852
0.000342746
-0.000265692
0.000464958
-0.000260982
0.000582192
-0.000201831
0.000667703
-0.00013435
-0.000716482
-0.000130832
-0.000749298
-7.18945e-05
-0.000740262
-1.55488e-06
-1.89661e-06
9.41252e-05
-8.69714e-06
0.000125126
-1.97897e-05
0.000159586
-3.50871e-05
0.000198484
-5.46473e-05
0.000238724
-0.000178167
0.000229028
-0.000137553
0.000263923
-7.33091e-05
0.000286434
-0.000110172
0.000316536
-0.000148843
0.000353791
-0.000197897
0.000403525
-0.000204258
0.00049783
-0.00017662
0.00060028
-0.000134408
0.00068384
-0.000104693
-0.000713497
-0.000125612
-0.000721703
-0.00010624
-0.000714952
-5.58863e-05
-0.000684376
-2.91638e-06
0.000128485
-1.20557e-05
0.000164702
-2.4908e-05
0.000203233
-3.98444e-05
0.000243616
-5.95495e-05
0.000276748
-0.000225892
0.000267696
-0.000141326
0.000300224
-8.70993e-05
0.000323637
-0.000117273
0.000355425
-0.000150476
0.000363847
-0.000158219
0.000439952
-0.00014638
0.000539802
-0.000116143
0.000627885
-7.84529e-05
0.000683374
-5.32887e-05
-0.000734778
-0.000120329
-0.00071878
-0.00012418
-0.000703763
-9.59767e-05
-0.000674861
-5.22126e-05
-0.000632163
-4.06122e-06
0.000167812
-1.51692e-05
0.000206327
-2.80095e-05
0.00024359
-3.983e-05
0.000278398
-6.12093e-05
0.000297797
-0.000255995
0.000299844
-0.000140946
0.000330334
-9.37962e-05
0.000352658
-0.000114506
0.000334514
-0.000121144
0.000398114
-0.000116381
0.000484808
-9.13855e-05
0.000567372
-5.563e-05
0.000638899
-3.39785e-05
0.000793938
-4.89174e-05
-0.000798309
-0.000114362
-0.000740745
-0.000135928
-0.000707032
-0.000126281
-0.000673459
-9.64447e-05
-0.000630629
-5.10332e-05
-0.00058113
-5.119e-06
0.000208262
-1.71097e-05
0.00024345
-2.7877e-05
0.000273604
-3.50437e-05
0.000297967
-6.1385e-05
0.000305483
-0.000261635
0.000323025
-0.000133636
0.000349811
-9.09493e-05
0.00031443
-9.44214e-05
0.000364189
-8.72189e-05
0.000435255
-6.68281e-05
0.000509094
-3.31073e-05
0.000598551
-1.52819e-05
0.000711301
4.86578e-05
0.000683506
-8.34457e-06
-0.000820255
-1.67875e-05
5.85e-05
5.44636e-05
-0.000129151
-0.00078352
-0.000148942
-0.000727731
-0.000149581
-0.000683732
-0.000135593
-0.00063431
-9.91251e-05
-0.000582537
-5.23239e-05
-0.000528806
-5.81678e-06
0.000243441
-1.71032e-05
0.000270082
-2.43584e-05
0.000289534
-2.66129e-05
0.000303883
-5.97856e-05
0.000298679
-0.000237289
0.000335156
-0.000118981
0.000300072
-7.65914e-05
0.000337252
-6.74843e-05
0.000391675
-4.36389e-05
0.000454241
-1.19751e-05
0.000550731
1.47135e-05
0.000622275
7.37447e-05
0.000691575
4.05897e-05
-5.356e-06
1.85468e-05
-5.56692e-05
3.41338e-05
-2.70702e-05
-0.000843142
-3.39899e-05
-2.13898e-05
-2.38141e-05
1.92219e-05
-4.74926e-05
6.12739e-06
-4.66765e-06
3.45509e-05
4.71637e-05
3.80548e-05
3.0963e-05
-0.000174599
-0.000757862
-0.000166495
-0.000710818
-0.000172657
-0.000646668
-0.000145406
-0.000588029
-0.000103546
-0.000531315
-5.42335e-05
-0.000474573
-5.92874e-06
0.000268001
-1.50223e-05
0.000283084
-1.79102e-05
0.000292126
-1.48605e-05
0.000296094
-5.72024e-05
0.000291993
-0.000194127
0.000277935
-9.68443e-05
0.000316424
-5.57632e-05
0.000354908
-3.07178e-05
0.000403834
6.76871e-06
0.000491243
4.75124e-05
0.000544092
9.28957e-05
0.000690948
7.43708e-05
-9.39434e-05
-9.73078e-05
0.000407354
-5.49772e-05
-6.08604e-05
6.8249e-06
6.10573e-06
-6.62932e-06
-0.000105062
2.89515e-05
2.65688e-06
2.0862e-05
6.29594e-06
4.31907e-06
-0.000796358
-0.000221384
-9.6981e-05
8.86921e-06
-7.64522e-06
-0.000148414
2.9608e-05
-0.000143671
1.52308e-05
1.48066e-05
2.13978e-05
-2.74202e-05
4.43912e-06
-3.03569e-05
-4.70991e-05
-0.00017214
-0.000752217
-0.000209905
-0.00067357
-0.000192326
-0.000599748
-0.000154167
-0.000537408
-0.00010839
-0.000477159
-5.62039e-05
-0.000418369
-5.36467e-06
0.000279175
-1.11147e-05
0.000282939
-8.72787e-06
0.000281885
-6.6196e-07
0.000282149
-4.73648e-05
0.000234743
-0.000150936
0.000290132
-7.05523e-05
0.00032622
-2.70751e-05
0.000359716
1.33994e-05
0.000425934
7.20781e-05
0.000476251
0.000115354
0.000666403
0.000117441
0.000485835
-8.58296e-06
-4.50081e-06
3.59595e-06
5.37762e-06
5.45929e-06
-0.00010311
9.41513e-05
-5.14776e-05
-0.00010615
0.000106188
-5.54388e-05
4.03669e-06
-0.000104851
4.52957e-06
-0.000103626
7.61802e-06
3.19563e-07
1.90721e-05
1.58558e-05
8.53266e-06
-0.000128377
0.000140206
3.25492e-05
-4.5133e-05
3.53804e-05
-3.88386e-05
-0.000767766
-0.000200732
2.17379e-06
-2.33412e-05
-0.000385861
-2.0682e-05
-3.2253e-05
-2.04336e-05
-3.30717e-05
4.21028e-05
-1.15162e-05
-3.02264e-06
5.38766e-05
3.09697e-05
-0.000140288
0.000149255
2.90903e-05
-4.66806e-05
3.19196e-05
-4.21837e-05
9.42576e-06
2.25853e-05
-5.36415e-05
2.72627e-07
-4.32251e-05
2.07382e-05
-4.9109e-05
-1.16136e-06
-4.2242e-05
-0.000249476
-0.000712646
-0.000245835
-0.000620061
-0.000205567
-0.000548349
-0.000162989
-0.000482808
-0.000112854
-0.000420509
-5.78432e-05
-0.000360525
-4.09402e-06
0.000277285
-5.46586e-06
0.000270749
2.39928e-06
0.000262992
1.84824e-05
0.000217714
-3.03441e-05
0.00024344
-0.000104244
0.000294148
-3.84804e-05
0.000323888
8.75277e-06
0.000363034
7.6299e-05
0.000405582
0.000142748
0.000587031
0.000194726
0.000552876
8.9277e-06
8.75338e-06
1.74377e-05
1.52812e-05
3.47651e-06
-0.000101196
-1.57151e-05
-9.87156e-05
-5.93426e-06
2.08717e-06
-8.33532e-05
-1.63339e-05
-8.43106e-05
-6.94013e-06
1.07097e-06
-0.000206287
1.3966e-05
9.9465e-05
-5.11118e-05
8.35754e-06
1.7926e-05
-4.7217e-05
2.4002e-05
8.83335e-05
-0.000207956
1.25685e-05
9.99394e-05
6.08821e-06
-5.02935e-05
1.83183e-05
-4.62143e-05
2.44181e-05
8.87632e-05
1.77438e-06
-0.000192263
-3.55668e-05
3.22042e-05
-3.92382e-05
3.13047e-05
-0.000193581
-3.32744e-05
3.33752e-05
-3.75224e-05
3.24391e-05
7.95181e-06
0.00016669
3.9987e-05
-5.18448e-05
3.7015e-05
-4.37377e-05
6.31348e-05
2.54725e-05
1.06302e-06
-6.98158e-05
1.26948e-05
-2.34542e-05
-5.33478e-05
5.7331e-05
-2.5662e-05
4.50815e-07
5.8205e-05
1.6405e-05
-4.19399e-05
-2.4774e-05
-0.000721199
-0.000296042
-0.000505738
-2.04112e-05
-2.36056e-05
-1.47528e-05
-2.20859e-05
9.444e-07
-0.000162476
0.000176544
-3.56943e-05
-0.000162738
0.000178955
-4.75259e-05
1.56935e-06
-0.000160947
-2.35318e-05
-0.000163396
-3.08441e-05
0.000172943
3.60986e-05
-5.08619e-05
3.2953e-05
-4.54414e-05
3.70205e-06
5.05119e-05
-2.15931e-05
5.71542e-05
-3.01555e-05
4.65977e-05
-2.04943e-05
5.24763e-05
-3.43612e-05
6.73013e-05
2.52007e-05
-7.36107e-05
1.1262e-05
-2.31894e-05
-5.29074e-05
5.78225e-05
-2.84064e-05
6.23236e-05
1.41586e-05
-4.19733e-05
-2.79171e-05
-7.87909e-05
2.57478e-05
1.27545e-06
4.53713e-06
-2.73879e-05
2.65708e-05
-3.88584e-05
7.35489e-07
-7.178e-06
-3.28465e-05
-8.08333e-05
2.58323e-05
3.40376e-06
-2.68247e-05
2.6136e-05
-3.58517e-05
-8.14452e-06
-3.22471e-05
-0.00031156
-0.00064692
-0.000256867
-0.00056876
-0.000218718
-0.00049262
-0.000170734
-0.000424928
-0.000116284
-0.000362068
-5.9018e-05
-0.000301507
-2.1309e-06
0.000263793
1.48207e-06
0.000248205
1.71781e-05
0.000199224
3.69671e-05
0.000213889
-7.95673e-07
0.000242732
-5.28275e-05
0.000284435
9.72678e-07
0.000313129
5.8658e-05
0.000335762
0.000146118
0.000468184
0.000261594
0.000555072
3.18018e-05
2.99387e-05
6.64594e-05
6.43306e-05
1.32318e-06
-6.28341e-05
-1.29145e-05
-6.79595e-05
-6.27444e-06
6.03435e-07
-5.67238e-05
1.07241e-05
-6.44801e-05
1.24052e-05
1.52226e-06
-0.000191487
-3.54341e-05
2.90382e-05
-3.8633e-05
2.69949e-05
-0.000192094
-3.17831e-05
3.12218e-05
-3.41059e-05
2.87631e-05
1.78197e-06
-0.000166567
-4.41725e-05
2.09141e-05
-4.29287e-05
2.31557e-05
-0.000166759
-3.96249e-05
2.26092e-05
-3.82101e-05
2.47447e-05
-2.08547e-05
-4.83991e-05
4.53557e-05
-2.72138e-05
-1.01214e-05
1.63314e-05
-3.67108e-05
-4.18201e-05
5.75808e-07
-3.49571e-06
4.18303e-05
-1.85946e-05
-5.69455e-05
-2.0076e-05
1.51617e-07
-4.83754e-05
1.18206e-05
7.78954e-07
7.16313e-05
-1.3864e-06
-1.05795e-05
1.52517e-05
-3.44356e-05
-2.05893e-05
-4.94774e-05
4.53745e-05
-2.56013e-05
-4.24403e-05
4.18474e-05
-1.10227e-06
-1.83038e-05
-5.86493e-05
-1.87385e-05
-4.91229e-05
1.29487e-05
7.18778e-05
-1.05973e-06
-1.79585e-05
6.10448e-05
-6.34944e-05
-1.51587e-05
5.10865e-05
-1.41243e-07
-5.25499e-05
1.58499e-05
-1.81178e-05
-1.7021e-05
2.49132e-08
1.58915e-05
-1.75723e-05
6.30022e-05
-6.54105e-05
-1.32937e-05
5.18228e-05
-5.30575e-05
1.68964e-05
-1.77358e-05
-1.54337e-05
1.74282e-05
-5.07695e-05
2.02831e-05
1.71232e-07
4.4041e-05
2.62612e-05
-2.16565e-05
5.5668e-05
-2.85254e-05
3.51248e-07
2.24428e-05
5.65284e-05
-2.4315e-05
6.21644e-05
2.17924e-05
3.20845e-07
-6.50636e-05
-6.51922e-06
-2.19318e-05
-3.93894e-05
4.81754e-05
-1.25163e-05
3.30645e-07
6.03122e-05
-4.01571e-06
-2.74528e-05
-1.49185e-05
-0.000647854
-0.000384905
-0.000526371
-9.23135e-05
-7.85808e-05
-5.66611e-05
-4.78535e-05
3.76602e-06
-0.000171914
0.000159078
-1.13416e-05
-0.0001754
0.000158848
-3.28788e-06
2.70012e-06
-1.28228e-05
-1.58309e-05
2.16332e-06
-0.000179911
0.000194058
-5.33456e-05
2.9739e-05
-5.28163e-05
2.43982e-05
-0.000184042
0.000193411
-5.34407e-05
2.86481e-05
-5.33444e-05
2.34053e-05
2.96732e-06
-9.03216e-05
-1.00514e-05
-2.10057e-05
-9.25501e-05
2.86801e-05
-4.69366e-05
2.61965e-05
-4.3002e-07
-9.07233e-05
-1.00919e-05
-2.2019e-05
-9.3992e-05
2.74384e-05
-4.75476e-05
2.52245e-05
-2.07797e-07
-5.42445e-05
2.05782e-05
4.60568e-05
2.38794e-05
-2.13764e-05
5.71544e-05
-2.88174e-05
2.00069e-05
5.8218e-05
-2.59268e-05
3.09457e-05
2.74875e-05
-1.28908e-07
3.62486e-05
-3.82994e-05
-6.56607e-05
-7.95454e-06
4.01945e-07
3.93377e-05
-1.18005e-05
3.06079e-05
2.76109e-05
3.43066e-05
-3.73698e-05
-6.61605e-05
-7.68723e-06
3.60242e-05
-1.46929e-05
6.3022e-05
2.07306e-05
-6.51186e-05
-7.05151e-06
-2.13492e-05
-3.85317e-05
4.59955e-05
-1.45211e-05
6.15816e-05
-5.41963e-06
-2.81635e-05
-1.75547e-05
1.72795e-05
7.47627e-07
-6.91097e-06
-2.66884e-05
1.80331e-05
-7.12264e-06
-2.71259e-05
-0.000307654
-0.000596134
-0.000278789
-0.00050869
-0.000231321
-0.000432033
-0.000176146
-0.000365066
-0.000118577
-0.000302509
-5.97775e-05
-0.00024173
3.00891e-07
0.000238856
1.08251e-05
0.000186258
3.01418e-05
0.000187092
6.37692e-05
0.000201542
4.03978e-05
0.00022403
7.57835e-06
0.00025939
5.47116e-05
0.0002775
0.000116921
0.000326569
0.000287733
0.000429775
8.06389e-05
7.79581e-05
0.000115245
0.000113049
2.83743e-08
-5.59677e-05
3.10173e-05
-6.08094e-05
2.62964e-05
-5.75229e-07
-4.19384e-05
5.30052e-05
-4.43446e-05
4.72906e-05
1.71269e-06
-0.000146145
-4.12663e-05
2.20803e-05
-3.70945e-05
2.12525e-05
-0.00014721
-3.71465e-05
2.35713e-05
-3.33367e-05
2.27967e-05
1.67226e-06
-0.000110375
-2.49771e-05
7.52167e-06
-3.04086e-05
2.11291e-05
-0.000114149
-2.23448e-05
8.42245e-06
-2.70838e-05
2.20077e-05
-1.80101e-05
-6.5544e-05
-1.53744e-05
-5.56282e-05
-4.11869e-07
1.45274e-05
-1.9275e-05
-6.48628e-05
-2.00361e-05
-6.47298e-07
-5.84557e-05
1.12151e-05
-1.7471e-05
-6.68804e-05
-1.28422e-05
-5.5562e-05
1.58436e-05
-1.80999e-05
-6.54664e-05
-1.74199e-05
-5.77453e-05
1.21935e-05
-1.68069e-05
5.97973e-05
-5.40305e-05
-3.31349e-05
5.75633e-05
-7.99202e-07
-5.76771e-05
5.03226e-06
-1.82637e-05
-2.97334e-05
-7.71162e-07
4.75998e-06
-1.55587e-05
5.96582e-05
-5.39285e-05
-2.9796e-05
5.66676e-05
-5.63225e-05
5.9114e-06
-1.72235e-05
-2.67948e-05
5.67837e-06
-1.36339e-05
3.06377e-05
-6.0685e-06
-1.92017e-05
-1.81861e-05
-6.43374e-09
4.77439e-07
3.32322e-05
-1.01662e-05
-2.84651e-05
3.39986e-07
-2.33352e-05
-1.3794e-05
3.29407e-05
-6.11992e-06
-1.92706e-05
3.35704e-05
-1.82183e-05
-1.00052e-05
-2.86788e-05
-2.35441e-05
-1.14886e-05
3.2905e-05
-3.7458e-05
2.67386e-05
7.12185e-07
-3.14652e-05
-1.17493e-05
7.44771e-07
-1.09332e-05
3.35009e-05
-3.80095e-05
2.73633e-05
-3.19406e-05
-1.12731e-05
-5.80123e-05
2.41658e-05
2.5611e-08
5.14223e-05
8.66775e-06
-2.29728e-05
5.27501e-05
-1.01273e-05
2.14045e-07
1.56496e-06
6.00716e-05
-7.47088e-06
2.21647e-05
8.08841e-06
4.46625e-07
-2.52707e-05
-8.86127e-06
-1.75186e-05
1.81458e-05
4.33529e-07
2.03586e-05
-1.9728e-05
-0.000607172
-0.000348336
-0.000529219
-9.78761e-05
-9.8714e-05
-9.56322e-05
-8.98351e-05
3.85966e-06
-0.000151736
0.000130552
-7.49888e-05
-0.000152717
0.00012903
-5.10338e-05
4.13108e-06
-5.34501e-05
-3.75912e-05
3.41546e-06
-0.000203025
0.000199407
-5.30463e-05
4.84295e-05
-4.93614e-05
4.28247e-05
-0.000196924
0.000189825
-4.60494e-05
5.14715e-05
-4.3849e-05
4.56649e-05
2.47045e-06
-4.89957e-05
3.49312e-05
-4.85221e-05
3.8307e-05
-4.68315e-05
3.59559e-05
-4.51629e-05
3.91593e-05
-2.89181e-05
-6.11645e-05
6.22019e-05
-2.54649e-05
-5.27162e-05
-5.58082e-07
5.72064e-05
-3.08177e-06
-2.80396e-05
-6.11774e-05
-2.47638e-05
-2.93951e-07
-4.74863e-05
-8.57751e-06
-2.84335e-05
-6.1041e-05
6.10642e-05
-2.50304e-05
-5.34802e-05
5.7178e-05
-4.0415e-06
-2.7193e-05
-6.16734e-05
-2.5519e-05
-4.83771e-05
-9.18498e-06
-2.07827e-05
6.53884e-05
-6.9194e-05
3.58257e-06
-3.64296e-05
-7.29083e-05
8.83332e-06
4.28924e-05
-1.25685e-06
8.42545e-06
-4.21423e-05
-2.63436e-05
-1.63821e-05
-6.3162e-07
-4.10947e-06
1.49431e-08
-2.70369e-05
2.94892e-05
-2.04495e-05
6.64054e-05
-7.045e-05
2.47503e-06
-3.65759e-05