/*--------------------------------*- C++ -*----------------------------------*\
| =========                 |                                                 |
| \\      /  F ield         | OpenFOAM: The Open Source CFD Toolbox           |
|  \\    /   O peration     | Version:  5.x                                   |
|   \\  /    A nd           | Web:      www.OpenFOAM.org                      |
|    \\/     M anipulation  |                                                 |
\*---------------------------------------------------------------------------*/
FoamFile
{
    version     2.0;
    format      ascii;
    class       volScalarField;
    location    "0.3";
    object      rAU;
}
// * * * * * * * * * * * * * * * * * * * * * * * * * * * * * * * * * * * * * //

dimensions      [-1 3 1 0 0 0 0];

internalField   nonuniform List<scalar> 
12160
(
2.23496e-06
2.23554e-06
2.23468e-06
2.23823e-06
2.23548e-06
2.23706e-06
2.23941e-06
2.23824e-06
2.23821e-06
2.23587e-06
2.23934e-06
2.23944e-06
2.23822e-06
2.2362e-06
2.23642e-06
2.24035e-06
2.23937e-06
2.23986e-06
2.23747e-06
2.23519e-06
2.23553e-06
2.2404e-06
2.24035e-06
2.23984e-06
2.23967e-06
2.23504e-06
2.23405e-06
2.23594e-06
2.24045e-06
2.2404e-06
2.24065e-06
2.23989e-06
2.23987e-06
2.23346e-06
2.23362e-06
2.23408e-06
2.24049e-06
2.24045e-06
2.24065e-06
2.24065e-06
2.24009e-06
2.23838e-06
2.23576e-06
2.23301e-06
3.1705e-06
2.24053e-06
2.24049e-06
2.24064e-06
2.24065e-06
2.24065e-06
2.23877e-06
2.23551e-06
2.23692e-06
3.64909e-06
3.5797e-05
2.24055e-06
2.24053e-06
2.24064e-06
2.24064e-06
2.24065e-06
2.23962e-06
2.23629e-06
2.2339e-06
4.39401e-06
2.81751e-05
0.00178678
2.24057e-06
2.24055e-06
2.24064e-06
2.24064e-06
2.24064e-06
2.23983e-06
2.23751e-06
2.23486e-06
6.24992e-06
4.53602e-05
0.00111891
0.00223241
2.24059e-06
2.24057e-06
2.24064e-06
2.24064e-06
2.24064e-06
2.24005e-06
2.23817e-06
2.23613e-06
8.3675e-06
0.000115444
0.00156595
0.00223877
0.00223937
2.2406e-06
2.24059e-06
2.24064e-06
2.24064e-06
2.24064e-06
2.24019e-06
2.23879e-06
2.23712e-06
1.20623e-05
0.000281575
0.00206887
0.00223628
0.00224032
0.00223995
2.24061e-06
2.2406e-06
2.24064e-06
2.24064e-06
2.24064e-06
2.24031e-06
2.23925e-06
2.23799e-06
1.69105e-05
0.000675277
0.00220684
0.00223991
0.00223714
0.00224056
0.00222268
2.24061e-06
2.24061e-06
2.24063e-06
2.24063e-06
2.24064e-06
2.2404e-06
2.23961e-06
2.23866e-06
2.40381e-05
0.00124896
0.00223322
0.00224059
0.00223969
0.00224041
0.0022404
2.24062e-06
2.24061e-06
2.24063e-06
2.24063e-06
2.24063e-06
2.24047e-06
2.23988e-06
2.23918e-06
3.40296e-05
0.00174868
0.00223708
0.0022406
0.00224056
0.00224036
0.00223826
2.24062e-06
2.24062e-06
2.24063e-06
2.24063e-06
2.24063e-06
2.24051e-06
2.24008e-06
2.23956e-06
4.80545e-05
0.00204167
0.00223967
0.0022406
0.0022406
0.00224047
0.00223657
2.24062e-06
2.24062e-06
2.24063e-06
2.24063e-06
2.24063e-06
2.24055e-06
2.24023e-06
2.23984e-06
6.75133e-05
0.00216526
0.0022406
0.0022406
0.0022406
0.00224052
0.00223631
2.24062e-06
2.24062e-06
2.24063e-06
2.24063e-06
2.24063e-06
2.24057e-06
2.24034e-06
2.24005e-06
9.42428e-05
0.00221232
0.0022406
0.0022406
0.0022406
0.0022406
0.00223676
2.24062e-06
2.24062e-06
2.24063e-06
2.24063e-06
2.24063e-06
2.24059e-06
2.24042e-06
2.24021e-06
0.000130494
0.00222966
0.0022406
0.0022406
0.0022406
0.0022406
0.00223737
2.24063e-06
2.24062e-06
2.24063e-06
2.24063e-06
2.24063e-06
2.2406e-06
2.24047e-06
2.24032e-06
0.000178905
0.00223611
0.0022406
0.0022406
0.0022406
0.0022406
0.00223808
2.24063e-06
2.24063e-06
2.24063e-06
2.24063e-06
2.24063e-06
2.24061e-06
2.24052e-06
2.2404e-06
0.000242313
0.0022386
0.0022406
0.0022406
0.0022406
0.0022406
0.00223868
2.24063e-06
2.24063e-06
2.24063e-06
2.24063e-06
2.24063e-06
2.24061e-06
2.24054e-06
2.24046e-06
0.000323413
0.0022396
0.00224019
0.0022406
0.0022406
0.0022406
0.00223916
2.24063e-06
2.24063e-06
2.24063e-06
2.24063e-06
2.24063e-06
2.24062e-06
2.24057e-06
2.2405e-06
0.000424028
0.00224002
0.00224027
0.00224019
0.0022406
0.0022406
0.00223953
2.24063e-06
2.24063e-06
2.24063e-06
2.24063e-06
2.24063e-06
2.24062e-06
2.24058e-06
2.24054e-06
0.000544361
0.00224021
0.00224031
0.00223992
0.00224059
0.00224059
0.0022398
2.24063e-06
2.24063e-06
2.24063e-06
2.24063e-06
2.24063e-06
2.24062e-06
2.24059e-06
2.24056e-06
0.000681819
0.0022403
0.00224034
0.00224002
0.00224024
0.00224059
0.00224
2.24063e-06
2.24063e-06
2.24063e-06
2.24063e-06
2.24063e-06
2.24062e-06
2.2406e-06
2.24058e-06
0.000830067
0.00224016
0.00224036
0.00224008
0.00224003
0.00224059
0.00224013
2.24062e-06
2.24063e-06
2.24063e-06
2.24063e-06
2.24063e-06
2.24062e-06
2.2406e-06
2.24059e-06
0.000978788
0.00224013
0.00224018
0.00224011
0.00224005
0.00224033
0.00224022
2.24062e-06
2.24063e-06
2.24063e-06
2.24063e-06
2.24063e-06
2.24062e-06
2.2406e-06
2.24059e-06
0.00111564
0.00224014
0.00224015
0.00224013
0.0022401
0.00224032
0.00224029
2.24062e-06
2.24063e-06
2.24063e-06
2.24063e-06
2.24063e-06
2.24062e-06
2.2406e-06
2.2406e-06
0.00122698
0.00224014
0.00224015
0.00224014
0.00224012
0.00224034
0.00224033
2.24062e-06
2.24062e-06
2.24063e-06
2.24063e-06
2.24063e-06
2.24062e-06
2.2406e-06
2.2406e-06
0.00130154
0.00224014
0.00224014
0.00224014
0.00224013
0.00224035
0.00224035
2.24062e-06
2.24062e-06
2.24063e-06
2.24063e-06
2.24063e-06
2.24062e-06
2.2406e-06
2.2406e-06
0.00133143
0.00224014
0.00224014
0.00224014
0.00224014
0.00224013
0.00224036
2.24061e-06
2.24062e-06
2.24063e-06
2.24063e-06
2.24063e-06
2.24062e-06
2.2406e-06
2.24059e-06
0.00131531
0.00224014
0.00224014
0.00224014
0.00224014
0.00224013
0.00224014
2.24061e-06
2.24061e-06
2.24063e-06
2.24063e-06
2.24063e-06
2.24062e-06
2.24059e-06
2.24059e-06
0.00125605
0.00224014
0.00224014
0.00224014
0.00224014
0.00224014
0.00224015
2.2406e-06
2.24061e-06
2.24063e-06
2.24063e-06
2.24063e-06
2.24062e-06
2.24058e-06
2.24058e-06
0.00116234
0.00224014
0.00224014
0.00224014
0.00224014
0.00224014
0.00224015
2.24059e-06
2.2406e-06
2.24063e-06
2.24063e-06
2.24063e-06
2.24061e-06
2.24057e-06
2.24056e-06
0.00104539
0.00224015
0.00224015
0.00224014
0.00224014
0.00224013
0.00224015
2.24059e-06
2.24059e-06
2.24063e-06
2.24063e-06
2.24063e-06
2.24061e-06
2.24056e-06
2.24054e-06
0.00091688
0.00224015
0.00224015
0.00224014
0.00224014
0.00224013
0.00224015
2.24058e-06
2.24059e-06
2.24063e-06
2.24063e-06
2.24063e-06
2.2406e-06
2.24054e-06
2.24052e-06
0.000787066
0.00224015
0.00224015
0.00224014
0.00224014
0.00224013
0.00224014
2.24069e-06
2.24058e-06
2.24063e-06
2.24063e-06
2.24063e-06
2.24059e-06
2.24051e-06
2.24049e-06
0.000663702
0.00224014
0.00224015
0.00224014
0.00224014
0.00224013
0.00224014
2.24069e-06
2.24059e-06
2.24063e-06
2.24063e-06
2.24063e-06
2.24058e-06
2.24048e-06
2.24045e-06
0.00055176
0.00224033
0.00224015
0.00224014
0.00224014
0.00224036
0.00224014
2.24075e-06
2.24059e-06
2.24048e-06
2.24063e-06
2.24063e-06
2.24057e-06
2.24044e-06
2.2404e-06
0.000453697
0.00224031
0.00224035
0.00224013
0.00224013
0.00224036
0.00224037
2.24074e-06
2.24068e-06
2.24048e-06
2.2404e-06
2.24063e-06
2.24055e-06
2.24039e-06
2.24034e-06
0.000370087
0.00224026
0.00224035
0.00224012
0.00224012
0.00224036
0.00224037
2.24072e-06
2.24067e-06
2.24061e-06
2.2404e-06
2.24029e-06
2.24053e-06
2.24033e-06
2.24026e-06
0.000300228
0.00224016
0.00224033
0.0022401
0.0022401
0.00224035
0.00224037
2.24058e-06
2.24067e-06
2.24061e-06
2.2406e-06
2.24029e-06
2.24014e-06
2.24025e-06
2.24017e-06
0.000242729
0.00223998
0.0022403
0.00224006
0.00224007
0.00224034
0.00224036
2.24022e-06
2.24049e-06
2.24062e-06
2.2406e-06
2.24058e-06
2.24015e-06
2.23994e-06
2.24006e-06
0.000195918
0.00223967
0.00224027
0.00224001
0.00224019
0.00224032
0.00224035
2.23995e-06
2.24001e-06
2.24034e-06
2.2406e-06
2.24058e-06
2.24055e-06
2.23995e-06
2.23698e-06
0.00015811
0.00223912
0.00224022
0.00224027
0.00224028
0.00224047
0.00224033
0.000127839
2.23967e-06
2.2396e-06
2.24019e-06
2.24059e-06
2.24056e-06
2.24051e-06
2.2397e-06
2.23655e-06
0.00223809
0.00224029
0.00224023
0.00224058
0.00224058
0.00224031
0.00223617
9.18548e-05
2.2391e-06
2.23908e-06
2.24e-06
2.24056e-06
2.24052e-06
2.24045e-06
2.23948e-06
2.23565e-06
0.00224058
0.00224029
0.00224058
0.00224058
0.00224028
0.00224072
0.00222983
5.75544e-05
2.23832e-06
2.23841e-06
2.23979e-06
2.24053e-06
2.24047e-06
2.24038e-06
2.23082e-06
2.22371e-06
0.00224058
0.00224058
0.00224058
0.00224023
0.00224069
0.00224065
0.00219746
3.71226e-05
2.2373e-06
2.2376e-06
2.23961e-06
2.24049e-06
2.24041e-06
2.23693e-06
2.21956e-06
2.20518e-06
0.00224058
0.00224058
0.00224017
0.00224066
0.00224064
0.00224057
0.00208963
2.47902e-05
2.23602e-06
2.23668e-06
2.23951e-06
2.24044e-06
2.24034e-06
2.23128e-06
2.22567e-06
2.22303e-06
2.21162e-06
0.00224058
0.0022401
0.00224063
0.00224063
0.00224058
0.00224056
0.00179993
1.71628e-05
2.23448e-06
2.23573e-06
2.23978e-06
2.24039e-06
2.2378e-06
2.23269e-06
2.23108e-06
2.22783e-06
2.22723e-06
2.23284e-06
0.00224001
0.00223992
0.00224062
0.00224058
0.00224057
0.00223963
0.00129989
1.2346e-05
2.23272e-06
2.23506e-06
2.24019e-06
2.23965e-06
2.23721e-06
2.23896e-06
2.23836e-06
2.21997e-06
2.22491e-06
2.24017e-06
2.24063e-06
0.00223971
0.00224059
0.00224058
0.00224056
0.00223716
0.000759447
9.24943e-06
2.23082e-06
2.23443e-06
2.24016e-06
2.23954e-06
2.24063e-06
2.24063e-06
2.23303e-06
2.23787e-06
2.22244e-06
2.24064e-06
2.24064e-06
2.24063e-06
0.00223927
0.00224058
0.00224057
0.00224055
0.00223483
0.000398883
7.23715e-06
2.22882e-06
2.23344e-06
2.24016e-06
2.24063e-06
2.24063e-06
2.23923e-06
2.23772e-06
2.21977e-06
2.23929e-06
2.24064e-06
2.24064e-06
2.24064e-06
2.24063e-06
0.00223871
0.00224058
0.00224057
0.00224055
0.00222595
0.000213022
5.91381e-06
2.22678e-06
2.23482e-06
2.24063e-06
2.24063e-06
2.23979e-06
2.23882e-06
2.21135e-06
2.21901e-06
2.23244e-06
2.24001e-06
2.24064e-06
2.24064e-06
2.24064e-06
2.24063e-06
0.00223807
0.00224058
0.00224056
0.00224055
0.00219808
0.000123575
5.05964e-06
2.22744e-06
2.23454e-06
2.24063e-06
2.24046e-06
2.23945e-06
2.23059e-06
2.23538e-06
2.23641e-06
2.2008e-06
2.23523e-06
2.21181e-06
2.21482e-06
2.2307e-06
2.23648e-06
2.24064e-06
2.24064e-06
2.24064e-06
2.24063e-06
0.00223741
0.00224058
0.00224057
0.00224056
0.00212898
8.04722e-05
4.54003e-06
2.22668e-06
2.2354e-06
2.24063e-06
2.24046e-06
2.23804e-06
2.22016e-06
2.23395e-06
2.21743e-06
2.23403e-06
2.19667e-06
2.21977e-06
2.19495e-06
2.20454e-06
2.22821e-06
2.22077e-06
2.22511e-06
2.23223e-06
2.23542e-06
2.24064e-06
2.24064e-06
2.24064e-06
2.24063e-06
0.00223681
0.00224058
0.00224057
0.00224057
0.00200171
5.98551e-05
4.2475e-06
2.22729e-06
2.23628e-06
2.24063e-06
2.23829e-06
2.20889e-06
2.23839e-06
2.20368e-06
2.20215e-06
2.19971e-06
2.19952e-06
2.23156e-06
2.18996e-06
2.21697e-06
2.22543e-06
2.22656e-06
2.23252e-06
2.22617e-06
2.18435e-06
2.19554e-06
2.19505e-06
2.22927e-06
2.23896e-06
2.24064e-06
2.24064e-06
2.24064e-06
2.24064e-06
0.00223633
0.00224056
0.00224058
0.00224056
0.00184818
4.92984e-05
4.06121e-06
2.23628e-06
2.23845e-06
2.23892e-06
2.22098e-06
2.23709e-06
2.21125e-06
2.20298e-06
2.22874e-06
2.21448e-06
2.12938e-06
2.12961e-06
2.16044e-06
2.16355e-06
2.18599e-06
2.14245e-06
2.06813e-06
2.13712e-06
2.07672e-06
2.22204e-06
2.23102e-06
2.19825e-06
2.19183e-06
2.20194e-06
2.19789e-06
2.183e-06
2.16194e-06
2.15761e-06
2.15028e-06
2.09542e-06
2.14619e-06
2.08946e-06
2.12932e-06
2.03232e-06
2.02971e-06
2.10956e-06
2.13959e-06
2.04447e-06
2.03401e-06
2.09529e-06
2.23897e-06
2.23935e-06
2.24064e-06
2.24064e-06
2.24064e-06
2.24064e-06
0.00223599
0.00224057
0.00224059
0.00223549
0.00169797
4.33971e-05
4.01158e-06
2.23845e-06
2.23868e-06
2.23622e-06
2.23218e-06
2.22422e-06
2.21857e-06
2.21555e-06
2.21307e-06
2.16643e-06
2.17156e-06
2.17893e-06
2.182e-06
2.01888e-06
2.10816e-06
2.10933e-06
2.09422e-06
2.07388e-06
2.00789e-06
2.12023e-06
2.01643e-06
2.11116e-06
2.07681e-06
2.07075e-06
2.00644e-06
2.13547e-06
2.02067e-06
2.13164e-06
2.02065e-06
2.15246e-06
2.01261e-06
2.12231e-06
2.01149e-06
2.05326e-06
2.0488e-06
2.11284e-06
2.02585e-06
2.16921e-06
2.18176e-06
2.18089e-06
2.19435e-06
2.22306e-06
2.22108e-06
2.18865e-06
2.18861e-06
2.17268e-06
2.16827e-06
2.1328e-06
2.13429e-06
2.14462e-06
2.14254e-06
2.06326e-06
2.05254e-06
2.11581e-06
2.00649e-06
2.00017e-06
2.03682e-06
2.0145e-06
2.10969e-06
2.0174e-06
2.02762e-06
2.02807e-06
2.07101e-06
2.17427e-06
2.19282e-06
2.17202e-06
2.17833e-06
2.09172e-06
2.18147e-06
2.09334e-06
2.165e-06
2.23935e-06
2.24064e-06
2.24064e-06
2.24064e-06
2.24064e-06
2.24064e-06
0.00223586
0.00224058
0.00223558
0.00223523
0.00158645
4.13984e-05
4.03285e-06
2.23868e-06
2.23797e-06
2.2343e-06
2.22205e-06
2.22017e-06
2.22913e-06
2.22886e-06
2.21625e-06
2.21798e-06
2.20814e-06
2.20877e-06
2.09045e-06
2.0695e-06
2.09776e-06
2.14637e-06
2.13192e-06
2.06524e-06
2.12819e-06
2.14223e-06
2.09197e-06
2.09897e-06
2.12928e-06
2.09429e-06
2.10478e-06
2.09844e-06
2.13852e-06
2.09088e-06
2.08461e-06
1.93567e-06
2.03402e-06
2.12821e-06
2.08764e-06
2.08892e-06
2.09066e-06
1.93486e-06
2.12928e-06
2.02109e-06
2.08106e-06
2.07843e-06
2.12311e-06
2.15254e-06
2.18032e-06
2.16167e-06
2.09284e-06
2.15111e-06
2.18117e-06
2.15318e-06
2.13533e-06
2.16964e-06
2.16285e-06
2.12404e-06
2.18938e-06
2.12573e-06
2.1523e-06
2.16602e-06
2.22693e-06
2.20768e-06
2.20788e-06
2.21501e-06
2.20454e-06
2.20885e-06
2.13843e-06
2.17121e-06
2.14146e-06
2.17485e-06
2.05835e-06
2.14479e-06
2.09418e-06
2.09495e-06
2.08924e-06
2.1471e-06
2.09306e-06
2.10009e-06
2.10537e-06
2.03846e-06
2.08808e-06
2.10684e-06
2.09692e-06
2.06457e-06
2.10794e-06
2.04954e-06
2.09524e-06
2.10596e-06
2.10175e-06
2.0728e-06
2.14628e-06
2.17645e-06
2.15256e-06
2.13183e-06
2.09944e-06
2.11263e-06
2.10964e-06
2.12679e-06
2.18345e-06
2.16293e-06
2.14027e-06
2.20141e-06
2.19577e-06
2.20111e-06
2.19432e-06
2.1996e-06
2.24064e-06
2.24064e-06
2.24064e-06
2.24064e-06
2.24064e-06
2.24064e-06
0.00223602
0.0022405
0.00223557
0.00223554
0.00156682
4.34042e-05
4.23471e-06
2.23994e-06
2.23021e-06
2.22068e-06
2.22093e-06
2.20635e-06
2.20763e-06
2.21756e-06
2.21707e-06
2.22093e-06
2.22698e-06
2.11462e-06
2.16701e-06
2.14255e-06
2.16869e-06
2.12654e-06
2.16491e-06
2.14675e-06
2.16699e-06
2.06689e-06
2.09026e-06
2.09122e-06
2.16997e-06
2.08016e-06
2.09071e-06
2.10212e-06
2.16745e-06
2.13579e-06
2.16717e-06
2.1994e-06
2.1393e-06
2.10415e-06
2.1439e-06
2.19456e-06
2.12212e-06
2.16354e-06
2.08637e-06
2.20234e-06
2.09248e-06
2.15149e-06
2.08292e-06
2.1988e-06
2.07912e-06
2.17694e-06
2.16601e-06
2.15963e-06
2.15744e-06
2.23109e-06
2.20261e-06
2.22339e-06
2.22147e-06
2.20784e-06
2.21442e-06
2.1478e-06
2.15523e-06
2.1222e-06
2.12957e-06
2.07439e-06
2.05366e-06
2.077e-06
2.11146e-06
2.06222e-06
2.05367e-06
2.07945e-06
2.11139e-06
2.00434e-06
2.05398e-06
2.04451e-06
2.0508e-06
2.02477e-06
2.05372e-06
2.04118e-06
2.05117e-06
2.13357e-06
2.08062e-06
2.15443e-06
2.10871e-06
2.12628e-06
2.07329e-06
2.1491e-06
2.10627e-06
2.12518e-06
2.17512e-06
2.16844e-06
2.02662e-06
2.14247e-06
2.09379e-06
2.13595e-06
2.21646e-06
2.18273e-06
2.03179e-06
2.13731e-06
2.08617e-06
2.18097e-06
2.15114e-06
2.16502e-06
2.15917e-06
2.1102e-06
2.17143e-06
2.1102e-06
2.1734e-06
2.24064e-06
2.24064e-06
2.24064e-06
2.24064e-06
2.24064e-06
2.24064e-06
0.00223612
0.00224051
0.00223522
0.0022371
0.00167421
5.36483e-05
4.76579e-06
2.23658e-06
2.23597e-06
2.22557e-06
2.2321e-06
2.21219e-06
2.21347e-06
2.19259e-06
2.19347e-06
2.22165e-06
2.22285e-06
2.18152e-06
2.15723e-06
2.19345e-06
2.1796e-06
2.16782e-06
2.15077e-06
2.19114e-06
2.17932e-06
2.08858e-06
2.10228e-06
2.12097e-06
2.09981e-06
2.10068e-06
2.0979e-06
2.13144e-06
2.10313e-06
2.08471e-06
2.05142e-06
2.03512e-06
2.05963e-06
2.24065e-06
2.20889e-06
2.19169e-06
2.20049e-06
2.21904e-06
2.22125e-06
2.22371e-06
2.22438e-06
2.18803e-06
2.20822e-06
2.01461e-06
2.07783e-06
2.06279e-06
2.08137e-06
2.02501e-06
2.06677e-06
2.04958e-06
2.07171e-06
2.04906e-06
2.05368e-06
2.02549e-06
2.08585e-06
2.05579e-06
2.04874e-06
2.02551e-06
2.08312e-06
2.15349e-06
2.09846e-06
2.10896e-06
2.07759e-06
2.13234e-06
2.07789e-06
2.09252e-06
2.06807e-06
2.12246e-06
2.04922e-06
2.10745e-06
2.04062e-06
2.11626e-06
2.10281e-06
2.07259e-06
2.05861e-06
2.24064e-06
2.24064e-06
2.24064e-06
2.24064e-06
2.24064e-06
2.24064e-06
0.00223662
0.00224019
0.00223665
0.00223828
0.00198762
9.44036e-05
6.19936e-06
2.25589e-06
2.23099e-06
2.22975e-06
2.20756e-06
2.20583e-06
2.21352e-06
2.22251e-06
2.21412e-06
2.22481e-06
2.02319e-06
2.05079e-06
2.03946e-06
2.1368e-06
2.02484e-06
2.06557e-06
2.03871e-06
2.15141e-06
2.09363e-06
2.16011e-06
2.17041e-06
2.1645e-06
2.09589e-06
2.16493e-06
2.17325e-06
2.1673e-06
2.16945e-06
2.2076e-06
2.22427e-06
2.21882e-06
2.14329e-06
2.2015e-06
2.22187e-06
2.21435e-06
2.11081e-06
2.14058e-06
2.19918e-06
2.17831e-06
2.11567e-06
2.13922e-06
2.20143e-06
2.17734e-06
2.24065e-06
2.23392e-06
2.21948e-06
2.17551e-06
2.18016e-06
2.20596e-06
2.21109e-06
2.16988e-06
2.15795e-06
2.14197e-06
2.14575e-06
1.99715e-06
2.12023e-06
2.057e-06
2.13461e-06
2.00159e-06
2.113e-06
2.05119e-06
2.11793e-06
2.14054e-06
2.08283e-06
2.13156e-06
2.15124e-06
2.11018e-06
2.09946e-06
2.11566e-06
2.14403e-06
2.23141e-06
2.14292e-06
2.21674e-06
1.96428e-06
2.24064e-06
2.24064e-06
2.24064e-06
2.24064e-06
2.24064e-06
2.24063e-06
0.00223684
0.00224019
0.00223781
0.0022365
0.00220881
0.000449685
1.48372e-05
3.06561e-06
2.22804e-06
2.23124e-06
2.24088e-06
2.2448e-06
2.14619e-06
2.17974e-06
2.14333e-06
2.13522e-06
2.13673e-06
2.18325e-06
2.14383e-06
2.1294e-06
2.20633e-06
2.2102e-06
2.11423e-06
2.18519e-06
2.13991e-06
2.23531e-06
2.11647e-06
2.18452e-06
2.15788e-06
2.23715e-06
2.1152e-06
2.18439e-06
2.16166e-06
2.18639e-06
2.12851e-06
2.18797e-06
2.17289e-06
2.19106e-06
2.0908e-06
2.04952e-06
2.0917e-06
2.07382e-06
2.24064e-06
2.24067e-06
2.22571e-06
2.22755e-06
2.22664e-06
2.22664e-06
2.22203e-06
2.18126e-06
2.19304e-06
2.18202e-06
2.1867e-06
2.09497e-06
1.95636e-06
2.07661e-06
1.96069e-06
2.10019e-06
1.96074e-06
2.08446e-06
1.95651e-06
2.14279e-06
2.06446e-06
2.07837e-06
2.00851e-06
2.13963e-06
2.06902e-06
2.07758e-06
2.01061e-06
2.12839e-06
2.00444e-06
2.131e-06
2.00138e-06
2.14658e-06
2.0337e-06
2.15432e-06
2.02816e-06
2.16764e-06
2.18989e-06
2.14836e-06
2.13788e-06
2.16946e-06
2.14681e-06
2.14674e-06
2.14794e-06
2.24064e-06
2.24064e-06
2.24064e-06
2.24064e-06
2.24063e-06
0.00223801
0.00223951
0.0022396
0.00222586
0.00223147
0.00163341
5.41888e-05
3.39838e-06
3.40853e-06
7.6942e-06
7.72482e-06
2.22447e-06
2.18995e-06
2.31149e-06
2.18839e-06
2.22746e-06
2.18737e-06
2.31041e-06
2.19072e-06
2.42975e-06
2.4308e-06
2.14289e-06
2.1183e-06
2.14128e-06
2.11906e-06
2.14396e-06
2.11775e-06
2.14406e-06
2.13497e-06
2.18518e-06
2.13316e-06
2.12449e-06
2.07662e-06
2.1908e-06
2.13353e-06
2.12465e-06
2.07776e-06
2.06862e-06
2.19894e-06
2.14928e-06
2.14432e-06
2.06787e-06
2.19223e-06
2.14413e-06
2.13029e-06
2.24064e-06
2.24065e-06
2.23462e-06
2.21122e-06
2.16203e-06
2.17621e-06
2.16802e-06
2.17485e-06
2.14435e-06
2.15219e-06
1.97162e-06
2.04152e-06
2.01158e-06
1.98114e-06
1.99976e-06
2.04416e-06
2.01934e-06
2.00902e-06
2.11486e-06
2.19145e-06
2.10197e-06
2.1326e-06
2.11309e-06
2.19324e-06
2.11105e-06
2.13162e-06
2.07198e-06
2.15708e-06
2.10424e-06
2.06001e-06
2.07263e-06
2.16734e-06
2.11677e-06
2.06152e-06
2.21075e-06
1.72192e-06
2.2173e-06
1.75732e-06
2.24064e-06
2.24064e-06
2.24064e-06
2.24063e-06
0.00223821
0.00223917
0.00223693
0.0022317
0.00220873
0.00218613
0.00216338
0.0021666
0.00190865
0.00190828
4.51969e-06
4.54249e-06
2.00808e-05
2.03522e-05
2.24027e-06
2.21283e-06
2.32393e-06
2.21584e-06
2.23906e-06
2.2109e-06
2.32149e-06
2.21433e-06
2.22285e-06
2.98072e-06
2.4894e-06
2.52373e-06
2.22426e-06
2.98693e-06
2.4943e-06
2.52375e-06
2.21005e-06
2.20054e-06
2.16813e-06
2.13758e-06
2.20993e-06
2.20081e-06
2.16956e-06
2.13624e-06
2.20814e-06
2.15138e-06
2.22543e-06
2.03294e-06
2.21037e-06
2.20743e-06
2.23131e-06
2.11084e-06
2.24064e-06
2.23882e-06
2.2387e-06
2.22492e-06
2.16513e-06
2.17419e-06
2.13931e-06
2.13908e-06
2.13541e-06
2.13884e-06
2.01078e-06
1.99364e-06
1.91096e-06
2.01441e-06
2.03217e-06
2.02186e-06
1.94649e-06
2.01013e-06
2.09942e-06
2.03677e-06
2.11534e-06
2.0898e-06
2.00152e-06
2.03212e-06
2.09608e-06
2.08072e-06
2.11692e-06
2.09621e-06
1.99638e-06
2.04184e-06
2.10959e-06
2.0449e-06
2.10992e-06
2.05033e-06
2.09363e-06
2.19611e-06
2.07556e-06
2.23717e-06
2.06021e-06
2.18431e-06
2.08531e-06
2.22188e-06
2.24064e-06
2.24064e-06
2.24063e-06
0.00223998
0.00223957
0.00223601
0.0022271
0.0022076
0.00220367
0.00214067
0.00214561
0.00199276
0.00199012
4.63586e-06
3.15289e-06
3.44362e-06
8.60477e-06
8.36345e-06
2.51003e-06
3.16348e-06
4.64027e-06
2.51186e-06
3.36961e-06
8.68404e-06
8.08934e-06
0.000116718
8.67471e-05
2.82005e-05
3.59441e-05
0.000108276
9.56465e-05
2.69095e-05
3.6386e-05
2.27631e-06
2.22572e-06
2.32683e-06
2.19807e-06
2.2795e-06
2.22465e-06
2.32819e-06
2.19793e-06
2.25198e-06
2.62129e-06
2.25332e-06
2.61874e-06
2.00037e-06
2.16715e-06
1.99852e-06
2.17563e-06
2.20021e-06
2.11855e-06
2.20128e-06
2.11354e-06
2.24064e-06
2.24064e-06
2.23884e-06
2.22235e-06
2.20769e-06
2.20657e-06
2.2033e-06
2.20397e-06
2.135e-06
2.14543e-06
2.1243e-06
2.12876e-06
2.04522e-06
1.96007e-06
2.03526e-06
2.06516e-06
2.07659e-06
2.01827e-06
2.04741e-06
1.97622e-06
2.03679e-06
2.06456e-06
2.06781e-06
1.95996e-06
2.0708e-06
2.11068e-06
2.0321e-06
2.05915e-06
2.10944e-06
2.07164e-06
2.15038e-06
2.15521e-06
2.05546e-06
2.13455e-06
2.13647e-06
2.10076e-06
2.15837e-06
2.1475e-06
2.05943e-06
2.13173e-06
2.10954e-06
2.04659e-06
2.09815e-06
2.04154e-06
2.24064e-06
2.24063e-06
0.00224034
0.00223814
0.00223388
0.00223513
0.00221377
0.00220353
0.00219379
0.00218623
0.0021685
0.00213402
0.00213937
0.00211058
0.00210134
3.064e-06
5.63448e-06
5.3806e-06
2.4146e-06
1.34548e-05
2.7459e-05
3.1001e-06
5.60001e-06
2.41005e-06
4.98476e-06
1.21984e-05
2.40173e-05
0.000618602
0.000530777
5.33717e-05
8.15522e-05
0.000457433
0.000542515
4.28484e-05
7.36454e-05
2.30398e-06
2.20757e-06
2.30441e-06
2.20432e-06
2.24064e-06
2.24064e-06
2.23636e-06
2.23439e-06
2.21812e-06
2.1915e-06
2.19386e-06
2.21189e-06
2.21657e-06
1.98147e-06
2.0236e-06
2.02142e-06
2.06843e-06
1.99908e-06
2.02481e-06
2.03792e-06
2.06022e-06
2.08013e-06
2.02403e-06
2.07326e-06
1.99249e-06
2.10689e-06
2.08876e-06
2.08217e-06
2.02403e-06
2.07765e-06
2.00579e-06
2.10399e-06
2.086e-06
2.01973e-06
2.05887e-06
2.0336e-06
2.16472e-06
2.07428e-06
2.05742e-06
2.08529e-06
2.11737e-06
2.17447e-06
2.09038e-06
2.10978e-06
2.01998e-06
2.12855e-06
2.0941e-06
2.22033e-06
2.04628e-06
2.1806e-06
2.2248e-06
2.23623e-06
2.0544e-06
2.24063e-06
0.00223615
0.00223708
0.00223747
0.00223529
0.00222807
0.00218086
0.00216614
0.00219027
0.00216756
0.00200797
0.00187224
0.0015996
0.00212819
0.00199489
0.00203949
0.00180684
0.00211674
0.00213152
0.00215825
0.000998684
0.00125383
0.000159661
0.000446058
0.00136289
0.00116621
0.000157252
0.000301134
2.24063e-06
2.24064e-06
2.24064e-06
2.22013e-06
2.22819e-06
2.2156e-06
2.21577e-06
2.20546e-06
2.205e-06
2.21164e-06
2.2177e-06
2.14959e-06
2.16061e-06
2.03446e-06
2.0449e-06
2.11562e-06
2.09153e-06
2.03432e-06
2.04371e-06
2.10343e-06
2.0661e-06
2.04381e-06
2.01496e-06
1.88628e-06
2.01008e-06
2.08131e-06
1.98727e-06
2.05928e-06
2.02801e-06
2.05593e-06
2.09131e-06
2.06669e-06
2.00215e-06
1.76203e-06
2.02241e-06
1.85834e-06
2.09549e-06
0.00223946
0.00223639
0.00223454
0.00223734
0.00219717
0.0021929
0.0021817
0.00218513
0.00218489
0.00216873
0.00218256
0.00215645
0.00209768
0.00129953
0.00126305
0.00208427
0.00213281
0.00156347
0.0014455
0.0021032
0.00190264
0.00198973
0.00209049
0.00193845
0.00219587
0.00197971
0.00208496
0.00191912
0.000272022
0.00042749
0.000474744
0.000420478
2.24063e-06
2.24064e-06
2.24064e-06
2.22322e-06
2.21724e-06
2.15309e-06
2.15533e-06
2.18418e-06
2.18602e-06
2.15838e-06
2.16231e-06
2.01359e-06
2.02293e-06
2.0555e-06
1.95941e-06
2.01219e-06
2.03517e-06
2.04883e-06
1.98209e-06
2.18239e-06
2.17388e-06
2.13931e-06
2.05916e-06
2.16235e-06
2.17206e-06
2.12468e-06
2.08745e-06
0.00223993
0.00223425
0.00223238
0.00223293
0.00222144
0.0022329
0.00220709
0.002221
0.00211886
0.00207827
0.00207934
0.00216655
0.00214831
0.00210309
0.00217023
0.00209655
0.00204527
0.00215977
0.00210028
0.00211035
0.0021821
0.00218637
0.00220374
0.00202187
0.00200684
0.00189044
0.00215185
0.00201864
0.00181596
0.00192859
0.00168641
0.00168048
0.00165837
0.00169491
2.24063e-06
2.24064e-06
2.24064e-06
2.22836e-06
2.18424e-06
2.18774e-06
2.18311e-06
2.18993e-06
2.17855e-06
2.18886e-06
2.16409e-06
2.1672e-06
1.8975e-06
2.00898e-06
1.96977e-06
2.05299e-06
1.97627e-06
2.0597e-06
1.93895e-06
2.01183e-06
1.97572e-06
2.06085e-06
1.99144e-06
2.05837e-06
2.11462e-06
2.03739e-06
2.20089e-06
2.14099e-06
2.15544e-06
1.98624e-06
2.14648e-06
2.09035e-06
0.0022268
0.00223709
0.00223057
0.00220993
0.00220704
0.00222916
0.00223247
0.00217752
0.00219291
0.00221233
0.00222103
0.00225362
0.00206397
0.00214677
0.00193709
0.00219087
0.00207829
0.00211305
0.00210302
0.00209748
0.00215368
0.00215162
0.00213201
0.00206332
0.00208276
0.00207904
0.00212791
0.00212324
0.00210204
0.00212242
0.00211257
2.24063e-06
2.24064e-06
2.23629e-06
2.20981e-06
2.21269e-06
2.2097e-06
2.21643e-06
2.21519e-06
2.11996e-06
2.12448e-06
1.96358e-06
2.0474e-06
1.9599e-06
1.98402e-06
2.03769e-06
1.99223e-06
1.97049e-06
1.98299e-06
2.03417e-06
1.98884e-06
1.95648e-06
2.05213e-06
1.96581e-06
2.09307e-06
1.99113e-06
1.75917e-06
2.06139e-06
2.12399e-06
2.0837e-06
1.78749e-06
2.11515e-06
1.43178e-06
2.17893e-06
1.49265e-06
0.00222846
0.0022374
0.0022283
0.00220119
0.00219686
0.00220462
0.00220549
0.00210205
0.00210252
0.00206434
0.00208985
0.00213092
0.0020598
0.00213007
0.00210252
0.00209565
0.00208558
0.00214648
0.00205555
0.0021709
0.00217217
0.00217183
0.00207808
0.00207074
0.00187508
0.00208086
0.00214541
0.00206206
0.00214727
2.24063e-06
2.22132e-06
2.22138e-06
2.18996e-06
2.1953e-06
2.18722e-06
2.19363e-06
2.21192e-06
2.21677e-06
2.15452e-06
2.15374e-06
1.93072e-06
1.94032e-06
2.0128e-06
1.97892e-06
1.98975e-06
1.98429e-06
1.94111e-06
1.98475e-06
1.99759e-06
1.95117e-06
2.01866e-06
1.98336e-06
2.00429e-06
1.9676e-06
2.02372e-06
2.02857e-06
2.01527e-06
1.99719e-06
2.04726e-06
1.94096e-06
0.0022163
0.00223737
0.00222699
0.00216349
0.00216531
0.0021704
0.00217108
0.002146
0.00216229
0.00213857
0.00218927
0.00221217
0.00208884
0.00215316
0.00219734
0.00214843
0.00206975
0.00217272
0.00205122
0.0019307
0.00207007
0.00199679
0.00207942
0.00194962
0.00207923
0.00198863
0.00209196
0.0020145
0.00213298
0.00186458
0.00217041
2.24064e-06
2.20378e-06
2.21989e-06
2.2019e-06
2.20192e-06
2.21721e-06
2.22023e-06
2.1251e-06
2.13237e-06
2.00673e-06
1.96118e-06
1.96123e-06
2.00227e-06
1.98424e-06
1.95364e-06
2.01156e-06
1.96607e-06
1.96762e-06
2.00857e-06
1.98957e-06
1.9639e-06
2.08464e-06
2.0862e-06
1.96501e-06
2.07047e-06
2.09149e-06
2.05454e-06
2.11863e-06
1.99093e-06
0.00221195
0.00223152
0.00216138
0.0022294
0.00223171
0.00216435
0.00216722
0.00216762
0.00215125
0.0019235
0.00214243
0.00215448
0.00195523
0.00213371
0.00204812
0.00217039
0.00216253
0.00217449
0.00214219
0.00217003
0.00205706
0.00214848
0.00216058
0.00216909
0.00219275
0.00214349
0.00204588
0.00213363
0.00205637
0.00213466
2.2235e-06
2.22118e-06
2.22436e-06
2.19153e-06
2.1982e-06
2.17683e-06
2.18529e-06
1.91747e-06
1.95425e-06
2.02295e-06
2.01348e-06
2.00634e-06
1.99442e-06
1.94749e-06
2.02107e-06
2.00024e-06
1.95994e-06
2.02801e-06
2.02513e-06
2.0759e-06
1.98708e-06
2.11821e-06
2.037e-06
2.10676e-06
1.99634e-06
2.11961e-06
2.02968e-06
2.0533e-06
1.93053e-06
2.0607e-06
1.88966e-06
0.00218732
0.00221507
0.00214576
0.00215636
0.00215457
0.00215703
0.00219429
0.00219663
0.00194152
0.00189889
0.00217765
0.00204045
0.00217883
0.00206212
0.00196137
0.00207625
0.00190531
0.0019419
0.00217502
0.00205551
0.00217642
0.00204946
0.00196216
0.0020729
0.00210395
0.00210247
0.00210375
0.0020893
0.00211155
0.00213836
0.00211553
0.00212392
2.22354e-06
2.23663e-06
2.20374e-06
2.16612e-06
2.17551e-06
2.20281e-06
2.18478e-06
2.181e-06
2.11177e-06
1.99495e-06
2.00984e-06
2.11624e-06
1.99627e-06
1.99816e-06
2.13735e-06
2.17628e-06
2.12918e-06
2.04507e-06
2.175e-06
2.1442e-06
2.0963e-06
2.03374e-06
2.06252e-06
2.05049e-06
2.09274e-06
1.99524e-06
2.06342e-06
2.05578e-06
2.09252e-06
2.00609e-06
0.00217176
0.00222428
0.00212505
0.00215863
0.00203299
0.00216367
0.00213068
0.00213786
0.0020324
0.00217215
0.00224587
0.0022526
0.00193846
0.00222996
0.00160287
0.00209519
0.00208612
0.00213643
0.00194826
0.0016356
0.00222817
0.00215102
0.00208453
0.00210297
0.00183576
0.00153041
0.00182825
0.00152922
2.24063e-06
2.23023e-06
2.19836e-06
2.17729e-06
2.18017e-06
2.20471e-06
2.1798e-06
2.18656e-06
1.97289e-06
1.9177e-06
2.09436e-06
1.93954e-06
2.09457e-06
2.01268e-06
1.92257e-06
1.98713e-06
1.98908e-06
1.93099e-06
2.09799e-06
1.94976e-06
2.09316e-06
2.01485e-06
1.95263e-06
1.98846e-06
2.16212e-06
2.16296e-06
2.07131e-06
2.06181e-06
2.13258e-06
2.10666e-06
2.11932e-06
2.03141e-06
0.00217203
0.00219632
0.00221671
0.00220924
0.00219696
0.00218827
0.00218218
0.00193818
0.0021719
0.00188985
0.00215433
0.00191835
0.00200503
0.00192704
0.00199808
0.00214288
0.0020155
0.00204219
0.00195093
0.00217445
0.00188546
0.00216584
0.00191379
0.00200583
0.00193404
0.00201207
0.00214488
0.00202159
0.00204457
0.0018784
0.00183374
0.00188637
0.00213237
0.00190754
0.00182714
0.00180229
0.00213836
2.23153e-06
2.21533e-06
2.18184e-06
2.11712e-06
1.97589e-06
2.05522e-06
2.11451e-06
1.975e-06
2.06057e-06
2.20217e-06
2.1622e-06
2.18605e-06
2.08495e-06
2.14525e-06
2.00788e-06
2.04542e-06
2.04432e-06
2.03583e-06
2.11227e-06
2.14077e-06
1.98927e-06
2.03973e-06
2.05026e-06
2.02891e-06
2.17749e-06
1.8399e-06
2.1934e-06
1.86376e-06
0.00219395
0.00216954
0.00223388
0.00218469
0.00222138
0.00222327
0.00222154
0.00140192
0.00177818
0.00195699
0.00200973
0.00225284
0.00214897
0.00200565
0.00188613
0.0021773
0.00190783
0.00207534
0.00214517
0.00204011
0.00205785
0.00139102
0.00180339
0.00203951
0.00198125
0.00225232
0.00214815
0.00189095
0.0019988
0.00217775
0.0019154
0.00208572
0.00214989
0.00202413
0.00206869
2.23139e-06
2.19647e-06
2.13518e-06
2.15203e-06
2.20296e-06
2.20516e-06
2.20205e-06
1.82851e-06
2.08669e-06
1.92701e-06