/*--------------------------------*- C++ -*----------------------------------*\
| =========                 |                                                 |
| \\      /  F ield         | OpenFOAM: The Open Source CFD Toolbox           |
|  \\    /   O peration     | Version:  5.x                                   |
|   \\  /    A nd           | Web:      www.OpenFOAM.org                      |
|    \\/     M anipulation  |                                                 |
\*---------------------------------------------------------------------------*/
FoamFile
{
    version     2.0;
    format      ascii;
    class       volVectorField;
    location    "0.3";
    object      U;
}
// * * * * * * * * * * * * * * * * * * * * * * * * * * * * * * * * * * * * * //

dimensions      [0 1 -1 0 0 0 0];

internalField   nonuniform List<vector> 
12160
(
(0.178764 0 0.00364729)
(0.182837 0 0.00570979)
(0.178549 0 0.00423048)
(0.130144 0 0.0068468)
(0.182842 0 0.0121939)
(0.178573 0 0.0140139)
(0.122188 0 0.00544949)
(0.130026 0 0.017852)
(0.184025 0 0.0264909)
(0.177231 0 0.00907067)
(0.0849044 0 0.00521343)
(0.121808 0 0.0149801)
(0.130573 0 0.0337174)
(0.182483 0 0.0280479)
(0.17831 0 0.0258597)
(0.0711887 0 0.00412319)
(0.0843298 0 0.014831)
(0.121214 0 0.0272949)
(0.128877 0 0.0405065)
(0.185435 0 0.0500812)
(0.174644 0 0.0119838)
(0.0506609 0 0.00336685)
(0.0704986 0 0.0119789)
(0.0831182 0 0.0258959)
(0.11899 0 0.0348378)
(0.130701 0 0.0630278)
(0.180491 0 0.0451687)
(0.182796 0 0.0365455)
(0.0390077 0 0.00261343)
(0.0500441 0 0.00988461)
(0.0690581 0 0.0205431)
(0.0808267 0 0.0338778)
(0.118764 0 0.052655)
(0.126269 0 0.0630921)
(0.188283 0 0.0733672)
(0.173586 0 0.00863201)
(0.0286477 0 0.00200824)
(0.0384293 0 0.00771686)
(0.0487788 0 0.0167476)
(0.0666109 0 0.0272164)
(0.0791213 0 0.0485736)
(0.113031 0 0.0562969)
(0.130603 0 0.0893302)
(0.169474 0 0.0773417)
(0.165936 0 0.0613397)
(0.0211439 0 0.00152236)
(0.0281678 0 0.0059497)
(0.0372494 0 0.0129754)
(0.0467305 0 0.0223943)
(0.0641287 0 0.038216)
(0.0739054 0 0.0521083)
(0.113604 0 0.0814903)
(0.125439 0 0.0925859)
(0.221425 0 0.103262)
(0.15397 0 -0.179863)
(0.0155135 0 0.0011438)
(0.0207535 0 0.00451848)
(0.0271957 0 0.00994882)
(0.0354044 0 0.0174187)
(0.0444836 0 0.0308195)
(0.0589174 0 0.0410967)
(0.0719026 0 0.0732244)
(0.10558 0 0.0812026)
(0.18259 0 0.105055)
(0.352667 0 0.0641757)
(-0.0628983 0 -0.163079)
(0.0113676 0 0.000854774)
(0.0152049 0 0.00339841)
(0.0199667 0 0.00752461)
(0.0256994 0 0.0133894)
(0.0332403 0 0.0236607)
(0.0403114 0 0.0330677)
(0.0557462 0 0.0583095)
(0.0641086 0 0.0671211)
(0.194091 0 0.104998)
(0.359093 0 0.0995619)
(0.198496 0 0.0103385)
(-0.0805539 0 -0.182005)
(0.00832473 0 0.000636744)
(0.0111281 0 0.00254091)
(0.0145855 0 0.00564247)
(0.0187692 0 0.0101418)
(0.0238994 0 0.0179904)
(0.0296702 0 0.0253121)
(0.0374332 0 0.0467447)
(0.0476059 0 0.0498425)
(0.141653 0 0.0891743)
(0.429608 0 0.12071)
(0.127746 0 0.074997)
(-0.109177 0 -0.0158245)
(-0.0442567 0 -0.132537)
(0.00609797 0 0.000473692)
(0.00814108 0 0.00189297)
(0.0106489 0 0.00420893)
(0.0136499 0 0.00761371)
(0.0173049 0 0.0135092)
(0.021089 0 0.0191969)
(0.0269953 0 0.0357845)
(0.0305395 0 0.0376986)
(0.14052 0 0.070982)
(0.319412 0 0.0975411)
(0.114925 0 0.161845)
(-0.0617826 0 0.107633)
(-0.0902014 0 0.00484363)
(-0.0276565 0 -0.113896)
(0.00447057 0 0.000352531)
(0.0059584 0 0.00140788)
(0.00777442 0 0.00312979)
(0.00992876 0 0.00568406)
(0.0124947 0 0.0100725)
(0.0151138 0 0.0143888)
(0.0189115 0 0.0271186)
(0.0209761 0 0.0275199)
(0.120985 0 0.0555361)
(0.248481 0 0.0830703)
(0.0667222 0 0.152243)
(-0.0265234 0 0.134246)
(-0.0522311 0 0.07315)
(-0.0523796 0 0.0013092)
(-0.0051395 0 -0.107489)
(0.00327989 0 0.000262807)
(0.00436508 0 0.00104707)
(0.00568005 0 0.0023241)
(0.00722554 0 0.00422942)
(0.00903343 0 0.00747694)
(0.0108173 0 0.0107182)
(0.0133757 0 0.020289)
(0.0140975 0 0.0201286)
(0.115277 0 0.041908)
(0.15456 0 0.0619452)
(0.0564132 0 0.12848)
(0.0130754 0 0.128804)
(-0.0244888 0 0.121781)
(-0.0283134 0 0.064868)
(-0.0147312 0 0.00408106)
(0.00240833 0 0.000196472)
(0.00320029 0 0.000779825)
(0.00415477 0 0.00172606)
(0.00526453 0 0.00314226)
(0.0065397 0 0.00553695)
(0.00776213 0 0.00795271)
(0.0094642 0 0.0150812)
(0.00958138 0 0.0146488)
(0.108545 0 0.0314598)
(0.0991595 0 0.0482089)
(0.0454065 0 0.0968879)
(0.027306 0 0.107494)
(0.00633479 0 0.124034)
(-0.0137395 0 0.111312)
(-0.00827311 0 0.060076)
(0.00176568 0 0.000147234)
(0.00234825 0 0.000582653)
(0.00304205 0 0.00128387)
(0.00384157 0 0.00233471)
(0.00474328 0 0.00409714)
(0.00558282 0 0.00588899)
(0.00672187 0 0.0111622)
(0.00654581 0 0.0106617)
(0.103671 0 0.0233384)
(0.0606399 0 0.0354682)
(0.0389425 0 0.0670789)
(0.0303759 0 0.0865139)
(0.0179447 0 0.10676)
(0.00427502 0 0.117265)
(-0.00391314 0 0.105551)
(0.00129022 0 0.000111236)
(0.00172068 0 0.000436908)
(0.00222962 0 0.000958241)
(0.00280683 0 0.00173721)
(0.00344752 0 0.00303368)
(0.00402628 0 0.00435849)
(0.00479007 0 0.0082444)
(0.00450436 0 0.00776366)
(0.0993997 0 0.0172321)
(0.0389417 0 0.0265841)
(0.0309886 0 0.0466185)
(0.0294175 0 0.064943)
(0.020982 0 0.0877278)
(0.0111062 0 0.103813)
(0.00183811 0 0.113289)
(0.000935796 0 8.49221e-05)
(0.00125693 0 0.000330819)
(0.00163246 0 0.000718277)
(0.00205342 0 0.00129679)
(0.00251022 0 0.00225052)
(0.00291177 0 0.00322829)
(0.0034256 0 0.00608618)
(0.00312053 0 0.00566165)
(0.0955053 0 0.0126881)
(0.025999 0 0.0201275)
(0.023851 0 0.0323763)
(0.0239367 0 0.047843)
(0.0207687 0 0.0667846)
(0.0127962 0 0.0872303)
(0.00399382 0 0.101954)
(0.000665359 0 6.63456e-05)
(0.000911435 0 0.000253302)
(0.00119172 0 0.000543491)
(0.00150106 0 0.000972168)
(0.00183084 0 0.0016754)
(0.00211078 0 0.0023958)
(0.00245845 0 0.00449684)
(0.00217574 0 0.00413732)
(0.0916691 0 0.00933806)
(0.017987 0 0.015654)
(0.0175758 0 0.0229863)
(0.0187129 0 0.034856)
(0.0171076 0 0.0499915)
(0.0126457 0 0.0675969)
(0.00443655 0 0.0868892)
(0.000454461 0 5.36328e-05)
(0.000647861 0 0.000198553)
(0.000863498 0 0.000416082)
(0.00109428 0 0.000735371)
(0.00133495 0 0.00125332)
(0.00153355 0 0.00178415)
(0.00176976 0 0.00332947)
(0.00152617 0 0.00303162)
(0.0876562 0 0.00688397)
(0.0126793 0 0.0125945)
(0.0126384 0 0.016624)
(0.0140004 0 0.0255513)
(0.0134996 0 0.0369165)
(0.0104254 0 0.0512929)
(0.00433259 0 0.0680773)
(0.000282656 0 4.56151e-05)
(0.000442333 0 0.000160842)
(0.000613354 0 0.000325955)
(0.000791967 0 0.000562899)
(0.000971032 0 0.00094585)
(0.00111419 0 0.00133506)
(0.00127757 0 0.00247404)
(0.0010761 0 0.00222894)
(0.0832634 0 0.0051)
(0.00899071 0 0.0106094)
(0.0089146 0 0.0122342)
(0.0102216 0 0.0191198)
(0.0101665 0 0.0272425)
(0.00823995 0 0.038236)
(0.00355657 0 0.0520816)
(0.000134675 0 4.13811e-05)
(0.000275143 0 0.000136904)
(0.000418533 0 0.000263845)
(0.000562123 0 0.000440677)
(0.000701423 0 0.000722932)
(0.000807959 0 0.00100784)
(0.000922979 0 0.00184815)
(0.000762543 0 0.00164611)
(0.078292 0 0.00381787)
(0.00635104 0 0.00934809)
(0.00618345 0 0.00921004)
(0.00734677 0 0.0146946)
(0.00744979 0 0.0203023)
(0.00621466 0 0.0283906)
(0.00280669 0 0.0390394)
(-1.78362e-06 0 4.0441e-05)
(0.000131411 0 0.000123877)
(0.000260441 0 0.000224304)
(0.000383565 0 0.000356405)
(0.000497248 0 0.000564905)
(0.000582331 0 0.000770539)
(0.000666022 0 0.00139238)
(0.000541241 0 0.00122286)
(0.0726035 0 0.00290874)
(0.00439412 0 0.00863622)
(0.00420768 0 0.00715124)
(0.0052087 0 0.0117382)
(0.00533635 0 0.0153771)
(0.00456067 0 0.0212277)
(0.00211581 0 0.0290907)
(-0.000137143 0 4.2547e-05)
(-9.92415e-07 0 0.000120683)
(0.00012486 0 0.000202724)
(0.000239108 0 0.000302752)
(0.000339293 0 0.000455919)
(0.00041219 0 0.000602246)
(0.000478125 0 0.0010631)
(0.000384623 0 0.000915989)
(0.06602 0 0.00231361)
(0.00295059 0 0.00825497)
(0.00275477 0 0.00580068)
(0.00362753 0 0.00976141)
(0.00374682 0 0.0119284)
(0.00327387 0 0.0161187)
(0.00155283 0 0.0217907)
(-0.000282546 0 4.7929e-05)
(-0.000132327 0 0.000126705)
(2.49104e-07 0 0.000197517)
(0.000115625 0 0.000273652)
(0.000212104 0 0.000386296)
(0.000281335 0 0.000486176)
(0.000337685 0 0.000829405)
(0.000273219 0 0.000695279)
(0.0585845 0 0.00188998)
(0.00191657 0 0.00839761)
(0.00170365 0 0.00495552)
(0.0024342 0 0.00851235)
(0.00258903 0 0.00952362)
(0.00230887 0 0.0125808)
(0.00111489 0 0.0165529)
(-0.000447245 0 5.69006e-05)
(-0.000273503 0 0.000142469)
(-0.00012334 0 0.000207364)
(2.27242e-06 0 0.000266955)
(0.00010389 0 0.000348234)
(0.000176507 0 0.000411982)
(0.000230608 0 0.000668287)
(0.000191512 0 0.000539002)
(0.0504806 0 0.00157246)
(0.0011464 0 0.00841825)
(0.00105595 0 0.00447186)
(0.00155606 0 0.00774703)
(0.00172214 0 0.00790693)
(0.00160415 0 0.0101545)
(0.000786411 0 0.0128994)
(-0.000642714 0 6.98316e-05)
(-0.000433565 0 0.000168699)
(-0.000256318 0 0.000233172)
(-0.000110093 0 0.000280642)
(4.89763e-06 0 0.000338863)
(8.78642e-05 0 0.000371705)
(0.000145713 0 0.000564735)
(0.000130878 0 0.000431504)
(0.0416548 0 0.00133907)
(0.000639073 0 0.00876387)
(0.000628525 0 0.00423374)
(0.000941564 0 0.00736958)
(0.00110616 0 0.00687444)
(0.00108033 0 0.00854376)
(0.000546826 0 0.0103708)
(-0.000880604 0 8.73063e-05)
(-0.000623545 0 0.000206738)
(-0.000407055 0 0.00027605)
(-0.00023082 0 0.000315915)
(-9.30726e-05 0 0.00035574)
(7.17836e-06 0 0.000361938)
(7.45984e-05 0 0.000508446)
(8.4251e-05 0 0.000362388)
(0.032431 0 0.00117643)
(0.000321868 0 0.00896173)
(0.000330309 0 0.00416273)
(0.000512202 0 0.00707761)
(0.000696895 0 0.00625845)
(0.000700147 0 0.00751735)
(0.000368346 0 0.00866989)
(-0.00117424 0 0.000110022)
(-0.000854646 0 0.000258276)
(-0.000585819 0 0.000338157)
(-0.000367655 0 0.000374239)
(-0.000198154 0 0.000400032)
(-7.24426e-05 0 0.00038038)
(1.04117e-05 0 0.000493937)
(4.65562e-05 0 0.000324565)
(0.0229754 0 0.00106913)
(0.000133621 0 0.0091274)
(0.000203919 0 0.00418077)
(0.000237082 0 0.00698272)
(0.000416304 0 0.00592298)
(0.000439335 0 0.00688793)
(0.000240116 0 0.00757398)
(-0.0015387 0 0.00013906)
(-0.00113977 0 0.000325646)
(-0.000803147 0 0.000422373)
(-0.000529888 0 0.000458432)
(-0.000317201 0 0.000473543)
(-0.000157561 0 0.000427986)
(-5.2517e-05 0 0.0005183)
(1.34803e-05 0 0.000314309)
(0.0134827 0 0.00101199)
(3.71778e-05 0 0.00913957)
(0.000140562 0 0.00424806)
(8.62938e-05 0 0.0069009)
(0.000230159 0 0.0057842)
(0.000258203 0 0.00649463)
(0.000152165 0 0.00688602)
(-0.00199164 0 0.000175689)
(-0.0014937 0 0.000412014)
(-0.00107127 0 0.000532553)
(-0.000727202 0 0.000572597)
(-0.000458256 0 0.000579957)
(-0.000253884 0 0.000506775)
(-0.000119487 0 0.000582411)
(-1.81372e-05 0 0.00032956)
(0.00405609 0 0.00100023)
(-3.68668e-06 0 0.00917648)
(0.000110855 0 0.00432299)
(8.83334e-06 0 0.00684799)
(0.000126318 0 0.00574135)
(0.00013854 0 0.00628688)
(9.05237e-05 0 0.00647241)
(-0.00255406 0 0.000221681)
(-0.00193374 0 0.000521293)
(-0.00140438 0 0.000673956)
(-0.000970838 0 0.000722003)
(-0.000629889 0 0.000724545)
(-0.000368011 0 0.000620616)
(-0.000195151 0 0.000688973)
(-5.12425e-05 0 0.000370846)
(-0.00518019 0 0.00103352)
(-1.28696e-05 0 0.00914251)
(7.99921e-05 0 0.00439003)
(-1.79807e-05 0 0.00677821)
(6.88215e-05 0 0.00575272)
(6.96837e-05 0 0.00617343)
(5.28556e-05 0 0.00624932)
(-0.00325076 0 0.000279025)
(-0.00248046 0 0.000658427)
(-0.00181905 0 0.000853075)
(-0.00127387 0 0.000913876)
(-0.000842094 0 0.000914329)
(-0.000507085 0 0.000775207)
(-0.000284819 0 0.00084344)
(-8.83594e-05 0 0.000439941)
(-0.0141264 0 0.00110927)
(-1.61699e-05 0 0.0090835)
(6.86206e-05 0 0.00443205)
(-1.99759e-05 0 0.00672955)
(4.10104e-05 0 0.00578205)
(3.27654e-05 0 0.00611764)
(3.10993e-05 0 0.00613095)
(-0.00411052 0 0.000349891)
(-0.00315824 0 0.000829106)
(-0.00233498 0 0.00107795)
(-0.00165161 0 0.00115701)
(-0.00110653 0 0.00115861)
(-0.000679388 0 0.000978011)
(-0.000394385 0 0.00105381)
(-0.000132323 0 0.000540547)
(-0.0226152 0 0.00122736)
(-4.7714e-05 0 0.00896701)
(5.86181e-05 0 0.00444457)
(-9.48185e-06 0 0.00668426)
(2.37581e-05 0 0.005812)
(1.69506e-05 0 0.00608429)
(1.76064e-05 0 0.0060743)
(-0.00516862 0 0.000436902)
(-0.0039951 0 0.00104008)
(-0.00297516 0 0.00135791)
(-0.00212216 0 0.00146228)
(-0.00143689 0 0.00146874)
(-0.000894669 0 0.00123894)
(-0.000530681 0 0.00133051)
(-0.000186555 0 0.000677982)
(-0.0305466 0 0.00139048)
(-0.000128432 0 0.00879149)
(3.33907e-05 0 0.00443298)
(2.59269e-06 0 0.00664402)
(1.68513e-05 0 0.0058321)
(9.89439e-06 0 0.00606408)
(9.65937e-06 0 0.00604639)
(-0.00646053 0 0.000543095)
(-0.00502536 0 0.00129888)
(-0.00376622 0 0.00170399)
(-0.0027069 0 0.00184239)
(-0.00184933 0 0.00185864)
(-0.00116435 0 0.00157002)
(-0.000701721 0 0.00168732)
(-0.000254873 0 0.000859314)
(-0.0378724 0 0.0016053)
(-0.000292146 0 0.00857757)
(-2.14314e-05 0 0.00440772)
(-6.19077e-06 0 0.00660778)
(1.17986e-05 0 0.00583926)
(7.02488e-06 0 0.00605117)
(4.02634e-06 0 0.00603122)
(-0.0080424 0 0.000671735)
(-0.00628363 0 0.00161434)
(-0.00474094 0 0.00212865)
(-0.00343044 0 0.00231223)
(-0.00236289 0 0.00234463)
(-0.00150201 0 0.00198596)
(-0.000917031 0 0.00214097)
(-0.000341834 0 0.00109382)
(-0.0445348 0 0.00187957)
(-0.000548512 0 0.00834611)
(-0.000135697 0 0.00438706)
(-4.68695e-05 0 0.00657895)
(-6.8005e-06 0 0.0058376)
(5.94905e-06 0 0.00603806)
(1.08483e-06 0 0.00602458)
(-0.00992471 0 0.000827006)
(-0.00782488 0 0.00199598)
(-0.00593229 0 0.00264658)
(-0.004323 0 0.00288877)
(-0.00299969 0 0.0029462)
(-0.00192368 0 0.002504)
(-0.00118798 0 0.0027119)
(-0.000453043 0 0.0013929)
(-0.0504933 0 0.00222425)
(-0.000932895 0 0.00812917)
(-0.000307046 0 0.00440118)
(-0.000138383 0 0.0065735)
(-4.24508e-05 0 0.00583934)
(-6.23486e-06 0 0.00602797)
(-2.41754e-06 0 0.0060186)
(-0.00965933 0 0.00245633)
(-0.0139231 0 0.00113323)
(-0.00739262 0 0.00327343)
(-0.00541544 0 0.00359218)
(-0.00378691 0 0.00368545)
(-0.00244805 0 0.00314467)
(-0.00152797 0 0.00342404)
(-0.00059549 0 0.00177058)
(-0.0557564 0 0.00264527)
(-0.00147632 0 0.00796696)
(-0.000574912 0 0.00447836)
(-0.000281238 0 0.00660709)
(-0.00011642 0 0.00585765)
(-3.43174e-05 0 0.0060352)
(-8.43355e-06 0 0.00601875)
(-0.00913244 0 0.00403016)
(-0.0135592 0 0.00336154)
(-0.0215622 0 0.0017502)
(-0.0067564 0 0.00444356)
(-0.00475269 0 0.00458876)
(-0.00309818 0 0.00393143)
(-0.00195281 0 0.00430597)
(-0.000777463 0 0.00224387)
(-0.0603446 0 0.00316557)
(-0.00217052 0 0.00789415)
(-0.000959167 0 0.00464784)
(-0.000507313 0 0.00669789)
(-0.000223702 0 0.00592253)
(-8.47782e-05 0 0.00607239)
(-1.38185e-05 0 0.00604102)
(-0.00835636 0 0.00547169)
(-0.0128359 0 0.00551914)
(-0.0210151 0 0.00518223)
(-0.0325255 0 0.00261615)
(-0.00594076 0 0.00568404)
(-0.00389831 0 0.0048924)
(-0.00248188 0 0.00539055)
(-0.00100887 0 0.00283311)
(-0.0642828 0 0.00387328)
(-0.00304412 0 0.00797761)
(-0.00146069 0 0.00494514)
(-0.000838147 0 0.00687553)
(-0.000393051 0 0.00605456)
(-0.000151894 0 0.00617102)
(-2.77096e-05 0 0.00609256)
(-0.00736245 0 0.00700903)
(-0.0117707 0 0.00749379)
(-0.0199241 0 0.00851751)
(-0.0317201 0 0.0077213)
(-0.0473439 0 0.00379105)
(-0.00488577 0 0.00605719)
(-0.00313623 0 0.00671648)
(-0.00130246 0 0.00356231)
(-0.0676357 0 0.00478935)
(-0.00413834 0 0.00828291)
(-0.0021176 0 0.005399)
(-0.00126735 0 0.00716072)
(-0.000641243 0 0.00630563)
(-0.000250772 0 0.00633314)
(-5.08878e-05 0 0.00621179)
(-0.00607277 0 0.00746664)
(-0.0104077 0 0.00961774)
(-0.0183209 0 0.0115639)
(-0.0301095 0 0.0126999)
(-0.046178 0 0.0111311)
(-0.0668282 0 0.00538941)
(-0.00394696 0 0.00832599)
(-0.00167229 0 0.00446006)
(-0.0704976 0 0.00593964)
(-0.00551828 0 0.00879636)
(-0.00295547 0 0.00605519)
(-0.00181427 0 0.00760118)
(-0.000954904 0 0.00670506)
(-0.000394731 0 0.00662284)
(-8.84585e-05 0 0.00639671)
(-0.004928 0 0.0102787)
(-0.00863 0 0.0102393)
(-0.0162745 0 0.0148866)
(-0.0277534 0 0.0172227)
(-0.0438388 0 0.0183102)
(-0.0651495 0 0.0156941)
(-0.0920868 0 0.0075671)
(-0.00213597 0 0.00555907)
(-0.0729254 0 0.00736483)
(-0.00713905 0 0.00953139)
(-0.00403214 0 0.00694594)
(-0.00251165 0 0.00825138)
(-0.00134602 0 0.00729431)
(-0.000580933 0 0.00705646)
(-0.000145508 0 0.00671239)
(-0.00272122 0 0.00690585)
(-0.00705523 0 0.0141045)
(-0.0135896 0 0.0158444)
(-0.0247646 0 0.0222175)
(-0.0404553 0 0.0247632)
(-0.0617562 0 0.0257762)
(-0.0898649 0 0.0217793)
(-0.122417 0 0.0102403)
(-0.0750222 0 0.00911327)
(-0.00915625 0 0.0104322)
(-0.00527958 0 0.00816347)
(-0.00338507 0 0.00914991)
(-0.00184254 0 0.0081183)
(-0.000814402 0 0.00768696)
(-0.000213243 0 0.00718062)
(-0.0767467 0 0.0113009)
(-0.00402969 0 0.00957912)
(-0.0112133 0 0.0218382)
(-0.0208328 0 0.0236387)
(-0.0362157 0 0.0319503)
(-0.0569382 0 0.0346533)
(-0.0847016 0 0.035675)
(-0.120356 0 0.0299162)
(-0.169779 0 0.0112442)
(-0.0115558 0 0.0117929)
(-0.00684002 0 0.00969789)
(-0.00439839 0 0.0103908)
(-0.00246325 0 0.00921458)
(-0.00112835 0 0.00854204)
(-0.000291927 0 0.00784471)
(-0.0142171 0 0.0148177)
(-0.0811748 0 0.0154639)
(-0.00670346 0 0.0151383)
(-0.0173453 0 0.0325)
(-0.030669 0 0.033969)
(-0.0510161 0 0.0445428)
(-0.0776327 0 0.0474998)
(-0.112349 0 0.0496581)
(-0.168063 0 0.0382039)
(-0.169387 0 0.0337347)
(-0.00865527 0 0.0117181)
(-0.00563947 0 0.0119588)
(-0.00318328 0 0.0106615)
(-0.0015179 0 0.00969443)
(-0.000390909 0 0.00873122)
(-0.0106303 0 0.0142494)
(-0.0201965 0 0.0169056)
(-0.0838827 0 0.0240206)
(-0.0109269 0 0.0231278)
(-0.0257192 0 0.0463853)
(-0.0434017 0 0.0472456)
(-0.069251 0 0.0605155)
(-0.102022 0 0.064899)
(-0.150799 0 0.068799)
(-0.216453 0 0.0657623)
(-0.392807 0 0.103979)
(-0.00702879 0 0.014039)
(-0.00407309 0 0.0124612)
(-0.00197283 0 0.0111904)
(-0.000516781 0 0.00993676)
(-0.00862463 0 0.0165994)
(-0.0149878 0 0.0190435)
(-0.0319835 0 0.0262254)
(-0.0875027 0 0.035827)
(-0.0171086 0 0.0340712)
(-0.0365458 0 0.0636742)
(-0.0589206 0 0.0638531)
(-0.0901688 0 0.0810581)
(-0.132245 0 0.0877449)
(-0.181453 0 0.107587)
(-0.333251 0 0.062012)
(-0.267761 0 0.576815)
(-0.00507447 0 0.014757)
(-0.00252364 0 0.0130684)
(-0.000658921 0 0.0114827)
(-0.00625906 0 0.0174951)
(-0.0119812 0 0.0215669)
(-0.0221524 0 0.0296237)
(-0.050687 0 0.0380038)
(-0.0913488 0 0.0511675)
(-0.0256354 0 0.0484658)
(-0.0495519 0 0.0842886)
(-0.0762688 0 0.0845088)
(-0.113459 0 0.107046)
(-0.156662 0 0.127534)
(-0.264955 0 0.15504)
(-0.312178 0 0.4151)
(-0.16289 -2.32199e-27 0.500265)
(-0.0474395 0 0.593617)
(-0.00313341 0 0.0154373)
(-0.000837117 0 0.0134297)
(-0.00386709 0 0.0182692)
(-0.008697 0 0.0229593)
(-0.0173353 0 0.0324566)
(-0.0301665 0 0.0447209)
(-0.0798335 0 0.0542895)
(-0.0956393 0 0.0699888)
(-0.0364496 0 0.066525)
(-0.063636 0 0.108135)
(-0.0942283 0 0.109686)
(-0.131882 0 0.144837)
(-0.19657 0 0.167162)
(-0.257369 0 0.331837)
(-0.168364 -1.54831e-27 0.430867)
(-0.119812 4.34452e-30 0.466828)
(-0.0965868 -2.92357e-27 0.517442)
(-0.0318083 0 0.505235)
(-0.00103907 0 0.0158587)
(-0.0012821 0 0.018758)
(-0.00533801 0 0.0239974)
(-0.012507 0 0.034192)
(-0.0232292 0 0.0471998)
(-0.0372964 0 0.0649617)
(-0.11798 0 0.0736574)
(-0.100098 0 0.0916901)
(-0.0486333 0 0.0880958)
(-0.0770326 0 0.135003)
(-0.107179 0 0.142382)
(-0.150078 0 0.184048)
(-0.189359 0 0.284511)
(-0.147279 0 0.354196)
(-0.126716 0 0.426061)
(-0.0882194 -1.86572e-26 0.468608)
(-0.0979308 5.10783e-30 0.481192)
(-0.0701682 -3.00797e-27 0.483426)
(-0.0217752 0 0.478379)
(-0.00177986 0 0.0246174)
(-0.00762131 0 0.0355099)
(-0.016603 0 0.0489008)
(-0.0281654 0 0.0656715)
(-0.0426337 0 0.0886084)
(-0.15874 0 0.0947478)
(-0.103787 0 0.115186)
(-0.0603513 0 0.112434)
(-0.0859234 0 0.165251)
(-0.116142 0 0.176507)
(-0.140045 0 0.257869)
(-0.124523 0 0.308827)
(-0.110069 0 0.379931)
(-0.0833867 -4.7152e-26 0.440604)
(-0.0619178 4.55665e-30 0.477492)
(-0.0919728 -2.09524e-26 0.477633)
(-0.0871407 0 0.475259)
(-0.0586101 0 0.465504)
(-0.0200896 0 0.437604)
(-0.00256181 0 0.0362281)
(-0.0101002 0 0.0502909)
(-0.0198955 0 0.0667032)
(-0.0302424 0 0.0858847)
(-0.0453504 0 0.111748)
(-0.187431 0 0.116764)
(-0.105402 0 0.139004)
(-0.0683996 0 0.138926)
(-0.0887373 0 0.195388)
(-0.105489 0 0.223574)
(-0.101472 0 0.28182)
(-0.088237 4.72265e-27 0.339382)
(-0.0725796 -2.56302e-26 0.398781)
(-0.0236745 0 0.439833)
(-0.0252484 4.37908e-26 0.529271)
(-0.0843237 5.22217e-30 0.492694)
(-0.0980094 -6.72451e-26 0.476031)
(-0.0839767 0 0.459044)
(-0.0563088 0 0.434547)
(-0.0191972 0 0.405021)
(-0.00340551 0 0.0509722)
(-0.0121381 0 0.0677069)
(-0.0212116 0 0.0857355)
(-0.0285973 0 0.104851)
(-0.0463497 0 0.130245)
(-0.196808 0 0.138727)
(-0.102606 0 0.162198)
(-0.0706969 0 0.164482)
(-0.0804443 0 0.226692)
(-0.0781674 0 0.245791)
(-0.0678151 7.38356e-27 0.309967)
(-0.0556886 0 0.357018)
(-0.00168088 -5.08032e-26 0.410977)
(-0.0379008 -6.35924e-26 0.509396)
(-0.0368981 -1.92683e-10 0.509486)
(-0.0924213 0 0.527999)
(-0.102746 0 0.488052)
(-0.103641 -9.22775e-26 0.463453)
(-0.0871695 1.12975e-26 0.435811)
(-0.0563698 0 0.404552)
(-0.0196105 0 0.369949)
(-0.00410398 0 0.0681312)
(-0.0129961 0 0.0858034)
(-0.0199836 0 0.103437)
(-0.0237155 0 0.120212)
(-0.0460778 0 0.142565)
(-0.185192 0 0.158895)
(-0.0952195 0 0.182591)
(-0.0641278 0 0.187697)
(-0.0614127 0 0.243645)
(-0.0489658 1.2333e-43 0.267305)
(-0.0371512 0 0.324792)
(0.0119972 1.04252e-25 0.381078)
(-0.0281972 1.36868e-25 0.446325)
(0.12994 -8.45988e-10 0.428137)
(-0.0110237 7.20428e-09 0.0460483)
(-0.0953541 3.20112e-10 0.559234)
(-0.0431492 6.87365e-09 0.0381605)
(0.239509 7.74316e-09 0.0394579)
(0.225916 5.98173e-09 0.0524129)
(-0.129881 3.62216e-27 0.510839)
(-0.116631 -3.06898e-27 0.4795)
(-0.114488 -4.60388e-26 0.443599)
(-0.0916025 2.16981e-26 0.407349)
(-0.0584047 0 0.371212)
(-0.0203081 0 0.334474)
(-0.00444972 0 0.0857649)
(-0.0122911 0 0.102361)
(-0.0163214 0 0.117709)
(-0.0161993 0 0.131404)
(-0.0442542 0 0.14347)
(-0.160098 0 0.176317)
(-0.0813799 0 0.198581)
(-0.0502896 0 0.201663)
(-0.0374271 2.55044e-43 0.258427)
(-0.0189726 0 0.277781)
(0.0222656 0 0.352316)
(0.00564517 1.15151e-24 0.381656)
(0.15611 -5.71499e-25 0.45772)
(-0.0921228 1.79708e-10 0.239751)
(-0.0635494 8.52322e-09 0.220491)
(0.210143 -1.92074e-09 -0.0477855)
(-0.126483 3.38042e-10 0.536815)
(-0.0886661 8.5145e-09 0.186585)
(-0.0668228 1.12816e-08 0.391912)
(-0.076184 9.81227e-09 0.379103)
(0.074788 -3.51155e-09 -0.0955657)
(0.0733458 -7.48238e-09 0.180607)
(-0.0223391 -5.83165e-09 0.193584)
(-0.142927 7.60977e-25 0.502294)
(-0.14169 3.32347e-26 0.46241)
(-0.12518 0 0.415146)
(-0.0965164 1.02139e-26 0.375073)
(-0.060896 0 0.336123)
(-0.0210565 0 0.297608)
(-0.00432184 0 0.101718)
(-0.0100805 0 0.115462)
(-0.0105687 0 0.127632)
(-0.00580263 0 0.137488)
(-0.0419597 0 0.142516)
(-0.126324 0 0.186177)
(-0.0627625 0 0.207818)
(-0.0316977 7.01775e-28 0.211124)
(-0.00946268 -1.15717e-27 0.264114)
(0.0303153 5.53536e-26 0.298625)
(0.0438397 0 0.343383)
(0.145522 3.30002e-24 0.454119)
(-0.073939 1.05591e-10 0.300076)
(-0.148021 -4.19318e-09 -0.27913)
(-0.173554 -1.25687e-08 -0.292419)
(0.0909265 -5.06502e-09 -0.240279)
(0.0855078 -5.18186e-09 -0.245956)
(0.250694 1.71449e-09 0.00561651)
(-0.183687 -6.88338e-09 -0.343199)
(-0.0942141 1.72034e-25 0.523542)
(-0.226048 -1.73734e-10 0.207913)
(0.143627 -4.22431e-10 -0.0306158)
(0.274643 4.98999e-09 -0.0898196)
(0.188614 3.96127e-09 -0.171905)
(-0.226144 -1.13624e-08 -0.359349)
(-0.228227 -6.45071e-09 -0.225799)
(-0.220015 -1.3074e-08 -0.268722)
(-0.180968 9.08992e-25 0.489137)
(-0.161783 0 0.430141)
(-0.133606 0 0.382572)
(-0.101551 9.43585e-27 0.34002)
(-0.0633116 0 0.299164)
(-0.0216753 0 0.259589)
(-0.00366587 0 0.114165)
(-0.00662721 0 0.12418)
(-0.00220275 0 0.132439)
(0.00429569 0 0.139807)
(-0.0286591 0 0.141261)
(-0.0937728 0 0.194069)
(-0.041157 0 0.213033)
(-0.00868427 -9.82464e-29 0.212387)
(0.0310544 0 0.273162)
(0.0748146 6.68262e-26 0.286524)
(0.138155 3.18281e-24 0.423403)
(0.00368387 4.44848e-12 0.340216)
(0.0168506 -4.57244e-09 -0.281563)
(0.0295525 -4.49093e-09 -0.271246)
(0.0639506 -2.5955e-09 -0.243032)
(0.0728668 -2.71347e-09 -0.236491)
(-0.150355 -7.28658e-09 -0.547336)
(-0.142865 3.88309e-09 -0.551697)
(-0.071782 -1.77937e-09 -0.527446)
(-0.0469126 -5.38929e-10 -0.533337)
(-0.154404 -2.22997e-09 -0.376576)
(0.511783 5.58458e-08 -0.597635)
(-0.521906 8.25361e-08 -0.507477)
(0.509326 3.83584e-08 -0.549108)
(-0.416656 8.87398e-09 -0.463896)
(-0.168293 3.66792e-24 0.489727)
(-0.241092 -2.94019e-10 0.325857)
(0.032211 -9.88193e-10 -0.435685)
(-0.0197199 -1.21059e-09 -0.436679)
(0.0422802 -4.52162e-09 -0.411199)
(-0.00772329 8.20195e-10 -0.413012)
(-0.211826 -9.56425e-09 -0.401076)
(0.0719968 6.86469e-09 -0.405922)
(0.0131228 -4.96077e-09 -0.416181)
(0.486405 -2.45794e-08 -0.640416)
(-0.538558 -4.42612e-08 -0.507335)
(0.484844 -3.3465e-09 -0.585552)
(-0.448855 -8.77771e-09 -0.455853)
(0.380239 6.77851e-08 -0.77708)
(-0.621174 7.67207e-08 -0.0250233)
(0.135957 5.55308e-08 -0.884522)
(-0.491209 9.02506e-09 -0.356692)
(0.355455 -3.45031e-08 -0.810851)
(-0.569345 -3.72899e-08 0.000721821)
(0.11056 -9.32632e-09 -0.890755)
(-0.475936 -8.98932e-09 -0.372313)
(-0.214978 0 0.451229)
(-0.17461 3.83224e-26 0.39672)
(-0.142701 0 0.34697)
(-0.106131 8.51832e-27 0.302499)
(-0.0652238 0 0.260802)
(-0.022121 0 0.220641)
(-0.00249947 0 0.122146)
(-0.00133608 0 0.127955)
(0.00547871 0 0.13235)
(0.0218149 0 0.137336)
(-0.0174721 0 0.143581)
(-0.0576753 0 0.195986)
(-0.0156625 0 0.21076)
(0.0228878 0 0.208704)
(0.0829697 1.81464e-25 0.256797)
(0.147145 1.27934e-24 0.351468)
(0.13652 2.80377e-10 0.380007)
(0.0516107 -1.34665e-09 -0.181654)
(0.0500878 -1.70856e-09 -0.191271)
(0.0754206 6.87787e-11 -0.151561)
(0.062988 -7.75196e-10 -0.172278)
(-0.145757 -4.61999e-09 -0.47329)
(-0.0879386 3.2312e-10 -0.475009)
(-0.167355 -5.33877e-09 -0.455732)
(-0.110167 -1.26712e-11 -0.458217)
(-0.468426 1.17828e-08 -0.511981)
(-0.450663 6.7818e-09 0.0678951)
(0.391989 1.21522e-08 -0.499001)
(-0.488548 1.09213e-08 -0.622123)
(0.411611 1.11658e-08 -0.516571)
(-0.11254 5.99812e-09 -0.796913)
(-0.423345 -4.59105e-09 0.108264)
(-0.461624 -5.83202e-09 -0.51342)
(0.393996 -1.37965e-08 -0.501192)
(-0.477686 -6.67184e-09 -0.64086)
(0.416539 -1.22554e-08 -0.526714)
(-0.110729 -7.06311e-09 -0.800582)
(-0.535169 1.40289e-08 -0.655781)
(0.390286 1.47257e-08 -0.539335)
(-0.531063 1.03775e-08 -0.654384)
(0.402439 1.31558e-08 -0.538635)
(-0.511053 -9.12631e-09 -0.679454)
(0.398625 -1.06945e-08 -0.547335)
(-0.517224 -7.88591e-09 -0.676189)
(0.410465 -1.12426e-08 -0.547459)
(0.542876 5.07861e-08 -0.42505)
(-0.625122 8.1888e-08 -0.547424)
(0.539232 3.74583e-08 -0.518322)
(-0.572733 7.12975e-09 -0.528662)
(-0.0658371 1.53489e-08 -0.553004)
(-0.204589 1.05583e-08 -0.40125)
(0.0243005 1.45548e-08 -0.548927)
(-0.251521 7.56739e-09 -0.290294)
(-0.237839 2.58866e-24 0.450589)
(-0.315545 -1.07648e-09 0.331803)
(0.0502118 -4.9512e-09 -0.426652)
(0.034157 -4.91182e-09 -0.434538)
(0.0741636 -3.44273e-09 -0.448098)
(0.0411123 -3.491e-09 -0.457978)
(-0.260803 -3.5452e-09 -0.458448)
(-0.272068 -1.75453e-09 -0.466812)
(-0.285141 -4.71263e-09 -0.56615)
(-0.28827 -3.58075e-09 -0.584907)
(0.516442 -2.04314e-08 -0.4534)
(-0.598755 -4.29559e-08 -0.55579)
(0.512419 -1.56488e-09 -0.555515)
(-0.571681 -7.17058e-09 -0.543959)
(0.61028 6.29661e-08 -0.440495)
(-0.347481 9.65365e-08 -0.769561)
(0.701545 6.41363e-08 0.0245041)
(-0.446054 9.93822e-09 -0.577549)
(0.581289 -3.24863e-08 -0.454518)
(-0.316258 -4.63822e-08 -0.765813)
(0.665756 -1.61059e-08 0.0448746)
(-0.487244 -9.83709e-09 -0.593258)
(-0.0819675 -1.59535e-08 -0.556869)
(-0.253061 -1.02372e-08 -0.379097)
(-0.0180713 -1.64592e-08 -0.558134)
(-0.302211 -8.34621e-09 -0.290222)
(-0.131598 1.17312e-08 -0.706688)
(-0.382187 6.51635e-09 -0.266123)
(-0.141394 -1.3986e-08 -0.707611)
(-0.380807 -7.01959e-09 -0.287594)
(-0.214966 -1.3411e-25 0.413613)
(-0.185957 0 0.359027)
(-0.150323 0 0.30811)
(-0.109493 0 0.263249)
(-0.0665483 0 0.221482)
(-0.0224117 0 0.181054)
(-0.000603621 0 0.125243)
(0.00332266 0 0.125912)
(0.0190809 0 0.128729)
(0.0325499 0 0.130313)
(0.0164988 0 0.137749)
(-0.0188731 0 0.188064)
(0.0173403 0 0.202646)
(0.0665392 0 0.190061)
(0.141785 2.91436e-25 0.277963)
(0.239847 -1.53084e-10 0.34102)
(0.0670367 6.96921e-10 -0.158815)
(0.0588587 -3.62866e-11 -0.177508)
(0.20108 2.32576e-09 -0.125601)
(0.192665 7.35352e-10 -0.132591)
(-0.133574 -4.95952e-09 -0.413875)
(-0.0846677 4.67732e-10 -0.413493)
(-0.00740085 -4.22914e-09 -0.298411)
(0.0228761 -1.18704e-10 -0.305542)
(-0.515124 1.48038e-08 -0.656995)
(0.368499 1.3788e-08 -0.536055)
(-0.494339 2.3922e-08 -0.645709)
(0.393412 1.76104e-08 -0.565509)
(-0.480721 -8.80533e-09 -0.673754)
(0.377776 -1.14024e-08 -0.53953)
(-0.452759 -1.12926e-08 -0.655295)
(0.394375 -1.34581e-08 -0.561692)
(-0.478728 2.79106e-08 -0.561926)
(0.390347 1.65088e-08 -0.587988)
(-0.503109 2.58489e-08 -0.59987)
(0.382207 1.69324e-08 -0.585278)
(-0.436989 -1.22111e-08 -0.561185)
(0.38924 -1.01834e-08 -0.577859)
(-0.461006 -1.20645e-08 -0.603564)
(0.380898 -1.23771e-08 -0.577073)
(-0.322731 3.7269e-09 -0.502712)
(-0.0754046 6.14744e-10 -0.676067)
(0.074204 1.01319e-09 -0.639173)
(0.251537 6.62093e-09 -0.47699)
(-0.106339 1.30323e-09 -0.619363)
(0.137697 2.55476e-09 -0.511506)
(-0.305316 -3.92316e-09 -0.508818)
(-0.0563122 -2.55134e-10 -0.665301)
(0.256397 -7.40816e-09 -0.478111)
(0.0961071 -2.99583e-10 -0.628138)
(-0.0895537 -1.27209e-09 -0.615392)
(0.155625 -1.3392e-09 -0.509134)
(-0.152324 2.10868e-09 -0.692546)
(0.0644983 3.31763e-09 -0.558783)
(-0.129684 1.92568e-09 -0.626456)
(0.109145 2.93921e-09 -0.514287)
(-0.139988 -1.69652e-09 -0.707858)
(0.0750938 -3.73821e-09 -0.570433)
(-0.114454 -1.82384e-09 -0.635134)
(0.1303 -3.16322e-09 -0.523306)
(0.250594 1.81946e-08 -0.487047)
(-0.164067 1.21626e-08 -0.505112)
(0.174094 1.51191e-08 -0.592012)
(-0.10878 8.78397e-09 -0.517152)
(-0.104854 3.1781e-09 -0.40964)
(-0.14982 1.6687e-09 -0.302334)
(-0.109894 3.19651e-09 -0.357326)
(-0.156848 1.53089e-09 -0.290813)
(-0.232527 0 0.418112)
(-0.368105 -8.50575e-10 0.314153)
(-0.206339 -5.69372e-09 -0.381341)
(-0.152405 -4.96911e-09 -0.385875)
(-0.0632397 -5.54664e-09 -0.397607)
(-0.0320884 -5.34624e-09 -0.393215)
(-0.159704 -7.9074e-09 -0.519047)