/*--------------------------------*- C++ -*----------------------------------*\
| =========                 |                                                 |
| \\      /  F ield         | OpenFOAM: The Open Source CFD Toolbox           |
|  \\    /   O peration     | Version:  5.x                                   |
|   \\  /    A nd           | Web:      www.OpenFOAM.org                      |
|    \\/     M anipulation  |                                                 |
\*---------------------------------------------------------------------------*/
FoamFile
{
    version     2.0;
    format      ascii;
    class       surfaceVectorField;
    location    "0.3";
    object      Uf;
}
// * * * * * * * * * * * * * * * * * * * * * * * * * * * * * * * * * * * * * //

dimensions      [0 1 -1 0 0 0 0];

internalField   nonuniform List<vector> 
30582
(
(0.181757 0 0.00468771)
(0.178657 0 0.00425887)
(0.158478 0 0.00628336)
(0.18284 0 0.00931208)
(0.181782 0 0.00824758)
(0.178561 0 0.00851872)
(0.127555 0 0.00614195)
(0.130085 0 0.012592)
(0.158356 0 0.0150481)
(0.183434 0 0.0186828)
(0.182872 0 0.0203079)
(0.177902 0 0.0123716)
(0.102728 0 0.00533042)
(0.121998 0 0.0102904)
(0.127409 0 0.0164033)
(0.1303 0 0.0251934)
(0.159093 0 0.0301363)
(0.183254 0 0.0281946)
(0.181976 0 0.0186436)
(0.177771 0 0.0166085)
(0.0789663 0 0.00466346)
(0.0846171 0 0.0100254)
(0.102217 0 0.0149049)
(0.121511 0 0.0207321)
(0.127582 0 0.0304776)
(0.129725 0 0.0380248)
(0.157252 0 0.0343326)
(0.183959 0 0.0380844)
(0.185128 0 0.0380781)
(0.176477 0 0.0196493)
(0.0602372 0 0.00374166)
(0.0708436 0 0.00804411)
(0.0783296 0 0.0133923)
(0.083724 0 0.0201039)
(0.101217 0 0.0265892)
(0.120102 0 0.0316603)
(0.125898 0 0.037647)
(0.129789 0 0.0507922)
(0.159136 0 0.0566121)
(0.182963 0 0.0484816)
(0.18218 0 0.0287237)
(0.17872 0 0.0239018)
(0.045095 0 0.00298679)
(0.0503525 0 0.00661995)
(0.059579 0 0.0109225)
(0.0697783 0 0.0160974)
(0.076993 0 0.0231957)
(0.0819725 0 0.0303244)
(0.0988047 0 0.0343535)
(0.118877 0 0.0428904)
(0.127118 0 0.0577953)
(0.128485 0 0.0638297)
(0.153087 0 0.0542101)
(0.184387 0 0.0601194)
(0.191073 0 0.0551201)
(0.178191 0 0.0247237)
(0.0334909 0 0.00230814)
(0.0387185 0 0.00516429)
(0.0444806 0 0.00879109)
(0.0494114 0 0.0132207)
(0.0582112 0 0.0186285)
(0.0678345 0 0.0241642)
(0.0746211 0 0.0305174)
(0.079974 0 0.0405278)
(0.097568 0 0.0505962)
(0.115897 0 0.0551385)
(0.122567 0 0.0596644)
(0.128436 0 0.0762576)
(0.15722 0 0.0814198)
(0.178878 0 0.0736612)
(0.176412 0 0.0432923)
(0.169761 0 0.0313812)
(0.0247028 0 0.00176315)
(0.0284078 0 0.00398122)
(0.0329597 0 0.00682542)
(0.0378394 0 0.0102915)
(0.0432237 0 0.0148447)
(0.0477547 0 0.0197731)
(0.055945 0 0.024784)
(0.0653698 0 0.0321856)
(0.0725452 0 0.0433487)
(0.0765133 0 0.0510852)
(0.0917703 0 0.054184)
(0.113317 0 0.0679034)
(0.125748 0 0.0853755)
(0.128021 0 0.089073)
(0.145074 0 0.0850316)
(0.195449 0 0.0861971)
(0.198371 0 0.082487)
(0.159953 0 -0.060854)
(0.0181437 0 0.00133139)
(0.0209487 0 0.0030244)
(0.0242643 0 0.00522776)
(0.0276817 0 0.00792042)
(0.0318794 0 0.0114487)
(0.0363269 0 0.0153401)
(0.0412286 0 0.0198844)
(0.045607 0 0.0262069)
(0.053535 0 0.0344849)
(0.0615231 0 0.0403504)
(0.0673537 0 0.0465535)
(0.072904 0 0.0613869)
(0.0905729 0 0.0773206)
(0.109592 0 0.0824831)
(0.119975 0 0.0868438)
(0.154014 0 0.0992932)
(0.199334 0 0.104166)
(0.287046 0 0.0858119)
(0.247502 0 -0.056759)
(0.0455348 0 -0.159358)
(0.0132963 0 0.000998005)
(0.0153592 0 0.00227548)
(0.0177941 0 0.00395344)
(0.0203601 0 0.00600784)
(0.0233785 0 0.008726)
(0.0264475 0 0.0117715)
(0.0302059 0 0.0153861)
(0.0343223 0 0.0202457)
(0.0389524 0 0.0272083)
(0.0423975 0 0.0325822)
(0.0487987 0 0.0370466)
(0.0573318 0 0.0483198)
(0.0648455 0 0.0657005)
(0.0680056 0 0.0722417)
(0.0821733 0 0.0740994)
(0.149835 0 0.0981513)
(0.19697 0 0.105026)
(0.270842 0 0.100256)
(0.370185 0 0.0820262)
(0.275581 0 0.0367364)
(0.0656157 0 -0.0755993)
(-0.071726 0 -0.185148)
(0.00973437 0 0.000744794)
(0.0112479 0 0.00170199)
(0.0130231 0 0.00296585)
(0.0148952 0 0.00451507)
(0.0170909 0 0.00657514)
(0.019368 0 0.00890714)
(0.0220255 0 0.0117512)
(0.0247994 0 0.0154775)
(0.0282185 0 0.0208003)
(0.0314553 0 0.0250226)
(0.0349863 0 0.0291554)
(0.0388723 0 0.0386208)
(0.045688 0 0.0524758)
(0.051676 0 0.056548)
(0.0570255 0 0.0584048)
(0.10288 0 0.0828519)
(0.161718 0 0.0970157)
(0.311849 0 0.112763)
(0.417571 0 0.11023)
(0.243419 0 0.0809601)
(0.167332 0 0.0429555)
(0.0446606 0 -0.00395122)
(-0.0881523 0 -0.0981759)
(-0.0624053 0 -0.150507)
(0.00712634 0 0.000554492)
(0.00823291 0 0.00126847)
(0.00952388 0 0.00221407)
(0.0108885 0 0.00337399)
(0.0124755 0 0.00491934)
(0.0141177 0 0.00668163)
(0.0160257 0 0.00886644)
(0.0180371 0 0.0116737)
(0.0203853 0 0.01573)
(0.0224942 0 0.0190261)
(0.0250306 0 0.0222273)
(0.0283328 0 0.0294533)
(0.032101 0 0.0412159)
(0.0339863 0 0.0445609)
(0.03808 0 0.0437167)
(0.0940626 0 0.0646849)
(0.145392 0 0.0799971)
(0.230532 0 0.0897399)
(0.362115 0 0.109023)
(0.272265 0 0.135749)
(0.118495 0 0.118806)
(0.0329823 0 0.100846)
(-0.0887539 0 0.0464536)
(-0.099689 0 -0.00371056)
(-0.062137 0 -0.0632358)
(-0.0359565 0 -0.126089)
(0.00522034 0 0.000412571)
(0.00602819 0 0.000943685)
(0.00696581 0 0.00164827)
(0.00795775 0 0.00251263)
(0.00910313 0 0.00366458)
(0.0102888 0 0.0049854)
(0.0116509 0 0.00664032)
(0.0130723 0 0.00873526)
(0.0147178 0 0.0117755)
(0.0162094 0 0.0142869)
(0.0178834 0 0.0167716)
(0.0200002 0 0.0222639)
(0.0226079 0 0.0314131)
(0.0239857 0 0.0336781)
(0.0254915 0 0.0325639)
(0.0757619 0 0.0500643)
(0.127661 0 0.0631905)
(0.194501 0 0.0723004)
(0.280101 0 0.0902413)
(0.193066 0 0.124343)
(0.0925159 0 0.157001)
(0.0442012 0 0.146517)
(-0.0485463 0 0.121057)
(-0.0570068 0 0.0844734)
(-0.0752409 0 0.0393007)
(-0.0712904 0 0.00153126)
(-0.0377143 0 -0.0557812)
(-0.0163981 0 -0.111269)
(0.00382772 0 0.000307272)
(0.00441782 0 0.000701904)
(0.00509878 0 0.00122587)
(0.00581923 0 0.00186807)
(0.00664552 0 0.00272335)
(0.00749998 0 0.00370794)
(0.00847236 0 0.00495029)
(0.00948109 0 0.00650421)
(0.0106298 0 0.00876319)
(0.011656 0 0.0106542)
(0.0127912 0 0.0125371)
(0.0142447 0 0.016635)
(0.0159279 0 0.0236736)
(0.0165045 0 0.0252901)
(0.0172078 0 0.0237914)
(0.068126 0 0.0373647)
(0.119463 0 0.0486614)
(0.137773 0 0.0536486)
(0.191955 0 0.0724141)
(0.152447 0 0.110159)
(0.0591859 0 0.140256)
(0.039899 0 0.138406)
(-0.00563282 0 0.131501)
(-0.0255061 0 0.12873)
(-0.0405209 0 0.0976813)
(-0.0402722 0 0.0703354)
(-0.0421047 0 0.0333714)
(-0.0335555 0 0.00328749)
(-0.00963944 0 -0.0512078)
(0.00280879 0 0.000229345)
(0.00324009 0 0.000522725)
(0.00373599 0 0.000912266)
(0.00425992 0 0.00138877)
(0.00485641 0 0.00202241)
(0.00547229 0 0.00275388)
(0.00616685 0 0.003681)
(0.00688261 0 0.00482928)
(0.0076865 0 0.00649836)
(0.00839779 0 0.00791058)
(0.00916382 0 0.00932316)
(0.0101408 0 0.012357)
(0.0112541 0 0.0176618)
(0.0114785 0 0.0187902)
(0.0116323 0 0.0173645)
(0.061321 0 0.0278159)
(0.111333 0 0.0366374)
(0.107218 0 0.0409829)
(0.121536 0 0.055016)
(0.0999829 0 0.0844348)
(0.0521269 0 0.112544)
(0.0418597 0 0.113191)
(0.0190833 0 0.118054)
(0.00970509 0 0.127978)
(-0.00817225 0 0.122918)
(-0.0191141 0 0.115322)
(-0.0222964 0 0.0882959)
(-0.0182933 0 0.0622695)
(-0.0117845 0 0.0323277)
(0.00206075 0 0.000171634)
(0.00237829 0 0.000390638)
(0.00273959 0 0.000680363)
(0.00312117 0 0.00103388)
(0.00355333 0 0.00150301)
(0.00399817 0 0.00204555)
(0.0044951 0 0.00273489)
(0.0050039 0 0.00358158)
(0.00556777 0 0.00481063)
(0.00606126 0 0.00585975)
(0.00658043 0 0.00691171)
(0.007242 0 0.00914501)
(0.00797535 0 0.0131043)
(0.008005 0 0.0138961)
(0.00791715 0 0.0126374)
(0.056626 0 0.0205032)
(0.105892 0 0.0273632)
(0.0845926 0 0.030281)
(0.0768705 0 0.041782)
(0.0690508 0 0.0608611)
(0.043313 0 0.0818508)
(0.0378912 0 0.0882883)
(0.0299231 0 0.096911)
(0.0226254 0 0.108535)
(0.0114291 0 0.11532)
(0.0053049 0 0.119708)
(-0.00426612 0 0.114315)
(-0.00882635 0 0.107848)
(-0.00647848 0 0.083015)
(0.00150941 0 0.000129075)
(0.00174318 0 0.000293082)
(0.00200876 0 0.000509133)
(0.00228893 0 0.000772286)
(0.00260245 0 0.00111961)
(0.00292444 0 0.0015217)
(0.0032816 0 0.00203332)
(0.00364454 0 0.00265718)
(0.00404131 0 0.00356067)
(0.00438478 0 0.00433734)
(0.00473778 0 0.00511692)
(0.00518645 0 0.00675597)
(0.0056714 0 0.00969039)
(0.00561311 0 0.0102459)
(0.00542554 0 0.00919979)
(0.0529724 0 0.0150657)
(0.101197 0 0.020258)
(0.0713066 0 0.022668)
(0.0484951 0 0.0309869)
(0.0458141 0 0.0431358)
(0.035347 0 0.0567578)
(0.03418 0 0.0644064)
(0.0308217 0 0.0756324)
(0.025679 0 0.0878957)
(0.0201651 0 0.0971596)
(0.0145254 0 0.104783)
(0.00727299 0 0.110479)
(0.00305657 0 0.114839)
(-0.000923041 0 0.109454)
(0.00109907 0 9.79621e-05)
(0.00127357 0 0.000222044)
(0.00147049 0 0.000383392)
(0.00167657 0 0.000579211)
(0.00190641 0 0.000837192)
(0.00214152 0 0.00113577)
(0.00239871 0 0.00151504)
(0.00265852 0 0.00197463)
(0.00293941 0 0.00263864)
(0.00317965 0 0.00321254)
(0.00342064 0 0.00378835)
(0.00372594 0 0.00498947)
(0.00404739 0 0.00715568)
(0.0039553 0 0.00754584)
(0.00374427 0 0.00670334)
(0.0500045 0 0.0110493)
(0.0970663 0 0.0149399)
(0.0626994 0 0.0170047)
(0.0317608 0 0.023327)
(0.0313963 0 0.0303844)
(0.0276733 0 0.0394344)
(0.0274627 0 0.0466122)
(0.0269321 0 0.056317)
(0.0250931 0 0.0661376)
(0.021529 0 0.077163)
(0.0168891 0 0.0872995)
(0.0123356 0 0.0954479)
(0.00755004 0 0.102609)
(0.00277554 0 0.107571)
(0.000790502 0 7.55514e-05)
(0.000923615 0 0.000169966)
(0.00107057 0 0.000291716)
(0.00122432 0 0.000438451)
(0.00139446 0 0.000630107)
(0.00156676 0 0.000851354)
(0.0017542 0 0.00113304)
(0.00194213 0 0.00147234)
(0.00214164 0 0.0019604)
(0.0023105 0 0.00238389)
(0.00247636 0 0.00280836)
(0.00268511 0 0.00368848)
(0.00289878 0 0.00528442)
(0.00280066 0 0.00555816)
(0.00260135 0 0.00489269)
(0.0473945 0 0.00810171)
(0.0931357 0 0.0109982)
(0.0567462 0 0.0129274)
(0.0216122 0 0.0178709)
(0.0217874 0 0.0217686)
(0.0206743 0 0.0276393)
(0.021282 0 0.0336115)
(0.0215277 0 0.0412921)
(0.0205221 0 0.0490606)
(0.0191479 0 0.0583134)
(0.0167072 0 0.0671974)
(0.0131127 0 0.0773262)
(0.00861639 0 0.0869599)
(0.00433144 0 0.0943547)
(0.00055305 0 5.99325e-05)
(0.00065661 0 0.000133138)
(0.0007698 0 0.000225684)
(0.000887467 0 0.000335634)
(0.00101461 0 0.000479221)
(0.001143 0 0.000643996)
(0.00128112 0 0.000852717)
(0.00141801 0 0.00110284)
(0.00156185 0 0.00146248)
(0.0016822 0 0.00177512)
(0.00179682 0 0.00208725)
(0.00194027 0 0.00273251)
(0.00208325 0 0.00390799)
(0.00199231 0 0.00409952)
(0.00181866 0 0.00357954)
(0.0449156 0 0.00594567)
(0.0891575 0 0.00810009)
(0.0521742 0 0.0100366)
(0.0151188 0 0.0141107)
(0.0153127 0 0.01603)
(0.0149828 0 0.0197769)
(0.0157881 0 0.02444)
(0.0163457 0 0.0301621)
(0.0161062 0 0.0360009)
(0.0154748 0 0.0433962)
(0.0137665 0 0.0507247)
(0.0116693 0 0.0593724)
(0.00848918 0 0.0678398)
(0.0045133 0 0.0773995)
(0.000364154 0 4.95884e-05)
(0.000448397 0 0.000107818)
(0.000538384 0 0.00017953)
(0.000630607 0 0.000262892)
(0.000729019 0 0.000370619)
(0.000827733 0 0.000492944)
(0.00093103 0 0.000648369)
(0.00103265 0 0.00083344)
(0.00113788 0 0.00109822)
(0.00122457 0 0.00132821)
(0.00130557 0 0.00155761)
(0.00140556 0 0.00203165)
(0.00150146 0 0.00289795)
(0.00142293 0 0.00303098)
(0.00127888 0 0.00262673)
(0.0423945 0 0.00437158)
(0.0848922 0 0.00598403)
(0.0483235 0 0.00805745)
(0.0107161 0 0.0115931)
(0.0107969 0 0.0121776)
(0.0106572 0 0.0144097)
(0.01143 0 0.0180964)
(0.0120303 0 0.022307)
(0.0120835 0 0.0264654)
(0.0118414 0 0.0320363)
(0.0108697 0 0.0376762)
(0.00944474 0 0.0447067)
(0.00699099 0 0.0517324)
(0.00398986 0 0.0600084)
(0.000206158 0 4.34792e-05)
(0.0002789 0 9.17928e-05)
(0.000354418 0 0.000148767)
(0.000430433 0 0.000212823)
(0.000509512 0 0.000294623)
(0.000587738 0 0.00038597)
(0.000668291 0 0.000501245)
(0.000746695 0 0.000637669)
(0.000825268 0 0.000833401)
(0.000889496 0 0.0010026)
(0.000947959 0 0.00117)
(0.00101858 0 0.00151831)
(0.00108442 0 0.00215831)
(0.00102005 0 0.00224944)
(0.000903683 0 0.00193493)
(0.0396838 0 0.00322345)
(0.0801758 0 0.00445326)
(0.0448072 0 0.00674871)
(0.00758749 0 0.00997311)
(0.00758707 0 0.00960611)
(0.00747111 0 0.0107087)
(0.00813069 0 0.0137268)
(0.00869725 0 0.0168876)
(0.00883569 0 0.0196886)
(0.00876071 0 0.0237416)
(0.00819056 0 0.0279114)
(0.00723933 0 0.0332693)
(0.00552334 0 0.0386931)
(0.00322095 0 0.0455028)
(6.55856e-05 0 4.09069e-05)
(0.000133043 0 8.31413e-05)
(0.000200789 0 0.000130332)
(0.000267792 0 0.000181049)
(0.000335329 0 0.000243899)
(0.000401049 0 0.000312245)
(0.000466855 0 0.000398165)
(0.000529685 0 0.000498916)
(0.00059142 0 0.000643217)
(0.000641878 0 0.000766478)
(0.000685724 0 0.000888137)
(0.000736991 0 0.0011445)
(0.000783098 0 0.00161824)
(0.000732108 0 0.00167849)
(0.000641071 0 0.0014326)
(0.0366827 0 0.00238658)
(0.0747958 0 0.00335926)
(0.0413431 0 0.00598348)
(0.00530661 0 0.00898901)
(0.00527935 0 0.00789811)
(0.00513887 0 0.00817146)
(0.00569608 0 0.0107605)
(0.00621965 0 0.0132032)
(0.00634156 0 0.0149314)
(0.00633675 0 0.0178179)
(0.00600522 0 0.0208466)
(0.00536227 0 0.0247773)
(0.00416525 0 0.0287923)
(0.00246724 0 0.0340206)
(-6.90949e-05 0 4.15034e-05)
(-1.38802e-06 0 8.108e-05)
(6.43852e-05 0 0.000122265)
(0.000128135 0 0.000163815)
(0.000190257 0 0.000213418)
(0.000249774 0 0.000265333)
(0.000307451 0 0.000329341)
(0.000361428 0 0.000403232)
(0.000412856 0 0.000509927)
(0.000454719 0 0.000599035)
(0.000490454 0 0.000685646)
(0.000530228 0 0.000874039)
(0.000564034 0 0.00122628)
(0.000525322 0 0.00126304)
(0.000455198 0 0.00106806)
(0.0332804 0 0.0017773)
(0.0686825 0 0.00260853)
(0.037777 0 0.00557915)
(0.00363357 0 0.0084439)
(0.00357444 0 0.00684183)
(0.00343439 0 0.00646999)
(0.00391761 0 0.0087572)
(0.00437231 0 0.010741)
(0.00447776 0 0.0116749)
(0.00449839 0 0.0136374)
(0.00430511 0 0.0158253)
(0.00388442 0 0.0186505)
(0.00305676 0 0.0215526)
(0.00182691 0 0.0254083)
(-0.000208072 0 4.5262e-05)
(-0.000134735 0 8.51641e-05)
(-6.63057e-05 0 0.000123721)
(-3.71659e-07 0 0.000159754)
(6.17724e-05 0 0.000200097)
(0.000120242 0 0.000239806)
(0.000175122 0 0.000288072)
(0.000225606 0 0.000342215)
(0.000272149 0 0.000420799)
(0.000310314 0 0.000483544)
(0.000342129 0 0.000543694)
(0.000374937 0 0.000682201)
(0.000402086 0 0.000945214)
(0.000375671 0 0.000963245)
(0.000323719 0 0.000804654)
(0.0294843 0 0.00133419)
(0.0616148 0 0.00209991)
(0.0339683 0 0.00553453)
(0.00239395 0 0.00832693)
(0.00232712 0 0.00622682)
(0.00220927 0 0.00537434)
(0.00259449 0 0.00747068)
(0.0029941 0 0.00913135)
(0.00310828 0 0.00945191)
(0.00313338 0 0.0107153)
(0.00302784 0 0.0123507)
(0.00276544 0 0.014334)
(0.00219439 0 0.0163694)
(0.00132353 0 0.0191486)
(-0.000361568 0 5.24546e-05)
(-0.000278025 0 9.57482e-05)
(-0.000201187 0 0.000134657)
(-0.000127833 0 0.000167811)
(-6.12134e-05 0 0.000202484)
(1.26076e-06 0 0.00023379)
(5.81576e-05 0 0.000270274)
(0.000109757 0 0.000308983)
(0.000155955 0 0.000367095)
(0.000194306 0 0.00040972)
(0.000225821 0 0.000448751)
(0.000255972 0 0.000549932)
(0.000280218 0 0.000748128)
(0.000264598 0 0.000750533)
(0.000228543 0 0.000616447)
(0.0253767 0 0.00101567)
(0.0539293 0 0.00172981)
(0.0298654 0 0.00549321)
(0.00149697 0 0.00840802)
(0.00148626 0 0.00601179)
(0.00134137 0 0.00471154)
(0.00162986 0 0.00668058)
(0.00197581 0 0.00812628)
(0.00207817 0 0.00799339)
(0.00212634 0 0.00870812)
(0.00209659 0 0.00995957)
(0.00193607 0 0.0113568)
(0.00154765 0 0.0127613)
(0.00094208 0 0.0147099)
(-0.000540097 0 6.34235e-05)
(-0.000440405 0 0.000113355)
(-0.00035029 0 0.0001557)
(-0.000264911 0 0.000188747)
(-0.000188193 0 0.000220383)
(-0.000116716 0 0.000245618)
(-5.36167e-05 0 0.000273859)
(3.58504e-06 0 0.000301076)
(5.35708e-05 0 0.000343507)
(9.58773e-05 0 0.000369535)
(0.000130449 0 0.000391664)
(0.00016111 0 0.00046513)
(0.000185515 0 0.000616052)
(0.000180742 0 0.000603986)
(0.000158673 0 0.000484774)
(0.020923 0 0.000789708)
(0.0454823 0 0.00145473)
(0.0255598 0 0.00566861)
(0.000861385 0 0.0085926)
(0.00088746 0 0.00583745)
(0.000831696 0 0.00435174)
(0.000998757 0 0.00628318)
(0.00122146 0 0.00755663)
(0.00133111 0 0.00707493)
(0.00140094 0 0.0073861)
(0.00140123 0 0.0083658)
(0.00132529 0 0.00934202)
(0.00107549 0 0.0102675)
(0.000659739 0 0.0116238)
(-0.000754999 0 7.86467e-05)
(-0.000633129 0 0.000138897)
(-0.000523806 0 0.000187887)
(-0.00042031 0 0.00022352)
(-0.000328616 0 0.000254801)
(-0.000243569 0 0.000276335)
(-0.000168964 0 0.000298435)
(-0.000101583 0 0.000316298)
(-4.385e-05 0 0.000347377)
(6.03798e-06 0 0.000359721)
(4.67689e-05 0 0.000366778)
(8.12313e-05 0 0.000419026)
(0.000108635 0 0.000536339)
(0.000114982 0 0.000509795)
(0.000105813 0 0.00039664)
(0.0162808 0 0.000634156)
(0.0365661 0 0.00125703)
(0.0209883 0 0.00578894)
(0.000460075 0 0.00886368)
(0.00048469 0 0.00588965)
(0.000450117 0 0.00419792)
(0.000570364 0 0.00604407)
(0.000707762 0 0.0072223)
(0.000819229 0 0.00655657)
(0.00087902 0 0.00656371)
(0.000903152 0 0.00734781)
(0.000881794 0 0.00802599)
(0.000724338 0 0.00859352)
(0.000452119 0 0.00951283)
(-0.00101877 0 9.87648e-05)
(-0.000867625 0 0.000173551)
(-0.000732629 0 0.000232736)
(-0.000604682 0 0.000273864)
(-0.000491957 0 0.000307379)
(-0.000387355 0 0.000327229)
(-0.000296436 0 0.000345335)
(-0.000214487 0 0.000355845)
(-0.000144311 0 0.000378083)
(-8.27577e-05 0 0.000377854)
(-3.24615e-05 0 0.000371241)
(8.79505e-06 0 0.000407417)
(4.18121e-05 0 0.000501127)
(6.05772e-05 0 0.000458547)
(6.44273e-05 0 0.000343308)
(0.0115297 0 0.000533838)
(0.027317 0 0.00112231)
(0.0162823 0 0.00591314)
(0.000208301 0 0.0090453)
(0.000262893 0 0.00592978)
(0.000255996 0 0.00417183)
(0.000283696 0 0.00599635)
(0.000355139 0 0.00702974)
(0.000464253 0 0.00623494)
(0.000546547 0 0.00608923)
(0.000568114 0 0.00673351)
(0.000556684 0 0.00719984)
(0.000470134 0 0.00751778)
(0.000301132 0 0.00811707)
(-0.00134549 0 0.00012467)
(-0.001157 0 0.000218816)
(-0.000988795 0 0.000292259)
(-0.000828897 0 0.0003421)
(-0.000688368 0 0.00038064)
(-0.000557854 0 0.000400811)
(-0.000444674 0 0.00041671)
(-0.000342428 0 0.000421349)
(-0.000255222 0 0.000437113)
(-0.000177857 0 0.000425024)
(-0.000113936 0 0.000404395)
(-6.24798e-05 0 0.000427778)
(-2.09634e-05 0 0.000506227)
(1.1946e-05 0 0.000445206)
(2.94909e-05 0 0.000319392)
(0.00676458 0 0.000479208)
(0.0179828 0 0.00104031)
(0.0115063 0 0.00595657)
(7.57018e-05 0 0.00913354)
(0.000137091 0 0.0059884)
(0.000156082 0 0.00421472)
(0.000145107 0 0.00598537)
(0.000150597 0 0.00694145)
(0.00023362 0 0.0061088)
(0.000307674 0 0.00585298)
(0.000337253 0 0.00636419)
(0.00034093 0 0.00668953)
(0.000295751 0 0.00684828)
(0.000191574 0 0.00722694)
(-0.00175151 0 0.000157538)
(-0.0015162 0 0.000276803)
(-0.00130603 0 0.000369213)
(-0.00110552 0 0.000431291)
(-0.000929231 0 0.000477951)
(-0.000765175 0 0.000500583)
(-0.000622941 0 0.000516023)
(-0.000494072 0 0.000516033)
(-0.000384113 0 0.000527223)
(-0.000285542 0 0.000503185)
(-0.000203703 0 0.00046773)
(-0.000138524 0 0.000481017)
(-8.5171e-05 0 0.000550641)
(-3.5327e-05 0 0.000467122)
(-2.37718e-06 0 0.000322002)
(0.00203477 0 0.00046439)
(0.00863192 0 0.00100606)
(0.00673951 0 0.00600961)
(1.03154e-05 0 0.00915819)
(7.40165e-05 0 0.00599432)
(0.000122459 0 0.00428586)
(7.46979e-05 0 0.00600722)
(3.86789e-05 0 0.00687421)
(0.000106306 0 0.00604778)
(0.000170094 0 0.00576259)
(0.000184349 0 0.00618438)
(0.000189281 0 0.00638983)
(0.000174364 0 0.00644618)
(0.000118724 0 0.00667738)
(-0.00225601 0 0.000198889)
(-0.00196269 0 0.000350134)
(-0.00170038 0 0.000467141)
(-0.00144904 0 0.00054565)
(-0.00122765 0 0.000603882)
(-0.00102105 0 0.000631163)
(-0.000841682 0 0.000647962)
(-0.000678545 0 0.000644511)
(-0.000539114 0 0.000652895)
(-0.000413134 0 0.000616216)
(-0.000307954 0 0.000564201)
(-0.000224517 0 0.000569379)
(-0.000155708 0 0.000636165)
(-8.53646e-05 0 0.000525016)
(-3.42864e-05 0 0.000350387)
(-0.00259915 0 0.000486674)
(-0.00058235 0 0.00101702)
(0.00202161 0 0.00601158)
(-8.37103e-06 0 0.00915934)
(3.8153e-05 0 0.00602072)
(8.6702e-05 0 0.00435681)
(4.64375e-05 0 0.006015)
(-6.89623e-06 0 0.00681279)
(3.88274e-05 0 0.00603299)
(8.9506e-05 0 0.00574709)
(9.80005e-05 0 0.00609271)
(9.8603e-05 0 0.00622965)
(9.5698e-05 0 0.00623416)
(6.86727e-05 0 0.00635987)
(-0.00288183 0 0.000250609)
(-0.00251726 0 0.000442114)
(-0.00219064 0 0.000590468)
(-0.0018764 0 0.000690392)
(-0.00159901 0 0.000764315)
(-0.00133912 0 0.000798828)
(-0.00111298 0 0.00081879)
(-0.000906465 0 0.000812867)
(-0.000729473 0 0.000820278)
(-0.000568487 0 0.000769762)
(-0.000433413 0 0.0006986)
(-0.000326415 0 0.000697308)
(-0.000237549 0 0.000766893)
(-0.000141755 0 0.000621344)
(-6.89531e-05 0 0.0004057)
(-0.00708876 0 0.00054664)
(-0.00955888 0 0.00107173)
(-0.00259818 0 0.0059877)
(-1.41074e-05 0 0.00911274)
(2.78758e-05 0 0.00601528)
(7.77321e-05 0 0.00441122)
(3.00085e-05 0 0.00602621)
(-2.03958e-05 0 0.00675366)
(1.15149e-05 0 0.00602283)
(5.11063e-05 0 0.00576752)
(5.07933e-05 0 0.00605477)
(4.67069e-05 0 0.00614529)
(5.03916e-05 0 0.00612165)
(4.00121e-05 0 0.00618961)
(-0.00365576 0 0.00031477)
(-0.0032045 0 0.000556593)
(-0.00279923 0 0.000744528)
(-0.00240772 0 0.000872057)
(-0.00206133 0 0.00096651)
(-0.00173533 0 0.00101126)
(-0.00145099 0 0.00103653)
(-0.0011902 0 0.00102928)
(-0.000965959 0 0.00103755)
(-0.000760742 0 0.000971255)
(-0.000587781 0 0.000877508)
(-0.000450735 0 0.000871334)
(-0.000336225 0 0.000949561)
(-0.00020857 0 0.000761089)
(-0.000109006 0 0.000490691)
(-0.0113517 0 0.000646775)
(-0.0181733 0 0.00116884)
(-0.00708705 0 0.00592054)
(-2.81382e-05 0 0.00902474)
(2.12244e-05 0 0.00599644)
(6.44907e-05 0 0.00443836)
(2.95697e-05 0 0.00602349)
(-1.41517e-05 0 0.0067067)
(1.89111e-06 0 0.0060227)
(2.85105e-05 0 0.00579716)
(2.89804e-05 0 0.006036)
(2.23572e-05 0 0.00610082)
(2.51859e-05 0 0.00606863)
(2.27611e-05 0 0.00610237)
(-0.00460951 0 0.000393784)
(-0.00405281 0 0.000698108)
(-0.00355233 0 0.000935524)
(-0.0030667 0 0.00109821)
(-0.00263587 0 0.00121918)
(-0.00222857 0 0.00127795)
(-0.00187235 0 0.001311)
(-0.00154424 0 0.0013037)
(-0.00126122 0 0.00131506)
(-0.0010006 0 0.00123057)
(-0.000780013 0 0.00110963)
(-0.000605035 0 0.00110001)
(-0.000458045 0 0.00119339)
(-0.000290469 0 0.000951491)
(-0.00015753 0 0.000609876)
(-0.0153393 0 0.000792451)
(-0.026308 0 0.00130965)
(-0.0113718 0 0.00581203)
(-7.80522e-05 0 0.00887847)
(-7.16134e-06 0 0.00595148)
(4.7834e-05 0 0.00443873)
(3.06056e-05 0 0.00600664)
(-3.2307e-06 0 0.00666396)
(3.68471e-06 0 0.00601707)
(2.11544e-05 0 0.00582214)
(1.68262e-05 0 0.0060272)
(1.14552e-05 0 0.00607409)
(1.3305e-05 0 0.00604242)
(1.27108e-05 0 0.00606022)
(-0.00577942 0 0.000490472)
(-0.00509699 0 0.000871741)
(-0.00448081 0 0.00117064)
(-0.00388067 0 0.00137772)
(-0.00334745 0 0.00153247)
(-0.00284103 0 0.00160996)
(-0.00239672 0 0.00165403)
(-0.00198575 0 0.00164839)
(-0.00163009 0 0.00166542)
(-0.00130062 0 0.0015597)
(-0.00102066 0 0.00140596)
(-0.000798195 0 0.00139463)
(-0.000610401 0 0.0015105)
(-0.000392776 0 0.00120205)
(-0.000218144 0 0.000769452)
(-0.0190294 0 0.000991372)
(-0.0338747 0 0.00149884)
(-0.0154194 0 0.00568313)
(-0.000197543 0 0.00868358)
(-7.49311e-05 0 0.00588738)
(7.66752e-06 0 0.00442024)
(1.36001e-05 0 0.00597615)
(-2.9635e-07 0 0.00662574)
(7.19567e-06 0 0.00600476)
(1.48164e-05 0 0.00583571)
(1.1938e-05 0 0.00602096)
(8.89979e-06 0 0.00605757)
(6.96039e-06 0 0.00602882)
(6.18701e-06 0 0.00603874)
(-0.00720771 0 0.000607983)
(-0.00637208 0 0.00108339)
(-0.00562007 0 0.00145802)
(-0.00488315 0 0.00172063)
(-0.00422545 0 0.00191821)
(-0.00359833 0 0.00202038)
(-0.00304705 0 0.00207938)
(-0.0025349 0 0.00207767)
(-0.0020901 0 0.0021038)
(-0.00167567 0 0.00197336)
(-0.00132215 0 0.00177984)
(-0.00104069 0 0.00176895)
(-0.000802005 0 0.00191617)
(-0.000521776 0 0.00152525)
(-0.000294959 0 0.000977605)
(-0.0223947 0 0.00125349)
(-0.0408116 0 0.00174365)
(-0.0192105 0 0.00555545)
(-0.000406729 0 0.00846081)
(-0.000213921 0 0.00581774)
(-7.09102e-05 0 0.0043973)
(-3.41503e-05 0 0.00593663)
(-2.15525e-05 0 0.00659323)
(-6.49563e-06 0 0.00598902)
(2.87967e-06 0 0.00583842)
(8.87383e-06 0 0.00601193)
(6.78852e-06 0 0.00604456)
(4.05488e-06 0 0.00602224)
(2.68425e-06 0 0.00602787)
(-0.00894264 0 0.000750064)
(-0.00793364 0 0.00133946)
(-0.0070114 0 0.00180685)
(-0.00610796 0 0.00213874)
(-0.0053036 0 0.00238992)
(-0.00453197 0 0.002524)
(-0.0038505 0 0.00260307)
(-0.00321506 0 0.00260847)
(-0.00266178 0 0.00264807)
(-0.00214329 0 0.0024888)
(-0.00169922 0 0.00224729)
(-0.001345 0 0.00223974)
(-0.00104325 0 0.00242897)
(-0.000685035 0 0.00193638)
(-0.000393042 0 0.00124469)
(-0.0254174 0 0.00159212)
(-0.047083 0 0.00205344)
(-0.0227338 0 0.00545367)
(-0.000728263 0 0.00823668)
(-0.000427779 0 0.00576662)
(-0.000212228 0 0.00439418)
(-0.00013704 0 0.0059085)
(-8.59888e-05 0 0.0065762)
(-4.46602e-05 0 0.00597703)
(-2.1317e-05 0 0.00583848)
(-6.51768e-06 0 0.00600377)
(4.24874e-07 0 0.00603297)
(1.76579e-06 0 0.00601567)
(-6.49269e-07 0 0.00602156)
(-0.00979202 0 0.00164832)
(-0.0110398 0 0.00092042)
(-0.00870192 0 0.00222821)
(-0.00760875 0 0.00264462)
(-0.00662136 0 0.00296277)
(-0.00567386 0 0.0031383)
(-0.00483836 0 0.00324361)
(-0.00405496 0 0.00326008)
(-0.00336956 0 0.00331912)
(-0.00272387 0 0.00312653)
(-0.00216919 0 0.00282715)
(-0.00172582 0 0.00282679)
(-0.00134649 0 0.00307115)
(-0.000891735 0 0.00245397)
(-0.000518548 0 0.00158342)
(-0.0281045 0 0.00202348)
(-0.0526817 0 0.00243664)
(-0.0259848 0 0.005409)
(-0.00118618 0 0.00804734)
(-0.000753902 0 0.00576032)
(-0.00043466 0 0.00444011)
(-0.000294142 0 0.00591276)
(-0.000205184 0 0.00659045)
(-0.000127401 0 0.00598516)
(-7.50018e-05 0 0.00584858)
(-3.83841e-05 0 0.00601074)
(-1.82165e-05 0 0.00603162)
(-7.3342e-06 0 0.00601515)
(-4.95538e-06 0 0.00601867)
(-0.00939588 0 0.00325512)
(-0.0107463 0 0.00273247)
(-0.0137412 0 0.00225576)
(-0.017578 0 0.00145359)
(-0.00822379 0 0.00365518)
(-0.00707451 0 0.00388178)
(-0.00604743 0 0.00402163)
(-0.00508406 0 0.00405541)
(-0.00424172 0 0.00414113)
(-0.00344255 0 0.00390995)
(-0.00275272 0 0.00354156)
(-0.00220043 0 0.00355365)
(-0.00172625 0 0.00386889)
(-0.00115271 0 0.0030999)
(-0.000679324 0 0.00200934)
(-0.0304698 0 0.00256755)
(-0.0576113 0 0.00290773)
(-0.0289635 0 0.0054448)
(-0.00179717 0 0.00793023)
(-0.00121774 0 0.0058258)
(-0.000752673 0 0.00456385)
(-0.000541113 0 0.00597352)
(-0.000394723 0 0.00665289)
(-0.00025247 0 0.0060374)
(-0.000165352 0 0.00589038)
(-0.000100599 0 0.00604335)
(-5.7076e-05 0 0.00605396)
(-2.4068e-05 0 0.0060352)
(-1.05369e-05 0 0.00602999)
(-0.0087444 0 0.00477944)
(-0.0101632 0 0.00448438)
(-0.0131976 0 0.00445603)
(-0.0171237 0 0.00430694)
(-0.0212886 0 0.00347769)
(-0.0269104 0 0.00219982)
(-0.00751983 0 0.00496222)
(-0.00634858 0 0.00501856)
(-0.0053116 0 0.00514124)
(-0.0043255 0 0.00486694)
(-0.00347398 0 0.0044162)
(-0.00279003 0 0.00444739)
(-0.00219996 0 0.00485309)
(-0.00148084 0 0.00390038)
(-0.000884162 0 0.00254109)
(-0.0325299 0 0.00324721)
(-0.0618937 0 0.00352259)
(-0.0316944 0 0.00559295)
(-0.00257994 0 0.00793625)
(-0.0018156 0 0.00598846)
(-0.001187 0 0.00479781)
(-0.000898657 0 0.00612236)
(-0.000663265 0 0.0067875)
(-0.000450182 0 0.00615358)
(-0.000310704 0 0.00598913)
(-0.000187798 0 0.00613305)
(-0.000115167 0 0.00612215)
(-5.62441e-05 0 0.00608082)
(-1.97555e-05 0 0.00606702)
(-0.0078594 0 0.00618226)
(-0.00930463 0 0.00608854)
(-0.0123033 0 0.00654529)
(-0.0162187 0 0.00707606)
(-0.0204696 0 0.00687234)
(-0.0262333 0 0.00650058)
(-0.0321228 0 0.0051839)
(-0.0397911 0 0.00322623)
(-0.00661777 0 0.00635245)
(-0.00541327 0 0.00602699)
(-0.00436153 0 0.00547994)
(-0.00351727 0 0.00554017)
(-0.00278823 0 0.00605942)
(-0.00189216 0 0.00488573)
(-0.00114434 0 0.00320096)
(-0.034322 0 0.00409082)
(-0.0655588 0 0.00433535)
(-0.0342106 0 0.00588318)
(-0.00355953 0 0.00813162)
(-0.00258085 0 0.00628539)
(-0.00176455 0 0.00517408)
(-0.00136402 0 0.00638982)
(-0.00103484 0 0.00701939)
(-0.000739695 0 0.00637601)
(-0.000511444 0 0.00618121)
(-0.000321911 0 0.00628819)
(-0.000203051 0 0.0062528)
(-0.000101391 0 0.00619093)
(-3.81561e-05 0 0.00615271)
(-0.00671762 0 0.00743032)
(-0.0082057 0 0.00780482)
(-0.0110892 0 0.00847177)
(-0.0148884 0 0.0096072)
(-0.0191225 0 0.0101002)
(-0.0248807 0 0.0106891)
(-0.0309148 0 0.0102429)
(-0.0388037 0 0.00949189)
(-0.046761 0 0.00747998)
(-0.056998 0 0.00462097)
(-0.00544904 0 0.00676821)
(-0.00441636 0 0.00686661)
(-0.00351527 0 0.00752835)
(-0.00240426 0 0.00609166)
(-0.00147362 0 0.00401518)
(-0.0358998 0 0.00513109)
(-0.0686896 0 0.00536962)
(-0.036577 0 0.00638252)
(-0.00478982 0 0.0085419)
(-0.0035469 0 0.00676842)
(-0.00251537 0 0.00573002)
(-0.00196594 0 0.0068164)
(-0.00152469 0 0.0073829)
(-0.00111113 0 0.0067302)
(-0.000784685 0 0.00650713)
(-0.000517986 0 0.00656252)
(-0.000319769 0 0.00647928)
(-0.000169616 0 0.00636647)
(-7.03257e-05 0 0.00630507)
(-0.00550038 0 0.00847474)
(-0.00677784 0 0.00831243)
(-0.00951887 0 0.010191)
(-0.0131888 0 0.0123536)
(-0.0172977 0 0.0130855)
(-0.0228994 0 0.0145021)
(-0.0289314 0 0.0150506)
(-0.0368264 0 0.0156131)
(-0.0450084 0 0.0147687)
(-0.0555707 0 0.0135003)
(-0.0659888 0 0.010561)
(-0.0794928 0 0.00652018)
(-0.00441053 0 0.00931106)
(-0.00304146 0 0.0075578)
(-0.00188726 0 0.00501442)
(-0.0372986 0 0.00640541)
(-0.071387 0 0.00665858)
(-0.0388183 0 0.00714106)
(-0.00629835 0 0.00916715)
(-0.0047752 0 0.00748724)
(-0.00347032 0 0.00650449)
(-0.00273356 0 0.00745589)
(-0.00215284 0 0.00792918)
(-0.00158015 0 0.00726071)
(-0.00114075 0 0.0070023)
(-0.000767917 0 0.00697766)
(-0.000479942 0 0.00684158)
(-0.00027012 0 0.00667188)
(-0.000116231 0 0.00655595)
(-0.0038246 0 0.00934053)
(-0.00551208 0 0.0114457)
(-0.00784262 0 0.011636)
(-0.0109661 0 0.0131498)
(-0.014932 0 0.0157651)
(-0.0203796 0 0.018693)
(-0.026259 0 0.0194998)
(-0.0339545 0 0.0211382)
(-0.0421471 0 0.0216678)
(-0.0526971 0 0.0221868)
(-0.0634529 0 0.0208149)
(-0.0774117 0 0.0188538)
(-0.0909759 0 0.0146767)
(-0.108436 0 0.00895518)
(-0.00240477 0 0.00623848)