/*--------------------------------*- C++ -*----------------------------------*\
| =========                 |                                                 |
| \\      /  F ield         | OpenFOAM: The Open Source CFD Toolbox           |
|  \\    /   O peration     | Version:  5.x                                   |
|   \\  /    A nd           | Web:      www.OpenFOAM.org                      |
|    \\/     M anipulation  |                                                 |
\*---------------------------------------------------------------------------*/
FoamFile
{
    version     2.0;
    format      ascii;
    class       volScalarField;
    location    "0.7";
    object      alpha.water;
}
// * * * * * * * * * * * * * * * * * * * * * * * * * * * * * * * * * * * * * //

dimensions      [0 0 0 0 0 0 0];

internalField   nonuniform List<scalar> 
12160
(
1
1
1
1
1
1
1
1
1
1
1
1
1
1
1
1
1
1
1
1
1
1
1
1
1
1
1
1
1
1
1
1
1
1
1
1
1
1
1
1
1
1
1
0.999493
0.670341
1
1
1
1
1
1
1
0.999058
0.665393
0.027955
1
1
1
1
1
1
1
0.999968
0.679818
0.0480404
0.000154621
1
1
1
1
1
1
1
1
0.702491
0.0703208
0.000122333
6.33077e-08
1
1
1
1
1
1
1
1
0.696704
0.103196
0.000388184
5.33316e-08
1.13964e-12
1
1
1
1
1
1
1
1
0.659179
0.119743
0.00118607
3.2275e-07
1.78804e-12
3.74034e-17
1
1
1
1
1
1
1
1
0.594325
0.110255
0.00265678
1.42154e-06
1.69075e-11
4.5243e-17
6.03066e-22
1
1
1
1
1
1
1
1
0.513031
0.0824217
0.00293147
5.31396e-06
1.33257e-10
3.24871e-16
6.3562e-22
1
1
1
1
1
1
1
1
0.429396
0.0525274
0.00188165
8.39218e-06
7.63752e-10
3.12161e-15
5.07378e-21
1
1
1
1
1
1
1
1
0.351444
0.0304688
0.0007274
4.38555e-06
1.63024e-09
1.97919e-14
6.17286e-20
1
1
1
1
1
1
1
1
0.282846
0.0165711
0.000231317
9.20623e-07
6.72828e-10
4.51809e-14
4.51892e-19
1
1
1
1
1
1
1
1
0.224769
0.00855108
6.78276e-05
1.35235e-07
6.82101e-11
1.86612e-14
1.12731e-18
1
1
1
1
1
1
1
1
0.176975
0.00423504
1.84819e-05
1.70782e-08
4.673e-12
1.78545e-15
4.74877e-19
1
1
1
1
1
1
1
1
0.138476
0.00203932
4.67029e-06
1.95116e-09
4.69068e-13
1.36266e-16
4.56469e-20
1
1
1
1
1
1
1
1
0.10796
0.000967317
1.10715e-06
2.0548e-10
4.35592e-14
1.18973e-17
3.6681e-21
1
1
1
1
1
1
1
1
0.0840671
0.000457272
2.50791e-07
2.43586e-11
3.94367e-15
9.23816e-19
2.73168e-22
1
1
1
1
1
1
1
1
0.0655475
0.000218071
5.57113e-08
4.25873e-12
4.59173e-16
7.52849e-20
1.83264e-23
1
0.999999
1
1
1
1
1
1
0.0513303
0.000106399
1.2506e-08
7.29762e-13
6.36192e-17
7.85696e-21
1.36807e-24
1
1
1
1
1
1
1
1
0.0405352
5.42627e-05
2.97293e-09
1.27467e-13
8.56842e-18
8.53275e-22
1.20963e-25
1
1
1
1
1
1
1
1
0.0324622
2.96749e-05
8.16238e-10
2.46473e-14
1.19962e-18
9.06977e-23
1.04326e-26
1
1
1
1
1
1
1
1
0.026572
1.79317e-05
2.86532e-10
6.02016e-15
1.96913e-19
1.04125e-23
8.93256e-28
1
1
1
1
1
1
1
1
0.0224628
1.21932e-05
1.41384e-10
2.06764e-15
4.42331e-20
1.49407e-24
8.62854e-29
0.999999
0.999999
1
1
1
1
1
1
0.0198409
9.34881e-06
9.43174e-11
1.02669e-15
1.4446e-20
3.08017e-25
1.09669e-29
0.999999
0.999999
0.999999
1
1
1
1
1
0.0185144
7.91394e-06
7.58154e-11
6.76182e-16
6.81717e-21
9.24371e-26
2.04006e-30
0.999999
0.999999
0.999999
0.999999
1
1
1
1
0.0183671
7.30789e-06
6.89755e-11
5.56729e-16
4.36424e-21
4.07219e-26
5.52019e-31
1
1
0.999999
0.999999
0.999999
1
1
1
0.0193398
7.27977e-06
6.72998e-11
5.27155e-16
3.62768e-21
2.51689e-26
2.26142e-31
1
1
1
1
0.999999
1
1
1
0.0214343
7.79192e-06
6.80401e-11
5.31748e-16
3.51628e-21
2.08514e-26
1.34399e-31
1
1
1
1
1
1
1
1
0.0246942
8.94684e-06
7.08055e-11
5.43152e-16
3.62953e-21
2.03986e-26
1.1014e-31
1
1
1
1
1
1
1
1
0.0292109
1.10652e-05
7.68308e-11
5.57953e-16
3.73929e-21
2.13255e-26
1.07898e-31
1
1
1
1
1
1
1
1
0.0351201
1.48259e-05
8.98454e-11
5.88438e-16
3.81969e-21
2.21102e-26
1.13657e-31
1
1
1
1
1
1
1
1
0.0425901
2.16228e-05
1.17668e-10
6.69184e-16
3.96837e-21
2.26005e-26
1.18451e-31
1
1
1
1
1
1
1
1
0.0518228
3.39206e-05
1.83086e-10
8.72191e-16
4.46318e-21
2.34099e-26
1.215e-31
1
1
1
1
1
1
1
1
0.0630468
5.60996e-05
3.59561e-10
1.35628e-15
5.85375e-21
2.64024e-26
1.26225e-31
1
1
1
1
1
1
1
1
0.0765118
9.57896e-05
8.69538e-10
2.62756e-15
9.40245e-21
3.52046e-26
1.43801e-31
1
1
1
1
1
1
1
1
0.0924799
0.000166016
2.40604e-09
6.47993e-15
1.89151e-20
5.89211e-26
1.96122e-31
1
1
1
1
1
1
1
1
0.111217
0.000288539
7.1411e-09
1.95136e-14
4.82662e-20
1.25999e-25
3.4304e-31
1
1
1
1
1
1
1
1
0.132976
0.000498813
2.16747e-08
6.66186e-14
1.54229e-19
3.42158e-25
7.85173e-31
1
1
1
1
1
1
1
1
0.157974
0.000853019
6.51968e-08
2.40208e-13
5.85551e-19
1.16424e-24
2.31091e-30
1
1
1
1
1
1
1
1
0.18637
0.00143622
1.91509e-07
8.69761e-13
2.44205e-18
4.8195e-24
8.50353e-30
0.218181
1
1
1
1
1
1
1
1
0.00237303
5.45201e-07
3.07598e-12
1.04321e-17
2.27329e-23
3.82277e-29
0.00383357
0.27641
1
1
1
1
1
1
1
1
1.49787e-06
1.04782e-11
4.37503e-17
1.12985e-22
2.00335e-28
3.97587e-06
0.00793134
0.374414
1
1
1
1
1
1
1
0.999999
3.62933e-11
1.75959e-16
5.59175e-22
1.13683e-27
1.6043e-10
1.55022e-05
0.0198283
0.480231
1
1
1
1
1
0.999999
0.999999
0.999997
6.84675e-16
2.65391e-21
6.53595e-27
2.96479e-15
1.40119e-09
9.20143e-05
0.0415009
0.584185
1
1
1
1
0.999999
0.999997
0.999998
0.999997
0.999995
1.20126e-20
3.61527e-26
5.41456e-20
2.96382e-14
2.62292e-08
0.00040311
0.0737315
0.677274
1
1
1
1
0.999998
0.999997
0.999997
0.999999
0.999998
0.999999
1.89716e-25
9.40921e-25
5.96795e-19
7.18817e-13
3.09009e-07
0.00129228
0.113302
0.753591
1
1
1
0.999999
0.999997
0.999997
0.999998
0.999999
0.999999
0.999999
1
1.12797e-23
1.81401e-17
1.28204e-11
2.11594e-06
0.00305287
0.153774
0.813067
1
1
1
0.999999
0.999997
0.999997
0.999999
0.999999
0.999999
0.999996
0.999997
0.999999
4.14572e-22
3.44778e-16
2.09158e-10
8.37443e-06
0.00533709
0.18994
0.857487
1
1
1
0.999999
0.999997
0.999997
0.999999
0.999999
0.999999
0.999998
0.999995
0.999995
0.999998
9.13202e-21
5.54186e-15
1.52643e-09
1.85626e-05
0.00715664
0.220908
0.888982
1
1
1
0.999999
0.999998
0.999997
0.999999
0.999999
0.999999
0.999999
0.999996
0.999995
0.999995
0.999996
1.40326e-19
4.3103e-14
4.25078e-09
2.30475e-05
0.00759721
0.242506
0.907383
1
1
1
0.999999
0.999998
0.999998
0.999999
1
0.999999
0.999999
1
0.999997
0.999999
0.999997
0.999995
0.999995
0.999995
0.999994
1.11789e-18
1.17554e-13
4.28111e-09
1.78399e-05
0.00696159
0.247873
0.914729
1
1
1
1
0.999999
0.999999
0.999997
1
0.999999
1
1
1
1
0.999997
0.999996
0.999996
0.999999
0.999996
0.999995
0.999995
0.999995
0.999999
2.96412e-18
1.01534e-13
2.47052e-09
1.17487e-05
0.00562932
0.239415
0.906951
1
1
1
1
0.999999
0.999997
1
0.999998
1
0.999998
0.999996
1
1
1
0.999997
0.999996
0.999995
1
1
1
1
0.999999
0.999998
0.999996
0.999998
0.999999
2.26472e-18
5.06071e-14
1.21541e-09
6.71842e-06
0.00409718
0.213991
0.895721
0.999943
1
1
1
0.999998
0.999998
1
0.999998
1
1
1
1
1
1.00001
1
1.00001
1
1.00001
1
1
1.00001
1.00001
1.00001
1.00001
1.00001
1.00001
1.00001
1
1.00001
1
1
1
1
1
1
1
1
1
1
1
1
0.999999
0.999997
0.999996
0.999998
9.84309e-19
2.14544e-14
5.01148e-10
3.40212e-06
0.0028594
0.18246
0.85637
0.999539
1
1
0.999999
0.999998
1
0.999998
1
1
1
0.999999
1
1
1
1
1
1
1
1
1
1
1
1
1
1
1
1
1
1
1
1
1
1.00001
1.00001
1.00001
1.00001
1
1.00001
1.00001
1.00001
1
1
1.00001
1.00001
1.00001
1.00001
1.00001
1.00001
1.00001
1.00001
1.00001
1.00001
1
1.00001
1.00001
1.00001
1.00001
1.00001
1.00001
1.00001
1.00001
1.00001
1
1.00001
1
1
1
1
1
1
1
1
0.999999
0.999997
0.999996
0.999997
3.67476e-19
7.41521e-15
1.85003e-10
1.50776e-06
0.00175388
0.131165
0.793943
0.99556
0.999969
1
0.999999
1
1
1
0.999998
1
0.999998
1
1
1
1
1
1
1
1
1
1
1
1
1
1
1
1
1
1
1
1
1
1
1
1
1
1
1
0.999999
1
1
1
1
1
0.999994
1
0.999998
1
1.00001
1.00001
1.00001
1.00001
1
1.00001
1
1
1
1
1
1.00001
1.00001
1.00001
1.00001
1.00001
1.00001
1.00001
1.00001
1.00001
1.00001
1.00001
1.00001
1.00001
1.00001
1.00001
1.00001
1.00001
1.00001
1.00001
1.00001
1.00001
1.00001
1.00001
1.00001
1.00001
1.00001
1.00001
1.00001
1.00001
1.00001
1.00001
1.00001
1.00001
1.00001
1.00001
1
1.00001
1.00001
1
1
1
1
1
1
1
0.999998
0.999996
0.999996
0.999996
1.06445e-19
2.41648e-15
5.70248e-11
5.64973e-07
0.000876963
0.0806304
0.683334
0.974946
0.999841
1
1
1
1
0.999998
1
0.999998
1
0.999999
1
0.999999
1
1
1
1
1
0.999999
0.999999
0.999998
0.999999
1
1
1
1
1
1
1
1
1
1
0.999998
1
1
1
1
1
1
1
1
1
1.00001
1.00001
1
1.00001
1
1
1.00001
1.00001
1
1.00001
1.00001
1.00001
1.00001
1.00001
1.00001
1.00001
1.00001
1.00001
1.00001
1.00001
1.00001
1.00001
1.00001
1.00001
1.00001
1.00001
1.00001
1.00001
1.00001
1.00001
1.00001
1.00001
1.00001
1.00001
1.00001
1.00001
1.00001
1.00001
1.00001
1.00001
1.00001
1.00001
1.00001
1.00001
1.00001
1.00001
1.00001
1.00001
1.00001
1.00001
1.00001
1.00001
1.00001
1.00001
1.00001
1.00001
1.00001
1.00001
1
0.999998
0.999996
0.999996
0.999996
0.999998
3.10798e-20
6.64586e-16
1.44356e-11
1.37945e-07
0.000357201
0.0409668
0.513568
0.933573
1
1
1
1
1
0.999999
1
1
1
0.999999
1
0.999999
1
1
1
1
1
0.999999
1
0.999999
1
1
1
1
1
1
1
1
1
1
1.00001
1.00001
1.00001
1.00001
1.00001
1.00001
1.00001
1.00001
1.00001
1
1.00001
1
1.00001
1.00001
1.00001
1.00001
1.00001
1.00001
1.00001
1.00001
1.00001
1.00001
1.00001
1.00001
1.00001
1.00001
1
1.00001
1
1.00001
1.00001
1.00001
1.00001
1.00001
1.00001
1.00001
1.00001
1.00001
1.00001
1.00001
1.00001
1
0.999996
0.999996
0.999996
0.999996
0.999998
6.99665e-21
1.83627e-16
1.83041e-12
2.71061e-08
8.71386e-05
0.0166436
0.3124
0.868391
0.998989
0.998992
0.970428
0.970349
0.999999
1
0.999988
0.999988
1
0.999999
1
1
1
1
1
1
1
1
1
1
1
1
1
1
1
1
1
1
1
1
1
1
0.999999
1
1
1
1
1
1
1
1
1.00001
1.00001
1.00001
1.00001
1.00001
1.00001
1
1.00001
1
1.00001
1
1
1
1
1.00001
1.00001
1.00001
1.00001
1
1
1
1
1.00001
1.00001
1.00001
1.00001
1
1
1.00001
1.00001
0.999998
0.999996
0.999996
0.999996
0.999997
0.999998
1.87184e-21
2.46026e-17
1.71964e-13
2.50284e-09
6.1937e-06
0.00491605
0.131754
0.580523
1
1
0.926192
0.926197
0.999999
1
1
0.999999
1
1
1
1
1
1
1
1
1
1
1
1
1
1
1
1
1
1
1
1
1
1
1
1
1
1
1
1.00001
1.00001
1.00001
1.00001
1.00001
1.00001
1.00001
1.00001
1
1.00001
1
1
1
0.999998
1
1
1
1
1
1
1
1
1
1
1
1
1
1
1
1
1
1
1.00001
1.00001
1
1
1
1
1.00001
1.00001
1.00001
1.00001
0.999996
0.999996
0.999997
0.999998
0.999999
1.33303e-22
3.63502e-18
7.25652e-15
1.2501e-16
3.82056e-10
0.000952939
0.0264338
0.416872
0.416897
0.168457
0.16838
0.971093
1
0.913153
1
0.970945
1
0.912534
1
0.809762
0.810088
0.999999
1
1
1
1
1
1
1
0.995607
1
0.99997
1
0.995492
1
0.999897
1
1
1
1
1
1
1
1
1
0.999999
1
1.00001
1.00001
1.00001
1.00001
1
1.00001
1
1.00001
1
1
1
1
1
1
1.00001
1
0.999998
0.999997
0.999999
0.999995
1
1
1
1
0.999999
1
1
0.999998
1
1
1
1
1
1
1
1
0.999996
0.999996
0.999999
0.999999
2.09653e-23
1.79771e-19
1.24201e-16
3.77817e-10
3.8634e-10
4.01939e-05
0.0103835
0.0103864
2.01501e-18
2.79274e-18
0.195967
0.195819
0.0354074
0.0353842
0.93872
1
0.86655
0.999837
0.938871
1
0.866585
0.999866
0.852165
0.475655
0.661402
0.639402
0.852261
0.47473
0.661822
0.638795
1
1
1
0.999999
1
1
1
0.999998
0.993725
1
0.999579
1
0.99397
1
0.999591
1
0.999998
1
1.00001
1.00001
1.00001
1.00001
1.00001
1.00001
1
1.00001
1
1
1
1
1.00001
1.00001
1.00001
1.00001
1
1
1
1
1
1
1
1.00001
1
1
1
1
0.999999
1
1
1
0.999994
0.999995
0.999993
0.999994
1
1
1
1
0.999996
0.999998
0.999999
1.78629e-25
1.20827e-21
3.12752e-13
4.02077e-09
3.10788e-07
1.77085e-05
0.00232463
0.00232223
3.65165e-06
3.59321e-06
0.0718077
0.385747
0.117214
0.0184401
0.0346211
0.558174
0.385005
0.0715779
0.558369
0.117052
0.0183141
0.0345552
0.000617733
0.000619012
0.00296684
0.00524914
0.000619012
0.000617733
0.00295706
0.00524385
0.898764
1
0.83933
0.993979
0.899104
1
0.839438
0.993956
0.73687
0.510545
0.737506
0.509597
1
1
1
1
0.958106
1
0.958395
1
0.999998
1
1
1.00001
1.00001
1.00002
1.00001
1.00001
1
1.00001
1
1.00001
1
1
1
1
1
1
1.00001
1.00001
1.00001
1.00001
1.00001
1.00001
1
1
1
1
1
1
1
1
0.999999
0.999999
1
1
1
1
1
1
0.999996
0.999995
1
1
0.999997
0.999999
3.67474e-27
4.58027e-16
6.18579e-11
5.22277e-08
4.56728e-05
0.000100207
0.000102969
0.000272266
0.000277663
0.00089717
0.00088733
3.5987e-05
3.68064e-05
0.201746
0.0102429
0.0418127
0.261333
0.000739187
0.0030517
0.201274
0.0101769
0.26269
0.0418588
0.000740359
0.00301828
0.000619012
0.000617733
0.000745885
0.00112297
0.000617733
0.000619012
0.000747365
0.00110122
0.697216
0.894947
0.696545
0.895106
0.999999
1
1
1.00001
1.00001
1
1.00001
1
1.00001
1
1
1
1
1.00001
1.00001
1.00001
1.00001
0.999997
1
0.999999
1
1
1
1
1
1
1
1
1
0.999999
1
1
1
1
1
1
1.00001
1
1
1
1
1
1
1
0.999997
1
1
1
1
0.999999
-9.20107e-48
6.85702e-14
1.63462e-10
6.23762e-06
0.000364
4.12401e-05
4.84523e-05
0.000151265
0.000172389
0.000335606
0.00041522
0.000820233
0.000197267
0.000327161
0.000399263
0.00085937
0.000192
1.41009e-05
1.4866e-05
0.000640209
0.000896599
0.000266854
0.000314393
0.000629569
0.00089542
0.000259293
0.000288254
1
1
1
1
1.00001
1.00001
1.00001
1.00001
1.00001
1.00001
1.00001
1
1.00001
1
1
1
1
1.00001
1.00001
1
1
0.999997
0.999997
0.999997
0.999997
0.999997
0.999999
1
1
1
1
1
1
1
1
1
1
-3.05554e-40
3.26979e-13
1.78406e-08
6.29127e-05
0.000630837
0.000170351
0.000739236
0.000748575
5.8841e-06
7.25226e-06
3.08808e-05
2.10976e-05
0.000185378
0.000297122
0.000817656
0.000102996
0.000181702
0.000278636
0.0008928
0.000100484
3.92948e-06
6.80777e-06
2.51315e-05
2.88108e-05
4.24702e-06
6.43044e-06
2.50126e-05
2.87475e-05
0.000587883
0.000896512
0.000569366
0.00089776
1
1
1
1
1.00001
1
1.00001
1
1.00001
1
1.00001
1
1
1
1
1.00001
1.00001
1.00001
1.00001
1
1
0.999999
0.999999
1.00001
1.00001
1
1
-6.20676e-38
3.49534e-13
5.88345e-07
0.000149776
0.00149033
0.000442206
0.000856944
0.00119622
3.94947e-06
1.16395e-05
6.03452e-06
3.94947e-06
1.40953e-05
3.92948e-06
4.2592e-06
1.1357e-05
6.9311e-06
4.2592e-06
2.02832e-05
4.24702e-06
0.000118132
5.43272e-05
8.80475e-05
0.000153544
0.000544327
4.6426e-05
8.89482e-05
0.000141588
0.000576059
4.458e-05
1.6129e-05
3.03373e-05
1.57394e-05
2.93626e-05
1
1
1
1.00001
1
1
1
1
1
1.00001
0.999999
1
0.999998
1
0.999994
0.999999
1
1
1
1.00001
1
1
1.00001
1.00001
1
0.999999
1.00001
1
0.999999
0.999998
1.00001
1
-7.84592e-36
1.13126e-10
2.14767e-06
5.39527e-05
0.000336293
4.27438e-09
4.38791e-09
0.00264129
0.0017345
0.000697527
0.00158264
3.92948e-06
3.0973e-05
2.20471e-05
1.09351e-05
4.93986e-05
3.94947e-06
4.24702e-06
3.4297e-05
3.46893e-05
5.14677e-06
6.70356e-05
4.2592e-06
0.000476384
0.000574148
0.000255285
0.000303772
3.16266e-05
0.000215244
3.06282e-05
9.45803e-05
1
1
1
1
1
1.00001
1
1.00001
1
1.00001
0.999994
0.999999
1
0.999994
0.999999
0.999997
1
1
1
1
1
1
0.999994
0.999999
0.999995
0.999997
1
1
1
1
1
0.999998
1
1
1.37015e-33
1.2831e-09
3.20571e-08
3.25564e-06
1.59778e-05
5.90265e-07
4.68793e-07
0.00162832
0.00473758
0.000945458
0.00140558
0.00329923
0.000831248
4.22413e-05
0.000578147
0.0037788
0.00222181
0.00453772
0.00184527
5.06671e-05
0.000422853
0.000149289
0.000129676
8.72933e-05
2.04554e-05
0.00101963
0.00338856
9.24063e-05
0.000512607
1
1
1.00001
1
1.00001
1
1.00001
1
1.00001
1
1.00001
1
1
1
1
1
1
1
1
1
1
1
1
0.999994
0.999996
0.999996
0.999999
1
1
1
1
1.23358e-13
7.17976e-10
2.41804e-08
1.96798e-07
2.69668e-07
1.61707e-07
4.78442e-07
0.00201001
0.00579772
7.47591e-05
0.000301688
0.000861004
7.92417e-06
0.000207166
0.00440572
0.00154414
0.00200726
0.00443156
0.00128321
5.51705e-08
6.15247e-08
3.09294e-08
7.93417e-07
1.02475e-07
6.86258e-08
4.38272e-05
1.72609e-05
0.00208046
0.00579361
0.000443271
0.00253038
1
1
1.00001
1
1.00001
1
1.00001
1
1.00001
1
1
1
1
1
1
1
1
1.00001
1
1
1
1
0.999999
1
1
1
1
1
1
4.70849e-12
1.02449e-10
3.36465e-16
2.29062e-09
1.66211e-09
8.72063e-15
4.07595e-18
4.06792e-18
5.78789e-09
5.97294e-09
4.44116e-08
9.09806e-09
1.65383e-08
8.40675e-08
0.00172399
0.00365357
1.58811e-06
2.94999e-05
1.55442e-06
1.12444e-06
0.0012579
0.00445293
0.000154375
0.00130691
0.000605268
0.000450078
2.99579e-08
3.09139e-07
1.68255e-08
4.72022e-07
0.999999
1
1.00001
1.00001
1.00001
1
1.00001
1
1
1
1
1
1
1.00001
1
1.00001
1.00001
1.00001
1.00001
1
1
1
1
1
1
1
1
1
1
1
1
6.77999e-14
1.15823e-15
1.52846e-13
2.47096e-16
6.46276e-13
2.62493e-14
4.06792e-18
6.5985e-18
8.97374e-12
3.60896e-09
6.24795e-09
5.92988e-09
3.09842e-08
1.29693e-10
1.30995e-31
8.41053e-29
2.0681e-08
1.06176e-30
1.41935e-07
1.62564e-08
1.31936e-07
5.58121e-12
5.81846e-30
3.99099e-32
1.09887e-06
9.64657e-08
3.30752e-06
1.712e-08
5.04404e-08
2.36157e-07
3.52376e-08
4.47389e-07
0.999998
1
1
1
1.00001
1.00001
1
1.00001
1
1
1
1.00001
1.00001
1.00001
1
1
1
1
1
1
1
1
1
1
1
1
1
1
1
1
2.46896e-16
7.16745e-18
5.16198e-15
1.3327e-12
-1.664e-31
4.57259e-17
8.08941e-13
3.37893e-12
2.27374e-14
6.30873e-18
7.33454e-18
1.64195e-18
1.02412e-10
7.21707e-11
2.00373e-08
1.11479e-08
1.84506e-09
3.66942e-11
-1.2366e-28
8.27555e-08
3.41441e-12
4.47866e-07
3.81612e-30
9.92767e-12
7.82007e-07
7.84307e-08
8.70229e-07
1.74217e-08
0.999996
0.999999
0.999999
1
1.00001
1
0.999999
1
1
1
1
1
1
1
1
1
1.00001
1
1.00001
1
1.00001
1.00001
1.00001
1.00001
1
1
1
1
1
1
1
1
7.3039e-22
1.2377e-15
1.24981e-15
1.91052e-17
8.27477e-19
3.2267e-18
1.22698e-20
-1.19976e-34
7.5741e-15
1.29689e-32
1.75897e-14
1.85138e-33
-9.38665e-36
2.61837e-34
3.3232e-17
2.61543e-15
1.95794e-17
4.62026e-18
1.53785e-35
1.84075e-12
4.69334e-13
3.76627e-13
3.95006e-13
1.23482e-32
2.10733e-13
2.40691e-14
1.26345e-15
-6.15118e-35
9.42458e-18
2.05323e-10
4.42347e-33
2.60742e-10
-1.08005e-31
1.40217e-11
5.20405e-13
7.86692e-11
1.20083e-12
0.999996
0.999995
0.999998
0.999999
1
1
1
1.00001
1.00001
1
0.999996
1
1
1
1
1
1
1
1.00001
1.00001
1
1
1
1.00001
1
1
1
1
1.44772e-20
2.37845e-14
4.60072e-15
5.59081e-16
2.91593e-18
1.26919e-17
2.56061e-20
4.33716e-15
2.07334e-17
1.58208e-29
5.25554e-14
1.02293e-17
1.23358e-17
1.22412e-14
1.76546e-15
4.48391e-15
1.35579e-16
9.88268e-17
2.87228e-14
1.02929e-14
3.06274e-14
3.05992e-13
1.04045e-13
1.1687e-12
1.35993e-29
2.67716e-17
9.63664e-17
4.77255e-15
2.99423e-14
1.41707e-14
6.19277e-17
6.78405e-16
4.62065e-14
7.55683e-16
6.39576e-15
0.999997
0.999998
0.999996
0.999997
0.999994
0.999989
0.999989
0.999993
1
0.999999
0.999999
1
1
0.999992
0.999998
1
1.00001
1
1
1.00001
1
0.999999
0.999999
1
0.999998
1
0.999997
0.999999
1
1
1
1
1
1.00001
1.00001
1.00001
1.00001
3.16995e-20
7.21136e-14
9.50914e-14
8.25608e-14
6.28089e-15
1.36817e-15
2.48647e-14
2.04315e-14
1.8785e-18
2.57895e-17
6.12901e-20
2.78717e-18
2.77089e-18
3.56708e-16
4.45206e-16
3.63095e-14
1.36931e-13
8.59555e-15
6.39148e-15
2.93933e-14
9.80603e-14
5.77496e-18
4.06218e-16
1.79166e-15
2.61019e-15
1.66736e-13
3.20695e-14
4.46623e-13
2.7426e-14
1.1134e-13
1.74587e-13
0.999998
0.999998
0.999997
1
0.999989
0.999986
0.999984
1
0.999993
0.999999
0.999997
0.999989
0.999997
1.00001
1
1
0.999998
0.999989
0.999998
1
0.999999
1
0.999989
0.999999
1
1
1
1
0.999997
1
0.99999
0.999998
1
1
1
1.26674e-23
2.98145e-20
2.27147e-22
7.23384e-14
1.40886e-13
1.71817e-13
1.5802e-13
1.59847e-13
1.86134e-17
2.27177e-17
3.73535e-14
2.60146e-14
1.60217e-14
5.37117e-14
6.52346e-20
6.64974e-14
2.75284e-13
2.49314e-13
2.95375e-14
9.80614e-14
1.44352e-13
2.28474e-13
1.61066e-12
1.13573e-12
1.3723e-13
4.96562e-13
2.64527e-13
0.999997
0.999997
0.999972
1
1
0.999985
1
1
0.999985
0.999987
0.999992
0.999993
0.999994
0.999989
0.999995
0.999995
0.999995
0.999989
0.999992
1
1
0.999998
1
1
1
1
1
0.999994
0.999999
1
1
7.54532e-30
-1.33688e-40
-2.76562e-43
7.32358e-26
-1.06198e-45
3.79596e-16
1.21187e-13
1.34436e-13
1.52605e-13
6.38593e-14
1.6288e-13
1.28377e-13
2.46798e-22
9.74513e-19
2.04809e-16
8.32215e-18
4.97257e-17
8.17676e-17
7.15199e-13
1.24931e-13
9.18346e-23
6.99913e-13
1.29024e-13
5.27091e-12
7.39823e-13
0.999998
0.999992
0.999985
0.999972
0.999993
0.999988
0.999988
0.999993
0.999993
1
1
1
1
0.999992
0.999992
1
1
0.999999
1
1
0.999999
1
0.999996
1
1
1
1
4.63536e-31
1.98198e-32
3.65042e-38
5.95446e-33
8.28038e-35
-7.8133e-43
1.50187e-29
1.059e-20
3.63698e-15
-3.85247e-41
3.25491e-42
3.88558e-23
1.18917e-13
4.13347e-14
1.03174e-13
3.32036e-14
3.29364e-13
4.60608e-14
2.03734e-21
8.24156e-18
4.09757e-43
7.39929e-45
3.55064e-23
4.60657e-16
8.33844e-18
8.32215e-18
4.46717e-16
4.17872e-12
2.8657e-13
1
0.999994
0.999985
0.999984
0.999978
0.999987
0.999996
0.999997
0.999996
0.999997
0.999996
0.999997
0.999989
1
1
1
1
1
1
0.999987
0.99999
1
1
1
1
1.36488e-29
4.16971e-38
5.21759e-28
3.65042e-38
5.19317e-30
7.63557e-30
2.82635e-28
1.27612e-30
2.64052e-31
-7.55099e-42
2.45334e-40
2.0182e-29
1.26249e-21
4.05259e-23
1.97159e-29
1.50373e-15
1.71246e-26
4.41623e-43
1.75535e-44
8.5e-14
1.42901e-14
4.14128e-14
2.98712e-14
1.97159e-29
3.59869e-22
1.41652e-23
2.0182e-29
2.31709e-18
7.9924e-26
2.31606e-43
-5.0757e-45
6.91954e-16
8.32215e-18
8.33844e-18
6.79517e-16
0.999999
0.999995
0.999999
0.999984
0.999993
0.999982
0.999985
1
1
1
1
1
0.999999
0.999999
0.999999
1
1
1
1
1
1
1
1
1
1
1
1
1
1
1.36673e-29
-1.82015e-40
1.46513e-40
-1.40333e-43
-4.63808e-41
2.38884e-29
1.14319e-25
4.05639e-32
3.51873e-27
8.82798e-27
8.4597e-25
1.39222e-28
1.2986e-28
5.04238e-27
2.6214e-27
8.02003e-27
1.47079e-27
1.12091e-27
1.28306e-27
9.63552e-28
9.65644e-29
1.15435e-26
3.87699e-26
5.50237e-26
1.29882e-26
4.22208e-27
6.43814e-25
1.97284e-25
6.77818e-27
0.999999
1
1
0.999991
0.999976
0.999982
0.999984
0.999994
0.999992
0.999998
1
1
1
1
0.999998
1
1
1
1
1
1
1
1
1
1
1
0.999996
1
1
1
1
1
1
1
1
5.41472e-20
5.06243e-17
1.45138e-21
2.09885e-22
1.56118e-24
3.22537e-22
8.96597e-26
6.61288e-25
3.19718e-28
4.36651e-26
8.11626e-25
1.66007e-27
1.11465e-27
2.99163e-24
2.97733e-23
7.42834e-25
7.46743e-23
2.43191e-23
1.07497e-27
2.45446e-26
2.48126e-26
1.44406e-27
1.46504e-28
5.72952e-47
1.15318e-26
1.92342e-28
1.33683e-26
3.43421e-27
1.08992e-26
1.07563e-26
2.90926e-27
1.10049e-25
1.76138e-26
5.54088e-27
0.999994
1
1
0.999977
0.999986
0.999996
0.999988
0.999995
0.999987
1
1
1
1
0.999998
1
1
0.999978
0.999998
1
1
0.999984
1
1
1
1
1
1
1
0.999997
4.59818e-16
6.70319e-31
3.70271e-17
2.34672e-30
3.03157e-17
3.5823e-12
1.13007e-18
4.68194e-19
3.91168e-21
4.0178e-19
9.63432e-26
2.28314e-24
9.74589e-24
3.91056e-26
3.38439e-28
-4.13368e-43
2.16477e-46
-1.32859e-43
9.67539e-28
1.55137e-46
4.57135e-26
1.94196e-29
4.81895e-29
1.87295e-26
1.27783e-44
4.07248e-30
7.6096e-24
1.29638e-26
4.50202e-27
2.50835e-23
4.55412e-22
5.43453e-21
1.60168e-21
1.32068e-21
1.11725e-26
3.26727e-24
6.71352e-25
3.81433e-26
4.14211e-27
2.35169e-25
1.38933e-25
1.16311e-26
0.999993
0.999988
0.999978
0.999989
0.999966
0.999978
0.999987
0.999965
0.999983
0.999978
1
1
1
0.999997
0.999999
0.999999
1
0.999983
1
1
1
0.999999
0.999999
0.999993
1
0.999975
0.999991
0.999997
1
0.999978
0.99999
0.999999
1
0.999975
4.44123e-11
9.78731e-19
1.85873e-19
1.08092e-18
1.81839e-19
1.64622e-12
8.14127e-14
1.08978e-12
6.58215e-14
9.75511e-10
4.0202e-17
7.8794e-20
2.41293e-17
1.0051e-17
3.36812e-16
8.80966e-20
7.74143e-20
7.74143e-20
2.02537e-19
1.84606e-26
1.68386e-19
1.94015e-21
1.55524e-19
3.98599e-20
2.48119e-17
4.32229e-20
6.86466e-25
4.64363e-22
1.47515e-22
1.2793e-24
1.26141e-27
-2.57486e-46
7.75858e-47
3.20979e-27
2.20893e-27
3.09404e-26
9.59491e-26
2.40635e-28
1.41415e-28
-3.34055e-45
2.01572e-47
4.03396e-30
0.999977
0.999988
0.999996
0.999999
0.999992
0.999997
0.999965
0.999995
0.999976
1
1
1
1
1
0.999999
0.999998
1
0.999998
1
0.999998
1
0.999999
1
1
1
1
0.999999
1
1
0.999992
0.999992
1
0.999999
0.999977
0.999999
1
1
0.999997
0.99999
0.999991
0.999999
0.999972
6.70929e-11
6.49428e-09
1.15726e-16
1.92647e-19
1.84533e-16
2.63038e-19
2.58198e-10
1.59685e-13
4.87952e-11
7.63008e-11
2.24684e-11
6.16943e-14
1.3276e-14
6.5323e-14
2.75683e-12
2.91686e-12
1.88471e-10
1.95447e-16
3.08896e-11
7.17639e-11
2.01814e-11
7.65339e-17
1.50093e-14
8.74863e-14
3.02316e-12
2.87951e-12
6.14047e-09
5.65943e-15
5.73866e-17
7.35756e-17
1.00478e-13
7.47814e-13
6.36374e-12
8.95246e-19
4.35824e-19
8.23006e-19
1.34094e-18
2.95409e-17
2.33023e-19
-7.9384e-34
-3.41662e-32
-1.29809e-30
-1.30232e-32
-6.82017e-36
-1.12078e-31
-1.95184e-48
-7.2228e-45
0.999986
0.999987
0.999998
0.999997
0.999996
0.999991
1
0.999999
1
0.999998
0.999986
0.999976
0.999982
0.999983
1
1
1
1
1
1
1
1
1
0.999998
1
1
1
1
1
1
1
0.99999
1
0.999996
1
0.999999
1
0.999999
1
1
1
1
4.95524e-09
9.04207e-29
6.95976e-13
4.8429e-29
5.64374e-13
6.21522e-08
1.8382e-15
2.35553e-18
6.09478e-15
1.10305e-17
8.30667e-11
3.52887e-09
2.10205e-12
5.47703e-10
6.55687e-10
1.88476e-10
3.05163e-14
1.23689e-13
2.39336e-11
1.24559e-11
4.30414e-37
2.99737e-09
-5.04469e-33
3.50695e-10
1.09133e-09
2.40661e-10
1.14308e-13
4.16052e-13
5.12393e-11
2.27456e-11
2.49537e-09
9.29579e-14
-1.61349e-31
-4.28818e-45
7.2593e-12
2.0696e-11
8.20028e-10
1.01799e-18
1.0495e-18
8.19153e-19
1.35366e-18
0
4.0499e-19
0.999994
0.999981
0.999996
0.999997
0.999999
0.999997
0.999999
0.999999
0.999999
1
0.999992
0.999999
1
0.999996
1
0.999999
1
0.999997
0.999992
1
0.999987
0.999999
1
0.999994
1
0.999998
1
0.999997
0.99999
0.999993
0.999996
1
0.999997
1
1
1
1
1
1
1
0.999999
1
1
1
1
1
1
1.22464e-06
1.03235e-12
7.34712e-13
8.74753e-13
7.35832e-13
2.4857e-16
4.62689e-14
1.92688e-16
4.69887e-14
1.96009e-07
3.31966e-32
9.01046e-15
1.82259e-14
1.83402e-16
1.33047e-20
-9.64909e-37
1.25707e-38
3.62767e-19
2.09938e-18
1.94162e-13
1.65732e-13
4.94283e-16
3.25929e-20
-8.89573e-36
1.69454e-21
1.10343e-18
2.01893e-09
1.90215e-26
3.49036e-14
4.10212e-13
3.59901e-14
7.72663e-12
4.7641e-26
5.03491e-27
9.76007e-12
4.77689e-12
1.52523e-10
6.0606e-11
1.64191e-10
0.999999
0.999981
0.999985
0.999999
0.999998
0.999998
0.99999
1
1
1
1
1
0.999999
1
1
0.999987
0.999997
0.999996
0.999998
0.999996
0.999999
0.999997
0.999993
0.999999
1
0.999987
0.999995
0.999986
0.999998
0.999986
0.999998
1
1
0.999999
1
1
1
1
1
1
1
1
0.999999
0.000143626
8.36978e-06
4.66726e-10
5.02212e-06
2.90603e-09
7.5771e-06
2.79798e-20
4.97685e-20
2.69792e-20
1.51838e-16
1.01049e-16
-1.83539e-38
-6.70236e-32
5.18166e-30
5.62285e-32
3.14005e-17
2.51102e-20
1.12281e-50
2.60368e-20
9.96751e-17
4.73674e-17
1.07377e-37
-5.98599e-32
3.10875e-29
1.29939e-31
6.9732e-18
5.99114e-08
-8.92978e-33
-2.77771e-42
1.15323e-31
5.42274e-48
4.69383e-20
5.6763e-20
2.03371e-18
-7.88008e-43
3.33821e-15
1.13218e-46
1.174e-20
3.41203e-20
6.13771e-13
1
0.999989
0.999981
0.99999
0.999986
0.99999
0.999979
1
0.999999
1
0.999998
1
0.999992
0.999998
0.999999
1
1
1
1
1
0.999998
0.999999
1
1
1
1
1
1
1
0.999997
0.999997
0.999997
0.999996
0.999993
0.999999
0.999994
0.999997
0.999988
0.999995
0.000159332
0.00109083
0.00143531
0.00121076
0.00147414
4.5633e-06
2.28003e-07
0.000225556
9.29722e-07
0.000293686
5.3551e-19
2.69792e-20
1.15723e-18
2.60368e-20
1.26785e-17
3.12832e-16
5.27967e-16
2.82009e-12
2.01245e-16
1.08425e-33
1.19828e-19
2.42405e-20
4.61378e-19
2.51102e-20
5.3741e-18
3.48548e-17
8.52121e-16
1.88318e-11
1.79634e-17
3.05404e-35
2.04372e-09
3.61339e-19
1.50101e-19
1.15489e-20
9.31367e-20
2.83466e-15
1
0.999998
0.999981
0.999986
0.999997
0.999984
0.999997
0.999984
1
1
1
1
1
1
1
1
1
1
0.999999
0.999999
1
1
1
1
1
1
1
1
1
0.999992
0.999996
0.999999
1
1
1
0.999999
0.999997
1
1
1
0.00114177
9.33173e-05
0.00327877
0.00168842
0.003268
0.0015085
4.32352e-07
-3.71924e-21
-1.19771e-25
7.56454e-09
3.76086e-05
0.00245253
2.81589e-21
5.89733e-08
4.73312e-08
0.000127736
0.00273279
6.44067e-18
7.38458e-16
1.1409e-34
2.66353e-11
3.18637e-17
4.12369e-22
4.81384e-37
3.68133e-17
5.81692e-55
1.28319e-10
-8.20706e-39
-3.1347e-34
7.88315e-12
3.01151e-18
1
1
0.999992
0.999992
0.999993
1
0.999992
0.999988
1
1
1
1
1
0.999999
1
1
1
1
1
1
1
1
0.999999
0.999998
1
1
1
1
1
1
1
1
1
1
1
1
0.000283599
0.000164394
0.000541899
0.000160739
0.000537019
1.43877e-05
0.00133509
0.000245083
0.000932437
0.000189066
2.3262e-09
0.00066513
6.60856e-07
4.85762e-25
0.000287967
0.00327605
0.00680489
0.00297168
0.00772141
0.000789352
1.44665e-05
-3.45294e-24
0.000553177
0.00282884
0.00636758
0.00291429
0.00791764
-5.28105e-36
-1.62061e-32
-1.71233e-37
3.08386e-34
7.80735e-15
2.1678e-23
1
1
0.999999
0.999997
0.999992
1
1
0.999998
0.999997
0.999999
1
1
0.999999
0.99999
1
1
1
1
0.99999
1
1
1
1
1
1
1
1
1
1
1
1
0.000130041
1.04304e-05
3.01146e-05
0.000124938
2.93534e-05
0.000123266
1.51158e-07
2.21779e-05
0.000328175
0.000668605
2.21792e-05
0.00342951
0.00537566
2.21803e-05
0.00263815
0.00424948
2.21791e-05
0.000191989
0.000591324
2.21664e-05
2.21807e-05
8.78337e-13
0.00390129
3.54851e-05
-7.05613e-24
0.00180603
0.00469881
0.00822875
0.00410582
0.000197296
-6.97559e-23
0.00223205
0.00433824
0.00824915
5.08746e-19
4.27607e-25
1
1
1
1
0.999989
0.999994
0.999993
0.999994
0.999991
1
0.999999
1
0.999997
1
1
1
1
1
1
1
1
1
1
1
1
1
1
1
1
1
1
1
1
8.60581e-05
3.94341e-05
5.34323e-18
3.94612e-05
6.89919e-19
1.46543e-07
3.8209e-05
6.70937e-05
3.84803e-05
6.7139e-05
2.01311e-10
7.48091e-05
0.000271408
0.00155961
0.000746713
0.00235179
2.90987e-05
2.21826e-05
2.21822e-05
2.21822e-05
2.2179e-05
0.00136183
0.00238926
6.82872e-05
0.000167953
0.00067443
2.21802e-05
2.21839e-05
2.21811e-05
2.21811e-05
2.218e-05
5.24401e-17
0.00742295
0.00404165
0.00735142
0.00412106
1.89453e-19
1.25734e-23
1
1
1
1
0.999993
0.999986
0.999995
0.999993
0.999995
0.999993
1
1
1
1
1
1
0.999997
1
1
1
1
1
0.999996
0.999987
1
1
1
1
1
1
1
1
1
1
1
1
0.0382125
0.00169445
0.00419921
0.0161563
0.00419673
0.0161573
6.92678e-07
3.74502e-05
3.4044e-05
0.000422552
8.21082e-05
0.000215466
0.000236502
0.00147916
3.68776e-05
3.41149e-05
0.000423895
8.07536e-05
0.000212642
0.000231646
0.00147664
5.28665e-17
0.000152386
2.21832e-05
2.93789e-05
4.02442e-05
0.000140761
2.21756e-05
2.8703e-05
4.12059e-05
4.90668e-15
2.76818e-18
3.42958e-23
1
1
1
1
0.999999
0.999981
0.999982
0.999992
0.999987
0.999985
0.999993
0.999996
0.999998
0.999996
1
1
1
1
1
1
0.999998
1
0.999998
1
1
1
1
1
1
0.999994
0.999972
0.999999
0.999994
1
1
1
1
1
0.631876
0.176551
0.00816551
0.0584164
0.224389
0.0584511
0.224345
4.29467e-05
4.04613e-05
0.000123972
0.000901355
0.000305453
0.00118383
0.000532966
0.00128076
0.00256241
0.00126751
0.00124295
3.72429e-05
0.000117667
0.000893645
0.000299837
0.00117212
0.000523448
0.00127561
0.00257008
0.00126719
0.00124385
4.45507e-09
1.73635e-13
1.09707e-17
2.92643e-23
1
1
1
1
1
0.999987
0.99998
0.999982
0.999994
0.999987
0.999993
0.999989
0.999999
0.999998
0.999981
0.999998
0.999983
0.999982
0.999967
0.999993
0.999998
0.999999
0.999998
0.999994
0.999982
1
1
0.999989
1
1
0.999984
0.999982
0.999996
0.889489
0.494231
0.494259
0.950024
0.980269