/*--------------------------------*- C++ -*----------------------------------*\
| =========                 |                                                 |
| \\      /  F ield         | OpenFOAM: The Open Source CFD Toolbox           |
|  \\    /   O peration     | Version:  5.x                                   |
|   \\  /    A nd           | Web:      www.OpenFOAM.org                      |
|    \\/     M anipulation  |                                                 |
\*---------------------------------------------------------------------------*/
FoamFile
{
    version     2.0;
    format      ascii;
    class       surfaceScalarField;
    location    "0.7";
    object      alphaPhi10;
}
// * * * * * * * * * * * * * * * * * * * * * * * * * * * * * * * * * * * * * //

dimensions      [0 3 -1 0 0 0 0];

internalField   nonuniform List<scalar> 
30582
(
0.000292644
1.01899e-07
0.000289386
3.2583e-06
0.000291527
1.3564e-06
0.000281811
7.57494e-06
0.000288058
6.72694e-06
0.000289882
4.33204e-06
0.000272131
9.67986e-06
0.000281395
1.4238e-05
0.000287926
8.68314e-06
0.000285009
1.22912e-05
0.000257641
1.44905e-05
0.000272384
1.86912e-05
0.000283125
1.90386e-05
0.000282072
1.16201e-05
0.000279539
2.58632e-05
0.000237905
1.97361e-05
0.000258444
2.84303e-05
0.000274587
2.72294e-05
0.000280478
2.06326e-05
0.000281161
9.99809e-06
0.000266803
5.23593e-05
0.000213468
2.44371e-05
0.000238776
3.94038e-05
0.000260947
4.20708e-05
0.000274701
3.30066e-05
0.000283688
1.81049e-05
0.000268105
8.69592e-06
0.00025866
8.72182e-05
0.000186728
2.67395e-05
0.00021407
4.91435e-05
0.000240824
5.95268e-05
0.000262899
5.38728e-05
0.000279877
3.68185e-05
0.000277613
8.59623e-06
0.000266929
4.26866e-07
0.000230074
0.000150916
0.000159673
2.70554e-05
0.00018694
5.38696e-05
0.000215346
7.46216e-05
0.000242964
7.9462e-05
0.00026893
6.48198e-05
0.000280172
3.42594e-05
0.000283524
-7.99881e-06
0.000238438
-7.16345e-06
0.000114745
-4.18996e-06
0.000133984
2.56883e-05
0.000159534
5.44615e-05
0.000187326
8.18891e-05
0.000216734
0.000100851
0.000247949
0.000100442
0.00027245
7.25424e-05
0.00028899
2.87935e-05
0.000270746
-3.59774e-05
0.000159093
-1.19358e-05
-9.5629e-06
2.4514e-07
0.000110727
2.32574e-05
0.000133598
5.16242e-05
0.000159177
8.2611e-05
0.000187591
0.000111031
0.000219866
0.000128935
0.000251827
0.000121065
0.000281342
8.01908e-05
0.000291999
7.79145e-06
0.000214668
-2.58294e-05
7.64097e-06
-1.78637e-07
-3.42487e-10
1.84714e-10
9.03888e-05
2.03383e-05
0.000110196
4.66594e-05
0.000132729
7.80718e-05
0.000158435
0.000111767
0.000188667
0.00014223
0.000222008
0.000158753
0.000259213
0.000143194
0.000289802
8.23874e-05
0.000253962
-1.43508e-05
3.21717e-05
-4.46734e-07
1.18631e-08
-9.05064e-11
1.0683e-11
1.49969e-15
7.30546e-05
1.73341e-05
8.97957e-05
4.07383e-05
0.000109044
7.03438e-05
0.000131298
0.000105209
0.000157861
0.000142573
0.000188551
0.000175688
0.000226191
0.000191776
0.000268238
0.000164759
0.000256615
2.37628e-05
6.44349e-05
-8.73255e-07
1.10481e-07
-4.38016e-10
3.8141e-12
-2.49858e-15
4.64327e-17
1.14154e-20
5.85591e-05
1.44955e-05
7.24591e-05
3.46708e-05
8.85401e-05
6.12427e-05
0.00010724
9.44017e-05
0.000129651
0.000133419
0.000155888
0.000175236
0.00018942
0.000212458
0.000231404
0.00022861
0.000225521
5.35913e-05
7.54827e-05
-9.26465e-08
6.80951e-07
-1.86806e-09
6.17703e-12
-1.98883e-14
6.75586e-18
-4.72845e-20
3.55372e-21
-1.0844e-25
4.66013e-05
1.19578e-05
5.79987e-05
2.89559e-05
7.12173e-05
5.19935e-05
8.66079e-05
8.18752e-05
0.000105016
0.000119036
0.000126533
0.000162775
0.000154307
0.00021035
0.000190422
0.00025344
0.00017997
6.52711e-05
6.63985e-05
2.51547e-06
1.63219e-06
-2.86307e-09
-1.38962e-11
-1.68725e-13
-7.40136e-16
-3.33265e-19
1.45922e-21
-7.39665e-25
-1.03515e-26
3.68245e-05
9.77686e-06
4.60964e-05
2.38601e-05
5.6842e-05
4.33313e-05
6.93234e-05
6.9278e-05
8.4171e-05
0.000102721
0.000101351
0.000144218
0.000123605
0.000193476
0.000152078
0.000248693
0.000135312
5.72793e-05
4.20853e-05
2.90327e-06
1.74048e-06
9.06516e-09
2.69154e-12
-4.20176e-13
-2.54186e-14
-3.48159e-18
-1.03716e-20
-4.97567e-24
-9.74576e-27
2.88693e-05
7.95515e-06
3.63843e-05
1.9489e-05
4.50624e-05
3.56396e-05
5.50871e-05
5.75676e-05
6.69117e-05
8.65374e-05
8.03894e-05
0.000123682
9.7881e-05
0.000169942
0.000119253
0.000226302
9.99118e-05
4.13286e-05
2.3042e-05
1.67968e-06
6.70947e-07
1.53203e-08
1.05739e-10
2.51543e-12
-1.48952e-13
-9.13887e-18
-4.50998e-19
-6.4301e-23
-6.50127e-26
2.23993e-05
6.47006e-06
2.84963e-05
1.58431e-05
3.54887e-05
2.90628e-05
4.34994e-05
4.72273e-05
5.28421e-05
7.16373e-05
6.32908e-05
0.000103636
7.68793e-05
0.000144684
9.23343e-05
0.00019686
7.3407e-05
2.63621e-05
1.16238e-05
6.95023e-07
1.38329e-07
4.64797e-09
3.87652e-11
3.60956e-12
-8.26876e-14
7.49325e-17
-2.80388e-18
-1.88074e-22
-3.1447e-24
1.71112e-05
5.28801e-06
2.20918e-05
1.28746e-05
2.77413e-05
2.35904e-05
3.41386e-05
3.84236e-05
4.14951e-05
5.85742e-05
4.95413e-05
8.53868e-05
6.00156e-05
0.0001205
7.0849e-05
0.000166169
5.39753e-05
1.54448e-05
5.41545e-06
2.39747e-07
2.60823e-08
7.89697e-10
7.75381e-12
5.19197e-13
-5.53276e-15
1.0553e-16
-1.59761e-18
2.08743e-21
-2.28421e-23
1.27407e-05
4.37057e-06
1.68654e-05
1.05144e-05
2.14715e-05
1.91444e-05
2.66053e-05
3.11238e-05
3.24049e-05
4.75139e-05
3.85911e-05
6.95244e-05
4.66292e-05
9.87733e-05
5.40108e-05
0.000137338
3.97509e-05
8.50458e-06
2.29764e-06
7.40998e-08
4.69001e-09
1.0897e-10
1.25633e-12
3.42703e-14
-5.83895e-17
1.37678e-17
-9.7761e-20
2.90979e-21
-1.27244e-23
9.05725e-06
3.68343e-06
1.25513e-05
8.68469e-06
1.637e-05
1.56159e-05
2.05391e-05
2.52106e-05
2.51449e-05
3.83837e-05
2.99206e-05
5.61844e-05
3.60836e-05
8.00699e-05
4.09874e-05
0.000111797
2.93575e-05
4.46489e-06
8.94704e-07
2.06344e-08
8.21852e-10
1.34408e-11
1.46513e-13
3.32475e-15
1.02165e-17
9.74607e-19
-1.16819e-21
3.64223e-22
-7.34656e-25
5.8634e-06
3.19384e-06
8.91961e-06
7.3151e-06
1.21701e-05
1.28846e-05
1.56263e-05
2.05287e-05
1.93399e-05
3.10156e-05
2.30705e-05
4.52338e-05
2.7812e-05
6.4456e-05
3.10048e-05
9.00526e-05
2.17488e-05
2.2671e-06
3.24085e-07
5.27892e-09
1.40391e-10
1.4878e-12
1.44063e-14
3.2883e-16
1.86641e-18
9.14884e-20
1.84306e-22
2.9121e-23
-4.16136e-27
2.98806e-06
2.87534e-06
5.77417e-06
6.33928e-06
8.64357e-06
1.08417e-05
1.15992e-05
1.69118e-05
1.46695e-05
2.51991e-05
1.76484e-05
3.64377e-05
2.13327e-05
5.17132e-05
2.33922e-05
7.20686e-05
1.61594e-05
1.12814e-06
1.11535e-07
1.26286e-09
2.39551e-11
1.4695e-13
1.46214e-15
2.96567e-17
1.79167e-19
7.46868e-21
2.61783e-23
2.35366e-24
1.99532e-27
2.83337e-07
2.70473e-06
2.94543e-06
5.70407e-06
5.59638e-06
9.38647e-06
8.23123e-06
1.42096e-05
1.08645e-05
2.07167e-05
1.33275e-05
2.952e-05
1.62447e-05
4.15257e-05
1.75957e-05
5.75097e-05
1.20288e-05
5.58018e-07
3.71727e-08
2.91414e-10
4.12693e-12
2.53546e-14
2.12354e-16
2.98216e-18
1.82196e-20
5.81463e-22
2.14004e-24
1.61748e-25
1.98054e-28
-2.38355e-06
2.66689e-06
2.86514e-07
5.36364e-06
2.8611e-06
8.43935e-06
5.33124e-06
1.22864e-05
7.7008e-06
1.73734e-05
9.83879e-06
2.42054e-05
1.22213e-05
3.35434e-05
1.31706e-05
4.59507e-05
8.95384e-06
2.78765e-07
1.22777e-08
6.69462e-11
7.33039e-13
4.4992e-15
3.9333e-17
4.31987e-19
2.48064e-21
5.72643e-23
2.00634e-25
1.14071e-26
1.4092e-29
-5.13304e-06
2.74949e-06
-2.33461e-06
5.28801e-06
2.93164e-07
7.93157e-06
2.73547e-06
1.10351e-05
4.99047e-06
1.49968e-05
6.9622e-06
2.02499e-05
8.99734e-06
2.74294e-05
9.76838e-06
3.69456e-05
6.64227e-06
1.4374e-07
4.16564e-09
1.58623e-11
1.36766e-13
7.94728e-16
5.90551e-18
6.01228e-20
3.36112e-22
6.51807e-24
2.25189e-26
1.00598e-27
1.16582e-30
-8.07873e-06
2.94568e-06
-5.03769e-06
5.45256e-06
-2.23739e-06
7.81857e-06
3.02803e-07
1.03642e-05
2.57433e-06
1.34513e-05
4.5156e-06
1.74434e-05
6.35865e-06
2.28886e-05
7.11566e-06
3.00821e-05
4.8856e-06
7.85516e-08
1.50084e-09
4.15636e-12
2.73979e-14
1.48744e-16
9.03281e-19
8.39023e-21
3.98855e-23
7.09538e-25
2.23821e-27
9.01206e-29
1.0169e-31
-1.13297e-05
3.25099e-06
-7.93576e-06
5.84375e-06
-4.84837e-06
8.06354e-06
-2.09306e-06
1.02144e-05
3.15931e-07
1.26226e-05
2.34683e-06
1.562e-05
4.1298e-06
1.96722e-05
5.0011e-06
2.50032e-05
3.52996e-06
4.69333e-08
5.91769e-10
1.29287e-12
6.30775e-15
3.286e-17
1.58619e-19
1.29363e-21
5.08858e-24
7.96326e-26
2.12738e-28
7.78305e-30
7.69904e-33
-1.49919e-05
3.66217e-06
-1.1137e-05
6.45223e-06
-7.65059e-06
8.64597e-06
-4.56667e-06
1.05372e-05
-1.9061e-06
1.24365e-05
3.26915e-07
1.46426e-05
2.16533e-06
1.75845e-05
3.25616e-06
2.14172e-05
2.46285e-06
3.13437e-08
2.61957e-10
5.15673e-13
1.74838e-15
9.62674e-18
3.63886e-20
2.56634e-22
8.14162e-25
1.051e-26
2.34231e-29
7.20664e-31
5.99979e-34
-1.91679e-05
4.17605e-06
-1.47462e-05
7.27139e-06
-1.07506e-05
9.55224e-06
-7.22564e-06
1.13049e-05
-4.20218e-06
1.28332e-05
-1.65752e-06
1.44209e-05
3.4288e-07
1.6465e-05
1.74422e-06
1.90964e-05
1.5928e-06
2.36449e-08
1.26794e-10
3.04265e-13
5.16394e-16
4.17813e-18
1.11806e-20
7.3839e-23
1.80101e-25
1.92997e-27
3.47461e-30
8.36229e-32
5.79882e-35
-2.39573e-05
4.78934e-06
-1.88656e-05
8.2954e-06
-1.42517e-05
1.07725e-05
-1.01737e-05
1.25003e-05
-6.6757e-06
1.37785e-05
-3.71041e-06
1.48861e-05
-1.44455e-06
1.62083e-05
3.57694e-07
1.78515e-05
8.53088e-07
1.97566e-08
6.57364e-11
2.36351e-13
8.1184e-17
2.60445e-18
4.10563e-21
3.21277e-23
5.2102e-26
5.29501e-28
7.2397e-31
1.41379e-32
7.84488e-36
-2.94549e-05
5.49769e-06
-2.35947e-05
9.51848e-06
-1.82553e-05
1.2299e-05
-1.35125e-05
1.41113e-05
-9.4271e-06
1.52517e-05
-5.92837e-06
1.59964e-05
-3.29505e-06
1.67366e-05
-9.94906e-07
1.75609e-05
1.82123e-07
1.80228e-08
3.04532e-11
2.10208e-13
-9.24097e-17
2.05926e-18
1.53156e-21
1.95269e-23
1.75284e-26
2.18512e-28
1.98649e-31
3.56739e-33
1.48681e-36
-3.57501e-05
6.29513e-06
-2.90298e-05
1.09328e-05
-2.28619e-05
1.4125e-05
-1.7343e-05
1.61294e-05
-1.25559e-05
1.72402e-05
-8.4066e-06
1.773e-05
-5.29993e-06
1.80013e-05
-2.40078e-06
1.81425e-05
-4.75438e-07
1.77189e-08
4.59632e-12
2.01548e-13
-1.22097e-16
1.90096e-18
4.03508e-22
1.55725e-23
5.56657e-27
1.28161e-28
6.69702e-32
1.37306e-33
3.75186e-37
-4.29262e-05
7.17606e-06
-3.52621e-05
1.25274e-05
-2.81696e-05
1.62405e-05
-2.17662e-05
1.85483e-05
-1.61624e-05
1.9736e-05
-1.12416e-05
2.00751e-05
-7.54973e-06
1.99798e-05
-3.93797e-06
1.95385e-05
-1.16071e-06
1.86833e-08
-2.11972e-11
2.00746e-13
-6.78346e-17
1.88064e-18
-8.66016e-23
1.47102e-23
5.21844e-28
1.01932e-28
2.41672e-32
7.74412e-34
1.21579e-37
-5.1055e-05
8.12877e-06
-4.23775e-05
1.42914e-05
-3.42728e-05
1.86306e-05
-2.68828e-05
2.13571e-05
-2.03488e-05
2.27346e-05
-1.4532e-05
2.30264e-05
-1.01373e-05
2.26627e-05
-5.68802e-06
2.17298e-05
-1.92178e-06
2.11444e-08
-5.3961e-11
2.05954e-13
4.9843e-18
1.8918e-18
-2.77737e-22
1.48936e-23
-1.50573e-27
9.72423e-29
6.3039e-33
6.09912e-34
4.3085e-38
-6.01965e-05
9.14153e-06
-5.04504e-05
1.62016e-05
-4.1261e-05
2.12796e-05
-3.27907e-05
2.45385e-05
-2.52182e-05
2.62265e-05
-1.83803e-05
2.65829e-05
-1.31585e-05
2.60476e-05
-7.74265e-06
2.47174e-05
-2.79985e-06
2.58217e-08
-1.05463e-10
2.21578e-13
1.9066e-17
1.91726e-18
-4.27954e-22
1.51141e-23
-1.65474e-27
9.97477e-29
-1.94486e-33
5.83146e-34
1.03714e-38
-7.03874e-05
1.01909e-05
-5.95436e-05
1.82348e-05
-4.92132e-05
2.41539e-05
-3.95849e-05
2.80738e-05
-3.08734e-05
3.01937e-05
-2.28924e-05
3.07386e-05
-1.67141e-05
3.01385e-05
-1.01965e-05
2.85014e-05
-3.83994e-06
3.43212e-08
-2.00291e-10
2.59458e-13
-8.84171e-17
2.00881e-18
-8.18773e-22
1.52346e-23
-1.4007e-27
1.01899e-28
-5.28848e-33
6.03061e-34
-4.74245e-39
-8.16413e-05
1.12539e-05
-6.96973e-05
2.03447e-05
-5.81984e-05
2.722e-05
-4.73517e-05
3.19207e-05
-3.74163e-05
3.46166e-05
-2.81764e-05
3.54777e-05
-2.09097e-05
3.49342e-05
-1.31539e-05
3.30958e-05
-5.09256e-06
4.95188e-08
-3.94604e-10
3.45383e-13
-3.88147e-16
2.2955e-18
-1.72905e-21
1.57311e-23
-2.50718e-27
1.02817e-28
-7.80474e-33
6.19508e-34
-9.86553e-39
-9.3943e-05
1.23017e-05
-8.09292e-05
2.24858e-05
-6.82639e-05
3.04102e-05
-5.6169e-05
3.60373e-05
-4.49426e-05
3.9447e-05
-3.43426e-05
4.07828e-05
-2.5855e-05
4.04231e-05
-1.67296e-05
3.85099e-05
-6.61325e-06
7.62482e-08
-8.17594e-10
6.35363e-13
-1.09461e-15
3.04132e-18
-3.70381e-21
1.77828e-23
-6.42375e-27
1.05872e-28
-1.43672e-32
6.27529e-34
-1.30453e-38
1.32963e-05
-0.000107239
-9.32286e-05
2.46011e-05
-7.9436e-05
3.3658e-05
-6.60957e-05
4.03368e-05
-5.35428e-05
4.46376e-05
-4.14992e-05
4.66035e-05
-3.16648e-05
4.65925e-05
-2.10484e-05
4.47419e-05
-8.46665e-06
1.22669e-07
-1.79862e-09
1.42239e-12
-3.02929e-15
4.97816e-18
-8.11248e-21
2.37599e-23
-1.54886e-26
1.19957e-28
-2.96952e-32
6.48094e-34
-2.4445e-38
2.66157e-05
-0.000106548
3.46898e-05
-0.000141929
-9.17139e-05
3.6879e-05
-7.71717e-05
4.4734e-05
-6.3291e-05
5.00851e-05
-4.97524e-05
5.28908e-05
-3.8455e-05
5.33937e-05
-2.62453e-05
5.17895e-05
-1.07279e-05
2.0197e-07
-4.10731e-09
3.65631e-12
-9.20004e-15
1.07184e-17
-1.94633e-20
3.92518e-23
-3.68593e-26
1.62886e-28
-6.34507e-32
7.41435e-34
-5.323e-38
3.99611e-05
-0.000105059
6.95467e-05
-0.000141405
3.65105e-05
-0.00017844
-8.94118e-05
4.91191e-05
-7.4245e-05
5.56881e-05
-5.91969e-05
5.95296e-05
-4.63438e-05
6.07796e-05
-3.24634e-05
5.96118e-05
-1.34854e-05
3.349e-07
-9.52272e-09
1.02216e-11
-3.0888e-14
2.92665e-17
-5.4655e-20
8.34819e-23
-9.48369e-26
2.79557e-28
-1.45293e-31
1.02878e-33
-1.16318e-37
5.33372e-05
-0.000102788
0.000104673
-0.000140186
7.34595e-05
-0.000178354
3.51549e-05
-0.000213595
-8.64387e-05
6.13128e-05
-6.99165e-05
6.64076e-05
-5.54426e-05
6.86285e-05
-3.98542e-05
6.81703e-05
-1.6843e-05
5.52883e-07
-2.20472e-08
2.97693e-11
-1.09449e-13
9.29986e-17
-1.84188e-19
2.315e-22
-2.7883e-25
6.18137e-28
-3.79188e-31
1.84455e-33
-2.74917e-37
6.67785e-05
-9.988e-05
0.000140171
-0.000138285
0.000111119
-0.000177845
7.1291e-05
-0.00021449
3.00069e-05
-0.000243601
-8.1977e-05
7.33733e-05
-6.58568e-05
7.68218e-05
-4.85659e-05
7.73402e-05
-2.09242e-05
9.02015e-07
-5.01316e-08
8.70191e-11
-3.92729e-13
3.20118e-16
-7.14548e-19
7.95549e-22
-9.75898e-25
1.76935e-27
-1.16453e-30
4.33856e-33
-7.61798e-37
8.02195e-05
-9.5418e-05
0.000176219
-0.000135929
0.000149752
-0.000176918
0.000108554
-0.000215108
6.24942e-05
-0.000246977
1.65797e-05
-0.000260181
-7.76816e-05
8.51981e-05
-5.87408e-05
8.69966e-05
-2.5869e-05
1.44542e-06
-1.1054e-07
2.49104e-10
-1.39622e-12
1.12832e-15
-2.96445e-18
3.12409e-21
-4.06347e-24
6.42112e-27
-4.27649e-30
1.32098e-32
-2.52832e-36
9.35874e-05
-9.10495e-05
0.00021272
-0.000131918
0.000189721
-0.000175898
0.000147409
-0.000215773
9.64402e-05
-0.000249054
4.56099e-05
-0.000276008
-1.00383e-05
-0.000250143
-7.05366e-05
9.69939e-05
-3.1825e-05
2.26437e-06
-2.35127e-07
6.92908e-10
-4.90513e-12
3.91698e-15
-1.23215e-17
1.29532e-20
-1.90057e-23
2.78711e-26
-1.88901e-29
5.09439e-32
-1.00546e-35
0.000107287
-8.42359e-05
0.000249558
-0.000127888
0.000231074
-0.000173271
0.000188364
-0.000216853
0.000132726
-0.00025206
7.49136e-05
-0.000278358
1.83532e-05
-0.000304399
-3.73948e-05
-0.000212748
-3.89324e-05
3.45872e-06
-4.81576e-07
1.85671e-09
-1.68558e-11
1.31378e-14
-4.93904e-17
5.35036e-20
-9.21274e-23
1.32976e-25
-9.72408e-29
2.40217e-31
-4.77738e-35
5.29161e-06
-4.73023e-05
0.000287725
-0.000122403
0.000273882
-0.000170696
0.000231594
-0.000216501
0.000171456
-0.000255582
0.000107859
-0.000285005
4.58602e-05
-0.000305865
-1.85004e-05
-0.000323293
-0.000196495
-1.62531e-05
-9.33408e-07
4.75295e-09
-5.63064e-11
4.22679e-14
-1.83467e-16
2.13387e-19
-4.37054e-22
6.47226e-25
-5.4013e-28
1.29015e-30
-2.67642e-34
1.20052e-08
-1.52476e-06
2.14577e-05
-7.39523e-05
0.000319267
-0.000167788
0.000277509
-0.000216611
0.000212684
-0.000257729
0.00014249
-0.000290214
7.83988e-05
-0.000317543
1.33127e-05
-0.000337678
-0.000142526
-0.000377262
6.65694e-05
-8.28224e-05
-1.79744e-10
1.62194e-13
-6.08532e-16
8.11362e-19
-1.94295e-21
3.06838e-24
-3.02275e-27
7.27271e-30
-1.66951e-33
7.88806e-13
-2.08479e-10
9.26974e-08
-5.83377e-06
4.14241e-05
-0.000111403
0.000327076
-0.000217355
0.00025685
-0.000260778
0.000178605
-0.000293844
0.00010907
-0.000320885
5.08291e-05
-0.000355059
-5.67046e-05
-0.0004235
6.69659e-05
-0.000377658
0.000254892
-0.000337714
-2.21605e-15
3.09513e-18
-7.64525e-21
1.38069e-23
-1.60382e-26
4.05017e-29
-1.08177e-32
1.49481e-17
8.06158e-15
1.43614e-11
-5.27487e-09
4.22062e-07
-1.51965e-05
6.53597e-05
-0.000158504
0.0003054
-0.000265905
0.000216323
-0.000298496
0.000138512
-0.000323285
8.17177e-05
-0.000351774
2.14356e-05
-0.0004332
0.000106971
-0.000463504
0.000290348
-0.000413115
0.00127597
-0.000164825
-0.00144885
-2.73943e-20
5.935e-23
-7.74536e-26
2.14046e-28
-6.74337e-32
2.78141e-22
1.43439e-19
3.32444e-16
-1.69643e-13
2.19838e-10
-4.87731e-08
1.36014e-06
-3.12299e-05
8.5095e-05
-0.00021096
0.000257709
-0.000307291
0.000166012
-0.000325997
0.000105416
-0.000346984
7.18776e-05
-0.000402216
0.000147383
-0.000473611
0.000337867
-0.000511023
0.00109786
-0.000235003
0.00119071
-4.7114e-05
-0.00130843
-5.56481e-05
-0.00139321
-3.01223e-25
1.06591e-27
-3.90442e-31
5.18912e-27
2.12133e-24
7.14989e-21
-2.0845e-18
6.71006e-15
-2.84058e-12
2.06351e-09
-2.9417e-07
3.05641e-06
-5.28616e-05
9.17568e-05
-0.00025979
0.000194076
-0.000335355
0.000119415
-0.000339996
9.31217e-05
-0.000368228
0.00015613
-0.000410963
0.000329814
-0.000465557
0.000857887
-0.000271053
0.00102668
-7.09639e-05
0.00116835
7.68362e-05
-0.0012923
-2.3004e-05
-0.00134107
-4.15797e-05
-0.00135163
-1.73649e-30
1.60546e-29
1.47151e-25
-3.14589e-23
1.84027e-19
-2.35113e-17
1.2234e-13
-2.59219e-11
1.0541e-08
-1.10403e-06
4.80034e-06
-7.60354e-05
8.14355e-05
-0.00029587
0.000130045
-0.000345985
9.32055e-05
-0.00034008
0.000138628
-0.000350726
0.000284986
-0.000366135
0.000628921
-0.00023659
0.000809773
-5.41511e-05
0.00099315
0.000104232
0.00122284
0.000206323
-0.00135232
4.31273e-05
-0.00135843
-3.41668e-05
-0.00134848
-3.55036e-05
-0.00131613
-2.47885e-28
4.73282e-24
-4.04555e-22
3.15745e-18
2.28e-16
1.61616e-12
-1.76082e-10
2.80664e-08
-2.59807e-06
5.06364e-06
-9.47285e-05
5.77521e-05
-0.000312427
8.16998e-05
-0.000334479
0.000105124
-0.000306575
0.000215142
-0.000280881
0.000441713
-0.000178927
0.000597121
-2.39378e-05
0.000811378
0.000127621
0.00106168
0.000265387
0.00129937
0.000355978
-0.00144902
0.000120986
-0.00143018
-9.79269e-06
-0.0013828
-5.92614e-05
-0.00132472
-5.05234e-05
-0.0012656
-4.53333e-27
8.82398e-23
4.3591e-21
4.48375e-17
1.53723e-14
7.91109e-12
-6.51782e-10
3.43707e-08
-4.13778e-06
3.14505e-06
-0.000106152
2.98587e-05
-0.000302642
5.93364e-05
-0.000288692
0.000136504
-0.000227938
0.000290733
-0.0001299
0.000414532
3.66264e-06
0.00064011
0.000147331
0.000873506
0.000315793
0.00110066
0.000464092
0.0014322
0.000502688
-0.00157891
0.00021672
-0.00154476
1.68207e-05
-0.00145679
-7.39025e-05
-0.00136816
-8.86748e-05
-0.00128657
-6.15675e-05
-0.00120403
2.42213e-26
1.21455e-21
2.90837e-19
2.35575e-16
1.73662e-13
1.10625e-11
-6.33659e-10
6.7134e-09
-4.24449e-06
-3.96908e-07
-0.000107144
1.62312e-06
-0.000260887
4.99961e-05
-0.000202184
0.000164839
-0.000102044
0.000267397
1.72349e-05
0.000479283
0.000164491
0.000665314
0.000355524
0.000877626
0.000538828
0.00120797
0.000688317
0.00149178
0.000115081
-0.00157665
0.000113998
0.000173212
0.000185269
0.00029447
-0.00165666
4.86693e-05
-0.0015766
-8.94614e-05
-0.00144123
-0.000128723
-0.00132811
-0.000123158
-0.00122498
-8.23186e-05
-0.00112171
2.24942e-24
6.66261e-21
3.53978e-18
3.08382e-16
4.19308e-13
-1.09501e-13
1.41423e-10
-6.7027e-09
-3.34419e-06
-2.27441e-06
-8.93656e-05
-1.91545e-05
-0.000187475
5.27262e-05
-9.0071e-05
0.000141954
2.33994e-05
0.000320563
0.000175955
0.000458113
0.000371693
0.000670148
0.000563003
0.000959171
0.00078763
0.00125345
0.000926641
-1.55772e-06
0.000237503
-0.000226691
0.000105827
7.40806e-05
-0.00155703
6.86709e-05
6.96483e-05
6.24519e-05
0.000238551
-0.000219241
9.31295e-05
6.70856e-08
0.000241717
0.000168931
0.000246296
0.000177591
4.45627e-05
-0.00165255
-0.000110572
-0.00155549
-0.000173694
-0.00139626
-0.000181128
-0.00127014
-0.000164562
-0.00114274
-9.51978e-05
-0.00102652
2.92788e-23
8.22206e-21
8.03291e-18
-7.27212e-18
4.85054e-13
-1.21578e-12
6.89901e-10
-9.00424e-09
-1.88044e-06
-3.06974e-06
-5.98144e-05
-2.27166e-05
-9.95072e-05
2.83164e-05
2.35662e-05
0.000168802
0.000175161
0.00027013
0.000363937
0.000483649
0.000558192
0.000685006
0.000837168
0.00100497
0.00103611
-0.000181184
-0.000176802
0.000913857
0.000181682
0.000184287
0.000244128
0.000248685
-4.62308e-06
-0.00021978
7.17922e-05
4.3395e-06
0.000123431
-9.98031e-05
7.78599e-05
-0.00147991
-3.25652e-05
-0.000211145
5.59515e-05
-5.23876e-06
-0.000192126
4.72327e-05
-0.000187385
3.34535e-05
9.9048e-05
-5.30574e-05
5.14782e-05
5.08415e-06
0.000106093
0.000104921
-0.000119739
-0.00164339
-0.000223
-0.00150618
-0.000236927
-0.00134046
-0.000251057
-0.00118364
-0.000196158
-0.00104178
-0.000108396
-0.00091812
6.6665e-23
-2.09795e-22
6.82634e-18
-2.63202e-17
2.12516e-13
-1.03977e-12
6.94291e-10
-7.26461e-09
-4.47464e-07
-2.44073e-06
-2.64816e-05
-3.57634e-05
-7.51207e-06
2.71075e-05
0.000165261
0.000111653
0.000333638
0.000311044
0.000536543
0.000427169
0.000816029
0.000738519
0.00110362
0.000823579
0.000260658
0.000262246
0.000301471
0.000302015
4.52755e-06
5.69377e-05
1.98315e-05
0.000100385
5.32205e-05
3.32177e-05
0.000102377
1.67765e-06
9.20179e-05
0.00020737
9.14e-05
0.000212183
2.19503e-06
-5.28358e-05
2.26297e-05
9.84643e-06
-0.000113541
0.000189807
2.7873e-05
-3.54335e-05
3.04377e-05
-3.11301e-05
-0.00139212
-0.00020753
1.08547e-05
-3.75813e-05
-0.000157601
-5.61225e-05
-5.36006e-05
-5.7941e-05
-6.00853e-05
5.44807e-06
-3.59076e-07
-4.01142e-06
9.26269e-06
-2.69141e-06
-0.000139966
0.000219663
2.42685e-05
-3.63322e-05
2.62734e-05
-3.25811e-05
1.01973e-05
2.90501e-05
-1.73616e-05
1.74912e-05
-2.69928e-05
2.92217e-05
-1.45268e-05
1.81326e-05
-2.44575e-05
-0.000301475
-0.00156491
-0.000317213
-0.0014259
-0.000341257
-0.00125026
-0.000306618
-0.00107319
-0.000219658
-0.000930517
-0.000116449
-0.000801672
4.72548e-23
-5.1587e-22
2.39998e-18
-1.83982e-17
9.43689e-14
-5.69063e-13
4.49131e-10
-3.54825e-09
2.73607e-07
-2.15077e-06
6.28726e-06
-4.332e-05
0.000100277
-2.30644e-05
0.000300507
0.000125244
0.000519437
0.000207372
0.000756339
0.000432801
0.00112175
0.000635628
0.000310426
0.00031001
0.000335891
0.000335247
4.94408e-07
0.000119518
0.000232664
0.000119199
0.000234941
8.37334e-08
0.000122353
0.000298552
0.000122113
0.000299185
2.38489e-06
-0.000189388
4.4758e-05
9.3889e-05
-4.00307e-05
4.70208e-05
2.67249e-05
-3.38069e-05
3.79467e-05
0.000110859
-0.000184259
4.31681e-05
9.28651e-05
4.58679e-05
-3.86375e-05
2.83143e-05
-3.22784e-05
3.93359e-05
0.000110386
2.43021e-06
-0.000104746
-2.63668e-06
6.76658e-05
-1.14309e-05
6.66558e-05
-9.86644e-05
5.5692e-07
6.92807e-05
-9.16787e-06
6.83492e-05
5.10015e-06
0.000265588
2.3486e-05
-5.35603e-05
1.98747e-05
-4.80515e-05
8.86855e-05
1.43481e-05
2.64373e-06
-9.03222e-05
1.25179e-05
-1.51371e-05
-8.59479e-05
9.66478e-05
-3.09962e-05
2.18752e-06
8.99454e-05
1.18533e-05
-7.55013e-05
-2.72285e-05
-0.00131024
-0.000383348
-0.000127439
-5.29381e-05
-5.8633e-05
-6.42461e-05
-6.18759e-05
1.25076e-06
-0.000304111
0.000331944
-8.52061e-05
-0.000308576
0.00033719
-8.09637e-05
1.3913e-06
-0.000300545
-6.28982e-05
-0.000308397
-5.88734e-05
0.000283888
2.1148e-05
-5.04973e-05
1.72779e-05
-4.74122e-05
1.70247e-06
2.42834e-05
-3.87293e-05
3.24684e-05
-4.54192e-05
2.32872e-05
-3.53087e-05
3.1165e-05
-4.46412e-05
9.35706e-05
1.51323e-05
-9.36725e-05
1.1882e-05
-1.54775e-05
-8.53593e-05
9.54141e-05
-3.09093e-05
9.56586e-05
1.08954e-05
-7.59797e-05
-2.68283e-05
-8.64184e-05
1.16786e-05
1.95202e-06
1.15158e-05
-1.57878e-05
6.27871e-05
-1.96028e-05
1.27815e-06
7.89397e-06
-2.80283e-05
-8.71165e-05
1.25469e-05
1.20708e-05
-1.594e-05
6.22073e-05
-1.76259e-05
9.21936e-06
-2.56829e-05
-0.000436523
-0.0014456
-0.000436002
-0.00133116
-0.000433318
-0.00112357
-0.000338163
-0.000954682
-0.000235529
-0.000811438
-0.000124535
-0.000677137
1.54904e-23
-3.13273e-22
8.5011e-19
-8.23134e-18
3.14971e-14
-1.97571e-13
2.41885e-10
-1.83014e-09
5.9557e-07
-1.76006e-06
3.51417e-05
-5.88511e-05
0.000194609
-4.97998e-05
0.000477571
2.74076e-05
0.000699402
0.000116604
0.00107254
0.00042944
0.000331078
0.000330542
0.000333662
0.000332656
-4.87739e-08
0.000109863
0.000322965
0.000109267
0.000322807
-1.9558e-07
0.000103449
0.0003425
0.000103253
0.000341065
2.41932e-06
-3.36993e-05
4.22331e-06
7.2726e-05
9.99873e-06
7.22183e-05
-3.01067e-05
7.36676e-06
7.36847e-05
1.40556e-05
7.36869e-05
1.34801e-06
1.78739e-05
3.45744e-05
9.2849e-05
2.77452e-05
9.04689e-05
2.00203e-05
3.66645e-05
9.27289e-05
3.0672e-05
9.03593e-05
-9.14283e-06
-8.1354e-05
8.4011e-05
-3.35448e-05
-3.14577e-06
6.86877e-05
-3.81239e-05
-5.63763e-05
4.65058e-07
1.78176e-05
5.57063e-05
-6.45075e-06
-8.95367e-05
-1.91734e-05
2.42251e-07
-5.87352e-05
3.36278e-05
7.22078e-07
0.000113342
1.52689e-06
-3.4282e-06
6.75464e-05
-3.58761e-05
-9.07138e-06
-8.23793e-05
8.37305e-05
-3.09173e-05
-5.61717e-05
5.51754e-05
2.07043e-05
-6.51881e-06
-9.07194e-05
-1.74195e-05
-5.83805e-05
3.52683e-05
0.000113986
2.91394e-06
-5.19005e-06
8.70808e-05
-8.154e-05
-2.98741e-06
5.19695e-05
2.25687e-07
-4.50513e-05
5.5331e-05
-5.91474e-06
-7.97208e-06
2.69519e-07
5.37353e-05
-5.30041e-06
8.77935e-05
-8.06825e-05
-1.25369e-06
5.18169e-05
-4.49719e-05
5.7361e-05
-5.93482e-06
-6.15889e-06
5.61203e-05
-8.52322e-05
1.57928e-05
7.38826e-07
8.42883e-05
7.89832e-06
-1.44739e-05
9.59176e-05
-3.83562e-05
1.13554e-06
8.97859e-06
0.000101369
-3.771e-05
0.000113448
1.63163e-05
1.58418e-06
-0.00011561
-3.22084e-06
-1.95002e-05
-8.79939e-05
9.72031e-05
-2.0705e-05
1.43704e-06
0.000110931
-6.58278e-06
-7.70896e-05
-2.18164e-05
-0.00120407
-0.000542699
-0.00014894
-9.58648e-05
-0.000107906
-7.54056e-05
-8.2672e-05
3.28212e-06
-0.000343356
0.000345139
-5.80039e-05
-0.000353389
0.000357189
-5.91516e-05
2.54578e-06
-7.82041e-05
-7.5529e-05
1.97208e-06
-0.000383943
0.000412978
-5.66622e-05
-3.94714e-06
-5.16487e-05
-3.98699e-06
-0.000389368
0.000423075
-5.48798e-05
-3.76732e-06
-5.06791e-05
-3.3723e-06
1.70258e-06
-0.000128409
-6.08165e-05
-1.38772e-05
-0.000134467
5.5611e-06
-3.84435e-05
5.75284e-07
-7.86795e-05
-0.00013013
-6.32909e-05
-1.14458e-05
-0.000136225
8.62155e-06
-3.6435e-05
2.50436e-06
-8.01381e-05
-9.11326e-05
1.66032e-05
8.9154e-05
7.26234e-06
-1.48614e-05
9.58086e-05
-3.60304e-05
8.07822e-06
0.000101172
-3.61728e-05
7.6374e-05
2.11287e-05
3.22676e-07
1.07463e-05
-3.09624e-05
-0.00010868
-2.74963e-05
-1.12176e-07
1.71607e-05
-3.16011e-05
8.04916e-05
2.17702e-05
1.05021e-05
-3.11849e-05
-0.000109002
-2.52517e-05
1.70686e-05
-3.07002e-05
0.000115526
1.67349e-05
-0.000117115
-1.6791e-06
-1.99015e-05
-8.75029e-05
9.61197e-05
-1.96246e-05
0.000113099
-5.14173e-06
-7.66077e-05
-2.09884e-05
7.80623e-06
1.10346e-06
3.56715e-07
-2.86238e-05
8.12708e-06
1.91743e-06
-2.66169e-05
-0.000530255
-0.00135135
-0.000577069
-0.00118741
-0.000472779
-0.000988952
-0.000359747
-0.000830463
-0.000251485
-0.000684487
-0.000129909
-0.000547227
4.98625e-24
-1.17589e-22
2.32739e-19
-2.49432e-18
1.06476e-14
-7.08824e-14
1.038e-10
-7.63655e-10
5.24479e-07
-1.18972e-06
4.78296e-05
-5.46795e-05
0.000288002
-0.000115257
0.000628261
-0.000114656
0.00093077
0.000179646
0.000316645
0.000315803
0.000344823
0.000345059
5.00797e-08
7.93762e-05
0.0003551
8.02691e-05
0.000353575
8.60587e-08
5.93698e-05
0.000353582
6.00361e-05
0.000352975
1.53327e-06
4.2737e-05
4.48333e-05
0.000100753
5.08339e-05
0.000100183
4.61419e-05
4.63173e-05
0.000100267
5.26616e-05
9.89652e-05
1.18106e-06
4.73172e-05
6.93439e-05
0.000103694
5.89373e-05
0.000104738
4.74873e-05
7.14626e-05
0.000103159
6.22753e-05
0.00010398
-5.72262e-06
-7.34336e-05
1.83954e-06
-3.97543e-05
-2.13708e-07
6.19345e-05
-5.91104e-06
-6.11316e-05
3.61248e-06
-3.00947e-07
-3.62271e-05
6.31138e-05
-5.60531e-06
-7.21496e-05
4.43914e-06
-4.05778e-05
6.34716e-05
-5.16369e-06
-5.94958e-05
6.56551e-06
-3.68416e-05
6.44768e-05
-2.48359e-06
4.13413e-05
-2.89329e-05
2.46456e-05
2.76668e-05
-7.26326e-08
-1.73003e-05
8.00909e-05
-4.3668e-06
1.2317e-05
-1.28186e-07
7.76524e-05
-1.73375e-06
4.08037e-05
-2.94566e-05
2.70512e-05
2.78453e-05
-1.74005e-05
8.04858e-05
-3.48039e-06
1.54603e-05
7.77639e-05
-1.07165e-05
6.54102e-05
-3.70933e-06
-2.71937e-05
-2.54515e-05
1.90971e-07
8.77776e-07
4.95399e-05
-6.03642e-06
-4.03633e-05
2.25179e-07
-3.01938e-05
-1.0483e-05
6.51739e-05
-3.60486e-06
-2.74843e-05
4.85574e-05
-2.61218e-05
-5.94232e-06
-4.06457e-05
-3.05858e-05
-6.94102e-06
4.34097e-05
-4.5449e-05
2.85684e-05
1.29106e-07
-2.63681e-05
-7.39817e-06
2.83929e-07
-6.72362e-06
4.40578e-05
-4.65153e-05
2.87609e-05
-2.66158e-05
-7.25813e-06
-0.000110035
2.33713e-05
1.24076e-06
0.000109316
-1.59812e-05
-2.13099e-05
0.000102201
-2.20445e-05
1.3379e-06
-1.27589e-05
0.000108493
-2.063e-05
4.89411e-05
7.79461e-06
7.76526e-07
-4.61408e-05
-7.49718e-06
-5.77626e-05
5.84069e-05
8.74331e-07
5.23931e-05
-5.76259e-05
-0.00113854
-0.00059579
-0.000200627
-0.000130024
-0.000132905
-0.000111488
-0.000116597
2.44819e-06
-0.000331377
0.0003206
-8.75354e-05
-0.000345122
0.00033099
-9.13259e-05
3.36547e-06
-6.50097e-05
-6.72394e-05
3.16088e-06
-0.000427748
0.000412394
-4.79597e-05
3.00004e-05
-4.86862e-05
2.08108e-05
-0.000439976
0.000422965
-4.47075e-05
3.01349e-05
-4.52978e-05
2.09089e-05
1.66312e-06
-5.51092e-05
6.72389e-07
-4.99899e-05
9.75709e-06
-5.31922e-05
2.3277e-07
-4.72431e-05
9.42698e-06
-2.42485e-05
-0.000111844
0.000113486
-3.40558e-05
-0.000102219
-1.70231e-07
0.000106153
-3.19117e-05
-2.29491e-05
-0.000109272
-3.12717e-05
3.52219e-08
-9.9033e-05
-3.01574e-05
-2.45469e-05
-0.00011369
0.000115797
-3.2439e-05
-0.000105232
0.000109736
-3.29883e-05
-2.3719e-05
-0.000110589
-3.00614e-05
-0.000101548
-3.074e-05
-1.97873e-05
0.000107282
-0.000107785
6.41269e-06
-3.8719e-05
-0.00011781
-5.4341e-06
9.81472e-05
4.87062e-07
-1.13112e-05
-0.000101515
-2.20199e-05
-1.84131e-05
2.17759e-07
-2.25481e-05
1.01237e-06
-0.000101424
1.56946e-07
-1.96597e-05
0.000108156
-0.000108261
8.31904e-06
-3.91192e-05
-0.000118497
-3.86078e-06
9.98737e-05
-6.72976e-06
-0.000103695
-2.25421e-05
-1.63258e-05
-2.14948e-05