/*--------------------------------*- C++ -*----------------------------------*\
| =========                 |                                                 |
| \\      /  F ield         | OpenFOAM: The Open Source CFD Toolbox           |
|  \\    /   O peration     | Version:  5.x                                   |
|   \\  /    A nd           | Web:      www.OpenFOAM.org                      |
|    \\/     M anipulation  |                                                 |
\*---------------------------------------------------------------------------*/
FoamFile
{
    version     2.0;
    format      ascii;
    class       volScalarField;
    location    "0.7";
    object      k;
}
// * * * * * * * * * * * * * * * * * * * * * * * * * * * * * * * * * * * * * //

dimensions      [0 2 -2 0 0 0 0];

internalField   nonuniform List<scalar> 
12160
(
9.97003e-09
9.95861e-09
1.00203e-08
9.9555e-09
1.00331e-08
1.00062e-08
9.95486e-09
1.0038e-08
1.00098e-08
1.0005e-08
9.95476e-09
1.00325e-08
1.00116e-08
1.00072e-08
1.00049e-08
9.95475e-09
1.00272e-08
1.00105e-08
1.0008e-08
1.00069e-08
1.00054e-08
9.95475e-09
1.00219e-08
1.00095e-08
1.00076e-08
1.00074e-08
1.00073e-08
1.00056e-08
9.95475e-09
1.00179e-08
1.00084e-08
1.00072e-08
1.00071e-08
1.00076e-08
1.00079e-08
1.00063e-08
9.95475e-09
1.00148e-08
1.00077e-08
1.00068e-08
1.00069e-08
1.00073e-08
1.00079e-08
1.00083e-08
1.0019e-08
9.95475e-09
1.00124e-08
1.0007e-08
1.00065e-08
1.00066e-08
1.0007e-08
1.00075e-08
1.0008e-08
1.00146e-08
1.00204e-08
9.95475e-09
1.00107e-08
1.00066e-08
1.00063e-08
1.00064e-08
1.00067e-08
1.00071e-08
1.00077e-08
1.00122e-08
1.00178e-08
1.00154e-08
9.95475e-09
1.00093e-08
1.00063e-08
1.00061e-08
1.00062e-08
1.00064e-08
1.00067e-08
1.00073e-08
1.00122e-08
1.00144e-08
1.00179e-08
1.00107e-08
9.95475e-09
1.00084e-08
1.00061e-08
1.0006e-08
1.00061e-08
1.00063e-08
1.00064e-08
1.00071e-08
1.00114e-08
1.0012e-08
1.00183e-08
1.00105e-08
1.00095e-08
9.95475e-09
1.00077e-08
1.0006e-08
1.00059e-08
1.0006e-08
1.00061e-08
1.00062e-08
1.0007e-08
1.00104e-08
1.00104e-08
1.00195e-08
1.00103e-08
1.00089e-08
1.00081e-08
9.95475e-09
1.00072e-08
1.00059e-08
1.00059e-08
1.00059e-08
1.0006e-08
1.00061e-08
1.00071e-08
1.00094e-08
1.00097e-08
1.00178e-08
1.00137e-08
1.00082e-08
1.00077e-08
1.00057e-08
9.95475e-09
1.00068e-08
1.00058e-08
1.00058e-08
1.00058e-08
1.00059e-08
1.0006e-08
1.00071e-08
1.00085e-08
1.00091e-08
1.00153e-08
1.00131e-08
1.00081e-08
1.00076e-08
1.00052e-08
9.95475e-09
1.00065e-08
1.00058e-08
1.00058e-08
1.00058e-08
1.00059e-08
1.00059e-08
1.00072e-08
1.00078e-08
1.00085e-08
1.00128e-08
1.00118e-08
1.0008e-08
1.00075e-08
1.00057e-08
9.95475e-09
1.00061e-08
1.00057e-08
1.00057e-08
1.00058e-08
1.00058e-08
1.00058e-08
1.00072e-08
1.00073e-08
1.00081e-08
1.00104e-08
1.00097e-08
1.00079e-08
1.00071e-08
1.00062e-08
9.95475e-09
1.00057e-08
1.00056e-08
1.00057e-08
1.00057e-08
1.00058e-08
1.00058e-08
1.00073e-08
1.00068e-08
1.00078e-08
1.00088e-08
1.00082e-08
1.00074e-08
1.00069e-08
1.00065e-08
9.95475e-09
1.00053e-08
1.00052e-08
1.00056e-08
1.00057e-08
1.00058e-08
1.00058e-08
1.00073e-08
1.00065e-08
1.00076e-08
1.00078e-08
1.00072e-08
1.00068e-08
1.00066e-08
1.00065e-08
9.95475e-09
1.00049e-08
1.00049e-08
1.00053e-08
1.00055e-08
1.00057e-08
1.00057e-08
1.00073e-08
1.00063e-08
1.00075e-08
1.00072e-08
1.00066e-08
1.00064e-08
1.00064e-08
1.00063e-08
9.95475e-09
1.00046e-08
1.00046e-08
1.00049e-08
1.00052e-08
1.00056e-08
1.00057e-08
1.00072e-08
1.00062e-08
1.00074e-08
1.00067e-08
1.00063e-08
1.00062e-08
1.00062e-08
1.00062e-08
9.95475e-09
1.00043e-08
1.00043e-08
1.00046e-08
1.00049e-08
1.00053e-08
1.00056e-08
1.00071e-08
1.00061e-08
1.00073e-08
1.00064e-08
1.00061e-08
1.00061e-08
1.00061e-08
1.00061e-08
9.95475e-09
1.00041e-08
1.00041e-08
1.00043e-08
1.00046e-08
1.00049e-08
1.00053e-08
1.0007e-08
1.0006e-08
1.00072e-08
1.00062e-08
1.0006e-08
1.0006e-08
1.0006e-08
1.0006e-08
9.95475e-09
1.00039e-08
1.00038e-08
1.00041e-08
1.00042e-08
1.00046e-08
1.0005e-08
1.00069e-08
1.0006e-08
1.0007e-08
1.0006e-08
1.00059e-08
1.00059e-08
1.0006e-08
1.0006e-08
9.95475e-09
1.00039e-08
1.00037e-08
1.00038e-08
1.00039e-08
1.00043e-08
1.00046e-08
1.00067e-08
1.00059e-08
1.00069e-08
1.00058e-08
1.00057e-08
1.00058e-08
1.00059e-08
1.00059e-08
9.95475e-09
1.00039e-08
1.00036e-08
1.00036e-08
1.00036e-08
1.0004e-08
1.00042e-08
1.00066e-08
1.00059e-08
1.00067e-08
1.00057e-08
1.00056e-08
1.00057e-08
1.00058e-08
1.00058e-08
9.95474e-09
1.0004e-08
1.00037e-08
1.00036e-08
1.00034e-08
1.00038e-08
1.00038e-08
1.00064e-08
1.00059e-08
1.00067e-08
1.00057e-08
1.00056e-08
1.00056e-08
1.00057e-08
1.00058e-08
9.95474e-09
1.00042e-08
1.00038e-08
1.00036e-08
1.00033e-08
1.00035e-08
1.00032e-08
1.00062e-08
1.0006e-08
1.00067e-08
1.00058e-08
1.00056e-08
1.00056e-08
1.00057e-08
1.00057e-08
9.95475e-09
1.00044e-08
1.0004e-08
1.00038e-08
1.00034e-08
1.00035e-08
1.00023e-08
1.0006e-08
1.00061e-08
1.00066e-08
1.00059e-08
1.00057e-08
1.00056e-08
1.00057e-08
1.00057e-08
9.95475e-09
1.00047e-08
1.00042e-08
1.0004e-08
1.00036e-08
1.00035e-08
1.0002e-08
1.00057e-08
1.00062e-08
1.00065e-08
1.00059e-08
1.00058e-08
1.00057e-08
1.00057e-08
1.00057e-08
9.95475e-09
1.00049e-08
1.00044e-08
1.00042e-08
1.00038e-08
1.00037e-08
1.00026e-08
1.00055e-08
1.00061e-08
1.00062e-08
1.00057e-08
1.00058e-08
1.00058e-08
1.00057e-08
1.00057e-08
9.95475e-09
1.00052e-08
1.00046e-08
1.00044e-08
1.00041e-08
1.00039e-08
1.00033e-08
1.00054e-08
1.00059e-08
1.00059e-08
1.00054e-08
1.00057e-08
1.00057e-08
1.00057e-08
1.00057e-08
9.95475e-09
1.00055e-08
1.00048e-08
1.00046e-08
1.00043e-08
1.00042e-08
1.00037e-08
1.00052e-08
1.00058e-08
1.00055e-08
1.00051e-08
1.00055e-08
1.00056e-08
1.00056e-08
1.0005e-08
9.95475e-09
1.00058e-08
1.0005e-08
1.00048e-08
1.00046e-08
1.00044e-08
1.00041e-08
1.00055e-08
1.00056e-08
1.00054e-08
1.00048e-08
1.00053e-08
1.00054e-08
1.00054e-08
1.00039e-08
9.95475e-09
1.00061e-08
1.00051e-08
1.0005e-08
1.00048e-08
1.00046e-08
1.00044e-08
1.00058e-08
1.00056e-08
1.00055e-08
1.00046e-08
1.00051e-08
1.00048e-08
1.00051e-08
1.00042e-08
9.95475e-09
1.00064e-08
1.00053e-08
1.00051e-08
1.00049e-08
1.00048e-08
1.00046e-08
1.0006e-08
1.00057e-08
1.00057e-08
1.00047e-08
1.0005e-08
1.00043e-08
1.00046e-08
1.00042e-08
9.95475e-09
1.00067e-08
1.00054e-08
1.00053e-08
1.00051e-08
1.0005e-08
1.00048e-08
1.00062e-08
1.00058e-08
1.0006e-08
1.00049e-08
1.0005e-08
1.00041e-08
1.00038e-08
1.00036e-08
9.95475e-09
1.00071e-08
1.00055e-08
1.00054e-08
1.00053e-08
1.00052e-08
1.0005e-08
1.00063e-08
1.00059e-08
1.00063e-08
1.00052e-08
1.00051e-08
1.00043e-08
1.00037e-08
1.00027e-08
9.95474e-09
1.00075e-08
1.00056e-08
1.00055e-08
1.00054e-08
1.00053e-08
1.00052e-08
1.00065e-08
1.00059e-08
1.00066e-08
1.00055e-08
1.00052e-08
1.00048e-08
1.0004e-08
1.00024e-08
1.0008e-08
9.95475e-09
1.00057e-08
1.00056e-08
1.00055e-08
1.00054e-08
1.00053e-08
1.00066e-08
1.00059e-08
1.00067e-08
1.00057e-08
1.00055e-08
1.00051e-08
1.00044e-08
1.00026e-08
1.00058e-08
1.00089e-08
9.95475e-09
1.00056e-08
1.00056e-08
1.00055e-08
1.00054e-08
1.00066e-08
1.00059e-08
1.00067e-08
1.00058e-08
1.00056e-08
1.00053e-08
1.0005e-08
1.00027e-08
1.00057e-08
1.0006e-08
1.00108e-08
9.95475e-09
1.00056e-08
1.00056e-08
1.00055e-08
1.00067e-08
1.00057e-08
1.00065e-08
1.00058e-08
1.00057e-08
1.00056e-08
1.00052e-08
1.00035e-08
1.00057e-08
1.00058e-08
1.00064e-08
1.00134e-08
9.95475e-09
1.00057e-08
1.00056e-08
1.00067e-08
1.00056e-08
1.00062e-08
1.00055e-08
1.00056e-08
1.00056e-08
1.00054e-08
1.00049e-08
1.00057e-08
1.00058e-08
1.0006e-08
1.00069e-08
1.00172e-08
9.95477e-09
1.00057e-08
1.00068e-08
1.00056e-08
1.0006e-08
1.00052e-08
1.00054e-08
1.00055e-08
1.00055e-08
1.00053e-08
1.00057e-08
1.00058e-08
1.00059e-08
1.00062e-08
1.00077e-08
1.00232e-08
9.95517e-09
1.00068e-08
1.00058e-08
1.0006e-08
1.00049e-08
1.0005e-08
1.00053e-08
1.00054e-08
1.00053e-08
1.00068e-08
1.00058e-08
1.0006e-08
1.00061e-08
1.00065e-08
1.00093e-08
1.00344e-08
9.9584e-09
1.0006e-08
1.00063e-08
1.0005e-08
1.00048e-08
1.0005e-08
1.00053e-08
1.00053e-08
1.00063e-08
1.00068e-08
1.0006e-08
1.00061e-08
1.00063e-08
1.0007e-08
1.00127e-08
1.00583e-08
9.97323e-09
1.00068e-08
1.00056e-08
1.0005e-08
1.0005e-08
1.00052e-08
1.00052e-08
1.00072e-08
1.00066e-08
1.00067e-08
1.00061e-08
1.00063e-08
1.00066e-08
1.00082e-08
1.00226e-08
1.01013e-08
9.97126e-09
1.00063e-08
1.00054e-08
1.00052e-08
1.00052e-08
1.00052e-08
1.00069e-08
1.00074e-08
1.0007e-08
1.00067e-08
1.00063e-08
1.00066e-08
1.00071e-08
1.00121e-08
1.0049e-08
1.01418e-08
9.99729e-09
1.00061e-08
1.00056e-08
1.00054e-08
1.00053e-08
1.00065e-08
1.00072e-08
1.00076e-08
1.00075e-08
1.00066e-08
1.00065e-08
1.00069e-08
1.00087e-08
1.00242e-08
1.00897e-08
1.01178e-08
1.00129e-08
1.00061e-08
1.00058e-08
1.00056e-08
1.00064e-08
1.00065e-08
1.00079e-08
1.00078e-08
1.00078e-08
1.00066e-08
1.00068e-08
1.00076e-08
1.00135e-08
1.00499e-08
1.01037e-08
1.0045e-08
1.00088e-08
9.97246e-09
1.00061e-08
1.00058e-08
1.00063e-08
1.00063e-08
1.00069e-08
1.00086e-08
1.00078e-08
1.0008e-08
1.00066e-08
1.00071e-08
1.00093e-08
1.00261e-08
1.00732e-08
1.0062e-08
1.00097e-08
1.00082e-08
1.00086e-08
9.97184e-09
1.0006e-08
1.00061e-08
1.00062e-08
1.00065e-08
1.00074e-08
1.00093e-08
1.00078e-08
1.00079e-08
1.00066e-08
1.00077e-08
1.00141e-08
1.00438e-08
1.00629e-08
1.00117e-08
1.00083e-08
1.0009e-08
1.00085e-08
1.00089e-08
9.9719e-09
1.0006e-08
1.00063e-08
1.00066e-08
1.00078e-08
1.00098e-08
1.00078e-08
1.00077e-08
1.00067e-08
1.00093e-08
1.00231e-08
1.00489e-08
1.00135e-08
1.00091e-08
1.00087e-08
1.00115e-08
1.00097e-08
1.00091e-08
1.00093e-08
9.97251e-09
1.00061e-08
1.00063e-08
1.00067e-08
1.00085e-08
1.00103e-08
1.00079e-08
1.00074e-08
1.00073e-08
1.00127e-08
1.00299e-08
1.00137e-08
1.001e-08
1.00092e-08
1.00106e-08
1.00164e-08
1.0013e-08
1.00106e-08
1.00097e-08
1.00097e-08
9.97317e-09
1.00061e-08
1.00063e-08
1.00069e-08
1.00093e-08
1.00107e-08
1.00081e-08
1.00073e-08
1.00085e-08
1.00162e-08
1.00122e-08
1.00107e-08
1.00102e-08
1.00105e-08
1.00141e-08
1.00288e-08
1.00196e-08
1.00147e-08
1.00117e-08
1.00103e-08
1.00101e-08
9.97397e-09
1.00061e-08
1.00064e-08
1.00073e-08
1.00102e-08
1.0011e-08
1.00085e-08
1.00076e-08
1.00099e-08
1.00104e-08
1.00107e-08
1.00112e-08
1.00107e-08
1.00128e-08
1.00232e-08
1.00474e-08
1.00353e-08
1.00479e-08
1.00407e-08
1.00404e-08
1.00233e-08
1.00166e-08
1.00125e-08
1.00109e-08
1.00105e-08
9.97459e-09
1.00062e-08
1.00067e-08
1.00077e-08
1.00107e-08
1.00112e-08
1.00089e-08
1.00081e-08
1.00089e-08
1.00102e-08
1.00114e-08
1.0011e-08
1.00124e-08
1.00188e-08
1.00357e-08
1.00536e-08
1.00566e-08
1.00423e-08
1.00547e-08
1.00575e-08
1.00581e-08
1.00642e-08
1.00496e-08
1.00518e-08
1.00272e-08
1.00181e-08
1.00134e-08
1.00115e-08
1.00109e-08
9.97516e-09
1.00064e-08
1.00071e-08
1.0008e-08
1.00105e-08
1.00112e-08
1.00094e-08
1.00082e-08
1.00092e-08
1.00107e-08
1.00111e-08
1.00124e-08
1.00158e-08
1.00282e-08
1.00453e-08
1.00447e-08
1.00414e-08
1.00409e-08
1.00619e-08
1.00729e-08
1.00477e-08
1.00663e-08
1.00719e-08
1.0064e-08
1.00705e-08
1.00736e-08
1.00638e-08
1.00628e-08
1.00301e-08
1.00195e-08
1.00144e-08
1.0012e-08
1.00114e-08
9.97566e-09
1.00066e-08
1.00074e-08
1.0008e-08
1.00097e-08
1.00111e-08
1.00099e-08
1.00086e-08
1.00097e-08
1.0011e-08
1.00123e-08
1.00142e-08
1.0022e-08
1.00346e-08
1.00342e-08
1.00324e-08
1.00322e-08
1.00611e-08
1.00599e-08
1.00509e-08
1.00497e-08
1.0082e-08
1.00713e-08
1.00804e-08
1.00742e-08
1.00772e-08
1.00514e-08
1.00717e-08
1.00961e-08
1.00961e-08
1.00923e-08
1.00922e-08
1.0082e-08
1.00877e-08
1.00877e-08
1.00702e-08
1.0079e-08
1.00733e-08
1.00758e-08
1.00674e-08
1.00681e-08
1.00647e-08
1.00733e-08
1.00661e-08
1.00669e-08
1.00635e-08
1.0072e-08
1.00318e-08
1.00211e-08
1.00151e-08
1.00124e-08
1.00125e-08
9.9763e-09
1.00065e-08
1.00074e-08
1.00078e-08
1.0009e-08
1.00109e-08
1.00106e-08
1.00091e-08
1.00104e-08
1.00118e-08
1.00133e-08
1.00176e-08
1.00269e-08
1.00268e-08
1.0025e-08
1.0025e-08
1.00441e-08
1.00432e-08
1.00388e-08
1.00384e-08
1.00712e-08
1.00705e-08
1.00645e-08
1.00688e-08
1.00602e-08
1.00645e-08
1.00694e-08
1.00707e-08
1.0063e-08
1.00685e-08
1.00589e-08
1.00632e-08
1.00634e-08
1.00526e-08
1.00663e-08
1.00544e-08
1.00628e-08
1.00513e-08
1.00659e-08
1.0053e-08
1.00815e-08
1.00833e-08
1.00782e-08
1.00861e-08
1.00713e-08
1.00818e-08
1.00748e-08
1.00789e-08
1.0052e-08
1.00801e-08
1.01012e-08
1.0102e-08
1.0099e-08
1.00994e-08
1.00975e-08
1.00967e-08
1.00937e-08
1.00924e-08
1.00803e-08
1.00819e-08
1.00771e-08
1.00847e-08
1.00851e-08
1.009e-08
1.0088e-08
1.00884e-08
1.0084e-08
1.00887e-08
1.00871e-08
1.0087e-08
1.00696e-08
1.00805e-08
1.0073e-08
1.00777e-08
1.00678e-08
1.00754e-08
1.00663e-08
1.00744e-08
1.00334e-08
1.00224e-08
1.00151e-08
1.00131e-08
1.00148e-08
9.97726e-09
1.0006e-08
1.00072e-08
1.00077e-08
1.00085e-08
1.00111e-08
1.00117e-08
1.00102e-08
1.00108e-08
1.00127e-08
1.00151e-08
1.0021e-08
1.0021e-08
1.00198e-08
1.00198e-08
1.00316e-08
1.00316e-08
1.0029e-08
1.0029e-08
1.00595e-08
1.00478e-08
1.00547e-08
1.00461e-08
1.00584e-08
1.00467e-08
1.00536e-08
1.00452e-08
1.00439e-08
1.00402e-08
1.00488e-08
1.00414e-08
1.00432e-08
1.00398e-08
1.00477e-08
1.0041e-08
1.00742e-08
1.00703e-08
1.00637e-08
1.00698e-08
1.00684e-08
1.00605e-08
1.00734e-08
1.00695e-08
1.00678e-08
1.00622e-08
1.0068e-08
1.00589e-08
1.00641e-08
1.00538e-08
1.00664e-08
1.00564e-08
1.0064e-08
1.00525e-08
1.00662e-08
1.00549e-08
1.00823e-08
1.00845e-08
1.00786e-08
1.00871e-08
1.00799e-08
1.00847e-08
1.00843e-08
1.00813e-08
1.00511e-08
1.00804e-08
1.01046e-08
1.01061e-08
1.01029e-08
1.01042e-08
1.01026e-08
1.01026e-08
1.01003e-08
1.00999e-08
1.00991e-08
1.0098e-08
1.00982e-08
1.00972e-08
1.00999e-08
1.00992e-08
1.00986e-08
1.0098e-08
1.00961e-08
1.00902e-08
1.00955e-08
1.00972e-08
1.00964e-08
1.00872e-08
1.00959e-08
1.00887e-08
1.00954e-08
1.00972e-08
1.00966e-08
1.00855e-08
1.00803e-08
1.00831e-08
1.00767e-08
1.00857e-08
1.00851e-08
1.00891e-08
1.00832e-08
1.00876e-08
1.00779e-08
1.00836e-08
1.00826e-08
1.00802e-08
1.00746e-08
1.00775e-08
1.00724e-08
1.00765e-08
1.00358e-08
1.00218e-08
1.0015e-08
1.00152e-08
1.002e-08
9.9789e-09
1.00053e-08
1.00069e-08
1.00075e-08
1.00083e-08
1.00117e-08
1.00128e-08
1.00116e-08
1.00121e-08
1.00141e-08
1.00175e-08
1.00175e-08
1.00167e-08
1.00167e-08
1.00248e-08
1.00249e-08
1.00231e-08
1.00231e-08
1.00372e-08
1.00337e-08
1.00352e-08
1.00334e-08
1.00368e-08
1.00336e-08
1.0035e-08
1.00333e-08
1.00315e-08
1.00305e-08
1.00324e-08
1.00306e-08
1.00315e-08
1.00306e-08
1.00323e-08
1.00307e-08
1.00613e-08
1.00498e-08
1.00581e-08
1.00473e-08
1.00612e-08
1.00486e-08
1.00579e-08
1.00464e-08
1.00494e-08
1.00411e-08
1.00541e-08
1.00434e-08
1.0049e-08
1.00408e-08
1.00537e-08
1.00429e-08
1.00913e-08
1.00879e-08
1.00882e-08
1.00907e-08
1.00541e-08
1.00721e-08
1.01074e-08
1.01087e-08
1.01062e-08
1.01077e-08
1.01063e-08
1.01068e-08
1.01045e-08
1.01049e-08
1.01019e-08
1.01018e-08
1.01011e-08
1.01007e-08
1.01033e-08
1.01025e-08
1.01025e-08
1.01017e-08
1.00998e-08
1.00987e-08
1.01004e-08
1.00994e-08
1.01009e-08
1.01002e-08
1.01018e-08
1.01009e-08
1.01002e-08
1.00992e-08
1.00997e-08
1.0099e-08
1.0102e-08
1.01021e-08
1.01011e-08
1.01016e-08
1.0095e-08
1.00979e-08
1.00984e-08
1.00949e-08
1.00989e-08
1.00988e-08
1.00946e-08
1.00985e-08
1.01003e-08
1.00948e-08
1.00999e-08
1.01011e-08
1.00905e-08
1.00869e-08
1.00869e-08
1.00899e-08
1.00936e-08
1.00931e-08
1.00933e-08
1.00925e-08
1.00355e-08
1.00199e-08
1.00162e-08
1.00202e-08
1.00313e-08
9.98129e-09
1.00047e-08
1.00063e-08
1.00074e-08
1.00086e-08
1.00122e-08
1.00148e-08
1.00148e-08
1.00146e-08
1.00162e-08
1.00205e-08
1.00206e-08
1.00192e-08
1.00192e-08
1.00291e-08
1.00291e-08
1.00268e-08
1.00269e-08
1.00432e-08
1.00358e-08
1.00401e-08
1.0035e-08
1.00429e-08
1.00358e-08
1.00399e-08
1.00349e-08
1.00353e-08
1.00318e-08
1.00372e-08
1.00325e-08
1.00352e-08
1.00319e-08
1.0037e-08
1.00326e-08
1.00493e-08
1.00405e-08
1.00491e-08
1.00402e-08
1.00559e-08
1.00729e-08
1.01017e-08
1.01009e-08
1.01076e-08
1.01083e-08
1.01081e-08
1.01094e-08
1.01075e-08
1.01084e-08
1.01052e-08
1.01069e-08
1.01042e-08
1.01057e-08
1.01064e-08
1.01073e-08
1.01056e-08
1.01061e-08
1.01027e-08
1.01032e-08
1.01034e-08
1.01044e-08
1.01041e-08
1.01037e-08
1.01048e-08
1.01048e-08
1.01017e-08
1.01002e-08
1.01012e-08
1.00994e-08
1.01044e-08
1.01034e-08
1.01039e-08
1.0103e-08
1.01006e-08
1.00992e-08
1.01009e-08
1.00993e-08
1.01028e-08
1.01024e-08
1.01034e-08
1.01027e-08
1.00313e-08
1.0019e-08
1.00204e-08
1.00309e-08
1.00524e-08
9.98128e-09
1.0004e-08
1.00061e-08
1.00073e-08
1.0009e-08
1.00146e-08
1.00192e-08
1.00203e-08
1.00217e-08
1.00208e-08
1.00208e-08
1.00293e-08
1.00292e-08
1.00243e-08
1.00243e-08
1.00223e-08
1.00223e-08
1.00304e-08
1.00324e-08
1.00308e-08
1.00315e-08
1.00305e-08
1.00325e-08
1.00309e-08
1.00315e-08
1.00285e-08
1.00289e-08
1.00282e-08
1.00295e-08
1.00285e-08
1.00289e-08
1.00282e-08
1.00295e-08
1.00459e-08
1.00368e-08
1.00434e-08
1.00359e-08
1.00457e-08
1.00367e-08
1.00433e-08
1.00358e-08
1.0038e-08
1.00331e-08
1.00409e-08
1.0034e-08
1.00381e-08
1.00332e-08
1.00409e-08
1.00341e-08
1.00512e-08
1.00774e-08
1.00952e-08
1.01086e-08
1.01101e-08
1.01081e-08
1.01098e-08
1.01034e-08
1.0106e-08
1.01045e-08
1.01065e-08
1.01032e-08
1.01034e-08
1.01027e-08
1.01014e-08
1.01054e-08
1.01053e-08
1.01051e-08
1.01041e-08
1.01021e-08
1.01006e-08
1.01024e-08
1.01007e-08
1.01047e-08
1.01036e-08
1.01049e-08
1.01037e-08
1.0102e-08
1.00983e-08
1.01049e-08
1.01026e-08
1.00263e-08
1.00216e-08
1.00305e-08
1.00508e-08
1.00738e-08
9.95476e-09
1.00039e-08
1.00057e-08
1.00076e-08
1.00103e-08
1.00216e-08
1.00254e-08
1.00368e-08
1.00612e-08
1.0029e-08
1.0029e-08
1.00406e-08
1.00406e-08
1.00269e-08
1.00262e-08
1.00264e-08
1.00267e-08
1.00269e-08
1.00262e-08
1.00265e-08
1.00267e-08
1.00271e-08
1.00272e-08
1.00315e-08
1.00343e-08
1.00318e-08
1.00337e-08
1.00317e-08
1.00343e-08
1.00319e-08
1.00337e-08
1.00302e-08
1.00312e-08
1.00295e-08
1.00324e-08
1.00303e-08
1.00312e-08
1.00296e-08
1.00323e-08
1.00375e-08
1.00331e-08
1.00376e-08
1.00332e-08
1.00408e-08
1.00766e-08
1.00932e-08
1.0101e-08
1.01046e-08
1.01044e-08
1.01071e-08
1.0104e-08
1.01069e-08
1.01028e-08
1.01059e-08
1.0096e-08
1.00965e-08
1.00983e-08
1.00969e-08
1.01007e-08
1.0101e-08
1.01023e-08
1.01014e-08
1.00938e-08
1.0099e-08
1.0094e-08
1.00977e-08
1.00992e-08
1.01031e-08
1.00992e-08
1.01021e-08
1.01003e-08
1.0095e-08
1.01014e-08
1.0096e-08
1.01042e-08
1.01002e-08
1.01049e-08
1.01009e-08
1.01021e-08
1.00979e-08
1.01019e-08
1.00971e-08
1.01052e-08
1.01024e-08
1.01052e-08
1.01018e-08
1.00255e-08
1.00306e-08
1.00501e-08
1.00733e-08
9.95477e-09
1.00035e-08
1.00057e-08
1.00081e-08
1.00167e-08
1.00311e-08
1.00506e-08
1.01057e-08
1.00809e-08
1.00809e-08
1.01051e-08
1.01051e-08
1.00342e-08
1.00341e-08
1.00399e-08
1.00406e-08
1.00342e-08
1.00341e-08
1.004e-08
1.00406e-08
1.00586e-08
1.00586e-08
1.00296e-08
1.00281e-08
1.0028e-08
1.00287e-08
1.00296e-08
1.00282e-08
1.00281e-08
1.00288e-08
1.00312e-08
1.00306e-08
1.00303e-08
1.00295e-08
1.00312e-08
1.00307e-08
1.00303e-08
1.00296e-08
1.00305e-08
1.00325e-08
1.00302e-08
1.00329e-08
1.00306e-08
1.00325e-08
1.00303e-08
1.00329e-08
1.00344e-08
1.00634e-08
1.00998e-08
1.01052e-08
1.01011e-08
1.01053e-08
1.00988e-08
1.01035e-08
1.00974e-08
1.01021e-08
1.00967e-08
1.00999e-08
1.01016e-08
1.00979e-08
1.01012e-08
1.01036e-08
1.01049e-08
1.01022e-08
1.00889e-08
1.00927e-08
1.00892e-08
1.00939e-08
1.00942e-08
1.00977e-08
1.00945e-08
1.00987e-08
1.00892e-08
1.00976e-08
1.00902e-08
1.00957e-08
1.00944e-08
1.0102e-08
1.00955e-08
1.01003e-08
1.00992e-08
1.00913e-08
1.01034e-08
1.00966e-08
1.00325e-08
1.0049e-08
1.00719e-08
9.95477e-09
1.00031e-08
1.00057e-08
1.00087e-08
1.00256e-08
1.00898e-08
1.0159e-08
1.01484e-08
1.01485e-08
1.01947e-08
1.01947e-08
1.01189e-08
1.0119e-08
1.01554e-08
1.01553e-08
1.00409e-08
1.00407e-08
1.00479e-08
1.00486e-08
1.00408e-08
1.00408e-08
1.00479e-08
1.00486e-08
1.00718e-08
1.00852e-08
1.00868e-08
1.00705e-08
1.00718e-08
1.00851e-08
1.00868e-08
1.00705e-08
1.00319e-08
1.00296e-08
1.00298e-08
1.00314e-08
1.0032e-08
1.00297e-08
1.00299e-08
1.00315e-08
1.00366e-08
1.00356e-08
1.00337e-08
1.00324e-08
1.00366e-08
1.00357e-08
1.00338e-08
1.00325e-08
1.00388e-08
1.00496e-08
1.00914e-08
1.01118e-08
1.01041e-08
1.01097e-08
1.01005e-08
1.01058e-08
1.0097e-08
1.01023e-08
1.00926e-08
1.00959e-08
1.00949e-08
1.00983e-08
1.00987e-08
1.01014e-08
1.01007e-08
1.01033e-08
1.0091e-08
1.00926e-08
1.009e-08
1.00889e-08
1.00941e-08
1.0096e-08
1.00972e-08
1.00987e-08
1.00962e-08
1.00955e-08
1.00986e-08
1.01001e-08
1.00924e-08
1.00914e-08
1.00975e-08
1.00964e-08
1.00877e-08
1.00916e-08
1.00875e-08
1.00931e-08
1.00926e-08
1.00967e-08
1.00924e-08
1.00978e-08
1.00489e-08
1.00695e-08
9.95477e-09
1.00027e-08
1.0006e-08
1.00107e-08
1.00743e-08
1.02546e-08
1.04246e-08
1.02065e-08
1.02065e-08
1.0283e-08
1.02831e-08
1.01297e-08
1.01006e-08
1.01301e-08
1.01433e-08
1.01442e-08
1.01018e-08
1.01006e-08
1.01297e-08
1.01019e-08
1.01301e-08
1.01433e-08
1.01441e-08
1.02e-08
1.01981e-08
1.01731e-08
1.01728e-08
1.02007e-08
1.01991e-08
1.01732e-08
1.0173e-08
1.00482e-08
1.00483e-08
1.00582e-08
1.00595e-08
1.00481e-08
1.00484e-08
1.00582e-08
1.00596e-08
1.0085e-08
1.00831e-08
1.0085e-08
1.00831e-08
1.0031e-08
1.00328e-08
1.00311e-08
1.00329e-08
1.00411e-08
1.00403e-08
1.00411e-08
1.00404e-08
1.00534e-08
1.00517e-08
1.00706e-08
1.01174e-08
1.01151e-08
1.01217e-08
1.01086e-08
1.01147e-08
1.00968e-08
1.01038e-08
1.00929e-08
1.00992e-08
1.00868e-08
1.00908e-08
1.00927e-08
1.00885e-08
1.00938e-08
1.0092e-08
1.00935e-08
1.00971e-08
1.0099e-08
1.00944e-08
1.00987e-08
1.0097e-08
1.00894e-08
1.00884e-08
1.00946e-08
1.00937e-08
1.00886e-08
1.00855e-08
1.00892e-08
1.00899e-08
1.00851e-08
1.00876e-08
1.00934e-08
1.00903e-08
1.00937e-08
1.00956e-08
1.00892e-08
1.00931e-08
1.00903e-08
1.0087e-08
1.00956e-08
1.0092e-08
1.00671e-08
9.95481e-09
1.00025e-08
1.00061e-08
1.00304e-08
1.01931e-08
1.05965e-08
1.05891e-08
1.06014e-08
1.06951e-08
1.07111e-08
1.02701e-08
1.02722e-08
1.03788e-08
1.03838e-08
1.01136e-08
1.01438e-08
1.01441e-08
1.01146e-08
1.01632e-08
1.01631e-08
1.01137e-08
1.01444e-08
1.01147e-08
1.01442e-08
1.0164e-08
1.01638e-08
1.02269e-08
1.02237e-08
1.01936e-08
1.01916e-08
1.0228e-08
1.02251e-08
1.01939e-08
1.01929e-08
1.00674e-08
1.00695e-08
1.00674e-08
1.00695e-08
1.00672e-08
1.00664e-08
1.0071e-08
1.00969e-08
1.01289e-08
1.0111e-08
1.01189e-08
1.01039e-08
1.01116e-08
1.00956e-08
1.00968e-08
1.00912e-08
1.00921e-08
1.01024e-08
1.01038e-08
1.0098e-08
1.00992e-08
1.00873e-08
1.00873e-08
1.00847e-08
1.00885e-08
1.00871e-08
1.00862e-08
1.00925e-08
1.00924e-08
1.00902e-08
1.00944e-08
1.00936e-08
1.0092e-08
1.00833e-08
1.00848e-08
1.00868e-08
1.0088e-08
1.00867e-08
1.00898e-08
1.00907e-08
1.00931e-08
1.00878e-08
1.00839e-08
1.00922e-08
1.00874e-08
1.00884e-08
1.0084e-08
1.00901e-08
1.00856e-08
1.00927e-08
1.00874e-08
1.00948e-08
1.00899e-08
9.955e-09
1.00024e-08
1.00129e-08
1.00548e-08
1.0567e-08
1.08464e-08
1.04881e-08
1.05122e-08
1.05429e-08
1.05856e-08
1.02917e-08
1.02719e-08
1.02745e-08
1.02909e-08
1.02948e-08
1.02741e-08
1.0277e-08
1.02947e-08
1.03794e-08
1.03875e-08
1.02394e-08
1.02392e-08
1.02108e-08
1.02077e-08
1.02409e-08
1.02409e-08
1.02101e-08
1.02097e-08
9.9557e-09
1.00738e-08
1.00907e-08
1.00941e-08
1.01234e-08
1.014e-08
1.01396e-08
1.01285e-08
1.01408e-08
1.01309e-08
1.01331e-08
1.01048e-08
1.01149e-08
1.00978e-08
1.0101e-08
1.00904e-08
1.00886e-08
1.01049e-08
1.01083e-08
1.00967e-08
1.00951e-08
1.00872e-08
1.00878e-08
1.00834e-08
1.00841e-08
1.00885e-08
1.00856e-08
1.00916e-08
1.00922e-08
1.0088e-08
1.00869e-08
1.00935e-08
1.00905e-08
1.00831e-08
1.00875e-08
1.00863e-08
1.00918e-08
1.00068e-08
1.00145e-08
1.01893e-08
1.10484e-08
1.04408e-08
1.04128e-08
1.11387e-08
1.07757e-08
1.03954e-08
1.04066e-08
1.03788e-08
1.03866e-08
1.02881e-08
1.0274e-08
1.0273e-08
1.03006e-08
1.02915e-08
1.02767e-08
1.02751e-08
1.03053e-08
1.03663e-08
1.03608e-08
1.03589e-08
1.03411e-08
1.03737e-08
1.03674e-08
1.0367e-08
1.03471e-08
1.02484e-08
1.02494e-08
1.0251e-08
1.02513e-08
9.95784e-09
1.00923e-08
1.01256e-08
1.01178e-08
1.01407e-08
1.01198e-08
1.01343e-08
1.0109e-08
1.01254e-08
1.01033e-08
1.01208e-08
1.01074e-08
1.00962e-08
1.00975e-08
1.01018e-08
1.01196e-08
1.01126e-08
1.01145e-08
1.01182e-08
1.00927e-08
1.00893e-08
1.00909e-08
1.00877e-08
1.01054e-08
1.01055e-08
1.00989e-08
1.00952e-08
1.0007e-08
1.00333e-08
1.05508e-08
1.1439e-08
1.05682e-08
1.04324e-08
1.13917e-08
1.09408e-08
1.03567e-08
1.03482e-08
1.03645e-08
1.03754e-08
1.03599e-08
1.03774e-08
1.03635e-08
1.03537e-08
1.0372e-08
1.03856e-08
1.03661e-08
1.03883e-08
1.03712e-08
1.0376e-08
1.02818e-08
1.02761e-08
1.02722e-08
1.02945e-08
1.02852e-08
1.02788e-08
1.02743e-08
1.02994e-08
1.0354e-08
1.03368e-08
1.03617e-08
1.03424e-08
9.96331e-09
1.01271e-08
1.01666e-08
1.01418e-08
1.01706e-08
1.01712e-08
1.0164e-08
1.01535e-08
1.01266e-08
1.0129e-08
1.01022e-08
1.01128e-08
1.00951e-08
1.00961e-08
1.00925e-08
1.00888e-08
1.00936e-08
1.00926e-08
1.01069e-08
1.01085e-08
1.01034e-08
1.00974e-08
1.01135e-08
1.01147e-08
1.00922e-08
1.00892e-08
1.01075e-08
1.0104e-08
1.00928e-08
1.00884e-08
1.01048e-08
1.0098e-08
1.0007e-08
1.0089e-08
1.23956e-08
1.17407e-08
1.18665e-08
1.27765e-08
1.24077e-08
1.09636e-08
1.05589e-08
1.16073e-08
1.15477e-08
1.03534e-08
1.03448e-08
1.035e-08
1.03556e-08
1.03414e-08
1.03603e-08
1.03599e-08
1.03494e-08
1.03617e-08
1.03817e-08
1.03532e-08
1.038e-08
1.03871e-08
1.03847e-08
1.03732e-08
1.03493e-08
1.03825e-08
1.03648e-08
1.03745e-08
1.03429e-08
9.97493e-09
1.01778e-08
1.02043e-08
1.01735e-08
1.01558e-08
1.01539e-08
1.01384e-08
1.01384e-08
1.01201e-08
1.01232e-08
1.00931e-08
1.00916e-08
1.00993e-08
1.00933e-08
1.00909e-08
1.00985e-08
1.01083e-08
1.01023e-08
1.00995e-08
1.01071e-08
1.01031e-08
1.01025e-08
1.00918e-08
1.00929e-08
1.00876e-08
1.00879e-08
1.00999e-08
1.01046e-08
1.00951e-08
1.0096e-08
1.00926e-08
1.00878e-08
1.01043e-08
1.00958e-08
1.00151e-08
1.02641e-08
4.5587e-08
1.25455e-08
1.23199e-08
2.08161e-08
1.70894e-08
1.05804e-08
1.0462e-08
1.16482e-08
1.11609e-08
1.14109e-08
1.13437e-08
1.03973e-08
1.03846e-08
1.10291e-08
1.06902e-08
1.07877e-08
1.07118e-08
1.18149e-08
1.21038e-08
1.0321e-08
1.03435e-08
1.03244e-08
1.03599e-08
1.04502e-08
1.04147e-08
1.03714e-08
1.0352e-08
9.99554e-09
1.02352e-08
1.02302e-08
1.02091e-08
1.01933e-08
1.01742e-08
1.01673e-08
1.0148e-08
1.01486e-08
1.01274e-08
1.01309e-08
1.01116e-08
1.01168e-08
1.01033e-08
1.01051e-08
1.01039e-08
1.01068e-08
1.01162e-08
1.01091e-08
1.01113e-08
1.01197e-08
1.01089e-08
1.01091e-08
1.00923e-08
1.0088e-08
1.00923e-08
1.00893e-08
1.00996e-08
1.01014e-08
1.00952e-08
1.00947e-08
1.00337e-08
1.33226e-08
9.24704e-07
1.83549e-08
1.50101e-08
9.37828e-08
5.90659e-08
1.07131e-08
1.06094e-08
1.19318e-08
1.16077e-08
1.18745e-08
1.18533e-08
1.04505e-08
1.04605e-08
1.19396e-08
1.10374e-08
1.13106e-08
1.1294e-08
1.24687e-08
1.18728e-08
1.19638e-08
1.19143e-08
1.22047e-08
1.21253e-08
1.22736e-08
1.22734e-08
1.0579e-08
1.0526e-08
1.04578e-08
1.04136e-08
1.00269e-08
1.02837e-08
1.02314e-08
1.01828e-08
1.01849e-08
1.01619e-08
1.01643e-08
1.01446e-08
1.01469e-08
1.01091e-08
1.01123e-08
1.01283e-08
1.01162e-08
1.01205e-08
1.01245e-08
1.01132e-08
1.01153e-08
1.01316e-08
1.01197e-08
1.01238e-08
1.01279e-08
1.01e-08
1.00964e-08
1.00974e-08
1.00909e-08
1.01032e-08
1.00956e-08
1.01051e-08
1.01015e-08
1.00819e-08
1.95207e-07
4.17147e-05
8.03269e-07
4.92963e-07
2.60146e-05
1.63445e-05
7.09161e-06
6.15974e-08
1.32929e-08
1.21251e-08
3.8155e-08
1.23313e-08
1.20212e-08
1.08574e-08
1.11845e-08
1.20097e-08
1.17877e-08
1.20593e-08
1.19803e-08
1.06451e-08
1.07062e-08
1.23568e-08
1.14375e-08
1.22554e-08
1.21066e-08
1.23911e-08
1.19747e-08
1.23858e-08
1.21761e-08
1.00685e-08
1.03037e-08
1.02295e-08
1.01874e-08
1.01987e-08
1.01642e-08
1.01714e-08
1.01452e-08
1.01484e-08
1.01365e-08
1.01409e-08
1.01288e-08
1.01325e-08
1.01499e-08
1.01311e-08
1.01349e-08
1.01509e-08
1.01418e-08
1.01443e-08
1.01082e-08
1.01058e-08
1.01186e-08
1.01167e-08
1.01117e-08
1.01088e-08
1.01213e-08
1.01194e-08
1.01022e-08
1.00986e-08
1.01058e-08
1.01013e-08
1.43468e-08
9.19185e-06
9.09067e-06
0.000490767
5.8064e-06
0.000327032
0.00017064
7.69326e-05
2.70158e-07
2.67205e-08
1.84015e-08
1.79463e-08
1.35189e-08
9.2173e-08
2.23359e-06
5.80012e-07
1.9793e-08
1.30663e-07
1.54412e-08
1.45229e-08
1.26103e-08
5.80038e-08
1.35478e-06
3.73838e-07
1.20266e-08
1.23963e-08
1.23054e-08
1.24298e-08
1.43105e-08
1.24549e-08
1.31855e-08
1.22486e-08
1.01178e-08
1.0311e-08
1.02413e-08
1.01712e-08
1.01858e-08
1.02701e-08
1.02093e-08
1.02259e-08
1.01515e-08
1.01392e-08
1.01482e-08
1.01649e-08
1.01485e-08
1.01556e-08
1.0129e-08
1.01245e-08
1.0123e-08
1.01193e-08
1.01329e-08
1.01275e-08
1.01343e-08
1.01296e-08
1.01108e-08
1.01056e-08
1.01187e-08
1.01082e-08
1.01139e-08
1.01083e-08
1.01225e-08
1.01137e-08
2.95537e-07
0.000272096
8.61349e-05
1.16467e-06
3.72833e-06
0.00512176
5.74846e-05
7.94084e-07
2.43357e-06
0.00361107
0.00161484
0.000809152
8.7411e-08
4.09947e-07
2.24688e-08
1.46538e-08
3.98892e-08
1.95889e-07
5.59903e-08
1.70388e-08
2.87149e-07
1.32275e-08
2.8544e-08
1.41286e-07
1.21651e-08
1.37636e-08
1.22631e-08
1.3035e-08
1.01473e-08
1.03224e-08
1.02001e-08
1.01907e-08
1.02045e-08
1.02363e-08
1.01714e-08
1.02e-08
1.0145e-08
1.0129e-08
1.01345e-08
1.01283e-08
1.01383e-08
1.01412e-08
1.01553e-08
1.01524e-08
1.01604e-08
1.01422e-08
1.01475e-08
1.01409e-08
1.01479e-08
1.01576e-08
1.0169e-08
1.0167e-08
1.01193e-08
1.01125e-08
1.01042e-08
1.01061e-08
1.01284e-08
1.01152e-08
1.01265e-08
1.01187e-08
1.01757e-05
0.00907546
0.0108364
0.00629513
0.00409366
0.00111215
0.000327949
0.0019865
3.6829e-06
1.89179e-05
1.18418e-05
1.39063e-05
0.00114454
0.000493251
0.000278251
0.0288419
0.00509275
0.00356456
0.00123222
2.50603e-06
1.1578e-05
7.60795e-06
9.56068e-06
0.000818948
0.00024187
0.000181343
0.022901
0.0033168
0.00270098
4.00049e-07
8.1552e-07
1.41467e-07
7.77642e-07
2.42551e-07
4.48285e-07
9.1205e-08
5.31861e-07
1.01502e-08
1.03258e-08
1.0199e-08
1.01517e-08
1.01803e-08
1.01829e-08
1.01793e-08
1.01921e-08
1.01948e-08
1.02415e-08
1.01647e-08
1.0196e-08
1.01299e-08
1.01621e-08
1.01163e-08