/*--------------------------------*- C++ -*----------------------------------*\
| =========                 |                                                 |
| \\      /  F ield         | OpenFOAM: The Open Source CFD Toolbox           |
|  \\    /   O peration     | Version:  5.x                                   |
|   \\  /    A nd           | Web:      www.OpenFOAM.org                      |
|    \\/     M anipulation  |                                                 |
\*---------------------------------------------------------------------------*/
FoamFile
{
    version     2.0;
    format      ascii;
    class       surfaceScalarField;
    location    "0.7";
    object      meshPhi;
}
// * * * * * * * * * * * * * * * * * * * * * * * * * * * * * * * * * * * * * //

dimensions      [0 3 -1 0 0 0 0];

internalField   nonuniform List<scalar> 
30582
(
0
0
0
0
0
0
0
0
0
0
0
0
0
0
0
0
0
0
0
0
0
0
0
0
0
0
0
0
0
0
0
0
0
0
0
0
0
0
0
0
0
0
0
0
0
0
0
0
0
0
0
0
0
0
0
0
0
0
0
0
0
0
0
0
0
0
0
0
0
0
0
0
0
0
0
0
0
0
0
0
0
0
0
0
0
0
0
0
0
0
0
0
0
0
0
0
0
0
0
0
0
0
0
0
0
0
0
0
0
0
0
0
0
0
0
0
0
0
0
0
0
0
0
0
0
0
0
0
0
0
0
0
0
0
0
0
0
0
0
0
0
0
0
0
0
0
0
0
0
0
0
0
0
0
0
0
0
0
0
0
0
0
0
0
0
0
0
0
0
0
0
0
0
0
0
0
0
0
0
0
0
0
0
0
0
0
0
0
0
0
0
0
0
0
0
0
0
0
0
0
0
0
0
0
0
0
0
0
0
0
0
0
0
0
0
0
0
0
0
0
0
0
0
0
0
0
0
0
0
0
0
0
0
0
0
0
0
0
0
0
0
0
0
0
0
0
0
0
0
0
0
0
0
0
0
0
0
0
0
0
0
0
0
0
0
0
0
0
0
0
0
0
0
0
0
0
0
0
0
0
0
0
0
0
0
0
0
0
0
0
0
0
0
0
0
0
0
0
0
0
0
0
0
0
0
0
0
0
0
0
0
0
0
0
0
0
0
0
0
0
0
0
0
0
0
0
0
0
0
0
0
0
0
0
0
0
0
0
0
0
0
0
0
0
0
0
0
0
0
0
0
0
0
0
0
0
0
0
0
0
0
0
0
0
0
0
0
0
0
0
0
0
0
0
0
0
0
0
0
0
0
0
0
0
0
0
0
0
0
0
0
0
0
0
0
0
0
0
0
0
0
0
0
0
0
0
0
0
0
0
0
0
0
0
0
0
0
0
0
0
0
0
0
0
0
0
0
0
0
0
0
0
0
0
0
0
0
0
0
0
0
0
0
0
0
0
0
0
0
0
0
0
0
0
0
0
0
0
0
0
0
0
0
0
0
0
0
0
0
0
0
0
0
0
0
0
0
0
0
0
0
0
0
0
0
0
0
0
0
0
0
0
0
0
0
0
0
0
0
0
0
0
0
0
0
0
0
0
0
0
0
0
0
0
0
0
0
0
0
0
0
0
0
0
0
0
0
0
0
0
0
0
0
0
0
0
0
0
0
0
0
0
0
0
0
0
0
0
0
0
0
0
0
0
0
0
0
0
0
0
0
0
0
0
0
0
0
0
0
0
0
0
0
0
0
0
0
0
0
0
0
0
0
0
0
0
0
0
0
0
0
0
0
0
0
0
0
0
0
0
0
0
0
0
0
0
0
0
0
0
0
0
0
0
0
0
0
0
0
0
0
0
0
0
0
0
0
0
0
0
0
0
0
0
0
0
0
0
0
0
0
0
0
0
0
0
0
0
0
0
0
0
0
0
0
0
0
0
0
0
0
0
0
0
0
0
0
0
0
0
0
0
0
0
0
0
0
0
0
0
0
0
0
0
0
0
0
0
0
0
0
0
0
0
0
0
0
0
0
0
0
0
0
0
0
0
0
0
0
0
0
0
0
0
0
0
0
0
0
0
0
0
0
0
0
0
0
0
0
0
0
0
0
0
0
0
0
0
0
0
0
0
0
0
0
0
0
0
0
0
0
0
0
0
0
0
0
0
0
0
0
0
0
0
0
0
0
0
0
0
0
0
0
0
0
0
0
0
0
0
0
0
0
0
0
0
0
0
0
0
0
0
0
0
0
0
0
0
0
0
0
0
0
0
0
0
0
0
0
0
0
0
0
0
0
0
0
0
0
0
0
0
0
0
0
0
0
0
0
0
0
0
0
0
0
0
0
0
0
0
0
0
0
0
0
0
0
0
0
0
0
0
0
0
0
0
0
0
0
0
0
0
0
0
0
0
0
0
0
0
0
0
0
0
0
0
0
0
0
0
0
0
0
0
0
0
0
0
0
0
0
0
0
0
0
0
0
0
0
0
0
0
0
0
0
0
0
0
0
0
0
0
0
0
0
0
0
0
0
0
0
0
0
0
0
0
0
0
0
0
0
0
0
0
0
0
0
0
0
0
0
0
0
0
0
0
0
0
0
0
0
0
0
0
0
0
0
0
0
0
0
0
0
0
0
0
0
0
0
0
0
0
0
0
0
0
0
0
0
0
0
0
0
0
0
0
0
0
0
0
0
0
0
0
0
0
0
0
0
0
0
0
0
0
0
0
0
0
0
0
0
0
0
0
0
0
0
0
0
0
0
0
0
0
0
0
0
0
0
0
0
0
0
0
0
0
0
0
0
0
0
0
0
0
0
0
0
0
0
0
0
0
0
0
0
0
0
0
0
0
0
0
0
0
0
0
0
0
0
0
0
0
0
0
0
0
0
0
0
0
0
0
0
0
0
0
0
0
0
0
0
0
0
0
0
0
0
0
0
0
0
0
0
0
0
0
0
0
0
0
0
0
0
0
0
0
0
0
0
0
0
0
0
0
0
0
0
0
0
0
0
0
0
0
0
0
0
0
0
0
0
0
0
0
0
0
0
0
0
0
0
0
0
0
0
0
0
0
0
0
0
0
0
0
0
0
0
0
0
0
0
0
0
0
0
0
0
0
0
0
0
0
0
0
0
0
0
0
0
0
0
0
0
0
0
0
0
0
0
0
0
0
0
0
0
0
0
0
0
0
0
0
0
0
0
0
0
0
0
0
0
0
0
0
0
0
0
0
0
0
0
0
0
0
0
0
0
0
0
0
0
0
0
0
0
0
0
0
0
0
0
0
0
0
0
0
0
0
0
0
0
0
0
0
0
0
0
0
0
0
0
0
0
0
0
0
0
0
0
0
0
0
0
0
0
0
0
0
0
0
0
0
0
0
0
0
0
0
0
0
0
0
0
0
0
0
0
0
0
0
0
0
0
0
0
0
0
0
0
0
0
0
0
0
0
0
0
0
0
0
0
0
0
0
0
0
0
0
0
0
0
0
0
0
0
0
0
0
0
0
0
0
0
0
0
0
0
0
0
0
0
0
0
0
0
0
0
0
0
0
0
0
0
0
0
0
0
0
0
0
0
0
0
0
0
0
0
0
0
0
0
0
0
0
0
0
0
0
0
0
0
0
0
0
0
0
0
0
0
0
0
0
0
0
0
0
0
0
0
0
0
0
0
0
0
0
0
0
0
0
0
0
0
0
0
0
0
0
0
0
0
0
0
0
0
0
0
0
0
0
0
0
0
0
0
0
0
0
0
0
0
0
0
0
0
0
0
0
0
0
0
0
0
0
0
0
0
0
0
0
0
0
0
0
0
0
0
0
0
0
0
-2.50861e-18
8.84741e-18
-3.58977e-25
2.6539e-17
1.32669e-17
1.77033e-17
0
0
0
0
0
0
0
0
0
0
0
0
0
0
0
0
0
0
0
0
0
0
0
0
0
0
0
0
0
0
0
0
0
0
0
0
0
0
4.41328e-18
1.3894e-34
-6.43765e-19
1.02285e-25
2.20957e-17
-1.76924e-17
-2.46653e-18
2.6539e-17
-4.42254e-18
2.65469e-17
-1.28033e-18
-2.8046e-25
-4.41947e-17
3.20352e-34
-1.89595e-18
2.6525e-17
6.41119e-18
-4.42083e-17
0
0
0
0
0
0
0
0
0
0
0
0
0
0
0
0
0
0
0
0
0
0
0
0
0
0
0
0
0
0
0
0
0
0
0
0
0
7.35207e-19
-3.80818e-18
2.79451e-17
-3.10628e-20
-5.28856e-17
-1.76126e-17
3.53284e-17
-1.15996e-35
-1.26163e-18
1.32574e-17
1.61065e-33
-6.50772e-19
1.78825e-25
2.20435e-17
0
7.51311e-17
-7.39379e-21
-3.53558e-17
-1.97495e-35
6.18179e-19
2.6525e-17
6.41119e-18
-2.6526e-17
-3.98916e-20
2.81399e-24
-2.6457e-17
2.46928e-34
-5.8053e-21
-3.5273e-17
0
0
0
0
0
0
0
0
0
0
0
0
0
0
0
0
0
0
0
0
0
0
0
0
0
0
0
0
0
0
0
0
0
0
0
1.38807e-17
2.64544e-17
1.76097e-17
4.45883e-18
4.51864e-20
2.08027e-34
7.95989e-20
4.77111e-20
3.08789e-17
1.01574e-17
-2.4375e-18
-1.73955e-17
-1.6027e-34
2.12651e-19
1.31823e-17
-2.37598e-18
-1.75779e-17
9.51341e-35
6.97392e-20
-4.41325e-18
0
3.78294e-19
7.68678e-24
7.6829e-18
-1.31633e-17
9.87542e-18
-1.3182e-17
0
0
1.83696e-18
-3.77465e-18
1.80474e-17
1.12522e-20
2.65049e-17
8.78047e-18
-5.28856e-17
-7.97831e-20
-3.5276e-17
-2.00836e-34
-8.82401e-18
-7.05816e-17
0
-3.5773e-24
1.97611e-17
-2.1932e-18
1.9748e-17
-4.40242e-18
0
-8.80757e-18
2.27413e-18
-8.87873e-18
8.80378e-18
-1.10115e-17
8.86594e-18
-1.11269e-17
2.21012e-18
0
0
0
0
0
0
0
0
0
0
0
0
0
0
0
0
0
0
0
0
0
0
0
0
0
0
0
0
0
0
0
0
0
-1.21745e-17
2.21337e-17
-1.76693e-17
1.32646e-17
8.95493e-18
-6.96417e-35
-3.80771e-18
2.64251e-17
2.40508e-18
-3.51551e-17
-2.60847e-34
8.96386e-18
1.32851e-17
0
-3.55072e-17
9.05357e-36
-1.88594e-11
-5.07737e-12
-1.88644e-09
7.58745e-14
-2.78713e-13
1.47996e-08
2.15957e-13
1.49789e-08
-1.31519e-10
8.01456e-19
-1.5488e-19
5.06322e-19
1.55559e-19
-4.4742e-18
1.71439e-17
1.12409e-18
1.06181e-17
2.04378e-18
3.30797e-34
-1.11634e-16
8.75527e-13
1.46422e-08
-1.16875e-14
2.95509e-08
6.18741e-19
1.07357e-18
2.40385e-17
4.38042e-18
3.06566e-17
0
-3.42642e-19
9.88484e-18
-4.39129e-18
1.42603e-17
-8.77884e-18
7.18901e-19
7.34834e-20
0
-4.58303e-19
7.65818e-18
-1.46433e-19
7.40696e-19
7.02217e-24
-4.3706e-18
0
8.96351e-23
-2.07642e-16
8.57678e-19
-8.74442e-18
0
0
-3.61055e-17
4.45896e-18
8.91894e-18
-1.52908e-20
1.76097e-17
0
1.2658e-18
1.1536e-18
4.392e-18
-6.34447e-18
-2.37587e-18
-1.89041e-33
0
1.44067e-22
1.31926e-17
-2.5333e-18
-8.77101e-18
-7.30344e-20
1.20734e-17
-4.38706e-18
7.68165e-18
-4.39663e-18
0
-8.80031e-18
4.47522e-18
-1.32799e-17
8.79839e-18
-1.32022e-17
1.10774e-17
-1.11054e-17
4.40479e-18
1.08901e-18
7.33782e-20
-1.2499e-18
7.64675e-18
0
7.31047e-20
-7.65958e-26
-7.6501e-18
-8.51274e-26
5.46447e-18
0
1.51506e-21
-1.2436e-18
0
0
1.74816e-17
-7.27484e-20
-1.18316e-18
8.75521e-13
0
1.23812e-10
-1.30685e-17
-8.94008e-19
1.46043e-19
1.52731e-17
7.25808e-20
-1.18266e-18
-8.80626e-18
3.31425e-17
-8.74613e-18
0
0
0
0
0
0
0
0
0
0
0
0
0
0
0
0
0
0
0
0
0
0
0
0
0
0
0
0
0
0
0
4.92116e-18
1.53793e-20
-8.79945e-18
8.96445e-18
-8.92244e-18
-2.22401e-35
-1.11483e-18
-1.3319e-17
1.23926e-17
-3.53415e-17
-3.13104e-35
-8.67425e-20
4.3947e-18
1.0224e-17
-1.76217e-17
9.80037e-26
4.24821e-09
-3.15193e-12
1.32749e-08
7.32282e-11
1.45609e-08
9.28813e-09
-4.32301e-18
1.76835e-17
1.38748e-12
-1.06421e-10
-3.40552e-27
-4.13957e-09
3.46177e-10
1.33577e-09
-1.2348e-10
4.25885e-10
-9.04925e-09
-1.27804e-12
-6.62134e-10
-1.12847e-12
2.16892e-10
0
2.58466e-19
-1.09367e-18
-8.93034e-13
7.15669e-20
-2.04292e-13
-1.29878e-13
7.70851e-17
-1.08555e-34
-1.5767e-08
-1.08349e-16
0
4.72788e-13
1.7619e-17
-3.04784e-34
-8.3248e-11
-4.37485e-18
0
1.91928e-09
1.45349e-08
7.15288e-20
-4.37532e-19
-8.87248e-18
0
5.51722e-19
-6.8661e-20
9.58124e-18
-1.1689e-18
3.64621e-18
5.56932e-19
-5.98834e-20
-1.59547e-19
1.32099e-17
-1.07965e-18
-2.09043e-17
4.54007e-19
1.53767e-17
1.13946e-25
-4.66951e-13
6.30386e-12
1.16738e-12
4.16755e-11
1.0354e-34
1.74287e-08
-1.84462e-09
-3.41272e-24
1.75859e-17
-3.8737e-35
-1.43144e-17
0
4.7423e-19
1.24774e-18
4.2896e-18
-8.84233e-19
-1.02491e-17
3.69413e-18
6.18769e-20
8.78287e-18
-1.65051e-17
6.00847e-19
7.34835e-20
0
-9.1862e-19
9.85187e-18
7.32165e-20
6.60074e-19
-1.09274e-17
0
-1.96713e-16
4.85676e-19
-1.75268e-17
-1.99204e-09
1.47313e-19
0
1.87718e-09
2.26172e-11
-7.26129e-20
1.05065e-13
1.21962e-22
-2.79547e-13
0
6.22873e-22
1.46785e-08
7.00444e-14
-1.45989e-14
0
0
-1.21745e-17
1.33383e-17
-8.80588e-18
-4.4643e-18
-8.7736e-18
4.14286e-34
3.65757e-18
1.19839e-18
8.90754e-18
-2.60534e-18
9.7091e-20
0
-4.94117e-34
4.44149e-18
0
0
2.2038e-17
1.62863e-08
-3.50214e-12
1.57074e-08
-2.17947e-18
-6.55356e-16
-2.17419e-18
6.18666e-19
-8.6693e-18
1.10744e-17
-4.38028e-18
2.40828e-17
0
-1.79485e-12
-1.30126e-10
6.41895e-14
-1.13965e-12
1.54255e-08
-1.55508e-17
-1.15638e-15
-2.0515e-09
9.1957e-22
2.08889e-18
-1.08957e-18
2.92262e-20
3.75094e-17
-5.49631e-18
3.53518e-17
3.50278e-18
8.90432e-19
7.33785e-20
-1.26896e-18
2.29975e-17
7.30856e-20
7.31084e-20
-1.09286e-18
1.31143e-17
-2.10983e-36
-2.19292e-18
-8.94177e-19
1.4625e-19
0
2.1862e-17
1.7441e-24
-1.317e-18
4.78615e-13
0
1.49495e-08
-1.52804e-17
-1.1616e-18
7.30205e-20
2.51438e-17
0
-1.2851e-18
-2.19042e-18
1.53483e-17
8.7769e-34
5.85149e-19
-1.47266e-19
-2.55591e-18
2.41315e-17
0
2.66073e-19
-1.97495e-24
-9.02803e-22
-9.12289e-24
4.34975e-17
8.97487e-20
-2.19254e-18
2.1311e-24
0
-1.4632e-08
-1.41544e-13
-7.30948e-20
8.57225e-18
-3.23059e-18
0
0
0
0
0
0
0
0
0
0
0
0
0
0
0
0
0
0
0
0
0
0
0
0
0
0
0
0
0
-1.50974e-17
2.21528e-17
-2.06859e-20
-4.40431e-18
-4.18653e-20
-7.89962e-34
-2.20088e-18
1.75797e-17
1.99445e-17
-1.75324e-17
-1.21265e-33
5.25556e-18
-1.77297e-17
5.25718e-18
-1.73752e-17
-3.4959e-26
-4.05732e-09
1.4237e-10
-1.49814e-08
-3.63721e-09
-1.49857e-08
-8.87075e-09
8.25678e-13
-2.77052e-10
-7.29617e-13
7.26526e-09
-1.06508e-26
6.00726e-11
-3.75542e-09
1.50454e-08
-3.6889e-09
1.49091e-08
1.27584e-10
3.61158e-13
7.52141e-09
6.74889e-13
7.37168e-09
0
5.66179e-12
-1.16737e-12
1.81274e-08
-9.86788e-35
-1.84314e-09
-6.88756e-20
-4.62425e-09
2.82747e-17
1.36376e-26
-1.64284e-12
-1.95566e-17
0
-3.19879e-18
4.5067e-18
5.96998e-19
-1.15594e-17
-6.87907e-20
1.74499e-12
1.0868e-17
9.24739e-09
-3.14855e-17
1.39333e-19
-6.30386e-12
4.37981e-09
1.51382e-17
-1.80174e-08
1.35313e-26
1.6357e-12
-3.98253e-16
-7.06857e-20
2.23358e-17
-1.28302e-26
-1.11176e-17
-1.39185e-19
-1.35367e-18
-1.63555e-12
7.91163e-18
6.50177e-18
-8.75832e-09
5.94127e-18
7.06174e-20
1.34013e-17
-1.77673e-17
5.34462e-20
4.08583e-13
-3.54248e-25
-2.21396e-18
-1.6959e-17
-7.11586e-35
1.17268e-34
2.49458e-09
-2.49249e-20
5.83681e-14
-4.1808e-34
-7.89407e-09
-1.29911e-33
4.79339e-20
-2.83721e-34
-7.37849e-19
-1.03847e-18
1.82357e-18
-2.49411e-20
-4.382e-19
1.74054e-19
0
8.3597e-19
1.26956e-18
-1.14803e-18
-1.24876e-35
6.99296e-17
3.24556e-20
-4.20046e-34
-3.82767e-34
1.24342e-19
-7.06795e-19
-1.12216e-18
-2.08241e-18
0
7.33581e-11
7.36544e-20
0
1.93979e-09
-1.48137e-08
-7.26127e-20
6.17025e-19
1.22959e-14
0
-1.46919e-08
2.91858e-14
-1.3864e-13
-1.09618e-09
4.03095e-20
7.05509e-34
1.23344e-09
0
-1.05064e-13
-6.66295e-22
3.30838e-34
-1.14256e-21
-7.00425e-14
0
0
5.12825e-18
8.92093e-18
-1.18826e-32
-8.81417e-18
-8.82974e-18
1.28113e-35
7.60114e-18
-3.49209e-19
4.37362e-18
-1.23082e-17
1.04006e-17
-5.29093e-17
1.11942e-35
4.35156e-18
-3.52822e-17
1.49339e-26
-4.24816e-09
-4.13963e-09
3.50088e-10
1.65127e-08
-1.26538e-10
1.53887e-08
-9.28822e-09
-9.04925e-09
-1.32546e-12
-6.62112e-10
-1.12604e-12
2.16914e-10
-4.29744e-25
-1.07984e-12
2.92019e-08
7.30245e-11
1.4561e-08
-3.24211e-18
1.32626e-17
1.39234e-12
-1.06377e-10
6.39904e-20
4.07473e-20
-6.26007e-12
-4.08585e-13
-4.84035e-17
0
-1.74284e-08
-1.44882e-08
6.19078e-20
1.04874e-18
1.54048e-17
0
-2.68672e-17
-1.31352e-17
6.39476e-20
3.04759e-19
6.3638e-19
3.40325e-20
4.46559e-19
-4.38115e-18
5.58342e-18
-6.18698e-20
6.19534e-19
6.58233e-18
-8.45543e-19
-2.08472e-17
-3.97903e-24
-1.46444e-18
-5.98283e-13
-8.93035e-13
-7.15657e-20
1.34248e-13
2.20338e-13
4.24327e-18
0
-1.5767e-08
-3.21595e-09
5.99187e-20
2.19257e-17
0
-1.86403e-17
0
-2.26068e-10
3.03427e-08
-6.25439e-20
-5.2035e-19
3.56384e-19
-2.2695e-19
7.1529e-20
-2.71493e-19
-4.43033e-18
4.68398e-19
-4.04476e-18
3.6461e-18
5.98831e-20
8.80101e-18
-9.80521e-18
3.97261e-19
2.86444e-17
1.23353e-18
-7.3632e-20
-3.03407e-18
3.07079e-17
1.85012e-33
1.4486e-19
-2.17449e-18
2.39281e-17
-2.0708e-19
-1.00278e-21
1.46231e-19
0
1.47309e-08
3.63339e-13
-7.30958e-20
2.58819e-17
-3.23973e-18
-3.82741e-19
-4.02816e-20
-4.92347e-19
-3.81426e-20
9.4508e-20
-4.94421e-24
2.76802e-23
-4.95114e-20
8.70882e-20
1.51353e-34
-4.35287e-20
0
0
0
0
0
0
0
0
0
0
0
0
0
0
0
0
0
0
0
0
0
0
0
0
0
0
0
0
6.63588e-17
7.31934e-34
7.69203e-18
-8.88018e-18
2.48691e-17
-8.74172e-18
3.32192e-33
7.40679e-18
4.37028e-18
-1.5091e-17
-2.65044e-17
-4.3512e-25
-5.20391e-18
3.48415e-09
2.49643e-17
7.62499e-09
-5.48636e-34
-1.25181e-17
2.20487e-17
2.58837e-17
-4.40984e-17
1.18226e-24
-2.21802e-12
-7.73912e-18
-2.34672e-10
0
-3.86988e-16
-6.86891e-20
4.4399e-09
-2.19598e-17
0
2.22532e-12
8.79451e-18
1.35264e-19
-6.67738e-19
-3.31701e-18
-6.98232e-18
1.97202e-17
-6.86107e-20
-1.4957e-12
-1.46268e-20
-8.87694e-09
1.64831e-17
-6.99919e-20
-2.97682e-12
-9.47384e-11
2.27637e-12
-4.0778e-10
0
4.05475e-10
1.50475e-08
-6.96395e-20
-2.19791e-17
0
7.65272e-18
-6.99088e-20
-2.18804e-18
4.96139e-13
-8.83271e-18
2.52795e-18
2.01001e-10
2.42222e-17
-6.95712e-20
-1.09846e-17
1.64564e-17
3.73222e-20
2.91842e-13
3.9866e-11
-1.2006e-34
4.21778e-20
2.91842e-13
-3.40378e-34
-9.56741e-11
3.73392e-20
-7.63208e-19
1.57668e-18
-4.22014e-20
-9.26128e-19
2.45148e-18
6.66834e-20
-3.61071e-18
2.06596e-18
1.11873e-17
-1.64953e-16
-1.11658e-34
3.8986e-17
9.5732e-16
5.43511e-20
-4.92693e-34
6.6687e-20
1.25245e-19
-6.13991e-19
1.21798e-18
5.92429e-18
-1.22797e-18
-3.3982e-17
-5.43589e-20
7.44394e-11
4.03106e-20
4.77265e-34
1.07099e-09
0
-6.27466e-14
2.18356e-34
-2.91841e-14
0
0
2.49189e-17
-4.41463e-18
-8.8683e-18
-1.32337e-17
1.77087e-17
-8.14752e-35
2.20088e-18
1.02527e-17
-8.13284e-20
-1.50234e-17
-5.94129e-32
-3.52416e-17
-5.54733e-34
8.71815e-18
-3.52079e-17
4.72688e-27
4.05751e-09
-1.40911e-17
-5.09999e-12
-1.50457e-08
-3.6816e-09
-1.49104e-08
8.87094e-09
1.75145e-17
-4.42525e-18
1.3268e-17
6.42051e-13
7.37183e-09
3.4959e-26
1.42198e-10
-1.49813e-08
-3.63741e-09
-1.49858e-08
8.29317e-13
-2.77019e-10
-7.29615e-13
7.26526e-09
-3.55964e-24
-8.05493e-12
4.37974e-09
1.08866e-17
-1.83068e-08
0
1.6357e-12
-4.00763e-16
7.06852e-20
4.62408e-09
2.46021e-17
0
1.59299e-12
-4.5699e-18
0
-1.41749e-18
-1.63555e-12
8.11312e-18
9.45848e-18
-8.75832e-09
1.3864e-18
0
-1.69513e-12
9.00205e-18
-9.24739e-09
-1.78863e-17
-6.64751e-20
5.89527e-12
4.08582e-13
1.81274e-08
0
-1.45322e-08
-6.88745e-20
1.32176e-17
0
-9.8495e-18
-6.07181e-34
-1.99116e-18
-2.0149e-18
6.77287e-19
1.17635e-17
6.87913e-20
6.56617e-18
-2.0703e-17
3.44886e-20
5.83691e-14
1.91159e-12
-8.93796e-09
0
9.54772e-09
3.24348e-20
-1.34248e-13
0
7.06532e-09
-2.63945e-33
-8.34675e-20
-9.55611e-21
6.08123e-19
-1.04142e-18
0
4.38226e-19
-1.83672e-18
0
1.24034e-13
-3.54249e-25
-3.53183e-18
-1.66679e-17
0
2.6753e-34
1.2911e-09
2.49158e-20
0
5.34288e-20
1.12128e-19
-2.86381e-34
-2.62862e-19
3.40731e-18
-7.81743e-19
0
7.22944e-19
0
-1.18279e-18
-3.81445e-20
-1.10958e-20
-5.08682e-20
8.70893e-20
3.47963e-34
0
0
0
0
0
0
0
0
0
0
0
0
0
0
0
0
0
0
0
0
0
0
0
0
0
0
0
0
2.6224e-18
-9.00195e-35
-1.97055e-17
-1.77013e-17
-3.5369e-17
-7.03128e-22
-1.76892e-17
-2.61249e-33
-2.57269e-18
4.44867e-18
9.36738e-18
-2.62981e-17
-1.84869e-33
8.85886e-18
-3.5313e-17
0
-2.52077e-18
-9.33908e-13
-4.23278e-10
1.33035e-17
-8.8039e-18
-1.8171e-16
-6.54295e-18
-1.02652e-18
-2.64851e-18
1.39473e-17
1.54651e-17
-6.57128e-18
1.96752e-17
-2.97752e-20
0
1.06484e-18
3.20345e-18
-1.55102e-17
7.60747e-18
-1.76306e-17
1.24892e-17
9.87909e-18
6.66558e-18
1.87004e-17
0
6.41798e-20
-1.89318e-19
-7.50485e-18
-2.95065e-18
0
2.99258e-17
0
6.40911e-18
-1.5231e-17
0
-5.5605e-18
1.30122e-17
0
-1.28314e-18
1.08667e-18
-1.23861e-18
1.17744e-17
-6.76884e-20
6.1294e-19
-2.10362e-18
-6.51441e-18
2.0766e-17
-2.12634e-19
-8.02074e-18
-1.52049e-17
4.90459e-18
0
-1.81562e-16
8.09202e-34
-4.29001e-18
0
3.21753e-18
-6.31044e-34
1.63003e-18
4.54576e-18
7.37908e-18
1.85078e-17
-7.06476e-20
-6.55128e-18
9.73306e-18
-2.12863e-32
1.59462e-19
-3.86324e-35
-5.85785e-17
5.92001e-34
1.45516e-18
2.99068e-18
0
0
0
6.63726e-17
-1.41873e-33
-1.04404e-19
2.35419e-18
-4.44743e-18
-9.69399e-18
-2.00751e-17
-1.77386e-17
-8.72418e-34
-9.22102e-20
-3.52912e-17
6.6391e-36
1.75431e-19
-1.26876e-17
2.20487e-17
-1.52598e-17
2.52061e-17
-8.55888e-18
-3.57685e-35
-1.43909e-17
-2.19119e-18
9.5059e-32
2.97682e-12
-5.80042e-12
-2.27639e-12
4.0778e-10
0
-4.05971e-10
-1.50475e-08
1.39285e-19
-4.43982e-09
-1.9773e-17
0
-2.23991e-12
1.75605e-17
6.99086e-20
-2.64752e-18
2.48934e-18
-6.64407e-18
6.14583e-18
-6.61339e-18
1.64657e-17
0
1.49571e-12
-6.59119e-18
8.8767e-09
2.30848e-17
1.18218e-24
-2.39312e-12
-1.42634e-17
-2.35118e-10
0
-3.88131e-16
-6.86892e-20
-2.41668e-17
0
1.10117e-17
6.76313e-20
2.78969e-18
-9.89649e-18
-4.9283e-18
2.39954e-17
6.86083e-20
-8.7846e-18
1.5399e-17
-6.66852e-20
-5.43954e-18
8.72436e-19
7.47581e-18
-1.65069e-16
0
3.82808e-17
1.11167e-15
-1.62025e-24
-2.91842e-13
0
9.56741e-11
0
-1.25578e-18
-1.2105e-18
-2.35697e-18
8.05915e-18
-2.43297e-18
-2.9341e-17
1.08718e-19
9.26128e-19
-2.45148e-18
-7.46355e-20
2.91843e-13
3.9866e-11
0
0
0
-3.34996e-33
-1.1389e-18
1.93444e-18
-4.22012e-20
0
0
0
0
0
0
0
0
0
0
0
0
0
0
0
0
0
0
0
0
0
0
0
0
0
0
-1.33157e-17
4.69993e-33
1.01704e-17
1.46756e-17
4.35693e-18
1.4361e-17
-1.51414e-17
-4.42177e-17
6.64386e-33
-1.77694e-17
-4.41569e-18
0
-2.6549e-17
3.62575e-25
2.4954e-18
3.72677e-09
-2.99143e-13
5.01061e-12
3.78825e-09
4.99163e-18
2.99139e-13
-7.45355e-09
-7.55451e-09
7.47853e-13
1.73992e-33
4.56292e-18
-8.58096e-18
-1.8696e-19
6.80234e-20
0
4.40465e-18
-1.3232e-17
0
-1.41374e-18
1.92617e-12
6.42062e-13
0
1.6834e-08
1.50208e-08
-2.51927e-18
4.44431e-18
-1.55792e-18
8.19171e-35
9.50651e-18
-8.87227e-18
0
-1.32988e-18
-1.56999e-20
6.52462e-18
8.76733e-18
-1.4146e-17
-2.58715e-18
-4.38845e-18
-1.39675e-17
6.8809e-20
0
1.96763e-18
0
-1.49029e-17
-8.37595e-12
-2.39314e-12
0
-6.28794e-10
-1.4787e-08
-8.83231e-18
-2.07661e-17
1.37513e-19
1.09207e-17
6.87291e-20
-3.85676e-18
6.70916e-19
2.16829e-18
-6.53437e-18
1.65148e-17
-2.18441e-18
-2.70486e-20
-1.98401e-18
8.6197e-19
0
0
1.34885e-18
0
-8.98188e-19
2.7072e-20
4.5589e-19
7.22959e-19
4.00502e-20
1.3557e-18
-2.48556e-18
-6.85152e-20
-7.58801e-13
2.33494e-13
1.53763e-08
0
3.11197e-08
5.30757e-20
0
-2.27162e-33
3.17916e-19
8.45029e-18
6.39907e-18
-2.70537e-17
-1.06168e-19
0
0
0
0
-2.55509e-18
-5.11018e-18
-1.99848e-17
-8.89766e-18
-6.20762e-17
4.43389e-18
-2.65695e-17
1.66993e-33
2.41919e-18
-1.33026e-17
-1.96571e-17
-2.64844e-17
1.69213e-33
2.20069e-17
-4.41691e-17
0
2.26312e-18
2.69032e-18
1.09646e-17
-9.92315e-18
9.85409e-18
-8.83694e-18
0
3.01959e-17
1.64575e-17
-9.99027e-18
1.42433e-17
-2.21553e-18
0
-2.43691e-12
-1.74795e-08
5.49648e-18
-4.08584e-12
8.30808e-11
-2.12834e-18
-1.19926e-18
1.8421e-17
5.45503e-18
-4.37304e-18
9.78812e-18
-6.60521e-18
-7.08741e-20
-6.2304e-18
4.08582e-12
6.18627e-18
0
1.11553e-09
-1.41352e-19
-4.90396e-18
-1.74194e-17
0
2.93335e-18
3.2488e-18
1.41676e-19
-3.15864e-18
4.08014e-20
5.87914e-18
4.82969e-18
7.06546e-20
-1.83901e-18
2.18982e-18
6.10286e-18
1.30448e-17
0
2.9936e-18
2.25273e-18
-3.42152e-18
0
1.63536e-16
-6.7716e-20
-1.09317e-17
0
2.10325e-18
1.28318e-19
4.81506e-19
-8.69227e-18
-4.06324e-18
-4.48238e-18
1.35379e-19
-8.50586e-18
7.73025e-18
-4.19154e-32
-2.70812e-18
0
-8.46367e-17
3.16852e-34
8.48915e-19
8.08368e-19
0
0
0
0
0
0
0
0
0
0
0
0
0
0
0
0
0
0
0
0
0
0
0
0
4.62916e-18
0
-2.50642e-17
1.76716e-17
-2.65972e-17
-1.31743e-17
-1.76205e-17
-1.34477e-24
4.23961e-09
-4.04397e-09
3.64059e-09
4.85215e-13
-3.98843e-09
-2.63874e-12
9.25033e-09
-8.84362e-09
-4.85198e-13
-7.28157e-09
2.63876e-12
7.97761e-09
4.23445e-24
3.58109e-09
7.8137e-09
6.98653e-20
1.6233e-10
2.39311e-12
1.18561e-12
-9.87084e-26
-1.48817e-08
-1.71679e-24
-2.11481e-25
1.83374e-08
3.97426e-10
-6.94591e-12
6.94589e-12
0
-7.47847e-13
-6.60639e-18
-3.23477e-10
1.98163e-17
1.42162e-19
-1.11542e-17
3.9537e-17
-1.0812e-19
-6.6316e-18
-2.77376e-26
-1.83025e-08
-4.43605e-12
3.57267e-09
-6.97386e-13
-8.8185e-18
-9.42218e-16
1.72682e-17
-1.46741e-18
6.96782e-13
-7.1453e-09
2.27806e-18
2.6586e-17
-1.14127e-08
1.01852e-19
0
-1.23771e-09
3.14372e-20
1.16733e-13
-1.60514e-13
0
1.79134e-08
-3.50217e-13
-5.85008e-18
0
-4.62282e-18
1.47992e-33
8.62272e-22
1.51994e-18
-4.50202e-18
-5.20028e-19
1.71037e-08
-2.66237e-25
0
-1.60372e-08
-6.62955e-20
1.22574e-12
1.96996e-12
4.66958e-13
0
1.75403e-08
-2.37264e-09
1.89704e-13
-1.70177e-17
1.35138e-19
-9.61426e-18
-6.62631e-20
-2.54523e-18
2.39816e-18
9.70882e-19
-1.96185e-17
-1.06335e-18
4.77789e-18
-1.90805e-24
0
5.27524e-34
0
0
0
0
0
-1.33158e-17
-5.25989e-33
-2.55111e-19
7.51126e-18
1.33002e-17
-1.45313e-17
0
-2.65492e-17
-1.52952e-33
2.13585e-18
4.45968e-17
-1.49084e-17
-2.64657e-17
-7.32677e-34
2.49759e-18
1.76567e-17
-9.47141e-18
-1.78269e-17
-6.62604e-25
3.74373e-09
-1.09684e-12
1.73253e-11
3.93194e-09
1.09685e-12
-7.48855e-09
-7.78919e-09
2.1937e-12
-8.2082e-18
-6.88095e-20
0
-7.15615e-18
2.27972e-18
2.09337e-24
-7.13376e-18
1.91912e-11
5.83689e-12
0
1.8169e-08
-7.99144e-11
1.03587e-17
-2.37583e-19
-1.30259e-17
-6.87591e-20
-1.01677e-17
1.28321e-18
0
-5.15988e-18
1.96883e-18
-2.21724e-18
0
8.77047e-18
3.91503e-18
6.64767e-18
-1.80934e-18
-9.65654e-34
0
-1.43383e-17
-6.49771e-20
1.65804e-19
-5.25321e-12
-1.45921e-12
0
-3.37857e-08
-4.40138e-10
1.76474e-17
1.47512e-18
0
-2.09544e-17
0
1.20621e-18
-6.36878e-19
-3.30362e-18
1.62587e-17
-2.16691e-17
6.62979e-18
-6.85143e-20
-5.83692e-13
2.43691e-12
-1.34615e-09
0
1.74466e-08
0
3.50213e-13
0
1.22411e-08
-6.85156e-20
2.08587e-19
2.46262e-18
4.74194e-18
-2.45048e-17
5.30831e-20
-4.50001e-19
2.72367e-18
8.1135e-20
-2.14091e-18
8.61947e-19
0
4.00211e-20
0
0
-1.49141e-18
1.5895e-18
-4.00407e-20
0
0
0
0
0
0
0
0
0
0
0
0
0
0
0
0
0
0
0
0
1.51394e-17
-2.80821e-22
-8.96717e-18
8.94711e-18
-8.81288e-18
-1.17031e-33
-1.24898e-17
1.2596e-17
2.00188e-21
1.46554e-17
0
-1.77239e-17
-1.77945e-33
1.09404e-19
1.34602e-17
-2.19119e-19
-3.68859e-17
0
1.23539e-17
4.3143e-09
-1.08133e-17
2.04276e-16
0
8.86077e-13
-7.74556e-16
2.10947e-19
-4.728e-09
-1.30334e-17
0
-5.74692e-12
1.53024e-17
-6.94997e-20
2.59518e-18
-8.86479e-13
1.28267e-19
-1.82626e-17
-8.62773e-09
2.92473e-17
0
4.58683e-12
-2.10043e-18
9.45047e-09
2.17694e-17
0
-5.92441e-18
5.38268e-18
4.37165e-18
1.11427e-17
-7.99407e-18
8.74356e-18
1.58952e-18
1.08924e-17
-3.27767e-18
0
-1.57416e-17
-8.74181e-18
-2.479e-24
-1.05063e-12
-3.49712e-18
-1.87784e-08
1.49545e-33
-1.10293e-18
-7.21922e-20
3.02534e-33
-8.73259e-10
-3.56051e-12
1.41945e-33
3.00358e-18
-3.2721e-18
-1.88057e-17
7.12884e-18
-7.21644e-20
1.09334e-17
-9.64441e-19
7.02047e-20
-8.99115e-18
-1.51321e-17
2.07199e-17
0
-7.74827e-16
1.10838e-31
5.0891e-18
4.41576e-18
0
1.43775e-17
4.30183e-18
-7.01113e-20
8.06558e-19
-6.91262e-20
8.27417e-18
3.96989e-17
-6.85318e-20
1.08147e-18
-4.48171e-18
-2.50466e-18
1.0795e-18
2.74547e-09
1.30449e-24
0
-3.16741e-20
4.37774e-14
3.15193e-12
0
2.37597e-08
-1.72078e-18
-1.01415e-33
3.16835e-20
-7.77509e-19
9.16056e-19
-7.24564e-18
0
0
0
0
0
0
1.50009e-17
0
5.54107e-17
-4.11911e-18
-9.22211e-18
-8.74695e-18
-1.77617e-17
-1.65899e-24
-4.12306e-09
7.07353e-11
-9.00375e-09
1.39609e-10
2.04369e-24
1.3958e-10
3.76642e-09
5.51145e-10
-1.56133e-10
7.22791e-10
2.99513e-10
4.6087e-13
-7.56113e-09
1.73769e-12
3.55314e-10
5.16459e-27
1.76222e-08
-4.55278e-12
3.86942e-09
1.64608e-08
3.51673e-12
1.59945e-08
-1.47382e-12
-7.63533e-10
6.66655e-18
-1.075e-19
-8.65812e-13
-7.68256e-09
-1.18313e-18
3.98535e-18
-1.24084e-18
1.47843e-17
6.98697e-20
4.71788e-09
-5.83691e-12
4.28769e-12
-1.28003e-25
5.84421e-12
1.3466e-24
-6.46561e-26
1.46644e-08
-4.55279e-12
-6.98114e-20
-2.1937e-12
-6.60626e-18
-9.42923e-09
3.29862e-18
-7.10747e-20
5.27193e-18
-8.88918e-18
-1.7104e-08
0
0
1.53034e-08
1.59555e-08
6.62949e-20
-6.42064e-13
7.93819e-12
-2.40434e-18
0
3.64205e-08
3.74673e-17
-5.25318e-13
-2.77248e-13
-1.72361e-18
0
2.11207e-18
-2.42854e-18
6.62693e-20
-5.09185e-18
3.84433e-18
2.16288e-18
-2.49733e-18
4.2379e-18
5.66174e-18
-1.18723e-18
1.10986e-08
5.09244e-20
0
3.14355e-20
1.16733e-13
-1.79484e-12
0
-4.62323e-09
-8.02797e-18
-5.0934e-20
0
7.0504e-20
4.28904e-19
-6.46719e-18
3.00288e-24
0
3.88057e-34
0
0
0
0
0
0
0
0
0
0
0
0
0
0
0
0
0
1.78401e-17
-4.29303e-35
-1.01367e-17
-5.06086e-18
-1.5615e-19
-1.80603e-17
1.23488e-34
3.17726e-19
-1.36926e-19
1.01364e-17
-2.68299e-17
-9.09758e-25
-4.08069e-09
1.37897e-11
1.71799e-08
-1.86781e-12
2.11587e-12
-3.08151e-08
1.37304e-10
-1.51833e-08
1.6948e-08
-8.9271e-09
1.7549e-19
1.19623e-17
1.25467e-18
2.28049e-18
2.7467e-18
-8.98019e-18
-1.15522e-12
-2.93534e-10
2.67727e-24
-4.18814e-09
4.15118e-09
1.56261e-08
1.59507e-10
1.53211e-08
-9.13909e-09
-3.27961e-12
-8.26921e-09
4.29255e-13
-3.30876e-10
6.82815e-20
1.55631e-17
-3.32704e-12
-8.75539e-13
-1.36768e-17
0
-1.7433e-08
-3.24313e-11
0
-1.31721e-17
0
1.09195e-17
-8.85688e-34
2.89825e-18
-6.12006e-19
3.28472e-18
-1.81758e-17
4.68878e-18
5.38345e-24
0
-6.63247e-18
9.8714e-18
7.50569e-18
6.74699e-20
0
-1.76928e-18
-1.53476e-17
1.4292e-19
9.44158e-18
-1.16737e-12
0
1.45062e-08
3.63314e-18
2.61997e-17
1.02903e-17
-6.74366e-20
1.91702e-19
-2.4064e-17
-7.12618e-20
1.21055e-18
3.29023e-18
-8.27505e-18
9.53149e-20
8.61651e-18
-1.084e-23
1.05064e-12
-1.72135e-08
0
-7.06452e-20
0
-1.80612e-17
1.19587e-17
1.04645e-19
-9.26317e-19
-1.22853e-17
1.36595e-33
-3.49703e-17
4.80059e-18
-6.72522e-20
-2.33483e-13
1.38627e-12
-9.70903e-10
0
1.55018e-08
-4.38867e-20
-3.50207e-13
0
-9.86451e-09
6.7242e-20
1.43761e-19
5.89188e-18
1.44067e-17
-1.8668e-17
0
3.40751e-19
-8.61402e-18
0
0
0
0
0
0
5.54539e-17
8.94711e-18
1.77617e-17
-1.77539e-17
-8.96717e-18
5.67122e-34
1.24901e-17
9.90093e-18
2.25754e-17
-3.55805e-17
8.84948e-32
-1.73794e-17
-6.36859e-35
-2.87767e-18
-1.65453e-21
0
9.50695e-19
0
4.53017e-09
3.63469e-12
7.64714e-18
-6.77001e-22
-4.43136e-18
-8.7439e-18
7.80324e-18
-4.84112e-18
-2.94156e-12
-9.05703e-09
7.64873e-18
0
1.68343e-19
-8.74186e-18
9.30211e-18
5.47357e-18
-6.95528e-20
9.22232e-12
-1.54706e-10
-8.55018e-18
1.7862e-08
0
-9.97403e-13
7.30148e-17
0
-1.97664e-17
0
1.86188e-17
4.55067e-25
6.84819e-18
9.97136e-13
-1.20655e-17
-1.78918e-17
3.08714e-10
1.39352e-17
7.02002e-20
-1.1132e-17
1.74355e-17
-1.40413e-19
-8.87209e-12
-8.9075e-18
-1.82552e-08
0
8.30834e-17
6.85675e-20
-2.28964e-19
-4.49442e-12
0
2.47045e-18
-1.76967e-08
0
1.40085e-12
2.37853e-12
-6.43905e-34
-9.09061e-10
1.60817e-08
1.40216e-19
1.34955e-18
1.09491e-18
-4.62144e-18
1.60212e-17
-6.85208e-20
0
-1.30894e-18
3.5823e-18
7.392e-18
-7.216e-20
-1.74885e-18
1.15717e-18
5.91732e-18
-4.51123e-19
2.47914e-24
1.59055e-12
-3.08459e-34
1.40801e-08
-7.03884e-20
-1.16696e-18
4.37633e-18
-7.74638e-09
-3.27299e-25
0
0
5.83684e-14
-5.69099e-13
0
1.17197e-10
2.74658e-09
1.86437e-24
3.16809e-20
-6.71243e-13
-8.52434e-19
2.48095e-18
0
0
0
0
0
0
0
0
0
0
0
0
0
0
2.50157e-17
1.3034e-18
5.51977e-17
-1.26274e-19
-2.64476e-17
-4.05888e-18
1.8549e-19
-2.97818e-25
-1.50995e-17
-3.70908e-09
2.07612e-17
-8.0924e-09
-5.70616e-34
1.75691e-17
-1.73999e-17
-5.63232e-20
-1.92617e-12
-1.503e-12
1.13079e-17
-1.39628e-19
-1.1673e-13
-2.61201e-12
1.23553e-10
0
1.17553e-08
-1.37085e-08
0
4.42306e-09
1.2992e-17
0
1.08956e-12
-1.41782e-17
0
1.70175e-08
-1.75524e-08
-1.39625e-19
-2.18827e-18
2.63765e-18
5.63291e-20
-1.24939e-18
-6.51842e-19
5.96907e-18
-7.72621e-18
-2.40522e-17
-3.58072e-18
-8.10003e-18
-1.48178e-17
1.29525e-19
-1.09686e-12
6.49585e-18
-8.84557e-09
-1.63291e-17
1.4138e-19
-5.19486e-12
4.58178e-09
-9.36261e-18
-6.603e-10
0
3.45516e-12
3.02889e-18
-6.99169e-20
2.29369e-18
0
-6.10645e-22
-5.16206e-26
-2.35815e-18
-3.45471e-12
-3.45862e-18
2.30124e-17
-9.16193e-09
5.77159e-18
0
-4.70306e-18
5.89774e-20
0
5.3574e-18
-9.77681e-13
-7.34979e-18
0
-7.40528e-09
-6.69771e-20
2.30922e-17
0
-2.54463e-17
4.34104e-20
1.71586e-18
2.22189e-18
-9.69942e-18
-6.33396e-18
0
9.23026e-18
-3.47095e-17
0
0
1.14393e-16
6.18223e-18
6.7792e-34
-9.23166e-18
2.26316e-18
-4.54124e-26
0
-1.2209e-34
3.31227e-24
0
5.53956e-34
0
0
0
0
0
0
0
1.7466e-17
1.11543e-34
1.01367e-17
1.0133e-17
1.77492e-17
1.5615e-19
1.01364e-17
-1.78866e-17
-2.38278e-34
3.96951e-18
-1.80603e-17
-5.91991e-25
-5.12917e-18
-4.18807e-09
4.15078e-09
1.56255e-08
-6.50572e-12
1.5322e-08
-1.703e-17
-9.13909e-09
-3.17016e-12
-8.26912e-09
2.39096e-18
1.73649e-17
-2.46772e-34
-6.04588e-19
-2.32114e-16
2.18886e-13
-2.33476e-12
-1.44462e-08
-1.0183e-11
-1.51842e-08
-1.69483e-08
-1.3273e-18
3.75293e-18
2.35029e-18
-2.52413e-18
-4.25462e-19
-7.70997e-18
4.40624e-18
8.88115e-18
8.10881e-18
6.74715e-20
0
-4.51987e-18
-2.80749e-18
0
1.14988e-17
6.59184e-18
0
-1.59808e-16
1.96929e-17
1.40266e-18
6.99244e-20
0
1.21675e-17
1.31097e-17
-1.80027e-17
-1.32035e-17
1.1255e-17
1.69116e-34
-1.43169e-17
-5.97807e-18
0
3.99283e-18
-4.7083e-18
-4.39827e-18
7.48276e-20
1.9085e-19
-6.98868e-20
1.55045e-17
3.2383e-18
-4.88066e-18
-8.82263e-18
0
-2.63088e-20
-1.09301e-18
0
7.81025e-17
8.97004e-16
6.826e-20
-4.44628e-18
-1.09905e-18
-7.26906e-18
-2.19011e-17
6.72522e-20
-4.0858e-13
8.17177e-13
-9.7037e-10
0
1.57776e-08
4.38744e-20
-1.75105e-13
1.4126e-19
-2.8163e-12
-6.42047e-13
0
-9.86138e-09
0
-1.72142e-08
-1.58753e-08
-1.43883e-33
-2.40182e-18
3.44513e-18
3.45803e-18
-3.27249e-17
4.38878e-20
3.64739e-19
1.41242e-19
-1.50803e-18
3.59887e-18
-5.62436e-18
1.27406e-18
-1.32321e-17
-5.23334e-20
0
5.2325e-20
0
0
0
0
0
0
0
0
0
0
0
2.25352e-17
-2.65453e-34
1.53421e-19
4.97307e-18
1.80197e-17
6.1534e-19
-3.88991e-17
-8.27596e-18
5.43161e-34
2.57578e-17
1.81362e-17
1.98724e-17
-4.51161e-17
0
-3.02349e-17
-1.98455e-12
-3.61983e-10
8.75073e-18
-2.62662e-12
1.52373e-08
-1.32619e-17
2.0697e-17
-4.96748e-18
1.00425e-17
1.42577e-17
-3.12389e-18
1.87386e-17
-4.36319e-18
0
4.38972e-18
-2.63298e-17
5.7529e-24
-8.40333e-25
-1.83371e-18
4.35317e-17
0
0
2.20658e-25