/*--------------------------------*- C++ -*----------------------------------*\
| =========                 |                                                 |
| \\      /  F ield         | OpenFOAM: The Open Source CFD Toolbox           |
|  \\    /   O peration     | Version:  5.x                                   |
|   \\  /    A nd           | Web:      www.OpenFOAM.org                      |
|    \\/     M anipulation  |                                                 |
\*---------------------------------------------------------------------------*/
FoamFile
{
    version     2.0;
    format      ascii;
    class       volScalarField;
    location    "0.7";
    object      nut;
}
// * * * * * * * * * * * * * * * * * * * * * * * * * * * * * * * * * * * * * //

dimensions      [0 2 -1 0 0 0 0];

internalField   nonuniform List<scalar> 
12160
(
9.72602e-10
9.12224e-10
1.12156e-07
9.74532e-10
1.02108e-07
1.17246e-07
9.76568e-10
3.81077e-08
1.12008e-07
3.35861e-08
1.04045e-09
3.31446e-08
5.79564e-08
5.27621e-08
2.94143e-08
1.09038e-09
2.11395e-08
4.40985e-08
6.89686e-08
2.90886e-08
1.22743e-08
1.21203e-09
1.59086e-08
2.31731e-08
3.70197e-08
6.0188e-08
2.08888e-08
1.13847e-08
1.35603e-09
1.24588e-08
1.64318e-08
1.99042e-08
5.93331e-08
5.41192e-08
9.68713e-09
3.9635e-09
1.56926e-09
1.15355e-08
1.25541e-08
1.40693e-08
2.12699e-08
3.05692e-08
1.77853e-08
6.13457e-09
2.21985e-09
1.84877e-09
1.10902e-08
1.15284e-08
1.10819e-08
1.43071e-08
1.85554e-08
2.37652e-08
1.09167e-08
2.71093e-09
3.46803e-09
2.21657e-09
1.15498e-08
1.10607e-08
1.03127e-08
1.13371e-08
1.22165e-08
1.51246e-08
6.61636e-09
5.24427e-09
3.23784e-09
8.33833e-10
2.69441e-09
1.25231e-08
1.15168e-08
1.00704e-08
1.06928e-08
9.46684e-09
1.00567e-08
4.95716e-09
3.06873e-09
2.81012e-09
2.84673e-09
1.68712e-09
3.31217e-09
1.40606e-08
1.25017e-08
1.05989e-08
1.05827e-08
8.75476e-09
8.51337e-09
4.20221e-09
2.21016e-09
2.76362e-09
2.30471e-09
2.42609e-09
3.93392e-09
4.10872e-09
1.61978e-08
1.40605e-08
1.16008e-08
1.1291e-08
8.64677e-09
8.6505e-09
4.12654e-09
1.79194e-09
2.76076e-09
1.7145e-09
3.83464e-09
3.14645e-09
2.67187e-09
5.13566e-09
1.90211e-08
1.62194e-08
1.31212e-08
1.24999e-08
9.16163e-09
9.29555e-09
4.28702e-09
1.53416e-09
2.25514e-09
2.58214e-09
1.75977e-09
1.18296e-08
6.09828e-09
3.60154e-09
6.46323e-09
2.26455e-08
1.9067e-08
1.52015e-08
1.42698e-08
1.00817e-08
1.05796e-08
4.45637e-09
1.41712e-09
2.28307e-09
2.48303e-09
1.1031e-09
6.20459e-09
8.99213e-09
5.98891e-09
8.1895e-09
2.72124e-08
2.27227e-08
1.79353e-08
1.66478e-08
1.14469e-08
1.22481e-08
4.55765e-09
1.38714e-09
3.38485e-09
1.39222e-09
9.73944e-10
6.97471e-09
7.79113e-09
4.27041e-08
1.04594e-08
3.28677e-08
2.73368e-08
2.14465e-08
1.97434e-08
1.33042e-08
1.43321e-08
4.53798e-09
1.44354e-09
5.33208e-09
9.03858e-10
9.80671e-10
2.40568e-08
3.60863e-09
7.64239e-09
1.35003e-08
3.97319e-08
3.30706e-08
2.58927e-08
2.37032e-08
1.57476e-08
1.68804e-08
4.45283e-09
1.61405e-09
3.99588e-09
9.62986e-10
1.18821e-09
7.40403e-09
3.51991e-09
3.5055e-09
1.77017e-08
4.78282e-08
4.00675e-08
3.14488e-08
2.87219e-08
1.89007e-08
2.00171e-08
4.34396e-09
1.92389e-09
3.12284e-09
1.08322e-09
1.72457e-09
6.60915e-09
4.60275e-09
4.51811e-09
2.38041e-08
5.69666e-08
4.83891e-08
3.82851e-08
3.50332e-08
2.29213e-08
2.39204e-08
4.24083e-09
2.45482e-09
2.79923e-09
1.25778e-09
2.73784e-09
9.56302e-09
9.10802e-09
5.99811e-09
3.33538e-08
6.65972e-08
5.7899e-08
4.65159e-08
4.29054e-08
2.7992e-08
2.8837e-08
4.16107e-09
3.34468e-09
2.75505e-09
1.51942e-09
4.29618e-09
1.18214e-08
2.03245e-08
1.37699e-08
4.97204e-08
7.57127e-08
6.81069e-08
5.60893e-08
5.26165e-08
3.43108e-08
3.50957e-08
4.11468e-09
4.76105e-09
2.89074e-09
1.93137e-09
6.3436e-09
1.28969e-08
1.79284e-08
5.65589e-08
7.59512e-08
8.29055e-08
7.79996e-08
6.66165e-08
6.43604e-08
4.20568e-08
4.31548e-08
4.11347e-09
7.0777e-09
3.11664e-09
2.59025e-09
8.81191e-09
1.34198e-08
1.51288e-08
2.85239e-08
8.07209e-08
8.67737e-08
8.59783e-08
7.71187e-08
7.80426e-08
5.13003e-08
5.36903e-08
4.17464e-09
1.03807e-08
3.38811e-09
3.61624e-09
1.17664e-08
1.37561e-08
1.43088e-08
2.10138e-08
5.46419e-08
8.64969e-08
9.03487e-08
8.58823e-08
9.27862e-08
6.18302e-08
6.77168e-08
4.32959e-09
1.3901e-08
3.64332e-09
5.26527e-09
1.53408e-08
1.43825e-08
1.43123e-08
1.92055e-08
3.665e-08
8.22635e-08
9.00501e-08
9.08453e-08
1.06216e-07
7.28068e-08
8.67789e-08
4.63931e-09
1.54696e-08
3.86435e-09
7.77013e-09
1.88733e-08
1.57313e-08
1.4924e-08
1.90836e-08
2.63076e-08
7.51934e-08
8.53012e-08
9.05967e-08
1.14435e-07
8.24257e-08
1.12816e-07
5.2362e-09
1.39447e-08
4.10528e-09
1.14857e-08
2.27726e-08
1.82044e-08
1.63147e-08
1.99193e-08
1.98406e-08
6.67268e-08
7.74862e-08
8.53672e-08
1.14101e-07
8.81339e-08
1.45882e-07
6.45074e-09
1.13283e-08
4.45096e-09
1.69335e-08
2.78154e-08
2.23013e-08
1.88053e-08
2.18344e-08
1.54627e-08
5.80383e-08
6.82937e-08
7.68797e-08
1.05575e-07
8.79595e-08
1.74887e-07
9.35511e-09
9.10936e-09
5.0356e-09
2.47311e-08
3.53747e-08
2.88723e-08
2.29293e-08
2.5255e-08
1.23268e-08
4.98993e-08
5.90511e-08
6.71387e-08
9.26014e-08
8.21231e-08
1.73912e-07
2.03729e-08
7.51761e-09
6.21103e-09
3.60069e-08
4.45798e-08
3.96151e-08
2.95587e-08
3.09313e-08
9.9918e-09
4.26837e-08
5.05402e-08
5.75691e-08
7.88339e-08
7.291e-08
1.44609e-07
6.69167e-08
6.67237e-09
8.96068e-09
4.92407e-08
4.99706e-08
5.9074e-08
4.06121e-08
4.02783e-08
8.20583e-09
3.64927e-08
4.30828e-08
4.89255e-08
6.6232e-08
6.27237e-08
1.12781e-07
1.3721e-08
6.51081e-09
1.74071e-08
4.94243e-08
5.14167e-08
9.80371e-08
5.99423e-08
5.64702e-08
6.81308e-09
3.12819e-08
3.67371e-08
4.14685e-08
5.54611e-08
5.30694e-08
8.80081e-08
8.12717e-09
6.98224e-09
3.01225e-08
4.18e-08
5.30437e-08
1.39328e-07
9.07844e-08
8.79458e-08
5.71123e-09
2.69445e-08
3.14281e-08
3.51963e-08
4.65296e-08
4.46091e-08
6.98979e-08
6.18012e-09
8.08434e-09
1.27967e-08
4.02852e-08
5.55829e-08
1.09852e-07
1.17836e-07
1.62284e-07
4.82987e-09
2.3359e-08
2.70292e-08
2.99944e-08
3.92189e-08
3.74791e-08
5.65894e-08
5.2758e-09
9.70199e-09
7.84308e-09
4.60407e-08
5.70203e-08
8.49402e-08
1.22761e-07
3.72967e-07
4.11856e-09
2.04054e-08
2.34046e-08
2.57124e-08
3.32641e-08
3.15867e-08
4.65913e-08
4.80173e-09
1.17322e-08
5.96812e-09
5.20158e-08
5.46622e-08
8.06962e-08
1.21793e-07
4.88226e-07
3.54069e-09
1.79824e-08
2.04256e-08
2.22014e-08
2.84185e-08
2.67646e-08
3.89179e-08
4.54209e-09
1.36669e-08
5.09429e-09
4.20965e-08
5.19084e-08
9.29348e-08
1.22285e-07
3.65043e-07
3.06793e-09
1.59929e-08
1.79849e-08
1.93261e-08
2.44718e-08
2.28357e-08
3.2923e-08
4.40367e-09
1.43759e-08
4.61066e-09
2.96106e-08
4.80448e-08
1.14675e-07
1.2068e-07
3.38537e-07
2.68177e-09
1.44034e-08
1.59818e-08
1.69753e-08
2.12504e-08
1.9639e-08
2.81689e-08
4.34019e-09
1.30989e-08
4.3042e-09
2.11254e-08
4.36236e-08
9.87309e-08
1.13178e-07
3.51455e-07
1.30295e-08
2.1828e-09
1.43812e-08
1.50486e-08
1.86185e-08
1.70376e-08
2.43503e-08
4.32688e-09
1.0648e-08
4.07986e-09
1.53613e-08
3.71311e-08
6.45967e-08
9.15104e-08
2.81276e-07
1.29887e-08
1.14511e-08
1.70216e-09
1.3506e-08
1.6458e-08
1.49206e-08
2.12479e-08
4.34945e-09
8.15893e-09
3.88046e-09
1.12071e-08
2.99771e-08
4.40636e-08
6.52137e-08
1.62473e-07
1.2169e-08
1.13964e-08
1.0093e-08
1.38729e-09
1.47269e-08
1.31925e-08
1.87002e-08
4.39842e-09
6.14304e-09
3.66765e-09
8.24347e-09
2.45696e-08
3.25622e-08
4.59369e-08
9.62427e-08
1.31929e-08
1.06296e-08
1.00096e-08
9.55729e-09
1.1846e-09
1.18045e-08
1.65775e-08
4.46702e-09
4.67954e-09
3.43719e-09
6.13245e-09
2.082e-08
2.5517e-08
3.38071e-08
6.38568e-08
1.0611e-08
1.14584e-08
9.23811e-09
9.41374e-09
9.74107e-09
1.04802e-09
1.48114e-08
4.55115e-09
3.66734e-09
3.22246e-09
4.62336e-09
1.80429e-08
2.08424e-08
2.6314e-08
4.62589e-08
1.32066e-08
9.26944e-09
9.84108e-09
8.53806e-09
9.51182e-09
9.69987e-09
9.58263e-10
4.64769e-09
2.9362e-09
3.03061e-09
3.55598e-09
1.57366e-08
1.76011e-08
2.13843e-08
3.56734e-08
4.7135e-09
1.13317e-08
8.03915e-09
8.95096e-09
8.37663e-09
9.76644e-09
9.20759e-09
9.87451e-10
2.39838e-09
2.84313e-09
2.80312e-09
1.34532e-08
1.53602e-08
1.80454e-08
2.88707e-08
2.00796e-09
4.73558e-09
9.27485e-09
7.39436e-09
8.67291e-09
8.32286e-09
9.50523e-09
2.90299e-09
7.32502e-10
2.67891e-09
2.2484e-09
1.12015e-08
1.38058e-08
1.57698e-08
2.43271e-08
2.54928e-09
1.57989e-09
4.87207e-09
7.86998e-09
7.26182e-09
8.70857e-09
7.83159e-09
4.78196e-09
4.93451e-09
2.14523e-09
1.82203e-09
9.20628e-09
1.27432e-08
1.4219e-08
2.12175e-08
1.58557e-09
3.10624e-09
1.47103e-09
4.77745e-09
7.18488e-09
7.5835e-09
8.77431e-09
5.15256e-09
4.28089e-09
2.70278e-09
8.06814e-10
7.29526e-09
1.20453e-08
1.32174e-08
1.91142e-08
6.08479e-09
1.25943e-09
5.08295e-09
1.4834e-09
4.67856e-09
7.19492e-09
8.43075e-09
7.15595e-09
3.91749e-09
1.18263e-08
2.34671e-09
1.00152e-09
1.16615e-08
1.2653e-08
1.77816e-08
1.29828e-08
4.5219e-09
1.08589e-09
6.27509e-09
1.58526e-09
4.73585e-09
8.2524e-09
9.85164e-09
4.20098e-09
1.02704e-08
7.84673e-09
3.13314e-09
1.20093e-09
2.77475e-10
1.25418e-08
1.70772e-08
1.35163e-08
1.36569e-08
2.53073e-09
9.9267e-10
2.92829e-09
1.73948e-09
5.17909e-09
1.39473e-08
7.5169e-09
4.82966e-09
9.78137e-09
7.33151e-09
8.91294e-10
1.29464e-09
2.97348e-09
2.58999e-10
1.7063e-08
1.81295e-08
1.51372e-08
1.20234e-08
1.49994e-09
9.9578e-10
2.12141e-09
1.9648e-09
7.24187e-09
1.94774e-08
3.56979e-09
6.02463e-09
9.10333e-09
6.95536e-10
9.2034e-10
1.08721e-09
2.15068e-09
2.89557e-08
2.58003e-10
2.03892e-08
1.84973e-08
9.25795e-09
1.08179e-09
1.32591e-09
1.90854e-09
2.34786e-09
1.33406e-08
4.39208e-09
3.33066e-09
6.70046e-09
9.21703e-10
8.40644e-10
9.05814e-10
9.29071e-10
1.45001e-09
2.99849e-09
5.67566e-09
2.6663e-10
2.85337e-08
2.19884e-08
7.14502e-09
9.38112e-10
2.0315e-09
1.94468e-09
2.86653e-09
5.26376e-09
2.14721e-09
3.96274e-09
1.21624e-09
9.42267e-10
7.78625e-10
8.10656e-10
1.17476e-09
1.0877e-09
1.72421e-09
3.11298e-09
3.27032e-09
2.73503e-10
5.59303e-08
9.47379e-09
7.27728e-09
8.9828e-10
1.91587e-09
2.09929e-09
2.92713e-09
2.33762e-09
2.0667e-09
1.36219e-09
1.09418e-09
8.18328e-10
7.9953e-10
9.60198e-10
8.63711e-09
1.8277e-09
1.37126e-09
1.82572e-09
2.56178e-09
2.33985e-09
2.90796e-10
1.30566e-08
5.11399e-09
9.59067e-09
9.36677e-10
1.78838e-09
2.01958e-09
2.23188e-09
1.62476e-09
1.34006e-09
1.22164e-09
1.02322e-09
9.84334e-10
9.65673e-10
2.33821e-09
1.05333e-09
1.28407e-08
1.08079e-09
6.73509e-10
6.61722e-10
3.0531e-09
1.62891e-09
1.76023e-09
2.00823e-09
1.76591e-09
3.12088e-10
6.45186e-09
3.65763e-09
1.66351e-08
1.07199e-09
1.69701e-09
1.67808e-09
1.65555e-09
1.45543e-09
1.23639e-09
1.26332e-09
1.20983e-09
1.06922e-09
1.79982e-09
8.67753e-09
1.25912e-09
2.14501e-09
5.47721e-09
1.31981e-09
1.16647e-09
1.19721e-09
2.40618e-09
1.41087e-09
1.4565e-09
5.82038e-09
1.95894e-09
1.56556e-09
1.51847e-09
1.52527e-09
3.42682e-10
4.54312e-09
3.07746e-09
1.19191e-08
1.418e-09
1.58022e-09
1.39791e-09
1.56224e-09
1.32219e-09
1.35999e-09
1.40532e-09
1.3334e-09
1.63957e-09
6.11116e-09
1.3333e-09
1.31518e-09
8.94664e-10
8.82508e-10
2.85364e-09
4.09405e-09
5.78379e-09
7.67314e-09
3.33136e-09
4.27351e-09
4.72595e-09
4.19804e-09
4.55179e-09
4.37876e-09
6.46119e-09
1.91072e-09
1.30134e-09
1.32589e-09
1.37638e-09
3.82277e-10
2.88037e-09
2.84392e-09
6.22037e-09
2.34154e-09
1.25184e-09
1.34352e-09
1.43224e-09
1.44091e-09
1.39133e-09
1.65505e-09
1.4251e-09
3.84041e-09
6.22679e-10
6.17293e-10
5.29988e-10
5.27934e-10
2.44548e-09
2.3837e-09
1.68288e-09
1.62676e-09
3.25387e-09
2.28138e-09
1.66892e-09
2.2404e-09
1.60478e-09
6.93791e-09
7.94164e-09
3.23149e-09
3.2446e-09
3.26589e-09
3.27891e-09
3.28285e-09
3.19177e-09
3.22812e-09
2.22485e-09
1.5752e-09
2.16001e-09
1.5318e-09
1.9932e-09
1.53511e-09
2.46461e-09
1.57621e-09
2.03675e-09
1.51846e-09
2.44945e-09
1.51506e-09
4.68066e-09
1.83166e-09
1.19774e-09
1.27676e-09
1.29494e-09
4.35372e-10
2.77747e-09
2.72328e-09
4.37984e-09
5.99547e-09
1.0938e-09
1.3626e-09
1.52721e-09
1.47199e-09
1.7219e-09
1.49075e-09
2.85411e-09
4.33263e-10
4.33084e-10
3.93568e-10
3.94059e-10
1.45421e-09
1.41838e-09
1.02658e-09
1.01832e-09
1.71031e-09
1.40821e-09
2.07394e-09
1.6009e-09
1.6533e-09
2.4604e-09
1.39307e-09
1.69657e-09
2.06362e-09
1.58532e-09
1.63845e-09
2.42288e-09
1.67952e-09
1.20575e-09
1.59695e-09
1.1941e-09
1.64539e-09
1.21138e-09
1.56928e-09
1.18152e-09
2.31265e-09
1.66411e-09
2.15426e-09
1.72656e-09
4.56311e-09
1.56366e-09
5.68436e-09
1.54434e-09
6.56125e-09
9.6257e-09
3.23062e-09
3.27753e-09
3.20599e-09
3.2347e-09
2.97605e-09
2.95773e-09
2.81759e-09
2.779e-09
2.26729e-09
1.59535e-09
2.16466e-09
1.64952e-09
2.55535e-09
1.91111e-09
2.28359e-09
1.74617e-09
2.4844e-09
1.83992e-09
2.26943e-09
1.67668e-09
4.61204e-09
1.51544e-09
5.84901e-09
1.50215e-09
3.12997e-09
1.52885e-09
3.11943e-09
1.50811e-09
5.0477e-09
1.73396e-09
1.22591e-09
1.22781e-09
1.21784e-09
5.08498e-10
2.80261e-09
2.88787e-09
3.68216e-09
3.33911e-09
1.02686e-09
1.49911e-09
1.55711e-09
1.73436e-09
1.82756e-09
2.06722e-09
3.65709e-10
3.66316e-10
3.63357e-10
3.63774e-10
7.94791e-10
7.95689e-10
7.19741e-10
7.22699e-10
1.64746e-09
1.09739e-09
1.50288e-09
1.2339e-09
1.56924e-09
1.13483e-09
1.39516e-09
1.31722e-09
9.25045e-10
1.34364e-09
1.10485e-09
1.23479e-09
8.91213e-10
1.37839e-09
1.04793e-09
1.2835e-09
1.7633e-09
1.66738e-09
2.70205e-09
2.88068e-09
1.66209e-09
2.78243e-09
1.76029e-09
1.65061e-09
2.96796e-09
2.92306e-09
1.62489e-09
2.82525e-09
1.68499e-09
1.99995e-09
1.62694e-09
2.13044e-09
1.64994e-09
2.01276e-09
1.58951e-09
2.15984e-09
7.9082e-09
1.53326e-09
6.73506e-09
1.53354e-09
6.54287e-09
1.65482e-09
8.60879e-09
1.69456e-09
7.95953e-09
9.62816e-09
3.33488e-09
3.40024e-09
3.28165e-09
3.34329e-09
3.15128e-09
3.16856e-09
3.07374e-09
3.07527e-09
1.58254e-09
4.09484e-09
1.51495e-09
4.37032e-09
1.56757e-09
4.23698e-09
1.4945e-09
4.49693e-09
1.48789e-09
1.52814e-09
1.02381e-08
1.46322e-09
5.2476e-09
4.07685e-09
1.47293e-09
1.48235e-09
1.14854e-08
1.44296e-09
5.55225e-09
3.92339e-09
8.41388e-09
1.49589e-09
7.14612e-09
1.49264e-09
7.85931e-09
1.52408e-09
8.03469e-09
1.48173e-09
7.44712e-09
1.65807e-09
9.94227e-09
1.69874e-09
4.22331e-09
1.75623e-09
4.57151e-09
1.76738e-09
4.63777e-09
1.68889e-09
1.24383e-09
1.16925e-09
1.17401e-09
6.09528e-10
3.05343e-09
2.98811e-09
3.58543e-09
1.85034e-09
9.05237e-10
1.83077e-09
1.92219e-09
2.44626e-09
1.9624e-09
3.6349e-10
3.64023e-10
3.39875e-10
3.39787e-10
6.10676e-10
6.1299e-10
6.06004e-10
6.06391e-10
7.23113e-10
1.21578e-09
6.52581e-10
1.44743e-09
7.10583e-10
1.23956e-09
6.44231e-10
1.477e-09
5.18373e-10
2.03332e-09
5.66139e-10
1.50134e-09
5.11162e-10
2.1891e-09
5.50506e-10
1.63738e-09
1.64849e-09
1.71393e-09
1.59385e-09
1.63874e-09
1.61681e-09
1.67402e-09
1.56702e-09
1.6227e-09
1.19543e-09
1.5365e-09
1.35949e-09
1.42932e-09
1.17126e-09
1.58129e-09
1.33987e-09
1.44235e-09
1.56564e-08
1.60825e-09
1.20342e-08
1.57212e-09
1.36537e-08
8.08052e-09
3.5702e-09
3.61564e-09
3.4549e-09
3.51265e-09
3.31626e-09
3.35213e-09
3.19915e-09
3.22905e-09
1.6715e-09
3.40276e-09
1.65335e-09
3.59073e-09
1.67493e-09
3.48197e-09
1.64789e-09
3.7127e-09
1.63353e-09
3.82972e-09
1.65236e-09
3.87211e-09
1.61677e-09
3.92952e-09
1.64207e-09
4.00413e-09
1.89876e-09
7.35867e-09
1.82676e-09
7.69258e-09
1.8371e-09
6.91873e-09
1.75897e-09
7.14134e-09
1.52369e-09
1.68191e-09
7.94482e-09
1.06059e-08
1.7746e-09
8.80383e-09
1.49763e-09
1.63778e-09
7.1575e-09
9.97375e-09
1.72332e-09
7.93658e-09
1.55348e-08
1.60005e-09
1.3429e-08
1.5566e-09
1.45372e-08
1.56931e-09
1.41767e-08
1.54995e-09
3.68839e-09
1.66609e-09
1.28929e-09
1.17931e-09
1.14808e-09
7.49034e-10
3.16763e-09
3.52985e-09
3.12388e-09
1.45579e-09
8.04608e-10
2.83144e-09
3.03632e-09
2.66241e-09
2.60431e-09
6.01871e-10
6.02935e-10
5.68744e-10
5.69629e-10
8.83143e-10
8.84904e-10
7.96254e-10
7.98966e-10
9.15487e-10
1.43738e-09
7.98952e-10
1.51378e-09
9.0428e-10
1.47353e-09
7.91284e-10
1.53768e-09
7.05186e-10
1.48671e-09
7.17544e-10
1.49145e-09
6.89652e-10
1.58018e-09
7.03215e-10
1.57267e-09
1.19037e-09
1.49238e-09
1.17349e-09
1.50326e-09
1.38013e-08
9.87668e-09
5.10832e-09
5.02166e-09
3.77013e-09
3.78526e-09
3.87212e-09
3.9289e-09
3.59427e-09
3.64433e-09
2.23009e-09
2.9937e-09
1.8522e-09
3.16729e-09
2.19998e-09
3.00172e-09
1.85303e-09
3.22499e-09
1.69961e-09
3.20428e-09
1.7903e-09
3.17199e-09
1.70544e-09
3.29766e-09
1.7945e-09
3.24016e-09
1.99314e-09
1.16907e-08
2.1063e-09
7.85227e-09
1.93572e-09
1.25314e-08
2.01442e-09
7.7843e-09
1.97817e-09
6.91588e-09
2.07258e-09
7.30533e-09
1.89349e-09
6.64622e-09
1.98956e-09
6.9935e-09
3.16992e-09
1.7535e-09
1.67633e-09
1.73034e-09
1.27231e-09
9.27349e-10
3.62534e-09
3.6508e-09
3.00031e-09
1.25811e-09
6.44851e-10
5.00084e-09
3.76422e-09
4.63865e-09
3.68789e-10
3.68974e-10
4.4321e-10
4.42936e-10
7.95819e-10
7.98025e-10
6.67093e-10
6.69029e-10
2.47835e-09
5.68893e-10
2.10334e-09
5.29237e-10
2.4545e-09
5.71268e-10
2.0814e-09
5.29617e-10
2.45019e-09
5.07887e-10
2.8922e-09
5.01778e-10
2.45243e-09
5.06257e-10
2.92945e-09
5.00237e-10
1.06757e-09
1.46055e-09
9.63563e-10
1.52802e-09
1.06058e-09
1.45764e-09
9.5392e-10
1.53225e-09
8.19639e-10
1.58162e-09
9.17595e-10
1.55162e-09
8.17787e-10
1.59959e-09
9.08161e-10
1.59553e-09
6.98738e-09
1.27673e-08
1.98542e-08
3.42967e-09
3.46966e-09
4.01794e-09
4.08112e-09
3.85999e-09
3.98292e-09
3.84039e-09
3.94794e-09
2.33816e-09
4.96919e-09
2.06688e-09
1.01479e-08
2.29295e-09
4.67332e-09
2.02926e-09
1.09735e-08
2.01237e-09
1.14027e-08
2.11926e-09
1.17984e-08
1.95876e-09
1.30067e-08
2.07668e-09
1.35676e-08
2.22199e-09
1.04082e-08
2.16584e-09
9.80496e-09
2.69883e-09
1.99281e-09
2.8703e-09
3.0027e-09
1.81888e-09
1.10764e-09
3.71552e-09
5.72104e-09
3.12763e-09
1.16441e-09
9.05545e-10
6.48695e-09
6.18776e-09
1.37951e-08
5.61099e-10
5.61376e-10
6.39632e-10
6.39424e-10
4.90449e-10
3.01068e-09
3.66072e-09
4.48062e-10
4.87031e-10
3.16893e-09
3.54232e-09
4.50457e-10
7.28657e-10
7.30702e-10
2.1605e-09
6.53829e-10
1.86316e-09
6.43171e-10
2.16641e-09
6.52511e-10
1.86114e-09
6.40272e-10
2.49147e-09
5.78621e-10
3.05929e-09
6.11068e-10
2.51003e-09
5.73017e-10
3.22027e-09
6.07525e-10
7.46225e-10
1.79343e-09
7.47147e-10
1.83347e-09
4.80367e-09
1.44553e-08
1.21311e-08
4.63357e-09
4.86572e-09
4.15486e-09
4.26426e-09
4.60338e-09
4.74165e-09
3.8513e-09
3.98519e-09
3.09558e-09
1.72342e-09
2.64623e-09
1.7301e-09
3.36331e-09
1.75563e-09
2.86068e-09
1.73672e-09
4.26128e-09
1.89911e-09
8.8045e-09
1.78327e-09
5.26688e-09
1.92659e-09
1.2412e-08
1.79743e-09
2.07398e-09
1.03534e-08
2.22645e-09
1.04406e-08
2.07591e-09
1.02441e-08
2.17229e-09
1.08351e-08
2.2702e-09
1.1787e-08
2.29375e-09
1.13685e-08
2.21196e-09
1.06838e-08
2.24395e-09
1.09187e-08
2.25003e-09
2.77615e-09
2.92812e-09
1.79684e-09
8.45258e-10
4.88377e-09
6.17881e-09
2.44416e-09
1.08539e-09
1.23018e-09
1.8546e-09
1.43503e-08
1.32127e-09
1.3223e-09
2.02043e-09
2.01987e-09
3.77589e-10
4.77276e-09
4.02332e-10
5.3299e-09
3.76062e-10
4.96712e-09
4.01516e-10
5.66474e-09
1.03312e-09
1.03271e-09
5.37388e-10
2.88009e-09
3.0662e-09
4.81303e-10
5.32752e-10
3.06106e-09
2.98257e-09
4.83856e-10
4.23134e-10
5.72976e-09
4.32092e-10
4.90661e-09
4.22658e-10
5.73858e-09
4.32936e-10
4.79258e-09
2.80468e-09
6.12201e-10
2.73046e-09
6.06085e-10
2.88476e-09
6.02987e-10
2.92952e-09
5.97321e-10
3.41484e-09
8.86918e-09
1.53385e-08
6.47936e-08
2.71442e-09
2.80855e-09
3.06675e-09
3.20173e-09
3.22982e-09
3.40171e-09
1.67869e-09
2.39469e-09
2.15258e-09
2.08141e-09
1.71499e-09
2.58696e-09
2.18264e-09
2.02331e-09
7.02948e-09
2.13932e-09
9.08102e-09
2.11177e-09
6.44129e-09
2.09981e-09
8.19131e-09
2.06566e-09
5.82614e-09
2.27686e-09
6.54114e-09
2.34273e-09
5.24231e-09
2.17654e-09
5.85773e-09
2.26572e-09
2.24552e-09
6.2446e-09
2.21133e-09
5.84157e-09
2.76276e-09
2.79946e-09
1.7478e-09
6.37079e-10
4.88562e-09
5.95151e-09
2.82525e-09
1.42894e-09
1.99331e-09
2.3773e-09
2.7375e-09
2.73883e-09
1.8081e-10
1.80911e-10
2.08438e-09
2.08645e-09
2.85996e-09
2.86131e-09
4.63527e-10
4.14921e-09
4.85438e-10
6.25341e-09
4.61776e-10
4.27687e-09
4.85362e-10
6.34318e-09
5.93979e-09
7.69703e-10
5.77949e-09
6.4028e-10
5.91955e-09
7.68075e-10
5.74736e-09
6.39751e-10
5.88203e-10
2.76744e-09
2.89701e-09
5.35477e-10
5.88501e-10
2.74679e-09
2.75652e-09
5.39433e-10
4.90043e-10
3.78119e-09
4.97228e-10
4.3979e-09
4.88325e-10
3.88153e-09
4.97419e-10
4.29201e-09
3.38621e-09
7.69915e-09
9.99555e-09
1.71487e-08
2.63071e-09
2.73315e-09
2.82533e-09
2.94761e-09
2.74015e-09
2.87987e-09
1.42177e-09
1.85444e-09
1.68491e-09
1.68358e-09
1.5583e-09
2.17198e-09
1.7417e-09
1.84948e-09
1.52244e-09
2.08518e-09
1.61202e-09
3.39527e-09
2.51361e-09
2.8654e-09
1.67371e-09
2.57791e-09
1.84154e-09
5.65459e-09
2.35957e-09
2.74895e-09
1.91015e-09
6.74432e-09
1.89845e-09
7.59893e-09
4.64688e-09
2.29024e-09
7.71432e-09
2.11406e-09
4.31029e-09
2.41323e-09
6.23017e-09
2.13049e-09
2.67766e-09
1.66675e-09
4.9373e-10
9.04942e-09
2.73232e-09
2.05561e-09
3.59017e-09
5.13558e-09
5.53961e-09
1.41361e-09
1.416e-09
3.22691e-10
3.22799e-10
1.11072e-09
9.13593e-10
2.01321e-08
1.3825e-09
2.62468e-08
7.32728e-09
9.11984e-10
1.11257e-09
7.44532e-09
2.01346e-08
1.38466e-09
2.65027e-08
2.27212e-10
6.90065e-09
6.79598e-10
5.30204e-08
2.28466e-10
7.1094e-09
6.78426e-10
5.23033e-08
5.46636e-10
6.43331e-09
6.02983e-10
8.90054e-09
5.44623e-10
6.66203e-09
6.02059e-10
9.20519e-09
5.70113e-09
7.60448e-10
5.6933e-09
7.60893e-10
3.93799e-09
5.25057e-10
3.77628e-09
5.26504e-10
5.11517e-10
5.19285e-09
5.09091e-10
5.49767e-09
2.67919e-09
6.42898e-09
6.59156e-09
1.45759e-08
2.84639e-09
2.94499e-09
2.48222e-09
2.57586e-09
2.33796e-09
2.49716e-09
2.37613e-09
2.53867e-09
2.52593e-09
1.59043e-09
1.59526e-09
1.36467e-09
2.32171e-09
2.15485e-09
3.83073e-09
1.64842e-09
1.81139e-09
1.54046e-09
2.30081e-09
2.02884e-09
1.56236e-09
5.0461e-09
1.5946e-09
5.96794e-09
1.74121e-09
6.79746e-09
1.80706e-09
1.98064e-09
4.57041e-09
6.16682e-09
1.79874e-09
5.65511e-09
1.87515e-09
2.22556e-09
3.82064e-09
6.18114e-09
2.20841e-09
8.11668e-09
2.35483e-09
7.13894e-09
1.56343e-09
3.96384e-10
6.46594e-09
2.78516e-09
1.83917e-09
1.25475e-08
3.2568e-08
2.66269e-09
2.76547e-09
4.92635e-09
5.11472e-09
8.7186e-10
8.75384e-10
6.37833e-10
6.49716e-10
9.80687e-10
1.47849e-09
2.89619e-08
1.00903e-08
1.84479e-10
1.50117e-08
9.80174e-10
1.48252e-09
1.01766e-08
2.8983e-08
1.85255e-10
1.49803e-08
2.89998e-10
6.09472e-09
2.56741e-10
4.80066e-09
2.92051e-10
6.4421e-09
2.58065e-10
4.74151e-09
6.58367e-10
6.886e-09
6.58333e-10
6.91972e-09
1.47306e-09
3.25474e-09
9.49546e-08
6.3455e-09
1.60736e-08
2.11649e-09
2.25623e-09
2.31383e-09
2.46569e-09
2.02635e-09
1.28754e-09
1.33297e-09
1.44814e-09
1.95133e-09
1.41275e-09
1.48799e-09
1.74029e-09
1.24614e-09
1.81412e-09
2.76619e-09
1.42299e-09
1.6762e-09
1.84007e-09
1.44309e-09
2.10974e-09
3.84837e-09
1.63262e-09
2.1756e-09
2.22462e-09
2.98955e-09
4.83405e-09
1.46596e-09
1.73396e-09
2.66585e-09
4.95472e-09
1.6388e-09
1.95218e-09
1.98132e-09
6.9537e-09
2.08207e-09
6.17447e-09
1.88009e-09
4.71383e-09
1.92012e-09
4.39291e-09
2.07331e-09
3.93482e-09
2.00933e-09
3.60166e-09
3.27618e-10
6.84183e-09
7.21676e-09
2.08764e-09
3.26432e-08
5.21444e-08
2.32214e-09
2.48676e-09
3.30266e-09
3.65005e-09
2.80679e-09
3.01152e-10
4.39557e-09
2.69145e-10
2.83133e-09
2.98922e-10
4.5794e-09
2.70104e-10
7.36178e-10
7.54346e-10
3.56709e-10
6.01517e-09
1.9434e-10
2.45227e-09
3.55626e-10
5.81553e-09
1.93168e-10
2.30323e-09
2.76709e-10
1.48494e-09
6.99684e-09
7.02932e-09
1.08771e-08
3.48102e-09
3.53047e-09
4.05108e-09
4.2768e-09
7.34763e-09
7.39299e-09
3.33475e-09
3.64698e-09
4.60079e-09
1.77182e-09
1.56616e-09
3.53859e-09
4.39939e-09
1.99729e-09
1.70378e-09
4.44724e-09
1.24077e-09
1.61763e-09
2.4036e-09
3.0368e-09
1.75314e-09
3.34867e-09
1.41233e-09
1.89776e-09
2.74321e-09
2.23485e-09
2.03499e-09
3.2259e-09
3.78451e-09
1.79957e-09
3.01775e-09
2.05132e-09
3.13948e-09
1.69374e-09
6.31822e-09
4.45542e-08
5.76372e-09
3.32338e-09
1.9976e-08
1.01429e-08
1.33307e-09
1.37851e-09
2.19711e-09
2.26734e-09
1.88665e-09
3.08511e-10
3.29876e-09
3.09697e-10
1.94678e-09
3.06202e-10
3.81498e-09
3.14662e-10
3.69196e-10
1.37458e-09
3.55143e-10
1.67351e-09
3.76698e-10
1.34445e-09
3.6326e-10
1.65654e-09
3.64409e-10
3.32908e-09
3.63081e-10
3.2827e-09
2.3816e-10
1.76639e-09
1.33379e-08
5.5035e-09
1.43569e-08
2.09851e-09
2.31554e-09
2.2654e-09
2.57228e-09
2.45963e-09
2.85302e-09
1.40057e-09
1.45341e-09
1.60646e-09
3.61625e-09
1.62159e-09
2.02439e-09
3.0453e-09
4.12583e-09
1.71082e-09
2.1748e-09
1.70672e-09
3.68264e-09
3.43583e-09
3.52803e-09
2.33187e-09
2.83411e-09
2.19156e-09
1.51963e-09
1.60485e-08
3.38034e-08
1.27607e-08
4.41023e-09
3.3326e-08
2.19686e-08
3.74458e-10
8.80319e-10
9.36201e-10
4.78184e-10
1.75902e-09
6.29433e-10
3.78813e-10
8.77788e-10
8.61184e-10
4.72173e-10
1.67191e-09
6.1612e-10
1.34842e-09
1.31929e-09
1.49743e-09
2.93403e-10
3.2843e-09
3.19338e-10
1.37718e-09
2.90027e-10
3.34434e-09
3.18764e-10
3.38789e-10
2.21371e-09
3.41148e-10
1.90452e-09
2.1035e-10
2.76692e-09
6.50837e-09
7.77849e-09
4.8454e-09
4.84055e-09
1.01365e-08
8.87688e-09
4.22162e-09
4.55381e-09
2.2433e-09
2.4702e-09
1.63153e-09
1.14324e-09
8.98586e-10
1.88176e-09
1.68604e-09
1.15629e-09
1.70698e-09
1.32428e-09
1.07424e-09
3.18054e-09
4.8794e-09
2.09709e-09
1.42226e-09
2.66499e-09
2.20504e-09
2.46216e-09
1.95831e-09
3.61241e-09
4.78246e-09
1.8235e-09
1.03912e-09
2.30464e-09
2.80697e-08
7.82943e-09
1.20847e-08
5.4177e-09
5.90615e-09
4.50068e-08
1.30842e-08
2.85361e-08
3.36617e-08
3.81436e-10
9.29047e-10
8.23872e-10
4.91726e-10
1.8206e-09
7.23482e-10
3.83029e-10
9.34538e-10
8.34098e-10
4.83059e-10
1.67968e-09
6.98058e-10
1.16869e-09
1.33789e-09
8.4077e-10
1.67561e-09
8.5989e-10
1.40055e-09
7.4808e-10
1.33664e-09
1.92394e-10
3.69248e-09
5.4185e-09
1.64656e-08
2.63117e-09
2.59015e-09
2.76939e-09
2.79743e-09
2.54315e-09
2.66302e-09
2.83298e-09
1.33348e-09
1.15275e-09
9.46957e-10
1.67261e-09
2.01084e-09
1.18199e-09
1.0596e-09
2.43099e-09
1.70294e-09
3.57224e-09
1.63018e-09
1.24121e-09
1.04591e-09
1.51756e-09
2.0801e-09
1.34688e-09
1.28567e-09
1.63247e-09
1.66818e-09
1.07547e-09
2.42546e-09
1.31324e-09
1.72311e-09
9.86903e-10
4.65032e-09
6.08664e-08
5.69118e-09
6.19101e-09
8.37456e-09
8.14814e-09
4.4733e-09
7.65514e-09
2.0559e-08
1.94242e-08
3.42587e-08
1.32066e-08
9.83258e-10
2.80459e-09
1.34947e-08
5.84371e-09
2.01704e-08
5.78768e-09
6.23347e-09
1.08261e-08
1.09312e-09
6.72254e-10
9.9331e-10
6.57922e-10
2.99326e-09
6.47596e-09
7.21152e-10
1.46591e-09
1.79546e-10
3.08157e-09
8.81745e-09
6.01215e-09
5.75589e-09
3.1011e-09
2.99716e-09
2.81268e-09
2.83634e-09
2.13321e-09
2.19114e-09
1.22105e-09
1.0994e-09
9.71804e-10
1.60505e-09
3.37881e-09
1.45923e-09
1.23168e-09
3.3068e-09
1.56698e-09
1.1265e-09
1.04624e-09
1.90933e-09
1.1143e-09
1.70583e-09
1.49279e-09
1.45956e-09
1.49475e-09
1.20296e-09
1.61138e-09
1.60796e-09
1.04203e-09
4.30862e-09
1.57156e-06
7.13334e-09
6.3083e-09
3.26537e-08
2.35436e-08
5.5707e-09
2.85723e-08
8.21883e-09
7.96296e-09
1.68255e-08
3.30352e-09
1.07942e-09
2.24976e-08
1.15501e-08
8.12606e-09
3.06261e-08
1.781e-08
3.27164e-09
2.87903e-09
2.7779e-09
6.39891e-09
4.81874e-09
3.40462e-09
3.66466e-09
4.98339e-09
4.76321e-09
2.24636e-08
1.71296e-09
5.67636e-09
1.71231e-10
4.5821e-09
8.93214e-09
1.96286e-09
1.98888e-09
2.33121e-09
2.35581e-09
2.2616e-09
2.29869e-09
1.38414e-09
1.34364e-09
1.12367e-09
1.04562e-09
1.56021e-09
1.15529e-09
1.3653e-09
1.318e-09
1.17323e-09
1.09412e-09
1.74354e-09
1.16654e-09
1.00832e-09
1.19263e-09
1.85457e-09
1.2861e-09
1.24529e-09
1.35845e-09
1.04785e-09
2.04795e-09
1.58406e-09
3.68518e-08
2.91329e-06
4.75147e-07
2.4978e-07
1.80603e-06
1.00836e-06
4.96204e-07
2.04213e-08
2.87165e-09
3.45996e-09
1.20583e-08
3.14968e-09
3.95175e-09
6.92065e-09
3.9517e-08
9.32982e-09
3.48739e-09
7.4306e-09
2.94819e-09
2.66465e-09
2.59871e-08
7.99193e-09
1.08317e-08
9.14992e-09
9.24464e-09
3.06881e-09
1.15431e-08
3.15418e-09
1.31796e-08
1.65814e-10
2.34334e-09
7.31768e-09
3.12098e-09
3.26406e-09
2.64751e-09
2.75916e-09
1.42653e-09
9.93773e-10
1.18843e-09
1.36779e-09
1.78913e-09
1.28851e-09
1.55556e-09
1.72111e-09
1.31962e-09
1.06147e-09
1.32123e-09
1.52056e-09
1.37256e-09
2.14175e-09
1.24389e-09
3.54613e-09
1.35397e-09
2.29225e-09
1.25417e-09
3.85559e-09
1.19204e-09
1.61142e-09
1.19713e-09
1.63807e-09
2.23089e-09
1.36491e-06
2.12571e-06
5.30882e-05
1.50593e-06
3.36053e-05
1.27776e-05
4.7804e-06
1.0559e-07
6.00499e-09
7.00751e-09
4.2338e-09
3.89532e-09
2.10018e-08
5.5682e-07
1.39273e-07
4.70729e-09
3.85019e-08
6.1389e-09
3.74666e-09
3.74573e-09
1.4463e-08
4.57578e-07
7.23153e-08
1.30922e-08
3.12471e-09
1.8043e-08
3.69775e-09
3.98977e-09
1.01825e-08
3.79852e-09
1.10762e-08
1.76445e-10
2.59229e-09
1.99683e-09
1.96165e-09
2.10624e-09
2.2386e-09
2.04155e-09
2.18529e-09
1.69481e-09
1.74222e-09
1.22037e-09
1.83409e-09
1.79335e-09
1.37155e-09
2.03616e-09
9.43573e-10
2.60563e-09
2.12478e-09
2.07197e-09
3.4007e-09
1.10882e-09
2.71915e-09
1.81288e-09
2.03861e-09
1.65718e-09
1.95591e-09
1.73819e-09
1.88576e-09
1.5739e-09
2.04797e-09
3.61101e-08
7.17384e-05
1.15534e-05
4.4973e-07
6.18991e-07
0.00019391
7.9055e-06
2.36383e-07
4.86968e-07
0.000165646
0.000138536
6.66809e-05
2.07024e-08
1.08071e-07
6.21521e-09
8.437e-09
2.69347e-08
1.35062e-07
1.31611e-08
4.90944e-09
6.81479e-08
7.85547e-09
1.67958e-08
8.35798e-08
8.72024e-09
3.92372e-09
1.06255e-08
3.96227e-09
2.07077e-10
2.77484e-09
9.65662e-10
3.56492e-09
3.75645e-09
1.14083e-09
1.31959e-09
1.52278e-09
1.00293e-09
2.04819e-09
1.14734e-09
2.04955e-09
1.10488e-09
1.39036e-09
1.36352e-09
9.82547e-10
1.18019e-09
2.15162e-09
1.26567e-09
2.07438e-09
1.18255e-09
2.0064e-09
1.42253e-09
1.1098e-09
1.36065e-09
8.52079e-10
2.45176e-09
2.10631e-09
1.62076e-09
2.17757e-09
9.68481e-10
2.29288e-09
2.87058e-06
0.000216388
0.000232181
0.000194198
0.000173005
8.44509e-05
1.4465e-05
0.000122953
8.48248e-07
1.7886e-06
1.85396e-06
1.54563e-06
7.69585e-05
4.03508e-05
2.41191e-05
0.000310136
0.000167239
0.000123433
7.90385e-05
6.45972e-07
1.2346e-06
1.36672e-06
1.18257e-06
5.68648e-05
2.1276e-05
1.58462e-05
0.000279583
0.000136849
0.000104732
1.11504e-07
2.75535e-07
8.36675e-08
6.1476e-07
6.22128e-08
1.39863e-07
5.06873e-08
4.02837e-07
2.67997e-10
2.38146e-09
1.30362e-09
1.64164e-09
1.56712e-09
3.37435e-09
1.92501e-09
1.66301e-09
2.44169e-09
1.61326e-09
1.35956e-09
1.60818e-09
1.07882e-09
2.33922e-09