/*--------------------------------*- C++ -*----------------------------------*\
| =========                 |                                                 |
| \\      /  F ield         | OpenFOAM: The Open Source CFD Toolbox           |
|  \\    /   O peration     | Version:  5.x                                   |
|   \\  /    A nd           | Web:      www.OpenFOAM.org                      |
|    \\/     M anipulation  |                                                 |
\*---------------------------------------------------------------------------*/
FoamFile
{
    version     2.0;
    format      ascii;
    class       volScalarField;
    location    "0.7";
    object      omega;
}
// * * * * * * * * * * * * * * * * * * * * * * * * * * * * * * * * * * * * * //

dimensions      [0 0 -1 0 0 0 0];

internalField   nonuniform List<scalar> 
12160
(
0.0719999
0.0719999
0.00489398
0.0719999
0.00840854
0.0015311
0.0719999
0.0107732
0.00203917
0.00131448
0.0719999
0.00990219
0.00251007
0.00149765
0.00129454
0.0719999
0.0092623
0.00230654
0.00162385
0.00140869
0.00145399
0.0719999
0.00818232
0.00216771
0.00154921
0.00146301
0.00152883
0.00151664
0.0719999
0.00728769
0.00193301
0.00150093
0.00143549
0.00151322
0.00171348
0.00191
0.0719999
0.00631615
0.00176018
0.00141092
0.00141506
0.00148197
0.00160522
0.00190681
0.00671441
0.0719999
0.00543511
0.00158106
0.00135036
0.00135153
0.00145351
0.00154765
0.00177812
0.00441116
0.00621342
0.0719999
0.00463063
0.00144
0.00128057
0.00130502
0.00139904
0.0014928
0.0018146
0.00355991
0.00646088
0.0069894
0.0719999
0.00393203
0.00132469
0.00122681
0.00124806
0.00135209
0.00141201
0.0017736
0.0040666
0.00518475
0.00713328
0.00346086
0.0719999
0.00334419
0.00123706
0.00117961
0.00120308
0.00129245
0.0013419
0.0017413
0.00409608
0.00394476
0.00818658
0.00336167
0.00256301
0.0719999
0.00286117
0.00117225
0.00114153
0.00116235
0.00124138
0.00127008
0.00170035
0.00387295
0.00319377
0.00904374
0.00321981
0.00240133
0.00223857
0.0719999
0.00247103
0.00112531
0.00111095
0.00112883
0.00119457
0.00121448
0.00169108
0.00349267
0.00295491
0.00789928
0.00617812
0.00198985
0.00188088
0.0017193
0.0719999
0.00216004
0.00109161
0.00108675
0.00110147
0.00115529
0.00116839
0.0017058
0.00306093
0.0026997
0.00719427
0.00663737
0.00200175
0.00188888
0.00149648
0.0719999
0.0019148
0.00106747
0.00106772
0.0010796
0.00112285
0.0011324
0.00173248
0.00265071
0.00241344
0.00660197
0.00588048
0.00197637
0.00185295
0.00150228
0.0719999
0.00172331
0.00105015
0.00105283
0.00106225
0.00109662
0.00110416
0.00176203
0.00226716
0.00226999
0.0051453
0.00432301
0.00209185
0.00178085
0.00159675
0.0719999
0.00157493
0.00103759
0.00104121
0.00104859
0.00107566
0.00108198
0.00178644
0.00193368
0.00220689
0.00376435
0.00296363
0.0019132
0.00160749
0.00153353
0.0719999
0.00146203
0.00102848
0.00103213
0.00103789
0.00105907
0.00106448
0.00180079
0.00166535
0.00213648
0.00285841
0.00212608
0.00160289
0.00143244
0.00138352
0.0719999
0.00137696
0.00102188
0.00102509
0.00102947
0.00104605
0.00105063
0.00180282
0.00146789
0.00205974
0.00226854
0.00166635
0.00138935
0.00130565
0.00126594
0.0719999
0.00131525
0.00101711
0.00101969
0.0010229
0.00103583
0.00103966
0.00179197
0.00133244
0.00198485
0.00186803
0.0014172
0.00127764
0.0012416
0.00120053
0.0719999
0.00127281
0.00101373
0.00101561
0.00101783
0.00102786
0.00103092
0.00176811
0.00124348
0.00191776
0.00159203
0.00127373
0.00121103
0.00121199
0.00117461
0.0719999
0.00124663
0.00101139
0.00101257
0.00101394
0.00102174
0.00102392
0.00173207
0.00118792
0.00185954
0.00140306
0.00118681
0.0011667
0.00118257
0.00116312
0.0719999
0.00123362
0.00100993
0.00101039
0.00101098
0.00101707
0.00101838
0.0016834
0.0011562
0.001807
0.00127556
0.00113231
0.00113346
0.00115432
0.00114253
0.0719999
0.00123288
0.00100919
0.00100897
0.00100879
0.00101355
0.00101397
0.00162184
0.00114277
0.00175498
0.0011906
0.00109723
0.00110628
0.00112739
0.00112027
0.0719999
0.00124386
0.00100914
0.00100824
0.00100731
0.00101099
0.00101043
0.00154722
0.00114252
0.00169782
0.00113431
0.00107354
0.00108325
0.0011026
0.00109854
0.0719999
0.00126684
0.00100974
0.00100817
0.00100652
0.00100927
0.00100759
0.00145707
0.00115503
0.00163145
0.00109735
0.00105642
0.00106343
0.00108072
0.00107874
0.0719999
0.00130248
0.00101099
0.00100875
0.00100644
0.00100837
0.00100537
0.00135276
0.00117755
0.00155357
0.00107194
0.00104418
0.00104688
0.00106167
0.00106149
0.0719999
0.00135182
0.00101293
0.00100994
0.00100706
0.00100827
0.00100383
0.00123773
0.00120833
0.00146127
0.00105621
0.00103544
0.00103354
0.00104578
0.00104651
0.0719999
0.00141615
0.00101562
0.00101175
0.00100832
0.00100896
0.00100361
0.00111966
0.0012412
0.00135626
0.00104709
0.00103057
0.00102292
0.00103306
0.00103399
0.0719999
0.00149697
0.00101918
0.00101417
0.00101015
0.00101039
0.00100489
0.00102407
0.00126602
0.00124477
0.00104528
0.00102903
0.00101562
0.0010229
0.00102374
0.0719999
0.00159621
0.00102377
0.00101727
0.00101255
0.00101251
0.0010069
0.0011015
0.00127206
0.00113657
0.00104805
0.00102915
0.00101222
0.00101558
0.0010153
0.0719999
0.00171605
0.00102962
0.00102112
0.00101555
0.00101532
0.00100941
0.00120461
0.00125794
0.00106637
0.00105009
0.00102888
0.00101326
0.00101151
0.00100843
0.0719999
0.00185905
0.00103699
0.00102582
0.00101922
0.00101888
0.0010124
0.00130012
0.00122935
0.00112225
0.00104797
0.00102782
0.00101614
0.00101015
0.00100403
0.0719999
0.0020279
0.00104624
0.00103147
0.00102366
0.00102326
0.00101594
0.00138223
0.00119678
0.00121475
0.00104621
0.00102706
0.00101818
0.00100947
0.00100308
0.0719999
0.0022254
0.00105782
0.00103822
0.00102896
0.00102859
0.00102011
0.00145009
0.00116862
0.00130638
0.00104303
0.00102753
0.00101837
0.00100837
0.00100344
0.0719999
0.00245419
0.00107225
0.0010462
0.00103525
0.00103498
0.001025
0.00150487
0.00114831
0.00138811
0.00104139
0.0010283
0.00101677
0.00100731
0.00100311
0.0719999
0.00271701
0.00109017
0.00105558
0.00104264
0.00104258
0.00103073
0.00154826
0.00113695
0.00145712
0.00104489
0.00102882
0.00101402
0.00100743
0.00100237
0.0719999
0.00301745
0.00111239
0.00106651
0.0010513
0.00105153
0.00103742
0.00158199
0.00113478
0.00151384
0.00105387
0.00102967
0.00101204
0.00100805
0.00100209
0.00338437
0.0719999
0.00113975
0.00107923
0.00106134
0.001062
0.00104519
0.00160736
0.00114188
0.00156009
0.00106783
0.00103216
0.00101311
0.00100917
0.00100205
0.00117723
0.00399775
0.0719999
0.00109385
0.00107296
0.00107414
0.00105417
0.00162518
0.00115846
0.00159859
0.00108715
0.00103724
0.00101751
0.00101186
0.00100294
0.00111285
0.00124581
0.00510818
0.0719999
0.0010862
0.00108814
0.00106453
0.0016361
0.00118543
0.00163201
0.00111303
0.00104499
0.00102508
0.00101685
0.00100584
0.00110328
0.00114439
0.00139174
0.00644699
0.0719999
0.00110412
0.00107643
0.00164062
0.00122443
0.00166323
0.00114745
0.00105497
0.00103454
0.00102424
0.00101081
0.00112413
0.00113119
0.00120381
0.00160826
0.00803195
0.0719999
0.0010901
0.00163914
0.0012772
0.00169446
0.001193
0.00106735
0.00104553
0.00103357
0.00101708
0.00110701
0.00115685
0.00118147
0.00128461
0.0019256
0.00996161
0.0719999
0.00163227
0.001347
0.00172855
0.0012527
0.00108233
0.00105812
0.00104442
0.00102444
0.00162236
0.00113559
0.00121484
0.0012458
0.00139544
0.00245157
0.0132194
0.0719999
0.00144205
0.00177173
0.00133053
0.00110095
0.00107215
0.00105674
0.00103287
0.00157993
0.00161475
0.00118814
0.00128508
0.00132452
0.00157829
0.00366721
0.0234083
0.0719999
0.00183303
0.00143302
0.00112455
0.00108768
0.00107038
0.00104236
0.00189495
0.00180734
0.00156494
0.00125587
0.00136391
0.00143201
0.00202017
0.00765175
0.0439825
0.0719999
0.00156811
0.00115584
0.00110426
0.00108529
0.00105309
0.00172509
0.00193075
0.00212342
0.00152983
0.00133396
0.00145282
0.00163255
0.00354528
0.0189938
0.0762546
0.0719999
0.00119858
0.00112216
0.00110078
0.00106477
0.00124685
0.0020755
0.00193407
0.00238433
0.001505
0.00141603
0.00156647
0.00222391
0.0084258
0.0364359
0.082252
0.0703354
0.00114034
0.00111687
0.001077
0.00115479
0.00135583
0.00264241
0.00190193
0.00251252
0.00148567
0.00149263
0.00179282
0.0042176
0.0184422
0.0512838
0.0618056
0.00302587
0.0568889
0.00113186
0.00108968
0.00114443
0.00118596
0.00161995
0.00332404
0.00192212
0.00249482
0.00145704
0.00157262
0.00249256
0.00926036
0.0304507
0.0481537
0.00424245
0.00249367
0.00244267
0.0568889
0.00110151
0.00111242
0.00116508
0.0012545
0.00207065
0.00395004
0.00199624
0.00235299
0.00140549
0.00179178
0.00459639
0.0167915
0.0341045
0.00674836
0.00306381
0.00316749
0.00241913
0.00243424
0.0568889
0.00112967
0.00119344
0.00136115
0.00271426
0.00424175
0.00206011
0.00212072
0.00140243
0.00257448
0.00853749
0.0213228
0.00796544
0.00402614
0.00335718
0.00474986
0.00333185
0.00270478
0.0028157
0.0568889
0.0011494
0.00121618
0.00151931
0.00343153
0.00406334
0.00211403
0.00189819
0.001718
0.00431077
0.0117649
0.00723779
0.00478384
0.00421238
0.00471222
0.00596344
0.00516676
0.00375311
0.00313208
0.00318697
0.0568889
0.00115612
0.00125784
0.00168089
0.00403185
0.00387154
0.00219567
0.00184545
0.00247855
0.00616115
0.00559416
0.00498846
0.00518606
0.0050293
0.00576633
0.00872647
0.00639335
0.00565549
0.00428695
0.00359298
0.00358082
0.0568889
0.00117155
0.00133461
0.00174156
0.00438829
0.00385104
0.00239495
0.00208238
0.00339604
0.0041752
0.00471999
0.00560614
0.00521715
0.00578472
0.00765606
0.0186605
0.0104296
0.0189137
0.0172981
0.0171505
0.00715633
0.00611424
0.00479094
0.00409539
0.00400238
0.0568889
0.00121638
0.00142485
0.00164431
0.00424729
0.00389532
0.00273656
0.00250896
0.00314811
0.00424063
0.00526754
0.00521563
0.00595072
0.00687637
0.0127836
0.0201012
0.0210117
0.0125218
0.0205898
0.0200666
0.0203725
0.0223182
0.0203157
0.0206801
0.00812726
0.00650446
0.00537788
0.00466402
0.00438924
0.0568889
0.00128337
0.00151235
0.00154238
0.00359615
0.00391915
0.00320308
0.00268412
0.00351894
0.00460668
0.00502275
0.00595532
0.00640115
0.00953785
0.0167226
0.0166145
0.0163475
0.0162382
0.0221083
0.0264122
0.0139719
0.0203425
0.0240217
0.0219329
0.0232255
0.0265615
0.0233524
0.0229247
0.0089571
0.00703107
0.00609924
0.00511136
0.00481926
0.0568889
0.00136528
0.00160513
0.00153293
0.00279463
0.00398563
0.00359486
0.00301034
0.00376626
0.00484748
0.00561775
0.00628551
0.00755107
0.0143214
0.0142604
0.0138925
0.0138674
0.0236971
0.0233945
0.0201964
0.0198565
0.0298604
0.0266185
0.0318964
0.0274653
0.0308642
0.0149525
0.0217281
0.0338322
0.0339096
0.0328865
0.0329471
0.0298987
0.031723
0.0318222
0.0262923
0.0315926
0.0272425
0.0305103
0.0254651
0.0270668
0.0246964
0.029363
0.0250527
0.0267495
0.0243469
0.0290115
0.00948927
0.00767182
0.00657626
0.00542376
0.00549557
0.0568889
0.00145615
0.00170422
0.00161608
0.0021539
0.00417464
0.00418216
0.00329596
0.0042605
0.00508006
0.00608119
0.00648768
0.0125445
0.0125426
0.0120608
0.0120689
0.0179588
0.0177242
0.0168477
0.0167771
0.0298838
0.0284658
0.0251153
0.0294674
0.0238799
0.0247606
0.0282172
0.029807
0.0246662
0.0294281
0.0234556
0.0244272
0.0278121
0.0213992
0.0287731
0.021995
0.0276344
0.0209777
0.0287103
0.0215545
0.0299228
0.0327813
0.0288521
0.0334877
0.0263905
0.0321967
0.0270448
0.031512
0.0149893
0.0242073
0.034843
0.035082
0.0344648
0.0346085
0.0347297
0.034617
0.0338597
0.0336253
0.02962
0.0324899
0.0285454
0.0332016
0.0310294
0.0341663
0.0319681
0.0339721
0.0307726
0.0339475
0.0317902
0.0337055
0.0259517
0.0318696
0.0265758
0.0312137
0.0256474
0.0304514
0.0252599
0.0301888
0.00988978
0.00818637
0.00662688
0.00594647
0.00695408
0.0568889
0.00152141
0.00178056
0.00174281
0.00195234
0.00457724
0.00482924
0.00391334
0.00432276
0.00552241
0.0060847
0.0111189
0.0111287
0.0107329
0.0107404
0.0153619
0.0153692
0.0148984
0.0149259
0.0263843
0.0198844
0.0246378
0.0193483
0.0259909
0.0195113
0.0242206
0.0190145
0.020928
0.017654
0.0225264
0.0180913
0.020736
0.0175285
0.0222018
0.0179357
0.0304981
0.0289782
0.0247287
0.0263489
0.0286077
0.0237999
0.0303444
0.0287971
0.0257963
0.0242386
0.028531
0.0233049
0.0277437
0.0218474
0.0282184
0.0225909
0.0277423
0.0213839
0.0281733
0.022089
0.028242
0.0327645
0.027682
0.0332138
0.0278621
0.0327714
0.0284365
0.0320324
0.0141959
0.024338
0.0354093
0.0357572
0.0351188
0.0354392
0.0357811
0.0358674
0.0353274
0.0353288
0.0351788
0.0315603
0.0350926
0.0311319
0.0354061
0.0318711
0.0351889
0.0313408
0.0348525
0.0333841
0.0303296
0.034961
0.03068
0.0295812
0.0347412
0.0330659
0.0302829
0.0349316
0.0307667
0.0291822
0.027753
0.0324282
0.0271851
0.0328875
0.028759
0.0334414
0.0283015
0.0331191
0.0272733
0.0324068
0.0279132
0.0316987
0.0271555
0.0312028
0.0265424
0.0309454
0.0105899
0.0081475
0.00671919
0.00725737
0.0102734
0.0568889
0.00153369
0.00186982
0.00187863
0.0021891
0.00538097
0.00537992
0.00458997
0.00475106
0.00589373
0.0103477
0.0103557
0.010122
0.0101214
0.0143527
0.0143763
0.0139413
0.0139459
0.0190389
0.0161503
0.0185285
0.0159667
0.0189783
0.0161402
0.0184898
0.0159624
0.0176674
0.0154979
0.0179547
0.0154772
0.0176531
0.0154985
0.0179292
0.0154616
0.0271716
0.0206677
0.0264646
0.0199884
0.0271878
0.020273
0.0264295
0.0196803
0.0240078
0.0182862
0.0254222
0.0189949
0.0239213
0.0181428
0.0253233
0.0188082
0.0295393
0.033478
0.0290266
0.0340707
0.0145746
0.0211627
0.0355395
0.0357816
0.0355852
0.0358991
0.0364444
0.0366341
0.0361728
0.0363299
0.0359005
0.0340662
0.0356285
0.0332881
0.0363725
0.0342216
0.0360891
0.033523
0.0352752
0.0319871
0.0354014
0.0325355
0.0356192
0.0323534
0.0358293
0.0328774
0.0355483
0.0328316
0.0356107
0.0326912
0.0361096
0.0335354
0.036052
0.0333055
0.0347938
0.0356011
0.0324285
0.0302114
0.0356433
0.0325456
0.0346258
0.0357552
0.0328409
0.0301227
0.0359471
0.0330643
0.0292562
0.0331307
0.0286124
0.0337639
0.0299676
0.0345029
0.0298066
0.0342628
0.0108282
0.00778462
0.00752877
0.0102501
0.0178011
0.0568889
0.00156654
0.00185219
0.00210028
0.00260517
0.00594768
0.00671209
0.00600961
0.00568049
0.00640449
0.0134088
0.0134211
0.0129425
0.0129529
0.016735
0.0167604
0.0165197
0.0165251
0.0222224
0.0169294
0.0214363
0.0166309
0.0221718
0.016896
0.0214033
0.0166151
0.0201322
0.016327
0.0207573
0.0162318
0.02012
0.0163151
0.0207157
0.0162066
0.0244438
0.0182263
0.0243983
0.0181044
0.0152675
0.0199933
0.0323471
0.0321225
0.0351034
0.0352039
0.0359254
0.036192
0.0362687
0.0365185
0.036353
0.0362361
0.036326
0.0357812
0.036765
0.0363346
0.0367945
0.0358709
0.0361252
0.0347497
0.0362415
0.035307
0.0366123
0.0348631
0.036737
0.0354
0.0350938
0.0327266
0.0352148
0.0329011
0.0359732
0.0335224
0.03609
0.033811
0.0354427
0.0329246
0.0353083
0.0329444
0.0361292
0.0337196
0.0361009
0.033818
0.0101941
0.00796254
0.00974774
0.0163029
0.0335324
0.0568889
0.00151147
0.00192611
0.00221443
0.00306927
0.00914803
0.00932724
0.00811376
0.00750906
0.0109708
0.0109728
0.0121442
0.0121413
0.0159631
0.0159806
0.0150272
0.0150515
0.0169855
0.0198645
0.0171004
0.0196852
0.0170088
0.0198654
0.0171339
0.0196716
0.0167818
0.0191987
0.0166639
0.0194263
0.0167805
0.0191765
0.0166576
0.019397
0.0235296
0.0172938
0.0230793
0.0170946
0.0235028
0.0172615
0.0230647
0.0170806
0.0221316
0.017063
0.0226858
0.0168951
0.0221386
0.0170778
0.0226653
0.0168883
0.0146855
0.0207896
0.0282524
0.035325
0.0355358
0.0354392
0.0357282
0.034629
0.0351755
0.0349873
0.0354714
0.0344498
0.0332608
0.0346156
0.0324874
0.0350397
0.0336668
0.035335
0.0330475
0.0350115
0.0326049
0.0348475
0.03243
0.0358495
0.0333199
0.0356458
0.0330943
0.0358317
0.0330895
0.0367469
0.0341424
0.00951442
0.00985512
0.0152089
0.0290984
0.0592789
0.0719993
0.00155712
0.0017179
0.00230728
0.00422976
0.0137123
0.0113086
0.0128245
0.0179151
0.0150517
0.0150513
0.0161514
0.0161443
0.0187926
0.0162628
0.0164379
0.0185158
0.0187901
0.0162616
0.0164634
0.0185271
0.0172549
0.0172767
0.0172583
0.021585
0.0173401
0.021895
0.0172734
0.0215526
0.0173722
0.0218306
0.0170552
0.0216615
0.0168513
0.0219902
0.0170426
0.0216275
0.0168277
0.0219325
0.0224452
0.0172408
0.02244
0.0172622
0.0126756
0.0209688
0.0259762
0.0316439
0.0324636
0.033501
0.0339472
0.0339446
0.0344304
0.0344215
0.0349785
0.0317576
0.033813
0.0327456
0.0338291
0.0327286
0.0348749
0.0335045
0.0349096
0.0308843
0.0342681
0.0308002
0.0339378
0.0320821
0.0353654
0.0319771
0.0350364
0.0347064
0.031215
0.0352257
0.03174
0.0358317
0.0324371
0.0363339
0.0329231
0.0357446
0.0327186
0.0355354
0.0322579
0.0367488
0.0338163
0.0365999
0.0333969
0.0106366
0.0152396
0.0290863
0.059501
0.0719993
0.001425
0.00175127
0.00246897
0.00907614
0.0151012
0.0183307
0.0313196
0.025986
0.0259895
0.0341007
0.0341005
0.0187784
0.0160117
0.0194138
0.0175057
0.0187669
0.0160137
0.0194279
0.0175038
0.0216681
0.0216648
0.0212877
0.0166651
0.0168904
0.0204247
0.021278
0.0166619
0.0169232
0.0204279
0.0199025
0.0169359
0.0203104
0.0172467
0.019903
0.0169477
0.0203152
0.0172692
0.0170941
0.0228964
0.0170087
0.022671
0.0170762
0.0228647
0.0169858
0.0226197
0.0122558
0.017988
0.0277576
0.0318631
0.0348698
0.0354159
0.0343147
0.0350458
0.0337069
0.0345562
0.033979
0.0335464
0.0343413
0.0342571
0.0349885
0.0341551
0.0348633
0.0351833
0.0301809
0.0325225
0.0300328
0.0330425
0.0315266
0.0338666
0.0313456
0.0343549
0.0303961
0.0343552
0.0305779
0.0337027
0.0317376
0.0355807
0.0319231
0.0349607
0.0349183
0.0309201
0.0360761
0.0322451
0.0154572
0.0287786
0.0594388
0.0719993
0.00146548
0.00158423
0.00287214
0.0106118
0.0291411
0.046596
0.0491598
0.0491656
0.06768
0.0676844
0.0398699
0.0398867
0.0523965
0.0523975
0.0220161
0.0173536
0.0221933
0.0191831
0.0219991
0.0173556
0.0221953
0.0191819
0.0253671
0.0309074
0.0299693
0.0270207
0.0253723
0.0308966
0.0299882
0.0270072
0.0230295
0.0170144
0.0172275
0.0223986
0.0230194
0.0170297
0.0172658
0.0223967
0.0225896
0.017238
0.022373
0.0173314
0.0225732
0.0172447
0.0223632
0.0173464
0.0162848
0.015391
0.0254605
0.0333428
0.0375188
0.0382303
0.0360266
0.0367855
0.0348989
0.0357535
0.0338676
0.0336057
0.0346405
0.0347284
0.034957
0.0344468
0.0356377
0.0353716
0.0330773
0.0321665
0.0324503
0.0305722
0.032578
0.032316
0.0342183
0.033294
0.0336139
0.0320002
0.0336918
0.0331179
0.0323136
0.030485
0.0335864
0.0315923
0.0305312
0.0326476
0.0303215
0.0331267
0.0318309
0.0338947
0.0316632
0.0343526
0.0284443
0.0589093
0.0719993
0.00126332
0.00220329
0.00380942
0.0222316
0.0684889
0.107816
0.0706128
0.0706076
0.0955124
0.0955012
0.0455044
0.035998
0.0434343
0.051327
0.0484675
0.0343805
0.0360003
0.0455455
0.0344035
0.04347
0.0513832
0.0485177
0.0771648
0.0688464
0.0640999
0.0588569
0.0773433
0.0690096
0.0641811
0.058924
0.0245274
0.0190472
0.0257315
0.0218377
0.02451
0.0190525
0.0257301
0.0218411
0.0291918
0.031524
0.0292041
0.031527
0.017302
0.0229611
0.0173352
0.022954
0.023798
0.0178846
0.0237802
0.0178921
0.0287468
0.0182611
0.0207722
0.0335911
0.0411687
0.0418877
0.039345
0.0401062
0.0369289
0.0381297
0.0350902
0.0362536
0.0309416
0.0339529
0.0336628
0.0329789
0.0328521
0.0331579
0.0325613
0.0351413
0.0348468
0.0340925
0.0337988
0.0342615
0.0325477
0.0305
0.0336963
0.0317919
0.0324036
0.0297172
0.0326922
0.0320888
0.0298155
0.0300186
0.0334604
0.0311296
0.0335453
0.0333041
0.0311141
0.0314221
0.0322026
0.0300317
0.0334535
0.0313971
0.0580323
0.0719993
0.00134099
0.00209407
0.0110754
0.0525816
0.144607
0.165128
0.167813
0.18816
0.1908
0.0960046
0.0965007
0.127433
0.128504
0.0406069
0.0557137
0.0485691
0.0384133
0.0693508
0.0556002
0.0406223
0.0557875
0.0384445
0.048635
0.0694534
0.0557045
0.0914598
0.0786905
0.0821543
0.0664437
0.0917554
0.0789564
0.08231
0.0665902
0.0282435
0.0246357
0.0282452
0.0246453
0.0572535
0.0303585
0.0220212
0.0280402
0.0407328
0.0416238
0.0428637
0.0391973
0.0404478
0.0375192
0.038035
0.0359698
0.035455
0.0388535
0.0390303
0.0373438
0.0368452
0.0342732
0.0330503
0.0313589
0.0347599
0.0327406
0.0318732
0.0353723
0.034113
0.0330929
0.0360116
0.0344344
0.0333604
0.0302429
0.0298885
0.0329358
0.0324519
0.0316084
0.0313291
0.0337513
0.0334268
0.0323811
0.0296719
0.0332241
0.0308389
0.0327698
0.0298132
0.0328077
0.0299455
0.033476
0.030949
0.033538
0.0312737
0.0719993
0.0012749
0.0033871
0.0213553
0.137716
0.208006
0.164098
0.168716
0.175472
0.180827
0.108368
0.109067
0.0996495
0.117646
0.109279
0.109824
0.100274
0.118502
0.144626
0.146262
0.102252
0.0854543
0.0945519
0.0731786
0.102745
0.0858457
0.0948557
0.0734395
0.0719993
0.0571168
0.0339847
0.0282186
0.0359162
0.0460822
0.0459046
0.0448797
0.0462667
0.0412467
0.0418606
0.0391992
0.0408439
0.0370718
0.0388122
0.0346144
0.0326121
0.0384886
0.0400845
0.0361413
0.0344645
0.03401
0.0343429
0.0307913
0.0310789
0.0343787
0.0316315
0.0348669
0.035236
0.0325726
0.0322015
0.0354661
0.0333106
0.0299335
0.0329761
0.0311898
0.0336319
0.00176147
0.00666935
0.055208
0.247976
0.159246
0.163814
0.285128
0.205909
0.166823
0.169132
0.169063
0.172866
0.11144
0.122995
0.10189
0.135203
0.11237
0.124023
0.102343
0.136089
0.160197
0.147545
0.158943
0.137369
0.161685
0.148859
0.160375
0.138673
0.110791
0.0906015
0.111469
0.0909627
0.0719979
0.0586
0.0409777
0.0346824
0.0436409
0.0460486
0.0483742
0.042827
0.0456349
0.0403607
0.0433553
0.0414142
0.0375813
0.0371157
0.0393529
0.0433045
0.0405564
0.0406633
0.042231
0.0359566
0.0334485
0.0353065
0.032518
0.0382142
0.0382079
0.0368629
0.0352269
0.00244093
0.0186256
0.117654
0.338399
0.17379
0.167635
0.341827
0.232039
0.176609
0.152193
0.174633
0.188087
0.164302
0.188838
0.178037
0.152802
0.175322
0.189391
0.164501
0.19024
0.177014
0.183617
0.113402
0.130671
0.103317
0.146825
0.114291
0.131792
0.103801
0.147752
0.168221
0.139033
0.169391
0.140089
0.0719922
0.0634909
0.0512158
0.0409932
0.0506554
0.0509287
0.0478084
0.047229
0.0456273
0.046369
0.0422509
0.0442568
0.039684
0.0390013
0.038943
0.0349516
0.0372428
0.0367706
0.0420883
0.0413804
0.0411448
0.03734
0.0413569
0.0423352
0.0358227
0.033673
0.0395888
0.0384151
0.0356094
0.0330591
0.0379064
0.0368114
0.00552859
0.0339198
0.178725
0.430978
0.429031
0.370215
0.3915
0.241025
0.172955
0.406757
0.343052
0.186252
0.157643
0.182597
0.20298
0.165517
0.20817
0.187462
0.157492
0.182348
0.203558
0.165729
0.210202
0.173119
0.159154
0.189175
0.163463
0.210806
0.17369
0.218484
0.1715
0.0719775
0.0736698
0.0607204
0.0497515
0.052987
0.0526555
0.0492454
0.0494302
0.0461627
0.0470246
0.0383986
0.0376597
0.0418886
0.040364
0.0369884
0.0420088
0.0436931
0.0423867
0.0393285
0.0440366
0.0408016
0.0406346
0.0383653
0.0384471
0.0346929
0.0340767
0.040215
0.0406631
0.0372491
0.0368766
0.0376045
0.0335071
0.0397901
0.0362103
0.00812469
0.0610366
0.182634
0.462753
0.478929
0.360722
0.391327
0.184618
0.152238
0.406025
0.283698
0.333081
0.339367
0.210023
0.1674
0.240787
0.186605
0.19579
0.189898
0.484466
0.480372
0.167148
0.206266
0.169224
0.222991
0.171057
0.150988
0.219982
0.166435
0.0719467
0.0876381
0.0671658
0.0607519
0.0589701
0.0588548
0.0575656
0.0540606
0.0541272
0.0505731
0.0512388
0.0469137
0.0464467
0.0443216
0.0421489
0.0426132
0.0438772
0.0480909
0.043846
0.0448541
0.0472811
0.045676
0.0432791
0.0395438
0.0351018
0.0390446
0.0362976
0.0410093
0.0414313
0.0382652
0.0374876
0.0116656
0.0557596
0.180866
0.475899
0.494098
0.353265
0.37751
0.201821
0.16819
0.489216
0.399319
0.45047
0.488597
0.196049
0.155628
0.418004
0.239547
0.280716
0.290215
0.487538
0.514085
0.550056
0.535491
0.550481
0.549258
0.555918
0.554975
0.182615
0.158523
0.195117
0.155791
0.0718876
0.098593
0.0722222
0.066851
0.0674337
0.0611189
0.0614338
0.0566855
0.057172
0.0460514
0.0457343
0.0519035
0.0493802
0.048405
0.0525959
0.0472692
0.0466382
0.0524474
0.0503066
0.0490918
0.0533697
0.042978
0.0413992
0.0397409
0.0373508
0.0431295
0.0390768
0.0444502
0.041078
0.0134808
0.0426278
1.16495
0.468712
0.431915
0.91393
0.723903
0.50158
0.517822
0.50564
0.5232
0.504938
0.532781
0.541382
0.228995
0.283031
0.526687
0.448419
0.517832
0.515321
0.205877
0.18653
0.535491
0.310866
0.487551
0.476605
0.586625
0.550375
0.5999
0.569023
0.0717744
0.106796
0.0782647
0.0674546
0.0691139
0.0631391
0.0643601
0.0592208
0.0597264
0.0556882
0.0558973
0.0526949
0.053783
0.0600821
0.0533889
0.0541027
0.0600312
0.0567991
0.05646
0.0456491
0.0428048
0.0487734
0.0458153
0.0467973
0.0438302
0.0497322
0.0465644
0.0435938
0.0399088
0.0447145
0.0410065
0.00843417
0.244547
1.0908
5.09293
0.916533
4.05121
2.58039
1.5726
0.566847
0.62585
0.5818
0.560839
0.551627
0.573499
0.782856
0.6849
0.621205
0.550213
0.57793
0.55827
0.553841
0.555084
0.66129
0.61994
0.552465
0.574505
0.569925
0.57655
0.624128
0.571437
0.631237
0.581839
0.0715405
0.112692
0.0998019
0.0689984
0.0713824
0.105534
0.08176
0.0846514
0.0629031
0.0573145
0.0600189
0.0652755
0.0592386
0.0613997
0.0515964
0.0523565
0.0487231
0.0479525
0.052702
0.0497002
0.0543435
0.0506829
0.0458731
0.042275
0.048397
0.0432849
0.0470444
0.0433327
0.0497517
0.0449073
0.0290809
2.49497
3.0501
0.837022
0.973943
26.413
2.52267
0.750812
0.831462
21.8
11.6564
7.39224
0.676158
0.697873
0.656433
0.596362
0.614444
0.662793
0.668427
0.656969
0.653535
0.59668
0.60663
0.622961
0.578857
0.630886
0.593715
0.633817
0.0711729
0.125728
0.0966238
0.0715625
0.0737939
0.104882
0.077683
0.083342
0.0605702
0.0553077
0.0574942
0.0550262
0.0580266
0.0574011
0.0648939
0.064015
0.0636744
0.0582411
0.0603741
0.0576969
0.0599437
0.0611483
0.0674927
0.0666394
0.049774
0.0503555
0.0427743
0.0442148
0.0517055
0.0462104
0.0533933
0.0477317
0.198427
41.9408
46.6723
32.4161
23.662
8.49365
3.53419
16.1566
1.14682
1.68816
1.70634
1.50551
14.3428
7.3633
7.29057
92.9975
30.4519
28.8785
12.3653
1.00582
1.37571
1.41376
1.29351
12.2516
4.75678
5.94307
81.9113
24.2369
25.7895
0.747395
0.816926
0.676367
0.833654
0.726378
0.772396
0.658749
0.780318
0.0706553
0.131218
0.0955577
0.0670822
0.0712507
0.0700708
0.0726025
0.0729853
0.0722089
0.105778
0.0792972
0.0858512
0.0555667
0.0621417
0.0507472
0.0501359
0.046705
0.0617747
0.0591117
0.0650186
0.0539654
0.0502827
0.0548307
0.0646491
0.0484678
0.0420412
0.0513935
0.0454538
0.373367
135.219
77.5701
116.857
54.4154
14.7002
6.89187
1.1673
3.73679
3.47845
1.26323
18.1099
14.3076
248.994
136.63
92.4803
81.033
60.3479
177.259
281.685
218.702
1.0227
2.49922
1.13318
2.69864
13.9736
12.3524
116.142
230.244
86.8847
65.83
54.6574
166.853
230.374
203.185
0.0704379
0.23002
0.102048
0.106862
0.230807
0.164033
0.149737
0.066352
0.0664998
0.0600781
0.0523525
0.0654443
0.0642138
0.0623454
0.0532636
0.07114
0.0734336
0.0648026
0.0584642
0.0727795
0.0701037
0.0670208
0.0597741
0.0832749
0.068372
0.0721667
0.0884207
0.0754154
0.0803407
0.0564267
0.0605097
0.0513254
0.0552211
0.0603528
0.0692878
0.0565259
0.0686016
0.953727
178.135
236.19
370.951
81.9026
167.878
225.408
329.341
63.3935
19.5265
9.99613
11.9648
8.58334
34.705
26.625
195.057
365.906
54.8904
48.5802
116.688
209.635
8.97532
6.97859
28.0716
23.5524
171.749
43.5
344.489
40.6578
103.948
195.119
0.0701625
0.284279
0.110683
0.111633
0.281771
0.181826
0.136888
0.0595958
0.0598609
0.0499075
0.0498033
0.0627827
0.0550753
0.0650255
0.0645798
0.0568318
0.056667
0.0676646
0.0620676
0.0838417
0.0712349
0.0629197
0.0676654
0.0671723
0.0733151
0.091226
0.0891642
0.088276
0.0743652
0.069808
0.0739599
0.0765383
0.0817218
0.0950867
0.0939426
0.114835
20.0407
11.209
179.276
247.747
406.794
258.491
394.883
77.156
170.13
238.387
396.767
250.488
371.946
61.9251
136.641
280.134
413.227
92.2619
162.282
231.109
105.424
251.579
396.097
78.5724
145.842
218.272
0.0691821
0.317671
0.125789
0.107928
0.102036
0.12463
0.109224
0.104185
0.28563
0.155258
0.142023
0.0611669
0.0524371
0.064865
0.0567453
0.0665191
0.0593335
0.0694939
0.0636038
0.0768928
0.0889404
0.0704856
0.0626003
0.0578941
0.0840845
0.0812817
0.0911212
0.0734399
0.0658601
0.0728486
0.0874138
0.0401164
2.88081
0.571381
1.60718
0.466232
159.066
245.375
410.031
262.393
387.676
449.923
250.011
14.9981
151.941
239.609
400.038
255.561
363.359
441.27
241.406
11.1912
370.984
208.289
353.437
195.996
0.0685184
0.313158
0.287955
0.130776
0.127437
0.12454
0.132542
0.116003
0.130246
0.125788
0.123266
0.131224
0.115161
0.178535
0.174142
0.0803697
0.0734629
0.103945
0.0659071
0.0600427
0.117207
0.083769
0.0762513
0.104288
0.0710713
0.074275
0.114902
0.0122677
0.384478
0.332445
0.301012
0.287166
1.61969
1.78744
52.1904
225.394
283.469
190.83
352.177
240.556
472.836
261.335
433.043
427.853
236.067
54.2525
219.77
267.315
187.777
331.937
234.289
468.759
255.547
426.708
418.876
227.67
0.0685231
0.234945
0.212919
0.241782
0.209278
0.133106
0.134679
0.131119
0.134821
0.132257
0.120952
0.130395
0.134814
0.135376
0.130785
0.135221
0.133297
0.119404
0.128294
0.12967
0.136574
0.0860855
0.0744401
0.0885657
0.080087
0.0211536
0.271276
0.261177
0.2382
0.232037
0.873219
0.665407
0.627956
0.538618
3.34589
6.2967
31.3838
101.024
125.859
37.6406
213.262
285.731
172.589
352.126
228.215
463.984
253.124
408.008
46.0805
111.977
133.988
49.2924
206.356
277.892
168.279
341.81
222.604
460.692
247.669
403.513
0.0691927
0.215319
0.242242
0.21091
0.244166
0.114904
0.122207
0.111322
0.135642
0.121307
0.129537
0.129568
0.132696
0.130237
0.134019
0.13278
0.108815
0.120105
0.11868
0.136668
0.121845
0.131081
0.130367
0.134335
0.129239
0.134717
0.134283
0.107557
0.121376
0.0581742
0.258128
0.342311
0.215099
0.282892
0.580712
0.553112
0.484468
0.46526
1.83546
1.29233
1.43449
1.10133
3.29508
3.49025
2.72725
3.25448
7.50691
3.45355
2.71083
6.82281
15.7608
70.191
51.1387
18.116
21.418
74.9605
57.123
20.9534
0.0701706
0.320982
0.318243
0.287372
0.284789
0.114125
0.130505
0.121633
0.137119
0.103362
0.111339
0.101665
0.10092
0.10346
0.0952487
0.129007
0.126196
0.126673
0.127859
0.132431
0.125597
0.132197
0.130533
0.110601
0.105875
0.110444
0.102832
0.131859
0.116916
0.123965
0.128748
0.134004
0.124529
0.132581
0.130373
0.26706
0.0151251
0.73889
0.731082
0.513274
0.48139
1.13532
1.11099
1.0266
1.0009
3.1067
5.1894
3.6421
4.37705
1.72953
1.28037
1.45917
1.70899
1.60097
1.43616
1.67749
1.41253
1.34589
1.06074
1.27343
1.12271
3.31586
6.79155
3.73398
5.43903
3.77996
2.98841
2.22979
4.0439
0.0704366
0.285229
0.228888
0.286972
0.228473
0.184653
0.159165
0.172575
0.138257
0.103683
0.112095
0.111599
0.119266
0.0892029
0.0836387
0.090175
0.0841631
0.0980107
0.0919554
0.0992555
0.0914484
0.0777987
0.0958671
0.0842527
0.0851874
0.0867651
0.0956475
0.0904129