/*--------------------------------*- C++ -*----------------------------------*\
| =========                 |                                                 |
| \\      /  F ield         | OpenFOAM: The Open Source CFD Toolbox           |
|  \\    /   O peration     | Version:  5.x                                   |
|   \\  /    A nd           | Web:      www.OpenFOAM.org                      |
|    \\/     M anipulation  |                                                 |
\*---------------------------------------------------------------------------*/
FoamFile
{
    version     2.0;
    format      ascii;
    class       volScalarField;
    location    "0.7";
    object      p;
}
// * * * * * * * * * * * * * * * * * * * * * * * * * * * * * * * * * * * * * //

dimensions      [1 -1 -2 0 0 0 0];

internalField   nonuniform List<scalar> 
12160
(
5352.58
5356.67
4698.15
5360.11
4702.39
4045.79
5356.51
4706.55
4050.92
3391.19
5344.16
4703.61
4055.63
3396.13
2739.31
5321.18
4691.72
4053.38
3403.07
2746.71
2084.74
5288.8
4668.8
4041.81
3403.13
2754.96
2091.74
1432.21
5249.24
4636.06
4018.5
3392.91
2756.35
2102.95
1442.71
776.783
5206.96
4595.89
3984.76
3369.47
2747.16
2109.74
1456.53
789.092
231.624
5164.48
4553.02
3943.28
3334.47
2723.28
2103.11
1467.44
805.938
244.487
3.27405
5124.12
4510.05
3899.14
3291.08
2686.29
2078.78
1462.25
821.939
262.588
9.59605
-6.81602
5087.34
4469.35
3855.17
3245.07
2640.08
2039.09
1437.38
824.744
288.683
17.0268
-6.78842
-7.40473
5054.92
4432.38
3813.79
3199.64
2591.42
1988.94
1394.21
800.115
295.222
28.0981
-6.72309
-7.50399
-8.17647
5027.06
4399.89
3776.44
3157.28
2543.96
1936.63
1339.2
752.302
277.69
34.1834
-6.59851
-7.52113
-8.16284
-8.75043
5003.63
4372.04
3743.8
3119.41
2500.27
1886.45
1282.65
689.879
240.967
31.2372
-6.27444
-7.61352
-8.17957
-8.82036
-9.53229
4984.25
4348.66
3715.97
3086.58
2461.69
1841.05
1229.64
627.345
196.417
21.6351
-6.1951
-7.68092
-8.24665
-8.83274
-9.49092
4968.47
4329.36
3692.7
3058.79
2428.6
1801.59
1182.67
569.814
155.059
11.3503
-6.45525
-7.71726
-8.30176
-8.87186
-9.49109
4955.82
4313.66
3673.56
3035.71
2400.85
1768.25
1142.57
519.865
120.437
3.91836
-6.67022
-7.67194
-8.31094
-8.89819
-9.50218
4945.85
4301.1
3658.05
3016.83
2377.99
1740.67
1109.18
478.097
92.6708
-0.699018
-6.74743
-7.57715
-8.27531
-8.90684
-9.50651
4938.16
4291.21
3645.67
3001.61
2359.43
1718.23
1081.88
444.077
70.7973
-3.33188
-6.78396
-7.51078
-8.21149
-8.88635
-9.50754
4932.44
4283.6
3635.94
2989.5
2344.55
1700.22
1059.87
416.901
53.71
-4.74127
-6.79761
-7.48219
-8.1703
-8.85143
-9.50095
4928.4
4277.93
3628.47
2980.03
2332.79
1685.93
1042.34
395.517
40.4149
-5.44904
-6.80097
-7.4731
-8.15016
-8.82743
-9.49054
4925.85
4273.93
3622.91
2972.77
2323.63
1674.73
1028.52
378.89
30.102
-5.7955
-6.80002
-7.46815
-8.14228
-8.81521
-9.48282
4924.63
4271.4
3618.99
2967.38
2316.63
1666.08
1017.76
366.089
22.1296
-5.96652
-6.79884
-7.46486
-8.13837
-8.80985
-9.47869
4924.66
4270.2
3616.52
2963.59
2311.46
1659.51
1009.47
356.326
15.9959
-6.05444
-6.80088
-7.46412
-8.13598
-8.8072
-9.47674
4925.87
4270.22
3615.33
2961.19
2307.82
1654.67
1003.21
348.957
11.3068
-6.10412
-6.80572
-7.46645
-8.13528
-8.80573
-9.47577
4928.26
4271.42
3615.35
2960.04
2305.52
1651.28
998.607
343.477
7.7549
-6.13473
-6.81231
-7.47133
-8.13661
-8.80533
-9.47526
4931.84
4273.77
3616.51
2960.04
2304.4
1649.13
995.385
339.497
5.10296
-6.15444
-6.81982
-7.47763
-8.13976
-8.80612
-9.47514
4936.66
4277.31
3618.8
2961.14
2304.39
1648.08
993.341
336.732
3.17123
-6.16684
-6.82694
-7.48402
-8.14401
-8.80796
-9.4754
4942.78
4282.07
3622.25
2963.34
2305.42
1648.04
992.332
334.972
1.82444
-6.17525
-6.83283
-7.48968
-8.14839
-8.81044
-9.47601
4950.28
4288.12
3626.89
2966.65
2307.49
1648.97
992.274
334.083
0.965744
-6.18044
-6.83674
-7.49455
-8.1523
-8.81302
-9.47681
4959.24
4295.54
3632.81
2971.12
2310.63
1650.86
993.122
333.988
0.531845
-6.18354
-6.83926
-7.49829
-8.15555
-8.81537
-9.47765
4969.74
4304.42
3640.08
2976.83
2314.88
1653.73
994.874
334.645
0.483652
-6.18498
-6.84045
-7.50094
-8.15792
-8.81735
-9.47842
4981.88
4314.84
3648.79
2983.87
2320.33
1657.66
997.559
336.057
0.802251
-6.18492
-6.84076
-7.50252
-8.15945
-8.81886
-9.47907
4995.69
4326.89
3659.04
2992.33
2327.08
1662.71
1001.24
338.259
1.48866
-6.18343
-6.84059
-7.50326
-8.16026
-8.81993
-9.47955
5011.23
4340.63
3670.91
3002.31
2335.22
1668.99
1005.99
341.319
2.55821
-6.18047
-6.83999
-7.50319
-8.16053
-8.82057
-9.47987
5028.5
4356.1
3684.49
3013.92
2344.87
1676.63
1011.94
345.34
4.03929
-6.17579
-6.8387
-7.50235
-8.16042
-8.82085
-9.48003
5047.46
4373.32
3699.83
3027.25
2356.15
1685.75
1019.19
350.446
5.97984
-6.16873
-6.83617
-7.50069
-8.15997
-8.82081
-9.48009
5068.01
4392.25
3716.94
3042.36
2369.17
1696.49
1027.9
356.791
8.43608
-6.15909
-6.83258
-7.49818
-8.15907
-8.82046
-9.48007
5090.03
4412.82
3735.82
3059.31
2384.01
1708.99
1038.2
364.548
11.4761
-6.1461
-6.82764
-7.49473
-8.15757
-8.81977
-9.47998
4434.89
5128.49
3756.4
3078.09
2400.75
1723.36
1050.26
373.907
15.1787
-6.12779
-6.82133
-7.49038
-8.1554
-8.81872
-9.47979
3778.56
4473.51
5186.67
3098.66
2419.41
1739.72
1064.2
385.07
19.6334
-6.10268
-6.81438
-7.48529
-8.15256
-8.8173
-9.47949
3120.94
3817.49
4532.25
5242.69
2439.99
1758.13
1080.16
398.244
24.9398
-6.06774
-6.80726
-7.47979
-8.14913
-8.81553
-9.47905
2462.43
3160.29
3877.31
4589.17
5291.38
1778.63
1098.25
413.626
31.2082
-6.01749
-6.80085
-7.47404
-8.14532
-8.81345
-9.47847
1801.21
2502.36
3221.66
3935.97
4639.06
5326.68
1118.55
431.394
38.5583
-5.94093
-6.79538
-7.4683
-8.14134
-8.81116
-9.47778
1141.1
1841.77
2565.74
3282.82
3988.18
4676.49
5343.87
451.689
47.1193
-5.81958
-6.79101
-7.46311
-8.13742
-8.80879
-9.47703
474.612
1182
1907.64
2630.25
3338.46
4028.79
4697.99
5378.56
57.026
-5.62672
-6.78812
-7.45898
-8.13391
-8.8065
-9.47625
68.427
516.852
1250.04
1976.37
2690.38
3383.69
4054.61
4717.72
5237.88
-5.32241
-6.78681
-7.45608
-8.13117
-8.80445
-9.4755
-4.83539
90.2017
589.069
1323.09
2042.1
2741.05
3416.28
4070.02
4630.54
5323.1
-6.78582
-7.45437
-8.12931
-8.80283
-9.47483
-6.78342
-3.5226
130.228
668.525
1395.01
2099.3
2779.22
3435.55
4026.22
4679.25
4919.22
-7.45384
-8.12834
-8.80173
-9.4743
-7.45362
-6.78616
0.390028
179.07
748.44
1459.43
2144.3
2803.09
3424.42
4051.44
4516.76
5143.16
-8.12826
-8.80117
-9.47394
-8.12877
-7.46275
-6.76081
7.62359
233.466
822.356
1511.49
2174.92
2808.32
3448.72
3954.61
4592.64
5187.68
5826.64
-8.80118
-9.47375
-8.80172
-8.13442
-7.47282
-6.69061
18.6104
287.439
882.366
1549.52
2193.27
2831.3
3430.08
4024.51
4580.15
5155.24
5837.66
6529.09
-9.47377
-9.474
-8.80497
-8.14318
-7.51163
-6.49941
32.4753
334.67
927.14
1575.7
2216.02
2839.11
3439.74
3990.36
4545.74
5063.83
5798.51
6524.1
7246.29
-9.47506
-8.81093
-8.16866
-7.5799
-6.04087
46.9125
372.663
959.864
1600.79
2227.62
2842.4
3404.07
3962.38
4448.76
4914.92
5709.99
6477.27
7234.6
7980.29
-9.47726
-8.82633
-8.21495
-7.65611
-5.38287
59.7465
400.907
983.413
1614.56
2234.31
2809.29
3372.88
3857.42
4305.73
4670.92
5563.43
6393.13
7187.52
7963.35
8725.1
-9.48243
-8.85346
-8.27105
-7.71981
-4.84271
69.9043
417.337
997.202
1621.67
2203.1
2773.7
3276.2
3729.73
4064.18
4334.81
5325.56
6255.1
7109.96
7921.57
8709.21
9480.22
-9.49108
-8.88539
-8.31695
-7.75085
-4.73003
76.7182
432.158
1001.35
1594.03
2170.65
2692.16
3158.21
3510.65
3729.1
3124.59
5006.77
3133.25
2897.67
2897.17
6034.82
6986.08
7854.72
8673.64
9466.52
10239.7
-9.50108
-8.91122
-8.34137
-7.74903
-4.93823
77.5128
430.971
975.796
1565.21
2099.69
2582.9
2983.93
3227.42
3271.93
3367.46
3051.49
5767.59
3393.38
3624.37
3653.76
3027.97
2731.86
2704.03
6787.06
7745.7
8615.78
9438.23
10229.4
10998
-9.50921
-8.92526
-8.35086
-7.74197
-5.38423
73.9531
413.467
948.122
1503.07
2004.03
2449.31
2747.19
2875.93
2415.39
2390.81
2229.39
2220.21
3391.7
2963.21
6568.05
5530.54
3379.58
3743.54
3765.43
2911.55
2651.83
2598.01
7589.19
8526.49
9390.1
10207.5
10990.4
11752.2
-9.51422
-8.931
-8.35236
-7.73378
-5.83106
64.981
391.114
891.076
1421.1
1889.2
2247.34
2446.3
2054.19
2051.45
1889.85
1889.34
2347.95
2334.6
2114.65
2101.03
3284.32
2535.78
2499.75
2659.59
2387.41
7417.52
6432.97
4357.69
4350.77
4010.04
4002.4
3257.51
3634.65
3625.64
2508.09
2470.55
2635.82
2350.13
2399.53
2164.33
2331.29
2278.33
2379.17
2148.87
2317.41
2248.83
8409.7
9317.94
10171.3
10974.4
11746.8
12498
-9.51893
-8.93235
-8.34903
-7.71693
-6.18811
53.8958
347.044
817.638
1312.66
1720.86
1997.12
1731.19
1731.41
1579.52
1580.62
1902.66
1889.6
1717.24
1710.21
1958.44
2169.95
2073.84
1828.46
1912.81
2204.18
2159.11
1953.81
2068.3
1824.09
1909.53
2196.41
1648.82
1709.64
1746.81
1818.85
1644.11
1706.93
1742.76
1815.43
2936.22
2611.25
2766.63
2765.49
2652.48
2637.54
2840.9
2484.96
8291.06
7165.51
5025.3
5006.8
4691.47
4677.37
4311.17
4301.02
3870.93
3861.39
2927.78
2593.82
2753.75
2748.38
3127.79
2920.37
3264.99
2895.73
3124.32
2918.13
3266.14
2885.28
2636.13
2618.64
2825.86
2464.44
2416.56
2332.51
2404.44
2317.02
9224.5
10118.2
10948.7
11735.4
12494.6
13232.7
-9.52541
-8.93256
-8.33587
-7.69966
-6.51755
36.6492
296.777
717.728
1167.75
1513.59
1419.48
1419.19
1280
1279.49
1574.93
1566.49
1438.45
1432.07
1533.48
1599.51
1437.94
1503.32
1538.21
1602.07
1450.36
1506.73
1293.72
1320.09
1369.19
1415.51
1302.35
1320.74
1380.45
1416.96
2153.11
1961.08
2189.16
2306.83
1852.54
2043.71
2144.22
1953.01
2293.98
2177.39
1845.88
2036.39
1638.9
1793.08
1740.53
1918
1640.44
1789.97
1735.88
1910.89
3172.89
2782.96
3005.16
2928
2668.15
2681.18
2829.73
2522.34
9136.54
8219.06
5718.24
5704.16
5361.56
5342.14
4956.11
4938.7
4635.36
4626.16
3648.28
3942.43
3534.92
3829.94
3645.05
3943.35
3528.74
3827.33
3298.67
3076.41
3544.66
3398.61
3685.91
3517.33
3293.9
3060.37
3538.72
3394.72
3682.72
3506.15
3159.61
2768.53
2991.15
2914.67
3348.2
3048.08
3336.7
3032.6
2653.58
2655.41
2812.33
2500.41
2499.14
2343.37
2485.55
2328.77
10043.4
10911.8
11718
12487.5
13230.7
13953.7
-9.53298
-8.9302
-8.32349
-7.69015
-6.73777
19.9748
234.816
589.786
988.954
1101.67
1102.77
915.68
916.776
1282.76
1281.48
1138.46
1137.43
1235.68
1268.41
1182.97
1239.49
1238.27
1269.14
1182.89
1239.17
1049.02
1161.81
1110.47
1198.1
1043.97
1159.5
1108.89
1197.04
1557.24
1684.83
1477.3
1570.07
1569.23
1686.23
1490.99
1573.37
1279.83
1312.56
1388.17
1445.76
1293.21
1317.88
1396.44
1446.69
3121.22
2825.61
2980.71
2957.94
9955.62
9114.26
6443.97
6441.57
6084.84
6077.37
5692.82
5669.99
5318.21
5297
4105.05
4382.01
3976.5
4245.32
4127.02
4390.76
3989.88
4253.29
3763.47
4054.06
3856.01
4142.23
3764.12
4058.18
3866.93
4148.47
3719.58
4046.56
3587.94
3896.93
3716.11
4040.75
3582.52
3890.99
3184.11
3323.58
3574.91
3387.59
3453.95
3738.69
3170.4
3320.71
3568.08
3376.92
3450.78
3734.79
3106.09
2799.98
2963.14
2935.32
3254.92
3076.7
3240.9
3058.43
10856.7
11693.4
12476.3
13226.6
13952.8
14659.5
-9.5384
-8.92785
-8.31247
-7.6867
-6.84781
6.80417
166.449
458.481
753.165
974.115
973.725
786.79
787.811
1122.07
1121.17
1022.82
1021.81
1219.74
1248.34
1154.89
1185.37
1229.36
1252
1162.55
1187.6
1032.92
1052.68
1073.95
1119.65
1034.82
1052.81
1082.16
1121.71
1315.06
1395.34
1323.9
1394.21
10786
9925.35
7201.33
7200.09
6819.83
6815.17
6483.78
6463.36
6119.5
6093.51
4653.71
5162.73
4588.46
4927.88
4663.12
5164.38
4603.91
4932.44
4269.48
4532.82
4429.57
4709.54
4285.62
4539.75
4451.13
4716.05
4272
4572.93
4172.04
4506.95
4275.92
4576.13
4167.92
4505.9
3874.37
4219.05
4028.85
4375.68
3867.99
4211.73
4022.68
4369.83
11658
12460
13220.1
13950.9
14659.4
15348.7
-9.54315
-8.92513
-8.30337
-7.68661
-6.91091
-1.18881
95.8393
319.218
518.828
519.721
353.611
354.104
864.784
861.856
694.265
695.938
926.343
953.459
967.734
898.011
924.235
953.754
967.576
893.872
868.356
752.621
798.115
842.74
865.741
748.041
796.307
836.085
1245.89
1316.69
1164.77
1236.17
1252.31
1317.62
1169.44
1237.62
1007.83
1022.37
1077.57
1142.97
1016.09
1023.96
1084.51
1144.56
11612.1
10741.7
9976.41
7095.48
7090.67
6817.11
6799.29
6358.47
6348.14
5955.55
5944.68
4756.7
5321.86
4755.86
5152.84
4752.55
5313.6
4758.41
5147.89
4440.85
4739.67
4621.6
4941.32
4440.25
4740.09
4623.45
4938.43
4278.05
4531.04
4292.69
4530.43
12438.5
13210.2
13947.8
14659.3
15349.1
16020.4
-9.54727
-8.92469
-8.29069
-7.69402
-6.94042
-4.7195
36.2807
165.673
421.725
420.491
249.873
248.365
659.127
733.193
709.651
593.28
658.332
732.046
708.056
594.743
612.19
609.911
879.738
932.109
939.174
872.754
878.585
932.463
938.599
868.067
803.846
718.72
735.435
801.709
802.838
719.816
734.843
799.219
980.205
1006.88
986.093
1007.54
12416.7
11590
10797.4
7877.62
7865.17
7572.94
7534.68
7200.26
7167.92
6827.89
6793.92
5507.76
5330.28
5686.34
5192.58
5513.43
5352.42
5691.45
5198.92
5369.93
4955.74
5263.24
5055.5
5373.5
4956.43
5260.84
5057.19
4898.19
5166.27
4779.98
5012.17
4898.02
5157.99
4773.92
5003.43
4442.39
4683.82
4622.49
4848.01
4446.07
4678.18
4623.06
4838.65
13197.1
13943.1
14658.9
15350.1
16021.1
-9.55143
-8.92137
-8.28158
-7.67558
-7.00554
-5.54084
-0.550458
60.9987
61.0228
20.7812
20.7466
306.006
350.032
233.504
278.749
308.814
349.929
235.983
277.157
154.083
152.938
643.687
668.53
612.657
576.584
646.841
668.818
612.398
575.601
389.04
424.412
483.434
489.435
390.354
424.445
480.445
488.591
795.888
684.866
729.409
747.127
795.943
687.727
729.353
749.738
13183.6
12412.4
11647
10878
7844.05
7797.53
7401.49
7361.16
6966.21
6937.43
5490.85
5887.16
6043.03
5522.7
5497.98
5886.36
6044.33
5518.73
5651.89
5447.12
5788.81
5302.93
5645.13
5433.4
5773.64
5292.13
5518.27
5063.36
5340.9
5189.33
5517.9
5057.55
5335.05
5181.15
4910.97
5152.01
4915.53
5146.97
13936.4
14658.3
15351.5
16022.6
-9.55004
-8.92452
-8.27187
-7.6314
-7.10389
-5.81842
-4.02277
-4.02149
-4.18286
-4.18572
15.0175
15.0054
-0.473237
-0.470585
278.35
287.506
192.877
210.327
277.397
286.95
192.944
209.98
106.662
55.4135
55.6809
92.0219
106.406
55.2239
55.8201
91.1622
627.662
658.131
563.543
564.436
629.589
658.35
563.66
561.513
369.575
373.86
456.87
451.75
367.035
373.387
453.27
451.188
13928.1
13187.6
12471.3
11693.5
8562.04
8552.15
8162.17
8153.17
7606.95
7606.16
6024.93
6447.68
6025.19
6608.26
6039.56
6449.36
6052.78
6614.86
5876.57
6255.39
5790.33
6125.59
5557.78
6118.69
5909.88
6255
5814.61
6120.13
5550.85
6105.42
5598.55
6021.19
5583
6002.82
5520.85
5387.19
5665.87
5234.51
5520.63
5416.35
5663.06
5251.37
14658
15353.6
16024.7
-9.55606
-8.91562
-8.27093
-7.5571
-7.24755
-6.26496
-4.48241
-4.47204
-4.66341
-4.66111
1.64813
23.3428
3.06443
-0.945848
-0.785372
21.5052
23.4465
1.67308
21.595
3.08058
-0.957561
-0.78479
-2.16072
-2.41106
-1.3713
-1.555
-2.16546
-2.40912
-1.37166
-1.55747
243.488
253.733
160.137
172.128
242.844
252.98
159.112
171.396
61.0818
58.236
61.0966
58.1149
531.185
529.446
531.495
527.068
324.681
343.276
323.936
342.655
14659.4
13928.4
13234.4
12592.7
9297.6
9290.71
8887.05
8874.38
8301.29
8294.44
7867.17
7863.97
6743.83
6198.77
6835.93
6280.93
6701.75
6090.61
6738.28
6237.22
6835.41
6292.28
6687.34
6084.2
6147.19
6603.44
6130.18
6591.97
6013.14
6377.75
5898.36
5750.72
6221.16
6051.3
6002.37
6362.66
5880.09
5756.67
6221.41
6043.51
5586.98
5877.49
5598.76
5874.87
15356.8
16027.8
-9.55041
-8.9122
-8.26627
-7.56314
-7.09635
-5.44288
-5.43835
-5.5318
-5.55431
-4.11794
-4.10724
-5.02002
-5.01478
5.78795
-0.452474
0.209497
6.8383
-1.29005
-1.25127
6.16239
-0.456187
6.75105
0.231118
-1.29917
-1.25703
-2.0103
-2.1029
-1.35948
-1.37418
-2.01561
-2.10365
-1.36814
-1.37951
122.344
133.537
121.842
132.951
15361.7
14664.5
13950
13335.5
12626.9
8940.97
8960.06
8750.11
8715.15
6859.57
7487.39
6839.88
7333.32
6877.74
7483.37
6869.05
7339.37
6512.05
6278.13
6988.8
6699.07
7161.75
6967.1
6543
6289.66
6993.96
6732.64
7168.97
6965.9
6937.94
6644.52
6400.88
6323.63
6942.18
6643.88
6398.82
6316.42
6168.14
6490.79
6161.4
6482.41
5998.85
6311.8
5741.59
6031.1
6009.84
6303.46
5746.35
6032.59
16032.5
-9.56002
-8.89723
-8.26974
-7.61665
-7.86187
-6.089
-6.05702
-5.87051
-5.91001
-4.17213
-2.87466
-2.92712
-3.69018
-4.15978
-2.85909
-2.92085
-3.66574
-5.38518
-5.36363
-1.89603
-1.74125
-1.12219
-1.13227
-1.90145
-1.73959
-1.13556
-1.13391
16040
15369.7
14680.1
13991.2
13416.4
9911.68
9847.95
9431.06
9449.64
9100.13
9099.77
8743.59
8701.91
6994.12
7603.31
7045.92
7636.78
6943.43
7530.16
6993.62
7573.44
6384.89
6677.53
6827.15
7100.08
6924.59
7377.28
6419.75
6664.91
7092.74
6843.22
6874.65
7344.91
6655.16
6300.93
6657.24
6301.43
-9.54543
-8.891
-8.26344
-7.96238
-5.66814
-5.67978
-6.02332
-6.0322
-6.31445
-6.35278
-5.67112
-5.7646
-3.67357
-2.67507
-2.72953
-3.44134
-3.67561
-2.69623
-2.72587
-3.44668
-4.55285
-4.98433
-3.82216
-3.99051
-4.60389
-4.99111
-3.84427
-4.0002
-1.87351
-1.80704
-1.88758
-1.80964
16052.2
15385.3
14709.1
14076.4
13292.8
9679.92
9676.75
9396.05
9351.91
8923.44
8849.91
7762.97
7223.05
7755.36
7147.41
7715.88
7142.07
7658.95
7097.06
7137.33
7493.87
6989.74
7376.55
7121.15
7470.17
7000.53
7404.66
-9.54886
-8.87108
-8.3598
-8.03431
-5.30563
-5.3335
-5.81656
-5.66197
-4.08123
-4.44638
-4.75759
-4.25723
-4.48537
-4.28175
-4.16013
-4.47339
-4.82013
-4.35925
-4.52572
-4.40977
-5.16971
-5.33828
-3.38902
-2.64535
-2.80842
-3.24452
-3.39804
-2.65762
-2.8084
-3.26034
-3.64582
-3.8747
-3.70218
-3.89808
16075.8
15422.2
14767.9
14284.5
10255.2
10302.2
9963.47
10038.5
9670.42
9653.4
9339.3
9272.63
7419.79
8178.77
7418.9
8007.57
7172.87
7971.54
7426.37
8169.29
7443.02
7997.99
7151.99
7921.39
7281.84
7994.73
7259.76
7946.83
7114
7548.04
7138.3
7578.52
-9.51868
-8.91531
-8.34803
-5.80594
-5.86807
-6.10706
-6.14066
-5.09282
-5.06578
-5.57404
-5.40749
-3.94188
-4.23167
-4.28881
-3.79444
-4.14476
-3.71342
-4.05148
-4.27537
-4.34914
-3.9649
-4.21613
-3.89018
-4.0029
-4.32974
-3.94106
-4.09393
-3.98246
-4.31479
-3.90413
-4.07638
16116
15482.8
14812.3
14024.4
10228.2
10244.1
9910.82
9901.41
9552.92
9484.93
7618.82
8419.64
8342
7619.7
8193.16
7670.42
8326.33
7607.35
8175.71
7618.19
7569.92
8390.59
7609.15
7288.8
8342.49
7755.6
7584.55
7345.53
8319.55
7791.39
7183.82
7703.53
7230.67
7730.06
-9.51283
-8.94915
-8.33676
-5.65982
-5.66962
-5.93988
-5.95793
-4.01831
-4.35714
-4.82462
-4.04131
-4.43876
-4.23816
-3.76256
-4.21862
-4.78865
-3.83442
-4.3011
-4.3343
-5.51909
-5.45045
-3.95722
-3.67565
-4.00028
-3.72835
-3.41281
-3.70612
-3.56024
-3.8532
16153.3
15533.9
14754
11011.3
11022.1
10707.1
10664.7
10358.9
10322
9869.67
9825.97
7939.33
8644.25
7992.93
8534.2
7871.82
8660.06
7930.1
7817.66
8626.22
8629.54
7963.67
8498.19
7644.54
8098.54
7896.64
8679.27
7857.31
7637.05
8641.92
8091.93
-9.4974
-8.88125
-8.26642
-5.63905
-5.61243
-5.80669
-5.80082
-4.02595
-3.99161
-4.5096
-4.05688
-4.22044
-4.11853
-3.71024
-3.94224
-4.46875
-3.80065
-4.0982
-4.01986
-4.49497
-4.99053
-4.10567
-4.61643
-4.45636
-4.94217
-4.17052
-4.58886
-3.72336
-3.70182
-3.51602
-3.68376
16179.7
15559.2
14920.6
10956.2
10943.3
10611.1
10593.2
10113.2
10106.3
7985.08
8703.72
8789.1
8161.09
8585.39
8178.59
7975.13
8696.97
8786.21
8159.52
8583.84
8171.23
8009.06
7973.72
8780.46
8446.36
7937.45
8408.83
7985.08
8744.84
-9.51095
-8.81205
-5.9368
-5.63503
-5.63952
-5.93409
-6.35664
-6.36906
-5.50317
-4.34207
-4.75195
-5.48154
-4.28142
-4.73071
-4.01568
-3.91109
-4.28778
-4.01723
-4.106
-4.07695
-3.70798
-3.81605
-4.25289
-3.74839
-4.02844
-4.00306
-3.97363
-4.39837
-3.96671
-4.37115
16273.3
15816.1
15341.1
11208.7
11177.6
10755.1
10729.9
8389.54
9041.4
8477
8941.47
8150.6
8741.57
8440.09
8144.11
8731.16
9070.14
8469.5
8925.2
8182.49
8657.35
8196.95
8701.92
8163.58
8644.42
8191.4
8684.69
8038.64
8587.32
8009.25
8571.69
-9.50147
-8.7168
-5.65131
-5.7958
-5.64231
-5.77505
-6.27289
-6.2731
-4.22149
-4.18228
-4.49182
-4.26747
-4.61464
-4.69793
-4.63088
-5.10116
-4.15888
-4.21132
-4.47616
-4.24008
-4.59779
-4.69262
-4.60443
-5.08467
-4.20506
-3.98626
-4.1587
-3.93269
-3.97851
-4.33217
-3.96729
-4.30974
16549.7
16116.3
11954.4
11099
11066.7
11956.7
11477.6
11483.5
10152.3
8529.54
9183.49
10176.1
8543.98
9191.96
8585.52
8699.04
8962.87
9284.93
8570.47
8946.54
8673.7
9266.88
8126.41
8549.6
8366.67
8823.71
8118.79
8542.6
8342.49
8801.15
-9.49344
-8.68878
-5.62038
-4.88417
-4.49619
-5.82298
-5.61073
-4.8764
-4.47418
-5.78965
-6.17929
-6.16826
-4.1446
-4.05344
-3.99517
-4.32311
-4.43814
-4.52419
-4.14667
-3.98054
-4.05584
-4.30736
-4.43078
-4.52051
-4.21718
-3.96964
-4.18139
-3.92073
16841.8
16301.9
11997.7
11050.9
11073
11955.3
11541.6
11507.7
8713.62
8476.48
9122.8
8474.98
9108.35
9162.53
8720.59
9442.61
8745.85
8499.39
9130.57
8527.43
9128.56
9160.42
8763.89
9447.13
8666.92
8624.99
9057.79
9150.3
8646.92
9046.2
8629.11
9152.14
-9.43756
-6.24039
-6.03896
-6.01814
-6.23584
-6.7128
-6.74648
-4.7591
-4.76331
-4.40211
-4.68989
-4.41083
-5.17654
-4.54438
-4.9128
-5.75694
-4.63453
-4.97376
-4.74139
-4.75863
-4.39046
-4.6889
-4.40223
-5.16818
-4.5046
-4.89497
-5.72093
-4.63421
-4.97058
-4.07931
-4.13676
-4.45141
-4.52783
-4.07805
-4.11311
-4.44802
-4.51675
17090.3
16532.7
12067.9
10868.6
9380.15
8725.2
10875.3
9379.09
8739.41
12027.9
11396
11402.5
8618.59
8847.83
8588.91
8994.53
9226.9
9380.5
8649.5
8839.95
8590.35
9227.76
9015.08
9395.48
8607.3
9009.26
8605.97
9006.33
-9.40455
-5.96111
-6.15443
-5.91815
-6.13905
-6.56831
-6.60162
-4.21913
-4.3394
-4.56862
-4.55338
-4.42052
-4.756
-4.49202
-4.50799
-4.79154
-4.61601
-4.91199
-4.89018
-4.94019
-5.34876
-4.19473
-4.33728
-4.54484
-4.56651
-4.38636
-4.73858
-4.51413
-4.47079
-4.79164
-4.61507
-4.90402
-4.88338
-4.91117
-5.33082
17344.2
12554.8
12014.7
11972.6
12623.6
12227.5
12270.3
9090.2
9384.8
8825.13
9523.65
8801.08
9917.09
9087.95
9722.45
9148.61
9304.72
8812.03
9532.4
8724.26
9910.91
9121.55
9731.76
11075.5
9147.94
9893.91
11054.6
9196.61
9898.34
8763.66
8881.91
9179.88
9585.93
8759.81
8854.86
9181.27
9581.62
-9.37835
-5.906
-5.13218
-4.79968
-6.0985
-5.84892
-5.11732
-4.78904
-6.0915
-6.50783
-6.54145
-4.22399
-4.56793
-4.43907
-4.72612
-4.38782
-4.46884
-4.38137
-4.62952
-4.58994
-4.72908
-4.21861
-4.5647
-4.39402
-4.70798
-4.3778
-4.35114
-4.43767
-4.62562
-4.58944
-4.72113
17202.9
12544.6
11889.1
11879.1
12627.3
12199.5
12212.8
8874.87
9018.52
9474.12
9450.36
9243.3
9823.04
8842.26
9020.09
9483.25
9460.22
9241.9
9815.64
9297.69
9241.52
9890.25
9146.1
9806.89
9854.52
9393.18
10110.4
9305.73
9240.53
9895.2
9191.5
9825.46
9855.09
9413.49
10104.9
-9.37626
-6.45833
-6.48729
-5.77191
-5.04504
-4.65897
-4.97044
-4.74105
-6.04591
-5.72846
-5.02523
-4.61976
-4.94886
-4.7127
-6.03558
-4.31054
-4.35163
-4.45781
-4.5074
-4.50735
-4.64657
-4.29406
-4.33331
-4.43105
-4.49988
-4.50336
-4.63497
17323.6
12578.6
11883.5
10037.1
9428.76
11829.8
10029
9422.45
12613.9
12282.2
12264.9
9004.44
9428.81
9136.36
9747.13
9029.46
9431.81
9147.27
9727.69
9394.55
9588.08
9255.21
9744.54
9751.13
10099
9442.65
9554.09
9217.21
9763.17
9747.89
10078.4
-9.36382
-6.4848
-6.46126
-6.51624
-6.49568
-5.70861
-4.84754
-4.57197
-4.91567
-4.49796
-4.39788
-4.58558
-6.03658
-5.6711
-4.83679
-4.54955
-4.90108
-4.47781
-4.37344
-4.57519
-6.04146
-4.332
-4.45471
-4.3183
-4.44725
17338.7
12577.5
12574.1
11944
9914.91
9422.05
9819.65
9465.6
11918.4
9919.76
9419.24
9822.36
9458.77
12220.8
12189.3
9510.3
9237.29
9587.28
9870.77
9558.92
9986.93
9542.71
9261.81
9555.38
9569.65
9856.77
9971.14
-9.36656
-6.46703
-6.48152
-6.50413
-6.50927
-6.00902
-6.01755
-5.69041
-4.79741
-4.42945
-4.78996
-4.42228
-4.49969
-4.34426
-4.55191
-4.29581
-4.28721
-4.41037
-5.67302
-4.78654
-4.43716
-4.78714
-4.40776
-4.49239
-4.32081
-4.54404
-4.26401
-4.27413
-4.40294
17335.6
12575.8
12577.1
12570.1
12572.8
11796.4
9738.31
9440.2
9807.41
9379.55
9548.29
9939.87
11738.8
9729.47
9445.42
9808.9
9399.41
9527.06
9926.78
12296.2
12266.6
9487.32
9844.76
9488.96
9815.39
-9.39316
-6.49692
-6.54956
-6.52798
-6.58148
-6.00975
-6.01857
-6.01977
-6.02404
-5.6812
-5.66633
-4.7225
-4.43295
-4.75895
-4.39381
-4.47812
-4.15304
-4.46861
-4.22052
-4.37286
-4.25854
-4.39974
-4.23265
-4.72487
-4.46995
-4.76778
-4.41316
-4.47555
-4.15649
-4.47123
-4.20028
-4.36708
-4.2419
-4.39281
-4.21483
17319.6
12576
12576.7
12571
12566.7
12321.7
12288.9
11696.3
9793
9273.55
9795.24
9334
9686.27
9492.99
9822.44
9415.13
9521.3
9902.92
11651.2
9755.96
9326.86
9806.97
9353.56
9674.33
9474.12
9811.13
9422.75
9504.76
9870.33
-9.43068
-6.61022
-6.71287
-6.64357
-6.74745
-6.02471
-6.07434
-6.03483
-6.08299
-5.66473
-5.68632
-5.66527
-5.66001
-4.75355
-4.37077
-4.75023
-4.3861
-4.74699
-4.4032
-4.74642
-4.40283
-4.42566
-4.03937
-4.4463
-3.97956
-4.4285
-4.06009
-4.45406
-3.99865
17201.4
12578.1
12567.6
12569.5
12610.6
12316.3
12293.6
12286.1
12262.8
11689.3
11635.3
10148.9
9402.13
10050.4
9512.74
9937.97
9426.66
9978.87
9465.96
9791.34
9497.91
9859.56
9427.15
10140.3
9419.17
10056.7
9496.9
9682.59
9250.61
9704.13
9337.49
9768.4
9494.19
9834.31
9448.43
-8.63554
-9.47146
-6.11218
-6.21645
-6.11553
-6.22955
-5.70404
-5.79718
-5.6875
-5.77745
-4.77308
-4.33006
-4.74081
-4.39225
-4.76913
-4.42596
-4.74037
-4.43387
-4.74245
-4.40728
-4.74404
-4.37993
-4.73754
-4.44208
-4.73707
-4.39567
-4.45204
-4.03785
-4.44276
-4.01233
-4.43995
-4.00137
-4.43359
-4.00098
17354.1
12531
12564.4
12622.9
12615.5
12217.4
12276.9
12191
12263
11689.6
11702.7
11636.7
11657.8
10209.7
9581.02
10241.1
9554.82
10195.3
9546.25
10220.9
9528.96
10281.9
9485.83
10050
9643.95
10251.9
9445.52
10005.1
9591.01
-8.72039
-5.94609
-6.05525
-5.9348
-6.05026
-9.50057
-5.90308
-5.96893
-5.87984
-5.94422
-4.78274
-4.39175
-4.72054
-4.43511
-4.86791
-4.65412
-4.93707
-4.5669
-4.78793
-4.45809
-4.73609
-4.4699
-4.87603
-4.68196
-4.94193
-4.60297
-4.46301
-4.05296
-4.43571
-4.08896
-4.44481
-3.93253
-4.39741
-4.0286
-4.42858
-3.98231
-4.4306
-3.98351
-4.41715
-3.93203
-4.38982
-3.98501
17096.9
16539.8
12190
12224.1
12220.3
12261.6
11797.9
11939.6
11748.5
11913.4
10204.9
9581.68
10239.9
9549.08
10144.6
9392.71
10043.7
9511.11
10191.8
9547.16
10220
9525.16
10134.1
9413.75
10050.5
9493.31
10295.8
9671.59
10339
9648.21
10272.6
9639.56
10318.2
9606.77
-8.79342
-6.19957
-6.33056
-6.19556
-6.33635
-5.61957
-5.73509
-5.60123
-5.71551
-9.52653
-4.9772
-4.68288
-4.97029
-4.64152
-5.02399
-4.79172
-5.26911
-4.57362
-4.98017
-4.70203
-4.97049
-4.67826
-5.02897
-4.77549
-5.2527
-4.61188
-4.41109
-3.87791
-4.35321
-3.9965
-4.401
-4.08499
-4.44668
-4.04934
-4.40602
-3.88775
-4.35419
-3.97623
-4.41369
-4.13309
-4.45867
-4.09008
16856.1
16309.8
12022.1
12072
11976.9
12036.6
11877.4
11887.1
11821.4
11878.7
9786.38
9258.8
9780.01
9327.97
9731
9438.99
9803.13
9373
9753.64
9318.58
9793.69
9354.91
9723.8
9435.42
9805.99
9393.54
10293.7
9671.39
10338.8
9645.48
10281.4
9476.77
10038.9
9641.68
10267.1
9640.31
10318.7
9602.73
10249.7
9446.74
10001.5
9587.8
-8.23997
-8.86516
-5.74782
-5.89733
-5.73641
-5.88968
-4.20041
-4.25771
-4.58639
-4.38684
-4.75822
-4.75365
-4.7259
-5.18974
-4.53312
-4.91256
-4.19004
-4.28718
-4.58443
-4.37343
-4.754
-4.75961
-4.70258
-5.17796
-4.52223
-4.90809
-9.54078
-4.46956
-4.08013
-4.45227
-4.12376
-4.50783
-4.08898
-4.46997
-4.11317
-4.46001
-4.10796
-4.51395
-4.0945
-4.25156
-3.9404
-4.23652
-3.96055
-4.26311
-4.00079
-4.24906
-3.99413
16567
16132.1
12000.9
11961.3
11960.5
11962.6
11067.7
11399.8
11062.4
11415.6
9909.76
9415.25
9814.32
9459.05
10027.7
9382.55
10102.4
9413.36
9905.89
9410.48
9815.76
9447.02
10027.4
9412.57
10102.9
9423.56
9944.16
9413.87
9976.65
9455.41
9688.16
9497.82
9817.43
9417.6
9691.62
9272.11
9714.98
9355.6
9673.01
9449.95
9800.89
9404.2
-8.36934
-5.61265
-5.79314
-5.60804
-5.7832
-8.94842
-5.59208
-5.6051
-5.58094
-5.59853
-4.04736
-4.09316
-4.36279
-4.40411
-4.13156
-4.48415
-4.36772
-4.79577
-4.13106
-4.56477
-4.05666
-4.05968
-4.36599
-4.39594
-4.09019
-4.47402
-4.29112
-4.76864
-4.05921
-4.53739
-9.55934
-4.2365
-3.94836
-4.2173
-3.99198
-4.2515
-3.97005
-4.23382
-3.98746
-4.22461
-3.99672
-4.24409
-3.95582
16287.3
15832.1
15356.8
11542.8
11486.8
11511.2
11489.3
9224.44
9288.62
9885.71
9146.12
9804.87
9844.78
9090.46
9918.99
9151.11
9898.03
9301.91
9275.22
9903.86
9202.99
9829.25
9853.55
9155.85
9921.45
9203.98
9908.99
9984.35
9546.26
9939.44
9581.3
10088.8
9575.28
9966.97
9510.85
9920.67
9547.7
10072.8
9543.06
9791.71
9505.89
9855.09
9431.4
9760.85
9455.75
9813.7
9430.99
-8.45072
-5.92318
-6.13551
-5.90168
-6.13391
-5.44176
-5.57985
-5.43155
-5.57263
-8.96293
-4.74897
-4.34711
-4.65216
-4.40659
-4.85662
-4.60466
-5.07431
-4.47622
-4.74236
-4.28632
-4.63205
-4.38567
-4.85204
-4.59198
-5.07047
-4.45811
-4.04847
-4.30395
-4.21002
-4.52523
-4.10543
-4.48913
-4.04009
-4.29883
-4.21098
-4.51914
-4.11371
-4.48712
-9.52902
16200.4
15576.9
14930.4
11108.9
11220
11072.2
11185.4
10870.1
11065.1
10873.3
11092.3
9376.16
9256.54
9753.62
9734
9139.11
9746.88
9093.77
9729.99
9249.04
9825.26
9454.27
9224.45
9743.05
9769.87
9124.9
9721.71
9128.12
9740.25
9242.93
9815.79
9845.21
9526.48
9902.55
9489.29
9863.64
9505.41
9814.14
9474.27
9855.63
9486.06
9845.45
9519.78
-8.16901
-8.53677
-5.62974
-5.8351
-5.6172
-5.8341
-4.13918
-4.20031
-4.44455
-4.22419
-4.56194
-4.67376
-4.44631
-4.95237
-4.29374
-4.68826
-4.15717
-4.18789
-4.45273
-4.23017
-4.56548
-4.67863
-4.4292
-4.93961
-4.27814
-4.68784
-8.88694
-4.45608
-4.12996
-4.47594
-4.0718
-4.47731
-4.01589
-4.44813
-4.09158
-4.45768
-4.04622
-4.48064
-4.02738
-9.54563
16173.1
15556.8
14769.7
10967.5
11019.4
10952.2
11029.9
10157.9
10763.8
10185.3
10734.3
9381.69
8828.58
9527.34
8804.08
9388.18
8726.18
9449.52
8734.04
9298.22
8816.83
9543.19
8723.25
9381.2
8772.08
9453.79
8741.27
9222.18
9554.45
9015.38
9451.82
9002.01
9428.02
9285.7
9569.22
9021.49
9465.43
9028.69
9431.86
-8.22262
-5.72007
-6.26622
-5.68909
-6.28512
-8.38261
-5.46491
-5.58964
-5.45819
-5.58632
-4.12506
-3.93533
-4.41504
-4.26139
-3.9066
-4.25713
-4.01108
-4.52778
-3.86696
-4.30906
-4.16075
-3.96268
-4.42949
-4.27108
-3.92095
-4.2646
-4.0346
-4.53169
-3.88914
-4.31646
-8.89755
-4.43886
-4.08403
-4.4498
-4.11322
-9.55589
16133.2
15503.8
14845.5
14041.8
10622.3
10719.4
10603.3
10673.5
8484
8721.02
9133.67
8483.75
9122.21
9162.71
8408.52
9058.65
8541.01
9197.39
8746.9
8501.17
9135.93
8531.67
9141.18
9159.36
8450.47
9085.21
8548.27
9200.18
9587.22
8881.75
9480.61
8882.1
9387.16
8851.49
9575.04
8845.37
9488.02
8854.32
9401.16
8848.54
-8.30828
-7.83032
-5.09672
-5.87403
-5.09006
-5.88343
-8.28782
-4.75174