/*--------------------------------*- C++ -*----------------------------------*\
| =========                 |                                                 |
| \\      /  F ield         | OpenFOAM: The Open Source CFD Toolbox           |
|  \\    /   O peration     | Version:  5.x                                   |
|   \\  /    A nd           | Web:      www.OpenFOAM.org                      |
|    \\/     M anipulation  |                                                 |
\*---------------------------------------------------------------------------*/
FoamFile
{
    version     2.0;
    format      ascii;
    class       volScalarField;
    location    "0.7";
    object      p_rgh;
}
// * * * * * * * * * * * * * * * * * * * * * * * * * * * * * * * * * * * * * //

dimensions      [1 -1 -2 0 0 0 0];

internalField   nonuniform List<scalar> 
12160
(
5679.58
5683.67
5679.15
5687.11
5683.39
5680.79
5683.51
5687.55
5685.92
5680.19
5671.16
5684.61
5690.63
5685.13
5682.31
5648.19
5672.72
5688.38
5692.07
5689.71
5681.74
5615.8
5649.8
5676.81
5692.13
5697.96
5688.73
5683.21
5576.24
5617.06
5653.5
5681.91
5699.35
5699.94
5693.71
5681.78
5533.96
5576.89
5619.76
5658.47
5690.16
5706.74
5707.53
5691.61
3959.88
5491.48
5534.01
5578.28
5623.48
5666.28
5700.11
5718.44
5706.32
3945.27
182.998
5451.12
5491.04
5534.14
5580.08
5629.29
5675.78
5713.25
5726.78
4043.47
313.986
1.1117
5414.34
5450.35
5490.17
5534.07
5583.08
5636.08
5688.38
5729.74
4195.48
459.706
0.917806
0.116747
5381.92
5413.38
5448.79
5488.64
5534.42
5585.94
5645.21
5705.11
4169.88
674.829
2.8069
0.0174114
-0.00146619
5354.06
5380.89
5411.44
5446.28
5486.96
5533.62
5590.2
5657.3
3943.96
783.616
8.40509
0.00229808
0.0121577
0.0785689
5330.63
5353.04
5378.8
5408.41
5443.27
5483.45
5533.65
5594.88
3547.07
721.782
18.8184
-0.0818392
-0.0045719
0.00863975
-0.0492927
5311.25
5329.66
5350.97
5375.58
5404.69
5438.05
5480.64
5532.34
3051.06
539.422
20.7821
-0.119991
-0.0716469
-0.00374159
-0.00791675
5295.47
5310.36
5327.7
5347.79
5371.6
5398.59
5433.67
5474.81
2545.24
343.59
13.3201
-0.133212
-0.12675
-0.0428622
-0.00808985
5282.82
5294.66
5308.56
5324.71
5343.85
5365.25
5393.57
5424.86
2077.72
199.245
5.18684
-0.11799
-0.135928
-0.0691876
-0.0191801
5272.85
5282.1
5293.05
5305.83
5320.99
5337.67
5360.18
5383.1
1669
108.367
1.70643
-0.0492372
-0.100304
-0.0778428
-0.0235148
5265.16
5272.21
5280.67
5290.61
5302.43
5315.23
5332.88
5349.08
1324.59
55.9559
0.548342
0.0112299
-0.0364852
-0.0573454
-0.0245448
5259.44
5264.6
5270.94
5278.51
5287.55
5297.22
5310.87
5321.9
1042.09
27.7577
0.196179
0.038939
0.00470151
-0.0224297
-0.0179477
5255.4
5258.92
5263.47
5269.03
5275.79
5282.93
5293.34
5300.52
814.994
13.4216
0.0980664
0.0479128
0.0248419
0.00156562
-0.00754017
5252.85
5254.93
5257.91
5261.77
5266.63
5271.73
5279.53
5283.89
635.212
6.42143
0.0745739
0.052845
0.0327252
0.0137889
0.000174128
5251.63
5252.4
5253.99
5256.38
5259.64
5263.08
5268.76
5271.09
494.55
3.08467
0.0698784
0.0561383
0.0366364
0.0191459
0.00430428
5251.66
5251.2
5251.51
5252.59
5254.46
5256.51
5260.48
5261.33
385.569
1.51208
0.0664996
0.0568749
0.0390232
0.0217961
0.0062622
5252.87
5251.22
5250.33
5250.19
5250.82
5251.67
5254.21
5253.96
301.926
0.769276
0.0613647
0.054549
0.0397235
0.0232731
0.00723177
5255.26
5252.42
5250.35
5249.04
5248.52
5248.28
5249.61
5248.48
238.424
0.415073
0.0547088
0.0496683
0.0383889
0.0236733
0.00773739
5258.85
5254.77
5251.5
5249.04
5247.4
5246.13
5246.39
5244.5
190.939
0.242748
0.0471849
0.0433711
0.0352453
0.0228818
0.00786035
5263.66
5258.31
5253.8
5250.15
5247.39
5245.08
5244.34
5241.73
156.296
0.157455
0.0400638
0.0369781
0.0309925
0.0210423
0.00759405
5269.78
5263.07
5257.24
5252.34
5248.42
5245.04
5243.33
5239.97
132.129
0.113431
0.0341731
0.0313167
0.0266125
0.0185634
0.00699293
5277.28
5269.12
5261.89
5255.65
5250.49
5245.97
5243.28
5239.08
116.71
0.0905884
0.0302592
0.0264515
0.0226987
0.0159791
0.00618889
5286.24
5276.54
5267.81
5260.12
5253.63
5247.86
5244.12
5238.99
108.909
0.0785794
0.0277419
0.022707
0.019454
0.0136278
0.00534701
5296.74
5285.42
5275.07
5265.83
5257.88
5250.73
5245.88
5239.64
108.043
0.0733849
0.0265544
0.0200612
0.017083
0.0116501
0.00457513
5308.88
5295.84
5283.78
5272.87
5263.33
5254.65
5248.56
5241.06
113.764
0.0732706
0.0262411
0.0184768
0.0155481
0.0101386
0.00392577
5322.69
5307.89
5294.03
5281.33
5270.07
5259.7
5252.24
5243.26
126.082
0.0779351
0.0264142
0.0177406
0.0147442
0.00907096
0.00344623
5338.23
5321.63
5305.91
5291.31
5278.22
5265.99
5256.99
5246.32
145.255
0.0880658
0.0270074
0.0178105
0.0144739
0.00842756
0.00313244
5355.5
5337.1
5319.49
5302.92
5287.87
5273.63
5262.94
5250.34
171.819
0.105894
0.0282979
0.0186531
0.0145785
0.00814695
0.00296631
5374.46
5354.32
5334.83
5316.25
5299.15
5282.75
5270.19
5255.45
206.576
0.13629
0.0308277
0.0203061
0.0150312
0.00818809
0.00291136
5395.01
5373.25
5351.94
5331.37
5312.17
5293.49
5278.9
5261.79
250.517
0.188121
0.0344166
0.0228209
0.0159318
0.00854183
0.00293174
5417.03
5393.82
5370.82
5348.31
5327.01
5305.99
5289.21
5269.55
304.83
0.277444
0.0393612
0.0262647
0.0174319
0.00923013
0.00302276
5415.89
5455.49
5391.39
5367.09
5343.75
5320.36
5301.26
5278.91
370.864
0.433411
0.0456734
0.0306214
0.0196
0.0102795
0.00320482
5413.56
5454.51
5513.67
5387.66
5362.41
5336.72
5315.2
5290.07
450.096
0.70487
0.0526228
0.0357072
0.022437
0.0116974
0.0035059
5409.94
5452.49
5513.25
5569.69
5382.99
5355.13
5331.16
5303.24
544.08
1.17569
0.0597581
0.0412042
0.0258762
0.0134681
0.00394643
5405.43
5449.3
5512.31
5570.16
5618.38
5375.63
5349.25
5318.63
654.403
1.98641
0.0661987
0.0469609
0.0296815
0.015555
0.00452596
5398.21
5445.36
5510.66
5570.97
5620.06
5653.68
5369.55
5336.39
782.592
3.3681
0.0717699
0.0526952
0.0336651
0.0178412
0.00521429
5392.1
5438.77
5508.74
5571.82
5623.18
5657.49
5670.87
5356.69
929.978
5.68793
0.0764403
0.0578921
0.0375833
0.0202058
0.00596806
5379.61
5433
5504.64
5573.25
5627.46
5663.78
5678.99
5705.56
1097.58
9.50058
0.0801921
0.0620196
0.0410932
0.0225047
0.00674532
1285.64
5421.85
5501.04
5573.36
5633.38
5672.7
5689.61
5698.72
5564.88
15.6195
0.0839332
0.0649189
0.0438339
0.0245539
0.00749657
25.1718
1630.78
5494.07
5574.09
5639.1
5684.05
5705.29
5705.02
5611.54
5650.1
0.0914517
0.0666273
0.045692
0.0261674
0.00816567
0.110852
51.9185
2215.07
5573.52
5646.01
5696.3
5722.22
5724.55
5661.22
5660.25
5246.22
0.0671558
0.0466616
0.0272676
0.00869653
0.0673838
0.187186
129.673
2851.56
5653.44
5710.43
5741.29
5746.09
5713.42
5686.44
5497.75
5470.16
0.0467448
0.0278257
0.00906179
0.0462318
0.058263
0.737422
271.424
3483.26
5727.36
5762.49
5771.92
5751.32
5737.72
5589.6
5573.64
5514.68
5499.64
0.027823
0.00924471
0.0272768
0.0405776
0.048374
2.94178
482.459
4054.2
5787.37
5800.52
5790.27
5774.3
5719.08
5659.5
5561.14
5482.24
5510.66
5548.09
0.00923147
0.00899905
0.0240286
0.0318221
0.0116885
9.23278
741.933
4525.25
5832.14
5826.7
5813.02
5782.11
5728.73
5625.35
5526.73
5390.82
5471.52
5543.1
5611.29
0.00793941
0.0180671
0.00634141
-0.0430077
21.7692
1007.57
4893.54
5864.86
5851.79
5824.62
5785.4
5693.07
5597.36
5429.73
5241.88
5383.01
5496.29
5599.61
5691.29
0.00574244
0.00266846
-0.0399449
-0.0721947
38.0973
1244.88
5168.47
5888.41
5865.56
5831.31
5752.28
5661.86
5492.36
5286.61
4997.81
5236.47
5412.16
5552.54
5674.36
5782.1
0.000568126
-0.0244608
-0.0960354
-0.0593439
51.1198
1447.25
5359.81
5902.2
5872.67
5800.1
5716.68
5565.14
5364.55
5044.85
4661.52
4998.67
5274.22
5475.02
5632.59
5766.22
5883.23
-0.00808173
-0.0563949
-0.141915
-0.0566863
54.2549
1588.11
5476.81
5906.35
5845.03
5767.64
5635.12
5447.02
5145.09
4709.27
3287.74
4680.05
3296.4
3387.41
3386.91
5054.14
5351.25
5565.78
5730.67
5869.54
5988.77
-0.0180803
-0.0822218
-0.166337
-0.0939876
49.6862
1622.22
5516.42
5880.8
5816.21
5696.66
5525.76
5272.34
4860.87
4249.9
3204.31
3214.38
4787.42
3230.23
3134.63
3164.02
3190.85
3220.61
3192.77
5152.62
5456.9
5672.82
5841.25
5978.4
6093.03
-0.0262107
-0.0962613
-0.175842
-0.1327
40.1006
1566.16
5455.72
5853.12
5754.05
5600.94
5391.86
5034.58
4507.08
3228.11
3203.5
3369.18
3360.01
3228.82
3125.58
4934.6
4552.57
3216.7
3254.8
3276.69
3073.92
3139.06
3085.23
5300.77
5583.64
5793.14
5956.54
6085.42
6193.24
-0.031221
-0.102
-0.17735
-0.162298
29.1432
1399.39
5371.01
5795.79
5672.04
5485.89
5189.12
4731.41
3518.92
3516.17
3680.6
3680.11
3158.07
3144.74
3253.37
3239.76
3121.94
2778.72
2580.42
2740.24
2630.41
5130.13
4801.81
3217.9
3210.96
3197.31
3189.7
3095.13
3147.42
3138.41
2751
2551.23
2716.48
2593.09
2804.05
2731.78
2898.79
2682.81
2783.7
2716.29
2884.87
2653.33
5467.15
5721.03
5920.38
6069.4
6187.78
6285
-0.0359296
-0.103348
-0.174027
-0.170372
20.2947
1192.6
5108.4
5720.33
5563.44
5316.98
4937.25
3849.47
3849.69
4025.72
4026.82
3364.07
3351
3502.7
3495.66
2685.15
2734.79
2800.55
2723.79
2808.14
2769.03
2723.96
2680.49
2795
2719.42
2804.87
2761.25
2866.78
2927.6
2804.52
2876.56
2862.06
2924.89
2800.47
2873.14
2693.29
2530.57
2685.99
2522.5
2894.62
2718.12
2921.48
2727.11
5349.27
4880.4
3234.53
3216.03
3226.73
3212.63
3172.43
3162.28
3060.8
3051.25
2684.86
2513.13
2673.09
2505.42
2723.26
2352.92
2697.5
2491.24
2719.78
2350.7
2698.67
2480.77
2878.28
2699.22
2906.45
2706.59
2819.83
2735.78
2807.71
2720.29
5627.8
5867.26
6043.75
6176.44
6281.58
6365.68
-0.0424088
-0.103556
-0.160863
-0.167337
12.3813
856.974
4711.43
5600.8
5417.95
5108.44
4193.14
4192.84
4381.18
4380.67
3689.1
3680.65
3880.34
3873.95
2910.43
2976.47
2974.57
3039.98
2915.17
2979.03
2986.99
3043.38
3157.07
3183.47
3067.24
3113.56
3165.71
3184.11
3078.5
3115.01
2718.81
2724.71
2952.78
2872.51
2760.03
2951.21
2709.89
2716.62
2859.66
2941
2753.38
2943.89
2856.88
3011.08
2800.46
2977.93
2858.42
3007.96
2795.8
2970.81
2930.74
2702.38
2924.57
2685.84
2910.66
2761.6
2910.14
2764.85
5540.4
5278.92
3272.03
3257.94
3243.26
3223.85
3170.64
3153.23
3173.94
3164.74
2430.32
2724.46
2477.21
2772.22
2427.08
2725.38
2471.02
2769.61
2571.95
2511.56
2817.95
2503.27
2790.57
2952.48
2567.21
2495.52
2812.02
2499.37
2787.38
2941.3
2917.46
2687.95
2910.56
2672.52
2944.93
2644.8
2933.43
2629.33
2896.09
2735.81
2892.73
2742.92
2904.35
2748.58
2890.77
2733.99
5792.64
6006.85
6159.04
6274.49
6363.72
6432.71
-0.0499858
-0.101198
-0.148491
-0.164909
6.1453
526.642
4035.14
5371.43
5237.44
4530.49
4531.57
4672.13
4673.22
4051.89
4050.61
4234.78
4233.74
3264.44
3297.19
3375.31
3431.87
3267.02
3297.9
3375.23
3431.54
3567.55
3680.4
3465.23
3552.87
3562.49
3678.06
3463.64
3551.8
2933.93
3061.52
3014.12
3106.89
2945.94
3062.93
3027.82
3110.19
3139.44
3172.17
3085.39
3142.97
3152.8
3177.48
3093.64
3143.9
2878.72
2745.2
2900.3
2715.43
5705.28
5519.4
3342.78
3340.37
3311.17
3303.71
3250.91
3228.09
3204.04
3182.82
2241.69
2518.62
2278.44
2547.25
2263.65
2527.38
2291.81
2555.23
2386.5
2677.09
2319.37
2605.56
2387.14
2681.2
2330.27
2611.8
2501.6
2828.56
2528.01
2836.99
2498.1
2822.75
2522.57
2831.05
2618.41
2559.94
2811.29
2821.9
2546.45
2831.19
2604.73
2557.09
2804.46
2811.23
2543.27
2827.28
2863.59
2719.58
2882.73
2692.82
2849.7
2671.5
2835.68
2653.2
5951.84
6134.45
6263.33
6359.65
6431.84
6484.49
-0.0554001
-0.0988463
-0.137471
-0.164661
2.46962
267.286
3023.85
5036.26
4998.12
4398.48
4398.06
4539.15
4540.15
3883.46
3882.55
4111.24
4110.19
3247.85
3276.47
3344.11
3374.6
3257.48
3280.13
3351.77
3376.84
3546.05
3565.83
3423.68
3469.41
3547.97
3565.96
3431.91
3471.48
3211.89
3292.17
3220.72
3291.04
5881.6
5676.17
3444.86
3443.62
3390.99
3386.34
3387.44
3367.03
3350.34
3324.36
2135.16
2644.13
2233.69
2573.09
2144.58
2645.79
2249.15
2577.66
2240.71
2504.03
2237.22
2517.15
2256.85
2510.97
2258.78
2523.66
2412.38
2713.32
2474.81
2809.72
2416.32
2716.51
2470.7
2808.67
2497.67
2842.35
2492.02
2838.85
2491.27
2835.01
2485.83
2832.99
6099.1
6247.08
6353.08
6429.96
6484.45
6519.68
-0.060156
-0.0961285
-0.128366
-0.165411
0.553831
108.323
1835.86
4574.8
4588.29
4589.17
4625.94
4626.1
4281.57
4278.62
4439.37
4440.95
3762.51
3627.83
3642.12
3734.27
3760.39
3628.16
3641.97
3730.1
3867.53
3916.11
3961.66
3841.93
3864.91
3911.52
3959.82
3835.27
3286.16
3356.97
3355.71
3427.12
3292.61
3357.91
3360.41
3428.59
3514.98
3529.52
3424.84
3490.24
3523.22
3531.1
3431.77
3491.83
6053.56
5838.54
5731.43
3343.1
3338.3
3392.73
3374.93
3270.05
3259.74
3194.15
3183.28
2243.55
2808.7
2406.11
2803.08
2239.39
2800.43
2408.66
2798.12
2412.73
2711.53
2432.38
2752.08
2412.11
2711.94
2434.21
2749.19
2381.21
2634.21
2395.86
2633.59
6225.62
6343.28
6426.81
6484.28
6520.17
6537.44
-0.0642717
-0.0956881
-0.115691
-0.173014
-0.0310585
32.0017
773.03
3006.81
4485.59
4484.34
4319.57
4318.06
3985.19
4059.31
4199.68
4083.44
3984.38
4058.13
4198.01
4084.78
4345.19
4342.89
3715.96
3619.28
3626.36
3708.98
3714.81
3619.7
3625.82
3704.29
3797.58
3877.62
3894.35
3795.43
3796.57
3878.73
3893.76
3792.94
3523.92
3550.62
3529.87
3551.31
6203.91
6032.34
5897.58
3475.19
3462.72
3499.34
3461.09
3455.1
3422.83
3411.09
3377.14
2508.59
2166.8
2522.8
2193.4
2514.25
2188.94
2527.93
2199.73
2533.77
2281.36
2588.85
2219.25
2537.34
2282.02
2586.43
2220.96
2391.04
2659.12
2432.71
2664.9
2390.87
2650.84
2426.64
2656.15
2402.11
2643.54
2431.54
2657.05
2405.76
2637.88
2432.08
2647.67
6330.13
6422.09
6483.88
6521.12
6538.16
-0.0684354
-0.0923655
-0.106588
-0.154644
-0.13895
6.58269
151.565
2027.26
2027.38
874.795
874.371
4162.96
4321.72
4011.89
4416.18
4165.15
4321.59
4011.79
4414.54
3701.47
3701.73
3962.37
3987.23
4093.97
4057.9
3965.51
3987.51
4093.69
4056.86
4177.78
4229.91
4122.89
4129
4178.65
4229.91
4119.61
4128.14
3824.62
3854.03
3898.59
3775.85
3824.68
3856.93
3898.54
3778.47
6316.68
6200.17
6091.73
5987.35
3450.38
3403.86
3337.61
3297.28
3233.21
3204.43
2164.79
2561.04
2553.01
2032.55
2171.92
2560.26
2554.34
2028.67
2658.17
2288.23
2629.9
2309.21
2651.4
2274.5
2614.73
2298.42
2682.06
2376.17
2653.7
2353.11
2681.67
2370.32
2647.84
2344.93
2367.22
2608.26
2371.78
2603.22
6415.4
6483.29
6522.56
6539.59
-0.0670456
-0.0955243
-0.0968963
-0.11059
-0.238083
0.638969
57.1488
57.1657
1.52727
1.52442
939.361
938.652
182.634
182.52
4000.95
4252.88
3771.27
4338.52
4000.61
4252.33
3771.49
4338.3
3757.39
2173.27
2998.89
2832.33
3757.56
2168.95
3000.85
2828.89
3942.58
3973.05
4035.29
4036.17
3944.52
3973.28
4035.4
4033.24
4145.12
4173.23
4102.98
4099.4
4143.51
4172.75
4099.43
4098.84
6407.16
6321.05
6260.39
6143.27
3517.29
3507.36
3452.03
3443.05
3227.18
3226.39
2053.28
2475.98
1887.83
2470.81
2067.91
2477.67
1915.43
2477.44
2071.13
2449.89
2150.79
2486.02
2076.5
2637.37
2104.42
2449.51
2175.04
2480.56
2069.56
2624.1
2279.89
2702.49
2264.32
2684.12
2492.13
2218.03
2496.71
2205.78
2491.9
2247.15
2493.87
2222.66
6482.99
6524.65
6541.74
-0.0730609
-0.0866271
-0.0960032
-0.036646
-0.381491
0.044968
13.3583
13.3557
1.05965
1.06158
337.492
1738.36
548.356
91.8017
169.159
2501.14
1735.18
336.459
2502.1
547.624
91.1897
168.845
6.10047
5.85682
18.2063
29.2839
6.10224
5.85215
18.1577
29.2553
3813.76
4225.72
3619.25
4267.85
3814.47
4224.97
3618.68
4267.03
3222.35
2249.86
3225.1
2245.68
4036.05
4034.29
4036.38
4031.97
3996.92
4175.93
3997.31
4175.32
6484.48
6407.62
6368.58
6384.49
3587.42
3580.49
3508.4
3495.7
3266.98
3260.1
3169.61
3166.38
2460.5
1751.16
2388.23
1997.59
2572.87
1961.77
2454.92
1789.63
2387.76
2008.91
2558.45
1955.33
2181.84
2638.06
2164.79
2626.57
2213.78
2578.38
2250.71
2278.98
2573.51
2579.55
2203
2563.29
2232.42
2284.92
2573.75
2571.76
2272.07
2562.58
2283.83
2559.94
6527.8
6544.83
-0.0674157
-0.0832213
-0.0915019
-0.0432799
0.0760409
1.18032
1.20143
2.55056
2.56234
6.04247
6.0004
0.874408
0.884207
911.543
51.8432
199.337
1178.79
7.0242
18.1117
909.809
51.5329
1184.77
199.574
7.02073
17.9463
6.24662
6.14755
7.24278
9.08499
6.23483
6.15333
7.24144
8.97256
3018.24
3849.55
3014.98
3849.63
6532.75
6489.54
6429.54
6471.54
6426.54
3238.68
3257.77
3380.11
3345.15
1750.96
2378.68
1900.86
2394.26
1769.12
2374.69
1930.01
2400.3
1894.74
1839.24
2371.48
1923.57
2386.23
2528.2
1925.65
1850.74
2376.62
1957.13
2393.44
2526.98
2649.34
2524.01
2112.28
2203.14
2653.56
2523.36
2110.19
2195.9
2196.17
2518.81
2189.4
2510.41
2166.2
2479.14
2236.72
2526.24
2177.16
2470.79
2241.46
2527.71
6549.55
-0.0770266
-0.0683106
-0.0953614
-0.0523491
1.47832
0.160588
0.235733
1.42906
1.52333
3.08139
4.58029
6.65986
2.8128
3.04784
4.51189
6.87215
2.80853
0.364225
0.390038
6.47508
7.93762
5.15858
5.384
6.41542
7.93328
5.10777
5.25288
6557.04
6540.73
6505.34
6471.7
6556.94
3557.54
3493.78
3410.52
3429.09
3410.23
3409.92
3385.48
3343.82
1892.18
2501.34
2116.64
2707.49
1841.45
2428.16
2064.32
2644.14
1913.02
2021.84
2355.27
2444.41
2142
2594.7
1947.85
2009.22
2437.07
2371.33
2092.06
2562.33
2503.44
2149.21
2505.49
2149.67
-0.0624476
-0.0622147
-0.0897216
0.024015
5.20683
2.12636
6.16473
6.22129
-0.298547
-0.3288
0.849806
0.694338
2.75583
4.16702
6.85618
2.54161
2.73386
4.04843
7.25591
2.52263
1.1995
0.784575
1.88032
1.73239
1.15017
0.77553
1.8575
1.72234
6.28983
7.94199
6.18067
7.94581
6569.24
6556.43
6534.72
6558.9
6443.3
3338.59
3335.4
3393.75
3349.63
3253.92
3180.37
2330.72
1953.81
2486.09
1715.01
2283.63
1872.76
2389.63
1664.69
2031.66
2388.18
2030.92
2417.74
2015.42
2364.45
2041.68
2445.82
-0.0659112
-0.0425871
-0.182691
0.598996
11.278
4.27322
7.18733
9.71646
1.66713
1.34597
1.32965
1.65317
1.48467
1.7933
1.59001
1.31734
1.27243
1.553
1.48073
1.667
1.88649
1.31558
2.51454
3.47914
5.38902
2.43344
2.51039
3.40341
5.55735
2.40757
2.03025
1.88065
1.97171
1.85182
6592.78
6593.38
6594.32
6770.36
3244.48
3291.47
3292.54
3367.58
3344.64
3327.73
3358.58
3291.95
1689.99
2448.85
1856.17
2444.79
1748.13
2546.78
1696.57
2439.42
1880.2
2435.19
1727.17
2496.58
2005.84
2718.7
1983.69
2670.76
1971.08
2405.12
1995.32
2435.56
-0.0357994
-0.0873234
-0.159671
1.92979
3.93794
1.56675
1.53315
19.1435
13.1364
6.30841
12.6667
1.83512
1.70081
1.8938
2.18535
2.06232
2.35985
1.72738
1.67622
1.90987
1.98071
2.09518
2.18497
5.43818
5.73617
3.86471
4.01309
2.61636
3.45747
2.50573
2.73084
6633.03
6654.27
6639.98
6514.68
3222.09
3238
3247.59
3238.18
3241.56
3173.56
1893.12
2693.89
2291.25
1732.57
2306.03
1619.17
2275.65
1720.15
2288.55
1567.07
1844.13
2664.81
2023.14
1862.57
2756.48
2329.36
1998.47
1919.24
2733.5
2365.11
1873.89
2393.59
1920.67
2420.08
-0.0300807
-0.121998
-0.169443
1.69788
1.78124
1.73352
1.71453
12.8055
32.3613
8.28868
11.7738
23.8207
8.10595
2.91265
5.88559
27.4126
17.3447
32.0973
14.8411
1.82936
4.49854
3.02823
3.1907
2.60867
2.47472
9.20683
23.7084
3.26851
5.59985
6670.46
6705.9
6583.11
3337.49
3348.28
3366.99
3324.54
3356.11
3319.33
3208.86
3165.19
1542.59
2247.41
1773.39
2314.63
1822.44
2610.7
1533.32
1768.23
2576.82
2232.71
1744.07
2278.6
1890.18
2344.15
1981.5
2764.12
1942.11
1882.61
2726.74
2337.51
-0.0149149
-0.0559574
-0.108233
1.68544
1.71252
1.85503
1.86331
15.2934
39.6308
2.72891
4.50103
8.01187
2.67027
4.0417
30.7487
12.6568
15.962
31.5907
11.3499
2.57669
2.08125
2.79327
2.28776
2.61554
2.12957
3.03016
2.42877
15.6878
39.0998
5.58196
18.5616
6696.96
6732
6753.5
3287.3
3274.31
3277.28
3259.36
3118.76
3111.89
1580.17
2298.78
2045.34
1582.91
2007.17
1434.73
1570.17
2292.01
2042.46
1581.28
2005.59
1427.41
1757.44
1894.91
2528.83
2367.52
1858.58
2329.98
1733.41
2493.19
-0.0289979
0.0102839
2.0444
2.0148
2.01027
2.04707
1.9629
1.95049
1.80331
2.72359
2.314
1.82495
2.78422
2.33547
13.5517
26.0959
2.44994
2.77244
2.49954
2.65767
10.8547
31.3443
3.51158
11.4577
6.55477
5.7486
2.92414
2.5013
2.93088
2.5296
6790.82
6990.82
7183.01
3548.22
3517.07
3432.04
3406.82
1318.3
1970.03
1578.32
2042.74
1415.16
2006.08
1368.83
1408.6
1995.63
1998.8
1570.76
2026.44
1759.83
2234.66
1620.97
2125.9
1740.86
2221.7
1615.35
2108.64
1732.98
2281.67
1703.58
2266.03
-0.020366
0.100706
1.9876
2.17555
1.99653
2.19622
2.04068
2.04047
2.9885
2.86232
2.55281
2.79002
2.44304
2.51208
2.752
2.28182
2.88586
2.9987
2.56943
2.81744
2.46056
2.5174
2.77842
2.29824
2.55035
2.76241
2.61157
2.8154
2.92441
2.572
2.93549
2.59588
7067.75
7293.98
3634.89
3449.16
3416.86
3637.05
3496.34
3502.24
2845.89
1463.96
2117.85
2869.65
1478.35
2126.29
1858.5
1801.56
2235.82
2387.41
1843.38
2219.46
1776.1
2369.3
1673.2
2096.36
1771.4
2228.41
1665.52
2089.36
1747.15
2205.84
-0.0135322
0.123478
2.0053
2.49377
2.88186
2.13486
2.0149
2.50151
2.90382
2.1681
2.12682
2.13784
2.91489
3.1566
2.92613
2.59812
2.62138
2.68585
2.91287
2.9412
3.15422
2.61689
2.62874
2.68955
2.57929
2.82206
2.61567
2.87055
7360.78
7484.38
3684.09
3411.94
3434.11
3641.71
3570.27
3536.34
1503.64
1431.92
2078.21
1417.57
2050.89
1952.51
1337.71
2059.63
1535.78
1454.74
2085.93
1469.94
2071.06
1950.35
1380.98
2064.17
1918.95
1722.48
2309.8
2247.77
1898.86
2298.17
1726.49
2249.55
0.0418319
2.40332
2.26256
2.28334
2.40781
2.26825
2.23455
2.93911
2.61033
2.9662
2.67843
2.96294
2.52179
2.98165
2.61325
2.19183
3.0533
2.71413
2.9567
2.61499
2.97788
2.67943
2.97151
2.53004
3.02142
2.63106
2.22779
3.05357
2.71725
3.01539
3.09198
2.64329
2.7009
3.01665
3.11565
2.64668
2.71199
7610.46
7720.5
3761.84
3242.92
2002.19
1347.15
3249.65
2001.1
1361.33
3721.76
3438.23
3444.71
1559.1
1637.79
1667.8
1935.02
2305.77
2170.44
1589.93
1629.83
1669.12
2306.56
1955.53
2185.36
1816.16
2218.11
1814.76
2215.13
0.0741997
2.33783
2.48671
2.38068
2.50203
2.41098
2.37765
3.03874
3.04187
2.81266
2.70448
3.09474
2.75925
3.3615
3.17464
2.89111
3.06605
2.77012
2.96341
3.09491
2.68647
3.06316
3.04401
2.71304
2.81478
3.12889
2.77667
3.16848
3.38272
2.89098
3.06694
2.77804
2.97018
3.12386
2.70433
7864.79
3573.73
3713.17
3671.14
3642.61
3583.85
3626.76
1392.07
2011.18
1456.85
2155.36
1427.33
2218.76
1562.02
2196.43
1450.5
1931.05
1443.65
2164.05
1350.46
2212.68
1595.51
2205.72
3126.79
1460.16
2206.03
3105.95
1508.81
2210.49
1668.98
1653.19
2085.18
2357.21
1665.04
1626.03
2086.52
2352.82
0.0980531
2.39181
2.90056
3.23309
2.53653
2.44881
2.91535
3.24359
2.54347
2.46785
2.43421
3.17945
2.83552
3.08534
2.79829
3.29042
3.38
3.16975
2.92161
3.08833
3.11983
3.18486
2.83876
3.13039
2.81642
3.30046
3.19998
3.41119
2.92551
3.08882
3.12777
7724.2
3565.32
3590.15
3580.31
3648.12
3558.46
3571.84
1617.02
1637.32
2216.28
2069.11
1728.15
2307.82
1584.34
1638.78
2225.35
2078.94
1726.71
2300.39
1444.15
1558.94
2207.63
1464.19
2124.8
2000.94
1358.08
2075.19
1452.24
1557.91
2212.57
1509.51
2143.38
2001.54
1378.46
2069.76
0.0985352
2.5134
2.48445
2.51789
2.98984
3.3804
3.06903
3.29387
2.58158
2.56125
3.0096
3.41958
3.09056
3.3221
2.59186
3.26227
3.33228
3.39686
3.06543
3.1766
3.20816
3.27877
3.35065
3.42365
3.07295
3.18059
3.21976
7847.19
3602.91
3585.88
2004.34
1396
3532.15
1996.31
1389.81
3638.37
3647.31
3630.04
1601.04
2025.41
1612.07
2222.77
1626.02
2028.39
1622.9
2203.32
1716.3
1739.25
1704.12
2066.27
2200.01
2250.06
1764.4
1705.22
1666.11
2212.05
2069.63
2229.53
0.110992
2.48477
2.50802
2.45333
2.4736
2.56504
3.17816
3.46649
3.12287
3.52787
3.47014
3.2825
2.58797
2.60246
3.18887
3.48888
3.13741
3.54793
3.49462
3.29289
2.58303
3.37595
3.25327
3.38968
3.26073
7863.89
3605.86
3602.5
3654.41
1880.09
1382.78
1780.27
1430.74
3628.75
1884.94
1379.89
1782.93
1423.96
3593.35
3561.93
1826.37
1664.47
1732.65
2186.82
1986.1
2132.22
1858.76
1689.02
1700.66
1996.83
2172.82
2116.4
0.109874
2.50226
2.48811
2.46517
2.46036
2.61635
2.60776
2.58162
3.21195
3.57238
3.21189
3.58727
3.36205
3.53115
3.32353
3.56592
3.44941
3.32627
2.59894
3.22277
3.56462
3.21468
3.60169
3.36935
3.55463
3.3314
3.59772
3.46252
3.33371
7860.75
3606.29
3607.93
3600.69
3603.69
3522.86
1712.65
1401.78
1768.9
1353.77
1680.31
2071.82
3465.3
1703.8
1406.98
1770.4
1373.65
1659
2058.7
3671.82
3642.17
1779.38
2136.79
1780.96
2107.4
0.085601
2.4749
2.4262
2.44383
2.39426
2.61565
2.60607
2.60558
2.60056
2.5963
2.6111
3.28866
3.57138
3.2454
3.61749
3.37445
3.70488
3.38931
3.63206
3.39605
3.50136
3.36018
3.53625
3.28627
3.53434
3.23654
3.59809
3.37703
3.70143
3.38668
3.65231
3.40184
3.51803
3.36711
3.55409
7843.2
3606.73
3607.05
3601.87
3597.18
3696.5
3663.74
3424.27
1783.65
1271.76
1793.39
1324.5
1824.54
1617.6
1947
1553.41
1784.68
2166.28
3379.22
1746.63
1325.04
1805.14
1344.09
1812.58
1598.68
1935.68
1561
1768.1
2133.68
0.0487137
2.36913
2.26821
2.33577
2.23362
2.60291
2.56084
2.59274
2.55215
2.6128
2.58578
2.61219
2.61201
3.26368
3.65004
3.27057
3.63128
3.27022
3.61756
3.27436
3.61449
3.45355
3.8289
3.42196
3.89965
3.45072
3.80817
3.4142
3.88058
7722.66
3606.3
3591.81
3597.73
3635.02
3691.01
3669.13
3660.82
3638.33
3411.78
3357.87
2137.79
1397.85
2046.03
1501.48
2085.4
1568.76
2120.95
1613.4
2022.43
1738.01
2099.65
1658.26
2129.12
1414.85
2052.39
1485.66
1830.01
1392.68
1846.2
1484.89
1999.49
1734.26
2074.38
1679.5
0.176691
0.00843344
2.52906
2.4273
2.52565
2.41415
2.56971
2.49293
2.58616
2.51258
3.2443
3.69061
3.27986
3.62527
3.24188
3.57855
3.26418
3.57728
3.2749
3.61334
3.27661
3.63753
3.27344
3.5624
3.26744
3.61542
3.43464
3.85309
3.44817
3.87435
3.44674
3.88956
3.45734
3.88573
7874.76
3551.61
3583.31
3643.82
3634.54
3589.85
3641.83
3563.47
3627.97
3412.11
3430.61
3359.22
3385.73
2192.52
1560.26
2220.32
1537.64
2178.09
1525.47
2200.09
1511.76
2402.72
1617.59
2181.69
1764.75
2372.63
1577.24
2136.8
1711.8
0.097071
2.35541
2.25076
2.36665
2.25575
-0.0194686
2.39489
2.3301
2.41804
2.3547
3.22677
3.60998
3.28121
3.57457
3.15837
3.38474
3.10189
3.4595
3.22154
3.5436
3.26562
3.5397
3.15022
3.3569
3.09698
3.42338
3.42393
3.83773
3.45498
3.79799
3.43411
3.93606
3.47118
3.85032
3.45837
3.90837
3.46009
3.90346
3.46178
3.93655
3.47877
3.89393
7617.09
7727.72
3548.92
3580.41
3579.37
3618.12
3524.27
3649.74
3474.93
3623.56
2187.55
1561.05
2219.21
1531.61
2133.6
1388.24
2039.19
1500.11
2174.42
1526.51
2199.38
1507.69
2123.12
1409.3
2045.97
1482.4
2409.18
1780.7
2448.03
1761.71
2386.03
1748.62
2427.3
1720.26
0.0288896
2.11388
1.98886
2.11789
1.98309
2.32914
2.22254
2.34745
2.24203
-0.0445778
3.05775
3.35676
3.06945
3.39347
3.0089
3.24347
2.76621
3.4593
3.05472
3.33758
3.0692
3.3566
3.00385
3.25965
2.78254
3.42091
3.44176
3.9797
3.5044
3.85635
3.46171
3.79085
3.42922
3.81333
3.44684
3.96985
3.50342
3.87664
3.44903
3.74281
3.41724
3.77264
7375.26
7492.47
3720.68
3766.01
3675.53
3730.6
3579.68
3588.08
3523.72
3579.81
1776.88
1257.12
1778.26
1318.31
1704.72
1400.13
1764.17
1346.61
1744.16
1316.89
1791.96
1345.31
1697.55
1396.56
1767.07
1367.2
2406.79
1780.72
2448.16
1758.61
2402.5
1608.2
2170.35
1762.95
2380.12
1749.61
2428.03
1715.78
2370.88
1578.21
2132.94
1709.08
-0.0820441
-0.0398371
2.22332
2.08369
2.23465
2.0913
3.48251
3.5959
3.09656
3.29494
2.92363
3.10002
2.97192
2.50821
3.15441
2.77503
3.49289
3.5664
3.09851
3.30836
2.92782
3.09403
2.99513
2.51987
3.16528
2.77947
-0.0582399
3.38505
3.78822
3.41615
3.73079
3.34137
3.76015
3.38464
3.75522
3.40841
3.74661
3.33525
3.75465
3.51756
3.81991
3.52382
3.80855
3.50602
3.75957
3.51128
3.77501
7085.2
7309.91
3687.47
3641.94
3647.12
3643.26
3119.02
3442.15
3113.73
3458.03
1874.92
1375.8
1774.72
1424.21
1994.84
1347.37
2067.07
1380.46
1870.99
1370.87
1776.06
1412.14
1994.53
1377.43
2067.62
1390.75
2091.31
1556.28
2119.05
1602.56
1825.45
1622.03
1941.51
1554.94
1838.75
1414.5
1857.36
1502.74
1810.29
1574.05
1924.98
1541.48
-0.202262
2.03697
1.86727
2.04155
1.8772
-0.120742
2.03322
2.03349
2.04433
2.03999
3.6309
3.45856
3.3155
3.14761
3.39228
3.03969
3.15771
2.72969
3.38381
2.95011
3.62162
3.49206
3.31229
3.15578
3.4337
3.04985
3.23435
2.75683
3.4557
2.97751
-0.0765731
3.4712
3.78858
3.51966
3.71569
3.43294
3.71438
3.47388
3.74951
3.51236
3.71098
3.44036
3.72864
6804.87
7007.01
7198.95
3571.68
3505.81
3540.19
3508.38
1541.57
1435.05
2202.77
1464.43
2123.03
1991.12
1392.69
2221.04
1463.61
2210.43
1448.32
1592.32
2220.91
1521.3
2147.43
1999.9
1458.19
2223.62
1516.47
2221.43
2129.78
1677.96
2071.06
1726.8
2239.65
1726.21
2112.36
1642.46
2052.25
1693.11
2223.61
1693.87
2022.58
1745.57
2094.76
1662.29
1991.72
1695.4
2053.36
1661.85
-0.269911
1.74568
1.53826
1.76717
1.53986
1.8644
1.74314
1.87462
1.75032
-0.133222
2.62406
3.02078
2.71575
2.96656
2.5209
2.77776
2.30822
2.90139
2.63067
3.08163
2.73588
2.98749
2.52547
2.79044
2.312
2.91949
3.52496
3.26947
3.17038
2.85519
3.29734
2.91364
3.53334
3.27459
3.16948
2.8613
3.28908
2.91566
-0.0461386
6717.63
6749.92
6763.44
3459.23
3559.63
3422.63
3525.11
3244.81
3426.52
3248.04
3453.79
1697.93
1704.87
2201.91
2055.71
1615.37
2223.06
1568.38
2204.54
1734.2
2310.38
1775.99
1672.77
2064.76
2218.15
1601.12
2197.89
1602.76
2214.79
1728.13
2300.91
2137.53
1789.53
2165.6
1781.63
2179.2
1821.02
2106.45
1737.31
2118.66
1778.35
2160.98
1835.29
0.418104
-0.296145
1.70412
1.54183
1.71665
1.56152
2.90495
3.00906
2.59961
2.83287
2.49517
2.53566
2.62502
2.11907
2.77183
2.37736
2.88704
3.02154
2.59146
2.82695
2.49164
2.5308
2.64211
2.13177
2.78743
2.37777
-0.0579231
2.77182
3.12726
2.78128
3.15608
2.73238
3.19377
2.77979
3.16567
2.79956
3.18173
2.72907
3.18235
-0.0626828
6690.19
6728.91
6598.99
3298.66
3345.78
3283.46
3356.27
2851.76
3440.84
2879.12
3411.32
2008.65
1460.75
2159.44
1430.92
2010.66
1343.75
2066.99
1356.41
1925.19
1448.89
2175.26
1350.1
2003.69
1389.66
2071.32
1363.67
1648.79
1981.03
1635
2071.42
1599.26
2025.28
1712.3
1995.8
1641.07
2085.01
1625.98
2029.11
0.487518
8.92057
10.7966
9.79082
11.0497
-0.171784
1.53129
2.99103
1.54289
3.47087
2.93352
2.98501
2.64357
2.65898
2.99554
2.64503
2.88779
2.37113
3.03081
2.58873
2.89791
2.95775
2.62915
2.64932
2.98126
2.63759
2.86429
2.36722
3.00868
2.58136
-0.0687511
2.65526
3.01006
2.64433
2.98092
-0.0729105
6650.23
6675.36
6673.37
6532.31
3288.48
3379.45
3269.51
3333.52
1439.86
1511.64
2089.5
1426.66
2065.09
1953.28
1337.19
1987.21
1475.43
2131.77
1537.47
1456.98
2091.75
1474.57
2084.07
1949.92
1379.16
2013.83
1482.71
2134.58
2359.32
1624.59
2223.42
1654.21
2177.46
1641.81
2347.12
1588.13
2230.81
1626.38
2191.44
1638.81
6.35375
0.38792
23.3903
12.0484
23.3253
10.8398
-0.109914
1.99239
2.71384
2.28477
2.77734
17.6756
1.98436
2.72033
2.27988
3.37484
19.5735
2.91281
2.66385
2.82812
2.56017
2.90141
2.65893
2.90158
2.65909
2.81184
2.55299
2.89545
2.6556
-0.0839399
-0.0873189
6608.83
6611.05
6615.1
6804.01
3239.98
3265.35
3250.16
3307.72
3137.68
3371.03
3125.76
3328.88
1565.96
1689.15
2323.11
1938.75
1743.64
2268.88
1595.26
2059.45
1819.66
2409.63
1591.5
1678.73
1962.07