/*--------------------------------*- C++ -*----------------------------------*\
| =========                 |                                                 |
| \\      /  F ield         | OpenFOAM: The Open Source CFD Toolbox           |
|  \\    /   O peration     | Version:  5.x                                   |
|   \\  /    A nd           | Web:      www.OpenFOAM.org                      |
|    \\/     M anipulation  |                                                 |
\*---------------------------------------------------------------------------*/
FoamFile
{
    version     2.0;
    format      ascii;
    class       surfaceScalarField;
    location    "0.7";
    object      phi;
}
// * * * * * * * * * * * * * * * * * * * * * * * * * * * * * * * * * * * * * //

dimensions      [0 3 -1 0 0 0 0];

internalField   nonuniform List<scalar> 
30582
(
0.000292592
8.50767e-08
0.000289373
3.2198e-06
0.000291475
1.32276e-06
0.000281875
7.49808e-06
0.000288039
6.65594e-06
0.000289824
4.28727e-06
0.000272298
9.57641e-06
0.000281449
1.40879e-05
0.000287899
8.58091e-06
0.00028496
1.22268e-05
0.000257941
1.43569e-05
0.000272544
1.84809e-05
0.000283166
1.88218e-05
0.000282029
1.15112e-05
0.000279474
2.57949e-05
0.000238327
1.96143e-05
0.000258743
2.81585e-05
0.000274743
2.69034e-05
0.000280486
2.03653e-05
0.000281094
9.89078e-06
0.000266768
5.22563e-05
0.000213981
2.4346e-05
0.000239202
3.91548e-05
0.00026125
4.16518e-05
0.000274836
3.25536e-05
0.000283672
1.77879e-05
0.000268016
8.64278e-06
0.000258626
8.70805e-05
0.00018729
2.6691e-05
0.000214591
4.89576e-05
0.000241262
5.91427e-05
0.000263198
5.32889e-05
0.000279995
3.62303e-05
0.000277526
8.27869e-06
0.000266784
4.84948e-07
0.000230071
0.000150713
0.000160243
2.70472e-05
0.00018751
5.37722e-05
0.000215883
7.43365e-05
0.000243415
7.8926e-05
0.000269231
6.40526e-05
0.00028025
3.35058e-05
0.000283376
-8.31359e-06
0.00023841
-7.85446e-06
0.000170982
-4.5782e-05
0.000134531
2.57113e-05
0.00016011
5.44463e-05
0.000187913
8.17425e-05
0.000217294
0.000100458
0.000248425
9.97324e-05
0.000272749
7.15538e-05
0.000289047
2.78351e-05
0.000270771
-4.06744e-05
0.000237797
-7.46695e-05
-0.000262812
0.000215962
0.000111231
2.33009e-05
0.00013415
5.16721e-05
0.000159767
8.25919e-05
0.000188202
0.000110834
0.000220463
0.00012842
0.000252334
0.000120148
0.000281642
7.89586e-05
0.000291948
6.65774e-06
0.000309998
-0.000112875
0.000125342
-0.000462824
-3.36286e-06
0.000219319
9.08377e-05
2.03928e-05
0.000110702
4.67483e-05
0.00013329
7.81489e-05
0.000159045
0.000111749
0.000189314
0.000141983
0.000222654
0.000158099
0.000259754
0.000142035
0.000290083
8.08236e-05
0.000362022
-4.53669e-05
0.000372614
-0.000360147
9.55213e-05
-0.000561708
0.000170406
4.89133e-05
7.34452e-05
1.73925e-05
9.0246e-05
4.08489e-05
0.000109556
7.04823e-05
0.000131873
0.000105321
0.0001585
0.000142563
0.000189246
0.000175391
0.000226896
0.000190958
0.000268822
0.000163297
0.000375534
6.7312e-05
0.000554953
-0.000227705
0.000185062
-0.000449687
7.16292e-05
-0.000462931
2.84029e-05
2.05104e-05
5.88923e-05
1.45529e-05
7.28499e-05
3.47886e-05
8.89926e-05
6.14126e-05
0.00010776
9.45957e-05
0.000130244
0.000133577
0.000156563
0.000175246
0.000190171
0.000212116
0.000232197
0.000227582
0.000363731
0.0001751
0.000635537
-1.32724e-05
0.000394885
-0.000437528
1.21745e-05
-0.000390233
3.1863e-06
-0.000437715
8.00898e-05
-5.95794e-05
4.68809e-05
1.20114e-05
5.83313e-05
2.90714e-05
7.16081e-05
5.21731e-05
8.70633e-05
8.2109e-05
0.000105546
0.000119293
0.000127149
0.000162991
0.00015502
0.000210397
0.00019125
0.000253063
0.000334372
0.000256941
0.000662467
0.00014817
0.000564397
-0.000182784
-3.2153e-06
-0.000422138
-2.00625e-05
-0.000366984
2.78626e-05
-0.000385488
-1.68883e-05
3.70556e-05
9.82531e-06
4.6375e-05
2.39677e-05
5.71731e-05
4.35064e-05
6.97138e-05
6.95225e-05
8.46308e-05
0.000103024
0.000101892
0.00014455
0.000124243
0.000193767
0.000152853
0.000248795
0.000300081
0.000287354
0.000644381
0.000275028
0.000599191
0.000113375
8.9788e-07
-0.000186897
-6.2623e-05
-0.000379578
-1.35443e-05
-0.000325577
-9.81698e-06
2.90576e-05
7.99802e-06
3.66142e-05
1.95861e-05
4.53387e-05
3.58021e-05
5.54159e-05
5.78043e-05
6.73022e-05
8.68512e-05
8.08524e-05
0.000124065
9.84315e-05
0.000170362
0.000119933
0.000226687
0.000269812
0.000279064
0.000602614
0.000329121
0.000515179
0.00035904
1.3151e-05
0.000101122
-9.16828e-05
-0.000157837
-4.56205e-05
-0.000347502
-5.02114e-06
2.255e-05
6.50755e-06
2.86833e-05
1.59289e-05
3.5716e-05
2.92089e-05
4.37722e-05
4.74458e-05
5.31682e-05
7.19383e-05
6.36786e-05
0.000104025
7.73432e-05
0.000145153
9.2911e-05
0.000197384
0.0002449
0.000251599
0.000549114
0.000332564
0.000375221
0.00046908
1.58535e-05
0.000356338
-8.06205e-05
9.006e-05
-6.22897e-05
-0.000141168
-1.51051e-05
1.72294e-05
5.32066e-06
2.22414e-05
1.29495e-05
2.79257e-05
2.37192e-05
3.43619e-05
3.86192e-05
4.17637e-05
5.88503e-05
4.98612e-05
8.57558e-05
6.03998e-05
0.000120968
7.13249e-05
0.000166739
0.000224957
0.000217327
0.000486292
0.00031442
0.000248917
0.000458867
2.85536e-05
0.000456379
-4.56211e-05
0.000321338
-5.62069e-05
8.39771e-05
-2.03567e-05
1.28302e-05
4.39914e-06
1.69825e-05
1.05796e-05
2.16187e-05
1.92565e-05
2.67856e-05
3.12954e-05
3.26233e-05
4.77596e-05
3.88516e-05
6.98598e-05
4.69431e-05
9.92126e-05
5.43962e-05
0.000137897
0.000208794
0.000182902
0.000411037
0.000292582
0.000162098
0.000401239
4.03505e-05
0.000447071
-7.39454e-06
0.000418153
-3.08706e-05
0.000296002
-1.77018e-05
9.12146e-06
3.70875e-06
1.264e-05
8.74164e-06
1.6485e-05
1.57132e-05
2.06825e-05
2.53596e-05
2.53203e-05
3.85984e-05
3.01303e-05
5.64809e-05
3.63372e-05
8.04656e-05
4.1295e-05
0.000112314
0.000195639
0.000151052
0.000330148
0.000263791
0.000110546
0.000344134
4.21148e-05
0.000399474
1.47473e-05
0.000424929
-5.05122e-06
0.000392334
-9.11106e-06
5.90472e-06
3.21674e-06
8.98319e-06
7.36551e-06
1.22571e-05
1.29695e-05
1.57381e-05
2.06577e-05
1.94787e-05
3.12012e-05
2.32374e-05
4.54913e-05
2.8015e-05
6.48032e-05
3.12474e-05
9.05132e-05
0.000184743
0.000123209
0.000251813
0.000229387
7.90735e-05
0.000295263
3.95356e-05
0.000346714
2.39236e-05
0.000390298
9.4255e-06
0.000410452
-7.30254e-07
3.00808e-06
2.89663e-06
5.81508e-06
6.38485e-06
8.70587e-06
1.09167e-05
1.16835e-05
1.70241e-05
1.47772e-05
2.53592e-05
1.77795e-05
3.66591e-05
2.14934e-05
5.20129e-05
2.35818e-05
7.24689e-05
0.000175437
9.98196e-05
0.000183829
0.000191194
5.95434e-05
0.000248917
3.7352e-05
0.000297447
2.61439e-05
0.000344493
1.54718e-05
0.000384252
4.02704e-06
2.82918e-07
2.72516e-06
2.96528e-06
5.74641e-06
5.63648e-06
9.45424e-06
8.29157e-06
1.43087e-05
1.09456e-05
2.08556e-05
1.34286e-05
2.97101e-05
1.63703e-05
4.17822e-05
1.77424e-05
5.78522e-05
0.000166993
8.09129e-05
0.000129394
0.000154254
4.65366e-05
0.000204201
3.53891e-05
0.00025088
2.6088e-05
0.000297503
1.69357e-05
0.000343029
5.95101e-06
-2.40425e-06
2.68717e-06
2.86168e-07
5.40426e-06
2.88062e-06
8.50226e-06
5.3701e-06
1.23757e-05
7.75873e-06
1.74956e-05
9.91458e-06
2.43697e-05
1.23178e-05
3.37626e-05
1.32831e-05
4.62415e-05
0.000158606
6.62395e-05
8.86675e-05
0.000121639
3.7352e-05
0.000163439
3.25909e-05
0.000206999
2.50707e-05
0.000251897
1.67146e-05
0.000297724
6.31704e-06
-5.17451e-06
2.77025e-06
-2.355e-06
5.32833e-06
2.92966e-07
7.99191e-06
2.75447e-06
1.11179e-05
5.02779e-06
1.51066e-05
7.01621e-06
2.03939e-05
9.06946e-06
2.76181e-05
9.85336e-06
3.71924e-05
0.000149273
5.55739e-05
6.0251e-05
9.46559e-05
3.01913e-05
0.0001288
2.86493e-05
0.000167381
2.31255e-05
0.000208944
1.58119e-05
0.0002528
6.08855e-06
-8.14203e-06
2.96751e-06
-5.07861e-06
5.49385e-06
-2.25715e-06
7.87843e-06
3.0282e-07
1.04435e-05
2.59271e-06
1.3553e-05
4.55042e-06
1.75724e-05
6.40999e-06
2.30534e-05
7.17838e-06
3.0293e-05
0.00013783
4.86358e-05
4.09436e-05
7.48813e-05
2.33816e-05
0.000101466
2.38043e-05
0.000133645
2.03214e-05
0.000170185
1.4403e-05
0.000210353
5.63209e-06
-1.14164e-05
3.27441e-06
-7.99828e-06
5.88718e-06
-4.88818e-06
8.12487e-06
-2.11187e-06
1.02931e-05
3.16237e-07
1.272e-05
2.36413e-06
1.57393e-05
4.16294e-06
1.98195e-05
5.04539e-06
2.51864e-05
0.000122854
4.52693e-05
2.78871e-05
6.16922e-05
1.66755e-05
8.15873e-05
1.86014e-05
0.000106668
1.68925e-05
0.000137074
1.25563e-05
0.000172032
5.03838e-06
-1.5104e-05
3.68761e-06
-1.12227e-05
6.49885e-06
-7.71153e-06
8.71053e-06
-4.6048e-06
1.06178e-05
-1.9237e-06
1.25331e-05
3.27572e-07
1.47566e-05
2.18195e-06
1.77202e-05
3.2848e-06
2.15801e-05
0.000102951
4.50893e-05
1.9052e-05
5.41043e-05
1.04336e-05
6.79342e-05
1.3644e-05
8.65447e-05
1.32104e-05
0.000110351
1.0408e-05
0.000139222
4.3353e-06
-1.93079e-05
4.20389e-06
-1.48572e-05
7.32209e-06
-1.08343e-05
9.6216e-06
-7.28418e-06
1.13899e-05
-4.23819e-06
1.29323e-05
-1.67335e-06
1.4534e-05
3.43859e-07
1.65947e-05
1.75891e-06
1.92461e-05
7.69599e-05
4.75707e-05
1.26162e-05
5.15251e-05
5.02285e-06
5.9515e-05
9.26054e-06
7.23176e-05
9.67384e-06
9.00813e-05
8.15307e-06
0.000112605
3.56006e-06
-2.41278e-05
4.81985e-06
-1.90042e-05
8.35093e-06
-1.43602e-05
1.08481e-05
-1.02543e-05
1.25917e-05
-6.73123e-06
1.38829e-05
-3.74321e-06
1.50022e-05
-1.45905e-06
1.63369e-05
3.59296e-07
1.79943e-05
4.52751e-05
5.09309e-05
8.01938e-06
5.21675e-05
1.05925e-06
5.54887e-05
5.52909e-06
6.32464e-05
6.42826e-06
7.55631e-05
5.99922e-06
9.22351e-05
2.77113e-06
-2.96588e-05
5.531e-06
-2.37637e-05
9.57938e-06
-1.83912e-05
1.23819e-05
-1.36173e-05
1.42111e-05
-9.50382e-06
1.53643e-05
-5.97927e-06
1.6119e-05
-3.32552e-06
1.68686e-05
-1.00621e-06
1.77024e-05
9.91982e-06
5.33496e-05
4.16595e-06
5.47843e-05
-1.30728e-06
5.4534e-05
2.69594e-06
5.83218e-05
3.64857e-06
6.60261e-05
4.05921e-06
7.75031e-05
2.03288e-06
-3.599e-05
6.33124e-06
-2.92321e-05
1.09994e-05
-2.30278e-05
1.4216e-05
-1.74745e-05
1.6239e-05
-1.2656e-05
1.73633e-05
-8.47729e-06
1.78624e-05
-5.34747e-06
1.8141e-05
-2.42549e-06
1.82879e-05
-2.56723e-05
5.32945e-05
6.44539e-07
5.6871e-05
-1.82923e-06
5.53062e-05
7.95269e-07
5.64346e-05
1.52103e-06
6.04493e-05
2.41144e-06
6.76738e-05
1.37128e-06
-4.32048e-05
7.21483e-06
-3.55004e-05
1.25996e-05
-2.83685e-05
1.63401e-05
-2.19273e-05
1.86689e-05
-1.62886e-05
1.98716e-05
-1.13343e-05
2.02203e-05
-7.61605e-06
2.01309e-05
-3.97718e-06
1.96927e-05
-5.80766e-05
5.06922e-05
-2.92325e-06
5.68623e-05
-1.02096e-06
5.60627e-05
-1.54653e-07
5.62562e-05
1.64808e-07
5.77908e-05
1.15258e-06
6.17082e-05
8.17036e-07
-5.13746e-05
8.16983e-06
-4.26546e-05
1.43691e-05
-3.45078e-05
1.87389e-05
-2.70766e-05
2.14895e-05
-2.0504e-05
2.28843e-05
-1.46495e-05
2.31868e-05
-1.02247e-05
2.2829e-05
-5.74354e-06
2.18973e-05
-8.51049e-05
4.6721e-05
-6.74286e-06
5.45118e-05
5.99666e-08
5.57813e-05
-5.27031e-07
5.64351e-05
-4.23813e-07
5.68448e-05
3.26226e-07
5.86172e-05
3.89437e-07
-6.0559e-05
9.18437e-06
-5.07688e-05
1.6284e-05
-4.15349e-05
2.13963e-05
-3.30206e-05
2.46828e-05
-2.54058e-05
2.63913e-05
-1.85258e-05
2.67606e-05
-1.32697e-05
2.62318e-05
-7.81696e-06
2.49024e-05
-0.000106217
4.30091e-05
-1.11211e-05
5.10992e-05
2.36081e-07
5.43356e-05
-8.07983e-07
5.60622e-05
-4.58163e-07
5.64694e-05
-9.00584e-08
5.72611e-05
1.01789e-07
-7.07937e-05
1.02348e-05
-5.99053e-05
1.83209e-05
-4.95289e-05
2.4278e-05
-3.9854e-05
2.82297e-05
-3.1097e-05
3.0374e-05
-2.30695e-05
3.09351e-05
-1.68524e-05
3.03433e-05
-1.02927e-05
2.87076e-05
-0.000122201
4.08862e-05
-1.65276e-05
4.84155e-05
-1.15577e-06
5.2491e-05
-1.49815e-06
5.50257e-05
-3.87351e-07
5.59914e-05
-2.48431e-07
5.66278e-05
-4.2307e-08
-8.20914e-05
1.12977e-05
-7.01034e-05
2.04329e-05
-5.8558e-05
2.735e-05
-4.7663e-05
3.2087e-05
-3.76793e-05
3.4812e-05
-2.83891e-05
3.56936e-05
-2.10788e-05
3.51614e-05
-1.32757e-05
3.33263e-05
-0.000134336
4.08426e-05
-2.34091e-05
4.77676e-05
-4.0768e-06
5.13364e-05
-2.91962e-06
5.39123e-05
-6.80118e-07
5.53185e-05
-3.64142e-07
5.61071e-05
-8.70263e-08
-9.44357e-05
1.23443e-05
-8.13798e-05
2.25742e-05
-6.86689e-05
3.05438e-05
-5.65252e-05
3.62122e-05
-4.52487e-05
3.96564e-05
-3.4595e-05
4.10179e-05
-2.60591e-05
4.06739e-05
-1.68815e-05
3.87673e-05
-0.000143813
4.28038e-05
-3.21568e-05
4.95901e-05
-8.30119e-06
5.19919e-05
-5.22651e-06
5.36431e-05
-1.62611e-06
5.48582e-05
-6.5746e-07
5.56117e-05
-1.13785e-07
1.33362e-05
-0.000107772
-9.37228e-05
2.46872e-05
-7.98871e-05
3.37923e-05
-6.64989e-05
4.05174e-05
-5.38951e-05
4.48587e-05
-4.17953e-05
4.68567e-05
-3.19082e-05
4.6867e-05
-2.12353e-05
4.50277e-05
-0.000151615
4.65695e-05
-4.3956e-05
5.4603e-05
-1.3608e-05
5.48969e-05
-8.28178e-06
5.5047e-05
-3.29372e-06
5.53106e-05
-1.27548e-06
5.54762e-05
-2.08588e-07
2.66966e-05
-0.000107083
3.47663e-05
-0.000142538
-9.22103e-05
3.70104e-05
-7.7623e-05
4.49164e-05
-6.36923e-05
5.03145e-05
-5.00963e-05
5.31597e-05
-3.87422e-05
5.36907e-05
-2.64727e-05
5.21044e-05
-0.000158483
5.18949e-05
-5.96812e-05
6.22948e-05
-1.93963e-05
6.03915e-05
-1.19415e-05
5.85567e-05
-5.56611e-06
5.73194e-05
-2.28061e-06
5.63157e-05
-4.24133e-07
4.00852e-05
-0.000105599
6.97033e-05
-0.00014202
3.6538e-05
-0.000179076
-8.99112e-05
4.92986e-05
-7.46971e-05
5.59213e-05
-5.95923e-05
5.98105e-05
-4.66795e-05
6.10969e-05
-3.27372e-05
5.99553e-05
-0.000164955
5.85769e-05
-8.03043e-05
7.25182e-05
-2.54182e-05
6.83169e-05
-1.59868e-05
6.44368e-05
-8.30813e-06
6.12987e-05
-3.62245e-06
5.86612e-05
-7.65909e-07
5.35079e-05
-0.000103334
0.000104917
-0.000140813
7.35197e-05
-0.000179002
3.51149e-05
-0.000214191
-8.69424e-05
6.15439e-05
-7.03662e-05
6.66951e-05
-5.58311e-05
6.89621e-05
-4.01805e-05
6.85402e-05
-0.000171437
6.64372e-05
-0.000106887
8.516e-05
-3.14072e-05
7.85076e-05
-2.03058e-05
7.26361e-05
-1.1322e-05
6.74508e-05
-5.22158e-06
6.28979e-05
-1.22228e-06
6.70003e-05
-0.000100435
0.000140512
-0.000138929
0.000111221
-0.000178514
7.12201e-05
-0.000215107
2.98856e-05
-0.000244077
-8.2483e-05
7.36608e-05
-6.6302e-05
7.7166e-05
-4.89506e-05
7.77323e-05
-0.000178238
7.53415e-05
-0.000139854
9.94042e-05
-3.72868e-05
9.10399e-05
-2.4786e-05
8.29881e-05
-1.44798e-05
7.57942e-05
-7.00277e-06
6.92321e-05
-1.77836e-06
8.04982e-05
-9.5981e-05
0.000176672
-0.000136594
0.000149909
-0.000177617
0.000108462
-0.000215756
6.22683e-05
-0.00024749
1.63313e-05
-0.000260408
-7.81868e-05
8.55457e-05
-5.91894e-05
8.74048e-05
-0.00018558
8.5074e-05
-0.00017881
0.000114297
-4.35285e-05
0.000105646
-2.91736e-05
9.54277e-05
-1.77027e-05
8.62112e-05
-8.90716e-06
7.76988e-05
-2.39717e-06
9.39288e-05
-9.16174e-05
0.000213301
-0.00013261
0.000189952
-0.000176637
0.000147311
-0.000216466
9.61189e-05
-0.000249607
4.51849e-05
-0.000276344
-1.04917e-05
-0.000249916
-7.10541e-05
9.74103e-05
-0.000193551
9.53753e-05
-0.000223533
0.000129798
-5.10119e-05
0.00012178
-3.32026e-05
0.000109675
-2.08358e-05
9.85609e-05
-1.08711e-05
8.81753e-05
-3.06006e-06
0.000107701
-8.48259e-05
0.000250287
-0.000128604
0.0002314
-0.000174058
0.000188277
-0.000217603
0.000132331
-0.000252678
7.43261e-05
-0.000278748
1.76276e-05
-0.000304463
-3.76853e-05
-0.000212231
-0.000202185
0.000106045
-0.000273705
0.000145547
-6.00814e-05
0.000138867
-3.66991e-05
0.000125277
-2.36832e-05
0.000112522
-1.28139e-05
0.000100504
-3.74245e-06
0.000120344
-0.000214829
0.000288628
-0.000123166
0.000274329
-0.000171533
0.00023154
-0.000217321
0.000171001
-0.000256274
0.000107151
-0.000285503
4.49719e-05
-0.000306092
-1.92564e-05
-0.000322892
-0.00019786
-1.43715e-05
-0.000328476
0.000160816
-7.12453e-05
0.00015671
-3.9581e-05
0.000141748
-2.6112e-05
0.000127705
-1.46125e-05
0.00011432
-4.41891e-06
0.000182205
-0.000390337
0.000314942
-0.000241143
0.000319862
-0.000168698
0.000277514
-0.000217508
0.000212187
-0.000258507
0.000141667
-0.00029079
7.74066e-05
-0.000317938
1.22681e-05
-0.000337616
-0.000144311
-0.00037644
6.65081e-05
-8.08796e-05
-8.57853e-05
0.000175355
-4.15364e-05
0.000158665
-2.79672e-05
0.000143603
-1.61939e-05
0.000129286
-5.05643e-06
0.000196113
-9.96941e-05
0.000416131
-0.000491526
0.000353391
-0.000274672
0.000327162
-0.000218346
0.000256325
-0.000261646
0.000177674
-0.000294514
0.000107935
-0.000321318
4.9598e-05
-0.000355268
-5.86182e-05
-0.000423309
6.64933e-05
-0.000376426
0.000255236
-0.000336116
-4.1859e-05
0.000175678
-2.89903e-05
0.000159688
-1.74324e-05
0.000144841
-5.63388e-06
0.000192657
-3.84026e-05
0.000485812
-0.000169374
0.000412984
-0.000551119
0.000363062
-0.000310572
0.000304868
-0.000266889
0.000215285
-0.000299257
0.000137244
-0.000323822
8.03538e-05
-0.000352074
1.96371e-05
-0.000433523
0.000106171
-0.000462987
0.000290505
-0.000411694
0.00127665
-0.000163657
-0.00144911
-2.87797e-05
0.000175467
-1.8175e-05
0.000160431
-6.1054e-06
0.000190188
-2.631e-05
0.000489491
-4.20806e-05
0.000527216
-0.000283606
0.000395352
-0.000583409
0.000339055
-0.000344759
0.000256545
-0.000308149
0.000164591
-0.000326604
0.000103888
-0.000347357
7.02058e-05
-0.000402642
0.000146277
-0.000473629
0.000337703
-0.000510185
0.00109872
-0.000233766
0.00119153
-4.58626e-05
-0.00130932
-5.50342e-05
-0.00139407
-1.82123e-05
0.000175505
-6.42839e-06
0.000189165
-1.71885e-05
0.000487077
-2.38952e-05
0.000525863
-4.0726e-05
0.000537952
-0.000426206
0.000351222
-0.000595575
0.000282441
-0.000370655
0.000192481
-0.000336039
0.00011771
-0.000340426
9.14277e-05
-0.000368579
0.000154873
-0.000411238
0.00032932
-0.000465247
0.000858682
-0.000270145
0.00102739
-6.96306e-05
0.00116917
7.84174e-05
-0.00129345
-2.20624e-05
-0.00134229
-4.1106e-05
-0.00135297
-6.53384e-06
-6.36085e-06
0.000485506
-1.56174e-05
0.000515091
-1.31232e-05
0.000533008
-3.5781e-05
0.000473027
-0.000548011
0.000279455
-0.00059259
0.000204379
-0.000382553
0.000128155
-0.000346484
9.14239e-05
-0.000340422
0.00013721
-0.000350916
0.0002842
-0.000366118
0.000629359
-0.000235925
0.000810143
-5.28961e-05
0.000993598
0.000105945
0.0012238
0.000208381
-0.00135377
4.44588e-05
-0.00135998
-3.34269e-05
-0.00134997
-3.51674e-05
-0.0013178
-5.98934e-06
0.000507992
-8.51784e-06
0.000509564
1.03205e-05
0.00047734
-4.00932e-05
0.000344983
-0.000613539
0.000182231
-0.000570442
0.000122283
-0.000376681
7.97101e-05
-0.00033477
0.000103505
-0.000306717
0.000214055
-0.000280771
0.00044164
-0.000178399
0.000596972
-2.27528e-05
0.000811418
0.000129284
0.00106217
0.00026758
0.00130044
0.000358708
-0.00145077
0.000122643
-0.00143195
-8.75973e-06
-0.00138464
-5.86242e-05
-0.00132652
-5.03274e-05
-0.00126747
-3.72836e-06
0.000493718
7.32873e-06
0.000445067
4.2593e-05
0.000348319
-4.34299e-05
0.000185508
-0.000616815
7.94073e-05
-0.000527566
5.02638e-05
-0.000347235
5.75032e-05
-0.000288768
0.000135091
-0.000227753
0.00029021
-0.000129342
0.000413981
4.59169e-06
0.000639879
0.000148786
0.000873647
0.000317808
0.00110112
0.000466896
0.00143349
0.00050617
-0.00158096
0.000218985
-0.00154711
1.81127e-05
-0.00145883
-7.30549e-05
-0.00137021
-8.82573e-05
-0.00128859
-6.14914e-05
-0.00120598
1.57545e-06
0.000421992
3.04041e-05
0.000316906
7.4006e-05
0.000169805
-2.77275e-05
2.18513e-05
-0.000559259
-1.78208e-05
-0.000459482
5.95973e-07
-0.000290328
4.82488e-05
-0.000201926
0.000163945
-0.000101487
0.000266502
1.81375e-05
0.000478754
0.000165717
0.000665092
0.000357341
0.000877469
0.000541463
0.0012081
0.000692292
0.00149312
0.000116148
-0.00157807
0.000115052
0.000173973
0.000185945
0.000297298
-0.00165927
5.01853e-05
-0.00157918
-8.82505e-05
-0.00144363
-0.000128077
-0.00133039
-0.00012303
-0.00122705
-8.23522e-05
-0.00112363
9.30893e-06
0.000293713
5.35962e-05
0.000145621
9.81886e-05
-1.21039e-05
6.22673e-06
-0.000127466
-0.000449614
-9.70408e-05
-0.000361845
-3.72751e-05
-0.000204804
5.15075e-05
-8.9489e-05
0.000140818
2.41971e-05
0.000319814
0.000177078
0.000457445
0.000373364
0.000669484
0.000565326
0.000958368
0.000791193
0.00125364
0.000931778
-1.53742e-06
0.00023877
-0.000227824
0.000106739
7.51002e-05
-0.00155952
6.9723e-05
7.0537e-05
6.33893e-05
0.000239839
-0.000220557
9.42327e-05
8.0538e-08
0.0002427
0.000169963
0.000247189
0.000178675
4.62793e-05
-0.00165536
-0.000109209
-0.00155822
-0.000172783
-0.00139892
-0.000180953
-0.00127247
-0.000164652
-0.00114475
-9.5274e-05
-0.00102836
1.71937e-05
0.000129963
6.9253e-05
-2.73115e-05
0.000113395
-0.000167116
4.58757e-05
-0.000255982
-0.000290673
-0.000159637
-0.000239483
-4.48326e-05
-0.000108464
2.70039e-05
2.43248e-05
0.000167801
0.00017621
0.000269046
0.000365476
0.000482705
0.000560144
0.000683711
0.000839983
0.00100418
0.00104065
-0.000181677
-0.000177391
0.000915067
0.000183394
0.000186069
0.000245829
0.000250377
-4.55995e-06
-0.00022063
7.24658e-05
4.32796e-06
0.000124208
-0.000100589
7.87926e-05
-0.00148191
-3.13325e-05
-0.000212152
5.67582e-05
-5.18684e-06
-0.000192497
4.75915e-05
-0.000187817
3.38675e-05
0.000100117
-5.42619e-05
5.2706e-05
5.06077e-06
0.000107433
0.000106461
-0.000118444
-0.00164613
-0.000221837
-0.00150917
-0.000236744
-0.00134313
-0.000251313
-0.00118581
-0.000196351
-0.00104367
-0.000108528
-0.000919828
2.28022e-05
-3.36423e-05
7.55831e-05
-0.000176512
0.000122789
-0.000287042
7.69349e-05
-0.000359504
-9.08062e-05
-0.000173328
-0.000110987
-7.3969e-05
-7.49073e-06
2.58733e-05
0.000166253
0.00011031
0.000334946
0.000309977
0.000538204
0.000425937
0.000817918
0.000737057
0.00110711
0.000822949
0.000262289
0.000263895
0.00030302
0.000303566
4.46379e-06
5.8418e-05
1.83067e-05
0.000102205
5.47684e-05
3.15254e-05
0.000104239
1.64766e-06
9.31001e-05
0.000209499
9.2482e-05
0.000214311
2.23272e-06
-5.34527e-05
2.30965e-05
9.79451e-06
-0.000112157
0.000188683
2.80999e-05
-3.52733e-05
3.06062e-05
-3.09613e-05
-0.0013934
-0.000206954
1.10895e-05
-3.72249e-05
-0.000156908
-5.64891e-05
-5.39627e-05
-5.799e-05
-6.01614e-05
4.69866e-06
3.03527e-08
-3.99729e-06
9.22557e-06
-2.65611e-06
-0.000138509
0.000218676
2.44905e-05
-3.61744e-05
2.64232e-05
-3.24058e-05
1.01368e-05
2.9378e-05
-1.70766e-05
1.79436e-05
-2.67986e-05
2.95564e-05
-1.42614e-05
1.8563e-05
-2.42434e-05
-0.00030041
-0.00156756
-0.000317172
-0.00142874
-0.000341783
-0.00125266
-0.000306979
-0.00107518
-0.000219914
-0.000932284
-0.000116609
-0.000803219
2.58007e-05
-0.000175826
7.48966e-05
-0.000288254
0.000124001
-0.000379101
9.65317e-05
-0.000345802
8.16671e-05
-0.000219556
3.45999e-05
-9.67047e-05
0.000115087
-2.51442e-05
0.000301707
0.000123985
0.000520938
0.000206485
0.000757655
0.000430661
0.00112431
0.00063424
0.000311501
0.000311088
0.000336937
0.000336288
4.936e-07
0.000120065
0.00023483
0.000119775
0.000237095
9.08511e-08
0.000122506
0.000300488
0.000122283
0.000301149
2.37725e-06
-0.000187051
4.42525e-05
9.31884e-05
-3.97591e-05
4.67093e-05
2.71922e-05
-3.35302e-05
3.83976e-05
0.000110401
-0.000181969
4.27213e-05
9.22074e-05
4.56019e-05
-3.83727e-05
2.87576e-05
-3.20059e-05
3.97708e-05
0.000109905
2.38282e-06
-0.000102351
-2.05876e-06
6.82543e-05
-1.1057e-05
6.7234e-05
-9.62845e-05
1.04164e-06
6.98351e-05
-8.76726e-06
6.88992e-05
5.05998e-06
0.000264741
2.35005e-05
-5.34589e-05
1.99339e-05
-4.79965e-05
8.81381e-05
1.4277e-05
2.62218e-06
-8.964e-05
1.27026e-05
-1.50561e-05
-8.57664e-05
9.65094e-05
-3.09602e-05
2.17245e-06
8.95408e-05
1.1975e-05
-7.52748e-05
-2.71759e-05
-0.00131079
-0.000383019
-0.000124981
-5.32962e-05
-5.87631e-05
-6.47026e-05
-6.21188e-05
1.23343e-06
-0.00030386
0.000331931
-8.57929e-05
-0.000308287
0.0003371
-8.15422e-05
1.35981e-06
-0.000299887
-6.33236e-05
-0.000307841
-5.92469e-05
0.000283177
2.11295e-05
-5.04423e-05
1.72966e-05
-4.73945e-05
1.65385e-06
2.42293e-05
-3.87889e-05
3.242e-05
-4.54344e-05
2.32091e-05
-3.53517e-05
3.11267e-05
-4.46505e-05
9.30701e-05
1.50618e-05
-9.30693e-05
1.20501e-05
-1.54032e-05
-8.52088e-05
9.53199e-05
-3.08823e-05
9.52735e-05
1.09891e-05
-7.57711e-05
-2.67816e-05
-8.57475e-05
1.16833e-05
1.95629e-06
1.18459e-05
-1.57613e-05
6.24251e-05
-1.94879e-05
1.28448e-06
8.33671e-06
-2.79648e-05
-8.65006e-05
1.25294e-05
1.24145e-05
-1.59005e-05
6.18788e-05
-1.75185e-05
9.65373e-06
-2.56063e-05
-0.000436722
-0.00144801
-0.000436805
-0.00133372
-0.000433932
-0.00112571
-0.000338537
-0.000956557
-0.000235858
-0.000813035
-0.000124745
-0.000678474
2.73939e-05
-0.000284482
7.11239e-05
-0.000372002
0.000116901
-0.000355303
0.000106033
-0.000401601
0.000263712
-0.000295925
0.00023382
-0.000150205
0.000240148
-5.3638e-05
0.000479331
2.64242e-05
0.000700999
0.000114298
0.00107402
0.000427663
0.000331833
0.00033131
0.0003344
0.000333347
-4.20719e-08
0.00010968
0.000324369
0.000109068
0.000324262
-1.99013e-07
0.00010313
0.000343686
0.000102921
0.000342236
2.3926e-06
-3.18388e-05
4.82424e-06
7.32716e-05
1.08727e-05
7.29246e-05
-2.83161e-05
8.08978e-06
7.4163e-05
1.49319e-05
7.43252e-05
1.31298e-06
1.89081e-05
3.52674e-05
9.3455e-05
2.86702e-05
9.10423e-05
2.10653e-05
3.7328e-05
9.33246e-05
3.15099e-05
9.09369e-05
-9.05769e-06
-8.1333e-05
8.39746e-05
-3.33431e-05
-3.18761e-06
6.84585e-05
-3.80496e-05
-5.61833e-05
4.53002e-07
1.85001e-05
5.53952e-05
-6.38867e-06
-8.94726e-05
-1.90019e-05
2.49313e-07
-5.84723e-05
3.40636e-05
7.22168e-07
0.000113028
1.78336e-06
-3.46802e-06
6.73515e-05
-3.58001e-05
-9.00198e-06
-8.23519e-05
8.36987e-05
-3.07176e-05
-5.59612e-05
5.49083e-05
2.12614e-05
-6.46386e-06
-9.06383e-05
-1.72557e-05
-5.81063e-05
3.57013e-05
0.000113611
3.20116e-06
-5.16625e-06
8.68963e-05
-8.10133e-05
-2.77558e-06
5.17256e-05
2.2802e-07
-4.4807e-05
5.59405e-05
-5.85248e-06
-7.78079e-06
2.74324e-07
5.43901e-05
-5.3366e-06
8.752e-05
-8.00891e-05
-1.05269e-06
5.15599e-05
-4.47499e-05
5.79166e-05
-5.90177e-06
-5.98376e-06
5.67253e-05
-8.48681e-05
1.57569e-05
7.60491e-07
8.39869e-05
7.86421e-06
-1.4421e-05
9.58095e-05
-3.8338e-05
1.15974e-06
9.02592e-06
0.000101301
-3.77309e-05
0.000113223
1.63311e-05
1.59829e-06
-0.000115364
-3.08583e-06
-1.95081e-05
-8.78902e-05
9.71269e-05
-2.06889e-05
1.4453e-06
0.000110716
-6.48786e-06
-7.69444e-05
-2.17908e-05
-0.0012044
-0.000543117
-0.000145281
-9.61217e-05
-0.000107971
-7.57876e-05
-8.28383e-05
3.28345e-06
-0.000343599
0.000345581
-5.85619e-05
-0.000353575
0.00035759
-5.9494e-05
2.52605e-06
-7.88968e-05
-7.60686e-05
1.70159e-06
-0.000384165
0.000413297
-5.67489e-05
-4.36742e-06
-5.18235e-05
-3.7186e-06
-0.000389482
0.000423308
-5.49615e-05
-4.38642e-06
-5.08089e-05
-3.50921e-06
1.66475e-06
-0.000128353
-6.06933e-05
-1.40101e-05
-0.00013446
5.26554e-06
-3.8583e-05
3.58663e-07
-7.86909e-05
-0.000130059
-6.32008e-05
-1.15578e-05
-0.000136195
8.4139e-06
-3.65235e-05
2.19678e-06
-8.0139e-05
-9.081e-05
1.65552e-05
8.89037e-05
7.24108e-06
-1.48088e-05
9.57172e-05
-3.60308e-05
8.11093e-06
0.000101086
-3.62081e-05
7.61347e-05
2.11024e-05
3.11025e-07
1.06682e-05
-3.09256e-05
-0.000108623
-2.75935e-05
-1.09495e-07
1.70302e-05
-3.16547e-05
8.02628e-05
2.17321e-05
1.04289e-05
-3.11361e-05
-0.000108927
-2.53471e-05
1.6943e-05
-3.07597e-05
0.000115302
1.67401e-05
-0.000116834
-1.55925e-06
-1.98993e-05
-8.742e-05
9.6057e-05
-1.962e-05
0.000112912
-5.07541e-06
-7.64911e-05
-2.09705e-05
7.86899e-06
1.13198e-06
5.26721e-07
-2.85817e-05
8.18156e-06
2.14181e-06
-2.65644e-05
-0.000531147
-0.00135366
-0.00057793
-0.00118972
-0.000473278
-0.000990969
-0.000360257
-0.000832158
-0.000251915
-0.000685865
-0.000130142
-0.000548332
2.72807e-05
-0.000367799
6.69208e-05
-0.000346291
0.00010789
-0.000412483
0.000116915
-0.000447274
0.000415061
-0.000409149
0.000492764
-0.000217293
0.000403803
-0.000129315
0.000635069
-0.000116565
0.000931862
0.000177131
0.000317177
0.000316328
0.000345406
0.00034564
4.84038e-08
7.8921e-05
0.000355994
7.98315e-05
0.000354448
8.86989e-08
5.89035e-05
0.000354329
5.95875e-05
0.00035368
1.5377e-06
4.3302e-05
4.52866e-05
0.000101261
5.12691e-05
0.000100654
4.67124e-05
4.67859e-05
0.000100795
5.31229e-05
9.9441e-05
1.16218e-06
4.72943e-05
6.98275e-05
0.000104094
5.94612e-05
0.000105122
4.74943e-05
7.18764e-05
0.000103562
6.28008e-05
0.000104353
-5.82319e-06
-7.2715e-05
2.34911e-06
-3.95788e-05
-2.24409e-07
6.24591e-05
-5.91985e-06
-6.02209e-05
4.30326e-06
-3.05278e-07
-3.59795e-05
6.37435e-05
-5.62106e-06
-7.13105e-05
4.93225e-06
-4.03907e-05
6.39584e-05
-5.11117e-06
-5.85692e-05
7.30181e-06
-3.65777e-05
6.50865e-05
-2.42141e-06
4.05361e-05
-2.83589e-05
2.55075e-05
2.73969e-05
-6.10574e-08
-1.706e-05
8.07771e-05
-4.31473e-06
1.32954e-05
-1.34619e-07
7.82619e-05
-1.68942e-06
4.00364e-05
-2.88881e-05
2.78691e-05
2.75496e-05
-1.70964e-05
8.11292e-05
-3.40199e-06
1.6379e-05
7.83817e-05
-1.06462e-05
6.53544e-05
-3.67967e-06
-2.71802e-05
-2.55363e-05
1.91134e-07
9.13043e-07
4.92539e-05
-5.9994e-06
-4.03241e-05
2.27541e-07
-3.02079e-05
-1.03949e-05
6.51177e-05
-3.57981e-06
-2.74831e-05
4.83096e-05
-2.61937e-05
-5.91271e-06
-4.063e-05
-3.05773e-05
-6.90782e-06
4.34061e-05
-4.54908e-05
2.85265e-05
1.36452e-07
-2.6291e-05
-7.36378e-06
2.88022e-07
-6.69386e-06
4.40829e-05
-4.65928e-05
2.87132e-05
-2.65382e-05
-7.22536e-06
-0.000109847
2.33599e-05
1.24552e-06
0.000109167
-1.60487e-05
-2.13012e-05
0.000102158
-2.20674e-05
1.34687e-06
-1.27383e-05
0.000108469
-2.06827e-05
4.87975e-05
7.79546e-06
7.80184e-07
-4.59374e-05
-7.49472e-06
-5.77088e-05
5.83865e-05
8.79531e-07
5.23219e-05
-5.75573e-05
-0.00113892
-0.000596628
-0.000196893
-0.000130055
-0.000133066
-0.000111649
-0.000116736
2.4661e-06
-0.000331895
0.000321149
-8.78422e-05
-0.000345617
0.00033158
-9.1468e-05
3.36915e-06
-6.54702e-05
-6.74962e-05
3.1034e-06
-0.000428191
0.000412959
-4.80633e-05
2.98278e-05
-4.87873e-05
2.05657e-05
-0.000440403
0.000423565
-4.47999e-05
2.99814e-05
-4.53921e-05
2.06774e-05
1.60685e-06
-5.51976e-05
4.18942e-07
-5.01e-05
9.44871e-06
-5.33008e-05
-2.19739e-08
-4.73616e-05
9.11788e-06
-2.41559e-05
-0.000112017
0.000113581
-3.41568e-05
-0.000102384
-7.76519e-08
0.000106219
-3.22335e-05
-2.31668e-05
-0.000109343
-3.13308e-05
2.12632e-07
-9.90776e-05
-3.0404e-05
-2.44539e-05
-0.000113892
0.000115926
-3.2542e-05
-0.00010543
0.000109843
-3.3331e-05
-2.38859e-05
-0.000110686
-3.01285e-05
-0.000101626
-3.09862e-05
-1.9799e-05
0.000107367
-0.000107906
6.32708e-06
-3.87096e-05
-0.00011781
-5.53337e-06
9.82316e-05
4.80983e-07
-1.16566e-05
-0.000101555
-2.20938e-05
-1.84652e-05
2.52354e-07
-2.28335e-05
9.85574e-07
-0.000101337
-3.59454e-08
-1.96898e-05
0.000108249
-0.000108375
8.25784e-06
-3.91138e-05
-0.000118469
-3.95965e-06
9.99936e-05
-7.07374e-06
-0.000103715
-2.25792e-05
-1.63815e-05
-2.17625e-05