/*--------------------------------*- C++ -*----------------------------------*\
| =========                 |                                                 |
| \\      /  F ield         | OpenFOAM: The Open Source CFD Toolbox           |
|  \\    /   O peration     | Version:  5.x                                   |
|   \\  /    A nd           | Web:      www.OpenFOAM.org                      |
|    \\/     M anipulation  |                                                 |
\*---------------------------------------------------------------------------*/
FoamFile
{
    version     2.0;
    format      ascii;
    class       volScalarField;
    location    "0.7";
    object      rAU;
}
// * * * * * * * * * * * * * * * * * * * * * * * * * * * * * * * * * * * * * //

dimensions      [-1 3 1 0 0 0 0];

internalField   nonuniform List<scalar> 
12160
(
1.39037e-06
1.39032e-06
1.39037e-06
1.39157e-06
1.39031e-06
1.39036e-06
1.39177e-06
1.39151e-06
1.39029e-06
1.39033e-06
1.3918e-06
1.39165e-06
1.3902e-06
1.39032e-06
1.39026e-06
1.39286e-06
1.39173e-06
1.39017e-06
1.3902e-06
1.39034e-06
1.39014e-06
1.39286e-06
1.39286e-06
1.39161e-06
1.3901e-06
1.3902e-06
1.39046e-06
1.38992e-06
1.39289e-06
1.39286e-06
1.39289e-06
1.39144e-06
1.39002e-06
1.39034e-06
1.39172e-06
1.38979e-06
1.39289e-06
1.39289e-06
1.39289e-06
1.3928e-06
1.39111e-06
1.39024e-06
1.39201e-06
1.39153e-06
2.07544e-06
1.39288e-06
1.39289e-06
1.39289e-06
1.39289e-06
1.3928e-06
1.39117e-06
1.39047e-06
1.39273e-06
2.09105e-06
4.81529e-05
1.39278e-06
1.39288e-06
1.39289e-06
1.39289e-06
1.3929e-06
1.3925e-06
1.391e-06
1.39258e-06
2.04699e-06
2.83549e-05
0.00120509
1.39278e-06
1.39278e-06
1.39289e-06
1.39289e-06
1.39289e-06
1.39249e-06
1.3925e-06
1.39235e-06
1.98161e-06
1.95051e-05
0.00123596
0.00139091
1.39279e-06
1.39278e-06
1.39289e-06
1.39289e-06
1.39289e-06
1.39249e-06
1.39249e-06
1.3923e-06
1.99819e-06
1.33564e-05
0.000999384
0.00138736
0.00139245
1.3928e-06
1.39279e-06
1.39288e-06
1.39289e-06
1.39289e-06
1.39249e-06
1.39249e-06
1.392e-06
2.11194e-06
1.15491e-05
0.000635539
0.00138947
0.0013888
0.00139252
1.39281e-06
1.3928e-06
1.39288e-06
1.39288e-06
1.39289e-06
1.3925e-06
1.39249e-06
1.39175e-06
2.34203e-06
1.25471e-05
0.000380783
0.0013874
0.00138979
0.00138915
0.00139173
1.39282e-06
1.39281e-06
1.39288e-06
1.39288e-06
1.39288e-06
1.39251e-06
1.39152e-06
1.39166e-06
2.71225e-06
1.67552e-05
0.000354451
0.00138405
0.00139096
0.00138991
0.00138367
1.39283e-06
1.39282e-06
1.39288e-06
1.39288e-06
1.39288e-06
1.39253e-06
1.39164e-06
1.39078e-06
3.23913e-06
2.61417e-05
0.000483801
0.00138084
0.00139201
0.0013928
0.00138502
1.39284e-06
1.39283e-06
1.39288e-06
1.39288e-06
1.39288e-06
1.39256e-06
1.39178e-06
1.39101e-06
3.95595e-06
4.45142e-05
0.000806333
0.00138555
0.00139241
0.00139286
0.00138628
1.39285e-06
1.39284e-06
1.39288e-06
1.39288e-06
1.39288e-06
1.3926e-06
1.39192e-06
1.39126e-06
4.91236e-06
7.98274e-05
0.00113071
0.00139093
0.00139125
0.00139242
0.00139021
1.39285e-06
1.39285e-06
1.39288e-06
1.39288e-06
1.39288e-06
1.39264e-06
1.39207e-06
1.39151e-06
6.17628e-06
0.000146991
0.00130319
0.00139254
0.00139279
0.00139127
0.00139247
1.39286e-06
1.39285e-06
1.39288e-06
1.39288e-06
1.39288e-06
1.39267e-06
1.3922e-06
1.39174e-06
7.8351e-06
0.000268123
0.0013662
0.00139284
0.00139285
0.0013928
0.00139147
1.39287e-06
1.39286e-06
1.39288e-06
1.39288e-06
1.39288e-06
1.39271e-06
1.39231e-06
1.39194e-06
9.99796e-06
0.000461361
0.00138504
0.00139286
0.00139286
0.00139283
0.00139098
1.39288e-06
1.39288e-06
1.39288e-06
1.39288e-06
1.39288e-06
1.39273e-06
1.39241e-06
1.39211e-06
1.27976e-05
0.00071155
0.00139012
0.00139286
0.00139286
0.00139285
0.00139084
1.39288e-06
1.39288e-06
1.39288e-06
1.39288e-06
1.39288e-06
1.39276e-06
1.39249e-06
1.39226e-06
1.63924e-05
0.0009558
0.00139149
0.00139286
0.00139286
0.00139286
0.00139093
1.39288e-06
1.39288e-06
1.39288e-06
1.39288e-06
1.39288e-06
1.39277e-06
1.39256e-06
1.39237e-06
2.09545e-05
0.00114349
0.00139229
0.00139286
0.00139286
0.00139286
0.00139112
1.39287e-06
1.39288e-06
1.39288e-06
1.39288e-06
1.39288e-06
1.39279e-06
1.39261e-06
1.39246e-06
2.66474e-05
0.00125876
0.00139285
0.00139286
0.00139286
0.00139286
0.00139132
1.39287e-06
1.39288e-06
1.39288e-06
1.39288e-06
1.39288e-06
1.39279e-06
1.39265e-06
1.39253e-06
3.3573e-05
0.00132096
0.00139286
0.00139286
0.00139286
0.00139286
0.00139153
1.39286e-06
1.39287e-06
1.39288e-06
1.39288e-06
1.39288e-06
1.3928e-06
1.39267e-06
1.39258e-06
4.16724e-05
0.00135249
0.00139286
0.00139286
0.00139286
0.00139286
0.00139173
1.39285e-06
1.39286e-06
1.39287e-06
1.39287e-06
1.39288e-06
1.3928e-06
1.39269e-06
1.39262e-06
5.05741e-05
0.00136808
0.00139286
0.00139286
0.00139286
0.00139286
0.00139192
1.39284e-06
1.39285e-06
1.39287e-06
1.39287e-06
1.39287e-06
1.3928e-06
1.3927e-06
1.39264e-06
5.94308e-05
0.00137583
0.0013925
0.00139258
0.00139286
0.00139286
0.00139209
1.39284e-06
1.39284e-06
1.39287e-06
1.39287e-06
1.39287e-06
1.3928e-06
1.39269e-06
1.39265e-06
6.69064e-05
0.00137968
0.00139252
0.00139213
0.00139258
0.00139286
0.00139222
1.39283e-06
1.39284e-06
1.39287e-06
1.39287e-06
1.39287e-06
1.39279e-06
1.39269e-06
1.39265e-06
7.14538e-05
0.00138127
0.00139251
0.00139217
0.00139209
0.00139286
0.00139233
1.39282e-06
1.39283e-06
1.39287e-06
1.39287e-06
1.39287e-06
1.39279e-06
1.39267e-06
1.39264e-06
7.19973e-05
0.00138206
0.00139216
0.00139217
0.00139214
0.00139247
0.00139241
1.39281e-06
1.39282e-06
1.39287e-06
1.39287e-06
1.39287e-06
1.39278e-06
1.39265e-06
1.39262e-06
6.8554e-05
0.00138217
0.00139213
0.00139216
0.00139215
0.00139249
0.00139246
1.3928e-06
1.39281e-06
1.39287e-06
1.39287e-06
1.39287e-06
1.39276e-06
1.39262e-06
1.39259e-06
6.21543e-05
0.00138141
0.00139212
0.00139213
0.00139214
0.00139214
0.00139249
1.39279e-06
1.3928e-06
1.39287e-06
1.39287e-06
1.39287e-06
1.39275e-06
1.39258e-06
1.39254e-06
5.42691e-05
0.0013799
0.00139213
0.00139212
0.00139213
0.00139214
0.00139214
1.39278e-06
1.39279e-06
1.39287e-06
1.39287e-06
1.39287e-06
1.39272e-06
1.39252e-06
1.39248e-06
4.6156e-05
0.00137733
0.0013922
0.00139213
0.00139213
0.00139213
0.00139214
1.39277e-06
1.39278e-06
1.39287e-06
1.39287e-06
1.39287e-06
1.3927e-06
1.39246e-06
1.39241e-06
3.86052e-05
0.00137224
0.0013925
0.00139214
0.00139212
0.00139213
0.00139214
1.39276e-06
1.39277e-06
1.39287e-06
1.39287e-06
1.39287e-06
1.39267e-06
1.39239e-06
1.39233e-06
3.19896e-05
0.00136312
0.00139249
0.00139213
0.00139212
0.00139212
0.00139213
1.39311e-06
1.39276e-06
1.39286e-06
1.39287e-06
1.39287e-06
1.39264e-06
1.39231e-06
1.39223e-06
2.63983e-05
0.00134691
0.00139246
0.00139211
0.00139211
0.00139211
0.00139212
1.39311e-06
1.39288e-06
1.39286e-06
1.39286e-06
1.39287e-06
1.39261e-06
1.39223e-06
1.39211e-06
2.17721e-05
0.00131863
0.00139286
0.00139205
0.00139207
0.00139214
0.00139211
1.39322e-06
1.39288e-06
1.39281e-06
1.39286e-06
1.39286e-06
1.39258e-06
1.39213e-06
1.39198e-06
1.79898e-05
0.0012709
0.00139285
0.00139286
0.00139227
0.00139246
0.00139213
1.39321e-06
1.39301e-06
1.39281e-06
1.39281e-06
1.39286e-06
1.39255e-06
1.39202e-06
1.39184e-06
1.49167e-05
0.00119443
0.00139285
0.00139286
0.00139286
0.00139268
0.00139245
1.3932e-06
1.39301e-06
1.39283e-06
1.39281e-06
1.39279e-06
1.39252e-06
1.39192e-06
1.39168e-06
1.24258e-05
0.001081
0.00139284
0.00139285
0.00139286
0.00139286
0.00139241
1.39282e-06
1.393e-06
1.39283e-06
1.39281e-06
1.39279e-06
1.3915e-06
1.39181e-06
1.39151e-06
1.04081e-05
0.000929249
0.00139282
0.00139285
0.00139286
0.00139286
0.00139236
1.39201e-06
1.3926e-06
1.39283e-06
1.39281e-06
1.39279e-06
1.39277e-06
1.39004e-06
1.39133e-06
8.77137e-06
0.000755406
0.00139211
0.00139285
0.00139285
0.00139286
0.00139228
1.39143e-06
1.39166e-06
1.39241e-06
1.39281e-06
1.39279e-06
1.39277e-06
1.3927e-06
1.38993e-06
7.44191e-06
0.000575352
0.00139153
0.00139285
0.00139285
0.00139286
0.00139219
6.36501e-06
1.39096e-06
1.3913e-06
1.39239e-06
1.39279e-06
1.39277e-06
1.39271e-06
1.39067e-06
1.39013e-06
0.000415997
0.00139089
0.00139285
0.00139285
0.00139286
0.00139209
0.000290751
5.02702e-06
1.39042e-06
1.39239e-06
1.39236e-06
1.39277e-06
1.39272e-06
1.39077e-06
1.38797e-06
1.39202e-06
0.00138936
0.00139285
0.00139285
0.00139285
0.00139197
0.00138606
0.000157309
3.71341e-06
1.39138e-06
1.39236e-06
1.39235e-06
1.39272e-06
1.39105e-06
1.39025e-06
1.39099e-06
1.38813e-06
0.00139285
0.00139285
0.00139285
0.00139183
0.00139298
0.00137024
6.73174e-05
2.89639e-06
1.3915e-06
1.39235e-06
1.39233e-06
1.3926e-06
1.39097e-06
1.39264e-06
1.38559e-06
1.37597e-06
0.00139285
0.00139285
0.00139169
0.00139294
0.00139291
0.00127428
3.29075e-05
2.38203e-06
1.39179e-06
1.39192e-06
1.39025e-06
1.39265e-06
1.39161e-06
1.38456e-06
1.38678e-06
1.38609e-06
1.3769e-06
0.00139285
0.00139154
0.00139291
0.0013929
0.00139267
0.000992547
1.87022e-05
2.05527e-06
1.39192e-06
1.38913e-06
1.39052e-06
1.39138e-06
1.38653e-06
1.38838e-06
1.39288e-06
1.39288e-06
1.3728e-06
1.38857e-06
0.00139139
0.00139127
0.00139288
0.00139286
0.00139213
0.000608007
1.22248e-05
1.84738e-06
1.38957e-06
1.38997e-06
1.39243e-06
1.39044e-06
1.38915e-06
1.39288e-06
1.39288e-06
1.39287e-06
1.39288e-06
1.37959e-06
1.39255e-06
0.00139105
0.00139284
0.00139284
0.0013883
0.000345717
9.01987e-06
1.71203e-06
1.38979e-06
1.39231e-06
1.39251e-06
1.39111e-06
1.39258e-06
1.39288e-06
1.39288e-06
1.39287e-06
1.39288e-06
1.39288e-06
1.39283e-06
1.3926e-06
0.0013908
0.00139282
0.00139071
0.00137954
0.000220816
7.3058e-06
1.62334e-06
1.39231e-06
1.39257e-06
1.39253e-06
1.39279e-06
1.39288e-06
1.39288e-06
1.39287e-06
1.39286e-06
1.39287e-06
1.39288e-06
1.39288e-06
1.39288e-06
1.39288e-06
0.0013907
0.00139069
0.00139122
0.00136648
0.000171172
6.28294e-06
1.56656e-06
1.3926e-06
1.3926e-06
1.39288e-06
1.39288e-06
1.39288e-06
1.39287e-06
1.39282e-06
1.38851e-06
1.39026e-06
1.39288e-06
1.39288e-06
1.39288e-06
1.39288e-06
1.39288e-06
0.00139088
0.00139121
0.00139207
0.00136131
0.000161972
5.72309e-06
1.53445e-06
1.39263e-06
1.39288e-06
1.39288e-06
1.39288e-06
1.39287e-06
1.39211e-06
1.38396e-06
1.37378e-06
1.38523e-06
1.37342e-06
1.37233e-06
1.37371e-06
1.39245e-06
1.39181e-06
1.39288e-06
1.39288e-06
1.39288e-06
1.39288e-06
0.00139138
0.00139206
0.00139285
0.00136687
0.000174643
5.59416e-06
1.52216e-06
1.39288e-06
1.39287e-06
1.39287e-06
1.39287e-06
1.39103e-06
1.38871e-06
1.38241e-06
1.36585e-06
1.38932e-06
1.38939e-06
1.36658e-06
1.37351e-06
1.37506e-06
1.38964e-06
1.38499e-06
1.38473e-06
1.39181e-06
1.39072e-06
1.39288e-06
1.39288e-06
1.39288e-06
1.39288e-06
0.00139217
0.00139289
0.00139186
0.00137329
0.000209428
5.78915e-06
1.53529e-06
1.39288e-06
1.39287e-06
1.39287e-06
1.39188e-06
1.391e-06
1.3899e-06
1.3907e-06
1.38999e-06
1.39782e-06
1.39761e-06
1.39014e-06
1.37941e-06
1.3929e-06
1.39049e-06
1.39239e-06
1.38985e-06
1.38865e-06
1.38394e-06
1.38508e-06
1.38767e-06
1.39073e-06
1.39283e-06
1.39288e-06
1.39288e-06
1.39288e-06
1.39288e-06
0.001392
0.0013929
0.00139094
0.00137815
0.000272149
6.47093e-06
1.5544e-06
1.39273e-06
1.39287e-06
1.39287e-06
1.39187e-06
1.39272e-06
1.38374e-06
1.38372e-06
1.39499e-06
1.39513e-06
1.37627e-06
1.37746e-06
1.39423e-06
1.39465e-06
1.37966e-06
1.35576e-06
1.35832e-06
1.31203e-06
1.36065e-06
1.39126e-06
1.39063e-06
1.38386e-06
1.38565e-06
1.3881e-06
1.38848e-06
1.3822e-06
1.38298e-06
1.38219e-06
1.33539e-06
1.35956e-06
1.28836e-06
1.3616e-06
1.37501e-06
1.36205e-06
1.33126e-06
1.35711e-06
1.3767e-06
1.3613e-06
1.33782e-06
1.35399e-06
1.39283e-06
1.39288e-06
1.39288e-06
1.39288e-06
1.39288e-06
1.39288e-06
0.00138801
0.0013929
0.00138942
0.0013815
0.000358242
7.57896e-06
1.62514e-06
1.39301e-06
1.39287e-06
1.39286e-06
1.39275e-06
1.38149e-06
1.38146e-06
1.3868e-06
1.38661e-06
1.38868e-06
1.38957e-06
1.39256e-06
1.39337e-06
1.25085e-06
1.35271e-06
1.35408e-06
1.30436e-06
1.31953e-06
1.34795e-06
1.35196e-06
1.2563e-06
1.35293e-06
1.3058e-06
1.31628e-06
1.34659e-06
1.38649e-06
1.36923e-06
1.3767e-06
1.34754e-06
1.3887e-06
1.36841e-06
1.37916e-06
1.34507e-06
1.28271e-06
1.34891e-06
1.28145e-06
1.32141e-06
1.37429e-06
1.37218e-06
1.36973e-06
1.37331e-06
1.39125e-06
1.38825e-06
1.35967e-06
1.35834e-06
1.38213e-06
1.3825e-06
1.32133e-06
1.34989e-06
1.33376e-06
1.36126e-06
1.28664e-06
1.35228e-06
1.27774e-06
1.32229e-06
1.28234e-06
1.26604e-06
1.29398e-06
1.29736e-06
1.2878e-06
1.26574e-06
1.29359e-06
1.2958e-06
1.37393e-06
1.37276e-06
1.37332e-06
1.37457e-06
1.32407e-06
1.33386e-06
1.32182e-06
1.33558e-06
1.39288e-06
1.39268e-06
1.39288e-06
1.39288e-06
1.39288e-06
1.39288e-06
0.00138441
0.00139218
0.00138798
0.00138292
0.000500782
1.05095e-05
1.7515e-06
1.39787e-06
1.39105e-06
1.39242e-06
1.37298e-06
1.37227e-06
1.40092e-06
1.40089e-06
1.39472e-06
1.39579e-06
1.39983e-06
1.39985e-06
1.38644e-06
1.36761e-06
1.38247e-06
1.3463e-06
1.38313e-06
1.36716e-06
1.38267e-06
1.35302e-06
1.38525e-06
1.35455e-06
1.38544e-06
1.35207e-06
1.38774e-06
1.35467e-06
1.38584e-06
1.354e-06
1.3115e-06
1.25033e-06
1.27984e-06
1.37837e-06
1.31197e-06
1.30174e-06
1.31574e-06
1.23146e-06
1.38066e-06
1.26616e-06
1.28681e-06
1.2962e-06
1.37612e-06
1.31929e-06
1.3562e-06
1.29752e-06
1.37565e-06
1.31775e-06
1.34859e-06
1.29223e-06
1.31769e-06
1.36976e-06
1.37054e-06
1.37065e-06
1.37935e-06
1.36876e-06
1.37539e-06
1.3738e-06
1.39288e-06
1.38697e-06
1.36422e-06
1.36383e-06
1.34297e-06
1.34219e-06
1.32143e-06
1.33415e-06
1.32084e-06
1.33403e-06
1.30103e-06
1.36289e-06
1.26825e-06
1.36475e-06
1.29833e-06
1.36262e-06
1.31924e-06
1.36459e-06
1.3264e-06
1.26782e-06
1.34466e-06
1.29366e-06
1.37035e-06
1.27826e-06
1.32564e-06
1.26884e-06
1.34365e-06
1.34786e-06
1.36961e-06
1.27726e-06
1.31692e-06
1.37148e-06
1.37058e-06
1.37295e-06
1.27329e-06
1.33684e-06
1.27135e-06
1.3397e-06
1.38032e-06
1.36799e-06
1.37493e-06
1.37145e-06
1.38422e-06
1.37482e-06
1.38311e-06
1.37501e-06
1.39268e-06
1.39288e-06
1.39288e-06
1.39288e-06
1.39288e-06
1.39288e-06
0.00138115
0.00139134
0.00138584
0.00138342
0.000734407
1.69794e-05
2.03187e-06
1.42751e-06
1.39145e-06
1.37819e-06
1.3769e-06
1.39798e-06
1.39843e-06
1.38689e-06
1.3871e-06
1.39023e-06
1.39133e-06
1.3936e-06
1.38473e-06
1.39589e-06
1.39851e-06
1.396e-06
1.39556e-06
1.39734e-06
1.39829e-06
1.39642e-06
1.38436e-06
1.39653e-06
1.39606e-06
1.38683e-06
1.38602e-06
1.39711e-06
1.39569e-06
1.37358e-06
1.31349e-06
1.37249e-06
1.31716e-06
1.37238e-06
1.31105e-06
1.37633e-06
1.32372e-06
1.38022e-06
1.33525e-06
1.37747e-06
1.33728e-06
1.37996e-06
1.35568e-06
1.3765e-06
1.33927e-06
1.36964e-06
1.36126e-06
1.37104e-06
1.35977e-06
1.39002e-06
1.38891e-06
1.37632e-06
1.38022e-06
1.37684e-06
1.37671e-06
1.34649e-06
1.35019e-06
1.33704e-06
1.3367e-06
1.35021e-06
1.33753e-06
1.3431e-06
1.35493e-06
1.34861e-06
1.34121e-06
1.34058e-06
1.35543e-06
1.2567e-06
1.30553e-06
1.27814e-06
1.2952e-06
1.25597e-06
1.3031e-06
1.28296e-06
1.29343e-06
1.34305e-06
1.35409e-06
1.34177e-06
1.35559e-06
1.34931e-06
1.35301e-06
1.34955e-06
1.35837e-06
1.31702e-06
1.39992e-06
1.29938e-06
1.32768e-06
1.35127e-06
1.32609e-06
1.32495e-06
1.3998e-06
1.39912e-06
1.33198e-06
1.35956e-06
1.35355e-06
1.37025e-06
1.36138e-06
1.36263e-06
1.36219e-06
1.36332e-06
1.36204e-06
1.36957e-06
1.37218e-06
1.39288e-06
1.39288e-06
1.39288e-06
1.39288e-06
1.39288e-06
1.39288e-06
0.00137879
0.0013898
0.00138599
0.00138299
0.00101326
3.28403e-05
2.70393e-06
1.49059e-06
1.39394e-06
1.3852e-06
1.38509e-06
1.39101e-06
1.39071e-06
1.39685e-06
1.39717e-06
1.39712e-06
1.39721e-06
1.38626e-06
1.38919e-06
1.39432e-06
1.38234e-06
1.3896e-06
1.39816e-06
1.39626e-06
1.38558e-06
1.37626e-06
1.36672e-06
1.3758e-06
1.36151e-06
1.36649e-06
1.36698e-06
1.37899e-06
1.36231e-06
1.25931e-06
1.20358e-06
1.25268e-06
1.28364e-06
1.39003e-06
1.3859e-06
1.36888e-06
1.37075e-06
1.3645e-06
1.36568e-06
1.38589e-06
1.38997e-06
1.36165e-06
1.36827e-06
1.23273e-06
1.28336e-06
1.23856e-06
1.32047e-06
1.23272e-06
1.28162e-06
1.23898e-06
1.32029e-06
1.32757e-06
1.34043e-06
1.26851e-06
1.35914e-06
1.33164e-06
1.34382e-06
1.27083e-06
1.36002e-06
1.31562e-06
1.33751e-06
1.32652e-06
1.27933e-06
1.31073e-06
1.32952e-06
1.33398e-06
1.2716e-06
1.34234e-06
1.35335e-06
1.34861e-06
1.30299e-06
1.34783e-06
1.35188e-06
1.35357e-06
1.2974e-06
1.39288e-06
1.39288e-06
1.39288e-06
1.39288e-06
1.39288e-06
1.39288e-06
0.00137663
0.0013899
0.00138554
0.00138253
0.00126858
7.77991e-05
4.4325e-06
1.59985e-06
1.39619e-06
1.39776e-06
1.44459e-06
1.44485e-06
1.3969e-06
1.39703e-06
1.38573e-06
1.38601e-06
1.4031e-06
1.40147e-06
1.41701e-06
1.38825e-06
1.39878e-06
1.40455e-06
1.41378e-06
1.39274e-06
1.37736e-06
1.35281e-06
1.39182e-06
1.38164e-06
1.37402e-06
1.35937e-06
1.38852e-06
1.38516e-06
1.36031e-06
1.37714e-06
1.40167e-06
1.41114e-06
1.3661e-06
1.37403e-06
1.40478e-06
1.41686e-06
1.38591e-06
1.3064e-06
1.39011e-06
1.40536e-06
1.38359e-06
1.30386e-06
1.39205e-06
1.4067e-06
1.39288e-06
1.38337e-06
1.38118e-06
1.3433e-06
1.34477e-06
1.35708e-06
1.35961e-06
1.35671e-06
1.36673e-06
1.33349e-06
1.3451e-06
1.26969e-06
1.29162e-06
1.3073e-06
1.31233e-06
1.26463e-06
1.29113e-06
1.2932e-06
1.31306e-06
1.33704e-06
1.35938e-06
1.33206e-06
1.32406e-06
1.31195e-06
1.34541e-06
1.31435e-06
1.32991e-06
1.34492e-06
1.35618e-06
1.36637e-06
1.37076e-06
1.39288e-06
1.39288e-06
1.39288e-06
1.39288e-06
1.39288e-06
1.39288e-06
0.00137465
0.00138752
0.0013873
0.00138141
0.00137178
0.000230821
1.04432e-05
2.39316e-06
1.3672e-06
1.36399e-06
1.47856e-06
1.47844e-06
1.37944e-06
1.385e-06
1.40196e-06
1.40652e-06
1.38829e-06
1.38571e-06
1.40305e-06
1.40722e-06
1.39543e-06
1.39534e-06
1.42013e-06
1.40167e-06
1.38857e-06
1.40713e-06
1.41707e-06
1.38473e-06
1.38256e-06
1.40238e-06
1.38067e-06
1.35097e-06
1.38541e-06
1.41976e-06
1.3841e-06
1.36086e-06
1.38527e-06
1.41579e-06
1.36137e-06
1.03791e-06
1.33197e-06
1.03238e-06
1.39288e-06
1.38615e-06
1.39078e-06
1.37013e-06
1.36437e-06
1.36117e-06
1.35687e-06
1.35999e-06
1.35934e-06
1.35873e-06
1.36234e-06
1.36166e-06
1.28828e-06
1.35271e-06
1.34492e-06
1.36007e-06
1.29226e-06
1.35277e-06
1.34811e-06
1.36576e-06
1.32647e-06
1.33435e-06
1.3431e-06
1.36286e-06
1.32434e-06
1.33231e-06
1.34743e-06
1.31836e-06
1.33464e-06
1.29062e-06
1.33796e-06
1.31939e-06
1.34071e-06
1.28676e-06
1.3436e-06
1.33094e-06
1.29047e-06
1.30914e-06
1.29111e-06
1.34413e-06
1.33605e-06
1.30689e-06
1.34056e-06
1.39288e-06
1.39288e-06
1.39288e-06
1.39288e-06
1.39288e-06
0.00137068
0.00138909
0.00138175
0.00137985
0.0013751
0.00069654
4.98781e-05
3.35041e-06
3.34961e-06
8.291e-06
8.29483e-06
1.38411e-06
1.37001e-06
1.4123e-06
1.38957e-06
1.35801e-06
1.3678e-06
1.44015e-06
1.38948e-06
1.70932e-06
1.70861e-06
1.36197e-06
1.37476e-06
1.37715e-06
1.38476e-06
1.36272e-06
1.37491e-06
1.37711e-06
1.37729e-06
1.38988e-06
1.37763e-06
1.36952e-06
1.37301e-06
1.36404e-06
1.37302e-06
1.3697e-06
1.36843e-06
1.34438e-06
1.35969e-06
1.3978e-06
1.31321e-06
1.34876e-06
1.41176e-06
1.3973e-06
1.3775e-06
1.39288e-06
1.39287e-06
1.3929e-06
1.38019e-06
1.34339e-06
1.34384e-06
1.356e-06
1.33465e-06
1.36236e-06
1.33833e-06
1.24648e-06
1.31502e-06
1.28173e-06
1.24241e-06
1.25306e-06
1.31288e-06
1.27747e-06
1.24771e-06
1.31125e-06
1.3242e-06
1.3217e-06
1.34586e-06
1.3016e-06
1.32465e-06
1.3273e-06
1.34035e-06
1.29641e-06
1.36208e-06
1.33914e-06
1.32615e-06
1.29614e-06
1.36627e-06
1.33947e-06
1.32296e-06
1.37603e-06
1.39717e-06
1.3656e-06
1.39486e-06
1.39288e-06
1.39288e-06
1.39288e-06
1.39288e-06
0.00136998
0.00138317
0.00138149
0.00137742
0.00137688
0.00129081
0.000121422
0.000121379
0.00125193
0.00125197
6.92246e-06
6.9281e-06
3.76557e-05
3.76792e-05
1.45905e-06
1.3608e-06
1.57698e-06
1.40571e-06
1.45779e-06
1.35543e-06
1.57694e-06
1.40565e-06
1.67188e-06
2.82596e-06
2.08463e-06
2.04217e-06
1.67175e-06
2.83109e-06
2.08336e-06
2.04246e-06
1.38584e-06
1.39593e-06
1.37366e-06
1.37671e-06
1.37663e-06
1.39595e-06
1.37188e-06
1.37606e-06
1.40126e-06
1.40391e-06
1.35786e-06
1.38108e-06
1.3985e-06
1.39938e-06
1.34881e-06
1.38055e-06
1.39194e-06
1.39288e-06
1.39182e-06
1.38871e-06
1.34019e-06
1.34506e-06
1.34134e-06
1.3445e-06
1.34113e-06
1.34103e-06
1.30857e-06
1.30504e-06
1.24856e-06
1.27201e-06
1.31557e-06
1.30033e-06
1.25627e-06
1.2676e-06
1.34651e-06
1.34999e-06
1.33886e-06
1.33859e-06
1.28473e-06
1.30686e-06
1.3521e-06
1.34592e-06
1.33972e-06
1.33331e-06
1.28017e-06
1.30291e-06
1.3138e-06
1.32237e-06
1.31902e-06
1.33337e-06
1.35857e-06
1.36256e-06
1.32636e-06
1.3754e-06
1.33986e-06
1.37452e-06
1.30155e-06
1.38736e-06
1.39288e-06
1.39288e-06
1.39288e-06
0.00136683
0.00138665
0.00138018
0.00137946
0.00136705
0.00134925
0.000382535
0.00038282
0.001285
0.00128517
1.71238e-05
3.69429e-06
1.24175e-05
6.47621e-05
3.95526e-05
2.42321e-06
3.70161e-06
1.71892e-05
2.4217e-06
1.24237e-05
6.51764e-05
3.96225e-05
0.000693598
0.000725624
0.00028225
0.000197281
0.000693954
0.00072588
0.000283008
0.00019744
1.53821e-06
1.29114e-06
1.61481e-06
1.38412e-06
1.55167e-06
1.28949e-06
1.61465e-06
1.38411e-06
1.88405e-06
2.68138e-06
1.88216e-06
2.68218e-06
1.28811e-06
1.31806e-06
1.29603e-06
1.31728e-06
1.38211e-06
1.19123e-06
1.3844e-06
1.19119e-06
1.39288e-06
1.39194e-06
1.38967e-06
1.38626e-06
1.34382e-06
1.35025e-06
1.3352e-06
1.34168e-06
1.35207e-06
1.33524e-06
1.35907e-06
1.34037e-06
1.30163e-06
1.27988e-06
1.29346e-06
1.32997e-06
1.30748e-06
1.28648e-06
1.29015e-06
1.28276e-06
1.28409e-06
1.32453e-06
1.30123e-06
1.28775e-06
1.35996e-06
1.33397e-06
1.35326e-06
1.30837e-06
1.35412e-06
1.31284e-06
1.35236e-06
1.33261e-06
1.31098e-06
1.33396e-06
1.38058e-06
1.30664e-06
1.3628e-06
1.34161e-06
1.29948e-06
1.34911e-06
1.34591e-06
1.35131e-06
1.33837e-06
1.33431e-06
1.39288e-06
1.39288e-06
0.00136969
0.00138198
0.00138164
0.0013743
0.00131679
0.00125861
0.0012563
0.00109607
0.00109014
0.000690265
0.000693558
0.00132374
0.00132259
5.71387e-06
9.15639e-05
3.03509e-05
5.098e-06
0.000742894
0.000325953
5.73029e-06
9.20137e-05
5.06075e-06
3.03039e-05
0.000740959
0.000328481
0.000766745
0.000766469
0.000713412
0.000596121
0.00076751
0.000768221
0.000713277
0.00060228
1.92046e-06
1.37499e-06
1.93947e-06
1.3779e-06
1.39288e-06
1.39185e-06
1.38858e-06
1.3927e-06
1.37031e-06
1.34621e-06
1.34887e-06
1.34334e-06
1.34722e-06
1.26843e-06
1.29723e-06
1.28654e-06
1.31983e-06
1.27522e-06
1.28662e-06
1.29531e-06
1.31333e-06
1.32685e-06
1.29136e-06
1.3325e-06
1.28985e-06
1.34279e-06
1.31934e-06
1.32774e-06
1.29402e-06
1.32498e-06
1.30108e-06
1.3416e-06
1.31678e-06
1.27494e-06
1.32319e-06
1.30248e-06
1.3296e-06
1.29057e-06
1.33475e-06
1.32242e-06
1.34334e-06
1.3295e-06
1.35169e-06
1.34309e-06
1.36093e-06
1.38168e-06
1.34805e-06
1.36423e-06
1.38108e-06
1.38745e-06
1.36893e-06
1.3883e-06
1.39034e-06
1.39288e-06
0.00136329
0.00138464
0.00138376
0.00137287
0.00101365
0.00131364
0.00130554
0.00120189
0.00118313
0.000958153
0.000970462
0.000689789
0.00114549
0.000963078
0.000980929
0.000675255
0.00114966
0.00133494
0.00133165
0.000809111
0.000671343
0.00101271
0.000727068
0.000813335
0.000675499
0.00102164
0.000750702
1.39288e-06
1.39288e-06
1.39076e-06
1.39269e-06
1.383e-06
1.38668e-06
1.38543e-06
1.37017e-06
1.3765e-06
1.3845e-06
1.37948e-06
1.36371e-06
1.35987e-06
1.32071e-06
1.33216e-06
1.34583e-06
1.32817e-06
1.31758e-06
1.31946e-06
1.36189e-06
1.34079e-06
1.33965e-06
1.30283e-06
1.30409e-06
1.31276e-06
1.31564e-06
1.26086e-06
1.35387e-06
1.34449e-06
1.36095e-06
1.32089e-06
1.32732e-06
1.29369e-06
1.23093e-06
1.32716e-06
1.2376e-06
1.34083e-06
0.00137039
0.00138916
0.00139056
0.00130058
0.000844487
0.00117746
0.000790913
0.000787111
0.00136056
0.00135811
0.00133396
0.0013543
0.00114079
0.00105767
0.000780478
0.00124026
0.00114328
0.00107732
0.000751071
0.00124302
0.00123398
0.00128769
0.0013479
0.00129605
0.00124642
0.00128735
0.0013455
0.00129678
0.000852651
0.00073242
0.000863038
0.000760595
1.39287e-06
1.39288e-06
1.39027e-06
1.38656e-06
1.38017e-06
1.34687e-06
1.35086e-06
1.36331e-06
1.36645e-06
1.36868e-06
1.3735e-06
1.32235e-06
1.29342e-06
1.33711e-06
1.28833e-06
1.31064e-06
1.30092e-06
1.32066e-06
1.29985e-06
1.3565e-06
1.33775e-06
1.36362e-06
1.25803e-06
1.35414e-06
1.3484e-06
1.37631e-06
1.30536e-06
0.00137047
0.00139285
0.00138883
0.00120108
0.000554395
0.000948849
0.000748734
0.00063281
0.00131775
0.0012896
0.00130602
0.00132323
0.00130981
0.00127031
0.00133289
0.00129377
0.00130114
0.00131142
0.00129397
0.00125718
0.00121598
0.00128131
0.00127964
0.00112263
0.000897487
0.00130611
0.00127642
0.000976956
0.00087947
0.00131468
0.0012289
0.00129466
0.00122908
0.00128899
1.39288e-06
1.38902e-06
1.38691e-06
1.38452e-06
1.38085e-06
1.38411e-06
1.38125e-06
1.37822e-06
1.37186e-06
1.3656e-06
1.36156e-06
1.35399e-06
1.26713e-06
1.31304e-06
1.32517e-06
1.31504e-06
1.28815e-06
1.32609e-06
1.27631e-06
1.30191e-06
1.32519e-06
1.29316e-06
1.3273e-06
1.3221e-06
1.32716e-06
1.28759e-06
1.38622e-06
1.35186e-06
1.33376e-06
1.1871e-06
1.35013e-06
1.30702e-06
0.00137814
0.0013925
0.00138369
0.00127669
0.00102733
0.00135408
0.00136171
0.000378281
0.000500123
0.000808039
0.000533905
0.00131512
0.00129018
0.00127635
0.00128236
0.00120756
0.00131785
0.00131788
0.00128072
0.00125187
0.00128225
0.00118994
0.00130063
0.000893192
0.000816525
0.0010731
0.00099754
0.00128495
0.00107993
0.00128822
0.00124077
1.39162e-06
1.38998e-06
1.38748e-06
1.38798e-06
1.36278e-06
1.35697e-06
1.3644e-06
1.35898e-06
1.3501e-06
1.34722e-06
1.3089e-06
1.33801e-06
1.30458e-06
1.27368e-06
1.31871e-06
1.25923e-06
1.29465e-06
1.31299e-06
1.30741e-06
1.28584e-06
1.32661e-06
1.33433e-06
1.26957e-06
1.29312e-06
1.30656e-06
1.23562e-06
1.34409e-06
1.34458e-06
1.33558e-06
1.198e-06
1.30073e-06
1.09658e-06
1.38266e-06
1.16454e-06
0.00138626
0.00139237
0.00138317
0.00133648
0.00132891
0.00138211
0.00137544
0.000515769
0.000237008
0.000690614
0.000553463
0.000322354
0.00072905
0.00127436
0.000831116
0.000285507
0.000421376
0.000247455
0.000476008
0.00128023
0.000964108
0.00109893
0.00113784
0.0012072
0.00125217
0.000669705
0.000308757
0.00121487
0.00088629
1.38669e-06
1.39159e-06
1.38863e-06
1.38005e-06
1.37105e-06
1.37344e-06
1.36443e-06
1.3564e-06
1.35091e-06
1.34759e-06
1.3463e-06
1.27501e-06
1.26866e-06
1.32269e-06
1.33514e-06
1.28281e-06
1.32342e-06
1.27846e-06
1.28064e-06
1.32565e-06
1.26969e-06
1.32141e-06
1.32296e-06
1.26669e-06
1.19954e-06
1.25585e-06
1.28664e-06
1.27521e-06
1.29548e-06
1.30836e-06
1.22719e-06
0.00139243
0.00139073
0.00138253
0.00136434
0.00136203
0.00137044
0.0013642
0.000445685
0.000203105
0.0012299
0.00104544
0.000741052
0.00132731
0.00110578
0.00025498
0.000538376
0.000440313
0.000256703
0.000585812
0.00131434
0.00131149
0.00132538
0.00132408
0.00133753
0.00130398
0.00129414
0.00131696
0.000388134
0.00019229
0.000897336
0.000385733
1.37074e-06
1.39251e-06
1.37652e-06
1.36481e-06
1.36464e-06
1.3607e-06
1.36026e-06
1.33566e-06
1.33636e-06
1.28966e-06
1.29649e-06
1.25837e-06
1.30516e-06
1.27916e-06
1.26601e-06
1.2884e-06
1.29404e-06
1.25668e-06
1.30507e-06
1.27474e-06
1.26653e-06
1.33386e-06
1.29642e-06
1.29713e-06
1.30389e-06
1.32874e-06
1.31454e-06
1.3407e-06
1.30478e-06
0.00139164
0.00138845
0.0013756
0.0013724
0.00137169
0.00137321
0.00136288
0.00136365
0.00137575
0.00133223
0.00128657
0.00137464
0.00133911
0.00130632
0.000475309
0.000296632
0.00135602
0.00122983
0.00130568
0.00129925
0.000560584
0.000243294
0.00118005
0.000570169
0.000843397
0.000946549
0.00129522
0.00134615
0.00131856
0.00136269
1.3761e-06
1.39192e-06
1.37603e-06
1.36887e-06
1.37316e-06
1.35706e-06
1.35598e-06
1.2686e-06
1.27122e-06
1.32458e-06
1.28461e-06
1.30006e-06
1.30651e-06
1.27891e-06
1.29731e-06
1.30425e-06
1.27324e-06
1.32616e-06
1.28249e-06
1.32366e-06
1.31721e-06
1.35331e-06
1.32075e-06
1.33312e-06
1.32198e-06
1.36557e-06
1.32476e-06
1.27959e-06
1.28613e-06
1.29467e-06
1.27066e-06
0.00139047
0.00138881
0.00136308
0.00138007
0.00136424
0.00138019
0.00136883
0.00137198
0.00134452
0.00135666
0.00133145
0.00135851
0.00129907
0.00134837
0.00130918
0.00132291
0.00135387
0.00134181
0.00132826
0.00135689
0.00130124
0.00134917
0.00132012
0.00133196
0.00134183
0.00125567
0.001309
0.00133332
0.00131311
0.00133418
0.00130547
0.00133279
1.39289e-06
1.39197e-06
1.36797e-06
1.35011e-06
1.35222e-06
1.36649e-06
1.36735e-06
1.36887e-06
1.34385e-06
1.29318e-06
1.31414e-06
1.33916e-06
1.29271e-06
1.31346e-06
1.37012e-06
1.37577e-06
1.3404e-06
1.32665e-06
1.35588e-06
1.32568e-06
1.35222e-06
1.30238e-06
1.35289e-06
1.31965e-06
1.34976e-06
1.34402e-06
1.35283e-06
1.32094e-06
1.36019e-06
1.32561e-06
0.00138859
0.00138489
0.00136158
0.0013096
0.00132527
0.00137072
0.00136415
0.00130846
0.00132905
0.00136599
0.00136266
0.00136684
0.00131796
0.0013602
0.00127949
0.00129711
0.00134727
0.00137083
0.00131822
0.00129632
0.00135697
0.00130759
0.00134436
0.00136929
0.00138133
0.00114334
0.00137589
0.00129287
1.3929e-06
1.38679e-06
1.34673e-06
1.37095e-06
1.37262e-06
1.37596e-06
1.35409e-06
1.36779e-06
1.28286e-06
1.30619e-06
1.33841e-06
1.27921e-06
1.33201e-06
1.32227e-06
1.24103e-06
1.29933e-06
1.2884e-06
1.26856e-06
1.33504e-06
1.27087e-06
1.33108e-06
1.31155e-06
1.25166e-06
1.29519e-06
1.3413e-06
1.34632e-06
1.29257e-06
1.32181e-06
1.35467e-06
1.31329e-06
1.35904e-06
1.33491e-06
0.00138614
0.00135681
0.00136785
0.00137327
0.00136372
0.0013552
0.00136031
0.0012901
0.00130472
0.00134598
0.00133516
0.00134782
0.00129516
0.00131578
0.00133926
0.00136212
0.00130427
0.0012766
0.00129929
0.00130588
0.00134564
0.00133568
0.00135102
0.00129724
0.00132481
0.00134625
0.00135952
0.00130925
0.00130511
0.00126137
0.00131025
0.00137249
0.00130751
0.00127493
0.00130998
0.00137296
0.00130482
1.38686e-06
1.37923e-06
1.34608e-06
1.34196e-06
1.31511e-06
1.30403e-06
1.34828e-06
1.31585e-06
1.30013e-06
1.36186e-06
1.35579e-06
1.36123e-06
1.31405e-06
1.34214e-06
1.33374e-06
1.29841e-06
1.29166e-06
1.33884e-06
1.32328e-06
1.35687e-06
1.32907e-06
1.30153e-06
1.30801e-06
1.35411e-06
1.24929e-06
1.35647e-06
1.26261e-06
1.36682e-06
0.001387
0.00136372
0.00137364
0.00136898
0.00137755
0.00137894
0.00137988
0.00132683
0.00133542
0.00135267
0.0013104
0.00133337
0.00136291
0.00131743
0.00132086
0.0012752
0.00132458
0.00128587
0.00129861
0.00129694
0.00125399
0.00131647
0.00134364
0.00129825
0.00135519
0.00132489
0.0013542
0.00132396
0.00132056
0.00126361
0.00132754
0.00129643
0.00131054
0.00129615