/*--------------------------------*- C++ -*----------------------------------*\
| =========                 |                                                 |
| \\      /  F ield         | OpenFOAM: The Open Source CFD Toolbox           |
|  \\    /   O peration     | Version:  5.x                                   |
|   \\  /    A nd           | Web:      www.OpenFOAM.org                      |
|    \\/     M anipulation  |                                                 |
\*---------------------------------------------------------------------------*/
FoamFile
{
    version     2.0;
    format      ascii;
    class       volVectorField;
    location    "0.7";
    object      U;
}
// * * * * * * * * * * * * * * * * * * * * * * * * * * * * * * * * * * * * * //

dimensions      [0 1 -1 0 0 0 0];

internalField   nonuniform List<vector> 
12160
(
(0.211135 0 0.00202113)
(0.225912 0 0.00299241)
(0.210565 0 -0.00201045)
(0.211534 0 0.00317165)
(0.224855 0 -0.00131357)
(0.20953 0 0.00298222)
(0.210662 0 0.00252792)
(0.210773 0 0.00107789)
(0.223951 0 0.00581881)
(0.207097 0 -0.000820012)
(0.197076 0 0.0028645)
(0.210641 0 0.00310499)
(0.211499 0 0.00815139)
(0.219228 0 -0.0013643)
(0.204226 0 0.0086649)
(0.187667 0 0.00344359)
(0.197569 0 0.00591347)
(0.212239 0 0.00895947)
(0.207951 0 0.00249132)
(0.216379 0 0.0091725)
(0.198104 0 0.00569625)
(0.168434 0 0.00416836)
(0.188316 0 0.00897521)
(0.199484 0 0.0124464)
(0.211563 0 0.00698262)
(0.209107 0 0.0109925)
(0.204872 0 -0.00410362)
(0.193709 0 0.0263376)
(0.150428 0 0.0046025)
(0.169015 0 0.0117197)
(0.190013 0 0.0167084)
(0.200576 0 0.0131218)
(0.21515 0 0.0140517)
(0.201539 0 -0.00120218)
(0.199424 0 0.0100717)
(0.179459 0 0.0233256)
(0.129806 0 0.00472386)
(0.150728 0 0.0132303)
(0.170297 0 0.0207656)
(0.191636 0 0.0205958)
(0.205267 0 0.0213272)
(0.213782 0 0.00756237)
(0.204282 0 0.00703863)
(0.171064 0 -0.00989143)
(0.114767 0 0.06509)
(0.110084 0 0.00456637)
(0.129832 0 0.013705)
(0.151327 0 0.0229827)
(0.17171 0 0.0272799)
(0.195783 0 0.0311031)
(0.207124 0 0.0183914)
(0.220171 0 0.0142608)
(0.188247 0 -0.0126794)
(0.14678 0 0.00555008)
(-0.364002 0 -0.0896111)
(0.0917327 0 0.00420067)
(0.109886 0 0.0132727)
(0.129837 0 0.0235408)
(0.151934 0 0.0310096)
(0.17483 0 0.0395821)
(0.198892 0 0.0320832)
(0.214019 0 0.0264583)
(0.219494 0 0.00116767)
(0.206378 0 -0.0104215)
(-0.0149072 0 -0.0538767)
(-0.0955307 0 0.195598)
(0.0753936 0 0.00372347)
(0.091386 0 0.0122518)
(0.109419 0 0.0226422)
(0.129656 0 0.032113)
(0.153454 0 0.0440648)
(0.177261 0 0.0434105)
(0.205119 0 0.0454509)
(0.218938 0 0.0229747)
(0.263684 0 0.00452146)
(0.196359 0 -0.0587536)
(0.0886052 0 -0.212027)
(0.135874 0 -0.0391389)
(0.0612698 0 0.00321957)
(0.074969 0 0.0109226)
(0.090621 0 0.0207809)
(0.108597 0 0.0310146)
(0.129819 0 0.0449441)
(0.154189 0 0.049332)
(0.181666 0 0.0612425)
(0.212335 0 0.0478525)
(0.277157 0 0.0328068)
(0.374816 0 -0.0317675)
(0.0534515 0 -0.161256)
(0.105773 0 -0.137189)
(0.0341498 0 0.0567647)
(0.0493385 0 0.00273391)
(0.0608214 0 0.0094847)
(0.0740594 0 0.0184292)
(0.0893965 0 0.0285049)
(0.107739 0 0.0429239)
(0.129002 0 0.0503978)
(0.156002 0 0.069331)
(0.187195 0 0.0660309)
(0.280096 0 0.0625018)
(0.451571 0 0.0134129)
(0.224567 0 -0.115021)
(0.010791 0 -0.121619)
(0.0116073 0 -0.134489)
(0.065029 0 -0.0377121)
(0.0394245 0 0.00229174)
(0.0489029 0 0.00807926)
(0.059879 0 0.0159375)
(0.0726471 0 0.0252884)
(0.087921 0 0.0391261)
(0.10579 0 0.0478322)
(0.128648 0 0.0706696)
(0.158247 0 0.0728289)
(0.259682 0 0.0838874)
(0.488081 0 0.0561795)
(0.385507 0 -0.0231329)
(0.00500411 0 -0.154276)
(-0.00614525 0 -0.117238)
(0.0469132 0 -0.122084)
(-0.00829446 0 -0.0102195)
(0.0312794 0 0.00190479)
(0.0390236 0 0.00678811)
(0.0479992 0 0.0135313)
(0.058435 0 0.021867)
(0.0708801 0 0.0344923)
(0.085339 0 0.0432106)
(0.104021 0 0.067198)
(0.128092 0 0.0712307)
(0.236419 0 0.0926324)
(0.487102 0 0.0889899)
(0.449203 0 0.035575)
(-0.00954524 0 -0.0829985)
(-0.0268342 0 -0.115296)
(-0.000876099 0 -0.102687)
(-0.014035 0 -0.11758)
(0.0246353 0 0.00157619)
(0.030924 0 0.00565133)
(0.0381989 0 0.0113381)
(0.0466242 0 0.0185598)
(0.0566026 0 0.0296745)
(0.068057 0 0.0377356)
(0.0828813 0 0.0610426)
(0.101453 0 0.0645863)
(0.212067 0 0.0924198)
(0.464393 0 0.101938)
(0.432354 0 0.0936319)
(0.0103291 0 0.0347619)
(-0.0687537 0 -0.0461006)
(-0.0212479 0 -0.115046)
(-0.00216905 0 -0.100788)
(0.0192292 0 0.00130398)
(0.0243295 0 0.00468213)
(0.0301981 0 0.0094178)
(0.0369499 0 0.0155456)
(0.0448681 0 0.0250774)
(0.0538043 0 0.0321811)
(0.0654002 0 0.0536821)
(0.0790876 0 0.0559623)
(0.191677 0 0.0861627)
(0.432417 0 0.100289)
(0.342529 0 0.126417)
(0.0111348 0 0.133251)
(-0.0682664 0 0.0281228)
(-0.046462 0 -0.0486482)
(-0.00610313 0 -0.104854)
(0.0148223 0 0.0010842)
(0.0189734 0 0.00387712)
(0.0237089 0 0.00778741)
(0.0291023 0 0.0129073)
(0.0353497 0 0.0209227)
(0.0422567 0 0.0269885)
(0.051235 0 0.0461026)
(0.0609933 0 0.0470766)
(0.175211 0 0.0770696)
(0.392842 0 0.0918792)
(0.229221 0 0.136902)
(0.0153776 0 0.171733)
(-0.0487112 0 0.107608)
(-0.0478529 0 0.0283095)
(-0.0158271 0 -0.043014)
(0.011202 0 0.000911798)
(0.0146145 0 0.00322623)
(0.0184567 0 0.00643781)
(0.0227742 0 0.010668)
(0.0276962 0 0.0173082)
(0.033012 0 0.0223745)
(0.0399213 0 0.0389005)
(0.0466716 0 0.0388388)
(0.161887 0 0.0669477)
(0.341309 0 0.0808123)
(0.147675 0 0.13433)
(0.026793 0 0.160861)
(-0.0166728 0 0.144064)
(-0.0337529 0 0.1011)
(-0.0153503 0 0.0261519)
(0.00818186 0 0.000781749)
(0.0110386 0 0.00271483)
(0.0141954 0 0.00534923)
(0.0176794 0 0.00881527)
(0.0215735 0 0.0142551)
(0.0256681 0 0.0184152)
(0.0309705 0 0.0324039)
(0.0355163 0 0.031635)
(0.151082 0 0.0569147)
(0.282586 0 0.0697347)
(0.0983419 0 0.126464)
(0.0313213 0 0.138565)
(0.00519986 0 0.148242)
(-0.0109308 0 0.134995)
(-0.0103952 0 0.0942028)
(0.00560234 0 0.000689223)
(0.00805907 0 0.00232962)
(0.0107094 0 0.00449577)
(0.0135657 0 0.00732159)
(0.0166801 0 0.0117396)
(0.0198589 0 0.0151072)
(0.0239317 0 0.0267575)
(0.0269232 0 0.0255644)
(0.142254 0 0.0476085)
(0.221428 0 0.0596083)
(0.0688472 0 0.115077)
(0.0302821 0 0.119341)
(0.015793 0 0.136737)
(0.00322215 0 0.141965)
(-0.00286607 0 0.128157)
(0.00332455 0 0.000631557)
(0.00551702 0 0.00205709)
(0.0078121 0 0.00385318)
(0.0102155 0 0.00615104)
(0.0127559 0 0.00971831)
(0.0152643 0 0.0124049)
(0.0184132 0 0.0219922)
(0.0203506 0 0.0205748)
(0.134868 0 0.0393527)
(0.164431 0 0.0504527)
(0.0504841 0 0.10077)
(0.0286507 0 0.102786)
(0.0190792 0 0.121998)
(0.0102336 0 0.134066)
(0.00175171 0 0.137852)
(0.00122848 0 0.000604988)
(0.0032749 0 0.00188514)
(0.00534638 0 0.00339788)
(0.00744268 0 0.00526979)
(0.00958012 0 0.00813888)
(0.0116157 0 0.0102475)
(0.0140842 0 0.0180702)
(0.0153411 0 0.0165514)
(0.128422 0 0.032266)
(0.117657 0 0.042282)
(0.0387321 0 0.0839336)
(0.0272311 0 0.0879093)
(0.0197116 0 0.106966)
(0.012396 0 0.121148)
(0.00405662 0 0.132229)
(-0.000789611 0 0.000607324)
(0.00121361 0 0.00180514)
(0.00317632 0 0.00311114)
(0.00509182 0 0.00464547)
(0.00696755 0 0.0069517)
(0.00869024 0 0.00856971)
(0.0106732 0 0.0149219)
(0.0115208 0 0.0133592)
(0.12233 0 0.0263496)
(0.0807559 0 0.0354728)
(0.0305891 0 0.0672803)
(0.0254948 0 0.074074)
(0.019256 0 0.0919356)
(0.0127099 0 0.106747)
(0.00468805 0 0.120643)
(-0.00282465 0 0.000637366)
(-0.000770017 0 0.00181165)
(0.00118438 0 0.00297754)
(0.00302944 0 0.00425205)
(0.00476458 0 0.00611134)
(0.00630444 0 0.0073127)
(0.00795888 0 0.0124644)
(0.00859406 0 0.0108694)
(0.11593 0 0.0215232)
(0.0546949 0 0.030026)
(0.0250332 0 0.0522139)
(0.022955 0 0.0614448)
(0.0181053 0 0.077259)
(0.0122291 0 0.0921167)
(0.00468216 0 0.106779)
(-0.00496665 0 0.000695055)
(-0.00277038 0 0.00190126)
(-0.000730927 0 0.00298777)
(0.00114084 0 0.00406876)
(0.00284088 0 0.00558118)
(0.00430853 0 0.00642478)
(0.00576189 0 0.010618)
(0.00632879 0 0.00896787)
(0.108416 0 0.0176761)
(0.0370819 0 0.0263293)
(0.0199233 0 0.0398685)
(0.0196187 0 0.0505827)
(0.0162895 0 0.0636507)
(0.0113352 0 0.0779214)
(0.00440003 0 0.0923828)
(-0.00729738 0 0.000781693)
(-0.00487697 0 0.00207363)
(-0.00266261 0 0.00313605)
(-0.000673004 0 0.00408304)
(0.00108528 0 0.00533243)
(0.00257686 0 0.00586542)
(0.00393699 0 0.00931176)
(0.00454407 0 0.00756123)
(0.0988192 0 0.0146944)
(0.0252172 0 0.0245746)
(0.014906 0 0.0307109)
(0.0158246 0 0.0416131)
(0.0139143 0 0.0517986)
(0.0100945 0 0.0647985)
(0.00399643 0 0.0783325)
(-0.0098986 0 0.000897159)
(-0.00717119 0 0.00232888)
(-0.00469858 0 0.00342178)
(-0.00250253 0 0.00428686)
(-0.000597762 0 0.00534753)
(0.00100397 0 0.00560363)
(0.00236376 0 0.00848737)
(0.00309846 0 0.006576)
(0.0860036 0 0.0124779)
(0.0172325 0 0.0249259)
(0.0100432 0 0.0245921)
(0.0120127 0 0.0347178)
(0.0112248 0 0.0421205)
(0.00857795 0 0.0533409)
(0.00350505 0 0.0652973)
(-0.0128486 0 0.00104165)
(-0.00973391 0 0.00266973)
(-0.00691874 0 0.00384658)
(-0.00443297 0 0.0046793)
(-0.00229538 0 0.00561586)
(-0.000500106 0 0.0056205)
(0.000941787 0 0.00809897)
(0.00187721 0 0.00595558)
(0.0688901 0 0.0109176)
(0.011609 0 0.0268447)
(0.00563492 0 0.0207293)
(0.00848961 0 0.0299127)
(0.00852191 0 0.0347152)
(0.00691793 0 0.0439122)
(0.00294584 0 0.0538665)
(-0.0162233 0 0.0012163)
(-0.0126427 0 0.00309859)
(-0.00940279 0 0.00441374)
(-0.0065422 0 0.00526225)
(-0.0040894 0 0.00613578)
(-0.00201711 0 0.00590495)
(-0.000414108 0 0.00811762)
(0.000789123 0 0.00566065)
(0.0470133 0 0.00995426)
(0.00762477 0 0.029589)
(0.00204321 0 0.0184843)
(0.00543446 0 0.0272956)
(0.00598045 0 0.029402)
(0.00526701 0 0.0366513)
(0.00235682 0 0.0444126)
(-0.0200959 0 0.00142164)
(-0.0159735 0 0.00361663)
(-0.0122274 0 0.00512694)
(-0.00890805 0 0.00604045)
(-0.00605502 0 0.00691053)
(-0.00362352 0 0.00645535)
(-0.00178115 0 0.00852823)
(-0.000239413 0 0.00566765)
(0.0212342 0 0.00951188)
(0.00450855 0 0.0332319)
(-0.000429743 0 0.0175948)
(0.00293737 0 0.0264905)
(0.00369307 0 0.025868)
(0.00373309 0 0.0313995)
(0.00178619 0 0.0370671)
(-0.0245353 0 0.00165787)
(-0.0197998 0 0.00422516)
(-0.0154684 0 0.00598986)
(-0.0116064 0 0.00701947)
(-0.00826792 0 0.00794761)
(-0.00539022 0 0.00727571)
(-0.00323142 0 0.00932642)
(-0.00127593 0 0.00596482)
(-0.00618068 0 0.00952224)
(0.00180575 0 0.0361649)
(-0.00144109 0 0.0175392)
(0.00113241 0 0.0270098)
(0.00182885 0 0.0238114)
(0.00238006 0 0.0280159)
(0.00126002 0 0.0317217)
(-0.0296063 0 0.00192489)
(-0.024192 0 0.00492444)
(-0.0192006 0 0.00700568)
(-0.0147133 0 0.00820479)
(-0.010803 0 0.00925605)
(-0.00738963 0 0.00837499)
(-0.00483215 0 0.0105188)
(-0.00238318 0 0.00655066)
(-0.0323368 0 0.00997693)
(-0.000823553 0 0.0369375)
(-0.00122463 0 0.0176788)
(9.63354e-05 0 0.0282035)
(0.000486726 0 0.0228798)
(0.00126783 0 0.0261755)
(0.000802488 0 0.0281851)
(-0.0353671 0 0.00222163)
(-0.0292165 0 0.00571316)
(-0.0234963 0 0.00817585)
(-0.0183046 0 0.00960135)
(-0.0137366 0 0.0108453)
(-0.00969507 0 0.0097648)
(-0.00665261 0 0.012119)
(-0.00361969 0 0.00743334)
(-0.054944 0 0.0108859)
(-0.00358815 0 0.035313)
(-0.000295877 0 0.0178494)
(-0.000320305 0 0.0293393)
(-0.000222844 0 0.0226754)
(0.000476457 0 0.0255279)
(0.00043332 0 0.0261273)
(-0.0418664 0 0.00254563)
(-0.0349336 0 0.00658687)
(-0.0284246 0 0.00949901)
(-0.022455 0 0.0112115)
(-0.0171458 0 0.0127242)
(-0.0123823 0 0.0114582)
(-0.0087637 0 0.0141424)
(-0.00505101 0 0.00863036)
(-0.0729831 0 0.0122805)
(-0.00659445 0 0.0323004)
(0.000362136 0 0.0179896)
(-0.000473254 0 0.029752)
(-0.00038948 0 0.0227816)
(2.63138e-05 0 0.0255915)
(0.000158355 0 0.0252127)
(-0.0491421 0 0.0028929)
(-0.0413941 0 0.00753728)
(-0.0340488 0 0.0109687)
(-0.027237 0 0.0130336)
(-0.0211083 0 0.0148978)
(-0.0155298 0 0.0134686)
(-0.0112395 0 0.0166054)
(-0.00674752 0 0.0101647)
(-0.0867046 0 0.0141684)
(-0.0102339 0 0.0296265)
(-5.03327e-05 0 0.0182798)
(-0.000757737 0 0.0293528)
(-0.000293368 0 0.0229708)
(-0.000155139 0 0.0259053)
(-5.7896e-08 0 0.0250082)
(-0.0572074 0 0.00325758)
(-0.0486379 0 0.00855087)
(-0.0404236 0 0.0125723)
(-0.0327187 0 0.0150589)
(-0.0257009 0 0.0173659)
(-0.0192181 0 0.0158066)
(-0.0141576 0 0.0195229)
(-0.0087842 0 0.0120638)
(-0.0970173 0 0.0165824)
(-0.0147491 0 0.027516)
(-0.00167306 0 0.0188687)
(-0.00150797 0 0.0285471)
(-0.000305921 0 0.0232068)
(-0.000218452 0 0.026147)
(-5.94045e-05 0 0.0251325)
(-0.0660781 0 0.00363174)
(-0.0566814 0 0.0096086)
(-0.0475942 0 0.0142887)
(-0.0389611 0 0.0172702)
(-0.030998 0 0.0201189)
(-0.0235293 0 0.0184779)
(-0.0175992 0 0.0229036)
(-0.0112435 0 0.0143595)
(-0.104913 0 0.0195487)
(-0.0205462 0 0.0263533)
(-0.00444927 0 0.0204472)
(-0.00290884 0 0.0280434)
(-0.000737748 0 0.0236458)
(-0.000336644 0 0.0262748)
(-7.08559e-05 0 0.0253385)
(-0.0756307 0 0.00400578)
(-0.0655437 0 0.0106852)
(-0.0555829 0 0.0160879)
(-0.046017 0 0.0196386)
(-0.0370688 0 0.0231363)
(-0.0285456 0 0.02148)
(-0.0216487 0 0.0267468)
(-0.0142155 0 0.0170848)
(-0.111222 0 0.0230867)
(-0.0281429 0 0.0265895)
(-0.0080808 0 0.0232189)
(-0.00495032 0 0.0283704)
(-0.00172828 0 0.0245464)
(-0.000659991 0 0.0264766)
(-0.000103913 0 0.0255973)
(-0.0751038 0 0.0117504)
(-0.0930225 0 0.00460943)
(-0.0644157 0 0.0179294)
(-0.0539183 0 0.0221233)
(-0.0439766 0 0.0263825)
(-0.034347 0 0.024799)
(-0.0263927 0 0.0310382)
(-0.0177982 0 0.0202716)
(-0.116587 0 0.0272135)
(-0.0383593 0 0.0283475)
(-0.0122778 0 0.0271764)
(-0.00749292 0 0.0298375)
(-0.00323285 0 0.0262178)
(-0.0012657 0 0.0271102)
(-0.000214603 0 0.0260518)
(-0.0739774 0 0.0197634)
(-0.0925637 0 0.0134391)
(-0.119437 0 0.00526726)
(-0.0627026 0 0.0246685)
(-0.0517662 0 0.0298055)
(-0.0410103 0 0.0284054)
(-0.0319189 0 0.0357461)
(-0.0220961 0 0.0239473)
(-0.12148 0 0.0319385)
(-0.05193 0 0.0314164)
(-0.0167181 0 0.0327064)
(-0.0103999 0 0.0327842)
(-0.00513382 0 0.0288744)
(-0.00216475 0 0.0285125)
(-0.000428337 0 0.0269798)
(-0.072261 0 0.0272063)
(-0.0915436 0 0.0227031)
(-0.119193 0 0.0152563)
(-0.14664 0 0.00548423)
(-0.0604887 0 0.0333333)
(-0.0485978 0 0.0322519)
(-0.0383145 0 0.0408163)
(-0.02722 0 0.0281309)
(-0.126247 0 0.0372571)
(-0.069707 0 0.0355748)
(-0.0212129 0 0.0401123)
(-0.0135544 0 0.0371869)
(-0.0073178 0 0.0326315)
(-0.00328258 0 0.0309419)
(-0.000725249 0 0.0286574)
(-0.0700535 0 0.0368745)
(-0.089966 0 0.0312615)
(-0.118537 0 0.0259821)
(-0.146839 0 0.0158751)
(-0.17108 0 0.00501386)
(-0.0571832 0 0.0362675)
(-0.045657 0 0.0461711)
(-0.0332829 0 0.0328268)
(-0.131153 0 0.0431442)
(-0.0924712 0 0.0405707)
(-0.025642 0 0.0493388)
(-0.016856 0 0.0429516)
(-0.00962924 0 0.0375933)
(-0.0045498 0 0.034567)
(-0.00111037 0 0.0313125)
(-0.0666971 0 0.0403594)
(-0.0879619 0 0.0425751)
(-0.117464 0 0.0357968)
(-0.146871 0 0.0273527)
(-0.172521 0 0.0147247)
(-0.191165 0 0.00203095)
(-0.0540369 0 0.0517034)
(-0.0403927 0 0.0380201)
(-0.136395 0 0.0495426)
(-0.120154 0 0.0462209)
(-0.0300224 0 0.0601703)
(-0.0201823 0 0.0499297)
(-0.0120286 0 0.0437855)
(-0.00593536 0 0.0394306)
(-0.00155292 0 0.035086)
(-0.0634314 0 0.057299)
(-0.0847311 0 0.0470158)
(-0.116169 0 0.04926)
(-0.146769 0 0.0376678)
(-0.173617 0 0.0261665)
(-0.195343 0 0.00995131)
(-0.203392 0 -0.00579421)
(-0.0486574 0 0.0436695)
(-0.142082 0 0.0563708)
(-0.151784 0 0.0525871)
(-0.0349585 0 0.0720715)
(-0.0233422 0 0.0579417)
(-0.0144134 0 0.0512174)
(-0.0073884 0 0.0455314)
(-0.00203577 0 0.0400657)
(-0.0581801 0 0.049754)
(-0.0815061 0 0.0661493)
(-0.11362 0 0.0550921)
(-0.146808 0 0.0526122)
(-0.174987 0 0.0360336)
(-0.197342 0 0.0216748)
(-0.216686 0 -0.00158822)
(-0.15341 0 -0.0141777)
(-0.148316 0 0.0635425)
(-0.188019 0 0.0592991)
(-0.0411498 0 0.0847537)
(-0.0261823 0 0.066878)
(-0.0166597 0 0.0598107)
(-0.0088473 0 0.0528474)
(-0.00254072 0 0.0462508)
(-0.155445 0 0.0710744)
(-0.0767721 0 0.0599511)
(-0.111032 0 0.0767942)
(-0.145706 0 0.0593564)
(-0.17681 0 0.0516346)
(-0.200803 0 0.030419)
(-0.217225 0 0.0141965)
(-0.223953 0 -0.0191677)
(-0.190698 0 -0.0710166)
(-0.228841 0 0.0662565)
(-0.0485662 0 0.0983835)
(-0.0285753 0 0.0766797)
(-0.0186615 0 0.0693852)
(-0.0102569 0 0.0612612)
(-0.00304817 0 0.0536083)
(-0.270949 0 0.0776217)
(-0.170765 0 0.0826529)
(-0.107697 0 0.0741755)
(-0.144764 0 0.0825387)
(-0.177617 0 0.0583628)
(-0.204356 0 0.0463416)
(-0.224008 0 0.0211549)
(-0.231131 0 0.00313223)
(-0.283514 0 -0.0959932)
(0.166259 0 0.0582116)
(-0.0584652 0 0.112606)
(-0.0304347 0 0.0871193)
(-0.0202787 0 0.0797562)
(-0.0115395 0 0.0706058)
(-0.00354096 0 0.0620059)
(-0.0682941 0 0.129651)
(-0.346089 0 0.0858353)
(-0.191405 0 0.0975619)
(-0.143852 0 0.0843875)
(-0.178943 0 0.0816736)
(-0.206897 0 0.0521175)
(-0.228305 0 0.0385113)
(-0.247172 0 0.008227)
(-0.291563 0 -0.0341955)
(-0.247328 0 0.00654273)
(-0.301356 0 0.225638)
(-0.031582 0 0.0981671)
(-0.0214114 0 0.0906683)
(-0.0126062 0 0.0806524)
(-0.00400356 0 0.0712917)
(-0.0298602 0 0.1104)
(-0.0949369 0 0.131141)
(-0.394125 0 0.104163)
(-0.21732 0 0.106941)
(-0.181164 0 0.0870744)
(-0.210166 0 0.0740417)
(-0.231348 0 0.0425975)
(-0.250426 0 0.0318879)
(-0.296516 0 -0.0152041)
(-0.314691 0 0.0543683)
(-0.35501 0 0.0718867)
(-0.167534 0 0.944123)
(-0.021831 0 0.101869)
(-0.0133827 0 0.0911091)
(-0.004398 0 0.0812082)
(-0.0206584 0 0.112991)
(-0.0293311 0 0.12407)
(-0.160413 0 0.137817)
(-0.42412 0 0.115407)
(-0.244075 0 0.108035)
(-0.215558 0 0.0804574)
(-0.235063 0 0.0620741)
(-0.251993 0 0.0337722)
(-0.284916 0 0.0305825)
(-0.335499 0 0.0540045)
(-0.413031 0 0.204376)
(-0.239911 0 0.805342)
(-0.0906407 4.34066e-28 0.849297)
(-0.0328597 0 0.947018)
(-0.0137085 0 0.101669)
(-0.00470778 0 0.0914526)
(-0.0132992 0 0.111862)
(-0.0190661 0 0.126499)
(-0.0313988 0 0.148636)
(-0.267984 0 0.135608)
(-0.438062 0 0.11624)
(-0.267614 0 0.100638)
(-0.242601 0 0.0658488)
(-0.252437 0 0.0510369)
(-0.27159 0 0.0318574)
(-0.308258 0 0.0810625)
(-0.389795 0 0.163802)
(-0.324933 0 0.651615)
(-0.12444 9.56341e-28 0.758708)
(0.0179412 -9.31842e-31 0.832888)
(-0.0430471 -2.42052e-28 0.88483)
(-0.0209259 0 0.910738)
(-0.00487628 0 0.101686)
(-0.00484336 0 0.111411)
(-0.0125534 0 0.125935)
(-0.0155697 0 0.145421)
(-0.0278428 0 0.173023)
(-0.378858 0 0.120973)
(-0.442369 0 0.103936)
(-0.283523 0 0.0857382)
(-0.258926 0 0.0467487)
(-0.258584 0 0.0471964)
(-0.274389 0 0.0661836)
(-0.311201 0 0.164459)
(-0.299781 0 0.48448)
(-0.099746 0 0.627679)
(0.0267709 0 0.737075)
(0.0982061 3.23001e-27 0.866835)
(0.00874967 2.37097e-31 0.886453)
(-0.0361434 -7.61267e-28 0.898717)
(-0.0127901 0 0.89915)
(-0.00472219 0 0.125535)
(-0.0102056 0 0.143081)
(-0.00359352 0 0.156963)
(-0.0267329 0 0.173672)
(-0.444899 0 0.0963586)
(-0.435393 0 0.0776445)
(-0.286689 0 0.0648708)
(-0.259302 0 0.0328916)
(-0.247087 0 0.0642486)
(-0.252692 0 0.122043)
(-0.234164 0 0.353006)
(-0.0666127 0 0.459686)
(0.0286877 0 0.607997)
(0.127797 2.10591e-26 0.768361)
(0.223997 -8.46525e-31 0.923633)
(0.0592578 -1.47521e-27 0.935008)
(-0.015407 0 0.917712)
(-0.0364326 0 0.893657)
(-0.0217488 0 0.855389)
(-0.00404946 0 0.141354)
(-0.00227002 0 0.15141)
(0.018006 0 0.147865)
(-0.0351634 0 0.136723)
(-0.466254 0 0.059467)
(-0.412231 0 0.0432353)
(-0.275204 0 0.0436838)
(-0.239638 0 0.0311141)
(-0.212857 0 0.0988859)
(-0.166996 0 0.230088)
(-0.0436252 0 0.333151)
(0.0376696 -4.12386e-27 0.474899)
(0.156097 1.87191e-26 0.660296)
(0.287041 0 0.816041)
(0.309033 2.83898e-25 1.01096)
(0.131728 5.46154e-31 0.999837)
(0.00369772 -1.90821e-26 0.965404)
(-0.052705 0 0.917726)
(-0.0513213 0 0.868786)
(-0.0205594 0 0.832825)
(-0.00143242 0 0.147434)
(0.0125046 0 0.141154)
(0.0429026 0 0.114485)
(-0.0326122 0 0.0733304)
(-0.445385 0 0.0170978)
(-0.373 0 0.00685636)
(-0.24295 0 0.02941)
(-0.192896 0 0.0353059)
(-0.129043 0 0.15597)
(-0.0355286 0 0.214072)
(0.0518225 -7.31148e-27 0.376372)
(0.176533 0 0.514996)
(0.337067 -1.70298e-25 0.667482)
(0.404084 -5.64733e-25 0.880873)
(0.4689 9.37283e-11 1.049)
(0.190917 0 1.08185)
(0.0253591 0 1.05085)
(-0.0528863 -4.24709e-26 0.965729)
(-0.0798868 6.15708e-27 0.898781)
(-0.0699571 0 0.841375)
(-0.0317477 0 0.77118)
(0.00354456 0 0.135058)
(0.0311427 0 0.107491)
(0.0645487 0 0.0584307)
(-0.0112312 0 -0.00200242)
(-0.385258 0 -0.0244045)
(-0.310187 0 -0.0274896)
(-0.191238 0 0.0206171)
(-0.111802 0 0.0550056)
(-0.0301933 0 0.1425)
(0.0655606 -2.35199e-42 0.25802)
(0.18942 0 0.37784)
(0.371764 2.87213e-25 0.504279)
(0.460266 -1.73154e-24 0.740144)
(0.656152 -1.49213e-09 0.927879)
(0.259943 4.65565e-09 0.571787)
(0.278313 1.7409e-10 1.02467)
(0.259553 1.97331e-09 0.557977)
(0.498888 3.86403e-09 0.654637)
(0.553822 -1.0319e-10 0.675004)
(0.0449386 4.76128e-25 1.11056)
(-0.0726608 1.5797e-25 1.04517)
(-0.106574 -2.73438e-26 0.944472)
(-0.112534 1.44241e-26 0.867177)
(-0.0908466 0 0.788188)
(-0.0346482 0 0.719805)
(0.0098205 0 0.100621)
(0.0469241 0 0.0525132)
(0.0802952 0 -0.00875739)
(0.020362 0 -0.0859511)
(-0.285485 0 -0.0721703)
(-0.229961 0 -0.0552045)
(-0.119458 0 0.0205557)
(-0.0282398 0 0.0371931)
(0.0695088 -2.06895e-42 0.171939)
(0.193739 0 0.229542)
(0.373245 0 0.389124)
(0.482711 1.46944e-24 0.551645)
(0.739698 -1.23239e-24 0.751082)
(0.688848 -3.01289e-10 0.637421)
(0.157532 7.97572e-09 0.594128)
(0.419928 -1.4662e-09 0.266692)
(0.016344 -8.45535e-10 1.01504)
(0.139361 5.85514e-09 0.560131)
(0.127554 8.69645e-09 0.629957)
(0.0999052 6.64633e-09 0.61701)
(0.336612 -5.72829e-09 0.152653)
(0.535613 -1.52153e-09 0.350737)
(0.508616 -6.64121e-09 0.342596)
(-0.100724 1.5611e-24 1.1031)
(-0.151007 -2.59437e-25 1.01747)
(-0.153787 0 0.915212)
(-0.152983 7.80708e-27 0.820971)
(-0.107389 0 0.72957)
(-0.0404993 0 0.646978)
(0.0152606 0 0.0472562)
(0.0556997 0 -0.0130295)
(0.0891149 0 -0.0722634)
(0.049092 0 -0.167306)
(-0.152347 0 -0.116933)
(-0.134749 0 -0.0754302)
(-0.0465891 0 0.00444562)
(0.0674613 -3.45088e-27 0.0425223)
(0.188843 3.4349e-27 0.134533)
(0.35707 1.03518e-25 0.258952)
(0.484754 0 0.36888)
(0.779324 -7.77863e-25 0.579407)
(0.782458 -4.6995e-09 0.583264)
(0.50139 -7.58857e-09 0.121692)
(0.505309 -3.2388e-09 0.105663)
(0.736698 -1.78816e-09 0.185154)
(0.747904 -2.11501e-09 0.182001)
(0.33556 -3.06249e-10 0.228025)
(0.0148735 -1.06473e-08 -0.346187)
(-0.0862382 6.80049e-25 0.949966)
(-0.0783875 -2.96987e-10 0.0738458)
(0.246886 -2.95714e-09 0.115351)
(0.219303 5.55421e-09 0.0205322)
(0.154446 5.24378e-09 -0.14809)
(-0.0495409 -1.30395e-08 -0.44142)
(0.0987336 -1.23359e-08 -0.215108)
(0.113005 -1.39988e-08 -0.251827)
(-0.190832 3.74419e-25 1.05689)
(-0.206415 0 0.981023)
(-0.220696 0 0.868792)
(-0.184859 7.8862e-27 0.751208)
(-0.121828 0 0.656901)
(-0.0434028 0 0.574316)
(0.018799 0 -0.0150808)
(0.0571318 0 -0.0796228)
(0.0946002 0 -0.124382)
(0.0644906 0 -0.243534)
(-0.00639256 0 -0.162976)
(-0.0340679 0 -0.0972594)
(0.0369884 0 -0.00231682)
(0.175961 3.6299e-27 0.00443246)
(0.319838 0 0.162385)
(0.465707 2.34029e-25 0.192873)
(0.726212 2.30058e-24 0.406964)
(0.850919 -2.29562e-09 0.472957)
(0.81465 -1.08632e-09 0.293299)
(0.818993 -6.3882e-10 0.291472)
(0.944488 3.41549e-10 0.298225)
(0.945761 -1.18499e-10 0.298146)
(0.182086 -6.53605e-09 -0.62166)
(0.197022 -2.60202e-10 -0.607252)
(0.566908 -2.79447e-09 -0.361858)
(0.588085 -1.74403e-09 -0.350647)
(-0.233148 -2.61567e-09 -0.57114)
(0.42233 2.09556e-08 -0.856642)
(-0.531851 4.35309e-08 -0.850164)
(0.404553 1.50098e-08 -0.804052)
(-0.422254 5.06159e-09 -0.760956)
(-0.236916 3.64906e-24 0.87845)
(-0.24007 -1.36289e-09 0.108193)
(-0.199716 -1.55104e-09 -0.826801)
(-0.191578 -1.58443e-09 -0.830925)
(-0.206194 -1.96951e-09 -0.759568)
(-0.215158 -1.6996e-09 -0.777996)
(-0.263803 -6.32093e-09 -0.637632)
(-0.202367 3.41438e-09 -0.726949)
(-0.20466 -2.3631e-09 -0.745504)
(0.40349 -1.41795e-08 -0.892146)
(-0.523618 -2.4148e-08 -0.851718)
(0.375238 -8.68758e-09 -0.866203)
(-0.414051 -5.37435e-09 -0.76471)
(0.393188 2.45455e-08 -0.881422)
(-0.217277 4.07e-08 -0.45211)
(0.276861 2.47519e-08 -0.855961)
(-0.421108 4.08743e-09 -0.611174)
(0.395303 -1.53274e-08 -0.901925)
(-0.18794 -2.10293e-08 -0.437688)
(0.283458 -8.08629e-09 -0.851258)
(-0.383178 -4.36953e-09 -0.613696)
(-0.278125 0 1.00616)
(-0.297145 -8.11538e-26 0.925329)
(-0.273678 0 0.789728)
(-0.207276 7.60109e-27 0.675874)
(-0.131434 0 0.581309)
(-0.0465702 0 0.493032)
(0.0202587 0 -0.0787101)
(0.0559904 0 -0.142183)
(0.0894941 0 -0.171253)
(0.0796763 0 -0.288867)
(0.12866 0 -0.203678)
(0.0886056 0 -0.120343)
(0.1318 0 -0.0332254)
(0.283599 0 -0.00559176)
(0.469237 3.24015e-25 0.0862121)
(0.663965 1.47615e-24 0.170001)
(0.961669 -6.5712e-10 0.368482)
(0.976611 1.3388e-09 0.302107)
(0.977409 5.43944e-11 0.30041)
(1.04723 2.84095e-09 0.26478)
(1.04638 2.55786e-10 0.262495)
(0.61547 -6.44748e-09 -0.171285)
(0.625588 -3.41892e-10 -0.15317)
(0.83279 -7.60872e-09 -0.0223458)
(0.839265 2.58365e-09 -0.0213436)
(-0.418766 4.77586e-09 -0.933729)
(-0.24538 2.12316e-09 -0.532788)
(0.460672 5.20233e-09 -0.672064)
(-0.434341 3.65597e-09 -0.99795)
(0.556362 3.74791e-09 -0.66856)
(0.0962431 1.57581e-09 -1.14162)
(-0.220443 -1.46193e-09 -0.522682)
(-0.402972 -2.495e-09 -0.939779)
(0.476298 -6.06383e-09 -0.66863)
(-0.416403 -2.322e-09 -1.01233)
(0.571052 -4.40965e-09 -0.663356)
(0.109391 -2.68859e-09 -1.14332)
(-0.370099 3.63418e-09 -0.890264)
(0.743479 4.8118e-09 -0.509216)
(-0.429539 3.09885e-09 -0.986184)
(0.746518 4.40132e-09 -0.591147)
(-0.334306 -2.5683e-09 -0.890903)
(0.762044 -3.54162e-09 -0.506168)
(-0.405662 -2.49264e-09 -0.999344)
(0.76651 -4.01984e-09 -0.591268)
(0.381854 2.10122e-08 -0.789732)
(-0.673844 4.46955e-08 -0.909217)
(0.394435 1.49515e-08 -0.823135)
(-0.679446 5.65915e-09 -0.941532)
(0.00384029 1.09077e-08 -1.06776)
(-0.299443 8.86445e-09 -0.869812)
(-0.0324051 1.20397e-08 -1.02051)
(-0.265854 5.63675e-09 -0.78084)
(-0.381427 3.60113e-25 0.827333)
(-0.387503 -1.15075e-09 0.0825582)
(-0.106551 -4.26711e-09 -0.880824)
(-0.134684 -4.28036e-09 -0.912404)
(-0.147492 -3.34809e-09 -0.87033)
(-0.143033 -3.26971e-09 -0.888841)
(-0.351256 -2.12656e-09 -1.04497)
(-0.330456 -2.13716e-09 -1.06577)
(-0.340155 5.98219e-09 -1.06172)
(-0.31143 -9.21572e-09 -1.08154)
(0.36002 -1.36929e-08 -0.844133)
(-0.621791 -2.43619e-08 -0.900385)
(0.371123 -7.43547e-09 -0.878611)
(-0.651847 -5.93032e-09 -0.940528)
(0.392362 2.82613e-08 -0.798349)
(-0.584538 5.70608e-08 -1.1439)
(0.467278 3.19368e-08 -0.500358)
(-0.628542 7.47482e-09 -0.98192)
(0.37686 -1.96421e-08 -0.841675)
(-0.539184 -2.95961e-08 -1.15274)
(0.452468 -1.91985e-08 -0.532485)
(-0.617086 -7.66604e-09 -0.983623)
(0.00453066 -1.54135e-08 -1.08562)
(-0.294494 -8.96447e-09 -0.868631)
(-0.0319333 -1.64989e-08 -1.0437)
(-0.262313 -6.70893e-09 -0.779631)
(0.0505221 5.30225e-09 -1.12308)
(-0.263985 2.88808e-09 -0.628972)
(0.0636958 -8.2538e-09 -1.13102)
(-0.240513 -3.14718e-09 -0.618957)
(-0.367686 -2.68413e-25 0.936906)
(-0.375174 0 0.83823)
(-0.300217 0 0.702538)
(-0.222718 0 0.59528)
(-0.140644 0 0.498909)
(-0.0486298 0 0.408508)
(0.0211061 0 -0.136202)
(0.0506144 0 -0.200848)
(0.0880964 0 -0.206499)
(0.0810909 0 -0.327264)
(0.258555 0 -0.267891)
(0.254465 0 -0.159283)
(0.232144 0 -0.0584161)
(0.433699 0 -0.0548297)
(0.589697 3.18447e-25 -0.0141593)
(0.940932 -5.91061e-10 0.199948)
(1.00101 2.22229e-09 0.238363)
(0.999154 -6.19107e-11 0.239203)
(0.9934 2.57404e-09 0.177514)
(0.988939 -1.13393e-10 0.181009)
(0.919776 -8.21969e-09 0.101057)
(0.919276 3.72646e-09 0.110121)
(0.990176 -8.36992e-09 0.105891)
(0.98729 5.11786e-09 0.114185)
(-0.255537 4.13552e-09 -0.807427)
(0.818324 4.87829e-09 -0.421366)
(-0.0703175 6.54935e-09 -0.668)
(0.855128 6.34508e-09 -0.378484)
(-0.188681 -2.65887e-09 -0.793594)
(0.832113 -3.75259e-09 -0.424211)
(0.00552825 -3.13173e-09 -0.649238)
(0.874945 -4.11239e-09 -0.389813)
(0.338328 4.45361e-09 -0.365121)
(1.09786 5.29425e-09 -0.267029)
(0.198977 5.93754e-09 -0.47898)
(1.06132 5.85006e-09 -0.345186)
(0.371665 -1.67211e-09 -0.366423)
(1.09554 -1.30039e-09 -0.267713)
(0.248169 -2.52961e-09 -0.469854)
(1.05936 -3.11218e-09 -0.347367)
(-0.378774 2.54783e-09 -0.927279)
(-0.092754 3.95662e-10 -0.888618)
(0.39588 8.15145e-10 -0.662661)
(0.23823 4.73812e-09 -0.66945)
(-0.0934958 7.76107e-10 -0.873333)
(0.45536 1.67783e-09 -0.642197)
(-0.356008 -2.77392e-09 -0.923118)
(-0.0637533 -1.34802e-10 -0.873183)
(0.26054 -5.9475e-09 -0.663193)
(0.429329 2.62876e-10 -0.657619)
(-0.070329 -7.26683e-10 -0.879528)
(0.475511 -7.33425e-11 -0.652621)
(-0.0500702 1.32206e-09 -0.85942)
(0.599931 1.83808e-09 -0.525179)
(-0.0597513 1.23057e-09 -0.869769)
(0.598391 1.56889e-09 -0.604281)
(-0.0277424 -1.07401e-09 -0.874781)
(0.626154 -2.00964e-09 -0.524804)
(-0.0362462 -1.18575e-09 -0.878643)
(0.626654 -1.65056e-09 -0.609767)
(-0.156418 1.60076e-08 -1.01368)
(-0.324421 1.03579e-08 -0.945088)
(-0.0924191 1.32672e-08 -1.0304)
(-0.32911 8.6111e-09 -0.998355)
(-0.0640739 2.26975e-09 -0.822545)
(-0.262936 1.46821e-09 -1.02619)
(-0.14322 2.28408e-09 -0.897996)
(-0.263008 1.44118e-09 -0.989238)
(-0.438014 0 0.787236)
(-0.46553 -1.10149e-09 0.0749673)
(-0.199064 -3.86209e-09 -0.856393)
(-0.25279 -3.16941e-09 -0.894367)
(-0.119564 -4.50502e-09 -0.878296)
(-0.154468 -4.35467e-09 -0.910614)
(-0.329337 -5.03452e-09 -1.05448)
(-0.300494 -3.40577e-09 -1.08278)
(-0.341224 -2.21504e-09 -1.05145)
(-0.317146 -1.9511e-09 -1.07866)
(-0.559239 1.73991e-08 -1.18559)
(0.158241 1.60505e-08 -1.10896)
(-0.562518 1.20031e-08 -1.22622)
(0.0803874 1.4019e-08 -1.13636)
(-0.53659 -9.30869e-09 -1.20719)
(0.153925 -1.58934e-08 -1.14383)
(-0.544286 -8.1476e-09 -1.24481)
(0.0814374 -1.57809e-08 -1.16882)
(-0.341265 9.99517e-09 -1.24949)
(-0.335948 1.81756e-08 -1.2671)
(-0.142929 1.09852e-08 -1.15254)
(-0.561766 1.14366e-08 -1.24862)
(-0.0579214 1.26423e-08 -1.15292)
(-0.0425138 2.604e-08 -0.793694)
(-0.321725 -5.79671e-09 -1.24241)
(-0.320101 -1.49169e-08 -1.27798)
(-0.121026 -1.29153e-08 -1.17683)
(-0.53697 -7.19167e-09 -1.26852)
(-0.0452363 -1.44522e-08 -1.17411)
(-0.0381303 -2.81849e-08 -0.81147)
(-0.155325 -1.95744e-08 -1.03243)
(-0.305636 -9.67811e-09 -0.939201)
(-0.0969584 -1.76845e-08 -1.04839)
(-0.319615 -9.3562e-09 -0.998157)
(-0.143996 1.87315e-08 -1.01531)
(-0.291359 1.02427e-08 -1.0604)
(-0.140207 -2.10879e-08 -1.03459)
(-0.283316 -1.05026e-08 -1.06288)
(-0.0324355 -3.48677e-09 -0.801463)