/*--------------------------------*- C++ -*----------------------------------*\
| =========                 |                                                 |
| \\      /  F ield         | OpenFOAM: The Open Source CFD Toolbox           |
|  \\    /   O peration     | Version:  5.x                                   |
|   \\  /    A nd           | Web:      www.OpenFOAM.org                      |
|    \\/     M anipulation  |                                                 |
\*---------------------------------------------------------------------------*/
FoamFile
{
    version     2.0;
    format      ascii;
    class       surfaceVectorField;
    location    "0.7";
    object      Uf;
}
// * * * * * * * * * * * * * * * * * * * * * * * * * * * * * * * * * * * * * //

dimensions      [0 1 -1 0 0 0 0];

internalField   nonuniform List<vector> 
30582
(
(0.219444 0 0.00251109)
(0.21085 0 2.50742e-05)
(0.217029 0 0.00308283)
(0.225383 0 0.000965979)
(0.218607 0 -0.00165891)
(0.210047 0 0.00038985)
(0.211406 0 0.00284693)
(0.211154 0 0.00228991)
(0.21603 0 -0.0001072)
(0.224403 0 0.00199686)
(0.217367 0 0.00441312)
(0.208314 0 0.00126356)
(0.204223 0 0.0026977)
(0.210651 0 0.002977)
(0.211088 0 0.00210043)
(0.211136 0 0.00430245)
(0.215924 0 0.00699548)
(0.221589 0 0.00257438)
(0.213719 0 -0.00109458)
(0.205661 0 0.00360355)
(0.193456 0 0.00315663)
(0.197323 0 0.00454303)
(0.204409 0 0.00452169)
(0.21144 0 0.00574511)
(0.212373 0 0.00855902)
(0.209725 0 0.00574816)
(0.211521 0 0.000580662)
(0.217803 0 0.0034535)
(0.209607 0 0.00892096)
(0.201165 0 0.00760238)
(0.178745 0 0.00380919)
(0.187992 0 0.00631824)
(0.194058 0 0.00745798)
(0.198526 0 0.00891036)
(0.206056 0 0.0107184)
(0.211901 0 0.00836341)
(0.210363 0 0.0047569)
(0.208529 0 0.00621956)
(0.210823 0 0.0100906)
(0.210626 0 0.00296735)
(0.200075 0 0.000752748)
(0.195907 0 0.0154012)
(0.160486 0 0.00438736)
(0.168725 0 0.00798282)
(0.179403 0 0.0103596)
(0.189164 0 0.0126127)
(0.195936 0 0.0145964)
(0.20003 0 0.0131801)
(0.206126 0 0.0100794)
(0.213357 0 0.0101199)
(0.212756 0 0.0125357)
(0.205323 0 0.00543241)
(0.201011 0 -0.00263999)
(0.202148 0 0.00259294)
(0.193969 0 0.0181323)
(0.186584 0 0.0256647)
(0.140467 0 0.00466372)
(0.150578 0 0.00890889)
(0.160944 0 0.0124817)
(0.169656 0 0.0160527)
(0.180945 0 0.018755)
(0.190824 0 0.0190513)
(0.197398 0 0.0168921)
(0.202921 0 0.0168625)
(0.209998 0 0.0177218)
(0.214466 0 0.0112628)
(0.208143 0 0.00321898)
(0.202911 0 0.00252831)
(0.200087 0 0.00854166)
(0.185243 0 0.00014549)
(0.172555 0 0.00656945)
(0.147113 0 0.0444188)
(0.120182 0 0.00464442)
(0.129819 0 0.00918971)
(0.140633 0 0.0134697)
(0.151027 0 0.017948)
(0.161911 0 0.021884)
(0.171004 0 0.0243742)
(0.18256 0 0.0239675)
(0.193709 0 0.0254239)
(0.201925 0 0.0262587)
(0.206195 0 0.0202685)
(0.210187 0 0.013025)
(0.216977 0 0.0104159)
(0.212531 0 0.0106818)
(0.196264 0 -0.00253897)
(0.178809 0 -0.0112978)
(0.158922 0 -0.00235643)
(0.128236 0 0.0350554)
(-0.124618 0 -0.0134931)
(0.100899 0 0.00438189)
(0.109985 0 0.00889171)
(0.120083 0 0.0134869)
(0.129835 0 0.018499)
(0.140934 0 0.0232642)
(0.151631 0 0.0272839)
(0.16297 0 0.0291614)
(0.17327 0 0.0329391)
(0.18632 0 0.0353802)
(0.197337 0 0.0321261)
(0.204561 0 0.0252983)
(0.210572 0 0.0226422)
(0.216784 0 0.0204137)
(0.219833 0 0.00865305)
(0.20308 0 -0.00569445)
(0.197312 0 -0.0124219)
(0.178347 0 -0.00250677)
(0.0659363 0 -0.0224017)
(-0.197108 0 -0.071585)
(-0.229765 0 0.0636493)
(0.0834228 0 0.00395995)
(0.0915594 0 0.0082034)
(0.100613 0 0.0127577)
(0.109653 0 0.0178697)
(0.119825 0 0.0230875)
(0.129747 0 0.0280619)
(0.141151 0 0.0315662)
(0.152694 0 0.0369941)
(0.165349 0 0.0418434)
(0.176046 0 0.0421076)
(0.189249 0 0.0377971)
(0.202006 0 0.0387024)
(0.21123 0 0.0360392)
(0.216479 0 0.0249853)
(0.218963 0 0.012168)
(0.241589 0 0.00206968)
(0.232497 0 -0.00288372)
(0.201368 0 -0.0344719)
(0.0940064 0 -0.0563369)
(0.0368494 0 -0.138853)
(-0.00252217 0 -0.0100267)
(0.020171 0 0.0646387)
(0.0681282 0 0.00346929)
(0.0751813 0 0.0073082)
(0.0830271 0 0.0115813)
(0.0910035 0 0.0164584)
(0.0999672 0 0.0217032)
(0.109008 0 0.0270262)
(0.119283 0 0.031559)
(0.129737 0 0.0379685)
(0.141987 0 0.0445083)
(0.153822 0 0.0473909)
(0.16699 0 0.0463976)
(0.179463 0 0.0518391)
(0.194815 0 0.0534167)
(0.208727 0 0.0457529)
(0.217565 0 0.0355244)
(0.248047 0 0.0255755)
(0.271515 0 0.0187897)
(0.31925 0 -0.0141031)
(0.279459 0 -0.0451408)
(0.124905 0 -0.109989)
(0.0716417 0 -0.186416)
(0.0971889 0 -0.168519)
(0.127804 0 -0.0885996)
(0.0850121 0 0.0144159)
(0.0550839 0 0.00297458)
(0.0610456 0 0.00634439)
(0.0676849 0 0.0101973)
(0.0745142 0 0.0146391)
(0.0821667 0 0.0195946)
(0.0900088 0 0.0248142)
(0.0989043 0 0.0297485)
(0.108168 0 0.0364232)
(0.118876 0 0.043925)
(0.12941 0 0.048438)
(0.141934 0 0.0498696)
(0.155096 0 0.0585419)
(0.170171 0 0.0653227)
(0.184431 0 0.0626132)
(0.201618 0 0.0570224)
(0.246215 0 0.0526019)
(0.281649 0 0.0477866)
(0.364364 0 0.0212999)
(0.416212 0 -0.00897683)
(0.299691 0 -0.0707862)
(0.138798 0 -0.137934)
(0.0321214 0 -0.137334)
(0.0537217 0 -0.129335)
(0.05869 0 -0.138885)
(0.021302 0 -0.0397122)
(0.0495895 0 0.00604493)
(0.0441692 0 0.00251085)
(0.0491207 0 0.00540396)
(0.0546377 0 0.00877572)
(0.0603502 0 0.0126901)
(0.0667441 0 0.0171724)
(0.0733532 0 0.0220085)
(0.0808194 0 0.0268823)
(0.0886587 0 0.0333036)
(0.0976841 0 0.041008)
(0.106764 0 0.0461949)
(0.117421 0 0.0491037)
(0.128825 0 0.0595428)
(0.142627 0 0.0700062)
(0.157125 0 0.0707998)
(0.17415 0 0.0694602)
(0.223438 0 0.074622)
(0.272797 0 0.0732895)
(0.384089 0 0.0564038)
(0.476651 0 0.0349866)
(0.418539 0 -0.00419987)
(0.296167 0 -0.0686694)
(0.114786 0 -0.136013)
(0.00913081 0 -0.138092)
(0.00232286 0 -0.119177)
(0.00238971 0 -0.125786)
(0.0292604 0 -0.13132)
(0.060068 0 -0.0802729)
(0.0283675 0 -0.0175595)
(0.0351607 0 0.00209655)
(0.039224 0 0.0045405)
(0.0437487 0 0.00742793)
(0.0484511 0 0.0107952)
(0.0537058 0 0.0147237)
(0.059157 0 0.0190316)
(0.0652971 0 0.0235625)
(0.0717636 0 0.0294255)
(0.0791605 0 0.0367886)
(0.08663 0 0.0419988)
(0.0953613 0 0.0455008)
(0.104905 0 0.0563669)
(0.116264 0 0.0689184)
(0.12837 0 0.0714859)
(0.143439 0 0.0720227)
(0.197332 0 0.084467)
(0.250778 0 0.0882988)
(0.373392 0 0.0842485)
(0.496848 0 0.0727302)
(0.468642 0 0.047729)
(0.423302 0 0.00648253)
(0.187982 0 -0.0578394)
(-0.00241146 0 -0.118321)
(-0.0109151 0 -0.131229)
(-0.0150468 0 -0.116258)
(-0.00351066 0 -0.112077)
(0.0208972 0 -0.112299)
(0.0164393 0 -0.115651)
(-0.0126662 0 -0.0643769)
(0.0277917 0 0.00173903)
(0.0311017 0 0.00378042)
(0.0347815 0 0.00621469)
(0.0386112 0 0.00906014)
(0.0428796 0 0.0124249)
(0.0473117 0 0.0161554)
(0.0522851 0 0.0201986)
(0.0575188 0 0.0253602)
(0.0634738 0 0.0320621)
(0.0694686 0 0.036921)
(0.0764189 0 0.0404488)
(0.0841101 0 0.0508907)
(0.0931818 0 0.0640928)
(0.102737 0 0.0670105)
(0.114641 0 0.0678792)
(0.170079 0 0.0845321)
(0.225059 0 0.0925252)
(0.350406 0 0.0959127)
(0.483283 0 0.0955217)
(0.459727 0 0.0901789)
(0.449398 0 0.064861)
(0.229768 0 0.0365209)
(0.000673406 0 -0.0235938)
(-0.0391495 0 -0.0591409)
(-0.046967 0 -0.0803912)
(-0.024041 0 -0.117999)
(-0.0101583 0 -0.108921)
(-0.00152257 0 -0.0994311)
(-0.0073627 0 -0.109109)
(0.0217932 0 0.00143887)
(0.0244824 0 0.00313255)
(0.0274608 0 0.00516242)
(0.030561 0 0.00753602)
(0.0340039 0 0.0103694)
(0.0375744 0 0.0135337)
(0.0415617 0 0.0170392)
(0.0457461 0 0.0214647)
(0.0504772 0 0.0273555)
(0.0552035 0 0.0316813)
(0.060639 0 0.0349338)
(0.0667286 0 0.0444612)
(0.0738232 0 0.0573297)
(0.0809844 0 0.0599781)
(0.0899509 0 0.0602358)
(0.146565 0 0.0783949)
(0.202358 0 0.0892636)
(0.322242 0 0.0948164)
(0.451958 0 0.101106)
(0.40346 0 0.109854)
(0.386388 0 0.11017)
(0.221746 0 0.117726)
(0.00986323 0 0.0844435)
(-0.0289686 0 0.0325738)
(-0.0687617 0 -0.00865831)
(-0.0576078 0 -0.0499454)
(-0.0342157 0 -0.0815524)
(-0.0136756 0 -0.108027)
(-0.00376583 0 -0.102839)
(0.0169125 0 0.00119311)
(0.0191013 0 0.00259451)
(0.0215126 0 0.00427605)
(0.0240192 0 0.0062388)
(0.0267869 0 0.00859536)
(0.0296502 0 0.0112385)
(0.032829 0 0.0142147)
(0.0361498 0 0.0179352)
(0.0398766 0 0.0229815)
(0.0435624 0 0.0267131)
(0.0477587 0 0.0295617)
(0.0525197 0 0.0379459)
(0.0580071 0 0.0498588)
(0.0631968 0 0.0520186)
(0.0696839 0 0.05148)
(0.127149 0 0.0694917)
(0.183674 0 0.0815756)
(0.292259 0 0.0870101)
(0.411833 0 0.0960471)
(0.330818 0 0.112994)
(0.281418 0 0.131706)
(0.178955 0 0.156569)
(0.01189 0 0.152664)
(-0.0187882 0 0.11684)
(-0.0604651 0 0.0682178)
(-0.0580596 0 0.0290104)
(-0.0467177 0 -0.00982662)
(-0.0311447 0 -0.0446707)
(-0.0113288 0 -0.0736596)
(0.012922 0 0.000997235)
(0.0147184 0 0.00215936)
(0.0166811 0 0.00354879)
(0.0187151 0 0.00516286)
(0.0209442 0 0.00710661)
(0.0232416 0 0.00928997)
(0.0257713 0 0.0117777)
(0.0283992 0 0.0148592)
(0.0313231 0 0.0190995)
(0.0341809 0 0.0222463)
(0.0373957 0 0.0246609)
(0.041089 0 0.031844)
(0.0452996 0 0.0424695)
(0.0489533 0 0.0441265)
(0.0534942 0 0.0429212)
(0.11144 0 0.0597545)
(0.168717 0 0.0719637)
(0.25826 0 0.0765129)
(0.364717 0 0.0862963)
(0.270258 0 0.108736)
(0.18669 0 0.135605)
(0.128008 0 0.155908)
(0.0214151 0 0.166249)
(-0.00064761 0 0.15233)
(-0.0342157 0 0.125998)
(-0.041232 0 0.105364)
(-0.0421556 0 0.0650278)
(-0.0316017 0 0.027051)
(-0.0152674 0 -0.00812304)
(0.00962266 0 0.000846196)
(0.0111203 0 0.00181738)
(0.0127369 0 0.00296826)
(0.014405 0 0.00429366)
(0.0162139 0 0.00588868)
(0.018068 0 0.00767743)
(0.0200891 0 0.0097334)
(0.0221739 0 0.0122573)
(0.0244677 0 0.0157681)
(0.0266822 0 0.0183761)
(0.0291386 0 0.0203774)
(0.0319913 0 0.026408)
(0.0352071 0 0.0356232)
(0.0377188 0 0.0368409)
(0.0407975 0 0.0352048)
(0.0988765 0 0.0503017)
(0.156595 0 0.0618868)
(0.222237 0 0.0655469)
(0.308276 0 0.0752243)
(0.219825 0 0.103007)
(0.121575 0 0.130362)
(0.0894988 0 0.13876)
(0.0302627 0 0.149614)
(0.0159964 0 0.151899)
(-0.00554588 0 0.146172)
(-0.0138018 0 0.13957)
(-0.0231532 0 0.118198)
(-0.0220741 0 0.0970562)
(-0.0132763 0 0.0604792)
(0.0068411 0 0.000735074)
(0.00812047 0 0.00155961)
(0.00948003 0 0.00252052)
(0.010874 0 0.00361135)
(0.0123637 0 0.00491871)
(0.0138806 0 0.00637713)
(0.0155118 0 0.00806179)
(0.0171798 0 0.0101107)
(0.0189904 0 0.0129862)
(0.0207162 0 0.0151177)
(0.0225976 0 0.0167465)
(0.0247999 0 0.0217318)
(0.0272528 0 0.0295557)
(0.0289469 0 0.0304172)
(0.0309715 0 0.0285726)
(0.0888847 0 0.0417058)
(0.146728 0 0.0522202)
(0.186255 0 0.0551003)
(0.24761 0 0.0646266)
(0.175716 0 0.0945351)
(0.0829106 0 0.12072)
(0.0643122 0 0.121157)
(0.0315859 0 0.128867)
(0.0235572 0 0.13815)
(0.0110604 0 0.142439)
(0.00421099 0 0.144376)
(-0.00378845 0 0.138511)
(-0.00689845 0 0.130952)
(-0.00683326 0 0.111331)
(0.00442854 0 0.000660135)
(0.00555968 0 0.00137703)
(0.00673743 0 0.00219214)
(0.00793558 0 0.00309736)
(0.00919279 0 0.00417162)
(0.0104624 0 0.00535798)
(0.0118035 0 0.00673112)
(0.0131608 0 0.00838381)
(0.0146092 0 0.01072)
(0.0159722 0 0.0124397)
(0.017428 0 0.013744)
(0.0191361 0 0.0178174)
(0.0210111 0 0.0243537)
(0.0221412 0 0.0249339)
(0.0234358 0 0.0230475)
(0.080895 0 0.0342153)
(0.138557 0 0.0434438)
(0.153343 0 0.0457517)
(0.188859 0 0.0549897)
(0.135955 0 0.0836751)
(0.0593057 0 0.10786)
(0.0487491 0 0.105814)
(0.0296515 0 0.11099)
(0.0246806 0 0.122065)
(0.0179426 0 0.129302)
(0.0130133 0 0.134976)
(0.0070692 0 0.13798)
(0.00248693 0 0.139458)
(-0.000547688 0 0.133048)
(0.00225606 0 0.000618154)
(0.00329972 0 0.00126215)
(0.00436133 0 0.00197036)
(0.0054317 0 0.00273324)
(0.00652937 0 0.00362351)
(0.00762739 0 0.00459073)
(0.0087626 0 0.00570651)
(0.00989779 0 0.007033)
(0.011083 0 0.00892158)
(0.0121858 0 0.0102919)
(0.0133346 0 0.0113166)
(0.0146743 0 0.0146157)
(0.0161199 0 0.0200138)
(0.0168772 0 0.0203716)
(0.0176865 0 0.0185452)
(0.074386 0 0.0278834)
(0.131577 0 0.035778)
(0.126262 0 0.0377333)
(0.137871 0 0.0463309)
(0.101581 0 0.0709967)
(0.044658 0 0.0922767)
(0.0388577 0 0.0907992)
(0.0280139 0 0.0952817)
(0.0241811 0 0.106597)
(0.0196078 0 0.114415)
(0.0157376 0 0.121283)
(0.011604 0 0.127549)
(0.00714514 0 0.132885)
(0.00302026 0 0.135016)
(0.000212188 0 0.000606166)
(0.00122104 0 0.00120882)
(0.00222397 0 0.00184478)
(0.00322561 0 0.00250388)
(0.00422734 0 0.00325324)
(0.0052191 0 0.00404719)
(0.00621865 0 0.00495485)
(0.00720511 0 0.00601711)
(0.0082093 0 0.00754002)
(0.00913518 0 0.0086159)
(0.0100714 0 0.00940117)
(0.0111444 0 0.0120577)
(0.0122777 0 0.0164821)
(0.0128025 0 0.0166582)
(0.013307 0 0.0149411)
(0.0688353 0 0.0226587)
(0.125244 0 0.0292815)
(0.104589 0 0.0311323)
(0.0970449 0 0.0388473)
(0.0741226 0 0.0583104)
(0.0349028 0 0.0755327)
(0.0321135 0 0.0758265)
(0.0265417 0 0.08093)
(0.0232436 0 0.0915153)
(0.0195659 0 0.0993843)
(0.0162107 0 0.106617)
(0.0127019 0 0.113883)
(0.00854205 0 0.120768)
(0.00446324 0 0.126384)
(-0.00180319 0 0.000622478)
(-0.000779814 0 0.00121328)
(0.000214627 0 0.00180842)
(0.00119899 0 0.00239721)
(0.00216045 0 0.00304374)
(0.00310288 0 0.00370469)
(0.00402755 0 0.00444702)
(0.0049282 0 0.00529782)
(0.0058191 0 0.00652778)
(0.006636 0 0.00735727)
(0.0074359 0 0.00793563)
(0.00832456 0 0.0100676)
(0.00923832 0 0.0136823)
(0.0096336 0 0.0137024)
(0.00996244 0 0.0121032)
(0.0637249 0 0.0184361)
(0.118954 0 0.023915)
(0.0885126 0 0.0259437)
(0.0665003 0 0.0327252)
(0.0528943 0 0.0468023)
(0.0280142 0 0.0596804)
(0.0267721 0 0.0617824)
(0.0244431 0 0.0677031)
(0.0218 0 0.0768656)
(0.018803 0 0.084532)
(0.0157425 0 0.0918863)
(0.0125361 0 0.0993668)
(0.00869605 0 0.106696)
(0.00473776 0 0.113649)
(-0.00388088 0 0.000666468)
(-0.00279751 0 0.00127321)
(-0.00176626 0 0.00185685)
(-0.000750472 0 0.00240578)
(0.000219723 0 0.0029827)
(0.00116261 0 0.00354503)
(0.00206584 0 0.00415959)
(0.00293516 0 0.0048444)
(0.00377088 0 0.00584391)
(0.00453655 0 0.00646688)
(0.00526213 0 0.00686478)
(0.00603316 0 0.00857609)
(0.00680206 0 0.011533)
(0.00714383 0 0.0114096)
(0.0073901 0 0.00991017)
(0.0585046 0 0.0150943)
(0.111954 0 0.0195825)
(0.0765059 0 0.0221569)
(0.0451881 0 0.0281612)
(0.037309 0 0.0370734)
(0.0226437 0 0.0459863)
(0.022326 0 0.0495575)
(0.0214868 0 0.0559657)
(0.0196222 0 0.0632724)
(0.017344 0 0.0703942)
(0.0147202 0 0.0775879)
(0.011859 0 0.0849558)
(0.00831459 0 0.0922156)
(0.00456639 0 0.099517)
(-0.00610652 0 0.000738759)
(-0.00492181 0 0.00138838)
(-0.00380898 0 0.00198821)
(-0.00271649 0 0.00252498)
(-0.00169285 0 0.00306257)
(-0.000701966 0 0.00355718)
(0.000227114 0 0.00407596)
(0.00111306 0 0.00463252)
(0.00194455 0 0.0054557)
(0.00270887 0 0.00590543)
(0.0034128 0 0.00614262)
(0.00412276 0 0.00752245)
(0.00480747 0 0.00995906)
(0.00515297 0 0.00969445)
(0.00538384 0 0.00825831)
(0.0525736 0 0.0125147)
(0.103372 0 0.016172)
(0.0668166 0 0.0197385)
(0.0307076 0 0.0254441)
(0.0259939 0 0.0298546)
(0.0175364 0 0.035249)
(0.017874 0 0.0397405)
(0.0178532 0 0.046058)
(0.0167665 0 0.0514216)
(0.015241 0 0.0576723)
(0.013192 0 0.0643324)
(0.0108023 0 0.0713014)
(0.00766585 0 0.0781111)
(0.00422405 0 0.0852951)
(-0.00856232 0 0.000839939)
(-0.00723428 0 0.00155939)
(-0.00599874 0 0.00220238)
(-0.00478777 0 0.00275437)
(-0.00366611 0 0.00328018)
(-0.00258257 0 0.0037342)
(-0.0015839 0 0.00418585)
(-0.000635382 0 0.00464743)
(0.00023718 0 0.00534005)
(0.00104463 0 0.0056423)
(0.00177309 0 0.00573336)
(0.00247031 0 0.00685806)
(0.00312219 0 0.00889592)
(0.00351772 0 0.00848437)
(0.00378408 0 0.00706423)
(0.0452735 0 0.0105914)
(0.0921397 0 0.0135763)
(0.0580259 0 0.0187017)
(0.0209152 0 0.0247518)
(0.0176301 0 0.0250374)
(0.0125068 0 0.0276243)
(0.0134594 0 0.0325282)
(0.013951 0 0.0381348)
(0.0135247 0 0.0417783)
(0.0126693 0 0.0469166)
(0.0112461 0 0.0527409)
(0.00941732 0 0.059019)
(0.00679982 0 0.0650304)
(0.00377877 0 0.0717568)
(-0.011328 0 0.000970049)
(-0.00981626 0 0.00178767)
(-0.00841708 0 0.00250082)
(-0.00704497 0 0.00309498)
(-0.00578362 0 0.00363606)
(-0.00456577 0 0.00407529)
(-0.00345359 0 0.00448483)
(-0.00239895 0 0.00487995)
(-0.00144279 0 0.00548289)
(-0.000548934 0 0.00565877)
(0.000245678 0 0.00561214)
(0.000972878 0 0.00654567)
(0.00163646 0 0.00829144)
(0.00212048 0 0.00772124)
(0.00246363 0 0.00626305)
(0.035994 0 0.00923804)
(0.0772125 0 0.0116908)
(0.0488063 0 0.018961)
(0.0142889 0 0.0258938)
(0.0114337 0 0.0223516)
(0.00782525 0 0.0226435)
(0.00926642 0 0.0275707)
(0.0102329 0 0.0322939)
(0.0102673 0 0.0345047)
(0.00990777 0 0.0383849)
(0.00907135 0 0.0432205)
(0.00780605 0 0.0485847)
(0.00576191 0 0.0535675)
(0.00325146 0 0.0595313)
(-0.0144809 0 0.00112975)
(-0.0127456 0 0.00207456)
(-0.0111429 0 0.00288607)
(-0.00956835 0 0.00354959)
(-0.00812567 0 0.00413268)
(-0.00673047 0 0.00458215)
(-0.00546311 0 0.00497336)
(-0.00426118 0 0.00532886)
(-0.00317867 0 0.00587813)
(-0.00215624 0 0.00594369)
(-0.001255 0 0.00576399)
(-0.000457107 0 0.0065622)
(0.000257893 0 0.00810838)
(0.000865454 0 0.00736101)
(0.0013192 0 0.0058068)
(0.0244451 0 0.00838611)
(0.0577196 0 0.0104317)
(0.0382574 0 0.0203642)
(0.00946207 0 0.0282291)
(0.00682608 0 0.0216674)
(0.00376717 0 0.0195968)
(0.00553469 0 0.0245869)
(0.00694537 0 0.0285925)
(0.00723503 0 0.0293497)
(0.00725534 0 0.032035)
(0.00689445 0 0.0359147)
(0.00611486 0 0.0402494)
(0.00463739 0 0.0441036)
(0.00267003 0 0.0490975)
(-0.0180958 0 0.00131988)
(-0.0160984 0 0.00242106)
(-0.0142532 0 0.00335991)
(-0.012435 0 0.00412107)
(-0.0107701 0 0.00477351)
(-0.00915542 0 0.0052589)
(-0.00769071 0 0.00565481)
(-0.00629861 0 0.00599664)
(-0.00504847 0 0.00652659)
(-0.00385646 0 0.00649525)
(-0.0028074 0 0.0061826)
(-0.00189913 0 0.00689501)
(-0.00109428 0 0.00832475)
(-0.00032676 0 0.00737623)
(0.000269474 0 0.00566418)
(0.0110116 0 0.00798184)
(0.0339562 0 0.0097311)
(0.0257609 0 0.0221921)
(0.0060145 0 0.0314266)
(0.00359748 0 0.022332)
(0.000794448 0 0.0180356)
(0.00249028 0 0.0233342)
(0.0041468 0 0.0268894)
(0.00456377 0 0.0261284)
(0.00482117 0 0.0276193)
(0.00485676 0 0.0306669)
(0.00449946 0 0.034002)
(0.00352661 0 0.0367734)
(0.00207834 0 0.0407072)
(-0.0222441 0 0.00154081)
(-0.0199479 0 0.002828)
(-0.0178229 0 0.0039236)
(-0.0157209 0 0.00481183)
(-0.0137933 0 0.00556222)
(-0.0119169 0 0.00611028)
(-0.0102129 0 0.00653431)
(-0.00858798 0 0.00688921)
(-0.00712794 0 0.00743368)
(-0.00572262 0 0.00731705)
(-0.00448443 0 0.00686917)
(-0.00342747 0 0.00754141)
(-0.00249412 0 0.00893088)
(-0.00152854 0 0.00775284)
(-0.000754668 0 0.00581755)
(-0.00321002 0 0.00799277)
(0.00743983 0 0.00951711)
(0.01152 0 0.0236646)
(0.00312445 0 0.0347115)
(0.0015337 0 0.0238712)
(-0.00098047 0 0.0175668)
(0.000351328 0 0.023345)
(0.00202194 0 0.0267524)
(0.00238311 0 0.0245256)
(0.00273642 0 0.0248306)
(0.00303656 0 0.0272767)
(0.00304444 0 0.0296927)
(0.00249656 0 0.0314542)
(0.00152465 0 0.0343706)
(-0.0269925 0 0.00179256)
(-0.0243637 0 0.00329546)
(-0.0219242 0 0.00457792)
(-0.0195002 0 0.00562397)
(-0.0172708 0 0.00650228)
(-0.0150908 0 0.00714086)
(-0.0131058 0 0.00761738)
(-0.0112047 0 0.00801373)
(-0.00949213 0 0.00860765)
(-0.00782878 0 0.00841735)
(-0.00635794 0 0.00783023)
(-0.00511119 0 0.0085067)
(-0.00401058 0 0.00992788)
(-0.0028073 0 0.0084874)
(-0.00181914 0 0.00626034)
(-0.0168063 0 0.00840514)
(-0.0192541 0 0.00975161)
(-0.00350212 0 0.0240629)
(0.000483402 0 0.0365546)
(0.000290548 0 0.0252267)
(-0.00137194 0 0.0176096)
(-0.000672385 0 0.0240986)
(0.000596448 0 0.0276119)
(0.000809568 0 0.0241587)
(0.00114077 0 0.0233415)
(0.00154834 0 0.0254202)
(0.00180859 0 0.0270875)
(0.00159128 0 0.0279575)
(0.00102845 0 0.0299377)
(-0.0324036 0 0.00207459)
(-0.0294114 0 0.00382263)
(-0.0266255 0 0.0053223)
(-0.0238442 0 0.00655822)
(-0.0212763 0 0.00759599)
(-0.0187526 0 0.00835471)
(-0.0164454 0 0.00890926)
(-0.0142249 0 0.00937758)
(-0.0122166 0 0.0100577)
(-0.0102491 0 0.00980635)
(-0.00850067 0 0.00907608)
(-0.00702112 0 0.00980236)
(-0.00571201 0 0.011326)
(-0.00422592 0 0.00958708)
(-0.00298292 0 0.00699592)
(-0.0286634 0 0.00921337)
(-0.0435572 0 0.0104355)
(-0.0179625 0 0.0232982)
(-0.00219242 0 0.0361181)
(-0.000559713 0 0.0256738)
(-0.000765726 0 0.0177648)
(-0.000772471 0 0.0248681)
(-0.000115989 0 0.0287764)
(-6.32542e-05 0 0.0245125)
(0.000123606 0 0.0227767)
(0.000481591 0 0.0247392)
(0.000864445 0 0.0258489)
(0.000850577 0 0.0259496)
(0.000612774 0 0.0271471)
(-0.0385309 0 0.00238506)
(-0.0351504 0 0.0044066)
(-0.0319912 0 0.00615391)
(-0.0288205 0 0.00761315)
(-0.0258807 0 0.0088433)
(-0.0229757 0 0.00975374)
(-0.0203074 0 0.0104136)
(-0.0177252 0 0.0109876)
(-0.0153782 0 0.0117931)
(-0.0130594 0 0.011495)
(-0.0109871 0 0.010619)
(-0.00922939 0 0.0114424)
(-0.00766848 0 0.0131397)
(-0.0058518 0 0.011067)
(-0.0043077 0 0.00803717)
(-0.0383011 0 0.0104283)
(-0.0638284 0 0.0115894)
(-0.0307692 0 0.0218588)
(-0.00505712 0 0.0337933)
(-0.00161299 0 0.0250537)
(4.49754e-05 0 0.0179201)
(-0.000384565 0 0.0251857)
(-0.000395271 0 0.0295475)
(-0.000354892 0 0.0250333)
(-0.000317858 0 0.022729)
(-9.82641e-05 0 0.024769)
(0.000244672 0 0.02556)
(0.000317407 0 0.025093)
(0.000292076 0 0.0256659)
(-0.0454192 0 0.00272081)
(-0.0416303 0 0.00504192)
(-0.0380768 0 0.00706626)
(-0.0344912 0 0.00878317)
(-0.0311511 0 0.0102404)
(-0.0278308 0 0.0113364)
(-0.0247653 0 0.0121307)
(-0.0217817 0 0.0128476)
(-0.0190546 0 0.0138207)
(-0.0163378 0 0.0134939)
(-0.0138943 0 0.0124723)
(-0.0118109 0 0.0134421)
(-0.00995225 0 0.0153848)
(-0.0077556 0 0.012945)
(-0.00586278 0 0.00940435)
(-0.0458775 0 0.0120721)
(-0.0796622 0 0.0132328)
(-0.0416085 0 0.0204825)
(-0.0083408 0 0.0309516)
(-0.00332237 0 0.0239072)
(0.000177063 0 0.018136)
(-0.000197796 0 0.0249727)
(-0.000605984 0 0.0295506)
(-0.000383311 0 0.0253126)
(-0.00034362 0 0.0228771)
(-0.000272308 0 0.0250485)
(-6.75445e-05 0 0.0257498)
(1.3128e-05 0 0.0249504)
(7.63415e-05 0 0.0251096)
(-0.0530953 0 0.00307686)
(-0.04889 0 0.00571966)
(-0.0449292 0 0.00804859)
(-0.0409088 0 0.0100576)
(-0.0371465 0 0.0117776)
(-0.0333837 0 0.0130949)
(-0.0298903 0 0.0140553)
(-0.0264689 0 0.0149569)
(-0.023323 0 0.0161428)
(-0.0201632 0 0.0158099)
(-0.0173021 0 0.014648)
(-0.0148437 0 0.0158171)
(-0.0126392 0 0.0180771)
(-0.0100118 0 0.0152418)
(-0.00771958 0 0.0111227)
(-0.0518821 0 0.0141668)
(-0.0916499 0 0.0153861)
(-0.0507268 0 0.0198207)
(-0.0123956 0 0.0285619)
(-0.00595346 0 0.0230572)
(-0.000866835 0 0.0185769)
(-0.000779146 0 0.0245583)
(-0.0011236 0 0.0289464)
(-0.000531829 0 0.0252899)
(-0.000290512 0 0.0230899)
(-0.000255909 0 0.0252806)
(-0.000186325 0 0.0260272)
(-0.000107272 0 0.0251188)
(-3.17301e-05 0 0.0250709)
(-0.0615685 0 0.00344631)
(-0.0569444 0 0.00642719)
(-0.0525778 0 0.00908444)
(-0.0481161 0 0.0114188)
(-0.0439183 0 0.0134381)
(-0.0396924 0 0.0150143)
(-0.0357471 0 0.0161743)
(-0.0318583 0 0.0173069)
(-0.0282598 0 0.0187547)
(-0.0246151 0 0.0184444)
(-0.0212917 0 0.0171541)
(-0.0184087 0 0.0185788)
(-0.015809 0 0.0212283)
(-0.0127005 0 0.017978)
(-0.00995686 0 0.0132218)
(-0.0568483 0 0.0167402)
(-0.100751 0 0.0180787)
(-0.0587818 0 0.0201552)
(-0.0175568 0 0.0269295)
(-0.00959917 0 0.0231567)
(-0.00305763 0 0.019665)
(-0.00229094 0 0.0244482)
(-0.00218971 0 0.0282931)
(-0.00112286 0 0.0252233)
(-0.000510086 0 0.0234283)
(-0.000321283 0 0.0254244)
(-0.000273109 0 0.0262114)
(-0.000144654 0 0.0253328)
(-6.52694e-05 0 0.0252364)
(-0.0708267 0 0.00382043)
(-0.0658109 0 0.00714781)
(-0.0610352 0 0.0101517)
(-0.0561322 0 0.0128423)
(-0.0515014 0 0.0151963)
(-0.0468056 0 0.0170693)
(-0.0423937 0 0.0184649)
(-0.038015 0 0.0198793)
(-0.0339369 0 0.0216409)
(-0.0297718 0 0.0213896)
(-0.0259461 0 0.0199923)
(-0.022589 0 0.0217325)
(-0.0195442 0 0.0248422)
(-0.0159074 0 0.0211711)
(-0.0126612 0 0.0157343)
(-0.0612323 0 0.0198217)
(-0.107859 0 0.0213334)
(-0.066528 0 0.0215008)
(-0.0241175 0 0.0264725)
(-0.0143135 0 0.024472)
(-0.00622595 0 0.0218454)
(-0.0046998 0 0.0252045)
(-0.00391986 0 0.0282084)
(-0.00231856 0 0.0255468)
(-0.00121958 0 0.0241001)
(-0.000698869 0 0.0256659)
(-0.0004931 0 0.0263766)
(-0.000220279 0 0.0255592)
(-8.53382e-05 0 0.0254691)
(-0.0753672 0 0.00786145)
(-0.0808289 0 0.00418993)
(-0.0702925 0 0.0112226)
(-0.0649797 0 0.0142949)
(-0.059915 0 0.0170168)
(-0.0547506 0 0.0192242)
(-0.0498739 0 0.020892)
(-0.0449968 0 0.022643)
(-0.0404218 0 0.0247739)
(-0.0357079 0 0.024626)
(-0.0313463 0 0.0231541)
(-0.0274691 0 0.0252733)
(-0.023931 0 0.0289116)
(-0.0197234 0 0.0248315)
(-0.0159266 0 0.0186923)
(-0.0654008 0 0.0234373)
(-0.113711 0 0.0251685)
(-0.0747906 0 0.023811)
(-0.0329668 0 0.0274763)
(-0.0202103 0 0.0274277)
(-0.0102061 0 0.0252152)
(-0.00778686 0 0.0270909)
(-0.00621131 0 0.0291104)
(-0.00409159 0 0.0266856)
(-0.00247028 0 0.0253895)
(-0.00149699 0 0.0263409)
(-0.000956621 0 0.0267962)
(-0.000437298 0 0.025955)
(-0.00015644 0 0.0258266)
(-0.0745406 0 0.0157372)
(-0.0803128 0 0.0122655)
(-0.0927931 0 0.00899609)
(-0.106904 0 0.00495101)
(-0.0691574 0 0.0188546)
(-0.0635591 0 0.0214305)
(-0.058217 0 0.0234071)
(-0.0528422 0 0.0255526)
(-0.0477697 0 0.0281093)
(-0.0424934 0 0.0281181)
(-0.0375721 0 0.0266183)
(-0.033133 0 0.029183)
(-0.0290565 0 0.0334129)
(-0.0242444 0 0.0289594)
(-0.0198547 0 0.0221258)
(-0.0696389 0 0.0276065)
(-0.118861 0 0.0295969)
(-0.0842585 0 0.0270117)
(-0.0447607 0 0.0298957)
(-0.0275387 0 0.0318513)
(-0.0145474 0 0.0299659)
(-0.0113388 0 0.0303353)
(-0.00895611 0 0.0313239)
(-0.00631337 0 0.0288969)
(-0.00417457 0 0.0275579)
(-0.0026988 0 0.0277872)
(-0.00171047 0 0.0278176)
(-0.000847023 0 0.0268195)
(-0.000318098 0 0.0265199)
(-0.0731192 0 0.0236296)
(-0.0791988 0 0.0206602)
(-0.0920537 0 0.0180364)
(-0.106516 0 0.0143827)
(-0.119315 0 0.0102118)
(-0.134307 0 0.00537992)
(-0.0674331 0 0.0259487)
(-0.0615956 0 0.0285458)
(-0.0560234 0 0.031585)
(-0.050182 0 0.0318132)
(-0.044694 0 0.0303458)
(-0.0396624 0 0.0334249)
(-0.0350094 0 0.0383038)
(-0.0295694 0 0.0335403)
(-0.0245532 0 0.0260575)
(-0.0741714 0 0.0323383)
(-0.123716 0 0.0346215)
(-0.0955938 0 0.0310358)
(-0.0602279 0 0.0335141)
(-0.0365713 0 0.0377463)
(-0.0190638 0 0.0364424)
(-0.0151363 0 0.0349304)
(-0.01199 0 0.0350051)
(-0.00885884 0 0.0323673)
(-0.00623107 0 0.0307696)
(-0.00420819 0 0.0302501)
(-0.00271687 0 0.029738)
(-0.00144501 0 0.0284376)
(-0.000574429 0 0.0278261)
(-0.0711572 0 0.031542)
(-0.0775 0 0.0284433)
(-0.0907548 0 0.0271482)
(-0.105609 0 0.0244058)
(-0.118865 0 0.0205477)
(-0.134252 0 0.0155776)
(-0.14674 0 0.0105991)
(-0.160643 0 0.00523998)
(-0.0652075 0 0.0351198)
(-0.058836 0 0.0356363)
(-0.0527744 0 0.0342775)
(-0.0471274 0 0.0379424)
(-0.0418731 0 0.0435176)
(-0.0357987 0 0.0385392)
(-0.0301356 0 0.0304998)
(-0.0791859 0 0.0376264)
(-0.128577 0 0.0402266)
(-0.109359 0 0.0358345)
(-0.080165 0 0.0380951)
(-0.0476744 0 0.0451203)
(-0.0235556 0 0.0447665)
(-0.0190345 0 0.0408638)
(-0.0152292 0 0.040095)
(-0.0115918 0 0.0371388)
(-0.00849143 0 0.0351344)
(-0.00593379 0 0.0338812)
(-0.00391622 0 0.0327705)
(-0.00219648 0 0.0310392)
(-0.000916703 0 0.0299968)
(-0.0683753 0 0.0394956)
(-0.0753269 0 0.0386135)
(-0.088964 0 0.0363587)
(-0.104196 0 0.0336165)
(-0.118001 0 0.0310847)
(-0.133885 0 0.0266938)
(-0.146855 0 0.0214972)
(-0.161331 0 0.0152778)
(-0.171801 0 0.00974361)
(-0.183057 0 0.00346504)
(-0.061862 0 0.0383317)
(-0.0556101 0 0.0426525)
(-0.0497262 0 0.0489617)
(-0.0430248 0 0.0438992)
(-0.0367133 0 0.0354466)
(-0.0848386 0 0.0434404)
(-0.133678 0 0.0463719)
(-0.125653 0 0.04136)
(-0.10489 0 0.0434207)
(-0.0612466 0 0.0536161)
(-0.0279654 0 0.0548029)
(-0.0229122 0 0.0482356)
(-0.0185894 0 0.0464717)
(-0.0144423 0 0.043196)
(-0.0108598 0 0.040717)
(-0.00778229 0 0.0387536)
(-0.00525213 0 0.0370204)
(-0.00305137 0 0.034776)
(-0.00133376 0 0.033216)
(-0.0650643 0 0.0474524)
(-0.0719854 0 0.04239)
(-0.0863466 0 0.0457154)
(-0.102447 0 0.0460463)
(-0.116817 0 0.0418974)
(-0.133212 0 0.0367683)
(-0.14682 0 0.0327382)
(-0.161816 0 0.0267367)
(-0.173069 0 0.0203013)
(-0.185618 0 0.0122462)
(-0.193254 0 0.00575044)
(-0.195306 0 -0.00203229)
(-0.0586398 0 0.0545262)
(-0.0513471 0 0.0495343)
(-0.0443925 0 0.0408697)
(-0.0912371 0 0.049724)
(-0.139184 0 0.0529871)
(-0.14409 0 0.0475433)
(-0.134107 0 0.0494324)
(-0.0775562 0 0.0627455)
(-0.0326467 0 0.0661734)
(-0.0266823 0 0.0569827)
(-0.0218801 0 0.0539715)
(-0.0172979 0 0.0505604)
(-0.013277 0 0.0475344)
(-0.00970848 0 0.0448736)
(-0.00668044 0 0.0425083)
(-0.00398558 0 0.0397274)
(-0.00179787 0 0.0375979)
(-0.0608057 0 0.0553695)
(-0.0687127 0 0.0599988)
(-0.0831186 0 0.0551935)
(-0.0994573 0 0.0512094)
(-0.114895 0 0.0530888)
(-0.132479 0 0.0510006)
(-0.146788 0 0.0444645)
(-0.162349 0 0.0368192)
(-0.174302 0 0.0313377)
(-0.187204 0 0.0238343)
(-0.196342 0 0.0159102)
(-0.207259 0 0.00395938)
(-0.210039 0 -0.00399014)
(-0.187437 0 -0.0101473)
(-0.0532911 0 0.0467389)
(-0.0984861 0 0.0564044)
(-0.145162 0 0.0599883)
(-0.16505 0 0.0542584)
(-0.167649 0 0.055973)
(-0.0964667 0 0.072537)
(-0.0382593 0 0.0784692)
(-0.0305704 0 0.0668536)
(-0.0249018 0 0.0624492)
(-0.020001 0 0.0591557)
(-0.0156268 0 0.0555524)
(-0.0116303 0 0.0522205)
(-0.00815343 0 0.0492219)
(-0.00496458 0 0.0458959)
(-0.00229503 0 0.0431859)
(-0.106812 0 0.0634877)
(-0.0636201 0 0.0528646)
(-0.0791391 0 0.0647641)
(-0.0964523 0 0.0716767)
(-0.112326 0 0.0646729)
(-0.130543 0 0.0573062)
(-0.146257 0 0.0568298)
(-0.163204 0 0.0521046)
(-0.175899 0 0.043144)
(-0.189508 0 0.0331183)
(-0.199072 0 0.0261712)
(-0.20906 0 0.0177917)
(-0.216956 0 0.00670404)
(-0.228348 0 -0.0107164)
(-0.188682 0 -0.0154803)
(-0.159173 0 -0.0436894)
(-0.151638 0 0.0673421)
(-0.188578 0 0.0614041)
(-0.205278 0 0.0628086)
(-0.118292 0 0.0828006)
(-0.0450615 0 0.0916293)
(-0.0348626 0 0.0776052)
(-0.0275242 0 0.0718226)
(-0.0224219 0 0.0687728)
(-0.0177623 0 0.0646401)
(-0.0134583 0 0.0606915)
(-0.00961053 0 0.0570918)
(-0.00594775 0 0.0532498)
(-0.00280683 0 0.0499622)
(-0.213197 0 0.0709409)
(-0.161121 0 0.0746064)
(-0.123768 0 0.074685)
(-0.0923756 0 0.0673372)
(-0.109364 0 0.0766712)
(-0.128649 0 0.0797769)
(-0.145235 0 0.0698883)
(-0.16299 0 0.0588404)
(-0.177214 0 0.0557516)
(-0.192207 0 0.0488863)
(-0.20258 0 0.0377293)
(-0.214126 0 0.0256086)
(-0.220616 0 0.0171035)
(-0.229568 0 0.00845132)
(-0.227542 0 -0.00791012)
(-0.24217 0 -0.0590568)