/*--------------------------------*- C++ -*----------------------------------*\
| =========                 |                                                 |
| \\      /  F ield         | OpenFOAM: The Open Source CFD Toolbox           |
|  \\    /   O peration     | Version:  5.x                                   |
|   \\  /    A nd           | Web:      www.OpenFOAM.org                      |
|    \\/     M anipulation  |                                                 |
\*---------------------------------------------------------------------------*/
FoamFile
{
    version     2.0;
    format      ascii;
    class       surfaceScalarField;
    location    "1.1";
    object      alphaPhi10;
}
// * * * * * * * * * * * * * * * * * * * * * * * * * * * * * * * * * * * * * //

dimensions      [0 3 -1 0 0 0 0];

internalField   nonuniform List<scalar> 
30582
(
0.000283147
-3.77014e-07
0.000280735
2.41225e-06
0.000282712
-2.84232e-07
0.000274675
6.06056e-06
0.000279805
5.31917e-06
0.000281418
1.17664e-06
0.000269255
5.41984e-06
0.000273596
1.22691e-05
0.000278947
7.78957e-06
0.000278897
5.26599e-06
0.00026879
4.64407e-07
0.000267986
1.10298e-05
0.000272807
1.84098e-05
0.000274562
1.21238e-05
0.000275104
1.32862e-05
0.000271596
-2.80522e-06
0.000267531
9.19728e-07
0.000267113
1.67237e-05
0.000267761
2.52113e-05
0.000273095
1.41333e-05
0.000267539
2.90544e-05
0.000275906
-4.31018e-06
0.000271054
-6.32844e-06
0.000267198
8.34569e-07
0.000262123
2.23611e-05
0.000265754
3.25521e-05
0.000262976
1.86967e-05
0.000263305
4.92713e-05
0.000278058
-2.15216e-06
0.000276074
-9.3301e-06
0.000271361
-1.04913e-05
0.000262583
3.74659e-07
0.000260086
2.80294e-05
0.000254674
4.08541e-05
0.00026177
2.02313e-05
0.000243364
8.96751e-05
0.000275923
2.13462e-06
0.000278512
-4.59009e-06
0.000277217
-1.51861e-05
0.000269082
-1.699e-05
0.000262068
-1.6079e-06
0.000249979
3.27244e-05
0.00025237
5.02539e-05
0.000234714
2.87538e-05
0.000109577
-1.0078e-05
0.000268084
7.83916e-06
0.000276783
3.86313e-06
0.000281234
-8.60667e-06
0.000277299
-2.34035e-05
0.000269659
-2.45804e-05
0.000253906
-5.53535e-06
0.000246647
3.84479e-05
0.00023027
5.34815e-05
0.000131761
-3.0537e-09
-8.33023e-06
2.17553e-07
0.000254687
1.33968e-05
0.000269214
1.54083e-05
0.000279698
5.39822e-06
0.000282413
-1.37203e-05
0.000279671
-3.34155e-05
0.000265612
-3.62862e-05
0.000250761
-9.64828e-06
0.00023187
3.53878e-05
0.000146351
7.41495e-06
-3.68891e-06
-1.21397e-08
-1.55104e-09
3.31312e-09
0.000236696
1.79916e-05
0.000255808
2.68034e-05
0.000271899
2.32078e-05
0.000282291
5.52049e-06
0.000287648
-2.16976e-05
0.00027994
-4.77434e-05
0.000263983
-4.94978e-05
0.000241071
-1.67027e-05
0.000159332
3.44758e-06
2.87558e-07
-2.65621e-08
-4.89737e-10
-9.21962e-11
2.27756e-10
2.04884e-12
0.000215428
2.12681e-05
0.000237594
3.62055e-05
0.000258118
4.05848e-05
0.000275264
3.02348e-05
0.000288439
4.7298e-06
0.000290815
-3.25731e-05
0.000282337
-6.60902e-05
0.000259262
-5.88424e-05
0.000177607
-7.8587e-06
5.82623e-06
-6.46327e-08
-6.59652e-09
-1.04737e-11
5.021e-12
-1.27946e-15
9.98412e-16
6.90945e-17
0.000192298
2.31293e-05
0.000216031
4.28309e-05
0.000239357
5.49662e-05
0.000261277
5.45717e-05
0.000281025
3.76488e-05
0.000293744
1.80108e-06
0.000297446
-4.76814e-05
0.000284084
-7.94376e-05
0.000208938
-2.1493e-05
1.45408e-05
-2.08595e-07
2.07898e-09
-8.23161e-11
5.01683e-12
-6.1376e-16
-1.36083e-17
-2.46113e-19
1.71749e-18
9.90158e-22
0.000168544
2.37546e-05
0.000192614
4.6546e-05
0.000217172
6.50159e-05
0.000241799
7.44442e-05
0.000266226
6.93705e-05
0.000287488
4.39052e-05
0.000302816
-3.56924e-06
0.000304428
-6.03534e-05
0.000245297
-3.47399e-05
2.94833e-05
-5.4429e-07
5.10627e-08
-4.31344e-10
1.92084e-11
-1.02117e-14
1.89724e-16
-1.97174e-20
3.44369e-21
-7.75534e-26
-4.79682e-27
0.000145097
2.34472e-05
0.00016862
4.77487e-05
0.00019317
7.05481e-05
0.000218713
8.8102e-05
0.000245546
9.51241e-05
0.000271988
8.48702e-05
0.000295624
5.10976e-05
0.000310757
-8.79531e-06
0.000272592
-3.39177e-05
5.36e-05
-1.16233e-06
2.34643e-07
-1.6922e-09
8.11473e-11
-8.57415e-14
1.00762e-15
-2.79606e-19
2.03897e-21
-2.99564e-25
-6.68651e-27
0.000122577
2.25195e-05
0.000144997
4.70708e-05
0.000168696
7.22228e-05
0.000193846
9.54146e-05
0.000221114
0.000112535
0.000249756
0.000117357
0.000278894
0.0001016
0.000306001
5.58534e-05
0.000282111
-9.18816e-06
8.07778e-05
-1.72314e-06
8.03581e-07
-5.19933e-09
2.36605e-10
-4.20314e-13
5.45123e-15
-2.56529e-18
1.43355e-20
-5.93068e-24
1.20127e-26
0.000101324
2.12531e-05
0.000122365
4.51509e-05
0.000144725
7.10413e-05
0.000168665
9.74039e-05
0.000195015
0.000121513
0.000223505
0.000138785
0.000254779
0.000141471
0.000288443
0.000119158
0.000277237
2.01111e-05
9.30892e-05
-1.01514e-06
2.05306e-06
-1.03641e-08
6.46899e-10
-1.60378e-12
1.04038e-14
-1.2762e-17
6.74316e-20
-6.14214e-23
1.09709e-25
8.14504e-05
1.98736e-05
0.000101057
4.25609e-05
0.000121878
6.79976e-05
0.00014419
9.55163e-05
0.000168853
0.000123566
0.000195759
0.000149259
0.000226426
0.000167139
0.000261983
0.000167931
0.000251115
4.37033e-05
9.34198e-05
1.08275e-06
3.4763e-06
-1.02841e-08
1.58762e-09
-3.66184e-12
-2.26384e-14
-5.10567e-17
8.52058e-21
-3.20676e-22
6.53124e-25
6.29037e-05
1.85467e-05
8.11757e-05
3.97554e-05
0.000100471
6.39685e-05
0.000121039
9.11488e-05
0.000143687
0.000120682
0.000168311
0.000151014
0.000196816
0.000178869
0.00023061
0.000198513
0.0002162
5.60515e-05
7.79547e-05
2.95416e-06
3.85688e-06
4.8392e-10
3.10162e-09
-4.35693e-12
-2.14719e-13
-1.15627e-16
-1.3074e-18
-1.41387e-21
1.844e-25
4.55175e-05
1.73862e-05
6.26558e-05
3.70666e-05
8.05833e-05
5.9643e-05
9.95009e-05
8.55066e-05
0.000120119
0.000114718
0.000142273
0.00014672
0.000167962
0.000179868
0.000198534
0.000210944
0.000180042
5.70751e-05
5.75985e-05
3.23517e-06
3.032e-06
2.8509e-08
3.73454e-09
-2.07105e-13
-6.21846e-13
-1.42774e-16
-6.91374e-18
-3.31373e-21
-1.35845e-23
2.90594e-05
1.64581e-05
4.53228e-05
3.47192e-05
6.2131e-05
5.5519e-05
7.96228e-05
7.9521e-05
9.83925e-05
0.000107233
0.00011821
0.00013878
0.000141022
0.000173659
0.000167817
0.000210585
0.000146587
5.05207e-05
4.03074e-05
2.49048e-06
1.48713e-06
2.71817e-08
2.52057e-09
1.93014e-11
-6.18254e-13
-4.9956e-18
-1.96458e-17
-4.41923e-21
-7.70788e-23
1.32593e-05
1.58001e-05
2.89375e-05
3.28433e-05
4.49187e-05
5.19315e-05
6.12859e-05
7.38559e-05
7.85071e-05
9.94065e-05
9.63071e-05
0.000129136
0.000116486
0.000163317
0.000139503
0.000201973
0.000117635
4.09123e-05
2.68356e-05
1.575e-06
6.12311e-07
1.30898e-08
6.92637e-10
1.30212e-11
-2.28955e-13
7.59695e-16
-1.85663e-17
-2.09558e-22
-2.35058e-22
-2.15685e-06
1.54162e-05
1.32228e-05
3.15148e-05
2.8688e-05
4.9074e-05
4.42658e-05
6.89515e-05
6.02985e-05
9.20646e-05
7.6496e-05
0.000119218
9.44437e-05
0.000151178
0.000114086
0.000188734
9.34425e-05
3.11961e-05
1.6981e-05
8.81031e-07
2.25571e-07
4.83255e-09
1.46643e-10
3.79433e-12
-3.11827e-14
4.94108e-16
-7.13454e-18
2.91513e-20
-2.24648e-22
-1.74563e-05
1.52994e-05
-2.1022e-06
3.07412e-05
1.31486e-05
4.70542e-05
2.82812e-05
6.50586e-05
4.35047e-05
8.57452e-05
5.85529e-05
0.000110008
7.47345e-05
0.000138927
9.16191e-05
0.000173644
7.35796e-05
2.28765e-05
1.02148e-05
4.54652e-07
7.4335e-08
1.51238e-09
2.97824e-11
7.51749e-13
-1.4928e-15
1.35179e-16
-9.22673e-19
1.83793e-20
-7.8979e-23
-3.28786e-05
1.54224e-05
-1.73114e-05
3.05086e-05
-1.99154e-06
4.58813e-05
1.30209e-05
6.23145e-05
2.78128e-05
8.07506e-05
4.21632e-05
0.000102135
5.70566e-05
0.000127685
7.18805e-05
0.000158665
5.73383e-05
1.64569e-05
5.86282e-06
2.23414e-07
2.27477e-08
4.2491e-10
6.34031e-12
1.17394e-13
2.02017e-16
2.40733e-17
-4.68127e-20
4.74578e-21
-8.77458e-24
-4.86266e-05
1.5748e-05
-3.26507e-05
3.07617e-05
-1.70181e-05
4.55352e-05
-1.82559e-06
6.07278e-05
1.28858e-05
7.72414e-05
2.69698e-05
9.5944e-05
4.10374e-05
0.000118154
5.44991e-05
0.000145067
4.39982e-05
1.18471e-05
3.25399e-06
1.07144e-07
6.84948e-09
1.13356e-10
1.34191e-12
1.61286e-14
6.21183e-17
3.44558e-18
2.94935e-21
7.80246e-22
-2.69527e-25
-6.48581e-05
1.62315e-05
-4.83292e-05
3.14264e-05
-3.21881e-05
4.59316e-05
-1.65622e-05
6.02718e-05
-1.60873e-06
7.52224e-05
1.25989e-05
9.16123e-05
2.62794e-05
0.000110702
3.90295e-05
0.000133624
3.28987e-05
8.71424e-06
1.77965e-06
5.20984e-08
2.11113e-09
3.04904e-11
2.77896e-13
3.6783e-15
1.51706e-17
5.48852e-19
1.2169e-21
1.09864e-22
5.83681e-26
-8.16746e-05
1.68165e-05
-6.45103e-05
3.24126e-05
-4.77185e-05
4.69569e-05
-3.14625e-05
6.0832e-05
-1.59977e-05
7.46608e-05
-1.31072e-06
8.9132e-05
1.23821e-05
0.00010551
2.50026e-05
0.000124729
2.34365e-05
6.68653e-06
9.75392e-07
2.6932e-08
6.91023e-10
8.74964e-12
6.05655e-14
8.54939e-16
3.67227e-18
1.10064e-19
2.99813e-22
1.79567e-23
1.61235e-26
-9.91175e-05
1.74429e-05
-8.12987e-05
3.36049e-05
-6.37816e-05
4.84757e-05
-4.67586e-05
6.22529e-05
-3.05749e-05
7.54091e-05
-1.51202e-05
8.84703e-05
-1.0349e-06
0.000102549
1.19497e-05
0.000118562
1.50769e-05
5.44136e-06
5.37618e-07
1.55004e-08
2.48364e-10
2.86154e-12
1.47761e-14
2.15538e-16
7.81573e-19
2.24362e-20
6.02811e-23
3.11965e-24
3.23601e-27
-0.000117164
1.80464e-05
-9.8739e-05
3.48832e-05
-8.04959e-05
5.03192e-05
-6.26369e-05
6.43541e-05
-4.55902e-05
7.72682e-05
-2.91561e-05
8.9445e-05
-1.43568e-05
0.000101792
-5.47214e-07
0.000115046
7.36405e-06
4.74141e-06
2.87106e-07
1.0287e-08
9.95637e-11
1.14656e-12
4.23931e-15
6.35081e-17
1.83381e-19
5.03253e-21
1.14747e-23
5.59077e-25
5.37278e-28
-0.000135721
1.85569e-05
-0.000116813
3.61203e-05
-9.79167e-05
5.23041e-05
-7.92289e-05
6.69112e-05
-6.12489e-05
8.00128e-05
-4.36909e-05
9.1803e-05
-2.79224e-05
0.000103011
-1.29606e-05
0.000114206
-1.05092e-07
4.43387e-06
1.24409e-07
7.96163e-09
4.2401e-11
5.95777e-13
1.45151e-15
2.37606e-17
5.13289e-20
1.36685e-21
2.51598e-24
1.13625e-25
9.16915e-29
-0.000154624
1.89035e-05
-0.000135432
3.71754e-05
-0.000116035
5.42382e-05
-9.66053e-05
6.96806e-05
-7.77014e-05
8.33637e-05
-5.8956e-05
9.52779e-05
-4.20239e-05
0.000105905
-2.57109e-05
0.000115761
-7.4988e-06
4.43934e-06
-6.8245e-09
7.12659e-09
1.40226e-11
4.0565e-13
5.44976e-16
1.19915e-17
1.71956e-20
4.93429e-22
7.02723e-25
2.92193e-26
1.88008e-29
-0.000173652
1.90277e-05
-0.000154436
3.79081e-05
-0.00013477
5.59104e-05
-0.000114773
7.24058e-05
-9.50383e-05
8.70175e-05
-7.51286e-05
9.95363e-05
-5.69138e-05
0.000110168
-3.91224e-05
0.000119316
-1.50598e-05
4.75077e-06
-1.41581e-07
7.2435e-09
-5.59881e-12
3.4793e-13
1.47538e-16
8.15094e-18
6.15825e-21
2.48538e-22
2.46674e-25
1.03767e-26
4.9935e-30
-0.000192519
1.88671e-05
-0.000173606
3.81976e-05
-0.000153971
5.7109e-05
-0.000133667
7.48041e-05
-0.000113287
9.06543e-05
-9.2327e-05
0.000104216
-7.27952e-05
0.000115418
-5.3493e-05
0.000124538
-2.30919e-05
5.39544e-06
-3.1491e-07
8.34033e-09
-2.70587e-11
3.61159e-13
-1.50093e-16
7.02682e-18
1.24493e-21
1.7081e-22
9.31739e-26
5.22327e-27
1.66671e-30
-0.0002109
1.83803e-05
-0.000192656
3.79163e-05
-0.000173419
5.76461e-05
-0.000153146
7.65879e-05
-0.000132402
9.39187e-05
-0.000110606
0.000108933
-8.98185e-05
0.000121239
-6.90668e-05
0.000130991
-3.18924e-05
6.44937e-06
-5.76657e-07
1.08503e-08
-6.27856e-11
4.52343e-13
-4.97892e-16
7.3156e-18
-2.43239e-21
1.48639e-22
2.13419e-26
3.60356e-27
5.97616e-31
-0.000228424
1.7525e-05
-0.000211253
3.69774e-05
-0.000192827
5.73242e-05
-0.000172997
7.74972e-05
-0.000152257
9.64437e-05
-0.000129946
0.000113258
-0.000108076
0.00012719
-8.60271e-05
0.0001382
-4.17674e-05
8.01755e-06
-1.0039e-06
1.58261e-08
-1.33946e-10
6.85223e-13
-1.09159e-15
9.16606e-18
-6.66566e-21
1.55053e-22
-3.19864e-26
3.15184e-27
1.19174e-31
-0.000244716
1.62914e-05
-0.00022902
3.52921e-05
-0.000211854
5.60041e-05
-0.00019293
7.72576e-05
-0.000172653
9.78923e-05
-0.000150242
0.000116741
-0.000127587
0.00013277
-0.00010449
0.000145654
-5.30194e-05
1.0217e-05
-1.71821e-06
2.54656e-08
-3.03213e-10
1.26913e-12
-2.51971e-15
1.39962e-17
-1.40535e-20
1.9282e-22
-9.48222e-26
3.30234e-27
-2.40207e-31
-0.000259409
1.46931e-05
-0.000245564
3.28356e-05
-0.000230104
5.35429e-05
-0.000212593
7.56675e-05
-0.000193299
9.79036e-05
-0.000171312
0.000118962
-0.000148289
0.000137442
-0.000124493
0.000152772
-6.59338e-05
1.31532e-05
-2.8948e-06
4.38389e-08
-7.37614e-10
2.8203e-12
-6.5814e-15
2.67674e-17
-3.21139e-20
2.92157e-22
-2.04812e-25
4.10544e-27
-6.49363e-31
1.27666e-05
-0.000272175
-0.000260495
2.96244e-05
-0.000247163
4.98947e-05
-0.000231567
7.2517e-05
-0.000213833
9.62015e-05
-0.000192872
0.000119464
-0.000170029
0.000140702
-0.000145976
0.000158925
-8.07699e-05
1.68877e-05
-4.76352e-06
7.80748e-08
-1.8902e-09
7.15881e-12
-1.96718e-14
6.32747e-17
-8.5005e-20
5.62489e-22
-4.58355e-25
6.20412e-27
-1.3746e-30
2.56982e-05
-0.000273427
2.09765e-05
-0.000293152
-0.000262617
4.50778e-05
-0.000249399
6.77267e-05
-0.000233805
9.24895e-05
-0.000214553
0.000117882
-0.000192555
0.000141991
-0.000168767
0.000163493
-9.77784e-05
2.1413e-05
-7.59645e-06
1.39797e-07
-4.97171e-09
1.9651e-11
-6.52525e-14
1.75323e-16
-2.6219e-19
1.37662e-21
-1.17876e-24
1.19581e-26
-3.15131e-30
3.91724e-05
-0.000276091
4.24195e-05
-0.00029487
4.80019e-06
-0.000297952
-0.000265636
6.13148e-05
-0.000252713
8.66348e-05
-0.000235866
0.000113802
-0.000215485
0.000140811
-0.000192598
0.000165822
-0.000117146
2.66055e-05
-1.16499e-05
2.44984e-07
-1.30752e-08
5.57611e-11
-2.29665e-13
5.34502e-16
-9.11817e-19
4.08562e-21
-3.65555e-24
2.97263e-26
-8.41039e-30
5.33809e-05
-0.000279845
6.52462e-05
-0.000298918
1.06868e-05
-0.000300756
-1.22012e-05
-0.000285751
-0.000270037
7.86383e-05
-0.000256233
0.000107002
-0.000238285
0.000136603
-0.000217105
0.000165318
-0.000138926
3.2186e-05
-1.71371e-05
4.14549e-07
-3.37546e-08
1.57933e-10
-8.24047e-13
1.70232e-15
-3.37553e-18
1.36833e-20
-1.33703e-23
9.23371e-26
-2.72662e-29
6.87112e-05
-0.000285367
8.97009e-05
-0.0003043
1.77029e-05
-0.000305934
-2.16588e-05
-0.000291299
-3.08775e-05
-0.000254873
-0.000275001
9.74065e-05
-0.000260296
0.000129013
-0.000241831
0.000161329
-0.000163056
3.77437e-05
-2.42772e-05
6.76199e-07
-8.37287e-08
4.33244e-10
-2.89793e-12
5.45029e-15
-1.24556e-17
4.84544e-20
-5.39033e-23
3.34151e-25
-1.06002e-28
8.52814e-05
-0.000291571
0.000116812
-0.000312478
2.62865e-05
-0.000312883
-3.06097e-05
-0.000296983
-5.50638e-05
-0.000267112
-5.28994e-05
-0.000201974
-0.000280676
0.000117787
-0.000266108
0.00015329
-0.000189246
4.26905e-05
-3.3289e-05
1.05632e-06
-1.95286e-07
1.12651e-09
-9.71227e-12
1.87809e-14
-4.04349e-17
1.7249e-19
-2.21386e-22
1.30755e-24
-4.6559e-28
0.000103211
-0.000298606
0.000146717
-0.000321476
3.70127e-05
-0.000323204
-3.6458e-05
-0.000307035
-7.67267e-05
-0.00027532
-9.24628e-05
-0.000227549
-0.000114627
-8.73468e-05
-0.000288675
0.000140353
-0.000216798
4.62835e-05
-4.43046e-05
1.56391e-06
-4.24191e-07
2.74859e-09
-3.1523e-11
8.54091e-14
-1.42872e-16
6.02533e-19
-8.30413e-22
5.20866e-24
-2.13487e-27
0.000122267
-0.000307731
0.000180266
-0.000332154
4.92489e-05
-0.000333712
-4.17393e-05
-0.000317923
-9.34653e-05
-0.000290296
-0.000124416
-0.000243366
-0.000181752
-0.000160424
-0.000123076
3.57288e-05
-0.000244667
4.7487e-05
-5.72345e-05
2.15623e-06
-8.49972e-07
6.20067e-09
-1.03295e-10
3.5749e-13
-5.45827e-16
2.53007e-18
-2.89124e-21
2.02355e-23
-9.35713e-27
4.54462e-05
-0.000272221
0.000217111
-0.000344576
6.48289e-05
-0.000347734
-4.50021e-05
-0.00033045
-0.000108964
-0.000302424
-0.000145947
-0.000268765
-0.000214514
-0.000210604
-0.000207563
-7.59367e-05
-0.000285718
0.000321447
-7.21411e-05
2.72824e-06
-1.56347e-06
1.26528e-08
-3.34639e-10
1.35112e-12
-1.66358e-15
1.12574e-17
-1.00813e-20
8.19546e-23
-3.66983e-26
3.15351e-06
-8.95616e-05
9.24254e-05
-0.000323016
8.10704e-05
-0.000360808
-4.89388e-05
-0.000343797
-0.000124135
-0.000315278
-0.000165281
-0.000283091
-0.000218943
-0.000264336
-0.000247348
-0.00017082
-0.000393004
3.13492e-05
-0.000110747
0.000432194
-2.68371e-06
2.28387e-08
-1.00453e-09
4.45406e-12
-1.7681e-15
4.6559e-17
-2.70585e-20
3.65756e-22
-1.3564e-25
3.53659e-08
-4.28469e-06
7.25387e-06
-0.000123335
3.89659e-05
-0.000341039
-4.7193e-05
-0.000359486
-0.000140741
-0.000327187
-0.000183467
-0.000297092
-0.000219948
-0.000282086
-0.000252263
-0.000259421
-0.000399914
-0.000163908
-0.000148361
6.89628e-05
0.000267258
0.000164935
-2.68637e-09
1.23213e-11
1.62212e-14
1.68101e-16
2.04619e-20
1.60074e-21
-4.33911e-25
2.58206e-11
-5.4796e-09
9.09595e-08
-7.24594e-06
3.02869e-06
-0.000124894
-2.98738e-05
-0.000335575
-0.000148561
-0.000341297
-0.000204499
-0.000306103
-0.000227047
-0.000289992
-0.000245498
-0.000288851
-0.000337488
-0.000321847
-0.000135046
-0.000177223
0.000318741
1.74791e-05
0.00144282
0.000205639
-0.00148352
1.36168e-13
5.02734e-16
7.96005e-19
6.23662e-21
-5.11112e-25
1.11911e-15
4.84236e-13
7.5315e-11
-1.24747e-08
1.67408e-08
-6.71945e-06
-2.8492e-06
-0.00010999
-8.28875e-05
-0.000307153
-0.000210409
-0.000317116
-0.000241327
-0.000291629
-0.000243839
-0.000291652
-0.000271843
-0.000354496
-0.000125191
-0.000331701
0.000300606
-0.000159088
0.00131059
0.00014971
0.00144184
0.000343718
-0.00157992
0.000157369
-0.00164088
5.72569e-18
1.99743e-20
6.51029e-24
4.74399e-20
2.0363e-17
3.11194e-15
1.52884e-12
4.85844e-12
-9.90531e-09
-3.13624e-08
-4.05157e-06
-4.65173e-06
-6.93422e-05
-8.82907e-05
-0.000261992
-0.000235231
-0.000295065
-0.000249262
-0.000285795
-0.000238864
-0.00032463
-0.000113506
-0.000366181
0.000250475
-0.000281571
0.00109975
5.17473e-05
0.00125469
0.00033686
0.00143127
0.00054251
-0.00163006
0.000278352
-0.0017009
9.75381e-05
-0.00173842
6.53552e-23
2.69364e-22
1.24005e-19
5.7103e-17
4.2336e-17
2.27232e-12
-1.92262e-11
-3.8967e-09
-3.20171e-08
-1.51349e-06
-3.12719e-06
-3.50022e-05
-6.86778e-05
-0.000212167
-0.000232931
-0.000273517
-0.000236933
-0.000287208
-0.00011709
-0.000321046
0.000197157
-0.000312864
0.000852283
-3.41035e-05
0.00103388
0.00027256
0.00119931
0.000568814
0.00147851
0.00079059
-0.0017266
0.000449667
-0.00180138
0.000201665
-0.00180504
5.49883e-05
-0.00179342
7.81769e-22
-9.27512e-22
8.48137e-17
-6.79565e-16
1.00277e-12
-1.41736e-11
-1.07723e-09
-1.60946e-08
-4.28631e-07
-1.66893e-06
-1.59558e-05
-4.76613e-05
-0.000167927
-0.000217759
-0.000250876
-0.000149447
-0.000254575
0.000106651
-0.000230539
0.000581655
-4.22357e-05
0.000754386
0.00024539
0.000927888
0.000543984
0.00121585
0.00083148
0.00149006
0.00115258
-0.00185205
0.000677169
-0.0019541
0.000321505
-0.00192122
0.000106836
-0.00185689
1.42962e-05
-0.00180772
1.07605e-21
-2.29696e-20
2.87544e-17
-4.45757e-16
2.22458e-13
-5.49194e-12
-3.10442e-10
-6.12681e-09
-8.67546e-08
-8.67793e-07
-6.61014e-06
-3.34864e-05
-0.000133036
-0.000171473
-0.000192908
-2.22786e-05
-0.00012562
0.00033134
1.97764e-05
0.000446197
0.000265953
0.00066094
0.000512341
0.000934583
0.000825248
0.00118166
0.00113988
0.00154715
0.00154304
-0.00193761
0.000980005
-0.00215488
0.000472223
-0.00210482
0.000159257
-0.00197364
1.61935e-05
-0.00185878
-3.09695e-05
-0.00177675
3.05493e-22
-1.2787e-20
6.50364e-18
-1.6011e-16
3.22492e-14
-1.6126e-12
-9.63061e-11
-2.17427e-09
4.00685e-09
-4.61459e-07
-1.92891e-06
-2.38914e-05
-8.8181e-05
-0.000123932
-6.58762e-05
0.00011634
8.93805e-05
0.000190707
0.000275267
0.00044915
0.000477742
0.000659956
0.00078697
0.000921331
0.00108557
0.00113054
0.00155648
0.00147912
0.00044869
-0.00174308
0.000446384
0.000456294
0.000455628
0.00123615
-0.00219375
0.000623487
-0.00230615
0.000206643
-0.0021522
7.99742e-06
-0.00196544
-6.39378e-05
-0.0018258
-6.81379e-05
-0.00170861
5.72775e-23
-4.0836e-21
1.04349e-18
-4.29136e-17
4.43706e-15
-4.3788e-13
-2.18198e-11
-7.7857e-10
1.83415e-08
-2.43809e-07
1.18027e-06
-1.78966e-05
-2.47651e-05
-5.11357e-05
0.0001115
1.83224e-05
0.000261765
0.000278895
0.000445522
0.000417696
0.000720002
0.000673212
0.00103509
0.000810876
0.00140524
0.00108756
0.00194805
-6.09962e-07
0.000334616
-0.000358787
0.000473471
0.000378186
-0.00193833
0.000376169
0.000338597
0.000338448
0.000334618
-0.000359318
0.000470474
-6.17991e-07
0.000298859
0.000492669
0.000300403
0.000489226
0.000733632
-0.0023039
0.000212298
-0.00231181
-3.0847e-05
-0.00211336
-0.000117225
-0.00191215
-0.000142747
-0.00175119
-0.000102595
-0.00160601
7.30286e-24
-9.85904e-22
1.56108e-19
-1.03339e-17
1.43155e-15
-1.18142e-13
-7.46314e-13
-2.75246e-10
1.5465e-08
-1.27462e-07
3.19804e-06
-1.16182e-05
5.73988e-05
-8.19794e-05
0.000231119
9.84349e-05
0.000442226
0.000207198
0.00065602
0.000401777
0.000991437
0.000586445
0.00125953
0.000669828
0.00182297
-0.000244308
-0.000246503
0.000858339
0.000537171
0.000533297
0.000554587
0.000554727
-9.57339e-07
-0.000369385
0.000389741
-3.58763e-07
0.000263765
-0.000297723
0.000507788
-0.00176136
0.000556662
-0.000369038
0.000384931
-4.07255e-07
-0.000338401
0.000308021
-0.000337141
0.000306144
0.000263243
-0.000294729
0.000501601
-1.40326e-07
0.000512266
0.000505825
7.84293e-05
-0.00217003
-0.000141605
-0.00220105
-0.000215694
-0.00201489
-0.000230829
-0.00182407
-0.000213255
-0.00164053
-0.000131813
-0.00147419
8.02725e-25
-2.14336e-22
3.35482e-20
-2.38685e-18
6.90862e-16
-3.14872e-14
2.05018e-12
-9.43457e-11
9.37121e-09
-5.59884e-08
5.04496e-06
-9.40082e-06
9.67573e-05
-6.2711e-05
0.00040995
2.41359e-05
0.000625282
0.000117548
0.00094025
0.000398243
0.00117964
0.000343248
0.0015861
0.000556936
0.000532251
0.000532003
0.000531319
0.000528799
4.36956e-07
0.000124452
-0.000156629
0.000568911
0.000124347
-0.000155843
0.00056523
-3.08064e-07
0.00011467
0.000564677
0.00011411
0.000564656
-5.49968e-07
-0.000310981
0.000403549
7.90461e-07
0.000193242
-0.000191599
0.00015004
9.95241e-05
0.000150421
0.000105369
-0.00137396
-0.000308952
0.000275626
0.000271769
-0.000770407
-6.76772e-05
-4.56948e-05
0.000108911
0.000108597
-0.000308032
0.000397685
-2.49978e-07
0.000272917
0.000269632
0.000192414
-0.000189948
0.000147164
0.000101466
0.000147593
0.000103702
1.06474e-06
0.000157761
0.000116887
0.000159743
0.000113423
0.000155803
0.000118709
0.00015725
0.000111699
-0.000372264
-0.00193937
-0.000383392
-0.00203335
-0.00035557
-0.00189015
-0.000334987
-0.00170233
-0.000268336
-0.00150401
-0.000150732
-0.00132344
1.31556e-25
-4.36752e-23
9.88158e-21
-5.5299e-19
2.35482e-16
-7.64288e-15
1.36449e-12
-2.88171e-11
4.45308e-09
-3.51515e-08
5.8217e-06
-7.55782e-06
0.000150236
-9.18958e-05
0.000546612
-7.74168e-05
0.000820717
0.000183631
0.00115486
0.000118531
0.00140436
0.000297024
0.000461941
0.000459836
0.000463167
0.000461072
-2.80333e-07
9.89204e-05
0.000548281
9.80443e-05
0.000547788
-2.13775e-07
8.4145e-05
0.000546308
8.22472e-05
0.000544383
6.67746e-07
5.69904e-05
-2.93366e-05
-1.22849e-05
0.000115749
-2.15473e-05
0.000166877
0.000118393
0.000170234
3.1974e-06
5.69516e-05
-2.94041e-05
-1.14514e-05
-2.21025e-05
0.00011493
0.000166577
0.000117779
0.000168429
4.18901e-06
8.63956e-07
4.5847e-05
0.000118533
0.000166812
0.000119317
0.00017034
4.63249e-05
0.000119283
0.000166841
0.000119927
0.000170095
4.02423e-07
-0.000143399
0.000115054
6.29794e-05
0.000120747
5.61662e-05
-2.42343e-05
7.74903e-06
5.7183e-09
2.38609e-05
0.000142659
-8.37026e-06
1.45261e-05
-9.93493e-06
0.000103303
-6.83394e-09
-1.95242e-05
0.000137347
1.70411e-05
0.000110603
-0.000990288
-0.000755928
-0.000222865
-0.000257606
-0.000236922
-0.000192834
-0.000168976
8.25077e-07
4.51181e-05
2.57912e-05
-0.000139412
5.84985e-05
1.11015e-05
-0.00011447
-2.60168e-06
9.37071e-05
6.2924e-05
9.59783e-05
6.85158e-05
-0.000143044
0.000113733
6.39479e-05
0.000118842
5.46597e-05
-8.5341e-07
8.54115e-05
2.78706e-05
7.04561e-05
4.03399e-05
8.40634e-05
2.99848e-05
6.91451e-05
3.85198e-05
-2.30235e-05
7.04426e-06
2.28498e-05
0.000140299
-8.26303e-06
1.37377e-05
-9.13938e-06
0.000105131
-1.87064e-05
0.000135006
1.59827e-05
0.000108501
2.14479e-05
1.24646e-05
1.91466e-07
0.000147518
-1.69507e-05
-1.99188e-05
0.00012442
4.19161e-07
0.000151539
0.00012301
2.05871e-05
1.2388e-05
0.000145869
-1.68061e-05
-1.94814e-05
0.000125592
0.000149998
0.000120589
-0.000628833
-0.00169393
-0.000532818
-0.00185611
-0.000470827
-0.00175431
-0.00041262
-0.00155805
-0.000306863
-0.00134788
-0.000169412
-0.00115405
2.99967e-26
-8.76944e-24
2.82154e-21
-1.19263e-19
5.66194e-17
-1.63519e-15
5.18228e-13
-1.08785e-11
2.35654e-09
-1.77113e-08
5.00728e-06
-5.86806e-06
0.00016602
-0.000122291
0.000629693
-4.73806e-05
0.00105241
-2.75512e-05
0.00130094
7.89075e-05
0.000398076
0.000399085
0.000413135
0.000412178
2.78332e-08
3.68829e-05
0.000509176
3.60262e-05
0.000506085
3.21214e-07
1.59165e-05
0.000483812
1.64171e-05
0.000481002
1.09978e-06
3.67268e-05
0.000113873
0.000160067
0.000116557
0.000165838
3.73854e-05
0.000114532
0.000159746
0.00011851
0.000165049
1.63299e-06
2.20818e-05
0.000116945
0.000160995
0.000118049
0.000163324
2.18757e-05
0.000118553
0.000160553
0.000119667
0.000162734
-9.44161e-07
-6.81959e-06
-1.80251e-06
0.000125315
-2.30061e-06
-9.15796e-06
0.000114331
-8.60118e-06
-3.10318e-08
0.000167187
7.34633e-06
-5.27907e-06
-5.43305e-06
0.000122285
2.38163e-07
-6.03736e-06
0.000162137
3.42514e-07
-1.50881e-06
0.000153618
-3.12108e-06
-9.22709e-06
0.000115838
-7.86931e-07
-7.38027e-06
-1.29937e-06
0.000124396
-8.83569e-06
8.52785e-06
0.000166067
-5.35263e-06
-5.72863e-06
0.00012148
-6.58807e-06
0.000161067
-5.86392e-07
0.000151995
-6.47216e-06
6.73625e-06
-7.83366e-06
0.000126102
5.06609e-06
1.93926e-07
-5.01903e-06
0.0001601
-5.84729e-06
0.000126467
2.53042e-07
0.000163238
-6.68746e-06
6.50332e-06
-7.09139e-06
0.000126559
5.26071e-06
-5.04533e-06
0.000160132
-5.99658e-06
0.000126699
0.000163024
1.56277e-05
6.15444e-06
-3.16636e-07
-1.06598e-05
0.000104249
-8.82165e-06
6.9268e-07
6.11735e-05
-8.69891e-08
0.000108116
1.31154e-05
4.98979e-05
-8.76079e-06
7.40817e-07
-1.85739e-07
8.17808e-06
0.000142686
-7.48108e-07
-3.37382e-06
1.46443e-05
9.27808e-05
-3.64274e-07
-5.61026e-06
0.00013383
1.81624e-06
0.000106154
-0.000677675
-0.000941443
0.000191404
-0.0003094
-0.000296522
-0.000291688
-0.000271889
3.06017e-06
-7.4021e-05
0.000124438
-0.000310805
-6.79396e-05
0.00012304
-0.000288893
3.59055e-06
-0.00024463
-0.000222221
-9.47484e-08
-8.73288e-05
0.000124421
-6.38415e-05
-4.07e-05
-4.85077e-05
-2.33269e-05
-7.67648e-05
0.000114286
-5.671e-05
-3.55554e-05
-4.26169e-05
-1.7203e-05
-1.64545e-06
-3.87596e-05
1.58173e-05
9.20415e-06
-4.96648e-05
2.82921e-05
-1.62135e-05
1.26411e-05
1.59372e-05
-3.78471e-05
1.67332e-05
9.62096e-06
-4.95035e-05
2.90508e-05
-1.2987e-05
1.84388e-05
1.65994e-05
1.55671e-05
6.0751e-06
-1.10069e-05
0.000102782
-9.0891e-06
1.05441e-06
6.28432e-05
0.000106526
1.27996e-05
4.89897e-05
-1.45944e-05
1.27001e-05
-3.15051e-07
7.6961e-05
-1.47186e-05
-2.34469e-05
2.72765e-05
-4.32118e-07
5.7408e-05
4.27084e-05
-1.51721e-05
1.22048e-05
7.57088e-05
-1.40513e-05
-2.28651e-05
2.90541e-05
5.62228e-05
4.0659e-05
-7.80792e-06
9.37352e-08
7.4604e-06
0.000140367
6.35821e-08
-4.15722e-06
1.58451e-05
9.33793e-05
-4.63184e-06
0.00013153
8.70963e-07
0.000103566
4.39884e-06
2.56362e-07
0.000149513
0.000120067
5.18099e-06
0.000147818
0.000117413
-0.000719407
-0.00150734
-0.000622665
-0.00170427
-0.000553842
-0.00161309
-0.000468778
-0.00139615
-0.000334517
-0.00118278
-0.000188912
-0.000965136
5.42491e-27
-1.48658e-24
5.55275e-22
-2.51216e-20
1.38791e-17
-3.98859e-16
1.14148e-13
-3.25687e-12
6.73251e-10
-6.16667e-09
3.2273e-06
-3.75993e-06
0.000144683
-0.000116518
0.000747856
-0.000175293
0.00120252
-0.000104582
0.000355916
0.000355361
0.00038608
0.000387123
3.76577e-07
2.1091e-06
0.000411506
3.1076e-06
0.000412771
5.31817e-08
-1.93756e-05
0.000434567
-1.8048e-05
0.000433387
1.48414e-06
7.73511e-06
0.000108703
0.000150665
0.000112197
0.000150439
6.13514e-06
0.000110117
0.000149816
0.000113665
0.000149719
2.04397e-06
-9.85295e-06
0.00010696
0.000141113
0.000106759
0.000144552
-1.31946e-05
0.000108759
0.000140425
0.000109146
0.00014407
-6.39133e-06
-8.03057e-06
0.000120461
-4.44386e-06
1.63318e-07
0.000152922
-7.01539e-06
-7.45317e-06
0.00012299
7.80718e-08
-1.08889e-06
0.000155356
-6.51757e-06
-7.2534e-06
0.000121211
-4.38352e-06
0.000152729
-6.63318e-06
-7.20833e-06
0.000125098
-1.05234e-06
0.000155172
-7.90099e-06
8.30963e-06
-1.01466e-05
0.000126687
2.91677e-06
8.58103e-08
-5.42904e-06
0.000155501
-7.17334e-06
0.000126083
3.95539e-08
0.000157957
-7.87109e-06
8.50563e-06
-1.05318e-05
0.00012845
2.69066e-06
-5.36137e-06
0.00015543
-6.88144e-06
0.000127845
0.000157521
9.94453e-08
7.36595e-06
3.19507e-07
-2.44358e-05
-3.09334e-05
-6.70036e-08
7.28999e-08
1.16708e-05
4.92379e-07
-9.79935e-06
5.51327e-08
-9.23963e-06
-3.11715e-07
7.59784e-06
3.23964e-07
-2.45255e-05
1.23305e-05
-3.12009e-05
4.86232e-07
-1.00033e-05
-9.60806e-06
4.16824e-07
8.81022e-06
-8.1552e-06
6.22749e-06
1.60332e-08
-5.20103e-06
6.39824e-07
7.68063e-08
4.21591e-07
8.76892e-06
-8.08597e-06
6.39457e-06
-5.17708e-06
6.01563e-07
5.11716e-06
6.34422e-06
-4.04795e-07
-6.94404e-06
0.000100123
-6.52737e-06
2.17614e-05
6.05837e-05
-3.52403e-07
0.000101433
3.17903e-05
4.62131e-05
2.30342e-06
2.93073e-06
-8.09325e-10
-7.40117e-06
-2.09688e-06
-1.36542e-05
1.77288e-05
-1.38252e-07
3.36437e-06
-1.37079e-05
-0.000518675
-0.0008784
0.00038331
-0.000282556
-0.000278715
-0.000292472
-0.000279159
3.13159e-06
-0.000149573
0.000155764
-0.000318115
-0.000159431
0.000171717
-0.000305168
3.15118e-06
-0.000319445
-0.000304819
3.76295e-06
-0.000170293
0.000185154
-9.8677e-05
-6.5205e-05
-9.62315e-05
-6.92472e-05
-0.000166677
0.000189905
-9.19406e-05
-6.16526e-05
-8.93567e-05
-6.54156e-05
2.97008e-06
-7.99914e-05
-5.95684e-05
-8.77529e-05
-6.61943e-05
-7.3592e-05
-5.51832e-05
-8.08168e-05
-6.20427e-05
-2.13699e-05
-4.94007e-05
5.29409e-05
-4.60129e-05
-4.03258e-05
4.0325e-08
5.1683e-05
-7.3516e-05
-1.59303e-05
-4.81526e-05
-3.38256e-05
-3.20245e-07
-2.73485e-05
-5.19142e-05
-2.05732e-05
-4.68376e-05
5.16496e-05
-4.0949e-05
-3.88042e-05
5.11661e-05
-6.84502e-05
-1.50008e-05
-4.52586e-05
-2.91951e-05
-2.49225e-05
-4.64056e-05
-1.22516e-06
4.00473e-05
-4.88316e-05
1.92136e-05
-1.17007e-05
-4.39802e-05
3.32927e-05
8.76471e-06
-7.31331e-07
1.98728e-05
-8.74454e-07
-1.29881e-05
-1.13307e-05
-1.1411e-06
-1.77897e-05
-4.70425e-07
1.26196e-05
4.9513e-05
2.14355e-08
3.85968e-05
-4.80386e-05
1.90413e-05
-1.0828e-05
-4.33784e-05
3.37569e-05
7.19594e-06
2.14448e-05