/*--------------------------------*- C++ -*----------------------------------*\
| =========                 |                                                 |
| \\      /  F ield         | OpenFOAM: The Open Source CFD Toolbox           |
|  \\    /   O peration     | Version:  5.x                                   |
|   \\  /    A nd           | Web:      www.OpenFOAM.org                      |
|    \\/     M anipulation  |                                                 |
\*---------------------------------------------------------------------------*/
FoamFile
{
    version     2.0;
    format      ascii;
    class       volScalarField;
    location    "1.1";
    object      alpha.water;
}
// * * * * * * * * * * * * * * * * * * * * * * * * * * * * * * * * * * * * * //

dimensions      [0 0 0 0 0 0 0];

internalField   nonuniform List<scalar> 
12160
(
1
1
1
1
1
1
1
1
1
1
1
1
1
1
1
1
1
1
1
1
1
1
1
1
1
1
1
1
1
1
1
1
1
1
1
1
1
1
1
1
1
1
1
0.999769
0.653159
1
1
1
1
1
1
1
0.997571
0.673384
0.029633
1
1
1
1
1
1
0.999997
0.994678
0.650085
0.0321601
0.000632548
1
1
1
1
1
1
0.999996
0.990849
0.627809
0.0389522
2.18201e-05
2.79895e-06
1
1
1
1
1
1
0.999999
0.991065
0.620195
0.0416981
9.76754e-05
1.26673e-07
8.53613e-10
1
1
1
1
1
1
1
0.994489
0.635428
0.0492949
0.000180527
8.27805e-08
1.91405e-12
2.2145e-14
1
1
1
1
1
1
1
0.998206
0.6677
0.0631401
0.000371422
1.54487e-07
4.89545e-12
4.43877e-16
2.49784e-19
1
1
1
1
1
1
1
0.999952
0.697545
0.0861464
0.000716921
5.25009e-07
1.64831e-11
1.08378e-16
1.52327e-22
1
1
1
1
1
1
1
1
0.713329
0.114916
0.00143673
1.47226e-06
9.9681e-11
4.86366e-16
1.63737e-21
1
1
1
1
1
1
1
1
0.711368
0.135989
0.00275958
4.06333e-06
3.59644e-10
3.1823e-15
9.11083e-21
1
1
1
1
1
1
1
1
0.688208
0.138661
0.00441392
9.67397e-06
1.24999e-09
1.15786e-14
7.37047e-20
1
1
1
1
1
1
1
1
0.646215
0.126905
0.00521912
1.82605e-05
3.32475e-09
4.31027e-14
2.94883e-19
1
1
1
1
1
1
1
1
0.592209
0.103985
0.00467532
2.50215e-05
7.03001e-09
1.14756e-13
1.24127e-18
1
1
1
1
1
1
1
1
0.532053
0.0792778
0.00311229
2.20028e-05
1.07434e-08
2.5085e-13
3.43447e-18
1
1
1
1
1
1
1
1
0.47065
0.0572892
0.00170762
1.1244e-05
8.9778e-09
3.96283e-13
8.05062e-18
1
1
1
1
1
1
1
1
0.411527
0.0396356
0.000852321
4.10824e-06
3.33444e-09
3.34184e-13
1.33683e-17
1
1
1
1
1
1
1
1
0.357138
0.0265132
0.000397833
1.2694e-06
7.49859e-10
1.19936e-13
1.14759e-17
1
0.999999
1
1
1
1
1
1
0.309042
0.0173591
0.00017733
3.48732e-07
1.26684e-10
2.51373e-14
4.02008e-18
1
1
1
1
1
1
1
1
0.268089
0.011307
7.7216e-05
8.88297e-08
1.8335e-11
3.88194e-15
7.9663e-19
1
1
1
1
1
1
1
1
0.234615
0.00748139
3.36862e-05
2.19657e-08
3.00616e-12
5.49638e-16
1.16689e-19
1
1
1
1
1
1
1
1
0.208614
0.0051499
1.52676e-05
5.55296e-09
6.40598e-13
9.40505e-17
1.66154e-20
1
1
1
1
1
1
1
1
0.189876
0.00377353
7.51846e-06
1.51719e-09
1.41115e-13
1.75952e-17
2.68522e-21
0.999999
0.999999
1
1
1
1
1
1
0.178089
0.00299305
4.21336e-06
4.81668e-10
3.42867e-14
3.41655e-18
4.40714e-22
0.999999
0.999999
0.999999
1
1
1
1
1
0.172932
0.00258626
2.77823e-06
1.92593e-10
1.00244e-14
7.50915e-19
7.65168e-23
1
0.999999
0.999999
0.999999
1
1
1
1
0.174022
0.00243222
2.16775e-06
1.02457e-10
3.85822e-15
2.07419e-19
1.55631e-23
1
1
0.999999
0.999999
0.999999
1
1
1
0.181182
0.00247194
1.96868e-06
7.21144e-11
2.04596e-15
7.84007e-20
4.13199e-24
1
1
1
1
0.999999
1
1
1
0.194193
0.00271093
2.03153e-06
6.35278e-11
1.45672e-15
4.15113e-20
1.53123e-24
1
1
1
1
1
1
1
1
0.21285
0.00319321
2.37787e-06
6.67387e-11
1.29546e-15
2.96817e-20
7.99034e-25
1
1
1
1
1
1
1
1
0.236925
0.0040135
3.16053e-06
8.34746e-11
1.3637e-15
2.65451e-20
5.67589e-25
1
1
1
1
1
1
1
1
0.266122
0.00532706
4.7638e-06
1.2603e-10
1.69282e-15
2.8062e-20
5.08123e-25
1
1
1
1
1
1
1
1
0.300045
0.00735291
8.04332e-06
2.35223e-10
2.53347e-15
3.47995e-20
5.40497e-25
1
1
1
1
1
1
1
1
0.338176
0.0103749
1.47683e-05
5.37431e-10
4.76199e-15
5.1916e-20
6.75254e-25
1
1
1
1
1
1
1
1
0.379852
0.0147319
2.84795e-05
1.43157e-09
1.12797e-14
9.77458e-20
1.01646e-24
1
1
1
1
1
1
1
1
0.424267
0.020789
5.5963e-05
4.18317e-09
3.21932e-14
2.35477e-19
1.93631e-24
1
1
1
1
1
1
1
1
0.470469
0.028891
0.00010942
1.27424e-08
1.03311e-13
7.04563e-19
4.73743e-24
1
1
1
1
1
1
1
1
0.517391
0.0393196
0.00020942
3.90047e-08
3.50684e-13
2.44569e-18
1.46326e-23
1
1
1
1
1
1
1
1
0.563883
0.0522564
0.0003893
1.16769e-07
1.20523e-12
9.16328e-18
5.38886e-23
1
1
1
1
1
1
1
1
0.608722
0.0677141
0.000700289
3.34254e-07
4.12575e-12
3.50038e-17
2.19674e-22
1
1
1
1
1
1
1
1
0.65067
0.0854268
0.00121263
9.06486e-07
1.72213e-11
1.31157e-16
9.27612e-22
0.68857
1
1
1
1
1
1
1
1
0.104881
0.00200106
2.31286e-06
7.62366e-11
5.21444e-16
3.86485e-21
0.125316
0.739027
1
1
1
1
1
1
1
1
0.00312016
5.47003e-06
3.18359e-10
2.32126e-15
1.59383e-20
0.00457391
0.155982
0.78173
0.999757
0.999999
1
1
1
0.999999
0.999999
1
1.17767e-05
1.19433e-09
1.03302e-14
7.04644e-20
2.22515e-05
0.00696501
0.184559
0.789501
0.997298
0.999991
1
1
0.999999
0.999998
0.999999
0.999999
3.89084e-09
4.20974e-14
3.22646e-19
1.00684e-08
4.0476e-05
0.00901402
0.185076
0.773321
0.992218
0.99995
1
1
0.999997
0.999997
1
0.999994
0.999995
1.48584e-13
1.39483e-18
4.11272e-13
2.05896e-08
5.87532e-05
0.00803121
0.153045
0.732301
0.984501
0.999866
1
0.999999
0.999997
1
0.999996
0.999994
0.999995
0.99999
5.24639e-18
1.55031e-17
8.00813e-13
3.45635e-08
4.43772e-05
0.00490985
0.106954
0.671923
0.975056
0.999806
1
0.999997
0.999998
0.999999
0.999994
0.999997
0.999998
0.999998
0.999998
2.91637e-17
1.39681e-12
2.17099e-08
2.24556e-05
0.00247875
0.0698817
0.606972
0.968151
0.999881
0.999999
0.999997
0.999997
0.999997
0.999994
1
1
1
0.999999
1
4.81699e-17
7.69779e-13
9.11267e-09
9.15428e-06
0.0012492
0.0463025
0.555857
0.968399
0.999983
0.999998
0.999997
0.999998
0.999994
0.999997
1
1
1
1
0.999999
1
2.4686e-17
2.98817e-13
3.0219e-09
3.51012e-06
0.000671586
0.0321299
0.534062
0.973794
0.999999
0.999998
0.999997
0.999998
0.999994
1
1
1
1
1
0.999999
0.999996
0.999999
8.56157e-18
9.17611e-14
9.04306e-10
1.38669e-06
0.000364024
0.0243325
0.52482
0.984944
0.999999
0.999999
0.999999
0.999997
0.999997
1
1
1
1
1
1
1
1
1
0.999998
0.999993
0.999998
2.3748e-18
2.47548e-14
2.68688e-10
5.4481e-07
0.000193255
0.018711
0.537153
0.968161
0.999999
0.999999
0.999999
0.999997
1
1
1
1
1
1
1
1
1
1
1
1
1
1
0.999995
0.999993
0.999995
5.7243e-19
6.45822e-15
7.85385e-11
2.00859e-07
0.000100193
0.0152783
0.476907
0.968415
0.999994
0.999999
0.999999
0.999999
1
1
1
1
1
1
1
1
0.999999
1
1
1
1
1
1
1
1
1
0.999993
0.999993
0.999989
1.31695e-19
1.6373e-15
2.19138e-11
7.03833e-08
4.64282e-05
0.012031
0.438251
0.947621
0.999529
0.999998
0.999998
0.999999
1
1
1
1
1
1
1
1
1
1
1
1
1
0.999999
0.999958
1
1
1
1
1
1
1
1
1
1
1
1
1
1
1
1
1
1
1
1
1
1
0.999993
0.999993
0.999991
2.84221e-20
4.23294e-16
5.451e-12
2.49044e-08
2.7255e-05
0.00832356
0.358752
0.90217
0.99927
0.999997
0.999998
0.999999
1
0.999999
1
1
1
1
1
1
1
1
1
1
1
1
1
1
1
1
1
1
1
1
1
1
1
1
1
1
1
1
1
1
1
1
1
1
0.999823
0.998969
0.999723
0.999847
0.999978
1
1
1
1
1
1
1
1
1
1
1
1
1
1
1
1
1
1
1
1
1
1
1
1
1.00001
1
1
0.999996
0.999997
0.999999
6.00064e-21
1.0389e-16
1.41959e-12
8.7682e-09
1.25979e-05
0.0047926
0.258107
0.856042
0.99551
0.999942
1
1
0.999998
0.999998
0.999999
1
0.999999
1
1
1
1
1
1
1
1
1
1
1
1
1
1
1
1
1
1
1
1
1
1
1
1
1
1
1
1
1
1
1
1
1
1
1
1
1
1
1
1
1
1
1
1
1
1
0.999904
0.998185
0.998172
0.998085
0.998803
0.997519
0.998931
0.999604
0.999903
0.999963
1
0.999993
1
0.999989
1
1
1
1
1
1
1
1
1
1
1
1
1
1
1
1
1
1
1
1
1
1
1
1
1
1
1
1
1
1
1
1.00001
1
1
0.999998
0.999999
0.999999
1.05898e-21
2.99712e-17
3.31301e-13
2.49639e-09
3.87799e-06
0.0025223
0.155903
0.75998
0.982111
1
1
1
1
0.999999
0.999999
0.999998
0.999998
0.999998
1
1
1
1
1
1
1
0.999999
0.999999
0.999999
0.999999
1
1
1
1
1
1
1
1
1
1
1
1
0.999999
1
1
1
1
1
1
1
1
1
1
1
1.00001
0.999995
0.999749
0.999023
0.998896
0.998279
0.997211
0.996981
0.996786
0.997069
0.994073
0.998534
0.994554
0.999116
0.994189
0.999362
0.997716
0.999708
0.999563
1
0.998192
0.999961
0.999799
1
0.99911
1
0.99979
1
0.999974
1
0.999934
1
1
1
1
1
1
1
1
1
1
1
1
1
1
1
1
1
1
1
1
1
1
1
1.00001
1
1
0.999999
0.999999
1
2.19062e-22
8.37149e-18
6.5222e-14
4.24812e-10
8.86381e-07
0.00106307
0.0735147
0.609752
0.938794
1
1
1
1
0.999999
1
1
1
0.999998
1
0.999999
1
1
1
1
1
0.999999
0.999999
0.999999
0.999999
1
1
1
1
1
1
1
1
1.00001
1
1
0.999991
0.999987
0.999778
0.999763
0.999047
0.998681
0.997824
0.995166
0.999804
0.994801
0.999064
0.993967
0.999705
0.993953
0.998262
0.994084
0.998379
0.994102
0.998444
0.993926
0.998281
0.993939
0.997473
0.994062
0.997228
0.994936
0.998113
0.994709
0.997953
0.995929
0.999372
0.998597
1
0.996818
0.999855
0.999292
1
0.997922
1
1
1
1
1
0.999999
0.999999
3.67451e-23
2.62256e-18
6.26776e-15
5.39817e-11
8.23684e-08
0.000347093
0.0277743
0.391591
0.914487
0.914673
0.716596
0.716945
0.99966
0.999687
0.991865
0.991976
1
0.999998
1
1
1
1
1
0.999994
1
0.99997
1
0.999989
1
0.999937
1
0.999971
1
1
1
1
1
1
1
1
0.999999
1
1
1
1
1
1
1
1.00001
1.00001
1
1
0.999993
0.999984
0.999826
0.999967
0.999508
0.999359
0.998378
0.997504
0.999807
0.99637
0.998985
0.995838
0.999519
0.99482
0.997981
0.994294
0.997078
0.995047
0.997727
0.993912
0.996272
0.994012
0.996549
0.993264
0.995139
0.993257
0.995404
1
1
1
1
0.999999
0.999998
7.95929e-24
4.3307e-19
4.67395e-16
2.34973e-12
5.27052e-14
6.9257e-05
0.00821415
0.153394
0.872957
0.874489
0.553668
0.554589
0.999717
1
1
0.999686
0.999748
1
1
0.999739
1
1
1
0.999996
1
0.999991
1
0.999991
1
0.99999
1
0.999881
1
0.999936
1
0.999887
1
0.999952
1
1
0.999997
1
1.00001
1.00001
1
0.999999
1
1
1
1
0.999998
0.999979
0.999914
1
0.999986
1
0.999784
1
0.999835
1
0.999283
1
0.998589
1
0.999383
1
0.997496
1
0.998529
0.998034
0.999979
0.996822
0.999525
0.996657
0.999899
0.995412
0.998964
0.994041
0.996002
0.995453
0.997813
0.993473
0.995428
0.994186
0.996894
1
1
1
1
0.999999
4.28563e-25
7.04902e-20
1.62858e-17
5.43438e-14
1.08437e-08
6.29102e-06
0.00111115
0.0747496
0.0747383
0.00912201
0.00911604
0.769007
0.933305
0.648038
0.809199
0.769745
0.93611
0.648709
0.811166
0.355036
0.355831
0.999762
1
1
0.999807
0.99976
1
1
0.999791
0.869341
0.990821
0.956862
0.99955
0.870376
0.991467
0.95828
0.999599
1
1
1
1
1
0.999917
1
0.999943
1
1.00001
1
0.999998
0.99999
0.999998
0.99999
0.999995
0.999989
0.999989
0.999996
0.999999
0.999999
0.999993
0.999986
1
0.999999
0.999995
1
0.999969
1
0.999758
1
0.999669
1
0.998923
1
0.998332
1
0.999099
0.999999
0.997219
0.999994
0.997982
0.997758
0.999998
0.996579
0.999968
1
1
1
1
6.42372e-26
7.51203e-21
1.35869e-17
2.87854e-10
3.03605e-06
8.10914e-05
0.000380065
0.000381307
2.90471e-19
6.30551e-20
0.0271528
0.0271479
0.000527139
0.000531595
0.71003
0.9151
0.539164
0.704138
0.71112
0.918142
0.5401
0.707023
0.263775
0.101017
0.138112
0.212661
0.26414
0.100795
0.138445
0.212992
0.999855
1
1
1
0.999865
1
1
1
0.871694
0.995342
0.928602
0.999764
0.873133
0.996006
0.930395
0.999793
1
1.00001
1
1
0.999997
0.999994
0.999989
0.999989
0.999999
0.999997
0.999992
0.999999
0.999997
0.999999
0.999988
0.999998
0.999987
0.999999
0.999997
0.999999
0.999993
1
0.999991
0.999999
0.999991
0.999999
0.999992
0.999999
0.999993
0.999999
0.999978
0.999999
0.999943
1
1
0.999924
1
0.999738
1
0.999183
1
0.998589
1
1
1
4.69466e-28
1.0757e-17
1.75737e-13
6.98924e-08
4.32714e-05
0.000352155
6.58018e-05
6.74908e-05
3.77233e-07
4.62913e-07
0.00678126
0.060335
0.0138842
0.000363659
0.00244889
0.0454863
0.0602383
0.00678886
0.0455323
0.0138868
0.00037563
0.0024601
4.26587e-05
4.26452e-05
0.000202073
0.000220494
4.27654e-05
4.26587e-05
0.000211273
0.000222445
0.622532
0.868893
0.488991
0.723136
0.624033
0.872732
0.490593
0.726474
0.082122
0.10172
0.0821786
0.101734
0.999875
0.982019
0.999891
0.982752
0.788131
0.965559
0.789383
0.967426
1
1.00001
1.00001
1
0.999997
1
0.999996
0.999997
1
0.999988
0.999999
0.999989
0.999998
0.999992
0.999999
0.999992
0.999997
0.999992
0.999996
0.999989
0.999999
0.999987
0.999996
0.999987
0.999994
0.999999
0.999991
0.999997
0.999997
1
0.999996
0.999995
1
0.999999
0.99999
0.999999
0.999994
0.999964
1
0.999999
0.99999
0.999999
0.999769
1
1
1
1.38512e-29
6.13389e-16
2.24012e-10
1.12037e-06
0.000112703
0.000484472
0.000339642
0.000361919
0.000359028
9.22975e-05
8.56277e-05
5.91086e-05
4.29489e-05
0.0180753
0.000625873
0.0050932
0.0139304
4.231e-05
6.86504e-05
0.0180291
0.000629616
0.0139325
0.0050952
4.23381e-05
7.67144e-05
4.26637e-05
4.26587e-05
4.47429e-05
6.52872e-05
4.26682e-05
4.26452e-05
4.70854e-05
6.64311e-05
0.296233
0.390594
0.297276
0.392043
1
1
1.00001
1
1
0.999999
0.999998
0.999996
0.999988
0.999999
1
0.999995
1
0.999997
1
0.999987
0.999998
0.999995
0.999992
0.999999
0.999995
0.999999
0.999999
0.999987
0.999987
0.999988
0.999987
0.99999
0.999997
0.999999
0.999998
0.999994
0.999992
0.999997
0.999995
0.999989
0.999987
0.999994
0.999999
0.999988
0.999997
1
1
1
1
0.999988
0.999998
0.999993
1
1
-2.31255e-40
2.6915e-15
1.17675e-08
2.61803e-06
7.58744e-05
0.000592715
0.000518736
0.00031051
0.000380566
0.000512582
0.00011248
0.000271208
0.000222647
0.000270851
6.58208e-05
0.000181434
8.08822e-05
0.000559776
0.000322563
6.08491e-05
4.26452e-05
4.26452e-05
4.26587e-05
5.10815e-05
4.26587e-05
4.26587e-05
4.26452e-05
1
1
1
1.00001
1
1
1
0.999999
0.999999
1
1
1
1
1
1
0.999998
1
0.999997
1
0.999991
0.999998
0.999995
0.999995
0.999999
0.999999
0.999996
0.999999
0.999987
0.999987
0.999989
0.999992
0.999987
0.999991
0.999999
0.999993
0.999997
0.999987
-4.86693e-42
6.47869e-14
5.73728e-08
2.14949e-06
4.3953e-05
0.000103134
1.15666e-05
1.37441e-05
0.000597834
0.000597593
0.000239205
0.000436305
0.000656173
0.000160274
0.000656343
0.000386168
0.000300371
6.03924e-05
0.000210612
0.000100692
0.000611032
0.000656305
0.000544569
0.000656172
0.000242671
0.000469911
0.000192936
0.000319066
8.49611e-05
0.000183977
6.02293e-05
7.31218e-05
1
1
1.00001
1
1
0.999997
0.999996
0.999997
0.999993
1
0.999999
1
1
1
1
1
0.999997
0.999999
0.999993
1
1
1
1
0.99999
0.999998
0.999994
0.999998
5.43411e-20
2.26015e-11
5.8348e-08
3.8489e-06
4.78681e-05
6.05473e-05
3.17921e-05
4.18295e-05
0.000568048
0.000656138
0.000273344
0.0003659
0.00058913
0.0001315
0.000183766
0.00038333
0.000497027
0.000321831
0.000323958
0.000213358
0.000140519
0.00026688
0.000656342
0.00029171
0.000656201
0.000462498
0.000267107
6.96783e-05
0.000246731
0.000115055
0.000575713
0.000656305
9.33292e-05
0.000268226
1
1
1
1
1
1
1
0.999998
0.999999
0.999997
1
0.999993
1
1
0.999999
1
1
1
0.999996
1
0.999992
0.999999
0.999992
0.999999
1
1
0.999992
0.999998
1
1
0.99999
0.999995
2.5222e-17
6.96289e-11
3.63296e-08
1.66561e-05
2.74975e-05
6.1069e-08
1.57023e-06
2.42756e-05
1.93816e-05
5.1554e-05
4.2472e-05
0.000496958
0.000656264
0.000410448
0.000174202
0.000410839
0.000124012
0.000138084
0.000224763
0.000108151
5.59685e-05
7.92705e-05
0.000108264
6.3978e-05
8.64255e-05
8.6537e-05
0.000146438
7.80935e-05
6.30777e-05
6.89621e-05
6.05067e-05
1
1
1
1
1
0.999996
0.999998
0.999995
1
0.999996
0.999999
1
1
1
1
1
1
0.999995
0.999999
0.999997
0.999995
0.999999
0.999998
1
1
1
0.999992
0.999993
0.999999
0.999998
1
1
0.999991
0.999997
4.09902e-16
2.77807e-10
7.77933e-09
1.55122e-05
2.90462e-05
1.08115e-07
2.38945e-06
1.70431e-05
1.76272e-05
9.10338e-05
5.29254e-06
1.25348e-05
5.48283e-06
1.00597e-05
1.99067e-06
2.08518e-05
2.43556e-06
7.19549e-06
1.00757e-06
0.000113866
4.2582e-05
0.000148481
6.94595e-05
2.32905e-05
1.42712e-05
2.295e-05
3.65263e-05
1.12657e-05
6.39845e-06
1
1
1
1
1
1
1
1
1
1
0.999995
1
1
1
1
1
1
0.999999
0.999999
1
1
0.999996
1
1
1
0.999999
1
0.999996
0.999992
0.999999
0.999999
2.60643e-13
4.07571e-10
7.66551e-09
4.15088e-06
2.11173e-05
9.2609e-08
1.95459e-06
2.91419e-06
1.88529e-06
0.000315769
9.9796e-06
7.23827e-05
5.6815e-06
2.84583e-06
1.59336e-06
3.65076e-05
1.21929e-06
2.39604e-05
1.00757e-06
3.49493e-06
7.8152e-05
3.95812e-05
0.000309532
1.59802e-06
7.12886e-05
2.68727e-06
6.98589e-05
2.10534e-06
2.20616e-06
2.19215e-06
1.59336e-06
1
1
1
1
1
1
1
1
1
1
1
1
1
1
1
0.999999
1
1
0.999998
1
0.999998
1
1
1
1
0.999996
1
0.999996
1
5.78363e-12
1.65288e-10
2.24189e-12
1.10545e-08
5.36734e-08
3.44774e-12
4.8578e-13
5.7465e-13
4.94942e-07
5.86953e-07
1.95162e-05
2.81469e-06
1.00758e-06
5.52179e-05
2.16305e-06
1.92029e-06
0.000361737
1.72212e-05
0.000256918
6.63176e-05
1.60695e-06
2.65726e-06
4.04221e-05
1.00757e-06
2.48156e-05
1.00757e-06
1.79463e-05
0.000110806
1.00757e-06
7.1225e-05
1
1
1
1
1
0.999999
1
1
1
1
1
1
1
1
1
1
1
1
1
1
1
1
1
0.999994
0.999999
0.999996
0.999999
1
1
0.999996
0.999999
4.13134e-12
4.56945e-09
1.45787e-11
5.70736e-10
9.57094e-10
3.37009e-10
4.08427e-09
4.32024e-09
7.66764e-25
6.44164e-08
7.08313e-07
1.28477e-07
4.2227e-06
3.67724e-10
4.64072e-25
2.04952e-25
6.97398e-06
2.52183e-06
1.89004e-05
1.00757e-06
3.00225e-05
1.10722e-06
-7.71483e-24
-2.47421e-24
0.000265308
6.19355e-05
5.95292e-05
1.00757e-06
7.17758e-06
1.9331e-05
1.06406e-06
9.19593e-05
0.999999
1
0.999998
0.999999
1
0.999999
1
0.999998
0.999999
1
1
1
1
1
1
1
1
1
0.999998
0.999999
0.999999
1
1
1
1
1
0.999994
0.999998
0.999996
0.999997
1.20842e-11
1.31992e-06
2.30174e-09
1.52548e-11
7.65286e-12
2.92821e-07
1.96967e-09
2.84646e-08
1.30778e-09
2.05856e-07
5.80366e-07
5.57616e-07
2.99258e-08
4.71886e-11
6.58181e-08
8.20081e-07
1.9167e-08
6.9804e-12
3.20336e-05
4.98041e-05
7.29746e-07
7.60843e-05
1.18104e-05
1.76594e-07
9.54839e-05
5.32433e-05
9.82783e-05
1.0188e-06
0.999997
0.999997
0.999995
0.999999
1
0.999996
0.999995
0.999995
0.999998
1
1
1
1
1
0.999998
1
1
0.999997
0.999999
1
1
1
1
1
1
1
1
1
0.999999
0.999999
0.999999
0.999999
1.27934e-08
3.74149e-05
1.88373e-05
1.90287e-05
3.80838e-05
7.50993e-06
7.69705e-06
5.93071e-09
6.09598e-11
3.68686e-10
3.98898e-09
2.43337e-11
7.48547e-08
4.7846e-08
1.13764e-07
1.59673e-05
4.23352e-08
3.06096e-07
1.77265e-09
2.51621e-08
3.93774e-07
1.03618e-07
7.49337e-08
4.04911e-08
2.40052e-08
5.17306e-08
1.45975e-05
6.24517e-09
1.26003e-07
9.86888e-10
1.71467e-10
6.2411e-12
3.63854e-09
8.27838e-06
2.89794e-06
7.5748e-07
6.30615e-07
0.999996
0.999996
0.999999
1
1
0.999999
0.999996
1
1
0.999998
0.999999
0.999995
0.999998
0.999998
1
0.999999
1
0.999999
0.999996
0.999999
0.999995
0.999998
0.999997
0.999999
1
1
1
1
4.80645e-07
4.98037e-05
6.56383e-05
4.93017e-05
6.57662e-05
2.89431e-05
2.80606e-05
1.08135e-10
1.02847e-07
1.04282e-07
1.8459e-07
9.57499e-08
1.74676e-07
7.83934e-06
6.09256e-07
5.64462e-07
2.93273e-07
9.08531e-07
3.51622e-06
1.11344e-05
1.1172e-05
6.14625e-06
8.77055e-07
1.69122e-06
1.29034e-07
5.04811e-08
1.08022e-07
1.368e-07
6.49644e-06
2.85237e-07
1.63087e-07
3.8824e-07
3.08324e-06
9.93599e-06
1.04224e-05
0.999996
0.999998
0.999996
0.999996
0.999995
0.999993
0.999993
0.999998
1
0.999997
0.999999
0.999997
1
0.999998
1
0.999998
1
0.999993
0.999998
0.999998
1
0.999992
0.999999
0.999999
0.999998
1
0.999999
0.999999
1
0.999997
0.999996
0.999998
0.999998
0.999994
0.999994
0.999995
0.999996
5.70466e-06
5.14976e-05
3.63256e-06
3.68457e-06
5.07804e-05
5.20299e-05
3.42554e-06
3.03257e-06
5.07463e-05
2.74218e-05
2.67827e-05
9.80079e-08
2.68153e-07
2.61951e-07
1.65624e-06
2.56332e-07
2.74572e-06
2.26445e-07
1.21769e-06
1.32656e-07
5.14414e-07
4.54773e-07
7.18047e-07
3.82452e-06
3.21039e-06
8.75291e-08
1.46695e-06
2.19523e-06
1.70452e-06
1.07158e-07
4.32378e-07
0.999996
0.999998
0.999996
1
0.999995
0.999998
0.999992
0.999997
0.999999
0.999997
0.999999
0.999998
0.999999
0.999992
0.999996
0.999995
0.999999
0.999992
0.999999
1
0.999994
0.999998
0.999993
0.999999
1
1
1
0.999999
0.99999
0.999998
0.99999
0.999999
1
1
1
0.00165721
7.98078e-05
7.82281e-05
3.61305e-05
2.7866e-06
1.36653e-06
9.71371e-07
1.13607e-06
0.00019483
3.63442e-05
2.67335e-06
1.19296e-06
9.80057e-07
9.37562e-07
0.000193154
1.25899e-07
1.68063e-07
7.94954e-07
3.01154e-07
1.92833e-07
1.52678e-07
8.97357e-08
3.1891e-07
6.98412e-07
1.87055e-07
1.56505e-07
1.37187e-07
0.999995
0.999998
0.999973
1
1
0.999973
1
1
0.99999
0.999994
0.99999
0.999999
0.999998
0.999993
0.999996
0.999993
0.999998
0.999991
0.999995
1
1
0.999993
0.999999
0.999994
1
0.999999
1
0.99999
0.999994
0.999999
1
0.000960348
0.0013827
0.00660444
0.00137648
0.00659909
0.000254376
3.80726e-06
2.83849e-06
1.85458e-06
6.44605e-06
4.61796e-07
2.51668e-07
0.00427509
0.000253541
3.7343e-06
2.52293e-06
1.85556e-06
6.16995e-06
4.29207e-07
2.36035e-07
0.00423591
1.32864e-07
1.1083e-07
2.34519e-07
1.10532e-07
0.999994
0.999992
0.999986
0.999973
0.999989
0.999978
0.999984
0.999986
0.999978
0.999995
0.999998
0.999994
0.999998
0.999994
0.999994
1
1
0.999994
1
0.999999
0.999997
1
0.999993
1
0.999998
1
0.999999
2.13412e-06
0.00431287
9.21799e-05
0.00432775
8.00172e-05
0.00899733
0.00899405
0.0055836
4.26444e-05
0.000134215
0.00113779
1.43435e-05
4.25277e-06
2.25341e-06
2.44305e-06
7.02181e-06
3.30855e-07
8.81296e-07
0.00549362
4.53592e-05
0.000131099
0.00113854
1.38619e-05
4.09398e-06
1.99922e-06
2.3666e-06
6.53049e-06
3.38914e-07
8.38163e-07
0.999997
0.999991
0.99999
0.99999
0.999993
0.999978
0.999986
0.999982
0.999987
0.999981
0.999987
0.999993
0.999979
1
1
1
1
1
0.999999
0.999996
0.999999
1
1
1
1
2.61574e-29
3.53685e-05
4.93348e-05
3.48162e-05
4.95572e-05
0.00606904
0.000828705
0.00611702
0.000809641
0.00761486
0.00755824
0.00621536
0.00224829
0.00414913
0.00720488
0.000325438
0.000450951
0.00147145
0.000144
2.03475e-06
2.41317e-06
8.42054e-06
2.17778e-06
0.00598847
0.00212816
0.00404555
0.0067172
0.000331207
0.000435353
0.00141658
0.000139309
1.96978e-06
2.13151e-06
8.31729e-06
2.10409e-06
0.999997
0.999991
0.999991
0.999996
0.999994
0.999992
0.999998
1
1
1
1
1
0.999993
0.99999
0.999994
0.99999
1
0.999998
1
1
1
1
1
1
1
1
1
1
1
2.63295e-11
6.06212e-07
4.78514e-09
5.1932e-07
3.40145e-09
6.22214e-05
2.66132e-05
6.02707e-05
2.51496e-05
0.00661319
0.00140421
0.00666434
0.00138736
0.00627209
0.00963191
0.0102523
0.00825846
0.00624308
0.00952108
0.0100749
0.00800059
0.00700939
0.00346653
0.00340968
0.00792337
0.00698126
0.00337372
0.00326945
0.0077934
0.999998
0.999998
1
0.999986
0.999986
0.999995
0.999992
0.999999
0.999999
0.999999
0.999997
1
0.999999
1
0.999993
1
1
1
0.999999
0.999997
1
0.999998
0.999995
1
1
1
0.999998
1
1
1
1
1
1
1
1
4.57392e-10
2.55938e-12
1.66654e-05
2.12861e-06
1.4254e-05
1.98698e-06
0.000138587
0.000127748
0.000134205
0.000121487
0.0122398
0.00993024
0.0124891
0.00743041
0.00525834
0.000242291
0.000344772
0.00178581
0.011943
0.00992166
0.0119977
0.0075306
0.00526078
0.000232357
0.000339992
0.00181254
0.0105402
0.0109077
0.0199537
0.00933273
0.0106978
0.0108914
0.0197466
0.00907606
0.999997
1
1
0.999994
0.999995
0.999994
0.999994
0.999994
0.999989
1
0.999998
0.999999
0.999998
0.999999
0.999986
0.999998
0.999987
0.999999
0.999988
0.999998
0.999994
1
1
1
0.999999
1
0.999999
1
0.999998
1.99453e-09
3.94707e-06
1.4943e-07
7.89846e-06
4.97774e-07
3.95251e-11
0.000155309
8.61241e-05
0.000145814
8.56865e-05
6.52968e-05
3.26353e-05
0.000107599
3.23479e-05
0.000149965
2.92842e-05
0.000214258
3.20665e-05
6.52927e-05
3.12646e-05
0.000104435
3.11127e-05
0.000143899
2.9288e-05
0.000201163
3.09759e-05
0.0181715
0.0118083
0.0229198
0.00804854
0.00581067
0.000282696
0.000832649
0.00308199
0.0178686
0.0118664
0.0223509
0.00814061
0.00578365
0.000280243
0.000825379
0.00309206
0.999993
0.999996
0.999999
0.99999
0.999983
0.999983
0.999976
0.999965
0.99997
0.999965
1
0.999999
1
0.999991
0.999999
0.999999
1
0.999987
1
1
1
0.999994
0.999998
0.999997
1
0.999985
0.999996
0.999986
0.999992
0.99999
0.999996
0.99998
0.999993
0.99999
1.16797e-09
1.13122e-07
1.38201e-07
8.53972e-08
7.7612e-08
0.000245703
7.09638e-05
0.000251055
7.76039e-05
5.58839e-10
0.000263177
2.90532e-05
0.000237749
2.92842e-05
0.000330286
3.79311e-05
0.000378827
2.90532e-05
0.000251909
2.94946e-05
0.000223585
2.9288e-05
0.000311588
3.92255e-05
0.000384039
2.94946e-05
4.84608e-05
5.03804e-05
0.000101612
4.8373e-05
4.85438e-05
6.00057e-05
7.04534e-05
6.20614e-05
4.85437e-05
5.11887e-05
0.000101855
4.93326e-05
4.86293e-05
6.12061e-05
6.90571e-05
6.29282e-05
0.999994
0.999996
0.999998
1
0.999999
0.999998
0.999965
0.999994
0.999965
0.999999
1
1
1
1
0.999993
0.999981
0.999982
0.99999
1
0.999999
1
0.999999
0.999993
0.999978
0.999975
0.999992
0.999999
0.999999
1
0.999995
0.999994
1
1
0.999987
0.999999
0.999998
1
0.999996
0.999993
0.999999
1
0.999985
1.73e-07
1.05407e-09
3.21444e-06
3.55516e-07
3.64344e-06
2.9035e-07
6.96084e-05
8.5122e-05
0.000388754
7.70787e-05
0.0005026
0.000448529
1.70502e-05
0.000115145
2.62976e-05
0.000317747
6.23734e-05
7.88464e-05
0.000340818
6.29019e-05
0.000501803
0.00044466
1.99612e-05
0.000129085
2.64478e-05
0.00033376
6.89207e-10
0.000146593
6.07365e-05
8.61017e-05
6.19721e-05
0.000322031
6.09383e-05
0.00014608
6.0832e-05
8.60366e-05
6.09316e-05
0.000304753
5.81291e-05
4.86293e-05
6.48292e-05
4.87127e-05
6.12949e-05
4.87126e-05
6.58451e-05
4.88298e-05
6.1908e-05
0.999997
0.999997
0.999996
0.999996
0.999994
0.999994
1
1
1
0.999995
0.999983
0.999966
0.999973
0.99998
1
1
1
1
0.99999
0.999982
0.999977
0.999991
1
1
1
1
1
1
1
1
0.999998
0.999988
0.999992
0.999995
1
1
1
1
0.999998
0.99999
0.999989
0.999999
5.09098e-08
3.49181e-07
1.92603e-07
2.67197e-07
1.60105e-07
3.08048e-09
4.15819e-05
5.12109e-06
4.62779e-05
4.99656e-06
8.40976e-05
6.8002e-05
0.000196938
0.000108345
7.16672e-05
0.000456989
1.60535e-05
0.000237714
2.90034e-05
0.00038541
7.48384e-05
6.12859e-05
0.000162531
9.95396e-05
5.67956e-05
0.0004151
1.98469e-05
0.000277128
2.87707e-05
0.000408754
1.14106e-10
5.78205e-05
6.55491e-05
4.88298e-05
6.80523e-05
9.35761e-05
7.84845e-05
5.75737e-05
6.62868e-05
4.89753e-05
6.79158e-05
8.86468e-05
7.37883e-05
0.999999
0.999997
0.999999
0.999998
0.999996
0.999994
0.999994
1
1
1
1
1
1
1
1
0.999999
1
1
0.999999
1
0.999999
1
1
0.999997
1
1
1
0.999994
0.999977
0.999985
0.999992
1
0.999998
0.999997
0.999993
0.999989
1
1
1
0.999999
0.999996
0.999998
0.999999
0.999998
0.999993
0.999997
0.999993
9.86836e-09
1.58399e-07
5.95239e-08
1.42399e-07
5.84493e-08
1.60708e-07
1.20957e-07
1.0269e-07
8.10216e-08
8.2128e-09
8.71263e-05
2.71263e-05
0.000266881
1.64189e-05
2.04221e-05
1.1132e-06
1.47442e-06
5.43189e-06
8.61808e-05
2.31996e-05
0.000267537
1.57696e-05
1.9096e-05
9.4161e-07
1.20013e-06
5.54913e-06
7.14014e-05
5.2337e-05
4.23342e-05
0.000436621
4.82124e-05
0.000485938
6.22967e-05
5.17625e-05
3.45778e-05
0.000432653
3.44551e-05
0.000480667
2.38406e-11
1
0.999997
0.999999
1
1
0.999999
1
1
1
0.999995
1
1
1
1
1
0.999999
1
1
1
0.999999
1
0.999999
1
1
1
0.999999
1
0.999992
0.999999
0.999992
1
0.999999
0.999987
0.999994
1
1
1
1
0.999997
0.999996
1
1
1
2.53626e-07
3.36572e-08
1.33938e-07
6.62262e-08
1.06174e-07
6.03587e-08
8.98422e-07
6.40735e-07
3.55373e-07
4.13802e-08
2.73754e-07
1.64192e-06
4.5202e-08
4.22963e-08
4.08517e-08
2.40881e-07
3.91451e-07
2.6695e-07
7.67118e-07
5.3373e-08
8.18727e-07
1.15002e-06
4.22963e-08
4.25244e-08
4.27697e-08
5.59389e-07
1.61789e-08
0.000117877
1.03741e-05
0.000239661
7.66065e-06
2.19921e-05
3.64908e-06
0.000107929
9.08101e-06
0.000209991
6.26508e-06
1.89891e-05
2.11746e-06
6.16322e-14
1
0.999999
0.999997
1
0.999999
1
0.999998
1
1
0.999998
1
1
1
1
0.999998
1
0.999999
1
0.999998
1
0.999998
1
0.999996
1
0.999999
1
0.999999
1
1
1
1
0.999999
1
0.999999
1
0.999993
0.999999
0.999991
0.999999
5.75072e-07
8.79839e-07
2.46248e-07
1.31989e-06
2.46347e-07
3.10583e-07
5.12327e-06
5.82697e-06
1.09558e-05
9.91222e-06
5.60325e-06
8.99507e-08
2.66863e-06
8.48263e-08
3.42123e-07
3.02341e-06
4.74982e-08
3.31868e-06
1.9702e-07
6.95334e-06
3.56299e-06
5.75746e-06
1.54905e-06
4.35504e-06
8.62191e-06
1.3978e-05
3.2025e-06
8.25356e-06
2.95999e-06
1.46745e-05
1.92618e-09
1.12265e-05
1.22875e-05
8.79469e-06
1.02301e-05
-5.4661e-34
0.999997
0.999999
0.999996
0.999998
1
1
1
1
1
0.999999
1
1
1
1
1
1
1
1
0.999985
0.999997
0.999999
1
1
0.999998
1
1
1
1
1
1
1
0.999998
1
0.999999
0.999999
0.999996
1
0.999994
0.999997
0.999998
9.97778e-06
1.6359e-06
6.73679e-05
9.40945e-06
8.0524e-05
1.28584e-05
2.0878e-07
0.000157485
1.76384e-05
0.000184367
4.84812e-06
0.00018064
0.000225931
4.08819e-05
0.000275586
1.04499e-05
0.000196461
1.1553e-05
1.23347e-05
4.55106e-05
0.00010262
4.15438e-05
8.22794e-05
0.000110127
7.10242e-05
0.000103278
0.000164603
8.93674e-05
0.000135396
2.63139e-11
-5.70008e-37
0.999957
0.999996
0.999996
0.999995
1
1
0.999998
0.999991
1
1
1
1
0.999999
1
1
1
1
1
1
1
1
1
0.999981
0.999998
0.999989
0.999999
0.999999
1
1
1
1
1
1
0.999998
0.999981
0.999975
9.47756e-05
9.95573e-05
6.837e-05
0.000113974
7.27947e-05
1.8306e-06
0.000164914
0.000118156
0.000177178
0.000138537
3.86366e-08
0.000539842
7.6612e-05
0.000525681
3.09042e-05
2.12452e-05
0.000369482
3.12875e-05
0.00041331
0.000550765
6.81343e-05
0.000551353
2.73318e-05
2.12445e-05
0.000326984
2.12448e-05
0.000352333
0.000191153
0.000426878
0.000139205
0.000511144
3.00598e-14
8.48052e-24
0.99997
0.999964
0.999992
0.999995
0.999995
1
1
0.999999
0.999991
1
1
1
1
1
1
1
1
1
1
1
1
1
1
1
1
0.999999
1
1
1
1
1
0.000527371
7.02237e-05
0.000408221
0.000647546
0.000470009
0.000649807
1.43158e-06
7.17659e-05
2.12442e-05
2.12443e-05
4.40599e-05
2.12452e-05
6.51774e-05
0.000240314
2.12445e-05
4.93402e-05
6.99779e-05
2.12443e-05
2.12441e-05
5.26693e-05
0.000297783
8.39618e-10
0.00039873
8.1269e-05
0.000456074
7.7937e-05
4.47192e-05
5.44932e-05
0.000316782
5.5291e-05
0.000404063
5.90973e-05
3.54181e-05
3.07109e-05
8.00582e-19
4.60991e-26
0.999992
0.999972
0.999971
0.999993
0.999993
0.999998
0.999998
0.99999
0.99999
1
1
1
0.999996
1
1
1
1
1
1
1
1
1
1
1
1
1
1
1
1
1
1
1
1
0.000174808
1.37329e-07
1.39465e-19
1.45474e-07
1.54357e-22
1.88293e-05
0.000908705
0.000218907
0.000868094
0.000212845
2.30622e-07
5.06765e-05
2.37743e-05
2.27423e-05
3.50584e-05
2.12442e-05
2.22673e-05
0.000386632
0.000974665
0.00026015
0.000713336
2.12442e-05
2.12443e-05
5.31441e-05
2.5347e-05
4.02469e-05
2.33139e-05
0.000445829
0.00109293
0.000297956
0.000823061
1.00504e-12
3.595e-05
5.42848e-05
3.35234e-05
4.39724e-05
2.10196e-21
1.30711e-26
1
0.999992
0.999975
0.999985
0.999993
0.999993
0.999999
0.999999
0.999991
0.999994
1
1
1
1
1
1
1
1
1
1
1
1
0.999996
0.999998
1
1
1
1
1
1
1
1
1
1
1
1
0.00107603
1.87324e-05
5.6476e-05
0.000346431
5.69886e-05
0.000346677
7.2851e-07
0.000682044
0.00124194
0.00124084
0.000892504
0.00124194
0.000724782
0.000195295
0.000748654
0.00124097
0.00107759