/*--------------------------------*- C++ -*----------------------------------*\
| =========                 |                                                 |
| \\      /  F ield         | OpenFOAM: The Open Source CFD Toolbox           |
|  \\    /   O peration     | Version:  5.x                                   |
|   \\  /    A nd           | Web:      www.OpenFOAM.org                      |
|    \\/     M anipulation  |                                                 |
\*---------------------------------------------------------------------------*/
FoamFile
{
    version     2.0;
    format      ascii;
    class       volScalarField;
    location    "1.1";
    object      k;
}
// * * * * * * * * * * * * * * * * * * * * * * * * * * * * * * * * * * * * * //

dimensions      [0 2 -2 0 0 0 0];

internalField   nonuniform List<scalar> 
12160
(
9.96168e-09
9.94111e-09
1.00225e-08
9.93267e-09
1.00458e-08
1.00073e-08
9.92991e-09
1.00647e-08
1.00138e-08
1.00063e-08
9.92924e-09
1.00631e-08
1.00186e-08
1.00104e-08
1.00062e-08
9.9292e-09
1.0051e-08
1.0019e-08
1.00126e-08
1.001e-08
1.00069e-08
9.92915e-09
1.00516e-08
1.00177e-08
1.00129e-08
1.00117e-08
1.0011e-08
1.00072e-08
9.92902e-09
1.00474e-08
1.00164e-08
1.00125e-08
1.0012e-08
1.00123e-08
1.0012e-08
1.0009e-08
9.92899e-09
1.00417e-08
1.00153e-08
1.0012e-08
1.00118e-08
1.00123e-08
1.00132e-08
1.0014e-08
1.00418e-08
9.92899e-09
1.00364e-08
1.00144e-08
1.00115e-08
1.00114e-08
1.0012e-08
1.0013e-08
1.00146e-08
1.00353e-08
1.00443e-08
9.92898e-09
1.00316e-08
1.00136e-08
1.00112e-08
1.00111e-08
1.00117e-08
1.00125e-08
1.00148e-08
1.0029e-08
1.00417e-08
1.00608e-08
9.92898e-09
1.00273e-08
1.00129e-08
1.00108e-08
1.00108e-08
1.00113e-08
1.0012e-08
1.00151e-08
1.0028e-08
1.00381e-08
1.00384e-08
1.00451e-08
9.92898e-09
1.00237e-08
1.00122e-08
1.00105e-08
1.00105e-08
1.0011e-08
1.00115e-08
1.0015e-08
1.00281e-08
1.00381e-08
1.00408e-08
1.00242e-08
1.00234e-08
9.92898e-09
1.00207e-08
1.00115e-08
1.00103e-08
1.00102e-08
1.00107e-08
1.00111e-08
1.00145e-08
1.00275e-08
1.00347e-08
1.00487e-08
1.00205e-08
1.00174e-08
1.00192e-08
9.92898e-09
1.00182e-08
1.0011e-08
1.001e-08
1.001e-08
1.00104e-08
1.00107e-08
1.00139e-08
1.0026e-08
1.00311e-08
1.00478e-08
1.00269e-08
1.00147e-08
1.00133e-08
1.00136e-08
9.92899e-09
1.00162e-08
1.00105e-08
1.00098e-08
1.00098e-08
1.00102e-08
1.00104e-08
1.00134e-08
1.0024e-08
1.00275e-08
1.00463e-08
1.00332e-08
1.00145e-08
1.00129e-08
1.00074e-08
9.92899e-09
1.00146e-08
1.00101e-08
1.00096e-08
1.00097e-08
1.001e-08
1.00101e-08
1.00132e-08
1.00218e-08
1.00241e-08
1.00433e-08
1.00379e-08
1.00145e-08
1.00118e-08
1.00079e-08
9.92899e-09
1.00133e-08
1.00098e-08
1.00095e-08
1.00095e-08
1.00098e-08
1.00099e-08
1.00131e-08
1.00197e-08
1.00214e-08
1.00393e-08
1.00397e-08
1.00145e-08
1.00119e-08
1.00071e-08
9.92899e-09
1.0012e-08
1.00095e-08
1.00094e-08
1.00094e-08
1.00096e-08
1.00097e-08
1.00131e-08
1.0018e-08
1.00195e-08
1.00349e-08
1.00388e-08
1.00151e-08
1.00119e-08
1.00074e-08
9.92898e-09
1.0011e-08
1.0009e-08
1.00092e-08
1.00093e-08
1.00095e-08
1.00095e-08
1.00131e-08
1.00166e-08
1.0018e-08
1.00309e-08
1.0035e-08
1.00156e-08
1.00121e-08
1.00077e-08
9.92898e-09
1.00102e-08
1.00086e-08
1.00088e-08
1.00091e-08
1.00094e-08
1.00094e-08
1.00132e-08
1.00154e-08
1.00168e-08
1.00273e-08
1.00291e-08
1.00158e-08
1.0012e-08
1.00087e-08
9.92898e-09
1.00095e-08
1.00082e-08
1.00084e-08
1.00087e-08
1.00092e-08
1.00093e-08
1.00132e-08
1.00144e-08
1.00159e-08
1.0024e-08
1.00233e-08
1.00154e-08
1.00118e-08
1.00096e-08
9.92898e-09
1.0009e-08
1.00078e-08
1.00081e-08
1.00083e-08
1.00088e-08
1.00091e-08
1.00132e-08
1.00135e-08
1.00153e-08
1.00209e-08
1.00189e-08
1.00142e-08
1.00115e-08
1.00103e-08
9.92898e-09
1.00086e-08
1.00075e-08
1.00077e-08
1.0008e-08
1.00084e-08
1.00088e-08
1.00131e-08
1.00127e-08
1.00149e-08
1.00179e-08
1.00156e-08
1.00127e-08
1.00111e-08
1.00104e-08
9.92898e-09
1.00084e-08
1.00073e-08
1.00074e-08
1.00076e-08
1.00081e-08
1.00084e-08
1.00129e-08
1.00119e-08
1.00146e-08
1.00156e-08
1.00134e-08
1.00115e-08
1.00106e-08
1.00102e-08
9.92898e-09
1.00083e-08
1.00071e-08
1.00072e-08
1.00073e-08
1.00077e-08
1.0008e-08
1.00125e-08
1.00114e-08
1.00142e-08
1.00139e-08
1.00119e-08
1.00107e-08
1.00102e-08
1.00099e-08
9.92898e-09
1.00084e-08
1.00071e-08
1.0007e-08
1.0007e-08
1.00074e-08
1.00076e-08
1.00121e-08
1.00109e-08
1.00137e-08
1.00127e-08
1.00109e-08
1.00101e-08
1.00098e-08
1.00097e-08
9.92898e-09
1.00087e-08
1.00071e-08
1.00069e-08
1.00068e-08
1.00071e-08
1.00072e-08
1.00115e-08
1.00107e-08
1.00133e-08
1.00118e-08
1.00102e-08
1.00097e-08
1.00096e-08
1.00096e-08
9.92898e-09
1.00091e-08
1.00073e-08
1.0007e-08
1.00067e-08
1.00069e-08
1.00066e-08
1.00108e-08
1.00106e-08
1.00128e-08
1.00112e-08
1.00098e-08
1.00094e-08
1.00094e-08
1.00094e-08
9.92898e-09
1.00096e-08
1.00075e-08
1.00072e-08
1.00068e-08
1.00068e-08
1.00058e-08
1.00099e-08
1.00107e-08
1.00123e-08
1.00108e-08
1.00096e-08
1.00093e-08
1.00092e-08
1.00093e-08
9.92899e-09
1.00102e-08
1.00077e-08
1.00074e-08
1.0007e-08
1.00069e-08
1.00054e-08
1.00091e-08
1.00108e-08
1.00116e-08
1.00104e-08
1.00095e-08
1.00092e-08
1.00092e-08
1.00092e-08
9.92899e-09
1.0011e-08
1.0008e-08
1.00076e-08
1.00072e-08
1.00071e-08
1.00061e-08
1.00084e-08
1.00108e-08
1.00109e-08
1.001e-08
1.00094e-08
1.00092e-08
1.00092e-08
1.00091e-08
9.92899e-09
1.00118e-08
1.00083e-08
1.00079e-08
1.00075e-08
1.00073e-08
1.00067e-08
1.00088e-08
1.00106e-08
1.00101e-08
1.00095e-08
1.00092e-08
1.00091e-08
1.00091e-08
1.00091e-08
9.92899e-09
1.00127e-08
1.00086e-08
1.00081e-08
1.00078e-08
1.00076e-08
1.00071e-08
1.00093e-08
1.00103e-08
1.00096e-08
1.00089e-08
1.0009e-08
1.0009e-08
1.0009e-08
1.00086e-08
9.92899e-09
1.00138e-08
1.00089e-08
1.00084e-08
1.0008e-08
1.00079e-08
1.00075e-08
1.00101e-08
1.00102e-08
1.00098e-08
1.00085e-08
1.00087e-08
1.00088e-08
1.00088e-08
1.00077e-08
9.92899e-09
1.0015e-08
1.00093e-08
1.00086e-08
1.00083e-08
1.00081e-08
1.00078e-08
1.00107e-08
1.00102e-08
1.00103e-08
1.00085e-08
1.00085e-08
1.00083e-08
1.00085e-08
1.00079e-08
9.92899e-09
1.00164e-08
1.00096e-08
1.00088e-08
1.00085e-08
1.00084e-08
1.00081e-08
1.00112e-08
1.00103e-08
1.00109e-08
1.00088e-08
1.00083e-08
1.00079e-08
1.0008e-08
1.00077e-08
9.92899e-09
1.0018e-08
1.001e-08
1.0009e-08
1.00087e-08
1.00086e-08
1.00083e-08
1.00115e-08
1.00105e-08
1.00116e-08
1.00093e-08
1.00084e-08
1.00077e-08
1.00073e-08
1.0007e-08
9.92898e-09
1.00198e-08
1.00103e-08
1.00092e-08
1.00089e-08
1.00088e-08
1.00086e-08
1.00118e-08
1.00108e-08
1.00122e-08
1.00098e-08
1.00086e-08
1.00079e-08
1.00071e-08
1.00063e-08
9.92898e-09
1.00219e-08
1.00108e-08
1.00094e-08
1.00091e-08
1.0009e-08
1.00088e-08
1.00119e-08
1.00112e-08
1.00127e-08
1.00105e-08
1.00089e-08
1.00083e-08
1.00075e-08
1.00061e-08
1.00247e-08
9.92898e-09
1.00112e-08
1.00096e-08
1.00093e-08
1.00092e-08
1.0009e-08
1.0012e-08
1.00115e-08
1.0013e-08
1.00112e-08
1.00093e-08
1.00086e-08
1.00079e-08
1.00063e-08
1.00119e-08
1.00281e-08
9.92901e-09
1.00098e-08
1.00094e-08
1.00094e-08
1.00092e-08
1.00121e-08
1.00119e-08
1.00131e-08
1.00117e-08
1.00097e-08
1.00089e-08
1.00084e-08
1.00066e-08
1.00101e-08
1.00126e-08
1.00351e-08
9.92946e-09
1.00096e-08
1.00096e-08
1.00093e-08
1.00121e-08
1.00123e-08
1.00131e-08
1.00122e-08
1.001e-08
1.00092e-08
1.00087e-08
1.00074e-08
1.00098e-08
1.00104e-08
1.00139e-08
1.00438e-08
9.93169e-09
1.00097e-08
1.00095e-08
1.00121e-08
1.00127e-08
1.00132e-08
1.00127e-08
1.00102e-08
1.00093e-08
1.0009e-08
1.00084e-08
1.00099e-08
1.001e-08
1.00109e-08
1.00155e-08
1.00555e-08
9.93811e-09
1.00097e-08
1.00121e-08
1.00133e-08
1.00135e-08
1.00133e-08
1.00103e-08
1.00094e-08
1.00091e-08
1.00088e-08
1.00099e-08
1.00102e-08
1.00105e-08
1.00116e-08
1.00187e-08
1.00765e-08
9.95515e-09
1.00121e-08
1.00141e-08
1.0014e-08
1.00144e-08
1.00106e-08
1.00093e-08
1.00091e-08
1.00089e-08
1.00122e-08
1.00101e-08
1.00106e-08
1.0011e-08
1.00131e-08
1.00269e-08
1.0118e-08
9.97669e-09
1.00149e-08
1.00147e-08
1.00162e-08
1.00112e-08
1.00092e-08
1.0009e-08
1.00089e-08
1.00158e-08
1.00122e-08
1.00106e-08
1.00111e-08
1.00119e-08
1.00172e-08
1.00478e-08
1.01973e-08
1.00705e-08
1.00154e-08
1.00184e-08
1.00124e-08
1.00094e-08
1.00089e-08
1.00088e-08
1.0016e-08
1.00165e-08
1.00123e-08
1.00111e-08
1.00118e-08
1.00139e-08
1.0029e-08
1.00933e-08
1.02512e-08
1.00124e-08
1.00206e-08
1.00143e-08
1.001e-08
1.0009e-08
1.00089e-08
1.00222e-08
1.00165e-08
1.00177e-08
1.00125e-08
1.00117e-08
1.00128e-08
1.00195e-08
1.00573e-08
1.01571e-08
1.04015e-08
9.97788e-09
1.00168e-08
1.0011e-08
1.00094e-08
1.0009e-08
1.00194e-08
1.00233e-08
1.00175e-08
1.00187e-08
1.00129e-08
1.00123e-08
1.00151e-08
1.00343e-08
1.01083e-08
1.02429e-08
1.02118e-08
1.00137e-08
1.00123e-08
1.00099e-08
1.00092e-08
1.00135e-08
1.00224e-08
1.00251e-08
1.00185e-08
1.00192e-08
1.00133e-08
1.00132e-08
1.0021e-08
1.00669e-08
1.01753e-08
1.02386e-08
1.00673e-08
1.00378e-08
9.96112e-09
1.00106e-08
1.00096e-08
1.00111e-08
1.00144e-08
1.00287e-08
1.0027e-08
1.00197e-08
1.00189e-08
1.00135e-08
1.00151e-08
1.00362e-08
1.01184e-08
1.02094e-08
1.01137e-08
1.00409e-08
1.00459e-08
1.00389e-08
9.96482e-09
1.001e-08
1.00103e-08
1.00113e-08
1.00161e-08
1.0034e-08
1.00294e-08
1.00213e-08
1.00185e-08
1.00141e-08
1.00205e-08
1.00665e-08
1.01675e-08
1.01429e-08
1.00399e-08
1.00413e-08
1.00542e-08
1.00522e-08
1.00489e-08
9.9694e-09
1.00103e-08
1.00118e-08
1.00161e-08
1.00355e-08
1.00314e-08
1.00229e-08
1.00184e-08
1.00157e-08
1.00325e-08
1.01133e-08
1.0153e-08
1.00398e-08
1.00381e-08
1.00468e-08
1.00685e-08
1.0063e-08
1.00599e-08
1.00606e-08
9.97521e-09
1.00105e-08
1.00118e-08
1.0015e-08
1.00339e-08
1.00319e-08
1.00243e-08
1.00191e-08
1.00192e-08
1.00563e-08
1.01398e-08
1.00444e-08
1.00374e-08
1.00414e-08
1.00562e-08
1.0088e-08
1.0083e-08
1.00727e-08
1.00678e-08
1.00741e-08
9.98281e-09
1.001e-08
1.00116e-08
1.00138e-08
1.00305e-08
1.00309e-08
1.00252e-08
1.00206e-08
1.00245e-08
1.00914e-08
1.00474e-08
1.00394e-08
1.00386e-08
1.00471e-08
1.00698e-08
1.01077e-08
1.01093e-08
1.00989e-08
1.00831e-08
1.00762e-08
1.00887e-08
9.99113e-09
1.00088e-08
1.00112e-08
1.00129e-08
1.00258e-08
1.00283e-08
1.00254e-08
1.00224e-08
1.00381e-08
1.00424e-08
1.00404e-08
1.00384e-08
1.00415e-08
1.00554e-08
1.00843e-08
1.01207e-08
1.01349e-08
1.01207e-08
1.01114e-08
1.01114e-08
1.01322e-08
1.01152e-08
1.00944e-08
1.0086e-08
1.01046e-08
1.00002e-08
1.00076e-08
1.00108e-08
1.00125e-08
1.00206e-08
1.0025e-08
1.00251e-08
1.00242e-08
1.00273e-08
1.0037e-08
1.00386e-08
1.00392e-08
1.00457e-08
1.00651e-08
1.00921e-08
1.01409e-08
1.01301e-08
1.01618e-08
1.01409e-08
1.01517e-08
1.01517e-08
1.01301e-08
1.01168e-08
1.01169e-08
1.01534e-08
1.01306e-08
1.01065e-08
1.00975e-08
1.01224e-08
1.00101e-08
1.00065e-08
1.00103e-08
1.00122e-08
1.00169e-08
1.00221e-08
1.00249e-08
1.00249e-08
1.00285e-08
1.00356e-08
1.00383e-08
1.00407e-08
1.00508e-08
1.00715e-08
1.00978e-08
1.00979e-08
1.00922e-08
1.00922e-08
1.01478e-08
1.01344e-08
1.01859e-08
1.0173e-08
1.01478e-08
1.01599e-08
1.01598e-08
1.01345e-08
1.0121e-08
1.01212e-08
1.01701e-08
1.01424e-08
1.01186e-08
1.01115e-08
1.01423e-08
1.00205e-08
1.00056e-08
1.00096e-08
1.00118e-08
1.00147e-08
1.00206e-08
1.00252e-08
1.00265e-08
1.00282e-08
1.00349e-08
1.00383e-08
1.00423e-08
1.00551e-08
1.00747e-08
1.00747e-08
1.00715e-08
1.00715e-08
1.00999e-08
1.01e-08
1.00925e-08
1.00925e-08
1.01492e-08
1.0134e-08
1.01348e-08
1.01354e-08
1.01339e-08
1.01987e-08
1.01908e-08
1.01723e-08
1.01725e-08
1.01713e-08
1.0171e-08
1.01493e-08
1.01602e-08
1.01603e-08
1.01342e-08
1.01349e-08
1.01355e-08
1.01341e-08
1.01225e-08
1.01209e-08
1.0121e-08
1.01225e-08
1.01226e-08
1.01211e-08
1.01212e-08
1.01226e-08
1.01778e-08
1.01518e-08
1.01324e-08
1.01289e-08
1.01651e-08
1.00317e-08
1.00048e-08
1.00088e-08
1.00111e-08
1.00138e-08
1.00208e-08
1.00263e-08
1.00282e-08
1.0029e-08
1.00354e-08
1.00388e-08
1.00444e-08
1.00578e-08
1.00577e-08
1.00554e-08
1.00554e-08
1.00762e-08
1.00762e-08
1.00719e-08
1.00719e-08
1.01001e-08
1.01209e-08
1.00998e-08
1.00995e-08
1.00995e-08
1.01205e-08
1.01212e-08
1.01001e-08
1.00999e-08
1.00995e-08
1.00996e-08
1.01205e-08
1.00915e-08
1.00919e-08
1.00923e-08
1.00923e-08
1.00916e-08
1.00919e-08
1.00924e-08
1.00924e-08
1.0149e-08
1.01474e-08
1.01483e-08
1.01474e-08
1.01336e-08
1.01343e-08
1.01351e-08
1.01336e-08
1.02041e-08
1.02054e-08
1.01886e-08
1.01874e-08
1.0179e-08
1.01785e-08
1.01634e-08
1.01632e-08
1.01608e-08
1.01611e-08
1.01492e-08
1.01478e-08
1.01485e-08
1.01478e-08
1.01591e-08
1.01558e-08
1.01595e-08
1.01549e-08
1.01593e-08
1.01563e-08
1.01597e-08
1.01551e-08
1.01338e-08
1.01346e-08
1.01353e-08
1.01339e-08
1.01227e-08
1.01226e-08
1.01229e-08
1.01228e-08
1.0182e-08
1.01622e-08
1.01499e-08
1.0151e-08
1.0191e-08
1.00428e-08
1.00041e-08
1.00078e-08
1.00107e-08
1.00133e-08
1.00229e-08
1.00286e-08
1.00329e-08
1.00817e-08
1.02086e-08
1.02721e-08
1.00457e-08
1.00457e-08
1.01283e-08
1.01191e-08
1.00591e-08
1.00591e-08
1.00564e-08
1.00564e-08
1.00765e-08
1.00763e-08
1.00763e-08
1.00763e-08
1.00765e-08
1.00763e-08
1.00763e-08
1.00763e-08
1.00712e-08
1.00716e-08
1.00721e-08
1.0072e-08
1.00712e-08
1.00716e-08
1.00721e-08
1.0072e-08
1.01212e-08
1.00999e-08
1.00996e-08
1.01195e-08
1.0099e-08
1.00991e-08
1.01214e-08
1.00999e-08
1.01194e-08
1.00997e-08
1.0099e-08
1.00992e-08
1.00907e-08
1.00914e-08
1.00923e-08
1.00922e-08
1.00908e-08
1.00914e-08
1.00923e-08
1.00923e-08
1.01486e-08
1.01437e-08
1.01474e-08
1.01454e-08
1.01328e-08
1.01339e-08
1.01348e-08
1.01322e-08
1.02053e-08
1.02137e-08
1.02069e-08
1.02046e-08
1.01981e-08
1.01965e-08
1.01859e-08
1.01842e-08
1.01729e-08
1.01717e-08
1.01578e-08
1.01599e-08
1.01542e-08
1.01561e-08
1.01569e-08
1.01586e-08
1.0154e-08
1.01555e-08
1.01529e-08
1.0153e-08
1.01617e-08
1.01537e-08
1.01576e-08
1.01598e-08
1.01532e-08
1.01534e-08
1.01619e-08
1.01539e-08
1.01581e-08
1.016e-08
1.01489e-08
1.01441e-08
1.01476e-08
1.01459e-08
1.01587e-08
1.01507e-08
1.01589e-08
1.01511e-08
1.0133e-08
1.01342e-08
1.01349e-08
1.01325e-08
1.01223e-08
1.01226e-08
1.01225e-08
1.01228e-08
1.01864e-08
1.01766e-08
1.01726e-08
1.01786e-08
1.02185e-08
1.00518e-08
1.00035e-08
1.00072e-08
1.001e-08
1.00139e-08
1.00271e-08
1.00863e-08
1.14179e-08
1.60429e-08
2.48414e-08
1.56794e-08
1.54459e-08
1.35558e-07
1.33134e-07
1.00722e-08
1.0072e-08
1.07534e-08
1.07356e-08
1.00597e-08
1.00595e-08
1.00596e-08
1.00596e-08
1.00597e-08
1.00594e-08
1.00596e-08
1.00596e-08
1.01301e-08
1.02338e-08
1.00603e-08
1.00647e-08
1.01295e-08
1.02329e-08
1.00602e-08
1.00651e-08
1.00767e-08
1.00764e-08
1.00762e-08
1.00761e-08
1.00767e-08
1.00764e-08
1.00762e-08
1.00762e-08
1.00705e-08
1.00708e-08
1.00724e-08
1.0072e-08
1.00704e-08
1.00708e-08
1.00723e-08
1.0072e-08
1.01481e-08
1.01412e-08
1.01465e-08
1.01439e-08
1.02037e-08
1.02183e-08
1.02234e-08
1.02153e-08
1.0219e-08
1.02115e-08
1.02133e-08
1.02067e-08
1.01987e-08
1.01965e-08
1.01904e-08
1.01906e-08
1.01811e-08
1.01827e-08
1.01881e-08
1.0189e-08
1.01789e-08
1.01812e-08
1.01639e-08
1.01658e-08
1.01723e-08
1.01743e-08
1.01623e-08
1.01642e-08
1.01703e-08
1.01726e-08
1.01561e-08
1.01578e-08
1.01513e-08
1.0152e-08
1.01548e-08
1.01563e-08
1.01509e-08
1.0151e-08
1.01515e-08
1.01531e-08
1.01607e-08
1.01605e-08
1.01507e-08
1.01523e-08
1.0152e-08
1.01534e-08
1.01614e-08
1.01607e-08
1.0151e-08
1.0152e-08
1.01484e-08
1.01417e-08
1.01468e-08
1.01445e-08
1.01583e-08
1.01487e-08
1.01585e-08
1.01493e-08
1.01953e-08
1.01975e-08
1.02014e-08
1.02107e-08
1.02425e-08
1.00507e-08
1.00032e-08
1.00064e-08
1.001e-08
1.00273e-08
1.10276e-08
2.68975e-08
1.10033e-07
2.96678e-07
2.11847e-06
2.38532e-08
2.37253e-08
1.99385e-07
1.98428e-07
1.24371e-08
1.23681e-08
4.75917e-08
4.7027e-08
1.00606e-08
1.00599e-08
1.00607e-08
1.00615e-08
1.00605e-08
1.00599e-08
1.00606e-08
1.00616e-08
1.01688e-08
1.04149e-08
1.00656e-08
1.00893e-08
1.0168e-08
1.04096e-08
1.00655e-08
1.00898e-08
1.00688e-08
1.0069e-08
1.00687e-08
1.0069e-08
1.02053e-08
1.02195e-08
1.02224e-08
1.02202e-08
1.02212e-08
1.02173e-08
1.0261e-08
1.02209e-08
1.02498e-08
1.02169e-08
1.0241e-08
1.02844e-08
1.02172e-08
1.02286e-08
1.02148e-08
1.02203e-08
1.0209e-08
1.02087e-08
1.01985e-08
1.01974e-08
1.02079e-08
1.02115e-08
1.01963e-08
1.01953e-08
1.02036e-08
1.02021e-08
1.01934e-08
1.01919e-08
1.01823e-08
1.01832e-08
1.01907e-08
1.01897e-08
1.01801e-08
1.01818e-08
1.01634e-08
1.01647e-08
1.0173e-08
1.01746e-08
1.01614e-08
1.0163e-08
1.01707e-08
1.0173e-08
1.02112e-08
1.02261e-08
1.02362e-08
1.02409e-08
1.02485e-08
1.00236e-08
1.00028e-08
1.00062e-08
1.0009e-08
1.22005e-08
2.23257e-07
8.98554e-07
3.16149e-06
3.22257e-05
3.74249e-05
3.70493e-05
0.000237827
0.000236593
5.00131e-07
4.91178e-07
4.77887e-06
4.67814e-06
1.55291e-08
1.19078e-08
1.19597e-08
1.59351e-08
1.54416e-08
1.18485e-08
1.19198e-08
1.57623e-08
4.43764e-08
1.18994e-07
1.23697e-07
4.36519e-08
4.36947e-08
1.14872e-07
1.21297e-07
4.26301e-08
1.00611e-08
1.00605e-08
1.00625e-08
1.00658e-08
1.00611e-08
1.00605e-08
1.00623e-08
1.00659e-08
1.02808e-08
1.04751e-08
1.0077e-08
1.01148e-08
1.02733e-08
1.04698e-08
1.00757e-08
1.01155e-08
1.02137e-08
1.02166e-08
1.02273e-08
1.02483e-08
1.02216e-08
1.02418e-08
1.02192e-08
1.04476e-08
1.025e-08
1.03851e-08
1.02392e-08
1.02782e-08
1.0413e-08
1.02294e-08
1.02653e-08
1.02214e-08
1.02405e-08
1.02129e-08
1.02145e-08
1.02021e-08
1.01992e-08
1.02154e-08
1.02287e-08
1.01994e-08
1.01956e-08
1.02072e-08
1.02048e-08
1.01974e-08
1.01933e-08
1.0194e-08
1.01897e-08
1.02362e-08
1.02639e-08
1.02696e-08
1.02532e-08
1.0196e-08
9.92937e-09
1.00027e-08
1.00054e-08
1.00115e-08
9.97383e-08
1.12059e-05
2.21921e-05
0.000284757
0.00129915
7.27621e-05
7.22403e-05
0.000343589
0.000342389
6.0211e-07
6.83652e-07
2.65602e-06
2.2397e-06
5.85018e-07
6.69339e-07
2.60605e-06
2.20037e-06
1.24876e-05
1.23214e-05
1.97267e-08
1.25472e-08
1.25771e-08
1.92973e-08
1.95522e-08
1.24435e-08
1.25394e-08
1.89037e-08
6.37298e-08
1.8671e-07
2.44594e-07
5.3526e-08
6.25871e-08
1.80759e-07
2.39895e-07
5.18784e-08
1.0686e-08
1.08437e-08
1.0658e-08
1.08348e-08
1.023e-08
1.02167e-08
1.02339e-08
1.03329e-08
1.0228e-08
1.03547e-08
1.02328e-08
1.04894e-08
1.02544e-08
1.03494e-08
1.02331e-08
1.23543e-08
1.08999e-08
1.24334e-08
1.08512e-08
1.05948e-08
1.03205e-08
1.06042e-08
1.03149e-08
1.19226e-08
1.04754e-08
1.10306e-08
1.07514e-08
1.05144e-08
1.02516e-08
1.03451e-08
1.0297e-08
1.036e-08
1.07326e-08
1.02577e-08
1.0348e-08
1.02342e-08
1.02945e-08
1.02187e-08
1.02282e-08
1.02061e-08
1.02026e-08
1.02316e-08
1.02675e-08
1.02021e-08
1.01957e-08
1.02117e-08
1.02112e-08
1.02754e-08
1.03046e-08
1.0283e-08
1.02046e-08
9.93251e-09
1.00024e-08
1.00054e-08
1.02499e-08
1.71309e-06
0.000254057
0.00211146
0.00543517
0.00121249
0.00121536
0.00253908
0.0025496
6.37813e-05
6.93441e-05
0.00013477
0.000145254
6.34268e-05
6.90464e-05
0.000134394
0.000145059
0.000420431
0.000420689
7.80538e-07
1.06325e-06
3.86008e-06
3.0054e-06
7.58966e-07
1.04138e-06
3.78566e-06
2.94617e-06
1.93613e-05
2.18759e-05
9.66341e-06
1.07028e-05
1.917e-05
2.1711e-05
9.52611e-06
1.05681e-05
1.34531e-07
2.7157e-07
4.06301e-07
9.8035e-08
1.31862e-07
2.62778e-07
3.97583e-07
9.50685e-08
1.02615e-08
1.02236e-08
1.02254e-08
1.03911e-08
1.13496e-08
1.03347e-08
1.12107e-08
1.03476e-08
1.25287e-08
1.05856e-08
1.09069e-08
1.18594e-08
1.17899e-08
1.09911e-08
1.03201e-08
1.04986e-08
1.04464e-08
1.03223e-08
1.58161e-08
1.14353e-08
1.63715e-08
1.13597e-08
1.1314e-08
1.0415e-08
1.1411e-08
1.0403e-08
1.44126e-08
1.07539e-08
1.2015e-08
1.13333e-08
1.10275e-08
1.02939e-08
1.05294e-08
1.03948e-08
1.05737e-08
1.14088e-08
1.0267e-08
1.04195e-08
1.03281e-08
1.03274e-08
1.02313e-08
9.94512e-09
1.00023e-08
1.00053e-08
2.46085e-08
2.34642e-05
0.00250754
0.0244712
0.00746382
0.00750244
0.0149073
0.0149799
0.0012359
0.00125336
0.00236418
0.00241017
6.75211e-05
7.78831e-05
0.00016428
0.000178427
6.72424e-05
7.77126e-05
0.000164062
0.00017837
0.000388286
0.000580393
0.000609033
0.000359525
0.000390464
0.000586407
0.000615353
0.000361524
9.30045e-07
1.37157e-06
4.13878e-06
3.19417e-06
9.02997e-07
1.34166e-06
4.06115e-06
3.125e-06
2.39078e-05
2.94362e-05
1.0332e-05
1.2834e-05
2.3703e-05
2.92873e-05
1.01868e-05
1.27061e-05
1.03214e-08
1.02377e-08
1.02286e-08
1.02593e-08
1.23793e-08
1.03996e-08
1.53754e-08
1.07623e-08
1.89379e-08
1.14011e-08
1.60432e-08
2.40322e-08
1.49284e-08
1.77522e-08
1.11337e-08
1.26683e-08
1.08558e-08
1.12098e-08
1.70617e-08
3.36506e-08
1.67211e-08
3.79258e-08
1.24953e-08
1.82569e-08
1.13505e-08
1.45868e-08
1.13417e-08
1.56569e-08
1.05905e-08
1.16836e-08
1.18067e-08
1.70138e-08
1.04839e-08
1.15287e-08
2.23184e-08
1.25996e-08
2.4643e-08
1.25732e-08
1.27976e-08
1.05949e-08
1.32943e-08
1.05952e-08
1.03752e-08
1.02834e-08
9.97668e-09
1.00021e-08
1.00201e-08
5.26403e-07
0.000337859
0.011781
0.0574296
0.0048115
0.00493742
0.00961899
0.00980653
0.00103597
0.000690845
0.00105379
0.00115983
0.00120344
0.000732881
0.000699991
0.00104926
0.000742596
0.00106539
0.00117066
0.001212
0.00202973
0.00197404
0.00174572
0.00175532
0.0018947
0.00187716
0.00174138
0.00175066
7.91857e-05
9.71975e-05
0.000171352
0.000199788
7.90463e-05
9.7245e-05
0.000171761
0.000200391
0.00045628
0.000404486
0.000461036
0.000408485
5.99225e-06
4.6309e-06
5.90606e-06
4.5446e-06
3.67412e-05
4.66487e-05
3.65665e-05
4.65627e-05
1.04047e-08
1.02834e-08
1.02363e-08
1.02499e-08
1.06249e-08
1.02363e-08
1.12892e-08
1.02802e-08
2.18525e-08
1.13697e-08
4.05713e-08
1.39476e-08
1.27072e-07
3.90139e-08
6.86209e-08
4.7895e-08
5.78549e-08
2.53402e-08
3.19108e-08
1.40024e-08
1.77644e-08
1.66704e-08
1.87936e-08
1.27123e-08
2.38866e-08
6.57737e-08
1.2639e-08
2.12544e-08
2.24642e-08
7.72564e-08
2.16099e-08
1.44227e-08
8.30945e-08
3.47119e-08
1.24471e-08
2.41257e-08
1.23413e-08
1.09398e-08
2.59632e-08
1.51921e-08
1.32359e-08
2.92357e-08
1.07269e-08
1.4301e-08
1.03577e-08
1.00302e-08
1.00024e-08
1.04204e-08
1.077e-05
0.00413125
0.0341231
0.0990689
0.0944623
0.144684
0.14412
0.00362827
0.00285088
0.00963953
0.00862339
0.000764911
0.000976511
0.000996477
0.000798827
0.00101718
0.00104406
0.000774891
0.000984607
0.000808587
0.00100384
0.0010163
0.00104536
0.00163252
0.00137391
0.00122037
0.00121092
0.00144031
0.00129924
0.00118805
0.00119711
0.000227267
0.000274278
0.000228742
0.000276306
1.04392e-08
1.0395e-08
1.02563e-08
1.02453e-08
1.05257e-08
1.32417e-08
1.03773e-08
1.66701e-08
1.06388e-08
5.61313e-08
6.96482e-08
8.05709e-08
1.60916e-07
1.43314e-08
1.33399e-08
1.96272e-08
3.20737e-08
1.06292e-07
7.62674e-08
3.49861e-07
9.64481e-08
2.62936e-07
2.17386e-07
2.52993e-08
2.05213e-08
6.91502e-08
2.30155e-08
5.08495e-08
4.44438e-08
3.18408e-07
1.54733e-07
8.07251e-08
3.86772e-08
7.28669e-08
4.01216e-08
2.35884e-08
1.55988e-08
3.40114e-08
1.68104e-07
1.51229e-08
4.61258e-08
2.9528e-08
1.69728e-07
1.91937e-08
7.21562e-08
1.38163e-08
4.68377e-08
1.17883e-08
2.38856e-08
1.00947e-08
1.00029e-08
2.06007e-08
0.000136484
0.0160565
0.0841662
0.0832267
0.081104
0.113067
0.112561
0.0360737
0.0199431
0.0140701
0.0316939
0.0304699
0.0101636
0.00924635
0.0226655
0.0389554
0.0309637
0.00376328
0.00162727
0.00179959
0.00112794
0.00196103
0.001115
0.00124204
0.000993005
1.01553e-08
1.05013e-08
1.03528e-08
1.02604e-08
1.02897e-08
1.24494e-08
1.0344e-08
2.04375e-08
1.09407e-08
3.32685e-08
1.18186e-08
5.14977e-08
1.3217e-08
1.53783e-07
4.13755e-07
1.87054e-07
6.56257e-07
2.62512e-08
5.717e-08
3.69057e-08
1.13384e-07
1.11709e-07
1.47823e-07
5.32603e-07
7.69926e-07
1.70833e-07
7.3092e-07
2.6818e-08
3.69386e-08
1.62171e-07
1.09701e-07
3.86754e-08
1.45972e-07
3.51885e-07
6.61416e-08
8.66732e-08
2.20393e-08
1.00084e-08
4.26355e-07
0.0012135
0.0316841
0.166443
0.167982
0.229417
0.226918
0.0616162
0.0614515
0.104201
0.105134
0.0326298
0.0209164
0.0161023
0.0325241
0.0245714
0.0136572
0.0114848
0.0235581
0.0508901
0.0645884
0.0451971
0.0460196
0.0449351
0.056327
0.0416997
0.041229
0.0113229
0.00449036
0.00365995
0.00215591
1.02066e-08
1.05229e-08
1.03359e-08
1.02744e-08
1.07061e-08
2.26258e-08
1.15211e-08
6.99385e-08
1.68536e-08
1.88075e-07
3.23926e-08
3.23575e-07
2.55262e-07
6.5752e-07
1.84853e-07
4.33479e-08
4.03043e-08
9.79918e-08
2.91499e-08
2.88366e-07
1.25666e-06
3.56483e-07
1.90042e-06
4.94737e-08
2.14839e-07
6.90032e-08
3.68181e-07
1.04662e-08
2.31858e-05
0.00397359
0.0582083
0.219802
0.223004
0.246336
0.244775
0.0608187
0.0647215
0.0951139
0.102686
0.0724443
0.0817981
0.0633902
0.0578441
0.101965
0.109228
0.0751601
0.0796166
0.136623
0.130654
0.0336489
0.0309442
0.0238833
0.0394429
0.0279304
0.0227132
0.0188222
0.0347672
0.0608492
0.0540435
0.0854127
0.0546105
1.02505e-08
1.05048e-08
1.03394e-08
1.0322e-08
1.06853e-08
1.03459e-08
1.46484e-08
1.08831e-08
2.90994e-08
1.44762e-08
2.40235e-07
4.51018e-08
4.22054e-07
6.32056e-07
7.71473e-07
1.96788e-06
5.08311e-07
1.43539e-06
6.71425e-08
9.8898e-08
1.36105e-07
3.7368e-07
8.95341e-08
2.51791e-07
5.24318e-07
2.00328e-06
9.67385e-08
3.61553e-07
4.85946e-07
2.78467e-06
9.84793e-08
5.39131e-07
1.37257e-07
0.000132662
0.0106693
0.144633
0.145426
0.101929
0.101847
0.402566
0.393331
0.260433
0.262676
0.100723
0.0688366
0.254372
0.581011
0.216935
0.517251
0.140405
0.0737326
0.258006
0.653948
0.250504
0.474274
0.775312
0.436085
1.05751
0.445611
0.665257
0.41572
1.07118
0.471758
1.02889e-08
1.04854e-08
1.03471e-08
1.06731e-08
2.04159e-08
1.14921e-08
5.97106e-08
1.65151e-08
2.2554e-07
4.17064e-08
1.01513e-06
2.47558e-06
6.98773e-07
1.03854e-06
2.69754e-06
4.73262e-07
1.30114e-07
2.01956e-07
5.52119e-07
8.84409e-08
1.78262e-07
4.51391e-07
1.42991e-06
8.52385e-07
4.86139e-06
3.57042e-06
2.77501e-07
1.63205e-07
1.0189e-06
7.24573e-07
8.12362e-07
4.26688e-06
1.53029e-07
8.90461e-07
1.41169e-06
0.00173493
0.0204434
0.0925813
0.0972473
0.0628779
0.0642937
0.923928
0.456476
0.330321
0.687007
0.30054
0.599122
0.915061
0.452439
0.358501
0.81635
0.339813
0.700385
0.191083
0.204256
0.325249
0.97128
0.453342
1.31772
0.924757
0.381204
1.08973
0.427079
1.03089e-08
1.04718e-08
1.04119e-08
1.11311e-08
1.03409e-08
1.50076e-08
1.06878e-08
3.46873e-08
1.29042e-08
1.64468e-07
2.92658e-08
5.0593e-07
7.02735e-07
1.14669e-06
3.04032e-06
1.10264e-06
2.61949e-06
8.85675e-08
1.93935e-07
4.72337e-07
1.31784e-07
2.10083e-07
5.81387e-07
1.42989e-06
5.33059e-06
1.69014e-06
5.74992e-06
3.49222e-07
2.79874e-07
1.21122e-06
1.13593e-06
7.20466e-05
0.00757957
0.0241939
0.0632295
0.0648605
0.0441159
0.0455421
0.596047
0.219225
0.121275
0.24716
0.098449
0.204017
0.850415
0.287892
0.119403
0.304622
0.104444
0.234669
0.0774348
0.11119
0.106712
0.0746922
0.138578
0.114405
0.200468
0.10167
0.247046
0.101293
0.831658
0.229607
1.03156e-08
1.04825e-08
1.11115e-08
1.6215e-08
1.05926e-08
3.72941e-08
1.20235e-08
1.39408e-07
2.06872e-08
9.79249e-07
2.15605e-06
5.40965e-07
9.64654e-07
2.50826e-06
3.90234e-07
1.43204e-07
2.88175e-07
6.95439e-08
1.24605e-07
3.17169e-07
5.00997e-08
2.09037e-06
1.71911e-06
6.69072e-06
6.82498e-06
3.42788e-07
1.45994e-06
3.86193e-07
1.26906e-06
0.000800485
0.0178784
0.0242312
0.0293376
0.0301458
0.0240917
0.0363777
0.0364458
0.0512596
0.0601104
0.0831992
0.0497169
0.0938056
0.0807915
0.0601883
0.0275348
0.0570757
0.113188
0.0376258
0.113262
0.210619
0.0584863
0.0715985
0.0826712
0.0352215
0.169621
0.0565066
0.0486009
0.141728
0.0742772
1.03206e-08
1.06466e-08
1.96864e-08
3.75153e-08
1.16785e-08
1.26643e-07
1.80399e-08
3.89728e-07
4.22136e-07
9.84295e-07
2.27024e-06
5.54925e-07
7.41164e-07
4.0949e-08
4.60975e-08
2.82013e-08
3.72679e-08
1.07068e-07
2.24304e-07
1.61878e-06
6.51284e-06
1.68352e-06
5.54854e-06
2.46253e-07
1.0109e-06
1.93784e-07
6.56531e-07
2.5454e-06
1.13943e-05
4.77147e-07
2.20723e-06
0.00565033
0.0270527
0.0401726
0.0271594
0.0399279
0.0264141
0.02598
0.0260073
0.0458507
0.0418955
0.0554054
0.0505893
0.0772137
0.0481437
0.0474154
0.0932285
0.0368038
0.0477805
0.0557745
0.0707305
0.0702291
0.0481821
0.0491257
0.0902858
0.0456073
0.0546923
0.071344
0.14315
0.0455176
0.040907
0.106901
0.0579854
1.03355e-08
1.18895e-08
5.91491e-08
1.72936e-07
2.23563e-08
1.30287e-08
2.28442e-07
2.81774e-08
7.16326e-07
5.78297e-07
4.23471e-07
7.10384e-08
6.35509e-08
3.01598e-08
1.55744e-06
1.88985e-06
6.48744e-06
5.26268e-06
1.76911e-07
8.02497e-07
2.49068e-07
7.0883e-07
2.59319e-06
1.34512e-05
2.95855e-06
1.50412e-05
3.54656e-07
2.00642e-06
3.44974e-07
2.11604e-06
0.0147249
0.0345171
0.0541691
0.0614059
0.040373
0.0614746
0.0524469
0.0644144
0.0376946
0.0611715
0.0374681
0.0377282
0.0533551
0.0505223
0.0405102
0.0357028
0.0424066
0.0381201
0.044425
0.0536143
0.0436947
0.0394418
0.0381527
0.0350926
0.040073
0.0379889
0.060473
0.106894
1.04059e-08
2.10931e-08
3.09837e-07
6.65821e-07
6.8112e-08
3.23557e-08
1.43676e-06
1.49075e-07
3.19556e-06
3.72935e-06
9.1382e-06
1.70999e-06
2.84097e-06
7.60299e-06
9.97728e-07
9.25928e-07
3.12324e-07
4.3438e-07
1.07545e-06
2.08859e-07
3.09566e-07
8.20789e-07
8.78248e-08
8.76362e-08
3.36124e-06
3.93246e-06
1.46551e-05
1.20886e-05
4.87561e-07
2.25799e-06
5.74106e-07
1.84991e-06
0.0211159
0.110457
0.0666631
0.0677694
0.111425
0.0915769
0.0917401
0.0718966
0.0709346
0.122803
0.0950535
0.0758329
0.117517
0.100556
0.0825363
0.130976
0.140281
0.146204
0.0744925
0.0715449
0.101027
0.0893435
0.0596166
0.11382
0.0984081
0.081692
0.13164
0.148572
0.143397
0.0636741
0.104885
0.0531469
0.0644197
0.0557438
0.0841254
0.0492053
0.0561053
1.07343e-08
4.11906e-08
4.29129e-07
6.06894e-06
1.56451e-06
1.42098e-06
7.37756e-07
1.66151e-07
1.26838e-07
2.77171e-08
2.16905e-06
1.60169e-07
5.51631e-06
5.1231e-06
7.05432e-06
2.28983e-05
2.51695e-05
1.52404e-05
6.71947e-07
4.74644e-07
1.02214e-06
3.90117e-06
3.07635e-06
1.55026e-06
6.34684e-06
2.61e-05
9.97962e-07
4.51311e-06
0.0438281
0.184399
0.169914
0.187112
0.169946
0.129559
0.129028
0.19426
0.141335
0.0971467
0.112742
0.279094
0.181387
0.396948
0.341202
0.239568
0.20983
0.17639
0.255165
0.275582
0.232571
0.158974
0.128731
0.0989242
0.0919527
0.279582
0.180576
0.345644
0.40471
0.238486
0.21748
0.174351
0.256041
0.288669
0.233074
1.11519e-08
1.33006e-08
7.41017e-07
6.58283e-08
1.33261e-08
1.38751e-08
1.14254e-08
1.08297e-05
1.62006e-05
2.09366e-05
4.80329e-05
7.88587e-06
1.60382e-05
2.33472e-05
5.17591e-05
1.26004e-06
2.0368e-06
2.98332e-06
7.88463e-06
9.62833e-07
2.09315e-06
3.20713e-06
8.24569e-06
3.65349e-06