/*--------------------------------*- C++ -*----------------------------------*\
| =========                 |                                                 |
| \\      /  F ield         | OpenFOAM: The Open Source CFD Toolbox           |
|  \\    /   O peration     | Version:  5.x                                   |
|   \\  /    A nd           | Web:      www.OpenFOAM.org                      |
|    \\/     M anipulation  |                                                 |
\*---------------------------------------------------------------------------*/
FoamFile
{
    version     2.0;
    format      ascii;
    class       surfaceScalarField;
    location    "1.1";
    object      meshPhi;
}
// * * * * * * * * * * * * * * * * * * * * * * * * * * * * * * * * * * * * * //

dimensions      [0 3 -1 0 0 0 0];

internalField   nonuniform List<scalar> 
30582
(
0
0
0
0
0
0
0
0
0
0
0
0
0
0
0
0
0
0
0
0
0
0
0
0
0
0
0
0
0
0
0
0
0
0
0
0
0
0
0
0
0
0
0
0
0
0
0
0
0
0
0
0
0
0
0
0
0
0
0
0
0
0
0
0
0
0
0
0
0
0
0
0
0
0
0
0
0
0
0
0
0
0
0
0
0
0
0
0
0
0
0
0
0
0
0
0
0
0
0
0
0
0
0
0
0
0
0
0
0
0
0
0
0
0
0
0
0
0
0
0
0
0
0
0
0
0
0
0
0
0
0
0
0
0
0
0
0
0
0
0
0
0
0
0
0
0
0
0
0
0
0
0
0
0
0
0
0
0
0
0
0
0
0
0
0
0
0
0
0
0
0
0
0
0
0
0
0
0
0
0
0
0
0
0
0
0
0
0
0
0
0
0
0
0
0
0
0
0
0
0
0
0
0
0
0
0
0
0
0
0
0
0
0
0
0
0
0
0
0
0
0
0
0
0
0
0
0
0
0
0
0
0
0
0
0
0
0
0
0
0
0
0
0
0
0
0
0
0
0
0
0
0
0
0
0
0
0
0
0
0
0
0
0
0
0
0
0
0
0
0
0
0
0
0
0
0
0
0
0
0
0
0
0
0
0
0
0
0
0
0
0
0
0
0
0
0
0
0
0
0
0
0
0
0
0
0
0
0
0
0
0
0
0
0
0
0
0
0
0
0
0
0
0
0
0
0
0
0
0
0
0
0
0
0
0
0
0
0
0
0
0
0
0
0
0
0
0
0
0
0
0
0
0
0
0
0
0
0
0
0
0
0
0
0
0
0
0
0
0
0
0
0
0
0
0
0
0
0
0
0
0
0
0
0
0
0
0
0
0
0
0
0
0
0
0
0
0
0
0
0
0
0
0
0
0
0
0
0
0
0
0
0
0
0
0
0
0
0
0
0
0
0
0
0
0
0
0
0
0
0
0
0
0
0
0
0
0
0
0
0
0
0
0
0
0
0
0
0
0
0
0
0
0
0
0
0
0
0
0
0
0
0
0
0
0
0
0
0
0
0
0
0
0
0
0
0
0
0
0
0
0
0
0
0
0
0
0
0
0
0
0
0
0
0
0
0
0
0
0
0
0
0
0
0
0
0
0
0
0
0
0
0
0
0
0
0
0
0
0
0
0
0
0
0
0
0
0
0
0
0
0
0
0
0
0
0
0
0
0
0
0
0
0
0
0
0
0
0
0
0
0
0
0
0
0
0
0
0
0
0
0
0
0
0
0
0
0
0
0
0
0
0
0
0
0
0
0
0
0
0
0
0
0
0
0
0
0
0
0
0
0
0
0
0
0
0
0
0
0
0
0
0
0
0
0
0
0
0
0
0
0
0
0
0
0
0
0
0
0
0
0
0
0
0
0
0
0
0
0
0
0
0
0
0
0
0
0
0
0
0
0
0
0
0
0
0
0
0
0
0
0
0
0
0
0
0
0
0
0
0
0
0
0
0
0
0
0
0
0
0
0
0
0
0
0
0
0
0
0
0
0
0
0
0
0
0
0
0
0
0
0
0
0
0
0
0
0
0
0
0
0
0
0
0
0
0
0
0
0
0
0
0
0
0
0
0
0
0
0
0
0
0
0
0
0
0
0
0
0
0
0
0
0
0
0
0
0
0
0
0
0
0
0
0
0
0
0
0
0
0
0
0
0
0
0
0
0
0
0
0
0
0
0
0
0
0
0
0
0
0
0
0
0
0
0
0
0
0
0
0
0
0
0
0
0
0
0
0
0
0
0
0
0
0
0
0
0
0
0
0
0
0
0
0
0
0
0
0
0
0
0
0
0
0
0
0
0
0
0
0
0
0
0
0
0
0
0
0
0
0
0
0
0
0
0
0
0
0
0
0
0
0
0
0
0
0
0
0
0
0
0
0
0
0
0
0
0
0
0
0
0
0
0
0
0
0
0
0
0
0
0
0
0
0
0
0
0
0
0
0
0
0
0
0
0
0
0
0
0
0
0
0
0
0
0
0
0
0
0
0
0
0
0
0
0
0
0
0
0
0
0
0
0
0
0
0
0
0
0
0
0
0
0
0
0
0
0
0
0
0
0
0
0
0
0
0
0
0
0
0
0
0
0
0
0
0
0
0
0
0
0
0
0
0
0
0
0
0
0
0
0
0
0
0
0
0
0
0
0
0
0
0
0
0
0
0
0
0
0
0
0
0
0
0
0
0
0
0
0
0
0
0
0
0
0
0
0
0
0
0
0
0
0
0
0
0
0
0
0
0
0
0
0
0
0
0
0
0
0
0
0
0
0
0
0
0
0
0
0
0
0
0
0
0
0
0
0
0
0
0
0
0
0
0
0
0
0
0
0
0
0
0
0
0
0
0
0
0
0
0
0
0
0
0
0
0
0
0
0
0
0
0
0
0
0
0
0
0
0
0
0
0
0
0
0
0
0
0
0
0
0
0
0
0
0
0
0
0
0
0
0
0
0
0
0
0
0
0
0
0
0
0
0
0
0
0
0
0
0
0
0
0
0
0
0
0
0
0
0
0
0
0
0
0
0
0
0
0
0
0
0
0
0
0
0
0
0
0
0
0
0
0
0
0
0
0
0
0
0
0
0
0
0
0
0
0
0
0
0
0
0
0
0
0
0
0
0
0
0
0
0
0
0
0
0
0
0
0
0
0
0
0
0
0
0
0
0
0
0
0
0
0
0
0
0
0
0
0
0
0
0
0
0
0
0
0
0
0
0
0
0
0
0
0
0
0
0
0
0
0
0
0
0
0
0
0
0
0
0
0
0
0
0
0
0
0
0
0
0
0
0
0
0
0
0
0
0
0
0
0
0
0
0
0
0
0
0
0
0
0
0
0
0
0
0
0
0
0
0
0
0
0
0
0
0
0
0
0
0
0
0
0
0
0
0
0
0
0
0
0
0
0
0
0
0
0
0
0
0
0
0
0
0
0
0
0
0
0
0
0
0
0
0
0
0
0
0
0
0
0
0
0
0
0
0
0
0
0
0
0
0
0
0
0
0
0
0
0
0
0
0
0
0
0
0
0
0
0
0
0
0
0
0
0
0
0
0
0
0
0
0
0
0
0
0
0
0
0
0
0
0
0
0
0
0
0
0
0
0
0
0
0
0
0
0
0
0
0
0
0
0
0
0
0
0
0
0
0
0
0
0
0
0
0
0
0
0
0
0
0
0
0
0
0
0
0
0
0
0
0
0
0
0
0
0
0
0
0
0
0
0
0
0
0
0
0
0
0
0
0
0
0
0
0
0
0
0
0
0
0
0
0
0
0
0
0
0
0
0
0
0
0
0
0
0
0
0
0
0
0
0
0
0
0
0
0
0
0
0
0
0
2.56241e-18
-9.03713e-18
3.66674e-25
-2.71081e-17
-1.35513e-17
-1.80829e-17
0
0
0
0
0
0
0
0
0
0
0
0
0
0
0
0
0
0
0
0
0
0
0
0
0
0
0
0
0
0
0
0
0
0
0
0
0
0
-4.50792e-18
-1.41919e-34
6.57569e-19
-1.04479e-25
-2.25695e-17
1.80718e-17
2.51942e-18
-2.71081e-17
4.51737e-18
-2.71161e-17
1.30778e-18
2.86474e-25
4.51424e-17
-3.27221e-34
1.9366e-18
-2.70937e-17
-6.54866e-18
4.51563e-17
0
0
0
0
0
0
0
0
0
0
0
0
0
0
0
0
0
0
0
0
0
0
0
0
0
0
0
0
0
0
0
0
0
0
0
0
0
-7.50971e-19
3.88984e-18
-2.85443e-17
3.17288e-20
5.40196e-17
1.79903e-17
-3.60859e-17
1.18484e-35
1.28868e-18
-1.35417e-17
-1.64518e-33
6.64726e-19
-1.8266e-25
-2.25162e-17
0
-7.67421e-17
7.55234e-21
3.61139e-17
2.0173e-35
-6.31434e-19
-2.70937e-17
-6.54866e-18
2.70948e-17
4.07469e-20
-2.87433e-24
2.70243e-17
-2.52223e-34
5.92978e-21
3.60293e-17
0
0
0
0
0
0
0
0
0
0
0
0
0
0
0
0
0
0
0
0
0
0
0
0
0
0
0
0
0
0
0
0
0
0
0
-1.41784e-17
-2.70217e-17
-1.79873e-17
-4.55444e-18
-4.61553e-20
-2.12488e-34
-8.13057e-20
-4.87342e-20
-3.1541e-17
-1.03752e-17
2.48977e-18
1.77686e-17
1.63707e-34
-2.17211e-19
-1.34649e-17
2.42692e-18
1.79548e-17
-9.7174e-35
-7.12346e-20
4.50788e-18
0
-3.86406e-19
-7.85161e-24
-7.84765e-18
1.34456e-17
-1.00872e-17
1.34647e-17
0
0
-1.87635e-18
3.85559e-18
-1.84344e-17
-1.14934e-20
-2.70732e-17
-8.96875e-18
5.40196e-17
8.14939e-20
3.60324e-17
2.05142e-34
9.01322e-18
7.20951e-17
0
3.654e-24
-2.01849e-17
2.24023e-18
-2.01714e-17
4.49682e-18
0
8.99643e-18
-2.3229e-18
9.06911e-18
-8.99255e-18
1.12476e-17
-9.05605e-18
1.13655e-17
-2.25751e-18
0
0
0
0
0
0
0
0
0
0
0
0
0
0
0
0
0
0
0
0
0
0
0
0
0
0
0
0
0
0
0
0
0
1.24356e-17
-2.26083e-17
1.80482e-17
-1.3549e-17
-9.14695e-18
7.1135e-35
3.88935e-18
-2.69918e-17
-2.45665e-18
3.5909e-17
2.6644e-34
-9.15607e-18
-1.357e-17
0
3.62686e-17
-9.2477e-36
1.92639e-11
5.18625e-12
1.92689e-09
-7.74991e-14
2.84689e-13
-1.5117e-08
-2.20597e-13
-1.53001e-08
1.34339e-10
-8.18642e-19
1.58201e-19
-5.17179e-19
-1.58895e-19
4.57014e-18
-1.75116e-17
-1.14819e-18
-1.08458e-17
-2.08761e-18
-3.3789e-34
2.59794e-16
-8.94294e-13
-1.49562e-08
1.19336e-14
-3.01846e-08
-6.32008e-19
-1.09659e-18
-2.4554e-17
-4.47434e-18
-3.1314e-17
0
3.4999e-19
-1.00968e-17
4.48545e-18
-1.45661e-17
8.96708e-18
-7.34316e-19
-7.50591e-20
0
4.6813e-19
-7.8224e-18
-7.47866e-20
-7.56579e-19
-1.84658e-23
5.57902e-18
0
-2.07542e-22
4.57678e-16
-8.76069e-19
8.93192e-18
0
0
3.68797e-17
-4.55458e-18
-9.11019e-18
1.56187e-20
-1.79873e-17
0
-1.29294e-18
-1.17834e-18
-4.48618e-18
6.48051e-18
2.42682e-18
7.35598e-34
0
-1.47157e-22
-1.34755e-17
2.58762e-18
8.95908e-18
7.46004e-20
-1.23323e-17
4.48113e-18
-7.84637e-18
4.49091e-18
0
8.98902e-18
-4.57119e-18
1.35646e-17
-8.98705e-18
1.34853e-17
-1.13149e-17
1.13435e-17
-4.49924e-18
-1.11237e-18
-7.49516e-20
1.27671e-18
-7.81071e-18
0
-7.46723e-20
7.82383e-26
7.81414e-18
8.69528e-26
-5.58164e-18
0
-1.54755e-21
1.27027e-18
0
0
-1.78564e-17
-7.43086e-20
1.20853e-18
-8.94295e-13
0
-1.26465e-10
1.33488e-17
9.13178e-19
-1.49175e-19
-1.56006e-17
-7.41371e-20
1.20802e-18
8.99509e-18
-3.38532e-17
8.93367e-18
0
0
0
0
0
0
0
0
0
0
0
0
0
0
0
0
0
0
0
0
0
0
0
0
0
0
0
0
0
0
0
-5.02669e-18
-1.57091e-20
8.98813e-18
-9.15667e-18
9.11377e-18
2.2717e-35
1.13873e-18
1.36046e-17
-1.26584e-17
3.60993e-17
3.19817e-35
8.86025e-20
-4.48893e-18
-1.04432e-17
1.79996e-17
-1.00105e-25
-4.3393e-09
3.21952e-12
-1.35595e-08
-7.47984e-11
-1.48731e-08
-9.48729e-09
4.41571e-18
-1.80627e-17
-1.41723e-12
1.08703e-10
3.47854e-27
4.22834e-09
-3.536e-10
-1.36441e-09
1.26128e-10
-4.35017e-10
9.24329e-09
1.30544e-12
6.76332e-10
1.15267e-12
-2.21543e-10
6.38925e-20
4.73012e-19
9.28451e-19
9.12186e-13
-7.31034e-20
2.08673e-13
1.32662e-13
-1.76932e-16
1.10882e-34
1.61051e-08
2.53393e-16
-6.12016e-20
-4.82926e-13
-1.79968e-17
3.11319e-34
8.5033e-11
4.46866e-18
0
-1.96043e-09
-1.48466e-08
-7.30626e-20
4.46914e-19
9.06273e-18
0
-5.63553e-19
7.01333e-20
-9.78669e-18
1.19396e-18
-3.72439e-18
-5.68874e-19
6.11674e-20
1.62968e-19
-1.34932e-17
1.1028e-18
2.13526e-17
-4.63742e-19
-1.57064e-17
0
4.76964e-13
-6.43903e-12
-1.19241e-12
-4.25691e-11
-1.05761e-34
-1.78025e-08
1.88418e-09
-6.32248e-20
-1.7963e-17
3.95676e-35
1.46213e-17
0
-4.84398e-19
-1.2745e-18
-4.38158e-18
9.03193e-19
1.04689e-17
-3.77335e-18
-6.32037e-20
-8.9712e-18
1.6859e-17
-6.13731e-19
-7.50592e-20
0
9.38318e-19
-1.00631e-17
-7.47864e-20
-6.74227e-19
1.22759e-17
0
4.5321e-16
-4.9609e-19
1.79026e-17
2.03476e-09
7.5236e-20
0
-1.91743e-09
-2.31012e-11
1.48342e-19
-1.07317e-13
-2.7814e-22
2.85535e-13
0
-1.45458e-21
-1.49932e-08
-7.15464e-14
1.49141e-14
0
0
1.24356e-17
-1.36243e-17
8.9947e-18
4.56003e-18
8.96173e-18
-4.23169e-34
-3.736e-18
-1.22409e-18
-9.09855e-18
2.66121e-18
-9.91729e-20
0
5.04712e-34
-4.53673e-18
0
0
-5.73117e-17
-1.66355e-08
3.57724e-12
-1.60442e-08
1.11853e-17
1.69023e-15
2.22081e-18
-6.31932e-19
8.85519e-18
-1.13118e-17
4.47421e-18
-2.45992e-17
0
1.83333e-12
1.32917e-10
-6.55684e-14
1.16409e-12
-1.57563e-08
1.8212e-17
2.73233e-15
2.09549e-09
-9.39288e-22
-2.13368e-18
1.11293e-18
-2.98529e-20
-3.83137e-17
5.61416e-18
-3.61098e-17
-3.57789e-18
-9.09525e-19
-7.49519e-20
1.29617e-18
-2.34906e-17
-7.46528e-20
-7.46761e-20
1.11629e-18
-1.33955e-17
-5.38768e-37
2.23994e-18
9.13351e-19
-1.49386e-19
0
-2.23308e-17
7.43056e-20
1.34524e-18
-4.88876e-13
0
-1.52701e-08
1.56081e-17
1.18651e-18
-7.45863e-20
-2.56829e-17
0
1.31266e-18
2.23739e-18
-1.56774e-17
-9.65473e-34
-5.97697e-19
1.50423e-19
2.61072e-18
-2.46489e-17
0
-2.71779e-19
2.01729e-24
9.22161e-22
9.31851e-24
-4.44302e-17
-9.16732e-20
2.23956e-18
0
0
1.49458e-08
1.44587e-13
7.46621e-20
-8.75606e-18
3.29986e-18
0
0
0
0
0
0
0
0
0
0
0
0
0
0
0
0
0
0
0
0
0
0
0
0
0
0
0
0
0
1.54211e-17
-2.26278e-17
2.11295e-20
4.49875e-18
4.2763e-20
8.06901e-34
2.24807e-18
-1.79567e-17
-2.03722e-17
1.79083e-17
1.23865e-33
-5.36825e-18
1.81099e-17
-5.36991e-18
1.77478e-17
3.57086e-26
4.14432e-09
-1.45423e-10
1.53027e-08
3.71521e-09
1.53071e-08
9.06096e-09
-8.43383e-13
2.82993e-10
7.45262e-13
-7.42104e-09
1.08792e-26
-6.13608e-11
3.83594e-09
-1.5368e-08
3.768e-09
-1.52288e-08
-1.30319e-10
-3.68902e-13
-7.6827e-09
-6.89361e-13
-7.52975e-09
-1.35798e-19
-5.7832e-12
1.19239e-12
-1.85161e-08
1.00795e-34
1.88266e-09
7.03525e-20
4.72341e-09
-2.8881e-17
-1.393e-26
1.67807e-12
1.9976e-17
0
3.26738e-18
-4.60334e-18
-6.09799e-19
1.18073e-17
7.02658e-20
-1.78241e-12
-1.1101e-17
-9.44568e-09
3.21606e-17
0
6.43903e-12
-4.47373e-09
-1.33153e-17
1.84037e-08
-1.38215e-26
-1.671e-12
9.04028e-16
-2.63842e-24
-2.28147e-17
1.31054e-26
1.1356e-17
1.42169e-19
1.3827e-18
1.67062e-12
-8.08128e-18
-6.64118e-18
8.94612e-09
-6.06866e-18
-7.21316e-20
-1.36887e-17
1.81483e-17
5.45922e-20
-4.17344e-13
3.61844e-25
2.3695e-18
4.24267e-17
7.26845e-35
-1.19782e-34
-2.54807e-09
-2.54571e-20
-5.96197e-14
4.27045e-34
8.06334e-09
1.32696e-33
-4.89617e-20
2.89805e-34
7.53671e-19
1.06074e-18
-1.86267e-18
2.54759e-20
4.47596e-19
-1.77786e-19
-9.93715e-25
-8.53895e-19
-9.3491e-19
1.17265e-18
1.27554e-35
-1.50642e-16
-3.31515e-20
4.29053e-34
3.90975e-34
-1.27008e-19
7.21951e-19
1.14622e-18
2.12706e-18
0
-7.49311e-11
0
0
-1.98138e-09
1.51313e-08
7.41697e-20
-6.40004e-19
-1.2564e-14
0
1.50069e-08
-2.98113e-14
1.41607e-13
1.11969e-09
-4.11738e-20
-7.20637e-34
-1.25989e-09
1.60445e-24
1.07317e-13
1.52639e-21
-3.37932e-34
2.62745e-21
7.15444e-14
0
0
-5.23821e-18
-9.11222e-18
1.32408e-32
9.00317e-18
9.01907e-18
-1.3086e-35
-7.76413e-18
3.56697e-19
-4.46741e-18
1.25721e-17
-1.06236e-17
5.40439e-17
-1.14342e-35
-4.44487e-18
3.60388e-17
-1.52541e-26
4.33925e-09
4.22839e-09
-3.57594e-10
-1.68668e-08
1.29251e-10
-1.57186e-08
9.48739e-09
9.24329e-09
1.35389e-12
6.7631e-10
1.15018e-12
-2.21565e-10
4.38959e-25
1.10299e-12
-2.98281e-08
-7.45903e-11
-1.48732e-08
3.31163e-18
-1.3547e-17
-1.4222e-12
1.08659e-10
-6.53682e-20
-5.41929e-20
6.39431e-12
4.1734e-13
1.21819e-16
0
1.78021e-08
1.47988e-08
-2.0454e-31
-1.26685e-18
-1.57351e-17
0
6.50692e-17
1.34169e-17
-6.53188e-20
-3.11294e-19
-6.50026e-19
-3.47623e-20
-4.56134e-19
4.4751e-18
-5.70314e-18
6.31964e-20
-6.32818e-19
-6.72347e-18
8.63673e-19
2.12943e-17
0
1.21937e-18
6.11112e-13
9.12181e-13
-7.31003e-20
-1.37127e-13
-2.2506e-13
-1.1464e-17
0
1.61051e-08
3.28491e-09
0
-2.23959e-17
0
1.904e-17
0
2.30915e-10
-3.09934e-08
6.3885e-20
5.31508e-19
-3.64026e-19
2.31817e-19
-7.30628e-20
2.77315e-19
4.52533e-18
-4.78442e-19
4.13149e-18
-3.72428e-18
-6.11671e-20
-8.98972e-18
1.00155e-17
-4.05779e-19
-2.92586e-17
-1.25998e-18
7.52109e-20
3.09913e-18
-3.13663e-17
-1.88979e-33
-1.47966e-19
2.22112e-18
-2.44412e-17
2.1152e-19
1.02429e-21
0
0
-1.50467e-08
-3.71133e-13
7.46632e-20
-2.64369e-17
3.30919e-18
3.90948e-19
4.11453e-20
5.02905e-19
3.89605e-20
-9.65345e-20
5.05023e-24
-2.82738e-23
5.05731e-20
-1.33434e-19
-1.54599e-34
4.44621e-20
0
0
0
0
0
0
0
0
0
0
0
0
0
0
0
0
0
0
0
0
0
0
0
0
0
0
0
0
-6.77817e-17
-7.47629e-34
-7.85697e-18
9.0706e-18
-2.54024e-17
8.92916e-18
-3.39316e-33
-7.56561e-18
-4.46399e-18
1.54146e-17
2.70727e-17
4.4445e-25
5.31549e-18
-3.55886e-09
-2.54996e-17
-7.78849e-09
5.60401e-34
1.27866e-17
-2.25215e-17
-2.64387e-17
4.50439e-17
-6.91403e-20
2.26558e-12
1.02625e-17
2.39704e-10
0
9.05066e-16
-7.01647e-20
-4.53511e-09
2.24306e-17
0
-2.27303e-12
-8.98309e-18
-1.38165e-19
6.82056e-19
3.38814e-18
7.13204e-18
-2.01431e-17
7.00819e-20
1.52778e-12
1.49404e-20
9.06729e-09
-1.68365e-17
7.14927e-20
3.04065e-12
9.67698e-11
-2.32518e-12
4.16525e-10
0
-4.1417e-10
-1.53702e-08
7.11328e-20
2.24504e-17
0
-7.81681e-18
7.14078e-20
2.23496e-18
-5.06778e-13
9.02211e-18
-2.58215e-18
-2.05311e-10
-2.47415e-17
7.1063e-20
1.12201e-17
-1.68093e-17
7.6245e-20
-2.981e-13
-4.07209e-11
1.22634e-34
-4.30822e-20
-2.981e-13
3.47677e-34
9.77256e-11
-3.81399e-20
7.79574e-19
-1.61049e-18
4.31063e-20
9.45987e-19
-2.50404e-18
-3.17312e-31
4.35866e-18
-5.56369e-19
-1.13762e-17
3.8531e-16
1.14052e-34
-1.13565e-16
-2.10822e-15
5.55199e-20
5.03258e-34
-6.81169e-20
-1.27931e-19
6.27156e-19
-1.2441e-18
-6.05133e-18
1.2543e-18
3.47107e-17
5.55246e-20
-7.60356e-11
4.11731e-20
-4.87499e-34
-1.09396e-09
-1.72673e-24
6.40921e-14
-2.23039e-34
2.981e-14
0
0
-2.54532e-17
4.5093e-18
9.05846e-18
1.35174e-17
-1.80884e-17
8.32223e-35
-2.24807e-18
-1.04725e-17
8.30724e-20
1.53456e-17
6.17903e-32
3.59973e-17
5.66628e-34
-8.90509e-18
3.59628e-17
-4.82823e-27
-4.14451e-09
1.43933e-17
5.20935e-12
1.53683e-08
3.76054e-09
1.52301e-08
-9.06116e-09
-1.78901e-17
4.52014e-18
-1.35525e-17
-6.55819e-13
-7.5299e-09
-3.57086e-26
-1.45248e-10
1.53026e-08
3.71541e-09
1.53072e-08
-8.471e-13
2.82959e-10
7.4526e-13
-7.42104e-09
-7.11635e-20
8.22765e-12
-4.47365e-09
-1.34533e-17
1.86994e-08
0
-1.671e-12
9.01922e-16
-7.22e-20
-4.72323e-09
-2.51296e-17
0
-1.62714e-12
4.66789e-18
0
1.44788e-18
1.67062e-12
-8.28709e-18
-9.6613e-18
8.94612e-09
-1.41612e-18
0
1.73148e-12
-9.19508e-18
9.44568e-09
1.82698e-17
6.79005e-20
-6.02168e-12
-4.1735e-13
-1.85161e-08
0
1.48438e-08
4.41538e-24
-1.3501e-17
0
1.00607e-17
6.202e-34
2.03385e-18
2.0581e-18
-6.9181e-19
-1.20158e-17
-7.02663e-20
-6.70697e-18
2.11469e-17
3.52236e-20
-5.96209e-14
-1.95258e-12
9.12962e-09
0
-9.75245e-09
0
1.37127e-13
0
-7.21682e-09
2.69605e-33
8.52573e-20
9.76102e-21
-6.21163e-19
1.06375e-18
0
-4.47622e-19
1.87611e-18
-4.71202e-24
-1.26694e-13
3.61845e-25
3.60742e-18
4.17517e-17
0
-2.73267e-34
-1.31878e-09
0
0
-5.45745e-20
-1.14533e-19
2.92522e-34
2.68499e-19
-3.48037e-18
7.98506e-19
0
-7.38446e-19
0
1.20815e-18
3.89624e-20
1.13337e-20
5.19589e-20
0
-3.55425e-34
0
0
0
0
0
0
0
0
0
0
0
0
0
0
0
0
0
0
0
0
0
0
0
0
0
0
0
0
-2.67863e-18
0
2.01281e-17
1.80809e-17
3.61274e-17
7.18205e-22
1.80685e-17
2.66851e-33
2.62785e-18
-4.54406e-18
-9.56824e-18
2.6862e-17
1.88833e-33
-9.04882e-18
3.60702e-17
0
2.57482e-18
9.53933e-13
4.32355e-10
-1.35888e-17
1.01864e-17
4.40461e-16
6.68325e-18
1.04853e-18
2.7053e-18
-1.42463e-17
-1.57967e-17
6.71219e-18
-2.00971e-17
3.04136e-20
0
-1.08767e-18
-3.27214e-18
1.58428e-17
-7.77059e-18
1.80086e-17
-1.2757e-17
-1.00909e-17
-6.80851e-18
-1.91014e-17
0
0
1.93377e-19
5.39469e-18
3.01392e-18
0
-3.09464e-17
0
-6.54654e-18
1.55576e-17
0
5.67973e-18
-1.32913e-17
0
1.31065e-18
-1.10998e-18
1.26517e-18
-1.20269e-17
6.91399e-20
-6.26083e-19
2.14872e-18
6.6541e-18
-2.12113e-17
7.23988e-20
8.19272e-18
5.18587e-18
-5.00976e-18
0
4.25217e-16
-8.26554e-34
4.382e-18
0
-3.28653e-18
6.44576e-34
-1.66498e-18
-4.64324e-18
-7.53731e-18
-1.89046e-17
7.21625e-20
6.69175e-18
-9.94177e-18
4.58125e-32
5.40664e-19
3.94608e-35
1.25281e-16
-6.04695e-34
-1.48636e-18
-3.05481e-18
0
0
0
-6.77958e-17
1.44916e-33
1.06643e-19
-2.40467e-18
4.54279e-18
9.90186e-18
2.05055e-17
1.81189e-17
8.91125e-34
9.41874e-20
3.60479e-17
-6.78146e-36
-1.79192e-19
1.29597e-17
-2.25215e-17
1.5587e-17
-2.57466e-17
8.74241e-18
3.65354e-35
1.46995e-17
2.23818e-18
-1.42985e-19
-3.04065e-12
5.9248e-12
2.32521e-12
-4.16524e-10
0
4.14676e-10
1.53702e-08
1.42269e-19
4.53502e-09
2.0197e-17
0
2.28794e-12
-1.7937e-17
-7.14076e-20
2.7043e-18
-2.54272e-18
6.78653e-18
-6.27762e-18
6.7552e-18
-1.68188e-17
0
-1.52778e-12
6.73252e-18
-9.06704e-09
-2.35798e-17
0
2.44444e-12
1.24087e-17
2.40159e-10
0
8.97244e-16
0
2.4685e-17
0
-1.12478e-17
-6.90815e-20
-2.84951e-18
1.01087e-17
5.03398e-18
-2.45099e-17
-7.00795e-20
8.97296e-18
-1.57292e-17
-6.81151e-20
4.68335e-18
-2.41843e-18
-8.91837e-18
3.84015e-16
0
-1.0968e-16
-2.55513e-15
0
2.981e-13
0
-9.77256e-11
0
1.28271e-18
1.23646e-18
2.40751e-18
-8.23196e-18
2.48513e-18
2.99701e-17
-1.11049e-19
-9.45987e-19
2.50404e-18
3.81178e-20
-2.98101e-13
-4.07209e-11
0
0
0
3.4218e-33
1.16332e-18
-1.97592e-18
4.31061e-20
0
0
0
0
0
0
0
0
0
0
0
0
0
0
0
0
0
0
0
0
0
0
0
0
0
0
1.36013e-17
-4.80071e-33
-1.03885e-17
-1.49903e-17
-4.45035e-18
-1.4669e-17
1.54661e-17
4.51658e-17
-6.78632e-33
1.81505e-17
4.51037e-18
0
2.71183e-17
-3.70349e-25
-2.54891e-18
-3.80669e-09
3.05557e-13
-5.11805e-12
-3.86948e-09
-5.09867e-18
-3.05553e-13
7.61338e-09
7.7165e-09
-7.63889e-13
-1.77723e-33
-4.66077e-18
8.76496e-18
1.90968e-19
-6.9482e-20
0
-4.49909e-18
1.35158e-17
-3.76307e-24
1.44405e-18
-1.96747e-12
-6.55834e-13
0
-1.7195e-08
-1.53429e-08
2.57329e-18
-4.5396e-18
1.59132e-18
-8.36736e-35
-9.71036e-18
9.06251e-18
0
1.3584e-18
1.60366e-20
-6.66452e-18
-8.95532e-18
1.44493e-17
2.64263e-18
4.48255e-18
1.4267e-17
-7.02844e-20
0
-2.00982e-18
7.02904e-20
1.52224e-17
8.55555e-12
2.44446e-12
0
6.42277e-10
1.51041e-08
9.0217e-18
2.12114e-17
-1.40461e-19
-1.11548e-17
-7.02029e-20
3.93946e-18
-6.85302e-19
-2.21478e-18
6.67448e-18
-1.68689e-17
2.23125e-18
-5.52572e-20
2.02655e-18
-8.80454e-19
0
0
-1.37777e-18
0
9.17448e-19
-2.76525e-20
-4.65666e-19
-7.38461e-19
-4.0909e-20
-1.38477e-18
2.53886e-18
6.99843e-20
7.7507e-13
-2.38491e-13
-1.5706e-08
0
-3.1787e-08
-5.42138e-20
0
2.32033e-33
-3.24734e-19
-8.63148e-18
-6.53629e-18
2.76338e-17
1.08444e-19
0
0
0
0
2.60988e-18
5.21976e-18
2.04133e-17
9.08845e-18
6.34073e-17
-4.52896e-18
2.71393e-17
-1.70573e-33
-2.47107e-18
1.35879e-17
2.00786e-17
2.70523e-17
-1.72841e-33
-2.24788e-17
4.51163e-17
0
-2.31165e-18
-2.74801e-18
-1.11997e-17
1.01359e-17
-1.00654e-17
9.02643e-18
0
-3.08434e-17
-1.68104e-17
1.02045e-17
-1.45487e-17
2.26304e-18
0
2.48916e-12
1.78543e-08
-5.61434e-18
4.17345e-12
-8.4862e-11
2.17398e-18
1.22497e-18
-1.8816e-17
-5.57201e-18
4.46681e-18
-9.998e-18
6.74685e-18
7.23938e-20
6.364e-18
-4.17343e-12
-6.31892e-18
0
-1.13945e-09
1.44383e-19
5.00911e-18
1.77929e-17
0
-2.99625e-18
-3.31847e-18
-1.44714e-19
3.22637e-18
-4.16763e-20
-6.0052e-18
-4.93325e-18
-7.21697e-20
1.87844e-18
-2.23678e-18
-6.23372e-18
-1.33245e-17
-6.55564e-20
-3.05779e-18
5.48244e-18
3.49489e-18
0
-4.19428e-16
6.9168e-20
1.11661e-17
0
-2.14835e-18
-1.31069e-19
-4.91831e-19
8.87866e-18
4.15037e-18
4.57849e-18
-1.38282e-19
8.68825e-18
-7.89601e-18
1.04817e-31
1.44774e-18
0
1.9915e-16
-3.23647e-34
-8.67119e-19
-8.25702e-19
0
0
0
0
0
0
0
0
0
0
0
0
0
0
0
0
0
0
0
0
0
0
0
0
-4.72842e-18
0
2.56017e-17
-1.80505e-17
2.71675e-17
1.34568e-17
1.79983e-17
1.37361e-24
-4.33052e-09
4.13069e-09
-3.71865e-09
-4.95629e-13
4.07395e-09
2.69531e-12
-9.44868e-09
9.03325e-09
4.95602e-13
7.43771e-09
-2.69534e-12
-8.14867e-09
-4.32525e-24
-3.65788e-09
-7.98125e-09
7.13635e-20
-1.6581e-10
-2.44443e-12
-1.21103e-12
1.00825e-25
1.52009e-08
-1.7536e-24
2.16016e-25
-1.87306e-08
-4.05947e-10
7.09485e-12
-7.09483e-12
0
7.63883e-13
6.74805e-18
3.30414e-10
-2.02412e-17
-1.4521e-19
1.13934e-17
-4.03848e-17
1.10438e-19
6.7738e-18
2.83324e-26
1.8695e-08
4.53117e-12
-3.64927e-09
7.13133e-13
1.02069e-17
2.25517e-15
-1.76385e-17
1.49888e-18
-7.11723e-13
7.29851e-09
-2.32691e-18
-2.7156e-17
1.16575e-08
-3.68286e-24
0
1.26425e-09
6.42191e-20
-1.19236e-13
1.63956e-13
0
-1.82975e-08
3.57727e-13
5.97552e-18
0
4.72194e-18
-1.51166e-33
-8.80762e-22
-1.55254e-18
4.59855e-18
5.31179e-19
-1.74704e-08
1.38005e-19
0
1.63811e-08
-6.77155e-20
-1.25202e-12
-2.0122e-12
-4.76966e-13
0
-1.79165e-08
2.42352e-09
-1.93772e-13
1.73826e-17
-1.38036e-19
9.82041e-18
6.7684e-20
2.5998e-18
-2.44958e-18
-9.917e-19
2.00392e-17
1.08615e-18
-4.88034e-18
1.94896e-24
0
-5.38835e-34
0
0
0
0
0
1.36013e-17
5.37268e-33
2.60581e-19
-7.67232e-18
-1.35854e-17
1.48429e-17
0
2.71185e-17
1.56232e-33
-2.18165e-18
-4.55531e-17
1.52281e-17
2.70332e-17
7.48387e-34
-2.55115e-18
-1.80354e-17
9.6745e-18
1.82092e-17
6.76812e-25
-3.824e-09
1.12036e-12
-1.76968e-11
-4.01625e-09
-1.12037e-12
7.64913e-09
7.95621e-09
-2.24074e-12
8.38421e-18
7.0285e-20
0
7.3096e-18
-2.3286e-18
-2.13826e-24
7.28673e-18
-1.96028e-11
-5.96205e-12
0
-1.85586e-08
8.1628e-11
-1.05808e-17
2.42677e-19
1.33052e-17
7.02335e-20
1.03857e-17
-1.31072e-18
0
5.27052e-18
-2.01104e-18
2.26478e-18
0
-8.95854e-18
-3.99898e-18
-6.79021e-18
1.84814e-18
9.8636e-34
0
1.46457e-17
-6.63704e-20
-1.69359e-19
5.36586e-12
1.4905e-12
0
3.45102e-08
4.49576e-10
-1.80258e-17
-1.50675e-18
0
2.14037e-17
0
-1.23208e-18
6.50535e-19
3.37445e-18
-1.66074e-17
2.21337e-17
-6.77195e-18
-6.99835e-20
5.96208e-13
-2.48917e-12
1.37501e-09
0
-1.78207e-08
-5.28345e-24
-3.57722e-13
0
-1.25036e-08
6.99848e-20
-2.1306e-19
-2.51543e-18
-4.84362e-18
2.50303e-17
-5.42214e-20
4.5965e-19
-2.78207e-18
2.76249e-20
2.18681e-18
-8.8043e-19
0
0
0
0
1.52339e-18
-1.62359e-18
4.08993e-20
0
0
0
0
0
0
0
0
0
0
0
0
0
0
0
0
0
0
0
0
-1.5464e-17
2.86842e-22
9.15946e-18
-9.13896e-18
9.00186e-18
1.19541e-33
1.27576e-17
-1.28661e-17
-2.0448e-21
-1.49697e-17
0
1.81039e-17
1.8176e-33
-1.1175e-19
-1.37488e-17
2.23817e-19
3.76769e-17
7.10423e-20
-1.26261e-17
-4.40681e-09
9.02598e-18
-5.19782e-16
0
-9.04505e-13
1.81089e-15
-7.18234e-20
4.82938e-09
1.33128e-17
0
5.87015e-12
-1.56305e-17
7.09899e-20
-2.65083e-18
9.05488e-13
-1.31017e-19
1.86542e-17
8.81273e-09
-2.98744e-17
0
-4.68518e-12
2.14547e-18
-9.65311e-09
-2.22362e-17
0
6.05145e-18
-5.4981e-18
-4.46539e-18
-1.13817e-17
8.16548e-18
-8.93105e-18
-1.6236e-18
-1.1126e-17
3.34795e-18
0
1.60792e-17
8.92926e-18
-7.19223e-20
1.07316e-12
3.66348e-18
1.9181e-08
-1.52752e-33
2.71995e-17
7.37402e-20
-3.09022e-33
8.91985e-10
3.63686e-12
-1.44989e-33
-3.06799e-18
3.34226e-18
1.9209e-17
-7.2817e-18
7.37118e-20
-1.11679e-17
9.85121e-19
0
9.21107e-18
1.51517e-17
-4.90587e-17
0
1.80493e-15
0
-5.33578e-18
-4.51045e-18
0
-3.37742e-17
-4.39407e-18
7.16147e-20
-8.23852e-19
7.06085e-20
-8.45159e-18
-4.05502e-17
7.00013e-20
-1.10466e-18
4.57781e-18
2.55836e-18
-1.10265e-18
-2.80434e-09
-1.33246e-24
0
-1.38193e-24
-4.47137e-14
-3.21951e-12
0
-2.42691e-08
1.75767e-18
1.03589e-33
-3.23628e-20
7.94181e-19
-9.35699e-19
7.40101e-18
0
0
0
0
0
0
-1.53225e-17
0
-5.65989e-17
4.20744e-18
9.41985e-18
8.93451e-18
1.81426e-17
1.69456e-24
4.21147e-09
-7.22521e-11
9.19681e-09
-1.42602e-10
-2.08751e-24
-1.42573e-10
-3.84718e-09
-5.62963e-10
1.59481e-10
-7.3829e-10
-3.05935e-10
-4.70753e-13
7.72326e-09
-1.77495e-12
-3.62933e-10
-5.27533e-27
-1.8e-08
4.65041e-12
-3.9524e-09
-1.68138e-08
-3.59214e-12
-1.63375e-08
1.50543e-12
7.79906e-10
-6.8095e-18
1.09805e-19
8.84377e-13
7.84729e-09
1.2085e-18
-4.07081e-18
1.26745e-18
-1.51013e-17
-7.13679e-20
-4.81904e-09
5.96207e-12
-4.37963e-12
1.30747e-25
-5.96952e-12
7.2739e-20
6.60425e-26
-1.49788e-08
4.65041e-12
7.13084e-20
2.24074e-12
6.74792e-18
9.63142e-09
-3.36936e-18
7.25988e-20
-5.38497e-18
9.07979e-18
1.74708e-08
0
0
-1.56316e-08
-1.62976e-08
0
6.55829e-13
-8.1084e-12
2.32433e-18
0
-3.72015e-08
-5.04774e-17
5.36585e-13
2.83193e-13
1.76057e-18
0
-2.15736e-18
2.48062e-18
-6.76903e-20
5.20104e-18
-3.92676e-18
-2.20926e-18
2.55088e-18
-4.32878e-18
-5.78314e-18
1.21268e-18
-1.13366e-08
7.44582e-25
0
3.21109e-20
-1.19236e-13
1.83333e-12
0
4.72236e-09
8.20012e-18
5.20262e-20
0
-7.20158e-20
-4.38101e-19
6.60586e-18
-3.06727e-24
0
-3.96378e-34
0
0
0
0
0
0
0
0
0
0
0
0
0
0
0
0
0
-1.82227e-17
4.38508e-35
1.0354e-17
5.16938e-18
1.59499e-19
1.84476e-17
-1.26135e-34
-3.24539e-19
1.39862e-19
-1.03538e-17
2.74052e-17
9.29265e-25
4.16819e-09
-1.40854e-11
-1.75483e-08
1.90786e-12
-2.16124e-12
3.14759e-08
-1.40248e-10
1.55089e-08
-1.73114e-08
9.11852e-09
-1.79253e-19
-1.22188e-17
-1.28158e-18
-2.32939e-18
-2.8056e-18
9.17275e-18
1.17999e-12
2.99828e-10
-2.73468e-24
4.27795e-09
-4.2402e-09
-1.59612e-08
-1.62928e-10
-1.56496e-08
9.33506e-09
3.34994e-12
8.44652e-09
-4.3846e-13
3.37971e-10
6.97477e-20
-1.58968e-17
3.39838e-12
8.94304e-13
1.397e-17
0
1.78069e-08
3.31267e-11
0
1.34545e-17
0
-1.11537e-17
9.04679e-34
-2.9604e-18
6.25129e-19
-3.35515e-18
1.85656e-17
-4.78932e-18
-5.49888e-24
0
6.77469e-18
-1.00831e-17
-7.66663e-18
-6.89166e-20
0
1.80722e-18
1.56767e-17
0
-9.64403e-18
1.1924e-12
0
-1.48173e-08
-3.71105e-18
-2.67615e-17
-1.0511e-17
6.88826e-20
-1.95813e-19
2.458e-17
7.27898e-20
-1.23651e-18
-3.36079e-18
8.45249e-18
-9.73587e-20
-8.80127e-18
5.53621e-24
-1.07317e-12
1.75826e-08
0
0
0
1.84485e-17
-1.22151e-17
-1.06889e-19
9.4618e-19
1.25487e-17
-1.39524e-33
3.57201e-17
-4.90352e-18
-1.37392e-19
2.3849e-13
-1.416e-12
9.91722e-10
0
-1.58342e-08
-4.48278e-20
3.57717e-13
0
1.0076e-08
-6.86839e-20
-1.46843e-19
-6.01822e-18
-1.47157e-17
1.90683e-17
0
-3.48058e-19
8.79872e-18
0
0
0
0
0
0
-5.6643e-17
-9.13896e-18
-1.81425e-17
1.81346e-17
9.15946e-18
-5.79282e-34
-1.27579e-17
-1.01132e-17
-2.30595e-17
3.63434e-17
-9.03924e-32
1.7752e-17
6.50515e-35
2.93937e-18
1.69001e-21
0
-9.7108e-19
0
-4.62731e-09
-3.71263e-12
-7.81112e-18
6.91518e-22
4.52638e-18
8.93139e-18
-7.97056e-18
4.94493e-18
3.00463e-12
9.25123e-09
-7.81274e-18
0
-1.71953e-19
8.92931e-18
-9.50157e-18
-5.59093e-18
-1.4209e-19
-9.42006e-12
1.58023e-10
4.31279e-18
-1.8245e-08
0
1.0191e-12
-9.35581e-17
-7.18235e-20
2.01903e-17
0
-1.9018e-17
-4.64825e-25
-6.99503e-18
-1.01852e-12
1.23243e-17
1.82755e-17
-3.15333e-10
-1.4234e-17
-7.17055e-20
1.13707e-17
-1.78093e-17
-7.1705e-20
9.06233e-12
8.92409e-18
1.86466e-08
0
-9.86264e-17
7.00414e-20
2.33873e-19
4.59078e-12
0
-2.52343e-18
1.80761e-08
7.37416e-20
-1.43089e-12
-2.42953e-12
6.57712e-34
9.28554e-10
-1.64265e-08
-1.43223e-19
-1.37849e-18
-1.11838e-18
4.72054e-18
-1.63647e-17
6.99901e-20
0
1.33701e-18
-3.65912e-18
-7.55051e-18
7.37073e-20
1.78635e-18
-1.18198e-18
-6.0442e-18
4.60797e-19
-2.5323e-24
-1.62466e-12
3.15073e-34
-1.43821e-08
7.18977e-20
1.19198e-18
-4.47017e-18
7.91248e-09
3.34317e-25
0
3.23489e-20
-5.96204e-14
5.81302e-13
0
-1.1971e-10
-2.80548e-09
-1.90435e-24
3.23636e-20
6.85634e-13
8.70712e-19
-2.53415e-18
0
0
0
0
0
0
0
0
0
0
0
0
0
0
-2.55522e-17
-1.33135e-18
-5.63813e-17
1.28982e-19
2.70148e-17
4.14592e-18
-1.89467e-19
3.04204e-25
1.54233e-17
3.78862e-09
-2.12064e-17
8.26592e-09
5.82852e-34
-1.79458e-17
1.7773e-17
-5.75344e-20
1.96747e-12
1.53523e-12
-2.70833e-18
0
1.19232e-13
2.66802e-12
-1.26202e-10
0
-1.20074e-08
1.40024e-08
-1.32448e-19
-4.5179e-09
-1.32706e-17
0
-1.11293e-12
1.44822e-17
0
-1.73824e-08
1.79287e-08
1.42618e-19
2.2352e-18
-2.69421e-18
-5.7537e-20
1.27618e-18
6.65819e-19
-6.09706e-18
7.89188e-18
2.45679e-17
3.6575e-18
8.27372e-18
1.51356e-17
-1.32302e-19
1.12038e-12
-6.63514e-18
9.03525e-09
1.66792e-17
-7.2207e-20
5.30625e-12
-4.68003e-09
6.95502e-18
6.74459e-10
0
-3.52985e-12
-3.07903e-17
7.14161e-20
-2.34288e-18
0
6.23739e-22
5.27275e-26
2.40871e-18
3.52879e-12
3.53278e-18
-2.35058e-17
9.35838e-09
-5.89535e-18
0
4.80391e-18
-6.0242e-20
0
-5.47227e-18
9.98643e-13
7.5074e-18
0
7.56407e-09
6.84133e-20
-2.35874e-17
0
2.59919e-17
-4.43412e-20
-1.75265e-18
-2.26953e-18
9.90741e-18
6.46977e-18
0
-9.42818e-18
3.54538e-17
-4.51683e-20
0
-2.93341e-16
-7.46192e-18
-6.92456e-34
9.42961e-18
-2.31169e-18
4.63861e-26
0
1.24708e-34
-3.38329e-24
0
-5.65835e-34
0
0
0
0
0
0
0
-1.78405e-17
-1.13935e-34
-1.0354e-17
-1.03502e-17
-1.81298e-17
-1.59499e-19
-1.03538e-17
1.82701e-17
2.43387e-34
-4.05463e-18
1.84476e-17
6.04685e-25
5.23915e-18
4.27788e-09
-4.23978e-09
-1.59606e-08
6.64522e-12
-1.56506e-08
1.73951e-17
9.33506e-09
3.23814e-12
8.44643e-09
-2.44223e-18
-1.77373e-17
2.52063e-34
2.09565e-18
5.3122e-16
-2.23582e-13
2.38483e-12
1.47559e-08
1.04013e-11
1.55098e-08
1.73117e-08
1.35576e-18
-3.8334e-18
-2.40069e-18
2.57825e-18
4.34585e-19
7.8753e-18
-4.50072e-18
-9.07158e-18
-8.28269e-18
-6.89183e-20
0
4.61679e-18
2.86769e-18
-7.29866e-20
-1.17454e-17
-3.49665e-18
0
4.14278e-16
-2.01152e-17
-1.43274e-18
-7.14238e-20
0
-1.24284e-17
-1.33908e-17
1.83887e-17
1.34866e-17
-1.14964e-17
-1.72743e-34
1.46239e-17
6.10626e-18
0
-4.07845e-18
4.80926e-18
4.49258e-18
-7.64321e-20
-1.94943e-19
7.13853e-20
-1.5837e-17
-3.30773e-18
4.98532e-18
9.01181e-18
-6.9748e-20
1.0127e-18
-5.61259e-18
0
-1.99237e-16
-1.93433e-15
-6.97237e-20
4.54162e-18
1.12261e-18
7.42493e-18
2.23707e-17
-6.86943e-20
4.17342e-13
-8.34695e-13
9.91178e-10
0
-1.61159e-08
0
1.78859e-13
3.71792e-24
2.87669e-12
6.55815e-13
0
1.00728e-08
0
1.75833e-08
1.62158e-08
1.46968e-33
2.45332e-18
-3.519e-18
-3.53218e-18
3.34266e-17
-4.48289e-20
-3.7256e-19
-1.44271e-19
1.54036e-18
-3.67604e-18
5.74496e-18
-1.30138e-18
1.35158e-17
5.34555e-20
0
-5.3447e-20
0
0
0
0
0
0
0
0
0
0
0
-2.30185e-17
2.71145e-34
-1.5671e-19
-5.07971e-18
-1.84061e-17
-6.28534e-19
3.97332e-17
8.45342e-18
-5.54808e-34
-2.63101e-17
-1.85251e-17
-2.02985e-17
4.60835e-17
0
3.08832e-17
2.02711e-12
3.69746e-10
-8.93837e-18
2.68294e-12
-1.5564e-08
1.35462e-17
-2.11408e-17
5.074e-18
-1.02578e-17
-1.45634e-17
3.19088e-18
-1.91404e-17
4.45675e-18
0
-4.48385e-18
2.68944e-17
-5.87626e-24
8.58352e-25
3.08868e-19
-6.38785e-17
0
0
8.43684e-20
-1.7885e-13
0
1.57245e-08
-1.2019e-33
-1.21606e-33