/*--------------------------------*- C++ -*----------------------------------*\
| =========                 |                                                 |
| \\      /  F ield         | OpenFOAM: The Open Source CFD Toolbox           |
|  \\    /   O peration     | Version:  5.x                                   |
|   \\  /    A nd           | Web:      www.OpenFOAM.org                      |
|    \\/     M anipulation  |                                                 |
\*---------------------------------------------------------------------------*/
FoamFile
{
    version     2.0;
    format      ascii;
    class       volScalarField;
    location    "1.1";
    object      nut;
}
// * * * * * * * * * * * * * * * * * * * * * * * * * * * * * * * * * * * * * //

dimensions      [0 2 -1 0 0 0 0];

internalField   nonuniform List<scalar> 
12160
(
9.73866e-10
9.57921e-10
2.29381e-07
9.89674e-10
1.16286e-07
1.43755e-07
1.00718e-09
5.03529e-08
1.53569e-07
7.18762e-08
1.0262e-09
5.8333e-08
5.12218e-08
6.05729e-08
4.73928e-08
1.01397e-09
1.50589e-07
4.57565e-08
4.12234e-08
5.77896e-08
2.1417e-08
9.99289e-10
9.26425e-08
5.37859e-08
4.0057e-08
3.51695e-08
3.4058e-08
1.93479e-08
9.84103e-10
7.23367e-08
5.39224e-08
4.82452e-08
2.7503e-08
3.33497e-08
1.72724e-08
4.96969e-09
9.82749e-10
8.90456e-08
5.25952e-08
4.7057e-08
2.67527e-08
2.65818e-08
1.94634e-08
6.04944e-09
4.46264e-09
9.98994e-10
6.79661e-08
5.97999e-08
4.4077e-08
3.01692e-08
2.28937e-08
1.7776e-08
1.45594e-08
5.38335e-09
5.86319e-09
1.03882e-09
3.31652e-08
5.49607e-08
4.33278e-08
3.00985e-08
2.32574e-08
1.88272e-08
3.78988e-08
4.45188e-09
1.1186e-08
3.8271e-09
1.10457e-09
2.06761e-08
3.11391e-08
3.46401e-08
2.87064e-08
2.51539e-08
1.81776e-08
2.891e-08
6.28126e-09
8.41538e-09
3.74524e-09
3.18839e-09
1.19997e-09
1.5488e-08
2.03511e-08
2.3405e-08
2.60271e-08
2.41017e-08
1.63597e-08
1.1752e-08
1.46623e-08
9.4002e-09
4.40749e-09
6.26103e-09
7.17121e-09
1.32975e-09
1.30173e-08
1.54797e-08
1.67661e-08
2.04358e-08
2.06575e-08
1.55356e-08
7.38088e-09
1.39408e-08
8.52944e-09
6.0724e-09
5.41369e-09
4.67883e-09
3.28624e-09
1.50086e-09
1.18315e-08
1.30886e-08
1.33226e-08
1.59038e-08
1.64853e-08
1.57988e-08
5.59152e-09
6.73198e-09
7.90882e-09
4.43014e-09
1.36144e-08
9.16279e-09
8.10393e-09
3.62415e-09
1.72379e-09
1.13562e-08
1.19402e-08
1.15731e-08
1.32613e-08
1.33776e-08
1.39221e-08
4.89102e-09
4.45882e-09
7.83531e-09
3.60981e-09
1.12252e-08
5.52263e-09
1.95049e-08
1.07903e-08
2.01464e-09
1.13272e-08
1.14935e-08
1.0748e-08
1.18277e-08
1.12225e-08
1.12097e-08
4.4968e-09
3.40121e-09
6.03341e-09
4.05381e-09
4.42608e-09
5.23427e-09
7.0179e-09
1.41277e-08
2.39908e-09
1.16022e-08
1.14932e-08
1.0478e-08
1.11843e-08
1.00317e-08
9.79839e-09
4.32447e-09
2.79996e-09
3.95318e-09
5.61559e-09
2.79303e-09
4.45641e-09
9.26468e-09
8.61127e-09
2.9203e-09
1.20893e-08
1.18016e-08
1.05791e-08
1.10627e-08
9.52498e-09
9.3614e-09
4.35604e-09
2.42431e-09
2.96572e-09
7.43557e-09
2.14554e-09
4.30494e-09
1.04451e-08
1.14509e-08
3.65628e-09
1.27122e-08
1.23298e-08
1.09475e-08
1.13143e-08
9.43168e-09
9.47313e-09
4.47122e-09
2.16611e-09
2.50122e-09
7.98324e-09
1.73263e-09
4.34329e-09
2.13646e-08
1.46534e-08
4.76057e-09
1.33937e-08
1.30041e-08
1.15135e-08
1.18508e-08
9.62294e-09
9.9518e-09
4.5709e-09
1.9608e-09
2.36673e-09
6.73551e-09
1.30296e-09
4.44296e-09
9.01701e-09
1.95775e-08
6.5635e-09
1.40517e-08
1.37465e-08
1.22157e-08
1.26148e-08
1.00357e-08
1.07313e-08
4.64021e-09
1.78077e-09
2.62381e-09
3.97839e-09
9.51491e-10
4.2704e-09
5.26358e-09
6.93565e-09
9.76306e-09
1.46005e-08
1.44666e-08
1.29849e-08
1.355e-08
1.06261e-08
1.17804e-08
4.68065e-09
1.64431e-09
3.55795e-09
1.93814e-09
8.42886e-10
4.34032e-09
4.56495e-09
4.3872e-09
1.42933e-08
1.49601e-08
1.50664e-08
1.37373e-08
1.45852e-08
1.13525e-08
1.30748e-08
4.71937e-09
1.58247e-09
5.66361e-09
1.08612e-09
9.34715e-10
4.94115e-09
5.08589e-09
3.90965e-09
1.30917e-08
1.50711e-08
1.54609e-08
1.43762e-08
1.56212e-08
1.2159e-08
1.45974e-08
4.79763e-09
1.63167e-09
5.88798e-09
1.01212e-09
1.13966e-09
6.22764e-09
7.07911e-09
5.83586e-09
8.71041e-09
1.49147e-08
1.55852e-08
1.48071e-08
1.65273e-08
1.29663e-08
1.63109e-08
4.97894e-09
1.8088e-09
4.34097e-09
1.09133e-09
1.50396e-09
8.48642e-09
1.22635e-08
8.06115e-09
6.06595e-09
1.45249e-08
1.54162e-08
1.49547e-08
1.71611e-08
1.36715e-08
1.81248e-08
5.35345e-09
2.11483e-09
3.57401e-09
1.21184e-09
2.12503e-09
1.11978e-08
2.61254e-08
1.46373e-08
4.54601e-09
1.39589e-08
1.49925e-08
1.47898e-08
1.73966e-08
1.41641e-08
1.9849e-08
6.08918e-09
2.57329e-09
3.25227e-09
1.38642e-09
3.12171e-09
1.36392e-08
3.5009e-08
3.98251e-08
3.58979e-09
1.32883e-08
1.43801e-08
1.43519e-08
1.7178e-08
1.43505e-08
2.11805e-08
7.55603e-09
3.18779e-09
3.07575e-09
1.64819e-09
4.57823e-09
1.53021e-08
2.80452e-08
1.0193e-07
2.93972e-09
1.25881e-08
1.36553e-08
1.37174e-08
1.65698e-08
1.41797e-08
2.17621e-08
1.0712e-08
3.87156e-09
3.27004e-09
2.05603e-09
6.71024e-09
1.71188e-08
2.48827e-08
4.48851e-08
2.47242e-09
1.19125e-08
1.2895e-08
1.29725e-08
1.56948e-08
1.36979e-08
2.13774e-08
1.73253e-08
4.42884e-09
3.65158e-09
2.71897e-09
9.90347e-09
1.95865e-08
2.50949e-08
3.47731e-08
2.12291e-09
1.13026e-08
1.21645e-08
1.22001e-08
1.4686e-08
1.3009e-08
2.02036e-08
1.77976e-08
4.70101e-09
4.07939e-09
3.91236e-09
1.48424e-08
2.36712e-08
2.72884e-08
3.37123e-08
1.85406e-09
1.07886e-08
1.15096e-08
1.14611e-08
1.36602e-08
1.22154e-08
1.85977e-08
1.12548e-08
4.67767e-09
4.39727e-09
6.472e-09
2.32492e-08
3.08581e-08
3.13557e-08
3.63806e-08
1.64309e-09
1.03912e-08
1.09592e-08
1.07968e-08
1.26955e-08
1.14079e-08
1.68674e-08
8.04911e-09
4.37194e-09
4.38178e-09
1.41484e-08
3.84436e-08
4.43739e-08
3.85578e-08
4.23195e-08
1.47527e-09
1.01276e-08
1.05319e-08
1.02324e-08
1.18374e-08
1.06487e-08
1.5214e-08
6.54037e-09
3.83265e-09
4.04891e-09
1.31295e-08
6.36152e-08
6.90062e-08
5.17112e-08
5.35688e-08
1.34066e-09
1.00159e-08
1.02427e-08
9.78343e-09
1.11092e-08
9.9745e-09
1.37244e-08
5.76331e-09
3.21797e-09
3.65625e-09
6.24515e-09
5.28588e-08
9.78815e-08
6.90547e-08
7.96739e-08
1.23228e-09
1.00797e-08
1.01074e-08
9.46053e-09
1.05218e-08
9.40386e-09
1.24232e-08
5.34413e-09
2.67456e-09
3.31823e-09
3.89828e-09
2.98259e-08
7.461e-08
7.53587e-08
1.66826e-07
1.14512e-09
1.0355e-08
1.01469e-08
9.27369e-09
1.00803e-08
8.94454e-09
1.13078e-08
5.11632e-09
2.25874e-09
3.11183e-09
2.78133e-09
1.96989e-08
4.79172e-08
6.25787e-08
4.35115e-07
1.07537e-09
1.08944e-08
1.03937e-08
9.23655e-09
9.78693e-09
8.59784e-09
1.03682e-08
4.99391e-09
1.96397e-09
3.12443e-09
2.15564e-09
1.35016e-08
3.34208e-08
4.7651e-08
1.37986e-07
1.02078e-09
1.1818e-08
1.08929e-08
9.36961e-09
9.6487e-09
8.36628e-09
9.58953e-09
4.92573e-09
1.76606e-09
3.27601e-09
1.7661e-09
9.59765e-09
2.48918e-08
3.61916e-08
7.45829e-08
1.34929e-08
9.57189e-10
1.17395e-08
9.69991e-09
9.67939e-09
8.25363e-09
8.96532e-09
4.87431e-09
1.64546e-09
3.63554e-09
1.51004e-09
6.91497e-09
1.99337e-08
2.85917e-08
5.02354e-08
1.32698e-08
1.79341e-08
9.11665e-10
1.02848e-08
9.89509e-09
8.26663e-09
8.4899e-09
4.82273e-09
1.59931e-09
4.37466e-09
1.33775e-09
5.02693e-09
1.67915e-08
2.39952e-08
3.84369e-08
1.13103e-08
1.67467e-08
3.3394e-08
9.16437e-10
1.03308e-08
8.42778e-09
8.16095e-09
4.75595e-09
1.6086e-09
5.40516e-09
1.21302e-09
3.68218e-09
1.46436e-08
2.10265e-08
3.19118e-08
1.11345e-08
1.33062e-08
2.36581e-08
2.40241e-08
9.6404e-10
8.78733e-09
7.99037e-09
4.66479e-09
1.65663e-09
5.15312e-09
1.1186e-09
2.7022e-09
1.30607e-08
1.90015e-08
2.78689e-08
9.43981e-09
1.23402e-08
1.62523e-08
1.7861e-08
1.09061e-08
1.11061e-09
8.03453e-09
4.55233e-09
1.73115e-09
3.76011e-09
1.04918e-09
2.00074e-09
1.1797e-08
1.77991e-08
2.53298e-08
8.39985e-09
1.0345e-08
1.35372e-08
1.44444e-08
1.03157e-08
6.3229e-09
1.12477e-09
4.45901e-09
1.82593e-09
2.83119e-09
1.01465e-09
1.53638e-09
1.06909e-08
1.75651e-08
2.40343e-08
4.46241e-09
8.82256e-09
1.10222e-08
1.21611e-08
1.03216e-08
6.39786e-09
3.29637e-09
1.87324e-09
1.94322e-09
2.37114e-09
1.15994e-09
1.23578e-09
9.29848e-09
1.85525e-08
2.4266e-08
2.1002e-09
4.38436e-09
9.67781e-09
1.04273e-08
9.71019e-09
7.01151e-09
4.71658e-09
2.73413e-09
7.97763e-10
2.14927e-09
1.83668e-09
1.04136e-09
7.65017e-09
2.09553e-08
2.69564e-08
2.06671e-09
2.27853e-09
4.42314e-09
9.24746e-09
9.37279e-09
7.9524e-09
6.76298e-09
3.66714e-09
2.95123e-09
5.85269e-10
3.14208e-09
9.10855e-10
5.96609e-09
2.50591e-08
3.50175e-08
5.03238e-09
2.08775e-09
2.56269e-09
4.51587e-09
8.07217e-09
8.92515e-09
1.03319e-08
5.60935e-09
1.03563e-08
6.20235e-09
3.87244e-10
8.25074e-10
4.67699e-09
2.28146e-08
6.33495e-08
7.91968e-10
6.22895e-09
2.41712e-09
2.92032e-09
4.66548e-09
7.76721e-09
1.17113e-08
7.9051e-09
1.89004e-08
3.20877e-08
4.49313e-09
5.92474e-10
3.82477e-09
1.45919e-08
4.91065e-08
3.35302e-09
8.77308e-10
6.11476e-09
3.02429e-09
3.52612e-09
5.29755e-09
9.86932e-09
1.64437e-08
1.28294e-08
1.42887e-07
2.18329e-08
9.55979e-09
1.31218e-09
2.03704e-10
8.99606e-09
1.89421e-08
6.42916e-09
3.07164e-09
1.27128e-09
6.08474e-09
4.22371e-09
4.86748e-09
7.38332e-09
2.06607e-08
9.47221e-09
2.8814e-08
3.58229e-08
2.97612e-08
2.53985e-09
1.99217e-09
1.07197e-09
1.94398e-10
1.09507e-08
7.16559e-09
5.22473e-09
2.80283e-09
1.64805e-09
6.5369e-09
5.11575e-09
7.58116e-09
1.29777e-08
8.98229e-09
1.07944e-08
3.07496e-08
4.46124e-08
3.50855e-09
2.58843e-09
2.62722e-09
1.70962e-09
1.2147e-09
1.90391e-10
5.56018e-09
4.54162e-09
3.89932e-09
1.88928e-09
3.98061e-09
4.99246e-09
6.38001e-09
8.51012e-09
4.95069e-09
1.83856e-08
3.86198e-08
2.84745e-09
2.44818e-09
2.66932e-09
2.98889e-09
2.58372e-09
2.01326e-09
1.692e-09
1.85925e-10
3.463e-09
4.12211e-09
5.03697e-09
2.30128e-09
2.79141e-09
5.06902e-09
3.97486e-09
3.91808e-09
6.92304e-09
2.83114e-08
3.16171e-09
2.8498e-09
2.70857e-09
3.33546e-09
4.65373e-09
3.60413e-09
3.0805e-09
2.54918e-09
2.30444e-09
1.88468e-10
3.31206e-09
5.10445e-09
5.68479e-09
3.52436e-09
2.63645e-09
5.12394e-09
3.18391e-09
2.92477e-09
1.33819e-08
4.31382e-09
4.23138e-09
3.10963e-09
3.84505e-09
3.8824e-09
1.07077e-08
7.89386e-09
5.39774e-09
3.93737e-09
3.17041e-09
2.47164e-09
1.94271e-10
4.16347e-09
8.6786e-09
7.1145e-09
7.20444e-09
3.25098e-09
4.92977e-09
2.78918e-09
4.22336e-09
4.94922e-09
5.62799e-09
3.87962e-09
4.17133e-09
4.31637e-09
5.97345e-09
7.34277e-10
2.26796e-08
7.35355e-10
6.74857e-10
6.75536e-10
1.33674e-08
7.81965e-09
5.43935e-09
3.83597e-09
2.28258e-09
2.02875e-10
6.55287e-09
1.98727e-08
1.04964e-08
7.3108e-09
4.54697e-09
4.51796e-09
2.81177e-09
3.56448e-09
4.67987e-09
4.8483e-09
3.99787e-09
5.44927e-09
4.66642e-09
1.31158e-08
9.67495e-10
1.10796e-09
2.84032e-08
9.68166e-10
1.16343e-09
1.16305e-09
1.11025e-09
9.97037e-10
9.9969e-10
2.36904e-08
1.17015e-08
6.66228e-09
4.10539e-09
2.13407e-09
2.19533e-10
1.27344e-08
2.86108e-08
2.25053e-08
5.18364e-09
2.74921e-09
3.60049e-09
3.53903e-09
3.38323e-09
4.69149e-09
4.00427e-09
6.44203e-09
5.12231e-09
7.53777e-09
8.44247e-10
8.46826e-10
7.48201e-10
7.48366e-10
1.43172e-09
1.47458e-09
2.19007e-08
2.20859e-08
1.43387e-09
1.91139e-09
1.91157e-09
1.4803e-09
1.30359e-09
1.3099e-09
1.89305e-08
1.25684e-08
8.22607e-09
4.36986e-09
2.13194e-09
2.37908e-10
2.17089e-08
2.11797e-08
3.15429e-08
4.34771e-09
1.59702e-09
3.68977e-09
3.49772e-09
3.73832e-09
4.61986e-09
5.63126e-09
6.00574e-09
6.63025e-09
5.97013e-10
5.97023e-10
5.95395e-10
5.95881e-10
1.11412e-09
1.11736e-09
9.48983e-10
9.49553e-10
2.04842e-09
5.85876e-09
9.58454e-10
4.96402e-09
9.43249e-10
2.32405e-08
3.13066e-08
1.07539e-08
1.06987e-08
6.33496e-09
6.32762e-09
2.05335e-09
3.23918e-09
3.23336e-09
5.28986e-09
9.59116e-10
5.01238e-09
9.62492e-10
5.91786e-09
8.158e-10
5.8366e-09
8.35544e-10
5.31747e-09
8.18067e-10
5.87293e-09
8.5182e-10
1.73664e-08
1.43743e-08
1.03243e-08
5.02708e-09
2.29e-09
2.65544e-10
2.1862e-08
1.45094e-08
1.27181e-08
3.82577e-09
1.05272e-09
4.56164e-09
3.9612e-09
5.29671e-09
4.49541e-09
7.45987e-09
7.66837e-09
5.56852e-10
5.57319e-10
5.61636e-10
5.62318e-10
8.32456e-10
8.33133e-10
8.07805e-10
8.09259e-10
7.23171e-10
9.52834e-10
4.7308e-09
6.87769e-10
4.78581e-09
4.28538e-09
9.562e-10
7.26188e-10
4.60211e-09
6.95602e-10
4.45955e-09
4.22128e-09
6.15609e-10
4.11697e-09
6.08453e-10
4.03697e-09
6.13735e-10
4.22625e-09
6.07542e-10
4.07971e-09
3.54158e-09
1.43855e-09
3.87223e-09
1.58195e-09
5.14986e-09
1.17999e-09
5.26127e-09
1.102e-09
2.28031e-08
3.72371e-08
5.44068e-09
5.32728e-09
7.38293e-09
7.25084e-09
8.11435e-09
7.9828e-09
1.38311e-08
1.39833e-08
3.40076e-09
1.44476e-09
3.8424e-09
1.61924e-09
4.7279e-09
3.07365e-09
3.42912e-09
2.11371e-09
4.43362e-09
3.0046e-09
3.51578e-09
2.19014e-09
4.6787e-09
1.18343e-09
5.24991e-09
1.12805e-09
6.04374e-09
9.62568e-10
5.37496e-09
9.8176e-10
1.76069e-08
1.93559e-08
1.32288e-08
6.50123e-09
2.5469e-09
2.99176e-10
1.68986e-08
1.36373e-08
7.74242e-09
3.29658e-09
8.474e-10
5.32951e-09
5.44097e-09
4.66224e-09
5.97252e-09
6.77331e-09
5.64195e-10
5.63713e-10
5.48986e-10
5.49546e-10
7.6478e-10
7.66459e-10
7.92444e-10
7.93875e-10
5.486e-10
3.57756e-09
5.42776e-10
3.2636e-09
5.46928e-10
3.65572e-09
5.39221e-10
3.40142e-09
5.42587e-10
3.63078e-09
5.27659e-10
3.63336e-09
5.39156e-10
3.79447e-09
5.24997e-10
3.76778e-09
1.09242e-09
7.48203e-10
4.63859e-09
4.60386e-09
7.26866e-10
4.60716e-09
1.08837e-09
7.52405e-10
4.75522e-09
4.47326e-09
7.3209e-10
4.40634e-09
6.65125e-10
4.17596e-09
6.63962e-10
4.0985e-09
6.64214e-10
4.21859e-09
6.63539e-10
4.1089e-09
3.73803e-09
1.67874e-09
4.59735e-09
1.89907e-09
5.98318e-09
1.33336e-09
4.84074e-09
1.23575e-09
2.29728e-08
4.58726e-08
5.06874e-09
5.00445e-09
5.20284e-09
5.10232e-09
5.13424e-09
4.99664e-09
5.3841e-09
5.24841e-09
2.86136e-09
1.50113e-08
3.6215e-09
9.26489e-09
3.00884e-09
1.96527e-08
4.00116e-09
1.19425e-08
5.11892e-09
3.51068e-09
7.3143e-09
6.3411e-09
5.89268e-09
3.77234e-09
5.18492e-09
3.54088e-09
7.52595e-09
7.07121e-09
6.92562e-09
3.75286e-09
3.66134e-09
1.66776e-09
4.68167e-09
1.9244e-09
5.69904e-09
2.42082e-09
5.53701e-09
2.48886e-09
5.32902e-09
1.35107e-09
4.66637e-09
1.26871e-09
6.28724e-09
1.04895e-09
5.71669e-09
1.06557e-09
1.96263e-08
2.54854e-08
1.7064e-08
8.97481e-09
2.79007e-09
3.46332e-10
1.62427e-08
1.23735e-08
9.33472e-09
2.62178e-09
8.79627e-10
3.57629e-09
6.08957e-09
7.18746e-09
6.62474e-09
6.12607e-10
6.09793e-10
1.48246e-09
1.46414e-09
7.78871e-10
7.78375e-10
7.7013e-10
7.71168e-10
5.0212e-10
3.27985e-09
5.00004e-10
3.91971e-09
4.99841e-10
3.37428e-09
4.97378e-10
4.07674e-09
5.13396e-10
3.68102e-09
4.99894e-10
3.59838e-09
5.09672e-10
3.89602e-09
4.94251e-10
3.92407e-09
6.12096e-10
3.58818e-09
6.06237e-10
3.40203e-09
6.1017e-10
3.64934e-09
6.01444e-10
3.57672e-09
5.95782e-10
3.20436e-09
5.99337e-10
3.04574e-09
5.91628e-10
3.3245e-09
5.95663e-10
3.13808e-09
4.3684e-09
1.79833e-09
5.70234e-09
2.07348e-09
2.41411e-08
4.92693e-08
5.47697e-09
5.49743e-09
5.28318e-09
5.26328e-09
5.44315e-09
5.37055e-09
5.39485e-09
5.27325e-09
2.88764e-09
1.96587e-08
2.70477e-09
2.51139e-08
2.92182e-09
2.87265e-08
2.74294e-09
3.81941e-08
2.76186e-09
2.42859e-08
2.60961e-09
2.72051e-08
2.84581e-09
3.22757e-08
2.65502e-09
3.27286e-08
2.88888e-09
1.02686e-08
2.9813e-09
1.0467e-08
2.95723e-09
8.17984e-09
3.12957e-09
8.37842e-09
3.78842e-09
6.8841e-09
6.60049e-09
5.31089e-09
3.87205e-09
8.46584e-09
3.81545e-09
6.9908e-09
7.05076e-09
5.32057e-09
4.20352e-09
7.61092e-09
4.19203e-09
1.80928e-09
5.69838e-09
2.10332e-09
6.44909e-09
2.59446e-09
6.3029e-09
2.65899e-09
2.73412e-08
3.19589e-08
2.50045e-08
1.23207e-08
3.1746e-09
4.16516e-10
1.9543e-08
1.42808e-08
9.14611e-09
2.43994e-09
1.1035e-09
5.20629e-09
1.11987e-08
2.55228e-08
1.46769e-07
9.69896e-10
9.68265e-10
2.48944e-09
2.47737e-09
9.99838e-10
9.97341e-10
1.52026e-09
1.51365e-09
5.71465e-10
3.00568e-09
5.64714e-10
3.18139e-09
5.67725e-10
3.11045e-09
5.61041e-10
3.30451e-09
5.62269e-10
2.86201e-09
5.66776e-10
3.13678e-09
5.58295e-10
2.97466e-09
5.60811e-10
3.32863e-09
5.98891e-10
2.9891e-09
5.9443e-10
3.0844e-09
2.9846e-08
5.51139e-08
8.1517e-09
8.24888e-09
5.85321e-09
5.91462e-09
5.95829e-09
5.97226e-09
5.51823e-09
5.49331e-09
3.40007e-09
9.49491e-09
3.2102e-09
1.5718e-08
3.3357e-09
8.38449e-09
3.18214e-09
1.78684e-08
3.12066e-09
1.74942e-08
3.2072e-09
1.75011e-08
3.1493e-09
2.23382e-08
3.20778e-09
2.14399e-08
3.19902e-09
1.25545e-08
2.95323e-09
1.11615e-08
3.22778e-09
1.04067e-08
2.97899e-09
9.10942e-09
2.81603e-09
1.04719e-08
2.84504e-09
1.11001e-08
2.85287e-09
8.3268e-09
2.87361e-09
8.83486e-09
3.89534e-08
4.49562e-08
3.76903e-08
1.72766e-08
3.69651e-09
5.08684e-10
3.9694e-08
1.01363e-08
1.03747e-08
2.15519e-09
2.21213e-08
3.23406e-08
1.35454e-07
2.04281e-06
4.41907e-07
4.37796e-07
2.53771e-06
2.52466e-06
7.48948e-09
7.36206e-09
5.93147e-08
5.79703e-08
5.01349e-09
5.69723e-10
3.86187e-09
6.30512e-10
5.07044e-09
5.67065e-10
3.90499e-09
6.26312e-10
7.46206e-09
1.87596e-09
1.21453e-08
9.92332e-10
7.30422e-09
1.82186e-09
1.21522e-08
9.81586e-10
5.89874e-10
2.82768e-09
5.99353e-10
3.083e-09
5.85862e-10
2.90936e-09
5.95437e-10
3.16523e-09
6.05386e-10
2.73171e-09
5.9694e-10
3.40036e-09
6.00012e-10
2.83727e-09
5.91595e-10
3.56509e-09
3.03451e-08
4.9381e-08
1.77735e-07
7.27475e-09
7.36664e-09
6.45866e-09
6.51689e-09
6.22317e-09
6.1686e-09
6.22693e-09
6.16025e-09
3.1311e-09
1.4173e-08
3.30368e-09
1.28719e-08
3.07305e-09
1.2063e-08
3.23578e-09
1.29046e-08
3.33639e-09
1.15828e-08
3.34134e-09
1.1408e-08
3.35352e-09
1.02813e-08
3.31319e-09
1.08665e-08
3.37474e-09
1.07555e-08
3.40318e-09
9.24027e-09
4.36756e-08
6.00009e-08
4.17271e-08
1.46982e-08
2.73795e-09
6.0187e-10
6.6575e-08
7.60166e-09
5.27731e-09
2.35785e-08
6.18538e-07
9.52161e-07
1.46757e-05
9.56458e-05
1.22283e-06
1.2144e-06
4.78707e-06
4.77261e-06
7.62684e-09
4.80578e-08
1.94342e-07
2.26626e-08
7.37361e-09
4.83208e-08
1.90116e-07
2.22198e-08
2.10189e-07
2.07181e-07
4.7385e-09
6.11887e-10
3.95426e-09
7.50907e-10
4.62866e-09
6.0756e-10
4.0257e-09
7.43763e-10
7.19738e-09
3.35964e-09
1.40435e-08
1.3406e-09
6.9406e-09
3.24668e-09
1.43445e-08
1.31886e-09
6.0904e-10
3.21555e-09
6.03743e-10
3.32717e-09
2.65689e-08
4.57034e-08
1.17947e-07
9.64405e-09
9.77968e-09
7.27736e-09
7.29796e-09
8.51828e-09
8.54002e-09
6.01226e-09
6.00273e-09
1.45013e-08
3.91735e-09
1.00919e-08
3.61591e-09
1.58226e-08
3.96177e-09
1.09482e-08
3.60539e-09
2.33592e-08
3.53692e-09
3.57856e-08
3.48658e-09
2.84609e-08
3.57027e-09
3.41177e-08
3.50307e-09
3.55758e-09
1.56806e-08
3.52355e-09
1.14425e-08
3.51263e-09
1.45226e-08
3.41654e-09
1.17018e-08
3.43579e-09
1.03405e-08
3.46419e-09
1.00744e-08
3.43804e-09
9.34466e-09
3.40742e-09
9.81682e-09
6.11683e-08
5.24332e-08
1.56608e-08
2.59185e-09
4.5425e-10
1.366e-08
5.44486e-09
2.07603e-09
6.53029e-07
2.59299e-05
0.000230039
0.000805865
2.05165e-05
2.0572e-05
4.84002e-05
4.85633e-05
9.45826e-07
1.29334e-05
1.83671e-06
2.52519e-05
9.40297e-07
1.27159e-05
1.82938e-06
2.47631e-05
9.19929e-06
9.20186e-06
1.22468e-08
6.33029e-08
2.59256e-07
3.82097e-08
1.18338e-08
6.44843e-08
2.52637e-07
3.73925e-08
2.78083e-07
3.07754e-06
1.40634e-07
1.64851e-06
2.75342e-07
2.86829e-06
1.38942e-07
1.48118e-06
9.38163e-09
4.99491e-09
2.32467e-08
2.0011e-09
9.15931e-09
4.81416e-09
2.38979e-08
1.95067e-09
3.18989e-08
3.145e-08
1.105e-07
2.33635e-07
4.95183e-09
4.80371e-09
5.22683e-09
5.0333e-09
5.69379e-09
5.36014e-09
4.52365e-09
5.90929e-09
3.72737e-09
9.7538e-09
4.49244e-09
5.93779e-09
3.87156e-09
1.2761e-08
1.06282e-08
3.82934e-09
1.03942e-08
3.76149e-09
8.68514e-09
3.94141e-09
8.12703e-09
3.78654e-09
1.14337e-08
3.63021e-09
1.24555e-08
3.56704e-09
9.27272e-09
3.65968e-09
1.0367e-08
3.59765e-09
3.72379e-09
1.3398e-08
3.70768e-09
1.17448e-08
7.63277e-08
1.75637e-08
2.39108e-09
3.33864e-10
7.40948e-09
3.98057e-09
3.35894e-09
3.36016e-06
0.000689521
0.000951778
0.000320077
0.000321534
0.000712975
0.000714583
2.97417e-05
3.00838e-05
6.67763e-05
6.78281e-05
1.25988e-06
1.02917e-05
2.61219e-06
3.66414e-05
1.25351e-06
1.02539e-05
2.60795e-06
3.6175e-05
4.17111e-05
9.77329e-06
6.7014e-05
6.18473e-06
4.16833e-05
9.85268e-06
6.7281e-05
6.21968e-06
1.67551e-08
7.96487e-08
2.82641e-07
5.37646e-08
1.62145e-08
7.74383e-08
2.66821e-07
5.26226e-08
4.53631e-07
2.9806e-06
1.8949e-07
1.76747e-06
4.49698e-07
2.83714e-06
1.87029e-07
1.60921e-06
6.32567e-08
2.40555e-08
7.68583e-08
1.04851e-07
4.3316e-09
4.0885e-09
4.66885e-09
4.18902e-09
4.83747e-09
4.17046e-09
3.42565e-09
5.18642e-09
7.17153e-09
3.33841e-09
3.18391e-09
4.71071e-09
6.58247e-09
3.0386e-09
3.20923e-09
1.0034e-08
3.25525e-09
2.85975e-08
3.20987e-09
7.57675e-09
2.97886e-09
9.56041e-09
3.05137e-09
2.51887e-08
3.26423e-09
6.78952e-09
3.97947e-09
1.22344e-08
4.10124e-09
9.57628e-09
8.87058e-09
3.68902e-09
9.49558e-09
3.84681e-09
7.10057e-09
3.71215e-09
7.04052e-09
3.7845e-09
2.25441e-08
2.3374e-09
2.51101e-10
3.82671e-09
3.76684e-09
6.49538e-08
8.87328e-05
0.000752787
0.000812337
0.000336058
0.000343692
0.000529653
0.000537364
1.72935e-05
1.22181e-05
0.000211589
2.14734e-05
0.000160048
6.98673e-05
1.23578e-05
1.74719e-05
7.06932e-05
0.000213442
2.14956e-05
0.00016291
7.51586e-05
0.000226143
4.93455e-05
0.000178976
6.47224e-05
0.000230023
4.73985e-05
0.000188748
1.68154e-06
1.40847e-05
3.55281e-06
2.94587e-05
1.6761e-06
1.39768e-05
3.56004e-06
2.92987e-05
3.37421e-05
7.80522e-06
3.39546e-05
7.87711e-06
5.13396e-07
8.08692e-08
4.79671e-07
7.93282e-08
7.20244e-07
5.19993e-06
7.15229e-07
5.08495e-06
5.11452e-08
2.97132e-08
4.44996e-08
6.39102e-08
4.10982e-09
4.11235e-09
3.81173e-09
3.7107e-09
4.55811e-09
3.79085e-09
5.52814e-09
4.07518e-09
1.54158e-08
5.7036e-09
4.45801e-09
3.33528e-09
7.12567e-09
3.42042e-09
1.00304e-08
5.80214e-09
3.57312e-09
2.57467e-09
5.57459e-09
3.24042e-09
3.83948e-09
1.40705e-08
3.54303e-09
8.35165e-09
3.83521e-09
1.32971e-08
3.75046e-09
3.51022e-09
1.0926e-08
1.20203e-08
3.59109e-09
7.38671e-09
3.40672e-09
3.4262e-09
6.677e-09
8.08141e-09
3.60819e-09
1.04127e-08
3.52639e-09
7.53563e-09
2.64149e-09
1.93105e-10
2.76266e-09
2.39064e-09
2.32177e-06
0.000673921
0.000736847
0.000658107
0.000635724
0.000726857
0.000722577
0.000298571
0.00028579
0.000278182
0.000263791
1.40893e-05
1.89759e-05
0.000178947
0.00014436
2.8203e-05
0.000106508
1.42452e-05
1.90288e-05
0.000144705
0.000180145
2.76454e-05
0.000109585
0.000117006
0.000151549
5.89528e-05
0.000106902
9.09902e-05
0.000145019
5.40176e-05
0.000113458
4.74257e-06
2.43944e-05
4.76805e-06
2.4423e-05
3.86554e-09
2.03905e-08
2.84586e-08
4.47403e-08
4.71735e-08
4.28853e-09
4.03981e-09
4.62475e-09
4.11165e-09
9.83776e-09
3.56766e-09
4.81606e-09
7.1863e-09
7.93834e-09
2.38973e-09
3.37542e-09
4.27085e-09
4.63483e-09
4.07922e-09
3.00685e-08
4.7632e-09
1.33665e-08
1.13214e-08
3.2328e-09
3.29972e-09
1.42202e-08
3.29647e-09
7.56754e-09
6.0101e-09
1.84483e-08
1.60447e-08
4.22329e-09
3.74975e-09
7.23499e-09
7.54691e-09
3.148e-09
3.23337e-09
4.0355e-09
1.42597e-08
3.66902e-09
6.66751e-09
4.17592e-09
1.37003e-08
3.76768e-09
1.00188e-08
4.02639e-09
6.28419e-09
3.4079e-09
6.48456e-09
1.50684e-10
1.99953e-09
3.56522e-09
8.70421e-05
0.000669754
0.000723917
0.000526606
0.000514617
0.000611554
0.000608462
0.000573765
0.0003405
0.000399451
0.000348006
0.000578307
0.000294074
0.000389848
0.000321148
0.000458363
0.00039834
0.000230059
0.000184076
0.000134226
0.000132848
0.000188167
0.000139861
8.22272e-05
0.00012777
1.28927e-10
5.36404e-09
9.48022e-09
2.64729e-08
4.7707e-08
6.74478e-09
6.56834e-09
4.46974e-09
3.90972e-09
9.41306e-09
7.17508e-09
5.74961e-09
3.91313e-09
5.45054e-09
1.23244e-08
6.47126e-09
3.48839e-08
3.70759e-09
5.87118e-09
3.61933e-09
9.97087e-09
4.91597e-09
5.14029e-09
2.66198e-08
3.04014e-08
6.51525e-09
3.07417e-08
3.55558e-09
3.35393e-09
9.34307e-09
7.68829e-09
3.99272e-09
9.13534e-09
1.66256e-08
4.0508e-09
6.94871e-09
3.06194e-09
2.17768e-09
1.47198e-07
0.0003548
0.000589139
0.000670594
0.000673902
0.000801292
0.00079712
0.000421032
0.000419041
0.000530405
0.00053149
0.000480247
0.000293867
0.00036374
0.00032612
0.00046375
0.000295871
0.000379345
0.000305585
0.000302976
0.000498739
0.000293963
0.00043126
0.000288702
0.000470827
0.000305353
0.000433466
0.000318476
0.000250144
0.000228131
0.000234679
1.26023e-10
3.27936e-09
7.98501e-09
2.57065e-08
2.92879e-08
3.35145e-09
2.88667e-09
5.2057e-09
3.27815e-09
8.82765e-09
3.99582e-09
8.74975e-09
7.7473e-09
2.09439e-08
1.71248e-08
3.61844e-09
3.78099e-09
8.80059e-09
1.30665e-08
8.20196e-09
5.3887e-08
9.83827e-09
6.73622e-08
4.29882e-09
1.01433e-08
5.03455e-09
1.26695e-08
2.43398e-09
8.00399e-06
0.000415772
0.000554223
0.000782453
0.000785156
0.000825291
0.000824788
0.000311233
0.000479296
0.00051636
0.000415899
0.000467687
0.000331689
0.000329401
0.000452548
0.000532725
0.000432063
0.000469776
0.000324592
0.000617283
0.000593348
0.000388334
0.00029084
0.000362482
0.000287183
0.000413333
0.000320401
0.00040153
0.000329451
0.000324038
0.000447849
0.000443851
0.000475387
1.28903e-10
2.82086e-09
7.77773e-09
3.38147e-08
1.16548e-08
1.15889e-08
5.2181e-09
4.49361e-09
1.83593e-08
1.70065e-08
1.02992e-08
4.47623e-09
2.40756e-08
1.35904e-08
1.56777e-08
5.88781e-08
1.0959e-08
4.16436e-08
1.05559e-08
4.3083e-09
4.41985e-09
1.71977e-08
4.00109e-09
1.0756e-08
1.20608e-08
8.25437e-08
4.72738e-09
1.48489e-08
1.00822e-08
8.61536e-08
4.47806e-09
1.60106e-08
5.28867e-08
0.000118444
0.000456375
0.000627559
0.000630114
0.000535104
0.000534461
0.00106638
0.00102312
0.000853648
0.000855619
0.000422686
0.000490541
0.000904163
0.00132282
0.000961944
0.00104447
0.000546033
0.00050799
0.000892209
0.00138061
0.000980093
0.000968077
0.00122295
0.00113475
0.00160342
0.00124718
0.00107596
0.00107522
0.00152181
0.00117489
1.35663e-10
2.88874e-09
8.63044e-09
3.06613e-08
2.84321e-09
2.47893e-09
4.89351e-09
3.29076e-09
9.47784e-09
4.12408e-09
2.12514e-08
6.54855e-08
1.50763e-08
1.95273e-08
7.6653e-08
3.32572e-08
4.38173e-09
5.25334e-09
2.21312e-08
9.16774e-09
6.85185e-09
1.61567e-08
2.85093e-08
1.79734e-08
1.44587e-07
9.42792e-08
7.38561e-09
5.59029e-09
2.8482e-08
1.8139e-08
1.85002e-08
9.68455e-08
6.21114e-09
1.86252e-08
2.21704e-06
0.00037282
0.000450151
0.000489946
0.000509146
0.00041345
0.000418875
0.00139687
0.00121069
0.000999495
0.00127511
0.00103736
0.00106479
0.00129677
0.00111313
0.000984654
0.00129873
0.000964836
0.00112624
0.000716331
0.000756268
0.00121813
0.00174109
0.00120359
0.00190703
0.00156511
0.00121553
0.00159093
0.00113613
1.47851e-10
2.96316e-09
1.24997e-08
4.1414e-09
3.9708e-09
3.60205e-09
3.33814e-09
6.94329e-09
5.44105e-09
8.58222e-09
4.04032e-09
1.78493e-08
1.31157e-08
2.06655e-08
9.53234e-08
2.97894e-08
5.79596e-08
5.57497e-09
1.04939e-08
1.53334e-08
4.16161e-09
5.24214e-09
2.49843e-08
2.70436e-08
1.60068e-07
3.37415e-08
1.57929e-07
9.65919e-09
7.34764e-09
3.25092e-08
3.157e-08
4.68676e-05
0.00049771
0.000401838
0.000386687
0.000383434
0.000337115
0.00034132
0.00128681
0.000962495
0.000617611
0.000863247
0.000635408
0.000643681
0.00142856
0.000898467
0.000645645
0.000952347
0.000658975
0.000733073
0.000287028
0.000511181
0.000404974
0.000447612
0.000434903
0.000513611
0.000618421
0.000525073
0.000894797
0.000762044
0.00172131
0.000926716
1.60167e-10
2.92648e-09
1.57454e-08
3.12142e-09
2.99531e-09
4.8261e-09
3.69895e-09
7.37633e-09
3.52013e-09
3.66169e-08
4.61746e-08
9.45447e-09
1.77728e-08
6.01925e-08
1.51094e-08
1.21044e-08
9.14599e-09
2.74465e-09
3.97505e-09
1.27018e-08
4.64914e-09
4.04626e-08
3.28789e-08
1.95914e-07
1.96013e-07
8.66418e-09
3.84895e-08
9.7098e-09
3.79919e-08
0.000275063
0.000560389
0.00024186
0.000274345
0.000277117
0.000241135
0.000318089
0.000318209
0.000345962
0.00024767
0.00042759
0.000335105
0.000336317
0.000409075
0.000428935
0.000385705
0.000465614
0.00066762
0.000440246
0.0005194
0.000862009
0.000508122
0.000533893
0.000613907
0.000493206
0.000692949
0.000255942
0.000329214
0.000475892
0.00040882
1.80236e-10
3.06824e-09
2.54729e-08
5.48272e-09
4.36096e-09
7.17113e-09
3.61528e-09
1.49441e-08
6.7729e-09
1.71448e-08
4.09401e-08
3.13182e-08
1.24361e-08
5.38404e-09
1.20121e-08
2.95337e-09
1.98581e-09
3.61846e-09
7.27175e-09
3.35032e-08
1.9534e-07
3.47141e-08
1.84408e-07
7.95487e-09
2.98345e-08
7.35478e-09
2.47588e-08
4.75445e-08
2.86826e-07
1.14367e-08
5.07288e-08
0.000500768
0.000570131
0.000308298
0.00025233
0.000307716
0.000248093
0.000257863
0.000258011
0.000231925
0.000209523
0.000343457
0.000228506
0.000421771
0.000307725
0.000228858
0.000469739
0.000190295
0.00023874
0.000341682
0.000281871
0.00038724
0.000311067
0.000231889
0.000459458
0.000379762
0.000293412
0.000464974
0.000552018
0.000222573
0.000298418
0.000391518
0.000351225
2.15015e-10
3.91346e-09
7.36383e-09
7.74668e-09
3.52194e-09
3.72174e-09
1.02679e-08
4.56126e-09
2.00228e-08
3.08575e-08
7.89601e-09
4.41083e-09
1.21772e-08
2.45922e-09
3.30618e-08
3.40442e-08
2.42965e-07
1.7471e-07
7.2662e-09
2.75542e-08
6.53612e-09
2.85727e-08
5.43133e-08
3.70112e-07
6.43268e-08
4.51357e-07
1.29002e-08
4.54398e-08
1.21232e-08
4.80755e-08
0.000587031
0.000473192
0.000341602
0.000351284
0.000202051
0.000380984
0.000337563
0.000366301
0.000194807
0.000376296
0.000298107
0.000298429
0.00025225
0.0002424
0.000213024
0.000270596
0.00030152
0.000265376
0.000224581
0.000255034
0.000222227
0.000283837
0.000287497
0.000255609
0.000334257
0.00021419
0.000402641
0.00042871
2.58213e-10
7.95591e-09
9.6993e-09
2.7123e-08
7.29335e-09
3.70945e-09
3.78379e-08
6.32609e-09
5.85794e-08
9.00201e-08
1.638e-07
6.64811e-08
4.72453e-08
1.46579e-07
4.93376e-08
1.39828e-08
8.72959e-09
1.60054e-08
2.62764e-08
1.37288e-08
7.22202e-09
2.18341e-08
1.1296e-08
2.94492e-09
8.63432e-08
6.93808e-08
6.10701e-07
3.79021e-07
1.76923e-08
7.70367e-08
1.24483e-08
6.41957e-08
0.000700981
0.000521764
0.000390572
0.000394761
0.000525493
0.000481634
0.000482791
0.000286749
0.000374031
0.000386515
0.00043458
0.000288877
0.000521652
0.000359314
0.000413998
0.000528714
0.000402249
0.000558861
0.00029427
0.000381245
0.000344013
0.000427873
0.000247145
0.000512016
0.0003564
0.000414609
0.000529288
0.000417612
0.000552478
0.000297539
0.000373435
0.000363336
0.000365375
0.000273007
0.000327979
0.00035
0.000344436
3.46232e-10
1.40606e-08
1.93895e-08
1.52871e-07
2.68719e-08
5.9818e-08
1.99698e-08
5.36654e-09
1.48686e-08
6.51112e-09
6.6736e-08
8.00856e-09
1.0539e-07
1.05274e-07
1.28282e-07
7.10232e-07
6.33494e-07
4.17898e-07
1.67572e-08