/*--------------------------------*- C++ -*----------------------------------*\
| =========                 |                                                 |
| \\      /  F ield         | OpenFOAM: The Open Source CFD Toolbox           |
|  \\    /   O peration     | Version:  5.x                                   |
|   \\  /    A nd           | Web:      www.OpenFOAM.org                      |
|    \\/     M anipulation  |                                                 |
\*---------------------------------------------------------------------------*/
FoamFile
{
    version     2.0;
    format      ascii;
    class       volScalarField;
    location    "1.1";
    object      omega;
}
// * * * * * * * * * * * * * * * * * * * * * * * * * * * * * * * * * * * * * //

dimensions      [0 0 -1 0 0 0 0];

internalField   nonuniform List<scalar> 
12160
(
0.0719999
0.0719999
0.00339337
0.0719999
0.00693572
0.00133529
0.0719999
0.0101958
0.00185625
0.00123034
0.0719999
0.0106601
0.00245556
0.00145834
0.0012298
0.0719999
0.0101098
0.00251824
0.0016319
0.00141161
0.00140496
0.0719999
0.00958509
0.00238128
0.00163236
0.00151879
0.00159482
0.00146212
0.0719999
0.00922437
0.00224751
0.00159127
0.00152652
0.00161377
0.00185435
0.00219499
0.0719999
0.00898644
0.00216704
0.00154903
0.00150945
0.00159931
0.00186011
0.00254419
0.00951348
0.0719999
0.00883631
0.0021129
0.00152251
0.00147963
0.0015829
0.00177224
0.00222673
0.00745192
0.00905886
0.0719999
0.00862428
0.0020796
0.00149826
0.0014595
0.00155617
0.00171811
0.00221449
0.00594009
0.00864965
0.0190458
0.0719999
0.00826366
0.00203282
0.00147978
0.0014359
0.00153382
0.00167705
0.00241672
0.00539799
0.00793861
0.0100249
0.0150671
0.0719999
0.00775881
0.00195465
0.00145589
0.00141474
0.00151159
0.00162474
0.00261796
0.00549433
0.00847453
0.00925625
0.0054326
0.00493865
0.0719999
0.00715161
0.00184955
0.00142311
0.00139003
0.00148816
0.00156001
0.00264067
0.0058757
0.0078759
0.012842
0.0038246
0.00358735
0.0044895
0.0719999
0.00649528
0.00173018
0.00138206
0.00136013
0.00145833
0.00150733
0.00255885
0.00608476
0.00708207
0.013513
0.00568797
0.00234845
0.00247809
0.00316758
0.0719999
0.00583887
0.0016101
0.00133676
0.00132543
0.00142311
0.00146497
0.00247341
0.00603126
0.006224
0.0134014
0.00899925
0.00261701
0.00206617
0.00167095
0.0719999
0.00521926
0.00149951
0.00129139
0.00128829
0.00138283
0.00141917
0.00242389
0.00574786
0.00553199
0.0123599
0.0125532
0.00264498
0.00209185
0.00151809
0.0719999
0.00466017
0.00140396
0.00124902
0.0012512
0.00133984
0.00136829
0.00238386
0.00533064
0.00507775
0.0108519
0.0151339
0.00265376
0.00203629
0.00154663
0.0719999
0.00417373
0.00132518
0.0012113
0.00121618
0.00129701
0.00131694
0.00236115
0.00491719
0.00475311
0.00939932
0.0165951
0.00287935
0.00201441
0.00154941
0.0719999
0.00376578
0.00126246
0.00117878
0.00118444
0.00125662
0.00126891
0.00235887
0.00453341
0.00435154
0.00859985
0.0166033
0.0031782
0.00208188
0.0015663
0.0719999
0.00343589
0.00121408
0.00115147
0.00115648
0.0012199
0.00122603
0.00237099
0.0041691
0.00389182
0.00844891
0.0146792
0.00353213
0.00210898
0.00167404
0.0719999
0.00318262
0.0011778
0.0011291
0.00113249
0.0011874
0.0011888
0.0023876
0.00380083
0.0034836
0.00848328
0.0114973
0.00375864
0.00205724
0.00171227
0.0719999
0.00300212
0.0011516
0.00111129
0.00111241
0.00115936
0.00115701
0.0023978
0.00341442
0.00320802
0.00825539
0.00820943
0.00349945
0.00195523
0.00165869
0.0719999
0.00289039
0.00113376
0.00109762
0.00109602
0.00113578
0.0011301
0.00239104
0.00301698
0.0030896
0.00716036
0.00568058
0.00283586
0.00179689
0.00152523
0.0719999
0.00284257
0.00112302
0.00108776
0.00108311
0.0011165
0.00110753
0.00235568
0.00263418
0.00307133
0.00558404
0.00395409
0.00221893
0.00159194
0.00141065
0.0719999
0.00285676
0.00111846
0.00108151
0.00107353
0.00110133
0.00108876
0.00228011
0.00229763
0.00304594
0.00436251
0.00285918
0.00179127
0.00142465
0.00130984
0.0719999
0.0029304
0.00111974
0.00107873
0.00106726
0.00109014
0.00107336
0.00215379
0.00202686
0.00295778
0.00347551
0.00219205
0.00152855
0.00131925
0.00124025
0.0719999
0.00306139
0.00112665
0.00107939
0.00106438
0.00108286
0.00106123
0.00196754
0.00183647
0.0027891
0.00281874
0.00178197
0.00136882
0.00125597
0.00119996
0.0719999
0.00324846
0.00113925
0.00108333
0.00106498
0.00107951
0.00105257
0.0017281
0.00173055
0.00254907
0.0023232
0.00152341
0.00126685
0.00121041
0.00117649
0.0719999
0.00349023
0.00115794
0.00109038
0.00106891
0.00108016
0.00104798
0.00146233
0.00170149
0.00226707
0.00195104
0.00135438
0.00119715
0.00117261
0.00115435
0.0719999
0.00378483
0.00118327
0.00110042
0.00107585
0.00108467
0.00104857
0.00121145
0.00172146
0.00197849
0.00167033
0.00124419
0.0011456
0.00113957
0.0011304
0.0719999
0.00412938
0.00121592
0.00111337
0.00108553
0.00109268
0.00105429
0.00108878
0.00174921
0.00171012
0.00146061
0.00117441
0.00110672
0.0011095
0.00110631
0.0719999
0.00452024
0.00125664
0.00112923
0.00109773
0.0011039
0.00106361
0.00127421
0.00174509
0.00149118
0.00130172
0.0011313
0.00107854
0.00108279
0.00108271
0.0719999
0.00495268
0.00130616
0.00114802
0.00111235
0.00111814
0.0010757
0.00150077
0.00172853
0.00140337
0.00117986
0.00110305
0.00105986
0.00106092
0.00106053
0.0719999
0.00542092
0.00136509
0.00116978
0.00112931
0.00113522
0.00109017
0.00171067
0.00170825
0.00154846
0.00115262
0.00108476
0.00104916
0.00104606
0.0010417
0.0719999
0.00591709
0.0014337
0.00119453
0.00114857
0.00115503
0.00110692
0.00188184
0.00171809
0.00176546
0.00125282
0.00108121
0.00104548
0.00103823
0.00102769
0.0719999
0.0064314
0.00151179
0.00122222
0.00117007
0.00117748
0.00112597
0.00200709
0.00178097
0.00200035
0.00139322
0.00109856
0.00104822
0.00103615
0.00101832
0.0719999
0.006953
0.00159851
0.00125272
0.00119367
0.00120243
0.00114748
0.00209007
0.00190155
0.00223011
0.0015715
0.00112681
0.00105503
0.00103771
0.00101346
0.0719999
0.007476
0.00169245
0.00128575
0.00121918
0.00122969
0.00117157
0.00213917
0.00207344
0.00243346
0.00179461
0.001167
0.00106616
0.00104275
0.00101714
0.0719999
0.00801427
0.00179291
0.00132093
0.00124633
0.00125903
0.00119837
0.00216343
0.00228485
0.00259467
0.00206944
0.00122419
0.0010835
0.00105196
0.00102385
0.00859319
0.0719999
0.00190326
0.0013582
0.0012748
0.00129014
0.00122796
0.00217074
0.0025229
0.00270335
0.0024028
0.00130669
0.00110769
0.00106612
0.00103338
0.00202961
0.00908094
0.0719999
0.00139896
0.00130453
0.00132272
0.00126033
0.00216752
0.00277412
0.00276246
0.00280253
0.00142227
0.00113934
0.00108536
0.00104637
0.00144607
0.00214441
0.00969232
0.0719999
0.00133659
0.00135667
0.00129537
0.00215901
0.00302582
0.0027871
0.00327923
0.00158118
0.00117962
0.00110872
0.00106282
0.00137341
0.00149316
0.00231521
0.0102066
0.0719999
0.00139303
0.00133309
0.00214963
0.00327029
0.00281193
0.0038528
0.00179972
0.00122976
0.00113552
0.00108227
0.0014346
0.00141263
0.00157867
0.00251965
0.0117715
0.0719999
0.00137438
0.00214342
0.00350916
0.00288829
0.00455621
0.00210485
0.0012935
0.00116487
0.00110363
0.00142236
0.00147946
0.00148759
0.00170393
0.00311764
0.016465
0.0719999
0.00214409
0.00375851
0.00304976
0.00543453
0.00253396
0.00137752
0.00119655
0.00112609
0.00215418
0.00147762
0.00156454
0.00158891
0.00202074
0.0049599
0.0291575
0.0719999
0.00403396
0.00329449
0.0064428
0.00314044
0.00149219
0.0012312
0.00114908
0.00429872
0.00217922
0.00157554
0.0016672
0.00177921
0.00295562
0.0100091
0.055972
0.0719999
0.00359005
0.00718072
0.00400069
0.00165493
0.00126995
0.00117196
0.00388593
0.00447898
0.0022123
0.0016824
0.00180376
0.00221721
0.00555017
0.0213528
0.0627029
0.0719999
0.00742603
0.00520943
0.00189178
0.00131565
0.001194
0.00722733
0.00412293
0.00471584
0.00227886
0.00181152
0.00200779
0.00335313
0.011829
0.0322763
0.108301
0.0719999
0.00679922
0.0022375
0.0013747
0.00121411
0.00869864
0.00691189
0.00445876
0.00491626
0.00239018
0.00193895
0.00241872
0.00653265
0.0217388
0.055948
0.10041
0.105872
0.00272317
0.00145729
0.00123362
0.00323229
0.0113067
0.00670081
0.00462732
0.00483364
0.00246082
0.00206853
0.0036125
0.01332
0.0390456
0.0827047
0.10186
0.0298149
0.0568889
0.00158691
0.00125892
0.00171444
0.00368141
0.0148605
0.00723151
0.0048121
0.00449062
0.00242918
0.00243753
0.00703131
0.0252987
0.0623122
0.0933233
0.0289208
0.0197869
0.0239776
0.0568889
0.00130027
0.00134468
0.00181597
0.0043159
0.0166731
0.00848559
0.00517014
0.00408248
0.00245306
0.00384955
0.0139449
0.0432391
0.0778389
0.0225038
0.0184778
0.0172575
0.0200869
0.0234105
0.0568889
0.00140645
0.00198955
0.00387812
0.0160816
0.00959916
0.00566544
0.00392635
0.00298418
0.00718781
0.0257437
0.0594321
0.0181607
0.0165985
0.0163094
0.017131
0.0178825
0.0205678
0.0249817
0.0568889
0.00152373
0.00207145
0.00314135
0.0140809
0.0101123
0.00614023
0.00428498
0.004371
0.012638
0.0405945
0.0166903
0.0150679
0.0151978
0.0159034
0.0181503
0.0181852
0.0183534
0.0212503
0.0289873
0.0568889
0.00168662
0.00211245
0.00258052
0.0113036
0.00979591
0.00648856
0.00501416
0.00635891
0.0220348
0.0148268
0.0138385
0.0141231
0.014647
0.0164176
0.0201684
0.0202779
0.0194389
0.018994
0.0221264
0.0349218
0.0568889
0.0017477
0.00210782
0.00224483
0.00783456
0.0085949
0.00656611
0.00590719
0.00949223
0.0115196
0.0122946
0.0131157
0.0135554
0.014814
0.0174669
0.0254008
0.0240091
0.0254213
0.0241752
0.0241884
0.0231035
0.0211579
0.0200608
0.0233742
0.0412224
0.0568889
0.00171346
0.00205203
0.00208535
0.00480159
0.00687626
0.00650977
0.00663101
0.00730895
0.0103776
0.0117831
0.0126822
0.0133595
0.0153787
0.0196619
0.0281865
0.0288234
0.028792
0.0281974
0.0297491
0.0297449
0.0288527
0.027264
0.0272997
0.0263399
0.0232475
0.0217888
0.025315
0.047049
0.0568889
0.00162128
0.00199294
0.00200571
0.00328796
0.00574064
0.00671316
0.00668373
0.00786155
0.00993991
0.0115784
0.01215
0.0135204
0.0161521
0.0235983
0.023628
0.0222056
0.0222103
0.0308723
0.0308474
0.0342409
0.0331071
0.0308949
0.0320063
0.0320059
0.0309023
0.0295593
0.0296255
0.0295738
0.0252509
0.0239168
0.0280303
0.0523478
0.0568889
0.00152947
0.00193283
0.00202894
0.00277309
0.00579148
0.00713041
0.00731577
0.00762782
0.00961967
0.011023
0.0118993
0.0137129
0.0194384
0.0194402
0.0188875
0.0188977
0.0259002
0.0259395
0.0242236
0.0242283
0.0321021
0.0308328
0.0327546
0.0309772
0.0326503
0.0376244
0.0399029
0.0392843
0.0389561
0.034537
0.0343551
0.0321346
0.0328368
0.0328064
0.0309177
0.032783
0.0310308
0.0327109
0.0297105
0.0313252
0.0295571
0.0315446
0.0298041
0.0313718
0.0296321
0.031598
0.0310639
0.0270151
0.0267801
0.0318094
0.0576765
0.0568889
0.00144709
0.00189829
0.00203979
0.00279358
0.00724853
0.0081513
0.0080091
0.00764824
0.00953033
0.0103422
0.0117877
0.0170566
0.0170646
0.016612
0.0166233
0.0217629
0.0217683
0.0211028
0.021117
0.0277471
0.0329368
0.025936
0.0275105
0.02588
0.0295675
0.0329469
0.0277601
0.0259786
0.0275311
0.0259227
0.0296193
0.0259742
0.024208
0.0260598
0.0242751
0.0259798
0.0242073
0.0260561
0.0242784
0.0322732
0.0336091
0.032131
0.0336793
0.0308545
0.0342599
0.0310129
0.0342327
0.0384816
0.0432623
0.0443182
0.0438494
0.0419457
0.0415913
0.0388467
0.0384841
0.0359292
0.0356532
0.0323365
0.0336265
0.0321802
0.0337241
0.0329676
0.0341021
0.0337163
0.0340386
0.0329769
0.034085
0.0336786
0.0340471
0.0309766
0.0343101
0.0310686
0.0343127
0.0297409
0.0331279
0.0298685
0.0331596
0.0315162
0.0291925
0.0308911
0.0371872
0.0640287
0.0568889
0.00139412
0.00178673
0.00211266
0.00289205
0.0103826
0.00990024
0.00885138
0.0081979
0.00906862
0.0100035
0.0149279
0.0149229
0.014747
0.014756
0.0194019
0.0194189
0.0188288
0.0188409
0.0238965
0.0218528
0.0239098
0.0218717
0.0238929
0.0218526
0.0239026
0.0218642
0.0230875
0.0211353
0.0232993
0.0211905
0.0230823
0.0211399
0.0232981
0.0211962
0.034141
0.0280901
0.0259302
0.0294646
0.0281006
0.0258222
0.0341393
0.0281034
0.0294697
0.0259731
0.0281167
0.0258613
0.0268248
0.0241745
0.0269566
0.0243093
0.0268269
0.0241732
0.0269519
0.0243125
0.0324908
0.0347197
0.0321251
0.0349615
0.0307844
0.0349258
0.0310271
0.0348091
0.0376782
0.0439683
0.0467523
0.0464555
0.0459012
0.0454595
0.0446581
0.0440439
0.042014
0.0414882
0.0401146
0.0388339
0.0383538
0.0373138
0.0395496
0.0382546
0.0379178
0.0368221
0.0362665
0.0352863
0.0364457
0.0370406
0.0366811
0.034805
0.036203
0.035279
0.0361727
0.036749
0.0362292
0.0347701
0.0325771
0.0347602
0.0321814
0.0350181
0.0333329
0.0350919
0.0333546
0.0351353
0.0309238
0.0349986
0.0310943
0.0348831
0.0296989
0.0339716
0.0298318
0.0340032
0.0319991
0.0326378
0.0368753
0.0449898
0.0721652
0.0568889
0.00132411
0.00175532
0.00204562
0.00347949
0.0139571
0.0115314
0.0102141
0.00905338
0.00940262
0.0141209
0.0140926
0.0219225
0.0217877
0.0174689
0.0174587
0.0171597
0.0171726
0.0216211
0.0195174
0.0215393
0.0194507
0.0216188
0.0195264
0.021538
0.0194558
0.0209362
0.0190669
0.0210763
0.0189456
0.0209338
0.0190689
0.0210664
0.0189385
0.0250316
0.0219331
0.0251458
0.0219693
0.0250239
0.0219274
0.0251271
0.0219523
0.0248813
0.0212294
0.0248939
0.0213981
0.024859
0.0212242
0.0248772
0.0213945
0.0325477
0.0351516
0.0320563
0.0353822
0.0357235
0.0437017
0.0469171
0.0470067
0.0470287
0.0469399
0.0470618
0.0467238
0.0463919
0.045847
0.0469192
0.044859
0.0455249
0.0437827
0.0461846
0.0441538
0.044761
0.0430697
0.0419855
0.0404906
0.0438993
0.042286
0.0413001
0.0398439
0.0431531
0.041593
0.0405518
0.0393508
0.0387577
0.0373052
0.0399793
0.038835
0.0383765
0.0369312
0.0358053
0.0364471
0.036367
0.0352794
0.0375022
0.0362909
0.0358168
0.0363421
0.0361743
0.0352476
0.0372553
0.036037
0.0326515
0.0352094
0.0321205
0.0354424
0.0334497
0.0355575
0.0334724
0.0356025
0.033788
0.0380475
0.0454736
0.055972
0.0824523
0.0568889
0.00128563
0.00161636
0.00219321
0.0037171
0.0149795
0.0131815
0.0134145
0.0147376
0.0299556
0.0178036
0.0177916
0.0285573
0.0284889
0.0201878
0.0201644
0.0246856
0.0246258
0.0236304
0.0197196
0.023592
0.0195748
0.0236112
0.0197127
0.0235749
0.019561
0.0229042
0.0193981
0.023207
0.0191365
0.0228816
0.0193902
0.0231748
0.0191174
0.0251587
0.0210074
0.0251324
0.0210009
0.0351306
0.0413937
0.0465484
0.0468558
0.0467157
0.0469512
0.0466852
0.0467328
0.0471351
0.0470136
0.0481843
0.0464879
0.0484406
0.0464284
0.0479427
0.0460462
0.0481006
0.0458316
0.0478647
0.0456128
0.0483779
0.0461503
0.0472452
0.0449422
0.0479169
0.0455089
0.0476632
0.0457226
0.0461401
0.0447267
0.0469384
0.0450799
0.0453628
0.0440724
0.0425576
0.0412367
0.044512
0.0432119
0.0418438
0.0406393
0.043731
0.0425638
0.0375647
0.0461898
0.0575147
0.0705883
0.0946222
0.0568889
0.00121739
0.00163349
0.0019503
0.0045639
0.0157911
0.0228136
0.046598
0.146557
0.412118
0.410219
0.992334
0.989844
0.0530347
0.052561
0.151647
0.149938
0.0206155
0.0228481
0.0202278
0.0240425
0.020594
0.0228179
0.0202056
0.0239839
0.0238889
0.0412849
0.0286946
0.0301024
0.0238258
0.0406979
0.0285208
0.0298558
0.0245515
0.0197875
0.024842
0.0196211
0.0245243
0.0197766
0.0248111
0.0196025
0.0247393
0.0197291
0.0248182
0.0193034
0.0247056
0.0197183
0.0247721
0.0192817
0.036752
0.0387359
0.0446229
0.0458828
0.0461771
0.0461958
0.0463947
0.0468152
0.0466323
0.0475749
0.0473335
0.0488827
0.0471981
0.0491617
0.0472188
0.0486326
0.0466186
0.048869
0.0465821
0.0486311
0.0463624
0.0491432
0.0469191
0.0480511
0.0457277
0.0487318
0.0462752
0.0480017
0.0462248
0.0472897
0.0455396
0.0439686
0.0581975
0.0732922
0.088633
0.105399
0.0719993
0.00120218
0.00145027
0.00203633
0.00553054
0.0561163
0.160639
0.701919
1.91688
0.761139
0.758319
1.50972
1.50701
0.0819737
0.0562841
0.107425
0.141849
0.0806982
0.0556001
0.106242
0.140425
0.315547
0.313234
0.021149
0.0245503
0.0203882
0.0275547
0.0211247
0.0244982
0.0203678
0.0274062
0.0250869
0.0578617
0.0354196
0.0369422
0.0249858
0.0569724
0.0350701
0.0364977
0.0250702
0.0198999
0.0250321
0.0198879
0.0403592
0.0380706
0.0426904
0.0452663
0.0455588
0.0453661
0.0454581
0.0454381
0.0454363
0.046084
0.046037
0.0470942
0.0474858
0.0466849
0.0480675
0.0459518
0.0468437
0.0454762
0.0475018
0.0475294
0.049005
0.0477729
0.0486222
0.0465283
0.0486032
0.0469793
0.0481016
0.0493657
0.0479659
0.0496132
0.047924
0.0490552
0.0472238
0.049275
0.047214
0.0489736
0.0468411
0.0495467
0.0475131
0.0483871
0.0461587
0.0491127
0.0468082
0.054616
0.0744557
0.0919146
0.107209
0.0719993
0.00113277
0.00154596
0.00212473
0.0137694
0.538
3.26437
6.32299
3.93808
3.94234
6.31535
6.32651
1.01046
0.722845
1.42024
1.1141
1.00736
0.721018
1.41805
1.11291
2.34828
2.34872
0.109411
0.069301
0.143902
0.193946
0.107765
0.0683481
0.142273
0.19187
0.548208
0.368986
0.390244
0.270944
0.545131
0.367507
0.387126
0.269478
0.0291012
0.0727538
0.0432658
0.0461112
0.0289219
0.0715659
0.0427708
0.0455079
0.0474572
0.0392716
0.0416208
0.0444756
0.0464206
0.0458422
0.0461759
0.0454534
0.0466385
0.0455422
0.0466975
0.0459825
0.046347
0.0462639
0.0459775
0.0449234
0.0454286
0.045469
0.0486285
0.0482547
0.0483651
0.0487455
0.0468554
0.0474622
0.0464797
0.0480241
0.0488585
0.0495965
0.0487979
0.0493417
0.0473937
0.0490261
0.0477494
0.0486084
0.0497746
0.0487659
0.0492789
0.0478414
0.0709134
0.0936326
0.108835
0.0719993
0.00116415
0.00151873
0.00355518
0.0871053
3.63664
25.7111
13.051
13.0769
20.9086
20.9632
5.48526
5.51642
7.8096
7.86695
1.23261
0.769842
1.78935
1.29382
1.22965
0.768566
1.78788
1.29331
2.37256
3.88265
3.24061
3.027
2.37789
3.89984
3.25391
3.03463
0.133839
0.0811814
0.154623
0.241305
0.131675
0.0802263
0.153305
0.238369
0.733486
0.42394
0.472299
0.27801
0.729714
0.42297
0.46845
0.276924
0.0619864
0.0415519
0.041889
0.0446175
0.0484853
0.0474657
0.0485946
0.0466561
0.0489498
0.0462149
0.0484605
0.0487351
0.0477682
0.048079
0.0460822
0.0451466
0.0456594
0.0456189
0.0490398
0.0504028
0.049069
0.0509633
0.0475742
0.0477322
0.0466756
0.0457054
0.047056
0.0462039
0.0462757
0.0454348
0.0476907
0.0478888
0.0466851
0.0458959
0.0503222
0.0490283
0.0504715
0.0493126
0.047621
0.0480389
0.0474468
0.0482911
0.0922583
0.109759
0.0719993
0.00118202
0.00179835
0.0114252
0.769107
15.6498
70.6967
11.5776
11.6818
18.1609
18.2493
6.24484
4.78786
4.98036
6.73179
5.4089
3.82875
4.81636
6.27518
3.84956
4.99146
6.74271
5.39252
9.06396
7.51562
8.49225
6.807
8.59144
7.14972
8.40409
6.708
1.48737
0.90876
2.17923
1.48683
1.4853
0.908234
2.18129
1.48818
2.76791
3.73158
2.7798
3.74813
0.181309
0.305624
0.180177
0.302288
0.958633
0.553432
0.955442
0.552633
0.086695
0.0503756
0.0423981
0.0452027
0.0499655
0.0500827
0.0492007
0.0487698
0.0516045
0.0479871
0.0546559
0.0478255
0.0635801
0.0545583
0.058704
0.0560863
0.0549978
0.0508776
0.0495982
0.047266
0.0476363
0.0483152
0.0470534
0.0465381
0.0505011
0.0556546
0.0467828
0.047511
0.050654
0.0575243
0.0506249
0.0488307
0.057758
0.0510646
0.0474811
0.0483548
0.0479867
0.0473919
0.0486797
0.0467862
0.0489066
0.0508018
0.0478051
0.0472217
0.111078
0.0719993
0.00130616
0.0023502
0.0851694
6.13017
46.3097
150.536
148.59
199.055
199.452
12.1521
9.97545
34.6518
32.6902
5.46735
6.57355
4.88698
4.11391
7.05955
5.12835
5.49811
6.58349
4.13082
4.8736
7.02202
5.07055
8.72028
6.28995
7.8914
5.71716
8.00467
5.94108
7.70424
5.5697
2.69349
1.8998
2.70069
1.90502
0.114188
0.0765257
0.0448628
0.0457335
0.049498
0.0509028
0.0500386
0.0511794
0.0490888
0.0600298
0.0627793
0.0639129
0.0716785
0.0492495
0.0499856
0.0497978
0.0512183
0.0671071
0.0620508
0.0870439
0.0660589
0.0807329
0.0757339
0.0509073
0.049464
0.0558932
0.0503155
0.0533706
0.0525135
0.0820217
0.0670485
0.0617045
0.0541306
0.0562731
0.0514471
0.0503164
0.0481212
0.0531242
0.0686157
0.0482901
0.0524681
0.052374
0.0687433
0.0501189
0.0563329
0.0484055
0.0524707
0.0480086
0.0485494
0.0719993
0.00158373
0.00541834
0.649212
23.9737
116.265
158.044
157.601
184.884
184.993
62.872
58.5701
35.2236
91.0727
52.6881
34.5613
23.7178
70.5766
84.9881
77.7317
16.3579
8.84019
9.98936
5.99824
10.4217
6.09488
8.16857
5.21699
0.0719993
0.118538
0.0646891
0.0468039
0.0496897
0.0540008
0.0538975
0.0557566
0.0532536
0.0558541
0.0499699
0.0597443
0.0503614
0.0776471
0.101636
0.0779536
0.110371
0.0524309
0.0578011
0.0535119
0.0633556
0.0675565
0.0719514
0.100717
0.118295
0.0750212
0.114991
0.0514666
0.0534214
0.0682365
0.0617345
0.0535965
0.066442
0.0849399
0.0588133
0.0582986
0.0499779
0.00195721
0.0276826
3.42024
53.7803
248.203
249.267
286.309
284.672
146.346
146.648
196.455
197.81
67.9438
71.1765
44.2688
99.7305
52.9842
46.1592
30.2753
77.0921
167.967
129.504
153.751
106.71
155.646
119.634
136.562
95.1146
35.5535
17.9511
16.0432
9.18663
0.0719979
0.121206
0.061757
0.0505103
0.0542569
0.0595939
0.056233
0.0697022
0.0558835
0.0865275
0.0575638
0.102318
0.0937254
0.124043
0.0850331
0.0587855
0.0563615
0.0647029
0.0547145
0.0933543
0.154608
0.0963202
0.177536
0.0571875
0.0797658
0.0593556
0.0912671
0.0027146
0.2223
9.55713
105.027
280.914
284.025
298.483
296.773
195.412
135.035
184.201
246.901
154.899
246.611
192.441
127.819
191.403
252.806
159.991
245.282
221.33
220.199
86.6494
106.396
65.8882
137.344
67.5738
70.89
46.8761
105.531
187.784
120.673
192.436
114.876
0.0719922
0.117512
0.0639623
0.0551117
0.0609515
0.0578226
0.0599238
0.0564185
0.05721
0.0542327
0.0975826
0.063149
0.122847
0.139931
0.159301
0.210717
0.127945
0.180184
0.0661635
0.0722129
0.0792438
0.102103
0.0685241
0.0882744
0.121423
0.199094
0.0675639
0.0977076
0.113008
0.226552
0.0661722
0.110739
0.00875185
0.920937
23.3784
230.47
230.793
190.484
190.56
377.506
384.444
305.082
307.002
238.292
140.328
281.334
439.223
225.517
495.229
257.137
145.146
289.177
473.666
255.592
489.913
633.971
384.301
659.534
357.295
618.294
386.636
703.885
401.535
0.0719775
0.113932
0.067223
0.0621687
0.0662242
0.062867
0.0739648
0.061344
0.101848
0.0661366
0.181775
0.241094
0.149457
0.190506
0.255314
0.131442
0.080901
0.0949921
0.125601
0.0740147
0.0860632
0.113712
0.20513
0.1567
0.314254
0.268875
0.0972249
0.080166
0.154163
0.130883
0.145417
0.284932
0.0758366
0.1385
0.0422443
4.65353
45.4145
188.962
191.001
152.081
153.491
661.427
377.038
330.488
538.782
289.717
562.667
705.648
406.458
364.088
628.575
352.198
621.877
266.753
270.084
267.008
557.856
376.659
690.979
590.856
313.612
684.966
375.908
0.0719467
0.111711
0.0715745
0.0725856
0.0723354
0.0685577
0.0670027
0.0697878
0.0630526
0.0978389
0.0667233
0.149705
0.158894
0.215421
0.287198
0.194053
0.270897
0.0800501
0.0915962
0.124561
0.0856987
0.10343
0.136226
0.209486
0.334337
0.224819
0.361243
0.110986
0.101069
0.179498
0.165583
0.483913
15.2289
60.2081
163.516
169.157
130.863
133.429
463.198
227.767
196.362
286.314
154.938
316.954
595.294
320.426
184.936
319.864
158.494
320.117
269.781
217.515
263.504
166.868
318.642
222.745
324.162
193.63
276.091
132.922
483.153
247.764
0.0718876
0.111732
0.0791403
0.0759051
0.0757065
0.0783916
0.0702864
0.1013
0.0700028
0.190692
0.265937
0.155179
0.21117
0.286435
0.142585
0.0883416
0.109951
0.0792068
0.0923685
0.115175
0.0752183
0.271001
0.241381
0.427502
0.405086
0.115816
0.200854
0.126139
0.197438
2.91019
31.9036
100.187
106.937
108.784
99.9096
114.363
114.534
148.165
242.703
194.577
148.362
278.92
197.498
140.32
71.3883
122.581
169.54
85.4655
218.063
244.335
115.103
134.106
134.664
71.4133
244.782
220.778
147.627
297.815
181.687
0.0717744
0.115711
0.0884538
0.0846265
0.0772881
0.105889
0.0753823
0.156547
0.156949
0.23316
0.292508
0.150306
0.167161
0.0790088
0.0731647
0.0717098
0.0788291
0.0960439
0.111203
0.246481
0.432811
0.248755
0.394919
0.10902
0.186727
0.100514
0.152684
0.290684
0.550445
0.134114
0.254935
11.2833
47.45
130.304
107.634
129.756
106.469
100.751
100.799
197.697
199.957
161.317
221.392
183.07
156.45
207.183
198.469
193.404
200.136
163.235
250.932
181.358
154.893
211.85
196.505
120.094
186.401
153.436
259.322
204.507
137.079
273.043
165.095
0.0715405
0.123276
0.124939
0.126073
0.0847492
0.118089
0.156213
0.103332
0.209468
0.17051
0.151251
0.0962228
0.0845828
0.0794086
0.253085
0.30056
0.43234
0.403296
0.102047
0.17597
0.122743
0.166634
0.288335
0.605383
0.324868
0.653252
0.11723
0.253096
0.120247
0.271648
25.0837
72.9453
158.573
174.804
199.816
161.357
155.369
175.851
193.497
162.562
125.687
126.423
211.516
208.426
190.167
131.941
140.642
143.646
197.813
210.224
196.622
138.96
132.707
137.29
119.887
177.361
150.191
249.338
0.0711729
0.13975
0.203087
0.204113
0.103698
0.123929
0.36111
0.145281
0.453787
0.444505
0.655486
0.298182
0.373895
0.615313
0.250182
0.248404
0.15426
0.15969
0.234616
0.119578
0.139241
0.21208
0.105002
0.107153
0.371173
0.438728
0.652057
0.637444
0.145049
0.281933
0.174893
0.26829
30.1233
211.7
170.681
171.672
212.039
190.138
190.02
250.73
189.649
317.718
218.725
262.509
225.278
279.856
199.364
247.725
348.741
261.611
253.143
187.661
293.672
208.809
241.221
222.298
276.117
197.034
248.711
355.766
259.552
214.002
280.865
146.275
176.311
204.185
256.496
140.587
162.891
0.0706553
0.155674
0.221125
0.693172
0.297774
0.278483
0.248493
0.125925
0.11428
0.125871
0.448677
0.1519
0.535625
0.521849
0.558468
0.952899
0.947723
0.799426
0.198032
0.169175
0.217395
0.399121
0.385566
0.269532
0.530816
0.888661
0.207552
0.399355
53.9514
297.721
273.453
299.573
273.228
229.651
229.257
374.414
335.611
213.586
228.264
455.563
285.325
537.151
528.322
339.099
419.153
289.828
344.924
458.699
329.394
341.284
322.147
208.5
205.535
454.745
283.617
530.614
541.184
337.982
424.682
288.109
345.582
467.221
330.372
0.0704379
0.221389
0.295254
0.146442
0.227483
0.209713
0.19605
1.0646
1.01337
1.31305
1.5847
0.72771
1.15602
1.54798
1.71703
0.347944
0.360968
0.470764
0.663412
0.254243
0.415561
0.553862
0.734024
0.594939
0.922814
0.914718
0.205101
0.236919
0.213523
0.677883
0.990958
1.2842
1.48935
0.262108
0.361334
0.539178
0.626965
140.273
368.464
377.215
593.257
339.579
369.055
378.62
598.564
339.506
297.448
297.154
504.228
309.298
533.714
320.23
632.95
640.266
599.39
354.121
373.388
376.389
500.411
306.217
531.857
318.219
634.599
597.509
643.012
352.176
372.529
377.317
0.0701625
0.264149
0.182982
0.137134
0.277445
0.280147
0.263851
1.59142
1.85464
2.022
2.27053
1.63836
2.01641
0.570019
0.663293
0.923726
1.07989
0.570685
0.870715
0.705126
1.16391
1.72426
1.14668
1.52197
1.13247
0.51597
0.689178
0.249072
0.405917
0.597768
0.332806
0.453653
0.363946
0.192951
0.225136
190.039
408.06
408.152
379.453
396.068
656.345
405.384
638.161
342.563
379.972
396.926
659.14
405.886
639.412
342.581
644.97
657.652
668.389
377.881
381.736
388.964
644.095
659.046
669.327
376.313
381.196
389.299
0.0691822
0.332949
0.177753
0.31891
0.235228
0.166827
0.158707
0.142358
0.342557
0.283788
0.246327
2.18075
2.83004
1.61799
2.3223
0.742076
1.33878
0.556575
0.961885
0.860802
0.340393
1.43213
1.50913
2.43741
0.444713
0.294465
0.154235
0.54188
0.950262
0.559393
0.194851
165.054
384.607
282.489
384.747
282.592
321.792
367.403
647.087
400.809
576.516
668.971
388.818
279.943
321.732
366.36
649.793
400.358
575.851
669.287
388.537
279.981
656.184
380.532
656.412
379.511
0.0685184
0.317914
0.31825
0.219452
0.197157
0.171483
0.180932
0.179788
0.195594
0.163538
0.161691
0.169883
0.15229
0.227162
0.224392
0.696232
1.19593
0.216821
1.08597
2.36109
0.186368
0.206483
0.427085
0.156134
0.891697
0.362341
0.161401
64.165
288.956
379.791
289.12
379.922
243.627
243.65
221.871
325.153
338.881
254.158
484.103
317.635
633.634
371.149
506.239
632.807
367.759
221.831
324.823
337.545
253.04
483.004
316.304
633.438
370.333
503.929
632.334
366.464
0.0685231
0.238709
0.21699
0.251164
0.217934
0.191058
0.218785
0.205169
0.220457
0.204944
0.174408
0.178094
0.182656
0.196611
0.188036
0.19747
0.187331
0.163109
0.167026
0.149562
0.154421
0.49481
0.812929
0.159028
0.191586
20.069
332.604
176.377
332.463
175.658
256.65
314.401
256.698
314.437
197.408
197.377
174.107
249.507
182.667
255.817
260.982
277.924
197.873
376.211
279.662
574.989
339.486
405.695
174.471
249.639
182.495
256.226
260.192
277.176
197.516
374.921
278.68
574.126
338.25
402.512
0.0691927
0.217138
0.239371
0.217998
0.249385
0.136792
0.139503
0.13286
0.192777
0.169791
0.183973
0.18564
0.212892
0.201542
0.217289
0.203744
0.190791
0.17749
0.132102
0.184552
0.156361
0.174248
0.173866
0.194267
0.18639
0.195915
0.189029
0.158925
0.165085
13.7077
114.818
77.3919
114.174
76.1031
304.112
210.014
303.908
209.486
201.814
261.695
201.798
261.681
178.38
259.928
173.328
267.245
178.563
259.799
173.274
267.545
165.812
239.463
164.704
247.446
166.127
239.895
164.826
248.291
0.0701706
0.324461
0.325749
0.316093
0.338757
0.137498
0.147892
0.140714
0.155967
0.121241
0.118267
0.167676
0.144966
0.14693
0.143036
0.191392
0.183086
0.189219
0.191316
0.212132
0.203162
0.211879
0.202068
0.120938
0.130562
0.133054
0.115478
0.183786
0.162374
0.17488
0.181488
0.194006
0.179726
0.193582
0.184472
41.9549
9.76477
151.168
107.282
149.615
106.465
322.734
295.143
322.722
296.223
170.516
246.118
166.864
246.993
199.236
354.719
261.681
275.689
170.399
245.829
166.78
246.643
199.062
354.679
261.168
275.306
171.552
255.299
165.93
262.711
171.779
255.233
165.882
263.35
0.0704366
0.25579
0.219
0.267596
0.222725
0.237593
0.285793
0.227996
0.244012
0.124108
0.13254
0.120038
0.136159
0.160288
0.152668
0.196496
0.13279
0.115265
0.102554
0.114202
0.107904
0.221411
0.177558
0.209285
0.172631
0.124841
0.143528
0.16423
0.117314
35.4716
110.763
116.782
113.237
118.462
4.33719
247.504
182.246
248.284
183.231
333.342
467.273
313.717
527.821
341.403
524.448
340.746
541.397
333.276
467.063
313.225
527.12
341.611
531.056
341.213
542.946
161.971
243.026
160.632
239.204
173.336
314.781
218.123
249.419
161.866
242.826
160.563
239.01
173.192
314.585
217.68
249.316
0.0706511
0.158164
0.275991
0.206214
0.265836
0.202622
0.19495
0.222625
0.187644
0.194988
0.203241
0.151622
0.193217
0.158822
0.205729
0.154455
0.177052
0.16343
0.122416
0.104602
0.115747
0.111576
0.129947
0.134046
0.137531
0.12021
0.222523
0.199535
0.295133
0.163011
0.120362
0.107399
0.129509
0.10925
25.6885
116.059
139.36
116.581
139.565
201.076
176.002
202.644
176.31
1.43359
333.975
516.935
337.363
507.2
302.363
312.851
270.481
419.609
335.866
522.276
338.754
509.318
304.827
331.292
271.396
426.14
304.587
424.36
281.065
503.271
326.7
578.883
343.819
553.103
303.644
422.239
280.064
501.185
325.998
581.385
344.275
552.462
0.07117
0.1415
0.362264
0.230395
0.154639
0.12604
0.191037