/*--------------------------------*- C++ -*----------------------------------*\
| =========                 |                                                 |
| \\      /  F ield         | OpenFOAM: The Open Source CFD Toolbox           |
|  \\    /   O peration     | Version:  5.x                                   |
|   \\  /    A nd           | Web:      www.OpenFOAM.org                      |
|    \\/     M anipulation  |                                                 |
\*---------------------------------------------------------------------------*/
FoamFile
{
    version     2.0;
    format      ascii;
    class       volScalarField;
    location    "1.1";
    object      p;
}
// * * * * * * * * * * * * * * * * * * * * * * * * * * * * * * * * * * * * * //

dimensions      [1 -1 -2 0 0 0 0];

internalField   nonuniform List<scalar> 
12160
(
5347.94
5350
4693.9
5352.39
4695.88
4040.02
5355.85
4698.14
4042.18
3385.72
5361.64
4701.38
4043.97
3387.99
2732.04
5369.16
4707.07
4046.8
3389.21
2734.93
2077.22
5377.35
4714.97
4052.55
3391.27
2734.83
2081.21
1423.7
5382.87
4723.71
4060.93
3396.54
2735.66
2079.82
1429.58
767.645
5382.86
4729.84
4070.8
3406.09
2741.16
2078.85
1425.06
777.273
227.331
5375.24
4729.85
4078.16
3417.82
2751.5
2082.27
1421.54
771.189
235.059
3.98365
5359.59
4722.76
4080.09
3427.13
2765.84
2095.13
1425.27
765.227
232.072
4.333
-6.72445
5336.57
4707.13
4072.63
3429.1
2778.02
2113.31
1438.98
767.917
227.701
6.59866
-6.83888
-7.48507
5307.96
4683.84
4056.59
3423.37
2784.41
2129.24
1461.93
782.548
231.106
7.61274
-6.78659
-7.50777
-8.19789
5275.86
4654.81
4032.6
3407.29
2777.5
2133.71
1483.62
810.771
245.086
10.2625
-6.73958
-7.49822
-8.16642
-8.81022
5242.35
4622.22
4002.62
3382.36
2760.6
2132.5
1497.42
838.327
269.662
15.0119
-6.65131
-7.47626
-8.15061
-8.82121
-9.49599
5209.23
4588.25
3969.03
3351
2734.14
2115.39
1491.43
855.404
296.206
22.9095
-6.55457
-7.45774
-8.14069
-8.81563
-9.48353
5177.98
4554.74
3934.11
3315.91
2700.77
2087.05
1472.88
852.289
314.141
32.919
-6.38903
-7.47319
-8.1325
-8.81004
-9.47967
5149.67
4523.18
3899.8
3279.59
2663.58
2051.02
1441.86
833.353
314.606
40.6108
-6.07621
-7.5247
-8.14729
-8.8055
-9.47861
5125.04
4494.62
3867.59
3244.1
2625.33
2011.03
1402.46
799.526
299.871
42.0282
-5.64056
-7.6019
-8.18496
-8.81503
-9.4793
5104.55
4469.82
3838.54
3210.95
2588.23
1970.24
1359.08
755.37
272.492
37.8902
-5.46167
-7.66208
-8.24272
-8.8364
-9.48449
5088.44
4449.2
3813.38
3181.2
2553.82
1931.03
1315.35
707.326
239.758
29.5473
-5.56872
-7.67796
-8.28795
-8.86777
-9.49261
5076.8
4433.01
3792.52
3155.53
2523.14
1894.98
1273.86
659.763
206.199
20.711
-5.99867
-7.68432
-8.31182
-8.89142
-9.5013
5069.61
4421.31
3776.15
3134.32
2496.8
1863.07
1236.13
615.018
174.734
13.05
-6.37497
-7.63613
-8.29551
-8.89685
-9.50671
5066.75
4414.07
3764.34
3117.71
2475.12
1835.86
1203.09
574.632
146.804
7.0343
-6.59026
-7.58077
-8.25928
-8.8985
-9.51483
5068.09
4411.2
3757.02
3105.74
2458.2
1813.59
1175.15
539.506
122.955
2.62994
-6.69112
-7.53623
-8.21852
-8.87848
-9.50602
5073.45
4412.52
3754.09
3098.32
2446.02
1796.27
1152.44
510.001
103.199
-0.406166
-6.74005
-7.50274
-8.18498
-8.85537
-9.49913
5082.61
4417.87
3755.38
3095.31
2438.45
1783.82
1134.86
486.137
87.2497
-2.39307
-6.76468
-7.47917
-8.16204
-8.83564
-9.49182
5095.32
4427.04
3760.72
3096.56
2435.34
1776.07
1122.25
467.749
74.7429
-3.64625
-6.77488
-7.46553
-8.14675
-8.82182
-9.48545
5111.29
4439.78
3769.91
3101.88
2436.53
1772.84
1114.39
454.58
65.3214
-4.4067
-6.77884
-7.45841
-8.13693
-8.81248
-9.48081
5130.2
4455.81
3782.71
3111.09
2441.83
1773.94
1111.07
446.345
58.6743
-4.85361
-6.77913
-7.45417
-8.13153
-8.80656
-9.47764
5151.65
4474.8
3798.84
3123.95
2451.06
1779.19
1112.07
442.784
54.5501
-5.10712
-6.77797
-7.45129
-8.12824
-8.80317
-9.47563
5175.19
4496.37
3818
3140.22
2464.01
1788.44
1117.24
443.639
52.7622
-5.23918
-6.77665
-7.44938
-8.12588
-8.80112
-9.47444
5200.32
4520.07
3839.81
3159.61
2480.47
1801.5
1126.42
448.776
53.1476
-5.28959
-6.77573
-7.44815
-8.12412
-8.79967
-9.47373
5226.47
4545.41
3863.85
3181.76
2500.16
1818.17
1139.47
458.062
55.6514
-5.27511
-6.77548
-7.44731
-8.12298
-8.79862
-9.47324
5253.03
4571.82
3889.62
3206.27
2522.76
1838.24
1156.23
471.393
60.2324
-5.19499
-6.77457
-7.44687
-8.12224
-8.79793
-9.4729
5279.38
4598.7
3916.56
3232.66
2547.89
1861.42
1176.51
488.662
66.8874
-5.03609
-6.77336
-7.44619
-8.12183
-8.79747
-9.47269
5304.85
4625.4
3944.07
3260.37
2575.1
1887.35
1200.11
509.733
75.6475
-4.767
-6.77266
-7.44542
-8.12135
-8.79719
-9.47255
5328.82
4651.26
3971.49
3288.8
2603.84
1915.61
1226.72
534.419
86.5648
-4.33737
-6.77197
-7.44491
-8.12086
-8.7969
-9.47245
5350.68
4675.62
3998.14
3317.28
2633.51
1945.69
1255.97
562.459
99.6987
-3.6736
-6.77081
-7.44461
-8.12061
-8.79664
-9.47236
5369.94
4697.88
4023.33
3345.11
2663.43
1976.97
1287.38
593.492
115.1
-2.68113
-6.7683
-7.44472
-8.12061
-8.79651
-9.47227
4717.5
5396.78
4046.41
3371.53
2692.86
2008.77
1320.35
627.037
132.794
-1.2495
-6.76303
-7.44536
-8.12099
-8.79651
-9.4722
4066.81
4744.87
5415.75
3395.85
2720.99
2040.3
1354.23
662.478
152.729
0.749541
-6.75348
-7.44674
-8.12175
-8.79673
-9.47219
3417.41
4095.44
4764.32
5413.7
2747.04
2070.68
1388.19
699.117
174.75
3.44897
-6.73774
-7.44964
-8.12301
-8.79722
-9.47227
2770.26
3447.78
4116.42
4762.44
5393.92
2099.01
1421.25
736.184
198.582
6.95911
-6.70928
-7.45506
-8.12535
-8.79807
-9.47243
2124.38
2803.14
3469.96
4114.27
4742.44
5365.93
1452.4
772.8
223.807
11.3652
-6.665
-7.46586
-8.12968
-8.79962
-9.47274
1480.49
2160.32
2828.03
3468.76
4093.76
4712.78
5313.71
807.824
249.794
16.7124
-6.59281
-7.48187
-8.1373
-8.80237
-9.4733
839.593
1520.25
2187.84
2826.97
3447.65
4061.96
4659.74
5279.59
275.616
22.9542
-6.46597
-7.50228
-8.14772
-8.80693
-9.47426
300.002
883.518
1551.7
2187.75
2804.45
3413.31
4009.75
4627.32
5203.5
29.9269
-6.25326
-7.52836
-8.16188
-8.81337
-9.47582
37.3744
335.323
918.421
1553.41
2163.79
2767.05
3362.86
3974.8
4525.1
5096.1
-5.94153
-7.56112
-8.182
-8.82215
-9.47804
-5.535
48.7973
365.442
921.814
1527.17
2123.37
2717.99
3322.89
3876.84
4425.5
4995.34
-7.60001
-8.20732
-8.8342
-9.48105
-7.64501
-4.81105
59.2757
367.011
892.992
1482.48
2073.79
2673.57
3245.55
3805.21
4290.31
5019.93
-8.23699
-8.84907
-9.48509
-8.26905
-7.69628
-4.1812
58.5453
341.395
844.486
1429.35
2026.6
2616.57
3193.55
3662.39
4328.23
4915.56
5617.81
-8.86617
-9.48993
-8.8837
-8.31124
-7.72623
-4.54329
46.3854
300.531
788.427
1379.73
1981.04
2581.78
3118.32
3738.6
4316.29
4820.21
5520.09
6210.55
-9.49553
-9.50095
-8.90794
-8.36259
-7.72865
-5.49544
30.1363
259.523
736.94
1337.91
1960.11
2563.92
3188.77
3741.47
4254.35
4647.17
5398.16
6138.17
6851.01
-9.50861
-8.9145
-8.34198
-7.68255
-6.17902
17.4134
224.223
696.545
1322.86
1965.87
2600.21
3168.2
3697.73
4115.44
4394.33
5200.28
6011.57
6791.95
7536.62
-9.51605
-8.92523
-8.30799
-7.61399
-6.48115
9.40338
198.824
680.507
1327.5
1977.79
2572.95
3129.71
3580.76
3913.66
3977.91
4876.1
5799.98
6668.51
7484.74
8263.33
-9.51758
-8.90883
-8.25615
-7.54905
-6.61692
4.61612
186.607
673.734
1337.43
1942.25
2529.33
3021.24
3411.07
3623.1
3423.79
4354.78
5441.63
6462.83
7373.47
8215.71
9021.02
-9.51844
-8.88295
-8.20777
-7.5078
-6.69081
1.99732
179.11
683.977
1292.88
1897.74
2434.07
2877.85
3197.59
3206.62
2272.08
3668.08
2275.52
2275.32
2278.77
4880.88
6119.81
7187.68
8120.62
8981.47
9805.59
-9.51561
-8.8574
-8.1763
-7.48489
-6.72119
0.10379
180.314
638.321
1253.23
1816.97
2310.34
2703.68
2923.83
2753.1
2322.98
1989.24
4172.55
2328.38
2438.4
2440.65
1991.11
1998.2
1998.91
5608.82
6900.08
7965.01
8898.46
9770.11
10609.3
-9.50988
-8.83992
-8.15817
-7.46714
-6.73793
-1.10791
158.409
608.484
1179.41
1706.14
2157.58
2503.77
2588.63
1844.96
1842.39
1843.88
1845.63
1998.53
1663.67
5012.57
3372.69
2001.6
2088.07
2089.43
1659.25
1772.6
1766.72
6482.28
7736.22
8767.86
9696.64
10576.2
11420.4
-9.50446
-8.82962
-8.14572
-7.45759
-6.75337
-2.25085
142.968
542.13
1079.42
1572.06
1972.31
2273.14
1796.07
1797.64
1743.38
1744.57
1655.06
1651.13
1688.86
1683.59
1646.57
1351.68
1188.57
1275.73
1271.85
6078.95
4496.3
2520.32
2515.65
2002.4
2017.11
1644.26
1771.78
1776.43
1351.5
1189.15
1275.6
1278.34
1427.52
1317.87
1493.77
1298.89
1425.53
1314.66
1489.32
1297.18
7440.57
8587.78
9581.09
10508.7
11390.3
12236.3
-9.50125
-8.8228
-8.13866
-7.46472
-6.75704
-3.468
114.265
459.145
963.554
1406.21
1780.22
1639.74
1639.58
1514.34
1512.51
1665.31
1659.22
1630.63
1621.7
1320.99
1318.77
1332.82
1292.24
1356.78
1343.66
1306.75
1323.4
1332.99
1288.39
1353.8
1339.95
1342.92
1417.48
1327.56
1397.03
1338.26
1415.31
1322.97
1394.15
1345.19
1184.13
1275.18
1282.24
1245.79
1183.27
1190.77
1238.83
7206.17
5820.07
3587.37
3570.05
3056.99
3036.78
2432.16
2432.89
1917.38
1927.06
1348.29
1181.89
1275.95
1285.84
1443.1
1409.64
1570.04
1309.28
1446.43
1421.39
1574.71
1317.43
1247.7
1195.13
1194.57
1247.34
1303.2
1257.62
1300.63
1247.04
8374.82
9430.43
10404
11328
12206.7
13051
-9.49986
-8.81896
-8.13707
-7.46987
-6.75457
-4.56846
79.9832
375.923
820.956
1223.21
1315.85
1313.7
1145.43
1145.12
1536.28
1528.04
1415.36
1404.05
1325.73
1397.06
1277.27
1352.88
1322.77
1395.34
1280.43
1352.01
1284.43
1370.18
1286.4
1362.14
1283.91
1369.29
1288.83
1361.6
1311.44
1299.8
1276.18
1310.51
1301.36
1285.83
1304.91
1303.45
1309.56
1280.38
1299.45
1284.02
1337.07
1327.56
1333.96
1318.78
1336.67
1327.18
1331.29
1316.99
1305.7
1161.62
1228.74
1240.93
1269.06
1188.68
1228.47
1213.8
8252.19
7142.49
4622.69
4604.1
4113.02
4094.69
3600.14
3579.38
3013.05
2996.53
2076.63
2338.75
1875.89
2076.82
2084.87
2338.39
1891.42
2081.19
1515.68
1346.94
1530.16
1731.05
1898.57
1476.19
1540.28
1361.73
1539.5
1756.56
1913.13
1481.37
1309.96
1167.6
1232.43
1246.28
1401.82
1293.35
1404.29
1300.02
1269.18
1201.07
1231.37
1214.79
1291.73
1242.89
1291.4
1237.51
9266.56
10267.2
11231.9
12146.3
13023.2
13854.8
-9.49988
-8.81834
-8.13542
-7.46125
-6.75302
-5.21337
45.9363
284.738
657.179
931.036
932.138
705.28
706.054
1239.17
1232.82
1043.61
1041.48
1225.93
1324.85
1142.24
1249.27
1224.93
1323.72
1141.12
1248.41
1055.06
1202.85
1081.04
1197.65
1053.49
1200.24
1079.27
1196.53
1326.73
1305.72
1308.21
1259.71
1324.46
1305.51
1309.57
1261.99
1272.44
1227.73
1289.65
1230.54
1274.55
1229.58
1291.7
1233.23
1357.4
1181.66
1270.17
1250.89
9199.54
8235.59
5590.65
5578.91
5132.61
5116.91
4631.57
4610.39
4144.56
4121.66
2995.29
3300.09
2732
3046.4
3006.77
3300.31
2739.53
3046.32
2277.2
2568.54
2492.3
2802.08
2280.11
2567.11
2499.68
2801.57
2129.4
2299.63
1930.2
2077.93
2135
2300.56
1941.61
2086.22
1383.82
1545.38
1635.7
1472.41
1737.37
1861.86
1396.16
1562.69
1638.53
1480.1
1751.62
1872.86
1360.13
1190.56
1273.44
1254.83
1425.06
1310.58
1428.41
1317
10120.9
11105.7
12053.3
12964.5
13829.2
14638.3
-9.49984
-8.81765
-8.12744
-7.43837
-6.72376
-5.49444
18.6124
202.949
464.184
831.781
832.207
605.269
606.193
1122.74
1118.77
953.944
950.349
1217.49
1189.7
1152.18
1140.08
1217.01
1191.07
1150.92
1141.32
1044.65
1080.82
1080.72
1103.48
1045.09
1080.77
1080.4
1104.51
1216.55
1199.36
1222.54
1202.37
10047.8
9188.74
6504.42
6519.97
6060.69
6049.84
5593.73
5570.8
5126.43
5102.39
3867.85
4424.38
3714.93
4172.15
3869.07
4422.65
3720.39
4165.99
3257.26
3579.15
3489.5
3863.01
3267.17
3576.54
3504.02
3859.41
3053.29
3166.12
2802.75
2934.36
3056.68
3165.33
2797.43
2931.59
2345.22
2511.77
2562.83
2715.03
2343.75
2510.04
2560.85
2713.46
10967.5
11932.4
12870.9
13774.2
14617.5
15384.9
-9.49938
-8.81278
-8.11544
-7.39918
-6.72712
-5.57767
3.41838
122.306
326.04
325.524
171.363
171.794
750.947
748.492
526.196
525.73
880.465
943.09
937.955
838.085
879.061
941.709
938.334
835.966
822.56
683.025
754.843
757.629
820.793
683.345
754.196
755.061
1173.91
1160.56
1123.02
1127.5
1177.29
1163.61
1125.15
1130.24
1023.64
1010.36
1040.63
1072.77
1027.84
1011.58
1042.81
1074.38
10867.9
10036.7
9237.89
6457.7
6456.17
6043.56
6021.83
5520.44
5490.74
5103.84
5091.89
3902.71
4333.47
3767.13
4048.64
3898.56
4329.51
3772.06
4046.55
3314.01
3449.75
3559.62
3747.39
3321.31
3446.58
3565.98
3742.92
3144.15
3169.45
3155.32
3168.04
11800.5
12744.7
13682.6
14570.8
15369.2
16088
-9.49753
-8.80392
-8.09576
-7.339
-6.74672
-5.63716
-2.70564
40.9542
231.177
230.237
99.1694
99.1365
595.998
669.529
596.299
500.86
599.357
669.077
594.126
503.519
436.891
434.747
796.344
911.579
877.255
817.974
795.472
912.035
876.79
815.87
735.813
662.937
669.203
749.954
734.424
658.821
668.711
745.254
977.437
957.98
981.394
958.7
11705.4
10862.9
10114
7376.49
7372.28
6925.83
6908.81
6440.33
6412.85
5912.18
5867.28
4930.64
4686.54
5140.71
4497.98
4926.81
4692.85
5134.91
4497.48
4713.41
4095.54
4498.73
4283.27
4711.82
4099.77
4501.61
4282.08
3968.61
4210.91
3801.37
3966.65
3980.57
4216.16
3804
3969.26
3348.87
3411.66
3586.67
3691.44
3357.53
3408.68
3589.64
3687.98
12602.2
13550
14486.2
15334.6
16075.1
-9.49451
-8.78898
-8.07975
-7.2759
-6.7235
-5.687
-5.50969
7.3054
7.33053
-0.350565
-0.355026
175.023
196.393
102.471
121.009
175.882
196.575
103.226
120.797
51.0151
51.2006
563.537
583.587
497.469
461.45
563.39
583.667
497.327
462.989
257.416
280.22
345.496
361.924
258.994
280.464
345.288
361.595
709.161
617.624
635.917
698.048
708.562
616.963
635.462
696.394
12497.3
11704.1
10979.4
10306
7293.81
7267.32
6742.61
6711.71
6330.71
6289.41
4908.6
5479.51
5472.68
4937.69
4911.16
5470.09
5459.06
4925.01
4757.29
4729.33
5006.76
4495.76
4759.47
4729.12
5005.51
4500.21
4550.55
4135.17
4360.46
4300.6
4551.4
4142.89
4361.04
4299.8
3998.92
4174.81
4019.37
4179.43
13389.1
14346.3
15273.7
16047.1
-9.48833
-8.77042
-8.07055
-7.23545
-6.63596
-6.01706
-2.79877
-2.81295
-3.55547
-3.57232
1.1838
1.16374
-1.9737
-1.99746
139.38
138.125
75.5665
75.3596
139.709
138.581
75.8164
75.5192
14.4712
10.8282
8.29318
19.426
14.564
10.8483
8.33845
19.4808
514.478
535.447
441.2
430.733
514.453
535.662
441.04
430.804
221.071
221.914
303.563
300.914
221.692
222.791
303.226
301.308
13255
12501.1
11815.7
11140.5
8027.28
7998.13
7562.75
7541.16
6947.11
6941.05
5581.13
6124.04
5544.04
6163.71
5569.92
6106.38
5560.37
6166.49
5383.44
5862.51
5226.55
5675.89
5039.98
5586.83
5393.1
5855.84
5228.31
5671.35
5032.11
5583.89
4944.64
5344.73
4935.41
5339.21
4637.79
4652.48
4792.67
4513.12
4637.73
4657.31
4792.78
4510.6
14163
15173.5
15997.1
-9.48244
-8.73889
-8.0545
-7.2336
-6.56548
-5.80714
-2.47117
-2.48904
-3.01798
-3.04447
0.132754
2.91876
0.391061
-0.505742
-0.582748
2.08802
2.91957
0.123866
2.085
0.382965
-0.540531
-0.598368
-1.22259
-1.47881
-0.877653
-1.0602
-1.25757
-1.49177
-0.915608
-1.07395
102.009
94.5372
50.4643
44.8358
102.374
94.9911
50.655
45.1345
5.83022
8.50638
5.84721
8.51832
395.093
385.045
394.672
385.207
175.057
179.017
175.817
179.791
13992.9
13252.1
12596.9
11941.4
8780.83
8763.75
8400.78
8361.33
7832.64
7815.82
7316.57
7308.28
6528.2
5833.54
6541.66
5859.67
6281.79
5661.54
6538.79
5884.42
6533.26
5878.57
6279.26
5662.36
5617.55
6087.2
5620.03
6090.51
5474.94
5791.98
5316.67
5046.27
5570.83
5347.52
5474.22
5793.79
5297.04
5043.02
5565.86
5344.29
4840.95
5049.06
4829.34
5045.76
14994.3
15909.5
-9.4792
-8.70922
-8.03089
-7.23467
-6.32674
-3.44868
-3.45152
-4.25405
-4.24548
-2.25674
-2.26087
-2.60837
-2.63546
2.03259
-0.32029
-0.405329
1.69508
-0.53622
-0.625467
2.03743
-0.328958
1.68409
-0.408766
-0.554565
-0.633575
-1.11501
-1.22971
-0.753736
-0.858995
-1.15092
-1.25238
-0.77668
-0.869614
29.2386
19.4381
29.3169
19.5555
14775.9
13948
13336.2
12722.4
12078.9
8694.65
8643.62
8371.67
8329.69
6446.02
7116.34
6473.65
7108.66
6475.83
7099.65
6459.7
7069.5
5975.93
5897.67
6547.11
6207.92
6789.64
6559.36
6031.31
5940.61
6566.9
6238.23
6783.65
6583.07
6348.43
6069.79
5873.66
5710.3
6362.25
6076.16
5870.63
5702.67
5551.62
5824.86
5558.82
5838.65
5422.83
5629.65
5113.51
5324.85
5455.95
5638.08
5091.76
5320.7
15742
-9.47823
-8.68783
-7.97869
-7.18817
-6.31847
-3.51094
-3.42389
-4.20954
-4.18081
-1.94512
-1.35995
-1.48891
-1.77678
-1.95736
-1.41815
-1.51653
-1.81105
-2.58146
-2.53162
-1.03796
-1.09504
-0.782945
-0.865561
-1.0827
-1.1213
-0.796678
-0.872088
15537.5
14678.4
14022.5
13471.8
12883.5
9501.49
9509.46
9067.51
9065.38
8698.66
8706.48
8022.4
8037.94
6608.56
7274.74
6692.88
7257.69
6633.96
7288.75
6663.07
7254.91
5939.5
6138.47
6311.38
6580.31
6461.16
6922.75
6007.96
6178.65
6599.39
6344.7
6460.81
6926.3
6052.82
5714.87
6056.15
5682.9
-9.47343
-8.68136
-7.93289
-7.11014
-4.67068
-4.68043
-5.02066
-5.0443
-3.61845
-3.48409
-4.20912
-4.16107
-1.73924
-1.19099
-1.31136
-1.58386
-1.74366
-1.25415
-1.34429
-1.60059
-2.37973
-2.56484
-1.81085
-1.9779
-2.24998
-2.49606
-1.80432
-1.95619
-0.920466
-0.98943
-0.983117
-1.02456
15442.9
14738.1
14173.1
13637.6
12953.5
9248.96
9335.97
9043.32
9029.77
8445.2
8434.11
7531.48
6861.56
7589.89
6804.15
7512.68
6883.38
7576.81
6812.8
6665.91
7079.97
6608.17
6956.5
6717.55
7104.9
6628.39
6970.16
-9.45769
-8.67765
-7.91058
-7.07149
-4.90862
-4.93054
-4.98276
-5.01033
-2.43792
-2.58555
-3.81134
-3.1054
-3.27201
-3.52579
-2.21279
-2.48736
-3.72052
-2.89914
-3.15148
-3.37019
-4.64882
-4.61367
-1.55327
-1.18969
-1.28284
-1.45337
-1.56748
-1.24958
-1.3194
-1.48332
-1.80148
-1.99062
-1.7569
-1.95656
15484.4
14886.8
14326.8
13808.4
10163.6
10145.7
9715.15
9715.08
9323.53
9316.33
9013.18
8915.29
7199.6
8002.54
7170.29
7933.55
6920.73
7676.45
7207.96
7971.1
7148.66
7920.59
6883.44
7659.65
6851.14
7418.63
6838.37
7429.02
6603.94
7026.53
6623.78
7036.54
-9.44042
-8.66702
-7.87357
-4.99931
-5.00083
-5.50814
-5.51249
-4.68455
-4.74479
-4.72723
-4.75129
-2.67223
-2.77282
-3.68002
-3.09912
-3.28773
-3.35305
-2.45894
-2.66869
-3.6029
-2.90554
-3.18175
-3.23531
-3.73779
-4.13143
-3.61181
-3.78938
-3.79947
-4.15434
-3.58309
-3.77635
15597.6
15051.2
14521.7
13889.4
10168.4
10125.1
9781.68
9752.12
9240.91
9174.87
7272.08
8144.21
8251.98
7405.19
8154.18
7495.23
8209.4
7358.21
8114.5
7438.16
7294.32
8152.68
7185.21
6978.88
7828.59
7436.92
7145.08
6953.66
7830.2
7436.82
6815.86
7197.8
6845.03
7207.76
-9.43445
-8.65285
-7.84824
-4.94688
-4.93958
-5.42111
-5.40807
-3.4974
-3.79911
-3.92677
-3.51116
-3.67989
-3.53473
-3.57339
-3.83531
-3.96315
-3.59723
-3.71391
-3.62321
-4.62832
-4.63649
-3.61259
-3.49452
-3.57412
-3.41387
-3.48
-3.61589
-3.52822
-3.63127
15764.6
15243.4
14747.3
10938.2
10932.3
10512.7
10498.9
10260.3
10229.7
9620.45
9579.52
7756.13
8511.69
7699.99
8354.97
7620.11
8471.5
7754.05
7583.08
8447.99
8486.5
7717.77
8350.1
7322.08
7847.26
7572.03
8271.34
7563.12
7341.67
8286.29
7856.49
-9.42884
-8.65421
-7.8843
-5.00527
-4.96992
-5.41954
-5.39872
-3.43866
-3.53173
-3.80396
-3.31849
-3.5011
-3.46844
-3.53168
-3.57008
-3.83335
-3.39979
-3.52899
-3.52987
-3.93687
-4.28492
-3.60369
-3.89451
-3.88802
-4.27051
-3.69428
-3.91309
-3.407
-3.54385
-3.48265
-3.56162
15974.5
15487.8
14953.5
10976.3
10945.1
10583.1
10555.4
9907.42
9903.32
7895.63
8709.87
8684.46
8038.2
8591.41
8009.47
7895.69
8688.44
8659.91
8035.96
8579.11
7994.65
7843.57
7649.81
8583.84
8120.35
7662.24
8136.25
7850.44
8587.17
-9.43931
-8.68477
-5.84817
-5.38221
-5.36362
-5.8478
-6.25948
-6.27075
-4.99896
-3.87922
-4.18773
-4.97846
-3.81371
-4.17134
-3.31912
-3.43027
-3.5762
-3.32663
-3.47372
-3.43169
-3.42521
-3.46511
-3.6126
-3.4115
-3.50738
-3.51195
-3.57906
-3.83247
-3.60035
-3.82487
16221.4
15752.2
15232.7
11070.6
11047
10427.5
10450.9
8267.75
8979.32
8316.84
8932.06
8135.86
8808.53
8308.48
8140.94
8786.07
8978.76
8320.14
8945.26
7993.14
8431.23
8173.64
8802.75
8016.3
8440.23
8162.99
8783.15
7832.04
8339.71
7843.95
8347.47
-9.45427
-8.76034
-5.50973
-5.86376
-5.48754
-5.86626
-6.28524
-6.29777
-4.05432
-3.8871
-4.12555
-3.934
-4.17064
-4.36969
-4.36615
-4.73226
-3.82087
-4.09246
-4.10544
-3.88595
-4.15494
-4.37209
-4.34896
-4.7177
-3.59811
-3.4731
-3.59473
-3.49326
-3.69108
-3.87965
-3.66507
-3.86013
16477.6
15975.5
11848.4
11013.3
10990.6
11832.5
11347.2
11345.3
10183.6
8448.95
9186.46
10181.3
8488.53
9197.88
8351.71
8617.31
8710.99
9250.77
8333.36
8697.46
8601.25
9246.78
8017.19
8433.25
8145.19
8522.63
8039.59
8430.56
8143.22
8501.8
-9.56302
-8.86093
-5.52389
-4.657
-4.29938
-5.99862
-5.52566
-4.65731
-4.31043
-5.99381
-6.36187
-6.35925
-3.98763
-4.01678
-3.67284
-3.9018
-4.14762
-4.33564
-3.97206
-3.63154
-4.02925
-3.8955
-4.1387
-4.33982
-3.70298
-3.56897
-3.67639
-3.54711
16689.4
16113
11881.6
10721.7
10753.5
11846.4
11407.6
11386.7
8555.94
8326.39
8991.41
8433.38
9069.4
9195.11
8529.26
9262.31
8572.05
8406.35
9013.98
8477.78
9083.3
9173.57
8586.13
9281.1
8544.26
8529.97
8871.85
9147.03
8454.23
8847.14
8532.85
9140.6
-9.47332
-6.71344
-6.36868
-6.35686
-6.70755
-6.88415
-6.89084
-4.79922
-4.72493
-4.27568
-4.62507
-4.42267
-5.18494
-4.57349
-4.83988
-6.09036
-4.77097
-5.1347
-4.807
-4.71662
-4.31064
-4.63453
-4.41076
-5.18524
-4.60385
-4.84744
-6.08551
-4.78047
-5.14057
-3.96648
-4.1544
-4.1954
-4.41362
-3.96716
-4.14748
-4.19298
-4.41197
16882.1
16280.6
11895.3
10654.8
9416.7
8679.94
10680.3
9389.84
8684.84
11850
11197.3
11217.8
8519
8779.36
8389.98
8927.9
9021.22
9468.9
8555.26
8727.69
8441.39
9048.46
8936.75
9453.8
8504.98
8917.48
8476.35
8909.64
-9.84885
-6.47001
-6.69738
-6.45257
-6.69376
-6.84055
-6.84814
-4.13772
-4.47038
-4.65204
-4.4124
-4.55303
-4.82622
-5.12167
-4.86879
-5.17756
-4.7916
-5.14446
-5.36397
-5.26837
-5.68774
-4.15034
-4.48796
-4.41771
-4.65938
-4.5873
-4.8389
-4.89061
-5.13672
-5.18752
-4.81747
-5.15567
-5.36965
-5.26855
-5.68572
17098.3
12397.8
11833
11800.5
12428.8
12040.3
12049.1
8869.87
9350.45
8789.92
9494.06
8708.28
9669.25
8939.97
9645.24
8921.96
9359.99
8821.7
9499.55
8724.8
9658.67
8964.8
9653.99
10910.3
9038.24
9816.81
10901.9
9089.96
9827.24
8640.48
8783.85
9110.19
9392.41
8637.7
8709.57
9137.98
9374.36
-9.80559
-6.57538
-5.6558
-5.33706
-6.74406
-6.55294
-5.65203
-5.33022
-6.73951
-6.95497
-6.96245
-4.48171
-4.68772
-4.6342
-4.87137
-4.99492
-5.22398
-4.76328
-4.98279
-5.12626
-5.34476
-4.50255
-4.69526
-4.66449
-4.88544
-5.02436
-4.7903
-5.22753
-4.99346
-5.13718
-5.34656
16956.4
12369.3
11728.1
11709.1
12404.9
12050.8
12043.2
8759.45
8939.11
9282.67
9404.41
9168.2
9794.74
8768.13
8986.67
9292.01
9423.38
9146.48
9776.68
9084.1
9076.11
9711.58
8999.84
9650.44
9632.75
9270.24
10024
9071.96
9044.39
9706.73
9024.22
9670.7
9626.77
9304.47
10025.4
-13.254
-7.22577
-7.23323
-6.63654
-5.67801
-5.4181
-5.73334
-5.36811
-6.81521
-6.62041
-5.67375
-5.41291
-5.72951
-5.36249
-6.80942
-4.89383
-5.08588
-5.257
-5.03547
-5.16328
-5.37357
-4.92154
-5.10746
-5.25868
-5.04567
-5.1711
-5.37475
17086.9
12411.8
11714
9846.59
9251.91
11695.2
9858.27
9254.53
12437.8
12124.4
12101.5
8987.98
9428.33
9108.8
9655.85
8985.25
9425.7
9074.68
9635.51
9209.82
9322.99
9058.42
9588.88
9531.51
9771.6
9216.84
9217.73
8980.89
9529.8
9576.11
9678.34
-12.9467
-8.34005
-9.22803
-8.34417
-9.23349
-6.70493
-5.86795
-5.45168
-5.78003
-5.5601
-5.31687
-5.44255
-7.01701
-6.69035
-5.8673
-5.45454
-5.77809
-5.56277
-5.32337
-5.44508
-7.0035
-5.14406
-5.21694
-5.16582
-5.22385
17143.5
12396.7
12417.2
11776.9
9716.12
9277.65
9655.96
9308.58
11748.9
9728.41
9297.49
9668.27
9315.24
12052.8
12025.3
9363.08
9082.16
9404.75
9703.86
9387.16
9778.57
9310.4
9031.89
9323.37
9380.87
9611.03
9712.01
-10.1845
-8.35517
-7.61554
-8.35811
-7.62242
-6.77699
-6.77184
-6.61276
-5.79918
-5.38252
-5.68571
-5.55245
-5.69531
-5.40482
-5.54894
-5.53697
-5.21784
-5.30111
-6.59939
-5.79828
-5.39141
-5.68608
-5.55566
-5.70061
-5.41752
-5.55289
-5.55323
-5.23742
-5.30737
17147.4
12405.2
12428.8
12414.9
12435.3
11635.2
9591.21
9293.41
9656
9262.32
9413.38
9773.25
11594.1
9587.41
9294.68
9656.68
9262.97
9376.64
9745.44
12110.3
12086.4
9366.55
9775.54
9373.89
9732.57
-9.8622
-6.95963
-6.95705
-6.96728
-6.9681
-6.63566
-6.73139
-6.62731
-6.72341
-6.51919
-6.51073
-5.47397
-5.19326
-5.5981
-5.05343
-5.62527
-5.32102
-5.59863
-5.41259
-5.83322
-5.36242
-5.47342
-5.61784
-5.47191
-5.2071
-5.59933
-5.05426
-5.62882
-5.32793
-5.59934
-5.42244
-5.83794
-5.37901
-5.4786
-5.63254
17079.6
12428.9
12418.7
12434.1
12421.9
12157.9
12125.5
11527.3
9560.71
9135.11
9643.61
9196.83
9640.47
9393.97
9737.97
9355.83
9405.52
9813.56
11493.7
9551.11
9167.16
9625.06
9203.2
9614.66
9362.94
9716.49
9321.03
9437.63
9774.03
-9.57833
-6.88702
-6.80337
-6.89794
-6.81631
-6.65389
-6.5671
-6.64847
-6.55989
-6.36006
-6.61049
-6.34867
-6.5974
-5.22117
-4.61798
-5.13146
-4.73853
-5.2178
-4.62919
-5.13166
-4.74114
-5.20464
-5.09796
-5.39572
-4.8201
-5.20771
-5.10966
-5.3997
-4.82752
16945
12398.5
12399.2
12412.8
12431.2
12164.1
12136.7
12133.3
12106.6
11507.9
11450
10011.1
9165.66
9780.88
9372.96
9622.13
9270.85
9828.49
9283.88
9776.78
9445.68
9854.93
9397.01
10002.2
9167.98
9775.63
9343.25
9562.42
9121.15
9517.33
9230.62
9741.05
9445.65
9818.93
9380.57
-8.84122
-9.58611
-6.47002
-6.48542
-6.46838
-6.47965
-6.4871
-6.35876
-6.47298
-6.33441
-5.20878
-4.61234
-5.01166
-4.86115
-5.46726
-5.15827
-5.42896
-5.08018
-5.20853
-4.62372
-5.01428
-4.86128
-5.4673
-5.17198
-5.43212
-5.08527
-4.80468
-4.12743
-4.43154
-4.37317
-4.80315
-4.14313
-4.44058
-4.38121
17106.7
12355.2
12385.2
12392.2
12418.3
12050.8
12110.7
12021.7
12095.6
11506.9
11511.1
11454.1
11475.9
10088.6
9469.82
10148
9425.62
10069.7
9434.8
10128.8
9388.44
10072.1
9265.48
9835.61
9492.37
10014.6
9153.69
9700.96
9378.8
-8.73044
-6.21005
-6.28397
-6.19684
-6.27364
-9.49004
-6.25985
-6.22885
-6.23275
-6.20152
-5.59641
-5.33858
-5.59492
-5.31526
-5.57023
-5.21185
-5.5114
-5.27274
-5.59477
-5.34353
-5.59523
-5.31762
-5.56744
-5.208
-5.50824
-5.27043
-4.96309
-4.16805
-4.35917
-4.63329
-5.39928
-5.14173
-5.38458
-5.04874
-4.96841
-4.17658
-4.37978
-4.63879
-5.40163
-5.15615
-5.38988
-5.05914
16883.9
16261.8
12014.7
12016.5
12020.8
12029.8
11589.5
11762.6
11555.9
11739.1
10124.7
9477.34
10156
9451.48
10093.8
9293.99
9957.49
9438.32
10103.8
9443.58
10136.5
9411.56
10074.9
9278.69
9946
9395.22
10154.7
9535.14
10191.8
9518.16
10122.8
9502.79
10172.2
9455.52
-8.72018
-6.2843
-6.2991
-6.28094
-6.30434
-5.92555
-5.94187
-5.912
-5.92587
-9.45799
-5.44005
-5.16475
-5.4561
-5.12925
-5.45218
-5.09194
-5.49221
-5.09409
-5.43089
-5.15355
-5.44987
-5.11419
-5.44001
-5.08402
-5.48355
-5.0678
-5.47181
-5.33806
-5.58561
-5.31576
-5.35923
-5.1197
-5.27416
-5.21831
-5.47375
-5.34653
-5.5885
-5.32197
-5.36348
-5.13566
-5.27883
-5.23319
16670.1
16109.7
11828.3
11887.5
11798
11848.2
11687.1
11702.9
11662.4
11684.9
9569.42
9217.46
9801.82
9156.43
9586.19
9291.68
9642.5
9224.05
9568.96
9216.94
9800.47
9156.72
9582.56
9300.24
9645.72
9222.87
10180
9543.65
10206.9
9530.01
10172.5
9360.94
9954.1
9547.97
10157.3
9518.67
10188.9
9486.2
10137.5
9342.18
9936.62
9490.22
-7.9798
-8.68392
-5.82401
-5.82982
-5.81805
-5.82649
-4.68285
-4.80892
-5.01279
-4.80387
-5.10714
-5.11788
-4.7513
-5.16657
-4.72437
-5.0639
-4.68816
-4.82842
-5.01515
-4.83197
-5.11621
-5.1214
-4.75283
-5.16543
-4.73488
-5.06961
-9.44004
-5.15491
-5.05544
-5.19635
-5.01462
-5.1447
-4.95319
-5.1532
-5.06189
-5.19815
-5.00952
-5.14273
-4.94891
-5.26913
-5.08322
-5.1824
-5.16131
-5.27534
-5.11031
-5.19048
-5.18312
16458.6
15947.5
11869.5
11844.8
11838.5
11825.3
10855.2
11191.6
10860.9
11208.9
9670.88
9277.61
9634.93
9282.97
9852.35
9259.15
10015
9237.4
9677.05
9285.94
9645.46
9273.32
9865.22
9295.66
10022.4
9249.52
9546.31
9343.5
10000.2
9147.99
9608.22
9279.9
9555.21
9283.51
9535.74
9325.69
9982.17
9129.68
9601.8
9279.7
9556.57
9273.99
-7.89835
-5.491
-5.5244
-5.47806
-5.516
-8.66785
-5.56748
-5.51134
-5.55983
-5.50497
-4.72927
-4.61071
-4.88465
-4.84217
-4.59568
-4.83438
-4.43119
-4.79081
-4.37334
-4.69493
-4.7564
-4.62565
-4.89427
-4.84663
-4.61481
-4.84128
-4.45055
-4.79889
-4.39059
-4.70241
-9.44457
-5.03204
-5.02443
-5.10723
-4.9487
-4.97434
-4.87454
-5.03726
-5.04601
-5.11379
-4.96605
-4.97977
-4.89164
16194.4
15727.2
15190.3
11396.2
11332.5
11364.2
11316.5
9019.19
9090.48
9670.66
8962.74
9629.15
9630.82
8866.88
9643.15
9005.67
9769.99
9133.01
9036.33
9672.27
8996.93
9646.61
9656.07
8917.07
9640.56
9071.36
9788.65
9525.76
9259.85
9556.18
9237.06
9724.06
9264.47
9509.95
9253.89
9554.09
9191.36
9701.91
9216.78
9736.71
9344.54
9679.19
9284.55
9722.37
9339.63
9666.21
9285.78
-7.88214
-5.54791
-5.59655
-5.54211
-5.59824
-5.08562
-5.08343
-5.07377
-5.06781
-8.66598
-4.6692
-4.3186
-4.62272
-4.37792
-4.67383
-4.37224
-4.76235
-4.38307
-4.67419
-4.33444
-4.629
-4.39032
-4.67755
-4.37569
-4.76116
-4.39145
-4.66127
-4.79854
-4.33148
-4.54723
-4.28098
-4.49161
-4.68776
-4.8077
-4.36709
-4.56233
-4.30911
-4.50264
-9.44529
15951.3
15457.7
14936.6
11008.2
11036.2
10982.6
11017.9
10718.9
10697.2
10727.6
10726.7
9132.35
9155.79
9689.41
9496.85
9141.44
9706.5
8954
9536.83
9089.52
9751.47
9159.92
9183.98
9495.76
9719.02
9059.53
9671.38
8945.33
9525.12
9054.16
9731.75
9575.81
9308.52
9627.68
9239.39
9489.49
9218.99
9541.78
9330.86
9624.93
9223.87
9436.84
9165.25
-7.11446
-7.91027
-5.05805
-5.05566
-5.04617
-5.0556
-3.99787
-4.11155
-4.19805
-4.00847
-4.2291
-4.43251
-4.00736
-4.3601
-4.0084
-4.26096
-4.01467
-4.12322
-4.20405
-4.01999
-4.23507
-4.43684
-4.00376
-4.35752
-4.00989
-4.26338
-8.68116
-4.43194
-4.14673
-4.44256
-4.16401
-4.37692
-4.08992
-4.43634
-4.16148
-4.44892
-4.17231
-4.38053
-4.09739
-9.45597
15751.6
15224.7
14724.9
10959
10920.4
10925.1
10910.2
10122.6
10432.7
10112.9
10468.7
9456.25
8560.91
9368.99
8725.13
9408.15
8514.56
9251.23
8688.6
9466.67
8594.59
9382.53
8759.2
9374.49
8576.57
9270.23
8650.41
9096.38
9434.77
8727.71
9112.85
8789.59
9216.84
9124.97
9447.77
8771.81
9125.69
8805.86
9218
-7.12719
-4.85425
-4.93539
-4.8539
-4.94501
-7.93642
-4.63233
-4.70535
-4.61858
-4.69621
-4.02814
-3.78975
-4.18912
-4.00071
-3.76587
-3.94295
-3.68133
-3.97477
-3.70338
-3.92379
-4.05626
-3.79155
-4.1988
-4.00192
-3.76665
-3.94652
-3.67906
-3.97466
-3.69159
-3.92285
-8.67071
-4.24198
-4.03722
-4.25055
-4.06141
-9.46902
15590.2
15041.5
14506
13836.8
10565.7
10472.5
10535.5
10463.9
8214.64
8536.55
8864.91
8349
8978.68
9160.63
8274.47
8989.93
8379.89
9080.75
8563.91
8294.61
8895.7
8389.34
8982.3
9145.88
8313.7
8988.71
8409.3
9067.75
9419.57
8691
9235.76
8837.73
9527.13
8782.63
9426.42
8708.73
9245.47
8806.91
9500.33
8718.45
-6.21728
-7.19757
-4.53632
-4.49994
-4.5274
-4.50383
-7.97047
-3.99543