/*--------------------------------*- C++ -*----------------------------------*\
| =========                 |                                                 |
| \\      /  F ield         | OpenFOAM: The Open Source CFD Toolbox           |
|  \\    /   O peration     | Version:  5.x                                   |
|   \\  /    A nd           | Web:      www.OpenFOAM.org                      |
|    \\/     M anipulation  |                                                 |
\*---------------------------------------------------------------------------*/
FoamFile
{
    version     2.0;
    format      ascii;
    class       volScalarField;
    location    "1.1";
    object      p_rgh;
}
// * * * * * * * * * * * * * * * * * * * * * * * * * * * * * * * * * * * * * //

dimensions      [1 -1 -2 0 0 0 0];

internalField   nonuniform List<scalar> 
12160
(
5674.94
5677
5674.9
5679.39
5676.88
5675.02
5682.85
5679.14
5677.18
5674.73
5688.64
5682.38
5678.97
5676.99
5675.04
5696.16
5688.07
5681.79
5678.21
5677.93
5674.22
5704.35
5695.97
5687.55
5680.28
5677.83
5678.21
5674.7
5709.87
5704.71
5695.93
5685.54
5678.66
5676.82
5680.58
5672.65
5709.86
5710.84
5705.8
5695.09
5684.16
5675.85
5676.06
5681.14
3860.17
5702.24
5710.85
5713.15
5706.82
5694.5
5679.27
5672.54
5664.29
3980.22
194.123
5686.59
5703.76
5715.09
5716.13
5708.84
5692.13
5676.26
5644.15
3847.84
210.157
4.48191
5663.57
5688.13
5707.62
5718.1
5721.02
5710.31
5689.97
5628.07
3719.76
254.58
0.177809
0.0569587
5634.96
5664.84
5691.59
5712.37
5727.41
5726.24
5712.93
5643.76
3680.88
272.637
0.750475
0.0141783
-0.0228813
5602.86
5635.81
5667.6
5696.29
5720.5
5730.71
5734.63
5688.77
3779.46
322.438
1.36586
0.0233953
0.00857944
0.0187803
5569.35
5603.22
5637.62
5671.36
5703.6
5729.5
5748.42
5734.53
3983.25
413.122
2.76369
0.0459035
0.0243908
0.00778981
-0.0129883
5536.23
5569.25
5604.03
5640
5677.14
5712.39
5742.43
5760.17
4175.54
563.815
5.2306
0.0672023
0.0343083
0.0133702
-0.00053284
5504.98
5535.74
5569.11
5604.91
5643.77
5684.05
5723.89
5757.29
4281.13
752.394
10.3341
0.0588654
0.0425001
0.0189568
0.00332613
5476.67
5504.18
5534.8
5568.59
5606.58
5648.02
5692.86
5738.35
4270.71
890.877
19.7218
0.0268254
0.0277154
0.023504
0.00439286
5452.04
5475.62
5502.58
5533.1
5568.33
5608.03
5653.46
5704.53
4127.35
908.884
31.5065
-0.00822045
-0.00995042
0.0139666
0.00369594
5431.55
5450.82
5473.54
5499.95
5531.23
5567.24
5610.08
5660.37
3866.76
831.774
37.2092
-0.00387693
-0.0676885
-0.00740421
-0.00148856
5415.44
5430.2
5448.38
5470.2
5496.82
5528.03
5566.35
5612.33
3534.11
681.173
33.3716
0.0310366
-0.112894
-0.0387656
-0.00961239
5403.8
5414.01
5427.52
5444.53
5466.14
5491.98
5524.86
5564.76
3166.48
518.985
22.2191
0.00199762
-0.136731
-0.0624204
-0.0183052
5396.61
5402.31
5411.15
5423.32
5439.8
5460.07
5487.13
5520.02
2794.02
374.845
12.2065
-0.0306501
-0.120437
-0.0678548
-0.023708
5393.75
5395.07
5399.33
5406.72
5418.12
5432.86
5454.09
5479.63
2437.75
259.257
6.12378
-0.0289042
-0.0842551
-0.0694993
-0.0318292
5395.09
5392.19
5392.02
5394.74
5401.2
5410.59
5426.16
5444.51
2111.86
173.405
2.90506
-0.00569652
-0.0435172
-0.0494768
-0.0230255
5400.45
5393.52
5389.09
5387.32
5389.02
5393.27
5403.44
5415
1825.01
113.551
1.34346
0.0208792
-0.00997869
-0.0263709
-0.0161354
5409.61
5398.87
5390.38
5384.31
5381.45
5380.82
5385.86
5391.14
1581.62
74.0004
0.632029
0.042496
0.0129652
-0.00663788
-0.00882047
5422.32
5408.04
5395.72
5385.56
5378.34
5373.07
5373.25
5372.75
1383.22
49.0021
0.323207
0.0556331
0.0282479
0.00717853
-0.00245148
5438.29
5420.78
5404.91
5390.88
5379.53
5369.84
5365.39
5359.58
1229.41
33.7706
0.192899
0.0626264
0.0380697
0.016517
0.00218733
5457.2
5436.81
5417.71
5400.09
5384.83
5370.93
5362.07
5351.34
1118.7
24.7809
0.139444
0.0668385
0.043474
0.0224381
0.00535928
5478.65
5455.8
5433.84
5412.95
5394.06
5376.19
5363.07
5347.78
1049.12
19.6831
0.117934
0.0697167
0.0467595
0.0258286
0.00737159
5502.19
5477.37
5453
5429.22
5407.01
5385.44
5368.24
5348.64
1018.69
17.0262
0.109409
0.0716222
0.0491204
0.0278834
0.00855517
5527.32
5501.07
5474.81
5448.61
5423.47
5398.49
5377.43
5353.78
1025.12
16.0197
0.106137
0.072845
0.0508834
0.0293343
0.00927026
5553.47
5526.41
5498.85
5470.76
5443.16
5415.17
5390.47
5363.06
1067.39
16.2807
0.105024
0.0736928
0.0520213
0.0303803
0.00975552
5580.03
5552.82
5524.62
5495.27
5465.76
5435.24
5407.23
5376.39
1144.23
17.8442
0.106368
0.0741338
0.052761
0.0310743
0.0100992
5606.38
5579.7
5551.56
5521.66
5490.89
5458.41
5427.52
5393.66
1254.5
20.9965
0.109948
0.0748115
0.0531678
0.0315344
0.0103114
5631.85
5606.4
5579.07
5549.38
5518.1
5484.35
5451.11
5414.73
1396.95
26.357
0.116024
0.0755829
0.0536546
0.0318103
0.0104472
5655.82
5632.26
5606.49
5577.81
5546.84
5512.61
5477.72
5439.42
1570.01
34.9396
0.127712
0.0760915
0.0541455
0.0320981
0.010545
5677.68
5656.62
5633.14
5606.29
5576.51
5542.69
5506.97
5467.46
1771.54
48.1774
0.151363
0.0763853
0.0543883
0.0323611
0.0106392
5696.94
5678.88
5658.33
5634.11
5606.43
5573.97
5538.39
5498.49
1998.7
67.9269
0.200013
0.0762834
0.0543933
0.0324924
0.010725
5698.49
5723.78
5681.41
5660.53
5635.86
5605.77
5571.36
5532.04
2247.84
96.4014
0.29934
0.0756498
0.0540074
0.0324908
0.0107998
5701.8
5725.86
5742.75
5684.85
5663.99
5637.3
5605.23
5567.48
2514.43
135.996
0.497432
0.0742867
0.0532475
0.0322651
0.0108074
5706.41
5730.44
5745.32
5740.7
5690.04
5667.68
5639.19
5604.12
2793.03
188.982
0.879893
0.0714535
0.0519929
0.0317808
0.0107321
5713.25
5736.78
5751.42
5743.44
5720.92
5696.01
5672.25
5641.18
3077.44
257.221
1.59436
0.0662358
0.0496481
0.0309252
0.0105648
5721.38
5746.14
5758.96
5749.27
5723.44
5692.93
5703.4
5677.8
3360.86
341.923
2.87264
0.0560165
0.0453191
0.0293776
0.0102584
5731.5
5757.32
5771.03
5757.76
5728.75
5693.78
5640.71
5712.82
3635.85
443.213
5.07827
0.041636
0.0377009
0.0266261
0.00970192
5744.59
5771.25
5784.84
5769.97
5736.65
5696.96
5640.74
5606.59
3894.63
559.393
8.71986
0.0255244
0.0272851
0.0220731
0.00873414
4129.49
5788.52
5802.7
5784.75
5747.45
5702.31
5644.75
5608.32
5530.5
687.112
14.3413
0.0100185
0.0131185
0.0156317
0.00718222
821.395
4445.02
5823.42
5804.41
5760.78
5710.05
5651.87
5609.79
5506.1
5423.1
22.3302
0.000979133
-0.00699525
0.00684571
0.00496029
32.7097
1023.16
4712.29
5825.62
5778.17
5720.37
5660.99
5611.89
5511.84
5406.5
5322.34
0.00947153
-0.0323133
-0.00520275
0.00194479
0.0431722
49.8368
1211.01
4757.02
5784.75
5733.44
5670.79
5616.57
5534.55
5440.21
5271.31
5346.93
-0.0619574
-0.0200687
-0.00208909
-0.0939648
0.128837
64.5232
1213.48
4641.55
5711.35
5680.14
5623.6
5559.57
5482.55
5297.38
5309.23
5242.55
5290.81
-0.0371699
-0.00693223
-0.054697
-0.136072
0.23621
57.4189
1002.52
4372.88
5617.48
5630.17
5578.04
5524.78
5407.31
5373.59
5297.28
5147.21
5193.09
5229.56
-0.0125329
-0.0179505
-0.0789355
-0.18731
0.125776
35.0538
700.189
3996.57
5519.71
5588.09
5557.1
5506.91
5477.76
5376.46
5235.33
4974.15
5071.17
5157.17
5216.02
-0.0256116
-0.0854955
-0.166804
0.00716861
17.6925
457.367
3600.56
5445.48
5573.35
5562.86
5543.2
5457.19
5332.71
5096.4
4721.29
4873.29
5030.58
5156.95
5247.62
-0.0330489
-0.09623
-0.132917
-0.0242083
8.95552
303.006
3291.3
5430.66
5578.43
5574.78
5515.93
5418.69
5215.7
4894.54
4304.8
4549.14
4819.01
5033.52
5195.75
5320.33
-0.0345771
-0.0798344
-0.0811247
-0.00167686
4.85725
210.253
3158.05
5450.32
5588.42
5539.24
5472.31
5310.19
5045.89
4603.77
3750.5
4027.89
4460.74
4827.89
5084.49
5272.73
5424.03
-0.0354448
-0.0539536
-0.0327655
0.0236152
2.67345
159.237
3099.22
5515.2
5543.88
5494.73
5377.03
5166.65
4832.03
4186.79
2435.24
3341.36
2438.67
2765.06
2768.51
3900.2
4484.98
4898.74
5177.65
5384.5
5554.6
-0.0326089
-0.0284
-0.00130031
0.0402058
1.47157
122.452
3168.92
5387.31
5504.23
5413.94
5253.2
4992.09
4557.28
3731.07
2159.83
2152.13
3192.37
2165.23
1948.66
1950.91
2153.99
2486.95
2487.65
3974.37
4611.26
5022.05
5301.48
5519.13
5704.28
-0.0268846
-0.0109208
0.0168321
0.0553651
0.816405
99.9343
2812.44
5358.71
5430.36
5303.05
5100.13
4791.16
4219.79
2657.68
2655.09
2983.68
2985.43
1835.65
1826.05
3379.12
2394.71
1838.72
1599.32
1600.69
1821.63
2259.83
2253.94
4193.85
4793.35
5170.89
5445.67
5671.25
5861.46
-0.0214607
-0.00062191
0.0292802
0.0639402
0.432139
78.6361
2582.33
5190.46
5328.36
5168.75
4914.09
4558.25
3260.8
3262.36
3534.14
3535.34
2465.19
2461.27
2827.59
2822.31
1484.19
1594.61
1269.24
1356.37
1514.84
3791.56
2865.21
1380.53
1375.85
1189.68
1204.41
1481.88
1284.56
1289.21
1594.41
1269.84
1356.26
1521.3
1832.05
1885.32
2061.26
1703.37
1830.06
1882.08
2056.78
1701.68
4498.01
4990.86
5330.11
5603.75
5831.37
6023.39
-0.0182547
0.0061959
0.0363391
0.0564686
0.296931
54.4076
2112.13
4884.72
5211.23
5002.32
4720.34
3758.03
3757.86
3960.54
3958.71
3126.72
3120.63
3416.08
3407.15
2047.7
1883.62
2059.52
2187.57
2252.11
1908.51
1871.6
2050.09
2059.68
2183.72
2249.13
1904.8
2560.88
2635.44
2385.27
2454.74
2556.21
2633.26
2380.68
2451.86
1102.26
1103.46
1194.53
1039.25
1487.94
1263.85
1271.35
1480.98
4264.39
3535.36
1798.45
1779.78
1592.49
1572.08
1293.43
1294.16
1107.26
1116.92
1105.38
1101.21
1195.29
1042.88
1038.58
842.199
1002.55
904.798
1041.89
853.973
1007.25
912.932
1489.85
1275.72
1275.16
1489.48
1706.48
1660.89
1703.9
1650.31
4778.1
5179.48
5498.97
5769.06
5993.68
6183.97
-0.0168663
0.0100443
0.0379343
0.0511949
0.198857
31.3912
1518.92
4575.37
5052.22
4817.85
4089.5
4087.35
4246.61
4246.29
3650.45
3642.2
3857.25
3845.94
2702.68
2774.02
2813.9
2889.54
2699.73
2772.3
2817.07
2888.65
3147.77
3233.56
2984.45
3060.19
3147.26
3232.66
2986.88
3059.65
1877.14
2063.44
2039.8
1876.2
2208.86
2193.33
1870.58
2067.06
1875.24
2044
2206.95
2191.52
2555.05
2545.55
2393.9
2378.71
2554.66
2545.17
2391.22
2376.91
1063.55
1081.04
1148.16
998.779
1511.56
1269.09
1308.88
1456.3
4656.05
4202.64
2180.92
2162.37
1998.79
1978.95
1819.11
1795.84
1552.22
1535.26
858.722
1120.79
818.193
1019.12
866.925
1120.44
833.708
1023.48
788.962
782.091
803.461
835.727
1003.24
911.338
813.596
796.89
812.806
861.227
1017.79
916.522
1067.81
1087.02
1151.84
1004.13
998.544
890.077
1001.02
896.753
1511.68
1281.47
1311.77
1457.29
1696.95
1648.1
1696.61
1642.73
5015.76
5362.22
5672.9
5933.3
6156.18
6333.76
-0.0168773
0.0106604
0.0395861
0.0597648
0.140576
16.6549
917.275
4013.16
4830.4
4359.85
4360.94
4461.73
4462.5
4008.31
4001.94
4139.93
4137.78
3254.68
3353.62
3334.59
3441.66
3253.69
3352.48
3333.45
3440.77
3573.59
3721.44
3435.79
3552.42
3572.02
3718.81
3434.01
3551.3
2703.42
2682.41
2845.02
2796.52
2701.17
2682.21
2846.4
2798.81
3132.05
3087.34
2986.87
2927.75
3134.14
3089.18
2988.91
2930.44
1114.89
1101.24
1189.76
1008.38
4949.19
4640.76
2490.25
2480.76
2362.01
2348.03
2196.48
2175.87
2037.18
2013.7
1142.98
1439.44
1043.19
1349.85
1154.23
1438.13
1045.36
1348.76
900.851
1191.58
958.441
1265.48
903.421
1190.14
964.406
1264.92
911.677
1081.64
870.303
1018
917.08
1082.57
881.681
1026.29
818.126
781.741
872.073
906.725
829.873
954.358
830.488
799.085
874.913
914.426
844.112
965.361
1117.62
1110.16
1193.03
1012.32
1019.85
905.375
1023.19
911.782
5216.09
5546.7
5840.32
6097.47
6308.26
6463.3
-0.016846
0.0113474
0.0475652
0.0826266
0.149318
7.31665
432.398
3194.57
4449.58
4256.14
4256.55
4357.63
4358.53
3884.13
3880.15
4042.36
4038.73
3245.61
3217.83
3341.4
3329.31
3245.14
3219.21
3340.15
3330.55
3557.78
3593.97
3430.46
3453.23
3558.23
3593.92
3430.14
3454.28
3113.38
3096.19
3119.36
3099.19
5143.39
4939.57
2747.96
2763.56
2631.92
2621.8
2498.14
2477.44
2360.94
2339.28
1361.48
1906.28
1372.4
1819.58
1365.72
1904.83
1379.88
1815.32
1240.49
1553.66
1310.08
1674.03
1250.73
1551.26
1324.96
1672.58
1204.72
1311.66
1114.11
1240.34
1206.92
1309.54
1107.13
1235.45
970.459
1135.08
1030.9
1178.43
968.021
1133.34
1027.21
1176.64
5408.61
5719.37
6003.91
6253.19
6442.52
6555.88
-0.0163786
0.0162163
0.0595652
0.121818
0.140404
2.78932
163.181
2044.01
4051.62
4051.84
3327.35
3329.32
4166.58
4164.19
4240.9
4240.77
3716.63
3617.45
3612.34
3674.34
3715.22
3616.12
3612.73
3672.18
3821.73
3846.42
3918.39
3756.79
3819.96
3846.62
3917.71
3754.16
3214.18
3200.83
3313.97
3318.45
3217.59
3203.9
3316.12
3321.21
3530.78
3517.51
3387.9
3420.04
3534.98
3518.72
3390.07
3421.65
5309.29
5133.56
4992.93
2705.34
2703.86
2619.25
2598.09
2432.12
2403.88
2344.22
2334.98
1395.84
1820.8
1425.92
1701.27
1395.86
1817.57
1434.48
1701.53
1297.46
1427.54
1381.24
1563.14
1305.52
1426
1389.85
1561.24
1260.09
1281.84
1271.28
1279.93
5587.56
5877.74
6161.56
6395.81
6540.25
6604.99
-0.0145362
0.0250843
0.0792374
0.181991
0.120156
1.00485
48.4356
795.282
3779.28
3784.54
2533.76
2537.75
3921.13
3995.65
4086.32
3989.92
3924.56
3995.16
4084.08
3992.64
4169.89
4167.72
3632.56
3598.74
3564.45
3654.17
3631.69
3599.24
3564.01
3652.07
3729.54
3821.46
3828.12
3743.49
3728.16
3817.37
3827.63
3738.83
3521.16
3501.72
3525.17
3502.47
5492.58
5305.22
5214.18
2974.1
2969.88
2852.26
2835.27
2695.19
2667.79
2495.46
2450.81
1931.47
1523.11
1977.17
1499.44
1927.65
1529.9
1971.4
1500.45
1877.24
1424.93
1824.35
1448.76
1875.67
1432.07
1827.21
1450.03
1466.38
1703.81
1461.56
1620.5
1481.81
1709.27
1467.5
1624.42
1320.75
1379.54
1405.68
1505.27
1330.54
1377.71
1411.4
1503.81
5735.2
6028.96
6311.18
6505.63
6592.12
-0.01151
0.0400218
0.0952513
0.245037
0.143162
0.562902
6.20139
363.743
363.711
50.6661
50.6316
3230.16
3903.46
2785.08
3469.81
3233.93
3914.73
2788.59
3477.68
1608.81
1612.46
3881.43
3902.29
3978.78
3942.09
3881.26
3902.36
3978.62
3943.52
3566.14
4050.82
3828.21
3999.85
3571.64
4053.49
3833.14
3999.69
3737.89
3786.79
3805.1
3726.77
3737.29
3785.9
3804.65
3724.96
5630.38
5491.88
5424.14
5415.43
2900.2
2873.7
2678.78
2647.87
2597.76
2556.47
1582.56
2153.4
1982.66
1447.57
1585.16
2144
1969.1
1434.98
1763.56
1570.53
1847.85
1502.76
1765.75
1571.26
1846.6
1509.72
1714.33
1452.46
1673.26
1466.92
1715.18
1463.14
1673.85
1469.3
1460.87
1631.07
1484.31
1635.77
5868.08
6171.27
6444.69
6564.07
-0.00532884
0.0585757
0.104425
0.28536
0.250671
0.693964
4.62204
4.61451
2.15466
2.13782
133.306
133.263
5.71172
5.71037
2956.05
3767.18
2303.59
2983.87
2960.71
3779.69
2307.7
2995.93
1147.46
464.11
626.407
933.696
1149.12
463.14
627.922
935.172
3828.91
3850.37
3912.95
3902.47
3828.94
3850.59
3912.78
3902.54
3533.44
4003.61
3691.03
3947.7
3539.52
4007
3697.24
3948.21
5734.01
5634.48
5604.76
5590.29
2982.58
2953.43
2852.68
2831.15
2567.36
2561.34
1609.52
2152.36
1406.71
2026.28
1598.35
2134.72
1423.11
2029.11
1578.02
2057.02
1587.03
2036.32
1558.73
2105.52
1587.7
2050.37
1588.78
2031.79
1550.85
2102.6
1626.05
2026.04
1616.93
2020.52
1609.05
1483.54
1623.48
1485.16
1609.01
1490.71
1623.59
1486.16
5988.04
6344.49
6514.13
0.000559758
0.0901007
0.120424
0.287351
0.595161
2.57436
3.25181
3.24297
2.68644
2.66039
36.0299
274.91
69.0522
6.00464
15.8758
208.234
274.483
36.0563
208.435
69.0562
6.02701
15.9137
4.10372
3.84753
5.0584
4.96679
4.06927
3.83459
5.06585
4.96265
2576.19
3546.29
2067.45
3025.66
2582.52
3561.98
2074.24
3039.71
361.955
448.593
362.215
448.669
3899.52
3826.93
3899.18
3829.71
3196.5
3879.81
3202.07
3887.73
5817.95
5731.26
5731.1
5733.33
3070.71
3053.62
3022.18
2982.73
2798.34
2781.59
2619.02
2610.78
2244.88
1385.97
2093.98
1576.37
2152.94
1532.74
2255.48
1436.92
2085.65
1595.28
2150.4
1533.57
1652.22
2121.83
1654.7
2125.14
1675.59
1992.61
1669.04
1574.55
1923.18
1875.77
1674.89
1994.43
1649.4
1571.4
1918.2
1872.54
1526.07
1734.13
1515.18
1730.84
6165.31
6426.49
0.00379985
0.119753
0.143886
0.29322
1.30498
5.48568
4.61172
4.39741
4.38765
3.5954
3.55551
3.41748
3.29844
87.254
7.2463
27.9389
68.3998
4.4485
4.4851
87.053
7.25511
68.3984
27.9448
4.43032
4.51554
4.20437
4.08967
4.39586
4.39178
4.16851
4.06694
4.38447
4.38681
1262.04
1643.61
1266.45
1649.74
5946.89
5773.03
5815.76
5858.49
5878.68
2992.4
2941.4
3001.71
2959.81
1337.42
2007.63
1534.66
2169.6
1367.26
1991
1520.75
2130.47
1358.63
1458.82
1929.79
1432.45
2014.12
2120.47
1414.04
1501.76
1949.62
1462.8
2008.19
2144.18
2059.84
1949.29
1585.09
1589.83
2073.65
1955.67
1582.06
1582.22
1579.67
1852.88
1586.88
1866.67
1590.18
1797
1608.64
1819.98
1623.33
1805.43
1586.9
1815.82
6258.98
0.00476689
0.14109
0.195781
0.348949
1.05019
6.04546
5.68879
4.09883
4.57133
6.26881
4.50139
5.20801
4.86394
4.94467
4.19759
4.70781
4.06019
6.25857
4.96478
4.37808
4.22817
4.38713
4.30458
4.28355
4.20199
4.37348
4.29799
6054.51
5849.4
5847.67
5952.3
6024.11
3147.4
3155.32
3047.02
3044.91
3008.8
3016.7
2664.3
2679.9
1506.63
2172.78
1763.62
2328.41
1532.03
2186.79
1733.84
2325.63
1467.64
1482.79
1839.5
1924.63
1678.58
2140.17
1536.13
1523.05
1943.77
1872.85
1678.29
2143.77
1901.1
1563.18
1904.43
1531.21
0.00955247
0.147423
0.24115
0.420128
2.29316
2.67776
2.07103
2.06266
5.93421
6.06698
3.62829
4.92169
7.24156
4.9298
7.42411
5.93371
5.30891
4.34021
5.04184
4.36984
6.84776
6.92192
6.77827
7.23139
4.86882
5.92359
4.83064
5.37971
4.65897
5.09874
4.46928
4.49407
5959.92
5909.14
5998.68
6120.12
6104.01
2907.68
2994.71
3041.04
3027.58
2775.69
2764.63
2099.25
1592.32
2320.62
1371.76
2080.49
1614.13
2307.54
1380.53
1560.24
1974.28
1649.35
1997.68
1611.9
1999.22
1669.59
2011.35
0.0252564
0.150842
0.262197
0.467054
2.07324
2.13567
2.24584
2.28848
6.5371
6.89336
3.89172
4.93374
6.07997
3.32046
4.56414
5.43108
5.33449
4.88084
4.64096
3.97068
2.54853
3.38034
7.43093
5.66772
7.50805
6.48005
5.30672
4.43
5.29938
4.56662
6.99734
7.25791
4.34998
5.12631
6001.45
6057.95
6153.16
6294.28
3152.85
3135.01
3044.23
3044.21
2997.77
2990.73
3032.45
2934.68
1469.79
2272.61
1607.53
2370.76
1495.99
2251.69
1478.22
2241.26
1585.9
2357.81
1458.71
2234.88
1575.13
2142.59
1562.37
2152.99
1461.02
1883.59
1480.88
1893.62
0.0424603
0.160967
0.297561
2.46293
2.54086
2.16611
2.17332
2.13779
2.0449
2.63616
2.54847
5.93902
6.75424
4.84982
3.84546
5.05519
3.44581
4.0893
4.37783
3.10007
3.34039
3.20186
3.46839
3.06786
2.81771
3.14547
3.34007
3.0963
2.64552
3.06495
2.81916
6114.67
6222.64
6349.37
6379.71
3162.36
3119.05
3118.49
3088.97
2929.56
2863.56
1546.35
2418.45
2201.23
1518.03
2267.04
1443.96
2158.74
1471.05
2227.36
1387.07
1568.57
2426.91
1599.18
1552.64
2242.55
2010.66
1559.06
1527.43
2244.16
2010.57
1505.92
1887.85
1535.1
1897.82
0.0482948
0.174296
0.318879
2.50062
2.60702
2.24861
2.27911
3.01659
2.71861
3.43027
3.1018
2.98069
3.24609
2.8959
2.58235
2.92102
2.99697
2.91159
3.12734
3.16174
2.65541
3.36795
3.00615
2.64616
2.75164
2.91499
2.86387
2.79378
2.66031
6281.75
6415.43
6576.47
3264.46
3258.49
3172.64
3158.78
3257.54
3227.01
2959.66
2918.81
1359.39
2114.86
1480.45
2135.41
1570.73
2422.14
1357.3
1533.67
2398.61
2089.7
1498.21
2130.52
1567.68
2092.85
1656.87
2356.17
1647.95
1587.28
2371.12
2102.07
0.0536455
0.171078
0.273759
2.34814
2.50754
2.24166
2.2767
3.00271
2.90306
5.05625
3.32307
3.55043
3.30526
2.90928
2.86284
3.14776
3.18424
3.20443
3.21234
3.15909
3.33851
3.56782
5.13746
3.19444
3.30435
3.22288
3.46704
2.91192
2.7757
2.83682
2.75407
6491.73
6660.61
6786.43
3307.37
3276.25
3249.26
3221.54
2913
2908.93
1490.73
2304.94
1940.72
1460.03
2013.2
1265.62
1490.76
2283.51
1916.2
1457.76
2000.89
1250.87
1591.95
1570.99
2332.21
2041.51
1583.4
2057.4
1598.8
2335.53
0.0426427
0.137571
2.13303
2.26768
2.28657
2.13336
2.06006
2.04879
2.31109
3.19054
3.01566
2.34851
3.25893
3.284
3.14803
3.03534
5.58183
3.38213
4.81433
3.74105
3.0384
3.00526
3.38607
3.19043
3.25141
3.22183
3.44216
3.82859
3.30408
3.5634
6738.9
6926.89
7074.74
3410.11
3386.47
3104.44
3127.92
1196.52
1907.97
1418.17
2033.34
1400.42
2073.05
1237.26
1405.46
2050.58
1907.47
1421.44
2046.54
1570.48
2008.54
1597.66
2226.74
1593.62
2017.53
1586.98
2207.13
1526.39
2034.06
1538.32
2041.82
0.0268322
0.0572091
2.12918
2.1076
2.1513
2.10501
2.02837
2.01583
3.15566
3.15793
2.92403
3.12436
2.91659
2.84033
3.01673
2.65071
3.27281
3.13572
3.07216
3.17856
3.11416
2.8459
3.03389
2.66521
4.9384
3.69245
3.55454
3.26151
3.26098
3.15619
3.2448
3.67651
6995.61
7153.14
3528.9
3363.51
3340.85
3512.95
3366.03
3364.17
2877.19
1383.38
2120.84
2874.86
1422.94
2132.26
1624.7
1719.83
1983.95
2353.26
1606.32
1970.41
1703.7
2349.22
1563.99
1980.03
1549.93
1927.33
1586.38
1977.33
1547.93
1906.51
-0.0831203
-0.0370613
2.1018
2.72094
3.07868
1.96155
2.09998
2.72082
3.06758
1.96558
1.94906
1.95148
3.07207
3.19325
3.24877
3.02501
2.91202
2.87441
3.31339
3.63398
3.18607
3.55171
3.00411
2.87151
3.73598
3.58342
3.78152
3.25096
7208.34
7295.48
3568.1
3082.77
3114.7
3532.9
3436.28
3415.42
1345.97
1281.85
1946.83
1375.98
2011.95
1985.09
1146.41
1879.34
1362.04
1361.75
1969.38
1420.32
2025.84
1963.55
1203.28
1898.19
1796.3
1627.47
2123.86
2244.5
1706.21
2099.13
1630.26
2238.03
0.00619929
2.25335
2.08907
2.10243
2.26496
2.16427
2.15925
2.89904
2.64871
3.09263
2.74327
2.9511
2.51398
2.9529
2.68702
1.98519
2.91719
2.55554
2.8911
2.65719
3.06059
2.73456
2.96353
2.51329
2.92236
2.67898
1.97912
2.90735
2.54822
3.12822
3.07434
2.8993
2.81514
3.18622
3.10222
2.9071
2.82133
7402.25
7468.37
3589.15
3029.17
2038.77
1301.92
3054.67
2011.92
1306.83
3543.93
3239.46
3260.11
1459.53
1569.35
1468.87
1868.4
2100.08
2258.87
1495.76
1517.63
1520.22
2127.3
1877.25
2243.75
1713.83
2126.32
1685.16
2118.45
-0.365554
2.24184
2.51038
2.25499
2.51504
2.39836
2.38285
3.12015
2.91165
2.73001
2.84681
2.96295
2.69035
2.79336
2.81851
2.50941
2.89271
2.54463
2.51721
2.85611
2.43717
3.15211
2.89981
2.85243
2.72286
2.92833
2.67716
2.79304
2.76776
2.49729
2.86579
2.52937
2.50811
2.84624
2.43309
7618.99
3416.77
3531.49
3499.08
3447.85
3396.68
3405.53
1171.7
1976.83
1421.65
2125.76
1334.56
1970.92
1413.98
2119.21
1223.87
1986.37
1453.41
2131.24
1351.07
1960.45
1438.82
2127.95
2961.55
1350.46
2128.94
2953.15
1402.15
2139.39
1545.82
1555.17
2015.51
2163.7
1543.02
1480.84
2043.31
2145.65
-0.275177
2.14933
2.40609
2.72527
2.32902
2.17608
2.40813
2.72675
2.33322
2.26659
2.25337
2.92246
2.71772
2.89218
2.66549
2.68529
2.64639
2.78955
2.57752
2.55303
2.50818
2.90428
2.71351
2.88867
2.66309
2.65457
2.77189
2.63854
2.57052
2.54191
2.50573
7477.67
3390
3429.23
3410.23
3425.71
3409.73
3402.19
1501.62
1557.86
2024.83
2023.14
1652.98
2279.51
1510.31
1605.4
2034.17
2042.1
1631.26
2261.42
1230.57
1393.58
2028.97
1317.89
1968.34
1779.17
1235.14
1988.72
1218.47
1361.83
2024.11
1342.22
1988.61
1773.22
1269.45
1990.21
11.9067
2.46126
2.43964
1.95248
2.37925
2.63225
2.31393
2.67594
3.49149
1.97028
2.38253
2.63601
2.31778
2.67983
3.48277
2.67994
2.59933
2.6039
2.53964
2.52215
2.48236
2.65197
2.57895
2.6015
2.52857
2.51406
2.48106
7610.5
3436.17
3416.4
1813.86
1219.16
3397.72
1825.59
1221.89
3462.27
3489.45
3466.58
1584.55
2024.89
1584.48
2131.48
1581.83
2022.25
1550.3
2111.11
1531.57
1474.17
1507.36
1910.62
1980.44
1922.71
1538.6
1368.86
1429.82
1978.72
1897.86
1829.43
5.6181
13.0194
58.9191
12.9595
58.8656
3.67123
2.18828
2.60957
2.2734
2.51742
2.55479
2.42751
38.4414
3.67881
2.18829
2.60415
2.2753
2.51245
2.54805
2.42485
38.1171
2.56491
2.49188
2.54396
2.48498
7668.8
3425.06
3445.57
3487.34
1681.33
1238.46
1616.62
1273.78
3459.37
1693.62
1258.16
1628.88
1280.45
3425.35
3397.91
1679.16
1509.34
1550.17
2019.91
1814.35
1923.88
1626.45
1459.12
1468.65
1808.07
1927.08
1857.27
-0.687841
39.2588
2.18008
39.3893
2.06421
79.376
79.3524
47.8008
2.5514
3.69222
11.4115
2.57187
2.19983
2.48831
2.34573
2.37991
2.52134
2.44234
47.0701
2.57396
3.65835
11.417
2.5647
2.19329
2.47365
2.34118
2.3598
2.50185
2.43575
7672.63
3435.69
3459.61
3445.4
3466.07
3361.7
1565.62
1255.11
1617.57
1236.67
1545.47
1905.23
3320.65
1561.74
1256.24
1618.18
1237.21
1508.58
1877.36
3485.76
3461.92
1658.62
2067.57
1665.9
2024.59
-0.383432
2.32918
2.46108
2.31659
2.45202
54.2853
9.03338
54.7067
8.87702
64.7273
64.2669
52.2796
20.7892
35.5842
60.6207
4.78027
6.0769
13.8103
3.56962
1.95148
2.41619
2.35177
2.16796
50.4657
19.8146
34.7544
56.7164
4.82198
5.94753
13.3788
3.52298
1.94626
2.39744
2.3458
2.15271
7603.17
3459.67
3449.16
3464.85
3452.37
3532.57
3500.21
3255.33
1551.36
1133.33
1641.76
1187.32
1778.79
1518.65
1862.57
1494.19
1668.9
2076.93
3221.77
1541.78
1165.34
1623.23
1193.73
1752.91
1487.5
1841.04
1459.29
1700.97
2037.38
-0.0989392
2.09777
2.17775
2.08605
2.16479
2.51002
2.29767
2.49857
2.2922
56.6036
13.2658
57.0374
13.1395
53.0306
80.5813
85.0386
69.4238
52.8015
79.6815
83.6167
67.3554
57.8478
30.0186
29.274
65.4266
57.6234
29.2774
28.1677
64.3963
7466.21
3426.73
3423.43
3441.14
3455.56
3538.76
3512.18
3507.94
3482.06
3230.41
3172.56
1999.96
1161.38
1776.53
1361.73
1769.57
1412.95
1970.57
1431.34
2007.9
1685.78
2095.03
1628.15
1991.01
1163.67
1771.3
1332
1709.84
1263.22
1659.4
1378.02
1972.14
1685.73
2059.01
1611.65
-0.0289849
-0.106213
2.31509
2.17672
2.29585
2.1812
2.93213
2.98933
2.90995
2.96175
100.842
82.9758
103.08
62.6702
44.6262
4.78373
5.33256
17.223
98.4642
82.8953
99.1395
63.4721
44.6455
4.69053
5.29113
17.4317
86.1257
89.7497
160.756
77.0442
87.3693
89.605
159.113
75.0141
7627.33
3375.81
3404.09
3412.94
3437.25
3423.21
3475.56
3394.22
3460.52
3229.36
3239.07
3176.63
3203.86
2071.35
1449.17
2127.19
1408.37
2052.48
1414.12
2108.03
1371.16
2192.92
1397.24
1967.35
1613.18
2135.38
1285.42
1832.69
1499.58
0.0870384
2.12418
2.02329
2.17012
2.0365
-0.00893669
3.32558
2.78421
3.27386
2.80779
2.93557
2.92402
3.26695
2.95326
3.65851
3.06219
4.24825
3.01077
2.93714
2.90807
3.2413
2.94094
3.61262
3.06607
4.1462
3.00428
146.098
96.8054
184.204
66.6686
48.2156
4.94905
9.02923
27.0887
143.706
97.2541
179.699
67.3887
48.0007
4.91535
8.96678
27.1576
7404.03
7449.63
3373.49
3372.86
3379.76
3386.26
3315.93
3472.81
3282.43
3449.4
2107.36
1456.72
2135.35
1434.05
2082.84
1289.52
1952.95
1427.3
2086.42
1422.93
2115.85
1394.13
2063.88
1274.21
1941.48
1384.23
2268.01
1644.34
2300.96
1631.56
2236.16
1612
2281.35
1568.89
0.102136
2.03009
2.02148
2.03321
2.01575
3.97423
2.5799
4.03025
2.64859
0.0239632
4.7074
3.10822
4.49317
3.1408
5.23121
3.24774
5.58408
3.17198
4.62603
3.12295
4.38558
3.15576
5.09324
3.26597
5.63446
3.20167
2.76121
2.91503
3.06963
2.91658
2.88477
3.22827
3.15607
3.13185
2.75993
2.9129
3.06865
2.91791
2.88121
3.22181
3.14043
3.12382
7189.1
7292.31
3526.86
3581.48
3496.55
3542.17
3389.37
3403.9
3364.83
3385.97
1559.91
1215.78
1800.08
1146.76
1559.96
1252.96
1603.68
1197.72
1559.48
1215.24
1798.75
1147.11
1556.36
1261.56
1607
1196.59
2293.03
1652.98
2316.25
1643.11
2293.64
1492.37
2085.51
1669.16
2270.34
1627.99
2298.19
1599.26
2258.62
1473.58
2068.02
1611.4
0.179538
0.141363
2.17273
2.15403
2.18202
2.1568
3.53432
3.71253
5.65394
3.46942
6.43174
6.25486
3.07764
3.41687
3.16512
5.06396
3.4735
3.64377
5.28365
3.33253
6.41651
6.22095
3.09838
3.52508
3.15574
5.18117
0.0424464
3.84997
3.29034
3.34888
3.3262
5.22966
3.37378
3.84765
3.28468
3.34656
3.32316
5.09614
3.35604
2.87742
3.17968
2.95558
3.08353
2.87187
3.16051
2.94842
3.0665
6976.68
7125.18
3556.11
3525.36
3525.05
3505.89
2906.5
3233.97
2912.23
3251.35
1636.07
1238.24
1595.4
1248.15
1819.48
1223.98
1979.67
1204.5
1642.24
1246.47
1605.94
1238.52
1832.39
1260.51
1987.1
1216.72
1693.46
1485.92
2142.64
1295.14
1745.52
1404.12
1679.36
1420.86
1682.88
1468.07
2124.56
1276.8
1739.09
1403.87
1680.75
1411.27
0.269104
2.16129
2.13748
2.17357
2.14562
0.159309
2.37459
2.16632
2.41797
2.17169
3.59407
3.45401
4.30427
3.52691
3.46683
6.12434
3.21493
4.52177
3.35927
5.71336
3.49594
3.38842
4.03072
3.45604
3.33597
5.80262
3.22412
4.81001
3.3403
5.88116
0.0381775
3.12086
3.21915
3.00715
3.28297
3.42847
3.41238
3.11376
3.2033
3.00172
3.2646
3.38521
3.35927
6711.91
6901.98
7032.4
3425.04
3351.55
3393.14
3335.6
1336.31
1236.91
1987.72
1280.98
1947.31
1777.16
1169.08
1945.21
1318.16
2082.4
1279.39
1353.39
1989.33
1315.15
1964.79
1802.42
1219.38
1942.73
1383.85
2101.1
1671.21
1391.65
1687.88
1382.59
1874.87
1415.39
1655.36
1385.56
1685.76
1336.77
1852.69
1367.58
1967.59
1584.25
1918.87
1515.44
1953.25
1579.34
1905.89
1516.7
0.288758
2.12216
2.07767
2.12783
2.07597
2.22172
2.24045
2.23316
2.25574
0.162071
3.34557
3.24896
4.70957
3.11617
2.8542
3.01839
2.63105
3.03458
3.33363
3.20427
4.70815
3.09899
2.8407
3.01367
2.63016
3.02706
3.45235
3.17085
3.36105
6.05242
3.47834
6.50485
3.357
3.15735
3.26831
6.00809
3.3485
6.45486
0.0375822
6468.58
6630.58
6769.61
3358.62
3375.83
3333.06
3357.51
3093.64
3058.58
3102.36
3088.17
1454.11
1604.11
2137.7
1818.56
1617.61
2182.66
1428.57
2011.36
1574.65
2236.58
1481.62
1632.25
1817.46
2167.29
1535.66
2147.51
1419.92
1999.65
1539.32
2216.85
1868.12
1571.66
1890.77
1531.72
1805.05
1534.6
1834.08
1593.91
1888
1516.16
1752.37
1480.76
0.397052
0.2623
2.27679
2.28492
2.28844
2.28491
3.05258
3.10242
2.84861
3.04888
2.82994
2.78873
3.06429
2.71163
3.05745
2.80636
3.03229
3.08813
2.84554
3.03751
2.82783
2.78087
3.06784
2.71416
3.05598
2.80617
0.147475
3.6471
3.1857
4.55219
3.11919
2.99117
3.14603
3.5709
3.1616
4.33075
3.10087
2.96595
3.12758
0.0269745
6268.72
6396.72
6554.13
3290.17
3246.61
3256.25
3236.47
2816.39
3109.7
2806.72
3145.7
2083.2
1193
2001.07
1351.98
2030.63
1132.13
1868.7
1310.99
2093.64
1226.66
2014.6
1386.07
1996.98
1194.16
1887.76
1272.81
1522.99
1861.35
1347.3
1732.42
1386.82
1814.06
1551.53
1874.34
1391.4
1745.25
1403.13
1815.21
0.391226
2.15787
2.07689
2.16126
2.0673
0.239678
2.39807
2.33816
2.45256
2.3758
3.06996
3.13122
2.88832
2.92024
3.13863
2.98005
3.21787
2.94701
3.19574
3.02192
3.02751
3.16869
2.87075
2.9486
3.19501
3.05205
3.2419
2.98113
3.22662
3.07609
0.158091
2.9317
3.14395
2.9059
3.10523
0.0139668
6107.24
6213.01
6333.71
6327.19
3231.78
3132.36
3201.64
3123.86
1170.5
1327.18
1820.74
1291.92
1921.55
1951.2
1203.13
1918.48
1314.32
2015.12
1354.58
1250.44
1851.52
1332.23
1925.18
1936.45
1242.4
1917.32
1343.73
2002.14
2191.67
1433.78
1978.53
1609.85
2317.43
1572.95
2198.51
1451.51
1988.24
1579.01
2290.63
1508.73
0.700389
0.332156
2.57497
2.23346
2.67144
2.25253
0.205608
3.80974
3.32287
4.19541
3.18199
3.43021
4.26571
3.49034
4.80569
3.21222
3.53843
3.22338
3.10054
3.55396
3.80049
3.45419
3.60801
3.89518
3.49391
3.93048
4.21012
3.79203
3.96853
0.150577
0.00882647
5995.75
6052.12
6143.38
6284.57
3124.74
3120.79
3093.31
3107.32
2912.13
3228.31
2911.19
3204.37
1378.92
1446.54
2056.28
1773.13
1572.91
2153.1
1447.08
2022.2
1633.48
2219.05
1432.7
1460.72
1782.65
2072.61
1558.46
2134.15
1469.09
2034.52
1628.67
2211.69
2013.7
1529.26
2051.05
1531.74