/*--------------------------------*- C++ -*----------------------------------*\
| =========                 |                                                 |
| \\      /  F ield         | OpenFOAM: The Open Source CFD Toolbox           |
|  \\    /   O peration     | Version:  5.x                                   |
|   \\  /    A nd           | Web:      www.OpenFOAM.org                      |
|    \\/     M anipulation  |                                                 |
\*---------------------------------------------------------------------------*/
FoamFile
{
    version     2.0;
    format      ascii;
    class       surfaceScalarField;
    location    "1.1";
    object      phi;
}
// * * * * * * * * * * * * * * * * * * * * * * * * * * * * * * * * * * * * * //

dimensions      [0 3 -1 0 0 0 0];

internalField   nonuniform List<scalar> 
30582
(
0.000283189
-3.52528e-07
0.00028076
2.42892e-06
0.000282754
-2.35905e-07
0.000274678
6.08167e-06
0.000279831
5.35186e-06
0.000281458
1.25088e-06
0.000269219
5.45969e-06
0.000273602
1.23107e-05
0.000278977
7.83316e-06
0.000278936
5.36726e-06
0.000268715
5.03261e-07
0.000267951
1.11107e-05
0.000272815
1.84727e-05
0.000274597
1.21723e-05
0.000275139
1.34186e-05
0.000271503
-2.78754e-06
0.000267452
1.00233e-06
0.000267076
1.68494e-05
0.000267775
2.52942e-05
0.000273135
1.41765e-05
0.000267568
2.92239e-05
0.00027584
-4.33658e-06
0.000270954
-6.2896e-06
0.000267112
9.66704e-07
0.000262089
2.25354e-05
0.000265776
3.2653e-05
0.00026302
1.87252e-05
0.000263321
4.94906e-05
0.000278059
-2.21926e-06
0.000275999
-9.38207e-06
0.000271246
-1.04243e-05
0.000262485
5.7127e-07
0.000260047
2.82647e-05
0.000254714
4.09588e-05
0.000261815
2.02312e-05
0.000243381
8.99438e-05
0.000276027
2.03207e-06
0.000278514
-4.73399e-06
0.000277126
-1.52615e-05
0.000268941
-1.68811e-05
0.000261955
-1.33703e-06
0.000249957
3.30214e-05
0.000252432
5.03415e-05
0.000234865
2.8747e-05
0.000167513
-0.000102849
0.000268302
7.72438e-06
0.000276881
3.66533e-06
0.00028121
-8.81843e-06
0.000277181
-2.35008e-05
0.000269487
-2.44134e-05
0.000253762
-5.14204e-06
0.000246621
3.88327e-05
0.000231205
5.40016e-05
0.000196324
-6.448e-08
-0.000280113
0.000176113
0.00025501
1.32924e-05
0.00026943
1.51749e-05
0.0002798
5.07577e-06
0.000282388
-1.40255e-05
0.000279514
-3.35272e-05
0.000265392
-3.60433e-05
0.000250604
-9.12485e-06
0.000233474
3.65637e-05
0.000230542
1.97836e-05
-0.000100547
-0.000179631
-7.19619e-05
0.000248051
0.000237102
1.79078e-05
0.000256133
2.65894e-05
0.00027212
2.28543e-05
0.000282368
5.09522e-06
0.000287564
-2.20758e-05
0.000279731
-4.78663e-05
0.000263712
-4.91509e-05
0.000243124
-1.87755e-05
0.000256441
1.06643e-05
6.66421e-06
-8.74271e-05
-8.41349e-06
-0.00024318
8.14749e-05
0.000166576
0.00021589
2.12122e-05
0.000238006
3.60349e-05
0.000258453
4.0257e-05
0.000275483
2.97396e-05
0.000288528
4.13114e-06
0.00029075
-3.30951e-05
0.000282052
-6.62067e-05
0.000261204
-6.72304e-05
0.000284655
-4.69892e-05
0.000131171
-0.000113842
-5.41509e-05
-4.16898e-05
6.0875e-05
-0.00022258
1.11536e-06
0.00016546
0.000192788
2.31026e-05
0.0002165
4.2718e-05
0.000239782
5.47055e-05
0.000261624
5.41166e-05
0.000281254
3.70136e-05
0.00029376
1.12123e-06
0.00029726
-4.83028e-05
0.000284784
-8.97873e-05
0.000320063
-0.000102639
0.000262005
-0.000177824
8.08614e-06
-0.000176079
6.03034e-05
-4.11182e-05
-5.44156e-06
-0.000216023
7.83206e-05
8.71396e-05
0.000169033
2.37545e-05
0.00019311
4.64929e-05
0.000217655
6.48448e-05
0.000242243
7.40864e-05
0.000266593
6.87781e-05
0.000287718
4.30562e-05
0.000302884
-4.50264e-06
0.000304381
-6.78996e-05
0.000355488
-0.000125212
0.000398119
-0.000238752
0.000101593
-0.000271331
8.91924e-05
-0.000204968
2.60133e-05
-7.25731e-05
3.11222e-05
-0.000168825
-3.13619e-05
0.000145564
2.34692e-05
0.000169115
4.77495e-05
0.000193679
7.04691e-05
0.000219217
8.78703e-05
0.000246018
9.46615e-05
0.00027238
8.41156e-05
0.000295871
5.00691e-05
0.000310792
-1.09132e-05
0.00038304
-9.54513e-05
0.000524513
-0.000251606
0.000242924
-0.000380083
0.000102238
-0.000284377
3.77338e-05
-0.000216689
1.87415e-05
-6.01924e-05
-1.64757e-05
0.000123006
2.25583e-05
0.000145469
4.71158e-05
0.000169202
7.22262e-05
0.000194376
9.53107e-05
0.000221648
0.00011224
0.000250265
0.000116777
0.000279318
0.000100668
0.000306244
5.4617e-05
0.000395811
-2.36849e-05
0.000621695
-0.000192633
0.000415395
-0.000424076
0.000108932
-0.000386777
3.35609e-05
-0.000280204
1.75099e-05
-0.000215457
4.16751e-06
0.000101702
2.1304e-05
0.000122797
4.52296e-05
0.000145207
7.11116e-05
0.000169189
9.74127e-05
0.000195573
0.000121386
0.000224079
0.000138425
0.000255331
0.000140764
0.000288898
0.000118014
0.000393919
5.65088e-05
0.00067008
-7.20694e-05
0.000579509
-0.000356747
0.000110519
-0.000425664
1.88669e-05
-0.000372083
1.29963e-05
-0.00027569
6.93497e-06
8.17688e-05
1.99328e-05
0.000101438
4.26637e-05
0.000122318
6.81184e-05
0.000144686
9.56153e-05
0.000169401
0.000123585
0.000196353
0.000149112
0.000227046
0.000166711
0.000262594
0.000167068
0.00037903
0.000132903
0.000682406
4.41825e-05
0.000697304
-0.000189865
0.000121081
-0.000367309
-1.07377e-05
-0.000396059
7.18998e-07
-0.000359805
5.31632e-06
6.31576e-05
1.86112e-05
8.14959e-05
3.98746e-05
0.000100856
6.41252e-05
0.000121489
9.13151e-05
0.000144202
0.000120814
0.00016889
0.000151048
0.000197452
0.000178706
0.000231292
0.000198012
0.000355612
0.000190487
0.000672297
0.000143012
0.000741581
-9.43006e-08
0.000140327
-0.000209112
-4.08337e-05
-0.000337213
-1.88229e-05
-0.000376517
4.76112e-07
4.57039e-05
1.74537e-05
6.2911e-05
3.71961e-05
8.09074e-05
5.98236e-05
9.98941e-05
8.57201e-05
0.000120583
0.000114934
0.000142811
0.000146893
0.000168574
0.000179926
0.000199223
0.000210776
0.000329214
0.000224409
0.000647763
0.000215021
0.000719466
0.000165128
0.000149897
-9.6635e-06
-5.76126e-05
-0.000192333
-3.78874e-05
-0.000318149
-6.79777e-06
2.91767e-05
1.65272e-05
4.55101e-05
3.48546e-05
6.23889e-05
5.57146e-05
7.99522e-05
7.97655e-05
9.87961e-05
0.000107507
0.000118692
0.000139053
0.000141585
0.000173882
0.000168475
0.000210675
0.000302724
0.000237265
0.000618308
0.000253864
0.000639775
0.000294712
0.000130277
0.000184747
-6.0134e-05
-7.14205e-06
-4.95245e-05
-0.000180695
-1.36679e-05
1.33068e-05
1.58698e-05
2.90554e-05
3.29818e-05
4.51078e-05
5.21357e-05
6.15474e-05
7.41194e-05
7.88438e-05
9.97178e-05
9.67232e-05
0.000129476
0.000116984
0.000163654
0.000140105
0.000202252
0.000277495
0.000235904
0.000585418
0.000270155
0.000532965
0.000360673
0.000101933
0.000323056
-4.55887e-05
0.000170202
-4.86788e-05
-7.98779e-06
-1.75291e-05
-2.17906e-06
1.54859e-05
1.32707e-05
3.16545e-05
2.88071e-05
4.92825e-05
4.44574e-05
6.92256e-05
6.0565e-05
9.23982e-05
7.68413e-05
0.0001196
9.48704e-05
0.00015159
0.000114616
0.000189143
0.000253653
0.000226093
0.000546356
0.000274966
0.000416242
0.000386878
7.26481e-05
0.000389959
-2.56392e-05
0.000303107
-3.91209e-05
0.000160644
-1.73966e-05
-1.75477e-05
1.53686e-05
-2.12418e-06
3.08808e-05
1.31973e-05
4.72643e-05
2.8402e-05
6.53379e-05
4.36997e-05
8.60909e-05
5.88252e-05
0.000110414
7.50863e-05
0.000139384
9.20707e-05
0.000174135
0.000230572
0.000212224
0.000497963
0.000274487
0.000305973
0.000385235
5.34007e-05
0.000406125
-7.27254e-06
0.000371592
-2.23873e-05
0.000286373
-1.28592e-05
-3.30381e-05
1.54905e-05
-1.74027e-05
3.06471e-05
-2.01303e-06
4.60911e-05
1.30708e-05
6.25954e-05
2.79359e-05
8.11017e-05
4.23621e-05
0.000102554
5.73327e-05
0.000128168
7.22508e-05
0.000159204
0.000207097
0.000197609
0.000438701
0.000271486
0.000215418
0.000365042
4.4687e-05
0.000393949
5.88091e-06
0.000392972
-7.33467e-06
0.00035654
-6.69464e-06
-4.88525e-05
1.58144e-05
-3.28104e-05
3.08981e-05
-1.71094e-05
4.57434e-05
-1.84632e-06
6.10082e-05
1.29373e-05
7.7594e-05
2.70956e-05
9.63682e-05
4.12386e-05
0.000118648
5.47887e-05
0.00014563
0.00018188
0.000184421
0.000371542
0.000264768
0.000150131
0.000336774
3.88362e-05
0.000370893
1.3051e-05
0.000386779
2.88984e-06
0.000382747
-1.44418e-06
-6.51479e-05
1.62954e-05
-4.85556e-05
3.15596e-05
-3.23481e-05
4.61368e-05
-1.66531e-05
6.05502e-05
-1.6285e-06
7.5574e-05
1.26523e-05
9.20373e-05
2.64068e-05
0.0001112
3.92402e-05
0.000134197
0.000153571
0.000173939
0.000301209
0.000254753
0.000104592
0.000310307
3.26891e-05
0.000342921
1.63142e-05
0.000367629
8.41025e-06
0.000381259
2.01068e-06
-8.2025e-05
1.68771e-05
-6.48012e-05
3.2541e-05
-4.7946e-05
4.71575e-05
-3.16229e-05
6.11066e-05
-1.60883e-05
7.501e-05
-1.32901e-06
8.95553e-05
1.24369e-05
0.000106007
2.51364e-05
0.000125304
0.000121024
0.000166744
0.000232013
0.000243136
7.23701e-05
0.000286975
2.70727e-05
0.000315923
1.66196e-05
0.000342615
1.08276e-05
0.000365212
3.80075e-06
-9.95238e-05
1.74988e-05
-8.16508e-05
3.37266e-05
-6.40744e-05
4.86694e-05
-4.69872e-05
6.25218e-05
-3.07358e-05
7.5754e-05
-1.52099e-05
8.88909e-05
-1.0517e-06
0.000103044
1.20086e-05
0.000119135
8.37697e-05
0.000162558
0.000166998
0.000231758
4.90671e-05
0.000266438
2.20324e-05
0.000292015
1.52275e-05
0.000317315
1.11014e-05
0.000342341
4.4713e-06
-0.00011762
1.80962e-05
-9.91477e-05
3.49958e-05
-8.0851e-05
5.05033e-05
-6.29322e-05
6.46145e-05
-4.58207e-05
7.76067e-05
-2.9317e-05
8.98611e-05
-1.4445e-05
0.000102284
-5.61872e-07
0.000115614
4.25428e-05
0.000160362
0.000107003
0.000222553
3.18424e-05
0.000248983
1.71083e-05
0.000271363
1.30635e-05
0.000294179
1.01676e-05
0.000318249
4.40364e-06
-0.000136219
1.85989e-05
-0.000117272
3.62208e-05
-9.83301e-05
5.24748e-05
-7.95883e-05
6.71593e-05
-6.15478e-05
8.03415e-05
-4.39227e-05
9.22125e-05
-2.80821e-05
0.000103498
-1.30489e-05
0.000114771
-6.45559e-07
0.000158803
5.09813e-05
0.000216384
1.85413e-05
0.000235854
1.20636e-05
0.000254027
1.03632e-05
0.000274063
8.71234e-06
0.000295634
3.93816e-06
-0.000155155
1.8936e-05
-0.000135934
3.72605e-05
-0.0001165
5.43911e-05
-9.7025e-05
6.99116e-05
-7.80666e-05
8.36781e-05
-5.92583e-05
9.56771e-05
-4.22554e-05
0.000106386
-2.58734e-05
0.000116323
-4.29763e-05
0.000157102
-2.88321e-06
0.000212667
7.14677e-06
0.000227779
7.02024e-06
0.000240897
7.19247e-06
0.000257198
7.03631e-06
0.000275739
3.29315e-06
-0.000174204
1.9049e-05
-0.000154972
3.79743e-05
-0.00013528
5.60405e-05
-0.000115248
7.26137e-05
-9.54668e-05
8.73117e-05
-7.55001e-05
9.992e-05
-5.72173e-05
0.000110639
-3.93601e-05
0.000119872
-8.21568e-05
0.000155503
-5.63839e-05
0.000210603
-2.89201e-06
0.000222706
2.31026e-06
0.000232489
3.94146e-06
0.000244148
5.10627e-06
0.000259128
2.56727e-06
-0.00019308
1.88756e-05
-0.000174165
3.82413e-05
-0.000154517
5.7211e-05
-0.000134189
7.49824e-05
-0.000113774
9.09209e-05
-9.27655e-05
0.000104577
-7.31704e-05
0.000115873
-5.38071e-05
0.000125086
-0.000116784
0.0001545
-0.000110812
0.000209931
-1.29735e-05
0.000220684
-2.41475e-06
0.000227431
9.53454e-07
0.000235477
2.93757e-06
0.000246317
1.79093e-06
-0.000211454
1.83747e-05
-0.000193223
3.79344e-05
-0.00017399
5.77145e-05
-0.000153708
7.67291e-05
-0.000132941
9.41493e-05
-0.000111108
0.000109263
-9.02644e-05
0.000121671
-6.9458e-05
0.000131524
-0.000146645
0.000154946
-0.000167309
0.000210997
-2.44373e-05
0.000221395
-7.1621e-06
0.000225431
-1.91595e-06
0.0002303
8.01032e-07
0.000237613
9.86956e-07
-0.000228959
1.75045e-05
-0.000211816
3.69671e-05
-0.00019341
5.73539e-05
-0.000173587
7.75938e-05
-0.00015284
9.66287e-05
-0.000130505
0.000113547
-0.00010859
0.000127589
-8.64951e-05
0.000138708
-0.000172392
0.000157271
-0.000225906
0.000213544
-3.7254e-05
0.000223814
-1.17557e-05
0.000225988
-4.70175e-06
0.000228217
-1.23014e-06
0.000232331
2.34487e-07
-0.000245215
1.62559e-05
-0.000229563
3.52517e-05
-0.000212434
5.59909e-05
-0.000193535
7.73024e-05
-0.000173269
9.8022e-05
-0.000150852
0.000116975
-0.000128165
0.000133122
-0.000105033
0.000146127
-0.000195048
0.000161364
-0.000285777
0.000217142
-5.32437e-05
0.000229534
-1.66922e-05
0.00022875
-7.50158e-06
0.000228788
-3.25498e-06
0.000230242
-4.82199e-07
-0.000259858
1.46432e-05
-0.000246072
3.27646e-05
-0.000230666
5.34838e-05
-0.000213199
7.56542e-05
-0.000193934
9.79682e-05
-0.000171961
0.000119131
-0.000148925
0.000137735
-0.000125107
0.000153196
-0.00021564
0.000166719
-0.000344896
0.000220483
-7.3724e-05
0.000237622
-2.16735e-05
0.000234515
-1.0626e-05
0.000231874
-5.33375e-06
0.000230867
-1.15655e-06
1.27038e-05
-0.000272562
-0.000260952
2.95237e-05
-0.00024769
4.97885e-05
-0.000232156
7.2441e-05
-0.000214472
9.61922e-05
-0.000193548
0.000119555
-0.000170713
0.000140919
-0.000146655
0.000159282
-0.000235051
0.000172608
-0.000400795
0.000222618
-0.000100228
0.000246987
-2.66442e-05
0.000242593
-1.38114e-05
0.0002377
-7.42835e-06
0.000233969
-1.84419e-06
2.55705e-05
-0.000273819
2.07764e-05
-0.000293338
-0.000263092
4.49259e-05
-0.000249953
6.7586e-05
-0.000234431
9.23996e-05
-0.000215239
0.000117883
-0.000193274
0.000142117
-0.0001695
0.000163765
-0.000254058
0.000178288
-0.000451462
0.000223274
-0.000134798
0.000257188
-3.18023e-05
0.000252145
-1.67482e-05
0.00024553
-9.37575e-06
0.000239648
-2.60619e-06
3.89783e-05
-0.0002765
4.20195e-05
-0.000295062
4.57176e-06
-0.00029791
-0.000266138
6.11105e-05
-0.000253306
8.64607e-05
-0.000236542
0.000113703
-0.000216222
0.00014083
-0.000193373
0.00016599
-0.000273197
0.000182904
-0.000494624
0.00022145
-0.000179755
0.000268231
-3.73695e-05
0.000262755
-1.93951e-05
0.000254792
-1.11845e-05
0.000247338
-3.38332e-06
5.31181e-05
-0.000280278
6.46461e-05
-0.000299126
1.02312e-05
-0.000300721
-1.24278e-05
-0.000285482
-0.000270576
7.83809e-05
-0.000256878
0.000106796
-0.000239018
0.000136499
-0.000217905
0.000165362
-0.000292744
0.000185537
-0.00052964
0.000217921
-0.000238541
0.000280236
-4.3478e-05
0.00027434
-2.16877e-05
0.000265047
-1.28755e-05
0.000256482
-4.1582e-06
6.83773e-05
-0.000285835
8.88896e-05
-0.000304521
1.7004e-05
-0.000305899
-2.21148e-05
-0.000291034
-3.10869e-05
-0.000254395
-0.000275591
9.70941e-05
-0.000261001
0.00012878
-0.000242637
0.000161231
-0.000312847
0.000185464
-0.000558688
0.000214584
-0.000311923
0.000291303
-4.97374e-05
0.000286496
-2.3283e-05
0.000275935
-1.43724e-05
0.000266544
-4.90498e-06
8.48707e-05
-0.000292084
0.000115782
-0.000312727
2.5347e-05
-0.000312864
-3.12978e-05
-0.000296716
-5.54799e-05
-0.000266641
-5.30665e-05
-0.000201328
-0.000281325
0.000117418
-0.000266892
0.000153035
-0.000333419
0.000181804
-0.000584343
0.000211119
-0.000395291
0.000297952
-5.61078e-05
0.000297673
-2.35529e-05
0.000286765
-1.54119e-05
0.000276975
-5.58113e-06
0.000102716
-0.00029917
0.00014545
-0.000321753
3.58051e-05
-0.000323186
-3.73946e-05
-0.000306767
-7.73444e-05
-0.000274851
-9.28018e-05
-0.000226906
-0.000114795
-8.65331e-05
-0.000289397
0.000139922
-0.000353959
0.000173575
-0.000608527
0.000205988
-0.0004824
0.000298228
-6.4481e-05
0.000306326
-2.22244e-05
0.000296345
-1.55841e-05
0.000286938
-6.10146e-06
0.000121668
-0.000308348
0.000178752
-0.000332472
4.77628e-05
-0.000333711
-4.29346e-05
-0.000317645
-9.42798e-05
-0.000289832
-0.00012491
-0.000242743
-0.000182161
-0.00015954
-0.000123309
3.67763e-05
-0.000373239
0.000159203
-0.000631267
0.000196315
-0.000566869
0.000290456
-7.90014e-05
0.000312749
-1.91309e-05
0.000303233
-1.45508e-05
0.000295312
-6.33468e-06
0.000138161
-0.000389732
0.000215324
-0.00034492
6.3035e-05
-0.000347744
-4.64897e-05
-0.000330155
-0.000109984
-0.000301941
-0.000146584
-0.000268158
-0.000215073
-0.000209832
-0.000207966
-7.48834e-05
-0.000285456
0.000322232
-0.000652095
0.00018003
-0.000644989
0.000274436
-0.000101966
0.000313421
-1.28953e-05
0.000306513
-1.1901e-05
0.000300583
-6.13996e-06
0.000157721
-0.000671654
0.000246247
-0.000420656
7.89766e-05
-0.000360862
-5.0753e-05
-0.000343481
-0.000125385
-0.000314754
-0.00016606
-0.000282465
-0.000219586
-0.000263645
-0.000247842
-0.000169956
-0.000393097
3.27581e-05
-0.000110988
0.000433221
-0.000715014
0.000250055
-0.000131251
0.00030372
-3.03749e-06
0.000303563
-6.7815e-06
0.000301394
-5.33843e-06
0.000214829
-0.000772122
0.000258085
-0.000683492
9.10491e-05
-0.000432728
-5.20846e-05
-0.00035953
-0.00014225
-0.000326616
-0.000184388
-0.000296427
-0.000220615
-0.000281435
-0.000252799
-0.000258687
-0.000400412
-0.000162641
-0.000149159
7.09285e-05
0.000266756
0.000166465
-0.000162644
0.000281449
9.30644e-06
0.000291376
1.55862e-06
0.000295223
-3.65558e-06
0.000240841
-0.000188656
0.000294692
-0.000808729
8.04716e-05
-0.000672914
-5.92122e-05
-0.000425601
-0.000159489
-0.000342292
-0.000205604
-0.0003054
-0.000227716
-0.000289326
-0.000245998
-0.000288236
-0.000338104
-0.000320996
-0.000135874
-0.000175926
0.000318623
1.90609e-05
0.00144299
0.000207029
-0.00148356
2.44021e-05
0.000266353
1.26104e-05
0.000280325
-8.30255e-07
0.000227816
3.74272e-05
0.000319143
-0.000213107
3.48319e-05
-0.00076309
-0.000109327
-0.0006228
-0.000184085
-0.000401004
-0.000227979
-0.000319917
-0.000242154
-0.000290963
-0.000244247
-0.000291077
-0.000272361
-0.000353979
-0.000125906
-0.000330964
0.000300348
-0.00015765
0.00131123
0.000150827
0.00144314
0.00034493
-0.00158104
0.000158059
-0.00164162
2.64164e-05
0.000252547
3.12496e-06
0.000215348
3.88835e-05
0.00030106
5.55093e-05
8.04234e-06
-0.000186317
-0.000238175
-0.000634242
-0.000287818
-0.000519067
-0.000264254
-0.000364729
-0.000261581
-0.000300489
-0.000249935
-0.000285274
-0.000239205
-0.000324232
-0.000114083
-0.000365802
0.00025014
-0.000280757
0.00110069
5.28844e-05
0.00125584
0.000338123
0.00143251
0.000543766
-0.00163135
0.000279197
-0.00170218
9.80141e-05
-0.00173963
8.45641e-06
1.37638e-05
0.000287166
5.27771e-05
-1.99313e-06
6.55443e-05
-0.000299132
-0.000125361
-0.000474778
-0.000447281
-0.000389038
-0.000394284
-0.000301967
-0.000324343
-0.000268704
-0.000281721
-0.000237607
-0.000286873
-0.000117388
-0.000320927
0.000197101
-0.000312763
0.000853394
-3.34578e-05
0.00103517
0.000273554
0.00120051
0.000570126
0.00147977
0.000792029
-0.00172803
0.000450746
-0.00180289
0.000202364
-0.00180653
5.53745e-05
-0.00179501
2.03017e-05
-1.00346e-05
6.08183e-05
-0.000298209
6.46208e-05
-0.000519131
-8.10078e-05
-0.000583124
-0.000253195
-0.000420568
-0.000275682
-0.000307288
-0.00028576
-0.000260694
-0.000258633
-0.000149787
-0.000254474
0.000106882
-0.000230707
0.000582704
-4.20726e-05
0.000755795
0.000245921
0.000929035
0.000545026
0.00121702
0.000832876
0.00149149
0.00115449
-0.00185395
0.000678581
-0.00195586
0.000322383
-0.00192291
0.000107386
-0.00185854
1.45523e-05
-0.00180956
2.23565e-05
-0.000294449
5.70588e-05
-0.000498516
4.40048e-05
-0.000603347
-6.07855e-05
-0.000577654
-9.61086e-05
-0.000413104
-0.000169866
-0.000305037
-0.000241417
-0.000209757
-0.000198664
-2.2068e-05
-0.000125525
0.000332145
1.98523e-05
0.000447247
0.000266476
0.000661785
0.000513171
0.000935381
0.000826661
0.00118254
0.00114183
0.00154758
0.00154545
-0.00193854
0.000981645
-0.00215702
0.000473276
-0.00210676
0.000159933
-0.00197546
1.67022e-05
-0.00186069
-3.08487e-05
-0.00177871
2.00902e-05
-0.000483341
4.18837e-05
-0.000581297
2.19544e-05
-0.000590425
-4.80145e-05
-0.000518457
9.2444e-06
-0.000409132
-6.57713e-05
-0.000284532
-0.000166642
-0.000154116
-6.66164e-05
0.000116861
8.97586e-05
0.00019117
0.000275929
0.000449644
0.000478617
0.000660273
0.000788279
0.000921882
0.00108732
0.00113068
0.00155873
0.00147822
0.000449337
-0.00174299
0.000447
0.00045727
0.000456615
0.00123804
-0.00219494
0.000624348
-0.00230809
0.000207238
-0.00215406
8.67001e-06
-0.00196743
-6.36351e-05
-0.0018279
-6.80865e-05
-0.00171062
1.40191e-05
-0.000564853
2.5439e-05
-0.000578923
1.04518e-05
-0.000538985
-2.74867e-05
-0.000472474
7.25863e-05
-0.000408772
5.84687e-05
-0.000275666
-4.50909e-05
-6.35005e-05
0.000113745
1.85451e-05
0.000262383
0.000279241
0.000446332
0.000418002
0.000720887
0.000673493
0.00103667
0.000811387
0.00140661
0.0010866
0.00195035
-6.09931e-07
0.000334295
-0.000358548
0.0004742
0.000378679
-0.00193836
0.000376706
0.000339088
0.000338939
0.000334291
-0.000359101
0.0004712
-6.12901e-07
0.000298604
0.000493574
0.000300137
0.000490156
0.000734648
-0.00230524
0.0002125
-0.00231335
-3.02446e-05
-0.00211515
-0.000116781
-0.00191428
-0.000142745
-0.00175325
-0.000102607
-0.00160802
7.48765e-06
-0.000568601
1.51172e-05
-0.000540162
1.16291e-05
-0.000497287
-2.67338e-06
-0.000452682
0.000116496
-0.000413663
0.000196465
-0.00021942
0.000110829
-0.000107154
0.000239444
9.8688e-05
0.000442936
0.000207873
0.000656461
0.000401717
0.000992663
0.000587341
0.00126071
0.000669132
0.00182408
-0.000243943
-0.000246132
0.000857325
0.000537742
0.00053387
0.000555067
0.000555159
-9.61407e-07
-0.000369359
0.000390451
-3.48935e-07
0.000263212
-0.000297289
0.000508626
-0.00176177
0.000558055
-0.000369009
0.000385653
-4.03197e-07
-0.000338719
0.000308852
-0.000337458
0.000306984
0.000262662
-0.000294303
0.000502492
-1.36487e-07
0.00051298
0.000506549
7.7135e-05
-0.00216987
-0.000141731
-0.00220186
-0.000215431
-0.0020165
-0.000230908
-0.00182612
-0.000213293
-0.00164256
-0.000131766
-0.00147625
3.68941e-06
-0.000537878
1.28327e-05
-0.000505586
1.99288e-05
-0.000474736
1.93816e-05
-0.00044259
0.000145424
-0.000393056
0.000370101
-0.000222428
0.000226103
-8.66095e-05
0.000424742
2.47779e-05
0.000626032
0.000117285
0.000940893
0.000398883
0.00118112
0.000343222
0.00158662
0.000555365
0.000532683
0.000532446
0.000531718
0.000529194
4.37291e-07
0.00012423
-0.000156398
0.000569472
0.000124113
-0.000155615
0.000565808
-3.0731e-07
0.000114391
0.000565214
0.000113802
0.000565163
-5.66847e-07
-0.000311117
0.000404846
7.95211e-07
0.000193184
-0.000191845
0.000150191
9.98392e-05
0.000150677
0.000105786
-0.00137322
-0.000311409
0.00027635
0.000272527
-0.000773948
-6.68696e-05
-4.49566e-05
0.000109564
0.000109211
-0.000308171
0.000398954
-2.57888e-07
0.000274343
0.000271082
0.000192371
-0.000190117
0.000147313
0.00010176
0.000147844
0.000104117
1.06716e-06
0.000157929
0.000117087
0.000159931
0.000113752
0.000155981
0.000118943
0.000157427
0.000112021
-0.000373629
-0.00193798
-0.000383685
-0.00203361
-0.000355601
-0.0018918
-0.00033507
-0.00170434
-0.000268242
-0.00150608
-0.000150678
-0.00132557
2.76041e-06
-0.000507806
1.50521e-05
-0.000480918
2.61102e-05
-0.000463095
3.98856e-05
-0.000382079
0.000134447
-0.000421647
0.00056932
-0.000256741
0.000396234
-0.000140427
0.000589947
-7.84448e-05
0.000821762
0.000183607
0.00115617
0.000119001
0.00140534
0.000295778
0.000461964
0.000459859
0.000463233
0.000461156
-2.76089e-07
9.84447e-05
0.000548906
9.75487e-05
0.000548424
-2.1406e-07
8.36271e-05
0.00054675
8.17174e-05
0.000544811
6.95337e-07
5.68833e-05
-2.93858e-05
-1.23543e-05
0.000116018
-2.1623e-05
0.00016695
0.000118627
0.000170288
3.40167e-06
5.68493e-05
-2.94178e-05
-1.15088e-05
-2.22145e-05
0.000115198
0.000166739
0.000118018
0.000168478
4.36203e-06
9.068e-07
4.56127e-05
0.00011866
0.000166929
0.000119517
0.000170517
4.60456e-05
0.000119457
0.000166965
0.000120178
0.000170274
3.9335e-07
-0.000144548
0.000115528
6.34966e-05
0.000121285
5.68459e-05
-2.43625e-05
7.75054e-06
7.72846e-09
2.38858e-05
0.000142909
-8.41171e-06
1.45911e-05
-1.01185e-05
0.000103778
-3.51013e-09
-1.9793e-05
0.000137699
1.70363e-05
0.000111091
-0.000988452
-0.0007584
-0.000227789
-0.000258218
-0.000237489
-0.000192884
-0.000168978
8.18707e-07
4.65768e-05
2.41112e-05
-0.000138376
5.99148e-05
9.57499e-06
-0.000113628
-2.6526e-06
9.47944e-05
6.39993e-05
9.70225e-05
6.94511e-05
-0.000144123
0.000114199
6.44624e-05
0.000119379
5.53123e-05
-8.97014e-07
8.57008e-05
2.82536e-05
7.06571e-05
4.08748e-05
8.43479e-05
3.03715e-05
6.93594e-05
3.90057e-05
-2.31595e-05
7.05501e-06
2.28751e-05
0.00014055
-8.30942e-06
1.38038e-05
-9.3422e-06
0.000105607
-1.8979e-05
0.00013535
1.59834e-05
0.000108992
2.15221e-05
1.24699e-05
1.79185e-07
0.000147644
-1.69521e-05
-1.99579e-05
0.000124611
4.16151e-07
0.000151732
0.0001233
2.06379e-05
1.23827e-05
0.000146014
-1.68048e-05
-1.95023e-05
0.000125833
0.000150168
0.000120885
-0.000629701
-0.00169196
-0.000532737
-0.00185647
-0.000470716
-0.00175616
-0.000412422
-0.00156016
-0.000306685
-0.00135008
-0.000169393
-0.00115618
3.05668e-06
-0.000482747
1.68799e-05
-0.0004661
2.91148e-05
-0.000380523
3.83293e-05
-0.000409861
0.00012266
-0.000460875
0.000773454
-0.000345625
0.000601433
-0.000215423
0.000726925
-4.86151e-05
0.00105398
-2.72517e-05
0.00130242
7.82213e-05
0.000398207
0.000399198
0.000413224
0.00041227
2.69849e-08
3.64191e-05
0.000509144
3.55684e-05
0.000506035
3.20495e-07
1.55274e-05
0.000483804
1.60376e-05
0.000481007
1.09912e-06
3.65133e-05
0.000114
0.000160259
0.00011671
0.000165971
3.71441e-05
0.00011467
0.000159934
0.000118653
0.000165176
1.64448e-06
2.19521e-05
0.000117
0.000161008
0.00011825
0.000163402
2.1725e-05
0.000118604
0.000160565
0.000119867
0.000162819
-9.78137e-07
-6.8665e-06
-1.77725e-06
0.00012564
-2.34701e-06
-9.28413e-06
0.000114619
-8.60551e-06
-1.44891e-08
0.000167172
7.38888e-06
-5.28423e-06
-5.48604e-06
0.000122531
2.4765e-07
-6.094e-06
0.000162229
3.50021e-07
-1.45462e-06
0.000153908
-3.13171e-06
-9.35688e-06
0.000116107
-8.0095e-07
-7.42871e-06
-1.29365e-06
0.000124721
-8.83508e-06
8.57656e-06
0.000166182
-5.35308e-06
-5.78585e-06
0.000121728
-6.61919e-06
0.000161157
-5.04258e-07
0.000152252
-6.48033e-06
6.76774e-06
-7.90522e-06
0.000126278
5.13241e-06
1.88024e-07
-5.09042e-06
0.000160219
-5.86789e-06
0.000126667
2.43482e-07
0.000163414
-6.68466e-06
6.53614e-06
-7.14557e-06
0.000126751
5.3165e-06
-5.11345e-06
0.000160265
-5.99909e-06
0.000126928
0.000163215
1.58989e-05
6.05831e-06
-3.039e-07
-1.08212e-05
0.000104695
-8.7943e-06
4.66467e-07
6.1706e-05
-8.38738e-08
0.000108681
1.27535e-05
5.06171e-05
-8.83015e-06
6.77005e-07
-1.86866e-07
8.20664e-06
0.000143042
-7.22894e-07
-3.25616e-06
1.44283e-05
9.3329e-05
-3.68454e-07
-5.84842e-06
0.00013438
1.92585e-06
0.000106586
-0.000674955
-0.000943197
0.000186163
-0.000310229
-0.000297354
-0.000292318
-0.000272451
3.03632e-06
-7.20853e-05
0.000122511
-0.00031168
-6.60959e-05
0.000120979
-0.000289336
3.54839e-06
-0.000244407
-0.00022195
-1.26735e-07
-8.60226e-05
0.000122703
-6.35131e-05
-4.03434e-05
-4.81492e-05
-2.2892e-05
-7.55553e-05
0.000112538
-5.64246e-05
-3.52268e-05
-4.23105e-05
-1.67754e-05
-1.69354e-06
-3.83447e-05
1.59968e-05
9.48182e-06
-4.94917e-05
2.84284e-05
-1.57855e-05
1.33593e-05
1.60392e-05
-3.74665e-05
1.6899e-05
9.88789e-06
-4.93449e-05
2.91904e-05
-1.26118e-05
1.89546e-05
1.66937e-05
1.58433e-05
6.00364e-06
-1.11796e-05
0.000103228
-9.06544e-06
7.92936e-07
6.33928e-05
0.000107094
1.24366e-05
4.96722e-05
-1.47593e-05
1.27012e-05
-3.14704e-07
7.72524e-05
-1.47168e-05
-2.3089e-05
2.77147e-05
-4.31752e-07
5.76249e-05
4.32405e-05
-1.53424e-05
1.22202e-05
7.59759e-05
-1.40418e-05
-2.25298e-05
2.94766e-05
5.64425e-05
4.11326e-05
-7.82317e-06
3.37633e-08
7.43755e-06
0.000140715
5.43009e-08
-4.03524e-06
1.56309e-05
9.39575e-05
-4.82766e-06
0.00013204
9.95162e-07
0.000103996
4.39199e-06
2.46892e-07
0.000149738
0.000120334
5.16171e-06
0.000148033
0.000117685
-0.000719365
-0.00150533
-0.000622194
-0.001705
-0.000553597
-0.00161498
-0.00046846
-0.00139839
-0.000334442
-0.00118503
-0.000189069
-0.00096711
2.86394e-06
-0.000463509
1.42881e-05
-0.000374707
2.32979e-05
-0.000397874
2.63429e-05
-0.000430785
9.25702e-05
-0.000522153
0.000949982
-0.000426726
0.000812736
-0.000259343
0.000937652
-0.000185935
0.00121267
-0.000105032
0.000356195
0.000355643
0.000386395
0.00038744
3.71657e-07
1.91206e-06
0.000411451
2.89553e-06
0.000412712
5.33809e-08
-1.9544e-05
0.000434627
-1.82263e-05
0.000433446
1.47986e-06
7.42632e-06
0.000108758
0.000150716
0.00011223
0.000150452
5.8228e-06
0.000110163
0.000149861
0.000113679
0.000149722
2.02929e-06
-1.01913e-05
0.000106963
0.000141133
0.000106794
0.00014453
-1.35295e-05
0.000108787
0.00014043
0.000109157
0.000144038
-6.40595e-06
-8.12127e-06
0.000120622
-4.45825e-06
1.54549e-07
0.000153051
-7.03507e-06
-7.51545e-06
0.000123134
8.07845e-08
-1.13779e-06
0.000155501
-6.52184e-06
-7.3375e-06
0.000121384
-4.40526e-06
0.000152858
-6.64796e-06
-7.28245e-06
0.000125246
-1.0912e-06
0.000155305
-7.90793e-06
8.36689e-06
-1.019e-05
0.000126735
3.00404e-06
8.03536e-08
-5.49769e-06
0.000155494
-7.18223e-06
0.000126289
4.95066e-08
0.000158054
-7.8722e-06
8.55145e-06
-1.05755e-05
0.000128501
2.75698e-06
-5.43024e-06
0.000155439
-6.8994e-06
0.000128035
0.000157625
6.54455e-08
7.30777e-06
3.13409e-07
-2.44831e-05
-3.09615e-05
-6.50509e-08
6.69796e-08
1.1698e-05
5.0239e-07
-9.83535e-06
5.98356e-08
-9.29801e-06
-3.27843e-07
7.53532e-06
3.22559e-07
-2.45723e-05
1.23424e-05
-3.1247e-05
5.01457e-07
-1.00419e-05
-9.66453e-06
4.35706e-07
8.85108e-06
-8.23249e-06
6.26557e-06
1.74152e-08
-5.22715e-06
6.56012e-07
7.73789e-08
4.35089e-07
8.80177e-06
-8.14894e-06
6.43087e-06
-5.20168e-06
6.17701e-07
5.317e-06
6.21264e-06
-4.05143e-07
-7.09886e-06
0.000100657
-6.42934e-06
2.15649e-05
6.09986e-05
-3.53738e-07
0.000102059
3.16999e-05
4.66948e-05
2.26059e-06
2.88783e-06
-6.13321e-09
-7.33948e-06
-2.03073e-06
-1.35444e-05
1.77127e-05
-1.46955e-07
3.43511e-06
-1.35717e-05
-0.00051536
-0.00087896
0.000378416
-0.000283215
-0.000279398
-0.00029305
-0.000279787
3.13309e-06
-0.000147818
0.000154059
-0.000319603
-0.000157568
0.000169993
-0.000306646
3.14906e-06
-0.000320774
-0.00030589
3.7378e-06
-0.000168405
0.000183622
-9.92246e-05
-6.54247e-05
-9.66042e-05
-6.9357e-05
-0.000164589
0.000187932
-9.22377e-05
-6.17686e-05
-8.94887e-05
-6.54653e-05
2.93618e-06
-7.98629e-05
-5.93459e-05
-8.77442e-05
-6.60592e-05
-7.34271e-05
-5.49627e-05
-8.07489e-05
-6.19166e-05
-2.1283e-05
-4.90781e-05
5.25915e-05
-4.57434e-05
-3.99507e-05
2.83208e-08
5.13235e-05
-7.30762e-05
-1.58209e-05
-4.78794e-05
-3.35269e-05
-3.42876e-07
-2.69084e-05
-5.14122e-05
-2.04781e-05
-4.65325e-05
5.12987e-05
-4.07126e-05
-3.84276e-05
5.07946e-05
-6.80436e-05
-1.49068e-05
-4.50052e-05
-2.89311e-05
-2.4529e-05
-4.59238e-05
-1.16895e-06
3.98043e-05
-4.86947e-05
1.95411e-05
-1.16479e-05
-4.38529e-05
3.37238e-05
8.47141e-06
-7.50646e-07
2.0222e-05
-7.18431e-07
-1.2968e-05
-1.08925e-05
-1.12169e-06
-1.6924e-05
-4.68053e-07
1.27072e-05
4.97947e-05
6.35833e-08
3.8378e-05
-4.79196e-05
1.93659e-05
-1.07731e-05
-4.32567e-05
3.41615e-05
6.9701e-06
2.17387e-05
-2.05462e-07