/*--------------------------------*- C++ -*----------------------------------*\
| =========                 |                                                 |
| \\      /  F ield         | OpenFOAM: The Open Source CFD Toolbox           |
|  \\    /   O peration     | Version:  5.x                                   |
|   \\  /    A nd           | Web:      www.OpenFOAM.org                      |
|    \\/     M anipulation  |                                                 |
\*---------------------------------------------------------------------------*/
FoamFile
{
    version     2.0;
    format      ascii;
    class       volScalarField;
    location    "1.1";
    object      rAU;
}
// * * * * * * * * * * * * * * * * * * * * * * * * * * * * * * * * * * * * * //

dimensions      [-1 3 1 0 0 0 0];

internalField   nonuniform List<scalar> 
12160
(
1.36131e-06
1.36127e-06
1.36131e-06
1.36242e-06
1.36125e-06
1.36197e-06
1.36363e-06
1.36238e-06
1.36191e-06
1.3613e-06
1.36246e-06
1.36358e-06
1.36233e-06
1.36124e-06
1.36241e-06
1.36243e-06
1.36246e-06
1.36337e-06
1.36229e-06
1.36278e-06
1.36231e-06
1.36364e-06
1.3624e-06
1.363e-06
1.363e-06
1.36263e-06
1.36249e-06
1.36107e-06
1.36234e-06
1.3636e-06
1.36309e-06
1.36245e-06
1.36288e-06
1.36229e-06
1.36143e-06
1.36171e-06
1.36106e-06
1.36363e-06
1.36355e-06
1.36282e-06
1.36308e-06
1.36261e-06
1.36122e-06
1.3626e-06
2.08463e-06
1.36226e-06
1.36316e-06
1.3636e-06
1.36348e-06
1.36347e-06
1.36265e-06
1.36183e-06
1.36476e-06
2.02226e-06
4.4482e-05
1.36356e-06
1.36317e-06
1.36327e-06
1.36355e-06
1.3634e-06
1.3632e-06
1.36317e-06
1.36892e-06
2.09595e-06
4.11256e-05
0.000834821
1.36366e-06
1.36366e-06
1.36331e-06
1.36361e-06
1.36349e-06
1.36329e-06
1.36328e-06
1.3754e-06
2.17058e-06
3.41563e-05
0.0013324
0.00135813
1.36366e-06
1.36366e-06
1.36366e-06
1.36359e-06
1.36361e-06
1.36341e-06
1.36314e-06
1.37567e-06
2.19691e-06
3.19545e-05
0.00124173
0.00136125
0.00136225
1.36365e-06
1.36366e-06
1.36366e-06
1.36361e-06
1.36354e-06
1.36363e-06
1.36351e-06
1.37085e-06
2.14382e-06
2.71104e-05
0.00115393
0.00136263
0.00136176
0.00136226
1.36365e-06
1.36365e-06
1.36366e-06
1.36366e-06
1.36361e-06
1.36347e-06
1.36365e-06
1.36607e-06
2.04013e-06
2.12186e-05
0.000992431
0.00136217
0.001363
0.00136155
0.00136265
1.36365e-06
1.36365e-06
1.36365e-06
1.36366e-06
1.36366e-06
1.36343e-06
1.36344e-06
1.36372e-06
1.95327e-06
1.56079e-05
0.000793004
0.00136117
0.0013633
0.00136285
0.00135938
1.36365e-06
1.36365e-06
1.36365e-06
1.36365e-06
1.36366e-06
1.36338e-06
1.36343e-06
1.36336e-06
1.91076e-06
1.17437e-05
0.00055853
0.00136055
0.00136235
0.00136354
0.00136178
1.36365e-06
1.36365e-06
1.36365e-06
1.36365e-06
1.36365e-06
1.36334e-06
1.36338e-06
1.36321e-06
1.91607e-06
9.95698e-06
0.000361961
0.00135536
0.00136112
0.00136289
0.00135949
1.36364e-06
1.36365e-06
1.36365e-06
1.36365e-06
1.36365e-06
1.36332e-06
1.36334e-06
1.36299e-06
1.98051e-06
9.77662e-06
0.000251512
0.00134735
0.00136014
0.00136183
0.00135838
1.36364e-06
1.36364e-06
1.36365e-06
1.36365e-06
1.36365e-06
1.36331e-06
1.36332e-06
1.36279e-06
2.109e-06
1.06841e-05
0.000219545
0.00133757
0.00136036
0.00136074
0.00135637
1.36364e-06
1.36364e-06
1.36364e-06
1.36365e-06
1.36365e-06
1.36329e-06
1.36331e-06
1.36265e-06
2.30092e-06
1.3026e-05
0.000240923
0.00133033
0.00136263
0.00136206
0.00135528
1.36364e-06
1.36364e-06
1.36364e-06
1.36364e-06
1.36365e-06
1.36328e-06
1.36236e-06
1.36257e-06
2.56047e-06
1.70433e-05
0.000332974
0.00133352
0.00136357
0.00136362
0.0013574
1.36364e-06
1.36364e-06
1.36364e-06
1.36364e-06
1.36364e-06
1.36328e-06
1.36239e-06
1.36164e-06
2.89374e-06
2.34882e-05
0.000504161
0.00134704
0.00136276
0.00136362
0.00136004
1.36364e-06
1.36364e-06
1.36364e-06
1.36364e-06
1.36364e-06
1.36327e-06
1.36244e-06
1.36173e-06
3.30856e-06
3.37173e-05
0.000736447
0.00135651
0.00136209
0.00136243
0.00136351
1.36363e-06
1.36364e-06
1.36364e-06
1.36364e-06
1.36364e-06
1.36327e-06
1.36249e-06
1.36184e-06
3.8113e-06
4.98424e-05
0.000975485
0.00136107
0.00136172
0.00136151
0.00136251
1.36363e-06
1.36363e-06
1.36364e-06
1.36364e-06
1.36364e-06
1.36328e-06
1.36254e-06
1.36196e-06
4.40266e-06
7.478e-05
0.00115756
0.00136316
0.00136361
0.00136138
0.00136164
1.36363e-06
1.36363e-06
1.36363e-06
1.36364e-06
1.36364e-06
1.36328e-06
1.36259e-06
1.36207e-06
5.07283e-06
0.000111592
0.00126478
0.00136351
0.00136362
0.00136361
0.0013615
1.36363e-06
1.36363e-06
1.36363e-06
1.36363e-06
1.36364e-06
1.36328e-06
1.36262e-06
1.36217e-06
5.79363e-06
0.00016195
0.00131789
0.00136359
0.00136362
0.00136361
0.00136166
1.36363e-06
1.36363e-06
1.36363e-06
1.36363e-06
1.36363e-06
1.36328e-06
1.36264e-06
1.36223e-06
6.51234e-06
0.000223333
0.00134176
0.00136362
0.00136362
0.00136361
0.00136161
1.36362e-06
1.36363e-06
1.36363e-06
1.36363e-06
1.36363e-06
1.36328e-06
1.36265e-06
1.36228e-06
7.15171e-06
0.000287667
0.00135209
0.00136362
0.00136362
0.00136362
0.00136166
1.36362e-06
1.36362e-06
1.36363e-06
1.36363e-06
1.36363e-06
1.36327e-06
1.36264e-06
1.36229e-06
7.62243e-06
0.000343807
0.00135657
0.00136362
0.00136362
0.00136362
0.00136176
1.36362e-06
1.36362e-06
1.36363e-06
1.36363e-06
1.36363e-06
1.36326e-06
1.36261e-06
1.36228e-06
7.84845e-06
0.000382727
0.00135853
0.00136362
0.00136362
0.00136362
0.00136186
1.36362e-06
1.36362e-06
1.36362e-06
1.36363e-06
1.36363e-06
1.36326e-06
1.36257e-06
1.36223e-06
7.79956e-06
0.000399984
0.00135937
0.00136362
0.00136362
0.00136362
0.00136196
1.36361e-06
1.36362e-06
1.36362e-06
1.36362e-06
1.36363e-06
1.36325e-06
1.36253e-06
1.36216e-06
7.49296e-06
0.000395428
0.00136099
0.00136362
0.00136308
0.00136362
0.00136204
1.36361e-06
1.36361e-06
1.36362e-06
1.36362e-06
1.36362e-06
1.36324e-06
1.36247e-06
1.36207e-06
6.99341e-06
0.000369921
0.0013609
0.00136261
0.0013622
0.00136308
0.00136211
1.36361e-06
1.36361e-06
1.36361e-06
1.36362e-06
1.36362e-06
1.36324e-06
1.36241e-06
1.36196e-06
6.3832e-06
0.000327462
0.00135905
0.00136305
0.0013612
0.0013622
0.00136216
1.3636e-06
1.36361e-06
1.36361e-06
1.36361e-06
1.36362e-06
1.36324e-06
1.36235e-06
1.36184e-06
5.73721e-06
0.000273963
0.00135796
0.00136362
0.00136163
0.0013622
0.00136218
1.3636e-06
1.3636e-06
1.36361e-06
1.36361e-06
1.36361e-06
1.36324e-06
1.36229e-06
1.36171e-06
5.11002e-06
0.000217135
0.00135576
0.00136362
0.00136216
0.00136219
0.00136219
1.3636e-06
1.3636e-06
1.3636e-06
1.36361e-06
1.36361e-06
1.36324e-06
1.36224e-06
1.36159e-06
4.53407e-06
0.00016449
0.0013513
0.00136362
0.0013635
0.00136216
0.00136218
1.36449e-06
1.3636e-06
1.3636e-06
1.3636e-06
1.36361e-06
1.36325e-06
1.3622e-06
1.36147e-06
4.02423e-06
0.000120782
0.00134232
0.00136362
0.00136362
0.0013635
0.00136215
1.36449e-06
1.36296e-06
1.3636e-06
1.3636e-06
1.3636e-06
1.36326e-06
1.36325e-06
1.36137e-06
3.58369e-06
8.73136e-05
0.00132443
0.00136361
0.00136362
0.00136362
0.0013621
1.3645e-06
1.36346e-06
1.36245e-06
1.3636e-06
1.3636e-06
1.36327e-06
1.36326e-06
1.36236e-06
3.20919e-06
6.30025e-05
0.00129003
0.00136361
0.00136362
0.00136362
0.00136204
1.36451e-06
1.36395e-06
1.36297e-06
1.36354e-06
1.3636e-06
1.36328e-06
1.36327e-06
1.36239e-06
2.89452e-06
4.58857e-05
0.00122804
0.0013636
0.00136362
0.00136362
0.00136196
1.36453e-06
1.36396e-06
1.3635e-06
1.36354e-06
1.36354e-06
1.36329e-06
1.36328e-06
1.36246e-06
2.63256e-06
3.39937e-05
0.00112681
0.00136356
0.00136362
0.00136362
0.00136186
1.36427e-06
1.36397e-06
1.36351e-06
1.36354e-06
1.36354e-06
1.36355e-06
1.36329e-06
1.36256e-06
2.41595e-06
2.57209e-05
0.000981347
0.00136345
0.00136361
0.00136362
0.00136176
1.36429e-06
1.36378e-06
1.36351e-06
1.36354e-06
1.36351e-06
1.36354e-06
1.36326e-06
1.36269e-06
2.23837e-06
1.99244e-05
0.000802106
0.00136316
0.00136361
0.00136362
0.00136165
1.36384e-06
1.36379e-06
1.36346e-06
1.36349e-06
1.36351e-06
1.36349e-06
1.36308e-06
1.36331e-06
2.09435e-06
1.58334e-05
0.000616612
0.00136177
0.00136361
0.00136362
0.00136155
1.98118e-06
1.36348e-06
1.36346e-06
1.36342e-06
1.36329e-06
1.36348e-06
1.36211e-06
1.36268e-06
1.36177e-06
1.29207e-05
0.000454859
0.00135896
0.00136362
0.00136362
0.00136145
1.08452e-05
1.84505e-06
1.36331e-06
1.36345e-06
1.36329e-06
1.36301e-06
1.36201e-06
1.36125e-06
1.36297e-06
1.35873e-06
0.000332885
0.00135418
0.00136362
0.00136362
0.00136133
0.00024641
8.71137e-06
1.74365e-06
1.36384e-06
1.36352e-06
1.36296e-06
1.36173e-06
1.36044e-06
1.36177e-06
1.36299e-06
1.35792e-06
0.00134578
0.00136362
0.00136361
0.00136129
0.00133287
0.000171973
7.3574e-06
1.72634e-06
1.36716e-06
1.3629e-06
1.36123e-06
1.35945e-06
1.35998e-06
1.36303e-06
1.36117e-06
1.35525e-06
0.00136361
0.00136362
0.00136135
0.00136349
0.00130988
0.000136366
7.32757e-06
1.7613e-06
1.37351e-06
1.35962e-06
1.35901e-06
1.36056e-06
1.36211e-06
1.36244e-06
1.35089e-06
1.36364e-06
1.36364e-06
0.00136298
0.00136143
0.00136216
0.00136245
0.00128782
0.000150664
8.82105e-06
1.85891e-06
1.3822e-06
1.35771e-06
1.36028e-06
1.36262e-06
1.36161e-06
1.35785e-06
1.36225e-06
1.36364e-06
1.36364e-06
1.3611e-06
0.00136098
0.00136052
0.00136156
0.00136359
0.00130419
0.000229937
1.25552e-05
2.02296e-06
1.39523e-06
1.35913e-06
1.36335e-06
1.36014e-06
1.36114e-06
1.36315e-06
1.36364e-06
1.36363e-06
1.36364e-06
1.36364e-06
1.35613e-06
0.00136167
0.00136363
0.00136237
0.00133008
0.000390395
1.91644e-05
2.23778e-06
1.40619e-06
1.36308e-06
1.36094e-06
1.36074e-06
1.36364e-06
1.36364e-06
1.36364e-06
1.36362e-06
1.36363e-06
1.36363e-06
1.36364e-06
1.35865e-06
0.00136349
0.00136364
0.00135986
0.00134632
0.000604097
2.87073e-05
2.44579e-06
1.40723e-06
1.36345e-06
1.36159e-06
1.36364e-06
1.36364e-06
1.36364e-06
1.36362e-06
1.36358e-06
1.36362e-06
1.36363e-06
1.36363e-06
1.36364e-06
1.36363e-06
0.00135839
0.0013622
0.00135785
0.00135365
0.00081055
4.09811e-05
2.54637e-06
1.39995e-06
1.36326e-06
1.36347e-06
1.36364e-06
1.36364e-06
1.36363e-06
1.36358e-06
1.36525e-06
1.36359e-06
1.36362e-06
1.36363e-06
1.36364e-06
1.36364e-06
1.36364e-06
0.00135434
0.00136079
0.00135745
0.00135567
0.000993958
5.35749e-05
2.59098e-06
1.38428e-06
1.36341e-06
1.36364e-06
1.36363e-06
1.36363e-06
1.36359e-06
1.36343e-06
1.35843e-06
1.36387e-06
1.35925e-06
1.36679e-06
1.36674e-06
1.35769e-06
1.36166e-06
1.36335e-06
1.36364e-06
1.36364e-06
1.36364e-06
0.00135187
0.00136021
0.00135739
0.00135688
0.0011367
6.86161e-05
2.53206e-06
1.40824e-06
1.36333e-06
1.36364e-06
1.36363e-06
1.36277e-06
1.36349e-06
1.36136e-06
1.3721e-06
1.36239e-06
1.35457e-06
1.37205e-06
1.36357e-06
1.36363e-06
1.3624e-06
1.35686e-06
1.35681e-06
1.36109e-06
1.36334e-06
1.36363e-06
1.36364e-06
1.36364e-06
1.36364e-06
0.00135042
0.00135972
0.00135736
0.00135717
0.00123273
8.29762e-05
2.85125e-06
1.4074e-06
1.36334e-06
1.36363e-06
1.36268e-06
1.36273e-06
1.36637e-06
1.36903e-06
1.36907e-06
1.369e-06
1.36905e-06
1.36014e-06
1.37408e-06
1.36308e-06
1.36446e-06
1.36063e-06
1.36844e-06
1.36935e-06
1.37398e-06
1.37518e-06
1.37511e-06
1.36363e-06
1.36363e-06
1.36363e-06
1.36364e-06
1.36364e-06
1.36365e-06
0.0013496
0.00136027
0.00135779
0.00135709
0.00129756
0.000103647
3.10195e-06
1.4382e-06
1.36308e-06
1.36102e-06
1.36266e-06
1.3672e-06
1.36031e-06
1.36041e-06
1.36386e-06
1.36414e-06
1.37772e-06
1.37777e-06
1.37527e-06
1.37527e-06
1.36849e-06
1.35957e-06
1.37358e-06
1.36509e-06
1.37754e-06
1.36192e-06
1.35629e-06
1.36053e-06
1.36137e-06
1.36218e-06
1.3625e-06
1.36889e-06
1.36044e-06
1.3616e-06
1.36116e-06
1.36947e-06
1.36585e-06
1.36477e-06
1.37063e-06
1.37022e-06
1.3798e-06
1.3761e-06
1.37161e-06
1.37176e-06
1.38148e-06
1.36886e-06
1.36363e-06
1.36363e-06
1.36363e-06
1.36364e-06
1.36364e-06
1.36365e-06
0.00134991
0.00136043
0.00135895
0.00135946
0.00132037
0.000144802
3.78651e-06
1.51066e-06
1.36337e-06
1.36101e-06
1.36563e-06
1.36961e-06
1.36984e-06
1.36532e-06
1.36657e-06
1.37079e-06
1.37077e-06
1.37212e-06
1.37216e-06
1.30901e-06
1.36242e-06
1.43823e-06
1.40085e-06
1.43569e-06
1.37362e-06
1.36477e-06
1.30943e-06
1.46284e-06
1.4e-06
1.43662e-06
1.37377e-06
1.4023e-06
1.4176e-06
1.40845e-06
1.42411e-06
1.39874e-06
1.41734e-06
1.4041e-06
1.42346e-06
1.3407e-06
1.36695e-06
1.37257e-06
1.36991e-06
1.37068e-06
1.37397e-06
1.38256e-06
1.37166e-06
1.35862e-06
1.35259e-06
1.3421e-06
1.34236e-06
1.35245e-06
1.35659e-06
1.3526e-06
1.35413e-06
1.34805e-06
1.34777e-06
1.34673e-06
1.368e-06
1.3724e-06
1.36982e-06
1.32766e-06
1.33738e-06
1.28174e-06
1.36359e-06
1.32798e-06
1.33963e-06
1.28217e-06
1.36384e-06
1.36801e-06
1.37224e-06
1.38304e-06
1.37078e-06
1.36799e-06
1.36776e-06
1.36682e-06
1.36964e-06
1.36363e-06
1.36363e-06
1.36363e-06
1.36364e-06
1.36364e-06
1.36364e-06
0.00134927
0.0013607
0.00136313
0.00135577
0.00133863
0.000232652
5.25404e-06
1.59172e-06
1.3681e-06
1.36475e-06
1.35849e-06
1.35972e-06
1.37162e-06
1.37162e-06
1.374e-06
1.37407e-06
1.37414e-06
1.37399e-06
1.39164e-06
1.41337e-06
1.39435e-06
1.41034e-06
1.39496e-06
1.41327e-06
1.3922e-06
1.4106e-06
1.35657e-06
1.39181e-06
1.38558e-06
1.40048e-06
1.35877e-06
1.3917e-06
1.38647e-06
1.40069e-06
1.36816e-06
9.1723e-07
1.16266e-06
1.3688e-06
1.32676e-06
1.3663e-06
1.36829e-06
9.22674e-07
1.36957e-06
1.26733e-06
1.329e-06
1.37627e-06
1.38778e-06
1.37059e-06
1.37941e-06
1.38387e-06
1.388e-06
1.37188e-06
1.37926e-06
1.38249e-06
1.33606e-06
1.36542e-06
1.37262e-06
1.36734e-06
1.40486e-06
1.39279e-06
1.38256e-06
1.28626e-06
1.35405e-06
1.35135e-06
1.31131e-06
1.31201e-06
1.32929e-06
1.32992e-06
1.33984e-06
1.3392e-06
1.3464e-06
1.34731e-06
1.31027e-06
1.32329e-06
1.31817e-06
1.32185e-06
1.30529e-06
1.31655e-06
1.31737e-06
1.31795e-06
1.34412e-06
1.30637e-06
1.33288e-06
1.34214e-06
1.33977e-06
1.30765e-06
1.34203e-06
1.30688e-06
1.33248e-06
1.34351e-06
1.33161e-06
1.30654e-06
1.34215e-06
1.36386e-06
1.37318e-06
1.36745e-06
1.31038e-06
1.355e-06
1.3098e-06
1.35541e-06
1.39862e-06
1.39116e-06
1.38092e-06
1.28599e-06
1.42974e-06
1.41558e-06
1.42651e-06
1.41694e-06
1.36363e-06
1.36363e-06
1.36364e-06
1.36364e-06
1.36364e-06
1.36364e-06
0.00134773
0.00136153
0.00135924
0.00135586
0.00134943
0.000382278
8.66865e-06
1.78846e-06
1.38572e-06
1.35366e-06
1.35328e-06
1.36994e-06
1.37084e-06
1.35776e-06
1.35702e-06
1.35496e-06
1.35497e-06
1.35681e-06
1.3878e-06
1.36686e-06
1.38616e-06
1.35504e-06
1.38777e-06
1.36747e-06
1.38632e-06
1.37074e-06
1.38455e-06
1.36525e-06
1.38297e-06
1.37073e-06
1.3848e-06
1.36606e-06
1.38303e-06
1.3855e-06
1.40171e-06
1.42438e-06
1.45594e-06
1.39661e-06
1.4017e-06
1.42561e-06
1.45558e-06
1.36217e-06
1.41432e-06
1.3663e-06
1.38096e-06
1.364e-06
1.41256e-06
1.36669e-06
1.3809e-06
1.36426e-06
1.37496e-06
1.39033e-06
1.37357e-06
1.35477e-06
1.35422e-06
1.34391e-06
1.33785e-06
1.33025e-06
1.32792e-06
1.31053e-06
1.31817e-06
1.32931e-06
1.3302e-06
1.29233e-06
1.2563e-06
1.3052e-06
1.26116e-06
1.29368e-06
1.25512e-06
1.29804e-06
1.25612e-06
1.30489e-06
1.29424e-06
1.30435e-06
1.31257e-06
1.2965e-06
1.28581e-06
1.29558e-06
1.30211e-06
1.3313e-06
1.2793e-06
1.33675e-06
1.32367e-06
1.33424e-06
1.28631e-06
1.34e-06
1.3307e-06
1.31652e-06
1.27433e-06
1.26112e-06
1.35781e-06
1.30101e-06
1.34108e-06
1.31338e-06
1.2769e-06
1.25257e-06
1.35581e-06
1.31287e-06
1.34601e-06
1.36437e-06
1.37376e-06
1.38983e-06
1.37375e-06
1.35853e-06
1.36995e-06
1.35616e-06
1.36987e-06
1.36293e-06
1.36363e-06
1.36364e-06
1.36364e-06
1.36364e-06
1.36364e-06
0.00134686
0.00135942
0.00135685
0.00135548
0.00135371
0.000652573
1.81094e-05
2.22491e-06
1.458e-06
1.34952e-06
1.35004e-06
1.35919e-06
1.35888e-06
1.36989e-06
1.36978e-06
1.36185e-06
1.36187e-06
1.35575e-06
1.39179e-06
1.36176e-06
1.38447e-06
1.35103e-06
1.39138e-06
1.36008e-06
1.38438e-06
1.32252e-06
1.36301e-06
1.34389e-06
1.36504e-06
1.31966e-06
1.36227e-06
1.34494e-06
1.36414e-06
1.23892e-06
1.28205e-06
1.2348e-06
1.27542e-06
1.36112e-06
1.35357e-06
1.34035e-06
1.33055e-06
1.32304e-06
1.3227e-06
1.34035e-06
1.33658e-06
1.32241e-06
1.32954e-06
1.23237e-06
1.25666e-06
1.24723e-06
1.26624e-06
1.2359e-06
1.25323e-06
1.25404e-06
1.26421e-06
1.25923e-06
1.28459e-06
1.24003e-06
1.29072e-06
1.25998e-06
1.28594e-06
1.24528e-06
1.29281e-06
1.32234e-06
1.27177e-06
1.33047e-06
1.24811e-06
1.32921e-06
1.27294e-06
1.33604e-06
1.25271e-06
1.31104e-06
1.26775e-06
1.31686e-06
1.25975e-06
1.32073e-06
1.27722e-06
1.32421e-06
1.25404e-06
1.36293e-06
1.36363e-06
1.36363e-06
1.36364e-06
1.36364e-06
1.36364e-06
0.00134513
0.00135713
0.00135686
0.00135549
0.00135476
0.00100391
4.66968e-05
3.4674e-06
1.4759e-06
1.47575e-06
1.89867e-06
1.89785e-06
1.34889e-06
1.34559e-06
1.35552e-06
1.35521e-06
1.38071e-06
1.34961e-06
1.38334e-06
1.36552e-06
1.39711e-06
1.35143e-06
1.3994e-06
1.37153e-06
1.3867e-06
1.35982e-06
1.37389e-06
1.37556e-06
1.38676e-06
1.3407e-06
1.37394e-06
1.35828e-06
1.34902e-06
1.39787e-06
1.39413e-06
1.37144e-06
1.34208e-06
1.39196e-06
1.39537e-06
1.36591e-06
1.33133e-06
1.31778e-06
1.349e-06
1.37478e-06
1.33136e-06
1.31671e-06
1.35149e-06
1.3743e-06
1.36054e-06
1.35905e-06
1.34411e-06
1.32722e-06
1.3239e-06
1.32703e-06
1.32773e-06
1.31939e-06
1.32524e-06
1.3047e-06
1.31417e-06
1.26378e-06
1.24532e-06
1.29238e-06
1.23601e-06
1.26958e-06
1.2373e-06
1.29844e-06
1.23141e-06
1.28719e-06
1.30993e-06
1.27743e-06
1.27942e-06
1.28707e-06
1.3123e-06
1.28035e-06
1.28256e-06
1.25201e-06
1.1282e-06
1.29313e-06
1.10264e-06
1.36363e-06
1.36363e-06
1.36363e-06
1.36364e-06
1.36364e-06
1.36364e-06
0.00134513
0.00136073
0.00135715
0.00135513
0.00135557
0.00126685
0.000144441
8.85225e-06
1.53702e-06
1.52139e-06
2.46241e-06
2.4243e-06
1.31385e-06
1.37018e-06
1.3881e-06
1.28397e-06
1.29441e-06
1.37039e-06
1.38855e-06
1.28187e-06
1.34706e-06
1.34711e-06
1.35297e-06
1.31889e-06
1.39776e-06
1.33307e-06
1.34534e-06
1.32057e-06
1.38088e-06
1.34068e-06
1.40957e-06
1.36013e-06
1.36633e-06
1.3771e-06
1.40932e-06
1.36022e-06
1.36708e-06
1.3806e-06
1.21994e-06
1.06084e-06
1.22448e-06
1.06182e-06
1.3616e-06
1.36017e-06
1.35166e-06
1.33738e-06
1.3404e-06
1.32982e-06
1.32653e-06
1.32707e-06
1.3249e-06
1.33301e-06
1.33453e-06
1.29758e-06
1.24435e-06
1.29798e-06
1.25214e-06
1.29741e-06
1.24585e-06
1.29776e-06
1.24782e-06
1.28742e-06
1.26677e-06
1.2932e-06
1.26231e-06
1.28344e-06
1.29829e-06
1.29926e-06
1.25866e-06
1.30426e-06
1.26483e-06
1.31072e-06
1.23819e-06
1.29719e-06
1.2576e-06
1.31497e-06
1.2454e-06
1.19933e-06
1.3326e-06
1.28443e-06
1.29145e-06
1.21067e-06
1.3351e-06
1.27557e-06
1.29297e-06
1.36363e-06
1.36363e-06
1.36363e-06
1.36364e-06
1.36364e-06
0.0013485
0.00136084
0.00135828
0.00135385
0.00135721
0.00134754
0.000613225
1.79512e-05
1.79524e-05
0.000126194
0.000126255
1.65484e-06
1.44487e-06
1.99541e-06
1.65413e-06
1.65294e-06
1.44322e-06
1.99443e-06
1.65026e-06
3.79928e-06
3.79084e-06
1.30903e-06
1.33135e-06
1.3462e-06
1.3339e-06
1.31057e-06
1.33071e-06
1.34628e-06
1.3316e-06
1.47656e-06
1.37507e-06
1.34033e-06
1.38613e-06
1.47455e-06
1.37654e-06
1.34145e-06
1.38515e-06
1.31749e-06
1.38766e-06
1.32074e-06
1.30245e-06
1.31783e-06
1.38299e-06
1.32838e-06
1.27943e-06
1.36363e-06
1.36186e-06
1.3555e-06
1.34694e-06
1.31049e-06
1.31803e-06
1.30751e-06
1.31209e-06
1.30787e-06
1.30985e-06
1.25923e-06
1.30823e-06
1.31618e-06
1.26066e-06
1.26376e-06
1.30844e-06
1.319e-06
1.26532e-06
1.28972e-06
1.29564e-06
1.30853e-06
1.33141e-06
1.29729e-06
1.30594e-06
1.31212e-06
1.33669e-06
1.25802e-06
1.303e-06
1.23736e-06
1.29249e-06
1.27748e-06
1.31001e-06
1.2792e-06
1.30493e-06
1.29514e-06
1.21754e-06
1.10583e-06
1.24785e-06
1.36363e-06
1.36363e-06
1.36359e-06
1.36363e-06
0.00134944
0.00136038
0.00135786
0.00135528
0.00135031
0.00124054
0.000928171
0.000927916
0.0012995
0.00130058
4.73202e-05
4.73327e-05
0.000843584
0.000841019
1.91594e-06
1.4469e-06
2.504e-06
1.87353e-06
1.91409e-06
1.44267e-06
2.5013e-06
1.86631e-06
5.18588e-06
1.25363e-05
9.86002e-06
5.97727e-06
5.17925e-06
1.25628e-05
9.83898e-06
5.96654e-06
1.33048e-06
1.37038e-06
1.3773e-06
1.35051e-06
1.33132e-06
1.38446e-06
1.38659e-06
1.35288e-06
1.5534e-06
1.3955e-06
1.3903e-06
1.34861e-06
1.55155e-06
1.39487e-06
1.38946e-06
1.34948e-06
1.36363e-06
1.36079e-06
1.35604e-06
1.35581e-06
1.31788e-06
1.33673e-06
1.31624e-06
1.31752e-06
1.31083e-06
1.3159e-06
1.25035e-06
1.30709e-06
1.24403e-06
1.30987e-06
1.25626e-06
1.30753e-06
1.24924e-06
1.3086e-06
1.25861e-06
1.30202e-06
1.29104e-06
1.32277e-06
1.24425e-06
1.27633e-06
1.26673e-06
1.30268e-06
1.27897e-06
1.30432e-06
1.24603e-06
1.28041e-06
1.27748e-06
1.29717e-06
1.28267e-06
1.30309e-06
1.24509e-06
1.26102e-06
1.27784e-06
1.2073e-06
1.2496e-06
1.32554e-06
1.2836e-06
1.28158e-06
1.36363e-06
1.36071e-06
1.36359e-06
0.00134944
0.00135942
0.00135761
0.0013591
0.00129332
0.000996986
0.00125318
0.00125124
0.00133902
0.00133964
0.000140966
2.23558e-05
8.26114e-05
0.0010097
0.000349556
2.77373e-05
2.2392e-05
0.000140873
2.76794e-05
8.2549e-05
0.000995295
0.000348421
0.00130127
0.00121177
0.00114761
0.00103629
0.00130272
0.00121071
0.00113977
0.00103327
2.22764e-06
1.51431e-06
2.83371e-06
1.8913e-06
2.21678e-06
1.50883e-06
2.82436e-06
1.883e-06
1.40917e-05
1.25962e-05
1.4067e-05
1.25983e-05
1.08401e-06
1.34949e-06
1.08485e-06
1.34875e-06
1.5602e-06
1.43953e-06
1.56134e-06
1.43399e-06
1.36363e-06
1.35988e-06
1.36105e-06
1.35928e-06
1.32051e-06
1.32503e-06
1.30277e-06
1.32964e-06
1.31526e-06
1.32214e-06
1.30441e-06
1.31552e-06
1.27232e-06
1.24903e-06
1.30769e-06
1.28204e-06
1.28755e-06
1.28417e-06
1.265e-06
1.22627e-06
1.31855e-06
1.24863e-06
1.29178e-06
1.28499e-06
1.28525e-06
1.30459e-06
1.29634e-06
1.31432e-06
1.29051e-06
1.304e-06
1.28765e-06
1.31121e-06
1.2942e-06
1.2638e-06
1.31468e-06
1.30977e-06
1.32118e-06
1.29681e-06
1.29456e-06
1.26915e-06
1.28641e-06
1.26242e-06
1.28973e-06
1.26578e-06
1.3588e-06
1.36071e-06
0.00135146
0.00136007
0.00135799
0.00135646
0.00121524
0.000897658
0.000993033
0.000979102
0.000982186
0.00123371
0.00124148
0.00127245
0.00129087
5.32909e-05
0.000568893
0.000149093
5.97461e-05
0.0012488
0.0011525
5.34197e-05
0.000566421
5.97407e-05
0.000148673
0.00125156
0.00114762
0.00129113
0.00128186
0.00130475
0.00127845
0.00129141
0.00128211
0.00130454
0.00127658
3.91579e-06
2.77018e-06
3.90211e-06
2.76066e-06
1.35973e-06
1.36044e-06
1.35943e-06
1.36077e-06
1.35167e-06
1.32797e-06
1.33459e-06
1.33092e-06
1.33922e-06
1.24319e-06
1.3089e-06
1.26327e-06
1.31e-06
1.25849e-06
1.3093e-06
1.27306e-06
1.30583e-06
1.30326e-06
1.25997e-06
1.29255e-06
1.26417e-06
1.30261e-06
1.28246e-06
1.29371e-06
1.28315e-06
1.28848e-06
1.27013e-06
1.29751e-06
1.29417e-06
1.2483e-06
1.28781e-06
1.28881e-06
1.31344e-06
1.2667e-06
1.26213e-06
1.29541e-06
1.32222e-06
1.3177e-06
1.31313e-06
1.32475e-06
1.27578e-06
1.23314e-06
1.30058e-06
1.23196e-06
1.27117e-06
1.25218e-06
1.3172e-06
1.26117e-06
1.26976e-06
1.35705e-06
0.00135358
0.00136246
0.00135765
0.00135539
0.00125511
0.000843334
0.000884017
0.00101903
0.000969326
0.00083281
0.00118461
0.00100601
0.00106243
0.000982405
0.00124173
0.00107995
0.00121215
0.000864352
0.0010166
0.00126658
0.00128043
0.00123167
0.00119588
0.00128436
0.00128607
0.00123613
0.00119347
1.35161e-06
1.36223e-06
1.35886e-06
1.36329e-06
1.35599e-06
1.32214e-06
1.34382e-06
1.31238e-06
1.33447e-06
1.3198e-06
1.3358e-06
1.31709e-06
1.32802e-06
1.26069e-06
1.29957e-06
1.30833e-06
1.27915e-06
1.27955e-06
1.31199e-06
1.33235e-06
1.30465e-06
1.27487e-06
1.25303e-06
1.27506e-06
1.28643e-06
1.29931e-06
1.24224e-06
1.23885e-06
1.31897e-06
1.29788e-06
1.2912e-06
1.31249e-06
1.25987e-06
1.19714e-06
1.29419e-06
1.21683e-06
1.2898e-06
0.00135947
0.00136238
0.00136077
0.00135861
0.00128237
0.00120436
0.00130755
0.00130411
0.000843476
0.000843625
0.00108784
0.000939951
0.000770127
0.00112278
0.000777096
0.000943851
0.000974974
0.00123707
0.00106013
0.00119081
0.000806971
0.000762883
0.000845465
0.000770873
0.00104115
0.000852322
0.00108425
0.000953728
0.0011942
0.00109063
0.00124163
0.00120724
1.351e-06
1.35868e-06
1.36185e-06
1.36366e-06
1.34654e-06
1.31351e-06
1.31892e-06
1.31296e-06
1.30927e-06
1.31304e-06
1.32078e-06
1.31171e-06
1.25907e-06
1.30726e-06
1.22383e-06
1.31039e-06
1.25766e-06
1.30413e-06
1.25758e-06
1.28712e-06
1.29075e-06
1.22728e-06
1.27505e-06
1.30886e-06
1.31048e-06
1.27679e-06
1.29535e-06
0.00136047
0.00136233
0.00136024
0.00135192
0.00127601
0.00126116
0.00129448
0.00128395
0.000830932
0.000763757
0.000981691
0.000930892
0.00080556
0.00113046
0.00109159
0.000907954
0.000838396
0.000970486
0.000950101
0.00105539
0.00117401
0.00105807
0.000769217
0.000993997
0.000751669
0.000898608
0.000981798
0.00117776
0.000977492
0.00114067
0.000820403
0.000750439
0.00115709
0.00095399
1.35876e-06
1.35814e-06
1.36288e-06
1.35437e-06
1.35561e-06
1.34591e-06
1.34249e-06
1.34217e-06
1.34855e-06
1.33836e-06
1.3315e-06
1.32366e-06
1.22525e-06
1.31089e-06
1.29397e-06
1.28572e-06
1.24232e-06
1.2621e-06
1.24094e-06
1.31274e-06
1.25235e-06
1.28731e-06
1.25986e-06
1.2763e-06
1.28678e-06
1.25068e-06
1.31882e-06
1.2827e-06
1.30032e-06
1.14461e-06
1.32355e-06
1.17572e-06
0.00136295
0.00136231
0.00136021
0.00131644
0.00130573
0.0013281
0.00132671
0.00128097
0.00129048
0.00127046
0.00128277
0.000830564
0.000758762
0.000850529
0.000976812
0.000803108
0.00110219
0.00108847
0.00101049
0.00106487
0.0010809
0.00102283
0.00112362
0.00115977
0.00108389
0.00111384
0.000997488
0.0011591
0.00111385
0.00114063
0.00109488
1.36364e-06
1.36287e-06
1.36074e-06
1.3474e-06
1.31671e-06
1.31763e-06
1.31165e-06
1.31763e-06
1.32529e-06
1.32738e-06
1.24229e-06
1.29235e-06
1.30003e-06
1.23345e-06
1.28523e-06
1.26076e-06
1.2975e-06
1.23714e-06
1.28267e-06
1.25345e-06
1.2788e-06
1.2883e-06
1.2901e-06
1.26362e-06
1.27303e-06
1.22443e-06
1.32689e-06
1.2861e-06
1.31094e-06
1.23268e-06
1.24117e-06
1.10629e-06
1.29906e-06
1.12229e-06
0.00136255
0.00136151
0.00135842
0.00132528
0.0013094
0.00134512
0.00134019
0.00117283
0.00112658
0.00107999
0.00122875
0.00116638
0.00123788
0.00119201
0.00114781
0.00114338
0.00123312
0.0011754
0.00123684
0.00119871
0.00127566
0.000963197
0.00105722
0.00106431
0.0010953
0.00113103
0.00107279
0.00115199
0.00114462
1.36364e-06
1.363e-06
1.35658e-06
1.33817e-06
1.34055e-06
1.34051e-06
1.3397e-06
1.3317e-06
1.33328e-06
1.32327e-06
1.32622e-06
1.21606e-06
1.294e-06
1.24587e-06
1.29851e-06
1.27279e-06
1.30244e-06
1.22316e-06
1.2887e-06
1.30374e-06
1.2917e-06
1.2507e-06
1.29402e-06
1.27292e-06
1.26176e-06
1.25917e-06
1.29791e-06
1.28809e-06
1.23643e-06
1.29967e-06
1.27713e-06
0.00136209
0.00136158
0.00135571
0.00133758
0.00131565
0.00133523
0.00133317
0.00121722
0.00116009
0.000949721
0.00124054
0.00114572
0.00126582
0.00120721
0.00115746
0.00119433
0.00123868
0.00119992
0.00126725
0.00129255
0.00115564
0.00122269
0.000979379
0.00126817
0.00115732
0.00125123
0.00118076
0.000963539
0.00113348
0.00103544
0.00109603
1.36364e-06
1.36307e-06
1.35494e-06
1.32639e-06
1.33623e-06
1.33342e-06
1.33954e-06
1.32095e-06
1.32459e-06
1.30248e-06
1.30632e-06
1.28304e-06
1.25669e-06
1.29056e-06
1.22164e-06
1.29773e-06
1.30336e-06
1.27978e-06
1.25839e-06
1.28843e-06
1.22847e-06
1.28629e-06
1.2185e-06
1.24446e-06
1.19727e-06
1.25044e-06
1.17407e-06
1.29732e-06
1.25905e-06
0.00136184
0.00135918
0.00135042
0.00134685
0.00134464
0.00135109
0.00134657
0.00134722
0.00133808
0.00130398
0.00124075
0.00133234
0.00129339
0.00119903
0.00115256
0.00123542
0.000937313
0.00116689
0.000985158
0.00118715
0.00111792
0.00120978
0.0012068
0.00121553
0.00119509
0.00124215
0.00128893
0.00117003
0.00128397
0.00119105
1.36364e-06
1.36366e-06
1.35049e-06
1.33072e-06
1.34054e-06
1.32683e-06
1.33596e-06
1.20368e-06
1.28603e-06
1.2561e-06
1.28161e-06
1.31597e-06
1.30754e-06
1.22294e-06
1.31329e-06
1.30427e-06
1.28584e-06
1.26416e-06
1.28159e-06
1.31223e-06
1.24345e-06
1.32585e-06
1.29431e-06
1.32364e-06
1.26661e-06
1.36041e-06
1.33737e-06
1.23939e-06
1.126e-06
1.27434e-06
1.14557e-06
0.00136045
0.00136052
0.00134496
0.00134966
0.00134641
0.00135036
0.00135466
0.0013549
0.00129286
0.00131761
0.00126567
0.00130777
0.00125903
0.00128282
0.0012925
0.00125975
0.00130504
0.00128332
0.00124232
0.00129624
0.00122398
0.00128377
0.00128792
0.00125866
0.00101581
0.00120894
0.00118239
0.00125171
0.00130447
0.00127346
0.00126782
0.00116808
1.36365e-06
1.36272e-06
1.33641e-06
1.3168e-06
1.32425e-06
1.34167e-06
1.32786e-06
1.33246e-06
1.31028e-06
1.26177e-06
1.30215e-06
1.3165e-06
1.27248e-06
1.29835e-06
1.31569e-06
1.30607e-06
1.26607e-06
1.27417e-06
1.34081e-06
1.28464e-06
1.34273e-06
1.31301e-06
1.31067e-06
1.17449e-06
1.30982e-06
1.17118e-06
1.34202e-06
1.2106e-06
1.33394e-06
1.18599e-06
0.00135861
0.00135982
0.00132971
0.00126783
0.00130731
0.00134419
0.00133154
0.00127017
0.00130335
0.00134315
0.0013468
0.00134612
0.00130782
0.00131267
0.00126447
0.00127293
0.00130249
0.00130382
0.00127338
0.00120053
0.00131235
0.00118009
0.00129047
0.0013055
0.00115187
0.00121472
0.00112441
0.00111088
1.36267e-06
1.35716e-06
1.32913e-06
1.32806e-06
1.33445e-06
1.34701e-06
1.32901e-06
1.33297e-06
1.26148e-06
1.26761e-06
1.30808e-06
1.26336e-06
1.31451e-06
1.2955e-06
1.22653e-06
1.29264e-06
1.26227e-06
1.27146e-06
1.31298e-06
1.27055e-06
1.31363e-06
1.30051e-06
1.23724e-06
1.28746e-06
1.28592e-06
1.31742e-06
1.23654e-06
1.27393e-06
1.31787e-06
1.2626e-06
1.33231e-06
1.29258e-06
0.0013502
0.00128934
0.00131767
0.00131716
0.00128861
0.0013201
0.0013203
0.00126489
0.00125127
0.00129097
0.00122949
0.00129921
0.00124993
0.0012574
0.00127118
0.00131033
0.00125499
0.00124961
0.0012605
0.00125129
0.00129139
0.00122824
0.00130127
0.00124808
0.00125364
0.00127305
0.00131164
0.00125291
0.00124936
0.00126009
0.00127101
0.00123426
0.00126973
0.00124174
0.00127748
0.00123568
0.00127388
1.3556e-06
1.35279e-06
1.31987e-06
1.30856e-06
1.29554e-06
1.27153e-06
1.315e-06
1.28321e-06
1.27621e-06
1.34131e-06
1.31788e-06
1.33581e-06
1.3128e-06
1.32222e-06
1.26729e-06
1.24015e-06
1.22489e-06
1.28709e-06
1.34386e-06
1.31134e-06
1.29266e-06
1.26521e-06
1.26e-06
1.29423e-06
1.22082e-06
1.29237e-06
1.25254e-06
1.29587e-06
0.00131959
0.00126572
0.00125228
0.00126577
0.00125235
0.00130369
0.001305
0.00120316
0.00128103
0.00126323
0.00117562
0.00123357
0.00123013
0.00121988
0.00126088
0.00121495
0.00126226
0.0012412
0.00121103
0.00119751
0.0011738
0.00121192
0.00128163
0.00118088
0.00126383
0.00123334
0.00123074
0.00125639
0.00121874
0.00121429
0.00126307
0.00124542
0.00121135
0.00119563
0.001173
1.35316e-06
1.34455e-06
1.3208e-06