/*--------------------------------*- C++ -*----------------------------------*\
| =========                 |                                                 |
| \\      /  F ield         | OpenFOAM: The Open Source CFD Toolbox           |
|  \\    /   O peration     | Version:  5.x                                   |
|   \\  /    A nd           | Web:      www.OpenFOAM.org                      |
|    \\/     M anipulation  |                                                 |
\*---------------------------------------------------------------------------*/
FoamFile
{
    version     2.0;
    format      ascii;
    class       volVectorField;
    location    "1.1";
    object      U;
}
// * * * * * * * * * * * * * * * * * * * * * * * * * * * * * * * * * * * * * //

dimensions      [0 1 -1 0 0 0 0];

internalField   nonuniform List<vector> 
12160
(
(0.210334 0 0.0017654)
(0.214253 0 0.0034939)
(0.21015 0 -0.0019939)
(0.207768 0 0.00431746)
(0.213672 0 -0.00212463)
(0.209446 0 0.00188207)
(0.204598 0 0.00374726)
(0.206899 0 -0.000716934)
(0.212706 0 0.0055079)
(0.208384 0 -0.00123394)
(0.200971 0 0.00244834)
(0.203645 0 -0.000465017)
(0.206241 0 0.00846445)
(0.209758 0 -0.001087)
(0.20638 0 0.00463673)
(0.203107 0 0.00126536)
(0.200006 0 -0.00217128)
(0.203065 0 0.0076143)
(0.202299 0 0.00249333)
(0.207541 0 0.00875509)
(0.203539 0 0.00282237)
(0.205538 0 0.00056666)
(0.202434 0 -0.00314521)
(0.199505 0 0.00289934)
(0.199035 0 0.0025571)
(0.200887 0 0.013355)
(0.199858 0 -0.00073484)
(0.201089 0 0.0152274)
(0.208297 0 0.000618142)
(0.205405 0 -0.00352059)
(0.202432 0 -0.000705576)
(0.195828 0 -0.00239907)
(0.197599 0 0.0118522)
(0.192201 0 0.00619359)
(0.197335 0 0.0125247)
(0.195468 0 0.0127306)
(0.208334 0 0.000850577)
(0.208596 0 -0.00216157)
(0.205993 0 -0.00240307)
(0.199842 0 -0.00628815)
(0.194671 0 0.00285845)
(0.189388 0 0.00542369)
(0.191202 0 0.0191007)
(0.174987 0 -0.0010918)
(0.125082 0 0.0415319)
(0.20459 0 0.0015668)
(0.208826 0 0.000341801)
(0.210138 0 -0.000874743)
(0.205223 0 -0.00794558)
(0.200162 0 -0.0041058)
(0.187325 0 -0.00396449)
(0.187328 0 0.0152886)
(0.172255 0 0.0118278)
(0.130891 0 0.0196859)
(-0.330435 0 -0.0989117)
(0.196457 0 0.00249455)
(0.205325 0 0.00356685)
(0.210963 0 0.0025029)
(0.210776 0 -0.00525524)
(0.206312 0 -0.00697474)
(0.19577 0 -0.0121846)
(0.184601 0 0.00116613)
(0.174632 0 0.00949042)
(0.158552 0 0.020331)
(-0.0984675 0 -0.0196648)
(-0.180959 0 0.188905)
(0.184596 0 0.0033367)
(0.197335 0 0.00670435)
(0.207447 0 0.00732136)
(0.212432 0 0.000411365)
(0.213752 0 -0.0037792)
(0.205056 0 -0.0156358)
(0.193857 0 -0.01014)
(0.176899 0 -0.00715768)
(0.186046 0 0.0115921)
(-0.0463974 0 -0.00745238)
(0.0607248 0 -0.0911045)
(0.0450671 0 -0.0207984)
(0.169769 0 0.00398676)
(0.185361 0 0.0093999)
(0.199222 0 0.0123763)
(0.209771 0 0.00784547)
(0.216821 0 0.00372653)
(0.215298 0 -0.0114933)
(0.205309 0 -0.014857)
(0.190563 0 -0.0225352)
(0.200258 0 -0.00624393)
(0.053678 0 -0.00556623)
(-0.0693022 0 -0.0412904)
(0.0715814 0 -0.0576815)
(0.0163081 0 0.102967)
(0.153045 0 0.00440104)
(0.170333 0 0.0114364)
(0.186892 0 0.0167764)
(0.201728 0 0.0153276)
(0.214308 0 0.0134287)
(0.220222 0 -0.00176217)
(0.21894 0 -0.00988722)
(0.20569 0 -0.029748)
(0.229809 0 -0.0215257)
(0.143736 0 -0.0258059)
(-0.0159063 0 -0.0608439)
(0.0233566 0 0.0114239)
(-0.0137595 0 -0.075744)
(0.0765168 0 0.00760155)
(0.13542 0 0.00459468)
(0.153388 0 0.0127339)
(0.171419 0 0.0200731)
(0.189012 0 0.0217955)
(0.205784 0 0.0234798)
(0.218913 0 0.0113444)
(0.226338 0 0.00303708)
(0.222967 0 -0.0235311)
(0.255586 0 -0.0270345)
(0.251688 0 -0.0466973)
(0.0289601 0 -0.081284)
(0.0669932 0 -0.0534769)
(0.00510578 0 -0.0332981)
(0.0376883 0 -0.050002)
(-0.0196766 0 0.0355154)
(0.117699 0 0.00461102)
(0.135567 0 0.0133584)
(0.154019 0 0.0221258)
(0.172913 0 0.0266159)
(0.192286 0 0.0320786)
(0.21048 0 0.0241592)
(0.225482 0 0.0186373)
(0.232234 0 -0.00658389)
(0.279936 0 -0.0189061)
(0.353602 0 -0.0538324)
(0.117743 0 -0.108515)
(0.0710117 0 -0.0932637)
(0.0327135 0 -0.0688984)
(0.0111365 0 -0.0133547)
(-0.0254218 0 -0.0550506)
(0.100454 0 0.00450126)
(0.11769 0 0.0134504)
(0.135798 0 0.0230482)
(0.154845 0 0.0296153)
(0.175214 0 0.0383426)
(0.196063 0 0.0349432)
(0.216174 0 0.0349889)
(0.232658 0 0.0150495)
(0.293419 0 0.000442215)
(0.439683 0 -0.0423753)
(0.247149 0 -0.115368)
(0.0810059 0 -0.135616)
(0.0261998 0 -0.0833394)
(0.0164517 0 -0.0676043)
(0.00013819 0 -0.0246587)
(0.0840341 0 0.00431367)
(0.100337 0 0.0131716)
(0.117613 0 0.0230807)
(0.136035 0 0.0309893)
(0.156174 0 0.0420774)
(0.177684 0 0.0426371)
(0.200546 0 0.0490409)
(0.223841 0 0.036889)
(0.296875 0 0.0263504)
(0.490103 0 -0.0158566)
(0.385926 0 -0.0875686)
(0.078715 0 -0.160741)
(0.023979 0 -0.113578)
(0.0110692 0 -0.0911226)
(0.00588741 0 -0.0678271)
(0.0686055 0 0.00409049)
(0.0838546 0 0.0126726)
(0.10005 0 0.0224975)
(0.117397 0 0.031101)
(0.136536 0 0.0435973)
(0.157329 0 0.047065)
(0.180646 0 0.059109)
(0.206887 0 0.0537401)
(0.289698 0 0.0507522)
(0.507484 0 0.0156538)
(0.492519 0 -0.0337246)
(0.081966 0 -0.149109)
(0.00372073 0 -0.122913)
(0.00824998 0 -0.12152)
(0.00482568 0 -0.0866761)
(0.0541903 0 0.00386793)
(0.0684024 0 0.0120814)
(0.0834505 0 0.0215529)
(0.099532 0 0.0303492)
(0.117274 0 0.0434254)
(0.13659 0 0.0487162)
(0.158798 0 0.0647382)
(0.184903 0 0.0639433)
(0.274635 0 0.0689896)
(0.505579 0 0.0470795)
(0.546551 0 0.0115713)
(0.0969451 0 -0.0919803)
(-0.0212937 0 -0.104847)
(-0.00706879 0 -0.131072)
(0.00303389 0 -0.114288)
(0.0407056 0 0.00367755)
(0.0539941 0 0.0114954)
(0.0679588 0 0.0204618)
(0.0827691 0 0.0290953)
(0.0989952 0 0.0421196)
(0.116521 0 0.0483183)
(0.136835 0 0.0668089)
(0.160981 0 0.0684057)
(0.255643 0 0.0798065)
(0.491256 0 0.0713899)
(0.551276 0 0.0490693)
(0.113295 0 -0.0104413)
(-0.0410098 0 -0.0589218)
(-0.022518 0 -0.113515)
(-0.00232868 0 -0.121002)
(0.0280022 0 0.00354032)
(0.0405391 0 0.0109828)
(0.0535735 0 0.0193917)
(0.067232 0 0.0276397)
(0.0820053 0 0.0401742)
(0.0977313 0 0.0466034)
(0.115898 0 0.066316)
(0.137396 0 0.0686057)
(0.235806 0 0.0851414)
(0.470935 0 0.0858676)
(0.513833 0 0.0807135)
(0.111265 0 0.0648162)
(-0.0468667 0 0.00100605)
(-0.0352994 0 -0.0662827)
(-0.0079469 0 -0.103843)
(0.0158901 0 0.00346007)
(0.0278831 0 0.0105889)
(0.0401894 0 0.0184659)
(0.0528939 0 0.0262111)
(0.066395 0 0.0379939)
(0.0804915 0 0.0441829)
(0.0965963 0 0.064155)
(0.115244 0 0.0660325)
(0.216562 0 0.0862872)
(0.448752 0 0.0921401)
(0.445782 0 0.101853)
(0.0902949 0 0.124533)
(-0.0402445 0 0.0617011)
(-0.0388981 0 -0.00445563)
(-0.0125662 0 -0.0600303)
(0.00417341 0 0.00343733)
(0.0158306 0 0.0103486)
(0.0276371 0 0.0177661)
(0.0396258 0 0.0249748)
(0.0521025 0 0.0358862)
(0.064845 0 0.0415441)
(0.0791299 0 0.0610792)
(0.0950938 0 0.0618955)
(0.198417 0 0.0844469)
(0.42405 0 0.0932665)
(0.36094 0 0.114858)
(0.0644046 0 0.153686)
(-0.0261551 0 0.110611)
(-0.0340664 0 0.0584334)
(-0.0138738 0 -0.00252574)
(-0.0073629 0 0.00347238)
(0.00418022 0 0.0102795)
(0.0157088 0 0.0173412)
(0.0272385 0 0.0240392)
(0.038968 0 0.0340729)
(0.050683 0 0.0390404)
(0.0634732 0 0.0576842)
(0.0771403 0 0.0571354)
(0.181124 0 0.0807273)
(0.394054 0 0.0913514)
(0.270709 0 0.123738)
(0.0440635 0 0.161997)
(-0.0112605 0 0.137492)
(-0.0227173 0 0.105566)
(-0.0117468 0 0.0549551)
(-0.0189103 0 0.00356262)
(-0.00728788 0 0.0103843)
(0.00419391 0 0.017214)
(0.0155078 0 0.0234717)
(0.026776 0 0.0327012)
(0.0378025 0 0.0369146)
(0.0494522 0 0.0544206)
(0.0613172 0 0.0524295)
(0.163983 0 0.0760742)
(0.355046 0 0.0880588)
(0.19235 0 0.129334)
(0.0355351 0 0.155573)
(0.000512717 0 0.148039)
(-0.0101379 0 0.132502)
(-0.00718012 0 0.100408)
(-0.0306234 0 0.00370248)
(-0.0187701 0 0.0106553)
(-0.00713579 0 0.0173882)
(0.00420842 0 0.0233051)
(0.015281 0 0.0318614)
(0.0259517 0 0.03532)
(0.036813 0 0.0516156)
(0.0474012 0 0.0482175)
(0.146011 0 0.0712051)
(0.307399 0 0.0846773)
(0.133829 0 0.132392)
(0.0308198 0 0.142672)
(0.00778547 0 0.148859)
(-0.000756026 0 0.14382)
(-0.00267167 0 0.128143)
(-0.0426424 0 0.00388891)
(-0.0304257 0 0.0110753)
(-0.0184856 0 0.0178507)
(-0.00690173 0 0.0235457)
(0.00423933 0 0.0315967)
(0.0148547 0 0.0343457)
(0.0252667 0 0.0494891)
(0.0350845 0 0.0447673)
(0.126223 0 0.0666481)
(0.255518 0 0.0821614)
(0.0932203 0 0.130557)
(0.0264118 0 0.131021)
(0.0113963 0 0.143696)
(0.00480816 0 0.145079)
(0.000531753 0 0.140851)
(-0.0550638 0 0.00411864)
(-0.0423998 0 0.011615)
(-0.0300221 0 0.0185724)
(-0.0180411 0 0.0241753)
(-0.00660768 0 0.0319172)
(0.00424304 0 0.0340326)
(0.0145124 0 0.0481782)
(0.0240241 0 0.0422246)
(0.103621 0 0.0627852)
(0.202365 0 0.0811977)
(0.0647946 0 0.124858)
(0.0221414 0 0.121569)
(0.0125359 0 0.135696)
(0.00753265 0 0.141059)
(0.00238332 0 0.143451)
(-0.0679407 0 0.00437034)
(-0.0547924 0 0.0122345)
(-0.0418963 0 0.0195116)
(-0.0293883 0 0.0251543)
(-0.0174949 0 0.032798)
(-0.00616466 0 0.0343898)
(0.00426529 0 0.0477479)
(0.0138652 0 0.040659)
(0.077509 0 0.0598675)
(0.151123 0 0.0819013)
(0.0444079 0 0.117937)
(0.0182898 0 0.114356)
(0.0120248 0 0.127266)
(0.00837617 0 0.13436)
(0.00321613 0 0.140267)
(-0.0812791 0 0.00462036)
(-0.0676583 0 0.0128991)
(-0.054217 0 0.0206131)
(-0.0411054 0 0.0264246)
(-0.0286154 0 0.0341804)
(-0.0166294 0 0.035387)
(-0.00577296 0 0.0482317)
(0.00428428 0 0.0400886)
(0.0479054 0 0.0580481)
(0.10369 0 0.0839059)
(0.0295121 0 0.110934)
(0.0145987 0 0.109064)
(0.0106806 0 0.119251)
(0.00803751 0 0.127058)
(0.00337925 0 0.134113)
(-0.095034 0 0.00484894)
(-0.0810065 0 0.0135661)
(-0.0670484 0 0.0218068)
(-0.0533111 0 0.0279098)
(-0.040145 0 0.0359852)
(-0.0273654 0 0.036966)
(-0.0158773 0 0.0495892)
(-0.00506043 0 0.0405229)
(0.0159221 0 0.0573799)
(0.0598139 0 0.0864105)
(0.0181908 0 0.105663)
(0.0109003 0 0.105238)
(0.00886027 0 0.11216)
(0.00711324 0 0.1201)
(0.00314746 0 0.127071)
(-0.109108 0 0.0050366)
(-0.0947954 0 0.0141832)
(-0.0804064 0 0.0230107)
(-0.0660804 0 0.0295179)
(-0.0522165 0 0.0381083)
(-0.0385656 0 0.039045)
(-0.0262728 0 0.0517146)
(-0.0145145 0 0.0419159)
(-0.0166258 0 0.0579547)
(0.0181445 0 0.0882774)
(0.00948859 0 0.10312)
(0.00704361 0 0.10266)
(0.00659616 0 0.106528)
(0.00591375 0 0.114028)
(0.00271962 0 0.120244)
(-0.123354 0 0.00516536)
(-0.108931 0 0.0146936)
(-0.0942562 0 0.024135)
(-0.0794412 0 0.0311407)
(-0.0649193 0 0.0404231)
(-0.0503833 0 0.0415155)
(-0.0371684 0 0.0544884)
(-0.0243443 0 0.0442013)
(-0.0475726 0 0.0597186)
(-0.0222579 0 0.0887707)
(0.00113274 0 0.101895)
(0.00342774 0 0.101572)
(0.00408728 0 0.102643)
(0.0045754 0 0.109087)
(0.00220348 0 0.114214)
(-0.137583 0 0.00521717)
(-0.123269 0 0.0150399)
(-0.10851 0 0.0250839)
(-0.0933705 0 0.0326563)
(-0.078297 0 0.0427827)
(-0.0629286 0 0.0442428)
(-0.0487347 0 0.0577514)
(-0.0347834 0 0.0472981)
(-0.0753452 0 0.062497)
(-0.0632025 0 0.0880898)
(-0.00533727 0 0.102639)
(-5.23964e-05 0 0.101701)
(0.00177112 0 0.100526)
(0.00302235 0 0.105527)
(0.00163268 0 0.109296)
(-0.151564 0 0.00517568)
(-0.13762 0 0.015164)
(-0.123027 0 0.0257596)
(-0.10779 0 0.0339337)
(-0.0923414 0 0.045023)
(-0.0762657 0 0.0470649)
(-0.0611039 0 0.0613144)
(-0.0460383 0 0.0510937)
(-0.0994265 0 0.0661579)
(-0.105331 0 0.0868736)
(-0.0139762 0 0.105574)
(-0.00354457 0 0.102706)
(-0.00038151 0 0.0999485)
(0.00134838 0 0.103722)
(0.00102416 0 0.10579)
(-0.165037 0 0.0050274)
(-0.151751 0 0.0150131)
(-0.137619 0 0.0260641)
(-0.122564 0 0.034835)
(-0.106987 0 0.046966)
(-0.0904068 0 0.0497936)
(-0.0743664 0 0.0649612)
(-0.0582683 0 0.0554408)
(-0.120091 0 0.0705115)
(-0.149003 0 0.0861098)
(-0.0224283 0 0.109421)
(-0.00699763 0 0.104283)
(-0.00246795 0 0.100809)
(-0.000172347 0 0.103328)
(0.000451672 0 0.103865)
(-0.177723 0 0.00476353)
(-0.165397 0 0.0145426)
(-0.152047 0 0.0259071)
(-0.137505 0 0.0352215)
(-0.12211 0 0.0484243)
(-0.105304 0 0.0522162)
(-0.0885637 0 0.0684519)
(-0.0715854 0 0.0601491)
(-0.138044 0 0.0753327)
(-0.194098 0 0.0864035)
(-0.0331728 0 0.115373)
(-0.0105122 0 0.106684)
(-0.00447888 0 0.10299)
(-0.00164985 0 0.104229)
(-0.000102794 0 0.103377)
(-0.189365 0 0.00438251)
(-0.178269 0 0.0137223)
(-0.166036 0 0.0252112)
(-0.152371 0 0.0349621)
(-0.137525 0 0.0492075)
(-0.120848 0 0.0541012)
(-0.103678 0 0.0715273)
(-0.0860463 0 0.0649787)
(-0.154086 0 0.0803627)
(-0.239289 0 0.0879931)
(-0.0466824 0 0.122621)
(-0.0142929 0 0.110327)
(-0.00667213 0 0.106421)
(-0.00316512 0 0.106316)
(-0.000619188 0 0.104262)
(-0.199583 0 0.00389222)
(-0.190096 0 0.0125419)
(-0.179282 0 0.0239238)
(-0.166872 0 0.0339425)
(-0.152987 0 0.0491315)
(-0.136863 0 0.055214)
(-0.119623 0 0.0739163)
(-0.101641 0 0.0696341)
(-0.168936 0 0.0853157)
(-0.282692 0 0.0907812)
(-0.0641023 0 0.129896)
(-0.017999 0 0.114971)
(-0.00911066 0 0.11129)
(-0.00476547 0 0.109597)
(-0.00110706 0 0.106425)
(-0.200497 0 0.0110127)
(-0.213021 0 0.00282503)
(-0.191497 0 0.0220226)
(-0.180681 0 0.0320819)
(-0.168192 0 0.0480322)
(-0.153102 0 0.0553124)
(-0.136264 0 0.0753288)
(-0.118286 0 0.0737655)
(-0.183181 0 0.0898801)
(-0.322676 0 0.0943618)
(-0.0866948 0 0.136455)
(-0.021765 0 0.120716)
(-0.0114631 0 0.117507)
(-0.00628453 0 0.114266)
(-0.00164252 0 0.109822)
(-0.20231 0 0.0195188)
(-0.213992 0 0.0077768)
(-0.223506 0 0.000806022)
(-0.193481 0 0.0293464)
(-0.182781 0 0.0457895)
(-0.169243 0 0.0541648)
(-0.153339 0 0.075473)
(-0.135804 0 0.0769937)
(-0.197376 0 0.093718)
(-0.35805 0 0.0982674)
(-0.116106 0 0.141054)
(-0.0257182 0 0.12775)
(-0.0135547 0 0.124834)
(-0.00768328 0 0.119986)
(-0.00222831 0 0.1145)
(-0.204858 0 0.0257554)
(-0.216397 0 0.0143699)
(-0.224968 0 0.00157932)
(-0.221278 0 -0.00161159)
(-0.196389 0 0.0423507)
(-0.184888 0 0.0515904)
(-0.170512 0 0.0740804)
(-0.15397 0 0.0789176)
(-0.211783 0 0.0964673)
(-0.386531 0 0.101959)
(-0.154758 0 0.141918)
(-0.029991 0 0.136366)
(-0.015403 0 0.13294)
(-0.00900923 0 0.126568)
(-0.0028179 0 0.120281)
(-0.208592 0 0.0377629)
(-0.219801 0 0.0184113)
(-0.228438 0 0.00451229)
(-0.223899 0 -0.00604015)
(-0.207528 0 -0.00519812)
(-0.199593 0 0.0474933)
(-0.187336 0 0.0708688)
(-0.172464 0 0.0790881)
(-0.226562 0 0.097788)
(-0.409552 0 0.104929)
(-0.204729 0 0.139946)
(-0.0345373 0 0.146526)
(-0.0168758 0 0.141555)
(-0.0102132 0 0.133875)
(-0.00339207 0 0.12694)
(-0.2128 0 0.041944)
(-0.224906 0 0.0284083)
(-0.232949 0 0.00440375)
(-0.22797 0 -0.00708098)
(-0.212152 0 -0.0152612)
(-0.169453 0 -0.0105576)
(-0.203259 0 0.0656275)
(-0.190879 0 0.0770221)
(-0.241757 0 0.0973436)
(-0.429094 0 0.106643)
(-0.265019 0 0.137271)
(-0.0391898 0 0.158323)
(-0.0176241 0 0.150379)
(-0.011183 0 0.141678)
(-0.00392784 0 0.134229)
(-0.217573 0 0.0585097)
(-0.230654 0 0.0306948)
(-0.239905 0 0.0104526)
(-0.233993 0 -0.0122211)
(-0.216308 0 -0.020624)
(-0.183216 0 -0.0275422)
(-0.141939 0 -0.0275027)
(-0.208475 0 0.0722196)
(-0.257188 0 0.0947566)
(-0.446781 0 0.106509)
(-0.331601 0 0.13389)
(-0.0443804 0 0.17115)
(-0.0172864 0 0.158775)
(-0.0116837 0 0.149575)
(-0.00438446 0 0.141886)
(-0.224029 0 0.0646311)
(-0.237239 0 0.0445985)
(-0.24728 0 0.00880776)
(-0.241942 0 -0.00986346)
(-0.224625 0 -0.0302461)
(-0.192078 0 -0.037463)
(-0.166625 0 -0.0614104)
(0.0133688 0 -0.0260535)
(-0.272251 0 0.0894639)
(-0.464166 0 0.103775)
(-0.397071 0 0.129567)
(-0.0515804 0 0.181556)
(-0.0157198 0 0.165728)
(-0.0114235 0 0.156925)
(-0.0046844 0 0.149479)
(-0.285437 0 0.0812835)
(-0.245448 0 0.0494818)
(-0.256602 0 0.0181398)
(-0.25057 0 -0.0167934)
(-0.233125 0 -0.0307146)
(-0.20745 0 -0.0508317)
(-0.180658 0 -0.0760766)
(-0.0648747 0 -0.0758131)
(0.0395864 0 -0.103684)
(-0.481974 0 0.097374)
(-0.457179 0 0.122752)
(-0.0658562 0 0.185942)
(-0.0123217 0 0.170496)
(-0.01015 0 0.162924)
(-0.00472475 0 0.156367)
(-0.49588 0 0.0864568)
(-0.303476 0 0.066766)
(-0.266357 0 0.0160953)
(-0.261091 0 -0.0104981)
(-0.242795 0 -0.0419612)
(-0.218786 0 -0.0521092)
(-0.20179 0 -0.0862394)
(-0.123943 0 -0.0944865)
(-0.0550391 0 -0.161617)
(0.432316 0 -0.0321858)
(-0.512605 0 0.11314)
(-0.0860115 0 0.182563)
(-0.00666517 0 0.172293)
(-0.00734624 0 0.166834)
(-0.00439286 0 0.161702)
(-0.561339 0 0.100177)
(-0.505017 0 0.0659148)
(-0.320661 0 0.0321947)
(-0.271999 0 -0.021206)
(-0.252659 0 -0.0385527)
(-0.229458 0 -0.0654944)
(-0.209736 0 -0.0798448)
(-0.183985 0 -0.110163)
(-0.141968 0 -0.179493)
(0.101486 0 -0.082259)
(0.201735 0 0.117329)
(-0.110591 0 0.169796)
(0.00221651 0 0.169262)
(-0.00269781 0 0.167179)
(-0.00350203 0 0.164542)
(-0.13717 0 0.145694)
(-0.596386 0 0.0639134)
(-0.506929 0 0.0227747)
(-0.323496 0 -0.00733646)
(-0.264818 0 -0.0565554)
(-0.237934 0 -0.0627402)
(-0.218385 0 -0.0880823)
(-0.206421 0 -0.0967928)
(-0.214628 0 -0.168785)
(-0.0907238 0 -0.0536273)
(-0.00322545 0 0.140478)
(0.084206 0 0.94288)
(0.0113332 0 0.159824)
(0.00497828 0 0.162386)
(-0.00195495 0 0.163416)
(0.0238745 0 0.140481)
(-0.154186 0 0.0824383)
(-0.595363 0 0.0191576)
(-0.493281 0 -0.0256235)
(-0.312728 0 -0.0417652)
(-0.249714 0 -0.0849638)
(-0.223803 0 -0.0837171)
(-0.214468 0 -0.103669)
(-0.234176 0 -0.127533)
(-0.253316 0 -0.0729145)
(-0.193399 0 0.189698)
(0.0332253 0 0.932264)
(0.208625 8.81436e-28 1.01611)
(0.067594 0 1.06865)
(0.0134479 0 0.149875)
(0.000753937 0 0.157232)
(0.0254831 0 0.130127)
(0.036533 0 0.0816573)
(-0.166172 0 -0.00184904)
(-0.540364 0 -0.0394337)
(-0.438579 0 -0.0730018)
(-0.29115 0 -0.0689512)
(-0.234335 0 -0.103699)
(-0.215504 0 -0.0945748)
(-0.229323 0 -0.114573)
(-0.291807 0 -0.0446636)
(-0.267385 0 0.138461)
(-0.0400361 0 0.839452)
(0.187213 1.13166e-27 0.907963)
(0.327035 -2.71255e-30 1.03464)
(0.158566 7.2233e-28 1.09713)
(0.0270595 0 1.13648)
(0.00378167 0 0.143152)
(0.0087317 0 0.123807)
(0.035867 0 0.0762918)
(0.0442819 0 0.00364989)
(-0.119731 0 -0.107347)
(-0.423722 0 -0.113098)
(-0.349666 0 -0.111418)
(-0.261081 0 -0.0885889)
(-0.22088 0 -0.113954)
(-0.21908 0 -0.0967838)
(-0.25538 0 -0.0624661)
(-0.268102 0 0.128921)
(-0.142407 0 0.656997)
(0.115531 0 0.784333)
(0.332106 0 0.887238)
(0.492777 1.51002e-26 1.08074)
(0.272671 -1.92712e-30 1.15608)
(0.117358 3.05689e-28 1.18527)
(0.0268276 0 1.18484)
(0.0135249 0 0.0725936)
(0.0427269 0 -0.00358857)
(0.0527186 0 -0.0829362)
(-0.0715661 0 -0.199871)
(-0.268086 0 -0.168403)
(-0.254702 0 -0.138295)
(-0.230851 0 -0.10138)
(-0.208179 0 -0.117593)
(-0.208698 0 -0.0507014)
(-0.220911 0 0.0710642)
(-0.190628 0 0.477682)
(0.0865851 0 0.613893)
(0.305822 0 0.732739)
(0.513381 4.90428e-26 0.913847)
(0.724797 -5.70796e-30 1.12466)
(0.419892 1.05007e-26 1.24082)
(0.194714 0 1.2532)
(0.0582713 0 1.22421)
(0.008942 0 1.20511)
(0.0166942 0 -0.00323935)
(0.0467443 0 -0.0919868)
(0.043534 0 -0.152426)
(-0.0479601 0 -0.242759)
(-0.121991 0 -0.188633)
(-0.168082 0 -0.155888)
(-0.203231 0 -0.109669)
(-0.176215 0 -0.096869)
(-0.171346 0 0.0355754)
(-0.124366 0 0.289851)
(0.122577 0 0.402603)
(0.295439 -4.72367e-27 0.519499)
(0.498377 2.89329e-26 0.726694)
(0.753047 0 0.883836)
(0.987417 4.64928e-25 1.22078)
(0.623313 -4.30513e-30 1.38246)
(0.304673 9.21981e-27 1.37603)
(0.107643 0 1.3066)
(0.0140813 0 1.2438)
(-0.0136962 0 1.19781)
(0.0170031 0 -0.0881957)
(0.0387143 0 -0.164144)
(0.0252796 0 -0.193872)
(-0.0403679 0 -0.247064)
(-0.022665 0 -0.186091)
(-0.093182 0 -0.17137)
(-0.156559 0 -0.10219)
(-0.128388 0 -0.0610218)
(-0.024879 0 0.15574)
(0.15101 0 0.183827)
(0.288152 -5.14532e-27 0.357988)
(0.458607 0 0.526404)
(0.744911 -1.84189e-25 0.705525)
(0.983789 -6.77878e-25 0.879314)
(1.28687 7.52295e-10 1.09846)
(0.832301 0 1.40501)
(0.42319 0 1.50987)
(0.142946 -2.15659e-26 1.42463)
(0.0125239 4.87663e-27 1.3161)
(-0.0321212 0 1.22757)
(-0.0229018 0 1.1618)
(0.0130951 0 -0.155581)
(0.0258104 0 -0.206898)
(0.0100353 0 -0.209777)
(-0.0310035 0 -0.235653)
(0.0343798 0 -0.186313)
(-0.0044354 0 -0.182769)
(-0.0990488 0 -0.0961879)
(0.0183064 0 -0.00494021)
(0.151216 0 0.0717155)
(0.273048 -2.78954e-42 0.231803)
(0.418271 0 0.360679)
(0.729207 3.05467e-25 0.529984)
(0.901891 -2.00751e-24 0.633879)
(1.31484 -1.16131e-09 0.895794)
(1.38805 6.04751e-09 0.897033)
(0.98283 -3.13925e-10 1.27783)
(1.37949 7.83201e-10 0.898205)
(1.39882 6.19866e-09 0.873066)
(1.39666 7.84903e-10 0.874866)
(0.492638 1.20938e-24 1.52205)
(0.177087 4.09283e-25 1.55068)
(0.00201471 -2.62641e-26 1.42973)
(-0.0598131 1.4684e-26 1.29005)
(-0.0775839 0 1.19447)
(-0.0375191 0 1.10944)
(0.00791668 0 -0.196539)
(0.0141669 0 -0.223301)
(0.00633998 0 -0.21203)
(-0.0120387 0 -0.228029)
(0.0743477 0 -0.19791)
(0.0878616 0 -0.199108)
(0.022223 0 -0.0810088)
(0.142021 0 -0.0490999)
(0.254034 -2.52614e-42 0.142472)
(0.390432 0 0.188783)
(0.660057 0 0.370043)
(0.827163 1.21599e-24 0.434287)
(1.20112 -1.1591e-24 0.568082)
(1.57597 -7.75662e-10 0.641324)
(1.18769 7.02691e-09 0.96965)
(1.45024 1.3588e-08 0.722641)
(0.596832 -3.02828e-09 1.27857)
(1.17947 1.23413e-09 0.967986)
(0.996809 5.84609e-09 1.00434)
(0.995769 5.16368e-10 1.00469)
(1.44591 4.61782e-10 0.714193)
(1.50713 1.00906e-08 0.627767)
(1.49049 1.79125e-10 0.633529)
(0.127397 3.27308e-24 1.51105)
(-0.0434616 -6.76866e-25 1.49868)
(-0.110118 0 1.3694)
(-0.133292 9.06891e-27 1.24743)
(-0.114389 0 1.1314)
(-0.0495469 0 1.01985)
(0.00377384 0 -0.214741)
(0.00933652 0 -0.226194)
(0.0104626 0 -0.215666)
(0.00742172 0 -0.23077)
(0.101765 0 -0.218079)
(0.199635 0 -0.217083)
(0.135247 0 -0.0963032)
(0.23007 2.23307e-28 -0.0140282)
(0.404646 5.43146e-28 0.090447)
(0.587887 1.17917e-25 0.156415)
(0.833064 0 0.33941)
(1.07736 -1.42405e-24 0.300107)
(1.48428 -5.43975e-09 0.460664)
(1.63498 -5.80082e-09 0.308047)
(1.6223 8.05923e-09 0.310573)
(1.66334 7.12826e-10 0.307313)
(1.6626 3.94513e-10 0.306578)
(1.19314 1.48084e-08 0.797346)
(1.51198 1.36447e-08 0.538357)
(-0.0233178 2.10393e-24 1.01256)
(0.177604 -1.88132e-10 0.616849)
(1.17377 7.50293e-10 0.792094)
(0.850982 1.24176e-08 0.786194)
(0.846722 3.38565e-10 0.772865)
(1.48145 6.30437e-10 0.535568)
(1.6117 1.07908e-08 0.44709)
(1.59716 -2.45798e-09 0.444046)
(-0.183684 3.45781e-25 1.33698)
(-0.212624 0 1.40378)
(-0.209235 0 1.29836)
(-0.202282 1.02282e-26 1.17474)
(-0.146607 0 1.04647)
(-0.0536583 0 0.938977)
(0.002097 0 -0.220518)
(0.00972548 0 -0.229003)
(0.0185856 0 -0.223113)
(0.022654 0 -0.241116)
(0.112483 0 -0.288495)
(0.350849 0 -0.205395)
(0.21487 0 -0.104901)
(0.396313 -2.89753e-29 -0.0596174)
(0.526025 0 0.00145564)
(0.826531 2.05627e-25 0.18162)
(0.93528 1.99038e-24 0.133355)
(1.26158 -2.12411e-09 0.255663)
(1.65098 -1.63007e-10 0.240409)
(1.65074 3.57332e-10 0.236775)
(1.6114 5.87117e-10 0.251163)
(1.60326 2.79219e-10 0.249859)
(1.7061 -8.61991e-09 0.146976)
(1.69658 6.79527e-09 0.140044)
(1.77013 -1.28895e-09 0.146408)
(1.77308 9.08838e-10 0.145448)
(1.16837 1.22111e-08 0.408597)
(1.74877 2.26588e-08 0.24746)
(1.23198 1.11613e-08 0.181189)
(1.77918 1.66041e-08 0.240882)
(1.30565 2.76085e-09 0.126787)
(-0.399096 7.63203e-24 0.751533)
(-0.478252 -6.27542e-09 0.323913)
(-0.371498 -9.76751e-10 -0.0356697)
(-0.276667 -1.05133e-09 0.0303944)
(0.369856 -3.30609e-09 0.244316)
(0.371159 1.31725e-08 0.24525)
(1.15548 2.34438e-09 0.399767)
(0.769774 1.17389e-08 0.273423)
(0.765661 1.62526e-09 0.27975)
(1.71973 -7.88625e-09 0.233069)
(1.2658 -6.50982e-09 0.176317)
(1.74932 1.0745e-09 0.232604)
(1.28703 -2.49643e-09 0.117276)
(1.82787 2.99265e-08 0.178317)
(1.44735 2.0846e-08 0.255036)
(1.83346 2.57475e-08 0.141543)
(1.40965 4.40014e-09 0.151453)
(1.80638 -1.56565e-08 0.172172)
(1.47291 -1.12434e-08 0.259588)
(1.80643 -8.06861e-09 0.131984)
(1.38171 -4.35022e-09 0.138726)
(-0.387198 0 1.18906)
(-0.330599 -1.88824e-25 1.28173)
(-0.299332 0 1.21123)
(-0.252244 1.09438e-26 1.08659)
(-0.170321 0 0.949817)
(-0.0652144 0 0.819956)
(0.00214509 0 -0.225369)
(0.0124422 0 -0.235073)
(0.0202769 0 -0.235497)
(0.0333048 0 -0.240941)
(0.0918669 0 -0.328677)
(0.495685 0 -0.232179)
(0.371131 0 -0.125273)
(0.485675 0 -0.111011)
(0.716975 2.83908e-25 0.0647059)
(0.89408 1.34131e-24 0.0172658)
(1.15567 -4.41462e-10 0.106455)
(1.465 1.02184e-09 0.131177)
(1.45662 -3.4891e-11 0.122976)
(1.43106 1.5161e-09 0.0494544)
(1.43042 -4.12138e-10 0.0525761)
(1.6789 -5.79077e-09 0.0499564)
(1.67926 1.98168e-09 0.0523043)
(1.66708 -7.52383e-09 0.0864753)
(1.67106 1.54821e-09 0.0870026)
(1.41403 1.8885e-09 -0.155093)
(1.39661 1.87216e-09 0.156155)
(1.84449 1.27835e-09 -0.150978)
(1.46932 2.67161e-09 -0.0160891)
(1.91376 3.54094e-09 -0.0402396)
(1.92452 1.20963e-09 -0.116787)
(1.40517 -1.42947e-09 0.168923)
(1.40571 6.4817e-10 -0.165063)
(1.8394 -1.20131e-09 -0.154156)
(1.45989 -1.78644e-09 -0.0226308)
(1.88904 -4.65856e-09 -0.0503575)
(1.90636 -1.16172e-09 -0.123086)
(1.50424 3.03349e-09 -0.0727536)
(1.93533 7.19697e-09 -0.0296539)
(1.50412 2.62255e-09 -0.0704622)
(1.95213 5.90344e-09 -0.0572215)
(1.51453 -2.42604e-09 -0.0688001)
(1.93656 -4.50523e-09 -0.0328396)
(1.51139 -2.16221e-09 -0.0695193)
(1.94869 -4.52378e-09 -0.0574202)
(1.35285 1.83988e-08 0.160712)
(0.692559 1.07782e-08 0.0204502)
(1.42417 1.50818e-08 0.124071)
(0.572901 2.16709e-09 -0.0351137)
(1.82472 3.77816e-10 0.0706698)
(1.17194 4.90166e-10 -0.0442391)
(1.7038 9.00287e-10 0.106513)
(1.26213 3.66642e-10 -0.0118585)
(-0.585771 1.51e-24 0.51473)
(-0.762036 -3.90696e-09 -0.0514543)
(-0.873683 -4.0101e-09 -0.267996)
(-0.789654 -3.96051e-09 -0.255435)
(-0.611005 -5.03002e-09 -0.106103)
(-0.521462 -4.59942e-09 -0.0918193)
(-0.476136 -7.62219e-10 -0.267423)
(-0.4034 7.5697e-10 -0.225545)
(0.0508209 2.97778e-09 -0.220629)
(0.0811845 1.20685e-09 -0.205893)
(1.33708 -6.1285e-09 0.162959)
(0.706529 -6.30728e-09 0.0120082)
(1.40309 -5.73997e-10 0.119397)
(0.550002 -2.13964e-09 -0.0356937)
(1.03334 2.39411e-08 0.0526006)
(0.20578 1.93056e-08 -0.34022)
(0.809873 2.22678e-08 0.287381)
(0.446066 4.53268e-09 -0.15792)
(1.01577 -1.28597e-08 0.0601198)
(0.243138 -1.01854e-08 -0.335523)
(0.794182 -6.09284e-09 0.291341)
(0.413219 -4.35463e-09 -0.15251)
(1.79302 1.27217e-09 0.0590052)
(1.203 -1.98545e-10 -0.0510507)
(1.67322 6.51112e-10 0.0984023)
(1.23656 3.03781e-10 -0.0175316)
(1.87626 2.16133e-09 0.0820549)
(1.44158 1.4476e-09 0.0283838)
(1.85231 -2.09267e-09 0.0776821)
(1.40729 -1.76385e-09 0.0185856)
(-0.498007 -4.40799e-25 1.04043)
(-0.41405 0 1.18114)
(-0.366312 0 1.12337)
(-0.286973 0 0.980604)
(-0.187403 0 0.844097)
(-0.069164 0 0.711607)
(0.00240986 0 -0.231185)
(0.0126681 0 -0.244261)
(0.0220692 0 -0.253299)
(0.0221422 0 -0.247413)
(0.0912318 0 -0.355721)
(0.646063 0 -0.316892)
(0.530139 0 -0.172824)
(0.614302 0 -0.130161)
(0.855422 2.96742e-25 -0.0529051)
(1.07083 -3.89321e-10 -0.0162554)
(1.19824 1.08408e-09 -0.00446806)
(1.20152 -4.75717e-10 -0.00535703)
(1.2592 1.92427e-09 -0.00231791)
(1.25734 -6.82428e-11 0.00458682)
(1.53561 -7.40682e-09 -0.0268827)
(1.53278 3.0378e-09 -0.0278132)
(1.43894 -8.45745e-09 0.0291747)
(1.44324 2.74628e-09 0.0202993)
(1.4463 3.42991e-09 -0.111348)
(1.86689 5.79687e-09 -0.0954921)
(1.46729 5.40149e-09 -0.104727)
(1.94035 8.60248e-09 -0.049484)
(1.45828 -2.40306e-09 -0.103623)
(1.86409 -4.91055e-09 -0.0936126)
(1.49575 -2.99681e-09 -0.094634)
(1.93051 -6.20749e-09 -0.0493957)
(1.42923 7.11291e-09 -0.106189)
(1.82048 9.79703e-09 -0.058575)
(1.48708 5.67042e-09 -0.0879863)
(1.8818 9.33289e-09 -0.0509977)
(1.4505 -3.78038e-09 -0.106178)
(1.81655 -5.66263e-09 -0.0549106)
(1.50878 -3.26912e-09 -0.0945799)
(1.87486 -6.152e-09 -0.0495315)
(1.37163 6.20274e-10 0.0157144)
(1.43153 1.5645e-12 -0.156332)
(1.89557 -1.91504e-10 -0.129742)
(1.89944 8.06561e-10 -0.233689)
(1.49132 -1.45368e-10 -0.113633)
(1.96299 -3.91517e-10 -0.0863544)
(1.40148 9.10702e-10 0.0140293)
(1.42191 -1.44868e-11 -0.165402)
(1.8805 -2.03239e-10 -0.250147)
(1.88717 -1.19863e-10 -0.135846)
(1.48184 -1.14336e-10 -0.117072)
(1.95067 -4.19007e-10 -0.0974413)
(1.54056 -3.03329e-10 -0.164299)
(1.98641 1.11894e-10 -0.0876261)
(1.5271 -1.49954e-10 -0.17734)
(1.98565 1.54293e-10 -0.110968)
(1.54744 -9.48502e-11 -0.161917)
(1.98435 4.16715e-11 -0.0903501)
(1.52969 4.37496e-11 -0.176462)
(1.98407 -1.22321e-10 -0.113437)
(1.29578 4.74895e-09 0.113511)
(0.710607 2.50058e-09 -0.198169)
(1.34734 4.72909e-09 -0.0119887)
(0.553735 2.2195e-09 -0.248597)
(1.72176 5.41072e-10 -0.0603948)
(1.08872 4.54203e-10 -0.21797)
(1.67474 2.73376e-10 -0.0250082)
(1.24705 5.00926e-10 -0.255076)
(-0.597237 0 0.367833)
(-0.792496 -1.88784e-09 -0.223218)
(-0.973552 -3.55829e-09 -0.409431)
(-0.924975 -4.02826e-09 -0.446367)
(-0.937658 -3.62489e-09 -0.372719)
(-0.872261 -4.07235e-09 -0.379112)
(-0.985817 -7.96824e-09 -0.478355)
(-0.919572 -3.08862e-09 -0.479974)
(-0.840345 -7.12008e-09 -0.403132)
(-0.7768 -2.12887e-09 -0.385438)
(-0.72924 1.16724e-08 -0.541452)
(-0.573234 1.39771e-08 -0.522282)
(-0.502924 7.4787e-09 -0.541792)
(-0.262544 9.5338e-09 -0.389748)
(-0.648711 -7.31319e-09 -0.524746)
(-0.508361 -1.31886e-08 -0.513001)
(-0.441987 -5.0192e-09 -0.502552)
(-0.175924 -9.55108e-09 -0.366414)
(0.0656555 1.91697e-09 -0.531645)
(0.306541 4.58547e-09 -0.533694)
(0.319362 1.104e-09 -0.119423)
(-0.281155 6.16982e-09 -0.475504)
(0.130811 7.82594e-09 -0.145252)
(0.682324 8.344e-09 0.29577)
(0.0637685 2.03114e-10 -0.527166)
(0.315221 -3.78816e-09 -0.53709)
(0.322779 1.74933e-10 -0.109282)
(-0.242632 -3.8236e-09 -0.447066)
(0.210102 -7.34032e-09 -0.116091)
(0.665059 -6.31791e-09 0.296624)
(1.27758 -4.42143e-09 0.109745)
(0.747122 -2.4799e-09 -0.209885)
(1.32678 -4.23584e-09 -0.0213641)
(0.552867 -2.1293e-09 -0.256293)
(0.93274 7.1971e-09 0.0124426)
(0.502026 3.6602e-09 -0.329843)
(0.915835 -6.41248e-09 0.0171263)
(0.484393 -3.48043e-09 -0.320743)
(1.68851 -1.14327e-09 -0.0675953)
(1.09027 -3.71166e-10 -0.224341)
(1.6482 -5.11006e-10 -0.0290465)
(1.21475 -7.4847e-10 -0.259223)
(1.89455 1.10285e-09 -0.112463)
(1.45786 5.16811e-10 -0.176593)
(1.87378 -1.35994e-09 -0.116949)
(1.43206 -7.31333e-10 -0.180856)
(-0.549889 -4.58119e-25 0.957981)
(-0.473729 0 1.09733)
(-0.414513 0 1.01473)
(-0.311087 0 0.879277)
(-0.212379 0 0.725634)
(-0.0815293 0 0.569174)
(0.00172748 0 -0.239348)
(0.00875084 0 -0.250584)
(0.0115376 0 -0.266849)
(0.0164559 0 -0.249087)
(0.0420431 0 -0.374345)
(0.765973 6.18298e-26 -0.367261)
(0.681433 -1.87555e-25 -0.219176)
(0.775144 -2.19537e-25 -0.19116)
(0.976372 -7.92007e-10 -0.129927)