/*--------------------------------*- C++ -*----------------------------------*\
| =========                 |                                                 |
| \\      /  F ield         | OpenFOAM: The Open Source CFD Toolbox           |
|  \\    /   O peration     | Version:  5.x                                   |
|   \\  /    A nd           | Web:      www.OpenFOAM.org                      |
|    \\/     M anipulation  |                                                 |
\*---------------------------------------------------------------------------*/
FoamFile
{
    version     2.0;
    format      ascii;
    class       surfaceVectorField;
    location    "1.1";
    object      Uf;
}
// * * * * * * * * * * * * * * * * * * * * * * * * * * * * * * * * * * * * * //

dimensions      [0 1 -1 0 0 0 0];

internalField   nonuniform List<vector> 
30582
(
(0.212392 0 0.00263733)
(0.210242 0 -0.000103898)
(0.21057 0 0.00390934)
(0.213962 0 0.000728706)
(0.212067 0 -0.00205985)
(0.209798 0 -6.95269e-05)
(0.206009 0 0.00402983)
(0.207334 0 0.00185734)
(0.209874 0 -0.00141452)
(0.213189 0 0.00160562)
(0.211093 0 0.0037111)
(0.208915 0 0.000368665)
(0.201914 0 0.00309203)
(0.204121 0 0.00169724)
(0.205203 0 -0.000589858)
(0.20657 0 0.00375968)
(0.209232 0 0.00699933)
(0.211232 0 0.00235004)
(0.209201 0 -0.00115982)
(0.207382 0 0.00158186)
(0.201536 0 0.00185158)
(0.200488 0 0.00015925)
(0.200964 0 -0.00132572)
(0.203355 0 0.00345395)
(0.20461 0 0.0080356)
(0.20427 0 0.00564157)
(0.205946 0 0.000719092)
(0.20865 0 0.00365183)
(0.206357 0 0.00671422)
(0.20496 0 0.00395477)
(0.203627 0 0.000912911)
(0.20277 0 -0.000897931)
(0.20059 0 -0.00266258)
(0.199756 0 0.000317172)
(0.200306 0 0.00523589)
(0.20105 0 0.00523795)
(0.20083 0 0.0025255)
(0.201593 0 0.00772483)
(0.204853 0 0.0110755)
(0.203699 0 0.00425313)
(0.200675 0 0.00102795)
(0.202314 0 0.00861299)
(0.20688 0 0.00059263)
(0.205472 0 -0.00142192)
(0.203217 0 -0.00333457)
(0.202433 0 -0.00202603)
(0.200333 0 0.00108083)
(0.197667 0 0.0003059)
(0.196566 0 5.70214e-05)
(0.198317 0 0.00700552)
(0.199334 0 0.012597)
(0.196544 0 0.00997222)
(0.197264 0 0.0027602)
(0.198596 0 0.00561778)
(0.19749 0 0.0138641)
(0.198278 0 0.0145861)
(0.208544 0 0.000735393)
(0.208446 0 -0.000740742)
(0.207001 0 -0.00283504)
(0.205699 0 -0.00307629)
(0.203434 0 -0.00156185)
(0.201137 0 -0.00335791)
(0.196862 0 -0.00436093)
(0.19525 0 0.00018077)
(0.195037 0 0.00731542)
(0.193493 0 0.0087866)
(0.191034 0 0.00580523)
(0.191701 0 0.0125088)
(0.19636 0 0.015842)
(0.186161 0 0.00606961)
(0.182537 0 0.00575794)
(0.160275 0 0.0265086)
(0.20702 0 0.00121186)
(0.20858 0 0.000690428)
(0.208887 0 -0.000898758)
(0.209367 0 -0.00158011)
(0.207843 0 -0.00163211)
(0.205608 0 -0.00500409)
(0.201705 0 -0.00712422)
(0.200002 0 -0.00543781)
(0.196468 0 -0.000654693)
(0.190998 0 -0.000423084)
(0.187467 0 0.000687936)
(0.188358 0 0.0102653)
(0.189323 0 0.0171777)
(0.181728 0 0.0153743)
(0.17615 0 0.0054255)
(0.152939 0 0.00862443)
(0.125634 0 0.0305118)
(-0.102677 0 -0.0303121)
(0.201227 0 0.00203482)
(0.204957 0 0.00267132)
(0.207662 0 0.00196858)
(0.209894 0 0.00124535)
(0.210907 0 0.000829093)
(0.210457 0 -0.0029434)
(0.207885 0 -0.00658844)
(0.205768 0 -0.00770567)
(0.202118 0 -0.005553)
(0.197966 0 -0.00786413)
(0.190321 0 -0.00811114)
(0.185963 0 -0.00162713)
(0.184965 0 0.00816468)
(0.18098 0 0.0120718)
(0.173405 0 0.0106487)
(0.165403 0 0.0164921)
(0.147242 0 0.0200114)
(0.016212 0 -1.93448e-05)
(-0.210084 0 -0.058936)
(-0.255696 0 0.0519049)
(0.191257 0 0.00291936)
(0.196896 0 0.00467975)
(0.202074 0 0.00514961)
(0.206386 0 0.00524792)
(0.209849 0 0.00493344)
(0.211697 0 0.00172458)
(0.21179 0 -0.00239675)
(0.212264 0 -0.00468141)
(0.209638 0 -0.00536275)
(0.205684 0 -0.0109932)
(0.199043 0 -0.0139255)
(0.194813 0 -0.0116104)
(0.187952 0 -0.00453728)
(0.18075 0 -0.00288743)
(0.175107 0 0.00109249)
(0.180339 0 0.0113665)
(0.172906 0 0.0159228)
(0.0560772 0 0.00604191)
(-0.0754095 0 -0.0135043)
(-0.0188707 0 -0.0538915)
(-0.053972 0 0.0476558)
(-0.0679466 0 0.0731066)
(0.177827 0 0.00366461)
(0.184978 0 0.00641764)
(0.192101 0 0.00806409)
(0.198278 0 0.00936116)
(0.204089 0 0.00987141)
(0.208609 0 0.0079037)
(0.211775 0 0.00416129)
(0.214626 0 0.00173118)
(0.215675 0 7.03012e-06)
(0.214525 0 -0.00736843)
(0.209797 0 -0.0135461)
(0.205182 0 -0.0156949)
(0.197783 0 -0.0125194)
(0.19221 0 -0.0158327)
(0.182345 0 -0.0149149)
(0.188578 0 -0.00594124)
(0.19233 0 0.00259493)
(0.119862 0 0.0033152)
(0.00499813 0 -0.00650094)
(-0.0578499 0 -0.0267002)
(-0.00631018 0 -0.0659758)
(0.0661531 0 -0.0729568)
(0.0611059 0 -0.0394039)
(0.0306876 0 0.0490939)
(0.161918 0 0.00419574)
(0.170051 0 0.00773771)
(0.178506 0 0.0104272)
(0.186127 0 0.0129139)
(0.193839 0 0.0145959)
(0.200475 0 0.014173)
(0.206611 0 0.01162)
(0.212039 0 0.0102848)
(0.216398 0 0.00862051)
(0.218521 0 0.00140362)
(0.218062 0 -0.00658448)
(0.217119 0 -0.0110464)
(0.211538 0 -0.01235)
(0.205499 0 -0.0217085)
(0.195905 0 -0.0261736)
(0.210186 0 -0.0216565)
(0.21349 0 -0.0139529)
(0.171997 0 -0.0148691)
(0.0983777 0 -0.0157759)
(0.0188856 0 -0.0353899)
(-0.0406136 0 -0.0511539)
(-0.0229731 0 -0.012732)
(0.045656 0 -0.0228213)
(0.028911 0 -0.0667766)
(0.000836514 0 0.012817)
(0.0464126 0 0.0487652)
(0.144591 0 0.00449872)
(0.153217 0 0.00857878)
(0.162376 0 0.0120909)
(0.170876 0 0.0155826)
(0.179836 0 0.0184394)
(0.187952 0 0.0196049)
(0.196217 0 0.0185903)
(0.203756 0 0.0190524)
(0.210943 0 0.0184991)
(0.21661 0 0.0128004)
(0.220319 0 0.00484908)
(0.22328 0 0.000380955)
(0.222944 0 -0.00336762)
(0.220954 0 -0.0161224)
(0.21359 0 -0.0266119)
(0.230638 0 -0.0294404)
(0.240046 0 -0.0243046)
(0.240749 0 -0.0330623)
(0.196503 0 -0.0363447)
(0.0863478 0 -0.0562697)
(0.00606466 0 -0.0711547)
(0.0255431 0 -0.0547374)
(0.0452274 0 -0.0213145)
(0.0142312 0 -0.0125575)
(-0.00408115 0 -0.0543322)
(0.0119646 0 -0.0648095)
(0.0587411 0 -0.0214563)
(0.0284205 0 0.0256822)
(0.126775 0 0.00460293)
(0.135493 0 0.00897957)
(0.144833 0 0.0130489)
(0.153704 0 0.0172643)
(0.163241 0 0.0211086)
(0.172166 0 0.0236539)
(0.181681 0 0.024227)
(0.190649 0 0.0265504)
(0.199947 0 0.0278173)
(0.208132 0 0.0242142)
(0.215787 0 0.0178091)
(0.222197 0 0.0148901)
(0.227162 0 0.0109062)
(0.229286 0 -0.00152984)
(0.228288 0 -0.0149821)
(0.251451 0 -0.0226634)
(0.266615 0 -0.0229342)
(0.304594 0 -0.0410558)
(0.298588 0 -0.0502965)
(0.184715 0 -0.0769077)
(0.0761959 0 -0.0950207)
(0.0499858 0 -0.0858588)
(0.066894 0 -0.0735469)
(0.0498533 0 -0.0637181)
(0.0195099 0 -0.0512562)
(0.00812118 0 -0.0221638)
(0.0233419 0 -0.0315153)
(0.00613349 0 -0.0506494)
(-0.0235213 0 -0.0101702)
(0.109173 0 0.00455565)
(0.117695 0 0.00903009)
(0.126837 0 0.0134048)
(0.135682 0 0.01805)
(0.145259 0 0.0225911)
(0.154432 0 0.0261675)
(0.164412 0 0.028129)
(0.174063 0 0.0320531)
(0.184515 0 0.0352383)
(0.194175 0 0.033924)
(0.204284 0 0.0295991)
(0.213327 0 0.029614)
(0.221902 0 0.0268861)
(0.22907 0 0.0173154)
(0.233096 0 0.00432845)
(0.262826 0 -0.00370793)
(0.287278 0 -0.00914596)
(0.359809 0 -0.0318596)
(0.393383 0 -0.0480528)
(0.300375 0 -0.0824992)
(0.182195 0 -0.111972)
(0.0993748 0 -0.122434)
(0.0766784 0 -0.114628)
(0.0486057 0 -0.089987)
(0.0283002 0 -0.076183)
(0.0245825 0 -0.0673616)
(0.0140562 0 -0.0407202)
(0.0056374 0 -0.0183827)
(-0.0123567 0 -0.0397194)
(0.0922541 0 0.00440663)
(0.100396 0 0.00883529)
(0.109102 0 0.0133098)
(0.117652 0 0.0181284)
(0.126901 0 0.0230646)
(0.135916 0 0.0273026)
(0.145781 0 0.0303084)
(0.155509 0 0.035392)
(0.166238 0 0.0402267)
(0.176449 0 0.0409426)
(0.187697 0 0.0388242)
(0.198305 0 0.0418496)
(0.209488 0 0.0420773)
(0.220008 0 0.0354414)
(0.229685 0 0.0260668)
(0.264766 0 0.0188882)
(0.296857 0 0.0135108)
(0.391761 0 -0.00804733)
(0.466269 0 -0.0289981)
(0.412804 0 -0.0642968)
(0.311549 0 -0.101345)
(0.162933 0 -0.139051)
(0.0816985 0 -0.14829)
(0.0524925 0 -0.12459)
(0.0251706 0 -0.0985934)
(0.0186344 0 -0.0886665)
(0.0131326 0 -0.0794678)
(0.0111696 0 -0.0669788)
(0.00312562 0 -0.0464344)
(0.0762761 0 0.00420109)
(0.0839443 0 0.00849375)
(0.0920986 0 0.0129199)
(0.100194 0 0.0177149)
(0.108904 0 0.0227865)
(0.117505 0 0.0273611)
(0.126891 0 0.0310457)
(0.136285 0 0.0368234)
(0.146681 0 0.0428442)
(0.156751 0 0.0450747)
(0.168059 0 0.0448707)
(0.179165 0 0.0504943)
(0.191498 0 0.0541196)
(0.203717 0 0.0504459)
(0.216675 0 0.0453893)
(0.256769 0 0.0415484)
(0.295438 0 0.0386603)
(0.40218 0 0.0195424)
(0.502557 0 3.79168e-05)
(0.491311 0 -0.0244867)
(0.434636 0 -0.0604073)
(0.233947 0 -0.119075)
(0.0828889 0 -0.154873)
(0.0412179 0 -0.139571)
(0.0141501 0 -0.118287)
(0.0161144 0 -0.119857)
(0.00974733 0 -0.106457)
(0.00794747 0 -0.0872383)
(0.0052012 0 -0.0773352)
(0.0613265 0 0.00397822)
(0.0685039 0 0.00808962)
(0.0760787 0 0.0123744)
(0.0836525 0 0.0170097)
(0.091738 0 0.022021)
(0.0997912 0 0.0266796)
(0.108514 0 0.0307217)
(0.117336 0 0.0367893)
(0.127052 0 0.0435106)
(0.136563 0 0.0467168)
(0.147264 0 0.047898)
(0.158063 0 0.0553703)
(0.170284 0 0.0619487)
(0.182774 0 0.0608122)
(0.196947 0 0.0588869)
(0.240761 0 0.0598725)
(0.284271 0 0.0599519)
(0.397639 0 0.0467904)
(0.511802 0 0.031507)
(0.527018 0 0.0152796)
(0.522984 0 -0.0108764)
(0.294734 0 -0.0645098)
(0.0908102 0 -0.120291)
(0.0303362 0 -0.1226)
(-0.00805324 0 -0.1138)
(-0.00167407 0 -0.129864)
(0.000539254 0 -0.126339)
(0.00564195 0 -0.115902)
(0.00398722 0 -0.100605)
(0.0473682 0 0.0037719)
(0.0540922 0 0.00768865)
(0.0611223 0 0.0117858)
(0.0681806 0 0.0161829)
(0.075642 0 0.0210025)
(0.0831098 0 0.0255662)
(0.0911163 0 0.0297167)
(0.0992636 0 0.0357649)
(0.108152 0 0.0427667)
(0.116898 0 0.0464849)
(0.126667 0 0.0485155)
(0.136712 0 0.0570984)
(0.148088 0 0.0657828)
(0.159889 0 0.0663596)
(0.173471 0 0.0661943)
(0.220272 0 0.0722301)
(0.266707 0 0.074446)
(0.382945 0 0.0682651)
(0.50422 0 0.0593426)
(0.528428 0 0.0503494)
(0.556192 0 0.0304878)
(0.329925 0 -3.26119e-05)
(0.105245 0 -0.0508503)
(0.0279677 0 -0.071049)
(-0.0306251 0 -0.0816804)
(-0.0219059 0 -0.112554)
(-0.0141173 0 -0.122216)
(-0.00469875 0 -0.123456)
(0.000357082 0 -0.117675)
(0.0342779 0 0.00360832)
(0.0406224 0 0.00733966)
(0.0471835 0 0.0112368)
(0.0537838 0 0.0153665)
(0.0606803 0 0.019922)
(0.0675954 0 0.0242791)
(0.0749202 0 0.028361)
(0.0823872 0 0.0341759)
(0.090438 0 0.0411382)
(0.0983632 0 0.0450156)
(0.107108 0 0.0474532)
(0.11621 0 0.0565189)
(0.12643 0 0.0665603)
(0.137116 0 0.0680148)
(0.149419 0 0.0685066)
(0.198393 0 0.078268)
(0.246909 0 0.0824977)
(0.363289 0 0.0818594)
(0.48582 0 0.0786928)
(0.502545 0 0.0770575)
(0.539605 0 0.0650319)
(0.331272 0 0.0581354)
(0.112422 0 0.0275236)
(0.0332143 0 -0.00334192)
(-0.0432092 0 -0.0286929)
(-0.0381546 0 -0.0653481)
(-0.0284158 0 -0.0896891)
(-0.0152325 0 -0.106191)
(-0.0050983 0 -0.112346)
(0.0218825 0 0.00349984)
(0.0279427 0 0.007075)
(0.0341327 0 0.0107841)
(0.0403643 0 0.0146571)
(0.0467914 0 0.0189247)
(0.0532337 0 0.0230168)
(0.0599639 0 0.026919)
(0.0668135 0 0.0323724)
(0.0740978 0 0.0390743)
(0.0812484 0 0.0428621)
(0.0890187 0 0.0453824)
(0.0971638 0 0.0544623)
(0.106188 0 0.0652259)
(0.115571 0 0.0669033)
(0.126358 0 0.0673077)
(0.176979 0 0.0796381)
(0.227042 0 0.0857194)
(0.342279 0 0.0881045)
(0.463729 0 0.0890318)
(0.458358 0 0.0926036)
(0.479836 0 0.0913767)
(0.302066 0 0.105617)
(0.0977072 0 0.0949399)
(0.0355103 0 0.0650427)
(-0.0451003 0 0.0316247)
(-0.0428824 0 -0.00246993)
(-0.0371438 0 -0.0350958)
(-0.0239329 0 -0.0613942)
(-0.0102509 0 -0.0817421)
(0.0099801 0 0.0034486)
(0.0158603 0 0.00691496)
(0.0217917 0 0.0104677)
(0.0277601 0 0.0141189)
(0.0338307 0 0.0181129)
(0.0399076 0 0.0219242)
(0.0461603 0 0.0255874)
(0.0524982 0 0.0306203)
(0.0591334 0 0.0369307)
(0.06562 0 0.0404699)
(0.072542 0 0.0428518)
(0.0798107 0 0.051621)
(0.0877377 0 0.0626034)
(0.095845 0 0.0640975)
(0.10508 0 0.0639456)
(0.15683 0 0.0778191)
(0.20812 0 0.0853589)
(0.320306 0 0.0891751)
(0.439062 0 0.0927083)
(0.404846 0 0.100318)
(0.399728 0 0.108413)
(0.255095 0 0.131565)
(0.0764496 0 0.139239)
(0.0320699 0 0.115774)
(-0.0341914 0 0.0863731)
(-0.0371554 0 0.0599219)
(-0.0365094 0 0.0272698)
(-0.0263861 0 -0.00276241)
(-0.0131468 0 -0.0310237)
(-0.00163429 0 0.00345501)
(0.00417681 0 0.00686917)
(0.00995311 0 0.0103137)
(0.0157697 0 0.0137928)
(0.0216052 0 0.0175518)
(0.0274378 0 0.021097)
(0.0333429 0 0.0245028)
(0.0392969 0 0.0291109)
(0.0454242 0 0.0349715)
(0.0513927 0 0.0381716)
(0.0576307 0 0.0402811)
(0.0641591 0 0.0485388)
(0.0711524 0 0.0593666)
(0.0781351 0 0.0604376)
(0.0859628 0 0.0594943)
(0.138108 0 0.0740806)
(0.190239 0 0.0825706)
(0.296236 0 0.0869925)
(0.409765 0 0.0923005)
(0.347379 0 0.103941)
(0.312185 0 0.119338)
(0.202503 0 0.143661)
(0.0544858 0 0.157878)
(0.026572 0 0.142248)
(-0.0192293 0 0.124171)
(-0.0244362 0 0.108625)
(-0.029341 0 0.0822092)
(-0.0229067 0 0.0565569)
(-0.0130474 0 0.0264714)
(-0.0131607 0 0.0035179)
(-0.00732539 0 0.00693904)
(-0.00159314 0 0.0103324)
(0.00418706 0 0.013698)
(0.00989793 0 0.017277)
(0.0156083 0 0.0205944)
(0.0213014 0 0.0237529)
(0.0270072 0 0.02797)
(0.0327751 0 0.033381)
(0.0383853 0 0.0362031)
(0.0441187 0 0.0379681)
(0.0500676 0 0.0456144)
(0.0563144 0 0.0560379)
(0.0623952 0 0.0565681)
(0.0690537 0 0.0547615)
(0.120561 0 0.0694262)
(0.172928 0 0.0783801)
(0.268085 0 0.0831209)
(0.37347 0 0.0896905)
(0.293201 0 0.105612)
(0.229482 0 0.126561)
(0.153123 0 0.145625)
(0.0400504 0 0.158756)
(0.0222881 0 0.150808)
(-0.00545438 0 0.142812)
(-0.0106992 0 0.135548)
(-0.0167906 0 0.119154)
(-0.0149488 0 0.102628)
(-0.00964434 0 0.0778833)
(-0.0247786 0 0.00363317)
(-0.0188402 0 0.00711943)
(-0.0130521 0 0.010521)
(-0.00721184 0 0.0138374)
(-0.00150977 0 0.0173019)
(0.00420117 0 0.0204449)
(0.00980307 0 0.0233877)
(0.0153944 0 0.0272747)
(0.0209522 0 0.0322776)
(0.0263639 0 0.0347182)
(0.0317714 0 0.0361102)
(0.0373078 0 0.0431262)
(0.0429993 0 0.0530057)
(0.0484267 0 0.0529488)
(0.0541887 0 0.0503048)
(0.103664 0 0.0646119)
(0.155322 0 0.073618)
(0.235691 0 0.0787853)
(0.329024 0 0.086353)
(0.244437 0 0.106332)
(0.161565 0 0.130877)
(0.111586 0 0.140455)
(0.0335151 0 0.149065)
(0.0216603 0 0.148919)
(0.00441066 0 0.148452)
(-0.000121659 0 0.145923)
(-0.00550105 0 0.138211)
(-0.00640481 0 0.130057)
(-0.00502096 0 0.114398)
(-0.0366394 0 0.00379652)
(-0.0305245 0 0.00739888)
(-0.0246079 0 0.0108671)
(-0.0186279 0 0.0142008)
(-0.012832 0 0.0176215)
(-0.00701876 0 0.0206535)
(-0.00138474 0 0.0234265)
(0.00422387 0 0.0270618)
(0.00970308 0 0.0317279)
(0.0150678 0 0.03381)
(0.0203216 0 0.0348286)
(0.0256092 0 0.0412535)
(0.0309288 0 0.0505429)
(0.0359488 0 0.0498941)
(0.041092 0 0.0464771)
(0.086812 0 0.0601627)
(0.136409 0 0.0689064)
(0.200765 0 0.0748461)
(0.278655 0 0.0834082)
(0.200309 0 0.105561)
(0.112599 0 0.131467)
(0.0801209 0 0.131903)
(0.029127 0 0.136795)
(0.0211081 0 0.142706)
(0.00978818 0 0.146255)
(0.0062968 0 0.146208)
(0.0021674 0 0.144455)
(-0.000112142 0 0.142127)
(-0.00108313 0 0.134554)
(-0.0488609 0 0.00400479)
(-0.0425211 0 0.00776047)
(-0.0364169 0 0.0113475)
(-0.0302239 0 0.0147654)
(-0.024261 0 0.0182147)
(-0.0182633 0 0.0212045)
(-0.0124898 0 0.0238633)
(-0.0067547 0 0.0273389)
(-0.00122139 0 0.0317584)
(0.00424118 0 0.0335229)
(0.00948918 0 0.0341877)
(0.0146835 0 0.0401034)
(0.019805 0 0.0488278)
(0.0246454 0 0.0476027)
(0.0294305 0 0.0434846)
(0.0693523 0 0.0564326)
(0.115178 0 0.0646995)
(0.164294 0 0.0718579)
(0.225906 0 0.0816753)
(0.160156 0 0.10339)
(0.0784445 0 0.127682)
(0.0576811 0 0.123717)
(0.0245167 0 0.126253)
(0.0194739 0 0.13431)
(0.0122356 0 0.13966)
(0.00946447 0 0.14145)
(0.00630775 0 0.143051)
(0.00359575 0 0.144121)
(0.001508 0 0.142163)
(-0.0615187 0 0.00424561)
(-0.0549281 0 0.00818164)
(-0.0486012 0 0.0119275)
(-0.0421481 0 0.0154972)
(-0.0359593 0 0.0190462)
(-0.0297052 0 0.022063)
(-0.023717 0 0.0246692)
(-0.017768 0 0.0280847)
(-0.0120664 0 0.0323615)
(-0.00638617 0 0.0338676)
(-0.00099675 0 0.0342128)
(0.00425416 0 0.0397247)
(0.00932766 0 0.0479611)
(0.0141888 0 0.0461905)
(0.0188525 0 0.0414349)
(0.0507664 0 0.0536403)
(0.0907674 0 0.0613134)
(0.127372 0 0.0701193)
(0.174009 0 0.0815526)
(0.123386 0 0.100444)
(0.0542781 0 0.121367)
(0.0415424 0 0.116467)
(0.0203044 0 0.11793)
(0.0170831 0 0.125956)
(0.0124646 0 0.131443)
(0.010456 0 0.13419)
(0.0081208 0 0.13768)
(0.00537441 0 0.14052)
(0.00285055 0 0.141845)
(-0.0746428 0 0.00449646)
(-0.0677995 0 0.00863542)
(-0.0612384 0 0.0125698)
(-0.0545047 0 0.0163499)
(-0.0480556 0 0.0200673)
(-0.0415009 0 0.0231781)
(-0.0352402 0 0.0257951)
(-0.0290019 0 0.0292513)
(-0.0230521 0 0.0334953)
(-0.0170622 0 0.0348166)
(-0.0114073 0 0.0348928)
(-0.00596881 0 0.0401349)
(-0.00078877 0 0.0479919)
(0.00427478 0 0.0457079)
(0.00900651 0 0.0403712)
(0.0308851 0 0.0519107)
(0.0628269 0 0.0589498)
(0.0905995 0 0.0695881)
(0.125248 0 0.0829125)
(0.0903169 0 0.0974592)
(0.0368007 0 0.114404)
(0.0295034 0 0.110071)
(0.0165242 0 0.111686)
(0.0144852 0 0.118513)
(0.0114206 0 0.123222)
(0.0100312 0 0.126511)
(0.00832614 0 0.130676)
(0.00587773 0 0.134083)
(0.00335346 0 0.137162)
(-0.088215 0 0.00473566)
(-0.0811428 0 0.00908991)
(-0.0743612 0 0.0132355)
(-0.0673533 0 0.0172699)
(-0.060638 0 0.0212153)
(-0.0537641 0 0.0244829)
(-0.0471989 0 0.0271738)
(-0.0406252 0 0.0307717)
(-0.0343659 0 0.0350908)
(-0.0279904 0 0.0363089)
(-0.0219876 0 0.0361835)
(-0.0162534 0 0.0413003)
(-0.0108337 0 0.0489165)
(-0.00541669 0 0.0461821)
(-0.000421408 0 0.0403076)
(0.0101032 0 0.0512839)
(0.0319069 0 0.057711)
(0.0538596 0 0.0698745)
(0.0802522 0 0.0851693)
(0.0609401 0 0.0952709)
(0.023882 0 0.108275)
(0.0202062 0 0.104703)
(0.0128312 0 0.107134)
(0.0117295 0 0.112105)
(0.00979758 0 0.115674)
(0.00889689 0 0.119391)
(0.00762578 0 0.123548)
(0.0055925 0 0.126883)
(0.00330271 0 0.130561)
(-0.102164 0 0.00494361)
(-0.0949147 0 0.00950961)
(-0.0879547 0 0.0138774)
(-0.0807065 0 0.0181941)
(-0.0737472 0 0.0224141)
(-0.0665644 0 0.0258956)
(-0.0596909 0 0.028721)
(-0.0527638 0 0.0325573)
(-0.0461613 0 0.0370562)
(-0.0393553 0 0.0382615)
(-0.0329419 0 0.0380147)
(-0.0268191 0 0.0431424)
(-0.0210615 0 0.0506614)
(-0.0151959 0 0.0475679)
(-0.00978677 0 0.0412256)
(-0.0108431 0 0.0518201)
(-0.000484167 0 0.0576699)
(0.0170333 0 0.0704412)
(0.0382358 0 0.0873523)
(0.0346511 0 0.094285)
(0.0139061 0 0.104381)
(0.0126172 0 0.100965)
(0.00904766 0 0.103938)
(0.00874822 0 0.106824)
(0.00777233 0 0.109319)
(0.007387 0 0.113221)
(0.00653432 0 0.117037)
(0.00491645 0 0.119981)
(0.00295361 0 0.123627)
(-0.116366 0 0.00510155)
(-0.109019 0 0.00985634)
(-0.101951 0 0.0144407)
(-0.0945258 0 0.0190513)
(-0.0873748 0 0.0235778)
(-0.0799238 0 0.0273212)
(-0.0727684 0 0.0303365)
(-0.0654998 0 0.0345004)
(-0.0585506 0 0.039276)
(-0.0512999 0 0.0405653)
(-0.0444435 0 0.0402912)
(-0.037867 0 0.0455649)
(-0.0316914 0 0.0531139)
(-0.0253086 0 0.0497734)
(-0.0194052 0 0.0430688)
(-0.0310434 0 0.0534621)
(-0.0322321 0 0.0588445)
(-0.0194419 0 0.0709328)
(-0.00216239 0 0.0885263)
(0.00963854 0 0.0943343)
(0.00536013 0 0.102502)
(0.00645819 0 0.09925)
(0.00526516 0 0.102111)
(0.00556545 0 0.103124)
(0.00539433 0 0.104568)
(0.00558577 0 0.108157)
(0.00527729 0 0.111536)
(0.00405863 0 0.113913)
(0.00246985 0 0.117202)
(-0.130653 0 0.0051915)
(-0.123312 0 0.0100927)
(-0.11623 0 0.0148683)
(-0.10872 0 0.0197659)
(-0.10146 0 0.0246137)
(-0.0938133 0 0.0286535)
(-0.0864353 0 0.0319052)
(-0.0788691 0 0.0364747)
(-0.0716008 0 0.0416133)
(-0.063924 0 0.0430871)
(-0.0566248 0 0.0428913)
(-0.049559 0 0.048439)
(-0.0429127 0 0.0561344)
(-0.0359759 0 0.0526902)
(-0.0295204 0 0.0457634)
(-0.0498446 0 0.0560833)
(-0.0616173 0 0.0611202)
(-0.0553876 0 0.0714694)
(-0.0422877 0 0.0884272)
(-0.0137975 0 0.0950888)
(-0.00216903 0 0.10227)
(0.000540178 0 0.0987873)
(0.00173268 0 0.101637)
(0.00259943 0 0.101302)
(0.00295608 0 0.101575)
(0.00355481 0 0.104516)
(0.00382974 0 0.107291)
(0.00310405 0 0.108969)
(0.00192544 0 0.111733)
(-0.14481 0 0.00519624)
(-0.137602 0 0.010181)
(-0.130624 0 0.0151025)
(-0.123148 0 0.0202614)
(-0.115887 0 0.0254247)
(-0.10815 0 0.0297788)
(-0.100642 0 0.0333007)
(-0.092856 0 0.0383385)
(-0.0853313 0 0.0439128)
(-0.0772813 0 0.0456705)
(-0.0695738 0 0.0456664)
(-0.0620162 0 0.0516073)
(-0.0548775 0 0.0595488)
(-0.0473865 0 0.0561727)
(-0.0403558 0 0.0492128)
(-0.0671047 0 0.0595704)
(-0.0875878 0 0.0643437)
(-0.0903383 0 0.0722841)
(-0.0831085 0 0.0874763)
(-0.0385892 0 0.0964846)
(-0.00973019 0 0.104119)
(-0.00444093 0 0.0996406)
(-0.00181106 0 0.102208)
(-0.000216953 0 0.100883)
(0.000715087 0 0.100235)
(0.00155975 0 0.102604)
(0.0022032 0 0.104616)
(0.00202326 0 0.105444)
(0.00134319 0 0.107527)
(-0.158591 0 0.00510088)
(-0.151658 0 0.0100871)
(-0.144918 0 0.0150879)
(-0.137619 0 0.0204608)
(-0.130492 0 0.0259132)
(-0.122796 0 0.0305788)
(-0.11528 0 0.0343884)
(-0.107388 0 0.0399381)
(-0.0997066 0 0.0460032)
(-0.0913741 0 0.0481385)
(-0.0833304 0 0.0484413)
(-0.075316 0 0.054884)
(-0.0676979 0 0.063154)
(-0.0596861 0 0.060043)
(-0.052094 0 0.0532866)
(-0.0830645 0 0.0637599)
(-0.109983 0 0.068354)
(-0.124215 0 0.0737909)
(-0.125481 0 0.0864883)
(-0.0638795 0 0.0987166)
(-0.0183281 0 0.107515)
(-0.010487 0 0.101753)
(-0.00537155 0 0.103502)
(-0.00300626 0 0.101784)
(-0.00143696 0 0.100383)
(-0.000276927 0 0.102156)
(0.00060078 0 0.103523)
(0.000900029 0 0.103535)
(0.000740213 0 0.104819)
(-0.171719 0 0.00489429)
(-0.165217 0 0.00978235)
(-0.158863 0 0.0147758)
(-0.151899 0 0.0202938)
(-0.145057 0 0.0259849)
(-0.137562 0 0.0309352)
(-0.130189 0 0.03503)
(-0.122337 0 0.0411115)
(-0.114631 0 0.0477017)
(-0.106146 0 0.050296)
(-0.0978783 0 0.0510157)
(-0.0894852 0 0.0580563)
(-0.0814419 0 0.066722)
(-0.0729759 0 0.0640891)
(-0.064872 0 0.0578159)
(-0.0981557 0 0.0684506)
(-0.129293 0 0.0729435)
(-0.157095 0 0.0762417)
(-0.169429 0 0.086258)
(-0.0910874 0 0.101697)
(-0.0279408 0 0.112424)
(-0.0164703 0 0.104713)
(-0.00881673 0 0.105494)
(-0.00573825 0 0.103864)
(-0.0035263 0 0.101909)
(-0.0020589 0 0.103042)
(-0.000922614 0 0.103782)
(-0.000137571 0 0.103057)
(0.000175865 0 0.103619)
(-0.183911 0 0.00457133)
(-0.177996 0 0.00924785)
(-0.172173 0 0.0141288)
(-0.165717 0 0.0197003)
(-0.159324 0 0.025556)
(-0.152209 0 0.0307372)
(-0.145151 0 0.0350906)
(-0.137515 0 0.0416949)
(-0.129953 0 0.0488194)
(-0.121479 0 0.0519349)
(-0.113138 0 0.0531671)
(-0.104491 0 0.0608867)
(-0.0961235 0 0.0700033)
(-0.087305 0 0.0680653)
(-0.0787759 0 0.0625854)
(-0.112835 0 0.0734011)
(-0.146285 0 0.07787)
(-0.188667 0 0.0796308)
(-0.214332 0 0.0872054)
(-0.12039 0 0.105266)
(-0.0399332 0 0.119029)
(-0.023733 0 0.109312)
(-0.0125191 0 0.108522)
(-0.00859215 0 0.107023)
(-0.00562616 0 0.104721)
(-0.003822 0 0.105151)
(-0.00244126 0 0.105282)
(-0.00113452 0 0.103956)
(-0.000361647 0 0.103823)
(-0.194893 0 0.00413517)
(-0.189731 0 0.00847896)
(-0.184555 0 0.0131269)
(-0.178776 0 0.0186395)
(-0.172998 0 0.0245618)
(-0.166454 0 0.0298892)
(-0.159898 0 0.0344477)
(-0.152679 0 0.0415317)
(-0.145452 0 0.0491691)
(-0.137194 0 0.0528415)
(-0.12897 0 0.0546626)
(-0.120236 0 0.063119)
(-0.111693 0 0.0727324)
(-0.10266 0 0.0716921)
(-0.0938315 0 0.0673272)
(-0.127491 0 0.0783291)
(-0.161729 0 0.0828612)
(-0.218389 0 0.0837447)
(-0.258671 0 0.0893995)
(-0.151695 0 0.108805)
(-0.0552935 0 0.126291)
(-0.0323408 0 0.115194)
(-0.016255 0 0.11267)
(-0.0117018 0 0.111684)
(-0.00796942 0 0.108877)
(-0.00571879 0 0.108484)
(-0.00400035 0 0.107971)
(-0.0021361 0 0.106107)
(-0.000867409 0 0.105353)
(-0.20004 0 0.0074887)
(-0.204421 0 0.00356667)
(-0.195715 0 0.0117705)
(-0.190797 0 0.0170954)
(-0.185766 0 0.0229648)
(-0.179982 0 0.0283243)
(-0.174116 0 0.0330039)
(-0.167532 0 0.0404834)
(-0.160856 0 0.048577)
(-0.153044 0 0.0528065)
(-0.14516 0 0.0552637)
(-0.136563 0 0.0644851)
(-0.128034 0 0.0746288)
(-0.118955 0 0.074663)
(-0.109992 0 0.0717181)
(-0.142411 0 0.0829076)
(-0.176288 0 0.0876183)
(-0.245806 0 0.0882543)
(-0.300595 0 0.0925874)
(-0.184693 0 0.111823)
(-0.0751718 0 0.133204)
(-0.0429338 0 0.121885)
(-0.0199831 0 0.117869)
(-0.014731 0 0.117604)
(-0.0103585 0 0.114426)
(-0.00769759 0 0.113201)
(-0.00557132 0 0.111952)
(-0.00320401 0 0.109464)
(-0.00138313 0 0.108138)
(-0.201404 0 0.0150734)
(-0.205365 0 0.0100256)
(-0.213507 0 0.00537609)
(-0.220003 0 0.00177665)
(-0.197318 0 0.0207595)
(-0.192489 0 0.0260138)
(-0.187464 0 0.0307021)
(-0.181731 0 0.0384492)
(-0.175825 0 0.0469009)
(-0.168717 0 0.0516372)
(-0.161428 0 0.0547335)
(-0.15322 0 0.0647139)
(-0.144955 0 0.0754015)
(-0.136034 0 0.0766543)
(-0.127127 0 0.075394)
(-0.157831 0 0.0867673)
(-0.190542 0 0.0918161)
(-0.270616 0 0.0928005)
(-0.338595 0 0.096332)
(-0.21939 0 0.11416)
(-0.1011 0 0.138775)
(-0.0562067 0 0.129188)
(-0.0238516 0 0.124264)
(-0.0176599 0 0.12443)
(-0.0125611 0 0.121203)
(-0.00957316 0 0.119027)
(-0.00703188 0 0.117151)
(-0.00425644 0 0.114129)
(-0.00195463 0 0.112181)
(-0.203584 0 0.022977)
(-0.207374 0 0.0179481)
(-0.215195 0 0.0108729)
(-0.221298 0 0.00455873)
(-0.224237 0 0.00127774)
(-0.223432 0 -0.00044927)
(-0.199602 0 0.0275349)
(-0.194935 0 0.0353854)
(-0.189981 0 0.0440549)
(-0.183834 0 0.0491869)
(-0.177406 0 0.0528661)
(-0.169877 0 0.0635425)
(-0.162165 0 0.0747705)
(-0.153654 0 0.0773113)
(-0.145031 0 0.0779641)
(-0.173793 0 0.0895306)
(-0.204897 0 0.0951049)
(-0.291954 0 0.0969081)
(-0.370966 0 0.100129)
(-0.256403 0 0.115267)
(-0.134818 0 0.14149)
(-0.0730489 0 0.137147)
(-0.028027 0 0.132096)
(-0.0205606 0 0.131985)
(-0.0145462 0 0.128923)
(-0.011282 0 0.125736)
(-0.00838843 0 0.123307)
(-0.00525061 0 0.119904)
(-0.00253748 0 0.117416)
(-0.206725 0 0.0313122)
(-0.210207 0 0.023515)
(-0.218099 0 0.0167278)
(-0.224344 0 0.0092513)
(-0.226703 0 0.00285946)
(-0.225542 0 -0.00237692)
(-0.222589 0 -0.00375123)
(-0.214111 0 -0.00347394)
(-0.202934 0 0.0400363)
(-0.197991 0 0.0453856)
(-0.192657 0 0.0495238)
(-0.186112 0 0.0607558)
(-0.179263 0 0.0724603)
(-0.171488 0 0.0762822)
(-0.16343 0 0.0790036)
(-0.190266 0 0.0907784)
(-0.219557 0 0.0971335)
(-0.310668 0 0.100074)
(-0.397228 0 0.103457)
(-0.295629 0 0.115461)
(-0.178908 0 0.140924)
(-0.0946479 0 0.145865)
(-0.0326083 0 0.141491)
(-0.0234334 0 0.14027)
(-0.0162657 0 0.137286)
(-0.0128081 0 0.133136)
(-0.00965672 0 0.130254)
(-0.00620067 0 0.12657)
(-0.00311863 0 0.12364)
(-0.210696 0 0.0403073)
(-0.214379 0 0.0349093)
(-0.222353 0 0.023001)
(-0.22839 0 0.0111378)
(-0.230694 0 0.00475236)
(-0.229423 0 -0.00150726)
(-0.225935 0 -0.00667517)
(-0.218277 0 -0.0108283)
(-0.20984 0 -0.0101353)
(-0.190796 0 -0.00798094)
(-0.206692 0 0.0446939)
(-0.201426 0 0.0562213)
(-0.19575 0 0.068225)
(-0.189107 0 0.0732618)
(-0.181979 0 0.0780459)
(-0.20711 0 0.0901035)
(-0.234634 0 0.0975638)
(-0.327828 0 0.101814)
(-0.419014 0 0.105794)
(-0.337285 0 0.115741)
(-0.233945 0 0.138597)
(-0.12196 0 0.154341)
(-0.0373028 0 0.152477)
(-0.0260807 0 0.149123)
(-0.0174622 0 0.146007)
(-0.0140294 0 0.141085)
(-0.0107794 0 0.137811)
(-0.00707054 0 0.133888)
(-0.00367872 0 0.130617)
(-0.215186 0 0.0500299)
(-0.219062 0 0.0385124)
(-0.22778 0 0.0299596)
(-0.234548 0 0.0190847)
(-0.236427 0 0.00708413)
(-0.234647 0 -0.00422832)
(-0.230982 0 -0.00944697)
(-0.222536 0 -0.0141134)
(-0.21423 0 -0.0180881)
(-0.199982 0 -0.0216379)
(-0.176335 0 -0.0186854)
(-0.150996 0 -0.0193564)
(-0.210993 0 0.0620368)
(-0.205867 0 0.0679894)
(-0.200171 0 0.0745996)
(-0.224033 0 0.0870605)
(-0.250063 0 0.0960386)
(-0.344269 0 0.1016)
(-0.438255 0 0.106576)
(-0.380347 0 0.115898)
(-0.296471 0 0.135566)
(-0.154701 0 0.160708)
(-0.0420806 0 0.164794)
(-0.0282381 0 0.157716)
(-0.0176646 0 0.154615)
(-0.0146539 0 0.149264)
(-0.0115591 0 0.145662)
(-0.00778374 0 0.141617)
(-0.00418583 0 0.138091)
(-0.220801 0 0.0605494)
(-0.224377 0 0.054266)
(-0.233947 0 0.0376365)
(-0.241313 0 0.0193298)
(-0.243593 0 0.010007)
(-0.242392 0 -9.60448e-05)
(-0.237968 0 -0.0112872)
(-0.230074 0 -0.0215808)
(-0.220467 0 -0.0252166)
(-0.206138 0 -0.0293673)
(-0.187647 0 -0.0326767)
(-0.17018 0 -0.0451284)
(-0.154282 0 -0.0436584)
(-0.0648998 0 -0.0267502)
(-0.21705 0 0.0683915)
(-0.240363 0 0.0810205)
(-0.265468 0 0.0920868)
(-0.360677 0 0.0987454)
(-0.456393 0 0.10513)
(-0.421926 0 0.115116)
(-0.361804 0 0.13171)
(-0.191592 0 0.163718)
(-0.0483605 0 0.176399)
(-0.0300501 0 0.165224)
(-0.0166682 0 0.162283)
(-0.0143549 0 0.157012)
(-0.0116882 0 0.153283)
(-0.00818408 0 0.149353)
(-0.00457607 0 0.145716)
(-0.254732 0 0.0717212)
(-0.231264 0 0.0600098)
(-0.241344 0 0.0462536)
(-0.249353 0 0.0308597)
(-0.251941 0 0.013349)
(-0.250282 0 -0.00448507)
(-0.246256 0 -0.0129594)
(-0.238236 0 -0.0206907)
(-0.228875 0 -0.0307381)
(-0.217373 0 -0.0409348)
(-0.199764 0 -0.0439823)
(-0.182057 0 -0.0575132)
(-0.173642 0 -0.0692787)
(-0.119656 0 -0.0688891)
(-0.0257531 0 -0.0506529)
(0.0275822 0 -0.0663607)
(-0.279928 0 0.0853371)
(-0.377113 0 0.0921845)
(-0.473448 0 0.100546)
(-0.460672 0 0.111682)
(-0.425156 0 0.126129)
(-0.231465 0 0.16232)
(-0.0592508 0 0.183769)
(-0.031951 0 0.171689)
(-0.0143481 0 0.168133)
(-0.0129349 0 0.163556)
(-0.0109132 0 0.159951)
(-0.00807413 0 0.156465)
(-0.00475099 0 0.152954)
(-0.390658 0 0.0814437)
(-0.292298 0 0.0768549)
(-0.274462 0 0.055717)
(-0.258693 0 0.0321457)
(-0.26148 0 0.0176174)
(-0.260807 0 0.00327023)
(-0.25583 0 -0.0140325)
(-0.247615 0 -0.0298621)
(-0.23796 0 -0.0358581)
(-0.226458 0 -0.0418233)
(-0.213118 0 -0.0516141)
(-0.201117 0 -0.0692172)
(-0.191224 0 -0.0817955)
(-0.157373 0 -0.085636)
(-0.0944085 0 -0.085428)
(-0.0561628 0 -0.120364)
(-0.00772649 0 -0.126633)
(0.241674 0 -0.0665582)
(-0.489069 0 0.0918666)
(-0.49729 0 0.104244)
(-0.483747 0 0.117903)
(-0.271596 0 0.156124)
(-0.076474 0 0.184238)
(-0.0362607 0 0.175154)
(-0.00967145 0 0.171402)
(-0.00983394 0 0.168266)
(-0.00892585 0 0.164896)
(-0.00727145 0 0.162127)
(-0.00460495 0 0.159058)
(-0.528609 0 0.0929738)
(-0.503738 0 0.0801904)
(-0.404247 0 0.0637187)
(-0.31549 0 0.0488147)
(-0.293509 0 0.0220728)
(-0.270649 0 -0.00327256)
(-0.266545 0 -0.0153193)
(-0.257609 0 -0.0250658)
(-0.247727 0 -0.0408793)
(-0.236065 0 -0.0541804)
(-0.224122 0 -0.058472)
(-0.211851 0 -0.066511)
(-0.205763 0 -0.0835118)
(-0.197733 0 -0.098662)
(-0.153964 0 -0.101808)