/*--------------------------------*- C++ -*----------------------------------*\
| =========                 |                                                 |
| \\      /  F ield         | OpenFOAM: The Open Source CFD Toolbox           |
|  \\    /   O peration     | Version:  5.x                                   |
|   \\  /    A nd           | Web:      www.OpenFOAM.org                      |
|    \\/     M anipulation  |                                                 |
\*---------------------------------------------------------------------------*/
FoamFile
{
    version     2.0;
    format      ascii;
    class       volScalarField;
    location    "1.9";
    object      alpha.water;
}
// * * * * * * * * * * * * * * * * * * * * * * * * * * * * * * * * * * * * * //

dimensions      [0 0 0 0 0 0 0];

internalField   nonuniform List<scalar> 
12160
(
1
1
1
1
1
1
1
1
1
1
1
1
1
1
1
1
1
1
1
1
1
1
1
1
1
1
1
1
1
1
1
1
1
1
0.999998
1
1
1
1
1
1
1
0.999999
0.993952
0.551581
1
1
1
1
1
1
1
0.995341
0.59194
0.0212806
1
1
1
1
1
1
0.999999
0.996508
0.596181
0.0215902
0.00097035
1
1
1
1
1
1
0.999997
0.994994
0.609842
0.0224742
0.000217786
1.07983e-05
1
1
1
1
1
1
0.999992
0.993034
0.621721
0.0257657
4.91835e-05
1.80373e-06
9.56456e-09
1
1
1
1
1
1
0.999986
0.991164
0.640222
0.0326347
4.38595e-05
1.22113e-07
2.49573e-11
2.26979e-12
1
1
1
1
1
1
0.999982
0.99006
0.661241
0.0420704
8.69945e-05
3.0255e-08
4.61576e-11
2.94756e-13
1.80745e-17
1
1
1
1
1
1
0.999981
0.989452
0.677965
0.0577256
0.000149006
7.38013e-08
3.46825e-12
3.10133e-15
2.13608e-21
1
1
1
1
1
1
0.999982
0.989105
0.689069
0.0783608
0.000305213
1.52409e-07
1.6405e-11
1.32036e-16
8.79936e-20
1
1
1
1
1
1
0.999988
0.989313
0.692785
0.095483
0.000619559
3.71158e-07
3.9021e-11
7.11264e-16
1.9919e-21
1
1
1
1
1
1
0.999995
0.990339
0.69221
0.103783
0.00131399
7.66239e-07
1.2174e-10
1.51359e-15
1.45163e-20
1
1
1
1
1
1
0.999999
0.992809
0.694321
0.104948
0.00205083
1.62294e-06
2.83843e-10
4.79161e-15
3.43858e-20
1
1
1
1
1
1
1
0.996279
0.705697
0.104452
0.00238585
3.98004e-06
6.7836e-10
1.0914e-14
1.31986e-19
1
1
1
1
1
1
1
0.999371
0.731556
0.107215
0.0025112
7.09907e-06
1.49583e-09
2.67226e-14
3.18506e-19
1
1
1
1
1
1
1
0.999987
0.769866
0.119748
0.00272213
9.69424e-06
3.17055e-09
6.05246e-14
8.432e-19
1
1
1
1
1
1
1
1
0.819108
0.147373
0.00337706
1.29844e-05
5.52e-09
1.47583e-13
1.89877e-18
0.999999
0.999999
1
1
1
1
1
1
0.868568
0.192844
0.00507567
1.91815e-05
8.99471e-09
2.84812e-13
5.34024e-18
1
1
0.999999
1
1
1
1
1
0.908643
0.257431
0.00910233
3.34638e-05
1.60011e-08
5.00098e-13
1.055e-17
1
1
1
1
1
1
1
1
0.936278
0.336635
0.016942
7.20744e-05
3.62095e-08
9.71912e-13
1.83998e-17
1
1
1
1
1
1
1
1
0.954113
0.420554
0.029597
0.000203352
1.13993e-07
2.71972e-12
3.62041e-17
1
1
1
1
1
1
1
1
0.965171
0.499036
0.0473031
0.000574707
5.07314e-07
1.29649e-11
1.02114e-16
0.999999
0.999999
0.999999
1
1
1
1
1
0.971644
0.565036
0.0690214
0.00131868
2.45296e-06
1.1e-10
5.02141e-16
0.999999
0.999999
0.999999
0.999999
1
1
1
1
0.974949
0.61441
0.092297
0.00251577
8.3111e-06
1.21316e-09
4.89088e-15
1
1
0.999999
0.999999
0.999999
1
1
1
0.97614
0.645678
0.113687
0.00413721
2.15924e-05
7.6568e-09
6.16826e-14
1
1
1
0.999999
0.999999
0.999999
1
1
0.975959
0.659376
0.129639
0.0059626
4.56713e-05
3.14897e-08
6.54943e-13
1
1
1
1
0.999999
0.999999
1
1
0.974081
0.657249
0.137654
0.00753751
8.0206e-05
9.39743e-08
4.81319e-12
1
1
1
1
1
1
1
1
0.969784
0.63858
0.136288
0.00840347
0.00011504
2.1195e-07
2.23541e-11
1
1
1
1
1
1
1
1
0.962204
0.602769
0.126108
0.008263
0.000134912
3.50696e-07
6.87887e-11
1
1
1
1
1
1
1
0.999999
0.949865
0.550766
0.109025
0.0072114
0.000132931
4.28402e-07
1.34764e-10
1
1
1
1
1
1
1
0.999863
0.930405
0.484329
0.0879446
0.00560747
0.000109044
4.29624e-07
1.70989e-10
1
1
1
1
1
1
0.999999
0.999097
0.900207
0.406925
0.0658012
0.00391743
7.42127e-05
3.3216e-07
1.75805e-10
1
1
1
1
1
1
0.999991
0.99688
0.857234
0.324127
0.0452567
0.00244055
4.34259e-05
1.90519e-07
1.26487e-10
1
1
1
1
1
1
0.999962
0.992417
0.804461
0.241798
0.0279464
0.0013271
2.18044e-05
8.68185e-08
5.83164e-11
1
1
1
1
1
1
0.999883
0.985155
0.742279
0.168729
0.0153443
0.000611084
9.1046e-06
3.0988e-08
1.90688e-11
1
1
1
1
1
1
0.999722
0.974911
0.673375
0.114985
0.0080239
0.00024607
3.08983e-06
8.00782e-09
4.27934e-12
1
1
1
1
1
0.999999
0.999447
0.961763
0.601809
0.07844
0.00433429
9.76802e-05
9.40364e-07
1.60628e-09
5.86177e-13
0.999998
1
1
1
1
1
0.999035
0.946099
0.53105
0.0537373
0.002458
4.28996e-05
2.89559e-07
3.05425e-10
7.1988e-14
0.998502
0.999996
1
1
1
1
1
0.928681
0.464715
0.0369579
0.00145836
2.13868e-05
9.8817e-08
6.32818e-11
1.12689e-14
0.910916
0.997385
0.99999
1
1
1
1
1
0.406223
0.0257472
0.000894672
1.19499e-05
3.88251e-08
1.57265e-11
2.00327e-15
0.356647
0.882775
0.995806
0.999985
1
1
1
1
1
0.0186942
0.000570639
7.18877e-06
1.76521e-08
4.83241e-12
4.51997e-16
0.0140392
0.290087
0.853093
0.994869
0.999973
1
1
1
0.999999
1
0.000388276
4.48585e-06
9.06424e-09
1.81683e-12
1.34274e-16
0.000252613
0.00848766
0.237843
0.840218
0.993496
0.999957
1
1
0.999999
0.999999
1
2.89619e-06
4.98892e-09
8.09822e-13
5.05267e-17
1.7933e-06
0.00011372
0.00588407
0.220255
0.829685
0.992635
0.999849
0.999998
1
0.999999
0.999999
1
2.84512e-09
3.9803e-13
2.26079e-17
1.5726e-09
6.39386e-07
6.99853e-05
0.00560837
0.211082
0.832655
0.98871
0.999667
0.999995
0.999999
0.999998
1
1
1
2.08407e-13
1.13014e-17
1.1073e-13
4.63177e-10
3.33278e-07
6.66761e-05
0.00612404
0.22181
0.824565
0.98547
0.999512
0.999998
0.999998
0.999998
1
1
1
1
6.02637e-18
3.42629e-18
2.50579e-14
2.42783e-10
2.59158e-07
6.99821e-05
0.00770749
0.230481
0.823878
0.983477
0.999923
0.999998
0.999997
0.999999
1
1
1
1
1
7.73229e-19
1.2453e-14
1.60443e-10
2.35304e-07
8.08653e-05
0.00950588
0.244708
0.8117
0.993389
0.999999
0.999998
0.999997
1
1
1
1
1
1
1
3.97779e-19
8.02141e-15
1.28489e-10
2.3844e-07
8.96737e-05
0.0105979
0.24877
0.839526
0.999406
0.999999
0.999998
0.999999
1
1
0.999996
1
1
1
1
1
2.49388e-19
7.32399e-15
1.19689e-10
2.31118e-07
6.90372e-05
0.014116
0.208805
0.929616
0.999999
0.999999
0.999997
1
1
1
0.999969
0.999968
0.999998
1
1
1
1
2.85357e-19
8.37932e-15
1.12769e-10
1.37284e-07
3.96035e-05
0.0126347
0.222137
0.998556
0.999999
0.999998
0.999997
1
1
1
0.999892
0.999678
0.999875
0.999993
0.999988
0.999925
0.999996
1
1
1
1
4.50231e-19
1.02886e-14
7.36432e-11
4.78225e-08
8.10547e-06
0.00644762
0.42125
0.998773
0.999998
0.999997
0.999998
1
1
1
0.999445
0.999865
0.999114
0.999431
0.998767
0.998752
0.999853
0.999982
0.999987
0.999901
0.999995
1
1
1
1
7.94506e-19
3.9336e-14
3.19535e-10
2.54616e-07
3.14129e-05
0.00254882
0.570885
0.998396
0.999997
0.999996
0.999999
1
1
0.999989
0.999988
1
0.999991
0.999263
0.99984
0.998835
0.997003
0.999238
0.998192
0.998161
0.999811
0.999998
0.999995
0.999893
0.999989
1
1
1
1
1.78895e-16
4.56371e-11
1.59858e-07
3.3363e-05
0.000294656
0.0108384
0.610334
0.999381
0.999996
0.999997
1
0.999999
1
1
1
1
0.99998
1
0.999989
1
0.998615
1
0.999901
1
0.99991
0.999512
0.995922
0.996473
0.996352
0.996578
0.996553
0.998551
0.996648
0.996611
1
0.999885
1
0.99991
1
1
1
0.999998
1
0.999998
1
0.999998
0.999744
0.999965
1
1
1
1
8.61885e-13
3.49949e-08
2.87564e-05
0.000781396
0.00380505
0.0260421
0.72019
0.999222
0.999996
0.999998
0.999999
1
1
1
1
0.999991
0.999992
0.999997
1
0.999978
1
0.999978
0.999978
0.999978
1
0.999999
0.999958
1
0.999958
1
1
0.999989
1
0.999989
1
1
1
0.999969
1
1
0.999065
1
0.998042
1
0.99995
1
0.999957
0.999416
0.998182
0.996463
0.996444
0.995977
0.995923
0.994401
0.99435
0.995943
0.995492
1
0.999015
1
0.998179
1
0.997297
1
0.997162
1
0.997123
1
0.997119
0.999999
0.999903
1
0.999908
1
0.999992
1
0.999992
0.999328
0.999948
1
1
1
1
1.17715e-09
8.01624e-06
0.000659223
0.00467223
0.0164335
0.0376174
0.655451
0.998759
0.999995
0.999998
1
1
1
0.999999
0.999996
0.999995
0.999994
0.999997
0.999988
0.999988
0.999998
0.99999
0.999991
1
0.999992
1
1
1
0.999998
1
1
1
1
1
1
0.999978
0.999978
1
0.999979
0.999983
1
0.999945
1
1
0.999959
1
0.999987
0.999999
0.999986
1
1
1
0.999996
1
1
0.999288
1
0.998242
1
0.999972
1
0.999972
0.99821
0.999443
0.998524
0.9985
0.997625
0.997599
0.994804
0.994875
0.994291
0.994313
0.994284
0.994286
0.994735
1
0.994285
0.994282
0.994625
1
0.994955
0.997597
1
0.994737
1
1
0.995413
0.997465
1
0.994631
1
1
1
0.999247
1
0.99831
1
0.997624
1
0.997595
0.999997
0.999972
1
1
1
1
1
1
0.999133
0.999982
1
1
1
1
4.13596e-07
0.000195862
0.00227824
0.00720787
0.028841
0.043008
0.580375
0.993576
0.999786
1
1
0.999998
0.999998
0.999996
0.999999
0.999996
1
1
0.999996
1
0.999996
0.999994
1
0.999998
1
0.999994
0.999999
0.999995
0.999999
0.999996
1
1
1
0.999988
0.999989
0.999989
0.999992
0.999992
1
0.999996
1
0.999997
1
1
1
1
1
0.999996
1
1
0.99962
1
0.998494
0.998078
0.999318
0.999543
0.999529
0.999295
0.999294
0.999246
0.999314
0.997899
0.997976
0.995877
1
0.9954
1
0.995846
1
0.995289
1
0.994284
0.994281
0.994889
1
0.994282
0.994285
0.994754
1
0.994284
0.994281
0.994892
0.999989
0.994282
0.994284
0.994835
0.999989
0.998309
0.994818
1
1
0.994815
1
0.998158
0.99474
1
1
0.994711
1
1
0.999621
1
0.998597
1
0.998062
1
0.998011
0.999609
0.999999
1
1
1
1
1.25892e-05
0.000562958
0.00171151
0.00228206
0.0283351
0.0727649
0.454273
0.961076
0.999999
1
1
0.999999
0.999999
1
1
0.999998
1
0.999992
0.999994
0.999993
0.999996
0.999994
1
0.999993
1
0.999993
1
0.999992
1
0.999996
1
0.999996
1
0.999998
0.999998
0.999998
1
0.998151
0.998079
0.999803
0.999789
0.999718
0.999714
0.999948
0.999938
0.999789
0.999812
0.999627
1
0.999548
1
0.999606
1
0.999568
1
0.998353
1
0.998715
1
0.998365
1
0.998681
1
0.995738
1
0.995718
1
0.995812
1
0.995688
1
0.994281
0.994283
0.995097
1
0.994282
0.99428
0.995035
1
0.99992
1
1
1
1
1
4.28777e-05
0.000465748
0.000290378
0.000428511
0.0238282
0.0913095
0.235968
0.872122
0.996725
0.996725
0.956361
0.956301
1
1
0.999923
0.999922
1
0.999995
1
1
1
1
1
1
1
1
1
0.999999
1
1
1
1
0.99999
0.999993
0.999991
0.999997
0.999993
1
0.999993
1
0.999993
1
1
1
0.999997
1
0.999996
1
0.999161
0.997802
0.99981
0.999947
0.999952
0.999927
0.999934
1
1
1
1
0.999768
1
0.999662
1
0.999768
1
0.999663
1
0.998428
1
0.998949
1
0.9985
1
0.998984
1
0.996544
1
0.996514
1
0.99999
1
1
1
1
1
3.35896e-05
0.000118897
5.04202e-05
0.000245915
0.0247308
0.0836586
0.0915881
0.561584
1
1
0.88967
0.889778
0.999997
1
1
0.999997
1
1
1
0.999998
1
1
1
0.999996
1
1
1
1
1
1
1
0.999998
1
0.999998
1
1
1
1
0.999999
1
0.999997
1
0.999763
0.9978
0.999219
0.999958
0.999959
0.999964
0.999965
0.999984
0.999984
0.999974
0.99998
1
0.999994
1
0.999995
1
0.999995
1
0.999985
1
0.99997
1
0.999998
1
0.999999
1
0.999988
0.999852
1
0.999765
1
0.999926
1
0.999775
1
0.99901
1
0.999274
1
0.999057
1
0.999305
1
1
1
1
1
1
5.11927e-06
2.45891e-05
1.28853e-05
0.000241249
0.0143089
0.041174
0.122688
0.33999
0.339337
0.225988
0.227523
0.96356
0.999899
0.88929
0.992246
0.963665
0.999899
0.889507
0.992247
0.716082
0.715845
0.999997
1
1
1
0.999998
1
1
0.999998
0.99405
0.999999
0.999541
1
0.994018
1
0.999537
1
1
1
1
1
1
0.999999
1
0.999999
0.999996
0.998814
0.998712
0.999959
0.999825
0.999862
0.999893
0.999909
0.999967
0.999963
0.999983
1
1
0.999984
0.999983
1
1
0.999986
0.999999
0.999977
0.999999
0.999992
0.999999
0.999972
0.999999
0.999989
1
0.999999
1
1
1
0.999996
1
0.999999
0.999999
1
0.999943
1
1
1
0.999998
1
6.60021e-07
6.51795e-06
2.93076e-06
8.30551e-05
0.00399255
0.0296252
0.221876
0.225477
0.0796115
0.0788768
0.214441
0.221257
0.222568
0.228355
0.924204
0.999411
0.807366
0.971397
0.924289
0.999421
0.807678
0.971542
0.725877
0.367007
0.563833
0.524566
0.725573
0.366677
0.566731
0.522594
1
1
1
0.999997
1
1
1
1
0.997815
0.999991
0.999602
1
0.997831
0.999991
0.999601
1
1
0.99978
0.998188
0.999887
0.999872
0.999883
0.999537
0.999611
0.999685
0.9997
0.999732
1
0.999647
1
0.999754
1
0.999683
1
0.999923
1
0.999843
1
0.999952
1
0.999858
1
0.999881
1
0.999967
1
0.999946
1
0.999955
0.999999
0.999999
0.999976
1
0.999986
0.999998
0.999962
0.999999
0.999962
0.999999
0.999995
0.999996
3.78083e-07
1.08463e-06
5.57493e-07
7.07012e-06
0.000936798
0.00776983
0.24879
0.248523
0.0595097
0.0599836
0.110262
0.304108
0.180735
0.160447
0.352087
0.433397
0.305727
0.132394
0.440509
0.193129
0.188805
0.40405
0.313926
0.44415
0.280253
0.472143
0.31853
0.451922
0.296653
0.487763
0.842197
0.99431
0.772108
0.956694
0.842254
0.994335
0.771859
0.956512
0.56313
0.401698
0.566163
0.399545
1
0.999888
1
0.999876
0.948409
0.999938
0.948292
0.999941
0.999999
0.999987
0.998176
0.998568
0.999985
0.999987
0.999968
0.999969
0.999437
0.999505
0.999251
0.999334
1
0.998674
0.999992
0.999081
1
0.999647
1
0.998793
1
0.999157
1
0.999683
0.999725
1
0.999776
1
0.999707
1
0.999797
0.99992
1
1
0.999764
1
0.999858
0.999913
1
1
0.999946
1
0.999958
1
0.999996
0.999988
2.38373e-07
4.18769e-08
2.9657e-07
1.33098e-05
9.3416e-05
0.00237542
0.00238376
0.000577795
0.000577795
0.165884
0.161767
0.019129
0.0190607
0.182717
0.109717
0.20099
0.147088
0.129332
0.336306
0.195589
0.119754
0.146886
0.212965
0.147498
0.358998
0.304272
0.444857
0.266298
0.477896
0.303748
0.448043
0.266796
0.488558
0.607964
0.789589
0.605808
0.789709
0.999999
0.999999
0.999842
0.99684
0.999842
0.999993
0.999994
0.999819
0.999852
0.998244
1
0.99824
0.999874
0.998266
1
0.998261
0.999935
0.998235
0.998675
0.99947
0.998237
0.999571
0.999798
0.998253
0.998792
0.999554
0.998257
0.999634
0.999883
1
1
0.999177
0.999502
1
1
0.999254
0.99953
0.9996
1
0.99963
1
0.999682
1
0.9999
1
0.999667
1
0.999891
1
0.999991
3.30792e-09
1.32363e-08
7.65345e-07
6.81737e-05
0.000577006
0.000791945
0.000784409
0.000577795
0.000577795
0.0414824
0.143768
0.112578
0.0390272
0.0409007
0.156998
0.115011
0.0400619
0.00788823
0.00769991
0.329577
0.489273
0.345726
0.595578
0.316169
0.510073
0.306586
0.595578
0.999999
1
0.999989
0.999221
0.996941
0.999894
0.999893
0.999968
0.999975
0.999994
0.999993
0.999701
0.9997
0.998589
0.999853
0.998444
0.999473
0.998666
0.99994
0.998543
0.999595
0.99852
0.998232
0.999673
0.998878
0.998241
0.998937
0.998552
0.998249
0.998919
0.999714
0.99827
0.998988
1
0.999363
1
0.999396
8.72512e-11
1.64899e-08
4.06364e-06
0.000210835
0.000674859
0.000720916
0.000685433
0.000683945
0.000871573
0.000855716
0.000601262
0.000614298
0.0203822
0.112186
0.0635398
0.0263064
0.0203562
0.123167
0.0680666
0.0271019
0.0015921
0.0022944
0.00591258
0.00691951
0.0015129
0.00220378
0.00577542
0.00673505
0.277865
0.289675
0.291154
0.327831
1
0.999998
0.999873
0.997978
0.998875
0.999978
1
0.999983
0.999976
0.999877
0.999886
1
0.998509
0.999916
0.998844
1
0.998579
0.999974
0.998904
0.998434
0.999555
0.998268
0.999163
0.998438
0.99969
0.998308
0.999275
5.88878e-11
1.07255e-08
1.24561e-05
0.000207183
0.000774225
0.000836837
0.00060857
0.00059033
0.00116889
0.00141207
0.000723303
0.000611592
0.000807155
0.000422112
0.00107929
0.00135925
0.000769468
0.000642687
0.000814331
0.000570996
0.000759506
0.000884856
0.00692353
0.0452903
0.0172911
0.0101459
0.0068117
0.0498286
0.0189304
0.0106805
0.00190501
0.00276551
0.00174775
0.00269284
1
0.999996
0.999424
0.996186
0.998614
0.99844
0.999797
0.999843
1
1
0.999989
0.999997
0.999859
1
0.999319
1
0.999177
0.99997
0.999848
1
0.999397
1
0.999211
0.999978
0.998787
0.999746
0.998767
0.999788
0.998301
0.999385
0.998297
0.999483
5.93547e-11
1.18858e-07
1.83696e-05
8.23225e-05
6.76345e-05
2.79224e-05
2.80468e-05
0.000756378
0.000742516
0.000382357
0.000295104
0.000613298
0.000797445
0.000602888
0.000450064
0.000924987
0.000423124
0.00064368
0.000795333
0.000711452
0.000517495
0.000927025
0.000572263
0.00066052
0.00113403
0.000496049
0.001134
0.000747855
0.001134
0.0007033
0.00113404
1
0.999986
0.998789
0.995069
0.999403
0.999424
0.999853
0.999883
1
1
0.999768
1
1
0.999933
1
0.999992
1
0.999939
1
0.999993
0.999778
1
0.999532
0.99909
1
0.999948
0.999582
0.999091
1
0.999946
0.998806
0.999749
0.998758
0.999737
4.82003e-11
1.91747e-06
2.96365e-05
0.000114805
0.000116927
6.52965e-05
6.6278e-05
0.000648791
0.00106698
0.00036602
0.000306717
0.00064557
0.000256555
0.000728509
0.00113404
0.000371695
0.000289846
0.000605393
0.000239229
0.000239892
0.000234702
0.000990022
0.000406272
0.001134
0.000645607
0.000490984
0.00113404
0.000687671
0.00113402
0.999998
0.999965
0.998488
0.995069
0.995069
0.997995
0.997985
0.999807
0.999816
0.99996
0.999957
0.999996
1
0.999997
1
0.999992
1
0.999994
0.999996
1
1
0.999998
1
0.999852
1
0.999951
1
0.999968
0.999837
1
1
1.08579e-08
5.58052e-06
4.20006e-05
0.00013518
0.000133182
8.4729e-05
8.38233e-05
0.000305506
0.00109443
0.00038738
0.000237175
0.000466981
0.000234896
0.000313787
0.0006232
0.000381663
0.000213172
0.00038182
0.00022341
0.000107473
0.00032092
0.000115616
0.000537675
0.000105107
0.000316029
0.000105276
0.00050694
0.000400567
0.00110367
0.000516568
0.000514287
0.999993
0.999949
0.998462
0.995072
0.995069
0.998171
0.998157
0.999788
0.999823
0.999998
1
1
0.999996
1
0.999918
0.999997
1
1
1
1
0.999941
0.999997
0.999989
1
1
0.999992
1
1
1
2.18695e-07
6.17759e-06
9.27204e-05
5.61661e-05
5.2192e-05
9.10223e-05
2.09752e-05
1.96734e-05
6.19921e-05
0.000104292
0.000176549
5.9467e-05
0.000102718
0.000170267
0.00022991
0.000598027
0.000672695
0.000156273
0.000626946
0.000117545
0.000205012
0.000337523
0.000524561
0.000122888
0.000497935
9.09227e-05
9.04793e-05
0.000461802
6.53647e-05
0.000306015
0.999989
0.999935
0.997662
0.995126
0.99509
0.99828
0.998144
0.999054
1
0.999819
1
0.999964
1
0.999118
0.999983
1
1
0.999878
1
1
1
1
1
0.999991
1
0.999985
1
0.999998
1
1
1
2.83921e-07
7.59216e-06
0.000556247
0.000709474
0.000557379
0.000709476
2.4566e-05
2.39531e-05
0.00139088
9.4525e-05
0.000185405
1.80998e-05
1.81414e-05
0.00167637
0.000300602
0.000360019
9.18203e-05
0.00140262
0.00018337
1.81414e-05
1.80998e-05
0.00167971
0.000308416
0.000360938
0.000674419
0.000107341
0.000457924
6.51436e-05
2.22108e-05
6.37529e-05
1.85723e-05
2.77248e-05
0.999991
0.999867
0.997966
0.995128
0.995087
0.998087
0.995099
0.9951
0.998182
0.999295
1
0.997908
0.999271
1
0.999987
0.999839
1
1
0.999985
1
0.999887
1
1
1
1
1
0.999988
1
0.999994
1
4.10939e-07
2.48607e-06
0.00537383
0.00258667
0.00331133
0.000457868
0.00536955
0.00258906
0.00333836
0.000458006
1.75968e-05
1.61314e-05
0.00291887
0.00589106
0.000122471
0.000328222
0.00452546
0.00673887
0.00289939
0.000116644
0.00588626
0.00032099
0.00452688
0.00674581
0.00032276
7.15499e-05
0.000210558
3.99964e-05
0.999996
0.999829
0.997894
0.995401
0.995103
0.998172
0.995365
0.995238
0.996487
0.998632
1
0.999001
1
1
0.994303
1
0.996649
0.998593
1
0.998924
1
1
0.993778
1
0.999989
0.999854
1
1
1
1
0.999881
1
3.58727e-08
4.08908e-07
1.0941e-05
1.01709e-05
4.01885e-07
3.31332e-08
2.51886e-08
0.003436
0.0119241
0.00983499
0.0195829
0.00881163
0.00578075
0.00608905
0.0147825
4.93028e-05
0.00179018
0.00295329
0.00344829
0.0119313
0.00982379
0.0194721
0.00882192
0.00576381
0.00609261
0.0147733
4.55501e-05
0.00180157
0.00294257
0.00846807
0.0132651
0.013502
0.0205864
0.00842488
0.0132455
0.0135097
0.0205716
0.999995
0.999673
0.99777
0.994224
1
0.994335
0.993797
1
0.993815
0.99811
0.994954
0.994783
0.998494
0.996549
0.999883
1
1
0.999952
0.998443
0.996439
0.999873
1
1
0.999944
0.999968
1
0.999975
1
1.24957e-09
1.7266e-06
1.99983e-07
1.73202e-06
1.40693e-07
2.5312e-08
1.31566e-08
0.0131586
0.00713376
0.0161933
0.0221514
0.00362072
0.00827862
1.50095e-05
2.23093e-05
5.29454e-05
0.000327413
0.000349114
2.02043e-05
8.24353e-06
1.67242e-05
0.013129
0.00713408
0.0221602
0.0162876
0.00363666
0.00834636
1.98593e-05
1.25499e-05
4.23598e-05
0.000332762
0.000339164
1.86902e-05
7.28355e-06
1.55611e-05
0.999994
0.999895
0.99648
0.996954
0.999934
0.998164
0.998737
0.987645
1
0.992139
0.999524
0.992973
0.998714
0.990085
0.998367
0.986168
1
0.991689
0.999481
0.992453
0.998714
0.989099
0.998141
0.994354
0.987626
0.997994
0.994011
0.986137
0.997457
0.997524
0.994836
1
0.99991
0.997513
0.99478
1
0.999912
-7.13891e-29
3.1577e-07
4.19899e-06
2.3017e-06
5.04625e-08
2.55585e-07
4.22241e-06
2.14766e-06
3.32398e-08
2.5939e-09
9.78575e-10
0.00379457
0.00522171
0.0010302
0.00117958
1.54826e-05
5.44693e-06
7.08754e-05
7.63101e-05
5.3681e-05
6.41034e-06
0.00380565
0.00528397
0.00104623
0.00117865
1.21034e-05
7.36887e-05
4.68745e-06
5.91244e-05
4.516e-05
6.25534e-06
0.999992
0.999743
0.995607
0.996097
0.999809
0.997402
0.997809
0.994316
0.991597
0.999862
0.999026
0.990361
0.997511
0.994233
0.991475
0.99988
0.998986
0.989319
0.996808
0.991163
0.986143
0.99625
0.986335
0.997468
0.998276
0.990397
0.999801
0.990862
0.985711
0.996241
0.985725
0.996596
0.998233
0.989789
0.999801
9.35643e-06
2.00824e-11
7.6081e-12
2.5058e-07
3.04156e-07
1.49522e-07
2.39884e-07
2.3909e-07
6.96644e-09
2.0212e-07
2.91099e-07
1.03903e-07
1.67288e-07
2.06636e-07
2.87026e-09
1.5637e-05
1.05033e-05
3.80847e-07
5.51172e-05
3.05603e-05
4.42753e-07
1.22315e-05
8.8844e-06
3.31336e-07
4.05962e-05
2.67758e-05
4.16179e-07
0.999992
0.999763
0.993714
0.998881
0.989413
0.994135
0.998888
0.989281
0.999792
0.997175
0.997417
0.990353
0.998831
0.988113
0.996009
0.990101
0.99896
0.986854
0.994622
0.988047
0.991195
0.986131
0.995066
0.99335
0.997131
0.988098
0.991187
0.985697
0.992777
0.995153
0.997098
3.68576e-14
4.88141e-08
1.18222e-05
6.1764e-08
9.38673e-06
1.47564e-07
5.14114e-07
2.16397e-07
5.07396e-07
2.18705e-07
7.291e-08
1.77363e-07
5.06023e-07
1.19048e-07
5.13814e-07
1.60559e-07
4.25749e-07
1.64432e-07
7.79279e-08
1.14058e-07
2.53633e-07
1.96099e-06
3.38834e-06
1.98802e-06
3.05453e-06
0.999996
0.999683
0.999738
0.993252
0.998176
0.986458
0.997994
0.987216
0.993399
0.99827
0.986156
0.998082
0.987089
0.996773
0.997071
0.98944
0.984796
0.989589
0.994196
0.989874
0.996298
0.989101
0.984822
0.989524
0.990091
0.994049
0.996226
1.24124e-17
9.60949e-29
1.25082e-11
6.93845e-29
1.00966e-11
3.0072e-05
2.15322e-05
2.51727e-06
3.31333e-07
9.719e-08
9.67487e-08
4.14108e-08
4.49201e-07
1.1885e-07
4.94804e-07
1.08324e-07
7.53552e-08
2.50822e-07
1.90692e-06
3.44182e-07
7.86852e-08
1.06157e-07
3.79762e-08
4.60774e-07
7.88938e-08
4.05019e-07
7.82696e-08
8.09837e-08
1.50737e-07
0.999994
0.999824
0.999875
0.999843
0.999874
0.992646
0.998301
0.986437
0.998669
0.985588
0.988407
0.995816
0.992771
0.998255
0.986099
0.998667
0.985394
0.988314
0.995746
0.997179
0.997422
0.989821
0.995459
0.989237
0.995153
9.31899e-16
1.62597e-33
1.79357e-17
1.4429e-33
1.88897e-17
2.54427e-06
8.55275e-09
1.9132e-06
5.73763e-09
6.93597e-05
5.62953e-05
1.14385e-06
9.00784e-09
9.01573e-09
2.19045e-06
2.26457e-07
3.35243e-08
7.78789e-08
3.033e-08
3.54672e-07
5.08567e-08
3.56055e-07
5.23902e-08
9.11919e-07
9.01573e-09
9.00784e-09
1.68919e-06
2.65441e-07
2.77885e-08
8.83477e-08
2.65468e-08
3.41314e-07
3.40006e-08
2.80963e-07
3.48489e-08
0.999965
0.999877
0.999758
0.999869
0.99977
0.997403
0.997512
0.992844
0.99749
0.985721
0.997706
0.985342
0.994658
0.987321
0.994458
0.986671
0.987507
0.996777
0.992973
0.997409
0.985358
0.997484
0.985187
0.99452
0.987212
0.994364
0.986529
0.986861
0.99637
3.7252e-15
1.04456e-15
5.08245e-33
1.04858e-15
1.89782e-33
3.54649e-11
6.1344e-15
2.86036e-11
5.07571e-15
2.34649e-05
7.62462e-07
1.87575e-05
5.68137e-07
3.62692e-05
6.36565e-05
0.000114817
5.44595e-05
3.24805e-05
4.09761e-05
0.000114846
4.57625e-05
1.22164e-06
4.37723e-08
2.20399e-08
1.98217e-06
8.74763e-07
3.87572e-08
2.0999e-08
1.67296e-06
0.999966
0.999218
0.999091
0.99938
0.999304
0.997544
0.997238
0.997603
0.997349
0.992212
0.992391
0.997724
0.987001
0.997724
0.986863
0.991345
0.986147
0.992179
0.985278
0.989067
0.984756
0.990184
0.983733
0.997724
0.986111
0.997668
0.98655
0.991229
0.985701
0.991734
0.985146
0.988653
0.984515
0.989864
0.983655
2.96212e-11
6.45528e-33
8.80054e-15
2.61697e-15
6.87775e-15
1.58531e-15
4.56265e-09
6.10468e-15
3.55898e-09
1.89893e-14
1.14044e-05
1.75532e-05
7.20725e-05
1.99753e-05
1.39097e-06
4.88368e-11
4.86167e-11
2.0682e-06
1.04577e-05
1.38301e-05
5.89182e-05
1.54787e-05
1.33981e-06
4.86167e-11
4.88368e-11
1.77401e-06
2.67434e-05
4.59801e-05
0.000114846
3.047e-05
2.57618e-05
2.18571e-05
8.41712e-05
2.67866e-05
0.999985
0.999166
0.999514
0.999373
0.999653
0.995841
0.995998
0.996153
0.996286
0.992359
0.9935
0.992476
0.993571
0.997655
0.984996
0.996569
0.985974
0.99768
0.984905
0.996671
0.985905
0.995811
0.987946
0.993827
0.990102
0.99563
0.98729
0.992742
0.989946
1.39621e-09
4.97174e-11
2.46273e-10
4.87843e-11
2.50859e-10
2.5784e-13
8.35597e-12
1.5704e-11
6.53467e-12
1.41688e-11
7.10992e-13
3.83999e-09
1.89699e-09
7.07515e-13
3.42794e-11
2.2307e-12
1.73035e-11
3.5071e-11
7.07515e-13
2.78921e-09
1.58151e-09
7.10992e-13
3.56982e-11
1.92165e-12
1.76223e-11
3.57169e-11
8.56606e-06
1.04287e-05
6.20424e-05
1.16863e-05
8.16957e-07
4.86167e-11
4.88368e-11
1.73013e-06
8.11885e-06
7.71624e-06
4.57543e-05
9.02529e-06
8.00024e-07
4.88368e-11
4.86167e-11
1.5643e-06
0.999992
0.99971
0.996871
0.998244
0.997093
0.998486
0.99277
0.992885
0.992869
0.992933
0.997178
0.984995
0.99698
0.984996
0.997944
0.988656
0.998067
0.986753
0.99715
0.984911
0.996892
0.984905
0.997984
0.988522
0.998067
0.986804
0.997043
0.986649
0.994982
0.989224
0.997067
0.986962
0.99528
0.989434
4.56097e-09
2.0178e-09
1.39965e-09
1.934e-09
1.39965e-09
1.41983e-10
5.24973e-09
1.61784e-10
4.51228e-09
2.95227e-13
9.82515e-11
8.03272e-12
3.65836e-11
7.84596e-12
1.02386e-10
1.25122e-11
7.2445e-11
1.15488e-11
7.88174e-11
6.19447e-12
3.47282e-11
6.1685e-12
8.28624e-11
1.1289e-11
6.19171e-11
1.0744e-11
8.85283e-11
2.04259e-09
8.31943e-10
9.48897e-11
4.43646e-11
2.46149e-12
1.66547e-11
4.09176e-11
5.77236e-11
1.85345e-09
6.99917e-10
5.38447e-11
4.11299e-11
2.72643e-12
1.82396e-11
3.52378e-11
0.999996
0.999963
0.99727
0.998721
0.997362
0.998832
0.993772
0.996525
0.993756
0.996488
0.997557
0.988895
0.998067
0.987045
0.997732
0.986497
0.99834
0.986517
0.997551
0.988713
0.998067
0.987063
0.997724
0.986538
0.998337
0.986557
0.99177
0.984994
0.992466
0.985082
0.992461
0.988896
0.994008
0.986981
0.99146
0.984906
0.992053
0.985
0.992615
0.989107
0.994168
0.987254
6.33187e-06
6.89168e-10
3.36998e-08
1.32807e-06
2.60203e-08
1.14527e-06
5.28423e-12
5.28423e-12
7.2979e-11
7.292e-11
3.93804e-10
7.49389e-11
6.6343e-09
2.54711e-09
2.63136e-09
1.63008e-09
4.12994e-12
4.12994e-12
6.49655e-11
8.24387e-11
5.26218e-10
5.83824e-11
5.34263e-09
2.24603e-09
2.10532e-09
1.45195e-09
8.30265e-13
1.20512e-10
5.67046e-12
3.79954e-11
5.52722e-12
1.1847e-10
5.52243e-12
8.26723e-11
4.17311e-12
3.79719e-11
4.0979e-12
8.27739e-11
4.83818e-12
2.97266e-11
2.16614e-12
1.74076e-11
2.19535e-11
3.42236e-11
2.47959e-12
2.02195e-11
2.09073e-11
0.999998
0.999989
0.999373
0.999763
0.999496
0.999724
0.992518
0.995035
0.992349
0.994677
0.998408
0.986478
0.998291
0.986458
0.998943
0.98676
0.999742
0.986985
0.99835
0.986518
0.99825
0.986496
0.998912
0.986932
0.99974
0.986668
0.995969
0.990381
0.996801
0.98863
0.994841
0.98677
0.994893
0.987268
0.995788
0.990293
0.99664
0.988559
0.994941
0.98687
0.994897
0.987269
2.82267e-06
3.63499e-06
2.4003e-05
3.49038e-06
2.60622e-05
2.51447e-10
3.59886e-08
4.84294e-07
3.3647e-08
4.36057e-07
5.26262e-12
5.30592e-12
1.0595e-10
4.01177e-11
2.50041e-11
7.0454e-10
8.63994e-09
1.29852e-09
7.44599e-10
9.00233e-10
4.10889e-12
5.53031e-12
9.22121e-11
2.59e-11
3.02899e-11
7.17548e-10
7.43952e-09
1.26545e-09
5.12412e-10
8.66797e-10
3.67786e-12
1.49088e-10
3.28215e-12
6.84591e-11
9.73595e-12
1.48874e-10
5.24085e-12
1.33187e-10
3.04351e-12
5.76162e-11
3.83934e-12
1.25124e-10
3.93093e-12
0.999999
0.999989
0.999244
0.997491
0.998231
0.997478
0.997955
0.98464
0.985575
0.994908
0.98464
0.995839
0.997163
0.987213
0.999844
0.985955
0.998207
0.985817
0.98464
0.994712
0.98464
0.995543
0.997117
0.985371
0.999841
0.985366
0.997923
0.993351
0.986517
0.994247
0.986438
0.994819
0.986882
0.993001
0.986499
0.993838
0.986472
0.994662
0.98716
0.992784
0.985083
0.990166
0.986613
0.992499
0.985088
0.990111
0.986452
8.28499e-07
1.93541e-05
9.22279e-06
2.10752e-05
1.03247e-05
4.244e-06
8.75106e-05
4.24863e-06
9.37026e-05
1.14038e-09
7.17469e-08
4.01772e-08
1.13064e-08
1.07098e-07
2.53084e-07
1.70656e-07
3.95754e-07
1.0802e-07
7.65208e-08
4.17576e-08
1.18004e-08
1.04835e-07
2.56322e-07
1.47177e-07
3.86181e-07
1.05673e-07
5.37182e-12
8.78993e-11
3.15488e-09
7.88469e-10
5.60267e-10
8.67976e-10
5.26534e-12
8.10879e-11
1.94774e-09
7.86182e-10
3.53044e-10
7.84072e-10
1.10473e-11
0.999999
0.999975
0.999223
0.995544
0.994879
0.995252
0.994877
0.996527
0.997022
0.996256
0.996822
0.98539
0.98464
0.991003
0.993915
0.985691
0.994202
0.991525
0.999846
0.990379
0.998086
0.985298
0.98464
0.993773
0.990543
0.985505
0.993749
0.991058
0.999778
0.98974
0.997795
0.987584
0.984897
0.988644
0.984903
0.989818
0.984897
0.986962
0.984946
0.98803
0.984945
0.989386
0.984946
6.76559e-05
6.43471e-07
7.83817e-05
4.26048e-05
8.47824e-05
4.56333e-05
2.55803e-06
1.70892e-07
3.13627e-06
4.62982e-06
6.14694e-06
6.41928e-07
7.18976e-05
8.7711e-05
5.26558e-05
2.93635e-05
3.45728e-06
1.47397e-07
3.31242e-06
6.11726e-06
6.69596e-06
5.90694e-07
7.3704e-05
9.13789e-05
5.65171e-05
2.98253e-05
3.69396e-09
2.19181e-08
2.07606e-08
1.09589e-08
1.62836e-07
2.75675e-07
1.80097e-07
2.35182e-08
2.39231e-08
1.08773e-08
1.26642e-07
2.34331e-07
1.80265e-07
8.52754e-12
0.999994
0.999976
0.998831
0.994877
0.995034
0.994879
0.994877
0.996248
0.995677
0.996185
0.995584
1
0.992292
1
0.9925
1
0.993337
1
0.993343
1
0.992042
1
0.99231
1
0.993187
1
0.993194
0.98464
0.989465
0.992297
0.999879
0.990371
0.999883
0.98464
0.989363
0.992048
0.999827
0.990002
0.999759
8.90043e-05
0.000401715
0.000521721
0.000396198
0.000521593
3.51266e-07
0.000374234
0.00028721
0.000381876
0.000274413
1.97613e-06
3.10725e-06
2.10149e-06
8.74544e-06
3.27759e-06
1.87567e-05
7.15842e-05
0.000123499
1.88862e-05
2.96131e-05
2.43767e-06
4.95207e-06
2.17318e-06
8.72457e-06
5.00037e-06
2.15278e-05
7.41785e-05
0.00012872
1.88572e-05
3.20545e-05
4.60489e-09
1.11073e-06
1.18553e-06
1.08355e-06
1.2417e-06
7.0039e-11
0.999988
0.999985
0.998846
0.994879
0.995777
0.99663
0.9957
0.996494
0.996415
0.995025
0.999999
0.997172
0.999999
1
0.99737
0.999999
0.997752
0.999999
0.994858
0.996302
0.999999
0.997173
0.999999
1
0.997277
0.999999
0.997798
0.999999
0.999999
0.993017
0.999996
0.993697
0.999996
0.994867
1
0.992858
1
0.993556
0.999996
0.994735
0.000740373