/*--------------------------------*- C++ -*----------------------------------*\
| =========                 |                                                 |
| \\      /  F ield         | OpenFOAM: The Open Source CFD Toolbox           |
|  \\    /   O peration     | Version:  5.x                                   |
|   \\  /    A nd           | Web:      www.OpenFOAM.org                      |
|    \\/     M anipulation  |                                                 |
\*---------------------------------------------------------------------------*/
FoamFile
{
    version     2.0;
    format      ascii;
    class       surfaceScalarField;
    location    "1.9";
    object      alphaPhi10;
}
// * * * * * * * * * * * * * * * * * * * * * * * * * * * * * * * * * * * * * //

dimensions      [0 3 -1 0 0 0 0];

internalField   nonuniform List<scalar> 
30582
(
0.000228409
-4.52233e-06
0.000233223
-4.81433e-06
0.000228184
-8.7922e-06
0.000234473
-1.24974e-06
0.000232877
-9.50741e-06
0.000227161
-1.19785e-05
0.000230991
3.48167e-06
0.000233969
-2.34218e-06
0.000232106
-1.44523e-05
0.000225489
-1.34055e-05
0.000226137
4.85371e-06
0.000230232
7.21876e-06
0.000233793
-4.02912e-06
0.000229502
-1.84654e-05
0.000223109
-1.23399e-05
0.000220513
5.62418e-06
0.0002255
9.58549e-06
0.000230582
1.0429e-05
0.000229846
-4.37296e-06
0.000227531
-2.28866e-05
0.000218043
-6.05903e-06
0.000214453
6.06023e-06
0.000220399
1.07257e-05
0.000226259
1.39091e-05
0.000226744
1.35306e-05
0.00022888
-5.7223e-06
0.000220024
-2.4868e-05
0.000214479
3.96074e-06
0.000206352
8.10124e-06
0.000214688
1.17711e-05
0.000221259
1.57258e-05
0.000223254
1.73991e-05
0.000226842
1.55689e-05
0.000218763
-4.46127e-06
0.000218049
-2.8436e-05
0.000198416
3.02436e-05
0.000195814
1.05377e-05
0.000206889
1.59002e-05
0.000215794
1.72355e-05
0.00021992
1.90598e-05
0.000224641
1.95994e-05
0.000218305
1.60269e-05
0.000219001
-5.4129e-06
0.000191985
-1.94016e-05
6.48709e-05
-7.7466e-06
0.00018284
1.2974e-05
0.000196445
2.09823e-05
0.000208346
2.33482e-05
0.000215886
2.12691e-05
0.000222165
2.15358e-05
0.000218968
1.89367e-05
0.000219212
1.58163e-05
0.000193176
-5.21408e-06
7.29977e-05
-2.06881e-06
-5.23593e-06
9.73592e-08
0.000168327
1.45126e-05
0.000183372
2.60464e-05
0.000197838
3.14912e-05
0.000209428
2.98069e-05
0.000218616
2.48182e-05
0.000219871
2.06334e-05
0.000220337
1.78115e-05
0.000198647
1.02981e-05
8.99382e-05
-2.57106e-06
-6.66356e-06
2.2281e-08
1.51273e-07
-4.89918e-10
0.000153464
1.48632e-05
0.000168647
2.92378e-05
0.000184384
3.95002e-05
0.00019918
4.1739e-05
0.000212388
3.60348e-05
0.000219141
2.55474e-05
0.000221789
1.91801e-05
0.000206733
9.03725e-06
0.00011076
-1.64731e-06
-7.32771e-06
-4.16573e-09
1.03856e-08
1.14212e-10
7.9766e-10
-2.55335e-12
0.000139269
1.41957e-05
0.000153519
2.99911e-05
0.000169112
4.45091e-05
0.000185412
5.32679e-05
0.000201982
5.21457e-05
0.00021472
4.04563e-05
0.000221985
2.53492e-05
0.000215602
9.56447e-06
0.000130211
-1.93819e-06
-6.97082e-06
-1.16549e-08
-2.91468e-09
1.83258e-11
4.42274e-11
1.34964e-13
-3.56661e-15
4.63516e-16
0.000126405
1.2864e-05
0.000139105
2.86095e-05
0.000153536
4.55672e-05
0.000169451
6.04702e-05
0.000187464
6.77852e-05
0.000204902
6.19631e-05
0.00021824
4.41987e-05
0.000222371
1.75992e-05
0.000153207
-2.59949e-06
-4.9436e-06
-3.34989e-08
-6.31893e-09
-4.55766e-12
2.82909e-12
6.21706e-14
-4.52659e-15
-3.19913e-17
2.21059e-16
-8.39935e-22
0.000115016
1.13884e-05
0.000126072
2.58972e-05
0.000138978
4.31683e-05
0.000153042
6.19762e-05
0.000170345
7.75898e-05
0.000189702
8.29852e-05
0.000208396
7.18023e-05
0.000223769
4.11281e-05
0.000174914
-1.35311e-06
-1.50563e-07
-7.13707e-08
-1.25218e-08
-2.38258e-11
2.04361e-12
-3.61166e-16
-1.18539e-18
2.58356e-18
3.41184e-18
-1.73948e-25
-2.03698e-25
0.000104274
1.07426e-05
0.000114568
2.28919e-05
0.000126075
3.88e-05
0.000137736
5.84747e-05
0.000152869
7.94524e-05
0.000171126
9.61665e-05
0.000192
9.93754e-05
0.000216634
7.60207e-05
0.000190975
8.81913e-06
8.66661e-06
-1.32513e-07
-2.36103e-08
-7.12661e-11
5.22745e-12
-4.49729e-15
7.74686e-17
-1.70829e-20
6.19746e-21
2.48481e-22
-7.04314e-24
9.34829e-05
1.07907e-05
0.000104071
2.12397e-05
0.000114768
3.41984e-05
0.000124476
5.20603e-05
0.000137126
7.42169e-05
0.000151962
9.86162e-05
0.000171447
0.000116715
0.0002006
0.000111187
0.000196414
2.65887e-05
2.10109e-05
-1.66309e-07
-3.84631e-08
-1.77926e-10
8.68555e-12
-1.70721e-14
4.36377e-16
-1.51443e-19
2.54345e-21
-1.86559e-25
-4.41726e-26
8.19795e-05
1.15034e-05
9.36578e-05
2.12044e-05
0.000104515
3.14932e-05
0.000113402
4.52722e-05
0.000124149
6.50376e-05
0.000134902
9.12764e-05
0.000150245
0.000119816
0.000178742
0.000133726
0.000189941
4.48136e-05
2.99615e-05
1.90555e-07
-1.39628e-08
-3.79042e-10
1.67841e-11
-5.52337e-14
7.26375e-16
-5.6133e-19
5.90672e-21
-3.18647e-24
6.42769e-28
6.9133e-05
1.28465e-05
8.24003e-05
2.27609e-05
9.44026e-05
3.13166e-05
0.00010396
4.0935e-05
0.000113619
5.58017e-05
0.00012137
7.85696e-05
0.000132105
0.000109415
0.000155175
0.000139042
0.000175671
5.68477e-05
3.24095e-05
1.58829e-06
1.67218e-07
-4.83218e-10
2.65666e-11
-1.34271e-13
6.27364e-16
-1.90957e-18
-5.80212e-21
-1.3735e-23
1.40687e-25
5.47076e-05
1.44254e-05
6.96676e-05
2.55792e-05
8.34245e-05
3.3739e-05
9.48282e-05
4.04483e-05
0.000104806
4.97488e-05
0.000111279
6.58927e-05
0.000118898
9.17775e-05
0.000134159
0.000127763
0.000159134
6.09911e-05
3.07761e-05
2.55291e-06
4.0968e-07
1.22592e-09
6.60382e-11
-2.09352e-13
-5.05329e-15
-4.48499e-18
-6.26225e-20
-5.33086e-23
2.94909e-25
3.88592e-05
1.58484e-05
5.52261e-05
2.88669e-05
7.08226e-05
3.81811e-05
8.45885e-05
4.39788e-05
9.63546e-05
4.88994e-05
0.000103929
5.70987e-05
0.00010997
7.48205e-05
0.000118084
0.000106969
0.000145073
5.83098e-05
2.77888e-05
2.84208e-06
5.13069e-07
7.89801e-09
3.15581e-10
3.43931e-15
-2.70353e-14
-6.82187e-18
-3.02737e-19
-1.26808e-22
5.79216e-25
2.20769e-05
1.67823e-05
3.92432e-05
3.18314e-05
5.63095e-05
4.338e-05
7.23576e-05
5.0412e-05
8.67631e-05
5.35702e-05
9.75223e-05
5.53066e-05
0.000104018
6.30503e-05
0.000106923
8.60275e-05
0.000136269
5.10896e-05
2.67042e-05
2.68942e-06
5.24084e-07
1.21178e-08
8.66789e-10
2.1987e-12
-6.7242e-14
1.92649e-18
-8.63837e-19
-2.07227e-22
-3.18311e-25
5.08256e-06
1.69944e-05
2.22363e-05
3.37892e-05
4.0046e-05
4.80949e-05
5.78369e-05
5.79007e-05
7.48521e-05
6.2323e-05
8.95101e-05
6.15824e-05
9.91235e-05
6.02012e-05
0.000101403
6.85796e-05
0.000132718
4.28858e-05
3.14134e-05
2.33417e-06
5.2056e-07
1.39355e-08
1.71632e-09
5.62401e-12
-3.45459e-14
1.2819e-16
-1.61204e-18
-7.92784e-24
-7.41887e-24
-1.12826e-05
1.63652e-05
4.96148e-06
3.42691e-05
2.25764e-05
5.12587e-05
4.12115e-05
6.47203e-05
6.02047e-05
7.25482e-05
7.83039e-05
7.35292e-05
9.25054e-05
6.82005e-05
9.86666e-05
6.29375e-05
0.000133731
3.70012e-05
4.3191e-05
2.16954e-06
6.02703e-07
1.47958e-08
3.18926e-09
9.1231e-12
1.27648e-13
3.8402e-16
-1.76245e-18
5.89821e-21
-3.88595e-23
-2.61551e-05
1.48725e-05
-1.17086e-05
3.30353e-05
4.7123e-06
5.21332e-05
2.30928e-05
6.93774e-05
4.29906e-05
8.19344e-05
6.36097e-05
8.72425e-05
8.21706e-05
8.38641e-05
9.37869e-05
7.30802e-05
0.000132975
4.27136e-05
6.01763e-05
2.64043e-06
9.6372e-07
1.57635e-08
6.08699e-09
1.19418e-11
4.95163e-13
7.53402e-16
1.07095e-18
1.72909e-20
-6.41019e-23
-3.87809e-05
1.26257e-05
-2.68714e-05
3.00353e-05
-1.26079e-05
5.03555e-05
4.38449e-06
7.08415e-05
2.3893e-05
8.84749e-05
4.56709e-05
9.98731e-05
6.76119e-05
0.000101801
8.4117e-05
9.35339e-05
0.0001267
6.0036e-05
7.95977e-05
4.52297e-06
2.28961e-06
1.29146e-08
1.28778e-08
1.27991e-11
1.42068e-12
1.14497e-15
7.93248e-18
3.04929e-20
-6.46486e-23
-4.85932e-05
9.81232e-06
-3.97395e-05
2.54938e-05
-2.84058e-05
4.58332e-05
-1.38745e-05
6.86145e-05
3.94504e-06
9.07895e-05
2.52961e-05
0.00010885
4.89608e-05
0.000118524
6.88532e-05
0.000117065
0.000113239
8.73094e-05
9.6598e-05
9.19365e-06
5.33487e-06
2.98418e-08
3.18785e-08
7.09115e-12
4.47445e-12
1.54034e-15
1.73988e-17
4.49342e-20
-2.86474e-23
-5.5256e-05
6.6629e-06
-4.97045e-05
1.97773e-05
-4.18432e-05
3.89312e-05
-3.05715e-05
6.25301e-05
-1.56728e-05
8.82324e-05
3.65493e-06
0.000112431
2.71363e-05
0.000130674
4.84905e-05
0.000138887
9.33103e-05
0.000117748
0.000105151
1.81608e-05
9.9655e-06
1.86916e-07
9.49923e-08
6.10599e-11
1.5965e-11
1.61334e-15
2.20427e-17
6.87219e-20
1.3329e-22
-5.865e-05
3.39395e-06
-5.63593e-05
1.33178e-05
-5.22938e-05
3.02279e-05
-4.47605e-05
5.31202e-05
-3.3685e-05
8.05423e-05
-1.7865e-05
0.000109752
3.48083e-06
0.000136086
2.48006e-05
0.000154364
6.75703e-05
0.000146404
0.000101607
3.11107e-05
1.49701e-05
6.92441e-07
2.40924e-07
1.10377e-09
7.88736e-11
2.50687e-14
-8.84824e-18
9.96052e-20
6.40557e-22
-5.87072e-05
5.72254e-08
-5.95681e-05
6.60277e-06
-5.94022e-05
2.04263e-05
-5.56993e-05
4.11666e-05
-4.9044e-05
6.84792e-05
-3.76909e-05
0.000100368
-2.051e-05
0.000133743
3.31833e-07
0.000160555
3.75379e-05
0.000167432
8.4499e-05
4.65724e-05
1.83812e-05
1.73337e-06
4.55736e-07
6.46861e-09
4.69135e-10
7.77555e-13
1.61274e-16
1.05461e-18
-4.08078e-21
-5.59592e-05
-2.74797e-06
-5.9895e-05
3.8407e-07
-6.30635e-05
1.0264e-05
-6.28424e-05
2.75695e-05
-6.09632e-05
5.30859e-05
-5.45802e-05
8.53685e-05
-4.26427e-05
0.000122501
-2.32252e-05
0.0001573
5.95411e-06
0.000176381
5.52322e-05
6.09624e-05
1.80993e-05
3.3749e-06
6.79953e-07
2.2335e-08
1.78402e-09
8.0458e-12
3.1773e-15
4.55847e-17
-2.14741e-19
-5.08293e-05
-5.13002e-06
-5.71299e-05
-5.51308e-06
-6.25669e-05
-1.12544e-07
-6.58718e-05
1.32935e-05
-6.90214e-05
3.56277e-05
-6.75419e-05
6.60476e-05
-6.12915e-05
0.000104017
-4.50554e-05
0.000144331
-2.47927e-05
0.000173337
1.66129e-05
7.07122e-05
1.28948e-05
5.33354e-06
7.76204e-07
5.72543e-08
4.38019e-09
4.55745e-11
1.12677e-14
1.0994e-15
-3.84464e-18
-4.38882e-05
-6.94102e-06
-5.18799e-05
-1.03801e-05
-5.93321e-05
-8.74797e-06
-6.62093e-05
2.24921e-07
-7.31536e-05
1.74257e-05
-7.58432e-05
4.3929e-05
-7.56475e-05
8.04036e-05
-6.48626e-05
0.000123825
-5.53007e-05
0.000161125
-2.64705e-05
7.34696e-05
3.47829e-06
6.99181e-06
5.8922e-07
1.12766e-07
7.1211e-09
1.71706e-10
1.72283e-13
1.12568e-14
-3.78968e-17
-3.57034e-05
-8.18484e-06
-4.47507e-05
-1.40702e-05
-5.36203e-05
-1.60919e-05
-6.26579e-05
-1.22994e-05
-7.18359e-05
-1.09291e-06
-7.86301e-05
2.02127e-05
-8.52404e-05
5.35218e-05
-8.09176e-05
9.64586e-05
-8.32024e-05
0.000139069
-6.61472e-05
6.79236e-05
-7.72524e-06
7.74752e-06
1.12674e-07
1.69773e-07
7.05991e-09
4.4798e-10
9.61938e-13
6.5582e-14
-2.17883e-16
-2.68016e-05
-8.90183e-06
-3.63395e-05
-1.6596e-05
-4.60416e-05
-2.16489e-05
-5.63701e-05
-2.23796e-05
-6.74374e-05
-1.66979e-05
-7.843e-05
-1.29315e-06
-9.00057e-05
2.4978e-05
-9.09799e-05
6.35842e-05
-0.000105958
0.00010796
-9.69847e-05
5.5873e-05
-1.78759e-05
7.11568e-06
-4.56248e-07
1.98986e-07
3.03937e-09
7.83493e-10
2.18395e-12
2.33581e-13
-7.29759e-16
-1.76676e-05
-9.13398e-06
-2.71874e-05
-1.80539e-05
-3.71818e-05
-2.54559e-05
-4.80976e-05
-2.99214e-05
-6.01491e-05
-2.9668e-05
-7.32239e-05
-2.19039e-05
-8.73686e-05
-3.9302e-06
-9.45772e-05
2.85754e-05
-0.0001227
7.14844e-05
-0.000116753
4.02773e-05
-2.4288e-05
5.50507e-06
-9.5967e-07
1.82836e-07
-2.43591e-09
9.55278e-10
2.19552e-12
4.82758e-13
-1.1701e-15
-8.74534e-06
-8.92226e-06
-1.77725e-05
-1.85489e-05
-2.75817e-05
-2.7654e-05
-3.85403e-05
-3.50132e-05
-5.08938e-05
-3.91767e-05
-6.47266e-05
-3.81652e-05
-8.04552e-05
-2.88174e-05
-9.4068e-05
-4.40122e-06
-0.000133099
3.44868e-05
-0.000123769
2.41667e-05
-2.57782e-05
3.54151e-06
-1.19672e-06
1.32416e-07
-8.01846e-09
9.03285e-10
9.47008e-13
6.08375e-13
-5.33096e-16
-3.73228e-07
-8.37211e-06
-8.52206e-06
-1.81727e-05
-1.77132e-05
-2.84174e-05
-2.82652e-05
-3.7929e-05
-4.03966e-05
-4.55104e-05
-5.41111e-05
-4.97923e-05
-6.99158e-05
-4.87043e-05
-8.70838e-05
-3.52505e-05
-0.000136197
1.78431e-06
-0.000117963
1.06091e-05
-2.29708e-05
1.81268e-06
-1.11357e-06
7.37822e-08
-1.0132e-08
6.20083e-10
-1.54105e-13
5.93989e-13
3.65966e-16
7.23049e-06
-7.60372e-06
1.82395e-07
-1.70766e-05
-8.00385e-06
-2.7882e-05
-1.77443e-05
-3.89383e-05
-2.92064e-05
-4.91192e-05
-4.23105e-05
-5.73105e-05
-5.76816e-05
-6.20233e-05
-7.69682e-05
-5.71829e-05
-0.000131857
-2.2874e-05
-0.000100988
1.29325e-06
-1.74145e-05
6.22941e-07
-8.32292e-07
3.11314e-08
-7.89659e-09
2.84937e-10
1.99028e-13
3.81871e-13
1.45365e-15
-6.86334e-06
1.40938e-05
7.95897e-06
-1.53803e-05
1.14411e-06
-2.62245e-05
-7.41405e-06
-3.82122e-05
-1.77759e-05
-5.03688e-05
-2.98917e-05
-6.1538e-05
-4.47164e-05
-7.02601e-05
-6.6542e-05
-6.91276e-05
-0.000122255
-3.62412e-05
-7.53429e-05
-4.24393e-06
-1.0852e-05
-1.41941e-09
-5.13766e-07
8.75842e-09
-4.23701e-09
8.81549e-11
7.43131e-13
1.40388e-13
1.65674e-15
-1.36301e-05
1.47258e-05
-1.13444e-05
2.54383e-05
9.32951e-06
-2.35657e-05
2.28038e-06
-3.5919e-05
-6.55377e-06
-4.94344e-05
-1.72455e-05
-6.30149e-05
-3.14735e-05
-7.47296e-05
-5.68358e-05
-7.4315e-05
-0.0001114
-3.72779e-05
-4.67311e-05
-4.88081e-06
-5.13406e-06
-1.73648e-07
-2.48289e-07
-2.1632e-11
-1.59548e-09
1.50259e-11
5.26613e-13
3.11815e-14
7.97277e-16
-2.05517e-05
1.62511e-05
-2.24571e-05
2.58384e-05
-6.65101e-06
3.20893e-05
1.09833e-05
-3.22686e-05
3.96762e-06
-4.64404e-05
-4.77115e-06
-6.19086e-05
-1.82016e-05
-7.61671e-05
-4.77698e-05
-7.5211e-05
-9.95803e-05
-2.9871e-05
-2.46742e-05
-3.27487e-06
-1.88432e-06
-1.24737e-07
-1.0315e-07
-8.40391e-10
-4.67796e-10
-5.19501e-13
2.29361e-13
3.19543e-15
2.45287e-16
-2.78522e-05
1.82838e-05
-3.32468e-05
2.70408e-05
-1.25582e-05
3.17456e-05
-2.8272e-06
3.49165e-05
1.33175e-05
-4.16185e-05
6.99817e-06
-5.82093e-05
-5.25495e-06
-7.4629e-05
-3.86297e-05
-7.33782e-05
-8.55381e-05
-2.29347e-05
-1.13179e-05
-1.91391e-06
-6.11798e-07
-5.59748e-08
-4.04627e-08
-4.69302e-10
-1.08822e-10
-5.5467e-13
7.58084e-14
-7.35067e-17
4.40957e-17
-3.54467e-05
2.09119e-05
-4.41281e-05
2.91651e-05
-1.75168e-05
3.19995e-05
-3.16171e-06
3.20801e-05
-1.15691e-05
4.64856e-05
1.75755e-05
-5.21951e-05
6.75959e-06
-6.98635e-05
-2.90337e-05
-6.89884e-05
-6.91373e-05
-1.73505e-05
-4.03399e-06
-1.12446e-06
-2.12302e-07
-2.27433e-08
-1.65117e-08
-1.73734e-10
-2.80823e-11
-1.62807e-13
1.20744e-14
-3.2295e-17
3.59706e-18
-4.39164e-05
2.60462e-05
-5.45071e-05
3.1291e-05
-2.12368e-05
3.28851e-05
-3.40517e-06
3.22429e-05
-1.86635e-05
3.91744e-05
-2.35184e-05
7.00041e-05
1.73086e-05
-6.22488e-05
-1.95129e-05
-6.16937e-05
-5.1783e-05
-1.27458e-05
-3.1434e-07
-6.84261e-07
-9.92082e-08
-1.01247e-08
-7.13617e-09
-6.01631e-11
-8.48445e-12
-3.90126e-14
1.30471e-15
-7.38836e-18
3.50051e-19
-5.10989e-05
2.50653e-05
-6.50799e-05
3.66227e-05
-2.30623e-05
3.31164e-05
1.06373e-06
2.84162e-05
-2.12121e-05
3.47915e-05
-3.59419e-05
5.15979e-05
-6.35568e-05
0.000133561
-1.11936e-05
-5.20641e-05
-3.59038e-05
-8.88659e-06
1.3102e-06
-4.21762e-07
-6.96688e-08
-5.08912e-09
-3.37167e-09
-2.20499e-11
-2.95949e-12
-9.77713e-15
5.01599e-17
-1.46876e-18
4.38611e-20
-3.99674e-05
-5.3283e-06
-7.18989e-05
3.31161e-05
-2.31983e-05
3.67612e-05
6.18759e-06
2.79926e-05
-1.57872e-05
2.29913e-05
-3.86296e-05
3.74792e-05
-0.000109165
9.72062e-05
-8.2262e-05
0.000215823
-2.3805e-05
-5.84949e-06
1.89633e-06
-2.54329e-07
-5.79686e-08
-2.85595e-09
-1.71502e-09
-9.1239e-12
-1.16313e-12
-2.81886e-15
-3.9054e-17
-3.18543e-19
5.70363e-21
-3.60465e-06
-1.48771e-05
-5.12637e-05
1.73658e-06
-2.06107e-05
3.10281e-05
1.59735e-05
2.69746e-05
-3.61987e-06
1.58253e-05
-3.07719e-05
1.51335e-05
-0.000130398
5.87124e-05
-0.000157457
0.000172401
-0.000131723
0.000347546
1.92514e-06
-1.44635e-07
-4.92311e-08
-1.6817e-09
-9.15224e-10
-4.29638e-12
-4.96484e-13
-9.74807e-16
-2.1675e-17
-8.50594e-20
8.36544e-22
-8.00396e-08
1.84509e-06
-3.54051e-06
-1.16833e-06
-1.2109e-05
1.35978e-06
2.70554e-05
1.95155e-05
1.54354e-05
7.91823e-06
-1.31868e-05
-1.75981e-06
-0.000125222
9.95689e-06
-0.000212757
0.000114012
-0.000236351
0.000277029
-1.52478e-05
0.000362794
-3.64726e-08
-9.45004e-10
-5.13872e-10
-2.19924e-12
-2.25952e-13
-3.98426e-16
-1.04096e-17
-2.85153e-20
1.07944e-22
-5.18193e-10
-1.92825e-08
-6.64387e-08
1.46907e-06
-7.95164e-07
3.11964e-06
2.10882e-05
-8.88709e-06
3.76073e-05
-3.35262e-06
1.63669e-05
-2.16355e-05
-9.27367e-05
-3.42446e-05
-0.000226553
2.37533e-05
-0.000319641
0.000197302
-0.000107791
0.000369572
8.89696e-05
0.000273824
-2.69242e-10
-1.13066e-12
-1.18005e-13
-1.77876e-16
-5.43884e-18
-1.14528e-20
-1.30697e-23
-5.28538e-13
-9.54869e-11
-4.00247e-10
-8.26623e-09
-1.29055e-08
1.40501e-06
2.46851e-06
1.51793e-06
3.1567e-05
-2.89096e-05
5.14531e-05
-3.93728e-05
-3.41802e-05
-8.01502e-05
-0.000186655
-7.4141e-05
-0.00037246
7.65716e-05
-0.000262925
0.000352435
0.00014715
0.000311391
0.00174907
0.000643071
-0.00211832
-6.4333e-14
-8.22791e-17
-3.33744e-18
-5.10684e-21
-2.84674e-23
-3.62314e-17
-2.19992e-14
-2.90768e-13
-4.14667e-11
-7.27538e-11
-6.72518e-09
1.10439e-08
1.22043e-06
4.36882e-06
-4.49335e-06
4.36047e-05
-5.53307e-05
3.56564e-05
-0.000109528
-8.8952e-05
-0.000177687
-0.000352341
-9.42548e-05
-0.000403933
0.000217579
0.000116067
0.000383519
0.00139228
0.000668188
0.00223761
0.000852522
-0.00244706
0.000483467
-0.00260179
-1.97857e-18
-2.40128e-21
-2.38439e-23
-1.12892e-21
-5.63415e-19
-1.45045e-17
-1.25752e-14
-4.04954e-14
-3.3893e-11
6.05698e-11
-6.59242e-09
2.90256e-08
9.07033e-07
6.15809e-06
-1.20065e-05
4.60404e-05
-0.000101296
2.69205e-05
-0.00022449
-0.000218803
-0.000310977
-0.000408762
-8.94253e-05
2.62262e-05
0.00030742
0.00111669
0.000659101
0.00196161
0.000944183
0.00215233
0.000977023
-0.00227683
0.00064241
-0.002606
0.000309833
-0.00291162
-1.67173e-23
-4.91095e-24
-4.47668e-22
-3.75198e-19
-1.57647e-18
-9.48577e-15
8.40397e-14
-3.02348e-11
1.42185e-10
-8.18582e-09
4.81605e-08
6.1477e-07
6.9846e-06
-2.07176e-05
5.27129e-05
-0.000162676
-4.01139e-05
-0.000401513
-0.000320038
-0.000399661
-0.000105071
4.18715e-05
0.000923554
0.000500556
0.00169024
0.000930463
0.00197172
0.00112479
0.00196567
0.00106832
-0.00205697
0.000716594
-0.00235101
0.000446796
-0.00274296
0.000207686
-0.00311931
-3.57781e-24
-4.50375e-23
-2.7132e-19
9.83473e-18
-8.98231e-15
1.52936e-13
-3.4139e-11
1.99323e-10
-1.42304e-08
6.31803e-08
3.2277e-07
7.10478e-06
-2.35949e-05
4.83366e-05
-0.000279227
-0.000168125
-0.000552343
-0.000210941
-0.00029379
0.000684801
0.000280627
0.0013846
0.000806198
0.00178396
0.00111822
0.0017916
0.00129886
0.00181751
0.00114853
-0.00189772
0.000777796
-0.00211817
0.000459304
-0.00236352
0.000258861
-0.00279414
9.40926e-05
-0.0032134
-2.7074e-24
4.56047e-22
-2.83857e-19
1.58185e-17
-1.17639e-14
1.97991e-13
-4.49559e-11
2.40851e-10
-2.26776e-08
4.19819e-08
5.95105e-07
1.17518e-05
-3.81718e-05
-7.98987e-06
-0.000442126
-0.000178865
-0.000583989
0.000481437
-9.04267e-05
0.00108074
0.000584493
0.00156069
0.00102947
0.00157975
0.00133007
0.00169909
0.00141728
0.00154274
0.00133596
-0.00173016
0.000895921
-0.00201585
0.000504171
-0.00216303
0.00024988
-0.00235454
8.98476e-05
-0.00278989
1.1829e-05
-0.00322523
-4.3838e-24
9.62457e-22
-4.41213e-19
2.09868e-17
-1.84324e-14
2.24455e-13
-5.13914e-11
1.38791e-10
-2.71915e-08
6.2147e-08
2.25221e-06
1.05789e-05
-8.77415e-05
-6.01755e-05
-0.000555048
0.000296987
-0.000399539
0.000798696
0.000191613
0.00128781
0.000857371
0.0013745
0.00123472
0.00148583
0.00154332
0.00139544
0.00156459
0.00135935
0.000379361
-0.00157338
0.000378677
0.000396253
0.000395793
0.00110807
-0.00194232
0.000646565
-0.00215824
0.000307087
-0.00222024
9.38571e-05
-0.00235855
-3.49573e-05
-0.00274311
-7.06668e-05
-0.00315456
-8.72567e-24
1.80545e-21
-8.54068e-19
2.84923e-17
-1.96345e-14
1.34547e-13
-2.22069e-11
3.77453e-11
-6.10442e-09
2.45188e-08
4.33102e-06
-2.80654e-07
-0.00016378
8.53844e-05
-0.000344451
0.000493562
-9.44052e-05
0.000899369
0.000580055
0.00119069
0.00104118
0.0012228
0.00149775
0.00126105
0.00167771
0.00110536
0.00181858
-3.96141e-07
0.000275587
-0.00030994
0.000414168
0.000347616
-0.00184815
0.000347093
0.000344117
0.000344329
0.000275683
-0.000309909
0.000412556
-2.43495e-07
0.000241093
0.000431002
0.000241927
0.000429316
0.000913071
-0.00220893
0.000471349
-0.00232251
0.000168818
-0.0022952
-3.9729e-05
-0.00235378
-0.000139199
-0.00267457
-0.000121899
-0.00303267
-1.9699e-23
3.44718e-21
-2.11541e-18
3.66057e-17
-2.65359e-14
3.97972e-14
-2.90545e-11
2.05471e-12
-1.19091e-08
9.31858e-08
-3.41747e-07
-1.64741e-06
-0.000138694
0.000216089
-6.82584e-05
0.00046975
0.000335214
0.000985866
0.000784879
0.000943876
0.00132009
0.00109141
0.00166739
0.000891396
0.00189168
-0.000197707
-0.000199224
0.000752345
0.000473698
0.000472834
0.00049965
0.00050001
-4.51006e-07
-0.000350899
0.000389145
-8.79893e-08
0.000211237
-0.000241852
0.000444933
-0.00217005
0.00123385
-0.000350467
0.000387317
-3.44153e-07
-0.000382972
0.000376599
-0.000381032
0.000374614
0.000211762
-0.000241356
0.000442126
1.85263e-08
0.000444522
0.00044188
0.000698718
-0.00243647
0.000264091
-0.00241778
-6.01491e-06
-0.00232892
-0.000183213
-0.00230976
-0.000226126
-0.00257035
-0.000151505
-0.00288116
-5.59347e-22
1.58844e-19
-6.03017e-16
3.48267e-14
-4.98533e-12
1.33122e-10
-3.45269e-09
-2.06563e-09
-1.2966e-07
6.83051e-09
-5.34959e-06
-1.35363e-06
-1.57506e-05
0.000210458
0.000189412
0.000672903
0.000648177
0.000684646
0.00104411
0.00087881
0.0015327
0.000699139
0.00185965
0.000617297
0.000501288
0.000501695
0.000511991
0.00051175
2.3167e-07
0.000104458
-0.000121768
0.000490771
0.000103326
-0.000120082
0.000489816
-1.80288e-08
9.3252e-05
0.000510874
9.27078e-05
0.000510611
-1.16723e-07
-0.000280029
0.000427595
8.18313e-07
0.000143219
-0.000161863
0.00012807
0.000101888
0.000124257
0.000108675
-0.00240139
0.000926722
0.000320043
0.000319038
-0.00178485
0.000399936
0.000400306
0.000407602
0.000407196
-0.000279044
0.000425043
-1.14399e-07
0.000416834
0.000414601
0.000142455
-0.000161248
0.000127266
0.000102995
0.000123719
0.000107898
7.11473e-07
0.000127066
0.000104439
0.000126033
0.000107728
0.000126472
0.000105697
0.000125509
0.000107293
0.000359357
-0.00253185
1.44594e-05
-0.00243821
-0.000223143
-0.00228898
-0.000340606
-0.00219528
-0.000275105
-0.00244675
-0.00019203
-0.00268913
-4.37736e-18
8.08237e-15
-7.74553e-13
1.45307e-10
-2.28823e-09
6.3271e-08
-3.73768e-07
2.00852e-07
-2.14662e-06
8.59244e-09
-2.48651e-05
1.58177e-05
8.97592e-05
0.000349165
0.000512376
0.000466254
0.00086657
0.000658025
0.00126489
0.000520422
0.00171141
0.000503824
0.000491999
0.000491981
0.000494852
0.000494285
-2.2956e-08
7.82326e-05
0.00051633
7.81356e-05
0.000516244
-2.46151e-08
6.83121e-05
0.000521936
6.81803e-05
0.000521681
2.82812e-07
2.60823e-05
-1.51832e-05
-4.4033e-06
0.000110259
-9.98532e-06
0.000132052
0.000114134
0.00013399
3.59728e-06
2.57761e-05
-1.54273e-05
-4.34532e-06
-9.99944e-06
0.00011051
0.000131964
0.000114136
0.000133832
3.65208e-06
4.0246e-07
2.18016e-05
0.00011928
0.000137794
0.000119213
0.00013856
2.21723e-05
0.000119367
0.000137589
0.000119277
0.000138385
7.50785e-07
-0.000193003
0.000126168
0.00010211
0.000123989
0.000106282
-1.5213e-05
7.15519e-06
1.44445e-07
1.36901e-05
0.000122293
-7.1182e-06
1.36778e-05
-1.62163e-05
0.000111556
1.71744e-07
-1.76592e-05
0.000119414
1.35734e-05
0.000115945
-0.00253856
0.000495509
-0.00205808
0.000281688
0.000281743
0.000317737
0.000318311
-1.71205e-09
0.000261276
-0.000284633
0.000423293
0.000262118
-0.000285005
0.000423191
2.5886e-07
0.000233583
0.000435057
0.000234925
0.000434683
-0.000192673
0.000125513
0.000103076
0.000123432
0.000105787
6.17186e-07
0.000126203
0.000101095
0.000122554
0.000107312
0.000125647
0.000102907
0.000122263
0.000107028
-1.52384e-05
7.05725e-06
1.36267e-05
0.000121965
-6.8603e-06
1.40799e-05
-1.63819e-05
0.000112171
-1.76588e-05
0.000119451
1.35915e-05
0.000115454
1.06735e-05
8.13924e-06
1.72285e-07
0.000121771
-1.003e-05
-1.33463e-05
0.000112633
2.08192e-07
0.000122069
0.000116095
1.06475e-05
8.14124e-06
0.000121482
-9.85282e-06
-1.33929e-05
0.000113516
0.000122166
0.000115634
2.3245e-06
-0.00251889
-0.000305146
-0.00235608
-0.000473753
-0.00215584
-0.00043801
-0.00203237
-0.000329526
-0.00230925
-0.000221966
-0.00246716
-1.06009e-14
1.27119e-11
-3.86357e-10
5.08435e-08
-2.74359e-07
1.23665e-06
-5.30316e-06
1.07092e-06
-2.06485e-05
1.68996e-09
-4.34363e-05
4.24548e-05
0.000281737
0.000230072
0.000747585
0.00039769
0.0011269
0.000351623
0.00143369
0.000360003
0.000463632
0.000463183
0.000464451
0.000463965
3.60064e-09
4.90916e-05
0.000511216
4.92715e-05
0.000510894
7.37904e-09
3.86219e-05
0.000505315
3.89148e-05
0.000504649
5.88156e-07
1.53355e-05
0.00012084
0.000138608
0.00012252
0.000140304
1.58126e-05
0.000121111
0.000138454
0.000123443
0.000140202
7.83012e-07
7.46831e-06
0.000123572
0.000141162
0.000123102
0.000141169
7.51026e-06
0.000124379
0.000141069
0.000124134
0.000141143
-4.10402e-06
-8.63079e-06
6.26827e-09
0.000122988
-4.29575e-06
-5.33347e-06
0.000112276
-9.17232e-06
-1.01752e-08
0.000132442
4.62159e-06
-4.90386e-06
-9.56214e-06
0.00011997
6.65748e-09
-8.97443e-06
0.000128849
3.55464e-08
1.75237e-06
0.000119618
-4.3311e-06
-5.32781e-06
0.000113175
-4.02937e-06
-8.57251e-06
-1.6618e-07
0.000123274
-9.15466e-06
4.54652e-06
0.000132533
-4.84328e-06
-9.52412e-06
0.000119929
-8.96261e-06
0.000128803
1.76668e-06
0.000119756
-5.5337e-06
9.67543e-06
-1.06746e-05
0.000125813
8.88459e-06
1.74421e-08
-9.94304e-06
0.000133304
-5.51954e-06
0.000124845
8.51769e-09
0.000132878
-5.45389e-06
9.60894e-06
-1.0714e-05
0.000125926
8.85081e-06
-9.97328e-06
0.000133275
-5.4526e-06
0.000124815
0.000132829
2.10022e-05
7.32596e-06
1.35917e-07
-2.54745e-05
0.000123179
-7.02386e-06
-1.95565e-05
0.000112528
1.71874e-07
0.000120136
-2.27284e-05
0.000116817
-2.92452e-06
2.22584e-06
-1.30674e-08
5.15689e-07
0.000122489
-2.05527e-06
2.7331e-06
-4.3047e-06
0.000115189
-1.90366e-09
-5.02671e-06
0.000119499
1.81672e-06
0.000119089
-0.00248125
-5.31024e-05
-0.00225646
0.000152213
0.000152335
0.000191469
0.000191856
5.37635e-08
0.000312316
-0.000324871
0.00029402
0.000312054
-0.000324578
0.000294146
1.73373e-08
0.000345334
0.000345316
4.49854e-07
0.000123306
-0.000140285
9.87263e-05
0.000119194
0.00010054
0.000121507
0.000123004
-0.000139228
9.8919e-05
0.000119003
0.000100644
0.000121379
4.22895e-07
2.12184e-05
3.76409e-05
0.000106027
9.20432e-06
0.00012786
0.000103665
0.000126209
2.70018e-05
2.12739e-05
3.75506e-05
0.00010651
9.25453e-06
0.000127784
0.000103693
0.00012602
2.69617e-05
2.09971e-05
7.23368e-06
-2.54943e-05
0.000122912
-6.8006e-06
-1.94632e-05
0.000113017
0.000120141
-2.28586e-05
0.00011645
-2.99647e-05
8.08767e-06
1.33766e-07
0.000122471
-1.14852e-05
2.39576e-05
0.0001099
1.73024e-07
0.000118605
0.000116681
-3.00031e-05
7.97586e-06
0.000122313
-1.11429e-05
2.43388e-05
0.000111043
0.000118841
0.000116537
-2.9177e-06
2.07539e-06
4.96195e-07
0.000122298
-1.91797e-06
2.74505e-06
-4.26774e-06
0.00011562
-5.00922e-06
0.000119622
1.87623e-06
0.000118405
3.80352e-06
4.17564e-08
0.000120154
0.000116382
3.77867e-06
0.000120008
0.000115961
-0.00045385
-0.00236878
-0.000621616
-0.00220805
-0.00063515
-0.0019587
-0.000507546
-0.00185435
-0.000393124
-0.00213809
-0.000329831
-0.00213733
-8.04503e-12
4.56427e-09
-4.03946e-08
7.97407e-07
-2.52913e-06
1.55657e-06
-1.40275e-05
-4.98975e-06
-5.3842e-05
3.97013e-09
-4.59277e-05
-4.96112e-06
0.000390462
0.00014461
0.000999112
0.000173742
0.00130478
0.000169264
0.000405136
0.000404685
0.000407431
0.000407179
-5.46326e-09
2.92548e-05
0.000473004
2.95297e-05
0.000472562
-4.13786e-08
1.97308e-05
0.000474016
1.9948e-05
0.000473506
6.54132e-07
4.02728e-06
0.00011979
0.000136913
0.000120292
0.000136935
3.83826e-06
0.000120479
0.000136848
0.000121067
0.00013684
7.78916e-07
-3.44739e-06
0.00012031
0.000136104
0.000119768
0.000135885
-4.33869e-06
0.000121349
0.000135952
0.00012063
0.000135726
-5.58418e-06
-1.14349e-05
0.000127185
-1.10712e-05
8.23815e-09
0.000134113
-5.69038e-06
-1.00132e-05
0.000126779
-2.29838e-09
-9.89288e-06
0.000133366
-5.4544e-06
-1.16301e-05
0.000127481
-1.11221e-05
0.000134157
-5.42268e-06
-1.02025e-05
0.000127438
-9.89992e-06
0.000133575
-5.69903e-06
1.11877e-05
-1.16626e-05
0.000129755
1.08104e-05
4.83558e-08
-1.14582e-05
0.00013602
-5.77378e-06
0.000130061
1.8442e-08
0.000136332
-5.53075e-06
1.12299e-05
-1.17374e-05
0.000130417
1.08734e-05
-1.14952e-05
0.000136191
-5.56241e-06
0.000130724
0.000136552
-1.97976e-06
5.24185e-06
-5.81713e-07
-2.45981e-05
-2.61624e-05
-5.18104e-09
-2.87679e-09
8.03682e-06
-8.86343e-07
-1.09485e-05
-6.31094e-09
-1.11524e-05
-1.94383e-06
5.36782e-06
-5.65469e-07
-2.46177e-05
8.02205e-06
-2.61667e-05
-8.68483e-07
-1.10086e-05
-1.11494e-05
-1.14571e-06
9.66492e-06
-9.78733e-06
9.55577e-06
-1.80274e-08
-9.64303e-06
-1.09631e-06
-1.41646e-08
-1.08858e-06
9.69052e-06
-9.84624e-06
9.55449e-06
-9.64809e-06
-1.06023e-06
7.57369e-06
2.44708e-06
5.71803e-09
-1.12647e-05
0.000124389
-2.03641e-06
-6.22272e-06
0.000116526
1.56758e-08
0.000120599
-7.71184e-06
0.000120795
4.02808e-06
1.1298e-06
9.46087e-09
-7.02975e-06
-1.21957e-06
-4.63337e-06
3.8552e-06
-1.34196e-08
3.32828e-06
-6.68939e-06
-0.002369
-0.000564065
-0.00230496
-2.98926e-05
-3.06169e-05
2.73423e-05
2.72102e-05
1.61975e-07
0.000334125
-0.000327399
0.00014504
0.000333411
-0.000326834
0.000145642
2.33451e-07
0.000200161
0.000200592
6.8772e-07
0.000166943
-0.000179418
6.11419e-05
8.23782e-05
7.02808e-05
9.20187e-05
0.0001658
-0.000178599
6.19859e-05
8.22356e-05
7.13624e-05
9.19692e-05
5.57445e-07
8.57679e-05
0.000105016
7.94799e-05
0.000101271
8.60777e-05
0.000104832
8.04133e-05
0.000101155
-5.72478e-06
8.63268e-06
-8.97453e-06
0.000104808
1.00664e-05
-5.11606e-08
-1.01379e-05
0.000113478
-5.61283e-06
6.41938e-06
0.000108376
-4.13846e-08
8.26254e-06
0.00011774
-5.54204e-06
8.67502e-06
-9.24038e-06
0.000105024
1.00428e-05
-1.01175e-05
0.000113509
-5.44346e-06
6.41016e-06
0.000108364
8.23475e-06
0.000117702
-4.31725e-06
-2.1197e-06
-1.15258e-05
0.000123952
-5.3881e-06
6.59875e-06
0.000117956
-5.69921e-06
-2.34916e-08
0.000134263
-5.07201e-06
-5.30341e-06
0.000113278
-2.08173e-08
0.000123489
1.51633e-08
1.59182e-05
0.000124322
-4.15285e-06
-2.04681e-06
-1.18266e-05
0.000124412
-5.36226e-06
6.60422e-06
0.000119121
-5.6584e-06
0.00013438
-5.11415e-06
-5.15955e-06
0.000113223