/*--------------------------------*- C++ -*----------------------------------*\
| =========                 |                                                 |
| \\      /  F ield         | OpenFOAM: The Open Source CFD Toolbox           |
|  \\    /   O peration     | Version:  5.x                                   |
|   \\  /    A nd           | Web:      www.OpenFOAM.org                      |
|    \\/     M anipulation  |                                                 |
\*---------------------------------------------------------------------------*/
FoamFile
{
    version     2.0;
    format      ascii;
    class       volScalarField;
    location    "1.9";
    object      k;
}
// * * * * * * * * * * * * * * * * * * * * * * * * * * * * * * * * * * * * * //

dimensions      [0 2 -2 0 0 0 0];

internalField   nonuniform List<scalar> 
12160
(
9.95074e-09
9.91687e-09
1.00195e-08
9.89582e-09
1.00514e-08
1.00082e-08
9.88488e-09
1.00796e-08
1.00172e-08
1.00075e-08
9.88021e-09
1.0114e-08
1.00268e-08
1.00143e-08
1.00075e-08
9.87859e-09
1.01238e-08
1.00348e-08
1.00195e-08
1.00141e-08
1.00085e-08
9.87831e-09
1.01191e-08
1.00374e-08
1.00228e-08
1.00186e-08
1.00161e-08
1.00088e-08
9.87846e-09
1.01119e-08
1.00363e-08
1.00239e-08
1.00211e-08
1.00204e-08
1.00185e-08
1.00138e-08
9.87869e-09
1.01041e-08
1.00341e-08
1.00236e-08
1.00219e-08
1.00221e-08
1.00234e-08
1.00304e-08
1.01035e-08
9.87883e-09
1.00972e-08
1.00322e-08
1.00229e-08
1.00219e-08
1.00227e-08
1.00249e-08
1.0033e-08
1.01024e-08
1.01107e-08
9.87878e-09
1.0091e-08
1.00306e-08
1.00223e-08
1.00216e-08
1.00226e-08
1.00248e-08
1.0031e-08
1.00919e-08
1.01067e-08
1.01737e-08
9.87855e-09
1.00854e-08
1.00294e-08
1.00217e-08
1.00212e-08
1.00224e-08
1.00243e-08
1.00306e-08
1.00809e-08
1.01117e-08
1.01431e-08
1.01787e-08
9.87816e-09
1.00801e-08
1.00283e-08
1.00212e-08
1.00208e-08
1.0022e-08
1.00239e-08
1.00319e-08
1.00738e-08
1.01123e-08
1.01529e-08
1.01075e-08
1.00914e-08
9.8778e-09
1.0075e-08
1.00274e-08
1.00208e-08
1.00204e-08
1.00216e-08
1.00236e-08
1.00339e-08
1.00687e-08
1.01108e-08
1.01233e-08
1.00818e-08
1.00462e-08
1.00779e-08
9.87769e-09
1.00743e-08
1.00266e-08
1.00204e-08
1.00201e-08
1.00212e-08
1.00232e-08
1.00355e-08
1.00658e-08
1.01073e-08
1.01289e-08
1.00592e-08
1.00434e-08
1.004e-08
1.00488e-08
9.87767e-09
1.00723e-08
1.00263e-08
1.00201e-08
1.00197e-08
1.00208e-08
1.00229e-08
1.00365e-08
1.00653e-08
1.00991e-08
1.01358e-08
1.00747e-08
1.00322e-08
1.00306e-08
1.00153e-08
9.87767e-09
1.00693e-08
1.00264e-08
1.00199e-08
1.00194e-08
1.00204e-08
1.00224e-08
1.00369e-08
1.00653e-08
1.009e-08
1.01408e-08
1.00845e-08
1.00309e-08
1.00242e-08
1.00205e-08
9.87767e-09
1.0066e-08
1.00266e-08
1.00198e-08
1.00191e-08
1.002e-08
1.00218e-08
1.00368e-08
1.00647e-08
1.00837e-08
1.01395e-08
1.00973e-08
1.00308e-08
1.0022e-08
1.00127e-08
9.87767e-09
1.00628e-08
1.00268e-08
1.00198e-08
1.00189e-08
1.00196e-08
1.0021e-08
1.00363e-08
1.00636e-08
1.00802e-08
1.01339e-08
1.01082e-08
1.00332e-08
1.00207e-08
1.00122e-08
9.87767e-09
1.00597e-08
1.00269e-08
1.00198e-08
1.00188e-08
1.00194e-08
1.00202e-08
1.00352e-08
1.00619e-08
1.0077e-08
1.01262e-08
1.01207e-08
1.00361e-08
1.00214e-08
1.00112e-08
9.87767e-09
1.00568e-08
1.00268e-08
1.00197e-08
1.00186e-08
1.00191e-08
1.00195e-08
1.00338e-08
1.00597e-08
1.00735e-08
1.01196e-08
1.01285e-08
1.00401e-08
1.00218e-08
1.00118e-08
9.87767e-09
1.00544e-08
1.00266e-08
1.00195e-08
1.00184e-08
1.00189e-08
1.00192e-08
1.00322e-08
1.00569e-08
1.00692e-08
1.01136e-08
1.01281e-08
1.00453e-08
1.00225e-08
1.00123e-08
9.87767e-09
1.00526e-08
1.00262e-08
1.00192e-08
1.0018e-08
1.00185e-08
1.00189e-08
1.00306e-08
1.00535e-08
1.00641e-08
1.01071e-08
1.01263e-08
1.00509e-08
1.00231e-08
1.00132e-08
9.87767e-09
1.00514e-08
1.00259e-08
1.00189e-08
1.00176e-08
1.00181e-08
1.00186e-08
1.00291e-08
1.00494e-08
1.00586e-08
1.00993e-08
1.0124e-08
1.00533e-08
1.0024e-08
1.0014e-08
9.87767e-09
1.0051e-08
1.00256e-08
1.00185e-08
1.00172e-08
1.00177e-08
1.00181e-08
1.00275e-08
1.0045e-08
1.00537e-08
1.00898e-08
1.01214e-08
1.00542e-08
1.00245e-08
1.00147e-08
9.87767e-09
1.00514e-08
1.00254e-08
1.00182e-08
1.00168e-08
1.00172e-08
1.00176e-08
1.00258e-08
1.00407e-08
1.00498e-08
1.00785e-08
1.0118e-08
1.00552e-08
1.00246e-08
1.00152e-08
9.87767e-09
1.00526e-08
1.00254e-08
1.0018e-08
1.00165e-08
1.00168e-08
1.00171e-08
1.00241e-08
1.00367e-08
1.00463e-08
1.00681e-08
1.01125e-08
1.00569e-08
1.00248e-08
1.00159e-08
9.87767e-09
1.00544e-08
1.00256e-08
1.0018e-08
1.00162e-08
1.00164e-08
1.00166e-08
1.00223e-08
1.0033e-08
1.00427e-08
1.006e-08
1.01011e-08
1.00595e-08
1.00255e-08
1.00168e-08
9.87767e-09
1.00566e-08
1.00258e-08
1.00181e-08
1.00162e-08
1.00161e-08
1.00161e-08
1.00204e-08
1.00294e-08
1.0039e-08
1.00531e-08
1.00849e-08
1.00624e-08
1.0027e-08
1.00181e-08
9.87767e-09
1.00592e-08
1.0026e-08
1.00183e-08
1.00163e-08
1.0016e-08
1.00155e-08
1.00184e-08
1.00261e-08
1.00353e-08
1.00468e-08
1.00697e-08
1.00618e-08
1.00297e-08
1.00197e-08
9.87779e-09
1.00621e-08
1.00261e-08
1.00185e-08
1.00166e-08
1.00162e-08
1.00154e-08
1.00166e-08
1.00231e-08
1.00316e-08
1.0041e-08
1.0057e-08
1.00565e-08
1.00332e-08
1.00211e-08
9.87819e-09
1.00649e-08
1.00261e-08
1.00187e-08
1.00169e-08
1.00166e-08
1.00159e-08
1.00161e-08
1.00207e-08
1.00282e-08
1.00358e-08
1.00464e-08
1.00489e-08
1.00344e-08
1.00225e-08
9.87895e-09
1.00676e-08
1.00259e-08
1.00189e-08
1.00173e-08
1.00169e-08
1.00164e-08
1.00175e-08
1.00203e-08
1.00254e-08
1.00312e-08
1.00378e-08
1.00407e-08
1.0033e-08
1.00234e-08
9.88002e-09
1.00699e-08
1.00257e-08
1.0019e-08
1.00176e-08
1.00174e-08
1.00169e-08
1.00193e-08
1.00224e-08
1.0025e-08
1.00275e-08
1.00312e-08
1.00333e-08
1.00299e-08
1.00234e-08
9.88131e-09
1.0072e-08
1.00256e-08
1.00192e-08
1.00179e-08
1.00178e-08
1.00173e-08
1.00211e-08
1.00252e-08
1.00275e-08
1.00273e-08
1.00265e-08
1.00275e-08
1.00262e-08
1.00224e-08
9.8827e-09
1.00742e-08
1.00256e-08
1.00193e-08
1.00182e-08
1.00182e-08
1.00178e-08
1.00228e-08
1.00284e-08
1.00307e-08
1.00306e-08
1.00269e-08
1.00232e-08
1.00226e-08
1.00209e-08
9.88412e-09
1.00766e-08
1.00257e-08
1.00195e-08
1.00185e-08
1.00185e-08
1.00183e-08
1.00244e-08
1.00317e-08
1.00342e-08
1.00348e-08
1.00316e-08
1.00236e-08
1.00198e-08
1.00191e-08
9.88556e-09
1.00792e-08
1.0026e-08
1.00198e-08
1.00188e-08
1.0019e-08
1.00189e-08
1.00261e-08
1.00351e-08
1.00376e-08
1.00395e-08
1.00381e-08
1.00279e-08
1.00198e-08
1.00174e-08
9.88711e-09
1.00823e-08
1.00264e-08
1.00201e-08
1.00192e-08
1.00194e-08
1.00198e-08
1.00279e-08
1.00385e-08
1.0041e-08
1.00443e-08
1.00462e-08
1.00337e-08
1.00224e-08
1.00171e-08
9.88882e-09
1.00857e-08
1.00269e-08
1.00204e-08
1.00195e-08
1.00199e-08
1.00208e-08
1.003e-08
1.0042e-08
1.00443e-08
1.00492e-08
1.00558e-08
1.00408e-08
1.00255e-08
1.00183e-08
1.00891e-08
9.89044e-09
1.00275e-08
1.00208e-08
1.002e-08
1.00204e-08
1.00221e-08
1.00322e-08
1.00455e-08
1.00481e-08
1.00552e-08
1.00669e-08
1.00481e-08
1.00287e-08
1.00198e-08
1.00282e-08
1.00924e-08
9.89343e-09
1.00213e-08
1.00205e-08
1.00211e-08
1.00235e-08
1.00346e-08
1.00489e-08
1.00528e-08
1.00633e-08
1.00782e-08
1.00543e-08
1.00311e-08
1.00211e-08
1.00218e-08
1.0029e-08
1.01029e-08
9.89782e-09
1.0021e-08
1.00218e-08
1.0025e-08
1.00371e-08
1.00524e-08
1.00583e-08
1.00724e-08
1.00867e-08
1.00576e-08
1.00316e-08
1.0022e-08
1.00217e-08
1.00224e-08
1.00318e-08
1.01171e-08
9.9105e-09
1.00227e-08
1.00267e-08
1.00397e-08
1.0056e-08
1.00642e-08
1.00807e-08
1.00913e-08
1.00574e-08
1.00306e-08
1.0022e-08
1.00236e-08
1.00223e-08
1.00241e-08
1.00371e-08
1.015e-08
9.93281e-09
1.00284e-08
1.00423e-08
1.00597e-08
1.00701e-08
1.00879e-08
1.00931e-08
1.00553e-08
1.0029e-08
1.0021e-08
1.00302e-08
1.00244e-08
1.00238e-08
1.0027e-08
1.0049e-08
1.02137e-08
1.00012e-08
1.00449e-08
1.00632e-08
1.00758e-08
1.0094e-08
1.00937e-08
1.00525e-08
1.0027e-08
1.0019e-08
1.00472e-08
1.00315e-08
1.00261e-08
1.00256e-08
1.00333e-08
1.00772e-08
1.03171e-08
1.00692e-08
1.00664e-08
1.00812e-08
1.00993e-08
1.00939e-08
1.00497e-08
1.00251e-08
1.00168e-08
1.00692e-08
1.00488e-08
1.00337e-08
1.00274e-08
1.00288e-08
1.00491e-08
1.01245e-08
1.04346e-08
1.01563e-08
1.00855e-08
1.01036e-08
1.00939e-08
1.00474e-08
1.00233e-08
1.00147e-08
1.0089e-08
1.00716e-08
1.00509e-08
1.00346e-08
1.00289e-08
1.00364e-08
1.00793e-08
1.02007e-08
1.04674e-08
1.01567e-08
1.01067e-08
1.00935e-08
1.00454e-08
1.00219e-08
1.0013e-08
1.01071e-08
1.00926e-08
1.00747e-08
1.00507e-08
1.00347e-08
1.00321e-08
1.00587e-08
1.01427e-08
1.02818e-08
1.06158e-08
1.06308e-08
1.00923e-08
1.00436e-08
1.00209e-08
1.00117e-08
1.0088e-08
1.01043e-08
1.00961e-08
1.00751e-08
1.00492e-08
1.00346e-08
1.00472e-08
1.01212e-08
1.02537e-08
1.04424e-08
1.08485e-08
7.77331e-05
1.00417e-08
1.00201e-08
1.00107e-08
1.00387e-08
1.00778e-08
1.01064e-08
1.00964e-08
1.0074e-08
1.00464e-08
1.00419e-08
1.01114e-08
1.02718e-08
1.04743e-08
1.06721e-08
3.0301e-05
0.000596856
0.000167504
1.00195e-08
1.001e-08
1.00187e-08
1.00323e-08
1.00745e-08
1.01157e-08
1.00953e-08
1.00715e-08
1.00503e-08
1.01045e-08
1.04648e-08
1.07639e-08
1.06844e-08
9.54281e-06
0.000313909
0.00229537
0.00101418
0.000293921
1.00094e-08
1.00089e-08
1.00164e-08
1.00309e-08
1.00922e-08
1.08776e-08
1.00955e-08
1.00916e-08
1.03021e-08
1.10063e-08
1.3723e-08
1.16215e-08
2.52946e-06
0.000144221
0.00135545
0.00548837
0.00357272
0.00156934
0.000465066
1.00076e-08
1.00162e-08
1.00326e-08
1.20529e-08
9.82288e-08
1.03041e-08
1.24212e-08
1.98436e-08
2.37942e-08
4.0913e-08
6.12676e-07
5.96182e-05
0.00072888
0.00352139
0.00956993
0.00804442
0.00510128
0.00224531
0.000679906
1.00077e-08
1.00169e-08
1.05596e-08
1.7486e-07
6.19022e-06
2.32254e-08
2.29696e-07
2.33387e-07
1.16282e-07
3.42267e-07
2.18306e-05
0.000356314
0.00206505
0.00631507
0.0142981
0.0136973
0.0108628
0.0068316
0.00304895
0.000942276
1.00084e-08
1.00674e-08
8.25767e-08
9.04858e-06
0.000207717
1.21312e-06
1.05405e-05
3.18997e-06
2.78721e-07
6.92528e-06
0.000157363
0.00106456
0.00412042
0.00926657
0.0268181
0.0200845
0.0179109
0.0134968
0.00847271
0.00389937
0.00125636
1.00111e-08
2.122e-08
5.16263e-06
0.00027809
0.00318036
0.000237246
0.000188565
1.14714e-06
2.1092e-06
6.32414e-05
0.000478729
0.00231364
0.00581145
0.0159405
0.567301
0.0324101
0.567849
0.54952
0.549925
0.0258796
0.0214711
0.0155699
0.00975602
0.00463937
0.00155297
1.06299e-08
1.22228e-06
0.000173663
0.00416597
0.0242961
0.00199075
0.0023361
1.03778e-05
1.91305e-05
0.000193036
0.00107489
0.00350718
0.00905273
0.156055
0.58859
0.657678
0.0337209
0.589206
0.51872
0.519607
0.657939
0.643101
0.643304
0.0305256
0.0240694
0.0170941
0.0106427
0.00513068
0.00183888
1.19054e-07
5.65332e-05
0.00269415
0.0269738
0.0819194
0.0446409
0.00599764
2.48053e-05
6.64122e-05
0.000405228
0.0016929
0.00505521
0.0513879
0.554464
0.554438
0.617648
0.617863
0.663376
0.656259
0.0405733
0.0530184
0.663747
0.569052
0.569699
0.656068
0.637617
0.637405
0.0348133
0.0266076
0.0185449
0.0112864
0.00545124
0.00218173
8.212e-06
0.00110603
0.0185819
0.0650754
0.112343
0.140956
0.00823614
7.60645e-05
0.000115124
0.000651155
0.00245257
0.0232952
0.630594
0.630729
0.637847
0.638279
0.673022
0.673337
0.769065
0.769095
0.663826
0.580535
0.907793
0.571095
0.95195
0.0487932
0.0552794
0.494446
0.494492
0.548166
0.548069
0.663733
0.674817
0.674968
0.579468
0.913056
0.571565
0.946051
0.571583
0.887731
0.561624
0.943081
0.570594
0.893201
0.562131
0.938004
0.0395375
0.0293336
0.0197283
0.0114249
0.00580505
0.00262093
0.000253653
0.00947896
0.0511808
0.0790474
0.101401
0.162998
0.013541
0.000920531
0.00018876
0.000863222
0.0148695
0.603441
0.603723
0.598029
0.598599
0.805785
0.805696
0.812136
0.812074
0.968314
0.939127
0.604675
1.01955
0.628254
0.531338
0.945965
0.970317
0.605041
1.01963
0.628344
0.532519
1.16415
0.715049
1.13956
0.705603
1.16467
0.715118
1.1397
0.705606
0.605579
0.937056
0.586417
0.99855
0.542697
0.957428
0.53309
0.987239
0.0578293
0.0713704
0.336712
0.336832
0.389239
0.389285
0.563459
0.563555
0.640128
0.640287
0.604675
0.941136
0.586739
0.993436
0.62437
0.955371
0.612666
1.02653
0.624286
0.966581
0.61414
1.02584
0.541597
0.963103
0.534127
0.982361
0.535684
0.977016
0.534515
0.971507
0.0444355
0.0311614
0.0199835
0.0111475
0.00643403
0.00321922
0.00324797
0.034505
0.0632798
0.0656581
0.0854297
0.142719
0.0496401
0.00211095
0.00025801
0.0102884
0.547866
0.548286
0.543831
0.544263
0.774806
0.774693
0.761306
0.761281
1.20408
0.741628
1.21863
0.745915
1.2063
0.741958
1.22642
0.747131
1.18903
0.739095
1.21114
0.745843
1.19576
0.740161
1.21956
0.747203
0.931235
1.02601
0.602214
0.510881
1.10304
0.626517
0.939419
1.02761
0.512393
0.602519
1.10306
0.626565
1.24822
0.702758
1.206
0.689177
1.24905
0.702898
1.20569
0.689149
0.57231
0.989487
0.549925
1.03985
0.529204
0.968889
0.518663
1.00439
0.0668236
0.0942844
0.247404
0.247185
0.261747
0.261645
0.313706
0.313769
0.395164
0.395236
0.828653
0.508161
0.865604
0.528591
0.829485
0.50831
0.865989
0.528682
0.942874
0.983205
0.582917
0.923756
0.57976
0.579736
0.947222
0.994657
0.583571
0.923824
0.579785
0.581828
0.571356
0.994025
0.5507
1.03575
0.591053
1.06611
0.590905
1.06495
0.527919
0.974326
0.519779
0.997997
0.520468
0.986776
0.519453
0.982035
0.0468127
0.0316609
0.0192612
0.0108883
0.00756165
0.00385717
0.0168128
0.0503464
0.0524031
0.0547271
0.0747686
0.105931
0.0665383
0.00764452
0.00417527
0.426115
0.426465
0.389768
0.390218
0.674209
0.674138
0.657399
0.657617
1.14873
0.713183
1.14873
0.711609
1.15381
0.713989
1.15462
0.712497
1.12595
0.70178
1.1493
0.705925
1.13364
0.702928
1.15572
0.706956
1.26956
0.721753
1.28034
0.722617
1.27261
0.722364
1.28839
0.724252
1.25466
0.701709
1.2719
0.715597
1.26261
0.703322
1.27958
0.717296
0.555302
0.990442
0.532216
1.0435
0.0682446
0.118914
0.30613
0.305536
0.240603
0.240158
0.167317
0.16712
0.19004
0.189994
0.357319
0.240976
0.457975
0.278247
0.360939
0.241234
0.463815
0.278965
0.646529
0.379014
0.569904
0.34834
0.648415
0.379343
0.575388
0.349065
0.896089
0.498308
0.929502
0.523005
0.897745
0.498562
0.929779
0.523078
1.0141
0.977129
0.573594
0.557883
0.986214
0.567801
1.02578
0.980604
0.574242
0.56027
0.98584
0.567775
0.554189
0.994965
0.533105
1.03781
0.572201
1.06587
0.572011
1.06488
0.047551
0.0305126
0.0175452
0.011309
0.00897631
0.00435219
0.0338612
0.046726
0.0387386
0.0475337
0.0612013
0.0830018
0.0922843
0.0341831
0.0273874
0.552543
0.552787
0.519672
0.520139
0.712114
0.712233
0.690633
0.69072
1.22151
0.682962
1.21864
0.679456
1.2289
0.684457
1.22581
0.68092
1.17082
0.669706
1.21185
0.673907
1.17912
0.671311
1.21907
0.675433
1.25145
0.688256
1.25991
0.689974
0.0704833
0.0994651
0.355535
0.355399
0.327722
0.327312
0.162563
0.162182
0.137131
0.136631
0.141357
0.109646
0.172129
0.126189
0.147572
0.109447
0.179421
0.126332
0.234835
0.158799
0.213219
0.148232
0.239722
0.159139
0.219519
0.148555
0.404039
0.223213
0.472867
0.264246
0.409037
0.223945
0.478237
0.265252
0.686536
0.37999
0.593465
0.334381
0.688461
0.380358
0.59923
0.335424
0.0455479
0.0268889
0.0161527
0.0126732
0.0100233
0.00423982
0.0393995
0.038126
0.031809
0.0377049
0.0580714
0.0742665
0.153137
0.055884
0.413924
0.414129
0.400818
0.401173
0.575759
0.575593
0.535607
0.535977
0.638811
1.05931
0.642813
1.05381
0.638589
1.05969
0.642964
1.05234
0.622095
0.982248
0.602315
1.02747
0.621913
0.985733
0.602822
1.02621
1.22133
0.667504
1.22321
0.659083
1.22895
0.669152
1.22941
0.660542
1.18126
0.640959
1.20673
0.648247
1.18884
0.642561
1.21247
0.649657
0.0677769
0.10463
0.156009
0.237044
0.236324
0.195057
0.194583
0.0686736
0.068505
0.0667933
0.0664616
0.12097
0.0890486
0.17458
0.10387
0.124826
0.0893701
0.180749
0.104721
0.260666
0.145228
0.21872
0.126154
0.265951
0.146045
0.224928
0.127043
0.385578
0.210533
0.390483
0.211342
0.0395905
0.022607
0.0164103
0.0136613
0.00997172
0.00330771
0.0357818
0.0287618
0.0277832
0.0344131
0.0605746
0.080153
0.110192
0.0720729
0.539716
0.539533
0.481696
0.481595
0.881903
0.531104
0.533551
0.86934
0.886207
0.531665
0.533336
0.868589
0.57723
0.577188
0.616427
1.128
0.626577
1.13021
0.615976
1.12823
0.626661
1.12742
0.596519
1.04208
0.567172
1.10873
0.596313
1.04726
0.568124
1.10734
1.17276
0.632402
1.17916
0.633694
0.058031
0.104418
0.159026
0.350079
0.349956
0.254727
0.254714
0.143952
0.143278
0.0888098
0.0885185
0.0612647
0.0417581
0.0706416
0.041521
0.061581
0.0413846
0.0689561
0.0405676
0.0595469
0.0830196
0.0614581
0.0579336
0.059765
0.0834695
0.0612959
0.0562717
0.136794
0.0795061
0.177888
0.0961512
0.140569
0.0801381
0.182355
0.0970679
0.261641
0.141891
0.227625
0.120482
0.266936
0.142913
0.232448
0.121453
0.0320625
0.0209974
0.0165879
0.0137599
0.00865011
0.0191488
0.0216445
0.0260353
0.0319104
0.0660246
0.0554612
0.0443689
0.217462
0.217544
0.0823238
0.0823622
0.862187
0.515477
0.82371
0.508085
0.864582
0.51583
0.826351
0.508413
0.498454
0.498489
0.962457
0.52063
0.525964
0.93609
0.966486
0.521402
0.525879
0.935889
0.888443
0.528047
0.905549
0.532296
0.889696
0.528199
0.904471
0.532101
0.581827
1.04263
0.550476
1.10079
0.581959
1.04801
0.551501
1.10182
0.0461182
0.0857656
0.172139
0.260581
0.303893
0.303295
0.205363
0.204769
0.0990737
0.0991791
0.058839
0.0767893
0.0939388
0.0860674
0.0573331
0.0752984
0.0936607
0.0846066
0.0414304
0.0321573
0.0357077
0.0463488
0.0412678
0.0309821
0.0350741
0.0449211
0.0491817
0.0862536
0.056522
0.0658694
0.0491685
0.0869262
0.056497
0.0648407
0.131959
0.0750929
0.135877
0.0757749
0.0276347
0.0201055
0.0165165
0.0135628
0.00867798
0.0202792
0.0221859
0.0273732
0.0486607
0.0359425
0.0598867
0.0599206
0.0600138
0.0599841
0.205561
0.204742
0.0669439
0.0667806
0.941864
0.512573
0.884253
0.503873
0.944866
0.513187
0.886045
0.504245
0.463232
0.642566
0.394563
0.790957
0.463272
0.643455
0.394474
0.791335
0.990589
0.516369
0.521208
0.985578
0.992124
0.516793
0.520927
0.983915
0.971703
0.519672
0.984066
0.52559
0.974571
0.520189
0.983627
0.525507
0.0374062
0.0666077
0.130022
0.316053
0.583916
0.582748
0.465611
0.464852
0.308104
0.307
0.180438
0.130174
0.284998
0.195854
0.175784
0.12809
0.281218
0.194355
0.125604
0.0978251
0.0809839
0.0678877
0.0623499
0.0739487
0.123133
0.0966299
0.0808093
0.0679666
0.0610522
0.0735462
0.0362023
0.0369579
0.0352331
0.0366041
0.0369708
0.057215
0.0344611
0.0516052
0.0366993
0.0546822
0.0340156
0.0495853
0.0249806
0.0188049
0.0179161
0.0068457
0.0163191
0.0179558
0.0235087
0.0363207
0.0346192
0.0594078
0.0595903
0.0799569
0.0797886
0.252323
0.638086
0.174435
0.157631
0.124822
0.353201
0.63857
0.257801
0.353059
0.174513
0.163275
0.124509
0.106155
0.0862552
0.096869
0.0710996
0.109655
0.0867648
0.10178
0.0714515
0.974287
0.511675
0.946953
0.501876
0.976125
0.512141
0.94813
0.502144
0.441806
0.839429
0.441878
0.840063
0.521485
0.99932
0.521227
0.997926
0.986091
0.517131
0.988926
0.51768
0.0315054
0.0513087
0.096487
0.209017
0.693939
0.693633
0.703093
0.702398
0.640058
0.637392
0.518612
0.517835
0.23247
0.494811
0.299941
0.391857
0.179072
0.306896
0.232122
0.490227
0.298244
0.390617
0.178706
0.305167
0.210702
0.127713
0.208565
0.127164
0.156695
0.0986262
0.113211
0.0679596
0.074694
0.0468533
0.155169
0.098287
0.112986
0.0664087
0.0745784
0.0465247
0.0683834
0.0394898
0.0661386
0.0390944
0.021572
0.0216672
0.00551917
0.0117851
0.0171484
0.0246831
0.0283215
0.280379
0.280356
0.213742
0.213954
0.143006
0.143077
0.264314
0.264416
0.547194
0.186934
0.139423
0.296079
0.0993434
0.0820273
0.549147
0.191556
0.296076
0.139297
0.101618
0.0819397
0.100212
0.0823066
0.0805912
0.0593587
0.101363
0.0825489
0.0815174
0.0594502
0.940137
0.487903
0.941255
0.488131
0.0248569
0.0401153
0.0709851
0.143005
0.37377
0.748423
0.747608
0.731067
0.72995
1.07642
0.585388
0.996713
0.533639
1.06751
0.582641
0.991474
0.532142
0.731244
0.585528
0.402175
0.872362
0.468778
0.322665
0.732892
0.580668
0.402724
0.871554
0.468513
0.32166
0.265715
0.192012
0.459925
0.329199
0.26496
0.191501
0.456026
0.327108
0.240145
0.148393
0.238676
0.14801
0.186762
0.118693
0.106726
0.0641411
0.186564
0.118535
0.105639
0.0638974
0.0248333
0.00319537
0.0123999
0.0176075
0.0203286
0.0248227
0.22823
0.228526
0.122073
0.122362
0.168382
0.199176
0.124762
0.255825
0.167687
0.1909
0.12378
0.251382
0.233576
0.23362
0.14207
0.0855158
0.115897
0.0675693
0.133452
0.0842843
0.105925
0.0663511
0.0275462
0.028991
0.0515135
0.0997815
0.223579
0.721938
0.721803
0.844511
0.843207
0.789181
0.788065
0.806714
0.805623
1.20336
0.623251
1.11357
0.579501
1.19709
0.621812
1.11004
0.578601
0.646239
0.808706
0.360671
0.435622
0.955511
0.504409
0.642932
0.813583
0.436733
0.360234
0.959623
0.505278
0.223699
0.37529
0.223142
0.372596
0.00304629
0.0131984
0.0156365
0.0202332
0.0501868
0.0499026
0.048078
0.0479337
0.134493
0.133949
0.0627248
0.0626937
0.175311
0.208062
0.129352
0.273389
0.174622
0.202678
0.12854
0.269483
0.292515
0.174902
0.306885
0.181293
0.292207
0.174823
0.305734
0.181177
0.161778
0.101107
0.155909
0.100213
0.0298499
0.0342844
0.0671576
0.145208
0.382528
0.763117
0.762455
0.890038
0.887871
0.931106
0.928822
0.696683
1.28505
0.683596
1.26635
0.69714
1.28528
0.683691
1.2688
1.24537
0.658682
1.18029
0.627745
1.24098
0.657773
1.1744
0.626516
0.00465708
0.0136755
0.016681
0.0505647
0.0721504
0.0717436
0.0738329
0.0733884
0.270799
0.156396
0.0837459
0.182742
0.114365
0.110682
0.270381
0.156411
0.0843625
0.184634
0.114769
0.112366
0.0675234
0.0672923
0.16368
0.237199
0.138446
0.29091
0.163133
0.231923
0.13774
0.2877
0.318059
0.168667
0.318188
0.168684
0.0319944
0.0412174
0.0892103
0.222218
0.734817
0.734096
0.779966
0.778966
0.767349
0.766951
0.955241
0.95222
1.45566
0.77996
1.4711
0.785045
1.42359
0.751263
1.44745
0.777277
1.47097
0.785041
1.42402
0.751319
1.38776
0.73506
1.3919
0.735819
1.33049
0.713803
1.32792
0.713274
0.00646442
0.0139695
0.0387307
0.197542
0.198514
0.246023
0.246104
0.102109
0.101655
0.129584
0.12967
0.255881
0.142643
0.074616
0.157984
0.0959713
0.106163
0.256383
0.142808
0.0759164
0.160745
0.0967791
0.109421
0.144983
0.0947048
0.152442
0.0978387
0.148191
0.0954574
0.157923
0.0980923
0.034097
0.0504317
0.121102
0.365049
0.749748
0.748066
0.80703
0.804955
0.896604
0.893455
1.57127
0.818731
0.764216
1.56279
0.821832
1.3905
0.763062
1.55615
0.819953
1.388
1.56899
0.818163
1.54405
1.45759
0.830578
0.793684
1.54725
1.45935
0.831434
0.793994
1.42648
0.781849
1.43436
0.783081
0.00814443
0.0157337
0.186218
0.489054
0.48906
0.490767
0.491594
0.170781
0.0958484
0.186123
0.250871
0.157632
0.274864
0.176136
0.0970302
0.185999
0.249796
0.15834
0.273442
0.262998
0.261763
0.0922736
0.149757
0.09292
0.155975
0.18019
0.0953415
0.187967
0.0966638
0.036374
0.0623833
0.164673
0.63019
0.628942
0.719303
0.717021
0.716408
0.713886
0.807003
0.804055
1.26493
0.68428
1.45914
0.751572
1.536
0.80328
1.25515
1.52396
0.800204
0.680928
1.44865
0.749214
1.60624
0.845413
1.60608
0.852789
1.59467
1.60439
0.850259
0.844848
0.00669942
0.0439992
0.871418
1.16822
1.16802
1.19668
1.19841
0.252064
0.135534
0.185457
0.278931
0.149933
0.298118
0.253722
0.136184
0.185169
0.279581
0.149929
0.298126
0.755962
0.610518
0.475636
0.363295
0.752484
0.609116
0.474403
0.364366
0.229335
0.121838
0.232855
0.121929
0.039062
0.0761688
0.215848
0.610992
0.608838
0.681863
0.677687
0.777038
0.771793
1.31657
0.678967
0.613641
1.19296
0.629052
1.10071
1.31465
0.67819
0.612313
1.18695
0.627855
1.09712
1.43737
1.55838
0.736286
0.821293
1.54235
0.817866
1.43464
0.735651
0.0118533
0.203992
4.30404
2.68324
2.68533
4.30551
2.49132
2.49159
2.87679
0.849521
0.768679
2.8786
0.850801
0.768799
0.269828
0.139217
0.224755
0.305285
0.17998
0.348724
0.271519
0.139445
0.227049
0.309009
0.181409
0.3536
0.54158
0.457833
0.544506
0.458695
0.0419127
0.0896398
0.236588
0.542937
0.539982
0.6478
0.640746
1.04312
0.584033
1.19545
0.610373
1.19573
0.618715
1.02354
1.18957
0.616907
0.576786
1.18226
0.606938
1.27178
0.663807
1.18753
0.625257
1.26895
0.663273
1.18474
0.624846
1.36184
0.710444
1.36345
0.71047
0.0405658
0.777316
6.41382
5.77691
6.41764
5.77612
3.33137
3.33114
11.7633
3.95168
2.63311
1.42953
1.36923
6.32252
10.2114
5.86805
3.94782
11.7713
2.63061
1.42537
1.36635
6.32271
10.2467
5.87001
0.319523
0.414826
0.32027
0.421057
0.707455
0.689854
0.700246
0.685737
0.0444454
0.0993201
0.345985
0.522019
0.51846
0.344929
0.414329
0.41238
0.644056
1.06485
0.570577
0.636755
1.0446
0.564451
1.19394
1.16635
0.616679
0.599807
1.19151
0.616012
1.15243
0.596484
1.2116
0.658601
1.18888
0.634138
1.20679
0.658038
1.19335
0.63516
0.151969
0.292536
7.76431
6.83882
12.7473
3.34393
7.76461
6.83878
12.7504
3.3483
1.81417
1.81784
11.9222
13.366
2.6571
1.87534
6.29455
7.07348
11.9283
2.65381
13.3697
1.87412
6.29513
7.07394
0.484872
0.526164
0.482034
0.526384
0.0466149
0.1157
0.334782
0.462434
0.459154
0.33279
0.372388
0.368922
0.910349
1.02909
0.54546
1.06357
0.563452
0.480416
0.733696
0.45104
0.895035
1.00568
0.539791
1.03901
0.556642
0.47724
0.721923
0.446083
1.19215
1.15064
0.622285
0.600229
1.18914
0.621467
1.12858
0.595842
0.0509599
0.113273
0.753641
0.75624
0.113756
0.0674682
0.0677981
8.2208
7.08145
12.825
6.73981
13.4144
4.58691
9.58153
5.07838
1.50421
5.10088
3.19003
8.2386
7.08121
12.8274
6.74011
13.4141
4.58629
9.58286
5.07788
1.50787
5.10743
3.18942
13.1801
13.6623
6.98759
7.2005
13.1864
13.6617
6.98815
7.20056
0.0485599
0.106181
0.271419
0.459963
0.417107
0.724126
0.455535
0.416312
0.722006
0.268142
0.329463
0.322598
0.966216
0.823703
1.09353
0.51963
0.593947
0.443393
0.946731
0.817162
1.068
0.590207
0.516604
0.442086
1.1739
0.627049
1.15902
0.624625
0.01075
0.294184
0.040988
0.296259
0.0409445
0.0220434
0.021981
12.8109
10.1525
5.34464
6.76547
6.46884
3.67496
1.24107
1.94694
1.44258
2.77882
2.07638
0.875092
1.09329
0.823951
12.8151
10.1538
6.76583
5.3445
6.47143
3.67482
1.94504
1.24151
1.44151
2.78153
2.0749
0.876094
1.10232
0.824085
0.0455785
0.0815885
0.252886
0.249636
0.0846728
0.182509
0.180723
0.492885
0.404178
0.711751
0.392349
0.708059
0.369569
0.645482
0.353205
0.474877
0.402713
0.702952
0.389624
0.705091
0.359943
0.630817
0.349991
0.324347
0.491097
0.317891
0.318247
0.472928
0.310082
0.875879
0.760116
0.487125
0.421889
0.863929
0.759474
0.485486
0.421648
0.00252203
0.115031
0.473702
0.676827
0.0256243
0.115702
0.473009
0.677666
0.0253616
0.0177755
0.0175007
7.17482
4.06457
3.0889
2.29282
1.45683
0.829343
1.94927
1.57447
0.9698
0.517672
7.1768
4.06431
3.0963
2.29368
1.45523
1.95181
0.822007
1.5745
0.968903
0.516432
0.0439202
0.101432
0.205058
0.202102
0.101842
0.157376
0.155851
0.744409
0.684776
0.413678
0.374094
0.579017
0.318115
0.7378
0.672144
0.412584
0.371844
0.566562
0.315468
0.414838
0.461389
0.273217
0.483178
0.298432
0.257732
0.313031
0.348367
0.401548
0.450304
0.270454
0.465563
0.291948
0.25314
0.302551
0.339982
0.013382
0.0223441
0.0221187
0.053389
0.268533
0.203087
0.175448
0.35812
0.0254172
0.0529117
0.26882
0.201357
0.174327
0.357768
0.0251878
1.54699
1.10345
0.498029
1.12732
0.649275
0.295986
1.54739
1.10014
0.493012
1.12682
0.648382
0.29486
0.0411043
0.077132
0.210935
0.257241
0.278412
0.207358
0.258812
0.275373
0.0781251
0.130486
0.130106
0.64271
0.361842
0.529333
0.30154
0.629791
0.359982
0.519043
0.299716
0.418589
0.342236
0.493442
0.251076
0.293507
0.210425
0.407777
0.332009
0.484853
0.292226
0.249137
0.208126
0.00225177
0.0267279
0.0208994
0.0268535
0.0211738
0.0393233
0.125093
0.120569
0.136642
0.0914279
0.293604
0.173891
0.0237684
0.0388648
0.126012
0.117563
0.133867
0.0919152
0.289855
0.172745
0.0236258
0.7016
0.393515
0.69681
0.392199
0.0377478
0.0701922
0.0700134
0.193053
0.25198
0.309287
0.258008
0.290532
0.191487
0.249574
0.29853
0.251652
0.284457
0.119434
0.118038
0.38016
0.456354
0.332391
0.250303
0.289158
0.206826
0.369873
0.448667
0.321761
0.288355
0.248987
0.204839
0.00127643
0.0162399
0.0229204
0.016255
0.0228857
0.0169954
0.0168966
0.0351196
0.116153
0.0663802
0.111968
0.0710458
0.0789376
0.183733
0.113814
0.121753
0.398242
0.221547
0.0346222
0.119634
0.0677292
0.113234
0.0738204
0.0790259
0.177313
0.111166
0.121888
0.395112
0.220342
0.0495354
0.0577669
0.047834
0.0580783
0.0493795
0.183281
0.248061
0.298844
0.257314
0.280654
0.326916
0.200674
0.180453
0.251428
0.293383
0.25444
0.283833
0.318245
0.199061
0.103652
0.102501
0.361383
0.249994
0.350581
0.249103
0.00116644
0.0278876
0.0321076
0.0279284
0.0320293
0.0160755
0.0255487
0.0161352
0.0255501
0.0300517
0.0296844
0.104446
0.057806
0.109204
0.0508033
0.0658566
0.0755766
0.0653965
0.0876182
0.0864247
0.234333
0.128461
0.149788
0.107064
0.0578343
0.109088
0.0518749
0.0686541
0.0789634
0.0674943
0.0931953
0.0857881
0.228368
0.12649
0.147578
0.0739359
0.0512272
0.0652308
0.0528051
0.0662218
0.0861916
0.0867672
0.171184
0.239597
0.293211
0.242503
0.285713
0.197253
0.319463
0.19543
0.311223
0.343043
0.232526
0.167958
0.24036
0.283345
0.236899
0.286821
0.196889
0.314367
0.194298
0.310762
0.335604
0.231865
0.000537771
0.0310663
0.0211817
0.0308559
0.020806
0.032909
0.0401528
0.0329582
0.0401207
0.0284581
0.0316443
0.0277004
0.0311378
0.0981867
0.0429686
0.0952053
0.0441437
0.100987
0.0440445
0.0975019
0.0453843
0.0521556
0.0616741
0.0598993
0.0504312
0.0540327
0.0625662
0.0608017
0.052308
0.0903147
0.0910106
0.118301
0.0913167
0.118521
0.0880279
0.101806
0.0889503
0.10249
0.150659
0.148673
0.232724
0.290256
0.240676
0.265664
0.206893
0.314491
0.210106
0.318124
0.218059
0.32644
0.217885
0.31952
0.233522
0.279674
0.235554
0.264026
0.206422
0.310502
0.209148
0.318
0.217831
0.323159
0.217434
0.319246
0.00501521
0.000838677
0.0345197
0.019813
0.0343024
0.019442
0.0355911
0.0447658
0.0351578
0.0443921
0.103822
0.0447415
0.0999019
0.0440865
0.10424
0.048552
0.105769
0.0458617
0.107274
0.0456626
0.102298
0.0453457
0.106977
0.0483073
0.10576
0.0469056
0.0472613
0.0428612
0.0431932
0.0456263
0.0492344
0.0445977
0.0449313
0.0475622
0.0839317
0.157314
0.151326
0.156982
0.151514
0.126511
0.15597
0.126711
0.156034
0.145894
0.155838
0.144206
0.154924
0.232522
0.259046
0.235022
0.252772
0.232226
0.249458
0.23038
0.250109
0.224309
0.312967
0.213978
0.316962
0.223137
0.306152
0.212625
0.311162
0.00253098
0.0318033
0.0201563
0.0316225
0.0203487
0.000913848
0.0432781
0.0337385
0.0426525
0.0328536
0.114337
0.0522993
0.109213
0.0519367
0.128523
0.066516
0.130849
0.0600154
0.117297