/*--------------------------------*- C++ -*----------------------------------*\
| =========                 |                                                 |
| \\      /  F ield         | OpenFOAM: The Open Source CFD Toolbox           |
|  \\    /   O peration     | Version:  5.x                                   |
|   \\  /    A nd           | Web:      www.OpenFOAM.org                      |
|    \\/     M anipulation  |                                                 |
\*---------------------------------------------------------------------------*/
FoamFile
{
    version     2.0;
    format      ascii;
    class       surfaceScalarField;
    location    "1.9";
    object      meshPhi;
}
// * * * * * * * * * * * * * * * * * * * * * * * * * * * * * * * * * * * * * //

dimensions      [0 3 -1 0 0 0 0];

internalField   nonuniform List<scalar> 
30582
(
0
0
0
0
0
0
0
0
0
0
0
0
0
0
0
0
0
0
0
0
0
0
0
0
0
0
0
0
0
0
0
0
0
0
0
0
0
0
0
0
0
0
0
0
0
0
0
0
0
0
0
0
0
0
0
0
0
0
0
0
0
0
0
0
0
0
0
0
0
0
0
0
0
0
0
0
0
0
0
0
0
0
0
0
0
0
0
0
0
0
0
0
0
0
0
0
0
0
0
0
0
0
0
0
0
0
0
0
0
0
0
0
0
0
0
0
0
0
0
0
0
0
0
0
0
0
0
0
0
0
0
0
0
0
0
0
0
0
0
0
0
0
0
0
0
0
0
0
0
0
0
0
0
0
0
0
0
0
0
0
0
0
0
0
0
0
0
0
0
0
0
0
0
0
0
0
0
0
0
0
0
0
0
0
0
0
0
0
0
0
0
0
0
0
0
0
0
0
0
0
0
0
0
0
0
0
0
0
0
0
0
0
0
0
0
0
0
0
0
0
0
0
0
0
0
0
0
0
0
0
0
0
0
0
0
0
0
0
0
0
0
0
0
0
0
0
0
0
0
0
0
0
0
0
0
0
0
0
0
0
0
0
0
0
0
0
0
0
0
0
0
0
0
0
0
0
0
0
0
0
0
0
0
0
0
0
0
0
0
0
0
0
0
0
0
0
0
0
0
0
0
0
0
0
0
0
0
0
0
0
0
0
0
0
0
0
0
0
0
0
0
0
0
0
0
0
0
0
0
0
0
0
0
0
0
0
0
0
0
0
0
0
0
0
0
0
0
0
0
0
0
0
0
0
0
0
0
0
0
0
0
0
0
0
0
0
0
0
0
0
0
0
0
0
0
0
0
0
0
0
0
0
0
0
0
0
0
0
0
0
0
0
0
0
0
0
0
0
0
0
0
0
0
0
0
0
0
0
0
0
0
0
0
0
0
0
0
0
0
0
0
0
0
0
0
0
0
0
0
0
0
0
0
0
0
0
0
0
0
0
0
0
0
0
0
0
0
0
0
0
0
0
0
0
0
0
0
0
0
0
0
0
0
0
0
0
0
0
0
0
0
0
0
0
0
0
0
0
0
0
0
0
0
0
0
0
0
0
0
0
0
0
0
0
0
0
0
0
0
0
0
0
0
0
0
0
0
0
0
0
0
0
0
0
0
0
0
0
0
0
0
0
0
0
0
0
0
0
0
0
0
0
0
0
0
0
0
0
0
0
0
0
0
0
0
0
0
0
0
0
0
0
0
0
0
0
0
0
0
0
0
0
0
0
0
0
0
0
0
0
0
0
0
0
0
0
0
0
0
0
0
0
0
0
0
0
0
0
0
0
0
0
0
0
0
0
0
0
0
0
0
0
0
0
0
0
0
0
0
0
0
0
0
0
0
0
0
0
0
0
0
0
0
0
0
0
0
0
0
0
0
0
0
0
0
0
0
0
0
0
0
0
0
0
0
0
0
0
0
0
0
0
0
0
0
0
0
0
0
0
0
0
0
0
0
0
0
0
0
0
0
0
0
0
0
0
0
0
0
0
0
0
0
0
0
0
0
0
0
0
0
0
0
0
0
0
0
0
0
0
0
0
0
0
0
0
0
0
0
0
0
0
0
0
0
0
0
0
0
0
0
0
0
0
0
0
0
0
0
0
0
0
0
0
0
0
0
0
0
0
0
0
0
0
0
0
0
0
0
0
0
0
0
0
0
0
0
0
0
0
0
0
0
0
0
0
0
0
0
0
0
0
0
0
0
0
0
0
0
0
0
0
0
0
0
0
0
0
0
0
0
0
0
0
0
0
0
0
0
0
0
0
0
0
0
0
0
0
0
0
0
0
0
0
0
0
0
0
0
0
0
0
0
0
0
0
0
0
0
0
0
0
0
0
0
0
0
0
0
0
0
0
0
0
0
0
0
0
0
0
0
0
0
0
0
0
0
0
0
0
0
0
0
0
0
0
0
0
0
0
0
0
0
0
0
0
0
0
0
0
0
0
0
0
0
0
0
0
0
0
0
0
0
0
0
0
0
0
0
0
0
0
0
0
0
0
0
0
0
0
0
0
0
0
0
0
0
0
0
0
0
0
0
0
0
0
0
0
0
0
0
0
0
0
0
0
0
0
0
0
0
0
0
0
0
0
0
0
0
0
0
0
0
0
0
0
0
0
0
0
0
0
0
0
0
0
0
0
0
0
0
0
0
0
0
0
0
0
0
0
0
0
0
0
0
0
0
0
0
0
0
0
0
0
0
0
0
0
0
0
0
0
0
0
0
0
0
0
0
0
0
0
0
0
0
0
0
0
0
0
0
0
0
0
0
0
0
0
0
0
0
0
0
0
0
0
0
0
0
0
0
0
0
0
0
0
0
0
0
0
0
0
0
0
0
0
0
0
0
0
0
0
0
0
0
0
0
0
0
0
0
0
0
0
0
0
0
0
0
0
0
0
0
0
0
0
0
0
0
0
0
0
0
0
0
0
0
0
0
0
0
0
0
0
0
0
0
0
0
0
0
0
0
0
0
0
0
0
0
0
0
0
0
0
0
0
0
0
0
0
0
0
0
0
0
0
0
0
0
0
0
0
0
0
0
0
0
0
0
0
0
0
0
0
0
0
0
0
0
0
0
0
0
0
0
0
0
0
0
0
0
0
0
0
0
0
0
0
0
0
0
0
0
0
0
0
0
0
0
0
0
0
0
0
0
0
0
0
0
0
0
0
0
0
0
0
0
0
0
0
0
0
0
0
0
0
0
0
0
0
0
0
0
0
0
0
0
0
0
0
0
0
0
0
0
0
0
0
0
0
0
0
0
0
0
0
0
0
0
0
0
0
0
0
0
0
0
0
0
0
0
0
0
0
0
0
0
0
0
0
0
0
0
0
0
0
0
0
0
0
0
0
0
0
0
0
0
0
0
0
0
0
0
0
0
0
0
0
0
0
0
0
0
0
0
0
0
0
0
0
0
0
0
0
0
0
0
0
0
0
0
0
0
0
0
0
0
0
0
0
0
0
0
0
0
0
0
0
0
0
0
0
0
0
0
0
0
0
0
0
0
0
0
0
0
0
0
0
0
0
0
0
0
0
0
0
0
0
0
0
0
0
0
0
0
0
0
0
0
0
0
0
0
0
0
0
0
0
0
0
0
0
0
0
0
0
0
0
0
0
0
0
0
0
0
0
0
0
0
0
0
0
0
0
0
0
0
0
0
0
0
0
0
0
0
0
0
0
0
0
0
0
0
0
0
0
0
0
0
0
0
0
0
0
0
0
0
0
0
0
0
0
0
0
0
0
0
0
0
0
0
0
0
0
0
0
0
0
0
0
0
0
0
0
0
0
0
0
0
0
0
0
0
0
0
0
0
0
0
0
0
5.44951e-18
-1.92194e-17
7.79811e-25
-5.76512e-17
-2.88199e-17
-3.84571e-17
0
0
0
0
0
0
0
0
0
0
0
0
0
0
0
0
0
0
0
0
0
0
0
0
0
0
0
0
0
0
0
0
0
0
0
0
0
0
-9.58705e-18
-3.01821e-34
1.39846e-18
-2.22196e-25
-4.79988e-17
3.84335e-17
5.35809e-18
-5.76512e-17
9.60716e-18
-5.76683e-17
2.78127e-18
6.09248e-25
9.6005e-17
-6.95906e-34
4.1186e-18
-5.76206e-17
-1.39271e-17
9.60345e-17
0
0
0
0
0
0
0
0
0
0
0
0
0
0
0
0
0
0
0
0
0
0
0
0
0
0
0
0
0
0
0
0
0
0
0
0
0
-1.5971e-18
8.27257e-18
-6.07057e-17
6.74782e-20
1.14884e-16
3.82601e-17
-7.67445e-17
2.51981e-35
2.74066e-18
-2.87994e-17
-3.49884e-33
1.41368e-18
-3.88465e-25
-4.78855e-17
0
-1.63209e-16
1.60617e-20
7.6804e-17
4.29022e-35
-1.34288e-18
-5.76206e-17
-1.39271e-17
5.76229e-17
8.66571e-20
-6.11289e-24
5.7473e-17
-5.36407e-34
1.2611e-20
7.66241e-17
0
0
0
0
0
0
0
0
0
0
0
0
0
0
0
0
0
0
0
0
0
0
0
0
0
0
0
0
0
0
0
0
0
0
0
-3.01533e-17
-5.74674e-17
-3.82539e-17
-9.68599e-18
-9.81592e-20
-4.51901e-34
-1.72914e-19
-1.03644e-19
-6.70788e-17
-2.20652e-17
5.29502e-18
3.77886e-17
3.48158e-34
-4.61945e-19
-2.86361e-17
5.16138e-18
3.81847e-17
-2.06661e-34
-1.51496e-19
9.58697e-18
0
-8.21774e-19
-1.66981e-23
-1.66897e-17
2.8595e-17
-2.14526e-17
2.86355e-17
0
0
-3.99045e-18
8.19974e-18
-3.92047e-17
-2.44433e-20
-5.7577e-17
-1.9074e-17
1.14884e-16
1.73314e-19
7.66307e-17
4.36279e-34
1.91685e-17
1.53326e-16
0
7.77103e-24
-4.29275e-17
4.76433e-18
-4.28988e-17
9.56346e-18
0
1.91329e-17
-4.94014e-18
1.92874e-17
-1.91246e-17
2.39205e-17
-1.92596e-17
2.41711e-17
-4.80108e-18
0
0
0
0
0
0
0
0
0
0
0
0
0
0
0
0
0
0
0
0
0
0
0
0
0
0
0
0
0
0
0
0
0
2.64469e-17
-4.80814e-17
3.83833e-17
-2.88149e-17
-1.9453e-17
1.51284e-34
8.27155e-18
-5.74038e-17
-5.2246e-18
7.63681e-17
5.66643e-34
-1.94724e-17
-2.88595e-17
0
7.71329e-17
-1.96672e-35
4.0969e-11
1.10297e-11
4.09795e-09
-1.64823e-13
6.05451e-13
-3.21495e-08
-4.69129e-13
-3.2539e-08
2.857e-10
-1.74102e-18
3.36448e-19
-1.09989e-18
-3.37925e-19
9.71938e-18
-3.72421e-17
-2.44187e-18
-2.3066e-17
-4.43974e-18
-7.18596e-34
1.15386e-15
-1.90191e-12
-3.18075e-08
2.53748e-14
-6.4194e-08
-1.3441e-18
-2.33214e-18
-5.22193e-17
-9.51565e-18
-6.65959e-17
0
7.44328e-19
-2.1473e-17
9.53927e-18
-3.09779e-17
1.90704e-17
-1.56168e-18
-1.59629e-19
0
9.9558e-19
-1.6636e-17
-1.5905e-19
-1.60903e-18
-5.31828e-23
1.18582e-17
0
-9.24772e-22
2.07253e-15
-1.86315e-18
1.89957e-17
0
0
7.84325e-17
-9.68628e-18
-1.93748e-17
3.32165e-20
-3.82539e-17
0
-2.74972e-18
-2.50599e-18
-9.54082e-18
1.37822e-17
5.16115e-18
1.56441e-33
0
-3.1296e-22
-2.86585e-17
5.50314e-18
1.90534e-17
1.58654e-19
-2.62273e-17
9.53009e-18
-1.6687e-17
9.55088e-18
0
1.91171e-17
-9.72161e-18
2.88481e-17
-1.91129e-17
2.86795e-17
-2.40635e-17
2.41245e-17
-9.56861e-18
-2.36568e-18
-1.59401e-19
2.71519e-18
-1.66112e-17
0
-1.58807e-19
1.6639e-25
1.66184e-17
1.84924e-25
-1.18706e-17
0
-3.2912e-21
2.7015e-18
0
0
-3.79755e-17
-5.0589e-25
2.57021e-18
-1.90192e-12
0
-2.68952e-10
2.8389e-17
1.94207e-18
-3.17252e-19
-3.31781e-17
-1.57668e-19
2.56912e-18
1.913e-17
-7.19961e-17
1.89994e-17
0
0
0
0
0
0
0
0
0
0
0
0
0
0
0
0
0
0
0
0
0
0
0
0
0
0
0
0
0
0
0
-1.06903e-17
-3.34088e-20
1.91152e-17
-1.94736e-17
1.93824e-17
4.83125e-35
2.42175e-18
2.89331e-17
-2.69207e-17
7.6773e-17
6.80161e-35
1.88432e-19
-9.54668e-18
-2.22097e-17
3.82799e-17
-2.12895e-25
-9.22846e-09
6.847e-12
-2.88373e-08
-1.59075e-10
-3.16308e-08
-2.01768e-08
9.39096e-18
-3.84142e-17
-3.01404e-12
2.31181e-10
7.39787e-27
8.99247e-09
-7.52007e-10
-2.90172e-09
2.68238e-10
-9.25157e-10
1.96578e-08
2.7763e-12
1.43837e-09
2.45141e-12
-4.71158e-10
7.67854e-24
-1.51679e-18
2.42485e-18
1.93996e-12
4.13532e-24
4.43787e-13
2.82129e-13
-7.91905e-16
2.35815e-34
3.4251e-08
1.14674e-15
1.30158e-19
-1.02705e-12
-3.82741e-17
6.62087e-34
1.80841e-10
9.50357e-18
0
-4.16928e-09
-3.15744e-08
-1.55383e-19
9.50459e-19
1.92738e-17
0
-1.19852e-18
1.49153e-19
-2.08135e-17
2.53922e-18
-7.92072e-18
-1.20983e-18
1.30086e-19
3.46587e-19
-2.86962e-17
2.34534e-18
4.54108e-17
-9.86248e-19
-3.34031e-17
0
1.01437e-12
-1.3694e-11
-2.53592e-12
-9.05323e-11
-2.24923e-34
-3.78608e-08
4.00711e-09
-1.34469e-19
-3.82021e-17
8.41491e-35
3.10954e-17
0
-1.03018e-18
-2.71049e-18
-9.31838e-18
1.92083e-18
2.22644e-17
-8.02483e-18
-1.34416e-19
-1.90792e-17
3.58543e-17
-1.30523e-18
-1.59629e-19
0
1.99553e-18
-2.14014e-17
1.59049e-19
-1.43389e-18
1.66033e-17
0
2.04877e-15
-1.05504e-18
3.80737e-17
4.32734e-09
-3.20011e-19
0
-4.07782e-09
-4.91253e-11
4.18785e-24
-2.28234e-13
-1.23824e-21
6.07256e-13
0
-6.58362e-21
-3.18863e-08
-1.52159e-13
3.17134e-14
0
0
2.64469e-17
-2.8975e-17
1.91292e-17
9.69789e-18
1.9059e-17
-8.9996e-34
-7.94541e-18
-2.60328e-18
-1.935e-17
5.65963e-18
-2.10912e-19
0
1.07338e-33
-9.64832e-18
0
0
-2.61717e-16
-3.5379e-08
7.60778e-12
-3.41215e-08
1.90555e-17
7.94138e-15
4.72302e-18
-1.34394e-18
1.88325e-17
-2.4057e-17
9.51537e-18
-5.23154e-17
0
3.89898e-12
2.82677e-10
-1.39451e-13
2.47569e-12
-3.35092e-08
2.45499e-17
1.23895e-14
4.45652e-09
-1.9976e-21
-4.53773e-18
2.36689e-18
-6.34886e-20
-8.14824e-17
1.19397e-17
-7.67953e-17
-7.60916e-18
-1.9343e-18
-1.59401e-19
2.75658e-18
-4.99579e-17
-1.58765e-19
-1.58815e-19
2.37404e-18
-2.84885e-17
-1.14581e-36
4.76372e-18
1.94244e-18
-3.17702e-19
0
-4.74912e-17
-1.58031e-19
2.86093e-18
-1.0397e-12
0
-3.24751e-08
3.31939e-17
2.52337e-18
-1.58624e-19
-5.46203e-17
0
2.79165e-18
4.75829e-18
-3.33413e-17
-2.05329e-33
-1.27113e-18
3.19908e-19
5.55225e-18
-5.24212e-17
0
-5.77996e-19
4.29021e-24
1.96117e-21
1.98178e-23
-9.44904e-17
-1.94963e-19
4.7629e-18
1.58834e-19
0
3.17854e-08
3.07486e-13
1.58785e-19
-1.86216e-17
7.01787e-18
0
0
0
0
0
0
0
0
0
0
0
0
0
0
0
0
0
0
0
0
0
0
0
0
0
0
0
0
0
3.27964e-17
-4.8123e-17
4.49364e-20
9.56756e-18
9.09446e-20
1.71605e-33
4.781e-18
-3.81888e-17
-4.33258e-17
3.80859e-17
2.63426e-33
-1.14167e-17
3.85146e-17
-1.14203e-17
3.77445e-17
7.5942e-26
8.81378e-09
-3.09273e-10
3.25444e-08
7.90119e-09
3.25538e-08
1.92701e-08
-1.79364e-12
6.01845e-10
1.58496e-12
-1.57824e-08
2.3137e-26
-1.30497e-10
8.15796e-09
-3.26833e-08
8.01346e-09
-3.23873e-08
-2.77152e-10
-7.8455e-13
-1.63389e-08
-1.46607e-12
-1.60136e-08
1.44406e-19
-1.22992e-11
2.53589e-12
-3.93784e-08
2.14362e-34
4.00389e-09
-1.4961e-19
1.00453e-08
-6.14216e-17
-2.96252e-26
3.56877e-12
4.24832e-17
0
6.94879e-18
-9.78999e-18
-1.29687e-18
2.51107e-17
1.49435e-19
-3.79067e-12
-2.36087e-17
-2.00883e-08
6.83965e-17
-1.5134e-19
1.3694e-11
-9.51434e-09
-2.43877e-17
3.91395e-08
-2.93943e-26
-3.55467e-12
4.07114e-15
-5.61117e-24
-4.85204e-17
2.78714e-26
2.41509e-17
3.02353e-19
2.9406e-18
3.55293e-12
-1.71866e-17
-1.41239e-17
1.90258e-08
-1.29063e-17
-1.53403e-19
-2.9112e-17
3.85963e-17
1.16109e-19
-8.87573e-13
7.69538e-25
4.80852e-18
1.94604e-16
1.54579e-34
-2.54743e-34
-5.41901e-09
-5.41449e-20
-1.26794e-13
9.08202e-34
1.71484e-08
2.82207e-33
-1.04128e-19
6.16333e-34
1.60284e-18
2.25589e-18
-3.96136e-18
5.418e-20
9.51909e-19
-3.781e-19
7.49424e-20
-1.81599e-18
2.77094e-19
2.49389e-18
2.71271e-35
-6.63252e-16
-7.05038e-20
9.12473e-34
8.31492e-34
-2.70109e-19
1.53538e-18
2.43768e-18
4.52365e-18
0
-1.59357e-10
-3.21598e-24
0
-4.21384e-09
3.218e-08
1.57738e-19
-1.30838e-18
-2.67389e-14
0
3.19155e-08
-6.34005e-14
3.01158e-13
2.38125e-09
8.75651e-20
-1.53259e-33
-2.67943e-09
-8.29051e-20
2.28233e-13
6.87048e-21
-7.18685e-34
1.18425e-20
1.52155e-13
0
0
-1.11402e-17
-1.93791e-17
2.81593e-32
1.91472e-17
1.9181e-17
-2.78303e-35
-1.65121e-17
7.58593e-19
-9.5009e-18
2.67373e-17
-2.25934e-17
1.14936e-16
-2.43173e-35
-9.45297e-18
7.66442e-17
-3.24412e-26
9.22836e-09
8.99259e-09
-7.60501e-10
-3.58708e-08
2.74881e-10
-3.34291e-08
2.0177e-08
1.96578e-08
2.87933e-12
1.43832e-09
2.44611e-12
-4.71206e-10
9.33541e-25
2.34573e-12
-6.34358e-08
-1.58632e-10
-3.16311e-08
7.0429e-18
-2.88106e-17
-3.02461e-12
2.31086e-10
1.39019e-19
-8.65502e-19
1.35989e-11
8.87573e-13
5.71079e-16
0
3.786e-08
3.14729e-08
2.68967e-19
-2.03292e-18
-3.34641e-17
0
2.9629e-16
2.85339e-17
-1.38914e-19
-6.62034e-19
-1.38242e-18
-7.39295e-20
-9.70068e-19
9.51725e-18
-1.2129e-17
1.34401e-19
-1.34582e-18
-1.42989e-17
1.83679e-18
4.52868e-17
1.35881e-19
2.09896e-18
1.29966e-12
1.93996e-12
1.55463e-19
-2.9163e-13
-4.78634e-13
-5.92913e-17
0
3.4251e-08
6.98606e-09
0
-4.76297e-17
0
4.04927e-17
0
4.91091e-10
-6.59141e-08
1.35865e-19
1.13037e-18
-7.74179e-19
4.93008e-19
-1.55384e-19
5.8977e-19
9.62408e-18
-1.01751e-18
8.7865e-18
-7.92048e-18
-1.30085e-19
-1.91186e-17
2.13e-17
-8.62977e-19
-6.22247e-17
-2.67962e-18
1.59952e-19
6.59096e-18
-6.67072e-17
-4.01904e-33
-3.14682e-19
4.72368e-18
-5.19794e-17
4.49843e-19
2.17837e-21
1.5883e-19
0
-3.20001e-08
-7.89304e-13
1.58787e-19
-5.62237e-17
7.03771e-18
8.31436e-19
8.75043e-20
1.06953e-18
8.28579e-20
-2.05301e-19
1.07404e-23
-6.01303e-23
1.07555e-19
0
-3.28787e-34
9.45582e-20
0
0
0
0
0
0
0
0
0
0
0
0
0
0
0
0
0
0
0
0
0
0
0
0
0
0
0
0
-1.44152e-16
-1.58999e-33
-1.67095e-17
1.92906e-17
-5.40236e-17
1.89898e-17
-7.21628e-33
-1.60899e-17
-9.49363e-18
3.27825e-17
5.7576e-17
9.45218e-25
1.13045e-17
-7.56868e-09
-5.42303e-17
-1.65639e-08
1.19181e-33
2.71934e-17
-4.78968e-17
-5.62276e-17
9.57956e-17
-1.47039e-19
4.81824e-12
2.68508e-17
5.09782e-10
0
4.08367e-15
-1.49209e-19
-9.64488e-09
4.77036e-17
0
-4.83409e-12
-1.91045e-17
-2.93837e-19
1.45054e-18
7.2056e-18
1.51678e-17
-4.28386e-17
1.49044e-19
3.24914e-12
3.1774e-20
1.92835e-08
-3.58065e-17
1.52045e-19
6.4666e-12
2.05802e-10
-4.945e-12
8.85829e-10
0
-8.80823e-10
-3.2688e-08
1.51279e-19
4.77456e-17
0
-1.66241e-17
1.51864e-19
4.75312e-18
-1.07777e-12
1.91875e-17
-5.49151e-18
-4.36638e-10
-5.26182e-17
1.51131e-19
2.3862e-17
-3.57485e-17
-1.62154e-19
-6.33974e-13
-8.66017e-11
2.60809e-34
-9.16236e-20
-6.33973e-13
7.3941e-34
2.07834e-10
-8.11127e-20
1.65793e-18
-3.42504e-18
9.16748e-20
2.01184e-18
-5.32539e-18
1.44858e-19
9.1265e-18
-9.6955e-19
-1.37378e-17
1.74487e-15
2.42557e-34
-5.49243e-16
-9.31222e-15
-1.18071e-19
1.07029e-33
-1.44865e-19
-2.72072e-19
1.33378e-18
-2.64584e-18
-1.28694e-17
2.66754e-18
7.38197e-17
1.18085e-19
-1.61706e-10
0
-1.03677e-33
-2.32653e-09
-8.29089e-20
1.36306e-13
-4.74339e-34
6.33972e-14
0
0
-5.41317e-17
9.58999e-18
1.92648e-17
2.87477e-17
-3.84689e-17
1.7699e-34
-4.781e-18
-2.22721e-17
1.76671e-19
3.26357e-17
1.3141e-31
7.6556e-17
1.20506e-33
-1.89386e-17
7.64827e-17
-1.02683e-26
-8.8142e-09
3.06104e-17
1.10788e-11
3.26841e-08
7.9976e-09
3.23902e-08
-1.92705e-08
-3.8047e-17
9.61304e-18
-2.88224e-17
-1.39474e-12
-1.6014e-08
-7.59421e-26
-3.089e-10
3.25442e-08
7.90162e-09
3.2554e-08
-1.80154e-12
6.01774e-10
1.58496e-12
-1.57824e-08
-7.73268e-24
1.74979e-11
-9.51418e-09
-2.97382e-17
3.97682e-08
0
-3.55467e-12
4.07194e-15
-1.53549e-19
-1.0045e-08
-5.34436e-17
0
-3.46047e-12
9.92726e-18
0
3.07924e-18
3.55293e-12
-1.76243e-17
-2.05468e-17
1.90258e-08
-3.01169e-18
0
3.68237e-12
-1.95553e-17
2.00883e-08
3.88548e-17
0
-1.28064e-11
-8.8758e-13
-3.93785e-08
0
3.15685e-08
-1.49608e-19
-2.87127e-17
0
2.13962e-17
1.31899e-33
4.32543e-18
4.377e-18
-1.47128e-18
-2.55541e-17
-1.49436e-19
-1.42638e-17
4.49734e-17
2.24741e-19
-1.26797e-13
-4.15257e-12
1.94161e-08
0
-2.07407e-08
-7.04627e-20
2.91629e-13
0
-1.53481e-08
5.73373e-33
1.81318e-19
2.07589e-20
-1.32104e-18
2.26229e-18
0
-9.51965e-19
3.98994e-18
0
-2.69442e-13
7.69541e-25
7.90145e-18
1.92935e-16
0
-5.81161e-34
-2.80468e-09
5.41249e-20
0
-1.16064e-19
-2.43579e-19
6.22112e-34
5.7102e-19
-7.40176e-18
1.69819e-18
0
-1.57046e-18
0
2.56939e-18
8.2862e-20
2.41035e-20
1.10502e-19
0
-7.55887e-34
0
0
0
0
0
0
0
0
0
0
0
0
0
0
0
0
0
0
0
0
0
0
0
0
0
0
0
0
-5.69669e-18
0
4.28067e-17
3.8453e-17
7.68327e-17
1.52742e-21
3.84266e-17
5.67516e-33
5.58869e-18
-9.66393e-18
-2.03489e-17
5.71279e-17
4.01593e-33
-1.92443e-17
7.67111e-17
0
5.47591e-18
2.02874e-12
9.19498e-10
-2.88994e-17
2.6771e-17
2.01589e-15
1.42134e-17
2.22993e-18
5.75341e-18
-3.02979e-17
-3.35952e-17
1.42749e-17
-4.27408e-17
6.46811e-20
0
-2.31317e-18
-6.95892e-18
3.36931e-17
-1.65258e-17
3.82992e-17
-2.71306e-17
-2.14605e-17
-1.44798e-17
-4.06232e-17
0
0
4.11258e-19
1.62925e-17
6.40975e-18
0
-9.13012e-17
0
-1.39226e-17
3.30867e-17
0
1.20792e-17
-2.82667e-17
0
2.78739e-18
-2.3606e-18
2.69066e-18
-2.55777e-17
1.47041e-19
-1.3315e-18
4.56973e-18
1.41514e-17
-4.51105e-17
-1.53964e-19
1.74236e-17
2.55607e-17
-1.06543e-17
0
1.9428e-15
-1.75784e-33
9.31926e-18
0
-6.98951e-18
1.37083e-33
-3.54094e-18
-9.87484e-18
-1.60297e-17
-4.02047e-17
1.53469e-19
1.42315e-17
-2.11433e-17
1.99565e-31
2.56353e-18
8.39218e-35
5.499e-16
-1.28601e-33
-3.16107e-18
-6.49671e-18
0
0
0
-1.44182e-16
3.08194e-33
2.268e-19
-5.11405e-18
9.66122e-18
2.10584e-17
4.36094e-17
3.85338e-17
1.89517e-33
2.0031e-19
7.66637e-17
-1.44222e-35
-3.81091e-19
2.75615e-17
-4.78967e-17
3.31492e-17
-5.47556e-17
1.85926e-17
7.77005e-35
3.12616e-17
4.75996e-18
-1.52044e-19
-6.46659e-12
1.26004e-11
4.94506e-12
-8.85828e-10
0
8.81896e-10
3.2688e-08
-1.51289e-19
9.6447e-09
4.29532e-17
0
4.86579e-12
-3.81469e-17
-1.51864e-19
5.75127e-18
-5.40764e-18
1.4433e-17
-1.33507e-17
1.43664e-17
-3.57687e-17
0
-3.24915e-12
1.43182e-17
-1.9283e-08
-5.01475e-17
-1.4704e-19
5.19863e-12
3.14946e-17
5.1075e-10
0
4.08592e-15
-1.49209e-19
5.24979e-17
0
-2.3921e-17
-1.46917e-19
-6.0601e-18
2.14983e-17
1.07058e-17
-5.21256e-17
-1.49039e-19
1.90829e-17
-3.34516e-17
0
1.30995e-17
-1.09253e-18
-3.46615e-17
1.73827e-15
0
-5.37927e-16
-1.14599e-14
-1.18065e-19
6.33973e-13
0
-2.07834e-10
0
2.72796e-18
2.6296e-18
5.12009e-18
-1.7507e-17
5.28517e-18
6.37379e-17
-2.36169e-19
-2.01184e-18
5.32539e-18
0
-6.33975e-13
-8.66017e-11
0
0
0
7.27718e-33
2.47405e-18
-4.20223e-18
9.16744e-20
0
0
0
0
0
0
0
0
0
0
0
0
0
0
0
0
0
0
0
0
0
0
0
0
0
0
2.8926e-17
-1.02097e-32
-2.20934e-17
-3.18801e-17
-9.46464e-18
-3.11967e-17
3.2892e-17
9.60548e-17
-1.44326e-32
3.86009e-17
9.59227e-18
0
5.76728e-17
-7.87627e-25
-5.4208e-18
-8.09574e-09
6.49833e-13
-1.08846e-11
-8.22928e-09
-1.08434e-17
-6.49825e-13
1.61915e-08
1.64108e-08
-1.62457e-12
-3.77965e-33
-9.91212e-18
1.86406e-17
4.06136e-19
-1.47768e-19
0
-9.56829e-18
2.87442e-17
-1.41158e-19
3.07109e-18
-4.18426e-12
-1.39477e-12
0
-3.65688e-08
-3.26299e-08
5.47265e-18
-9.65444e-18
3.38429e-18
-1.7795e-34
-2.06512e-17
1.92734e-17
0
2.88893e-18
3.41053e-20
-1.41735e-17
-1.90454e-17
3.07296e-17
5.62012e-18
9.5331e-18
3.03418e-17
-1.49475e-19
0
-4.27431e-18
-1.4948e-19
3.23737e-17
1.81952e-11
5.19867e-12
0
1.36594e-09
3.2122e-08
1.91866e-17
4.51105e-17
-2.98721e-19
-2.37232e-17
-1.49302e-19
8.37811e-18
-1.45744e-18
-4.71021e-18
1.41947e-17
-3.58754e-17
4.74524e-18
5.87582e-20
4.30989e-18
-1.87247e-18
0
0
-2.93013e-18
0
1.95115e-18
-5.88089e-20
-9.90339e-19
-1.5705e-18
-8.70019e-20
-2.945e-18
5.39943e-18
-1.48844e-19
1.64836e-12
-5.07202e-13
-3.34023e-08
0
-6.76019e-08
1.15297e-19
0
4.93469e-33
-6.90616e-19
-1.83567e-17
-1.39008e-17
5.87693e-17
2.3063e-19
0
0
0
0
5.55047e-18
1.11009e-17
4.34133e-17
1.93285e-17
1.34849e-16
-9.63181e-18
5.77174e-17
-3.62761e-33
-5.25526e-18
2.88975e-17
4.27014e-17
5.75326e-17
-3.67584e-33
-4.78059e-17
9.59494e-17
0
-4.91622e-18
-5.84424e-18
-2.38186e-17
2.15562e-17
-2.14062e-17
1.91966e-17
0
-6.55952e-17
-3.57508e-17
2.1702e-17
-3.0941e-17
4.81283e-18
0
5.29374e-12
3.7971e-08
-1.19401e-17
8.87574e-12
-1.80476e-10
4.62344e-18
2.60517e-18
-4.00162e-17
-1.18501e-17
9.49963e-18
-2.12629e-17
1.43486e-17
-4.619e-19
1.35344e-17
-8.87569e-12
-1.34385e-17
0
-2.42328e-09
3.07061e-19
1.0653e-17
3.78404e-17
0
-6.37217e-18
-7.05744e-18
-3.07766e-19
6.86156e-18
-8.86336e-20
-1.27714e-17
-1.04916e-17
-1.53484e-19
3.99491e-18
-4.75698e-18
-1.32574e-17
-2.83373e-17
1.3942e-19
-6.50305e-18
6.95442e-18
7.43263e-18
0
-1.99147e-15
1.47101e-19
2.37471e-17
0
-4.56894e-18
-2.78747e-19
-1.04598e-18
1.88824e-17
8.82665e-18
9.73715e-18
-2.94086e-19
1.84774e-17
-1.67926e-17
4.87996e-31
2.3843e-18
0
9.0596e-16
-6.88304e-34
-1.84411e-18
-1.75603e-18
0
0
0
0
0
0
0
0
0
0
0
0
0
0
0
0
0
0
0
0
0
0
0
0
-1.0056e-17
0
5.44474e-17
-3.83884e-17
5.77776e-17
2.86187e-17
3.82773e-17
2.92127e-24
-9.20979e-09
8.78479e-09
-7.90851e-09
-1.05411e-12
8.66413e-09
5.7321e-12
-2.00947e-08
1.92111e-08
1.054e-12
1.58179e-08
-5.73222e-12
-1.73299e-08
-9.19857e-24
-7.77928e-09
-1.69738e-08
1.51774e-19
-3.52632e-10
-5.1986e-12
-2.57552e-12
2.14426e-25
3.23279e-08
0
4.59403e-25
-3.98347e-08
-8.6333e-10
1.50887e-11
-1.50887e-11
0
1.62456e-12
1.43512e-17
7.02696e-10
-4.30472e-17
-3.08821e-19
2.42305e-17
-8.5887e-17
2.34871e-19
1.44059e-17
6.02548e-26
3.97589e-08
9.63651e-12
-7.76097e-09
1.52002e-12
2.17475e-17
1.03289e-14
-3.7512e-17
3.18769e-18
-1.51363e-12
1.55219e-08
-4.94867e-18
-5.77531e-17
2.47921e-08
1.10624e-19
0
2.68869e-09
0
-2.53581e-13
3.48682e-13
0
-3.89136e-08
7.60788e-13
1.27082e-17
0
1.00422e-17
-3.21487e-33
-1.87313e-21
-3.3018e-18
9.77981e-18
1.12967e-18
-3.71547e-08
-1.46749e-19
0
3.4838e-08
-1.44015e-19
-2.6627e-12
-4.27938e-12
-1.01436e-12
0
-3.81032e-08
5.15413e-09
-4.12093e-13
3.69678e-17
-2.93563e-19
2.08852e-17
1.43945e-19
5.52904e-18
-5.20956e-18
-2.10906e-18
4.26177e-17
2.30993e-18
-1.03791e-17
4.14489e-24
0
-1.14595e-33
0
0
0
0
0
2.89261e-17
1.14262e-32
5.54181e-19
-1.63168e-17
-2.88923e-17
3.15667e-17
0
5.76733e-17
3.32261e-33
-4.63975e-18
-9.68784e-17
3.23859e-17
5.74919e-17
1.59161e-33
-5.42557e-18
-3.8356e-17
2.05749e-17
3.87257e-17
1.43939e-24
-8.13256e-09
2.38269e-12
-3.7636e-11
-8.54141e-09
-2.3827e-12
1.62675e-08
1.69206e-08
-4.76542e-12
1.78308e-17
1.49476e-19
0
1.55454e-17
-4.95227e-18
-4.54747e-24
1.54968e-17
-4.16895e-11
-1.26796e-11
0
-3.94689e-08
1.736e-10
-2.25024e-17
5.16105e-19
2.82964e-17
1.49367e-19
2.20875e-17
-2.78753e-18
0
1.12089e-17
-4.27692e-18
4.81655e-18
0
-1.90523e-17
-8.50469e-18
-1.44408e-17
3.93047e-18
2.09771e-33
0
3.11473e-17
1.41142e-19
-3.60179e-19
1.14117e-11
3.16988e-12
0
7.33934e-08
9.56117e-10
-3.83358e-17
-3.20443e-18
0
4.55195e-17
0
-2.62028e-18
1.3835e-18
7.1765e-18
-3.53192e-17
4.70721e-17
-1.4402e-17
2.97658e-19
1.26796e-12
-5.29376e-12
2.92427e-09
0
-3.78995e-08
0
-7.60769e-13
0
-2.65915e-08
1.48838e-19
-4.53118e-19
-5.3496e-18
-1.0301e-17
5.32323e-17
-1.15313e-19
9.77545e-19
-5.91667e-18
0
4.65073e-18
-1.87242e-18
0
-1.49231e-24
0
0
3.23982e-18
-3.4529e-18
8.69811e-20
0
0
0
0
0
0
0
0
0
0
0
0
0
0
0
0
0
0
0
0
-3.28875e-17
6.10031e-22
1.94796e-17
-1.9436e-17
1.91444e-17
2.54229e-33
2.71317e-17
-2.73626e-17
-4.34872e-21
-3.18362e-17
0
3.85019e-17
3.86553e-33
-2.37661e-19
-2.92398e-17
4.75996e-19
8.01279e-17
0
-2.7497e-17
-9.37203e-09
3.42511e-17
-2.41483e-15
0
-1.92118e-12
8.22587e-15
-1.52748e-19
1.02707e-08
2.83126e-17
0
1.24841e-11
-3.32417e-17
1.50975e-19
-5.63756e-18
1.92571e-12
-2.78636e-19
3.96722e-17
1.87422e-08
-6.35344e-17
0
-9.96405e-12
4.5628e-18
-2.05294e-08
-4.72902e-17
0
1.28697e-17
-1.16929e-17
-9.49662e-18
-2.42056e-17
1.73657e-17
-1.89938e-17
-3.45294e-18
-2.36618e-17
7.12015e-18
0
3.41958e-17
1.899e-17
5.38518e-24
2.2823e-12
8.18239e-18
4.07926e-08
-3.24859e-33
1.40315e-16
1.56824e-19
-6.57201e-33
1.897e-09
7.73456e-12
-3.0835e-33
-6.52473e-18
7.10804e-18
4.0852e-17
-1.54861e-17
1.56764e-19
-2.37509e-17
2.09507e-18
1.98143e-24
1.63518e-17
3.65819e-17
-2.12904e-16
0
8.18668e-15
1.48925e-19
-1.69621e-17
-9.59244e-18
0
-1.50506e-16
-9.34494e-18
1.52304e-19
-1.7521e-18
1.50164e-19
-1.79741e-17
-8.62387e-17
1.48873e-19
-2.34929e-18
9.7357e-18
5.44091e-18
-2.34502e-18
-5.96403e-09
-2.83377e-24
0
6.88062e-20
-9.50983e-14
-6.84699e-12
0
-5.16136e-08
3.73807e-18
2.20305e-33
-6.88266e-20
1.689e-18
-1.98996e-18
1.57398e-17
0
0
0
0
0
0
-3.25867e-17
0
-1.2037e-16
8.94802e-18
2.00333e-17
1.90011e-17
3.85841e-17
3.60385e-24
8.9566e-09
-1.5366e-10
1.9559e-08
-3.03274e-10
-4.43954e-24
-3.03213e-10
-8.18187e-09
-1.19726e-09
3.3917e-10
-1.57013e-09
-6.50637e-10
-1.00116e-12
1.64252e-08
-3.77481e-12
-7.71855e-10
-1.12191e-26
-3.8281e-08
9.8901e-12
-8.40562e-09
-3.57581e-08
-7.63945e-12
-3.47451e-08
3.20161e-12
1.65864e-09
-1.44819e-17
2.33524e-19
1.88082e-12
1.6689e-08
2.57013e-18
-8.65745e-18
2.69551e-18
-3.21161e-17
-1.51779e-19
-1.02487e-08
1.26796e-11
-9.31421e-12
2.78062e-25
-1.26955e-11
1.54695e-19
1.40454e-25
-3.18556e-08
9.8901e-12
1.51653e-19
4.76542e-12
1.43509e-17
2.04833e-08
-7.16566e-18
1.54397e-19
-1.14523e-17
1.93101e-17
3.71554e-08
-1.4674e-19
0
-3.32438e-08
-3.46603e-08
0
1.39477e-12
-1.72443e-11
9.94157e-18
0
-7.91169e-08
-1.55812e-16
1.14116e-12
6.0227e-13
3.74422e-18
0
-4.5881e-18
5.27557e-18
-1.43958e-19
1.10611e-17
-8.35111e-18
-4.69847e-18
5.42499e-18
-9.20607e-18
-1.22991e-17
2.57903e-18
-2.41096e-08
2.21248e-19
0
-6.8288e-20
-2.53582e-13
3.89897e-12
0
1.00431e-08
1.74393e-17
1.10645e-19
0
-1.53157e-19
-9.31716e-19
1.40488e-17
-6.52321e-24
0
-8.42983e-34
0
0
0
0
0
0
0
0
0
0
0
0
0
0
0
0
0
-3.87544e-17
9.32582e-35
2.20201e-17
1.09938e-17
3.39208e-19
3.92327e-17
-2.68254e-34
-6.90202e-19
2.97446e-19
-2.20196e-17
5.82831e-17
1.97628e-24
8.86456e-09
-2.99555e-11
-3.73202e-08
4.05747e-12
-4.59635e-12
6.69402e-08
-2.98268e-10
3.29829e-08
-3.68165e-08
1.93925e-08
-3.8122e-19
-2.59859e-17
-2.72555e-18
-4.95395e-18
-5.96671e-18
1.95078e-17
2.50951e-12
6.37649e-10
-5.81588e-24
9.09798e-09
-9.01769e-09
-3.3945e-08
-3.465e-10
-3.32822e-08
1.9853e-08
7.12436e-12
1.79633e-08
-9.32479e-13
7.18767e-10
0
-3.38079e-17
7.22738e-12
1.90194e-12
2.97103e-17
0
3.78701e-08
7.0451e-11
0
2.86139e-17
0
-2.37207e-17
1.924e-33
-6.29592e-18
1.32947e-18
-7.13545e-18
3.94837e-17
-1.01855e-17
-1.16946e-23
0
1.44078e-17
-2.14438e-17
-1.63047e-17
-1.46566e-19
0
3.84345e-18
3.33399e-17
0
-2.05101e-17
2.5359e-12
0
-3.15122e-08
-7.89234e-18
-5.69141e-17
-2.23539e-17
1.46494e-19
-4.16438e-19
5.22746e-17
1.54803e-19
-2.6297e-18
-7.14743e-18
1.7976e-17
-2.07054e-19
-1.87178e-17
1.13672e-19
-2.28233e-12
3.73932e-08
0
1.53468e-19
0
3.92346e-17
-2.5978e-17
-2.27323e-19
2.01225e-18
2.66875e-17
-2.96729e-33
7.59665e-17
-1.04284e-17
0
5.07197e-13
-3.01142e-12
2.10911e-09
0
-3.36749e-08
-9.5335e-20
7.60762e-13
0
2.14289e-08
-1.46071e-19
-3.12294e-19
-1.2799e-17
-3.1296e-17
4.05528e-17
0
-7.4022e-19
1.87124e-17
0
0
0
0
0
0
-1.20464e-16
-1.9436e-17
-3.85839e-17
3.85671e-17
1.94796e-17
-1.23197e-33
-2.71324e-17
-2.1508e-17
-4.90409e-17
7.72922e-17
-1.92239e-31
3.77535e-17
1.38346e-34
6.25121e-18
3.59416e-21
0
-2.06521e-18
0
-9.84097e-09
-7.8957e-12
-1.6612e-17
1.47066e-21
9.62632e-18
1.89945e-17
-1.69511e-17
1.05165e-17
6.38999e-12
1.96747e-08
-1.66155e-17
0
-3.65694e-19
1.89901e-17
-2.02071e-17
-1.18903e-17
-3.02188e-19
-2.00338e-11
3.3607e-10
9.52657e-18
-3.8802e-08
0
2.16864e-12
-2.27175e-16
-1.52748e-19
4.2939e-17
0
-4.0446e-17
-9.8855e-25
-1.48764e-17
-2.1661e-12
2.62102e-17
3.88668e-17
-6.70624e-10
-3.02716e-17
-1.52497e-19
2.41823e-17
-3.78754e-17
0
1.9273e-11
1.86851e-17
3.9656e-08
0
-2.83612e-16
-3.87775e-24
4.97382e-19
9.76329e-12
0
-5.36661e-18
3.84428e-08
-1.56828e-19
-3.04309e-12
-5.16693e-12
1.39877e-33
1.97477e-09
-3.49346e-08
-3.04594e-19
-2.93165e-18
-2.37848e-18
1.00392e-17
-3.48031e-17
1.48849e-19
0
2.84343e-18
-7.7819e-18
-1.60578e-17
1.56754e-19
3.79906e-18
-2.51374e-18
-1.28543e-17
9.79983e-19
-5.38549e-24
-3.45518e-12
6.70071e-34
-3.05865e-08
1.52906e-19
2.535e-18
-9.50677e-18
1.68276e-08
7.10997e-25
0
-1.37595e-19
-1.26797e-13
1.23626e-12
0
-2.54589e-10
-5.96645e-09
-4.05e-24
-6.88209e-20
1.45815e-12
1.85176e-18
-5.38941e-18
0
0
0
0
0
0
0
0
0
0
0
0
0
0
-5.43421e-17
-2.8314e-18
-1.19907e-16
2.74308e-19
5.74527e-17
8.81718e-18
-4.02943e-19
6.46954e-25
3.28009e-17
8.05731e-09
-4.50999e-17
1.75793e-08
1.23956e-33
-3.81656e-17
3.77981e-17
1.22359e-19
4.18426e-12
3.265e-12
-1.04238e-17
1.51663e-19
2.53577e-13
5.67412e-12
-2.68398e-10
0
-2.55363e-08
2.97792e-08
-2.8168e-19
-9.60828e-09
-2.82228e-17
0
-2.36688e-12
3.07995e-17
0
-3.69673e-08
3.81293e-08
3.03309e-19
4.75363e-18
-5.72982e-18
-1.22365e-19
2.71407e-18
1.41601e-18
-1.29667e-17
1.67838e-17
5.22489e-17
7.77845e-18
1.75958e-17
3.21891e-17
-2.8137e-19
2.38272e-12
-1.4111e-17
1.92154e-08
3.54719e-17
-1.5356e-19
1.12849e-11
-9.95308e-09
1.84387e-17
1.43438e-09
0
-7.5096e-12
-1.92474e-16
1.51886e-19
-4.98263e-18
0
1.32651e-21
1.12136e-25
5.12264e-18
7.50473e-12
7.51322e-18
-4.99902e-17
1.99026e-08
-1.25377e-17
0
1.02165e-17
-1.28118e-19
0
-1.1638e-17
2.12383e-12
1.59661e-17
0
1.60866e-08
1.45496e-19
-5.01636e-17
0
5.52774e-17
-9.43011e-20
-3.72739e-18
-4.82664e-18
2.10702e-17
1.37594e-17
0
-2.00511e-17
7.54001e-17
0
0
-1.38214e-15
-1.5106e-17
-1.47266e-33
2.00541e-17
-4.9163e-18
9.86497e-26
0
2.65219e-34
-7.19529e-24
0
-1.20337e-33
0
0
0
0
0
0
0
-3.79417e-17
-2.42307e-34
-2.20201e-17
-2.2012e-17
-3.85569e-17
-3.39208e-19
-2.20196e-17
3.88554e-17
5.17615e-34
-8.62305e-18
3.92327e-17
1.28599e-24
1.11422e-17
9.09783e-09
-9.01681e-09
-3.39436e-08
1.41325e-11
-3.32843e-08
3.69945e-17
1.9853e-08
6.8866e-12
1.79632e-08
-5.19392e-18
-3.77222e-17
5.36067e-34
8.62263e-18
2.39224e-15
-4.75486e-13
5.07185e-12
3.13817e-08
2.21206e-11
3.29849e-08
3.6817e-08
2.88331e-18
-8.15256e-18
-5.10557e-18
5.48321e-18
9.24238e-19
1.67485e-17
-9.57175e-18
-1.92927e-17
-1.76149e-17
-1.4657e-19
0
9.81859e-18
6.09877e-18
1.55222e-19
-2.4979e-17
-2.70785e-17
0
1.95223e-15
-4.27793e-17
-3.04702e-18
-1.51898e-19
0
-2.64317e-17
-2.84784e-17
3.91076e-17
2.86821e-17
-2.44495e-17
-3.67374e-34
3.11008e-17
1.29863e-17
0
-8.6737e-18
1.02279e-17
9.55444e-18
-1.62549e-19
-4.14587e-19
1.51816e-19
-3.36807e-17
-7.03461e-18
1.06023e-17
1.91656e-17
1.06808e-30
-8.68192e-19
-2.47332e-18
0
-9.22839e-16
-8.46323e-15
-1.48282e-19
9.65874e-18
2.38748e-18
1.57907e-17
4.75762e-17
-3.71989e-24
8.87564e-13
-1.77516e-12
2.10795e-09
0
-3.42739e-08
9.53091e-20
3.8038e-13
1.53439e-19
6.11791e-12
1.39473e-12
0
2.14221e-08
0
3.73946e-08
3.44863e-08
3.1256e-33
5.21751e-18
-7.48391e-18
-7.51194e-18
7.10888e-17
-9.53382e-20
-7.92329e-19
-3.06823e-19
3.27592e-18
-7.81788e-18
1.22179e-17
-2.76766e-18
2.87443e-17
1.13685e-19
0
-1.13667e-19
0
0
0
0
0
0
0
0
0
0
0
-4.89537e-17
5.76648e-34
-3.33278e-19
-1.08031e-17
-3.91445e-17
-1.33671e-18
8.45012e-17
1.7978e-17
-1.17992e-33
-5.59541e-17
-3.93975e-17
-4.31691e-17
9.80064e-17
0
6.56798e-17
4.31108e-12
7.86346e-10
-1.90094e-17
5.70584e-12
-3.31002e-08
2.8809e-17
-4.49605e-17
1.0791e-17
-2.18154e-17
-3.09722e-17
6.78609e-18
-4.07061e-17
9.47824e-18
0
-9.53587e-18
5.71966e-17
-1.24971e-23
1.82547e-24
6.27113e-18
-2.29465e-16
0
0
-8.97142e-20
-3.80363e-13
0
3.34414e-08
-2.5561e-33
-2.58622e-33
1.81605e-18