/*--------------------------------*- C++ -*----------------------------------*\
| =========                 |                                                 |
| \\      /  F ield         | OpenFOAM: The Open Source CFD Toolbox           |
|  \\    /   O peration     | Version:  5.x                                   |
|   \\  /    A nd           | Web:      www.OpenFOAM.org                      |
|    \\/     M anipulation  |                                                 |
\*---------------------------------------------------------------------------*/
FoamFile
{
    version     2.0;
    format      ascii;
    class       volScalarField;
    location    "1.9";
    object      nut;
}
// * * * * * * * * * * * * * * * * * * * * * * * * * * * * * * * * * * * * * //

dimensions      [0 2 -1 0 0 0 0];

internalField   nonuniform List<scalar> 
12160
(
1.15305e-09
1.19995e-09
5.56699e-08
1.16006e-09
9.88639e-08
6.45384e-08
1.16594e-09
1.44009e-07
8.76709e-08
8.19587e-08
1.19352e-09
9.13812e-08
1.11264e-07
8.10986e-08
1.99419e-07
1.22254e-09
6.51322e-08
1.16682e-07
1.53313e-07
5.89596e-08
5.28234e-08
1.25253e-09
6.1044e-08
6.70694e-08
1.02001e-07
8.73261e-08
4.37812e-08
4.37598e-08
1.29134e-09
5.29497e-08
6.43411e-08
8.22518e-08
7.46229e-08
1.23313e-07
2.02012e-08
5.63659e-09
1.34907e-09
3.84041e-08
5.7457e-08
8.69564e-08
7.62643e-08
1.31478e-07
2.72152e-08
6.31586e-09
1.09083e-08
1.43162e-09
2.85512e-08
4.00566e-08
6.3619e-08
1.31317e-07
1.33437e-07
2.76367e-08
7.80193e-09
1.15337e-08
1.46234e-08
1.54329e-09
2.28206e-08
2.82777e-08
3.9368e-08
7.3211e-08
4.9697e-07
3.63323e-08
1.2103e-08
8.39581e-09
2.10465e-08
9.74361e-09
1.68478e-09
2.00438e-08
2.23515e-08
2.65276e-08
3.80783e-08
8.97947e-08
9.33984e-08
1.74021e-08
7.4014e-09
3.72216e-08
5.8861e-09
9.87429e-09
1.85327e-09
1.91855e-08
1.96649e-08
2.07103e-08
2.51315e-08
3.90428e-08
9.08731e-08
3.3326e-08
6.55073e-09
2.74678e-08
3.96472e-09
4.00499e-09
4.26476e-09
2.04662e-09
1.96646e-08
1.90017e-08
1.81179e-08
1.96539e-08
2.41061e-08
2.91818e-08
1.7064e-08
7.03374e-09
2.03767e-08
3.28413e-09
1.39498e-08
5.93987e-09
6.3935e-09
2.25058e-09
2.12438e-08
1.98372e-08
1.74535e-08
1.73411e-08
1.82633e-08
1.7996e-08
1.00754e-08
1.02922e-08
1.75359e-08
4.119e-09
1.24841e-08
3.78401e-09
5.26625e-09
3.7983e-09
2.46983e-09
2.3424e-08
2.19097e-08
1.81863e-08
1.69457e-08
1.5926e-08
1.40315e-08
7.82643e-09
4.28115e-08
1.43238e-08
9.66107e-09
4.98558e-09
6.353e-09
1.0671e-08
2.16162e-08
2.72513e-09
2.49456e-08
2.47886e-08
2.02312e-08
1.82077e-08
1.54479e-08
1.26485e-08
7.10464e-09
2.66922e-08
1.26495e-08
2.53976e-08
5.48296e-09
8.79838e-09
6.6486e-09
4.07529e-09
3.04654e-09
2.45961e-08
2.72188e-08
2.34424e-08
2.12689e-08
1.65477e-08
1.28447e-08
7.21865e-09
1.77033e-08
1.68088e-08
1.12402e-08
6.58999e-09
1.01658e-08
1.20381e-08
8.50491e-09
3.49922e-09
2.23234e-08
2.71836e-08
2.66117e-08
2.61606e-08
1.93105e-08
1.46843e-08
7.87568e-09
1.6624e-08
3.4309e-08
1.33365e-08
1.27897e-08
1.4556e-08
1.43217e-08
1.66909e-08
4.19545e-09
1.94097e-08
2.4382e-08
2.67222e-08
3.23412e-08
2.41532e-08
1.87569e-08
9.09514e-09
1.82009e-08
5.77602e-08
2.04526e-08
2.90169e-08
1.45392e-08
2.25555e-08
2.60807e-08
5.35958e-09
1.68792e-08
2.07342e-08
2.31681e-08
3.30095e-08
3.2189e-08
2.57891e-08
1.06883e-08
2.07418e-08
4.87106e-08
2.84684e-08
1.10669e-08
1.25812e-08
3.58191e-08
1.47741e-07
7.48689e-09
1.50511e-08
1.77335e-08
1.90793e-08
2.64908e-08
3.53819e-08
4.10168e-08
1.22033e-08
2.11398e-08
4.98171e-08
3.87571e-08
9.09092e-09
1.99044e-08
1.16748e-08
2.23733e-08
1.14155e-08
1.39348e-08
1.56513e-08
1.60086e-08
2.04385e-08
2.67323e-08
6.10718e-08
1.2292e-08
1.70219e-08
6.36826e-08
6.0431e-08
9.23123e-09
7.86865e-09
8.76554e-09
9.69342e-09
1.40269e-08
1.34924e-08
1.43975e-08
1.39716e-08
1.659e-08
1.9665e-08
3.55764e-08
1.11181e-08
1.29742e-08
4.96598e-08
1.21663e-07
1.06597e-08
4.98771e-09
1.22481e-08
1.27543e-08
1.03579e-08
1.37369e-08
1.38796e-08
1.27532e-08
1.4264e-08
1.55855e-08
2.13581e-08
1.01531e-08
1.04567e-08
1.48829e-07
5.29487e-07
1.39453e-08
3.97385e-09
2.92478e-08
2.10789e-08
7.38175e-09
1.47733e-08
1.40771e-08
1.21957e-08
1.29469e-08
1.32282e-08
1.52147e-08
9.59572e-09
8.68539e-09
3.27627e-08
6.91021e-08
1.88253e-08
3.47591e-09
1.32804e-08
5.14994e-08
5.83708e-09
1.68959e-08
1.50593e-08
1.22364e-08
1.23573e-08
1.18525e-08
1.21235e-08
9.35758e-09
7.50549e-09
1.58933e-08
3.87879e-08
2.07514e-08
3.42431e-09
7.47504e-09
2.56107e-08
5.03885e-09
2.08678e-08
1.70465e-08
1.29139e-08
1.23382e-08
1.10622e-08
1.04883e-08
9.23798e-09
6.63174e-09
1.13954e-08
4.17508e-08
1.9505e-08
3.69824e-09
5.53106e-09
1.77447e-08
4.65606e-09
2.85646e-08
2.05637e-08
1.43275e-08
1.28561e-08
1.07813e-08
9.64267e-09
9.322e-09
6.0619e-09
9.28579e-09
4.08348e-08
2.26665e-08
4.25546e-09
5.42474e-09
2.65336e-08
4.53262e-09
4.38068e-08
2.6557e-08
1.67352e-08
1.39088e-08
1.11028e-08
9.37868e-09
9.86444e-09
5.852e-09
7.94487e-09
2.71208e-08
3.13842e-08
4.58515e-09
6.31252e-09
2.65177e-08
4.62191e-09
6.59337e-08
3.65896e-08
2.04694e-08
1.55252e-08
1.1952e-08
9.72722e-09
1.03383e-08
6.16376e-09
6.97894e-09
1.68997e-08
3.86919e-08
4.50195e-09
5.87517e-09
1.42308e-08
4.94023e-09
5.5437e-08
4.27875e-08
2.48406e-08
1.7643e-08
1.32285e-08
1.06067e-08
1.0186e-08
6.71137e-09
5.99596e-09
1.09155e-08
3.3698e-08
4.35669e-09
5.19244e-09
2.03102e-08
5.52245e-09
3.68763e-08
3.57966e-08
2.8268e-08
2.02688e-08
1.46977e-08
1.17564e-08
9.27788e-09
5.84491e-09
5.08259e-09
7.49628e-09
1.88849e-08
4.07538e-09
5.01783e-09
2.30491e-08
6.46879e-09
2.80354e-08
2.84955e-08
2.86134e-08
2.17163e-08
1.57609e-08
1.34094e-08
8.56364e-09
5.09256e-09
4.92774e-09
5.80638e-09
1.10631e-08
4.04683e-09
5.58136e-09
1.77609e-08
7.98783e-09
2.3656e-08
2.36678e-08
2.56085e-08
2.0674e-08
1.66058e-08
1.50767e-08
7.97914e-09
4.92937e-09
5.34941e-09
6.14979e-09
8.05247e-09
4.74987e-09
7.58161e-09
1.67922e-08
1.04957e-08
2.14456e-08
2.08724e-08
2.26633e-08
1.90618e-08
1.74114e-08
1.53033e-08
7.45713e-09
5.14305e-09
5.9072e-09
8.05766e-09
8.73555e-09
5.52435e-09
1.21036e-08
2.18937e-08
1.47222e-08
2.04992e-08
1.93489e-08
2.05341e-08
1.76268e-08
1.75911e-08
1.41424e-08
6.91545e-09
5.6179e-09
6.68592e-09
1.12109e-08
1.33867e-08
4.24782e-09
1.98614e-08
2.90387e-08
2.03263e-08
2.04821e-08
1.86685e-08
1.9223e-08
1.66141e-08
1.73276e-08
1.30853e-08
6.57946e-09
6.40758e-09
7.78926e-09
1.60202e-08
2.54691e-08
3.33478e-09
1.50708e-08
3.45258e-08
2.15718e-08
2.12081e-08
1.8654e-08
1.8584e-08
1.5953e-08
1.68246e-08
1.25335e-08
6.67677e-09
7.61786e-09
9.49077e-09
2.30637e-08
3.9946e-08
3.27504e-09
9.32348e-09
2.15638e-08
1.70583e-08
2.34861e-08
1.92545e-08
1.85349e-08
1.55894e-08
1.6351e-08
1.21974e-08
7.00027e-09
9.64877e-09
1.28265e-08
2.79547e-08
3.73299e-08
3.5402e-09
7.08776e-09
1.28359e-08
2.58676e-08
1.1061e-08
2.10732e-08
1.91332e-08
1.55243e-08
1.60745e-08
1.18247e-08
7.29356e-09
1.37023e-08
1.94361e-08
2.18476e-08
2.89601e-08
3.96417e-09
6.46318e-09
9.59483e-09
2.34245e-08
3.74453e-08
9.55876e-09
2.08576e-08
1.58264e-08
1.61148e-08
1.15182e-08
7.62228e-09
2.24408e-08
2.19979e-08
2.23234e-08
2.11578e-08
4.45606e-09
7.06046e-09
8.38962e-09
2.3443e-08
3.29584e-08
6.08284e-08
7.39755e-09
1.66894e-08
1.67387e-08
1.14906e-08
8.21859e-09
4.52293e-08
2.17021e-08
3.22466e-08
1.85402e-08
4.67313e-09
8.13056e-09
9.15224e-09
1.80588e-08
3.54287e-08
4.65329e-08
1.92356e-07
9.19023e-09
1.80895e-08
1.19368e-08
9.32272e-09
6.13373e-08
2.41902e-08
3.88969e-08
2.05025e-08
4.27902e-09
1.05949e-08
4.22618e-09
2.13475e-08
2.38057e-08
6.00991e-08
1.43665e-07
3.46512e-08
4.74498e-09
1.31987e-08
1.11252e-08
3.24853e-08
2.91115e-08
2.75827e-08
2.15598e-08
3.70169e-09
1.06509e-08
4.65778e-09
1.60097e-08
3.46914e-08
3.43558e-08
5.8392e-08
3.4631e-08
1.33477e-08
3.07814e-09
1.41684e-08
2.20275e-08
3.64652e-08
1.69614e-08
2.02327e-08
3.42712e-09
8.88743e-09
6.59718e-09
1.77638e-08
2.0699e-08
4.80158e-08
5.86685e-08
3.0393e-08
1.03403e-08
6.53143e-09
1.55904e-09
1.80415e-08
4.59251e-08
1.075e-08
2.0432e-08
3.39637e-09
8.10205e-09
1.21777e-08
1.73394e-08
2.81063e-08
2.57675e-08
2.89283e-08
2.68788e-08
9.07935e-09
7.08957e-09
5.69395e-09
9.91384e-10
6.84981e-08
8.02681e-09
1.94963e-08
3.42203e-09
8.04061e-09
2.88576e-08
6.59894e-08
1.41993e-08
1.70672e-07
1.69056e-08
1.50234e-08
9.16488e-09
7.09091e-09
6.06027e-09
4.84957e-09
6.3562e-10
6.31469e-09
1.57444e-08
3.50789e-09
8.61315e-09
3.34824e-08
5.42589e-09
6.14763e-08
1.22157e-08
5.04795e-08
1.15052e-08
7.41392e-09
5.66318e-09
8.26062e-09
7.67863e-09
7.65327e-09
3.18222e-10
1.14081e-08
3.6604e-09
9.84131e-09
2.67618e-08
9.30337e-09
3.98634e-09
7.56004e-08
1.26259e-08
2.29449e-08
6.85543e-09
4.49354e-09
8.57334e-09
1.46193e-08
1.11855e-08
2.71625e-09
1.98697e-06
3.87653e-09
1.13314e-08
2.24484e-08
4.56899e-09
8.25739e-09
3.34511e-09
5.62836e-08
1.40744e-08
1.30215e-08
4.62991e-09
8.64873e-09
2.2519e-08
4.168e-08
1.38498e-08
1.57746e-06
2.93812e-05
2.04096e-06
1.12268e-08
1.91993e-08
1.16726e-08
5.27561e-09
7.95841e-09
3.75548e-09
4.0319e-08
1.71313e-08
8.5707e-09
7.78804e-09
3.13367e-08
9.5846e-08
9.10646e-08
9.51765e-07
1.7945e-05
0.000320009
7.50206e-05
3.51666e-06
1.46461e-08
1.40795e-08
9.69147e-09
4.10989e-09
8.4319e-09
4.71717e-09
3.71565e-08
1.7125e-08
8.30777e-09
2.6815e-08
1.16712e-07
1.31404e-07
5.29452e-07
1.19523e-05
0.000139367
0.00076178
0.000650309
0.000180794
5.31884e-06
1.0367e-08
6.90621e-09
3.89373e-09
1.23407e-08
4.62399e-08
3.19689e-08
1.77118e-08
1.135e-08
1.1497e-07
4.28924e-07
3.73652e-07
6.38471e-06
8.18536e-05
0.000474774
0.000828842
0.000801858
0.000705278
0.000387688
7.75289e-06
6.96724e-09
6.1209e-09
3.88964e-09
1.15098e-07
8.99756e-07
3.91489e-08
3.52192e-08
5.23698e-08
4.5473e-07
4.47558e-07
2.88975e-06
3.77165e-05
0.000233473
0.000796594
0.000855223
0.00085025
0.000823806
0.000745717
0.000439669
1.07048e-05
7.72782e-09
4.73859e-09
2.42544e-08
2.30848e-06
1.85751e-05
1.5718e-06
6.87717e-07
9.61705e-07
4.28616e-07
1.40805e-06
1.56092e-05
0.000125467
0.000654706
0.000828363
0.000586883
0.000876497
0.000862582
0.000835378
0.000773045
0.000424212
1.45309e-05
6.18656e-09
6.31796e-09
1.02476e-06
3.33053e-05
0.000230732
4.98697e-05
1.17544e-05
8.02896e-07
5.72963e-07
5.83276e-06
5.67861e-05
0.000289057
0.000793343
0.000604533
0.00167201
0.00072653
0.00167272
0.00164892
0.00164942
0.000893388
0.000870731
0.000840604
0.000787229
0.000463915
1.87397e-05
4.18388e-09
2.06534e-07
2.15557e-05
0.000380001
0.00279543
0.000315913
0.000281553
4.2001e-06
2.00031e-06
2.33802e-05
0.000127196
0.000720733
0.000633331
0.00130429
0.00176857
0.00148514
0.000898827
0.00176947
0.00192721
0.00192894
0.00148518
0.00146537
0.00146534
0.000900714
0.000875507
0.000843256
0.000791758
0.000447138
2.30505e-05
2.73857e-08
5.43938e-06
0.000307527
0.00290497
0.00409276
0.00278959
0.00100561
1.71176e-05
7.47442e-06
5.20777e-05
0.000266647
0.000630668
0.000909487
0.00152306
0.00152327
0.00168659
0.00168703
0.00155327
0.0013648
0.000907562
0.000776967
0.0015534
0.00167557
0.00167623
0.00136459
0.00134336
0.00134313
0.000912631
0.000886905
0.000848582
0.000793244
0.000418503
2.88453e-05
1.09742e-06
8.68438e-05
0.00261256
0.00337359
0.00390071
0.00474978
0.000820972
4.37092e-05
1.80273e-05
0.000100803
0.000520707
0.000549514
0.00180941
0.00180978
0.00183944
0.00184009
0.00142682
0.00142719
0.00158118
0.00158141
0.001405
0.00124985
0.0012216
0.00124404
0.00125684
0.000927762
0.000839667
0.00152096
0.00152109
0.00159196
0.0015918
0.00140494
0.0015241
0.00152449
0.00124943
0.00122547
0.00124385
0.00125191
0.00123922
0.00122263
0.00124132
0.00125295
0.00123898
0.00122681
0.00124123
0.00124904
0.000932201
0.000901236
0.000853027
0.000783884
0.000452228
3.6347e-05
2.29808e-05
0.00143152
0.00308411
0.00308799
0.00322681
0.00452541
0.00104898
0.000311156
2.78249e-05
0.000313032
0.000386205
0.00180765
0.00180812
0.00180996
0.0018108
0.00164537
0.00164564
0.00165631
0.00165681
0.00129682
0.00116427
0.00130905
0.00134757
0.0013426
0.00114204
0.00116929
0.00129781
0.00130898
0.00134727
0.00134259
0.00114211
0.00144753
0.00145254
0.00143663
0.00144682
0.00144776
0.00145255
0.00143658
0.00144683
0.00129422
0.00125027
0.00127271
0.00129933
0.00113462
0.00116127
0.0011278
0.00118178
0.000950427
0.000890412
0.00116515
0.00116538
0.00130003
0.00130028
0.00135734
0.00135778
0.00142583
0.00142605
0.00129402
0.00125323
0.00127255
0.0012953
0.00136135
0.00133096
0.00137524
0.00135202
0.00136131
0.00134007
0.0013754
0.00135136
0.00113421
0.0011648
0.00112762
0.00117786
0.00112871
0.00117877
0.00112856
0.00117491
0.000951012
0.000909194
0.000847089
0.000760579
0.000490649
4.74556e-05
0.000554515
0.00285371
0.00278354
0.00249326
0.00272889
0.00382183
0.00270794
0.000485856
9.23664e-05
0.000308878
0.00172613
0.00172681
0.00172277
0.00172341
0.00162749
0.00162791
0.00161634
0.00161687
0.00147203
0.00148681
0.00147875
0.00148801
0.0014735
0.00148687
0.00148355
0.00148801
0.00146124
0.00148672
0.00147096
0.00148883
0.00146562
0.00148685
0.00147673
0.00148906
0.00112487
0.00128952
0.00128375
0.00108388
0.00132646
0.00129903
0.00113041
0.00129013
0.00108385
0.00128358
0.00132616
0.00129891
0.00139915
0.0013718
0.00137976
0.00136571
0.00139932
0.00137168
0.0013794
0.00136565
0.00117392
0.00118441
0.0011501
0.00121877
0.00108634
0.00114346
0.00107975
0.00116578
0.000973326
0.000936881
0.000877797
0.000876987
0.000951439
0.000951121
0.000977513
0.000978017
0.00111359
0.00111408
0.00122244
0.00122535
0.0012539
0.00125208
0.00122296
0.00122541
0.0012539
0.0012521
0.00128326
0.00122365
0.0012954
0.00128789
0.0013072
0.00124397
0.00128593
0.00123213
0.00129521
0.00128746
0.00130707
0.00124409
0.00117367
0.00118729
0.00115
0.00121567
0.00121605
0.00125008
0.00121595
0.00124911
0.00108618
0.001147
0.00107971
0.00116173
0.00107832
0.00115638
0.00107826
0.00115336
0.00096266
0.000908281
0.00082588
0.000729838
0.000480955
6.16824e-05
0.00245795
0.00268413
0.00226278
0.00216484
0.00245905
0.00298558
0.00323541
0.00109563
0.000702045
0.00151947
0.0015201
0.00150624
0.00150708
0.00152938
0.00152952
0.00151472
0.00151496
0.0014413
0.00146565
0.00144157
0.00146311
0.00144503
0.00146586
0.00144502
0.00146305
0.00144523
0.00146075
0.00144241
0.00145632
0.00145059
0.00146095
0.00144682
0.00145648
0.00140417
0.00138897
0.00140112
0.00138003
0.00140582
0.00138889
0.00140586
0.00137999
0.00136307
0.00133531
0.00138081
0.00135798
0.00136756
0.00133524
0.00138573
0.00135817
0.00111973
0.00115819
0.00109773
0.00119117
0.000988272
0.000993238
0.000923594
0.000921944
0.000808569
0.00080713
0.000667129
0.000666622
0.000729078
0.000729152
0.000774227
0.000832253
0.000887067
0.000885039
0.000778817
0.000831919
0.000893791
0.000885073
0.00107158
0.00103957
0.00099726
0.000998803
0.0010734
0.00103973
0.00100251
0.000998763
0.00118773
0.00115356
0.00121408
0.00118833
0.00118849
0.00115339
0.00121394
0.00118817
0.00119189
0.00125994
0.00125921
0.00115683
0.00125766
0.00124848
0.00119965
0.00126186
0.00125896
0.00115692
0.00125692
0.00124822
0.00111963
0.00116111
0.00109773
0.00118767
0.00114873
0.00121129
0.00114869
0.00121059
0.000970639
0.000890226
0.000781681
0.000709659
0.000414625
7.81362e-05
0.00256375
0.00229013
0.00187045
0.00204076
0.0021738
0.00251042
0.00400149
0.00274314
0.000569309
0.00138856
0.00138883
0.00139802
0.00139854
0.00142265
0.00142296
0.001413
0.00141319
0.00134741
0.00131981
0.00134271
0.0013118
0.0013521
0.00131994
0.00134697
0.00131178
0.00134036
0.00132451
0.00133972
0.00130624
0.00134568
0.00132462
0.00134419
0.00130634
0.00133779
0.00129658
0.00134222
0.00129646
0.00102209
0.000973683
0.00115191
0.00115082
0.00100165
0.00100028
0.000651455
0.000650038
0.000590764
0.000589039
0.000471642
0.000547029
0.000512083
0.000583787
0.000486288
0.000545564
0.000526568
0.000582571
0.000611587
0.000658005
0.000580647
0.000637081
0.000619733
0.0006576
0.000591436
0.000636276
0.000765139
0.000742748
0.000835713
0.000814445
0.000770322
0.000742352
0.000841273
0.00081444
0.00103048
0.00099445
0.000947366
0.000928824
0.00103186
0.000994352
0.000952418
0.000928722
0.000956545
0.000840005
0.000733964
0.000714684
0.000371765
0.000100528
0.00240787
0.00199143
0.00177411
0.0018569
0.00210476
0.00235184
0.00546966
0.00262351
0.00145657
0.00145679
0.0015702
0.00157088
0.00129179
0.00129199
0.00129908
0.00129928
0.00131608
0.00133639
0.00131826
0.00133464
0.00131617
0.0013372
0.00131855
0.00133362
0.00130375
0.00129339
0.00128626
0.0013212
0.00130368
0.00129519
0.00128615
0.00132011
0.00131091
0.00126366
0.00130217
0.00124051
0.00131539
0.00126369
0.00130569
0.00124045
0.00128886
0.00123186
0.001288
0.00122275
0.00129323
0.00123184
0.00129145
0.0012228
0.00102242
0.00105268
0.000928743
0.00089381
0.000890414
0.000741616
0.000739767
0.000386124
0.000385659
0.000396035
0.000394507
0.000401724
0.000477799
0.000492227
0.000505427
0.000410549
0.000477484
0.000502866
0.000505096
0.000607891
0.000593093
0.000553963
0.000555783
0.000615238
0.000592741
0.000563364
0.00055528
0.000738196
0.000710064
0.000743092
0.000709616
0.000909375
0.000767785
0.000716205
0.000724748
0.000329126
9.88846e-05
0.00225473
0.00187681
0.00179406
0.00180851
0.0021159
0.00244639
0.00275214
0.00129146
0.00135867
0.00135893
0.00142106
0.0014212
0.00122661
0.00120628
0.00122247
0.00124566
0.0012301
0.0012065
0.00122261
0.00124529
0.00127094
0.00127109
0.0012262
0.0013023
0.00125367
0.00128671
0.00122619
0.00130231
0.00125373
0.00128503
0.00119638
0.00122781
0.00117039
0.00126605
0.00119624
0.00123115
0.00117041
0.00126499
0.00128131
0.00121803
0.00128444
0.00121786
0.000984795
0.00108469
0.00106534
0.000972959
0.000972699
0.000779655
0.000779909
0.000581231
0.000579081
0.000434522
0.000434191
0.0004093
0.000210784
0.000446415
0.000211786
0.000410688
0.000209374
0.000440614
0.000208074
0.000396747
0.000335123
0.000390037
0.00027053
0.000397844
0.00033653
0.000389299
0.000264863
0.000424366
0.000430645
0.000490037
0.000468321
0.000431362
0.000430464
0.000497148
0.000468201
0.000599338
0.000572407
0.000557466
0.000524523
0.000606158
0.000572172
0.000564108
0.000524213
0.000828824
0.00072782
0.000714628
0.000564206
0.000171802
0.00199998
0.0018682
0.00183492
0.00174014
0.00220793
0.00155488
0.000657084
0.000977528
0.000977609
0.00057023
0.000570105
0.00125238
0.00123974
0.00127164
0.00125979
0.00125455
0.00123993
0.00127284
0.00125969
0.00126929
0.00126951
0.0011831
0.00112225
0.00115846
0.0012049
0.00118596
0.00112239
0.00115837
0.00120435
0.00123067
0.0011985
0.001232
0.00118943
0.00123077
0.00119833
0.00123077
0.00118926
0.0011613
0.00119911
0.0011199
0.00124216
0.00116109
0.00120226
0.00111989
0.00124221
0.000905989
0.00105618
0.00114604
0.00106592
0.000841714
0.000840833
0.000643343
0.000643124
0.00043884
0.000439417
0.000259741
0.000453995
0.000476685
0.000314314
0.00025574
0.000450008
0.000476579
0.000310937
0.000338392
0.00019539
0.000320051
0.000236583
0.000338533
0.000190798
0.000317503
0.000232144
0.000356846
0.000334539
0.000371207
0.000287385
0.000357206
0.000336093
0.000370781
0.000284404
0.000415822
0.000415206
0.000422805
0.00041512
0.000766834
0.000712146
0.000755662
0.000235512
0.00165438
0.00193689
0.00176641
0.00158127
0.00186627
0.000983121
0.000428828
0.000429246
0.000539633
0.000539545
0.000776492
0.000774581
0.000418227
0.000418033
0.00119461
0.00114416
0.00121912
0.00118558
0.00119698
0.00114434
0.00122026
0.00118559
0.00115747
0.00111512
0.00109814
0.00119054
0.00115742
0.00111535
0.00109787
0.00119067
0.00116563
0.00107735
0.0011051
0.00118478
0.00116675
0.00107742
0.001105
0.00118352
0.00119037
0.00112013
0.00120377
0.00112782
0.00119192
0.00111999
0.00120332
0.00112767
0.00082548
0.000983779
0.0011224
0.0012119
0.00114004
0.00113822
0.00100625
0.00100501
0.000769732
0.000767741
0.000476544
0.000548023
0.000604633
0.000662719
0.000469214
0.000544926
0.000599074
0.000660787
0.000395585
0.000484138
0.000315494
0.000411953
0.000267574
0.000431281
0.000390195
0.000481803
0.000314423
0.000412183
0.000263873
0.000430538
0.00020702
0.000311389
0.000203323
0.00031018
0.000313277
0.000271624
0.000290856
0.000254186
0.000313067
0.00026396
0.000290014
0.000247993
0.000731437
0.000739131
0.000266851
0.00153891
0.00188906
0.00161708
0.0013765
0.00147826
0.000894193
0.000438572
0.000440509
0.000657609
0.000657802
0.000614896
0.00103837
0.000694858
0.000472635
0.00059576
0.000984174
0.00103854
0.000623037
0.000983748
0.000693616
0.000482952
0.000593136
0.000423748
0.000514572
0.000363756
0.000438471
0.000432431
0.00051523
0.00037563
0.000437993
0.00117782
0.0010996
0.00119306
0.00111974
0.00117909
0.00109965
0.00119377
0.0011197
0.0010711
0.0011508
0.00107097
0.00115123
0.00109613
0.00118491
0.00109602
0.00118382
0.00118037
0.00109815
0.00118174
0.00109799
0.000763923
0.000891189
0.0010549
0.00118975
0.00129941
0.00129848
0.00128276
0.00128172
0.00112193
0.00111904
0.000994125
0.000992992
0.000719147
0.000807137
0.000810965
0.000716512
0.000626838
0.000632675
0.000718769
0.000801498
0.000809076
0.000714747
0.000626572
0.000630192
0.000520087
0.000536154
0.000516527
0.000535584
0.000448801
0.000479693
0.000381258
0.000290855
0.00042523
0.000337228
0.000445494
0.000479187
0.000380498
0.000286216
0.000424887
0.000336543
0.000297687
0.000305958
0.000291318
0.000305324
0.000730474
0.000280305
0.00150521
0.00180277
0.00149027
0.00119969
0.00109892
0.00113545
0.00113545
0.00111999
0.00112041
0.000667323
0.000667861
0.000967729
0.000967872
0.000932887
0.000511976
0.000621503
0.000888084
0.000355676
0.00047242
0.000934312
0.00052038
0.000887433
0.000620101
0.000360983
0.000471433
0.000407694
0.00050203
0.000326732
0.000396886
0.000410407
0.000502455
0.000329129
0.000397067
0.00117975
0.00109176
0.00118038
0.00109165
0.000728537
0.000803649
0.000957492
0.00112156
0.00126532
0.00131885
0.00131727
0.0012583
0.00125717
0.0011946
0.00110908
0.00114184
0.00105659
0.00118731
0.00110726
0.00113756
0.00105566
0.000981001
0.000881751
0.000931547
0.00107012
0.000995771
0.000837211
0.000981553
0.000876831
0.000931368
0.00106814
0.000995053
0.000836294
0.000781221
0.000658692
0.000785801
0.000656023
0.000780652
0.000658181
0.000781491
0.000653108
0.000561015
0.00059212
0.00055841
0.000591555
0.000495946
0.000537754
0.000371963
0.000390841
0.000494951
0.000537202
0.000369269
0.000390366
0.000291119
0.000744678
0.00184574
0.00130886
0.000810484
0.000473589
0.000889416
0.000890533
0.000727943
0.000729909
0.000716943
0.000570356
0.000595887
0.000702406
0.000716058
0.000554887
0.000595534
0.000693894
0.000842648
0.00084287
0.000454029
0.000471994
0.000400192
0.000407112
0.000436903
0.000472024
0.000379188
0.000407847
0.0002894
0.000733244
0.00084767
0.00102287
0.00118624
0.00132087
0.00132014
0.00139948
0.00139756
0.00130417
0.00130224
0.00123918
0.00123814
0.00125972
0.00114149
0.00120612
0.00110525
0.00125506
0.00114065
0.00120345
0.0011048
0.000931072
0.00103327
0.000898234
0.000975687
0.00112065
0.00104136
0.000927548
0.00103656
0.0009757
0.000897708
0.001123
0.00104127
0.000729215
0.000713815
0.000728642
0.000710134
0.000586746
0.00167251
0.000972171
0.00052271
0.000371706
0.000370635
0.000412286
0.000412023
0.000611791
0.000610304
0.000402887
0.000403182
0.000722394
0.000568539
0.00060008
0.00070529
0.000721736
0.000559404
0.000599898
0.00069869
0.00075885
0.000709822
0.000735567
0.000712882
0.000757171
0.000709425
0.000733682
0.000712746
0.000485548
0.000519356
0.000474693
0.000519501
0.00029682
0.000748767
0.000894728
0.00108792
0.00125234
0.00132743
0.00132604
0.00138401
0.00138171
0.00133665
0.00133439
0.00122404
0.00130639
0.00120951
0.00130303
0.0012241
0.00130636
0.00120928
0.00130425
0.00128284
0.00119175
0.00125508
0.00117478
0.00127934
0.00119116
0.00125091
0.00117434
0.00108873
0.00140605
0.000653331
0.000569564
0.000453367
0.000452181
0.000524287
0.000523577
0.000695056
0.000650279
0.000466018
0.00055798
0.00054512
0.000438885
0.000694254
0.00065011
0.000467342
0.000560666
0.000545079
0.000442024
0.000405472
0.000404724
0.000663638
0.000601956
0.000607769
0.000682414
0.00066315
0.000593966
0.000607635
0.000677731
0.000723424
0.00066516
0.000723468
0.000665117
0.000301284
0.000768221
0.000943192
0.00114987
0.00133005
0.00132847
0.0013398
0.00133818
0.00128295
0.00128154
0.00135227
0.00134958
0.00140581
0.00129273
0.00141074
0.00131049
0.00139033
0.00128133
0.00139863
0.00129083
0.00140945
0.00130985
0.0013902
0.00128093
0.00136966
0.00127649
0.00137137
0.0012762
0.00134733
0.00126912
0.00134499
0.00126869
0.00142913
0.00102815
0.000696697
0.000749651
0.000752262
0.000855527
0.000855832
0.000511309
0.000509803
0.00059844
0.000598921
0.000647969
0.00060551
0.000434502
0.000499866
0.000490023
0.000418483
0.00064816
0.000605198
0.000437913
0.000504568
0.000491182
0.000425804
0.000508532
0.000489028
0.00048037
0.000481035
0.000515106
0.000491402
0.000490523
0.000481747
0.000311225
0.000794021
0.000989316
0.00120744
0.00131134
0.00130867
0.00131092
0.00130877
0.00130638
0.00130342
0.00146058
0.00133079
0.00128313
0.00145694
0.00133701
0.00136975
0.00128323
0.00145334
0.00133657
0.00136845
0.0014583
0.00133022
0.00146093
0.00142657
0.00137181
0.00135343
0.00146199
0.00142627
0.0013715
0.00135292
0.00142026
0.00135561
0.00142394
0.00135543
0.00120089
0.000661472
0.00124908
0.00115148
0.00115202
0.00119887
0.00120037
0.000555331
0.000488771
0.000693442
0.000633375
0.000620348
0.000705767
0.00056685
0.000492229
0.000693998
0.000633211
0.000623147
0.000704817
0.00082488
0.000822503
0.000461776
0.00046234
0.000463148
0.00047387
0.000525578
0.000467215
0.000540315
0.000470894
0.000331324
0.000822115
0.00102047
0.00123961
0.0012372
0.00129085
0.00128721
0.00123223
0.0012285
0.00123246
0.00122964
0.00131035
0.00120935
0.00140332
0.0012655
0.00144285
0.00131847
0.00130279
0.00143642
0.0013178
0.00120714
0.00139692
0.00126468
0.00148004
0.00136898
0.00149212
0.0013894
0.00148568
0.00147827
0.00138877
0.00136857
0.00072858
0.000769068
0.00206828
0.00168953
0.00168995
0.00176688
0.00176895
0.000608715
0.000552898
0.000684715
0.000645759
0.000585515
0.00072293
0.000612128
0.000555661
0.000684505
0.00064697
0.000586053
0.000723155
0.00107654
0.00124832
0.00081465
0.000946071
0.001072
0.00124721
0.000813784
0.000948034
0.000575126
0.00051853
0.000581232
0.000519606
0.000364326
0.000838415
0.00101801
0.00120155
0.00119798
0.00121612
0.00121082
0.00121205
0.00120671
0.00133405
0.0012032
0.00114715
0.0012653
0.00115878
0.00121845
0.00133184
0.00120239
0.00114671
0.00126137
0.00115807
0.00121628
0.001396
0.00145438
0.001265
0.00134654
0.00144502
0.00134578
0.0013942
0.00126468
0.000596343
0.00132998
0.00309002
0.00248795
0.00248986
0.00309072
0.00247449
0.00247451
0.00245173
0.001077
0.00139088
0.00245301
0.00107744
0.00139097
0.000619957
0.000550454
0.000717391
0.000627145
0.00062833
0.000671469
0.000622483
0.000551564
0.000720294
0.000631994
0.000630247
0.000676855
0.000810185
0.00104656
0.000812611
0.00104627
0.000416538
0.0008326
0.00095075
0.00110918
0.00110444
0.00113844
0.00113045
0.00119494
0.00112624
0.00127562
0.00113777
0.00126916
0.00114511
0.0011818
0.00126523
0.00114415
0.00112291
0.00126703
0.00113674
0.00130989
0.00120367
0.00126133
0.00116668
0.00130695
0.001203
0.00125853
0.00116593
0.00136775
0.00125971
0.00136799
0.00125942
0.000797031
0.00201523
0.00355059
0.00356883
0.0035519
0.00356892
0.00283559
0.00283541
0.00397194
0.00229119
0.00253504
0.00128993
0.00182242
0.00374046
0.00360421
0.0035271
0.00228938
0.0039733
0.00253488
0.00128697
0.0018217
0.00374038
0.00360926
0.00352723
0.000852241
0.000698017
0.000851131
0.000704212
0.000895857
0.00129222
0.000890394
0.00128906
0.0004884
0.000794741
0.000914561
0.00106534
0.00106011
0.000911848
0.000969093
0.000965189
0.00111224
0.00120633
0.00111179
0.00110386
0.00119285
0.00110957
0.00126766
0.00126141
0.00115348
0.00114205
0.00126503
0.00115283
0.00125225
0.00114129
0.00129306
0.00122827
0.00127099
0.00119192
0.00128893
0.00122775
0.00127241
0.00119147
0.00133629
0.00128599
0.00392761
0.00382232
0.00407741
0.00259304
0.00392773
0.00382242
0.00407797
0.00259568
0.00206402
0.00206724
0.00416629
0.00428288
0.00203961
0.00231062
0.00389264
0.00399806
0.00416629
0.00203749
0.00428319
0.00231042
0.00389215
0.00399782
0.00107276
0.000766744
0.00106867
0.000767301
0.000574326
0.000752529
0.000887922
0.000958803
0.000954118
0.000883532
0.000895358
0.000889339
0.00113061
0.00120504
0.00111068
0.00121515
0.00111463
0.00103421
0.00100864
0.0010152
0.00111906
0.00118801
0.00110821
0.00119824
0.00111186
0.00103294
0.000998603
0.00101151
0.00128527
0.00127079
0.00118349
0.00116733
0.00128262
0.00118288
0.0012555
0.00116607
0.000784841
0.000623293
0.00139944
0.00140377
0.000625295
0.000481652
0.000483794
0.00324879
0.00391825
0.00418581
0.00387046
0.00422658
0.00310773
0.00356304
0.00331424
0.00183119
0.00250849
0.00262591
0.00325051
0.00391839
0.00418531
0.00386992
0.00422659
0.00310759
0.00356288
0.00331408
0.00183443
0.00250949
0.00262615
0.00444325
0.00438251
0.00414375
0.00407365
0.00444322
0.00438253
0.00414343
0.00407354
0.000704742
0.000646802
0.000779167
0.000933268
0.000967445
0.000996345
0.000927138
0.000967215
0.000994507
0.000772104
0.000804233
0.000793721
0.00117047
0.0010672
0.00125922
0.00110008
0.00118978
0.000999921
0.00115517
0.00106192
0.00123976
0.00118866
0.00109922
0.000999388
0.00131126
0.00122175
0.00129992
0.00122066
0.000303823
0.000885431
0.000344142
0.000889919
0.000343962
0.000257141
0.000256877
0.00432804
0.00377337
0.00350905
0.00401713
0.00290948
0.00288127
0.00138828
0.00152054
0.00176921
0.00180023
0.00212528
0.00145702
0.00132057
0.00142665
0.00432743
0.00377316
0.00401652
0.00350871
0.00291024
0.00288147
0.00151959
0.00138862
0.00176949
0.00180059
0.00212579
0.0014583
0.00132318
0.00142609
0.000786685
0.000451312
0.000735158
0.000728043
0.000462494
0.00064472
0.000638519
0.000821095
0.000953443
0.000993595
0.000939757
0.000986648
0.000953753
0.000947321
0.000888343
0.00080415
0.000952685
0.000986079
0.000938157
0.000984319
0.000945647
0.000934254
0.000887169
0.000778119
0.000818041
0.000863242
0.000768416
0.000800711
0.000856983
0.00112346
0.00102272
0.00107898
0.000983503
0.00111348
0.00102211
0.00107856