/*--------------------------------*- C++ -*----------------------------------*\
| =========                 |                                                 |
| \\      /  F ield         | OpenFOAM: The Open Source CFD Toolbox           |
|  \\    /   O peration     | Version:  5.x                                   |
|   \\  /    A nd           | Web:      www.OpenFOAM.org                      |
|    \\/     M anipulation  |                                                 |
\*---------------------------------------------------------------------------*/
FoamFile
{
    version     2.0;
    format      ascii;
    class       volScalarField;
    location    "1.9";
    object      omega;
}
// * * * * * * * * * * * * * * * * * * * * * * * * * * * * * * * * * * * * * //

dimensions      [0 0 -1 0 0 0 0];

internalField   nonuniform List<scalar> 
12160
(
0.0719999
0.0719999
0.00203607
0.0719999
0.00434115
0.00116776
0.0719999
0.00756286
0.00151092
0.00112814
0.0719999
0.0106179
0.00205232
0.00133177
0.00112422
0.0719999
0.0118255
0.00262987
0.00152096
0.00134473
0.00127482
0.0719999
0.0116988
0.00287192
0.00168837
0.00148717
0.00157487
0.00132366
0.0719999
0.0111486
0.0028181
0.00175483
0.00158264
0.00164556
0.00196486
0.00255812
0.0719999
0.0107749
0.0026762
0.00174179
0.00162295
0.00166456
0.00211155
0.00417057
0.0123973
0.0719999
0.0105108
0.00258331
0.00171488
0.00162212
0.00167925
0.00206246
0.00383065
0.0119675
0.0120049
0.0719999
0.0103227
0.00252324
0.00170018
0.00163121
0.00169211
0.00196031
0.00297851
0.0113257
0.0113853
0.0220187
0.0719999
0.010155
0.00247761
0.00169158
0.00163789
0.00172194
0.00189429
0.00267702
0.00986831
0.0127339
0.0226606
0.0234811
0.0719999
0.0100182
0.00243245
0.00167897
0.00163933
0.00174804
0.00192134
0.00285316
0.00867417
0.012718
0.0277005
0.0201918
0.0151578
0.0719999
0.0099834
0.00239067
0.00165992
0.00163106
0.00176081
0.00197382
0.00329421
0.00744207
0.0127751
0.0189984
0.0126096
0.00655418
0.0125636
0.0719999
0.0102089
0.00236906
0.00163662
0.00161273
0.00175591
0.0020073
0.00371802
0.00657529
0.0125872
0.0177123
0.00733556
0.00629878
0.00549087
0.00926346
0.0719999
0.0107748
0.00240623
0.00161688
0.0015863
0.00173431
0.00201423
0.00401331
0.00653061
0.0116195
0.0177694
0.0111275
0.00385778
0.00336553
0.00187914
0.0719999
0.0116144
0.00253423
0.00161761
0.00155774
0.00170052
0.00199035
0.00418682
0.00694739
0.0103019
0.0189697
0.0119155
0.00326815
0.00292691
0.00264567
0.0719999
0.0125875
0.00274744
0.0016512
0.0015381
0.00166275
0.00193478
0.00426406
0.00729202
0.00936391
0.0194244
0.0132864
0.0033116
0.00223473
0.00176382
0.0719999
0.0136084
0.00301703
0.00171221
0.00154332
0.00163285
0.00185199
0.00426802
0.00752376
0.00899494
0.0185419
0.0148145
0.00370065
0.00209902
0.00148899
0.0719999
0.0146168
0.00332012
0.00179509
0.00157316
0.00162813
0.00175765
0.0042012
0.00767446
0.00881425
0.0173449
0.0181854
0.00443362
0.00215984
0.0014415
0.0719999
0.0155387
0.00363637
0.00189317
0.00161991
0.00164812
0.00168479
0.00406496
0.00776632
0.00867254
0.0165495
0.0209371
0.00545847
0.00227538
0.00151861
0.0719999
0.0163141
0.00393957
0.0019977
0.00167391
0.00168188
0.0016738
0.00387522
0.00778287
0.00844851
0.0158689
0.02196
0.00698305
0.00241971
0.0015954
0.0719999
0.0168993
0.00420469
0.00209944
0.00172905
0.00172368
0.00169978
0.00370594
0.00767993
0.00810272
0.0150854
0.0226309
0.00890322
0.00250065
0.00168088
0.0719999
0.0172685
0.00441078
0.00218952
0.00178047
0.00176658
0.00174162
0.00353121
0.00734298
0.00766615
0.0139977
0.023208
0.0102907
0.00268154
0.00167453
0.0719999
0.0174131
0.0045435
0.00226022
0.00182403
0.00180546
0.00178455
0.00333098
0.00682448
0.00728944
0.0125029
0.0237516
0.0113093
0.00281528
0.00168953
0.0719999
0.0173365
0.00459651
0.00230621
0.00185668
0.00183734
0.00182227
0.00311609
0.00622034
0.00707894
0.010635
0.0241273
0.0122345
0.00289181
0.00173133
0.0719999
0.0170359
0.00457015
0.00232549
0.00187695
0.00186112
0.00185178
0.00289512
0.00559313
0.00679973
0.00900782
0.0238809
0.0131254
0.00294207
0.0017882
0.0719999
0.0165242
0.00446404
0.00231857
0.00188556
0.00187769
0.00187122
0.00266606
0.00496068
0.00639274
0.0080293
0.0216654
0.0141516
0.00308956
0.00184911
0.0719999
0.015823
0.00428591
0.00228521
0.00188486
0.00188736
0.00188088
0.00242076
0.00431627
0.00588622
0.00732466
0.0177481
0.0152334
0.00344012
0.00194813
0.0719999
0.0149656
0.00404835
0.00222843
0.00187395
0.00188945
0.00188468
0.00215936
0.00366592
0.00530584
0.00666232
0.0139952
0.0151787
0.00413888
0.00213606
0.0719999
0.0140002
0.00376865
0.00215327
0.00185324
0.00188421
0.00188903
0.00193239
0.00306581
0.0046854
0.00597886
0.0108863
0.0138086
0.00537568
0.00231961
0.0719999
0.0130216
0.00346925
0.00206719
0.00182476
0.00187367
0.0018913
0.00190166
0.00263755
0.00411988
0.00530525
0.008376
0.0115368
0.00608394
0.00267673
0.0719999
0.012158
0.00318501
0.0019796
0.00179212
0.00186029
0.00189105
0.00211534
0.00268813
0.00372329
0.00472452
0.00643453
0.00877216
0.00590596
0.00297867
0.0719999
0.0114911
0.00295185
0.00190195
0.00176021
0.00184604
0.00188464
0.00236898
0.00316281
0.00376907
0.00427719
0.0050486
0.00617495
0.00498607
0.003022
0.0719999
0.0110414
0.00278463
0.00184433
0.00173593
0.00183487
0.00187593
0.00262005
0.00376359
0.00424442
0.00431633
0.00413466
0.00427805
0.00380269
0.00277126
0.0719999
0.0107817
0.00268166
0.00181105
0.00172504
0.00182973
0.00187125
0.00286509
0.00439318
0.00483752
0.00476003
0.00440658
0.00316604
0.00277101
0.00232846
0.0719999
0.0106726
0.00263128
0.00180143
0.00172954
0.00183342
0.00188917
0.00311229
0.00501196
0.00543354
0.00530535
0.00545562
0.00360715
0.00210218
0.00186385
0.0719999
0.0106792
0.00262132
0.00181187
0.001749
0.00185006
0.00195021
0.00338545
0.00561943
0.00598705
0.00586624
0.00686013
0.005181
0.00232195
0.0015364
0.0719999
0.0107653
0.00264258
0.00183854
0.00178199
0.00188328
0.00206195
0.00369986
0.00619579
0.00648295
0.00638311
0.00871945
0.00726803
0.00317603
0.00163692
0.0719999
0.0108901
0.00268706
0.00187869
0.00182699
0.00193489
0.00222075
0.00404508
0.00670162
0.00690799
0.00687925
0.011016
0.00983337
0.00414211
0.00204686
0.0110446
0.0719999
0.00274589
0.00193019
0.0018831
0.00200478
0.00241642
0.00440453
0.0071062
0.00731851
0.00774447
0.0138124
0.0122476
0.00507221
0.00246073
0.00281473
0.0112116
0.0719999
0.00199156
0.00195026
0.00209213
0.00263653
0.00476191
0.00741865
0.007858
0.0094501
0.0168604
0.0141006
0.00555962
0.00280075
0.00206071
0.00288999
0.0120108
0.0719999
0.00202865
0.00219621
0.00287048
0.00510162
0.00767609
0.00855013
0.0115207
0.0191774
0.0147311
0.00528431
0.00294637
0.00211399
0.002125
0.00319089
0.0133809
0.0719999
0.00231578
0.00311228
0.00541223
0.00791763
0.00931532
0.0132598
0.0202143
0.0142012
0.00465411
0.00291931
0.00243665
0.00218623
0.00231659
0.00372735
0.0179551
0.0719999
0.00335687
0.00568911
0.00818716
0.0100769
0.0145785
0.020308
0.0132605
0.00417724
0.00284829
0.00357931
0.00251726
0.0023553
0.00257489
0.00528793
0.0282848
0.0719999
0.00592734
0.00848321
0.010803
0.0155412
0.0199123
0.0122827
0.00378673
0.00265505
0.0061203
0.00370767
0.00267847
0.0024661
0.00329071
0.00955164
0.0527181
0.0719999
0.00875698
0.0114602
0.0162802
0.0193016
0.011335
0.00343658
0.00240186
0.0090042
0.00615835
0.00385178
0.00270685
0.00270947
0.00562247
0.0174006
0.0690644
0.0719999
0.0119186
0.0168715
0.0186154
0.0104233
0.00313325
0.00215144
0.0123433
0.00936662
0.00605562
0.00379645
0.00278795
0.00375661
0.00965786
0.0269462
0.0720711
0.0719999
0.0173558
0.0179483
0.00950994
0.00287911
0.00194496
0.0176079
0.013073
0.00968807
0.00573307
0.00363297
0.00326044
0.00694281
0.0167904
0.0335441
0.0851983
0.0719999
0.0173024
0.00860773
0.00266953
0.00179256
0.01612
0.0179521
0.0132215
0.00957508
0.00535856
0.00364662
0.00569374
0.0140978
0.0276145
0.0496717
0.120748
1.75427
0.00768206
0.00249723
0.00168148
0.00642095
0.0138729
0.019352
0.0126174
0.00932815
0.0049917
0.0049351
0.0126997
0.0288432
0.0506481
0.0804353
1.14231
2.72861
1.52654
0.00240131
0.00160317
0.00226665
0.00492934
0.01266
0.0203261
0.0119719
0.00896084
0.00539206
0.00990702
0.0298865
0.0566524
0.0774675
0.588099
2.13334
4.10964
3.05503
2.02362
0.00155567
0.00151758
0.00208039
0.004958
0.011915
0.0206342
0.0112639
0.00883457
0.00707885
0.0232327
0.0593294
0.0884404
0.289356
1.39231
3.05307
7.20467
5.49389
3.79881
2.54746
0.0014464
0.00224064
0.00483722
0.0111905
0.0207539
0.0106296
0.00931975
0.0122763
0.0469286
0.0953853
0.17922
0.835488
2.16482
5.12003
11.5461
10.0322
7.233
4.823
3.0822
0.00154573
0.00238668
0.00476742
0.0106643
0.0304176
0.0144952
0.0143592
0.0267462
0.0790686
0.143566
0.485034
1.47005
3.63537
7.92758
16.7185
16.1097
13.1861
9.16112
6.04582
3.6305
0.00165651
0.00256354
0.00484543
0.0204168
0.211572
0.128968
0.0859422
0.0661995
0.117056
0.278033
0.952245
2.45627
5.55838
11.1866
45.6959
22.9144
20.7643
16.1566
10.9602
7.25271
4.19416
0.00176488
0.00279819
0.0112142
0.24142
1.79286
0.926621
0.507156
0.150505
0.161831
0.614217
1.54801
3.81581
7.32527
26.3683
339.294
44.6095
339.477
333.26
333.405
28.968
24.6586
18.5223
12.3929
8.25095
4.66473
0.00191409
0.00499119
0.158184
2.22033
7.97052
3.61325
2.5209
0.36671
0.333128
0.932202
2.41906
4.86613
14.2938
119.648
332.806
442.839
37.5165
332.985
269.156
269.375
443.003
438.867
439.015
33.8904
27.492
20.2716
13.4419
8.9828
5.07629
0.00234121
0.0682174
1.54596
9.28539
20.0157
14.8229
5.9642
0.686201
0.517501
1.35936
3.08372
8.01563
56.502
364.047
363.978
366.211
366.243
427.083
480.846
44.7058
68.2377
427.287
339.616
339.87
480.782
474.644
474.565
38.1461
30.0005
21.8539
14.2281
9.55651
5.52915
0.015584
0.811241
7.11252
19.2897
28.8007
29.6763
10.0322
1.14652
0.628738
1.73261
4.71008
42.3924
348.508
348.512
346.761
346.875
471.693
471.792
486.387
486.334
472.473
464.485
743.116
459.063
757.414
52.5924
65.835
325.088
325.091
344.334
344.308
472.428
442.765
442.75
463.784
745.067
459.514
755.689
461.244
726.083
452.441
752.689
460.534
728.066
452.883
750.979
42.4131
32.5481
23.1274
14.5747
10.1709
6.06
0.251572
4.37143
16.595
25.5983
31.4244
36.0183
12.9087
2.95842
0.819468
2.75762
38.5017
333.827
333.895
330.409
330.571
489.73
489.595
490.33
490.144
746.684
806.624
461.919
756.583
467.939
465.255
809.008
747.657
462.222
756.811
468.01
466.26
804.236
492.276
793.215
487.693
804.46
492.321
793.339
487.693
467.909
749.484
460.763
768.509
478.307
824.468
472.68
835.382
60.8456
80.1544
288.985
289.033
299.407
299.386
415.121
415.057
448.951
448.994
467.284
750.969
461.073
766.954
458.641
717.808
445.499
759.254
458.592
721.289
446.518
759.114
477.512
826.838
473.676
834.023
474.596
828.847
473.625
826.879
46.7244
34.2736
23.5908
14.6566
11.135
6.71703
1.91764
12.0913
22.7335
26.3343
31.3056
37.3432
18.3313
4.34481
1.22072
33.3089
317.395
317.514
315.672
315.806
476.075
475.883
471.007
470.835
817.97
498.804
824.09
501.283
818.663
499.007
826.677
502.099
813.711
497.13
823.366
500.96
815.874
497.806
825.852
501.794
827.863
795.649
469.107
471.344
831.567
482.294
831.043
796.512
472.754
469.405
831.766
482.378
892.132
512.289
874.061
504.631
892.611
512.435
874.063
504.631
487.52
835.425
478.153
853.198
487.144
847.333
480.354
861.563
68.6549
100.636
281.846
281.857
275.107
275.091
320.922
320.822
354.857
354.765
677.869
414.707
690.33
422.171
678.259
414.809
690.634
422.235
734.749
803.501
449.99
717.262
443.514
466.037
736.603
807.268
450.562
717.558
443.576
467.673
486.812
837.223
478.87
852.001
486.042
852.836
485.963
852.568
486.034
849.457
481.404
859.062
482.666
853.335
481.752
851.454
48.6285
34.8581
23.322
14.9188
12.6836
7.35453
6.84017
18.7571
23.1587
25.28
30.4055
35.481
20.5657
6.97725
5.94729
280.436
280.55
258.769
258.923
440.839
440.752
434.008
434.084
797.014
486.6
796.866
486.368
798.47
487.079
799.029
486.996
779.077
480.423
796.789
484.732
781.504
481.143
798.803
485.386
904.13
519.63
913.801
523.626
905.243
520.101
916.442
524.824
920.47
525.504
921.128
526.959
923.258
526.74
923.4
528.135
495.924
855.165
484.835
876.031
69.0544
119.723
331.455
331.404
297.567
297.546
250.801
250.697
260.658
260.568
461.517
289.547
516.28
314.39
463.445
289.973
518.93
315.188
603.341
364.588
571.47
348.757
604.077
364.849
573.947
349.497
754.452
431.973
765.599
440.116
755.364
432.259
765.92
440.238
850.828
775.538
455.519
482.25
784.165
454.793
855.064
777.111
456.124
484.276
784.327
454.867
494.974
856.911
485.645
873.821
498.114
879.945
497.967
879.632
48.9894
34.2751
22.4454
15.9358
14.556
7.81505
13.2077
20.4032
20.7109
23.2922
28.154
33.0629
23.0625
12.4613
48.1064
397.926
398.022
371.721
371.915
500.556
500.53
488.772
488.767
906.563
517.469
907.597
517.958
908.884
518.551
910.051
519.081
873.511
505.626
904.554
515.913
876.223
506.794
906.918
517.041
935.461
530.825
938.67
532.198
68.9602
102.153
308.649
308.824
327.183
327.22
249.538
249.496
232.125
231.955
299.713
200.439
336.135
216.156
303.466
200.613
340.736
216.852
383.976
241.333
367.21
232.673
386.815
242
371.163
233.475
528.06
300.523
565.824
324.449
530.994
301.669
568.468
325.687
666.231
382.111
626.436
360.005
667.207
382.518
629.167
361.168
47.6171
32.0104
22.0075
17.7325
15.878
7.71525
16.3628
19.1451
17.9295
20.3052
27.5905
31.578
27.9975
21.3013
284.178
284.275
255.266
255.38
445.705
445.508
412.298
412.519
485.389
792.668
487.623
789.589
485.187
792.468
487.628
789.089
477.159
759.437
468.267
777.681
477.043
761.073
468.701
777.369
931.667
528.231
939.363
531.301
934.287
529.522
941.578
532.501
916.51
520.319
936.897
530.155
919.281
521.628
938.846
531.286
66.2909
99.3943
167.978
265.207
265.409
263.016
263.033
177.854
177.631
168.655
168.467
301.126
186.373
354.674
205.508
304.047
187.169
359.439
207.329
428.804
244.866
394.828
226.985
432.274
246.39
399.258
228.79
522.326
296.499
525.484
297.827
43.536
29.4444
22.9128
18.8497
15.5757
7.66415
15.8697
15.3248
15.4863
19.0284
28.6283
32.7637
40.0386
55.8072
397.238
397.027
338.97
338.864
718.974
440.281
436.452
697.898
720.434
440.668
436.228
697.501
454.175
454.089
502.715
866.164
499.793
878.376
502.35
866.332
499.836
877.345
498.603
848.728
484.6
875.746
498.49
850.639
485.407
875.376
915.286
519.201
918.031
520.335
58.927
96.2651
149.273
359.809
359.778
326.718
326.594
247.667
247.423
204.385
203.87
149.682
198.109
158.242
196.052
149.946
197.659
156.5
194.967
150.088
247.729
157.57
214.148
150.222
248.03
157.452
212.456
322.349
184.621
363.01
205.31
325.872
186.167
366.803
207.321
436.55
247.885
408.321
229.697
440.375
249.772
412.062
231.686
38.6844
28.8498
23.2119
18.5099
12.4021
9.5745
11.5858
14.1888
18.3378
29.9034
35.669
67.5239
222.461
222.526
144.369
144.468
688.44
415.795
647.755
403.308
689.156
416.017
649.218
403.601
392.701
392.664
813.501
463.916
454.02
776.902
814.939
464.545
453.982
777.091
721.916
440.59
735.021
447.523
722.875
440.78
734.883
447.424
501.014
869.499
491.539
886.191
501.219
871.703
492.46
886.979
50.9037
81.2034
150.204
244.466
361.041
360.708
319.212
318.398
225.763
225.706
226.53
169.141
197.067
273.826
224.186
167.327
196.527
272.102
122.433
164.581
111.569
195.909
121.902
162.382
110.468
193.506
137.823
257.828
152.265
229.202
137.647
258.638
152.373
227.988
317.346
180.857
321.371
182.537
36.0373
28.2323
21.8569
15.5362
5.24544
10.47
12.5599
17.3108
26.0738
36.5596
139.652
139.595
111.212
111.175
264.73
264.326
160.066
159.75
788.428
447.99
725.319
425
789.377
448.457
726.11
425.313
400.211
576.231
359.301
664.365
400.262
576.91
359.307
664.614
849.83
479.296
471.638
831.868
850.332
479.658
471.427
831.347
816.306
463.939
817.486
466.022
817.645
464.46
817.426
466.011
45.3145
67.706
115.843
260.791
512.191
511.982
462.721
462.533
400.274
399.875
378.64
237.535
471.357
295.531
374.634
235.059
469.421
294.126
317.514
202.06
256.689
164.795
233.02
171.463
315.567
200.559
257.008
164.894
231.369
170.824
174.873
118.687
173.287
118.009
118.013
210.64
118.481
203.021
117.225
207.161
117.289
199.947
34.1528
25.4419
17.8616
4.4484
8.63872
11.1039
17.0786
24.57
38.7156
135.457
135.276
121.587
121.296
410.351
614.509
251.036
333.515
209.517
358.881
614.871
413.781
358.892
251.599
338.077
209.917
250.515
167.625
266.302
162.153
253.579
168.4
270.957
163.134
827.193
465.329
793.72
448.206
827.862
465.732
794.23
448.462
412.479
729.433
412.595
729.712
475.752
843.373
475.562
842.97
835.41
470.913
836.84
471.479
41.2416
57.5733
91.4655
175.681
534.041
534.19
548.109
548.013
570.496
569.589
521.677
521.49
323.259
613.044
369.857
546.895
285.675
485.077
322.944
611.639
368.624
546.511
285.212
484.244
405.129
238.202
403.784
237.43
349.143
205.603
296.94
233.655
175.655
138.937
348.309
205.112
296.941
232.023
175.525
138.243
229.716
129.07
227.032
128.042
29.5316
19.647
3.66672
6.53725
11.5068
20.5744
25.7722
246.932
246.911
190.843
190.96
214.298
214.231
273.128
273.193
586.559
365.123
224.332
333.391
279.308
173.632
587.755
368.107
333.632
224.636
281.502
173.81
245.802
163.948
246.659
149.561
246.982
164.291
247.676
149.723
796.894
446.896
797.414
447.15
34.119
49.9164
74.1365
127.506
295.396
567.482
567.542
580.993
580.629
901.07
527.815
872.904
505.059
899.099
526.2
871.582
504.086
745.406
664.052
431.728
815.204
470.769
385.404
746.666
662.235
432.401
815.953
470.842
384.625
340.129
291.504
585.295
501.811
339.409
290.955
583.533
500.848
428.055
250.613
427.421
250.205
376.577
220.719
286.927
164.11
376.934
220.652
286.076
163.686
21.0369
2.38691
6.7181
13.4525
25.0821
52.4141
256.606
256.617
167.695
167.64
234.861
349.214
209.371
364.212
234.18
344.034
207.847
362.277
277.193
277.172
312.909
181.18
289.604
165.972
305.449
178.559
279.347
162.686
22.1587
39.538
60.7707
97.5505
188.477
546.561
546.764
603.446
603.343
605.122
605.163
651.009
650.673
955.261
545.999
923.267
524.319
953.805
545.137
922.386
523.717
694.081
782.664
401.534
446.477
852.637
484.377
693.153
784.885
447.61
401.282
854.514
485.253
306.766
525.753
306.244
524.683
2.38217
7.89136
16.0841
38.7083
135.017
134.641
116.613
116.337
219.835
219.479
155.688
155.497
242.681
365.959
215.558
387.627
241.947
362.311
214.27
385.697
385.471
246.403
417.209
254.31
385.92
246.429
416.712
254.195
333.186
194.677
328.443
192.902
23.0678
45.7878
75.0592
133.473
305.451
574.883
574.984
643.084
642.589
696.595
696.066
569.165
983.666
565.182
971.847
569.512
983.864
565.369
972.826
970.792
552.699
940.41
534.351
970.01
552.214
938.836
533.503
3.20018
9.72616
25.5322
88.7779
159.143
158.661
140.825
140.167
389.608
240.506
179.705
327.506
209.798
252.189
389.456
240.591
180.516
329.311
210.556
254.207
166.53
166.267
246.641
394.047
227.794
426.295
245.998
390.466
226.682
424.504
439.657
253.574
439.809
253.616
23.8813
53.6531
94.5834
193.255
552.473
552.587
582.149
582.107
598.115
598.461
706.399
705.57
1035.46
603.344
1042.79
599.048
1023.92
586.317
1034.91
602.152
1043.65
599.334
1024.33
586.542
1013.21
575.847
1014.97
576.568
987.501
562.439
987.311
562.212
4.52333
13.5869
55.5919
263.512
263.89
287.569
287.562
199.7
199.401
216.536
216.506
394.897
235.575
171.727
316.052
195.851
253.685
395.555
235.969
173.36
318.579
197.033
256.974
285.102
193.659
317.343
203.392
287.691
194.255
321.947
203.618
24.6505
63.5143
122.41
302.334
571.741
571.623
615.62
615.047
686.329
685.468
1075.78
615.221
595.59
1072.65
614.679
1015.15
594.64
1070.74
613.474
1014.28
1075.9
615.057
1056.9
1021.74
605.461
586.424
1058.32
1023.2
606.223
586.876
1004.38
576.751
1007.32
577.734
6.78198
23.7859
149.084
424.719
424.522
409.358
409.534
307.531
196.101
268.405
396.086
254.103
389.454
310.727
197.124
268.011
394.491
254.097
387.961
318.832
318.252
199.823
323.91
200.627
329.151
342.841
204.064
347.884
205.277
25.4533
75.8814
161.37
508.376
508.361
557.233
557.034
581.394
581.103
654.792
653.896
965.334
565.826
1039.78
593.894
1064.56
609.251
963.428
1060.95
607.229
564.083
1037.03
592.413
1085.27
617.552
1076.38
613.782
1073.36
1085.32
612.239
617.32
9.19517
57.2111
421.324
691.446
691.153
677.282
677.471
414.091
245.135
270.853
431.942
256.071
412.375
414.491
245.086
270.515
432.139
255.829
412.258
702.214
489.071
583.853
384.004
701.943
488.382
582.959
384.338
398.756
234.969
400.623
234.656
26.363
90.8485
212.029
508.503
508.222
560.686
559.694
641.092
639.584
986.901
564.302
534.925
942.829
542.855
903.367
987.089
564.034
533.974
941.001
542.157
902.027
1029.64
1071.51
582.043
609.927
1067.36
607.727
1029
581.691
19.8767
153.38
1392.88
1078.49
1078.51
1393.05
1006.8
1006.9
1173.37
788.782
552.659
1173.5
789.654
552.705
435.236
252.913
313.295
486.785
286.443
519.345
436.186
252.817
315.218
488.943
287.838
522.417
668.464
437.466
670.069
438.41
27.283
107.663
248.843
489.496
488.92
569.022
566.804
872.952
518.568
937.147
536.466
942.141
540.31
866.085
940.201
539.184
513.654
933.093
533.927
970.907
551.486
941.498
535.929
970.921
551.35
941.371
535.923
995.679
563.973
996.682
564.126
50.8961
385.72
1806.41
1618.71
1806.82
1618.45
1174.84
1174.83
2961.6
1724.73
1038.68
1108.22
751.324
1690.31
2833.19
1663.7
1724.4
2962.59
1037.77
1107.54
750.044
1690.39
2839
1664.2
374.921
594.293
376.288
597.912
789.696
533.85
786.445
531.967
28.0457
124.972
378.307
490.002
489.064
378.274
427.543
427.252
579.063
882.713
513.204
576.842
875.719
508.711
941.841
924.644
534.625
525.203
941.88
534.346
920.289
522.641
937.004
536.201
935.403
532.031
936.279
535.971
937.871
533.091
113.725
227.479
1976.85
1789.18
3126.33
1289.58
1976.87
1789.12
3126.66
1289.95
878.95
879.359
2861.58
3120.81
1302.75
811.619
1617.04
1769.23
2863.05
1302.49
3121.43
811.161
1617.39
1769.45
451.984
686.232
451.061
686.02
28.6455
153.748
377.04
482.303
481.234
376.659
415.91
414.828
805.187
853.99
491.104
875.254
505.507
464.525
727.415
444.288
799.811
846.528
487.086
867.112
500.641
462.02
722.932
441.009
927.547
905.452
525.808
514.188
927.118
525.383
898.904
510.984
64.9302
181.733
538.53
538.72
181.924
140.077
140.138
2530.41
1807.3
3063.92
1741.35
3173.82
1475.96
2689.15
1532.29
821.436
2033.45
1214.83
2534.55
1807.17
3064.86
1741.66
3173.74
1475.83
2689.64
1532.21
821.983
2035.24
1214.48
2966.33
3117.46
1686.3
1767.58
2967.75
3117.3
1686.56
1767.64
29.1311
164.163
348.345
492.852
431.142
726.783
491.334
430.424
725.994
347.287
409.66
406.437
825.497
771.832
868.418
472.357
499.207
443.428
819.561
769.51
861.454
496.533
469.975
442.357
895.249
513.238
891.606
511.71
35.3826
332.249
119.102
332.906
119.038
85.7249
85.5702
2959.97
2690.57
1523.1
1684.16
2223.36
1275.46
893.964
1280.42
815.382
1543.6
976.99
600.602
827.893
577.544
2961.37
2691.05
1684.5
1523.21
2223.67
1275.33
1279.97
894.062
814.647
1544.79
976.061
600.764
833.085
577.863
28.1794
180.781
343.988
342.886
183.079
283.082
283.034
600.277
423.914
716.339
417.501
717.641
387.489
681.376
397.6
590.532
422.714
712.876
415.308
716.324
380.631
675.21
394.504
416.836
600.333
368.252
414.16
590.635
361.83
779.626
743.232
451.469
428.965
775.879
743.046
450.123
428.784
15.2183
208.084
439.049
677.052
96.2644
208.277
439.141
678.561
95.897
69.6121
69.1475
2237.51
1292.14
1599.21
998.165
1096.6
772.915
1307.82
838.967
666.985
469.773
2237.8
1292.07
1600.47
998.05
1096.49
1308.27
770.049
838.493
666.217
469.069
27.6121
205.179
325.726
324.335
205.842
267.505
267.351
730.518
706.375
421.405
405.711
650.586
375.873
728.364
701.541
420.466
403.574
645.276
373.227
549.986
580.026
343.46
594.23
358.414
331.414
485.422
345.438
542.128
574.676
340.71
585.497
352.958
326.921
477.798
340.339
42.1325
75.7155
75.3799
142.081
330.238
371.695
264.819
490.836
95.3743
141.609
330.578
370.699
264.067
490.663
94.9495
1151.56
936.33
608.206
714.137
547.845
363.006
1151.95
935.588
605.485
713.527
547.232
362.118
26.5349
179.665
333.932
308.916
460.725
332.004
309.084
458.492
180.682
244.46
244.887
681.422
393.52
623.895
361.167
676.496
391.661
619.497
359.32
559.575
506.683
602.192
327.949
351.79
301.086
554.343
499.863
598.632
350.496
325.781
298.096
12.8148
96.0071
87.0296
95.9031
87.1755
123.069
209.365
285.227
224.524
252.464
469.886
282.067
95.6615
122.51
209.982
282.468
222.349
253.206
467.416
280.884
95.4511
734.012
425.945
731.934
424.785
25.3208
171.819
171.97
320.3
311.46
486.269
316.434
473.394
319.744
308.83
478.07
311.228
468.418
233.977
233.626
539.697
578.662
501.837
322.631
344.354
298.052
535.21
575.725
494.828
343.52
321.113
295.35
10.5612
61.808
69.2806
61.7138
69.1714
81.9291
81.8663
117.181
199.743
219.231
195.094
227.033
190.584
371.606
227.619
307.707
548.996
320.156
116.556
202.181
221.376
195.976
230.793
190.451
365.986
224.473
307.902
547.166
318.794
29.0196
156.16
142.952
156.631
144.234
310.587
306.772
477.934
313.813
464.557
496.551
294.004
309.133
308.905
474.346
311.466
467.288
491.208
291.881
217.929
217.663
529.66
320.416
524.744
319.192
9.73884
71.4124
75.9969
71.4391
75.8751
75.4439
91.0132
75.2334
90.7591
106.777
106.237
189.154
208.408
192.69
197.975
173.001
247.902
169.105
265.857
202.026
420.083
245.199
338.762
190.955
208.639
192.506
199.672
176.626
252.899
172.017
272.967
200.994
415.258
242.577
336.869
35.6291
148.107
166.578
149.376
167.349
199.718
200.236
299.177
303.447
469.927
305.297
465.828
289.074
490.731
290.123
485.546
511.989
309.529
297.535
303.63
462.469
300.496
466.48
288.726
487.984
288.783
485.685
508.557
308.645
2.26283
72.9821
65.4934
72.7448
64.9851
99.8652
108.726
99.6885
108.465
101.123
106.662
100.191
106.093
180.72
180.172
175.063
185.14
182.706
181.998
176.759
187.134
153.464
227.858
162.232
209.591
155.769
229.558
163.566
212.891
39.6368
195.738
222.485
196.047
222.891
202.168
216.477
202.802
216.95
281.553
280.202
294.533
465.986
303.025
445.929
292.567
485.625
292.837
488.779
298.846
500.039
300.365
496.08
294.452
458.463
298.544
444.852
292.066
483.752
291.734
488.788
298.802
499.012
299.947
496.674
20.8661
1.93104
100.502
79.3378
100.075
78.6484
113.173
125.979
112.722
125.609
178.642
180.467
175.796
180.952
178.951
188.229
179.185
184.994
180.903
181.999
177.429
183.044
180.799
188.076
179.107
186.823
147.65
191.264
139.397
199.914
150.13
194.503
141.955
203.338
38.259
255.485
249.443
255.705
249.971
240.329
265.947
240.55
266.36
277.747
285.733
276.364
284.979
291.282
437.404
292.194
433.859
290.38
429.563
287.927
431.622
298.497
485.117
294.015
488.879
296.998
481.38
292.404
485.361
10.0135
85.35
68.4832
85.1759
68.8965
2.53421
123.423
109.96
122.903
109.157
184.347
194.015
181.812
194.696
192.686
212.704
193.746
205.773
186.268
193.761
181.597
196.611
194.711
210.582
191.945
207.848
135.29
192.283
140.952
182.852
142.343
204.338
149.888
192.643
138.134
195.965
143.789
186.696
144.266
204.019
149.892
195.355
35.8943
185.413
296.951
315.03
296.894
314.703
303.61
325.92
303.124
326.12
285.798
427.619
287.953
422.745
282.37
437.256
288.748
420.034
284.081
418.491
283.047
418.561
282.508
431.536
285.992
418.688
300.815
487.717
298.671
484.284
298.737
480.562
295.705
479.332
8.92074
66.2271
68.1429
66.486
68.4939
135.871
119.389
135.814
120.057
2.30279
193.006
215.415
193.812
212.943
188.724
237.031
220.102
207.239
193.983
212.693
191.651
213.784
190.106
235.078
218.391
208.61
144.818
210.316
151.102
204.704
149.374
239.545
162.678
217.773
147.286
210.447
151.344
208.275
152.354
235.804
160.353
222.33
33.0615
152.029
377.101
369.636
375.081
368.009
348.735
353.737
347.654
351.439
298.693
451.717
294.747
456.75
308.513
493.511
320.137
471.844
300.196
445.822
291.417
459.009
312.529
492.319
319.32
477.177
287.265
470.896
287.554
470.323
287.658
460.185
286.88
462.82
284.448
460.8
283.831
461.822
286.742
455.881
286.55
457.969
44.8545
7.48243
105.937
101.738
106.227
101.702
209.015
240.281
167.239
216.985
185.836
192.172
249.791
219.062
222.051
192.168
206.841
232.818
163.719
214.986
181.951
188.469
246.178
214.159
220.027
187.964
2.77235
156.396
243.231
163.141
234.038
153.704
224.858
156.25
237.824
159.725
233.562
154.761
226.585
143.301
226.806
149.918
212.558
145.128
221.011
146.624
216.23
30.4563
112.282
378.528
359.874
377.886
359.728
460.439
442.36
455.682
438.227
325.069
510.299
326.419
505.588
327.258
533.703
361.514
507.857
324.152
506.122
323.21
504.354
325.964
520.28
353.055
504.527
287.881
464.736
285.132
476.586
293.96
515.619
301.371
497.244
288.763
462.735
284.988
478.51
295.537
517.109
302.396
500.307
30.2322
155.1
155.49
155.284
155.89
7.51334
163.881
172.056
163.015
171.572
219.711
237.216
148.335
157.236
247.798
163.157
273.809
203.568
258.134
169.56
213.394
234.334
143.614
154.119
243.014
158.731
262.727
198.513
253.221
164.946
3.11442
138.347
222.265
145.557
211.018
139.391
217.241
137.687
215.62
142.105
210.455
139.667
218.722
28.109
92.4107
231.417
423.959
419.252
422.562
418.873
655.916
610.705
384.416
677.027
400.875
361.394
643.824
404.207
669.564
401.561
597.602
644.588
378.05
663.829
392.573
354.601
633.263
396.544
656.551
393.108
314.546
534.685
309.805
540.872
326.214
559.453
313.929
536.082
310.366
539.968
323.062
552.366
307.277
530.713
313.172
514.472
308.707
535.507
315.069
517.968
18.0699
151.27
152.287
151.508
152.278
210.159
182.743
210.473
182.974
7.7369
210.864
272.284
189.848
283.851
226.096
325.977
251.4
308.8
209.439
268.69
186.564
282.24
225.9
326.899
249.825
308.003
218.653
143.16
279.01
181.081
269.942
169.195
213.673
139.302
271.237
176.004
265.777
165.725
2.65478
26.1811
78.5123
197.369
465.472
465.833
464.671
465.527
496.806
469.749
494.861
468.402
619.936
668.966
388.856
360.763
701.717
405.86
712.224
414.509
705.265
407.018
612.338
661.653
357.508
386.286
693.146
402.328
705.382
410.912
696.748
402.961
330.28
552.857
322.758
564.395
341.401
581.314
330.81
557.244
324.43
565.868
340.495
579.277
59.0967
14.3589
184.151
181.434
184.2
181.407
316.828
339.571
209.367
305
216.781
233.525
291.258
223.927
287.922
212.025
319.222
338.137
208.825
307.855
215.631
231.807
292.058
221.102
291.011
211.258
6.89581
214.587
319.57
202.695
343.005
222.13
355.867
213.759
317.675
201.585
340.851
221.707
354.968
1.81488
24.9093
67.2171
154.429
490.191
500.752
490.069
500.781
540.784
533.638
539.198
532.691
422.103
720.167
420.35
716.699
421.747
695.876
425.683
711.669
419.621
716.471
417.929
713.206
419.661
689.548