/*--------------------------------*- C++ -*----------------------------------*\
| =========                 |                                                 |
| \\      /  F ield         | OpenFOAM: The Open Source CFD Toolbox           |
|  \\    /   O peration     | Version:  5.x                                   |
|   \\  /    A nd           | Web:      www.OpenFOAM.org                      |
|    \\/     M anipulation  |                                                 |
\*---------------------------------------------------------------------------*/
FoamFile
{
    version     2.0;
    format      ascii;
    class       volScalarField;
    location    "1.9";
    object      p;
}
// * * * * * * * * * * * * * * * * * * * * * * * * * * * * * * * * * * * * * //

dimensions      [1 -1 -2 0 0 0 0];

internalField   nonuniform List<scalar> 
12160
(
5273.53
5298.42
4619.42
5307.45
4644.32
3965.58
5321.21
4653.14
3990.37
3311.16
5336.63
4666.91
3999.03
3336.03
2657.71
5353.2
4682.37
4012.54
3343.88
2682.23
2002.89
5370.64
4698.94
4027.84
3357.77
2689.69
2027.51
1350.05
5388.56
4716.45
4044.47
3373.01
2703
2033.81
1373.93
694.842
5406.77
4734.4
4062.08
3389.61
2718
2047.85
1379.45
721.006
188.984
5425.62
4752.53
4080.14
3407.48
2734.66
2062.41
1392.57
725.159
202.186
1.49281
5446.38
4771.12
4098.11
3425.72
2752.77
2079.09
1406.59
738.331
203.987
1.02812
-6.64166
5470.53
4791.51
4116.19
3443.48
2771.33
2097.83
1423.45
751.82
210.701
1.21238
-6.82776
-7.44535
5499.49
4815.28
4135.83
3460.78
2788.89
2116.94
1442.88
769.292
219.358
2.2806
-6.82116
-7.46144
-8.25117
5534.24
4843.97
4158.85
3479.22
2805.13
2134.34
1462.58
790.364
231.715
4.54892
-6.81994
-7.4909
-8.22268
-8.76154
5574.77
4878.65
4186.97
3501.01
2821.9
2149.26
1480
811.854
248.784
7.65939
-6.78915
-7.49204
-8.17059
-8.77272
-9.54932
5619.97
4919.33
4221.55
3528.22
2841.91
2163.73
1493.26
829.99
267.156
12.8405
-6.76398
-7.49979
-8.15528
-8.80196
-9.53786
5667.65
4964.92
4262.7
3562.54
2867.82
2181.26
1504.71
841.855
281.939
19.758
-6.72365
-7.50727
-8.14721
-8.81429
-9.49851
5715.25
5013.21
4309.3
3604.17
2901.79
2205.29
1518.88
849.845
289.847
25.7436
-6.65808
-7.51756
-8.14753
-8.82211
-9.48211
5760.13
5061.53
4358.97
3652.04
2944.31
2238.66
1540.35
859.59
292.231
28.9322
-6.48739
-7.52569
-8.1567
-8.82498
-9.47462
5799.8
5107.14
4408.82
3703.66
2994.27
2282.04
1572.85
876.965
294.495
29.6653
-6.2606
-7.54255
-8.17834
-8.82456
-9.47522
5832.22
5147.5
4455.95
3755.79
3048.7
2334.28
1617.47
906.98
301.948
29.744
-6.07176
-7.52862
-8.19858
-8.82902
-9.48113
5855.79
5180.52
4497.75
3805.21
3103.98
2392.32
1673.22
951.321
320.353
30.9252
-5.95271
-7.50592
-8.20841
-8.83272
-9.48612
5869.43
5204.58
4532.01
3849.12
3156.53
2451.93
1735.98
1009.73
352.8
35.5561
-5.81348
-7.46139
-8.16503
-8.82489
-9.49143
5872.7
5218.57
4557.07
3885.21
3203.36
2508.68
1800.66
1077.61
400.975
45.7525
-5.54996
-7.42179
-8.13087
-8.82071
-9.49448
5865.26
5222.06
4571.8
3911.73
3242.01
2559.34
1862.3
1148.51
461.655
63.2684
-4.99621
-7.39917
-8.09865
-8.8041
-9.4814
5847.56
5214.69
4575.77
3927.51
3270.58
2601.28
1917.37
1216.84
529.034
89.4006
-3.71522
-7.39516
-8.07862
-8.78884
-9.47474
5820.32
5196.92
4568.63
3932.13
3287.86
2632.44
1963.19
1278.13
596.098
123.142
-1.17326
-7.39803
-8.08424
-8.78027
-9.46736
5784.55
5169.43
4550.83
3925.24
3293.43
2651.53
1997.5
1328.99
657.84
161.381
3.10473
-7.37277
-8.11424
-8.7793
-9.4634
5741.56
5133.19
4523.12
3907.29
3286.96
2658.17
2019
1367.32
710.181
200.01
9.26578
-7.29411
-8.16665
-8.78584
-9.46651
5693.2
5089.26
4486.59
3878.96
3268.9
2652.19
2027.15
1391.58
750.152
235.248
17.0264
-7.12152
-8.21287
-8.79316
-9.47728
5639.31
5038.32
4442.73
3841.2
3240.01
2633.95
2021.81
1401.24
775.88
263.875
25.5128
-6.79239
-8.23854
-8.81132
-9.49476
5583.17
4986.43
4393.71
3794.88
3201.49
2604.16
2003.3
1396.58
786.863
283.528
33.4627
-6.2953
-8.25579
-8.84788
-9.50445
5525.63
4930.06
4336.85
3740.48
3155.15
2563.8
1972.39
1377.81
783.271
292.726
39.5275
-5.71567
-8.26711
-8.87781
-9.50242
5467.96
4872.02
4278.71
3686.8
3102.82
2514.13
1930.44
1345.48
765.172
290.677
42.6029
-5.20453
-8.26966
-8.89391
-9.50111
5411.27
4813.8
4219.29
3627.51
3041.69
2457.89
1879.49
1300.78
733.279
277.979
42.0367
-4.92299
-8.26825
-8.90504
-9.50489
5356.53
4756.62
4159.86
3566.41
2978.84
2395.17
1819.73
1244.63
689.361
255.92
38.1042
-4.98056
-8.26929
-8.91268
-9.50852
5304.51
4701.43
4101.59
3505.32
2914.88
2329.34
1753.78
1181.37
635.458
226.362
31.6552
-5.33269
-8.27528
-8.91816
-9.51116
5255.73
4649
4045.44
3445.55
2851.28
2262.16
1683.53
1110.41
572.407
191.395
23.812
-5.86734
-8.28691
-8.92242
-9.51312
5210.18
4599.94
3992.14
3388.06
2789.32
2195.66
1612.01
1035.3
507.391
153.81
15.7517
-6.41885
-8.30257
-8.923
-9.51436
5169.81
4554.04
3942.21
3333.55
2729.94
2131.17
1541.64
959.697
438.848
116.447
8.36456
-6.87131
-8.31129
-8.92183
-9.51412
4513.51
5110.56
3896.3
3282.53
2673.81
2069.52
1473.93
886.953
373.198
82.2704
2.4386
-7.15361
-8.31501
-8.91699
-9.51392
3855.17
4453.94
5050
3235.97
2621.41
2011.26
1409.76
818.073
316.771
54.1378
-1.77679
-7.36654
-8.32023
-8.89955
-9.51346
3194.06
3795.12
4393.14
5015.26
2573.96
1956.74
1349.38
754.224
269.302
34.2904
-4.14491
-7.44669
-8.27425
-8.87071
-9.51568
2531.61
3132.56
3735.34
4356.12
4990.22
1907.36
1293.16
695.096
228.686
21.162
-5.31892
-7.46224
-8.22432
-8.85459
-9.51976
1863.06
2470.51
3070.7
3704.48
4333.73
4981.74
1242.64
641.007
194.008
12.4548
-5.90584
-7.45606
-8.17425
-8.83613
-9.51212
1198.06
1798.44
2411.65
3035.83
3677.45
4326.29
4977.35
593.198
164.702
6.6086
-6.21279
-7.4503
-8.1399
-8.82071
-9.50256
551.607
1134.69
1736.75
2378.23
3013.77
3670.13
4320.82
4973.81
140.727
2.76168
-6.39449
-7.44283
-8.11535
-8.80851
-9.49171
121.192
493.673
1077.45
1707.94
2357.76
3009.96
3663.46
4318.66
4969.51
0.341688
-6.5047
-7.43357
-8.09796
-8.7982
-9.48339
-1.27398
95.5899
444.791
1046.48
1687.9
2354.39
3004.04
3660.69
4311.18
4994.49
-6.57106
-7.4224
-8.08919
-8.79239
-9.47766
-6.61683
-3.13893
76.6544
426.128
1028.61
1689.57
2347.36
3004.46
3652.13
4325.3
4890.94
-7.41315
-8.08561
-8.78802
-9.47418
-7.4056
-6.65184
-3.99528
70.6513
415.496
1032.88
1684.98
2348.61
2986.35
3633.88
4250.67
5134.98
-8.08508
-8.7841
-9.47177
-8.08384
-7.38297
-6.67056
-4.09649
67.9633
423.263
1031.59
1692.63
2329.58
2942.4
3574.83
4382.57
4597.92
5497.41
-8.78051
-9.46993
-8.77678
-8.07664
-7.36707
-6.67742
-3.92995
72.4739
426.907
1041.5
1680.38
2286.11
2871.1
3612.49
4038.5
4398.17
5100.53
5809.37
-9.46864
-9.4673
-8.76928
-8.07737
-7.37021
-6.6661
-3.40823
76.544
437.644
1039.62
1654.38
2185.83
2849.93
3459.54
3947.99
4159.57
4826.3
5536.66
6222.91
-9.46567
-8.76
-8.07233
-7.35804
-6.62573
-2.72963
81.8688
440.487
1025.27
1547.42
2168.21
2873.21
3458.92
3748.53
3916.3
4584.74
5282.95
6031.2
6755.87
-9.46726
-8.76132
-8.05931
-7.32954
-6.5196
-2.29807
86.5448
428.312
991.85
1610.29
2310.86
2925.97
3332.05
3524.16
3666.66
4332.41
5055.07
5815.64
6603.04
7398.91
-9.46349
-8.75336
-8.02771
-7.25174
-6.35487
-0.901238
74.3356
441.973
1113.42
1763.37
2394.98
2888.85
3142.04
3307.76
3399.73
4048.29
4792.03
5595.66
6424.52
7264.47
8132.56
-9.45873
-8.73375
-7.95734
-7.14232
-6.14283
-1.67267
72.0258
572.461
1242.05
1880.13
2408.83
2754.81
2974.18
3075.44
2477.7
3720.49
2482.52
2386.5
2389.46
4440.93
5300.78
6199.82
7108.68
8011.18
8945.86
-9.44955
-8.68686
-7.84333
-6.97814
-5.83903
-2.39072
135.732
677.326
1345.92
1903.25
2348.89
2628.25
2805.18
2823.05
2579.12
2342.46
3998.37
2584.61
2695.53
2699.73
2343.48
2220.66
2220.41
4855.84
5878.81
6878.91
7859.02
8838.52
9818.53
-9.43161
-8.61721
-7.68735
-6.89789
-5.50494
-1.14489
190.348
743.273
1370.71
1870.77
2244.54
2493.41
2607.14
2075.53
2072.66
1999.92
2000.14
2430.56
2235.31
4299.01
3515.22
2431.92
2511.52
2512.85
2225.8
2158.79
2150.45
5382.19
6551.09
7645.54
8683.01
9716.91
10739.8
-9.4064
-8.54305
-7.58277
-6.57115
-5.13086
0.776318
214.447
799.648
1343.96
1789.48
2131.68
2330.73
1926.19
1926.47
1845.14
1845.44
1981.42
1977.96
1930.72
1925.65
2289.13
1927.51
1777.49
1943.38
1761.23
4746.65
3610.69
2271.35
2271.37
2318.44
2315.23
2280.39
2321.52
2314.22
1924.02
1778.94
1939.18
1759.91
1927.63
1667.34
1902.56
1737.74
1923.47
1666.19
1897.53
1733.45
6034.83
7313.27
8487.77
9567.06
10634.2
11717.3
-9.37888
-8.55861
-7.76019
-7.05408
-4.65961
8.9694
271.491
776.58
1248.15
1680.65
1973.33
1752.48
1752.43
1651.93
1651.83
1871.94
1864.92
1804.72
1795.56
1642.09
1679.09
1753.19
1580.56
1719.81
1781.49
1677.41
1644.33
1753.45
1582.09
1719.63
1780.6
1539.16
1686.54
1561.45
1713.22
1540.77
1686.04
1563.05
1712.99
1970.65
1790.16
1953.91
1800.38
1827.79
1797.46
1845.4
1776.5
5388.05
3854.2
2263.43
2262.79
2250.9
2250.7
2046.59
2040.96
2124.04
2118.86
1967.32
1791.04
1949.75
1798.99
1981.97
1749.55
2019.35
1792.44
1978.68
1752.51
2015.02
1791.41
1828.09
1800.63
1845.42
1780.26
1835.53
1747.24
1834.57
1746.9
6819.08
8163.37
9388.51
10480.4
11578.4
12753.1
-9.3801
-8.77335
-9.08437
-8.39692
-1.07561
35.4837
257.008
711.482
1140.16
1550.33
1487.28
1487.33
1357.95
1358.45
1706.79
1698.93
1617.77
1608.38
1514.68
1658.5
1471.02
1612.26
1517.81
1658.28
1477.64
1612.33
1426.25
1566.79
1450.35
1590.06
1429.15
1565.56
1454.73
1589.55
1693.52
1639.21
1719.67
1756.65
1611.33
1673.06
1695.1
1642.1
1756.82
1720.4
1613.29
1673.57
1571.47
1628.53
1605.93
1663.92
1575.14
1629.4
1608.66
1664.71
1879.26
1812.65
1860.19
1822.8
1810.48
1769.31
1823.6
1763.33
6186.17
4385.96
2442.51
2440.5
2319.79
2316.95
1999.04
1990.98
1989.84
1983.2
1558.29
1710.13
1624.42
1777.26
1564.93
1711.53
1630.11
1778.41
1704.61
1775.78
1820.58
1672.59
1821.66
1904.03
1709.62
1775.86
1821.23
1677.21
1822.27
1903.62
1879.13
1814.17
1859.81
1824.93
1877.67
1788.59
1877.73
1790.56
1810.11
1770.45
1824.24
1760.9
1794.02
1728.65
1793.46
1728.02
7722.52
9092.25
10322
11410.5
12568.2
13818.5
-9.50282
-9.69272
-11.0666
-7.58479
3.43153
49.2697
225.721
613.302
1005.86
1181.68
1182.31
992.255
992.656
1454.1
1450.04
1308.2
1306.7
1380.28
1520.95
1326.14
1473.04
1382.62
1519.8
1331.99
1472.34
1240.35
1437.01
1278.85
1432.99
1241.57
1434.13
1282.25
1431.38
1554.12
1609.59
1518.53
1568.76
1557.46
1610.51
1522.81
1570.43
1461.84
1502.54
1491.7
1530.55
1466.51
1503.97
1495.2
1532.2
1857.19
1770.67
1830.08
1801.04
7131.89
5233.19
2945.31
2947.84
2645.38
2644.39
2236.88
2221.83
2088.87
2078.93
1493.76
1648.96
1514.3
1687.35
1504.94
1651.04
1525.53
1689.8
1512.28
1662.08
1515.82
1683.36
1520.62
1664.1
1528.42
1685.91
1568.81
1638.44
1639.05
1701.07
1578.17
1641.66
1646.01
1703.67
1719.75
1712.44
1787.99
1783.76
1683.39
1745.22
1723.16
1716.42
1788.81
1785.05
1688.3
1746.83
1855.87
1771.91
1830.56
1796.7
1832.34
1761.29
1832.35
1762
8693.47
10060
11251.9
12358.5
13603.8
14860.5
-9.82728
-10.6836
-10.3575
-6.74945
2.75149
41.1602
155.329
487.947
865.038
1125.63
1125.15
908.17
908.851
1391
1388.7
1260.75
1257.15
1418.37
1458.71
1368.67
1412.77
1419.99
1459.38
1370.51
1413.37
1237.4
1335.39
1310.17
1368.99
1237.87
1335.09
1311.58
1369.32
1432.42
1480.46
1438.59
1482.14
8172.29
6309.7
3745.56
3749.08
3297.67
3299.33
2684.64
2676.29
2423.96
2412.6
1695.55
1933.19
1622.4
1841.37
1687
1928.24
1624.36
1839.41
1526.73
1679.76
1609.67
1798.4
1534.01
1680.71
1615.36
1798.04
1521.65
1605.89
1505.38
1582.8
1532.77
1609.35
1514.32
1586.32
1541.74
1615.95
1531.62
1609.79
1551.98
1619.49
1542.09
1613.76
9701.89
11020
12167.6
13356.1
14620.4
15823.1
-10.2268
-10.391
-8.86168
-7.06096
1.04673
36.2046
98.4232
375.187
682.559
682.822
498.612
499.665
1092.69
1087.42
880.139
881.622
1205.43
1169.64
1258.01
1098.74
1204.88
1168.38
1257.78
1098.32
1146.36
974.84
1089.95
1036.52
1145.28
977.308
1088.82
1036.4
1401.13
1449.21
1359.43
1408.25
1404.98
1450.5
1361.65
1409.08
1253.88
1303.83
1301.65
1352.83
1256.66
1304.66
1303.26
1353.57
9244.2
7506.17
5502.6
3374.51
3378.21
3001.25
2995.53
2414.14
2407.95
2169.34
2162.06
1644.55
1797.32
1563.13
1747.81
1646.95
1796.01
1570.51
1748.43
1530.9
1636.74
1591.97
1707.54
1538.54
1639.47
1604.05
1710.36
1493.16
1593.25
1506.02
1597.05
10719.3
11934.4
13109.6
14333.9
15613.5
16541.3
-10.0463
-9.4732
-8.33761
-7.27687
0.881983
22.4815
71.3356
331.777
637.46
633.489
439.962
438.623
888.104
1002.57
948.579
796.368
891.012
1001.21
945.779
796.727
847.656
844.113
1156.71
1166.79
1216
1118.84
1157.14
1169.84
1216.74
1119.55
1095.29
984.672
1025.21
1059.59
1095.53
985.833
1025.41
1060.87
1231.55
1290.5
1235.92
1291.55
10345.1
8715.92
6895.06
4199.53
4201.26
3581.18
3580.13
3112.39
3111.67
2756.61
2740.22
1956.13
1940.58
2101.61
1803.88
1961.58
1959.21
2105.39
1820.79
1938.03
1668.58
1794.46
1760.31
1938.85
1669.85
1794.41
1765.22
1611.6
1722.93
1565.54
1685.12
1617.24
1723.47
1570.72
1686.47
1502.56
1604.42
1558.86
1661.17
1512.98
1607.59
1567.59
1663.72
11671.3
12843.4
14048.8
15279.3
16358.7
-9.94308
-9.09457
-8.22408
-7.46658
-2.29729
8.95174
54.8532
290.064
291.535
207.414
208.938
518.421
590.405
429.299
518.352
517.428
589.04
431.606
517.338
408.021
409.799
897.152
942.8
868.205
787.375
897.698
942.754
867.515
787.614
604.501
684.325
695.326
759.324
605.168
683.027
695.158
758.466
1066.17
940.389
976.882
1023.64
1067
944.523
978.113
1027.56
11366.6
9916.18
8259.03
6474.47
4008.33
3990.93
3383.95
3371.29
2952.19
2938.35
1990.12
2229.85
2446.28
2192.04
1987.26
2228.94
2445.08
2190.28
1927.85
1866.57
2040.83
1780.84
1930.47
1879.21
2043.92
1787.61
1878.03
1658.81
1803.7
1731.32
1878.37
1662.23
1804.09
1732.05
1625.64
1747.59
1633.04
1748.79
12576.2
13758.6
14942.4
16045
-9.84206
-8.97436
-8.18521
-7.56237
-5.20973
3.42778
82.2048
82.4948
18.5511
18.4945
274.259
276.019
178.711
178.773
500.992
535.99
397.202
448.681
500.238
535.855
398.024
449.248
357.126
276.824
329.979
320.611
358.386
281.835
331.793
323.675
874.105
906.656
831.907
796.101
875.977
907.457
831.993
796.63
596.581
626.974
676.216
701.535
597.782
627.14
676.566
701.55
12293.1
11039.8
9553
8023.14
5098.35
5096.44
4439.04
4433.54
3768.72
3765.35
2541.56
2915.75
2711.22
3117.02
2549.3
2917.12
2729.9
3120.23
2386.38
2664.08
2257.87
2479.69
2106.21
2333.49
2403.6
2667.03
2270.74
2483.05
2108.7
2333.07
1974.44
2214.14
1982.04
2214.96
1935.96
1905.22
2010.18
1817.95
1938.57
1918.08
2013.82
1826.39
13475.7
14616
15699.6
-9.73524
-8.90182
-8.16073
-7.57053
-5.90202
-4.53985
60.4125
59.8261
3.41502
3.26368
224.223
269.616
244.381
204.863
230.015
297.805
272.936
225.285
298.096
245.373
205.845
231.93
102.161
110.908
160.17
173.393
100.008
110.368
158.543
173.254
461.178
491.747
381.068
413.999
462.478
492.349
382.968
414.917
335.647
309.738
335.949
311.806
797.614
765.45
797.786
766.379
550.3
585.249
552.517
585.827
13194.7
12022.8
10772.4
9415.01
6418.63
6429.95
5729.84
5728.34
5039.5
5028.29
4324.39
4322.58
3332.81
3092.79
3596.53
2938.43
3058.32
2757.4
3336.7
3114.16
3600.52
2949.81
3061.73
2769.08
2603.53
2845.69
2616.05
2849.38
2450.89
2650.65
2323.1
2150.88
2517.89
2284.54
2467.73
2654.63
2333.2
2164.15
2520.3
2287.77
2026.24
2131.17
2036.78
2134.09
14319
15366.8
-9.66801
-8.8547
-8.05091
-7.60913
-6.3282
-4.06204
-4.06722
-4.61944
-4.63133
28.657
28.1903
-0.479186
-0.495403
255.492
203.492
223.476
268.839
184.122
200.426
257.543
202.411
269.611
223.645
183.929
200.909
74.6283
74.1635
140.401
147.606
76.1397
74.8212
141.203
148.392
346.435
377.625
348.571
378.458
14045.9
12951.1
11830.7
10682.5
9539.71
6433.44
6429.57
5755.87
5734.05
4207.65
4853.21
3986.27
4460.75
4231.55
4856.01
4005.92
4466.18
3452.11
3187.59
3823.15
3711.02
4112.66
3555.41
3465.71
3201.99
3827.6
3737.95
4119.39
3559.88
3300.96
3004.33
3049.97
2805.63
3303.86
3008.65
3057.07
2817.61
2643.49
2810.59
2657.63
2815.52
2475.6
2639.04
2206.31
2349.33
2496.69
2644.97
2218.68
2352.64
15054.9
-9.61995
-8.81994
-7.94336
-7.74059
-6.80228
-3.96659
-3.94825
-4.49461
-4.49345
3.20695
18.5312
14.2339
4.10956
3.22922
20.2795
14.6036
4.3964
-1.91544
-1.89877
60.3609
56.2655
123.511
130.655
64.8734
58.5283
127.007
131.338
14776.2
13821.1
12798.3
11793.3
10837.7
7714.73
7731.61
7053.57
7051.06
6435.15
6431.67
5763.71
5751.52
4389
4785
4186.16
4365.42
4406.02
4789.11
4200.4
4370.56
3305.07
3650.15
3561.25
3853.53
3901.55
4065.93
3318.16
3660.99
3857.18
3564.63
3915.57
4071.38
3042.07
2855.07
3045.71
2865.95
-9.53665
-8.83479
-8.10379
-7.77632
-5.3268
-5.32479
-5.75321
-5.76681
-4.18075
-4.12596
-4.72769
-4.71374
2.89895
13.8619
12.7
2.66549
2.8182
14.5986
12.7251
2.71294
-2.40472
-2.91986
-1.61825
-1.66534
-2.38463
-2.89497
-1.61386
-1.66443
48.0908
47.0798
51.6568
49.1661
14570.2
13704.9
12795.7
11963.8
11183
7787.31
7787.95
7237.91
7213.81
6563.14
6543.1
5632.66
4727.38
5215.85
4897.77
5628.03
4727.07
5215.47
4892.91
4558.33
4749.31
4320.29
4428.7
4573.86
4753.93
4335.84
4434.27
-9.46192
-8.86664
-8.22936
-8.37913
-5.93346
-5.94216
-6.42079
-6.45389
-2.7502
-3.03044
-4.18529
-3.49847
-3.83601
-3.68357
-2.72066
-3.01167
-4.16718
-3.46033
-3.81062
-3.65025
-5.30164
-5.2777
0.886715
7.01053
6.01991
0.946526
0.880668
7.35343
6.11598
1.00708
-2.20502
-2.31811
-2.20207
-2.31452
14458.6
13730.9
12976.2
12349.3
9096.85
9112.88
8397.46
8397.83
7760.35
7769.86
7361.27
7339.23
5479.13
6306.04
5367.99
5880.61
5061.1
5571.51
5518.6
6309.07
5390.43
5886.93
5062.47
5571.71
4923.05
5156.85
4935.03
5160.64
4710.9
4865.46
4725.79
4869.29
-9.45448
-8.80053
-8.43445
-7.08532
-7.10751
-6.90495
-6.91683
-6.74352
-6.74926
-7.1233
-7.15001
-3.19769
-3.42759
-4.35373
-3.7468
-4.10809
-4.05517
-3.16789
-3.40813
-4.34402
-3.72361
-4.09349
-4.04471
-4.79304
-5.37837
-4.60237
-4.92824
-4.8358
-5.39045
-4.62809
-4.9397
14487.6
13942.8
13350.2
12917.7
9233.35
9229.09
8683.98
8656.73
8132.57
8111.86
5723.62
6305.49
7159.43
6125.05
6744.25
6274.35
7151.66
6125.04
6743.11
6266.8
5744.64
6310.68
5588.81
5242.4
5922.72
5520.62
5604.44
5266.95
5928.47
5527.35
5056.89
5250.27
5078.59
5256.01
-9.43468
-8.77768
-8.67488
-8.11107
-8.10823
-7.49309
-7.49787
-5.36094
-5.75169
-6.80669
-6.10062
-6.50489
-6.18901
-5.42497
-5.78052
-6.81321
-6.12547
-6.51452
-6.20232
-8.30324
-8.2978
-4.55942
-4.3209
-4.56017
-4.3313
-4.97966
-5.34663
-5.02893
-5.37044
14688.1
14315.9
13904.6
10448.3
10453.8
9858.07
9852.53
9384.36
9378.86
8865.08
8848.73
6866.79
7816.37
6794.22
7411.38
6469.83
7071.24
6904.85
6466.06
7069.29
7821.54
6812.03
7415.95
6011.34
6358.88
6371.52
6731.07
6371.66
6026.75
6730.9
6363.13
-9.37737
-8.56344
-8.89128
-10.0442
-10.0341
-8.60555
-8.60978
-5.788
-6.06442
-7.48241
-6.69369
-7.00126
-7.02737
-5.86007
-6.10331
-7.49371
-6.72637
-7.01083
-7.05619
-8.10331
-8.93636
-7.91659
-8.32932
-8.12928
-8.93926
-7.95349
-8.34601
-5.32707
-5.6817
-5.38982
-5.71993
15069.5
14838.1
14572.3
10643.5
10634.7
10148.2
10121.3
9582.27
9576.34
7120.04
7766.44
8518.94
7451
8112.7
7538.14
7147.09
7774.1
8518.24
7451.39
8114.29
7536.7
7072.18
6730.41
7414.61
7071.18
6743.18
7073.46
7088.09
7420.2
-9.25883
-8.16727
-4.2843
-8.69607
-8.6815
-4.2843
-4.42217
-4.4293
-11.7739
-9.42794
-10.1208
-11.7692
-9.43823
-10.1155
-6.15776
-6.54783
-7.92193
-7.19193
-7.47244
-7.70912
-6.20823
-6.56913
-7.94401
-7.21346
-7.48547
-7.74347
-8.94067
-9.40664
-8.9548
-9.39579
15582.2
15443.2
15208.3
10853.9
10847.9
10323.5
10310.2
8032.16
9078.77
7992.29
8702.51
7735.56
8381.98
8069.82
7740.21
8385.85
9087.09
8020.36
8711.13
7389.02
7721.79
7685.64
7991.82
7416.33
7730
7704.42
7998.26
7264.45
7531.67
7291.04
7539.15
-9.09294
-6.52046
-7.80363
-5.49492
-7.79371
-5.49056
-4.29787
-4.30211
-11.3264
-10.8475
-11.5717
-11.2734
-11.6532
-12.3398
-9.31535
-10.4568
-10.8796
-11.3612
-11.5823
-11.2907
-11.6515
-12.3519
-9.36693
-10.4675
-8.77779
-8.35519
-8.77315
-8.36379
-9.63617
-10.0971
-9.63371
-10.0839
16176.4
16019.7
12106
10985.1
10963
12117.6
11512.3
11512.5
10426.4
8263.2
9034.28
10421.6
8301.62
9047.51
7956.85
8254.95
8288.09
8671.47
7984.33
8297.3
8277.91
8680.76
7525.4
7780.24
7809.18
8071.51
7550.7
7787.63
7838.86
8080.41
-8.55814
-9.01786
-9.33008
-9.56317
-8.44716
-8.89403
-9.32545
-9.56985
-8.4657
-8.88722
-5.42735
-5.42805
-12.0351
-11.9252
-9.89913
-10.2602
-12.4364
-12.2626
-12.0558
-9.9177
-11.9386
-10.2637
-12.4438
-12.2679
-9.37833
-8.83781
-9.36518
-8.83001
16779.9
16532.3
12219.9
10998
10994.3
12215.4
11746.1
11728.8
8641
8358.62
9083.32
8316.32
9034.16
9519.16
8657.9
9800.51
8659.14
8390.27
9094.54
8356.72
9048.34
9524.16
8696.02
9807.35
8097.6
8339.95
8385.42
8720.96
8112.32
8393.11
8361.23
8729.22
-9.29231
-7.46681
-8.27459
-8.26575
-7.46502
-7.11653
-7.12897
-9.34063
-10.2903
-13.9675
-15.2082
-9.25387
-11.5346
-14.6356
-15.8658
-11.9617
-14.0265
-15.9051
-9.49051
-10.2919
-13.9687
-15.205
-9.25925
-11.5601
-14.7006
-15.8953
-11.9574
-14.0958
-15.9185
-13.6895
-11.8377
-13.7858
-11.9796
-13.7185
-11.8448
-13.7944
-11.9891
17346.6
16938.7
12328.4
11103.9
9783.26
8920.23
11104.9
9786.45
8931.19
12316
11783.5
11755.7
8586.59
8936.73
8362.1
9117.29
8855.44
9499.79
8606.4
8940.93
8386.97
8862.28
9121.87
9499.68
8214.03
8526.64
8229.99
8532.73
-9.57952
-8.37562
-7.52071
-8.35222
-7.5249
-7.4443
-7.45226
-15.0487
-18.8545
-19.6457
-15.7949
-19.1458
-19.9941
-9.95682
-13.0714
-13.5608
-13.9397
-14.8498
-10.5348
-8.26656
-8.99736
-15.0825
-18.8602
-15.8176
-19.6378
-19.2038
-20.0213
-13.1018
-9.97509
-13.5733
-13.9998
-14.8655
-10.542
-8.28334
-8.99856
17761.2
13230.4
12374
12337.8
13254.5
12834.8
12814.9
9183.01
9774.11
8992.57
9784.73
8953.17
10291.1
9213.39
10079.1
9236.65
9779.97
9015.84
9793.89
8965.02
10304.4
9250.84
10089.5
11713.2
9393.58
10275.3
11698.3
9448.17
10293.9
8759.12
8994.83
9267.81
9536.01
8768.19
8998.21
9266.99
9539.05
-9.71743
-8.07481
-8.27903
-7.8953
-7.42331
-8.04673
-8.27278
-7.88276
-7.42346
-7.32271
-7.33755
-21.2523
-22.3695
-17.8377
-18.5401
-11.5768
-9.12142
-15.3003
-15.7893
-11.776
-9.37204
-21.2906
-22.387
-17.8933
-18.5601
-11.6235
-15.3436
-9.10974
-15.802
-11.7952
-9.36851
18097.9
13289.8
12311.7
12273.4
13304.3
12896.1
12873.8
8999.76
9209.82
9601.96
9719.59
9462.79
10040.9
9018.35
9235.98
9608.97
9728.45
9501.03
10054.3
9768.18
9455.37
10206.6
9384.04
10191.3
10604.8
9726.26
10700.8
9787.32
9494.16
10222.6
9452.52
10212.8
10608
9737.46
10698.7
-9.75913
-7.24029
-7.25946
-7.63139
-7.83492
-7.07223
-7.4405
-7.45515
-7.24225
-7.6063
-7.82923
-7.06136
-7.43572
-7.44206
-7.24472
-12.8249
-10.0426
-8.28085
-13.2471
-10.2873
-8.54272
-12.8718
-10.0689
-8.26839
-13.2631
-10.2977
-8.53805
18352
13306.9
12411.9
10784.5
9941.15
12357.9
10779.8
9928.6
13327.2
12955.4
12939.2
9338.86
9810.75
9510.57
10027
9367.88
9820.08
9540.63
10038.6
9732.07
9992.73
9517
10191.7
10044.6
10620.5
9759.57
9975.34
9538.03
10053
10201.1
10613.7
-9.62819
-7.13597
-7.03121
-7.15725
-7.04987
-7.25813
-6.80973
-6.72695
-7.09066
-6.47127
-7.59837
-7.87326
-7.04595
-7.23343
-6.80844
-6.72661
-7.08645
-6.47057
-7.59561
-7.87198
-7.04536
-8.72725
-8.96214
-8.75215
-8.96898
18411.7
13338.6
13357.1
12447.5
10673.2
9976.75
10701.1
9957.65
12406.8
10666.6
9968.32
10695.3
9943.57
12978.1
12960.8
9830.37
9580.18
10024.1
10241.3
10075.2
10560.4
9866.57
9605.31
10013.4
10083.1
10248.5
10556.1
-9.69089
-6.96787
-6.96801
-6.98995
-6.98896
-6.88813
-6.88944
-6.94801
-6.55277
-5.96544
-6.31679
-6.21639
-6.95973
-7.06396
-7.35575
-6.66566
-7.77452
-8.02173
-6.9207
-6.55034
-5.96073
-6.31065
-6.21447
-6.95562
-7.06677
-7.3544
-6.66204
-7.80141
-8.0291
18378.4
13351.4
13341.2
13374.9
13370.9
12453.6
10680.2
9963.95
10705.4
9971.55
10054.5
10579.7
12412.4
10677.6
9975.11
10703.2
9966.72
10059.9
10580.2
13003.6
12988.7
9832.33
10274.9
9871.62
10282.5
-9.62115
-6.94695
-6.9413
-6.96803
-6.95798
-6.77005
-6.73543
-6.77563
-6.73857
-6.73572
-6.71555
-5.98843
-5.77892
-6.14606
-5.62478
-6.64788
-5.94743
-6.3532
-6.3004
-6.95926
-7.08848
-7.38293
-6.61104
-5.97871
-5.77158
-6.13734
-5.61268
-6.64233
-5.94085
-6.34567
-6.29573
-6.96231
-7.11509
-7.38975
-6.63221
18291.7
13328.4
13291.9
13357.1
13318.8
13017
13004.8
12459.6
10689.3
9945.56
10735.3
9950.97
10600.9
10065.9
10603.8
10068.4
9887.76
10348.9
12424
10688.1
9956.18
10735.2
9948.06
10601.1
10084.4
10606.6
10082.4
9927.9
10357.4
-9.64675
-6.9917
-7.02789
-7.00311
-7.04533
-6.6882
-6.70361
-6.69281
-6.70392
-6.57311
-6.4818
-6.55443
-6.46499
-5.8812
-5.41654
-5.78094
-5.5368
-5.86513
-5.39974
-5.76452
-5.51799
-6.03326
-5.7015
-6.14697
-5.54823
-6.0211
-5.69411
-6.13949
-5.53343
18011
13251.9
13216.2
13274.8
13238.2
13007.9
12969.1
12995
12954.9
12508.7
12469.7
10830.4
9934.01
10768.2
9971.63
10609.7
10066.5
10659.1
10067.9
10435.5
9964.14
10414.4
9997.63
10827.9
9955.24
10769.9
9968.52
10606.8
10093.8
10665.1
10063.2
10440.7
10002.2
10422.5
10027.5
-9.0641
-9.63307
-6.70534
-6.74679
-6.70435
-6.75063
-6.42421
-6.45099
-6.40718
-6.42699
-5.63834
-5.31957
-5.6933
-5.2475
-5.57547
-5.16557
-5.50504
-5.22917
-5.62371
-5.30735
-5.68221
-5.23546
-5.56514
-5.16464
-5.4967
-5.22199
-5.86479
-5.29871
-5.753
-5.39461
-5.85288
-5.28216
-5.74089
-5.37873
17558.1
13183.1
13142.5
13198.1
13157
12915.6
12865.2
12901
12853
12502.2
12442.8
12459.4
12402.7
10904.7
10043.6
10946.2
10005
10896.5
10030.7
10936.1
9990.49
10702.6
10038.1
10668
10044.7
10700.1
10067.1
10673.8
10045.7
-9.06875
-6.50982
-6.58715
-6.49368
-6.57273
-9.60524
-6.4784
-6.51687
-6.44686
-6.49001
-5.47805
-5.14594
-5.4705
-5.16538
-5.48227
-5.24152
-5.53804
-5.18552
-5.47055
-5.14579
-5.46574
-5.16296
-5.47969
-5.23138
-5.53182
-5.18413
-5.59572
-5.17244
-5.6498
-5.10264
-5.56019
-4.98456
-5.46574
-5.03558
-5.58958
-5.16094
-5.64182
-5.09754
-5.5548
-4.98674
-5.46347
-5.03262
16991
16642.6
12774
12640.1
12757.9
12625.3
12403.9
12356.5
12361.5
12316.3
10902.1
10072.1
10939.6
10046.6
10868.7
9925.26
10821.2
9998.52
10888.4
10053.4
10926.9
10022.9
10857.2
9930.41
10813.7
9981.47
10823.6
10118.9
10882.8
10057.7
10816.8
10121.2
10879.4
10046.8
-9.03716
-6.57565
-6.60454
-6.57636
-6.61814
-6.20936
-6.31375
-6.20128
-6.28492
-9.57994
-5.56831
-5.26435
-5.55626
-5.24063
-5.65061
-5.2862
-5.75897
-5.201
-5.55954
-5.24078
-5.54788
-5.21961
-5.6447
-5.2758
-5.75389
-5.18583
-5.43041
-4.98999
-5.42374
-5.01926
-5.42064
-5.07714
-5.45318
-5.04266
-5.42807
-4.99614
-5.42375
-5.02328
-5.41865
-5.06809
-5.44818
-5.04391
16328
16097.6
12144.8
12062.7
12107.2
12046.8
12281.9
12127.1
12232.4
12089.4
10661.8
9922.03
10741
9922.7
10616.2
9894.68
10608.9
9920.15
10657.3
9921.03
10734.1
9915.58
10614.3
9909.24
10608.1
9916.87
10839.3
10178.6
10889.3
10160
10810.1
9978.74
10804.5
10082.2
10826
10175.9
10882.5
10138.1
10796.6
9986.94
10798.8
10063.1
-8.48238
-8.94169
-6.31961
-6.30185
-6.30328
-6.29794
-5.04298
-5.13971
-5.34876
-5.01757
-5.37573
-5.62303
-5.08144
-5.60765
-5.00703
-5.46241
-5.04801
-5.13101
-5.35215
-5.02962
-5.37522
-5.6192
-5.07871
-5.60339
-5.0119
-5.46308
-9.56509
-5.48815
-5.07167
-5.46279
-5.09305
-5.53303
-5.0317
-5.4798
-5.05773
-5.45713
-5.07743
-5.52494
-5.0139
-5.24512
-4.87922
-5.24357
-4.86878
-5.24574
-4.90034
-5.24779
-4.88048
15725.5
15515.3
11912.9
11754.2
11905.2
11767.4
11498.8
11514
11486
11484.4
10550
9899.95
10586.5
9861.47
10622.3
9566.47
10583.6
9793.57
10546.5
9896.08
10582.7
9855.03
10619.5
9574.78
10580.8
9786.52
10673.8
10030.6
10750
10048.3
10588.7
10007.7
10514.9
10049.8
10670.4
10041.8
10749.1
10049.8
10585.6
10022.3
10517.1
10051.8
-8.32114
-6.05746
-6.04101
-6.03927
-6.03522
-8.88928
-6.04269
-6.08066
-6.02603
-6.06189
-4.93173
-4.86256
-5.26876
-5.31108
-4.88302
-5.31951
-4.97189
-5.45539
-4.85337
-5.34075
-4.94882
-4.86896
-5.27437
-5.31471
-4.89741
-5.32506
-4.96298
-5.45346
-4.85632
-5.34237
-9.5351
-5.24008
-4.86228
-5.22373
-4.85941
-5.23466
-4.84777
-5.24345
-4.87459
-5.22521
-4.86887
-5.23756
-4.85766
15205.8
14992.1
14789.6
11426.6
11187.8
11407.9
11191.7
9236.04
9583.01
10058
9165.49
10030.5
10413
8928.64
10080
9163.02
10068.3
9594.47
9294.97
10081
9242.14
10055.7
10416.9
9005.88
10101.2
9217.62
10088.6
10411.9
9981.4
10457.9
9947.63
10396.6
9844.48
10409.9
9991.39
10459.8
9943.55
10392.4
9824.42
10393.1
9919.54
10301
9943.95
10395
9948.59
10308.4
9961.45
-8.20588
-5.99029
-5.93704
-5.98537
-5.9417
-5.79164
-5.77671
-5.78316
-5.76065
-8.79073
-5.28109
-4.94687
-5.25362
-4.92225
-5.33882
-4.84847
-5.40665
-4.91132
-5.28017
-4.94283
-5.25161
-4.92065
-5.33662
-4.85182
-5.40262
-4.91057
-4.83162
-5.25683
-4.83876
-5.2101
-4.75145
-5.19559
-4.85549
-5.26253
-4.85041
-5.21345
-4.75998
-5.19917
-9.54529
14763.2
14481.8
14217.1
10652.8
10549.5
10632.5
10547.1
10808
10685.1
10807.6
10680.4
9476.82
9221.89
9830.1
10004.9
9210.68
9807.77
8938.97
9838.04
9178.03
9813.48
9540.09
9269.64
10024.1
9845.3
9240.91
9819.57
8977.54
9850.3
9213.37
9825.89
10138.5
9871.3
10214.8
9804.9
10014.6
9671.17
10147.9
9899.57
10223.1
9842.42
10027.3
9714.43
-7.44877
-8.02474
-5.74931
-5.61544
-5.73295
-5.61286
-4.70396
-4.71183
-5.0201
-4.66642
-5.0145
-5.30345
-4.58646
-5.1102
-4.64019
-5.05885
-4.71279
-4.71366
-5.02287
-4.68033
-5.01841
-5.30457
-4.59312
-5.11095
-4.65063
-5.0623
-8.80878
-5.25598
-4.74454
-5.22569
-4.76963
-5.21584
-4.71777
-5.2538
-4.73741
-5.22619
-4.76472
-5.2157
-4.71862
-9.57326
14442.7
14024.4
13642.2
10379.4
10202.2
10376.2
10210.8
10083.3
10034.5
10081.8
10025.8
9488.57
8696.55
9542.61
8670.55
9467.63
8371.29
9480.76
8625.83
9493.72
8721.13
9551.63
8681.59
9471.65
8410.33
9489.14
8638.63
9286.11
9874.09
8916.33
9495.25
9054.5
9568.22
9349.93
9892.43
8935.43
9502.21
9079.17
9576.01
-7.24905
-5.14973
-4.98929
-5.14964
-4.99561
-7.93457
-5.40974
-5.28295
-5.4046
-5.27512
-4.6284
-4.56851
-5.03783
-5.03359
-4.57357
-4.95961
-4.52153
-4.98342
-4.48838
-4.93317
-4.64901
-4.58586
-5.04423
-5.03962
-4.58865
-4.96645
-4.52952
-4.98742
-4.50255
-4.93929
-8.74817
-5.07904
-4.6197
-5.08306
-4.63789
-9.66318
14263.2
13701.2
13133.3
12617.6
9904.44
9617.19
9882.24
9612.92
8059.56
8347.99
8812.89
8033.47
8763.21
9225.72
7793.01
8817.8
8037.28
8779.56
8368.36
8095.43
8825.78
8068.09
8775.91
9233.22
7853.83
8834.27
8072.54
8792.46
9271.02
8691.7
9335.6
8689.03
9199.53
8610.44
9271.92
8715
9342.25
8689.99
9200.34
8616
-5.87133
-7.40046
-4.58338
-4.31079
-4.57282
-4.31314
-7.91495
-4.65657
-4.41581
-4.77961
-4.14442
-4.80095
-4.6542
-4.4185
-4.78367
-4.1404
-4.77906
-4.43842
-4.81973
-4.39494
-4.71819