/*--------------------------------*- C++ -*----------------------------------*\
| =========                 |                                                 |
| \\      /  F ield         | OpenFOAM: The Open Source CFD Toolbox           |
|  \\    /   O peration     | Version:  5.x                                   |
|   \\  /    A nd           | Web:      www.OpenFOAM.org                      |
|    \\/     M anipulation  |                                                 |
\*---------------------------------------------------------------------------*/
FoamFile
{
    version     2.0;
    format      ascii;
    class       volScalarField;
    location    "1.9";
    object      p_rgh;
}
// * * * * * * * * * * * * * * * * * * * * * * * * * * * * * * * * * * * * * //

dimensions      [1 -1 -2 0 0 0 0];

internalField   nonuniform List<scalar> 
12160
(
5600.53
5625.42
5600.41
5634.45
5625.32
5600.58
5648.21
5634.14
5625.36
5600.16
5663.63
5647.9
5634.03
5625.03
5600.71
5680.2
5663.37
5647.54
5632.88
5625.23
5599.89
5697.64
5679.94
5662.84
5646.77
5632.69
5624.51
5601.05
5715.56
5697.44
5679.47
5662.01
5645.99
5630.81
5624.92
5599.84
5733.77
5715.4
5697.08
5678.61
5661
5644.85
5630.45
5596.37
3257.71
5752.62
5733.53
5715.14
5696.48
5677.66
5659.41
5643.57
5607.33
3495.05
139.79
5773.38
5752.12
5733.11
5714.72
5695.77
5676.09
5657.58
5626.22
3520.4
141.247
6.88207
5797.53
5772.51
5751.19
5732.48
5714.33
5694.83
5674.43
5632.29
3602.98
146.918
1.53328
0.156777
5826.49
5796.28
5770.83
5749.78
5731.89
5713.93
5693.84
5640.16
3677.61
168.416
0.383243
0.0731121
-0.0760895
5861.24
5824.97
5793.84
5768.23
5748.13
5731.33
5713.52
5652.07
3792.71
213.319
0.34794
0.0310197
-0.0476822
0.0674641
5901.77
5859.64
5821.97
5790.01
5764.9
5746.26
5730.92
5668.15
3926.5
274.994
0.674645
0.0291892
0.00441631
0.0562758
-0.0663179
5946.97
5900.33
5856.55
5817.23
5784.91
5760.73
5744.18
5683.3
4037.75
377.344
1.12522
0.0217617
0.0197187
0.0270408
-0.054862
5994.65
5945.92
5897.7
5851.54
5810.82
5778.26
5755.63
5693.47
4114.2
512.34
2.23715
0.0148702
0.0277954
0.0147058
-0.0155151
6042.25
5994.21
5944.3
5893.17
5844.79
5802.29
5769.83
5702.48
4142.74
624.599
4.45918
0.00622792
0.0274686
0.00689239
0.000889804
6087.13
6042.53
5993.97
5941.04
5887.31
5835.65
5791.33
5717.25
4141.94
679.302
9.39376
0.00106824
0.0183004
0.0040183
0.0083799
6126.8
6088.14
6043.82
5992.66
5937.27
5879.03
5823.85
5746.73
4155.92
687.267
14.6754
-0.00935624
-0.0033355
0.00444499
0.00777663
6159.22
6128.5
6090.95
6044.79
5991.7
5931.28
5868.47
5793.75
4226.55
684.271
17.1625
0.0222821
-0.023572
-1.5423e-05
0.00186659
6182.79
6161.52
6132.75
6094.21
6046.98
5989.32
5924.23
5853.24
4388.56
702.597
18.1415
0.0684131
-0.033395
-0.0037191
-0.00311932
6196.43
6185.58
6167.01
6138.12
6099.53
6048.93
5986.98
5914.67
4633.77
785.02
19.7277
0.132447
0.00999735
0.00411145
-0.00843408
6199.7
6199.57
6192.07
6174.21
6146.36
6105.68
6051.66
5982.61
4955.4
966.678
24.4841
0.196769
0.044181
0.00828602
-0.0114804
6192.26
6203.05
6206.8
6200.73
6185.01
6156.34
6113.31
6053.51
5290.75
1266.42
36.6905
0.265949
0.0764245
0.0249
0.00159586
6174.56
6195.69
6210.77
6216.51
6213.58
6198.28
6168.37
6121.84
5580.69
1693.43
65.5949
0.377265
0.0965133
0.0401588
0.00826077
6147.32
6177.91
6203.62
6221.13
6230.86
6229.44
6214.19
6183.13
5801.22
2218.78
121.918
0.664499
0.0910542
0.0487277
0.0156412
6111.55
6150.43
6185.83
6214.24
6236.42
6248.53
6248.5
6233.99
5962
2777.89
213.011
1.6761
0.0616898
0.0496989
0.0195968
6068.56
6114.19
6158.12
6196.29
6229.96
6255.17
6270
6272.32
6075.76
3303.63
340.638
4.54493
0.0124995
0.0431622
0.0164904
6020.2
6070.25
6121.59
6167.96
6211.9
6249.19
6278.15
6296.58
6151.68
3748.52
497.389
10.3074
-0.0178323
0.0358382
0.00572225
5966.31
6019.31
6077.73
6130.2
6183.01
6230.95
6272.81
6306.24
6195.76
4083.6
665.55
19.6308
0.00433437
0.0176861
-0.0117655
5910.17
5967.43
6028.7
6083.88
6144.49
6201.16
6254.3
6301.58
6213.36
4297.33
820.24
32.3105
0.0955556
-0.018817
-0.0214547
5852.63
5911.06
5971.85
6029.48
6098.15
6160.8
6223.4
6282.81
6208.76
4391.55
935.736
46.6052
0.280882
-0.0485293
-0.0194177
5794.96
5853.01
5913.71
5975.8
6045.82
6111.12
6181.44
6250.48
6180.23
4376.29
993.798
58.9494
0.560371
-0.0640842
-0.0181108
5738.27
5794.8
5854.29
5916.51
5984.69
6054.89
6130.49
6205.78
6124.47
4247.73
983.859
65.7373
0.846257
-0.0741699
-0.0218905
5683.53
5737.62
5794.86
5855.41
5921.84
5992.16
6070.73
6149.63
6038.46
4003.39
910.087
64.6243
1.00752
-0.0805896
-0.025524
5631.51
5682.43
5736.59
5794.32
5857.88
5926.34
6004.78
6086.37
5916.03
3651.06
786.445
56.371
0.985351
-0.0853842
-0.0281644
5582.73
5630
5680.44
5734.56
5794.28
5859.16
5934.53
6014.74
5744.91
3203.74
633.991
43.7853
0.778636
-0.0896297
-0.0301199
5537.18
5580.94
5627.14
5677.06
5732.32
5792.66
5863.01
5935.88
5512.2
2685.72
474.024
30.5357
0.478509
-0.0910689
-0.0313568
5496.81
5535.04
5577.21
5622.55
5672.95
5728.16
5792.6
5849.41
5205
2134.45
325.699
18.9867
0.218369
-0.09115
-0.0311192
5494.51
5437.56
5531.3
5571.54
5616.81
5666.52
5724.77
5754.8
4846.28
1589.27
201.022
10.3385
0.0380654
-0.0872228
-0.0309252
5490.17
5434.94
5377
5524.97
5564.41
5608.26
5660.27
5650.33
4444.53
1107.62
110.354
4.74583
-0.0708695
-0.07028
-0.0304653
5483.06
5430.11
5374.14
5342.26
5516.96
5553.73
5599.2
5536.28
4014.41
754.194
57.7671
1.92315
-0.0740123
-0.0416352
-0.0326797
5474.61
5421.56
5370.34
5337.12
5317.22
5504.36
5541.81
5412.73
3576.36
514.235
31.2819
0.792681
-0.0416415
-0.0255806
-0.0367666
5460.05
5413.51
5359.7
5339.48
5314.73
5308.74
5489.55
5281.89
3148.72
352.204
17.8233
0.387265
0.00311388
-0.00712476
-0.0291184
5442.7
5395.42
5354.65
5324.83
5312.44
5307.29
5304.35
5148.73
2751.03
242.211
10.6587
0.231385
0.0359076
0.00829057
-0.0195646
5020.09
5374.59
5333.71
5321.23
5302.77
5305.13
5301.82
5300.81
2402.22
168.782
6.61008
0.167958
0.0599713
0.0204918
-0.00871052
2107.37
4824.26
5310.64
5304.88
5300.76
5298.96
5298.45
5299.66
5296.51
122.585
4.27696
0.141442
0.0771878
0.0308018
-0.000391603
92.0774
1712.13
4629.93
5275.7
5284.8
5297.39
5293.04
5295.69
5292.18
5321.49
2.95957
0.132298
0.0858861
0.0366148
0.00533942
1.98313
55.7552
1403.06
4548.18
5251.99
5286.41
5290.36
5293.46
5287.13
5306.29
5217.94
0.12961
0.0894299
0.0409783
0.00881426
0.128868
0.9953
38.7389
1299.38
4485.94
5252.6
5281.43
5291.6
5275.35
5268.88
5231.67
5461.98
0.0899491
0.0449007
0.0112296
0.0911767
0.142831
0.676545
36.9265
1245.75
4508.25
5234.65
5288.44
5272.56
5231.4
5209.82
5363.57
4924.92
5170.41
0.0484903
0.0130674
0.0522207
0.0983632
0.156432
0.646985
40.2937
1309.84
4472.26
5230.79
5275.63
5229.11
5160.1
5247.48
5019.5
4725.17
4773.53
4828.38
0.0143601
0.0156952
0.0597244
0.0976309
0.152738
0.680991
50.6435
1362.07
4479.63
5220.45
5251.1
5128.83
5138.92
5094.54
4928.98
4486.56
4499.3
4555.66
4587.91
0.0173295
0.0690043
0.102669
0.164723
0.796014
62.4844
1446.4
4422.8
5248.2
5144.41
5111.2
5162.21
5093.9
4729.5
4243.26
4257.75
4301.96
4396.19
4466.87
0.0157428
0.0676837
0.115688
0.193253
0.962577
69.6936
1473.63
4546.97
5240.33
5207.28
5253.85
5214.95
4966.99
4505.05
3993.55
4005.45
4074.1
4180.65
4314.03
4455.91
0.0195065
0.0756402
0.147296
0.270992
0.98573
92.9268
1239.48
5002.08
5364.41
5360.36
5337.95
5177.8
4776.87
4288.43
3726.43
3721.41
3811.15
3960.72
4135.53
4321.47
4535.56
0.0242675
0.0952523
0.217666
0.379707
0.995859
82.9615
1311.21
5470.38
5493.05
5477.12
5351.79
5043.62
4608.62
4055.62
2640.83
3393.88
2645.65
2876.24
2879.19
3460.33
3665.96
3910.88
4165.69
4414.17
4694.86
0.0334503
0.142136
0.331669
0.543218
1.08358
43.8413
2480.68
5576.31
5596.91
5500.21
5291.74
4916.66
4438.63
3801.02
2416.06
2505.32
3019.06
2421.56
2206.4
2210.6
2506.34
2709.4
2709.15
3221.56
3590.01
3935.94
4262.02
4587.51
4913.53
0.051387
0.211789
0.48765
0.625026
1.57756
20.8881
3366.29
5640.41
5621.67
5467.67
5187.09
4780.8
4238.3
2888.24
2885.35
3139.71
3139.93
2267.8
2397.66
2667.46
2540.18
2269.17
2023.65
2025
2388.15
2646.02
2637.67
3094.02
3608.26
4048.57
4432.01
4811.91
5180.79
0.0765967
0.285954
0.593535
1.20052
3.75752
74.2612
3609.46
5701.6
5594.89
5386.17
5073.46
4615.84
3390.92
3391.2
3635.9
3636.2
2791.52
2788.09
3069.43
3064.38
2126.98
2170.44
1858.16
2024.03
2004.19
2460.38
1986.18
1135.58
1135.73
1508.5
1505.33
2118.24
1835.93
1828.65
2166.93
1859.62
2019.84
2002.84
2332.15
2234.79
2470.05
2142.22
2328
2233.61
2464.99
2137.95
3093.03
3716.49
4236.79
4662.06
5075.15
5504.26
0.104114
0.270703
0.649661
6.33792
28.3106
176.82
4276.58
5677.72
5498.91
5276.77
4913.45
3870.77
3870.71
4098.14
4098.03
3333.34
3326.31
3590.17
3581.02
2368.78
2243.94
2479.88
2475.86
2615.12
2346.34
2242.26
2370.98
2480.14
2477.39
2614.96
2345.45
2757.1
2904.5
2619.14
2770.92
2758.72
2903.99
2620.72
2770.69
1727.72
1709.56
1873.26
1557.87
2069.94
1878.03
1925.98
2018.64
2447.98
1573.24
478.996
478.388
792.054
791.941
914.233
908.662
1317.2
1312.38
1724.41
1710.43
1869.08
1556.48
1577.44
1183.64
1451.86
1389.1
1574.15
1186.73
1447.56
1388.07
2070.24
1881.2
1926.01
2022.38
2238.8
2150.51
2237.85
2150.16
3224.8
3912.65
4483.52
4921.37
5365.36
5886.05
0.102914
0.126353
4.47439
34.2288
118.527
275.18
3902.55
5610.23
5390.46
5145.17
4260.93
4260.98
4459.13
4459.62
3820.95
3813.08
4059.65
4050.26
2891.62
3035.44
3007.65
3148.9
2894.76
3035.25
3014.26
3148.98
3289.59
3430.17
3148.39
3288.12
3292.5
3428.93
3152.78
3287.6
2259.21
2402.82
2483.28
2322.33
2518.81
2580.55
2260.76
2405.66
2322.49
2484.01
2520.75
2581.07
2789.44
2846.52
2665.85
2723.85
2793.13
2847.39
2668.57
2724.63
1637.11
1732.13
1779.61
1581.07
2052.99
1849.72
1904.01
2005.83
2596.48
1447.47
-0.0849755
-2.03791
206.528
203.753
222.858
214.67
536.768
530.097
347.295
499.12
572.281
719.558
353.934
500.531
578.077
720.706
981.559
1212.29
1093.88
781.973
926.33
1339.18
986.272
1212.45
1094.54
786.678
926.938
1338.77
1636.98
1733.64
1779.23
1583.19
1474.4
1386.28
1474.46
1388.26
2052.62
1850.85
1904.64
2003.41
2199.23
2133.86
2198.68
2133.24
3475.43
4187.38
4762.97
5197.46
5701.19
6297.51
-0.0159054
0.863822
15.7144
54.0924
208.152
322.423
3454.28
5486.23
5254.12
4610.5
4611.12
4748.7
4749.09
4223.23
4219.16
4404.51
4403.01
3409.04
3549.72
3518.48
3665.42
3411.36
3548.57
3524.32
3664.71
3758.87
3955.6
3633.59
3787.77
3760.09
3952.69
3636.99
3786.15
2930.79
2986.27
3055.33
3105.57
2934.15
2987.21
3059.63
3107.25
3321.45
3362.15
3188.92
3227.76
3326.1
3363.56
3192.4
3229.41
1614.68
1690.29
1749.67
1558.89
2889.72
1640.79
-154.456
-151.878
-126.326
-127.295
-203.17
-218.386
-20.8573
-30.9537
-361.91
-214.415
-175.944
-10.7006
-350.681
-212.328
-164.524
-8.24653
143.191
292.982
-12.9616
146.699
151.519
294.995
-0.168296
149.264
357.785
427.415
584.54
641.152
367.135
430.625
591.546
643.749
1155.01
952.759
1024.37
1218.07
780.597
837.726
1158.54
956.828
1025.2
1219.37
785.593
839.328
1613.36
1691.54
1750.15
1554.53
1427.12
1356.87
1427.13
1357.58
3790.56
4500.99
5038.88
5491.48
6082.75
6685.5
-0.225019
3.11076
11.7952
17.9177
204.001
499.005
2683.47
5200.44
5109.99
4549.99
4549.49
4660.53
4661.18
4152.4
4150.08
4349.16
4345.54
3446.47
3486.82
3557.87
3601.99
3448.11
3487.52
3559.72
3602.6
3750.52
3848.54
3659.89
3718.75
3751
3848.24
3661.32
3719.08
3329.25
3377.28
3335.4
3378.96
3276.95
2068.69
-10.149
-6.57127
-130.174
-128.496
-411.527
-419.818
-344.594
-356.011
-822.05
-585.399
-731.288
-513.407
-830.532
-590.329
-729.36
-515.356
-498.689
-349.018
-579.854
-393.983
-491.427
-348.049
-574.08
-394.323
-330.043
-253.719
-184.577
-114.419
-319.036
-250.245
-175.574
-110.889
172.913
247.115
2.33298
72.9709
183.139
250.659
12.8795
76.9436
4143.46
4807.04
5300.61
5835.06
6445.38
6994.08
-0.337643
2.54593
1.68479
3.67965
171.378
609.132
1414.09
4649.03
4742.81
4743.05
4709.08
4709.88
4509.48
4504.19
4625
4626.39
4041.6
3844
3932.4
3934.99
4041.03
3842.78
3932.18
3934.55
4145.54
4138.33
4253.5
4035.71
4144.45
4140.79
4252.33
4035.58
3441.37
3489.47
3550.35
3599.19
3445.26
3490.79
3552.61
3600.05
3761.01
3810.98
3648.92
3700.1
3763.79
3811.8
3650.51
3700.84
3690.3
2613.78
1258.45
-377.646
-373.943
-422.862
-428.579
-674.275
-680.426
-592.055
-599.326
-868.005
-715.831
-785.81
-601.947
-865.614
-717.142
-778.443
-601.324
-494.026
-391.391
-594.943
-481.686
-486.552
-388.665
-582.95
-478.873
-397.122
-303.577
-384.193
-299.775
4506.47
5067.43
5588.57
6158.89
6784.54
7058.34
-0.24511
0.404495
0.24916
2.09179
177.402
547.879
585.176
3080.39
4701.33
4697.34
4349.35
4348.46
4214.16
4328.69
4438.6
4286.52
4217.06
4327.29
4435.73
4286.76
4580.66
4577.09
3992.93
3853.95
3903.19
3955.07
3993.37
3857.08
3903.96
3955.78
4089.02
4143.56
4184.13
4053.31
4089.26
4144.74
4184.33
4054.59
3775.27
3834.24
3779.69
3835.31
4133.86
3170.52
1999.09
-202.681
-200.962
-492.249
-493.28
-632.686
-633.338
-660.089
-676.478
-1043.04
-1222.88
-1061.93
-1195.29
-1037.58
-1204.25
-1058.12
-1178.35
-898.14
-1005.72
-879.922
-1075.94
-897.301
-1004.55
-879.988
-1070.97
-895.176
-784.218
-781.175
-662.147
-889.712
-783.667
-776.013
-660.792
-535.683
-435.858
-630.489
-529.779
-525.395
-432.702
-621.86
-527.244
4804.36
5322.42
5873.84
6450.31
6875.71
-0.411585
-0.0486894
0.0561445
1.86696
102.724
270.633
740.662
1894.57
1892.95
1351.37
1360.63
4345.48
4561.69
4109.06
4623.74
4344.88
4560.3
4112.23
4622.68
3545.52
3546.25
4215.83
4261.5
4349.52
4268.69
4216.36
4261.44
4348.81
4268.87
4387.32
4489.82
4333.22
4398.89
4387.86
4488.49
4333.02
4398.02
4094.9
4109.56
4146.06
4052.37
4095.73
4113.72
4147.3
4056.3
4499.81
3711.33
2710.94
1584.1
-384.551
-402.092
-679.484
-692.191
-780.673
-794.499
-1335.88
-1096.27
-1043.74
-1298.05
-1338.74
-1097.15
-1044.88
-1299.71
-1065.87
-1292.25
-1118.08
-1212.87
-1063.25
-1279.61
-1114.98
-1206.07
-958.19
-1028.38
-883.499
-1104.9
-957.851
-1024.97
-883.12
-1104.17
-918.103
-796.158
-910.561
-794.956
5055.24
5583.57
6113.43
6561.96
-0.352813
-0.0878696
0.013698
0.582452
29.0407
193.368
1279.78
1299.41
478.399
474.151
1285.3
1319.04
1303.1
1332.26
4166.08
4499.03
3731.48
4459.57
4165.68
4498.94
3733.6
4460.74
3467.47
1911.94
2839.67
2569.54
3467.44
1915.47
2854.32
2564.17
4189.02
4221.58
4303.65
4267.83
4190.91
4222.39
4303.74
4268.37
4387.65
4426.31
4322.41
4349.18
4388.91
4426.47
4322.77
4349.2
4772.13
4174.71
3353.37
2473.6
54.274
52.3062
-268.901
-274.694
-609.648
-613.059
-1429.01
-1055.94
-1424.66
-1020.41
-1421.35
-1054.54
-1406.11
-1017.15
-1418.75
-1141.41
-1381.1
-1159.87
-1374.91
-1147.82
-1401.3
-1138.44
-1368.38
-1156.51
-1372.47
-1148.23
-1344.05
-1104.55
-1336.49
-1103.73
-1092.78
-1263.88
-1159.01
-1210.76
-1090.15
-1250.98
-1155.37
-1202.21
5300.68
5787.01
6216.65
-0.248665
-0.0632669
0.01875
0.00301085
7.38558
49.787
1400.45
1398.42
348.118
350.664
737.443
1622.6
1082.68
975.083
1914.51
2224.13
1633.11
840.598
2255.96
1140.84
1111.36
2164.33
1709.39
2382.78
1547.9
2507.94
1730.73
2421.88
1627.19
2584.86
3806.99
4441.15
3563.47
4356.24
3808.53
4441.86
3564.35
4356.41
2752.56
2035.02
2765.86
2027.88
4302.48
4269.91
4302.67
4270.85
4185.42
4417.67
4187.2
4418.26
5019.76
4502.09
3919.1
3215.78
708.582
719.887
351.391
349.9
8.02971
-3.50872
-369.653
-371.846
-950.516
-1348.92
-851.116
-1340.97
-1070.55
-1369.98
-946.634
-1328.03
-847.097
-1329.93
-1067.14
-1358.45
-1360.73
-1119.69
-1348.43
-1116
-1347.36
-1148.72
-1323.81
-1320.59
-1129.76
-1187.21
-1330.73
-1144.74
-1313.94
-1307.28
-1127.36
-1183.97
-1288.5
-1183.75
-1278.01
-1180.84
5490.06
5883.92
-0.182758
-0.0253494
0.126285
0.0103189
1.17135
16.2454
16.2902
5.40234
5.39049
921.948
899.434
113.943
113.537
1076.24
718.443
1162.94
930.414
806.824
1812.01
1135.79
764.049
930.282
1218.81
893.429
1920.91
1630.55
2346.64
1456.67
2505.86
1629.4
2363.54
1459.93
2559.16
2872.16
3656.66
2865.36
3657.99
5216.89
4776.18
4311.47
3840.21
3340.45
731.211
727.377
386.862
364.897
-891.994
-255.492
-944.067
-477.684
-868.183
-252.635
-924.518
-472.533
-1157.07
-1245.42
-791.731
-1056.06
-660.822
-882.593
-1143.56
-1231.56
-787.665
-1029.22
-654.367
-878.508
-987.642
-1116.17
-1235.1
-1312.81
-984.746
-1111.86
-1228.34
-1300.96
-1326.89
-1161.4
-1312.88
-1156.47
-1355.83
-1193.62
-1298.21
-1155.54
-1334.71
-1187.7
-1285.83
-1152.24
5571.99
-0.136919
0.00909985
0.237265
0.288842
3.99542
6.78445
6.75746
5.50701
5.50813
233.756
780.594
612.115
221.342
230.62
851.984
625.291
227.239
48.432
47.3815
1746.49
2556.95
1841.15
3086.02
1682.63
2665.31
1650.75
3086.71
5293.22
4992.13
4623.59
4279.67
3999.2
1361.32
1378.17
1033.26
1030.73
745.326
741.932
407.216
395.082
-705.741
-316.214
-735.455
-561.271
-689.128
-312.545
-721.712
-556.724
-1160.21
-997.33
-909.169
-796.931
-872.647
-711.57
-1147.27
-986.532
-793.461
-905.977
-858.746
-706.365
-1109.66
-1294.01
-1106.03
-1283.28
-0.0536708
-0.00585954
0.102963
1.32047
5.84155
6.15043
6.05803
6.03403
7.00744
6.96731
5.39773
5.49381
118.782
610.442
352.879
150.654
118.56
669.06
376.764
155.011
12.4385
15.9437
36.8022
42.3508
12.005
15.4495
36.0441
41.3265
1480.84
1540.51
1552.69
1738.64
5087.24
4875.98
4622.37
4461.5
4341.28
1446.14
1446.67
1235.72
1211.73
894.327
874.256
200.429
-534.008
-52.9758
-528.349
195.833
-534.718
-53.6702
-533.45
-539.353
-354.113
-629.947
-525.978
-523.874
-350.189
-614.597
-520.958
0.0210288
-0.0380526
0.0446391
0.684853
5.88343
6.29142
4.84472
4.68389
9.66167
10.7724
6.23764
5.98565
6.79823
4.9195
9.1787
10.4891
6.53462
6.20671
6.86584
5.85255
5.79846
6.61266
43.8444
252.571
103.053
61.3726
43.232
276.986
111.845
64.3303
14.0119
18.7007
13.1373
18.2988
4975.59
4902.18
4807.28
4863.76
2095.88
2113.11
1727.9
1727.99
1434.58
1444.24
1380.61
1358.59
-249.87
576.123
-190.989
317.827
-359.171
146.909
-210.295
579.232
-169.013
324.141
-358.028
147.05
-346.563
-117.845
-334.516
-114.284
-423.288
-274.313
-408.409
-270.994
0.0284022
0.0285094
-0.113678
0.85844
0.728499
0.982884
0.97195
4.95033
4.85221
2.5543
1.91707
6.08235
6.91108
5.3391
4.82791
7.27305
4.55133
6.28686
6.91841
6.0049
5.24961
7.29973
5.4631
5.82475
8.26541
4.69936
8.33727
6.33995
8.25301
5.96131
8.32605
5004.69
5114.38
5187.74
5445.03
2231.45
2227.07
2021.75
1994.32
1821.22
1800.53
-0.795039
579.731
1108.68
238.285
857.113
223.124
1101
238.207
855.963
215.746
20.1295
584.912
5.3753
-178.907
336.682
94.6451
20.7097
-154.39
342.421
101.38
-246.714
-58.3418
-224.795
-52.5548
0.0480689
0.066373
-0.266024
0.0638962
0.0822396
0.676041
0.678771
5.19531
7.48037
2.40293
2.49319
4.31577
2.28332
5.64133
7.8806
2.43457
2.35749
4.04211
2.15314
0.367415
0.336507
7.53159
4.22515
8.40518
5.66816
4.3384
7.98755
5.51748
7.96355
5205.28
5488.19
5746.07
2812.34
2817.8
2532.66
2527.24
2382.98
2377.48
2204.56
2188.27
470.081
1419.53
574.702
1191.82
420.497
1021.87
508.126
416.672
1019.92
1424.74
592.455
1196.38
257.788
604.462
456.639
815.903
456.65
273.252
815.727
608.708
0.105215
0.311047
-0.390989
-1.73219
-1.73681
-0.296645
-0.307831
2.59488
7.38044
1.85965
1.44041
2.64255
1.28866
2.57598
4.31801
1.80986
1.25006
2.07353
1.18251
-0.272833
0.402053
-0.221051
2.27496
-0.315627
0.364486
-0.329318
2.04639
3.5019
7.57637
4.16989
3.82539
5586.79
6011.43
6417.82
3012.35
3003.63
2827.75
2801.03
2589.34
2583.18
715.146
1361.51
1775.2
872.86
1534.5
794.84
742.168
1369.17
1774.52
873.173
1536.07
793.304
820.571
651.656
1162.99
992.338
664.364
994.606
836.429
1168.56
0.225191
0.709513
4.43618
-0.617028
-0.632869
4.4226
4.0717
4.05376
-4.01501
-1.62618
-1.80903
-4.0287
-1.64766
-1.84807
1.77762
3.76075
3.32584
0.433003
3.25361
-0.192119
1.56669
2.06005
2.30821
0.191499
2.39055
-0.405433
-1.41965
0.673007
-1.60692
-0.389673
6099.8
6618.5
7069.36
3230.67
3225.05
3013.01
3000.81
967.618
2007.42
1094.87
1803.79
1000.37
1646.5
1004.83
1004.85
1650.36
2015.8
1122.49
1812.41
966.359
1299.11
1109.66
1415.81
993.678
1307.3
1128.49
1422.23
958.814
1226.02
985.379
1233.49
0.390859
2.36393
4.08014
8.12624
4.09859
8.13049
4.21973
4.21039
5.90172
-3.13769
-3.22236
-4.0883
-4.46781
6.94481
0.28461
-0.418466
-3.18883
5.95165
-3.24727
-4.10542
-4.46645
6.95674
0.290628
-0.422533
2.51664
-0.883551
1.06179
-1.17667
-2.58044
-2.75492
-2.60311
-2.99023
6694.5
7198.55
3803.35
3372.49
3350.75
3813.95
3570.22
3570.37
3133.2
1202.6
1968.66
3130.48
1241.18
1981.89
1229.93
1358.58
1561.05
1773.95
1257.37
1570.25
1381.13
1783.2
1072.19
1327.01
1213.92
1476.22
1097.53
1334.39
1243.58
1485.11
0.925655
-0.183718
39.2338
16.88
23.3376
2.70382
39.2054
16.8908
23.5181
2.71158
3.02478
3.0119
15.6095
37.7171
-2.13119
-1.06966
26.5387
43.4864
15.4516
-2.19003
37.6693
-1.12317
26.5414
43.5312
-0.397445
-1.56122
-1.14552
-1.7675
7298.82
7716.25
3923.87
3394.22
3392.84
3917.04
3811.66
3795.41
1456.33
1323.7
2038.74
1265.97
1976.71
2309.15
1317.05
2417.55
1473.27
1355.55
2049.94
1306.84
1990.87
2314.15
1359.05
2424.44
1349.71
1438.45
1637.43
1818.43
1364.29
1645.09
1459.45
1826.64
0.187419
1.18042
0.117676
0.120085
1.1821
1.86481
1.85229
24.7822
84.9196
65.7956
136.309
63.0299
40.6214
38.6709
102.802
-3.62139
7.41019
14.4647
24.7263
84.9707
65.7122
135.497
63.1
40.4648
38.6327
102.704
-3.64699
7.42823
14.3687
53.4234
91.185
89.0058
143.914
53.0885
91.0371
89.0514
143.798
7866.71
8129.32
4040.83
3522.26
2405.33
1583.95
3526.57
2408.53
1598.76
4025.54
3865.78
3839.43
1537.72
1751.56
1441.79
2057.78
1934.3
2290.1
1557.85
1756.51
1466.64
1941.1
2062.35
2290.02
1423.1
1735.48
1438.96
1741.55
-0.10076
-0.0623685
1.12215
-0.039029
1.1174
1.53522
1.52714
87.6169
41.1303
107.143
152.074
15.5529
49.6749
-1.98554
-5.21759
-5.47179
-3.74491
-4.48848
-2.52269
-0.16529
-0.827879
87.3689
41.1272
152.115
107.847
15.6146
50.1562
-5.26676
-2.02312
-5.56557
-3.76404
-4.58053
-2.54176
-0.189837
-0.838494
8281.84
4250.31
4101.63
4061.54
4274.05
4206.95
4182.12
1579.84
2400.49
1682.15
2419.93
1631.19
2602.64
1761.94
2565.34
1644.92
2406.35
1708.67
2429.39
1646.87
2616.02
1806.75
2577.46
3809.33
1800.82
2602.8
3797.1
1866.83
2625.54
1682
1803.41
2173.12
2307.94
1691.1
1807.14
2172.28
2310.94
-0.241021
0.225625
-0.2126
0.155938
1.21215
0.253113
-0.20622
0.167113
1.2118
1.65299
1.63813
14.2159
23.6539
-2.56933
-2.149
-3.77979
-1.22987
-7.21455
-7.66256
-3.68602
-1.47287
14.2596
24.097
-2.5045
-2.17588
-3.8524
-7.23657
-1.22413
-7.80486
-3.77055
-1.47056
8619.21
4312.81
4049.23
4006.94
4326.72
4277.44
4251.67
1783.12
1890.53
2345.1
2345.49
2019.93
2544.35
1802.28
1917.53
2351.96
2354.64
2065.95
2562.97
1983.98
1879.14
2552.78
1806.91
2528.68
2764.78
1768.25
2667.15
2005.53
1921.19
2568.83
1880
2556.8
2768.36
1784.4
2665.14
-0.195775
1.73145
1.71228
0.660481
0.202405
0.96835
0.600902
0.581695
1.3853
0.68508
0.207925
0.978816
0.605046
0.594403
1.38274
-5.13384
-2.2781
-0.423195
-5.2573
-2.36874
-0.684517
-5.20644
-2.31678
-0.411098
-5.38314
-2.40823
-0.680054
8875.72
4333.39
4166.25
2760.78
1993.34
4108.78
2756.01
1981.98
4353.43
4344.78
4326.53
2006.76
2415.95
2075.55
2532.56
2037.62
2424.32
2115
2554.63
2145.51
2212.94
2070.51
2551.32
2543.63
2794.07
2172.61
2195.58
2094.79
2556.37
2560.02
2787.59
-0.153383
1.83404
2.044
1.81287
2.00351
1.01674
1.22009
1.31324
0.951949
1.55632
0.270227
-0.00378475
1.58295
1.04112
1.22134
1.31311
0.955462
1.55649
0.273054
-0.00300737
1.58132
-1.0042
-1.22807
-1.02886
-1.23748
8936.99
4369.72
4387.67
4213.64
2653
2046.15
2677.78
2025.36
4171.73
2645.66
2040.16
2671.25
2012.4
4378.43
4358.64
2227.51
2122.37
2251.13
2601.92
2578.95
2734.72
2266.28
2147.32
2240.85
2585.23
2610.28
2730.92
-0.214456
2.00143
2.00161
1.97934
1.98066
1.99636
1.92142
1.34482
1.45925
2.03717
1.68584
1.79348
0.905542
0.81238
0.523596
1.19692
-0.037319
-0.283154
1.36701
1.46173
2.04168
1.69201
1.79528
0.90974
0.809287
0.524236
1.20031
-0.0641347
-0.291285
8903.68
4383.41
4373.06
4406.77
4402.77
4240.78
2668.13
2034.42
2677.58
2061.29
2277.57
2744.5
4198.6
2665.88
2048.31
2675.37
2058.05
2283.65
2745.54
4403.34
4386.36
2202.78
2601.89
2246.5
2611.8
-0.142387
2.02486
2.03446
2.00379
2.01777
1.87727
1.88929
1.8662
1.88607
2.11533
2.0274
2.03189
2.22549
1.85837
2.40405
1.20646
1.91076
1.50533
1.55241
0.812403
0.671814
0.379747
1.15826
2.03972
2.23278
1.86705
2.41209
1.21233
1.91728
1.51294
1.55707
0.809249
0.645104
0.372354
1.13698
8815.6
4360.19
4324.41
4388.94
4351.19
4413.99
4400.87
4246.69
2700.07
2057.91
2751.74
2058.74
2781.13
2290.2
2771.94
2311.33
2247.7
2637.15
4210.12
2699.49
2071.4
2753.53
2057.11
2782.39
2309.56
2775.48
2326.42
2292.79
2648.79
-0.167362
1.98765
1.95319
1.97622
1.93573
1.93942
1.93157
1.93476
1.93121
1.89845
1.7966
1.87814
1.81173
2.42652
3.11434
3.15986
2.91676
2.41222
2.94935
3.17649
2.86586
1.85556
2.16711
1.72146
2.34659
1.86501
2.17446
1.72894
2.35897
8532.53
4287.1
4248.59
4308.54
4268.64
4403.71
4368.26
4390.3
4353.2
4295.65
4255.15
2837.44
2033.67
2782.07
2065.48
2825.07
2317.31
2862.59
2330.8
2751.41
2322.41
2730.59
2354.99
2834.98
2061.99
2784.2
2064.9
2823.03
2348.13
2872.04
2327.1
2759.88
2362.34
2741.17
2385.4
-0.251876
-0.153179
1.93589
1.89697
1.93683
1.89307
1.84957
1.83911
1.86651
1.86304
2.47038
2.84175
2.90486
2.93001
2.44666
2.83895
2.4995
2.79853
2.47739
2.82409
2.81052
2.90598
2.45656
2.83984
2.5078
2.80331
2.2326
2.95469
3.04327
2.73214
2.23679
2.78107
2.81357
2.71902
8078.88
4211.26
4165.79
4224.43
4179.08
4323.81
4264.55
4306.53
4249.86
4287.92
4224.38
4244.17
4183.81
2906.31
2143.04
2952.89
2099.95
2897.91
2130.85
2941.98
2086.05
2856.33
2264.58
2848.31
2243.42
2855.3
2298.76
2862.57
2245.65
-0.251281
1.79168
1.71887
1.80778
1.73327
-0.124137
1.81957
1.78215
1.85102
1.8089
2.53146
2.85581
2.53127
2.84429
2.544
2.79734
2.50092
2.84088
2.53893
2.85592
2.53598
2.84665
2.54656
2.80748
2.50709
2.84221
2.35872
2.80046
2.72995
2.87638
2.32516
2.88403
2.40285
2.85696
2.36135
2.79057
2.60954
2.86054
2.33043
2.88185
2.40512
2.85863
7511.19
7832.89
4159.75
4011.53
4141.85
3994.7
4189.91
4125.32
4146.77
4084.75
2907.3
2171.72
2943.17
2149.28
2874.15
2011.5
2832.08
2093.41
2893.87
2153.62
2931.17
2126.34
2862.39
2017.69
2824.6
2075.97
2960.21
2333.21
3031.47
2255.96
2953.25
2333.02
3025.68
2243.33
-0.214806
1.73782
1.7149
1.73711
1.70131
1.73935
1.64392
1.7474
1.67265
-0.0979962
2.46664
2.77529
2.48347
2.79436
2.38227
2.749
2.27636
2.83191
2.47534
2.79883
2.49181
2.81525
2.38812
2.75933
2.28135
2.84695
2.42244
2.86764
2.43388
2.83359
2.44206
2.79871
2.42272
2.82002
2.42479
2.86148
2.43386
2.82959
2.44407
2.80781
2.42773
2.81881
6846.92
7280.51
3865.93
3767.34
3827.62
3750.44
4035.52
3856.9
3986.25
3819.61
2671.83
2009.11
2754.74
2016.7
2608.14
1964.25
2583.31
2001.86
2667.44
2009.54
2747.86
2009.48
2606.25
1978.49
2582.53
1998.31
3017.22
2406.24
3058.02
2390.64
2990.52
2197.45
2983.04
2305.78
3006.36
2404.14
3054.41
2369.29
2975.75
2203.97
2976.02
2284.49
-0.272848
-0.11641
1.6518
1.68976
1.66799
1.69216
2.63994
2.71389
2.33419
2.66421
2.30612
2.23064
2.61643
2.09031
2.68051
2.22519
2.63492
2.72258
2.33079
2.65217
2.3066
2.23444
2.61904
2.09446
2.67563
2.22449
-0.0826089
2.36646
2.79669
2.40563
2.76149
2.31617
2.81743
2.37481
2.81067
2.41129
2.77714
2.32426
2.83525
2.524
2.88109
2.51676
2.90032
2.52339
2.86001
2.51255
2.88866
6243.6
6693.04
3604.65
3436.77
3595.92
3450.2
3609.52
3595.8
3598.07
3569.18
2527.87
1968.91
2560.46
1935.19
2597.94
1637.57
2550.34
1865.11
2524.8
1964.74
2557.07
1928.54
2595.36
1644.52
2547.65
1860.7
2852.54
2248.52
2917.46
2284.65
2766.46
2235.9
2679.2
2287.08
2850.62
2260.34
2917.87
2286.63
2762.63
2249.68
2681.35
2289.12
-0.131073
1.61994
1.80309
1.637
1.82462
-0.0621437
1.58289
1.56162
1.59949
1.57997
2.74653
2.68914
2.40953
2.24063
2.64082
2.20434
2.55361
2.07008
2.66151
2.17413
2.72946
2.68277
2.40392
2.23701
2.62647
2.19881
2.56254
2.07202
2.65859
2.17253
-0.052354
2.46762
2.87466
2.51323
2.84827
2.44979
2.83665
2.46425
2.86239
2.51175
2.83883
2.44689
2.8268
5723.34
6166.96
6637.87
3475.4
3220.88
3456.87
3227
1671.05
1842.61
2414.14
1601.61
2380.6
2581.61
1329.17
2383.27
1583.37
2394.52
1852.13
1729.91
2438.62
1678.22
2408.11
2585.86
1420.67
2404.58
1642.5
2416.99
2609.42
2219
2634.66
2199.52
2588.05
2098.24
2610.16
2229.13
2639.83
2195.12
2585.08
2075.92
2679.95
2274.87
2616.94
2278.74
2684.1
2303.85
2624.77
2297.47
-0.0283046
1.82685
1.80743
1.84494
1.81122
1.5455
2.18649
1.55403
2.24779
0.0372615
2.09247
2.42132
2.11438
2.45169
2.04056
2.53521
1.9788
2.46709
2.09343
2.42542
2.1164
2.45328
2.04278
2.53168
1.9827
2.46782
2.7418
2.31659
2.54166
2.17033
2.65132
2.20719
2.71794
2.31089
2.53006
2.167
2.64282
2.20363
-0.0624147
5280.48
5654.9
6056.43
3037.22
2928.27
3019.14
2925.9
3209.14
3069.23
3210.88
3066.11
1910.65
1786.08
2346.27
2373.28
1794.4
2327.51
1477.25
2313.73
1735.39
2312.97
1974.56
1833.79
2393.58
2364.92
1825.98
2342.69
1519.29
2326.49
1775.49
2327.54
2526.36
2251.08
2565.57
2213.48
2408.32
2102.71
2540.59
2278.97
2578.68
2250.63
2424.31
2145.51
0.568404
0.152804
2.15882
2.03707
2.22204
2.06182
2.35816
2.49876
2.04613
2.42328
2.08595
1.91059
2.99276
2.58086
2.79705
2.21403
2.35575
2.49684
2.04463
2.41993
2.08592
1.90911
2.99885
2.60596
2.81386
2.21382
0.0197388
1.97207
2.51283
2.03161
2.45943
1.99583
2.49319
1.97429
2.52002
2.03112
2.46414
1.9957
2.49241
-0.0903105
4959.87
5196.62
5480.89
2749.79
2566.49
2746.56
2576.29
2804.55
2743.09
2803.43
2735.2
2115.53
1385.38
2174.69
1352.62
2090.11
1038
2098.23
1297.26
2120.68
1411.76
2183.7
1365.07
2094.14
1078.16
2106.67
1311.18
1828.93
2380.38
1592.72
2115.71
1722.94
2166.31
1892.69
2399.47
1613.6
2123.04
1750.31
2175
0.933173
4.66781
5.67517
4.62923
5.66798
0.241863
4.19988
3.72904
4.25837
3.64725
2.44411
2.37331
2.03561
1.94723
2.35117
2.07188
2.8707
2.76665
2.53953
2.16868
2.42683
2.36881
2.02973
1.9411
2.34804
2.08418
2.88061
2.79863
2.52521
2.17941
0.080652
2.02295
2.48279
2.01874
2.46505
-0.180193
4780.33
4872.8
4970.46
5146.43
2601.52
2301.8
2579.91
2298.56
1040.64
1174.44
1768.73
996.322
1706.09
2016.3
740.257
1746.37
987.578
1713.94
1195.96
1077.26
1781.6
1030.92
1718.8
2023.78
801.759
1762.9
1022.52
1726.87
2043.13
1485.1
2078.41
1506.65
1989.86
1437.73
2043.99
1509.54
2085.02
1508.58
1990.65
1444.19
6.0441
0.409468
10.8619
10.486
10.7779
10.4872
0.261054
9.3379
6.40626
6.99563
6.06319
10.4368
9.70929
6.52517
7.38459
6.40506
10.1035
2.37653
2.25575
2.53523
2.87796
2.40951
2.50919
2.37234
2.3137