/*--------------------------------*- C++ -*----------------------------------*\
| =========                 |                                                 |
| \\      /  F ield         | OpenFOAM: The Open Source CFD Toolbox           |
|  \\    /   O peration     | Version:  5.x                                   |
|   \\  /    A nd           | Web:      www.OpenFOAM.org                      |
|    \\/     M anipulation  |                                                 |
\*---------------------------------------------------------------------------*/
FoamFile
{
    version     2.0;
    format      ascii;
    class       surfaceScalarField;
    location    "1.9";
    object      phi;
}
// * * * * * * * * * * * * * * * * * * * * * * * * * * * * * * * * * * * * * //

dimensions      [0 3 -1 0 0 0 0];

internalField   nonuniform List<scalar> 
30582
(
0.000228419
-4.48752e-06
0.000233205
-4.78565e-06
0.000228194
-8.72192e-06
0.000234433
-1.22756e-06
0.000232858
-9.44995e-06
0.00022717
-1.18715e-05
0.000230934
3.49823e-06
0.000233929
-2.2981e-06
0.000232085
-1.43648e-05
0.000225496
-1.32596e-05
0.000226066
4.86871e-06
0.000230175
7.25215e-06
0.000233751
-3.96418e-06
0.000229478
-1.83468e-05
0.000223113
-1.21518e-05
0.000220429
5.63624e-06
0.000225428
9.61556e-06
0.000230524
1.04788e-05
0.0002298
-4.28697e-06
0.000227501
-2.27351e-05
0.000218041
-5.8234e-06
0.000214361
6.06808e-06
0.000220314
1.075e-05
0.000226185
1.39545e-05
0.000226684
1.35955e-05
0.000228832
-5.61844e-06
0.00021999
-2.46837e-05
0.000214467
4.25344e-06
0.000206256
8.10574e-06
0.000214596
1.17864e-05
0.000221173
1.57623e-05
0.000223178
1.74604e-05
0.000226779
1.5649e-05
0.000218714
-4.34297e-06
0.000218006
-2.82223e-05
0.000198385
3.06129e-05
0.000195712
1.05435e-05
0.000206793
1.59085e-05
0.000215701
1.7258e-05
0.000219831
1.91092e-05
0.000224562
1.96775e-05
0.000218241
1.61225e-05
0.000218949
-5.28668e-06
0.000193101
-2.29383e-05
0.000116649
-0.000107038
0.000182726
1.29865e-05
0.000196344
2.09929e-05
0.000208251
2.33589e-05
0.000215791
2.12981e-05
0.000222073
2.15982e-05
0.000218885
1.90336e-05
0.000219146
1.5926e-05
0.000193901
-6.08628e-06
0.000121816
-2.81047e-05
-0.000248735
0.000140884
0.00016819
1.45354e-05
0.00018326
2.60706e-05
0.000197739
3.15043e-05
0.000209332
2.98175e-05
0.000218518
2.48531e-05
0.000219771
2.07114e-05
0.000220249
1.79301e-05
0.000199274
1.05526e-05
0.000149418
-3.36888e-05
-0.000306513
2.96735e-05
0.00015573
-1.48833e-05
0.000153294
1.4896e-05
0.000168512
2.9283e-05
0.000184276
3.95342e-05
0.000199085
4.17511e-05
0.000212293
3.60426e-05
0.000219038
2.55868e-05
0.000221685
1.92761e-05
0.00020786
9.34444e-06
0.00017882
-1.88489e-05
-0.000312803
-2.73991e-05
0.000132174
5.32292e-05
7.39866e-05
-8.88703e-05
0.000139059
1.42356e-05
0.000153351
3.00573e-05
0.000168982
4.45763e-05
0.000185311
5.33085e-05
0.000201892
5.21523e-05
0.000214623
4.0457e-05
0.000221879
2.53926e-05
0.000217212
9.92338e-06
0.000205713
-1.75492e-05
-0.00024544
-8.62114e-05
-6.62472e-05
0.000171022
0.00011794
9.27536e-06
-0.000144067
5.51971e-05
0.000126154
1.29048e-05
0.000138896
2.86903e-05
0.000153372
4.5668e-05
0.000169329
6.05584e-05
0.000187372
6.78281e-05
0.000204818
6.19572e-05
0.000218145
4.41907e-05
0.000224393
1.82118e-05
0.000234068
-1.84314e-05
-0.000138724
-0.000124265
-0.000102609
-4.98492e-05
8.31367e-05
0.000205826
-9.80574e-05
-3.67346e-05
9.75067e-05
-4.23096e-05
0.00011473
1.14235e-05
0.00012582
2.59804e-05
0.000138769
4.32929e-05
0.000152883
6.21134e-05
0.000170233
7.76972e-05
0.000189622
8.3024e-05
0.000208322
7.178e-05
0.000226002
4.25817e-05
0.00025934
-7.05992e-06
-3.72186e-06
-0.000153433
-0.000119663
-0.000107211
6.76073e-05
-3.43199e-05
-3.13817e-07
0.000108083
8.79476e-05
-2.71755e-05
-9.57891e-05
0.000103965
1.07653e-05
0.00011428
2.29636e-05
0.00012582
3.89293e-05
0.000137529
5.86468e-05
0.000152718
7.96284e-05
0.000171029
9.62906e-05
0.000191939
9.94079e-05
0.00021892
7.8862e-05
0.000277889
2.40328e-05
0.000126852
-0.000137634
-0.000117654
-0.000155442
5.13743e-05
-9.09783e-05
2.23451e-05
-5.69788e-05
4.56093e-05
0.000150421
-8.02874e-05
9.31682e-05
1.07968e-05
0.000103759
2.12866e-05
0.000114474
3.43102e-05
0.000124218
5.22404e-05
0.000136923
7.44424e-05
0.000151823
9.8834e-05
0.000171371
0.000116858
0.000202757
0.000115571
0.000283437
7.33137e-05
0.000234938
-8.40525e-05
-9.57793e-05
-0.000159509
4.13584e-05
-0.000145427
1.77397e-05
-8.63729e-05
1.93544e-05
-3.07238e-05
-2.21658e-05
8.16771e-05
1.14911e-05
9.33382e-05
2.12174e-05
0.000104193
3.15668e-05
0.000113099
4.54293e-05
0.000123886
6.52766e-05
0.000134703
9.15627e-05
0.000150123
0.000120082
0.000180578
0.000139037
0.000274057
0.000124951
0.000293379
1.48726e-05
-1.50728e-05
-0.000164759
3.27937e-05
-0.000150944
1.28552e-05
-0.000140542
5.67579e-06
-7.26943e-05
3.25057e-07
6.88607e-05
1.28164e-05
8.20928e-05
2.27366e-05
9.40728e-05
3.13381e-05
0.000103626
4.10401e-05
0.000113304
5.60119e-05
0.000121103
7.88765e-05
0.000131912
0.000109774
0.000156467
0.000144194
0.000253462
0.000159632
0.000308468
0.000109862
9.93197e-05
-9.95199e-05
2.56386e-05
-0.000157604
3.64834e-06
-0.000141738
-2.16857e-06
-0.000132698
6.34413e-06
5.44813e-05
1.43794e-05
6.93903e-05
2.55189e-05
8.31063e-05
3.37031e-05
9.44829e-05
4.04812e-05
0.000104453
4.98904e-05
0.00011095
6.61652e-05
0.000118623
9.21652e-05
0.000134749
0.000131491
0.00022761
0.000170046
0.000293198
0.000174902
0.000179162
3.00188e-05
2.92737e-05
-0.000103155
-1.21388e-05
-0.000141817
-9.58863e-06
-0.000134317
5.81049e-06
3.8692e-05
1.57892e-05
5.49954e-05
2.87744e-05
7.05352e-05
3.809e-05
8.42543e-05
4.39317e-05
9.59882e-05
4.89465e-05
0.000103555
5.72853e-05
0.000109618
7.517e-05
0.000118057
0.000108858
0.000201537
0.000157564
0.000264722
0.000198522
0.000207122
0.000146943
5.92045e-05
8.80505e-08
-2.84956e-05
-8.67982e-05
-1.89164e-05
-0.000132489
2.96923e-06
2.19789e-05
1.67132e-05
3.90724e-05
3.17122e-05
5.60696e-05
4.32399e-05
7.2055e-05
5.02893e-05
8.6407e-05
5.35129e-05
9.71264e-05
5.5375e-05
0.000103613
6.32905e-05
0.00010657
8.66565e-05
0.000180186
0.000130209
0.000239736
0.00018255
0.000202137
0.000203506
0.000101698
0.000104449
-3.0824e-05
2.41635e-06
-2.3838e-05
-8.18766e-05
-6.34887e-07
5.06029e-06
1.69186e-05
2.21356e-05
3.36499e-05
3.98677e-05
4.79142e-05
5.75838e-05
5.77112e-05
7.45285e-05
6.21678e-05
8.91246e-05
6.15147e-05
9.86933e-05
6.02947e-05
0.000100967
6.8894e-05
0.000165408
0.000101435
0.000236527
0.000133418
0.000179467
0.000205221
0.000153914
0.00015129
-8.57262e-06
8.21979e-05
-1.71034e-05
-4.31825e-06
-6.78601e-06
-1.12256e-05
1.62859e-05
4.93763e-06
3.41166e-05
2.24701e-05
5.10475e-05
4.10224e-05
6.44756e-05
5.99327e-05
7.2307e-05
7.79534e-05
7.33389e-05
9.20854e-05
6.81226e-05
9.81954e-05
6.3066e-05
0.000156559
7.77426e-05
0.000249627
8.83353e-05
0.000154052
0.000158832
0.000210487
0.000148648
1.83544e-05
0.000124363
-8.8523e-06
7.39468e-05
-1.19017e-05
-2.60181e-05
1.47926e-05
-1.16521e-05
3.28756e-05
4.68487e-06
5.19018e-05
2.29786e-05
6.90913e-05
4.27861e-05
8.16222e-05
6.33143e-05
8.69461e-05
8.17884e-05
8.36359e-05
9.33216e-05
7.29964e-05
0.000147891
7.17343e-05
0.000257575
6.97944e-05
0.000149628
9.27599e-05
0.000258302
0.000111017
4.37992e-05
0.000123203
2.84122e-06
0.00011267
-8.69514e-06
-3.85663e-05
1.25481e-05
-2.67339e-05
2.98743e-05
-1.2553e-05
5.01135e-05
4.35217e-06
7.05282e-05
2.37674e-05
8.81099e-05
4.54477e-05
9.94888e-05
6.72884e-05
0.000101446
8.36911e-05
9.32664e-05
0.000136002
8.48857e-05
0.000254181
7.51286e-05
0.00018805
3.13723e-05
0.00029187
5.91914e-05
6.71671e-05
8.7649e-05
1.22342e-05
0.00011381
-5.02921e-06
-4.8306e-05
9.73971e-06
-3.9523e-05
2.53372e-05
-2.8268e-05
4.55893e-05
-1.38215e-05
6.82872e-05
3.90559e-06
9.03901e-05
2.5157e-05
0.000108401
4.87149e-05
0.000118062
6.84935e-05
0.000116644
0.000118872
0.000110396
0.000240565
9.85013e-05
0.000235364
2.78142e-05
0.000309975
1.32676e-05
8.57958e-05
4.05628e-05
1.29694e-05
8.69138e-05
-1.30482e-06
-5.49041e-05
6.59809e-06
-4.94133e-05
1.96301e-05
-4.16248e-05
3.86941e-05
-3.04324e-05
6.22001e-05
-1.56229e-05
8.78156e-05
3.6069e-06
0.00011194
2.69802e-05
0.000130135
4.82145e-05
0.000138341
9.6601e-05
0.000138915
0.00021651
0.000134451
0.000258113
7.57523e-05
0.000312287
2.55025e-05
8.94088e-05
9.65462e-06
5.26782e-06
4.82643e-05
2.67249e-06
-5.82458e-05
3.34174e-06
-5.59994e-05
1.31841e-05
-5.20004e-05
3.00056e-05
-4.45371e-05
5.27988e-05
-3.35447e-05
8.0122e-05
-1.78189e-05
0.000109241
3.42192e-06
0.000135498
2.46221e-05
0.000153728
6.93599e-05
0.000165582
0.000182566
0.000172859
0.000251086
0.000141479
0.000288359
9.96801e-05
9.47034e-05
2.02079e-05
-3.91534e-07
1.5314e-05
4.07087e-06
-5.8248e-05
2.17071e-09
-5.91426e-05
6.48501e-06
-5.9043e-05
2.02268e-05
-5.53957e-05
4.08641e-05
-4.88157e-05
6.80699e-05
-3.75496e-05
9.98526e-05
-2.04681e-05
0.000133131
2.58671e-07
0.000159862
3.83264e-05
0.000184761
0.000138499
0.000209649
0.000219748
0.000204197
0.00025182
0.000178017
0.000119887
7.44965e-05
9.44588e-07
1.88718e-05
-4.77244e-06
-5.54719e-05
-2.77604e-06
-5.94529e-05
3.12468e-07
-6.26531e-05
1.00951e-05
-6.24626e-05
2.72937e-05
-6.06533e-05
5.27017e-05
-5.43452e-05
8.48654e-05
-4.24989e-05
0.000121883
-2.31886e-05
0.000156579
6.00911e-06
0.000192179
8.56383e-05
0.000237622
0.000168922
0.000260476
0.000208268
0.000247749
0.000144019
0.000153885
1.77478e-06
7.36663e-05
-2.09238e-05
-5.03209e-05
-5.15107e-06
-5.66405e-05
-5.58848e-06
-6.20827e-05
-2.57946e-07
-6.54178e-05
1.30503e-05
-6.86416e-05
3.5282e-05
-6.72172e-05
6.55737e-05
-6.10474e-05
0.000103414
-4.49087e-05
0.000143604
-2.53685e-05
0.000187956
2.50876e-05
0.00025273
0.000102311
0.000304233
0.000152673
0.000316071
0.000145071
0.000246696
1.19766e-06
0.000154462
-2.76176e-05
-4.33698e-05
-6.95111e-06
-5.13666e-05
-1.04249e-05
-5.88274e-05
-8.84371e-06
-6.57516e-05
7.5855e-08
-7.27137e-05
1.71224e-05
-7.54346e-05
4.34994e-05
-7.53099e-05
7.98362e-05
-6.46066e-05
0.000123112
-5.65332e-05
0.000174768
-4.01009e-05
0.000253145
2.53479e-05
0.000329693
8.52772e-05
0.000371629
0.000118813
0.000342328
3.79603e-06
0.000244098
-2.58114e-05
-3.51854e-05
-8.18438e-06
-4.42271e-05
-1.40906e-05
-5.30953e-05
-1.61571e-05
-6.2143e-05
-1.24523e-05
-7.13153e-05
-1.32259e-06
-7.81612e-05
1.9849e-05
-8.48227e-05
5.30122e-05
-8.05567e-05
9.57864e-05
-8.52499e-05
0.000151829
-0.00010055
0.000235217
-5.61094e-05
0.000334602
1.36663e-05
0.000401303
7.23443e-05
0.000418098
7.37698e-06
0.000338747
-2.25723e-05
-2.62933e-05
-8.89209e-06
-3.58166e-05
-1.65949e-05
-4.55072e-05
-2.16787e-05
-5.58299e-05
-2.24702e-05
-6.6892e-05
-1.68756e-05
-7.78944e-05
-1.5894e-06
-8.95007e-05
2.4527e-05
-9.05187e-05
6.29742e-05
-0.00010913
0.000119666
-0.000152225
0.000203503
-0.000132771
0.000311879
-5.44335e-05
0.000402702
2.38326e-05
0.000449815
8.09887e-06
0.000417376
-1.76046e-05
-1.71771e-05
-9.11623e-06
-2.66746e-05
-1.80341e-05
-3.66491e-05
-2.54531e-05
-4.75484e-05
-2.99601e-05
-5.95845e-05
-2.97777e-05
-7.26523e-05
-2.21177e-05
-8.68059e-05
-4.28423e-06
-9.40494e-05
2.80577e-05
-0.000127517
8.13616e-05
-0.000194811
0.000162252
-0.000199215
0.000269947
-0.000121295
0.000378741
-1.81474e-05
0.000444682
5.57334e-06
0.000452341
-1.05432e-05
-8.27934e-06
-8.89771e-06
-1.72778e-05
-1.8513e-05
-2.706e-05
-2.76231e-05
-3.79939e-05
-3.50075e-05
-5.03227e-05
-3.92219e-05
-6.41334e-05
-3.82966e-05
-7.98441e-05
-2.90794e-05
-9.34651e-05
-4.86855e-06
-0.000140341
4.08816e-05
-0.000227056
0.000113606
-0.00025104
0.000214077
-0.000183416
0.000332068
-6.51362e-05
0.00042573
2.2241e-06
0.000448032
-3.19559e-06
6.40339e-08
-8.34337e-06
-8.05303e-06
-1.81225e-05
-1.72104e-05
-2.83627e-05
-2.77312e-05
-3.78858e-05
-3.98307e-05
-4.54995e-05
-5.35137e-05
-4.98415e-05
-6.92849e-05
-4.88559e-05
-8.64664e-05
-3.60781e-05
-0.00014706
1.85073e-06
-0.000247935
6.17604e-05
-0.000286695
0.000149261
-0.000232219
0.00026288
-0.000111686
0.000378618
-4.54822e-07
0.000428409
2.11088e-06
7.63367e-06
-7.56964e-06
6.16062e-07
-1.70125e-05
-7.52613e-06
-2.78068e-05
-1.72301e-05
-3.88637e-05
-2.86551e-05
-4.90615e-05
-4.17211e-05
-5.72921e-05
-5.70516e-05
-6.20748e-05
-7.64381e-05
-5.88842e-05
-0.000147709
-3.54291e-05
-0.000255649
9.56534e-06
-0.00030259
7.76554e-05
-0.000264859
0.000181901
-0.00014016
0.000291355
6.08446e-07
0.000377555
8.31369e-06
-6.82717e-06
1.44608e-05
8.36365e-06
-1.53172e-05
1.59338e-06
-2.6132e-05
-6.92584e-06
-3.81111e-05
-1.72464e-05
-5.02723e-05
-2.93192e-05
-6.14635e-05
-4.41014e-05
-7.02423e-05
-6.62254e-05
-7.22875e-05
-0.000143975
-6.26185e-05
-0.000245391
-4.56871e-05
-0.000291751
-1.27294e-06
-0.000284862
9.76589e-05
-0.000141411
0.000183152
5.55386e-06
0.00028641
1.69959e-05
-1.3558e-05
1.50945e-05
-1.12511e-05
2.57119e-05
9.74041e-06
-2.34643e-05
2.73743e-06
-3.57952e-05
-6.05266e-06
-4.93049e-05
-1.66962e-05
-6.28953e-05
-3.08829e-05
-7.4682e-05
-5.68258e-05
-7.96419e-05
-0.000139971
-7.62917e-05
-0.000212926
-9.50842e-05
-0.000243538
-9.39004e-05
-0.000284362
-1.77289e-06
-0.000120207
7.64551e-05
1.02355e-05
0.00017847
2.39776e-05
-2.044e-05
1.66225e-05
-2.22709e-05
2.61143e-05
-6.5647e-06
3.22766e-05
1.14022e-05
-3.2129e-05
4.43327e-06
-4.62812e-05
-4.25166e-06
-6.17494e-05
-1.76397e-05
-7.61386e-05
-4.811e-05
-8.33978e-05
-0.000135654
-8.39584e-05
-0.000165493
-0.000123724
-0.00017083
-0.000167793
-0.000287017
-9.12453e-05
-9.95523e-05
-2.24279e-05
1.54425e-05
7.12482e-05
2.96531e-05
-2.77011e-05
1.86633e-05
-3.29579e-05
2.73095e-05
-1.23907e-05
3.19403e-05
-2.76634e-06
3.5043e-05
1.37414e-05
-4.14371e-05
7.48167e-06
-5.80145e-05
-4.72684e-06
-7.46622e-05
-3.92785e-05
-8.49701e-05
-0.00012835
-9.07019e-05
-0.000112725
-0.000136727
-0.000104504
-0.00019005
-0.000288337
-0.000166472
-7.52131e-05
-0.000115584
2.53037e-05
-3.22888e-05
3.36449e-05
-3.52488e-05
2.1289e-05
-4.37417e-05
2.94471e-05
-1.72575e-05
3.21762e-05
-3.02176e-06
3.21957e-05
-1.15105e-05
4.65534e-05
1.80174e-05
-5.19729e-05
7.25486e-06
-6.99962e-05
-2.98526e-05
-8.40881e-05
-0.000116031
-9.72892e-05
-5.89674e-05
-0.000144459
-6.51915e-05
-0.000176039
-0.00027874
-0.000199647
-6.3993e-05
-0.000177692
2.31271e-05
-0.000113407
2.72045e-05
-4.36742e-05
2.64429e-05
-5.4009e-05
3.15563e-05
-2.08756e-05
3.30652e-05
-3.21629e-06
3.23708e-05
-1.85549e-05
3.92402e-05
-2.34825e-05
7.00359e-05
1.77699e-05
-6.2488e-05
-2.02871e-05
-7.95617e-05
-9.85099e-05
-0.000101609
-5.70302e-06
-0.000150554
-5.23891e-05
-0.000157262
-0.0002524
-0.00020238
-5.85042e-05
-0.000205136
1.29255e-05
-0.00016749
2.01293e-05
-5.14005e-05
2.54962e-05
-6.44679e-05
3.69018e-05
-2.26253e-05
3.3306e-05
1.31756e-06
2.85314e-05
-2.10474e-05
3.48633e-05
-3.58738e-05
5.16315e-05
-6.35152e-05
0.000133551
-1.17048e-05
-7.10702e-05
-7.79928e-05
-0.000100079
4.57952e-05
-0.000153108
-6.14415e-05
-0.000141501
-0.000221041
-0.00018862
-5.41552e-05
-0.000206729
2.0724e-06
-0.000194283
1.37078e-05
-5.75856e-05
-5.51977e-06
-7.24607e-05
3.3489e-05
-2.26461e-05
3.69226e-05
6.53954e-06
2.8084e-05
-1.55601e-05
2.3044e-05
-3.8526e-05
3.75155e-05
-0.000109091
9.72073e-05
-8.22328e-05
0.000215784
-5.91341e-05
-8.99289e-05
9.1601e-05
-0.000145885
-8.25239e-05
-0.000132025
-0.000190967
-0.000171576
-4.88297e-05
-0.000193946
-5.46835e-06
-0.000199188
8.49194e-06
-7.35102e-05
-4.32094e-05
-8.02498e-05
2.26931e-06
-2.05049e-05
3.13478e-05
1.63947e-05
2.70674e-05
-3.35672e-06
1.58806e-05
-3.06388e-05
1.51568e-05
-0.000130296
5.87208e-05
-0.000157411
0.000172386
-0.000131729
0.000347513
0.000124201
-0.000122529
-0.000103862
-0.000124547
-0.000165698
-0.000157294
-4.18696e-05
-0.000178535
-8.43222e-06
-0.000190982
4.43128e-06
-0.00010452
0.000155211
-0.00011929
-4.16925e-06
-1.99799e-05
1.74435e-06
2.80358e-05
1.97067e-05
1.57613e-05
7.9494e-06
-1.30212e-05
-1.73688e-06
-0.000125114
9.97466e-06
-0.000212716
0.000114025
-0.00023635
0.000277007
-1.51284e-05
0.000362641
-0.00011804
-0.000108351
-0.000143995
-0.000146249
-3.52445e-05
-0.000163919
-9.44726e-06
-0.00017752
1.5681e-06
-9.5927e-05
-0.000126633
-0.000192852
0.000228773
-3.84461e-05
1.42969e-05
4.04307e-05
-1.06505e-05
3.88262e-05
-3.35819e-06
1.65741e-05
-2.16459e-05
-9.26223e-05
-3.42287e-05
-0.000226544
2.38027e-05
-0.000319575
0.000197251
-0.00010756
0.000369438
8.8622e-05
0.000274019
-0.000120542
-0.000131804
-3.22989e-05
-0.000149194
-1.03088e-05
-0.000163057
-4.42821e-07
-0.000111394
-0.000105076
-0.000207414
-0.000112071
-6.00016e-05
0.000250328
4.75794e-05
7.14817e-06
6.28932e-05
-3.47174e-05
5.29919e-05
-3.9776e-05
-3.40566e-05
-8.02115e-05
-0.000186659
-7.41131e-05
-0.000372459
7.66868e-05
-0.000262724
0.000352415
0.000146753
0.000311308
0.00175002
0.000643532
-0.00211953
-3.19e-05
-0.000132203
-1.2236e-05
-0.000147267
-1.91888e-06
-0.000110125
-3.31694e-05
-0.000207697
-0.000104793
-7.14047e-05
-0.000100668
8.10885e-05
0.000216819
9.09428e-05
-2.09015e-05
8.5338e-05
-6.70635e-05
3.72263e-05
-0.000111059
-8.89981e-05
-0.000177873
-0.000352433
-9.41391e-05
-0.000403909
0.000217872
0.000115795
0.000383372
0.00139287
0.000668456
0.00223864
0.000852661
-0.00244777
0.000483595
-0.00260313
-1.36928e-05
-0.000130747
-3.07267e-06
-0.000108504
-1.53136e-05
-0.000199508
-4.13586e-05
-5.42384e-05
-0.000121959
7.81018e-05
-9.76814e-05
0.000169514
0.000138248
0.000118457
-5.40205e-05
9.29507e-05
-0.000122788
2.84009e-05
-0.000228458
-0.000219203
-0.000311103
-0.000408922
-8.91268e-05
2.61066e-05
0.000307561
0.00111693
0.000659312
0.00196247
0.000944628
0.00215232
0.000976611
-0.00227627
0.000641975
-0.00260615
0.000309561
-0.00291269
-3.78801e-06
-4.3684e-06
-0.00019103
-2.37908e-05
-4.39504e-05
-5.16464e-05
8.47828e-05
-0.00012864
0.000179876
-0.000108043
0.000185731
7.09739e-05
0.000125764
-8.68339e-05
0.000106291
-0.000200678
-4.15526e-05
-0.000406108
-0.000320348
-0.000399677
-0.000105155
4.21347e-05
0.000923567
0.000500926
0.00169073
0.000931051
0.00197203
0.00112492
0.00196508
0.00106737
-0.00205585
0.000715621
-0.00234992
0.000446138
-0.00274272
0.000207411
-0.0031201
-7.07035e-06
-3.63283e-05
-3.14127e-05
9.95889e-05
-6.64521e-05
0.000194825
-0.000143588
0.00023712
-0.000159432
0.000165957
3.07807e-05
0.000113848
-9.43911e-05
0.000102638
-0.000344868
-0.00017317
-0.000553287
-0.000211292
-0.00029354
0.000684669
0.000281034
0.00138492
0.00080673
0.00178436
0.00111872
0.0017916
0.0012984
0.00181665
0.00114738
-0.00189666
0.000776719
-0.00211695
0.000458611
-0.00236239
0.000258337
-0.00279365
9.37783e-05
-0.00321388
-1.08943e-05
0.000107126
-3.89498e-05
0.00022408
-9.57067e-05
0.000283438
-0.000189905
0.000287288
-0.000280763
9.33652e-05
5.12636e-05
0.000187949
-0.000179702
-1.46283e-05
-0.00050341
-0.000180358
-0.00058422
0.000481135
-9.00062e-05
0.00108081
0.00058515
0.0015612
0.00102988
0.00158011
0.00133021
0.00169858
0.00141647
0.00154227
0.00133487
-0.00172975
0.000895219
-0.00201516
0.000503951
-0.00216229
0.000249944
-0.002354
8.9548e-05
-0.00278942
1.15272e-05
-0.00322541
-1.71635e-05
0.00024276
-5.76296e-05
0.000344359
-0.000156628
0.00037936
-0.000281977
0.000310814
-0.000498212
7.86869e-05
0.000160526
0.000256034
-0.000450364
-0.000126974
-0.000556794
0.000296755
-0.00039984
0.000798613
0.000192188
0.00128839
0.000857967
0.00137486
0.00123513
0.0014856
0.00154319
0.00139508
0.00156366
0.00135948
0.000379186
-0.00157389
0.000378498
0.00039603
0.000395564
0.00110777
-0.0019423
0.000646924
-0.00215813
0.000308079
-0.00222042
9.4421e-05
-0.00235887
-3.48552e-05
-0.00274304
-7.08101e-05
-0.0031546
-2.58372e-05
0.000387351
-0.000100622
0.000491508
-0.000268776
0.000495849
-0.000467012
0.000341962
-0.000761487
3.35149e-05
0.000383045
-1.2957e-05
-0.000564382
8.56171e-05
-0.000345656
0.000493437
-9.46636e-05
0.000899961
0.000580615
0.00119094
0.00104188
0.00122268
0.00149805
0.00126083
0.00167744
0.00110526
0.00181788
-3.958e-07
0.000275707
-0.000310193
0.000414068
0.000347674
-0.00184956
0.000347151
0.000344205
0.000344405
0.000275806
-0.000310168
0.000412464
-2.43086e-07
0.000241147
0.000430833
0.000241981
0.000429146
0.000913927
-0.0022093
0.000472855
-0.00232291
0.000170237
-0.00229624
-3.90205e-05
-0.0023547
-0.00013896
-0.00267489
-0.000121668
-0.00303293
-4.28774e-05
0.000578628
-0.000187742
0.000684466
-0.000457393
0.000693666
-0.000818717
0.000427117
-0.00115509
0.000513285
-0.000143197
-0.000191096
-0.000287668
0.000216885
-6.91038e-05
0.000470065
0.000335233
0.000986106
0.000785453
0.000943886
0.00132068
0.00109134
0.00166754
0.000891312
0.00189139
-0.000197769
-0.000199281
0.000752262
0.000473628
0.000472766
0.000499519
0.000499885
-4.50807e-07
-0.000351366
0.000389297
-8.79787e-08
0.00021138
-0.000242144
0.000444919
-0.00217269
0.00123706
-0.00035094
0.000387473
-3.44219e-07
-0.00038391
0.000377094
-0.000381991
0.000375112
0.000211906
-0.000241652
0.000442123
1.83277e-08
0.000444425
0.000441788
0.000700479
-0.00243693
0.000265952
-0.00241862
-4.85035e-06
-0.00233041
-0.000182793
-0.00231087
-0.000225607
-0.00257095
-0.000151261
-0.00288167
-7.5979e-05
0.000839159
-0.000342435
0.000982831
-0.000746557
0.0010694
-0.001461
0.00142158
-0.00206339
0.000667791
-0.00100208
-4.10201e-05
-2.97636e-05
0.000211742
0.000189219
0.000673109
0.00064823
0.000684694
0.00104465
0.000878763
0.00153326
0.000699234
0.00185962
0.000617111
0.000501247
0.000501655
0.000511938
0.000511699
2.31257e-07
0.000104457
-0.000121852
0.000490792
0.000103325
-0.000120164
0.000489836
-1.84959e-08
9.31689e-05
0.000510825
9.26254e-05
0.000510567
-1.16718e-07
-0.000280617
0.000427887
8.18492e-07
0.000143416
-0.000162253
0.000128076
0.000101904
0.000124252
0.000108706
-0.00240283
0.000930619
0.000321075
0.000320094
-0.00179096
0.000401458
0.000401871
0.000409008
0.000408615
-0.000279642
0.000425347
-1.14556e-07
0.000417666
0.000415449
0.000142651
-0.000161649
0.000127272
0.000103019
0.000123716
0.000107933
7.10881e-07
0.000127075
0.000104433
0.000126025
0.000107744
0.000126479
0.000105696
0.000125501
0.000107309
0.000361359
-0.00253233
1.56586e-05
-0.00243913
-0.00022282
-0.00229038
-0.000340147
-0.00219633
-0.000274497
-0.00244771
-0.000191769
-0.0026899
-0.000135848
0.00118339
-0.000542992
0.00143471
-0.00111187
0.00199164
-0.00203106
0.00139456
-0.00279015
0.00026944
-0.00131254
4.64581e-05
0.00013552
0.000349946
0.000512382
0.000466274
0.000866649
0.000658074
0.00126533
0.000520735
0.00171176
0.000503675
0.000491996
0.000491978
0.000494823
0.000494259
-2.30654e-08
7.81567e-05
0.000516283
7.80596e-05
0.000516198
-2.47317e-08
6.82175e-05
0.000521901
6.80866e-05
0.000521647
2.82661e-07
2.60863e-05
-1.51983e-05
-4.4121e-06
0.000110287
-9.9785e-06
0.000132062
0.000114121
0.000133999
3.60285e-06
2.57795e-05
-1.54368e-05
-4.35311e-06
-9.99561e-06
0.000110538
0.000131969
0.000114125
0.000133836
3.65632e-06
4.02872e-07
2.17435e-05
0.000119269
0.000137764
0.000119242
0.000138587
2.21144e-05
0.000119351
0.000137558
0.000119314
0.000138412
7.50997e-07
-0.000193899
0.000126138
0.000102213
0.000123947
0.000106484
-1.52399e-05
7.15471e-06
1.43304e-07
1.3719e-05
0.000122299
-7.11646e-06
1.37026e-05
-1.62344e-05
0.000111552
1.70819e-07
-1.76701e-05
0.000119395
1.3602e-05
0.000115962
-0.00253945
0.000497978
-0.002066
0.000283173
0.00028323
0.000319337
0.000319916
-2.19802e-09
0.000262434
-0.000286063
0.000425089
0.000263301
-0.000286454
0.000425022
2.58697e-07
0.00023462
0.000436564
0.000235975
0.0004362
-0.000193576
0.000125483
0.000103185
0.00012339
0.000105966
6.17527e-07
0.000126164
0.000101423
0.000122543
0.00010764
0.000125608
0.000103247
0.000122251
0.000107359
-1.52638e-05
7.05444e-06
1.3655e-05
0.000121969
-6.85762e-06
1.4102e-05
-1.63956e-05
0.00011217
-1.76676e-05
0.000119433
1.36182e-05
0.000115472
1.06888e-05
8.13882e-06
1.7056e-07
0.000121796
-1.00342e-05
-1.33615e-05
0.000112631
2.06959e-07
0.000122065
0.000116124
1.06617e-05
8.1368e-06
0.000121506
-9.85283e-06
-1.34034e-05
0.000113516
0.000122164
0.000115661
3.50413e-06
-0.00252018
-0.000304654
-0.00235729
-0.000473479
-0.00215705
-0.000437308
-0.00203352
-0.00032909
-0.00231039
-0.000221989
-0.00246791
-0.000228066
0.00158443
-0.000692709
0.00215077
-0.001271
0.00164954
-0.00228603
0.000496007
-0.00301672
4.73568e-05
-0.00131344
8.95634e-05
0.000395902
0.000230691
0.000747966
0.000397786
0.00112694
0.000352064
0.00143401
0.000360086
0.000463659
0.00046321
0.000464481
0.000463996
3.672e-09
4.90044e-05
0.000511205
4.9186e-05
0.000510882
7.20072e-09
3.85533e-05
0.000505267
3.88481e-05
0.000504604
5.87814e-07
1.5242e-05
0.000120857
0.00013862
0.000122506
0.000140283
1.57166e-05
0.000121131
0.000138465
0.000123429
0.000140178
7.80713e-07
7.39072e-06
0.00012356
0.000141132
0.000123104
0.000141163
7.43198e-06
0.000124359
0.000141039
0.000124135
0.000141137
-4.12128e-06
-8.63054e-06
3.55037e-08
0.000123003
-4.29783e-06
-5.31307e-06
0.000112263
-9.18516e-06
-9.16296e-09
0.000132452
4.61678e-06
-4.92049e-06
-9.54963e-06
0.00011996
6.52713e-09
-8.97036e-06
0.000128825
3.62563e-08
1.76917e-06
0.0001196
-4.33408e-06
-5.31406e-06
0.000113168
-4.04594e-06
-8.57416e-06
-1.34523e-07
0.000123293
-9.16812e-06
4.54189e-06
0.00013254
-4.85749e-06
-9.51225e-06
0.000119921
-8.95902e-06
0.000128776
1.78153e-06
0.000119741
-5.52353e-06
9.66034e-06
-1.06944e-05
0.000125826
8.86048e-06
1.80321e-08
-9.95685e-06
0.00013332
-5.5193e-06
0.000124872
7.83576e-09
0.000132886
-5.44546e-06
9.59167e-06
-1.0734e-05
0.000125939
8.82676e-06
-9.98846e-06
0.000133292
-5.45058e-06
0.000124844
0.000132837
2.10114e-05
7.3257e-06
1.35464e-07
-2.54947e-05
0.000123161
-7.02345e-06
-1.95921e-05
0.000112594
1.7088e-07
0.000120094
-2.28113e-05
0.000117029
-2.87551e-06
2.22771e-06
-1.3518e-08
4.97241e-07
0.000122463
-2.05427e-06
2.68397e-06
-4.26059e-06
0.000115183
-1.81845e-09
-4.97892e-06
0.000119482
1.796e-06
0.000119077
-0.00248449
-5.14609e-05
-0.00225919
0.000152941
0.000153065
0.000192386
0.000192779
5.26675e-08
0.000313794
-0.000326104
0.000295431
0.000313545
-0.000325826
0.000295563
1.67004e-08
0.000347051
0.000347024
4.51121e-07
0.000124139
-0.000141179
9.92875e-05
0.000119859
0.00010113
0.000121471
0.000123852
-0.000140115
9.94807e-05
0.000119673
0.00010124
0.000121342
4.2568e-07
2.13363e-05
3.76753e-05
0.000106631
9.25894e-06
0.000127882
0.000104271
0.000126223
2.70293e-05
2.14021e-05
3.75861e-05
0.00010704
9.31257e-06
0.000127806
0.000104308
0.000126034
2.69888e-05
2.1005e-05
7.23286e-06
-2.55143e-05
0.000122895
-6.79885e-06
-1.94943e-05
0.000113083
0.000120099
-2.29422e-05
0.000116647
-3.00041e-05
8.08556e-06
1.33626e-07
0.000122454
-1.14822e-05
2.40591e-05
0.000110182
1.73676e-07
0.000118591
0.000116973
-3.00426e-05
7.97355e-06
0.000122296
-1.11415e-05
2.44457e-05
0.000111345
0.000118827
0.000116836
-2.8702e-06
2.07647e-06
4.7896e-07
0.00012227
-1.91799e-06
2.70061e-06
-4.22444e-06
0.000115612
-4.96151e-06
0.000119604
1.85937e-06
0.000118389
3.80114e-06
4.00774e-08
0.000120181
0.000116408
3.77309e-06
0.000120034
0.000115979
-0.000453268
-0.00237157
-0.000621382
-0.00220939
-0.000634586
-0.00195977
-0.000507091
-0.00185552
-0.000393325
-0.00213906
-0.000330248
-0.00213766
-0.000305608
0.00199112
-0.000533058
0.00169166
-0.00131312
0.000471389
-0.00226141
-0.000304294
-0.00266507
1.10155e-05
-0.00123489
-4.24834e-05
0.000669077
0.000145169
0.00100058
0.000173985
0.00130502
0.000169584
0.000405158
0.000404707
0.000407447
0.000407196
-5.61062e-09
2.92399e-05
0.000472978
2.95155e-05
0.000472537
-4.12263e-08
1.97667e-05
0.000473995
1.99843e-05
0.000473486
6.5208e-07
3.97554e-06
0.000119792
0.000136898
0.000120284
0.000136922
3.78548e-06
0.000120476
0.000136834
0.00012106
0.000136826
7.78249e-07
-3.48332e-06
0.000120298
0.000136085
0.000119757
0.000135867
-4.37441e-06
0.000121337
0.000135932
0.000120618
0.000135707
-5.5859e-06
-1.14301e-05
0.000127179
-1.1062e-05
7.89403e-09
0.0001341
-5.68616e-06
-1.00464e-05
0.000126798
-3.22095e-09
-9.92392e-06
0.000133391
-5.4546e-06
-1.16239e-05
0.000127476
-1.11136e-05
0.000134143
-5.41542e-06
-1.02339e-05
0.000127455
-9.93083e-06
0.000133597
-5.6945e-06
1.12217e-05
-1.17036e-05
0.000129745
1.08329e-05
4.83126e-08
-1.14912e-05
0.000136005
-5.76925e-06
0.000130059
2.02694e-08
0.000136321
-5.52785e-06
1.12533e-05
-1.17732e-05
0.000130407
1.08946e-05
-1.15277e-05
0.000136175
-5.56205e-06
0.000130717
0.000136539
-1.98252e-06
5.27935e-06
-5.82421e-07
-2.46154e-05
-2.61694e-05
-5.23424e-09
-5.1874e-09
8.04802e-06
-8.89694e-07
-1.09681e-05
-7.23265e-09
-1.11565e-05
-1.93944e-06
5.40784e-06
-5.65646e-07
-2.46371e-05
8.03451e-06
-2.61736e-05
-8.69621e-07
-1.10298e-05
-1.11535e-05
-1.14515e-06
9.65733e-06
-9.81395e-06
9.55339e-06
-1.72613e-08
-9.6708e-06
-1.10029e-06
-1.459e-08
-1.08974e-06
9.68266e-06
-9.874e-06
9.55173e-06
-9.67574e-06
-1.06314e-06
7.58545e-06
2.44981e-06
4.78622e-09
-1.1293e-05
0.000124386
-2.03641e-06
-6.23915e-06
0.000116609
1.53325e-08
0.000120617
-7.75538e-06
0.000120995
4.02761e-06
1.12826e-06
8.74588e-09
-7.01082e-06
-1.21738e-06
-4.63125e-06
3.86311e-06
-1.41092e-08
3.32704e-06
-6.65663e-06
-0.00237457
-0.000563183
-0.00230655
-2.94008e-05
-3.01204e-05
2.77742e-05
2.76431e-05
1.618e-07
0.000335043
-0.000327914
0.00014565
0.000334343
-0.000327353
0.000146237
2.32404e-07
0.000201092
0.000201528
6.90557e-07
0.000167929
-0.000179967
6.15344e-05
8.24352e-05
7.07528e-05
9.21075e-05
0.000166771
-0.000179127
6.23814e-05
8.22926e-05
7.18367e-05
9.20572e-05
5.59699e-07
8.62924e-05
0.000105654
8.00182e-05
0.000101345
8.66078e-05
0.000105465
8.09581e-05
0.000101229
-5.78314e-06
8.69125e-06
-9.06623e-06
0.000105446
1.01344e-05
-5.27475e-08
-1.02411e-05
0.000114132
-5.61412e-06
6.48316e-06
0.000108952
-4.1254e-08
8.29164e-06
0.00011774
-5.58041e-06
8.73386e-06
-9.33536e-06
0.000105663
1.01104e-05
-1.02223e-05
0.000114151
-5.44499e-06
6.4746e-06
0.000108945
8.2638e-06
0.000117702
-4.32746e-06
-2.1801e-06
-1.14742e-05
0.000124613
-5.38579e-06
6.63835e-06
0.000118189
-5.74312e-06
-2.36749e-08
0.000134269
-5.02322e-06
-5.30496e-06
0.000113879
-2.06754e-08
0.000123487
1.61359e-08
1.59466e-05
0.000124309
-4.16192e-06
-2.10735e-06
-1.17763e-05
0.000125086
-5.36193e-06
6.64171e-06
0.000119378
-5.70266e-06
0.000134388
-5.06536e-06
-5.16092e-06
0.000113836
0.000123414
1.59211e-05
0.000124549
7.56058e-06