/*--------------------------------*- C++ -*----------------------------------*\
| =========                 |                                                 |
| \\      /  F ield         | OpenFOAM: The Open Source CFD Toolbox           |
|  \\    /   O peration     | Version:  5.x                                   |
|   \\  /    A nd           | Web:      www.OpenFOAM.org                      |
|    \\/     M anipulation  |                                                 |
\*---------------------------------------------------------------------------*/
FoamFile
{
    version     2.0;
    format      ascii;
    class       volScalarField;
    location    "1.9";
    object      rAU;
}
// * * * * * * * * * * * * * * * * * * * * * * * * * * * * * * * * * * * * * //

dimensions      [-1 3 1 0 0 0 0];

internalField   nonuniform List<scalar> 
12160
(
6.40778e-07
6.40762e-07
6.40771e-07
6.40752e-07
6.40754e-07
6.40765e-07
6.40815e-07
6.40751e-07
6.40747e-07
6.40762e-07
6.41038e-07
6.40865e-07
6.40971e-07
6.40743e-07
6.40764e-07
6.41192e-07
6.41086e-07
6.41055e-07
6.40892e-07
6.40739e-07
6.40776e-07
6.41196e-07
6.41181e-07
6.41047e-07
6.41094e-07
6.40972e-07
6.40744e-07
6.40787e-07
6.41197e-07
6.41184e-07
6.41171e-07
6.41167e-07
6.4117e-07
6.40968e-07
6.40772e-07
6.40783e-07
6.41197e-07
6.41181e-07
6.41168e-07
6.41163e-07
6.41162e-07
6.41156e-07
6.40986e-07
6.44723e-07
1.16115e-06
6.41197e-07
6.41179e-07
6.41157e-07
6.41159e-07
6.41157e-07
6.41145e-07
6.41167e-07
6.4401e-07
1.08202e-06
2.8776e-05
6.41197e-07
6.41182e-07
6.41179e-07
6.41143e-07
6.41116e-07
6.4114e-07
6.40945e-07
6.43427e-07
1.07452e-06
2.83831e-05
0.000325437
6.41197e-07
6.41185e-07
6.41182e-07
6.4116e-07
6.41094e-07
6.41096e-07
6.40886e-07
6.44403e-07
1.05071e-06
2.73213e-05
0.000526372
0.000634187
6.41197e-07
6.41186e-07
6.41185e-07
6.41163e-07
6.4116e-07
6.41068e-07
6.40962e-07
6.45662e-07
1.03067e-06
2.39737e-05
0.000611046
0.000639921
0.000640923
6.41181e-07
6.41186e-07
6.41186e-07
6.41165e-07
6.41163e-07
6.41144e-07
6.40989e-07
6.46865e-07
1.00091e-06
1.90768e-05
0.000614132
0.000640842
0.000640989
0.000641013
6.41183e-07
6.41172e-07
6.41186e-07
6.41165e-07
6.41165e-07
6.41145e-07
6.41149e-07
6.4756e-07
9.69146e-07
1.48967e-05
0.000589615
0.000641011
0.00064086
0.000641023
0.000641018
6.41183e-07
6.41176e-07
6.41187e-07
6.41163e-07
6.41165e-07
6.41143e-07
6.41157e-07
6.47969e-07
9.45268e-07
1.09262e-05
0.000557573
0.00064095
0.000641102
0.000640887
0.000640831
6.41195e-07
6.41181e-07
6.41189e-07
6.41162e-07
6.41163e-07
6.41139e-07
6.41154e-07
6.48177e-07
9.30035e-07
8.08546e-06
0.000490958
0.000640794
0.000641017
0.000641062
0.000640877
6.41195e-07
6.41195e-07
6.41194e-07
6.41162e-07
6.41162e-07
6.41134e-07
6.41147e-07
6.48018e-07
9.25125e-07
6.65124e-06
0.000395817
0.000640672
0.000640893
0.000641095
0.000640925
6.41195e-07
6.41195e-07
6.41196e-07
6.41167e-07
6.41097e-07
6.41126e-07
6.41137e-07
6.47331e-07
9.25888e-07
6.12919e-06
0.000277196
0.000640407
0.000640915
0.000640919
0.000640844
6.41195e-07
6.41195e-07
6.41195e-07
6.4117e-07
6.41108e-07
6.41054e-07
6.41126e-07
6.45715e-07
9.23057e-07
6.06222e-06
0.000210271
0.00063989
0.000640949
0.000640901
0.000640488
6.41194e-07
6.41195e-07
6.41195e-07
6.41173e-07
6.41111e-07
6.41069e-07
6.41032e-07
6.43471e-07
9.08166e-07
6.09129e-06
0.000189481
0.000638628
0.000640991
0.000640898
0.000640478
6.41194e-07
6.41194e-07
6.41194e-07
6.41176e-07
6.41107e-07
6.4107e-07
6.41053e-07
6.41411e-07
8.76083e-07
5.9363e-06
0.000182659
0.000636684
0.000641186
0.000641056
0.00064048
6.41193e-07
6.41194e-07
6.41194e-07
6.41178e-07
6.41176e-07
6.41054e-07
6.41056e-07
6.41048e-07
8.32542e-07
5.31691e-06
0.000172304
0.000635055
0.000641099
0.000641183
0.000640804
6.41193e-07
6.41194e-07
6.41194e-07
6.4118e-07
6.41179e-07
6.41128e-07
6.41036e-07
6.40927e-07
7.82559e-07
4.326e-06
0.000146569
0.000632853
0.000641187
0.000641099
0.000641186
6.41193e-07
6.41194e-07
6.41194e-07
6.41181e-07
6.41181e-07
6.41133e-07
6.41023e-07
6.40887e-07
7.38016e-07
3.31156e-06
0.00010557
0.000628841
0.000641037
0.000641188
0.000641108
6.41193e-07
6.41193e-07
6.41194e-07
6.41181e-07
6.41181e-07
6.41133e-07
6.41133e-07
6.40968e-07
7.05474e-07
2.4824e-06
6.3491e-05
0.000620283
0.000641055
0.00064118
0.000641059
6.41192e-07
6.41193e-07
6.41193e-07
6.41179e-07
6.41181e-07
6.41129e-07
6.41133e-07
6.41072e-07
6.84663e-07
1.90033e-06
3.57569e-05
0.000598066
0.000641101
0.000641178
0.000641063
6.4117e-07
6.41192e-07
6.41193e-07
6.41176e-07
6.41178e-07
6.41121e-07
6.41129e-07
6.41068e-07
6.71845e-07
1.52281e-06
2.09819e-05
0.000532493
0.000640998
0.000641189
0.000641098
6.41082e-07
6.41191e-07
6.41192e-07
6.41173e-07
6.41175e-07
6.41115e-07
6.4112e-07
6.41082e-07
6.64135e-07
1.28387e-06
1.32932e-05
0.000406969
0.000640701
0.000641172
0.000641138
6.41104e-07
6.41187e-07
6.41191e-07
6.41171e-07
6.41173e-07
6.41118e-07
6.41115e-07
6.41138e-07
6.59726e-07
1.13421e-06
9.17201e-06
0.000276759
0.000639474
0.000641189
0.000641146
6.41188e-07
6.41192e-07
6.41186e-07
6.41172e-07
6.41171e-07
6.41127e-07
6.41118e-07
6.41193e-07
6.57559e-07
1.04325e-06
6.88555e-06
0.000182439
0.000635692
0.000641188
0.000641149
6.41187e-07
6.41186e-07
6.41192e-07
6.41177e-07
6.41172e-07
6.41141e-07
6.41127e-07
6.41189e-07
6.56871e-07
9.92847e-07
5.60248e-06
0.000124937
0.000627416
0.000641185
0.000641092
6.41188e-07
6.41187e-07
6.41178e-07
6.41192e-07
6.41169e-07
6.41156e-07
6.41141e-07
6.41114e-07
6.5692e-07
9.72371e-07
4.91878e-06
9.23177e-05
0.000613047
0.00064117
0.000640999
6.4119e-07
6.41188e-07
6.41172e-07
6.41168e-07
6.4119e-07
6.41162e-07
6.41156e-07
6.41111e-07
6.58112e-07
9.75341e-07
4.63447e-06
7.53043e-05
0.000593605
0.000641012
0.000640883
6.41191e-07
6.4119e-07
6.4117e-07
6.41172e-07
6.41154e-07
6.41188e-07
6.41137e-07
6.41125e-07
6.6103e-07
1.00378e-06
4.68029e-06
6.83735e-05
0.000575202
0.00064088
0.000640757
6.41192e-07
6.41191e-07
6.41171e-07
6.4117e-07
6.41145e-07
6.41132e-07
6.41189e-07
6.41121e-07
6.66262e-07
1.06326e-06
5.05445e-06
6.94033e-05
0.000565252
0.000640864
0.00064064
6.41193e-07
6.41192e-07
6.41173e-07
6.41171e-07
6.41129e-07
6.41085e-07
6.41157e-07
6.41192e-07
6.74953e-07
1.16339e-06
5.83757e-06
7.82694e-05
0.000566225
0.000640301
0.00064058
6.41193e-07
6.41193e-07
6.41176e-07
6.41173e-07
6.41118e-07
6.41049e-07
6.41115e-07
6.41278e-07
6.89094e-07
1.32253e-06
7.21922e-06
9.71043e-05
0.000578219
0.000640317
0.000639965
6.41192e-07
6.41193e-07
6.41177e-07
6.41176e-07
6.41114e-07
6.41118e-07
6.41112e-07
6.41751e-07
7.12135e-07
1.57324e-06
9.60912e-06
0.000130458
0.000596811
0.000640978
0.000639998
6.41181e-07
6.41193e-07
6.41178e-07
6.41178e-07
6.41113e-07
6.41114e-07
6.41197e-07
6.43191e-07
7.47707e-07
1.97323e-06
1.38713e-05
0.000186432
0.000614386
0.000641068
0.000640662
6.41181e-07
6.41185e-07
6.41176e-07
6.41178e-07
6.41112e-07
6.41113e-07
6.41217e-07
6.45953e-07
7.9665e-07
2.64081e-06
2.21502e-05
0.000275611
0.000627416
0.000641135
0.000640787
6.41161e-07
6.41185e-07
6.41185e-07
6.41177e-07
6.41112e-07
6.41112e-07
6.41268e-07
6.507e-07
8.63126e-07
3.77607e-06
3.9201e-05
0.00039767
0.000635376
0.00064117
0.000640937
6.41159e-07
6.41163e-07
6.41179e-07
6.41154e-07
6.4112e-07
6.4101e-07
6.41371e-07
6.57524e-07
9.51222e-07
5.5284e-06
7.09559e-05
0.000513601
0.000639031
0.000641107
0.00064109
6.41115e-07
6.41127e-07
6.4117e-07
6.41159e-07
6.411e-07
6.41027e-07
6.41445e-07
6.66501e-07
1.06397e-06
8.07135e-06
0.000120021
0.000583191
0.000640196
0.000640976
0.000640978
6.41032e-07
6.41109e-07
6.41162e-07
6.41159e-07
6.41111e-07
6.41144e-07
6.41718e-07
6.77529e-07
1.20539e-06
1.17041e-05
0.000185129
0.000614336
0.000640483
0.000640753
0.000640445
6.42056e-07
6.41094e-07
6.41158e-07
6.41164e-07
6.41105e-07
6.41117e-07
6.41083e-07
6.90235e-07
1.37703e-06
1.68766e-05
0.000260693
0.000627323
0.000640679
0.000640549
0.000639936
7.0371e-07
6.42786e-07
6.41163e-07
6.41162e-07
6.41105e-07
6.41122e-07
6.41061e-07
6.41081e-07
1.57487e-06
2.39506e-05
0.000338305
0.000633196
0.000640826
0.000640605
0.000639566
1.79342e-06
7.26128e-07
6.43855e-07
6.41159e-07
6.41147e-07
6.41151e-07
6.41114e-07
6.41097e-07
6.40915e-07
3.25339e-05
0.000408022
0.000636193
0.000640865
0.000640699
0.000639477
4.26097e-05
2.20391e-06
7.51447e-07
6.44449e-07
6.41165e-07
6.4119e-07
6.4118e-07
6.41153e-07
6.40977e-07
6.40346e-07
0.00046142
0.000637911
0.000640856
0.000640749
0.000639509
0.00051157
6.75737e-05
2.68701e-06
7.62941e-07
6.45332e-07
6.41208e-07
6.41192e-07
6.41195e-07
6.40968e-07
6.40779e-07
6.40179e-07
0.000638931
0.000640871
0.000640934
0.000639601
0.000639686
0.000575595
9.31739e-05
2.9008e-06
7.72606e-07
6.45933e-07
6.41283e-07
6.41163e-07
6.41171e-07
6.40842e-07
6.40609e-07
6.39988e-07
0.000641008
0.000641066
0.000639867
0.000641097
0.000640618
0.000599167
9.70928e-05
3.02628e-06
7.69884e-07
6.48499e-07
6.41375e-07
6.41036e-07
6.40894e-07
6.40537e-07
6.40677e-07
6.41172e-07
6.40545e-07
0.000641171
0.000640076
0.0006412
0.000641124
0.00064088
0.000601052
9.00954e-05
2.88052e-06
7.77446e-07
6.50601e-07
6.41351e-07
6.41051e-07
6.40529e-07
6.40726e-07
6.41183e-07
6.41069e-07
6.40535e-07
6.3938e-07
0.00064018
0.000640339
0.000641195
0.000641161
0.000640938
0.000599112
7.37162e-05
2.77255e-06
7.7812e-07
6.51843e-07
6.40669e-07
6.41124e-07
6.40975e-07
6.41188e-07
6.40495e-07
6.40959e-07
6.40394e-07
6.40093e-07
6.38024e-07
0.000640536
0.000641189
0.000641109
0.000640835
0.000593087
6.11061e-05
2.61201e-06
7.89777e-07
6.44128e-07
6.40751e-07
6.41159e-07
6.41192e-07
6.40222e-07
6.4006e-07
6.40917e-07
6.40931e-07
6.4087e-07
6.40363e-07
6.36158e-07
0.000641063
0.000641188
0.000640989
0.000640718
0.000588299
5.53747e-05
2.57024e-06
7.62668e-07
6.39954e-07
6.41118e-07
6.41193e-07
6.40296e-07
6.39824e-07
6.40914e-07
6.40915e-07
6.40911e-07
6.40923e-07
6.40956e-07
6.40861e-07
6.37511e-07
0.000641087
0.000641187
0.000640873
0.000641021
0.000599338
4.25137e-05
3.05711e-06
6.88293e-07
6.41043e-07
6.41194e-07
6.41189e-07
6.40265e-07
6.40605e-07
6.40891e-07
6.41555e-07
6.40923e-07
6.40908e-07
6.40289e-07
6.40947e-07
6.40965e-07
6.40804e-07
0.000640939
0.000641184
0.000641171
0.000640662
0.000615152
4.70771e-05
2.87143e-06
6.41928e-07
6.41121e-07
6.41192e-07
6.41174e-07
6.40688e-07
6.4093e-07
6.40755e-07
6.32883e-07
6.41259e-07
6.32933e-07
6.33542e-07
6.3354e-07
6.40943e-07
6.40278e-07
6.4057e-07
6.40799e-07
6.40806e-07
6.41167e-07
0.000640752
0.000641177
0.0006408
0.000640505
0.000633614
8.6121e-05
1.51959e-06
6.41838e-07
6.41193e-07
6.41099e-07
6.40928e-07
6.4045e-07
6.40772e-07
6.41201e-07
6.34021e-07
6.33142e-07
6.41309e-07
6.34028e-07
6.33239e-07
6.33252e-07
6.3315e-07
6.32386e-07
6.32377e-07
6.40956e-07
6.4056e-07
6.40833e-07
6.40324e-07
6.4072e-07
6.41167e-07
0.000640473
0.000640815
0.000640483
0.000638559
0.000617525
0.000179198
1.12217e-06
6.42088e-07
6.40729e-07
6.40543e-07
6.40049e-07
6.40728e-07
6.419e-07
6.35663e-07
6.35661e-07
6.35043e-07
6.35051e-07
6.33168e-07
6.35684e-07
6.41532e-07
6.44022e-07
6.33184e-07
6.35148e-07
6.35163e-07
6.35845e-07
6.35681e-07
6.35832e-07
6.40959e-07
6.40906e-07
6.40537e-07
6.40613e-07
6.40801e-07
6.41164e-07
0.000640048
0.000640554
0.000638486
0.000616135
0.000488141
5.40921e-05
1.04993e-06
6.41428e-07
6.40713e-07
6.39971e-07
6.40403e-07
6.41792e-07
6.3396e-07
6.33944e-07
6.33551e-07
6.33526e-07
6.35926e-07
6.35913e-07
6.35206e-07
6.35207e-07
6.36587e-07
5.98097e-07
6.17578e-07
5.98948e-07
6.16093e-07
6.406e-07
6.43517e-07
6.35715e-07
6.35823e-07
6.37169e-07
6.37184e-07
6.36629e-07
6.37224e-07
6.37256e-07
5.98188e-07
6.17553e-07
5.98995e-07
6.17346e-07
5.99209e-07
6.16174e-07
6.00783e-07
6.15971e-07
5.99322e-07
6.17546e-07
6.00822e-07
6.17255e-07
6.41042e-07
6.40918e-07
6.40912e-07
6.40694e-07
6.40861e-07
6.4116e-07
0.000639423
0.00064008
0.000616259
0.000360146
0.000134378
2.35889e-05
8.89867e-07
6.4154e-07
6.41159e-07
6.40304e-07
6.42031e-07
6.32727e-07
6.32736e-07
6.33989e-07
6.33984e-07
6.34718e-07
6.3473e-07
6.34787e-07
6.34797e-07
6.22525e-07
6.15854e-07
6.08475e-07
6.19926e-07
6.04138e-07
6.01561e-07
6.17421e-07
6.22042e-07
6.08453e-07
6.20099e-07
6.0412e-07
6.01509e-07
6.17482e-07
5.98253e-07
6.19923e-07
5.99499e-07
6.18253e-07
5.98327e-07
6.19985e-07
5.99493e-07
5.98589e-07
6.17392e-07
5.98693e-07
6.15096e-07
6.03883e-07
6.20696e-07
6.04336e-07
6.20134e-07
6.41243e-07
6.41051e-07
6.36582e-07
6.36577e-07
6.38218e-07
6.38258e-07
6.3986e-07
6.39894e-07
6.39062e-07
6.39348e-07
5.99115e-07
6.18204e-07
5.99198e-07
6.15849e-07
5.9616e-07
6.16795e-07
5.97519e-07
6.1349e-07
5.96189e-07
6.16893e-07
5.97472e-07
6.13497e-07
6.0394e-07
6.20717e-07
6.04329e-07
6.20215e-07
6.03083e-07
6.19235e-07
6.03131e-07
6.19285e-07
6.41308e-07
6.40927e-07
6.40914e-07
6.40764e-07
6.41041e-07
6.41157e-07
0.000638132
0.000633862
0.0003862
0.000113423
3.7007e-05
1.64613e-05
9.77372e-07
6.41772e-07
6.41086e-07
6.41864e-07
6.33532e-07
6.33599e-07
6.33849e-07
6.3384e-07
6.34878e-07
6.34887e-07
6.34927e-07
6.34929e-07
6.16806e-07
5.96039e-07
6.17089e-07
5.96068e-07
6.17138e-07
5.96088e-07
6.17108e-07
5.96036e-07
6.13247e-07
5.93887e-07
6.16961e-07
5.95754e-07
6.14836e-07
5.93865e-07
6.16967e-07
5.9573e-07
6.18496e-07
5.59192e-07
5.75996e-07
6.00999e-07
6.05507e-07
5.94656e-07
6.18801e-07
5.55647e-07
6.01893e-07
5.75127e-07
6.05796e-07
5.94633e-07
6.12572e-07
5.95032e-07
6.16185e-07
5.97074e-07
6.13301e-07
5.94972e-07
6.16182e-07
5.97078e-07
6.02611e-07
6.20985e-07
6.0365e-07
6.20072e-07
6.08322e-07
6.17154e-07
6.02148e-07
6.23828e-07
6.42015e-07
6.41081e-07
6.36341e-07
6.36336e-07
6.37286e-07
6.37288e-07
6.39497e-07
6.39432e-07
6.40733e-07
6.40726e-07
6.2648e-07
6.09098e-07
6.26223e-07
6.05415e-07
6.26527e-07
6.09111e-07
6.2633e-07
6.05438e-07
6.29401e-07
6.18465e-07
6.08875e-07
6.2724e-07
6.05789e-07
5.99712e-07
6.2879e-07
6.18458e-07
6.08857e-07
6.27341e-07
6.05808e-07
5.99668e-07
6.02648e-07
6.21033e-07
6.03636e-07
6.20117e-07
6.0057e-07
6.1832e-07
6.00598e-07
6.18371e-07
6.08367e-07
6.17129e-07
6.0215e-07
6.23852e-07
6.1239e-07
6.28508e-07
6.12428e-07
6.28505e-07
6.4143e-07
6.40906e-07
6.40921e-07
6.40958e-07
6.41044e-07
6.41156e-07
0.000636955
0.000535908
0.00019554
7.76909e-05
2.14792e-05
1.44686e-05
1.10326e-06
6.44955e-07
6.41033e-07
6.34184e-07
6.34184e-07
6.35768e-07
6.35792e-07
6.32846e-07
6.32835e-07
6.32575e-07
6.32577e-07
6.10953e-07
5.94062e-07
6.14132e-07
5.94842e-07
6.12454e-07
5.9405e-07
6.14375e-07
5.94851e-07
6.15004e-07
5.95762e-07
6.12817e-07
5.94721e-07
6.15012e-07
5.95735e-07
6.12793e-07
5.94701e-07
6.1262e-07
5.92698e-07
6.18181e-07
5.9854e-07
6.12585e-07
5.92613e-07
6.18115e-07
5.98491e-07
6.1724e-07
5.99777e-07
6.15839e-07
5.96372e-07
6.1907e-07
5.99776e-07
6.15791e-07
5.96333e-07
6.08899e-07
6.24956e-07
6.09218e-07
6.25631e-07
6.42103e-07
6.4083e-07
6.36503e-07
6.3651e-07
6.36973e-07
6.36973e-07
6.38545e-07
6.38415e-07
6.39068e-07
6.39041e-07
6.26072e-07
6.07979e-07
6.28751e-07
6.13257e-07
6.26179e-07
6.07629e-07
6.2884e-07
6.13245e-07
6.28689e-07
6.11643e-07
6.28388e-07
6.11136e-07
6.2873e-07
6.11611e-07
6.28527e-07
6.11134e-07
6.19162e-07
6.02945e-07
6.17103e-07
5.97042e-07
6.19219e-07
6.02997e-07
6.17143e-07
5.97064e-07
6.20642e-07
5.94105e-07
5.75042e-07
6.03599e-07
6.12494e-07
5.91493e-07
6.20298e-07
5.94213e-07
5.75089e-07
6.03576e-07
6.12554e-07
5.91495e-07
6.08965e-07
6.24932e-07
6.09238e-07
6.25628e-07
6.02484e-07
6.19307e-07
6.02497e-07
6.19408e-07
6.41125e-07
6.40901e-07
6.40934e-07
6.40964e-07
6.41057e-07
6.41154e-07
0.00063001
0.000410134
0.00023386
0.000191478
2.17256e-05
8.66722e-06
1.40609e-06
6.66471e-07
6.41826e-07
6.33198e-07
6.33202e-07
6.3393e-07
6.33883e-07
6.36225e-07
6.35963e-07
6.35858e-07
6.35887e-07
6.12513e-07
5.98237e-07
6.1374e-07
5.97734e-07
6.13674e-07
5.98211e-07
6.13383e-07
5.97694e-07
6.12821e-07
5.93596e-07
6.11106e-07
5.93922e-07
6.10862e-07
5.93545e-07
6.11006e-07
5.93876e-07
5.69322e-07
5.54046e-07
5.69191e-07
5.54005e-07
6.42047e-07
6.42118e-07
6.36452e-07
6.36429e-07
6.35348e-07
6.3533e-07
6.37719e-07
6.37728e-07
6.38046e-07
6.37889e-07
6.29084e-07
6.19624e-07
6.28246e-07
6.19606e-07
6.30448e-07
6.19866e-07
6.29131e-07
6.19837e-07
6.29049e-07
6.18388e-07
6.29468e-07
6.20194e-07
6.29282e-07
6.18294e-07
6.29653e-07
6.20155e-07
6.29492e-07
6.18889e-07
6.28848e-07
6.14195e-07
6.29748e-07
6.18878e-07
6.28835e-07
6.14166e-07
6.1315e-07
5.84807e-07
6.2827e-07
6.11864e-07
6.13492e-07
5.84754e-07
6.28298e-07
6.11836e-07
6.4093e-07
6.40916e-07
6.40949e-07
6.40967e-07
6.41068e-07
6.41152e-07
0.000613325
0.000434439
0.000491569
0.000442317
2.5672e-05
6.93401e-06
2.69498e-06
7.33761e-07
6.36454e-07
6.36037e-07
6.64964e-07
6.64527e-07
6.36198e-07
6.36233e-07
6.32982e-07
6.32914e-07
6.01096e-07
6.16932e-07
6.0137e-07
6.20003e-07
6.01109e-07
6.17484e-07
6.01588e-07
6.20015e-07
5.99997e-07
6.11245e-07
5.97699e-07
6.17074e-07
6.0002e-07
6.12999e-07
5.97873e-07
6.1753e-07
6.08913e-07
5.93685e-07
6.17891e-07
6.02106e-07
6.08828e-07
5.93763e-07
6.17428e-07
6.02004e-07
6.19367e-07
6.00259e-07
6.19074e-07
6.00232e-07
6.19549e-07
6.00457e-07
6.18823e-07
6.0009e-07
6.41398e-07
6.42275e-07
6.40922e-07
6.37598e-07
6.37772e-07
6.37055e-07
6.37056e-07
6.38251e-07
6.38281e-07
6.39081e-07
6.39127e-07
6.31026e-07
6.227e-07
6.30163e-07
6.22162e-07
6.31022e-07
6.22872e-07
6.30054e-07
6.222e-07
6.306e-07
6.21104e-07
6.30364e-07
6.21901e-07
6.30896e-07
6.2098e-07
6.304e-07
6.21853e-07
6.10402e-07
5.99081e-07
6.10731e-07
5.99053e-07
6.40901e-07
6.40937e-07
6.40955e-07
6.40975e-07
6.4109e-07
6.41159e-07
0.000612387
0.000568152
0.000605676
0.000510448
2.48316e-05
7.55065e-06
6.90705e-06
1.13859e-06
6.33314e-07
6.33194e-07
7.1219e-07
7.12201e-07
6.1626e-07
5.96176e-07
5.99974e-07
6.20876e-07
6.13225e-07
5.9634e-07
6.00022e-07
6.1763e-07
6.36463e-07
6.36343e-07
6.03631e-07
5.97724e-07
5.9458e-07
6.19085e-07
6.03629e-07
6.0052e-07
5.94557e-07
6.1995e-07
6.05522e-07
6.12586e-07
6.00724e-07
6.21353e-07
6.0554e-07
6.14928e-07
6.00784e-07
6.21809e-07
5.8279e-07
5.75871e-07
5.83981e-07
5.75788e-07
6.41023e-07
6.4226e-07
6.41371e-07
6.3521e-07
6.35185e-07
6.35697e-07
6.35698e-07
6.38096e-07
6.38101e-07
6.37657e-07
6.3785e-07
6.24037e-07
6.32298e-07
6.2358e-07
6.34329e-07
6.24151e-07
6.32776e-07
6.23705e-07
6.34163e-07
6.25616e-07
6.33555e-07
6.25517e-07
6.32451e-07
6.25656e-07
6.33526e-07
6.25391e-07
6.32198e-07
6.32053e-07
6.25467e-07
6.29771e-07
6.23267e-07
6.32047e-07
6.2553e-07
6.298e-07
6.23229e-07
6.26873e-07
6.17225e-07
6.28266e-07
6.20988e-07
6.26778e-07
6.17015e-07
6.2833e-07
6.20946e-07
6.40918e-07
6.40951e-07
6.40955e-07
6.41016e-07
6.41133e-07
0.000623489
0.00062216
0.00063084
0.000512724
4.17374e-05
1.51485e-05
5.18434e-06
1.85562e-06
1.8592e-06
2.80992e-06
2.79097e-06
6.24001e-07
6.00137e-07
6.90542e-07
6.08519e-07
6.24121e-07
6.0005e-07
6.90507e-07
6.08534e-07
8.81294e-07
8.81733e-07
6.1201e-07
5.96168e-07
5.97714e-07
6.146e-07
6.12762e-07
5.96222e-07
5.97741e-07
6.14614e-07
6.19641e-07
6.01646e-07
6.21469e-07
6.05165e-07
6.20408e-07
6.01589e-07
6.21239e-07
6.05181e-07
5.30775e-07
6.18644e-07
6.01913e-07
6.01349e-07
5.30777e-07
6.19314e-07
6.01868e-07
6.08461e-07
6.40898e-07
6.41615e-07
6.41673e-07
6.39245e-07
6.36783e-07
6.36756e-07
6.34898e-07
6.3509e-07
6.36258e-07
6.36326e-07
6.30294e-07
6.22578e-07
6.16686e-07
6.28206e-07
6.31491e-07
6.22887e-07
6.16985e-07
6.28456e-07
6.28577e-07
6.3352e-07
6.29092e-07
6.3299e-07
6.28714e-07
6.33917e-07
6.2918e-07
6.33765e-07
6.26401e-07
6.32802e-07
6.1925e-07
6.29255e-07
6.26557e-07
6.32777e-07
6.1941e-07
6.30065e-07
6.25454e-07
6.23522e-07
6.25679e-07
6.24304e-07
6.40938e-07
6.4085e-07
6.40977e-07
6.41107e-07
0.000627013
0.000634776
0.000636207
0.00058842
0.000128277
2.09188e-05
2.85891e-06
2.81342e-06
7.89308e-06
7.96575e-06
2.94802e-06
2.8573e-06
2.84688e-06
2.77493e-06
6.66956e-07
6.02787e-07
7.55146e-07
6.20745e-07
6.67454e-07
6.02743e-07
7.55451e-07
6.20642e-07
8.37416e-07
1.67948e-06
1.05402e-06
1.14314e-06
8.37799e-07
1.68035e-06
1.04903e-06
1.14766e-06
6.2119e-07
6.04685e-07
6.06816e-07
6.22962e-07
6.21577e-07
6.04968e-07
6.07078e-07
6.22566e-07
6.2123e-07
6.06565e-07
6.18092e-07
6.08682e-07
6.22211e-07
6.06559e-07
6.17316e-07
6.08681e-07
6.4092e-07
6.41011e-07
6.41987e-07
6.38885e-07
6.30773e-07
6.30978e-07
6.3404e-07
6.3399e-07
6.33002e-07
6.33041e-07
6.23358e-07
6.1694e-07
6.11308e-07
6.09389e-07
6.24575e-07
6.17145e-07
6.11207e-07
6.09592e-07
6.24799e-07
6.18401e-07
6.28097e-07
6.21074e-07
6.30781e-07
6.23626e-07
6.25115e-07
6.18819e-07
6.28292e-07
6.21469e-07
6.30821e-07
6.23731e-07
6.34176e-07
6.28864e-07
6.34065e-07
6.28938e-07
6.26483e-07
6.30724e-07
6.27941e-07
6.293e-07
6.26569e-07
6.31199e-07
6.28058e-07
6.28012e-07
6.40823e-07
6.40868e-07
6.41092e-07
0.000630189
0.000638682
0.000638278
0.000633213
0.000330166
7.25899e-05
2.54998e-06
2.55212e-06
1.04678e-05
1.03837e-05
5.54338e-06
2.02113e-06
3.43003e-06
3.85314e-06
1.75367e-06
1.41027e-06
2.00958e-06
4.62783e-06
1.38851e-06
3.21968e-06
3.27653e-06
1.53138e-06
2.00408e-06
1.40417e-06
2.23007e-06
1.31738e-06
1.9741e-06
1.38003e-06
2.10463e-06
1.27536e-06
7.31137e-07
6.05378e-07
8.02587e-07
6.35539e-07
7.30835e-07
6.05303e-07
8.03532e-07
6.35644e-07
1.04727e-06
1.47569e-06
1.04189e-06
1.48418e-06
5.47139e-07
6.01455e-07
5.4716e-07
5.9939e-07
6.4292e-07
5.93845e-07
6.42644e-07
5.9376e-07
6.40702e-07
6.40904e-07
6.42016e-07
6.41745e-07
6.30306e-07
6.30302e-07
6.29179e-07
6.29479e-07
6.29287e-07
6.29303e-07
6.30676e-07
6.30715e-07
6.02086e-07
6.02043e-07
6.00064e-07
6.16998e-07
6.1629e-07
6.15916e-07
6.02473e-07
6.02432e-07
6.00246e-07
6.16861e-07
6.16363e-07
6.15141e-07
6.27965e-07
6.18065e-07
6.27833e-07
6.17983e-07
6.28132e-07
6.19583e-07
6.2669e-07
6.32582e-07
6.20911e-07
6.2437e-07
6.2835e-07
6.19839e-07
6.26484e-07
6.32554e-07
6.20969e-07
6.24527e-07
6.31925e-07
6.25755e-07
6.32117e-07
6.25883e-07
6.40847e-07
6.41093e-07
0.000631761
0.000639903
0.000638255
0.000630635
0.000580376
0.000186117
0.000185613
0.000401144
0.000401145
3.80407e-06
3.90015e-06
3.09581e-05
3.10732e-05
3.17475e-06
5.38536e-06
2.99044e-06
3.82817e-06
4.71702e-06
1.82389e-06
2.9687e-06
4.96126e-06
3.84271e-06
2.8294e-06
4.1519e-06
1.71226e-06
2.06529e-06
1.39988e-06
2.35359e-06
1.30485e-06
2.06855e-06
1.39001e-06
2.34754e-06
1.27703e-06
9.96081e-07
7.55124e-07
9.99613e-07
7.54994e-07
6.40734e-07
6.40636e-07
6.40915e-07
6.42877e-07
6.37534e-07
6.32961e-07
6.32979e-07
6.34672e-07
6.34651e-07
5.86114e-07
5.8396e-07
6.02379e-07
5.93134e-07
5.85635e-07
5.84147e-07
6.02291e-07
5.93185e-07
6.06452e-07
6.0729e-07
5.84245e-07
6.02222e-07
5.85403e-07
6.04007e-07
6.06326e-07
6.07421e-07
5.84763e-07
6.01938e-07
5.86011e-07
6.04014e-07
6.03322e-07
6.07288e-07
6.15669e-07
6.1908e-07
6.03533e-07
6.0747e-07
6.15882e-07
6.18834e-07
6.23225e-07
6.12746e-07
6.23369e-07
6.12916e-07
6.26371e-07
6.16638e-07
6.20502e-07
6.15491e-07
6.26552e-07
6.16846e-07
6.20334e-07
6.15517e-07
6.41089e-07
0.000633136
0.000639846
0.000637751
0.000597351
0.000405576
0.000352115
0.000353727
0.000403202
0.000403264
1.43464e-05
4.30487e-06
5.29918e-06
1.54418e-05
1.45348e-05
3.95855e-06
5.18657e-06
1.50612e-05
7.01946e-05
7.16791e-05
1.90304e-06
1.26646e-06
1.7872e-06
1.02908e-06
1.98468e-06
1.2177e-06
2.01809e-06
1.0308e-06
6.41082e-07
6.4068e-07
6.40325e-07
6.41295e-07
6.4282e-07
6.23863e-07
6.24023e-07
6.19346e-07
6.19839e-07
6.30865e-07
6.31293e-07
6.25392e-07
6.25388e-07
5.92746e-07
5.95327e-07
6.12152e-07
5.93693e-07
5.9138e-07
5.95391e-07
6.11953e-07
5.93763e-07
5.99095e-07
6.0226e-07
5.80874e-07
5.93042e-07
6.07563e-07
5.90446e-07
5.99229e-07
6.02115e-07
5.93073e-07
5.81385e-07
6.06756e-07
5.90321e-07
6.03729e-07
6.14805e-07
6.0387e-07
6.15023e-07
0.000634874
0.000639437
0.000635531
0.000526951
0.000380067
0.000370082
0.000379306
0.00037968
0.000337057
0.000339942
0.000395647
0.000392581
2.7625e-05
5.52437e-06
9.11865e-06
2.24318e-05
2.76425e-05
5.04263e-06
8.53561e-06
2.17904e-05
0.000234642
0.000184374
8.84844e-05
7.57391e-05
0.000242121
0.000189512
9.02564e-05
7.74859e-05
2.22801e-06
2.04987e-06
2.12926e-06
1.81946e-06
6.40659e-07
6.40434e-07
6.40681e-07
6.42146e-07
6.39511e-07
6.24743e-07
6.24847e-07
6.28091e-07
6.28341e-07
6.21681e-07
6.21913e-07
5.75056e-07
5.8783e-07
5.82084e-07
5.72799e-07
5.75164e-07
5.8742e-07
5.82226e-07
5.72705e-07
6.01449e-07
5.85628e-07
5.98138e-07
5.82147e-07
6.00939e-07
5.86039e-07
5.98367e-07
5.82236e-07
0.000636533
0.00063986
0.000631769
0.000528913
0.000358532
0.000346876
0.000397137
0.000401685
0.000282025
0.000252254
0.000355378
0.000383336
0.000335488
0.000433789
0.000293838
0.000257652
0.000345716
0.000376342
0.000334062
0.000393699
0.000359775
0.000336418
7.35055e-05
1.30288e-05
2.77312e-05
5.20596e-05
7.4263e-05
1.19165e-05
2.57124e-05
4.96882e-05
0.0001972
0.000152631
0.000207537
0.000155401
6.38711e-07
6.40726e-07
6.41253e-07
6.43286e-07
6.2169e-07
6.21991e-07
6.21863e-07
6.2239e-07
6.22279e-07
6.21897e-07
6.19531e-07
6.19026e-07
5.7696e-07
5.71235e-07
5.89835e-07
5.77306e-07
5.82334e-07
5.81012e-07
5.75377e-07
5.71184e-07
5.89334e-07
5.77955e-07
5.8173e-07
5.81249e-07
6.00509e-07
5.80546e-07
6.00091e-07
5.80495e-07
5.85817e-07
5.69227e-07
5.86052e-07
5.69298e-07
0.000637471
0.000640781
0.000628487
0.000586983
0.000595184
0.000616862
0.000616783
0.000360364
0.000363009
0.000460427
0.000491299
0.000371602
0.000326416
0.000381077
0.000418009
0.000312747
0.000430476
0.000365396
0.000326622
0.000357063
0.000399231
0.000311954
0.000390302
0.000367483
0.000286146
0.000408
0.000286646
0.000349614
0.000285937
0.00035871
0.000286261
6.33081e-07
6.40943e-07
6.41645e-07
6.41799e-07
6.21737e-07
6.23719e-07
6.27202e-07
6.29818e-07
6.14577e-07
6.15591e-07
5.77971e-07
5.80124e-07
5.72252e-07
5.71995e-07
5.73626e-07
5.62444e-07
5.72341e-07
5.71784e-07
5.73709e-07
5.62408e-07
5.75395e-07
5.80219e-07
5.91285e-07
5.86864e-07
5.75749e-07
5.57513e-07
5.91527e-07
5.8549e-07
5.75761e-07
5.57773e-07
5.98729e-07
5.54731e-07
5.98821e-07
5.54806e-07
0.000639841
0.000639729
0.000621936
0.000569103
0.000567964
0.000594145
0.000593599
0.000367112
0.000294073
0.000436087
0.000460326
0.00036535
0.000486127
0.000350338
0.000285383
0.000435143
0.000465813
0.000375769
0.000491746
0.000508348
0.000510423
0.000299735
0.000427263
0.000277937
0.000364535
0.000405607
0.000285232
0.00035883
0.000286631
6.34977e-07
6.40961e-07
6.41845e-07
6.25233e-07
6.25688e-07
6.28256e-07
6.28474e-07
6.23563e-07
6.2458e-07
6.216e-07
6.21651e-07
5.67398e-07
5.74605e-07
5.78427e-07
5.73615e-07
5.69505e-07
5.7516e-07
5.66011e-07
5.69463e-07
5.75206e-07
5.74661e-07
5.78799e-07
5.74168e-07
5.80515e-07
5.67477e-07
5.75332e-07
5.65001e-07
5.76078e-07
5.78834e-07
5.65219e-07
5.67934e-07
0.000640695
0.000637279
0.000607925
0.000555234
0.000556238
0.000582101
0.000582561
0.000463997
0.00029484
0.000437084
0.000489843
0.000410343
0.000483864
0.000461982
0.000378043
0.000439613
0.000499409
0.000438918
0.000486942
0.000556276
0.000451295
0.000546865
0.000395042
0.000557636
0.000453161
0.000552008
0.000403124
0.000432526
0.000289387
0.000400795
0.000407097
6.41065e-07
6.40968e-07
6.41159e-07
6.31562e-07
6.32026e-07
6.35811e-07
6.35482e-07
6.16133e-07
6.15899e-07
5.80718e-07
5.75508e-07
5.77047e-07
5.8216e-07
5.81787e-07
5.73958e-07
5.78805e-07
5.75213e-07
5.77246e-07
5.8165e-07
5.81937e-07
5.74582e-07
5.65532e-07
5.72596e-07
5.71861e-07
5.65915e-07
5.73013e-07
5.66307e-07
5.66161e-07
5.72154e-07
0.000639636
0.000632208
0.000556806
0.000589282
0.000591439
0.000557696
0.000596158
0.000596908
0.000582453
0.000547122
0.000498974
0.000583778
0.000548086
0.000501933
0.000493414
0.00036388
0.000368363
0.000513222
0.00036339
0.000545601
0.000504045
0.00042025
0.000403009
0.000526571
0.000394717
0.000558305
0.000561944
0.000413128
0.000576047
0.00046057
6.41058e-07
6.40979e-07
6.39452e-07
6.26383e-07
6.27341e-07
6.23421e-07
6.23734e-07
5.72375e-07
5.72795e-07
5.83392e-07
5.7274e-07
5.80667e-07
5.79487e-07
5.73149e-07
5.80458e-07
5.79921e-07
5.729e-07
5.83953e-07
5.73302e-07
5.83644e-07
5.71464e-07
5.97549e-07
5.83361e-07
5.81795e-07
5.70184e-07
5.98092e-07
5.83749e-07
5.50527e-07
5.53093e-07
5.50043e-07
5.53254e-07
0.00063787
0.000626573
0.000385824
0.000364608
0.000385603
0.000364661
0.00059518
0.000595606
0.000215491
0.000504321
0.000444604
0.000596336
0.000567918
0.000182699
0.000405445
0.00035436
0.000505555
0.000214451
0.000445262
0.000596601
0.000568034
0.000182453
0.000403282
0.000354054
0.000359979
0.000547695
0.00041182
0.000569455
0.000599714
0.000557449
0.000602322
0.000576069
6.41044e-07
6.4104e-07
6.28991e-07
6.24595e-07
6.25585e-07
6.28678e-07
6.31782e-07
6.31514e-07
6.199e-07
5.81359e-07
5.79098e-07
6.20688e-07
5.8043e-07
5.79463e-07
6.03623e-07
6.01899e-07
5.84429e-07
5.84064e-07
6.02596e-07
5.85053e-07
6.01553e-07
5.84487e-07
5.94441e-07
5.63373e-07
5.84781e-07
5.66887e-07
5.92981e-07
5.60692e-07
5.84959e-07
5.67251e-07
0.000636235
0.000636117
9.66126e-05
0.000134728
0.000118849
0.000429715
9.66672e-05
0.000134603
0.000118108
0.000429637
0.00061005
0.000610914
0.000121221
7.19615e-05
0.000478872
0.00039284
8.48109e-05
6.1831e-05
0.000121647
0.000481472
7.19733e-05
0.00039482
8.47956e-05
6.17862e-05
0.000424935
0.000541536
0.000460723
0.000557802
6.41026e-07
6.40508e-07
6.29425e-07
6.24362e-07
6.24351e-07
6.28934e-07
6.32986e-07
6.31757e-07
5.86309e-07
5.96414e-07
5.85564e-07
5.872e-07
5.84137e-07
5.79759e-07
5.81004e-07
5.82117e-07
5.87095e-07
5.96619e-07
5.85785e-07
5.86639e-07
5.84648e-07
5.79846e-07
5.82024e-07
5.82144e-07
5.97962e-07
5.98463e-07
5.74908e-07
5.69238e-07
5.98071e-07
5.72377e-07
5.97957e-07
5.70028e-07
0.000638433
0.000638512
0.000622809
0.000623318
0.00063852
0.000637221
0.000637307
0.00012691
4.08458e-05
4.50905e-05
2.52514e-05
5.09228e-05
8.56175e-05
7.78095e-05
3.52788e-05
0.000600462
0.000212645
0.000152782
0.000126555
4.08269e-05
4.51466e-05
2.53635e-05
5.08885e-05
8.57745e-05
7.77788e-05
3.53027e-05
0.000602475
0.00021204
0.000153289
3.57477e-05
3.55004e-05
2.57529e-05
2.36487e-05
3.58822e-05
3.55686e-05
2.574e-05
2.36587e-05
6.41005e-07
6.38809e-07
6.25872e-07
6.22987e-07
5.87126e-07
5.90579e-07
6.22956e-07
5.87155e-07
5.90898e-07
6.25621e-07
6.29074e-07
6.26951e-07
5.96719e-07
6.01604e-07