/*--------------------------------*- C++ -*----------------------------------*\
| =========                 |                                                 |
| \\      /  F ield         | OpenFOAM: The Open Source CFD Toolbox           |
|  \\    /   O peration     | Version:  5.x                                   |
|   \\  /    A nd           | Web:      www.OpenFOAM.org                      |
|    \\/     M anipulation  |                                                 |
\*---------------------------------------------------------------------------*/
FoamFile
{
    version     2.0;
    format      ascii;
    class       volVectorField;
    location    "1.9";
    object      U;
}
// * * * * * * * * * * * * * * * * * * * * * * * * * * * * * * * * * * * * * //

dimensions      [0 1 -1 0 0 0 0];

internalField   nonuniform List<vector> 
12160
(
(0.177705 0 0.000136499)
(0.170278 0 0.00152533)
(0.177631 0 -0.0028512)
(0.175916 0 0.00327925)
(0.170033 0 -0.0044506)
(0.176977 0 -0.00214698)
(0.175246 0 0.00415016)
(0.175595 0 -0.00407249)
(0.169138 0 -0.00110635)
(0.176211 0 -0.0050762)
(0.171575 0 0.00388046)
(0.174913 0 -0.00202418)
(0.175259 0 0.00276184)
(0.167452 0 -0.00770045)
(0.174739 0 -0.00244563)
(0.167254 0 0.00342318)
(0.170837 0 -0.000803603)
(0.174835 0 0.00661669)
(0.17281 0 -0.00533774)
(0.165329 0 -0.0030355)
(0.172285 0 -0.00505633)
(0.162994 0 0.00305666)
(0.167009 0 0.000174347)
(0.171488 0 0.00690875)
(0.172156 0 -0.000211099)
(0.171907 0 0.00290374)
(0.160231 0 -0.0109705)
(0.169857 0 0.00188994)
(0.157794 0 0.0030738)
(0.16304 0 0.000888889)
(0.167675 0 0.00682841)
(0.168325 0 0.0018531)
(0.171701 0 0.00879274)
(0.165493 0 -0.00656731)
(0.157235 0 -0.0034131)
(0.163818 0 0.000359295)
(0.150821 0 0.00328552)
(0.158109 0 0.002294)
(0.163675 0 0.00688892)
(0.166177 0 0.00320209)
(0.169157 0 0.00934917)
(0.164398 0 0.000815676)
(0.165435 0 0.00411092)
(0.13938 0 -0.0139506)
(0.0984628 0 0.0184086)
(0.141985 0 0.00360618)
(0.151268 0 0.00382713)
(0.159162 0 0.00836793)
(0.163232 0 0.00432476)
(0.167631 0 0.00928515)
(0.163508 0 0.00294)
(0.16493 0 0.00927105)
(0.145825 0 -0.00754541)
(0.080527 0 0.000432876)
(-0.18982 0 -0.0789433)
(0.131679 0 0.00384449)
(0.142424 0 0.00531848)
(0.152358 0 0.0104972)
(0.159718 0 0.00708453)
(0.165266 0 0.00967972)
(0.164869 0 0.00442452)
(0.164548 0 0.00927523)
(0.147293 0 0.000824993)
(0.0987971 0 0.00385157)
(-0.189741 0 -0.0176164)
(-0.03618 0 0.152649)
(0.120663 0 0.00391787)
(0.131984 0 0.00633102)
(0.143334 0 0.0128097)
(0.153301 0 0.0107379)
(0.161882 0 0.0128589)
(0.16484 0 0.00647224)
(0.166237 0 0.00914887)
(0.152226 0 0.00224186)
(0.126491 0 0.00537459)
(-0.267 0 -0.024298)
(0.25652 0 0.0319742)
(0.00692698 0 -0.156797)
(0.109811 0 0.00381171)
(0.120789 0 0.00670629)
(0.132522 0 0.0144259)
(0.144226 0 0.0143556)
(0.155478 0 0.0177043)
(0.163117 0 0.0110524)
(0.166729 0 0.0103815)
(0.160546 0 0.00316394)
(0.142553 0 0.00325808)
(-0.206928 0 -0.0173804)
(-0.0475187 0 0.00628384)
(0.10378 0 0.00716378)
(-0.0914298 0 0.092042)
(0.0995698 0 0.00349782)
(0.109741 0 0.00652647)
(0.120925 0 0.0149995)
(0.132991 0 0.0167891)
(0.146057 0 0.0226563)
(0.157618 0 0.0175131)
(0.165661 0 0.0156899)
(0.166455 0 0.00597974)
(0.166999 0 0.00284288)
(-0.157595 0 -0.0149875)
(-0.0546945 0 -0.0373434)
(0.069478 0 0.102759)
(-0.122223 0 -0.00489309)
(0.066333 0 -0.0500553)
(0.0906632 0 0.00303357)
(0.0994016 0 0.00601789)
(0.109637 0 0.0145797)
(0.120821 0 0.0175843)
(0.13404 0 0.0260855)
(0.148057 0 0.0240787)
(0.160373 0 0.0242305)
(0.170012 0 0.0137483)
(0.186261 0 0.00610627)
(-0.0543731 0 -0.015412)
(-0.0954907 0 -0.0595778)
(0.0583204 0 0.0078992)
(-0.0215109 0 0.0164144)
(0.0811596 0 -0.0104145)
(-0.0587895 0 0.0170426)
(0.08251 0 0.0027078)
(0.0903346 0 0.0054932)
(0.0993553 0 0.013479)
(0.108958 0 0.0168753)
(0.120993 0 0.0272356)
(0.135095 0 0.0285232)
(0.150301 0 0.0329353)
(0.167735 0 0.0249675)
(0.203313 0 0.0152539)
(0.0481153 0 -0.0111264)
(-0.0870612 0 -0.0776522)
(0.0420613 0 -0.0129676)
(0.0205293 0 -0.0301147)
(0.047991 0 0.0555444)
(-0.0864518 0 -0.0117428)
(0.0744245 0 0.00261984)
(0.082184 0 0.00543421)
(0.0903874 0 0.0121195)
(0.098219 0 0.0152526)
(0.108508 0 0.0262418)
(0.120825 0 0.0298262)
(0.135993 0 0.0388878)
(0.15859 0 0.0367194)
(0.212135 0 0.0283949)
(0.145631 0 0.00133247)
(-0.0904652 0 -0.0735224)
(0.03458 0 -0.0298493)
(0.0129922 0 -0.0403918)
(0.0219093 0 -0.00399126)
(-0.0309999 0 0.0285418)
(0.0661821 0 0.00269272)
(0.0744549 0 0.00567065)
(0.082448 0 0.0112426)
(0.0891841 0 0.0135323)
(0.0978122 0 0.0239057)
(0.1072 0 0.0281)
(0.120118 0 0.0406984)
(0.143581 0 0.0447113)
(0.210294 0 0.0417752)
(0.20569 0 0.0227594)
(-0.0573576 0 -0.0548596)
(0.027413 0 -0.0388728)
(0.0134028 0 -0.0573794)
(0.00718505 0 -0.017943)
(-0.00342671 0 -0.0164862)
(0.0570802 0 0.00292642)
(0.0664258 0 0.00628484)
(0.0748973 0 0.0112747)
(0.0816709 0 0.0126693)
(0.0891355 0 0.0212496)
(0.0958412 0 0.0245244)
(0.105243 0 0.0384344)
(0.125913 0 0.046928)
(0.197937 0 0.0506375)
(0.230133 0 0.0442948)
(0.0351697 0 -0.0125055)
(0.021506 0 -0.0597757)
(0.00633659 0 -0.0537975)
(0.00154513 0 -0.0384504)
(0.00381275 0 -0.0249984)
(0.0468318 0 0.00323381)
(0.0574567 0 0.00727071)
(0.0671033 0 0.0121939)
(0.0748914 0 0.0128506)
(0.0820965 0 0.0194364)
(0.0870192 0 0.0208074)
(0.0936242 0 0.0339031)
(0.108646 0 0.0432786)
(0.180082 0 0.0530802)
(0.227395 0 0.0598379)
(0.115982 0 0.0316706)
(0.0152601 0 -0.0523839)
(-0.00116631 0 -0.0445909)
(-0.00449636 0 -0.0432896)
(0.00542609 0 -0.0426747)
(0.0354104 0 0.00353556)
(0.0472422 0 0.00842194)
(0.0582967 0 0.0138239)
(0.0677496 0 0.0142164)
(0.0757849 0 0.0193849)
(0.0807589 0 0.0184467)
(0.0855919 0 0.0294717)
(0.0944508 0 0.036033)
(0.160442 0 0.0490242)
(0.207676 0 0.0659014)
(0.150531 0 0.0657582)
(0.0298914 0 -0.00785611)
(-0.0175944 0 -0.0218808)
(-0.0103107 0 -0.0479986)
(0.00304745 0 -0.0431243)
(0.0230718 0 0.00376526)
(0.0357605 0 0.00950255)
(0.0481041 0 0.0157693)
(0.0593564 0 0.0165753)
(0.0691668 0 0.0213197)
(0.0759378 0 0.0184181)
(0.0803057 0 0.0262184)
(0.0838522 0 0.0285083)
(0.142792 0 0.0414746)
(0.184939 0 0.0624392)
(0.155612 0 0.0792588)
(0.0591735 0 0.0399322)
(-0.0268293 0 0.00722749)
(-0.0185947 0 -0.03349)
(0.00143847 0 -0.0429829)
(0.0102511 0 0.0038624)
(0.0232833 0 0.0102909)
(0.0364876 0 0.0176188)
(0.0492938 0 0.0193773)
(0.0611613 0 0.024763)
(0.0707601 0 0.0208777)
(0.0765905 0 0.0256327)
(0.0777242 0 0.0226)
(0.12908 0 0.0343074)
(0.173953 0 0.0517728)
(0.142905 0 0.0738057)
(0.0960312 0 0.0673646)
(-0.0171177 0 0.0333447)
(-0.0163018 0 -0.00456591)
(-0.00244642 0 -0.0256284)
(-0.00240033 0 0.00378746)
(0.0102709 0 0.0106208)
(0.023728 0 0.0189963)
(0.0375299 0 0.0220401)
(0.0511706 0 0.0288612)
(0.0635906 0 0.0252709)
(0.0725196 0 0.0285475)
(0.0754033 0 0.0209081)
(0.121244 0 0.0286553)
(0.18306 0 0.0393494)
(0.121411 0 0.0500663)
(0.13649 0 0.0729877)
(0.00384099 0 0.0447519)
(-0.0101356 0 0.025759)
(-0.00820464 0 0.000461159)
(-0.0141937 0 0.00352345)
(-0.00260316 0 0.0103962)
(0.0103174 0 0.0196069)
(0.0243817 0 0.0240219)
(0.0391284 0 0.0327915)
(0.0538267 0 0.0305057)
(0.0662297 0 0.033963)
(0.0730556 0 0.0246997)
(0.11561 0 0.0287231)
(0.19454 0 0.0287053)
(0.1039 0 0.0290616)
(0.176237 0 0.0636582)
(0.0243591 0 0.0408932)
(-0.00262684 0 0.0423414)
(-0.00874931 0 0.0249219)
(-0.0245694 0 0.00308708)
(-0.0146239 0 0.00956988)
(-0.0030278 0 0.0192757)
(0.0104073 0 0.0249043)
(0.0253792 0 0.0357893)
(0.041476 0 0.0355045)
(0.0568668 0 0.0406938)
(0.0676652 0 0.0329649)
(0.107905 0 0.0349581)
(0.195526 0 0.025775)
(0.12187 0 0.0248769)
(0.206792 0 0.0390179)
(0.0426878 0 0.0247068)
(0.00706247 0 0.0455198)
(-0.00474658 0 0.0390644)
(-0.0330299 0 0.00251888)
(-0.025202 0 0.00818602)
(-0.0155389 0 0.0179095)
(-0.00361632 0 0.0244499)
(0.0105651 0 0.0372618)
(0.0269545 0 0.0392627)
(0.0442968 0 0.0473439)
(0.0582393 0 0.0429382)
(0.0968835 0 0.0445339)
(0.189184 0 0.033604)
(0.165056 0 0.0317372)
(0.225568 0 0.00138095)
(0.0588932 0 0.0092903)
(0.010986 0 0.0366804)
(-0.00258868 0 0.0401244)
(-0.0392217 0 0.00188736)
(-0.0338143 0 0.00633901)
(-0.0265741 0 0.0155928)
(-0.016832 0 0.0225336)
(-0.00444412 0 0.0368594)
(0.011024 0 0.0410358)
(0.0289527 0 0.0526766)
(0.044678 0 0.0524935)
(0.081941 0 0.0552848)
(0.174084 0 0.0477615)
(0.193846 0 0.0447636)
(0.235678 0 -0.00632905)
(0.0672097 0 0.00774184)
(0.00799635 0 0.0197143)
(0.000733796 0 0.0307487)
(-0.042995 0 0.00127793)
(-0.0400693 0 0.00414602)
(-0.0355839 0 0.0125013)
(-0.0284954 0 0.0192763)
(-0.0186796 0 0.0343526)
(-0.00535551 0 0.04051)
(0.0117511 0 0.0558648)
(0.0277856 0 0.059697)
(0.0631486 0 0.0655104)
(0.152048 0 0.0635193)
(0.19853 0 0.0629574)
(0.228722 0 0.0214352)
(0.0645177 0 0.0219003)
(0.000196549 0 0.000803768)
(0.00342151 0 0.0177171)
(-0.0442622 0 0.000780932)
(-0.0437549 0 0.00172234)
(-0.0421896 0 0.00887394)
(-0.0379798 0 0.0149112)
(-0.0312854 0 0.029943)
(-0.0210217 0 0.0374568)
(-0.00636448 0 0.0560953)
(0.0092812 0 0.0634058)
(0.0410345 0 0.0730678)
(0.122346 0 0.0788971)
(0.182793 0 0.0824069)
(0.205879 0 0.0571442)
(0.0779266 0 0.048255)
(-0.000680497 0 -0.00246584)
(0.00241058 0 0.00941984)
(-0.0432153 0 0.000116867)
(-0.0450481 0 -0.000832469)
(-0.046226 0 0.00501618)
(-0.0447927 0 0.00974672)
(-0.0415818 0 0.0239777)
(-0.0348986 0 0.0321161)
(-0.023937 0 0.0524056)
(-0.0087356 0 0.0631811)
(0.0164072 0 0.0761014)
(0.0858655 0 0.091143)
(0.150687 0 0.101685)
(0.177053 0 0.0871419)
(0.102338 0 0.0770991)
(0.00218653 0 0.0192134)
(-0.00993206 0 0.0140594)
(-0.0401994 0 -0.000496402)
(-0.0440845 0 -0.00303738)
(-0.0473864 0 0.00132577)
(-0.0485953 0 0.00411848)
(-0.0491024 0 0.0169134)
(-0.0461766 0 0.0248634)
(-0.0393478 0 0.0453726)
(-0.0256036 0 0.0586856)
(-0.00720831 0 0.0753268)
(0.0438414 0 0.098007)
(0.105227 0 0.117276)
(0.14085 0 0.115538)
(0.113481 0 0.109017)
(0.000187617 0 0.0562903)
(-0.0207803 0 0.0324334)
(-0.0355989 0 -0.00099134)
(-0.0410098 0 -0.00490827)
(-0.045932 0 -0.00232305)
(-0.0498228 0 -0.00169661)
(-0.05368 0 0.00928143)
(-0.0542126 0 0.0161281)
(-0.0517679 0 0.0358804)
(-0.041209 0 0.0504486)
(-0.0303264 0 0.070981)
(-0.00525873 0 0.0982979)
(0.0507111 0 0.127453)
(0.0928217 0 0.141929)
(0.105374 0 0.141814)
(0.00150187 0 0.100073)
(-0.0202915 0 0.0621437)
(-0.0298517 0 -0.00135603)
(-0.0362975 0 -0.00637964)
(-0.0425095 0 -0.00548258)
(-0.0485682 0 -0.00696143)
(-0.054726 0 0.00190484)
(-0.0583807 0 0.00651589)
(-0.0607891 0 0.024953)
(-0.055106 0 0.0392432)
(-0.0536942 0 0.0633908)
(-0.0546267 0 0.0935556)
(-0.0113174 0 0.131407)
(0.0382972 0 0.160421)
(0.0746689 0 0.167611)
(0.00441103 0 0.145583)
(-0.0185838 0 0.0995303)
(-0.0233659 0 -0.00159126)
(-0.0303971 0 -0.00744149)
(-0.037448 0 -0.00801667)
(-0.0447972 0 -0.0114501)
(-0.0525206 0 -0.00502187)
(-0.0592858 0 -0.00345451)
(-0.0661922 0 0.0134802)
(-0.0650544 0 0.0250123)
(-0.0735619 0 0.051466)
(-0.0963258 0 0.0824126)
(-0.0728703 0 0.124201)
(-0.0164286 0 0.166551)
(0.0348266 0 0.180934)
(0.00671889 0 0.183267)
(-0.0155445 0 0.140365)
(-0.0165221 0 -0.00170175)
(-0.0237371 0 -0.00811577)
(-0.0312028 0 -0.00988341)
(-0.0392553 0 -0.0149553)
(-0.0480512 0 -0.0109571)
(-0.0571815 0 -0.0126337)
(-0.0670389 0 0.00206097)
(-0.0701979 0 0.00913371)
(-0.0894834 0 0.0363302)
(-0.131529 0 0.065985)
(-0.127179 0 0.109926)
(-0.064733 0 0.157889)
(0.0014832 0 0.182176)
(0.00549385 0 0.20171)
(-0.0107278 0 0.175651)
(-0.00966158 0 -0.00169265)
(-0.0167026 0 -0.0084146)
(-0.0242031 0 -0.0110935)
(-0.0324867 0 -0.01746)
(-0.0417492 0 -0.0156326)
(-0.0519778 0 -0.0202865)
(-0.063398 0 -0.00870125)
(-0.0712385 0 -0.00666324)
(-0.101234 0 0.0195277)
(-0.15999 0 0.0455391)
(-0.172318 0 0.0905327)
(-0.117538 0 0.136788)
(-0.0280771 0 0.175843)
(0.00301291 0 0.20254)
(-0.00501851 0 0.1939)
(-0.0031269 0 -0.0016023)
(-0.00962231 0 -0.00835512)
(-0.0168287 0 -0.0116785)
(-0.0249682 0 -0.0190372)
(-0.0342423 0 -0.0190435)
(-0.0446882 0 -0.0260486)
(-0.0566737 0 -0.0177881)
(-0.0683143 0 -0.0216957)
(-0.108683 0 0.00227472)
(-0.180424 0 0.0229493)
(-0.206443 0 0.0663842)
(-0.160988 0 0.107388)
(-0.0689741 0 0.159478)
(0.000202511 0 0.198393)
(0.0001133 0 0.196388)
(0.00308273 0 -0.00146634)
(-0.00281301 0 -0.00799013)
(-0.00940333 0 -0.0116736)
(-0.0170922 0 -0.0197584)
(-0.0260211 0 -0.0212655)
(-0.0361571 0 -0.0300247)
(-0.047963 0 -0.0246256)
(-0.0617852 0 -0.033575)
(-0.111606 0 -0.0128205)
(-0.192033 0 0.000214728)
(-0.227124 0 0.0396378)
(-0.191733 0 0.0745914)
(-0.100457 0 0.12973)
(-0.000840419 0 0.18021)
(0.00296404 0 0.190632)
(0.00823367 0 -0.00131095)
(0.00361287 0 -0.00740434)
(-0.00223039 0 -0.0111428)
(-0.00918518 0 -0.0196752)
(-0.0174535 0 -0.0223679)
(-0.0269889 0 -0.0325064)
(-0.0383801 0 -0.0294711)
(-0.0539053 0 -0.0413707)
(-0.110516 0 -0.0245886)
(-0.192888 0 -0.0212915)
(-0.231559 0 0.0103153)
(-0.211151 0 0.038027)
(-0.110866 0 0.0901466)
(0.00161762 0 0.138978)
(0.00963854 0 0.169531)
(0.00878598 0 -0.00683223)
(0.0172245 0 -0.000758975)
(0.00449066 0 -0.0101169)
(-0.0015417 0 -0.0188365)
(-0.0088652 0 -0.0223831)
(-0.0175052 0 -0.0337014)
(-0.0284473 0 -0.0325793)
(-0.0463611 0 -0.0461945)
(-0.107474 0 -0.0321802)
(-0.178282 0 -0.0384623)
(-0.211949 0 -0.0223475)
(-0.218377 0 -0.0109515)
(-0.101763 0 0.0482929)
(0.00617919 0 0.0874414)
(0.0155926 0 0.130732)
(0.00997464 0 -0.00892976)
(0.0175072 0 -0.0051589)
(0.0206384 0 -0.000363623)
(0.00553911 0 -0.0173123)
(-0.000562601 0 -0.0213245)
(-0.00798865 0 -0.0336589)
(-0.0184285 0 -0.034067)
(-0.0396694 0 -0.0492528)
(-0.104316 0 -0.0373445)
(-0.146476 0 -0.0483855)
(-0.162193 0 -0.0556033)
(-0.216172 0 -0.0658723)
(-0.0836113 0 0.00744351)
(0.00863968 0 0.0317899)
(0.0202723 0 0.0823072)
(0.0114574 0 -0.0154471)
(0.0185304 0 -0.00612323)
(0.0210159 0 -0.00345845)
(0.0284432 0 0.00019249)
(0.0070519 0 -0.0192385)
(0.00126738 0 -0.0323739)
(-0.00850283 0 -0.0339499)
(-0.033141 0 -0.0509303)
(-0.100116 0 -0.0414824)
(-0.106109 0 -0.0539404)
(-0.10039 0 -0.0772452)
(-0.214562 0 -0.109226)
(-0.0625966 0 -0.0365142)
(0.015796 0 -0.0242547)
(0.024739 0 0.0327365)
(0.013434 0 -0.0164162)
(0.0200996 0 -0.0114162)
(0.0216553 0 -0.00306546)
(0.0274427 0 -0.00218506)
(0.0233405 0 -0.00192222)
(0.00976858 0 -0.0299289)
(0.00103319 0 -0.0320537)
(-0.0263066 0 -0.0510681)
(-0.0929707 0 -0.0446461)
(-0.0652588 0 -0.0591842)
(-0.0570042 0 -0.0865755)
(-0.21269 0 -0.119813)
(-0.0489989 0 -0.0729768)
(0.0207716 0 -0.0691584)
(0.0241019 0 -0.0124268)
(0.017139 0 -0.0264867)
(0.021958 0 -0.0101702)
(0.0234855 0 -0.00733257)
(0.0276349 0 0.000849091)
(0.0203328 0 -0.00583798)
(0.0468442 0 -0.00477024)
(0.00968855 0 -0.0285342)
(-0.0191223 0 -0.0494196)
(-0.0816313 0 -0.0459946)
(-0.0244546 0 -0.0648589)
(-0.0380333 0 -0.0906412)
(-0.199664 0 -0.106553)
(-0.0448556 0 -0.095202)
(0.0145965 0 -0.0978516)
(0.0179111 0 -0.0531286)
(0.0168263 0 -0.0231138)
(0.0258483 0 -0.0193429)
(0.0246224 0 -0.0032084)
(0.0266267 0 -0.00334305)
(0.0199758 0 -0.00565741)
(0.039051 0 -0.011969)
(0.0584937 0 -0.0142846)
(-0.011852 0 -0.0459018)
(-0.0669582 0 -0.0446244)
(0.0150371 0 -0.0700002)
(-0.037522 0 -0.0928911)
(-0.176974 0 -0.0880069)
(-0.0424342 0 -0.103409)
(0.00528096 0 -0.110572)
(0.0126549 0 -0.0821393)
(-0.00619028 0 -0.0398045)
(0.0244916 0 -0.012031)
(0.0287762 0 -0.0108376)
(0.0265283 0 0.00440178)
(0.0159132 0 -0.00908337)
(0.0332016 0 -0.0128054)
(0.0377702 0 -0.0347236)
(0.138085 0 -0.0111392)
(-0.0507911 0 -0.0400708)
(0.0528814 0 -0.0716573)
(-0.0521119 0 -0.092749)
(-0.153717 0 -0.0728318)
(-0.0392281 0 -0.10574)
(-0.00206959 0 -0.111839)
(0.00823948 0 -0.0982922)
(-0.0391065 0 -0.0315606)
(0.000148487 0 -0.0278344)
(0.0252996 0 -0.000280727)
(0.0278342 0 -0.00105186)
(0.0148953 0 9.27964e-06)
(0.0196668 0 -0.0153713)
(0.0226866 0 -0.0485574)
(0.107186 0 -0.0560574)
(0.18296 0 -0.0399909)
(0.0858967 0 -0.0663128)
(-0.069399 0 -0.0863814)
(-0.133329 0 -0.065044)
(-0.0344603 0 -0.104333)
(-0.0058987 0 -0.106637)
(0.00466156 0 -0.103332)
(0.101542 0 -0.0565607)
(-0.0162064 0 -0.0164242)
(0.00307986 0 -0.0127767)
(0.0228361 0 0.0118532)
(0.0123128 0 -0.0027268)
(0.0101593 0 -0.00496633)
(0.00298577 0 -0.0520053)
(0.0652765 0 -0.0752514)
(0.148543 0 -0.0784883)
(0.347715 0 0.00889435)
(-0.0834389 0 -0.0685434)
(-0.115953 0 -0.0639867)
(-0.0290782 0 -0.100031)
(-0.00698064 0 -0.0984448)
(0.00204491 0 -0.101445)
(-0.0949937 0 -0.0600577)
(0.150062 0 -0.0465278)
(0.00869315 0 0.000355307)
(-7.27988e-05 0 0.00369346)
(0.00642816 0 0.0138929)
(0.000868751 0 -0.00505925)
(-0.0121906 0 -0.0412306)
(0.0126049 0 -0.0984084)
(0.106812 0 -0.131425)
(0.273357 0 -0.022692)
(0.172712 0 0.0220824)
(-0.100806 0 -0.0635427)
(-0.024461 0 -0.093198)
(-0.00745646 0 -0.0902861)
(0.000291454 0 -0.0963446)
(-0.0812706 0 -0.0585984)
(-0.0885707 0 -0.0484985)
(0.197074 0 -0.022145)
(0.0136121 0 0.0191916)
(-0.0160343 0 0.00984785)
(-0.0102798 0 0.0175722)
(-0.0332652 0 -0.0312276)
(-0.0362106 0 -0.087272)
(0.0238596 0 -0.156971)
(0.185974 0 -0.0839101)
(0.257394 0 0.0744016)
(0.269776 0 1.2242)
(-0.0248358 0 -0.0819654)
(-0.00815377 0 -0.0828021)
(-0.000973376 0 -0.0903034)
(-0.0234125 0 -0.067411)
(-0.0686657 0 -0.0569155)
(-0.077536 0 -0.0107368)
(0.185081 0 0.00925045)
(-0.00296122 0 0.0293223)
(-0.033657 0 0.0180452)
(-0.0495129 0 0.00670428)
(-0.0819379 0 -0.0663422)
(-0.0718848 0 -0.171591)
(0.0876951 0 -0.174508)
(0.322116 0 0.0745115)
(0.247337 0 1.04545)
(0.628847 9.78401e-28 1.54959)
(0.235202 0 1.66904)
(-0.010379 0 -0.0758165)
(-0.00191862 0 -0.0831287)
(-0.0101558 0 -0.065338)
(-0.0262975 0 -0.0494728)
(-0.0893619 0 -0.0249511)
(-0.0749682 0 0.0380203)
(0.138578 0 0.0299617)
(-0.0260547 0 0.0399202)
(-0.0675374 0 0.02012)
(-0.11139 0 -0.00467895)
(-0.182539 0 -0.137714)
(-0.0651783 0 -0.207069)
(0.225381 0 0.0401846)
(0.283763 0 0.789989)
(0.699945 6.74697e-28 1.4076)
(0.695985 -3.33764e-30 1.49748)
(0.450308 1.46739e-27 1.72639)
(0.129093 0 1.85136)
(-0.00274755 0 -0.0752945)
(-0.00285986 0 -0.0636142)
(-0.013925 0 -0.0522482)
(-0.0361261 0 -0.00848064)
(-0.0954533 0 0.0132871)
(-0.0732279 0 0.0779961)
(0.0749351 0 0.042933)
(-0.0551096 0 0.0484626)
(-0.111835 0 0.026608)
(-0.228662 0 -0.0518734)
(-0.270032 0 -0.177976)
(-0.0759806 0 -0.0151193)
(0.227575 0 0.676351)
(0.667328 0 1.18791)
(0.764066 0 1.38643)
(0.76983 1.50072e-26 1.36087)
(0.532494 -3.28402e-30 1.56673)
(0.311473 1.49841e-27 1.79611)
(0.109512 0 2.04658)
(-0.00422478 0 -0.0487058)
(-0.0215531 0 -0.0135367)
(-0.0423906 0 0.0348026)
(-0.0993578 0 0.0456673)
(-0.0919351 0 0.091758)
(0.0365113 0 0.0474087)
(-0.0725346 0 0.0580093)
(-0.186311 0 0.0127783)
(-0.375274 0 -0.123389)
(-0.349077 0 -0.0979082)
(0.11 0 0.539763)
(0.534428 0 1.04891)
(0.769874 0 1.22933)
(0.902746 4.57857e-26 1.27859)
(0.822777 -3.88043e-30 1.2404)
(0.555826 1.3121e-26 1.40343)
(0.35397 0 1.59436)
(0.187056 0 1.88084)
(0.0453676 0 2.1194)
(-0.00641514 0 -0.00898014)
(-0.0258703 0 0.0279046)
(-0.0572665 0 0.0765217)
(-0.119409 0 0.0795732)
(-0.147946 0 0.084964)
(0.00691033 0 0.0374914)
(-0.0641325 0 0.0754013)
(-0.334112 0 -0.0451514)
(-0.473272 0 -0.110688)
(-0.115471 0 0.391521)
(0.331402 0 0.812377)
(0.700334 -3.87791e-27 1.1287)
(0.891195 2.84702e-26 1.11958)
(1.02466 0 1.19624)
(0.89088 1.16362e-25 1.09297)
(0.609177 -3.35598e-30 1.30738)
(0.346181 2.83476e-26 1.44228)
(0.193299 0 1.57456)
(0.0868185 0 1.86071)
(0.029605 0 2.15441)
(-0.0100311 0 0.0342715)
(-0.0332792 0 0.0731367)
(-0.0878502 0 0.116148)
(-0.16564 0 0.128013)
(-0.272201 0 0.0476784)
(0.0746396 0 0.0857685)
(-0.209146 0 0.0292155)
(-0.433997 0 -0.0689494)
(-0.394813 0 0.268307)
(-0.0106211 0 0.631362)
(0.553283 -8.34281e-27 0.959779)
(0.838242 0 0.985783)
(1.07514 -8.07899e-26 1.07658)
(1.11508 -2.02414e-25 0.968065)
(1.09237 2.62506e-10 0.960906)
(0.729558 0 1.21582)
(0.423073 0 1.39125)
(0.192265 2.07563e-26 1.45063)
(0.0467334 -2.38122e-28 1.5723)
(-0.0152875 0 1.84916)
(-0.0340842 0 2.13637)
(-0.0153298 0 0.0819886)
(-0.0541742 0 0.128114)
(-0.147885 0 0.164497)
(-0.259655 0 0.190729)
(-0.476939 0 -0.00673125)
(0.154571 0 0.199933)
(-0.48118 0 -0.068119)
(-0.387712 0 0.135903)
(-0.193433 0 0.453957)
(0.307507 1.46406e-42 0.776883)
(0.723104 0 0.851027)
(0.986127 1.17639e-25 0.915135)
(1.25026 -1.01843e-24 0.902488)
(1.22057 -2.09752e-10 0.820024)
(1.18878 1.62146e-09 0.746673)
(0.912181 -2.32408e-10 1.10397)
(1.18598 5.08105e-10 0.746437)
(1.23346 1.81813e-09 0.683529)
(1.23083 3.1131e-10 0.684824)
(0.551759 3.5687e-25 1.37958)
(0.282056 1.66773e-25 1.49707)
(0.100445 1.58125e-27 1.50904)
(-0.0336431 4.02208e-27 1.56034)
(-0.078521 0 1.79654)
(-0.0424146 0 2.05104)
(-0.0237627 0 0.142367)
(-0.0967277 0 0.205818)
(-0.255773 0 0.232293)
(-0.421037 0 0.289459)
(-0.636241 0 -0.154128)
(0.386981 0 0.0576743)
(-0.353481 0 -0.0258854)
(-0.122724 0 0.202656)
(0.0570873 1.34664e-42 0.440625)
(0.549071 0 0.743247)
(0.837956 0 0.733874)
(1.25512 -3.56406e-28 0.785202)
(1.26505 -3.28371e-25 0.661062)
(1.47833 -2.85653e-10 0.539838)
(1.12055 1.76639e-09 0.856769)
(1.27714 2.79237e-09 0.565594)
(0.804047 -1.15207e-09 1.37191)
(1.11783 5.787e-10 0.856003)
(1.10101 1.45953e-09 0.947226)
(1.09909 4.40833e-10 0.945544)
(1.27202 1.16432e-10 0.565215)
(1.31383 2.24113e-09 0.476897)
(1.30735 -2.40515e-11 0.479811)
(0.421221 7.5243e-25 1.58797)
(0.163838 -3.6893e-25 1.59906)
(-0.0214067 0 1.5419)
(-0.124714 4.23157e-27 1.56626)
(-0.147158 0 1.74742)
(-0.0671226 0 1.97559)
(-0.0405475 0 0.232592)
(-0.181862 0 0.319029)
(-0.419118 0 0.352891)
(-0.813077 0 0.513817)
(-1.10905 0 0.472658)
(-0.497577 0 -0.190824)
(-0.0686708 0 0.0799808)
(0.0156772 -7.67877e-28 0.177659)
(0.436924 3.24693e-27 0.57467)
(0.635308 2.57288e-26 0.513145)
(1.12571 0 0.680537)
(1.24994 -2.044e-24 0.521103)
(1.53225 -1.85597e-09 0.446147)
(1.41511 -8.59912e-10 0.279036)
(1.41286 7.25636e-10 0.275231)
(1.4969 5.39095e-11 0.260076)
(1.49729 2.37441e-11 0.257766)
(1.22391 3.14614e-09 0.657704)
(1.38479 1.53939e-09 0.374292)
(0.645277 1.11297e-24 1.53908)
(1.07435 3.80828e-10 1.091)
(1.21853 1.54466e-10 0.655685)
(1.16757 3.26339e-09 0.727899)
(1.16346 1.50345e-10 0.724682)
(1.37773 -9.45403e-10 0.372022)
(1.37399 9.87074e-10 0.303655)
(1.36944 -1.26193e-09 0.300405)
(0.229827 -6.43197e-25 1.66406)
(0.0166948 0 1.62538)
(-0.141138 0 1.55086)
(-0.193164 6.35932e-27 1.50217)
(-0.167317 0 1.66216)
(-0.0816516 0 1.85746)
(-0.0720906 0 0.369215)
(-0.316431 0 0.494175)
(-0.660269 0 0.565043)
(-1.30354 0 0.980272)
(-1.90689 0 0.984448)
(-1.01431 0 -0.130034)
(0.0198349 0 0.095115)
(0.277729 1.86235e-27 0.326049)
(0.539713 0 0.391051)
(0.920469 1.22174e-25 0.4873)
(1.18596 -3.36722e-26 0.414755)
(1.49173 -1.02545e-09 0.359528)
(1.51701 -1.21285e-10 0.200084)
(1.51832 2.98511e-11 0.199096)
(1.52202 8.24349e-11 0.172974)
(1.52311 3.22559e-11 0.172755)
(1.4967 -9.56356e-10 0.0593427)
(1.49502 2.90165e-10 0.057513)
(1.58306 -5.97777e-10 0.0743961)
(1.58222 6.1185e-11 0.0744187)
(1.34173 1.65102e-09 0.41637)
(1.51926 1.26905e-08 0.137812)
(1.28264 1.18846e-08 0.122456)
(1.475 9.61097e-09 0.136668)
(1.35969 2.56953e-09 0.129673)
(0.337229 -9.18931e-25 1.65798)
(0.743466 -1.90918e-09 1.28579)
(1.24127 5.47458e-10 0.730157)
(1.24266 2.82193e-12 0.731087)
(1.29572 -4.49372e-09 0.663467)
(1.29594 5.29002e-09 0.666994)
(1.33564 -3.01643e-10 0.414869)
(1.35536 2.76879e-09 0.52162)
(1.35113 -4.68538e-10 0.521699)
(1.51256 -6.26165e-09 0.137722)
(1.29681 -6.77992e-09 0.127404)
(1.473 -1.82325e-09 0.137744)
(1.35133 -2.53223e-09 0.13174)
(1.51498 1.39409e-08 0.111965)
(1.28144 1.42634e-08 0.13526)
(1.47738 1.26133e-08 0.0415747)
(1.35943 2.90572e-09 0.119884)
(1.50967 -8.36862e-09 0.111136)
(1.29627 -7.85451e-09 0.139293)
(1.47603 -5.33862e-09 0.0419572)
(1.35382 -2.90364e-09 0.118103)
(0.00620017 0 1.69783)
(-0.184417 -1.86745e-25 1.60275)
(-0.302928 0 1.48566)
(-0.249859 7.78028e-27 1.40379)
(-0.214683 0 1.58308)
(-0.0928643 0 1.7268)
(-0.126144 0 0.565753)
(-0.477119 0 0.756374)
(-0.933545 0 1.08372)
(-1.64939 0 0.967942)
(-2.35529 0 0.473225)
(-1.00672 0 -0.0354305)
(0.195253 0 0.131647)
(0.478482 0 0.237918)
(0.744509 1.50779e-25 0.369239)
(0.966229 4.32007e-25 0.269834)
(1.34059 -4.3082e-10 0.28845)
(1.48169 3.20966e-10 0.145392)
(1.48212 -4.74732e-12 0.145276)
(1.48413 5.50214e-10 0.0955192)
(1.48428 -9.25502e-12 0.0962387)
(1.59436 -2.14698e-09 0.0147736)
(1.59485 2.57778e-10 0.016427)
(1.59354 -2.7673e-09 0.00962043)
(1.59481 1.30252e-10 0.00995331)
(1.35705 2.30719e-09 -0.100849)
(1.34205 2.22291e-09 0.0686033)
(1.51969 2.67942e-09 -0.122978)
(1.41141 2.34693e-09 -0.0953131)
(1.56272 3.01593e-09 -0.0859378)
(1.48365 2.8439e-09 -0.0787198)
(1.35394 -1.74713e-09 0.0697136)
(1.36063 -9.07957e-10 -0.0990933)
(1.52 -2.64188e-09 -0.122576)
(1.41142 -1.62974e-09 -0.0949006)
(1.56192 -3.26534e-09 -0.0859382)
(1.4849 -2.53091e-09 -0.0784091)
(1.49871 2.76767e-09 -0.102121)
(1.64626 4.55767e-09 -0.0925878)
(1.48418 2.48249e-09 -0.0964723)
(1.63713 4.13615e-09 -0.0899952)
(1.49989 -2.11616e-09 -0.101916)
(1.64524 -3.40022e-09 -0.0924131)
(1.48489 -2.00576e-09 -0.0958019)
(1.63643 -3.4754e-09 -0.0896426)
(1.52875 1.28883e-08 0.206389)
(1.29488 1.17102e-08 0.180559)
(1.47605 9.35288e-09 0.194516)
(1.37203 2.62777e-09 0.189858)
(1.47771 1.39596e-09 0.00635328)
(1.36884 7.90274e-10 0.0270079)
(1.46551 1.6289e-09 0.0318863)
(1.39784 8.19841e-10 0.0128186)
(0.00690694 -5.67526e-24 1.67936)
(0.401821 -9.80688e-10 1.46776)
(0.891652 2.66665e-10 0.86491)
(0.891465 -6.86915e-11 0.864261)
(1.0291 -2.31384e-10 0.752775)
(1.03006 -2.16147e-11 0.753339)
(1.32499 -3.54288e-10 0.370378)
(1.32521 -4.77235e-10 0.368963)
(1.40059 -4.4325e-09 0.311099)
(1.39802 2.78261e-09 0.310324)
(1.52296 -6.30351e-09 0.206411)
(1.30725 -6.65417e-09 0.179742)
(1.47394 -1.85067e-09 0.193957)
(1.3655 -2.5912e-09 0.18996)
(1.52504 1.48247e-08 0.287362)
(1.29337 1.427e-08 0.208698)
(1.48012 1.48681e-08 0.335947)
(1.37548 2.88827e-09 0.238633)
(1.52143 -8.4359e-09 0.288127)
(1.31625 -7.82418e-09 0.211445)
(1.48124 -5.94152e-09 0.336039)
(1.37419 -2.84413e-09 0.242)
(1.4748 -6.36633e-10 0.00663098)
(1.37652 -6.93664e-10 0.0270673)
(1.46592 -8.19028e-10 0.031762)
(1.39293 -7.48317e-10 0.0143306)
(1.47468 2.28839e-09 -0.00303446)
(1.39545 1.34069e-09 0.0155662)
(1.47136 -1.86505e-09 -0.00365318)
(1.38944 -1.36928e-09 0.0147612)
(-0.272725 -3.51052e-25 1.62877)
(-0.403103 0 1.52199)
(-0.389816 0 1.36949)
(-0.289018 0 1.29228)
(-0.252677 0 1.49773)
(-0.130405 0 1.54335)
(-0.205206 0 0.79616)
(-0.513761 0 1.10755)
(-0.945406 0 1.14155)
(-1.88995 0 0.189845)
(-2.16874 0 0.107517)
(-0.871819 0 0.00528797)
(0.385159 0 0.0592839)
(0.638253 0 0.175755)
(0.939215 1.09953e-25 0.182134)
(1.17878 -2.64752e-10 0.191622)
(1.41987 5.93475e-10 0.0671205)
(1.41948 7.17869e-12 0.0677494)
(1.42397 7.8802e-10 0.0715807)
(1.42288 5.2705e-11 0.0723054)
(1.55473 -2.82646e-09 -0.0167542)
(1.55571 8.17931e-10 -0.0165995)
(1.53374 -3.12545e-09 -0.00141598)
(1.5343 8.41113e-10 -0.00293023)
(1.51872 3.04395e-09 -0.135702)
(1.66005 4.13594e-09 -0.130256)
(1.53235 4.29724e-09 -0.131269)
(1.67099 5.07806e-09 -0.130085)
(1.52246 -2.13924e-09 -0.136731)
(1.6598 -3.65298e-09 -0.130139)
(1.54371 -2.50944e-09 -0.133282)
(1.67265 -4.11435e-09 -0.130226)
(1.50252 5.14797e-09 -0.130965)
(1.63732 5.26652e-09 -0.130938)
(1.52102 4.61216e-09 -0.132516)
(1.65941 5.35309e-09 -0.134808)
(1.51236 -2.81026e-09 -0.131263)
(1.63851 -3.76167e-09 -0.131054)
(1.53366 -2.73203e-09 -0.134456)
(1.66146 -4.20051e-09 -0.135159)
(1.35119 7.36251e-10 -0.0614993)
(1.40032 3.40097e-11 -0.148799)
(1.50531 6.67511e-11 -0.150348)
(1.42598 1.32465e-09 -0.144043)
(1.46222 6.92847e-11 -0.157667)
(1.56263 1.47239e-10 -0.154319)
(1.36376 -2.43978e-10 -0.0631486)
(1.4024 -3.71877e-11 -0.146952)
(1.42864 -9.81416e-10 -0.143672)
(1.50562 -7.89622e-11 -0.150145)
(1.46202 -1.67089e-10 -0.1592)
(1.56211 -3.2817e-10 -0.154873)
(1.55889 1.49824e-10 -0.182378)
(1.64251 4.73979e-10 -0.177686)
(1.50546 1.38576e-10 -0.179876)
(1.59603 4.18755e-10 -0.174023)
(1.55988 -2.239e-10 -0.183243)
(1.64209 -3.84506e-10 -0.177805)
(1.50438 -1.94501e-10 -0.180257)
(1.59531 -3.54229e-10 -0.174053)
(1.50844 1.48672e-09 0.0869898)
(1.38942 7.23774e-10 0.0516843)
(1.48621 1.57212e-09 0.0619193)
(1.42699 8.78467e-10 0.0685701)
(1.48927 4.41425e-10 -0.0897049)
(1.41842 1.89876e-10 -0.0864199)
(1.45761 5.03254e-10 -0.0755425)
(1.456 2.32927e-10 -0.0909418)
(-0.379586 0 1.61562)
(-0.0837993 -3.45909e-11 1.52686)
(0.477808 1.34694e-09 0.913206)
(0.478596 -2.07971e-10 0.911813)
(0.648824 3.51362e-10 0.840792)
(0.649114 -3.00472e-10 0.839891)
(0.937644 -1.82211e-09 0.498753)
(0.940682 -8.08637e-11 0.495182)
(1.07262 -7.93972e-10 0.370805)
(1.07402 -4.38164e-10 0.36749)
(1.243 4.13487e-09 0.107245)
(1.4161 3.74912e-09 0.120697)
(1.28003 2.9123e-09 0.0832286)
(1.45005 3.24446e-09 0.0968213)
(1.24504 -2.14828e-09 0.108547)
(1.41496 -3.51889e-09 0.12061)
(1.28083 -1.91186e-09 0.0832784)
(1.44904 -3.5376e-09 0.0964952)
(1.34715 1.75202e-09 -0.0191731)
(1.33407 2.02274e-09 0.0360058)
(1.50711 1.88016e-09 0.038442)
(1.30933 2.47095e-09 0.0521507)
(1.4894 2.8585e-09 0.0777426)
(1.46808 3.71545e-09 0.215911)
(1.35473 -1.73012e-09 -0.0207695)
(1.34929 -1.84243e-09 0.0375459)
(1.50854 -2.78669e-09 0.0378796)
(1.30997 -1.63703e-09 0.0513738)
(1.48825 -3.50201e-09 0.0772563)
(1.47068 -2.78977e-09 0.215914)
(1.50633 -8.53537e-10 0.0866071)
(1.39632 -6.85948e-10 0.0515475)
(1.48651 -8.74336e-10 0.0618251)
(1.42398 -8.65465e-10 0.0674481)
(1.51478 2.3506e-09 0.139474)
(1.43683 1.33371e-09 0.0947891)
(1.5131 -1.63513e-09 0.138917)
(1.43536 -1.26935e-09 0.0934944)
(1.48627 -4.54247e-10 -0.0890338)
(1.42587 -1.08818e-10 -0.0848348)
(1.4601 -4.32162e-10 -0.0750933)
(1.44754 -2.38409e-10 -0.0892416)
(1.48334 7.97442e-10 -0.0910698)
(1.44079 3.26863e-10 -0.0843318)
(1.48105 -7.10593e-10 -0.0909972)
(1.43574 -3.38711e-10 -0.0843269)
(-0.516307 -6.10333e-25 1.50044)
(-0.563985 0 1.40387)
(-0.453069 0 1.22174)
(-0.347924 0 1.17183)
(-0.383397 0 1.35205)
(-0.175249 0 1.28525)
(-0.23713 0 0.985743)
(-0.319863 0 1.17637)