/*--------------------------------*- C++ -*----------------------------------*\
| =========                 |                                                 |
| \\      /  F ield         | OpenFOAM: The Open Source CFD Toolbox           |
|  \\    /   O peration     | Version:  5.x                                   |
|   \\  /    A nd           | Web:      www.OpenFOAM.org                      |
|    \\/     M anipulation  |                                                 |
\*---------------------------------------------------------------------------*/
FoamFile
{
    version     2.0;
    format      ascii;
    class       surfaceVectorField;
    location    "1.9";
    object      Uf;
}
// * * * * * * * * * * * * * * * * * * * * * * * * * * * * * * * * * * * * * //

dimensions      [0 1 -1 0 0 0 0];

internalField   nonuniform List<vector> 
30582
(
(0.171314 0 0.000837089)
(0.177668 0 -0.00132258)
(0.174904 0 0.0024101)
(0.170155 0 -0.00143575)
(0.171146 0 -0.00365801)
(0.177304 0 -0.00257056)
(0.175824 0 0.00371857)
(0.175756 0 -0.000374896)
(0.174645 0 -0.00425987)
(0.169585 0 -0.0028351)
(0.170376 0 -0.00162203)
(0.176594 0 -0.00349881)
(0.173201 0 0.00401411)
(0.17508 0 0.00108749)
(0.175448 0 -0.00303925)
(0.175427 0 -0.000701837)
(0.174063 0 0.00084496)
(0.168295 0 -0.00430961)
(0.169121 0 -0.00639999)
(0.175475 0 -0.00390794)
(0.169549 0 0.00364978)
(0.171206 0 0.00154063)
(0.172632 0 -0.00140847)
(0.174874 0 0.00225446)
(0.175312 0 0.00470637)
(0.174034 0 -0.00121066)
(0.172107 0 -0.00650858)
(0.166391 0 -0.00550427)
(0.167336 0 -0.00274319)
(0.173512 0 -0.00358142)
(0.165322 0 0.00323829)
(0.167131 0 0.00181557)
(0.169072 0 -0.000310273)
(0.171163 0 0.00304271)
(0.172892 0 0.00676401)
(0.173495 0 0.00325753)
(0.172349 0 -0.00275168)
(0.172358 0 -0.00130924)
(0.170627 0 -3.94545e-05)
(0.16278 0 -0.0068208)
(0.16353 0 -0.00803971)
(0.171071 0 -0.0017163)
(0.160771 0 0.00306531)
(0.163017 0 0.00198967)
(0.165237 0 0.000534788)
(0.167342 0 0.00346283)
(0.169638 0 0.00686822)
(0.169906 0 0.00441569)
(0.170012 0 0.000830163)
(0.171928 0 0.00422642)
(0.171626 0 0.00587437)
(0.1687 0 -0.00171587)
(0.164991 0 -0.00874932)
(0.158733 0 -0.00740541)
(0.16085 0 -0.000785154)
(0.166837 0 0.00125359)
(0.154692 0 0.0031806)
(0.157952 0 0.00270552)
(0.160948 0 0.0015977)
(0.163357 0 0.00386465)
(0.165879 0 0.00685893)
(0.166926 0 0.00507739)
(0.167382 0 0.0025336)
(0.168741 0 0.00552509)
(0.170086 0 0.00907342)
(0.16805 0 0.00486477)
(0.164035 0 -0.00284306)
(0.165464 0 -0.00132634)
(0.163503 0 0.00038239)
(0.148307 0 -0.00846702)
(0.14879 0 -0.00685927)
(0.13114 0 0.00902238)
(0.146784 0 0.00344727)
(0.151045 0 0.00358232)
(0.155096 0 0.00306738)
(0.158635 0 0.00530991)
(0.161775 0 0.00763501)
(0.163454 0 0.00565874)
(0.164872 0 0.0037684)
(0.166904 0 0.00615551)
(0.168423 0 0.00931688)
(0.166333 0 0.00622665)
(0.16368 0 0.00188726)
(0.164664 0 0.00501196)
(0.164211 0 0.00671388)
(0.15563 0 -0.00161455)
(0.144827 0 -0.0107195)
(0.109954 0 -0.00688177)
(0.0874866 0 0.00934083)
(-0.0456787 0 -0.0315467)
(0.137044 0 0.0037264)
(0.142204 0 0.00449112)
(0.147259 0 0.0045794)
(0.151813 0 0.00713267)
(0.156187 0 0.00944203)
(0.15944 0 0.00779668)
(0.161842 0 0.00571692)
(0.164249 0 0.00698344)
(0.166556 0 0.00948419)
(0.16625 0 0.00695728)
(0.164163 0 0.00368887)
(0.164028 0 0.00602291)
(0.164359 0 0.00927316)
(0.156111 0 0.00495088)
(0.145427 0 -0.00332307)
(0.122311 0 -0.00185875)
(0.0913614 0 0.00215743)
(-0.0546068 0 -0.00843175)
(-0.18655 0 -0.0480072)
(-0.112999 0 0.0415218)
(0.126143 0 0.00388151)
(0.131832 0 0.00511736)
(0.137445 0 0.00582927)
(0.142879 0 0.00901597)
(0.148304 0 0.0116637)
(0.152829 0 0.0107041)
(0.156998 0 0.00892745)
(0.1608 0 0.00995245)
(0.16389 0 0.0112834)
(0.165053 0 0.00814908)
(0.164828 0 0.00545746)
(0.165553 0 0.00667162)
(0.165186 0 0.00921149)
(0.158387 0 0.00567371)
(0.149457 0 0.00153971)
(0.136892 0 0.00328046)
(0.112063 0 0.00461983)
(-0.0841012 0 -0.0102885)
(-0.229884 0 -0.0209869)
(0.0333911 0 0.00890242)
(0.116799 0 0.0917751)
(-0.0146266 0 -0.00438646)
(0.114971 0 0.00386432)
(0.120726 0 0.00533829)
(0.126385 0 0.00652032)
(0.132253 0 0.0103095)
(0.138206 0 0.013625)
(0.14378 0 0.0136721)
(0.149313 0 0.0125627)
(0.15439 0 0.0141856)
(0.159221 0 0.0153031)
(0.1625 0 0.0120303)
(0.164277 0 0.00878269)
(0.165785 0 0.00838967)
(0.166263 0 0.00977064)
(0.163392 0 0.00620927)
(0.155896 0 0.00270701)
(0.147389 0 0.00295691)
(0.134114 0 0.00430694)
(-0.0402189 0 -0.00585951)
(-0.234601 0 -0.0208085)
(-0.157258 0 -0.00836767)
(0.0991317 0 0.0190147)
(0.180151 0 0.0159694)
(0.0554897 0 -0.0740878)
(-0.0422514 0 -0.0261922)
(0.104294 0 0.00365337)
(0.109776 0 0.00519281)
(0.115014 0 0.00661558)
(0.120857 0 0.0107717)
(0.126736 0 0.0147153)
(0.132756 0 0.0156937)
(0.138982 0 0.0155832)
(0.145141 0 0.0184357)
(0.15142 0 0.0202022)
(0.156548 0 0.0177196)
(0.160967 0 0.0143115)
(0.164389 0 0.0135037)
(0.166408 0 0.0130593)
(0.166592 0 0.00832599)
(0.162911 0 0.00458433)
(0.163773 0 0.00319655)
(0.154284 0 0.00304863)
(-0.00752106 0 -0.00555319)
(-0.184079 0 -0.0161733)
(-0.130811 0 -0.0268004)
(-0.0496859 0 -0.0157233)
(0.0109792 0 0.0522301)
(0.0884549 0 0.0553868)
(-0.00922127 0 0.00278272)
(-0.10805 0 0.0431436)
(-0.0125478 0 0.0162679)
(0.0946153 0 0.00326363)
(0.0994857 0 0.00479199)
(0.104172 0 0.00626991)
(0.109689 0 0.0104656)
(0.115028 0 0.0147877)
(0.120873 0 0.0163661)
(0.126996 0 0.0171902)
(0.133515 0 0.0213204)
(0.14053 0 0.0243862)
(0.147057 0 0.0234569)
(0.153613 0 0.0208249)
(0.158996 0 0.021051)
(0.163608 0 0.0199982)
(0.167837 0 0.0147499)
(0.168297 0 0.00989861)
(0.176358 0 0.00597147)
(0.17555 0 0.00448905)
(0.056313 0 -0.00593718)
(-0.104042 0 -0.0152016)
(-0.126543 0 -0.039322)
(-0.0769578 0 -0.0485593)
(0.00181252 0 -0.0154965)
(0.0623522 0 0.0549083)
(0.0239835 0 0.0628592)
(-0.0735427 0 0.00585547)
(-0.0205308 0 -0.0110208)
(0.0731308 0 -0.0300587)
(0.00377221 0 -0.0124697)
(0.0860477 0 0.00286924)
(0.0904989 0 0.00431824)
(0.0943657 0 0.0057532)
(0.0993784 0 0.00964738)
(0.104076 0 0.0140244)
(0.109297 0 0.0157923)
(0.114662 0 0.0172267)
(0.120907 0 0.0222597)
(0.127676 0 0.0266656)
(0.134567 0 0.0273543)
(0.142216 0 0.0263208)
(0.149179 0 0.0287121)
(0.156241 0 0.0286214)
(0.164054 0 0.0243884)
(0.169503 0 0.0194078)
(0.186662 0 0.0142129)
(0.194504 0 0.0107208)
(0.117188 0 -0.00231488)
(-0.00279138 0 -0.0132502)
(-0.0707173 0 -0.0494244)
(-0.0897485 0 -0.0686955)
(-0.0267152 0 -0.0339255)
(0.0507053 0 -0.00262679)
(0.0394248 0 -0.010669)
(-0.000235362 0 -0.00705658)
(0.0132403 0 0.0330083)
(0.0659614 0 0.0228584)
(-0.00264544 0 -0.00815298)
(-0.0718415 0 0.00252191)
(0.0779737 0 0.00266343)
(0.082347 0 0.0041421)
(0.0857106 0 0.00546344)
(0.090361 0 0.00868058)
(0.0943647 0 0.0127932)
(0.0987871 0 0.0144557)
(0.103147 0 0.0160567)
(0.108733 0 0.021393)
(0.11454 0 0.0267343)
(0.120909 0 0.0285366)
(0.128271 0 0.0291805)
(0.135544 0 0.0339004)
(0.143953 0 0.0359381)
(0.154445 0 0.0343782)
(0.164192 0 0.0308954)
(0.189935 0 0.0267947)
(0.208416 0 0.0218828)
(0.174472 0 0.00802164)
(0.0951388 0 -0.00484155)
(-0.0211754 0 -0.0451289)
(-0.0882416 0 -0.075569)
(-0.026241 0 -0.0500717)
(0.0385305 0 -0.0214836)
(0.0275267 0 -0.0287888)
(0.0167587 0 -0.0352988)
(0.0212193 0 -0.0177129)
(0.0342073 0 0.0255124)
(0.00849585 0 0.0459384)
(-0.0602153 0 0.00857874)
(0.0698761 0 0.00265661)
(0.0744397 0 0.00422874)
(0.0778196 0 0.00555348)
(0.082316 0 0.00819031)
(0.0858548 0 0.0116771)
(0.0897858 0 0.0129698)
(0.0931634 0 0.0143848)
(0.0980156 0 0.0193986)
(0.102693 0 0.0250633)
(0.107854 0 0.0271549)
(0.113867 0 0.0289555)
(0.120472 0 0.0354193)
(0.128528 0 0.0398011)
(0.139787 0 0.0411415)
(0.15207 0 0.0407511)
(0.184442 0 0.0399677)
(0.212577 0 0.0351442)
(0.208913 0 0.0249095)
(0.176202 0 0.0121412)
(0.0441362 0 -0.0280549)
(-0.0718352 0 -0.0641079)
(-0.0315265 0 -0.0523015)
(0.0310186 0 -0.0344011)
(0.0239914 0 -0.0468453)
(0.0133047 0 -0.0489613)
(0.0100886 0 -0.0273315)
(0.0145159 0 -0.011029)
(0.0092414 0 -0.00955104)
(-0.0166243 0 0.00582804)
(0.0612578 0 0.00281061)
(0.0663039 0 0.00458143)
(0.0700041 0 0.00598048)
(0.0746761 0 0.00831014)
(0.0781447 0 0.0112588)
(0.0820595 0 0.0121457)
(0.0848241 0 0.013097)
(0.0891598 0 0.017173)
(0.0929157 0 0.0225658)
(0.0968267 0 0.0242394)
(0.101027 0 0.0262963)
(0.106222 0 0.0334)
(0.112591 0 0.0395564)
(0.123016 0 0.043034)
(0.135435 0 0.0458295)
(0.170759 0 0.0489499)
(0.205542 0 0.046246)
(0.220214 0 0.0432116)
(0.220033 0 0.0336224)
(0.120429 0 0.00505322)
(-0.0113047 0 -0.0334943)
(-0.0179261 0 -0.054993)
(0.0245952 0 -0.0494173)
(0.0168748 0 -0.0494932)
(0.00964135 0 -0.0555726)
(0.0074739 0 -0.0452719)
(0.00425689 0 -0.028288)
(0.00549891 0 -0.0230031)
(0.000243791 0 -0.0207801)
(0.0516455 0 0.00308148)
(0.0572685 0 0.00520146)
(0.0615699 0 0.00678215)
(0.0667646 0 0.00906491)
(0.0705543 0 0.0117384)
(0.0748943 0 0.012274)
(0.0777191 0 0.0127608)
(0.0818837 0 0.0157907)
(0.0849787 0 0.020335)
(0.0880774 0 0.0211733)
(0.0908269 0 0.0226493)
(0.0947327 0 0.0292894)
(0.0989332 0 0.0361486)
(0.106945 0 0.040043)
(0.117351 0 0.0450871)
(0.152997 0 0.0516751)
(0.190095 0 0.0518697)
(0.212666 0 0.0562007)
(0.23135 0 0.0521358)
(0.173057 0 0.0379933)
(0.0744905 0 0.00977788)
(0.025215 0 -0.0338135)
(0.0192288 0 -0.056047)
(0.0101698 0 -0.0526047)
(0.00273624 0 -0.0491533)
(0.000920072 0 -0.0464744)
(-0.00162645 0 -0.0408915)
(0.0034856 0 -0.0427451)
(0.00475807 0 -0.0339153)
(0.0408609 0 0.00338602)
(0.047037 0 0.00594043)
(0.052043 0 0.00785144)
(0.0578767 0 0.0103567)
(0.0623294 0 0.0130161)
(0.0674265 0 0.0134372)
(0.0708618 0 0.0135395)
(0.0753381 0 0.0158551)
(0.0783409 0 0.0194104)
(0.0814277 0 0.019196)
(0.083212 0 0.0196166)
(0.0863056 0 0.0250114)
(0.0889668 0 0.0316676)
(0.0940375 0 0.034224)
(0.101063 0 0.0396235)
(0.134544 0 0.0479649)
(0.170707 0 0.0510342)
(0.193879 0 0.0609395)
(0.219897 0 0.0628966)
(0.188963 0 0.0615766)
(0.134373 0 0.0488667)
(0.0729369 0 0.0103814)
(0.0219552 0 -0.0299231)
(-0.00116716 0 -0.0350486)
(-0.00910409 0 -0.0331349)
(-0.00573855 0 -0.0473353)
(-0.00719155 0 -0.045665)
(-0.000724486 0 -0.0440414)
(0.00435784 0 -0.0429015)
(0.029019 0 0.00365143)
(0.0355854 0 0.00663971)
(0.0412468 0 0.00896704)
(0.0476732 0 0.0118873)
(0.0529011 0 0.0148053)
(0.0588266 0 0.0154586)
(0.0631904 0 0.0154063)
(0.0684582 0 0.0175152)
(0.0719919 0 0.0203609)
(0.0758614 0 0.0191707)
(0.0776658 0 0.0184323)
(0.0805323 0 0.0220413)
(0.0822132 0 0.0278307)
(0.084722 0 0.0284154)
(0.0885434 0 0.0322371)
(0.118621 0 0.0404225)
(0.151152 0 0.0452158)
(0.17269 0 0.0574758)
(0.19854 0 0.064155)
(0.181644 0 0.0711445)
(0.155343 0 0.0725685)
(0.104853 0 0.0517331)
(0.0444031 0 0.0162515)
(0.00153104 0 3.04504e-05)
(-0.0213716 0 -0.00719792)
(-0.0180946 0 -0.0294911)
(-0.0141875 0 -0.0406798)
(-0.00443617 0 -0.0442219)
(0.00222691 0 -0.043053)
(0.0164841 0 0.00381426)
(0.0231775 0 0.00715461)
(0.0293044 0 0.00990024)
(0.036124 0 0.0133357)
(0.042052 0 0.0167023)
(0.048699 0 0.0178633)
(0.054041 0 0.0179887)
(0.0602589 0 0.0204096)
(0.0648059 0 0.0230567)
(0.0699634 0 0.0213352)
(0.0728444 0 0.0196588)
(0.0762641 0 0.0216885)
(0.0777093 0 0.025923)
(0.0790149 0 0.0243518)
(0.0799285 0 0.025528)
(0.106466 0 0.0327574)
(0.135139 0 0.037859)
(0.158372 0 0.0483511)
(0.179801 0 0.0570585)
(0.163922 0 0.0665901)
(0.151604 0 0.0765081)
(0.125822 0 0.0729309)
(0.076273 0 0.0537702)
(0.0210279 0 0.0367727)
(-0.0231179 0 0.0204027)
(-0.0215655 0 0.000835645)
(-0.0178787 0 -0.0189)
(-0.0105206 0 -0.0278189)
(-0.000476163 0 -0.0342285)
(0.00379522 0 0.0038246)
(0.010261 0 0.00737193)
(0.0166018 0 0.0104573)
(0.0235056 0 0.0144049)
(0.0299006 0 0.0183137)
(0.0370087 0 0.0201489)
(0.0431876 0 0.0207205)
(0.0502322 0 0.0238417)
(0.055897 0 0.0268303)
(0.0623759 0 0.0252304)
(0.0668431 0 0.0230938)
(0.0716398 0 0.0245254)
(0.0740196 0 0.0271031)
(0.0759969 0 0.0236154)
(0.0757258 0 0.0217465)
(0.099484 0 0.0265079)
(0.124055 0 0.0314564)
(0.15607 0 0.0383438)
(0.177395 0 0.0455057)
(0.147682 0 0.0495424)
(0.134601 0 0.0618303)
(0.139698 0 0.0748598)
(0.115435 0 0.070201)
(0.0499361 0 0.0542181)
(-0.00642943 0 0.039099)
(-0.0136266 0 0.0289389)
(-0.0128277 0 0.010732)
(-0.0122533 0 -0.00149338)
(-0.00508948 0 -0.0124683)
(-0.00841918 0 0.00365429)
(-0.00250174 0 0.00722404)
(0.00370325 0 0.0105075)
(0.0102941 0 0.0148656)
(0.0168525 0 0.0193043)
(0.0240549 0 0.0218525)
(0.0307666 0 0.0230398)
(0.0383291 0 0.0271134)
(0.04495 0 0.0308438)
(0.0524987 0 0.0298715)
(0.0584647 0 0.0279115)
(0.0649101 0 0.0297642)
(0.0690637 0 0.0312794)
(0.0727876 0 0.0271599)
(0.0736473 0 0.0228208)
(0.0955067 0 0.0247008)
(0.117419 0 0.0286895)
(0.157892 0 0.0299125)
(0.187219 0 0.0339803)
(0.14348 0 0.033392)
(0.11554 0 0.0394703)
(0.148824 0 0.0589796)
(0.157864 0 0.0682814)
(0.0804248 0 0.0542235)
(0.0137657 0 0.0428055)
(0.000607049 0 0.0445683)
(-0.00663929 0 0.0341238)
(-0.00944248 0 0.0260339)
(-0.0089262 0 0.0128008)
(-0.0195136 0 0.00330333)
(-0.0144088 0 0.00667896)
(-0.0087391 0 0.00997936)
(-0.00281548 0 0.0145828)
(0.00351363 0 0.0194398)
(0.0103623 0 0.0226152)
(0.0172339 0 0.024467)
(0.0248804 0 0.0295767)
(0.0320899 0 0.0343037)
(0.0403022 0 0.0343239)
(0.0474855 0 0.0330273)
(0.0553468 0 0.0359192)
(0.061341 0 0.0373583)
(0.0669475 0 0.0339432)
(0.0699919 0 0.0288691)
(0.09048 0 0.0291031)
(0.110918 0 0.0318683)
(0.155568 0 0.0280958)
(0.19318 0 0.0272272)
(0.158205 0 0.0268543)
(0.112222 0 0.0269508)
(0.155345 0 0.0350646)
(0.193725 0 0.0512282)
(0.109462 0 0.0412242)
(0.0328492 0 0.0327279)
(0.0157107 0 0.0449418)
(0.00213094 0 0.0439447)
(-0.0036867 0 0.0403776)
(-0.00652133 0 0.0320559)
(-0.0289247 0 0.00280045)
(-0.0248857 0 0.00576712)
(-0.0200505 0 0.0088718)
(-0.0150814 0 0.0134885)
(-0.00941471 0 0.0185866)
(-0.00332206 0 0.0222292)
(0.00326411 0 0.0246751)
(0.0104862 0 0.0307313)
(0.0178258 0 0.0365321)
(0.0261668 0 0.0377183)
(0.0340856 0 0.0374003)
(0.0428864 0 0.0418372)
(0.050466 0 0.0440484)
(0.0575531 0 0.0419095)
(0.062769 0 0.0379959)
(0.0822743 0 0.0378516)
(0.102001 0 0.0397885)
(0.148544 0 0.0338433)
(0.190634 0 0.0297243)
(0.180291 0 0.0294253)
(0.141039 0 0.0283376)
(0.173719 0 0.0120709)
(0.218902 0 0.0200329)
(0.132842 0 0.0223752)
(0.0503751 0 0.0169298)
(0.0268368 0 0.032547)
(0.00917572 0 0.0410608)
(0.00223693 0 0.0415155)
(-0.00377189 0 0.0395991)
(-0.0362295 0 0.00220031)
(-0.0334221 0 0.0045568)
(-0.0296424 0 0.0072543)
(-0.0258881 0 0.011645)
(-0.0212009 0 0.0167409)
(-0.0161855 0 0.0205839)
(-0.0103661 0 0.0234833)
(-0.00403022 0 0.0302906)
(0.00292922 0 0.0370588)
(0.0107945 0 0.0393857)
(0.0188676 0 0.0401571)
(0.0279536 0 0.0464044)
(0.036536 0 0.050034)
(0.0444874 0 0.0496477)
(0.0513706 0 0.0477583)
(0.0700901 0 0.048188)
(0.0891534 0 0.0499571)
(0.135484 0 0.0448036)
(0.180423 0 0.0407457)
(0.191515 0 0.0392717)
(0.176525 0 0.0383083)
(0.200367 0 0.0108938)
(0.23248 0 -0.00250832)
(0.146389 0 0.00510488)
(0.0643465 0 0.00850922)
(0.0334446 0 0.0153333)
(0.00972713 0 0.0281217)
(0.00585995 0 0.032274)
(-0.000978609 0 0.0353948)
(-0.041178 0 0.00157994)
(-0.0396455 0 0.00314225)
(-0.0370602 0 0.00523279)
(-0.0346991 0 0.00918408)
(-0.0312184 0 0.0140333)
(-0.0275348 0 0.0177838)
(-0.0228242 0 0.0208905)
(-0.0177558 0 0.0280839)
(-0.0117173 0 0.0355949)
(-0.00489981 0 0.038953)
(0.00270516 0 0.0407706)
(0.0113875 0 0.0487757)
(0.020235 0 0.0542848)
(0.0283691 0 0.0557086)
(0.0361612 0 0.0561273)
(0.0539132 0 0.0581755)
(0.0724504 0 0.060443)
(0.116994 0 0.0573885)
(0.162382 0 0.0557104)
(0.186307 0 0.0545662)
(0.193587 0 0.0539413)
(0.211284 0 0.0302018)
(0.234214 0 0.00767649)
(0.150098 0 0.00998844)
(0.0670563 0 0.014884)
(0.0337029 0 0.00371475)
(0.0039509 0 0.0101754)
(0.00570895 0 0.0182446)
(0.00200436 0 0.0241748)
(-0.0436843 0 0.00102722)
(-0.0433749 0 0.00162)
(-0.0419998 0 0.00292341)
(-0.0411294 0 0.00627875)
(-0.0390001 0 0.0106715)
(-0.0367819 0 0.0140384)
(-0.0334027 0 0.0170744)
(-0.0298904 0 0.0242664)
(-0.0251588 0 0.0321282)
(-0.0198507 0 0.0361757)
(-0.0133641 0 0.0389699)
(-0.00586 0 0.048457)
(0.00256642 0 0.055981)
(0.0105162 0 0.0590407)
(0.0184668 0 0.0615678)
(0.03441 0 0.0658081)
(0.0520197 0 0.0693228)
(0.0927471 0 0.069631)
(0.136924 0 0.0712765)
(0.16742 0 0.0714116)
(0.188316 0 0.0727685)
(0.202205 0 0.0574183)
(0.216268 0 0.0394484)
(0.153324 0 0.0397417)
(0.0710272 0 0.0351948)
(0.0319183 0 0.00791473)
(-0.000293653 0 -0.000845567)
(0.00130356 0 0.00589226)
(0.00305314 0 0.0135318)
(-0.043686 0 0.000445957)
(-0.0446551 0 1.07122e-06)
(-0.0443572 0 0.000433563)
(-0.0449904 0 0.00314379)
(-0.0442821 0 0.00692791)
(-0.0434911 0 0.00963273)
(-0.0415465 0 0.0123061)
(-0.0397808 0 0.0191186)
(-0.0366122 0 0.0269338)
(-0.033092 0 0.031285)
(-0.0281621 0 0.0347627)
(-0.0224794 0 0.0450843)
(-0.015351 0 0.0542341)
(-0.00755005 0 0.0590541)
(0.000194005 0 0.0632924)
(0.0128442 0 0.0696566)
(0.0287447 0 0.0745981)
(0.06345 0 0.079093)
(0.103874 0 0.0850746)
(0.136517 0 0.088162)
(0.164813 0 0.0921317)
(0.179923 0 0.0843578)
(0.188864 0 0.0722763)
(0.154109 0 0.0722472)
(0.0899148 0 0.0628053)
(0.0400563 0 0.0297012)
(0.000708448 0 0.00847017)
(-0.00530624 0 0.00739142)
(-0.00357931 0 0.0117602)
(-0.0416039 0 -0.000192487)
(-0.0436499 0 -0.00139443)
(-0.0445899 0 -0.00194469)
(-0.0462173 0 0.000154199)
(-0.0469896 0 0.00315455)
(-0.0474107 0 0.00489386)
(-0.0468467 0 0.00690759)
(-0.0469476 0 0.0129983)
(-0.0454904 0 0.0204142)
(-0.0438792 0 0.0246569)
(-0.0407587 0 0.0284575)
(-0.0371232 0 0.0390042)
(-0.031874 0 0.0488579)
(-0.0247703 0 0.0550313)
(-0.0173916 0 0.0609134)
(-0.00797196 0 0.0694547)
(0.00450681 0 0.0757107)
(0.0301243 0 0.0837382)
(0.0642284 0 0.0946054)
(0.0955463 0 0.101722)
(0.126693 0 0.10955)
(0.145769 0 0.109536)
(0.1562 0 0.101466)
(0.145267 0 0.10235)
(0.108014 0 0.0932001)
(0.0512624 0 0.0624534)
(0.00133109 0 0.0379167)
(-0.00929678 0 0.0293702)
(-0.0156927 0 0.0233281)
(-0.0377406 0 -0.000746079)
(-0.0406046 0 -0.00263374)
(-0.0424806 0 -0.00398112)
(-0.0450083 0 -0.00280715)
(-0.0465618 0 -0.000514808)
(-0.0486046 0 -0.000127293)
(-0.0490631 0 0.00118506)
(-0.0511377 0 0.00632648)
(-0.0514817 0 0.0130635)
(-0.0516575 0 0.0168026)
(-0.0504127 0 0.020457)
(-0.0489723 0 0.0306792)
(-0.0457853 0 0.0405843)
(-0.0402784 0 0.0475291)
(-0.0336819 0 0.0545306)
(-0.027965 0 0.0648381)
(-0.0190263 0 0.0731347)
(-0.00623352 0 0.0833731)
(0.0188156 0 0.0981537)
(0.0472763 0 0.110122)
(0.0767337 0 0.122409)
(0.0990244 0 0.130237)
(0.114504 0 0.128851)
(0.123112 0 0.132914)
(0.108803 0 0.125561)
(0.0574908 0 0.101915)
(0.000898251 0 0.0783761)
(-0.0100519 0 0.0626876)
(-0.0207131 0 0.0474206)
(-0.0325273 0 -0.00117531)
(-0.0359482 0 -0.00361811)
(-0.0385252 0 -0.00565052)
(-0.0417597 0 -0.00533026)
(-0.0441204 0 -0.00391682)
(-0.0472501 0 -0.00444229)
(-0.0493134 0 -0.00435235)
(-0.0522744 0 3.74334e-05)
(-0.0545358 0 0.0055603)
(-0.0560303 0 0.00830054)
(-0.0565757 0 0.0112793)
(-0.0575008 0 0.020716)
(-0.0564821 0 0.0303682)
(-0.053437 0 0.037352)
(-0.0484554 0 0.044796)
(-0.0474516 0 0.0565823)
(-0.0423997 0 0.0671522)
(-0.0424765 0 0.0789092)
(-0.0300755 0 0.0959057)
(-0.00828807 0 0.112289)
(0.0190111 0 0.129448)
(0.0445042 0 0.143657)
(0.0639576 0 0.151257)
(0.0837453 0 0.159088)
(0.0891094 0 0.154827)
(0.0548924 0 0.143956)
(0.00284705 0 0.12303)
(-0.00854091 0 0.100842)
(-0.0193584 0 0.0810031)
(-0.026389 0 -0.0014747)
(-0.0301244 0 -0.00433633)
(-0.0331705 0 -0.00691527)
(-0.0368727 0 -0.00733428)
(-0.0398213 0 -0.00676093)
(-0.0436534 0 -0.0082611)
(-0.046607 0 -0.00922567)
(-0.0505444 0 -0.00625493)
(-0.053487 0 -0.00158921)
(-0.0570059 0 -0.000652679)
(-0.0586206 0 0.00148632)
(-0.0622865 0 0.00962234)
(-0.0636167 0 0.0191656)
(-0.0629218 0 0.0252463)
(-0.0604182 0 0.0320646)
(-0.0643339 0 0.0448144)
(-0.0639371 0 0.0573753)
(-0.07501 0 0.0697806)
(-0.0754123 0 0.0879346)
(-0.0637486 0 0.106203)
(-0.0420824 0 0.127772)
(-0.0138729 0 0.148422)
(0.0102497 0 0.163514)
(0.0365619 0 0.17486)
(0.054258 0 0.174331)
(0.0406936 0 0.17898)
(0.00553279 0 0.164593)
(-0.00556667 0 0.142451)
(-0.0169292 0 0.120129)
(-0.01972 0 -0.00164699)
(-0.0235515 0 -0.00479616)
(-0.0268626 0 -0.00778164)
(-0.0307999 0 -0.00879249)
(-0.0341303 0 -0.00895832)
(-0.0383517 0 -0.0112839)
(-0.0418722 0 -0.0132184)
(-0.0464242 0 -0.011489)
(-0.0501695 0 -0.00801578)
(-0.054851 0 -0.00847679)
(-0.0584205 0 -0.00808477)
(-0.0631624 0 -0.000784347)
(-0.0671252 0 0.00771974)
(-0.0681951 0 0.0118902)
(-0.0678897 0 0.0170024)
(-0.0772688 0 0.0299906)
(-0.0818468 0 0.0438309)
(-0.102545 0 0.0559868)
(-0.114168 0 0.0741257)
(-0.111752 0 0.0935304)
(-0.0995793 0 0.117)
(-0.0688017 0 0.140816)
(-0.0408249 0 0.162182)
(-0.00747269 0 0.178629)
(0.0178744 0 0.181561)
(0.0201601 0 0.195998)
(0.00607421 0 0.19257)
(-0.00200441 0 0.178671)
(-0.0132034 0 0.158165)
(-0.0128828 0 -0.00169716)
(-0.0166124 0 -0.00500452)
(-0.0200061 0 -0.0082665)
(-0.0239701 0 -0.00972711)
(-0.0274867 0 -0.0104938)
(-0.0318448 0 -0.0134858)
(-0.0356611 0 -0.0162188)
(-0.0405023 0 -0.0155945)
(-0.0446888 0 -0.0133157)
(-0.0500145 0 -0.0152253)
(-0.054489 0 -0.016494)
(-0.0602897 0 -0.0111099)
(-0.0651041 0 -0.00336783)
(-0.0691387 0 -0.00211421)
(-0.0705378 0 0.00116493)
(-0.0857159 0 0.0136018)
(-0.0956373 0 0.0278542)
(-0.124737 0 0.0387473)
(-0.146108 0 0.0556714)
(-0.151924 0 0.075911)
(-0.149413 0 0.100143)
(-0.122358 0 0.124068)
(-0.090971 0 0.147245)
(-0.0464051 0 0.171005)
(-0.0136105 0 0.178981)
(0.00224806 0 0.197251)
(0.00418004 0 0.202129)
(0.000237708 0 0.197098)
(-0.00790733 0 0.184856)
(-0.0062095 0 -0.00164707)
(-0.00964194 0 -0.00497246)
(-0.0129584 0 -0.0083846)
(-0.0167657 0 -0.010163)
(-0.0202949 0 -0.0113886)
(-0.0245856 0 -0.0148992)
(-0.0284953 0 -0.0182556)
(-0.0333645 0 -0.018548)
(-0.0377424 0 -0.0173532)
(-0.0432187 0 -0.0204153)
(-0.0480998 0 -0.0231932)
(-0.0543257 0 -0.0195811)
(-0.0598828 0 -0.013285)
(-0.0658562 0 -0.0146069)
(-0.0700995 0 -0.0142461)
(-0.0899606 0 -0.00240256)
(-0.105255 0 0.0108244)
(-0.140829 0 0.0198185)
(-0.170291 0 0.0341438)
(-0.183217 0 0.0541035)
(-0.188282 0 0.0783513)
(-0.166653 0 0.100158)
(-0.137561 0 0.121957)
(-0.0932559 0 0.152619)
(-0.0488519 0 0.167587)
(-0.0139372 0 0.19222)
(0.00166809 0 0.200448)
(0.00156312 0 0.198737)
(-0.00239668 0 0.195155)
(4.80254e-05 0 -0.00153372)
(-0.00296996 0 -0.00474649)
(-0.00603981 0 -0.008171)
(-0.00951282 0 -0.0101277)
(-0.0129077 0 -0.011676)
(-0.0169604 0 -0.0155702)
(-0.0207983 0 -0.019401)
(-0.0254947 0 -0.0204346)
(-0.0298733 0 -0.0201644)
(-0.0351997 0 -0.024107)
(-0.0401351 0 -0.0280543)
(-0.0463256 0 -0.0259429)
(-0.0519634 0 -0.0212374)
(-0.0592295 0 -0.02498)
(-0.0648505 0 -0.027688)
(-0.0899599 0 -0.0181224)
(-0.110295 0 -0.00533976)
(-0.150358 0 0.000913307)
(-0.18595 0 0.0114808)
(-0.203774 0 0.0299401)
(-0.215023 0 0.0528921)
(-0.199088 0 0.0710836)
(-0.174164 0 0.0908443)
(-0.130722 0 0.122991)
(-0.0837639 0 0.144471)
(-0.034907 0 0.174013)
(-0.00034112 0 0.189221)
(0.00158326 0 0.19343)
(0.00158315 0 0.193484)
(0.00572525 0 -0.00138795)
(0.0033478 0 -0.00438311)
(0.000462049 0 -0.00769464)
(-0.0025217 0 -0.00967827)
(-0.00564457 0 -0.0114059)
(-0.00929426 0 -0.0155397)
(-0.0129225 0 -0.0197164)
(-0.0172729 0 -0.0213349)
(-0.0214915 0 -0.0218216)
(-0.026505 0 -0.0264625)
(-0.0312907 0 -0.0312766)
(-0.0372686 0 -0.0303551)
(-0.0427885 0 -0.0270698)
(-0.0509342 0 -0.0323104)
(-0.0573292 0 -0.0375076)
(-0.0861506 0 -0.0301075)
(-0.110781 0 -0.0187567)
(-0.152247 0 -0.0177964)
(-0.191736 0 -0.0106337)
(-0.211796 0 0.00472036)
(-0.226944 0 0.024846)
(-0.219138 0 0.0376456)
(-0.198643 0 0.0561467)
(-0.1513 0 0.0866276)
(-0.10512 0 0.109762)
(-0.0494194 0 0.136313)
(0.000456339 0 0.15941)
(0.00439902 0 0.173525)
(0.00623523 0 0.179988)
(0.00850983 0 -0.0040245)
(0.0108456 0 -0.00114257)
(0.00627278 0 -0.00711572)
(0.00405176 0 -0.00886927)
(0.00119503 0 -0.0106253)
(-0.00188605 0 -0.0148663)
(-0.00519435 0 -0.0192521)
(-0.00902519 0 -0.0212982)
(-0.012935 0 -0.0223756)
(-0.0174794 0 -0.0275979)
(-0.0219893 0 -0.0331092)
(-0.0277181 0 -0.0331518)
(-0.0330759 0 -0.0310391)
(-0.0423706 0 -0.0372164)
(-0.0496696 0 -0.043804)
(-0.0806895 0 -0.0376262)
(-0.107981 0 -0.0284182)
(-0.144399 0 -0.0320168)
(-0.184043 0 -0.029953)
(-0.202419 0 -0.0229491)
(-0.218816 0 -0.0061608)
(-0.224968 0 -0.000628176)
(-0.213645 0 0.0133197)
(-0.156457 0 0.0473429)
(-0.106058 0 0.0690337)
(-0.052343 0 0.0872234)
(0.00416544 0 0.112981)
(0.00860507 0 0.133999)
(0.0127469 0 0.149959)
(0.0093803 0 -0.00799221)
(0.0113209 0 -0.00632177)
(0.0173659 0 -0.00291132)
(0.0192839 0 -0.000553687)
(0.00730527 0 -0.00951804)
(0.00501488 0 -0.0135867)
(0.00205306 0 -0.0180677)
(-0.00105215 0 -0.0203637)
(-0.00453954 0 -0.0218491)
(-0.00842693 0 -0.0275539)
(-0.0125221 0 -0.03368)
(-0.0179669 0 -0.0345275)
(-0.0231621 0 -0.0333297)
(-0.0340584 0 -0.0402815)
(-0.0426198 0 -0.0477373)
(-0.0753384 0 -0.0421966)
(-0.104978 0 -0.0347852)
(-0.126975 0 -0.0397105)
(-0.159693 0 -0.0434682)
(-0.170237 0 -0.0486165)
(-0.182655 0 -0.0391228)
(-0.21406 0 -0.0471671)
(-0.21327 0 -0.0386553)
(-0.150994 0 -0.000874897)
(-0.0901552 0 0.0276864)
(-0.0465614 0 0.0370637)
(0.00767669 0 0.0593683)
(0.0132257 0 0.0849938)
(0.0179831 0 0.106305)
(0.010716 0 -0.0120491)
(0.0124668 0 -0.00807362)
(0.0180188 0 -0.00576279)
(0.0195858 0 -0.00427593)
(0.0208272 0 -0.00183474)
(0.0242075 0 -7.48737e-05)
(0.00855162 0 -0.0163714)
(0.00629551 0 -0.018604)
(0.00332499 0 -0.0202723)
(0.000352381 0 -0.026329)
(-0.00318873 0 -0.0330107)
(-0.00824574 0 -0.0345084)
(-0.0132297 0 -0.0340079)
(-0.0257848 0 -0.0417977)
(-0.0360829 0 -0.0500989)
(-0.0698926 0 -0.0449826)
(-0.10174 0 -0.0394319)
(-0.105213 0 -0.0444836)
(-0.124119 0 -0.0511876)
(-0.123433 0 -0.0643993)
(-0.128124 0 -0.0665208)
(-0.188377 0 -0.0857923)
(-0.215262 0 -0.0877416)
(-0.139384 0 -0.0458335)
(-0.0746639 0 -0.0147301)
(-0.0339073 0 -0.0110678)
(0.011582 0 0.00351816)
(0.0166893 0 0.0345396)
(0.0222397 0 0.0573016)
(0.0124457 0 -0.0163294)
(0.0139974 0 -0.0142175)
(0.019315 0 -0.00852815)
(0.020482 0 -0.00453547)
(0.0213356 0 -0.00346303)
(0.0239554 0 -0.00279727)
(0.027943 0 -0.000834995)
(0.0262822 0 -0.000905602)
(0.0103061 0 -0.0178147)
(0.00841023 0 -0.0239937)
(0.00561123 0 -0.0311406)
(0.00115028 0 -0.033004)
(-0.00354511 0 -0.0329934)
(-0.0174048 0 -0.0417247)
(-0.0294592 0 -0.0509998)
(-0.0630556 0 -0.0466459)
(-0.0962622 0 -0.0430782)
(-0.0826875 0 -0.0489223)
(-0.084543 0 -0.0565857)
(-0.0815564 0 -0.0724421)
(-0.0783786 0 -0.0819517)
(-0.15654 0 -0.0989224)
(-0.216252 0 -0.114567)
(-0.13178 0 -0.0851171)
(-0.0564096 0 -0.0549072)
(-0.0209121 0 -0.0580592)
(0.018978 0 -0.0469055)
(0.0199489 0 -0.0159341)
(0.0252336 0 0.00995388)
(0.0152865 0 -0.0207786)
(0.0159669 0 -0.0145109)
(0.0210288 0 -0.0113186)
(0.0220852 0 -0.00929575)
(0.0225704 0 -0.00482323)
(0.0241321 0 -0.00103292)
(0.0275388 0 -0.000912091)
(0.0241469 0 -0.00408189)
(0.0218366 0 -0.00375276)
(0.0349151 0 -0.003401)
(0.013513 0 -0.0281924)
(0.00972857 0 -0.0300943)
(0.00544112 0 -0.0302784)
(-0.00904465 0 -0.0398204)
(-0.0223896 0 -0.0502365)
(-0.0539687 0 -0.0469924)
(-0.0870229 0 -0.0453264)
(-0.0587126 0 -0.0534087)
(-0.0442254 0 -0.0620466)
(-0.0516459 0 -0.0779175)
(-0.0488941 0 -0.0886265)
(-0.128334 0 -0.0932709)
(-0.209054 0 -0.113124)
(-0.128773 0 -0.103918)
(-0.0479945 0 -0.0841886)
(-0.017201 0 -0.0908538)
(0.0173455 0 -0.0836322)
(0.0193414 0 -0.0569657)
(0.0204033 0 -0.0329581)
(0.0169827 0 -0.0257452)
(0.019832 0 -0.0243075)
(0.0239031 0 -0.0139753)
(0.0236674 0 -0.00655524)
(0.024054 0 -0.00583443)
(0.0247988 0 -0.0052611)
(0.0271308 0 -0.00097081)
(0.024278 0 -0.00252949)
(0.0201543 0 -0.00604946)
(0.0294303 0 -0.00902139)
(0.0429476 0 -0.00826847)
(0.0525269 0 -0.0097106)
(0.0133274 0 -0.0257998)
(-0.00108181 0 -0.036183)
(-0.0152154 0 -0.0476452)
(-0.0430401 0 -0.0452621)
(-0.0738821 0 -0.0453034)
(-0.0332971 0 -0.056784)
(-0.00427724 0 -0.0674525)
(-0.0309883 0 -0.0826491)
(-0.0392922 0 -0.091776)
(-0.107503 0 -0.0848228)
(-0.189299 0 -0.0971972)
(-0.121049 0 -0.107227)
(-0.043878 0 -0.0993421)
(-0.0197871 0 -0.106775)
(0.00969421 0 -0.104268)
(0.0136257 0 -0.0856377)
(0.0150969 0 -0.0677626)
(0.00531794 0 -0.0302997)
(0.0191221 0 -0.019733)
(0.0251699 0 -0.0166817)
(0.0276762 0 -0.0149265)
(0.0266993 0 -0.00632345)
(0.0249797 0 0.000743019)
(0.0265775 0 0.000397694)
(0.0213984 0 -0.00632379)
(0.0179445 0 -0.0068621)
(0.0261474 0 -0.00936885)
(0.0361263 0 -0.0126316)
(0.0387238 0 -0.0237844)
(0.0481319 0 -0.0241558)
(0.100163 0 -0.0126514)
(-0.00877872 0 -0.0428259)
(-0.0313214 0 -0.0411524)
(-0.0584943 0 -0.0423275)
(-0.00703838 0 -0.0569341)
(0.0343463 0 -0.0708362)
(-0.0185376 0 -0.0855636)
(-0.0460816 0 -0.0928194)
(-0.095619 0 -0.0776797)
(-0.16578 0 -0.0803525)
(-0.108101 0 -0.101737)
(-0.0406162 0 -0.104585)
(-0.0222517 0 -0.109531)
(0.00155432 0 -0.111211)
(0.00676021 0 -0.101126)
(0.0102808 0 -0.0902878)
(-0.0226482 0 -0.0339457)
(-0.00413987 0 -0.036153)
(0.0123199 0 -0.0187499)
(0.0251166 0 -0.00592962)
(0.0270379 0 -0.00632925)
(0.0276918 0 -0.00575659)
(0.0271812 0 0.0019739)
(0.0210632 0 0.00212092)
(0.0154042 0 -0.00507306)
(0.0172829 0 -0.0123483)
(0.0264342 0 -0.0135655)
(0.0281365 0 -0.0313697)
(0.0302284 0 -0.0414889)
(0.0729059 0 -0.0458013)
(0.122635 0 -0.0337795)
(0.161838 0 -0.0261195)
(-0.0443504 0 -0.0357777)
(0.0175528 0 -0.0520723)
(0.0687004 0 -0.0689614)
(-0.00825928 0 -0.0829927)
(-0.0618936 0 -0.0895368)
(-0.0927203 0 -0.0737818)
(-0.143225 0 -0.0689031)
(-0.0940886 0 -0.0941895)
(-0.0366221 0 -0.10503)
(-0.0225633 0 -0.104609)
(-0.00410131 0 -0.109215)
(0.00129596 0 -0.105536)
(0.00636892 0 -0.100834)
(0.0312178 0 -0.0433331)
(-0.0324069 0 -0.0269432)
(-0.00802891 0 -0.0207653)
(0.001702 0 -0.0200157)
(0.0141896 0 -0.00573083)
(0.0235108 0 0.00601957)
(0.0253351 0 0.00494861)
(0.0203004 0 -0.0019216)
(0.013604 0 -0.00109439)
(0.0119106 0 -0.00257421)
(0.014913 0 -0.0107883)
(0.0113675 0 -0.0343936)
(0.0128362 0 -0.0495536)
(0.0440404 0 -0.0624184)
(0.0862313 0 -0.0646611)
(0.12929 0 -0.0677039)