/*--------------------------------*- C++ -*----------------------------------*\
| =========                 |                                                 |
| \\      /  F ield         | OpenFOAM: The Open Source CFD Toolbox           |
|  \\    /   O peration     | Version:  5.x                                   |
|   \\  /    A nd           | Web:      www.OpenFOAM.org                      |
|    \\/     M anipulation  |                                                 |
\*---------------------------------------------------------------------------*/
FoamFile
{
    version     2.0;
    format      ascii;
    class       surfaceScalarField;
    location    "1.2";
    object      alphaPhi10;
}
// * * * * * * * * * * * * * * * * * * * * * * * * * * * * * * * * * * * * * //

dimensions      [0 3 -1 0 0 0 0];

internalField   nonuniform List<scalar> 
30582
(
0.000280664
-8.11903e-07
0.000279024
1.63946e-06
0.000280314
-1.2403e-06
0.000273241
5.7836e-06
0.000278203
3.74987e-06
0.000278892
-1.7318e-07
0.000266135
7.10516e-06
0.000272384
1.16031e-05
0.000277691
4.95022e-06
0.000276346
3.545e-06
0.000262913
3.22232e-06
0.000265062
1.44272e-05
0.000271978
1.73161e-05
0.000273754
7.54192e-06
0.000272608
1.11377e-05
0.000263582
-6.68978e-07
0.000261563
6.72125e-06
0.000264496
2.19096e-05
0.000267563
2.35072e-05
0.000272782
7.36851e-06
0.000265218
2.63008e-05
0.000268147
-4.56503e-06
0.000262626
-1.73201e-06
0.000260854
1.0363e-05
0.000260018
2.94549e-05
0.000266451
2.98378e-05
0.000263009
9.5779e-06
0.000260647
4.62468e-05
0.000273548
-5.4013e-06
0.000267756
-9.69468e-06
0.000262197
-3.07522e-06
0.000256187
1.41936e-05
0.000258708
3.71981e-05
0.000256864
3.59824e-05
0.000262453
7.77144e-06
0.000241756
8.53259e-05
0.000277455
-3.9067e-06
0.000273816
-1.14614e-05
0.000267731
-1.52287e-05
0.000258516
-5.40345e-06
0.000255041
1.78606e-05
0.000249791
4.42716e-05
0.000256614
4.18211e-05
0.000235751
1.36858e-05
0.000105143
-9.66784e-06
0.000277524
-6.90466e-08
0.00027822
-8.31119e-06
0.000274767
-1.84973e-05
0.000265945
-2.26582e-05
0.000257639
-8.00135e-06
0.000246824
2.08271e-05
0.000248083
5.28025e-05
0.000236263
4.0397e-05
0.000128835
-1.45474e-06
-7.83861e-06
2.02753e-07
0.000272114
5.41043e-06
0.00027817
-1.90359e-08
0.000280095
-1.36395e-05
0.000274976
-2.75283e-05
0.000265715
-3.0734e-05
0.000251158
-1.23353e-05
0.000243107
2.5802e-05
0.000234435
5.29984e-05
0.000150672
3.44771e-07
-4.55153e-06
-8.61685e-09
-8.20041e-10
4.01843e-09
0.00026109
1.10234e-05
0.000273205
1.03758e-05
0.000281476
-1.39976e-06
0.000281997
-2.06602e-05
0.000276725
-3.85392e-05
0.000262373
-4.1949e-05
0.000247144
-1.63676e-05
0.000233164
2.52073e-05
0.000159727
1.0847e-05
-4.31474e-07
-3.14941e-08
-2.85583e-10
-1.21506e-10
3.00801e-10
3.90649e-12
0.000245124
1.59667e-05
0.000262281
2.19469e-05
0.000276055
1.57967e-05
0.000283509
-2.91152e-06
0.000285938
-2.98728e-05
0.000277155
-5.33208e-05
0.000260076
-5.48624e-05
0.000240126
-2.02786e-05
0.000165676
3.43979e-06
4.55884e-06
-3.98937e-08
-9.37443e-09
-8.4144e-12
4.6788e-12
-8.7131e-16
-1.5933e-17
1.73542e-16
0.00022527
1.9854e-05
0.000246183
3.20646e-05
0.000264831
3.31712e-05
0.000279433
1.98721e-05
0.000290075
-7.04844e-06
0.000289709
-4.24275e-05
0.000278598
-7.18303e-05
0.000256353
-6.13691e-05
0.000180909
-7.99697e-06
9.08323e-06
-7.42297e-08
-8.12986e-09
-4.68222e-11
3.42542e-12
-2.8197e-16
-3.36415e-17
-8.93329e-19
5.56526e-18
3.24109e-21
0.000202747
2.25229e-05
0.000226088
3.99498e-05
0.000248301
4.85943e-05
0.000268298
4.43067e-05
0.000285456
2.44909e-05
0.00029475
-1.20895e-05
0.000295093
-5.89211e-05
0.000280291
-8.34561e-05
0.000208859
-2.09399e-05
1.691e-05
-2.33712e-07
1.45701e-08
-1.74857e-10
1.08409e-11
-5.84366e-15
1.12092e-16
-1.27901e-20
3.76949e-21
-5.49932e-26
-4.24203e-27
0.000178703
2.40434e-05
0.000203302
4.53084e-05
0.000227674
6.05775e-05
0.000251255
6.56368e-05
0.000273703
5.60597e-05
0.000292003
2.72385e-05
0.000303878
-2.08743e-05
0.000301656
-7.11715e-05
0.000242887
-3.44341e-05
3.03752e-05
-5.69049e-07
8.99323e-08
-6.94015e-10
5.07284e-11
-3.8844e-14
5.40603e-16
-1.6331e-19
1.33024e-21
-1.54101e-25
-7.8755e-27
0.000154081
2.46223e-05
0.000179023
4.83229e-05
0.000204348
6.86339e-05
0.000229867
8.1966e-05
0.000255721
8.36184e-05
0.000280061
6.80015e-05
0.000300417
3.06996e-05
0.000311729
-2.77224e-05
0.000271043
-3.70851e-05
5.22104e-05
-1.18302e-06
3.10717e-07
-2.26755e-09
1.41259e-10
-1.85126e-13
3.67611e-15
-1.23015e-18
7.51989e-21
-3.44041e-24
6.04326e-27
0.000129558
2.45225e-05
0.000154215
4.94305e-05
0.000179595
7.30762e-05
0.000205744
9.27566e-05
0.000233183
0.000104505
0.000260907
0.000102772
0.000287654
8.0764e-05
0.000310567
3.18733e-05
0.000284473
-1.85232e-05
7.89768e-05
-1.82323e-06
8.99747e-07
-6.08211e-09
3.7817e-10
-7.5126e-13
1.1203e-14
-5.979e-18
5.37037e-20
-3.05e-23
6.66037e-26
0.000105559
2.39991e-05
0.000129564
4.91732e-05
0.000154419
7.46059e-05
0.000180291
9.85295e-05
0.000207915
0.000118024
0.000236805
0.000128607
0.000267026
0.0001234
0.000297727
9.36033e-05
0.000283786
1.10431e-05
9.51359e-05
-1.40379e-06
2.14683e-06
-1.1883e-08
9.41691e-10
-2.25969e-12
2.27349e-14
-2.58108e-17
1.36407e-19
-1.5585e-22
5.56627e-25
8.22912e-05
2.32682e-05
0.000105491
4.80719e-05
0.000129519
7.40734e-05
0.00015458
0.000100317
0.00018148
0.000124965
0.00020999
0.000144839
0.00024112
0.000154513
0.000275519
0.000145609
0.000265629
3.58237e-05
9.66842e-05
4.415e-07
3.69602e-06
-1.28785e-08
2.15343e-09
-4.97817e-12
-6.64025e-15
-7.61969e-17
5.93671e-20
-7.39586e-22
1.36904e-24
5.97933e-05
2.2498e-05
8.2195e-05
4.65644e-05
0.000105308
7.2283e-05
0.000129325
9.93281e-05
0.000155023
0.000126774
0.000182257
0.000152697
0.000212533
0.000173427
0.000247106
0.000182926
0.000235237
5.25074e-05
8.70439e-05
2.57435e-06
4.24008e-06
-2.70015e-09
4.02946e-09
-6.12718e-12
-2.05552e-13
-1.6904e-16
-1.57408e-18
-2.22945e-21
7.22813e-25
3.79899e-05
2.18033e-05
5.97057e-05
4.49872e-05
8.19699e-05
6.99027e-05
0.000104928
9.66802e-05
0.000129271
0.00012508
0.000154852
0.000154179
0.000183327
0.000181903
0.000216123
0.000204409
0.000201294
5.87542e-05
6.83861e-05
3.45686e-06
3.89551e-06
2.59167e-08
5.04451e-09
-1.84943e-12
-6.62123e-13
-2.10021e-16
-8.26658e-18
-5.22546e-21
-1.79727e-23
1.67286e-05
2.12613e-05
3.79396e-05
4.35694e-05
5.95139e-05
6.74432e-05
8.15451e-05
9.32857e-05
0.000104601
0.00012135
0.000128509
0.000151424
0.000154872
0.000182634
0.000185114
0.000212912
0.000167805
5.6766e-05
5.07839e-05
3.12512e-06
2.2908e-06
3.52205e-08
4.6191e-09
2.09258e-11
-7.58871e-13
-6.26643e-17
-2.31163e-17
-6.85796e-21
-9.99333e-23
-4.17197e-06
2.09006e-05
1.67342e-05
4.24666e-05
3.78326e-05
6.52506e-05
5.91558e-05
8.98324e-05
8.11305e-05
0.000116756
0.000103565
0.000146294
0.000127892
0.000178403
0.000155309
0.00021244
0.000137206
5.0075e-05
3.60626e-05
2.31421e-06
1.12361e-06
2.22374e-08
1.72039e-09
2.24087e-11
-4.37607e-13
8.72271e-16
-2.52861e-17
-2.26433e-21
-2.8974e-22
-2.49029e-05
2.0731e-05
-4.10217e-06
4.1737e-05
1.67444e-05
6.35549e-05
3.76233e-05
8.67831e-05
5.8798e-05
0.000112165
8.0084e-05
0.000140237
0.000102655
0.00017153
0.000127396
0.000206316
0.000110472
4.17152e-05
2.44974e-05
1.51824e-06
5.05013e-07
1.0559e-08
4.77867e-10
9.55968e-12
-9.99829e-14
9.10214e-16
-1.5531e-17
3.57336e-20
-3.5647e-22
-4.56297e-05
2.07268e-05
-2.47709e-05
4.13997e-05
-3.96025e-06
6.24417e-05
1.6736e-05
8.44422e-05
3.74252e-05
0.000108156
5.79441e-05
0.000134305
7.9154e-05
0.000163738
0.000101644
0.000197282
8.76436e-05
3.3606e-05
1.59871e-05
9.23174e-07
2.05825e-07
4.34954e-09
1.15273e-10
2.7778e-12
-1.22943e-14
3.74057e-16
-3.501e-18
3.65647e-20
-1.98774e-22
-6.64764e-05
2.08466e-05
-4.5447e-05
4.14029e-05
-2.45019e-05
6.19414e-05
-3.74504e-06
8.29227e-05
1.67625e-05
0.000105105
3.69107e-05
0.000129189
5.7191e-05
0.000156268
7.8001e-05
0.000187381
6.82339e-05
2.67527e-05
1.00552e-05
5.43083e-07
7.79779e-08
1.62594e-09
2.75447e-11
6.5072e-13
-5.17804e-16
1.0023e-16
-4.1756e-19
1.44894e-20
-4.03831e-23
-8.75126e-05
2.10362e-05
-6.62637e-05
4.16633e-05
-4.50727e-05
6.19737e-05
-2.40704e-05
8.22668e-05
-3.46484e-06
0.00010315
1.66809e-05
0.000125335
3.64679e-05
0.000149912
5.62033e-05
0.000178065
5.15521e-05
2.14661e-05
6.13396e-06
3.18962e-07
2.89007e-08
5.87843e-10
7.17776e-12
1.35303e-13
1.6699e-16
2.11238e-17
-2.30717e-20
3.60138e-21
-3.92916e-24
-0.000108739
2.12261e-05
-8.72981e-05
4.20706e-05
-6.58188e-05
6.24094e-05
-4.44591e-05
8.23624e-05
-2.35463e-05
0.000102348
-3.0659e-06
0.000122897
1.66309e-05
0.000145172
3.58775e-05
0.000170238
3.6918e-05
1.76659e-05
3.67225e-06
1.92592e-07
1.1009e-08
2.18309e-10
1.96751e-12
2.7427e-14
6.11188e-17
4.05252e-18
2.39273e-21
7.01411e-22
-7.92398e-26
-0.000130082
2.13433e-05
-0.000108554
4.24816e-05
-8.68295e-05
6.30813e-05
-6.50802e-05
8.30304e-05
-4.37322e-05
0.000102548
-2.26811e-05
0.000121963
-2.68123e-06
0.000142209
1.65932e-05
0.000164456
2.3681e-05
1.51315e-05
2.1562e-06
1.24585e-07
4.44844e-09
8.85401e-11
5.75536e-13
7.74417e-15
1.94915e-17
8.64022e-19
1.21484e-21
1.31555e-22
5.35899e-26
-0.000151396
2.13139e-05
-0.000129961
4.27504e-05
-0.000108125
6.37775e-05
-8.60434e-05
8.40445e-05
-6.42206e-05
0.000103519
-4.24651e-05
0.000122332
-2.18753e-05
0.000141158
-2.06426e-06
0.000160866
1.12432e-05
1.36275e-05
1.19198e-06
8.92983e-08
1.94212e-09
4.16759e-11
1.88255e-13
2.84064e-15
6.83316e-18
2.52226e-19
4.07778e-22
2.92912e-23
1.79686e-26
-0.000172459
2.10629e-05
-0.000151376
4.27293e-05
-0.000129647
6.42723e-05
-0.000107384
8.51182e-05
-8.51477e-05
0.000104972
-6.26528e-05
0.000123706
-4.1283e-05
0.00014174
-2.06375e-05
0.000159731
-9.00882e-07
1.29482e-05
5.13979e-07
7.21025e-08
8.78375e-10
2.39003e-11
6.8574e-14
1.23807e-15
2.2861e-18
8.49926e-20
1.28674e-22
7.84591e-24
5.05009e-27
-0.000192981
2.05223e-05
-0.000172579
4.2266e-05
-0.000151257
6.43392e-05
-0.000129058
8.59464e-05
-0.000106573
0.000106544
-8.34173e-05
0.000125736
-6.11779e-05
0.000143601
-3.95474e-05
0.00016065
-1.29573e-05
1.30032e-05
-6.34318e-08
6.58501e-08
3.14007e-10
1.70157e-11
2.57528e-14
6.7497e-16
7.93368e-19
3.45908e-20
4.09153e-23
2.4113e-24
1.34798e-27
-0.000212629
1.96475e-05
-0.000193282
4.12248e-05
-0.000172738
6.37465e-05
-0.00015094
8.62216e-05
-0.000128473
0.000107847
-0.000104851
0.000127977
-8.17732e-05
0.000146331
-5.91181e-05
0.000163172
-2.5228e-05
1.37461e-05
-6.59243e-07
6.73655e-08
-9.00366e-11
1.48581e-11
6.03706e-15
4.69204e-16
2.58811e-19
1.80213e-20
1.43557e-23
9.17708e-25
3.86277e-28
-0.000231029
1.84001e-05
-0.000213144
3.95097e-05
-0.000193798
6.2285e-05
-0.00017282
8.56263e-05
-0.000150739
0.000108488
-0.000126958
0.000129954
-0.000103202
0.000149405
-7.96108e-05
0.000166824
-3.8112e-05
1.51929e-05
-1.39472e-06
7.66609e-08
-5.37944e-10
1.55879e-11
-9.39212e-15
4.06932e-16
1.23889e-20
1.22704e-20
4.89943e-24
4.59295e-25
1.25903e-28
-0.000247805
1.67758e-05
-0.000231783
3.70393e-05
-0.000214088
5.97993e-05
-0.000194403
8.38677e-05
-0.000173171
0.000108058
-0.000149654
0.000131184
-0.000125509
0.000152261
-0.000101194
0.000170989
-5.20082e-05
1.74091e-05
-2.43461e-06
9.67259e-08
-1.26773e-09
1.94321e-11
-2.79698e-14
4.29792e-16
-1.82033e-19
1.05903e-20
4.76138e-25
3.07567e-25
4.14669e-29
-0.000262589
1.47843e-05
-0.000248807
3.37991e-05
-0.000233206
5.61576e-05
-0.000215324
8.07201e-05
-0.000195473
0.000106169
-0.000172755
0.00013116
-0.000148646
0.000154321
-0.000123936
0.000175003
-6.72903e-05
2.04458e-05
-3.98805e-06
1.33142e-07
-2.67669e-09
2.87291e-11
-6.12687e-14
5.46402e-16
-4.21927e-19
1.12542e-20
-2.95671e-24
2.64716e-25
3.53569e-30
-0.000275075
1.24865e-05
-0.00026382
2.97979e-05
-0.000250733
5.13265e-05
-0.000235154
7.59882e-05
-0.000217264
0.000102512
-0.000195967
0.000129381
-0.00017246
0.000154973
-0.00014779
0.000178175
-8.43011e-05
2.43146e-05
-6.32355e-06
1.95891e-07
-5.79312e-09
4.98906e-11
-1.39584e-13
8.34594e-16
-8.85519e-19
1.4563e-20
-7.30122e-24
2.82903e-25
-2.59181e-29
-0.000285067
9.99112e-06
-0.000276462
2.51288e-05
-0.000266244
4.53084e-05
-0.000253435
6.96073e-05
-0.000238085
9.68089e-05
-0.000218893
0.000125438
-0.000196671
0.000153592
-0.000172585
0.000179768
-0.000103353
2.89526e-05
-9.73601e-06
2.99304e-07
-1.30525e-08
9.90593e-11
-3.46193e-13
1.52798e-15
-2.02541e-18
2.29179e-20
-1.57564e-23
3.71478e-25
-6.26062e-29
7.03488e-06
-0.000292101
-0.000286401
1.99301e-05
-0.000279347
3.82319e-05
-0.000269689
6.1562e-05
-0.000257427
8.89493e-05
-0.000241033
0.000118948
-0.000220867
0.000149634
-0.000198024
0.000179031
-0.000124645
3.41562e-05
-1.44801e-05
4.61067e-07
-3.00592e-08
2.15218e-10
-9.32694e-13
3.26063e-15
-5.0998e-18
4.40127e-20
-3.64549e-23
5.99957e-25
-1.34966e-28
1.4128e-05
-0.000293494
4.45575e-06
-0.000296557
-0.00028971
3.02932e-05
-0.000283471
5.20144e-05
-0.000274746
7.88811e-05
-0.000261814
0.000109731
-0.000244489
0.00014257
-0.000223724
0.000175334
-0.000148202
3.9556e-05
-2.07694e-05
7.03698e-07
-6.91524e-08
4.88549e-10
-2.67673e-12
7.73997e-15
-1.36945e-17
1.00095e-19
-9.36646e-23
1.20436e-24
-3.22479e-28
2.16736e-05
-0.000297255
9.6141e-06
-0.000298653
-1.21315e-05
-0.000284426
-0.000294422
4.12445e-05
-0.00028953
6.67982e-05
-0.000280586
9.7653e-05
-0.0002669
0.000132142
-0.000249206
0.000168052
-0.000173848
4.46456e-05
-2.88046e-05
1.05288e-06
-1.54876e-07
1.11568e-09
-7.9204e-12
2.23736e-14
-3.62346e-17
2.55824e-19
-2.64923e-22
2.92106e-24
-8.84789e-28
2.9579e-05
-0.000302328
1.57399e-05
-0.000303381
-2.32911e-05
-0.000287493
-2.7643e-05
-0.000256783
-0.00030138
5.30953e-05
-0.000296686
8.28976e-05
-0.000287329
0.000118082
-0.000273789
0.000156725
-0.00020114
4.87694e-05
-3.87346e-05
1.52323e-06
-3.28603e-07
2.47742e-09
-2.34422e-11
8.2538e-14
-1.09312e-16
7.1187e-19
-7.65232e-22
8.10513e-24
-2.74697e-27
3.83592e-05
-0.000310161
2.27303e-05
-0.000309318
-3.45289e-05
-0.000292143
-5.28474e-05
-0.000262289
-4.38693e-05
-0.000212913
-0.000309555
6.59652e-05
-0.000304962
0.00010053
-0.000296453
0.000140746
-0.000229253
5.11887e-05
-5.06128e-05
2.10222e-06
-6.52515e-07
5.24809e-09
-7.16243e-11
2.96441e-13
-3.71141e-16
2.46743e-18
-2.2551e-21
2.42836e-23
-9.05981e-27
4.77094e-05
-0.000318906
3.14087e-05
-0.000318839
-4.4183e-05
-0.000299664
-7.76184e-05
-0.000267372
-8.09285e-05
-0.00022523
-6.19439e-05
-0.000150969
-0.00031907
8.00734e-05
-0.000315882
0.000119959
-0.000256822
5.10583e-05
-6.42735e-05
2.73141e-06
-1.20823e-06
1.04404e-08
-2.23707e-10
1.00512e-12
-1.17465e-15
9.35102e-18
-7.08299e-21
8.12503e-23
-2.97863e-26
5.77904e-05
-0.000329151
4.11531e-05
-0.00032865
-5.41748e-05
-0.000308847
-0.000100485
-0.000276797
-0.000115058
-0.000233243
-0.000111031
-0.000176143
-0.000122948
-2.80211e-05
-0.000331089
9.52809e-05
-0.000282359
4.77162e-05
-7.91621e-05
3.28937e-06
-2.08643e-06
1.93032e-08
-6.71124e-10
3.13155e-12
-2.67475e-15
3.45388e-17
-2.04506e-20
3.0835e-22
-9.95631e-26
6.76664e-05
-0.000340965
5.40397e-05
-0.000342038
-6.30916e-05
-0.000319733
-0.000123219
-0.000286113
-0.000143851
-0.000248005
-0.000151308
-0.000192965
-0.000203529
-9.55625e-05
-0.000133866
0.000105845
-0.000304756
4.05445e-05
-9.47834e-05
3.60716e-06
-3.35943e-06
3.24591e-08
-1.82614e-09
8.78663e-12
-8.58966e-16
1.17539e-16
-2.84064e-20
1.20174e-21
-3.24792e-25
2.9448e-05
-0.000323455
6.80269e-05
-0.000354923
-7.31462e-05
-0.000331983
-0.000146817
-0.000296135
-0.0001716
-0.000258364
-0.000180648
-0.000218665
-0.00024453
-0.000151964
-0.000229409
-1.94948e-08
-0.000263405
0.000369251
-0.000111288
3.44514e-06
-5.05877e-06
4.74059e-08
-4.35736e-09
2.16332e-11
3.06694e-14
3.55636e-16
1.87241e-19
4.40045e-21
-7.86718e-25
2.4609e-06
-0.000125357
3.32093e-05
-0.000336137
-7.61797e-05
-0.00034677
-0.0001723
-0.000306488
-0.000200373
-0.000267362
-0.000207352
-0.00023166
-0.000252981
-0.000210214
-0.000273864
-0.00010751
-0.000392486
0.000129061
-0.000120019
0.00048927
-6.83482e-06
5.30702e-08
-8.92852e-09
4.33396e-11
2.07583e-13
9.25144e-16
1.937e-18
1.42725e-20
5.02635e-25
3.34435e-08
-7.69295e-06
2.53949e-06
-0.000125894
-4.69997e-05
-0.000326614
-0.000185437
-0.000319297
-0.0002317
-0.000275058
-0.000232385
-0.00024233
-0.000253253
-0.000231388
-0.000280039
-0.000204038
-0.000427193
-7.28017e-05
-0.000196721
0.000205763
0.000238094
0.000251175
-1.46557e-08
6.1029e-11
8.02264e-13
2.0933e-15
1.05374e-17
3.90271e-20
1.97473e-23
4.46112e-11
-1.67782e-08
1.19739e-08
-7.07096e-06
-3.85541e-06
-0.000104349
-9.68382e-05
-0.000289006
-0.000240189
-0.000285538
-0.000258494
-0.000248575
-0.000257117
-0.000238465
-0.000268385
-0.000243042
-0.000373262
-0.000257969
-0.000191784
-7.77389e-05
0.000309575
0.000134282
0.00143945
0.000303465
-0.00149174
1.85771e-12
3.85322e-15
3.90969e-17
8.46826e-20
1.34805e-22
3.55522e-15
2.16493e-12
-2.26263e-12
-1.25999e-08
-4.09171e-08
-3.97421e-06
-5.21666e-06
-5.89341e-05
-8.8687e-05
-0.000234165
-0.000249917
-0.000255108
-0.000265823
-0.000238966
-0.000257036
-0.000249812
-0.000299828
-0.000316477
-0.000175152
-0.0002746
0.00028021
-4.83752e-05
0.00133821
0.000235519
0.00153738
0.00043091
-0.00166483
0.000200463
-0.0016922
1.04918e-16
1.41311e-19
5.42917e-22
1.36821e-19
1.38406e-16
-1.59302e-16
1.96629e-12
-2.88272e-11
-5.0687e-09
-3.94622e-08
-1.33027e-06
-3.06672e-06
-2.54516e-05
-6.05291e-05
-0.000177528
-0.000233933
-0.000234464
-0.000249946
-0.000244591
-0.0002513
-0.000298337
-0.000150842
-0.000340787
0.000220084
-0.000214474
0.00116323
0.000126609
0.00134559
0.000427313
0.00152852
0.000625365
-0.00172298
0.000332868
-0.00179724
0.000134942
-0.00182715
1.48071e-21
2.11391e-21
-7.20695e-21
7.27276e-17
-1.14143e-15
1.14274e-12
-2.15482e-11
-1.38155e-09
-1.78319e-08
-3.45373e-07
-1.48056e-06
-9.06209e-06
-3.72572e-05
-0.000132832
-0.000202475
-0.000222254
-0.000230095
-0.000264167
-0.000132089
-0.000317088
0.000186263
-0.000306966
0.000933769
1.4985e-05
0.00113195
0.000340253
0.0012976
0.000658229
0.00156498
0.000887301
-0.00182691
0.000521106
-0.00191122
0.000251954
-0.00191425
8.23192e-05
-0.00190947
9.72708e-22
-4.10167e-20
4.35236e-17
-7.48738e-16
1.94433e-13
-7.79122e-12
-4.08231e-10
-6.2216e-09
-7.55501e-08
-7.10549e-07
-2.35196e-06
-2.25541e-05
-0.000101081
-0.000176787
-0.000216294
-0.000141339
-0.000254201
0.000124968
-0.000255793
0.000664266
-3.74641e-05
0.000871376
0.000275557
0.00102509
0.000612763
0.00130637
0.000916834
0.00161438
0.00126073
-0.00198781
0.000772193
-0.002078
0.000382381
-0.00204164
0.000146626
-0.00197855
2.8438e-05
-0.00193791
5.27318e-22
-2.33434e-20
7.98944e-18
-2.53999e-16
7.46417e-15
-2.16574e-12
-1.42843e-10
-2.08363e-09
-9.70784e-09
-3.47872e-07
2.08907e-07
-1.45407e-05
-8.31757e-05
-0.000134375
-0.000177498
2.62065e-06
-0.000131866
0.000398831
9.64266e-06
0.0005454
0.00028851
0.000744417
0.000556236
0.00101349
0.000905641
0.00128027
0.00125095
0.00162561
0.00165522
-0.0020201
0.00107211
-0.00228773
0.000536393
-0.00223201
0.000208927
-0.00210394
4.6651e-05
-0.00199676
-2.46762e-05
-0.00191323
7.72528e-23
-7.08551e-21
9.42762e-19
-6.6148e-17
-5.73064e-15
-5.60838e-13
-5.07872e-11
-7.27387e-10
6.74618e-09
-1.71616e-07
1.11637e-06
-1.01787e-05
-5.69642e-05
-9.03534e-05
-5.66504e-05
0.000164058
0.000102907
0.000242887
0.000312156
0.000504639
0.000528289
0.000706034
0.000863692
0.000985093
0.00120082
0.00119386
0.00168269
0.00145591
0.000481915
-0.00175928
0.000480898
0.000498427
0.000497344
0.00131277
-0.00226076
0.000658355
-0.00240969
0.000242766
-0.00226585
4.69342e-05
-0.00210422
-5.39407e-05
-0.00196749
-6.30943e-05
-0.00185013
6.17377e-24
-1.6926e-21
4.72304e-20
-1.54482e-17
-2.10455e-15
-1.4795e-13
-1.30298e-11
-2.58467e-10
8.89634e-09
-8.8791e-08
1.77033e-06
-7.59744e-06
-9.44289e-06
-2.52883e-05
0.000138567
4.80831e-05
0.000297712
0.000314169
0.000502625
0.000458478
0.000775846
0.000703166
0.00114562
0.000881141
0.00151354
0.00104078
0.00209783
-9.43008e-07
0.000334707
-0.00034931
0.000497461
0.000396716
-0.00194886
0.000398901
0.000354662
0.000352075
0.00033543
-0.000350162
0.000494687
-6.12394e-07
0.000293897
0.00053985
0.000295466
0.000536696
0.000732441
-0.00233484
0.000200586
-0.00236751
-2.45114e-06
-0.00221647
-0.000106993
-0.00205116
-0.000140379
-0.00189021
-9.70617e-05
-0.00175305
-2.16128e-25
-3.58467e-22
-6.43849e-21
-3.54689e-18
-2.54192e-16
-3.92001e-14
-1.25108e-12
-8.98357e-11
6.20844e-09
-4.60024e-08
2.08927e-06
-4.8692e-06
6.25194e-05
-5.57749e-05
0.000258355
0.000123726
0.000488156
0.000275323
0.00068578
0.000401906
0.00107711
0.000657804
0.00136896
0.000650497
0.00190382
-0.000229165
-0.000230407
0.000807261
0.000581072
0.000575302
0.00059243
0.000590696
-1.14003e-06
-0.000373279
0.000421825
-3.96985e-07
0.000246857
-0.000285795
0.000536796
-0.00178165
0.000565278
-0.000371948
0.000419547
-2.60206e-07
-0.000363737
0.00034538
-0.000360862
0.000340729
0.00024568
-0.000283466
0.000532077
-9.41985e-08
0.000557636
0.000551874
-4.07355e-05
-0.00209352
-0.000168192
-0.00220177
-0.000211597
-0.00211186
-0.000231998
-0.00195955
-0.000199729
-0.00178754
-0.000120622
-0.00163243
-1.88532e-25
-7.36626e-23
9.01481e-22
-8.00723e-19
1.05841e-16
-1.01738e-14
6.68669e-13
-3.02411e-11
2.92081e-09
-1.75931e-08
2.44315e-06
-3.86536e-06
9.26151e-05
-3.94215e-05
0.000435219
8.59099e-05
0.000677567
0.000116033
0.000971653
0.00044571
0.0012892
0.000380054
0.0016394
0.000505043
0.00055373
0.000553292
0.000550783
0.000548233
2.56636e-07
0.000106087
-0.000125803
0.000600532
0.00010532
-0.000126114
0.000596353
-4.37854e-07
0.000100019
0.000598936
9.8197e-05
0.000597382
-1.04968e-06
-0.000318432
0.000455512
9.28287e-07
0.000164262
-0.000184205
0.000159041
0.000112808
0.000159822
0.000124139
-0.00136597
-0.00045612
0.000321494
0.000319758
-0.0010711
-1.00333e-05
2.02602e-06
0.000140169
0.000138589
-0.000315501
0.000450532
-4.48362e-07
0.00034889
0.000344538
0.000164707
-0.00018329
0.000157551
0.000113544
0.000158022
0.000122472
1.23293e-06
0.000167864
0.0001303
0.000165455
0.000131244
0.000166324
0.000131743
0.00016347
0.000130163
-0.000459473
-0.00180223
-0.000395216
-0.00201815
-0.000343096
-0.00200077
-0.00031353
-0.00184576
-0.00024457
-0.0016636
-0.000141083
-0.00149136
-2.63689e-26
-1.44157e-23
1.75979e-21
-1.85992e-19
6.02774e-17
-2.38747e-15
4.63563e-13
-8.66207e-12
9.90833e-10
-1.00816e-08
2.77566e-06
-3.23077e-06
0.000132653
-5.90049e-05
0.000590581
-5.87746e-05
0.000852511
0.000189727
0.00122764
0.000178072
0.00149119
0.000266849
0.000466749
0.000465194
0.000473598
0.000472054
-8.97853e-08
7.51544e-05
0.000578684
7.36742e-05
0.000577725
-5.67163e-08
5.12429e-05
0.000574751
4.95227e-05
0.000572328
1.03342e-06
3.23704e-05
-2.1396e-05
-8.32345e-06
0.000124043
-1.68571e-05
0.000174067
0.000131436
0.000179309
4.87933e-06
3.18806e-05
-2.14771e-05
-8.03254e-06
-1.67827e-05
0.000123617
0.000174152
0.000130729
0.000178115
5.18494e-06
6.55642e-07
1.63014e-05
0.000130062
0.000174596
0.000131914
0.000177825
1.63253e-05
0.000130248
0.000174186
0.000131897
0.000177261
4.26904e-07
-0.000193346
0.000136078
9.50974e-05
0.000135247
9.78052e-05
-2.10685e-05
8.09669e-06
1.49011e-07
1.87814e-05
0.000153083
-7.72638e-06
1.75509e-05
-1.68831e-05
0.000119867
-4.06671e-09
-2.05541e-05
0.000151585
1.58604e-05
0.000133926
-0.000966483
-0.000858394
-0.000689391
-0.000267347
-0.000250418
-0.000170197
-0.000148328
2.42734e-07
0.000144216
-8.85318e-05
-6.59557e-05
0.000155822
-9.86521e-05
-5.49008e-05
-2.3886e-06
0.000163636
0.000123138
0.000167316
0.00012471
-0.000193583
0.000134973
9.57962e-05
0.000134168
9.63153e-05
-9.96295e-07
0.000104477
5.51464e-05
9.00408e-05
7.05127e-05
0.00010292
5.80796e-05
8.88651e-05
6.74104e-05
-2.00637e-05
7.8295e-06
1.81051e-05
0.000151829
-7.42029e-06
1.71688e-05
-1.69972e-05
0.000120793
-1.96733e-05
0.000150208
1.56826e-05
0.000131787
1.79007e-05
1.16007e-05
3.91258e-07
0.000156753
-1.51069e-05
-1.64733e-05
0.000140485
3.19514e-07
0.000159608
0.000142232
1.76028e-05
1.15784e-05
0.00015564
-1.49409e-05
-1.63346e-05
0.000141541
0.000158419
0.00014109
-0.000664363
-0.00153308
-0.000498464
-0.00186278
-0.000439278
-0.00187502
-0.000375677
-0.00171465
-0.000283242
-0.00152145
-0.000165696
-0.00132567
1.51394e-28
-2.78918e-24
7.47089e-22
-4.18979e-20
1.37986e-17
-4.86464e-16
1.43963e-13
-3.14482e-12
3.62626e-10
-4.70555e-09
2.40316e-06
-2.70187e-06
0.000144448
-8.80321e-05
0.00063898
-4.26476e-05
0.00108548
5.61686e-06
0.00140009
7.21777e-05
0.000414943
0.000414523
0.000428706
0.000427686
6.74716e-08
1.29728e-05
0.000504952
1.22186e-05
0.000502566
2.33821e-07
-1.37994e-06
0.000487717
-7.86485e-07
0.000485293
1.39053e-06
3.95273e-06
0.000125563
0.000168918
0.000126847
0.000168349
3.94901e-06
0.000126689
0.000168642
0.000128217
0.000167953
1.59857e-06
-6.48806e-06
0.000122033
0.000163415
0.000129049
0.000169089
-6.91053e-06
0.000123265
0.000162575
0.000130452
0.000168474
-7.77536e-07
-9.37467e-06
-5.75667e-06
0.000139952
-8.78154e-07
-8.8881e-06
0.000133394
-1.44377e-05
-4.63441e-07
0.000179956
8.2013e-06
-5.11318e-06
-9.7615e-06
0.000136936
5.94873e-08
-1.03896e-05
0.000170072
8.0031e-08
6.09428e-07
0.000162937
-1.52181e-06
-8.83485e-06
0.000135115
-1.21656e-07
-9.33862e-06
-5.85609e-06
0.000138933
-1.47438e-05
9.01464e-06
0.000179296
-4.95268e-06
-1.00804e-05
0.000136424
-1.07474e-05
0.000169225
9.75895e-07
0.000161186
-5.82621e-06
1.08445e-05
-1.19234e-05
0.000136967
8.59707e-06
1.2959e-07
-6.57887e-06
0.000166623
-5.7017e-06
0.000138698
9.37073e-08
0.000170205
-5.98931e-06
1.11132e-05
-1.21257e-05
0.00013725
8.83507e-06
-6.89174e-06
0.000166383
-5.69346e-06
0.000138623
0.000169749
2.27875e-05
7.6683e-06
-3.13031e-07
-2.12269e-05
0.000127162
-6.35486e-06
-1.58725e-05
0.000100442
6.4283e-09
0.000131119
-1.31382e-05
0.000102739
-9.02432e-06
-1.04144e-06
5.42928e-09
4.55973e-06
0.000158583
7.77857e-07
8.21532e-07
2.04732e-06
0.00011622
-1.04465e-07
-1.03538e-05
0.000153815
3.00364e-06
0.000130703
-0.000603764
-0.00102683
-0.000301676
-0.000340507
-0.000328097
-0.000296722
-0.000277746
2.68412e-06
6.24946e-05
-3.90672e-05
-0.000293256
6.1871e-05
-3.46392e-05
-0.000274735
2.39485e-06
-0.000198525
-0.000182692
-3.32043e-06
-3.48236e-06
7.40605e-06
-3.90795e-05
-1.20989e-05
-2.34739e-05
8.12834e-06
3.11703e-06
-3.06582e-06
-3.62079e-05
-1.04188e-05
-2.20134e-05
1.03677e-05
-2.18453e-06
-4.98545e-06
2.38108e-05
2.94089e-05
-3.3827e-05
4.23934e-05
6.2798e-06
3.82718e-05
2.05024e-05
-3.36281e-06
2.42907e-05
3.03806e-05
-3.44906e-05
4.32092e-05
5.619e-06
3.92986e-05
2.0698e-05
2.21687e-05
7.66749e-06
-2.12454e-05
0.000126069
-6.44627e-06
-1.57671e-05
0.000101012
0.000130223
-1.20974e-05
0.000100313
-2.50645e-05
1.41303e-05
-6.08646e-07
9.47926e-05
-1.32717e-05
6.83027e-06
5.66024e-05
-5.00784e-07
7.60327e-05
7.83352e-05
-2.53965e-05
1.28729e-05
9.359e-05
-1.22595e-05
7.14264e-06
5.98336e-05
7.4999e-05
7.53285e-05
-8.42678e-06
-1.14978e-06
4.02545e-06
0.000157385
1.01918e-06
4.49975e-07
2.4557e-06
0.000116868
-9.48721e-06
0.000152183
2.8091e-06
0.000128279
2.49846e-06
2.43752e-07
0.000159159
0.000138846
2.82111e-06
0.000158064
0.000137885
-0.000689537
-0.00134201
-0.000578222
-0.00172384
-0.000518316
-0.00173238
-0.000433064
-0.00156483
-0.000325972
-0.00136117
-0.000199975
-0.00112569
5.24951e-28
-4.5402e-25
1.3853e-22
-9.40088e-21
2.33944e-18
-1.14078e-16
2.32678e-15
-8.72454e-13
4.71518e-11
-1.37264e-09
1.33413e-06
-1.60636e-06
0.000117129
-7.36884e-05
0.000708565
-0.000149718
0.00124249
-0.000112465
0.000381194
0.000380867
0.000411155
0.000411588
2.04485e-07
-1.12703e-05
0.000424629
-1.04734e-05
0.000424414
-9.82649e-08
-2.85161e-05
0.00044605
-2.84206e-05
0.000445535
1.5549e-06
-2.26955e-05
0.000110498
0.000147264
0.000113383
0.000148422
-2.28279e-05
0.000111401
0.000146476
0.00011446
0.000147709
1.85345e-06
-3.70092e-05
0.000109296
0.000141532
0.000107991
0.000141387
-3.88933e-05
0.000111159
0.000141118
0.000109959
0.000141002
-6.04548e-06
-1.45118e-05
0.000134197
-8.42505e-06
1.65473e-07
0.000164537
-6.55348e-06
-1.34597e-05
0.000132344
9.5092e-08
-6.47579e-06
0.000159716
-6.20081e-06
-1.48878e-05
0.000135652
-8.70596e-06
0.000164421
-6.38082e-06
-1.39386e-05
0.000133649
-6.63749e-06
0.000159609
-7.27548e-06
1.60562e-05
-1.59936e-05
0.00012925
6.84027e-06
1.11737e-07
-8.97749e-06
0.000158144
-6.55684e-06
0.000138207
7.07173e-08
0.000162846
-7.19867e-06
1.66629e-05
-1.65911e-05
0.000130392
7.10019e-06
-9.35881e-06
0.000157738
-6.39126e-06
0.000139567
0.000162605
-5.05543e-07
4.62845e-06
2.26937e-07
-2.80956e-05
-3.44011e-05
-8.2196e-08
-7.55069e-08
1.17649e-05
4.1653e-07
-1.17298e-05
-5.70652e-10
-1.15854e-05
-4.75951e-07
4.67868e-06
3.08776e-07
-2.78366e-05
1.22786e-05
-3.4407e-05
5.2409e-07
-1.17647e-05
-1.16535e-05
7.44276e-07
1.12432e-05
-1.15196e-05
8.84113e-06
-3.05484e-08
-8.49341e-06
4.65218e-07
-1.46809e-08
6.84459e-07
1.13946e-05
-1.18956e-05
8.87576e-06
-8.54885e-06
4.70011e-07
1.23192e-05
7.89279e-07
-3.73216e-07
-1.39228e-05
0.000128336
7.85871e-07
6.8807e-06
9.48224e-05
-8.87351e-08
0.000133943
1.74687e-05
9.29406e-05
3.16662e-06
9.65634e-07
-1.01238e-08
-7.21858e-06
-1.61219e-06
-9.13475e-06
1.08902e-05
2.32504e-08
2.37831e-06
-1.13913e-05
-0.000414976
-0.000878305
-7.00926e-05
-0.000314169
-0.000310234
-0.000321489
-0.000311337
2.17135e-06
7.71114e-06
1.49064e-05
-0.000365297
2.72315e-06
2.36746e-05
-0.000352323
1.14157e-06
-0.000329219
-0.000308287
1.61445e-06
-2.81207e-05
3.82342e-05
-9.50983e-05
-6.33411e-05
-8.64314e-05
-6.00965e-05
-1.92905e-05
2.7266e-05
-8.70518e-05
-5.79364e-05
-7.9937e-05
-5.60674e-05
-6.77049e-07
-6.10151e-05
-3.68845e-05
-7.33002e-05
-4.73345e-05
-5.73226e-05
-3.51009e-05
-6.82324e-05
-4.50594e-05
-1.49935e-05
-2.96862e-05
3.31112e-05
-2.75111e-05
-1.39273e-05
-5.31392e-07
2.52195e-05
-3.79052e-05
-1.13671e-05
-3.24336e-05
-9.35945e-06
-6.34052e-07
-3.42666e-06
-1.31053e-05
-1.41283e-05
-2.81639e-05
3.16359e-05
-2.55516e-05
-1.2403e-05
2.4086e-05
-3.67616e-05
-1.03484e-05
-3.14651e-05
-8.36388e-06
-1.99659e-06
-1.1021e-05
-1.27045e-06
3.02212e-05
-3.94968e-05
3.9955e-05
-9.9058e-06
-2.7009e-05
5.96902e-05
3.09438e-06
-4.572e-07
3.88246e-05
-3.76379e-07
-6.89213e-06
1.09596e-05
-6.2611e-07
3.16735e-05
-7.43017e-07
1.84391e-05
6.8952e-05
-7.40091e-07
3.00953e-05
-4.02737e-05
4.1299e-05
-8.2381e-06
-2.68219e-05
6.0403e-05