/*--------------------------------*- C++ -*----------------------------------*\
| =========                 |                                                 |
| \\      /  F ield         | OpenFOAM: The Open Source CFD Toolbox           |
|  \\    /   O peration     | Version:  5.x                                   |
|   \\  /    A nd           | Web:      www.OpenFOAM.org                      |
|    \\/     M anipulation  |                                                 |
\*---------------------------------------------------------------------------*/
FoamFile
{
    version     2.0;
    format      ascii;
    class       volScalarField;
    location    "1.2";
    object      alpha.water;
}
// * * * * * * * * * * * * * * * * * * * * * * * * * * * * * * * * * * * * * //

dimensions      [0 0 0 0 0 0 0];

internalField   nonuniform List<scalar> 
12160
(
1
1
1
1
1
1
1
1
1
1
1
1
1
1
1
1
1
1
1
1
1
1
1
1
1
1
1
1
1
1
1
1
1
1
1
1
1
1
1
1
1
1
1
0.999818
0.641662
1
1
1
1
1
1
1
0.99806
0.672784
0.0287308
1
1
1
1
1
1
0.999997
0.995428
0.661916
0.0300561
0.00072397
1
1
1
1
1
1
0.999992
0.991119
0.641124
0.0391749
1.69199e-05
4.30615e-06
1
1
1
1
1
1
0.999992
0.988088
0.617643
0.0433031
8.82417e-05
1.94443e-07
2.15507e-09
1
1
1
1
1
1
0.999997
0.988966
0.612123
0.0451001
0.000156057
7.90606e-08
1.46913e-12
7.2197e-14
1
1
1
1
1
1
1
0.992959
0.628887
0.0510551
0.000292517
1.21408e-07
4.63086e-12
1.7219e-15
1.09098e-18
1
1
1
1
1
1
1
0.997193
0.661441
0.0635019
0.000481035
3.6721e-07
1.26455e-11
1.02142e-16
1.24213e-22
1
1
1
1
1
1
1
0.999666
0.69419
0.0844588
0.00084297
8.75522e-07
6.99737e-11
3.83392e-16
1.53256e-21
1
1
1
1
1
1
1
0.999999
0.714792
0.112314
0.00155645
2.15347e-06
2.18133e-10
2.30126e-15
6.98101e-21
1
1
1
1
1
1
1
1
0.719608
0.135999
0.00284816
5.12503e-06
6.93924e-10
7.24823e-15
5.26111e-20
1
1
1
1
1
1
1
1
0.706739
0.143383
0.00453959
1.13106e-05
1.8685e-09
2.49829e-14
1.8449e-19
1
1
1
1
1
1
1
1
0.675303
0.137029
0.00562123
2.05881e-05
4.59757e-09
6.74446e-14
7.26955e-19
1
1
1
1
1
1
1
1
0.631202
0.11868
0.00543801
2.88055e-05
9.02687e-09
1.69823e-13
2.03702e-18
1
1
1
1
1
1
1
1
0.579473
0.0958837
0.00411654
2.89503e-05
1.37473e-08
3.37612e-13
5.45536e-18
1
1
1
1
1
1
1
1
0.524731
0.0738196
0.00257238
1.82982e-05
1.4059e-08
5.28731e-13
1.13368e-17
1
1
1
1
1
1
1
1
0.470697
0.0547501
0.00146772
8.30754e-06
7.09143e-09
5.51029e-13
1.87145e-17
1
0.999999
1
1
1
1
1
1
0.420205
0.0395688
0.000789476
3.22714e-06
2.22216e-09
2.73254e-13
2.00257e-17
1
1
1
1
1
1
1
1
0.375302
0.0282671
0.000409805
1.13555e-06
5.3479e-10
8.16063e-14
9.83665e-18
1
1
1
1
1
1
1
1
0.337346
0.020306
0.000211779
3.77334e-07
1.09378e-10
1.80649e-14
2.81596e-18
1
1
1
1
1
1
1
1
0.307146
0.0149694
0.000112118
1.24637e-07
2.11142e-11
3.39731e-15
5.83081e-19
1
1
1
1
1
1
1
1
0.285093
0.0115617
6.28729e-05
4.32529e-08
4.57543e-12
6.39968e-16
1.04333e-19
0.999999
0.999999
1
1
1
1
1
1
0.271268
0.00951093
3.88297e-05
1.67111e-08
1.37598e-12
1.46493e-16
1.96585e-20
0.999999
0.999999
0.999999
1
1
1
1
1
0.265537
0.00840654
2.72037e-05
7.64113e-09
4.836e-13
4.11136e-17
4.39954e-21
1
0.999999
0.999999
0.999999
1
1
1
1
0.26755
0.00799752
2.18735e-05
4.33478e-09
2.05666e-13
1.32754e-17
1.12019e-21
1
1
1
0.999999
0.999999
1
1
1
0.277062
0.0081608
2.01315e-05
3.09808e-09
1.1138e-13
5.28899e-18
3.33278e-22
1
1
1
1
0.999999
0.999999
1
1
0.293672
0.00890712
2.09179e-05
2.73746e-09
7.79822e-14
2.75017e-18
1.2539e-22
1
1
1
1
1
1
1
1
0.316882
0.0103384
2.4411e-05
2.9157e-09
6.85589e-14
1.8933e-18
6.31442e-23
1
1
1
1
1
1
1
1
0.346066
0.0126528
3.19075e-05
3.71058e-09
7.3486e-14
1.65979e-18
4.29706e-23
1
1
1
1
1
1
1
1
0.380456
0.0161374
4.61788e-05
5.63488e-09
9.51505e-14
1.78927e-18
3.76469e-23
1
1
1
1
1
1
1
1
0.419143
0.0211358
7.27304e-05
1.01611e-08
1.48753e-13
2.35075e-18
4.07848e-23
1
1
1
1
1
1
1
1
0.461077
0.0280065
0.000121361
2.12334e-08
2.81647e-13
3.77051e-18
5.41504e-23
1
1
1
1
1
1
1
1
0.505073
0.0370694
0.000208413
4.92434e-08
6.29863e-13
7.45856e-18
8.85796e-23
1
1
1
1
1
1
1
1
0.549847
0.0485574
0.000360109
1.20958e-07
1.58759e-12
1.77359e-17
1.81687e-22
1
1
1
1
1
1
1
1
0.594058
0.0625578
0.000616727
3.02843e-07
4.40003e-12
4.81493e-17
4.56638e-22
1
1
1
1
1
1
1
1
0.636333
0.0789556
0.00103449
7.47749e-07
1.53127e-11
1.41428e-16
1.33377e-21
1
1
1
1
1
1
1
1
0.675206
0.0973601
0.00168239
1.78415e-06
5.82611e-11
4.69262e-16
4.25718e-21
1
1
1
1
1
1
1
1
0.709133
0.116977
0.0026301
4.0567e-06
2.17586e-10
1.78518e-15
1.45346e-20
1
1
1
1
1
1
1
1
0.737344
0.136693
0.00391874
8.69955e-06
7.61745e-10
7.04976e-15
5.50274e-20
0.760364
0.999998
1
1
1
1
1
1
1
0.155709
0.00552641
1.73861e-05
2.43758e-09
2.66555e-14
2.22905e-19
0.172573
0.78248
0.999453
0.999999
1
1
1
1
1
1
0.00731017
3.15528e-05
6.99807e-09
9.19691e-14
8.89679e-19
0.0087137
0.185841
0.784187
0.995923
0.999981
1
1
1
0.999999
0.999999
1
4.97588e-05
1.72112e-08
2.80746e-13
3.26643e-18
6.28861e-05
0.00936601
0.181075
0.757019
0.988905
0.999898
1
1
0.999999
0.999998
0.999999
0.999995
3.38432e-08
7.3139e-13
1.05088e-17
4.80138e-08
6.46761e-05
0.00805129
0.140424
0.699327
0.977476
0.999672
0.999999
1
0.999997
0.999998
0.999999
0.999996
0.999992
1.66705e-12
2.82361e-17
2.69782e-12
3.96575e-08
4.89945e-05
0.00457752
0.0905428
0.620089
0.961566
0.999328
0.999999
0.999999
0.999997
0.999999
0.999995
0.999999
0.999998
0.999999
6.13537e-17
9.9209e-17
1.67343e-12
2.81332e-08
2.40966e-05
0.00210115
0.0545904
0.537529
0.944571
0.999128
0.999999
0.999997
0.999999
0.999997
0.999995
1
1
1
1
5.86365e-17
1.13142e-12
1.21315e-08
9.09821e-06
0.0009812
0.0337248
0.468123
0.93383
0.999532
0.999998
0.999997
0.999999
0.999995
0.999997
1
1
1
0.999997
1
3.81602e-17
4.39829e-13
3.86709e-09
3.30042e-06
0.000509398
0.0224491
0.421181
0.938435
0.999975
0.999998
0.999997
0.999996
0.999995
1
1
1
1
0.999999
0.999993
0.999999
1.35666e-17
1.31416e-13
1.13693e-09
1.28338e-06
0.00029352
0.0155573
0.410133
0.952482
0.999998
0.999998
0.999998
0.999995
0.999995
1
1
1
1
1
0.999996
0.999993
0.999998
3.71426e-18
3.58915e-14
3.37997e-10
5.43048e-07
0.000165228
0.0118253
0.408061
0.976442
0.999999
0.999999
0.999998
0.999995
0.999998
1
1
1
1
1
1
1
1
1
0.999993
0.999993
0.999991
9.26488e-19
9.55141e-15
1.04495e-10
2.22359e-07
8.74214e-05
0.0087436
0.429816
0.949807
0.999999
0.999999
0.999998
0.999995
1
1
1
1
0.999993
1
1
1
1
1
1
1
1
1
0.999994
0.999993
0.999984
2.18459e-19
2.58521e-15
3.12727e-11
8.20949e-08
4.30122e-05
0.00661931
0.380088
0.952024
0.999997
0.999999
0.999998
0.999998
1
1
1
1
1
1
1
0.999926
0.999933
1
1
1
1
1
1
0.999999
1
1
0.999998
0.999996
0.999995
5.08892e-20
6.84762e-16
8.67621e-12
2.77912e-08
1.68798e-05
0.00529984
0.345819
0.931353
0.999157
0.999999
0.999998
0.999999
1
1
1
1
1
1
1
1
1
1
1
1
1
0.999843
0.999282
0.999993
1
1
0.99999
1
1
1
1
1
1
1
1
1
1
1
1
1
1
1
1
1
1
1
0.999999
0.999999
1.10112e-20
1.8727e-16
2.07612e-12
8.93185e-09
8.49733e-06
0.00382013
0.273676
0.87229
0.998562
0.999998
0.999998
1
1
0.999999
1
1
1
1
1
1
1
1
1
1
1
1
1
1
1
1
1
1
1
1
1
1
1
1
1
1
1
1
1
1
1
1
1
0.999915
0.997887
0.996913
0.998932
0.999603
0.999921
1
1
1
1
1
1
1
1
1
1
1
1
1
1
1
1
1
1
1
1
1
1
1
1
1
1
1
1
0.999999
1
2.2997e-21
4.85476e-17
5.09458e-13
2.84857e-09
3.62689e-06
0.00213732
0.180203
0.8096
0.993386
0.99988
1
1
0.999998
0.999998
0.999998
1
0.999998
1
1
1
1
1
1
1
1
1
1
1
1
1
1
1
1
1
1
1
1
1
1
1
1
1
1
1
1
1
1
1
1
1
1
1
1
1
1
1
1
1
1
1
1
1
0.999995
0.998844
0.995564
0.995564
0.995564
0.995831
0.998066
0.99856
0.999802
0.999891
1
1
1
1
0.999997
1
1
1
1
1
1
1
1
1
1
1
1
1
1
1
1
1
1
1
1
1
1
1
1
1
1
1
1
1
1
1
1
1
1
1
1
1
3.94438e-22
1.44979e-17
1.13026e-13
7.48488e-10
9.59125e-07
0.0010435
0.101586
0.704738
0.973922
1
1
1
1
0.999998
0.999999
0.999998
0.999998
0.999998
0.999999
0.999998
0.999999
1
1
1
1
0.999998
0.999999
0.999998
0.999999
1
1
1
1
1
1
1
1
1
1
1
1
1
1
1
1
1
1
1
1
1
1
1
1
1
0.999847
0.999031
0.997163
0.996921
0.995715
0.996583
0.996329
0.995741
0.99638
0.992773
1
0.997149
1
0.993103
1
0.998082
1
0.999868
1
0.998962
1
0.999953
1
0.999461
1
0.999983
1
0.999997
1
0.999992
1
1
1
1
1
1
1
1
1
1
1
1
1
1
1
1
1
1
1
1
1
1
1
1
1
1
1
1
0.999999
7.95633e-23
4.08411e-18
2.14659e-14
1.12912e-10
1.91009e-07
0.000463658
0.0474933
0.534365
0.911294
1
1
1
1
1
1
0.999985
1
0.999998
0.999998
0.999998
0.999999
1
1
1
1
1
1
0.999998
0.999999
1
1
1
1
1
1
1
1
1
0.999999
0.999992
0.999679
0.999822
0.998504
0.999421
0.998757
0.998191
0.997186
0.993184
0.999138
0.992735
0.998126
0.992566
0.999134
0.992573
0.998727
0.992782
0.999902
0.992744
0.999201
0.993105
1
0.992829
0.99949
0.993635
0.999688
0.995755
1
0.994062
0.999733
0.996642
1
0.999772
1
0.998703
1
0.999894
1
0.999212
1
1
1
1
1
1
0.999999
1.30303e-23
1.28291e-18
1.99415e-15
1.26595e-11
9.56578e-09
0.000143235
0.0170514
0.299903
0.881246
0.881287
0.654864
0.654897
0.999152
0.999245
0.987315
0.987319
1
0.999998
1
0.999999
1
1
1
0.999979
1
0.999936
1
0.999988
1
0.999781
1
0.999902
1
0.999998
1
0.999999
1
1
1
1
0.999998
1
1
1
1
1
1
1
1
1
0.999995
0.999994
0.999946
0.999899
0.999655
0.9993
0.998673
0.997369
0.996129
0.992701
0.997853
0.9929
0.996995
0.99256
0.997886
0.993303
0.997326
0.993399
0.999374
0.993566
0.998861
0.993734
0.999445
0.993883
0.998899
0.992704
0.999645
0.992867
0.999684
1
1
1
1
1
0.999998
2.84664e-24
2.08543e-19
1.62825e-16
5.73955e-13
3.40671e-10
1.74653e-05
0.00454329
0.105866
0.828909
0.829564
0.485293
0.485704
0.999245
1
1
0.999214
0.999338
1
1
0.99932
1
1
1
0.999998
1
1
1
0.999989
1
0.999988
1
0.999645
1
0.999911
1
0.999608
1
0.99997
0.999998
1
0.999994
1
1
1
0.999999
0.999996
0.999998
0.999998
0.999998
0.999999
0.999999
0.999894
0.999698
0.999817
0.99877
1
0.996024
0.999559
0.998223
1
0.994578
0.998593
0.992239
0.997789
0.993032
0.997847
0.992039
0.997706
0.992053
0.992425
0.996626
0.992604
0.99673
0.992545
0.996711
0.992693
0.99656
0.992899
0.999383
0.993454
0.998865
0.99301
0.999393
0.99367
0.998773
1
1
1
1
1
1.54945e-25
3.58544e-20
7.87069e-18
2.59433e-12
4.59161e-07
1.28529e-05
0.000508
0.0500348
0.0500392
0.0018085
0.00180492
0.715394
0.885558
0.582767
0.746793
0.714997
0.88793
0.582161
0.747614
0.279472
0.279859
0.999311
1
1
0.999363
0.999357
1
1
0.99938
0.839305
0.97943
0.932059
0.999219
0.838434
0.980144
0.931923
0.999245
1
0.999686
1
0.999944
1
0.999654
1
0.999808
1.00001
1
1
0.999995
0.99999
0.99999
0.999991
0.999983
0.999982
0.999893
0.999653
1
1
0.999895
0.999185
1
1
0.999518
0.999555
0.998206
0.999985
0.99662
0.998926
0.997037
0.999878
0.995437
0.996298
0.992218
0.995358
0.993252
0.995177
0.992026
0.99532
0.992436
0.991973
0.994044
0.991918
0.994051
1
1
1
1
2.55391e-26
3.93276e-20
5.87431e-16
2.70949e-09
1.18734e-05
0.000116119
0.000158168
0.000158684
3.9118e-19
2.14734e-19
0.017821
0.0178066
7.61036e-05
7.49554e-05
0.643964
0.862389
0.466518
0.612532
0.643621
0.864994
0.46633
0.614064
0.186604
0.0636956
0.0860309
0.152032
0.186777
0.0635001
0.086285
0.15213
0.999543
1
1
1
0.999585
1
1
1
0.830996
0.98351
0.900691
0.997653
0.830768
0.984362
0.900617
0.997734
1
1
1
0.999997
1
0.999989
0.999991
0.999991
1
1
1
1
1
1
0.999997
1
0.999998
1
1
1
0.999985
1
0.999843
1
0.999985
1
0.999916
1
0.999399
1
0.999267
1
0.998591
0.999973
0.999668
0.996201
0.999917
0.995007
0.998059
0.995112
0.999067
0.994044
1
1
1
2.07769e-28
1.57472e-17
6.80455e-12
1.841e-07
5.25364e-05
0.000314385
3.24622e-05
3.08365e-05
9.82616e-06
6.84067e-06
0.00394632
0.035641
0.00782045
0.000192258
0.00154448
0.0275156
0.0355717
0.0039346
0.0276004
0.00780978
0.000183828
0.00154111
1.31614e-05
1.31746e-05
5.54636e-05
4.00828e-05
1.31746e-05
1.31614e-05
5.5146e-05
3.96864e-05
0.565419
0.809609
0.413703
0.636951
0.56549
0.812703
0.414133
0.639103
0.0744982
0.0691649
0.0746489
0.0691212
0.999827
0.97145
0.999826
0.971403
0.726403
0.925637
0.726313
0.927776
1
1.00001
1
1
0.999995
0.999989
0.999996
0.999989
1
0.999991
1
0.999994
1
0.999997
1
0.999996
1
0.999997
1
0.999997
1
0.999994
1
0.999995
0.999998
1
0.999995
1
0.999993
1
0.999924
0.999942
1
1
0.999972
1
0.999942
0.999697
0.999999
0.999978
0.999043
0.99996
0.998311
0.999444
1
1
7.63903e-30
5.47262e-16
1.81881e-09
1.22515e-06
9.64017e-05
0.000338893
0.000161509
0.00032501
0.000324888
3.95791e-05
3.57007e-05
0.000131947
6.45551e-05
0.0109345
0.000487509
0.00250838
0.00786558
4.73407e-05
0.000370545
0.0109096
0.000478194
0.00785506
0.00250467
4.71276e-05
0.000374157
3.08352e-05
1.31614e-05
5.36445e-05
6.52012e-05
3.30201e-05
1.82661e-05
5.39224e-05
7.45186e-05
0.214433
0.337664
0.21471
0.338509
1
1
1
1
0.999999
0.999999
0.999994
0.999998
0.99999
0.999998
1
0.999996
1
0.999997
1
0.99999
0.999999
0.999995
0.999995
0.999999
0.999996
0.999999
1
0.999987
0.999987
0.999993
0.999987
0.999994
0.999997
1
1
0.999991
0.999996
1
1
0.99999
0.999994
0.999992
1
0.999992
1
1
1
0.999939
1
0.999972
1
0.999915
0.999974
1
1.1735e-38
2.98912e-13
2.721e-08
2.7459e-06
8.53804e-05
0.000425277
0.000256222
0.000386362
0.000381278
1.35897e-05
2.89033e-05
1.52436e-05
1.81459e-05
1.35957e-05
4.44329e-05
2.71588e-05
2.54798e-05
0.000168304
4.84078e-05
3.67542e-05
3.51099e-05
3.64221e-05
9.14377e-05
4.71116e-05
6.78282e-05
4.65974e-05
0.000188754
1
1
1
1
1
0.999999
0.999997
0.999999
0.999997
1
1
1
1
0.999999
1
0.999996
1
0.999991
0.999999
0.999993
0.999998
0.999997
0.999992
0.999999
0.999999
0.999993
0.999999
0.999987
0.999988
0.99999
0.999992
0.999987
0.999992
1
0.999998
1
0.999982
1.03498e-18
3.63521e-11
6.87911e-08
5.70576e-06
0.000243912
0.000258635
6.10443e-05
6.76201e-05
0.000195935
0.000109065
0.000356376
0.000284145
0.000168529
0.000255867
0.000672354
8.999e-05
0.000265904
0.000433424
0.000830311
0.000274725
0.000157882
0.000170219
0.00089435
0.000778199
0.000230495
0.000140265
0.00149425
0.000807719
0.000144915
0.000809179
0.000219725
0.00110676
1
1
1
1
0.999999
0.999996
0.999995
0.999999
0.999995
1
0.999997
1
0.999998
1
0.999999
1
0.999999
0.999999
0.999991
0.999999
0.999999
0.999998
0.999999
0.999991
0.999998
0.999995
0.999999
1.80962e-15
3.39381e-10
1.05952e-07
2.73477e-05
0.000335968
0.000257593
0.000154602
0.000122297
0.000540313
0.000366983
7.23682e-05
0.000153599
8.06668e-05
6.57567e-05
0.000878689
0.000405243
4.00214e-05
0.000240392
0.000107873
2.54176e-05
0.000325637
0.000205105
0.00280317
0.00210018
0.00496158
0.0024666
0.0027614
0.00264337
0.00528695
0.00341348
0.00262785
0.00152783
0.00366004
0.00163856
1
1
1
1
1
0.999997
1
0.999996
1
0.999999
1
0.999999
1
1
0.999998
1
0.999998
0.999999
1
1
0.999992
0.999999
0.99999
0.999998
0.999998
0.999999
0.99999
0.999997
0.999998
0.999999
0.999991
0.999997
1.01768e-13
3.59087e-10
1.40941e-06
8.86777e-05
4.11229e-05
3.68516e-05
2.14408e-05
0.000270976
0.000170052
0.00018722
0.000104849
0.000985296
0.000356938
2.06874e-05
0.000123361
8.8216e-05
2.20144e-05
0.00141086
0.000447892
1.98922e-05
0.000200341
0.000101193
1.8485e-05
0.00024092
0.000291408
0.000118397
0.000114586
0.000107435
0.000221045
5.47572e-05
8.96315e-05
1
1
1
0.999999
1
0.999996
0.999998
0.999997
1
1
0.999998
1
1
0.999999
1
1
1
0.999998
1
0.999999
0.999998
1
0.999998
1
1
0.999999
0.999998
0.999992
1
0.999998
1
0.999998
0.99999
0.999996
1.05613e-13
5.40522e-09
6.67694e-06
4.68453e-05
1.26082e-05
4.19277e-05
1.97049e-05
0.000130084
9.98444e-05
8.89456e-05
6.66296e-05
5.84958e-05
7.2e-05
2.46203e-05
0.000110082
6.071e-05
1.85884e-05
4.8118e-05
2.39416e-05
2.41613e-05
7.63503e-06
6.67504e-06
5.81521e-06
1.04234e-05
8.07912e-06
4.4047e-05
2.90759e-05
1.51513e-05
2.64619e-05
1
1
1
1
1
1
1
1
1
1
0.999997
1
1
1
1
1
1
0.999999
0.999998
1
1
0.999997
1
0.999999
1
0.999999
1
0.999997
0.999997
1
1
9.23525e-13
7.9131e-08
1.86719e-06
5.99358e-05
1.78112e-05
2.94014e-05
1.95535e-05
2.79188e-05
1.13658e-05
1.41151e-06
7.20966e-06
1.02219e-05
1.52933e-06
2.36853e-06
1.35191e-05
1.69315e-06
1.03779e-06
4.77244e-06
1.02806e-06
2.68328e-06
7.00132e-06
2.68049e-06
2.81104e-06
1.00757e-06
3.50315e-06
1.00757e-06
1.16289e-06
1.13658e-05
1.1707e-05
1.09776e-06
1.69958e-06
1
1
1
0.999999
1
1
1
1
0.999999
1
1
1
1
1
1
1
1
1
0.999998
1
0.999998
1
1
1
1
0.999997
1
0.999999
1
2.97852e-11
7.96566e-09
1.17092e-07
2.14216e-06
9.87625e-06
1.42005e-07
5.79304e-09
2.50112e-09
2.19038e-05
2.73585e-06
0.000113684
2.1441e-05
1.00757e-06
9.67101e-06
2.36364e-05
3.75736e-05
5.23144e-06
4.72126e-05
3.63851e-05
7.50511e-06
1.06652e-06
1.05665e-05
5.14201e-06
2.50318e-05
2.68834e-05
5.55372e-06
1.55483e-05
0.000104798
2.49001e-06
9.04059e-06
1
1
1
0.999999
1
1
1
1
1
1
1
1
1
0.999999
0.999999
1
1
0.999995
1
1
1
1
1
0.999995
1
0.999995
0.999999
1
1
0.999998
1
4.43112e-12
7.67761e-09
1.11868e-07
1.03636e-07
2.09869e-06
9.21126e-08
2.50112e-09
2.49474e-09
2.31806e-06
1.19539e-05
7.58667e-05
4.82868e-06
0.000102409
7.83144e-06
1.48502e-07
7.24489e-07
4.21939e-06
1.84942e-05
4.79397e-05
1.00757e-06
1.56749e-05
5.23682e-05
1.31186e-05
1.92377e-05
0.000123006
5.16761e-05
1.93758e-05
2.28371e-05
3.68001e-05
0.00018992
6.07672e-06
2.37565e-05
0.999999
0.999999
0.999998
0.999999
0.999999
0.999996
0.999999
0.999995
1
1
1
0.999998
1
1
1
1
1
1
0.999995
0.999998
0.999999
1
1
1
1
1
0.999995
0.999999
0.999995
0.999997
1.00097e-11
1.56057e-06
3.21068e-06
1.35121e-06
1.5677e-07
1.9704e-07
6.41302e-06
2.1587e-05
6.72963e-06
2.05108e-07
2.86324e-08
6.1985e-09
2.51059e-05
1.5591e-05
9.91461e-05
0.000272223
4.93328e-05
1.97856e-05
3.62347e-05
2.86761e-05
5.73906e-05
9.60414e-05
0.000109458
0.000103632
0.000230706
0.000100675
4.75129e-05
3.60808e-05
0.999996
0.999996
0.999996
0.999999
1
0.999996
0.999996
0.999995
0.999999
1
1
1
1
1
0.999999
1
0.999991
0.999992
0.999999
1
1
0.999998
0.999997
1
1
1
1
1
1
0.999999
0.999999
1
3.7591e-09
1.49752e-05
5.01907e-06
4.40591e-06
1.47995e-05
1.37508e-05
1.32121e-05
1.9529e-06
3.64062e-06
9.51268e-06
3.38692e-05
8.60565e-07
4.43435e-06
5.50239e-06
2.54139e-05
1.32559e-06
9.41985e-07
4.62807e-06
2.63248e-06
3.57253e-05
5.44631e-05
8.20747e-05
1.31372e-05
4.70212e-06
1.82413e-05
3.1019e-05
1.43651e-06
2.4851e-06
5.25537e-06
9.2698e-05
2.20959e-05
7.56116e-05
2.69865e-05
0.000133509
9.90555e-05
0.000171389
0.000120987
0.999995
0.999996
1
1
1
0.999998
0.999995
1
0.999997
0.999998
1
0.999997
1
0.999999
1
1
1
1
0.999991
0.999993
0.999997
0.999999
0.999996
0.999998
1
1
1
1
5.38297e-07
1.47885e-05
3.14459e-05
1.30335e-05
3.12841e-05
3.27697e-05
3.26786e-05
4.27686e-05
1.29585e-05
7.01514e-05
8.08814e-05
4.20568e-06
3.56207e-05
9.68585e-07
6.58239e-08
1.59567e-06
3.30769e-07
2.92691e-06
1.74439e-06
1.58844e-06
2.72243e-06
0.000155186
6.26043e-05
0.000155067
0.000104299
2.53911e-05
5.2339e-05
2.25487e-06
2.38478e-06
6.46614e-06
2.11557e-06
4.61195e-06
7.00433e-06
1.45441e-06
2.79905e-06
0.999996
0.999998
0.999995
0.999995
0.999995
0.999993
0.999993
0.999998
1
0.999999
1
0.999997
1
0.999999
1
1
0.999999
0.999995
0.999999
0.999992
1
0.999997
1
0.999999
0.999994
1
0.999998
0.999998
1
0.999999
0.999997
1
0.999999
0.99999
0.99999
0.999993
0.999994
8.64705e-07
9.51831e-06
2.35808e-06
2.48279e-06
1.64585e-05
8.68761e-06
2.7206e-06
1.98314e-06
1.65665e-05
1.54649e-05
1.52172e-05
5.37076e-06
9.04633e-05
1.47557e-06
1.93946e-05
3.56834e-08
6.30014e-07
1.57701e-07
7.46159e-06
1.58613e-06
1.56923e-06
4.42985e-05
0.000143415
1.8169e-05
3.19062e-05
7.44583e-06
1.27093e-05
4.15949e-06
2.16058e-05
1.22116e-05
6.34627e-06
0.999996
0.999998
0.999995
0.999999
0.999995
0.999998
0.999994
0.999999
0.999998
1
1
0.999994
0.999999
0.999995
0.999999
0.999996
0.999999
0.999992
0.999999
0.999999
0.999995
0.999998
0.999994
0.999998
1
1
1
0.999999
0.99999
0.999998
0.99999
0.999998
0.999999
1
1
0.000744537
2.01411e-05
1.97482e-05
2.87063e-06
1.59721e-06
1.71642e-06
7.16187e-07
2.1768e-06
3.31e-05
2.85455e-06
1.71476e-06
1.86742e-06
9.29296e-07
1.95698e-06
3.31784e-05
3.56834e-08
3.56834e-08
3.08156e-07
1.84132e-06
2.52602e-06
1.28855e-06
1.1812e-05
1.25718e-05
5.21984e-06
7.80109e-06
1.50176e-05
4.60905e-06
0.999994
0.999998
0.999974
1
1
0.999974
1
1
0.999992
0.999996
0.999991
0.999994
0.999999
0.999994
0.999997
0.999995
0.999999
0.999992
0.999996
0.999999
0.999999
0.999996
0.999999
0.999996
1
0.999999
1
0.999992
0.999995
0.999998
1
0.000234458
0.000426273
0.00362321
0.000409891
0.00359064
2.86053e-05
1.30802e-07
8.45163e-07
2.6151e-07
2.00242e-07
1.47212e-07
1.32816e-06
0.00167334
2.88274e-05
1.366e-07
1.26774e-06
4.74493e-07
3.5529e-07
4.46322e-06
3.57926e-06
0.0016369
3.56834e-08
4.8678e-06
1.18874e-05
1.45214e-05
0.999994
0.999991
0.999988
0.999974
0.999988
0.999979
0.999983
0.999985
0.999975
0.999991
0.999986
0.999984
0.99999
0.999995
0.999995
1
0.999999
0.999993
1
0.999998
0.999996
1
0.999993
1
0.999996
1
0.999997
-2.02436e-31
0.00125262
3.53616e-06
0.00124273
3.45417e-06
0.00737675
0.00735522
0.0020365
1.30791e-07
1.20787e-05
0.000232625
1.30802e-07
5.30142e-07
1.30791e-07
1.23046e-06
1.30802e-07
2.78321e-07
7.18112e-06
0.00200551
1.30802e-07
1.22574e-05
0.000245944
1.30791e-07
9.69201e-07
2.52229e-06
2.70303e-06
4.52936e-07
8.66291e-06
1.34781e-05
0.999997
0.999993
0.999992
0.999993
0.999996
0.999976
0.999987
0.999981
0.999986
0.999979
0.99999
0.999994
0.999979
1
1
1
1
0.999994
0.999995
0.999997
0.999999
1
1
0.999999
1
4.61143e-13
3.61947e-06
3.03169e-06
3.37402e-06
3.20878e-06
0.002027
0.000118437
0.00201707
0.000109402
0.00647075
0.00644448
0.00347939
0.00152185
0.00318769
0.00298832
1.30802e-07
1.30802e-07
0.000122056
1.3079e-07
2.04958e-06
3.03065e-07
5.54413e-06
1.49908e-07
0.00340562
0.00146775
0.00311708
0.00293616
1.30791e-07
1.30791e-07
0.000129195
1.30802e-07
2.28241e-06
4.39848e-06
9.273e-06
8.58129e-07
0.999997
0.999993
0.999992
0.999998
0.999997
0.999993
0.999995
1
1
1
1
0.999999
0.999993
0.99999
0.999994
0.999992
1
0.999999
1
1
1
1
1
1
0.999999
1
0.999999
0.999999
0.999999
9.10262e-12
1.13964e-19
2.59193e-09
1.13964e-19
8.03917e-12
2.96004e-05
3.71216e-05
2.60794e-05
3.16409e-05
0.00203724
0.000182212
0.0020284
0.000174411
0.00566679
0.0063434
0.00587432
0.00647331
0.00569895
0.0062903
0.00593174
0.00643886
0.00390261
0.00166187
0.00188209
0.00398445
0.00380498
0.00159824
0.00183468
0.00389365
0.999997
0.999996
1
0.999988
0.999988
0.999997
0.999995
0.999999
0.999998
0.999998
0.999992
1
1
1
0.999999
1
1
1
0.999995
0.999997
1
0.999998
0.999998
1
1
1
0.999996
1
1
1
1
1
1
1
1
7.85212e-12
2.71381e-12
4.37643e-05
8.83286e-06
3.51722e-05
7.65582e-06
5.71402e-05
0.00012346
5.43937e-05
0.000117054
0.00257771
0.00276809
0.00326026
0.00190318
0.000359198
4.58048e-05
1.9385e-05
0.000127569
0.00262104
0.00276392
0.00331765
0.00190025
0.000355482
4.38676e-05
1.94092e-05
0.000123565
0.00667659
0.00648428
0.0070236
0.00652603
0.00667254
0.00642423
0.0071315
0.00646524
0.999997
1
1
0.999995
0.999995
0.999994
0.999996
0.999995
0.99999
1
1
0.999999
0.999998
0.999998
0.999986
0.999998
0.999987
0.999998
0.999981
0.999998
0.999983
1
1
1
1
1
1
1
0.999999
1.22232e-09
7.36922e-06
2.86771e-07
1.20505e-05
1.06885e-06
1.04382e-10
0.000173311
0.000177664
0.000164179
0.000172493
1.93511e-05
2.70247e-05
1.93669e-05
2.31894e-05
1.9161e-05
3.24108e-05
2.92925e-05
3.16339e-05
1.93702e-05
2.62757e-05
1.9385e-05
2.23728e-05
1.99167e-05
2.47142e-05
3.15984e-05
2.74917e-05
0.0025108
0.00361351
0.0039529
0.00227689
0.000535217
1.95372e-05
1.94092e-05
0.000146278
0.00249188
0.00357962
0.00401735
0.00228239
0.000539712
1.97982e-05
1.94362e-05
0.000145201
0.999997
0.999997
1
0.999991
0.999989
0.999987
0.999976
0.999965
0.999971
0.999965
1
0.999997
0.999999
0.999998
0.999999
0.999998
1
0.99999
1
0.999996
0.999999
0.999999
0.999999
0.999997
0.999999
0.99999
0.999993
0.999986
0.999993
0.999987
0.999993
0.99998
0.999993
0.999983
7.03838e-09
6.62156e-08
1.8225e-07
8.91484e-08
1.07792e-07
0.000237866
0.000164281
0.000234472
0.000175712
5.59055e-10
0.000124462
3.51068e-05
4.64346e-05
3.54682e-05
0.000240292
0.000165003
0.000281731
9.02813e-05
0.00010299
2.94676e-05
4.76199e-05
3.25064e-05
0.000193443
0.0001318
0.000281733
7.13389e-05
3.07493e-05
1.94092e-05
1.9385e-05
2.15071e-05
1.48592e-05
1.80307e-05
1.48593e-05
1.92543e-05
3.14553e-05
1.94362e-05
1.94092e-05
2.20602e-05
1.48593e-05
1.76666e-05
1.48592e-05
1.97121e-05
0.999992
0.999996
0.999998
1
0.999999
0.999999
0.999965
0.999993
0.999965
0.999997
1
1
1
1
1
0.999985
0.999987
0.999999
1
1
1
1
0.999995
0.999976
0.99998
0.999996
1
0.999994
0.999999
0.999998
0.999997
0.999997
0.999998
0.99999
1
0.99999
0.999998
0.999998
0.999996
0.999991
0.999997
0.99999
5.40103e-07
3.93031e-09
3.89277e-05
1.28635e-05
4.37949e-05
1.26808e-05
7.65313e-05
0.000148789
0.000154694
8.30389e-05
0.000177483
0.000216965
8.35447e-05
0.000220384
5.95964e-05
0.00012745
5.9876e-05
0.000137807
0.000119072
6.41358e-05
0.000132138
0.000168878
7.80401e-05
0.000219676
5.41725e-05
0.000114617
7.44085e-10
2.71449e-05
1.78906e-05
1.48592e-05
2.68834e-05
9.17572e-05
6.93764e-05
2.36715e-05
1.70765e-05
1.48592e-05
2.59708e-05
6.82244e-05
6.70822e-05
2.68143e-05
1.48593e-05
1.48592e-05
2.15744e-05
2.53986e-05
1.48592e-05
1.48592e-05
2.54185e-05
0.999991
0.999997
1
0.999998
0.999994
0.999994
1
1
1
0.999996
0.999991
0.999965
0.999965
0.999985
1
1
1
1
0.999984
0.999965
0.999965
0.999982
1
1
1
1
1
1
1
1
1
0.99999
0.999994
0.999999
1
1
1
1
1
0.999986
0.999989
1
7.83347e-08
8.12872e-06
3.08219e-07
7.67685e-06
3.16896e-07
2.9511e-09
0.000145225
6.76231e-05
0.000146069
6.6746e-05
2.52272e-05
1.48604e-05
6.939e-05
4.25624e-05
1.48609e-05
5.90146e-05
4.00882e-05
0.000114146
1.48615e-05
4.25605e-05
2.02375e-05
1.87381e-05
6.80948e-05
4.62659e-05
3.40466e-05
5.70962e-05
3.93398e-05
0.000110382
3.40667e-05
4.57527e-05
3.20916e-10
1.48592e-05
1.48592e-05
1.48592e-05
1.48593e-05
2.25559e-05
1.48592e-05
1.48592e-05
1.48592e-05
1.48592e-05
1.48592e-05
2.60189e-05
1.48592e-05
0.999996
0.999998
0.999999
1
1
0.999994
0.999994
1
1
1
1
1
1
1
1
1
1
1
1
1
1
1
1
0.999994
1
0.999999
1
0.999997
0.999965
0.999967
0.999989
1
0.999994
0.999994
0.999972
0.999973
0.999996
1
1
1
0.999994
0.999996
1
0.999999
0.999982
0.999994
0.999997
1.35063e-08
1.45722e-06
1.36164e-06
2.23807e-06
2.06134e-06
2.49855e-06
4.61362e-06
4.92687e-06
8.77504e-06
7.74142e-09
9.38775e-05
1.81215e-05
6.11026e-05
3.36886e-05
5.81424e-05
1.48273e-05
1.53934e-05
1.39086e-05
8.5339e-05
2.03142e-05
6.03175e-05
3.82657e-05
5.07316e-05
1.22037e-05
1.35547e-05
1.48725e-05
1.48599e-05
2.81572e-05
1.79801e-05
6.52119e-05
3.32243e-05
0.000106733
1.48595e-05
3.30037e-05
2.00795e-05
6.40115e-05
7.50509e-05
0.000108952
2.68608e-10
0.999999
0.999997
1
1
1
0.999996
1
1
1
0.999998
1
1
0.999999
1
1
1
1
1
1
1
1
1
1
1
1
1
1
0.999991
0.999998
0.999991
0.999999
0.999997
0.999975
0.999982
0.999995
1
0.999999
0.999998
0.999982
0.999989
0.999996
1
0.999999
3.27836e-06
2.27095e-08
3.33935e-05
3.29328e-05
4.12519e-05
3.97768e-05
4.60652e-06
2.10414e-06
2.5152e-05
1.54948e-06
2.84966e-05
9.81255e-06
1.00695e-05
0.000101215
1.5135e-06
5.33069e-05
1.14134e-05
3.64668e-06
6.20042e-05
5.98374e-06
8.25865e-05
9.44238e-06
1.53755e-05
0.000127391
5.52818e-06
8.68962e-05
2.24358e-08
5.3003e-05
2.76722e-05
5.92563e-05
1.01553e-05
2.58222e-05
2.10736e-06
5.48062e-05
4.02643e-05
9.45042e-05
1.56027e-05
2.96944e-05
4.88601e-06
9.54597e-12
1
0.999998
0.999999
1
1
1
1
1
1
0.999995
0.999999
1
1
1
1
1
1
1
1
1
0.999991
0.999999
0.999997
1
0.999996
1
0.999998
1
0.999999
1
1
1
1
0.999999
1
0.999991
0.999997
0.999992
0.999997
5.64568e-07
7.88156e-05
3.26434e-05
8.37109e-05
3.30323e-05
2.32169e-07
7.67622e-05
9.80158e-05
8.31019e-05
0.000105898
3.25386e-06
4.12049e-05
1.36311e-05
0.000131579
3.36554e-05
0.000194291
2.67648e-05
0.00019393
1.17198e-05
0.000179455
1.13936e-05
5.2126e-05
1.81761e-05
0.000239409
4.58972e-05
0.000319858
3.16056e-05
0.00019197
1.52122e-05
0.000217852
6.67819e-09
1.84705e-05
4.73037e-06
2.70266e-05
1.502e-05
2.02444e-14
1
0.999999
0.999997
1
1
1
1
1
1
1
1
1
1
1
1
1
1
1
0.999977
0.999989
0.999998
1
1
0.999998
1
1
1
1
1
1
1
1
1
1
1
0.999994
0.999999
1
0.999998
0.999989
2.7739e-05
2.23466e-06
0.00014945
0.000110496
0.000152224
0.000114452
2.38175e-07
9.13028e-05
2.43311e-05
3.92773e-05
4.60916e-05
0.00019992
0.000104905
2.12357e-05
3.75271e-05
4.33085e-05
0.000211578
0.000115597
0.000427548
2.2132e-05
9.29435e-05
2.79144e-05
0.00020503
6.94443e-05
0.000427508
2.12357e-05
6.40223e-05
2.55873e-05
0.00020033
3.47072e-10
8.80095e-20
1
0.999999
0.999997
0.999996
1
1
1
0.999993
1
1
1
1
1
1
1
1
1
1
1
1
1
1
0.999977
0.999999
0.999992
0.999997
0.999999
1
1
1
1
1
1
1
0.999993
0.999977
8.26634e-05
0.00016879
0.000155731
0.00019144
0.000169272
1.4843e-06
0.000379943
0.000260711
0.000398153
0.000272368
8.9561e-08
0.000229817
5.11849e-05
4.45664e-05
0.000108915
0.000156884
0.00055945
0.00012329
0.000540793
0.000240962
4.27896e-05
5.00642e-05
0.000102563
0.000171706
0.000584018
0.000126464
0.000543982
2.15114e-05
2.12357e-05
2.13051e-05
2.12357e-05
5.17521e-13
4.94985e-24
0.999991
0.999999
0.999997
0.999996
0.999996
1
1
1
0.999996
1
1
1
1
1
1
1
1
1
1
1
1
1
1
1
1
1
1
1
1
1
1
0.000359105
5.4879e-05
0.000633577
0.000422943
0.000645415
0.000413581
1.24326e-06
0.000975252
0.000272541
0.000830784
0.000455585
0.000222121
0.000586686
0.000667451
0.000235374
0.000586645
0.000978349
0.000288327
0.000814969
0.000467655
0.000665345
4.36956e-09
0.00027134
6.16374e-05
5.09945e-05
0.000126409
0.000138779
0.000411423
0.000260718
5.37428e-05
5.35439e-05
0.000127288
0.000145539
0.000383
1.18101e-17
6.22304e-26
0.999956
0.999985
0.999992
0.999996
0.999994
1
1
0.999992
0.999992
1
1
1
1
1
1
1
1
1
1
1
1
1
1
1
1
1
1
1
1
1
1
1
1
0.000149674
4.46761e-05
8.89014e-20
4.01987e-05
7.63974e-20
2.70649e-05
0.000685731
0.000466151
0.00063956
0.000420526
4.1928e-07
0.000500346
0.000345313
0.000120733
0.000216493
0.000311558
0.000511318
0.000277963
0.000328725
0.000235589
0.000179681
0.000139555
0.000276208
0.000501659
0.000346359
0.000218561
0.000484016
0.000217703
0.000314192
0.000170687
0.000170303
1.22985e-11
8.5799e-05
0.000137462
7.99354e-05
0.000140421
1.36521e-21
4.84613e-27
0.99998
0.999956
0.999971
0.999989
0.999995
0.999996
1
1
0.999993
0.999998
1
1
1
1
1
1
1
1
1
1
1
1
1
1
1
1
1
1
1
1
1
1
1
1
1
1
0.000406943
3.33615e-05
7.80605e-05
0.000117071
7.10599e-05
0.000117389
4.44976e-06
8.59324e-05
8.28105e-05
0.000249988
0.000100838
0.000102286
0.000119358
0.00020232
7.97297e-05
8.10622e-05
0.000175567
7.45235e-05
7.49893e-05
7.49893e-05
0.000178213
2.23916e-08
0.000180317
0.000236133
0.000228317
0.000183761