/*--------------------------------*- C++ -*----------------------------------*\
| =========                 |                                                 |
| \\      /  F ield         | OpenFOAM: The Open Source CFD Toolbox           |
|  \\    /   O peration     | Version:  5.x                                   |
|   \\  /    A nd           | Web:      www.OpenFOAM.org                      |
|    \\/     M anipulation  |                                                 |
\*---------------------------------------------------------------------------*/
FoamFile
{
    version     2.0;
    format      ascii;
    class       volScalarField;
    location    "1.2";
    object      k;
}
// * * * * * * * * * * * * * * * * * * * * * * * * * * * * * * * * * * * * * //

dimensions      [0 2 -2 0 0 0 0];

internalField   nonuniform List<scalar> 
12160
(
9.96011e-09
9.93742e-09
1.00223e-08
9.92742e-09
1.00481e-08
1.00075e-08
9.92388e-09
1.00699e-08
1.00145e-08
1.00065e-08
9.92291e-09
1.00715e-08
1.00202e-08
1.00111e-08
1.00064e-08
9.92289e-09
1.006e-08
1.00213e-08
1.00137e-08
1.00107e-08
1.00071e-08
9.92301e-09
1.00588e-08
1.00199e-08
1.00142e-08
1.00127e-08
1.00117e-08
1.00074e-08
9.92286e-09
1.00553e-08
1.00184e-08
1.00138e-08
1.00132e-08
1.00134e-08
1.00129e-08
1.00096e-08
9.92267e-09
1.00497e-08
1.00172e-08
1.00133e-08
1.0013e-08
1.00136e-08
1.00146e-08
1.00155e-08
1.00484e-08
9.92256e-09
1.00443e-08
1.00162e-08
1.00128e-08
1.00127e-08
1.00134e-08
1.00145e-08
1.00163e-08
1.00419e-08
1.00516e-08
9.92256e-09
1.00392e-08
1.00154e-08
1.00124e-08
1.00123e-08
1.0013e-08
1.0014e-08
1.00165e-08
1.00343e-08
1.00485e-08
1.00744e-08
9.92255e-09
1.00344e-08
1.00148e-08
1.00121e-08
1.0012e-08
1.00126e-08
1.00135e-08
1.0017e-08
1.00323e-08
1.00448e-08
1.00454e-08
1.00599e-08
9.92255e-09
1.00301e-08
1.00141e-08
1.00118e-08
1.00117e-08
1.00123e-08
1.00131e-08
1.00175e-08
1.00326e-08
1.00455e-08
1.00488e-08
1.0029e-08
1.00297e-08
9.92255e-09
1.00264e-08
1.00134e-08
1.00115e-08
1.00114e-08
1.0012e-08
1.00125e-08
1.00173e-08
1.00325e-08
1.00424e-08
1.00577e-08
1.00238e-08
1.002e-08
1.00235e-08
9.92255e-09
1.00232e-08
1.00128e-08
1.00112e-08
1.00112e-08
1.00117e-08
1.00121e-08
1.00167e-08
1.00314e-08
1.00392e-08
1.00574e-08
1.00303e-08
1.00166e-08
1.00152e-08
1.00165e-08
9.92256e-09
1.00205e-08
1.00122e-08
1.0011e-08
1.0011e-08
1.00114e-08
1.00117e-08
1.00159e-08
1.00295e-08
1.00356e-08
1.00561e-08
1.00378e-08
1.00165e-08
1.00144e-08
1.00081e-08
9.92256e-09
1.00183e-08
1.00117e-08
1.00108e-08
1.00108e-08
1.00111e-08
1.00113e-08
1.00154e-08
1.00272e-08
1.00317e-08
1.00534e-08
1.00435e-08
1.00164e-08
1.00131e-08
1.00089e-08
9.92256e-09
1.00165e-08
1.00112e-08
1.00106e-08
1.00106e-08
1.00109e-08
1.00111e-08
1.00151e-08
1.00247e-08
1.00279e-08
1.00494e-08
1.00464e-08
1.00163e-08
1.0013e-08
1.00077e-08
9.92256e-09
1.00148e-08
1.00108e-08
1.00104e-08
1.00104e-08
1.00107e-08
1.00108e-08
1.00149e-08
1.00225e-08
1.00248e-08
1.00447e-08
1.00471e-08
1.00168e-08
1.00128e-08
1.00078e-08
9.92256e-09
1.00134e-08
1.00102e-08
1.00102e-08
1.00103e-08
1.00105e-08
1.00106e-08
1.00148e-08
1.00206e-08
1.00225e-08
1.00398e-08
1.00458e-08
1.00175e-08
1.0013e-08
1.00078e-08
9.92255e-09
1.00123e-08
1.00097e-08
1.00098e-08
1.00101e-08
1.00104e-08
1.00105e-08
1.00148e-08
1.00191e-08
1.00208e-08
1.00354e-08
1.00418e-08
1.00181e-08
1.00132e-08
1.00085e-08
9.92255e-09
1.00114e-08
1.00093e-08
1.00094e-08
1.00097e-08
1.00102e-08
1.00103e-08
1.00148e-08
1.00178e-08
1.00195e-08
1.00316e-08
1.00355e-08
1.00183e-08
1.00132e-08
1.00093e-08
9.92255e-09
1.00108e-08
1.00089e-08
1.0009e-08
1.00093e-08
1.00098e-08
1.00101e-08
1.00147e-08
1.00166e-08
1.00184e-08
1.00282e-08
1.00288e-08
1.00178e-08
1.00131e-08
1.00103e-08
9.92255e-09
1.00103e-08
1.00085e-08
1.00087e-08
1.00089e-08
1.00094e-08
1.00098e-08
1.00146e-08
1.00156e-08
1.00177e-08
1.0025e-08
1.00233e-08
1.00166e-08
1.00128e-08
1.00111e-08
9.92255e-09
1.00101e-08
1.00083e-08
1.00084e-08
1.00086e-08
1.0009e-08
1.00094e-08
1.00144e-08
1.00146e-08
1.00171e-08
1.00218e-08
1.00192e-08
1.00149e-08
1.00124e-08
1.00114e-08
9.92255e-09
1.001e-08
1.00081e-08
1.00081e-08
1.00082e-08
1.00087e-08
1.0009e-08
1.0014e-08
1.00137e-08
1.00166e-08
1.00189e-08
1.00162e-08
1.00133e-08
1.00118e-08
1.00111e-08
9.92255e-09
1.00102e-08
1.0008e-08
1.00079e-08
1.00079e-08
1.00083e-08
1.00086e-08
1.00135e-08
1.0013e-08
1.00161e-08
1.00167e-08
1.00141e-08
1.00122e-08
1.00113e-08
1.00109e-08
9.92255e-09
1.00105e-08
1.00081e-08
1.00078e-08
1.00076e-08
1.0008e-08
1.00081e-08
1.00128e-08
1.00125e-08
1.00155e-08
1.0015e-08
1.00127e-08
1.00113e-08
1.00108e-08
1.00106e-08
9.92255e-09
1.00111e-08
1.00083e-08
1.00079e-08
1.00076e-08
1.00078e-08
1.00075e-08
1.00119e-08
1.00122e-08
1.00149e-08
1.00139e-08
1.00118e-08
1.00108e-08
1.00105e-08
1.00104e-08
9.92255e-09
1.00118e-08
1.00085e-08
1.00081e-08
1.00077e-08
1.00077e-08
1.00067e-08
1.00109e-08
1.00121e-08
1.00141e-08
1.0013e-08
1.00113e-08
1.00105e-08
1.00103e-08
1.00103e-08
9.92256e-09
1.00126e-08
1.00088e-08
1.00083e-08
1.00079e-08
1.00078e-08
1.00064e-08
1.00098e-08
1.00121e-08
1.00133e-08
1.00123e-08
1.0011e-08
1.00103e-08
1.00102e-08
1.00101e-08
9.92256e-09
1.00136e-08
1.00092e-08
1.00086e-08
1.00082e-08
1.0008e-08
1.0007e-08
1.00091e-08
1.00121e-08
1.00124e-08
1.00116e-08
1.00107e-08
1.00102e-08
1.00101e-08
1.00101e-08
9.92256e-09
1.00148e-08
1.00095e-08
1.00088e-08
1.00084e-08
1.00083e-08
1.00076e-08
1.00097e-08
1.00118e-08
1.00115e-08
1.00109e-08
1.00104e-08
1.00101e-08
1.00101e-08
1.001e-08
9.92256e-09
1.00161e-08
1.00099e-08
1.00091e-08
1.00087e-08
1.00085e-08
1.00081e-08
1.00103e-08
1.00116e-08
1.00109e-08
1.00102e-08
1.001e-08
1.00099e-08
1.00099e-08
1.00096e-08
9.92256e-09
1.00176e-08
1.00103e-08
1.00094e-08
1.0009e-08
1.00088e-08
1.00084e-08
1.00112e-08
1.00115e-08
1.00112e-08
1.00097e-08
1.00097e-08
1.00097e-08
1.00097e-08
1.00088e-08
9.92256e-09
1.00193e-08
1.00107e-08
1.00096e-08
1.00093e-08
1.00091e-08
1.00088e-08
1.0012e-08
1.00117e-08
1.00119e-08
1.00098e-08
1.00094e-08
1.00092e-08
1.00094e-08
1.00089e-08
9.92256e-09
1.00212e-08
1.00112e-08
1.00099e-08
1.00095e-08
1.00094e-08
1.00091e-08
1.00125e-08
1.0012e-08
1.00127e-08
1.00103e-08
1.00093e-08
1.00088e-08
1.00089e-08
1.00087e-08
9.92256e-09
1.00233e-08
1.00117e-08
1.00101e-08
1.00098e-08
1.00096e-08
1.00093e-08
1.00129e-08
1.00124e-08
1.00135e-08
1.0011e-08
1.00095e-08
1.00087e-08
1.00082e-08
1.0008e-08
9.92255e-09
1.00257e-08
1.00122e-08
1.00104e-08
1.001e-08
1.00099e-08
1.00096e-08
1.00132e-08
1.00129e-08
1.00142e-08
1.00119e-08
1.00098e-08
1.00089e-08
1.00081e-08
1.00073e-08
9.92255e-09
1.00286e-08
1.00127e-08
1.00106e-08
1.00102e-08
1.00101e-08
1.00098e-08
1.00133e-08
1.00134e-08
1.00148e-08
1.00129e-08
1.00103e-08
1.00092e-08
1.00084e-08
1.00071e-08
1.00321e-08
9.92257e-09
1.00133e-08
1.00109e-08
1.00104e-08
1.00103e-08
1.001e-08
1.00134e-08
1.00139e-08
1.00151e-08
1.00139e-08
1.00108e-08
1.00096e-08
1.00089e-08
1.00074e-08
1.00141e-08
1.00361e-08
9.92293e-09
1.00111e-08
1.00106e-08
1.00105e-08
1.00103e-08
1.00135e-08
1.00145e-08
1.00152e-08
1.00148e-08
1.00114e-08
1.001e-08
1.00094e-08
1.00077e-08
1.00114e-08
1.00147e-08
1.00441e-08
9.92455e-09
1.00108e-08
1.00107e-08
1.00105e-08
1.00136e-08
1.0015e-08
1.00154e-08
1.00158e-08
1.00121e-08
1.00104e-08
1.00097e-08
1.00084e-08
1.0011e-08
1.00117e-08
1.0016e-08
1.00533e-08
9.92861e-09
1.0011e-08
1.00107e-08
1.00136e-08
1.00157e-08
1.00157e-08
1.00169e-08
1.00127e-08
1.00106e-08
1.001e-08
1.00093e-08
1.00112e-08
1.00113e-08
1.00123e-08
1.0018e-08
1.0067e-08
9.93805e-09
1.00109e-08
1.00137e-08
1.00165e-08
1.00163e-08
1.00184e-08
1.00133e-08
1.00108e-08
1.00102e-08
1.00097e-08
1.00112e-08
1.00115e-08
1.00118e-08
1.00133e-08
1.00223e-08
1.00927e-08
9.9612e-09
1.00137e-08
1.00174e-08
1.00171e-08
1.00203e-08
1.00143e-08
1.0011e-08
1.00102e-08
1.00099e-08
1.00138e-08
1.00114e-08
1.0012e-08
1.00125e-08
1.00154e-08
1.00332e-08
1.01415e-08
9.98878e-09
1.00184e-08
1.00181e-08
1.00226e-08
1.00159e-08
1.00112e-08
1.00101e-08
1.00099e-08
1.00195e-08
1.0014e-08
1.0012e-08
1.00127e-08
1.00137e-08
1.00212e-08
1.0059e-08
1.02315e-08
1.00925e-08
1.00191e-08
1.00249e-08
1.00183e-08
1.00118e-08
1.00102e-08
1.00099e-08
1.00199e-08
1.00204e-08
1.00143e-08
1.00127e-08
1.00135e-08
1.00166e-08
1.00366e-08
1.0111e-08
1.02786e-08
1.00519e-08
1.00267e-08
1.00217e-08
1.00129e-08
1.00104e-08
1.00099e-08
1.0028e-08
1.00205e-08
1.00219e-08
1.00151e-08
1.00135e-08
1.00149e-08
1.00242e-08
1.00712e-08
1.01779e-08
1.04606e-08
9.98941e-09
1.00256e-08
1.00145e-08
1.00109e-08
1.001e-08
1.00298e-08
1.00292e-08
1.00221e-08
1.00231e-08
1.00159e-08
1.00143e-08
1.00179e-08
1.00436e-08
1.01307e-08
1.0282e-08
1.0268e-08
1.00186e-08
1.00165e-08
1.00117e-08
1.00103e-08
1.00181e-08
1.00344e-08
1.00321e-08
1.00241e-08
1.00235e-08
1.00164e-08
1.00154e-08
1.00261e-08
1.00849e-08
1.02114e-08
1.02928e-08
1.00836e-08
1.00666e-08
9.9643e-09
1.00126e-08
1.00108e-08
1.00132e-08
1.00185e-08
1.00414e-08
1.0036e-08
1.00266e-08
1.00233e-08
1.00167e-08
1.00181e-08
1.00468e-08
1.01494e-08
1.02573e-08
1.01315e-08
1.00701e-08
1.00756e-08
1.00745e-08
9.9708e-09
1.00113e-08
1.00116e-08
1.00131e-08
1.00194e-08
1.00435e-08
1.0039e-08
1.00289e-08
1.00231e-08
1.00174e-08
1.00257e-08
1.0088e-08
1.02107e-08
1.0172e-08
1.00713e-08
1.00687e-08
1.0085e-08
1.00857e-08
1.00941e-08
9.97894e-09
1.00115e-08
1.00133e-08
1.00184e-08
1.00414e-08
1.00401e-08
1.00306e-08
1.00234e-08
1.00197e-08
1.00425e-08
1.01513e-08
1.01907e-08
1.00635e-08
1.00625e-08
1.00735e-08
1.01041e-08
1.00985e-08
1.00977e-08
1.01154e-08
9.98916e-09
1.0011e-08
1.0013e-08
1.00165e-08
1.00375e-08
1.00394e-08
1.00314e-08
1.00245e-08
1.00241e-08
1.00778e-08
1.01846e-08
1.00593e-08
1.00563e-08
1.00639e-08
1.00856e-08
1.01275e-08
1.01248e-08
1.01135e-08
1.01103e-08
1.01377e-08
1.0002e-08
1.00095e-08
1.00123e-08
1.0015e-08
1.00328e-08
1.00369e-08
1.00314e-08
1.00262e-08
1.00307e-08
1.01314e-08
1.0061e-08
1.00535e-08
1.00563e-08
1.00703e-08
1.01018e-08
1.01471e-08
1.01552e-08
1.01466e-08
1.013e-08
1.01247e-08
1.01589e-08
1.0016e-08
1.0008e-08
1.00116e-08
1.0014e-08
1.00273e-08
1.00326e-08
1.00306e-08
1.0028e-08
1.00551e-08
1.00596e-08
1.00533e-08
1.00521e-08
1.00592e-08
1.00797e-08
1.01162e-08
1.0159e-08
1.01797e-08
1.0159e-08
1.01487e-08
1.01487e-08
1.01826e-08
1.0168e-08
1.01483e-08
1.01423e-08
1.01796e-08
1.00301e-08
1.00067e-08
1.00109e-08
1.00134e-08
1.00217e-08
1.0028e-08
1.00294e-08
1.00299e-08
1.00359e-08
1.00495e-08
1.00504e-08
1.00528e-08
1.00636e-08
1.00891e-08
1.01219e-08
1.01827e-08
1.01665e-08
1.02096e-08
1.01827e-08
1.0193e-08
1.0193e-08
1.01664e-08
1.01514e-08
1.01514e-08
1.02061e-08
1.01875e-08
1.01686e-08
1.01629e-08
1.02021e-08
1.00441e-08
1.00058e-08
1.00103e-08
1.00129e-08
1.00179e-08
1.00246e-08
1.00288e-08
1.00305e-08
1.00361e-08
1.00462e-08
1.00496e-08
1.00543e-08
1.00679e-08
1.00943e-08
1.01252e-08
1.01252e-08
1.01199e-08
1.01199e-08
1.0187e-08
1.01694e-08
1.0237e-08
1.02131e-08
1.01869e-08
1.01994e-08
1.01994e-08
1.01694e-08
1.01532e-08
1.01533e-08
1.0226e-08
1.02026e-08
1.0189e-08
1.01866e-08
1.02268e-08
1.00581e-08
1.00051e-08
1.00095e-08
1.00124e-08
1.00157e-08
1.00232e-08
1.00292e-08
1.00322e-08
1.00356e-08
1.00448e-08
1.00495e-08
1.0055e-08
1.00711e-08
1.00965e-08
1.00964e-08
1.00928e-08
1.00928e-08
1.01258e-08
1.01258e-08
1.01184e-08
1.01184e-08
1.01875e-08
1.01683e-08
1.017e-08
1.01702e-08
1.01681e-08
1.02836e-08
1.02382e-08
1.01991e-08
1.01999e-08
1.02039e-08
1.0204e-08
1.01875e-08
1.01979e-08
1.0198e-08
1.01683e-08
1.017e-08
1.01701e-08
1.01681e-08
1.01538e-08
1.0152e-08
1.01523e-08
1.01537e-08
1.01538e-08
1.01521e-08
1.01523e-08
1.01538e-08
1.02467e-08
1.02163e-08
1.02122e-08
1.02141e-08
1.02535e-08
1.00721e-08
1.00044e-08
1.00088e-08
1.00116e-08
1.0015e-08
1.0024e-08
1.00312e-08
1.00425e-08
1.01103e-08
1.01041e-08
1.0055e-08
1.00559e-08
1.00726e-08
1.00726e-08
1.00706e-08
1.00705e-08
1.00962e-08
1.00962e-08
1.00917e-08
1.00917e-08
1.01261e-08
1.01512e-08
1.01253e-08
1.01247e-08
1.01249e-08
1.01508e-08
1.01513e-08
1.01263e-08
1.01253e-08
1.01247e-08
1.0125e-08
1.01507e-08
1.01159e-08
1.01169e-08
1.01174e-08
1.01177e-08
1.01159e-08
1.01169e-08
1.01174e-08
1.01177e-08
1.01873e-08
1.01854e-08
1.01861e-08
1.01863e-08
1.01672e-08
1.01689e-08
1.017e-08
1.01671e-08
1.04929e-08
1.04504e-08
1.02218e-08
1.02144e-08
1.02025e-08
1.02019e-08
1.01893e-08
1.01894e-08
1.01954e-08
1.01956e-08
1.01872e-08
1.01854e-08
1.0186e-08
1.01862e-08
1.01961e-08
1.01944e-08
1.01959e-08
1.01953e-08
1.01961e-08
1.01946e-08
1.0196e-08
1.01952e-08
1.01672e-08
1.01689e-08
1.01698e-08
1.0167e-08
1.01533e-08
1.01533e-08
1.01532e-08
1.01533e-08
1.02498e-08
1.02345e-08
1.02397e-08
1.02456e-08
1.02808e-08
1.00843e-08
1.00039e-08
1.00078e-08
1.00112e-08
1.00144e-08
1.00292e-08
1.02213e-08
1.24903e-08
1.68694e-08
2.24781e-08
2.81827e-08
1.03191e-08
1.0288e-08
3.37178e-08
3.30894e-08
1.00779e-08
1.0078e-08
1.03762e-08
1.03806e-08
1.00959e-08
1.00959e-08
1.00955e-08
1.00958e-08
1.00958e-08
1.00959e-08
1.00955e-08
1.00957e-08
1.00901e-08
1.00908e-08
1.00912e-08
1.00913e-08
1.00901e-08
1.00907e-08
1.00912e-08
1.00913e-08
1.01508e-08
1.01257e-08
1.0125e-08
1.01491e-08
1.01239e-08
1.01242e-08
1.01508e-08
1.01258e-08
1.01489e-08
1.01251e-08
1.0124e-08
1.01243e-08
1.01142e-08
1.01156e-08
1.01169e-08
1.01172e-08
1.01141e-08
1.01155e-08
1.01169e-08
1.01172e-08
1.01864e-08
1.01832e-08
1.01846e-08
1.01842e-08
1.0166e-08
1.01681e-08
1.01693e-08
1.01655e-08
1.04447e-08
1.23416e-08
1.31318e-08
1.11148e-08
1.03681e-08
1.02588e-08
1.02211e-08
1.02086e-08
1.01927e-08
1.01921e-08
1.01825e-08
1.01799e-08
1.01846e-08
1.01833e-08
1.01824e-08
1.01795e-08
1.01847e-08
1.01835e-08
1.01893e-08
1.01913e-08
1.01935e-08
1.01878e-08
1.01931e-08
1.01943e-08
1.01895e-08
1.01914e-08
1.01936e-08
1.01878e-08
1.01933e-08
1.01943e-08
1.01863e-08
1.01831e-08
1.01846e-08
1.01841e-08
1.01942e-08
1.01914e-08
1.01942e-08
1.01912e-08
1.01659e-08
1.01681e-08
1.01691e-08
1.01654e-08
1.01525e-08
1.01529e-08
1.01524e-08
1.01528e-08
1.02796e-08
1.02598e-08
1.02719e-08
1.02797e-08
1.03044e-08
1.009e-08
1.00034e-08
1.00072e-08
1.00103e-08
1.00363e-08
1.32673e-08
4.36731e-08
1.51709e-07
3.54427e-07
8.23295e-07
7.83713e-07
7.72912e-07
1.07963e-05
1.07182e-05
1.99343e-08
1.95767e-08
1.70229e-07
1.62665e-07
1.00829e-08
1.00829e-08
1.01723e-08
1.02005e-08
1.00842e-08
1.00834e-08
1.01822e-08
1.02027e-08
2.40532e-08
3.31375e-08
1.13797e-08
1.20707e-08
2.4332e-08
3.30153e-08
1.14383e-08
1.20671e-08
1.00958e-08
1.00957e-08
1.0095e-08
1.00952e-08
1.00958e-08
1.00957e-08
1.00949e-08
1.00952e-08
1.00907e-08
1.00931e-08
1.00911e-08
1.00911e-08
1.00912e-08
1.00934e-08
1.00911e-08
1.00911e-08
1.01854e-08
1.01807e-08
1.01836e-08
1.01827e-08
1.07308e-08
1.22127e-08
3.76299e-08
1.95313e-08
2.63016e-08
1.54601e-08
2.00458e-08
1.35712e-08
1.0624e-08
1.03288e-08
1.02867e-08
1.02915e-08
1.01983e-08
1.01947e-08
1.02213e-08
1.02178e-08
1.01967e-08
1.01929e-08
1.01835e-08
1.01807e-08
1.01885e-08
1.01851e-08
1.0183e-08
1.01801e-08
1.01875e-08
1.01842e-08
1.01808e-08
1.01765e-08
1.01824e-08
1.01789e-08
1.01807e-08
1.01761e-08
1.01826e-08
1.01787e-08
1.0189e-08
1.01886e-08
1.01928e-08
1.01928e-08
1.01865e-08
1.01909e-08
1.0189e-08
1.01887e-08
1.0193e-08
1.01929e-08
1.01868e-08
1.01915e-08
1.01854e-08
1.01808e-08
1.01835e-08
1.01826e-08
1.0193e-08
1.01886e-08
1.0193e-08
1.01884e-08
1.03543e-08
1.02861e-08
1.03086e-08
1.0312e-08
1.03161e-08
1.008e-08
1.00031e-08
1.00065e-08
1.00103e-08
1.27137e-08
4.48347e-07
1.42599e-06
4.32159e-06
1.23774e-05
0.000120787
1.98584e-06
1.93403e-06
1.73842e-05
1.72061e-05
2.18494e-07
2.17403e-07
2.1141e-06
2.1103e-06
1.01071e-08
1.01374e-08
1.03674e-08
1.07767e-08
1.01125e-08
1.01415e-08
1.04036e-08
1.08035e-08
3.16738e-08
5.52494e-08
1.26794e-08
1.66434e-08
3.23851e-08
5.52359e-08
1.28661e-08
1.67062e-08
1.01053e-08
1.01288e-08
1.01079e-08
1.0131e-08
1.17714e-08
1.63073e-08
4.45595e-08
2.3063e-08
3.60132e-08
1.85355e-08
1.20576e-07
5.1099e-08
6.6292e-08
3.0393e-08
4.76671e-08
9.60798e-08
1.67701e-08
2.28554e-08
2.35333e-08
4.4703e-08
1.22818e-08
1.44868e-08
1.03849e-08
1.04198e-08
1.18824e-08
1.30287e-08
1.02455e-08
1.02462e-08
1.07114e-08
1.11068e-08
1.03798e-08
1.03908e-08
1.01984e-08
1.01946e-08
1.0238e-08
1.02373e-08
1.01965e-08
1.01916e-08
1.01822e-08
1.01779e-08
1.01873e-08
1.01825e-08
1.01816e-08
1.01773e-08
1.01863e-08
1.01814e-08
1.03259e-08
1.03219e-08
1.0346e-08
1.03324e-08
1.02995e-08
1.00374e-08
1.00028e-08
1.00063e-08
1.00114e-08
1.19699e-07
1.75854e-05
3.07676e-05
0.000111291
0.00107569
0.0006633
0.00066109
0.00283885
0.00283229
1.83925e-05
1.82705e-05
0.000123115
0.000121937
5.39464e-07
2.14435e-07
2.20804e-07
5.69091e-07
5.43041e-07
2.16466e-07
2.21533e-07
5.7726e-07
2.44269e-06
6.82296e-06
6.7745e-06
2.50293e-06
2.45361e-06
6.81192e-06
6.80059e-06
2.50708e-06
1.01759e-08
1.03115e-08
1.07898e-08
1.19784e-08
1.01873e-08
1.03226e-08
1.08485e-08
1.20307e-08
4.63686e-08
7.02004e-08
1.48349e-08
2.18721e-08
4.72616e-08
7.05165e-08
1.506e-08
2.20561e-08
1.09619e-08
3.15655e-08
8.63001e-08
2.65544e-07
1.08877e-07
1.32072e-07
5.2608e-08
4.7627e-07
1.98491e-07
2.01319e-07
8.6304e-08
7.98066e-08
1.92e-07
2.24459e-08
3.72946e-08
3.60584e-08
8.80288e-08
1.43065e-08
1.99973e-08
1.0546e-08
1.06173e-08
1.32125e-08
1.57712e-08
1.02751e-08
1.0286e-08
1.11655e-08
1.21084e-08
1.05959e-08
1.05539e-08
1.02789e-08
1.02738e-08
1.03437e-08
1.03632e-08
1.0374e-08
1.03237e-08
1.02165e-08
9.92539e-09
1.00027e-08
1.00055e-08
1.01855e-08
1.95126e-06
0.000363858
0.000776022
0.00513885
0.0106401
0.0014799
0.00147637
0.00463362
0.0046269
2.83539e-05
3.09478e-05
9.75534e-05
8.49826e-05
2.82494e-05
3.08842e-05
9.72532e-05
8.47353e-05
0.000367162
0.00036592
1.02657e-06
3.35974e-07
3.27003e-07
1.06105e-06
1.03236e-06
3.40083e-07
3.2902e-07
1.06797e-06
4.33553e-06
1.26702e-05
1.49534e-05
3.9671e-06
4.36071e-06
1.27111e-05
1.4994e-05
3.98754e-06
1.03419e-07
1.20337e-07
1.04972e-07
1.21261e-07
1.08243e-08
1.86963e-08
2.77847e-07
1.74772e-06
4.48926e-07
1.178e-06
3.98317e-07
1.77808e-06
7.46994e-07
6.22968e-07
2.47222e-07
3.50711e-06
1.20601e-06
3.57988e-06
1.11841e-06
1.67808e-06
4.95712e-07
1.64553e-06
4.83561e-07
1.41716e-06
2.55106e-07
6.50317e-07
5.52154e-07
6.62524e-07
1.06796e-07
2.97048e-07
2.37661e-07
1.5206e-07
4.08124e-07
3.59353e-08
6.7321e-08
6.50102e-08
1.90864e-07
1.93635e-08
3.20419e-08
1.08916e-08
1.09455e-08
1.57782e-08
2.06323e-08
1.03421e-08
1.03604e-08
1.2096e-08
1.40042e-08
1.03513e-08
1.04059e-08
1.03752e-08
1.02494e-08
9.94197e-09
1.00025e-08
1.00061e-08
2.04743e-08
2.27337e-05
0.00329167
0.0243721
0.0237755
0.0200882
0.0200998
0.0434918
0.0435312
0.00184664
0.00193586
0.00354214
0.00368682
0.00184289
0.00193388
0.00353772
0.00368421
0.00901465
0.00901326
4.22724e-05
5.24751e-05
0.000148371
0.000123388
4.22613e-05
5.23277e-05
0.000147655
0.000123051
0.000697063
0.000753655
0.000385514
0.000412365
0.000695466
0.000752583
0.0003842
0.000411063
9.41708e-06
2.04373e-05
2.6815e-05
7.72751e-06
9.45699e-06
2.04505e-05
2.68537e-05
7.76167e-06
1.0414e-08
1.62473e-08
1.04304e-07
3.02075e-06
1.24412e-05
3.92145e-06
6.76585e-06
2.5525e-06
1.09315e-05
5.0767e-06
1.67942e-06
3.87786e-06
8.2878e-06
3.51722e-06
6.9578e-07
1.83552e-06
4.01444e-06
1.50098e-06
8.9827e-06
2.08929e-06
8.81686e-06
2.19706e-06
4.60139e-06
8.79508e-07
4.37003e-06
9.72932e-07
2.93815e-06
4.78942e-07
1.27563e-06
1.0403e-06
1.45435e-06
2.03143e-07
6.13813e-07
4.63942e-07
3.18892e-07
8.06524e-07
1.3715e-07
3.9135e-07
1.04011e-08
1.04325e-08
1.03138e-08
9.98719e-09
1.00026e-08
1.00366e-08
4.56318e-07
0.000242109
0.0116838
0.0441864
0.165651
0.165879
0.179474
0.179721
0.0363974
0.036182
0.0714196
0.0706091
0.00243678
0.00257694
0.00476403
0.00488257
0.00243344
0.00257518
0.00476007
0.00488039
0.0114399
0.0182524
0.0184384
0.0113234
0.0114258
0.0181909
0.0183836
0.0113087
5.88364e-05
7.73364e-05
0.00019385
0.000161113
5.86789e-05
7.70762e-05
0.000192901
0.000160464
0.00106499
0.00118446
0.000508291
0.000579452
0.00106267
0.00118315
0.000506449
0.000577983
1.03666e-08
1.15025e-08
7.17539e-08
9.90106e-07
2.98601e-05
8.35026e-06
5.88357e-05
2.05393e-05
7.86786e-05
2.97044e-05
2.91617e-05
7.02641e-05
3.58489e-05
7.52006e-05
1.31209e-05
3.49108e-05
1.42446e-05
3.47063e-05
3.26783e-05
0.000104052
2.84279e-05
8.53231e-05
8.80931e-06
2.61153e-05
1.57574e-05
5.66087e-05
1.38715e-05
4.67847e-05
3.94838e-06
1.38663e-05
3.91766e-06
1.39417e-05
1.70823e-06
7.22498e-06
1.97399e-05
4.39739e-06
1.89239e-05
5.76086e-06
1.07105e-05
1.85958e-06
1.00556e-05
2.64684e-06
1.04663e-08
1.04003e-08
1.0061e-08
1.00025e-08
1.16903e-08
1.1332e-05
0.00268143
0.025755
0.074652
0.121653
0.118602
0.133467
0.13283
0.0384815
0.0244038
0.0343868
0.047901
0.0461694
0.0232658
0.0243065
0.0379688
0.0231836
0.0341539
0.0466639
0.0455983
0.118185
0.0955022
0.0927613
0.0793231
0.109494
0.0939187
0.088447
0.0776936
0.00342342
0.00362141
0.00643679
0.00662084
0.00341708
0.0036187
0.00642965
0.00661602
0.0152912
0.0156337
0.0152627
0.0155964
0.000294151
0.000248802
0.000293082
0.000247943
0.00173522
0.00190538
0.00173202
0.00190384
1.04536e-08
1.0477e-08
2.17646e-08
6.47674e-07
1.00054e-05
1.56256e-06
2.21347e-05
4.80217e-06
0.000154196
5.18365e-05
0.000313319
0.000132707
0.000757058
0.000267693
0.000551874
0.00029572
0.000310618
0.000101759
0.000416062
9.79365e-05
0.000241827
0.000118739
0.000168952
4.28706e-05
6.2856e-05
0.000248866
3.06001e-05
0.000137583
6.21003e-05
0.000306214
6.20225e-05
2.25253e-05
0.000214376
7.49633e-05
3.22036e-05
0.0001791
3.27668e-05
1.0461e-05
0.000125109
4.22967e-05
1.03729e-05
3.80001e-05
4.75475e-06
2.13011e-05
1.04894e-08
1.01408e-08
1.00033e-08
9.11271e-08
0.000170104
0.0138415
0.0473287
0.252061
0.253504
0.163267
0.165274
0.343337
0.320643
0.313792
0.308375
0.0291955
0.0395808
0.0359281
0.0258264
0.0451585
0.0414213
0.0289529
0.0388772
0.0257144
0.0356187
0.0437326
0.0408609
0.136446
0.0862299
0.0757334
0.0608456
0.111996
0.0830479
0.0705211
0.0592207
0.0094041
0.00953698
0.00939045
0.00952606
1.05577e-08
1.04293e-08
1.17878e-08
1.12919e-07
7.4191e-06
6.58349e-05
1.49961e-05
0.000130543
3.67208e-05
0.000777781
0.00138315
0.000807501
0.00166568
0.000316386
0.000626361
0.000384362
0.000918409
0.00101793
0.000633844
0.00314048
0.000747295
0.00207821
0.00179511
0.000484147
0.000264899
0.00197596
0.000362007
0.00123491
0.00102262
0.00193502
0.000905308
0.000694193
0.000254559
0.00118621
0.000543113
0.000256428
8.74757e-05
0.000115987
0.000649642
5.15634e-05
0.000389546
0.000121343
0.000778796
6.50178e-05
0.000194011
6.06673e-05
0.000482295
3.37666e-05
0.000115593
1.02064e-08
1.01862e-08
4.19402e-06
0.00157241
0.0271478
0.0823057
0.42721
0.45682
0.144846
0.157279
0.636133
1.51203
0.38973
1.67999
0.598059
0.823935
0.243914
1.58666
1.09547
1.08496
0.180271
0.0528959
0.0289984
0.0208918
0.0576913
0.03779
0.0221198
0.0193091
1.0257e-08
1.06025e-08
1.06134e-08
2.22727e-08
9.39362e-07
4.08308e-05
9.25797e-06
0.000187459
5.67802e-05
0.000423405
0.000144198
0.000802806
0.000306748
0.00213054
0.00543681
0.00235362
0.00705403
0.00106832
0.00354883
0.00128275
0.00512411
0.00128844
0.00162151
0.00464237
0.00684708
0.00144131
0.0056603
0.000523507
0.000794597
0.00492989
0.00302513
0.000784188
0.00403168
0.00227315
0.000783444
0.00148875
0.000247739
6.64662e-08
8.02178e-05
0.00671649
0.0503305
0.235914
0.252406
0.186141
0.189125
1.43822
1.49809
0.694112
0.737909
1.2221
2.56906
0.631582
3.4175
1.07739
0.420377
0.170822
2.91692
2.9587
1.53938
3.317
1.42424
3.20695
1.62169
3.45589
1.48963
0.214172
0.0342286
0.0205609
0.0141079
1.03028e-08
1.0716e-08
1.2237e-08
1.08293e-07
8.30307e-06
0.000183887
7.52533e-05
0.000957903
0.000420347
0.00270321
0.00138312
0.00478198
0.00379158
0.00802146
0.00284282
0.002669
0.0019047
0.00540571
0.00129903
0.00495796
0.0139464
0.00743594
0.0197598
0.00249599
0.0107992
0.00364983
0.0158763
2.78901e-06
0.000863344
0.0121808
0.108439
0.366409
0.384438
0.244384
0.248869
2.94947
1.54243
1.1919
2.05446
1.29194
1.82272
2.96607
1.55148
1.21606
2.05816
1.29629
1.89252
0.817393
0.844591
0.812537
1.36614
0.209677
2.64329
0.807533
0.424961
0.104917
2.4683
2.72258
1.27675
2.65283
1.26372
1.0365e-08
1.1478e-08
2.54596e-08
8.46655e-07
1.39552e-05
5.63939e-06
0.000105918
4.58379e-05
0.000456417
0.000305398
0.0040214
0.00236669
0.00776027
0.008726
0.0146059
0.0224269
0.00770506
0.0156791
0.00409038
0.00560264
0.00878724
0.0184016
0.00436402
0.0120816
0.00911012
0.0213655
0.00494498
0.0169927
0.0119441
0.0311219
0.00599266
0.025118
6.6914e-05
0.00181729
0.0274021
0.327996
0.330358
0.226824
0.228939
0.537009
0.549543
0.433235
0.438701
2.33951
1.34672
1.03311
1.76598
1.12022
1.60959
2.27463
1.33019
1.0432
1.75886
1.11971
1.64339
0.945626
0.647132
1.0823
0.720549
0.991951
0.664766
1.11614
0.733778
1.0514e-08
1.60713e-08
1.36435e-07
6.86223e-06
0.000161586
5.29463e-05
0.000815166
0.00033598
0.00362915
0.00202976
0.0212116
0.0283501
0.00843838
0.0219987
0.0282625
0.00854253
0.00602725
0.0140024
0.0245444
0.00499368
0.0131577
0.0240441
0.0398225
0.0183365
0.0538883
0.0384642
0.0241587
0.0101029
0.0481814
0.0317732
0.0206121
0.0454166
0.0102558
0.0371977
0.000175257
0.00631687
0.0564778
0.325286
0.327715
0.186072
0.19044
0.936633
0.585606
0.459802
0.718934
0.457186
0.724016
0.976853
0.598194
0.466248
0.73599
0.463893
0.739028
0.418013
0.420973
0.859966
1.33228
0.869048
1.3651
0.990117
0.6274
1.02984
0.638541
1.11441e-08
4.40339e-08
1.04889e-06
1.36367e-05
1.69229e-06
7.89981e-05
1.60101e-05
0.000436518
0.000129776
0.00269945
0.00113911
0.00777283
0.00659872
0.0207785
0.0259824
0.0221348
0.027114
0.00424553
0.0138274
0.0232361
0.00442086
0.0130797
0.0226118
0.043692
0.053962
0.0461544
0.05196
0.0287232
0.0267636
0.0479418
0.0488931
0.00109693
0.0152173
0.0257787
0.16817
0.176429
0.0968704
0.104279
0.777656
0.487718
0.35955
0.553608
0.345076
0.586459
0.802429
0.494884
0.361895
0.557988
0.346764
0.591505
0.410618
0.267752
0.43848
0.254612
0.419978
0.268605
0.437728
0.254706
0.709096
0.490555
0.735893
0.497842
1.41932e-08
2.19573e-07
8.65801e-06
7.65486e-05
1.01752e-05
0.000350577
6.84682e-05
0.00172953
0.000500312
0.0160039
0.0193837
0.00471556
0.0143102
0.0190487
0.00540513
0.0090925
0.0149388
0.00257926
0.00756173
0.0148961
0.00226105
0.0381753
0.0484605
0.044755
0.056275
0.0294881
0.0522068
0.0242136
0.0413679
0.00368455
0.0155542
0.0305263
0.0440976
0.0494629
0.0308839
0.021001
0.0210342
0.0907427
0.250083
0.178134
0.0991716
0.278819
0.182024
0.506775
0.340742
0.257851
0.414434
0.2492
0.454898
0.510628
0.342137
0.256999
0.406875
0.247414
0.450795
0.308454
0.177719
0.330941
0.183634
2.93383e-08
1.36215e-06
9.33031e-05
0.00031825
6.16712e-05
0.00135595
0.00038585
0.00403291
0.00250604
0.0118238
0.0133978
0.00956053
0.00818827
0.00133746
0.00316298
0.00334362
0.000953169
0.00480146
0.00887035
0.0293781
0.0409154
0.026039
0.0344561
0.0169128
0.0375657
0.0130037
0.0296935
0.0567876
0.0669583
0.034834
0.0635669
0.00697486
0.0186792
0.0545943
0.0477865
0.0558701
0.0455609
0.0200723
0.0188844
0.107485
0.126782
0.11318
0.163892
0.138492
0.081243
0.100674
0.104479
0.190796
0.13368
0.122031
0.213914
0.144823
0.0893769
0.122245
0.103718
0.181797
0.313312
0.185229
0.326785
0.219229
0.130632
0.268571
0.145445
1.04638e-07
9.24366e-06
0.000317601
0.0017113
0.000524155
4.7864e-05
0.00173428
0.00045937
0.00757764
0.00687633
0.00217144
0.00315048
0.00257675
0.000755836
0.0278148
0.024127
0.0329203
0.0232412
0.0111593
0.0275214
0.0109309
0.0183283
0.0548678
0.0698793
0.0675581
0.0692954
0.0283715
0.0655072
0.0276487
0.0623855
0.0108439
0.0221327
0.0824628
0.100685
0.0996516
0.0744015
0.080542
0.10153
0.118953
0.0735673
0.0338239
0.0342436
0.128129
0.146896
0.178182
0.107558
0.0918719
0.088492
0.180178
0.253778
0.171569
0.132832
0.103975
0.0960198
0.133983
0.224915
0.148795
0.27375
4.68928e-07
5.53192e-05
0.00188898
0.00684367
0.00229569
0.000407644
0.0119147
0.00373569
0.0262276
0.0476951
0.0375531
0.022384
0.0161953
0.0250645
0.00860156
0.00473126
0.0120498
0.0233124
0.030367
0.0103777
0.0110172
0.0188297
0.00295481
0.00185325
0.0772168
0.0600542
0.0554279
0.0430509
0.0307925
0.0472835
0.0286683
0.0366066
0.0139483
0.0609193
0.05571
0.0575129
0.0611844
0.0480413
0.0478884
0.119942
0.112764
0.178405
0.140381
0.120954
0.127143
0.147281
0.119963
0.120069
0.147148
0.144209
0.122812
0.113251
0.176392
0.139369
0.130147
0.127454
0.145592
0.119528
0.119813
0.152627
0.142881
0.180239
0.19485
0.10376
0.110294
0.216305
0.206005
0.115757
0.11377
1.79607e-06
0.00010879
0.00240981
0.0675392
0.00897132
0.0172243
0.0264379
0.00463363
0.00617844
0.000281155
0.0176848
0.00409592
0.0578811
0.0487181
0.118667
0.0500728
0.0683128
0.0417372
0.0288678
0.0223233
0.0597534
0.0587824
0.0458019
0.0336434
0.142379
0.0779117
0.0675175
0.0641004
0.0291534
0.101092
0.0974446
0.102326
0.0971141
0.0709659
0.0703891
0.247808
0.209864
0.146114
0.145492
0.205832
0.139855
0.227515
0.211987
0.173503
0.177691
0.159486
0.155449
0.20128
0.163891
0.247054
0.2049
0.14511
0.144345
0.206171
0.138988
0.217771
0.229494
0.171872
0.184133
0.157537
0.155005
0.208061
0.162362
2.43275e-06
7.92401e-06
0.00241419
0.000547266
8.01053e-06
4.85715e-07
1.55123e-06
0.140973
0.0678851
0.314706
0.147573
0.097195
0.065681
0.389194
0.151101
0.0433111
0.0482468
0.162205
0.109246
0.0447461
0.0352037
0.148564
0.10243
0.0141559
0.120397
0.04448
0.00423728
0.0371146
0.0159496
0.0986352
0.159153
0.0739275
0.100721
0.0505226
0.0904885
0.0667248
0.0867547
0.0499092
0.164581
0.191073
0.261503
0.136207
0.164837
0.190418
0.266916
0.135913
0.11204
0.111182
0.247106
0.160468
0.242731
0.154926
0.26403
0.302475
0.278512
0.168957
0.167571
0.173426
0.244677
0.158596
0.245185
0.154443
0.267632
0.280637
0.303524
0.168532
0.166738
0.173111
1.05159e-08
6.92443e-07
0.00026964
6.5107e-05
7.48048e-07
5.08622e-08
3.89814e-08
0.316527
0.469031
0.172773
0.198333
0.357967
0.148796
0.213664
0.296004
0.147896
0.153285
0.174411
0.10699
0.00717184
0.0322979
0.0394647
0.12422
0.0671517
0.0160386
0.00333835
0.00554434
0.00301555
0.0159284
0.0290745
0.0455604
0.0385375
0.00905164
0.00108555
0.00199271
0.132432
0.253794
0.254058
0.180104
0.214944