/*--------------------------------*- C++ -*----------------------------------*\
| =========                 |                                                 |
| \\      /  F ield         | OpenFOAM: The Open Source CFD Toolbox           |
|  \\    /   O peration     | Version:  5.x                                   |
|   \\  /    A nd           | Web:      www.OpenFOAM.org                      |
|    \\/     M anipulation  |                                                 |
\*---------------------------------------------------------------------------*/
FoamFile
{
    version     2.0;
    format      ascii;
    class       surfaceScalarField;
    location    "1.2";
    object      meshPhi;
}
// * * * * * * * * * * * * * * * * * * * * * * * * * * * * * * * * * * * * * //

dimensions      [0 3 -1 0 0 0 0];

internalField   nonuniform List<scalar> 
30582
(
0
0
0
0
0
0
0
0
0
0
0
0
0
0
0
0
0
0
0
0
0
0
0
0
0
0
0
0
0
0
0
0
0
0
0
0
0
0
0
0
0
0
0
0
0
0
0
0
0
0
0
0
0
0
0
0
0
0
0
0
0
0
0
0
0
0
0
0
0
0
0
0
0
0
0
0
0
0
0
0
0
0
0
0
0
0
0
0
0
0
0
0
0
0
0
0
0
0
0
0
0
0
0
0
0
0
0
0
0
0
0
0
0
0
0
0
0
0
0
0
0
0
0
0
0
0
0
0
0
0
0
0
0
0
0
0
0
0
0
0
0
0
0
0
0
0
0
0
0
0
0
0
0
0
0
0
0
0
0
0
0
0
0
0
0
0
0
0
0
0
0
0
0
0
0
0
0
0
0
0
0
0
0
0
0
0
0
0
0
0
0
0
0
0
0
0
0
0
0
0
0
0
0
0
0
0
0
0
0
0
0
0
0
0
0
0
0
0
0
0
0
0
0
0
0
0
0
0
0
0
0
0
0
0
0
0
0
0
0
0
0
0
0
0
0
0
0
0
0
0
0
0
0
0
0
0
0
0
0
0
0
0
0
0
0
0
0
0
0
0
0
0
0
0
0
0
0
0
0
0
0
0
0
0
0
0
0
0
0
0
0
0
0
0
0
0
0
0
0
0
0
0
0
0
0
0
0
0
0
0
0
0
0
0
0
0
0
0
0
0
0
0
0
0
0
0
0
0
0
0
0
0
0
0
0
0
0
0
0
0
0
0
0
0
0
0
0
0
0
0
0
0
0
0
0
0
0
0
0
0
0
0
0
0
0
0
0
0
0
0
0
0
0
0
0
0
0
0
0
0
0
0
0
0
0
0
0
0
0
0
0
0
0
0
0
0
0
0
0
0
0
0
0
0
0
0
0
0
0
0
0
0
0
0
0
0
0
0
0
0
0
0
0
0
0
0
0
0
0
0
0
0
0
0
0
0
0
0
0
0
0
0
0
0
0
0
0
0
0
0
0
0
0
0
0
0
0
0
0
0
0
0
0
0
0
0
0
0
0
0
0
0
0
0
0
0
0
0
0
0
0
0
0
0
0
0
0
0
0
0
0
0
0
0
0
0
0
0
0
0
0
0
0
0
0
0
0
0
0
0
0
0
0
0
0
0
0
0
0
0
0
0
0
0
0
0
0
0
0
0
0
0
0
0
0
0
0
0
0
0
0
0
0
0
0
0
0
0
0
0
0
0
0
0
0
0
0
0
0
0
0
0
0
0
0
0
0
0
0
0
0
0
0
0
0
0
0
0
0
0
0
0
0
0
0
0
0
0
0
0
0
0
0
0
0
0
0
0
0
0
0
0
0
0
0
0
0
0
0
0
0
0
0
0
0
0
0
0
0
0
0
0
0
0
0
0
0
0
0
0
0
0
0
0
0
0
0
0
0
0
0
0
0
0
0
0
0
0
0
0
0
0
0
0
0
0
0
0
0
0
0
0
0
0
0
0
0
0
0
0
0
0
0
0
0
0
0
0
0
0
0
0
0
0
0
0
0
0
0
0
0
0
0
0
0
0
0
0
0
0
0
0
0
0
0
0
0
0
0
0
0
0
0
0
0
0
0
0
0
0
0
0
0
0
0
0
0
0
0
0
0
0
0
0
0
0
0
0
0
0
0
0
0
0
0
0
0
0
0
0
0
0
0
0
0
0
0
0
0
0
0
0
0
0
0
0
0
0
0
0
0
0
0
0
0
0
0
0
0
0
0
0
0
0
0
0
0
0
0
0
0
0
0
0
0
0
0
0
0
0
0
0
0
0
0
0
0
0
0
0
0
0
0
0
0
0
0
0
0
0
0
0
0
0
0
0
0
0
0
0
0
0
0
0
0
0
0
0
0
0
0
0
0
0
0
0
0
0
0
0
0
0
0
0
0
0
0
0
0
0
0
0
0
0
0
0
0
0
0
0
0
0
0
0
0
0
0
0
0
0
0
0
0
0
0
0
0
0
0
0
0
0
0
0
0
0
0
0
0
0
0
0
0
0
0
0
0
0
0
0
0
0
0
0
0
0
0
0
0
0
0
0
0
0
0
0
0
0
0
0
0
0
0
0
0
0
0
0
0
0
0
0
0
0
0
0
0
0
0
0
0
0
0
0
0
0
0
0
0
0
0
0
0
0
0
0
0
0
0
0
0
0
0
0
0
0
0
0
0
0
0
0
0
0
0
0
0
0
0
0
0
0
0
0
0
0
0
0
0
0
0
0
0
0
0
0
0
0
0
0
0
0
0
0
0
0
0
0
0
0
0
0
0
0
0
0
0
0
0
0
0
0
0
0
0
0
0
0
0
0
0
0
0
0
0
0
0
0
0
0
0
0
0
0
0
0
0
0
0
0
0
0
0
0
0
0
0
0
0
0
0
0
0
0
0
0
0
0
0
0
0
0
0
0
0
0
0
0
0
0
0
0
0
0
0
0
0
0
0
0
0
0
0
0
0
0
0
0
0
0
0
0
0
0
0
0
0
0
0
0
0
0
0
0
0
0
0
0
0
0
0
0
0
0
0
0
0
0
0
0
0
0
0
0
0
0
0
0
0
0
0
0
0
0
0
0
0
0
0
0
0
0
0
0
0
0
0
0
0
0
0
0
0
0
0
0
0
0
0
0
0
0
0
0
0
0
0
0
0
0
0
0
0
0
0
0
0
0
0
0
0
0
0
0
0
0
0
0
0
0
0
0
0
0
0
0
0
0
0
0
0
0
0
0
0
0
0
0
0
0
0
0
0
0
0
0
0
0
0
0
0
0
0
0
0
0
0
0
0
0
0
0
0
0
0
0
0
0
0
0
0
0
0
0
0
0
0
0
0
0
0
0
0
0
0
0
0
0
0
0
0
0
0
0
0
0
0
0
0
0
0
0
0
0
0
0
0
0
0
0
0
0
0
0
0
0
0
0
0
0
0
0
0
0
0
0
0
0
0
0
0
0
0
0
0
0
0
0
0
0
0
0
0
0
0
0
0
0
0
0
0
0
0
0
0
0
0
0
0
0
0
0
0
0
0
0
0
0
0
0
0
0
0
0
0
0
0
0
0
0
0
0
0
0
0
0
0
0
0
0
0
0
0
0
0
0
0
0
0
0
0
0
0
0
0
0
0
0
0
0
0
0
0
0
0
0
0
0
0
0
0
0
0
0
0
0
0
0
0
0
0
0
0
0
0
0
0
0
0
0
0
0
0
0
0
0
0
0
0
0
0
0
0
0
0
0
0
0
0
0
0
0
0
0
0
0
0
0
0
0
0
0
0
0
0
0
0
0
0
0
0
0
0
0
0
0
0
0
0
0
0
0
0
0
0
0
0
0
0
0
0
2.73825e-18
-9.6573e-18
3.91837e-25
-2.89684e-17
-1.44813e-17
-1.93238e-17
0
0
0
0
0
0
0
0
0
0
0
0
0
0
0
0
0
0
0
0
0
0
0
0
0
0
0
0
0
0
0
0
0
0
0
0
0
0
-4.81727e-18
-1.51658e-34
7.02695e-19
-1.11649e-25
-2.41183e-17
1.93119e-17
2.69232e-18
-2.89684e-17
4.82738e-18
-2.8977e-17
1.39753e-18
3.06133e-25
4.82403e-17
-3.49677e-34
2.0695e-18
-2.8953e-17
-6.99807e-18
4.82551e-17
0
0
0
0
0
0
0
0
0
0
0
0
0
0
0
0
0
0
0
0
0
0
0
0
0
0
0
0
0
0
0
0
0
0
0
0
0
-8.02507e-19
4.15678e-18
-3.05032e-17
3.39062e-20
5.77267e-17
1.92248e-17
-3.85623e-17
1.26615e-35
1.37712e-18
-1.4471e-17
-1.75809e-33
7.10343e-19
-1.95195e-25
-2.40614e-17
0
-8.20086e-17
8.07062e-21
3.85922e-17
2.15574e-35
-6.74767e-19
-2.8953e-17
-6.99807e-18
2.89542e-17
4.35432e-20
-3.07159e-24
2.88789e-17
-2.69532e-34
6.33672e-21
3.85018e-17
0
0
0
0
0
0
0
0
0
0
0
0
0
0
0
0
0
0
0
0
0
0
0
0
0
0
0
0
0
0
0
0
0
0
0
-1.51514e-17
-2.8876e-17
-1.92217e-17
-4.86699e-18
-4.93227e-20
-2.2707e-34
-8.68853e-20
-5.20786e-20
-3.37055e-17
-1.10872e-17
2.66063e-18
1.89879e-17
1.74942e-34
-2.32117e-19
-1.4389e-17
2.59347e-18
1.91869e-17
-1.03843e-34
-7.61231e-20
4.81723e-18
0
-4.12923e-19
-8.39042e-24
-8.38619e-18
1.43683e-17
-1.07794e-17
1.43887e-17
0
0
-2.00511e-18
4.12018e-18
-1.96995e-17
-1.22822e-20
-2.89311e-17
-9.58424e-18
5.77267e-17
8.70864e-20
3.85052e-17
2.1922e-34
9.63175e-18
7.70426e-17
0
3.90476e-24
-2.15701e-17
2.39396e-18
-2.15557e-17
4.80542e-18
0
9.61382e-18
-2.48231e-18
9.69148e-18
-9.60967e-18
1.20195e-17
-9.67752e-18
1.21454e-17
-2.41243e-18
0
0
0
0
0
0
0
0
0
0
0
0
0
0
0
0
0
0
0
0
0
0
0
0
0
0
0
0
0
0
0
0
0
1.3289e-17
-2.41598e-17
1.92867e-17
-1.44788e-17
-9.77467e-18
7.60166e-35
4.15626e-18
-2.88441e-17
-2.62524e-18
3.83732e-17
2.84725e-34
-9.78441e-18
-1.45013e-17
0
3.87575e-17
-9.88233e-36
2.05859e-11
5.54215e-12
2.05912e-09
-8.28175e-14
3.04226e-13
-1.61544e-08
-2.35738e-13
-1.63501e-08
1.43558e-10
-8.74821e-19
1.69057e-19
-5.52671e-19
-1.69799e-19
4.88376e-18
-1.87133e-17
-1.22699e-18
-1.15901e-17
-2.23087e-18
-3.61078e-34
3.09789e-16
-9.55675e-13
-1.59825e-08
1.27574e-14
-3.2256e-08
-6.7538e-19
-1.17184e-18
-2.6239e-17
-4.7814e-18
-3.34629e-17
0
3.74008e-19
-1.07897e-17
4.79326e-18
-1.55657e-17
9.58245e-18
-7.84709e-19
-8.021e-20
0
5.00256e-19
-8.35921e-18
0
-8.08499e-19
-1.65642e-23
3.57558e-18
0
-2.51845e-22
5.61853e-16
-9.3619e-19
9.54488e-18
0
0
3.94105e-17
-4.86713e-18
-9.73538e-18
1.66905e-20
-1.92217e-17
0
-1.38167e-18
-1.2592e-18
-4.79404e-18
6.92524e-18
2.59336e-18
7.86079e-34
0
-1.57255e-22
-1.44002e-17
2.7652e-18
9.5739e-18
7.97199e-20
-1.31786e-17
4.78865e-18
-8.38483e-18
4.7991e-18
0
9.60589e-18
-4.88488e-18
1.44955e-17
-9.60379e-18
1.44108e-17
-1.20914e-17
1.2122e-17
-4.808e-18
-1.1887e-18
-8.00952e-20
1.36432e-18
-8.34673e-18
0
-7.97967e-20
8.36074e-26
8.35038e-18
9.29199e-26
-5.96468e-18
0
-1.65375e-21
1.35744e-18
0
0
-1.90818e-17
7.9408e-20
1.29147e-18
-9.55664e-13
0
-1.35144e-10
1.42648e-17
9.75845e-19
-1.59412e-19
-1.66712e-17
-7.92248e-20
1.29092e-18
9.61238e-18
-3.61764e-17
9.54675e-18
0
0
0
0
0
0
0
0
0
0
0
0
0
0
0
0
0
0
0
0
0
0
0
0
0
0
0
0
0
0
0
-5.37164e-18
-1.67871e-20
9.60495e-18
-9.78505e-18
9.7392e-18
2.42759e-35
1.21688e-18
1.45382e-17
-1.3527e-17
3.85767e-17
3.41765e-35
9.46829e-20
-4.79699e-18
-1.11599e-17
1.92348e-17
-1.06975e-25
-4.63709e-09
3.44046e-12
-1.44901e-08
-7.99314e-11
-1.58938e-08
-1.01384e-08
4.71874e-18
-1.93023e-17
-1.51449e-12
1.16163e-10
3.71726e-27
4.51851e-09
-3.77866e-10
-1.45805e-09
1.34784e-10
-4.6487e-10
9.87761e-09
1.39503e-12
7.22746e-10
1.23178e-12
-2.36746e-10
-6.82732e-20
-4.14986e-19
8.27511e-19
9.74785e-13
7.81202e-20
2.22993e-13
1.41766e-13
-2.14403e-16
1.18492e-34
1.72104e-08
3.07177e-16
6.53997e-20
-5.16067e-13
-1.92318e-17
3.32684e-34
9.08684e-11
4.77533e-18
0
-2.09497e-09
-1.58654e-08
-7.80766e-20
4.77584e-19
9.68466e-18
0
-6.02227e-19
7.49462e-20
-1.04583e-17
1.2759e-18
-3.97998e-18
-6.07914e-19
6.53651e-20
1.74152e-19
-1.44192e-17
1.17848e-18
2.28179e-17
-4.95567e-19
-1.67843e-17
0
5.09696e-13
-6.88091e-12
-1.27425e-12
-4.54904e-11
-1.13018e-34
-1.90242e-08
2.01348e-09
3.72512e-24
-1.91957e-17
4.2283e-35
1.56247e-17
0
-5.1764e-19
-1.36196e-18
-4.68227e-18
9.65175e-19
1.11873e-17
-4.03229e-18
-6.75411e-20
-9.58685e-18
1.80159e-17
-6.55849e-19
-8.02101e-20
0
1.00271e-18
-1.07537e-17
-7.99187e-20
-7.20496e-19
1.31182e-17
0
5.49921e-16
-5.30134e-19
1.91312e-17
2.17439e-09
0
0
-2.04901e-09
-2.46862e-11
-7.9262e-20
-1.14682e-13
-3.34974e-22
3.05132e-13
0
-1.76627e-21
-1.60221e-08
-7.64561e-14
1.59376e-14
0
0
1.3289e-17
-1.45593e-17
9.61197e-18
4.87297e-18
9.57673e-18
-4.52209e-34
-3.99239e-18
-1.30809e-18
-9.72294e-18
2.84384e-18
-1.05979e-19
0
5.39348e-34
-4.84806e-18
0
0
-7.34901e-17
-1.77772e-08
3.82273e-12
-1.71453e-08
2.39056e-18
2.06697e-15
2.37321e-18
-6.75298e-19
9.46288e-18
-1.20881e-17
4.78125e-18
-2.62873e-17
0
1.95915e-12
1.42038e-10
-7.0073e-14
1.24398e-12
-1.68376e-08
9.7846e-18
3.31329e-15
2.2393e-09
-1.00375e-21
-2.2801e-18
1.18931e-18
-3.19016e-20
-4.0943e-17
5.99944e-18
-3.85879e-17
-3.82343e-18
-9.71942e-19
-8.00955e-20
1.38512e-18
-2.51027e-17
-7.97758e-20
-7.98008e-20
1.1929e-18
-1.43148e-17
-5.75741e-37
2.39366e-18
9.7603e-19
-1.59638e-19
0
-2.38632e-17
-1.90375e-24
1.43755e-18
-5.22418e-13
0
-1.6318e-08
1.66792e-17
1.26793e-18
-7.97048e-20
-2.74454e-17
0
1.40274e-18
2.39093e-18
-1.67532e-17
-1.03173e-33
-6.38714e-19
1.60746e-19
2.78988e-18
-2.63405e-17
0
-2.9043e-19
2.15573e-24
9.85445e-22
9.95799e-24
-4.74793e-17
-9.79643e-20
2.39325e-18
0
0
1.59714e-08
1.54507e-13
7.97858e-20
-9.35695e-18
3.52632e-18
0
0
0
0
0
0
0
0
0
0
0
0
0
0
0
0
0
0
0
0
0
0
0
0
0
0
0
0
0
1.64794e-17
-2.41807e-17
2.25795e-20
4.80748e-18
4.56976e-20
8.62275e-34
2.40234e-18
-1.9189e-17
-2.17702e-17
1.91373e-17
1.32365e-33
-5.73665e-18
1.93527e-17
-5.73842e-18
1.89658e-17
3.81591e-26
4.42872e-09
-1.55402e-10
1.63528e-08
3.97016e-09
1.63575e-08
9.68277e-09
-9.01261e-13
3.02413e-10
7.96406e-13
-7.93031e-09
1.16258e-26
-6.55717e-11
4.09919e-09
-1.64226e-08
4.02658e-09
-1.62739e-08
-1.39262e-10
-3.94218e-13
-8.20992e-09
-7.36668e-13
-8.04648e-09
1.82011e-24
-6.18007e-12
1.27423e-12
-1.97868e-08
1.07712e-34
2.01186e-09
7.51805e-20
5.04755e-09
-3.08629e-17
-1.4886e-26
1.79323e-12
2.13468e-17
0
3.49161e-18
-4.91924e-18
-6.51647e-19
1.26176e-17
7.50878e-20
-1.90473e-12
-1.18628e-17
-1.00939e-08
3.43677e-17
1.93282e-24
6.88091e-12
-4.78074e-09
-1.43177e-17
1.96667e-08
-1.477e-26
-1.78573e-12
1.10297e-15
2.81948e-24
-2.43804e-17
1.40047e-26
1.21353e-17
1.51926e-19
1.47759e-18
1.78526e-12
-8.63586e-18
-7.09694e-18
9.56005e-09
-6.48513e-18
-7.70817e-20
-1.46281e-17
1.93937e-17
5.83419e-20
-4.45985e-13
3.86675e-25
2.41644e-18
5.11804e-17
7.76725e-35
-1.28003e-34
-2.72293e-09
2.72066e-20
-6.37111e-14
4.56351e-34
8.61669e-09
1.41803e-33
-5.23217e-20
3.09693e-34
8.05391e-19
1.13353e-18
-1.99049e-18
2.72242e-20
4.78312e-19
-1.89986e-19
-5.30955e-25
-9.12494e-19
-2.27557e-19
1.25312e-18
1.36307e-35
-1.82759e-16
-3.54265e-20
4.58497e-34
4.17805e-34
-1.35724e-19
7.71495e-19
1.22488e-18
2.27303e-18
0
-8.00733e-11
-8.03967e-20
0
-2.11736e-09
1.61697e-08
-1.58517e-19
-5.63085e-19
-1.34309e-14
0
1.60368e-08
-3.18575e-14
1.51323e-13
1.19652e-09
-4.39994e-20
-7.70091e-34
-1.34635e-09
0
1.14682e-13
1.85195e-21
-3.61123e-34
3.18858e-21
7.64546e-14
0
0
-5.59769e-18
-9.73755e-18
1.41494e-32
9.62102e-18
9.63801e-18
-1.39841e-35
-8.29695e-18
3.81176e-19
-4.77398e-18
1.34349e-17
-1.13527e-17
5.77526e-17
-1.22189e-35
-4.7499e-18
3.8512e-17
-1.63009e-26
4.63704e-09
4.51857e-09
-3.82134e-10
-1.80243e-08
1.38121e-10
-1.67973e-08
1.01385e-08
9.87761e-09
1.4468e-12
7.22722e-10
1.22911e-12
-2.3677e-10
4.69083e-25
1.17867e-12
-3.1875e-08
-7.97091e-11
-1.58939e-08
3.53889e-18
-1.44766e-17
-1.5198e-12
1.16115e-10
6.98541e-20
6.09624e-19
6.83312e-12
4.45987e-13
1.50073e-16
0
1.90238e-08
1.58144e-08
-6.75748e-20
-6.62419e-19
-1.68149e-17
0
7.76233e-17
1.43376e-17
-6.98013e-20
-3.32657e-19
-6.94634e-19
-3.71479e-20
-4.87437e-19
4.7822e-18
-6.09452e-18
6.75333e-20
-6.76245e-19
-7.18487e-18
9.22943e-19
2.27556e-17
0
1.63395e-18
6.53049e-13
9.74783e-13
1.56234e-19
-1.46537e-13
-2.40505e-13
-1.55407e-17
0
1.72103e-08
3.51033e-09
-6.54036e-20
-2.39328e-17
0
2.03466e-17
0
2.46762e-10
-3.31203e-08
6.82691e-20
5.67983e-19
-3.89007e-19
2.47725e-19
-7.80767e-20
2.96346e-19
4.83588e-18
-5.11275e-19
4.41501e-18
-3.97986e-18
-6.53647e-20
-9.60665e-18
1.07028e-17
-4.33626e-19
-3.12665e-17
-1.34645e-18
8.03722e-20
3.3118e-18
-3.35188e-17
-2.01948e-33
-1.5812e-19
2.37354e-18
-2.61184e-17
2.26036e-19
1.09458e-21
7.98102e-20
0
-1.60793e-08
-3.96602e-13
7.9787e-20
-2.82511e-17
3.53629e-18
4.17777e-19
4.39689e-20
5.37417e-19
4.16342e-20
-1.03159e-19
5.3968e-24
-3.02141e-23
5.40437e-20
1.38618e-24
-1.65208e-34
4.75133e-20
0
0
0
0
0
0
0
0
0
0
0
0
0
0
0
0
0
0
0
0
0
0
0
0
0
0
0
0
-7.24332e-17
-7.98935e-34
-8.39615e-18
9.69307e-18
-2.71456e-17
9.54193e-18
-3.62601e-33
-8.0848e-18
-4.77033e-18
1.64725e-17
2.89306e-17
4.7495e-25
5.68027e-18
-3.80309e-09
-2.72495e-17
-8.32298e-09
5.98858e-34
1.3664e-17
-2.40671e-17
-2.82531e-17
4.81351e-17
7.3885e-20
2.42106e-12
1.10002e-17
2.56154e-10
0
1.10313e-15
7.49739e-20
-4.84633e-09
2.39699e-17
0
-2.42902e-12
-9.59955e-18
-1.47646e-19
7.28862e-19
3.62065e-18
7.62148e-18
-2.15254e-17
7.48912e-20
1.63262e-12
1.59657e-20
9.68953e-09
-1.79919e-17
2.29198e-19
3.24932e-12
1.03411e-10
-2.48475e-12
4.45109e-10
0
-4.42592e-10
-1.6425e-08
1.52025e-19
2.39911e-17
0
-8.35324e-18
7.63082e-20
2.38833e-18
-5.41556e-13
9.64126e-18
-2.75936e-18
-2.194e-10
-2.64394e-17
7.59397e-20
1.19901e-17
-1.79628e-17
0
-3.18557e-13
-4.35154e-11
1.3105e-34
-4.60387e-20
-3.18557e-13
3.71536e-34
1.04432e-10
-4.07573e-20
8.33072e-19
-1.72101e-18
4.60645e-20
1.01091e-18
-2.67588e-18
7.27876e-20
5.51011e-18
-1.2423e-18
-1.22449e-17
4.68271e-16
1.21879e-34
-1.40126e-16
-2.54998e-15
1.76857e-24
5.37794e-34
-7.27915e-20
-1.3671e-19
6.70195e-19
-1.32947e-18
-6.4666e-18
1.34037e-18
3.70927e-17
5.93349e-20
-8.12536e-11
-4.39986e-20
-5.20953e-34
-1.16903e-09
-4.16598e-20
6.84904e-14
-2.38345e-34
3.18559e-14
0
0
-2.71999e-17
4.81875e-18
9.6801e-18
1.44451e-17
-1.93297e-17
8.89334e-35
-2.40234e-18
-1.11912e-17
8.87732e-20
1.63987e-17
6.60306e-32
3.84676e-17
6.05513e-34
-9.51621e-18
3.84308e-17
-5.15957e-27
-4.42893e-09
1.5381e-17
5.56685e-12
1.6423e-08
4.01861e-09
1.62753e-08
-9.68299e-09
-1.91178e-17
4.83033e-18
-1.44826e-17
-7.00825e-13
-8.04664e-09
-3.81591e-26
-1.55215e-10
1.63527e-08
3.97038e-09
1.63576e-08
-9.05232e-13
3.02378e-10
7.96403e-13
-7.93031e-09
-7.60433e-20
8.79227e-12
-4.78065e-09
-9.38314e-18
1.99826e-08
0
-1.78572e-12
1.1008e-15
0
-5.04736e-09
-2.68542e-17
0
-1.73881e-12
4.98822e-18
0
1.54725e-18
1.78526e-12
-8.85579e-18
-1.03243e-17
9.56005e-09
-1.51331e-18
0
1.85031e-12
-9.82609e-18
1.00939e-08
1.95236e-17
7.25602e-20
-6.43492e-12
-4.45988e-13
-1.97868e-08
0
1.58624e-08
1.50354e-19
-1.44275e-17
0
1.07511e-17
6.62762e-34
2.17343e-18
2.19934e-18
-7.39286e-19
-1.28403e-17
-7.50884e-20
-7.16723e-18
2.25981e-17
0
-6.37126e-14
-2.08657e-12
9.75614e-09
0
-1.04217e-08
0
1.46536e-13
0
-7.71208e-09
2.88107e-33
9.11081e-20
1.04309e-20
-6.6379e-19
1.13675e-18
0
-4.78341e-19
2.00485e-18
0
-1.35388e-13
3.86677e-25
3.45253e-18
5.04588e-17
0
-2.9202e-34
-1.40928e-09
-2.71965e-20
0
-5.83197e-20
-1.22393e-19
3.12597e-34
2.86924e-19
-3.71921e-18
8.53303e-19
0
-7.89122e-19
0
1.29106e-18
4.16362e-20
1.21115e-20
5.55246e-20
9.50592e-20
-3.79816e-34
0
0
0
0
0
0
0
0
0
0
0
0
0
0
0
0
0
0
0
0
0
0
0
0
0
0
0
0
-2.86246e-18
0
2.15094e-17
1.93217e-17
3.86067e-17
7.67492e-22
1.93085e-17
2.85164e-33
2.80819e-18
-4.8559e-18
-1.02249e-17
2.87055e-17
2.01791e-33
-9.6698e-18
3.85456e-17
0
2.75152e-18
1.0194e-12
4.62025e-10
-1.45213e-17
1.56891e-17
5.32504e-16
7.14189e-18
1.12049e-18
2.89095e-18
-1.5224e-17
-1.68808e-17
7.17281e-18
-2.14763e-17
3.25008e-20
0
-1.16231e-18
-3.4967e-18
1.693e-17
-8.30385e-18
1.92445e-17
-1.36325e-17
-1.07834e-17
-7.27575e-18
-2.04122e-17
0
7.00548e-20
2.06648e-19
1.53419e-17
3.22075e-18
0
-3.67436e-17
0
-6.9958e-18
1.66253e-17
0
6.06951e-18
-1.42034e-17
0
1.4006e-18
-1.18615e-18
1.352e-18
-1.28522e-17
7.38846e-20
-6.69048e-19
2.29618e-18
7.11074e-18
-2.2667e-17
7.73672e-20
8.75495e-18
5.52192e-18
-5.35355e-18
0
5.13373e-16
-8.83276e-34
4.68271e-18
0
-3.51207e-18
6.8881e-34
-1.77924e-18
-4.96188e-18
-8.05456e-18
-2.02019e-17
7.71147e-20
7.15098e-18
-1.0624e-17
5.49798e-32
1.98891e-18
4.21688e-35
1.52047e-16
-6.46193e-34
-1.58836e-18
-3.26444e-18
0
0
0
-7.24483e-17
1.5486e-33
1.13962e-19
-2.56969e-18
4.85454e-18
1.05814e-17
2.19127e-17
1.93624e-17
9.52279e-34
1.00651e-19
3.85217e-17
-7.24684e-36
-1.91489e-19
1.3849e-17
-2.4067e-17
1.66567e-17
-2.75135e-17
9.34236e-18
3.90427e-35
1.57082e-17
2.39177e-18
-7.63988e-20
-3.24931e-12
6.33139e-12
2.48478e-12
-4.45108e-10
0
4.43133e-10
1.6425e-08
0
4.84624e-09
2.1583e-17
0
2.44495e-12
-1.91679e-17
-7.6308e-20
2.88988e-18
-2.71721e-18
7.25226e-18
-6.70842e-18
7.21878e-18
-1.7973e-17
0
-1.63262e-12
7.19454e-18
-9.68927e-09
-2.5198e-17
-1.29039e-24
2.61219e-12
1.08998e-17
2.5664e-10
0
1.09474e-15
-7.49799e-20
2.6379e-17
0
-1.20197e-17
-7.38222e-20
-3.04506e-18
1.08024e-17
5.37944e-18
-2.61919e-17
-7.48887e-20
9.58874e-18
-1.68087e-17
7.27895e-20
6.4924e-18
7.89428e-20
-4.23295e-18
4.6751e-16
0
-1.37621e-16
-3.09308e-15
0
3.18557e-13
0
-1.04432e-10
0
1.37073e-18
1.32131e-18
2.57273e-18
-8.79688e-18
2.65568e-18
3.20268e-17
-1.1867e-19
-1.01091e-18
2.67588e-18
8.14676e-20
-3.18558e-13
-4.35154e-11
0
0
0
3.65662e-33
1.24316e-18
-2.11152e-18
4.60643e-20
0
0
0
0
0
0
0
0
0
0
0
0
0
0
0
0
0
0
0
0
0
0
0
0
0
0
1.45347e-17
-5.13016e-33
-1.11014e-17
-1.6019e-17
-4.75576e-18
-1.56756e-17
1.65275e-17
4.82653e-17
-7.25203e-33
1.93961e-17
4.8199e-18
0
2.89793e-17
-3.95765e-25
-2.72383e-18
-4.06792e-09
3.26526e-13
-5.46928e-12
-4.13502e-09
-5.44857e-18
-3.26522e-13
8.13584e-09
8.24605e-09
-8.16311e-13
-1.89919e-33
-4.98061e-18
9.36645e-18
2.04074e-19
-7.42503e-20
0
-4.80785e-18
1.44433e-17
7.09288e-20
1.54315e-18
-2.10249e-12
-7.00836e-13
0
-1.8375e-08
-1.63958e-08
2.74988e-18
-4.85114e-18
1.70053e-18
-8.94157e-35
-1.03767e-17
9.68443e-18
0
1.45162e-18
1.71371e-20
-7.12188e-18
-9.56989e-18
1.54409e-17
2.82398e-18
4.79016e-18
1.52461e-17
-7.51077e-20
0
-2.14774e-18
7.51141e-20
1.62671e-17
9.14268e-12
2.61221e-12
0
6.86354e-10
1.61406e-08
9.64082e-18
2.2667e-17
-1.501e-19
-1.19203e-17
-7.50206e-20
4.20981e-18
-7.32331e-19
-2.36677e-18
7.13252e-18
-1.80265e-17
2.38437e-18
-2.95246e-20
2.16562e-18
-9.40875e-19
0
0
-1.47232e-18
0
9.80408e-19
-2.95501e-20
-4.97622e-19
-7.89138e-19
-4.37164e-20
-1.4798e-18
2.71309e-18
-3.74421e-24
8.28262e-13
-2.54855e-13
-1.67839e-08
0
-3.39684e-08
-5.79342e-20
0
2.47957e-33
-3.47018e-19
-9.22382e-18
-6.98484e-18
2.95302e-17
1.15886e-19
0
0
0
0
2.78898e-18
5.57796e-18
2.18142e-17
9.71215e-18
6.77586e-17
-4.83976e-18
2.90017e-17
-1.82279e-33
-2.64065e-18
1.45203e-17
2.14565e-17
2.89088e-17
-1.84702e-33
-2.40214e-17
4.82124e-17
0
-2.47029e-18
-2.93659e-18
-1.19683e-17
1.08315e-17
-1.07561e-17
9.64587e-18
0
-3.29601e-17
-1.7964e-17
1.09048e-17
-1.55471e-17
2.41834e-18
0
2.65998e-12
1.90795e-08
-5.99962e-18
4.45985e-12
-9.06856e-11
2.32317e-18
1.30904e-18
-2.01072e-17
-5.95439e-18
4.77334e-18
-1.06841e-17
7.20985e-18
7.73619e-20
6.80073e-18
-4.45984e-12
-6.75256e-18
0
-1.21764e-09
1.54291e-19
5.35286e-18
1.90139e-17
0
-3.20187e-18
-3.5462e-18
-1.54645e-19
3.44778e-18
-4.45363e-20
-6.41731e-18
-5.2718e-18
-7.71223e-20
2.00735e-18
-2.39027e-18
-6.66152e-18
-1.42389e-17
0
-3.26763e-18
3.46194e-18
3.73472e-18
0
-5.17118e-16
7.39147e-20
1.19324e-17
0
-2.29579e-18
-1.40064e-19
-5.25583e-19
9.48796e-18
4.43519e-18
4.89269e-18
-1.47772e-19
9.28448e-18
-8.43787e-18
1.27966e-31
1.19508e-18
0
2.42406e-16
-3.45857e-34
-9.26625e-19
-8.82366e-19
0
0
0
0
0
0
0
0
0
0
0
0
0
0
0
0
0
0
0
0
0
0
0
0
-5.05291e-18
0
2.73586e-17
-1.92893e-17
2.90319e-17
1.43802e-17
1.92334e-17
1.46787e-24
-4.6277e-09
4.41416e-09
-3.97384e-09
-5.29641e-13
4.35353e-09
2.88027e-12
-1.00971e-08
9.65316e-09
5.29612e-13
7.94813e-09
-2.88031e-12
-8.70788e-09
-4.62207e-24
-3.90891e-09
-8.52896e-09
-7.62608e-20
-1.77189e-10
-2.61218e-12
-1.29414e-12
1.07744e-25
1.6244e-08
7.77283e-20
2.3084e-25
-2.0016e-08
-4.33805e-10
7.58173e-12
-7.58171e-12
0
8.16305e-13
7.21114e-18
3.53088e-10
-2.16302e-17
-1.55175e-19
1.21752e-17
-4.31563e-17
1.18017e-19
7.23866e-18
3.02767e-26
1.9978e-08
4.84212e-12
-3.89971e-09
7.62274e-13
6.10691e-18
2.74982e-15
-1.88489e-17
1.60174e-18
-7.60565e-13
7.79937e-09
-2.48659e-18
-2.90196e-17
1.24575e-08
5.55859e-20
0
1.35101e-09
-6.8628e-20
-1.27418e-13
1.75208e-13
0
-1.95532e-08
3.82275e-13
6.38559e-18
0
5.04599e-18
-1.6154e-33
-9.41204e-22
-1.65908e-18
4.91413e-18
5.67632e-19
-1.86694e-08
7.37382e-20
0
1.75053e-08
-7.23642e-20
-1.33794e-12
-2.15029e-12
-5.09703e-13
0
-1.9146e-08
2.58983e-09
-2.0707e-13
1.85755e-17
-1.47508e-19
1.04943e-17
7.23288e-20
2.77822e-18
-2.61768e-18
-1.05976e-18
2.14144e-17
1.16068e-18
-5.21525e-18
2.08271e-24
0
-5.75813e-34
0
0
0
0
0
1.45347e-17
5.74138e-33
2.78463e-19
-8.19884e-18
-1.45177e-17
1.58615e-17
0
2.89795e-17
1.66953e-33
-2.33137e-18
-4.86791e-17
1.62731e-17
2.88884e-17
7.99745e-34
-2.72622e-18
-1.9273e-17
1.03384e-17
1.94588e-17
7.23259e-25
-4.08643e-09
1.19725e-12
-1.89112e-11
-4.29186e-09
-1.19725e-12
8.17405e-09
8.50221e-09
-2.39451e-12
8.95957e-18
7.51083e-20
0
7.81123e-18
-2.4884e-18
-2.285e-24
7.78678e-18
-2.0948e-11
-6.37119e-12
0
-1.98322e-08
8.72298e-11
-1.13069e-17
2.59331e-19
1.42183e-17
7.50533e-20
1.10985e-17
-1.40067e-18
0
5.63222e-18
-2.14905e-18
2.4202e-18
0
-9.57332e-18
-4.27341e-18
-7.25619e-18
1.97497e-18
1.05405e-33
0
1.56508e-17
4.33127e-24
-1.80982e-19
5.73409e-12
1.59279e-12
0
3.68785e-08
4.80428e-10
-1.92628e-17
-1.61015e-18
0
2.28725e-17
0
-1.31663e-18
6.95178e-19
3.60603e-18
-1.77471e-17
2.36527e-17
-7.23668e-18
7.47861e-20
6.37122e-13
-2.66e-12
1.46938e-09
0
-1.90436e-08
-5.64603e-24
-3.82271e-13
0
-1.33616e-08
7.47875e-20
-2.27681e-19
-2.68805e-18
-5.17602e-18
2.6748e-17
-5.79423e-20
4.91194e-19
-2.97299e-18
2.95207e-20
2.33688e-18
-9.4085e-19
0
-7.49853e-25
0
0
1.62794e-18
-1.735e-18
4.3706e-20
0
0
0
0
0
0
0
0
0
0
0
0
0
0
0
0
0
0
0
0
-1.65252e-17
3.06527e-22
9.78803e-18
-9.76612e-18
9.61961e-18
1.27744e-33
1.36331e-17
-1.37491e-17
-2.18513e-21
-1.5997e-17
0
1.93463e-17
1.94234e-33
-1.19419e-19
-1.46923e-17
2.39177e-19
4.02624e-17
-8.51175e-26
-1.37241e-17
-4.70923e-09
1.68992e-17
-6.36354e-16
0
-9.66431e-13
2.2057e-15
7.67524e-20
5.1608e-09
1.42264e-17
0
6.27299e-12
-1.67032e-17
7.58617e-20
-2.83274e-18
9.67627e-13
-1.40008e-19
1.99344e-17
9.41751e-09
-3.19246e-17
0
-5.0067e-12
2.2927e-18
-1.03156e-08
-2.37622e-17
0
6.46673e-18
-5.87541e-18
-4.77183e-18
-1.21627e-17
8.72584e-18
-9.54394e-18
-1.73502e-18
-1.18895e-17
3.57771e-18
0
1.71826e-17
9.54203e-18
7.6858e-20
1.1468e-12
3.8939e-18
2.04973e-08
-1.63234e-33
3.16423e-17
-7.88006e-20
-3.30228e-33
9.53197e-10
3.88644e-12
-1.54939e-33
-3.27853e-18
3.57163e-18
2.05272e-17
-7.78141e-18
7.87703e-20
-1.19343e-17
1.05273e-18
-7.66303e-20
8.44999e-18
2.125e-17
-5.80131e-17
0
2.194e-15
-7.48311e-20
-5.71756e-18
-4.81998e-18
0
-4.08445e-17
-4.69561e-18
7.65293e-20
-8.8039e-19
7.5454e-20
-9.03158e-18
-4.33329e-17
7.48052e-20
-1.18046e-18
4.89197e-18
2.73393e-18
-1.17832e-18
-2.99679e-09
-1.4239e-24
0
-1.47677e-24
-4.77837e-14
-3.44046e-12
0
-2.59346e-08
1.8783e-18
1.10698e-33
-3.45838e-20
8.48682e-19
-9.99912e-19
7.90891e-18
0
0
0
0
0
0
-1.63741e-17
0
-6.0483e-17
4.49617e-18
1.00663e-17
9.54764e-18
1.93876e-17
1.81085e-24
4.50049e-09
-7.72104e-11
9.82795e-09
-1.52388e-10
-2.23077e-24
-1.52357e-10
-4.1112e-09
-6.01596e-10
1.70425e-10
-7.88955e-10
-3.2693e-10
-5.03058e-13
8.25327e-09
-1.89675e-12
-3.87839e-10
-5.63735e-27
-1.92353e-08
4.96955e-12
-4.22363e-09
-1.79676e-08
-3.83865e-12
-1.74586e-08
1.60874e-12
8.33427e-10
-7.2768e-18
1.1734e-19
9.45068e-13
8.38582e-09
1.29143e-18
-4.35017e-18
1.35443e-18
-1.61376e-17
-7.62656e-20
-5.14975e-09
6.37121e-12
-4.68018e-12
1.3972e-25
-6.37919e-12
-7.77322e-20
7.05747e-26
-1.60067e-08
4.96954e-12
7.62019e-20
2.39451e-12
7.211e-18
1.02924e-08
-3.60058e-18
7.75809e-20
-5.75452e-18
9.7029e-18
1.86697e-08
0
0
-1.67043e-08
-1.7416e-08
0
7.00836e-13
-8.66485e-12
-1.85269e-18
0
-3.97544e-08
-6.1346e-17
5.73406e-13
3.02624e-13
1.88138e-18
0
-2.30541e-18
2.65085e-18
-7.23356e-20
5.55796e-18
-4.19624e-18
-2.36087e-18
2.72593e-18
-4.62584e-18
-6.18001e-18
1.29591e-18
-1.21145e-08
0
0
-3.43131e-20
-1.27421e-13
1.95915e-12
0
5.04643e-09
8.76285e-18
5.55965e-20
0
-7.69579e-20
-4.68166e-19
7.05919e-18
-3.27776e-24
0
-4.23579e-34
0
0
0
0
0
0
0
0
0
0
0
0
0
0
0
0
0
-1.94732e-17
4.68601e-35
1.10646e-17
5.52413e-18
1.70444e-19
1.97135e-17
-1.34792e-34
-3.46811e-19
1.4946e-19
-1.10643e-17
2.92859e-17
9.93036e-25
4.45424e-09
-1.5052e-11
-1.87525e-08
2.03878e-12
-2.30956e-12
3.36359e-08
-1.49873e-10
1.65732e-08
-1.84994e-08
9.74428e-09
-1.91554e-19
-1.30573e-17
-1.36953e-18
-2.48925e-18
-2.99814e-18
9.80224e-18
1.26097e-12
3.20404e-10
-2.92234e-24
4.57153e-09
-4.53118e-09
-1.70566e-08
-1.74109e-10
-1.67235e-08
9.97568e-09
3.57983e-12
9.02617e-09
-4.68549e-13
3.61164e-10
0
-1.69877e-17
3.63159e-12
9.55678e-13
1.49287e-17
0
1.90289e-08
3.54e-11
0
1.43778e-17
0
-1.19191e-17
9.66763e-34
-3.16356e-18
6.68029e-19
-3.5854e-18
1.98396e-17
-5.11799e-18
-5.87625e-24
0
7.23961e-18
-1.0775e-17
-8.19275e-18
-7.3646e-20
0
1.93124e-18
1.67526e-17
2.34004e-19
-1.03059e-17
1.27423e-12
0
-1.58341e-08
-3.96572e-18
-2.8598e-17
-1.12323e-17
7.36097e-20
-2.0925e-19
2.62668e-17
7.77851e-20
-1.32136e-18
-3.59142e-18
9.03255e-18
-1.0404e-19
-9.40526e-18
5.91613e-24
-1.14682e-12
1.87892e-08
0
7.71143e-20
0
1.97145e-17
-1.30534e-17
-1.14225e-19
1.01111e-18
1.34099e-17
-1.49099e-33
3.81714e-17
-5.24003e-18
-4.03514e-24
2.54854e-13
-1.51317e-12
1.05978e-09
0
-1.69208e-08
-4.79037e-20
3.82266e-13
0
1.07675e-08
-7.33973e-20
-1.56921e-19
-6.43122e-18
-1.57255e-17
2.03768e-17
0
-3.71944e-19
9.40254e-18
0
0
0
0
0
0
-6.05302e-17
-9.76612e-18
-1.93875e-17
1.93791e-17
9.78803e-18
-6.19036e-34
-1.36334e-17
-1.08073e-17
-2.46419e-17
3.88375e-17
-9.65956e-32
1.89703e-17
6.95156e-35
3.14109e-18
1.80598e-21
0
-1.03772e-18
0
-4.94486e-09
-3.96741e-12
-8.34716e-18
7.38974e-22
4.837e-18
9.54431e-18
-8.51754e-18
5.28428e-18
3.21082e-12
9.8861e-09
-8.3489e-18
0
-1.83753e-19
9.54209e-18
-1.01536e-17
-5.97461e-18
7.59196e-20
-1.00665e-11
1.68868e-10
9.47183e-18
-1.94971e-08
0
1.08911e-12
-1.00148e-16
7.67553e-20
2.15759e-17
0
-2.03232e-17
-4.96723e-25
-7.47507e-18
-1.08841e-12
1.317e-17
1.95297e-17
-3.36973e-10
-1.52108e-17
-7.66263e-20
1.21511e-17
-1.90315e-17
7.66306e-20
9.68423e-12
6.89252e-18
1.99262e-08
0
-1.12031e-16
-7.48441e-20
2.49923e-19
4.90583e-12
0
-2.6966e-18
1.93166e-08
0
-1.52908e-12
-2.59626e-12
7.02847e-34
9.92276e-10
-1.75538e-08
-1.53051e-19
-1.47309e-18
-1.19513e-18
5.04449e-18
-1.74878e-17
7.47932e-20
0
1.42876e-18
-3.91023e-18
-8.06866e-18
7.87655e-20
1.90894e-18
-1.2631e-18
-6.45899e-18
4.92419e-19
-2.70608e-24
-1.73615e-12
3.36695e-34
-1.5369e-08
7.68317e-20
1.27378e-18
-4.77693e-18
8.45548e-09
3.57259e-25
0
0
-6.371e-14
6.21193e-13
0
-1.27925e-10
-2.998e-09
-2.03503e-24
0
7.32686e-13
9.30465e-19
-2.70806e-18
0
0
0
0
0
0
0
0
0
0
0
0
0
0
-2.73057e-17
-1.42272e-18
-6.02505e-17
1.37833e-19
2.88687e-17
4.43043e-18
-2.0247e-19
3.2508e-25
1.64817e-17
4.04861e-09
-2.26617e-17
8.83318e-09
6.2285e-34
-1.91773e-17
1.89927e-17
-3.65934e-24
2.1025e-12
1.64059e-12
-7.58153e-18
-1.52406e-19
1.2742e-13
2.85111e-12
-1.34863e-10
0
-1.28314e-08
1.49634e-08
7.07676e-20
-4.82794e-09
-1.41813e-17
0
-1.1893e-12
1.54761e-17
0
-1.85752e-08
1.91591e-08
1.52406e-19
2.38859e-18
-2.8791e-18
-6.14855e-20
1.36376e-18
7.11512e-19
-6.51547e-18
8.43347e-18
2.62539e-17
3.90849e-18
8.84151e-18
1.61743e-17
-1.41382e-19
1.19726e-12
-7.09048e-18
9.65529e-09
1.78238e-17
-7.71622e-20
5.6704e-12
-5.00119e-09
7.22695e-18
7.20744e-10
0
-3.77225e-12
-4.05998e-17
7.63146e-20
-2.50366e-18
0
6.66543e-22
5.63459e-26
2.57401e-18
3.77095e-12
3.77522e-18
-2.51189e-17
1.00006e-08
-6.29992e-18
0
5.13358e-18
-6.43761e-20
0
-5.84781e-18
1.06718e-12
8.02259e-18
0
8.08316e-09
7.31082e-20
-2.5206e-17
0
2.77756e-17
-4.73841e-20
-1.87293e-18
-2.42528e-18
1.05873e-17
6.91376e-18
0
-1.00752e-17
3.78868e-17
4.82667e-20
0
-3.58392e-16
-8.80568e-18
-7.39976e-34
1.00767e-17
-2.47033e-18
4.95693e-26
0
1.33266e-34
-3.61547e-24
0
-6.04665e-34
0
0
0
0
0
0
0
-1.90648e-17
-1.21754e-34
-1.10646e-17
-1.10605e-17
-1.9374e-17
-1.70444e-19
-1.10643e-17
1.95239e-17
2.6009e-34
-4.33288e-18
1.97135e-17
6.46182e-25
5.59869e-18
4.57145e-09
-4.53074e-09
-1.70559e-08
7.10124e-12
-1.67246e-08
1.85889e-17
9.97568e-09
3.46036e-12
9.02607e-09
-2.60983e-18
-1.89545e-17
2.69361e-34
2.54159e-18
6.46781e-16
-2.38923e-13
2.54848e-12
1.57686e-08
1.11151e-11
1.65742e-08
1.84997e-08
1.4488e-18
-4.09647e-18
-2.56543e-18
2.75518e-18
4.64408e-19
8.41574e-18
-4.80959e-18
-9.69412e-18
-8.85109e-18
-7.36478e-20
0
4.93362e-18
3.06449e-18
7.79953e-20
-1.25514e-17
-8.36413e-18
0
4.99908e-16
-2.14956e-17
-1.53106e-18
-7.63253e-20
0
-1.32813e-17
-1.43098e-17
1.96507e-17
1.44121e-17
-1.22853e-17
-1.84597e-34
1.56274e-17
6.5253e-18
0
-4.35833e-18
5.1393e-18
4.80088e-18
-8.16773e-20
-2.08321e-19
7.62842e-20
-1.69238e-17
-3.53473e-18
5.32743e-18
9.63025e-18
7.45345e-20
1.02199e-18
-3.61199e-18
0
-2.40144e-16
-2.33011e-15
-7.45085e-20
4.85329e-18
1.19965e-18
7.93446e-18
2.39059e-17
0
4.45979e-13
-8.91973e-13
1.0592e-09
0
-1.72218e-08
4.78911e-20
1.91133e-13
7.70995e-20
3.07411e-12
7.0082e-13
0
1.07641e-08
0
1.87899e-08
1.73286e-08
1.57054e-33
2.62168e-18
-3.76049e-18
-3.77458e-18
3.57205e-17
-4.79053e-20
-3.98127e-19
-1.54171e-19
1.64607e-18
-3.9283e-18
6.13921e-18
-1.39068e-18
1.44433e-17
5.7121e-20
0
-5.71148e-20
0
0
0
0
0
0
0
0
0
0
0
-2.45981e-17
2.89752e-34
-1.67465e-19
-5.42831e-18
-1.96692e-17
-6.71668e-19
4.24599e-17
9.03354e-18
-5.92882e-34
-2.81156e-17
-1.97964e-17
-2.16915e-17
4.9246e-17
0
3.30026e-17
2.16622e-12
3.9512e-10
-9.55177e-18
2.86705e-12
-1.66321e-08
1.44758e-17
-2.25916e-17
5.42221e-18
-1.09618e-17
-1.55628e-17
3.40985e-18
-2.04539e-17
4.7626e-18
0
-4.79155e-18
2.874e-17
-6.27952e-24
9.17257e-25
3.20127e-19
-7.78484e-17
0
0
-4.50793e-20
-1.91126e-13
0
1.68036e-08