/*--------------------------------*- C++ -*----------------------------------*\
| =========                 |                                                 |
| \\      /  F ield         | OpenFOAM: The Open Source CFD Toolbox           |
|  \\    /   O peration     | Version:  5.x                                   |
|   \\  /    A nd           | Web:      www.OpenFOAM.org                      |
|    \\/     M anipulation  |                                                 |
\*---------------------------------------------------------------------------*/
FoamFile
{
    version     2.0;
    format      ascii;
    class       volScalarField;
    location    "1.2";
    object      nut;
}
// * * * * * * * * * * * * * * * * * * * * * * * * * * * * * * * * * * * * * //

dimensions      [0 2 -1 0 0 0 0];

internalField   nonuniform List<scalar> 
12160
(
9.77403e-10
9.66562e-10
2.14101e-07
9.91902e-10
1.41848e-07
1.77319e-07
1.01474e-09
5.32216e-08
2.22109e-07
8.58642e-08
1.04315e-09
4.62675e-08
5.82931e-08
7.59591e-08
5.4547e-08
1.04286e-09
7.86624e-08
4.2631e-08
4.73424e-08
6.3111e-08
2.28572e-08
1.03145e-09
1.42951e-07
4.91892e-08
3.9002e-08
4.72247e-08
3.82573e-08
2.04275e-08
1.00767e-09
6.70804e-08
5.59496e-08
4.42409e-08
3.20255e-08
4.98718e-08
1.76418e-08
4.96499e-09
9.88534e-10
5.47568e-08
4.75076e-08
5.08352e-08
2.87368e-08
3.41122e-08
2.71174e-08
5.79297e-09
5.10452e-09
9.80589e-10
6.97591e-08
4.27957e-08
4.12357e-08
3.14836e-08
2.6394e-08
2.23854e-08
1.44126e-08
5.94591e-09
6.71732e-09
9.88847e-10
8.29507e-08
4.87252e-08
3.79358e-08
2.91426e-08
2.42885e-08
2.13513e-08
1.00904e-07
4.89426e-09
1.43235e-08
4.96781e-09
1.01816e-09
4.21505e-08
5.58674e-08
4.01857e-08
2.67817e-08
2.3787e-08
2.29698e-08
1.24188e-07
6.8008e-09
8.80912e-09
3.91836e-09
4.47103e-09
1.07166e-09
2.41615e-08
3.76118e-08
3.63195e-08
2.67305e-08
2.32886e-08
1.86357e-08
2.18094e-08
1.09456e-08
1.0348e-08
3.37926e-09
4.79873e-09
5.22769e-09
1.15249e-09
1.69936e-08
2.32883e-08
2.64219e-08
2.59762e-08
2.32007e-08
1.56549e-08
1.10167e-08
3.15982e-08
1.02531e-08
7.81464e-09
4.28099e-09
4.74649e-09
3.35645e-09
1.2654e-09
1.36265e-08
1.69032e-08
1.87542e-08
2.18137e-08
2.08987e-08
1.51568e-08
7.18074e-09
1.37946e-08
1.03302e-08
6.01608e-09
9.47912e-09
9.57214e-09
8.44185e-09
3.65698e-09
1.41773e-09
1.18957e-08
1.3689e-08
1.4374e-08
1.71472e-08
1.75636e-08
1.54898e-08
5.6653e-09
7.32409e-09
1.06546e-08
4.6363e-09
1.62407e-08
7.75513e-09
1.57772e-08
1.25093e-08
1.6211e-09
1.10001e-08
1.2007e-08
1.20373e-08
1.40359e-08
1.44362e-08
1.44989e-08
5.00584e-09
4.9791e-09
9.96192e-09
4.35317e-09
7.28108e-09
6.56751e-09
9.34025e-09
1.43263e-08
1.89456e-09
1.05835e-08
1.11392e-08
1.07884e-08
1.21513e-08
1.19615e-08
1.21108e-08
4.63435e-09
3.80995e-09
6.93694e-09
4.9747e-09
4.21389e-09
4.50359e-09
1.18783e-08
1.23875e-08
2.27073e-09
1.04597e-08
1.07474e-08
1.016e-08
1.11153e-08
1.04145e-08
1.02794e-08
4.43469e-09
3.15193e-09
4.49059e-09
6.73525e-09
3.00032e-09
4.1701e-09
8.71776e-09
1.41807e-08
2.80923e-09
1.0514e-08
1.065e-08
9.91261e-09
1.06308e-08
9.57775e-09
9.45001e-09
4.41961e-09
2.73582e-09
3.34037e-09
8.81205e-09
2.41312e-09
3.93445e-09
1.13137e-08
1.06847e-08
3.62839e-09
1.06645e-08
1.07341e-08
9.90889e-09
1.05122e-08
9.19917e-09
9.23396e-09
4.50984e-09
2.45025e-09
2.78769e-09
9.50795e-09
2.01796e-09
3.8099e-09
2.16361e-08
1.73641e-08
4.98409e-09
1.08462e-08
1.09169e-08
1.00579e-08
1.0639e-08
9.09915e-09
9.37903e-09
4.61171e-09
2.2279e-09
2.54548e-09
9.01019e-09
1.58647e-09
3.80703e-09
1.17049e-08
2.62365e-08
7.40942e-09
1.10051e-08
1.11288e-08
1.02894e-08
1.0926e-08
9.18892e-09
9.78436e-09
4.70872e-09
2.02685e-09
2.60232e-09
6.22537e-09
1.16171e-09
3.64527e-09
6.13477e-09
7.98665e-09
1.06887e-08
1.10981e-08
1.131e-08
1.05416e-08
1.13026e-08
9.40457e-09
1.03895e-08
4.81205e-09
1.85614e-09
3.00144e-09
3.42033e-09
8.98626e-10
3.61282e-09
4.98448e-09
4.87937e-09
9.46077e-09
1.10948e-08
1.14167e-08
1.0758e-08
1.16979e-08
9.69111e-09
1.11438e-08
4.94763e-09
1.74628e-09
3.96073e-09
1.76228e-09
8.74891e-10
4.04977e-09
5.29052e-09
4.11883e-09
6.29796e-09
1.09855e-08
1.14173e-08
1.0892e-08
1.2039e-08
9.9943e-09
1.19848e-08
5.1661e-09
1.73869e-09
5.22081e-09
1.1102e-09
1.00509e-09
4.99152e-09
6.78738e-09
5.88902e-09
4.43088e-09
1.07879e-08
1.13002e-08
1.09085e-08
1.22608e-08
1.02575e-08
1.28314e-08
5.56044e-09
1.87927e-09
4.86341e-09
1.09228e-09
1.23649e-09
6.94389e-09
1.01623e-08
7.33494e-09
3.35872e-09
1.05278e-08
1.10858e-08
1.07941e-08
1.23106e-08
1.04291e-08
1.35768e-08
6.28063e-09
2.1819e-09
3.90556e-09
1.20736e-09
1.62839e-09
9.96499e-09
1.79555e-08
1.1194e-08
2.68516e-09
1.02384e-08
1.08033e-08
1.05696e-08
1.21657e-08
1.04678e-08
1.41016e-08
7.58905e-09
2.65404e-09
3.3772e-09
1.39063e-09
2.27469e-09
1.32143e-08
3.62971e-08
2.06115e-08
2.22884e-09
9.95885e-09
1.04869e-08
1.02693e-08
1.18597e-08
1.03477e-08
1.429e-08
9.9047e-09
3.2915e-09
3.14057e-09
1.67564e-09
3.27463e-09
1.62554e-08
5.50417e-08
5.22863e-08
1.90245e-09
9.72044e-09
1.01752e-08
9.93158e-09
1.14439e-08
1.00975e-08
1.40693e-08
1.29119e-08
3.9909e-09
3.09047e-09
2.14922e-09
4.75883e-09
1.90906e-08
4.83676e-08
1.90362e-07
1.65995e-09
9.55205e-09
9.90516e-09
9.5975e-09
1.09745e-08
9.7629e-09
1.35237e-08
1.28329e-08
4.46927e-09
3.14887e-09
3.00743e-09
7.02449e-09
2.23407e-08
4.25829e-08
8.2266e-08
1.47498e-09
9.48211e-09
9.70858e-09
9.30058e-09
1.05071e-08
9.38888e-09
1.27739e-08
9.95959e-09
4.39625e-09
3.18438e-09
4.76503e-09
1.07548e-08
2.71369e-08
4.35105e-08
6.14867e-08
1.33144e-09
9.54051e-09
9.61307e-09
9.06817e-09
1.00843e-08
9.01914e-09
1.19316e-08
7.81742e-09
3.86292e-09
3.16577e-09
8.80564e-09
1.72501e-08
3.49391e-08
5.01587e-08
6.09832e-08
1.21899e-09
9.76422e-09
9.64674e-09
8.92346e-09
9.73683e-09
8.68642e-09
1.10906e-08
6.58451e-09
3.2135e-09
3.10792e-09
7.8087e-09
2.96004e-08
4.4648e-08
6.38489e-08
7.18417e-08
1.13068e-09
1.02053e-08
9.84436e-09
8.88906e-09
9.48669e-09
8.4133e-09
1.03083e-08
5.87969e-09
2.65534e-09
3.03349e-09
4.35221e-09
2.58314e-08
4.8276e-08
7.96425e-08
1.0663e-07
1.06171e-09
1.09437e-08
1.02534e-08
8.99048e-09
9.35293e-09
8.21621e-09
9.61568e-09
5.46775e-09
2.24177e-09
3.0362e-09
2.89064e-09
1.42289e-08
4.28385e-08
7.62834e-08
2.41188e-07
1.00869e-09
1.2114e-08
1.09451e-08
9.2601e-09
9.35584e-09
8.11055e-09
9.03145e-09
5.21694e-09
1.96052e-09
3.17748e-09
2.14386e-09
9.33578e-09
3.37244e-08
6.01591e-08
2.84027e-07
9.6897e-10
1.39658e-08
1.20331e-08
9.74328e-09
9.51891e-09
8.10712e-09
8.5639e-09
5.05074e-09
1.79511e-09
3.52391e-09
1.71995e-09
6.36481e-09
2.58676e-08
4.67106e-08
1.14892e-07
9.40241e-10
1.69261e-08
1.36945e-08
1.05055e-08
9.86983e-09
8.22156e-09
8.22066e-09
4.92653e-09
1.73137e-09
4.13114e-09
1.45845e-09
4.50693e-09
2.06497e-08
3.6382e-08
7.02085e-08
2.26878e-08
9.1803e-10
1.62105e-08
1.16289e-08
1.04441e-08
8.48149e-09
8.00733e-09
4.81675e-09
1.74044e-09
4.58015e-09
1.28545e-09
3.25715e-09
1.74417e-08
3.0068e-08
5.04087e-08
2.03138e-08
3.93635e-08
9.24392e-10
1.32217e-08
1.12685e-08
8.92301e-09
7.93231e-09
4.70665e-09
1.79811e-09
4.06348e-09
1.1676e-09
2.39075e-09
1.51738e-08
2.6758e-08
4.06666e-08
1.54786e-08
2.70315e-08
2.60364e-08
9.82842e-10
1.23534e-08
9.57113e-09
8.00893e-09
4.59341e-09
1.88513e-09
3.22689e-09
1.09429e-09
1.79496e-09
1.32403e-08
2.55571e-08
3.62762e-08
1.37471e-08
1.81953e-08
1.94113e-08
1.30947e-08
1.08799e-09
1.0426e-08
8.28258e-09
4.4837e-09
1.98949e-09
2.66114e-09
1.13204e-09
1.40513e-09
1.14208e-08
2.6357e-08
3.522e-08
1.15247e-08
1.47803e-08
1.59819e-08
1.15698e-08
7.76979e-09
1.36604e-09
8.88832e-09
4.37471e-09
2.10673e-09
2.36214e-09
1.57441e-09
1.15704e-09
9.51076e-09
2.94556e-08
3.77436e-08
9.93888e-09
1.19828e-08
1.28177e-08
1.12915e-08
7.84971e-09
5.45596e-09
1.35669e-09
4.31545e-09
2.23232e-09
2.22696e-09
2.63357e-09
9.92246e-10
7.3093e-09
3.50854e-08
4.68316e-08
4.44513e-09
1.05209e-08
1.10252e-08
9.98498e-09
8.63843e-09
5.66413e-09
2.98955e-09
1.88205e-09
2.37768e-09
2.21165e-09
4.41922e-09
8.78809e-10
5.45096e-09
3.77824e-08
7.79213e-08
2.60509e-09
4.53241e-09
9.3737e-09
9.62521e-09
8.59267e-09
6.56253e-09
4.28627e-09
2.98039e-09
8.63284e-10
2.28373e-09
6.94827e-09
8.06793e-10
4.14097e-09
2.55324e-08
1.02314e-07
2.49305e-09
2.88943e-09
4.5022e-09
7.81922e-09
9.00271e-09
7.80658e-09
6.6935e-09
3.91136e-09
2.70675e-09
5.45856e-10
7.4771e-09
8.25442e-10
3.35964e-09
1.50859e-08
3.39692e-08
7.6733e-09
2.78769e-09
3.33193e-09
4.51168e-09
7.26866e-09
9.455e-09
1.1297e-08
6.28965e-09
7.89159e-09
7.13899e-09
3.37829e-10
9.83108e-10
2.93043e-09
9.57336e-09
1.67791e-08
1.20248e-09
7.3922e-09
3.51791e-09
4.12935e-09
4.98447e-09
7.94143e-09
1.56029e-08
8.07656e-09
2.07243e-08
3.05815e-08
4.78691e-09
5.02151e-10
2.75947e-09
6.75762e-09
1.03873e-08
2.48211e-09
1.49501e-09
7.84849e-09
5.16942e-09
6.20804e-09
6.55801e-09
1.39259e-08
1.27941e-08
1.53294e-08
9.9956e-08
2.78675e-08
1.08959e-08
2.49177e-09
1.89554e-10
5.26063e-09
7.20071e-09
5.02917e-09
2.5198e-09
1.94341e-09
8.04287e-09
6.4178e-09
9.72994e-09
1.15965e-08
3.51682e-08
9.48691e-09
4.7508e-08
4.75127e-08
4.06891e-08
6.81272e-09
3.99787e-09
1.2519e-09
1.84893e-10
5.69241e-09
5.05376e-09
4.78897e-09
3.19502e-09
2.18481e-09
4.75757e-09
6.60576e-09
6.37902e-09
5.09578e-08
8.59338e-09
1.6162e-08
4.31169e-08
6.71589e-08
1.13493e-08
5.91139e-09
4.21171e-09
2.82395e-09
1.44281e-09
1.77873e-10
3.43745e-09
4.72952e-09
4.39349e-09
2.68329e-09
3.58972e-09
7.12625e-09
4.17244e-09
9.91056e-09
6.58483e-09
2.82454e-08
6.14105e-08
7.62057e-09
5.51543e-09
4.92069e-09
4.6654e-09
3.82835e-09
3.1303e-09
2.10299e-09
1.73659e-10
3.58277e-09
5.99478e-09
4.99142e-09
4.0761e-09
4.11317e-09
7.85147e-09
3.57687e-09
4.81515e-09
1.03829e-08
4.66722e-08
5.10697e-09
5.15899e-09
4.77463e-09
5.11207e-09
7.26915e-09
5.87866e-09
4.87637e-09
3.85614e-09
3.02004e-09
1.75896e-10
4.5186e-09
1.32859e-08
5.63765e-09
7.93791e-09
4.82829e-09
7.76004e-09
3.59261e-09
3.56366e-09
2.29311e-08
5.3536e-09
5.90216e-09
4.65363e-09
5.61757e-09
5.87791e-09
1.47576e-08
1.31868e-08
9.00417e-09
6.72816e-09
5.02281e-09
3.70141e-09
1.80329e-10
8.61993e-09
2.67842e-08
6.1724e-09
9.01567e-09
4.26106e-09
7.17061e-09
3.22402e-09
6.24216e-09
6.86594e-09
7.27741e-09
5.61697e-09
5.74235e-09
6.61636e-09
8.38797e-09
9.5432e-10
3.0624e-08
9.5482e-10
8.58605e-10
8.59184e-10
2.14722e-08
1.3566e-08
9.89496e-09
6.45443e-09
3.53498e-09
1.88991e-10
2.64969e-08
1.88923e-08
8.07652e-09
5.80851e-09
3.1662e-09
6.44618e-09
3.20384e-09
4.59275e-09
6.27838e-09
7.42526e-09
5.12778e-09
7.88017e-09
6.98122e-09
1.57673e-08
1.26332e-09
1.34966e-09
3.17327e-08
1.26247e-09
1.49725e-09
1.49709e-09
1.351e-09
1.13441e-09
1.13598e-09
2.30762e-08
1.73487e-08
1.32286e-08
7.47726e-09
3.42587e-09
2.01594e-10
3.33798e-08
2.05705e-08
1.34658e-08
4.90448e-09
1.98e-09
4.95904e-09
4.18816e-09
4.27378e-09
6.03775e-09
5.29663e-09
8.33485e-09
7.91348e-09
9.6205e-09
9.55535e-10
9.58463e-10
8.90718e-10
8.91166e-10
1.68532e-09
1.70491e-09
2.81079e-08
3.06383e-08
1.68545e-09
2.16138e-09
2.16251e-09
1.70807e-09
1.51148e-09
1.51552e-09
2.2992e-08
2.01512e-08
1.93713e-08
8.95586e-09
3.47208e-09
2.15175e-10
3.87948e-08
2.67996e-08
2.34059e-08
4.69697e-09
1.28347e-09
3.9574e-09
4.30947e-09
4.25619e-09
6.34325e-09
6.41565e-09
8.39584e-09
8.77853e-09
7.2221e-10
7.21883e-10
7.2349e-10
7.2387e-10
1.22315e-09
1.22645e-09
1.06619e-09
1.0673e-09
2.23064e-09
1.08049e-08
1.04746e-09
6.68405e-09
1.00104e-09
3.24744e-08
5.29062e-08
1.12121e-08
1.12068e-08
5.73551e-09
5.76532e-09
2.23307e-09
2.97934e-09
2.98297e-09
9.6994e-09
1.0505e-09
6.58059e-09
1.01278e-09
9.59447e-09
8.78659e-10
9.20752e-09
8.62228e-10
8.82102e-09
8.79074e-10
9.25739e-09
8.70533e-10
2.16809e-08
2.4425e-08
2.3177e-08
1.09791e-08
3.65722e-09
2.36071e-10
1.63667e-07
2.21967e-08
1.19964e-08
4.84449e-09
9.36812e-10
3.65606e-09
4.48704e-09
6.91411e-09
5.52558e-09
8.6821e-09
1.02134e-08
6.64422e-10
6.64548e-10
6.67899e-10
6.68437e-10
9.26318e-10
9.26615e-10
9.18551e-10
9.19985e-10
7.60623e-10
9.97988e-10
4.81457e-09
7.21206e-10
6.46015e-09
6.18191e-09
9.99087e-10
7.67615e-10
4.65038e-09
7.26696e-10
6.14974e-09
6.13808e-09
6.6629e-10
5.79256e-09
6.5967e-10
5.94763e-09
6.66172e-10
5.78925e-09
6.60884e-10
5.86582e-09
9.20432e-09
1.32958e-09
8.20189e-09
1.28888e-09
8.59308e-09
1.21617e-09
6.68527e-09
1.12055e-09
3.13574e-08
5.68146e-08
6.4296e-09
6.26909e-09
9.34724e-09
9.16167e-09
1.8425e-08
1.83954e-08
1.07954e-08
1.07742e-08
8.30151e-09
1.33186e-09
8.1239e-09
1.30838e-09
9.07997e-09
2.24457e-09
6.60312e-09
1.81937e-09
7.91096e-09
2.18811e-09
7.16288e-09
1.87601e-09
7.58415e-09
1.21656e-09
6.65467e-09
1.13886e-09
1.04174e-08
1.00513e-09
9.44823e-09
1.01486e-09
2.17372e-08
3.04252e-08
2.75248e-08
1.40185e-08
3.79323e-09
2.60835e-10
4.10489e-08
2.03301e-08
7.23219e-09
3.01305e-09
9.55695e-10
2.79129e-09
6.22421e-09
6.76879e-09
7.52984e-09
9.0762e-09
6.34084e-10
6.33465e-10
9.7586e-10
9.6577e-10
8.79841e-10
8.81218e-10
9.04905e-10
9.06318e-10
5.78373e-10
4.73491e-09
5.89752e-10
4.86569e-09
5.75576e-10
4.87741e-09
5.865e-10
5.05609e-09
6.0203e-10
4.42327e-09
5.66021e-10
5.35439e-09
6.00127e-10
4.46181e-09
5.64034e-10
5.50756e-09
1.12183e-09
7.84147e-10
5.44641e-09
6.01637e-09
7.64894e-10
6.65852e-09
1.11626e-09
7.91663e-10
6.23023e-09
5.21979e-09
7.69317e-10
6.41514e-09
7.06542e-10
5.63154e-09
7.06131e-10
5.81237e-09
7.06278e-10
5.60966e-09
7.07393e-10
5.72095e-09
7.78876e-09
1.48862e-09
6.88666e-09
1.53793e-09
1.00131e-08
1.29961e-09
6.71056e-09
1.22923e-09
3.46312e-08
6.58188e-08
6.26705e-09
5.93304e-09
6.68322e-09
6.49718e-09
6.75776e-09
6.58749e-09
7.42537e-09
7.29687e-09
5.58165e-09
1.11677e-08
1.05249e-08
7.56464e-09
5.91076e-09
1.24604e-08
1.16556e-08
8.15134e-09
4.43093e-09
2.76995e-09
1.2355e-08
7.7398e-09
6.81685e-09
5.14907e-09
4.36348e-09
2.73368e-09
1.26737e-08
7.81064e-09
6.66726e-09
5.15689e-09
7.17716e-09
1.48689e-09
6.87743e-09
1.56605e-09
1.01876e-08
1.98295e-09
9.65246e-09
2.02903e-09
8.83863e-09
1.29909e-09
6.7665e-09
1.2451e-09
9.78974e-09
1.07734e-09
8.95399e-09
1.08621e-09
2.49502e-08
3.62813e-08
3.53018e-08
1.81135e-08
3.88639e-09
2.98099e-10
2.89455e-08
1.41199e-08
9.80619e-09
2.24947e-09
1.36688e-09
8.5732e-09
1.43675e-08
3.19909e-08
6.3066e-08
1.02285e-08
1.00729e-08
1.03339e-07
1.02436e-07
1.05265e-09
1.0464e-09
3.51678e-09
3.39402e-09
5.56722e-10
4.2998e-09
5.52386e-10
4.88892e-09
5.55305e-10
4.362e-09
5.50758e-10
5.01341e-09
7.30414e-10
5.80681e-09
5.83732e-10
4.91928e-09
7.28336e-10
6.11136e-09
5.80107e-10
5.27576e-09
6.42622e-10
4.22247e-09
6.33305e-10
4.58259e-09
6.38714e-10
4.36799e-09
6.29963e-10
4.75553e-09
6.40497e-10
3.86642e-09
6.25518e-10
4.22913e-09
6.37989e-10
3.92562e-09
6.23076e-10
4.34302e-09
6.99781e-09
1.65287e-09
6.81504e-09
1.68255e-09
4.10429e-08
7.96562e-08
8.44554e-09
7.31346e-09
7.51622e-09
6.67052e-09
6.98965e-09
6.37022e-09
6.65746e-09
6.45314e-09
3.69062e-09
1.74813e-08
3.60243e-09
2.35693e-08
3.9277e-09
2.20266e-08
3.7552e-09
3.25546e-08
4.31673e-09
1.85089e-08
3.70448e-09
1.95717e-08
4.4593e-09
2.28881e-08
3.83607e-09
2.58562e-08
4.73822e-09
1.33264e-08
6.46992e-09
9.79194e-09
4.86387e-09
1.23847e-08
6.8474e-09
9.48368e-09
2.78689e-09
4.9142e-09
9.59119e-09
6.12033e-09
6.97008e-09
8.26306e-09
2.85752e-09
4.80401e-09
9.59602e-09
6.01404e-09
6.66297e-09
8.33428e-09
6.6129e-09
1.64894e-09
6.83729e-09
1.70217e-09
1.23906e-08
2.19703e-09
1.13267e-08
2.28917e-09
3.2677e-08
4.52821e-08
5.18666e-08
2.24882e-08
4.08514e-09
3.51933e-10
4.23505e-08
1.07525e-08
8.8186e-09
2.72834e-09
3.27474e-08
5.83104e-08
2.08834e-07
1.4381e-06
1.15035e-05
3.53113e-08
3.44014e-08
2.50258e-07
2.47784e-07
4.72293e-09
4.70357e-09
3.54295e-08
3.54204e-08
6.13855e-10
3.53207e-09
6.21963e-10
3.84241e-09
6.11989e-10
3.57741e-09
6.21021e-10
3.87767e-09
9.22834e-10
5.72415e-09
6.65384e-10
4.16707e-09
9.25767e-10
5.96178e-09
6.64297e-10
4.34861e-09
6.46863e-10
3.57372e-09
6.44182e-10
3.60329e-09
5.08448e-08
1.04649e-07
1.38914e-08
1.25298e-08
9.02862e-09
7.91769e-09
1.2706e-08
9.51706e-09
9.51312e-09
7.68386e-09
4.99844e-09
1.72193e-08
3.94183e-09
2.47362e-08
4.24241e-09
1.497e-08
3.71819e-09
2.55431e-08
3.85986e-09
1.70224e-08
3.8171e-09
2.00996e-08
4.10042e-09
2.1321e-08
3.86949e-09
2.41751e-08
3.88098e-09
1.3501e-08
3.92954e-09
1.15501e-08
4.13634e-09
9.93325e-09
4.12921e-09
9.25614e-09
4.30145e-09
1.18435e-08
4.01389e-09
1.18223e-08
4.3669e-09
1.08162e-08
4.14334e-09
1.0031e-08
4.10873e-08
6.4072e-08
7.32524e-08
2.64662e-08
4.13466e-09
4.209e-10
4.17709e-08
7.27236e-09
4.74958e-09
2.43722e-08
1.09607e-06
1.08343e-06
1.21081e-05
0.000158732
1.41318e-05
1.40956e-05
6.58816e-05
6.5736e-05
3.5351e-07
3.51243e-07
2.53146e-06
2.50631e-06
3.74142e-08
3.81571e-09
1.70718e-08
8.68755e-09
3.85628e-08
3.84058e-09
1.72364e-08
8.75171e-09
1.97883e-07
9.71071e-08
4.62436e-07
3.82042e-08
1.92683e-07
9.67103e-08
4.67463e-07
3.82674e-08
6.36084e-10
3.59102e-09
6.48239e-10
4.1134e-09
6.34013e-10
3.62484e-09
6.47113e-10
4.17525e-09
1.31211e-09
6.15948e-09
7.52961e-10
4.976e-09
1.31713e-09
6.43849e-09
7.52936e-10
5.18002e-09
4.66862e-08
9.41643e-08
7.31048e-07
2.09854e-08
1.48269e-08
1.48151e-08
1.09485e-08
2.70412e-08
1.58567e-08
1.60629e-08
1.11109e-08
5.72655e-09
3.05186e-08
4.32453e-09
2.03177e-08
4.51823e-09
2.20433e-08
3.91566e-09
1.58689e-08
3.9246e-09
1.48789e-08
3.87557e-09
1.56692e-08
4.10952e-09
1.11949e-08
3.81462e-09
1.25407e-08
3.98407e-09
1.25993e-08
4.23441e-09
9.37887e-09
4.04129e-08
9.22171e-08
6.7622e-08
1.75226e-08
2.51932e-09
4.96813e-10
1.38327e-08
4.87309e-09
2.5776e-09
6.61201e-07
5.06435e-05
0.000135006
0.000793078
0.00103614
4.80813e-05
4.79869e-05
0.000146195
0.000146043
4.63188e-07
2.97907e-06
1.09285e-05
1.25178e-06
4.59524e-07
3.0291e-06
1.09797e-05
1.24526e-06
1.05387e-05
1.05039e-05
4.93066e-08
6.3767e-09
2.16357e-08
1.9633e-08
4.93888e-08
6.4302e-09
2.17828e-08
1.96431e-08
2.33081e-07
2.5044e-07
8.39823e-07
7.86048e-08
2.27621e-07
2.50246e-07
8.43542e-07
7.89472e-08
2.12847e-09
9.29067e-09
2.13865e-09
9.71421e-09
3.30298e-08
1.08947e-07
1.94143e-07
7.15001e-08
2.61455e-08
4.77767e-08
2.10415e-08
7.16803e-08
3.44316e-08
3.19182e-08
1.72625e-08
2.74397e-07
3.71944e-08
2.01829e-07
3.14654e-08
1.75425e-07
1.81889e-08
1.26513e-07
1.60399e-08
2.14555e-07
1.08984e-08
1.50252e-07
1.79063e-08
1.37147e-07
7.06417e-09
7.50568e-08
1.01244e-08
8.3674e-09
4.76483e-08
5.16275e-09
2.05274e-08
5.96438e-09
2.7947e-08
4.41438e-09
1.54708e-08
4.05189e-09
1.35816e-08
4.07288e-09
1.53181e-08
4.20412e-09
1.03875e-08
3.9197e-09
1.23656e-08
4.87912e-08
8.26536e-08
1.83394e-08
2.30188e-09
3.72116e-10
6.31788e-09
3.85117e-09
3.04867e-09
5.44175e-06
0.000722491
0.00103559
0.00101026
0.000696968
0.000697188
0.0011026
0.00110363
5.09547e-05
0.000349278
9.30956e-05
0.000450532
5.07905e-05
0.000349193
9.28592e-05
0.000450506
0.000375773
0.000375526
9.07429e-07
5.0521e-06
1.81639e-05
2.39449e-06
9.02383e-07
5.22714e-06
1.81236e-05
2.38365e-06
1.70627e-05
0.000237302
9.05765e-06
0.000108796
1.70349e-05
0.000229917
9.04612e-06
0.000103636
4.42416e-07
4.40802e-07
1.74629e-06
1.4568e-07
4.36912e-07
4.38826e-07
1.80303e-06
1.45952e-07
3.13738e-08
8.0604e-08
1.73896e-07
2.62066e-06
3.03157e-07
8.99326e-08
2.00428e-07
7.14519e-08
3.03245e-07
1.27853e-07
5.98891e-08
1.30816e-07
1.98239e-07
1.12189e-07
2.94616e-08
7.53153e-08
9.9201e-08
4.95202e-08
4.16647e-07
5.88874e-08
4.30036e-07
5.69908e-08
1.87927e-07
2.68211e-08
1.85131e-07
2.69693e-08
1.50649e-07
1.64583e-08
8.09276e-08
2.92636e-08
6.97966e-08
9.56743e-09
4.03096e-08
1.51303e-08
1.23049e-08
5.4433e-08
7.90136e-09
2.99062e-08
7.24726e-08
2.01835e-08
2.18776e-09
2.72292e-10
3.95014e-09
3.07414e-09
5.64659e-08
7.20142e-05
0.000746768
0.000782744
0.00145402
0.00145591
0.00152301
0.00152439
0.000868857
0.000866347
0.00104171
0.00103638
8.2978e-05
0.000384081
0.000147868
0.000481275
8.27425e-05
0.000384075
0.000147605
0.000481293
0.000621615
0.000573238
0.000733515
0.000363863
0.000621333
0.000570915
0.000732552
0.000363447
1.47795e-06
6.89595e-06
2.16124e-05
4.09319e-06
1.4679e-06
7.05596e-06
2.11172e-05
4.07938e-06
3.45658e-05
0.000295591
1.48445e-05
0.000166925
3.45059e-05
0.0002956
1.48193e-05
0.00015837
5.19938e-08
5.22713e-08
1.57105e-07
3.9627e-07
7.88622e-07
1.89545e-07
1.4821e-06
4.45713e-07
2.06316e-06
6.77093e-07
7.44614e-07
1.88732e-06
1.37681e-06
1.42994e-06
3.17924e-07
1.04449e-06
5.66205e-07
7.01828e-07
7.15675e-07
4.22111e-06
5.9077e-07
6.08679e-06
1.78113e-07
9.09165e-07
3.19544e-07
2.86816e-06
2.619e-07
3.44057e-06
7.51403e-08
4.96828e-07
9.9409e-08
7.11481e-07
4.36069e-08
3.12757e-07
7.26038e-07
1.19616e-07
6.93425e-07
1.38991e-07
3.42419e-07
5.0942e-08
3.18725e-07
6.31802e-08
3.4657e-08
2.49807e-09
2.01811e-10
2.52301e-09
3.01868e-09
1.74107e-06
0.000613287
0.000702948
0.000721085
0.000976756
0.000968144
0.000922131
0.000924444
0.000693581
0.000616905
0.000829702
0.000702382
0.00092493
0.000762395
0.000615695
0.000690424
0.000761238
0.000828578
0.000695876
0.000922837
0.000896184
0.00107398
0.000828212
0.00106335
0.000871985
0.00108294
0.000814484
0.00106036
0.000128965
0.00042624
0.000240921
0.000516825
0.000128562
0.000426221
0.000240242
0.000516748
0.000670429
0.000494105
0.000669928
0.00049354
4.88216e-05
6.57729e-06
4.71163e-05
6.56216e-06
5.79814e-05
0.000353274
5.78314e-05
0.000353295
4.16574e-08
7.75694e-08
1.08072e-07
1.87814e-07
2.36575e-07
3.62183e-08
4.97459e-07
9.35706e-08
4.54475e-06
1.23565e-06
9.43951e-06
3.40803e-06
3.48855e-05
8.47328e-06
1.08125e-05
6.59844e-06
9.19051e-06
2.15285e-06
2.32717e-05
3.51496e-06
6.48581e-06
2.44518e-06
5.67141e-06
8.48995e-07
1.58783e-06
1.26178e-05
7.09842e-07
6.18161e-06
1.6158e-06
1.31779e-05
1.51223e-06
5.31888e-07
7.65815e-06
3.19247e-06
7.35583e-07
7.00705e-06
7.12395e-07
2.2405e-07
3.93573e-06
1.47513e-06
2.586e-07
1.34225e-06
1.09533e-07
6.3418e-07
3.71115e-09
1.51266e-10
1.97364e-09
1.49362e-08
9.26546e-05
0.000706643
0.000689379
0.000958804
0.000970499
0.000720996
0.000729665
0.00124425
0.00123423
0.0011254
0.0011375
0.000617754
0.000644145
0.00083111
0.000764739
0.000612143
0.000856597
0.000615674
0.000640019
0.000763973
0.000829921
0.000603774
0.000854934
0.000849301
0.000941237
0.00068594
0.000910525
0.000780811
0.000956562
0.000667148
0.000905874
0.000341839
0.000582988
0.00034152
0.000582751
5.66537e-09
1.4651e-08
5.56806e-08
7.37233e-08
1.676e-06
1.61074e-06
2.8086e-07
3.54989e-06
7.81542e-07
3.69919e-05
2.67175e-05
3.01398e-05
4.23036e-05
1.56852e-05
1.26671e-05
1.45088e-05
2.66979e-05
3.21534e-05
1.63105e-05
0.000217507
2.5108e-05
7.63538e-05
5.93459e-05
1.50279e-05
6.64917e-06
0.000185702
1.18374e-05
5.79016e-05
4.2102e-05
9.06902e-05
4.12945e-05
1.95631e-05
6.97345e-06
4.31114e-05
2.16975e-05
6.74229e-06
2.08953e-06
3.64589e-06
2.52671e-05
1.41648e-06
1.41361e-05
4.13734e-06
2.87338e-05
1.65189e-06
6.66189e-06
1.77164e-06
1.68932e-05
7.80158e-07
3.41298e-06
1.2718e-10
1.65562e-09
5.71731e-07
0.000418718
0.000621228
0.000672867
0.00120564
0.00131297
0.00068735
0.000740426
0.00140522
0.00229221
0.00120107
0.00197995
0.00168722
0.0021574
0.00143838
0.00226422
0.00182207
0.00198745
0.000876029
0.00058182
0.000429771
0.000549753
0.000563977
0.00066289
0.000420167
0.000561221
1.24546e-10
3.74602e-09
1.02541e-08
3.84935e-08
1.88537e-07
1.08673e-06
1.89828e-07
4.73864e-06
1.11503e-06
1.5267e-05
3.89205e-06
2.79691e-05
8.52779e-06
6.70774e-05
0.000195847
9.21759e-05
0.000439412
3.27219e-05
0.000166319
4.96101e-05
0.000300241
4.79531e-05
7.20653e-05
0.00024449
0.000359894
6.26068e-05
0.000278424
1.97725e-05
3.33584e-05
0.000239505
0.000135949
3.20681e-05
0.000192137
9.71133e-05
2.50735e-05
4.82988e-05
7.41093e-06
1.48667e-08
1.81502e-05
0.00051853
0.000632636
0.000850831
0.000902555
0.000692565
0.000702177
0.00186721
0.00195973
0.00137512
0.00145329
0.00188829
0.00296111
0.00141212
0.00283922
0.00237054
0.00133813
0.00102714
0.00326496
0.00230138
0.00206143
0.0026383
0.00206681
0.00252897
0.00221142
0.00292731
0.00231959
0.000890088
0.00037024
0.000343542
0.000384297
1.27372e-10
3.33774e-09
1.10578e-08
4.77409e-08
9.31324e-07
4.12471e-06
1.42692e-06
2.7249e-05
9.95934e-06
9.85012e-05
4.29353e-05
0.000113365
0.000149305
0.000351778
0.000169057
7.52522e-05
7.5011e-05
0.000315725
9.07864e-05
0.000238555
0.000708711
0.000340181
0.000820232
0.000126016
0.000592327
0.000212888
0.000704487
8.71261e-07
0.000388137
0.000503683
0.000714761
0.00096069
0.00100029
0.000776017
0.000789097
0.00220922
0.0020129
0.00169811
0.00176666
0.00178184
0.00164786
0.00227367
0.0020796
0.00172592
0.00178614
0.00180831
0.00169921
0.00134776
0.00138748
0.00168569
0.00219511
0.000826159
0.00274
0.00206167
0.00141278
0.00085778
0.00306697
0.00234433
0.00197638
0.00239378
0.00206433
1.35303e-10
3.75592e-09
1.92617e-08
1.62866e-07
4.38592e-07
1.74782e-07
2.47963e-06
8.49266e-07
2.5945e-05
1.69565e-05
0.000148555
7.73801e-05
0.000357226
0.000204794
0.000441456
0.000787354
0.000306719
0.000707299
0.000282893
0.000142732
0.000355277
0.00070666
0.000173727
0.000600425
0.000356221
0.000799444
0.000258958
0.000687392
0.00038491
0.000920793
0.000275406
0.000797216
2.46412e-05
0.000380321
0.000549729
0.00088449
0.000889766
0.000759008
0.00076456
0.0010683
0.00108731
0.000992198
0.0010024
0.00188386
0.00184976
0.00153541
0.0015462
0.00162158
0.00145285
0.00187628
0.00187452
0.00154686
0.00154947
0.00163421
0.00147672
0.00116353
0.00121751
0.00122829
0.00128069
0.00120028
0.00123312
0.00125617
0.00129391
1.49843e-10
5.34158e-09
3.08206e-08
7.02117e-07
3.32164e-06
8.88174e-07
2.29819e-05
7.70934e-06
0.000131206
6.45088e-05
0.000496145
0.000829725
0.000202847
0.000490592
0.000806532
0.000362466
0.000136256
0.000407291
0.000755961
0.000297953
0.000407942
0.000767029
0.000601106
0.000450783
0.00101527
0.000958705
0.000481048
0.000341752
0.000961667
0.000849224
0.000466
0.00102178
0.000332067
0.000899253
0.00019473
0.000461065
0.000579721
0.000851396
0.000856405
0.000678076
0.000690164
0.00109207
0.00112514
0.000981178
0.000969168
0.000988288
0.000980166
0.00112035
0.00113262
0.000986581
0.00098423
0.000993715
0.000993597
0.00091102
0.000915383
0.00138242
0.00129032
0.00139028
0.00131135
0.0011243
0.00117615
0.00115268
0.00118484
1.64233e-10
1.42438e-08
1.20559e-07
3.16705e-07
3.793e-08
1.68741e-06
2.71432e-07
1.57847e-05
3.63045e-06
0.000101417
3.57101e-05
0.000331716
0.00013217
0.000461678
0.000755171
0.000485773
0.000772223
0.000240406
0.000403446
0.000721447
8.34321e-05
0.000378455
0.000708081
0.00060168
0.000982407
0.000604965
0.000935419
0.000490261
0.000483481
0.000907435
0.000943493
0.000374861
0.000498226
0.000371664
0.000592976
0.000608686
0.000477701
0.000502896
0.000971507
0.00101907
0.000852861
0.000822139
0.00085866
0.000844556
0.00098938
0.00102339
0.000855011
0.000825534
0.000860371
0.000848721
0.000727436
0.000739612
0.000753655
0.00072624
0.000736009
0.000738305
0.000752284
0.000725581
0.000926246
0.00104024
0.000946067
0.00104673
2.19544e-10
2.63065e-08
7.83382e-07
1.63126e-06
1.71057e-07
1.04047e-05
1.5207e-06
5.88832e-05
1.3507e-05
0.000416536
0.000644925
8.3501e-05
0.000380651
0.000643161
0.000270546
0.000337525
0.000575083
4.20349e-05
0.000283372
0.000570116
0.000123077
0.000547225
0.000594427
0.000860382
0.00094492
0.000473131
0.000919356
0.000449571
0.000832405
0.000427845
0.000472222
0.000284729
0.000330506
0.000353303
0.000286584
0.000232014
0.000232278
0.000446717
0.000549962
0.000605441
0.00046276
0.000582173
0.00059867
0.000787839
0.000872326
0.000736576
0.000726717
0.000745457
0.000754353
0.000789442
0.000874207
0.000735483
0.00071763
0.000744259
0.000749236
0.000628864
0.00061627
0.000649594
0.000614136
5.1311e-10
8.50422e-08
8.29538e-06
8.87346e-06
1.27199e-06
4.04637e-05
8.8731e-06
0.000223419
3.95947e-05
0.000346934
0.000353068
0.000340597
0.000183388
7.19361e-05
0.000233028
7.73675e-05
1.23057e-05
0.00015151
0.00025251
0.000474739
0.000833983
0.000470339
0.000774999
0.000373177
0.000799609
0.000356238
0.00072117
0.000598298
0.000964822
0.000476858
0.000946076
0.000493658
0.000516867
0.000358794
0.000344766
0.000359912
0.000333166
0.000230204
0.000221312
0.000393372
0.000386541
0.000498318
0.000438249
0.000545036
0.000426085
0.000370808
0.00048849
0.000497681
0.000441074
0.000498808
0.000511055
0.000536931
0.000438039
0.000414862
0.000478509
0.000639871
0.000641418
0.000636851
0.000653062
0.000540038
0.000544068
0.00059818
0.000549096
2.12135e-09
5.18723e-07
7.39403e-06
4.31439e-05
1.11426e-05
8.96461e-07
3.62541e-05
8.62595e-06
0.00024609
0.000308696
4.696e-05
9.19738e-05
0.000150936
1.33985e-05
0.000469411
0.000469878
0.00074868
0.000651195
0.000313977
0.000694584
0.000334889
0.000596953
0.000578427
0.000964866
0.000623959
0.000920896
0.000429144
0.00093937
0.000413589
0.000896927
0.000559255
0.000425604
0.00042902
0.000460478
0.000340439
0.000421599
0.000421501
0.000456566
0.000376662
0.000417739
0.000291231
0.000293266
0.000401652
0.000445768
0.000499743
0.000507865
0.000451685
0.000433243
0.000493675
0.000610882
0.000486383
0.000537788
0.000466593
0.000445421
0.00057809
0.000564192
0.000584338
0.000623841
1.14047e-08
2.58901e-06
3.21351e-05
0.000187565
5.83132e-05
6.12516e-06
0.000235853
7.40889e-05
0.000448304
0.000579363
0.000724853
0.000450295
0.000376697
0.000618672
0.000306047
8.29003e-05
0.000323073
0.000421739
0.000680445
0.000325812
0.00024908
0.000550747
0.000202249
2.84327e-05
0.000675139
0.000632668
0.00081122
0.00075007
0.00044703
0.000795284
0.000454705
0.000731544
0.000680499
0.000424232
0.000372225
0.000380015
0.000425931
0.000359276
0.000359319
0.000402125
0.000478402
0.000455193
0.000532827
0.00036921
0.000535623
0.000448667
0.000510897
0.000523443
0.000415274
0.000550948
0.000409006
0.000476768
0.000451716
0.000532157
0.000385152
0.000538472
0.000448151
0.000513713
0.000522429
0.000423384
0.000549191
0.000511018
0.000508379
0.000491455
0.000476079
0.000567041
0.000524298
0.00050934
0.000481243
5.81609e-08
3.77742e-06
5.49374e-05
0.000828754
0.000180631
0.000421646
0.000515711
8.16264e-05
0.000286895
5.57032e-06
0.000421934
9.3733e-05
0.000571299
0.000568359
0.000779605
0.000778766
0.000817439
0.0007424
0.000411912
0.000413937
0.000574142
0.00081435
0.000763374
0.000697379
0.000828046
0.000843758