/*--------------------------------*- C++ -*----------------------------------*\
| =========                 |                                                 |
| \\      /  F ield         | OpenFOAM: The Open Source CFD Toolbox           |
|  \\    /   O peration     | Version:  5.x                                   |
|   \\  /    A nd           | Web:      www.OpenFOAM.org                      |
|    \\/     M anipulation  |                                                 |
\*---------------------------------------------------------------------------*/
FoamFile
{
    version     2.0;
    format      ascii;
    class       volScalarField;
    location    "1.2";
    object      omega;
}
// * * * * * * * * * * * * * * * * * * * * * * * * * * * * * * * * * * * * * //

dimensions      [0 0 -1 0 0 0 0];

internalField   nonuniform List<scalar> 
12160
(
0.0719999
0.0719999
0.00312107
0.0719999
0.00658098
0.00130002
0.0719999
0.0100379
0.00180686
0.00121067
0.0719999
0.0108677
0.00244251
0.00144145
0.00121423
0.0719999
0.0102836
0.00258454
0.00163448
0.0014005
0.00138618
0.0719999
0.0096827
0.00243744
0.00166024
0.00152453
0.00159189
0.00144153
0.0719999
0.0093088
0.00228421
0.00161624
0.00155185
0.00162927
0.00185757
0.00223916
0.0719999
0.00905775
0.00219569
0.00157021
0.00153936
0.00162652
0.00189387
0.00269248
0.0100125
0.0719999
0.0089087
0.00213802
0.00154376
0.00150863
0.00161714
0.00182425
0.00232783
0.00810003
0.00958889
0.0719999
0.00884576
0.00210266
0.00151946
0.00148867
0.00159426
0.00176787
0.00222961
0.00651524
0.00901999
0.0198121
0.0719999
0.00875812
0.00208453
0.00150114
0.00146663
0.00157162
0.00173891
0.00241795
0.00573661
0.00838364
0.0108986
0.0172546
0.0719999
0.00852662
0.00206246
0.00148652
0.00144482
0.00154871
0.00171304
0.00273545
0.00568317
0.00896876
0.0105435
0.00611875
0.00615964
0.0719999
0.00814136
0.00201015
0.00146976
0.00142368
0.00152573
0.00165703
0.00290745
0.00599646
0.00858601
0.0132537
0.00428161
0.00386752
0.00526888
0.0719999
0.00763663
0.00192684
0.0014446
0.00140236
0.00150118
0.00158645
0.00290915
0.00634236
0.00809629
0.014185
0.00566391
0.00246898
0.00265127
0.00366634
0.0719999
0.00706116
0.00182283
0.00141053
0.00137706
0.0014734
0.00152463
0.00280072
0.00645936
0.00740617
0.0145761
0.00849413
0.00277628
0.00211898
0.00168852
0.0719999
0.00646427
0.00171101
0.00137033
0.00134709
0.00144164
0.00148218
0.00268152
0.00635649
0.00666899
0.014067
0.0118926
0.00280966
0.00217516
0.00155488
0.0719999
0.00588677
0.00160263
0.00132798
0.00131383
0.00140585
0.00144119
0.0026116
0.00607179
0.00602257
0.0129325
0.0145952
0.00285317
0.00208249
0.00157428
0.0719999
0.00535735
0.00150513
0.00128688
0.00127936
0.00136692
0.00139545
0.00256158
0.00566079
0.00552898
0.0114052
0.0166506
0.00306674
0.0020516
0.00155211
0.0719999
0.00489552
0.00142222
0.00124925
0.00124575
0.001327
0.00134736
0.00252739
0.005248
0.00516564
0.00986153
0.0180312
0.0033703
0.00207227
0.00154716
0.0719999
0.00451129
0.00135499
0.0012163
0.00121444
0.00128835
0.0013006
0.00251154
0.00487032
0.00477827
0.00890429
0.0182006
0.00377915
0.00210314
0.00159734
0.0719999
0.00421042
0.00130271
0.00118855
0.00118642
0.00125247
0.00125747
0.00250883
0.00451656
0.00433389
0.00867868
0.0167065
0.0041397
0.00214925
0.00166578
0.0719999
0.00399383
0.00126405
0.00116602
0.00116223
0.00122032
0.00121896
0.00250825
0.00416205
0.00391339
0.00871302
0.0138393
0.00434874
0.00212996
0.00171958
0.0719999
0.00386031
0.00123741
0.00114856
0.00114205
0.00119248
0.00118536
0.00249732
0.00378454
0.00358568
0.00868919
0.0105593
0.00415639
0.00205635
0.00167844
0.0719999
0.00380636
0.00122142
0.00113595
0.00112595
0.00116922
0.00115664
0.00246141
0.00338098
0.00338254
0.008224
0.00749844
0.00344455
0.00193373
0.00156713
0.0719999
0.00383137
0.00121501
0.00112801
0.00111396
0.00115063
0.00113253
0.00238498
0.00297248
0.0032892
0.00693753
0.00527132
0.0026898
0.00172728
0.00145547
0.0719999
0.00393139
0.00121786
0.00112466
0.00110618
0.00113682
0.00111279
0.00225343
0.00259671
0.00323017
0.00540655
0.00375977
0.0021187
0.00152879
0.00135282
0.0719999
0.00410234
0.0012296
0.00112593
0.00110275
0.00112787
0.00109741
0.0020545
0.00229155
0.00311738
0.0042261
0.00278446
0.00174143
0.00138492
0.00127125
0.0719999
0.00434073
0.00125021
0.00113157
0.00110388
0.0011239
0.00108667
0.00179383
0.00207538
0.00291605
0.00334845
0.00217164
0.00150373
0.00129091
0.00121608
0.0719999
0.00464206
0.00128007
0.00114131
0.00110932
0.00112515
0.00108127
0.00150529
0.00195234
0.00263024
0.00268598
0.00178116
0.00135136
0.00122787
0.00117946
0.0719999
0.00500062
0.00131964
0.00115497
0.00111862
0.00113135
0.00108245
0.00124169
0.00190268
0.00230104
0.0021784
0.00152683
0.00124868
0.00118054
0.00115257
0.0719999
0.00540884
0.00136934
0.00117237
0.00113139
0.00114196
0.00109003
0.00112445
0.00188783
0.00199065
0.00179418
0.00135939
0.00117712
0.0011408
0.00112756
0.0719999
0.0058576
0.00142941
0.00119338
0.00114728
0.00115656
0.00110227
0.00132137
0.00187443
0.00174477
0.00150679
0.00124852
0.00112715
0.00110687
0.00110173
0.0719999
0.00633616
0.00149973
0.00121788
0.00116601
0.00117476
0.00111824
0.00156483
0.00189575
0.00165469
0.00129959
0.00117312
0.00109335
0.00107926
0.0010766
0.0719999
0.0068323
0.00157967
0.00124568
0.00118734
0.0011962
0.00113742
0.00179135
0.00193872
0.00182651
0.0012685
0.00112198
0.00107213
0.00105957
0.00105451
0.0719999
0.00733166
0.00166785
0.0012765
0.00121101
0.00122058
0.00115958
0.00197387
0.00203036
0.00207952
0.00144584
0.00111645
0.00106197
0.00104833
0.00103717
0.0719999
0.0078187
0.001762
0.00130986
0.00123671
0.00124757
0.00118466
0.00210418
0.00218522
0.00235054
0.00170063
0.00116626
0.00106502
0.00104524
0.00102488
0.0719999
0.00827969
0.00185902
0.00134507
0.00126402
0.0012768
0.00121263
0.00218821
0.00239808
0.00259449
0.00202754
0.00123945
0.0010798
0.00104856
0.00101933
0.0719999
0.00871113
0.00195573
0.00138126
0.00129242
0.00130783
0.00124344
0.00223718
0.00265368
0.00277912
0.00243299
0.00134203
0.00110258
0.00105706
0.00102525
0.0719999
0.00912577
0.00205096
0.00141756
0.00132132
0.00134015
0.00127692
0.00226239
0.00293124
0.00289833
0.00292382
0.00148418
0.00113543
0.00107091
0.00103484
0.00949651
0.0719999
0.00214726
0.0014539
0.00135024
0.0013732
0.0013128
0.0022733
0.0032103
0.00296858
0.0035114
0.00168302
0.00117998
0.00109062
0.00104779
0.00223936
0.00962097
0.0719999
0.00149162
0.00137931
0.00140647
0.00135066
0.00227736
0.00347638
0.00303181
0.00421737
0.00195919
0.00123975
0.001116
0.00106444
0.00153066
0.00228356
0.00989969
0.0719999
0.00140985
0.00143998
0.00139001
0.00228038
0.00372376
0.00313421
0.00506944
0.00234468
0.00131968
0.00114653
0.00108452
0.00144305
0.00156248
0.00239771
0.0106143
0.0719999
0.00147511
0.00143059
0.00228681
0.00395597
0.00330254
0.00605176
0.00288284
0.00142672
0.00118208
0.00110744
0.00151384
0.00147687
0.00164594
0.00268232
0.0128007
0.0719999
0.00147278
0.00230013
0.00418686
0.00354449
0.00689629
0.00362795
0.00157273
0.00122246
0.00113198
0.0015185
0.00155609
0.00156036
0.00181916
0.00351178
0.0188098
0.0719999
0.00232134
0.00443829
0.00385365
0.00732483
0.00464046
0.00177679
0.00126906
0.00115695
0.00234883
0.00156917
0.00165188
0.00169691
0.00226114
0.0058841
0.0339408
0.0719999
0.00471157
0.00420436
0.00747938
0.00598551
0.00206437
0.0013257
0.00118148
0.00495279
0.00239493
0.00168457
0.00177605
0.0019512
0.00348486
0.0117774
0.0605044
0.0719999
0.00454699
0.00748434
0.00776168
0.00246549
0.00139979
0.00120562
0.00481045
0.00513431
0.00249753
0.00184733
0.00194121
0.00251158
0.00655041
0.0232463
0.0646688
0.0719999
0.00738046
0.0100068
0.00300917
0.00150214
0.0012337
0.00723071
0.00497244
0.00541049
0.00271468
0.0020266
0.00218151
0.00387687
0.0132637
0.0329125
0.105916
0.0719999
0.0123446
0.0037034
0.00164478
0.00127088
0.0145236
0.00721856
0.00524084
0.00548512
0.00290072
0.00217069
0.00266395
0.00759189
0.0237238
0.0574349
0.103935
0.118964
0.00446915
0.00182907
0.00132153
0.00507653
0.0166387
0.00797319
0.00559482
0.00526299
0.00293217
0.0022927
0.00416308
0.0153552
0.0432109
0.0890238
0.112759
0.0481467
0.0568889
0.00205037
0.0013879
0.00219829
0.00501598
0.0184115
0.00964529
0.00614227
0.00490918
0.00283731
0.00275172
0.00836489
0.0295329
0.0709137
0.104926
0.0471961
0.028526
0.0420837
0.0568889
0.00146953
0.00153927
0.00213551
0.00490965
0.0176256
0.0110403
0.00677369
0.00469048
0.00288711
0.00456886
0.0168455
0.0519501
0.0930867
0.0398594
0.0280145
0.022777
0.0275888
0.0418129
0.0568889
0.00158505
0.00218489
0.00401137
0.0153155
0.0116854
0.00725478
0.00481022
0.00362415
0.00855359
0.0324178
0.0747283
0.0289339
0.0251581
0.02214
0.0218576
0.022977
0.0273486
0.0431366
0.0568889
0.00170955
0.002215
0.00318927
0.0125014
0.0114331
0.00741757
0.00532713
0.005201
0.0157666
0.0536625
0.0219364
0.0210688
0.0205977
0.0205373
0.0230202
0.0231141
0.0234164
0.0275627
0.0465104
0.0568889
0.00177244
0.00214439
0.00264817
0.00951391
0.0102839
0.00733516
0.0060074
0.00733495
0.0303187
0.0180064
0.0176135
0.0183561
0.0188737
0.0207444
0.0249907
0.0257007
0.024845
0.0245235
0.0285464
0.0508061
0.0568889
0.00170206
0.00203987
0.00232535
0.0066062
0.00848457
0.00701554
0.0068174
0.0122977
0.0144288
0.0149228
0.0160129
0.0169791
0.0184518
0.0215506
0.0294436
0.0294754
0.0294529
0.0281054
0.0281163
0.0290834
0.0271663
0.0265241
0.0306608
0.0553151
0.0568889
0.00158591
0.00194576
0.00214546
0.0043712
0.00679534
0.00679169
0.00751811
0.00855147
0.012322
0.0137744
0.0152162
0.0162564
0.0186224
0.0229677
0.0327399
0.0323711
0.0348088
0.0327302
0.0343837
0.0343856
0.0323863
0.0305659
0.0305867
0.03265
0.0298341
0.0294811
0.0340404
0.0599256
0.0568889
0.00147687
0.00187858
0.00202517
0.00323904
0.00615766
0.00707117
0.00749441
0.00889934
0.011515
0.0134025
0.0144443
0.015958
0.0189621
0.026062
0.0260953
0.0248793
0.0248876
0.0349507
0.0341055
0.0403354
0.0377572
0.0349522
0.036367
0.0363747
0.0341323
0.032327
0.0323653
0.0357455
0.0322003
0.033042
0.0385545
0.0649844
0.0568889
0.0014003
0.00181683
0.00201293
0.00284681
0.00677827
0.00789084
0.0081976
0.00872566
0.0108078
0.0128821
0.0138177
0.0158287
0.021701
0.0216978
0.0211611
0.0211691
0.027998
0.0280375
0.0264725
0.0264834
0.0360383
0.0338722
0.0358168
0.0341389
0.0355712
0.0428016
0.0438326
0.0408133
0.0407011
0.0384689
0.0384963
0.0360533
0.0370976
0.037116
0.0339134
0.035829
0.0341622
0.0355967
0.0322988
0.0338266
0.0321414
0.0340713
0.0323442
0.033851
0.0321792
0.0341017
0.036771
0.0344977
0.0376624
0.0445398
0.0710374
0.0568889
0.00133837
0.00179212
0.00202845
0.00287758
0.00917214
0.00950784
0.00920493
0.00852019
0.010688
0.0120422
0.0133499
0.0186723
0.0186751
0.0182687
0.0182776
0.0236183
0.0236185
0.0229682
0.0229807
0.0298894
0.0352248
0.0279948
0.0294056
0.0278763
0.0319526
0.0352185
0.0299491
0.0280408
0.0294379
0.0279166
0.0319771
0.0279082
0.026307
0.028042
0.0263994
0.0279078
0.0263124
0.0280477
0.0264117
0.035826
0.0372916
0.0357466
0.0373436
0.0336966
0.0371479
0.0340892
0.0369043
0.0433502
0.0471685
0.0470573
0.046465
0.043686
0.0433028
0.0392667
0.0390299
0.0371868
0.0371001
0.0358643
0.0372915
0.0357668
0.0373415
0.03666
0.0376081
0.0368559
0.037818
0.0366916
0.0376272
0.0368157
0.0378132
0.0337652
0.0371459
0.0341097
0.0369261
0.0321435
0.0354535
0.0322006
0.0354646
0.0368798
0.0376107
0.0437618
0.0523728
0.0785422
0.0568889
0.00130927
0.00169428
0.00211855
0.00302301
0.0131275
0.0115515
0.010233
0.00916782
0.0105006
0.0119639
0.0161279
0.0161219
0.0198146
0.019709
0.0207018
0.0207127
0.0202261
0.0202365
0.0255463
0.0236215
0.0254793
0.0235927
0.0255359
0.0236149
0.0254718
0.0235853
0.0246279
0.0228609
0.0249046
0.0229291
0.0246231
0.0228668
0.0249057
0.0229365
0.0362216
0.0301456
0.0279583
0.0317433
0.0299124
0.0277698
0.0362005
0.0302023
0.0317394
0.0280055
0.0299408
0.0278107
0.0285988
0.0261627
0.0288194
0.0263639
0.0285905
0.0261653
0.0288218
0.0263764
0.0356254
0.038409
0.0355426
0.0383828
0.0335092
0.0377531
0.0339968
0.0374512
0.0420023
0.0483049
0.0517356
0.0505893
0.0495153
0.0488334
0.0466175
0.046014
0.0427921
0.0424094
0.0397754
0.0388211
0.0384378
0.0382963
0.039472
0.0385031
0.0382012
0.0380401
0.0380497
0.0380421
0.0370999
0.0379105
0.0374221
0.0368865
0.0379851
0.0380399
0.03693
0.0377976
0.0372252
0.0368275
0.0356853
0.0383914
0.0355649
0.0383683
0.0363102
0.0383777
0.0363346
0.0383616
0.0335855
0.0377515
0.034015
0.0374648
0.0320228
0.036217
0.0320843
0.0362122
0.0373106
0.042207
0.0517349
0.0623884
0.0874108
0.0568889
0.00125968
0.0016678
0.00199801
0.00368798
0.01534
0.0135601
0.0137236
0.0148769
0.0248257
0.0598912
0.0594331
0.190874
0.190047
0.0204617
0.0203988
0.0369245
0.0362674
0.0227707
0.0207594
0.0227403
0.0207088
0.0227698
0.0207681
0.0227437
0.0207153
0.0251749
0.023241
0.0226381
0.0204984
0.0252338
0.0232136
0.0226503
0.0204929
0.0265506
0.0236641
0.0266033
0.0235971
0.0265363
0.0236511
0.0265916
0.0235831
0.0262262
0.0227829
0.0263244
0.0230123
0.0262095
0.0227822
0.0263164
0.0230116
0.0355079
0.0387834
0.0354105
0.0388859
0.0397024
0.046997
0.0559617
0.0523923
0.0549293
0.0521526
0.053519
0.0514675
0.0497259
0.0489784
0.0490275
0.0458409
0.0461652
0.0439081
0.0482415
0.0453193
0.0455001
0.0434575
0.0414517
0.0400721
0.0436557
0.0417236
0.0410417
0.0397043
0.0431079
0.0413203
0.040026
0.0386943
0.0388572
0.0378581
0.0398255
0.0384897
0.0386917
0.0376922
0.0384235
0.0380758
0.0371804
0.0368579
0.0380886
0.0375698
0.0383881
0.0380132
0.0369875
0.0368042
0.0379765
0.0373047
0.0355778
0.0387635
0.0354287
0.0388597
0.036053
0.0386726
0.0360865
0.0386357
0.0392481
0.0487026
0.0620507
0.0745259
0.097326
0.0568889
0.00122434
0.00154732
0.00211068
0.00377877
0.0179796
0.0260579
0.047033
0.126638
0.354866
0.112193
0.110738
0.298333
0.296864
0.0436037
0.0435193
0.122311
0.122293
0.0247158
0.0209168
0.0247778
0.0208708
0.0247035
0.0209209
0.02478
0.0208731
0.0293465
0.026579
0.0252075
0.0213663
0.0295
0.0265333
0.0252507
0.0213537
0.0264241
0.0224761
0.026405
0.022476
0.0388636
0.0447477
0.0529122
0.0505343
0.0544512
0.0513663
0.0662251
0.0569856
0.0614364
0.0551696
0.0610252
0.0618368
0.0546327
0.0522558
0.0553973
0.0554161
0.0525402
0.0500396
0.050744
0.0470809
0.0524905
0.048973
0.0499189
0.0464803
0.0513791
0.0479652
0.0497295
0.0463341
0.0465248
0.0444669
0.0489872
0.0459089
0.0458902
0.0441345
0.0417365
0.0403976
0.0438929
0.0419965
0.0413876
0.0401255
0.043385
0.0417036
0.0430761
0.0577309
0.0747018
0.0883026
0.106989
0.0568889
0.00116385
0.00158091
0.00192
0.00521398
0.0749258
0.158459
0.553086
1.68558
2.39226
2.38932
5.20982
5.20438
0.375557
0.374245
1.01907
1.0142
0.0557085
0.0595389
0.0428856
0.0903412
0.0557762
0.0597674
0.0428752
0.0909485
0.121104
0.303149
0.177871
0.190665
0.121565
0.302722
0.178251
0.19062
0.0256275
0.0209785
0.0261917
0.0210909
0.0256116
0.0209831
0.0261937
0.0210913
0.0362809
0.02895
0.0276879
0.0223292
0.0364888
0.0289021
0.0277432
0.0223179
0.0398915
0.0434995
0.0529966
0.0701195
0.0582163
0.065266
0.0557047
0.0938566
0.0710826
0.0758262
0.062539
0.0670757
0.0695347
0.0571609
0.0550753
0.0584623
0.0600384
0.0540556
0.0516786
0.0515319
0.0474037
0.0537612
0.0498205
0.0506984
0.0468623
0.0523663
0.0486013
0.0497145
0.0465918
0.048977
0.0461166
0.0491741
0.069786
0.0891059
0.102477
0.112132
0.0719993
0.00116612
0.00147126
0.0021326
0.0131971
0.724327
2.07866
5.85051
10.269
4.84081
4.83475
8.48449
8.47754
0.653773
0.446873
0.844632
1.08194
0.65196
0.445778
0.842966
1.0793
2.28613
2.28203
0.0698653
0.0794395
0.046534
0.14128
0.0699509
0.0798393
0.0465671
0.141623
0.145475
0.506927
0.265282
0.286663
0.146089
0.506814
0.265741
0.286849
0.0467939
0.0325855
0.0470508
0.0325686
0.0425037
0.042166
0.0578997
0.133448
0.0793322
0.124235
0.0813519
0.137492
0.0941444
0.099919
0.0724709
0.187069
0.152129
0.199764
0.144892
0.132806
0.101169
0.137843
0.0995858
0.129835
0.0892712
0.0985383
0.114033
0.0960956
0.0693087
0.0774616
0.0826799
0.0772301
0.0836768
0.0608135
0.0597139
0.0634984
0.0688167
0.0558058
0.0542297
0.0517448
0.0476282
0.0545684
0.0508968
0.0508319
0.0470041
0.0527396
0.0492584
0.0586925
0.0845625
0.103722
0.113679
0.0719993
0.00115371
0.00160666
0.00271182
0.0884011
4.55601
23.5344
23.5341
23.5753
23.5728
39.4446
39.4438
7.55456
5.54246
10.358
8.18327
7.54569
5.53814
10.3525
8.17795
15.5452
15.5406
0.959628
0.594176
1.16855
1.56642
0.958215
0.592184
1.16504
1.56292
4.38143
3.07254
3.20443
2.28467
4.37743
3.0689
3.19894
2.28084
0.197947
0.698195
0.368156
0.398791
0.198632
0.697564
0.368272
0.399141
0.0471029
0.0426637
0.0507749
0.141725
0.381007
0.206246
0.2969
0.176203
0.35471
0.229435
0.167032
0.20361
0.298719
0.231336
0.108248
0.140142
0.203539
0.146275
0.299956
0.197989
0.308149
0.197626
0.216104
0.127723
0.218969
0.130999
0.181363
0.109597
0.127088
0.147188
0.131884
0.0806019
0.0966549
0.102285
0.0927289
0.103138
0.0719857
0.0813879
0.0729101
0.101144
0.114089
0.0719993
0.00122389
0.00165489
0.00898733
0.642105
15.6458
56.4506
113.926
113.935
117.841
117.897
41.8911
41.7638
68.5598
68.1306
10.2178
6.70936
13.7657
10.1451
10.2076
6.70489
13.7579
10.1402
18.4035
30.6164
25.1371
23.9941
18.3892
30.5742
25.0952
23.9772
1.27873
0.755638
1.39558
2.15362
1.27557
0.753276
1.39222
2.14759
6.51268
4.0071
4.25802
2.63358
6.50484
4.00256
4.2501
2.62876
0.0571311
0.0435034
0.0486083
0.0909803
0.679795
0.331664
0.941375
0.51469
1.08155
0.618312
0.735025
0.90538
0.790072
0.992286
0.456734
0.627563
0.458408
0.658331
0.77832
1.02231
0.725469
0.855814
0.379738
0.472308
0.498481
0.747552
0.468654
0.633444
0.238306
0.343081
0.254207
0.36199
0.160609
0.261312
0.441963
0.282774
0.445288
0.308482
0.322611
0.177177
0.322648
0.20107
0.0934961
0.114538
0.0719993
0.00132388
0.00209889
0.0796018
4.37222
36.6385
103.527
124.548
122.504
144.738
143.686
55.4824
39.5584
41.4447
68.1979
49.9167
30.5167
39.4782
54.9935
30.4551
41.2199
67.0578
49.411
131.876
88.9235
112.002
74.5976
125.569
86.7256
108.593
73.2708
13.3112
8.49618
18.6447
12.8106
13.2965
8.4902
18.6356
12.8032
22.8081
31.6403
22.7826
31.6012
1.71922
2.8166
1.71573
2.81051
8.7861
5.39347
8.77739
5.38881
0.0801655
0.0472715
0.0464971
0.0727393
0.369817
0.142493
0.573464
0.246719
1.71813
0.893773
2.43174
1.46041
3.04255
2.60866
2.95602
2.75957
1.92186
1.46932
2.44572
1.40096
1.91839
1.58332
1.49277
0.8787
1.13632
1.73407
0.729072
1.33451
1.15696
1.88632
1.15006
0.647763
1.43623
0.801118
0.758918
1.47616
0.769031
0.405888
1.10739
0.607409
0.426203
0.604216
0.266366
0.450411
0.116885
0.0719993
0.00152474
0.00465418
0.654263
19.5877
68.6541
262.892
261.21
226.446
226.506
275.939
259.791
278.826
271.1
47.2607
61.4471
43.2291
33.7716
73.7712
48.3557
47.0263
60.7438
33.6588
42.9182
72.432
47.7942
160.657
91.6134
110.408
66.8248
143.436
86.8192
105.705
65.3741
23.6621
16.3588
23.648
16.3467
0.120504
0.0662723
0.0473206
0.0548738
0.221601
1.00484
0.416355
1.50612
0.703556
5.12865
5.52295
5.05918
5.46447
2.84699
3.466
3.15384
4.04003
6.1134
4.4852
7.40184
5.00624
6.03412
5.28691
3.88311
2.63528
6.26587
3.19699
4.83184
4.28202
5.16709
3.35626
4.79865
2.62834
4.47478
2.83683
2.61296
1.36052
1.7479
2.98352
1.06288
2.39728
1.82579
3.24044
1.1722
1.32897
1.1783
2.60272
0.783209
1.02902
0.0719993
0.00189491
0.0413899
3.75529
43.7003
122.321
354.342
347.929
210.732
212.416
452.692
659.638
324.486
848.503
354.463
381.911
169.576
700.756
601.223
545.905
205.782
90.9146
67.4741
38.0021
102.294
57.008
52.6453
34.4055
0.0719993
0.123004
0.0618283
0.0513382
0.0880062
0.882771
0.365741
2.04757
0.990343
2.92194
1.47488
4.55394
2.5127
10.0022
11.0773
10.1977
12.2537
6.58768
9.34422
7.12584
11.0967
7.3752
8.81857
9.17921
12.0068
7.94373
10.8063
4.4194
5.8397
10.9646
8.0672
5.46819
9.78868
5.63227
5.21978
4.98304
2.63172
0.00302131
0.36188
12.953
79.5569
277.274
279.657
268.77
269.34
770.25
764.434
504.764
507.752
647.198
867.599
447.258
1203.68
454.489
314.152
166.309
893.403
1285.62
746.754
1257.25
689.1
1268.09
733.325
1180.57
642.197
240.619
92.4495
59.8498
36.711
0.0719979
0.119312
0.0633643
0.0606308
0.255705
2.07752
1.21547
5.40069
3.26682
9.68433
6.40108
11.5099
14.2677
14.2872
11.7526
8.34924
9.31675
12.0929
7.05813
17.5912
19.6785
21.8588
24.0905
12.021
18.2319
15.1734
22.5359
0.0221137
2.22433
24.1835
151.713
381.402
384.328
314.92
315.384
1335.07
766.272
701.899
1162.91
725.063
1106.11
1304.53
746.049
704.584
1152.29
716.856
1113.76
606.48
608.725
482.019
622.355
253.798
964.703
391.69
300.799
122.312
804.8
1161.35
646.003
1108.22
612.17
0.0719922
0.116142
0.0676692
0.0963367
0.434211
0.266344
1.45766
0.84825
2.71808
2.18473
12.6882
9.15021
21.7237
17.18
33.0857
28.4839
22.5998
22.1675
14.4591
13.0842
24.7335
26.0402
16.2431
20.1217
25.5743
26.7254
18.0706
24.7205
31.0309
33.799
21.7594
31.5071
0.248041
4.7783
49.8467
370.831
371.287
298.843
299.439
502.677
505.414
436.641
437.649
1241.87
728.052
672.857
1142.14
690.82
1107.88
1212.31
709.617
674.403
1135.14
685.171
1112.87
812.721
531.519
881.142
562.626
826.435
539.091
888.528
567.103
0.0719775
0.11451
0.0792092
0.274703
2.27104
1.16753
5.34885
3.09435
12.6113
8.8496
42.7528
34.1681
17.5616
44.8411
35.042
23.5678
14.3196
34.3793
32.4678
16.76
32.2539
31.347
66.2488
40.6769
53.0779
40.121
50.2209
29.5621
50.1019
37.4144
44.2321
44.4484
30.8848
41.3651
0.646299
13.7006
97.4223
382.062
382.664
274.412
275.934
857.672
520.475
468.622
741.805
462.604
738.666
871.92
528.152
472.589
747.782
466.826
743.79
458.841
459.888
622.073
1032.52
625.087
1040.98
880.655
533.435
893.43
538.924
0.0719467
0.11636
0.126669
0.651537
0.222132
1.55419
0.617749
3.64244
1.73732
11.4108
6.7756
23.4322
16.4863
45.0065
34.4059
45.5662
35.1116
16.0597
34.2733
32.2077
12.5761
34.5608
31.9339
72.6167
54.9283
76.2927
55.5473
58.5876
55.3561
52.8322
51.8213
2.92623
30.5429
69.3604
283.604
289.852
202.784
207.357
800.464
478.59
421.581
673.375
401.877
694.4
811.042
483.572
423.263
675.911
403.04
696.937
564.473
362.017
581.805
350.589
570.615
363.813
581.865
351.037
765.559
471.58
777.844
475.615
0.0718876
0.132059
0.333745
1.77882
0.570381
3.7804
1.43971
9.55051
4.5789
38.4214
30.0557
14.9506
37.5941
29.6173
19.9786
26.9388
25.9768
10.1555
25.9974
26.1281
11.5576
69.7616
81.5248
52.0176
59.5553
62.3255
56.7862
53.8593
49.6969
8.61188
32.9382
107.212
133.425
140.002
107.766
90.516
90.5562
203.132
454.728
294.222
214.305
478.927
304.047
643.247
390.613
350.068
570.283
334.291
603.031
646.822
391.368
349.429
566.971
332.43
601.673
490.494
288.379
509.459
299.011
0.0717744
0.196914
1.36944
3.77994
1.42094
8.49272
3.97293
17.2278
12.0861
34.0809
25.8126
28.0699
20.0334
8.6131
13.5734
11.7531
6.50482
20.4137
20.5543
61.8825
49.0602
55.3621
44.4596
45.321
46.9801
36.5028
41.1741
94.9153
69.3997
73.0489
67.19
14.1289
36.1393
152.161
138.606
155.233
136.751
87.1934
85.3293
273.24
327.992
227.124
373.97
254.097
190.673
271.498
213.881
383.37
303.078
244.645
418.573
269.724
204.039
294.665
216.753
284.115
488.468
290.851
500.388
405.951
240.103
448.98
264.881
0.0715405
0.419509
4.41848
9.97194
5.08003
1.52479
9.98468
4.89582
23.6961
22.2754
11.9551
14.5408
11.8791
6.13382
59.2547
51.3473
43.9712
35.69
35.5418
39.6229
32.6404
30.7031
94.8569
72.4238
108.273
75.2477
66.1118
69.7353
66.8506
69.5547
19.3899
52.0031
192.212
218.654
292.714
176.474
191.084
222.377
315.809
176.108
116.141
116.766
319.006
329.535
356.547
211.785
203.398
204.255
364.974
415.429
352.744
246.996
222.839
215.571
231.768
398.649
254.639
438.813
0.0858463
1.16809
11.7275
19.2044
10.7531
5.13223
29.0094
16.3908
58.504
82.3232
51.8079
49.7097
32.4242
40.5134
28.1053
19.1965
37.2976
55.2767
44.6282
31.8518
25.3941
34.1893
14.2548
10.817
114.372
94.9221
68.3266
57.3958
68.8824
59.4549
63.048
50.0402
20.4971
143.599
149.667
151.344
143.649
133.717
133.276
298.27
235.711
391.933
263.464
327.601
237.375
328.263
234.81
229.383
354.339
261.746
300.269
237.538
390.493
261.895
337.911
236.696
324.872
232.676
229.339
360.494
260.166
352.706
383.277
211.128
231.673
381.463
392.917
227.268
236.409
0.166948
1.82157
12.123
81.4949
24.8344
40.8503
51.265
16.017
21.5355
3.8492
36.3685
17.1449
101.315
85.717
152.214
64.2976
83.5693
56.2193
70.0824
53.9292
104.074
72.1832
59.9992
48.2426
171.945
92.3389
112.816
76.1126
37.7243
207.766
199.986
208.78
199.639
168.391
167.681
437.967
422.691
268.764
264.76
411.734
262.885
391.127
434.826
296.301
398.575
281.885
265.381
365.517
266.882
437.478
418.445
263.921
265.756
410.136
260.224
440.475
392.733
294.469
405.726
279.702
264.838
371.164
266.17
0.194539
0.823028
13.898
6.45239
0.835006
0.310931
0.349375
149.694
80.0822
281.315
152.044
131.077
84.6866
302.304
157.004
74.6045
61.5888
184.616
111.204
81.67
53.8268
170.025
105.071
35.5043
139.795
73.6333
19.2865
63.7649
34.315
144.912
194.003
86.378
110.955
100.696
137.513
79.0736
94.8725
61.5466
270.089
298.256
449.238
239.455
270.248
298.521
454.162
239.211
207.455
206.359
450.129
279.994
451.098
281.605
476.998
482.65
483.069
295.461
292.394
291.382
447.617
276.888
451.245
279.573
478.752
483.189
483.287
293.739
290.734
291.03
0.0701625
0.368863
4.16049
1.85252
0.38905
0.289782
0.281307
311.986
386.692
174.175
207.871
307.817
163.927
243.479
283.691
144.252
151.599
193.675
112.921
31.6178
70.3427
53.5437
146.747
84.5458
35.4277
21.2672
24.6726
19.2924
47.0025
46.2956
78.7949
55.349
26.8621
11.2819
14.4982
131.226
306.432
306.306
285.084
326.021
532.261
341.748
510.97
257.775
285.011
326.155
534.74
341.262
512.153
257.701
488.827
503.082
538.014
292.881
295.797
316.439
488.919
504.308
537.297
291.422
294.794
315.82
0.0691822
0.339895
0.513763
10.1437
7.05944
0.258319
5.57631
3.19221
0.34831
0.295145
0.256718
402.509
218.867
263.901
142.288
306.988
167.251
178.262
108.908
48.6289
10.1489
118.446
44.1176
82.2552
10.7481
31.2574
4.09569
80.2064
74.4092
40.4535
7.5806
103.84
318.573
231.241
318.731
231.415
261.142
337.433
538.432
348.218
513.729
563.642
332.025
201.994
261.076
335.997
541.401
346.576
514.294
562.473
330.861
202.075
529.648
305.211
528.892
303.808
0.0685184
0.316466
0.318189
0.276387
2.65623
0.941921
0.694119
2.2072
0.209982
1.46892
0.269692
0.337929
0.982841
0.247959
0.229938
27.0802
94.1327
3.93013
26.3557
76.4698
2.30556
11.3612
63.3621
0.888122
71.0749
20.996
1.59486
27.0662
242.592
290.3
242.779
290.395
149.592
149.747
195.524
316.673
338.892
258.047
453.419
320.28
566.847
338.314
522.862
542.293
310.888
195.596
316.274
338.26
257.156
452.348
318.086
564.791
336.221
519.165
540.098
309.107
0.0685231
0.280363
0.384004
0.257063
0.256957
0.254841
0.277001
0.543644
0.278603
0.345836
2.0015
0.891964
0.214393
0.211432
0.204991
0.211378
0.203397
0.279686
0.356782
0.400563
0.224446
12.4913
13.9415
1.89835
4.44861
13.4524
242.087
158.234
241.689
157.804
187.412
231.83
187.507
231.706
158.269
158.333
162.861
266.012
177.004
251.229
302.597
367.002
249.033
490.026
316.342
555.997
320.354
525.883
163.455
265.438
176.472
252.202
301.331
365.946
248.2
488.242
313.507
552.199
317.934
520.839
0.0691927
0.433319
0.388382
0.26845
0.265169
0.77819
0.365551
1.06898
0.280181
0.601567
0.613479
0.267821
0.262232
1.1581
0.281246
0.634335
7.20479
8.30717
0.477092
0.223558
0.369947
0.355083
0.214662
0.211431
0.210359
0.211243
0.20535
0.724527
1.80144
9.79725
91.9659
54.046
91.378
53.1615
222.955
171.322
222.619
170.533
199.998
244.691
200.008
244.593
138.827
234.049
141.677
229.87
139.255
235.128
142.194
230.734
154.551
290.949
174.255
269.199
155.267
290.493
173.928
270.562
0.0701706
0.327231
0.332416
0.315199
0.342858
0.911702
0.808188
0.409122
0.323256
2.01558
0.882572
4.52572
1.76102
2.00843
3.53169
0.332305
0.655566
0.687874
0.351467
0.782686
3.40534
1.82244
1.68393
2.03472
0.786939
0.872088
1.52677
0.232378
0.366215
0.396342
0.210631
0.230824
0.261131
0.318389
0.214615
28.6798
7.90899
122.569
82.0053
121.013
80.9505
259.123
241.418
258.953
241.414
188.037
274.577
174.421
290.027
238.416
408.982
283.873
330.921
188.573
275.939
175.092
291.031
238.503
408.996
282.958
331.105
133.621
248.452
135.301
246.576
134.125
249.703
135.909
247.639
0.239672
0.395499
1.01665
0.407465
1.00993
0.309777
0.296195
0.242334
0.257421
2.3687
2.15492
1.00764
0.786545
5.55223
5.28133
6.80324
4.15623
2.64415
2.40486
3.40364
1.84429
6.39043
2.31965
3.4303
4.59875
3.06435
0.866319
1.31794
2.0415
27.2318
95.5022
89.2214
95.9099
89.7548
6.04414
206.076
151.257
205.94
152.074
313.939
449.356
302.37
471.157
316.989
461.327
316.487
474.551
313.844
449.553
302.064
471.669
317.062
472.099
316.537
477.708
183.384
291.353
165.82
314.496
233.83
463.309
291.119
354.911
184.021
292.753
166.582
315.847
233.592
461.944
289.812
355.009
0.339289
2.28882
0.28681
0.332697
0.283784
0.306057
0.55196
0.286102
0.259901
0.216425
7.19197
5.60651
7.22855
5.56605
7.27463
4.66487
5.98179
5.62199
3.38828
2.56109
3.67144
2.36655
3.31568
1.5786
2.29521
2.31024
8.11132
7.23465
9.74692
5.7942
4.10211
3.44093
5.2983
2.62962
28.0823
86.7483
114.898
86.8328
114.672
158.135
131.354
160.282
132.467
4.45636
285.002
435.838
304.723
395.517
258.403
240.855
228.083
314.113
287.306
442.861
305.985
399.064
260.087
247.304
227.73
325.341
315.389
516.741
312.675
532.521
315.424
538.301
320.953
530.966
313.209
513.659
310.705
528.177
313.838
539.267
320.649
528.02
0.14554
2.19711
16.7651
13.0063
8.81981
4.77021
0.488994
4.93638
0.356079
2.74667
0.964762
2.37673
2.23025
1.23071
0.390513
0.33486
0.285691
0.600405
0.344406
0.645103
0.646236
0.385014
0.234211
0.216653
0.216602
0.26165
10.8149
7.98245
10.7585
8.06921
10.5799
6.44674
8.54517
7.86901
5.79186
3.78945
5.96956
3.63962
5.59959
2.334
3.92064
3.42891
72.8815
20.1509
110.797
120.861
110.612
120.671
375.448
328.73
279.88
292.235
248.911
246.162
213.592
214.694
231.942
228.963
390.145
341.604
281.55
310.064
249.086
249.768
212.032
211.336
243.485
227.959
1.44804
307.064
532.15
317.739
513.111
284.724
457.504
309.186
534.495
318.583
516.873
287.921
466.134
302.085
530.882
311.371
515.741
300.18
530.685
310.22
512.965
0.0715387
0.596772
24.1347
8.88596
13.9346
3.92558
39.5411
38.5122
24.8387
21.8516
2.63196
0.500564
0.56888
2.40676
10.8013
26.5006
25.6167
8.40832
1.91552
0.468393
0.436503
1.78946
7.25418
16.7994