/*--------------------------------*- C++ -*----------------------------------*\
| =========                 |                                                 |
| \\      /  F ield         | OpenFOAM: The Open Source CFD Toolbox           |
|  \\    /   O peration     | Version:  5.x                                   |
|   \\  /    A nd           | Web:      www.OpenFOAM.org                      |
|    \\/     M anipulation  |                                                 |
\*---------------------------------------------------------------------------*/
FoamFile
{
    version     2.0;
    format      ascii;
    class       volScalarField;
    location    "1.2";
    object      p;
}
// * * * * * * * * * * * * * * * * * * * * * * * * * * * * * * * * * * * * * //

dimensions      [1 -1 -2 0 0 0 0];

internalField   nonuniform List<scalar> 
12160
(
5340.12
5344.03
4686.09
5347.3
4690.08
4032.32
5349.92
4693.28
4036.77
3378.13
5353.5
4695.67
4039.6
3383
2724.65
5359.74
4698.95
4041.38
3385.61
2730.75
2069.75
5368.99
4705.04
4044.07
3386.64
2732.41
2077.3
1416.26
5379.13
4714.66
4050.36
3388.37
2731.97
2078.94
1427.08
760.122
5387.59
4725.33
4060.31
3394.02
2732.32
2076.88
1426.29
774.641
223.103
5391.79
4734.28
4072.05
3405.04
2738.19
2075.25
1421.81
774.904
233.674
3.75225
5388.73
4737.69
4082.4
3418.56
2749.91
2079.63
1417.26
768.654
235.585
3.6457
-6.7081
5378.48
4735.92
4088.44
3430.78
2765.76
2092.99
1421.26
761.076
232.157
6.62656
-6.84258
-7.4812
5361.28
4725.94
4085.99
3437.62
2780.88
2112.26
1436.03
763.878
226.929
8.04244
-6.81138
-7.51039
-8.20836
5338.37
4708.57
4075.46
3436.17
2790.32
2131.18
1459.55
779.318
229.763
8.82019
-6.78809
-7.5205
-8.16921
-8.80748
5311.65
4685.3
4057.44
3426.02
2790.16
2143.37
1483.76
807.289
243.489
10.9225
-6.69321
-7.50423
-8.16159
-8.82277
-9.50157
5283.04
4658.13
4033.34
3407.33
2779.31
2144.57
1500.12
837.049
266.924
15.2312
-6.6163
-7.46684
-8.1582
-8.82528
-9.48412
5254.35
4629.04
4005.18
3382.02
2759.35
2133.94
1502.7
858.071
294.113
22.4581
-6.50618
-7.45558
-8.13576
-8.82031
-9.48107
5227.12
4599.91
3975.12
3352.43
2732.26
2112.57
1491.3
861.575
314.806
32.1769
-6.33685
-7.46716
-8.13166
-8.80667
-9.48085
5202.58
4572.31
3945.1
3320.92
2700.62
2083.19
1467.81
851.305
320.899
40.741
-6.02139
-7.51449
-8.14309
-8.80485
-9.47781
5181.62
4547.46
3916.73
3289.57
2667.1
2048.85
1435.49
825.877
312.684
43.9066
-5.56859
-7.5854
-8.17764
-8.81196
-9.47923
5164.88
4526.27
3891.26
3260.08
2633.96
2012.68
1397.81
789.833
291.549
41.7051
-5.2493
-7.6455
-8.23156
-8.83174
-9.48326
5152.71
4509.34
3869.58
3233.7
2602.95
1977.17
1358.5
747.459
263.289
34.9722
-5.30145
-7.67511
-8.27584
-8.86121
-9.49071
5145.28
4497.04
3852.29
3211.32
2575.36
1944.18
1320.32
704.068
232.63
26.6566
-5.68093
-7.67601
-8.29613
-8.88466
-9.49944
5142.62
4489.53
3839.73
3193.5
2552.05
1915
1285.22
662.363
202.532
18.8339
-6.11321
-7.64328
-8.29304
-8.89632
-9.50434
5144.6
4486.83
3832.05
3180.56
2533.53
1890.45
1254.44
624.205
175.011
12.2232
-6.41682
-7.59422
-8.26604
-8.89684
-9.50658
5151.01
4488.79
3829.25
3172.64
2520.11
1871.02
1228.72
590.845
151.065
7.05553
-6.58732
-7.5515
-8.2299
-8.88209
-9.50464
5161.53
4495.23
3831.19
3169.7
2511.86
1856.95
1208.48
563.055
131.093
3.25802
-6.67215
-7.51604
-8.19747
-8.86182
-9.50016
5175.75
4505.81
3837.68
3171.61
2508.74
1848.27
1193.85
541.21
115.12
0.61535
-6.71546
-7.48721
-8.17088
-8.84279
-9.49389
5193.21
4520.14
3848.38
3178.15
2510.6
1844.92
1184.82
525.417
102.96
-1.14275
-6.7355
-7.46555
-8.15153
-8.82699
-9.48778
5213.33
4537.74
3862.92
3189.03
2517.23
1846.71
1181.27
515.612
94.3698
-2.26341
-6.74571
-7.45172
-8.13683
-8.81531
-9.48253
5235.51
4558.06
3880.82
3203.86
2528.34
1853.44
1182.97
511.63
89.1067
-2.93673
-6.75099
-7.44275
-8.12681
-8.80655
-9.47858
5259.06
4580.49
3901.54
3222.19
2543.55
1864.83
1189.75
513.233
86.961
-3.29912
-6.75331
-7.43766
-8.12044
-8.80056
-9.47564
5283.26
4604.34
3924.47
3243.48
2562.43
1880.54
1201.33
520.234
87.7369
-3.43527
-6.75375
-7.43478
-8.11665
-8.79669
-9.47363
5307.36
4628.88
3948.92
3267.14
2584.48
1900.15
1217.41
532.381
91.3601
-3.37929
-6.75519
-7.433
-8.11437
-8.7943
-9.47232
5330.6
4653.37
3974.18
3292.48
2609.1
1923.18
1237.64
549.39
97.7699
-3.1297
-6.75359
-7.43175
-8.11293
-8.79287
-9.4715
5352.25
4677.02
3999.45
3318.77
2635.63
1949.06
1261.57
570.913
106.935
-2.65633
-6.74957
-7.43092
-8.11192
-8.79196
-9.47101
5371.64
4699.09
4023.95
3345.21
2663.31
1977.12
1288.68
596.517
118.839
-1.89191
-6.746
-7.43049
-8.11131
-8.79141
-9.47069
5388.19
4718.89
4046.9
3370.97
2691.33
2006.62
1318.3
625.662
133.455
-0.740802
-6.74015
-7.43054
-8.11114
-8.79104
-9.47051
5401.46
4735.8
4067.56
3395.22
2718.81
2036.7
1349.74
657.679
150.72
0.911372
-6.73113
-7.43157
-8.11134
-8.7909
-9.47039
5410.82
4749.3
4085.28
3417.17
2744.87
2066.44
1382.15
691.802
170.476
3.19543
-6.71775
-7.43459
-8.11229
-8.79107
-9.47035
4758.87
5419.89
4099.48
3436.07
2768.62
2094.86
1414.52
727.183
192.445
6.2402
-6.69683
-7.44074
-8.1146
-8.79173
-9.47042
4109.77
4768.34
5411.97
3451.29
2789.22
2120.97
1445.77
762.91
216.227
10.1414
-6.65994
-7.45038
-8.11899
-8.79323
-9.47066
3462.38
4120.44
4760.59
5384.15
2805.98
2143.76
1474.79
797.931
241.273
14.9591
-6.59923
-7.46509
-8.12605
-8.79595
-9.47119
2818.42
3473.64
4112.2
4732.32
5343.48
2162.42
1500.33
830.933
266.809
20.6969
-6.49548
-7.48356
-8.13621
-8.80022
-9.47212
2176.34
2831.6
3466.3
4082.99
4690.99
5301.86
1521.51
859.967
291.692
27.2484
-6.32061
-7.50542
-8.14871
-8.80622
-9.47356
1537.55
2191
2824.03
3435.94
4040.28
4647.42
5240.29
883.834
314.797
34.3992
-6.05099
-7.53167
-8.16484
-8.81388
-9.47557
901.983
1554.59
2184.29
2791.71
3391.23
3993.85
4584.1
5197.72
335.308
41.7687
-5.67335
-7.56199
-8.18542
-8.82368
-9.47818
351.501
920.176
1549.2
2149.83
2743.91
3341.07
3930.17
4544.67
5127.81
48.9939
-5.19964
-7.5985
-8.20965
-8.83597
-9.48151
55.0599
366.97
916.841
1511.87
2098.12
2689.45
3278.17
3888.96
4448.21
5026.13
-4.68457
-7.64057
-8.23849
-8.85059
-9.48566
-4.28232
59.9644
363.311
876.516
1454.93
2039.22
2627.62
3232.73
3790.78
4344.23
4954.96
-7.68413
-8.27089
-8.86741
-9.49062
-7.71309
-4.03057
57.3007
328.929
815.381
1390.05
1976.75
2578.44
3150.78
3715.03
4227.73
4995.23
-8.30332
-8.88548
-9.4961
-8.33161
-7.71218
-4.5086
42.1248
279.962
747.177
1324.79
1925.91
2518.44
3093.22
3565.11
4239.44
4829.28
5569.5
-8.9026
-9.50168
-8.91602
-8.32687
-7.71271
-5.57612
24.5859
233.104
682.117
1272.05
1878.86
2480.97
2985.58
3615.34
4226.11
4729.78
5427.92
6131.09
-9.5068
-9.51094
-8.91768
-8.33037
-7.66802
-6.26983
12.2781
193.323
630.401
1230.94
1857.72
2443.79
3077.72
3649.89
4170.92
4541.84
5289.55
6032.94
6748.41
-9.51275
-8.91947
-8.29813
-7.59541
-6.53894
5.23598
163.365
592.864
1220.21
1864.68
2510.08
3086.01
3614.5
4026.77
4270.31
5070.96
5889.02
6675.32
7416.19
-9.51594
-8.90352
-8.24107
-7.52825
-6.6392
1.44766
143.318
585.434
1234.55
1895.36
2499.27
3056.52
3505.37
3821.37
3832.93
4707.22
5654.02
6533.8
7354.32
8128.95
-9.51769
-8.87459
-8.19099
-7.48464
-6.67843
-0.870855
136.922
587.04
1258.61
1873.58
2464.78
2957.74
3337.03
3522.32
3277.34
4147.03
5254.25
6305.84
7229.2
8075.22
8877.37
-9.51353
-8.84642
-8.15789
-7.45881
-6.70611
-2.16891
133.95
609.977
1222.94
1833.8
2374.25
2814.5
3116.31
3103.68
2129.83
3436.38
2135.53
2144.22
2147.91
4655.23
5931.71
7024.69
7966.68
8831.65
9659.37
-9.50514
-8.82713
-8.13802
-7.44442
-6.7291
-3.20092
139.447
568.21
1186.94
1755.1
2250.38
2633.08
2840.77
2640.95
2146.73
1843.23
3908.75
2153.57
2245.8
2247.32
1845.57
1875.5
1876.05
5398.18
6716.78
7794.18
8735.46
9616.39
10464.7
-9.49756
-8.81491
-8.12714
-7.44035
-6.73824
-3.89328
122.332
545.011
1114.99
1647.03
2093.98
2415.62
2510.36
1747.01
1745.29
1757.25
1759.89
1813.91
1571
4808.73
3073.78
1820.07
1848.77
1851.38
1565.54
1664.63
1657.49
6304.17
7551.61
8586.83
9529.92
10425
11286.6
-9.49213
-8.8082
-8.12225
-7.43622
-6.73695
-4.37353
109.942
483.41
1015.97
1512.37
1902.13
2188.52
1731.91
1732.44
1709.79
1710.08
1552.94
1545.87
1607.43
1603.26
1464.29
1243.67
1106.24
1191.94
1154.81
5924.63
4157.22
2090.43
2089.36
1616.54
1630.64
1461.64
1443.87
1449.32
1241.9
1109.29
1191.82
1155.8
1323.21
1218.5
1386.94
1194.8
1318.73
1216.37
1383.23
1190.41
7274.81
8394.28
9397.82
10344.1
11248.1
12123.7
-9.48904
-8.80463
-8.11798
-7.43205
-6.72672
-4.85911
84.9862
399.76
907.74
1350.67
1692.81
1588.87
1588.43
1444.8
1443.39
1598.58
1590.4
1597.47
1588.22
1240.92
1224.99
1248.33
1212.82
1279.44
1235.69
1217.12
1253.68
1255.12
1213.54
1278.62
1235
1283.1
1354.76
1245.16
1317.07
1279.68
1353.18
1244.08
1315.91
1122.8
1071.53
1142.42
1037.57
1114.44
1069.81
1060.66
1126.1
7046.13
5544.89
3203.72
3187.46
2611.82
2597.36
1911.4
1930.67
1410.19
1424.74
1126.12
1070.15
1142.27
1040.77
1147.52
1085.12
1234.45
991.104
1154.2
1102.31
1240.12
1011.68
1114.39
1073.64
1061.86
1127.19
1211.53
1183.65
1208.64
1177.48
8194.76
9230.28
10223.2
11170.2
12083.2
12967.8
-9.48766
-8.80181
-8.1115
-7.43041
-6.71094
-5.32621
53.9456
325.117
764.937
1164.32
1243.25
1242.04
1070.65
1071.23
1488.77
1479.53
1346.98
1335.89
1274.43
1346.66
1230.2
1306.38
1270.7
1344.69
1231.21
1305.31
1252.96
1338.22
1225.96
1299.72
1252.48
1336.93
1226.87
1298.88
1208.34
1226.2
1205.68
1215.41
1234.93
1220.06
1210.06
1234.5
1216.85
1212.83
1236.74
1219.62
1282.69
1264.55
1253.13
1241.06
1281.88
1265.26
1253.38
1241.3
1045.18
1050.21
1041.1
1036.33
1127.94
1038.94
1072.88
1107.09
8072.26
6881.23
4323.49
4310.9
3780.14
3772.84
3087.43
3078.19
2449.2
2453.38
1632.29
1826.62
1448.81
1599.81
1650.55
1833.47
1470.63
1608.02
1149.22
1005.08
1166.4
1309.82
1406.03
1119.66
1162.5
1033.32
1172.46
1325.28
1415.1
1128.43
1049.24
1049.72
1042.15
1037.74
1070.94
962.103
1077.85
975.778
1128.02
1040.36
1072.3
1104.21
1180.26
1145.03
1180.97
1139.84
9074.38
10069.1
11055.5
12001.9
12926.8
13808.5
-9.48735
-8.79906
-8.1049
-7.4157
-6.70832
-5.54527
28.0507
249.208
606.315
863.842
865.27
650.441
651.1
1166.31
1160.66
969.166
967.434
1173.56
1276.15
1095.16
1197.07
1170.46
1273.88
1094.35
1194.42
988.176
1136.23
1033.47
1137.69
986.551
1134.33
1031.78
1135.39
1285.31
1254.77
1233.3
1196.48
1283.59
1255.18
1231.48
1197.19
1243.51
1203.62
1239.98
1184.5
1246.39
1206.85
1240.36
1186.67
1055.45
1000.31
1032.86
1030.27
8993.86
7983.21
5361.31
5346.83
4884.13
4862.28
4296.55
4270.33
3713.38
3694.66
2576.5
2859.67
2292.23
2564.52
2599.33
2864.79
2316.85
2574.07
1824.17
2062.47
2052.33
2312.04
1843.06
2071.17
2076.54
2321.77
1669.87
1821.93
1467.71
1618.49
1688.37
1832.13
1487.23
1629.1
1018.08
1181.62
1246.53
1103.66
1304.8
1426.4
1036.62
1203.02
1255.29
1110.77
1321.58
1435.64
1058.77
1002.01
1034.14
1027.79
1079.85
985.322
1085.07
991.26
9920.49
10913.3
11883.3
12840.8
13767.3
14634.9
-9.48593
-8.79564
-8.09405
-7.38405
-6.7072
-5.62348
10.0636
172.542
405.161
761.767
762.022
542.846
543.958
1048.58
1045.5
873.349
869.008
1164.92
1143.8
1096.91
1092.16
1165.29
1145.38
1095.33
1092.28
981.621
1018.27
1029.04
1047.42
979.7
1018.36
1027.06
1046.85
1181.17
1175.06
1187.49
1177.87
9841.49
8956.64
6297.56
6303.9
5857.22
5832.84
5350.84
5325.8
4857.93
4827.87
3562.3
4106.49
3352.8
3854.64
3581.67
4111.8
3370.63
3858.06
2835.31
3151.19
3089.13
3472.69
2849.83
3151.42
3111.47
3474.5
2588.3
2719.99
2330.64
2467.36
2611.87
2727.07
2350.22
2475.03
1871.97
2034.84
2089.28
2246.12
1891.12
2044.25
2110.38
2255.36
10767
11739.4
12710.1
13679.3
14598.5
15420.6
-9.48479
-8.78761
-8.0808
-7.3376
-6.70333
-5.64448
0.0662416
92.7118
278.752
279.083
141.182
141.494
677.862
674.772
465.548
466.492
812.969
873.091
879.851
782.57
812.338
871.811
880.054
780.028
755.972
624.459
690.6
706.401
754.888
623.731
689.981
703.574
1122.17
1122.76
1060.95
1071.88
1125.84
1124.87
1060.96
1073.46
964.49
958.069
993.634
1022.87
966.183
958.451
993.859
1023.22
10684.1
9853.42
9007.17
6308.4
6282.18
5818.64
5783.93
5305.02
5275.72
4825.18
4810.65
3568.18
3959.99
3387.03
3657.56
3578.26
3960.2
3399.49
3664.2
2853.96
3002.22
3130.34
3315.75
2864.23
3005.88
3143.48
3321.07
2664.45
2694.89
2680.81
2701.95
11602.8
12547.1
13535.4
14514.8
15395.4
16145.4
-9.48167
-8.77554
-8.06486
-7.27672
-6.6807
-5.69772
-3.64608
25.8119
199.935
199.223
81.3275
81.1217
533.463
607.986
539.978
445.61
532.545
606.717
537.674
443.912
386.48
384.967
737.535
831.65
809.156
764.267
737.705
831.95
809.001
761.576
675.557
601.263
607.949
694.292
675.206
599.103
608.32
689.977
925.815
918.106
929.488
918.631
11534.7
10727.1
9936.55
7206.87
7202.32
6704.71
6697.42
6238.04
6211.22
5710.49
5670.73
4685.28
4442.87
4920.9
4234.17
4680.98
4451.47
4913.89
4237.31
4427.9
3758.91
4170.79
3983.18
4425.87
3761.12
4170.63
3985.05
3582.89
3817.95
3394.46
3545.85
3592.97
3821.87
3404.25
3551.35
2863.93
2932.53
3130.08
3242.02
2873.38
2937.2
3138.19
3248.26
12391.9
13345.4
14359.9
15335.5
16123.7
-9.47733
-8.75596
-8.05779
-7.21769
-6.61799
-5.67601
-5.70727
5.03123
5.03953
-0.583505
-0.586026
147.64
167.634
87.21
102.339
148.043
167.701
87.5828
102.04
44.8272
44.8382
502.169
523.378
446.384
408.344
501.232
523.3
446.002
407.801
221.709
243.052
299.539
315.727
222.555
243.13
298.965
315.475
655.114
547.289
570.223
643.113
655.378
547.363
570.56
641.377
12330.3
11575.1
10832.5
10113.8
7113.78
7095.87
6517.77
6502.43
6215.62
6193.87
4703.07
5282.04
5360.92
4792.09
4697.11
5270.75
5351.33
4778.12
4462.47
4449.39
4717.49
4212.54
4465.03
4454.41
4715.64
4218.68
4222.45
3790.49
4015.16
3992.2
4225.56
3801.78
4017.31
3995.27
3624.51
3797.04
3639.47
3801.13
13157.8
14130.9
15218.9
16072.4
-9.47251
-8.72388
-8.04566
-7.20346
-6.50551
-6.21548
-2.28417
-2.29214
-3.22075
-3.23293
1.98336
1.99077
-1.47553
-1.46617
114.64
117.641
59.9673
60.8858
114.695
117.83
60.0061
60.8643
13.4881
8.65975
7.93597
14.5525
13.4815
8.70142
7.94983
14.6067
453.88
479.238
391.192
375.75
453.84
478.964
390.792
375.373
188.585
191.454
259.804
259.74
188.804
191.981
259.321
259.799
13085.9
12377.8
11679.3
10976.8
7876.42
7858.46
7412.41
7395.15
6810.66
6804.3
5421.66
6058.86
5390.49
6056.81
5426.14
6059.88
5415.88
6058.61
5202.93
5742.48
5014.84
5495.56
4804.68
5278.05
5229.52
5746.49
5035.74
5504.86
4802.23
5269.65
4693.63
5043.11
4694.56
5040.99
4384.37
4467.84
4529.3
4282.14
4385.61
4471.55
4530.53
4286.65
13905
14995.2
15968
-9.47352
-8.68589
-8.01558
-7.2289
-6.48489
-5.83725
-2.57226
-2.56983
-2.76873
-2.77613
2.87631
5.55821
3.09821
1.68115
1.73881
5.32307
5.58677
2.90952
5.33362
3.11281
1.72132
1.75793
-0.496412
-0.608371
0.681785
0.636781
-0.485305
-0.601597
0.71116
0.649699
83.465
87.9852
38.5604
44.9493
83.6303
88.1587
38.6664
45.0191
10.7866
11.7316
10.8038
11.7889
346.067
331.614
345.67
331.311
146.692
149.38
147.16
149.806
13814.1
13137.7
12477.8
11815
8665.45
8643.5
8272.92
8250.45
7714.86
7716.45
7231.53
7225.84
6387.21
5690.08
6451.07
5710.78
6090.55
5496.63
6412.84
5775.58
6459.32
5730.99
6087.56
5500.63
5451.64
5913.14
5439.63
5913.31
5273.92
5605.98
5114.76
4816.07
5370.45
5083.07
5251.76
5602.21
5094.89
4839.42
5372.34
5091.86
4646.49
4765.98
4655.02
4769.85
14705.3
15754
-9.47745
-8.66311
-7.96503
-7.22713
-6.1793
-3.47148
-3.45856
-4.18372
-4.16291
-2.17973
-2.16524
-2.51231
-2.53552
4.97026
2.86175
2.6918
5.00747
2.58276
2.76779
5.01538
2.89115
5.02186
2.70901
2.63645
2.79801
0.264023
0.281227
1.53001
1.53473
0.322195
0.3052
1.60411
1.56544
23.7155
24.5051
23.835
24.551
14558.5
13848.3
13242.2
12610.4
11973.5
8615.74
8596.72
8258.36
8236.42
6348.37
7057.15
6361.29
7047.21
6390.64
7068.62
6380.24
7058.32
5880.94
5703.67
6454.01
6093.05
6688.75
6371.8
5943.52
5785.2
6489.15
6141.14
6706.49
6407.96
6175.75
5875.47
5733.88
5570.66
6191.89
5881.61
5738.89
5552.79
5401.17
5639.85
5398.23
5641.44
5271.67
5459.2
4909.58
5092.87
5263.65
5458.09
4924.49
5101.8
15485.3
-9.47003
-8.67401
-7.89857
-7.158
-6.25025
-2.82584
-2.78147
-3.84102
-3.78472
-1.65458
-0.788633
-0.831106
-1.49899
-1.67605
-0.716262
-0.801489
-1.51929
-1.96994
-2.02531
0.592145
0.631334
1.69273
1.78434
0.685597
0.668078
1.79382
1.83201
15338.9
14565.1
13962.9
13374.4
12770.8
9428.43
9433.81
8986.39
8983.18
8582.74
8608.84
8002.62
8015.06
6499.3
7095.55
6580.22
7055.88
6526.76
7116.3
6578.99
7072.33
5832.71
6065.96
6202.39
6439.31
6318.05
6728.74
5890.18
6070.63
6459.08
6234.77
6308.35
6744.56
5878.82
5633.29
5885.45
5601.37
-9.44799
-8.6613
-7.87229
-7.09432
-4.50199
-4.47319
-5.07971
-5.08788
-4.15072
-4.16016
-3.98793
-3.97145
-1.42265
-0.870909
-0.905645
-1.25363
-1.46665
-0.788621
-0.866855
-1.30381
-3.06066
-3.42817
-3.09926
-3.36599
-3.11858
-3.45924
-3.26823
-3.4369
0.304416
0.397113
0.441276
0.45894
15320.2
14679.6
14084.8
13542.9
12895.7
9226.91
9295.9
8991.19
8972.59
8374.02
8374.5
7450.7
6805.47
7469.43
6739.24
7449.28
6812.04
7491.03
6738.72
6663.99
6937.02
6593.73
6819.62
6668.7
6955.44
6590.69
6829.4
-9.43386
-8.65972
-7.88822
-7.29605
-4.84232
-4.82715
-5.26393
-5.26259
-4.21658
-4.56283
-4.26488
-4.48188
-4.73714
-3.88818
-4.37391
-4.64415
-4.27258
-4.60613
-4.79909
-3.91111
-4.53714
-4.54097
-2.72137
-1.55479
-1.59119
-2.59668
-2.77531
-1.51975
-1.56008
-2.70082
-4.18858
-4.42502
-4.48012
-4.52564
15392.2
14819.1
14239
13707.9
10124.2
10111
9653.22
9651.03
9234.03
9238.87
8894.14
8821.55
7075.51
7817.91
7163.74
7790.58
6863.03
7480.07
7136.78
7832.54
7196.46
7819.99
6860.62
7492.42
6867.42
7253.53
6841.64
7263.46
6716.59
6961.18
6714.31
6964.28
-9.43081
-8.66689
-7.95529
-5.34092
-5.34231
-5.65129
-5.65419
-4.9152
-4.90946
-5.19186
-5.18772
-4.96663
-5.14022
-4.29538
-4.54933
-4.74057
-4.05798
-5.22584
-5.25735
-4.33774
-4.68084
-4.79604
-4.14006
-3.76342
-4.17663
-3.76629
-3.96481
-3.79404
-4.17951
-3.81767
-3.98218
15520.7
14968.6
14445.7
13858.4
10111.5
10081.1
9727.78
9715.24
9164.93
9132.36
7236.06
7897.33
8069.71
7446.81
8061.56
7389.02
8079.06
7421.21
8058.52
7381.32
7234.54
7913.13
7253.08
7056.05
7675.49
7352.09
7231.08
7072.38
7679.59
7360.94
6930.58
7184.55
6935.34
7184.15
-9.43211
-8.69319
-7.93606
-5.25017
-5.24729
-5.5238
-5.52755
-3.62335
-3.88266
-4.22764
-3.69358
-3.88701
-3.82145
-3.65639
-3.89608
-4.22522
-3.7032
-3.89051
-3.82383
-5.02928
-5.03331
-4.04281
-3.91389
-4.08195
-4.00069
-3.51676
-3.67258
-3.58379
-3.69619
15677.4
15168.3
14675.4
10889.5
10884.4
10461
10464.1
10174.1
10166.2
9512.96
9520.09
7691.48
8398.78
7719.14
8265.58
7570.96
8246.85
7724.29
7554.4
8252.08
8413
7731.04
8274.46
7403.18
7742.52
7611.2
8065.66
7596.15
7393.7
8070.51
7745.37
-9.43997
-8.70116
-8.15115
-5.35213
-5.35202
-5.64841
-5.64599
-3.5353
-3.64557
-4.12783
-3.6506
-3.75361
-3.8212
-3.56995
-3.65899
-4.13199
-3.66582
-3.75823
-3.82992
-4.16884
-4.58299
-4.08354
-4.28102
-4.18741
-4.58963
-4.09337
-4.28344
-3.44967
-3.60031
-3.50769
-3.62266
15889
15421.1
14886.5
10940.1
10911.8
10538.9
10538.2
9820.11
9858.79
7858.53
8543.45
8568.69
7996.9
8516.33
7914.62
7869.84
8560.97
8580.95
8010.08
8529.22
7933.12
7937.51
7702.93
8398.41
8014.76
7709.95
8022.91
7931.01
8413.25
-9.45752
-8.82609
-6.11119
-5.75137
-5.7277
-6.09515
-6.40598
-6.4056
-5.46125
-4.26328
-4.62613
-5.4409
-4.2619
-4.62653
-3.49682
-3.57661
-3.9928
-3.70236
-3.789
-3.88525
-3.52904
-3.58589
-3.99449
-3.7116
-3.79181
-3.88981
-4.11136
-4.28062
-4.1161
-4.28048
16143.4
15685.6
15166.6
11027.7
11013
10337.7
10391.3
8173.32
8877.94
8271.39
8831.05
8114.7
8729.24
8240.19
8142.04
8760.75
8909.19
8293.22
8853.38
8009.78
8274.5
8245.49
8731.01
8023.95
8287.3
8246.94
8750.17
7943.04
8249.32
7943.7
8256.42
-9.49442
-8.95159
-5.85845
-6.19244
-5.83011
-6.17973
-6.48635
-6.49391
-4.65903
-4.38616
-4.68609
-4.31236
-4.63381
-4.89712
-4.71414
-5.11113
-4.35611
-4.64212
-4.67886
-4.29641
-4.62795
-4.88825
-4.69442
-5.10465
-4.06851
-3.98116
-4.07164
-3.98832
-4.18763
-4.38498
-4.18022
-4.374
16399.9
15914.6
11825.4
10968.1
10962.3
11810.4
11327.1
11345.8
10154.9
8356.68
9051.8
10215.4
8415.12
9088.69
8310.63
8573.36
8553.14
9106.11
8358.97
8584.27
8574.1
9124.77
8119.03
8420.31
8211.91
8478.08
8148.84
8432.14
8257.79
8493.44
-9.57092
-9.06172
-6.04133
-5.14493
-4.81734
-6.30247
-6.01005
-5.14001
-4.81056
-6.28394
-6.51654
-6.51818
-4.54258
-4.6767
-4.2388
-4.49164
-4.74237
-4.93495
-4.54318
-4.23338
-4.66206
-4.47976
-4.74047
-4.92667
-4.19966
-4.07528
-4.19616
-4.07609
16628.9
16078.6
11842.3
10710.2
10744.7
11820.9
11391.6
11403.4
8570.44
8336.78
8820.97
8336.25
8878.44
9163.47
8463.15
9164.49
8610.82
8392.16
8848.03
8405.88
8920.49
9188.17
8534.42
9205.75
8484.77
8560.23
8703.38
8949.34
8509.1
8719.13
8575.41
8971.68
-9.58363
-6.9544
-6.54203
-6.53199
-6.94674
-6.98859
-6.99577
-5.0847
-5.19742
-4.89361
-5.19923
-4.87186
-5.48354
-5.01256
-5.26719
-6.37759
-5.13424
-5.45383
-5.09875
-5.187
-4.88165
-5.19434
-4.84755
-5.48511
-5.03473
-5.27404
-6.36556
-5.15286
-5.45866
-4.60748
-4.75919
-4.82895
-5.03856
-4.60751
-4.74818
-4.82417
-5.03518
16840.6
16242.1
11852.1
10698.2
9369.35
8697.92
10743.2
9394.79
8720.71
11826.6
11223
11260.1
8579.06
8890.58
8476.8
8834.58
8827.56
9381.53
8632.47
8867.44
8507.54
8850.5
8860.56
9393
8523.37
8759.34
8545.16
8776.69
-9.70929
-6.63104
-6.86966
-6.60934
-6.86515
-7.04308
-7.05375
-4.81646
-4.97044
-5.17488
-5.09756
-4.98001
-5.21947
-5.32202
-5.13811
-5.42125
-5.11875
-5.44119
-5.56574
-5.42139
-5.80823
-4.81238
-4.97093
-5.09678
-5.17513
-5.00894
-5.22931
-5.1631
-5.33895
-5.43148
-5.15033
-5.45091
-5.57072
-5.42341
-5.80704
17065.9
12351.2
11779.3
11766.9
12388.5
12022.9
12022.2
8839.35
9198.96
8745.05
9246.67
8693.45
9522.77
8938.52
9476.11
8899.02
9221.13
8769.6
9260.51
8722
9542.8
8964.43
9498.34
10978.9
9012.9
9626.79
11009.6
9089.12
9702.87
8761.72
8874.8
9072.36
9243.64
8791.47
8856.77
9094.09
9255.99
-9.66785
-6.72886
-5.80267
-5.55215
-6.77773
-6.70281
-5.79641
-5.54051
-6.7708
-7.05224
-7.06228
-4.95632
-5.18191
-4.95376
-5.22929
-5.22597
-5.40736
-5.00283
-5.26291
-5.36897
-5.56383
-4.96932
-5.18643
-4.98131
-5.24063
-5.25958
-5.03035
-5.41198
-5.27409
-5.38175
-5.56606
16927.8
12359.8
11680.3
11672.9
12395.5
12064.2
12048.6
8793.54
8929.74
9167.33
9201.28
9225.19
9620.6
8814.69
8947.42
9179.77
9213.95
9223.87
9643.6
9078.59
9043.77
9534.9
8964.89
9488.14
9574.95
9258.12
10017.7
9044.4
9027.61
9543.94
9024.39
9524.71
9577.93
9289.53
10034.5
-11.6323
-7.03794
-7.04532
-6.65671
-5.8577
-5.60337
-5.85026
-5.60877
-6.69685
-6.63654
-5.8503
-5.59374
-5.8454
-5.596
-6.69108
-5.10698
-5.33068
-5.43128
-5.29594
-5.43812
-5.61426
-5.14066
-5.3551
-5.43629
-5.30897
-5.44812
-5.61623
17067
12387.1
11717.7
9834.61
9247.88
11694.8
9858.1
9245.9
12420.7
12105.5
12078.6
9088.81
9353.98
9164.83
9515.53
9093.75
9363.93
9169.33
9543.49
9263.38
9340.38
9112.61
9485.33
9477.13
9803.19
9211.66
9249.95
9082.05
9480.16
9472.69
9754.19
-10.5775
-7.64319
-7.49767
-7.64591
-7.49889
-6.53348
-5.77462
-5.58879
-5.83194
-5.54301
-5.44603
-5.6442
-6.83781
-6.5177
-5.77286
-5.58586
-5.82881
-5.54442
-5.45829
-5.64832
-6.82695
-5.44041
-5.55183
-5.46224
-5.55941
17143
12374.5
12401.9
11750.6
9711.04
9258.96
9662.42
9306.72
11719.6
9723
9287.4
9676.38
9305.35
12052.6
12018.9
9412.3
9159.36
9422.83
9708.37
9423.85
9800.27
9343.41
9119.6
9361.74
9411.16
9636.62
9756.98
-10.26
-7.06631
-7.15211
-7.07477
-7.16345
-6.34732
-6.33842
-6.51576
-5.63285
-5.23432
-5.47728
-5.41783
-5.59964
-5.42534
-5.63947
-5.41574
-5.55117
-5.66927
-6.49839
-5.63128
-5.24114
-5.4769
-5.41861
-5.60365
-5.45288
-5.64732
-5.4285
-5.56822
-5.67506
17160.9
12386.4
12431.5
12401.2
12437.9
11661.1
9597.9
9261.03
9653.03
9241.97
9455.34
9881.8
11616.1
9596.43
9272.13
9658.75
9243.31
9424.43
9846.18
12087.3
12058.8
9438.35
9835.14
9432.71
9767.26
-9.80394
-6.97581
-7.05849
-6.98911
-7.0711
-6.56191
-6.64366
-6.55896
-6.64059
-6.0698
-6.05548
-5.34769
-5.05799
-5.41837
-4.93055
-5.51196
-5.25497
-5.42631
-5.34566
-5.84242
-5.66082
-5.80811
-5.64778
-5.34898
-5.07126
-5.4203
-4.937
-5.51319
-5.26287
-5.42847
-5.35068
-5.85009
-5.67786
-5.81425
-5.67018
17058.3
12432.3
12416.7
12439
12421.1
12149.1
12113.9
11507.2
9564.07
9118.72
9603.89
9207.2
9753.34
9421.84
9835.24
9384.08
9454.94
9889.35
11460.1
9555.58
9110.05
9580
9201.62
9725.65
9405.18
9805.71
9368.56
9460.58
9854.98
-9.63399
-7.03174
-6.99054
-7.04216
-7.00006
-6.66161
-6.64281
-6.66185
-6.64056
-6.33488
-6.48888
-6.32124
-6.47538
-5.18464
-4.79529
-5.12513
-4.83612
-5.18628
-4.78955
-5.1193
-4.84124
-5.19534
-5.09662
-5.29989
-4.8892
-5.19651
-5.0966
-5.29977
-4.89535
16915.7
12370.2
12378.6
12389.5
12408.1
12168.9
12133.2
12135.8
12101.4
11506.2
11445.7
9988.17
9142.35
9782.26
9334.66
9669.54
9263.9
9817.17
9314.06
9874.38
9453.97
9906.92
9426.82
9964.68
9130.53
9753.3
9275.43
9648.04
9181.55
9641.14
9269
9839.59
9461.66
9877.04
9418.18
-9.02225
-9.56957
-6.64448
-6.70239
-6.64376
-6.69348
-6.56
-6.56419
-6.54015
-6.53427
-5.38799
-4.86343
-5.27313
-5.04318
-5.45248
-5.34101
-5.53284
-5.23398
-5.38568
-4.86014
-5.26878
-5.04105
-5.45173
-5.35313
-5.53461
-5.23685
-4.96918
-4.63106
-4.85712
-4.70927
-4.97074
-4.627
-4.84854
-4.71892
17074.4
12350.2
12338.8
12387.3
12377.5
12052.4
12084.2
12015.7
12070.6
11500.2
11449.7
11444.5
11420.1
10108.3
9455.56
10158.7
9425.16
10082.4
9417.87
10139.9
9371.96
10043
9235.2
9806.58
9448.13
9955.09
9091.12
9597.26
9327.77
-8.91351
-6.48326
-6.47042
-6.46676
-6.45978
-9.48697
-6.60295
-6.56593
-6.56911
-6.53928
-5.61218
-5.36327
-5.57344
-5.37437
-5.65448
-5.4078
-5.67182
-5.40571
-5.60896
-5.37007
-5.57383
-5.36988
-5.64932
-5.40507
-5.6663
-5.3965
-5.36299
-4.79784
-5.09415
-5.14262
-5.46079
-5.32401
-5.50143
-5.27678
-5.36228
-4.79247
-5.08695
-5.14671
-5.46362
-5.33842
-5.50644
-5.28605
16847
16219.4
12035.8
11982.7
12036.4
11988.9
11559.2
11717.8
11511.2
11692.4
10160.8
9483.88
10187.8
9459.32
10157.6
9343.9
10024.5
9470.54
10141.7
9445.6
10168.7
9418.92
10136.7
9311.5
10010.7
9424.06
10174.6
9529.39
10210.9
9528.82
10140.2
9493.06
10192
9458.82
-8.80613
-6.42533
-6.38542
-6.4261
-6.39279
-6.17879
-6.18988
-6.16385
-6.16602
-9.46491
-5.6985
-5.43266
-5.68606
-5.43218
-5.69079
-5.2792
-5.66387
-5.38584
-5.68665
-5.4155
-5.67715
-5.40962
-5.68295
-5.27934
-5.65856
-5.37492
-5.58858
-5.44061
-5.65309
-5.38818
-5.51479
-5.28595
-5.48435
-5.33121
-5.58953
-5.44942
-5.65521
-5.39176
-5.5166
-5.30309
-5.48864
-5.33884
16604.2
16075.5
11756.5
11819
11746.4
11801.9
11700
11631.5
11679
11628.9
9643.39
9402.8
10104.1
9124.5
9631.45
9265.84
9635.69
9227.86
9637.31
9374.15
10076.2
9123.61
9615.02
9277.9
9638.35
9209.68
10239
9550.32
10242.6
9541.44
10226.3
9472.69
10132.5
9549.53
10221.5
9525.6
10228.6
9503.02
10200
9413.51
10097.5
9505.31
-8.04911
-8.71504
-5.99012
-5.98975
-5.98315
-5.98325
-4.9878
-5.19029
-5.27569
-4.91455
-5.23478
-5.48939
-4.87801
-5.29277
-4.88478
-5.25837
-4.99681
-5.19429
-5.28113
-4.93477
-5.24425
-5.48904
-4.89154
-5.29592
-4.91708
-5.27136
-9.43768
-5.44474
-5.26717
-5.46161
-5.26052
-5.45359
-5.25981
-5.44158
-5.27867
-5.46347
-5.25575
-5.4464
-5.24491
-5.48608
-5.31682
-5.43652
-5.35393
-5.4913
-5.34181
-5.44409
-5.37386
16376.9
15888.4
11816.3
11823.5
11803.3
11808.1
10943.1
11212.6
10987.7
11260
9652.87
9285.03
9634.26
9283.24
9779.3
9277.29
10039.4
9216.53
9666.87
9295.05
9646.23
9277.12
9796.15
9299.29
10049.3
9201.61
9738.46
9407.68
10059.2
9189.02
9603.64
9254.93
9581.91
9220.03
9728.99
9385.29
10059.9
9170.53
9599.77
9253.15
9586.64
9216.57
-7.95347
-5.54132
-5.53729
-5.52886
-5.53214
-8.67833
-5.70161
-5.62967
-5.69847
-5.61585
-5.0818
-4.87193
-5.24652
-5.16626
-4.79494
-5.08394
-4.72293
-5.04388
-4.73851
-5.05694
-5.09897
-4.89769
-5.25364
-5.1766
-4.83012
-5.09769
-4.75273
-5.05456
-4.76264
-5.06822
-9.42712
-5.34467
-5.26868
-5.38535
-5.22313
-5.29412
-5.16215
-5.35176
-5.2913
-5.39245
-5.24627
-5.30241
-5.18599
16110.3
15658.7
15107
11366.1
11310.2
11376.1
11326
8958.51
8962.72
9449.4
8913.91
9444.39
9410.48
8790.06
9440.37
8966.39
9556.88
8992.31
9020.11
9487.08
8994.97
9485
9433.97
8880.37
9479.69
9051.82
9611.41
9500.52
9243.48
9546.95
9205.66
9474.9
9106.38
9498.78
9240
9551.78
9179.13
9463.06
9073.33
9696.74
9310.84
9695.85
9249.42
9688.2
9335.77
9697.32
9251.59
-7.89925
-5.53632
-5.60386
-5.53081
-5.60972
-5.15476
-5.1305
-5.14785
-5.11718
-8.64954
-4.87262
-4.52488
-4.86597
-4.57684
-4.813
-4.46117
-4.84242
-4.4568
-4.87164
-4.54242
-4.87358
-4.5756
-4.81005
-4.44484
-4.83373
-4.44865
-4.98666
-5.20929
-4.65397
-4.87268
-4.72255
-4.9514
-5.01518
-5.21939
-4.68874
-4.88774
-4.75144
-4.9627
-9.42645
15854.3
15382.7
14867.7
10961.4
10982.4
10959.6
10969.6
10728.6
10716.3
10767.6
10760.9
9042.63
9141.49
9467.08
9221.6
9175.86
9569.41
8887.76
9377.91
9156.35
9618.23
9085.86
9185.16
9243.39
9496.01
9211.16
9598.98
8919.5
9396.09
9187.67
9638.9
9546.7
9330.13
9654.56
9269.48
9376.99
9167.49
9531.12
9338.08
9655.62
9279.63
9343.12
9145.17
-7.10583
-7.85419
-5.05855
-5.1425
-5.04869
-5.14086
-3.99474
-4.18093
-4.26349
-4.04463
-4.31112
-4.4892
-3.99649
-4.38131
-3.97074
-4.32579
-4.00072
-4.20043
-4.26878
-4.03729
-4.31273
-4.49596
-3.99394
-4.38168
-3.98796
-4.33475
-8.6481
-4.63446
-4.3694
-4.72382
-4.3339
-4.52202
-4.19725
-4.63554
-4.37644
-4.7297
-4.33453
-4.52281
-4.20268
-9.42985
15649.6
15132
14643.3
10917.8
10868.2
10899.4
10849
10127
10339.6
10185.1
10388.1
9264.78
8750.32
9232.89
8756.8
9396.34
8485.9
9175.14
8774.12
9283.12
8762.14
9243.37
8780.56
9422.33
8552.07
9220.42
8794.79
9071.16
9275
8856.06
9124.49
8974.12
9296.15
9114.15
9294.54
8851.28
9123.91
8972.05
9294.51
-6.97832
-4.98286
-4.84876
-4.98676
-4.86232
-7.85226
-4.7389
-4.90713
-4.73203
-4.9035
-4.14099
-3.8102
-4.286
-4.0637
-3.76773
-3.99938
-3.7387
-3.99828
-3.6952
-3.94542
-4.15649
-3.81173
-4.29267
-4.06655
-3.77379
-4.00002
-3.77304
-4.00625
-3.7139
-3.94983
-8.66043
-4.36914
-4.15607
-4.37251
-4.17018
-9.44231
15500.1
14944.3
14410.4
13785.7
10511.9
10405.5
10500.4
10392.6
8311.71
8597.64
8793.93
8321.29
8889.41
9170.7
8164.03
8858.36
8344.44
9045.45
8621.46
8367.94
8827.33
8384.25
8936.93
9192.27
8221.82
8879.18
8386.33
9062.03
9205.72
8846.07
9140.15
8920.88
9334.55
8905.05
9215.41
8864.33
9147.45
8932.59
9364.3
8913.63
-5.95442
-7.0532
-4.59351
-4.27501
-4.59007
-4.27958
-7.87305
-4.05828
-3.62115
-3.94645
-3.68297
-4.91689