/*--------------------------------*- C++ -*----------------------------------*\
| =========                 |                                                 |
| \\      /  F ield         | OpenFOAM: The Open Source CFD Toolbox           |
|  \\    /   O peration     | Version:  5.x                                   |
|   \\  /    A nd           | Web:      www.OpenFOAM.org                      |
|    \\/     M anipulation  |                                                 |
\*---------------------------------------------------------------------------*/
FoamFile
{
    version     2.0;
    format      ascii;
    class       volScalarField;
    location    "1.2";
    object      p_rgh;
}
// * * * * * * * * * * * * * * * * * * * * * * * * * * * * * * * * * * * * * //

dimensions      [1 -1 -2 0 0 0 0];

internalField   nonuniform List<scalar> 
12160
(
5667.12
5671.03
5667.08
5674.3
5671.08
5667.32
5676.92
5674.28
5671.76
5667.13
5680.5
5676.67
5674.6
5672.01
5667.65
5686.74
5679.95
5676.38
5674.61
5673.75
5666.75
5695.99
5686.03
5679.07
5675.64
5675.41
5674.3
5667.27
5706.13
5695.66
5685.36
5677.37
5674.97
5675.94
5678.08
5665.12
5714.59
5706.33
5695.31
5683.02
5675.32
5673.87
5677.29
5678.75
3792.09
5718.79
5715.28
5707.04
5694.04
5681.19
5672.25
5672.81
5670.4
3975.5
188.291
5715.73
5718.69
5717.39
5707.56
5692.91
5676.62
5668.25
5651.25
3917.06
196.411
5.12543
5705.48
5716.92
5723.44
5719.78
5708.76
5689.99
5672.22
5622.56
3798.16
255.99
0.140494
0.0721527
5688.28
5706.94
5720.99
5726.62
5723.88
5709.26
5687
5610.51
3662.53
283.029
0.660973
0.0120697
-0.0333405
5665.38
5689.56
5710.46
5725.17
5733.32
5728.18
5710.54
5630.25
3634.71
294.96
1.14948
0.00108901
0.00579003
0.0215248
5638.65
5666.3
5692.44
5715.02
5733.16
5740.37
5734.76
5677.79
3741.54
334.024
2.1805
0.017683
0.0134094
0.00623219
-0.0185735
5610.04
5639.12
5668.34
5696.33
5722.31
5741.57
5751.12
5728.29
3945.76
415.587
3.55067
0.0569153
0.0167972
0.00372286
-0.00112219
5581.35
5610.04
5640.18
5671.02
5702.35
5730.94
5753.71
5761.43
4154.81
552.889
6.14371
0.0719984
0.0392439
0.00868951
0.00192664
5554.12
5580.91
5610.12
5641.43
5675.26
5709.57
5742.31
5766.57
4289.92
735.499
11.2076
0.070022
0.0433408
0.0223336
0.00214851
5529.58
5553.31
5580.1
5609.92
5643.62
5680.19
5718.81
5756.3
4322.76
891.072
20.3844
0.0450137
0.0319131
0.0241515
0.00518481
5508.62
5528.46
5551.73
5578.57
5610.1
5645.84
5686.49
5730.88
4243.08
940.07
32.4406
0.0205787
-0.00262796
0.0170446
0.00376426
5491.88
5507.27
5526.26
5549.08
5576.96
5609.68
5648.81
5694.83
4047.37
898.427
40.1801
0.0301822
-0.0565166
-0.00273771
-0.000259559
5479.71
5490.34
5504.58
5522.7
5545.96
5574.16
5609.5
5652.46
3774.19
777.808
38.871
0.0623185
-0.100762
-0.032213
-0.0077108
5472.28
5478.04
5487.29
5500.32
5518.37
5541.18
5571.32
5609.07
3456.26
627.999
29.4261
0.0625104
-0.12102
-0.0556555
-0.0164372
5469.62
5470.53
5474.73
5482.5
5495.05
5512
5536.23
5567.36
3122.15
483.229
18.4007
0.0152005
-0.117919
-0.067319
-0.0213372
5471.6
5467.82
5467.05
5469.56
5476.53
5487.45
5505.44
5529.21
2794.56
358.258
10.5189
-0.0108005
-0.0909821
-0.0678449
-0.02358
5478.01
5469.79
5464.25
5461.64
5463.11
5468.02
5479.73
5495.85
2490.2
258.864
5.69559
-0.00625545
-0.0548818
-0.0530947
-0.0216412
5488.53
5476.23
5466.19
5458.7
5454.86
5453.94
5459.48
5468.06
2220.87
184.919
3.00616
0.0134943
-0.0224661
-0.0328245
-0.0171647
5502.75
5486.81
5472.67
5460.61
5451.74
5445.27
5444.86
5446.21
1994.11
132.864
1.60437
0.0366235
0.00412016
-0.01379
-0.0108869
5520.21
5501.13
5483.38
5467.16
5453.6
5441.91
5435.83
5430.42
1814.24
97.9823
0.90065
0.0563831
0.0234731
0.00200781
-0.00478316
5540.33
5518.74
5497.92
5478.03
5460.23
5443.71
5432.27
5420.61
1683.18
75.7104
0.552607
0.069602
0.0381757
0.0136916
0.000471355
5562.51
5539.06
5515.81
5492.86
5471.34
5450.44
5433.97
5416.63
1601.13
62.3086
0.382385
0.0783726
0.0481909
0.0224487
0.00442218
5586.06
5561.48
5536.53
5511.19
5486.55
5461.83
5440.75
5418.23
1567.16
55.0915
0.300313
0.083397
0.0545596
0.0284365
0.0073541
5610.26
5585.34
5559.46
5532.48
5505.43
5477.54
5452.33
5425.23
1579.12
52.4167
0.263302
0.0862539
0.0583566
0.0323119
0.00936857
5634.36
5609.88
5583.92
5556.14
5527.48
5497.15
5468.41
5437.38
1635.57
53.486
0.249915
0.0880242
0.0606297
0.0346971
0.0106799
5657.6
5634.37
5609.17
5581.49
5552.1
5520.18
5488.64
5454.39
1734.22
58.3679
0.256908
0.0892678
0.0620706
0.0361342
0.0114963
5679.25
5658.02
5634.45
5607.78
5578.63
5546.06
5512.57
5475.91
1872.28
67.7249
0.284897
0.0901052
0.0630862
0.0370411
0.0119913
5698.64
5680.09
5658.95
5634.21
5606.31
5574.12
5539.68
5501.52
2046.26
82.8546
0.339885
0.090532
0.0636934
0.0375918
0.0123051
5715.19
5699.89
5681.9
5659.98
5634.33
5603.62
5569.3
5530.66
2251.85
105.634
0.443645
0.0905032
0.0638645
0.0379573
0.0124923
5728.46
5716.8
5702.56
5684.23
5661.82
5633.7
5600.74
5562.68
2483.96
138.31
0.634812
0.0895027
0.0636657
0.0380992
0.0126129
5737.82
5730.3
5720.27
5706.17
5687.87
5663.44
5633.15
5596.8
2736.6
183.239
0.981797
0.0865724
0.0627149
0.0379264
0.0126533
5739.87
5746.89
5734.48
5725.07
5711.62
5691.86
5665.52
5632.18
3002.9
242.535
1.59991
0.0806293
0.0604046
0.0372662
0.0125816
5744.76
5749.34
5738.97
5740.29
5732.22
5717.97
5696.78
5667.91
3275.33
317.74
2.67745
0.0715246
0.0560117
0.035769
0.012339
5751.38
5755.44
5741.59
5711.15
5748.98
5740.76
5725.8
5702.93
3545.9
409.455
4.4986
0.0581847
0.0489476
0.0330459
0.0118115
5761.42
5762.65
5747.2
5713.32
5670.48
5759.42
5751.34
5735.93
3806.21
516.971
7.46825
0.0430521
0.0387926
0.0287841
0.0108795
5773.34
5774.6
5755.3
5717.98
5671.99
5628.86
5772.51
5764.97
4046.97
637.755
12.0878
0.02898
0.0262897
0.0227756
0.00944056
5788.55
5788
5767.03
5724.94
5675.28
5628.42
5567.29
5788.83
4258.48
766.665
18.8588
0.0198054
0.0101611
0.0151204
0.00742554
5806.98
5805.59
5781.29
5734.7
5680.23
5628.85
5565.1
5524.72
4435.66
896.405
28.0768
0.0243712
-0.0104079
0.00531632
0.00481528
4579.7
5825.17
5800.2
5746.83
5686.91
5630.07
5565.17
5525.67
5454.81
1021.66
39.5792
0.0531316
-0.0346274
-0.00697491
0.0014926
1132.4
4717.98
5819.16
5762.86
5695.12
5632.45
5567.17
5523.96
5429.21
5353.13
52.3311
0.117504
-0.0634346
-0.0215945
-0.00266372
62.3618
1219.66
4723.8
5761.54
5705.85
5636.22
5570.62
5521.73
5425.77
5325.23
5281.96
0.210728
-0.0957432
-0.0384057
-0.00762113
0.280401
67.0885
1187.41
4538.55
5666.01
5640.62
5573.74
5521.44
5439.78
5350.02
5208.73
5322.23
-0.128046
-0.0564753
-0.0131015
-0.156221
0.294758
57.5913
919.921
4169.19
5541.81
5574.4
5522.9
5461.43
5382.22
5200.11
5220.44
5156.27
5242.5
-0.0735986
-0.0186797
-0.0870226
-0.151545
0.176412
32.6933
592.779
3682.29
5398.79
5520.19
5475.86
5423.97
5274.58
5250.34
5207.1
5056.78
5100.92
5150.09
-0.0238019
-0.0279447
-0.088683
-0.155144
0.034026
15.0114
357.322
3184.02
5263.79
5478.24
5454.72
5386.78
5366.73
5284.88
5151.91
4868.83
4962.55
5051.94
5113.42
-0.0297554
-0.0904748
-0.123032
-0.00605111
7.05922
220.772
2768.62
5173.62
5469.22
5461.68
5453.07
5375
5249.48
5007.74
4597.27
4743.97
4908.03
5040.33
5127.18
-0.0329429
-0.0745166
-0.0660361
0.01755
3.72234
146.998
2487.88
5188.76
5485.45
5492.35
5442.26
5345.5
5140.31
4802.25
4159.82
4380.26
4673.05
4898.81
5065.34
5185.95
-0.0346892
-0.0455922
-0.0159749
0.0459984
2.20216
101.903
2420.13
5259.2
5509.6
5470.57
5407.76
5246.68
4971.84
4502.99
3604.06
3820.14
4273.37
4670.89
4940.22
5132.24
5280.38
-0.0305324
-0.017419
0.0171191
0.066269
1.29438
77.4409
2405.65
5399.54
5473.94
5430.79
5317.21
5103.3
4750.74
4083.85
2292.98
3109.67
2298.68
2633.96
2637.65
3674.55
4296.88
4735.74
5023.72
5234.68
5408.41
-0.0221424
0.00187448
0.0369786
0.0782533
0.737624
57.2818
2531.96
5227.26
5437.93
5352.06
5193.23
4921.48
4474.22
3618.92
1983.58
2006.11
2928.58
1990.42
1756.06
1757.58
2008.44
2364.25
2364.79
3763.74
4427.96
4851.21
5138.48
5365.42
5559.77
-0.0145659
0.0140884
0.0478619
0.0812621
0.423828
43.4044
2238.69
5214.92
5365.96
5243.93
5036.53
4703.01
4141.52
2559.73
2557.98
2897.05
2899.69
1651.03
1733.38
3175.4
2095.87
1657.2
1360.02
1362.63
1727.92
2151.85
2144.71
4015.76
4608.74
4989.86
5278.93
5520.06
5727.68
-0.00913475
0.020804
0.0527529
0.0849853
0.245848
34.7344
2035.98
5052.03
5263.33
5109.07
4843.91
4473.63
3196.64
3197.16
3500.55
3500.85
2363.06
2356.01
2746.16
2741.99
1301.91
1486.6
1186.91
1272.59
1397.8
3637.6
2527.23
950.648
949.56
803.816
817.95
1299.26
956.646
962.098
1484.81
1189.97
1272.48
1398.75
1727.73
1785.95
1954.43
1599.29
1723.26
1783.79
1950.69
1594.91
4332.26
4797.36
5146.84
5439.1
5689.07
5910.71
-0.00604414
0.0243715
0.0570221
0.0890113
0.19857
25.0646
1610.39
4678.92
5152.41
4946.78
4632.93
3707.16
3706.71
3891.01
3889.59
3059.99
3051.81
3382.92
3373.67
1967.63
1789.84
1975.03
2108.15
2174.77
1800.53
1781.97
1980.36
1981.82
2108.87
2173.96
1799.84
2501.05
2572.73
2302.86
2374.77
2497.63
2571.14
2301.79
2373.62
879.87
990.856
1061.77
794.583
1356.59
1150.39
1141.24
1368.25
4104.6
3264.61
1418.49
1398.6
1147.67
1132.75
772.673
791.937
600.068
614.605
883.205
989.46
1061.61
797.817
742.995
517.677
666.959
586.62
749.669
534.891
672.659
607.183
1356.54
1154.23
1142.45
1369.34
1614.8
1586.92
1611.92
1580.75
4598.05
4979.33
5318.17
5611.17
5870.19
6100.79
-0.0046598
0.0271926
0.0635033
0.0906135
0.180943
14.1527
1060.24
4297
4987.18
4758.74
4016.9
4015.68
4171.82
4172.4
3602.94
3593.69
3788.86
3777.78
2651.38
2723.62
2766.83
2843.04
2647.66
2721.65
2767.85
2841.96
3116.31
3201.6
2924.01
2997.77
3115.83
3200.3
2924.92
2996.93
1774.03
1989.84
1969.31
1781.09
2142.42
2127.56
1775.73
1998.11
1782.53
1976.45
2144.25
2127.12
2500.68
2482.54
2313.06
2300.99
2499.88
2483.25
2313.3
2301.22
803.026
969.629
960.513
794.184
1370.45
1119.36
1153.28
1349.6
4476.16
3944.5
1888.13
1875.54
1671.24
1663.39
1305.42
1295.31
988.082
992.129
414.342
608.66
391.113
542.103
432.598
615.515
412.918
550.308
422.508
440.231
439.697
414.495
510.702
554.814
435.821
468.475
445.772
429.948
519.771
563.585
807.092
969.134
961.565
795.594
667.668
558.831
674.574
572.51
1370.53
1120.76
1152.7
1346.72
1585.47
1550.24
1586.19
1545.06
4823.58
5164.13
5496.53
5788.9
6059.82
6287.53
-0.00434848
0.0299439
0.0701003
0.105303
0.165262
7.14445
597.746
3706.97
4744.77
4292.66
4294.07
4406.89
4407.55
3935.44
3929.78
4065.48
4063.73
3202.31
3304.92
3287.5
3389.45
3199.21
3302.65
3286.69
3386.78
3506.71
3654.82
3388.22
3492.46
3505.08
3652.9
3386.52
3490.15
2662
2631.46
2770.11
2733.3
2660.3
2631.88
2768.3
2734.01
3103.12
3063.23
2937.2
2881.72
3105.98
3066.45
2937.57
2883.88
812.947
919.902
952.456
787.756
4743.52
4388.91
2263.13
2254.45
2119
2100.51
1863
1837.41
1608.21
1588.15
726.606
996.29
599.023
866.471
748.816
1001.42
622.053
876.024
447.403
685.505
517.288
775.382
466.162
694.207
540.73
785.119
451.907
603.942
407.794
558.567
470.389
614.141
427.294
569.171
452.389
417.979
482.91
537.974
397.311
518.902
470.953
439.409
491.677
545.089
414.076
528.141
816.267
921.609
953.74
785.284
674.634
580.117
679.857
586.04
5015.64
5354.33
5670.3
5973.77
6246.33
6459.91
-0.00293054
0.0333628
0.0809531
0.136952
0.161102
3.46725
279.353
2794.9
4273.94
4186.13
4186.36
4295.21
4296.29
3809.98
3806.89
3961.72
3957.39
3193.03
3171.92
3286.12
3281.39
3193.42
3173.51
3284.56
3281.52
3494.76
3531.42
3378.77
3397.18
3492.84
3531.51
3376.81
3396.62
3078
3071.89
3084.31
3074.69
4937.07
4707.49
2541.14
2548.66
2429.02
2409.16
2256.31
2233.34
2093.79
2066.53
1060.91
1590.07
1015.14
1504.27
1081.85
1595.41
1033.36
1506.3
821.184
1122.62
912.684
1282.06
835.056
1122.66
934.842
1283.26
740.512
860.963
640.613
770.146
763.314
867.965
658.706
777.815
495.594
658.145
554.462
709.302
514.556
667.546
574.76
718.538
5208.08
5526.45
5843.1
6158.31
6423.54
6591.64
-0.00179449
0.0413862
0.0942005
0.183402
0.163692
1.45725
100.294
1565.61
3869.06
3869.53
3025.67
3026.13
4091.76
4088.96
4163.23
4164.11
3649.14
3547.46
3554.24
3618.82
3648.49
3546.22
3554.45
3616.2
3755.14
3787.75
3854.14
3705.55
3754.06
3786.52
3853.5
3702.47
3162.44
3163.04
3251.9
3262.83
3166.14
3165.16
3251.93
3264.42
3471.63
3465.22
3340.9
3370.14
3473.32
3465.59
3341.12
3370.49
5125.5
4950.26
4762.23
2556.06
2530.04
2394.63
2360.77
2218.76
2191.43
2071.04
2059.94
1073.36
1452.22
1053.96
1314.86
1083.8
1452.35
1065.47
1320.71
839.217
975.359
955.198
1129.01
848.802
978.868
967.633
1134.24
781.451
798.733
797.508
805.728
5389.82
5680.11
6014.44
6339.82
6566.44
6662.37
0.00132713
0.0534579
0.110144
0.244273
0.186176
0.622875
27.123
547.928
3569.21
3571.14
2215.8
2217.39
3857.03
3934.11
4030
3933.03
3856.39
3932.8
4027.63
3931.58
4119.48
4117.94
3573.75
3518.82
3496.35
3600.49
3573.93
3519.15
3496.22
3597.77
3669.29
3759.04
3766.87
3687.75
3668.94
3756.77
3767.24
3683.61
3469.53
3461.84
3473.25
3462.4
5321.89
5169.47
5036.75
2804.49
2799.93
2631.14
2623.88
2492.9
2466.16
2294.06
2255
1686.66
1283.27
1757.36
1246.9
1683.14
1293.61
1750.37
1254.37
1595.72
1105.27
1502.31
1166.67
1595.82
1108
1502.37
1171.35
1094.72
1319.26
1064.54
1206.25
1104.51
1322.97
1074.12
1212.16
838.136
893.52
953.461
1053.56
847.331
898.144
961.073
1059.99
5524.96
5824.36
6184.89
6506.55
6640.67
0.00567013
0.0730383
0.117208
0.303254
0.251738
0.614608
2.65956
245.176
245.202
13.5755
13.5549
2990.06
3685.25
2500.04
3193.19
2988.87
3694.7
2497.9
3196.25
1272
1273.7
3818.57
3842.08
3927.7
3887.44
3817.77
3841.99
3927.29
3886.9
3416.25
3970.35
3692.07
3952.45
3413.77
3973.11
3690.99
3952.29
3683.84
3715.46
3739.4
3671.67
3684.11
3715.47
3739.75
3669.53
5463.37
5362.83
5277.21
5223.22
2720.17
2702.29
2453.94
2438.65
2482.7
2461.28
1378.16
1955.93
1870.91
1302.31
1373.77
1944.67
1861.37
1289.75
1470.07
1296.15
1558.63
1228.92
1474.52
1304.86
1557.12
1238.61
1396.72
1124.2
1340.42
1175.09
1403.01
1135.97
1342.66
1180.48
1101.16
1268.42
1116.26
1272.49
5636.8
5955.92
6389.86
6589.37
0.0104908
0.105118
0.129322
0.317366
0.441737
0.712783
3.94432
3.93912
2.48938
2.47721
90.3123
90.2521
3.94152
3.9451
2669.59
3537.89
1988.35
2591.55
2668.3
3548.4
1987.61
2597.85
816.257
296.116
394.639
669.386
816.993
295.287
395.777
669.866
3767.28
3794.16
3862.94
3847.49
3767.4
3793.9
3862.54
3847.11
3346.48
3928.24
3545.57
3898.84
3345.83
3931.99
3544.82
3899.2
5564.88
5511.22
5468.43
5426.65
2831.7
2813.79
2702.33
2685.13
2430.92
2424.58
1450.02
2087.17
1253.14
1919.37
1454.53
2088.22
1278.57
1921.22
1397.5
1936.98
1375.35
1856
1323.95
1796.74
1424.13
1941.02
1396.48
1865.29
1323.03
1788.35
1377.39
1724.42
1380.56
1722.39
1356.64
1310.69
1360.38
1268.5
1362.76
1317.84
1364.29
1275.97
5729.97
6166.23
6485
0.0094755
0.143103
0.159343
0.292912
0.739276
2.31031
2.97187
2.96555
2.98951
2.96507
25.6968
168.045
43.789
7.37383
13.8827
131.779
167.767
25.6761
132.166
43.7544
7.37382
13.8857
4.67935
4.56757
5.89445
5.77361
4.69052
4.57422
5.92228
5.78455
2331.02
3304.49
1745.64
2671.01
2331.47
3316.95
1747.52
2679.94
334.249
312.344
334.912
312.215
3850.33
3736.5
3849.95
3736.08
2931.79
3697.31
2931.93
3705.94
5639.04
5616.86
5612.01
5606.94
2955.35
2933.43
2894.32
2871.9
2680.55
2682.2
2533.97
2528.32
2103.88
1242.49
2003.39
1427.47
1961.68
1367.81
2129.51
1328.04
2011.71
1447.67
1958.69
1371.81
1486.31
1947.77
1474.28
1947.93
1474.58
1806.6
1467.39
1344.54
1722.8
1611.32
1452.51
1802.85
1447.44
1368.74
1724.69
1620.19
1334.74
1451.19
1345.69
1456.76
5876.31
6270.96
0.0055532
0.165865
0.209753
0.301548
1.34071
4.58729
3.5333
4.23345
4.25352
3.39022
3.38389
3.92757
3.52119
58.2911
9.78482
19.014
44.6181
7.59152
9.32075
58.2248
9.77095
44.5856
19.014
7.64422
9.36825
5.52312
5.45027
6.72345
6.78508
5.59245
5.50026
6.79893
6.86168
917.241
1429.14
918.518
1432.7
5729.49
5673.35
5721.71
5746.5
5773.29
2913.48
2894.53
2888.39
2866.53
1239.77
1948.45
1422.29
2108.15
1282.07
1959.98
1441.27
2119.29
1263.64
1264.81
1836.69
1317.57
1913.22
1932.9
1326.25
1346.36
1871.85
1365.71
1931.01
1969.07
1887.15
1754.96
1445.32
1450.18
1903.29
1761.09
1450.32
1432.31
1429.23
1667.87
1426.28
1669.45
1439.02
1626.54
1404.92
1588
1431.09
1625.43
1419.9
1597.01
6002.26
0.0129669
0.154915
0.27603
0.380072
1.18345
5.72655
4.75712
4.94788
4.97193
3.85142
4.63276
4.51841
4.03191
3.82992
4.7869
4.61075
4.05129
4.65285
3.91834
5.88528
5.91611
6.83198
7.19613
6.0316
6.11974
6.98348
7.7259
5855.92
5736.1
5788.09
5854.91
5911.41
3074.34
3079.72
2965.89
2962.72
2892.88
2919.07
2644.53
2657.02
1397.37
1993.58
1650.96
2126.6
1424.85
2014.35
1649.74
2143.06
1360.84
1410.29
1730.51
1783.63
1535.49
1946.17
1418.35
1415.02
1803.47
1762.91
1525.83
1962.03
1727.09
1481.58
1733.72
1449.7
0.0349931
0.167483
0.301837
0.462643
3.79442
3.92129
2.35851
2.39641
3.00069
2.47212
4.58994
4.14976
4.91544
5.75373
7.91422
4.65885
5.39913
6.77189
8.78556
5.60976
3.57294
3.27614
7.43367
6.52144
3.93052
3.07349
10.5984
6.61455
6.19188
9.69745
6.71313
11.2882
5837.25
5850.66
5910.34
6025.47
6046.22
2885.63
2954.66
2988.91
2970.4
2704.51
2705.02
2018.46
1536.24
2200.16
1306.86
2017.08
1542.78
2221.76
1306.46
1558.32
1831.33
1634.91
1860.81
1563.05
1849.76
1631.89
1870.59
0.0490878
0.16878
0.284949
0.418782
4.05729
3.55069
2.82422
2.59941
4.59979
3.2621
2.22333
2.30866
1.62443
2.56064
6.37801
3.39963
2.02001
2.69488
1.72249
2.29364
3.8274
3.06354
17.9004
14.8959
30.0382
16.2007
17.62
17.8123
31.7953
21.2293
16.0621
9.68703
21.5307
10.2043
5909.18
5990.31
6065.39
6193.75
3113.48
3100.35
2982.3
2980.17
2908.26
2913.26
2913.41
2840.91
1345.7
2087.99
1600.99
2227.8
1438.3
2055.31
1407.02
2102.7
1633.71
2257.2
1435.9
2067.66
1591.42
1977.5
1565.65
1987.43
1573.68
1818.25
1571.41
1821.35
0.0520714
0.161099
0.227042
2.64944
2.2993
2.305
2.18395
3.54872
2.8828
3.12062
2.54841
6.4519
2.66611
1.87902
2.09482
1.69589
2.12447
8.63921
3.07187
1.83185
2.41823
1.71712
2.02107
4.17295
4.08245
3.18894
2.96672
3.28923
3.62983
2.74211
2.7943
6037.73
6140.07
6273.43
6348.78
3105.45
3075.12
3064.59
3052.08
2853.57
2821.02
1510.33
2171.58
2018.96
1559.66
2174.42
1337.75
2028.4
1534.03
2171.37
1330.23
1508.77
2187.36
1667.04
1629.82
2089.45
1925.84
1645.03
1646.15
2093.54
1934.69
1620.64
1874.61
1625.42
1874.21
0.0506328
0.133997
0.285471
2.42689
2.17889
2.46631
2.29228
3.61394
3.16113
3.11534
3.32247
3.07561
3.4075
2.90607
3.21321
2.92747
2.99716
3.00391
3.08124
2.13397
2.0144
2.07657
2.20028
2.06019
2.12721
3.01
2.76064
2.76247
2.7207
6194.54
6340.26
6504.53
3215.75
3210.59
3120.94
3124.04
3171.35
3163.58
2852.17
2859.37
1294.74
2001.94
1499.6
2046.01
1521.58
2197.48
1327.53
1504.99
2202.7
2016.2
1511.47
2054.88
1648.79
1988.1
1696.04
2150.5
1680.98
1639.28
2155.33
1990.95
0.0425181
0.124826
0.0220663
2.40939
2.10125
2.23708
2.16412
3.06651
2.85005
2.61715
2.97275
2.88955
2.92456
2.86795
2.85045
2.61486
2.91701
2.84914
2.91243
2.92139
2.53781
2.83366
2.63708
2.89087
2.50637
2.81221
2.62325
2.92758
2.7791
2.80489
2.69371
6406.23
6593.98
6719.47
3271.25
3242.92
3205.02
3204.36
2825.7
2864.4
1453.63
2138.52
1824.95
1418.74
1938.12
1170.77
1464.89
2156.03
1837.24
1431.88
1951
1189.34
1685.89
1624.11
2146.78
1935.92
1631.11
1944.06
1679.35
2161.61
0.0244319
-0.00368605
1.87094
1.91482
1.99755
1.88714
1.91361
1.91397
2.00506
2.82165
3.24195
2.02203
2.81074
2.50731
3.10877
3.11884
2.7694
3.20401
3.04602
2.89225
2.93109
2.93547
2.76709
3.04861
2.9806
2.87452
2.89334
3.33903
2.79854
2.67931
6660.95
6860.35
7008.61
3367.19
3352.52
3014.64
3068.3
1102.09
1806.59
1372.72
1932.33
1379.27
1993.76
1168.97
1406.57
2025.26
1837.9
1394.55
1954.66
1587.12
1851.81
1669.52
2155
1601.27
1864.6
1670.94
2174.15
1637.39
1943.67
1638.05
1950.76
-0.0133121
-0.134015
1.78131
1.77974
1.82474
1.79228
1.82724
1.81967
2.56765
2.74254
2.89242
2.77914
3.14568
2.36931
2.66983
2.27718
2.71818
2.7011
2.70311
2.7681
2.53999
2.69896
2.78519
2.42014
3.5087
3.11523
2.80695
2.91361
2.96869
3.82719
2.76422
2.69234
6917.95
7092.25
3505.86
3318.34
3312.53
3490.87
3345.95
3364.72
2848.52
1291.11
1986.17
2909
1349.53
2023.08
1583.62
1675.88
1826.1
2208.59
1631.95
1857.22
1676.55
2227.22
1665.83
1967.08
1616.65
1882.79
1695.62
1978.91
1662.5
1898.15
-0.0910147
-0.235731
1.60881
2.24297
2.56187
1.65694
1.66443
2.39702
2.61704
1.67544
1.78981
1.78798
2.69397
2.64564
3.36787
4.31172
2.66506
2.41761
2.7719
2.88606
2.96138
3.10544
3.091
3.02983
4.15669
3.39891
2.91734
2.95986
7147.82
7261.1
3528.81
3071.33
3105.83
3507.33
3420.27
3432.13
1360.47
1292.23
1776.39
1278.85
1820.99
1953.46
1080.29
1781.53
1400.87
1347.6
1803.43
1348.42
1863.03
1978.16
1151.59
1822.85
1736.8
1657.72
1955.39
2046.81
1761.07
1971.12
1672.82
2069.11
-0.104198
1.81862
1.80112
1.80603
1.8247
2.11582
2.1038
2.62853
2.20304
2.54472
2.41839
2.50826
2.2489
2.55484
2.44993
1.5817
2.56083
2.2696
2.61958
2.44978
2.88759
2.77813
2.62296
2.24927
2.62844
2.48521
1.59456
2.554
2.26953
3.14422
2.62911
2.80166
2.38505
3.43346
3.19592
3.48527
3.06728
7360.79
7429.84
3545.96
3072.54
1991.42
1319.9
3117.64
2016.87
1342.72
3520.5
3265.19
3302.34
1519.58
1680.57
1555.69
1775.07
1906.43
2171.5
1573
1657.43
1586.35
1929.32
1801.07
2182.96
1732.23
1968.19
1753.97
1985.51
-0.225446
1.79051
2.04293
1.79754
2.04599
2.23016
2.21867
2.7515
2.50638
2.72368
2.74675
2.56683
2.56322
2.5391
2.54502
2.27364
2.56586
2.26339
2.30153
2.62646
2.24886
3.57071
2.872
3.28544
2.97525
2.69694
2.67889
2.53681
2.53327
2.30077
2.54792
2.26654
2.33779
2.6233
2.25058
7586.51
3370.16
3477.84
3465.47
3407.49
3379.25
3378.64
1141.18
1825.35
1376.77
1878.36
1319.72
1824.44
1412.52
1950.08
1200.92
1847.52
1401.29
1892.2
1348.31
1844.58
1438.4
1972.3
3030.17
1325.16
1938.91
3060.95
1401.33
2015.03
1667.06
1646.11
1977.67
2014.92
1696.81
1628.07
1999.44
2027.29
-0.183261
1.64786
2.24899
2.50054
1.99928
1.66693
2.2581
2.50804
2.00708
2.0621
2.04983
2.48685
2.89061
2.58175
2.4409
2.45255
2.44641
2.54948
2.3445
2.32147
2.29738
2.76178
3.27774
2.67967
2.52361
2.4758
2.61665
2.46949
2.44002
2.39019
2.33261
7449.11
3380.5
3381.37
3374.07
3416.31
3423.12
3407.62
1535.69
1548.5
1909.47
1820.01
1710.01
2105.36
1556.85
1566.12
1921.93
1832.66
1708.66
2128.34
1225.06
1361.23
1852.28
1282.94
1806.06
1721.37
1223.03
1982.46
1190.92
1345.05
1861.32
1342.4
1842.63
1724.38
1254.51
1999.35
4.88975
2.11432
2.10341
1.65686
2.19
2.44979
2.19497
2.44363
2.21591
1.67681
2.19829
2.4606
2.20149
2.4545
2.22232
2.4661
2.35351
2.4258
2.29081
2.26522
2.25058
2.52153
2.42537
2.45936
2.32287
2.35112
2.27467
7590.65
3411.45
3420.07
1801.88
1215.12
3397.25
1825.43
1213.26
3445.06
3470.48
3443.71
1685.42
1950.53
1640.51
1991.16
1690.32
1960.48
1644.95
2019.09
1585.14
1491.56
1561.53
1807.08
1926.05
1954.29
1533.42
1401.08
1530.97
1929.06
1794.45
1905.29
1.11657
5.14604
33.9366
4.99652
33.6436
1.97661
2.25213
2.45645
2.2087
2.48443
2.42315
2.23432
16.2041
1.99413
2.25389
2.46275
2.21349
2.48417
2.44484
2.24789
15.9008
2.26782
2.19362
2.33728
2.26039
7668.25
3402.81
3430.23
3461.03
1676.26
1219.77
1623.09
1271.93
3430.13
1688.25
1248.16
1637.07
1270.62
3425.13
3391.51
1728.37
1586.54
1568.25
2024.43
1851.05
1945.58
1659.46
1546.83
1507.03
1838.36
1952.67
1902.26
-0.783533
13.1268
1.8492
13.0298
1.83712
65.8416
65.6645
18.5854
2.37756
2.86407
4.38415
2.59276
2.26626
2.4511
2.24566
2.44701
2.1876
2.12287
18.3465
2.37908
2.85863
4.49094
2.59188
2.2657
2.44239
2.2494
2.43679
2.23538
2.16575
7686.09
3416.86
3462.31
3431.7
3468.69
3387.7
1572.32
1222.73
1614.61
1216.33
1587.4
2013.78
3342.68
1570.76
1233.69
1620.25
1217.55
1556.42
1978.13
3462.76
3434.33
1730.42
2127.18
1724.72
2059.28
-0.325173
2.02844
1.94445
2.01295
1.93342
19.5297
3.00144
19.447
2.92661
55.7157
55.5124
30.5095
15.1156
28.0759
26.9972
2.34163
2.60399
3.38976
2.50794
1.9424
2.10143
1.99479
2.12229
29.9177
14.6696
27.5091
26.573
2.34041
2.59607
3.44363
2.50293
1.93654
2.11617
2.01756
2.1054
7581.94
3463.02
3447.11
3469.77
3451.55
3523.75
3488.66
3235.22
1554.72
1116.93
1602.04
1197.7
1891.66
1546.52
1959.85
1522.43
1718.33
2152.71
3188.1
1546.25
1108.23
1578.17
1192.15
1863.9
1529.75
1930.27
1506.82
1723.94
2118.34
-0.154602
1.94761
1.99056
1.93717
1.98101
2.22114
2.31261
2.1905
2.26752
18.7891
3.28899
18.7294
3.23793
48.2191
54.0538
49.9653
55.0283
48.4749
53.6337
50.4311
54.7469
33.4026
15.8346
17.3624
34.353
32.633
15.3345
16.9898
33.6321
7437
3398.4
3402.83
3417.8
3432.44
3543.49
3508.57
3510.46
3476.86
3228.78
3168.36
1977.03
1138.07
1777.91
1323.38
1816.98
1406
1959.25
1461.55
2105.5
1694.07
2147.01
1657.94
1953.54
1126.21
1748.96
1264.2
1795.46
1323.62
1783.21
1416.4
2070.68
1701.73
2117.12
1649.26
-0.21002
-0.0896735
2.37456
2.01764
2.30105
2.01632
2.18604
2.74839
2.1831
2.72517
23.2752
25.337
28.8709
18.2178
5.43318
3.02978
2.62671
3.79812
23.6245
25.3067
29.335
18.1964
5.40416
3.00213
2.6251
3.76315
55.521
54.3758
58.4012
54.5947
55.4876
53.9064
59.2603
54.1062
7594.99
3370.83
3357.67
3407.97
3396.5
3424.86
3449.04
3388.18
3435.57
3222.71
3177.6
3167.02
3148.11
2091.06
1434.91
2137.91
1407.91
2065.23
1397.23
2119.17
1354.76
2163.78
1366.95
1938.32
1568.93
2075.87
1222.84
1728.99
1448.55
-0.09604
1.87935
1.83797
1.93464
1.85509
-0.00586868
3.13171
3.20606
3.08974
3.1897
2.55217
2.85449
2.58312
2.82086
2.52544
2.89135
2.60238
2.87434
2.5555
2.84165
2.58284
2.81874
2.53662
2.83227
2.62638
2.85028
22.3067
31.5774
33.9564
20.6841
6.63084
2.69817
2.51973
3.7535
22.1583
31.3156
34.4716
20.7234
6.6634
2.6858
2.51494
3.73578
7367.12
7407.17
3394.56
3339.03
3395.34
3345.33
3285.71
3428.01
3237.78
3402.69
2143.4
1463.27
2167.17
1441.83
2146.57
1339.44
2020
1459.49
2124.35
1424.98
2148.06
1401.45
2125.75
1307.02
2006.15
1413.03
2287.95
1638.59
2320.01
1642.25
2253.54
1602.27
2301.16
1572.25
0.0162412
1.88868
1.93552
1.88809
1.92754
3.65876
3.07373
3.64671
3.18836
0.0170442
3.3355
2.88894
2.72663
2.88751
4.27041
4.08051
4.63299
3.37158
3.17492
2.86078
2.74501
2.88616
3.9022
3.81376
4.63822
3.23034
2.50549
2.56936
2.35669
2.63339
2.46463
2.73177
2.50847
2.68271
2.5101
2.56075
2.35475
2.63417
2.46284
2.71182
2.50418
2.67871
7123.2
7258.03
3455.05
3512.97
3444.97
3495.85
3402.31
3332.55
3381.43
3330.03
1633.88
1401.12
2102.39
1114.83
1605.17
1227.09
1596.83
1201.46
1627.83
1372.44
2074.52
1114
1588.81
1239.23
1599.59
1183.37
2352.04
1659.71
2351.92
1654.52
2347.43
1604.14
2263.89
1670.69
2334.57
1634.98
2337.95
1616.06
2321.14
1544.98
2228.93
1626.45
0.11322
0.110267
2.29101
2.09383
2.33665
2.09883
3.28251
3.83068
3.59456
3.40448
3.8091
4.06655
3.46227
4.09998
3.26043
3.40802
3.14568
3.7405
3.31572
3.2392
3.45162
3.68959
3.4063
4.09126
3.18646
3.29643
0.04481
2.62287
2.74181
2.52361
2.80497
3.11511
3.13332
2.59877
2.72396
2.52175
2.80261
2.93777
3.13024
2.49116
2.55869
2.43901
2.58262
2.47496
2.53374
2.43145
2.59255
6895
7066.15
3502.82
3504.11
3489.94
3488.7
2994.44
3254.97
3039.03
3302.45
1617.99
1245.66
1594.79
1248.38
1746.43
1242.11
2004.06
1183.64
1632.11
1255.71
1606.81
1242.39
1763.32
1264.14
2014.07
1168.8
1885.61
1550.09
2201.64
1336.17
1740.93
1379.14
1706.05
1357.34
1876.13
1527.67
2202.25
1317.65
1737.05
1377.36
1710.81
1353.85
0.214204
2.17042
2.12547
2.17939
2.13068
0.148825
3.02998
2.52494
3.0395
2.53201
2.78997
2.79188
2.96403
2.70655
2.8406
2.88348
3.10388
3.33973
2.88793
2.77746
2.73455
2.7954
2.94697
2.72415
2.94966
2.85533
3.06849
3.30076
3.00801
2.79016
0.0556263
2.47744
2.58311
2.46646
2.59896
2.56348
2.63634
2.47035
2.56053
2.45937
2.57585
2.58179
2.61254
6627.82
6833.49
6949.05
3394.99
3329.17
3405.1
3345.1
1275.63
1109.15
1766.46
1232.15
1762.54
1556.82
1092.25
1742.42
1278.88
1869.29
1138.69
1337.15
1804.13
1313.18
1803.18
1580.32
1182.7
1781.86
1364.31
1923.85
1645.95
1375.37
1678.78
1351.21
1625.71
1257.33
1644.21
1371.83
1683.57
1324.58
1613.85
1224.14
1927.62
1550.56
1935.54
1480.31
1919.07
1575.56
1937.02
1482.47
0.271673
2.1437
2.08035
2.15519
2.07985
2.16964
2.22625
2.19428
2.26997
0.178506
3.19188
2.9764
2.95169
3.04445
2.99303
3.0306
2.65363
3.02332
3.12997
2.97505
2.93832
3.07941
2.94136
3.02759
2.64871
3.03857
2.69918
2.57716
2.859
2.98855
2.92592
3.2407
2.67067
2.60374
2.83977
2.96466
3.20638
3.24583
0.05643
6371.53
6555.56
6700.71
3311.75
3321.96
3310.04
3309.17
3103.32
3077.66
3142.3
3122.38
1364.39
1589.81
1915.37
1543.31
1652.02
2045.56
1362.33
1852.44
1641.48
2103.34
1407.55
1633.43
1565.09
1944.29
1687.28
2075.12
1394.1
1870.63
1672.84
2124.01
1839.03
1593.37
1917.73
1561.86
1692.55
1483.11
1823.44
1601.26
1918.74
1571.95
1658.66
1460.68
0.42838
0.318291
2.51997
2.43909
2.58737
2.49087
3.08181
3.04359
2.95767
3.02335
2.94689
2.79089
3.14597
3.40515
3.10551
3.1161
3.1238
3.03527
3.21174
3.06202
3.32664
2.78147
3.18598
3.58963
3.11663
3.34422
0.180584
2.97615
3.08843
2.963
2.96731
2.87366
3.02759
2.98812
3.17273
3.21269
3.00608
2.90078
3.04224
0.0530978
6166.72
6304.07
6472.5
3248.95
3194.43
3230.59
3175.27
2820.85
3016.55
2878.98
3065.19
1891.73
1382.41
1864.97
1383.62
2018.82
1103.47
1792.61
1396.49
1910.09
1394.26
1875.44
1407.43
2044.82
1169.68
1837.94
1417.21
1497.76
1701.59
1475.65
1744.06
1571.35
1893.37
1540.71
1721.11
1470.89
1743.49
1569.32
1891.74
0.540022
2.57472
2.39042
2.60505
2.3796
0.323201
2.7921
2.7813
2.84324
2.83999
2.94053
3.39501
2.86874
3.76633
3.36647
4.24247
3.34464
4.2372
3.28332
4.18898
2.9825
3.46907
2.89414
4.50901
3.44489
5.10769
3.34368
4.21572
3.28874
4.44918
0.168412
2.85588
2.97154
2.91315
3.03041
0.0406723
6017.13
6115.8
6238.09
6276.11
3178.01
3065.36
3166.53
3052.5
1267.56
1388.26
1749.76
1264.2
1832.29
1961.28
1092.69
1786.9
1278.86
1979.82
1412.19
1323.82
1783.16
1327.15
1879.82
1982.85
1150.51
1807.79
1320.76
1996.43
1977.81
1588.85
1882.92
1692.98
2124.85
1695.37
1987.49
1607.12
1890.22
1704.65
2154.6
1703.98
1.08478
0.481018
3.06414
3.13204
3.08602
3.15379
0.303271
3.301
3.27862
3.05394
3.37181
3.07392
3.39656
3.25113
3.04011
3.35544
3.16051
3.91587
5.88628
3.31132
3.66483
3.35995
4.42681
3.59567
5.88886
3.27861
3.45957
3.32777
4.38974
0.15491
0.00472276
5892.03
5972.05
6036.85
6162.65
3086.72
3088.49
3049.52
3051.36
2810.72
3131.65
2830.09
3128.87
1479.82
1529.15
1938.99
1759.3
1627.2
2090.54
1351.52
1922.72
1618.38
2155.32
1521.81
1545.28
1782.59
1973.92
1620.74
2119.3
1398.18
1947.03
1620.22
2160.35
1939.66
1621.99
1955.79
1655.45
1.38152
3.58406
3.25652
3.73881
3.3391
0.30565
4.43971
4.33592
4.55405
4.4176
0.236271