/*--------------------------------*- C++ -*----------------------------------*\
| =========                 |                                                 |
| \\      /  F ield         | OpenFOAM: The Open Source CFD Toolbox           |
|  \\    /   O peration     | Version:  5.x                                   |
|   \\  /    A nd           | Web:      www.OpenFOAM.org                      |
|    \\/     M anipulation  |                                                 |
\*---------------------------------------------------------------------------*/
FoamFile
{
    version     2.0;
    format      ascii;
    class       surfaceScalarField;
    location    "1.2";
    object      phi;
}
// * * * * * * * * * * * * * * * * * * * * * * * * * * * * * * * * * * * * * //

dimensions      [0 3 -1 0 0 0 0];

internalField   nonuniform List<scalar> 
30582
(
0.000280699
-7.86856e-07
0.000279048
1.65017e-06
0.000280348
-1.18908e-06
0.000273259
5.7894e-06
0.000278227
3.77093e-06
0.000278921
-9.1546e-08
0.000266128
7.13084e-06
0.000272404
1.16123e-05
0.000277716
4.97617e-06
0.000276372
3.66088e-06
0.000262862
3.26582e-06
0.000265057
1.44777e-05
0.000272002
1.73263e-05
0.000273779
7.56909e-06
0.00027263
1.12918e-05
0.00026349
-6.27845e-07
0.000261514
6.80869e-06
0.000264496
2.19836e-05
0.000267591
2.35141e-05
0.000272805
7.39443e-06
0.000265235
2.64977e-05
0.000268032
-4.54201e-06
0.000262529
-1.64285e-06
0.000260802
1.05025e-05
0.000260026
2.9549e-05
0.000266486
2.98326e-05
0.000263025
9.60526e-06
0.000260645
4.65054e-05
0.000273448
-5.41572e-06
0.000267634
-9.64669e-06
0.000262096
-2.93631e-06
0.000256142
1.43863e-05
0.000258727
3.73078e-05
0.00025691
3.59474e-05
0.000262467
7.78356e-06
0.000241745
8.56551e-05
0.000277404
-3.95632e-06
0.000273709
-1.14907e-05
0.000267597
-1.51484e-05
0.000258401
-5.19503e-06
0.000254992
1.81215e-05
0.000249827
4.43901e-05
0.000256677
4.17371e-05
0.000235833
1.36959e-05
0.000163183
-0.000101336
0.000277564
-1.59272e-07
0.000278178
-8.42593e-06
0.000274643
-1.85361e-05
0.000265789
-2.25363e-05
0.000257515
-7.71832e-06
0.000246788
2.11606e-05
0.000248148
5.29188e-05
0.000237044
4.0526e-05
0.000191573
-1.46949e-05
-0.000276613
0.000174207
0.000272251
5.31227e-06
0.000278196
-1.76877e-07
0.000280022
-1.38055e-05
0.000274828
-2.75749e-05
0.000265531
-3.05516e-05
0.000251016
-1.19458e-05
0.000243076
2.62331e-05
0.000235992
5.39705e-05
0.000231439
6.60852e-07
-0.0001264
-0.000164908
-4.91336e-05
0.000223314
0.000261324
1.09273e-05
0.000273338
1.01705e-05
0.000281507
-1.66204e-06
0.000281912
-2.08896e-05
0.00027654
-3.85843e-05
0.000262148
-4.16839e-05
0.000246988
-1.58585e-05
0.00023566
2.65653e-05
0.000255093
3.03162e-05
-1.05902e-05
-0.000115149
-5.08632e-06
-0.000208956
7.00123e-05
0.000153301
0.000245437
1.58868e-05
0.000262516
2.17493e-05
0.000276195
1.54825e-05
0.000283529
-3.27941e-06
0.000285819
-3.01687e-05
0.000276921
-5.33569e-05
0.000259806
-5.45015e-05
0.000242851
-2.30491e-05
0.000270483
1.1175e-05
0.000101744
-8.20183e-05
-8.48531e-05
-3.53821e-05
5.85757e-05
-0.000197519
-1.09193e-05
0.000164221
0.000225641
1.97963e-05
0.000246502
3.19008e-05
0.000265073
3.28713e-05
0.000279566
1.94455e-05
0.000290074
-7.53407e-06
0.000289553
-4.28011e-05
0.000278299
-7.18498e-05
0.00025869
-7.03405e-05
0.000293613
-4.61787e-05
0.000193104
-8.0185e-05
-3.86822e-05
-0.000128189
4.31938e-05
-2.00002e-05
-1.41493e-05
-0.000194289
7.77061e-05
8.65146e-05
0.00020315
2.24912e-05
0.000226465
3.9833e-05
0.00024863
4.83437e-05
0.000268548
4.38898e-05
0.000285597
2.39219e-05
0.000294734
-1.27144e-05
0.000294882
-5.93845e-05
0.000281326
-9.44862e-05
0.000322653
-9.93811e-05
0.000300596
-0.000153671
3.83363e-05
-0.000157203
6.84454e-05
-0.000153441
1.61976e-05
-5.03471e-05
3.02565e-05
-0.00014684
-3.40236e-05
0.000179113
2.40369e-05
0.000203712
4.52446e-05
0.000228064
6.03995e-05
0.0002516
6.52916e-05
0.000273969
5.55186e-05
0.000292138
2.65176e-05
0.000303835
-2.16669e-05
0.000301765
-7.98232e-05
0.000354435
-0.000126267
0.000413593
-0.000212378
0.00014665
-0.000261984
9.48155e-05
-0.000183574
2.73393e-05
-0.000164582
1.29834e-05
-3.3074e-05
-1.87867e-05
0.000154475
2.46381e-05
0.000179438
4.83102e-05
0.000204771
6.85376e-05
0.000230276
8.1723e-05
0.000256089
8.31715e-05
0.000280344
6.73127e-05
0.000300561
2.97913e-05
0.000311691
-3.15931e-05
0.000380785
-0.000106174
0.000524122
-0.000236796
0.000282604
-0.000348333
0.000113574
-0.000280742
3.29212e-05
-0.000189156
1.18844e-05
-0.000163483
2.26894e-06
0.000129918
2.45566e-05
0.000154614
4.94628e-05
0.000180023
7.30584e-05
0.000206186
9.26273e-05
0.000233619
0.000104192
0.000261305
0.00010221
0.000287961
7.99128e-05
0.000310691
3.07912e-05
0.000395225
-4.60323e-05
0.000615514
-0.000197566
0.000439213
-0.000393405
0.000123646
-0.000358404
3.38577e-05
-0.000281679
1.45405e-05
-0.000191812
5.6006e-06
0.000105871
2.40474e-05
0.000129928
4.92422e-05
0.000154829
7.46564e-05
0.000180737
9.85079e-05
0.000208385
0.000117861
0.000237278
0.000128219
0.000267459
0.000122712
0.000298053
9.25506e-05
0.000396148
2.98679e-05
0.000665398
-9.59156e-05
0.000591165
-0.000349518
0.00013151
-0.000401269
2.22624e-05
-0.000346809
1.23382e-05
-0.000279476
6.42629e-06
8.25437e-05
2.33269e-05
0.000105806
4.81694e-05
0.000129892
7.41793e-05
0.000155005
0.000100388
0.000181951
0.000124942
0.000210496
0.000144644
0.000241636
0.000154043
0.000275994
0.000144771
0.000385165
0.000103534
0.000679057
1.62083e-05
0.000705148
-0.000209899
0.000142775
-0.000360783
-1.82393e-06
-0.000377183
1.80152e-06
-0.000336272
4.73797e-06
5.99797e-05
2.25639e-05
8.24501e-05
4.66827e-05
0.00010563
7.24315e-05
0.000129711
9.94737e-05
0.00015547
0.000126869
0.000182762
0.000152677
0.00021308
0.000173199
0.000247679
0.000182358
0.000364674
0.000165262
0.000671902
0.000110689
0.000754986
-3.36291e-05
0.000161104
-0.000228228
-2.99099e-05
-0.000332697
-1.44398e-05
-0.000360942
7.27269e-07
3.81058e-05
2.18739e-05
5.98941e-05
4.51199e-05
8.22303e-05
7.00823e-05
0.00010526
9.68825e-05
0.000129674
0.00012527
0.000155326
0.000154304
0.000183867
0.00018189
0.000216723
0.000204155
0.000339558
0.000207474
0.000649749
0.000187414
0.000746151
0.000119524
0.000175111
-4.76361e-05
-4.87232e-05
-0.000209415
-3.2914e-05
-0.000314223
-5.3171e-06
1.67714e-05
2.13344e-05
3.80568e-05
4.37112e-05
5.97061e-05
6.76441e-05
8.1813e-05
9.35289e-05
0.000104946
0.00012161
0.000128934
0.000151662
0.000155375
0.000182796
0.0001857
0.000212912
0.000312504
0.00023121
0.000620747
0.000236476
0.000684662
0.000248903
0.00016091
0.000133726
-5.4184e-05
-4.21753e-05
-4.50455e-05
-0.000197284
-1.22525e-05
-4.20293e-06
2.09744e-05
1.67777e-05
4.26134e-05
3.79523e-05
6.5465e-05
5.93534e-05
9.01037e-05
8.14086e-05
0.000117066
0.000103928
0.000146616
0.000128339
0.000178698
0.000155854
0.000212643
0.000284866
0.00024055
0.000587047
0.000264909
0.000594759
0.00032638
0.000133263
0.000276549
-4.44695e-05
0.000124012
-4.61253e-05
-4.10955e-05
-1.63327e-05
-2.50068e-05
2.08039e-05
-4.13299e-06
4.18851e-05
1.67893e-05
6.37764e-05
3.77466e-05
8.70718e-05
5.90029e-05
0.000112509
8.0375e-05
0.000140619
0.000103034
0.000171922
0.000127879
0.000206673
0.000257017
0.000240491
0.000546698
0.000280899
0.000492812
0.000366856
9.91147e-05
0.000360529
-2.93775e-05
0.000261457
-4.06923e-05
0.000118579
-1.79049e-05
-4.58041e-05
2.07974e-05
-2.48752e-05
4.15461e-05
-3.99076e-06
6.26651e-05
1.67829e-05
8.47401e-05
3.75533e-05
0.000108521
5.81582e-05
0.000134726
7.94564e-05
0.000164197
0.000102052
0.000197749
0.000228527
0.000235163
0.00049768
0.00028951
0.000385802
0.00038791
6.7869e-05
0.000398101
-1.45389e-05
0.00034569
-2.76939e-05
0.000248459
-1.44242e-05
-6.67175e-05
2.09133e-05
-4.56225e-05
4.15447e-05
-2.4607e-05
6.21623e-05
-3.77504e-06
8.32231e-05
1.6812e-05
0.000105481
3.70449e-05
0.000129635
5.74129e-05
0.00015677
7.83267e-05
0.000187922
0.000198334
0.000227942
0.000437519
0.000295324
0.000285724
0.000389587
4.88644e-05
0.000406914
-3.13154e-06
0.000386694
-1.44176e-05
0.000332414
-9.1933e-06
-8.7815e-05
2.10976e-05
-6.65066e-05
4.17975e-05
-4.52502e-05
6.21878e-05
-2.41766e-05
8.25639e-05
-3.4942e-06
0.000103529
1.6734e-05
0.000125792
3.66072e-05
0.00015044
5.64424e-05
0.000178654
0.000165152
0.000221105
0.000366846
0.000298614
0.000203662
0.000377386
3.92291e-05
0.000399222
4.57787e-06
0.000399205
-4.32453e-06
0.000376601
-4.19159e-06
-0.000109095
2.12804e-05
-8.7603e-05
4.2194e-05
-6.6065e-05
6.26123e-05
-4.46394e-05
8.26507e-05
-2.36538e-05
0.000102724
-3.09416e-06
0.000123357
1.6687e-05
0.000145713
3.60284e-05
0.000170854
0.00012807
0.000215735
0.000290623
0.000297327
0.00014261
0.000359666
3.20498e-05
0.000384564
8.67239e-06
0.000395127
2.15378e-06
0.000392726
-5.34092e-07
-0.000130484
2.13888e-05
-0.000108914
4.2591e-05
-8.71395e-05
6.32685e-05
-6.53312e-05
8.33042e-05
-4.39163e-05
0.000102913
-2.27901e-05
0.00012242
-2.70818e-06
0.000142753
1.66555e-05
0.000165085
8.68841e-05
0.00021204
0.000213305
0.000293053
9.76374e-05
0.000342299
2.54554e-05
0.00036626
1.05037e-05
0.000382733
5.57408e-06
0.000391707
1.66774e-06
-0.000151833
2.13488e-05
-0.000130367
4.28424e-05
-0.000108492
6.39439e-05
-8.63604e-05
8.42977e-05
-6.44781e-05
0.000103866
-4.26534e-05
0.000122776
-2.19849e-05
0.000141696
-2.09006e-06
0.000161498
4.23952e-05
0.000209574
0.000137491
0.000287854
6.42356e-05
0.000326455
1.94465e-05
0.000348308
1.02906e-05
0.000366473
6.97899e-06
0.000381327
2.73234e-06
-0.000172918
2.10856e-05
-0.000151819
4.28002e-05
-0.000130063
6.44126e-05
-0.000107761
8.53442e-05
-8.54744e-05
0.000105294
-6.2918e-05
0.000124131
-4.14742e-05
0.000142266
-2.07512e-05
0.000160357
-3.4411e-06
0.000207335
6.41051e-05
0.000282961
3.8221e-05
0.000313869
1.35048e-05
0.000332396
8.61658e-06
0.000349982
6.9077e-06
0.000366544
3.05127e-06
-0.00019345
2.05313e-05
-0.000173045
4.23124e-05
-0.00015171
6.44481e-05
-0.000129486
8.61381e-05
-0.000106963
0.000106833
-8.37558e-05
0.000126132
-6.1449e-05
0.000144106
-3.97484e-05
0.000161263
-4.84172e-05
0.000205333
-8.03846e-06
0.000279478
1.56495e-05
0.000305532
7.70094e-06
0.000319673
6.00573e-06
0.000335007
5.94276e-06
0.000350946
2.86072e-06
-0.000213091
1.96417e-05
-0.000193758
4.12436e-05
-0.000173217
6.38186e-05
-0.00015141
8.63715e-05
-0.000128918
0.000108094
-0.000105257
0.000128334
-8.21215e-05
0.000146804
-5.94051e-05
0.000163762
-9.05096e-05
0.000203355
-7.94143e-05
0.000276709
-4.53692e-06
0.000299665
2.19521e-06
0.000311039
3.04989e-06
0.000322629
4.38261e-06
0.000336568
2.35902e-06
-0.00023147
1.83788e-05
-0.000213615
3.94986e-05
-0.000194289
6.23156e-05
-0.000173318
8.57273e-05
-0.00015123
0.000108683
-0.000127425
0.000130261
-0.000103623
0.000149835
-7.99816e-05
0.000167381
-0.000128481
0.000201734
-0.000149897
0.000273838
-2.49951e-05
0.000297168
-3.48443e-06
0.000305346
1.67533e-07
0.000313922
2.37943e-06
0.000324633
1.67375e-06
-0.00024821
1.67392e-05
-0.000232233
3.69971e-05
-0.000214575
5.97847e-05
-0.000194916
8.39129e-05
-0.000173695
0.000108192
-0.000150172
0.000131431
-0.000125997
0.000152636
-0.000101645
0.000171498
-0.000162138
0.000201037
-0.000220205
0.000272042
-4.80834e-05
0.000296927
-9.12272e-06
0.000302807
-2.69913e-06
0.000308213
2.77715e-07
0.000316024
8.89624e-07
-0.000262943
1.47333e-05
-0.00024922
3.37258e-05
-0.000233673
5.60954e-05
-0.000215835
8.0704e-05
-0.000196015
0.000106233
-0.000173313
0.000131333
-0.000149192
0.000154626
-0.00012446
0.000175451
-0.000191986
0.000201346
-0.000289259
0.000270092
-7.42944e-05
0.000298253
-1.46741e-05
0.000302478
-5.43646e-06
0.000305545
-1.81186e-06
0.000310303
9.12303e-08
-0.000275366
1.24232e-05
-0.000264181
2.96949e-05
-0.000251164
5.12165e-05
-0.000235647
7.59073e-05
-0.000217809
0.000102498
-0.000196549
0.000129469
-0.000173053
0.000155194
-0.000148378
0.000178544
-0.000218899
0.000202365
-0.000355246
0.000267333
-0.000106808
0.000302605
-2.05943e-05
0.000304172
-8.2145e-06
0.000305256
-3.85623e-06
0.000307589
-7.00614e-07
-0.000285284
9.91824e-06
-0.000276757
2.49994e-05
-0.000266621
4.51526e-05
-0.000253891
6.94607e-05
-0.000238613
9.67115e-05
-0.000219482
0.000125431
-0.000197296
0.000153712
-0.000173225
0.000180041
-0.000243867
0.000203512
-0.000415444
0.000262563
-0.000148296
0.000308819
-2.66545e-05
0.000308664
-1.11801e-05
0.000307137
-5.89666e-06
0.000307296
-1.45032e-06
6.9473e-06
-0.000292232
-0.000286618
1.97789e-05
-0.000279657
3.80349e-05
-0.00027009
6.1352e-05
-0.000257919
8.87666e-05
-0.000241608
0.000118838
-0.000221505
0.00014964
-0.000198702
0.000179188
-0.000267683
0.000203857
-0.000466899
0.000254966
-0.000201123
0.00031539
-3.27715e-05
0.000314936
-1.3908e-05
0.000311392
-7.88001e-06
0.00030912
-2.19105e-06
1.39542e-05
-0.000293625
4.22968e-06
-0.000296461
-0.000289939
3.00616e-05
-0.000283802
5.17469e-05
-0.000275182
7.86153e-05
-0.000262355
0.000109514
-0.000245119
0.000142451
-0.000224422
0.000175361
-0.000290859
0.000202364
-0.000509104
0.000246062
-0.000267558
0.000321401
-3.93341e-05
0.000321953
-1.5954e-05
0.000316981
-9.53015e-06
0.000313041
-2.95676e-06
2.14137e-05
-0.000297399
9.16622e-06
-0.000298562
-1.23438e-05
-0.000284117
-0.000294669
4.09282e-05
-0.000289893
6.64574e-05
-0.000281069
9.73292e-05
-0.000267497
0.000131892
-0.000249903
0.000167933
-0.000313648
0.00019815
-0.000544084
0.000237344
-0.000346505
0.00032501
-4.65337e-05
0.000328601
-1.69736e-05
0.000322973
-1.07126e-05
0.000318164
-3.66921e-06
2.92242e-05
-0.00030248
1.50531e-05
-0.000303286
-2.37231e-05
-0.000287182
-2.78183e-05
-0.000256299
-0.000301656
5.2691e-05
-0.00029709
8.2478e-05
-0.000287866
0.000117698
-0.000274458
0.000156447
-0.000336018
0.000190302
-0.000574091
0.000228157
-0.000431098
0.000321937
-5.48525e-05
0.00033333
-1.67397e-05
0.000328368
-1.12817e-05
0.000323543
-4.26138e-06
3.79062e-05
-0.000310338
2.18077e-05
-0.000309234
-3.5184e-05
-0.000291825
-5.32023e-05
-0.000261798
-4.40042e-05
-0.000212295
-0.000309863
6.54644e-05
-0.000305415
0.000100028
-0.000297053
0.000140292
-0.000357595
0.000178024
-0.000600909
0.000217121
-0.000514921
0.00031198
-6.83657e-05
0.000335451
-1.53478e-05
0.000331938
-1.10222e-05
0.000328109
-4.65626e-06
4.71462e-05
-0.000319103
3.02196e-05
-0.00031875
-4.50817e-05
-0.000299336
-7.81578e-05
-0.000266869
-8.11956e-05
-0.000224607
-6.20186e-05
-0.000150276
-0.00031942
7.94691e-05
-0.000316384
0.000119358
-0.000377747
0.000160445
-0.000625631
0.000202746
-0.000593838
0.000296037
-9.05744e-05
0.000334188
-1.24981e-05
0.000332601
-9.7381e-06
0.000330654
-4.76562e-06
5.71072e-05
-0.000329381
3.96883e-05
-0.000328572
-5.53282e-05
-0.000308503
-0.000101214
-0.00027628
-0.000115451
-0.000232614
-0.000111187
-0.000175439
-0.000123012
-2.72644e-05
-0.000331476
9.45613e-05
-0.000395892
0.000137503
-0.000648771
0.000183585
-0.000667294
0.000276202
-0.000121116
0.000326578
-7.52913e-06
0.000329218
-7.02422e-06
0.000329886
-4.4903e-06
6.684e-05
-0.000341208
5.22692e-05
-0.000341962
-6.45356e-05
-0.000319365
-0.00012415
-0.000285568
-0.000144364
-0.000247368
-0.000151533
-0.000192267
-0.000203709
-9.47418e-05
-0.000133982
0.000106718
-0.000410046
0.000108715
-0.000669871
0.000158603
-0.000735114
0.000251404
-0.000155483
0.000310568
-4.67628e-07
0.000319516
-2.28136e-06
0.000324474
-3.67342e-06
7.41152e-05
-0.000417321
6.59706e-05
-0.00035491
-7.49091e-05
-0.000331588
-0.000147969
-0.000295545
-0.000172228
-0.000257703
-0.000180939
-0.000217961
-0.000244787
-0.000151189
-0.000229549
8.25031e-07
-0.000263041
0.00036976
-0.000685035
0.000123879
-0.000792168
0.000215658
-0.000188349
0.000284271
8.81399e-06
0.000301286
4.86171e-06
0.000312373
-2.09702e-06
7.45137e-05
-0.000685434
7.72205e-05
-0.000428571
-8.28537e-05
-0.000346965
-0.000173711
-0.000305847
-0.000201127
-0.000266646
-0.0002077
-0.000230943
-0.000253267
-0.000209481
-0.00027407
-0.000106669
-0.000392445
0.000130228
-0.000120082
0.000489842
-0.000824774
0.000156484
-0.000215391
0.0002427
2.11002e-05
0.000271985
1.43937e-05
0.000291755
4.67607e-07
7.56605e-05
-0.00082592
6.66137e-05
-0.000674827
-9.31353e-05
-0.00041829
-0.000199901
-0.000320775
-0.000232677
-0.000274297
-0.000232774
-0.000241572
-0.000253502
-0.000230707
-0.000280264
-0.000203287
-0.000427486
-7.16274e-05
-0.000197272
0.000207419
0.000237682
0.00025216
-0.000239198
0.000180292
3.48385e-05
0.000228962
2.627e-05
0.000260109
4.125e-06
9.65982e-05
-0.000260135
2.21921e-05
-0.000781499
-0.000146648
-0.000621314
-0.000230167
-0.000388023
-0.000264194
-0.000289259
-0.000259229
-0.000247842
-0.000257287
-0.000237786
-0.000268536
-0.000242435
-0.000373674
-0.000257099
-0.000192509
-7.63903e-05
0.00030932
0.000135781
0.00143925
0.000304698
-0.00149179
4.5329e-05
0.000169802
3.86717e-05
0.000216561
8.9305e-06
9.66029e-05
4.53244e-05
-2.35168e-05
-0.000214426
-0.000280454
-0.000647693
-0.000347861
-0.00050362
-0.000307623
-0.000344594
-0.000286467
-0.000262021
-0.000266714
-0.000238415
-0.00025704
-0.000249283
-0.000300135
-0.000315974
-0.000175816
-0.000273792
0.000279884
-4.69547e-05
0.00133827
0.000236757
0.00153854
0.000432015
-0.00166586
0.000200984
-0.00169277
4.93881e-05
0.000159086
1.40043e-05
9.42344e-05
5.17565e-05
-3.62202e-05
5.80278e-05
-0.000345168
-0.000149712
-0.000544863
-0.000450691
-0.000454674
-0.000356568
-0.000334259
-0.000296802
-0.000283323
-0.000245412
-0.000251151
-0.000244304
-0.00025138
-0.000298038
-0.000151323
-0.000340466
0.000219561
-0.000213469
0.00116381
0.000127512
0.00134674
0.000428559
0.00152973
0.000626361
-0.00172407
0.000333523
-0.0017984
0.000135464
-0.00182824
1.90545e-05
2.15062e-05
-4.15381e-05
5.70745e-05
-0.000339752
5.26116e-05
-0.000592131
-0.000102443
-0.000650056
-0.00025531
-0.000480523
-0.000210304
-0.00032358
-0.000256545
-0.000259375
-0.000237188
-0.000231561
-0.000264123
-0.000132292
-0.000317069
0.00018592
-0.000306825
0.00093464
1.56978e-05
0.0011331
0.00034115
0.00129892
0.000659369
0.00156591
0.000888558
-0.00182811
0.000521985
-0.00191254
0.000252635
-0.00191557
8.26196e-05
-0.00191086
2.24372e-05
-0.000334708
5.20306e-05
-0.000568206
2.86861e-05
-0.000668529
-8.397e-05
-0.000624156
-0.000111677
-0.000450582
-8.33016e-05
-0.000288995
-0.000226925
-0.000237654
-0.000231096
-0.000142145
-0.00025427
0.000125106
-0.000256256
0.000665277
-3.74618e-05
0.000872918
0.000275883
0.00102641
0.000613663
0.00130737
0.000917905
0.00161591
0.00126195
-0.00198931
0.000773306
-0.00207943
0.000383168
-0.00204307
0.000147096
-0.00198005
2.85558e-05
-0.00193941
1.93251e-05
-0.000551361
3.5185e-05
-0.00064357
3.72527e-06
-0.000630699
-7.74293e-05
-0.00053709
-2.51702e-05
-0.000385864
1.35679e-05
-0.00026611
-0.00019847
-0.000184852
-0.000188388
2.97147e-06
-0.000132136
0.0003997
9.32157e-06
0.00054685
0.000288607
0.000745637
0.000556652
0.00101458
0.000906459
0.00128169
0.00125212
0.00162695
0.00165612
-0.00202112
0.00107298
-0.00228898
0.000537054
-0.00223331
0.00020953
-0.0021055
4.69173e-05
-0.00199841
-2.45775e-05
-0.00191483
1.1817e-05
-0.000624478
1.60919e-05
-0.000615749
-1.12267e-05
-0.00054889
-6.56309e-05
-0.000442997
3.19614e-05
-0.000339794
8.72522e-05
-0.000243841
-0.000139481
-0.000127372
-5.80448e-05
0.000164683
0.000102881
0.000243707
0.000312465
0.000505493
0.00052875
0.000706816
0.000864415
0.000986071
0.00120208
0.00119528
0.0016838
0.00145605
0.000482374
-0.00175983
0.000481425
0.000498583
0.000497524
0.00131297
-0.00226111
0.00065836
-0.00241029
0.000243144
-0.00226693
4.72271e-05
-0.00210581
-5.38847e-05
-0.0019691
-6.2964e-05
-0.00185187
3.98057e-06
-0.000602585
2.92716e-06
-0.000546953
-1.31654e-05
-0.000468259
-4.03699e-05
-0.000384369
7.65352e-05
-0.000333391
0.000176801
-0.000245215
-2.16374e-05
-3.55944e-05
0.000142233
4.854e-05
0.000298048
0.000314636
0.000503321
0.000459155
0.000776411
0.000703558
0.00114693
0.00088243
0.00151493
0.00104054
0.00209931
-9.42461e-07
0.000334732
-0.000349221
0.000497806
0.000396648
-0.00194901
0.00039884
0.000354645
0.000352006
0.000335448
-0.000350058
0.000495092
-6.12024e-07
0.00029385
0.000540078
0.000295412
0.000536949
0.000731322
-0.00233407
0.000200197
-0.00236734
-2.28858e-06
-0.00221741
-0.000107003
-0.00205269
-0.000140172
-0.00189189
-9.68771e-05
-0.00175499
-6.8754e-07
-0.000542306
-1.71978e-06
-0.000476132
-5.29303e-06
-0.000414528
-1.02112e-05
-0.000361999
0.000105142
-0.00035171
0.000283296
-0.00020737
0.000150138
-8.19676e-05
0.00027274
0.000124032
0.000488652
0.00027628
0.000686197
0.000401865
0.0010781
0.000658732
0.00137063
0.000650457
0.00190501
-0.000229316
-0.000230575
0.000806646
0.000581721
0.000575952
0.000592947
0.000591197
-1.1372e-06
-0.000373481
0.000422045
-4.04877e-07
0.000247139
-0.000285818
0.000536889
-0.00178188
0.000564199
-0.000372144
0.00041979
-2.58988e-07
-0.000364062
0.000345485
-0.000361168
0.000340771
0.000245971
-0.000283463
0.00053218
-9.96634e-08
0.000558001
0.000552245
-4.18783e-05
-0.002092
-0.000168481
-0.00220115
-0.000211525
-0.00211289
-0.0002317
-0.00196117
-0.000199287
-0.00178948
-0.000120384
-0.00163461
-2.29578e-06
-0.000478587
7.35278e-07
-0.000427442
7.61948e-06
-0.000387876
1.56631e-05
-0.000359937
0.000113367
-0.00034271
0.000418635
-0.000205048
0.000273219
-6.21098e-05
0.000458882
8.67657e-05
0.000678166
0.00011616
0.000971902
0.000446208
0.00129063
0.000380648
0.00164043
0.000504737
0.000554027
0.000553597
0.000550923
0.000548371
2.68811e-07
0.00010601
-0.00012573
0.000601172
0.000105215
-0.000126023
0.000597029
-4.36058e-07
9.99843e-05
0.000599409
9.81391e-05
0.000597836
-1.05492e-06
-0.00031857
0.000455853
9.29074e-07
0.00016406
-0.000184225
0.00015908
0.000112999
0.000159819
0.000124226
-0.00136705
-0.000456712
0.000322065
0.000320317
-0.00107595
-9.47159e-06
2.74563e-06
0.000140437
0.000138828
-0.000315616
0.000450887
-4.53295e-07
0.000349433
0.000345019
0.000164497
-0.000183317
0.000157591
0.00011372
0.00015803
0.000122588
1.21928e-06
0.000167949
0.000130338
0.000165516
0.000131309
0.0001664
0.000131789
0.000163521
0.000130228
-0.000460075
-0.0018004
-0.000394943
-0.00201773
-0.000342533
-0.00200206
-0.000312856
-0.0018476
-0.000244083
-0.00166579
-0.000140908
-0.0014937
-1.46606e-06
-0.000432842
6.13599e-06
-0.000397445
1.7187e-05
-0.000380452
3.61723e-05
-0.000320585
9.12372e-05
-0.000390285
0.00060387
-0.000237833
0.000448941
-0.000105599
0.000651247
-5.95597e-05
0.000853886
0.000189811
0.0012283
0.000178825
0.00149245
0.000266857
0.000466901
0.000465348
0.000473809
0.000472255
-8.69799e-08
7.51269e-05
0.000578972
7.36317e-05
0.000578017
-5.05896e-08
5.10599e-05
0.00057504
4.93305e-05
0.000572621
1.17467e-06
3.18956e-05
-2.12792e-05
-8.20338e-06
0.000124268
-1.66987e-05
0.000174093
0.000131493
0.000179359
5.10036e-06
3.13845e-05
-2.13809e-05
-7.91458e-06
-1.66454e-05
0.000123747
0.000174768
0.000130748
0.000178139
5.35807e-06
6.70673e-07
1.58124e-05
0.000130185
0.000174691
0.000132043
0.00017795
1.58382e-05
0.000130365
0.00017428
0.000132024
0.000177384
4.30059e-07
-0.000193598
0.000136196
9.53128e-05
0.000135264
9.80229e-05
-2.09674e-05
8.09495e-06
1.49756e-07
1.86564e-05
0.000153146
-7.7276e-06
1.74881e-05
-1.68534e-05
0.000120092
-5.39898e-09
-2.04879e-05
0.000151618
1.57512e-05
0.000134058
-0.000967781
-0.000859342
-0.00069765
-0.000267358
-0.00025022
-0.000169562
-0.000147873
1.77512e-07
0.00014539
-8.99691e-05
-6.50698e-05
0.000156981
-9.99497e-05
-5.41079e-05
-2.38829e-06
0.000164423
0.000123792
0.000168132
0.000125288
-0.000193838
0.000135095
9.60153e-05
0.000134177
9.65501e-05
-9.85819e-07
0.000104732
5.55183e-05
9.03246e-05
7.06683e-05
0.000103162
5.84404e-05
8.91369e-05
6.75875e-05
-1.99713e-05
7.82651e-06
1.79872e-05
0.000151899
-7.424e-06
1.71278e-05
-1.69724e-05
0.000120989
-1.96217e-05
0.000150251
1.55889e-05
0.000131954
1.77716e-05
1.1602e-05
3.90346e-07
0.000156841
-1.51306e-05
-1.63641e-05
0.000140553
3.21505e-07
0.000159635
0.000142298
1.74708e-05
1.15711e-05
0.000155736
-1.49586e-05
-1.62309e-05
0.000141598
0.00015844
0.000141157
-0.000664292
-0.00153105
-0.000497621
-0.00186264
-0.000438598
-0.00187631
-0.000374998
-0.00171668
-0.000282859
-0.00152383
-0.000165636
-0.00132807
1.82666e-08
-0.000400944
9.63553e-06
-0.000382807
1.95416e-05
-0.000316101
3.16848e-05
-0.000364883
6.58323e-05
-0.000427043
0.00079308
-0.000359983
0.000703324
-0.000184762
0.00077645
-4.43404e-05
0.00108804
5.97965e-06
0.00140114
7.2433e-05
0.000415184
0.00041476
0.000428976
0.000427955
7.0855e-08
1.28798e-05
0.00050501
1.21182e-05
0.000502632
2.30656e-07
-1.40211e-06
0.000487861
-8.23353e-07
0.000485428
1.38674e-06
3.5505e-06
0.000125696
0.0001689
0.000126907
0.000168378
3.56457e-06
0.000126808
0.000168616
0.000128282
0.000167981
1.59806e-06
-6.85289e-06
0.000122103
0.000163469
0.000129119
0.000169148
-7.25983e-06
0.000123334
0.000162632
0.000130522
0.000168536
-5.58204e-07
-9.45024e-06
-5.54148e-06
0.000139818
-9.44446e-07
-8.76149e-06
0.00013356
-1.44738e-05
-5.293e-07
0.000180101
8.40365e-06
-5.1424e-06
-9.88251e-06
0.000137068
6.35011e-08
-1.05018e-05
0.000170165
5.98063e-08
8.23143e-07
0.000162925
-1.5782e-06
-8.70545e-06
0.000135236
-1.16261e-07
-9.38212e-06
-5.59601e-06
0.000138841
-1.47504e-05
9.28363e-06
0.000179589
-5.01881e-06
-1.01821e-05
0.000136566
-1.0858e-05
0.000169292
1.10673e-06
0.000161173
-5.83104e-06
1.10012e-05
-1.20734e-05
0.000137089
8.68494e-06
1.28527e-07
-6.6666e-06
0.000166714
-5.68961e-06
0.000138851
9.14615e-08
0.00017032
-5.98581e-06
1.12357e-05
-1.22509e-05
0.000137366
8.93034e-06
-6.97843e-06
0.000166471
-5.67758e-06
0.000138755
0.00016987
2.2772e-05
7.71543e-06
-3.08513e-07
-2.13071e-05
0.000127324
-6.36064e-06
-1.60092e-05
0.000100829
2.60905e-09
0.000131185
-1.33993e-05
0.000103129
-8.95186e-06
-1.06187e-06
2.89216e-09
4.43828e-06
0.000158718
8.27049e-07
8.15848e-07
2.05332e-06
0.000116396
-1.09744e-07
-1.02719e-05
0.000153893
2.92161e-06
0.000130891
-0.000604669
-0.0010274
-0.000309475
-0.000341916
-0.000329611
-0.000297755
-0.000278235
2.69273e-06
6.42489e-05
-4.11109e-05
-0.000293189
6.34019e-05
-3.64149e-05
-0.000274514
2.37886e-06
-0.000197661
-0.000182042
-3.08225e-06
-2.59756e-06
5.95546e-06
-3.87945e-05
-1.17727e-05
-2.31985e-05
8.4553e-06
4.65707e-06
-4.52493e-06
-3.59822e-05
-1.01444e-05
-2.18047e-05
1.0609e-05
-2.40046e-06
-4.49177e-06
2.38665e-05
2.96836e-05
-3.34688e-05
4.25699e-05
6.45988e-06
3.84076e-05
2.05829e-05
-2.78391e-06
2.43661e-05
3.06737e-05
-3.41226e-05
4.33839e-05
5.79701e-06
3.94313e-05
2.07991e-05
2.22019e-05
7.70749e-06
-2.13562e-05
0.000126234
-6.45753e-06
-1.58884e-05
0.000101389
0.000130303
-1.23554e-05
0.000100725
-2.514e-05
1.41063e-05
-6.04519e-07
9.50635e-05
-1.32246e-05
7.27122e-06
5.69799e-05
-5.09523e-07
7.63525e-05
7.86466e-05
-2.54795e-05
1.28317e-05
9.38493e-05
-1.21893e-05
7.60525e-06
6.02405e-05
7.53247e-05
7.5669e-05
-8.34666e-06
-1.16611e-06
3.91031e-06
0.000157504
1.06559e-06
4.21898e-07
2.44483e-06
0.000117056
-9.40636e-06
0.000152267
2.74236e-06
0.000128467
2.5218e-06
2.61769e-07
0.000159299
0.00013898
2.81536e-06
0.0001582
0.000138009
-0.000688911
-0.00133976
-0.00057758
-0.00172366
-0.0005177
-0.00173361
-0.000432513
-0.00156703
-0.000325845
-0.00136362
-0.000200101
-0.00112796
7.25376e-07
-0.00038042
7.25096e-06
-0.000307856
1.12992e-05
-0.000334586
1.38779e-06
-0.000385013
2.38021e-05
-0.000471236
0.000904333
-0.000451029
0.000969591
-0.000233614
0.000965724
-0.000163319
0.00125734
-0.00011263
0.000381536
0.000381215
0.000411517
0.000411937
1.96911e-07
-1.13389e-05
0.000424924
-1.05626e-05
0.000424697
-9.66807e-08
-2.85614e-05
0.000446295
-2.84841e-05
0.00044578
1.55398e-06
-2.29894e-05
0.000110513
0.000147233
0.000113403
0.000148407
-2.31217e-05
0.000111415
0.000146451
0.000114489
0.0001477
1.85804e-06
-3.72463e-05
0.000109332
0.000141535
0.000108013
0.000141408
-3.91448e-05
0.000111195
0.000141123
0.000109993
0.000141024
-6.08532e-06
-1.46231e-05
0.000134331
-8.60003e-06
1.65777e-07
0.000164567
-6.54947e-06
-1.36062e-05
0.000132434
9.22904e-08
-6.66572e-06
0.000159767
-6.23124e-06
-1.50014e-05
0.00013579
-8.87665e-06
0.000164449
-6.36643e-06
-1.40962e-05
0.000133743
-6.8264e-06
0.000159667
-7.28715e-06
1.62362e-05
-1.61156e-05
0.000129274
6.96901e-06
1.10375e-07
-9.06928e-06
0.00015815
-6.53254e-06
0.000138286
7.30062e-08
0.000162865
-7.21302e-06
1.68312e-05
-1.66995e-05
0.000130415
7.22671e-06
-9.44758e-06
0.000157742
-6.37546e-06
0.000139632
0.000162623
-4.62931e-07
4.72619e-06
2.38057e-07
-2.80099e-05
-3.44523e-05
-9.13681e-08
-9.57035e-08
1.18837e-05
4.57769e-07
-1.17602e-05
1.39032e-08
-1.16273e-05
-4.44634e-07
4.79632e-06
3.14048e-07
-2.78007e-05
1.23972e-05
-3.44707e-05
5.30542e-07
-1.17965e-05
-1.17122e-05
7.62237e-07
1.13093e-05
-1.16318e-05
8.87861e-06
-2.96168e-08
-8.52277e-06
4.84014e-07
-9.48331e-09
7.03276e-07
1.14541e-05
-1.20039e-05
8.91693e-06
-8.58026e-06
4.84455e-07
1.22626e-05
8.00351e-07
-3.6947e-07
-1.39536e-05
0.00012857
8.20175e-07
6.79104e-06
9.52713e-05
-9.62868e-08
0.000134076
1.72192e-05
9.3501e-05
3.25913e-06
9.62615e-07
-3.72044e-09
-7.33027e-06
-1.58906e-06
-9.12429e-06
1.08751e-05
2.6076e-08
2.4099e-06
-1.14053e-05
-0.000416095
-0.000877484
-7.63489e-05
-0.000314726
-0.000311014
-0.000322411
-0.00031238
2.01988e-06
9.63225e-06
1.34005e-05
-0.000366968
4.34927e-06
2.20749e-05
-0.000354015
1.19023e-06
-0.000330424
-0.000309111
1.56287e-06
-2.64265e-05
3.65582e-05
-9.54199e-05
-6.32191e-05
-8.63977e-05
-5.98212e-05
-1.7512e-05
2.53099e-05
-8.72852e-05
-5.78076e-05
-7.98493e-05
-5.58269e-05
-7.01896e-07
-6.07254e-05
-3.6561e-05
-7.30841e-05
-4.70252e-05
-5.70905e-05
-3.48263e-05
-6.80467e-05
-4.48075e-05
-1.49113e-05
-2.94919e-05
3.29106e-05
-2.7302e-05
-1.35889e-05
-5.28629e-07
2.48491e-05
-3.74675e-05
-1.13227e-05
-3.22989e-05
-9.06863e-06
-6.15985e-07
-3.18251e-06
-1.26578e-05
-1.40398e-05
-2.79683e-05
3.13989e-05
-2.5373e-05
-1.20602e-05
2.37133e-05
-3.63658e-05
-1.03008e-05
-3.13361e-05
-8.13612e-06
-1.74417e-06
-1.06236e-05
-1.31822e-06
3.0062e-05
-3.93499e-05
4.02897e-05
-9.87132e-06
-2.66408e-05
6.00232e-05
3.07034e-06
-4.6158e-07
3.90368e-05
-4.31366e-07
-6.93771e-06
1.11607e-05
-6.43744e-07
3.20015e-05
-7.52027e-07
1.85258e-05
6.93091e-05
-7.63153e-07
2.99598e-05
-4.0178e-05
4.1655e-05
-8.20132e-06
-2.64826e-05
6.0802e-05
2.778e-06