/*--------------------------------*- C++ -*----------------------------------*\
| =========                 |                                                 |
| \\      /  F ield         | OpenFOAM: The Open Source CFD Toolbox           |
|  \\    /   O peration     | Version:  5.x                                   |
|   \\  /    A nd           | Web:      www.OpenFOAM.org                      |
|    \\/     M anipulation  |                                                 |
\*---------------------------------------------------------------------------*/
FoamFile
{
    version     2.0;
    format      ascii;
    class       volScalarField;
    location    "1.2";
    object      rAU;
}
// * * * * * * * * * * * * * * * * * * * * * * * * * * * * * * * * * * * * * //

dimensions      [-1 3 1 0 0 0 0];

internalField   nonuniform List<scalar> 
12160
(
1.27501e-06
1.275e-06
1.27404e-06
1.27501e-06
1.274e-06
1.27506e-06
1.27606e-06
1.27497e-06
1.27503e-06
1.27405e-06
1.27607e-06
1.276e-06
1.27494e-06
1.27401e-06
1.27501e-06
1.2757e-06
1.27604e-06
1.27588e-06
1.2749e-06
1.2756e-06
1.27397e-06
1.27559e-06
1.27565e-06
1.27595e-06
1.27566e-06
1.27545e-06
1.27407e-06
1.27386e-06
1.27597e-06
1.27554e-06
1.27606e-06
1.27575e-06
1.27526e-06
1.27485e-06
1.27409e-06
1.27381e-06
1.27607e-06
1.27597e-06
1.27598e-06
1.27605e-06
1.27538e-06
1.27485e-06
1.27481e-06
1.27456e-06
1.98583e-06
1.2749e-06
1.27603e-06
1.27596e-06
1.27593e-06
1.27603e-06
1.27485e-06
1.27501e-06
1.27752e-06
1.89382e-06
4.28963e-05
1.27443e-06
1.27553e-06
1.27599e-06
1.2759e-06
1.27587e-06
1.27585e-06
1.27519e-06
1.28063e-06
1.92599e-06
4.10893e-05
0.000739944
1.27562e-06
1.27539e-06
1.27602e-06
1.27594e-06
1.27582e-06
1.27579e-06
1.27598e-06
1.28619e-06
1.98898e-06
3.17839e-05
0.00125399
0.00126925
1.27608e-06
1.27597e-06
1.27597e-06
1.27607e-06
1.27588e-06
1.27571e-06
1.27571e-06
1.29109e-06
2.06459e-06
2.88214e-05
0.00117201
0.00127487
0.00127487
1.27608e-06
1.27609e-06
1.27605e-06
1.27603e-06
1.27604e-06
1.27579e-06
1.27561e-06
1.29004e-06
2.08281e-06
2.76992e-05
0.00110311
0.00127537
0.00127452
0.00127487
1.27608e-06
1.27608e-06
1.27609e-06
1.27604e-06
1.27599e-06
1.27601e-06
1.27591e-06
1.28481e-06
2.02702e-06
2.45149e-05
0.000986508
0.00127492
0.00127568
0.00127441
0.00127519
1.27608e-06
1.27608e-06
1.27608e-06
1.27607e-06
1.27604e-06
1.27596e-06
1.27604e-06
1.27964e-06
1.92718e-06
1.97505e-05
0.000860137
0.00127469
0.00127538
0.00127558
0.00127274
1.27608e-06
1.27608e-06
1.27608e-06
1.27608e-06
1.27607e-06
1.27592e-06
1.27592e-06
1.2765e-06
1.83658e-06
1.48971e-05
0.000691786
0.00127337
0.00127508
0.00127583
0.00127497
1.27608e-06
1.27608e-06
1.27608e-06
1.27608e-06
1.27608e-06
1.27587e-06
1.27593e-06
1.27589e-06
1.78424e-06
1.12408e-05
0.000498312
0.00127241
0.00127482
0.00127559
0.0012733
1.27607e-06
1.27608e-06
1.27608e-06
1.27608e-06
1.27608e-06
1.27584e-06
1.27587e-06
1.27578e-06
1.77256e-06
9.31261e-06
0.000330967
0.00126736
0.00127378
0.00127548
0.00127281
1.27607e-06
1.27607e-06
1.27608e-06
1.27608e-06
1.27608e-06
1.27582e-06
1.27584e-06
1.27559e-06
1.80477e-06
8.84812e-06
0.000229932
0.00125889
0.00127321
0.00127412
0.00127131
1.27607e-06
1.27607e-06
1.27607e-06
1.27608e-06
1.27608e-06
1.2758e-06
1.27582e-06
1.27541e-06
1.88867e-06
9.26106e-06
0.000192884
0.00124869
0.00127324
0.00127328
0.00126975
1.27607e-06
1.27607e-06
1.27607e-06
1.27607e-06
1.27608e-06
1.27579e-06
1.2758e-06
1.27526e-06
2.02037e-06
1.06881e-05
0.000198638
0.00124015
0.00127421
0.00127468
0.00126859
1.27607e-06
1.27607e-06
1.27607e-06
1.27607e-06
1.27607e-06
1.27577e-06
1.27579e-06
1.27515e-06
2.20034e-06
1.32099e-05
0.00025036
0.00123969
0.00127584
0.00127518
0.00127057
1.27607e-06
1.27607e-06
1.27607e-06
1.27607e-06
1.27607e-06
1.27575e-06
1.2749e-06
1.27509e-06
2.42938e-06
1.71127e-05
0.000358869
0.00125209
0.00127548
0.00127605
0.00127256
1.27606e-06
1.27607e-06
1.27607e-06
1.27607e-06
1.27607e-06
1.27574e-06
1.2749e-06
1.27421e-06
2.70763e-06
2.298e-05
0.000517463
0.0012641
0.00127487
0.00127518
0.00127536
1.27606e-06
1.27606e-06
1.27607e-06
1.27607e-06
1.27607e-06
1.27573e-06
1.27492e-06
1.27425e-06
3.03223e-06
3.1601e-05
0.000713244
0.00127068
0.00127448
0.00127412
0.00127523
1.27606e-06
1.27606e-06
1.27606e-06
1.27607e-06
1.27607e-06
1.27572e-06
1.27493e-06
1.2743e-06
3.39424e-06
4.38402e-05
0.000905015
0.001274
0.00127605
0.00127363
0.00127421
1.27606e-06
1.27606e-06
1.27606e-06
1.27606e-06
1.27607e-06
1.27572e-06
1.27494e-06
1.27436e-06
3.77507e-06
6.0277e-05
0.00105242
0.00127558
0.00127605
0.00127545
0.00127372
1.27605e-06
1.27606e-06
1.27606e-06
1.27606e-06
1.27606e-06
1.27571e-06
1.27495e-06
1.2744e-06
4.1451e-06
8.04454e-05
0.00114641
0.0012759
0.00127604
0.00127605
0.00127374
1.27605e-06
1.27606e-06
1.27606e-06
1.27606e-06
1.27606e-06
1.27571e-06
1.27494e-06
1.27442e-06
4.46467e-06
0.000102289
0.00119935
0.001276
0.00127604
0.00127605
0.00127422
1.27605e-06
1.27605e-06
1.27606e-06
1.27606e-06
1.27606e-06
1.27571e-06
1.27493e-06
1.27443e-06
4.6914e-06
0.000122258
0.00122703
0.00127603
0.00127605
0.00127605
0.00127418
1.27605e-06
1.27605e-06
1.27605e-06
1.27606e-06
1.27606e-06
1.27571e-06
1.27491e-06
1.27441e-06
4.79228e-06
0.000136617
0.00124088
0.00127604
0.00127605
0.00127605
0.00127419
1.27604e-06
1.27605e-06
1.27605e-06
1.27605e-06
1.27606e-06
1.27571e-06
1.27489e-06
1.27437e-06
4.75633e-06
0.000142855
0.00124733
0.00127605
0.00127605
0.00127605
0.00127424
1.27604e-06
1.27604e-06
1.27605e-06
1.27605e-06
1.27605e-06
1.27571e-06
1.27486e-06
1.27431e-06
4.59357e-06
0.000140308
0.00124968
0.00127605
0.00127605
0.00127605
0.00127429
1.27604e-06
1.27604e-06
1.27604e-06
1.27605e-06
1.27605e-06
1.27572e-06
1.27483e-06
1.27424e-06
4.33458e-06
0.000129724
0.00124834
0.00127279
0.00127605
0.00127605
0.00127433
1.27604e-06
1.27604e-06
1.27604e-06
1.27604e-06
1.27605e-06
1.27573e-06
1.2748e-06
1.27416e-06
4.01801e-06
0.000113348
0.00124421
0.00127276
0.00127441
0.00127605
0.00127436
1.27603e-06
1.27604e-06
1.27604e-06
1.27604e-06
1.27604e-06
1.27574e-06
1.27478e-06
1.27408e-06
3.68007e-06
9.41273e-05
0.00123518
0.00127605
0.00127439
0.00127605
0.00127438
1.27603e-06
1.27603e-06
1.27604e-06
1.27604e-06
1.27604e-06
1.27575e-06
1.27574e-06
1.27401e-06
3.34822e-06
7.4977e-05
0.00121836
0.00127604
0.00127605
0.00127605
0.00127438
1.27599e-06
1.27603e-06
1.27603e-06
1.27604e-06
1.27604e-06
1.27576e-06
1.27575e-06
1.27493e-06
3.03975e-06
5.80323e-05
0.00118827
0.00127604
0.00127605
0.00127605
0.00127436
1.2739e-06
1.27603e-06
1.27603e-06
1.27603e-06
1.27603e-06
1.27576e-06
1.27576e-06
1.27494e-06
2.76372e-06
4.42508e-05
0.00113688
0.00127602
0.00127605
0.00127605
0.00127434
1.27588e-06
1.27511e-06
1.27603e-06
1.27603e-06
1.27603e-06
1.27577e-06
1.27576e-06
1.27499e-06
2.52347e-06
3.36912e-05
0.00105522
0.00127599
0.00127605
0.00127605
0.00127429
1.27688e-06
1.27594e-06
1.27599e-06
1.27601e-06
1.27603e-06
1.27579e-06
1.27577e-06
1.27507e-06
2.3184e-06
2.58655e-05
0.000937874
0.00127589
0.00127605
0.00127605
0.00127424
1.27686e-06
1.27638e-06
1.27599e-06
1.27599e-06
1.27601e-06
1.27581e-06
1.27579e-06
1.27517e-06
2.1462e-06
2.01574e-05
0.000789294
0.00127567
0.00127605
0.00127605
0.00127418
1.27688e-06
1.27638e-06
1.27599e-06
1.27599e-06
1.27599e-06
1.27585e-06
1.27581e-06
1.2753e-06
2.00391e-06
1.6016e-05
0.000627367
0.00127485
0.00127605
0.00127605
0.00127411
1.2768e-06
1.27638e-06
1.27599e-06
1.27598e-06
1.27599e-06
1.276e-06
1.27584e-06
1.27544e-06
1.88877e-06
1.30158e-05
0.00047605
0.00127267
0.00127605
0.00127605
0.00127405
1.27683e-06
1.27636e-06
1.27593e-06
1.27598e-06
1.27597e-06
1.276e-06
1.27599e-06
1.27556e-06
1.79857e-06
1.08473e-05
0.000353435
0.00126926
0.00127605
0.00127605
0.00127397
1.27666e-06
1.27638e-06
1.2759e-06
1.27578e-06
1.27596e-06
1.27596e-06
1.27588e-06
1.27603e-06
1.72986e-06
9.29084e-06
0.000260818
0.00126323
0.00127605
0.00127605
0.00127394
1.6792e-06
1.27629e-06
1.27595e-06
1.27577e-06
1.27562e-06
1.27596e-06
1.27492e-06
1.2759e-06
1.27449e-06
8.1609e-06
0.000196491
0.0012526
0.00127605
0.00127605
0.00127397
7.37734e-06
1.63085e-06
1.27665e-06
1.27598e-06
1.27561e-06
1.27545e-06
1.27478e-06
1.27467e-06
1.27537e-06
1.27149e-06
0.00015406
0.00123565
0.00127604
0.00127476
0.00127402
0.000131884
6.84202e-06
1.62637e-06
1.28113e-06
1.27573e-06
1.27534e-06
1.27431e-06
1.2738e-06
1.27506e-06
1.27426e-06
1.27044e-06
0.00121441
0.00127603
0.00127456
0.00127284
0.00120061
0.000123356
7.00607e-06
1.68357e-06
1.2899e-06
1.27484e-06
1.27351e-06
1.27267e-06
1.27389e-06
1.27567e-06
1.27305e-06
1.26051e-06
0.00127601
0.00127464
0.00127282
0.00127586
0.00119875
0.000140631
8.9891e-06
1.82136e-06
1.30334e-06
1.27226e-06
1.27334e-06
1.27407e-06
1.27456e-06
1.27574e-06
1.25956e-06
1.27607e-06
1.27341e-06
0.00127498
0.00127317
0.00127522
0.00127579
0.00121505
0.000227992
1.38533e-05
2.05091e-06
1.32313e-06
1.27301e-06
1.27459e-06
1.27489e-06
1.27475e-06
1.26822e-06
1.27607e-06
1.27607e-06
1.27607e-06
1.27265e-06
0.00127388
0.00127463
0.0012759
0.00127373
0.00124255
0.00040993
2.28706e-05
2.36411e-06
1.34675e-06
1.27509e-06
1.27567e-06
1.27298e-06
1.27248e-06
1.27504e-06
1.27607e-06
1.27606e-06
1.27606e-06
1.27607e-06
1.26826e-06
0.00127551
0.00127492
0.00127181
0.00126036
0.000642279
3.66111e-05
2.71286e-06
1.36537e-06
1.27622e-06
1.2732e-06
1.27371e-06
1.27604e-06
1.27607e-06
1.27606e-06
1.27605e-06
1.27606e-06
1.27606e-06
1.27607e-06
1.26915e-06
0.00127123
0.00127398
0.00127089
0.00126875
0.000840728
5.41057e-05
3.01947e-06
1.35921e-06
1.27578e-06
1.27391e-06
1.27607e-06
1.27607e-06
1.27607e-06
1.27605e-06
1.27591e-06
1.27605e-06
1.27606e-06
1.27607e-06
1.27607e-06
1.27356e-06
0.00126747
0.00127351
0.00127104
0.00126994
0.00098211
7.65609e-05
3.10112e-06
1.33937e-06
1.27532e-06
1.27599e-06
1.27607e-06
1.27607e-06
1.27605e-06
1.27601e-06
1.27807e-06
1.27602e-06
1.27605e-06
1.27606e-06
1.27607e-06
1.27607e-06
1.27607e-06
0.00126552
0.0012713
0.00127156
0.00127129
0.00109102
9.88424e-05
3.11727e-06
1.30671e-06
1.27565e-06
1.27607e-06
1.27607e-06
1.27606e-06
1.27602e-06
1.27587e-06
1.27338e-06
1.27744e-06
1.274e-06
1.27852e-06
1.27806e-06
1.27112e-06
1.27443e-06
1.27606e-06
1.27607e-06
1.27607e-06
1.27608e-06
0.00126293
0.001271
0.00127184
0.00127156
0.00117138
0.000130065
2.9606e-06
1.34329e-06
1.27607e-06
1.27607e-06
1.27606e-06
1.27574e-06
1.27593e-06
1.27489e-06
1.28376e-06
1.27492e-06
1.26806e-06
1.2838e-06
1.28092e-06
1.2805e-06
1.27492e-06
1.26915e-06
1.26873e-06
1.27444e-06
1.27606e-06
1.27606e-06
1.27607e-06
1.27607e-06
1.27609e-06
0.00126277
0.00127127
0.00127162
0.00127156
0.00122131
0.000166202
3.34699e-06
1.3395e-06
1.27605e-06
1.27555e-06
1.27416e-06
1.2757e-06
1.27807e-06
1.28555e-06
1.28497e-06
1.28476e-06
1.28419e-06
1.27505e-06
1.28615e-06
1.27503e-06
1.27719e-06
1.27506e-06
1.27997e-06
1.28056e-06
1.28609e-06
1.28702e-06
1.28698e-06
1.27607e-06
1.27606e-06
1.27606e-06
1.27607e-06
1.27607e-06
1.27607e-06
0.00126332
0.0012714
0.00127185
0.00127414
0.00125075
0.000200963
3.67699e-06
1.36918e-06
1.27651e-06
1.27512e-06
1.27415e-06
1.27968e-06
1.28292e-06
1.28239e-06
1.28503e-06
1.28512e-06
1.28807e-06
1.28765e-06
1.28732e-06
1.28691e-06
1.28447e-06
1.27741e-06
1.28172e-06
1.27733e-06
1.29092e-06
1.27502e-06
1.27178e-06
1.27577e-06
1.27602e-06
1.27714e-06
1.27714e-06
1.28443e-06
1.27989e-06
1.28044e-06
1.27849e-06
1.28222e-06
1.27838e-06
1.29119e-06
1.27804e-06
1.27832e-06
1.28494e-06
1.28233e-06
1.27883e-06
1.27958e-06
1.28581e-06
1.28279e-06
1.27586e-06
1.27606e-06
1.27606e-06
1.27607e-06
1.27607e-06
1.27607e-06
0.00126359
0.00127247
0.00127524
0.00127133
0.00125933
0.000262607
4.64164e-06
1.4624e-06
1.27697e-06
1.27562e-06
1.27994e-06
1.28362e-06
1.28372e-06
1.28025e-06
1.28076e-06
1.28691e-06
1.28697e-06
1.28706e-06
1.28705e-06
1.28735e-06
1.27778e-06
1.21542e-06
1.323e-06
1.35164e-06
1.28693e-06
1.27764e-06
1.29009e-06
1.37224e-06
1.32351e-06
1.34934e-06
1.2864e-06
1.30764e-06
1.33187e-06
1.31478e-06
1.33854e-06
1.31152e-06
1.33177e-06
1.31549e-06
1.33646e-06
1.27222e-06
1.27233e-06
1.27346e-06
1.27973e-06
1.28448e-06
1.29306e-06
1.28801e-06
1.28203e-06
1.27364e-06
1.26791e-06
1.26642e-06
1.2672e-06
1.2708e-06
1.26875e-06
1.27088e-06
1.27112e-06
1.2693e-06
1.26955e-06
1.27485e-06
1.2726e-06
1.27416e-06
1.27833e-06
1.2774e-06
1.27607e-06
1.25198e-06
1.27982e-06
1.27928e-06
1.27795e-06
1.25425e-06
1.27888e-06
1.28401e-06
1.29315e-06
1.28896e-06
1.28121e-06
1.29218e-06
1.27604e-06
1.29233e-06
1.27504e-06
1.2758e-06
1.27606e-06
1.27606e-06
1.27606e-06
1.27607e-06
1.27606e-06
0.00126433
0.00127331
0.00127286
0.0012701
0.00126504
0.000402825
7.03404e-06
1.57387e-06
1.28329e-06
1.27818e-06
1.2809e-06
1.28115e-06
1.28221e-06
1.28224e-06
1.28614e-06
1.28555e-06
1.28349e-06
1.28289e-06
1.30785e-06
1.32376e-06
1.27803e-06
1.31331e-06
1.30805e-06
1.32353e-06
1.27918e-06
1.31362e-06
1.24839e-06
1.2987e-06
1.29512e-06
1.30723e-06
1.24926e-06
1.29851e-06
1.29545e-06
1.30775e-06
1.25672e-06
1.02864e-06
7.90461e-07
1.2856e-06
1.27089e-06
1.29303e-06
1.25825e-06
1.05547e-06
1.28579e-06
1.21431e-06
1.28612e-06
1.29198e-06
1.27111e-06
1.25627e-06
1.28557e-06
1.28083e-06
1.28713e-06
1.25806e-06
1.28676e-06
1.27796e-06
1.2747e-06
1.28471e-06
1.28682e-06
1.27729e-06
1.18574e-06
1.31859e-06
1.22771e-06
1.19214e-06
1.2698e-06
1.26566e-06
1.24951e-06
1.24999e-06
1.26068e-06
1.27312e-06
1.26185e-06
1.26253e-06
1.2649e-06
1.26343e-06
1.23853e-06
1.25037e-06
1.25451e-06
1.25988e-06
1.23997e-06
1.2514e-06
1.25524e-06
1.26013e-06
1.28494e-06
1.25815e-06
1.26086e-06
1.2678e-06
1.23037e-06
1.24082e-06
1.28363e-06
1.2598e-06
1.26125e-06
1.26794e-06
1.23011e-06
1.2429e-06
1.27823e-06
1.29009e-06
1.28707e-06
1.28398e-06
1.26511e-06
1.27136e-06
1.26652e-06
1.27614e-06
1.17477e-06
1.3109e-06
1.23724e-06
1.17343e-06
1.29543e-06
1.19929e-06
1.2927e-06
1.20657e-06
1.27515e-06
1.27606e-06
1.27606e-06
1.27606e-06
1.27607e-06
1.27606e-06
0.00126382
0.00127259
0.00127129
0.00127018
0.00126817
0.000618311
1.23672e-05
1.80584e-06
1.30779e-06
1.27092e-06
1.27014e-06
1.28085e-06
1.28109e-06
1.26921e-06
1.26827e-06
1.26669e-06
1.26674e-06
1.25662e-06
1.28679e-06
1.27423e-06
1.28159e-06
1.2638e-06
1.2864e-06
1.27398e-06
1.28137e-06
1.27327e-06
1.28694e-06
1.27269e-06
1.27729e-06
1.27344e-06
1.28717e-06
1.27264e-06
1.27726e-06
1.32455e-06
1.3488e-06
1.29055e-06
1.3008e-06
1.32466e-06
1.34845e-06
1.29266e-06
1.29822e-06
1.2641e-06
1.30488e-06
1.28906e-06
1.2909e-06
1.26516e-06
1.30618e-06
1.28917e-06
1.29083e-06
1.22134e-06
1.24736e-06
1.30003e-06
1.28798e-06
1.2718e-06
1.26916e-06
1.25143e-06
1.24977e-06
1.25295e-06
1.2506e-06
1.24398e-06
1.24631e-06
1.2582e-06
1.25941e-06
1.2176e-06
1.21247e-06
1.22236e-06
1.21654e-06
1.21853e-06
1.21527e-06
1.22177e-06
1.21691e-06
1.24535e-06
1.23002e-06
1.22619e-06
1.22278e-06
1.24487e-06
1.23018e-06
1.22667e-06
1.22318e-06
1.25158e-06
1.24597e-06
1.25005e-06
1.26441e-06
1.25332e-06
1.24998e-06
1.25741e-06
1.26705e-06
1.28475e-06
1.27916e-06
1.08489e-06
1.27655e-06
1.24505e-06
1.1956e-06
1.24104e-06
1.26314e-06
1.08246e-06
1.27874e-06
1.25062e-06
1.19246e-06
1.22382e-06
1.25569e-06
1.30023e-06
1.2919e-06
1.20654e-06
1.28027e-06
1.20749e-06
1.27999e-06
1.27606e-06
1.27606e-06
1.27606e-06
1.27606e-06
1.27607e-06
1.27607e-06
0.00126309
0.00127296
0.0012711
0.00127182
0.00126946
0.000865936
2.60955e-05
2.37565e-06
1.40402e-06
1.26508e-06
1.2653e-06
1.26945e-06
1.26946e-06
1.27961e-06
1.27962e-06
1.27335e-06
1.27339e-06
1.24897e-06
1.29082e-06
1.25634e-06
1.28153e-06
1.25872e-06
1.29003e-06
1.26078e-06
1.28081e-06
1.23242e-06
1.27197e-06
1.26689e-06
1.27311e-06
1.23554e-06
1.27249e-06
1.27252e-06
1.27362e-06
1.18732e-06
1.09337e-06
1.1883e-06
1.10041e-06
1.27607e-06
1.27605e-06
1.2625e-06
1.25622e-06
1.25745e-06
1.24426e-06
1.24882e-06
1.24808e-06
1.26155e-06
1.25096e-06
1.17441e-06
1.19371e-06
1.19729e-06
1.20002e-06
1.177e-06
1.19467e-06
1.19774e-06
1.20382e-06
1.20021e-06
1.18633e-06
1.1996e-06
1.19779e-06
1.20084e-06
1.19024e-06
1.19959e-06
1.20482e-06
1.24644e-06
1.21839e-06
1.25541e-06
1.18391e-06
1.24931e-06
1.22368e-06
1.25696e-06
1.18926e-06
1.25629e-06
1.22938e-06
1.25426e-06
1.20611e-06
1.25769e-06
1.2325e-06
1.2558e-06
1.21285e-06
1.27606e-06
1.27606e-06
1.27606e-06
1.27606e-06
1.27606e-06
1.27607e-06
0.00126434
0.00127383
0.00127398
0.00126959
0.00127044
0.00110934
6.97331e-05
4.23536e-06
1.43235e-06
1.43274e-06
1.94224e-06
1.94219e-06
1.26362e-06
1.2635e-06
1.27534e-06
1.2754e-06
1.28755e-06
1.2566e-06
1.28699e-06
1.27944e-06
1.2883e-06
1.26188e-06
1.28916e-06
1.2838e-06
1.29699e-06
1.27257e-06
1.28866e-06
1.29086e-06
1.29483e-06
1.27289e-06
1.28859e-06
1.2884e-06
1.24064e-06
1.27018e-06
1.2765e-06
1.28264e-06
1.24869e-06
1.27353e-06
1.25962e-06
1.28361e-06
1.23303e-06
1.23875e-06
1.26839e-06
1.26802e-06
1.23803e-06
1.24126e-06
1.27513e-06
1.26798e-06
1.27545e-06
1.27541e-06
1.26911e-06
1.26374e-06
1.25875e-06
1.25908e-06
1.24671e-06
1.23913e-06
1.24107e-06
1.24921e-06
1.2421e-06
1.20527e-06
1.19934e-06
1.2387e-06
1.21169e-06
1.20889e-06
1.20295e-06
1.23999e-06
1.21713e-06
1.22641e-06
1.21879e-06
1.23936e-06
1.22344e-06
1.22992e-06
1.22311e-06
1.24381e-06
1.22674e-06
1.223e-06
9.2403e-07
1.2317e-06
9.40915e-07
1.27606e-06
1.27606e-06
1.27606e-06
1.27606e-06
1.27607e-06
1.27607e-06
0.0012657
0.00127496
0.00127177
0.00126784
0.00127067
0.00124707
0.000224242
1.18996e-05
1.51579e-06
1.51515e-06
2.60625e-06
2.60424e-06
1.23424e-06
1.28314e-06
1.29523e-06
1.20759e-06
1.24143e-06
1.28278e-06
1.29505e-06
1.20722e-06
1.26246e-06
1.26283e-06
1.24629e-06
1.19297e-06
1.28451e-06
1.25854e-06
1.23711e-06
1.20623e-06
1.27271e-06
1.26382e-06
1.29437e-06
1.25605e-06
1.27074e-06
1.28196e-06
1.29349e-06
1.2474e-06
1.27062e-06
1.27184e-06
1.02785e-06
8.92757e-07
1.02424e-06
9.00583e-07
1.27445e-06
1.27493e-06
1.27105e-06
1.25739e-06
1.26017e-06
1.23536e-06
1.24214e-06
1.25425e-06
1.25582e-06
1.24479e-06
1.24894e-06
1.20926e-06
1.18289e-06
1.2138e-06
1.18888e-06
1.20764e-06
1.19341e-06
1.21344e-06
1.19528e-06
1.20069e-06
1.18889e-06
1.20571e-06
1.20115e-06
1.1946e-06
1.20243e-06
1.222e-06
1.19569e-06
1.22043e-06
1.19795e-06
1.2395e-06
1.19708e-06
1.22375e-06
1.20167e-06
1.25352e-06
1.21403e-06
1.20132e-06
1.19601e-06
1.21766e-06
1.23635e-06
1.21068e-06
1.19935e-06
1.24551e-06
1.24475e-06
1.27606e-06
1.27606e-06
1.27606e-06
1.27606e-06
1.27606e-06
0.00126613
0.00127327
0.00127201
0.00127088
0.00127055
0.00125193
0.000812281
2.48535e-05
2.485e-05
0.000402317
0.000402792
1.63573e-06
1.38913e-06
2.063e-06
1.62558e-06
1.63685e-06
1.38924e-06
2.06503e-06
1.62368e-06
4.44855e-06
4.44249e-06
1.22501e-06
1.24813e-06
1.25834e-06
1.25574e-06
1.23165e-06
1.24774e-06
1.25833e-06
1.25554e-06
1.41999e-06
1.27672e-06
1.29657e-06
1.28493e-06
1.42174e-06
1.28037e-06
1.29895e-06
1.28656e-06
1.16617e-06
1.25518e-06
1.15526e-06
1.23057e-06
1.15925e-06
1.25783e-06
1.15516e-06
1.23001e-06
1.27362e-06
1.27461e-06
1.2705e-06
1.25562e-06
1.23117e-06
1.23756e-06
1.22786e-06
1.23505e-06
1.224e-06
1.22652e-06
1.1857e-06
1.22863e-06
1.22083e-06
1.15611e-06
1.19008e-06
1.22858e-06
1.21982e-06
1.16508e-06
1.20409e-06
1.24005e-06
1.22086e-06
1.24986e-06
1.21073e-06
1.24514e-06
1.22533e-06
1.25354e-06
1.17849e-06
1.18887e-06
1.11253e-06
1.22913e-06
1.18938e-06
1.21854e-06
1.12043e-06
1.23632e-06
1.12968e-06
1.13318e-06
1.12549e-06
1.13959e-06
1.27606e-06
1.27606e-06
1.27568e-06
1.27606e-06
0.00126695
0.00127284
0.00127342
0.00127437
0.00125051
0.00112331
0.00103788
0.00103741
0.00121214
0.00121213
6.52525e-05
6.53062e-05
0.0011142
0.00111532
1.93552e-06
1.41837e-06
2.68261e-06
1.89027e-06
1.937e-06
1.41454e-06
2.68344e-06
1.88663e-06
6.42384e-06
1.77753e-05
1.37775e-05
7.55453e-06
6.41605e-06
1.78302e-05
1.37437e-05
7.55028e-06
1.23765e-06
1.24879e-06
1.2706e-06
1.26985e-06
1.23262e-06
1.24804e-06
1.27089e-06
1.26706e-06
1.51491e-06
1.29349e-06
1.3418e-06
1.24021e-06
1.51581e-06
1.29246e-06
1.34298e-06
1.23575e-06
1.27218e-06
1.27362e-06
1.27376e-06
1.26348e-06
1.24507e-06
1.25617e-06
1.22864e-06
1.23155e-06
1.22315e-06
1.22809e-06
1.18107e-06
1.22074e-06
1.15717e-06
1.22364e-06
1.18743e-06
1.22257e-06
1.17299e-06
1.22584e-06
1.18386e-06
1.21268e-06
1.19442e-06
1.21291e-06
1.16626e-06
1.20475e-06
1.18843e-06
1.2118e-06
1.1989e-06
1.21348e-06
1.16944e-06
1.20884e-06
1.22114e-06
1.21968e-06
1.22855e-06
1.22698e-06
1.14936e-06
1.2317e-06
1.16783e-06
1.1059e-06
1.14504e-06
1.23838e-06
1.15838e-06
1.11962e-06
1.27606e-06
1.27052e-06
1.27568e-06
0.00126777
0.00127417
0.00127433
0.00127411
0.00120146
0.000958363
0.00121132
0.00121321
0.00122316
0.00122926
0.000227307
3.37157e-05
0.000123476
0.000967252
0.00041745
3.79957e-05
3.37858e-05
0.000227874
3.78894e-05
0.000123623
0.000974688
0.000418156
0.00118243
0.00108388
0.0011318
0.00103351
0.0011831
0.00108439
0.00113315
0.00103427
2.25831e-06
1.54541e-06
3.03791e-06
1.90616e-06
2.25783e-06
1.53961e-06
3.03475e-06
1.90003e-06
1.62862e-05
1.69091e-05
1.62529e-05
1.69144e-05
1.28915e-06
1.31134e-06
1.27758e-06
1.31098e-06
1.65153e-06
1.41568e-06
1.65002e-06
1.41236e-06
1.27121e-06
1.27054e-06
1.27608e-06
1.27438e-06
1.23878e-06
1.25365e-06
1.23428e-06
1.25128e-06
1.23545e-06
1.24608e-06
1.21946e-06
1.22676e-06
1.17803e-06
1.16955e-06
1.21214e-06
1.19011e-06
1.20381e-06
1.18066e-06
1.18237e-06
1.15674e-06
1.2228e-06
1.17406e-06
1.20992e-06
1.18134e-06
1.21573e-06
1.21906e-06
1.23126e-06
1.22647e-06
1.22346e-06
1.21129e-06
1.1932e-06
1.21677e-06
1.18119e-06
1.18978e-06
1.24468e-06
1.21493e-06
1.18332e-06
1.2171e-06
1.18197e-06
1.19375e-06
1.2467e-06
1.20562e-06
1.25265e-06
1.21273e-06
1.27145e-06
1.26981e-06
0.00127131
0.0012755
0.00127466
0.00126769
0.00116087
0.000910029
0.00104265
0.000930509
0.00092916
0.00116374
0.00116778
0.00106407
0.00113245
7.75558e-05
0.000641638
0.000262083
0.000106146
0.00112881
0.000831037
7.77398e-05
0.000645423
0.000106279
0.000262421
0.00112807
0.000830429
0.00112852
0.00109192
0.00114934
0.00108283
0.00112828
0.00108877
0.00114784
0.00107335
4.81926e-06
3.10857e-06
4.81348e-06
3.10115e-06
1.27236e-06
1.26876e-06
1.27451e-06
1.27566e-06
1.26403e-06
1.24032e-06
1.25261e-06
1.24735e-06
1.25196e-06
1.14188e-06
1.21498e-06
1.1736e-06
1.22403e-06
1.17817e-06
1.21946e-06
1.21053e-06
1.22918e-06
1.21598e-06
1.18755e-06
1.18288e-06
1.18184e-06
1.21385e-06
1.1833e-06
1.20775e-06
1.1766e-06
1.18155e-06
1.19325e-06
1.21651e-06
1.1981e-06
1.12758e-06
1.2098e-06
1.1669e-06
1.20673e-06
1.14641e-06
1.21658e-06
1.19285e-06
1.22641e-06
1.21478e-06
1.21244e-06
1.24114e-06
1.21516e-06
1.11558e-06
1.22588e-06
1.05891e-06
1.22696e-06
1.26373e-06
1.2316e-06
1.0639e-06
1.22161e-06
1.267e-06
0.00127467
0.00127518
0.00127249
0.00125716
0.00116949
0.000871369
0.000985854
0.000908529
0.000910996
0.000938162
0.000998839
0.000997855
0.000992011
0.000921508
0.00101934
0.00098679
0.000966705
0.00102255
0.00113484
0.00110171
0.00111859
0.00114644
0.00106146
0.00114474
0.00109354
0.00113335
0.000985137
1.27095e-06
1.2693e-06
1.27323e-06
1.2756e-06
1.26676e-06
1.24114e-06
1.25459e-06
1.22381e-06
1.24626e-06
1.22998e-06
1.24069e-06
1.22707e-06
1.23565e-06
1.15149e-06
1.17388e-06
1.18687e-06
1.1581e-06
1.16182e-06
1.18727e-06
1.23419e-06
1.17425e-06
1.20648e-06
1.16817e-06
1.18654e-06
1.08768e-06
1.18072e-06
1.13975e-06
1.1318e-06
1.19834e-06
1.12097e-06
1.20814e-06
1.22389e-06
1.15702e-06
1.16843e-06
1.20849e-06
1.18222e-06
1.16412e-06
0.00127503
0.00127509
0.00127019
0.00125883
0.00101285
0.000999708
0.00117761
0.00117063
0.0010015
0.00106243
0.000916809
0.000959423
0.00082045
0.000793432
0.000639987
0.000870363
0.000748405
0.000762264
0.000608251
0.000762677
0.000894929
0.00086589
0.000576777
0.000563426
0.00085846
0.000868112
0.000444686
0.00053609
0.000825946
0.000546943
0.000788066
0.000480349
1.27605e-06
1.27122e-06
1.27476e-06
1.27583e-06
1.26238e-06
1.23144e-06
1.23626e-06
1.2313e-06
1.22898e-06
1.222e-06
1.23335e-06
1.20669e-06
1.15225e-06
1.17273e-06
1.13459e-06
1.21117e-06
1.16745e-06
1.17537e-06
1.17698e-06
1.1789e-06
1.11638e-06
1.16536e-06
1.01011e-06
1.18922e-06
1.13601e-06
1.19336e-06
1.03805e-06
0.00127445
0.00127415
0.00126966
0.00123211
0.000938166
0.000997292
0.00108942
0.00111956
0.000688485
0.00070166
0.000932776
0.000937563
0.000889335
0.00100348
0.000572823
0.00067103
0.000940192
0.000906154
0.000863246
0.00106938
0.000922194
0.00100993
0.000267302
0.000293282
0.000185942
0.000294685
0.000258982
0.000266644
0.000175654
0.000230084
0.00028853
0.00036983
0.000225557
0.000346687
1.27606e-06
1.27524e-06
1.27526e-06
1.2686e-06
1.25858e-06
1.25202e-06
1.25463e-06
1.25118e-06
1.25379e-06
1.24662e-06
1.24465e-06
1.23058e-06
1.1339e-06
1.19857e-06
1.15763e-06
1.12915e-06
1.11415e-06
1.122e-06
1.12606e-06
1.20676e-06
1.13748e-06
1.13399e-06
1.15106e-06
1.1328e-06
1.16616e-06
1.09713e-06
1.18985e-06
1.11031e-06
1.16255e-06
9.48492e-07
1.19464e-06
9.65325e-07
0.00127329
0.00127458
0.00126611
0.00114678
0.00119868
0.00119028
0.00120728
0.000971983
0.0010549
0.00105852
0.00113586
0.000528541
0.000699593
0.00100089
0.000904259
0.000898659
0.00106393
0.000442323
0.000652587
0.00100538
0.000870918
0.000903558
0.00106788
0.000885465
0.000824626
0.000972408
0.000928311
0.000982555
0.000869005
0.00104683
0.000958598
1.27607e-06
1.27552e-06
1.2735e-06
1.26209e-06
1.2454e-06
1.23381e-06
1.23946e-06
1.2323e-06
1.2338e-06
1.23547e-06
1.11663e-06
1.12067e-06
1.20038e-06
1.11534e-06
1.12271e-06
1.16197e-06
1.20369e-06
1.12177e-06
1.12748e-06
1.16834e-06
1.1258e-06
1.12585e-06
1.15089e-06
1.12718e-06
1.08273e-06
1.07689e-06
1.16452e-06
1.14379e-06
1.08415e-06
1.07966e-06
1.11961e-06
9.69524e-07
1.08861e-06
9.70276e-07
0.00127329
0.00127391
0.00126037
0.00118674
0.00122854
0.00120048
0.00122488
0.000957813
0.000954126
0.00100965
0.00108833
0.00104257
0.00108253
0.00105152
0.000952507
0.00103232
0.00114465
0.00105693
0.00113854
0.00120221
0.0012234
0.000996567
0.00106905
0.0009929
0.00111544
0.0010101
0.00103081
0.00103964
0.00107349
1.27607e-06
1.27549e-06
1.27481e-06
1.25171e-06
1.25513e-06
1.25455e-06
1.25294e-06
1.24269e-06
1.24593e-06
1.23118e-06
1.23614e-06
1.13275e-06
1.20123e-06
1.13279e-06
1.13868e-06
1.12405e-06
1.13268e-06
1.14358e-06
1.12861e-06
1.13682e-06
1.20639e-06
1.14131e-06
1.14227e-06
1.1077e-06
1.05801e-06
1.1182e-06
1.08597e-06
1.13668e-06
1.12129e-06
1.09393e-06
1.06708e-06
0.00127258
0.00127405
0.00126842
0.00117745
0.00121965
0.00121908
0.00122408
0.00114416
0.00106447
0.00109458
0.0011144
0.00112438
0.00114124
0.00117204
0.00106417
0.00109472
0.00112271
0.00113197
0.0011425
0.00115449
0.00112079
0.00116176
0.00112834
0.0011539
0.00112528
0.00116037
0.00113286
0.00108169
0.00101155
0.00109125
0.00102125
1.27607e-06
1.27608e-06
1.27052e-06
1.24237e-06
1.24974e-06
1.24973e-06
1.25288e-06
1.23361e-06
1.23861e-06
1.15556e-06
1.15352e-06
1.20115e-06
1.12846e-06
1.13751e-06
1.14055e-06
1.16213e-06
1.15994e-06
1.20573e-06
1.14421e-06
1.14506e-06
1.15043e-06
1.12369e-06
1.13366e-06
1.08973e-06
1.08229e-06
1.13963e-06
1.08999e-06
1.14206e-06
1.09637e-06
0.00127213
0.00127319
0.00126883
0.00124659
0.00123958
0.0012689
0.00126581
0.0012662
0.00121609
0.00119088
0.00103142
0.0012109
0.00119314
0.00113372
0.00109678
0.00104969
0.00113065
0.00111739
0.00108776
0.00115745
0.001126
0.00107682
0.0011325
0.0011413
0.00109802
0.0011627
0.00117371
0.00106492
0.00117994
0.00116973
1.27607e-06
1.27609e-06
1.26298e-06
1.24377e-06
1.25156e-06
1.24157e-06
1.24753e-06
1.13094e-06
1.20749e-06
1.14991e-06
1.17472e-06
1.19039e-06
1.20753e-06
1.14723e-06
1.19519e-06
1.20853e-06
1.20939e-06
1.16809e-06
1.18557e-06
1.14809e-06
1.07789e-06
1.17034e-06
1.11675e-06
1.16258e-06
1.08528e-06
1.19983e-06
1.13595e-06
1.0326e-06
9.39321e-07
1.06411e-06
9.4782e-07
0.00127035
0.00127368
0.00125621
0.00126263
0.00125846
0.0012635
0.001264
0.00126339
0.00116521
0.00118189
0.00107345
0.00120074
0.0010609
0.00116593
0.00118506
0.00115708
0.00118056
0.00113457
0.00109917
0.0011922
0.00113732
0.00110973
0.00116007
0.00112666
0.00104175
0.00112659
0.00114283
0.00115653
0.00115433
0.000983417
0.00117824
0.00113033
1.27608e-06
1.27507e-06
1.24777e-06
1.23056e-06
1.23659e-06
1.25282e-06
1.23873e-06
1.24274e-06
1.22369e-06
1.17412e-06
1.21614e-06
1.22877e-06
1.1875e-06
1.2163e-06
1.17431e-06
1.19667e-06
1.11619e-06
1.15937e-06
1.20269e-06
1.13064e-06
1.21078e-06
1.16814e-06
1.07611e-06
9.97849e-07
1.12824e-06
9.88788e-07
1.11859e-06
9.97497e-07
1.17803e-06
1.00972e-06
0.00126887
0.00126846
0.00124074
0.00117257
0.00121838
0.00125474
0.00123699
0.00114461
0.00120998
0.00125562
0.00125743
0.00125684
0.00115602
0.00115722
0.00108757
0.000910908
0.00113838
0.00115211
0.00112877
0.00113117
0.00110511
0.00103325
0.00107239
0.00106468
0.000911975
0.00104444
0.00105625
0.00109334
1.27503e-06
1.27039e-06
1.24347e-06
1.23629e-06
1.24067e-06
1.25965e-06
1.24069e-06
1.2437e-06
1.1451e-06
1.14813e-06
1.13568e-06
1.16396e-06
1.1956e-06
1.14497e-06
1.13494e-06
1.20628e-06
1.15937e-06
1.15762e-06
1.1439e-06
1.17605e-06
1.20241e-06
1.15476e-06
1.15229e-06
1.20734e-06
1.12945e-06
1.18449e-06
1.08875e-06
1.13166e-06
1.16088e-06
1.10013e-06
1.19593e-06
1.13762e-06
0.00126004
0.0012363
0.00124172
0.00124232
0.00123534
0.00124264
0.00124318
0.00118519
0.00117483
0.00116954
0.00111642
0.00120121
0.0011424
0.00115479
0.00113108
0.00123504
0.00118752
0.00115541
0.00118007
0.00114048
0.00111509
0.00107252
0.00118352
0.00114017
0.00113826
0.00112389
0.00123515
0.00118488
0.00115269
0.00108217
0.00115479
0.00106263
0.00116486
0.00102278
0.00106948
0.000971893
0.00107053
1.26887e-06
1.26713e-06
1.23551e-06
1.21479e-06
1.20072e-06
1.17556e-06
1.21895e-06
1.19952e-06
1.1831e-06
1.25431e-06
1.23028e-06
1.24452e-06
1.14906e-06
1.19356e-06
1.06881e-06
1.07199e-06
1.02618e-06
1.14856e-06
1.16933e-06
1.18603e-06
1.09811e-06
1.03911e-06
1.08173e-06
1.13933e-06
1.08408e-06
1.02399e-06
1.11887e-06
1.03311e-06
0.00124062
0.00123227
0.00121995
0.00123464
0.00121968
0.00122072
0.00122035
0.00110776
0.00117352
0.00110202
0.00105144
0.00116318
0.00112879
0.00113957
0.00118046
0.00114452
0.00117467
0.001165
0.00113157
0.00116691
0.00112057
0.00100052
0.00111462
0.000986651
0.00107468
0.00113699
0.00111122
0.00116819
0.0011357
0.00113814
0.00116613