/*--------------------------------*- C++ -*----------------------------------*\
| =========                 |                                                 |
| \\      /  F ield         | OpenFOAM: The Open Source CFD Toolbox           |
|  \\    /   O peration     | Version:  5.x                                   |
|   \\  /    A nd           | Web:      www.OpenFOAM.org                      |
|    \\/     M anipulation  |                                                 |
\*---------------------------------------------------------------------------*/
FoamFile
{
    version     2.0;
    format      ascii;
    class       volVectorField;
    location    "1.2";
    object      U;
}
// * * * * * * * * * * * * * * * * * * * * * * * * * * * * * * * * * * * * * //

dimensions      [0 1 -1 0 0 0 0];

internalField   nonuniform List<vector> 
12160
(
(0.209553 0 0.00149298)
(0.212174 0 0.00332872)
(0.209453 0 -0.00198981)
(0.207014 0 0.00432088)
(0.21165 0 -0.00241457)
(0.208596 0 0.00135975)
(0.202747 0 0.00411996)
(0.206288 0 -0.000895697)
(0.210883 0 0.00483097)
(0.207714 0 -0.0014352)
(0.197539 0 0.00297565)
(0.201958 0 0.000214584)
(0.205872 0 0.00819819)
(0.20804 0 -0.00208363)
(0.205652 0 0.00380911)
(0.197594 0 0.00178614)
(0.196606 0 -0.000975631)
(0.201644 0 0.00898676)
(0.20242 0 0.00205698)
(0.206095 0 0.00696878)
(0.202959 0 0.00242669)
(0.199412 0 0.000638627)
(0.196696 0 -0.00224512)
(0.196063 0 0.00541964)
(0.198034 0 0.00441766)
(0.201467 0 0.0126807)
(0.198509 0 -0.00297241)
(0.199982 0 0.0139618)
(0.203567 0 0.00018346)
(0.198892 0 -0.00371242)
(0.196306 0 0.00132416)
(0.192591 0 0.00107236)
(0.197222 0 0.0142708)
(0.193799 0 0.00511045)
(0.196067 0 0.0092934)
(0.194569 0 0.0123462)
(0.207106 0 0.000241316)
(0.20357 0 -0.00390327)
(0.198732 0 -0.00238193)
(0.193021 0 -0.00342454)
(0.19146 0 0.00825622)
(0.190045 0 0.00862962)
(0.194067 0 0.0170348)
(0.174228 0 -0.00519338)
(0.123261 0 0.0390395)
(0.208624 0 0.000761502)
(0.207493 0 -0.00304641)
(0.203971 0 -0.00354445)
(0.196673 0 -0.00786787)
(0.192503 0 0.000419008)
(0.184612 0 0.00312215)
(0.189498 0 0.0189869)
(0.175781 0 0.00827305)
(0.126664 0 0.0144538)
(-0.311759 0 -0.0956569)
(0.206717 0 0.00122883)
(0.209172 0 -0.000918968)
(0.208583 0 -0.00246041)
(0.20352 0 -0.00915584)
(0.196105 0 -0.00639167)
(0.186917 0 -0.00579261)
(0.182275 0 0.0103802)
(0.177873 0 0.0145408)
(0.157378 0 0.0175039)
(-0.116966 0 -0.023355)
(-0.169181 0 0.184652)
(0.200389 0 0.00213627)
(0.207328 0 0.00227157)
(0.211167 0 0.000857887)
(0.20941 0 -0.00726942)
(0.204133 0 -0.00877123)
(0.192378 0 -0.0142231)
(0.183777 0 -0.00136657)
(0.174786 0 0.0066561)
(0.186489 0 0.0178546)
(-0.0632756 0 -0.0168275)
(0.0848944 0 -0.0782463)
(0.0297093 0 -0.0315935)
(0.190174 0 0.00303671)
(0.201265 0 0.00550516)
(0.209648 0 0.00533064)
(0.212722 0 -0.00221613)
(0.211676 0 -0.0064867)
(0.2032 0 -0.0176016)
(0.189674 0 -0.0121708)
(0.179797 0 -0.00910576)
(0.194343 0 0.0087218)
(0.0452104 0 0.00143054)
(-0.0887146 0 -0.0479764)
(0.0705104 0 -0.0494812)
(0.0079495 0 0.10545)
(0.176651 0 0.00379754)
(0.191035 0 0.00841268)
(0.203305 0 0.0104559)
(0.211742 0 0.00491461)
(0.216795 0 0.000182368)
(0.213424 0 -0.0146406)
(0.202978 0 -0.017098)
(0.18763 0 -0.0246323)
(0.212473 0 -0.00744332)
(0.10269 0 -0.00232092)
(-0.0444758 0 -0.0490526)
(0.0179094 0 0.0217792)
(-0.0220578 0 -0.0697693)
(0.0756274 0 0.00559959)
(0.16068 0 0.00436249)
(0.177359 0 0.0108092)
(0.192792 0 0.0152153)
(0.205936 0 0.0124811)
(0.216534 0 0.00949429)
(0.220119 0 -0.00579013)
(0.21621 0 -0.0136602)
(0.203988 0 -0.0320916)
(0.231554 0 -0.0227798)
(0.184922 0 -0.0244361)
(-0.00999135 0 -0.0453312)
(0.0483881 0 -0.0358203)
(-0.000762212 0 -0.0312916)
(0.0377943 0 -0.043047)
(-0.0202867 0 0.0362643)
(0.143163 0 0.00472535)
(0.161195 0 0.0125797)
(0.178747 0 0.0191255)
(0.195225 0 0.0194311)
(0.210257 0 0.0196418)
(0.220914 0 0.00656532)
(0.225804 0 -0.00256021)
(0.220203 0 -0.0279221)
(0.256715 0 -0.0291669)
(0.269069 0 -0.0448041)
(0.0635976 0 -0.0710186)
(0.0585097 0 -0.0563955)
(0.0234329 0 -0.0554381)
(0.00891401 0 -0.0024317)
(-0.0283071 0 -0.0485558)
(0.124882 0 0.00491291)
(0.14349 0 0.0137324)
(0.162178 0 0.0219726)
(0.180682 0 0.0251156)
(0.198947 0 0.0289085)
(0.215223 0 0.0194064)
(0.227615 0 0.0126059)
(0.231461 0 -0.0131449)
(0.278126 0 -0.0234579)
(0.358213 0 -0.0542171)
(0.152944 0 -0.0962479)
(0.0828818 0 -0.0943557)
(0.0200772 0 -0.0560797)
(0.0105351 0 -0.0498984)
(-0.00117004 0 -0.0165534)
(0.106435 0 0.00496584)
(0.125051 0 0.0143602)
(0.144093 0 0.0237747)
(0.16352 0 0.0292449)
(0.183604 0 0.0363569)
(0.203326 0 0.0310248)
(0.221267 0 0.0287125)
(0.234596 0 0.00711143)
(0.292263 0 -0.00664374)
(0.43548 0 -0.0464156)
(0.270909 0 -0.107566)
(0.0881545 0 -0.128769)
(0.0289785 0 -0.0844357)
(0.00853928 0 -0.0627265)
(0.00427638 0 -0.0518617)
(0.0882291 0 0.00492863)
(0.106487 0 0.0145931)
(0.125339 0 0.0246937)
(0.144871 0 0.0318658)
(0.165573 0 0.0416305)
(0.186914 0 0.0402132)
(0.208489 0 0.0435754)
(0.229056 0 0.0288903)
(0.297476 0 0.017289)
(0.486328 0 -0.0234884)
(0.397269 0 -0.0887037)
(0.0933732 0 -0.153142)
(0.0228874 0 -0.10696)
(0.0128 0 -0.0939338)
(0.00459223 0 -0.0609281)
(0.0704964 0 0.00484453)
(0.0882058 0 0.0145674)
(0.106545 0 0.0249533)
(0.125655 0 0.0332258)
(0.146126 0 0.0448343)
(0.167697 0 0.0465711)
(0.190823 0 0.0555027)
(0.215536 0 0.0475197)
(0.293055 0 0.0416141)
(0.505085 0 0.00573018)
(0.498336 0 -0.0425451)
(0.0987641 0 -0.147987)
(0.00975626 0 -0.118848)
(0.0063198 0 -0.115771)
(0.00480228 0 -0.0894357)
(0.0533253 0 0.00475384)
(0.070435 0 0.0144028)
(0.0881193 0 0.0247858)
(0.106529 0 0.0336531)
(0.126264 0 0.0463385)
(0.147177 0 0.0502921)
(0.170253 0 0.0636379)
(0.196262 0 0.0605638)
(0.280649 0 0.061872)
(0.504754 0 0.0362918)
(0.554635 0 0.00382718)
(0.112745 0 -0.100553)
(-0.0130237 0 -0.105213)
(-0.00362768 0 -0.127427)
(0.00245959 0 -0.108889)
(0.0367013 0 0.00468606)
(0.0532564 0 0.0141944)
(0.0702812 0 0.0243986)
(0.0879025 0 0.0334798)
(0.106674 0 0.0466098)
(0.126475 0 0.0518977)
(0.148515 0 0.0683116)
(0.173822 0 0.0682524)
(0.263213 0 0.0755763)
(0.49254 0 0.0625624)
(0.565871 0 0.0390465)
(0.129674 0 -0.0260364)
(-0.0328831 0 -0.0657168)
(-0.0191488 0 -0.114221)
(-0.00140377 0 -0.118396)
(0.0205368 0 0.00465174)
(0.0366495 0 0.0140124)
(0.0530996 0 0.0239617)
(0.0699786 0 0.0329958)
(0.0877592 0 0.0461092)
(0.10631 0 0.0520179)
(0.12687 0 0.0703665)
(0.15051 0 0.0716183)
(0.243599 0 0.0839806)
(0.473158 0 0.0808976)
(0.539107 0 0.0706562)
(0.132378 0 0.0446095)
(-0.0415265 0 -0.0107478)
(-0.031034 0 -0.0735633)
(-0.0068553 0 -0.104347)
(0.00471734 0 0.0046557)
(0.0205201 0 0.0139118)
(0.0365373 0 0.0236006)
(0.0528056 0 0.0324339)
(0.0697004 0 0.0452324)
(0.0870734 0 0.051243)
(0.106074 0 0.0705825)
(0.127685 0 0.0719025)
(0.223206 0 0.0883761)
(0.450585 0 0.0915379)
(0.483218 0 0.0947146)
(0.114409 0 0.105804)
(-0.0376592 0 0.0470136)
(-0.0360488 0 -0.0167845)
(-0.0113331 0 -0.0667782)
(-0.0109127 0 0.0047005)
(0.00474567 0 0.0139237)
(0.0204837 0 0.023399)
(0.0363243 0 0.0319645)
(0.0525161 0 0.0442943)
(0.0689104 0 0.0500556)
(0.0864903 0 0.0696794)
(0.106029 0 0.0702443)
(0.202608 0 0.0896794)
(0.424805 0 0.0969297)
(0.412951 0 0.111696)
(0.0879999 0 0.141746)
(-0.0272204 0 0.0978905)
(-0.0336795 0 0.0435607)
(-0.0136265 0 -0.0138838)
(-0.0264884 0 0.00478325)
(-0.0108368 0 0.014058)
(0.00480289 0 0.0234028)
(0.0204021 0 0.031704)
(0.036116 0 0.0435261)
(0.0517964 0 0.0488328)
(0.068212 0 0.0682506)
(0.0859015 0 0.0675734)
(0.181766 0 0.0888647)
(0.393773 0 0.0991344)
(0.332993 0 0.125248)
(0.0605357 0 0.159253)
(-0.0156461 0 0.130739)
(-0.0256655 0 0.0929145)
(-0.0125562 0 0.0412199)
(-0.0421027 0 0.00489657)
(-0.0263701 0 0.0143063)
(-0.010682 0 0.023628)
(0.00488085 0 0.0317179)
(0.0203381 0 0.0430842)
(0.0355982 0 0.0478437)
(0.051159 0 0.0667577)
(0.0673798 0 0.0646275)
(0.160111 0 0.0868276)
(0.354805 0 0.099711)
(0.251361 0 0.135855)
(0.0410173 0 0.164647)
(-0.00584654 0 0.148134)
(-0.0150827 0 0.125546)
(-0.00884734 0 0.0887087)
(-0.0578347 0 0.00503424)
(-0.0419542 0 0.0146454)
(-0.0261281 0 0.0240601)
(-0.0104386 0 0.0320297)
(0.00499662 0 0.0430565)
(0.0201123 0 0.0472659)
(0.0351458 0 0.0655396)
(0.0503398 0 0.0619378)
(0.136636 0 0.0843128)
(0.305659 0 0.0999123)
(0.18103 0 0.14433)
(0.0320631 0 0.160346)
(0.00115412 0 0.155746)
(-0.00628285 0 0.144007)
(-0.00473726 0 0.121578)
(-0.0737091 0 0.00518869)
(-0.0576746 0 0.0150357)
(-0.0416465 0 0.0246593)
(-0.025735 0 0.0326185)
(-0.0101357 0 0.0434777)
(0.00511578 0 0.0471977)
(0.0199255 0 0.0648275)
(0.0345429 0 0.0598522)
(0.110478 0 0.0818823)
(0.249806 0 0.100578)
(0.127271 0 0.149608)
(0.0262325 0 0.152868)
(0.00536064 0 0.156917)
(-0.000225105 0 0.152261)
(-0.00146011 0 0.140983)
(-0.0896982 0 0.0053337)
(-0.0735602 0 0.0154249)
(-0.0573318 0 0.0253662)
(-0.0411386 0 0.0334304)
(-0.0252647 0 0.0443184)
(-0.00965845 0 0.0476807)
(0.00524214 0 0.0647525)
(0.0196828 0 0.0585829)
(0.0811778 0 0.0799408)
(0.191442 0 0.102106)
(0.0880926 0 0.149627)
(0.0212071 0 0.145957)
(0.00744986 0 0.153999)
(0.00326501 0 0.154215)
(0.000647524 0 0.150265)
(-0.105719 0 0.00544153)
(-0.0895849 0 0.0157647)
(-0.0732243 0 0.0261028)
(-0.0567601 0 0.0343822)
(-0.040543 0 0.045499)
(-0.0244598 0 0.0486761)
(-0.00920889 0 0.0653943)
(0.00545872 0 0.0582341)
(0.0488986 0 0.0787615)
(0.133208 0 0.104387)
(0.0592966 0 0.146971)
(0.0166085 0 0.140214)
(0.00796297 0 0.149265)
(0.00493084 0 0.152651)
(0.00178357 0 0.153005)
(-0.121633 0 0.00548928)
(-0.105668 0 0.0159997)
(-0.0893081 0 0.0267748)
(-0.0726526 0 0.0353655)
(-0.0561022 0 0.0469057)
(-0.0394735 0 0.0500979)
(-0.0237099 0 0.0666933)
(-0.00850434 0 0.0588876)
(0.0147564 0 0.0784814)
(0.0764918 0 0.106796)
(0.0374082 0 0.144442)
(0.0122465 0 0.136051)
(0.00721104 0 0.144201)
(0.00532793 0 0.149197)
(0.00224821 0 0.151909)
(-0.137247 0 0.0054568)
(-0.121673 0 0.0160682)
(-0.105508 0 0.0272781)
(-0.0888114 0 0.0362542)
(-0.0720145 0 0.0483912)
(-0.0548583 0 0.0518172)
(-0.0384711 0 0.0685176)
(-0.0225832 0 0.0604626)
(-0.0196819 0 0.0792864)
(0.0214663 0 0.108349)
(0.020492 0 0.143175)
(0.00779822 0 0.133367)
(0.00553982 0 0.139744)
(0.00487453 0 0.145277)
(0.0022579 0 0.14884)
(-0.152327 0 0.00532781)
(-0.137408 0 0.01591)
(-0.121691 0 0.0275059)
(-0.105172 0 0.0369078)
(-0.0882918 0 0.0497824)
(-0.0707127 0 0.0536645)
(-0.0536815 0 0.0706981)
(-0.0370355 0 0.0628444)
(-0.0526346 0 0.081048)
(-0.0333143 0 0.109059)
(0.00253345 0 0.14311)
(0.00367959 0 0.132342)
(0.00334309 0 0.136575)
(0.0039294 0 0.141734)
(0.00197862 0 0.145193)
(-0.166606 0 0.00508913)
(-0.152636 0 0.0154723)
(-0.137664 0 0.0273559)
(-0.121607 0 0.0371792)
(-0.104883 0 0.0508882)
(-0.0870715 0 0.0554367)
(-0.06947 0 0.073015)
(-0.0520841 0 0.065873)
(-0.0827162 0 0.0835797)
(-0.0870041 0 0.108862)
(-0.00912179 0 0.144276)
(-0.000419493 0 0.132286)
(0.00117209 0 0.135052)
(0.00256085 0 0.13908)
(0.00152594 0 0.141824)
(-0.179803 0 0.00473349)
(-0.167086 0 0.0147113)
(-0.153187 0 0.0267354)
(-0.137928 0 0.0369242)
(-0.121672 0 0.0515086)
(-0.103903 0 0.0569043)
(-0.0859023 0 0.075216)
(-0.0678927 0 0.0693259)
(-0.109478 0 0.0866767)
(-0.14055 0 0.108056)
(-0.0276343 0 0.146387)
(-0.00472256 0 0.13366)
(-0.000914173 0 0.134777)
(0.000977347 0 0.137803)
(0.000956727 0 0.139307)
(-0.191637 0 0.00426141)
(-0.180466 0 0.0136006)
(-0.167978 0 0.0255687)
(-0.153885 0 0.0360086)
(-0.13847 0 0.0514428)
(-0.121106 0 0.0578241)
(-0.102974 0 0.0770256)
(-0.0845476 0 0.0729256)
(-0.133122 0 0.090067)
(-0.193445 0 0.107461)
(-0.0448334 0 0.149412)
(-0.0088282 0 0.135932)
(-0.00308099 0 0.135988)
(-0.000568145 0 0.137791)
(0.000367437 0 0.13805)
(-0.201855 0 0.00368619)
(-0.19248 0 0.0121346)
(-0.181728 0 0.0238078)
(-0.169181 0 0.0343211)
(-0.155025 0 0.0505019)
(-0.1385 0 0.0579438)
(-0.120614 0 0.0781517)
(-0.102057 0 0.0763377)
(-0.154205 0 0.0934408)
(-0.24461 0 0.107491)
(-0.0665926 0 0.153394)
(-0.0130098 0 0.1389)
(-0.00501871 0 0.138429)
(-0.00211265 0 0.13904)
(-0.000232498 0 0.137996)
(-0.210185 0 0.00303913)
(-0.202845 0 0.0103371)
(-0.194117 0 0.0214386)
(-0.183481 0 0.0317865)
(-0.171021 0 0.0485245)
(-0.155825 0 0.0570117)
(-0.138655 0 0.0782809)
(-0.120338 0 0.0791798)
(-0.173452 0 0.0964615)
(-0.292441 0 0.108187)
(-0.0939792 0 0.157236)
(-0.0175423 0 0.143429)
(-0.00717467 0 0.141938)
(-0.00361589 0 0.141377)
(-0.000810109 0 0.139219)
(-0.216876 0 0.00219013)
(-0.211305 0 0.00826473)
(-0.20484 0 0.0184901)
(-0.196433 0 0.0283771)
(-0.186093 0 0.0453964)
(-0.172744 0 0.0548034)
(-0.156834 0 0.0771286)
(-0.139213 0 0.0810535)
(-0.191586 0 0.098756)
(-0.334542 0 0.109274)
(-0.129099 0 0.15883)
(-0.0220165 0 0.149319)
(-0.00938815 0 0.146834)
(-0.00515013 0 0.144774)
(-0.00134808 0 0.141575)
(-0.217724 0 0.00578011)
(-0.222017 0 0.000818334)
(-0.21366 0 0.0150288)
(-0.207691 0 0.0241266)
(-0.199845 0 0.0410644)
(-0.188855 0 0.0511544)
(-0.174789 0 0.0744174)
(-0.158421 0 0.0815211)
(-0.209078 0 0.0999453)
(-0.368863 0 0.110307)
(-0.173984 0 0.156332)
(-0.0266744 0 0.156503)
(-0.0112329 0 0.152752)
(-0.00653875 0 0.149286)
(-0.00191194 0 0.144984)
(-0.220341 0 0.0110839)
(-0.223324 0 0.00119967)
(-0.219993 0 -0.00124254)
(-0.216988 0 0.0191288)
(-0.211878 0 0.0355652)
(-0.203699 0 0.0459692)
(-0.192071 0 0.0698777)
(-0.177641 0 0.0801381)
(-0.226225 0 0.0996737)
(-0.396832 0 0.110766)
(-0.229472 0 0.15095)
(-0.0317292 0 0.16453)
(-0.0123987 0 0.159184)
(-0.00760142 0 0.154484)
(-0.00247844 0 0.149423)
(-0.224017 0 0.0135004)
(-0.226426 0 0.00390739)
(-0.221724 0 -0.00579927)
(-0.20548 0 -0.00392117)
(-0.221882 0 0.0290381)
(-0.216781 0 0.0392672)
(-0.208153 0 0.0633157)
(-0.19644 0 0.0764666)
(-0.243095 0 0.0976082)
(-0.420245 0 0.110057)
(-0.293035 0 0.144659)
(-0.0374146 0 0.172981)
(-0.0127241 0 0.165514)
(-0.00828649 0 0.159981)
(-0.00297534 0 0.154529)
(-0.229572 0 0.0217066)
(-0.230473 0 0.00332253)
(-0.225392 0 -0.00721985)
(-0.20816 0 -0.0130777)
(-0.182075 0 -0.00735987)
(-0.227666 0 0.0312175)
(-0.222439 0 0.0547436)
(-0.214188 0 0.0701744)
(-0.259535 0 0.0934705)
(-0.440659 0 0.107597)
(-0.357783 0 0.137711)
(-0.0444681 0 0.180865)
(-0.012143 0 0.17105)
(-0.00844069 0 0.165276)
(-0.00335673 0 0.159863)
(-0.235938 0 0.0221769)
(-0.237064 0 0.00860988)
(-0.230301 0 -0.0128751)
(-0.211667 0 -0.018773)
(-0.186543 0 -0.0215887)
(-0.132606 0 -0.0121193)
(-0.234351 0 0.0445249)
(-0.230019 0 0.0610729)
(-0.275182 0 0.0870112)
(-0.45912 0 0.10273)
(-0.419263 0 0.130051)
(-0.0574464 0 0.184981)
(-0.0105903 0 0.174872)
(-0.00791252 0 0.169699)
(-0.00356031 0 0.164872)
(-0.243326 0 0.0333159)
(-0.244035 0 0.00632621)
(-0.237443 0 -0.0118308)
(-0.21765 0 -0.0289108)
(-0.189931 0 -0.0310821)
(-0.146332 0 -0.0323141)
(-0.100695 0 -0.0286387)
(-0.243029 0 0.0489653)
(-0.289679 0 0.0778637)
(-0.476287 0 0.094677)
(-0.475378 0 0.12162)
(-0.0775817 0 0.183584)
(-0.00772671 0 0.176403)
(-0.00649573 0 0.172579)
(-0.00351997 0 0.168927)
(-0.252283 0 0.034454)
(-0.253021 0 0.014556)
(-0.24528 0 -0.01983)
(-0.22451 0 -0.031641)
(-0.197378 0 -0.0445665)
(-0.15534 0 -0.0456565)
(-0.125177 0 -0.0669306)
(0.0571148 0 -0.0271902)
(-0.302006 0 0.0651369)
(-0.493192 0 0.0826419)
(-0.527691 0 0.111053)
(-0.102957 0 0.176406)
(-0.00335483 0 0.174871)
(-0.00381414 0 0.173189)
(-0.00314296 0 0.17129)
(-0.309835 0 0.0491062)
(-0.262221 0 0.0112396)
(-0.255223 0 -0.0154747)
(-0.232391 0 -0.0442982)
(-0.204297 0 -0.0491005)
(-0.170958 0 -0.0614846)
(-0.141073 0 -0.0870341)
(-0.0132503 0 -0.0824871)
(0.103568 0 -0.0905165)
(-0.508208 0 0.0656032)
(-0.573778 0 0.0961078)
(-0.129156 0 0.163463)
(0.00272782 0 0.169096)
(0.000484123 0 0.170321)
(-0.00228707 0 0.171089)
(-0.513109 0 0.0433569)
(-0.317475 0 0.0265213)
(-0.265814 0 -0.027643)
(-0.241078 0 -0.0437257)
(-0.211577 0 -0.0642605)
(-0.18157 0 -0.06586)
(-0.163101 0 -0.0980193)
(-0.0782055 0 -0.105768)
(0.0132452 0 -0.153088)
(0.426618 0 -0.0315493)
(-0.608444 0 0.0737449)
(-0.152921 0 0.141726)
(0.010394 0 0.157497)
(0.00676578 0 0.162604)
(-0.000815368 0 0.167112)
(-0.618978 0 0.0426365)
(-0.508057 0 0.0169043)
(-0.319466 0 -0.0151346)
(-0.252633 0 -0.0636159)
(-0.218616 0 -0.0652392)
(-0.189843 0 -0.0807878)
(-0.170689 0 -0.0932103)
(-0.142508 0 -0.121223)
(-0.0895699 0 -0.190567)
(0.178744 0 -0.0928283)
(0.292577 0 0.0929348)
(-0.173069 0 0.101733)
(0.0206795 0 0.137108)
(0.014579 0 0.148387)
(0.00150284 0 0.158168)
(-0.192924 0 0.042815)
(-0.607055 0 0.0149901)
(-0.493654 0 -0.0336783)
(-0.306062 0 -0.0510899)
(-0.229974 0 -0.0893536)
(-0.195682 0 -0.0814214)
(-0.177453 0 -0.0990858)
(-0.169392 0 -0.10843)
(-0.171112 0 -0.182366)
(-0.0123298 0 -0.0871846)
(0.117718 0 0.135248)
(0.134669 0 0.926086)
(0.0303892 0 0.10575)
(0.0242918 0 0.126239)
(0.0045641 0 0.142684)
(0.0340727 0 0.0635932)
(-0.184356 0 -0.00604925)
(-0.554585 0 -0.0469054)
(-0.437373 0 -0.0826889)
(-0.279455 0 -0.0764721)
(-0.207613 0 -0.10418)
(-0.18094 0 -0.095082)
(-0.177385 0 -0.110093)
(-0.201077 0 -0.143157)
(-0.200564 0 -0.0958681)
(-0.113511 0 0.179159)
(0.100965 0 0.92935)
(0.292356 8.40599e-28 1.06596)
(0.0830403 0 1.11132)
(0.0327419 0 0.0944751)
(0.00866062 0 0.120309)
(0.0391683 0 0.0550935)
(0.0410075 0 -0.00630397)
(-0.142923 0 -0.114206)
(-0.432032 0 -0.124938)
(-0.331434 0 -0.118693)
(-0.242763 0 -0.0915057)
(-0.190493 0 -0.111027)
(-0.178911 0 -0.0985013)
(-0.202631 0 -0.122573)
(-0.265684 0 -0.0673587)
(-0.235451 0 0.122827)
(0.0343479 0 0.877942)
(0.259209 1.01811e-27 0.970283)
(0.384038 -2.92784e-30 1.09929)
(0.199846 8.25946e-28 1.1651)
(0.0446009 0 1.17842)
(0.0120509 0 0.0891717)
(0.0160107 0 0.0540739)
(0.0424544 0 -0.0114576)
(0.0433667 0 -0.0877989)
(-0.0867373 0 -0.209344)
(-0.266181 0 -0.183284)
(-0.217754 0 -0.142664)
(-0.207775 0 -0.0998792)
(-0.181123 0 -0.11111)
(-0.193477 0 -0.0988563)
(-0.245796 0 -0.0752301)
(-0.26364 0 0.11674)
(-0.0796766 0 0.711181)
(0.165011 0 0.842858)
(0.398106 0 0.948006)
(0.557405 1.67055e-26 1.14098)
(0.318721 -2.30001e-30 1.22446)
(0.149769 4.7969e-28 1.25492)
(0.040078 0 1.25723)
(0.017457 0 -0.0109848)
(0.0419206 0 -0.0970912)
(0.0342506 0 -0.161033)
(-0.0641526 0 -0.24522)
(-0.125417 0 -0.200931)
(-0.107732 0 -0.152507)
(-0.181521 0 -0.10083)
(-0.18092 0 -0.110912)
(-0.200884 0 -0.0509977)
(-0.226147 0 0.077893)
(-0.182946 0 0.53481)
(0.100816 0 0.688308)
(0.353289 0 0.79863)
(0.57811 5.1581e-26 0.967468)
(0.805925 -6.52596e-30 1.21279)
(0.484346 1.24001e-26 1.32252)
(0.240828 0 1.33437)
(0.0841443 0 1.30087)
(0.00987502 0 1.28592)
(0.016447 0 -0.0926786)
(0.0352272 0 -0.173445)
(0.0119141 0 -0.200093)
(-0.0585114 0 -0.240978)
(-0.0412517 0 -0.188905)
(-0.0205276 0 -0.145077)
(-0.16457 0 -0.101984)
(-0.160862 0 -0.0892607)
(-0.176154 0 0.0472839)
(-0.152684 0 0.339486)
(0.122078 0 0.488026)
(0.324527 -5.0116e-27 0.58851)
(0.556108 3.02629e-26 0.793336)
(0.817495 0 0.960611)
(1.06353 4.45103e-25 1.28798)
(0.69951 -5.00822e-30 1.48881)
(0.352593 1.3885e-26 1.46557)
(0.142228 0 1.38933)
(0.0338918 0 1.33295)
(-0.00857448 0 1.28805)
(0.0121144 0 -0.164133)
(0.0196236 0 -0.211727)
(-0.00496058 0 -0.208331)
(-0.0569283 0 -0.219468)
(0.00421665 0 -0.1635)
(0.0382908 0 -0.143245)
(-0.129187 0 -0.0931708)
(-0.128682 0 -0.0451011)
(-0.0296664 0 0.194628)
(0.164633 0 0.230921)
(0.322115 -5.40071e-27 0.403328)
(0.496223 0 0.567017)
(0.800597 -1.74996e-25 0.756249)
(1.08353 -6.43932e-25 0.916335)
(1.37934 8.01535e-10 1.09689)
(0.886547 0 1.46559)
(0.469345 0 1.58447)
(0.184548 -1.58644e-26 1.50344)
(0.039492 3.9548e-27 1.40512)
(-0.0280374 0 1.3213)
(-0.0201781 0 1.25483)
(0.00567601 0 -0.200991)
(0.00611562 0 -0.218948)
(-0.0117384 0 -0.200615)
(-0.0421484 0 -0.197351)
(0.0431547 0 -0.148818)
(0.0946497 0 -0.148654)
(-0.0860678 0 -0.0898688)
(0.0297829 0 0.0199686)
(0.175395 0 0.0921307)
(0.313505 -2.46879e-42 0.258825)
(0.458499 0 0.379489)
(0.800764 2.92217e-25 0.563722)
(1.01489 -1.95986e-24 0.67006)
(1.40257 -1.06261e-09 0.864956)
(1.46314 6.34682e-09 0.874842)
(1.03527 -3.7631e-10 1.3155)
(1.46145 1.21013e-09 0.876173)
(1.5096 6.03573e-09 0.886673)
(1.50577 7.83654e-10 0.890264)
(0.496748 1.2005e-24 1.56858)
(0.187576 4.07149e-25 1.6051)
(0.0350494 -2.28284e-26 1.49945)
(-0.0500648 1.25548e-26 1.38486)
(-0.0722698 0 1.28862)
(-0.037303 0 1.20168)
(0.000778999 0 -0.21049)
(-0.00123782 0 -0.210765)
(-0.0083679 0 -0.188402)
(-0.019634 0 -0.185851)
(0.0708814 0 -0.15871)
(0.165145 0 -0.169869)
(0.0419902 0 -0.0713369)
(0.171377 0 -0.0313188)
(0.283365 -2.2494e-42 0.159409)
(0.435126 0 0.224366)
(0.703057 0 0.375405)
(0.919267 1.21355e-24 0.487308)
(1.24975 -1.07921e-24 0.53447)
(1.70684 -7.97648e-10 0.600772)
(1.24652 7.00958e-09 0.963775)
(1.54271 1.18731e-08 0.659829)
(0.57422 -2.95404e-09 1.3051)
(1.25829 1.45984e-09 0.960838)
(1.0546 5.64266e-09 1.03001)
(1.04162 3.31622e-10 1.02836)
(1.53329 5.35816e-10 0.653067)
(1.69926 9.04064e-09 0.592794)
(1.68807 1.30778e-10 0.595338)
(0.0973675 3.19603e-24 1.48747)
(-0.0377147 -6.47125e-25 1.50829)
(-0.106772 0 1.42979)
(-0.135507 8.08195e-27 1.33741)
(-0.106529 0 1.22275)
(-0.0434545 0 1.12391)
(-0.00166302 0 -0.205604)
(-0.00133878 0 -0.199331)
(-2.93197e-05 0 -0.182967)
(0.00281426 0 -0.185762)
(0.0866798 0 -0.182218)
(0.251733 0 -0.204799)
(0.172543 0 -0.0826481)
(0.252025 4.66222e-28 0.00356454)
(0.442528 4.40067e-28 0.141094)
(0.58699 1.09314e-25 0.151724)
(0.919187 0 0.378026)
(1.13523 -1.38654e-24 0.297488)
(1.55715 -5.05714e-09 0.429122)
(1.77402 -5.47886e-09 0.265055)
(1.7569 8.20246e-09 0.267804)
(1.76708 8.48439e-10 0.252587)
(1.76063 5.59663e-10 0.247222)
(1.33609 1.46295e-08 0.81059)
(1.63216 1.19811e-08 0.429584)
(-0.160674 2.19483e-24 0.983951)
(0.236202 -1.29905e-10 0.77791)
(1.31346 1.39607e-09 0.802098)
(1.00757 1.40943e-08 0.855473)
(0.996027 5.95041e-10 0.850908)
(1.61631 1.79369e-10 0.426842)
(1.68412 9.81178e-09 0.370973)
(1.6685 -2.59348e-09 0.371689)
(-0.230638 4.40704e-25 1.24648)
(-0.218496 0 1.38986)
(-0.212156 0 1.36915)
(-0.189445 9.52012e-27 1.26518)
(-0.135527 0 1.1494)
(-0.0519664 0 1.04748)
(-0.00171663 0 -0.196908)
(0.00217992 0 -0.193685)
(0.0106703 0 -0.184788)
(0.0202083 0 -0.196027)
(0.0814731 0 -0.24045)
(0.379662 0 -0.194237)
(0.249778 0 -0.0918249)
(0.425888 -1.39034e-28 -0.0285716)
(0.564394 0 0.0047417)
(0.874853 1.94864e-25 0.205341)
(1.00369 1.8985e-24 0.187878)
(1.29448 -1.95338e-09 0.222816)
(1.70403 -3.996e-10 0.215676)
(1.70314 1.12547e-10 0.210203)
(1.67394 3.29181e-10 0.163464)
(1.66803 6.59841e-11 0.161097)
(1.821 -8.52494e-09 0.0647562)
(1.81076 5.1364e-09 0.0632317)
(1.8882 -1.00318e-09 0.0870438)
(1.88526 1.11187e-09 0.0865094)
(1.33433 1.17496e-08 0.508187)
(1.8512 2.27218e-08 0.209967)
(1.4102 7.74574e-09 0.199435)
(1.89619 1.61011e-08 0.176987)
(1.57146 2.8798e-09 0.143703)
(-0.462802 7.49638e-24 0.761188)
(-0.565209 -7.80319e-09 0.55818)
(-0.164965 1.65524e-10 0.293509)
(-0.103494 -2.27902e-10 0.342347)
(0.467739 -8.66234e-09 0.402262)
(0.463056 1.99385e-08 0.414969)
(1.32994 2.43211e-09 0.506386)
(1.03814 1.42497e-08 0.468169)
(1.02715 1.98872e-09 0.468887)
(1.83884 -8.48352e-09 0.195939)
(1.41937 -4.3969e-09 0.198246)
(1.87834 1.73328e-09 0.17254)
(1.55108 -2.77944e-09 0.137327)
(1.983 2.6788e-08 0.143055)
(1.64877 1.75522e-08 0.195756)
(1.91469 2.33376e-08 0.110009)
(1.68486 4.09263e-09 0.127837)
(1.96801 -1.44472e-08 0.142625)
(1.66739 -9.66994e-09 0.197671)
(1.89658 -7.05678e-09 0.106196)
(1.67181 -4.07545e-09 0.12549)
(-0.394092 0 1.09468)
(-0.3132 -1.76267e-25 1.2764)
(-0.284112 0 1.28966)
(-0.228329 1.05206e-26 1.186)
(-0.157638 0 1.06132)
(-0.0640071 0 0.933743)
(-0.000532691 0 -0.192657)
(0.00662096 0 -0.194162)
(0.0141818 0 -0.194278)
(0.0318721 0 -0.198739)
(0.0574711 0 -0.303029)
(0.520469 0 -0.216412)
(0.415243 0 -0.11657)
(0.537751 0 -0.089143)
(0.729685 2.55807e-25 0.0525994)
(0.958599 1.254e-24 0.0459089)
(1.21156 -4.56124e-10 0.0990217)
(1.47419 8.37983e-10 0.0482253)
(1.46877 -9.16119e-11 0.042119)
(1.45552 1.48264e-09 0.00211693)
(1.45561 -2.96535e-10 0.0037045)
(1.77561 -6.0124e-09 -0.0462817)
(1.77744 1.44223e-09 -0.0465443)
(1.73938 -7.55166e-09 0.0115342)
(1.74075 1.68585e-09 0.0118089)
(1.54531 1.80827e-09 -0.136297)
(1.60061 1.22741e-09 0.137286)
(2.0476 1.27483e-09 -0.210015)
(1.65574 2.63998e-09 -0.0979357)
(2.02438 3.47248e-09 -0.118777)
(2.02481 4.49961e-10 -0.0955333)
(1.61436 -8.80588e-10 0.138097)
(1.53944 8.94811e-10 -0.135111)
(2.0335 -2.96923e-10 -0.215476)
(1.6465 -1.70938e-09 -0.100313)
(2.01251 -4.13952e-09 -0.124325)
(2.00581 -9.01134e-11 -0.097602)
(1.65031 2.63641e-09 -0.117986)
(2.01442 6.60407e-09 -0.071629)
(1.66587 2.34916e-09 -0.0861517)
(2.02279 5.70523e-09 -0.0803496)
(1.65418 -2.13547e-09 -0.119283)
(2.01031 -4.0188e-09 -0.0751169)
(1.66471 -1.9806e-09 -0.0893828)
(2.01789 -4.18084e-09 -0.081904)
(1.63854 1.99113e-08 0.216774)
(1.20428 8.3332e-09 0.100973)
(1.61095 1.32349e-08 0.222158)
(1.25468 2.73846e-09 0.190811)
(1.96214 -1.08861e-09 0.0691493)
(1.38439 -7.67103e-10 -0.0165347)
(1.89795 -9.20795e-11 0.0907891)
(1.56469 -2.65116e-10 0.0254627)
(-0.61886 6.27596e-25 0.485625)
(-0.859304 -4.40566e-09 0.299472)
(-0.860035 -3.33241e-09 0.131712)
(-0.791399 -3.51309e-09 0.12065)
(-0.505919 -3.87594e-09 0.162432)
(-0.422636 -3.07629e-09 0.170334)
(-0.222456 2.81993e-09 0.0346965)
(-0.201472 4.68362e-09 0.0681083)
(0.325901 7.54746e-10 -0.0591235)
(0.340315 5.37146e-09 -0.0546128)
(1.6247 -7.3428e-09 0.210562)
(1.20828 -4.52527e-09 0.115462)
(1.59989 1.23152e-09 0.213392)
(1.2274 -2.72743e-09 0.175241)
(1.24579 2.50792e-08 0.207658)
(0.624608 1.07243e-08 0.00544044)
(1.04081 2.0854e-08 0.326987)
(0.86389 4.97247e-09 0.104278)
(1.22845 -1.3072e-08 0.212855)
(0.678107 -6.37444e-09 0.0216365)
(1.02856 -5.09269e-09 0.330691)
(0.817316 -4.51171e-09 0.094847)
(1.94017 2.41865e-09 0.0636632)
(1.40473 9.38169e-10 -0.0186746)
(1.87614 1.87024e-09 0.084915)
(1.53386 6.59864e-10 0.0188464)
(1.96487 8.27269e-10 0.0207351)
(1.67492 7.87889e-10 0.0219667)
(1.94969 -4.61223e-10 0.0149119)
(1.65743 -9.42799e-10 0.0202535)
(-0.456811 -3.92942e-25 0.930068)
(-0.388503 0 1.20183)
(-0.337495 0 1.20265)
(-0.265024 0 1.09017)
(-0.183115 0 0.963724)
(-0.0724896 0 0.82491)
(0.00050925 0 -0.19244)
(0.0075458 0 -0.200139)
(0.0146528 0 -0.213362)
(0.013195 0 -0.206281)
(0.0447457 0 -0.330555)
(0.646718 0 -0.337694)
(0.624419 0 -0.159332)
(0.637252 0 -0.116087)
(0.891245 2.739e-25 -0.0403022)
(1.14256 -4.18617e-10 -0.00947775)
(1.24713 1.23954e-09 -0.0360098)
(1.2454 -2.51954e-10 -0.0339276)
(1.30186 2.05044e-09 -0.0361816)
(1.30099 1.23602e-10 -0.0344781)
(1.51579 -7.0617e-09 -0.0951664)
(1.51424 2.60516e-09 -0.0976015)
(1.45363 -7.67468e-09 -0.0580927)
(1.46132 2.49858e-09 -0.058499)
(1.61355 3.34081e-09 -0.158677)
(1.97496 5.40425e-09 -0.100505)
(1.59542 4.18362e-09 -0.196537)
(1.95379 8.03392e-09 -0.133145)
(1.62978 -2.33668e-09 -0.165274)
(1.97195 -4.67296e-09 -0.103744)
(1.61356 -2.56875e-09 -0.196893)
(1.95049 -5.94023e-09 -0.135014)
(1.48041 6.25849e-09 -0.197348)
(1.84232 9.03369e-09 -0.0895617)
(1.63909 4.65274e-09 -0.135312)
(1.94451 8.57028e-09 -0.0831353)
(1.49592 -3.37127e-09 -0.203542)
(1.83309 -5.24479e-09 -0.0931943)
(1.65686 -2.82756e-09 -0.14191)
(1.93742 -5.71194e-09 -0.0833311)
(1.57679 6.73864e-10 0.0618243)
(1.59704 6.92407e-12 -0.183568)
(2.05138 -7.7368e-11 -0.205235)
(2.01097 1.18381e-09 -0.224889)
(1.66846 -1.43388e-10 -0.158074)
(2.04384 -3.17716e-10 -0.152763)
(1.6101 8.92873e-10 0.0609961)
(1.58064 -3.53663e-11 -0.176052)
(1.99045 -1.8201e-10 -0.2369)
(2.04692 -6.47168e-11 -0.202875)
(1.664 -9.84127e-11 -0.161991)
(2.03304 -2.56937e-10 -0.156781)
(1.68813 -3.47712e-10 -0.190088)
(2.07946 2.20009e-11 -0.142107)
(1.69357 -1.30329e-10 -0.202554)
(2.07702 1.91938e-10 -0.143856)
(1.69266 -4.68421e-11 -0.192518)
(2.0734 1.42934e-10 -0.142884)
(1.69352 2.29197e-11 -0.204492)
(2.0707 -9.66964e-11 -0.144571)
(1.58255 5.69663e-10 0.13834)
(1.16449 -9.07773e-10 -0.0291623)
(1.69396 -1.86417e-10 0.0934235)
(1.17542 2.76385e-10 -0.108388)
(1.90364 -2.33107e-11 -0.0848339)
(1.39487 2.31904e-10 -0.127458)
(1.9267 5.04866e-10 -0.0514462)
(1.56032 1.96247e-10 -0.189258)
(-0.576576 0 0.309096)
(-0.898782 -1.80597e-09 0.0810437)
(-1.07181 -1.28875e-09 -0.0210847)
(-1.02411 -2.5968e-09 -0.0318086)
(-0.924539 -5.08055e-10 0.0596344)
(-0.85 -1.54638e-09 0.0425446)
(-0.914615 -7.33705e-09 -0.100654)
(-0.8434 1.16713e-09 -0.0767846)
(-0.691842 -3.04473e-09 -0.0747923)
(-0.65582 3.06241e-09 -0.0501766)
(-0.471995 8.22389e-09 -0.327459)
(-0.148302 1.01465e-08 -0.247551)
(-0.224929 5.12486e-09 -0.334283)
(0.212573 7.05062e-09 -0.0675388)
(-0.439827 -5.03093e-09 -0.307088)
(-0.12703 -8.73378e-09 -0.238303)
(-0.21437 -3.42196e-09 -0.315278)
(0.233476 -6.42285e-09 -0.0415628)
(0.372131 1.7146e-09 -0.388502)
(0.602936 3.14489e-09 -0.38829)
(0.461671 8.331e-10 -0.110815)
(-0.0318796 3.79081e-09 -0.350167)
(0.441917 4.175e-09 0.0059392)
(0.894236 7.34755e-09 0.295357)
(0.382464 -2.10814e-10 -0.388478)
(0.636797 -2.66117e-09 -0.39441)
(0.468459 -3.4385e-10 -0.106864)
(-0.0527905 -2.13272e-09 -0.352531)
(0.452587 -3.81091e-09 0.00937445)
(0.880599 -4.11831e-09 0.296029)
(1.5661 4.49974e-10 0.130493)
(1.17981 7.48321e-10 -0.033118)
(1.67955 1.4229e-09 0.0862958)
(1.14047 -3.76868e-10 -0.096594)
(1.17452 7.04364e-09 0.120494)
(0.971096 3.43501e-09 -0.156641)
(1.15849 -5.08808e-09 0.127165)
(0.93653 -3.14014e-09 -0.153228)
(1.88716 -4.19822e-10 -0.0983322)
(1.41527 -6.50035e-11 -0.116303)
(1.90857 -5.43283e-10 -0.0545841)
(1.53419 -3.20654e-10 -0.198622)
(2.01959 8.29281e-10 -0.0927902)
(1.69535 2.70087e-10 -0.162743)
(2.00039 -9.18701e-10 -0.0977806)
(1.68314 -4.20372e-10 -0.162821)
(-0.501395 -4.2305e-25 0.854076)
(-0.454002 0 1.10424)
(-0.386497 0 1.09303)
(-0.303858 0 0.99607)
(-0.224739 0 0.841528)
(-0.0902544 0 0.667842)
(0.000451351 0 -0.19657)
(0.00345733 0 -0.202792)
(0.00151974 0 -0.226179)
(-0.0114823 0 -0.207748)
(-0.011111 0 -0.316751)
(0.70376 3.17266e-26 -0.404214)
(0.807877 -1.91179e-25 -0.201746)
(0.799578 -1.95493e-25 -0.172443)
(1.01115 -7.51847e-10 -0.147696)
(1.17419 1.85723e-09 -0.14271)