/*--------------------------------*- C++ -*----------------------------------*\
| =========                 |                                                 |
| \\      /  F ield         | OpenFOAM: The Open Source CFD Toolbox           |
|  \\    /   O peration     | Version:  5.x                                   |
|   \\  /    A nd           | Web:      www.OpenFOAM.org                      |
|    \\/     M anipulation  |                                                 |
\*---------------------------------------------------------------------------*/
FoamFile
{
    version     2.0;
    format      ascii;
    class       surfaceVectorField;
    location    "1.2";
    object      Uf;
}
// * * * * * * * * * * * * * * * * * * * * * * * * * * * * * * * * * * * * * //

dimensions      [0 1 -1 0 0 0 0];

internalField   nonuniform List<vector> 
30582
(
(0.210524 0 0.00241901)
(0.209503 0 -0.000231906)
(0.209286 0 0.00382921)
(0.211912 0 0.00049507)
(0.210262 0 -0.00220407)
(0.209025 0 -0.000350452)
(0.204944 0 0.00421953)
(0.206651 0 0.00176808)
(0.208671 0 -0.00164837)
(0.211267 0 0.00113132)
(0.20919 0 0.00311079)
(0.208155 0 -2.69808e-05)
(0.199596 0 0.00354273)
(0.202353 0 0.00221675)
(0.204304 0 -0.00033563)
(0.20608 0 0.00354639)
(0.208286 0 0.00652956)
(0.209462 0 0.00149291)
(0.207278 0 -0.0017623)
(0.206683 0 0.00107895)
(0.197147 0 0.0023756)
(0.197072 0 0.00103342)
(0.198794 0 -0.000385806)
(0.201801 0 0.00450067)
(0.204 0 0.00859597)
(0.204146 0 0.00529145)
(0.205333 0 5.10179e-06)
(0.207068 0 0.00227082)
(0.204475 0 0.00540299)
(0.204305 0 0.00332798)
(0.197618 0 0.0012073)
(0.197145 0 -0.000202244)
(0.196137 0 -0.00161603)
(0.196335 0 0.00215451)
(0.198371 0 0.00718737)
(0.199839 0 0.00683401)
(0.200692 0 0.0032478)
(0.201943 0 0.00718119)
(0.204606 0 0.00985017)
(0.202302 0 0.00221842)
(0.198926 0 -0.000296858)
(0.201471 0 0.00780951)
(0.201024 0 0.000409018)
(0.199152 0 -0.00148928)
(0.196898 0 -0.00298528)
(0.196501 0 -0.000529199)
(0.195601 0 0.00335366)
(0.194327 0 0.00332338)
(0.195018 0 0.00273016)
(0.197628 0 0.00918584)
(0.199867 0 0.0134828)
(0.197633 0 0.00911087)
(0.197267 0 0.00110499)
(0.197288 0 0.00288169)
(0.195483 0 0.0116069)
(0.197275 0 0.0137063)
(0.205086 0 0.000212645)
(0.203568 0 -0.00180765)
(0.200726 0 -0.00380869)
(0.198812 0 -0.00316306)
(0.196571 0 -0.000545325)
(0.194664 0 -0.000945855)
(0.192106 0 -0.00119612)
(0.192026 0 0.00455234)
(0.194047 0 0.0112368)
(0.193633 0 0.0115978)
(0.192681 0 0.00688565)
(0.193933 0 0.0109783)
(0.196849 0 0.0131986)
(0.185148 0 0.00233516)
(0.181311 0 0.00349845)
(0.158915 0 0.0252447)
(0.208053 0 0.000503709)
(0.2073 0 -0.00134422)
(0.205283 0 -0.00347103)
(0.203771 0 -0.00383535)
(0.200697 0 -0.00296836)
(0.197702 0 -0.004967)
(0.1938 0 -0.00566591)
(0.192762 0 -0.00167344)
(0.191246 0 0.00430271)
(0.188036 0 0.00573429)
(0.18737 0 0.00585144)
(0.189771 0 0.0137995)
(0.192507 0 0.0180195)
(0.184923 0 0.0127465)
(0.176877 0 0.00159976)
(0.150446 0 0.00410893)
(0.122386 0 0.0266374)
(-0.0942489 0 -0.0298663)
(0.208173 0 0.000997253)
(0.208898 0 -5.50811e-05)
(0.208635 0 -0.00197328)
(0.208038 0 -0.00286285)
(0.205981 0 -0.00299761)
(0.203746 0 -0.00618696)
(0.199341 0 -0.00851759)
(0.196389 0 -0.00738943)
(0.193139 0 -0.00301654)
(0.18971 0 -0.00248625)
(0.18509 0 -0.00137494)
(0.183444 0 0.00669596)
(0.18611 0 0.0146454)
(0.183685 0 0.0164508)
(0.177785 0 0.0114348)
(0.166579 0 0.0123766)
(0.143679 0 0.0159924)
(0.0048491 0 -0.00440864)
(-0.207459 0 -0.0591845)
(-0.240469 0 0.0513431)
(0.204188 0 0.00168658)
(0.207023 0 0.00187026)
(0.208648 0 0.00069055)
(0.210169 0 -6.11692e-05)
(0.210016 0 -0.000786589)
(0.208997 0 -0.00469065)
(0.20612 0 -0.00820425)
(0.203826 0 -0.00920391)
(0.19915 0 -0.00759204)
(0.194242 0 -0.0100176)
(0.188261 0 -0.0100452)
(0.185347 0 -0.00384801)
(0.182306 0 0.0044545)
(0.17853 0 0.00830109)
(0.176996 0 0.0105635)
(0.182181 0 0.0167777)
(0.173578 0 0.0176808)
(0.0470511 0 0.000201824)
(-0.0947995 0 -0.0200622)
(-0.0160349 0 -0.0494745)
(-0.0368506 0 0.0520339)
(-0.0697364 0 0.065816)
(0.195993 0 0.00259048)
(0.200827 0 0.00391603)
(0.205005 0 0.00390272)
(0.208488 0 0.00358064)
(0.21113 0 0.00311424)
(0.211944 0 -0.00057478)
(0.211433 0 -0.00472043)
(0.210543 0 -0.00709758)
(0.207407 0 -0.00761881)
(0.203666 0 -0.0128786)
(0.19661 0 -0.0159274)
(0.191026 0 -0.0136678)
(0.18524 0 -0.0068166)
(0.181787 0 -0.0051084)
(0.176747 0 -0.00129503)
(0.184564 0 0.0084062)
(0.191319 0 0.0132477)
(0.11585 0 0.00942434)
(-0.00794262 0 -0.00761749)
(-0.0759952 0 -0.0351664)
(-0.00381478 0 -0.0629767)
(0.0777024 0 -0.0626892)
(0.0525089 0 -0.0406169)
(0.0188294 0 0.0451816)
(0.184078 0 0.00342051)
(0.190605 0 0.00579513)
(0.196888 0 0.0069718)
(0.202285 0 0.00779434)
(0.207145 0 0.00791604)
(0.210695 0 0.00545083)
(0.212646 0 0.00138109)
(0.214758 0 -0.00113412)
(0.214367 0 -0.00312268)
(0.21255 0 -0.0102503)
(0.20769 0 -0.0161079)
(0.203089 0 -0.0178094)
(0.194854 0 -0.0146563)
(0.188652 0 -0.0178705)
(0.18214 0 -0.0169379)
(0.196135 0 -0.00742465)
(0.202861 0 0.00056725)
(0.148517 0 0.00353616)
(0.0763079 0 -0.000461834)
(0.000366935 0 -0.0254969)
(-0.0636404 0 -0.0485193)
(-0.035403 0 -0.0108057)
(0.0439316 0 -0.0135339)
(0.0242263 0 -0.0592581)
(-0.00818946 0 0.0170617)
(0.0417887 0 0.0483998)
(0.169231 0 0.00408253)
(0.177005 0 0.00735103)
(0.184877 0 0.0096216)
(0.191914 0 0.0116367)
(0.198804 0 0.0128567)
(0.204621 0 0.0117801)
(0.209673 0 0.00873145)
(0.214138 0 0.00684604)
(0.217558 0 0.00487992)
(0.218457 0 -0.0026055)
(0.217164 0 -0.0101762)
(0.214817 0 -0.0145424)
(0.208723 0 -0.0153639)
(0.203483 0 -0.0239819)
(0.194019 0 -0.0283952)
(0.209592 0 -0.023064)
(0.220209 0 -0.0151796)
(0.198697 0 -0.0148752)
(0.144827 0 -0.013477)
(0.0463491 0 -0.0253734)
(-0.0290119 0 -0.0471754)
(0.00195581 0 -0.0398499)
(0.0323952 0 -0.0072761)
(0.00857358 0 -0.00610804)
(-0.0106119 0 -0.0503593)
(0.00786846 0 -0.0582891)
(0.0582801 0 -0.01894)
(0.0276707 0 0.025498)
(0.152362 0 0.00454553)
(0.160938 0 0.008502)
(0.16985 0 0.0117024)
(0.178053 0 0.0147913)
(0.186472 0 0.0171879)
(0.194008 0 0.0176347)
(0.20141 0 0.0159869)
(0.208097 0 0.0157289)
(0.2142 0 0.0146131)
(0.218724 0 0.00842203)
(0.221049 0 0.000442774)
(0.222961 0 -0.00439702)
(0.221161 0 -0.00806115)
(0.218207 0 -0.0201769)
(0.210997 0 -0.0299883)
(0.230351 0 -0.0315374)
(0.241989 0 -0.0260017)
(0.250312 0 -0.0325861)
(0.225446 0 -0.0347104)
(0.124259 0 -0.0495009)
(0.0287525 0 -0.0582893)
(0.0242589 0 -0.0497448)
(0.0513338 0 -0.0461992)
(0.0359105 0 -0.0476998)
(0.0121481 0 -0.043472)
(0.00407594 0 -0.015376)
(0.0226926 0 -0.0225587)
(0.00474388 0 -0.0440537)
(-0.0255176 0 -0.00652279)
(0.134335 0 0.00481996)
(0.143327 0 0.00924852)
(0.152785 0 0.0131612)
(0.161687 0 0.0171031)
(0.171047 0 0.0205618)
(0.179715 0 0.0224283)
(0.188699 0 0.0222987)
(0.197086 0 0.0238169)
(0.205479 0 0.0243162)
(0.21274 0 0.0198963)
(0.219102 0 0.0130429)
(0.224265 0 0.00933585)
(0.227875 0 0.00509057)
(0.228632 0 -0.00749306)
(0.226326 0 -0.0204681)
(0.249164 0 -0.0271212)
(0.265825 0 -0.026287)
(0.307464 0 -0.0421453)
(0.310193 0 -0.0495525)
(0.211006 0 -0.0696367)
(0.109988 0 -0.0837451)
(0.0732396 0 -0.0843912)
(0.0711113 0 -0.0755447)
(0.0392935 0 -0.0580892)
(0.0205044 0 -0.0557617)
(0.0169839 0 -0.0511634)
(0.00973763 0 -0.0263757)
(0.00387202 0 -0.0101008)
(-0.0140899 0 -0.0324122)
(0.115856 0 0.00493961)
(0.124966 0 0.00964989)
(0.134579 0 0.0140491)
(0.143791 0 0.018588)
(0.153577 0 0.0228817)
(0.162849 0 0.0259082)
(0.172706 0 0.0271986)
(0.182143 0 0.0303465)
(0.192069 0 0.0326659)
(0.201137 0 0.0303391)
(0.210257 0 0.0252671)
(0.218245 0 0.024123)
(0.22542 0 0.0207307)
(0.231106 0 0.0104884)
(0.23377 0 -0.00292624)
(0.261862 0 -0.0109258)
(0.285588 0 -0.0149765)
(0.356803 0 -0.0360743)
(0.39309 0 -0.0502817)
(0.314561 0 -0.0790375)
(0.211955 0 -0.101957)
(0.12055 0 -0.114215)
(0.08518 0 -0.111715)
(0.0559302 0 -0.0904337)
(0.0246908 0 -0.070384)
(0.0143082 0 -0.0598556)
(0.00891339 0 -0.0563694)
(0.00740577 0 -0.0508218)
(0.0017017 0 -0.0343642)
(0.0974385 0 0.00494707)
(0.106461 0 0.00979054)
(0.115961 0 0.0144777)
(0.125195 0 0.0193729)
(0.135016 0 0.0242383)
(0.144482 0 0.0281102)
(0.154639 0 0.0305669)
(0.164547 0 0.0350145)
(0.175216 0 0.0390172)
(0.185259 0 0.0386901)
(0.195978 0 0.0356599)
(0.205908 0 0.0372839)
(0.21597 0 0.0362098)
(0.225162 0 0.0286385)
(0.23302 0 0.0180975)
(0.266036 0 0.0108404)
(0.296417 0 0.00542954)
(0.389295 0 -0.0159193)
(0.461633 0 -0.0348506)
(0.416375 0 -0.0671263)
(0.329413 0 -0.098051)
(0.182142 0 -0.13131)
(0.0927337 0 -0.141064)
(0.055521 0 -0.117517)
(0.0253932 0 -0.0957977)
(0.0208892 0 -0.0907353)
(0.0109055 0 -0.0784692)
(0.00656577 0 -0.0606961)
(0.00420043 0 -0.0564351)
(0.0794029 0 0.00488621)
(0.0882174 0 0.0097595)
(0.0974465 0 0.0145802)
(0.106516 0 0.0196325)
(0.116121 0 0.0248247)
(0.125497 0 0.0292403)
(0.135552 0 0.0325518)
(0.145498 0 0.0379022)
(0.15629 0 0.0432466)
(0.166635 0 0.0445534)
(0.177958 0 0.0434205)
(0.188869 0 0.047612)
(0.200594 0 0.0495921)
(0.212013 0 0.0447625)
(0.223542 0 0.0382875)
(0.261055 0 0.0331675)
(0.297109 0 0.0295596)
(0.40128 0 0.0105154)
(0.499046 0 -0.00874859)
(0.492332 0 -0.0331704)
(0.443378 0 -0.0654203)
(0.248018 0 -0.118754)
(0.0986321 0 -0.150542)
(0.0515647 0 -0.133935)
(0.0166967 0 -0.112957)
(0.0146035 0 -0.113715)
(0.00925375 0 -0.104949)
(0.00880117 0 -0.0900259)
(0.00481969 0 -0.0753089)
(0.0619077 0 0.00479878)
(0.0704657 0 0.00963682)
(0.0793549 0 0.0144844)
(0.0881625 0 0.0195493)
(0.0974186 0 0.0248688)
(0.106537 0 0.0295747)
(0.116253 0 0.0334414)
(0.12596 0 0.0393186)
(0.136465 0 0.0455931)
(0.146651 0 0.0480731)
(0.157871 0 0.048448)
(0.168975 0 0.0546774)
(0.181226 0 0.0596065)
(0.193543 0 0.0572012)
(0.206997 0 0.0540999)
(0.248093 0 0.0528093)
(0.288872 0 0.0518328)
(0.398904 0 0.0371035)
(0.50929 0 0.0211467)
(0.52986 0 0.00570635)
(0.528867 0 -0.0191518)
(0.305542 0 -0.0725893)
(0.107081 0 -0.12406)
(0.0428702 0 -0.122582)
(-0.00136794 0 -0.11197)
(0.00306424 0 -0.125896)
(0.00135115 0 -0.121651)
(0.00438971 0 -0.11026)
(0.00355346 0 -0.0992485)
(0.0449848 0 0.00471965)
(0.0532909 0 0.00948862)
(0.0618379 0 0.0142977)
(0.0703581 0 0.0192856)
(0.079222 0 0.0245905)
(0.0880109 0 0.0293959)
(0.0972825 0 0.0335657)
(0.106602 0 0.0396594)
(0.116604 0 0.0464754)
(0.126369 0 0.0496903)
(0.13707 0 0.051102)
(0.147846 0 0.0587444)
(0.159809 0 0.0659954)
(0.172037 0 0.0654718)
(0.185761 0 0.0644424)
(0.229737 0 0.0677155)
(0.273504 0 0.0687852)
(0.386595 0 0.0602838)
(0.503924 0 0.0495434)
(0.535313 0 0.0396679)
(0.566245 0 0.0215932)
(0.342156 0 -0.0118396)
(0.120827 0 -0.0629618)
(0.039931 0 -0.0789281)
(-0.0224323 0 -0.0852901)
(-0.0160862 0 -0.113039)
(-0.0108299 0 -0.120766)
(-0.00251574 0 -0.120475)
(0.000545449 0 -0.113685)
(0.0285793 0 0.00466875)
(0.0366754 0 0.00936383)
(0.0449208 0 0.0141026)
(0.053178 0 0.0189739)
(0.0616724 0 0.0241782)
(0.0701299 0 0.0289524)
(0.0789444 0 0.0332357)
(0.0878308 0 0.0393192)
(0.0972563 0 0.0463573)
(0.106492 0 0.0499441)
(0.116494 0 0.0519584)
(0.126672 0 0.0604357)
(0.1379 0 0.0693482)
(0.149513 0 0.0699844)
(0.162544 0 0.0699502)
(0.20871 0 0.0771736)
(0.254667 0 0.0798159)
(0.368185 0 0.0770419)
(0.487309 0 0.0718116)
(0.515823 0 0.0683645)
(0.559619 0 0.0549913)
(0.349126 0 0.0428342)
(0.131333 0 0.00960023)
(0.0440736 0 -0.0167709)
(-0.0365422 0 -0.0379868)
(-0.0319585 0 -0.0724219)
(-0.0246858 0 -0.0937126)
(-0.0130021 0 -0.106762)
(-0.00398781 0 -0.111309)
(0.0125786 0 0.00465374)
(0.0205285 0 0.00929602)
(0.0285427 0 0.0139617)
(0.0365934 0 0.018712)
(0.0447794 0 0.0237796)
(0.0529526 0 0.0284458)
(0.0613595 0 0.0327124)
(0.0698395 0 0.0386387)
(0.0787102 0 0.0456669)
(0.0874163 0 0.0493549)
(0.0966998 0 0.051627)
(0.106192 0 0.0604666)
(0.116531 0 0.0704755)
(0.127277 0 0.071595)
(0.139277 0 0.0717617)
(0.186858 0 0.0819207)
(0.234377 0 0.0861978)
(0.347092 0 0.0874006)
(0.465558 0 0.0862652)
(0.478188 0 0.0878114)
(0.513502 0 0.0827925)
(0.326759 0 0.090794)
(0.120682 0 0.0754777)
(0.0473596 0 0.0479236)
(-0.0406378 0 0.0183893)
(-0.0387876 0 -0.0148484)
(-0.0337845 0 -0.0449203)
(-0.0211836 0 -0.0682265)
(-0.00918931 0 -0.0853963)
(-0.0031522 0 0.0046783)
(0.00473151 0 0.00930374)
(0.0125834 0 0.0139178)
(0.0205019 0 0.0185679)
(0.0284641 0 0.0234989)
(0.0364308 0 0.0280244)
(0.0445148 0 0.0321971)
(0.0526608 0 0.0378905)
(0.061057 0 0.0447592)
(0.0693054 0 0.0483625)
(0.0779453 0 0.050644)
(0.0867819 0 0.0595034)
(0.0962541 0 0.0701269)
(0.106051 0 0.0712455)
(0.116892 0 0.071066)
(0.165146 0 0.0832848)
(0.213648 0 0.0890335)
(0.324006 0 0.0925547)
(0.440283 0 0.0942577)
(0.431768 0 0.10014)
(0.446073 0 0.103281)
(0.28561 0 0.121196)
(0.0999471 0 0.123935)
(0.0435943 0 0.100879)
(-0.033352 0 0.0726774)
(-0.0356693 0 0.0444422)
(-0.0345943 0 0.013656)
(-0.0248377 0 -0.0144682)
(-0.0122495 0 -0.0400948)
(-0.0187551 0 0.00474224)
(-0.0108747 0 0.00939311)
(-0.00309976 0 0.0139915)
(0.00477428 0 0.0185793)
(0.0125919 0 0.0234009)
(0.0204429 0 0.0277893)
(0.0283098 0 0.0318331)
(0.0362201 0 0.0372739)
(0.0442526 0 0.0439068)
(0.0521562 0 0.0473126)
(0.0602809 0 0.0494388)
(0.0685612 0 0.0580925)
(0.0772753 0 0.0689587)
(0.0861959 0 0.0697734)
(0.0959104 0 0.068897)
(0.143897 0 0.0823988)
(0.192762 0 0.0892684)
(0.298191 0 0.0941921)
(0.410021 0 0.0980418)
(0.378899 0 0.10808)
(0.369613 0 0.118532)
(0.236745 0 0.138677)
(0.0743356 0 0.150578)
(0.0361769 0 0.133876)
(-0.022033 0 0.114461)
(-0.026443 0 0.0953736)
(-0.0305195 0 0.0684562)
(-0.0231179 0 0.0424952)
(-0.0134286 0 0.0139127)
(-0.0343531 0 0.00484041)
(-0.0264293 0 0.00955849)
(-0.0186565 0 0.0141833)
(-0.0107594 0 0.0187584)
(-0.00299305 0 0.0235164)
(0.00484187 0 0.0277968)
(0.0125871 0 0.031711)
(0.0203701 0 0.0369238)
(0.0281653 0 0.0433032)
(0.0358571 0 0.0464561)
(0.0436184 0 0.0483339)
(0.0514777 0 0.0566552)
(0.059592 0 0.0674976)
(0.0677959 0 0.067833)
(0.0765401 0 0.0660874)
(0.123006 0 0.0802551)
(0.171395 0 0.0878371)
(0.268286 0 0.0937576)
(0.373258 0 0.0994253)
(0.322566 0 0.113391)
(0.289354 0 0.130599)
(0.187006 0 0.149253)
(0.0509015 0 0.161974)
(0.0273446 0 0.150488)
(-0.0109042 0 0.139514)
(-0.0153644 0 0.128366)
(-0.0207707 0 0.109376)
(-0.0172565 0 0.0906321)
(-0.0108181 0 0.0651747)
(-0.0500381 0 0.00496602)
(-0.0420284 0 0.00978448)
(-0.034217 0 0.0144774)
(-0.0262491 0 0.019094)
(-0.0184552 0 0.023846)
(-0.0105603 0 0.0280668)
(-0.00283127 0 0.0318752)
(0.00493873 0 0.0369158)
(0.0126092 0 0.0430702)
(0.0202252 0 0.0459614)
(0.0277835 0 0.0475522)
(0.035372 0 0.0554943)
(0.0430594 0 0.0661432)
(0.0507494 0 0.065925)
(0.0587456 0 0.0632707)
(0.102008 0 0.0776346)
(0.14875 0 0.085559)
(0.232885 0 0.0925089)
(0.328137 0 0.0998126)
(0.267917 0 0.117743)
(0.214295 0 0.14013)
(0.141713 0 0.152588)
(0.0366481 0 0.162478)
(0.0210857 0 0.156566)
(-0.00234865 0 0.151974)
(-0.0060647 0 0.146176)
(-0.0108133 0 0.134859)
(-0.00991004 0 0.123436)
(-0.00689494 0 0.105289)
(-0.0658612 0 0.00511215)
(-0.0577546 0 0.0100474)
(-0.0498802 0 0.0148423)
(-0.0418003 0 0.0195553)
(-0.0339375 0 0.0243624)
(-0.0259316 0 0.0285816)
(-0.0181323 0 0.0323267)
(-0.0102871 0 0.0372783)
(-0.00262068 0 0.043269)
(0.0050562 0 0.0459232)
(0.0125504 0 0.0472315)
(0.0200189 0 0.0548115)
(0.0274553 0 0.0651804)
(0.0348444 0 0.0644008)
(0.0423322 0 0.0608857)
(0.0804086 0 0.0751278)
(0.123863 0 0.0830868)
(0.193221 0 0.0913429)
(0.275133 0 0.100248)
(0.216464 0 0.121191)
(0.152748 0 0.146992)
(0.103632 0 0.150461)
(0.0294217 0 0.156574)
(0.0187119 0 0.156361)
(0.00343339 0 0.156337)
(0.000464502 0 0.153599)
(-0.00324343 0 0.148171)
(-0.0038715 0 0.142361)
(-0.00314368 0 0.131367)
(-0.0818215 0 0.00526184)
(-0.0736346 0 0.0103163)
(-0.0657026 0 0.0152321)
(-0.0575032 0 0.0200943)
(-0.0495485 0 0.0250159)
(-0.0413925 0 0.0292937)
(-0.0334794 0 0.0330281)
(-0.0254999 0 0.0379863)
(-0.0177406 0 0.0439018)
(-0.00989708 0 0.0463805)
(-0.0023206 0 0.0474414)
(0.00517896 0 0.0547185)
(0.0125152 0 0.0647897)
(0.0198042 0 0.0634913)
(0.0270216 0 0.0592119)
(0.0578602 0 0.0731397)
(0.096052 0 0.0809029)
(0.15096 0 0.0907214)
(0.217967 0 0.101349)
(0.168948 0 0.122832)
(0.106959 0 0.149618)
(0.0742396 0 0.145969)
(0.0240372 0 0.149382)
(0.0168412 0 0.153323)
(0.00650426 0 0.155445)
(0.00431282 0 0.154758)
(0.00161535 0 0.153247)
(0.000211207 0 0.151107)
(-0.000400567 0 0.145665)
(-0.0978631 0 0.00538809)
(-0.0896415 0 0.0105551)
(-0.0816857 0 0.0155963)
(-0.0733923 0 0.0206472)
(-0.0653543 0 0.0257378)
(-0.057046 0 0.0301307)
(-0.0489982 0 0.0339105)
(-0.0408408 0 0.0389746)
(-0.0329375 0 0.0449139)
(-0.0248623 0 0.047299)
(-0.0170925 0 0.0481828)
(-0.00943367 0 0.0552734)
(-0.00203113 0 0.0650762)
(0.00535043 0 0.0633218)
(0.0124918 0 0.0584069)
(0.0342906 0 0.0719326)
(0.0651627 0 0.0793459)
(0.107193 0 0.0907707)
(0.159978 0 0.103257)
(0.125369 0 0.123235)
(0.0732288 0 0.148287)
(0.0523508 0 0.141411)
(0.0190915 0 0.14306)
(0.014585 0 0.148645)
(0.00787775 0 0.151611)
(0.00619034 0 0.152593)
(0.0041806 0 0.153426)
(0.0025243 0 0.153418)
(0.0012508 0 0.151647)
(-0.113875 0 0.00546561)
(-0.105694 0 0.0107237)
(-0.097776 0 0.0158832)
(-0.0894465 0 0.0211421)
(-0.0813688 0 0.0264418)
(-0.0729385 0 0.0309986)
(-0.06477 0 0.0348782)
(-0.0564312 0 0.0401456)
(-0.0483591 0 0.0462086)
(-0.0400082 0 0.0485946)
(-0.0319899 0 0.0493934)
(-0.0240849 0 0.0564282)
(-0.0164886 0 0.0660495)
(-0.00885661 0 0.063977)
(-0.00156756 0 0.0585637)
(0.0101075 0 0.0716369)
(0.0317962 0 0.0786202)
(0.0626952 0 0.0913178)
(0.103118 0 0.105602)
(0.085308 0 0.123225)
(0.0481772 0 0.145695)
(0.0357718 0 0.137281)
(0.0145848 0 0.138114)
(0.0119097 0 0.143893)
(0.0077179 0 0.146711)
(0.00664544 0 0.148731)
(0.00523429 0 0.150909)
(0.00358953 0 0.152032)
(0.00204924 0 0.152452)
(-0.129689 0 0.00547289)
(-0.121653 0 0.010781)
(-0.113865 0 0.0160342)
(-0.105588 0 0.021499)
(-0.0975464 0 0.0270286)
(-0.0890598 0 0.0317867)
(-0.0808202 0 0.0358138)
(-0.0723335 0 0.041373)
(-0.0641064 0 0.0476551)
(-0.0554803 0 0.0501448)
(-0.0471883 0 0.0509652)
(-0.0389723 0 0.0580756)
(-0.0311055 0 0.0676136)
(-0.0231465 0 0.0653855)
(-0.0155636 0 0.0596821)
(-0.0140931 0 0.0724026)
(-0.00258081 0 0.0788875)
(0.0181114 0 0.0919688)
(0.0480786 0 0.107579)
(0.0484917 0 0.123294)
(0.0286661 0 0.143803)
(0.0226033 0 0.134362)
(0.0101286 0 0.134697)
(0.00889318 0 0.13978)
(0.0064624 0 0.141953)
(0.00604278 0 0.144585)
(0.00518083 0 0.14722)
(0.00379293 0 0.14876)
(0.00228844 0 0.150361)
(-0.145087 0 0.00539173)
(-0.137328 0 0.0106867)
(-0.129785 0 0.0159884)
(-0.121682 0 0.0216343)
(-0.113782 0 0.027393)
(-0.10534 0 0.032373)
(-0.0971142 0 0.0365839)
(-0.0885516 0 0.0425079)
(-0.080223 0 0.049093)
(-0.0713636 0 0.0517902)
(-0.0628165 0 0.0527491)
(-0.0542699 0 0.0600684)
(-0.0460866 0 0.0696176)
(-0.0377533 0 0.067421)
(-0.0298116 0 0.0616641)
(-0.0376088 0 0.0741166)
(-0.0363127 0 0.080175)
(-0.0264981 0 0.0927097)
(-0.00602882 0 0.108707)
(0.0119998 0 0.12397)
(0.0117373 0 0.143142)
(0.0120858 0 0.13313)
(0.00577568 0 0.13285)
(0.00557065 0 0.136846)
(0.00450427 0 0.138145)
(0.0047346 0 0.140878)
(0.00445712 0 0.14349)
(0.00342659 0 0.144983)
(0.00214553 0 0.147)
(-0.159819 0 0.0052074)
(-0.152481 0 0.0104067)
(-0.145319 0 0.0156892)
(-0.137536 0 0.0214676)
(-0.129912 0 0.0274302)
(-0.121649 0 0.0326304)
(-0.113557 0 0.0370447)
(-0.105028 0 0.0433853)
(-0.0966897 0 0.0503402)
(-0.0876816 0 0.0533427)
(-0.0789423 0 0.0545585)
(-0.0700914 0 0.0622134)
(-0.0615908 0 0.0718669)
(-0.0528828 0 0.0699134)
(-0.0445543 0 0.0643721)
(-0.0598757 0 0.0766175)
(-0.0678819 0 0.0823251)
(-0.0698193 0 0.0934624)
(-0.0595605 0 0.10896)
(-0.0212179 0 0.124937)
(-0.00340273 0 0.143698)
(0.00105699 0 0.132925)
(0.0016464 0 0.132314)
(0.00242584 0 0.135529)
(0.00228741 0 0.135807)
(0.00295197 0 0.138112)
(0.00328699 0 0.140395)
(0.00272768 0 0.141534)
(0.00176925 0 0.143494)
(-0.173603 0 0.00490974)
(-0.166846 0 0.00991308)
(-0.160212 0 0.0150884)
(-0.152912 0 0.0209275)
(-0.145716 0 0.0270429)
(-0.137796 0 0.0324358)
(-0.129988 0 0.0370506)
(-0.121639 0 0.0438323)
(-0.113424 0 0.0512011)
(-0.104393 0 0.0545928)
(-0.0955681 0 0.056177)
(-0.0864869 0 0.0642822)
(-0.0777166 0 0.0741253)
(-0.0686813 0 0.0726368)
(-0.0599868 0 0.0676148)
(-0.0807807 0 0.0797126)
(-0.0963606 0 0.0851419)
(-0.111633 0 0.0943829)
(-0.112422 0 0.108455)
(-0.057319 0 0.125856)
(-0.0187465 0 0.145341)
(-0.0069222 0 0.134174)
(-0.00261331 0 0.132979)
(-0.000666833 0 0.135444)
(0.000125649 0 0.134913)
(0.00107472 0 0.136785)
(0.00178459 0 0.138436)
(0.00175879 0 0.13897)
(0.0012553 0 0.140554)
(-0.186157 0 0.00449535)
(-0.180135 0 0.0091893)
(-0.174176 0 0.0141511)
(-0.167532 0 0.0199553)
(-0.16093 0 0.0261468)
(-0.153536 0 0.0316757)
(-0.146186 0 0.0364623)
(-0.138199 0 0.0436773)
(-0.130273 0 0.0514754)
(-0.121389 0 0.0553187)
(-0.112629 0 0.0573683)
(-0.103439 0 0.066019)
(-0.0944972 0 0.0761288)
(-0.0852249 0 0.0753235)
(-0.0762343 0 0.0711417)
(-0.100507 0 0.0831386)
(-0.121603 0 0.0883869)
(-0.151462 0 0.0957412)
(-0.165153 0 0.107756)
(-0.0926912 0 0.127277)
(-0.0360629 0 0.147913)
(-0.0182313 0 0.136468)
(-0.00684201 0 0.134806)
(-0.00390178 0 0.13672)
(-0.00202434 0 0.135388)
(-0.000741158 0 0.136716)
(0.000208288 0 0.137797)
(0.000672395 0 0.137701)
(0.000667215 0 0.138673)
(-0.197207 0 0.00397124)
(-0.192058 0 0.00823363)
(-0.186916 0 0.0128611)
(-0.181097 0 0.0185144)
(-0.175254 0 0.0246804)
(-0.168579 0 0.0302564)
(-0.161875 0 0.0351573)
(-0.154455 0 0.0427594)
(-0.147013 0 0.0509682)
(-0.138485 0 0.0552951)
(-0.129984 0 0.0578845)
(-0.12086 0 0.0671505)
(-0.111893 0 0.0775937)
(-0.102516 0 0.0776702)
(-0.093346 0 0.0746467)
(-0.119376 0 0.0865826)
(-0.143989 0 0.0917689)
(-0.188866 0 0.0976081)
(-0.216943 0 0.107476)
(-0.130019 0 0.128627)
(-0.0557213 0 0.151421)
(-0.0289217 0 0.13954)
(-0.0110055 0 0.137429)
(-0.00692346 0 0.139019)
(-0.00407732 0 0.137219)
(-0.00259681 0 0.137956)
(-0.00135891 0 0.138421)
(-0.000400323 0 0.137643)
(6.84224e-05 0 0.138023)
(-0.206524 0 0.0033598)
(-0.20235 0 0.00706746)
(-0.198137 0 0.0112278)
(-0.193298 0 0.0165949)
(-0.188372 0 0.0226126)
(-0.182605 0 0.0281162)
(-0.176734 0 0.0330426)
(-0.170101 0 0.0409424)
(-0.163358 0 0.0495044)
(-0.155425 0 0.0543062)
(-0.147411 0 0.0574736)
(-0.138578 0 0.0673898)
(-0.129789 0 0.0782169)
(-0.120476 0 0.0793505)
(-0.111285 0 0.0777713)
(-0.137754 0 0.0896845)
(-0.164174 0 0.0949645)
(-0.223323 0 0.0998641)
(-0.266433 0 0.107842)
(-0.169294 0 0.129597)
(-0.080107 0 0.155332)
(-0.0420676 0 0.144111)
(-0.0154456 0 0.141185)
(-0.0100922 0 0.142309)
(-0.00616085 0 0.140199)
(-0.00431729 0 0.140296)
(-0.0028922 0 0.140219)
(-0.00146138 0 0.138879)
(-0.000525458 0 0.138613)
(-0.213963 0 0.00261084)
(-0.210745 0 0.00574305)
(-0.207569 0 0.00929173)
(-0.203843 0 0.014222)
(-0.199965 0 0.0199512)
(-0.195275 0 0.0252334)
(-0.190417 0 0.0300666)
(-0.184787 0 0.0381317)
(-0.178962 0 0.0469467)
(-0.171883 0 0.0521637)
(-0.164611 0 0.0558977)
(-0.15633 0 0.0664569)
(-0.147971 0 0.0776997)
(-0.138934 0 0.0800084)
(-0.12992 0 0.080125)
(-0.155962 0 0.0920548)
(-0.182899 0 0.097619)
(-0.253997 0 0.102226)
(-0.311582 0 0.108736)
(-0.210769 0 0.129571)
(-0.111223 0 0.15804)
(-0.0579981 0 0.149709)
(-0.0199908 0 0.1464)
(-0.0134652 0 0.146997)
(-0.00838505 0 0.144408)
(-0.00616239 0 0.143697)
(-0.00442254 0 0.143091)
(-0.00248199 0 0.141234)
(-0.00108774 0 0.140407)
(-0.2173 0 0.00409532)
(-0.219174 0 0.00177166)
(-0.214965 0 0.00701131)
(-0.212482 0 0.0114528)
(-0.209742 0 0.0167442)
(-0.206266 0 0.0216378)
(-0.202567 0 0.0262329)
(-0.198139 0 0.0342863)
(-0.193441 0 0.0432111)
(-0.187474 0 0.04873)
(-0.181205 0 0.0529628)
(-0.173767 0 0.064098)
(-0.166128 0 0.0757609)
(-0.157628 0 0.0792839)
(-0.149028 0 0.0812894)
(-0.174145 0 0.0932689)
(-0.200761 0 0.099356)
(-0.280225 0 0.104232)
(-0.350172 0 0.109795)
(-0.254262 0 0.128072)
(-0.150844 0 0.15757)
(-0.0778873 0 0.155641)
(-0.0245785 0 0.152943)
(-0.0166247 0 0.152674)
(-0.010431 0 0.149819)
(-0.00796344 0 0.148296)
(-0.00591007 0 0.14705)
(-0.00353104 0 0.144624)
(-0.00164328 0 0.143295)
(-0.219032 0 0.00822579)
(-0.22022 0 0.00438283)
(-0.222671 0 0.00109447)
(-0.222346 0 -0.000251786)
(-0.217454 0 0.0130388)
(-0.215324 0 0.0174068)
(-0.212851 0 0.0216056)
(-0.209785 0 0.0294384)
(-0.206389 0 0.0382903)
(-0.201772 0 0.0439339)
(-0.196765 0 0.0485387)
(-0.190463 0 0.0601194)
(-0.183838 0 0.0721275)
(-0.176215 0 0.0768346)
(-0.168318 0 0.0808235)
(-0.192322 0 0.0929113)
(-0.218143 0 0.0998083)
(-0.302955 0 0.105332)
(-0.381826 0 0.110539)
(-0.299167 0 0.125811)
(-0.20067 0 0.153617)
(-0.102857 0 0.161443)
(-0.0295004 0 0.160552)
(-0.0195366 0 0.158879)
(-0.0119655 0 0.155996)
(-0.00941714 0 0.153666)
(-0.00714768 0 0.151908)
(-0.00450861 0 0.149082)
(-0.00221756 0 0.147223)
(-0.222179 0 0.012623)
(-0.223048 0 0.00889471)
(-0.224875 0 0.00237184)
(-0.223922 0 -0.00243456)
(-0.220859 0 -0.00344992)
(-0.213088 0 -0.00263336)
(-0.221001 0 0.0162894)
(-0.219435 0 0.023699)
(-0.217422 0 0.0322728)
(-0.21433 0 0.0378071)
(-0.210801 0 0.0425883)
(-0.205926 0 0.0543921)
(-0.200622 0 0.0665674)
(-0.194256 0 0.0724043)
(-0.187429 0 0.0782862)
(-0.210368 0 0.0905786)
(-0.235235 0 0.0986317)
(-0.323235 0 0.104986)
(-0.408061 0 0.110409)
(-0.344933 0 0.123539)
(-0.259881 0 0.147776)
(-0.133444 0 0.166178)
(-0.0349001 0 0.168793)
(-0.0222266 0 0.16506)
(-0.0127302 0 0.162377)
(-0.0103426 0 0.159383)
(-0.00803453 0 0.157257)
(-0.00528839 0 0.154239)
(-0.00275189 0 0.151999)
(-0.226794 0 0.0172272)
(-0.226859 0 0.0103956)
(-0.22845 0 0.00389512)
(-0.227463 0 -0.00187047)
(-0.223558 0 -0.00663026)
(-0.215388 0 -0.00957844)
(-0.20682 0 -0.00839672)
(-0.192224 0 -0.00570676)
(-0.226244 0 0.0253396)
(-0.224774 0 0.0305101)
(-0.222816 0 0.0352068)
(-0.21961 0 0.0469212)
(-0.215898 0 0.0589915)
(-0.21117 0 0.0657749)
(-0.205846 0 0.0732925)
(-0.227987 0 0.0858844)
(-0.252012 0 0.0955211)
(-0.341877 0 0.102644)
(-0.430566 0 0.108816)
(-0.389014 0 0.120884)
(-0.323327 0 0.141154)
(-0.168752 0 0.167571)
(-0.0411392 0 0.176958)
(-0.0247788 0 0.170431)
(-0.0125547 0 0.168307)
(-0.0105824 0 0.164943)
(-0.00846139 0 0.162652)
(-0.00582163 0 0.159664)
(-0.00319602 0 0.15722)
(-0.232755 0 0.0223451)
(-0.232756 0 0.0177114)
(-0.233769 0 0.00564293)
(-0.231924 0 -0.00508817)
(-0.227847 0 -0.00983342)
(-0.218868 0 -0.0132186)
(-0.209914 0 -0.0160587)
(-0.19635 0 -0.0174972)
(-0.184309 0 -0.0143467)
(-0.159221 0 -0.00983112)
(-0.232396 0 0.0266568)
(-0.231009 0 0.0379064)
(-0.22906 0 0.0495891)
(-0.226229 0 0.0569051)
(-0.222792 0 0.0655831)
(-0.244685 0 0.0784018)
(-0.268195 0 0.0902121)
(-0.359328 0 0.0977294)
(-0.45068 0 0.105142)
(-0.429961 0 0.117109)
(-0.386195 0 0.133847)
(-0.207616 0 0.165296)
(-0.051274 0 0.182942)
(-0.0275292 0 0.174605)
(-0.0115108 0 0.172978)
(-0.0100278 0 0.16972)
(-0.00826674 0 0.167507)
(-0.00600052 0 0.164812)
(-0.00349218 0 0.162389)
(-0.239632 0 0.0277919)
(-0.239326 0 0.0173416)
(-0.240549 0 0.00781959)
(-0.239065 0 -0.00200401)
(-0.233872 0 -0.0125997)
(-0.224501 0 -0.0212013)
(-0.214658 0 -0.0235913)
(-0.200151 0 -0.0251646)
(-0.188237 0 -0.0264722)
(-0.168456 0 -0.0271577)
(-0.139469 0 -0.0218375)
(-0.112707 0 -0.0206971)
(-0.239564 0 0.0388703)
(-0.23869 0 0.0460157)
(-0.23729 0 0.0549656)
(-0.259849 0 0.0679022)
(-0.283309 0 0.0823967)
(-0.375735 0 0.0896641)
(-0.469221 0 0.0986677)
(-0.467249 0 0.111301)
(-0.445383 0 0.125798)
(-0.248424 0 0.159675)
(-0.0679304 0 0.184276)
(-0.0325866 0 0.177063)
(-0.00937355 0 0.175644)
(-0.00854299 0 0.173121)
(-0.00730365 0 0.171152)
(-0.00571626 0 0.169063)
(-0.0035742 0 0.166918)
(-0.247805 0 0.0336638)
(-0.247035 0 0.0275931)
(-0.248528 0 0.0102697)
(-0.246428 0 -0.00725551)
(-0.241361 0 -0.0154634)
(-0.23138 0 -0.0221168)
(-0.22108 0 -0.0305506)
(-0.207209 0 -0.0370402)
(-0.193654 0 -0.0376406)
(-0.174459 0 -0.0386496)
(-0.150836 0 -0.0391502)
(-0.13158 0 -0.0502888)
(-0.112936 0 -0.0467833)
(-0.0204483 0 -0.0278866)
(-0.248609 0 0.0416448)
(-0.272517 0 0.0547547)
(-0.296918 0 0.0714441)
(-0.391436 0 0.0782247)
(-0.486576 0 0.0886058)
(-0.501989 0 0.102596)
(-0.500476 0 0.116289)
(-0.289169 0 0.151626)
(-0.0908369 0 0.179963)
(-0.0404683 0 0.176148)
(-0.00564682 0 0.17563)
(-0.00577041 0 0.174429)
(-0.00526822 0 0.172887)
(-0.00481935 0 0.171709)
(-0.00336771 0 0.170119)
(-0.281059 0 0.0394011)
(-0.255909 0 0.0273724)
(-0.257621 0 0.0135251)
(-0.25647 0 -0.00103754)
(-0.250252 0 -0.0180368)
(-0.239522 0 -0.0325346)
(-0.22845 0 -0.0374735)
(-0.214178 0 -0.040707)
(-0.200837 0 -0.0470669)
(-0.185525 0 -0.0533509)
(-0.163149 0 -0.0533567)
(-0.1442 0 -0.0671419)
(-0.133125 0 -0.0774735)
(-0.0710568 0 -0.0750084)
(0.0219322 0 -0.0550371)
(0.0800385 0 -0.0600703)
(-0.307533 0 0.0570499)
(-0.405107 0 0.0629502)
(-0.502401 0 0.0740473)
(-0.533486 0 0.0902282)
(-0.551341 0 0.103514)
(-0.328425 0 0.140496)
(-0.116611 0 0.169877)
(-0.0501147 0 0.170492)
(-0.00035072 0 0.171958)
(-0.00143534 0 0.172339)
(-0.00171104 0 0.171742)
(-0.00305061 0 0.171916)
(-0.00275505 0 0.171188)
(-0.411472 0 0.0436897)
(-0.312989 0 0.0422166)
(-0.289848 0 0.0170705)
(-0.266185 0 -0.00895035)
(-0.260518 0 -0.020936)
(-0.24869 0 -0.0301434)
(-0.236734 0 -0.0446633)
(-0.221657 0 -0.0546639)
(-0.207937 0 -0.0561517)
(-0.193279 0 -0.0578025)
(-0.176264 0 -0.063711)
(-0.16347 0 -0.0804554)
(-0.152087 0 -0.0930961)
(-0.113391 0 -0.0967615)
(-0.0457277 0 -0.094294)
(0.000618776 0 -0.119144)
(0.0584067 0 -0.11669)
(0.27732 0 -0.0598973)
(-0.513774 0 0.0543806)
(-0.558326 0 0.0717306)
(-0.594132 0 0.0848275)
(-0.363351 0 0.122686)
(-0.141261 0 0.152498)
(-0.0593811 0 0.158864)
(0.00661046 0 0.163245)
(0.00474682 0 0.165397)
(0.00364632 0 0.166429)
(-0.000165618 0 0.168486)
(-0.00157276 0 0.169083)
(-0.566044 0 0.0439246)
(-0.514073 0 0.0352874)
(-0.412766 0 0.0199815)
(-0.321427 0 0.00489129)
(-0.29264 0 -0.0231564)
(-0.260227 0 -0.0463211)
(-0.246855 0 -0.0524331)
(-0.229384 0 -0.0548969)
(-0.215096 0 -0.0655735)
(-0.199983 0 -0.072842)
(-0.185707 0 -0.0731337)
(-0.173209 0 -0.0800617)
(-0.166895 0 -0.0963212)
(-0.15711 0 -0.110068)
(-0.110357 0 -0.112582)