/*--------------------------------*- C++ -*----------------------------------*\
| =========                 |                                                 |
| \\      /  F ield         | OpenFOAM: The Open Source CFD Toolbox           |
|  \\    /   O peration     | Version:  5.x                                   |
|   \\  /    A nd           | Web:      www.OpenFOAM.org                      |
|    \\/     M anipulation  |                                                 |
\*---------------------------------------------------------------------------*/
FoamFile
{
    version     2.0;
    format      ascii;
    class       volScalarField;
    location    "2.7";
    object      alpha.water;
}
// * * * * * * * * * * * * * * * * * * * * * * * * * * * * * * * * * * * * * //

dimensions      [0 0 0 0 0 0 0];

internalField   nonuniform List<scalar> 
12160
(
1
1
1
1
1
1
1
1
1
1
1
1
1
1
1
1
1
1
1
1
1
1
1
1
1
1
1
1
1
1
1
1
1
1
0.999996
1
1
1
1
1
1
1
0.999998
0.994625
0.510287
1
1
1
1
1
1
1
0.995835
0.613655
0.0356936
1
1
1
1
1
1
1
0.998092
0.6526
0.0532125
0.00125825
1
1
1
1
1
1
0.999999
0.998365
0.717855
0.0639058
0.000909574
1.70919e-05
1
1
1
1
1
1
0.999998
0.998205
0.768218
0.0942438
0.000793313
6.99234e-06
2.27838e-08
1
1
1
1
1
1
0.999996
0.997922
0.817891
0.125604
0.000412371
3.5291e-06
2.17928e-09
4.74141e-12
1
1
1
1
1
1
0.999995
0.99789
0.860962
0.167455
0.00119039
2.5078e-07
4.78142e-09
9.50459e-13
2.67387e-16
1
1
1
1
1
1
0.999995
0.998005
0.894598
0.216774
0.00379624
7.64562e-07
4.00939e-11
1.35053e-12
6.66259e-18
1
1
1
1
1
1
0.999996
0.998108
0.917538
0.272746
0.0080422
5.11514e-06
5.02626e-11
3.13184e-14
1.37374e-16
1
1
1
1
1
1
0.999997
0.99823
0.931952
0.327793
0.0139916
1.30438e-05
3.72641e-10
5.46525e-15
2.67701e-18
1
1
1
1
1
1
0.999998
0.998422
0.940654
0.374238
0.0213869
3.97648e-05
1.08327e-09
1.51465e-14
5.54472e-19
1
1
1
1
1
1
0.999999
0.998747
0.946338
0.409275
0.029159
8.3973e-05
5.3712e-09
4.08829e-14
9.98499e-19
1
1
1
1
1
1
1
0.99917
0.948201
0.435637
0.0361767
0.000138944
1.0198e-08
1.36231e-13
2.22793e-18
1
1
1
1
1
1
1
0.99949
0.946754
0.455877
0.041805
0.000194285
2.1153e-08
1.63522e-13
4.94377e-18
1
1
1
1
1
1
1
0.999454
0.944495
0.470738
0.0465605
0.000349038
5.9022e-08
3.21882e-13
4.63217e-18
1
1
1
1
1
1
0.999999
0.999188
0.939677
0.475695
0.0502351
0.000794211
3.89671e-07
1.71064e-12
6.84075e-18
0.999999
0.999999
1
1
1
1
0.999995
0.998561
0.928882
0.465166
0.0515313
0.00124919
1.67947e-06
3.9103e-11
5.68153e-17
1
1
0.999999
1
1
1
0.999972
0.996759
0.908739
0.431047
0.0492609
0.00158045
4.34412e-06
3.82892e-10
1.09934e-15
1
1
1
1
1
1
0.999916
0.992961
0.87369
0.374134
0.0421568
0.00167216
8.11861e-06
2.10784e-09
1.55479e-14
1
1
1
1
1
1
0.999812
0.987316
0.824143
0.302046
0.0311994
0.00152955
1.0773e-05
6.00481e-09
9.58671e-14
1
1
1
1
1
0.999999
0.999656
0.979485
0.764507
0.223629
0.0197159
0.00108483
1.18035e-05
8.22631e-09
2.97621e-13
1
0.999999
1
1
1
0.999999
0.999471
0.969919
0.695168
0.152707
0.0113652
0.000626301
1.07506e-05
8.8465e-09
3.59096e-13
0.999999
0.999999
0.999999
1
1
0.999999
0.99931
0.960308
0.627436
0.103187
0.00654515
0.000383004
6.3308e-06
8.76252e-09
3.6143e-13
0.999999
0.999999
0.999999
0.999999
1
0.999999
0.999239
0.95296
0.571931
0.0721804
0.00394327
0.000246334
3.04079e-06
6.76864e-09
6.37157e-13
1
1
0.999999
0.999999
1
0.999999
0.999281
0.949546
0.535151
0.0543137
0.00255097
0.000156655
2.16649e-06
6.19577e-09
8.10885e-13
1
1
1
0.999999
0.999999
0.999999
0.999395
0.950765
0.518247
0.0447653
0.00188657
9.84614e-05
1.92041e-06
9.28727e-09
1.2173e-12
1
1
1
1
1
0.999999
0.999544
0.955164
0.521529
0.0404601
0.00158425
7.04972e-05
1.55582e-06
1.29297e-08
2.34775e-12
1
1
1
1
1
1
0.999681
0.961748
0.539109
0.0403669
0.00143837
6.04117e-05
1.15167e-06
1.193e-08
3.24743e-12
1
1
1
1
1
1
0.999784
0.968559
0.569156
0.0429473
0.00140822
5.41099e-05
9.35351e-07
8.682e-09
2.58624e-12
1
1
1
1
1
1
0.999858
0.974436
0.604996
0.0481945
0.00144244
4.98536e-05
7.0341e-07
7.36265e-09
1.5509e-12
1
1
1
1
1
1
0.999916
0.979179
0.641247
0.0554818
0.00151999
4.61183e-05
4.68918e-07
5.68871e-09
1.27607e-12
1
1
1
1
1
1
0.999956
0.983367
0.676903
0.0647566
0.00163769
4.12396e-05
3.59061e-07
3.00141e-09
9.11921e-13
1
1
1
1
1
1
0.999958
0.987431
0.711343
0.0779768
0.00185603
2.80571e-05
3.29413e-07
1.3234e-09
4.04011e-13
1
1
1
1
1
1
0.999947
0.989657
0.736906
0.0987992
0.00235514
1.59852e-05
2.38392e-07
7.03251e-10
1.4073e-13
1
1
1
1
1
1
0.999922
0.990658
0.761273
0.128364
0.00356301
1.45619e-05
1.33774e-07
3.34405e-10
4.75506e-14
1
1
1
1
1
1
0.999889
0.991244
0.785195
0.161178
0.00592071
2.96077e-05
7.46484e-08
1.22378e-10
1.13526e-14
1
1
1
1
1
1
0.999849
0.991724
0.806992
0.189943
0.00926319
8.28983e-05
5.19789e-08
4.41415e-11
2.4272e-15
0.999805
0.999999
1
1
1
1
1
0.992068
0.82463
0.213003
0.0126225
0.000158226
8.01218e-08
1.629e-11
8.31374e-16
0.992245
0.999731
0.999999
1
1
1
1
1
0.83756
0.231659
0.0154366
0.000241937
4.14774e-07
1.40217e-11
4.51696e-16
0.845576
0.992299
0.999596
0.999997
1
1
1
1
1
0.245874
0.0175499
0.000314972
9.29277e-07
1.09034e-10
1.23935e-15
0.255518
0.85002
0.991257
0.999408
0.999993
1
1
1
1
1
0.0189602
0.000359166
1.34452e-06
4.76475e-10
6.55005e-15
0.0199039
0.263424
0.838267
0.988827
0.998936
0.999975
0.999993
0.999999
1
1
1
0.000379014
1.49458e-06
8.27248e-10
2.88528e-14
0.000395552
0.0211344
0.256138
0.811505
0.983801
0.997826
0.999346
0.999822
0.999991
1
1
0.999999
1.52697e-06
9.05371e-10
5.69331e-14
1.63161e-06
0.000458316
0.0223803
0.238147
0.76961
0.976536
0.989754
0.995627
0.999634
0.999997
1
1
0.999997
0.999998
8.88594e-10
6.33285e-14
2.81046e-15
3.28909e-06
0.000979453
0.02294
0.211713
0.722061
0.961864
0.968599
0.995102
0.999938
0.999999
1
1
0.99998
0.999985
0.999998
6.27911e-14
2.81046e-15
8.48355e-08
9.40809e-05
0.0019942
0.0197462
0.178175
0.67731
0.914038
0.964765
0.999432
0.999996
1
1
0.999999
0.999964
0.999849
0.999974
0.999998
1.45962e-09
1.54311e-05
0.000531773
0.002082
0.0145048
0.150262
0.640792
0.852135
0.98904
0.999987
1
1
1
0.999999
0.999884
0.999505
0.999662
0.999972
0.999996
8.85293e-07
0.000147768
0.000692157
0.00130689
0.0110388
0.13993
0.584791
0.854117
0.99825
1
1
0.999999
1
0.999998
0.999939
0.998695
0.99829
0.999609
0.999979
0.999951
1.60624e-05
0.000216063
0.000291829
0.00051233
0.00912381
0.159757
0.410449
0.926896
1
1
1
0.999999
0.999999
0.999997
0.99995
0.999055
0.996316
0.997843
0.999818
0.999971
0.999637
2.75608e-05
7.67508e-05
4.44657e-05
0.000177107
0.0114304
0.103968
0.371671
0.988726
1
1
0.999999
0.999994
0.999985
0.999942
0.999887
0.999777
0.999886
0.999895
0.99989
0.996737
0.996175
0.999698
0.999971
0.999769
0.998703
5.42554e-06
9.95026e-06
1.13945e-05
0.00016395
0.0130583
0.034862
0.746894
1
1
0.999999
0.999992
0.999968
0.999926
0.999856
0.999886
0.999778
0.998746
0.999878
0.999886
0.999879
0.999782
0.99975
0.999757
0.996176
0.998714
0.999958
0.999913
0.997353
0.997893
2.57025e-07
3.06034e-06
5.34785e-06
0.00046502
0.00351997
0.0334462
0.989694
1
1
0.999997
0.999981
0.999962
0.999938
0.999797
0.999749
0.999924
0.999899
0.999851
0.999356
0.996961
0.999712
0.999845
0.999831
0.999836
0.99936
0.999549
0.999538
0.996658
0.999893
0.99993
0.997919
0.981553
0.997503
5.10418e-08
1.86873e-06
4.14441e-06
0.000176806
0.000115771
0.221823
0.999057
1
1
0.999997
0.999991
0.999985
0.999963
0.999985
0.999974
0.999995
1
1
0.999952
0.999926
0.999144
1
0.99944
1
0.999449
0.996795
0.999277
0.999593
0.999523
0.999168
0.999176
0.999165
0.998815
0.998829
1
0.999455
1
0.999481
1
0.999637
1
0.999611
1
0.999596
1
0.999599
0.999642
0.999932
0.99814
0.960753
0.942183
0.997413
2.6552e-08
1.27282e-06
3.2413e-06
1.44494e-06
3.71969e-05
0.530765
0.999913
1
1
1
0.999999
0.999995
1
0.999997
1
0.999976
0.999992
0.999987
0.999998
1
0.999677
1
0.999998
1
1
0.999627
0.99997
1
0.999989
1
1
0.999978
1
0.999974
1
0.999967
1
0.999957
1
1
0.999316
1
0.999163
1
0.99953
1
0.999561
0.99908
0.998893
0.999571
0.999495
0.999537
0.999448
0.998135
0.998085
0.998856
0.998862
1
0.999309
1
0.999192
1
0.998772
1
0.998833
1
0.998778
1
0.998865
1
0.999465
1
0.99949
1
0.99964
1
0.999614
0.999931
0.999727
0.952608
0.761714
0.910161
0.997655
6.78911e-08
4.04868e-07
3.79625e-07
6.94406e-08
0.00358087
0.73115
0.99986
1
1
1
1
1
1
1
0.999997
1
0.999998
1
0.999986
1
0.999988
1
0.999995
1
0.999998
1
0.999994
1
0.999992
1
0.999999
1
0.999999
1
0.999862
0.999997
1
1
0.999983
1
0.999764
0.999972
1
1
0.999997
1
0.999988
1
0.999982
1
0.99998
1
0.999971
1
1
0.999406
1
0.999223
1
0.999589
1
0.999634
0.999879
0.999284
0.999608
0.999531
0.99957
0.999505
0.997666
0.997677
0.997745
0.997743
0.998205
1
0.998474
1
0.998124
1
0.998404
1
0.998818
0.998764
1
0.998854
1
1
0.998775
0.998746
1
0.998806
1
1
1
0.99936
1
0.999165
1
0.998844
1
0.998858
1
0.999609
1
0.999696
1
0.999765
1
0.99974
0.99993
0.995212
0.690201
0.511964
0.911762
0.998384
6.65019e-08
2.04756e-07
7.16153e-08
5.64728e-07
0.0348486
0.716168
0.999579
0.999996
0.999994
1
1
1
1
1
1
1
1
0.999998
1
0.999998
1
1
1
1
1
0.999999
1
0.999999
1
1
1
1
1
0.999993
1
0.999994
1
1
1
0.999998
1
0.999994
1
0.999993
1
0.999999
1
0.999999
1
1
0.99956
1
0.999388
0.99993
0.999809
0.999715
0.999659
0.999628
0.99957
0.998927
0.999121
0.997812
0.997911
0.997724
0.999876
0.997702
0.999995
0.997643
1
0.997628
1
0.997811
1
0.997774
1
0.997811
1
0.997691
1
0.998269
1
0.998576
1
0.998174
1
0.998574
1
0.998786
0.998781
1
1
0.998787
1
0.99875
0.998758
1
1
0.998763
1
1
0.999544
1
0.999434
1
0.999039
1
0.999068
0.999871
0.964975
0.419328
0.506056
0.972483
0.998443
4.97253e-08
4.04607e-08
2.70596e-06
0.0001491
0.0363162
0.606839
0.995865
0.999417
0.999982
1
1
1
1
1
1
1
1
0.999998
1
0.999998
1
1
1
1
1
1
1
0.999999
1
1
1
1
1
0.999998
1
0.999999
1
0.99993
0.999925
0.999851
0.999849
0.999816
0.999758
0.999581
0.999568
0.999455
0.999502
0.996358
1
0.997041
1
0.996449
1
0.996732
1
0.997553
1
0.997566
1
0.997542
1
0.997389
1
0.997436
0.999989
0.997434
1
0.997508
1
0.997461
1
0.997903
1
0.997636
1
0.997847
1
0.997585
1
0.999361
0.849359
0.419397
0.741319
0.992769
0.99825
7.32309e-09
2.10853e-06
0.00030417
0.00313041
0.0152156
0.382964
0.95926
0.983673
0.999958
0.999957
0.999994
0.999996
1
1
0.999999
0.999997
1
1
1
1
1
1
1
1
1
1
1
1
1
1
1
1
0.999998
1
0.999999
1
1
1
1
1
1
1
0.999999
1
1
1
1
1
0.999889
0.99964
0.999789
0.999649
0.999562
0.999709
0.999656
0.999078
0.998982
0.998476
0.99848
0.996359
1
0.997056
0.999943
0.996449
1
0.996927
0.999962
0.997358
0.999993
0.99729
0.999996
0.997478
0.999999
0.997348
0.999999
0.997421
0.999987
0.997304
0.999999
0.997502
0.700574
0.420349
0.918902
0.995746
0.998598
1.28774e-07
0.000229968
0.00334269
0.0120729
0.0477677
0.135915
0.710102
0.864416
1
1
0.994903
0.994787
1
1
1
1
1
1
1
1
1
1
1
1
1
1
1
1
1
1
1
1
1
1
1
1
1
1
1
1
1
1
0.999807
0.999193
0.99876
0.998756
0.998818
0.99916
0.999198
0.999333
0.999263
0.998979
0.998954
0.998505
0.996354
0.998581
0.996354
0.998658
0.996354
0.998659
0.996354
0.998777
0.996522
0.999695
0.996354
0.998929
0.996609
0.999664
0.996354
0.996901
0.999891
0.997144
0.999909
0.996897
0.99988
0.997115
0.999901
0.997351
0.999987
0.997293
0.999984
0.997311
0.999998
0.997247
0.99999
0.993587
0.752889
0.792932
0.984335
0.996587
2.88713e-05
0.00212659
0.00882874
0.019159
0.0492465
0.219369
0.245757
0.76848
0.76844
0.533593
0.533412
0.997917
1
0.997109
1
0.997834
1
0.996917
1
1
1
1
1
1
1
1
1
1
1
0.999497
1
0.999996
1
0.999394
1
0.99992
1
1
1
1
1
1
1
1
1
0.998288
0.999807
0.998192
0.997326
0.99736
0.997411
0.997168
0.997145
0.997112
0.996984
0.996354
0.998647
0.998975
0.996354
0.996354
0.99856
0.998854
0.996354
0.99785
0.996354
0.997875
0.996355
0.998821
0.996443
0.99896
0.996453
0.999088
0.996746
0.999558
0.996468
0.998951
0.996608
0.999325
0.996543
0.997058
0.999674
0.996781
0.999577
0.987649
0.862563
0.954232
0.99308
0.000400289
0.00374787
0.00661109
0.0135347
0.0545073
0.157953
0.210812
0.210939
0.301058
0.301273
0.591116
0.592474
0.302982
0.304468
0.995224
1
0.993391
1
0.995184
1
0.993335
1
0.997723
0.787862
0.96197
0.884908
0.99803
0.787404
0.961987
0.884477
1
1
1
1
1
1
1
0.999999
0.999238
1
0.99986
1
0.999287
1
0.999887
1
0.989145
0.997933
0.999583
0.997999
0.997777
0.997779
0.997504
0.997319
0.997296
0.997095
0.99635
0.99635
0.99635
0.996777
0.99635
0.99689
0.99635
0.99635
0.99635
0.997017
0.996371
0.998446
0.996354
0.997901
0.996378
0.998833
0.99641
0.998578
0.996354
0.997611
0.996358
0.998539
0.996392
0.998949
0.998405
0.996378
0.99817
0.996355
0.999177
0.996533
0.999328
0.996523
0.985881
0.944313
0.983504
0.000610396
0.00156143
0.00151893
0.00532695
0.0501844
0.0940121
0.268759
0.266322
0.318369
0.318505
0.43273
0.719405
0.540118
0.28433
0.45304
0.943559
0.719248
0.433952
0.943706
0.542937
0.285105
0.455472
0.08243
0.189267
0.095829
0.19607
0.0824616
0.18876
0.0973369
0.196978
0.991771
1
0.989603
1
0.991778
1
0.989607
1
0.984706
0.790003
0.98586
0.789441
1
0.999988
1
0.999982
0.995778
1
0.995778
1
0.988533
0.947999
0.99931
0.999486
0.998658
0.998877
0.998086
0.998276
0.998721
0.999078
0.998554
0.999065
0.999672
0.996931
0.999834
0.997012
0.998363
0.99635
0.999768
0.9971
0.99995
0.997292
0.998992
0.99635
0.996484
0.998106
0.996597
0.998837
0.996546
0.998875
0.996536
0.996426
0.99925
0.998546
0.996609
0.999282
0.996657
0.996501
0.999372
0.998444
0.996428
0.998444
0.996635
0.999371
0.978312
0.973277
0.00019031
0.000173039
0.000273818
0.00237843
0.00552049
0.0975162
0.0998264
0.0114214
0.0113428
0.311844
0.302525
0.307735
0.309256
0.604274
0.267207
0.278319
0.740907
0.122672
0.145802
0.604663
0.268319
0.741877
0.279023
0.12322
0.146009
0.0824241
0.263781
0.08243
0.0842491
0.08243
0.243779
0.0824241
0.0829222
0.923164
0.998355
0.922802
0.998657
0.996994
0.92128
0.936197
0.999102
0.99891
0.99904
0.99913
0.998803
0.999097
0.9982
1
0.998197
1
0.998196
1
0.998646
1
0.997676
0.996931
1
0.997983
1
1
0.998959
0.997105
1
0.998943
1
1
0.999951
0.999614
0.99705
0.996976
0.999983
0.999654
0.997538
0.997132
0.996989
0.999623
0.997144
0.999609
0.996926
0.999606
0.996564
0.999224
0.996953
0.999596
0.996712
0.999407
0.980294
5.53045e-06
2.9166e-05
0.000105336
0.000617222
0.00502151
0.0616033
0.0624615
0.0134649
0.0134625
0.500036
0.221636
0.512281
0.306634
0.50046
0.191518
0.512281
0.2919
0.231258
0.236867
0.141449
0.512281
0.0845715
0.23894
0.116288
0.493264
0.0824493
0.196231
0.997609
0.990657
0.887509
0.97914
0.998852
0.998271
0.998271
0.998409
0.998515
0.999176
0.999132
0.999181
0.999159
0.998258
1
0.99851
0.999998
0.998196
1
0.998606
0.999999
0.997677
0.998122
0.999985
0.999997
0.998183
0.999999
0.998683
0.999039
1
0.999999
0.998922
1
0.999941
0.997041
0.999941
0.997317
4.47887e-07
9.75054e-06
2.37698e-05
0.000263563
0.00180158
0.00180065
0.000497451
0.000496463
0.0294985
0.0297944
0.00795722
0.00792166
0.492002
0.29795
0.512281
0.318426
0.492093
0.276429
0.512281
0.316123
0.0909633
0.0740945
0.202801
0.322193
0.0923952
0.074269
0.206404
0.326699
0.161789
0.494968
0.139056
0.471356
0.999345
0.955985
0.887584
0.99501
0.998991
0.998506
0.998493
0.998186
0.998142
0.998663
0.998576
0.999939
0.998656
0.999917
0.998165
0.999943
0.998314
0.999946
0.998132
0.998796
0.999983
0.998723
1
0.998378
0.999977
0.998353
1
1.1098e-07
1.45118e-06
4.19482e-06
0.000231153
0.00145188
0.00144065
0.00052244
0.000522831
0.0855851
0.0660882
0.0129792
0.0241266
0.0254527
0.0121214
0.0872564
0.0667874
0.0132562
0.024568
0.026188
0.0121499
0.00613275
0.00601257
0.510685
0.276536
0.511232
0.303847
0.511322
0.268267
0.511212
0.304344
0.203135
0.195459
0.206825
0.197394
0.996589
0.919894
0.892114
0.996457
0.998431
0.998253
0.999382
0.999315
0.999251
0.999108
0.998133
0.998135
0.997539
0.999572
0.997917
0.999574
0.998147
0.999781
0.997495
0.999574
0.997923
0.999572
0.998133
0.999822
0.998439
0.999771
0.998215
0.999753
0.998704
0.999992
0.998249
0.999929
4.4668e-09
2.10388e-07
1.97849e-05
0.000414373
0.000414839
0.000314474
0.000313643
0.000784984
0.000792822
0.000570762
0.000572227
0.0548594
0.0350641
0.0164913
0.0173065
0.0291419
0.0118312
0.0562507
0.0355476
0.0167551
0.0172838
0.0290188
0.0117615
0.00114439
0.00107423
0.00268838
0.00268935
0.00114384
0.00107342
0.00265652
0.00272651
0.991649
0.91852
0.957037
0.988868
0.999273
0.9992
0.999437
0.999416
0.999104
0.99908
0.997546
0.999459
0.999946
0.997667
0.999331
0.997673
0.999954
0.99769
0.999306
0.9977
0.997502
0.999404
0.997977
0.998155
0.999498
0.999554
0.997999
0.998127
0.999442
0.999569
0.998187
0.999688
0.998125
0.999622
1.46118e-09
1.0455e-06
0.000168516
0.000399053
0.000408571
0.000289503
0.000287981
0.00116882
0.00142109
0.00111434
0.00103863
0.000793472
0.00101417
0.00116843
0.00140995
0.00094625
0.00102908
0.000812559
0.00100325
0.000805404
0.000830301
0.0131549
0.00743275
0.012625
0.00732891
0.00287905
0.00760421
0.00285376
0.00743448
0.989216
0.969969
0.978224
0.94083
0.940607
0.993826
0.99328
0.999516
0.999394
0.999741
0.999703
0.998699
1
0.998703
1
0.997845
0.999936
0.998622
0.99772
0.99993
1
0.998622
1
0.997573
0.999034
0.99769
0.999454
0.99767
0.99751
0.999389
0.998937
-2.48135e-30
1.68706e-05
0.000123851
0.00016641
0.000177371
0.000153708
0.000153155
0.00112389
0.00126381
0.00146388
0.00112965
0.00109862
0.000915676
0.00111796
0.0013346
0.0014632
0.00115711
0.000759397
0.000908828
0.00015899
0.000158978
0.00018845
0.000207839
0.000175502
0.000183441
0.000202626
0.000276273
0.00182394
0.00436991
0.00180683
0.00437517
0.99121
0.989942
0.977576
0.967107
0.962882
0.986752
0.986217
0.998457
0.998216
0.998994
1
1
0.999601
1
0.999653
0.998923
1
1
0.999598
1
0.999657
0.999018
0.998435
1
1
0.998302
1
0.99895
1
1.05268e-05
1.98013e-05
4.49052e-07
4.27282e-05
4.30533e-05
4.29895e-07
3.33438e-07
3.33827e-07
1.18699e-05
7.98821e-05
7.20178e-05
1.07353e-05
9.02175e-05
7.32429e-05
0.00122076
0.000851669
0.000712216
0.000587483
0.00115507
0.000211686
0.0012681
0.000778838
0.000565687
0.000622951
0.000584846
0.000229444
8.04737e-05
6.49239e-05
9.12276e-05
8.58357e-05
0.996356
0.994067
0.97685
0.971331
0.967091
0.980692
0.97938
0.987213
1
0.99704
1
0.999583
1
0.985507
0.999554
1
1
0.997215
1
0.999415
1
0.999737
1
0.999298
1
0.999707
1
0.999174
1
0.99908
1
3.01782e-05
5.83993e-07
4.31663e-06
4.83126e-07
4.60016e-06
5.04595e-07
3.47874e-07
3.33883e-07
2.68854e-07
2.46014e-07
2.01579e-06
5.71962e-06
5.11901e-06
7.50997e-06
1.17718e-06
6.95207e-06
3.62702e-07
4.64236e-07
5.16328e-06
5.56168e-06
7.26628e-06
9.22051e-06
1.40455e-06
8.40359e-06
0.000196487
0.000172183
0.000259423
0.000184834
3.02928e-07
6.90087e-06
4.94072e-07
5.34027e-05
0.998607
0.991857
0.978616
0.976829
0.973192
0.977465
0.98464
0.981037
0.977748
0.983325
1
0.975924
0.982013
1
0.999196
0.99394
1
1
0.999206
1
0.99395
1
0.999594
1
0.999775
1
0.999499
1
0.999774
1
1.90619e-08
6.76525e-07
1.21102e-05
3.39003e-05
2.60412e-06
3.18453e-06
1.45641e-05
3.95411e-05
4.20079e-06
3.97805e-06
1.69728e-06
1.4292e-06
2.53054e-07
2.58815e-06
2.88702e-07
1.36377e-05
6.01727e-06
3.55858e-05
3.68615e-07
4.71605e-07
3.52594e-06
4.94127e-07
5.07929e-06
4.02306e-05
4.50464e-05
1.6273e-05
0.000165817
1.57275e-05
0.998869
0.991155
0.988498
0.97811
0.976038
0.984928
0.987473
0.985209
0.959648
0.966499
1
0.973483
1
1
0.951278
1
0.95488
0.96303
1
0.970651
1
1
0.947205
1
0.997925
0.988823
1
1
0.998012
1
0.988663
1
1.70829e-10
8.29214e-06
3.69804e-06
2.55627e-06
4.83033e-06
6.05409e-07
4.70837e-07
2.34249e-06
5.34736e-05
1.83299e-05
5.87615e-05
9.02819e-06
2.11659e-05
4.63032e-06
5.3897e-05
5.30186e-06
3.04834e-06
3.57021e-05
3.50724e-06
5.76041e-05
2.68697e-05
5.87614e-05
1.31378e-05
2.57723e-05
1.04927e-05
5.87614e-05
7.40951e-06
5.9679e-06
4.32427e-05
1.52965e-06
7.1232e-06
1.6614e-05
5.30036e-05
1.79479e-06
8.9316e-06
1.82e-05
5.68466e-05
0.998297
0.994746
0.990696
0.980434
1
0.951502
0.979332
1
0.947453
0.989426
0.988896
0.987414
0.962536
0.960472
0.979497
1
1
1
0.95879
0.956504
0.978602
1
1
0.999972
0.994914
1
0.995049
1
1.31786e-27
8.56778e-06
1.20172e-05
5.17906e-06
7.31148e-06
9.89471e-07
7.29374e-07
1.28055e-05
2.12304e-05
5.87614e-05
5.84213e-05
1.26192e-05
5.87614e-05
2.33477e-06
9.48965e-06
3.57296e-05
8.20679e-06
4.19702e-05
9.38634e-06
2.33164e-06
3.05377e-06
1.69362e-05
3.02897e-05
5.87614e-05
5.87615e-05
2.83021e-05
5.87615e-05
2.08479e-05
4.85789e-06
4.51922e-05
1.74497e-05
5.14818e-05
1.52075e-05
2.02426e-06
3.14992e-06
0.996013
0.988838
0.993353
0.993385
0.988851
0.997043
0.997161
0.97456
1
0.949998
1
0.949855
1
0.961025
1
0.975333
1
0.947912
1
0.947206
1
0.959422
1
0.989712
0.974663
1
0.988913
0.973186
1
0.959133
0.957012
1
1
0.954929
0.953846
1
0.999989
5.71587e-08
1.3641e-05
3.11959e-06
3.71764e-06
1.41629e-05
9.15668e-06
3.29557e-06
2.02489e-06
8.75785e-06
1.4882e-06
1.1062e-06
1.33463e-05
5.87615e-05
1.32932e-05
5.87615e-05
9.70769e-06
2.38911e-06
8.35204e-06
5.40808e-05
2.83235e-05
9.55411e-06
2.01382e-05
5.87614e-05
2.80671e-05
5.87614e-05
2.04425e-05
1.57879e-05
5.21529e-06
5.87615e-05
3.64481e-05
1.24858e-05
0.993419
0.992274
0.994837
0.995635
0.993054
0.996648
0.996928
0.954823
0.956423
1
1
0.964478
0.999997
0.952159
0.954327
0.999998
0.999994
0.963187
0.999976
0.987684
0.974318
1
0.971747
1
1
0.992365
1
0.985839
0.973395
0.999999
0.969979
1
1
0.991597
1
1.91401e-07
1.00143e-06
9.33962e-07
1.81055e-05
2.94915e-06
6.96875e-06
4.17786e-06
5.48739e-06
1.00403e-05
1.31822e-05
2.91156e-06
4.1614e-06
3.05453e-06
3.04963e-06
6.54359e-06
7.48686e-06
7.3367e-06
3.49703e-06
4.97028e-05
2.61675e-05
9.24762e-06
9.81203e-06
1.14388e-05
5.79235e-06
5.68798e-05
3.18284e-05
8.93898e-06
0.993722
0.990635
0.994277
1
0.99
0.995232
1
0.989972
0.990756
0.99683
0.996735
0.955358
1
0.964104
0.999994
0.953398
1
0.963307
0.999943
0.978866
0.989458
0.965648
0.999992
0.999992
0.999994
0.977607
0.98747
0.96468
0.999914
0.999983
0.999993
8.69703e-09
8.28034e-07
3.6913e-07
8.00209e-07
3.71356e-07
1.95227e-05
7.52365e-06
8.10081e-06
6.03544e-06
8.20145e-06
2.84576e-06
9.99568e-06
4.11971e-06
1.4474e-05
5.0746e-06
5.40183e-06
3.6622e-06
5.8181e-06
3.1742e-06
6.17454e-06
2.79516e-06
6.95217e-06
2.05108e-05
9.2133e-06
2.0333e-05
0.993927
0.989109
0.988918
0.995975
1
0.988605
1
0.988617
0.996552
1
0.990824
1
0.988153
0.996624
0.99654
0.981485
0.969334
0.989547
0.999992
0.999992
0.999993
0.979642
0.968537
0.988123
0.999946
0.999991
0.999992
3.45842e-12
4.57344e-09
2.61977e-26
4.74235e-09
5.96424e-26
5.40157e-07
4.43223e-07
1.17921e-05
1.52553e-05
1.16044e-05
1.95422e-05
9.66919e-06
6.96668e-06
2.81192e-06
9.78861e-06
2.76768e-06
5.66491e-06
1.05703e-05
7.37236e-06
7.24431e-06
6.62048e-06
8.25252e-06
7.61684e-06
3.1914e-06
1.81842e-06
3.83854e-06
1.3975e-06
5.7758e-06
8.5147e-06
0.994543
0.987233
0.98607
0.987479
0.986259
0.996584
1
0.989
1
0.990193
0.989867
0.999993
0.996974
1
0.992361
1
0.993953
0.988739
0.999993
0.995888
0.99594
0.98362
0.999992
0.98161
0.999992
1.6374e-15
7.12178e-13
-2.55408e-30
7.42665e-13
3.79424e-30
4.39025e-09
1.48739e-12
4.20008e-09
1.40892e-12
1.99831e-06
1.58685e-06
9.36638e-06
6.35028e-06
1.58014e-05
6.51088e-06
4.41616e-06
2.78299e-06
6.33778e-06
2.54854e-06
8.68509e-06
5.51208e-06
9.64531e-06
4.39102e-06
4.40179e-06
4.34344e-06
7.62787e-06
3.11962e-06
2.98827e-06
1.16107e-06
3.34328e-06
1.1484e-06
5.62078e-06
3.3716e-06
6.99272e-06
1.8673e-06
0.989834
0.986085
0.988293
0.986486
0.988134
0.993811
0.994765
0.99704
1
0.991587
1
0.990244
0.999993
0.98996
0.999993
0.989847
0.985593
0.999992
0.996888
1
0.994385
1
0.994442
0.999993
0.990712
0.999993
0.992031
0.984251
0.999992
1.17077e-11
-1.29256e-34
-2.97133e-34
7.27791e-34
1.09168e-33
3.26432e-13
9.39499e-14
1.94836e-13
5.17178e-14
2.55864e-07
6.25307e-08
1.95916e-07
4.39111e-08
3.82659e-06
6.85266e-07
9.09671e-07
1.059e-06
2.30942e-06
6.95016e-07
7.46654e-07
9.35584e-07
5.85556e-06
1.70441e-06
7.27124e-06
1.56699e-06
2.81616e-06
1.19538e-06
3.49407e-06
6.78853e-07
0.99163
0.993604
0.996356
0.992977
0.996184
0.994464
0.995257
0.995261
0.995892
0.996841
0.99688
0.999796
0.993596
0.999985
0.994591
0.999992
0.989298
0.999986
0.98969
0.999992
0.98649
0.999992
0.985834
0.999729
0.99378
0.999888
0.99402
0.999989
0.993141
0.999958
0.993432
0.999992
0.986623
0.999992
0.986912
1.76276e-10
1.0288e-09
3.99599e-14
8.90041e-15
1.76306e-14
2.27461e-15
1.07779e-08
6.87806e-10
6.78059e-09
3.5869e-10
1.27822e-07
1.60086e-07
4.55822e-07
8.32346e-08
1.0261e-07
4.51019e-08
8.02354e-08
4.8212e-08
8.18993e-08
1.44464e-07
3.46244e-07
5.97584e-08
6.50941e-08
2.83263e-08
5.34498e-08
3.54132e-08
3.26384e-06
3.0222e-07
1.28732e-06
5.22045e-07
1.76145e-06
1.97258e-07
8.10606e-07
3.87742e-07
0.996621
0.996106
0.992713
0.996249
0.992995
0.996018
0.997486
0.996539
0.997655
0.996157
0.995878
0.996707
0.996713
0.999826
0.99524
0.999883
0.995516
0.999818
0.99513
0.999894
0.995
0.999863
0.989739
0.999954
0.992168
0.999761
0.99203
0.99988
0.992133
4.41777e-08
6.16051e-14
4.71304e-11
6.12979e-14
4.58518e-11
5.35302e-09
1.50166e-11
3.90684e-13
5.0431e-12
6.09952e-14
6.96127e-09
1.23427e-08
3.34626e-08
7.69835e-09
8.37277e-10
4.21183e-11
3.03442e-11
1.76254e-09
5.10325e-09
7.0846e-09
2.4453e-08
4.34282e-09
4.1039e-10
3.83259e-12
6.18748e-12
7.99139e-10
1.18389e-07
1.22372e-07
3.86099e-07
2.79031e-08
5.53623e-08
1.95978e-08
3.81255e-08
2.10874e-08
7.3919e-08
8.42613e-08
2.66453e-07
1.64083e-08
3.69035e-08
1.15224e-08
2.62819e-08
1.51773e-08
0.998559
0.995793
0.997608
0.997409
0.998172
0.998178
0.995855
0.996035
0.996727
0.996904
0.999854
0.99423
0.99989
0.992328
0.999881
0.98795
0.999879
0.990587
0.999885
0.994378
0.999902
0.993395
0.999883
0.989216
0.999881
0.991689
0.999767
0.993095
0.999825
0.993136
0.999721
0.993146
0.999851
0.992888
2.37967e-07
7.31515e-09
1.39302e-08
7.19138e-09
1.32488e-08
1.21122e-12
7.70184e-12
4.13617e-13
5.79444e-12
1.81594e-09
6.51422e-12
1.29276e-11
1.03101e-11
2.9491e-13
4.54932e-12
1.30879e-13
2.6967e-12
2.93939e-13
1.99879e-12
3.87911e-12
3.19117e-12
4.66838e-14
1.25137e-12
1.25633e-14
7.95312e-13
4.64726e-14
4.57809e-09
6.80157e-09
1.81288e-08
3.14717e-09
1.418e-09
9.99774e-11
1.17024e-10
1.56743e-09
3.00544e-09
3.71335e-09
1.30074e-08
1.6765e-09
7.48083e-10
3.25858e-11
4.62151e-11
6.89416e-10
0.997273
0.990379
0.978784
0.972866
0.986274
0.981996
0.994824
0.992515
0.996451
0.995807
0.999875
0.985389
0.999877
0.988372
0.999868
0.990138
0.999813
0.991321
0.999877
0.987462
0.999879
0.990173
0.999865
0.991363
0.999817
0.992354
0.999866
0.992619
0.999902
0.992183
0.999757
0.986464
0.999763
0.990822
0.999885
0.992749
0.999934
0.991882
0.99977
0.986826
0.999768
0.990698
5.43977e-07
8.83141e-08
3.25366e-10
7.06032e-09
3.05454e-10
7.30049e-09
8.79133e-13
1.29289e-13
2.47258e-12
1.1771e-12
1.76723e-12
3.94849e-12
5.73459e-12
2.88863e-12
2.87336e-13
4.51193e-13
4.88618e-14
1.2308e-14
4.91172e-13
3.49244e-13
3.86723e-13
1.06099e-12
3.92463e-12
1.90482e-12
2.16712e-14
2.258e-14
2.11643e-08
6.98526e-12
9.40437e-12
1.17734e-11
8.11522e-13
5.02524e-12
2.40356e-13
1.7695e-12
2.67346e-12
3.47172e-12
1.10453e-13
1.18537e-12
3.54203e-14
3.62195e-10
3.27301e-11
3.83355e-11
4.07753e-10
1.60226e-10
8.75974e-12
1.36629e-11
1.61826e-10
0.995158
0.961177
0.969175
0.927599
0.979162
0.941749
0.970093
0.951385
0.974844
0.955954
0.999165
0.986986
0.999571
0.983635
0.999566
0.980886
0.999992
0.982381
0.999157
0.988174
0.999579
0.985693
0.99955
0.985192
0.999992
0.986075
0.999766
0.978939
0.999778
0.972264
0.999765
0.985655
0.999602
0.984498
0.999773
0.980508
0.999781
0.975392
0.999773
0.986358
0.999696
0.985794
9.66332e-07
2.84157e-07
3.44832e-07
2.8878e-07
3.19777e-07
5.05281e-07
1.03919e-11
2.75886e-09
8.67364e-12
3.21752e-09
1.15882e-13
6.09107e-13
3.46376e-12
1.74821e-12
8.63545e-13
1.29941e-12
3.69787e-12
4.97201e-13
2.9155e-13
6.16551e-13
1.05483e-14
1.40199e-14
7.40594e-13
2.77668e-13
2.12723e-13
2.23611e-13
2.11296e-12
1.86541e-13
4.62642e-14
1.11494e-13
6.70358e-09
3.73943e-12
4.82195e-12
6.8761e-12
4.16222e-13
3.23653e-12
1.47114e-13
4.38576e-13
1.27492e-12
1.91287e-12
4.99776e-14
5.31872e-13
1.58381e-14
0.996096
0.931734
0.907603
0.957998
0.955756
0.960393
0.957464
0.969502
0.982795
0.995973
0.951579
0.995529
0.998303
0.884142
0.993117
0.922692
0.987411
0.98435
0.968839
0.996034
0.948591
0.995394
0.998409
0.884522
0.993119
0.921745
0.987579
0.996901
0.981202
0.998782
0.976754
0.996307
0.978614
0.997306
0.982481
0.999127
0.97799
0.996682
0.980046
0.999673
0.977726
0.999351
0.96322
0.999764
0.97963
0.999653
0.968186
2.00948e-05
3.79542e-07
3.12224e-07
2.9967e-07
3.00586e-07
6.37695e-08
8.75541e-08
7.0558e-08
6.77593e-08
2.18455e-06
5.19733e-12
2.76936e-13
2.76955e-13
8.11195e-12
4.53718e-12
2.01e-09
4.82467e-10
4.5509e-12
4.5117e-12
2.76955e-13
2.76936e-13
6.79223e-12
4.52417e-12
2.31401e-09
5.4633e-10
4.53718e-12
1.00805e-14
1.04278e-14
2.7263e-12
6.46504e-13
2.75666e-13
2.71101e-13
1.04278e-14
1.00805e-14
1.10266e-12
2.77332e-13
2.28194e-14
9.34188e-14
3.5125e-10
0.996714
0.948771
0.896307
0.959239
0.951819
0.957305
0.950074
0.948741
0.9645
0.947493
0.96269
0.961223
0.945783
0.981251
0.989623
0.943327
0.991371
0.884182
0.967206
0.920881
0.969116
0.963706
0.949362
0.990318
0.982016
0.944906
0.991169
0.884511
0.967444
0.922
0.968352
0.992086
0.968192
0.993278
0.961535
0.985697
0.949168
0.99455
0.970713
0.99619
0.96437
0.987298
0.952744
0.000204562
5.26972e-05
5.85265e-08
1.727e-06
4.89926e-08
1.25671e-06
1.92695e-10
1.26364e-09
2.2148e-10
2.56952e-10
8.62473e-10
4.67413e-12
6.16009e-10
4.95504e-10
4.81801e-10
5.97304e-10
1.92695e-10
1.3916e-09
3.7403e-10
6.23575e-10
1.03695e-09
4.62554e-12
1.92695e-10
4.89573e-10
1.92695e-10
5.78362e-10
2.81637e-07
6.27955e-12
2.76955e-13
2.77171e-13
8.52105e-12
4.62928e-12
4.56511e-12
6.46491e-12
2.76936e-13
2.91176e-13
6.84786e-12
4.57822e-12
4.5509e-12
6.02695e-12
0.991648
0.984293
0.896368
0.955237
0.948074
0.953765
0.946381
0.964388
0.96341
0.962003
0.961066
0.979933
0.876261
0.958709
0.901079
0.993796
0.941566
0.9969
0.93976
0.979434
0.877197
0.958403
0.901508
0.993443
0.940474
0.99691
0.939719
0.93323
0.969569
0.88455
0.932772
0.90714
0.980988
0.938177
0.971141
0.885229
0.932044
0.907262
0.981246
0.000214391
0.00034798
0.000406222
0.000369217
0.000406576
1.89647e-05
1.12126e-07
5.69799e-05
1.28671e-07
5.42442e-05
1.01517e-09
1.92695e-10
2.39983e-10
1.92695e-10
1.92695e-10
3.3912e-10
1.92695e-10