/*--------------------------------*- C++ -*----------------------------------*\
| =========                 |                                                 |
| \\      /  F ield         | OpenFOAM: The Open Source CFD Toolbox           |
|  \\    /   O peration     | Version:  5.x                                   |
|   \\  /    A nd           | Web:      www.OpenFOAM.org                      |
|    \\/     M anipulation  |                                                 |
\*---------------------------------------------------------------------------*/
FoamFile
{
    version     2.0;
    format      ascii;
    class       surfaceScalarField;
    location    "2.7";
    object      alphaPhi10;
}
// * * * * * * * * * * * * * * * * * * * * * * * * * * * * * * * * * * * * * //

dimensions      [0 3 -1 0 0 0 0];

internalField   nonuniform List<scalar> 
30582
(
5.05141e-05
3.657e-06
4.23498e-05
8.16433e-06
5.05988e-05
7.24638e-06
3.07333e-05
1.16165e-05
4.22191e-05
1.65441e-05
5.06974e-05
1.07727e-05
1.51964e-05
1.55368e-05
3.05175e-05
2.33181e-05
4.22642e-05
2.49773e-05
5.03256e-05
1.47231e-05
-4.11341e-06
1.93098e-05
1.45534e-05
3.1501e-05
3.06383e-05
3.4944e-05
4.05905e-05
3.47123e-05
5.04498e-05
1.86184e-05
-2.4542e-05
2.04286e-05
-4.98084e-06
3.88441e-05
1.49582e-05
4.71811e-05
2.81598e-05
4.73747e-05
4.03762e-05
4.4786e-05
4.87032e-05
2.43485e-05
-4.34686e-05
1.89266e-05
-2.51308e-05
4.05785e-05
-4.27822e-06
5.80805e-05
1.13575e-05
6.39834e-05
2.78775e-05
5.98734e-05
3.53683e-05
5.81208e-05
4.94814e-05
2.9405e-05
-6.03698e-05
1.69012e-05
-4.39756e-05
3.77714e-05
-2.48911e-05
6.11914e-05
-7.89743e-06
7.73354e-05
1.12466e-05
8.06143e-05
2.08489e-05
7.43929e-05
3.56501e-05
7.19512e-05
3.60134e-05
4.80511e-05
-7.42894e-05
1.39196e-05
-6.08956e-05
3.38212e-05
-4.42262e-05
5.71066e-05
-2.77122e-05
8.10062e-05
-7.17219e-06
9.57542e-05
3.02431e-06
9.84388e-05
2.13115e-05
8.87311e-05
1.62086e-05
8.99241e-05
-2.15584e-05
7.17079e-06
-8.41855e-05
9.89608e-06
-7.49581e-05
2.79821e-05
-6.15657e-05
5.11606e-05
-4.66439e-05
7.60382e-05
-2.70006e-05
0.000100835
-1.31458e-05
0.000111924
3.45287e-06
0.000116297
5.40861e-06
9.8132e-05
-2.57141e-05
2.98117e-05
-1.75889e-05
9.25613e-07
-8.87668e-05
4.5813e-06
-8.50873e-05
2.00253e-05
-7.6237e-05
4.26534e-05
-6.39132e-05
6.84299e-05
-4.66852e-05
9.57229e-05
-3.12459e-05
0.000118935
-1.21752e-05
0.000127552
-1.21841e-05
0.000133029
-2.3053e-05
3.18748e-05
-2.0829e-05
3.67734e-07
1.17137e-07
1.41042e-08
-8.71962e-05
-1.57051e-06
-8.99585e-05
9.45243e-06
-8.70218e-05
3.08101e-05
-7.90493e-05
5.77895e-05
-6.52821e-05
8.70268e-05
-5.01341e-05
0.000114611
-3.06349e-05
0.000137394
-2.48251e-05
0.00013942
-2.57724e-05
5.40713e-05
-3.10388e-05
6.92578e-07
1.0263e-07
7.98198e-10
2.36456e-09
4.37206e-11
-7.91378e-05
-8.0585e-06
-8.85866e-05
-2.94242e-06
-9.24208e-05
1.48515e-05
-9.06411e-05
4.2402e-05
-8.18477e-05
7.43551e-05
-6.86405e-05
0.000105533
-5.09024e-05
0.000134878
-4.02153e-05
0.000151892
-2.67999e-05
6.15471e-05
-3.53833e-05
8.54095e-07
-4.66674e-08
3.45792e-09
6.93604e-10
1.72433e-12
-2.38361e-13
8.94992e-15
-6.47692e-05
-1.43686e-05
-8.05198e-05
-1.61252e-05
-9.1391e-05
-3.97221e-06
-9.70483e-05
2.12586e-05
-9.47244e-05
5.52787e-05
-8.59005e-05
9.1615e-05
-7.17954e-05
0.000126425
-5.70329e-05
0.000150687
-2.92404e-05
7.47698e-05
-4.00672e-05
1.7107e-06
-2.48812e-07
6.78061e-10
1.25253e-10
6.95816e-12
-4.70626e-13
2.28281e-17
3.3899e-16
5.91733e-19
-4.51795e-05
-1.95897e-05
-6.60468e-05
-2.88417e-05
-8.33139e-05
-2.42023e-05
-9.64705e-05
-4.54998e-06
-0.000101844
2.83784e-05
-0.000100382
6.97604e-05
-9.18416e-05
0.00011166
-7.54595e-05
0.000143895
-3.57461e-05
9.1209e-05
-4.35687e-05
3.29216e-06
-1.41483e-06
3.54599e-09
1.23599e-13
6.76131e-14
-1.25316e-15
2.43914e-15
7.26493e-17
8.04267e-21
-4.76991e-22
-2.22135e-05
-2.29659e-05
-4.62889e-05
-3.93476e-05
-6.85114e-05
-4.36442e-05
-8.84085e-05
-3.22643e-05
-0.000102205
-4.18927e-06
-0.000109761
3.77574e-05
-0.000108821
8.67387e-05
-9.4906e-05
0.000130304
-4.48062e-05
0.000102702
-4.7437e-05
5.75259e-06
-3.79946e-06
1.211e-08
-1.15965e-10
1.7763e-13
3.52832e-16
1.13756e-17
5.46813e-17
3.36205e-19
-1.06757e-20
2.89007e-06
-2.51036e-05
-2.2973e-05
-4.62818e-05
-4.8198e-05
-5.9661e-05
-7.29663e-05
-5.90865e-05
-9.42012e-05
-4.0268e-05
-0.000111143
-2.8076e-06
-0.000119874
4.88098e-05
-0.000112821
0.000104054
-5.55525e-05
0.00010409
-5.09851e-05
8.76719e-06
-6.55361e-06
1.5181e-08
-6.09313e-10
1.22527e-12
2.76164e-15
8.32512e-18
2.28395e-19
1.11099e-20
-1.7257e-22
2.90323e-05
-2.61423e-05
2.45559e-06
-5.05322e-05
-2.4273e-05
-7.02068e-05
-5.15433e-05
-8.1084e-05
-7.81956e-05
-7.50921e-05
-0.000103237
-4.81741e-05
-0.000122661
-2.12692e-08
-0.000126092
6.17443e-05
-6.67263e-05
9.00711e-05
-5.44419e-05
1.17613e-05
-9.415e-06
3.38252e-08
-2.57843e-09
1.57984e-12
2.85412e-14
3.23632e-17
1.836e-19
1.12067e-21
-5.75654e-24
5.5262e-05
-2.62296e-05
2.88193e-05
-5.2506e-05
1.65638e-06
-7.64617e-05
-2.65073e-05
-9.52427e-05
-5.57043e-05
-0.000103575
-8.57103e-05
-9.26184e-05
-0.000114754
-5.60795e-05
-0.00013104
4.877e-06
-7.65097e-05
5.7741e-05
-5.80003e-05
1.26457e-05
-1.18267e-05
7.21954e-08
-7.24794e-09
6.54729e-12
6.644e-14
4.46912e-17
3.38916e-19
1.69266e-21
4.86325e-24
8.11829e-05
-2.5921e-05
5.52216e-05
-5.26319e-05
2.85328e-05
-7.93824e-05
3.33377e-07
-0.000103302
-2.91806e-05
-0.000121766
-6.07873e-05
-0.000128498
-9.60022e-05
-0.000111369
-0.000122404
-6.44886e-05
-8.10672e-05
7.7165e-06
-6.06461e-05
9.0604e-06
-1.35868e-05
1.17293e-07
-1.19326e-08
1.241e-11
2.91309e-13
1.56452e-16
-2.1313e-19
2.31824e-21
1.98434e-23
0.00010666
-2.54774e-05
8.12193e-05
-5.19186e-05
5.52687e-05
-7.93678e-05
2.78859e-05
-0.000106935
-8.7749e-07
-0.000131605
-3.20984e-05
-0.000150455
-6.91971e-05
-0.000155303
-0.0001013
-0.000131877
-7.56128e-05
-5.32331e-05
-5.83447e-05
-5.61624e-07
-1.46783e-05
8.74564e-08
-1.70389e-08
3.70504e-11
6.12758e-13
1.53156e-16
-2.20698e-18
5.38743e-21
5.85817e-23
0.000131652
-2.49915e-05
0.000106751
-5.1009e-05
8.13338e-05
-7.79837e-05
5.49753e-05
-0.000106457
2.76693e-05
-0.000135482
-2.27679e-06
-0.000161427
-3.81215e-05
-0.00018153
-7.26516e-05
-0.000182924
-6.06294e-05
-0.000114454
-4.99043e-05
-1.48691e-05
-1.45544e-05
-5.72047e-08
-3.87424e-08
8.57174e-11
1.64389e-12
4.74789e-16
-4.09448e-18
3.26464e-21
1.22817e-22
0.000155918
-2.4266e-05
0.000131822
-5.00631e-05
0.000106856
-7.65313e-05
8.12622e-05
-0.000104271
5.54236e-05
-0.000134211
2.7099e-05
-0.000164857
-5.62385e-06
-0.000193923
-3.94219e-05
-0.000213364
-3.68398e-05
-0.000162928
-3.50343e-05
-3.06864e-05
-1.2694e-05
-4.10568e-07
-1.33456e-07
4.89066e-11
7.316e-12
1.71159e-15
-4.8381e-18
6.01692e-21
1.23092e-22
0.000179086
-2.31681e-05
0.000156208
-4.86521e-05
0.000132049
-7.52564e-05
0.000106975
-0.000102244
8.16555e-05
-0.000130502
5.51021e-05
-0.000162214
2.5986e-05
-0.000196463
-5.00612e-06
-0.000226419
-5.30125e-06
-0.000192187
-1.65414e-05
-4.27782e-05
-9.43075e-06
-1.00545e-06
-2.59934e-07
-7.81279e-10
6.09299e-11
1.13034e-15
6.50946e-17
2.24565e-20
2.02004e-22
0.000200713
-2.16271e-05
0.000179534
-4.64934e-05
0.000156691
-7.32933e-05
0.000132444
-0.000100726
0.000107134
-0.000127722
8.14245e-05
-0.000156825
5.48085e-05
-0.000191022
2.76878e-05
-0.000226348
2.57397e-05
-0.000196703
4.82448e-06
-4.84807e-05
-5.67237e-06
-1.57775e-06
-2.9317e-07
-4.0617e-09
2.62429e-10
-1.88837e-13
5.22988e-15
-2.00908e-19
1.31618e-21
0.000220392
-1.96791e-05
0.000201315
-4.34088e-05
0.000180324
-7.01272e-05
0.000157509
-9.83581e-05
0.000132759
-0.00012635
0.000107096
-0.000153394
8.09344e-05
-0.000182903
5.79559e-05
-0.000216919
5.11737e-05
-0.000183157
2.47773e-05
-4.46119e-05
-1.63273e-06
-1.91834e-06
-2.00322e-07
-9.6787e-09
5.71072e-10
-1.92955e-12
5.95223e-14
-1.11377e-17
-1.903e-20
0.000237808
-1.74161e-05
0.000221135
-3.94987e-05
0.000202442
-6.5527e-05
0.000181608
-9.42267e-05
0.000158348
-0.000123947
0.000133239
-0.000152493
0.000106737
-0.000179086
8.48526e-05
-0.00020318
7.27736e-05
-0.000163169
3.80921e-05
-3.31922e-05
1.5745e-06
-1.84414e-06
-8.78592e-08
-1.41381e-08
8.13637e-10
-6.93002e-12
2.54915e-13
-1.11941e-16
-4.28299e-19
0.000252805
-1.49968e-05
0.000238657
-3.49382e-05
0.000222529
-5.95855e-05
0.000204229
-8.81475e-05
0.000183146
-0.000119025
0.000159638
-0.000150346
0.000133375
-0.000178912
0.000109729
-0.000194058
9.31714e-05
-0.000140816
4.26284e-05
-2.04803e-05
3.28524e-06
-1.33406e-06
-3.06074e-08
-1.49639e-08
8.62446e-10
-1.05742e-11
4.51754e-13
-4.37797e-16
6.45362e-21
0.000265324
-1.25185e-05
0.000253745
-3.00844e-05
0.000240219
-5.26284e-05
0.000224738
-8.00942e-05
0.000206501
-0.000111502
0.000185264
-0.00014465
0.000160365
-0.000176957
0.000134294
-0.000188514
0.000105673
-0.000105982
3.85959e-05
-1.11763e-05
3.13058e-06
-7.38817e-07
-4.04239e-08
-1.21159e-08
7.63834e-10
-1.0959e-11
3.83618e-13
-5.91045e-16
3.73187e-18
0.000275324
-1.00009e-05
0.000266348
-2.51224e-05
0.000255406
-4.5271e-05
0.000242764
-7.06543e-05
0.000227555
-0.000101149
0.000209511
-0.000135748
0.000186533
-0.000170265
0.000157824
-0.000179751
0.00010816
-7.34077e-05
3.00123e-05
-5.77414e-06
2.01342e-06
-3.7422e-07
-4.24501e-08
-6.68646e-09
6.16373e-10
-9.8364e-12
3.26206e-13
-5.86581e-16
5.70682e-18
0.000282756
-7.43169e-06
0.000276477
-2.01292e-05
0.000268134
-3.78509e-05
0.000258208
-6.07153e-05
0.000245861
-8.89596e-05
0.000231355
-0.000122991
0.000211659
-0.000160189
0.000179642
-0.000166569
0.000106329
-5.12732e-05
2.27221e-05
-3.13986e-06
1.15399e-06
-1.94306e-07
-2.28719e-08
-3.09657e-09
3.17748e-10
-7.36201e-12
3.35061e-13
-9.57757e-16
5.2262e-18
0.000287629
-4.87263e-06
0.000284111
-1.50662e-05
0.000278418
-3.0413e-05
0.000271171
-5.08149e-05
0.00026144
-7.62948e-05
0.000250136
-0.000107739
0.000234211
-0.000144836
0.00019879
-0.000151242
0.000105093
-3.74472e-05
1.75065e-05
-1.84511e-06
7.10844e-07
-1.1425e-07
-7.72674e-09
-1.94647e-09
1.63717e-10
-6.29122e-12
2.05212e-13
-1.15398e-15
-2.38083e-18
0.00028968
-2.05111e-06
0.00028911
-9.87114e-06
0.000286165
-2.28131e-05
0.000281786
-4.10278e-05
0.000274529
-6.39044e-05
0.000266036
-9.21943e-05
0.000253959
-0.000126871
0.000217096
-0.000135194
0.000107014
-2.91118e-05
1.43169e-05
-1.24182e-06
5.17206e-07
-7.0856e-08
-1.19223e-09
-1.58048e-09
9.86972e-11
-7.81038e-12
1.02774e-13
-1.56234e-15
-2.25906e-17
0.000288912
7.67941e-07
0.000291285
-4.22623e-06
0.000291272
-1.49775e-05
0.000290101
-3.11272e-05
0.000285434
-5.19322e-05
0.000279629
-7.74972e-05
0.00027014
-0.000107897
0.000235015
-0.000119654
0.00011338
-2.41929e-05
1.27869e-05
-9.60813e-07
4.57699e-07
-4.99128e-08
7.08886e-10
-1.21658e-09
4.48248e-11
-9.72003e-12
1.21605e-13
-2.56212e-15
-4.3151e-17
0.000285971
2.94091e-06
0.000290717
1.33587e-06
0.000293784
-6.73847e-06
0.000295815
-2.06922e-05
0.000294065
-3.97578e-05
0.000291235
-6.35377e-05
0.000283185
-9.0211e-05
0.000251414
-0.000103062
0.000123186
-2.17719e-05
1.27412e-05
-8.05441e-07
4.54399e-07
-4.12439e-08
1.11028e-09
-8.51898e-10
6.87562e-12
-8.64873e-12
1.17447e-13
-3.20423e-15
-3.42969e-17
0.000280476
5.49491e-06
0.00028722
6.43821e-06
0.000293386
1.73425e-06
0.000298318
-9.24077e-06
0.00030019
-2.68171e-05
0.000301078
-4.96013e-05
0.000294461
-7.46005e-05
0.000266279
-8.83775e-05
0.000138597
-2.0112e-05
1.32639e-05
-7.30769e-07
4.9197e-07
-3.60921e-08
1.23757e-09
-6.5582e-10
-1.10271e-11
-6.04905e-12
3.09583e-14
-2.41096e-15
-9.09358e-18
0.000272617
7.85978e-06
0.000281347
1.13678e-05
0.000289793
1.00312e-05
0.000297535
2.51678e-06
0.000303464
-1.25156e-05
0.000308395
-3.41336e-05
0.00030455
-5.95607e-05
0.000279893
-7.57451e-05
0.000157019
-1.92346e-05
1.56527e-05
-7.01543e-07
5.59237e-07
-3.2307e-08
1.16747e-09
-4.74646e-10
-2.39097e-11
-4.77643e-12
-3.71349e-14
-1.37553e-15
-1.76999e-18
0.0002631
9.51667e-06
0.000273519
1.56879e-05
0.000283649
1.75115e-05
0.000293856
1.371e-05
0.000303216
2.76523e-06
0.000311689
-1.58093e-05
0.000312998
-4.25082e-05
0.000291824
-6.26661e-05
0.000175026
-1.83175e-05
1.9869e-05
-7.24825e-07
6.63597e-07
-2.93036e-08
9.07351e-10
-3.01214e-10
-3.03277e-11
-3.40122e-12
-5.51229e-14
-1.06613e-15
-1.7535e-18
0.000252274
1.08262e-05
0.000264065
1.897e-05
0.00027539
2.39475e-05
0.000287428
2.39396e-05
0.000299022
1.79039e-05
0.000310791
3.66324e-06
0.000319372
-2.21468e-05
0.000300767
-4.57968e-05
0.000188089
-1.59343e-05
2.61502e-05
-7.56296e-07
7.91923e-07
-2.54002e-08
5.3761e-10
-2.2273e-10
-3.11867e-11
-1.70085e-12
-2.01552e-14
-7.20957e-16
-2.70425e-19
1.13409e-05
0.000240933
0.000253284
2.16072e-05
0.00026546
2.88998e-05
0.000278799
3.25766e-05
0.000291739
3.12229e-05
0.000306537
2.21575e-05
0.000320813
2.22707e-06
0.000307339
-2.55273e-05
0.000190501
-1.01498e-05
3.38402e-05
-6.65507e-07
9.36611e-07
-1.57559e-08
-4.55008e-10
-1.79196e-10
-3.50226e-11
-7.50432e-13
-2.53906e-15
-2.99694e-16
2.80508e-18
2.29498e-05
0.000241675
2.77461e-05
0.000213187
0.000254276
3.2791e-05
0.000268433
3.9266e-05
0.000282042
4.22732e-05
0.000298891
3.88688e-05
0.000315762
2.72051e-05
0.000306264
4.17972e-06
0.000181231
-1.27136e-06
4.2356e-05
-3.39915e-07
1.14531e-06
-6.48546e-09
-1.02989e-09
-1.01466e-10
-3.33531e-11
-3.48361e-13
-5.91497e-15
-9.8763e-17
2.52673e-18
3.50066e-05
0.000242219
5.63792e-05
0.000213042
2.3577e-05
0.00018961
0.000256791
4.44326e-05
0.000270538
5.07699e-05
0.00028885
5.23138e-05
0.000306592
4.80262e-05
0.000299327
3.34312e-05
0.00017264
9.1505e-06
5.09589e-05
3.799e-07
1.52461e-06
-1.52073e-09
-1.41747e-09
-3.8984e-11
-2.31276e-11
-1.24181e-13
-5.88931e-15
-2.86731e-17
7.64999e-19
4.76936e-05
0.000244104
8.61511e-05
0.000212447
4.81485e-05
0.000188471
1.53741e-05
0.000174235
0.000257818
5.71526e-05
0.000276983
6.2637e-05
0.000294693
6.41887e-05
0.000289138
5.66642e-05
0.00017244
1.69841e-05
5.77932e-05
1.4743e-06
2.2621e-06
9.77559e-09
-1.58436e-09
-9.636e-12
-1.34492e-11
-3.09562e-14
-1.58063e-15
-5.40843e-18
-5.56388e-20
6.12873e-05
0.000244225
0.000117999
0.000212256
7.40333e-05
0.000186562
3.30175e-05
0.000170827
1.02453e-06
0.000173211
0.000263767
7.03685e-05
0.000280957
7.63379e-05
0.0002769
7.44358e-05
0.000175837
2.56633e-05
6.06056e-05
2.62269e-06
3.41906e-06
3.389e-08
3.56595e-10
-3.14761e-12
-7.17129e-12
-6.89017e-15
5.97424e-16
-8.96229e-19
-9.26656e-20
7.59738e-05
0.000249081
0.000151453
0.00021077
0.000103201
0.000183088
5.23221e-05
0.000167258
4.63651e-06
0.000167215
-1.80788e-05
0.00019129
0.000265937
8.53408e-05
0.000262496
8.85022e-05
0.000178127
3.603e-05
6.09003e-05
3.56193e-06
4.72725e-06
6.60474e-08
1.67768e-08
-2.15807e-12
-5.74371e-12
-2.5433e-15
5.62992e-16
-1.92356e-19
-5.1763e-20
9.16059e-05
0.000250242
0.000188927
0.000211606
0.000134756
0.000179215
7.54162e-05
0.000159994
1.12808e-05
0.000160614
-2.9651e-05
0.000178788
-5.60143e-05
0.000247304
0.000245902
9.95044e-05
0.000176992
4.74554e-05
6.01749e-05
4.60117e-06
5.67448e-06
1.02112e-07
4.37327e-08
1.49581e-10
-1.55248e-11
-1.74801e-15
-6.9792e-18
-4.20679e-20
-2.50457e-20
0.000107708
0.000227213
0.000228891
0.000210079
0.000171166
0.000175196
0.000101872
0.000152759
2.51288e-05
0.000146146
-3.5931e-05
0.000166894
-9.92329e-05
0.000222006
-5.80721e-05
0.000305376
0.000171807
5.79197e-05
5.88592e-05
5.80995e-06
6.03479e-06
1.51069e-07
6.56569e-08
5.26576e-10
-3.31196e-11
3.24509e-14
-1.92867e-15
1.14968e-19
-2.37824e-20
6.6244e-05
0.00016279
0.000272017
0.000177663
0.000210685
0.000170293
0.000133777
0.000143289
4.59953e-05
0.000131893
-3.32216e-05
0.000143437
-0.000126426
0.000194087
-0.000127035
0.000290969
-9.46906e-05
0.000400067
5.68923e-05
6.99921e-06
5.8336e-06
2.02502e-07
7.283e-08
1.03444e-09
-5.26916e-11
3.89955e-13
-2.49368e-14
3.23585e-18
-5.9998e-20
8.08149e-06
5.38717e-05
0.000176758
0.000128525
0.000249572
0.000131825
0.000170025
0.00013373
7.51668e-05
0.000114115
-2.21381e-05
0.000120809
-0.000143865
0.000160875
-0.00020727
0.000274322
-0.000196397
0.000392675
1.49447e-05
0.000385122
5.27502e-06
2.40313e-07
6.50229e-08
1.44306e-09
-7.61958e-11
9.79417e-13
-6.66542e-14
2.82622e-17
-5.09735e-19
2.69296e-07
4.55514e-06
2.25706e-05
4.14469e-05
0.000160854
8.46279e-05
0.000206866
8.75328e-05
0.000111898
9.6597e-05
1.12714e-05
8.07025e-05
-0.000139789
0.000116738
-0.000276362
0.000229969
-0.000296347
0.000374272
5.35752e-06
0.000402262
6.74722e-05
0.00031765
4.66684e-08
1.70388e-09
-1.08292e-10
1.34897e-12
-8.0648e-14
8.95638e-17
-2.03296e-18
2.03663e-09
1.69012e-08
7.72845e-07
2.32891e-06
2.18013e-05
2.05039e-05
0.000124923
3.93054e-05
0.00015214
3.94226e-05
6.47976e-05
4.26371e-05
-7.45932e-05
1.567e-05
-0.000281568
0.000122069
-0.000369847
0.000303476
-3.91389e-05
0.000418768
0.000121195
0.00034854
0.00253319
0.000963263
-0.0031788
-1.64969e-10
1.60189e-12
-9.09134e-14
1.27453e-16
-2.98944e-18
5.51327e-12
-1.67214e-10
7.86917e-09
-1.77217e-07
1.01774e-06
-2.31826e-06
1.77102e-05
-2.12874e-06
8.59247e-05
-5.38124e-06
0.000121424
-2.5486e-05
3.32254e-05
-6.44749e-05
-0.000165739
-9.83626e-05
-0.000400315
0.00015274
-0.000148003
0.000412343
0.000155253
0.000384709
0.0019032
0.000978537
0.00325803
0.00137804
-0.00367278
0.000819153
-0.00399795
1.36888e-15
1.52039e-16
-3.70315e-18
3.31418e-19
5.51464e-12
2.35829e-11
-8.34044e-09
3.43609e-08
-1.28609e-06
9.20203e-07
-5.95785e-06
1.23552e-05
-1.7748e-05
6.70384e-05
-4.92394e-05
0.000123418
-0.000124956
3.07762e-05
-0.000257518
-0.000322815
-0.000174416
-0.000286641
0.000291436
0.000138362
0.000429235
0.0013789
0.000909008
0.00284687
0.0013897
0.00320238
0.00172941
-0.0035536
0.00127066
-0.00412428
0.000638533
-0.00463649
-1.79948e-19
-9.6911e-19
3.47949e-12
-7.69635e-10
9.56067e-09
-3.32658e-07
6.27427e-08
-1.71133e-06
4.27405e-07
-4.78664e-06
8.11732e-06
-2.32754e-05
6.24977e-05
-8.9053e-05
0.000156176
-0.000263404
-0.000106714
-0.000472968
-0.000313572
-0.000147456
4.04198e-05
0.000389381
0.000999706
0.000808426
0.00247879
0.00127709
0.00288925
0.00170284
0.00289663
0.00195827
-0.00312515
0.00165362
-0.00393626
0.0011159
-0.00460169
0.000467381
-0.00510388
-1.51156e-11
4.11601e-09
-7.0328e-08
8.22468e-08
-8.03578e-07
2.20285e-08
-1.28375e-06
1.88079e-07
-2.95822e-06
6.32255e-06
-2.65616e-05
6.8244e-05
-0.000106278
0.000104617
-0.000499333
-0.000192888
-0.000595358
-0.000106401
-6.35419e-07
0.000760957
0.00062813
0.00214739
0.00113983
0.00261425
0.00155209
0.00268427
0.00191519
0.00232549
0.00211706
-0.00248349
0.00193564
-0.00340509
0.00145416
-0.00427509
0.00082349
-0.00495789
0.000264483
-0.00536834
-3.22397e-09
4.54369e-08
-2.21721e-07
3.65406e-08
-6.1715e-07
2.62099e-10
-4.19968e-07
1.67713e-07
-2.03115e-06
4.82524e-06
-2.4416e-05
8.31238e-05
-0.000169778
3.77746e-05
-0.00075205
-0.000226783
-0.00047534
0.000445384
0.000314937
0.00181571
0.000959806
0.00236432
0.00138976
0.00246768
0.00176868
0.00222995
0.00201075
0.00161093
0.00217093
-0.0016643
0.00212203
-0.00266572
0.00171752
-0.0036693
0.00111379
-0.00456672
0.000488836
-0.00518236
4.79848e-05
-0.00541595
-1.50624e-08
2.0146e-08
-1.50987e-07
-4.58842e-08
-8.92968e-08
1.78763e-09
-7.79645e-08
9.92815e-08
-2.04622e-06
8.24761e-06
-4.59044e-06
4.79578e-05
-0.00027148
-0.000131275
-0.000867388
6.39993e-05
-9.39547e-05
0.0014513
0.00067935
0.00208006
0.00124407
0.00227023
0.0015872
0.00211036
0.00188827
0.00158342
0.00203826
0.000800341
0.000520251
-0.000709804
0.00051978
0.00052041
0.000520101
0.00215313
-0.00169126
0.0019075
-0.00285137
0.00135533
-0.00392074
0.000655715
-0.00473502
3.68166e-05
-0.00517113
-0.000243217
-0.00517046
-5.68699e-09
-1.10735e-08
-1.62537e-08
-5.23915e-09
-1.46129e-08
2.56909e-10
-5.00343e-08
9.13169e-08
-9.81506e-07
1.16338e-05
-7.55553e-06
8.96193e-06
-0.000539913
-0.00021664
-0.000593809
0.000981667
0.000375679
0.00174644
0.00101296
0.00205119
0.0014631
0.00193386
0.00176366
0.00158977
0.00188185
0.000779781
0.00205858
-5.34594e-07
2.71123e-05
-1.85765e-05
0.000512192
0.000522504
-0.000696875
0.000521987
0.000548675
0.000548219
2.71548e-05
-1.84286e-05
0.000510468
-4.21907e-07
2.32765e-05
0.000524611
2.3644e-05
0.00052314
0.00199314
-0.00177161
0.00155691
-0.00305277
0.000858531
-0.00412656
6.69976e-05
-0.00476547
-0.000460282
-0.00495267
-0.000491932
-0.00467262
-1.42857e-10
-4.80647e-10
-2.94071e-09
-9.92617e-10
-3.75138e-09
1.02761e-10
-1.09494e-07
6.67743e-07
1.55899e-06
1.74938e-06
-2.40114e-05
-4.51974e-05
-0.00081686
0.000459766
-7.19078e-05
0.00133525
0.000786874
0.00179231
0.00127185
0.00172011
0.00167683
0.00151638
0.00183702
0.000751212
0.0019103
4.02102e-05
3.95133e-05
0.000113403
0.000474403
0.000473542
0.000481972
0.000482361
-5.22572e-07
-1.42047e-05
0.000518658
-3.41214e-07
-7.26808e-05
9.25307e-05
0.000492599
-0.000699372
0.00200014
-1.39239e-05
0.00051695
-4.56364e-07
1.77392e-05
0.000517191
1.82762e-05
0.000515565
-7.24586e-05
9.28527e-05
0.000489647
-2.17094e-07
0.000492267
0.000489885
0.00169235
-0.00190722
0.00107894
-0.00328472
0.000224958
-0.00428488
-0.000583346
-0.00464199
-0.00097638
-0.00444911
-0.000714939
-0.0039504
-1.06452e-11
-5.09554e-11
-1.02208e-09
-2.73534e-10
-2.10783e-09
5.35262e-09
-3.735e-08
3.19068e-07
-2.76916e-08
-1.35578e-08
-0.000109749
8.10048e-05
-0.000461205
0.000840824
0.000422518
0.00149475
0.00108443
0.00145489
0.00153708
0.0013692
0.00182403
0.000701919
0.00188637
0.000208997
0.000446943
0.000447345
0.000460396
0.000460082
1.67125e-07
-0.000121098
0.000141713
0.000453644
-0.000121895
0.000143173
0.000452466
-2.17332e-07
-9.95983e-05
0.000460707
-0.000100089
0.00046034
-3.95188e-07
0.000107851
0.000503683
1.12209e-06
-0.000175244
0.000203269
0.00012595
0.000104494
0.00012798
0.000105007
-0.000718507
0.00171568
-0.00012692
-0.000127908
0.000478646
0.000450867
0.000451077
0.000455754
0.000454703
0.000108552
0.00050081
-4.28585e-07
0.000498508
0.000495742
-0.000175491
0.000203897
0.000125474
0.000104958
0.000127277
0.000104632
9.97636e-07
0.000126801
0.000101287
0.000123536
0.000106111
0.000126228
0.000103127
0.000123169
0.000106038
0.00125796
-0.00209189
0.000468355
-0.00352867
-0.000497523
-0.00437045
-0.0012677
-0.00432781
-0.00136879
-0.00366936
-0.000868282
-0.00307281
-2.40619e-12
-7.72564e-12
-6.43975e-10
4.5557e-12
-1.4632e-09
8.50599e-09
-4.37821e-10
1.57766e-10
-2.01234e-08
-4.7806e-08
-0.000238691
0.000376958
5.17906e-07
0.00108907
0.0008282
0.00116646
0.00137286
0.00114141
0.00176488
0.000640008
0.00188597
0.000258639
0.000452987
0.000452708
0.000466057
0.000465039
-1.8173e-07
-9.01503e-05
0.000437687
-9.01747e-05
0.000437259
-1.93954e-07
-7.34378e-05
0.000443892
-7.34439e-05
0.000443163
4.25182e-07
-0.000190568
4.82915e-05
6.91434e-05
8.65181e-05
4.9211e-05
0.000108867
9.25777e-05
0.000116699
7.24504e-05
-0.000190447
4.83187e-05
6.90911e-05
4.90341e-05
8.65766e-05
0.000108749
9.2582e-05
0.000116551
7.24363e-05
6.81371e-07
-0.000171988
9.88548e-05
0.000122091
9.79464e-05
0.000122534
-0.000171296
9.92399e-05
0.000122023
9.81525e-05
0.000122483
1.209e-06
0.000237785
0.00013064
0.000102379
0.000125701
0.000109091
6.80751e-05
8.46311e-06
2.23837e-07
-6.67879e-05
0.000115976
-8.60436e-06
-6.83609e-05
7.1677e-05
0.000109785
1.64903e-07
7.18287e-05
0.000115457
-6.59067e-05
0.000111017
-0.000792892
0.00133317
0.000612353
0.000393689
0.000393937
0.000398043
0.00039828
-2.27173e-07
-0.00026
0.000292501
0.000418494
-0.000259089
0.000292106
0.000417722
2.36369e-07
-0.000256209
0.00045164
-0.000255865
0.000451618
0.000238451
0.000130025
0.000103342
0.000125259
0.000108698
8.14457e-07
0.000128107
0.000110192
0.000132634
0.000108085
0.000127618
0.000111635
0.000131919
0.000107715
6.80718e-05
8.60993e-06
-6.67957e-05
0.000115812
-8.41737e-06
-6.81242e-05
7.16e-05
0.000109901
7.17675e-05
0.000115329
-6.59728e-05
0.000111092
-6.335e-05
8.98885e-06
2.25697e-07
0.000114148
-1.64326e-05
5.95317e-05
0.000106484
2.13968e-07
0.000112681
0.000108728
-6.34751e-05
8.99972e-06
0.000114133
-1.60564e-05
5.99855e-05
0.000107522
0.000112943
0.000109054
0.00067829
-0.00230393
-0.000273258
-0.00375271
-0.00125074
-0.00436331
-0.00167491
-0.00370774
-0.00142091
-0.00278273
-0.000771531
-0.00229202
-7.23551e-12
8.97108e-11
-2.2451e-10
3.52495e-11
-1.02195e-10
8.28135e-11
-2.17378e-11
-1.86061e-11
-2.62746e-07
-1.89912e-06
-0.000141885
0.000629266
0.000460089
0.000864821
0.00112984
0.000868411
0.00164586
0.000564676
0.00184021
0.00024189
0.000473341
0.00047258
0.000478703
0.000478101
-1.00239e-07
-6.41357e-05
0.00044379
-6.36218e-05
0.000442786
-1.4618e-07
-5.1013e-05
0.000453082
-5.0396e-05
0.000451667
1.07462e-06
-0.000160475
9.59661e-05
0.00011886
9.37556e-05
0.000116494
-0.000160026
9.66737e-05
0.000118831
9.50395e-05
0.000116514
1.36924e-06
-0.000138705
9.36588e-05
0.00011589
9.39493e-05
0.000117268
-0.000138667
9.48038e-05
0.000115875
9.52758e-05
0.00011724
-4.63051e-06
-5.86779e-05
5.63267e-05
9.34999e-05
-7.69243e-06
6.845e-05
9.49433e-05
-5.94146e-05
-6.42843e-08
0.000103819
5.99281e-05
-7.09313e-06
-5.87472e-05
9.97398e-05
5.93592e-09
-5.85605e-05
0.000108761
1.75774e-08
7.47099e-05
0.000102694
-7.77581e-06
6.85004e-05
9.5839e-05
-4.42534e-06
-5.85019e-05
5.58085e-05
9.36956e-05
-5.93397e-05
5.97966e-05
0.000103803
-7.00172e-06
-5.86731e-05
9.97564e-05
-5.85182e-05
0.000108733
7.47179e-05
0.000102903
-8.04973e-06
5.85096e-05
-5.71525e-05
0.000105549
5.82298e-05
-5.28921e-09
-5.75115e-05
0.000113327
-8.0874e-06
0.000105799
6.12442e-09
0.000114141
-7.89267e-06
5.84622e-05
-5.72403e-05
0.000105912
5.81849e-05
-5.74489e-05
0.000113389
-7.9915e-06
0.000105936
0.000114164
-7.52321e-05
7.90381e-06
2.72814e-07
8.12339e-05
0.000116461
-8.43057e-06
7.49906e-05
0.000107489
2.02311e-07
0.000113664
8.11645e-05
0.000110806
7.98508e-05
2.1509e-06
-3.31571e-08
-7.90591e-05
0.000113066
-1.64906e-06
-7.91124e-05
8.26409e-05
0.000107908
-8.40236e-08
8.26923e-05
0.000111033
-7.61361e-05
0.000110196
-0.000905574
0.000789038
0.000644318
0.000318075
0.000317736
0.000333703
0.000333826
-2.01362e-07
-0.000308849
0.00032588
0.000376873
-0.000308708
0.000325989
0.000376458
-2.03109e-07
0.000381866
0.00038144
5.88014e-07
-0.000340596
0.000392423
7.71637e-05
9.94385e-05
8.33221e-05
0.000105762
-0.000340966
0.000392734
7.75478e-05
9.93578e-05
8.35544e-05
0.000105706
4.44759e-07
-9.46224e-05
-7.63205e-05
0.000110148
-0.000101226
0.000132169
9.79058e-05
0.000122224
-7.98459e-05
-9.4652e-05
-7.6327e-05
0.000110795
-0.00010161
0.000132196
9.82733e-05
0.000122227
-7.99852e-05
-7.53058e-05
8.08955e-06
8.11579e-05
0.000116356
-8.27025e-06
7.53004e-05
0.000107904
0.000113653
8.09598e-05
0.000111114
8.18348e-05
8.3919e-06
1.90323e-07
0.000118923
-1.59822e-05
-8.33819e-05
0.000114913
1.57229e-07
0.000121993
0.000114233
8.1845e-05
8.39063e-06
0.00011873
-1.55419e-05
-8.30715e-05
0.000115574
0.000122052
0.000113969
7.98406e-05
1.90466e-06
-7.90128e-05
0.000113046
-1.38783e-06
-7.9176e-05
8.26676e-05
0.000107802
8.26952e-05
0.000111002
-7.60596e-05
0.000109885
2.57521e-06
9.83152e-09
0.000107233
0.000103624
2.48448e-06
0.000107364
0.000103986
-7.95958e-05
-0.00249764
-0.0010622
-0.00393974
-0.00173765
-0.00391495
-0.0013836
-0.00253863
-0.00108266
-0.00207644
-0.000597102
-0.00168928
-7.78442e-12
2.63684e-11
-7.52151e-11
6.59749e-11
-8.45904e-12
-5.85139e-12
-2.91936e-10
-4.49666e-10
-1.36823e-05
9.49262e-05
0.000163208
0.000534164
0.00079039
0.000607591
0.00139066
0.000468367
0.00174217
0.000163167
0.000476499
0.000476011
0.000483276
0.000483151
-6.7535e-08
-4.13662e-05
0.000463762
-4.09199e-05
0.000463037
-1.85416e-07
-3.47461e-05
0.000472269
-3.45323e-05
0.000471528
1.29579e-06
-0.000119266
9.41825e-05
0.000116694
9.53066e-05
0.000116909
-0.000119479
9.53605e-05
0.000116557
9.62669e-05
0.000116702
1.219e-06
-0.000103358
0.000100094
0.000119373
9.78224e-05
0.000118638
-0.000104617
0.000101413
0.000119271
9.88295e-05
0.000118486
-7.86047e-06
-5.64757e-05
0.000103151
-5.71323e-05
-1.38145e-08
0.000110649
-8.05207e-06
-5.39987e-05
9.93363e-05
-3.82187e-08
-5.49016e-05
0.000106284
-7.6669e-06
-5.67794e-05
0.00010388
-5.71308e-05
0.000110832
-7.65303e-06
-5.43495e-05
0.000100263
-5.49177e-05
0.0001066
-8.12101e-06
5.04615e-05
-4.5814e-05
9.71285e-05
5.09388e-05
2.44642e-08
-4.66548e-05
0.000103481
-8.21602e-06
9.86235e-05
-2.7342e-09
0.000105073
-7.81346e-06
5.06437e-05
-4.61159e-05
9.80895e-05
5.09642e-05
-4.6645e-05
0.000103775
-7.9073e-06
9.94774e-05
0.000105386
-1.75935e-06
5.09546e-05
-7.19594e-07
-4.01027e-05
-4.1687e-05
-1.0606e-08
-6.14855e-08
5.40479e-05
-1.05256e-06
-3.54235e-05
-1.37876e-08
-3.57547e-05
-1.67279e-06
5.09828e-05
-6.91895e-07
-4.01174e-05
5.40095e-05
-4.16844e-05
-1.02562e-06
-3.54628e-05
-3.57711e-05
-1.17557e-06
3.47289e-05
-3.43151e-05
3.46969e-05
-4.22712e-08
-3.42747e-05
-1.22472e-06
-2.1291e-08
-1.08983e-06
3.47656e-05
-3.44447e-05
3.47096e-05
-3.43193e-05
-1.19657e-06
-8.69287e-05
1.41127e-06
-3.73707e-08
9.15474e-05
0.000110482
-1.39264e-06
8.68932e-05
0.000104629
-9.17697e-08
0.000108143
9.18528e-05
0.000107251
4.77638e-05
1.00711e-06
1.53639e-08
-4.93485e-05
-7.15369e-07
-4.7652e-05
4.86002e-05
-2.17014e-08
4.85232e-05
-4.8078e-05
-0.00106372
7.83694e-05
0.000593336
0.000195261
0.00019493
0.000225379
0.000225033
-2.92186e-08
-0.000327495
0.000346834
0.000298802
-0.000327821
0.000347523
0.000298027
-1.73833e-08
0.00033212
0.000331981
1.26152e-06
-0.000438819
0.000452352
8.16809e-05
0.000105096
7.67599e-05
9.8289e-05
-0.000439241
0.000452624
8.28963e-05
0.000105053
7.78656e-05
9.83139e-05
8.80558e-07
7.04118e-05
9.05228e-05
7.55759e-05
9.77131e-05
7.08751e-05
9.05268e-05
7.65071e-05
9.75989e-05
-7.46135e-06
-9.86465e-05
0.000108195
7.50385e-05
-9.93224e-05
-3.50347e-08
0.000109497
8.1888e-05
-7.38188e-06
-9.13806e-05
8.34085e-05
2.80605e-09
-9.17637e-05
9.08188e-05
-7.28728e-06
-9.85112e-05
0.000107934
7.53735e-05
-9.92881e-05
0.000109398
8.19256e-05
-7.31733e-06
-9.12361e-05
8.35672e-05
-9.17555e-05
9.08586e-05
-6.25293e-06
8.51967e-05
-9.84613e-05
0.000129659
-9.36147e-06
-9.66492e-05
0.000119677
8.46099e-05
-1.18996e-07
0.000136832
-9.53705e-05
-7.59231e-06
9.92999e-05
-4.66019e-08
0.000107525
1.26713e-08
-9.32312e-05
0.000125986
-5.91395e-06
8.51687e-05
-9.86665e-05
0.000130207
-9.37125e-06
-9.66671e-05
0.000119992
8.46345e-05
0.000136962
-9.54336e-05
-7.43042e-06
9.9626e-05
0.000107629
-9.33122e-05