/*--------------------------------*- C++ -*----------------------------------*\
| =========                 |                                                 |
| \\      /  F ield         | OpenFOAM: The Open Source CFD Toolbox           |
|  \\    /   O peration     | Version:  5.x                                   |
|   \\  /    A nd           | Web:      www.OpenFOAM.org                      |
|    \\/     M anipulation  |                                                 |
\*---------------------------------------------------------------------------*/
FoamFile
{
    version     2.0;
    format      ascii;
    class       volScalarField;
    location    "2.7";
    object      k;
}
// * * * * * * * * * * * * * * * * * * * * * * * * * * * * * * * * * * * * * //

dimensions      [0 2 -2 0 0 0 0];

internalField   nonuniform List<scalar> 
12160
(
9.93039e-09
9.88778e-09
1.00204e-08
9.85908e-09
1.00559e-08
1.00108e-08
9.84178e-09
1.00929e-08
1.00216e-08
1.00102e-08
9.8328e-09
1.01495e-08
1.00349e-08
1.00187e-08
1.00102e-08
9.82888e-09
1.01843e-08
1.00521e-08
1.00261e-08
1.00187e-08
1.00113e-08
9.8276e-09
1.01925e-08
1.00655e-08
1.0033e-08
1.00252e-08
1.00214e-08
1.00117e-08
9.82743e-09
1.01868e-08
1.00704e-08
1.00379e-08
1.003e-08
1.0028e-08
1.00255e-08
1.00223e-08
9.82759e-09
1.01777e-08
1.00689e-08
1.00397e-08
1.00328e-08
1.00316e-08
1.00336e-08
1.00513e-08
1.01799e-08
9.82775e-09
1.017e-08
1.00665e-08
1.00394e-08
1.00338e-08
1.00333e-08
1.0037e-08
1.00585e-08
1.01795e-08
1.01961e-08
9.82774e-09
1.01644e-08
1.00645e-08
1.00387e-08
1.00339e-08
1.00337e-08
1.00373e-08
1.00531e-08
1.01669e-08
1.01969e-08
1.02612e-08
9.82758e-09
1.016e-08
1.00629e-08
1.00381e-08
1.00336e-08
1.00339e-08
1.00367e-08
1.00482e-08
1.01438e-08
1.01997e-08
1.02963e-08
1.03227e-08
9.82787e-09
1.01559e-08
1.00612e-08
1.00376e-08
1.00334e-08
1.0034e-08
1.00364e-08
1.00468e-08
1.01249e-08
1.01971e-08
1.03307e-08
1.03076e-08
1.01969e-08
9.82874e-09
1.01513e-08
1.00593e-08
1.00371e-08
1.00332e-08
1.00339e-08
1.00365e-08
1.00491e-08
1.01095e-08
1.01894e-08
1.02996e-08
1.02991e-08
1.01342e-08
1.0182e-08
9.82999e-09
1.01499e-08
1.00575e-08
1.00364e-08
1.00328e-08
1.00337e-08
1.00366e-08
1.00524e-08
1.00995e-08
1.01755e-08
1.0276e-08
1.02128e-08
1.02151e-08
1.01132e-08
1.01163e-08
9.83126e-09
1.01502e-08
1.00564e-08
1.00357e-08
1.00324e-08
1.00334e-08
1.00366e-08
1.00552e-08
1.00938e-08
1.01618e-08
1.02568e-08
1.02016e-08
1.01165e-08
1.01273e-08
1.00351e-08
9.83278e-09
1.01518e-08
1.00556e-08
1.00351e-08
1.00319e-08
1.00329e-08
1.00363e-08
1.00568e-08
1.00918e-08
1.01479e-08
1.02409e-08
1.02135e-08
1.00993e-08
1.00713e-08
1.00773e-08
9.83501e-09
1.01542e-08
1.0055e-08
1.00348e-08
1.00314e-08
1.00324e-08
1.00357e-08
1.00574e-08
1.00917e-08
1.01353e-08
1.02256e-08
1.02268e-08
1.01005e-08
1.00531e-08
1.00427e-08
9.83868e-09
1.01551e-08
1.0054e-08
1.00346e-08
1.00312e-08
1.00319e-08
1.0035e-08
1.00572e-08
1.00925e-08
1.01278e-08
1.02103e-08
1.02356e-08
1.01012e-08
1.00483e-08
1.00311e-08
9.84349e-09
1.01557e-08
1.0053e-08
1.00343e-08
1.0031e-08
1.00317e-08
1.00345e-08
1.00565e-08
1.00926e-08
1.01231e-08
1.01957e-08
1.02441e-08
1.01081e-08
1.00472e-08
1.00267e-08
9.84824e-09
1.01555e-08
1.00527e-08
1.0034e-08
1.00309e-08
1.00316e-08
1.00341e-08
1.00559e-08
1.00919e-08
1.01194e-08
1.01823e-08
1.02532e-08
1.01019e-08
1.00479e-08
1.0026e-08
9.85248e-09
1.01553e-08
1.00532e-08
1.0034e-08
1.00309e-08
1.00316e-08
1.00341e-08
1.00549e-08
1.00906e-08
1.01169e-08
1.01735e-08
1.02719e-08
1.01132e-08
1.0046e-08
1.00261e-08
9.85575e-09
1.01561e-08
1.00539e-08
1.00342e-08
1.00309e-08
1.00316e-08
1.00343e-08
1.00541e-08
1.00887e-08
1.01141e-08
1.01675e-08
1.02569e-08
1.01519e-08
1.00487e-08
1.00262e-08
9.85785e-09
1.01569e-08
1.00544e-08
1.00345e-08
1.00312e-08
1.00319e-08
1.00349e-08
1.00537e-08
1.00862e-08
1.01096e-08
1.01587e-08
1.0231e-08
1.01852e-08
1.00669e-08
1.00279e-08
9.85871e-09
1.01571e-08
1.00546e-08
1.00347e-08
1.00315e-08
1.00325e-08
1.00363e-08
1.00536e-08
1.00836e-08
1.01044e-08
1.01482e-08
1.02127e-08
1.01955e-08
1.00897e-08
1.00327e-08
9.85836e-09
1.01569e-08
1.00545e-08
1.00348e-08
1.00318e-08
1.00332e-08
1.00382e-08
1.00539e-08
1.00808e-08
1.01e-08
1.01381e-08
1.02035e-08
1.01942e-08
1.01024e-08
1.00407e-08
9.85694e-09
1.01564e-08
1.00542e-08
1.00348e-08
1.00318e-08
1.00336e-08
1.00394e-08
1.00543e-08
1.00773e-08
1.00966e-08
1.01306e-08
1.01993e-08
1.01924e-08
1.01152e-08
1.00481e-08
9.85465e-09
1.01556e-08
1.00537e-08
1.00347e-08
1.00317e-08
1.00334e-08
1.00396e-08
1.00536e-08
1.00741e-08
1.00938e-08
1.01245e-08
1.01959e-08
1.01902e-08
1.01217e-08
1.00535e-08
9.85168e-09
1.01544e-08
1.0053e-08
1.00346e-08
1.00317e-08
1.00329e-08
1.00385e-08
1.00515e-08
1.00702e-08
1.00908e-08
1.0119e-08
1.01806e-08
1.01896e-08
1.01209e-08
1.00564e-08
9.84821e-09
1.01529e-08
1.0052e-08
1.00344e-08
1.00319e-08
1.00329e-08
1.00368e-08
1.0048e-08
1.00648e-08
1.00849e-08
1.01111e-08
1.01553e-08
1.01822e-08
1.01209e-08
1.00552e-08
9.84443e-09
1.01513e-08
1.00509e-08
1.00342e-08
1.0032e-08
1.00335e-08
1.00367e-08
1.00445e-08
1.00585e-08
1.00765e-08
1.00996e-08
1.01319e-08
1.0163e-08
1.01181e-08
1.00553e-08
9.8405e-09
1.01494e-08
1.00496e-08
1.00338e-08
1.0032e-08
1.00341e-08
1.00384e-08
1.00445e-08
1.00528e-08
1.00665e-08
1.00852e-08
1.01109e-08
1.01346e-08
1.01029e-08
1.00557e-08
9.83648e-09
1.01477e-08
1.00482e-08
1.00334e-08
1.00319e-08
1.00345e-08
1.00403e-08
1.00477e-08
1.00529e-08
1.00579e-08
1.00688e-08
1.00879e-08
1.01079e-08
1.00828e-08
1.00474e-08
9.83342e-09
1.01468e-08
1.00469e-08
1.0033e-08
1.00317e-08
1.00346e-08
1.00418e-08
1.00519e-08
1.00578e-08
1.00575e-08
1.00561e-08
1.00635e-08
1.00799e-08
1.00641e-08
1.00324e-08
9.83243e-09
1.01459e-08
1.00458e-08
1.00326e-08
1.00315e-08
1.00343e-08
1.00426e-08
1.00557e-08
1.00645e-08
1.00642e-08
1.00568e-08
1.0047e-08
1.00524e-08
1.00461e-08
1.00227e-08
9.83255e-09
1.01444e-08
1.00456e-08
1.00324e-08
1.00313e-08
1.0034e-08
1.00427e-08
1.00587e-08
1.00712e-08
1.00734e-08
1.00674e-08
1.00519e-08
1.00347e-08
1.00303e-08
1.00158e-08
9.83323e-09
1.01435e-08
1.0047e-08
1.00324e-08
1.00313e-08
1.00336e-08
1.00423e-08
1.0061e-08
1.00775e-08
1.00833e-08
1.00807e-08
1.00702e-08
1.00377e-08
1.00206e-08
1.00106e-08
9.83418e-09
1.01439e-08
1.00494e-08
1.00329e-08
1.00314e-08
1.00333e-08
1.00416e-08
1.00626e-08
1.00833e-08
1.00934e-08
1.00945e-08
1.00887e-08
1.00539e-08
1.00205e-08
1.00077e-08
9.83532e-09
1.01458e-08
1.00524e-08
1.00338e-08
1.00317e-08
1.00333e-08
1.00405e-08
1.00637e-08
1.00882e-08
1.01038e-08
1.011e-08
1.01068e-08
1.00692e-08
1.00265e-08
1.00075e-08
9.83663e-09
1.01489e-08
1.00558e-08
1.0035e-08
1.00323e-08
1.00336e-08
1.00394e-08
1.00643e-08
1.00921e-08
1.01127e-08
1.01291e-08
1.01297e-08
1.00824e-08
1.00342e-08
1.00091e-08
1.01531e-08
9.83877e-09
1.00594e-08
1.00364e-08
1.00331e-08
1.00342e-08
1.00395e-08
1.00646e-08
1.00953e-08
1.01174e-08
1.01483e-08
1.01658e-08
1.00963e-08
1.00429e-08
1.00108e-08
1.00629e-08
1.01605e-08
9.84126e-09
1.00381e-08
1.00341e-08
1.00351e-08
1.00404e-08
1.00651e-08
1.00988e-08
1.01182e-08
1.01588e-08
1.02057e-08
1.01075e-08
1.0052e-08
1.0013e-08
1.00399e-08
1.00686e-08
1.01729e-08
9.84507e-09
1.00352e-08
1.00361e-08
1.00418e-08
1.00658e-08
1.01001e-08
1.01198e-08
1.01593e-08
1.02304e-08
1.01181e-08
1.0058e-08
1.00172e-08
1.00365e-08
1.00429e-08
1.00742e-08
1.01966e-08
9.85587e-09
1.00374e-08
1.00436e-08
1.00667e-08
1.01005e-08
1.01222e-08
1.01577e-08
1.02376e-08
1.01301e-08
1.00592e-08
1.00219e-08
1.00388e-08
1.00387e-08
1.00462e-08
1.00819e-08
1.02527e-08
9.89384e-09
1.00456e-08
1.00679e-08
1.01009e-08
1.01252e-08
1.01581e-08
1.02249e-08
1.01416e-08
1.0059e-08
1.00239e-08
1.00478e-08
1.00412e-08
1.00413e-08
1.00508e-08
1.00931e-08
1.03655e-08
1.00209e-08
1.00693e-08
1.01015e-08
1.01285e-08
1.01618e-08
1.02134e-08
1.01594e-08
1.00609e-08
1.0025e-08
1.0071e-08
1.00509e-08
1.0044e-08
1.00448e-08
1.00591e-08
1.01353e-08
1.11279e-08
1.53873e-08
1.01023e-08
1.01316e-08
1.01684e-08
1.02098e-08
1.01815e-08
1.00694e-08
1.00269e-08
1.01033e-08
1.00726e-08
1.00541e-08
1.00469e-08
1.00503e-08
1.00932e-08
2.65901e-08
2.19509e-07
4.63104e-07
1.01343e-08
1.0176e-08
1.02115e-08
1.02733e-08
1.00999e-08
1.00332e-08
1.01367e-08
1.01042e-08
1.00742e-08
1.00569e-08
1.00518e-08
1.05469e-08
3.16062e-07
3.60412e-06
8.9406e-06
1.07329e-07
1.0184e-08
1.02693e-08
1.47986e-08
1.03164e-08
1.00465e-08
1.0525e-08
1.02126e-08
1.04507e-08
1.03368e-08
1.03816e-08
6.72402e-08
4.16221e-06
3.57988e-05
8.16252e-05
2.70305e-06
0.000162422
1.43688e-08
2.4323e-07
1.81932e-08
1.00785e-08
1.27545e-06
1.65578e-06
5.06975e-06
5.93167e-06
1.73782e-06
3.0191e-06
4.17215e-05
0.000241109
0.000467128
5.28472e-05
0.000232681
0.0401869
8.59277e-06
3.11718e-07
1.11946e-08
0.000195315
0.00149308
0.00233593
0.00157529
0.000528683
0.000122984
0.000373989
0.00127537
0.00191338
0.000593185
0.000253319
0.0331724
0.0463984
0.0458302
8.99725e-06
6.79354e-08
0.000178794
0.00248558
0.0180427
0.0310181
0.0148755
0.00319586
0.00197717
0.00429697
0.00583008
0.00296917
0.000470553
0.0271725
0.0406932
0.0463817
0.0515196
0.0514366
2.25431e-06
5.81057e-05
0.00208374
0.020525
0.0573526
0.06662
0.0294962
0.00802284
0.0110886
0.0131015
0.00819531
0.00113708
0.0225715
0.034839
0.040745
0.0449296
0.0512551
0.0561202
0.0563584
0.000907273
0.0181021
0.0526144
0.0879575
0.0771173
0.0358157
0.0177331
0.0266734
0.0169748
0.00699922
0.0177647
0.0302374
0.0349119
0.040108
0.0438371
0.0491306
0.0551345
0.0599078
0.0605896
0.0109228
0.0499937
0.0648737
0.0943876
0.0723174
0.0393221
0.0423023
0.0322355
0.0176567
0.0177263
0.026379
0.029937
0.0349413
0.0395272
0.0426896
0.0472518
0.0527067
0.0588972
0.064714
0.0644522
0.0371388
0.0590118
0.0640122
0.0823005
0.0668139
0.0465327
0.0707145
0.034894
0.0223875
0.0247004
0.0261945
0.0300166
0.0349044
0.0388973
0.0478169
0.0453877
0.050456
0.0564552
0.0633263
0.0711834
0.0681329
0.0473267
0.0625736
0.0630252
0.0685923
0.0625917
0.0689615
0.0648285
0.0400727
0.0287514
0.0241163
0.0261278
0.0302495
0.0343352
0.037921
0.654676
0.0494985
0.655121
0.652119
0.652468
0.0472637
0.0539525
0.0606495
0.0687045
0.0789743
0.0714
0.0512455
0.0583682
0.057571
0.0615682
0.0635643
0.126089
0.0652534
0.0376256
0.0253837
0.0236814
0.0264098
0.0296052
0.0316611
0.0636151
0.68622
0.772603
0.0441527
0.686706
0.71335
0.713883
0.772864
0.768086
0.768546
0.0499967
0.0579962
0.0652598
0.0744771
0.087074
0.0737996
0.030663
0.0487754
0.0548599
0.0605235
0.0903923
0.0951936
0.0561713
0.0330618
0.0233614
0.0238583
0.0256587
0.0260337
0.0341829
0.543479
0.54347
0.533292
0.533362
0.79788
0.755122
0.045875
0.108845
0.798125
0.807474
0.807717
0.754835
0.74899
0.748756
0.0534123
0.0625883
0.0701341
0.0797501
0.0937588
0.0745876
0.0227664
0.0442908
0.0565518
0.0682524
0.078913
0.0897108
0.0533825
0.0286282
0.022848
0.0229996
0.0222803
0.0279392
0.492492
0.49258
0.502716
0.503104
0.666278
0.666468
0.657027
0.656997
0.787681
0.662176
1.07871
0.658578
1.09504
0.0479217
0.0542715
0.587961
0.5881
0.604971
0.604939
0.787386
0.802217
0.801921
0.661848
1.08033
0.658473
1.09388
0.660521
1.02043
0.655294
1.0773
0.660864
1.03018
0.656429
1.08006
0.0576226
0.0679927
0.0748249
0.0835131
0.0970453
0.0727048
0.0204111
0.0427725
0.0570079
0.0503307
0.0563556
0.101885
0.0473993
0.0266218
0.0221164
0.0198325
0.0255745
0.494388
0.494728
0.512547
0.513171
0.616298
0.616279
0.618673
0.618679
1.00133
1.06241
0.605841
1.0001
0.609066
0.624641
1.07068
1.00153
0.605877
0.999978
0.609079
0.626156
0.956996
0.589523
0.984559
0.602949
0.959655
0.589972
0.98569
0.603118
0.680357
1.08827
0.669881
1.11645
0.618113
1.12469
0.611101
1.14286
0.0496117
0.0483772
0.535644
0.535774
0.56119
0.561285
0.709301
0.709412
0.721168
0.721877
0.68038
1.09237
0.67012
1.11815
0.695164
1.13361
0.697545
1.15368
0.694537
1.13829
0.697751
1.1504
0.618028
1.12569
0.611163
1.14228
0.619141
1.12161
0.620143
1.12668
0.0636057
0.0744282
0.0791797
0.0857337
0.097242
0.0683917
0.0192511
0.0376834
0.0346523
0.0470824
0.0959338
0.0883724
0.0418923
0.0263368
0.0197374
0.0249115
0.546009
0.546498
0.54851
0.548953
0.610027
0.610037
0.632459
0.632565
0.911723
0.561205
0.903577
0.55658
0.917498
0.562139
0.91266
0.557963
0.891923
0.553498
0.900867
0.555866
0.900255
0.554795
0.910066
0.557299
1.06636
1.04242
0.596016
0.594492
1.0539
0.593856
1.07111
1.04262
0.595534
0.596044
1.05409
0.593913
0.993733
0.564314
1.03472
0.583462
0.997939
0.565122
1.03633
0.583809
0.621866
1.12037
0.611741
1.14753
0.597157
1.1343
0.592336
1.14472
0.0530925
0.0457139
0.462151
0.462417
0.506332
0.50645
0.716276
0.716075
0.714075
0.713987
1.1051
0.643675
1.09197
0.640751
1.10738
0.644043
1.09401
0.641157
1.10103
1.17615
0.636544
1.07634
0.63909
0.644978
1.10333
1.18025
0.63704
1.07887
0.639657
0.645586
0.62215
1.12248
0.612077
1.14942
0.639274
1.19282
0.638939
1.19133
0.59712
1.13341
0.592219
1.14367
0.593712
1.107
0.594762
1.11188
0.0723887
0.0824242
0.0831306
0.0888179
0.094241
0.0624621
0.0179907
0.0179636
0.0310751
0.0716308
0.144287
0.0826685
0.0453288
0.0277346
0.0196067
0.556635
0.556984
0.542977
0.543469
0.650776
0.650768
0.671909
0.672115
0.880522
0.549747
0.886471
0.553377
0.887935
0.55088
0.89282
0.554348
0.90396
0.584572
0.910441
0.570254
0.911945
0.585677
0.916865
0.571255
0.950828
0.538826
0.933827
0.528325
0.958033
0.540258
0.943198
0.530232
0.911807
0.511723
0.925181
0.519164
0.921705
0.51372
0.9342
0.521104
0.596696
1.13285
0.590842
1.145
0.0647925
0.041221
0.357754
0.358043
0.422281
0.422562
0.67021
0.670038
0.689035
0.688807
1.13769
0.660177
1.12528
0.654108
1.1427
0.660752
1.12881
0.654508
1.11864
0.647168
1.12526
0.651489
1.11996
0.647376
1.12821
0.651801
1.1717
0.626176
1.16037
0.623714
1.17404
0.626619
1.16247
0.624186
1.19662
1.14177
0.626559
0.619774
1.14595
0.623378
1.19818
1.1444
0.627079
0.620093
1.1488
0.623997
0.596847
1.13376
0.591029
1.14543
0.612512
1.18824
0.612214
1.18668
0.0866673
0.0903332
0.0872787
0.0938566
0.0863179
0.0566063
0.00760371
0.0172602
0.104997
0.127832
0.170608
0.129882
0.0603505
0.0439047
0.04573
0.703953
0.704188
0.698226
0.698873
0.663158
0.663242
0.685126
0.685116
0.911533
0.513448
0.932645
0.522309
0.920417
0.515242
0.940035
0.523833
0.945155
0.565608
0.957138
0.539749
0.952934
0.567016
0.964805
0.541308
0.911711
0.501062
0.921246
0.503068
0.0896982
0.0663434
0.232778
0.233079
0.324306
0.324583
0.568826
0.568868
0.621694
0.621516
1.0779
0.625806
1.12324
0.636937
1.08194
0.626195
1.12591
0.637282
1.13454
0.651989
1.1292
0.647072
1.13819
0.652496
1.13307
0.647515
1.19956
0.635268
1.19606
0.633438
1.20331
0.635977
1.19769
0.633824
1.18404
0.628858
1.19178
0.631987
1.18518
0.6291
1.19348
0.63231
0.102581
0.0944327
0.0938409
0.0979743
0.0765711
0.0517078
0.00551246
0.0530964
0.134218
0.169676
0.277735
0.206901
0.118579
0.0863131
0.600708
0.601092
0.593845
0.594267
0.712495
0.712233
0.715412
0.715834
0.594233
0.944661
0.583797
0.975831
0.594236
0.943787
0.583725
0.975652
0.606738
0.985225
0.610012
0.98927
0.606975
0.991018
0.610828
0.990557
0.911382
0.498557
0.932
0.503693
0.919103
0.500302
0.938082
0.505132
0.946749
0.535922
0.94263
0.514828
0.952392
0.537054
0.948653
0.516233
0.120086
0.103282
0.202204
0.464468
0.464899
0.516108
0.516336
0.675157
0.675545
0.742605
0.743267
1.17622
0.617186
1.20621
0.62406
1.17942
0.617776
1.20873
0.624678
1.19874
0.631848
1.19958
0.627742
1.20229
0.6326
1.20319
0.628512
1.22045
0.63097
1.22488
0.631778
0.108696
0.0943704
0.103314
0.0898157
0.0677578
0.0477382
0.0192055
0.100411
0.119445
0.170632
0.200304
0.298219
0.218406
0.108139
0.738167
0.738013
0.699966
0.699811
1.01301
0.631076
0.653105
1.02243
1.01819
0.631657
0.652803
1.02189
0.749604
0.749487
0.565192
1.00128
0.5626
1.02251
0.565135
1.0005
0.562487
1.02166
0.566634
1.02709
0.575491
1.01926
0.567123
1.03418
0.576822
1.02124
0.966452
0.5361
0.970578
0.536887
0.129303
0.152261
0.1764
0.542847
0.542855
0.632617
0.632889
0.632381
0.632753
0.672002
0.671876
0.639802
1.22021
0.63511
1.23142
0.639836
1.2193
0.634882
1.23079
0.644213
1.21376
0.635694
1.21812
0.644515
1.2151
0.636193
1.21895
1.24998
0.621297
1.25679
0.62394
1.2531
0.621989
1.25955
0.624663
1.23953
0.62869
1.24101
0.624507
1.24312
0.6295
1.24474
0.625366
0.104133
0.093311
0.106482
0.0719
0.0641866
0.0572696
0.101204
0.10506
0.132061
0.160655
0.123785
0.128902
0.428324
0.428094
0.247758
0.247689
1.07157
0.667838
1.04963
0.674822
1.07683
0.668689
1.05527
0.675568
0.720185
0.720222
1.07015
0.600123
0.635057
1.07413
1.07428
0.600878
0.634746
1.07261
1.06305
0.659172
1.05813
0.653936
1.06787
0.659965
1.05816
0.65394
0.55849
1.03646
0.562808
1.02306
0.559243
1.04266
0.564029
1.02694
0.122255
0.161127
0.21865
0.385606
0.75266
0.751085
0.737024
0.734754
0.780403
0.779248
1.23518
0.632312
0.620768
1.17538
1.23251
0.63159
0.619825
1.17295
0.656369
1.36703
0.657303
1.36548
0.656632
1.36671
0.657257
1.36646
0.650183
1.30957
0.63819
1.34459
0.650649
1.31222
0.638808
1.34642
1.29686
0.628646
1.30113
0.629461
0.0941934
0.0936025
0.0848557
0.0695627
0.0819654
0.0791989
0.0751988
0.102074
0.0804879
0.0662817
0.0844424
0.0844693
0.0703281
0.0702871
0.449079
0.448844
0.1721
0.171857
1.10612
0.629923
1.0906
0.649457
1.11203
0.631155
1.09496
0.650309
0.632157
0.929913
0.589268
1.02941
0.632292
0.933054
0.589613
1.02995
1.06587
0.579294
0.605797
1.08294
1.0665
0.579572
0.605397
1.08081
1.09297
0.615313
1.08938
0.616256
1.09892
0.616496
1.09063
0.616544
0.107112
0.147436
0.213822
0.397742
0.905102
0.903949
0.904796
0.902889
0.929079
0.926305
1.45247
0.700695
1.38531
0.692865
1.44197
0.698062
1.37524
0.689496
1.43707
0.702147
1.46147
0.703098
1.32068
0.647549
1.43271
0.700797
1.45864
0.702314
1.3178
0.646778
1.37071
0.656778
1.36849
0.656352
0.676839
1.46365
0.689544
1.42701
0.6771
1.46412
0.68955
1.42845
0.0837978
0.0858766
0.0714564
0.0702666
0.0517816
0.0486755
0.0463604
0.0494778
0.0457315
0.0773867
0.077381
0.0640578
0.0639708
0.640247
0.930959
0.393191
0.535367
0.333682
0.53133
0.934029
0.641139
0.531847
0.39323
0.536096
0.333531
0.066101
0.0921283
0.143102
0.125149
0.0688801
0.091355
0.144876
0.124798
1.09039
0.603686
1.09872
0.61591
1.09483
0.60473
1.10157
0.616558
0.586786
1.04354
0.586998
1.04435
0.59842
1.08122
0.598207
1.08008
1.08458
0.600822
1.09049
0.602017
0.0865813
0.126372
0.183938
0.314908
0.977291
0.976853
0.988453
0.987624
0.957956
0.954508
1.01241
1.00979
0.761556
1.50318
0.75718
1.57454
0.728751
1.50919
0.760612
1.49932
0.755385
1.57109
0.727888
1.50663
1.54004
0.728304
1.53653
0.727433
1.52469
0.726171
1.53308
1.48772
0.729605
0.698888
1.52326
0.72566
1.53183
1.48669
0.729239
0.698467
1.49524
0.700828
1.49437
0.700553
0.0740777
0.0706749
0.0490939
0.0362982
0.0321168
0.0315308
0.042148
0.0717599
0.0717537
0.0725182
0.0725514
0.0552831
0.0553278
0.0570032
0.0569188
0.869807
0.600815
0.348845
0.482998
0.443112
0.268198
0.872701
0.602683
0.483485
0.349101
0.445831
0.268655
0.0551432
0.0643721
0.0964006
0.0931675
0.0554975
0.0658802
0.0988357
0.0938359
1.08131
0.598212
1.08328
0.598696
0.0653712
0.0968141
0.151393
0.238653
0.517935
0.956253
0.95496
0.982916
0.980661
1.46064
0.767028
1.55766
0.783046
1.44736
0.762662
1.54603
0.780181
1.62572
1.60099
0.806133
1.58077
0.793553
0.792097
1.62106
1.59504
0.804954
1.57503
0.791915
0.790486
0.790993
0.76076
1.61368
1.58756
0.789504
0.76009
1.60727
1.58529
1.59034
0.762294
1.58907
0.761846
1.57663
0.757944
1.52381
0.722165
1.57685
0.757636
1.52324
0.721891
0.0671123
0.0217446
0.0275597
0.0289426
0.0311383
0.0613421
0.0944014
0.0943391
0.115641
0.115657
0.0488141
0.0570878
0.0434656
0.0606764
0.0490903
0.0561269
0.0440847
0.0594833
0.0620642
0.0618861
0.0545515
0.0480188
0.0758681
0.0713668
0.05353
0.0490101
0.0766191
0.0725127
0.0623688
0.0643094
0.111435
0.184956
0.324261
0.860126
0.859911
0.903454
0.902465
0.870635
0.869153
0.978661
0.974545
1.50942
0.765439
1.54457
0.776604
1.50394
0.763901
1.54179
0.775879
1.65395
1.60496
0.815499
0.804068
1.56047
0.789928
1.64781
1.60349
0.8037
0.81393
1.56069
0.789873
0.780044
1.59476
0.778992
1.59054
0.0147563
0.0215846
0.0264351
0.034262
0.167541
0.167535
0.144337
0.144419
0.0995738
0.0994731
0.144627
0.144655
0.047565
0.0540757
0.0416914
0.05848
0.0476087
0.0529372
0.0420256
0.0569662
0.0861082
0.0725831
0.0723969
0.0568392
0.085669
0.0724553
0.0715089
0.0567075
0.0692781
0.0596827
0.0702708
0.0609046
0.058058
0.0684371
0.131148
0.230501
0.462384
0.824435
0.823766
0.873045
0.871768
0.897228
0.895527
0.711837
1.45324
0.737876
1.33031
0.710534
1.44201
0.73542
1.32603
1.48755
0.753801
1.4896
0.770696
1.47883
0.75203
1.48285
0.76947
0.00931835
0.0141901
0.0206566
0.058972
0.235787
0.235664
0.198125
0.197933
0.0870198
0.0728294
0.123685
0.115939
0.0903258
0.148604
0.0862406
0.0726934
0.123697
0.115954
0.0903647
0.14879
0.179377
0.179342
0.0497766
0.0592008
0.0477609
0.0652317
0.0497033
0.0585359
0.0479278
0.0640481
0.0786096
0.0609398
0.0776754
0.0607845
0.0554891
0.0772078
0.155857
0.303136
0.792493
0.79219
0.783508
0.783012
0.729021
0.729309
0.850061
0.848047
1.27063
0.683891
1.36057
0.692863
1.37381
0.705605
1.26381
0.6812
1.36315
0.693453
1.37199
0.705398
1.42135
0.719716
1.41636
0.718928
1.43625
0.740059
1.42747
0.738617
0.00489745
0.0133307
0.0234063
0.226805
0.226745
0.169451
0.16953
0.249027
0.248848
0.251917
0.251822
0.101741
0.0765181
0.136893
0.161738
0.115759
0.18717
0.101367
0.076495
0.13695
0.162053
0.115847
0.187477
0.288045
0.207931
0.295423
0.185004
0.287416
0.20772
0.293737
0.18467
0.0551668
0.0892486
0.187351
0.444445
0.797898
0.796915
0.783923
0.78321
0.766852
0.767784
1.30046
0.679056
0.632114
1.25161
0.663135
1.10173
0.633316
1.24882
0.662592
1.10619
1.30013
0.679055
1.35026
1.37129
0.68999
0.699028
1.35633
1.37746
0.691385
0.700408
1.38536
0.709296
1.38804
0.710006
0.00538102
0.0150707
0.0504187
0.260924
0.260781
0.200594
0.20064
0.329656
0.22382
0.2711
0.4415
0.262991
0.414853
0.329125
0.223632
0.271314
0.441508
0.263231
0.415272
0.287216
0.287061
0.169688
0.271007
0.169351
0.269357
0.355899
0.212333
0.354814
0.212118
0.0567027
0.101656
0.229257
0.753457
0.752804
0.799643
0.798315
0.748972
0.74702
0.769045
0.766143
1.04044
0.596623
1.13063
0.611046
1.1849
0.638227
1.03715
1.18883
0.639271
0.595091
1.13748
0.613143
1.28006
0.672823
1.22622
0.658959
1.22654
1.2773
0.659259
0.672555
0.00448249
0.0451449
0.0662164
0.210392
0.210276
0.197587
0.197357
0.419397
0.247759
0.269491
0.471496
0.266169
0.431071
0.418683
0.247682
0.269112
0.46848
0.265535
0.429819
0.332686
0.225132
0.388003
0.236372
0.332971
0.224521
0.38351
0.234946
0.398551
0.235104
0.39748
0.234924
0.058101
0.111986
0.275592
0.702073
0.700936
0.747301
0.745081
0.796172
0.791828
1.1041
0.592966
0.604209
1.14006
0.59939
1.06971
1.10805
0.593755
0.601419
1.13174
0.597402
1.06097
1.11183
1.16706
0.603053
0.634939
1.17724
0.637049
1.12425
0.60538
0.0436612
0.0316026
0.101481
0.147961
0.147685
0.101273
0.145544
0.145666
0.16301
0.284938
0.192242
0.16235
0.28615
0.192612
0.455985
0.259934
0.239149
0.455268
0.243764
0.429752
0.452964
0.259217
0.237888
0.445783
0.242778
0.421765
0.311355
0.184141
0.31167
0.184132
0.0583079
0.117157
0.259045
0.605642
0.60416
0.690826
0.687693
1.03548
0.593172
1.1825
0.604558
1.17494
0.607912
1.02462
1.16156
0.604546
0.588754
1.17347
0.602492
1.12186
0.593556
1.16214
0.599078
1.12364
0.593883
1.15419
0.597454
1.10047
0.603827
1.11182
0.605628
0.0313524
0.0249737
0.153619
0.103
0.153261
0.102603
0.113416
0.113391
0.236337
0.215887
0.137433
0.204166
0.145233
0.163966
0.2652
0.203456
0.21456
0.23254
0.136346
0.204851
0.145349
0.162568
0.262879
0.202178
0.195414
0.354795
0.195513
0.356701
0.229637
0.138938
0.230369
0.139054
0.0564041
0.108221
0.320498
0.564696
0.562864
0.319508
0.426989
0.425465
0.676594
1.05342
0.574048
0.675494
1.049
0.572601
1.17701
1.14539
0.599175
0.58496
1.16823
0.597429
1.14341
0.584728
1.12973
0.600497
1.16191
0.602831
1.12857
0.60021
1.15441
0.601486
0.00818349
0.0300135
0.144435
0.180201
0.263351
0.0887675
0.144072
0.17939
0.25856
0.0882772
0.0789779
0.0791666
0.220829
0.265455
0.23686
0.135553
0.130682
0.156088
0.219542
0.234764
0.260363
0.134457
0.129823
0.154468
0.139444
0.231826
0.139932
0.234923
0.0513851
0.108993
0.310621
0.485433
0.483148
0.308631
0.380322
0.377486
0.942191
1.02909
0.55396
1.04051
0.565529
0.510352
0.745436
0.477217
0.944041
1.0333
0.554911
1.03927
0.564951
0.511232
0.739655
0.474183
1.1599
1.11258
0.596614
0.577743
1.15626
0.596097
1.11338
0.578269
0.0063988
0.0429338
0.0576381
0.057793
0.0434316
0.0620667
0.0619433
0.143767
0.168863
0.255077
0.155569
0.257398
0.152453
0.172271
0.132389
0.0849044
0.13319
0.125746
0.144964
0.167215
0.248918
0.153549
0.251669
0.149143
0.175895
0.132313
0.0838908
0.136837
0.123913
0.238603
0.252718
0.141403
0.153712
0.236885
0.247318
0.140331
0.152084
0.0465773
0.0883519
0.242384
0.471816
0.444047
0.744241
0.468873
0.444558
0.746446
0.238941
0.318642
0.312608
0.985257
0.869758
1.0766
0.533736
0.57196
0.481192
0.997561
0.876961
1.08209
0.573454
0.536303
0.482533
1.12996
0.591406
1.12836
0.591513
0.00439396
0.0531805
0.0304095
0.05287
0.0302329
0.0302341
0.0299579
0.256236
0.258265
0.145368
0.152701
0.18328
0.116291
0.062009
0.129514
0.0989431
0.127512
0.113551
0.0788852
0.0689295
0.127882
0.251072
0.254484
0.151183
0.14405
0.184545
0.116011
0.132461
0.0697563
0.0988291
0.132863
0.112327
0.0759125
0.0682069
0.123244
0.0366867
0.03368
0.218609
0.215362
0.0395573
0.115252
0.11378
0.468571
0.433121
0.722227
0.419748
0.727574
0.374053
0.635374
0.366502
0.454648
0.432173
0.716968
0.418107
0.725914
0.366124
0.626518
0.365486
0.305312
0.471392
0.319762
0.300455
0.459399
0.313829
0.927802
0.81754
0.523267
0.469869
0.943788
0.820409
0.525701
0.470137
0.00195318
0.0489593
0.0936641
0.0643606
0.0191761
0.0484359
0.0956078
0.0640555
0.0184931
0.0146426
0.0143794
0.243165
0.1415
0.181158
0.116267
0.126311
0.076019
0.171817
0.113887
0.0825113
0.0574257
0.241097
0.140517
0.181338
0.116045
0.129201
0.173049
0.0793371
0.1141
0.0829159
0.0582983
0.0290168
0.067259
0.147429
0.14391
0.0673726
0.0948448
0.0938253
0.783652
0.680734
0.46041
0.395851
0.564498
0.327534
0.781604
0.674178
0.460125
0.395293
0.561231
0.327231
0.354984
0.427603
0.261083
0.461277
0.297019
0.231934
0.271217
0.355848
0.344385
0.422998
0.259784
0.450804
0.292376
0.228065
0.260673
0.345286
0.0010588
0.008391
0.00828577
0.0414684
0.0971159
0.0514158
0.0991449
0.055027
0.0134512
0.0412944
0.0970891
0.0508562
0.0956108
0.0549356
0.0129922
0.172042
0.112266
0.0700676
0.116591
0.0826202
0.0542571
0.17361
0.114878
0.0741417
0.117079
0.0834355
0.0554588
0.0236778
0.0467829
0.147513
0.247055
0.214191
0.143298
0.248486
0.210726
0.0478558
0.081503
0.0815837
0.624503
0.382092
0.52622
0.30868
0.621015
0.382316
0.526204
0.309033
0.365621
0.263409
0.484171
0.216772
0.285415
0.166987
0.360383
0.253557
0.486283
0.285844
0.215632
0.164773
0.000499154
0.00571062
0.00678641
0.00556523
0.00672332
0.0339553
0.0865269
0.0445524
0.0946058
0.0416708
0.0571562
0.0495877
0.0099736
0.0335296
0.0888161
0.044262
0.0917442
0.0420957
0.0646027
0.0512652
0.00949126
0.105508
0.0826527
0.108255
0.0836612
0.0198808
0.0391087
0.0391978
0.132932
0.24782
0.230573
0.251028
0.214749
0.130656
0.245144
0.217574
0.241024
0.208426
0.0687252
0.068221
0.290947
0.426412
0.253192
0.19522
0.262269
0.162496
0.285378
0.426894
0.241554
0.262253
0.194335
0.160217
0.000600976
0.0112733
0.0159855
0.0112222
0.015969
0.0110989
0.0106873
0.0292237
0.0811371
0.0369697
0.084242
0.0366261
0.0464899
0.0497628
0.0456419
0.052257
0.0975151
0.0814694
0.0286121
0.0826392
0.0362481
0.0824863
0.0368322
0.0469667
0.0549853
0.0469716
0.0530073
0.100879
0.0827271
0.0258158
0.0303286
0.0286245
0.0310885
0.0303612
0.120309
0.236353
0.222638
0.247744
0.20409
0.244203
0.158855
0.118082
0.238926
0.212786
0.241292
0.203885
0.234648
0.156893
0.0596616
0.0595912
0.25992
0.185877
0.254079
0.185186
0.00071018
0.0363875
0.0434784
0.0364941
0.0433816
0.0162604
0.0210267
0.0160429
0.0209437
0.0281916
0.0273264
0.0872151
0.0363188
0.088444
0.0355159
0.0419255
0.0352962
0.0367409
0.0449727
0.0790847
0.0890237
0.0765323
0.0876785
0.0885732
0.0354052
0.0864986
0.0356563
0.0422183
0.0354227
0.0367704
0.0453565
0.0801437
0.0918218
0.077972
0.0896231
0.0361916
0.0351065
0.0495221
0.0366772
0.0503596
0.0553643
0.0566907
0.110933
0.219108
0.199498
0.219682
0.199045
0.163832
0.240918
0.159148
0.240053
0.243171
0.181357
0.109142
0.219825
0.189502
0.211951
0.19827
0.162676
0.231392
0.157295
0.234352
0.237794
0.180655
0.000367796
0.0617606
0.0385252
0.0616208
0.0380557
0.0430302
0.0549988
0.0431387
0.0550294
0.0297158
0.0311822
0.0287258
0.0303381
0.0944713
0.0387125
0.0967132
0.0370892
0.0977073
0.0394194
0.100068
0.0376721
0.0337803
0.0337856
0.0351499
0.0310829
0.0339245
0.0332225
0.0348069
0.0310784
0.0371006
0.0662671
0.0776265
0.06653
0.0784403
0.0640795
0.0824511
0.065122
0.0823586
0.102163
0.102198
0.219362
0.193539
0.223049
0.172944
0.167443
0.219467
0.153382
0.244778
0.183888
0.23286
0.178364
0.235925
0.221896
0.184166
0.215562
0.174432
0.166419
0.211719
0.152138
0.239802
0.183335
0.2275
0.177585
0.231091
0.0079498
0.000569244
0.0646763
0.0394748
0.0647944
0.0391315
0.0397382
0.0529263
0.0392174
0.0526383
0.107184
0.0429576
0.104281
0.0442524
0.111495
0.0525839
0.114435
0.0479981
0.111586
0.043994
0.108307
0.045582
0.114752
0.0522808
0.114461
0.0491259
0.0339916
0.0333472
0.0340176
0.0322082
0.0347818
0.034687
0.0352484
0.0330675
0.0391241
0.0913064
0.0538525
0.0922617
0.0581762
0.10007
0.117378
0.0992382
0.117288
0.111271
0.134961
0.110882
0.132527
0.217835
0.172505
0.22061
0.167669
0.221543
0.171762
0.219992
0.170515
0.154707
0.206161
0.150229
0.200747
0.154134
0.198778
0.149169
0.197541
0.0014884
0.0537714
0.0326147
0.0533418
0.0326941
0.000959172
0.068842
0.0564885
0.0686765
0.0556827
0.117983
0.0605939
0.116229
0.0598244
0.126317
0.0780358
0.124957
0.0699776
0.120205
0.060184
0.115925
0.0607336
0.129119
0.0766934
0.123041
0.0714714
0.0378818
0.0391804
0.0364705
0.041381
0.044782
0.0565172
0.0576131
0.0475365
0.0403458
0.0412759
0.0384247
0.0437255
0.0473439
0.0565388
0.0580445
0.0495482
0.0448522
0.0926787
0.13004
0.159133
0.129808