/*--------------------------------*- C++ -*----------------------------------*\
| =========                 |                                                 |
| \\      /  F ield         | OpenFOAM: The Open Source CFD Toolbox           |
|  \\    /   O peration     | Version:  5.x                                   |
|   \\  /    A nd           | Web:      www.OpenFOAM.org                      |
|    \\/     M anipulation  |                                                 |
\*---------------------------------------------------------------------------*/
FoamFile
{
    version     2.0;
    format      ascii;
    class       surfaceScalarField;
    location    "2.7";
    object      meshPhi;
}
// * * * * * * * * * * * * * * * * * * * * * * * * * * * * * * * * * * * * * //

dimensions      [0 3 -1 0 0 0 0];

internalField   nonuniform List<scalar> 
30582
(
0
0
0
0
0
0
0
0
0
0
0
0
0
0
0
0
0
0
0
0
0
0
0
0
0
0
0
0
0
0
0
0
0
0
0
0
0
0
0
0
0
0
0
0
0
0
0
0
0
0
0
0
0
0
0
0
0
0
0
0
0
0
0
0
0
0
0
0
0
0
0
0
0
0
0
0
0
0
0
0
0
0
0
0
0
0
0
0
0
0
0
0
0
0
0
0
0
0
0
0
0
0
0
0
0
0
0
0
0
0
0
0
0
0
0
0
0
0
0
0
0
0
0
0
0
0
0
0
0
0
0
0
0
0
0
0
0
0
0
0
0
0
0
0
0
0
0
0
0
0
0
0
0
0
0
0
0
0
0
0
0
0
0
0
0
0
0
0
0
0
0
0
0
0
0
0
0
0
0
0
0
0
0
0
0
0
0
0
0
0
0
0
0
0
0
0
0
0
0
0
0
0
0
0
0
0
0
0
0
0
0
0
0
0
0
0
0
0
0
0
0
0
0
0
0
0
0
0
0
0
0
0
0
0
0
0
0
0
0
0
0
0
0
0
0
0
0
0
0
0
0
0
0
0
0
0
0
0
0
0
0
0
0
0
0
0
0
0
0
0
0
0
0
0
0
0
0
0
0
0
0
0
0
0
0
0
0
0
0
0
0
0
0
0
0
0
0
0
0
0
0
0
0
0
0
0
0
0
0
0
0
0
0
0
0
0
0
0
0
0
0
0
0
0
0
0
0
0
0
0
0
0
0
0
0
0
0
0
0
0
0
0
0
0
0
0
0
0
0
0
0
0
0
0
0
0
0
0
0
0
0
0
0
0
0
0
0
0
0
0
0
0
0
0
0
0
0
0
0
0
0
0
0
0
0
0
0
0
0
0
0
0
0
0
0
0
0
0
0
0
0
0
0
0
0
0
0
0
0
0
0
0
0
0
0
0
0
0
0
0
0
0
0
0
0
0
0
0
0
0
0
0
0
0
0
0
0
0
0
0
0
0
0
0
0
0
0
0
0
0
0
0
0
0
0
0
0
0
0
0
0
0
0
0
0
0
0
0
0
0
0
0
0
0
0
0
0
0
0
0
0
0
0
0
0
0
0
0
0
0
0
0
0
0
0
0
0
0
0
0
0
0
0
0
0
0
0
0
0
0
0
0
0
0
0
0
0
0
0
0
0
0
0
0
0
0
0
0
0
0
0
0
0
0
0
0
0
0
0
0
0
0
0
0
0
0
0
0
0
0
0
0
0
0
0
0
0
0
0
0
0
0
0
0
0
0
0
0
0
0
0
0
0
0
0
0
0
0
0
0
0
0
0
0
0
0
0
0
0
0
0
0
0
0
0
0
0
0
0
0
0
0
0
0
0
0
0
0
0
0
0
0
0
0
0
0
0
0
0
0
0
0
0
0
0
0
0
0
0
0
0
0
0
0
0
0
0
0
0
0
0
0
0
0
0
0
0
0
0
0
0
0
0
0
0
0
0
0
0
0
0
0
0
0
0
0
0
0
0
0
0
0
0
0
0
0
0
0
0
0
0
0
0
0
0
0
0
0
0
0
0
0
0
0
0
0
0
0
0
0
0
0
0
0
0
0
0
0
0
0
0
0
0
0
0
0
0
0
0
0
0
0
0
0
0
0
0
0
0
0
0
0
0
0
0
0
0
0
0
0
0
0
0
0
0
0
0
0
0
0
0
0
0
0
0
0
0
0
0
0
0
0
0
0
0
0
0
0
0
0
0
0
0
0
0
0
0
0
0
0
0
0
0
0
0
0
0
0
0
0
0
0
0
0
0
0
0
0
0
0
0
0
0
0
0
0
0
0
0
0
0
0
0
0
0
0
0
0
0
0
0
0
0
0
0
0
0
0
0
0
0
0
0
0
0
0
0
0
0
0
0
0
0
0
0
0
0
0
0
0
0
0
0
0
0
0
0
0
0
0
0
0
0
0
0
0
0
0
0
0
0
0
0
0
0
0
0
0
0
0
0
0
0
0
0
0
0
0
0
0
0
0
0
0
0
0
0
0
0
0
0
0
0
0
0
0
0
0
0
0
0
0
0
0
0
0
0
0
0
0
0
0
0
0
0
0
0
0
0
0
0
0
0
0
0
0
0
0
0
0
0
0
0
0
0
0
0
0
0
0
0
0
0
0
0
0
0
0
0
0
0
0
0
0
0
0
0
0
0
0
0
0
0
0
0
0
0
0
0
0
0
0
0
0
0
0
0
0
0
0
0
0
0
0
0
0
0
0
0
0
0
0
0
0
0
0
0
0
0
0
0
0
0
0
0
0
0
0
0
0
0
0
0
0
0
0
0
0
0
0
0
0
0
0
0
0
0
0
0
0
0
0
0
0
0
0
0
0
0
0
0
0
0
0
0
0
0
0
0
0
0
0
0
0
0
0
0
0
0
0
0
0
0
0
0
0
0
0
0
0
0
0
0
0
0
0
0
0
0
0
0
0
0
0
0
0
0
0
0
0
0
0
0
0
0
0
0
0
0
0
0
0
0
0
0
0
0
0
0
0
0
0
0
0
0
0
0
0
0
0
0
0
0
0
0
0
0
0
0
0
0
0
0
0
0
0
0
0
0
0
0
0
0
0
0
0
0
0
0
0
0
0
0
0
0
0
0
0
0
0
0
0
0
0
0
0
0
0
0
0
0
0
0
0
0
0
0
0
0
0
0
0
0
0
0
0
0
0
0
0
0
0
0
0
0
0
0
0
0
0
0
0
0
0
0
0
0
0
0
0
0
0
0
0
0
0
0
0
0
0
0
0
0
0
0
0
0
0
0
0
0
0
0
0
0
0
0
0
0
0
0
0
0
0
0
0
0
0
0
0
0
0
0
0
0
0
0
0
0
0
0
0
0
0
0
0
0
0
0
0
0
0
0
0
0
0
0
0
0
0
0
0
0
0
0
0
0
0
0
0
0
0
0
0
0
0
0
0
0
0
0
0
0
0
0
0
0
0
0
0
0
0
0
0
0
0
0
0
0
0
0
0
0
0
0
0
0
0
0
0
0
0
0
0
0
0
0
0
0
0
0
0
0
0
0
0
0
0
0
0
0
0
0
0
0
0
0
0
0
0
0
0
0
0
0
0
0
0
0
0
0
0
0
0
0
0
0
0
0
0
0
0
0
0
0
0
0
0
0
0
0
0
0
0
0
0
0
0
0
0
0
0
0
0
0
0
0
0
0
0
0
0
0
0
0
0
0
0
0
0
0
0
0
0
0
0
0
0
0
0
0
0
0
0
0
0
0
0
0
0
0
0
0
0
0
0
0
0
0
0
0
0
0
0
0
0
0
0
0
0
0
0
0
0
0
0
0
0
0
0
0
0
0
0
0
0
0
0
0
0
0
-2.64605e-18
9.33213e-18
-3.78644e-25
2.7993e-17
1.39937e-17
1.86732e-17
0
0
0
0
0
0
0
0
0
0
0
0
0
0
0
0
0
0
0
0
0
0
0
0
0
0
0
0
0
0
0
0
0
0
0
0
0
0
4.65507e-18
1.46552e-34
-6.79035e-19
1.07889e-25
2.33062e-17
-1.86617e-17
-2.60166e-18
2.7993e-17
-4.66483e-18
2.80013e-17
-1.35047e-18
-2.95825e-25
-4.6616e-17
3.37903e-34
-1.99982e-18
2.79782e-17
6.76244e-18
-4.66303e-17
0
0
0
0
0
0
0
0
0
0
0
0
0
0
0
0
0
0
0
0
0
0
0
0
0
0
0
0
0
0
0
0
0
0
0
0
0
7.75486e-19
-4.01681e-18
2.94761e-17
-3.27646e-20
-5.5783e-17
-1.85775e-17
3.72639e-17
-1.22351e-35
-1.33075e-18
1.39838e-17
1.69889e-33
-6.86425e-19
1.88623e-25
2.32512e-17
0
7.92473e-17
-7.79887e-21
-3.72928e-17
-2.08315e-35
6.52047e-19
2.79782e-17
6.76244e-18
-2.79793e-17
-4.20771e-20
2.96816e-24
-2.79065e-17
2.60457e-34
-6.12335e-21
-3.72054e-17
0
0
0
0
0
0
0
0
0
0
0
0
0
0
0
0
0
0
0
0
0
0
0
0
0
0
0
0
0
0
0
0
0
0
0
1.46412e-17
2.79038e-17
1.85745e-17
4.70311e-18
4.7662e-20
2.19424e-34
8.39598e-20
5.0325e-20
3.25706e-17
1.07139e-17
-2.57104e-18
-1.83486e-17
-1.69051e-34
2.24301e-19
1.39045e-17
-2.50615e-18
-1.85409e-17
1.00346e-34
7.356e-20
-4.65503e-18
0
3.99019e-19
8.10791e-24
8.10382e-18
-1.38845e-17
1.04165e-17
-1.39042e-17
0
0
1.9376e-18
-3.98145e-18
1.90362e-17
1.18686e-20
2.7957e-17
9.26153e-18
-5.5783e-17
-8.41542e-20
-3.72087e-17
-2.11839e-34
-9.30744e-18
-7.44485e-17
0
-3.77328e-24
2.08438e-17
-2.31336e-18
2.08299e-17
-4.64361e-18
0
-9.29011e-18
2.39872e-18
-9.36516e-18
9.2861e-18
-1.16148e-17
9.35167e-18
-1.17365e-17
2.3312e-18
0
0
0
0
0
0
0
0
0
0
0
0
0
0
0
0
0
0
0
0
0
0
0
0
0
0
0
0
0
0
0
0
0
-1.28415e-17
2.33463e-17
-1.86373e-17
1.39913e-17
9.44554e-18
-7.34571e-35
-4.01632e-18
2.78729e-17
2.53685e-18
-3.70812e-17
-2.75138e-34
9.45496e-18
1.4013e-17
0
-3.74525e-17
9.54958e-36
-1.9893e-11
-5.35554e-12
-1.98979e-09
8.00329e-14
-2.93982e-13
1.56104e-08
2.27796e-13
1.57996e-08
-1.38724e-10
8.45365e-19
-1.63365e-19
5.34062e-19
1.64082e-19
-4.71932e-18
1.80832e-17
1.18567e-18
1.11999e-17
2.15575e-18
3.4892e-34
-9.02545e-16
9.23497e-13
1.54444e-08
-1.23256e-14
3.11699e-08
6.52639e-19
1.13239e-18
2.53555e-17
4.6204e-18
3.23362e-17
0
-3.61414e-19
1.04264e-17
-4.63187e-18
1.50416e-17
-9.2598e-18
7.58287e-19
7.75093e-20
0
-4.83412e-19
8.07775e-18
-1.8772e-31
7.81276e-19
4.68244e-23
-4.60111e-18
0
7.29511e-22
-1.62535e-15
9.04668e-19
-9.22349e-18
0
0
-3.80836e-17
4.70325e-18
9.40758e-18
-1.61285e-20
1.85745e-17
0
1.33515e-18
1.2168e-18
4.63262e-18
-6.69206e-18
-2.50604e-18
-1.99398e-33
0
1.5196e-22
1.39154e-17
-2.67209e-18
-9.25154e-18
-7.70357e-20
1.27349e-17
-4.62741e-18
8.1025e-18
-4.63751e-18
0
-9.28245e-18
4.72041e-18
-1.40074e-17
9.28042e-18
-1.39255e-17
1.16842e-17
-1.17138e-17
4.64611e-18
1.14868e-18
7.73983e-20
-1.31838e-18
8.06568e-18
0
7.71098e-20
-8.07922e-26
-8.06922e-18
-8.97912e-26
5.76385e-18
0
1.59807e-21
-1.31174e-18
0
0
1.84393e-17
0
-1.24798e-18
9.23488e-13
0
1.30589e-10
-1.37845e-17
-9.42987e-19
1.54044e-19
1.61099e-17
7.65572e-20
-1.24746e-18
-9.28872e-18
3.49583e-17
-9.2253e-18
0
0
0
0
0
0
0
0
0
0
0
0
0
0
0
0
0
0
0
0
0
0
0
0
0
0
0
0
0
0
0
5.19078e-18
1.62219e-20
-9.28154e-18
9.45558e-18
-9.41127e-18
-2.34585e-35
-1.1759e-18
-1.40487e-17
1.30716e-17
-3.72778e-17
-3.30257e-35
-9.14948e-20
4.63547e-18
1.07841e-17
-1.85871e-17
1.03373e-25
4.48096e-09
-3.32461e-12
1.40022e-08
7.72401e-11
1.53586e-08
9.79699e-09
-4.55986e-18
1.86523e-17
1.46349e-12
-1.12252e-10
-3.59209e-27
-4.36637e-09
3.65143e-10
1.40895e-09
-1.30245e-10
4.49217e-10
-9.54502e-09
-1.34806e-12
-6.9841e-10
-1.1903e-12
2.28775e-10
-6.59781e-20
3.23352e-19
-1.06563e-18
-9.41958e-13
2.00794e-24
-2.15485e-13
-1.36996e-13
6.23464e-16
-1.14502e-34
-1.66309e-08
-9.03423e-16
6.31995e-20
4.9869e-13
1.85843e-17
-3.21482e-34
-8.78085e-11
-4.61454e-18
0
2.02443e-09
1.53312e-08
7.54476e-20
-4.61503e-19
-9.35857e-18
0
5.81949e-19
-7.24227e-20
1.01062e-17
-1.23294e-18
3.84597e-18
5.87444e-19
-6.31642e-20
-1.68288e-19
1.39337e-17
-1.1388e-18
-2.20496e-17
4.78881e-19
1.62191e-17
0
-4.92534e-13
6.64922e-12
1.23134e-12
4.39587e-11
1.09213e-34
1.83836e-08
-1.94568e-09
6.52887e-20
1.85494e-17
-4.08593e-35
-1.50986e-17
0
5.00211e-19
1.3161e-18
4.52461e-18
-9.32677e-19
-1.08106e-17
3.89652e-18
6.52669e-20
9.26405e-18
-1.74093e-17
6.33766e-19
7.75094e-20
0
-9.68948e-19
1.03916e-17
7.72277e-20
6.96237e-19
-1.38208e-17
0
-1.61842e-15
5.12284e-19
-1.8487e-17
-2.10118e-09
0
0
1.98002e-09
2.38507e-11
7.65911e-20
1.10821e-13
9.73211e-22
-2.9486e-13
0
5.1875e-21
1.54827e-08
7.38819e-14
-1.53964e-14
0
0
-1.28415e-17
1.4069e-17
-9.28832e-18
-4.70889e-18
-9.25427e-18
4.36983e-34
3.85796e-18
1.26405e-18
9.39556e-18
-2.74808e-18
1.0241e-19
0
-5.21188e-34
4.68482e-18
0
0
2.08995e-16
1.71786e-08
-3.69401e-12
1.6568e-08
-6.92095e-18
-6.35265e-15
-2.2933e-18
6.5256e-19
-9.14426e-18
1.16811e-17
-4.62026e-18
2.54022e-17
0
-1.89318e-12
-1.37256e-10
6.77071e-14
-1.20209e-12
1.62706e-08
-1.20398e-17
-9.77824e-15
-2.1639e-09
9.69949e-22
2.20333e-18
-1.14926e-18
3.08274e-20
3.95644e-17
-5.79743e-18
3.72886e-17
3.69469e-18
9.39215e-19
7.73986e-20
-1.33848e-18
2.42574e-17
7.70897e-20
7.71138e-20
-1.15273e-18
1.38328e-17
-2.22542e-36
-2.31306e-18
-9.43166e-19
1.54263e-19
0
2.30597e-17
7.67349e-20
-1.38915e-18
5.0483e-13
0
1.57685e-08
-1.61176e-17
-1.22524e-18
7.70211e-20
2.65213e-17
0
-1.35551e-18
-2.31043e-18
1.61891e-17
9.25776e-34
6.17208e-19
-1.55334e-19
-2.69594e-18
2.54535e-17
0
2.80651e-19
-2.08315e-24
-9.52264e-22
-9.6227e-24
4.58806e-17
9.46657e-20
-2.31266e-18
1.54251e-19
0
-1.54337e-08
-1.49301e-13
-7.70994e-20
9.04189e-18
-3.40758e-18
0
0
0
0
0
0
0
0
0
0
0
0
0
0
0
0
0
0
0
0
0
0
0
0
0
0
0
0
0
-1.59245e-17
2.33665e-17
-2.18192e-20
-4.64561e-18
-4.41589e-20
-8.33242e-34
-2.32145e-18
1.85429e-17
2.10372e-17
-1.84929e-17
-1.27909e-33
5.54349e-18
-1.87011e-17
5.54521e-18
-1.83272e-17
-3.68743e-26
-4.2796e-09
1.5017e-10
-1.58022e-08
-3.83648e-09
-1.58068e-08
-9.35674e-09
8.70914e-13
-2.92231e-10
-7.6959e-13
7.66329e-09
-1.12343e-26
6.33638e-11
-3.96116e-09
1.58696e-08
-3.891e-09
1.57259e-08
1.34573e-10
3.80944e-13
7.93349e-09
7.11864e-13
7.77554e-09
0
5.97198e-12
-1.23133e-12
1.91205e-08
-1.04085e-34
-1.94412e-09
1.45294e-19
-4.8776e-09
2.98238e-17
1.43847e-26
-1.73285e-12
-2.0628e-17
0
-3.37404e-18
4.75361e-18
6.29705e-19
-1.21927e-17
-7.25595e-20
1.84059e-12
1.14634e-17
9.75402e-09
-3.32105e-17
7.34841e-20
-6.64922e-12
4.61976e-09
1.45463e-17
-1.90045e-08
1.42726e-26
1.72653e-12
-3.2035e-15
0
2.35595e-17
-1.35332e-26
-1.17267e-17
-1.4681e-19
-1.42783e-18
-1.72515e-12
8.34508e-18
6.85798e-18
-9.23815e-09
6.26677e-18
7.44862e-20
1.41356e-17
-1.87407e-17
0
4.30968e-13
-3.73656e-25
-1.27964e-18
-1.5567e-16
-7.50572e-35
1.23693e-34
2.63124e-09
-2.62882e-20
6.15659e-14
-4.40985e-34
-8.32656e-09
-1.37028e-33
5.056e-20
-2.99265e-34
-7.78273e-19
-1.09537e-18
1.92347e-18
-2.63075e-20
-4.62207e-19
1.83589e-19
-5.13077e-25
8.8177e-19
5.98249e-19
-1.21093e-18
-1.31718e-35
5.1737e-16
3.42337e-20
-4.43059e-34
-4.03738e-34
1.31154e-19
-7.45518e-19
-1.18364e-18
-2.1965e-18
0
7.73769e-11
2.33066e-19
0
2.04606e-09
-1.56253e-08
7.65872e-20
5.38495e-19
1.29764e-14
0
-1.54968e-08
3.07844e-14
-1.46231e-13
-1.15624e-09
0
7.44161e-34
1.30102e-09
-4.02585e-20
-1.1082e-13
-5.40355e-21
3.48963e-34
-9.32154e-21
-7.38799e-14
0
0
5.40921e-18
9.40967e-18
-1.25336e-32
-9.29707e-18
-9.31349e-18
1.35132e-35
8.01758e-18
-3.68341e-19
4.61324e-18
-1.29825e-17
1.09704e-17
-5.58081e-17
1.18074e-35
4.58997e-18
-3.72152e-17
1.57521e-26
-4.4809e-09
-4.36642e-09
3.69268e-10
1.74174e-08
-1.3347e-10
1.62318e-08
-9.79709e-09
-9.54502e-09
-1.39808e-12
-6.98387e-10
-1.18773e-12
2.28798e-10
-4.53288e-25
-1.13899e-12
3.08018e-08
7.70252e-11
1.53587e-08
-3.41973e-18
1.39892e-17
1.46863e-12
-1.12206e-10
0
4.66504e-19
-6.60304e-12
-4.30971e-13
-4.5478e-16
0
-1.83832e-08
-1.52819e-08
0
1.23039e-18
1.62488e-17
0
-2.33758e-16
-1.38548e-17
6.74511e-20
3.21456e-19
6.71245e-19
3.58971e-20
4.71024e-19
-4.62118e-18
5.88931e-18
-6.52594e-20
6.53476e-19
6.94295e-18
-8.91867e-19
-2.19894e-17
-6.59779e-20
-1.72796e-18
-6.3106e-13
-9.41958e-13
-1.50975e-19
1.41603e-13
2.32407e-13
4.7344e-17
0
-1.66308e-08
-3.39214e-09
-1.26403e-19
2.3127e-17
0
-1.96615e-17
0
-2.38453e-10
3.20051e-08
-6.59704e-20
-5.48858e-19
3.75909e-19
-2.39384e-19
7.54478e-20
-2.86368e-19
-4.67305e-18
4.9406e-19
-4.26636e-18
3.84585e-18
6.31638e-20
9.28318e-18
-1.03424e-17
4.19026e-19
3.02137e-17
1.30111e-18
-7.7666e-20
-3.20029e-18
3.23902e-17
1.95148e-33
1.52796e-19
-2.29362e-18
2.5239e-17
-2.18425e-19
-1.05772e-21
7.71213e-20
0
1.55379e-08
3.83247e-13
-7.71005e-20
2.72999e-17
-3.41722e-18
-4.0371e-19
-4.24884e-20
-5.19321e-19
-4.02323e-20
9.96858e-20
-5.21509e-24
2.91967e-23
-5.2224e-20
0
1.59645e-34
-4.59135e-20
0
0
0
0
0
0
0
0
0
0
0
0
0
0
0
0
0
0
0
0
0
0
0
0
0
0
0
0
6.99943e-17
7.72035e-34
8.11345e-18
-9.3667e-18
2.62316e-17
-9.22064e-18
3.50392e-33
7.81258e-18
4.60971e-18
-1.59178e-17
-2.79565e-17
-4.58958e-25
-5.48901e-18
3.67503e-09
2.6332e-17
8.04273e-09
-5.78694e-34
-1.3204e-17
2.32567e-17
2.73018e-17
-4.65143e-17
0
-2.33954e-12
-6.36858e-18
-2.47528e-10
0
-3.23035e-15
2.84211e-24
4.68315e-09
-2.31628e-17
0
2.34723e-12
9.27633e-18
1.42675e-19
-7.04321e-19
-3.49874e-18
-7.36486e-18
2.08006e-17
-7.23696e-20
-1.57765e-12
-1.54281e-20
-9.36328e-09
1.73861e-17
7.38265e-20
-3.13991e-12
-9.99287e-11
2.40109e-12
-4.30122e-10
0
4.27691e-10
1.58719e-08
7.34529e-20
-2.31833e-17
0
8.07198e-18
-7.37388e-20
-2.30792e-18
5.23321e-13
-9.31663e-18
2.66645e-18
2.12013e-10
2.55492e-17
-7.33827e-20
-1.15864e-17
1.7358e-17
-3.93682e-20
3.07831e-13
4.20501e-11
-1.26638e-34
4.44886e-20
3.07831e-13
-3.59026e-34
-1.00916e-10
3.93849e-20
-8.05022e-19
1.66306e-18
-4.45134e-20
-9.76867e-19
2.58578e-18
1.10538e-30
-5.02263e-18
8.32548e-20
9.45421e-18
-1.37455e-15
-1.17775e-34
4.4474e-16
7.2869e-15
-5.73305e-20
-5.19686e-34
7.03405e-20
1.32107e-19
-6.47629e-19
1.28471e-18
6.24886e-18
-1.29524e-18
-3.58438e-17
-5.73371e-20
7.85176e-11
-4.25171e-20
5.03412e-34
1.12967e-09
4.02571e-20
-6.61843e-14
2.30319e-34
-3.07833e-14
0
0
2.62841e-17
-4.6565e-18
-9.35416e-18
-1.39587e-17
1.86789e-17
-8.5939e-35
2.32145e-18
1.08144e-17
-8.57841e-20
-1.58465e-17
-6.26679e-32
-3.71724e-17
-5.85124e-34
9.19579e-18
-3.71368e-17
4.98584e-27
4.27981e-09
-1.48631e-17
-5.37941e-12
-1.587e-08
-3.8833e-09
-1.57273e-08
9.35695e-09
1.84741e-17
-4.66769e-18
1.39949e-17
6.77227e-13
7.77571e-09
3.68743e-26
1.49989e-10
-1.58021e-08
-3.83669e-09
-1.58069e-08
8.74752e-13
-2.92196e-10
-7.69588e-13
7.66329e-09
7.34828e-20
-8.49623e-12
4.61968e-09
1.46888e-17
-1.93098e-08
0
1.72653e-12
-3.20162e-15
-7.45559e-20
4.87741e-09
2.59499e-17
0
1.68026e-12
-4.82026e-18
0
-1.49515e-18
-1.72515e-12
8.55761e-18
9.97668e-18
-9.23815e-09
1.46235e-18
0
-1.788e-12
9.49524e-18
-9.75402e-09
-1.88662e-17
0
6.21825e-12
4.30968e-13
1.91205e-08
0
-1.53283e-08
7.26433e-20
1.39417e-17
0
-1.03891e-17
-6.40446e-34
-2.10025e-18
-2.12529e-18
7.14393e-19
1.2408e-17
7.25601e-20
6.92591e-18
-2.18372e-17
7.27563e-20
6.15672e-14
2.01631e-12
-9.42764e-09
0
1.00708e-08
3.42138e-20
-1.41603e-13
0
7.45241e-09
-2.78406e-33
-8.80404e-20
-1.00796e-20
6.4144e-19
-1.09847e-18
0
4.62234e-19
-1.93735e-18
5.63781e-20
1.3083e-13
-3.73657e-25
-3.948e-18
-1.54244e-16
0
2.82187e-34
1.36183e-09
0
0
5.6356e-20
1.18272e-19
-3.02071e-34
-2.77263e-19
3.59398e-18
-8.24572e-19
0
7.62552e-19
0
-1.24759e-18
-4.02343e-20
-1.17037e-20
-5.36551e-20
-4.59282e-20
3.67027e-34
0
0
0
0
0
0
0
0
0
0
0
0
0
0
0
0
0
0
0
0
0
0
0
0
0
0
0
0
2.76607e-18
-9.49514e-35
-2.07851e-17
-1.86711e-17
-3.73068e-17
-7.4165e-22
-1.86584e-17
-2.75562e-33
-2.71364e-18
4.6924e-18
9.88059e-18
-2.77389e-17
-1.94997e-33
9.3442e-18
-3.72477e-17
0
-2.65887e-18
-9.85073e-13
-4.46471e-10
1.40324e-17
-1.43364e-17
-1.59246e-15
-6.90142e-18
-1.08276e-18
-2.79361e-18
1.47114e-17
1.63124e-17
-6.9313e-18
2.07532e-17
-3.14065e-20
0
1.12318e-18
3.37896e-18
-1.636e-17
8.02425e-18
-1.85965e-17
1.31735e-17
1.04203e-17
7.03077e-18
1.97249e-17
0
6.7696e-20
-1.9969e-19
-1.01818e-17
-3.11231e-18
0
5.38994e-17
0
6.76024e-18
-1.60655e-17
0
-5.86514e-18
1.37251e-17
0
-1.35344e-18
1.14621e-18
-1.30647e-18
1.24195e-17
-7.13968e-20
6.4652e-19
-2.21887e-18
-6.87131e-18
2.19037e-17
1.49523e-19
-8.46016e-18
-8.48827e-18
5.17329e-18
0
-1.53809e-15
8.53536e-34
-4.52504e-18
0
3.39381e-18
-6.65617e-34
1.71933e-18
4.79481e-18
7.78336e-18
1.95217e-17
-7.45182e-20
-6.9102e-18
1.02663e-17
-1.55565e-31
-5.26457e-19
-4.07489e-35
-4.25909e-16
6.24435e-34
1.53488e-18
3.15453e-18
0
0
0
7.00089e-17
-1.49646e-33
-1.10124e-19
2.48317e-18
-4.69108e-18
-1.02251e-17
-2.11749e-17
-1.87104e-17
-9.20215e-34
-9.7262e-20
-3.72247e-17
7.00283e-36
1.85042e-19
-1.33827e-17
2.32566e-17
-1.60959e-17
2.6587e-17
-9.02779e-18
-3.77281e-35
-1.51793e-17
-2.31124e-18
-1.47653e-19
3.1399e-12
-6.1182e-12
-2.40112e-12
4.30121e-10
0
-4.28211e-10
-1.58719e-08
-7.34581e-20
-4.68306e-09
-2.08563e-17
0
-2.36262e-12
1.85225e-17
7.37386e-20
-2.79257e-18
2.62572e-18
-7.00807e-18
6.48254e-18
-6.97572e-18
1.73678e-17
0
1.57765e-12
-6.9523e-18
9.36302e-09
2.43495e-17
0
-2.52423e-12
-1.32115e-17
-2.47999e-10
0
-3.22225e-15
-7.24524e-20
-2.54908e-17
0
1.1615e-17
7.13366e-20
2.94253e-18
-1.04387e-17
-5.1983e-18
2.531e-17
7.23672e-20
-9.26587e-18
1.62427e-17
0
-5.18998e-18
-1.13506e-18
3.0596e-18
-1.37109e-15
0
4.36058e-16
9.02202e-15
-1.70902e-24
-3.07831e-13
0
1.00916e-10
0
-1.32458e-18
-1.27682e-18
-2.4861e-18
8.50068e-18
-2.56626e-18
-3.09485e-17
1.14674e-19
9.76867e-19
-2.58578e-18
0
3.07832e-13
4.20501e-11
0
0
0
-3.5335e-33
-1.2013e-18
2.04043e-18
-4.45133e-20
0
0
0
0
0
0
0
0
0
0
0
0
0
0
0
0
0
0
0
0
0
0
0
0
0
0
-1.40453e-17
4.95742e-33
1.07276e-17
1.54796e-17
4.59563e-18
1.51478e-17
-1.5971e-17
-4.66402e-17
7.00785e-33
-1.8743e-17
-4.6576e-18
0
-2.80035e-17
3.82439e-25
2.63211e-18
3.93095e-09
-3.15532e-13
5.28512e-12
3.99579e-09
5.26511e-18
3.15528e-13
-7.8619e-09
-7.96839e-09
7.88825e-13
1.83524e-33
4.81291e-18
-9.05108e-18
-1.97202e-19
7.17502e-20
0
4.64596e-18
-1.3957e-17
-6.85406e-20
-1.49119e-18
2.0317e-12
6.77238e-13
0
1.77563e-08
1.58437e-08
-2.65729e-18
4.68779e-18
-1.64327e-18
8.6405e-35
1.00273e-17
-9.35835e-18
0
-1.40274e-18
-1.65601e-20
6.88208e-18
9.24766e-18
-1.4921e-17
-2.72889e-18
-4.62887e-18
-1.47327e-17
7.25787e-20
0
2.07543e-18
0
-1.57193e-17
-8.83484e-12
-2.52426e-12
0
-6.63242e-10
-1.55971e-08
-9.3162e-18
-2.19038e-17
1.45046e-19
1.1519e-17
7.24946e-20
-4.06806e-18
7.07673e-19
2.28708e-18
-6.89236e-18
1.74196e-17
-2.30409e-18
-2.85305e-20
-2.0927e-18
9.09195e-19
0
0
1.42275e-18
0
-9.47396e-19
2.85551e-20
4.80867e-19
7.62567e-19
4.22445e-20
1.42997e-18
-2.62174e-18
-7.22689e-20
-8.00372e-13
2.46271e-13
1.62187e-08
0
3.28247e-08
5.59835e-20
0
-2.39608e-33
3.35334e-19
8.91325e-18
6.74965e-18
-2.85359e-17
-1.11984e-19
0
0
0
0
-2.69507e-18
-5.39015e-18
-2.10797e-17
-9.38513e-18
-6.54771e-17
4.6768e-18
-2.80252e-17
1.76141e-33
2.55173e-18
-1.40314e-17
-2.0734e-17
-2.79354e-17
1.78483e-33
2.32126e-17
-4.6589e-17
0
2.38711e-18
2.83772e-18
1.15653e-17
-1.04668e-17
1.0394e-17
-9.32108e-18
0
3.18503e-17
1.73591e-17
-1.05376e-17
1.50236e-17
-2.33691e-18
0
-2.57042e-12
-1.84371e-08
5.79761e-18
-4.30969e-12
8.76311e-11
-2.24495e-18
-1.26496e-18
1.94302e-17
5.7539e-18
-4.61262e-18
1.03244e-17
-6.96709e-18
7.4757e-20
-6.57175e-18
4.30967e-12
6.52519e-18
0
1.17664e-09
-1.49096e-19
-5.17263e-18
-1.83737e-17
0
3.09406e-18
3.4268e-18
1.49438e-19
-3.33169e-18
4.30367e-20
6.20123e-18
5.09429e-18
7.45255e-20
-1.93976e-18
2.30979e-18
6.43722e-18
1.37594e-17
0
3.15761e-18
-6.77588e-18
-3.60897e-18
0
1.59776e-15
-7.14259e-20
-1.15306e-17
0
2.21848e-18
1.35348e-19
5.07886e-19
-9.16849e-18
-4.28585e-18
-4.72795e-18
1.42796e-19
-8.97186e-18
8.15376e-18
-3.88484e-31
-1.24659e-18
0
-7.13175e-16
3.34212e-34
8.95424e-19
8.52656e-19
0
0
0
0
0
0
0
0
0
0
0
0
0
0
0
0
0
0
0
0
0
0
0
0
4.88278e-18
0
-2.64374e-17
1.86398e-17
-2.80544e-17
-1.3896e-17
-1.85858e-17
-1.41845e-24
4.47189e-09
-4.26553e-09
3.84004e-09
5.11851e-13
-4.20694e-09
-2.78324e-12
9.75712e-09
-9.32813e-09
-5.1178e-13
-7.6805e-09
2.78333e-12
8.41468e-09
4.46644e-24
3.77729e-09
8.24179e-09
-7.36952e-20
1.71223e-10
2.52422e-12
1.25057e-12
-1.04116e-25
-1.56971e-08
0
-2.23067e-25
1.93421e-08
4.19194e-10
-7.32645e-12
7.32643e-12
0
-7.88819e-13
-6.96833e-18
-3.412e-10
2.09019e-17
1.49951e-19
-1.17653e-17
4.17031e-17
-1.14043e-19
-6.99492e-18
-2.92572e-26
-1.93053e-08
-4.67908e-12
3.7684e-09
-7.39996e-13
-2.54062e-18
-8.16528e-15
1.82143e-17
-1.54781e-18
7.34956e-13
-7.53676e-09
2.40287e-18
2.80425e-17
-1.2038e-08
1.07432e-19
0
-1.30551e-09
0
1.23128e-13
-1.69307e-13
0
1.88948e-08
-3.69402e-13
-6.17058e-18
0
-4.87608e-18
1.561e-33
9.09513e-22
1.60322e-18
-4.74867e-18
-5.48519e-19
1.80407e-08
7.12554e-20
0
-1.69159e-08
1.56857e-24
1.29289e-12
2.07789e-12
4.92534e-13
0
1.85013e-08
-2.50263e-09
2.00095e-13
-1.795e-17
1.42542e-19
-1.0141e-17
-6.98935e-20
-2.68467e-18
2.52954e-18
1.02407e-18
-2.06934e-17
-1.1216e-18
5.03965e-18
-2.01259e-24
0
5.56425e-34
0
0
0
0
0
-1.40453e-17
-5.54806e-33
-2.69087e-19
7.92277e-18
1.40289e-17
-1.53274e-17
0
-2.80038e-17
-1.61332e-33
2.25287e-18
4.70401e-17
-1.57252e-17
-2.79157e-17
-7.72817e-34
2.63443e-18
1.86241e-17
-9.99032e-18
-1.88036e-17
-6.98906e-25
3.94883e-09
-1.15694e-12
1.82744e-11
4.14735e-09
1.15694e-12
-7.89882e-09
-8.21593e-09
2.31389e-12
-8.6579e-18
-7.25793e-20
0
-7.54821e-18
2.40462e-18
2.20806e-24
-7.52459e-18
2.02427e-11
6.15667e-12
0
1.91644e-08
-8.42927e-11
1.09262e-17
-2.50599e-19
-1.37395e-17
-7.25261e-20
-1.07248e-17
1.35351e-18
0
-5.44257e-18
2.07669e-18
-2.33871e-18
0
9.25097e-18
4.12952e-18
7.01187e-18
-1.90847e-18
-1.01856e-33
0
-1.51238e-17
-6.85369e-20
1.74888e-19
-5.54102e-12
-1.53916e-12
0
-3.56367e-08
-4.64249e-10
1.86142e-17
1.55594e-18
0
-2.21024e-17
0
1.2723e-18
-6.7177e-19
-3.48461e-18
1.71495e-17
-2.28562e-17
6.99301e-18
-7.22561e-20
-6.1567e-13
2.57042e-12
-1.4199e-09
0
1.84024e-08
0
3.69398e-13
0
1.29117e-08
-7.22693e-20
2.20015e-19
2.59754e-18
5.00174e-18
-2.58474e-17
5.59914e-20
-4.74655e-19
2.87289e-18
-5.70534e-20
-2.2582e-18
9.0917e-19
0
0
0
0
-1.57312e-18
1.67659e-18
-4.22344e-20
0
0
0
0
0
0
0
0
0
0
0
0
0
0
0
0
0
0
0
0
1.59688e-17
-2.96206e-22
-9.45845e-18
9.43729e-18
-9.29571e-18
-1.23443e-33
-1.3174e-17
1.32861e-17
2.11155e-21
1.54583e-17
0
-1.86949e-17
-1.87694e-33
1.15398e-19
1.41976e-17
-2.31124e-19
-3.89068e-17
-7.33613e-20
1.47996e-17
4.55066e-09
-1.93916e-17
1.92336e-15
0
9.31445e-13
-6.47244e-15
-7.4168e-20
-4.98703e-09
-1.37474e-17
0
-6.06177e-12
1.61408e-17
-7.33073e-20
2.73736e-18
-9.35046e-13
1.35294e-19
-1.92632e-17
-9.10041e-09
3.08497e-17
0
4.83812e-12
-2.2155e-18
9.96823e-09
2.29621e-17
0
-6.24899e-18
5.67758e-18
4.61116e-18
1.17532e-17
-8.43203e-18
9.22259e-18
1.6766e-18
1.14892e-17
-3.45724e-18
0
-1.66041e-17
-9.22074e-18
-1.4854e-19
-1.10819e-12
4.20242e-19
-1.98072e-08
1.57738e-33
-1.10569e-16
-7.61473e-20
3.19109e-33
-9.21105e-10
-3.75558e-12
1.49722e-33
3.16814e-18
-3.45137e-18
-1.9836e-17
7.5194e-18
-7.6118e-20
1.15324e-17
-1.01728e-18
0
-6.02512e-18
-2.41738e-17
1.71244e-16
0
-6.46329e-15
-7.23115e-20
5.70016e-18
4.65769e-18
0
1.13624e-16
4.53751e-18
-7.39524e-20
8.50746e-19
-7.29134e-20
8.72748e-18
4.18739e-17
-7.22864e-20
1.14072e-18
-4.72725e-18
-2.64188e-18
1.13864e-18
2.89588e-09
1.37596e-24
0
3.34108e-20
4.61731e-14
3.32461e-12
0
2.50614e-08
-1.81505e-18
-1.06971e-33
3.34193e-20
-8.20106e-19
9.66244e-19
-7.64261e-18
0
0
0
0
0
0
1.58227e-17
0
5.84465e-17
-4.34478e-18
-9.72735e-18
-9.22616e-18
-1.87348e-17
-1.74988e-24
-4.34895e-09
7.46106e-11
-9.49703e-09
1.47257e-10
2.15566e-24
1.47227e-10
3.97277e-09
5.81338e-10
-1.64687e-10
7.62388e-10
3.15922e-10
4.8612e-13
-7.97538e-09
1.83289e-12
3.7478e-10
5.44753e-27
1.85876e-08
-4.80222e-12
4.08142e-09
1.73627e-08
3.7094e-12
1.68708e-08
-1.55457e-12
-8.05368e-10
7.03179e-18
-1.13389e-19
-9.13246e-13
-8.10346e-09
-1.24795e-18
4.20369e-18
-1.30882e-18
1.55942e-17
7.36977e-20
4.97636e-09
-6.15669e-12
4.52259e-12
-1.35015e-25
6.16439e-12
0
-6.81984e-26
1.54678e-08
-4.80221e-12
-7.36361e-20
-2.31389e-12
-6.9682e-18
-9.94582e-09
3.47934e-18
-7.49686e-20
5.56076e-18
-9.37619e-18
-1.80411e-08
7.12508e-20
0
1.61418e-08
1.68296e-08
6.99204e-20
-6.77237e-13
8.37309e-12
-4.11753e-19
0
3.84159e-08
1.02844e-16
-5.54098e-13
-2.92432e-13
-1.81804e-18
0
2.22779e-18
-2.5616e-18
6.99e-20
-5.37082e-18
4.05495e-18
2.28138e-18
-2.63415e-18
4.47008e-18
5.97193e-18
-1.25227e-18
1.17066e-08
-7.68888e-25
0
-1.33488e-24
1.23129e-13
-1.89318e-12
0
-4.87651e-09
-8.4678e-18
-5.37245e-20
0
7.43666e-20
4.52402e-19
-6.8215e-18
3.1674e-24
0
4.09317e-34
0
0
0
0
0
0
0
0
0
0
0
0
0
0
0
0
0
1.88175e-17
-4.52823e-35
-1.0692e-17
-5.33812e-18
-1.64705e-19
-1.90497e-17
1.30253e-34
3.35133e-19
-1.44427e-19
1.06918e-17
-2.82998e-17
-9.596e-25
-4.30426e-09
1.45451e-11
1.81211e-08
-1.97014e-12
2.23179e-12
-3.25034e-08
1.44826e-10
-1.60151e-08
1.78765e-08
-9.41619e-09
1.85104e-19
1.26177e-17
1.32341e-18
2.40543e-18
2.89719e-18
-9.47219e-18
-1.21851e-12
-3.09616e-10
2.82395e-24
-4.4176e-09
4.37861e-09
1.64822e-08
1.68246e-10
1.61604e-08
-9.63979e-09
-3.45929e-12
-8.72225e-09
4.52773e-13
-3.49003e-10
0
1.64157e-17
-3.50931e-12
-9.23499e-13
-1.44261e-17
0
-1.83881e-08
-3.42081e-11
0
-1.38937e-17
0
1.15178e-17
-9.34211e-34
3.05704e-18
-6.45536e-19
3.46467e-18
-1.91716e-17
4.94566e-18
5.67839e-24
0
-6.99584e-18
1.04122e-17
7.9169e-18
7.11663e-20
0
-1.86622e-18
-1.61885e-17
7.53746e-20
9.95885e-18
-1.23133e-12
0
1.5301e-08
3.83219e-18
2.76351e-17
1.08541e-17
-7.11312e-20
2.02205e-19
-2.53823e-17
-7.5166e-20
1.27687e-18
3.47049e-18
-8.72841e-18
1.00537e-19
9.08858e-18
-5.51941e-20
1.10821e-12
-1.81566e-08
0
-2.20646e-24
0
-1.90507e-17
1.26138e-17
1.10379e-19
-9.77067e-19
-1.29584e-17
1.44079e-33
-3.68862e-17
5.06359e-18
-7.09367e-20
-2.46275e-13
1.46221e-12
-1.0241e-09
0
1.63511e-08
-4.1221e-25
-3.69393e-13
0
-1.0405e-08
7.0926e-20
1.51637e-19
6.21468e-18
1.5196e-17
-1.96907e-17
0
3.5942e-19
-9.08595e-18
0
0
0
0
0
0
5.84921e-17
9.43729e-18
1.87347e-17
-1.87266e-17
-9.45845e-18
5.98192e-34
1.31743e-17
1.04434e-17
2.38122e-17
-3.75298e-17
9.33431e-32
-1.83315e-17
-6.7175e-35
-3.03532e-18
-1.74517e-21
0
1.00278e-18
0
4.77836e-09
3.83382e-12
8.0661e-18
-7.14092e-22
-4.67414e-18
-9.22294e-18
8.23075e-18
-5.10635e-18
-3.10271e-12
-9.55323e-09
8.06778e-18
0
1.77566e-19
-9.22079e-18
9.81173e-18
5.77344e-18
1.63303e-24
9.72758e-12
-1.63182e-10
-7.33022e-18
1.88406e-08
0
-1.05376e-12
1.39198e-16
-2.80051e-24
-2.08494e-17
0
1.96389e-17
4.79998e-25
7.22337e-18
1.05177e-12
-1.27266e-17
-1.88721e-17
3.25627e-10
1.46986e-17
7.40462e-20
-1.17419e-17
1.83907e-17
-4.68628e-24
-9.35815e-12
-6.43607e-18
-1.92553e-08
0
1.79472e-16
-7.23259e-20
-2.41508e-19
-4.74064e-12
0
2.6058e-18
-1.86662e-08
1.56475e-25
1.4776e-12
2.50885e-12
-6.79182e-34
-9.58865e-10
1.69628e-08
1.47898e-19
1.42349e-18
1.15489e-18
-4.87464e-18
1.68989e-17
-7.22749e-20
0
-1.38065e-18
3.77856e-18
7.79698e-18
-7.61134e-20
-1.84466e-18
1.22057e-18
6.24151e-18
-4.75839e-19
2.61497e-24
1.67769e-12
-3.25359e-34
1.48515e-08
-7.42447e-20
-1.23089e-18
4.61609e-18
-8.17077e-09
-3.4523e-25
0
1.8299e-25
6.15656e-14
-6.00276e-13
0
1.23617e-10
2.89706e-09
1.96651e-24
-6.68349e-20
-7.08017e-13
-8.99135e-19
2.61687e-18
0
0
0
0
0
0
0
0
0
0
0
0
0
0
2.63863e-17
1.37481e-18
5.82218e-17
-1.33192e-19
-2.78966e-17
-4.28125e-18
1.95652e-19
-3.14134e-25
-1.59268e-17
-3.91229e-09
2.18986e-17
-8.53575e-09
-6.01878e-34
1.85316e-17
-1.83532e-17
3.53613e-24
-2.0317e-12
-1.58535e-12
7.5406e-18
-7.3641e-20
-1.2313e-13
-2.75511e-12
1.30323e-10
0
1.23994e-08
-1.44595e-08
-6.83848e-20
4.66538e-09
1.37038e-17
0
1.14926e-12
-1.4955e-17
0
1.79498e-08
-1.8514e-08
-1.47274e-19
-2.30816e-18
2.78216e-18
5.94152e-20
-1.31784e-18
-6.87554e-19
6.29609e-18
-8.1495e-18
-2.53699e-17
-3.77689e-18
-8.54381e-18
-1.56297e-17
1.36621e-19
-1.15695e-12
6.85173e-18
-9.33019e-09
-1.72237e-17
7.45641e-20
-5.47947e-12
4.8328e-09
-6.03709e-18
-6.96479e-10
0
3.64782e-12
1.63977e-16
0
2.41936e-18
0
-6.441e-22
-5.44487e-26
-2.48734e-18
-3.64398e-12
-3.64811e-18
2.42732e-17
-9.66388e-09
6.08779e-18
0
-4.96072e-18
6.22085e-20
-4.57785e-20
5.65091e-18
-1.03124e-12
-7.75246e-18
0
-7.81099e-09
-7.06466e-20
2.43573e-17
0
-2.68404e-17
4.57887e-20
1.80987e-18
2.34362e-18
-1.02308e-17
-6.68097e-18
0
9.73595e-18
-3.66111e-17
0
0
1.10111e-15
6.91893e-18
7.1506e-34
-9.73743e-18
2.38715e-18
-4.79e-26
0
-1.28779e-34
3.49373e-24
0
5.84306e-34
0
0
0
0
0
0
0
1.84229e-17
1.17654e-34
1.0692e-17
1.06881e-17
1.87216e-17
1.64705e-19
1.06918e-17
-1.88665e-17
-2.51332e-34
4.18699e-18
-1.90497e-17
-6.24424e-25
-5.41018e-18
-4.41752e-09
4.37818e-09
1.64816e-08
-6.86214e-12
1.61614e-08
-1.7963e-17
-9.63979e-09
-3.34385e-12
-8.72216e-09
2.52195e-18
1.83163e-17
-2.60292e-34
-7.28974e-19
-1.88647e-15
2.30876e-13
-2.46267e-12
-1.52376e-08
-1.07408e-11
-1.60161e-08
-1.78768e-08
-1.40002e-18
3.95854e-18
2.47905e-18
-2.66242e-18
-4.48771e-19
-8.13237e-18
4.64764e-18
9.36771e-18
8.55307e-18
7.1168e-20
0
-4.7675e-18
-2.96131e-18
-7.53691e-20
1.21288e-17
1.22205e-17
0
-1.54768e-15
2.07719e-17
1.47951e-18
7.37553e-20
0
1.28341e-17
1.38279e-17
-1.8989e-17
-1.39268e-17
1.18716e-17
1.78382e-34
-1.51013e-17
-6.30559e-18
0
4.21158e-18
-4.96626e-18
-4.63923e-18
7.89271e-20
2.01306e-19
-7.37156e-20
1.63539e-17
3.41571e-18
-5.14805e-18
-9.30599e-18
8.366e-31
9.05202e-19
1.22727e-18
0
7.38907e-16
6.60255e-15
7.19997e-20
-4.68988e-18
-1.15926e-18
-7.6673e-18
-2.3101e-17
0
-4.30963e-13
8.6194e-13
-1.02354e-09
0
1.6642e-08
-4.62785e-20
-1.84697e-13
7.44997e-20
-2.9706e-12
-6.77223e-13
0
-1.04017e-08
0
-1.81573e-08
-1.67451e-08
-1.51766e-33
-2.5334e-18
3.63387e-18
3.64748e-18
-3.45177e-17
4.62922e-20
3.84722e-19
1.4898e-19
-1.59065e-18
3.79603e-18
-5.93249e-18
1.34386e-18
-1.3957e-17
2.7917e-24
0
5.51917e-20
0
0
0
0
0
0
0
0
0
0
0
2.37699e-17
-2.79996e-34
1.61826e-19
5.24553e-18
1.90069e-17
6.49052e-19
-4.10302e-17
-8.72937e-18
5.72919e-34
2.7169e-17
1.91298e-17
2.09611e-17
-4.75878e-17
0
-3.18914e-17
-2.09328e-12
-3.81818e-10
9.23016e-18
-2.77052e-12
1.60721e-08
-1.39884e-17
2.1831e-17
-5.23963e-18
1.05927e-17
1.50388e-17
-3.29504e-18
1.97652e-17
-4.60224e-18
0
4.63022e-18
-2.77723e-17
6.06808e-24
-8.86372e-25
-4.18126e-18
1.62948e-16
0
0
2.32747e-25
1.84688e-13
0
-1.62378e-08
1.24113e-33
1.25576e-33