/*--------------------------------*- C++ -*----------------------------------*\
| =========                 |                                                 |
| \\      /  F ield         | OpenFOAM: The Open Source CFD Toolbox           |
|  \\    /   O peration     | Version:  5.x                                   |
|   \\  /    A nd           | Web:      www.OpenFOAM.org                      |
|    \\/     M anipulation  |                                                 |
\*---------------------------------------------------------------------------*/
FoamFile
{
    version     2.0;
    format      ascii;
    class       volScalarField;
    location    "2.7";
    object      nut;
}
// * * * * * * * * * * * * * * * * * * * * * * * * * * * * * * * * * * * * * //

dimensions      [0 2 -1 0 0 0 0];

internalField   nonuniform List<scalar> 
12160
(
3.27658e-09
8.71948e-09
8.0934e-08
5.54303e-09
2.59646e-08
4.2253e-08
1.13044e-08
3.72584e-08
2.56001e-08
3.74076e-08
1.5688e-08
1.85431e-08
3.73652e-08
2.35402e-08
2.53292e-08
1.10184e-08
1.81564e-08
1.8406e-08
3.36467e-08
2.32012e-08
2.25762e-08
6.97066e-09
1.60575e-08
1.75399e-08
1.77461e-08
3.45915e-08
1.92324e-08
2.0872e-08
4.89583e-09
1.7526e-08
1.51918e-08
1.82095e-08
1.74137e-08
2.73048e-08
1.8007e-08
9.24907e-09
3.86427e-09
1.87812e-08
1.64072e-08
1.60293e-08
1.80727e-08
1.78044e-08
2.5753e-08
1.02693e-08
1.66334e-08
3.31198e-09
2.19562e-08
1.76905e-08
1.70999e-08
1.54832e-08
2.2341e-08
1.53518e-08
1.44947e-08
1.96045e-08
1.58498e-08
3.04202e-09
2.91887e-08
2.01948e-08
1.79328e-08
1.57818e-08
1.82249e-08
1.83766e-08
1.44952e-08
1.59779e-08
2.82835e-08
9.22133e-09
2.98795e-09
4.94421e-08
2.522e-08
1.93841e-08
1.59654e-08
1.77947e-08
1.52251e-08
1.85191e-08
1.50949e-08
1.30562e-07
1.23004e-08
1.30493e-08
3.14309e-09
6.31152e-08
3.41418e-08
2.23208e-08
1.68641e-08
1.71718e-08
1.42461e-08
2.25344e-08
1.35819e-08
4.16485e-08
1.3543e-08
1.2917e-08
1.202e-08
3.57699e-09
3.04143e-08
3.61699e-08
2.66646e-08
1.86648e-08
1.68532e-08
1.34911e-08
2.11233e-08
1.30288e-08
1.68999e-08
9.33859e-09
2.00365e-08
1.03096e-08
1.8114e-08
4.50253e-09
1.85283e-08
2.47238e-08
2.66854e-08
2.0346e-08
1.64675e-08
1.3389e-08
1.71374e-08
1.29557e-08
1.2594e-08
1.75194e-08
6.27971e-09
2.39784e-08
1.32905e-08
1.4548e-08
6.39166e-09
1.38397e-08
1.69423e-08
1.99538e-08
1.9623e-08
1.59891e-08
1.39197e-08
1.60389e-08
1.48199e-08
1.17533e-08
8.92957e-08
3.78066e-09
7.60643e-09
1.35672e-08
2.57063e-09
9.52983e-09
1.16347e-08
1.30983e-08
1.46039e-08
1.62285e-08
1.49046e-08
1.45449e-08
1.77547e-08
1.84348e-08
1.16277e-08
1.12778e-07
3.76058e-09
6.74593e-09
1.51447e-08
1.32506e-08
8.43461e-09
1.04898e-08
1.10904e-08
1.17729e-08
1.31369e-08
1.2807e-08
1.35156e-08
2.38061e-08
2.40871e-08
1.14257e-08
1.10228e-07
4.21231e-09
9.4535e-09
6.96377e-09
6.08669e-09
5.33311e-09
9.99928e-09
1.00395e-08
1.04121e-08
1.11788e-08
1.0621e-08
1.15235e-08
5.07545e-08
3.07638e-08
1.15356e-08
1.02599e-07
4.93176e-09
7.19423e-09
5.3564e-09
6.90455e-09
3.67045e-09
9.86741e-09
9.59268e-09
9.72579e-09
9.98695e-09
9.28598e-09
1.00264e-08
4.47277e-08
4.16902e-08
1.15437e-08
1.07699e-07
5.89483e-09
6.65206e-09
8.96408e-09
9.99193e-09
2.76759e-09
9.84745e-09
9.52676e-09
9.48465e-09
9.2152e-09
8.68581e-09
9.06039e-09
1.82319e-08
6.04034e-08
1.18479e-08
1.43247e-07
6.82537e-09
7.13228e-09
1.71118e-08
4.27389e-08
2.21851e-09
9.86009e-09
9.60717e-09
9.53178e-09
8.97808e-09
8.57804e-09
8.52339e-09
1.25803e-08
6.47755e-08
1.39638e-08
6.40721e-08
7.95985e-09
8.56345e-09
2.03465e-08
2.56398e-08
1.85231e-09
9.86201e-09
9.64463e-09
9.66488e-09
9.16486e-09
8.77491e-09
8.16563e-09
1.02031e-08
4.28188e-08
1.79166e-08
3.77142e-08
8.71213e-09
9.02665e-09
1.30903e-08
1.18227e-08
1.59621e-09
9.94934e-09
9.60674e-09
9.72275e-09
9.58624e-09
9.13506e-09
8.08458e-09
9.33397e-09
2.78566e-08
2.25447e-08
3.3856e-08
1.27447e-08
8.19727e-09
5.55295e-09
1.06888e-08
1.41264e-09
1.02441e-08
9.62907e-09
9.628e-09
9.7067e-09
9.48042e-09
8.79188e-09
9.64005e-09
2.14838e-08
2.62205e-08
3.53636e-08
1.7549e-08
7.75101e-09
4.70061e-09
2.03671e-08
1.27649e-09
1.07922e-08
9.86392e-09
9.57795e-09
9.49326e-09
9.45393e-09
9.92706e-09
1.03969e-08
1.73679e-08
2.61435e-08
3.54801e-08
2.45459e-08
8.39163e-09
5.22411e-09
4.98903e-09
1.17465e-09
1.16239e-08
1.03432e-08
9.77788e-09
9.31421e-09
9.2259e-09
1.04068e-08
1.07755e-08
1.35579e-08
2.34561e-08
3.45823e-08
3.4621e-08
1.06662e-08
6.97093e-09
3.87201e-09
1.09804e-09
1.28849e-08
1.11211e-08
1.0216e-08
9.39364e-09
9.05043e-09
1.01463e-08
1.01618e-08
1.09016e-08
1.8348e-08
2.81848e-08
6.54977e-08
1.54464e-08
9.5739e-09
4.37276e-09
1.04037e-09
1.46693e-08
1.22925e-08
1.09756e-08
9.70401e-09
9.18281e-09
9.83755e-09
9.71932e-09
9.89069e-09
1.58258e-08
2.24748e-08
8.07124e-08
2.13021e-08
1.25142e-08
5.35326e-09
9.974e-10
1.71846e-08
1.39044e-08
1.21487e-08
1.03634e-08
9.61255e-09
9.70904e-09
9.28814e-09
8.88305e-09
1.92121e-08
2.17681e-08
2.37535e-08
2.09724e-08
1.95339e-08
7.65195e-09
9.66248e-10
2.08478e-08
1.60525e-08
1.373e-08
1.14386e-08
1.02923e-08
9.6914e-09
9.37378e-09
8.10245e-09
2.32783e-08
2.05703e-08
1.25367e-08
1.66325e-08
2.9705e-08
1.50518e-08
9.45151e-10
2.67495e-08
1.8973e-08
1.56916e-08
1.30137e-08
1.1344e-08
1.05478e-08
1.09276e-08
7.5786e-09
2.56309e-08
1.14182e-08
6.80326e-09
1.49541e-08
1.97077e-08
1.21641e-08
9.32182e-10
3.75032e-08
2.31446e-08
1.81585e-08
1.47909e-08
1.24576e-08
1.18657e-08
1.2895e-08
9.02801e-09
1.89196e-08
5.30145e-09
3.87214e-09
1.36701e-08
1.48104e-08
1.16079e-08
9.3142e-10
6.1033e-08
2.89459e-08
2.13333e-08
1.64442e-08
1.38912e-08
1.39636e-08
1.50373e-08
1.17001e-08
1.77408e-08
3.13435e-09
2.54514e-09
1.22331e-08
1.30669e-08
2.96492e-08
9.37007e-10
6.5799e-08
3.55554e-08
2.5158e-08
1.77956e-08
1.58344e-08
1.64846e-08
1.83385e-08
1.50287e-08
1.83385e-08
3.15647e-09
1.98398e-09
1.47497e-08
1.26584e-08
1.2342e-08
9.50535e-10
4.33471e-08
3.98326e-08
2.85979e-08
1.89508e-08
1.74268e-08
1.78538e-08
2.20416e-08
1.79145e-08
1.86866e-08
3.97772e-09
1.9093e-09
1.8773e-08
1.53279e-08
1.92998e-08
9.73701e-10
2.98339e-08
3.37327e-08
2.80352e-08
2.00898e-08
1.85209e-08
1.85442e-08
2.58758e-08
1.82554e-08
1.86458e-08
5.02649e-09
2.28774e-09
1.1963e-08
2.91578e-08
4.13102e-08
1.00585e-09
2.28384e-08
2.58428e-08
2.46593e-08
2.09922e-08
1.8136e-08
1.97032e-08
3.07492e-08
1.65546e-08
1.81237e-08
5.98979e-09
2.58944e-09
8.8212e-09
2.26549e-08
6.39903e-08
1.04317e-09
1.91972e-08
2.092e-08
2.10661e-08
1.97704e-08
1.59804e-08
2.13744e-08
3.72822e-08
1.45491e-08
1.851e-08
7.12987e-09
2.81436e-09
1.01595e-08
1.13742e-08
3.84092e-08
1.09493e-09
1.64255e-08
1.80896e-08
1.82077e-08
1.75554e-08
1.49215e-08
2.62508e-08
2.51695e-08
1.41452e-08
1.91186e-08
8.566e-09
3.23443e-09
1.50223e-08
7.51852e-09
3.09041e-08
1.55255e-08
1.1703e-09
1.59187e-08
1.62105e-08
1.5774e-08
1.44623e-08
2.58913e-08
1.61951e-08
1.50511e-08
1.97591e-08
1.09529e-08
4.15617e-09
1.86519e-08
5.75018e-09
3.12322e-08
1.51486e-08
1.39481e-08
1.37396e-09
1.45337e-08
1.45051e-08
1.38385e-08
1.88552e-08
1.35903e-08
2.03452e-08
1.86242e-08
1.44067e-08
5.49107e-09
1.45418e-08
5.63946e-09
5.08382e-08
1.38034e-08
1.35847e-08
1.53707e-08
1.48614e-09
1.34092e-08
1.31262e-08
1.54411e-08
1.29998e-08
3.61851e-08
1.91606e-08
2.12279e-08
6.80312e-09
1.19684e-08
5.79966e-09
1.00821e-08
1.31279e-08
1.22943e-08
1.46752e-08
1.83879e-08
1.68908e-09
1.21737e-08
1.3765e-08
1.32815e-08
7.8627e-08
2.07883e-08
4.52878e-08
6.5874e-09
1.30946e-08
5.33929e-09
6.89305e-09
1.15419e-08
1.20578e-08
1.26362e-08
1.58023e-08
2.68666e-08
1.56482e-09
1.2587e-08
1.34674e-08
1.90832e-07
2.38988e-08
6.90974e-08
5.75288e-09
1.41189e-08
5.26347e-09
7.10165e-09
1.21761e-08
1.03442e-08
1.20408e-08
1.25085e-08
1.83429e-08
1.52151e-08
1.37183e-09
1.34282e-08
1.39122e-07
2.78835e-08
1.08036e-07
6.56439e-09
1.60329e-08
5.54689e-09
1.00711e-08
1.31193e-08
1.04344e-08
1.01086e-08
1.14247e-08
1.27405e-08
1.01514e-08
8.62773e-09
1.53057e-09
7.96929e-08
3.53895e-08
1.12399e-07
7.97522e-09
1.3333e-08
4.9815e-09
7.98531e-09
5.7965e-08
1.23759e-08
9.37263e-09
9.48468e-09
1.04052e-08
8.61041e-09
1.79444e-08
7.46738e-08
3.74938e-08
4.71778e-08
1.05484e-07
9.06759e-09
1.0946e-08
1.0291e-08
4.62467e-09
6.79875e-08
3.94638e-08
1.16941e-08
8.43174e-09
8.37719e-09
7.33388e-09
1.46292e-07
9.45966e-07
1.85507e-06
5.64201e-09
9.85556e-08
9.55426e-09
1.40641e-08
2.08268e-08
5.03096e-09
8.60816e-08
9.46776e-08
3.30972e-08
1.18107e-08
8.12376e-09
3.40297e-08
1.47027e-06
8.88551e-06
1.80857e-05
2.27667e-06
3.75505e-06
1.29376e-08
1.56806e-07
4.1225e-08
6.34243e-09
5.23903e-07
2.78815e-06
1.7841e-05
1.26416e-05
2.06546e-06
1.09446e-06
1.04869e-05
4.40279e-05
0.000115467
3.29756e-05
1.72494e-05
0.00063538
1.97157e-06
3.00031e-07
7.82635e-09
4.2281e-05
0.000150953
0.000312231
0.000670599
0.000348192
6.37591e-05
8.12403e-05
0.0001945
0.000263974
0.000114929
3.10343e-05
0.000696936
0.00133376
0.000367715
3.66974e-06
4.58117e-08
4.62747e-05
0.000368059
0.00180553
0.00346731
0.00239293
0.000892632
0.000629882
0.000651322
0.00071987
0.000373479
7.30824e-05
0.000850305
0.00148884
0.00181028
0.00159485
0.000380272
8.08169e-07
1.53805e-05
0.00034423
0.00284176
0.00605842
0.00644247
0.00343844
0.00153584
0.00207808
0.00188024
0.00103424
0.000349236
0.00110083
0.0016104
0.0017381
0.00174268
0.00184124
0.00180601
0.00037642
0.000175602
0.00264456
0.00619069
0.00752451
0.00666717
0.00378989
0.00255587
0.00287783
0.0020224
0.00110373
0.0013419
0.00155182
0.00164124
0.00170779
0.00169624
0.00173577
0.00182196
0.00194609
0.000389184
0.00242182
0.00623342
0.00638999
0.00749059
0.00619255
0.00404459
0.00402644
0.00300062
0.00176753
0.00134451
0.00151205
0.00155033
0.00163802
0.0016811
0.00167143
0.00166652
0.00169117
0.00178076
0.00194478
0.000404763
0.00571706
0.00625093
0.00616343
0.00675163
0.00580182
0.00446487
0.00520983
0.00294019
0.001625
0.00150504
0.00148339
0.00155126
0.00163195
0.00166973
0.00101518
0.00163607
0.00161015
0.00163278
0.00173992
0.00195586
0.000434557
0.00578189
0.00629238
0.00609677
0.00600111
0.00548795
0.00536981
0.00486555
0.00280339
0.0016956
0.00145642
0.00147614
0.00155859
0.00162696
0.00133294
0.0019171
0.00106176
0.00191758
0.00192703
0.00192737
0.00156627
0.00154223
0.00157366
0.00170914
0.00197372
0.000490707
0.005541
0.00613862
0.00580556
0.00556426
0.00529085
0.00687877
0.00471962
0.00218077
0.0015485
0.00143476
0.00148948
0.00155454
0.00146289
0.000911979
0.00196028
0.00165253
0.00152938
0.00196079
0.00203521
0.0020359
0.00165247
0.00168335
0.00168345
0.00149101
0.00147304
0.00152143
0.00168749
0.00200052
0.000560096
0.00426689
0.00558058
0.0055981
0.00533405
0.00648482
0.00670695
0.00364624
0.00192899
0.00146881
0.00144854
0.00148303
0.0014383
0.000826217
0.00164541
0.00164526
0.0016696
0.00166972
0.00167652
0.00148389
0.00148102
0.00121245
0.00167644
0.00170036
0.00170032
0.00148358
0.00152504
0.00152503
0.00141221
0.00140995
0.00148388
0.00167337
0.00202803
0.000658597
0.00343082
0.00524774
0.00545458
0.00562022
0.00575152
0.00638581
0.00320597
0.00175755
0.00146172
0.00143869
0.00138372
0.000716642
0.00164828
0.00164854
0.00167356
0.0016742
0.0014785
0.00147864
0.00149688
0.00149695
0.00150931
0.00134649
0.00133852
0.00133855
0.0013538
0.00140074
0.00102303
0.00163839
0.00163862
0.0015597
0.00155951
0.00150896
0.00152768
0.00152737
0.00134633
0.00133915
0.00133819
0.00135298
0.00137447
0.00138423
0.00140892
0.00136625
0.00137447
0.00139178
0.00140905
0.0013684
0.00133398
0.00136508
0.00145865
0.00166929
0.00204749
0.000828368
0.00299688
0.00500533
0.00525294
0.00482255
0.00520169
0.00638843
0.00284987
0.00171103
0.00146005
0.00133994
0.000641141
0.00166224
0.00166283
0.00170099
0.00170189
0.00145316
0.0014534
0.00145776
0.00145818
0.00131874
0.00132266
0.00132346
0.00133792
0.00134188
0.00131947
0.00132848
0.00131816
0.00132319
0.00133747
0.00134177
0.00131959
0.00131531
0.00133218
0.0013373
0.00134777
0.00131742
0.0013322
0.00133813
0.00134776
0.00135642
0.00133877
0.0013474
0.0013583
0.00121776
0.00126187
0.0012035
0.00127957
0.00129749
0.000960239
0.00161271
0.00161294
0.00163918
0.00163941
0.00145931
0.00145959
0.00136857
0.00136939
0.00135617
0.00134138
0.00134712
0.00135935
0.00137034
0.00138477
0.00138208
0.00138282
0.00137009
0.00138789
0.00138188
0.00138046
0.00121749
0.0012619
0.00120319
0.00127868
0.00124781
0.00128815
0.00124778
0.0012913
0.00127298
0.00134053
0.00145881
0.00168715
0.00207554
0.00104712
0.00319241
0.00450412
0.0040588
0.00454791
0.0064588
0.00542569
0.00274062
0.0017614
0.00140796
0.000624655
0.00174862
0.00174932
0.0017562
0.0017568
0.00145218
0.00145257
0.00148252
0.00148303
0.00127716
0.00129618
0.00126562
0.00128739
0.00128192
0.0012963
0.00127269
0.00128744
0.001258
0.00128655
0.0012617
0.00128643
0.00126466
0.00128668
0.00126922
0.00128661
0.00125961
0.00129301
0.00127832
0.00123059
0.00129365
0.00127014
0.00126243
0.00129253
0.00123049
0.001278
0.00129352
0.00126997
0.00124612
0.00123384
0.00127757
0.00125756
0.00124887
0.00123378
0.00127861
0.00125751
0.00120925
0.00125493
0.00120137
0.00127054
0.00116114
0.00123968
0.00114832
0.001252
0.00118434
0.000917395
0.00146032
0.00146064
0.00154
0.0015402
0.0014994
0.00149963
0.0014906
0.00149082
0.00134866
0.00131381
0.00134273
0.00130649
0.00135017
0.00131384
0.00134401
0.00130656
0.00130708
0.00130149
0.00124366
0.00131693
0.00127156
0.00124213
0.00130837
0.00130418
0.00124383
0.00131849
0.00127179
0.00124221
0.00120901
0.00125584
0.00120114
0.0012713
0.0012251
0.00129893
0.00122486
0.00129774
0.00116106
0.00123902
0.00114816
0.00125146
0.00118221
0.00124509
0.00118218
0.00124805
0.00123848
0.00135054
0.00149582
0.00175204
0.00210802
0.00126005
0.00342296
0.00316105
0.00385869
0.00456303
0.00733726
0.00519669
0.00303608
0.00194576
0.00130058
0.00176939
0.00176985
0.00182514
0.0018259
0.00151249
0.00151265
0.00153896
0.00153912
0.00125447
0.00128736
0.00125986
0.00129204
0.00126093
0.00128757
0.00126454
0.00129199
0.00131044
0.00134415
0.00128218
0.00131648
0.00131704
0.00134444
0.00128726
0.00131661
0.00121003
0.00119693
0.00118787
0.00117427
0.00121514
0.00119696
0.00119463
0.00117436
0.00115411
0.00113525
0.00116957
0.00115055
0.00116091
0.00113525
0.00117625
0.00115073
0.0011468
0.00123539
0.0011431
0.00124078
0.00110731
0.000869748
0.00120856
0.00120904
0.00134193
0.00134235
0.00143005
0.00143034
0.00146042
0.00146067
0.00136922
0.00133752
0.00135523
0.00132756
0.00137266
0.0013375
0.00135765
0.00132755
0.00135019
0.00131756
0.00135559
0.00132319
0.00135122
0.00131762
0.0013573
0.00132311
0.00130644
0.00122961
0.00130565
0.00123071
0.00130745
0.00122947
0.00130679
0.00123066
0.00127564
0.00130258
0.00122295
0.00117104
0.00130157
0.00122609
0.00127642
0.00130391
0.001223
0.00117105
0.00130325
0.00122615
0.00114669
0.00123575
0.00114297
0.00124098
0.00115964
0.00126626
0.00115947
0.00126517
0.00125304
0.00139757
0.0015694
0.001866
0.00211359
0.0014527
0.00237293
0.00304864
0.00510947
0.00493004
0.00736305
0.00608789
0.00373957
0.00286774
0.000805858
0.00158385
0.001584
0.00165984
0.00166038
0.0013776
0.00137783
0.00140846
0.00140847
0.0011574
0.00114153
0.00117129
0.00115009
0.00116391
0.0011417
0.00117642
0.00115014
0.00123027
0.00124155
0.00119407
0.00117801
0.00123599
0.00124174
0.00119954
0.00117816
0.00113384
0.00109887
0.00113993
0.00109883
0.00113893
0.000960815
0.000878617
0.000879247
0.00106783
0.00106832
0.00128833
0.00128837
0.00136151
0.00136156
0.0013129
0.00128036
0.00133518
0.00128904
0.00131619
0.00128047
0.00133727
0.00128916
0.00135945
0.0013213
0.00134903
0.00131023
0.00136242
0.00132148
0.00135178
0.00131028
0.00129996
0.00121669
0.00130186
0.00121923
0.00130202
0.00121666
0.00130296
0.00121926
0.00130534
0.00122529
0.00130519
0.00122373
0.00130567
0.00122513
0.001306
0.0012236
0.00132303
0.00145151
0.0016896
0.00200101
0.00208753
0.00180759
0.00137958
0.0038823
0.00462036
0.00497529
0.00695817
0.00748593
0.00513086
0.00436986
0.00177686
0.00177718
0.00194532
0.00194606
0.00144691
0.00144699
0.00152595
0.00152611
0.00126849
0.00125247
0.00125731
0.00127712
0.00126855
0.00125211
0.00125745
0.00127694
0.00128631
0.00128614
0.0012933
0.00128731
0.00128628
0.00128981
0.00129324
0.00128811
0.00112686
0.00108743
0.0011343
0.00108447
0.00113206
0.00108748
0.00113827
0.00108445
0.00116534
0.00114877
0.00114128
0.00109925
0.00116897
0.00114875
0.00114538
0.00109931
0.00127046
0.00105069
0.0010104
0.00112368
0.00112425
0.00120281
0.00120308
0.00127407
0.00127486
0.00127914
0.00128038
0.00127522
0.00117472
0.00128568
0.00117955
0.00127728
0.00117481
0.00128724
0.00117967
0.00129264
0.00120512
0.00128557
0.00119137
0.00129491
0.00120523
0.00128782
0.00119149
0.00129448
0.00119011
0.00129628
0.00118993
0.00137475
0.00150091
0.00186677
0.00203788
0.00202182
0.00161954
0.0029585
0.00417821
0.00381584
0.00440419
0.00481016
0.00698031
0.00666635
0.00181628
0.0015978
0.00159808
0.00172572
0.00172583
0.00131068
0.00132431
0.00136576
0.00135536
0.0013147
0.00132447
0.00136578
0.00135505
0.00146022
0.00146022
0.00117079
0.0012161
0.00118413
0.00121429
0.00117077
0.0012153
0.00118408
0.00121383
0.00116631
0.00121003
0.00118021
0.00120308
0.00116623
0.00121472
0.00118029
0.00120425
0.00116835
0.00113615
0.00117034
0.00113594
0.00133688
0.00125605
0.0010915
0.00116692
0.00116692
0.00126374
0.00126413
0.0012614
0.00126195
0.00129156
0.00129208
0.00118149
0.00131146
0.00118125
0.00131496
0.0011818
0.00131024
0.00118114
0.00131493
0.00117727
0.00128828
0.00115991
0.00130211
0.00117771
0.00128967
0.00116027
0.0013032
0.00128313
0.0011335
0.00128762
0.00113969
0.00128459
0.00113345
0.00128912
0.00113967
0.0012926
0.00116912
0.0012835
0.00115046
0.00129426
0.00116898
0.00128529
0.00115034
0.00139246
0.00157337
0.00203685
0.00195198
0.0016362
0.0037911
0.00354456
0.00315801
0.00330336
0.00353606
0.00242055
0.00158007
0.00148456
0.00148409
0.00112001
0.00111949
0.00139018
0.00142173
0.00142816
0.00146173
0.00139435
0.001422
0.00143158
0.00146172
0.00153651
0.00153675
0.00124458
0.0012155
0.00129185
0.00129735
0.00124734
0.00121563
0.00129165
0.00129567
0.00133914
0.00134948
0.00132288
0.00132931
0.0013418
0.00134948
0.00132252
0.00132917
0.0011376
0.00118784
0.0011344
0.001187
0.00113746
0.00119146
0.00113441
0.00118892
0.0013569
0.00133162
0.00127832
0.00124048
0.00131617
0.00131505
0.00126304
0.00126174
0.00124044
0.00123989
0.00131167
0.00117443
0.00116798
0.00128292
0.00131018
0.00117426
0.00116796
0.00128242
0.00114949
0.00133896
0.00114822
0.00134045
0.0011495
0.00133847
0.00114808
0.00134092
0.0011455
0.00131316
0.00113678
0.00133084
0.00114557
0.00131424
0.00113669
0.00133197
0.00130425
0.00112832
0.00130555
0.00112806
0.00139407
0.00171858
0.0016234
0.00172508
0.00357236
0.00273508
0.00230109
0.00248592
0.00164458
0.000983762
0.000461643
0.000461764
0.000433471
0.000433133
0.00122398
0.00122383
0.000741896
0.000741366
0.00128577
0.00127795
0.00134141
0.00135408
0.00128994
0.00127819
0.00134434
0.00135416
0.00136455
0.00133784
0.0013531
0.00135413
0.00136455
0.00133949
0.00135302
0.00135434
0.00120486
0.00115191
0.00120857
0.00123962
0.00120534
0.00115196
0.00120846
0.00123809
0.00125283
0.00122867
0.00125471
0.00123058
0.00125622
0.00122854
0.00125539
0.00123044
0.0013394
0.00135076
0.00134222
0.00137659
0.00143468
0.00143312
0.00138665
0.00138465
0.00132152
0.00131899
0.00138034
0.00117749
0.00135672
0.0011798
0.00137389
0.00117632
0.00134967
0.00117813
0.00137486
0.00117798
0.00138342
0.00117336
0.00132019
0.00114066
0.0013711
0.00117703
0.0013811
0.00117274
0.00131873
0.00114049
0.00133885
0.0011445
0.00133767
0.00114438
0.00115817
0.00138023
0.00116227
0.00136608
0.00115788
0.00137944
0.00116179
0.00136629
0.00144223
0.00148891
0.00134536
0.00278605
0.00196719
0.00164089
0.00127811
0.000929543
0.000575138
0.0004235
0.000423517
0.000409729
0.000409049
0.00108763
0.00124479
0.00109052
0.00099892
0.00101736
0.00121796
0.00124672
0.00108838
0.00121783
0.00109043
0.000999826
0.0010172
0.000291008
0.000528947
0.0004596
0.000611386
0.000302231
0.00052678
0.000464983
0.00061057
0.00123462
0.00120275
0.00127162
0.00124863
0.00123742
0.00120283
0.00127333
0.00124861
0.00124448
0.00126876
0.00124439
0.00126922
0.00118774
0.00122551
0.00118763
0.00122461
0.00122658
0.00119211
0.00122969
0.00119196
0.00131207
0.00132989
0.00135325
0.00137952
0.00154269
0.00154184
0.00153104
0.00153001
0.00139647
0.00139359
0.00137896
0.00137665
0.00122103
0.00141048
0.00122958
0.00142873
0.00119305
0.0014053
0.00122063
0.00140644
0.00122829
0.00142651
0.00119256
0.00140351
0.00140931
0.00118711
0.00140691
0.00118652
0.0014017
0.00118802
0.00140842
0.00138906
0.00119458
0.00116475
0.00139998
0.0011874
0.00140732
0.00138746
0.00119412
0.00116416
0.00139275
0.00116709
0.00139142
0.00116656
0.00162419
0.00083424
0.00220516
0.00162174
0.00124362
0.000968088
0.000774541
0.000434981
0.000434954
0.000472026
0.000472261
0.000328724
0.000328579
0.000372084
0.000371517
0.00117683
0.000998874
0.000998283
0.00114219
0.000836589
0.000871222
0.00117841
0.00100051
0.001142
0.000998165
0.000839728
0.000871289
0.000251191
0.000420296
0.000342137
0.000505282
0.000252068
0.000425681
0.000348132
0.000506583
0.00124897
0.00121598
0.00125
0.00121585
0.00136136
0.00126491
0.00133048
0.00135809
0.00142769
0.00148699
0.0014853
0.00146718
0.00146528
0.00139973
0.00125839
0.00143435
0.00126204
0.0013905
0.00125609
0.00142707
0.00126073
0.00146662
0.0014536
0.00128223
0.0014456
0.00127194
0.00126245
0.00146359
0.00145017
0.00128174
0.00144089
0.00127089
0.00126195
0.00126488
0.00121815
0.00145268
0.00142929
0.00126446
0.00121774
0.00144923
0.00142762
0.00143249
0.00122248
0.00143106
0.00122202
0.00142958
0.0012233
0.00140385
0.00118665
0.00142807
0.00122257
0.00140267
0.00118605
0.000613392
0.00173208
0.00140116
0.00120124
0.00100008
0.000778463
0.000504728
0.000504511
0.000609209
0.000609162
0.00034614
0.000263764
0.000325669
0.000285068
0.000346809
0.000260267
0.00032786
0.000279139
0.000383299
0.000382462
0.000253304
0.000353612
0.000298156
0.000434098
0.000249885
0.000357171
0.000299554
0.00043701
0.000496298
0.00119707
0.0012506
0.00132982
0.00136256
0.00143604
0.00143528
0.0014361
0.00143461
0.0013535
0.00135138
0.00135349
0.00134995
0.00141644
0.00125441
0.00142599
0.00126898
0.00141269
0.00125379
0.00142419
0.00126877
0.00148101
0.00146389
0.00129666
0.00130167
0.00144177
0.00129261
0.00147723
0.00146288
0.00130151
0.0012962
0.00144163
0.0012925
0.00125403
0.00144115
0.0012536
0.00143853
0.00149405
0.00122965
0.00124926
0.00100503
0.000735393
0.00073539
0.000819738
0.000819778
0.000497895
0.000497613
0.000633017
0.000632995
0.00034265
0.000255592
0.000321284
0.000277573
0.00034289
0.000251657
0.000322744
0.000271283
0.000354914
0.00043794
0.000304283
0.000381743
0.000353248
0.00043738
0.00030163
0.000381609
0.000291621
0.000399185
0.000293532
0.000402686
0.000441745
0.00111014
0.00124508
0.00132077
0.00134944
0.00137541
0.00137434
0.00136104
0.00135983
0.00129549
0.00129392
0.00121689
0.00138781
0.00123326
0.00133561
0.00121638
0.00138175
0.00123235
0.00133326
0.00140755
0.00126065
0.00143054
0.00130523
0.00140193
0.00126002
0.00142636
0.00130495
0.00113268
0.0011312
0.00117299
0.00089214
0.000860465
0.000860495
0.000923646
0.000923643
0.000355266
0.000435657
0.000589715
0.000393635
0.00048998
0.000480406
0.00035301
0.000435218
0.000589805
0.00039355
0.000490148
0.000480751
0.000699189
0.000699287
0.000353431
0.00026878
0.000348614
0.000283808
0.000353731
0.000267002
0.000349664
0.000280375
0.000319725
0.000394307
0.00031716
0.000394036
0.000416428
0.00107584
0.00123491
0.00131287
0.00137891
0.00137806
0.00134168
0.00134074
0.00124821
0.00124767
0.00127113
0.00126894
0.00131598
0.00120372
0.00134503
0.00120013
0.00135203
0.00120846
0.00130868
0.00120101
0.00134467
0.00119927
0.00135066
0.00120785
0.00136994
0.00122672
0.00136644
0.00122599
0.00139397
0.00126886
0.00138806
0.00126829
0.00101272
0.0011954
0.00105355
0.000844815
0.00084482
0.00085247
0.000852595
0.000798963
0.000799045
0.000837145
0.000837055
0.000358845
0.000440219
0.000612389
0.000478166
0.00055263
0.000548346
0.000357827
0.000440184
0.000612531
0.000478762
0.000552795
0.000549006
0.000680261
0.000737194
0.000638845
0.000669645
0.000678693
0.000736986
0.000636554
0.000669441
0.000415664
0.00106696
0.00121732
0.00131927
0.00135077
0.00134923
0.00129213
0.00129161
0.00120985
0.00121069
0.00132718
0.00120463
0.00118331
0.00130975
0.0012064
0.00123131
0.00118351
0.00130755
0.00120576
0.00123357
0.00132545
0.00120401
0.0013439
0.00134674
0.00121517
0.00121259
0.00134618
0.00134863
0.00121483
0.001212
0.00135864
0.00123097
0.00135907
0.00123057
0.00110671
0.00132385
0.000798597
0.000886055
0.000885986
0.000886607
0.000886606
0.000730177
0.000757917
0.000840357
0.000795528
0.000794513
0.00083809
0.000729671
0.000757954
0.000840698
0.000795834
0.000794871
0.000838911
0.000868364
0.000868083
0.000634061
0.000600496
0.000633866
0.000598408
0.000712854
0.000719109
0.000711611
0.000719041
0.000451295
0.00105026
0.00119245
0.00135075
0.0013495
0.0013551
0.00135311
0.0012555
0.00125264
0.00119977
0.00119672
0.00119795
0.00114642
0.00124461
0.00116249
0.00128335
0.0011942
0.0011928
0.00128503
0.00119378
0.0011439
0.00124732
0.0011623
0.00132237
0.00122285
0.0013097
0.0012299
0.00130932
0.00131945
0.0012296
0.00122231
0.000849579
0.00120436
0.000601241
0.00074091
0.000741026
0.000792382
0.000791937
0.000747574
0.000748898
0.000831401
0.000824965
0.000795884
0.000850803
0.000746935
0.000749041
0.00083163
0.000822476
0.000795802
0.000850094
0.000747841
0.000755376
0.000742862
0.000740655
0.000747273
0.000754493
0.000737412
0.000739465
0.000726132
0.000728909
0.000725069
0.000728937
0.000507988
0.00101354
0.00114122
0.00128136
0.00127963
0.00126465
0.00126227
0.00121819
0.00121385
0.00122405
0.0011325
0.00113587
0.00123491
0.00112388
0.00120414
0.00122475
0.00113194
0.00113495
0.00122944
0.00112295
0.00119884
0.00122971
0.0012771
0.00116338
0.00121037
0.0012826
0.00121029
0.00123721
0.00116341
0.00194568
0.000690885
0.000501564
0.000627067
0.000626626
0.000500532
0.000648867
0.000648698
0.000583251
0.000685608
0.00069371
0.000581827
0.000686828
0.000694258
0.000789109
0.000769817
0.00072062
0.000776795
0.000722062
0.000757992
0.000786171
0.000769445
0.000719813
0.000767358
0.000721988
0.000749417
0.000660217
0.000646716
0.000660389
0.000646706
0.000571662
0.000947774
0.000995358
0.00116448
0.00116218
0.00116475
0.00116143
0.00118881
0.00113165
0.00125804
0.0011198
0.00125383
0.00112486
0.00117917
0.00124552
0.00112342
0.00112794
0.00125109
0.00111839
0.00122374
0.00113386
0.00123925
0.00112481
0.00122324
0.00113333
0.00123317
0.00112401
0.00122803
0.00117321
0.0012349
0.00117313
0.00142141
0.000516552
0.000583884
0.000502093
0.000583229
0.000500258
0.00058581
0.000584917
0.000521062
0.000542864
0.000533695
0.000541058
0.000570035
0.000548869
0.000583234
0.000642823
0.000541201
0.000516416
0.000532839
0.000541711
0.000570424
0.000547945
0.000579701
0.000641962
0.000646974
0.000687921
0.000647174
0.000690087
0.000547497
0.000542468
0.0005484
0.000543015
0.000646219
0.000826963
0.000876963
0.0011017
0.0010992
0.000874304
0.000979886
0.000976807
0.00112816
0.00119045
0.00110643
0.00112648
0.00118568
0.00110445
0.00124517
0.00122869
0.00111886
0.00110619
0.00123858
0.00111791
0.0012267
0.00110549
0.00123285
0.0011507
0.00124619
0.0011423
0.00123068
0.00115021
0.00124012
0.00114165
0.000805342
0.000457011
0.000542439
0.000603977
0.00058219
0.000449727
0.000541434
0.000604604
0.000576795
0.000446995
0.000472495
0.000472439
0.000512764
0.000565461
0.000556105
0.000525489
0.000498375
0.000541708
0.000511645
0.000553675
0.000559734
0.000524781
0.000498346
0.000540655
0.000540533
0.000543985
0.000541654
0.000548279
0.000709582
0.000725685
0.000852274
0.000977902
0.000974498
0.000847659
0.000902138
0.000897293
0.001138
0.00118637
0.00110306
0.00118696
0.00110481
0.001062
0.00101769
0.00104964
0.00113774
0.00118705
0.00110182
0.00118406
0.00110295
0.00106156
0.00101145
0.00104649
0.00124201
0.00121642
0.0011317
0.00111385
0.00123948
0.00113129
0.00121598
0.00111317
0.000506339
0.000334976
0.000396237
0.000396362
0.000339353
0.000477275
0.000477572
0.000415645
0.00058196
0.00057306
0.00055943
0.000572912
0.000561101
0.000439168
0.00049582
0.00043144
0.000399764
0.000509647
0.000414742
0.000580924
0.000565191
0.000557798
0.000565709
0.000552922
0.00044521
0.000496821
0.00042665
0.000404101
0.000504949
0.000539473
0.000559481
0.000523735
0.000552954
0.000537462
0.000552896
0.0005232
0.000551606
0.000817396
0.000597848
0.00073438
0.000941713
0.00100371
0.0010083
0.000937337
0.00100378
0.00100908
0.000726428
0.000787369
0.000777805
0.00115833
0.00108284
0.00120856
0.00109832
0.00112935
0.00103977
0.00116513
0.00108713
0.00121084
0.00112892
0.00109801
0.00103968
0.00123417
0.0011418
0.00123273
0.00114143
0.00022922
0.00035563
0.000283781
0.000353601
0.000283752
0.00034462
0.000343729
0.000582756
0.000577423
0.000546549
0.000569561
0.000467327
0.000473014
0.000245122
0.000389627
0.000447673
0.000385111
0.00048166
0.000387579
0.000270532
0.000538975
0.000576418
0.000573495
0.000568748
0.000546533
0.000469945
0.000474127
0.000394267
0.000264443
0.000448232
0.000392926
0.000478917
0.000377397
0.000266978
0.000524807
0.000811607
0.000291655
0.000684105
0.000676479
0.000324613
0.000512456
0.000505944
0.000805975
0.000997191
0.001003
0.000984311
0.00100179
0.000968915
0.000938231
0.00091336
0.000791326
0.000996387
0.000997591
0.000982856
0.000999938
0.000960843
0.000928991
0.000912732
0.00075161
0.000802812
0.000871162
0.000743427
0.000790104
0.000864936
0.00113056
0.00105782
0.00110659
0.00104607
0.00114114
0.00105976
0.00110642
0.00104589
0.000179719
0.000346996
0.000450575
0.000263104
0.000220136
0.000343499
0.000455226
0.000261833
0.000214953
0.000224612
0.000222989
0.000561111
0.000547194
0.000473966
0.000490236
0.000390356
0.000288008
0.000464091
0.00049519
0.000411722
0.000322578
0.000559293
0.000547591
0.000475132
0.000491575
0.000396295
0.000466558
0.000295988
0.000496901
0.000413972
0.000325191
0.0011176
0.000402997
0.000531537