/*--------------------------------*- C++ -*----------------------------------*\
| =========                 |                                                 |
| \\      /  F ield         | OpenFOAM: The Open Source CFD Toolbox           |
|  \\    /   O peration     | Version:  5.x                                   |
|   \\  /    A nd           | Web:      www.OpenFOAM.org                      |
|    \\/     M anipulation  |                                                 |
\*---------------------------------------------------------------------------*/
FoamFile
{
    version     2.0;
    format      ascii;
    class       volScalarField;
    location    "2.7";
    object      omega;
}
// * * * * * * * * * * * * * * * * * * * * * * * * * * * * * * * * * * * * * //

dimensions      [0 0 -1 0 0 0 0];

internalField   nonuniform List<scalar> 
12160
(
0.0719999
0.0719999
0.00182228
0.0719999
0.0039138
0.00116431
0.0719999
0.00711335
0.00147878
0.00112965
0.0719999
0.0118453
0.0020099
0.00133533
0.00114414
0.0719999
0.0154494
0.00307061
0.00151668
0.00134699
0.00124125
0.0719999
0.0171299
0.00406015
0.00187512
0.001482
0.00158009
0.00128518
0.0719999
0.0172118
0.00457489
0.00216214
0.00171045
0.00169115
0.00199504
0.00300434
0.0719999
0.0171547
0.00459664
0.00232075
0.00184953
0.00180213
0.00221606
0.00516579
0.0141988
0.0719999
0.0171509
0.00457412
0.0023453
0.00193973
0.00183442
0.00230861
0.0050439
0.0140877
0.0143176
0.0719999
0.0171817
0.00458726
0.00236298
0.00199176
0.00189983
0.00219341
0.00395975
0.0139012
0.0140915
0.022242
0.0719999
0.0170795
0.00460899
0.0024003
0.00204165
0.00197982
0.00215705
0.00313473
0.0122394
0.0143121
0.0274525
0.0290703
0.0719999
0.0168278
0.00457654
0.00242799
0.00208982
0.00206391
0.0022094
0.00281104
0.0105261
0.0147941
0.0347065
0.0321841
0.0215026
0.0719999
0.0166356
0.00448792
0.00242636
0.00211924
0.00213991
0.00233511
0.00312638
0.00886849
0.0146417
0.0348777
0.0301648
0.014546
0.0185732
0.0719999
0.0165729
0.00440707
0.00239843
0.0021271
0.0021921
0.00245472
0.00366667
0.00774575
0.0136975
0.0277842
0.023521
0.0216005
0.0123123
0.0133397
0.0719999
0.0166128
0.00436176
0.0023715
0.00211762
0.00221239
0.00252544
0.00413748
0.00694936
0.0127939
0.0217635
0.0245857
0.0125415
0.0127418
0.00361351
0.0719999
0.0166998
0.00435543
0.00236294
0.00210005
0.00220673
0.00254926
0.00444699
0.00657136
0.0117871
0.0189049
0.0263838
0.0106824
0.00725979
0.00827981
0.0719999
0.0166798
0.00436859
0.002373
0.00208225
0.00219045
0.00253991
0.00460049
0.00652902
0.0107668
0.0173027
0.0275568
0.0105579
0.00500025
0.00491908
0.0719999
0.0167718
0.00435548
0.00238943
0.00207894
0.00217984
0.00252385
0.00462623
0.00672962
0.00994949
0.0160075
0.027775
0.0102171
0.00437726
0.00284059
0.0719999
0.0173956
0.00438501
0.00240998
0.00209446
0.00218879
0.00250868
0.00457466
0.00693129
0.00940377
0.0146993
0.0278409
0.0113697
0.00395678
0.0022558
0.0719999
0.018571
0.0045848
0.00246252
0.00213469
0.00222202
0.00249709
0.00453384
0.00703444
0.0090249
0.0134431
0.0269269
0.0102303
0.00406226
0.00207101
0.0719999
0.0199113
0.0049529
0.002583
0.00220816
0.00227468
0.00251807
0.00443654
0.00709442
0.00884053
0.0128433
0.0268103
0.0117336
0.00397598
0.00218338
0.0719999
0.021151
0.00537167
0.00277609
0.00233404
0.00235717
0.00257995
0.00432808
0.00710411
0.00871057
0.012672
0.0240064
0.0149547
0.00427045
0.00232837
0.0719999
0.0220819
0.00576092
0.00300124
0.0025076
0.00249879
0.0027276
0.00425179
0.00702424
0.00852436
0.0122298
0.0203415
0.0179959
0.00677397
0.00258103
0.0719999
0.0225423
0.00605635
0.0032197
0.00271337
0.00272416
0.00297918
0.00427222
0.00689581
0.00830759
0.0116415
0.0184772
0.0194574
0.00983738
0.0027965
0.0719999
0.0225356
0.00619991
0.00339414
0.00291888
0.00298651
0.00330359
0.00440852
0.00672689
0.00814561
0.0110726
0.0179601
0.0194092
0.0108158
0.00384729
0.0719999
0.0221092
0.00619361
0.00349041
0.0030826
0.00321283
0.00360574
0.00463881
0.00648086
0.00806622
0.0107066
0.0181379
0.0193764
0.011825
0.00493752
0.0719999
0.0213016
0.00604917
0.00351055
0.00317676
0.00335731
0.00380644
0.0048302
0.00637441
0.00806945
0.0106233
0.0184205
0.0195658
0.0125731
0.00563816
0.0719999
0.0201963
0.0057859
0.00345831
0.00321403
0.00341014
0.00385951
0.0048511
0.00625369
0.00808787
0.0108616
0.017665
0.0200658
0.0129257
0.0060643
0.0719999
0.0188897
0.0054345
0.00334188
0.00319687
0.00344897
0.00381675
0.00469899
0.00595816
0.00783882
0.010851
0.0162355
0.0202294
0.0135726
0.00602775
0.0719999
0.0174801
0.0050294
0.00317795
0.00312137
0.00347915
0.00388081
0.00450413
0.00551872
0.0072927
0.010322
0.0151492
0.0196916
0.014354
0.00623966
0.0719999
0.0160574
0.00460326
0.00298688
0.00299628
0.00345769
0.00402271
0.00458485
0.00515932
0.00648054
0.00931785
0.0139092
0.0174299
0.0140491
0.00722428
0.0719999
0.0147193
0.00418672
0.00278747
0.00284261
0.00337792
0.00412168
0.00488736
0.00529168
0.0058241
0.00785486
0.0119519
0.0146927
0.0121559
0.0073082
0.0719999
0.0135812
0.00381124
0.00259703
0.00268284
0.00323544
0.00411564
0.00518949
0.00582215
0.00605996
0.00685944
0.00905917
0.0113842
0.00987372
0.00519973
0.0719999
0.0130163
0.00350755
0.00243134
0.0025353
0.00305097
0.00401901
0.00538232
0.00643392
0.00700343
0.00760871
0.00704093
0.00699006
0.0071894
0.00372556
0.0719999
0.0132298
0.00335224
0.00230442
0.00241262
0.00286973
0.00386959
0.00546908
0.00700435
0.00805776
0.00955325
0.0092759
0.00394781
0.00416061
0.00261661
0.0719999
0.014051
0.00342617
0.00224129
0.00231974
0.00271749
0.00368893
0.00547861
0.00752697
0.00903468
0.011354
0.01359
0.00482365
0.00236111
0.00175627
0.0719999
0.0152175
0.00367985
0.00225924
0.00226768
0.00261234
0.00349783
0.00543325
0.00802336
0.00998669
0.0129179
0.0165688
0.00810708
0.00235838
0.00128006
0.0719999
0.0164976
0.00405747
0.00234406
0.00227295
0.00257208
0.00329769
0.00536753
0.00846603
0.010951
0.0145195
0.0189059
0.0102178
0.00355315
0.0012677
0.0719999
0.0178095
0.00450335
0.00248186
0.00232898
0.00258468
0.0031109
0.00534013
0.00879833
0.0116917
0.0164771
0.0216563
0.0113207
0.00531605
0.00155562
0.0188884
0.0719999
0.00498887
0.00265788
0.00242291
0.00263599
0.00307555
0.00538226
0.00903739
0.0118599
0.0182426
0.0259552
0.0123112
0.00741006
0.00179594
0.00542866
0.0205984
0.0719999
0.00286303
0.00254374
0.00272387
0.00317072
0.00550236
0.0091708
0.0116075
0.0185184
0.0307008
0.0131319
0.00909234
0.00208692
0.00306863
0.0061581
0.0213825
0.0719999
0.00268553
0.00284671
0.00334208
0.00561473
0.00897222
0.0114856
0.0172047
0.03346
0.0147105
0.00990009
0.00277465
0.00283032
0.00343343
0.00657562
0.021728
0.0719999
0.00300424
0.00355228
0.00570159
0.00868769
0.0113901
0.0158906
0.0336836
0.0167159
0.00991886
0.00341619
0.00317848
0.00308642
0.00372412
0.00692806
0.0220794
0.0719999
0.00378517
0.00578445
0.00845052
0.0112596
0.0151909
0.0306587
0.0184212
0.00963043
0.0034685
0.00401499
0.00346968
0.00333071
0.00407919
0.00732381
0.0315404
0.0719999
0.0058754
0.00829181
0.0111045
0.0151166
0.0274894
0.0199472
0.00995618
0.00328848
0.00597422
0.00439069
0.00374103
0.0036208
0.00474043
0.0125907
0.0548663
0.0719999
0.00821133
0.010944
0.015494
0.0255914
0.0218821
0.0114199
0.00346787
0.00816959
0.00604315
0.00472721
0.00401659
0.00414809
0.00843847
0.020388
0.0746123
0.0903308
0.0108118
0.0160176
0.024516
0.0223499
0.0129957
0.00423108
0.0107159
0.0081434
0.00609367
0.00504427
0.0044261
0.0063461
0.0177527
0.0598926
0.144453
0.0719999
0.0164501
0.0238861
0.0221276
0.0143759
0.00674776
0.0167258
0.0108112
0.00863381
0.00676542
0.00565131
0.00972733
0.0462533
0.180758
0.307198
0.135134
1.69565
0.0234409
0.0216496
0.014817
0.00817306
0.057045
0.120894
0.224177
0.203313
0.0988154
0.05226
0.204147
0.670708
0.957065
0.27932
4.75789
25.8476
0.0306571
0.0149414
0.0086941
0.142747
0.806237
1.86215
2.34908
1.51836
0.587799
0.744639
1.8876
2.47029
1.29879
3.5769
23.5478
25.7207
25.3449
0.0238192
0.00885317
0.127934
0.956576
4.40704
7.13374
6.21644
3.58027
1.97577
3.51374
4.61305
3.38168
3.12295
20.3449
23.8712
25.6212
27.0766
26.8566
0.0120806
0.0583801
0.834227
4.45049
8.97487
10.3408
8.57838
5.22375
5.33599
6.76698
5.85132
2.78072
16.7627
21.6338
23.4422
25.7819
27.8373
28.8822
28.1197
0.466595
4.00317
8.49896
11.6895
11.5667
9.45032
6.93819
9.26858
8.39341
6.34141
13.2384
19.4851
21.2717
23.4854
25.8437
28.3048
30.2611
30.7836
29.1634
2.77347
8.02026
10.1524
12.6008
11.6781
9.72214
10.5061
10.743
9.98947
13.1842
17.4458
19.3101
21.3314
23.5128
25.5408
28.3536
31.1657
33.0742
33.2756
30.0856
6.49614
9.44048
10.3858
12.1897
11.516
10.422
13.5733
11.8679
13.777
16.4118
17.6585
19.3498
21.3882
23.2956
47.102
27.7419
31.3362
34.576
36.3961
36.395
30.9395
8.18533
9.94435
10.3375
11.4299
11.4053
12.8425
13.324
14.2944
16.9564
16.5586
17.7001
19.4082
21.1039
28.4491
341.494
46.6195
341.64
338.406
338.527
30.176
34.9835
38.5404
40.1983
40.013
31.683
9.24842
9.50835
9.91651
11.065
12.014
16.3727
13.826
17.2533
16.3924
16.5055
17.7309
19.0444
21.6429
69.755
350.062
467.529
28.8695
350.219
350.504
350.648
467.704
456.284
456.532
33.5322
39.3717
42.8938
44.1349
43.5258
32.2242
7.18627
8.74021
9.79972
11.3466
13.9391
14.1933
15.4053
17.1394
15.9049
16.4706
17.3015
18.1004
41.3727
330.3
330.325
319.414
319.432
475.914
508.879
30.9752
89.7729
476.083
474.884
475.037
508.795
491.127
490.978
37.8216
44.3903
47.2639
47.6584
46.2316
32.4154
6.63584
8.43998
10.3678
12.1441
12.8982
14.0485
16.651
16.2887
15.631
15.9865
16.1017
38.9863
298.792
298.798
300.388
300.505
450.644
450.732
438.931
438.892
521.883
491.781
805.894
492.01
808.865
34.2118
53.0498
358.865
358.9
387.876
387.904
521.808
525.12
525.033
491.594
806.728
492.061
808.499
480.563
737.178
465.103
788.509
480.813
740.195
465.867
789.286
43.1959
49.8087
51.2972
50.0292
47.3972
32.0243
6.8108
8.54538
10.8526
10.4365
10.8341
15.9484
16.6321
15.559
15.1477
14.8011
39.889
297.422
297.521
301.322
301.53
424.11
424.026
424.401
424.282
759.302
803.239
457.77
747.5
453.889
473.403
805.944
759.799
457.893
747.664
453.936
474.507
727.585
442.527
736.226
447.368
728.432
442.855
736.62
447.498
501.581
812.888
497.164
821.952
507.583
891.288
507.769
893.156
38.2365
50.3804
332.139
332.172
342.36
342.371
486.051
486.035
526.949
527.152
501.693
814.367
497.448
822.563
507.293
818.629
504.705
834.299
506.926
820.159
504.928
833.347
507.625
892.057
507.951
893.326
496.182
870.72
496.999
872.513
49.9661
55.5216
54.277
50.8158
46.8514
31.0737
6.03027
8.36642
8.53756
10.3525
14.8532
16.2878
15.2857
14.9522
14.0185
39.8804
312.252
312.406
312.327
312.473
420.078
419.97
426.611
426.535
713.868
432.967
713.937
432.331
715.72
433.65
717.11
433.389
708.999
430.218
714.008
432.1
711.856
431.183
717.028
433.154
846.573
806.197
466.249
483.094
814.673
467.553
848.45
806.65
483.982
466.389
814.898
467.66
797.462
457.364
809.911
463.966
799.077
458.042
810.514
464.257
514.26
892.774
509.204
903.186
514.284
914.993
515.829
914.314
44.8287
49.8301
316.473
316.585
328.787
328.822
477.709
477.502
479.053
478.923
819.406
489.928
813.246
490.435
820.18
490.2
813.989
490.721
842.356
903.696
511.831
817.312
502.604
519.251
843.291
904.974
512.161
818.258
502.957
519.707
514.597
893.806
509.582
904.128
521.814
918.306
521.644
918.004
514.289
914.761
515.798
913.872
502.206
889.096
503.105
890.888
58.4497
61.0306
55.5752
50.6939
44.7059
29.7026
5.25589
5.6828
8.05328
15.6981
19.665
15.9079
14.93
14.2539
15.0753
314.592
314.707
297.498
297.645
430.268
430.217
436.6
436.687
701.911
427.035
703.627
428.299
704.188
427.846
706.041
429.064
689.813
434.9
710.072
433.167
692.422
435.629
712.26
433.884
785.786
450.175
786.135
449.917
788.412
451.359
789.53
451.508
790.051
450.759
791.04
451.23
793.95
452.517
794.22
452.847
520.313
916.999
516.877
922.81
58.5136
47.3942
296.016
296.137
314.683
314.792
468.662
468.447
471.807
471.569
830.902
493.582
830.325
492.714
832.469
494.019
831.447
493.019
828.502
491.189
830.085
492.362
828.854
491.324
831.219
492.628
896.863
509.246
888.731
506.793
897.962
509.668
889.56
507.195
938.056
876.546
512.332
529.249
880.441
508.428
938.708
877.67
512.737
529.52
881.49
508.909
520.494
917.461
517.101
923.002
528.193
938.386
528.012
937.964
69.1657
64.6357
55.6128
50.2983
40.8394
28.2757
3.20436
5.66161
20.5495
25.9291
23.1709
21.3344
16.1383
15.3099
56.7469
444.456
444.564
420.659
420.911
481.386
481.366
486.435
486.427
787.569
449.79
796.253
454.146
790.8
451.295
799.063
455.452
768.252
455.565
801.579
458.185
770.987
456.631
804.313
459.454
804.09
455.98
808.158
457.821
78.7566
69.0491
264.937
265.089
303.705
303.825
441.523
441.541
456.62
456.472
821.01
488.773
841.26
494.116
822.023
489.036
841.944
494.337
834.555
493.445
837.044
493.862
835.412
493.76
838.201
494.182
922.765
522.13
918.737
519.54
924.19
522.724
919.206
519.845
907.078
513.231
913.104
516.444
907.719
513.496
913.839
516.764
77.5346
65.0582
55.5403
48.9624
36.6803
27.0219
2.66915
13.6766
29.0491
34.1037
39.9149
27.6387
23.111
19.7519
338.072
338.229
305.269
305.369
492.427
492.217
468.831
469.057
468.458
754.238
464.321
764.09
468.436
753.756
464.213
764.053
471.688
766.035
471.67
768.478
471.885
768.346
472.323
768.999
808.783
458.473
821.655
464.459
811.883
460.057
824.128
465.794
812.426
466.518
825.943
468.346
814.728
467.512
828.243
469.6
94.5213
98.2989
200.123
413.347
413.519
429.086
429.179
529.924
529.896
580.55
580.503
922.368
525.389
938.193
529.064
923.383
525.852
939.01
529.537
927.359
524.304
933.111
526.908
928.476
524.88
934.283
527.501
942.813
530.177
944.92
530.937
79.066
62.8754
55.3436
44.0731
33.5132
29.2039
6.49164
24.032
31.3024
38.743
41.6418
42.7229
32.7624
59.5389
461.99
461.812
405.608
405.493
772.889
476.531
478.198
754.36
774.467
476.914
477.971
754.135
513.35
513.269
482.745
823.357
475.117
842.069
482.702
823.256
475.043
841.684
485.833
848.813
487.618
847.213
486.287
851.379
488.712
848.029
827.196
471.858
829.31
472.637
96.7198
121.222
161.613
465.196
465.205
500.593
500.651
501.333
501.41
520.301
519.994
541.522
930.418
537.659
936.472
541.406
930.594
537.518
936.014
547.21
942.157
548.056
935.495
547.261
942.178
548.316
935.347
974.167
548.124
976.055
547.466
975.481
548.758
977.068
548.109
958.942
537.746
966.893
542.833
960.485
538.502
968.449
543.636
74.7836
59.3063
52.2778
36.8344
33.887
15.1063
28.5519
33.2679
39.9778
45.4333
51.1391
81.5803
288.519
288.455
221.211
221.253
770.813
469.735
734.953
461.661
772.282
470.246
737.131
462.173
468.716
468.665
859.853
493.727
491.588
827.948
861.256
494.294
491.422
827.841
793.832
488.465
799.866
491.935
795.848
489.051
800.11
491.992
490.937
872.553
496.128
861.889
491.66
875.106
497.2
863.758
90.0984
121
171.045
310.853
571.855
571.147
583.534
582.336
629.135
628.483
941.684
538.4
531.489
916.178
940.714
537.864
530.692
914.636
571.01
1020.96
572.451
1018.68
571.232
1021.1
572.483
1019.04
567.598
997.267
561.402
1010.33
567.972
998.463
561.992
1010.85
994.335
557.154
996.612
558.005
67.5671
54.4649
42.8013
35.2871
22.9444
28.9568
32.6796
41.0608
48.9412
67.3758
182.917
182.927
162.244
162.276
366.901
366.753
231.974
231.811
860.275
492.918
813.028
479.631
862.081
493.788
814.491
480.231
463.271
695.083
435.495
760.198
463.37
696.574
435.776
760.486
884.643
502.897
501.251
873.61
884.809
503.117
500.968
872.966
872.405
500.797
868.233
500.783
874.789
501.813
868.757
501.077
79.9702
109.151
159.304
288.932
630.873
630.756
652.504
652.072
703.039
702.285
1052.26
595.075
1021.08
587.271
1049.55
593.428
1018.95
585.248
1045.25
596.062
1056.42
599.219
1000.37
567.695
1044.94
595.393
1056.14
598.867
999.292
567.104
1023.79
573.857
1023.04
573.543
584.404
1060.44
593.272
1044.6
584.773
1061.39
593.522
1045.5
58.103
45.9076
35.7708
25.2209
26.3226
29.6641
36.2727
53.2281
79.514
182.731
182.71
156.342
156.389
588.661
747.885
360.553
535.946
327.989
436.247
749.189
589.075
436.716
360.62
536.189
327.892
227.145
174.173
311.361
204.697
227.905
173.422
311.572
204.396
883.177
501.92
864.037
493.267
884.764
502.756
865.114
493.796
471.512
822.489
471.716
822.825
503.832
882.263
503.698
881.982
884.227
503.996
886.803
505.063
65.9882
95.0248
135.923
228.273
633.496
633.565
645.608
645.501
685.983
684.927
734.182
733.512
623.698
1065.72
615.803
1102.06
610.829
1073.93
623.129
1066.04
614.987
1101.36
610.355
1073.47
1092.76
613.512
1092.13
613.079
1087.74
611.247
1088.51
1071.03
610.763
600.032
1088.06
611.136
1088.48
1071.52
610.693
599.973
1073.59
600.494
1073.99
600.527
45.609
35.5873
22.2632
22.3823
25.8252
32.5702
54.4167
164.973
164.969
153.632
153.626
168.175
168.385
153.2
153.206
739.109
601.493
349.445
422.869
529.665
307.841
740.576
602.376
423.367
349.742
530.924
308.341
219.527
153.159
281.76
184.387
220.169
154.764
283.903
185.233
865.762
491.96
866.626
492.412
48.019
76.5381
113.788
175.726
362.778
643.078
642.941
669.936
669.266
1043.51
609.532
1085.97
620.46
1040.89
607.172
1083.36
618.831
1108.48
1101.39
628.694
1093.5
623.894
627.426
1107.6
1099.9
628.016
1093.09
623.116
626.401
625.352
624.519
1110.82
1110.73
624.379
624.182
1109.05
1110.44
1110.2
623.562
1110.41
623.431
1102.87
619.59
1085.45
608.577
1104.18
619.705
1085.96
608.649
34.6883
12.554
19.6692
24.0938
31.1357
78.799
187.034
186.991
189.821
189.862
141.024
216.435
133.466
212.849
141.549
215.651
134.462
213.096
161.921
161.81
215.36
135.795
254.458
164.402
214.218
137.217
255.777
165.929
33.4345
53.7223
89.1049
139.083
237.98
598.959
599.124
629.102
629.068
643.246
643.159
723.062
721.912
1065.65
610.196
1083.15
611.99
1064.59
609.272
1082.57
611.52
1116.77
1096.37
628.922
617.721
1082.33
611.11
1115.47
1096.12
617.512
627.937
1082.59
611.12
622.029
1106.59
621.404
1105.67
9.87672
17.5535
21.1605
34.0904
227.825
227.818
176.077
176.168
199.989
199.901
228.472
228.525
138.815
211.57
129.765
210.683
138.845
210.355
130.214
209.988
242.617
165.738
237.926
148.894
242.518
165.658
237.075
148.601
237.563
149.511
239.397
151.246
32.2365
61.6471
105.333
174.521
342.649
599.412
599.391
641.455
641.088
692.576
692.105
584.964
1047.15
598.312
996.03
584.138
1043.61
596.761
994.578
1056.84
597.948
1041.28
590.467
1054.85
596.838
1039.6
589.656
8.22681
12.5443
17.6102
66.1016
274.023
273.871
214.503
214.296
244.943
167.171
209.737
294.535
184.346
309.33
244.3
167.028
209.726
294.635
184.362
309.496
256.55
256.464
140.838
220.257
137.002
229.844
140.512
219.234
137.068
228.437
245.866
154.549
244.909
154.261
31.4824
71.7655
126.209
230.895
574.725
574.861
583.978
584.017
584.053
584.535
668.743
668.313
965.544
568.15
1011.55
577.326
1016.11
583.889
965.718
567.19
1013.74
578.231
1015.79
584.011
1037.53
586.697
1036.54
586.406
1030.32
583.247
1028.39
582.373
4.83595
11.1517
22.2166
268.468
268.394
198.776
198.84
311.688
311.431
300.924
300.842
283.523
173.818
223.539
338.246
209.469
341.336
283.283
173.78
223.58
338.484
209.565
341.485
423.433
282.058
462.433
276.272
423.485
281.851
461.449
275.857
31.3574
83.6478
153.904
336.886
590.701
590.645
606.689
606.383
633.838
634.17
979.864
563.705
534.19
955.608
549.68
894.768
535.117
955.084
549.521
896.745
980.897
563.993
1004.73
1018.23
567.814
576.477
1007.54
1021.38
569.12
577.895
1019.67
576.208
1021.32
576.975
4.86218
11.384
63.1341
294.479
294.34
226.249
226.301
451.474
295.309
322.601
554.977
331.01
494.999
451.059
295.047
322.725
554.774
331.161
495.013
330.755
330.684
267.621
451.305
267.171
450.123
499.26
295.272
498.606
295.001
31.7666
96.7915
192.258
557.808
557.837
590.098
589.985
596.554
596.358
640.994
640.202
868.516
520.422
908.42
525.637
923.29
534.441
869.511
925.135
535.501
520.229
911.941
527.524
968.001
550.209
936.262
535.782
936.776
968.058
536.158
550.231
4.0386
37.4845
110.133
283.964
283.763
249.358
249.208
561.011
330.832
324.141
571.535
334.432
506.664
560.535
330.665
323.596
569.597
333.669
505.614
444.862
298.04
522.308
319.139
445.582
297.578
520.076
317.724
548.868
322.542
548.196
322.283
32.1371
110.49
241.488
547.914
547.764
590.916
590.273
653.572
652.328
902.009
523.592
531.934
923.191
533.323
888.359
904.717
524.548
529.909
920.533
531.996
885.001
904.142
913.838
518.362
524.581
917.858
526.361
908.698
520.348
22.4401
45.7422
202.328
235.957
235.682
202.331
224.304
224.551
279.485
415.599
277.122
279.035
416.625
277.435
577.848
337.657
331.865
586.086
337.594
566.961
576.165
336.888
330.485
580.932
336.263
562.79
471.595
284.733
471.95
284.722
32.1672
123.612
260.253
520.098
519.852
593.113
592.111
871.018
524.166
939.954
539.879
937.078
540.436
868.932
932.59
538.13
521.972
937.961
538.712
916.744
523.485
937.777
532.601
918.579
524.015
935.953
531.536
896.123
514.679
900.337
516.249
22.0572
48.3469
263.099
205.141
262.78
205.1
193.606
193.859
453.569
397.682
257.513
377.347
254.779
298.735
454.706
316.503
396.451
450.295
255.885
378.156
254.808
296.687
453.473
314.938
302.043
515.749
302.102
516.893
419.43
256.122
420.074
256.078
31.5878
130.866
365.463
512.568
512.067
365.443
435.754
435.567
599.733
884.89
518.828
599.648
884.725
518.451
945.261
932.207
535.523
528.808
943.2
534.418
932.102
528.931
916.358
521.854
932.369
527.733
917.03
521.828
930.89
526.858
10.1615
65.6734
266.27
298.358
452.345
197.381
266.094
296.706
448.271
197.49
167.151
167.57
430.663
469.449
425.927
257.956
262.216
288.141
429.091
424.01
465.155
256.215
260.507
285.706
257.975
426.163
258.342
428.473
30.0737
150.194
364.461
496.402
495.792
364.098
421.579
420.694
827.936
867.434
502.201
876.614
511.881
480.558
732.478
454.646
829.75
870.481
503.632
877.723
512.22
481.585
731.284
453.117
933.887
914.632
527.183
518.692
932.863
526.915
915.618
519.478
12.6374
128.17
145.464
145.808
127.984
130.044
129.705
345.89
290.163
445.114
278.084
449.281
271.703
392.266
267.011
196.793
333.171
246.732
349.527
287.843
440.415
275.276
444.873
269.736
395.083
266.319
196.627
338.622
245.398
442.289
451.701
269.989
277.982
440.748
447.314
268.217
275.711
28.5255
147.783
330.053
501.019
442.403
738.112
500.218
442.882
739.726
328.926
404.692
401.91
850.586
803.218
890.814
485.957
506.451
462.788
856.183
806.677
893.673
507.965
488.43
464.117
915.559
517.957
915.337
518.221
19.1692
149.539
107.159
149.519
106.547
87.7317
87.1557
439.697
447.273
265.973
268.103
392.187
245.851
252.972
332.406
221.016
331.104
235.75
203.533
254.792
237.27
435.573
443.743
265.817
263.57
392.696
244.684
335.967
263.786
220.487
338.137
234.543
201.148
255.478
234.837
25.2774
115.479
319.554
318.358
121.86
224.901
224.886
581.372
434.341
720.068
426.439
726.278
386.054
677.204
401.268
574.54
433.74
718.7
425.4
725.959
381.045
674.407
400.43
406.21
587.175
367.053
404.149
581.441
362.835
820.659
772.853
472.864
449.177
827.057
774.147
475.137
449.507
10.8679
141.095
207.877
244.62
87.1099
141.007
210.023
244.642
86.0333
65.1904
64.4849
433.363
258.592
382.217
237.166
323.58
263.947
370.222
229.985
200.406
178.021
431.076
256.61
381.657
236.068
326.022
370.905
268.042
229.624
200.294
179.274
22.4406
166.897
277.364
275.408
167.44
208.806
208.799
751.297
706.799
439.887
412.957
648.001
380.039
751.358
705.094
439.767
412.518
647.498
379.981
506.075
557.916
335.184
579.087
355.863
310.123
442.023
333.531
499.353
556.272
334.11
574.703
352.57
306.215
433.93
328.048
7.46188
47.5322
47.3427
128.585
201.905
214.838
197.889
226.742
72.3263
128.528
202.741
215.345
196.48
227.372
71.618
366.026
300.656
250.154
227.264
193.072
167.351
367.134
303.473
255.962
227.204
193.916
169.723
20.1322
139.569
281.336
285.608
397.954
278.587
285.363
394.624
140.89
193.794
194.486
679.111
402.911
625.266
366.4
678.431
403.064
625.901
366.953
525.327
444.049
600.587
306.317
349.511
265.654
523.295
436.283
602.252
350.222
305.154
262.314
6.404
38.6011
38.7959
38.1938
38.5574
115.953
185.004
199.378
191.283
194.575
227.661
158.132
61.6056
115.364
186.848
199.769
189.905
195.407
239.266
161.694
60.7308
288.724
189.195
291.954
190.312
18.3744
126.999
127.394
267.476
286.249
414.536
289.477
403.352
266.115
283.444
402.883
282.188
397.108
177.797
177.805
474.587
564.864
437.266
284.367
331.182
260.793
472.783
566.092
428.355
331.388
283.45
257.279
7.74922
44.2422
50.9513
44.1195
50.8923
61.5723
60.8181
105.114
177.897
179.579
177.583
181.836
151.766
212.84
151.473
214.928
273.622
184.678
104.24
179.178
178.412
176.34
182.268
152.516
221.718
154.286
216.086
277.437
185.86
20.9335
110.892
107.639
112.067
109.7
253.438
276.577
404.409
284.923
387.667
427.602
256.397
251.814
277.618
396.482
280.162
387.937
420.879
253.475
165.157
165.588
449.798
274.032
447.733
273.254
8.93823
70.5716
77.0194
70.6791
76.9112
69.266
76.327
68.6852
75.914
99.2084
97.7943
176.03
173.736
177.38
172.623
144.549
181.98
136.885
198.758
180.44
264.09
180.682
256.83
177.069
172.145
175.992
172.913
145.088
182.164
136.949
199.451
181.535
267.536
182.126
259.055
24.8833
119.657
142.002
121.345
142.866
159.078
160.707
243.581
268.578
381.123
268.106
381.467
256.827
421.941
255.116
419.534
434.517
269.135
242.423
268.59
371.997
262.447
380.775
255.114
415.677
252.415
415.883
432.493
268.335
3.46206
91.0009
77.27
90.9039
76.9421
101.955
115.223
101.758
114.937
98.8146
100.848
97.5086
99.9328
177.402
172.309
176.277
171.397
179.522
173.488
178.468
172.204
132.481
177.47
134.593
171.792
132.781
176.355
134.053
171.772
25.3531
164.478
178.259
164.841
179.019
170.717
191.962
171.974
192.318
235.153
235.36
260.104
374.028
267.131
353.533
256.929
401.778
245.5
422.361
271.563
423.316
266.966
422.301
261.486
365.79
261.92
355.141
255.334
396.318
243.6
418.576
270.957
421.268
266.12
420.33
27.502
1.9738
123.551
100.281
123.312
99.743
112.36
129.027
111.894
128.718
179.169
175.926
177.988
178.562
180.778
189.642
181.496
183.972
181.858
177.715
180.469
180.716
182.816
189.499
181.419
185.9
132.147
171.814
131.261
171.551
133.547
174.617
133.492
173.244
26.1009
192.764
142.411
193.562
146.414
210.951
228.358
210.75
228.8
244.516
265.52
244.318
264.176
258.296
353.161
260.442
347.801
260.307
352.418
259.851
350.637
242.73
391.166
242.353
385.494
241.879
385.928
240.713
382.856
9.4679
110.828
87.2863
110.614
87.6372
2.87122
146.491
135.76
146.203
135.062
183.552
199.944
182.79
199.422
189.459
219
189.538
211.777
184.963
199.639
182.464
200.813
191.234
217.59
188.244
213.76
135.85
180.605
134.014
184.806
142.227
210.45
152.499
195.485
139.577
184.744
137.41
189.278
145.43
210.785
153.003
199.299
27.9861
150.216
240.696
260.361
241.01
260.484
284.742
298.715
282.313
297.472
266.677
359.796
263.597
367.409
269.783
411.874
278.931
384.624
267.944
358.297
262.488
369.008
271.258
405.013
274.392
386.147
239.294
369.738
230.556
381.392
238.982
369.775
230.179
380.917
9.87437
66.8025
58.4392
67.1621
58.8742
167.752
146.402
167.479
146.551
2.70265
193.719
239.727
192.878
242.181
192.494
258.791
213.199
240.459
194.037
237.046
190.871
242.116
193.355
256.449
211.516
241.093
158.584
227.573
159.16
231.123
161.508
261.764
172.347
241.419
160.668
227.648
159.62
233.654
164.457
259.233
171.118
245.496
29.6788
145.9
340.167
355.943
338.355
354.676
315.713
313.538
313.771
311.474
291.727
432.53
287.472
438.24
297.624
457.853
304.057
445.278
288.465
421.75
280.639
432.881
296.916
451.098
300.407
442.526
244.859
370.348
231.683
390.608
263.443
441.218
266.481
427.47
244.568
370.442
231.192
390.791
262.965
438.541
265.151
427.033
33.673
9.75261
115.841
79.019
116.214
79.3425
261.758
310.83
189.698
258.406
196.66
222.184
266.68
214.69
252.416
196.237
258.656
304.357
186.335
254.794
192.322
218.928
261.317
209.07
248.74
191.662
9.77548
188.612
290.194
185.158
296.945
193.369
299.429
187.567
284.413
181.957
294.72
193.394
299.192
158.01
260.915
165.666
242.572
160.165
256.117
162.921
246.231
33.3991
126.264
392.358
393.798
391.947
393.816
436.366
439.682
432.508
436.799
309.666
468.775
309.675
467.134
312.312
475.372
338.648
468.027
306.904
459.702
303.848
462.519
311.38
463.72
330.877
464.258
286.814
454.616
272.843
475.15
289.83
482.345
285.133
486.083
284.776
449.965
270.933
468.858
287.7
473.95
282.339
479.985
33.9326
108.503
93.2855
108.538
93.3938
31.3714
169.877
137.849
169.331
137.403
309.37
302.186
195.742
193.67
310.405
198.967
324.07
226.468
314.538
202.794
302.131
298.47
191.24
190.162
305.168
194.559
313.366
220.318
308.435
197.927
13.1025
179.792
286.043
176.859
292.334
186.59
305.262
176.876
277.554
172.001
287.581
185.312
303.382
37.0873
127.94
278.748
454.557
478.194
453.722
478.057
621.466
560.37
365.084
643.116
384.544
336.451
630.779
406.394
652.495
396.491
547.772
614.081
360.31
636.203
379.146
330.129
626.974
402.204
646.702
391.453
292.792
484.253
284.304
500.027
301.613
516.342
290.788
478.076
281.912
495.285
298.057
507.1
305.236
500.062
304.963
494.374
304.968
494.853
304.087
489.864
75.9493
85.5907
121.579
85.7787
121.272
162.855
134.936
162.944
135.385
37.8987
195.325
269.072
192.814
258.606
195.338
253.158
215.634
242.866
193.624
264.183
188.946
256.642
195.51
252.297
213.58
242.8
310.733
192.094
330.508
213.038
329.294
205.768
303.236
187.119
317.757
205.907
323.25
201.051
6.81702
39.9102
122.598
268.768
552.004
573.376
551.451
573.179
528.834
538.764
528.903
538.375
588.678
642.676
371.411
339.651
672.326
387.259
710.697
417.519
691.31
399.188
584.297
639.94
337.437
370.248
670.128
386.34
712.345
418.548
692.095
399.366
308.402
489.172
296.38
517.437
320.693
545.841
307.53
485.233
295.29
514.968
319.524
542.675
148.017
91.6634
111.468
129.677
111.744
129.344
253.351
298.157
186.411
240.597
193.301
218.687
238.624
216.12
228.575
195.424
251.537
294.041
183.564
239.607
190.515
216.059
237.096
212.314
228.988
193.132
19.6531
198.799
298.579
196.803
306.974
200.474
306.636
197.097
293.649
193.312
304.655
199.702
305.738
3.07674
41.8034
114.388
221.588
616.145
651.336
616.017
651.383
641.486
642.486
641.123
641.78
458.363
744.845
437.913
772.841
477.911
808.501
492.227
807.651
459.209
749.145
439.377
775.324
478.899
807.475
490.911
810.064
611.422
356.019
738.125
424.788
717.489
414.006
609.151
355.213
742.159
426.507
719.709
414.985
195.968
252.088
396.412
251.872
396.462
48.137
151.385
146.13
151.267
145.924
301.344
287.304
199.675
190.141
289.249
188.957
267.327
206.224
284.314
188.773
297.01