/*--------------------------------*- C++ -*----------------------------------*\
| =========                 |                                                 |
| \\      /  F ield         | OpenFOAM: The Open Source CFD Toolbox           |
|  \\    /   O peration     | Version:  5.x                                   |
|   \\  /    A nd           | Web:      www.OpenFOAM.org                      |
|    \\/     M anipulation  |                                                 |
\*---------------------------------------------------------------------------*/
FoamFile
{
    version     2.0;
    format      ascii;
    class       volScalarField;
    location    "2.7";
    object      p;
}
// * * * * * * * * * * * * * * * * * * * * * * * * * * * * * * * * * * * * * //

dimensions      [1 -1 -2 0 0 0 0];

internalField   nonuniform List<scalar> 
12160
(
5266.21
5355.22
4611.9
5375.73
4700.75
3957.31
5449.44
4721.46
4045.78
3302.4
5486.5
4795.15
4066.88
3390.28
2647.29
5540.17
4832.5
4140.45
3412.02
2734.18
1991.84
5588.32
4886.47
4178.34
3485.45
2756.86
2077.4
1336.53
5633.11
4934.92
4232.84
3524.12
2829.93
2101.41
1419.8
680.533
5672.41
4980.03
4281.98
3579.49
2869.79
2174.03
1445.72
763.007
185.729
5704.99
5019.62
4327.79
3629.62
2926.18
2215.36
1516.66
791.146
230.779
6.56047
5730.16
5052.45
4368.01
3676.46
2977.71
2273.06
1561.05
859.153
250.115
11.7678
-6.38418
5747.43
5077.84
4401.36
3717.62
3025.99
2326.36
1619.66
908.147
291.712
15.2518
-6.5431
-7.45238
5756.31
5095.33
4427.19
3751.75
3068.44
2376.57
1675.09
967.524
328.696
24.8986
-6.52738
-7.49934
-8.13136
5756.29
5104.39
4445.03
3778.23
3103.58
2420.7
1727.66
1025.5
373.465
35.6223
-6.5869
-7.47963
-8.16716
-8.80232
5746.85
5104.55
4454.49
3796.77
3130.78
2457.12
1773.79
1081
421.102
50.899
-6.41516
-7.47978
-8.15032
-8.81506
-9.47098
5727.58
5095.23
4455.04
3806.72
3150.05
2485.36
1811.7
1129.47
469.645
69.7192
-5.69726
-7.51407
-8.12027
-8.80426
-9.48773
5698.99
5075.96
4446.02
3807.83
3160.89
2505.69
1840.97
1168.93
514.245
91.6485
-4.30442
-7.56332
-8.15226
-8.80726
-9.48806
5662.05
5047.15
4426.78
3799.27
3162.83
2517.2
1862.88
1198.89
551.157
114.12
-2.35816
-7.54074
-8.20319
-8.82403
-9.47492
5619.37
5009.68
4397.59
3780.11
3154.97
2520.22
1875.24
1219.25
579.296
134.137
0.0891543
-7.53047
-8.21229
-8.84796
-9.47943
5573.14
4966.35
4359.02
3750.45
3136.07
2513.36
1879.66
1235.41
599.505
150.115
2.66789
-7.52568
-8.22328
-8.84254
-9.48622
5526.35
4919.3
4314.36
3710.04
3106.11
2494.83
1874.22
1241.68
615.935
162.449
4.98817
-7.51835
-8.22411
-8.8374
-9.48958
5481.97
4871.62
4265.65
3663.45
3062.91
2463.9
1856.49
1238.07
624.199
171.878
6.91095
-7.50046
-8.22166
-8.83848
-9.49764
5442.58
4826.39
4216.17
3612.2
3013.89
2418.73
1824.62
1221.83
623.166
178.737
8.70187
-7.45435
-8.22942
-8.84292
-9.50008
5410.17
4786.27
4169.21
3559.93
2959.1
2365.92
1777.28
1189.42
610.188
180.693
10.1515
-7.36316
-8.25205
-8.84262
-9.49876
5385.87
4753.33
4127.64
3510.31
2902.96
2306.42
1719.8
1139.53
581.142
175.461
10.7106
-7.24142
-8.25361
-8.84069
-9.50203
5370.11
4728.74
4093.63
3466.46
2849.64
2245.16
1654.32
1077.01
536.205
159.863
9.95261
-7.15854
-8.26456
-8.86847
-9.50562
5362.67
4712.91
4068.43
3430.77
2802.63
2186.99
1586.48
1005.28
479.09
134.72
7.50511
-7.14754
-8.27836
-8.88449
-9.50321
5362.82
4705.62
4052.49
3404.67
2764.65
2135.83
1522.2
931.467
414.377
104.323
3.70016
-7.20064
-8.29213
-8.89786
-9.50611
5369.45
4706.08
4045.52
3388.56
2737.29
2094.8
1465.83
862.698
350.506
74.1405
-0.223162
-7.31359
-8.2961
-8.90725
-9.51104
5381.27
4713.13
4046.62
3382.1
2721.01
2065.8
1421.04
803.298
296.214
48.3001
-2.95362
-7.40147
-8.28272
-8.90936
-9.51542
5396.99
4725.43
4054.52
3384.22
2715.33
2049.3
1390.23
756.818
253.406
30.5678
-4.48224
-7.41869
-8.24829
-8.89827
-9.51696
5415.33
4741.63
4067.78
3393.46
2718.89
2044.71
1373.55
725.087
222.914
19.5725
-5.30684
-7.399
-8.19508
-8.87191
-9.51413
5435.12
4760.44
4084.99
3408.2
2729.99
2050.31
1370.44
709.175
203.956
13.289
-5.74809
-7.37419
-8.14326
-8.84518
-9.50638
5455.29
4780.69
4104.82
3426.88
2746.76
2063.99
1378.54
707.803
195.165
9.94878
-5.96714
-7.34893
-8.10174
-8.81851
-9.49434
5474.84
4801.32
4126.08
3448.13
2767.51
2083.42
1395.5
717.845
195.616
8.41517
-6.07704
-7.33355
-8.07287
-8.79459
-9.48181
5493.1
4821.37
4147.66
3470.79
2790.84
2106.61
1418.38
736.853
202.733
8.30687
-6.1426
-7.33008
-8.06022
-8.77477
-9.47237
5509.34
4840
4168.51
3493.73
2815.56
2132.26
1444.76
761.464
215.498
9.12239
-6.18215
-7.33717
-8.05694
-8.76395
-9.46699
5522.96
4856.54
4187.9
3516.03
2840.52
2159.37
1473.39
789.119
231.654
10.7995
-6.20214
-7.35507
-8.06098
-8.76115
-9.46456
5533.68
4870.43
4205.09
3536.65
2864.43
2186.66
1503.62
819.201
249.806
13.1993
-6.21374
-7.37792
-8.07178
-8.76354
-9.4633
5541.23
4881.35
4219.5
3554.85
2886.6
2213.24
1534.08
851.701
270.745
16.3945
-6.20734
-7.40673
-8.08591
-8.76882
-9.46363
4889.04
5548.48
4230.82
3570.07
2906.15
2237.57
1563.04
884.163
295.321
21.1135
-6.14825
-7.43377
-8.1023
-8.77529
-9.46593
4238.77
4896.43
5541.47
3581.98
2922.44
2258.88
1589.92
916.884
322.814
28.6166
-5.98672
-7.45507
-8.11434
-8.78322
-9.46947
3590.33
4246.41
4889.37
5521.39
2935.14
2276.53
1613.41
946.863
351.002
39.6069
-5.60926
-7.47868
-8.12035
-8.79277
-9.47204
2944.01
3598.36
4239.18
4869.06
5492.88
2290.22
1632.75
972.803
376.946
52.2024
-4.89912
-7.51097
-8.12607
-8.80206
-9.47268
2299.73
2952.45
3590.94
4218.45
4839.88
5458.78
1647.64
993.948
398.878
63.5492
-3.86065
-7.52245
-8.1416
-8.81859
-9.47233
1657.91
2308.71
2944.73
3569.5
4188.35
4805.58
5425.11
1010.04
416.476
72.8074
-2.75932
-7.53426
-8.18081
-8.83509
-9.46937
1020.98
1667.45
2300.59
2922.38
3537.78
4153.52
4770.6
5390.85
429.684
80.1936
-1.7952
-7.53329
-8.21621
-8.84606
-9.46916
438.579
1030.73
1658.83
2276.98
2889.45
3501.74
4116.19
4734.98
5358.9
85.729
-1.06125
-7.51796
-8.23982
-8.85845
-9.47546
89.5271
446.482
1021.85
1633.9
2241.77
2851.09
3461.91
4077.62
4698.45
5366.7
-0.55783
-7.4963
-8.24706
-8.86843
-9.4846
-0.200829
93.1291
440.462
996.3
1596.25
2201.08
2809.45
3419.13
4031.39
4693.47
5240.54
-7.47008
-8.24139
-8.8703
-9.48982
-7.43392
0.316983
92.132
422.498
956.983
1552.38
2157.5
2762.48
3363.7
4007.01
4612.03
5591.05
-8.22778
-8.86625
-9.49274
-8.20729
-7.34572
1.1174
87.6194
393.42
910.873
1507.81
2109.17
2693.09
3304.38
3936.24
4862.29
4639.61
5603.79
-8.85689
-9.49194
-8.84299
-8.16047
-7.15114
2.10062
77.2392
357.011
867.916
1461.58
2035.23
2589.92
3238.71
4041.51
4190.53
4029.12
4849.39
5424.39
-9.48836
-9.48322
-8.8147
-8.14342
-6.73612
1.05651
62.6452
325.379
835.076
1396.21
1910.52
2506.15
3234.99
3619.51
3815.88
3511.79
4090.23
4844.95
5318.95
-9.47569
-8.83363
-8.10867
-6.63513
-1.07382
51.4209
305.887
793.941
1282.38
1818.16
2436.81
3029.21
3450.62
3449.97
3074.13
3433.12
4040.37
4811.23
5423.11
-9.49127
-8.98454
-8.09856
-6.84465
-2.66223
46.2316
305.594
684.052
1190.4
1713.06
2427.73
3010.93
3222.28
3097.56
2723.41
2864.18
3275.75
3990.69
4936.09
5961.68
-9.65408
-9.06426
-8.01211
-7.10896
-3.43938
51.4295
225.598
613.718
1149.33
1843.53
2537.15
2898.99
2956.63
2819.06
2554.27
2447.32
2563.77
3129.34
4115.2
5449.52
6917.83
-9.77897
-8.84909
-7.98814
-7.20655
-2.9074
36.9827
171.51
629.645
1332.42
2059.19
2523.69
2717.4
2741.45
2661.39
1886
2277.11
1889.19
1989.37
1991.9
2090.71
2310.35
3159.42
4578.22
6375.55
8205.54
-9.5941
-8.73401
-7.98147
-7.29827
-2.65859
11.4127
229.789
866.943
1591.47
2121.95
2423.4
2536.86
2600.38
2623.21
1792.95
1905.23
1903.02
1796.08
1652.34
1655.05
1907.24
1947.91
1949.2
1756.8
2196.3
3510.5
5511.11
7679.85
9659.27
-9.47576
-8.70404
-8.04528
-7.37247
-5.36548
8.32313
405.695
1109.65
1697.69
2092.57
2284.04
2400.92
2522.88
2024.77
2023.72
2011.63
2012.93
1821.61
1971.79
1508.79
1943.15
1823.93
1700.34
1702.89
1965.44
2018.49
2012.76
1511.77
2361.1
4327.33
6814.76
9093.65
10915.5
-9.44219
-8.72364
-8.1196
-7.2065
-6.19426
58.4161
581.398
1240.56
1715.93
1997.48
2147.64
2312.85
1951
1952.09
1874.91
1876.05
2039.07
2036.52
2049.8
2045.59
1900.73
1803.97
1681.38
1785.9
1701.2
1189.12
1638.95
1642.57
1643.92
1716.52
1715.14
1893.9
1808.02
1803.42
1801.14
1682.25
1783.77
1697.53
1828.74
1681.28
1882.13
1718.05
1825.75
1682.57
1879.38
1714.67
1483.58
2967.23
5579
8263.39
10351
11885
-9.44342
-8.7492
-7.98475
-7.20889
-6.35787
134.063
728.898
1293.33
1651.63
1854.77
2048.21
1786.9
1787.5
1690.12
1690.98
1991.1
1984.79
1911.74
1903.9
1757.01
1733.16
1826.25
1728.95
1832.43
1829.26
1732.03
1760.93
1827.21
1730.24
1832.37
1829.01
1724.98
1834.9
1734.66
1847.26
1726.79
1834.91
1735.75
1847.13
1750.36
1673.92
1775.61
1655.48
1813.83
1776.69
1796.54
1788.45
1036.69
1382.83
1480.15
1481.32
1556.47
1557.66
1853.7
1850.11
1881.95
1879.24
1746.98
1673.72
1773.12
1650.41
1724.07
1525.31
1721.86
1621.93
1721.66
1528.17
1719.76
1619.58
1814.19
1780.96
1797.6
1791.67
1820.87
1789.21
1820.72
1790.14
1831.83
4057.24
7194.34
9694.86
11377.5
12728.7
-9.43969
-8.69768
-7.95567
-7.20401
-5.50251
216.382
775.075
1227.78
1508.91
1746.64
1574.88
1575.28
1458.42
1459.54
1821.96
1814.35
1719.12
1711.89
1690.31
1793.4
1644.73
1745.94
1692.81
1793.6
1650.01
1746.39
1583.93
1686.34
1615.58
1716.43
1587.45
1686
1619.37
1716.48
1803.13
1748.84
1809.52
1832.01
1788.64
1826.81
1805.71
1752.15
1833.13
1810.3
1790.03
1827.27
1785.84
1814.87
1823.38
1856.64
1788.78
1815.85
1824.6
1857.18
1777.31
1769.41
1786.38
1760.56
1848.67
1806.36
1822.49
1825.93
1267.91
1288.97
1367.75
1367.91
1406.98
1407.08
1765.02
1757.86
1809.15
1804.06
1670.87
1772.77
1671.6
1775.02
1673.4
1773.19
1672.84
1775.06
1696.17
1650.46
1782.04
1675.74
1783.88
1770.51
1701.85
1650.52
1783.61
1678.63
1784.55
1770.35
1777.77
1773.74
1787.48
1763.94
1764.91
1734.22
1764.75
1734.93
1848.29
1807.14
1823
1824.69
1840.86
1812.65
1841.38
1814.5
2702.13
5647.82
8837.35
10776.7
12337.7
13525.3
-9.44906
-8.64852
-7.93647
-7.16041
2.3432
237.122
690.289
1098.06
1371.7
1328.31
1329.12
1195.19
1195.14
1592.13
1588.38
1456.7
1456.42
1545
1647.5
1501.49
1608.76
1545.27
1646.1
1505.13
1608.11
1382.33
1556.41
1458.22
1568.55
1384.52
1555
1461.36
1567.96
1754.11
1785.49
1713.26
1745.41
1757.02
1786.43
1715.99
1746.44
1668.71
1688.64
1698.65
1720.36
1673.74
1690.41
1700.52
1721.54
1818.88
1806.13
1821.35
1801.27
2028.3
1534.47
1394.89
1395.04
1340.85
1340.31
1702.16
1694.39
1712.16
1704.49
1641.86
1742.42
1656.9
1755.75
1649.21
1743.7
1663.76
1757.18
1657.82
1749.16
1656.56
1756.85
1661.67
1750.18
1664.38
1758.5
1782.24
1818.06
1774.23
1809.72
1788.05
1820.02
1777.59
1810.97
1744.64
1761.18
1816.91
1791.34
1779.82
1818.61
1748.21
1766.97
1818.87
1792.58
1782.33
1819.71
1819.5
1808.72
1822.37
1802.84
1820.71
1793.4
1821.04
1794.94
4109.07
7431.65
10143.2
11706.5
13269
14340.5
-9.4743
-8.58778
-7.90039
-7.11924
2.24646
198.397
569.277
958.388
1215.28
1307.99
1308.12
1133.69
1133.73
1615.65
1613.79
1495.89
1492.69
1619.09
1640.32
1573.83
1596.01
1621.94
1641.6
1575.59
1596.75
1439.31
1523.59
1528.96
1556.53
1439.83
1523.51
1529.29
1556.68
1669.58
1700.91
1676.29
1702.96
3353.12
2215.36
1720.23
1721.13
1491.55
1492.12
1769.79
1767.13
1715.19
1709.22
1584.41
1789.35
1635.81
1740.53
1588.68
1789.03
1640.09
1740.86
1624.22
1716
1623.19
1724.43
1628.61
1716.69
1629.95
1725.36
1849.07
1872.03
1842.89
1865.18
1856.27
1874.71
1847.23
1867.44
1786.47
1817.33
1810.12
1835.92
1791.99
1819.33
1815.23
1838.08
5905.42
9132.96
11325.3
12721.3
14168.1
15184.3
-9.52211
-8.45812
-8.19688
-6.94772
9.85479
129.301
447.906
787.358
967.38
967.871
780.078
781.399
1351.7
1346.48
1151.41
1152.02
1472.44
1439.4
1506.49
1386.63
1471.87
1438.95
1506.56
1385.49
1417.58
1253.84
1343.48
1330.65
1416.76
1256.84
1343.07
1329.67
1634.9
1658.27
1604.73
1626.11
1639.27
1659.94
1607.32
1627.05
1515.7
1534.23
1569.46
1592.22
1519.17
1535.44
1570.75
1592.91
5165.63
3399.25
2944.87
2062.08
2060.59
1877.53
1875.33
2175.07
2170.89
2097.66
2094.66
1792.23
1938.71
1846.39
1881.24
1796.36
1939.96
1850.26
1882.8
1837.15
1853.23
1843.87
1859.51
1841.6
1855.27
1848.78
1861.51
1919.93
1950.47
1929.21
1953.73
7794.77
10620.5
12458.4
13888.7
15026.5
15819
-9.74991
-8.76934
-8.365
-6.72114
25.7785
95.5683
372.682
593.403
977.106
974.705
734.613
733.021
1184.88
1273.03
1229.89
1091.7
1185.29
1271.65
1227.34
1089.08
1202.45
1197.43
1495.97
1514.88
1533.58
1481.13
1495.81
1517.18
1534.08
1480.06
1433.26
1336.59
1355.59
1416.12
1433.5
1337.31
1355.98
1416.92
1538.52
1558.46
1544.95
1560.41
7172.48
5092.33
4074.23
3227.46
3227.56
2801.16
2798.48
2499.43
2496.51
2328.26
2317.98
2200.84
2136.95
2244.72
2100.74
2201.31
2146.17
2246.71
2102.49
2176.29
2045.04
2129.61
2076.96
2176.67
2045.51
2130.56
2077.16
2034.31
2088.49
2001.47
2036.43
2039.29
2090.2
2005.82
2038.45
1939.71
1964.36
1974.73
1999.54
1946.87
1967.17
1980.68
2001.77
9551.05
12038.8
13585.6
14806.4
15669.3
-9.98266
-10.509
-7.88339
-3.28601
19.7042
125.799
301.363
520.57
519.916
387.308
387.183
877.169
943.645
742.423
843.294
876.72
942.25
744.721
842.863
719.919
718.773
1261.84
1283.39
1216.75
1146.96
1262.92
1284.41
1216.34
1147.35
989.462
1058.78
1104.74
1159.83
994.491
1061.22
1106.97
1161.77
1455.73
1371.56
1398.43
1420.55
1456.92
1376.47
1400.03
1425.02
9057.67
7061.19
5632.55
5244.8
3588.46
3579.05
3261.41
3250.86
2996.7
2990.96
2196.15
2308.44
2480.76
2230.69
2199.65
2309.03
2478.42
2227.73
2389.21
2407.51
2436.08
2356.03
2390.28
2412.32
2437.99
2358.76
2334.84
2220.4
2273.25
2291.54
2335.39
2224.39
2274.54
2292.39
2148.4
2211.25
2155.28
2213.16
11222
13284.9
14591.9
15470.2
-12.0204
-12.3815
-6.73178
-2.22985
15.5902
68.501
237.71
237.829
177.852
178.149
446.409
445.674
359.717
356.968
919.06
937.963
761.823
812.94
919.219
937.629
762.178
813.051
672.865
503.886
571.321
634.318
673.179
506.434
571.231
635.36
1316.6
1339.47
1253.01
1233.2
1318.79
1340.64
1253.19
1233.76
1061.6
1079.76
1175.87
1191.86
1063.55
1079.35
1177.03
1192.56
10754.8
8948.28
7459.81
6724.88
4921.11
4921.49
4442.65
4439.41
4025.09
4025.67
3012.86
3123.99
3035.72
3340.21
3019.68
3127.32
3048.68
3343.49
2922.3
3024.33
2832.16
2918.65
2461.26
2662.63
2937.77
3028.8
2841
2921.96
2465.97
2663.61
2470.3
2519.58
2474.02
2521.42
2526.6
2546.04
2592.1
2463.27
2527.76
2554.63
2594.73
2467.37
12759.1
14340.7
15271.7
-12.5758
-10.0189
-7.20831
-4.83385
9.56328
27.6545
210.744
210.27
120.619
120.836
356.449
510.027
384.955
290.544
317.551
551.079
511.022
357.455
551.353
385.195
291.451
317.467
255.166
272.423
256.468
275.56
254.376
271.609
256.43
275.097
930.954
950.457
788.228
807.688
933.121
951.203
789.918
808.358
654.175
632.177
654.52
633.02
1288.75
1267.74
1289.06
1268.31
1053.92
1079.99
1057.47
1080.39
12251.7
10648.2
9218.24
8320.64
6132.72
6139.68
5455.3
5453.13
5463.22
5456.72
4986.98
4986.49
3874.09
3771.4
4151.07
3726.78
3540.73
3266.07
3878.39
3793.84
4156.87
3736.33
3543.27
3273.36
3252.65
3322.77
3261.44
3326.18
3177.8
3216.48
3049.29
2761.86
3086.33
2817.61
3191.43
3221.12
3056.05
2772.17
3089.35
2820.98
2680.28
2718.99
2688.37
2722.07
13949.9
15108.3
-10.5779
-8.9665
-7.52284
-5.854
-3.03099
22.6312
22.9065
4.19252
4.21
210.171
209.753
96.7148
97.8936
462.824
316.43
329.289
489.798
283.041
289.137
464.658
316.555
490.437
329.075
282.594
288.767
241.608
250.91
259.016
270.595
240.325
250.048
257.753
269.676
762.203
789.011
764.347
789.675
13495.1
12048.7
10827.2
9867.23
9356.68
6456.28
6451.2
5952.08
5937.16
4863.17
5374.13
4755.14
5003.19
4888.61
5379.4
4769.64
5008.69
4342.37
3980.13
4532.49
4534.77
4750.65
4273.7
4352.76
3988.26
4536.77
4557.39
4757.81
4276.5
4009.98
3695.86
3935.28
3643.48
4011.21
3698.57
3937.59
3650.29
3477.66
3513.91
3485.78
3516.99
3323.71
3372.28
2923.81
2963.64
3337.8
3376.54
2932.61
2966.96
14831.9
-10.1531
-8.66287
-7.71163
-6.60565
-3.41048
12.6773
12.7997
0.016813
0.010999
132.606
178.723
190.429
122.052
132.494
180.072
190.042
123.929
62.3823
63.3358
227.378
236.051
248.49
258.611
228.024
234.835
248.235
258.112
14438.2
13185.4
12174.1
11303
10665.6
7938.09
7951.88
7299.77
7297.33
6783.58
6782.1
6354.2
6345.12
5052.58
5406.39
5026.35
5114.28
5065.52
5409.95
5031.86
5116.75
4219.73
4606.34
4344.37
4694.76
4826.14
4891.8
4229.37
4611.42
4696.98
4347.63
4831.72
4894.37
3837.9
3803.74
3840.25
3810.39
-9.69377
-8.53408
-7.61229
-6.46207
-3.12934
-3.12805
-4.17573
-4.18221
7.75122
7.79581
-0.71802
-0.716974
115.08
170.687
177.219
112.773
115.47
173.182
177.093
114.928
23.2111
22.8335
55.428
56.5351
23.5841
22.8774
56.2629
56.8885
213.825
220.812
215.28
220.567
14137.4
13199.4
12544.1
11938.1
11475.2
8094.48
8092.67
7693.02
7676.77
7214.82
7202.03
6190.2
5503.41
5778.7
5618.66
6187.15
5499.52
5778.28
5613.06
5347.7
5464.01
5143.01
5253.97
5356.02
5466.26
5147.83
5256.41
-9.53232
-8.55622
-7.63581
-6.54001
-3.21122
-3.20743
-4.12927
-4.1304
17.4788
17.1053
3.30599
6.47823
7.6599
2.92706
17.7777
17.1977
3.30023
6.5116
7.69722
2.91946
-1.27903
-1.28552
113.684
155.453
163.161
108.907
114.043
156.755
163.549
110.089
42.2254
41.95
42.8123
42.1547
14083.1
13501.5
13053.5
12623.2
9467.08
9479.52
8783.77
8780.9
8174
8188.4
7951.91
7935.19
6167.12
6794.94
6122.65
6410.87
5765.62
6172.12
6206.07
6801.72
6144.24
6418.59
5762.03
6171.38
5743.56
5854.85
5747.46
5856.01
5558.55
5629.55
5565.36
5630.82
-9.49158
-8.52144
-7.5957
-4.84842
-4.85074
-5.3833
-5.39045
-3.42438
-3.41324
-4.23363
-4.23394
11.868
12.5072
1.23124
4.28424
4.93544
1.19138
12.0184
12.5731
1.22682
4.29085
4.93793
1.18285
-2.06255
-2.29898
-1.27363
-1.3793
-2.05988
-2.29265
-1.26658
-1.37143
14306.9
13984.4
13671.9
13355.6
9563.71
9560.54
9095.97
9071.83
8598.28
8589.29
6347.54
6777.67
7530.09
6715.36
7096.83
6876.66
7525
6716.29
7096.57
6870.59
6364.44
6782.61
6336.79
6006.61
6469.37
6139.26
6351.54
6024.66
6475.37
6145
5858.51
5955.14
5871.14
5958.47
-9.44561
-8.47362
-7.81866
-5.07553
-5.06943
-5.45154
-5.45562
-2.1633
-2.41832
-3.52102
-2.91489
-3.04617
-3.19936
-2.16051
-2.41285
-3.51625
-2.91012
-3.04758
-3.19864
-4.48927
-4.48204
-0.0178666
0.0540981
-0.0368249
0.0469613
-1.43845
-1.4768
-1.44169
-1.48529
14770.7
14602.1
14352.9
10829.5
10837
10230.4
10227.1
9733.1
9732.02
9275.95
9265.15
7352.19
8070.82
7258.73
7667
6924.72
7421.88
7396.51
6930.57
7423.69
8082.28
7280.35
7674.74
6635.55
6809.1
6856.53
7091.28
6859.99
6647.59
7092.24
6812.24
-9.44103
-8.64587
-8.02331
-5.29731
-5.29255
-5.62366
-5.62813
-2.41299
-2.55607
-3.72414
-3.22945
-3.2868
-3.54171
-2.41677
-2.5596
-3.72938
-3.24776
-3.3004
-3.548
-4.10803
-4.47306
-4.06821
-4.25989
-4.10875
-4.47138
-4.06335
-4.25101
-1.92249
-2.07714
-1.93093
-2.07877
15389.4
15283.3
15050.4
10982.6
10981.9
10526.8
10507
9973.02
9967.09
7502.5
7992.14
8711.26
7871.59
8283.17
7994.7
7534.91
8003.9
8711.91
7875.76
8286.52
7995.94
7465.67
7170.45
7671.17
7403.95
7190.17
7409.49
7482.72
7678.27
-9.43787
-8.87819
-5.96513
-5.69004
-5.6829
-5.9638
-6.35439
-6.36181
-5.44357
-4.25348
-4.47975
-5.44265
-4.25723
-4.48027
-2.73377
-2.9024
-4.03446
-3.66597
-3.74565
-3.91548
-2.74462
-2.91047
-4.02054
-3.66416
-3.73796
-3.90714
-4.2204
-4.34948
-4.22343
-4.34863
16068.9
15932.1
15632.8
11184.1
11188.5
10682.7
10677.4
8462.62
9224.21
8411.5
8836.62
8127.03
8576.43
8516.91
8131.05
8579.65
9241.45
8437.23
8847.39
7757.61
7941.74
8089.12
8232.52
7787.41
7951.85
8106.9
8239.28
7597.53
7757.96
7622.94
7766.98
-9.62805
-8.85868
-5.73722
-5.99201
-5.73518
-5.98408
-6.35846
-6.3587
-4.48599
-4.46092
-4.62315
-4.37967
-4.56296
-4.86993
-4.59704
-5.02305
-4.47553
-4.49711
-4.62906
-4.38841
-4.5663
-4.87474
-4.61142
-5.0264
-4.20586
-4.06748
-4.19463
-4.06354
-4.40375
-4.52446
-4.41557
-4.53381
16706.7
16479.3
12379.7
11272.9
11257.3
12392.1
11796.3
11797.3
10748
8655.84
9173.01
10751.8
8686.8
9184.45
8346.44
8665.18
8476.35
8828.89
8365.35
8483.08
8675.28
8834.04
7900.74
8022.08
8194.03
8297.49
7929.93
8031.27
8219.04
8305.02
-9.58379
-8.81706
-5.79771
-4.93199
-4.6618
-6.00443
-5.78911
-4.93494
-4.66898
-5.9902
-6.29817
-6.29547
-4.42278
-4.55742
-4.44421
-4.60193
-4.60302
-4.81494
-4.44352
-4.4639
-4.56628
-4.61236
-4.61127
-4.81895
-4.39844
-4.26524
-4.40564
-4.27247
17244.2
16911.6
12445.8
11268.1
11268.2
12445.5
11997.3
11983.9
9000.41
8707.39
9154.62
8684.54
9164.4
9498.03
9035.15
9830.37
9027.29
8741.22
9167.66
8716.87
9176.46
9508.15
9076.68
9841.29
8499.55
8740.77
8565.77
8881.25
8502.08
8567.75
8753.94
8886.73
-9.48137
-6.43868
-6.19763
-6.18413
-6.43707
-6.87312
-6.88772
-4.90277
-4.93756
-4.68916
-4.92307
-4.68599
-5.35167
-4.64184
-5.05888
-5.91438
-4.81943
-5.12599
-4.90915
-4.93999
-4.69841
-4.92742
-4.69171
-5.35162
-4.66431
-5.06618
-5.89836
-4.83527
-5.13236
-4.48722
-4.58545
-4.71971
-4.83578
-4.50473
-4.59016
-4.72652
-4.8385
17684.3
17195.8
12519.5
11349.8
9789.4
9238.39
11354.6
9797.03
9257.77
12519.3
12000.6
11981.2
8929.65
9236.69
8765.12
9134.98
8944.93
9482.12
8964.46
9256.72
8792.44
8953.87
9147.03
9489.63
8608.22
8690.24
8614.44
8692.72
-9.45711
-6.26606
-6.39165
-6.24817
-6.38823
-6.82219
-6.83586
-4.564
-4.67915
-4.87258
-4.83002
-4.62613
-4.89949
-4.80036
-4.72938
-4.98093
-4.76443
-5.04172
-5.13685
-5.11068
-5.5103
-4.58011
-4.69901
-4.83579
-4.88057
-4.65286
-4.90901
-4.75641
-4.79349
-4.99146
-4.79152
-5.05192
-5.13567
-5.09474
-5.50195
17939
13327
12519.9
12496.8
13343.3
12941.7
12918.5
9536.28
9788.39
9238.74
9796.8
9246.24
10322.1
9536.91
10085.5
9586.59
9796.29
9264.07
9806.64
9264.28
10336.6
9567.39
10096.4
11908.3
9710.3
10293.8
11903.4
9757.07
10310.3
9067.6
9289.61
9250.71
9542.66
9100.57
9300.94
9261.02
9548.33
-9.48502
-6.2282
-5.3364
-5.00866
-6.3997
-6.20525
-5.33013
-4.99692
-6.39794
-6.77824
-6.79226
-4.62801
-4.81888
-4.60723
-4.83757
-4.67638
-4.66566
-4.59934
-4.81105
-4.84755
-4.97784
-4.65016
-4.82726
-4.63164
-4.84635
-4.7048
-4.61829
-4.66315
-4.81818
-4.85636
-4.97506
18089.4
13309.8
12451.6
12422.7
13308.3
12931.6
12917.1
9256.92
9446.14
9571.61
9732.41
9753.46
10067.1
9280.8
9470.4
9580.09
9741.07
9780.76
10076.7
10074.3
9744.55
10228.6
9666.74
10211.6
10559.3
9979.25
10613.7
10093.1
9779.25
10243.3
9727.1
10231.3
10565.2
9998.66
10616
-9.51094
-6.75406
-6.76786
-6.20072
-5.29388
-5.04177
-5.2928
-5.03091
-6.40478
-6.18122
-5.28418
-5.01798
-5.28234
-5.01099
-6.40669
-4.56344
-4.66502
-4.72409
-4.73777
-4.82856
-4.95926
-4.59129
-4.67909
-4.71878
-4.74647
-4.83338
-4.95681
18183.7
13251.3
12505.2
10727.1
10210.9
12462.7
10723.7
10203.5
13266
12922.2
12911.5
9586.03
9813.23
9772.13
10039.2
9607.27
9820.49
9790.76
10046.8
10027.7
10315
9831.88
10219.4
10067.2
10615.5
10052.5
10301.4
9847.2
10074.6
10229.4
10611.8
-9.53896
-6.74479
-6.75661
-6.76073
-6.77216
-6.15232
-5.27578
-5.02454
-5.29148
-5.00822
-4.7222
-4.95896
-6.4269
-6.13337
-5.26946
-5.01165
-5.28352
-4.99954
-4.72118
-4.95829
-6.42775
-4.64237
-4.78077
-4.65386
-4.78343
18104.4
13219.3
13236.9
12469.1
10573.6
10148
10589.4
10155
12437.6
10569.3
10144.2
10583.2
10144.4
12890
12879.1
10118.3
9925.15
10313.2
10267.3
10106.5
10556.9
10157.2
9954.51
10303.9
10120.2
10278.3
10554.7
-9.56447
-6.76337
-6.77016
-6.77977
-6.78655
-6.44362
-6.4477
-6.14612
-5.24454
-4.99086
-5.24262
-4.98615
-4.999
-4.73057
-4.98543
-4.75681
-4.63722
-4.81888
-6.13025
-5.23893
-4.9855
-5.23729
-4.97854
-4.99549
-4.73182
-4.98451
-4.75193
-4.66154
-4.825
17985.9
13174.1
13123
13198.4
13152.4
12430.8
10524.3
10099.2
10566.1
10075
10277.5
10540.5
12401.8
10524.4
10115.3
10567.8
10076.2
10286.4
10544.5
12863.1
12853.8
10159.1
10318.7
10198.9
10328.9
-9.57335
-6.78719
-6.83174
-6.80223
-6.84454
-6.46017
-6.47433
-6.46544
-6.47875
-6.16506
-6.15214
-5.26771
-4.99392
-5.24419
-5.02288
-5.00044
-4.79282
-5.03233
-4.75096
-4.91437
-4.64724
-4.87813
-4.72295
-5.26217
-4.98976
-5.23929
-5.01625
-4.99719
-4.78926
-5.02965
-4.74456
-4.9127
-4.66882
-4.88275
-4.72716
17814.1
13068.2
13008.4
13096.9
13033.1
12818.1
12813.1
12384.6
10519.5
10084.6
10570.2
10050.9
10511.5
10235.7
10534.4
10186.3
10150.8
10343.7
12355.2
10519.7
10086.7
10561.1
10050
10514.8
10255.3
10541.3
10197.7
10189.2
10354.4
-9.54602
-6.88275
-6.93309
-6.89367
-6.94694
-6.49401
-6.52926
-6.49754
-6.53187
-6.17718
-6.17419
-6.16562
-6.16203
-5.26789
-5.05142
-5.27192
-5.03452
-5.25924
-5.04368
-5.26337
-5.02479
-5.09319
-4.78936
-5.0526
-4.84061
-5.08891
-4.78343
-5.04892
-4.83385
17526
12947.1
12899.7
12967.5
12917
12753
12678.1
12748.3
12671.7
12358.8
12328.8
10539.8
10044
10540
10058.9
10485.7
10258.7
10589.5
10147.9
10316
10105.2
10326.8
10052.2
10536.2
10057.3
10540
10052.9
10482.5
10269
10592.3
10135.9
10325.2
10146.5
10339
10081.5
-8.90518
-9.53699
-6.56608
-6.58894
-6.56739
-6.59423
-6.18992
-6.23013
-6.17735
-6.21598
-5.23478
-5.04463
-5.24865
-5.03526
-5.20529
-5.00102
-5.18128
-5.0171
-5.22634
-5.03846
-5.24122
-5.02687
-5.19871
-5.00001
-5.17755
-5.01087
-5.10573
-4.8997
-5.13845
-4.8505
-5.10348
-4.89826
-5.13648
-4.84934
17167.1
12860.7
12815.1
12870.2
12832.4
12611.8
12560.4
12603.3
12551
12286.5
12188.6
12257.7
12170.6
10541.8
10048.3
10534.1
10056.6
10535.3
10041.7
10528.5
10046.1
10561.8
10221.1
10560.1
10213.6
10556.9
10236.5
10563.3
10208.5
-8.94305
-6.31471
-6.36526
-6.30534
-6.36105
-9.50883
-6.28105
-6.29764
-6.25782
-6.28395
-5.18666
-4.9982
-5.1716
-5.00965
-5.21158
-5.06826
-5.26489
-5.02732
-5.18209
-4.99514
-5.16736
-5.003
-5.20837
-5.05756
-5.255
-5.02211
-5.14452
-4.90769
-5.1373
-4.91748
-5.13154
-4.90538
-5.10207
-4.92019
-5.14161
-4.90548
-5.13422
-4.91569
-5.12716
-4.9025
-5.09979
-4.91566
16778.2
16375.4
12497.7
12410.3
12484.1
12395.6
12157
12114.2
12125.7
12081.1
10411.1
10002.6
10485.4
9934.19
10346.9
9808.74
10313.9
9865.22
10407.7
9999.88
10481.6
9929.79
10346.5
9818.12
10303.1
9865.99
10550
10196.4
10555.4
10194
10544.2
10202.7
10554.9
10188.8
-8.9332
-6.3832
-6.4454
-6.38705
-6.45764
-5.94211
-6.04213
-5.93442
-6.02326
-9.48554
-5.27135
-5.08603
-5.27442
-5.06881
-5.31862
-5.10735
-5.45918
-5.05847
-5.2658
-5.06838
-5.26668
-5.05497
-5.31366
-5.10307
-5.4539
-5.04731
-5.10152
-4.92331
-5.10117
-4.91443
-5.10758
-4.98614
-5.12668
-4.94773
-5.0978
-4.9179
-5.09765
-4.91002
-5.10474
-4.97226
-5.12123
-4.94276
16246.1
16001.7
11945.4
11896.7
11918.1
11892.9
12071.3
11945
12026.2
11911.2
10252.1
9786.37
10267
9800.84
10232.2
9783.77
10238.1
9797.02
10252
9797.41
10267.2
9800.92
10226.9
9790.66
10235.7
9789.96
10417.4
10158.4
10506.9
10071.1
10307.1
9933.92
10270
9969.59
10418.3
10171.8
10509.3
10078.9
10307.3
9956.18
10276.6
9973.45
-8.31687
-8.92897
-6.06161
-6.09985
-6.05274
-6.09884
-4.80903
-4.9896
-4.94523
-4.7631
-4.96225
-5.21872
-4.82309
-5.18572
-4.76508
-5.02827
-4.81562
-4.9795
-4.94823
-4.77979
-4.96689
-5.21417
-4.82837
-5.18481
-4.77547
-5.03102
-9.4942
-5.1104
-4.98874
-5.11546
-4.97438
-5.12123
-4.92472
-5.10278
-4.97027
-5.10883
-4.95595
-5.11415
-4.90752
-4.97307
-4.79736
-4.95437
-4.77324
-4.97155
-4.80511
-4.95462
-4.77946
15705.1
15528.9
11796.3
11706.3
11796.5
11720
11356.7
11399.1
11345.7
11380
10180.4
9781.37
10206
9775.77
10243.8
9518.76
10190.7
9774.1
10175.3
9776.73
10201.9
9764.74
10240
9534.11
10192.9
9763.61
10225.4
9911.2
10215.4
9937.4
10186.7
9912.41
10221.9
9890.15
10225.4
9937.78
10224.8
9943.69
10178.7
9911.27
10219.5
9880.38
-8.3127
-5.83928
-5.91128
-5.82528
-5.90536
-8.9177
-5.67466
-5.76262
-5.6689
-5.7488
-4.77136
-4.68657
-4.87591
-4.82036
-4.68279
-4.82594
-4.71491
-4.94439
-4.63499
-4.83264
-4.77977
-4.69112
-4.87887
-4.82399
-4.69091
-4.83095
-4.71369
-4.94579
-4.6426
-4.83688
-9.45372
-4.89617
-4.76713
-4.92036
-4.75987
-4.86725
-4.7213
-4.89548
-4.77539
-4.92117
-4.76303
-4.86757
-4.72357
15117
14982.5
14780.5
11368.8
11167.8
11358.1
11168.9
9249.57
9609.32
9698.71
9205.65
9686.89
10147.1
9044.84
9789.08
9229.84
9737.33
9613.93
9292.81
9716.35
9268.54
9708.16
10149.4
9097.11
9804.63
9281.29
9755.89
10118.2
9894.54
10168.8
9864.08
10141.2
9844.66
10113.4
9890.69
10166.9
9850.93
10133.9
9817.12
9982.8
9773.56
10026.5
9769.75
9974.75
9788.14
10026.6
9764.79
-8.36122
-5.96145
-5.89135
-5.95721
-5.89764
-5.44924
-5.54359
-5.44097
-5.5306
-8.82562
-4.76389
-4.60506
-4.72309
-4.57035
-4.83415
-4.61423
-4.96779
-4.57814
-4.76611
-4.61401
-4.72706
-4.57509
-4.83857
-4.61733
-4.96655
-4.58388
-4.67036
-4.79635
-4.54528
-4.68958
-4.48666
-4.69944
-4.68628
-4.80109
-4.55926
-4.6949
-4.50253
-4.70531
-9.43332
14479.7
14353.2
14179.1
10659.4
10589.6
10642.7
10593.3
10758.7
10672.4
10762
10671.5
9516.73
9300.59
9530.38
9742.98
9306.89
9545.98
9051.11
9589.28
9282.54
9547.35
9560.32
9341.02
9757
9545.04
9333.08
9557.13
9082.16
9600.58
9316.05
9559.32
9852.07
9743.73
10002
9640.68
9823.16
9624.56
9855.92
9753.95
10003.2
9660.66
9831.92
9653.59
-7.66895
-8.25286
-5.5763
-5.58046
-5.56017
-5.57823
-4.38525
-4.49244
-4.51296
-4.36082
-4.54768
-4.75997
-4.45095
-4.77681
-4.38206
-4.6351
-4.39795
-4.49402
-4.51785
-4.37904
-4.55812
-4.76171
-4.45487
-4.77711
-4.39213
-4.6386
-8.68492
-4.63232
-4.46761
-4.63289
-4.46938
-4.65427
-4.4255
-4.63538
-4.47874
-4.63813
-4.47491
-4.65838
-4.43655
-9.42494
13812.9
13688.2
13456.1
10369
10168.4
10368.1
10175.8
10154.4
10096.2
10156.7
10091.7
9248.88
8771.75
9263.58
8758.92
9253.03
8563.44
9342
8746.72
9252.91
8797.02
9273.19
8767.6
9256.76
8600.47
9351.37
8756.35
9394.61
9622.39
8986.58
9239.49
9135.28
9337.94
9443.01
9637.03
9012.34
9249.3
9164.33
9347.91
-7.66166
-5.41971
-5.7134
-5.42164
-5.72106
-7.93506
-5.26036
-5.30215
-5.2507
-5.29775
-4.311
-4.2479
-4.46925
-4.40916
-4.26296
-4.41089
-4.31942
-4.5711
-4.23116
-4.45149
-4.33607
-4.26642
-4.47804
-4.41731
-4.27378
-4.41648
-4.31735
-4.57124
-4.23534
-4.45372
-8.70721
-4.51021
-4.281
-4.51787
-4.30184
-9.41667
13182
12989.7
12641.7
12425.3
9928.76
9557.46
9911.3
9555.14
8201.28
8507.01
8649.84
8172.97
8633.38
9026.3
8003.02
8730.87
8155
8640.84
8524.86
8232.18
8661.98
8206.99
8646.44
9033.51
8040.01
8740.28
8186.49
8652.69
9015.03
8767.49
9082.5
8780.02
8948.93
8720.05
9019.33
8793.06
9090.77
8788.35
8953.83
8732.87
-8.09488
-6.97041
-5.66871
-6.94952
-5.65588
-6.95147
-7.96208
-4.53731
-4.19765
-4.3917
-4.21453
-5.0994
-4.53757
-4.18952
-4.39077
-4.21338
-5.08891
-4.11606
-4.2533
-4.09768
-4.21049
-4.05921
-4.19122
-4.12354
-4.25683
-4.10481
-4.21259
-4.06453
-4.19341
-8.72823