/*--------------------------------*- C++ -*----------------------------------*\
| =========                 |                                                 |
| \\      /  F ield         | OpenFOAM: The Open Source CFD Toolbox           |
|  \\    /   O peration     | Version:  5.x                                   |
|   \\  /    A nd           | Web:      www.OpenFOAM.org                      |
|    \\/     M anipulation  |                                                 |
\*---------------------------------------------------------------------------*/
FoamFile
{
    version     2.0;
    format      ascii;
    class       volScalarField;
    location    "2.7";
    object      p_rgh;
}
// * * * * * * * * * * * * * * * * * * * * * * * * * * * * * * * * * * * * * //

dimensions      [1 -1 -2 0 0 0 0];

internalField   nonuniform List<scalar> 
12160
(
5593.21
5682.22
5592.9
5702.73
5681.75
5592.3
5776.44
5702.46
5680.78
5591.4
5813.5
5776.15
5701.88
5679.28
5590.29
5867.17
5813.5
5775.45
5701.02
5677.18
5588.84
5915.32
5867.47
5813.34
5774.45
5699.86
5674.4
5587.53
5960.12
5915.91
5867.84
5813.12
5772.93
5698.4
5670.78
5585.53
5999.41
5961.03
5916.98
5868.49
5812.79
5771.03
5696.72
5641.67
3025.14
6031.99
6000.62
5962.79
5918.62
5869.18
5812.36
5767.66
5675.74
3644.23
234.316
6057.16
6033.45
6003.01
5965.46
5920.71
5870.06
5812.05
5754.8
3879.85
348.259
9.11455
6074.43
6058.84
6036.36
6006.62
5968.99
5923.36
5870.66
5805.14
4283.84
418.115
6.5637
0.197034
6083.31
6076.33
6062.19
6040.75
6011.44
5973.56
5926.09
5863.73
4600.51
616.063
5.78185
0.0741903
0.0438262
6083.29
6085.39
6080.03
6067.23
6046.58
6017.69
5978.65
5920.32
4921.13
821.433
3.10902
0.0678866
0.00786288
0.0266812
6073.85
6085.55
6089.49
6085.77
6073.78
6054.11
6024.77
5975.66
5207.96
1096.47
8.61804
0.0431044
0.0247199
0.013942
0.0120158
6054.58
6076.23
6090.04
6095.72
6093.06
6082.36
6062.68
6024.7
5443.3
1421.4
27.2124
0.0126773
0.0547309
0.0247357
-0.00473043
6025.99
6056.96
6081.02
6096.83
6103.89
6102.69
6091.96
6064.66
5615.3
1790.74
57.7331
-0.00388498
0.0227448
0.0217431
-0.00506054
5989.05
6028.15
6061.78
6088.27
6105.83
6114.19
6113.87
6095.22
5732.26
2154.88
100.493
0.0782679
-0.028186
0.0049734
0.00808244
5946.37
5990.68
6032.59
6069.11
6097.97
6117.22
6126.23
6116.52
5808.72
2463.17
153.673
0.2893
-0.0372839
-0.0189598
0.00356498
5900.14
5947.35
5994.02
6039.45
6079.07
6110.36
6130.66
6134.27
5860.49
2696.61
209.57
0.626248
-0.0482373
-0.0135413
-0.00322078
5853.36
5900.3
5949.36
5999.04
6049.11
6091.83
6125.22
6142.61
5887.27
2872.57
260.032
1.04659
-0.049022
-0.00839965
-0.00658302
5808.97
5852.62
5900.65
5952.46
6005.91
6060.9
6107.49
6140.57
5887.5
3007.62
300.566
1.48029
-0.0464817
-0.0094806
-0.0146374
5769.58
5807.39
5851.17
5901.21
5956.89
6015.73
6075.62
6124.15
5873.92
3106.72
334.98
2.68915
-0.05394
-0.0139194
-0.0170786
5737.17
5767.27
5804.21
5848.94
5902.11
5962.92
6028.28
6090.44
5834.19
3139.44
361.638
6.12512
-0.0738695
-0.0136169
-0.0157612
5712.87
5734.33
5762.64
5799.31
5845.97
5903.42
5970.78
6037.48
5745.19
3068.86
371.089
9.66535
-0.0648965
-0.0116907
-0.0190281
5697.11
5709.73
5728.62
5755.46
5792.64
5842.16
5905.2
5966.13
5588.39
2841.49
354.756
12.2371
-0.054077
-0.0394706
-0.0226245
5689.67
5693.91
5703.43
5719.77
5745.63
5783.99
5837.13
5875.79
5336.63
2463.11
303.573
12.9372
-0.0370587
-0.0554745
-0.0202157
5689.82
5686.62
5687.49
5693.67
5707.65
5732.83
5772.4
5774.32
4996.77
1985.27
224.599
11.8126
-0.0291509
-0.0688069
-0.0231128
5696.45
5687.08
5680.52
5677.56
5680.29
5691.8
5715.37
5667.17
4601.71
1468.37
141.897
8.35826
-0.0247056
-0.0781807
-0.0280403
5708.27
5694.13
5681.61
5671.1
5664.01
5662.8
5669.79
5560.9
4162.35
1002.33
81.88
4.82523
-0.0199238
-0.0802829
-0.0324202
5723.99
5706.43
5689.51
5673.22
5658.33
5646.3
5638.3
5467.32
3743.39
677.241
47.2854
2.98
-0.0215815
-0.0691952
-0.0339664
5742.33
5722.62
5702.78
5682.46
5661.89
5641.7
5621.32
5399.59
3404.66
473.794
28.6115
1.97283
0.00475302
-0.0428525
-0.0311323
5762.12
5741.43
5719.99
5697.2
5672.98
5647.3
5618.39
5366.95
3181.45
356.616
18.6189
1.32383
0.0494339
-0.0161206
-0.023379
5782.29
5761.69
5739.82
5715.88
5689.76
5660.98
5626.98
5371.54
3078.77
294.011
13.842
0.911852
0.0889426
0.0105732
-0.0113405
5801.84
5782.31
5761.08
5737.13
5710.51
5680.42
5644.57
5403.14
3097.46
265.756
11.6582
0.717129
0.114835
0.0345242
0.00118734
5820.1
5802.37
5782.66
5759.79
5733.84
5703.6
5668.03
5454.41
3202.2
265.069
10.5918
0.644824
0.124188
0.0543321
0.0106244
5836.34
5821
5803.51
5782.73
5758.56
5729.26
5694.84
5512.4
3381.83
281.9
10.3454
0.590383
0.125699
0.065124
0.0160104
5849.96
5837.54
5822.9
5805.04
5783.52
5756.37
5723.79
5568.85
3597.02
316.146
10.5602
0.540504
0.119767
0.0679144
0.0184335
5860.68
5851.43
5840.09
5825.65
5807.44
5783.66
5754.26
5622.18
3816.49
363.776
11.0806
0.489589
0.107047
0.0655096
0.0197013
5868.23
5862.35
5854.5
5843.85
5829.6
5810.24
5784.9
5675.2
4035.44
424.538
11.8944
0.42412
0.0920254
0.0602049
0.0193677
5870.04
5875.49
5865.82
5859.07
5849.16
5834.57
5813.87
5727.57
4251.28
511.312
13.4513
0.298035
0.0753939
0.0537173
0.017066
5873.77
5877.43
5868.47
5870.98
5865.44
5855.87
5840.7
5771.2
4420.74
648.055
17.0368
0.18603
0.0626097
0.0457837
0.0135237
5879.34
5881.4
5870.37
5848.39
5878.14
5873.53
5864.08
5806.08
4584.25
842.549
25.7005
0.151733
0.0557473
0.0362355
0.0109592
5887.01
5887.36
5874.18
5850.06
5819.88
5887.22
5883.28
5834.9
4743.04
1058.81
42.5847
0.232482
0.0495436
0.0269374
0.0103212
5896.72
5895.45
5879.94
5853.44
5820.88
5785.78
5898
5858.4
4886.02
1248.7
66.5531
0.621401
0.0338301
0.0104154
0.0106687
5908.09
5905.7
5887.73
5858.5
5823.34
5786.58
5752.11
5876.17
5001.57
1401.09
90.6998
1.17556
-0.00515713
-0.0060883
0.0136245
5887.98
5917.31
5897.58
5865.38
5826.78
5788.52
5751.6
5717.85
5086.58
1524.27
110.969
1.8055
-0.0378186
-0.0170643
0.0138365
5139.99
5897.99
5908.11
5873.97
5832.45
5790.75
5751.19
5715.98
5685.9
1618.03
126.2
2.36957
-0.0572309
-0.0294445
0.00753526
1681.69
5172.58
5884.01
5882.39
5838.75
5794.09
5750.91
5712.62
5679.44
5693.7
136.379
2.72328
-0.0610737
-0.039429
-0.00159724
143.21
1734.36
5101.29
5846.55
5842.74
5797.99
5752.43
5708.13
5666.38
5674.47
5567.54
2.89864
-0.0541806
-0.0412966
-0.00682289
3.05905
152.169
1688.14
4934.7
5782.61
5794.15
5752.15
5704.95
5652.68
5642
5593.03
5918.05
-0.0403049
-0.0372374
-0.00974631
-0.0189583
3.61883
161.516
1571.96
4672.96
5700.9
5715.3
5690.45
5635.01
5593.37
5571.24
5843.29
4966.61
5276.79
-0.0278868
-0.00893977
-0.0139862
0.0413977
7.72896
166.339
1397.51
4372.49
5586.05
5579.23
5614.62
5532.74
5527.71
5676.51
5171.53
4356.11
4522.39
4443.4
-0.00536401
-0.000219848
0.0150516
0.799924
15.7682
143.385
1174.75
4092.34
5318.85
5497.58
5505.48
5449.14
5523.99
5254.51
4796.87
3838.76
3763.28
3863.98
3683.95
0.0073174
0.131471
4.40923
16.5289
105.298
990.279
3870.05
4974.39
5486.84
5415.12
5379.81
5318.21
5085.6
4430.94
3401.05
3106.3
3059.71
3176.28
3134.11
0.000116677
1.1478
5.72917
10.4956
79.9324
920.962
3558.76
4874.21
5433.97
5310.06
5370.72
5299.92
4857.23
4078.44
3050.28
2537.65
2296.46
2356.34
2647.14
3018.82
-0.0189159
1.67045
2.5462
4.26141
66.0182
1049.22
2510.56
5160.5
5400.33
5440.52
5480.13
5187.94
4591.45
3799.73
2880.97
2120.73
1586.5
1497.92
1826.62
2506.61
3322.13
-0.0348759
0.656862
0.550003
1.64513
82.3738
688.505
2241.12
5479.4
5583.42
5656.18
5466.65
5006.19
4375.87
3641.51
2049.14
1950.47
2052.32
2479.06
2481.58
1113.24
681.768
871.167
1635.33
2779.38
3960.05
-0.0597061
0.182755
0.286589
1.45456
93.7903
234.007
4383.18
5771.94
5842.46
5718.92
5366.24
4825.21
4233.71
3601.05
1629.82
2068.07
924.077
1632.95
1162.66
1165.37
2070.09
2436.54
2437.82
128.606
-89.5687
567.662
1914.43
3440.09
4764.59
0.00966932
0.151954
0.1734
3.64245
25.649
222.13
5907.46
6014.65
5948.66
5689.46
5226.54
4688.22
4153.94
2837.33
2836.21
3151.33
3152.62
1658.75
2134.06
-119.705
965.46
1661.08
1211.67
1214.23
2127.72
2505.5
2499.75
-769.008
-581.448
730.616
2572.6
4279.05
5370.38
0.0412948
0.121842
0.089253
1.64293
1.46694
1441.44
6135.16
6145.55
5966.87
5594.17
5089.4
4597.93
3415.68
3416.79
3665.62
3666.81
2849.2
2846.66
3188.47
3184.24
1738.49
2046.91
1762.01
1866.55
1944.06
-1090.95
8.97056
503.243
504.661
904.471
903.115
1731.66
1321.37
1316.77
2044.06
1762.89
1864.43
1940.36
2233.26
2248.52
2449.62
2122.37
2230.29
2249.76
2446.84
2119.01
-1457.92
-629.434
1335.92
3550.71
5113.04
5688.07
0.0398291
0.0910289
0.216723
0.322965
0.764309
3434.62
6287.41
6198.29
5902.41
5450.9
4988.34
3905.18
3905.78
4136.31
4137.18
3452.48
3446.19
3697.17
3689.35
2483.72
2297.82
2552.95
2624.28
2727.76
2394.1
2296.66
2487.59
2553.9
2625.56
2727.7
2393.85
2942.91
3052.86
2792.34
2904.96
2944.7
3052.86
2793.41
2904.84
1507.43
1593.3
1694.96
1412.7
2055.97
1857.23
1877.13
2030.5
-1902.39
-899.752
-309.843
-308.54
92.4121
93.7467
717.095
713.558
1072.75
1070.03
1504.07
1593.09
1692.45
1407.65
1319.55
958.559
1154.37
1217.92
1317.12
961.439
1152.3
1215.53
2056.34
1861.5
1878.19
2033.69
2224.14
2192.34
2223.99
2193.25
-1764.62
-192.548
2521.57
5459.17
5722.12
5877.77
0.0439526
0.134893
0.222433
0.31751
25.9298
4760.68
6333.27
6132.61
5759.24
5341.5
4348.53
4348.92
4559.6
4560.71
3936.12
3928.51
4161
4153.77
3067.24
3170.37
3181.34
3282.61
3069.76
3170.56
3186.64
3283.04
3447.26
3549.72
3313.62
3414.49
3450.8
3549.37
3317.42
3414.53
2368.75
2512.48
2573.14
2397.69
2696.12
2734.31
2371.25
2515.73
2398.8
2573.91
2697.53
2734.77
3003.81
3032.86
2883.29
2916.57
3006.75
3033.84
2884.49
2917.1
1535.16
1688.88
1705.8
1518.6
2091.18
1886.74
1902.89
2068.35
-2327.78
-1649.06
-1077.49
-1077.15
-710.394
-710.148
-16.2664
-23.4462
351.032
345.952
455.101
554.809
615.512
717.313
457.734
555.229
616.819
717.357
970.312
1086.31
1055.34
781.443
888.546
1205.66
976.054
1086.38
1056.92
784.363
889.215
1205.51
1535.62
1693.21
1706.89
1522
1361.64
1331.42
1361.48
1332.12
2090.79
1887.51
1903.41
2067.12
2246.07
2217.76
2246.6
2219.62
-1548.35
766.325
4998.81
7592.82
6075.99
6016.46
0.0345716
0.182286
0.239112
0.36483
248.276
4688.42
6246.82
6002.43
5620.83
4757.13
4757.92
4951.64
4951.58
4361.28
4357.5
4553.03
4552.72
3573.76
3676.27
3693.83
3801.15
3574.02
3674.86
3697.47
3800.47
3900.86
4075.01
3812.97
3923.33
3903.04
4073.56
3816.1
3922.72
3130.78
3162.18
3250.06
3282.22
3133.72
3163.13
3252.82
3283.26
3528.31
3548.25
3395.86
3417.58
3533.32
3550.01
3397.72
3418.75
1576.37
1725.76
1740.94
1558.91
-2221.73
-2059.7
-1705.41
-1705.07
-1431.78
-1432.14
-737.116
-745.345
-397.381
-405.261
-217.251
-120.725
-37.2438
57.71
-209.749
-119.664
-30.2629
59.1259
283.882
372.193
123.348
220.185
287.719
373.217
131.282
221.848
566.366
600.065
715.816
749.795
572.276
602.03
719.163
751.045
1179.63
998.474
1053.28
1225.65
873.427
911.119
1183.25
1004.31
1055.26
1226.91
875.949
912.213
1576.99
1728.35
1741.97
1560.47
1415.5
1388.59
1415.82
1390.09
-795.118
2067.19
7534.28
8228
5954.79
6178.2
0.00917182
0.241573
0.296706
1.52201
258.247
3971.09
6104.88
5858.69
5460.16
4732.35
4732.46
4886.05
4886.07
4377.05
4375.17
4584.31
4581.07
3647.2
3668.45
3763.04
3785.24
3650.06
3669.73
3764.81
3785.99
3952.45
4036.74
3878.7
3906.28
3952.97
4036.67
3879.03
3906.44
3566.4
3597.73
3573.11
3599.78
-1550.93
-2033.48
-2035.66
-2034.75
-1936.63
-1935.85
-1325.24
-1327.83
-1052.45
-1058.53
-924.964
-729.24
-711.978
-614.247
-920.908
-729.535
-706.957
-613.903
-399.584
-312.771
-563.821
-467.949
-395.162
-312.069
-556.664
-467.005
-5.77267
12.4458
150.016
167.961
1.31402
15.1131
154.333
170.229
412.664
440.636
276.938
299.104
418.245
442.624
282.107
301.261
350.1
3854.98
8441.28
7143.91
6052.12
6370.71
-0.0390442
0.389477
2.46223
24.0935
121.102
2512.39
5779.33
5607.24
5040.79
5041.25
5182.45
5183.78
4768.5
4763.25
4896.55
4897.07
4308.61
4113.77
4180.88
4222.89
4308.03
4113.36
4180.96
4221.72
4416.75
4417.33
4507.03
4329.84
4415.93
4420.32
4506.58
4328.85
3675.16
3698.54
3795.67
3817.06
3679.56
3700.23
3798.3
3818.02
4022.84
4041.38
3916.73
3939.49
4026.31
4042.58
3918.01
3940.18
-392.309
-1502.14
-1299.19
-1688.96
-1690.11
-1545.84
-1547.83
-910.504
-914.35
-659.529
-662.525
-711.763
-574.446
-496.431
-468.38
-707.863
-573.195
-492.274
-466.874
-185.614
-174.883
-339.412
-329.71
-181.42
-172.862
-334.643
-327.719
27.9898
53.6679
37.502
56.9062
1597.34
5807.57
9292.61
6376.03
6235.06
6349.33
-0.265696
2.08802
27.1091
91.5089
360.332
945.269
4319.08
4821.56
5040.97
5038.56
5105.9
5103.77
4510.95
4599.15
4719.91
4581.86
4511.33
4597.73
4717.3
4579.11
4935.45
4930.4
4332.19
4202.05
4220.77
4317.36
4332.03
4204.41
4221.31
4316.28
4426.99
4495.49
4514.51
4409.84
4427.23
4496.22
4514.9
4410.64
4082.24
4102.19
4088.73
4104.18
960.938
-460.812
-819.505
-1169.46
-1169.64
-1269
-1271.81
-1243.21
-1245.79
-1085.04
-1095.21
-793.844
-1015.01
-914.331
-887.528
-793.836
-1005.79
-912.565
-885.762
-656.41
-620.042
-543.964
-748.964
-656.441
-619.829
-542.941
-748.734
-465.076
-418.388
-339.101
-310.624
-460.067
-416.645
-334.671
-308.581
-95.1593
-75.8837
-210.283
-191.373
-87.9479
-73.1178
-204.259
-189.167
2728.08
6374.45
7101.68
6115.58
6218.59
-0.226152
17.0768
72.3944
148.185
364.388
1493.12
1669.54
4141.29
4140.42
3081.49
3080.45
4840.55
4915.33
4867.82
4980.73
4839.75
4913.91
4869.29
4980.25
5099.66
5098.5
4580.52
4602.09
4698.06
4628.27
4581.59
4603.1
4697.63
4628.61
4792.99
4864.27
4744.29
4799.4
4797.62
4866.68
4746.22
4801.32
4484.46
4540.73
4567.61
4449.27
4485.65
4545.67
4569.22
4453.75
2202.54
850.18
87.3461
367.295
-793.606
-803.21
-790.958
-801.405
-725.517
-730.772
-1117.79
-1013.19
-1005.68
-1246.75
-1114.29
-1012.27
-1007.55
-1249.6
-598.092
-739.879
-716.127
-626.802
-599.92
-735.351
-717.632
-624.341
-498.801
-458.051
-412.757
-534.676
-497.859
-453.722
-410.858
-534.04
-387.87
-331.668
-380.292
-329.512
3793.83
6232.35
6166.63
6052.81
1.25476
29.5043
55.4347
106.981
396.319
1054.31
1375.83
1376.63
1900.92
1902.45
3225.13
3230.77
1888.53
1893.25
4865.49
4903.34
4863.4
4941.81
4865.51
4903.01
4863.53
4941.92
4946.45
4008.92
4850.02
4425.16
4948.09
4009.4
4849.95
4424.38
4631.52
4654.39
4724.76
4704.94
4633.72
4655.57
4724.93
4705.49
4858.07
4879.13
4823.01
4839.51
4860.2
4878.71
4824.28
4840.21
3315.47
2095.88
1251.54
1185.81
-112.402
-112.039
-255.729
-258.041
-342.826
-341.343
-944.297
-833.222
-1086.54
-783.897
-937.465
-832.007
-1073.55
-778.804
-869.253
-769.829
-794.185
-715.267
-1007.35
-811.388
-853.905
-772.235
-785.509
-712.439
-1002.64
-809.381
-836.294
-794.271
-832.699
-793.794
-497.309
-611.668
-571.294
-554.454
-498.476
-603.576
-572.331
-550.823
4699.37
6002.84
5944.95
2.68978
12.5821
13.3714
42.7074
360.545
616.17
1657.9
1644.34
1939.93
1940.91
2357.12
3704.63
2880.98
1651.77
2483.67
4739.69
3704.94
2363.77
4740.62
2894.23
1656.38
2495.18
680.956
1243.47
734.234
1247.93
680.326
1240.06
741.637
1251.95
4870.27
4922.44
4865.93
4928.2
4872.48
4923.19
4867.64
4928.87
4877.25
4021.08
4882.55
4019.53
4793.62
4772.55
4793.95
4773.15
4870.4
4912.64
4873.97
4913.06
4170.35
3518.12
2357.16
2115.73
430.242
435.949
86.9588
83.7778
435.352
427.061
296.205
293.33
-407.835
-662.569
-295.87
-543.763
-581.379
-847.705
-403.952
-640.832
-290.517
-535.43
-581.441
-840.429
-698.769
-635.103
-690.451
-634.6
-608.45
-578.619
-585.736
-697.481
-558.587
-649.097
-595.066
-575.517
-579.423
-687.427
-556.023
-645.37
-622.81
-590.782
-615.414
-590.769
5312.18
5878.42
0.708036
1.38871
2.88809
19.5321
41.6579
615.162
629.328
83.0466
82.5655
1884.75
1834.43
1851.62
1861.42
3166.83
1563.87
1628.41
3804.21
873.923
990.533
3170.41
1569.17
3809.18
1631.48
876.1
991.15
666.811
1600.47
669.859
690.396
665.56
1497.66
668.568
682.944
4595.24
4933.92
4595.9
4935.84
4692.66
4516.69
3786.12
3009.47
3163.19
759.482
753.932
588.513
572.051
-236.253
265.431
-174.983
64.132
-210.772
270.757
-162.691
69.6592
-264.229
-445.153
-84.8372
-231.102
-24.8787
-165.199
-259.773
-437.803
-80.5574
-213.064
-17.696
-162.396
-278.408
-423.061
-340.681
-464.563
-277.324
-420.51
-340.476
-458.4
-482.359
-456.58
-474.873
-453.442
-497.162
-458.872
-569.032
-538.515
-483.204
-454.577
-560.762
-535.842
5535.6
-0.617746
0.423295
1.32294
5.5471
37.7993
388.072
393.335
91.658
91.6366
2851.64
1350.68
2892.35
1791.58
2853.8
1193.49
2891.96
1713.46
1377.86
1410.57
953.954
2854.09
672.404
1447.25
826.268
2755.88
661.637
1235.17
4977.86
4438.8
4917.99
3940.28
3814.04
1594.98
1608.74
1288.84
1285.78
1098.4
1097.26
1000.49
991.578
-40.4739
304.432
104.408
185.005
-27.231
307.99
109.451
187.467
-241.77
-40.6301
-127.458
39.0968
52.2199
109.221
-236.633
-39.7835
41.3114
-124.254
54.2936
111.8
-313.584
-335.704
-311.236
-330.218
-0.206541
0.380705
0.755364
3.03053
15.5477
15.5428
6.31894
6.30556
189.978
191.788
55.893
55.6679
2786.83
1746.39
2882.61
1843.86
2787.71
1635.45
2882.48
1833.53
549.627
452.696
1188.01
1852.6
558.185
453.731
1208.86
1877.99
1050.2
2769
934.865
2647.44
4660.56
4758.72
5287.76
4458.15
4632.63
1762.64
1760.95
1701.61
1685.69
1552.89
1540.61
758.293
241.248
509.866
196.222
755.266
239.129
509.291
190.878
248.169
358.404
190.518
295.151
258.59
360.683
197.162
297.589
-0.0483196
0.285072
0.570744
2.7038
13.1165
13.0454
6.53341
6.53495
512.755
400.858
87.8125
154.261
163.241
82.2553
522.614
404.95
89.4798
156.891
167.603
82.4172
43.6997
42.9351
2887.45
1627.7
2880.38
1761.45
2891.26
1585.13
2880.66
1765.31
1181.4
1138.29
1202.58
1149.29
4632.39
5379.22
5760.84
5135.62
2467.39
2481.06
2116.97
2114.58
1852.96
1868.42
1982.34
1965.69
451.403
1067.47
571.459
850.449
350.929
748.542
490.647
1074.32
592.985
858.183
347.372
747.569
475.777
580.021
480.821
581.266
422.286
486.651
431.41
488.238
-0.00865685
0.308406
0.736626
5.53018
5.53123
4.70127
4.68774
8.45981
8.52298
6.762
6.77181
332.99
219.834
106.943
112.468
183.058
78.7407
341.14
222.679
108.533
112.341
182.333
78.3112
11.6474
10.9627
21.6499
21.5502
11.6463
10.9637
21.4588
21.7888
4903.02
5874.52
5850.39
5929.41
2562.72
2560.09
2436.51
2412.53
2292.58
2283.76
635.844
1055.01
1479.67
841.926
1213.63
839.453
1474.61
842.682
1213.51
833.393
652.952
1060.25
762.036
590.375
886.133
715.421
776.637
608.548
892.439
721.072
558.192
646.843
571.113
650.51
0.037149
0.362734
1.72329
5.18199
5.25775
4.43529
4.41952
11.7203
13.0795
10.73
10.4888
8.74644
10.3771
11.7207
13.0137
9.60227
10.4308
8.87046
10.304
8.13285
8.31394
85.9478
51.2704
82.7106
50.6325
22.7941
52.2661
22.6328
51.1975
5390.01
6038.92
6359.8
3609.34
3618.49
2935.54
2936.35
2733.76
2733.6
2616.88
2606.38
963.767
1673.98
1047.25
1447.43
888.367
1372.9
1008.55
894.931
1374.74
1685.48
1069.33
1455.17
895.104
1060.24
955.012
1179.34
958.566
907.471
1180.68
1063.93
0.0414585
0.328151
1.14405
3.24315
3.32801
3.21312
3.2044
11.2209
11.9755
12.8614
10.7677
10.5065
9.35511
11.1791
12.4263
12.8516
10.9298
8.26443
9.30267
4.08638
3.72135
4.12928
4.07122
4.20218
3.89575
4.23173
4.55168
15.8728
31.7561
15.7566
31.7876
5989.94
6544.87
7066.3
3565.67
3597.42
3290.07
3274.17
2989.39
2985.17
1104.03
1587.21
1967.52
1296.04
1704.96
1253.19
1136.86
1598.96
1968.2
1300.18
1708.3
1254.45
1220.18
1101.13
1419.54
1325.11
1121.62
1330.64
1237.62
1426.62
0.143795
0.118667
2.01965
2.2863
2.2959
2.02078
1.96792
1.96051
1.9495
3.376
3.09423
1.94213
3.4451
3.1023
11.5894
9.04134
7.4789
6.80008
10.46
4.23418
11.8838
8.56377
6.50807
7.03556
6.71069
4.36179
3.23167
2.99542
3.30266
3.14033
6620.99
7159.16
7663.46
3743.02
3779.85
3500.92
3505.3
1481.72
2152.86
1533.23
1937.9
1394.4
1840.95
1548.08
1398.56
1844.16
2170.16
1557.72
1948.67
1338.7
1519.05
1514.88
1656.5
1369.2
1529.15
1532.79
1663.25
1297.08
1452.31
1323.08
1461.32
0.138887
-0.0360247
1.93463
1.9832
1.93876
1.99121
1.958
1.95764
2.72592
2.58539
2.43562
2.71811
2.53059
2.39418
2.79452
2.4112
2.57162
2.71625
2.45186
2.70821
2.54235
2.40169
2.78179
2.41849
3.86671
3.84128
4.30217
3.93044
2.50091
2.42567
2.49037
2.73696
7237.97
7728.74
4237.93
3800.22
3812.39
4259.88
3937.56
3967.38
3603.94
1707.97
2107.38
3621.12
1748.17
2118.83
1624.83
1809.45
1749.31
1931.37
1643.63
1756.03
1819.41
1936.48
1450.15
1568.85
1600.24
1702.19
1479.91
1578.03
1625.21
1709.71
-0.103709
0.0011531
1.92022
2.69582
2.73544
1.97873
1.94746
2.73441
2.73998
1.99917
2.02203
2.02249
2.63849
2.67126
2.47894
2.41351
2.49892
2.65142
2.61861
2.46052
2.66918
2.3122
2.48407
2.68088
2.69834
2.63634
3.51048
2.6254
7773.78
8172.01
4227.75
3796.29
3812.19
4257.11
4125.69
4130.39
2081.08
1898.61
2110.04
1814.1
2106.95
2288.02
2011.63
2447.4
2142.27
1956.78
2123.05
1866.32
2118.99
2298.13
2083.21
2458.38
1765.58
1915.34
1817.79
1978.73
1767.45
1819.74
1929.52
1984.15
-0.00197929
2.27663
2.13457
2.13855
2.24829
2.11336
2.09754
2.81346
2.82999
2.81407
2.87779
2.75429
2.50945
2.919
2.87239
2.07648
2.89182
2.83609
2.8159
2.85796
2.86772
2.87344
2.7788
2.54479
2.9406
2.90165
2.10919
2.89834
2.88758
2.61832
2.69473
2.49274
2.77571
2.6027
2.70311
2.49718
2.80077
8220.57
8429.77
4290.61
3873.23
2411.47
2217.82
3886.41
2419.11
2267.06
4300.93
4131.01
4123.49
2134.38
2311.38
1985.77
2075.47
2023.79
2272.08
2195.56
2359.95
2019.19
2032.69
2087.51
2279.78
1851.58
1899.08
1856.84
1901.53
0.0216397
2.10391
2.35322
2.0936
2.31597
2.16597
2.14996
2.78672
2.85867
2.942
2.85144
2.98387
3.05693
3.07148
3.02607
2.97593
2.98061
2.96249
2.79038
2.94313
2.54945
2.80058
2.90564
2.84815
2.93402
3.07488
3.04741
3.0862
3.09813
3.03801
3.02441
3.02523
2.8372
2.95654
2.55849
8497.37
4446.12
4273.48
4250.17
4462.26
4323.5
4299.31
2033.74
2414.77
2238.51
2428.49
2241.88
2623.77
2303.95
2559.43
2078.18
2422.66
2279.15
2438.31
2279.44
2638.42
2346.43
2570.36
4041.29
2217.1
2605.92
4042.75
2275.19
2622.46
2262.57
2371.33
2156.01
2313.94
2325.3
2405.47
2166.31
2319.67
-0.00807083
2.18269
2.72137
3.05394
2.3575
2.16838
2.72899
3.05196
2.31258
2.21078
2.19332
2.87415
3.01918
3.01711
3.12854
3.07632
3.20191
3.01479
3.14804
3.04798
2.94598
2.90225
3.0108
3.10375
3.11975
3.13027
3.05193
3.2266
3.17621
3.10148
2.97175
8672.95
4399.84
4195.43
4160.04
4391.31
4319.35
4302.55
2326.63
2386.22
2313.75
2351.14
2504.92
2551.9
2369.79
2425.88
2322.23
2359.82
2541.87
2561.58
2317.36
2259.08
2545.94
2201.57
2529.46
2705.72
2005.44
2578.43
2350.68
2300.81
2560.65
2275.43
2549.23
2711.67
2031.09
2580.89
-0.0343347
2.22666
2.21225
2.23901
2.76468
3.05357
2.78023
3.04806
2.30924
2.21766
2.77401
3.05479
2.78162
3.04829
2.27714
3.06601
3.07521
3.15801
3.21107
3.05626
2.96803
3.05578
3.09268
3.18136
3.25667
3.0949
2.96807
8766.73
4359.59
4254.83
2694.41
2258.4
4204.47
2691
2251.34
4373.22
4314.5
4304.72
2512.76
2409.78
2517.58
2514.86
2548.47
2417.03
2542.13
2522.78
2511.56
2548.79
2539.91
2541.17
2516.17
2766.65
2546.01
2550.75
2562.5
2524.13
2551.31
2762.96
-0.0640695
2.2322
2.21597
2.21601
2.20044
2.2827
2.81024
3.07897
2.79552
3.08337
3.16819
2.98769
2.23314
2.25983
2.79688
3.07015
2.78438
3.07285
3.17182
2.95832
2.22083
3.11911
3.08515
3.12507
3.08112
8687.13
4345.15
4364.46
4212.64
2538.74
2200.14
2549.94
2211.5
4176.39
2534.44
2178.54
2543.8
2204.69
4291.64
4281.52
2576.47
2584.33
2540.57
2583.44
2533.75
2702.26
2629.53
2619.72
2542.43
2547.8
2594.4
2699.99
-0.0880347
2.20597
2.19946
2.18957
2.18308
2.1864
2.18143
2.22336
2.88688
3.10374
2.91545
3.10076
2.91745
3.16696
2.96703
3.12665
3.14318
2.99946
2.20264
2.82835
3.0692
2.8305
3.09185
2.89132
3.15792
2.92114
3.12078
3.11975
2.97746
8562.79
4318.91
4278.56
4341
4306.2
4185.36
2498.58
2149.1
2527.59
2127.87
2489.14
2672.45
4153.23
2498.71
2138.22
2529.33
2098.95
2506.84
2676.52
4273.94
4264.31
2577.25
2610.78
2632.5
2620.96
-0.0945822
2.18463
2.14402
2.16958
2.13121
2.16526
2.15031
2.15994
2.14584
2.12897
2.13842
2.81841
3.0612
2.88652
3.04054
2.88678
3.08696
2.87534
3.1216
2.92195
3.15539
2.95656
3.08003
2.78419
3.04926
2.82602
3.01997
2.87882
3.07777
2.85451
3.11704
2.89984
3.11725
2.93139
3.05625
8433.93
4223.55
4143.7
4248.66
4169.82
4246.02
4232.91
4137.04
2510.12
2150.09
2568.34
2119.48
2649.81
2439.3
2659.04
2404.36
2525.56
2607.07
4108.93
2510.38
2129.74
2559.26
2084.96
2653.16
2452.96
2665.9
2398.51
2574.24
2617.78
-0.0666315
2.09659
2.04798
2.08567
2.03412
2.13361
2.10592
2.13004
2.10327
2.10246
2.09842
2.11346
2.11036
2.77999
2.97488
2.75618
2.99133
2.77647
2.98265
2.76339
3.00002
2.83211
3.09231
2.87281
3.05094
2.81248
3.09423
2.84681
3.05072
8126.53
4032.65
3956.62
4058.63
3975.52
4175.35
4094.29
4163.74
4082.54
4107.4
4077.19
2530.25
2090.87
2535.76
2090.88
2633.16
2484.85
2731.71
2376.26
2547.16
2450.04
2566.98
2393.28
2527.27
2102.76
2536.55
2089.5
2630.04
2464.9
2734.68
2334.84
2556.35
2490.26
2579.16
2414.17
-0.0929466
-0.0570855
2.07516
2.05482
2.07379
2.04947
2.08391
2.05998
2.09637
2.07406
2.78362
2.97733
2.77567
2.98292
2.80654
3.00386
2.8239
2.99443
2.79167
2.98332
2.7822
2.99107
2.81279
3.00469
2.82738
3.00051
2.80667
2.99362
2.76263
3.0403
2.79709
2.99423
2.76085
3.04042
7719.66
3916.3
3899.35
3924.46
3914.14
4018.49
3946.89
4005.57
3936.07
4040.77
3950.57
4007.45
3925.72
2525.92
2065.68
2514.26
2075.12
2519.5
2059.96
2508.55
2068.78
2683.67
2433.56
2692.2
2396.06
2679.55
2430.87
2695.98
2391.23
-0.125203
1.98679
1.94075
1.99612
1.94496
-0.0276853
2.01692
2.00139
2.04006
2.01496
2.8229
3.00362
2.83041
3.00009
2.81471
2.9706
2.77406
2.99909
2.82742
3.0066
2.83454
3.00664
2.81788
2.9813
2.78392
3.00424
2.74336
2.98396
2.75643
2.96969
2.74781
2.96337
2.76682
2.95889
2.74592
2.98587
2.75857
2.9714
2.75206
2.96618
2.76901
2.9634
7311.94
7600.19
3877.1
3788.86
3858.69
3767.66
3917.55
3856.96
3879.06
3816.72
2394.92
2028.23
2465.59
1978.14
2336.85
1900.62
2310.35
1929.42
2391.31
2024.27
2461.72
1965.22
2336.48
1899.85
2299.54
1921.4
2665.15
2359.95
2665.82
2361.36
2659.75
2365.77
2665.14
2358.16
-0.108793
1.93032
1.87414
1.92646
1.86191
2.0066
1.9155
2.01426
1.93428
-0.00357731
2.7636
2.9536
2.76532
2.96617
2.71426
2.92785
2.57615
2.97444
2.76909
2.97123
2.77301
2.9799
2.71916
2.93206
2.58134
2.98548
2.75137
2.93435
2.75658
2.93844
2.75513
2.88971
2.74923
2.91495
2.75509
2.93973
2.76006
2.94286
2.75799
2.90364
2.75468
2.91996
6790.82
7269.03
3819.81
3815.8
3730.49
3736.27
3816.25
3708.02
3757.7
3647.09
2243.54
1901.48
2266.24
1884.21
2206.97
1824.09
2200.69
1840.2
2243.47
1895.93
2266.42
1869.94
2201.75
1821.16
2198.28
1824.93
2531.49
2325.95
2617.02
2245.8
2430.07
2171.75
2403.31
2162.91
2532.26
2338.29
2619.09
2255.86
2430.16
2191.13
2409.85
2167.72
-0.154511
-0.102925
1.90953
1.88123
1.91833
1.88219
2.87388
2.864
2.73771
2.91868
2.7196
2.63495
2.87473
2.51222
2.92245
2.65932
2.86732
2.87409
2.73471
2.902
2.71493
2.63947
2.86934
2.51302
2.91204
2.65653
-0.011517
2.74421
2.87962
2.75296
2.88016
2.72798
2.92442
2.75183
2.89812
2.75959
2.89862
2.73504
2.94162
2.79605
2.96295
2.80596
2.99587
2.79758
2.95524
2.80572
2.98968
6268.97
7048.77
3738.88
3988.64
3656.06
3884.69
3645.51
3827.92
3596.76
3772.55
2152.18
1846.25
2169.7
1872.15
2214.44
1637.01
2155.45
1882.6
2147.18
1832.1
2165.55
1844.71
2210.82
1617.83
2157.74
1842.55
2374.44
2218.93
2359.54
2302.14
2325.79
2149.4
2349.13
2149.22
2374.33
2233.17
2368.92
2283.86
2317.79
2142.71
2345.93
2129.25
-0.137781
1.81251
1.75176
1.82652
1.75748
-0.0861168
1.95064
1.87599
1.95637
1.88975
2.9069
2.86513
2.80238
2.73135
2.84104
2.6979
2.81052
2.58108
2.87988
2.68224
2.89851
2.8606
2.79942
2.72773
2.83297
2.69291
2.81178
2.57968
2.8723
2.67802
0.0290812
2.81153
2.96981
2.8166
2.9478
2.8172
2.96312
2.81222
2.96159
2.81579
2.94467
2.81689
2.96089
5671.46
6759.08
7375.64
3732.14
3539.5
3702.43
3527.05
1800.77
1890.73
2046.68
1895.48
2039.35
2306.78
2238
2144.07
2136.05
2146.42
1883.1
1849.03
2063.84
1981.27
2061.68
2308.27
2287.43
2159.71
2194.76
2163.73
2287.92
2173.93
2309.98
2191.95
2320.97
2163.26
2279.97
2160.01
2305.38
2169.06
2310.66
2124.39
2216.21
2185.92
2271.22
2286.1
2207.45
2185.72
2268.97
2242.58
-0.026376
1.71032
1.78482
1.71393
1.77842
1.85739
1.78005
1.86572
1.79284
0.0216282
2.60915
2.76283
2.64482
2.8028
2.54336
2.7682
2.41474
2.79947
2.60692
2.75394
2.64087
2.79807
2.53894
2.7651
2.41593
2.79373
2.90305
2.77707
2.83512
2.69084
2.9161
2.70333
2.88715
2.77234
2.8212
2.68554
2.90026
2.69748
0.0495647
5028.1
5977.78
6858.05
3321.27
3297.95
3319.33
3315.01
3523.83
3304.68
3536.76
3317.67
2135.94
2157.92
2120.12
2144.29
2209.03
2087
2396.39
2310.36
2361.64
2264.32
2160.41
2171.31
2152.97
2129
2223.3
2099.64
2424.93
2319.87
2386.72
2282.02
2205.31
2252.62
2316.96
2229.19
2248.52
2330.39
2190.19
2243.35
2295.73
2227.3
2244.96
2331.87
1.37531
0.349661
1.75799
1.7723
1.77403
1.77105
2.65888
2.71694
2.53121
2.69625
2.50944
2.44944
2.62038
2.29463
2.68351
2.43053
2.64625
2.71542
2.52634
2.67809
2.49901
2.44772
2.61644
2.29428
2.67344
2.427
0.146051
2.59558
2.78961
2.62433
2.75851
2.55542
2.78416
2.59254
2.77851
2.6191
2.75304
2.55134
2.77318
0.0580063
4409.18
4998.71
6131.22
3043.03
2892.67
3053.5
2913.05
3108.18
3040.86
3127.83
3053.58
2023.65
2314.63
2199.59
2114.39
1921.23
1611.97
1982.32
1813.07
2031.36
2332.97
2211.43
2119.92
1927.57
1657.06
1991.69
1823.04
2326.38
2279.21
2457.39
2354.74
2419.25
2075.76
2337.31
2281.94
2478.1
2369.91
2447.37
2083.82
1.46178
4.02173
4.14216
4.16839
4.13699
0.393358
1.73503
2.09921
1.74478
2.08439
2.74759
2.67245
2.58937
2.51121
2.63918
2.49127
2.57945
2.32782
2.66661
2.44632
2.72259
2.65401
2.5806
2.5031
2.62843
2.48571
2.58155
2.32768
2.66248
2.44411
0.121681
2.5839
2.8131
2.57626
2.7923
0.0663106
3943.88
4283
4853.12
5067.99
2809.23
2348.14
2805.14
2353.42
1620.62
1710.82
1606.05
1590.41
1576.64
1840.81
1407.17
1659.81
1562.77
1575.59
1741.91
1669.67
1618.18
1655.38
1589.7
1849.09
1475.22
1669.28
1625.49
1587.47
2134.3
2464.83
2498.69
2183.84
1859.38
1910.75
2145.14
2483.87
2507.67
2197.69
1870.84
1932.7
2.40633
1.80864
3.91688
2.47216
3.95019
2.47204
0.226292
2.25715
2.53905
2.34509
2.7606
4.2211
2.26918
2.54823
2.34639
2.81607
4.40084
2.67578
2.53856
2.62959
2.51689
2.68952
2.55776
2.66836
2.53507
2.62253
2.51478
2.68428
2.55564
0.100695
0.0865276
4180.25
3957.44
3766.01
4043.59
1899.82
1699.23
1897.83
1713.64
2552.31
2171.98
2558.92
2178.85
1735.68
1773.77
1545.43
1671.85
1746.12
1486.78
1461.35
1442.94
1656.95
1428.66
1773.22
1810.59
1685
1555.7
1787.03