/*--------------------------------*- C++ -*----------------------------------*\
| =========                 |                                                 |
| \\      /  F ield         | OpenFOAM: The Open Source CFD Toolbox           |
|  \\    /   O peration     | Version:  5.x                                   |
|   \\  /    A nd           | Web:      www.OpenFOAM.org                      |
|    \\/     M anipulation  |                                                 |
\*---------------------------------------------------------------------------*/
FoamFile
{
    version     2.0;
    format      ascii;
    class       surfaceScalarField;
    location    "2.7";
    object      phi;
}
// * * * * * * * * * * * * * * * * * * * * * * * * * * * * * * * * * * * * * //

dimensions      [0 3 -1 0 0 0 0];

internalField   nonuniform List<scalar> 
30582
(
5.02499e-05
3.77865e-06
4.19737e-05
8.27613e-06
5.03317e-05
7.49258e-06
3.02834e-05
1.16903e-05
4.18383e-05
1.67694e-05
5.04241e-05
1.11495e-05
1.46902e-05
1.55932e-05
3.00634e-05
2.34651e-05
4.18742e-05
2.53193e-05
5.00423e-05
1.52407e-05
-4.64656e-06
1.93368e-05
1.4043e-05
3.16137e-05
3.0176e-05
3.51634e-05
4.01858e-05
3.51757e-05
5.0151e-05
1.92921e-05
-2.50734e-05
2.04269e-05
-5.51354e-06
3.88934e-05
1.44412e-05
4.73485e-05
2.7687e-05
4.76622e-05
3.99514e-05
4.53753e-05
4.83815e-05
2.52012e-05
-4.39741e-05
1.89007e-05
-2.56658e-05
4.05792e-05
-4.8255e-06
5.81601e-05
1.08256e-05
6.42099e-05
2.73875e-05
6.02262e-05
3.49165e-05
5.88403e-05
4.91239e-05
3.04726e-05
-6.08266e-05
1.68526e-05
-4.44852e-05
3.77202e-05
-2.54354e-05
6.11892e-05
-8.44855e-06
7.74343e-05
1.06999e-05
8.08975e-05
2.03458e-05
7.47969e-05
3.51664e-05
7.27978e-05
3.56043e-05
4.93852e-05
-7.46782e-05
1.38517e-05
-6.13563e-05
3.37237e-05
-4.47449e-05
5.70297e-05
-2.8269e-05
8.10097e-05
-7.7458e-06
9.588e-05
2.42241e-06
9.88208e-05
2.07826e-05
8.91807e-05
1.57739e-05
9.26283e-05
-3.81222e-05
3.48757e-05
-8.44905e-05
9.81232e-06
-7.53501e-05
2.78455e-05
-6.20345e-05
5.10134e-05
-4.71763e-05
7.5937e-05
-2.75756e-05
0.00010084
-1.37375e-05
0.00011204
2.83033e-06
0.000116773
4.92084e-06
0.000100034
-4.22014e-05
9.67075e-05
-0.000391062
0.000422229
-8.89758e-05
4.48532e-06
-8.53954e-05
1.98576e-05
-7.66357e-05
4.24467e-05
-6.43946e-05
6.82318e-05
-4.72361e-05
9.55976e-05
-3.18441e-05
0.000118946
-1.2794e-05
0.000127664
-1.27655e-05
0.000134459
-3.45051e-05
9.23375e-05
-0.000380322
8.59668e-05
9.19998e-05
0.000330099
-8.72992e-05
-1.67668e-06
-9.0171e-05
9.26092e-06
-8.73357e-05
3.05576e-05
-7.94589e-05
5.7511e-05
-6.57802e-05
8.67759e-05
-5.07095e-05
0.000114463
-3.12597e-05
0.000137412
-2.55005e-05
0.000140399
-3.56955e-05
0.00013565
-0.000404733
0.000116749
0.000124767
5.31993e-05
0.000138513
0.000191585
-7.9125e-05
-8.17419e-06
-8.8692e-05
-3.15574e-06
-9.26385e-05
1.45637e-05
-9.09647e-05
4.20634e-05
-8.22706e-05
7.40014e-05
-6.91603e-05
0.000105227
-5.15064e-05
0.00013471
-4.09565e-05
0.000152868
-3.46749e-05
0.000139379
-0.000340115
7.10319e-05
-0.000115279
0.000356795
0.000158552
3.31597e-05
-0.000109483
0.000301068
-6.46321e-05
-1.44929e-05
-8.05094e-05
-1.63568e-05
-9.1502e-05
-4.29227e-06
-9.72747e-05
2.08736e-05
-9.50574e-05
5.48502e-05
-8.63408e-05
9.1182e-05
-7.23421e-05
0.000126062
-5.77941e-05
0.000151547
-3.56328e-05
0.000153826
-0.000287817
8.70809e-05
-0.000426564
0.000382317
6.82061e-05
0.000447141
-9.84734e-05
2.21498e-05
7.18079e-05
0.00022926
-4.49128e-05
-1.97194e-05
-6.59114e-05
-2.90909e-05
-8.33082e-05
-2.45506e-05
-9.65883e-05
-4.97864e-06
-0.000102082
2.78984e-05
-0.000100731
6.92399e-05
-9.23041e-05
0.000111144
-7.6193e-05
0.000144461
-4.14224e-05
0.000157337
-0.000239034
0.000105043
-0.000658903
0.00031942
-2.28736e-08
0.000450546
-3.11433e-05
0.000379811
7.63921e-05
1.75656e-05
-7.21089e-05
-2.18192e-05
-2.30936e-05
-4.60222e-05
-3.96085e-05
-6.83795e-05
-4.40197e-05
-8.84099e-05
-3.27291e-05
-0.000102333
-4.72789e-06
-0.000110012
3.71801e-05
-0.000109186
8.61216e-05
-9.55776e-05
0.000130529
-5.00541e-05
0.000153093
-0.000202692
0.000120994
-0.000695332
0.000141471
-5.1336e-05
0.000370733
9.20979e-06
0.000410193
4.06853e-05
0.000415518
-7.80279e-05
3.39952e-06
-2.52187e-05
-2.25758e-05
-4.65399e-05
-4.79318e-05
-6.00561e-05
-7.28397e-05
-5.95899e-05
-9.42133e-05
-4.08489e-05
-0.000111282
-3.45823e-06
-0.000120149
4.81435e-05
-0.000113408
0.000103952
-6.05709e-05
0.000141045
-0.000175707
0.000126108
-0.000625196
5.08585e-05
-8.87612e-05
0.000178897
4.70318e-05
0.000332912
4.01046e-05
0.000410774
-3.62761e-05
2.96292e-05
-2.62297e-05
2.97262e-06
-5.07671e-05
-2.38707e-05
-7.0601e-05
-5.12783e-05
-8.16174e-05
-7.80774e-05
-7.57258e-05
-0.000103262
-4.88685e-05
-0.000122811
-7.96806e-07
-0.000126567
6.13027e-05
-7.16639e-05
0.000115045
-0.000159013
0.000124351
-0.000546052
4.69634e-05
-0.000112322
7.44192e-05
4.86681e-05
0.000177261
3.39525e-05
0.000339064
-1.02819e-05
5.59124e-05
-2.62831e-05
2.94257e-05
-5.26828e-05
2.18944e-06
-7.68273e-05
-2.60987e-05
-9.57806e-05
-5.54415e-05
-0.000104253
-8.56041e-05
-9.3384e-05
-0.000114798
-5.68811e-05
-0.000131412
4.04825e-06
-8.12943e-05
7.09331e-05
-0.000150939
0.000106971
-0.000473353
5.16526e-05
-0.000122746
5.7388e-05
3.95358e-05
8.35516e-05
1.54272e-05
0.000195786
8.93362e-06
8.18464e-05
-2.59341e-05
5.58836e-05
-5.27411e-05
2.91577e-05
-7.9651e-05
8.88886e-07
-0.000103815
-2.87679e-05
-0.000122454
-6.05302e-05
-0.000129327
-9.59122e-05
-0.00011227
-0.000122556
-6.57367e-05
-8.57199e-05
8.47382e-06
-0.000145691
6.56851e-05
-0.00041794
5.15577e-05
-0.000108099
3.70053e-05
3.82655e-05
5.86583e-05
-1.92759e-06
0.000100906
1.50787e-05
0.000107295
-2.54483e-05
8.18955e-05
-5.1946e-05
5.59542e-05
-7.95377e-05
2.85378e-05
-0.0001073
-3.48493e-07
-0.000132234
-3.16739e-05
-0.00015131
-6.89451e-05
-0.000156294
-0.000101231
-0.000133595
-7.988e-05
-7.15766e-05
-0.000132287
-4.93008e-06
-0.000379181
2.69262e-05
-0.000111967
5.54252e-05
4.54373e-05
2.98335e-05
-1.57707e-05
7.25013e-05
1.91385e-05
0.000132218
-2.49237e-05
0.000107398
-5.09504e-05
8.2036e-05
-7.80278e-05
5.5697e-05
-0.000106697
2.83546e-05
-0.000136003
-1.68881e-06
-0.000162219
-3.76812e-05
-0.000182574
-7.24014e-05
-0.000185124
-6.40295e-05
-0.000149446
-0.000107874
-9.59895e-05
-0.000330386
-5.37253e-05
-0.000166669
8.16288e-05
5.58902e-05
4.49721e-05
-2.26691e-05
3.67318e-05
2.49223e-05
0.000156385
-2.41667e-05
0.0001324
-4.99257e-05
0.000107528
-7.64426e-05
8.20047e-05
-0.000104336
5.61952e-05
-0.000134538
2.78369e-05
-0.000165529
-4.98838e-06
-0.000194912
-3.896e-05
-0.000216016
-3.88074e-05
-0.000210346
-7.3793e-05
-0.000183526
-0.000259081
-0.000167294
-0.00023619
1.5795e-05
7.93037e-05
5.82152e-05
-1.26918e-05
3.49948e-05
2.66373e-05
0.000179432
-2.30473e-05
0.000156684
-4.84507e-05
0.000132648
-7.5046e-05
0.000107686
-0.000102124
8.24538e-05
-0.000130594
5.59405e-05
-0.000162641
2.67917e-05
-0.000197309
-4.31242e-06
-0.00022956
-5.17761e-06
-0.000249646
-3.45005e-05
-0.000249638
-0.000182914
-0.000259694
-0.000247236
-0.000156248
9.34122e-05
1.68645e-06
2.15429e-05
2.39805e-05
2.26813e-05
0.000200928
-2.14959e-05
0.000179885
-4.62482e-05
0.000157182
-7.29842e-05
0.000133077
-0.000100437
0.000107899
-0.000127569
8.22961e-05
-0.00015695
5.57357e-05
-0.000191585
2.86447e-05
-0.000230266
2.87452e-05
-0.000263483
1.12192e-05
-0.000295365
-0.000110195
-0.000322358
-0.000194648
-0.000312281
0.000102806
-0.000165642
7.2212e-05
-4.89826e-05
1.26588e-05
0.000220476
-1.95481e-05
0.000201531
-4.31427e-05
0.000180684
-6.97506e-05
0.000158025
-9.79325e-05
0.000133438
-0.000125976
0.000107932
-0.000153205
8.19071e-05
-0.000183121
5.92599e-05
-0.0002222
5.83946e-05
-0.000259915
6.36199e-05
-0.000315883
-3.39457e-05
-0.000371615
-0.000119185
-0.00039782
9.63526e-05
-0.000305828
8.89402e-05
-0.00018237
-5.5303e-06
0.00023777
-1.72941e-05
0.000221217
-3.92332e-05
0.00020266
-6.51185e-05
0.000181982
-9.37076e-05
0.000158898
-0.000123393
0.000133979
-0.000152022
0.00010768
-0.000178979
8.67561e-05
-0.000210618
8.72901e-05
-0.000251096
0.000118971
-0.000315266
4.35626e-05
-0.000393392
-5.27671e-05
-0.000438033
8.36603e-05
-0.000385128
7.69673e-05
-0.000293855
-1.0948e-05
0.000252661
-1.48902e-05
0.000238614
-3.46915e-05
0.000222606
-5.91788e-05
0.000204448
-8.75849e-05
0.000183538
-0.000118348
0.000160234
-0.000149647
0.00013423
-0.000178572
0.000112592
-0.000204815
0.000120017
-0.000243345
0.00017477
-0.000306895
0.000133088
-0.000404792
-2.23891e-05
-0.00042377
7.44384e-05
-0.000428811
6.05922e-05
-0.000368752
1.04287e-07
0.000265092
-1.24312e-05
0.000253593
-2.98693e-05
0.000240166
-5.22516e-05
0.000224805
-7.95354e-05
0.000206723
-0.000110769
0.00018568
-0.000143795
0.000161087
-0.000176504
0.000138706
-0.000204687
0.000148825
-0.000233622
0.000225044
-0.000293619
0.000217541
-0.000391348
-4.98074e-05
-0.000377374
6.41906e-05
-0.000413522
4.37604e-05
-0.000411979
1.0732e-05
0.000275026
-9.93454e-06
0.000266108
-2.49467e-05
0.00025524
-4.49437e-05
0.000242692
-7.0139e-05
0.00022761
-0.000100423
0.000209735
-0.000134824
0.000187092
-0.000169799
0.000164366
-0.000202163
0.000169376
-0.000225237
0.00026106
-0.000269639
0.000249911
-0.000325989
-8.78854e-05
-0.00035327
6.16105e-05
-0.000374794
3.648e-05
-0.000406242
1.56117e-05
0.000282413
-7.38629e-06
0.00027617
-1.99961e-05
0.000267878
-3.75847e-05
0.000258018
-6.02698e-05
0.000245766
-8.82947e-05
0.00023139
-0.000122078
0.000212036
-0.000159768
0.000188488
-0.000193921
0.000183947
-0.000216734
0.000284992
-0.000249169
0.000244095
-0.000263823
-7.44948e-05
-0.000339379
7.08087e-05
-0.000362469
3.80066e-05
-0.000376321
1.41439e-05
0.00028726
-4.84784e-06
0.000283759
-1.49754e-05
0.000278094
-3.02121e-05
0.000270889
-5.04553e-05
0.00026122
-7.57241e-05
0.000250006
-0.00010691
0.000234392
-0.000144434
0.000209394
-0.000180674
0.000195722
-0.000205696
0.000298331
-0.000230074
0.000239005
-0.000244079
-3.95526e-05
-0.000298765
6.89965e-05
-0.000337567
3.17649e-05
-0.000356227
-3.56244e-06
0.000289306
-2.04571e-06
0.000288733
-9.82139e-06
0.000285795
-2.26765e-05
0.000281435
-4.0758e-05
0.000274212
-6.34478e-05
0.000265772
-9.14899e-05
0.000253953
-0.000126471
0.000228544
-0.000163584
0.000206662
-0.000191614
0.000304194
-0.000211558
0.000249569
-0.000240637
-1.01889e-05
-0.000273443
4.92816e-05
-0.000279049
1.59913e-05
-0.000321793
-2.45046e-05
0.00028855
7.56435e-07
0.000290903
-4.2155e-06
0.000290876
-1.49026e-05
0.000289703
-3.09446e-05
0.000285046
-5.15923e-05
0.000279265
-7.69411e-05
0.00026996
-0.000107497
0.000246552
-0.000144479
0.000218255
-0.000175177
0.000308804
-0.000196225
0.000274576
-0.000236565
8.77874e-06
-0.000259604
2.47947e-05
-0.000248955
1.06489e-05
-0.000273707
-2.33491e-05
0.000285637
2.91312e-06
0.000290347
1.31176e-06
0.000293383
-6.72254e-06
0.000295393
-2.05923e-05
0.00029363
-3.95283e-05
0.000290802
-6.3129e-05
0.000282868
-8.98488e-05
0.000261902
-0.000122848
0.00023189
-0.000158115
0.000315352
-0.000181725
0.000306492
-0.000228142
1.7538e-05
-0.000245325
4.811e-06
-0.000239621
8.74988e-06
-0.000247056
-1.06227e-05
0.000280184
5.45285e-06
0.000286879
6.3813e-06
0.000293
1.69457e-06
0.000297892
-9.22138e-06
0.000299729
-2.66914e-05
0.000300598
-4.93246e-05
0.000294045
-7.43065e-05
0.000275228
-0.000103174
0.000246883
-0.00013784
0.00032569
-0.000168453
0.000347568
-0.000222801
2.18382e-05
-0.000232442
-1.05042e-05
-0.00023001
2.58109e-06
-0.000233452
-3.11986e-06
0.000272375
7.80832e-06
0.000281048
1.12841e-05
0.000289438
9.94414e-06
0.000297123
2.46313e-06
0.000303
-1.24919e-05
0.000307888
-3.39809e-05
0.000304063
-5.93418e-05
0.000287335
-8.64135e-05
0.00026218
-0.000118471
0.000345266
-0.000157416
0.000395459
-0.000216343
2.26168e-05
-0.00022358
-2.88658e-05
-0.000214081
-4.6115e-06
-0.000222818
-1.04864e-06
0.000262918
9.45767e-06
0.000273272
1.55839e-05
0.000283338
1.73838e-05
0.000293478
1.35891e-05
0.000302773
2.69021e-06
0.000311181
-1.5785e-05
0.00031246
-4.23778e-05
0.000297956
-6.99635e-05
0.000274856
-9.9089e-05
0.000380549
-0.000153754
0.000450071
-0.000212028
1.89325e-05
-0.000212658
-5.51263e-05
-0.00019732
-8.11505e-06
-0.000210577
-1.23447e-06
0.000252155
1.07624e-05
0.000263879
1.88506e-05
0.000275133
2.37884e-05
0.000287098
2.37639e-05
0.000298615
1.7747e-05
0.000310298
3.5725e-06
0.000318814
-2.21395e-05
0.000305725
-5.01468e-05
0.000279643
-7.47505e-05
0.000429226
-0.000147767
0.000501897
-0.00020558
1.22622e-05
-0.000205358
-8.0714e-05
-0.00018707
-4.85925e-06
-0.000200575
-2.28569e-07
1.12746e-05
0.000240881
0.000253164
2.14779e-05
0.000265266
2.87175e-05
0.000278528
3.23584e-05
0.000291384
3.09949e-05
0.000306089
2.19563e-05
0.000320286
2.10074e-06
0.000311182
-2.75966e-05
0.000269583
-4.00866e-05
0.000467978
-0.000113502
0.00054114
-0.000187011
-1.30269e-05
-0.00018029
-9.87568e-05
-0.000187315
-1.27437e-06
-0.000190655
4.01362e-06
2.28157e-05
0.000241622
2.75871e-05
0.000213293
0.00025415
3.25939e-05
0.000268229
3.9017e-05
0.000281752
4.19907e-05
0.000298503
3.85812e-05
0.000315283
2.69594e-05
0.000309062
4.22066e-06
0.000245999
-4.01273e-06
0.000472842
-4.49511e-05
0.000562076
-0.000134438
-5.89049e-05
-0.000141133
-0.000115288
-0.000163759
-6.10853e-06
-0.000182481
1.09597e-05
3.48023e-05
0.000242164
5.60591e-05
0.00021315
2.34378e-05
0.000189856
0.000256659
4.41638e-05
0.00027032
5.0449e-05
0.000288534
5.19598e-05
0.000306187
4.76772e-05
0.000301686
3.43355e-05
0.000227393
2.28261e-05
0.000436865
3.19648e-05
0.000550884
-3.37586e-05
-9.69004e-05
-9.64425e-05
-0.000133659
-0.000122762
-1.23163e-05
-0.000157551
1.06681e-05
4.74153e-05
0.000244046
8.56654e-05
0.000212557
4.78673e-05
0.000188721
1.52639e-05
0.000174592
0.000257676
5.68071e-05
0.000276746
6.22366e-05
0.000294378
6.37685e-05
0.000291295
5.80687e-05
0.000220361
4.13681e-05
0.000381448
7.82426e-05
0.000504789
7.8059e-05
-8.83982e-05
-4.22609e-05
-0.0001465
-8.36021e-05
-8.55175e-06
-0.000126527
-2.95517e-06
6.09307e-05
0.000244161
0.000117341
0.00021237
7.36064e-05
0.000186818
3.27936e-05
0.000171191
9.46775e-07
0.000173645
0.000263615
6.99387e-05
0.000280741
7.58739e-05
0.000278913
7.61501e-05
0.000218554
5.98753e-05
0.000328142
9.46738e-05
0.000455086
0.000127946
9.34705e-06
-1.96862e-05
-0.000137257
-5.15035e-05
9.46707e-06
-0.000101621
-2.43537e-05
7.55318e-05
0.000249013
0.000150615
0.000210887
0.000102623
0.000183353
5.19815e-05
0.00016763
4.47775e-06
0.00016766
-1.8101e-05
0.000191746
0.000265822
8.48572e-05
0.000264382
9.04047e-05
0.000216442
7.8262e-05
0.000289662
9.83557e-05
0.000421335
0.000128425
0.00014646
-9.16666e-06
-0.00010516
-5.17828e-05
2.42109e-05
-6.62472e-05
-4.52892e-05
9.11245e-05
0.000250229
0.000187899
0.00021173
0.000134019
0.00017949
7.49528e-05
0.000160382
1.10396e-05
0.000161068
-2.97134e-05
0.000179273
-5.60182e-05
0.000247764
0.000247699
0.00010154
0.000211593
9.52536e-05
0.000261973
0.000105951
0.000393014
0.000126676
0.000219894
5.49914e-05
-7.2613e-05
-4.17136e-05
-2.83754e-07
-2.7288e-05
-5.53208e-05
0.000109868
0.000228955
0.000227843
0.000210285
0.000170264
0.000175485
0.000101277
0.000153166
2.48005e-05
0.000146621
-3.60481e-05
0.000167403
-9.92264e-05
0.000222481
-5.79944e-05
0.000305759
0.000203313
0.000109821
0.000240485
0.000116742
0.000357595
0.00014137
0.000233037
0.000113534
-4.69948e-05
2.93734e-05
-5.66753e-05
1.46782e-05
-4.24879e-05
0.00012131
0.000191871
0.000277564
0.000179233
0.00020986
0.000170689
0.000133041
0.000143722
4.55714e-05
0.000132395
-3.34054e-05
0.000143979
-0.000126427
0.000194604
-0.000126897
0.000291384
-9.45731e-05
0.000400332
0.000223083
0.000127223
0.000314379
0.000159958
0.000212762
0.000161645
-4.2535e-05
0.000109074
-8.41295e-05
5.68276e-05
-2.62157e-05
0.000137565
0.000206828
0.000317777
0.000151659
0.000255638
0.000133455
0.000169429
0.000134301
7.46439e-05
0.000114649
-2.23868e-05
0.000121377
-0.000143901
0.000161453
-0.000207128
0.000274835
-0.000196117
0.000392928
1.52345e-05
0.000385097
0.000268793
0.000172808
0.000175006
0.000197714
-5.19994e-05
0.000171109
-8.77771e-05
0.000112721
-3.10728e-05
0.000182894
0.000223465
0.000366341
0.000158263
0.000304526
0.000102771
0.000213677
8.92079e-05
0.000111622
9.7323e-05
1.0964e-05
8.12986e-05
-0.000139898
0.000117374
-0.000276265
0.00023059
-0.00029603
0.000374747
5.90963e-06
0.000402253
6.6802e-05
0.000318295
0.000120833
0.00022698
-7.25068e-05
0.000218221
-8.9904e-05
0.000173236
-3.96119e-05
0.000262099
4.16278e-05
0.000483429
0.000106377
0.000379647
8.31425e-05
0.000266083
5.03644e-05
0.000160016
4.0814e-05
6.48913e-05
4.33957e-05
-7.48817e-05
1.62822e-05
-0.000281658
0.000122767
-0.000369522
0.000304083
-3.84949e-05
0.000419151
0.000120923
0.000348132
0.00254023
0.000966722
-0.00318865
-0.000108287
0.00026276
-0.000101489
0.000229805
-4.78089e-05
0.000321933
-0.000168121
0.000808483
-0.000283426
0.000586728
-0.000100705
0.000357857
-8.63125e-06
0.000216952
-6.57163e-06
0.000131327
-2.56217e-05
3.41698e-05
-6.56559e-05
-0.000167107
-9.82689e-05
-0.000400301
0.000153546
-0.000147327
0.000412915
0.000155545
0.000384529
0.00190695
0.000981407
0.0032653
0.00138271
-0.00368129
0.000821186
-0.00400984
-0.000130164
0.000291435
-5.92888e-05
0.000371868
-0.000180099
0.00105904
-0.000418676
0.000985826
-0.000682524
0.0005277
-0.000270547
0.000296644
-8.83236e-05
0.000193774
-6.90191e-05
0.000140169
-0.000131621
3.38392e-05
-0.000266602
-0.000324664
-0.000173906
-0.000286169
0.000292388
0.000138878
0.000429582
0.00137997
0.000911514
0.00285116
0.00139554
0.00320777
0.00173497
-0.00356003
0.00127277
-0.00413287
0.000637424
-0.00464726
-7.7258e-05
-0.000103814
0.00126148
-0.000382538
0.00140951
-0.000842362
0.000665076
-0.000819899
0.000307391
-0.000281294
0.000247968
-0.000142517
0.000202702
-0.000131552
0.000207084
-0.000304866
-0.000109604
-0.000481663
-0.000313909
-0.000146166
4.06149e-05
0.00039065
0.000999266
0.000810282
0.00248034
0.00128234
0.00289311
0.00171021
0.00289877
0.00196442
-0.00312822
0.00165584
-0.00394311
0.00111429
-0.00460974
0.000464813
-0.00511208
-0.000198417
0.00174577
-0.000718797
0.00100949
-0.00118677
0.000219517
-0.000732024
0.000201594
-0.00023492
0.000248181
-0.000187996
0.000237316
-0.000161784
0.000173098
-0.000587568
-0.000198921
-0.000596651
-0.000106534
9.82623e-07
0.000760098
0.000629819
0.0021474
0.00114321
0.00261651
0.00155894
0.00268616
0.00192282
0.00232643
0.00212309
-0.0024851
0.00193962
-0.00341199
0.0014534
-0.00428222
0.000818773
-0.0049637
0.000260228
-0.0053723
-0.000348681
0.00134265
-0.00105196
0.00029555
-0.0012628
4.40706e-06
-0.000534837
0.000233551
-0.00022029
0.000200298
-0.000150978
0.000359117
-0.000347803
6.54894e-05
-0.000851978
-0.000229058
-0.000474126
0.000444923
0.000316157
0.00181567
0.000961552
0.00236563
0.00139409
0.00246913
0.00177597
0.00223056
0.00201869
0.00161048
0.00217573
-0.00166313
0.00212742
-0.0026729
0.00172211
-0.00368069
0.00110887
-0.00457232
0.000481113
-0.00518458
4.17391e-05
-0.00541404
-0.000553823
0.000369689
-0.0011261
-0.000223126
-0.00103527
9.21293e-05
-0.000393415
0.000177216
-0.000197207
0.000240014
-3.18758e-05
0.000494434
-0.000776747
-0.000194138
-0.000886898
6.36798e-05
-9.28829e-05
0.00145192
0.00067991
0.00208098
0.00124621
0.00227149
0.00159173
0.00211137
0.00189515
0.00158453
0.00204464
0.000798828
0.000521187
-0.000707075
0.000520717
0.000521191
0.000520881
0.0021574
-0.00169311
0.00191257
-0.00286337
0.00135627
-0.00392809
0.000646252
-0.00473746
2.48652e-05
-0.00516771
-0.000251075
-0.00516297
-0.000559651
-0.000548401
-0.000800822
-0.000189564
-0.000753574
8.816e-05
-0.000304357
0.000117322
-7.45138e-05
0.000641224
-0.000178666
7.92331e-05
-0.00105012
-0.000230324
-0.000592895
0.000983167
0.000375867
0.00174732
0.00101357
0.00205245
0.00146524
0.00193538
0.00176773
0.00159255
0.00188713
0.000780716
0.00206275
-5.31548e-07
2.63991e-05
-1.76105e-05
0.00051293
0.0005231
-0.000693595
0.000522574
0.000549351
0.000548898
2.64418e-05
-1.74617e-05
0.000511206
-4.19928e-07
2.26991e-05
0.000525311
2.30643e-05
0.000523838
0.00199711
-0.00177764
0.0015592
-0.00306629
0.000850891
-0.00413273
5.4089e-05
-0.00476668
-0.000473716
-0.00494507
-0.000500515
-0.00466245
-0.000280153
-0.000495368
-0.000495017
-0.0001157
-0.000549711
4.86766e-05
-0.00023571
0.000443717
0.000122995
0.000729724
-0.000829157
-0.000442
-0.000838442
0.000461431
-7.11581e-05
0.00133654
0.000786649
0.0017937
0.00127232
0.00172202
0.00167859
0.00152016
0.00184013
0.000753935
0.00191391
4.10486e-05
4.03571e-05
0.000112177
0.000475105
0.000474272
0.000482584
0.000482973
-5.18546e-07
-1.31731e-05
0.000519182
-3.41293e-07
-7.35699e-05
9.35442e-05
0.000493297
-0.000697781
0.0020013
-1.28892e-05
0.000517483
-4.5004e-07
1.89013e-05
0.000517727
1.94475e-05
0.000516111
-7.33486e-05
9.38671e-05
0.000490346
-2.17079e-07
0.000493007
0.00049063
0.00169584
-0.00191429
0.00107604
-0.00329144
0.000215111
-0.00429375
-0.000596395
-0.004644
-0.000991354
-0.00445423
-0.000727917
-0.00393454
-0.000126251
-0.000251613
-0.000359104
-5.27511e-05
-0.000448281
0.000333253
-0.000125244
0.000985219
-0.000132498
-4.11246e-05
-0.00123003
8.48387e-05
-0.00046185
0.000842401
0.000422978
0.00149637
0.00108398
0.00145703
0.00153731
0.00137329
0.00182545
0.000705194
0.00188887
0.000209036
0.000447578
0.000447972
0.000460919
0.000460583
1.66418e-07
-0.000121756
0.000142565
0.00045413
-0.000122556
0.000144031
0.000452962
-2.16026e-07
-0.000100103
0.000461146
-0.000100594
0.000460796
-3.92842e-07
0.000108935
0.000504183
1.1179e-06
-0.000176356
0.000204627
0.000125991
0.000104699
0.000128035
0.000105185
-0.000717888
0.00171595
-0.00012808
-0.000129062
0.000483881
0.000450918
0.000451123
0.000455956
0.000454911
0.000109635
0.000501322
-4.25354e-07
0.000499008
0.000496259
-0.000176602
0.00020526
0.000125512
0.000105157
0.000127328
0.000104808
9.94528e-07
0.000126857
0.000101474
0.000123588
0.000106302
0.000126287
0.000103311
0.000123224
0.000106232
0.00125671
-0.00209496
0.000461844
-0.00353818
-0.000505317
-0.00438483
-0.00127896
-0.00435639
-0.00141521
-0.00376693
-0.000878467
-0.00305607
-8.89266e-05
-7.11542e-05
-0.000340703
0.000257808
-0.000372834
0.00100471
-0.000144727
0.000391181
-0.0005648
-0.000393996
-0.000751196
0.000379625
9.26974e-07
0.00109095
0.000828401
0.00116853
0.00137249
0.00114498
0.00176562
0.000643164
0.00188748
0.000259295
0.000453503
0.000453217
0.000466454
0.000465433
-1.80822e-07
-9.04788e-05
0.000438135
-9.05029e-05
0.000437699
-1.93513e-07
-7.36955e-05
0.000444329
-7.37033e-05
0.00044359
4.28641e-07
-0.000191556
4.85838e-05
6.93526e-05
8.66163e-05
4.95439e-05
0.000109109
9.2575e-05
0.000116739
7.27078e-05
-0.000191435
4.86154e-05
6.93015e-05
4.93692e-05
8.66733e-05
0.000108999
9.25816e-05
0.000116591
7.26949e-05
6.78359e-07
-0.000172861
9.89491e-05
0.000122152
9.80496e-05
0.000122576
-0.000172156
9.93329e-05
0.00012208
9.82544e-05
0.000122528
1.21034e-06
0.000239256
0.000130688
0.000102593
0.000125732
0.00010933
6.84061e-05
8.4407e-06
2.22512e-07
-6.70945e-05
0.000116016
-8.58082e-06
-6.87269e-05
7.20124e-05
0.000109994
1.65003e-07
7.21304e-05
0.000115565
-6.62452e-05
0.000111144
-0.000791843
0.00133066
0.000617819
0.000393093
0.000393338
0.000397655
0.000397923
-2.24358e-07
-0.000261343
0.000293867
0.000418619
-0.000260446
0.000293494
0.00041785
2.35864e-07
-0.000257881
0.000452259
-0.000257535
0.000452237
0.000239913
0.000130073
0.000103573
0.000125294
0.00010894
8.04491e-07
0.000128109
0.000110469
0.000132672
0.000108328
0.000127619
0.000111912
0.000131957
0.000107953
6.84036e-05
8.5808e-06
-6.71042e-05
0.000115854
-8.39131e-06
-6.84897e-05
7.19274e-05
0.000110111
7.20651e-05
0.00011544
-6.63154e-05
0.000111215
-6.36144e-05
8.95478e-06
2.25428e-07
0.000114196
-1.63733e-05
5.98288e-05
0.000106602
2.12622e-07
0.000112739
0.00010884
-6.37401e-05
8.9666e-06
0.000114181
-1.59989e-05
6.02848e-05
0.000107641
0.000112999
0.000109168
0.000672369
-0.00230548
-0.000278309
-0.00376518
-0.00125174
-0.00441205
-0.00174443
-0.00402718
-0.00163478
-0.00301062
-0.000773865
-0.0022822
-0.000108127
0.000250759
-0.000333657
0.000785766
-0.000153897
0.000569321
-0.000322873
-0.000274266
-0.000684534
-0.000157048
-0.000214522
0.000631153
0.00046072
0.00086669
0.00113024
0.000870987
0.00164648
0.000567314
0.00184147
0.000242697
0.000473735
0.000472974
0.000478987
0.000478385
-1.00964e-07
-6.42888e-05
0.000444197
-6.37763e-05
0.000443189
-1.45335e-07
-5.11541e-05
0.000453465
-5.05391e-05
0.00045205
1.07039e-06
-0.000161287
9.61099e-05
0.000118926
9.38758e-05
0.000116545
-0.000160834
9.68158e-05
0.000118897
9.51585e-05
0.000116566
1.36697e-06
-0.000139391
9.37199e-05
0.000115935
9.40542e-05
0.000117363
-0.000139358
9.48637e-05
0.00011592
9.53796e-05
0.000117337
-4.82908e-06
-5.89e-05
5.6598e-05
9.37473e-05
-7.67316e-06
6.88151e-05
9.5004e-05
-5.96486e-05
-6.73909e-08
0.00010384
6.01881e-05
-7.13774e-06
-5.89708e-05
9.97836e-05
4.10733e-09
-5.88131e-05
0.000108778
1.90975e-08
7.50307e-05
0.000102706
-7.75527e-06
6.8871e-05
9.58943e-05
-4.62733e-06
-5.87263e-05
5.60782e-05
9.39487e-05
-5.95732e-05
6.00578e-05
0.00010382
-7.04216e-06
-5.89007e-05
9.97981e-05
-5.87715e-05
0.000108752
7.50403e-05
0.000102918
-8.04313e-06
5.86801e-05
-5.73684e-05
0.00010568
5.84013e-05
-1.29716e-09
-5.7724e-05
0.000113432
-8.05894e-06
0.000105818
8.13702e-09
0.000114128
-7.88737e-06
5.86346e-05
-5.74633e-05
0.000106049
5.83574e-05
-5.76639e-05
0.000113498
-7.9698e-06
0.000105958
0.000114152
-7.5513e-05
7.87177e-06
2.69196e-07
8.15533e-05
0.000116507
-8.39618e-06
7.53301e-05
0.000107671
1.98844e-07
0.000113754
8.15577e-05
0.000110974
8.01603e-05
2.111e-06
-2.86313e-08
-7.94079e-05
0.000113181
-1.64743e-06
-7.94442e-05
8.29572e-05
0.000108129
-8.39471e-08
8.2965e-05
0.000111179
-7.65094e-05
0.00011032
-0.000903131
0.000783656
0.000649419
0.000316915
0.00031659
0.000332714
0.000332844
-1.97958e-07
-0.000310231
0.000327237
0.000376284
-0.000310118
0.000327372
0.000375886
-2.00232e-07
0.000381491
0.000381099
5.84973e-07
-0.000342503
0.0003947
7.73091e-05
9.92959e-05
8.35252e-05
0.000105674
-0.000342873
0.000395029
7.76936e-05
9.92178e-05
8.37464e-05
0.000105621
4.50135e-07
-9.50494e-05
-7.67475e-05
0.000110387
-0.000101648
0.000132244
9.81497e-05
0.000122216
-8.02593e-05
-9.50688e-05
-7.67546e-05
0.000111055
-0.000102029
0.000132269
9.85243e-05
0.000122217
-8.03982e-05
-7.55848e-05
8.04885e-06
8.1476e-05
0.000116402
-8.22968e-06
7.56373e-05
0.000108092
0.000113744
8.13469e-05
0.000111279
8.21766e-05
8.35122e-06
1.89129e-07
0.000118945
-1.58928e-05
-8.38129e-05
0.000115126
1.5861e-07
0.000122034
0.000114424
8.21856e-05
8.34672e-06
0.000118752
-1.5452e-05
-8.34959e-05
0.000115791
0.000122094
0.000114151
8.01437e-05
1.87855e-06
-7.93638e-05
0.000113167
-1.38507e-06
-7.95059e-05
8.29771e-05
0.000108025
8.29658e-05
0.000111149
-7.64487e-05
0.000110036
2.56891e-06
1.14242e-08
0.000107258
0.000103715
2.48873e-06
0.000107381
0.000104079
-8.50333e-05
-0.00249876
-0.00106236
-0.00395457
-0.00173723
-0.00441926
-0.00193809
-0.00372387
-0.00150424
-0.00228025
-0.000597268
-0.00168494
-0.000117167
0.000667906
-0.000215796
0.000503946
-8.8527e-05
-4.13027e-05
-0.000555843
-0.000424502
-0.000417084
0.000194475
0.000222155
0.000536148
0.000791262
0.000609519
0.00139171
0.000470709
0.00174309
0.000164252
0.000476795
0.000476307
0.000483469
0.000483344
-6.75332e-08
-4.14475e-05
0.000464096
-4.10022e-05
0.00046337
-1.85376e-07
-3.48156e-05
0.000472541
-3.46026e-05
0.0004718
1.28911e-06
-0.000119824
9.42576e-05
0.000116787
9.53481e-05
0.000116983
-0.000120028
9.54388e-05
0.000116626
9.63234e-05
0.000116753
1.22156e-06
-0.000103819
0.000100156
0.000119431
9.78966e-05
0.000118727
-0.000105076
0.000101472
0.000119327
9.89211e-05
0.000118575
-7.83517e-06
-5.66634e-05
0.00010324
-5.73331e-05
-1.45243e-08
0.000110729
-8.01666e-06
-5.42466e-05
9.94804e-05
-3.41189e-08
-5.51518e-05
0.000106416
-7.63921e-06
-5.69776e-05
0.000103969
-5.73343e-05
0.000110913
-7.62571e-06
-5.45995e-05
0.000100406
-5.51698e-05
0.000106732
-8.11699e-06
5.06738e-05
-4.60135e-05
9.71724e-05
5.11364e-05
2.54255e-08
-4.6841e-05
0.000103517
-8.20294e-06
9.8679e-05
-4.16737e-09
0.00010513
-7.81201e-06
5.08592e-05
-4.63118e-05
9.81283e-05
5.11608e-05
-4.68284e-05
0.00010381
-7.89205e-06
9.95313e-05
0.000105442
-1.72342e-06
5.11632e-05
-7.31571e-07
-4.03686e-05
-4.19397e-05
-1.02729e-08
-6.5426e-08
5.42399e-05
-1.031e-06
-3.57079e-05
-1.22237e-08
-3.59865e-05
-1.63512e-06
5.11861e-05
-7.05116e-07
-4.03828e-05
5.42001e-05
-4.19378e-05
-1.00681e-06
-3.57444e-05
-3.60019e-05
-1.15594e-06
3.47676e-05
-3.44182e-05
3.47473e-05
-3.75969e-08
-3.43933e-05
-1.25383e-06
-1.9886e-08
-1.07801e-06
3.48031e-05
-3.45447e-05
3.47582e-05
-3.44363e-05
-1.22809e-06
-8.72827e-05
1.38115e-06
-3.67383e-08
9.19333e-05
0.000110525
-1.39057e-06
8.73122e-05
0.000104707
-8.722e-08
0.000108149
9.22921e-05
0.000107375
4.79875e-05
1.03785e-06
1.76299e-08
-4.9442e-05
-7.16611e-07
-4.79162e-05
4.88084e-05
-2.20858e-08
4.87011e-05
-4.81977e-05
-0.00106085
7.26821e-05
0.000597753
0.000193854
0.000193524
0.000224147
0.000223796
-2.4225e-08
-0.000328803
0.000348107
0.000297635
-0.000329151
0.000348816
0.000296899
-1.4737e-08
0.000331163
0.000331051
1.24991e-06
-0.000441274
0.000454853
8.17543e-05
0.000104825
7.6842e-05
9.80081e-05
-0.000441697
0.000455106
8.29716e-05
0.000104786
7.79439e-05
9.80447e-05
8.69337e-07
7.05173e-05
9.03275e-05
7.56728e-05
9.74968e-05
7.09724e-05
9.03326e-05
7.66032e-05
9.73831e-05
-7.40576e-06
-9.92332e-05
0.000108846
7.51018e-05
-9.97004e-05
-2.93898e-08
0.000109913
8.17569e-05
-7.3409e-06
-9.18438e-05
8.34768e-05
-3.25368e-09
-9.21143e-05
9.07501e-05
-7.2457e-06
-9.9091e-05
0.00010859
7.54406e-05
-9.96624e-05
0.000109813
8.17921e-05
-7.27493e-06
-9.17074e-05
8.36379e-05
-9.21064e-05
9.07864e-05
-6.25662e-06
8.5546e-05
-9.89107e-05
0.000130008
-9.32917e-06
-9.71257e-05
0.000119932
8.48706e-05
-1.12731e-07
0.000136958
-9.56922e-05
-7.54023e-06
9.93921e-05
-4.49687e-08
0.000107477
1.20132e-08
-9.36354e-05
0.000126051
-5.92251e-06
8.55195e-05
-9.91151e-05
0.000130573
-9.33671e-06
-9.71443e-05
0.000120243
8.48959e-05
0.000137092
-9.57551e-05
-7.38177e-06
9.97181e-05
0.00010758