/*--------------------------------*- C++ -*----------------------------------*\
| =========                 |                                                 |
| \\      /  F ield         | OpenFOAM: The Open Source CFD Toolbox           |
|  \\    /   O peration     | Version:  5.x                                   |
|   \\  /    A nd           | Web:      www.OpenFOAM.org                      |
|    \\/     M anipulation  |                                                 |
\*---------------------------------------------------------------------------*/
FoamFile
{
    version     2.0;
    format      ascii;
    class       volScalarField;
    location    "2.7";
    object      rAU;
}
// * * * * * * * * * * * * * * * * * * * * * * * * * * * * * * * * * * * * * //

dimensions      [-1 3 1 0 0 0 0];

internalField   nonuniform List<scalar> 
12160
(
1.32012e-06
1.32013e-06
1.3201e-06
1.32019e-06
1.32007e-06
1.32005e-06
1.32034e-06
1.3201e-06
1.32e-06
1.32003e-06
1.32045e-06
1.32021e-06
1.32e-06
1.31994e-06
1.32e-06
1.32053e-06
1.32029e-06
1.32008e-06
1.31993e-06
1.31986e-06
1.31997e-06
1.32053e-06
1.32039e-06
1.32032e-06
1.31996e-06
1.31983e-06
1.3198e-06
1.31992e-06
1.32052e-06
1.32042e-06
1.32039e-06
1.32018e-06
1.31983e-06
1.31977e-06
1.31969e-06
1.31991e-06
1.32052e-06
1.32044e-06
1.32042e-06
1.32032e-06
1.32007e-06
1.31972e-06
1.31965e-06
1.32702e-06
2.58528e-06
1.32033e-06
1.32045e-06
1.32044e-06
1.32038e-06
1.32032e-06
1.31997e-06
1.31963e-06
1.32545e-06
2.15015e-06
3.60236e-05
1.31992e-06
1.32038e-06
1.32045e-06
1.32041e-06
1.32038e-06
1.32036e-06
1.31981e-06
1.32262e-06
2.02196e-06
2.4351e-05
0.000584248
1.3201e-06
1.32041e-06
1.32045e-06
1.32043e-06
1.32041e-06
1.32053e-06
1.32022e-06
1.32238e-06
1.83893e-06
2.03607e-05
0.000691249
0.00129629
1.3205e-06
1.32051e-06
1.32044e-06
1.32043e-06
1.32043e-06
1.32052e-06
1.32053e-06
1.32276e-06
1.7185e-06
1.38833e-05
0.000736432
0.0013103
0.00131818
1.32051e-06
1.3205e-06
1.32051e-06
1.32043e-06
1.32043e-06
1.32052e-06
1.32053e-06
1.32263e-06
1.61412e-06
1.04434e-05
0.000934415
0.0013135
0.0013195
0.00131821
1.32052e-06
1.32051e-06
1.32052e-06
1.32052e-06
1.32047e-06
1.32052e-06
1.32053e-06
1.32269e-06
1.53251e-06
7.84679e-06
0.000603382
0.00131728
0.00131684
0.00131979
0.00131822
1.32052e-06
1.32052e-06
1.32052e-06
1.32052e-06
1.32052e-06
1.32052e-06
1.32053e-06
1.32258e-06
1.47487e-06
6.06945e-06
0.000276159
0.00131819
0.00131704
0.00131705
0.00131984
1.32053e-06
1.32052e-06
1.32052e-06
1.32052e-06
1.32052e-06
1.32052e-06
1.32052e-06
1.32255e-06
1.43803e-06
4.82822e-06
0.000146551
0.00131299
0.00131914
0.00131704
0.00131713
1.32053e-06
1.32053e-06
1.32052e-06
1.32052e-06
1.32052e-06
1.32052e-06
1.32052e-06
1.32257e-06
1.41596e-06
4.01974e-06
8.83365e-05
0.00130263
0.00131977
0.00131757
0.00131731
1.32053e-06
1.32053e-06
1.32053e-06
1.32052e-06
1.32052e-06
1.32052e-06
1.32025e-06
1.32258e-06
1.4032e-06
3.5222e-06
5.91278e-05
0.00126942
0.00132016
0.00131893
0.00131781
1.32053e-06
1.32053e-06
1.32053e-06
1.32053e-06
1.32052e-06
1.32052e-06
1.31998e-06
1.32159e-06
1.39527e-06
3.22155e-06
4.38723e-05
0.00121767
0.00132008
0.00131972
0.0013189
1.32054e-06
1.32053e-06
1.32053e-06
1.32053e-06
1.32053e-06
1.32052e-06
1.32026e-06
1.32043e-06
1.39215e-06
3.02725e-06
3.55743e-05
0.00115897
0.00131999
0.00131988
0.00131967
1.32054e-06
1.32054e-06
1.32053e-06
1.32053e-06
1.32053e-06
1.32053e-06
1.32052e-06
1.32003e-06
1.39382e-06
2.89179e-06
3.08763e-05
0.00110584
0.00132008
0.00132009
0.00131991
1.32054e-06
1.32054e-06
1.32054e-06
1.32053e-06
1.32053e-06
1.32053e-06
1.32053e-06
1.32081e-06
1.39679e-06
2.79949e-06
2.7726e-05
0.000978805
0.0013198
0.00132008
0.00132008
1.32055e-06
1.32054e-06
1.32054e-06
1.32054e-06
1.32053e-06
1.32053e-06
1.32024e-06
1.32159e-06
1.40333e-06
2.76953e-06
2.56999e-05
0.000735432
0.00131935
0.00132009
0.00132001
1.32055e-06
1.32055e-06
1.32054e-06
1.32054e-06
1.32054e-06
1.32054e-06
1.32037e-06
1.32212e-06
1.42e-06
2.82719e-06
2.50469e-05
0.000584988
0.0013167
0.00132032
0.00132016
1.32055e-06
1.32055e-06
1.32055e-06
1.32054e-06
1.32054e-06
1.32054e-06
1.32057e-06
1.32463e-06
1.45173e-06
3.0494e-06
2.61839e-05
0.000509116
0.00131328
0.00131906
0.00131972
1.32055e-06
1.32055e-06
1.32055e-06
1.32055e-06
1.32054e-06
1.32054e-06
1.32065e-06
1.32985e-06
1.51071e-06
3.51273e-06
3.04959e-05
0.000491172
0.00130677
0.0013191
0.00131604
1.32056e-06
1.32055e-06
1.32055e-06
1.32055e-06
1.32055e-06
1.32054e-06
1.32079e-06
1.33743e-06
1.60132e-06
4.35221e-06
4.08736e-05
0.000518582
0.00130242
0.0013184
0.00131276
1.32056e-06
1.32056e-06
1.32055e-06
1.32055e-06
1.32055e-06
1.32055e-06
1.32099e-06
1.34808e-06
1.72503e-06
5.86999e-06
6.32954e-05
0.000629491
0.00130169
0.00131908
0.00131151
1.32055e-06
1.32056e-06
1.32056e-06
1.32055e-06
1.32055e-06
1.32055e-06
1.32124e-06
1.36133e-06
1.89656e-06
8.55739e-06
0.000106125
0.000807745
0.00130244
0.00131961
0.00131145
1.32055e-06
1.32056e-06
1.32055e-06
1.32056e-06
1.32053e-06
1.32055e-06
1.32146e-06
1.37491e-06
2.10085e-06
1.26172e-05
0.000174091
0.000950994
0.00130825
0.00131809
0.00131149
1.32054e-06
1.32055e-06
1.32053e-06
1.32055e-06
1.32056e-06
1.32053e-06
1.32155e-06
1.3845e-06
2.30428e-06
1.79615e-05
0.00026668
0.00105625
0.0013139
0.00131671
0.00131219
1.32055e-06
1.32054e-06
1.32051e-06
1.32053e-06
1.32056e-06
1.32056e-06
1.3215e-06
1.38956e-06
2.45922e-06
2.37639e-05
0.000371026
0.00113865
0.0013143
0.0013186
0.00131088
1.31987e-06
1.32052e-06
1.32051e-06
1.32051e-06
1.32051e-06
1.32056e-06
1.32135e-06
1.38789e-06
2.53971e-06
2.87142e-05
0.000456407
0.00119919
0.00131504
0.00131767
0.00131115
1.31921e-06
1.3205e-06
1.3205e-06
1.32051e-06
1.32041e-06
1.32051e-06
1.32116e-06
1.38163e-06
2.52466e-06
3.17188e-05
0.000510326
0.00123089
0.0013156
0.00131766
0.00131221
1.3199e-06
1.32047e-06
1.32054e-06
1.32052e-06
1.32041e-06
1.32009e-06
1.32098e-06
1.37231e-06
2.44312e-06
3.1874e-05
0.000539923
0.00124287
0.00131621
0.00131773
0.00131296
1.32056e-06
1.3205e-06
1.32045e-06
1.32054e-06
1.32047e-06
1.32018e-06
1.32044e-06
1.36278e-06
2.31502e-06
3.00041e-05
0.000546786
0.00125054
0.00131719
0.00131786
0.00131335
1.32056e-06
1.32051e-06
1.3205e-06
1.32042e-06
1.32053e-06
1.32038e-06
1.32038e-06
1.35459e-06
2.17867e-06
2.68075e-05
0.000539165
0.00125573
0.00131752
0.00131919
0.00131359
1.32056e-06
1.32051e-06
1.32051e-06
1.32046e-06
1.32046e-06
1.32054e-06
1.32057e-06
1.34811e-06
2.05626e-06
2.33535e-05
0.000522531
0.00126025
0.00131771
0.00131854
0.00131448
1.31982e-06
1.32052e-06
1.32051e-06
1.32045e-06
1.32046e-06
1.32047e-06
1.32059e-06
1.34268e-06
1.94848e-06
2.00666e-05
0.000499182
0.00126632
0.00131792
0.00131843
0.00131393
1.31977e-06
1.32024e-06
1.32052e-06
1.32043e-06
1.32045e-06
1.32047e-06
1.32037e-06
1.33731e-06
1.85493e-06
1.67155e-05
0.000460777
0.0012827
0.00131808
0.00131854
0.00131407
1.31977e-06
1.32018e-06
1.3205e-06
1.32042e-06
1.32043e-06
1.32044e-06
1.3202e-06
1.33399e-06
1.79128e-06
1.32306e-05
0.00039284
0.00129836
0.00131797
0.00131867
0.0013144
1.31965e-06
1.32017e-06
1.32042e-06
1.32052e-06
1.32042e-06
1.32039e-06
1.32008e-06
1.3324e-06
1.73382e-06
1.02102e-05
0.000289489
0.00130107
0.00131767
0.00131898
0.0013155
1.31965e-06
1.32005e-06
1.3205e-06
1.32043e-06
1.31981e-06
1.32032e-06
1.32001e-06
1.33145e-06
1.68096e-06
8.14938e-06
0.000190997
0.0012819
0.00131878
0.00131929
0.00131682
1.31947e-06
1.32005e-06
1.32039e-06
1.32049e-06
1.31982e-06
1.3197e-06
1.32002e-06
1.33074e-06
1.63554e-06
6.92216e-06
0.000128858
0.00121859
0.00131929
0.00131972
0.00131743
1.3192e-06
1.31983e-06
1.32039e-06
1.32041e-06
1.31985e-06
1.31973e-06
1.32003e-06
1.33035e-06
1.60055e-06
6.17612e-06
9.71192e-05
0.00113947
0.0013194
0.00131997
0.00131832
1.32938e-06
1.31962e-06
1.3202e-06
1.32041e-06
1.32047e-06
1.31962e-06
1.31984e-06
1.32001e-06
1.57585e-06
5.68063e-06
8.04939e-05
0.0010614
0.00131996
0.00131992
0.00131912
1.5602e-06
1.32986e-06
1.32026e-06
1.32026e-06
1.32051e-06
1.32045e-06
1.31992e-06
1.31981e-06
1.31879e-06
5.35336e-06
7.13218e-05
0.00100234
0.00131929
0.0013199
0.00132036
5.14938e-06
1.55264e-06
1.33175e-06
1.32069e-06
1.32041e-06
1.32048e-06
1.32031e-06
1.32012e-06
1.3189e-06
1.31608e-06
6.62824e-05
0.000970997
0.00131874
0.00131968
0.00131967
6.32468e-05
4.99641e-06
1.57572e-06
1.33514e-06
1.3216e-06
1.32054e-06
1.32048e-06
1.32041e-06
1.31873e-06
1.31608e-06
1.3157e-06
0.000957228
0.00131854
0.00131923
0.00131882
0.000945787
5.97038e-05
5.14826e-06
1.6276e-06
1.34204e-06
1.32336e-06
1.32134e-06
1.32073e-06
1.31871e-06
1.31606e-06
1.31543e-06
1.31691e-06
0.00131849
0.00131878
0.00131791
0.00131882
0.000905443
5.65335e-05
5.53356e-06
1.71571e-06
1.35206e-06
1.33396e-06
1.32571e-06
1.31982e-06
1.31858e-06
1.31548e-06
1.31657e-06
1.31862e-06
1.31978e-06
0.00131828
0.001317
0.00131858
0.00131607
0.00066559
5.50814e-05
6.21447e-06
1.82802e-06
1.37218e-06
1.3623e-06
1.32397e-06
1.31839e-06
1.31761e-06
1.31642e-06
1.31853e-06
1.31811e-06
1.31848e-06
1.31586e-06
0.00131596
0.00131533
0.00131833
0.00120554
0.00043795
6.33075e-05
7.37118e-06
1.94703e-06
1.44266e-06
1.36368e-06
1.31897e-06
1.31672e-06
1.31672e-06
1.31842e-06
1.31814e-06
1.31813e-06
1.31821e-06
1.31827e-06
1.30656e-06
0.00131338
0.00129794
0.000855174
0.000424447
8.45438e-05
8.72116e-06
2.05393e-06
1.54486e-06
1.32936e-06
1.31901e-06
1.31671e-06
1.31842e-06
1.31803e-06
1.31814e-06
1.31828e-06
1.31872e-06
1.31845e-06
1.31409e-06
1.28606e-06
0.00131027
0.00114067
0.00077402
0.000565941
0.000108685
9.33487e-06
2.24901e-06
1.53304e-06
1.31951e-06
1.3186e-06
1.31786e-06
1.31694e-06
1.31803e-06
1.31815e-06
1.29705e-06
1.31985e-06
1.32041e-06
1.31855e-06
1.31581e-06
1.29297e-06
0.00128907
0.00107821
0.00101529
0.00086247
0.000129206
8.19576e-06
3.19498e-06
1.41297e-06
1.31743e-06
1.31837e-06
1.31844e-06
1.31694e-06
1.31823e-06
1.31104e-06
1.31148e-06
1.30519e-06
1.32307e-06
1.32115e-06
1.31833e-06
1.31761e-06
1.32015e-06
0.00127738
0.00121978
0.00125727
0.0011078
0.000105075
1.25301e-05
3.49558e-06
1.33056e-06
1.31796e-06
1.31846e-06
1.31845e-06
1.31834e-06
1.31824e-06
1.31173e-06
1.28833e-06
1.31865e-06
1.28834e-06
1.29029e-06
1.29029e-06
1.32254e-06
1.32339e-06
1.31873e-06
1.31809e-06
1.31833e-06
1.32129e-06
0.0012918
0.00130129
0.00129863
0.00111994
9.30664e-05
3.63588e-05
1.75319e-06
1.31682e-06
1.31829e-06
1.3183e-06
1.31844e-06
1.31837e-06
1.31855e-06
1.32336e-06
1.28654e-06
1.28301e-06
1.31996e-06
1.28657e-06
1.28709e-06
1.28708e-06
1.283e-06
1.28446e-06
1.28443e-06
1.32344e-06
1.32024e-06
1.31843e-06
1.31826e-06
1.31933e-06
1.32228e-06
0.00130307
0.00131089
0.00130671
0.000890588
0.000289382
3.72553e-05
1.33011e-06
1.31764e-06
1.3183e-06
1.3183e-06
1.31847e-06
1.31256e-06
1.32346e-06
1.28916e-06
1.28898e-06
1.28635e-06
1.286e-06
1.28241e-06
1.2922e-06
1.32239e-06
1.32103e-06
1.28242e-06
1.27511e-06
1.27505e-06
1.29173e-06
1.2872e-06
1.28692e-06
1.32297e-06
1.31868e-06
1.31852e-06
1.31871e-06
1.33154e-06
1.32269e-06
0.00131104
0.00131273
0.00130479
0.001108
0.00113679
5.92331e-06
1.3175e-06
1.31789e-06
1.31833e-06
1.31851e-06
1.30715e-06
1.32198e-06
1.28742e-06
1.28738e-06
1.29041e-06
1.29051e-06
1.30097e-06
1.30096e-06
1.28603e-06
1.28602e-06
1.2965e-06
1.12218e-06
1.19145e-06
1.13619e-06
1.19621e-06
1.32281e-06
1.32405e-06
1.28988e-06
1.2898e-06
1.29107e-06
1.29051e-06
1.29649e-06
1.29082e-06
1.29032e-06
1.12409e-06
1.21084e-06
1.13804e-06
1.2178e-06
1.09853e-06
1.19884e-06
1.1264e-06
1.19514e-06
1.09844e-06
1.19885e-06
1.12621e-06
1.19492e-06
1.31912e-06
1.31869e-06
1.30341e-06
1.33837e-06
1.38956e-06
1.32266e-06
0.00131657
0.00130934
0.00130757
0.00131159
0.00104703
2.48085e-06
1.31661e-06
1.31796e-06
1.31843e-06
1.31318e-06
1.32017e-06
1.29057e-06
1.29069e-06
1.29155e-06
1.29149e-06
1.28666e-06
1.28664e-06
1.29628e-06
1.29632e-06
1.14853e-06
1.19259e-06
1.16635e-06
1.22931e-06
1.16042e-06
1.12311e-06
1.19757e-06
1.14887e-06
1.16819e-06
1.23022e-06
1.15985e-06
1.12286e-06
1.22314e-06
1.15057e-06
1.23619e-06
1.16393e-06
1.21797e-06
1.14969e-06
1.2363e-06
1.16399e-06
1.143e-06
1.20284e-06
1.137e-06
1.19855e-06
1.11648e-06
1.23035e-06
1.14085e-06
1.22832e-06
1.31997e-06
1.32396e-06
1.28933e-06
1.28948e-06
1.28804e-06
1.28799e-06
1.29441e-06
1.29464e-06
1.28227e-06
1.28105e-06
1.14337e-06
1.21435e-06
1.13686e-06
1.21368e-06
1.11086e-06
1.20613e-06
1.10005e-06
1.20923e-06
1.11145e-06
1.20776e-06
1.09879e-06
1.21224e-06
1.11999e-06
1.23057e-06
1.14677e-06
1.22854e-06
1.09864e-06
1.20552e-06
1.0986e-06
1.2114e-06
1.31882e-06
1.31899e-06
1.33631e-06
1.6755e-06
1.44366e-06
1.32218e-06
0.0013152
0.00130752
0.00130919
0.00130907
0.000259643
1.80077e-06
1.31682e-06
1.31784e-06
1.31711e-06
1.32096e-06
1.28865e-06
1.28856e-06
1.288e-06
1.28797e-06
1.29348e-06
1.2932e-06
1.29286e-06
1.29258e-06
1.22591e-06
1.14725e-06
1.23592e-06
1.15076e-06
1.22081e-06
1.14749e-06
1.23601e-06
1.15128e-06
1.2201e-06
1.14094e-06
1.23111e-06
1.15742e-06
1.22256e-06
1.14162e-06
1.23107e-06
1.15799e-06
1.18337e-06
8.46006e-07
1.04491e-06
1.13428e-06
1.13034e-06
1.11906e-06
1.18281e-06
8.46402e-07
1.1343e-06
1.05168e-06
1.13199e-06
1.11769e-06
1.2321e-06
1.16324e-06
1.23973e-06
1.17113e-06
1.23331e-06
1.16278e-06
1.23976e-06
1.17116e-06
1.14128e-06
1.19846e-06
1.14366e-06
1.18378e-06
1.16403e-06
1.24612e-06
1.17022e-06
1.18661e-06
1.31905e-06
1.32232e-06
1.2886e-06
1.28881e-06
1.28981e-06
1.28994e-06
1.29394e-06
1.29378e-06
1.29272e-06
1.29289e-06
1.21921e-06
1.13817e-06
1.2175e-06
1.16218e-06
1.21888e-06
1.1381e-06
1.22549e-06
1.16216e-06
1.22876e-06
1.16867e-06
1.18921e-06
1.24614e-06
1.16948e-06
1.08474e-06
1.21491e-06
1.17622e-06
1.18897e-06
1.24632e-06
1.16937e-06
1.08441e-06
1.14629e-06
1.21541e-06
1.14937e-06
1.20432e-06
1.1152e-06
1.20159e-06
1.1168e-06
1.2141e-06
1.16841e-06
1.24606e-06
1.17264e-06
1.21421e-06
1.13075e-06
1.24685e-06
1.13258e-06
1.2468e-06
1.31888e-06
1.32486e-06
1.82358e-06
2.50748e-06
1.44266e-06
1.32104e-06
0.00130894
0.0013042
0.00131158
0.00129918
3.65738e-05
1.83861e-06
1.3169e-06
1.3161e-06
1.31707e-06
1.28972e-06
1.28973e-06
1.28914e-06
1.28918e-06
1.28618e-06
1.28618e-06
1.28566e-06
1.28566e-06
1.21921e-06
1.14437e-06
1.22354e-06
1.15123e-06
1.22169e-06
1.13359e-06
1.22582e-06
1.14051e-06
1.22704e-06
1.13835e-06
1.22363e-06
1.13479e-06
1.22709e-06
1.13817e-06
1.22369e-06
1.1347e-06
1.22977e-06
1.14894e-06
1.23216e-06
1.15281e-06
1.23077e-06
1.15055e-06
1.23592e-06
1.15307e-06
1.24284e-06
1.16509e-06
1.22152e-06
1.16065e-06
1.24129e-06
1.16549e-06
1.22418e-06
1.16096e-06
1.1672e-06
1.2311e-06
1.16854e-06
1.23103e-06
1.31906e-06
1.31994e-06
1.29144e-06
1.29152e-06
1.28906e-06
1.28924e-06
1.29023e-06
1.28996e-06
1.28752e-06
1.2871e-06
1.22262e-06
1.14914e-06
1.22372e-06
1.13924e-06
1.22294e-06
1.14904e-06
1.22406e-06
1.13847e-06
1.21317e-06
1.1257e-06
1.22603e-06
1.14897e-06
1.2128e-06
1.1258e-06
1.2265e-06
1.14863e-06
1.22715e-06
1.15896e-06
1.17778e-06
1.14111e-06
1.2275e-06
1.15906e-06
1.19195e-06
1.14112e-06
1.21588e-06
1.15273e-06
1.0832e-06
1.16971e-06
1.20713e-06
1.12723e-06
1.20859e-06
1.15306e-06
1.08192e-06
1.1698e-06
1.20718e-06
1.12698e-06
1.16815e-06
1.23114e-06
1.16855e-06
1.23333e-06
1.17241e-06
1.22413e-06
1.17344e-06
1.22672e-06
1.31894e-06
1.36622e-06
3.0296e-06
2.55715e-06
1.35488e-06
1.32015e-06
0.00130825
0.00130889
0.00130644
0.00110492
3.52765e-05
2.17038e-06
1.32128e-06
1.31708e-06
1.32253e-06
1.28224e-06
1.28252e-06
1.28336e-06
1.28362e-06
1.30185e-06
1.30184e-06
1.28901e-06
1.28905e-06
1.23302e-06
1.16451e-06
1.23023e-06
1.16695e-06
1.23125e-06
1.16404e-06
1.23221e-06
1.16679e-06
1.19484e-06
1.13487e-06
1.20868e-06
1.13795e-06
1.19615e-06
1.13468e-06
1.21063e-06
1.13774e-06
1.11705e-06
9.99648e-07
1.11664e-06
9.99498e-07
1.31903e-06
1.3193e-06
1.28207e-06
1.28219e-06
1.27873e-06
1.27895e-06
1.29204e-06
1.29205e-06
1.29051e-06
1.29045e-06
1.20009e-06
1.0617e-06
1.18606e-06
1.09336e-06
1.20023e-06
1.06068e-06
1.1859e-06
1.09279e-06
1.17976e-06
1.13931e-06
1.21741e-06
1.1434e-06
1.17922e-06
1.13927e-06
1.21744e-06
1.14277e-06
1.23206e-06
1.15602e-06
1.21887e-06
1.14043e-06
1.23188e-06
1.15659e-06
1.21888e-06
1.13992e-06
1.2118e-06
1.13237e-06
1.22106e-06
1.15238e-06
1.21207e-06
1.13275e-06
1.2213e-06
1.15235e-06
1.31954e-06
1.55362e-06
3.09129e-06
1.76928e-06
1.3266e-06
1.32023e-06
0.00130917
0.00130691
0.000999591
0.000313315
7.92655e-05
3.42987e-06
1.37152e-06
1.33762e-06
1.27302e-06
1.27311e-06
1.28335e-06
1.28339e-06
1.2799e-06
1.27995e-06
1.26891e-06
1.26896e-06
1.15052e-06
1.21858e-06
1.16718e-06
1.2142e-06
1.15107e-06
1.22283e-06
1.16691e-06
1.21958e-06
1.12083e-06
1.22678e-06
1.13687e-06
1.21268e-06
1.1272e-06
1.22708e-06
1.14261e-06
1.21688e-06
1.2531e-06
1.13766e-06
1.24513e-06
1.14784e-06
1.25891e-06
1.13841e-06
1.24887e-06
1.14834e-06
1.21307e-06
1.1073e-06
1.21874e-06
1.13406e-06
1.21253e-06
1.10756e-06
1.2187e-06
1.13397e-06
1.3188e-06
1.31955e-06
1.30728e-06
1.27013e-06
1.26964e-06
1.29218e-06
1.29197e-06
1.28989e-06
1.29091e-06
1.26494e-06
1.26466e-06
1.14439e-06
1.06995e-06
1.2106e-06
1.13616e-06
1.14555e-06
1.07155e-06
1.21201e-06
1.13756e-06
1.2233e-06
1.13675e-06
1.22165e-06
1.15338e-06
1.2229e-06
1.13703e-06
1.22158e-06
1.15337e-06
1.15397e-06
1.10488e-06
1.15462e-06
1.10503e-06
1.32208e-06
1.89041e-06
3.10301e-06
1.43361e-06
1.31933e-06
1.32003e-06
0.00130552
0.00106752
0.00030433
0.000100497
2.66925e-05
9.54517e-06
1.85181e-06
1.51935e-06
1.29378e-06
1.29383e-06
1.28522e-06
1.28563e-06
1.22422e-06
1.13315e-06
1.13569e-06
1.22791e-06
1.22432e-06
1.13314e-06
1.13588e-06
1.22811e-06
1.28598e-06
1.29859e-06
1.16172e-06
1.14745e-06
1.1248e-06
1.21172e-06
1.15766e-06
1.1613e-06
1.12524e-06
1.21727e-06
1.16899e-06
1.23259e-06
1.16571e-06
1.2468e-06
1.16631e-06
1.2324e-06
1.16554e-06
1.24679e-06
1.13518e-06
8.89004e-07
1.13553e-06
8.91442e-07
1.31881e-06
1.31991e-06
1.32076e-06
1.26844e-06
1.2683e-06
1.2724e-06
1.27316e-06
1.28358e-06
1.28476e-06
1.28796e-06
1.2888e-06
1.14733e-06
1.18933e-06
1.14069e-06
1.19888e-06
1.14569e-06
1.18859e-06
1.1418e-06
1.19765e-06
1.14484e-06
1.17916e-06
1.13593e-06
1.19465e-06
1.14349e-06
1.17741e-06
1.13664e-06
1.19435e-06
1.21468e-06
1.14507e-06
1.20968e-06
1.14658e-06
1.21374e-06
1.14527e-06
1.20999e-06
1.14685e-06
1.16241e-06
1.13391e-06
1.20943e-06
1.14723e-06
1.16215e-06
1.13348e-06
1.2094e-06
1.14705e-06
1.32199e-06
1.76989e-06
1.66023e-06
1.33849e-06
1.31873e-06
0.00127186
0.000421349
0.000134023
6.52351e-05
2.59503e-05
5.96919e-06
5.32081e-06
1.64503e-06
1.64515e-06
2.42359e-06
2.42443e-06
1.19425e-06
1.10485e-06
1.20355e-06
1.1261e-06
1.20125e-06
1.10457e-06
1.20696e-06
1.12599e-06
1.28193e-06
1.2822e-06
1.21392e-06
1.14099e-06
1.11195e-06
1.19637e-06
1.20893e-06
1.13285e-06
1.11808e-06
1.19474e-06
1.22656e-06
1.04464e-06
1.23416e-06
1.12241e-06
1.22135e-06
1.11939e-06
1.22863e-06
1.13417e-06
1.14898e-06
1.24664e-06
1.1829e-06
1.20265e-06
1.14901e-06
1.24647e-06
1.18269e-06
1.20279e-06
1.32087e-06
1.31852e-06
1.32123e-06
1.30303e-06
1.25568e-06
1.25775e-06
1.29391e-06
1.29418e-06
1.27026e-06
1.26974e-06
1.19051e-06
1.08985e-06
1.06321e-06
1.18001e-06
1.19027e-06
1.09132e-06
1.06216e-06
1.17971e-06
1.15625e-06
1.21409e-06
1.15684e-06
1.21699e-06
1.15537e-06
1.21361e-06
1.15576e-06
1.2157e-06
1.12514e-06
1.16353e-06
1.10768e-06
1.18828e-06
1.1259e-06
1.16359e-06
1.10856e-06
1.18816e-06
1.15388e-06
1.1011e-06
1.15526e-06
1.1014e-06
1.31742e-06
1.52796e-06
1.38095e-06
1.32782e-06
0.000932204
0.000276902
0.00017087
8.94333e-05
2.37044e-05
8.2407e-06
6.08482e-06
6.08065e-06
4.32943e-06
4.32624e-06
2.18655e-06
2.18118e-06
4.28801e-06
4.26737e-06
1.19622e-06
1.10763e-06
1.19824e-06
1.12279e-06
1.20316e-06
1.10738e-06
1.20073e-06
1.12263e-06
1.13861e-06
1.53501e-06
1.14901e-06
1.38799e-06
1.14202e-06
1.53442e-06
1.14906e-06
1.38862e-06
1.22968e-06
1.17766e-06
1.16333e-06
1.21424e-06
1.23308e-06
1.17772e-06
1.16098e-06
1.21988e-06
1.16457e-06
1.13099e-06
1.23512e-06
1.12206e-06
1.16422e-06
1.1422e-06
1.23508e-06
1.1289e-06
1.32679e-06
1.31722e-06
1.31927e-06
1.31242e-06
1.2717e-06
1.27173e-06
1.27228e-06
1.27277e-06
1.2498e-06
1.25039e-06
1.21025e-06
1.09611e-06
1.12147e-06
1.0801e-06
1.21073e-06
1.09887e-06
1.12268e-06
1.08143e-06
1.20422e-06
1.13666e-06
1.19386e-06
1.14639e-06
1.13292e-06
1.08613e-06
1.20414e-06
1.13629e-06
1.19259e-06
1.14649e-06
1.13174e-06
1.08483e-06
1.20194e-06
1.12155e-06
1.20061e-06
1.12142e-06
1.03284e-06
1.17845e-06
1.12267e-06
1.11585e-06
1.0327e-06
1.17887e-06
1.12188e-06
1.11606e-06
1.32053e-06
1.39172e-06
1.34099e-06
0.000806369
0.000509305
0.000514431
0.000205311
2.56346e-05
1.3822e-05
4.82499e-06
4.86735e-06
4.10295e-06
4.10126e-06
2.84506e-06
1.67703e-06
2.18318e-06
4.33217e-06
2.52261e-06
1.25074e-06
1.67721e-06
2.82673e-06
1.25052e-06
2.17248e-06
4.31956e-06
2.51001e-06
1.49539e-05
6.54356e-06
1.27814e-05
6.13918e-06
1.49758e-05
6.56246e-06
1.25797e-05
6.11168e-06
1.18064e-06
1.1351e-06
1.15388e-06
1.13587e-06
1.17874e-06
1.13501e-06
1.16561e-06
1.14066e-06
1.13286e-06
1.44816e-06
1.13183e-06
1.44911e-06
1.06815e-06
1.16953e-06
1.06256e-06
1.16934e-06
9.28778e-07
1.10342e-06
9.26045e-07
1.10327e-06
1.3202e-06
1.38364e-06
1.31962e-06
1.31951e-06
1.25e-06
1.25067e-06
1.26566e-06
1.26817e-06
1.27471e-06
1.27453e-06
1.23951e-06
1.23914e-06
1.08523e-06
1.10266e-06
1.06073e-06
1.18892e-06
1.08347e-06
1.10953e-06
1.08665e-06
1.1044e-06
1.06128e-06
1.18904e-06
1.0835e-06
1.10814e-06
1.20059e-06
1.12199e-06
1.19794e-06
1.12107e-06
1.19524e-06
1.13075e-06
1.158e-06
1.19915e-06
1.09901e-06
1.14895e-06
1.19526e-06
1.13076e-06
1.1607e-06
1.19975e-06
1.09919e-06
1.1492e-06
1.18329e-06
1.11175e-06
1.18172e-06
1.1124e-06
1.34357e-06
1.35548e-06
0.0010956
0.00111882
0.00103134
0.000386515
0.000199329
1.30561e-05
1.27616e-05
0.000102099
0.000102699
4.17022e-06
4.30017e-06
4.22869e-06
4.2097e-06
1.9757e-06
3.61142e-06
2.9306e-06
1.3601e-06
9.60669e-06
7.41536e-06
1.97257e-06
3.55188e-06
1.35832e-06
2.92774e-06
9.56142e-06
7.4129e-06
1.47519e-05
4.74062e-06
1.52268e-05
1.4408e-05
1.4826e-05
5.11734e-06
1.5226e-05
1.46344e-05
9.24799e-07
1.07752e-06
9.51859e-07
1.08713e-06
1.32036e-06
1.4267e-06
1.40915e-06
1.31993e-06
1.30806e-06
1.24624e-06
1.24892e-06
1.28996e-06
1.28959e-06
1.09732e-06
1.05666e-06
1.1628e-06
1.07695e-06
1.09576e-06
1.05649e-06
1.16314e-06
1.07837e-06
1.16284e-06
1.09183e-06
1.00218e-06
1.18487e-06
1.06651e-06
1.04485e-06
1.16185e-06
1.09322e-06
1.00307e-06
1.18474e-06
1.0679e-06
1.04534e-06
1.05551e-06
1.12318e-06
1.1315e-06
1.18597e-06
1.05624e-06
1.1233e-06
1.13338e-06
1.18636e-06
1.16305e-06
1.06943e-06
1.16374e-06
1.06993e-06
1.11957e-06
1.07354e-06
1.10233e-06
9.93784e-07
1.12062e-06
1.07409e-06
1.11318e-06
9.94267e-07
1.34543e-06
0.00125134
0.00127951
0.00118832
0.000808696
0.000216136
2.0465e-05
2.01795e-05
8.85392e-05
8.85443e-05
2.52052e-06
5.66836e-06
2.42599e-06
4.1689e-06
2.51709e-06
6.53352e-06
2.42414e-06
4.38807e-06
5.59033e-06
5.46059e-06
8.80199e-06
2.41354e-06
1.44529e-05
5.14372e-06
1.06397e-05
2.5254e-06
1.4896e-05
6.23659e-06
1.32186e-06
1.33026e-06
1.48453e-06
1.34807e-06
1.31975e-06
1.2338e-06
1.23311e-06
1.25881e-06
1.25918e-06
1.26249e-06
1.27109e-06
1.24297e-06
1.24261e-06
1.11311e-06
1.04879e-06
1.16611e-06
1.08536e-06
1.10934e-06
1.04766e-06
1.16579e-06
1.08599e-06
1.11418e-06
1.11762e-06
9.64151e-07
8.74582e-07
1.15543e-06
1.012e-06
1.11419e-06
1.11686e-06
8.74917e-07
9.64621e-07
1.15486e-06
1.01273e-06
9.02894e-07
1.10332e-06
9.03723e-07
1.1043e-06
0.0012766
0.00130373
0.00128521
0.00103238
0.000444997
0.000445156
0.00083735
0.000838062
4.17209e-05
4.13475e-05
0.000140548
0.000141082
2.51882e-06
4.28742e-06
2.43115e-06
4.01175e-06
2.51445e-06
4.62108e-06
2.42692e-06
4.04518e-06
1.36288e-05
1.52841e-05
6.21424e-06
3.80278e-06
1.34211e-05
1.52398e-05
6.1093e-06
3.75285e-06
7.61913e-06
2.47426e-06
8.85638e-06
2.5935e-06
1.31559e-06
1.37645e-06
1.48563e-06
1.32565e-06
1.30786e-06
1.20558e-06
1.20359e-06
1.2571e-06
1.25677e-06
1.22545e-06
1.22908e-06
1.04618e-06
1.16956e-06
1.07571e-06
1.07017e-06
1.04661e-06
1.16685e-06
1.07661e-06
1.07066e-06
1.17132e-06
1.07791e-06
1.09058e-06
1.02292e-06
1.17208e-06
1.07945e-06
1.09198e-06
1.0244e-06
0.00128981
0.00131653
0.0013012
0.00106325
0.000510524
0.000512925
0.000850825
0.000849701
1.4462e-05
1.74661e-05
8.47825e-05
4.91312e-05
4.71139e-05
9.60941e-05
1.41955e-05
1.73327e-05
8.31022e-05
4.8317e-05
4.58938e-05
9.57992e-05
0.000177817
0.00018075
2.43218e-06
4.49613e-06
2.39639e-06
4.18322e-06
2.43021e-06
4.63836e-06
2.3955e-06
4.17946e-06
6.09577e-06
6.03308e-06
5.99249e-06
5.97777e-06
1.31022e-06
1.43233e-06
1.47931e-06
1.32365e-06
1.24861e-06
1.24872e-06
1.25034e-06
1.26224e-06
1.23291e-06
1.23888e-06
1.24012e-06
1.24311e-06
1.09722e-06
1.05446e-06
1.14289e-06
1.05031e-06
1.07333e-06
1.06193e-06
1.09589e-06
1.05492e-06
1.14189e-06
1.05025e-06
1.07589e-06
1.06242e-06
1.14523e-06
1.0548e-06
1.1483e-06
1.0568e-06
1.17555e-06
1.07699e-06
1.17673e-06
1.07777e-06
0.00129027
0.00131237
0.00128871
0.000912277
0.000912049
0.000991115
0.000991745
0.00071698
0.000712416
0.000821599
0.000820652
2.1683e-05
3.23348e-05
6.93896e-05
6.72503e-05
4.0376e-05
9.82322e-05
2.12001e-05
3.19276e-05
6.83295e-05
6.73118e-05
4.05582e-05
9.87284e-05
0.000582947
0.000537917
0.00032814
0.000301704
0.000583355
0.000538258
0.000330949
0.000299369
1.3223e-06
1.43648e-06
1.38009e-06
1.32291e-06
1.23076e-06
1.23053e-06
1.2699e-06
1.28103e-06
1.22489e-06
1.22681e-06
1.09631e-06
1.05485e-06
1.06585e-06
1.10138e-06
1.05197e-06
1.04175e-06
1.06576e-06
1.11101e-06
1.05148e-06
1.04889e-06
1.09075e-06
1.05557e-06
1.17023e-06
1.10474e-06
1.05102e-06
1.04558e-06
1.16561e-06
1.10227e-06
1.05164e-06
1.04464e-06
1.04918e-06
9.5186e-07
1.04981e-06
9.52292e-07
0.00129694
0.00131316
0.00112515
0.000921807
0.000915603
0.00100481
0.00100573
0.000554855
0.000465841
0.000528575
0.000612329
0.000618548
0.000586534
0.000555173
0.000461381
0.000564409
0.000615319
0.000610989
0.000591157
0.000697618
0.000688783
8.29895e-05
0.000141421
8.59681e-05
0.000143238
0.000287625
0.000133072
0.000289748
0.000135811
1.33412e-06
1.36114e-06
1.34862e-06
1.3084e-06
1.31109e-06
1.26345e-06
1.26681e-06
1.24121e-06
1.24172e-06
1.24174e-06
1.24211e-06
1.09531e-06
1.07276e-06
1.14304e-06
1.09365e-06
1.08335e-06
1.06777e-06
1.08983e-06
1.08309e-06
1.06787e-06
1.07458e-06
1.14312e-06
1.09459e-06
1.11384e-06
9.22784e-07
1.1017e-06
1.0217e-06
1.10211e-06
1.11373e-06
1.02073e-06
9.29365e-07
0.0012943
0.00129102
0.00116268
0.00109513
0.00108478
0.00112101
0.00112129
0.000593154
0.000519706
0.000467566
0.000583541
0.000562723
0.000612342
0.000594165
0.000503978
0.000468248
0.000576829
0.000667416
0.00061266
0.0010319
0.000979161
0.00100769
0.000956833
0.00101993
0.000958863
0.00103068
0.000907734
0.000363316
0.000212278
0.000365063
0.000213061
1.33156e-06
1.33287e-06
1.34517e-06
1.29389e-06
1.30047e-06
1.30174e-06
1.30331e-06
1.22128e-06
1.22158e-06
1.09764e-06
1.07155e-06
1.0593e-06
1.12806e-06
1.06505e-06
1.06625e-06
1.08903e-06
1.0725e-06
1.06031e-06
1.12704e-06
1.06727e-06
1.0669e-06
1.1479e-06
1.14278e-06
1.09103e-06
1.09489e-06
1.1421e-06
1.095e-06
1.14626e-06
1.09105e-06
0.001301
0.00128638
0.00128802
0.00123056
0.00123074
0.00128857
0.00127969
0.00127863
0.00126208
0.00108751
0.00107461
0.00126448
0.00107731
0.00107292
0.000552126
0.000612481
0.000692034
0.000675694
0.00046684
0.000971511
0.000540175
0.000630662
0.000767719
0.000673092
0.000761423
0.001002
0.0011115
0.00110384
0.00110058
0.00108061
1.32468e-06
1.32718e-06
1.33463e-06
1.27267e-06
1.28093e-06
1.27231e-06
1.27447e-06
1.08728e-06
1.04696e-06
1.12991e-06
1.03261e-06
1.08993e-06
1.06995e-06
1.06037e-06
1.08716e-06
1.07148e-06
1.04805e-06
1.09875e-06
1.03626e-06
1.14128e-06
1.0833e-06
1.15686e-06
1.07545e-06
1.13945e-06
1.08595e-06
1.16014e-06
1.07735e-06
1.16225e-06
1.11438e-06
1.16269e-06
1.11472e-06
0.00127138
0.00131838
0.00128378
0.00129019
0.00128385
0.00128989
0.00129657
0.00129536
0.00121557
0.00124071
0.0011621
0.00119896
0.00116586
0.00117688
0.00118312
0.00115626
0.00124135
0.00121733
0.00115898
0.00119965
0.00116378
0.00117617
0.00119004
0.00115536
0.000962693
0.00100902
0.00091259
0.000997962
0.00121752
0.0011789
0.00121716
0.00112608
1.32158e-06
1.33022e-06
1.29002e-06
1.26267e-06
1.27262e-06
1.29108e-06
1.28347e-06
1.28774e-06
1.26099e-06
1.10016e-06
1.06798e-06
1.26572e-06
1.0931e-06
1.06927e-06
1.17485e-06
1.17349e-06
1.08299e-06
1.07604e-06
1.17088e-06
1.08704e-06
1.17133e-06
1.07649e-06
1.18307e-06
1.1293e-06
1.10094e-06
1.03042e-06
1.18419e-06
1.12994e-06
1.10574e-06
1.03496e-06
0.00128893
0.00131463
0.00127333
0.00112158
0.0012121
0.00128699
0.00127055
0.00111683
0.00120789
0.00129137
0.00129671
0.0012986
0.00123355
0.00121687
0.00124222
0.00112057
0.00118035
0.00114662
0.00123445
0.00124278
0.00121321
0.00113543
0.00118133
0.00114333
0.00108083
0.00114391
0.000955997
0.00114359
1.32118e-06
1.32786e-06
1.27993e-06
1.27999e-06
1.28515e-06
1.28639e-06
1.28845e-06
1.2864e-06
1.14264e-06
1.16221e-06
1.09357e-06
1.12461e-06
1.09589e-06
1.06014e-06
1.12078e-06
1.08085e-06
1.15152e-06
1.16531e-06
1.09473e-06
1.12353e-06
1.09701e-06
1.06098e-06
1.12758e-06
1.08185e-06
1.16672e-06
1.10983e-06
1.10717e-06
1.04496e-06
1.16712e-06
1.10749e-06
1.12556e-06
1.04664e-06
0.00130125
0.00129722
0.00128866
0.00129155
0.00130225
0.0012901
0.00129303
0.00119944
0.0011213
0.00120776
0.00113027
0.00123156
0.00117248
0.00122725
0.00114012
0.00128067
0.00122238
0.00115242
0.00120315
0.00111755
0.00119895
0.00113009
0.0012272
0.00116777
0.00122085
0.00113451
0.00128209
0.0012215
0.00114317
0.0012168
0.00119834
0.00116685
0.00111366
0.00121605
0.00119405
0.00116562
0.00111043
1.32188e-06
1.31467e-06
1.2674e-06
1.26973e-06
1.09771e-06
1.1607e-06
1.27199e-06
1.09859e-06
1.16102e-06
1.26815e-06
1.26358e-06
1.26297e-06
1.15638e-06
1.1803e-06
1.05502e-06
1.0788e-06
1.03233e-06
1.07061e-06
1.1577e-06
1.18332e-06
1.08249e-06
1.03341e-06
1.0789e-06
1.07086e-06
1.08843e-06
1.08935e-06
1.13267e-06
1.08973e-06
0.00130464
0.00129031
0.00129511
0.00129557
0.00130139
0.00130572
0.00130565
0.00116082
0.00119375
0.00112161
0.00109112
0.00121696
0.00116377
0.00126255
0.0012362
0.00117018
0.00124794