/*--------------------------------*- C++ -*----------------------------------*\
| =========                 |                                                 |
| \\      /  F ield         | OpenFOAM: The Open Source CFD Toolbox           |
|  \\    /   O peration     | Version:  5.x                                   |
|   \\  /    A nd           | Web:      www.OpenFOAM.org                      |
|    \\/     M anipulation  |                                                 |
\*---------------------------------------------------------------------------*/
FoamFile
{
    version     2.0;
    format      ascii;
    class       volVectorField;
    location    "2.7";
    object      U;
}
// * * * * * * * * * * * * * * * * * * * * * * * * * * * * * * * * * * * * * //

dimensions      [0 1 -1 0 0 0 0];

internalField   nonuniform List<vector> 
12160
(
(0.0612148 0 0.00142668)
(0.0214122 0 0.00310325)
(0.0613238 0 0.00078463)
(0.0358539 0 0.00473114)
(0.0214201 0 0.00186096)
(0.0614212 0 0.00365693)
(0.0138722 0 0.00594109)
(0.035667 0 0.00243287)
(0.0214416 0 0.008249)
(0.0614255 0 0.00284376)
(0.00586498 0 0.00631738)
(0.0137014 0 0.00384843)
(0.0357242 0 0.0119236)
(0.020805 0 0.00691682)
(0.0616711 0 0.00624537)
(-0.0121282 0 0.00600223)
(0.0051309 0 0.00608019)
(0.013791 0 0.0157358)
(0.0339852 0 0.00951372)
(0.02067 0 0.0143004)
(0.0612509 0 0.00490526)
(-0.0259573 0 0.00530485)
(-0.0126038 0 0.00728914)
(0.00562656 0 0.018321)
(0.011604 0 0.0138613)
(0.0338542 0 0.0196931)
(0.0182513 0 0.0128964)
(0.0620629 0 0.0102876)
(-0.0394406 0 0.00464031)
(-0.0263436 0 0.00720005)
(-0.0121567 0 0.0187203)
(0.00270196 0 0.0187281)
(0.0112025 0 0.0260037)
(0.029153 0 0.0169882)
(0.0184605 0 0.0225804)
(0.0560908 0 0.00711013)
(-0.0511485 0 0.00393275)
(-0.0397972 0 0.00669435)
(-0.026425 0 0.0174294)
(-0.0143853 0 0.020849)
(0.00296264 0 0.0300946)
(0.00480275 0 0.0247091)
(0.0294679 0 0.0288431)
(0.00325397 0 0.0213203)
(-0.00385786 0 0.0215836)
(-0.0602465 0 0.00313709)
(-0.0515771 0 0.00554527)
(-0.0400932 0 0.0157726)
(-0.0283659 0 0.0201273)
(-0.0136927 0 0.0312475)
(-0.00215615 0 0.0309234)
(0.00500901 0 0.0362182)
(0.0171355 0 0.0257853)
(-0.0477537 0 0.031946)
(-0.292979 0 -0.000290498)
(-0.0658091 0 0.0021562)
(-0.0608291 0 0.00369688)
(-0.052288 0 0.0133967)
(-0.0417474 0 0.0184089)
(-0.0279382 0 0.0295972)
(-0.0172878 0 0.0341893)
(-0.00174789 0 0.0392914)
(-0.00803737 0 0.037482)
(-0.0199611 0 0.0337859)
(-0.274079 0 0.0257506)
(-0.0519999 0 0.233759)
(-0.0669075 0 0.0010402)
(-0.0665922 0 0.001024)
(-0.0620463 0 0.0100859)
(-0.05414 0 0.0155569)
(-0.042207 0 0.027068)
(-0.0306265 0 0.0336002)
(-0.0164764 0 0.0416499)
(-0.0122927 0 0.0428125)
(-0.0290981 0 0.0433926)
(-0.313186 0 0.0231348)
(0.178571 0 0.029267)
(0.0316597 0 -0.0243431)
(-0.0632039 0 -0.00019244)
(-0.0678963 0 -0.00221247)
(-0.0682709 0 0.0055432)
(-0.0644422 0 0.0111591)
(-0.0557257 0 0.0234424)
(-0.0446287 0 0.0313978)
(-0.0304009 0 0.040636)
(-0.0248099 0 0.0481775)
(-0.0260582 0 0.0441215)
(-0.280072 0 0.0395908)
(0.0197754 0 0.0525683)
(0.165472 0 0.00290711)
(-0.060248 0 0.132099)
(-0.0546887 0 -0.00145544)
(-0.0642763 0 -0.00572847)
(-0.0699251 0 -0.000119336)
(-0.0713909 0 0.00484839)
(-0.0670817 0 0.0178239)
(-0.0583292 0 0.0274075)
(-0.0459265 0 0.0379623)
(-0.0363639 0 0.0487994)
(-0.0251173 0 0.0486494)
(-0.235328 0 0.0426931)
(-0.202108 0 0.0125423)
(0.0816588 0 0.155898)
(-0.111213 0 0.0146926)
(0.0131017 0 0.0482289)
(-0.0416778 0 -0.00258626)
(-0.0556662 0 -0.00927042)
(-0.0664308 0 -0.00630332)
(-0.0736239 0 -0.00283644)
(-0.0748313 0 0.00958737)
(-0.0706435 0 0.0206501)
(-0.0617573 0 0.0336653)
(-0.0492283 0 0.0471587)
(-0.0279428 0 0.0501768)
(-0.191834 0 0.0493672)
(-0.451677 0 0.0175838)
(0.0238359 0 0.201009)
(-0.0323727 0 0.115467)
(0.0903485 0 0.00092597)
(-0.0298918 0 0.0887281)
(-0.0256641 0 -0.00340946)
(-0.042585 0 -0.0123719)
(-0.0576367 0 -0.0124618)
(-0.0703423 0 -0.011432)
(-0.077631 0 -0.000895636)
(-0.0799623 0 0.0105555)
(-0.076199 0 0.0264859)
(-0.0641939 0 0.0426083)
(-0.0332557 0 0.05059)
(-0.164251 0 0.0530406)
(-0.52667 0 0.0174607)
(-0.023707 0 0.169145)
(-0.0107535 0 0.0998002)
(0.028349 0 0.126395)
(-0.0817616 0 0.00732414)
(-0.00743485 0 -0.00396308)
(-0.0264107 0 -0.0144552)
(-0.044226 0 -0.0176979)
(-0.0612958 0 -0.0200488)
(-0.0747379 0 -0.0126855)
(-0.0840948 0 -0.00231889)
(-0.0871251 0 0.0150889)
(-0.0788922 0 0.0335493)
(-0.0409179 0 0.048154)
(-0.13804 0 0.0539082)
(-0.495856 0 0.0246143)
(-0.0581614 0 0.0769489)
(0.0229077 0 0.0810203)
(0.032933 0 0.142887)
(-0.0336446 0 0.114542)
(0.0121883 0 -0.00431111)
(-0.00782024 0 -0.0159054)
(-0.027583 0 -0.0214343)
(-0.047163 0 -0.027611)
(-0.0654902 0 -0.0245187)
(-0.081759 0 -0.0168049)
(-0.0923312 0 -0.000188733)
(-0.0911366 0 0.0188679)
(-0.049559 0 0.0403864)
(-0.123208 0 0.051229)
(-0.433001 0 0.0316898)
(-0.0684977 0 0.0132533)
(0.0433076 0 0.039949)
(0.0279261 0 0.11989)
(-0.018328 0 0.119591)
(0.0317422 0 -0.00444645)
(0.0119504 0 -0.016725)
(-0.00858523 0 -0.0238674)
(-0.029663 0 -0.0330799)
(-0.0506696 0 -0.0344738)
(-0.0718634 0 -0.031347)
(-0.0905338 0 -0.0190851)
(-0.0982619 0 -0.000458724)
(-0.0582046 0 0.0258824)
(-0.114983 0 0.0431933)
(-0.377236 0 0.0360897)
(-0.0985597 0 0.00447227)
(0.0331381 0 0.0285971)
(0.0202981 0 0.0699041)
(0.00174599 0 0.101155)
(0.0511786 0 -0.00457424)
(0.0316822 0 -0.016997)
(0.0115747 0 -0.0252729)
(-0.00985747 0 -0.0366459)
(-0.0321599 0 -0.0410393)
(-0.0553921 0 -0.0439908)
(-0.0802332 0 -0.0384272)
(-0.0971693 0 -0.0227228)
(-0.0636964 0 0.00388321)
(-0.112009 0 0.0276581)
(-0.327924 0 0.0328312)
(-0.0880869 0 0.00260361)
(0.0250413 0 0.026125)
(0.00461317 0 0.0315109)
(0.0110186 0 0.0609958)
(0.0703497 0 -0.00462488)
(0.0511843 0 -0.0169307)
(0.0316472 0 -0.0257574)
(0.0109262 0 -0.038605)
(-0.0113632 0 -0.044934)
(-0.034997 0 -0.0530198)
(-0.0622923 0 -0.0544046)
(-0.0851235 0 -0.0450465)
(-0.0634781 0 -0.023887)
(-0.105747 0 0.00370955)
(-0.298059 0 0.0178113)
(-0.0748544 0 0.00359605)
(0.0336821 0 0.0169697)
(-0.00713284 0 0.0196307)
(0.0121331 0 0.0318165)
(0.0891952 0 -0.00461433)
(0.0703983 0 -0.01683)
(0.0512919 0 -0.0258757)
(0.031347 0 -0.0391131)
(0.0103434 0 -0.0470244)
(-0.0129133 0 -0.0590119)
(-0.0403599 0 -0.0642318)
(-0.0652471 0 -0.0635691)
(-0.0549723 0 -0.0526063)
(-0.0914064 0 -0.0247535)
(-0.270046 0 -0.00761464)
(-0.0963146 0 0.00317651)
(0.036478 0 0.0294407)
(-0.0168913 0 0.00793443)
(0.0159955 0 0.0226204)
(0.107764 0 -0.00454498)
(0.0892834 0 -0.0167447)
(0.070463 0 -0.0258346)
(0.0511673 0 -0.0388021)
(0.0315858 0 -0.0474956)
(0.00976128 0 -0.0618851)
(-0.0164539 0 -0.0689065)
(-0.0421708 0 -0.075935)
(-0.0398673 0 -0.0752861)
(-0.0684018 0 -0.0525659)
(-0.22141 0 -0.0440943)
(-0.157159 0 -0.0270928)
(0.0481282 0 0.0468042)
(-0.0174393 0 0.00635135)
(0.0214853 0 0.0123109)
(0.125717 0 -0.00438408)
(0.107924 0 -0.0165245)
(0.0893722 0 -0.025762)
(0.0704819 0 -0.0385649)
(0.0516131 0 -0.0472295)
(0.0313488 0 -0.0620223)
(0.00821828 0 -0.0706071)
(-0.0165172 0 -0.083993)
(-0.0172753 0 -0.0894099)
(-0.0408275 0 -0.0759427)
(-0.162745 0 -0.0803618)
(-0.192941 0 -0.080776)
(0.0671957 0 0.0340054)
(-0.00139877 0 0.000506189)
(0.0195756 0 0.0138006)
(0.142525 0 -0.00412252)
(0.125985 0 -0.0160627)
(0.108161 0 -0.025413)
(0.0895305 0 -0.038485)
(0.0706416 0 -0.0469811)
(0.0513989 0 -0.0605422)
(0.0312883 0 -0.0703602)
(0.00928065 0 -0.0878825)
(0.00929564 0 -0.0940219)
(-0.00974977 0 -0.0934827)
(-0.108738 0 -0.108021)
(-0.170642 0 -0.118356)
(0.0753423 0 -0.0393248)
(0.0353993 0 -0.0310989)
(0.014589 0 0.0124016)
(0.158079 0 -0.00375044)
(0.142922 0 -0.0152951)
(0.126445 0 -0.0246504)
(0.108574 0 -0.0381283)
(0.0896171 0 -0.0470953)
(0.070517 0 -0.0599723)
(0.051097 0 -0.0693953)
(0.0329362 0 -0.0861985)
(0.0331031 0 -0.0927138)
(0.02636 0 -0.102771)
(-0.0542082 0 -0.128163)
(-0.117356 0 -0.141348)
(0.0775446 0 -0.119327)
(0.0685562 0 -0.075272)
(0.00373604 0 -0.0104805)
(0.172053 0 -0.0033048)
(0.158594 0 -0.0142232)
(0.143641 0 -0.0233364)
(0.127219 0 -0.0371444)
(0.108936 0 -0.0467924)
(0.0897083 0 -0.0603035)
(0.0700789 0 -0.0693769)
(0.0544913 0 -0.081478)
(0.0532355 0 -0.0908523)
(0.0671681 0 -0.105759)
(0.00238179 0 -0.138718)
(-0.060747 0 -0.160833)
(0.0658386 0 -0.166208)
(0.0642533 0 -0.107874)
(-0.011269 0 -0.0643799)
(0.184237 0 -0.00278464)
(0.172662 0 -0.012897)
(0.159562 0 -0.0215286)
(0.144809 0 -0.0353665)
(0.128072 0 -0.045516)
(0.109546 0 -0.0602652)
(0.0896821 0 -0.0698356)
(0.0737264 0 -0.0794308)
(0.0755594 0 -0.0917783)
(0.107955 0 -0.106036)
(0.0600176 0 -0.139894)
(-0.0187001 0 -0.168627)
(0.0575141 0 -0.186003)
(0.0513702 0 -0.132182)
(-0.0055331 0 -0.113212)
(0.194558 0 -0.00220267)
(0.184922 0 -0.0114357)
(0.173805 0 -0.0192799)
(0.161085 0 -0.0327809)
(0.146247 0 -0.043213)
(0.129325 0 -0.059022)
(0.109845 0 -0.0696998)
(0.0933425 0 -0.0804689)
(0.101453 0 -0.0969267)
(0.149951 0 -0.104794)
(0.132022 0 -0.136529)
(-0.0175179 0 -0.177795)
(0.0528253 0 -0.174403)
(0.038608 0 -0.152081)
(0.00556108 0 -0.143464)
(0.202985 0 -0.0015688)
(0.195309 0 -0.00990657)
(0.186157 0 -0.0167678)
(0.175624 0 -0.0295952)
(0.163069 0 -0.0397757)
(0.148159 0 -0.0564895)
(0.130104 0 -0.0677971)
(0.112864 0 -0.0811448)
(0.119583 0 -0.101608)
(0.18097 0 -0.100423)
(0.186583 0 -0.132896)
(-0.0605776 0 -0.175874)
(0.0418412 0 -0.136336)
(0.0261201 0 -0.157337)
(0.0101679 0 -0.160458)
(0.209528 0 -0.000915574)
(0.203812 0 -0.00830707)
(0.19661 0 -0.0140793)
(0.188209 0 -0.0261106)
(0.177934 0 -0.0354811)
(0.16567 0 -0.052284)
(0.149549 0 -0.0640099)
(0.132056 0 -0.0801222)
(0.132831 0 -0.103937)
(0.20603 0 -0.0966145)
(0.187652 0 -0.125053)
(-0.067993 0 -0.140741)
(0.0518675 0 -0.125362)
(0.0285966 0 -0.161446)
(0.0129393 0 -0.158572)
(0.214027 0 -0.000245559)
(0.210439 0 -0.00659657)
(0.205216 0 -0.0112604)
(0.198856 0 -0.0224811)
(0.190658 0 -0.0308487)
(0.181029 0 -0.0469466)
(0.167686 0 -0.0587244)
(0.149397 0 -0.0788156)
(0.142335 0 -0.102018)
(0.219845 0 -0.0914938)
(0.182474 0 -0.11698)
(-0.0404864 0 -0.103431)
(0.0577765 0 -0.145237)
(0.030568 0 -0.160312)
(0.00804028 0 -0.14294)
(0.216968 0 0.000611574)
(0.215156 0 -0.00480857)
(0.211951 0 -0.00826877)
(0.20765 0 -0.0187306)
(0.201368 0 -0.0261716)
(0.194126 0 -0.0408272)
(0.183681 0 -0.0520974)
(0.164323 0 -0.0734116)
(0.150885 0 -0.0945903)
(0.229506 0 -0.087364)
(0.180217 0 -0.108306)
(-0.0177236 0 -0.0970329)
(0.0479079 0 -0.13807)
(0.0171411 0 -0.134243)
(-0.0131909 0 -0.135987)
(0.216939 0 0.00162852)
(0.217864 0 -0.00281392)
(0.216746 0 -0.00504141)
(0.21465 0 -0.0147494)
(0.210298 0 -0.0213257)
(0.205121 0 -0.0349274)
(0.197437 0 -0.0456874)
(0.178746 0 -0.066174)
(0.159297 0 -0.0868878)
(0.230272 0 -0.084952)
(0.199998 0 -0.0958465)
(0.00304472 0 -0.0968637)
(0.027331 0 -0.125256)
(0.00709862 0 -0.103572)
(-0.0227315 0 -0.133416)
(0.21592 0 0.00198502)
(0.218467 0 -0.000876117)
(0.219572 0 -0.00143011)
(0.219863 0 -0.0104761)
(0.217513 0 -0.0160587)
(0.214488 0 -0.0294184)
(0.208457 0 -0.0392008)
(0.191604 0 -0.0570707)
(0.168844 0 -0.0779397)
(0.235155 0 -0.0803844)
(0.217835 0 -0.0875207)
(0.0105955 0 -0.105035)
(0.0105426 0 -0.118709)
(0.0091659 0 -0.095694)
(-0.0117131 0 -0.120526)
(0.212888 0 0.00265016)
(0.21703 0 0.00110647)
(0.220401 0 0.00235915)
(0.22302 0 -0.00578876)
(0.223031 0 -0.0101971)
(0.222133 0 -0.0240918)
(0.217158 0 -0.0323092)
(0.202591 0 -0.0486374)
(0.180018 0 -0.067485)
(0.24064 0 -0.0755403)
(0.244497 0 -0.0826556)
(0.0157695 0 -0.107552)
(-0.00376524 0 -0.105626)
(0.00470653 0 -0.0959805)
(-0.00404382 0 -0.109065)
(0.207658 0 0.00344146)
(0.21344 0 0.00325394)
(0.218986 0 0.00590861)
(0.223687 0 -0.000700683)
(0.226487 0 -0.00350584)
(0.228688 0 -0.0176106)
(0.224972 0 -0.0247085)
(0.212068 0 -0.0420868)
(0.192024 0 -0.0573161)
(0.249652 0 -0.0688187)
(0.278847 0 -0.0793645)
(0.016986 0 -0.110455)
(-0.012274 0 -0.0983987)
(-0.000938329 0 -0.0971167)
(-0.000793925 0 -0.102668)
(0.201033 0 0.00402078)
(0.208375 0 0.00516994)
(0.215299 0 0.00928287)
(0.22206 0 0.00459074)
(0.227736 0 0.00350309)
(0.23277 0 -0.00990394)
(0.231266 0 -0.0163547)
(0.22021 0 -0.036108)
(0.203172 0 -0.047567)
(0.270342 0 -0.0617886)
(0.31591 0 -0.0786873)
(0.0162787 0 -0.111595)
(-0.0312083 0 -0.0931666)
(-0.00622929 0 -0.0926688)
(-0.000881384 0 -0.0987546)
(0.193794 0 0.00450655)
(0.20172 0 0.00661869)
(0.209966 0 0.012413)
(0.21825 0 0.00955053)
(0.226207 0 0.0103308)
(0.233661 0 -0.00089166)
(0.236948 0 -0.00597342)
(0.226617 0 -0.0280967)
(0.209911 0 -0.0371181)
(0.302562 0 -0.0538816)
(0.357378 0 -0.0839728)
(0.0117381 0 -0.11252)
(-0.0520487 0 -0.0869434)
(-0.00634949 0 -0.087383)
(-0.000905402 0 -0.0955353)
(0.184641 0 0.00475441)
(0.19454 0 0.00782656)
(0.202957 0 0.0150047)
(0.212649 0 0.0138908)
(0.221894 0 0.0167939)
(0.231826 0 0.00852229)
(0.240563 0 0.0050038)
(0.231307 0 -0.0178822)
(0.208763 0 -0.0244843)
(0.338753 0 -0.0415389)
(0.389958 0 -0.0888865)
(0.00578346 0 -0.10711)
(-0.0700163 0 -0.0827515)
(-0.00125821 0 -0.0855289)
(0.000583823 0 -0.0941491)
(0.185381 0 0.00840871)
(0.17299 0 0.00519794)
(0.195421 0 0.0172397)
(0.205394 0 0.017356)
(0.215541 0 0.0225469)
(0.227391 0 0.016925)
(0.239509 0 0.0153286)
(0.234044 0 -0.0031035)
(0.193924 0 -0.0104786)
(0.356069 0 -0.0194752)
(0.415913 0 -0.0742322)
(-0.0257547 0 -0.0903913)
(-0.0805106 0 -0.0662668)
(-0.00058097 0 -0.0915451)
(0.00527493 0 -0.0924449)
(0.185977 0 0.018685)
(0.173137 0 0.00895857)
(0.147915 0 0.0050931)
(0.197446 0 0.0201715)
(0.207431 0 0.0273233)
(0.22076 0 0.0239895)
(0.233996 0 0.0252355)
(0.230237 0 0.0134075)
(0.175578 0 0.00811997)
(0.348641 0 0.00558905)
(0.415739 0 -0.0293913)
(-0.0609426 0 -0.0591173)
(-0.0924139 0 -0.0443996)
(-0.0082588 0 -0.0882938)
(0.0106809 0 -0.0867096)
(0.187683 0 0.0220228)
(0.173117 0 0.0202423)
(0.147477 0 0.00794148)
(0.137856 0 0.003975)
(0.198639 0 0.0312728)
(0.212465 0 0.0296317)
(0.225967 0 0.0338444)
(0.223377 0 0.0270901)
(0.167725 0 0.0251796)
(0.315018 0 0.0151596)
(0.404179 0 0.02659)
(-0.0807134 0 -0.0080343)
(-0.106622 0 -0.0305273)
(-0.0108065 0 -0.076096)
(0.0051018 0 -0.0696939)
(0.188039 0 0.0341673)
(0.173856 0 0.0238273)
(0.146404 0 0.0189362)
(0.136733 0 0.00520707)
(0.124067 0 0.00160926)
(0.203275 0 0.0340358)
(0.216203 0 0.0410831)
(0.214726 0 0.0374641)
(0.165001 0 0.0390403)
(0.26637 0 0.021903)
(0.364454 0 0.0662486)
(-0.0577483 0 0.0463677)
(-0.109541 0 -0.0278161)
(-0.00124266 0 -0.0584673)
(-0.00925027 0 -0.0518539)
(0.192199 0 0.0371837)
(0.173235 0 0.0371462)
(0.14531 0 0.0220339)
(0.135063 0 0.0147307)
(0.119813 0 -0.00105172)
(0.1349 0 -0.0021867)
(0.205698 0 0.0471845)
(0.204405 0 0.0452729)
(0.164159 0 0.0507125)
(0.230157 0 0.0304966)
(0.332587 0 0.0788713)
(0.0716952 0 0.0626516)
(-0.0921328 0 -0.0607623)
(0.0146202 0 -0.0317629)
(-0.0271522 0 -0.0405956)
(0.19335 0 0.0523045)
(0.175568 0 0.0404089)
(0.143606 0 0.035592)
(0.131142 0 0.0164461)
(0.115933 0 0.0040934)
(0.131167 0 -0.0107544)
(0.153641 0 -0.0112392)
(0.192999 0 0.0510151)
(0.161075 0 0.0611331)
(0.205632 0 0.0415258)
(0.308495 0 0.078062)
(0.147359 0 0.0626385)
(-0.0708261 0 -0.0699568)
(0.0206146 0 -0.00152637)
(-0.0402277 0 -0.0290525)
(0.178926 0 0.0551155)
(0.175425 0 0.0575052)
(0.14255 0 0.0389828)
(0.127032 0 0.0291332)
(0.108956 0 0.00279505)
(0.12616 0 -0.00976616)
(0.138432 0 -0.031896)
(0.215155 0 -0.00715238)
(0.156875 0 0.0704069)
(0.186811 0 0.0528327)
(0.283728 0 0.0786099)
(0.179072 0 0.0648063)
(-0.0415468 0 -0.00481161)
(-0.0204746 0 0.0202515)
(-0.0412002 0 -0.0213586)
(0.147861 0 0.078314)
(0.154945 0 0.0606971)
(0.140515 0 0.0568402)
(0.122202 0 0.0315423)
(0.102738 0 0.0138984)
(0.112136 0 -0.0160481)
(0.125307 0 -0.043206)
(0.19503 0 -0.0406248)
(0.234384 0 -0.0193443)
(0.173596 0 0.0630295)
(0.249559 0 0.0817437)
(0.173479 0 0.0800148)
(-0.0304368 0 0.0527803)
(-0.0632597 0 0.0333563)
(-0.0224582 0 -0.00123741)
(0.159946 0 0.0714052)
(0.133505 0 0.0868715)
(0.114913 0 0.061176)
(0.117029 0 0.0494413)
(0.0936691 0 0.0152106)
(0.096988 0 -0.00715952)
(0.104675 0 -0.0541609)
(0.168391 0 -0.064206)
(0.232723 0 -0.0658722)
(0.382951 0 0.00411047)
(0.217775 0 0.0855231)
(0.147222 0 0.0964237)
(-0.0323022 0 0.0923829)
(-0.0653352 0 0.0631329)
(-0.0183945 0 0.0330271)
(0.181685 0 0.0897385)
(0.140187 0 0.0845034)
(0.0948777 0 0.085496)
(0.0861749 0 0.0536375)
(0.0855722 0 0.0341568)
(0.0796084 0 -0.00863284)
(0.086822 0 -0.0539412)
(0.140011 0 -0.107992)
(0.233749 0 -0.110665)
(0.368653 0 0.00954385)
(0.15467 0 0.0273486)
(0.113379 0 0.109405)
(-0.043897 0 0.119971)
(-0.0655135 0 0.0971066)
(-0.02744 0 0.0663803)
(0.0657754 0 0.121353)
(0.13005 0 0.101797)
(0.0966299 0 0.091491)
(0.0606441 0 0.0788003)
(0.04926 0 0.0393957)
(0.0611807 0 0.0166652)
(0.0444374 0 -0.0517872)
(0.0932336 0 -0.118305)
(0.20055 0 -0.150146)
(0.33823 0 -0.00361231)
(0.201 0 0.048409)
(0.379444 0 1.8463)
(-0.0646876 0 0.144587)
(-0.0688291 0 0.128542)
(-0.0326028 0 0.101274)
(-0.0984401 0 0.177483)
(-0.0449596 0 0.151785)
(0.0300036 0 0.11577)
(0.0329764 0 0.0883812)
(0.017238 0 0.0676893)
(0.0122071 0 0.0299947)
(0.00633393 0 -0.00424816)
(-0.0161135 0 -0.109185)
(0.094832 0 -0.184211)
(0.251718 0 -0.034866)
(0.263908 0 0.0717461)
(0.373805 0 1.40503)
(0.93181 5.31022e-27 2.30787)
(0.363331 0 2.54185)
(-0.0834686 0 0.162647)
(-0.0386148 0 0.137162)
(-0.111293 0 0.207231)
(-0.179262 0 0.253303)
(-0.379662 0 0.207299)
(-0.165709 0 0.121522)
(-0.0422871 0 0.0788692)
(-0.0263847 0 0.0636609)
(-0.0496888 0 0.030955)
(-0.0974401 0 -0.0277334)
(-0.121955 0 -0.167569)
(0.126238 0 -0.114485)
(0.347794 0 0.0937654)
(0.3589 0 1.10044)
(0.978973 2.35502e-27 1.98679)
(1.20747 -1.65078e-29 2.25995)
(0.78092 9.01923e-27 2.62431)
(0.253795 0 2.89802)
(-0.0497926 0 0.17904)
(-0.0653032 0 0.234734)
(-0.180719 0 0.302621)
(-0.437446 0 0.34253)
(-0.609479 0 0.183377)
(-0.232429 0 0.107803)
(-0.0929028 0 0.0746458)
(-0.0780114 0 0.0728236)
(-0.14019 0 0.0565268)
(-0.286358 0 -0.113638)
(-0.148899 0 -0.16429)
(0.303177 0 0.0398419)
(0.335029 0 0.758422)
(0.916773 0 1.75997)
(1.18261 0 1.99575)
(1.40366 8.66584e-26 2.01185)
(1.12095 -2.0709e-29 2.50594)
(0.649973 1.10091e-26 2.95715)
(0.215761 0 3.35465)
(-0.103257 0 0.350823)
(-0.371824 0 0.442185)
(-0.818598 0 0.238576)
(-0.605003 0 0.0911264)
(-0.201322 0 0.0958035)
(-0.125432 0 0.0780836)
(-0.122085 0 0.106091)
(-0.296694 0 0.016645)
(-0.445493 0 -0.123017)
(-0.0671269 0 7.42794e-05)
(0.269812 0 0.544695)
(0.819306 0 1.54586)
(1.07522 0 1.81874)
(1.37052 1.9988e-25 1.8308)
(1.52395 -2.46141e-29 1.58333)
(1.36347 1.00999e-25 2.17184)
(0.963658 0 2.78514)
(0.450152 0 3.2705)
(0.080755 0 3.54932)
(-0.180559 0 0.529897)
(-0.711445 0 0.348368)
(-0.967643 0 0.0616743)
(-0.504001 0 0.048518)
(-0.1614 0 0.10254)
(-0.163402 0 0.0912815)
(-0.105839 0 0.13081)
(-0.596479 0 -0.0599403)
(-0.464779 0 -0.104491)
(0.0513099 0 0.440209)
(0.662485 0 1.29261)
(0.957592 -1.28933e-26 1.64848)
(1.24487 9.90349e-26 1.70734)
(1.47776 0 1.48055)
(1.63195 2.37184e-25 1.10111)
(1.51538 -2.90471e-29 1.74246)
(1.19581 3.16496e-25 2.41507)
(0.724387 0 3.00668)
(0.289371 0 3.45123)
(0.0331398 0 3.64057)
(-0.345233 0 0.467185)
(-0.894669 0 0.117388)
(-0.912046 0 -0.0445178)
(-0.325488 0 0.0854118)
(-0.178598 0 0.074802)
(-0.0514783 0 0.174595)
(-0.426444 0 0.114259)
(-0.699329 0 -0.117765)
(-0.302695 0 0.179713)
(0.447535 0 1.1145)
(0.833026 -2.33119e-26 1.48687)
(1.11506 0 1.56973)
(1.37633 -2.23235e-25 1.44675)
(1.55099 -4.03036e-25 1.02636)
(1.63555 1.27749e-09 0.524409)
(1.64082 0 1.13034)
(1.32728 0 1.87739)
(0.903915 3.73079e-25 2.56592)
(0.395017 -2.35632e-26 3.17573)
(0.0191894 0 3.52441)
(-0.131611 0 3.57833)
(-0.510042 0 0.122918)
(-0.757192 0 -0.122263)
(-0.650782 0 -0.012938)
(-0.256495 0 0.0742694)
(-0.106255 0 0.0605564)
(0.00126103 0 0.336396)
(-0.769642 0 -0.092877)
(-0.675262 0 -0.0933892)
(0.177015 0 0.840173)
(0.616327 5.99269e-42 1.28486)
(1.01278 0 1.4518)
(1.23502 3.36097e-25 1.34882)
(1.45512 -2.97018e-24 1.04385)
(1.51152 6.12757e-10 0.51853)
(1.55217 9.21654e-10 0.0667685)
(1.62837 -1.45361e-09 0.430492)
(1.5498 6.82345e-10 0.0665397)
(1.5593 2.143e-09 0.0760642)
(1.55716 5.37785e-10 0.0768617)
(1.5253 6.13242e-25 1.15003)
(1.07188 6.40354e-25 1.98407)
(0.537889 1.21246e-25 2.74855)
(0.0068835 5.74896e-27 3.22964)
(-0.267956 0 3.406)
(-0.197717 0 3.2649)
(-0.305449 0 -0.289517)
(-0.44367 0 -0.137739)
(-0.473217 0 0.00050799)
(-0.204807 0 0.0340756)
(0.00179543 0 0.303812)
(-0.292165 0 0.151832)
(-0.777752 0 -0.189006)
(-0.173816 0 0.492365)
(0.419097 7.86113e-42 1.06279)
(0.879192 0 1.29211)
(1.15673 0 1.23863)
(1.39139 -3.18741e-25 1.03933)
(1.38977 -4.01632e-25 0.490646)
(1.5645 -8.82513e-10 0.0396717)
(1.57749 -3.91156e-12 0.01447)
(1.51402 -4.59011e-10 -0.209138)
(1.47791 -1.84094e-09 0.495588)
(1.57491 6.65662e-10 0.0139784)
(1.61843 -7.05999e-10 0.0643843)
(1.61636 5.76346e-10 0.0630324)
(1.50872 4.51668e-10 -0.209329)
(1.5411 6.76916e-10 -0.177559)
(1.53638 2.84895e-10 -0.175926)
(1.25896 -2.08812e-24 1.24781)
(0.68445 -1.53455e-24 2.1708)
(0.0615197 0 2.85017)
(-0.456492 3.03971e-26 3.16482)
(-0.582337 0 3.13402)
(-0.284731 0 2.83973)
(-0.120009 0 -0.246838)
(-0.302651 0 -0.0919025)
(-0.368598 0 0.00353157)
(-0.168178 0 0.152549)
(0.150737 0 0.573007)
(-0.973099 0 -0.334073)
(-0.44371 0 0.149971)
(0.0774376 -9.73178e-27 0.742066)
(0.739998 1.39568e-26 1.11218)
(1.01079 5.78484e-26 1.06896)
(1.33067 0 0.982244)
(1.37209 -6.30454e-24 0.474927)
(1.44944 -3.11743e-09 0.0829484)
(1.39876 2.81878e-09 -0.344011)
(1.39746 -4.23671e-09 -0.346936)
(1.40391 -1.88717e-11 -0.283778)
(1.40402 2.77284e-10 -0.285457)
(1.52171 -1.22908e-09 -0.257071)
(1.46201 -3.90647e-09 -0.462605)
(1.24552 2.27811e-25 0.458753)
(1.4752 1.33157e-09 -0.281724)
(1.51716 5.19884e-10 -0.258229)
(1.50804 -2.48646e-09 -0.305365)
(1.50349 5.58219e-10 -0.308265)
(1.45612 -2.77606e-09 -0.463528)
(1.47828 -3.39689e-09 -0.391114)
(1.47323 -2.25743e-09 -0.392438)
(0.907482 -4.25787e-24 1.3525)
(0.228377 0 2.29826)
(-0.468114 0 2.92416)
(-0.921297 4.77269e-26 2.97992)
(-0.845364 0 2.70524)
(-0.344564 0 2.29539)
(-0.0728981 0 -0.118815)
(-0.249042 0 -0.044689)
(-0.334559 0 0.145205)
(-0.00705411 0 0.535655)
(-0.310713 0 0.238094)
(-0.734061 0 -0.0304516)
(-0.238819 0 0.382528)
(0.551011 1.10932e-26 0.903158)
(0.89173 0 0.882934)
(1.27196 4.64196e-25 0.864653)
(1.39173 -1.44761e-24 0.456984)
(1.42946 -2.23415e-09 0.16619)
(1.31932 8.7632e-11 -0.259964)
(1.3202 2.34018e-10 -0.260811)
(1.34458 1.63902e-10 -0.227098)
(1.34476 2.524e-10 -0.227382)
(1.36374 4.72866e-09 -0.527383)
(1.36074 -5.30149e-09 -0.527521)
(1.37559 -1.24925e-09 -0.467792)
(1.37542 -4.24551e-10 -0.467039)
(1.49326 -7.14952e-09 -0.530277)
(1.47705 1.35538e-08 -0.645564)
(1.29843 2.75652e-08 -0.651366)
(1.46407 1.07184e-08 -0.65194)
(1.33004 3.0825e-09 -0.645383)
(0.928269 -1.49313e-23 0.524426)
(1.32951 8.38646e-09 -0.352191)
(1.31539 3.78831e-10 -0.701246)
(1.31453 2.8801e-10 -0.699609)
(1.35429 6.14261e-09 -0.662001)
(1.3513 -1.06936e-08 -0.659357)
(1.48686 -1.96125e-09 -0.530581)
(1.47864 -7.79456e-09 -0.604837)
(1.47435 -2.0243e-10 -0.606416)
(1.4736 -7.30799e-09 -0.645703)
(1.30419 -1.52002e-08 -0.652196)
(1.46101 -2.80104e-09 -0.6524)
(1.32962 -3.1537e-09 -0.644542)
(1.47406 1.6133e-08 -0.619218)
(1.2848 3.31475e-08 -0.535803)
(1.45289 1.81015e-08 -0.646947)
(1.32259 3.28639e-09 -0.575615)
(1.47184 -9.42041e-09 -0.620637)
(1.30495 -1.74671e-08 -0.538648)
(1.45387 -8.96259e-09 -0.647982)
(1.32559 -3.28596e-09 -0.579481)
(0.437388 0 1.50149)
(-0.331968 -1.16068e-24 2.4753)
(-1.03639 0 2.90943)
(-1.30308 5.56679e-26 2.74694)
(-1.026 0 2.22707)
(-0.323955 0 1.72905)
(-0.0655742 0 -0.0231916)
(-0.275099 0 0.11052)
(-0.19838 0 0.476815)
(-0.19073 0 0.381267)
(-0.548724 0 -0.325295)
(-0.355484 0 0.112039)
(0.240995 0 0.563221)
(0.711992 0 0.701419)
(1.14751 4.74312e-25 0.676246)
(1.33793 9.24189e-25 0.402243)
(1.4232 -1.25119e-09 0.16298)
(1.33788 4.42167e-10 -0.180502)
(1.33738 1.30543e-10 -0.179884)
(1.36624 8.65856e-10 -0.169444)
(1.36476 1.86803e-10 -0.167859)
(1.31738 -2.97272e-09 -0.447988)
(1.31829 -3.27426e-10 -0.446236)
(1.3281 -3.5543e-09 -0.401104)
(1.33018 -8.15643e-10 -0.40021)
(1.19839 3.70019e-09 -0.711272)
(1.29052 5.19615e-09 -0.599579)
(1.35209 3.5367e-09 -0.724449)
(1.2217 4.42821e-09 -0.67346)
(1.39392 4.25148e-09 -0.673604)
(1.40018 4.93484e-09 -0.747506)
(1.3024 -3.66637e-09 -0.597893)
(1.19958 -6.60289e-10 -0.708917)
(1.35159 -3.15269e-09 -0.723822)
(1.22173 -2.68502e-09 -0.67203)
(1.39304 -4.69609e-09 -0.673155)
(1.40258 -4.94676e-09 -0.747413)
(1.20662 5.50128e-09 -0.617901)
(1.37805 6.8023e-09 -0.616106)
(1.21961 4.47672e-09 -0.633423)
(1.39813 5.89244e-09 -0.62987)
(1.21054 -3.83025e-09 -0.617795)
(1.37832 -4.86095e-09 -0.615661)
(1.22194 -3.52434e-09 -0.632886)
(1.39808 -5.03024e-09 -0.629453)
(1.46555 1.1603e-08 -0.719578)
(1.28009 2.88324e-08 -0.695788)
(1.45057 9.35643e-09 -0.692581)
(1.31166 2.85187e-09 -0.718965)
(1.40426 1.63269e-09 -0.748458)
(1.30995 1.85525e-09 -0.755962)
(1.38644 1.05122e-09 -0.758717)
(1.34281 6.42606e-10 -0.737714)
(0.52176 -6.64153e-24 0.57628)
(1.10337 5.68931e-09 -0.416238)
(1.11295 -1.78699e-10 -0.784255)
(1.11388 2.58203e-10 -0.784091)
(1.17988 1.39187e-09 -0.776799)
(1.18055 2.59139e-10 -0.775575)
(1.22962 1.11096e-09 -0.944609)
(1.22958 -2.49369e-09 -0.944975)
(1.25511 1.12534e-08 -0.895726)
(1.25617 -1.11968e-08 -0.89777)
(1.46309 -6.50213e-09 -0.72055)
(1.29169 -1.57856e-08 -0.694923)
(1.44937 -3.47784e-09 -0.692783)
(1.31493 -2.92921e-09 -0.722287)
(1.45709 1.07605e-08 -0.777088)
(1.29932 3.5253e-08 -0.802469)
(1.4684 1.48631e-08 -0.724146)
(1.32074 3.06576e-09 -0.795246)
(1.45272 -7.13471e-09 -0.777119)
(1.31458 -1.83582e-08 -0.801926)
(1.4667 -9.36971e-09 -0.725029)
(1.31422 -3.06258e-09 -0.794684)
(1.40329 -1.99534e-09 -0.747638)
(1.31063 -1.68186e-09 -0.75853)
(1.38531 -1.18178e-09 -0.759477)
(1.34071 -1.24319e-09 -0.735226)
(1.40413 1.70483e-09 -0.732051)
(1.32896 1.0679e-09 -0.668655)
(1.40491 -1.99683e-09 -0.732497)
(1.3345 -1.24898e-09 -0.670712)
(-0.116826 -7.42187e-25 1.63247)
(-0.905555 0 2.56747)
(-1.32092 0 2.90944)
(-1.4625 0 2.54692)
(-0.886318 0 1.74488)
(-0.236257 0 1.30346)
(-0.0945409 0 0.123976)
(-0.216607 0 0.353547)
(-0.0589062 0 0.375032)
(-0.311116 0 -0.18834)
(-0.512853 0 -0.202952)
(0.0492879 0 0.253865)
(0.459788 0 0.446884)
(0.953132 0 0.50322)
(1.28547 2.60356e-25 0.359782)
(1.44684 -8.86676e-10 0.161615)
(1.4206 9.26388e-10 -0.127792)
(1.41932 8.63999e-11 -0.126233)
(1.42433 1.43647e-09 -0.106549)
(1.42284 2.36989e-10 -0.105751)
(1.32477 -3.75908e-09 -0.34361)
(1.32661 -3.1947e-10 -0.343714)
(1.35978 -4.20306e-09 -0.298023)
(1.361 3.20625e-10 -0.300084)
(1.17192 5.81752e-09 -0.59114)
(1.34211 5.97218e-09 -0.593545)
(1.17322 9.53451e-09 -0.571879)
(1.33682 7.35777e-09 -0.580822)
(1.1811 -3.68901e-09 -0.593638)
(1.34387 -5.08253e-09 -0.593588)
(1.18925 -4.67752e-09 -0.574746)
(1.33976 -5.8149e-09 -0.581194)
(1.18636 1.23413e-08 -0.506088)
(1.345 7.7349e-09 -0.518083)
(1.1835 1.08994e-08 -0.53427)
(1.34796 7.80196e-09 -0.545059)
(1.20075 -5.72437e-09 -0.509268)
(1.34734 -5.1971e-09 -0.518273)
(1.19938 -5.307e-09 -0.537961)
(1.35081 -5.91062e-09 -0.545694)
(1.23834 1.35515e-09 -0.711027)
(1.22164 -1.94683e-12 -0.72949)
(1.33664 7.16872e-11 -0.734495)
(1.31961 1.49419e-09 -0.773191)
(1.24636 1.69656e-10 -0.727894)
(1.34413 1.17182e-10 -0.724852)
(1.24642 8.5201e-11 -0.705732)
(1.22266 -8.37828e-11 -0.727543)
(1.32146 -7.90043e-10 -0.771524)
(1.33629 -1.33145e-10 -0.733909)
(1.24663 -2.82203e-10 -0.727869)
(1.34384 -2.01383e-10 -0.724602)
(1.2169 1.74349e-10 -0.666187)
(1.31059 4.8416e-10 -0.662752)
(1.23576 2.78778e-10 -0.703974)
(1.32851 3.4805e-10 -0.699229)
(1.22213 -2.30153e-10 -0.667598)
(1.31163 -3.58503e-10 -0.663276)
(1.23678 -2.62126e-10 -0.704566)
(1.32853 -2.54481e-10 -0.699426)
(1.36875 1.22658e-09 -0.82122)
(1.27519 2.11773e-09 -0.806669)
(1.3529 8.50065e-10 -0.803271)
(1.29718 6.25515e-10 -0.824385)
(1.36375 -2.9772e-11 -0.836287)
(1.29599 1.87011e-10 -0.865267)
(1.32616 1.23657e-10 -0.864966)
(1.33412 7.38524e-11 -0.832764)
(-0.0234682 0 0.668781)
(0.707416 1.96243e-09 -0.396938)
(0.88651 -4.95413e-09 -0.845528)
(0.886432 3.11367e-11 -0.846607)
(0.971155 -2.43613e-09 -0.858363)
(0.971933 1.90523e-11 -0.858602)
(1.08016 9.69806e-09 -1.09638)
(1.08286 -9.29769e-09 -1.09705)
(1.13316 6.20583e-09 -1.04083)
(1.13514 -5.88565e-09 -1.04158)
(1.04595 1.02322e-08 -1.08093)
(1.21524 4.45423e-09 -1.09302)
(1.06891 6.4415e-09 -1.0654)
(1.23138 4.23961e-09 -1.07113)
(1.05117 -3.85222e-09 -1.08004)
(1.21562 -4.27918e-09 -1.09292)
(1.07215 -3.12795e-09 -1.06392)
(1.23169 -4.28088e-09 -1.0712)
(1.18306 4.07528e-09 -1.01926)
(1.26746 6.32476e-09 -0.946809)
(1.29625 2.75578e-09 -1.00652)
(1.11181 5.82652e-09 -1.02736)
(1.27565 4.16504e-09 -1.0226)
(1.37923 6.23143e-09 -0.824597)
(1.18884 -2.49066e-09 -1.01792)
(1.27469 -4.27589e-09 -0.950535)
(1.2968 -3.68347e-09 -1.00676)
(1.11602 -2.68102e-09 -1.0278)
(1.27635 -4.37481e-09 -1.02308)
(1.37972 -6.43521e-09 -0.825899)
(1.36807 -1.86467e-09 -0.822333)
(1.27771 -1.75139e-09 -0.80556)
(1.35223 -1.21623e-09 -0.80319)
(1.29791 -1.09459e-09 -0.827252)
(1.37812 2.21442e-09 -0.864851)
(1.31819 1.19629e-09 -0.887155)
(1.37635 -2.80283e-09 -0.865575)
(1.31582 -1.22176e-09 -0.887607)
(1.36309 -4.22183e-10 -0.836088)
(1.29381 -3.00904e-10 -0.864431)
(1.32507 -2.43019e-10 -0.864847)
(1.33179 -7.55047e-10 -0.830919)
(1.34641 4.31939e-10 -0.780572)
(1.30551 3.60779e-10 -0.743063)
(1.34837 -5.24958e-10 -0.780958)
(1.31053 -4.8916e-10 -0.745385)
(-0.769175 -2.39293e-24 1.74183)
(-1.34901 0 2.63121)
(-1.39823 0 2.91181)
(-1.43398 0 2.38841)
(-0.687966 0 1.28723)
(-0.22367 0 0.991785)
(-0.0803408 0 0.32118)
(-0.12326 0 0.330208)
(-0.0808916 0 0.130235)
(-0.495044 0 -0.54825)
(-0.033263 0 0.0542665)
(0.28968 5.84201e-27 0.243447)
(0.69691 -9.57841e-26 0.292809)
(1.10843 -2.5061e-25 0.282185)
(1.34464 -8.68255e-10 0.0420347)
(1.43001 1.49763e-09 -0.104511)
(1.42889 1.69746e-10 -0.104045)
(1.4301 1.52269e-09 -0.126608)