/*--------------------------------*- C++ -*----------------------------------*\
| =========                 |                                                 |
| \\      /  F ield         | OpenFOAM: The Open Source CFD Toolbox           |
|  \\    /   O peration     | Version:  5.x                                   |
|   \\  /    A nd           | Web:      www.OpenFOAM.org                      |
|    \\/     M anipulation  |                                                 |
\*---------------------------------------------------------------------------*/
FoamFile
{
    version     2.0;
    format      ascii;
    class       surfaceVectorField;
    location    "2.7";
    object      Uf;
}
// * * * * * * * * * * * * * * * * * * * * * * * * * * * * * * * * * * * * * //

dimensions      [0 1 -1 0 0 0 0];

internalField   nonuniform List<vector> 
30582
(
(0.0376874 0 0.00227242)
(0.0612693 0 0.00111366)
(0.0314803 0 0.00392444)
(0.0214162 0 0.00248294)
(0.0377489 0 0.00132758)
(0.0613725 0 0.00220825)
(0.0227125 0 0.00534148)
(0.0357605 0 0.0035702)
(0.0313789 0 0.00214946)
(0.0214308 0 0.00503103)
(0.0378179 0 0.00597338)
(0.0614234 0 0.00328604)
(0.0110176 0 0.0061309)
(0.0137868 0 0.00484743)
(0.0225477 0 0.00314693)
(0.0356956 0 0.00716623)
(0.0314055 0 0.0101026)
(0.0211233 0 0.00759609)
(0.0375315 0 0.0048984)
(0.0615483 0 0.00449181)
(-0.00348492 0 0.0061584)
(0.00549794 0 0.00611884)
(0.0105323 0 0.00497422)
(0.0137462 0 0.00982768)
(0.0226319 0 0.0138466)
(0.0348547 0 0.0107389)
(0.0301392 0 0.00822682)
(0.0207375 0 0.0105531)
(0.0376137 0 0.0103087)
(0.061461 0 0.00568586)
(-0.018805 0 0.00565045)
(-0.012366 0 0.00657997)
(-0.00413518 0 0.00669005)
(0.00537873 0 0.0123072)
(0.0108308 0 0.0170398)
(0.0126975 0 0.0147191)
(0.0207651 0 0.0117068)
(0.0339197 0 0.014556)
(0.0299639 0 0.0170208)
(0.0194607 0 0.0136131)
(0.0362859 0 0.00893634)
(0.0616569 0 0.00742741)
(-0.0329805 0 0.00496962)
(-0.0261504 0 0.00619736)
(-0.0192495 0 0.0072442)
(-0.0123803 0 0.0130715)
(-0.00361911 0 0.0185224)
(0.00416426 0 0.0184039)
(0.00811916 0 0.0163163)
(0.0114033 0 0.0199608)
(0.0205408 0 0.0228764)
(0.0315036 0 0.018393)
(0.0261873 0 0.0149605)
(0.0183559 0 0.0176528)
(0.0368428 0 0.0164886)
(0.0590768 0 0.00898103)
(-0.0456199 0 0.00428338)
(-0.0396189 0 0.00562502)
(-0.0333641 0 0.00694495)
(-0.0263843 0 0.0123681)
(-0.0190765 0 0.0180692)
(-0.013271 0 0.0197105)
(-0.00633638 0 0.019798)
(0.0028323 0 0.024503)
(0.00802503 0 0.0280673)
(0.00800264 0 0.0251484)
(0.0152592 0 0.0208829)
(0.0293104 0 0.0228429)
(0.0263747 0 0.0257396)
(0.0108572 0 0.0218402)
(0.0267035 0 0.0142784)
(0.0261167 0 0.014555)
(-0.0560086 0 0.0035314)
(-0.0513628 0 0.00470633)
(-0.0460175 0 0.0061147)
(-0.0399452 0 0.0112562)
(-0.0335585 0 0.0165937)
(-0.0273954 0 0.0186995)
(-0.0212016 0 0.0204849)
(-0.014039 0 0.0260951)
(-0.00580941 0 0.0306762)
(0.000403263 0 0.0303399)
(0.0018168 0 0.0278438)
(0.00490588 0 0.0307202)
(0.0155869 0 0.0325634)
(0.0233016 0 0.0272358)
(0.0118305 0 0.0235727)
(-0.0222497 0 0.0277896)
(-0.0285915 0 0.0268109)
(-0.148418 0 0.0102787)
(-0.0633679 0 0.00264226)
(-0.0605378 0 0.00339339)
(-0.0565129 0 0.0046129)
(-0.0519325 0 0.00946097)
(-0.0465257 0 0.0145741)
(-0.0409203 0 0.0170272)
(-0.035382 0 0.0192604)
(-0.028152 0 0.024899)
(-0.0206819 0 0.030415)
(-0.0154903 0 0.0324828)
(-0.0103031 0 0.0325709)
(-0.00195202 0 0.0354534)
(0.00212274 0 0.0377684)
(-0.00151423 0 0.036301)
(0.00369067 0 0.0316855)
(-0.00141266 0 0.0305503)
(-0.0316509 0 0.0328741)
(-0.160916 0 0.0290134)
(-0.293295 0 0.0128458)
(-0.172489 0 0.124441)
(-0.0667318 0 0.00159324)
(-0.0662007 0 0.00157912)
(-0.0640469 0 0.0023485)
(-0.0614377 0 0.00686734)
(-0.0574765 0 0.0117266)
(-0.053214 0 0.014422)
(-0.0482957 0 0.0169702)
(-0.0419772 0 0.0227743)
(-0.0354275 0 0.0283213)
(-0.0292823 0 0.0313455)
(-0.0238829 0 0.0338921)
(-0.0168821 0 0.0383153)
(-0.00959547 0 0.0404812)
(-0.00702033 0 0.0403976)
(-0.0095742 0 0.0401709)
(-0.0185677 0 0.0417991)
(-0.0258787 0 0.0386318)
(-0.166573 0 0.0281998)
(-0.28524 0 0.024431)
(-0.0477525 0 0.0257911)
(0.0690006 0 0.130604)
(-0.0101704 0 0.0972882)
(-0.0654744 0 0.000418419)
(-0.0674019 0 -0.000600873)
(-0.0676286 0 -0.000608602)
(-0.0674316 0 0.00326043)
(-0.0655014 0 0.00779425)
(-0.0632442 0 0.0105677)
(-0.0595939 0 0.0133385)
(-0.0549329 0 0.0195403)
(-0.0493356 0 0.0252391)
(-0.0434179 0 0.0289639)
(-0.0380319 0 0.0324892)
(-0.0305137 0 0.0375313)
(-0.0234447 0 0.0411385)
(-0.0206431 0 0.0442636)
(-0.0191256 0 0.0455189)
(-0.0191754 0 0.0444274)
(-0.0267715 0 0.0437602)
(-0.154585 0 0.0421692)
(-0.303548 0 0.0314358)
(-0.146704 0 0.0356551)
(0.0935764 0 0.0410213)
(0.172022 0 0.0159604)
(0.103884 0 -0.0105969)
(-0.0142942 0 0.0564646)
(-0.0593437 0 -0.000829566)
(-0.0637401 0 -0.00298176)
(-0.0665194 0 -0.00398604)
(-0.0689107 0 -0.00113093)
(-0.0694785 0 0.00268679)
(-0.0698309 0 0.00512735)
(-0.0682232 0 0.00797556)
(-0.0657619 0 0.0145468)
(-0.0617036 0 0.0206083)
(-0.0570274 0 0.0251432)
(-0.0518699 0 0.0293849)
(-0.0452776 0 0.0351224)
(-0.0386296 0 0.0392873)
(-0.0333824 0 0.04417)
(-0.0307177 0 0.0484912)
(-0.0249636 0 0.0492423)
(-0.026006 0 0.0464056)
(-0.130693 0 0.0441044)
(-0.255085 0 0.0411557)
(-0.24109 0 0.0220815)
(-0.08646 0 0.0323777)
(0.0507169 0 0.108965)
(0.118914 0 0.0800835)
(0.0271298 0 0.00994831)
(-0.0821121 0 0.0728737)
(-0.0235729 0 0.088732)
(-0.0484741 0 -0.00202589)
(-0.0551775 0 -0.00538169)
(-0.0603824 0 -0.00751522)
(-0.0653536 0 -0.0059666)
(-0.0686262 0 -0.00323872)
(-0.0717745 0 -0.00153823)
(-0.0729556 0 0.000971853)
(-0.0731111 0 0.00734884)
(-0.0712938 0 0.0136688)
(-0.0688625 0 0.0189688)
(-0.0647553 0 0.0239989)
(-0.0600433 0 0.0309806)
(-0.0542563 0 0.0357947)
(-0.0475774 0 0.0420769)
(-0.043346 0 0.0479717)
(-0.0321534 0 0.0496909)
(-0.0267245 0 0.0494198)
(-0.108476 0 0.0495509)
(-0.215862 0 0.0460599)
(-0.343503 0 0.0275555)
(-0.319926 0 0.0150854)
(-0.0891369 0 0.11885)
(0.0511543 0 0.178654)
(0.0246431 0 0.136557)
(-0.0738547 0 0.0655284)
(-0.0104314 0 0.0066452)
(0.0538565 0 0.0243672)
(-0.00839492 0 0.0675685)
(-0.0336846 0 -0.0030015)
(-0.0421314 0 -0.00745421)
(-0.0494338 0 -0.010835)
(-0.0566514 0 -0.0108024)
(-0.0624809 0 -0.00940997)
(-0.0683865 0 -0.00895551)
(-0.0724409 0 -0.0071723)
(-0.0756275 0 -0.0017842)
(-0.0765624 0 0.00429932)
(-0.0773968 0 0.00982201)
(-0.0755475 0 0.0155577)
(-0.0734212 0 0.0239452)
(-0.0692277 0 0.0300438)
(-0.0629756 0 0.037763)
(-0.0571453 0 0.0448632)
(-0.0412421 0 0.0482181)
(-0.0310666 0 0.0503852)
(-0.096097 0 0.0515893)
(-0.179275 0 0.0512202)
(-0.359254 0 0.0338368)
(-0.494183 0 0.0175217)
(-0.237694 0 0.101076)
(-1.71551e-05 0 0.184936)
(0.00654117 0 0.14006)
(-0.0233574 0 0.107564)
(-0.00201163 0 0.115994)
(0.0572946 0 0.0642187)
(0.0042941 0 0.00526989)
(-0.0540814 0 0.0476643)
(-0.0163644 0 -0.00368873)
(-0.0260374 0 -0.00888555)
(-0.0345168 0 -0.0134227)
(-0.0434055 0 -0.0149726)
(-0.0512843 0 -0.0151032)
(-0.0594662 0 -0.016346)
(-0.0663071 0 -0.0157788)
(-0.0725401 0 -0.0119388)
(-0.0767505 0 -0.00684281)
(-0.0808629 0 -0.00169434)
(-0.0825088 0 0.00406116)
(-0.0835437 0 0.0130897)
(-0.0818889 0 0.0207365)
(-0.0775456 0 0.0297834)
(-0.0716839 0 0.0380387)
(-0.052556 0 0.0443492)
(-0.0375404 0 0.0493612)
(-0.085648 0 0.0510992)
(-0.152018 0 0.0534783)
(-0.330055 0 0.0396729)
(-0.521504 0 0.0210692)
(-0.292418 0 0.0455713)
(-0.0385018 0 0.122637)
(-0.000399651 0 0.117313)
(0.00690731 0 0.0903269)
(0.0110899 0 0.127516)
(0.0305143 0 0.134714)
(-0.00264756 0 0.126899)
(-0.0585207 0 0.0614103)
(0.00254964 0 -0.00413864)
(-0.00762755 0 -0.00987729)
(-0.0169319 0 -0.0151867)
(-0.0269969 0 -0.0179069)
(-0.0359487 0 -0.0195826)
(-0.0456945 0 -0.0227021)
(-0.0546295 0 -0.0238636)
(-0.063393 0 -0.0221277)
(-0.0706607 0 -0.0186548)
(-0.0782484 0 -0.0149007)
(-0.083461 0 -0.00962605)
(-0.088213 0 -0.00123933)
(-0.0901114 0 0.00738226)
(-0.0891309 0 0.0169495)
(-0.0850567 0 0.0261431)
(-0.0642257 0 0.0359496)
(-0.045428 0 0.0442359)
(-0.0820629 0 0.0479224)
(-0.131779 0 0.0525567)
(-0.285522 0 0.042092)
(-0.468902 0 0.0281835)
(-0.282178 0 0.016676)
(-0.0665706 0 0.0448185)
(-0.0074269 0 0.0576268)
(0.0352736 0 0.0603017)
(0.0254169 0 0.105345)
(0.0300788 0 0.131286)
(0.00730273 0 0.127696)
(-0.027207 0 0.117089)
(0.0222219 0 -0.00437938)
(0.0120693 0 -0.0104576)
(0.00222948 0 -0.0163189)
(-0.00820273 0 -0.0198837)
(-0.017903 0 -0.0226617)
(-0.028623 0 -0.0271647)
(-0.0384586 0 -0.0303696)
(-0.0489163 0 -0.0308526)
(-0.0585587 0 -0.0295406)
(-0.0686768 0 -0.0281195)
(-0.0774464 0 -0.0241407)
(-0.0861464 0 -0.0178261)
(-0.0921075 0 -0.00972059)
(-0.0952966 0 -0.000285553)
(-0.0949262 0 0.0091188)
(-0.0746707 0 0.0215824)
(-0.0537477 0 0.0330696)
(-0.082271 0 0.0397859)
(-0.119259 0 0.0471757)
(-0.250223 0 0.0422504)
(-0.409543 0 0.0339093)
(-0.265782 0 0.0156754)
(-0.084241 0 0.00882369)
(-0.0176798 0 0.0244013)
(0.0365009 0 0.0342227)
(0.0318028 0 0.0570998)
(0.0254646 0 0.0946742)
(0.0148361 0 0.107292)
(-0.00771136 0 0.110291)
(0.0419342 0 -0.00451092)
(0.0317122 0 -0.0106669)
(0.0220694 0 -0.0168622)
(0.0117626 0 -0.0210042)
(0.00164207 0 -0.0245764)
(-0.00922135 0 -0.0300906)
(-0.019574 0 -0.0348787)
(-0.0309115 0 -0.0368529)
(-0.0415816 0 -0.0377856)
(-0.0530308 0 -0.0394093)
(-0.0642028 0 -0.0377253)
(-0.0760483 0 -0.0346766)
(-0.086098 0 -0.0288423)
(-0.0938516 0 -0.0207489)
(-0.09856 0 -0.0116894)
(-0.0809793 0 0.00145078)
(-0.0609704 0 0.0147851)
(-0.0851067 0 0.0249729)
(-0.113203 0 0.0353563)
(-0.221455 0 0.0369936)
(-0.355018 0 0.034446)
(-0.232662 0 0.0175498)
(-0.0920593 0 0.00352963)
(-0.0367592 0 0.0191549)
(0.0296517 0 0.02735)
(0.0188755 0 0.0273958)
(0.0115705 0 0.0505372)
(0.0156584 0 0.0630672)
(0.00670018 0 0.0808965)
(0.0613848 0 -0.00459979)
(0.0511814 0 -0.0107139)
(0.041913 0 -0.0169636)
(0.0316647 0 -0.0214047)
(0.0218681 0 -0.0255173)
(0.0112505 0 -0.0317563)
(0.000666661 0 -0.0376342)
(-0.0106103 0 -0.0406607)
(-0.0215761 0 -0.043004)
(-0.0335785 0 -0.0471159)
(-0.0453974 0 -0.0485452)
(-0.0588422 0 -0.0488876)
(-0.0719338 0 -0.0464872)
(-0.0826784 0 -0.0416895)
(-0.0919183 0 -0.0339841)
(-0.0803238 0 -0.0239792)
(-0.0642896 0 -0.0101249)
(-0.0847214 0 0.00303678)
(-0.109267 0 0.0155775)
(-0.205034 0 0.0231253)
(-0.313458 0 0.0252542)
(-0.20139 0 0.0178302)
(-0.0810739 0 0.00310422)
(-0.0272024 0 0.0125731)
(0.028699 0 0.0215066)
(0.00895411 0 0.0195789)
(-0.00144571 0 0.0255179)
(0.00837312 0 0.0330863)
(0.0113089 0 0.0462767)
(0.0804709 0 -0.00461956)
(0.070374 0 -0.0107015)
(0.061422 0 -0.0168799)
(0.0512381 0 -0.02146)
(0.0419654 0 -0.0258171)
(0.0314971 0 -0.0322799)
(0.0214032 0 -0.0388613)
(0.0106348 0 -0.0427797)
(-0.000261372 0 -0.0459885)
(-0.0121383 0 -0.0517916)
(-0.0237553 0 -0.0560425)
(-0.0376784 0 -0.0582187)
(-0.0517086 0 -0.0593617)
(-0.0637697 0 -0.0590815)
(-0.075924 0 -0.0543904)
(-0.070048 0 -0.0496083)
(-0.0599097 0 -0.0383746)
(-0.0774422 0 -0.0261095)
(-0.0992145 0 -0.0106481)
(-0.187897 0 -0.0017668)
(-0.284389 0 0.00498545)
(-0.197187 0 0.00947972)
(-0.0839745 0 0.00338441)
(-0.0191882 0 0.0191677)
(0.0340778 0 0.0232603)
(0.00839525 0 0.0101364)
(-0.0118281 0 0.0137306)
(0.00443125 0 0.0241994)
(0.0143538 0 0.0271776)
(0.0991637 0 -0.00457935)
(0.0892393 0 -0.0106694)
(0.0805487 0 -0.016787)
(0.0704306 0 -0.0214257)
(0.0615267 0 -0.0258549)
(0.0512296 0 -0.0322349)
(0.0417725 0 -0.0389562)
(0.0314664 0 -0.0433023)
(0.0212662 0 -0.0472621)
(0.0100523 0 -0.0542234)
(-0.0012666 0 -0.0604613)
(-0.0146836 0 -0.0635357)
(-0.0282608 0 -0.0665899)
(-0.0412653 0 -0.0702479)
(-0.0543016 0 -0.0698068)
(-0.0525573 0 -0.0699795)
(-0.0480219 0 -0.0640473)
(-0.0616871 0 -0.0554941)
(-0.0809049 0 -0.0387836)
(-0.156409 0 -0.0350148)
(-0.247792 0 -0.0260161)
(-0.213603 0 -0.0192536)
(-0.125001 0 -0.0120926)
(-0.0240932 0 0.0287385)
(0.0419175 0 0.0382)
(0.00951915 0 0.0155527)
(-0.017002 0 0.00713589)
(0.00229687 0 0.0124802)
(0.0186916 0 0.0174198)
(0.117289 0 -0.00446381)
(0.107844 0 -0.0105302)
(0.0993003 0 -0.0166336)
(0.0893278 0 -0.0213723)
(0.0806457 0 -0.0257979)
(0.0704724 0 -0.0321458)
(0.0615032 0 -0.0386825)
(0.0513902 0 -0.0431032)
(0.0421468 0 -0.0473614)
(0.0314673 0 -0.0546013)
(0.0208775 0 -0.0619543)
(0.00898978 0 -0.0659951)
(-0.00374126 0 -0.0697644)
(-0.0164856 0 -0.0763404)
(-0.0292203 0 -0.0799998)
(-0.0297231 0 -0.083115)
(-0.0291054 0 -0.0824105)
(-0.0403474 0 -0.0795138)
(-0.0553445 0 -0.0643585)
(-0.115574 0 -0.0681495)
(-0.194313 0 -0.0623896)
(-0.207175 0 -0.061025)
(-0.177141 0 -0.0541722)
(-0.0449817 0 0.00566048)
(0.0594775 0 0.040348)
(0.0233645 0 0.0204954)
(-0.00951895 0 0.00340267)
(0.001068 0 0.0121022)
(0.0199779 0 0.0130623)
(0.134574 0 -0.00425214)
(0.125851 0 -0.0102232)
(0.117513 0 -0.0162915)
(0.108043 0 -0.0211114)
(0.0994858 0 -0.0255859)
(0.0894514 0 -0.0321258)
(0.0807641 0 -0.0385246)
(0.0705617 0 -0.0429453)
(0.061841 0 -0.0471042)
(0.051506 0 -0.0539512)
(0.0419551 0 -0.0612756)
(0.0313185 0 -0.066007)
(0.0200936 0 -0.0704826)
(0.00874947 0 -0.0786655)
(-0.00323435 0 -0.085955)
(-0.00361088 0 -0.0899106)
(-0.00388319 0 -0.0917364)
(-0.0135125 0 -0.0960545)
(-0.0258753 0 -0.0847903)
(-0.0747828 0 -0.0943669)
(-0.137187 0 -0.0943148)
(-0.166693 0 -0.0964328)
(-0.185426 0 -0.0997331)
(-0.0587991 0 -0.0569956)
(0.0700588 0 -0.00298448)
(0.0512974 0 0.000604375)
(0.0161574 0 -0.0154367)
(0.00659508 0 0.00844264)
(0.0170109 0 0.0130949)
(0.150696 0 -0.00393483)
(0.142724 0 -0.00970556)
(0.134914 0 -0.0156755)
(0.126215 0 -0.0205146)
(0.117886 0 -0.0250283)
(0.108367 0 -0.0318014)
(0.099807 0 -0.038305)
(0.0895738 0 -0.0429951)
(0.0809251 0 -0.0470387)
(0.0705793 0 -0.0536456)
(0.0617218 0 -0.0602547)
(0.0512479 0 -0.0648392)
(0.0418015 0 -0.0698735)
(0.0321122 0 -0.0777537)
(0.0214837 0 -0.087033)
(0.0211918 0 -0.0918053)
(0.0215588 0 -0.093362)
(0.0178278 0 -0.103197)
(0.00841437 0 -0.0981682)
(-0.0319791 0 -0.113646)
(-0.0826469 0 -0.118181)
(-0.113047 0 -0.121856)
(-0.145985 0 -0.129954)
(-0.0465484 0 -0.11596)
(0.0771042 0 -0.0796822)
(0.0719492 0 -0.0604223)
(0.0541596 0 -0.0533811)
(0.0195678 0 -0.017554)
(0.00949402 0 0.00085894)
(0.165357 0 -0.00352564)
(0.158337 0 -0.00898432)
(0.151149 0 -0.0147544)
(0.143282 0 -0.0194793)
(0.135512 0 -0.0239875)
(0.126832 0 -0.0309397)
(0.118518 0 -0.037632)
(0.108755 0 -0.0426721)
(0.10008 0 -0.0469425)
(0.0896627 0 -0.0539279)
(0.0809489 0 -0.0601394)
(0.070298 0 -0.0644262)
(0.06143 0 -0.069386)
(0.0527941 0 -0.0756512)
(0.0444454 0 -0.0838173)
(0.0430858 0 -0.0901787)
(0.0437958 0 -0.0917748)
(0.0501356 0 -0.103626)
(0.0477147 0 -0.104279)
(0.0143708 0 -0.123721)
(-0.0254595 0 -0.133488)
(-0.0574776 0 -0.142984)
(-0.0893885 0 -0.151177)
(-0.0257586 0 -0.150382)
(0.0722641 0 -0.142977)
(0.0708989 0 -0.113564)
(0.0667058 0 -0.0917183)
(0.0286439 0 -0.0665243)
(-0.0041477 0 -0.0376689)
(0.178328 0 -0.00304242)
(0.172357 0 -0.00809119)
(0.165913 0 -0.0135542)
(0.159078 0 -0.0180316)
(0.151994 0 -0.0224245)
(0.144225 0 -0.0294015)
(0.136486 0 -0.0362476)
(0.127645 0 -0.0415665)
(0.119175 0 -0.0461485)
(0.109241 0 -0.0537659)
(0.100484 0 -0.0602842)
(0.0896952 0 -0.0650781)
(0.0807598 0 -0.0696083)
(0.0719027 0 -0.0752644)
(0.0650677 0 -0.0804453)
(0.0650253 0 -0.0870105)
(0.0654673 0 -0.0913194)
(0.0805951 0 -0.101906)
(0.0892275 0 -0.105899)
(0.0635928 0 -0.125694)
(0.0326723 0 -0.139312)
(-0.00815909 0 -0.154078)
(-0.0395752 0 -0.164765)
(-0.00161646 0 -0.168539)
(0.0627449 0 -0.176194)
(0.0586044 0 -0.145584)
(0.0577261 0 -0.120136)
(0.0293603 0 -0.109118)
(-0.00821094 0 -0.0890134)
(0.189495 0 -0.00249107)
(0.18458 0 -0.00709126)
(0.178961 0 -0.0121599)
(0.173233 0 -0.0162307)
(0.166953 0 -0.0203943)
(0.160323 0 -0.0271986)
(0.153336 0 -0.0340622)
(0.145528 0 -0.0395453)
(0.137655 0 -0.0443543)
(0.128698 0 -0.0524964)
(0.120175 0 -0.0596381)
(0.109696 0 -0.0652056)
(0.100672 0 -0.0697671)
(0.0915123 0 -0.0764437)
(0.084445 0 -0.0799545)
(0.0875895 0 -0.086129)
(0.0900126 0 -0.0943753)
(0.112755 0 -0.100531)
(0.131077 0 -0.10541)
(0.119989 0 -0.124552)
(0.0998172 0 -0.138197)
(0.0212501 0 -0.161387)
(-0.0167917 0 -0.173252)
(0.0170626 0 -0.165976)
(0.0558285 0 -0.180152)
(0.048061 0 -0.164991)
(0.0454446 0 -0.142219)
(0.0284658 0 -0.139394)
(7.82148e-05 0 -0.128473)
(0.198819 0 -0.00188291)
(0.194934 0 -0.00602638)
(0.190196 0 -0.0106644)
(0.185539 0 -0.0142248)
(0.180123 0 -0.0180127)
(0.174715 0 -0.0244463)
(0.168603 0 -0.0311739)
(0.162077 0 -0.0365546)
(0.155044 0 -0.0414791)
(0.147203 0 -0.0500132)
(0.139259 0 -0.0577446)
(0.129715 0 -0.0637839)
(0.120815 0 -0.0687399)
(0.111355 0 -0.076908)
(0.104031 0 -0.0808099)
(0.106463 0 -0.0876227)
(0.111618 0 -0.0992882)
(0.141212 0 -0.0982432)
(0.168782 0 -0.102589)
(0.168267 0 -0.1213)
(0.163157 0 -0.134696)
(0.0357231 0 -0.158826)
(-0.0373553 0 -0.176826)
(0.0121616 0 -0.150456)
(0.0481427 0 -0.155201)
(0.0394726 0 -0.161962)
(0.0328206 0 -0.154732)
(0.024388 0 -0.158515)
(0.00804898 0 -0.152036)
(0.20627 0 -0.00123929)
(0.203399 0 -0.00490256)
(0.199582 0 -0.0090997)
(0.19596 0 -0.0120936)
(0.191429 0 -0.0154116)
(0.187183 0 -0.0214038)
(0.182018 0 -0.0278374)
(0.176779 0 -0.0328151)
(0.170709 0 -0.0376093)
(0.164369 0 -0.0461544)
(0.1573 0 -0.0543681)
(0.148854 0 -0.060874)
(0.140318 0 -0.0658867)
(0.13108 0 -0.0753189)
(0.123276 0 -0.080629)
(0.122847 0 -0.0880885)
(0.127031 0 -0.102783)
(0.162807 0 -0.0964201)
(0.195794 0 -0.0985017)
(0.184311 0 -0.113389)
(0.187435 0 -0.12894)
(0.0592961 0 -0.134673)
(-0.0659137 0 -0.158151)
(-0.00435505 0 -0.143373)
(0.0462076 0 -0.1308)
(0.0352188 0 -0.149427)
(0.0273603 0 -0.15941)
(0.0195297 0 -0.159111)
(0.0117087 0 -0.159507)
(0.211809 0 -0.000577595)
(0.209983 0 -0.00371021)
(0.207129 0 -0.00744424)
(0.204514 0 -0.00986782)
(0.200907 0 -0.0126573)
(0.197733 0 -0.0182202)
(0.193513 0 -0.0242797)
(0.189433 0 -0.0287027)
(0.184326 0 -0.0331444)
(0.179481 0 -0.0413094)
(0.173542 0 -0.0495915)
(0.166678 0 -0.0561074)
(0.159026 0 -0.0613437)
(0.149473 0 -0.0721366)
(0.141367 0 -0.0794631)
(0.137195 0 -0.086019)
(0.13796 0 -0.102969)
(0.176338 0 -0.0944376)
(0.213743 0 -0.0940315)
(0.194252 0 -0.106665)
(0.183073 0 -0.120981)
(0.0735838 0 -0.110943)
(-0.0558708 0 -0.12192)
(-0.00510824 0 -0.140205)
(0.0531063 0 -0.135388)
(0.0412177 0 -0.147106)
(0.0285052 0 -0.160874)
(0.0183185 0 -0.150036)
(0.0106079 0 -0.150687)
(0.215445 0 0.000186832)
(0.214592 0 -0.0024787)
(0.21282 0 -0.00569464)
(0.211195 0 -0.0075223)
(0.208569 0 -0.00975132)
(0.206433 0 -0.0149092)
(0.203166 0 -0.0205892)
(0.200112 0 -0.0244596)
(0.195917 0 -0.0284894)
(0.192392 0 -0.0360625)
(0.187504 0 -0.0438597)
(0.182355 0 -0.0500188)
(0.175793 0 -0.0553814)
(0.166004 0 -0.0663822)
(0.157047 0 -0.0760896)
(0.150141 0 -0.0815759)
(0.146791 0 -0.0982713)
(0.185921 0 -0.0912421)
(0.223748 0 -0.0894105)
(0.200031 0 -0.10025)
(0.179256 0 -0.112604)
(0.0823759 0 -0.104486)
(-0.0296643 0 -0.100203)
(0.00371077 0 -0.125637)
(0.0517471 0 -0.141622)
(0.0374587 0 -0.139456)
(0.0238239 0 -0.147162)
(0.0086887 0 -0.144573)
(-0.00267181 0 -0.139433)
(0.216979 0 0.00112456)
(0.217416 0 -0.00106481)
(0.216551 0 -0.00380234)
(0.215951 0 -0.00502167)
(0.214345 0 -0.00664078)
(0.2133 0 -0.0113906)
(0.211075 0 -0.0167224)
(0.208974 0 -0.0201135)
(0.205661 0 -0.0237271)
(0.203245 0 -0.0307581)
(0.199328 0 -0.0378511)
(0.195781 0 -0.0435708)
(0.190464 0 -0.048864)
(0.181213 0 -0.0591706)
(0.17141 0 -0.0697606)
(0.16181 0 -0.0751834)
(0.154996 0 -0.0907049)
(0.190578 0 -0.0865154)
(0.228144 0 -0.0861473)
(0.214752 0 -0.0938424)
(0.187178 0 -0.102021)
(0.0916314 0 -0.104853)
(-0.00764161 0 -0.0969475)
(0.0048037 0 -0.117056)
(0.036961 0 -0.131606)
(0.0275031 0 -0.117346)
(0.0119936 0 -0.118771)
(-0.00279508 0 -0.132939)
(-0.0183783 0 -0.13469)
(0.216412 0 0.00180836)
(0.217703 0 0.000400781)
(0.218178 0 -0.00183642)
(0.218718 0 -0.0021942)
(0.218156 0 -0.00321964)
(0.218304 0 -0.00761969)
(0.217276 0 -0.0125938)
(0.216081 0 -0.0155438)
(0.213787 0 -0.0186689)
(0.212393 0 -0.0254601)
(0.209448 0 -0.0321483)
(0.206789 0 -0.0372993)
(0.202469 0 -0.0424152)
(0.194521 0 -0.051194)
(0.184916 0 -0.0615819)
(0.173795 0 -0.0675957)
(0.16369 0 -0.0823739)
(0.197226 0 -0.0805114)
(0.231602 0 -0.0826479)
(0.224053 0 -0.0885971)
(0.205934 0 -0.0916467)
(0.105298 0 -0.104935)
(0.00658402 0 -0.100986)
(0.00679368 0 -0.113117)
(0.0185959 0 -0.121954)
(0.0182484 0 -0.106573)
(0.00798676 0 -0.0995979)
(-0.00230716 0 -0.1151)
(-0.0175117 0 -0.126914)
(0.214227 0 0.00232052)
(0.216475 0 0.00157126)
(0.217762 0 0.000124028)
(0.219434 0 0.000695008)
(0.220036 0 0.000481338)
(0.221296 0 -0.00349913)
(0.221544 0 -0.00811152)
(0.221447 0 -0.0105289)
(0.220225 0 -0.0131019)
(0.219823 0 -0.0198555)
(0.2181 0 -0.0267315)
(0.215823 0 -0.0311533)
(0.21215 0 -0.0357243)
(0.205524 0 -0.0435567)
(0.196429 0 -0.0528166)
(0.185811 0 -0.0585045)
(0.173917 0 -0.072666)
(0.204742 0 -0.0739753)
(0.236513 0 -0.0779408)
(0.239826 0 -0.0835209)
(0.229871 0 -0.0850666)
(0.116803 0 -0.103008)
(0.0131535 0 -0.106304)
(0.00341513 0 -0.10882)
(0.00360823 0 -0.112109)
(0.00762457 0 -0.10441)
(0.00656248 0 -0.0958385)
(0.00256109 0 -0.10576)
(-0.00796697 0 -0.114744)
(0.210138 0 0.00304934)
(0.213164 0 0.00299344)
(0.21516 0 0.00218967)
(0.218008 0 0.00344191)
(0.219749 0 0.00414972)
(0.222044 0 0.000897833)
(0.223418 0 -0.00322215)
(0.224753 0 -0.0047998)
(0.224799 0 -0.00682162)
(0.22586 0 -0.0136473)
(0.225448 0 -0.0208225)
(0.223553 0 -0.0247763)
(0.220533 0 -0.0284752)
(0.214613 0 -0.0366692)
(0.206423 0 -0.0453329)
(0.197308 0 -0.0500165)
(0.185161 0 -0.0623553)
(0.214835 0 -0.0656445)
(0.244266 0 -0.0721496)
(0.259744 0 -0.078812)
(0.260679 0 -0.0809954)
(0.130742 0 -0.1024)
(0.0163786 0 -0.109016)
(0.00174777 0 -0.10495)
(-0.0078781 0 -0.10198)
(-0.00235178 0 -0.102027)
(0.00193583 0 -0.0965536)
(0.00195632 0 -0.101722)
(-0.00233989 0 -0.105838)
(0.204281 0 0.0037337)
(0.208017 0 0.00436365)
(0.210787 0 0.00422048)
(0.214369 0 0.00619462)
(0.217077 0 0.00761061)
(0.220523 0 0.00536361)
(0.222841 0 0.00196865)
(0.225712 0 0.00130504)
(0.227252 0 2.97258e-05)
(0.229628 0 -0.00650216)
(0.230915 0 -0.0137229)
(0.229977 0 -0.0173744)
(0.228046 0 -0.0204946)
(0.222591 0 -0.029808)
(0.215503 0 -0.0390709)
(0.20762 0 -0.0426439)
(0.196634 0 -0.0523981)
(0.231183 0 -0.0574323)
(0.258948 0 -0.0652724)
(0.282781 0 -0.0749672)
(0.296597 0 -0.0790229)
(0.147564 0 -0.101218)
(0.0169625 0 -0.11103)
(-0.00711116 0 -0.102758)
(-0.0216493 0 -0.0957594)
(-0.00925161 0 -0.0966592)
(-0.00345866 0 -0.094873)
(-0.000909856 0 -0.0988369)
(-0.00078648 0 -0.100694)
(0.197188 0 0.00426581)
(0.201376 0 0.0053804)
(0.204955 0 0.00590077)
(0.209171 0 0.00870898)
(0.212502 0 0.0108619)
(0.216774 0 0.00954317)
(0.220108 0 0.0070925)
(0.224133 0 0.00732961)
(0.227082 0 0.00694742)
(0.230698 0 0.00142535)
(0.233384 0 -0.00535781)
(0.234859 0 -0.00821624)
(0.234343 0 -0.0111177)
(0.228942 0 -0.0216677)
(0.223469 0 -0.0320668)
(0.21506 0 -0.0351434)
(0.206141 0 -0.0422962)
(0.252867 0 -0.048899)
(0.28541 0 -0.0577999)
(0.313861 0 -0.0745367)
(0.337557 0 -0.0813535)
(0.163825 0 -0.100976)
(0.0141993 0 -0.112062)
(-0.017885 0 -0.0994939)
(-0.0413445 0 -0.0900273)
(-0.0187788 0 -0.0906883)
(-0.00608635 0 -0.0900024)
(-0.00356737 0 -0.0950774)
(-0.000925851 0 -0.0971307)
(0.189116 0 0.00463159)
(0.194167 0 0.00623185)
(0.19791 0 0.00722796)
(0.202338 0 0.010724)
(0.206349 0 0.0137204)
(0.211307 0 0.0132941)
(0.215322 0 0.01174)
(0.220072 0 0.0130456)
(0.223963 0 0.0135908)
(0.229017 0 0.00957227)
(0.232723 0 0.00385734)
(0.237112 0 0.00189282)
(0.239109 0 -0.000436103)
(0.234128 0 -0.0115238)
(0.229296 0 -0.0229439)
(0.21769 0 -0.02564)
(0.209731 0 -0.0307451)
(0.274332 0 -0.037548)
(0.321918 0 -0.0476556)
(0.34626 0 -0.0729208)
(0.376426 0 -0.0864516)
(0.181582 0 -0.0996605)
(0.00919662 0 -0.109791)
(-0.0291391 0 -0.0977987)
(-0.0605352 0 -0.0848289)
(-0.0266533 0 -0.0875223)
(-0.00364448 0 -0.0864477)
(-0.00288286 0 -0.0921846)
(-0.000171426 0 -0.094836)
(0.185011 0 0.00664621)
(0.18066 0 0.00488971)
(0.189874 0 0.00812024)
(0.194981 0 0.0124366)
(0.198949 0 0.0161321)
(0.204176 0 0.0163372)
(0.208895 0 0.0156388)
(0.214095 0 0.0180834)
(0.21854 0 0.019696)
(0.224642 0 0.0170152)
(0.229566 0 0.0127607)
(0.235668 0 0.0118427)
(0.240213 0 0.0102123)
(0.237304 0 0.00111303)
(0.233389 0 -0.0104273)
(0.212616 0 -0.0143643)
(0.202186 0 -0.0174189)
(0.282416 0 -0.0204963)
(0.350981 0 -0.0304092)
(0.377333 0 -0.0570131)
(0.405859 0 -0.0814944)
(0.182103 0 -0.0922871)
(-0.00977012 0 -0.0986762)
(-0.0373635 0 -0.0874008)
(-0.0740672 0 -0.0744358)
(-0.0352984 0 -0.089206)
(-0.000955784 0 -0.0885637)
(0.00200834 0 -0.0891994)
(0.0030102 0 -0.0932894)
(0.185679 0 0.0134495)
(0.181218 0 0.00857645)
(0.173063 0 0.0071384)
(0.15997 0 0.0051435)
(0.190612 0 0.0179688)
(0.196434 0 0.0188731)
(0.20117 0 0.0187762)
(0.206413 0 0.0221965)
(0.211316 0 0.0249564)
(0.21815 0 0.0234664)
(0.223876 0 0.0204887)
(0.230693 0 0.0211798)
(0.236461 0 0.0203257)
(0.234873 0 0.0145412)
(0.231799 0 0.00522568)
(0.204812 0 0.00223623)
(0.184498 0 -0.00109678)
(0.271283 0 -0.00208866)
(0.35463 0 -0.00683123)
(0.385904 0 -0.0229835)
(0.421561 0 -0.0516129)
(0.177487 0 -0.0675295)
(-0.0441785 0 -0.0746157)
(-0.0590843 0 -0.069647)
(-0.0864657 0 -0.0552358)
(-0.0443844 0 -0.0793868)
(-0.00458144 0 -0.089905)
(0.00504993 0 -0.0869038)
(0.0082197 0 -0.0895518)
(0.18683 0 0.0205154)
(0.181622 0 0.0191601)
(0.173127 0 0.0145058)
(0.159864 0 0.00843044)
(0.147696 0 0.00655052)
(0.142392 0 0.00451256)
(0.192493 0 0.0211054)
(0.198043 0 0.0255725)
(0.202742 0 0.0293155)
(0.209948 0 0.0287001)
(0.216399 0 0.0268357)
(0.223364 0 0.0290375)
(0.229639 0 0.0295783)
(0.228686 0 0.0261732)
(0.226267 0 0.0203091)
(0.198981 0 0.0185197)
(0.170544 0 0.0167259)
(0.245298 0 0.0120939)
(0.327647 0 0.0104168)
(0.37641 0 0.0166379)
(0.413167 0 -0.00115085)
(0.167515 0 -0.0172607)
(-0.0726749 0 -0.0333493)
(-0.0837825 0 -0.0484441)
(-0.100244 0 -0.0374019)
(-0.0516099 0 -0.0605814)
(-0.00923732 0 -0.0821406)
(-0.00157855 0 -0.0763775)
(0.00800107 0 -0.0781261)
(0.187861 0 0.0279506)
(0.183033 0 0.0225733)
(0.173486 0 0.0221667)
(0.159417 0 0.0195641)
(0.146941 0 0.0133782)
(0.141542 0 0.0065217)
(0.137295 0 0.00460727)
(0.130944 0 0.00274656)
(0.193259 0 0.032733)
(0.200957 0 0.0328935)
(0.207559 0 0.0318532)
(0.214334 0 0.035406)
(0.220782 0 0.037496)
(0.220347 0 0.0356368)
(0.218473 0 0.0323234)
(0.194189 0 0.0318778)
(0.16527 0 0.032171)
(0.217047 0 0.0223129)
(0.286085 0 0.0185614)
(0.339736 0 0.0414552)
(0.378596 0 0.0465953)
(0.173217 0 0.0406303)
(-0.0662983 0 0.0194095)
(-0.095127 0 -0.021608)
(-0.109874 0 -0.0291597)
(-0.0539322 0 -0.0419942)
(-0.00641387 0 -0.0672036)
(-0.0100284 0 -0.0624392)
(-0.00221637 0 -0.0606945)
(0.190119 0 0.0359176)
(0.183122 0 0.035076)
(0.173545 0 0.0303631)
(0.159277 0 0.0228961)
(0.145857 0 0.0205719)
(0.140113 0 0.0167526)
(0.135898 0 0.00989846)
(0.128394 0 0.00195711)
(0.12194 0 0.000308677)
(0.130234 0 -0.000361719)
(0.19771 0 0.0356238)
(0.204487 0 0.0404972)
(0.210554 0 0.0441608)
(0.210304 0 0.0431641)
(0.209187 0 0.0414033)
(0.189443 0 0.0425562)
(0.163915 0 0.0449284)
(0.197579 0 0.0328696)
(0.246106 0 0.0262376)
(0.299479 0 0.0510646)
(0.341318 0 0.0726163)
(0.218076 0 0.0677897)
(0.00701025 0 0.0545819)
(-0.0749406 0 -0.0102468)
(-0.102942 0 -0.0444362)
(-0.0474597 0 -0.0263337)
(0.00710037 0 -0.0449967)
(-0.0141973 0 -0.0510453)
(-0.0182652 0 -0.0461749)
(0.192775 0 0.0445248)
(0.186759 0 0.0381676)
(0.174401 0 0.038973)
(0.158167 0 0.0363392)
(0.144458 0 0.0286816)
(0.137514 0 0.0191325)
(0.133103 0 0.0156902)
(0.125722 0 0.00920714)
(0.117873 0 0.00145988)
(0.125746 0 -0.00608963)
(0.133034 0 -0.00637358)
(0.143809 0 -0.00688724)
(0.199366 0 0.0497674)
(0.199348 0 0.0491356)
(0.198289 0 0.0481694)
(0.18274 0 0.0514306)
(0.162331 0 0.0559692)
(0.184896 0 0.0437364)
(0.217245 0 0.0360603)
(0.269327 0 0.0539941)
(0.316004 0 0.0784631)
(0.239974 0 0.0692692)
(0.109845 0 0.062645)
(0.000434591 0 -0.00485677)
(-0.0788698 0 -0.0654004)
(-0.0357587 0 -0.0269534)
(0.0181583 0 -0.0165097)
(-0.0128035 0 -0.0338722)
(-0.0339667 0 -0.0347729)
(0.186138 0 0.0537164)
(0.187671 0 0.053891)
(0.175497 0 0.0486204)
(0.158796 0 0.0396684)
(0.143078 0 0.0374565)
(0.134619 0 0.0322384)
(0.129087 0 0.0226238)
(0.120286 0 0.0093576)
(0.112444 0 0.00359925)
(0.120801 0 -0.00310291)
(0.128663 0 -0.0104625)
(0.134455 0 -0.0217322)
(0.146037 0 -0.0213045)
(0.185823 0 -0.00911711)
(0.185776 0 0.0530836)
(0.174937 0 0.0587959)
(0.158694 0 0.065811)
(0.173943 0 0.0541891)
(0.196479 0 0.0472296)
(0.24468 0 0.0592103)
(0.294764 0 0.0783384)
(0.243784 0 0.0695411)
(0.16492 0 0.063732)
(0.0529059 0 0.029661)
(-0.0544595 0 -0.0370934)
(-0.0456502 0 -0.0221011)
(-0.000212818 0 0.00945919)
(-0.0102926 0 -0.0142036)
(-0.0414904 0 -0.0251712)
(0.163394 0 0.0647656)
(0.171718 0 0.0568182)
(0.165185 0 0.0589563)
(0.157713 0 0.0571599)
(0.141533 0 0.0475862)
(0.131613 0 0.0351195)
(0.124617 0 0.0305697)
(0.114876 0 0.0212224)
(0.105847 0 0.00808572)
(0.109965 0 -0.00698889)
(0.119148 0 -0.012693)
(0.125552 0 -0.0271299)
(0.13187 0 -0.0377373)
(0.166862 0 -0.0364285)
(0.205092 0 -0.0238229)
(0.229319 0 -0.0134826)
(0.152484 0 0.0743958)
(0.165235 0 0.0635905)
(0.180363 0 0.0579762)
(0.218185 0 0.0664136)
(0.268199 0 0.0801908)
(0.228604 0 0.0790043)
(0.174777 0 0.0724784)
(0.0743177 0 0.0623263)
(-0.0352459 0 0.0242382)
(-0.0524033 0 0.0158432)
(-0.0425069 0 0.0268624)
(-0.0214664 0 0.00777692)
(-0.0318658 0 -0.0112087)
(0.153904 0 0.0715103)
(0.143903 0 0.0809245)
(0.144225 0 0.0718223)
(0.134426 0 0.0609458)
(0.127714 0 0.0586527)
(0.128016 0 0.0529985)
(0.119616 0 0.0401573)
(0.107791 0 0.0230619)
(0.0982037 0 0.0148577)
(0.0992974 0 0.00296449)
(0.104562 0 -0.0117625)
(0.107984 0 -0.0358382)
(0.114991 0 -0.0480821)
(0.145952 0 -0.0541104)
(0.181711 0 -0.0521267)
(0.218539 0 -0.0537337)
(0.233554 0 -0.0419542)
(0.300249 0 -0.00716524)
(0.167311 0 0.0672548)
(0.195686 0 0.0736669)
(0.235786 0 0.0836501)
(0.198391 0 0.0909989)
(0.159571 0 0.0882924)
(0.0705886 0 0.0903348)