/*--------------------------------*- C++ -*----------------------------------*\
| =========                 |                                                 |
| \\      /  F ield         | OpenFOAM: The Open Source CFD Toolbox           |
|  \\    /   O peration     | Version:  5.x                                   |
|   \\  /    A nd           | Web:      www.OpenFOAM.org                      |
|    \\/     M anipulation  |                                                 |
\*---------------------------------------------------------------------------*/
FoamFile
{
    version     2.0;
    format      ascii;
    class       volScalarField;
    location    "2";
    object      alpha.water;
}
// * * * * * * * * * * * * * * * * * * * * * * * * * * * * * * * * * * * * * //

dimensions      [0 0 0 0 0 0 0];

internalField   nonuniform List<scalar> 
12160
(
1
1
1
1
1
1
1
1
1
1
1
1
1
1
1
1
1
1
1
1
1
1
1
1
1
1
1
1
1
1
1
1
1
1
0.999997
1
1
1
1
1
1
1
0.999999
0.992797
0.535218
1
1
1
1
1
1
1
0.994816
0.580399
0.0202979
1
1
1
1
1
1
0.999999
0.996539
0.588168
0.0213085
0.000943197
1
1
1
1
1
1
0.999997
0.995351
0.607507
0.02183
0.000294017
1.01595e-05
1
1
1
1
1
1
0.999993
0.993475
0.621672
0.025199
5.56714e-05
2.21683e-06
8.41556e-09
1
1
1
1
1
1
0.999987
0.991692
0.63933
0.0315362
4.11695e-05
1.56959e-07
1.22439e-10
2.34737e-12
1
1
1
1
1
1
0.999984
0.990836
0.661986
0.0398914
7.71063e-05
2.94832e-08
8.09551e-11
3.79357e-13
1.72772e-17
1
1
1
1
1
1
0.999983
0.990749
0.685144
0.0542749
0.000127405
6.4021e-08
3.37158e-12
7.09525e-15
8.11132e-21
1
1
1
1
1
1
0.999985
0.991043
0.708268
0.0765146
0.000258517
1.24904e-07
1.47207e-11
1.29305e-16
2.77845e-19
1
1
1
1
1
1
0.99999
0.99167
0.727747
0.101992
0.000534831
2.9791e-07
3.25477e-11
6.56916e-16
1.98905e-21
1
1
1
1
1
1
0.999996
0.992667
0.740884
0.123121
0.00123235
5.99442e-07
9.97259e-11
1.30537e-15
1.34296e-20
1
1
1
1
1
1
0.999999
0.99446
0.750391
0.136181
0.00267347
1.32739e-06
2.27454e-10
4.04447e-15
2.91334e-20
1
1
1
1
1
1
1
0.996978
0.761579
0.142961
0.00395857
3.92408e-06
5.72536e-10
9.04046e-15
1.10248e-19
1
1
1
1
1
1
1
0.999413
0.780439
0.147931
0.00473775
1.24243e-05
1.46628e-09
2.32388e-14
2.62679e-19
1
1
1
1
1
1
1
0.999985
0.809087
0.156959
0.00521223
2.13682e-05
4.68798e-09
5.9723e-14
7.34095e-19
1
1
1
1
1
1
1
1
0.845695
0.177555
0.00582816
2.86819e-05
1.12746e-08
2.30103e-13
1.86629e-18
0.999999
0.999999
1
1
1
1
1
1
0.884726
0.21624
0.00743369
3.70399e-05
1.99838e-08
6.24415e-13
9.17066e-18
1
1
0.999999
1
1
1
1
1
0.919658
0.277486
0.0113649
5.30396e-05
3.21973e-08
1.39095e-12
2.69843e-17
1
1
1
1
1
1
1
1
0.945275
0.358159
0.0191891
8.99262e-05
5.66443e-08
2.68808e-12
5.84095e-17
1
1
1
1
1
1
1
1
0.962008
0.44957
0.0327007
0.000208694
1.34396e-07
5.83542e-12
1.09884e-16
1
1
1
1
1
1
1
1
0.972242
0.538753
0.0534665
0.000600134
5.47047e-07
2.04469e-11
2.37408e-16
0.999999
0.999999
0.999999
1
1
1
1
1
0.978031
0.615547
0.081093
0.00153369
2.82929e-06
1.54377e-10
8.34553e-16
0.999999
0.999999
0.999999
0.999999
1
1
1
1
0.980766
0.672981
0.112826
0.0032368
1.08008e-05
1.77972e-09
6.81039e-15
1
1
0.999999
0.999999
0.999999
1
1
1
0.981481
0.707985
0.14324
0.00580035
3.15468e-05
1.24412e-08
9.81483e-14
1
1
1
0.999999
0.999999
0.999999
1
1
0.980825
0.720761
0.166041
0.00889935
7.60601e-05
5.90259e-08
1.39909e-12
1
1
1
1
0.999999
0.999999
1
0.999999
0.978365
0.712922
0.176145
0.0116455
0.000149312
2.11397e-07
1.27194e-11
1
1
1
1
1
1
1
0.999988
0.973127
0.683563
0.170703
0.0130008
0.000227984
5.55159e-07
7.47853e-11
1
1
1
1
1
1
1
0.99994
0.963643
0.632505
0.151528
0.0123221
0.000269198
9.92269e-07
2.8011e-10
1
1
1
1
1
1
1
0.999754
0.947475
0.56135
0.123401
0.0100206
0.000251574
1.2182e-06
5.97501e-10
1
1
1
1
1
1
0.999999
0.999147
0.921293
0.474511
0.0917819
0.00702962
0.000185802
1.14476e-06
7.53271e-10
1
1
1
1
1
1
0.999994
0.99754
0.882379
0.378727
0.0617056
0.00428371
0.00010733
7.77919e-07
7.15486e-10
1
1
1
1
1
1
0.999974
0.994135
0.831852
0.283201
0.037244
0.00224805
5.11615e-05
3.57231e-07
4.38663e-10
1
1
1
1
1
1
0.999915
0.988056
0.771794
0.198509
0.0203132
0.0010002
2.0815e-05
1.21341e-07
1.49585e-10
1
1
1
1
1
1
0.999784
0.978819
0.702191
0.134386
0.0105178
0.000378506
7.20219e-06
3.23131e-08
3.23172e-11
1
1
1
1
1
0.999999
0.999554
0.966489
0.627913
0.0912623
0.00560183
0.000135873
2.11984e-06
6.74675e-09
4.66514e-12
1
1
1
1
1
0.999999
0.999208
0.951669
0.553862
0.0621466
0.00312593
5.47806e-05
5.90606e-07
1.17917e-09
4.76045e-13
0.999998
1
1
1
1
1
0.998749
0.935342
0.484765
0.0425003
0.00180983
2.59412e-05
1.79169e-07
2.04935e-10
4.83902e-14
0.998233
0.999995
1
1
1
1
1
0.91864
0.424366
0.0294778
0.00107839
1.40764e-05
6.27606e-08
4.10896e-11
6.84324e-15
0.903306
0.997279
0.99999
1
1
1
1
1
0.374957
0.0211088
0.000663737
8.4015e-06
2.59803e-08
1.03294e-11
1.20192e-15
0.335736
0.88116
0.995976
0.999986
1
1
1
1
1
0.0160131
0.000435188
5.28144e-06
1.24516e-08
3.28924e-12
2.83455e-16
0.0126106
0.284303
0.85981
0.995319
0.999974
1
1
1
1
1
0.000308044
3.42065e-06
6.67459e-09
1.28685e-12
8.93862e-17
0.000201666
0.00844406
0.246196
0.85555
0.994106
0.999958
0.999999
1
1
0.999999
1
2.28539e-06
3.79518e-09
5.96224e-13
3.54713e-17
1.43006e-06
0.00010044
0.00701531
0.24016
0.849294
0.993306
0.999827
0.999997
1
0.999999
0.999999
1
2.23907e-09
3.04391e-13
1.66123e-17
1.29087e-09
5.58055e-07
7.34892e-05
0.008238
0.236923
0.854467
0.989143
0.999551
0.99999
1
0.999998
1
1
1
1.65918e-13
8.66907e-18
9.25888e-14
4.16301e-10
3.4483e-07
8.14772e-05
0.00978396
0.25237
0.848272
0.985065
0.999324
0.999998
0.999998
1
1
1
1
1
4.82031e-18
2.90042e-18
2.31719e-14
2.8306e-10
3.1748e-07
0.000101401
0.0122244
0.264251
0.84807
0.982381
0.999889
0.999998
0.999998
1
1
1
1
1
1
7.27392e-19
1.88858e-14
2.52735e-10
3.505e-07
0.000131829
0.0148136
0.28058
0.830738
0.992422
0.999998
0.999997
0.999999
1
1
1
1
1
1
1
6.61488e-19
2.15421e-14
2.71769e-10
4.23072e-07
0.000158255
0.015835
0.287809
0.839251
0.999089
0.999999
0.999997
1
1
1
0.999998
1
1
1
1
1
9.36971e-19
2.91621e-14
3.28034e-10
4.8009e-07
0.000120831
0.0226803
0.23587
0.928214
0.999999
0.999999
0.999999
1
1
1
0.99992
0.999996
0.999999
1
1
1
1
1.73742e-18
4.54811e-14
4.03537e-10
3.08593e-07
0.000161013
0.0218317
0.241324
0.999322
0.999999
0.999999
1
1
1
0.999965
0.999686
0.999925
0.999685
0.999765
0.999764
0.999987
0.999985
1
1
1
1
6.91522e-18
2.15291e-12
1.44014e-08
1.00141e-05
0.00069063
0.0113222
0.475151
0.999535
0.999998
0.999999
1
1
0.999998
0.999965
0.999451
0.999457
0.999926
0.999443
0.999289
0.999273
0.99945
0.999703
0.999707
0.999851
0.999924
0.999998
1
1
1
2.56937e-14
2.76361e-09
5.95893e-06
0.000500785
0.00474735
0.0124406
0.643444
0.999434
0.999998
0.999999
1
1
0.999999
0.999909
0.999829
1
0.999976
0.999012
0.997378
0.999323
0.999023
0.998988
0.998828
0.998813
0.997353
0.999186
0.999162
0.999251
0.999828
0.999997
1
1
1
8.922e-11
1.45715e-06
0.000332522
0.00312834
0.0155264
0.0370371
0.696281
0.999824
0.999997
0.999999
1
1
1
1
1
1
0.999984
0.999955
0.999998
0.999979
0.996278
1
0.997695
1
0.99776
0.998057
0.999387
0.998571
0.998476
0.998045
0.998
0.996277
0.996497
0.99648
1
0.997601
1
0.997755
1
0.999458
1
0.999154
1
0.999435
1
0.999195
0.998408
0.999789
0.999999
1
1
1
7.18478e-08
9.29586e-05
0.00161013
0.00389093
0.0183865
0.059973
0.817732
0.999773
0.999997
0.999999
1
1
1
1
1
1
0.999997
1
1
0.999991
0.999561
1
0.999989
1
1
0.999549
0.999969
1
0.999974
1
1
0.999997
0.999997
0.999998
0.999997
0.999985
1
0.999981
1
1
0.996627
1
0.996488
1
0.997872
1
0.998109
0.998052
0.999528
0.999463
0.999377
0.999173
0.999133
0.995829
0.995799
0.994705
0.994606
1
0.996583
1
0.996537
1
0.996456
1
0.996544
1
0.996286
1
0.996518
1
0.997707
1
0.997962
1
0.999231
1
0.999242
0.998378
0.999931
1
1
1
1
6.77852e-06
0.000485269
0.00151134
0.00077763
0.0136127
0.0718079
0.772227
0.999616
0.999997
0.999998
1
1
1
1
1
1
1
1
1
1
1
1
0.99999
1
1
1
0.999999
1
0.999999
1
1
1
1
1
0.999782
0.999999
1
1
0.999989
1
0.999736
1
1
1
0.999989
1
1
0.999998
0.999996
0.999997
0.999993
1
0.999981
1
0.999996
0.996752
0.999999
0.996559
1
0.998182
1
0.998522
0.998052
0.999131
0.999741
0.99971
0.999675
0.99963
0.997326
0.997461
0.996402
0.996541
0.994044
0.994044
0.995241
1
0.994044
0.994044
0.995136
1
0.994274
0.996256
0.994274
0.994884
1
1
0.994274
0.99622
0.994274
0.994777
1
1
0.99999
0.996652
0.999998
0.996493
0.999995
0.996456
0.999994
0.996427
1
0.998067
1
0.998483
1
0.999408
1
0.99945
0.999304
0.999982
1
1
1
1
4.85642e-05
0.000524217
0.0002153
0.000154349
0.0109043
0.0508045
0.678583
0.993918
0.999952
1
1
0.999998
0.999998
0.999999
0.999999
1
0.999999
0.999999
1
1
1
0.999998
1
1
1
0.999999
1
0.999999
1
0.999998
1
1
1
1
1
1
1
0.999991
1
0.999998
1
0.999999
1
1
1
1
1
1
1
0.999982
0.99674
0.999999
0.99665
0.998052
0.998631
0.999866
0.999859
0.999805
0.9998
0.999594
0.999616
0.998953
0.999029
0.997254
1
0.997066
1
0.997386
1
0.996908
1
0.994044
0.998235
0.996416
1
0.994044
0.99842
0.996183
1
0.994044
0.994149
0.995186
0.999862
0.994044
0.994148
0.995067
0.99986
0.996171
0.994324
0.994814
0.99983
0.994988
1
0.996018
0.994312
0.994751
0.999831
0.994915
1
0.999976
0.996693
0.999999
0.996667
0.999938
0.996456
0.999929
0.996432
0.999596
0.999997
1
1
1
1
5.1742e-05
0.000112547
3.08476e-05
6.53703e-05
0.00783891
0.0546871
0.554044
0.97483
0.999998
1
1
0.999998
0.999998
1
0.999999
0.999999
1
0.999999
1
1
1
0.999997
1
1
1
1
1
0.999999
1
0.999997
1
0.999999
1
0.999999
1
0.999998
1
0.998253
0.998582
0.999897
0.999893
0.999891
0.999891
0.999992
0.999992
0.999906
0.999904
0.999645
1
0.999621
1
0.999647
1
0.999631
1
0.998954
1
0.999134
1
0.998904
1
0.999138
1
0.996754
1
0.996772
1
0.996773
1
0.996666
1
0.994051
0.998167
0.995749
1
0.994053
0.99842
0.995686
1
0.999892
0.999999
1
1
1
1
4.83438e-06
1.84265e-05
8.09599e-06
3.83222e-05
0.00608791
0.0536412
0.389624
0.928758
0.999203
0.999199
0.989139
0.989009
0.999999
0.999999
0.999969
0.999968
1
0.999997
1
1
1
1
1
0.999999
0.999999
1
1
0.999998
1
1
1
1
1
1
1
1
0.999998
1
1
1
0.999998
1
1
0.999999
0.999997
1
0.999997
1
0.999235
0.998858
0.999878
0.999977
0.999977
0.999973
0.999975
0.99999
0.999995
1
1
0.999633
1
0.999541
1
0.999598
1
0.999562
1
0.998526
1
0.998859
1
0.998592
1
0.998918
1
0.997027
1
0.997002
1
0.999921
1
1
0.999998
0.999999
1
3.61293e-07
3.28659e-06
3.12481e-06
2.41198e-05
0.00570318
0.0548642
0.170732
0.754274
1
1
0.968561
0.968593
0.999998
1
1
0.999998
0.999999
1
1
0.999999
1
1
0.999999
0.999997
1
0.999998
1
1
1
0.999999
0.999999
0.999999
1
0.999998
1
1
1
1
0.999999
1
0.999997
1
0.999178
0.998344
0.99982
0.999721
0.999695
0.999799
0.999835
0.999975
0.999977
0.999966
0.999966
1
1
1
0.999992
1
0.999999
1
0.999984
1
0.999716
1
0.999928
1
0.999828
1
0.999962
0.999558
1
0.999499
1
0.999604
1
0.999506
1
0.998672
1
0.998866
1
0.998753
1
0.998907
1
0.999966
1
0.999998
0.999995
0.999999
3.64461e-08
8.70639e-07
1.19214e-06
1.55506e-05
0.00401453
0.0330268
0.130305
0.580947
0.58061
0.374167
0.373411
0.986018
1
0.953795
1
0.985917
1
0.953728
1
0.902042
0.902654
0.999998
1
1
1
0.999999
1
1
0.999999
0.997426
1
0.999929
1
0.997385
1
0.999912
1
0.999999
1
1
1
1
1
1
1
0.999588
0.998344
0.999578
0.999501
0.999702
0.99974
0.999865
0.999884
0.999948
0.999945
0.999994
0.999991
0.999999
0.999982
0.999992
0.999996
0.999999
0.999987
1
1
1
0.999973
1
1
1
0.999998
1
0.999752
1
0.999894
1
0.999834
1
0.999961
0.999683
1
0.999628
1
0.999999
0.999999
0.999993
0.999993
6.68588e-09
3.77164e-07
2.81538e-07
4.27187e-06
0.00431004
0.0248135
0.175118
0.17645
0.0509435
0.0508087
0.272599
0.275045
0.222853
0.230281
0.965229
1
0.923106
1
0.965137
1
0.923207
1
0.903395
0.552247
0.777483
0.707756
0.902151
0.551406
0.77571
0.707373
1
1
1
1
1
1
1
1
0.998124
1
0.999574
1
0.998156
1
0.99954
1
0.999951
0.998409
0.998736
0.999605
0.998469
0.998468
0.999109
0.999144
0.999896
0.999888
0.999942
1
0.99989
1
0.999925
1
0.999879
1
1
1
0.999966
1
0.999981
1
0.99998
1
0.999971
1
0.999985
1
0.999986
0.999999
0.999991
1
1
1
1
1
1
0.999989
1
0.999986
1
0.999999
0.999988
7.4417e-09
1.1075e-07
4.45743e-08
1.98197e-06
0.00172938
0.00714389
0.146795
0.14466
0.02737
0.0270928
0.222591
0.395483
0.275443
0.241991
0.371689
0.614161
0.388053
0.227868
0.568846
0.247662
0.24699
0.361063
0.161071
0.184361
0.234762
0.295605
0.158627
0.187178
0.238772
0.324399
0.931897
1
0.894209
0.999244
0.931894
1
0.894362
0.99916
0.824711
0.540807
0.799689
0.535216
1
0.999917
1
0.999896
0.979896
1
0.97978
1
0.99999
0.999198
0.997129
0.999789
0.998894
0.998836
0.998434
0.998432
0.999011
0.999001
0.999562
0.99958
1
0.999422
1
0.999591
1
0.999847
1
0.999421
1
0.999591
1
0.999878
0.999928
1
0.999957
1
0.999999
1
0.999977
0.999988
1
1
0.999976
1
0.999993
0.99998
1
0.999999
0.999995
1
0.999993
1
1
0.999999
1.28002e-08
3.00542e-09
6.08554e-08
7.29477e-06
0.000163549
0.00208451
0.00208858
0.000298979
0.000298979
0.0594008
0.0580207
0.00768474
0.00760024
0.232516
0.233965
0.363912
0.296793
0.263509
0.438924
0.231709
0.241392
0.25955
0.297802
0.265857
0.427137
0.124683
0.107283
0.241357
0.438069
0.120023
0.121214
0.237434
0.340983
0.755221
0.943302
0.75428
0.942918
0.999999
0.999824
0.997064
0.999129
0.999764
0.998619
0.99857
0.998438
0.99843
0.998155
0.99969
0.998161
0.999894
0.998207
0.999674
0.998213
0.999894
0.998752
0.999426
0.999872
0.998437
0.999854
1
0.998836
0.999424
0.999888
0.998455
0.999876
1
1
1
0.999572
0.999851
1
1
0.999602
0.999828
0.999937
1
0.99991
1
0.999996
1
1
1
0.999932
1
0.999984
0.999999
1
1.93803e-10
1.44907e-09
2.9789e-07
1.68697e-05
0.000297995
0.000514799
0.000515666
0.000298979
0.000298979
0.0094418
0.0152563
0.024335
0.0051934
0.00921634
0.0155692
0.025102
0.00513899
0.00194807
0.00196254
0.0722723
0.053117
0.175425
0.327102
0.0706213
0.0633777
0.1612
0.216652
1
0.999991
0.999067
0.996564
0.999888
0.999443
0.999437
0.998328
0.998356
0.998448
0.998379
0.998285
0.99824
0.998352
0.999596
0.998484
0.999597
0.998326
0.9996
0.998522
0.999625
0.999171
0.998583
0.999966
0.999543
0.998533
0.9995
0.999165
0.998635
0.999584
0.999972
0.998574
0.999539
1
0.99974
1
0.999719
5.15897e-12
2.62581e-09
6.93174e-07
5.50742e-05
0.000537172
0.000540001
0.000306992
0.000307501
0.000506528
0.000488218
0.000467196
0.00046463
0.00294904
0.0054395
0.0103549
0.00224094
0.00308164
0.00552373
0.0123914
0.00218483
0.000431689
0.000729425
0.00142926
0.0018902
0.000487616
0.000718048
0.00138854
0.00191804
0.021136
0.0398322
0.0199477
0.0270794
0.999998
0.999958
0.998025
0.996872
0.999944
0.999456
0.999464
0.998313
0.99835
0.997864
0.997886
0.998952
0.997742
0.999569
0.997277
0.998945
0.99765
0.999542
0.997189
0.998384
0.999567
0.998441
0.999504
0.998299
0.999561
0.998443
0.99951
4.74323e-12
1.36298e-09
1.15909e-06
4.89338e-05
0.000563435
0.000555349
0.000256052
0.000254833
0.000431284
0.000702153
0.000696175
0.000430627
0.000626218
0.000431055
0.000486453
0.000623308
0.000686294
0.000477513
0.000732322
0.000477834
0.00069836
0.000760561
0.00135515
0.00160803
0.00404096
0.00135489
0.00135489
0.00151424
0.00380359
0.00135515
0.000867692
0.00191433
0.000806933
0.00181335
0.999993
0.999869
0.99789
0.999289
0.999965
0.999964
0.999863
0.999858
0.99981
0.999716
0.998448
0.998421
0.996712
0.999316
0.996713
0.998796
0.997284
0.999042
0.996716
0.99931
0.996703
0.998719
0.997191
0.998969
0.997873
0.999569
0.997773
0.999569
0.99809
0.999569
0.998011
0.999569
4.09729e-12
2.12446e-08
3.49822e-06
4.20774e-05
4.19661e-05
2.5532e-05
2.55812e-05
0.000573038
0.000528285
0.000170547
0.000160358
0.000431055
0.000809154
0.000797195
0.000430386
0.000843142
0.000430627
0.000485189
0.000800989
0.00113508
0.000476857
0.00106287
0.000508709
0.000542076
0.00111789
0.00062679
0.00112452
0.000645927
0.00113507
0.000757864
0.00113511
0.999991
0.999697
0.998839
0.999751
0.999971
0.999985
0.999681
0.999731
0.999138
0.999133
0.996698
0.998947
0.999989
0.997377
0.999226
0.997405
0.999984
0.997226
0.999165
0.997254
0.996703
0.998912
0.996682
0.997298
0.997784
0.998922
0.99669
0.997213
0.997787
0.998791
0.997573
0.999543
0.99746
0.999511
1.671e-11
1.45529e-05
0.000132802
3.06983e-05
3.07729e-05
2.55812e-05
2.57578e-05
0.000520213
0.00113509
0.000649247
0.000460947
0.000772277
0.000307645
0.000589387
0.00113511
0.000532762
0.000385786
0.000571489
0.000241015
0.000155577
0.000137298
0.000944189
0.000522803
0.00113507
0.000689707
0.00057028
0.00113513
0.000733927
0.00113509
0.999987
0.999381
0.997901
0.998629
0.998516
0.999944
0.999965
1
1
0.999839
0.99983
0.998093
1
0.997769
0.999871
0.997679
0.999745
0.998121
0.997518
0.999681
1
0.997766
0.99984
0.997097
0.998065
0.997656
0.999315
0.997562
0.996975
0.999226
0.99809
3.8055e-33
0.00185007
0.0133511
5.2065e-05
5.1203e-05
2.57646e-05
2.61483e-05
0.000467188
0.00113511
0.000487724
0.000328605
0.000603178
0.000168873
0.000470445
0.00106061
0.000421684
0.00025794
0.000484845
0.000119555
4.67461e-05
0.000112041
9.29369e-05
0.00013692
4.67461e-05
0.000108463
8.14489e-05
0.000142679
0.000470033
0.00113414
0.000596773
0.00106889
0.999968
0.998716
0.996021
0.999351
0.999291
0.999964
0.999968
1
1
0.998568
0.999925
1
0.999538
1
0.999905
0.998666
0.999916
1
0.999577
1
0.99991
0.998036
0.997743
0.999549
0.999379
0.997612
0.999297
0.998094
0.999524
0.000274553
0.013265
0.0538387
0.017261
0.0171879
0.0485397
0.0303048
0.0248036
0.0109533
4.67461e-05
0.000161576
0.0112501
4.67461e-05
0.000166484
0.000362565
0.000739083
0.000234775
0.000173395
0.000330026
0.000119595
0.000316092
0.000593962
0.000258948
0.000124569
0.000347184
9.03728e-05
6.86382e-05
0.000224068
6.60274e-05
0.000239347
0.999931
0.998049
0.994111
0.999391
0.999319
1
1
0.999998
1
0.999984
1
0.999947
1
0.999999
0.999966
1
1
0.999991
1
0.99911
0.999908
0.999796
1
0.999097
0.999901
0.999782
1
0.998341
0.999653
0.99837
0.99963
0.00719031
0.0107198
0.0655322
0.00560281
0.0708503
0.00604173
1.80658e-05
0.000443266
0.0711522
0.0160394
0.034277
4.67461e-05
4.67461e-05
0.0749773
0.0597754
0.050895
0.0155505
0.0693372
0.0355185
4.67461e-05
4.67461e-05
0.0776214
0.0613065
0.0711545
0.000312261
6.6239e-05
0.000350665
6.61477e-05
0.00108415
0.00341737
0.0010522
0.00368079
0.999912
0.997831
0.990749
0.999408
0.999356
0.990675
0.997284
0.997025
1
0.999994
1
1
0.999997
1
0.999931
0.999961
1
1
0.999946
1
0.999974
1
0.999492
1
0.999846
1
0.99948
1
0.999867
1
0.00448568
9.03907e-05
0.0191193
0.0768761
0.081689
9.78606e-06
0.0177372
0.135299
0.0814661
1.01376e-05
1.72421e-05
2.63796e-05
0.0727527
0.101428
0.0182375
0.0441448
0.111798
0.086933
0.0713388
0.0177151
0.099471
0.0456301
0.110236
0.149262
0.00250608
0.000611441
0.00267981
0.000565927
0.999916
0.997752
0.990441
0.99948
0.999434
0.990429
0.99602
0.995676
0.999986
0.999992
1
0.999999
1
1
0.99992
1
0.999987
0.999994
1
0.999997
1
1
0.9999
1
0.999922
0.999971
1
1
0.999944
1
0.999981
1
3.72148e-05
6.78998e-07
2.83294e-05
1.92526e-05
7.08653e-07
1.3711e-09
7.68184e-10
1.09025e-05
0.0857271
0.0140657
0.0272542
0.0421977
4.53712e-05
0.000395998
0.000485708
2.09891e-06
3.10183e-07
2.94111e-07
1.3088e-05
0.0666699
0.0142224
0.0193177
0.0436408
4.36505e-05
0.000394105
0.000496721
1.84407e-06
2.63657e-07
2.78589e-07
0.107258
0.0605838
0.135495
0.0911441
0.106114
0.0608358
0.149823
0.0917546
0.999923
0.995596
0.990429
0.998949
1
0.999707
0.998885
1
0.999693
0.990429
0.993397
0.993001
0.999991
0.999972
0.999974
1
1
1
0.999993
0.999961
0.999976
1
1
1
0.999949
1
0.999958
1
3.43225e-07
1.26355e-06
1.13682e-08
1.28966e-06
1.19417e-08
4.52576e-10
4.4967e-10
0.0244809
0.00103946
0.000881681
0.0434289
3.26792e-07
5.24359e-07
3.8624e-08
1.01333e-07
1.129e-06
4.35289e-07
9.30666e-07
2.07033e-07
2.88824e-07
3.40813e-07
0.0247545
0.00102057
0.032141
0.000997036
2.49325e-07
2.63657e-07
9.03032e-08
2.59682e-08
8.6135e-07
2.87618e-07
7.89313e-07
1.4892e-07
2.80381e-07
2.92241e-07
0.999795
0.996642
0.990429
0.990429
0.996571
0.992111
0.992103
0.996705
1
0.99891
1
0.999362
0.999992
0.997368
0.999992
0.996339
1
0.998866
1
0.999334
0.999992
0.997403
0.999992
0.99098
0.995982
0.999992
0.9907
0.995756
0.999992
0.999995
0.9998
1
1
0.999987
0.999819
1
1
5.90954e-07
4.10806e-08
1.88807e-07
2.78161e-08
1.38434e-09
2.91444e-08
1.44034e-07
2.18333e-08
1.35795e-09
1.43966e-08
1.49292e-08
3.10183e-07
2.94111e-07
3.11441e-07
1.45514e-06
9.99185e-08
3.8392e-08
2.12255e-07
8.66754e-07
4.077e-07
1.84499e-07
2.63657e-07
2.78589e-07
2.35619e-07
1.03341e-06
8.05644e-08
1.91836e-07
2.57141e-08
8.72878e-07
3.57142e-07
1.64439e-07
0.999752
0.995377
0.992742
0.992802
0.995305
0.992266
0.992095
0.999399
0.998372
0.999999
0.999992
0.996876
0.999923
0.99939
0.998315
0.999999
0.999992
0.996848
0.99992
0.983728
0.988312
0.998199
0.99315
0.999992
0.994538
0.987476
0.998012
0.983615
0.988102
0.998147
0.992771
0.999992
0.994337
0.986851
0.997953
7.08084e-06
3.29437e-07
3.64853e-07
4.37634e-08
3.94338e-07
2.36135e-08
3.96415e-07
2.7525e-08
2.20936e-07
2.92174e-08
3.0658e-07
1.899e-08
3.22808e-07
2.14882e-08
1.50425e-07
9.69848e-08
5.2622e-08
6.348e-08
2.67635e-07
1.28259e-07
4.41229e-07
8.33273e-08
4.17578e-08
3.84979e-08
3.02683e-07
1.32736e-07
4.06033e-07
0.999732
0.995824
0.992256
0.99851
0.991022
0.991957
0.99845
0.990479
0.99575
0.991376
0.991236
0.997445
0.999974
0.995931
0.999784
0.997377
0.999974
0.995999
0.999784
0.985611
0.983706
0.993453
0.994671
0.999349
0.99338
0.985425
0.983591
0.993339
0.999347
0.994501
0.993134
2.28666e-14
3.93439e-06
6.98364e-06
3.81014e-06
5.86795e-06
1.9377e-06
7.34668e-08
2.29588e-08
2.06655e-07
2.28319e-08
3.59479e-08
4.35342e-07
5.38955e-06
1.33475e-06
7.7217e-08
1.89908e-08
2.13511e-07
1.899e-08
2.34162e-08
4.19697e-07
3.59645e-06
3.7602e-08
1.25799e-07
3.01846e-08
1.298e-07
0.999794
0.995583
0.995715
0.990724
0.998869
0.994251
0.999037
0.993051
0.990477
0.998841
0.9939
0.999022
0.992846
0.990674
0.990626
0.982323
0.989793
0.986763
0.991402
0.998217
0.994061
0.982213
0.989635
0.986758
0.99822
0.991079
0.993776
1.13122e-17
1.14501e-28
1.53808e-12
1.04143e-28
1.13678e-12
1.5789e-05
1.10466e-05
2.30344e-05
2.99653e-08
2.02372e-06
6.47065e-07
8.86495e-08
7.44291e-08
2.25003e-08
2.48524e-07
2.08247e-08
2.3274e-08
1.03161e-07
1.75491e-05
3.1658e-08
1.34474e-06
5.00795e-07
4.46548e-08
8.20528e-08
1.899e-08
2.5516e-07
1.89908e-08
2.16508e-08
1.27799e-07
0.999807
0.996395
0.996137
0.996431
0.995939
0.988059
0.999144
0.994983
0.999144
0.992986
0.990454
0.99518
0.987949
0.999144
0.9946
0.999144
0.992694
0.990344
0.995011
0.992189
0.992081
0.983467
0.988356
0.98327
0.987978
5.21061e-16
9.88941e-34
8.3e-34
8.17215e-34
2.45074e-18
3.144e-07
1.20382e-09
2.15668e-07
6.92417e-10
6.11856e-05
4.98321e-05
6.624e-05
1.12519e-05
6.37293e-06
1.69599e-05
2.96022e-08
3.71783e-07
4.59536e-07
2.44808e-08
1.899e-08
1.899e-08
2.89557e-08
1.9018e-08
5.32554e-05
7.80547e-06
5.7149e-06
1.14288e-05
3.00429e-08
2.86054e-07
4.6163e-07
2.01095e-08
1.90121e-08
1.89908e-08
3.74907e-08
1.899e-08
0.999702
0.995861
0.996573
0.995592
0.996411
0.992467
0.992576
0.988441
0.998082
0.976022
0.994586
0.988457
0.998903
0.993751
0.997997
0.993998
0.988371
0.989816
0.988026
0.998082
0.975542
0.994418
0.987892
0.998891
0.993499
0.997915
0.993673
0.98816
0.989522
1.57247e-15
7.08558e-16
3.05069e-16
7.09756e-16
3.07916e-16
2.71866e-11
6.95522e-14
1.62372e-11
5.30755e-14
1.17032e-05
2.47916e-07
8.68501e-06
1.50426e-07
0.000104889
2.66981e-05
0.000104685
3.65332e-05
8.8819e-05
1.90614e-05
8.40341e-05
2.15002e-05
4.1231e-05
3.5791e-06
9.66012e-06
9.82425e-06
3.03816e-05
2.48093e-06
8.67425e-06
6.63996e-06
0.999597
0.996243
0.995683
0.996253
0.995749
0.991403
0.991379
0.991402
0.991422
0.991869
0.991938
0.996461
0.974827
0.993494
0.97784
0.998199
0.983044
0.991763
0.992017
0.998614
0.992593
0.995806
0.993888
0.996384
0.974922
0.993113
0.976892
0.998171
0.982989
0.991723
0.991752
0.998615
0.992338
0.9957
0.99358
3.02761e-16
-5.51296e-40
2.29626e-15
1.43518e-15
1.97362e-15
9.14422e-16
3.94982e-09
7.21522e-13
2.75189e-09
5.24851e-14
1.69846e-05
5.25593e-06
3.69369e-05
7.6477e-06
2.43367e-06
4.83482e-09
3.14586e-09
1.46349e-06
1.45413e-05
3.9878e-06
2.83448e-05
5.27391e-06
2.20416e-06
5.20328e-09
5.3511e-09
1.01419e-06
7.27754e-05
7.35868e-06
6.85708e-05
1.11374e-05
4.2135e-05
4.00646e-06
4.50143e-05
7.36722e-06
0.999568
0.99456
0.995115
0.994591
0.995048
0.992107
0.992314
0.992267
0.992424
0.991037
0.989766
0.991066
0.989901
0.996698
0.992725
0.997724
0.982921
0.996493
0.992403
0.997724
0.981154
0.986795
0.974817
0.986134
0.97441
0.986791
0.974923
0.9862
0.974383
6.65145e-10
7.974e-12
5.15169e-11
7.66219e-12
5.29127e-11
-6.5672e-47
4.72634e-13
4.00286e-12
4.32024e-13
3.39188e-12
5.18272e-10
2.34934e-09
2.66403e-09
3.83268e-11
4.76428e-11
5.8678e-12
1.09787e-11
3.8245e-11
4.16541e-10
1.65889e-09
2.0981e-09
5.87583e-11
5.30668e-11
8.90179e-12
1.22828e-11
5.88409e-11
1.25385e-05
3.75329e-06
2.94742e-05
5.53612e-06
2.34838e-06
6.46332e-08
5.26481e-08
2.24353e-06
1.14581e-05
2.67722e-06
2.0941e-05
3.72635e-06
2.41369e-06
6.12491e-08
5.5943e-08
1.67665e-06
0.999776
0.993719
0.991932
0.990795
0.991984
0.990796
0.989283
0.990682
0.989452
0.99071
0.997724
0.993001
0.997724
0.991833
0.997724
0.984772
0.996889
0.989926
0.997724
0.99281
0.997724
0.991655
0.997724
0.984594
0.996971
0.989722
0.986764
0.987122
0.995232
0.976503
0.986269
0.986402
0.994887
0.975989
6.88433e-10
8.93033e-10
6.68396e-10
8.73724e-10
6.68396e-10
4.64731e-11
3.96604e-10
4.4946e-11
3.91753e-10
3.65639e-14
1.40636e-11
2.40962e-12
1.03296e-11
2.25129e-12
2.47771e-11
3.24191e-12
2.29782e-11
3.47587e-12
1.13182e-11
1.99288e-12
9.34988e-12
1.61047e-12
1.99446e-11
2.75004e-12
1.95039e-11
2.88702e-12
4.0934e-10
2.63266e-09
1.9181e-09
1.39666e-10
1.31188e-10
1.1916e-11
2.23538e-11
7.75255e-11
2.78872e-10
1.97693e-09
1.52129e-09
8.77257e-11
9.98616e-11
1.58887e-11
2.20565e-11
7.55375e-11
0.999919
0.996136
0.989807
0.989814
0.989814
0.989807
0.991034
0.990963
0.991101
0.991022
0.995572
0.979899
0.996785
0.979863
0.996485
0.987702
0.997884
0.981939
0.995153
0.980275
0.996853
0.979923
0.996245
0.986067
0.997739
0.98115
0.997724
0.989683
0.997724
0.990029
0.99734
0.985239
0.992122
0.989788
0.997724
0.989131
0.997724
0.98995
0.99736
0.985346
0.992308
0.989853
3.01967e-06
3.67845e-14
4.57934e-09
2.04402e-07
3.58762e-09
1.67086e-07
8.84074e-12
2.42184e-12
5.11709e-11
3.66608e-11
5.94711e-11
3.28696e-11
8.74157e-10
6.23316e-10
4.78278e-10
4.92474e-10
8.56558e-12
1.88268e-12
4.09345e-11
3.49144e-11
5.82051e-11
2.55092e-11
7.86325e-10
5.91706e-10
4.40289e-10
4.56463e-10
1.06429e-13
1.94865e-11
3.02809e-12
1.50452e-11
2.2946e-12
3.30736e-11
2.7148e-12
1.65496e-11
2.47325e-12
1.39598e-11
1.62485e-12
2.54034e-11
2.30042e-12
5.80154e-11
9.20736e-12
1.84367e-11
5.17843e-11
4.50636e-11
1.23027e-11
1.89071e-11
5.14726e-11
0.999982
0.998253
0.989807
0.989814
0.989814
0.989807
0.991962
0.991848
0.991521
0.991219
0.9987
0.990806
0.998644
0.990912
0.998764
0.992098
0.998912
0.991135
0.998741
0.989415
0.998623
0.989951
0.998807
0.991521
0.998926
0.990494
0.986408
0.979928
0.989448
0.979861
0.994647
0.988839
0.997857
0.984864
0.984814
0.979989
0.989631
0.979922
0.993924
0.988103
0.997519
0.983878
1.15325e-06
2.38678e-06
6.44268e-06
2.26818e-06
7.33969e-06
4.20284e-11
1.59942e-09
2.27578e-07
8.61304e-10
1.88323e-07
2.35244e-12
3.1911e-12
5.01703e-11
4.84383e-11
2.27684e-11
5.39709e-11
1.10606e-09
5.15755e-10
3.28675e-10
3.467e-10
1.87034e-12
1.97041e-12
3.47786e-11
3.85682e-11
1.89221e-11
4.83401e-11
1.01947e-09
4.95902e-10
2.92169e-10
3.1865e-10
5.35377e-13
2.33903e-11
2.77482e-12
1.46066e-11
2.23444e-12
4.2577e-11
2.32371e-12
2.00658e-11
2.26208e-12
1.49099e-11
1.63821e-12
3.2681e-11
1.85801e-12
0.999994
0.999572
0.994771
0.993499
0.995469
0.992989
0.994957
0.992074
0.992817
0.99996
0.991391
0.999999
0.999208
0.994187
0.999999
0.992765
0.999999
0.992455
0.991234
0.999912
0.99008
0.999946
0.999154
0.992328
0.999999
0.991839
0.999999
0.999015
0.990433
0.998956
0.991003
0.998975
0.992237
0.998922
0.989887
0.998799
0.990434
0.998932
0.991952
0.998312
0.989383
0.999545
0.986183
0.998008
0.988734
0.999433
0.985054
2.11478e-07
4.57284e-06
2.66123e-06
4.93188e-06
2.74397e-06
1.04504e-06
1.87365e-05
1.25926e-06
1.88863e-05
2.65131e-10
1.23828e-08
1.63722e-09
9.99025e-10
1.13711e-08
2.67107e-08
1.67017e-07
8.7106e-08
1.87768e-08
1.19943e-08
8.86893e-10
8.77688e-10
1.04585e-08
2.16387e-08
1.34085e-07
7.16224e-08
1.06329e-08
3.18822e-12
5.11659e-11
2.23062e-09
9.55119e-10
6.71405e-10
4.53684e-10
1.86164e-12
4.20228e-11
2.02663e-09
8.6834e-10
5.59902e-10
4.10455e-10
1.18084e-12
0.999997
0.999721
0.997678
0.997901
0.997997
0.997905
0.997875
0.998049
0.997991
0.997642
0.997965
0.992732
0.991743
0.999947
0.999634
0.991235
0.999936
0.997417
0.999999
0.994522
0.999923
0.992052
0.991015
0.999558
0.999937
0.989983
0.999925
0.996941
0.999999
0.993756
0.999898
0.99986
0.990517
0.999856
0.991035
0.999853
0.99345
0.999843
0.989964
0.999827
0.99032
0.999838
0.992929
1.40034e-05
2.06986e-07
1.73073e-05
9.43045e-06
1.83165e-05
1.02351e-05
2.61278e-08
9.46893e-08
2.49715e-08
5.62517e-07
2.92051e-07
1.36103e-08
1.70717e-05
1.74238e-05
1.18744e-05
5.94088e-06
2.68611e-08
6.91867e-08
2.59016e-08
6.73085e-07
3.35296e-07
1.352e-08
1.68494e-05
1.73408e-05
1.2233e-05
5.94515e-06
6.60922e-10
1.35199e-08
6.31014e-09
5.00078e-09
1.34494e-08
1.53153e-08
1.31154e-08
1.26444e-08
4.86492e-09
4.07778e-09
1.25177e-08
1.34309e-08
1.07573e-08
7.4012e-13
0.999999
0.999767
0.998598
0.997892
0.995441
0.997696
0.995409
0.999159
0.999576
0.999139
0.999488
1
0.998326
1
0.997801
1
0.996591
1
0.997167
1
0.998081
1
0.997772
1
0.997115
1
0.997428
0.992827
0.999919
0.998685
0.999999
0.997094
0.999999
0.992169
0.999924
0.998468
0.999999
0.996609
0.999999
4.45513e-05
5.55482e-05
9.96224e-05
5.5505e-05
9.92749e-05
1.24456e-07
5.39286e-05
3.74258e-05
5.54385e-05
3.84037e-05
5.14964e-08
2.73227e-08
1.73401e-08
2.61278e-08
1.60068e-07
8.55931e-08
1.61502e-05
7.10071e-06
5.46708e-06
1.87252e-06
4.08572e-08
2.78533e-08
1.72769e-08
2.68611e-08
1.74608e-07
9.23058e-08
1.60386e-05
6.96586e-06
5.57544e-06
1.90804e-06
6.2522e-10
7.59186e-09
1.28191e-08
6.15854e-09
9.52355e-09
5.46239e-12
0.999999
0.999864
0.998098
0.999084
0.999622
0.999767
0.999624
0.999768
0.998617
0.996592
1
0.99952
1
1
0.999891
1
0.999872
1
0.997129
0.9987
1
0.999422
1
1
0.999809
1
0.99983
1
1
0.997984
1