/*--------------------------------*- C++ -*----------------------------------*\
| =========                 |                                                 |
| \\      /  F ield         | OpenFOAM: The Open Source CFD Toolbox           |
|  \\    /   O peration     | Version:  5.x                                   |
|   \\  /    A nd           | Web:      www.OpenFOAM.org                      |
|    \\/     M anipulation  |                                                 |
\*---------------------------------------------------------------------------*/
FoamFile
{
    version     2.0;
    format      ascii;
    class       surfaceScalarField;
    location    "2";
    object      alphaPhi10;
}
// * * * * * * * * * * * * * * * * * * * * * * * * * * * * * * * * * * * * * //

dimensions      [0 3 -1 0 0 0 0];

internalField   nonuniform List<scalar> 
30582
(
0.000216359
-4.40708e-06
0.000220829
-4.46932e-06
0.000216187
-8.61509e-06
0.000221621
-7.92372e-07
0.000220559
-8.8419e-06
0.000215284
-1.18628e-05
0.000217422
4.19842e-06
0.000221236
-1.46962e-06
0.000219904
-1.34609e-05
0.000213818
-1.35604e-05
0.00021123
6.19276e-06
0.000216707
8.7279e-06
0.000221165
-2.73137e-06
0.000217556
-1.71993e-05
0.00021167
-1.30013e-05
0.000204085
7.14484e-06
0.000210577
1.23229e-05
0.000217134
1.2759e-05
0.000217382
-2.55724e-06
0.000215806
-2.13354e-05
0.000207043
-7.67302e-06
0.000196766
7.31889e-06
0.000203897
1.38245e-05
0.000211343
1.8114e-05
0.000213459
1.66827e-05
0.000216719
-3.47076e-06
0.000208978
-2.32703e-05
0.000203737
1.12904e-06
0.000187827
8.93921e-06
0.000196927
1.42893e-05
0.000204683
2.04847e-05
0.000208289
2.3283e-05
0.000213727
1.96747e-05
0.000207135
-1.6276e-06
0.000207388
-2.69192e-05
0.000187495
2.63649e-05
0.000176507
1.13199e-05
0.000188349
1.75166e-05
0.000197897
2.10749e-05
0.000203074
2.57005e-05
0.000209664
2.73465e-05
0.000205543
2.12662e-05
0.000207785
-2.02426e-06
0.00018232
-1.91231e-05
5.69818e-05
-6.90573e-06
0.000162155
1.43517e-05
0.000177255
2.24145e-05
0.00018977
2.56442e-05
0.000197675
2.64737e-05
0.000205091
3.0273e-05
0.00020395
2.89397e-05
0.000206979
2.20731e-05
0.000182478
-1.36536e-06
6.62349e-05
-2.14067e-06
-5.22266e-06
9.86337e-08
0.000145039
1.71161e-05
0.000162947
2.86593e-05
0.000178874
3.33102e-05
0.000190735
3.25837e-05
0.000200038
3.15272e-05
0.000202234
3.19887e-05
0.000205441
3.04774e-05
0.000186676
1.7783e-05
8.19142e-05
-1.9872e-06
-6.73195e-06
2.45463e-08
1.66684e-07
-7.39379e-10
0.000126111
1.89278e-05
0.000145695
3.43684e-05
0.00016448
4.30528e-05
0.000180533
4.35127e-05
0.000193513
3.91083e-05
0.000199844
3.39175e-05
0.000203689
3.37392e-05
0.00019144
2.49073e-05
0.000102106
-8.22319e-07
-7.84646e-06
2.44616e-10
1.78037e-08
2.32459e-10
7.91275e-10
-2.57961e-12
0.000106655
1.94559e-05
0.000126465
3.81573e-05
0.000146845
5.20042e-05
0.0001663
5.72852e-05
0.000183712
5.3314e-05
0.000195475
4.34775e-05
0.000201938
3.56668e-05
0.000196223
2.78616e-05
0.000118648
1.01228e-06
-8.15233e-06
-7.36444e-09
-2.35312e-09
2.93962e-11
6.78902e-11
2.81248e-13
-2.46726e-14
3.43139e-16
8.80426e-05
1.86128e-05
0.000106646
3.92753e-05
0.000127086
5.79164e-05
0.00014825
7.00547e-05
0.000169431
7.15666e-05
0.000187139
6.16499e-05
0.000198391
4.70219e-05
0.000200431
3.02241e-05
0.000136933
2.31687e-06
-6.8847e-06
-2.14173e-08
-6.19709e-09
-4.37606e-13
2.94847e-12
1.07981e-13
-1.13966e-14
-3.21731e-17
2.2361e-16
-8.5971e-22
7.13931e-05
1.66495e-05
8.76466e-05
3.7612e-05
0.000106801
5.95603e-05
0.000127573
7.85932e-05
0.000150656
8.88296e-05
0.000173181
8.55247e-05
0.00019102
6.9017e-05
0.000202396
4.35301e-05
0.000156003
3.9531e-06
-3.94072e-06
-4.23071e-08
-1.21911e-08
-1.27747e-11
2.05802e-12
1.66801e-16
-1.79278e-17
6.26322e-18
5.76349e-18
-5.59468e-25
-7.93529e-25
5.69223e-05
1.44708e-05
7.06243e-05
3.36718e-05
8.74321e-05
5.69807e-05
0.000106075
8.10583e-05
0.000128813
0.000100436
0.000153555
0.000108456
0.000177154
9.93866e-05
0.000199372
6.97549e-05
0.000174773
9.73898e-06
2.45502e-06
-9.39477e-08
-2.37639e-08
-3.76727e-11
4.42791e-12
-2.12374e-15
5.80793e-17
-4.25868e-21
9.79866e-21
7.10993e-22
-2.36426e-23
4.47754e-05
1.21469e-05
5.61434e-05
2.89518e-05
7.00604e-05
5.10435e-05
8.56333e-05
7.74224e-05
0.000106199
0.000103672
0.000129938
0.000124053
0.000156343
0.000129261
0.000187858
0.000107663
0.000188455
2.30711e-05
1.43104e-05
-1.6084e-07
-4.67434e-08
-1.04454e-10
7.91251e-12
-9.33881e-15
3.34335e-16
-7.35668e-20
3.07142e-21
7.50032e-25
-5.53673e-26
3.47917e-05
9.98368e-06
4.42018e-05
2.40884e-05
5.53445e-05
4.36677e-05
6.76617e-05
6.90152e-05
8.49678e-05
9.86532e-05
0.000105114
0.000128497
0.00013068
0.000149712
0.000167043
0.000146076
0.000190844
4.39672e-05
2.80016e-05
-9.27618e-08
-6.85623e-08
-2.56984e-10
1.66538e-11
-3.324e-14
7.96597e-16
-3.28218e-19
6.99887e-21
-1.20579e-24
-2.66727e-26
2.64313e-05
8.36042e-06
3.43832e-05
1.98023e-05
4.33468e-05
3.60861e-05
5.29618e-05
5.83676e-05
6.63413e-05
8.76417e-05
8.19421e-05
0.000121825
0.000103672
0.000155504
0.000139396
0.000173263
0.000180114
6.64e-05
3.72233e-05
1.43617e-06
4.42561e-08
-5.55343e-10
3.02944e-11
-9.50465e-14
2.1177e-15
-1.2183e-18
-4.42352e-22
-7.8435e-24
1.06802e-25
1.92598e-05
7.17146e-06
2.61445e-05
1.65991e-05
3.36462e-05
2.95029e-05
4.13812e-05
4.76667e-05
5.12238e-05
7.34851e-05
6.21841e-05
0.0001074
7.90692e-05
0.000146428
0.000108616
0.000183163
0.000160583
8.31193e-05
3.94403e-05
3.80207e-06
4.87496e-07
-5.19377e-10
6.15251e-11
-2.3099e-13
5.7859e-16
-3.2792e-18
-3.30519e-20
-3.40064e-23
3.26329e-25
1.30256e-05
6.23421e-06
1.90322e-05
1.42837e-05
2.55519e-05
2.46934e-05
3.21879e-05
3.86962e-05
3.9588e-05
5.93025e-05
4.70835e-05
8.85857e-05
5.84196e-05
0.000128049
7.90424e-05
0.000174511
0.000135934
9.22004e-05
3.65375e-05
5.65548e-06
8.85116e-07
1.31339e-08
2.69628e-10
-2.51646e-13
-1.816e-14
-7.4464e-18
-1.70799e-19
-9.42036e-23
1.0634e-24
7.6763e-06
5.34933e-06
1.27943e-05
1.24722e-05
1.8521e-05
2.13147e-05
2.45101e-05
3.23713e-05
3.07083e-05
4.75759e-05
3.63549e-05
7.0031e-05
4.28981e-05
0.000104107
5.35119e-05
0.000153406
0.000110961
9.26546e-05
3.16513e-05
6.63637e-06
9.81776e-07
3.6954e-08
1.27578e-09
3.29246e-12
-1.10574e-13
-6.58912e-18
-6.36554e-19
-2.2256e-22
1.08642e-24
3.32501e-06
4.35129e-06
7.39239e-06
1.07512e-05
1.22645e-05
1.87286e-05
1.77183e-05
2.81065e-05
2.3398e-05
3.96815e-05
2.86229e-05
5.53079e-05
3.24915e-05
8.04376e-05
3.57092e-05
0.00012191
8.91116e-05
8.62333e-05
2.87213e-05
6.7947e-06
8.42172e-07
5.50831e-08
3.00393e-09
1.87954e-11
-2.35685e-13
1.67267e-16
-2.58088e-18
-1.9816e-22
-5.38876e-24
2.2275e-07
3.10226e-06
2.9643e-06
8.77937e-06
6.73214e-06
1.62836e-05
1.15118e-05
2.49351e-05
1.67988e-05
3.47058e-05
2.21671e-05
4.61373e-05
2.57659e-05
6.20335e-05
2.55547e-05
9.05921e-05
7.29598e-05
7.83388e-05
3.03196e-05
6.81148e-06
5.48242e-07
6.6705e-08
5.45378e-09
4.01061e-11
2.2106e-15
9.63053e-16
-7.88839e-18
8.90397e-21
-6.29501e-23
-1.45136e-06
1.67411e-06
-2.10395e-07
6.27696e-06
2.07769e-06
1.34338e-05
5.85944e-06
2.19359e-05
1.0554e-05
3.11799e-05
1.59899e-05
4.0883e-05
2.03719e-05
5.15314e-05
1.98074e-05
6.77807e-05
6.0902e-05
6.86321e-05
3.56265e-05
7.15581e-06
2.66731e-07
7.94732e-08
9.28846e-09
6.15702e-11
9.31233e-13
2.99983e-15
-1.04624e-17
5.25377e-20
-2.27069e-22
-1.34188e-06
-1.09476e-07
-1.8023e-06
3.26601e-06
-1.43226e-06
9.7869e-06
9.90953e-07
1.83023e-05
4.62429e-06
2.78656e-05
9.78134e-06
3.73885e-05
1.49034e-05
4.63515e-05
1.50574e-05
5.62814e-05
5.02354e-05
6.00547e-05
4.43881e-05
7.80494e-06
3.36074e-07
9.59803e-08
1.66411e-08
8.29741e-11
3.09197e-12
6.18157e-15
3.62941e-18
1.53946e-19
-4.13005e-22
5.0906e-07
-1.85094e-06
-1.88816e-06
-2.3612e-08
-3.52756e-06
5.36131e-06
-2.77467e-06
1.35525e-05
-6.67341e-07
2.35939e-05
3.52838e-06
3.41186e-05
8.90502e-06
4.33868e-05
9.66405e-06
5.17448e-05
3.9914e-05
5.56835e-05
5.44069e-05
9.04725e-06
1.34214e-06
1.08301e-07
3.20144e-08
1.08807e-10
8.38546e-12
1.11421e-14
3.76458e-17
3.0923e-19
-3.59066e-22
4.13989e-06
-3.63083e-06
-8.10719e-08
-3.65803e-06
-3.54566e-06
-5.51155e-09
-4.83187e-06
7.41851e-06
-5.03591e-06
1.79211e-05
-2.43011e-06
2.95524e-05
2.31484e-06
4.07087e-05
3.10276e-06
4.99481e-05
2.87941e-05
5.54864e-05
6.13449e-05
1.18288e-05
3.60861e-06
1.5913e-07
7.14769e-08
2.66672e-10
2.65628e-11
2.65349e-14
9.89748e-17
5.71057e-19
4.29506e-22
9.31638e-06
-5.17649e-06
3.51061e-06
-7.22251e-06
-1.68689e-06
-5.5168e-06
-5.20237e-06
3.64985e-07
-7.84397e-06
1.02266e-05
-7.61155e-06
2.31025e-05
-4.47482e-06
3.63421e-05
-3.98465e-06
4.77961e-05
1.6847e-05
5.64546e-05
6.10411e-05
1.64818e-05
6.86372e-06
3.61962e-07
1.54541e-07
1.29156e-09
1.34197e-10
1.45364e-13
4.09668e-16
1.41305e-18
2.95326e-21
1.56818e-05
-6.36546e-06
8.73988e-06
-1.04058e-05
2.02916e-06
-1.09386e-05
-3.50762e-06
-7.21154e-06
-8.56358e-06
1.0846e-06
-1.10281e-05
1.36431e-05
-1.07414e-05
2.93691e-05
-1.01567e-05
4.25141e-05
4.53476e-06
5.58719e-05
5.14305e-05
2.22583e-05
9.82666e-06
8.81004e-07
2.50731e-07
5.2393e-09
7.70624e-10
1.34152e-12
6.32514e-15
7.20647e-18
7.06022e-21
2.29179e-05
-7.23606e-06
1.52738e-05
-1.28993e-05
7.57305e-06
-1.59496e-05
3.61749e-07
-1.48079e-05
-6.91223e-06
-8.86289e-06
-1.20502e-05
2.10668e-06
-1.50789e-05
1.79806e-05
-1.41765e-05
3.33889e-05
-6.85276e-06
5.057e-05
3.27826e-05
2.75344e-05
1.04761e-05
1.82399e-06
3.30012e-07
1.53962e-08
2.95101e-09
8.35779e-12
1.25108e-13
9.55098e-17
-1.19368e-19
3.05198e-05
-7.60189e-06
2.25937e-05
-1.4556e-05
1.44553e-05
-1.97816e-05
6.06918e-06
-2.16571e-05
-2.99126e-06
-1.87289e-05
-1.04346e-05
-1.04785e-05
-1.68643e-05
3.89207e-06
-1.65518e-05
2.0356e-05
-1.67347e-05
4.07188e-05
6.37817e-06
3.04201e-05
7.24623e-06
3.0355e-06
3.3431e-07
3.93204e-08
7.66294e-09
4.04926e-11
1.01916e-12
1.45799e-15
-4.8601e-18
3.81015e-05
-7.58169e-06
3.03604e-05
-1.53685e-05
2.22324e-05
-2.23331e-05
1.32961e-05
-2.70085e-05
3.2015e-06
-2.78498e-05
-5.99823e-06
-2.31653e-05
-1.60999e-05
-1.12429e-05
-1.7543e-05
4.88322e-06
-2.62373e-05
2.81056e-05
-2.38221e-05
2.92301e-05
2.44709e-07
4.09255e-06
1.46289e-07
8.27607e-08
1.31565e-08
1.74796e-10
4.54452e-12
1.46707e-14
-6.57911e-17
4.53023e-05
-7.20077e-06
3.80611e-05
-1.52824e-05
3.03197e-05
-2.34558e-05
2.1524e-05
-3.0561e-05
1.13417e-05
-3.51488e-05
7.29689e-07
-3.45778e-05
-1.18754e-05
-2.73898e-05
-1.63569e-05
-1.24045e-05
-3.47651e-05
1.26891e-05
-5.00242e-05
2.25942e-05
-8.29789e-06
4.41233e-06
-2.33714e-07
1.30117e-07
1.35165e-08
5.21169e-10
1.43919e-11
1.05093e-13
-3.85556e-16
5.18524e-05
-6.55019e-06
4.54153e-05
-1.4555e-05
3.83313e-05
-2.3294e-05
3.01227e-05
-3.20545e-05
2.04948e-05
-3.97141e-05
9.56641e-06
-4.39855e-05
-4.00106e-06
-4.24522e-05
-1.16773e-05
-3.19728e-05
-4.18093e-05
-4.32603e-06
-6.75025e-05
1.32529e-05
-1.49655e-05
3.45837e-06
-5.59716e-07
1.448e-07
5.72867e-09
9.56233e-10
2.54509e-11
4.55651e-13
-1.28972e-15
5.74789e-05
-5.62641e-06
5.21217e-05
-1.32567e-05
4.60073e-05
-2.22309e-05
3.86336e-05
-3.1805e-05
2.98694e-05
-4.1429e-05
1.95361e-05
-4.96838e-05
6.36517e-06
-5.43513e-05
-3.71095e-06
-5.01552e-05
-4.46131e-05
-2.38364e-05
-7.44336e-05
3.96312e-06
-1.73366e-05
1.94854e-06
-7.71978e-07
1.12866e-07
-4.8481e-09
1.1e-09
2.09277e-11
9.99828e-13
-1.37582e-15
6.1927e-05
-4.44817e-06
5.79427e-05
-1.14474e-05
5.3009e-05
-2.02584e-05
4.67219e-05
-3.03192e-05
3.90585e-05
-4.09941e-05
2.98334e-05
-5.17263e-05
1.83211e-05
-6.16394e-05
6.49097e-06
-6.39213e-05
-4.42791e-05
-3.84479e-05
-7.09462e-05
-5.5286e-06
-1.5375e-05
6.00288e-07
-7.63425e-07
5.99184e-08
-1.40242e-08
9.05229e-10
4.35391e-12
1.17763e-12
1.00605e-15
6.50678e-05
-3.14073e-06
6.26339e-05
-9.13938e-06
5.90999e-05
-1.75383e-05
5.42076e-05
-2.77441e-05
4.77786e-05
-3.90392e-05
3.98168e-05
-5.09771e-05
3.00469e-05
-6.34499e-05
1.71347e-05
-7.09468e-05
-4.11043e-05
-4.63738e-05
-5.72878e-05
-1.09602e-05
-1.05823e-05
-3.03456e-07
-5.62915e-07
1.65288e-08
-1.56887e-08
4.86542e-10
-1.05764e-11
1.00038e-12
2.21279e-15
6.68848e-05
-1.81706e-06
6.60899e-05
-6.59666e-06
6.40561e-05
-1.40956e-05
6.07721e-05
-2.41027e-05
5.58455e-05
-3.5811e-05
4.93922e-05
-4.86147e-05
4.08742e-05
-6.17958e-05
2.56665e-05
-6.96494e-05
-3.6281e-05
-4.66754e-05
-3.75035e-05
-1.08201e-05
-5.24893e-06
-5.75556e-07
-3.37617e-07
-2.19612e-09
-1.0294e-08
1.22606e-10
-1.02111e-11
4.93207e-13
4.14054e-15
-7.4827e-07
6.76331e-05
6.81991e-05
-3.92633e-06
6.75789e-05
-1.01195e-05
6.61752e-05
-1.94987e-05
6.29602e-05
-3.12174e-05
5.83945e-05
-4.48132e-05
5.08258e-05
-5.85402e-05
3.16069e-05
-6.41942e-05
-3.26561e-05
-3.95283e-05
-1.73145e-05
-7.75972e-06
-1.3673e-06
-4.37978e-07
-1.85296e-07
-3.96276e-09
-4.7741e-09
-6.84557e-13
-4.31843e-12
9.32005e-14
4.02632e-15
-1.49795e-06
6.89487e-05
3.31964e-06
6.43134e-05
6.93802e-05
-5.72775e-06
7.0272e-05
-1.42162e-05
6.87172e-05
-2.52557e-05
6.65249e-05
-3.93478e-05
6.00621e-05
-5.39909e-05
3.56947e-05
-5.76187e-05
-3.07039e-05
-2.73377e-05
-2.88007e-06
-4.36224e-06
3.50643e-07
-2.16461e-07
-9.50989e-08
-2.21237e-09
-1.66255e-09
-6.694e-12
-1.09261e-12
-5.40534e-16
1.39427e-15
-1.8522e-06
6.97345e-05
7.52926e-06
6.47391e-05
6.36764e-06
5.79458e-05
7.30308e-05
-8.48663e-06
7.26884e-05
-1.81875e-05
7.33811e-05
-3.21118e-05
6.81797e-05
-4.73615e-05
3.92106e-05
-5.09265e-05
-2.73278e-05
-1.84899e-05
3.77271e-06
-2.21211e-06
6.51263e-07
-7.87194e-08
-4.39231e-08
-8.73769e-10
-4.40497e-10
-2.45283e-12
-1.61021e-13
-1.41274e-15
2.74769e-16
-2.59631e-06
7.3775e-05
1.1635e-05
6.56288e-05
1.39575e-05
5.71493e-05
7.22368e-06
5.07221e-05
7.46744e-05
-1.04726e-05
7.86303e-05
-2.34365e-05
7.45397e-05
-3.83263e-05
4.23933e-05
-4.27982e-05
-2.10256e-05
-1.29651e-05
6.17781e-06
-1.14477e-06
4.7551e-07
-2.50225e-08
-1.97845e-08
-2.73901e-10
-1.04123e-10
-5.5599e-13
-9.39369e-15
-2.48288e-16
2.61168e-17
-3.03637e-06
7.51145e-05
1.78476e-05
6.75624e-05
2.21936e-05
5.73927e-05
1.66876e-05
4.76854e-05
-3.47923e-06
5.42013e-05
8.22425e-05
-1.40847e-05
7.86236e-05
-2.73636e-05
4.47937e-05
-3.28801e-05
-1.27887e-05
-8.85386e-06
6.49928e-06
-6.21654e-07
2.64619e-07
-8.62561e-09
-9.06002e-09
-7.90014e-11
-2.61344e-11
-1.05358e-13
-5.08486e-16
-3.07554e-17
1.50469e-18
-3.6424e-06
8.28486e-05
2.33376e-05
6.96244e-05
3.32378e-05
5.65182e-05
2.71991e-05
4.68812e-05
-2.27049e-06
4.64767e-05
-1.82611e-05
7.24625e-05
8.04746e-05
-1.58187e-05
4.599e-05
-2.20676e-05
-4.69356e-06
-5.59382e-06
5.98312e-06
-3.52046e-07
1.16464e-07
-3.33506e-09
-4.3473e-09
-2.4636e-11
-7.31045e-12
-2.00835e-14
-3.56171e-16
-4.44045e-18
7.53094e-20
-3.53995e-06
8.0375e-05
3.2474e-05
7.37115e-05
4.60282e-05
5.6834e-05
4.11208e-05
4.25965e-05
2.37624e-06
4.22344e-05
-2.59434e-05
5.41589e-05
-5.83223e-05
0.000130785
4.57027e-05
-1.16658e-05
1.5158e-06
-3.18332e-06
5.13151e-06
-1.88385e-07
3.1699e-08
-1.43176e-09
-2.24416e-09
-8.22918e-12
-2.55142e-12
-4.3389e-15
-1.8007e-16
-6.93159e-19
1.71488e-21
-1.32679e-06
4.3534e-05
4.219e-05
7.02064e-05
6.22729e-05
5.74647e-05
5.74355e-05
4.05194e-05
1.61606e-05
2.88121e-05
-2.41136e-05
4.04047e-05
-9.99305e-05
9.57671e-05
-7.82026e-05
0.000208987
5.04407e-06
-1.52872e-06
4.20776e-06
-8.82643e-08
-6.58955e-09
-6.45576e-10
-1.23111e-09
-3.02803e-12
-9.93818e-13
-1.14616e-15
-6.60882e-17
-1.33338e-19
-7.20981e-22
-4.89371e-07
7.39326e-06
3.47275e-05
3.14398e-05
8.05389e-05
5.087e-05
7.74029e-05
3.7494e-05
3.64305e-05
2.02494e-05
-1.18601e-05
1.65586e-05
-0.000117564
5.80382e-05
-0.000151217
0.000168781
-0.000130998
0.000339986
3.49103e-06
-3.91045e-08
-1.92866e-08
-2.79632e-10
-6.98077e-10
-1.24846e-12
-4.08557e-13
-3.60544e-16
-2.48629e-17
-3.35148e-20
-3.57824e-22
-1.83803e-08
3.01176e-06
3.32491e-06
9.869e-06
5.79013e-05
1.4938e-05
9.85042e-05
2.83103e-05
6.3804e-05
1.01159e-05
9.76561e-06
-1.37626e-06
-0.000111674
1.0669e-05
-0.000208169
0.00011499
-0.00023597
0.000273753
-1.16926e-05
0.000351678
-1.86537e-08
-1.18902e-10
-4.03195e-10
-5.79489e-13
-1.74578e-13
-1.30799e-16
-1.13928e-17
-1.03356e-20
-1.98126e-22
-4.70356e-11
-1.19817e-08
9.42066e-09
1.97361e-06
6.94885e-06
7.26028e-06
7.00383e-05
-5.27401e-06
9.42268e-05
-3.80659e-06
4.47219e-05
-2.48436e-05
-7.78986e-05
-3.51518e-05
-0.000226458
2.89588e-05
-0.000313693
0.000192714
-8.93653e-05
0.000351425
5.77428e-05
0.000293935
-2.1771e-10
-2.6005e-13
-8.98817e-14
-5.0204e-17
-6.04957e-18
-3.69993e-21
-8.91793e-23
-6.9974e-14
-8.69902e-11
4.26574e-11
-6.86016e-09
3.36648e-08
1.4613e-06
8.90159e-06
1.14548e-06
7.16936e-05
-3.43254e-05
8.51516e-05
-4.57633e-05
-1.31465e-05
-8.95595e-05
-0.000189485
-7.21217e-05
-0.000377511
9.27765e-05
-0.000240559
0.000343907
0.000104664
0.000304504
0.00193946
0.000682135
-0.00232766
-5.30687e-14
-1.86534e-17
-3.59938e-18
-1.41816e-21
-3.69817e-23
-4.33133e-18
-1.87554e-14
9.8785e-14
-4.15542e-11
1.22946e-10
-6.04533e-09
6.17621e-08
1.17884e-06
9.87242e-06
-9.36824e-06
7.04178e-05
-6.61005e-05
6.43668e-05
-0.000124388
-8.2487e-05
-0.000196344
-0.000368326
-8.12978e-05
-0.00039795
0.000250168
9.38287e-05
0.000354742
0.0015028
0.000741161
0.00234083
0.000821368
-0.00248006
0.000444582
-0.00277225
-2.19248e-18
-5.30556e-22
-1.82926e-23
-1.12122e-22
-5.89078e-19
1.29415e-17
-1.3695e-14
2.75346e-13
-3.85437e-11
1.91482e-10
-8.33666e-09
1.03721e-07
4.27424e-07
1.02666e-05
-1.96552e-05
7.08717e-05
-0.000118629
4.51901e-05
-0.000251547
-0.000236166
-0.000328184
-0.00042783
-5.14174e-05
2.07524e-05
0.000323244
0.00114716
0.000710389
0.00210163
0.000980359
0.00214414
0.000858054
-0.00218082
0.000547069
-0.00258255
0.000251583
-0.00302383
-1.25215e-23
-3.22554e-24
5.92992e-22
-5.12042e-19
4.36046e-17
-1.53778e-14
3.28021e-13
-4.83785e-11
3.30948e-10
-1.70923e-08
1.27819e-07
-2.80633e-07
1.10528e-05
-3.05297e-05
7.5457e-05
-0.000190131
-4.88143e-05
-0.000437151
-0.000355633
-0.000400326
-0.000104803
7.41379e-05
0.000924032
0.000546367
0.00180736
0.00100466
0.00202762
0.00109687
0.00185688
0.000901252
-0.00190008
0.000583162
-0.00221692
0.000364322
-0.00269529
0.000158139
-0.00318197
-5.0603e-24
1.98537e-21
-6.86529e-19
6.10327e-17
-2.47059e-14
4.47418e-13
-7.81325e-11
4.95033e-10
-4.3251e-08
1.65143e-07
-9.23773e-07
1.07776e-05
-3.38092e-05
6.04228e-05
-0.000327092
-0.000204841
-0.000586284
-0.000252503
-0.000252624
0.000669457
0.000328712
0.00146384
0.000889883
0.00184938
0.0011829
0.00176483
0.00118892
0.00166611
0.000997584
-0.00176244
0.000681148
-0.00199806
0.000430275
-0.00228287
0.000208373
-0.00274552
5.54129e-05
-0.00323738
-1.03154e-23
3.79203e-21
-1.34921e-18
9.28862e-17
-4.75912e-14
6.36022e-13
-1.52873e-10
7.37933e-10
-6.13459e-08
1.05337e-07
-9.56905e-07
1.83608e-05
-5.80534e-05
-8.9578e-06
-0.000519106
-0.000222388
-0.000616042
0.000434806
-1.7972e-05
0.00110247
0.00069009
0.0016294
0.00110987
0.0016133
0.00133442
0.00159352
0.00126152
0.0014452
0.00121188
-0.0016595
0.000877967
-0.00195926
0.000588283
-0.00215607
0.000312512
-0.00238701
0.00010122
-0.00279133
1.53541e-05
-0.00325274
-2.64148e-23
7.89609e-21
-3.05178e-18
1.53056e-16
-9.31675e-14
9.37594e-13
-1.56414e-10
4.65422e-10
-1.1071e-07
3.19135e-07
3.24039e-07
1.50412e-05
-0.000125664
-7.3142e-05
-0.000669644
0.000249843
-0.00043108
0.000784707
0.000299788
0.00136784
0.000951647
0.00143225
0.00129092
0.00143733
0.00149061
0.00131215
0.00139456
0.00136434
0.000352996
-0.001584
0.000352549
0.000362995
0.000362833
0.00114102
-0.00192257
0.000803186
-0.00217416
0.00049843
-0.00234199
0.000196796
-0.00248259
3.49793e-05
-0.00281095
-3.77213e-05
-0.00321501
-8.48391e-23
2.02906e-20
-2.41801e-17
5.43333e-16
-2.64331e-13
6.89637e-13
-5.44265e-10
8.12327e-10
-3.3661e-07
1.26163e-06
-4.0462e-06
-4.61216e-07
-0.000227261
3.40694e-05
-0.00045439
0.000459021
-0.000105393
0.00098797
0.000679657
0.00124027
0.00114362
0.00120348
0.00152477
0.00120626
0.0015965
0.00108402
0.00167491
-6.88436e-07
0.000293691
-0.000333326
0.000393276
0.000349429
-0.00185324
0.000349144
0.000355496
0.000355957
0.000293817
-0.000333422
0.000391421
-4.4675e-07
0.000255965
0.000401165
0.000257145
0.000399054
0.00108273
-0.00220209
0.000716156
-0.00239184
0.000332925
-0.00247812
5.86081e-05
-0.00250621
-5.66637e-05
-0.00279201
-6.52903e-05
-0.00314972
-7.78235e-20
3.37537e-17
-3.78786e-14
3.34014e-12
-2.31049e-10
5.91676e-09
-1.34474e-07
2.10616e-08
-3.40428e-06
9.04066e-08
-1.25076e-05
-7.80011e-06
-0.000224598
0.000169967
-0.000165749
0.000516969
0.000365607
0.00102909
0.000890837
0.000940429
0.00140667
0.00105974
0.0016713
0.000866825
0.0018137
-0.000215589
-0.000216628
0.000784692
0.000445536
0.000444334
0.000472736
0.000473028
-7.88977e-07
-0.000370948
0.000387711
-3.99629e-07
0.000233799
-0.000267231
0.000427077
-0.00213678
0.00136637
-0.000370803
0.000385608
-6.25041e-07
-0.000400049
0.000385025
-0.00039879
0.000383131
0.000234148
-0.000266716
0.000423561
-2.15407e-07
0.000419631
0.000416394
0.000935267
-0.00242082
0.000463624
-0.00252238
8.63557e-05
-0.00250586
-9.79586e-05
-0.00246492
-0.000120435
-0.00273687
-0.00012136
-0.00302836
-5.06156e-16
7.7332e-13
-4.06155e-11
6.47372e-09
-7.67012e-08
6.46973e-07
-4.28346e-06
1.48001e-06
-2.47564e-05
-2.04413e-06
-3.17338e-05
-1.02152e-05
-9.24841e-05
0.000216853
0.000133763
0.000714083
0.000680615
0.000688167
0.0011431
0.000859102
0.00160731
0.000688793
0.00184933
0.000624356
0.000487193
0.00048754
0.000499797
0.000499517
2.78326e-07
0.000119933
-0.000148595
0.000473968
0.000118946
-0.000147171
0.000472887
-1.94581e-07
0.000102687
0.000490177
0.000102205
0.000489583
-4.25041e-07
-0.000300151
0.000420908
1.15568e-06
0.000181463
-0.000208693
0.000128077
9.71577e-05
0.000123456
0.000104704
-0.00234248
0.00114277
0.000331082
0.0003303
-0.00178964
0.000423303
0.000423778
0.000423833
0.000422935
-0.000299491
0.000417806
-3.88588e-07
0.000416099
0.000413302
0.00018084
-0.000208422
0.000127261
9.82911e-05
0.000122852
0.000104127
9.33792e-07
0.000125677
9.91007e-05
0.000124838
0.000102217
0.000124993
0.000100346
0.000124169
0.000101759
0.000576355
-0.00253221
0.000131693
-0.00256758
-0.000156552
-0.00244727
-0.000222827
-0.00236253
-0.000202635
-0.00265559
-0.00018105
-0.00284731
-8.14522e-13
7.03317e-10
-1.19014e-08
4.08464e-07
-1.86512e-06
1.07493e-06
-8.76099e-06
-2.48377e-06
-3.78326e-05
-1.5718e-05
-5.34721e-05
7.27101e-06
3.7764e-05
0.000359339
0.000488283
0.000474315
0.000894464
0.000641354
0.00136084
0.000526848
0.00176925
0.000503512
0.000488599
0.000488456
0.000496988
0.000496128
-2.37187e-07
8.52572e-05
0.000504861
8.52881e-05
0.000504219
-2.78445e-07
6.85182e-05
0.000516815
6.84561e-05
0.000516071
5.1724e-07
4.38818e-05
-2.53688e-05
-1.00343e-05
0.000107088
-1.96209e-05
0.000133555
0.00011103
0.000135455
-2.54576e-06
4.35495e-05
-2.55739e-05
-9.94194e-06
-1.96166e-05
0.00010732
0.000133515
0.000111109
0.000135371
-2.29259e-06
6.33743e-07
2.86456e-05
0.000115873
0.000137627
0.000114132
0.000137102
2.8867e-05
0.000116105
0.000137543
0.000114228
0.000137031
1.19581e-06
-0.00024044
0.000125551
9.90637e-05
0.000125201
0.000101572
-2.79273e-05
9.3462e-06
1.63521e-07
2.64149e-05
0.000120079
-9.37774e-06
2.56273e-05
-3.00429e-05
0.000110988
2.45464e-07
-3.20335e-05
0.000117939
2.52673e-05
0.000114449
-0.00251638
0.000751837
-0.00204499
0.000332051
0.000332075
0.000366379
0.000367088
-2.22551e-07
0.000293007
-0.000321858
0.000451939
0.000293723
-0.000322384
0.000451774
4.25082e-07
0.000271743
0.000444237
0.000273024
0.000443623
-0.000240229
0.000124819
0.000100259
0.000124522
0.000101133
1.10177e-06
0.000124294
9.71475e-05
0.000122734
0.00010176
0.000123713
9.91733e-05
0.000122348
0.000101602
-2.79562e-05
9.18146e-06
2.63397e-05
0.00011986
-9.1085e-06
2.61049e-05
-3.0349e-05
0.000111678
-3.20172e-05
0.00011805
2.52743e-05
0.000114177
2.13813e-05
1.03257e-05
2.30922e-07
0.000120154
-1.57106e-05
-2.26015e-05
0.000112071
2.89421e-07
0.000120183
0.000115241
2.13197e-05
1.03304e-05
0.000119913
-1.55294e-05
-2.25567e-05
0.000112886
0.000120307
0.000114839
0.000187113
-0.00258647
-0.000202274
-0.00252186
-0.000359786
-0.00231031
-0.000336952
-0.00222821
-0.000329409
-0.00250723
-0.000279518
-0.00256779
-3.07947e-10
4.91765e-08
-2.09955e-07
6.20874e-07
-2.47894e-06
-1.84255e-06
-2.88067e-06
-1.93594e-06
-3.23932e-05
-1.20885e-05
-5.28669e-05
4.65146e-05
0.00026814
0.000238129
0.00072419
0.000391333
0.00114448
0.000379335
0.00150835
0.000362758
0.000475629
0.000475149
0.000479898
0.000479328
-1.65559e-07
4.62378e-05
0.000511045
4.64379e-05
0.000510309
-1.29917e-07
3.73837e-05
0.000505972
3.76224e-05
0.000504813
9.07223e-07
1.75037e-05
0.00011786
0.00013806
0.0001193
0.000139842
1.76435e-05
0.000118245
0.000138011
0.000120287
0.000139798
1.18554e-06
6.79487e-06
0.000121929
0.000142022
0.000120713
0.00014168
6.81224e-06
0.000122814
0.000141895
0.000121801
0.000141597
-6.19037e-06
-3.7335e-06
-5.87723e-06
0.00012289
-6.11076e-06
-1.40413e-05
0.000112626
-4.33849e-06
-5.85056e-08
0.000133023
-1.22986e-06
-7.27283e-06
-5.60862e-06
0.000120178
-1.35617e-08
-4.81451e-06
0.000128687
-3.2994e-08
-8.23499e-06
0.000119777
-6.22134e-06
-1.41007e-05
0.000113615
-6.00012e-06
-3.68494e-06
-6.19788e-06
0.000123207
-4.34007e-06
-1.27625e-06
0.000133072
-7.18132e-06
-5.55848e-06
0.000120165
-4.81042e-06
0.000128647
-8.25356e-06
0.000120013
-7.54569e-06
7.8095e-06
-8.93981e-06
0.000124549
6.80253e-06
2.58375e-08
-7.67404e-06
0.000130926
-7.6567e-06
0.00012399
4.25576e-09
0.000131459
-7.48249e-06
7.76686e-06
-8.9256e-06
0.000124747
6.77954e-06
-7.63596e-06
0.000130943
-7.56861e-06
0.000124005
0.000131436
3.40777e-05
9.68927e-06
1.59357e-07
-3.73526e-05
0.000118977
-9.43926e-06
-3.25308e-05
0.000110996
2.24082e-07
0.000117582
-3.46638e-05
0.000113389
-1.54958e-05
1.54905e-06
1.84609e-08
1.14858e-05
0.000122522
-1.5382e-06
1.50743e-05
-1.56089e-05
0.000113102
-1.13078e-08
-1.62324e-05
0.000117132
1.22178e-05
0.0001189
-0.00255918
0.00022991
-0.00224264
0.00021459
0.000214138
0.000260763
0.000260883
-2.22702e-07
0.000353205
-0.000373564
0.000352485
0.000353165
-0.000373337
0.000351878
-2.31951e-07
0.000397648
0.000397353
7.46981e-07
0.000163174
-0.000175073
0.000102478
0.000127347
0.000103577
0.000128916
0.000162989
-0.000174136
0.000102863
0.000127253
0.000103911
0.000128865
6.1005e-07
3.03041e-05
5.22215e-05
0.000102435
1.7139e-05
0.000128473
0.000104184
0.000131163
4.05235e-05
3.03429e-05
5.20938e-05
0.000102798
1.7267e-05
0.000128426
0.000104415
0.000131053
4.04957e-05
3.40309e-05
9.54693e-06
-3.73538e-05
0.000118754
-9.12998e-06
-3.23493e-05
0.00011139
0.000117629
-3.47365e-05
0.000113062
-4.15071e-05
9.96704e-06
1.57004e-07
0.000118324
-1.73458e-05
3.59934e-05
0.000108777
1.8572e-07
0.000115901
0.000113029
-4.15706e-05
9.81798e-06
0.000118269
-1.6811e-05
3.6424e-05
0.000109895
0.000116246
0.00011308
-1.54691e-05
1.45165e-06
1.14837e-05
0.000122412
-1.42882e-06
1.49516e-05
-1.54594e-05
0.000113656
-1.61941e-05
0.000117335
1.22431e-05
0.000118382
3.35698e-06
7.54836e-09
0.000120059
0.000116808
3.30217e-06
0.000119849
0.000116317
-0.000241119
-0.00254828
-0.00049529
-0.00238647
-0.000534733
-0.00211253
-0.000495132
-0.00206248
-0.000495884
-0.00229086
-0.000422115
-0.00214568
-6.79132e-09
1.46515e-07
-2.52268e-07
-5.57493e-07
-7.51997e-07
-5.80144e-07
-4.47616e-07
-3.6006e-07
-1.93849e-05
-3.9496e-06
-2.82079e-05
6.34305e-06
0.000394351
0.000142256
0.000972843
0.000177394
0.00134642
0.000200382
0.000418158
0.000417629
0.000417595
0.000417346
-6.45535e-08
3.12747e-05
0.000481803
3.15638e-05
0.000481144
-9.15334e-08
2.69625e-05
0.000484301
2.71628e-05
0.000483638
1.07181e-06
1.12098e-06
0.00011858
0.000138622
0.000119559
0.000138921
1.07476e-06
0.0001194
0.000138513
0.000120476
0.000138721
1.1619e-06
-5.904e-06
0.000119268
0.000137511
0.000118155
0.000136874
-6.56197e-06
0.000120379
0.000137381
0.000119127
0.0001367
-7.13672e-06
-1.00587e-05
0.000126116
-9.21354e-06
3.24825e-08
0.000132445
-7.53291e-06
-9.80237e-06
0.000126581
-1.1939e-08
-9.26441e-06
0.000132406
-7.07237e-06
-1.00702e-05
0.000126462
-9.19492e-06
0.00013253
-7.21172e-06
-9.86832e-06
0.000127297
-9.27998e-06
0.00013265
-7.66083e-06
1.16003e-05
-1.24728e-05
0.000130458
1.0893e-05
2.592e-08
-1.22209e-05
0.000135683
-7.75158e-06
0.000130258
-9.56261e-09
0.000135549
-7.36719e-06
1.15494e-05
-1.2568e-05
0.0001312
1.08846e-05
-1.22295e-05
0.000135907
-7.41493e-06
0.000130897
0.000135787
-2.57506e-06
1.6771e-08
-5.28496e-07
-2.31121e-05
-2.4684e-05
-1.56423e-08
-6.83228e-08
2.5695e-06
-7.47058e-07
-8.6259e-06
-2.32926e-08
-8.77514e-06
-2.43389e-06
8.37069e-08
-4.91058e-07
-2.31348e-05
2.60883e-06
-2.46861e-05
-6.99167e-07
-8.63575e-06
-8.78215e-06
-1.01951e-06
8.50021e-06
-8.71794e-06
8.17792e-06
-2.6473e-08
-8.69309e-06
-8.31875e-07
-1.59157e-08
-9.61649e-07
8.49968e-06
-8.80557e-06
8.1747e-06
-8.71567e-06
-8.07352e-07
1.79399e-05
1.99063e-06
-3.49948e-08
-2.29618e-05
0.000122055
-1.54123e-06
-1.66655e-05
0.000113607
-2.03615e-08
0.000117783
-1.95577e-05
0.000118278
-1.32634e-06
6.60034e-07
4.01819e-08
-1.77048e-06
-6.52998e-07
8.93156e-07
-1.21773e-06
-2.68523e-08
-1.68779e-06
-1.80144e-06
-0.00252323
-0.000277067
-0.00232291
5.62987e-05
5.54983e-05
0.000100186
9.9777e-05
1.14487e-08
0.000380336
-0.000367111
0.000201307
0.000379569
-0.000366492
0.00020103
8.48873e-08
0.000267387
0.000267152
1.28632e-06
0.000188681
-0.000196479
7.23675e-05
9.63864e-05
8.27991e-05
0.000106896
0.000187651
-0.000195693
7.34566e-05
9.63392e-05
8.40294e-05
0.000106859
1.06117e-06
9.21598e-05
0.000116011
8.82573e-05
0.000113044
9.27222e-05
0.000115997
8.9435e-05
0.000113033
-8.3869e-06
1.69485e-05
-1.49726e-05
0.000108889
1.8677e-05
-7.37229e-08
-1.67903e-05
0.000117195
-8.31518e-06
1.57001e-05
0.000113133
-5.36134e-08
1.74983e-05
0.000121833
-8.12738e-06
1.70026e-05
-1.52685e-05
0.000109256
1.86696e-05
-1.68504e-05
0.000117233
-8.11484e-06
1.57122e-05
0.000113309
1.7477e-05
0.000121889
-6.0625e-06
-1.14314e-05
-3.4309e-06
0.000123359
-7.93269e-06
1.90356e-05
0.000114801
-1.45296e-05
-2.35547e-08
0.000133782
3.21658e-06
-8.10261e-06
0.000116526
-2.30687e-08
0.000126053
4.72314e-08
2.7448e-05
0.000120979
-5.87789e-06
-1.13486e-05
-3.80512e-06
0.000123829
-8.00486e-06
1.90769e-05
0.000116082
-1.44739e-05
0.000133861
3.13672e-06
-7.9471e-06
0.000116706
0.000126086
2.74292e-05
0.000121355
1.7934e-05
1.83259e-06
-2.29119e-05