/*--------------------------------*- C++ -*----------------------------------*\
| =========                 |                                                 |
| \\      /  F ield         | OpenFOAM: The Open Source CFD Toolbox           |
|  \\    /   O peration     | Version:  5.x                                   |
|   \\  /    A nd           | Web:      www.OpenFOAM.org                      |
|    \\/     M anipulation  |                                                 |
\*---------------------------------------------------------------------------*/
FoamFile
{
    version     2.0;
    format      ascii;
    class       volScalarField;
    location    "2";
    object      k;
}
// * * * * * * * * * * * * * * * * * * * * * * * * * * * * * * * * * * * * * //

dimensions      [0 2 -2 0 0 0 0];

internalField   nonuniform List<scalar> 
12160
(
9.94925e-09
9.91418e-09
1.00192e-08
9.89176e-09
1.00515e-08
1.00083e-08
9.8797e-09
1.00812e-08
1.00175e-08
1.00077e-08
9.87435e-09
1.01184e-08
1.00274e-08
1.00147e-08
1.00077e-08
9.87238e-09
1.01317e-08
1.00363e-08
1.00202e-08
1.00146e-08
1.00087e-08
9.87195e-09
1.01285e-08
1.00399e-08
1.00238e-08
1.00194e-08
1.00166e-08
1.0009e-08
9.87205e-09
1.01211e-08
1.00392e-08
1.00253e-08
1.00221e-08
1.00213e-08
1.00193e-08
1.00145e-08
9.87227e-09
1.0113e-08
1.0037e-08
1.00252e-08
1.00232e-08
1.00233e-08
1.00247e-08
1.00331e-08
1.01129e-08
9.87242e-09
1.01055e-08
1.00351e-08
1.00245e-08
1.00233e-08
1.0024e-08
1.00264e-08
1.00361e-08
1.01124e-08
1.01203e-08
9.87239e-09
1.00988e-08
1.00337e-08
1.00239e-08
1.0023e-08
1.00237e-08
1.00264e-08
1.00336e-08
1.01023e-08
1.0117e-08
1.01878e-08
9.87217e-09
1.00928e-08
1.00325e-08
1.00233e-08
1.00226e-08
1.00238e-08
1.00259e-08
1.00328e-08
1.00899e-08
1.01226e-08
1.01637e-08
1.01945e-08
9.87179e-09
1.00872e-08
1.00315e-08
1.00229e-08
1.00222e-08
1.00235e-08
1.00255e-08
1.0034e-08
1.00815e-08
1.01232e-08
1.0175e-08
1.01283e-08
1.01011e-08
9.87143e-09
1.0082e-08
1.00305e-08
1.00224e-08
1.00218e-08
1.00231e-08
1.00252e-08
1.00362e-08
1.00753e-08
1.01222e-08
1.01392e-08
1.01008e-08
1.00521e-08
1.00882e-08
9.87131e-09
1.00812e-08
1.00296e-08
1.0022e-08
1.00214e-08
1.00227e-08
1.00249e-08
1.00381e-08
1.00713e-08
1.01194e-08
1.01421e-08
1.00664e-08
1.00536e-08
1.00462e-08
1.00551e-08
9.87128e-09
1.00799e-08
1.00293e-08
1.00217e-08
1.00211e-08
1.00222e-08
1.00245e-08
1.00392e-08
1.00701e-08
1.01115e-08
1.01476e-08
1.0082e-08
1.00353e-08
1.00349e-08
1.00168e-08
9.87128e-09
1.00777e-08
1.00293e-08
1.00214e-08
1.00207e-08
1.00218e-08
1.0024e-08
1.00396e-08
1.00698e-08
1.01012e-08
1.01531e-08
1.00909e-08
1.00334e-08
1.00268e-08
1.00235e-08
9.87128e-09
1.00754e-08
1.00296e-08
1.00213e-08
1.00204e-08
1.00214e-08
1.00233e-08
1.00394e-08
1.0069e-08
1.00919e-08
1.01527e-08
1.01037e-08
1.0033e-08
1.00236e-08
1.00139e-08
9.87128e-09
1.0073e-08
1.00299e-08
1.00214e-08
1.00202e-08
1.0021e-08
1.00226e-08
1.00387e-08
1.00677e-08
1.00871e-08
1.01482e-08
1.01145e-08
1.00355e-08
1.00219e-08
1.0013e-08
9.87128e-09
1.00707e-08
1.00302e-08
1.00214e-08
1.00201e-08
1.00207e-08
1.00217e-08
1.00377e-08
1.0066e-08
1.00834e-08
1.01384e-08
1.01298e-08
1.00387e-08
1.00226e-08
1.00117e-08
9.87127e-09
1.00686e-08
1.00303e-08
1.00214e-08
1.002e-08
1.00205e-08
1.00209e-08
1.00363e-08
1.0064e-08
1.00798e-08
1.01296e-08
1.01443e-08
1.00437e-08
1.0023e-08
1.00124e-08
9.87127e-09
1.00668e-08
1.00303e-08
1.00213e-08
1.00198e-08
1.00203e-08
1.00206e-08
1.00346e-08
1.00615e-08
1.00756e-08
1.01221e-08
1.01455e-08
1.0051e-08
1.0024e-08
1.00128e-08
9.87127e-09
1.00655e-08
1.00302e-08
1.00211e-08
1.00195e-08
1.002e-08
1.00203e-08
1.00331e-08
1.00584e-08
1.00706e-08
1.01151e-08
1.01429e-08
1.00629e-08
1.00251e-08
1.0014e-08
9.87127e-09
1.00646e-08
1.00301e-08
1.00209e-08
1.00192e-08
1.00196e-08
1.002e-08
1.00316e-08
1.00546e-08
1.0065e-08
1.01074e-08
1.014e-08
1.00696e-08
1.00277e-08
1.00153e-08
9.87127e-09
1.00643e-08
1.00299e-08
1.00206e-08
1.00188e-08
1.00192e-08
1.00196e-08
1.00299e-08
1.00501e-08
1.00599e-08
1.00978e-08
1.01373e-08
1.00723e-08
1.00299e-08
1.00165e-08
9.87127e-09
1.00644e-08
1.00296e-08
1.00204e-08
1.00184e-08
1.00187e-08
1.00191e-08
1.00281e-08
1.00455e-08
1.00558e-08
1.0086e-08
1.01345e-08
1.00732e-08
1.00309e-08
1.00175e-08
9.8713e-09
1.00647e-08
1.00296e-08
1.00201e-08
1.00181e-08
1.00183e-08
1.00187e-08
1.00262e-08
1.00411e-08
1.0052e-08
1.00751e-08
1.01304e-08
1.00735e-08
1.0031e-08
1.00183e-08
9.87137e-09
1.00658e-08
1.00295e-08
1.00201e-08
1.00178e-08
1.00179e-08
1.00182e-08
1.00242e-08
1.00368e-08
1.0048e-08
1.00666e-08
1.01197e-08
1.00744e-08
1.00309e-08
1.00192e-08
9.87152e-09
1.00682e-08
1.00295e-08
1.00201e-08
1.00178e-08
1.00176e-08
1.00177e-08
1.00222e-08
1.00327e-08
1.00439e-08
1.00592e-08
1.01013e-08
1.00769e-08
1.00317e-08
1.00203e-08
9.87176e-09
1.0071e-08
1.00294e-08
1.00202e-08
1.00179e-08
1.00176e-08
1.00171e-08
1.00201e-08
1.00288e-08
1.00396e-08
1.00524e-08
1.00825e-08
1.00763e-08
1.00347e-08
1.00219e-08
9.87217e-09
1.00734e-08
1.00292e-08
1.00203e-08
1.00182e-08
1.00178e-08
1.0017e-08
1.00181e-08
1.00254e-08
1.00353e-08
1.0046e-08
1.00664e-08
1.00699e-08
1.00397e-08
1.00234e-08
9.8728e-09
1.00753e-08
1.00288e-08
1.00204e-08
1.00185e-08
1.00181e-08
1.00175e-08
1.00177e-08
1.00226e-08
1.00313e-08
1.00401e-08
1.00535e-08
1.00604e-08
1.00418e-08
1.00253e-08
9.87371e-09
1.00771e-08
1.00284e-08
1.00205e-08
1.00187e-08
1.00185e-08
1.0018e-08
1.00193e-08
1.00223e-08
1.00281e-08
1.0035e-08
1.00433e-08
1.00499e-08
1.00405e-08
1.0027e-08
9.87486e-09
1.00787e-08
1.0028e-08
1.00206e-08
1.0019e-08
1.00189e-08
1.00184e-08
1.00212e-08
1.0025e-08
1.0028e-08
1.00308e-08
1.00356e-08
1.00401e-08
1.00365e-08
1.00273e-08
9.87617e-09
1.00805e-08
1.00278e-08
1.00207e-08
1.00193e-08
1.00193e-08
1.0019e-08
1.00233e-08
1.00284e-08
1.00311e-08
1.00309e-08
1.00301e-08
1.00322e-08
1.00313e-08
1.00262e-08
9.87751e-09
1.00824e-08
1.00277e-08
1.00208e-08
1.00196e-08
1.00197e-08
1.00195e-08
1.00253e-08
1.00322e-08
1.0035e-08
1.00348e-08
1.00309e-08
1.00267e-08
1.00263e-08
1.00242e-08
9.87882e-09
1.00846e-08
1.00277e-08
1.0021e-08
1.00199e-08
1.00201e-08
1.00202e-08
1.00274e-08
1.00362e-08
1.00391e-08
1.00396e-08
1.00366e-08
1.00276e-08
1.00225e-08
1.00216e-08
9.88012e-09
1.00873e-08
1.0028e-08
1.00212e-08
1.00203e-08
1.00205e-08
1.0021e-08
1.00296e-08
1.00402e-08
1.00432e-08
1.00449e-08
1.00445e-08
1.00335e-08
1.00228e-08
1.00193e-08
9.8815e-09
1.00905e-08
1.00284e-08
1.00216e-08
1.00207e-08
1.0021e-08
1.00221e-08
1.00319e-08
1.00443e-08
1.00471e-08
1.00506e-08
1.00545e-08
1.00413e-08
1.00263e-08
1.00192e-08
9.88305e-09
1.0094e-08
1.0029e-08
1.00219e-08
1.00211e-08
1.00216e-08
1.00234e-08
1.00344e-08
1.00482e-08
1.00513e-08
1.00571e-08
1.00665e-08
1.00504e-08
1.00304e-08
1.00209e-08
1.00974e-08
9.88435e-09
1.00297e-08
1.00224e-08
1.00216e-08
1.00222e-08
1.00249e-08
1.0037e-08
1.00521e-08
1.00562e-08
1.00656e-08
1.00797e-08
1.0059e-08
1.0034e-08
1.00227e-08
1.00305e-08
1.01e-08
9.88712e-09
1.00229e-08
1.00221e-08
1.0023e-08
1.00265e-08
1.00397e-08
1.00559e-08
1.00618e-08
1.00754e-08
1.00915e-08
1.00648e-08
1.00359e-08
1.0024e-08
1.00235e-08
1.00314e-08
1.01097e-08
9.89136e-09
1.00227e-08
1.00238e-08
1.00282e-08
1.00426e-08
1.00598e-08
1.00681e-08
1.00848e-08
1.0099e-08
1.00663e-08
1.00353e-08
1.00241e-08
1.00234e-08
1.00242e-08
1.00344e-08
1.01264e-08
9.90468e-09
1.00247e-08
1.00299e-08
1.00454e-08
1.00639e-08
1.00746e-08
1.00931e-08
1.01026e-08
1.00646e-08
1.00333e-08
1.00231e-08
1.00257e-08
1.00241e-08
1.0026e-08
1.00403e-08
1.01636e-08
9.92894e-09
1.00317e-08
1.00481e-08
1.00678e-08
1.0081e-08
1.01004e-08
1.01038e-08
1.00615e-08
1.0031e-08
1.00212e-08
1.00335e-08
1.00265e-08
1.00257e-08
1.00291e-08
1.0053e-08
1.02335e-08
1.00032e-08
1.00506e-08
1.00716e-08
1.0087e-08
1.01069e-08
1.01042e-08
1.00584e-08
1.00286e-08
1.00188e-08
1.00528e-08
1.00347e-08
1.00283e-08
1.00276e-08
1.00359e-08
1.00841e-08
1.03463e-08
1.00755e-08
1.00748e-08
1.00923e-08
1.01127e-08
1.01043e-08
1.00555e-08
1.00264e-08
1.00165e-08
1.00775e-08
1.0054e-08
1.00368e-08
1.00296e-08
1.00309e-08
1.00534e-08
1.01346e-08
1.04632e-08
1.01653e-08
1.00964e-08
1.01174e-08
1.01041e-08
1.00529e-08
1.00245e-08
1.00145e-08
1.00998e-08
1.00797e-08
1.00556e-08
1.00375e-08
1.00312e-08
1.00395e-08
1.00857e-08
1.02127e-08
1.04949e-08
1.01553e-08
1.01206e-08
1.01034e-08
1.00507e-08
1.00231e-08
1.00129e-08
1.01209e-08
1.01034e-08
1.00823e-08
1.00549e-08
1.00376e-08
1.0035e-08
1.00656e-08
1.01543e-08
1.03004e-08
1.06476e-08
2.48735e-08
1.01019e-08
1.00486e-08
1.0022e-08
1.00118e-08
1.00972e-08
1.0119e-08
1.01062e-08
1.0082e-08
1.0053e-08
1.00381e-08
1.00595e-08
1.01558e-08
1.03216e-08
1.04974e-08
1.91967e-08
0.000546141
1.00463e-08
1.00212e-08
1.0011e-08
1.00427e-08
1.0088e-08
1.01349e-08
1.01058e-08
1.00805e-08
1.00561e-08
1.01062e-08
1.04863e-08
1.10617e-08
1.12403e-08
1.30727e-08
0.000280628
0.00170574
0.000889653
1.00207e-08
1.00104e-08
1.002e-08
1.00361e-08
1.0142e-08
1.20215e-08
1.01119e-08
1.01281e-08
1.08717e-08
1.43834e-08
2.21883e-08
2.17669e-08
1.11948e-08
0.000110893
0.00109836
0.00383873
0.00250661
0.00125316
1.001e-08
1.00096e-08
1.00179e-08
1.00449e-08
1.61439e-08
2.53064e-07
1.09136e-08
1.73781e-08
6.62423e-08
1.5461e-07
1.77156e-07
2.93044e-08
3.4344e-05
0.000641936
0.00260355
0.00727619
0.00543238
0.00342763
0.00165317
1.00086e-08
1.00193e-08
1.1934e-08
5.00019e-07
1.79886e-05
1.31289e-07
6.24295e-07
2.09364e-06
2.35031e-06
8.22671e-07
9.28793e-06
0.000330067
0.00167689
0.00508706
0.0117688
0.00994479
0.00712328
0.00436356
0.00208715
1.00093e-08
1.02423e-08
2.53415e-07
2.5666e-05
0.000586511
1.12365e-05
4.19896e-05
3.89642e-05
1.46061e-05
2.79667e-06
0.000147286
0.00101872
0.00348704
0.00826047
0.0168902
0.0156162
0.012541
0.00874139
0.00530196
0.00256937
1.00205e-08
5.69268e-08
1.57319e-05
0.00070266
0.00812647
0.000507807
0.00115869
0.000386868
3.43468e-06
5.66607e-05
0.000555732
0.00226307
0.0058575
0.0118572
0.0294798
0.0216644
0.0188548
0.0148414
0.0100675
0.00614842
0.00311468
1.34437e-08
4.57522e-06
0.000464189
0.00922967
0.0456902
0.008049
0.0101144
0.000458939
2.04206e-05
0.000281298
0.00129539
0.00421782
0.00799012
0.0192741
0.568214
0.033866
0.568638
0.514616
0.514903
0.0257022
0.0217321
0.0167555
0.0112128
0.00698401
0.00370734
5.48092e-07
0.000183527
0.0061856
0.0486914
0.0974722
0.104429
0.0398964
0.000302596
0.000115539
0.000653821
0.00246744
0.00563447
0.0117977
0.158021
0.625813
0.645673
0.0324183
0.626266
0.559702
0.560257
0.645868
0.597607
0.597794
0.0293066
0.0245548
0.0186085
0.0124008
0.0078504
0.00441003
3.48526e-05
0.0030125
0.0346836
0.0858331
0.114637
0.176426
0.0283793
0.000192298
0.00028433
0.00116837
0.0035861
0.0072823
0.0546782
0.522385
0.522412
0.569791
0.569971
0.682247
0.654131
0.0376045
0.0529406
0.682513
0.598186
0.598658
0.653971
0.606006
0.60584
0.0335939
0.0277379
0.0206038
0.0133774
0.00882818
0.0052189
0.000885398
0.0204964
0.0701099
0.0789613
0.0972522
0.153103
0.0174112
0.000349174
0.000427385
0.00173617
0.0045342
0.0251238
0.601238
0.601379
0.616012
0.616428
0.641415
0.641823
0.720679
0.720734
0.686624
0.577722
0.906065
0.571349
0.94618
0.0445597
0.0521474
0.575095
0.575103
0.602995
0.602993
0.686497
0.712235
0.712353
0.577113
0.911804
0.571978
0.943036
0.55362
0.856081
0.540423
0.916922
0.552652
0.860274
0.540742
0.91153
0.0384566
0.0308088
0.0221426
0.0140632
0.0100835
0.00613159
0.00877668
0.050667
0.0661733
0.0559012
0.0776173
0.13108
0.0211174
0.00197946
0.000633625
0.00207574
0.0162769
0.594575
0.594889
0.598492
0.599124
0.779292
0.779247
0.801516
0.801467
0.939202
0.9161
0.583173
0.995437
0.607196
0.515936
0.92267
0.941482
0.58361
0.995985
0.607386
0.517009
1.1408
0.688192
1.09552
0.673289
1.14232
0.688437
1.09585
0.673334
0.611738
0.954956
0.59821
0.993016
0.53552
0.959824
0.532005
0.96656
0.0520424
0.0632323
0.454009
0.454171
0.513591
0.513573
0.656834
0.656845
0.690952
0.691092
0.61099
0.958584
0.598409
0.988744
0.632342
0.973999
0.638615
1.00336
0.632595
0.984966
0.639971
1.00503
0.534933
0.967421
0.533337
0.963773
0.527143
0.96621
0.526227
0.962349
0.0432432
0.0333583
0.0229022
0.0147454
0.0116398
0.0070477
0.0297859
0.0566675
0.0453788
0.0451141
0.0678422
0.10804
0.0503432
0.00414425
0.000744586
0.0109686
0.568089
0.568507
0.571186
0.571647
0.774283
0.774209
0.762775
0.762791
1.17013
0.720678
1.18504
0.72569
1.1728
0.721126
1.19243
0.726869
1.1822
0.732905
1.19577
0.736143
1.18873
0.733935
1.20312
0.737281
0.927634
0.997698
0.582624
0.500604
1.0825
0.608773
0.935777
0.99962
0.502127
0.582998
1.08264
0.60888
1.21174
0.681805
1.18105
0.66533
1.21395
0.682217
1.18125
0.665385
0.562546
0.96289
0.544073
0.999506
0.524842
0.936296
0.509943
1.0034
0.0599699
0.0788064
0.319581
0.319622
0.3749
0.374948
0.443578
0.443577
0.526225
0.52622
0.92511
0.575717
0.96174
0.596318
0.92726
0.576028
0.964028
0.596654
0.985065
0.995669
0.618951
1.01047
0.626883
0.60055
0.988266
1.00712
0.619463
1.01232
0.627182
0.602568
0.561841
0.96745
0.544807
0.996336
0.591354
1.05675
0.591692
1.05778
0.524095
0.942545
0.51125
0.999535
0.516259
0.9851
0.515148
0.979316
0.047278
0.0349198
0.0228673
0.0155621
0.0133841
0.00772004
0.0443019
0.0459912
0.0354593
0.0412757
0.0590437
0.089937
0.0699325
0.0114847
0.00353781
0.443978
0.444343
0.404956
0.405311
0.689323
0.68925
0.678995
0.679222
1.15641
0.715103
1.15863
0.713675
1.16257
0.716095
1.16539
0.714697
1.13109
0.704181
1.14585
0.704832
1.13874
0.705325
1.15247
0.705896
1.25389
0.707001
1.26842
0.710192
1.25815
0.707829
1.27693
0.711873
1.25947
0.70004
1.26717
0.708833
1.26866
0.701864
1.27443
0.710393
0.544321
0.958271
0.521209
1.01865
0.0652839
0.0971277
0.326541
0.326464
0.288439
0.288342
0.225819
0.225509
0.293049
0.292939
0.494321
0.336255
0.627248
0.383697
0.500019
0.33671
0.634445
0.384625
0.775163
0.474545
0.724897
0.451908
0.779039
0.47515
0.732397
0.452928
0.956611
0.549354
1.00445
0.577071
0.959428
0.549822
1.00658
0.577483
0.994602
1.02247
0.607039
0.564153
1.04848
0.60844
1.00691
1.02566
0.607605
0.566629
1.0505
0.608817
0.543418
0.96274
0.522075
1.01373
0.5597
1.01303
0.560143
1.01511
0.050473
0.0346504
0.0222395
0.0169653
0.0148864
0.00794167
0.0449841
0.0332443
0.0313884
0.0392647
0.0492119
0.076337
0.0858471
0.0271267
0.0252522
0.567655
0.567894
0.543029
0.543511
0.729646
0.729768
0.708956
0.709056
1.22757
0.684438
1.21396
0.677756
1.23619
0.686192
1.22174
0.679348
1.17723
0.672988
1.21506
0.673512
1.18597
0.674671
1.22273
0.675132
1.25552
0.687444
1.26511
0.689403
0.0720528
0.0876787
0.330795
0.330724
0.332687
0.332373
0.188461
0.187715
0.170817
0.170242
0.205787
0.150752
0.240463
0.170998
0.212605
0.150943
0.24914
0.171499
0.343188
0.234715
0.32119
0.220643
0.349686
0.235254
0.328382
0.221201
0.528153
0.299919
0.612693
0.351787
0.535184
0.301002
0.619034
0.353037
0.806443
0.455995
0.775429
0.430629
0.811427
0.456902
0.783267
0.432111
0.0510638
0.0327801
0.0222902
0.0185576
0.0156042
0.00742051
0.0232008
0.0236507
0.0283649
0.0326731
0.045176
0.0654815
0.105672
0.0457774
0.428232
0.428491
0.410079
0.410383
0.590807
0.590625
0.558137
0.558528
0.650577
1.07989
0.655035
1.07283
0.650402
1.07999
0.655133
1.07167
0.634124
1.00274
0.614724
1.04698
0.633996
1.00696
0.615358
1.04602
1.22767
0.668878
1.22951
0.658944
1.23623
0.670745
1.23587
0.660466
1.19342
0.645257
1.21159
0.648128
1.20084
0.646841
1.21784
0.649646
0.0753344
0.10147
0.11856
0.221913
0.220816
0.198455
0.19785
0.0728287
0.0723048
0.0864117
0.0862235
0.174701
0.117865
0.237456
0.140221
0.180197
0.118457
0.244618
0.141365
0.362785
0.206936
0.319634
0.18481
0.369123
0.207971
0.325962
0.185835
0.4991
0.282194
0.50566
0.283336
0.0483373
0.0305951
0.0229271
0.0192882
0.0153005
0.00619607
0.0104536
0.0180691
0.0234827
0.0261119
0.0447518
0.0670396
0.11752
0.0628736
0.555752
0.555596
0.510216
0.510088
0.90562
0.543528
0.548201
0.895509
0.910136
0.544115
0.547852
0.894087
0.602752
0.602705
0.627262
1.14891
0.637069
1.15598
0.626869
1.1494
0.637147
1.15346
0.607151
1.06643
0.577606
1.13409
0.607077
1.07275
0.578786
1.13334
1.18873
0.638067
1.19504
0.639339
0.0699874
0.114174
0.13905
0.228431
0.228495
0.147217
0.147442
0.0847687
0.0838064
0.0505374
0.0504637
0.0657898
0.0524641
0.0661934
0.0761284
0.0660809
0.0512144
0.0649398
0.0737404
0.0774033
0.144244
0.084362
0.113775
0.077369
0.145455
0.0844542
0.112153
0.200192
0.11095
0.247101
0.134002
0.204244
0.111707
0.25134
0.134946
0.35487
0.197177
0.317227
0.17242
0.360743
0.198337
0.321959
0.173409
0.0431109
0.0293422
0.022623
0.0191693
0.0134825
0.00566435
0.0132715
0.0186161
0.0221898
0.0482737
0.065761
0.0605535
0.234773
0.234729
0.116594
0.116554
0.883227
0.525055
0.840483
0.517094
0.886059
0.525503
0.843906
0.517524
0.518022
0.518044
0.991141
0.53261
0.541013
0.965952
0.995373
0.533416
0.540845
0.965585
0.918989
0.54445
0.934926
0.549457
0.921983
0.544861
0.934296
0.549339
0.592229
1.06552
0.559873
1.1261
0.592508
1.07169
0.561075
1.12789
0.0601653
0.102078
0.180756
0.19186
0.155284
0.15536
0.0910212
0.0900415
0.053284
0.0522595
0.0397618
0.061314
0.073708
0.0443248
0.0384392
0.0584811
0.072332
0.0430655
0.064589
0.0959121
0.05737
0.119852
0.064311
0.0927605
0.0563529
0.117271
0.0749154
0.154777
0.0822409
0.142371
0.0747569
0.155986
0.0823963
0.141311
0.198892
0.107741
0.202708
0.108493
0.0384443
0.0271196
0.0217358
0.0189659
0.00335881
0.0114493
0.0153536
0.0196417
0.0523506
0.03828
0.0330436
0.0331282
0.0754317
0.0754388
0.176869
0.176333
0.0718938
0.071901
0.943159
0.512169
0.886265
0.504309
0.946339
0.512837
0.888444
0.504748
0.451807
0.631718
0.390242
0.759576
0.45176
0.632551
0.390195
0.759374
1.01387
0.526679
0.533606
1.01036
1.01528
0.527096
0.533235
1.00829
0.997612
0.528828
1.01869
0.539816
1.00115
0.529504
1.01936
0.539931
0.0507547
0.0839045
0.154849
0.307674
0.406484
0.405704
0.262795
0.261875
0.184566
0.183768
0.173365
0.0991413
0.166255
0.119919
0.164739
0.0960978
0.160472
0.117063
0.172236
0.0898943
0.181128
0.0819911
0.0580342
0.0628754
0.16556
0.0878543
0.175563
0.0805739
0.055755
0.0621295
0.0724226
0.0474168
0.0694329
0.046206
0.0659803
0.138649
0.0614613
0.143103
0.0655203
0.134633
0.0604259
0.140198
0.0330893
0.0241672
0.0233979
0.00301951
0.0094744
0.0133236
0.020522
0.0381315
0.032501
0.065761
0.0659719
0.138488
0.138274
0.141863
0.528309
0.119029
0.124025
0.101842
0.308109
0.531742
0.14336
0.308533
0.119102
0.126902
0.10184
0.141498
0.0952059
0.0987792
0.0662543
0.142925
0.0954467
0.102073
0.0667524
0.962089
0.502441
0.923779
0.487281
0.964155
0.502956
0.924718
0.487516
0.39693
0.719166
0.396931
0.719348
0.534058
1.02835
0.53382
1.02716
0.995714
0.518747
0.999206
0.519416
0.0409308
0.0676437
0.119732
0.247831
0.670269
0.670034
0.587832
0.587582
0.434292
0.432069
0.342639
0.340876
0.172878
0.319983
0.193115
0.335646
0.133426
0.274807
0.173576
0.319318
0.192552
0.33773
0.132817
0.272785
0.275032
0.126408
0.270143
0.12525
0.283368
0.130375
0.296109
0.173827
0.136071
0.0730513
0.278196
0.129117
0.291638
0.167574
0.134905
0.0714848
0.162192
0.0661473
0.157283
0.0648358
0.0272938
0.0270479
0.00256438
0.00756603
0.0144987
0.0227775
0.027623
0.222621
0.222563
0.132917
0.133098
0.184172
0.184012
0.253575
0.253597
0.382187
0.124647
0.0954225
0.240776
0.115059
0.0812459
0.382871
0.126278
0.241205
0.0957539
0.117815
0.0814823
0.204864
0.125736
0.136938
0.0857574
0.204877
0.125771
0.138169
0.0857089
0.872
0.45744
0.872508
0.457586
0.0311277
0.0516139
0.0918906
0.178022
0.43254
0.675184
0.674658
0.580139
0.579204
0.730094
0.413647
0.67504
0.368324
0.723355
0.411317
0.6682
0.36656
0.586762
0.436689
0.321307
0.626947
0.341535
0.237311
0.582346
0.437524
0.320142
0.618563
0.339329
0.237395
0.219767
0.166868
0.406016
0.340898
0.220757
0.166977
0.411493
0.341346
0.351207
0.169713
0.348731
0.169172
0.362123
0.170024
0.285449
0.129394
0.357799
0.169012
0.280541
0.1282
0.0302479
0.00164695
0.00850974
0.0155889
0.0176126
0.0225816
0.162971
0.163097
0.0955445
0.0956588
0.183901
0.316826
0.181381
0.299266
0.183862
0.314816
0.18111
0.298886
0.198658
0.198714
0.284084
0.149948
0.19672
0.112534
0.279025
0.149087
0.194077
0.111215
0.0332943
0.0361114
0.066339
0.128163
0.280914
0.89296
0.893006
0.907579
0.9068
0.706495
0.705765
0.645169
0.643695
0.89025
0.458089
0.801081
0.418976
0.88943
0.457924
0.800349
0.418729
0.543813
0.680776
0.302304
0.377288
0.734409
0.393781
0.543272
0.67441
0.375858
0.302042
0.726964
0.392197
0.209724
0.392114
0.210584
0.397386
0.00178508
0.00854462
0.0133561
0.021079
0.0682851
0.0682118
0.0774
0.0773695
0.101584
0.101297
0.0674846
0.0676996
0.175807
0.297676
0.172007
0.281114
0.176078
0.297318
0.172354
0.281102
0.202024
0.152364
0.272751
0.173327
0.200811
0.151997
0.275803
0.17406
0.28917
0.156607
0.28514
0.156007
0.0363687
0.0426633
0.0868714
0.185445
0.487919
0.931225
0.930707
0.939628
0.938752
0.844279
0.842791
0.571234
1.01314
0.535818
1.02444
0.570711
1.01105
0.535393
1.02269
0.970002
0.504806
0.91986
0.484374
0.97334
0.505549
0.922859
0.484989
0.00270561
0.00943859
0.0209601
0.0580842
0.123666
0.123553
0.136965
0.136438
0.178901
0.12876
0.0805094
0.09593
0.0826867
0.0900967
0.176496
0.1282
0.0818148
0.0956707
0.0826785
0.0915104
0.0781087
0.0787484
0.174293
0.297002
0.169431
0.314261
0.175187
0.299
0.170043
0.318351
0.265597
0.163131
0.268383
0.164069
0.0396684
0.0516181
0.115953
0.281563
0.933
0.93217
1.01559
1.01408
0.944516
0.944189
1.00088
1.0006
1.33484
0.734976
1.32869
0.711755
1.19907
0.628666
1.33188
0.733708
1.33107
0.712238
1.19549
0.62805
1.12803
0.590223
1.12776
0.59019
1.05766
0.562377
1.06424
0.563632
0.00366483
0.0185767
0.0801912
0.212101
0.211724
0.202702
0.202725
0.158027
0.158527
0.190767
0.190679
0.154971
0.113193
0.0726989
0.0884406
0.0750565
0.08462
0.152471
0.112727
0.0749461
0.0894491
0.0756186
0.0876127
0.127912
0.0979556
0.107999
0.0830972
0.131935
0.099743
0.113465
0.0850228
0.0433035
0.0639952
0.157053
0.45584
0.947108
0.945198
1.06309
1.05994
1.11975
1.11671
1.48019
0.791047
0.839297
1.58585
0.844204
1.52207
0.840379
1.58987
0.845238
1.52727
1.482
0.791656
1.41027
1.27938
0.775354
0.678983
1.41657
1.27975
0.776321
0.678949
1.21663
0.643651
1.2144
0.643289
0.00685592
0.101414
0.246482
0.247565
0.247694
0.250946
0.25104
0.155743
0.112234
0.159462
0.202636
0.148585
0.202373
0.160209
0.114269
0.160427
0.203592
0.149156
0.204249
0.205406
0.205579
0.0734142
0.091465
0.075713
0.0972004
0.127839
0.0922651
0.134705
0.0943734
0.0475432
0.0804579
0.21267
0.792815
0.791694
0.857049
0.855343
0.875305
0.87297
1.09762
1.09192
1.70203
0.907553
1.79531
0.933019
1.70822
0.89574
1.68598
1.70834
0.895807
0.902621
1.78432
0.930503
1.55471
0.837599
1.6762
0.886051
1.68334
1.55911
0.887717
0.838634
0.0204015
0.328955
0.651659
0.330881
0.330984
0.410156
0.410127
0.169145
0.117019
0.156522
0.193438
0.137961
0.193714
0.173346
0.118267
0.157617
0.19451
0.138457
0.196549
0.242817
0.20464
0.232052
0.178206
0.245501
0.205781
0.233885
0.179473
0.144946
0.10242
0.1514
0.1041
0.0525946
0.0985326
0.279638
0.774093
0.772102
0.816866
0.813995
0.898457
0.895253
1.83609
0.936064
0.779357
1.70756
0.870319
1.42336
1.82285
0.932645
0.777055
1.69854
0.868276
1.41578
1.87996
1.7813
0.969015
0.93876
1.77797
0.938108
1.86424
0.965669
0.254203
0.592689
1.27174
0.938883
0.938877
1.27181
1.61102
1.6106
0.664793
0.254189
0.209462
0.665043
0.255616
0.209927
0.166631
0.116815
0.131125
0.168176
0.126185
0.159333
0.169114
0.117661
0.132231
0.169709
0.12684
0.16173
0.236591
0.174093
0.238548
0.174949
0.0575345
0.11515
0.300561
0.701284
0.698252
0.798294
0.793566
1.18194
0.660998
1.33126
0.69144
1.45144
0.756109
1.17333
1.44141
0.753823
0.657582
1.33104
0.691644
1.84111
0.932958
1.62272
0.83168
1.83334
0.930973
1.61876
0.830858
1.89756
0.976761
1.88449
0.973879
0.528072
0.886602
1.01967
1.3377
1.02138
1.33669
1.62722
1.62524
1.11856
0.853611
0.503327
0.478436
0.318319
0.647477
1.21092
0.710414
0.854082
1.11807
0.503471
0.481026
0.318871
0.647664
1.22249
0.712239
0.128473
0.154412
0.129096
0.155852
0.482258
0.283414
0.484313
0.283997
0.061706
0.124028
0.400823
0.689515
0.684687
0.399367
0.516005
0.513234
0.837848
1.24139
0.664613
0.83087
1.23817
0.663479
1.39414
1.31871
0.729442
0.686839
1.3927
0.729408
1.32701
0.688731
1.77736
0.908468
1.4685
0.790592
1.77731
0.907899
1.46569
0.790367
0.619029
0.425927
0.995975
0.72527
1.26574
0.965643
0.99635
0.727274
1.27809
0.966536
0.949157
0.950241
0.981902
1.13282
0.704098
0.432722
0.576168
0.657552
0.980961
0.704726
1.14157
0.432804
0.576058
0.659157
0.220803
0.34294
0.220825
0.342995
0.0641571
0.135485
0.379662
0.602232
0.596143
0.377214
0.449639
0.445943
1.27596
1.29707
0.688115
1.26988
0.677189
0.663303
1.02875
0.599392
1.24983
1.28715
0.685612
1.26423
0.675472
0.657503
1.00689
0.591681
1.35715
1.32628
0.727342
0.697774
1.36772
0.729633
1.33577
0.699846
0.177705
0.254663
0.429227
0.429677
0.255609
0.243336
0.243702
1.47057
0.713175
1.17524
0.684338
1.23696
0.786451
1.27385
0.691879
0.410034
0.951225
0.542413
1.48208
0.713118
1.17714
0.684495
1.23559
0.786313
1.27664
0.691504
0.410634
0.960214
0.542863
1.00196
1.12267
0.594376
0.654682
1.00185
1.12411
0.594521
0.65488
0.0645206
0.117371
0.301667
0.549579
0.566308
1.02087
0.545619
0.562315
1.00807
0.297843
0.383892
0.376182
1.2955
1.22163
1.32235
0.692498
0.711468
0.639144
1.27688
1.19653
1.3249
0.712123
0.689278
0.634135
1.34227
0.724389
1.36038
0.728029
0.028353
0.377857
0.193633
0.379078
0.194628
0.176008
0.176265
1.09598
1.14539
0.632088
0.640385
1.03798
0.55283
0.385766
0.505481
0.283
0.611695
0.352592
0.238616
0.476188
0.31312
1.09763
1.14711
0.640638
0.631797
1.0394
0.552372
0.509746
0.389002
0.28342
0.617519
0.352732
0.238734
0.476929
0.312362
0.0586323
0.0913151
0.274528
0.270988
0.0932351
0.177545
0.17622
0.568196
0.526638
0.818853
0.471052
0.933666
0.402577
0.727575
0.405235
0.552017
0.523274
0.816211
0.469941
0.923304
0.394551
0.718986
0.403848
0.368534
0.59276
0.364988
0.361953
0.57449
0.357657
1.27211
1.10919
0.689008
0.59778
1.24617
1.08935
0.6851
0.59424
0.00561129
0.192853
0.244329
0.389088
0.112186
0.193789
0.244649
0.387855
0.112328
0.10734
0.107201
1.00485
0.55888
0.576902
0.330382
0.387753
0.337995
0.493063
0.278147
0.220095
0.188339
1.00485
0.558347
0.577647
0.330187
0.391409
0.49495
0.339748
0.278253
0.220379
0.188632
0.0535541
0.107589
0.199101
0.195729
0.108019
0.152862
0.151731
0.930319
0.760842
0.533208
0.431237
0.678588
0.37326
0.925925
0.759486
0.532243
0.431121
0.670478
0.371635
0.446453
0.544896
0.316352
0.592288
0.349746
0.273657
0.316957
0.349277
0.433777
0.535643
0.313914
0.574284
0.343559
0.269698
0.30445
0.339099
0.00861196
0.0645872
0.0645064
0.11286
0.200763
0.225238
0.168013
0.29671
0.06538
0.113373
0.200189
0.224363
0.166716
0.294902
0.065473
0.398641
0.32533
0.267178
0.23155
0.17916
0.153036
0.400641
0.328891
0.2678
0.231616
0.179719
0.15296
0.0466817
0.0831544
0.196553
0.25874
0.274386
0.192418
0.258901
0.269535
0.0841533
0.125243
0.125482
0.717574
0.412956
0.663886
0.364305
0.71324
0.412446
0.652774
0.362407
0.473115
0.350023
0.603178
0.27772
0.34343
0.218368
0.465749
0.338302
0.595052
0.342077
0.276273
0.216042
0.00146491
0.0208167
0.0207757
0.0208638
0.0208645
0.0596315
0.114689
0.155203
0.134498
0.120821
0.205569
0.123891
0.0232628
0.0597181
0.117198
0.15502
0.134999
0.119797
0.205118
0.123596
0.0231683
0.268611
0.150159
0.273959
0.151024
0.0384203
0.0729676
0.0732885
0.17385
0.25426
0.298401
0.260516
0.282139
0.172678
0.250318
0.283237
0.25177
0.27292
0.110548
0.11061
0.383568
0.533356
0.33907
0.258393
0.323039
0.216061
0.377425
0.528272
0.324137
0.32224
0.257636
0.213574
0.00105607
0.0256312
0.0317208
0.0256428
0.0317162
0.017846
0.0177951
0.0386177
0.0943377
0.0641859
0.0861926
0.0790293
0.080962
0.155947
0.0978003
0.123094
0.21325
0.124492
0.0383204
0.0952556
0.0642292
0.0853298
0.0785761
0.080909
0.155451
0.097858
0.120276
0.217614
0.125313
0.0455683
0.0603387
0.0549877
0.0609862
0.0562976
0.154388
0.244236
0.282511
0.255521
0.254776
0.342956
0.217961
0.154192
0.247662
0.272589
0.250309
0.25764
0.3291
0.215629
0.0984204
0.0985782
0.351901
0.253208
0.342806
0.252523
0.000979165
0.0438133
0.0522864
0.0439268
0.0522357
0.0245011
0.0320522
0.0245923
0.0320728
0.032319
0.0319268
0.0769395
0.0490774
0.0802012
0.0468921
0.0615405
0.0594936
0.0503002
0.0794151
0.0909997
0.158872
0.0975348
0.145713
0.0776264
0.0493066
0.0795054
0.0469459
0.0616583
0.0602784
0.0505995
0.0789327
0.0908995
0.160092
0.0978034
0.145078
0.0635828
0.0646782
0.0730885
0.0658201
0.0736387
0.0942209
0.0948318
0.14321
0.231186
0.231674
0.230419
0.242815
0.210416
0.332357
0.21526
0.317092
0.34898
0.251361
0.142957
0.233968
0.228483
0.226663
0.247307
0.209745
0.320744
0.213381
0.313489
0.336903
0.250526
0.000350012
0.0561333
0.0352387
0.0559735
0.0347946
0.0462485
0.0611069
0.0463521
0.061184
0.031819
0.0343958
0.0314356
0.0341266
0.0744155
0.0400535
0.0751758
0.0416009
0.0747621
0.0399214
0.0756928
0.0413858
0.036049
0.0434067
0.0410283
0.0356029
0.0362539
0.0441557
0.0412709
0.0363432
0.0825719
0.0914499
0.11291
0.0915074
0.113488
0.11611
0.125999
0.115906
0.124423
0.140892
0.140858
0.220625
0.220406
0.227741
0.203351
0.20017
0.261929
0.187973
0.302152
0.243229
0.341417
0.247257
0.340223
0.224224
0.217917
0.225187
0.207615
0.200543
0.265892
0.18847
0.304743
0.242952
0.331906
0.246653
0.335751
0.00600811
0.000510007
0.0617341
0.0359459
0.0616758
0.0354845
0.0414539
0.0578046
0.0411338
0.057751
0.0823534
0.038529
0.0751047
0.040007
0.0878241
0.045448
0.0963664
0.0422124
0.08502
0.0387569
0.0769125
0.0405434
0.0904141
0.0455522
0.0968066
0.0429055
0.0335592
0.0318152
0.0335832
0.0327442
0.0335774
0.0320776
0.0337312
0.0332348
0.088603
0.14834
0.144348
0.148929
0.145898
0.136985
0.151162
0.135162
0.150715
0.180492
0.202921
0.178526
0.197317
0.226974
0.219356
0.229761
0.2074
0.230515
0.216244
0.227633
0.212218
0.192415
0.24003
0.18252
0.239657
0.192683
0.243671
0.182939
0.243737
0.00218354
0.0536488
0.0390765
0.0533158
0.0393171
0.00055744
0.0661548
0.0500018
0.0660233
0.0492524
0.108865
0.0535918
0.105589
0.0545765
0.121824
0.0794408
0.118589
0.068553
0.111711
0.0536481
0.106244
0.0555853
0.125394
0.0785129
0.117236
0.0701607