/*--------------------------------*- C++ -*----------------------------------*\
| =========                 |                                                 |
| \\      /  F ield         | OpenFOAM: The Open Source CFD Toolbox           |
|  \\    /   O peration     | Version:  5.x                                   |
|   \\  /    A nd           | Web:      www.OpenFOAM.org                      |
|    \\/     M anipulation  |                                                 |
\*---------------------------------------------------------------------------*/
FoamFile
{
    version     2.0;
    format      ascii;
    class       surfaceScalarField;
    location    "2";
    object      meshPhi;
}
// * * * * * * * * * * * * * * * * * * * * * * * * * * * * * * * * * * * * * //

dimensions      [0 3 -1 0 0 0 0];

internalField   nonuniform List<scalar> 
30582
(
0
0
0
0
0
0
0
0
0
0
0
0
0
0
0
0
0
0
0
0
0
0
0
0
0
0
0
0
0
0
0
0
0
0
0
0
0
0
0
0
0
0
0
0
0
0
0
0
0
0
0
0
0
0
0
0
0
0
0
0
0
0
0
0
0
0
0
0
0
0
0
0
0
0
0
0
0
0
0
0
0
0
0
0
0
0
0
0
0
0
0
0
0
0
0
0
0
0
0
0
0
0
0
0
0
0
0
0
0
0
0
0
0
0
0
0
0
0
0
0
0
0
0
0
0
0
0
0
0
0
0
0
0
0
0
0
0
0
0
0
0
0
0
0
0
0
0
0
0
0
0
0
0
0
0
0
0
0
0
0
0
0
0
0
0
0
0
0
0
0
0
0
0
0
0
0
0
0
0
0
0
0
0
0
0
0
0
0
0
0
0
0
0
0
0
0
0
0
0
0
0
0
0
0
0
0
0
0
0
0
0
0
0
0
0
0
0
0
0
0
0
0
0
0
0
0
0
0
0
0
0
0
0
0
0
0
0
0
0
0
0
0
0
0
0
0
0
0
0
0
0
0
0
0
0
0
0
0
0
0
0
0
0
0
0
0
0
0
0
0
0
0
0
0
0
0
0
0
0
0
0
0
0
0
0
0
0
0
0
0
0
0
0
0
0
0
0
0
0
0
0
0
0
0
0
0
0
0
0
0
0
0
0
0
0
0
0
0
0
0
0
0
0
0
0
0
0
0
0
0
0
0
0
0
0
0
0
0
0
0
0
0
0
0
0
0
0
0
0
0
0
0
0
0
0
0
0
0
0
0
0
0
0
0
0
0
0
0
0
0
0
0
0
0
0
0
0
0
0
0
0
0
0
0
0
0
0
0
0
0
0
0
0
0
0
0
0
0
0
0
0
0
0
0
0
0
0
0
0
0
0
0
0
0
0
0
0
0
0
0
0
0
0
0
0
0
0
0
0
0
0
0
0
0
0
0
0
0
0
0
0
0
0
0
0
0
0
0
0
0
0
0
0
0
0
0
0
0
0
0
0
0
0
0
0
0
0
0
0
0
0
0
0
0
0
0
0
0
0
0
0
0
0
0
0
0
0
0
0
0
0
0
0
0
0
0
0
0
0
0
0
0
0
0
0
0
0
0
0
0
0
0
0
0
0
0
0
0
0
0
0
0
0
0
0
0
0
0
0
0
0
0
0
0
0
0
0
0
0
0
0
0
0
0
0
0
0
0
0
0
0
0
0
0
0
0
0
0
0
0
0
0
0
0
0
0
0
0
0
0
0
0
0
0
0
0
0
0
0
0
0
0
0
0
0
0
0
0
0
0
0
0
0
0
0
0
0
0
0
0
0
0
0
0
0
0
0
0
0
0
0
0
0
0
0
0
0
0
0
0
0
0
0
0
0
0
0
0
0
0
0
0
0
0
0
0
0
0
0
0
0
0
0
0
0
0
0
0
0
0
0
0
0
0
0
0
0
0
0
0
0
0
0
0
0
0
0
0
0
0
0
0
0
0
0
0
0
0
0
0
0
0
0
0
0
0
0
0
0
0
0
0
0
0
0
0
0
0
0
0
0
0
0
0
0
0
0
0
0
0
0
0
0
0
0
0
0
0
0
0
0
0
0
0
0
0
0
0
0
0
0
0
0
0
0
0
0
0
0
0
0
0
0
0
0
0
0
0
0
0
0
0
0
0
0
0
0
0
0
0
0
0
0
0
0
0
0
0
0
0
0
0
0
0
0
0
0
0
0
0
0
0
0
0
0
0
0
0
0
0
0
0
0
0
0
0
0
0
0
0
0
0
0
0
0
0
0
0
0
0
0
0
0
0
0
0
0
0
0
0
0
0
0
0
0
0
0
0
0
0
0
0
0
0
0
0
0
0
0
0
0
0
0
0
0
0
0
0
0
0
0
0
0
0
0
0
0
0
0
0
0
0
0
0
0
0
0
0
0
0
0
0
0
0
0
0
0
0
0
0
0
0
0
0
0
0
0
0
0
0
0
0
0
0
0
0
0
0
0
0
0
0
0
0
0
0
0
0
0
0
0
0
0
0
0
0
0
0
0
0
0
0
0
0
0
0
0
0
0
0
0
0
0
0
0
0
0
0
0
0
0
0
0
0
0
0
0
0
0
0
0
0
0
0
0
0
0
0
0
0
0
0
0
0
0
0
0
0
0
0
0
0
0
0
0
0
0
0
0
0
0
0
0
0
0
0
0
0
0
0
0
0
0
0
0
0
0
0
0
0
0
0
0
0
0
0
0
0
0
0
0
0
0
0
0
0
0
0
0
0
0
0
0
0
0
0
0
0
0
0
0
0
0
0
0
0
0
0
0
0
0
0
0
0
0
0
0
0
0
0
0
0
0
0
0
0
0
0
0
0
0
0
0
0
0
0
0
0
0
0
0
0
0
0
0
0
0
0
0
0
0
0
0
0
0
0
0
0
0
0
0
0
0
0
0
0
0
0
0
0
0
0
0
0
0
0
0
0
0
0
0
0
0
0
0
0
0
0
0
0
0
0
0
0
0
0
0
0
0
0
0
0
0
0
0
0
0
0
0
0
0
0
0
0
0
0
0
0
0
0
0
0
0
0
0
0
0
0
0
0
0
0
0
0
0
0
0
0
0
0
0
0
0
0
0
0
0
0
0
0
0
0
0
0
0
0
0
0
0
0
0
0
0
0
0
0
0
0
0
0
0
0
0
0
0
0
0
0
0
0
0
0
0
0
0
0
0
0
0
0
0
0
0
0
0
0
0
0
0
0
0
0
0
0
0
0
0
0
0
0
0
0
0
0
0
0
0
0
0
0
0
0
0
0
0
0
0
0
0
0
0
0
0
0
0
0
0
0
0
0
0
0
0
0
0
0
0
0
0
0
0
0
0
0
0
0
0
0
0
0
0
0
0
0
0
0
0
0
0
0
0
0
0
0
0
0
0
0
0
0
0
0
0
0
0
0
0
0
0
0
0
0
0
0
0
0
0
0
0
0
0
0
0
0
0
0
0
0
0
0
0
0
0
0
0
0
0
0
0
0
0
0
0
0
0
0
0
0
0
0
0
0
0
0
0
0
0
0
0
0
0
0
0
0
0
0
0
0
0
0
0
0
0
0
0
0
0
0
0
0
0
0
0
0
0
0
0
0
0
0
0
0
0
0
0
0
0
0
0
0
0
0
0
0
0
0
0
0
0
0
0
0
0
0
0
0
0
0
0
0
0
0
0
0
0
0
0
0
0
0
0
0
0
0
0
0
0
0
0
0
0
0
0
0
0
0
0
0
0
0
0
0
0
0
0
0
0
0
0
0
0
0
0
0
0
0
0
0
0
0
0
0
0
0
0
0
0
0
0
0
0
-2.56295e-18
9.03903e-18
-3.66751e-25
2.71138e-17
1.35542e-17
1.80867e-17
0
0
0
0
0
0
0
0
0
0
0
0
0
0
0
0
0
0
0
0
0
0
0
0
0
0
0
0
0
0
0
0
0
0
0
0
0
0
4.50887e-18
1.41949e-34
-6.57708e-19
1.04501e-25
2.25742e-17
-1.80756e-17
-2.51995e-18
2.71138e-17
-4.51832e-18
2.71218e-17
-1.30805e-18
-2.86534e-25
-4.51519e-17
3.2729e-34
-1.93701e-18
2.70994e-17
6.55004e-18
-4.51658e-17
0
0
0
0
0
0
0
0
0
0
0
0
0
0
0
0
0
0
0
0
0
0
0
0
0
0
0
0
0
0
0
0
0
0
0
0
0
7.5113e-19
-3.89065e-18
2.85504e-17
-3.17355e-20
-5.4031e-17
-1.7994e-17
3.60935e-17
-1.18509e-35
-1.28895e-18
1.35446e-17
1.64553e-33
-6.64866e-19
1.82698e-25
2.25209e-17
0
7.67583e-17
-7.55393e-21
-3.61215e-17
-2.01772e-35
6.31567e-19
2.70994e-17
6.55004e-18
-2.71005e-17
-4.07555e-20
2.87494e-24
-2.703e-17
2.52276e-34
-5.93103e-21
-3.60369e-17
0
0
0
0
0
0
0
0
0
0
0
0
0
0
0
0
0
0
0
0
0
0
0
0
0
0
0
0
0
0
0
0
0
0
0
1.41814e-17
2.70274e-17
1.79911e-17
4.5554e-18
4.6165e-20
2.12533e-34
8.13228e-20
4.87444e-20
3.15477e-17
1.03774e-17
-2.49029e-18
-1.77723e-17
-1.63742e-34
2.17256e-19
1.34678e-17
-2.42744e-18
-1.79586e-17
9.71945e-35
7.12496e-20
-4.50883e-18
0
3.86487e-19
7.85326e-24
7.8493e-18
-1.34484e-17
1.00893e-17
-1.34675e-17
0
0
1.87674e-18
-3.8564e-18
1.84383e-17
1.14959e-20
2.70789e-17
8.97064e-18
-5.4031e-17
-8.15111e-20
-3.604e-17
-2.05185e-34
-9.01511e-18
-7.21103e-17
0
-3.65477e-24
2.01891e-17
-2.2407e-18
2.01757e-17
-4.49777e-18
0
-8.99833e-18
2.32339e-18
-9.07102e-18
8.99445e-18
-1.125e-17
9.05795e-18
-1.13679e-17
2.25799e-18
0
0
0
0
0
0
0
0
0
0
0
0
0
0
0
0
0
0
0
0
0
0
0
0
0
0
0
0
0
0
0
0
0
-1.24382e-17
2.2613e-17
-1.8052e-17
1.35519e-17
9.14888e-18
-7.115e-35
-3.89017e-18
2.69974e-17
2.45717e-18
-3.59165e-17
-2.66497e-34
9.158e-18
1.35729e-17
0
-3.62762e-17
9.24965e-36
-1.92681e-11
-5.18734e-12
-1.9273e-09
7.75173e-14
-2.84749e-13
1.51202e-08
2.20633e-13
1.53034e-08
-1.34367e-10
8.18814e-19
-1.58234e-19
5.17288e-19
1.58929e-19
-4.5711e-18
1.75152e-17
1.14843e-18
1.08481e-17
2.08805e-18
3.37961e-34
-5.82069e-16
8.94483e-13
1.49593e-08
-1.19384e-14
3.01909e-08
6.32141e-19
1.09682e-18
2.45591e-17
4.47529e-18
3.13206e-17
0
-3.50063e-19
1.00989e-17
-4.48639e-18
1.45692e-17
-8.96897e-18
7.34471e-19
7.50749e-20
0
-4.68229e-19
7.82404e-18
-7.48023e-20
7.56738e-19
3.12586e-23
-8.92623e-18
0
4.72474e-22
-1.05623e-15
8.76254e-19
-8.9338e-18
0
0
-3.68874e-17
4.55553e-18
9.11211e-18
-1.5622e-20
1.79911e-17
0
1.29321e-18
1.17859e-18
4.48712e-18
-6.48188e-18
-2.42733e-18
-1.93135e-33
0
1.47188e-22
1.34783e-17
-2.58817e-18
-8.96097e-18
-7.46162e-20
1.23349e-17
-4.48207e-18
7.84802e-18
-4.49185e-18
0
-8.99091e-18
4.57215e-18
-1.35675e-17
8.98894e-18
-1.34882e-17
1.13173e-17
-1.13459e-17
4.50019e-18
1.1126e-18
7.49674e-20
-1.27697e-18
7.81236e-18
0
7.4688e-20
-7.82547e-26
-7.81578e-18
-8.69711e-26
5.58282e-18
0
1.54788e-21
-1.27054e-18
0
0
1.78602e-17
7.4324e-20
-1.20879e-18
8.94487e-13
0
1.2649e-10
-1.33516e-17
-9.1337e-19
1.49206e-19
1.56039e-17
7.41527e-20
-1.20828e-18
-8.99699e-18
3.38603e-17
-8.93555e-18
0
0
0
0
0
0
0
0
0
0
0
0
0
0
0
0
0
0
0
0
0
0
0
0
0
0
0
0
0
0
0
5.02774e-18
1.57124e-20
-8.99003e-18
9.1586e-18
-9.11569e-18
-2.27218e-35
-1.13897e-18
-1.36074e-17
1.2661e-17
-3.61069e-17
-3.19885e-35
-8.86212e-20
4.48988e-18
1.04454e-17
-1.80033e-17
1.00126e-25
4.34022e-09
-3.22019e-12
1.35624e-08
7.48141e-11
1.48762e-08
9.48929e-09
-4.41664e-18
1.80665e-17
1.41753e-12
-1.08726e-10
-3.47927e-27
-4.22923e-09
3.53675e-10
1.3647e-09
-1.26155e-10
4.35108e-10
-9.24524e-09
-1.30572e-12
-6.76475e-10
-1.15292e-12
2.21589e-10
1.27808e-19
1.77965e-21
-9.6512e-19
-9.12381e-13
7.31188e-20
-2.08716e-13
-1.32691e-13
4.03673e-16
-1.10906e-34
-1.61085e-08
-5.83838e-16
1.22425e-19
4.83028e-13
1.80006e-17
-3.11385e-34
-8.50507e-11
-4.4696e-18
0
1.96084e-09
1.48497e-08
7.3078e-20
-4.47008e-19
-9.06464e-18
0
5.63672e-19
-7.0148e-20
9.78875e-18
-1.19422e-18
3.72518e-18
5.68994e-19
-6.11803e-20
-1.63003e-19
1.3496e-17
-1.10303e-18
-2.13571e-17
4.6384e-19
1.57097e-17
0
-4.77064e-13
6.44039e-12
1.19266e-12
4.25781e-11
1.05783e-34
1.78062e-08
-1.88457e-09
6.32381e-20
1.79668e-17
-3.9576e-35
-1.46244e-17
0
4.84501e-19
1.27477e-18
4.38251e-18
-9.03383e-19
-1.04711e-17
3.77414e-18
6.3217e-20
8.97309e-18
-1.68625e-17
6.1386e-19
7.5075e-20
0
-9.38516e-19
1.00652e-17
-7.48022e-20
6.74369e-19
-4.4585e-18
0
-1.04506e-15
4.96195e-19
-1.79064e-17
-2.03518e-09
0
0
1.91783e-09
2.31037e-11
1.96958e-24
1.0734e-13
6.26978e-22
-2.85595e-13
0
3.35099e-21
1.49964e-08
7.15616e-14
-1.4915e-14
0
0
-1.24382e-17
1.36272e-17
-8.9966e-18
-4.56099e-18
-8.96362e-18
4.23258e-34
3.73679e-18
1.22434e-18
9.10046e-18
-2.66177e-18
9.91938e-20
0
-5.04818e-34
4.53768e-18
0
0
1.34893e-16
1.6639e-08
-3.57799e-12
1.60476e-08
-2.23748e-18
-4.05954e-15
-2.22127e-18
6.32065e-19
-8.85706e-18
1.13142e-17
-4.47515e-18
2.46043e-17
0
-1.83372e-12
-1.32945e-10
6.55758e-14
-1.16434e-12
1.57596e-08
-1.38639e-17
-6.30268e-15
-2.09594e-09
9.39486e-22
2.13413e-18
-1.11317e-18
2.98592e-20
3.83218e-17
-5.61535e-18
3.61174e-17
3.57865e-18
9.09717e-19
7.49677e-20
-1.29644e-18
2.34956e-17
7.46685e-20
7.46918e-20
-1.11653e-18
1.33984e-17
-2.15553e-36
-2.24042e-18
-9.13543e-19
1.49418e-19
0
2.23355e-17
7.43249e-20
-1.34552e-18
4.88981e-13
0
1.52733e-08
-1.56114e-17
-1.18676e-18
7.4602e-20
2.56883e-17
0
-1.31294e-18
-2.23786e-18
1.56807e-17
8.96699e-34
5.97823e-19
-1.50455e-19
-2.61127e-18
2.46541e-17
0
2.71836e-19
-2.01772e-24
-9.22356e-22
-9.32047e-24
4.44396e-17
9.16925e-20
-2.24003e-18
7.47032e-20
0
-1.49489e-08
-1.44612e-13
-7.46778e-20
8.75791e-18
-3.30056e-18
0
0
0
0
0
0
0
0
0
0
0
0
0
0
0
0
0
0
0
0
0
0
0
0
0
0
0
0
0
-1.54244e-17
2.26326e-17
-2.11339e-20
-4.4997e-18
-4.2772e-20
-8.07071e-34
-2.24854e-18
1.79605e-17
2.03764e-17
-1.79121e-17
-1.23891e-33
5.36938e-18
-1.81137e-17
5.37104e-18
-1.77516e-17
-3.57161e-26
-4.14519e-09
1.45453e-10
-1.53059e-08
-3.71599e-09
-1.53103e-08
-9.06287e-09
8.43561e-13
-2.83052e-10
-7.45419e-13
7.42261e-09
-1.08815e-26
6.13737e-11
-3.83675e-09
1.53712e-08
-3.76879e-09
1.5232e-08
1.30347e-10
3.6898e-13
7.68431e-09
6.89506e-13
7.53133e-09
0
5.78441e-12
-1.19265e-12
1.852e-08
-1.00816e-34
-1.88306e-09
7.03629e-20
-4.7244e-09
2.88871e-17
1.39329e-26
-1.67842e-12
-1.99802e-17
0
-3.26807e-18
4.60431e-18
6.09928e-19
-1.18098e-17
-7.02806e-20
1.78278e-12
1.11033e-17
9.44767e-09
-3.21674e-17
0
-6.44038e-12
4.47467e-09
1.60729e-17
-1.84076e-08
1.38244e-26
1.67186e-12
-2.07025e-15
7.22193e-20
2.28195e-17
-1.31081e-26
-1.13584e-17
-1.42199e-19
-1.38299e-18
-1.67097e-12
8.08298e-18
6.64258e-18
-8.948e-09
6.06994e-18
7.21468e-20
1.36916e-17
-1.81521e-17
5.46037e-20
4.17432e-13
-3.6192e-25
-1.8848e-18
-9.92631e-17
-7.26998e-35
1.19808e-34
2.5486e-09
-2.25762e-24
5.96323e-14
-4.27135e-34
-8.06504e-09
-1.32724e-33
4.8972e-20
-2.89866e-34
-7.53829e-19
-1.06096e-18
1.86306e-18
-2.54813e-20
-4.4769e-19
1.77823e-19
-4.96962e-25
8.54075e-19
2.40008e-19
-1.17289e-18
-1.27581e-35
3.36329e-16
3.31585e-20
-4.29143e-34
-3.91057e-34
1.27035e-19
-7.22103e-19
-1.14646e-18
-2.12751e-18
0
7.49468e-11
-7.52496e-20
0
1.9818e-09
-1.51345e-08
-1.48371e-19
5.13219e-19
1.25733e-14
0
-1.50101e-08
2.98176e-14
-1.41632e-13
-1.11992e-09
-1.35616e-26
7.20789e-34
1.26016e-09
-1.16974e-19
-1.0734e-13
-3.49622e-21
3.38003e-34
-6.02937e-21
-7.15595e-14
0
0
5.23932e-18
9.11414e-18
-1.21399e-32
-9.00507e-18
-9.02097e-18
1.30888e-35
7.76577e-18
-3.56772e-19
4.46835e-18
-1.25747e-17
1.06259e-17
-5.40552e-17
1.14366e-35
4.44581e-18
-3.60464e-17
1.52573e-26
-4.34017e-09
-4.22928e-09
3.5767e-10
1.68703e-08
-1.29278e-10
1.5722e-08
-9.48939e-09
-9.24524e-09
-1.35417e-12
-6.76452e-10
-1.15042e-12
2.21612e-10
-4.39052e-25
-1.10322e-12
2.98343e-08
7.4606e-11
1.48764e-08
-3.31233e-18
1.35498e-17
1.4225e-12
-1.08681e-10
-6.53763e-20
1.03606e-18
-6.39566e-12
-4.17432e-13
-2.91512e-16
0
-1.78058e-08
-1.4802e-08
0
1.12536e-18
1.57384e-17
0
-1.50936e-16
-1.34197e-17
6.53326e-20
3.1136e-19
6.50162e-19
3.47696e-20
4.5623e-19
-4.47604e-18
5.70434e-18
-6.32097e-20
6.32951e-19
6.72489e-18
-8.63855e-19
-2.12988e-17
-6.39057e-20
-9.78495e-19
-6.11241e-13
-9.12374e-13
1.46235e-19
1.37156e-13
2.25115e-13
3.05809e-17
0
-1.61085e-08
-3.2856e-09
0
2.24006e-17
0
-1.9044e-17
0
-2.30964e-10
3.09999e-08
-6.38984e-20
-5.3162e-19
3.64103e-19
-2.31865e-19
7.30781e-20
-2.77373e-19
-4.52628e-18
4.78543e-19
-4.13236e-18
3.72507e-18
6.118e-20
8.99162e-18
-1.00176e-17
4.05865e-19
2.92648e-17
1.26025e-18
-7.52267e-20
-3.09978e-18
3.13729e-17
1.89019e-33
1.47997e-19
-2.22158e-18
2.44463e-17
-2.11565e-19
-1.0245e-21
-7.46991e-20
0
1.50499e-08
3.71206e-13
-7.46789e-20
2.64424e-17
-3.30989e-18
-3.91031e-19
-4.1154e-20
-5.03011e-19
-3.89687e-20
9.65549e-20
-5.05129e-24
2.82797e-23
-5.05837e-20
4.44865e-20
1.54631e-34
-4.44715e-20
0
0
0
0
0
0
0
0
0
0
0
0
0
0
0
0
0
0
0
0
0
0
0
0
0
0
0
0
6.7796e-17
7.47787e-34
7.85862e-18
-9.07251e-18
2.54077e-17
-8.93105e-18
3.39387e-33
7.5672e-18
4.46493e-18
-1.54179e-17
-2.70784e-17
-4.44544e-25
-5.31661e-18
3.55961e-09
2.55049e-17
7.79013e-09
-5.60519e-34
-1.27893e-17
2.25263e-17
2.64443e-17
-4.50534e-17
-6.91536e-20
-2.26606e-12
-1.26911e-17
-2.39754e-10
0
-2.0823e-15
0
4.53606e-09
-2.24354e-17
0
2.27351e-12
8.98498e-18
1.38194e-19
-6.822e-19
-3.38885e-18
-7.13354e-18
2.01473e-17
-7.00966e-20
-1.5281e-12
-1.49435e-20
-9.0692e-09
1.68401e-17
-7.15082e-20
-3.0413e-12
-9.67902e-11
2.32567e-12
-4.16612e-10
0
4.14258e-10
1.53734e-08
1.42294e-19
-2.24551e-17
0
7.81846e-18
-7.14228e-20
-2.23543e-18
5.06885e-13
-9.02401e-18
2.5827e-18
2.05354e-10
2.47468e-17
-7.10779e-20
-1.12225e-17
1.68128e-17
3.81305e-20
2.98163e-13
4.07295e-11
-1.2266e-34
4.30913e-20
2.98163e-13
-3.4775e-34
-9.77462e-11
3.81479e-20
-7.79738e-19
1.61083e-18
-4.31154e-20
-9.46186e-19
2.50457e-18
1.36255e-19
-4.01e-18
1.40233e-18
6.54513e-18
-8.87758e-16
-1.14076e-34
2.81918e-16
4.73725e-15
5.55282e-20
-5.03364e-34
6.81313e-20
1.27958e-19
-6.27288e-19
1.24436e-18
6.0526e-18
-1.25456e-18
-3.4718e-17
-5.55363e-20
7.60516e-11
0
4.87601e-34
1.09419e-09
1.7271e-24
-6.41056e-14
2.23086e-34
-2.98165e-14
0
0
2.54586e-17
-4.51025e-18
-9.06037e-18
-1.35203e-17
1.80922e-17
-8.32398e-35
2.24854e-18
1.04747e-17
-8.30898e-20
-1.53488e-17
-6.06996e-32
-3.60049e-17
-5.66747e-34
8.90697e-18
-3.59704e-17
4.82925e-27
4.14539e-09
-1.43963e-17
-5.21045e-12
-1.53716e-08
-3.76133e-09
-1.52333e-08
9.06307e-09
1.78938e-17
-4.52109e-18
1.35554e-17
6.55957e-13
7.53149e-09
3.57161e-26
1.45278e-10
-1.53058e-08
-3.71619e-09
-1.53104e-08
8.47278e-13
-2.83019e-10
-7.45417e-13
7.42261e-09
0
-8.22938e-12
4.47459e-09
9.48829e-18
-1.87033e-08
0
1.67186e-12
-2.07274e-15
-7.22143e-20
4.72422e-09
2.51349e-17
0
1.62749e-12
-4.66887e-18
0
-1.44819e-18
-1.67097e-12
8.28883e-18
9.66333e-18
-8.948e-09
1.41642e-18
0
-1.73185e-12
9.19701e-18
-9.44767e-09
-1.82737e-17
0
6.02295e-12
4.17436e-13
1.852e-08
0
-1.48469e-08
-7.03573e-20
1.35038e-17
0
-1.00628e-17
-6.20331e-34
-2.03428e-18
-2.05854e-18
6.91956e-19
1.20183e-17
7.02811e-20
6.70838e-18
-2.11514e-17
4.61295e-24
5.96334e-14
1.95299e-12
-9.13154e-09
0
9.75451e-09
-3.31373e-20
-1.37155e-13
0
7.21834e-09
-2.69662e-33
-8.52752e-20
-9.76307e-21
6.21293e-19
-1.06397e-18
0
4.47717e-19
-1.8765e-18
0
1.26721e-13
-3.61921e-25
-3.71607e-18
-9.88542e-17
0
2.73325e-34
1.31906e-09
2.54554e-20
0
5.4586e-20
1.14557e-19
-2.92584e-34
-2.68555e-19
3.48111e-18
-7.98674e-19
0
7.38602e-19
0
-1.20841e-18
-3.89706e-20
-1.13361e-20
-5.19699e-20
0
3.555e-34
0
0
0
0
0
0
0
0
0
0
0
0
0
0
0
0
0
0
0
0
0
0
0
0
0
0
0
0
2.6792e-18
-9.19691e-35
-2.01323e-17
-1.80847e-17
-3.6135e-17
-7.18357e-22
-1.80723e-17
-2.66907e-33
-2.62841e-18
4.54502e-18
9.57026e-18
-2.68677e-17
-1.88872e-33
9.05072e-18
-3.60778e-17
0
-2.57536e-18
-9.54135e-13
-4.32447e-10
1.35916e-17
-1.14878e-17
-1.03159e-15
-6.68466e-18
-1.04876e-18
-2.70587e-18
1.42493e-17
1.58001e-17
-6.7136e-18
2.01014e-17
-3.042e-20
0
1.0879e-18
3.27283e-18
-1.58461e-17
7.77223e-18
-1.80124e-17
1.27597e-17
1.00931e-17
6.80995e-18
1.91054e-17
0
6.55698e-20
-1.93418e-19
-7.6384e-18
-3.01456e-18
0
4.2269e-17
0
6.54792e-18
-1.55609e-17
0
-5.68093e-18
1.32941e-17
0
-1.31093e-18
1.11021e-18
-1.26544e-18
1.20294e-17
-6.91544e-20
6.26215e-19
-2.14918e-18
-6.6555e-18
2.12158e-17
-7.24123e-20
-8.19445e-18
-8.29369e-18
5.01081e-18
0
-9.89386e-16
8.26728e-34
-4.38292e-18
0
3.28722e-18
-6.44711e-34
1.66533e-18
4.64422e-18
7.5389e-18
1.89086e-17
-7.21777e-20
-6.69316e-18
9.94386e-18
-1.01479e-31
8.15155e-19
-3.94691e-35
-2.79589e-16
6.04823e-34
1.48667e-18
3.05545e-18
0
0
0
6.78101e-17
-1.44946e-33
-1.06666e-19
2.40518e-18
-4.54375e-18
-9.90394e-18
-2.05098e-17
-1.81228e-17
-8.91313e-34
-9.42072e-20
-3.60555e-17
6.78289e-36
1.7923e-19
-1.29624e-17
2.25262e-17
-1.55903e-17
2.5752e-17
-8.74425e-18
-3.65431e-35
-1.47026e-17
-2.23865e-18
-7.15077e-20
3.04129e-12
-5.92604e-12
-2.3257e-12
4.16612e-10
0
-4.14762e-10
-1.53734e-08
-1.423e-19
-4.53598e-09
-2.02012e-17
0
-2.28842e-12
1.79408e-17
7.14227e-20
-2.70486e-18
2.54325e-18
-6.78796e-18
6.27894e-18
-6.75663e-18
1.68223e-17
0
1.5281e-12
-6.73394e-18
9.06895e-09
2.35848e-17
-6.91541e-20
-2.44495e-12
-1.48564e-17
-2.4021e-10
0
-2.0812e-15
7.01796e-20
-2.46902e-17
0
1.12502e-17
6.90961e-20
2.85011e-18
-1.01108e-17
-5.03504e-18
2.45151e-17
7.00943e-20
-8.97485e-18
1.57326e-17
0
-6.17573e-18
1.91172e-19
1.01803e-17
-8.86218e-16
0
2.76193e-16
5.83429e-15
-1.65534e-24
-2.98163e-13
0
9.77462e-11
0
-1.28298e-18
-1.23672e-18
-2.40802e-18
8.23369e-18
-2.48566e-18
-2.99765e-17
1.11072e-19
9.46186e-19
-2.50457e-18
2.86296e-25
2.98164e-13
4.07294e-11
0
0
0
-3.42252e-33
-1.16357e-18
1.97634e-18
-4.31152e-20
0
0
0
0
0
0
0
0
0
0
0
0
0
0
0
0
0
0
0
0
0
0
0
0
0
0
-1.36041e-17
4.80172e-33
1.03907e-17
1.49935e-17
4.45129e-18
1.4672e-17
-1.54694e-17
-4.51753e-17
6.78775e-33
-1.81543e-17
-4.51132e-18
0
-2.7124e-17
3.70427e-25
2.54944e-18
3.80749e-09
-3.05622e-13
5.11913e-12
3.87029e-09
5.09974e-18
3.05618e-13
-7.61498e-09
-7.71813e-09
7.6405e-13
1.7776e-33
4.66175e-18
-8.7668e-18
-1.91009e-19
6.94967e-20
0
4.50004e-18
-1.35186e-17
-6.63878e-20
-1.44436e-18
1.96789e-12
6.5597e-13
0
1.71986e-08
1.53461e-08
-2.57383e-18
4.54056e-18
-1.59166e-18
8.36912e-35
9.7124e-18
-9.06442e-18
0
-1.35869e-18
-1.604e-20
6.66593e-18
8.95721e-18
-1.44524e-17
-2.64319e-18
-4.48349e-18
-1.427e-17
7.02992e-20
0
2.01024e-18
-7.03052e-20
-1.52256e-17
-8.55736e-12
-2.44497e-12
0
-6.42412e-10
-1.51072e-08
-9.0236e-18
-2.12158e-17
1.40491e-19
1.11572e-17
7.02177e-20
-3.94029e-18
6.85447e-19
2.21525e-18
-6.67589e-18
1.68725e-17
-2.23172e-18
2.76344e-20
-2.02698e-18
8.80639e-19
0
0
1.37806e-18
0
-9.17641e-19
2.76583e-20
4.65764e-19
7.38617e-19
4.09177e-20
1.38506e-18
-2.53939e-18
3.5045e-24
-7.75234e-13
2.38546e-13
1.57093e-08
0
3.17937e-08
2.73064e-25
0
-2.32082e-33
3.24802e-19
8.6333e-18
6.53766e-18
-2.76397e-17
-1.08467e-19
0
0
0
0
-2.61043e-18
-5.22086e-18
-2.04176e-17
-9.09036e-18
-6.34206e-17
4.52991e-18
-2.7145e-17
1.70609e-33
2.47159e-18
-1.35907e-17
-2.00828e-17
-2.7058e-17
1.72878e-33
2.24835e-17
-4.51258e-17
0
2.31214e-18
2.74859e-18
1.12021e-17
-1.01381e-17
1.00675e-17
-9.02833e-18
0
3.08499e-17
1.68139e-17
-1.02066e-17
1.45518e-17
-2.26351e-18
0
-2.48969e-12
-1.7858e-08
5.61552e-18
-4.17432e-12
8.48793e-11
-2.17444e-18
-1.22523e-18
1.88199e-17
5.57318e-18
-4.46775e-18
1.00001e-17
-6.74827e-18
7.2413e-20
-6.36534e-18
4.17431e-12
6.32025e-18
0
1.13969e-09
-1.44413e-19
-5.01017e-18
-1.77966e-17
0
2.99688e-18
3.31917e-18
1.44745e-19
-3.22705e-18
4.16851e-20
6.00647e-18
4.93429e-18
7.21849e-20
-1.87884e-18
2.23725e-18
6.23504e-18
1.33273e-17
-1.3114e-19
3.05844e-18
6.7652e-18
-3.49562e-18
0
1.02481e-15
-6.91826e-20
-1.11684e-17
0
2.14881e-18
1.31097e-19
4.91935e-19
-8.88053e-18
-4.15124e-18
-4.57946e-18
1.38311e-19
-8.69008e-18
7.89767e-18
-2.49191e-31
-5.44045e-19
0
-4.61494e-16
3.23715e-34
8.67301e-19
8.25876e-19
0
0
0
0
0
0
0
0
0
0
0
0
0
0
0
0
0
0
0
0
0
0
0
0
4.72942e-18
0
-2.5607e-17
1.80543e-17
-2.71732e-17
-1.34596e-17
-1.80021e-17
-1.3739e-24
4.33143e-09
-4.13156e-09
3.71943e-09
4.95751e-13
-4.07481e-09
-2.69585e-12
9.45067e-09
-9.03515e-09
-4.95706e-13
-7.43928e-09
2.69591e-12
8.15039e-09
4.32616e-24
3.65865e-09
7.98293e-09
-7.13827e-20
1.65845e-10
2.44494e-12
1.21129e-12
-1.00846e-25
-1.52041e-08
7.27503e-20
-2.16061e-25
1.87346e-08
4.06031e-10
-7.09634e-12
7.09633e-12
0
-7.64044e-13
-6.74947e-18
-3.30483e-10
2.02454e-17
1.45241e-19
-1.13958e-17
4.03933e-17
-1.10462e-19
-6.77523e-18
-2.83383e-26
-1.86989e-08
-4.53212e-12
3.65004e-09
-7.15119e-13
-9.14795e-18
-5.26014e-15
1.76422e-17
-1.49919e-18
7.11873e-13
-7.30005e-09
2.3274e-18
2.71618e-17
-1.16599e-08
5.20309e-20
0
-1.26451e-09
-3.21163e-20
1.19263e-13
-1.63991e-13
0
1.83013e-08
-3.578e-13
-5.97678e-18
0
-4.72294e-18
1.51198e-33
8.80947e-22
1.55286e-18
-4.59952e-18
-5.31291e-19
1.74741e-08
6.90171e-20
0
-1.63846e-08
-6.77298e-20
1.25229e-12
2.01263e-12
4.77064e-13
0
1.79202e-08
-2.42403e-09
1.93813e-13
-1.73862e-17
1.38065e-19
-9.82248e-18
-6.76983e-20
-2.60035e-18
2.4501e-18
9.91909e-19
-2.00434e-17
-1.08638e-18
4.88136e-18
-1.94937e-24
0
5.38949e-34
0
0
0
0
0
-1.36042e-17
-5.37381e-33
-2.60636e-19
7.67394e-18
1.35883e-17
-1.4846e-17
0
-2.71242e-17
-1.56265e-33
2.18211e-18
4.55626e-17
-1.52313e-17
-2.70389e-17
-7.48545e-34
2.55169e-18
1.80391e-17
-9.67654e-18
-1.8213e-17
-6.76955e-25
3.82481e-09
-1.1206e-12
1.77005e-11
4.01709e-09
1.1206e-12
-7.65074e-09
-7.95788e-09
2.24121e-12
-8.38597e-18
-7.02998e-20
0
-7.31114e-18
2.32909e-18
2.13871e-24
-7.28826e-18
1.96069e-11
5.9633e-12
0
1.85625e-08
-8.16452e-11
1.0583e-17
-2.42728e-19
-1.3308e-17
-7.02483e-20
-1.03879e-17
1.311e-18
0
-5.27163e-18
2.01147e-18
-2.26526e-18
0
8.96042e-18
3.99982e-18
6.79164e-18
-1.84853e-18
-9.86568e-34
0
-1.46488e-17
4.05398e-24
1.69395e-19
-5.36699e-12
-1.49081e-12
0
-3.45175e-08
-4.49669e-10
1.80296e-17
1.50707e-18
0
-2.14082e-17
0
1.23234e-18
-6.50672e-19
-3.37517e-18
1.66109e-17
-2.21384e-17
6.77338e-18
5.76243e-24
-5.96335e-13
2.48969e-12
-1.3753e-09
0
1.78244e-08
0
3.57797e-13
0
1.25062e-08
-6.99995e-20
2.13105e-19
2.51596e-18
4.84464e-18
-2.50356e-17
5.42328e-20
-4.59747e-19
2.78266e-18
2.76307e-20
-2.18727e-18
8.80615e-19
0
7.01847e-25
0
0
-1.52371e-18
1.62393e-18
-4.09079e-20
0
0
0
0
0
0
0
0
0
0
0
0
0
0
0
0
0
0
0
0
1.54672e-17
-2.86902e-22
-9.16139e-18
9.14089e-18
-9.00375e-18
-1.19566e-33
-1.27603e-17
1.28688e-17
2.04523e-21
1.49728e-17
0
-1.81077e-17
-1.81799e-33
1.11774e-19
1.37517e-17
-2.23865e-19
-3.76848e-17
-7.10572e-20
1.29644e-17
4.40774e-09
-1.1742e-17
1.23642e-15
0
9.03366e-13
-4.18251e-15
7.18385e-20
-4.8304e-09
-1.33156e-17
0
-5.87139e-12
1.56338e-17
-7.10049e-20
2.65139e-18
-9.05678e-13
1.31045e-19
-1.86582e-17
-8.81459e-09
2.98807e-17
0
4.68617e-12
-2.14592e-18
9.65515e-09
2.22409e-17
0
-6.05272e-18
5.49926e-18
4.46633e-18
1.13841e-17
-8.1672e-18
8.93293e-18
1.62394e-18
1.11283e-17
-3.34866e-18
0
-1.60826e-17
-8.93114e-18
0
-1.07338e-12
-6.21759e-18
-1.91851e-08
1.52784e-33
-7.43589e-17
-7.37557e-20
3.09087e-33
-8.92174e-10
-3.63763e-12
1.45019e-33
3.06863e-18
-3.34297e-18
-1.9213e-17
7.28323e-18
-7.37273e-20
1.11702e-17
-9.85329e-19
-1.4345e-19
-7.36514e-18
-1.71048e-17
1.12251e-16
0
-4.16786e-15
-7.00404e-20
4.13827e-18
4.5114e-18
0
7.22723e-17
4.395e-18
-7.16298e-20
8.24026e-19
-7.06234e-20
8.45337e-18
4.05587e-17
-7.00161e-20
1.10489e-18
-4.57878e-18
-2.5589e-18
1.10288e-18
2.80493e-09
1.33274e-24
0
1.38222e-24
4.47243e-14
3.22019e-12
0
2.42743e-08
-1.75805e-18
-1.03611e-33
3.23697e-20
-7.94349e-19
9.35896e-19
-7.40257e-18
0
0
0
0
0
0
1.53258e-17
0
5.66108e-17
-4.20832e-18
-9.42184e-18
-8.93639e-18
-1.81464e-17
-1.69492e-24
-4.21236e-09
7.22673e-11
-9.19875e-09
1.42632e-10
2.08795e-24
1.42603e-10
3.848e-09
5.6308e-10
-1.59514e-10
7.38444e-10
3.06e-10
4.70852e-13
-7.72489e-09
1.77532e-12
3.63009e-10
5.27644e-27
1.80038e-08
-4.65139e-12
3.95323e-09
1.68173e-08
3.59289e-12
1.63409e-08
-1.50574e-12
-7.80072e-10
6.81093e-18
-1.09828e-19
-8.84563e-13
-7.84895e-09
-1.20875e-18
4.07167e-18
-1.26772e-18
1.51045e-17
7.1383e-20
4.82006e-09
-5.96332e-12
4.38055e-12
-1.30775e-25
5.97078e-12
-7.27557e-20
-6.60565e-26
1.4982e-08
-4.65139e-12
-7.13234e-20
-2.24121e-12
-6.74934e-18
-9.63345e-09
3.37007e-18
-7.2614e-20
5.38611e-18
-9.0817e-18
-1.74745e-08
-6.90147e-20
0
1.56348e-08
1.6301e-08
-6.77244e-20
-6.55969e-13
8.11011e-12
-4.63166e-18
0
3.72093e-08
7.64186e-17
-5.36694e-13
-2.83252e-13
-1.76094e-18
0
2.15782e-18
-2.48114e-18
6.77046e-20
-5.20213e-18
3.92759e-18
2.20973e-18
-2.55141e-18
4.32969e-18
5.78436e-18
-1.21294e-18
1.13389e-08
0
0
-1.29296e-24
1.19262e-13
-1.83372e-12
0
-4.72335e-09
-8.20184e-18
-5.20372e-20
0
7.20309e-20
4.38193e-19
-6.60725e-18
3.06792e-24
0
3.96461e-34
0
0
0
0
0
0
0
0
0
0
0
0
0
0
0
0
0
1.82265e-17
-4.38601e-35
-1.03562e-17
-5.17046e-18
-1.59532e-19
-1.84514e-17
1.26162e-34
3.24608e-19
-1.39891e-19
1.0356e-17
-2.7411e-17
-9.29461e-25
-4.16907e-09
1.40883e-11
1.7552e-08
-1.90826e-12
2.1617e-12
-3.14825e-08
1.40278e-10
-1.55121e-08
1.73151e-08
-9.12044e-09
1.79291e-19
1.22214e-17
1.28185e-18
2.32988e-18
2.80619e-18
-9.17469e-18
-1.18024e-12
-2.99891e-10
2.73525e-24
-4.27885e-09
4.24109e-09
1.59646e-08
1.62962e-10
1.56529e-08
-9.33703e-09
-3.35064e-12
-8.4483e-09
4.38552e-13
-3.38042e-10
6.97583e-20
1.59001e-17
-3.39909e-12
-8.94496e-13
-1.3973e-17
0
-1.78106e-08
-3.31337e-11
0
-1.34574e-17
0
1.1156e-17
-9.0487e-34
2.96102e-18
-6.25261e-19
3.35586e-18
-1.85695e-17
4.79033e-18
5.50004e-24
0
-6.77612e-18
1.00852e-17
7.66824e-18
6.89311e-20
0
-1.8076e-18
-1.568e-17
1.46015e-19
9.64606e-18
-1.19266e-12
0
1.48204e-08
3.71183e-18
2.67671e-17
1.05132e-17
-6.88971e-20
1.95854e-19
-2.45851e-17
-7.28052e-20
1.23677e-18
3.36149e-18
-8.45427e-18
9.73792e-20
8.80313e-18
-5.34661e-20
1.0734e-12
-1.75863e-08
0
1.44353e-19
0
-1.84523e-17
1.22177e-17
1.06912e-19
-9.46379e-19
-1.25514e-17
1.39554e-33
-3.57277e-17
4.90456e-18
-6.87088e-20
-2.3854e-13
1.41629e-12
-9.91932e-10
0
1.58376e-08
8.9674e-20
-3.57791e-13
0
-1.00782e-08
6.86983e-20
1.46874e-19
6.01949e-18
1.47188e-17
-1.90723e-17
0
3.48131e-19
-8.80058e-18
0
0
0
0
0
0
5.6655e-17
9.14089e-18
1.81463e-17
-1.81384e-17
-9.16139e-18
5.79404e-34
1.27606e-17
1.01154e-17
2.30643e-17
-3.63511e-17
9.04114e-32
-1.77558e-17
-6.50652e-35
-2.93999e-18
-1.69036e-21
0
9.71285e-19
0
4.62829e-09
3.71341e-12
7.81277e-18
-6.91664e-22
-4.52733e-18
-8.93327e-18
7.97224e-18
-4.94597e-18
-3.00526e-12
-9.25318e-09
7.81439e-18
0
1.71989e-19
-8.93119e-18
9.50357e-18
5.59211e-18
1.42121e-19
9.42205e-12
-1.58056e-10
-6.84182e-18
1.82489e-08
0
-1.02003e-12
1.0548e-16
0
-2.01945e-17
0
1.9022e-17
4.64923e-25
6.9965e-18
1.01873e-12
-1.23269e-17
-1.82793e-17
3.154e-10
1.4237e-17
7.17206e-20
-1.13731e-17
1.78131e-17
7.17291e-20
-9.06424e-12
-1.32302e-17
-1.86505e-08
0
1.38388e-16
-7.00525e-20
-2.33923e-19
-4.59175e-12
0
2.52396e-18
-1.80799e-08
-7.37573e-20
1.43119e-12
2.43004e-12
-6.5785e-34
-9.28749e-10
1.643e-08
1.43253e-19
1.37878e-18
1.11862e-18
-4.72153e-18
1.63682e-17
-7.00049e-20
0
-1.33729e-18
3.65989e-18
7.5521e-18
-7.37229e-20
-1.78673e-18
1.18223e-18
6.04548e-18
-4.60894e-19
2.53284e-24
1.625e-12
-3.1514e-34
1.43851e-08
-7.19128e-20
-1.19223e-18
4.47111e-18
-7.91415e-09
-3.34387e-25
0
-3.23555e-20
5.96325e-14
-5.81424e-13
0
1.19735e-10
2.80607e-09
1.90475e-24
-1.70523e-24
-6.8578e-13
-8.70896e-19
2.53468e-18
0
0
0
0
0
0
0
0
0
0
0
0
0
0
2.55575e-17
1.33163e-18
5.63932e-17
-1.29009e-19
-2.70205e-17
-4.14679e-18
1.89507e-19
-3.04268e-25
-1.54265e-17
-3.78941e-09
2.12108e-17
-8.26767e-09
-5.82974e-34
1.79496e-17
-1.77767e-17
1.1509e-19
-1.96789e-12
-1.53555e-12
4.83304e-18
0
-1.19259e-13
-2.66858e-12
1.2623e-10
0
1.20099e-08
-1.40054e-08
0
4.51885e-09
1.32734e-17
0
1.11316e-12
-1.44853e-17
0
1.7386e-08
-1.79325e-08
-1.42648e-19
-2.23567e-18
2.69478e-18
5.75491e-20
-1.27645e-18
-6.6596e-19
6.09835e-18
-7.89355e-18
-2.45731e-17
-3.65827e-18
-8.27546e-18
-1.51388e-17
1.3233e-19
-1.12061e-12
6.63654e-18
-9.03715e-09
-1.66827e-17
1.87225e-24
-5.30737e-12
4.68101e-09
-6.10646e-18
-6.74603e-10
0
3.53201e-12
1.02112e-16
1.42858e-19
2.34337e-18
0
-6.2387e-22
-5.27386e-26
-2.40922e-18
-3.52953e-12
-3.53353e-18
2.35108e-17
-9.36036e-09
5.89659e-18
0
-4.80492e-18
6.02547e-20
4.37866e-25
5.47343e-18
-9.98854e-13
-7.50898e-18
0
-7.56566e-09
-6.84277e-20
2.35923e-17
0
-2.59974e-17
4.43505e-20
1.75302e-18
2.27001e-18
-9.90949e-18
-6.47114e-18
0
9.43017e-18
-3.54613e-17
4.51767e-20
0
7.06011e-16
7.10561e-18
6.92602e-34
-9.4316e-18
2.31217e-18
-4.63957e-26
0
-1.24734e-34
3.384e-24
0
5.65954e-34
0
0
0
0
0
0
0
1.78443e-17
1.13959e-34
1.03562e-17
1.03524e-17
1.81336e-17
1.59532e-19
1.0356e-17
-1.8274e-17
-2.43439e-34
4.05549e-18
-1.84514e-17
-6.04812e-25
-5.24026e-18
-4.27878e-09
4.24068e-09
1.59639e-08
-6.64662e-12
1.56539e-08
-1.73988e-17
-9.33703e-09
-3.23882e-12
-8.44821e-09
2.44274e-18
1.7741e-17
-2.52116e-34
2.18017e-20
-1.21509e-15
2.23629e-13
-2.38533e-12
-1.4759e-08
-1.04035e-11
-1.55131e-08
-1.73153e-08
-1.35604e-18
3.83421e-18
2.40119e-18
-2.57879e-18
-4.34676e-19
-7.87696e-18
4.50167e-18
9.07349e-18
8.28443e-18
6.89328e-20
0
-4.61776e-18
-2.8683e-18
7.30019e-20
1.17478e-17
4.79094e-18
0
-9.92493e-16
2.01195e-17
1.43304e-18
7.14388e-20
0
1.2431e-17
1.33936e-17
-1.83926e-17
-1.34894e-17
1.14988e-17
1.72779e-34
-1.4627e-17
-6.10754e-18
0
4.07931e-18
-4.81028e-18
-4.49353e-18
7.64482e-20
1.94984e-19
-7.14004e-20
1.58403e-17
3.30843e-18
-4.98637e-18
-9.01371e-18
6.97627e-20
-3.35691e-19
1.16382e-18
0
4.73636e-16
4.29813e-15
6.97383e-20
-4.54258e-18
-1.12285e-18
-7.42649e-18
-2.23755e-17
1.74949e-24
-4.17427e-13
8.34868e-13
-9.91388e-10
0
1.61193e-08
0
-1.78896e-13
1.4432e-19
-2.8773e-12
-6.55953e-13
0
-1.0075e-08
0
-1.7587e-08
-1.62192e-08
-1.46999e-33
-2.45383e-18
3.51974e-18
3.53292e-18
-3.34336e-17
4.48383e-20
3.72639e-19
1.44301e-19
-1.54069e-18
3.67681e-18
-5.74617e-18
1.30165e-18
-1.35187e-17
5.34641e-20
0
5.34583e-20
0
0
0
0
0
0
0
0
0
0
0
2.30233e-17
-2.71202e-34
1.56743e-19
5.08078e-18
1.841e-17
6.28667e-19
-3.97416e-17
-8.4552e-18
5.54925e-34
2.63156e-17
1.8529e-17
2.03028e-17
-4.60932e-17
0
-3.08897e-17
-2.02754e-12
-3.69825e-10
8.94026e-18
-2.6835e-12
1.55673e-08
-1.35491e-17
2.11453e-17
-5.07507e-18
1.026e-17
1.45665e-17
-3.19155e-18
1.91444e-17
-4.45769e-18
0
4.48479e-18
-2.69e-17
5.8775e-24
-8.58533e-25
-9.83552e-19
1.1331e-16
0
0
1.2658e-19
1.7889e-13