/*--------------------------------*- C++ -*----------------------------------*\
| =========                 |                                                 |
| \\      /  F ield         | OpenFOAM: The Open Source CFD Toolbox           |
|  \\    /   O peration     | Version:  5.x                                   |
|   \\  /    A nd           | Web:      www.OpenFOAM.org                      |
|    \\/     M anipulation  |                                                 |
\*---------------------------------------------------------------------------*/
FoamFile
{
    version     2.0;
    format      ascii;
    class       volScalarField;
    location    "2";
    object      nut;
}
// * * * * * * * * * * * * * * * * * * * * * * * * * * * * * * * * * * * * * //

dimensions      [0 2 -1 0 0 0 0];

internalField   nonuniform List<scalar> 
12160
(
1.20483e-09
1.27104e-09
5.45058e-08
1.22215e-09
1.00819e-07
6.07527e-08
1.23395e-09
1.52269e-07
9.01123e-08
7.9649e-08
1.2717e-09
7.20336e-08
1.18491e-07
8.60796e-08
1.44939e-07
1.31513e-09
5.0981e-08
8.97695e-08
1.60939e-07
6.52567e-08
6.52555e-08
1.35946e-09
4.7498e-08
5.2725e-08
7.6785e-08
1.04078e-07
4.79863e-08
5.21918e-08
1.41249e-09
4.43619e-08
4.83295e-08
5.87465e-08
7.44414e-08
1.39522e-07
2.13296e-08
5.74155e-09
1.48706e-09
3.5259e-08
4.66485e-08
5.90088e-08
6.31964e-08
1.21567e-07
3.06634e-08
6.68736e-09
1.18769e-08
1.59601e-09
2.67622e-08
3.71538e-08
5.3487e-08
7.15239e-08
1.3455e-07
3.0593e-08
8.30245e-09
1.23525e-08
1.57674e-08
1.75611e-09
2.06576e-08
2.69051e-08
3.87086e-08
6.12684e-08
1.63419e-07
3.93297e-08
1.25005e-08
9.18119e-09
2.08808e-08
9.54823e-09
1.9863e-09
1.69992e-08
2.0373e-08
2.6251e-08
3.96269e-08
9.4398e-08
7.5287e-08
1.81913e-08
7.85002e-09
4.74227e-08
6.67217e-09
9.00028e-09
2.31059e-09
1.50803e-08
1.66657e-08
1.9357e-08
2.5663e-08
4.56949e-08
1.65797e-07
4.77437e-08
6.82119e-09
3.1868e-08
4.44466e-09
4.68536e-09
4.58575e-09
2.76835e-09
1.43607e-08
1.48048e-08
1.5626e-08
1.8567e-08
2.62248e-08
3.97788e-08
2.56707e-08
6.75682e-09
2.33493e-08
3.45888e-09
2.05148e-08
6.12087e-09
7.33591e-09
3.38609e-09
1.46626e-08
1.4194e-08
1.37692e-08
1.48956e-08
1.79992e-08
2.07287e-08
1.27796e-08
7.76078e-09
2.02573e-08
3.78827e-09
1.24353e-08
3.98561e-09
4.92475e-09
4.27465e-09
4.20932e-09
1.59601e-08
1.4566e-08
1.31103e-08
1.31501e-08
1.41857e-08
1.41422e-08
8.89465e-09
1.74157e-08
1.6176e-08
6.18756e-09
5.00808e-09
6.53775e-09
1.17812e-08
1.84755e-08
5.30947e-09
1.82345e-08
1.58949e-08
1.34036e-08
1.26553e-08
1.24248e-08
1.11916e-08
7.31568e-09
6.10511e-08
1.30306e-08
1.79605e-08
5.02202e-09
9.16123e-09
6.83833e-09
4.07872e-09
6.75798e-09
2.15362e-08
1.83435e-08
1.46616e-08
1.31287e-08
1.18781e-08
9.97858e-09
6.79243e-09
2.12532e-08
1.31213e-08
1.82833e-08
5.31503e-09
9.20828e-09
1.20766e-08
8.4901e-09
8.71533e-09
2.55728e-08
2.21047e-08
1.70469e-08
1.44658e-08
1.21751e-08
9.81864e-09
6.83156e-09
1.62402e-08
2.52712e-08
1.47888e-08
7.04674e-09
1.10389e-08
1.46011e-08
1.56826e-08
1.15202e-08
2.9822e-08
2.71292e-08
2.06378e-08
1.70664e-08
1.31541e-08
1.0537e-08
7.3926e-09
1.57692e-08
8.68957e-08
2.54457e-08
2.60694e-08
1.27013e-08
1.66946e-08
2.11008e-08
1.59226e-08
3.38358e-08
3.26402e-08
2.51976e-08
2.13337e-08
1.52996e-08
1.18596e-08
8.57485e-09
1.72951e-08
5.3015e-08
4.87932e-08
1.71458e-08
9.01008e-09
3.00402e-08
4.97915e-08
2.36315e-08
3.77558e-08
3.78306e-08
2.97911e-08
2.7717e-08
1.9329e-08
1.41576e-08
1.07024e-08
1.96182e-08
3.57624e-08
7.79201e-08
1.11208e-08
1.12034e-08
2.16354e-08
6.09702e-08
3.94847e-08
4.2428e-08
4.26511e-08
3.33152e-08
3.46209e-08
2.56097e-08
1.86568e-08
1.45437e-08
2.05923e-08
3.33051e-08
9.72131e-08
1.0554e-08
1.52866e-08
8.177e-09
1.2959e-08
7.66498e-08
4.98815e-08
4.7869e-08
3.57634e-08
3.92543e-08
3.33405e-08
2.56657e-08
1.91019e-08
1.9705e-08
2.61369e-08
7.88873e-08
1.276e-08
7.94707e-09
7.40226e-09
7.50574e-09
1.37101e-07
6.50464e-08
5.55129e-08
3.78638e-08
4.14369e-08
3.88017e-08
3.36308e-08
2.14538e-08
1.73992e-08
2.27305e-08
6.7149e-08
1.97514e-08
6.18761e-09
1.21936e-08
1.20478e-08
1.37101e-07
9.51087e-08
6.82377e-08
4.10017e-08
4.26391e-08
4.00409e-08
3.66814e-08
2.26257e-08
1.4278e-08
3.77784e-08
6.01873e-08
3.36546e-08
5.20883e-09
2.63969e-08
1.43513e-08
9.83554e-08
1.28798e-07
8.49574e-08
4.63534e-08
4.49398e-08
3.91615e-08
3.27727e-08
2.48479e-08
1.19424e-08
1.5371e-07
3.87851e-08
4.12552e-08
4.83741e-09
8.59347e-09
2.96181e-08
5.17146e-08
8.90141e-08
8.40262e-08
5.41511e-08
4.67607e-08
3.79159e-08
2.84835e-08
2.98954e-08
1.03904e-08
3.65758e-08
4.15316e-08
2.86614e-08
5.02805e-09
4.71077e-09
2.29118e-08
2.84194e-08
5.49529e-08
6.09789e-08
5.7981e-08
4.53418e-08
3.67706e-08
2.59192e-08
3.85675e-08
9.64649e-09
2.12691e-08
8.60932e-08
2.10468e-08
6.17472e-09
3.71635e-09
1.99912e-08
1.78147e-08
3.99591e-08
4.37681e-08
5.02157e-08
4.1961e-08
3.67284e-08
2.59463e-08
5.01737e-08
9.9072e-09
1.56295e-08
1.79763e-07
2.75226e-08
8.24195e-09
3.41776e-09
2.76682e-08
1.23633e-08
3.25103e-08
3.36463e-08
3.94219e-08
3.74146e-08
3.54592e-08
2.91952e-08
4.33658e-08
1.22689e-08
1.27604e-08
4.68279e-08
4.38926e-08
1.12669e-08
3.18811e-09
1.22007e-08
9.27715e-09
2.86866e-08
2.8085e-08
3.22996e-08
3.13405e-08
3.06676e-08
3.38613e-08
2.94309e-08
1.57359e-08
1.02302e-08
2.21919e-08
4.65669e-08
1.40434e-08
3.34681e-09
8.81864e-09
7.39572e-09
2.69001e-08
2.51727e-08
2.81063e-08
2.61e-08
2.59661e-08
3.34111e-08
1.99416e-08
9.8309e-09
8.03985e-09
1.34e-08
3.39916e-08
7.92423e-09
3.69908e-09
9.20068e-09
6.17965e-09
2.6614e-08
2.39737e-08
2.56951e-08
2.24618e-08
2.3142e-08
2.75164e-08
1.46042e-08
7.34159e-09
7.64133e-09
1.02072e-08
2.71937e-08
4.90951e-09
4.30746e-09
1.21051e-08
5.35813e-09
2.73871e-08
2.39141e-08
2.47462e-08
2.06593e-08
2.17733e-08
2.10788e-08
1.15898e-08
6.88199e-09
8.48725e-09
1.18321e-08
2.58188e-08
4.92866e-09
5.51315e-09
1.59905e-08
4.79491e-09
2.94805e-08
2.46424e-08
2.47379e-08
2.00966e-08
2.12672e-08
1.72116e-08
1.00146e-08
7.28937e-09
1.00278e-08
1.88744e-08
3.1133e-08
5.87645e-09
6.90435e-09
1.58717e-08
4.40637e-09
3.3186e-08
2.62548e-08
2.53561e-08
2.02022e-08
2.12214e-08
1.55546e-08
9.24612e-09
8.38018e-09
1.28023e-08
4.16406e-08
4.61449e-08
5.16501e-09
8.21206e-09
1.78141e-08
4.15735e-09
3.98844e-08
2.89585e-08
2.65877e-08
2.07098e-08
2.16685e-08
1.57888e-08
9.24982e-09
1.04556e-08
1.79137e-08
1.22013e-07
6.21618e-08
4.77042e-09
7.78127e-09
2.3639e-08
3.99365e-09
5.13269e-08
3.33672e-08
2.87831e-08
2.14213e-08
2.20371e-08
1.67495e-08
9.61279e-09
1.46874e-08
2.73674e-08
3.22082e-08
6.47931e-08
7.04015e-09
6.99106e-09
2.14208e-08
3.93626e-09
8.02663e-08
3.9817e-08
3.22918e-08
2.25062e-08
2.2488e-08
1.73772e-08
9.56158e-09
2.64318e-08
2.35493e-08
2.02073e-08
3.76142e-08
1.25947e-08
6.17119e-09
1.69974e-08
1.19445e-07
3.86736e-09
4.95107e-08
3.73956e-08
2.41393e-08
2.34107e-08
1.7758e-08
9.37886e-09
1.13201e-07
1.56815e-08
1.91345e-08
1.95529e-08
1.29823e-08
5.14664e-09
1.76697e-08
5.44683e-08
7.42821e-08
4.52848e-09
4.56949e-08
2.6113e-08
2.53211e-08
1.86986e-08
9.74934e-09
6.46124e-08
1.47221e-08
2.42525e-08
1.21645e-08
9.74084e-09
4.53397e-09
9.00483e-09
4.8915e-08
5.8168e-08
4.82135e-08
4.74441e-09
2.80738e-08
2.8474e-08
2.09182e-08
1.08759e-08
2.83481e-08
1.75126e-08
3.06345e-08
1.02032e-08
7.08059e-09
4.18967e-09
9.50403e-09
2.88016e-08
3.9443e-08
4.93638e-08
3.14237e-08
6.9766e-09
3.2064e-08
2.43024e-08
1.29478e-08
1.94723e-08
2.36161e-08
1.83859e-08
9.8548e-09
5.10092e-09
4.32158e-09
8.881e-09
3.29845e-08
3.27545e-08
2.98723e-08
3.04061e-08
4.42298e-08
4.58471e-09
2.81822e-08
1.61968e-08
1.55032e-08
3.45998e-08
1.07784e-08
9.28426e-09
4.04936e-09
4.61481e-09
9.80821e-09
3.13844e-08
2.77176e-08
3.00967e-08
2.09989e-08
3.00314e-08
1.47918e-08
3.15393e-09
2.14852e-08
1.40097e-08
5.69767e-08
6.90221e-09
9.51276e-09
3.69316e-09
5.04948e-09
1.56251e-08
2.61247e-08
2.21998e-08
2.05905e-08
2.07969e-08
1.77282e-08
9.92986e-09
7.0833e-09
1.6239e-09
1.34404e-08
9.60021e-08
5.16942e-09
1.18584e-08
3.5665e-09
5.40273e-09
2.10913e-08
1.37048e-08
3.63611e-08
1.57013e-08
1.45887e-08
1.50592e-08
8.13625e-09
7.26268e-09
5.91895e-09
1.03009e-09
1.02623e-07
4.46589e-09
1.76703e-08
3.48301e-09
5.72356e-09
1.64078e-08
7.26452e-08
1.25912e-08
4.04436e-08
1.12424e-08
1.02074e-08
7.78029e-09
7.0343e-09
6.21903e-09
4.94359e-09
6.45054e-10
3.99457e-09
2.20578e-08
3.49659e-09
6.74805e-09
1.43962e-08
3.82582e-09
7.11823e-08
1.46541e-08
2.5587e-08
8.48407e-09
6.22582e-09
5.67368e-09
8.61227e-09
8.30737e-09
8.58486e-09
7.02654e-10
1.79897e-08
3.70573e-09
8.47351e-09
1.34693e-08
1.40369e-08
3.50585e-09
5.77857e-08
1.89698e-08
1.56204e-08
5.8832e-09
4.75696e-09
9.37196e-09
1.5793e-08
1.15473e-08
5.9048e-09
1.33079e-05
3.99826e-09
1.05217e-08
1.32357e-08
4.25106e-09
1.06121e-08
4.01534e-09
4.49722e-08
2.30975e-08
1.06577e-08
4.94738e-09
1.12481e-08
2.49547e-08
3.9804e-08
1.58746e-08
1.59888e-05
0.000104403
1.03703e-05
1.06014e-08
1.34982e-08
1.02982e-08
4.56618e-09
1.23859e-08
5.99904e-09
3.47718e-08
2.96576e-08
8.80794e-09
1.1721e-08
4.39534e-08
1.02886e-07
8.05256e-08
1.14963e-05
7.37743e-05
0.00061482
0.000288115
1.47615e-05
1.18633e-08
1.09396e-08
8.97127e-09
4.13093e-09
2.38324e-08
1.13001e-07
3.11164e-08
2.79321e-08
2.07888e-08
5.22311e-08
1.54872e-07
2.35784e-07
5.83865e-06
6.15145e-05
0.000515952
0.000766995
0.000692232
0.000429088
1.90128e-05
1.03372e-08
6.65867e-09
4.40342e-09
3.20979e-07
2.94232e-06
1.24981e-07
3.85156e-07
2.6013e-07
3.58373e-07
5.08336e-07
2.33756e-06
4.1137e-05
0.000253727
0.000712283
0.000844487
0.000808066
0.00073779
0.000571542
2.38499e-05
8.38187e-09
5.03261e-09
7.11372e-08
6.13858e-06
5.37311e-05
8.07656e-06
5.76926e-06
4.25247e-06
4.57465e-06
1.1233e-06
2.13944e-05
0.000150621
0.000637678
0.000807335
0.000889085
0.00087337
0.000834013
0.000768835
0.000603788
2.91349e-05
6.50763e-09
1.69981e-08
2.8399e-06
8.36357e-05
0.00062791
0.000142515
8.57594e-05
0.000175546
1.33391e-06
1.0591e-05
7.93157e-05
0.000362115
0.000779394
0.000854964
0.000626869
0.000914675
0.000888824
0.000850582
0.000785029
0.000627664
3.57965e-05
5.37282e-09
7.55033e-07
5.29435e-05
0.000836526
0.00406185
0.000817369
0.00177978
0.000128158
3.91963e-06
3.43917e-05
0.00019802
0.000705931
0.000824925
0.000657859
0.00165167
0.000754812
0.00165221
0.00156612
0.00156651
0.000929152
0.000900879
0.000858286
0.000794123
0.000647679
4.29613e-05
1.21777e-07
1.7589e-05
0.000708931
0.00411554
0.00479203
0.00494986
0.00304734
9.88551e-05
1.40314e-05
0.000101241
0.000366117
0.000807981
0.000699484
0.00127141
0.00182514
0.00146442
0.0009367
0.00182578
0.00201845
0.0020195
0.00146434
0.0013987
0.00139862
0.000936188
0.000911526
0.00086588
0.000802343
0.000664568
5.21808e-05
4.55557e-06
0.000288183
0.00365486
0.00427565
0.00441015
0.00584816
0.00213615
9.89229e-05
4.10712e-05
0.000183382
0.000726189
0.000729915
0.000929781
0.00144649
0.00144665
0.00159382
0.00159418
0.00158138
0.00136067
0.000943259
0.000783368
0.00158133
0.00173327
0.0017336
0.00136047
0.00130239
0.00130221
0.000950322
0.000927059
0.000877795
0.000805328
0.000680327
6.36714e-05
9.10014e-05
0.00313351
0.00393494
0.00351832
0.00358537
0.00500402
0.00129592
0.000140598
8.3382e-05
0.000322206
0.000703366
0.000582626
0.00175299
0.00175335
0.00179636
0.00179697
0.00136915
0.00136967
0.00151751
0.00151772
0.00143528
0.00124571
0.00121829
0.00124408
0.00125085
0.000960153
0.000838651
0.00164095
0.001641
0.00167027
0.00167014
0.00143513
0.00157548
0.00157571
0.00124535
0.00122258
0.00124392
0.00124802
0.00121481
0.00119895
0.00121299
0.00123153
0.00121456
0.00120223
0.0012129
0.00122726
0.000968221
0.000941391
0.000885176
0.00079949
0.000699776
7.76006e-05
0.00228828
0.00361257
0.00325091
0.00264557
0.00304648
0.0043264
0.00150641
0.000485889
0.000115169
0.000520297
0.000416336
0.00179297
0.00179346
0.00181386
0.00181471
0.00161244
0.00161268
0.00164178
0.00164221
0.00126661
0.0011499
0.00127164
0.00132472
0.00130627
0.00112043
0.00115483
0.00126763
0.00127155
0.00132483
0.00130635
0.00112051
0.0014309
0.00141598
0.00140381
0.00140485
0.001432
0.00141607
0.00140391
0.00140486
0.00130835
0.00126338
0.00128936
0.00129528
0.00112723
0.00116231
0.00112599
0.00116697
0.000976534
0.000893592
0.00138704
0.00138727
0.001517
0.00151711
0.00146417
0.00146445
0.001481
0.00148115
0.0013081
0.00126607
0.00128913
0.00129183
0.00138135
0.0013532
0.00141536
0.00133405
0.00138124
0.00136205
0.00141543
0.00133518
0.00112688
0.00116722
0.00112589
0.0011645
0.00111582
0.0011706
0.00111564
0.00116777
0.000984772
0.00095466
0.000882183
0.000790001
0.000722788
9.73895e-05
0.00320394
0.00317386
0.00244685
0.00234114
0.00279195
0.00367428
0.00286835
0.000722856
0.000233858
0.000326444
0.0017671
0.00176774
0.00177687
0.00177751
0.00162699
0.00162739
0.00161996
0.00162045
0.00144925
0.00146293
0.00145629
0.00146527
0.00145122
0.00146306
0.00146094
0.00146529
0.00145723
0.0014792
0.00146094
0.00147805
0.0014614
0.00147927
0.00146596
0.00147824
0.00112383
0.00126395
0.00125097
0.00106662
0.00131094
0.00127169
0.00112935
0.00126464
0.00106669
0.00125078
0.00131071
0.00127159
0.00137642
0.00134589
0.00136393
0.00133484
0.00137759
0.00134587
0.00136395
0.00133481
0.00117034
0.00116673
0.00114817
0.00119263
0.00108093
0.00112104
0.00107222
0.00116474
0.000995246
0.000937821
0.0010507
0.00105045
0.00119741
0.00119742
0.00117634
0.00117669
0.00129434
0.00129466
0.00129009
0.00130782
0.00131924
0.00133248
0.00129171
0.00130787
0.00132089
0.00133255
0.00131153
0.00124429
0.00134017
0.00134779
0.00135803
0.00128207
0.00131324
0.00125288
0.00133996
0.00134887
0.00135798
0.00128222
0.00117004
0.00116962
0.00114803
0.00119003
0.00122287
0.00124484
0.00122278
0.00124534
0.00108084
0.00112522
0.00107224
0.00116243
0.00107062
0.00115487
0.0010705
0.00115111
0.00100398
0.000961961
0.000865241
0.000781751
0.000695881
0.000121347
0.00311855
0.0026112
0.00219751
0.00229738
0.00255289
0.00314332
0.00343942
0.00139419
0.00051121
0.00156129
0.00156192
0.00152682
0.00152746
0.00155152
0.00155162
0.00154505
0.00154527
0.00144753
0.00146781
0.00144986
0.00146564
0.00145203
0.00146802
0.00145391
0.00146558
0.00145204
0.00146532
0.00144136
0.0014571
0.00145739
0.00146551
0.00144592
0.00145725
0.00139561
0.00137194
0.00139423
0.0013648
0.00139812
0.00137194
0.00139938
0.00136482
0.00136664
0.00133223
0.00137839
0.0013499
0.00137183
0.00133214
0.00138311
0.0013501
0.0011121
0.00113694
0.00108885
0.0011764
0.00101989
0.000986392
0.000985722
0.000984987
0.000930794
0.000930186
0.00079913
0.000798411
0.000933435
0.000933432
0.000917428
0.000994007
0.00104603
0.00104928
0.000923484
0.000993623
0.001053
0.00104933
0.00117089
0.00117355
0.00112662
0.00114479
0.00117437
0.00117371
0.00113296
0.00114476
0.00122211
0.0012167
0.001259
0.00125237
0.00122369
0.00121654
0.00126032
0.0012523
0.00118327
0.00128962
0.00130072
0.00117609
0.00129659
0.00129414
0.00119165
0.0012913
0.00130048
0.0011762
0.00129775
0.001294
0.00111196
0.00113988
0.00108883
0.00117325
0.00114363
0.00117867
0.00114359
0.0011799
0.00102495
0.000951351
0.000836593
0.000788561
0.000600335
0.00014854
0.00287189
0.00233269
0.00222263
0.00230687
0.0022862
0.00281621
0.00384139
0.00237711
0.000515624
0.00141191
0.00141216
0.00142187
0.00142236
0.00144301
0.00144333
0.0014345
0.00143469
0.00135182
0.00132127
0.0013408
0.00131108
0.00135729
0.00132145
0.00134544
0.00131109
0.00134743
0.00133004
0.00134291
0.0013062
0.001353
0.00133016
0.00134764
0.0013063
0.00134071
0.00129449
0.00134577
0.00129437
0.00106653
0.000977759
0.00116108
0.0011601
0.00103217
0.00103105
0.000721145
0.000718496
0.000677565
0.000675666
0.000585247
0.000656376
0.000621206
0.000692371
0.000598157
0.00065555
0.000635548
0.000691524
0.000753466
0.000818473
0.000730701
0.000794843
0.000762431
0.000818198
0.000740525
0.000794293
0.000874457
0.000868941
0.000952356
0.00094772
0.00088077
0.000868575
0.00095811
0.000947796
0.00111398
0.00109538
0.00108689
0.00105714
0.00111765
0.00109536
0.00109287
0.0010571
0.00103184
0.000921293
0.000818504
0.000808171
0.000549907
0.000190414
0.00245343
0.00222948
0.00228958
0.00213105
0.00220543
0.00257291
0.00449199
0.00281644
0.00148711
0.00148737
0.00160293
0.00160359
0.00131086
0.00131102
0.00132552
0.0013257
0.00133029
0.00135098
0.00133262
0.00134861
0.00133039
0.0013516
0.00133292
0.00134784
0.00131841
0.00130904
0.00130144
0.00133577
0.00131834
0.00131139
0.00130134
0.00133488
0.00131525
0.00126475
0.00130658
0.00124003
0.00132029
0.00126482
0.00131016
0.00123997
0.00129815
0.00123744
0.00129184
0.00122267
0.00130232
0.00123741
0.00129556
0.00122272
0.00109997
0.001072
0.000867171
0.000921634
0.000916636
0.000777645
0.000775048
0.000434122
0.000431782
0.00046728
0.000466294
0.000497072
0.000556476
0.00057927
0.000591547
0.000506928
0.000556017
0.000589804
0.000591372
0.000720512
0.000717557
0.000675833
0.000679983
0.000728031
0.000717448
0.000683579
0.000679716
0.000838067
0.000829285
0.000843773
0.000828911
0.00101323
0.000881551
0.000816075
0.000833452
0.000483148
0.000191765
0.00202126
0.00223717
0.00219222
0.00191439
0.00220974
0.00260374
0.00418014
0.00129545
0.0013836
0.00138385
0.00147327
0.00147335
0.0012456
0.00122179
0.00124109
0.00126791
0.00124932
0.00122203
0.00124117
0.00126698
0.00130015
0.00130027
0.0012373
0.00131589
0.00126564
0.00130286
0.00123732
0.00131607
0.0012657
0.00130143
0.0012071
0.001244
0.00118146
0.00128194
0.00120696
0.00124808
0.00118152
0.00128132
0.00129176
0.00122414
0.00129473
0.00122395
0.00109147
0.00115224
0.00102932
0.000803919
0.000804123
0.000607317
0.000608383
0.000454397
0.000450486
0.000338302
0.000339112
0.000421134
0.000255625
0.00043659
0.000325754
0.000422481
0.00025145
0.00043227
0.000318204
0.000444463
0.000465549
0.000453089
0.00041252
0.00044459
0.000468054
0.000452742
0.000408583
0.000520441
0.000507398
0.000578663
0.000553687
0.000526373
0.000507192
0.000584339
0.000553568
0.000698443
0.000681847
0.000658466
0.000632484
0.000704941
0.000681792
0.000663836
0.000632269
0.000963251
0.000852304
0.000822387
0.000701338
0.000281469
0.00177486
0.00210465
0.00197328
0.00175173
0.002292
0.00230556
0.0014242
0.00111647
0.00111637
0.000833751
0.000833242
0.00127304
0.00125477
0.00128974
0.00127622
0.00127552
0.00125497
0.00129176
0.00127618
0.00130889
0.00130913
0.00120329
0.00113564
0.00117692
0.00122783
0.00120629
0.00113582
0.00117681
0.00122716
0.00125512
0.00121877
0.00125388
0.00121007
0.00125661
0.00121866
0.001253
0.00120991
0.00117151
0.00121373
0.00112943
0.00125772
0.00117131
0.00121735
0.00112946
0.00125824
0.00103849
0.00116154
0.00118548
0.000941562
0.000594145
0.000594738
0.000426942
0.000425022
0.00031478
0.000310722
0.000215278
0.000421719
0.000456097
0.000226969
0.000211066
0.000411164
0.000451911
0.000223324
0.000390754
0.000361922
0.000377337
0.000408895
0.000390812
0.00035468
0.000375539
0.000403056
0.000418095
0.000467441
0.000436312
0.000448453
0.000417948
0.000469471
0.000436041
0.000446284
0.000516853
0.000493337
0.000522026
0.000493128
0.000906909
0.000828201
0.000876497
0.000341491
0.00112133
0.00196729
0.00183151
0.00158353
0.00220647
0.00120878
0.000332926
0.000333924
0.000700355
0.000700707
0.000761497
0.000760031
0.000507404
0.000507696
0.00119895
0.00114651
0.00122369
0.00119042
0.00120144
0.0011467
0.00122523
0.00119045
0.00115458
0.00110981
0.00110725
0.00117279
0.00115458
0.00110989
0.0011071
0.00117246
0.00118114
0.00108874
0.00111983
0.00120206
0.00118221
0.00108884
0.00111974
0.00120057
0.0012098
0.00113086
0.00122745
0.00114331
0.00121181
0.00113076
0.00122781
0.0011432
0.000966428
0.00110732
0.00123167
0.00120389
0.000956868
0.000955374
0.000754088
0.000752047
0.000591734
0.000590024
0.000486736
0.000471839
0.000474885
0.000535766
0.000473831
0.000468447
0.000466057
0.000531713
0.000485962
0.000438538
0.00050135
0.000407273
0.000274586
0.000427026
0.000475237
0.000436799
0.000492916
0.000406816
0.00026831
0.000426197
0.00031422
0.000350967
0.000306717
0.00034817
0.000384808
0.000443938
0.000368099
0.000450026
0.000384487
0.000436113
0.000367012
0.000443969
0.000850376
0.000855721
0.000344178
0.00139632
0.00186794
0.00170867
0.00146697
0.00174637
0.000916924
0.000483378
0.000485253
0.0008496
0.000848971
0.000476675
0.000926448
0.000602635
0.000454642
0.000563814
0.000928844
0.000928648
0.000479037
0.000928455
0.000601643
0.00046086
0.000562448
0.000517813
0.000554334
0.000411245
0.000449386
0.000521544
0.000554853
0.000420075
0.000449994
0.00117371
0.00109148
0.00118185
0.00110643
0.00117514
0.00109154
0.00118239
0.00110637
0.00102537
0.00105918
0.00102512
0.0010589
0.00111038
0.00120469
0.00111031
0.0012038
0.00118918
0.0011006
0.00119099
0.00110049
0.00088223
0.00102801
0.00117774
0.00129839
0.00127814
0.00127745
0.00117498
0.00117456
0.000929746
0.000926773
0.000809557
0.000806544
0.000607025
0.000661727
0.000658646
0.00067361
0.000524591
0.000616261
0.000607331
0.000659444
0.000657255
0.000675247
0.000524183
0.000613476
0.000611289
0.000502518
0.000605144
0.000501955
0.000618419
0.000507887
0.000631859
0.000492829
0.000518097
0.000382539
0.000611888
0.000507341
0.000626615
0.000483243
0.00051766
0.000381717
0.000483405
0.000372601
0.000475516
0.000371665
0.000845745
0.000341154
0.00134877
0.00180628
0.00163475
0.00131994
0.00126995
0.00106156
0.0010615
0.000874607
0.00087514
0.000758128
0.000757968
0.000965232
0.000965208
0.000765803
0.000421966
0.000522762
0.000817046
0.000400729
0.000473266
0.00076541
0.000425036
0.000816892
0.000522338
0.000406526
0.000472643
0.000591458
0.000607591
0.000446862
0.000483926
0.000591273
0.000608154
0.000449334
0.000483347
0.00113634
0.00106167
0.00113639
0.0010615
0.00084134
0.000923188
0.00109266
0.00125167
0.00136226
0.0012515
0.00125043
0.00112005
0.00111904
0.000990262
0.000940135
0.000945679
0.000885909
0.000983429
0.000937989
0.000939402
0.000884801
0.000894127
0.000773529
0.000849928
0.000917726
0.000862989
0.000726409
0.000889599
0.000773501
0.00084917
0.000909543
0.000861645
0.000725857
0.000702736
0.00058901
0.000739742
0.000674882
0.00070268
0.000588926
0.0007452
0.00067498
0.000684868
0.000591642
0.000681899
0.000591411
0.000697083
0.000586965
0.000622238
0.000504978
0.00069188
0.000586533
0.00061633
0.000504306
0.000335757
0.000936267
0.00182472
0.00146548
0.000924271
0.00061755
0.000741262
0.000741774
0.000616658
0.000617344
0.000736985
0.000754086
0.000717879
0.000753619
0.000736967
0.000751395
0.000717918
0.000753013
0.000762168
0.000762374
0.00066243
0.000622612
0.000534772
0.000537227
0.00065537
0.000622648
0.000530334
0.000535132
0.000327215
0.000841933
0.000971018
0.00115918
0.00132725
0.00146916
0.00146873
0.00145249
0.00145144
0.0012299
0.00122854
0.00110088
0.00109927
0.00108609
0.000975328
0.00102272
0.000941112
0.0010844
0.000974683
0.00102178
0.000940847
0.000865881
0.000967969
0.0008407
0.000935312
0.000993283
0.00093542
0.000864534
0.000962303
0.000934643
0.000840068
0.000987255
0.000934907
0.000685237
0.000726079
0.000685259
0.000731688
0.000911718
0.00156488
0.00109775
0.000724419
0.000543752
0.000544816
0.00064398
0.000644183
0.000530727
0.000529809
0.000457556
0.000459594
0.000692957
0.000668783
0.000666826
0.000665077
0.000692848
0.000668227
0.000667583
0.000663415
0.000576409
0.000654408
0.000667009
0.000687236
0.000573166
0.000653572
0.000670917
0.000687552
0.000651397
0.000623564
0.000646237
0.000623698
0.00032553
0.000847908
0.00102394
0.00122498
0.00140995
0.00146588
0.00146485
0.00142246
0.00142177
0.00126875
0.00126722
0.00110317
0.00115352
0.00105885
0.0011718
0.00110294
0.00115185
0.00105829
0.0011706
0.0011239
0.00103036
0.0011015
0.0010235
0.00112494
0.00102994
0.0011032
0.00102342
0.00124456
0.00133859
0.000960227
0.000999599
0.000644777
0.000645384
0.000775676
0.000774794
0.000497673
0.000575973
0.000472082
0.000382855
0.000473167
0.000376629
0.000493332
0.000574768
0.000475565
0.000381882
0.000472809
0.000380049
0.000464248
0.000468119
0.00065969
0.000653083
0.000648747
0.000675338
0.000660264
0.000655994
0.000649726
0.000680084
0.000624255
0.000647325
0.000627836
0.000648016
0.000328006
0.000863106
0.00107867
0.00128768
0.00149634
0.00149475
0.00152698
0.00152491
0.00142241
0.0014211
0.00138462
0.00138433
0.00135409
0.00126813
0.00134187
0.00125036
0.00126725
0.0011561
0.00134921
0.00126627
0.00134191
0.00124985
0.00126473
0.00115562
0.00121667
0.00112092
0.00121564
0.00112038
0.0011812
0.00110512
0.00118423
0.00110481
0.000936825
0.00118186
0.00150702
0.000973537
0.00097365
0.000975853
0.000976389
0.000671432
0.000673713
0.000784725
0.000785532
0.00045161
0.000533301
0.000437872
0.000342216
0.000437881
0.000342527
0.000447117
0.00053236
0.000444392
0.000344545
0.000439227
0.00035063
0.000470388
0.000521441
0.000414671
0.000473416
0.000479936
0.000526975
0.000427804
0.000478495
0.000348205
0.000892599
0.00112711
0.00134329
0.00147101
0.00146835
0.00150191
0.00149894
0.00145902
0.00145627
0.00142888
0.0013275
0.00134649
0.00146735
0.00135911
0.00143732
0.00134658
0.00146881
0.00135877
0.00143955
0.00142848
0.00132694
0.00140585
0.00131391
0.00134422
0.00122531
0.0014088
0.00131303
0.00134391
0.00122486
0.00128022
0.00119358
0.00127777
0.00119306
0.00114811
0.00182395
0.00204622
0.000863137
0.000864278
0.000900612
0.00090129
0.000489845
0.00054501
0.000659394
0.000578803
0.000633256
0.000577852
0.000499303
0.0005503
0.000660849
0.000580972
0.000634185
0.000581839
0.000743146
0.000744145
0.000432597
0.000348591
0.00043843
0.000362595
0.000422792
0.000482688
0.000436902
0.000487479
0.000379417
0.000928323
0.00115795
0.0013876
0.00138557
0.00140359
0.00140106
0.00135722
0.00135403
0.00143496
0.00143028
0.00152116
0.00138659
0.00155595
0.00141309
0.00152131
0.00139125
0.00151083
0.00152072
0.00139078
0.00138437
0.00154968
0.00141234
0.00147412
0.00138767
0.00150735
0.00140152
0.00151043
0.00147534
0.00140127
0.00138729
0.00115071
0.00232991
0.00175355
0.000901485
0.000901499
0.00104612
0.00104608
0.000480205
0.000536296
0.000623544
0.00050647
0.000575176
0.000503859
0.000487828
0.000539005
0.000624704
0.00050806
0.000575452
0.000508555
0.000607105
0.000718399
0.000591206
0.000671075
0.000610851
0.000720234
0.000594345
0.00067345
0.00043856
0.000498688
0.000450637
0.000501951
0.000433235
0.000946148
0.00115579
0.00134903
0.001346
0.00132518
0.00132193
0.00129582
0.00129256
0.00157034
0.00140247
0.00128575
0.00151128
0.00134853
0.00138701
0.0015629
0.00140144
0.00128508
0.00150664
0.00134792
0.00138306
0.00159155
0.00156321
0.00145046
0.00144837
0.00156027
0.00144773
0.00158383
0.00144997
0.0026057
0.00204355
0.00170963
0.00148635
0.00148638
0.00170953
0.00199844
0.00199781
0.00117198
0.000552411
0.000683952
0.00117232
0.00055427
0.000684747
0.000460892
0.000522065
0.000551708
0.000450895
0.000533998
0.000432433
0.000465053
0.000523614
0.000553152
0.000453239
0.00053467
0.000436207
0.000539375
0.000628616
0.000542079
0.000629962
0.000513217
0.000934211
0.00107123
0.00125722
0.00125266
0.00125879
0.00125359
0.00127219
0.00119376
0.00133438
0.00120641
0.00139197
0.00126171
0.00126456
0.00138617
0.00126055
0.00119071
0.00133256
0.00120554
0.00156766
0.00140755
0.00146989
0.00133228
0.00156264
0.00140686
0.00146677
0.00133165
0.00160841
0.00146723
0.00160172
0.0014668
0.00233292
0.00214359
0.00143143
0.00175876
0.00143269
0.00175807
0.00203114
0.00202968
0.00119427
0.00105206
0.00105875
0.000766972
0.000825262
0.00118859
0.00123419
0.00123224
0.00105207
0.00119383
0.00105852
0.000769329
0.000825577
0.00118849
0.0012402
0.00123217
0.0005363
0.000416362
0.00053711
0.000418452
0.000792179
0.000792846
0.000794061
0.000793072
0.00060985
0.000876798
0.000982183
0.00122278
0.00121644
0.000978788
0.00107959
0.00107468
0.00126492
0.00129598
0.0011923
0.0012576
0.00129213
0.00119072
0.00135722
0.00132031
0.00125125
0.00121028
0.00135498
0.00125048
0.00132392
0.00120981
0.0015523
0.00140768
0.0014134
0.00133513
0.00155103
0.00140729
0.00141069
0.00133476
0.0023668
0.001661
0.00140076
0.00124867
0.00126609
0.00145917
0.00140119
0.00124898
0.00127337
0.00145956
0.00154807
0.00154929
0.00114009
0.00120991
0.000974912
0.00101408
0.00115083
0.00121172
0.00113913
0.000975084
0.00121546
0.00101383
0.00115054
0.00121206
0.000717824
0.000673794
0.000717528
0.000673549
0.000734705
0.000802227
0.000942944
0.00109467
0.00108721
0.000937868
0.000982696
0.000976816
0.00133654
0.00134772
0.00124101
0.0013199
0.00121396
0.00121072
0.00120299
0.00116145
0.0013204
0.00133998
0.00123946
0.00131458
0.00121225
0.00120936
0.00118771
0.00115783
0.00134559
0.00133844
0.00126843
0.00123951
0.0013511
0.00126818
0.00134265
0.00123896
0.0019271
0.000918155
0.0010544
0.00105557
0.000922494
0.0011333
0.00113548
0.00139254
0.00124935
0.00124039
0.00123738
0.00126033
0.00127258
0.00129478
0.00121468
0.000910647
0.00110366
0.00106027
0.00139831
0.00124933
0.00124144
0.00123738
0.00125946
0.00127256
0.00129657
0.00121489
0.000910992
0.00110962
0.00106062
0.00117026
0.0012224
0.00118841
0.00122734
0.00116998
0.00122328
0.0011884
0.00122736
0.000900639
0.000674143
0.000819532
0.00102029
0.00112542
0.00119146
0.00101507
0.00112434
0.00118309
0.000811599
0.000866158
0.000854987
0.00135372
0.00130215
0.00136919
0.00126718
0.00128717
0.00119922
0.0013405
0.00128617
0.001369
0.00128644
0.00126618
0.00119834
0.00134986
0.00128014
0.00135984
0.00128003
0.000917146
0.00102736
0.000844878
0.0010305
0.000849664
0.00103548
0.00103733
0.00122889
0.00125053
0.00119739
0.00123194
0.00117925
0.00109778
0.000682131
0.000798353
0.000755629
0.000876018
0.000846594
0.000685605
0.000784166
0.000818463
0.00122975
0.00125171
0.0012319
0.00119748
0.00118043
0.00109795
0.000802552
0.000685693
0.000756122
0.000880906
0.000846916
0.00068571
0.000783519
0.000816776
0.00101271
0.000470803
0.000765599
0.00075832
0.000476987
0.00063331
0.000628634
0.000888605
0.00109642
0.00106829
0.00104365
0.00114375
0.000981283
0.00100161
0.000952088
0.000873374
0.00109492
0.00106533
0.00104245
0.00113655
0.000974599
0.00099343
0.000951486
0.000828012
0.000901386
0.000912851
0.00081802
0.00088463
0.000907212
0.00135703
0.00125202
0.00128313
0.00118091
0.00133876
0.00123851
0.00128226
0.0011802
0.000328731
0.000744564