/*--------------------------------*- C++ -*----------------------------------*\
| =========                 |                                                 |
| \\      /  F ield         | OpenFOAM: The Open Source CFD Toolbox           |
|  \\    /   O peration     | Version:  5.x                                   |
|   \\  /    A nd           | Web:      www.OpenFOAM.org                      |
|    \\/     M anipulation  |                                                 |
\*---------------------------------------------------------------------------*/
FoamFile
{
    version     2.0;
    format      ascii;
    class       volScalarField;
    location    "2";
    object      omega;
}
// * * * * * * * * * * * * * * * * * * * * * * * * * * * * * * * * * * * * * //

dimensions      [0 0 -1 0 0 0 0];

internalField   nonuniform List<scalar> 
12160
(
0.0719999
0.0719999
0.00195648
0.0719999
0.00412855
0.00116095
0.0719999
0.00724994
0.00148504
0.00112286
0.0719999
0.0104624
0.00200553
0.00131987
0.00111663
0.0719999
0.0119449
0.00260983
0.00150648
0.00133614
0.00125992
0.0719999
0.0119982
0.00291419
0.00168507
0.00148074
0.00156708
0.00130701
0.0719999
0.0115172
0.00290053
0.00176843
0.00158371
0.00164507
0.00197856
0.00260686
0.0719999
0.0112177
0.0027712
0.00176458
0.00163139
0.00166829
0.00213658
0.00436993
0.0126913
0.0719999
0.0110695
0.00269542
0.00174127
0.00163216
0.00168316
0.002099
0.00407234
0.0123848
0.0122639
0.0719999
0.0110218
0.0026656
0.00173426
0.00164297
0.00169241
0.00199376
0.00315388
0.0119004
0.0117859
0.0223104
0.0719999
0.0109768
0.00265697
0.00173884
0.00165871
0.00172605
0.00191052
0.00276805
0.0104656
0.0129646
0.0239221
0.0241698
0.0719999
0.0109103
0.00264309
0.00174108
0.00167254
0.00176331
0.00192326
0.00285947
0.0092684
0.0131429
0.0298888
0.0223499
0.0160743
0.0719999
0.0108821
0.00261803
0.00173405
0.00167668
0.00179099
0.00199189
0.00329597
0.00798418
0.0132774
0.0213283
0.0147209
0.00722215
0.0133619
0.0719999
0.0110529
0.00259699
0.00171697
0.0016679
0.00180072
0.00204769
0.00376726
0.00695353
0.0131635
0.0194561
0.00785776
0.00789763
0.00634004
0.00998941
0.0719999
0.0115298
0.00262264
0.00169715
0.00164613
0.00178991
0.00207432
0.00410567
0.00659944
0.0123669
0.0185024
0.0118647
0.00415517
0.00382797
0.00194709
0.0719999
0.0122961
0.00273384
0.00169298
0.00161668
0.00176131
0.00206424
0.00429373
0.00686615
0.0110522
0.0189387
0.0125059
0.00343144
0.00315949
0.00304534
0.0719999
0.013221
0.0029341
0.00171972
0.00159185
0.00172254
0.00201406
0.00435812
0.00721731
0.00969439
0.0196021
0.0136929
0.00341924
0.00231944
0.00185944
0.0719999
0.0142274
0.00319777
0.00177499
0.0015897
0.00168699
0.00192814
0.00433717
0.00743121
0.00907242
0.01901
0.0147413
0.00375217
0.00213788
0.00152211
0.0719999
0.0152611
0.00350554
0.00185508
0.00161178
0.00167428
0.00182413
0.00424583
0.00754659
0.00878215
0.0173232
0.01751
0.00444853
0.00217977
0.00144931
0.0719999
0.016234
0.00383968
0.00195557
0.00165311
0.00168496
0.0017396
0.0040931
0.00761116
0.0086536
0.0161139
0.0213143
0.00559767
0.00226335
0.00149786
0.0719999
0.017065
0.00416985
0.00206851
0.00170641
0.00171085
0.00171412
0.00389456
0.00763435
0.00847801
0.0152487
0.0224262
0.00722221
0.00246929
0.00158156
0.0719999
0.0176885
0.00446346
0.00218273
0.00176608
0.0017504
0.00172652
0.00372447
0.0075845
0.0081772
0.0144592
0.0226765
0.0100223
0.00265521
0.00172847
0.0719999
0.018059
0.00469073
0.00228616
0.00182506
0.00179684
0.00176294
0.00356262
0.00734583
0.00779742
0.0135381
0.0227915
0.0122307
0.00313049
0.00178009
0.0719999
0.0181535
0.00482898
0.00236749
0.00187662
0.00184258
0.00181067
0.00337627
0.00691425
0.00741159
0.0122463
0.0229702
0.0136345
0.00356457
0.00179507
0.0719999
0.0179721
0.00486616
0.00241796
0.00191561
0.0018819
0.00185907
0.00316684
0.00636533
0.00713677
0.0105699
0.0232618
0.0146609
0.00387534
0.00187577
0.0719999
0.0175256
0.00480244
0.00243325
0.00193876
0.00191193
0.00190083
0.00294552
0.00575925
0.00688937
0.00908988
0.0233666
0.0153672
0.00406586
0.00195457
0.0719999
0.0168541
0.00464337
0.00241353
0.00194633
0.00193287
0.00193066
0.0027154
0.0051306
0.00653892
0.00812702
0.0218248
0.0160061
0.00415651
0.00203493
0.0719999
0.016016
0.00440787
0.00236141
0.00194106
0.00194429
0.00194738
0.00247038
0.00447802
0.00606245
0.0073914
0.0182431
0.0167235
0.00434795
0.00210302
0.0719999
0.0150679
0.00412059
0.00228462
0.00192356
0.00194427
0.00195337
0.0022083
0.00380675
0.00548942
0.00672657
0.0142852
0.0164335
0.0050589
0.00224706
0.0719999
0.0140714
0.0038086
0.00219332
0.00189593
0.00193467
0.00195357
0.00198468
0.00317034
0.00485841
0.00607685
0.0109697
0.0148499
0.00660143
0.00248198
0.0719999
0.0131047
0.00349961
0.00209774
0.001862
0.00192016
0.0019486
0.00196439
0.00271715
0.00428058
0.00543542
0.00840656
0.0124262
0.0075237
0.0029338
0.0719999
0.012259
0.00321922
0.00200774
0.00182745
0.00190555
0.00194278
0.00219145
0.00281619
0.00388887
0.00488003
0.00650806
0.00969922
0.00733896
0.00333857
0.0719999
0.0116048
0.0029905
0.00193235
0.00179833
0.00189212
0.00193494
0.0024651
0.0033627
0.00398012
0.00445277
0.00516931
0.00708145
0.00619191
0.00346871
0.0719999
0.0111617
0.00282673
0.00187817
0.00177904
0.00188213
0.00193631
0.00274963
0.00402878
0.00450105
0.00451037
0.00430358
0.00494906
0.0046469
0.00324275
0.0719999
0.0109025
0.00272577
0.00184796
0.00177242
0.00187898
0.00195825
0.0030464
0.00471079
0.00512945
0.00494832
0.00459006
0.00365473
0.00330739
0.00272421
0.0719999
0.0107897
0.00267601
0.00184063
0.00178012
0.00188669
0.00201168
0.00336399
0.0053621
0.00573598
0.00547618
0.0056109
0.00421761
0.00245405
0.00213601
0.0719999
0.010788
0.00266539
0.00185242
0.00180197
0.00190931
0.00210453
0.00370431
0.00596948
0.00627306
0.00601711
0.0070177
0.00606036
0.00273511
0.00170825
0.0719999
0.0108631
0.00268465
0.00187928
0.00183684
0.00195033
0.00224066
0.00405963
0.00651046
0.00673734
0.00662858
0.00895844
0.0082855
0.00378599
0.00184238
0.0719999
0.0109689
0.0027261
0.00191825
0.00188306
0.00201006
0.00241924
0.00442569
0.00695454
0.00718778
0.00753865
0.0114693
0.0108577
0.00491168
0.00235125
0.0111096
0.0719999
0.00278002
0.0019672
0.00193919
0.00208665
0.00262952
0.00479753
0.00729381
0.00775609
0.00902731
0.0144484
0.0131819
0.00585629
0.00280122
0.00284564
0.0112608
0.0719999
0.00202418
0.00200497
0.00217699
0.00285528
0.00515662
0.00757424
0.00846337
0.0109582
0.017286
0.0145773
0.00612983
0.00306489
0.0020889
0.00291696
0.0120837
0.0719999
0.00208029
0.00227879
0.0030822
0.00548226
0.00787041
0.0092379
0.0127141
0.0190543
0.0147055
0.00561545
0.00312308
0.00216214
0.00214682
0.00322189
0.0135433
0.0719999
0.00239139
0.00330406
0.0057623
0.00819506
0.0100153
0.0141453
0.0196821
0.0140837
0.00484713
0.00306432
0.00249961
0.00222309
0.00233995
0.00378403
0.0180137
0.0719999
0.00351761
0.0059938
0.00854531
0.0107623
0.0153613
0.0197025
0.0133438
0.00430861
0.00287944
0.00370014
0.00255931
0.00238295
0.0026188
0.00532613
0.0287636
0.0719999
0.00617214
0.00888505
0.0114375
0.0164331
0.0193693
0.0125686
0.00388828
0.00258028
0.006305
0.0037913
0.00271674
0.00250526
0.00335156
0.00987883
0.0535729
0.0719999
0.00915877
0.0119837
0.0174147
0.0187752
0.0117805
0.00352304
0.00227851
0.00937329
0.00625081
0.00391909
0.00277355
0.00277884
0.00590422
0.0178648
0.0693318
0.0719999
0.0123321
0.0182213
0.018085
0.0109961
0.00321694
0.00204793
0.0126912
0.00970204
0.00606351
0.00389268
0.00290298
0.00397752
0.010095
0.0271707
0.0721113
0.0719999
0.0189257
0.0175038
0.0101497
0.00294707
0.00187983
0.0193403
0.0132587
0.0099254
0.00574436
0.00377945
0.00353833
0.00759109
0.01725
0.0336334
0.0847136
0.0719999
0.017018
0.00923342
0.00271775
0.00175564
0.0160012
0.0200877
0.0132543
0.00968259
0.00541199
0.00392908
0.00661184
0.0153684
0.0286849
0.0495338
0.138816
5.06586
0.00825539
0.00253543
0.00166535
0.0068934
0.0142231
0.0215459
0.0126476
0.00934189
0.00513774
0.00579112
0.0153101
0.0316356
0.0518005
0.0835458
3.88999
4.86728
3.51107
0.00244946
0.00160256
0.00232961
0.00537777
0.0134647
0.021743
0.0119831
0.00889788
0.00581647
0.0127899
0.0360389
0.06011
0.0744019
2.21067
4.38589
6.24367
5.30525
4.1718
0.00157512
0.00155177
0.00218398
0.00582413
0.0130813
0.0216458
0.0113381
0.00888335
0.00900168
0.0320932
0.0693269
0.089632
1.02624
3.45473
5.02851
9.48662
7.84763
6.45957
4.79568
0.00151016
0.00251906
0.00603968
0.0132704
0.0391082
0.0278238
0.0122187
0.0288744
0.0720196
0.113693
0.472805
2.34414
3.98717
7.14191
13.9361
12.3069
9.65489
7.63471
5.39187
0.00167058
0.00287253
0.00661991
0.0350042
0.384947
0.301274
0.113533
0.16696
0.145445
0.243748
1.43365
3.04749
5.40472
10.2318
18.9973
17.8804
15.037
11.3697
8.78117
5.98502
0.0018655
0.00337866
0.0223431
0.423389
3.07912
1.68838
1.29035
0.820252
0.201587
0.812722
2.16054
4.12156
7.51545
13.8686
47.027
23.6854
21.2132
17.4485
12.8243
9.79572
6.59149
0.00211386
0.00985753
0.309156
3.37411
10.9615
5.92114
5.68293
1.88169
0.431413
1.50803
2.98697
5.70971
9.68587
29.2982
344.025
44.8668
344.167
328.593
328.694
27.662
24.1232
19.5221
14.1197
10.7831
7.19124
0.00342063
0.159468
2.52523
11.8311
20.3405
21.0973
13.0922
1.8184
0.941731
2.03547
4.09337
6.97352
16.8663
124.288
342.885
440.907
34.6091
343.013
277.293
277.424
441.065
427.26
427.416
31.3042
26.9382
21.4909
15.4558
11.8128
7.84342
0.0449077
1.54718
9.48972
20.0749
25.9938
30.1677
13.2852
1.77775
1.27732
2.64851
4.93824
9.97691
58.8076
361.139
361.12
357.499
357.532
431.424
480.742
39.8666
67.5808
431.608
345.119
345.327
480.696
465.303
465.241
35.35
29.9203
23.4722
16.6111
12.9764
8.53402
0.611367
6.54106
17.8173
22.4429
27.1247
30.596
13.4354
2.15752
1.44189
3.16863
6.44642
43.1216
342.978
342.989
342.922
343.037
468.475
468.598
474.91
474.879
478.39
463.77
743.716
459.255
756.431
46.4089
62.1802
350.464
350.459
361.017
361.043
478.351
452.075
452.084
463.413
745.803
459.819
755.623
455.726
714.026
445.529
744.539
455.024
715.566
445.824
742.738
39.7189
32.7269
25.015
17.5902
14.4097
9.25341
3.4961
14.0252
20.3553
21.1301
25.4777
30.2976
14.0184
4.07389
1.72915
3.98954
39.0957
331.615
331.698
329.954
330.148
483.3
483.201
488.201
488.043
741.509
796.679
458.599
751.433
464.83
460.481
798.964
742.71
458.974
751.783
464.95
461.406
797.255
486.019
780.39
479.262
797.708
486.162
780.57
479.288
467.564
755.873
463.961
766.64
475.075
825.788
472.477
828.263
53.2929
70.762
327.323
327.384
338.556
338.52
448.606
448.528
466.544
466.592
467.081
757.134
464.197
765.382
457.772
719.775
451.203
752.115
457.992
723.151
452.139
752.731
474.704
828.823
473.704
827.625
472.428
825.394
471.683
824.089
43.9118
34.9426
25.9608
18.6651
16.104
9.92599
9.29662
17.8544
18.5458
19.2701
24.2992
29.4045
17.5513
5.73316
2.03944
33.6002
321.481
321.602
321.456
321.599
475.898
475.738
470.861
470.728
807.407
492.627
813.739
495.259
808.147
492.888
816.205
496.057
811.27
495.473
818.494
498.051
813.416
496.146
820.707
498.755
825.421
789.351
465.737
469.339
825.742
478.713
828.596
790.441
470.734
466.108
825.994
478.832
880.356
506.582
865.92
498.435
881.209
506.897
866.053
498.488
480.671
825.29
473.863
838.065
485.546
835.206
475.597
861.475
60.2563
84.0314
304.159
304.273
313.091
313.131
377.081
376.97
406.558
406.453
717.092
440.212
729.01
447.524
717.852
440.432
729.833
447.754
751.081
800.192
461.846
749.724
461.611
468.421
752.538
803.845
462.298
750.494
461.849
469.942
480.189
827.149
474.56
837.236
483.579
848.9
483.89
849.391
484.898
837.657
476.807
859.868
482.205
852.999
481.224
850.756
47.0906
36.3006
26.4288
19.9068
17.9196
10.3944
14.2059
17.6131
16.1362
17.9664
23.1282
28.6121
20.3326
8.23751
6.92046
284.366
284.486
265.229
265.35
444.288
444.212
439.464
439.549
798.88
487.19
799.133
486.937
800.65
487.796
801.553
487.656
778.965
480.565
794.978
483.721
781.355
481.282
797.05
484.404
898.45
515.328
909.76
520.363
899.891
515.934
912.498
521.587
921.588
525.466
919.314
525.101
924.793
526.868
921.424
526.177
489.451
842.853
478.678
865.903
64.0104
98.4677
331.27
331.44
309.885
309.984
282.582
282.447
313.946
313.831
538.812
338.283
599.647
365.677
541.448
338.871
602.514
366.544
662.026
404.367
643.428
394.751
663.37
404.828
646.444
395.654
782.753
451.513
797.817
460.783
784.046
451.954
798.675
461.137
840.554
792.843
466.694
479.685
808.647
470.15
844.971
794.283
467.216
481.746
809.478
470.494
488.701
844.596
479.481
864.038
489.405
859.466
489.809
860.331
49.2444
36.4224
26.5834
21.5143
19.4104
10.5476
15.6636
14.2515
14.1222
17.0208
21.5256
27.1063
22.3479
11.4117
48.974
402.049
402.146
381.913
382.12
505.641
505.615
494.219
494.222
908.088
518.014
905.399
516.944
910.776
519.274
908.057
518.155
873.687
505.992
904.795
515.628
876.553
507.21
907.312
516.828
936.459
531.054
940.067
532.617
67.5579
89.6731
284.904
285.083
322.316
322.363
261.336
261.261
252.105
251.962
351.624
229.673
387.091
246.975
355.434
230.253
392.008
248.002
455.479
286.771
439.565
277.594
458.646
287.527
443.444
278.488
603.979
345.155
643.344
371.194
607.632
346.547
646.1
372.483
723.928
416.291
713.438
407.353
726.014
417.124
716.704
408.77
49.488
35.5805
27.2329
22.9624
19.9005
10.1971
9.45649
10.6082
12.3887
15.3319
20.484
25.4504
23.5245
16.2537
287.963
288.086
255.831
255.916
450.703
450.507
421.072
421.307
489.048
799.339
491.538
795.509
488.879
799.044
491.504
795.107
480.975
766.009
472.343
783.803
480.906
767.858
472.863
783.606
933.41
528.863
941.016
531.395
936.333
530.311
943.293
532.646
919.323
521.446
937.879
530.091
922.073
522.739
940.011
531.312
68.4877
94.6554
136.72
240.782
240.898
255.2
255.275
167.761
167.457
184.925
184.912
351.46
211.805
409.924
237.041
355.468
213.045
414.745
239.046
503.511
288.39
472.949
271.786
507.016
289.876
476.845
273.401
595.537
340.286
599.284
341.817
47.7062
34.706
28.0943
23.1425
19.0396
10.4795
5.1718
8.07676
10.7119
13.6398
20.252
25.7474
28.114
48.5344
401.672
401.485
346.316
346.21
727.053
444.863
441.708
706.289
728.507
445.255
441.4
705.684
463.603
463.524
506.959
873.101
503.356
887.266
506.635
873.357
503.394
886.301
502.981
857.26
488.892
884.663
502.979
859.521
489.867
884.512
920.239
521.236
923.004
522.359
64.122
99.0886
135.09
284.147
284.154
242.405
242.351
186.552
186.036
149.386
148.812
156.22
205.238
151.614
233.699
156.412
203.676
150.23
231.739
174.15
309.838
186.193
275.805
174.023
310.764
186.539
274.493
384.658
218.664
427.02
242.017
388.022
220.247
430.127
243.775
508.087
289.181
481.767
272.608
511.735
290.905
484.998
274.265
44.7557
34.427
27.509
21.8694
15.4758
3.19144
6.30579
9.43408
12.6674
21.0618
28.5228
42.5175
210.281
210.262
139.843
139.88
693.794
418.446
651.669
405.177
694.666
418.738
653.297
405.528
395.772
395.716
823.694
468.995
459.684
786.713
825.15
469.632
459.585
786.845
732.193
446.722
745.629
454.071
733.705
447.097
745.644
454.034
505.526
877.889
495.714
895.351
505.852
880.347
496.765
896.404
57.9355
87.8818
152.474
203.768
261.357
261.225
213.193
211.851
169.274
168.187
184.7
145.391
161.606
195.29
182.119
142.233
160.058
192.839
165.293
265.008
152.039
293.112
164.557
261.533
150.059
290.954
179.183
331.116
188.491
317.472
178.866
332.259
188.965
316.639
384.813
218.392
388.31
220.009
42.3905
32.7452
24.7985
18.3653
2.21692
5.81987
8.38304
12.4038
23.726
31.6682
99.252
99.2088
107.705
107.661
232.265
232.007
141.69
141.622
786.657
446.718
724.256
423.641
787.669
447.227
725.127
423.999
391.317
569.211
352.443
647.668
391.278
569.92
352.448
647.678
858.386
483.75
476.508
840.527
858.798
484.092
476.214
839.84
824.611
467.635
829.925
472.154
826.164
468.272
830.23
472.297
52.5179
75.7728
125.723
255.565
424.806
424.655
348.494
348.216
311.907
311.459
356.179
210.117
350.095
223.827
347.673
205.141
344.319
220.162
354.423
204.986
361.28
201.318
211.352
147.24
348.374
201.132
356.173
198.06
207.8
145.776
230.484
135.103
226.374
132.711
171.463
312.315
166.97
317.988
170.409
308.71
164.643
315.783
38.9113
28.2419
20.4046
2.12951
5.07212
7.79764
13.9893
21.8347
35.4457
136.045
135.953
163.004
162.872
297.61
570.252
197.514
272.796
180.63
331.712
572.598
299.267
332.308
197.962
275.359
181.066
273.261
171.748
240.195
147.433
274.042
172.022
242.986
148.341
819.698
460.329
781.637
440.407
820.459
460.777
782.077
440.643
387.107
678.981
387.204
679.337
480.97
853.618
480.786
853.261
837.311
471.33
838.974
471.985
46.3947
65.8005
101.663
190.876
524.409
524.511
500.291
500.258
467.108
466.209
423.242
422.638
284.796
483.558
293.199
498.279
254.343
445.926
285.802
484.223
292.964
500.157
253.38
444.655
449.921
251.549
446.411
249.524
458.214
256.701
468.631
352.713
262.637
190.964
454.652
254.497
465.418
346.771
260.605
187.272
335.52
177.529
330.762
174.447
32.2719
21.9413
1.90127
4.18873
8.86903
17.2565
21.7513
209.711
209.668
151.973
152.087
242.931
242.771
262.709
262.738
499.067
295.396
182.535
294.692
287.125
171.671
500.217
297.099
295.272
183.318
289.81
172.397
346.372
206.942
306.445
177.212
346.502
206.807
307.497
177.324
767.376
430.867
767.792
431.076
36.9978
55.9083
84.0984
142.228
317.518
539.5
539.541
517.958
517.589
737.273
439.987
713.815
415.758
735.544
438.51
711.304
414.285
656.24
564.542
378.04
683.152
395.758
326.691
654.616
565.641
377.006
680.081
393.815
327.055
312.731
283.303
548.862
505.123
314.164
283.528
552.191
505.713
512.81
286.85
511.411
286.048
519.484
289.666
458.746
256.237
517.141
288.154
455.18
254.21
23.2023
1.43594
4.66358
10.6374
19.0557
36.5664
219.856
219.874
154.939
154.952
249.531
420.146
252.663
397.105
249.485
418.975
252.271
396.92
260.649
260.651
428.851
240.836
367.857
209.473
425.752
239.439
365.952
207.827
24.3393
42.891
68.319
110.563
211.651
607.805
608.013
624.844
624.758
574.431
574.474
586.048
585.563
819.685
469.677
783.288
445.193
820.201
469.818
783.29
445.056
628.046
703.304
359.586
403.382
739.375
420.967
628.399
700.83
402.141
359.544
736.349
419.503
306.061
540.043
307.305
543.109
1.61018
5.46023
12.1668
29.0978
125.581
125.202
120.19
120.105
191.406
191.196
147.489
147.303
253.705
445.101
257.948
422.68
254.136
444.935
258.177
423.72
350.487
232.826
408.917
252.209
350.354
232.564
411.084
253.159
443.922
251.148
441.232
250.132
25.4328
50.3159
84.8403
151.386
346.055
635.267
635.362
660.564
660.271
665.44
665.072
517.812
878.301
506.036
874.239
517.446
877.765
505.902
873.643
863.069
489.934
835.099
473.251
865.24
490.854
836.53
473.89
2.11699
7.05113
21.8283
58.1075
191.796
191.442
176.575
176.096
359.475
223.551
170.541
250.565
174.752
239.219
357.764
223.046
172.037
250.524
174.866
240.786
168.248
168.223
264.204
454.769
261.167
465.338
265.328
455.797
261.716
468.104
425.463
252.007
427.473
253.187
26.555
59.805
107.496
218.66
623.52
623.629
665.094
665.01
664.027
664.408
722.853
722.801
985.78
579.576
990.179
569.241
946.202
543.783
987.152
579.424
991.921
569.861
945.251
543.472
927.142
526.55
927.712
526.774
895.408
508.884
898.681
510.161
2.88017
15.7183
53.2118
217.867
217.454
207.717
207.628
235.359
235.304
243.101
242.739
343.152
212.249
166.028
258.435
171.408
247.046
341.008
211.75
168.649
259.615
172.163
249.872
271.928
187.856
260.445
175.527
274.901
189.275
265.227
177.688
27.737
71.6953
139.342
339.346
643.847
643.713
707.827
707.123
767.468
766.834
1035.91
595.892
623.32
1080.76
621.144
1058.97
624.082
1082.42
622.062
1060.94
1037.47
596.601
1003.14
973.72
576.804
554.132
1005.52
974.653
577.657
554.31
950.325
539.261
950.409
539.193
5.97146
55.601
120.458
286.821
286.591
278.64
278.535
317.944
205.931
241.831
350.095
234.637
350.216
320.864
207.649
242.759
350.433
235.193
351.04
276.401
276.262
169.706
262.385
172.691
268.069
302.369
191.148
308.32
193.595
29.0527
86.6702
183.661
571.357
571.385
610.612
610.499
644.927
644.72
764.912
763.43
1118.9
654.521
1153.84
660.267
1122.86
643.837
1115.93
1123.38
644.102
652.01
1151.41
658.836
1054.67
603.6
1112.02
632.209
1114.48
1056.78
633.509
604.512
17.7295
141.188
371.623
367.04
367.148
392.072
392.061
352.236
218.198
251.02
381.934
239.859
384.46
355.342
219.418
252.306
382.848
240.605
386.486
399.959
284.855
392.506
265.553
401.9
285.714
393.517
266.497
330.505
205.38
335.97
207.391
30.5423
104.141
241.946
573.814
573.627
616.421
615.761
693.353
692.618
1169.23
667.438
606.148
1129.87
645.386
1026.21
1166.32
665.492
604.675
1127.37
644.159
1023.66
1181.21
1139.51
668.075
648.151
1139.53
647.984
1177.05
665.993
97.5564
290.029
743.867
631.669
631.652
743.954
806.142
806.183
567.24
460.145
306.252
567.288
461.175
306.576
361.541
223.756
237.671
372.983
236.302
368.458
363.644
224.71
239.05
374.436
237.231
370.763
438.64
276.947
440.061
277.713
31.9206
123.26
280.576
557.805
557.418
634.178
633.035
929.058
553.711
997.659
573.138
1042.72
599.273
927.852
1039.85
598.013
552.261
998.859
573.72
1174.43
662.823
1103.97
624.255
1173.23
661.74
1103.62
623.933
1179.77
665.717
1176.54
663.949
226.357
413.606
712.344
760.592
712.91
760.315
801.137
800.738
936.605
811.371
475.397
623.799
385.719
544.744
981.149
576.521
811.812
936.54
475.638
625.254
386.241
544.948
985.722
578.035
239.555
370.859
240.352
372.449
608.775
357.464
609.919
358.097
33.0067
141.455
408.094
563.893
562.862
408.022
477.964
477.571
662.373
957.875
557.421
660.681
958.244
557.209
1027.21
998.789
582.971
567.505
1027.83
583.304
1002.33
569.289
1144.99
645.364
1038.99
592.145
1145.9
645.142
1038.99
592.143
261.547
256.428
711.024
580.835
999.726
661.776
711.075
582.296
1003.71
662.21
613.123
613.339
861.247
936.288
722.217
426.715
500.654
542.66
861.147
722.734
939.205
426.901
500.686
543.83
307.601
508.969
307.758
509.236
33.5772
168.886
402.635
550.148
548.325
402.203
457.556
456.527
954.671
962.416
554.48
962.101
557.834
547.859
855.16
516.074
946.551
960.575
553.152
961.705
557.205
543.678
847.757
511.027
1008.59
990.918
573.42
562.944
1012.3
575.338
994.874
564.864
92.2137
277.363
407.081
407.055
277.084
214.715
214.625
1056.04
570.837
947.479
553.055
981.459
617.999
983.835
569.599
450.266
861.884
511.579
1059.91
570.799
948.203
553.182
981.044
617.9
984.625
569.191
450.755
865.354
511.833
856.183
918.419
500.145
533.413
856.3
918.93
500.272
533.571
33.5614
174.104
368.097
538.651
503.197
856.821
537.519
500.128
852.064
366.982
443.212
439.986
956.987
938.159
965.79
546.489
552.74
532.966
952.54
930.304
967.787
553.561
544.375
529.177
994.377
565.869
1000.4
568.76
30.9143
367.792
229.184
367.859
229.065
169.978
169.922
891.85
915.921
527.887
519.817
880.205
503.589
565.531
633.155
374.522
698.268
416.483
348.038
607.254
382.571
892.562
916.434
520.04
527.604
880.529
503.093
635.157
567.312
374.833
701.004
416.49
348.156
608.701
382.432
31.9568
193.956
358.579
357.353
195.467
280.345
280.323
639.424
480.327
766.507
451.35
816.323
410.256
726.406
425.628
632.051
477.911
766.155
450.803
812.378
404.834
723.741
424.439
445.083
657.609
399.833
442.475
649.413
394.237
937.42
885.92
536.974
506.203
930.836
879.56
534.292
503.51
17.0695
259.015
332.396
543.48
173.144
258.926
332.648
543.005
172.903
131.016
130.949
841.623
487.868
661.014
388.113
562.03
522.389
606.273
356.003
330.584
306.645
841.686
487.429
661.256
387.798
564.119
607.208
523.408
356.031
330.764
307.001
30.4962
212.598
321.874
320.013
213.182
264.674
264.485
812.925
748.298
471.383
432.271
710.724
409.752
812.202
748.677
470.845
432.333
708.014
408.289
569.863
629.139
372.216
654.431
392.133
342.856
481.489
347.536
562.774
625.461
370.056
647.048
387.291
338.978
472.475
341.425
28.4301
104.318
104.32
197.558
293.315
401.694
263.337
465.546
134.485
197.468
292.99
402.36
262.67
464.898
134.307
557.476
512.797
464.116
329.151
298.377
274.586
558.72
515.082
464.509
329.186
299.051
274.523
28.2802
187.963
323.868
308.232
454.023
321.301
307.309
450.186
188.922
240.908
241.461
727.542
420.608
699.521
401.205
726.459
420.212
695.268
399.342
597.544
515.409
667.107
347.346
384.679
306.043
594.759
507.628
664.188
383.428
345.942
302.921
9.97362
80.6417
78.4733
80.5537
78.4275
145.856
213.441
338.223
233.178
302.08
408.49
246.365
92.7141
145.745
215.098
338.215
233.467
299.81
408.193
245.971
92.4412
464.729
272.058
468.528
273.178
25.5411
176.688
177.167
305.694
309.725
474.632
313.998
464.052
305.044
305.814
462.998
307.005
456.468
227.158
227.446
544.533
629.917
509.779
326.633
367.37
302.367
542.944
628.564
500.156
366.712
325.939
298.937
10.0463
68.0802
74.1474
68.0812
74.1623
80.4695
80.2403
119.103
192.43
229.661
183.496
252.027
200.262
358.208
219.598
319.865
414.072
246.566
118.931
193.142
230.316
182.951
251.229
200.176
357.87
219.603
317.077
417.599
247.698
27.8202
160.757
153.297
161.567
154.588
288.416
298.724
460.323
308.338
439.128
511.492
302.671
288.229
301.079
453.492
304.298
442.136
503.396
299.613
214.495
214.961
523.486
318.706
520.184
317.868
9.45645
82.469
89.9798
82.6343
89.9411
84.8247
95.3469
84.5644
95.0661
107.35
107.067
169.661
207.308
174.812
202.537
176.781
230.301
161.632
263.175
207.803
358.442
218.272
336.867
170.524
208.371
174.468
202.524
177.218
231.422
162.229
262.751
207.94
359.868
218.798
336.714
33.0449
165.216
174.903
166.391
175.565
209.877
210.65
277.464
291.08
417.741
287.258
428.964
295.345
502.203
299.685
490.772
523.179
316.824
277.474
293.316
415.484
284.99
432.751
294.661
495.738
297.334
489.102
518.061
315.618
1.91327
90.8453
74.9826
90.7461
74.6469
110.253
125.509
110.077
125.282
104.21
107.418
103.679
107.049
164.774
181.749
163.149
188.27
165.349
181.518
163.736
187.81
138.152
203.328
146.212
187.762
139.117
204.728
146.928
189.524
37.925
194.825
215.634
195.059
216.171
231.545
239.636
231.917
239.261
275.031
275.106
276.181
406.053
282.784
389.92
287.898
448.884
274.524
480.135
312.835
515.452
314.86
512.372
278.911
405.099
281.407
394.448
288.598
452.784
275.671
481.882
312.491
511.281
313.946
510.615
21.4475
1.32621
124.774
97.2084
124.5
96.6021
117.053
137.543
116.679
137.298
166.08
175.565
162.904
178.684
169.375
184.369
173.455
181.299
168.12
175.797
164.387
179.452
171.274
184.792
173.633
182.445
133.741
175.985
133.144
180.282
134.383
176.677
133.762
181.609
39.3416
246.299
242.246
246.832
243.31
248.784
260.746
248.17
260.955
308.436
325.294
307.416
322.418
279.879
402.923
283.448
394.471
282.527
400.13
281.789
399.174
271.636
430.887
267.527
428.998
272.399
434.941
268.62
432.527
10.3082
104.767
86.9294
104.514
87.3442
1.62953
146.502
129.117
146.222
128.431
179.918
194.935
178.509
196.624
189.109
222.689
188.874
213.129
181.831
195.259
178.82
198.178
191.517
221.692
187.826
215.32
132.238
175.284
131.168
174.688
133.036
187.889
137.944
177.852
134.159
176.251
132.108
177.204
134.831
189.254
138.75
180.78
40.2105
192.659
295.38
322.821
295.544
322.925
321.264
325.068
318.024
323.686
308.876
431.425
292.726
469.547
319.275
505.296
323.821
495.249
307.459
428.047
290.691
466.981
316.615
491.828
316.293
490.033
278.55
447.918
286.179
441.22
279.374
447.116
285.872
444.93
6.29642
93.1334
80.6011
93.3955
81.0843
164.682
148.23
164.436
148.341
1.45634
190.648
238.461
190.786
240.779
188.271
249.781
209.569
234.087
191.018
236.162
188.928
240.825
189.389
247.8
208.093
235.066
150.429
208.367
146.374
218.447
157.829
263.362
172.872
234.608
152.975
209.11
147.121
221.208
160.878
261.155
171.752
238.566
38.9029
182.927
383.559
398.132
382.387
397.115
353.67
367.416
352.368
366.095
308.984
492.24
316.561
476.791
308.227
474.779
314.637
465.141
305.141
476.615
307.868
470.137
307.437
468.323
310.963
462.302
315.873
470.648
293.752
526.393
329.92
558.896
331.765
557.851
313.833
469.152
292.964
522.182
326.791
547.977
328.445
549.793
32.1209
5.20873
145.888
111.826
145.962
112.004
261.798
301.705
186.517
259.445
192.267
216.965
270.867
209.643
257.792
192.696
258.391
295.609
183.349
255.326
187.996
213.958
264.745
204.003
253.053
187.93
1.78685
187.829
291.141
185.119
297.444
190.785
297.145
187.002
286.197
182.335
295.512
190.759
296.83
156.311
264.298
167.718
236.971
158.575
261.434
165.943
241.036
36.9827
144.874
432.12
438.952
431.697
438.869
456.071
462.712
453.826
459.754
332.359
500.741
325.263
517.334
340.761
535.16
364.651
533.025
331.494
492.678
320.204
515.578
341.493
527.207
359.133
533.214
309.203
527.817
319.908
512.223
290.202
490.816
290.18
483.831
306.951
517.445
317.759
504.206
288.069
483.955
287.621
477.873
22.9791
124.484
115.075
124.579
115.186
5.24663
185.509
155.572
184.86
155.356
306.065
304.207
192.594
192.848
312.521
197.435
333.74
226.842
321.777
203.792
300.162
299.845
189.094
189.505
305.942
192.763
321.882
220.177
313.475
198.166
2.17855
184.498
302.119
182.913
303.349
186.259
307.256
182.531
295.457
179.033
300.195
185.924
307.052
34.8853
118.119
277.366
482.225
491.846
481.123
491.493
626.779
627.644
371.67
626.587
379.789
370.963
671.747
425.022
660.306
401.175
621.692
625.874
370.796
622.612
376.291
368.463
663.537
418.91
653.834
396.177
326.788
528.317
307.347
564.626
348.323
604.903
327.227
524.929
305.984
564.898
348.785
603.864
301.086
497.885
297.995
494.772
300.17
493.982
296.852
490.267
13.495
112.01
113.99
112.152
114.013
181.641
166.431
181.806
166.513
5.59985
201.427
292.11
201.373
281.456
196.616
265.653
211.93
260.016
199.875
286.886
197.558
279.489
196.402
264.142
209.619
259.847
309.818
190.891
350.645
221.271
339.032
209.178
303.741
186.95
336.056
213.325
330.025
203.442
1.90605
32.7791
95.8109
225.836
541.522
530.816
540.558
530.344
558.557
542.641
556.835
541.428
639.911
634.327
377.23
368.817
648.359
381.992
769.023
447.45
722.74
418.515
642.94
637.033
370.523
378.521
648.071
381.96
762.661
444.314
718.942
416.57
338.23
543.233
318.411
582.572
366.135
639.703
340.186
542.684
318.195
586.999
369.718
646.882
52.6898
11.3008
160.502
152.717
160.577
152.655
283.224
318.416
202.704
272.057
205.167
224.468
277.037
220.07
268.195
205.251
281.99
314.192
200.233
271.826
202.793
221.693
276.703
217.041
268.593
203.393
4.95544
208.347
321.905
206.983
328.2
209.214
324.506
206.926
316.543
203.467
326.016
208.506
323.321
1.44838
30.7495
77.8111
169.701
543.16
540.157
542.976
540.223
626.516
600.75
624.424
599.099
471.469
802.829
466.842
802.625
475.81
795.708
482.963
807.21
469.569
797.854
463.911
799.984
474.705
790.728
479.347
805.949