/*--------------------------------*- C++ -*----------------------------------*\
| =========                 |                                                 |
| \\      /  F ield         | OpenFOAM: The Open Source CFD Toolbox           |
|  \\    /   O peration     | Version:  5.x                                   |
|   \\  /    A nd           | Web:      www.OpenFOAM.org                      |
|    \\/     M anipulation  |                                                 |
\*---------------------------------------------------------------------------*/
FoamFile
{
    version     2.0;
    format      ascii;
    class       volScalarField;
    location    "2";
    object      p;
}
// * * * * * * * * * * * * * * * * * * * * * * * * * * * * * * * * * * * * * //

dimensions      [1 -1 -2 0 0 0 0];

internalField   nonuniform List<scalar> 
12160
(
5265
5288.81
4610.88
5303.16
4634.69
3956.85
5320.13
4648.92
3980.58
3302.48
5338.84
4665.8
3994.63
3326.23
2648.49
5359.23
4684.46
4011.29
3339.69
2672.14
1993.87
5381.5
4704.8
4029.7
3356.39
2685.24
2017.67
1340.02
5405.5
4727.08
4049.92
3374.55
2701.32
2029.54
1363.84
685.022
5430.78
4751.15
4072.22
3394.54
2719.02
2045.99
1374.83
711.952
183.151
5456.86
4776.48
4096.42
3416.89
2738.71
2063.03
1390.47
720.446
198.143
1.11565
5483.83
4802.52
4121.88
3441.33
2761.1
2082.24
1406.6
736.023
200.984
0.947278
-6.60067
5512.39
4829.32
4147.87
3467.02
2785.89
2104.73
1425.18
751.284
209.502
1.00326
-6.78392
-7.48609
5543.55
4857.6
4174.32
3492.94
2811.97
2130.07
1447.83
769.461
218.492
2.09342
-6.81781
-7.49364
-8.20502
5578.28
4888.49
4202.02
3518.84
2837.85
2156.79
1473.84
792.869
230.073
4.17987
-6.82117
-7.49449
-8.19728
-8.80313
5617.15
4923.04
4232.35
3545.64
2863
2182.73
1501.51
820.152
247.141
6.96044
-6.79954
-7.49142
-8.16426
-8.80435
-9.50684
5659.99
4961.93
4266.55
3575.03
2888.5
2206.9
1527.62
849.466
269.205
11.7311
-6.76701
-7.49579
-8.15542
-8.81023
-9.50878
5705.56
5005.03
4305.5
3608.64
2916.52
2230.6
1550.49
876.117
293.068
19.1554
-6.71981
-7.49066
-8.1501
-8.81489
-9.48954
5751.79
5051.11
4349.19
3647.59
2949.24
2256.66
1571.75
897.45
313.936
27.8777
-6.64221
-7.49678
-8.14414
-8.81916
-9.47929
5796.03
5098.05
4396.39
3692.07
2988.19
2288.05
1595.07
915.446
328.414
35.6352
-6.47106
-7.50348
-8.14582
-8.81816
-9.47587
5835.47
5143.07
4444.84
3740.87
3033.82
2326.82
1624.58
934.73
338.355
40.7809
-6.05319
-7.52437
-8.15769
-8.81902
-9.47457
5867.57
5183.3
4491.59
3791.57
3084.91
2373.76
1663.07
960.873
347.866
43.686
-5.61523
-7.54234
-8.17886
-8.81943
-9.47637
5890.27
5216.11
4533.57
3840.84
3138.77
2427.72
1711.74
997.862
362.637
45.8366
-5.29616
-7.53617
-8.19953
-8.82921
-9.48069
5902
5239.38
4568
3885.31
3191.62
2485.7
1769.48
1047.63
388.125
49.3836
-5.06235
-7.50514
-8.19105
-8.83593
-9.48493
5901.97
5251.49
4592.65
3922
3239.66
2543.24
1832.73
1109.37
428.367
57.333
-4.78771
-7.46146
-8.16769
-8.8355
-9.48897
5890.41
5251.47
4605.85
3948.49
3279.64
2595.9
1896.02
1178.9
484.285
72.6675
-4.21612
-7.42077
-8.1349
-8.82396
-9.48545
5867.74
5239.51
4606.73
3962.97
3308.87
2640.1
1954.36
1249.4
551.242
97.7513
-2.92095
-7.3944
-8.10559
-8.8065
-9.48112
5833.48
5214.96
4595.65
3964.3
3325.51
2672.77
2003.63
1315.17
623.086
132.572
-0.344906
-7.38188
-8.08975
-8.79005
-9.47488
5789.18
5183.24
4574.02
3952.15
3328.22
2691.91
2040.47
1371.15
691.629
174.885
4.22139
-7.35418
-8.09478
-8.78103
-9.46939
5739.22
5137.87
4536.94
3924.45
3317.6
2695.77
2062.71
1413.78
751.348
220.134
11.4615
-7.25433
-8.12074
-8.78196
-9.46722
5683.99
5087.74
4491.45
3893.13
3296.37
2684.89
2068.35
1440.22
797.494
263.175
21.3708
-7.01563
-8.16655
-8.79052
-9.46868
5625.22
5031.87
4439.21
3847.76
3255.82
2659.42
2057.68
1448.65
825.44
298.697
33.0785
-6.54473
-8.20998
-8.80483
-9.47598
5564.69
4972.42
4381.89
3792.96
3207.54
2621.2
2030.69
1439.28
834.066
322.505
44.5951
-5.76065
-8.24126
-8.83313
-9.48861
5504
4911.2
4320.98
3733.66
3150.51
2570.75
1991.76
1414.19
823.371
331.921
53.3585
-4.76728
-8.25996
-8.87157
-9.49664
5444.48
4849.87
4258.38
3670.54
3087.81
2510.67
1938.24
1368.71
794.051
325.794
57.281
-3.86841
-8.26412
-8.89945
-9.50014
5387.26
4789.8
4195.77
3605.8
3021.61
2443.61
1874.13
1310.28
757.468
305.274
55.099
-3.43585
-8.26223
-8.92057
-9.50701
5333.18
4732.08
4134.57
3541.27
2953.98
2373.43
1802.08
1240.55
698.722
271.061
47.6638
-3.66814
-8.265
-8.93596
-9.51296
5282.92
4677.58
4075.85
3478.38
2886.86
2301.97
1726.89
1162.22
628.829
231.089
36.8514
-4.43924
-8.27388
-8.94681
-9.51757
5236.98
4626.96
4020.5
3418.18
2821.71
2231.49
1650.73
1080.73
552.696
185.407
25.1092
-5.43178
-8.28839
-8.95045
-9.51979
5195.7
4580.67
3969.21
3361.53
2759.55
2163.49
1576.36
999.304
475.703
139.939
14.2935
-6.31789
-8.30297
-8.9469
-9.51995
5159.21
4538.88
3922.55
3309.07
2701.22
2098.81
1505.09
921.428
403.048
98.8876
5.71736
-6.9154
-8.3028
-8.93708
-9.51833
4501.62
5106.16
3881.07
3261.21
2647.48
2038.17
1437.54
848.404
340.382
65.5077
-0.08211
-7.23538
-8.28312
-8.91533
-9.51703
3844.87
4449.35
5056.41
3217.97
2599.09
1982.24
1374.34
780.651
287.881
41.4567
-3.30249
-7.37932
-8.25302
-8.89044
-9.51651
3179.48
3790.59
4399.87
5028.34
2556.7
1931.56
1316.47
718.191
243.282
25.8267
-4.90535
-7.42409
-8.21512
-8.85715
-9.51012
2520.19
3127.89
3741.35
4372.32
5012.28
1886.26
1265.03
661.854
205.563
15.4625
-5.68821
-7.43773
-8.16942
-8.82996
-9.50528
1846.51
2464.09
3079.52
3714.81
4355.7
5006.47
1220.84
612.551
174.089
8.57593
-6.09538
-7.43826
-8.1334
-8.81282
-9.49946
1183.65
1794.97
2416.17
3054.88
3700.02
4351.35
5004.5
570.867
148.536
4.06803
-6.31709
-7.4325
-8.10899
-8.80225
-9.49001
536.658
1126.26
1748.68
2393.63
3040.58
3696.26
4349.05
5000.96
128.778
1.20049
-6.44814
-7.42411
-8.08948
-8.79347
-9.48045
113.392
488.901
1081.37
1729.59
2381.11
3038.45
3693.38
4346.8
4992.59
-0.554868
-6.52846
-7.41321
-8.07656
-8.78843
-9.47386
-1.73612
93.7019
453.595
1066.26
1718.46
2382.04
3036.54
3691.39
4335.13
4986.43
-6.57857
-7.40131
-8.07011
-8.78566
-9.4687
-6.61469
-3.1089
80.1831
445.834
1057.48
1722.68
2381.35
3037.08
3678.36
4330.37
4930.93
-7.39314
-8.06907
-8.78251
-9.46305
-7.38804
-6.64465
-3.61167
78.9079
441.67
1065.53
1723.33
2383.62
3018.35
3655.69
4276.04
5069.43
-8.06994
-8.77867
-9.46004
-8.06924
-7.36668
-6.66364
-3.25388
78.9229
452.72
1069.81
1730.76
2365.21
2971.34
3612.16
4395.88
4567.1
5405.82
-8.77481
-9.45938
-8.7712
-8.06681
-7.36415
-6.67233
-2.70922
85.5665
460.215
1079.59
1718.1
2310.41
2911.76
3640.67
4007.33
4293.51
5038.41
5727.98
-9.46017
-9.4612
-8.76262
-8.06611
-7.37173
-6.62339
-1.83145
91.3013
471.985
1075.13
1675.38
2228.96
2886.76
3438.74
3862.84
4090.93
4745.83
5468.12
6151
-9.46204
-8.76079
-8.065
-7.33299
-6.52337
-0.78881
97.3436
478.014
1047.69
1572.78
2194.81
2881.16
3407.43
3666.92
3893.83
4547.46
5240.26
5969.87
6675.3
-9.4612
-8.7592
-8.03044
-7.2549
-6.32769
-0.272403
106.08
456.398
1007.25
1612.9
2326.27
2911.65
3264.74
3477.52
3684.42
4329.85
5030.3
5774.47
6532.48
7303.22
-9.45928
-8.73622
-7.96294
-7.10157
-6.07718
1.92875
92.3973
464.862
1120.27
1782.98
2397.33
2850.96
3091.09
3290.83
3451.35
4070.88
4774.26
5546.96
6363.89
7184.51
8034.64
-9.45032
-8.69073
-7.84564
-6.89397
-5.77647
3.13341
93.5495
599.916
1256.78
1885.02
2402.83
2717.69
2922.62
3085.92
2536.73
3761.92
2540.73
2437.05
2439.64
4433.33
5235.92
6115.62
7014.1
7916.56
8833.1
-9.43283
-8.61694
-7.716
-6.81552
-4.82877
8.14996
164.52
717.786
1368.91
1927.6
2328.38
2572.92
2765.41
2854.33
2637.2
2403.03
4011.5
2641.79
2737.67
2741.33
2405.27
2272.61
2273.83
4800.34
5752.66
6757.75
7735.07
8718.36
9708.96
-9.40628
-8.5579
-7.72691
-6.77469
-2.63186
13.7738
230.789
797.774
1412.3
1878.73
2207.02
2437.77
2596.65
2101.17
2099.51
2002
2003.13
2499.05
2289.93
4258.32
3571.72
2501.44
2568.11
2570.3
2283.49
2198.9
2193.65
5256.4
6365.96
7484.59
8540.44
9588.02
10668.8
-9.39099
-8.60746
-8.27062
-7.43916
-0.413768
16.9513
258.206
846.872
1385.76
1781.44
2086.46
2300.19
1907.41
1908.79
1819.28
1820.88
2000.55
1998.61
1921.31
1917.55
2356.44
1940.97
1842.65
1952.7
1831.92
4611.83
3627.32
2370.13
2371.42
2405.78
2403.23
2349.79
2402.5
2396.25
1938.89
1842.6
1949.59
1831.52
1922.64
1727.23
1911.13
1802.3
1919.74
1725.95
1907.54
1799.17
5827.85
7084.82
8299.47
9411.57
10524.8
11718.6
-9.42577
-9.13387
-9.79414
-7.63341
-1.48813
15.6901
301.921
828.659
1287.25
1668.51
1943.48
1723.51
1724.46
1610.14
1610.88
1850.24
1845.07
1762.74
1756.11
1656.52
1713.02
1737.74
1597.9
1698.96
1786.08
1710.49
1659.58
1738.46
1599.36
1699.15
1784.3
1549.05
1649.37
1569.41
1673.83
1549.49
1648.99
1570.45
1673.74
1996.51
1863.98
1974.94
1883
1845.02
1856.19
1874.18
1827.16
5128.37
3794.06
2282.68
2283.95
2319.63
2320.98
2126.5
2122.05
2203.47
2199.9
1994.44
1864.47
1972.09
1882.3
2003.55
1846.68
2052.38
1885.3
2001.52
1850.04
2049.94
1884.74
1844.8
1857.7
1874.32
1828.13
1837.88
1799.26
1837.68
1799.59
6540.3
7912.81
9189.11
10341.4
11535.3
12833.9
-9.66923
-10.1992
-9.96358
-7.77776
-2.75391
18.8621
283.124
750.605
1173.93
1547.23
1457.32
1457.69
1329.89
1330.42
1667.63
1661.47
1568.56
1561.89
1514.85
1606.81
1464.11
1557.54
1515.19
1606.37
1468.22
1557.68
1408.99
1503.93
1437.93
1531.87
1412.24
1503.56
1442.08
1532
1713.09
1666.02
1703.32
1752.67
1636.83
1662.28
1715.48
1669.75
1753.45
1704.41
1639.15
1663.04
1584.05
1609.13
1602.03
1624.15
1586.18
1609.81
1603.04
1624.56
1906.54
1875.78
1893.6
1883.72
1807.29
1828.93
1843.28
1793.67
5818.71
4197.48
2378.05
2377.95
2304.45
2303.94
1992.56
1985.4
2045.77
2039.79
1660.78
1770.99
1723.17
1835.42
1664.95
1771.93
1726.59
1836.18
1787.63
1867.82
1868.73
1773.34
1886.18
1962.41
1790.56
1866.35
1869.1
1775.95
1886.56
1961.83
1906.91
1877.34
1893.8
1885.88
1922.2
1881.8
1922.51
1883.3
1806.45
1830
1843.83
1790.13
1813.23
1783.59
1812.65
1782.19
7383.24
8836.61
10126.7
11323.1
12618.9
13942.8
-10.1793
-10.2641
-8.95336
-7.58071
-3.43272
17.5181
253.124
651.756
1029.67
1168.86
1169.52
998.145
998.394
1412.19
1409.33
1272.42
1272.01
1364.05
1459.51
1312.57
1408.63
1366.3
1459.13
1317.69
1408.68
1217.97
1356.16
1264.67
1361.67
1219.85
1355.12
1267.83
1361.06
1548.94
1571.66
1500.5
1516.14
1551.04
1572.35
1501.68
1516.71
1437.63
1453.32
1465.94
1476.58
1440.68
1454.39
1466.19
1477.03
1866.62
1840.98
1860.56
1840.99
6669.13
4860.81
2723.18
2724.72
2503.5
2503.4
2101.26
2091.48
2023.68
2015.38
1495.57
1591.94
1554.73
1676.44
1503.37
1593.35
1561.99
1678.04
1606.88
1709.16
1563.89
1671.7
1611.55
1710.32
1572.06
1673.33
1673
1697.97
1733.9
1758.11
1679.5
1700.3
1737.53
1759.57
1810.94
1785.69
1822.66
1844.47
1789.76
1815.29
1811.71
1787.89
1823.23
1844.65
1791.76
1816.08
1866.23
1840.96
1860.5
1839.33
1873.42
1839.98
1873.85
1841.26
8333.45
9806.41
11092.2
12363.3
13724.3
14961.2
-10.0789
-9.56682
-8.47804
-7.39325
-3.91942
17.8817
200.441
529.036
876.685
1103.98
1104.12
906.684
906.819
1343.78
1342.31
1220.26
1217.92
1391.65
1405.81
1342.33
1359.25
1392.68
1406.3
1343.54
1359.76
1207.99
1270.87
1285.78
1310.9
1208.74
1271.13
1286.58
1311.26
1406.38
1434.13
1410.71
1435.36
7664.55
5770.08
3356.6
3359.51
3001.65
3003.22
2438.57
2433.75
2252.78
2244.55
1618.97
1786.41
1573.62
1702.62
1613.94
1782.85
1576.46
1702.09
1506.46
1595.85
1559.87
1678.68
1511.11
1596.33
1565.77
1679.19
1535.81
1568.8
1557.98
1585.13
1543.11
1571.51
1562.68
1587.45
1623.26
1647.57
1582.89
1609.94
1630.04
1650.16
1588.8
1612.5
9355.13
10794.9
12089
13441.5
14749.3
15866.9
-10.0226
-9.20524
-8.19182
-7.25116
-4.35629
16.4244
131.224
405.159
682.412
683.323
501.31
502.239
1065.01
1061.29
867.435
868.864
1141.45
1136.4
1195.72
1070.89
1140.95
1135.48
1195.55
1069.79
1080.17
949.958
1024.73
1008.79
1079.32
951.897
1024.06
1008.22
1374.87
1395.6
1322.33
1340.82
1377.41
1396.53
1323.67
1341.4
1215.34
1236.53
1267.73
1286.22
1218.53
1237.65
1268.81
1286.85
8756.09
6857.49
4794.19
2949.64
2952.98
2661.75
2657.58
2173.24
2170.66
2025.18
2018.38
1587.29
1676.6
1551.32
1627.68
1588.5
1675.98
1555.51
1628.92
1528.57
1560.23
1566.46
1608.63
1533.48
1562.38
1572.33
1610.4
1501.8
1541.1
1510.87
1544.1
10404.7
11776.4
13115.1
14456
15684.5
16594.6
-9.92495
-9.00005
-8.04669
-7.25799
-4.79144
12.1796
68.341
300.374
624.302
621.888
418.096
417.055
870.104
942.023
889.68
783.065
873.09
941.59
888.174
784.329
818.587
815.377
1088.46
1137.86
1152.54
1079.91
1088.34
1140.01
1153.11
1079.25
1031.32
956.137
973.272
1020.87
1031.31
956.304
973.261
1021.17
1190.55
1211.93
1195.96
1213.51
9897.65
8063.83
6052.71
3590.01
3591.64
3084.5
3085.99
2711.72
2711.81
2411.08
2397.49
1866.62
1824.78
1942.26
1753.83
1869.18
1840
1946.55
1761.47
1806.06
1629.64
1700.37
1699
1805.56
1628.65
1699.54
1698.93
1580.39
1628.99
1548.64
1597.87
1584.14
1629.61
1552.19
1599.21
1513.64
1548.41
1540.36
1578.08
1520.45
1550.92
1545.69
1579.94
11414.5
12772.3
14117.7
15368.5
16431.2
-9.7945
-8.88851
-8.07011
-7.40127
-5.70638
4.79312
47.2882
210.365
210.529
108.279
108.827
519.25
564.362
424.657
485.667
520.403
564.27
427.412
485.633
357.06
356.522
874.274
894.123
819.197
767.255
874.147
894.016
818.709
767.208
596.298
650.301
676.599
718.517
597.582
649.774
676.763
718.025
997.439
912.08
924.652
984.025
998.045
914.549
925.395
986.667
10982.3
9313.91
7416.24
5550.46
3502.53
3489.34
2992.93
2984.23
2622.38
2615.14
1912.67
2055.02
2140.2
1971.16
1921.29
2057.44
2139
1970.07
1845.85
1823.19
1911.6
1778.3
1848.08
1833.73
1915.04
1784.44
1787.87
1664.66
1719.62
1726.27
1788.49
1667.75
1720.41
1727.4
1603.93
1654.9
1609.99
1656.25
12404.6
13750.8
15011.1
16132.7
-9.68872
-8.86956
-8.14866
-7.5633
-5.61496
1.94699
33.2494
33.2715
8.11613
8.04773
178.783
179.529
82.7218
82.7508
494.286
507.784
393.582
424
494.731
507.92
394.329
424.304
325.305
222.421
251.257
305.13
325.117
223.722
250.767
305.668
841.844
853.413
782.681
766.886
842.309
853.752
782.695
766.955
583.084
594.256
655.589
663.983
583.963
594.479
655.672
663.972
12001.3
10515
8811.11
7070.26
4427.83
4430.62
3899.83
3896.28
3379.1
3378.09
2434.21
2612.41
2495.6
2770.32
2441.25
2615.42
2503.64
2771.94
2295.39
2426.64
2155.79
2243.45
1924.42
2090.25
2311.33
2430.36
2164.52
2246.45
1925.46
2089.68
1876.79
2001.9
1885.46
2004.31
1875.2
1871.52
1927.54
1812.9
1877.23
1881.16
1930.54
1819.26
13370
14636.9
15776.9
-9.64379
-8.89559
-8.21878
-7.56374
-6.13177
-3.86519
23.6159
23.1365
1.20309
1.14368
182.198
253.484
196.584
125.403
138.652
273.424
255.425
183.735
272.423
196.674
125.788
139.396
42.2666
45.8615
66.327
73.2751
41.3161
45.2844
66.285
73.7356
457.995
470.649
380.198
393.488
458.713
470.985
381.025
393.801
327.522
311.566
326.566
313.181
749.053
734.689
749.035
734.985
545.442
561.815
546.948
562.221
12987
11611.2
10134.3
8602.26
5753.52
5759.15
5044.15
5043.88
4513.5
4506.88
3961.12
3960.85
3056.84
2921.05
3267.11
2861.02
2863.48
2628.6
3061.33
2942.77
3273
2871.68
2866.7
2638.79
2552.69
2668.04
2560.42
2670.99
2419.54
2506.73
2273.19
2039.01
2340.79
2079.12
2430.38
2509.99
2278.05
2046.75
2342.58
2081.86
1951.09
1993.02
1957.15
1995.44
14259.3
15403.7
-9.63625
-8.92286
-8.22478
-7.58326
-6.11881
-2.78264
-2.7835
-3.47049
-3.47767
9.25839
9.11382
-0.868186
-0.875011
233.442
161.365
176.652
245.165
110.876
117.984
236.645
161.342
244.916
175.294
109.643
115.749
20.4454
18.5201
55.5372
59.895
20.9071
19.6399
54.6022
56.3361
348.557
364.931
350.273
365.357
13894.6
12640.6
11322.1
10013.9
8741.35
5757.33
5754.09
5131.35
5115.47
3875.63
4317.04
3727.79
3995.33
3895.62
4321.21
3740.81
3999.96
3305.45
3045.3
3519.23
3510.29
3741.35
3315.58
3317.58
3058.93
3524.17
3530.51
3747.27
3320.47
3101.38
2850.57
2973.99
2763.06
3105.45
2854.03
2983.85
2771.83
2639.39
2702.17
2648.42
2705.37
2499.74
2559.5
2122.21
2156.2
2512.9
2563.18
2130.69
2159.07
15027.1
-9.63479
-8.93574
-8.1991
-7.44328
-5.68227
-2.29751
-2.29261
-3.1139
-3.12138
0.926687
3.53496
3.94429
0.987759
0.946198
3.70281
4.02915
1.03128
-0.919131
-0.902981
12.0499
11.5922
39.4037
41.4059
12.6877
12.5189
38.9077
38.6973
14677.9
13584.7
12407.4
11259.4
10210.1
7203.28
7216.43
6440.05
6438.34
5803.37
5801.5
5207.17
5199.51
4048.86
4324.29
3928.09
4003.48
4062.57
4328.48
3935.45
4006.42
3186.87
3481.69
3331.22
3596.79
3698.93
3778.23
3199.37
3488.35
3599.62
3336.05
3704.39
3780.67
2923.26
2844.81
2927.14
2855.72
-9.6345
-8.93553
-8.25092
-7.234
-3.79188
-3.80499
-4.61425
-4.62567
-1.95596
-1.94091
-2.84125
-2.8496
0.750188
2.39946
2.62105
0.744897
0.781217
2.52262
2.82135
0.802363
-0.982127
-1.1048
-0.252393
-0.260202
-0.967416
-1.09609
-0.226995
-0.244081
8.2172
9.93514
8.51851
9.94101
14385.2
13389.2
12387.6
11473.1
10681.3
7293.37
7292.19
6684.97
6671.06
6024.5
6012.07
5056.29
4412.46
4685.78
4556.54
5053.48
4412.12
4686.26
4551.96
4259.67
4339.18
4065.23
4101.9
4273.36
4343.45
4073.41
4104.69
-9.60527
-9.06662
-8.35197
-7.27059
-3.72484
-3.73189
-4.52651
-4.53491
-0.953221
-1.04395
-1.86152
-1.28465
-1.40187
-1.6662
-0.935217
-1.03577
-1.85642
-1.26905
-1.39301
-1.66417
-2.74007
-2.73973
0.633908
1.86011
1.89281
0.595673
0.680154
1.94407
2.01626
0.631366
-0.535633
-0.620976
-0.519309
-0.615062
14203.1
13396.3
12619.2
11959.8
8812.4
8823.13
8044.7
8045.18
7342.04
7356.04
6904.6
6891.24
5213.65
5768.72
5061.57
5362.43
4714.28
5048.35
5243.48
5773.06
5079.67
5368.72
4716.37
5049.49
4606.12
4690.22
4612.52
4692.91
4412.67
4454.95
4427.89
4459.67
-9.81518
-9.09274
-9.04999
-5.18319
-5.18785
-6.07327
-6.07838
-3.61017
-3.61747
-4.42923
-4.43208
-0.996308
-1.0469
-1.75582
-1.26558
-1.3828
-1.61644
-0.978549
-1.03619
-1.74592
-1.23825
-1.36121
-1.60975
-2.41914
-2.67352
-1.9418
-2.09064
-2.43716
-2.67713
-1.96288
-2.09734
14200.8
13641.7
13101.3
12664.7
8964.33
8961.66
8409.26
8389.16
7789.66
7780.07
5426.24
5791.9
6626.76
5833.86
6184.03
6030.01
6622.89
5836.44
6184.94
6027.12
5442.4
5796.98
5271.9
4922.87
5434.02
5043.15
5285.7
4940.93
5438.89
5048.78
4738.62
4805.88
4751.82
4809.73
-9.6275
-9.52545
-9.95236
-4.9315
-4.92616
-5.79667
-5.79893
-2.38058
-2.53571
-3.39711
-2.67151
-2.87811
-3.13115
-2.40984
-2.54513
-3.39284
-2.6897
-2.88466
-3.13003
-4.23141
-4.22271
-1.70933
-1.61273
-1.70208
-1.61296
-1.94554
-2.09001
-1.97803
-2.09863
14438.1
14103.7
13791.5
10387.8
10394.5
9738.47
9735.26
9178
9177.01
8694.45
8683.93
6766.77
7416.65
6593.72
6940.86
6191.62
6573.62
6800.83
6196.07
6575.59
7424.19
6607.57
6945.81
5680.25
5850.94
6082.31
6232.26
6089.45
5694.27
6235.2
5855.24
-11.0727
-10.9779
-11.8219
-4.62103
-4.61585
-5.39613
-5.39517
-2.34108
-2.45135
-3.09105
-2.56081
-2.70002
-2.93027
-2.37804
-2.46827
-3.09127
-2.5749
-2.70587
-2.93541
-3.49739
-3.83422
-3.07742
-3.26015
-3.50447
-3.83509
-3.08211
-3.26129
-2.02231
-2.15114
-2.06163
-2.16663
14921.9
14763.4
14597
10621.6
10620.3
10118.6
10101.6
9515.99
9512.99
7028.64
7418.32
8282.57
7451.73
7847.19
7595.52
7048.43
7425.16
8280.99
7451.52
7847.95
7592.05
6925.06
6463.7
7039.65
6623.14
6478.81
6627.77
6928.77
7041.57
-9.92662
-20.7571
-6.37876
-5.23152
-5.21946
-6.28736
-7.23757
-7.13901
-4.54485
-3.25016
-3.51962
-4.53082
-3.25385
-3.51936
-2.30975
-2.42896
-2.87404
-2.49725
-2.62699
-2.76844
-2.34181
-2.44516
-2.87619
-2.50831
-2.63296
-2.77285
-2.91717
-3.06586
-2.92181
-3.06745
15563.4
15507.9
15345.7
10889.7
10893.5
10355.4
10350.9
8115.07
8857.63
8059.21
8476.75
7772.41
8188.43
8153.1
7775.16
8190.83
8867.87
8082.42
8485.28
7327.76
7448.72
7674.38
7816.35
7348.05
7455.18
7690.43
7822.44
7134.55
7217.16
7144.63
7220.33
-23.0915
-15.2898
-4.863
-4.46732
-4.79903
-4.53582
-6.07818
-6.09487
-5.21448
-3.44116
-4.06361
-2.88186
-3.07763
-5.89643
-1.50032
-1.43838
-3.42954
-5.36754
-4.0634
-2.88783
-3.07973
-6.08621
-1.44819
-1.23487
-2.79657
-2.67553
-2.79982
-2.6816
-2.80177
-3.01639
-2.80874
-3.01975
16303.5
16224.3
12276.6
11056
11041.2
12289.5
11681.6
11682.3
10525.9
8350.79
8850.08
10529.2
8380.39
8860.67
7971.19
8342.79
8089.26
8506.01
7990.24
8096.02
8357.91
8512.57
7507.06
7599.12
7803.56
7902.52
7533.45
7607.09
7824.04
7908.71
-23.719
-8.88043
-4.25375
-2.47487
-2.68222
-4.39787
-4.2611
-1.74509
-2.5296
-4.40206
-5.44507
-5.473
-5.1125
-3.10233
-3.89858
-4.5078
-4.97874
-2.8039
-5.0199
-3.89739
-3.41939
-4.50936
-5.07113
-2.196
-2.77909
-2.67208
-2.77908
-2.6814
17023.7
16837.3
12402.5
11156.8
11154.9
12402.9
11955.4
11943.3
8838.82
8491.3
8951.83
8408.84
8893.99
9336.83
8913.73
9725.42
8853.97
8519.37
8962.38
8440.2
8905.78
9342.93
8951.68
9734.83
8146.43
8429.35
8224.41
8611.36
8153.51
8227.92
8447.33
8619.44
-11.0557
-6.08975
-5.40825
-5.40364
-6.09487
-7.06406
-7.07551
-3.20887
-2.93077
-1.93736
-2.07743
-2.7046
-3.53638
-2.71885
-2.91209
-4.42549
-3.15153
-3.39906
-3.23127
-3.3571
-2.03864
-2.19303
-2.80963
-3.54104
-2.74443
-2.92317
-4.42266
-3.17151
-3.40533
-4.24757
-2.91549
-4.27071
-2.64449
-4.32571
-2.87712
-3.43866
-2.60453
17646.2
17280.8
12533.9
11335.8
9694.43
9132.27
11336.3
9697.89
9141.26
12533.3
12025.3
12007.2
8741.72
9123.49
8503.17
8960.87
8726.38
9360.31
8763.24
9126
8528.25
8734.79
8967.47
9360.87
8269.27
8393.8
8280.96
8399.41
-11.3319
-5.22639
-5.7499
-5.2161
-5.75335
-6.49692
-6.50824
-3.10205
-2.39391
-2.51867
-3.17673
-2.7672
-2.84164
-3.41815
-3.09264
-3.29829
-3.08454
-3.3107
-3.70686
-3.84124
-4.20734
-3.10924
-2.41648
-3.29229
-2.52782
-2.78452
-2.84859
-3.10385
-3.42392
-3.30271
-3.10459
-3.31665
-3.70858
-3.83444
-4.20237
18085.7
13501.7
12581.3
12557.6
13518.4
13035.3
13028.1
9548.18
9760.76
9256.23
9796.77
9208.92
10344.4
9550.48
10068.6
9598.29
9761.98
9271.35
9802.95
9211.73
10357.9
9579.18
10078.9
11989.2
9723.72
10290.3
11982.4
9771.52
10306.9
8942.8
9234.21
9130.82
9480.47
8952.91
9227.8
9132.32
9478.54
-9.75892
-5.15115
-4.10698
-3.88887
-5.75551
-5.13238
-4.10153
-3.87919
-5.76069
-6.44422
-6.45774
-2.55835
-2.62
-2.86428
-2.97047
-3.15951
-3.49786
-2.88895
-2.98741
-3.26882
-3.62742
-2.57371
-2.62718
-2.87771
-2.97562
-3.17547
-2.9013
-3.49576
-2.99229
-3.27396
-3.62673
18396.7
13499.4
12551.5
12523.6
13511
13101
13088.9
9266.67
9484.45
9551.54
9747.58
9763.87
10018.8
9278.13
9507.5
9554.69
9756.65
9790.93
10029
10108
9752.88
10239.7
9695.15
10230.2
10598.6
10039.2
10699.1
10123.1
9785.1
10253
9754.38
10249.3
10603.1
10057.9
10701.2
-9.58714
-6.42122
-6.43525
-5.14146
-4.08014
-3.93818
-4.11953
-3.9087
-5.78081
-5.13155
-4.0734
-3.92766
-4.1134
-3.89733
-5.78405
-2.9789
-3.22353
-3.53321
-3.05718
-3.29278
-3.64106
-2.99432
-3.23274
-3.53108
-3.06228
-3.29578
-3.63997
18595.2
13499.1
12643.4
10790.4
10274.1
12604.8
10787.5
10267
13516.5
13133.6
13126
9617.78
9821.27
9800.34
10029.2
9640.15
9829.27
9820.48
10037.6
10023.1
10354
9829.59
10222.6
10059
10633.2
10043.2
10339.6
9846.11
10065.9
10230.5
10629.5
-9.50941
-6.46389
-6.49651
-6.47673
-6.50834
-5.23525
-4.18354
-3.95494
-4.15761
-3.98153
-3.57149
-3.70243
-5.91284
-5.22062
-4.17847
-3.95269
-4.15308
-3.97563
-3.5722
-3.70162
-5.91465
-3.29224
-3.36431
-3.30292
-3.36694
18617.1
13506.5
13525.9
12659
10690.9
10243.9
10712.2
10245.3
12633.3
10686.6
10241.7
10709.1
10235
13138.9
13130.4
10130.1
9910.7
10356.5
10316.2
10101.7
10587.1
10166.1
9929.3
10347.9
10108.5
10325.7
10585.4
-9.54112
-6.52385
-6.58693
-6.53788
-6.60255
-6.0166
-6.01754
-5.40737
-4.23094
-4.03296
-4.28601
-4.00916
-3.79367
-3.60317
-3.76045
-3.6117
-3.36305
-3.45486
-5.39166
-4.2257
-4.0266
-4.28028
-4.00337
-3.79135
-3.60556
-3.76034
-3.60643
-3.37286
-3.45689
18600.4
13508
13505.8
13531.4
13532.9
12638
10689.2
10220.1
10714.1
10227.4
10331.7
10581.3
12609.7
10679.1
10233.7
10715.7
10217.5
10338.7
10584.1
13151.6
13145.1
10152.6
10345.1
10191.3
10354.9
-9.53878
-6.63806
-6.69767
-6.65377
-6.71128
-6.0697
-6.15943
-6.07388
-6.16285
-5.58299
-5.56849
-4.50772
-4.14245
-4.39184
-4.26918
-3.89012
-3.71495
-3.99167
-3.66258
-3.6083
-3.42904
-3.54983
-3.46079
-4.49995
-4.13711
-4.38659
-4.25609
-3.88583
-3.70869
-3.98775
-3.65248
-3.6065
-3.43455
-3.55056
-3.45941
18442.8
13513.5
13481
13537.4
13504.2
13155
13150.1
12623.1
10676.8
10190.3
10666.1
10221.9
10653.5
10328.7
10606
10364.1
10139.2
10346.3
12602.3
10673.4
10204.5
10669.3
10216.3
10654.2
10346.2
10611.1
10372.9
10173.7
10355.8
-9.54116
-6.77047
-6.85698
-6.78119
-6.86942
-6.24064
-6.33755
-6.24514
-6.3408
-5.67745
-5.77991
-5.66587
-5.76897
-4.58257
-4.46863
-4.72189
-4.33001
-4.57319
-4.45761
-4.7149
-4.31332
-4.22633
-3.86406
-4.10966
-3.98559
-4.21901
-3.85555
-4.10509
-3.9681
18147.7
13419.5
13356.9
13439.7
13375.3
13149
13125.2
13142.3
13116.3
12645.6
12623.3
10729
10185.8
10685
10224.4
10636.3
10321.9
10608.2
10375.1
10474
10170.5
10397.9
10215.5
10725.3
10212.9
10692.8
10226.2
10634.3
10344
10614.6
10366.9
10478.2
10205.5
10407.2
10236
-8.78274
-9.53218
-6.41912
-6.47706
-6.42033
-6.4817
-5.8897
-6.01141
-5.87812
-5.99662
-4.82384
-4.46336
-4.74065
-4.57544
-4.83879
-4.64521
-4.87098
-4.59947
-4.81815
-4.45667
-4.73313
-4.5694
-4.83477
-4.64801
-4.86849
-4.59649
-4.31944
-4.13197
-4.42804
-4.07146
-4.3122
-4.12114
-4.42112
-4.05709
17727.9
13326.5
13290.4
13338.1
13304.3
13062.7
13001.6
13053.8
12993.1
12634.7
12610.5
12610.3
12585.7
10746.6
10256.2
10805.3
10233.5
10740.8
10255.6
10804.6
10229.5
10700
10326.3
10631.8
10347.8
10702.3
10356.5
10640.9
10357.1
-8.80798
-6.18665
-6.24953
-6.17762
-6.24693
-9.49859
-6.11639
-6.16423
-6.09373
-6.14949
-4.95635
-4.70053
-4.89712
-4.76672
-4.99278
-4.8703
-5.05957
-4.80971
-4.95335
-4.70139
-4.8939
-4.76493
-4.99036
-4.8663
-5.05489
-4.80738
-4.5869
-4.20069
-4.50712
-4.30744
-4.63145
-4.46814
-4.68355
-4.38728
-4.58315
-4.18545
-4.49894
-4.30255
-4.62978
-4.47409
-4.68494
-4.38613
17223.8
16870
12923.2
12797.7
12912.5
12789.1
12572.6
12523.8
12544.8
12495.9
10860.8
10251.1
10825.4
10296.5
10819.9
10185.2
10748.1
10266.9
10856.1
10249.4
10822.7
10288.7
10817.7
10201.4
10749
10264.3
10663.7
10287.8
10676
10320.3
10664.6
10300.2
10679
10326.8
-8.76704
-6.24679
-6.30045
-6.25016
-6.31084
-5.83771
-5.92009
-5.83166
-5.90041
-9.47876
-5.12866
-4.92449
-5.10343
-4.93588
-5.19356
-5.01149
-5.34593
-4.94506
-5.12364
-4.90793
-5.0965
-4.92378
-5.18917
-4.99754
-5.33805
-4.93453
-4.80763
-4.53705
-4.74576
-4.61712
-4.8707
-4.77253
-4.92525
-4.6988
-4.80748
-4.54585
-4.74735
-4.62323
-4.8701
-4.76897
-4.92365
-4.70118
16520.5
16353.2
12253.5
12194.6
12228
12192.7
12461.6
12320
12420.8
12292.8
10649.5
10167.4
10713.1
10156.3
10584.8
10113.8
10569.7
10142.3
10648.4
10176.9
10712.2
10157.3
10583.8
10128.2
10570.8
10142.1
10728.9
10300.1
10692.2
10387.8
10680.9
10283.8
10585.6
10367.6
10725.8
10310.4
10694.2
10384.3
10676.7
10292.9
10586.3
10361.2
-8.01687
-8.71943
-5.91812
-5.92769
-5.91005
-5.92626
-4.7292
-4.89818
-4.86692
-4.67983
-4.87652
-5.13091
-4.72462
-5.07053
-4.67315
-4.92797
-4.73601
-4.88941
-4.86993
-4.69366
-4.88021
-5.12748
-4.72909
-5.06945
-4.6806
-4.92968
-9.46614
-4.98976
-4.83401
-4.96697
-4.85128
-5.01722
-4.81925
-4.98282
-4.82104
-4.96173
-4.83488
-5.01125
-4.8049
-4.7344
-4.59449
-4.76473
-4.54445
-4.73729
-4.60758
-4.76885
-4.5546
15761.2
15677.9
12029.8
11875.6
12029.4
11888
11653.6
11659.9
11647.8
11643.3
10537.1
10112.5
10548.4
10113.7
10593.1
9846.38
10546.5
10099.3
10531.9
10106.7
10543.6
10102.3
10592.8
9857.53
10541.8
10097.4
10578.1
10199.7
10578.9
10250.8
10547.6
10242.2
10502.5
10256.9
10576.6
10203.4
10577.2
10249.2
10545.3
10248.3
10503.9
10256.3
-7.94052
-5.56922
-5.57393
-5.5559
-5.56916
-8.68915
-5.52302
-5.56924
-5.51567
-5.5573
-4.69064
-4.63934
-4.80337
-4.76713
-4.62955
-4.75506
-4.63272
-4.84099
-4.57567
-4.74941
-4.69947
-4.64048
-4.80573
-4.76895
-4.63221
-4.7577
-4.62747
-4.84066
-4.57376
-4.75009
-9.46302
-4.79189
-4.62267
-4.78451
-4.63904
-4.78118
-4.63044
-4.79198
-4.63039
-4.78648
-4.64249
-4.78215
-4.63425
15075.1
14952
14816.1
11580.9
11277.3
11569.9
11278.9
9481.84
9891.45
9986.2
9416.95
9954.48
10406.7
9266.98
10066
9446.61
10003.1
9898.93
9529.37
10006.3
9481.75
9976.48
10410.4
9317.87
10080
9495.82
10020.7
10401.1
10222.8
10440.9
10207.7
10407
10161.5
10400.2
10230.8
10443.8
10206.3
10403.7
10146.1
10370.1
10118.6
10315.4
10133.7
10370
10138.7
10319.3
10144.3
-7.89211
-5.55018
-5.56141
-5.54715
-5.56667
-5.16064
-5.17125
-5.15454
-5.15793
-8.6939
-4.6452
-4.50943
-4.62619
-4.45137
-4.68441
-4.43351
-4.77727
-4.43067
-4.64376
-4.50918
-4.62616
-4.44768
-4.6836
-4.43518
-4.77579
-4.42953
-4.5965
-4.74469
-4.47165
-4.61555
-4.43613
-4.62711
-4.61219
-4.7489
-4.47478
-4.61659
-4.43775
-4.62927
-9.4786
14518.3
14278.2
14099.2
10673.6
10503.5
10656
10502.6
10962.5
10757.2
10963.4
10756.7
9767.13
9457.49
9774.51
9997.76
9435.33
9737.11
9207.1
9764.48
9426.37
9733.22
9816.61
9499.62
10014.1
9791.56
9461.74
9749.31
9232.55
9773.68
9456.36
9744.15
10144.6
10088
10237.1
10018.1
10083.5
9933.7
10153.2
10107.6
10243.5
10046.2
10094.2
9965.51
-7.01728
-7.89029
-5.13686
-5.07737
-5.12321
-5.07683
-4.11177
-4.30413
-4.24853
-4.06033
-4.23911
-4.54734
-4.03084
-4.34509
-4.0463
-4.26672
-4.11975
-4.29797
-4.25178
-4.07078
-4.24233
-4.54583
-4.03392
-4.34424
-4.05332
-4.26836
-8.76033
-4.50143
-4.38718
-4.53512
-4.3612
-4.48169
-4.28376
-4.49999
-4.38312
-4.5346
-4.35548
-4.48114
-4.28262
-9.508
14129.3
13711.5
13377.3
10254.8
10045.4
10251.9
10052.8
10144.4
9979.61
10141.5
9973.66
9403.46
8912.07
9452.86
8876.81
9348.31
8580.1
9357.44
8818.92
9407.17
8927.63
9458.72
8884.89
9352.84
8614.52
9365.87
8830.68
9611.23
9818.32
9127.68
9420.16
9243.16
9492.86
9669.02
9837.01
9144.17
9426.07
9267.99
9500.1
-7.07957
-4.62904
-4.71246
-4.62984
-4.72104
-7.98545
-4.66702
-4.60302
-4.65889
-4.60047
-4.10058
-3.95433
-4.27877
-4.12924
-3.9216
-4.06338
-3.86459
-4.08966
-3.87533
-4.04693
-4.11607
-3.96675
-4.28414
-4.13492
-3.93136
-4.06849
-3.86721
-4.09137
-3.88183
-4.05002
-8.78109
-4.34649
-4.11274
-4.34935
-4.12391
-9.55631
13964.7
13317.2
12803.8
12299.9
9761.21
9422.81
9745.49
9420.79
8187.94
8519.31
8666.55
8110.66
8592.79
9027.56
7821.88
8547.63
8058.39
8551.25
8530.03
8210.76
8675.37
8137.88
8603.08
9032.14
7860.18
8559
8087.13
8562.2
9147.18
8911.61
9226.37
8886.55
9049.15
8798.96
9147.93
8921.61
9228.68
8886.94
9051.05
8804.64
-5.9644
-7.41609
-4.07489
-4.0309
-4.06412
-4.03163
-8.02992
-3.84406
-3.64731
-3.81728
-3.57029
-4.11566
-3.84109
-3.64301
-3.81621
-3.56425
-4.10269
-3.74564
-3.89473