/*--------------------------------*- C++ -*----------------------------------*\
| =========                 |                                                 |
| \\      /  F ield         | OpenFOAM: The Open Source CFD Toolbox           |
|  \\    /   O peration     | Version:  5.x                                   |
|   \\  /    A nd           | Web:      www.OpenFOAM.org                      |
|    \\/     M anipulation  |                                                 |
\*---------------------------------------------------------------------------*/
FoamFile
{
    version     2.0;
    format      ascii;
    class       volScalarField;
    location    "2";
    object      p_rgh;
}
// * * * * * * * * * * * * * * * * * * * * * * * * * * * * * * * * * * * * * //

dimensions      [1 -1 -2 0 0 0 0];

internalField   nonuniform List<scalar> 
12160
(
5592
5615.81
5591.88
5630.16
5615.69
5591.84
5647.13
5629.91
5615.57
5591.48
5665.84
5646.8
5629.63
5615.23
5591.49
5686.23
5665.46
5646.29
5628.69
5615.14
5590.87
5708.5
5685.8
5664.7
5645.39
5628.24
5614.67
5591.02
5732.5
5708.08
5684.92
5663.55
5644.32
5626.54
5614.83
5590.02
5757.78
5732.14
5707.22
5683.54
5662.02
5642.98
5625.83
5581.66
3161.01
5783.86
5757.47
5731.42
5705.9
5681.71
5660.03
5641.47
5600.04
3426.91
133.313
5810.83
5783.52
5756.88
5730.33
5704.1
5679.24
5657.6
5624.06
3472.9
139.418
6.73679
5839.39
5810.32
5782.87
5756.02
5728.89
5701.73
5676.17
5633.5
3588.81
142.711
2.10008
0.111244
5870.55
5838.59
5809.31
5781.94
5754.97
5727.06
5698.8
5642.49
3676.47
164.711
0.4311
0.0440154
-0.0299501
5905.28
5869.49
5837.02
5807.84
5780.85
5753.79
5724.79
5657.16
3786.11
206.132
0.328255
0.0276836
-0.0222756
0.0258749
5944.15
5904.04
5867.35
5834.64
5806.01
5779.73
5752.45
5680.25
3929
260.771
0.596421
0.0297986
0.0107438
0.0246498
-0.0238432
5986.99
5942.93
5901.55
5864.04
5831.5
5803.9
5778.55
5709.14
4079.67
354.817
0.974012
0.0256888
0.01958
0.0187749
-0.0257831
6032.56
5986.02
5940.5
5897.64
5859.52
5827.59
5801.43
5737.23
4231.95
500.278
1.92065
0.0312739
0.0248968
0.0141071
-0.00654566
6078.79
6032.11
5984.19
5936.59
5892.24
5853.65
5822.71
5761.63
4360.99
667.134
3.8938
0.0264553
0.0308595
0.00983738
0.00370948
6123.03
6079.04
6031.38
5981.07
5931.19
5885.05
5846.05
5784.51
4448.43
806.036
8.85002
0.0220239
0.029184
0.0108413
0.00712694
6162.47
6124.07
6079.84
6029.87
5976.82
5923.82
5875.58
5812.59
4511.16
892.242
19.1541
0.00660463
0.0173091
0.00998321
0.008432
6194.57
6164.3
6126.59
6080.57
6027.91
5970.76
5914.07
5851.06
4582.81
937.227
28.4081
0.00814114
-0.00384882
0.00957414
0.00663168
6217.27
6197.11
6168.57
6129.84
6081.77
6024.72
5962.74
5899.99
4702.32
970.229
34.0724
0.0781825
-0.0245153
-0.000211627
0.00230599
6229
6220.38
6203
6174.31
6134.62
6082.7
6020.48
5952.55
4886.9
1029.81
37.5613
0.176409
-0.0160086
-0.00693352
-0.00193587
6228.97
6232.49
6227.65
6211.01
6182.66
6140.24
6083.73
6014.37
5130.44
1165.59
42.0612
0.275035
0.00740765
-0.00650213
-0.00597494
6217.41
6232.47
6240.85
6237.49
6222.64
6192.9
6147.03
6083.9
5403.12
1421.04
53.647
0.378523
0.0402697
0.00504199
-0.00244754
6194.74
6220.51
6241.73
6251.97
6251.87
6237.1
6205.36
6154.4
5664.07
1826.26
81.9105
0.525107
0.0696712
0.0225024
0.00187427
6160.48
6195.96
6230.65
6253.3
6268.51
6269.77
6254.64
6220.17
5878.17
2361.8
138.162
0.814781
0.0857094
0.0389458
0.00812291
6116.18
6164.23
6209.02
6241.15
6271.22
6288.9
6291.47
6276.16
6039.64
2971.49
235.42
1.73483
0.0813233
0.0479653
0.013612
6066.22
6118.87
6171.94
6213.45
6260.6
6292.76
6313.72
6318.78
6156.19
3570.27
385.116
4.77576
0.0587299
0.0470354
0.015782
6010.99
6068.73
6126.44
6182.13
6239.37
6281.89
6319.36
6345.22
6234.49
4089.96
584.547
12.0287
0.0315566
0.0384861
0.0143225
5952.22
6012.87
6074.2
6136.76
6198.82
6256.42
6308.68
6353.65
6277.62
4481.96
813.948
25.2959
0.0532306
0.024188
0.00701393
5891.69
5953.41
6016.89
6081.96
6150.54
6218.2
6281.69
6344.28
6290.22
4723.03
1034.11
45.3412
0.19138
-0.00401994
-0.00561525
5831
5892.2
5955.98
6022.66
6093.51
6167.74
6242.76
6319.19
6275.88
4811.75
1199.29
69.6188
0.536215
-0.0420445
-0.0136461
5771.48
5830.87
5893.37
5959.54
6030.8
6107.67
6189.24
6273.7
6232.9
4756.96
1272.53
91.1504
1.13028
-0.0685884
-0.0171388
5714.26
5770.8
5830.77
5894.8
5964.61
6040.6
6125.13
6215.22
6167.23
4554.22
1233.01
101.766
1.77467
-0.0866717
-0.0240063
5660.18
5713.08
5769.56
5830.28
5896.98
5970.42
6053.09
6145.25
6055.82
4203.1
1094.03
96.4347
2.1085
-0.0982031
-0.0299599
5609.92
5658.58
5710.85
5767.38
5829.86
5898.97
5977.9
6066.02
5896.13
3721.48
890.268
78.371
1.95568
-0.107069
-0.0345625
5563.98
5607.96
5655.5
5707.19
5764.71
5828.49
5901.73
5981.55
5674.6
3136.81
661.612
54.9061
1.40402
-0.111358
-0.0367845
5522.7
5561.67
5604.21
5650.53
5702.55
5760.49
5827.33
5892.25
5381.5
2496.83
444.469
33.3887
0.748569
-0.111035
-0.0369449
5486.21
5519.88
5557.55
5598.07
5644.22
5695.81
5755.98
5797.69
5028.24
1862.87
268.083
17.4963
0.290025
-0.104928
-0.0353282
5482.62
5433.16
5516.07
5550.21
5590.48
5635.16
5688.18
5694.88
4632.05
1303.82
146.136
7.80059
0.061875
-0.085259
-0.0340265
5479.87
5430.34
5383.41
5506.97
5542.09
5579.24
5624.42
5581.86
4193.01
881.778
75.7182
2.98558
-0.0191958
-0.0611516
-0.0335108
5468.48
5425.59
5380.86
5355.34
5499.7
5528.55
5565.58
5458.98
3735.92
598.486
40.391
1.11779
-0.0228024
-0.0280901
-0.0271175
5463.19
5416.89
5376.35
5353.32
5339.28
5483.25
5512.67
5330.03
3286.96
407.406
22.6231
0.494865
0.010405
-0.000947733
-0.0222801
5443.5
5407.08
5368.52
5349.81
5336.7
5333.47
5466.53
5200.72
2871.76
278.579
13.1873
0.27765
0.0430639
0.0161828
-0.0164586
5427.15
5391.95
5359.17
5343.88
5335.02
5332.35
5331.5
5077.2
2510.79
193.243
7.94784
0.194258
0.0665201
0.0267507
-0.00700827
4967.85
5365.7
5345.64
5336.63
5329.59
5331.26
5330.05
5327.96
2216.64
138.431
4.97218
0.160009
0.0857356
0.0355257
0.00255299
1983.44
4811.57
5315.29
5326.53
5324.11
5327.45
5328.38
5327.8
5319.59
105.048
3.32399
0.147466
0.0985448
0.0405706
0.00913713
82.7484
1678.12
4671.65
5297.38
5315.37
5325.04
5325.54
5326.39
5316.13
5313.43
2.40165
0.145387
0.104946
0.0433409
0.0143031
1.63577
55.5146
1452.98
4643.01
5283.45
5319.53
5324.35
5326.09
5313.36
5311.37
5257.93
0.145027
0.105964
0.0464915
0.0199436
0.143706
0.911382
46.1439
1418.18
4608.2
5288.1
5319.71
5326.61
5307.35
5290.69
5257.04
5396.43
0.105081
0.0503342
0.0229565
0.105769
0.158514
0.707503
54.0906
1400.22
4644.59
5274.71
5326.15
5308.18
5260.34
5247.15
5376.88
4894.1
5078.82
0.0541908
0.0236207
0.0578046
0.108194
0.159437
0.753615
64.2308
1492.65
4621.74
5267.17
5312.67
5253.4
5200.76
5275.67
4988.32
4620.51
4711.41
4746.98
0.0228313
0.0217948
0.0663827
0.108894
0.151654
0.939238
80.256
1564.36
4632.51
5251.31
5271.98
5171.96
5175.75
5073.74
4843.83
4417.92
4418.83
4487.12
4516
0.0209585
0.068206
0.110004
0.190643
1.24799
97.3692
1661.08
4553.62
5266.51
5169.78
5137.8
5170.15
5042.42
4647.89
4220.79
4220.47
4259.27
4334.87
4386.29
0.0217963
0.0697955
0.144567
0.269275
1.62496
104.225
1709.97
4573.71
5254.38
5209.89
5269.26
5200.64
4899.69
4458.4
4011.32
4002.89
4049.33
4139.48
4243.48
4360.21
0.0237201
0.0927846
0.212062
0.423033
1.61873
148.914
1407.85
5018.1
5371.27
5379.98
5340.31
5139.91
4725.91
4271.5
3778.04
3743.99
3793.38
3912.02
4074.9
4241.51
4437.64
0.032683
0.138266
0.329362
0.629349
2.1951
144.851
1439.29
5501.6
5507.77
5482.01
5345.8
5006.5
4557.06
4066.06
2699.83
3435.23
2703.83
2926.68
2929.26
3452.67
3601.12
3826.68
4071.12
4319.56
4582.09
0.0501704
0.212058
0.459116
0.780717
6.77604
84.6376
2808.8
5620.51
5619.9
5524.57
5271.24
4861.34
4398.86
3832.27
2474.14
2565.82
3031.4
2478.73
2248.28
2251.95
2568.06
2761.22
2762.43
3166.15
3464.02
3814.79
4138.07
4467.36
4803.96
0.0767201
0.271122
0.496756
4.50894
36.8026
97.203
3809.67
5700
5663.26
5475.64
5149.57
4725.16
4227.81
2913.82
2912.07
3141.8
3142.9
2336.33
2451.88
2625.97
2594.7
2338.72
2079.94
2082.14
2445.44
2685.73
2680.46
2969.7
3423.6
3887.63
4289.44
4683.02
5109.76
0.0920103
0.234392
2.62003
23.5866
112.967
253.046
4130.52
5751
5636.69
5378.14
5028.24
4585.31
3372.14
3373.52
3610.04
3611.64
2810.66
2808.71
3060.03
3056.26
2194.66
2183.9
1923.13
2033.35
2074.36
2328.88
1997.16
1231.97
1233.35
1594.65
1592.16
2188.01
1916.98
1910.74
2181.81
1923.1
2030.25
2073.93
2327.16
2294.37
2478.62
2206.45
2324.27
2293.05
2475
2203.35
2889.97
3488.67
4048.5
4506.57
4965.84
5505.64
0.0579119
0.515044
11.5305
29.122
131.512
394.143
4848.7
5732.5
5538.01
5264.63
4883.61
3841.8
3842.74
4056.34
4057.08
3311.65
3306.47
3548.19
3541.56
2383.23
2277.62
2464.45
2493.22
2594.29
2350.92
2275.08
2386.24
2465.15
2494.67
2594.48
2349.14
2767.01
2867.32
2627.11
2731.53
2767.42
2866.95
2628.14
2731.44
1753.58
1783.58
1894.29
1640.86
2087.17
1936.6
1954.77
2068.85
2192.31
1510.03
492.88
494.302
856.111
857.518
992.523
988.101
1397.63
1394.13
1751.52
1784.06
1891.43
1640.18
1599.03
1281.25
1484.89
1482.22
1596.99
1284.73
1482.48
1481.65
2086.95
1938.1
1954.91
2069.79
2241.15
2202.22
2240.95
2202.55
2949.44
3662.16
4284.12
4782.41
5322.34
5966.93
-0.122011
2.90997
10.5543
5.58595
97.4977
470.771
4577.18
5653.55
5424.24
5142.08
4230.98
4231.33
4431.07
4431.59
3781.8
3775.63
4010.45
4003.77
2891.8
2983.78
3000.74
3094.2
2892.14
2983.33
3004.86
3094.33
3272.34
3367.31
3135.98
3229.93
3275.59
3366.93
3140.13
3230.05
2278.66
2429.65
2466.94
2318.36
2544.32
2569.78
2281
2433.35
2319.13
2468.03
2546.64
2570.54
2802.03
2827.11
2661.96
2684.07
2804.16
2827.8
2662.94
2684.48
1664.39
1795.46
1813.02
1642.4
2049.8
1909.19
1923.68
2035.82
2229.58
1259.9
-67.521
-67.5414
186.85
186.451
211.876
204.474
589.613
583.431
450.082
560.283
670.499
777.717
454.24
561.224
674.019
778.467
1065.08
1305.09
1146.18
882.589
990.85
1397.56
1068.03
1303.64
1146.57
885.287
991.229
1396.98
1664.76
1797.03
1813.21
1644.58
1518.93
1479.95
1519.24
1481.48
2048.96
1910.25
1924.23
2032.27
2218.44
2188.55
2217.87
2187.19
3135.42
3931.74
4567.72
5110.13
5751.91
6421.83
-0.236208
3.18862
0.979958
1.09999
78.2393
339.062
4027.07
5526.35
5278.62
4597.68
4598.33
4754.59
4754.83
4181.33
4178.45
4368.75
4368.31
3392.81
3488.28
3504.92
3601.02
3395.05
3487.89
3510.03
3601.05
3736.5
3874.75
3619.42
3716.44
3738.37
3873.69
3622.57
3715.83
2925.63
2948.35
3037.32
3052.96
2927.73
2949.05
3038.51
3053.53
3297.24
3312.93
3163.16
3173.8
3300.27
3313.99
3163.39
3174.24
1624.12
1760.83
1780.15
1599.29
2427.07
1270.88
-377.583
-376.02
-269.613
-269.697
-339.642
-349.469
-88.2699
-96.727
-362.662
-271.445
-138.336
-21.6064
-355.113
-270.014
-130.817
-20.0129
238.124
334.63
32.7573
135.044
242.776
335.528
41.2783
136.677
462.272
487.095
679.079
698.328
468.749
489.43
682.824
699.785
1247.41
1026.39
1063
1278.89
886.814
907.793
1248.29
1028.62
1063.62
1279.07
888.862
908.577
1623.72
1760.83
1780.09
1597.63
1468.24
1436.21
1468.66
1437.49
3430.61
4247.46
4879.19
5496.29
6203.29
6786.17
-0.105709
0.254866
-0.0511138
0.618905
56.7235
363.522
3282.6
5308.9
5121.63
4528.34
4528.46
4659.04
4659.15
4105.18
4103.69
4308.68
4306.3
3419.76
3433.94
3531.55
3548.48
3420.8
3434.43
3532.77
3549
3721.12
3784.03
3635.51
3660.66
3721.87
3784.28
3636.32
3661.03
3303.21
3330.95
3307.52
3332.19
2768.71
1526.94
-399.463
-396.531
-426.788
-425.21
-657.725
-662.524
-516.106
-524.311
-898.672
-732.178
-780.239
-652.158
-903.695
-735.715
-777.411
-652.672
-520.18
-432.928
-630.57
-513.705
-515.419
-432.432
-624.676
-513.173
-317.768
-290.813
-133.762
-112.09
-310.486
-288.092
-128.874
-109.76
254.75
273.403
52.6007
73.1207
261.51
275.629
58.5973
75.6802
3796.86
4581.97
5222
5920.46
6574.25
7037.87
-0.493827
-0.213711
0.0492976
0.557776
44.2743
355.563
2300
4956.24
4752.74
4753.62
4855.94
4856.3
4481.8
4478.05
4612.46
4613.81
3977.61
3810.76
3870.11
3907.14
3977.11
3809.89
3869.94
3906.02
4079.34
4113.45
4188.28
4007.98
4078.49
4115.37
4187.57
4007.41
3415.14
3435.88
3513.28
3531.77
3417.7
3436.82
3514.65
3532.37
3722.48
3743.67
3615
3633.49
3725.66
3744.79
3616.07
3634.11
3201.78
1959.93
549.746
-802.63
-799.265
-762.52
-766.675
-915.139
-917.708
-736.219
-743.001
-924.921
-836.552
-797.339
-722.076
-923.637
-837.174
-793.203
-720.834
-496.554
-467.898
-620.252
-580.601
-491.796
-465.753
-614.524
-578.829
-389.395
-355.723
-380.269
-352.724
4192.28
4909.41
5594.06
6280.98
6855.51
7111.58
-0.43853
-0.14206
0.153834
0.444217
41.1993
358.879
1021.41
3990.41
4688.17
4685.74
4673.76
4672.83
4196.17
4268.14
4379.7
4273.22
4199.13
4267.67
4378.13
4274.36
4551.59
4548.35
3924.68
3825.02
3839.73
3916.12
3924.56
3827.25
3840.33
3915.48
4025.05
4115.03
4132.19
4014.59
4025.04
4115.21
4132.18
4014.89
3734.27
3755.66
3739.73
3757.28
3690
2515.4
1153.8
-811.16
-809.417
-988.264
-986.884
-1033.33
-1033.17
-1005.6
-1019.16
-1132.55
-1338.7
-1221.29
-1245.33
-1129.98
-1323.47
-1216.96
-1237.66
-1030.11
-1043.97
-974.017
-1137.05
-1030.59
-1045.28
-974.858
-1137.19
-925.65
-878.161
-797.453
-749.4
-922.001
-877.532
-793.912
-748.055
-523.914
-491.868
-648.102
-612.875
-517.304
-489.366
-642.884
-611.022
4547.75
5251.31
5942.7
6539.58
6948.22
-0.311157
-0.0518331
0.114623
0.236513
28.6987
215.924
775.33
2948.67
2947.22
1999
1995.74
4435.42
4536.05
4371.02
4623.1
4436.15
4535.93
4373.48
4623.02
4308.2
4310.32
4192.95
4212.82
4300.51
4248.57
4192.81
4212.7
4300
4248.47
4391.95
4455.8
4315.9
4358.08
4393.07
4455.24
4315.99
4357.58
4026.17
4081.25
4093.84
4012.75
4026.78
4083.75
4094.59
4015.4
4118.24
3111.98
1863.35
662.322
-889.814
-903.148
-1070.39
-1079.15
-1110.42
-1117.64
-1413.37
-1271.07
-1349.81
-1518.92
-1404.73
-1268.63
-1350.96
-1519.93
-1147.88
-1335.71
-1247.32
-1215.35
-1145.64
-1325.17
-1243.87
-1209.27
-1048.35
-1021.86
-967.572
-1109.66
-1047.73
-1019.02
-966.796
-1108.71
-939.007
-888.851
-932.809
-887.498
4883.65
5575.78
6182.16
6649.72
-0.205658
-0.0372351
0.0286125
-0.010398
30.8131
162.046
979.582
986.758
304.429
303.592
1462.75
1474.97
1208.54
1245.93
4321.89
4473.16
4205.25
4552.86
4321.99
4473.3
4206.43
4553.17
4195.25
2680.59
3710.24
3337.93
4189.76
2678.12
3701.83
3336.85
4156.76
4168.34
4254.43
4238.62
4157.24
4168.68
4254.44
4238.69
4375.32
4393.63
4301.68
4311.63
4376.32
4393.84
4301.65
4311.62
4480.69
3659.36
2608.08
1522.29
-609.183
-606.382
-806.103
-809.758
-1000.19
-1001.15
-1537.2
-1359.28
-1641.29
-1367.11
-1530.08
-1356.25
-1633.18
-1365.44
-1510.05
-1378.86
-1483.63
-1396.11
-1556.8
-1391.07
-1494.03
-1375.11
-1474.93
-1393.12
-1555.77
-1391.62
-1441.83
-1316.79
-1433.18
-1314.39
-1153.53
-1297.65
-1241.64
-1215.85
-1151.49
-1287.99
-1238.65
-1209.41
5194.97
5807.95
6294.03
-0.160721
-0.065621
-0.0434909
-0.0284257
12.5906
46.5846
816.486
804.549
162.82
161.181
1213.56
2011.67
1471.74
1284.65
1916.66
3001.33
1980.67
1239.44
2799.39
1343.68
1308.89
1866.71
869.4
991.875
1229.6
1536.76
855.973
1005.67
1249.34
1679.29
4159.73
4442.63
4065.22
4510.88
4160.45
4442.97
4066.68
4510.85
3865.13
2632.84
3756.98
2610.51
4253.92
4239.25
4253.92
4239.52
4301.11
4394.47
4302.2
4394.88
4812.09
4096.46
3288.23
2395.46
49.6993
55.6578
-326.052
-326.307
-515.831
-522.39
-734.377
-734.726
-1226.48
-1523.99
-1180.57
-1420.56
-1265.39
-1499.61
-1222
-1502.21
-1174.61
-1409.92
-1262.17
-1489.55
-1412.37
-1297.33
-1404.78
-1294.4
-1379.82
-1292.64
-1374.37
-1432.68
-1306.86
-1392.63
-1368.89
-1289.38
-1369.58
-1424.91
-1305.08
-1389.88
-1363.82
-1321.91
-1357.75
-1319.48
5430.26
5920.75
-0.153126
-0.093857
-0.0495181
-0.00899329
1.86133
15.7751
15.7987
4.78143
4.77429
332.573
325.038
48.5031
48.0152
1276.66
1254.19
1873.87
1575.54
1374.65
2219.85
1276.26
1288.72
1408.9
1565.04
1384.64
2161.31
661.035
570.426
1248.99
2222.03
637.75
642.55
1228.74
1740.39
3485.04
4281.5
3482.87
4280.34
5065.59
4467.15
3823.74
3155.98
2542.58
62.9294
60.0088
-230.251
-246.06
-1223.57
-790.082
-1202.16
-943.205
-1203.81
-785.773
-1189.39
-938.557
-1306.11
-1391.05
-1097.51
-1257.75
-1033.48
-1123.32
-1294.38
-1377.42
-1092.65
-1237.61
-1027.64
-1118.43
-1187.22
-1269.94
-1312.77
-1356.82
-1183.16
-1266.48
-1303.06
-1347.96
-1332.33
-1269.82
-1323.21
-1266.61
-1332.9
-1273.16
-1382.66
-1348.67
-1319.51
-1269.49
-1374.14
-1345.81
5544.08
-0.151794
-0.106804
-0.0222931
0.200867
3.20627
6.79168
6.80166
5.12143
5.11391
57.5979
89.113
137.313
34.6047
56.3932
90.9282
141.435
34.3522
15.784
15.8819
385.785
287.625
913.393
1666.78
378.004
340.889
842.432
1116.92
5194.91
4755.77
4240.21
3765.72
3351.48
852.731
865.888
429.603
427.754
122.329
120.939
-141.741
-149.109
-1044.68
-775.616
-993.722
-923.811
-1030.84
-771.435
-986.551
-921.02
-1281.31
-1167.42
-1140.52
-1056.76
-1076.66
-1001.97
-1268.79
-1160.97
-1054.11
-1135.72
-1071.37
-999.697
-1228.47
-1305.83
-1224.59
-1294.86
-0.151515
-0.106728
-0.0716956
0.693557
6.45889
6.46458
4.5465
4.53866
7.05117
6.95669
6.43694
6.41216
22.1568
36.3457
62.4752
18.3142
22.9064
36.9129
73.4093
18.0674
7.21878
8.80052
13.2532
15.8069
7.55345
8.74392
13.0522
15.9777
121.952
219.728
116.149
154.212
4902.26
4560.61
4229.36
3979.09
3832.23
955.512
954.309
692.794
678.728
367.086
354.554
-370.259
-844.893
-581.212
-861.075
-372.99
-844.774
-580.608
-865.096
-837.754
-764.299
-885.866
-854.467
-823.67
-760.005
-877.7
-851.703
-0.122318
-0.238108
-0.1702
0.606189
6.68891
6.62796
4.27169
4.25472
7.23951
8.69817
8.39743
7.13516
8.16823
6.99093
7.57309
8.25535
8.34263
7.42655
8.80113
7.27546
7.97451
8.36694
13.4062
15.7002
28.6387
13.3666
13.451
15.2865
27.5029
13.4036
9.89257
15.6479
9.56982
15.0903
4720.18
4568.65
4462.91
4451.01
1801.97
1812.68
1374.69
1375.24
1017.48
1032.21
933.146
920.02
-497.336
42.7191
-482.931
-193.665
-695.735
-371.222
-467.49
47.1671
-464.802
-186.947
-693.183
-369.693
-658.682
-583.536
-651.788
-580.865
-720.443
-685.771
-704.837
-681.054
-0.3323
-0.264561
-0.850604
2.46546
2.45994
1.79624
1.7915
6.86371
6.55849
3.7666
3.69237
7.23609
9.35908
9.11126
7.19285
9.51471
7.0354
7.56509
9.32287
11.1631
7.49483
10.8347
7.51397
7.44173
10.8671
8.17227
11.116
8.08725
10.9732
8.96554
11.175
4717.93
4815.9
4938.47
5156.94
1958.45
1955.72
1748.18
1727.77
1483.74
1474.2
-280.611
72.1629
576.076
-37.8744
301.441
-5.57154
572.329
-34.4297
302.707
-7.3759
-264.514
77.433
-295.624
-488.718
-139.65
-377.261
-281.893
-470.231
-134.812
-370.932
-558.443
-501.65
-544.68
-497.636
-0.144751
-0.569974
-0.701798
2.62726
2.63309
2.0682
2.06728
7.35295
11.1321
7.72061
6.93583
8.77522
5.68538
7.76629
11.1228
6.94004
6.42374
7.44917
5.23747
3.8501
3.73101
10.1034
7.64099
11.2698
8.65431
7.86776
11.2509
8.85726
11.2421
4955.36
5281.16
5637.78
2724.48
2732.15
2398.77
2395.45
2175.26
2174.35
2034.73
2024.32
382.219
1019.81
388.041
722.099
156.267
525.794
416.078
161.652
528.145
1027.39
401.868
727.225
-57.466
107.645
181.001
321.143
188.666
-42.7738
324.593
111.792
-1.59017
14.1584
105.145
3.08291
3.08171
2.46152
2.46541
7.07919
11.2545
6.92619
6.17392
7.83852
4.9415
7.06318
10.7596
6.48159
5.69563
7.0553
4.60448
3.9041
4.02861
4.46182
4.5822
3.89692
4.00238
4.37785
4.6207
7.24424
11.2988
8.00331
10.8723
5439.51
5947.61
6462.45
2957.72
2956.85
2784.98
2768.04
2521.58
2518.6
632.904
1013.87
1538.83
876.601
1268.98
852.306
652.027
1020.76
1537.28
876.079
1269.73
848.861
685.705
398.589
790.831
548.065
414.448
553.187
689.006
792.902
2.15603
104.977
430.87
134.33
133.782
388.709
252.952
207.329
82.711
4.14542
4.68651
84.8913
4.14163
4.72135
6.48083
8.78896
5.43077
5.2405
6.14274
4.76234
6.14922
7.83722
5.59104
4.90773
6.24982
4.5615
4.45334
5.37564
4.43063
5.47929
6081.52
6699.8
7235.72
3233.91
3238.28
3032.31
3027.94
1043.86
1786.29
1160.65
1578.03
1037.33
1452.95
1081.89
1039.91
1455.34
1796.58
1183.78
1586.56
910.806
1026.63
1099.74
1240.34
931.126
1033.12
1115.83
1246.41
839.355
913.696
849.237
917.005
54.4935
87.9549
502.87
48.1214
543.512
51.5476
2.38544
5.90013
514.489
116.481
244.207
4.50517
4.3094
541.36
446.756
381.325
113.053
501.265
252.944
4.49915
4.30728
560.216
458.099
530.95
6.05646
4.51904
6.31206
4.51229
11.5768
27.4511
11.3494
29.2641
6822.37
7421.06
4033.94
3410.73
3396.34
4047.45
3722.02
3724.83
3219.51
1285.27
1784.45
3222.72
1314.83
1795.06
1244.64
1445.57
1362.21
1608.49
1263.54
1368.96
1460.53
1615.01
1057.12
1145.89
1209.31
1307.23
1083.56
1153.85
1229.59
1313.4
28.2422
0.72757
149.024
571.523
606.799
3.63777
138.486
1002.86
605.304
3.63628
3.00412
3.05199
515.03
734.679
129.121
307.64
790.531
630.57
505.155
125.51
720.265
317.909
779.426
1080.12
21.0142
8.26734
22.1929
7.94923
7543.35
8039.56
4168.33
3521.91
3520.34
4168.82
4015.71
4006.46
1628.94
1446.82
1907.25
1351.45
1836.54
2126.81
1531.46
2342.45
1644.05
1474.79
1917.78
1382.75
1848.31
2132.91
1569.56
2351.92
1398.99
1527.05
1476.43
1708.83
1405.86
1479.91
1544.86
1716.86
-1.22384
2.55982
3.12822
3.05751
2.5549
1.91699
1.90553
4.57319
635.932
108.967
205.908
315.514
4.51089
7.78449
8.26575
3.53994
4.53868
4.29108
4.56747
495.124
110.02
147.372
326.038
4.49287
7.74467
8.33747
3.5407
4.51829
4.28463
763.052
441.819
963.16
662.782
754.865
443.679
1065.54
667.232
8167.01
8507.3
4307.18
3718.15
2316.5
1756.41
3719.14
2319.97
1765.51
4306.6
4119.96
4105.11
1682.3
1913.67
1582.24
1901.36
1805.25
2150.27
1703.75
1916.22
1607.22
1813.61
1907.95
2150.81
1478.47
1602.65
1490.05
1608.22
-1.84986
3.08302
2.89133
3.09342
2.88783
2.48237
2.47104
181.657
12.6522
11.364
318.967
4.75051
4.67756
4.43568
4.59076
4.39302
4.60087
4.37856
4.14835
4.19618
3.83063
183.634
12.4904
237.008
12.2055
4.7326
4.66864
4.57945
4.42979
4.38652
4.57962
4.37146
4.14615
4.20285
3.83512
8608.26
4550.8
4359.13
4335.51
4568.09
4459.71
4452.6
1875.34
2387.14
1895.97
2428.47
1839.88
2646.12
2044.27
2542.63
1928.34
2388.36
1911.36
2434.62
1842.89
2659.7
2072.66
2552.9
4112.06
2066.79
2602.52
4107.48
2116.3
2619.08
1848.16
2006.94
2036.12
2251.75
1858.29
2000.34
2037.61
2249.79
-0.276914
3.147
3.92727
4.14412
2.87953
3.16559
3.9323
4.15362
2.87429
2.53159
2.51806
4.84739
4.78563
4.66248
4.56487
4.51949
4.35128
4.66377
4.57025
4.41258
4.22294
4.83171
4.77834
4.64847
4.55655
4.5034
4.65127
4.3533
4.56542
4.40705
4.22347
8920.3
4561.63
4312.79
4284.43
4573.85
4526.62
4516.11
2013.17
2115.2
2293.69
2366.37
2272.1
2504.18
2024.67
2138.62
2296.82
2375.41
2299.31
2514.29
2382.14
2160
2570.86
2065.72
2548.15
2787.85
2104.59
2679.84
2398.17
2193.78
2584.61
2127.79
2567.31
2793.93
2128.47
2682.47
-0.0453203
2.55347
2.53976
3.1487
3.95791
4.10139
3.92312
4.12645
2.84857
3.1584
3.96388
4.11183
3.92861
4.13765
2.84469
4.59465
4.46079
4.32195
4.51767
4.39215
4.21713
4.57915
4.45154
4.32392
4.51284
4.3892
4.21795
9121.37
4560.83
4409.83
2769.6
2313.36
4373.71
2767.23
2310.74
4578.93
4572.95
4566.66
2233.23
2418.01
2306.55
2506.4
2256.08
2426
2326.11
2514.77
2455.27
2632.96
2327.88
2585.2
2512.84
2836.17
2476.71
2619.36
2345.22
2519.68
2594.44
2834.4
-0.0345982
2.54093
2.53534
2.52698
2.51352
3.05442
3.84274
4.0837
3.88259
4.04449
4.29681
4.16907
2.75814
3.06398
3.84781
4.08589
3.88712
4.05027
4.29604
4.16975
2.74083
4.416
4.34463
4.40529
4.34204
9144.25
4574.4
4592.53
4446.04
2665.13
2250.69
2680.42
2266.14
4422.4
2661.11
2251.38
2677.53
2257.62
4591.75
4583.7
2581.83
2415.09
2605.76
2698.27
2542.4
2778.96
2618.69
2434.9
2597.11
2549.11
2710.24
2779.55
-0.0646923
2.44545
2.38269
2.43141
2.36708
2.74482
2.70296
3.05501
3.77867
3.98505
3.72102
4.00109
4.06865
4.27241
4.11695
4.25019
4.37374
4.28258
3.02532
3.78387
3.98594
3.72553
4.00643
4.07103
4.27002
4.11711
4.25545
4.36396
4.28075
9127.43
4570.73
4571.13
4593.82
4600.05
4463.08
2670.41
2221.9
2682.4
2257.84
2538.76
2751.15
4435.73
2660.29
2238.58
2684.06
2250.31
2546.52
2755.27
4594.32
4588.79
2571.94
2726.82
2612.16
2739.46
-0.0600129
2.33375
2.27809
2.31804
2.26447
2.55841
2.46522
2.55333
2.46175
3.20047
3.12101
4.03357
3.95185
3.66348
3.87786
3.96268
4.1459
3.86986
4.19018
4.16076
4.331
4.21032
4.30826
3.93739
3.92959
3.66342
3.84662
3.96698
4.15147
3.87379
4.20027
4.16256
4.32553
4.20965
4.30965
8969.21
4581.34
4542.04
4607.63
4566.76
4594.53
4588.77
4446.56
2682.83
2380.17
2707.55
2304.78
2800.4
2502.46
2746.34
2549.56
2492.51
2688.42
4429.31
2679.43
2398.16
2712.06
2303.73
2801.17
2521.94
2752.08
2560.81
2528.58
2700.11
-0.0617713
2.20888
2.1241
2.19814
2.11164
2.38698
2.29764
2.38243
2.29434
2.69685
2.49424
2.68341
2.50431
4.27475
3.7661
4.13774
3.97997
4.15538
3.71589
3.97922
3.87621
3.97742
4.03234
3.83453
3.97095
3.89935
4.03221
3.83135
3.9634
8672.72
4481.33
4419.9
4501.48
4437.66
4597.66
4574.88
4591.04
4565.6
4435.37
4412.48
2746.2
2382.84
2732.68
2390.51
2797.9
2597.11
2814.97
2585.14
2715.88
2468.06
2670.54
2494.04
2743.11
2409.08
2743.57
2399.89
2796.06
2619.65
2821.6
2579.01
2720.03
2505.01
2680.57
2516.95
0.0294884
-0.052291
2.22212
2.1667
2.22086
2.162
2.38408
2.2787
2.39557
2.29341
3.32957
3.59942
3.57598
3.50333
3.19169
3.35935
3.13359
3.42339
3.31567
3.59591
3.51463
3.49031
3.19384
3.3565
3.13606
3.42273
4.14063
3.81698
4.00344
3.90297
3.90646
3.80137
3.82466
3.88765
8252.64
4396
4353.19
4407.29
4367.66
4503.12
4432.74
4492.85
4423.37
4431.33
4422.98
4406.76
4397.08
2755.85
2293.74
2802.71
2352.99
2751.67
2295.71
2802.08
2363.16
2924.72
2655.98
2872.54
2670
2927.06
2685.39
2881.12
2679.53
0.00948932
2.11484
2.05648
2.12383
2.05907
-0.0174888
2.18158
2.13479
2.20416
2.14942
3.05316
3.30122
3.10465
3.24296
3.0335
3.16856
2.97938
3.21669
3.05613
3.30031
3.10782
3.24467
3.03589
3.17256
2.98402
3.21896
3.39884
3.71959
3.61591
3.62312
3.26595
3.40097
3.18546
3.5093
3.39408
3.72634
3.55682
3.61377
3.26815
3.39498
3.18409
3.50601
7746.04
8113.1
4351.64
4233.39
4340.48
4224.89
4387.45
4310.82
4358.32
4282.77
2861.64
2286.54
2822.97
2344.42
2827.15
2302.52
2768.45
2336.37
2856.97
2286.34
2820.29
2338.07
2824.89
2320.09
2768.72
2335.47
2881.26
2498.37
2822.7
2618.72
2886.07
2516.44
2828.39
2629.31
0.0552716
2.06667
2.01898
2.06329
2.00861
2.11101
2.03754
2.11702
2.05713
0.00318796
2.90628
3.11514
2.93631
3.09911
2.83932
3.02371
2.6894
3.08786
2.91125
3.13168
2.94319
3.11108
2.84365
3.03759
2.6972
3.09825
3.04522
3.32058
3.11186
3.23573
2.99201
3.10331
2.95065
3.16387
3.04538
3.31177
3.11027
3.22965
2.99262
3.10693
2.95226
3.16154
7040.15
7569.79
4036.56
3973.13
4010.99
3971.26
4237.96
4095.89
4196.68
4068.31
2675.39
2326.42
2737.07
2307.8
2586.7
2173.69
2547.71
2260.76
2677.71
2332.87
2735.58
2308.32
2587.62
2201.21
2550.05
2266.87
2859.87
2490.72
2819.42
2579.4
2822.92
2531.26
2778.97
2569.05
2856.79
2505.41
2821.43
2576.52
2818.58
2539.52
2778.2
2562.09
0.165666
0.105843
2.05305
2.05495
2.06104
2.05605
2.95372
2.95542
2.81603
3.00195
2.80533
2.72276
2.9732
2.62742
3.01438
2.75962
2.94692
2.96418
2.81301
2.98813
2.80161
2.72616
2.96863
2.62839
3.00691
2.75788
0.0163396
2.86484
3.03434
2.90145
3.00326
2.83198
3.02989
2.87179
3.04735
2.90669
3.01969
2.83795
3.04425
3.03472
3.16581
2.9956
3.22465
3.03184
3.15277
2.99149
3.21453
6279.47
6870.96
3800.98
3640.84
3800.57
3653.31
3768.75
3767.03
3766.41
3755.59
2512.54
2146.74
2519.59
2151.63
2570.09
1874.64
2519.92
2137.55
2507.14
2152.12
2514.96
2148.05
2569.54
1890.43
2515.18
2140.85
2831.93
2499.67
2804.11
2555.91
2726.9
2454.18
2643.44
2513.08
2842.83
2502.84
2800.98
2553.81
2730.33
2466
2647.46
2520.17
0.235922
2.09863
2.13577
2.11103
2.1474
0.137979
2.1023
2.07108
2.10961
2.08267
2.98762
2.91236
2.87492
2.78459
2.89429
2.76879
2.89271
2.68447
2.93921
2.76547
2.97881
2.91125
2.87255
2.78276
2.89167
2.76616
2.898
2.68482
2.94114
2.76481
0.0197176
2.9158
3.11427
2.95245
3.06863
2.90327
3.05398
2.91571
3.10658
2.95049
3.06521
2.9023
3.05021
5592.68
6130.47
6700.77
3661.54
3332.4
3654.68
3338.15
1859.79
2094.24
2303.57
1801.26
2272.64
2559.29
1613.88
2368.02
1814.66
2315.55
2104.5
1913.7
2323.99
1876.09
2295.07
2563.38
1679.15
2382.19
1870.98
2333.1
2554.2
2429.66
2580.63
2423.76
2565.86
2373.26
2554.06
2441.92
2584.83
2426.73
2562.83
2360
2614.05
2440.56
2558.56
2471.8
2616.3
2465.73
2563.33
2491.19
0.280432
2.15372
2.13276
2.15948
2.12813
2.15315
2.28881
2.16083
2.30319
0.134085
2.72792
2.85848
2.74173
2.92187
2.6933
2.95014
2.60589
2.94708
2.72936
2.85878
2.74178
2.92556
2.69407
2.94822
2.60721
2.94815
2.97691
2.82873
2.90877
2.76489
2.96664
2.77566
2.96124
2.82453
2.90569
2.76386
2.96505
2.77352
0.00427492
5035.59
5453.49
5951.09
3040.05
2858.44
3022.46
2858.46
3352.07
3133.97
3356.1
3133.75
2144.64
1968.09
2223.2
2322.29
1977.38
2213.75
1701.09
2239.02
1952.62
2218.92
2199.27
2015.67
2339.2
2240.31
2013.15
2226.01
1730.08
2248.21
1988.33
2230.01
2438.02
2424.31
2501.25
2379.46
2400.2
2299.59
2446.73
2448.21
2507.89
2413.02
2410.96
2335.31
0.597386
0.283694
2.3238
2.33188
2.34482
2.33829
2.93254
2.90591
2.7958
3.00069
2.82006
2.66218
3.16109
2.84944
3.10308
2.84083
2.92464
2.91196
2.79259
2.99109
2.81715
2.6637
3.15642
2.84964
3.09859
2.83921
0.0681691
2.72656
2.87009
2.72213
2.86679
2.72811
2.926
2.72802
2.87417
2.72266
2.87256
2.72867
2.92719
-0.0250504
4646.41
4885.61
5217.95
2602.09
2406.58
2600.7
2414.26
2844.37
2659.71
2841.61
2654.45
2030.42
1556.49
2084.94
1519.83
1970.78
1222.82
1974.91
1462.17
2034.14
1573.8
2090.79
1528.14
1975.33
1253.38
1983.39
1472.03
2092.1
2245.51
1756.97
2039.74
1861.89
2090.09
2154.83
2264.16
1775.01
2045.63
1890.27
2097.31
0.768955
2.76569
2.99581
2.76456
2.98482
0.189131
2.70442
2.66154
2.72307
2.67086
2.95836
2.96621
2.77998
2.7913
2.98164
2.83937
3.14559
2.85819
3.06011
2.86377
2.94287
2.95387
2.77462
2.78568
2.97205
2.83434
3.14222
2.85555
3.0544
2.86094
0.0477018
2.74768
2.98144
2.74482
2.97029
-0.0733245
4481.8
4489.91
4647.02
4797.15
2430.11
2084.41
2414.41
2082.42
1153.52
1334.48
1622.38
1056.96
1535.67
1818.13
751.318
1476.18
993.719
1485.62
1341.27
1175.71
1631.18
1084.85
1545.96
1822.7
790.226
1487.62
1022.76
1496.59
1919.28
1669.01
1969.15
1676.73
1839.45
1609.83
1920.01
1680.27
1971.45
1676.92
1841.33
1613.01
4.43532
0.294427
4.26642
6.47716
4.26839
6.46472
0.144967
3.26605
3.38859
3.08521
3.53621
3.57976
3.27558
3.39693
3.09508
3.55417
3.65356
3.0472
2.89966
3.13308
2.97578
3.07573
2.941
3.037
2.89468
3.12697
2.97453
3.06852
2.93891
0.013309
-0.114857
4512.63
4313.64
4255.33
4188.6
1716.62
1587.16
1715.5
1599.03
2177.52
1877.14
2175.28
1876.23
1385.45
1268.46
1520.32
1610.13
1204.62
1405.78