/*--------------------------------*- C++ -*----------------------------------*\
| =========                 |                                                 |
| \\      /  F ield         | OpenFOAM: The Open Source CFD Toolbox           |
|  \\    /   O peration     | Version:  5.x                                   |
|   \\  /    A nd           | Web:      www.OpenFOAM.org                      |
|    \\/     M anipulation  |                                                 |
\*---------------------------------------------------------------------------*/
FoamFile
{
    version     2.0;
    format      ascii;
    class       surfaceScalarField;
    location    "2";
    object      phi;
}
// * * * * * * * * * * * * * * * * * * * * * * * * * * * * * * * * * * * * * //

dimensions      [0 3 -1 0 0 0 0];

internalField   nonuniform List<scalar> 
30582
(
0.000216364
-4.32543e-06
0.000220765
-4.40131e-06
0.00021619
-8.44994e-06
0.000221507
-7.41486e-07
0.000220494
-8.70592e-06
0.000215284
-1.16104e-05
0.000217269
4.23829e-06
0.000221122
-1.36888e-06
0.000219834
-1.32566e-05
0.000213811
-1.32148e-05
0.000211036
6.23272e-06
0.000216552
8.80765e-06
0.000221048
-2.58192e-06
0.000217482
-1.69274e-05
0.000211652
-1.25519e-05
0.000203853
7.18319e-06
0.000210382
1.2403e-05
0.000216978
1.28776e-05
0.00021726
-2.3601e-06
0.000215722
-2.09966e-05
0.000207012
-7.1058e-06
0.000196501
7.35132e-06
0.000203664
1.39017e-05
0.000211147
1.82337e-05
0.0002133
1.68375e-05
0.000216592
-3.23073e-06
0.000208886
-2.2871e-05
0.000203679
1.84088e-06
0.000187539
8.96285e-06
0.000196661
1.43543e-05
0.000204447
2.06011e-05
0.000208091
2.3443e-05
0.000213566
1.9864e-05
0.000207001
-1.34588e-06
0.000207279
-2.64712e-05
0.000187391
2.72675e-05
0.000176202
1.13369e-05
0.00018806
1.75635e-05
0.000197628
2.11737e-05
0.000202834
2.58584e-05
0.000209463
2.75456e-05
0.00020538
2.14851e-05
0.000207643
-1.71041e-06
0.000183518
-2.2598e-05
0.000105324
-9.89479e-05
0.000161833
1.43686e-05
0.00017695
2.2447e-05
0.000189477
2.57142e-05
0.0001974
2.66074e-05
0.000204847
3.04743e-05
0.000203747
2.91787e-05
0.000206815
2.23136e-05
0.000183106
-1.29907e-06
0.000111898
-2.91725e-05
-0.000252803
0.00015306
0.000144691
1.71423e-05
0.000162627
2.86913e-05
0.000178569
3.33556e-05
0.000190438
3.26759e-05
0.000199756
3.16982e-05
0.000201983
3.22383e-05
0.000205238
3.07555e-05
0.000187158
1.82616e-05
0.00013708
-2.64807e-05
-0.000315524
3.3548e-05
0.000176537
-2.35138e-05
0.000125721
1.89697e-05
0.00014535
3.44195e-05
0.000164164
4.30959e-05
0.000180227
4.35668e-05
0.000193209
3.92229e-05
0.000199551
3.41299e-05
0.000203433
3.40436e-05
0.000192268
2.5646e-05
0.000164757
-9.41523e-06
-0.000342967
9.62577e-07
0.000151297
5.87886e-05
7.7987e-05
-0.000101501
0.000106208
1.95134e-05
0.000126079
3.82409e-05
0.000146507
5.20767e-05
0.00016599
5.73332e-05
0.000183405
5.33717e-05
0.00019516
4.36139e-05
0.000201636
3.5927e-05
0.000197423
2.88886e-05
0.000187128
3.27483e-06
-0.000294613
-5.77689e-05
-5.67067e-05
0.000208966
0.000119478
1.72975e-05
-0.000151551
5.00501e-05
8.75283e-05
1.86794e-05
0.000106201
3.93915e-05
0.000126707
5.8041e-05
0.000147923
7.01435e-05
0.000169128
7.16102e-05
0.000186829
6.17027e-05
0.000198065
4.71845e-05
0.000201902
3.14481e-05
0.000209136
6.8807e-06
-0.000201904
-8.94347e-05
-0.000110364
-4.11171e-06
8.27644e-05
0.00024568
-0.000105976
-2.82774e-05
9.52785e-05
-4.52285e-05
7.0814e-05
1.67143e-05
8.71322e-05
3.77478e-05
0.000106361
5.9738e-05
0.000127207
7.87573e-05
0.000150344
8.89266e-05
0.000172889
8.55507e-05
0.000190708
6.90599e-05
0.000203923
4.5163e-05
0.000229593
1.09909e-05
-8.90296e-05
-0.000105993
-0.000133965
-6.5834e-05
6.99045e-05
8.74812e-06
-5.24413e-06
0.000144947
8.9858e-05
-2.28568e-05
-9.8653e-05
5.6294e-05
1.452e-05
7.00419e-05
3.38046e-05
8.69173e-05
5.71911e-05
0.000105643
8.13015e-05
0.000128464
0.000100637
0.000153266
0.00010855
0.000176875
9.93836e-05
0.000200898
7.20854e-05
0.000248753
2.60028e-05
3.68808e-05
-0.00011492
-0.000140403
-9.95545e-05
5.14338e-05
-4.73633e-05
1.72512e-05
-1.37472e-05
4.96365e-05
0.000185169
-8.56009e-05
4.41265e-05
1.21675e-05
5.55082e-05
2.90536e-05
6.94704e-05
5.12515e-05
8.51188e-05
7.77157e-05
0.00010578
0.000103986
0.000129616
0.000124287
0.000156081
0.000129344
0.000189239
0.000111042
0.000260383
6.04551e-05
0.00015672
-9.38367e-05
-0.000139417
-0.000115906
4.65879e-05
-9.47085e-05
1.54219e-05
-4.5534e-05
2.38617e-05
1.20277e-05
-2.78221e-05
3.41601e-05
9.9664e-06
4.35433e-05
2.41324e-05
5.46946e-05
4.38294e-05
6.70611e-05
6.9309e-05
8.44541e-05
9.90412e-05
0.000104714
0.000128888
0.000130389
0.000149979
0.00016814
0.000150443
0.000258204
0.000113222
0.000240622
-2.34469e-05
-9.12431e-05
-0.000142011
4.089e-05
-0.000110208
1.71156e-05
-9.64022e-05
7.41984e-06
-2.90922e-05
-3.90305e-06
2.58584e-05
8.30167e-06
3.37404e-05
1.97693e-05
4.26675e-05
3.61595e-05
5.22902e-05
5.86004e-05
6.57264e-05
8.80367e-05
8.14318e-05
0.000122323
0.000103296
0.000155981
0.000140077
0.000178042
0.000240444
0.000168203
0.000279455
7.4389e-05
2.45674e-05
-0.000139257
3.7395e-05
-0.000138516
1.48407e-05
-0.000107933
-1.76628e-07
-8.88058e-05
5.32639e-06
1.87859e-05
7.07249e-06
2.55603e-05
1.64818e-05
3.29791e-05
2.94577e-05
4.06712e-05
4.77784e-05
5.05221e-05
7.38047e-05
6.15514e-05
0.000107917
7.85621e-05
0.000147057
0.000108764
0.000187294
0.000211664
0.000206821
0.000278236
0.000169422
0.00014389
-4.49335e-05
3.25682e-05
-0.000134431
2.02354e-06
-0.000125699
-6.13107e-06
-0.000101978
7.72889e-06
1.2686e-05
6.09986e-06
1.85479e-05
1.40849e-05
2.49425e-05
2.45184e-05
3.14853e-05
3.86436e-05
3.88351e-05
5.94654e-05
4.6343e-05
8.90131e-05
5.77658e-05
0.000128713
7.86936e-05
0.000177127
0.000175716
0.000223243
0.000249099
0.000235958
0.000198586
0.000114726
4.55559e-05
-5.79211e-05
-2.33859e-05
-0.000109021
-1.29765e-05
-0.000118853
6.53272e-06
7.49895e-06
5.18707e-06
1.24462e-05
1.22016e-05
1.80128e-05
2.10146e-05
2.38646e-05
3.21391e-05
2.99553e-05
4.75234e-05
3.55464e-05
7.0262e-05
4.21088e-05
0.00010467
5.28488e-05
0.000154558
0.000138736
0.000214107
0.000207076
0.000265266
0.00019513
0.000239414
7.6047e-05
8.42352e-05
-4.37316e-05
-3.75754e-05
-2.12138e-05
-0.000100784
2.91258e-06
3.32831e-06
4.17065e-06
7.2095e-06
1.04237e-05
1.18957e-05
1.83186e-05
1.71769e-05
2.77023e-05
2.2701e-05
3.93934e-05
2.78046e-05
5.52652e-05
3.16133e-05
8.07575e-05
3.48681e-05
0.000122651
0.000106496
0.000186798
0.000171533
0.00024965
0.000153466
0.000306931
0.000118494
0.000196967
-3.16842e-05
7.21877e-05
-2.31492e-05
-3.564e-05
-6.01296e-06
4.1111e-07
2.9172e-06
2.96787e-06
8.41229e-06
6.5324e-06
1.57871e-05
1.11156e-05
2.43798e-05
1.62092e-05
3.41941e-05
2.14034e-05
4.57946e-05
2.48671e-05
6.20115e-05
2.45965e-05
9.10291e-05
8.29153e-05
0.000146231
0.000151691
0.000206641
8.62982e-05
0.000316818
0.000167649
0.000257776
-2.94785e-08
0.000165312
-2.18392e-05
7.08778e-05
-1.57081e-05
-1.0758e-06
1.48692e-06
-2.31924e-09
5.88742e-06
2.06701e-06
1.28777e-05
5.6407e-06
2.1262e-05
1.01167e-05
3.04723e-05
1.53385e-05
4.0259e-05
1.95266e-05
5.11352e-05
1.88117e-05
6.77962e-05
6.60545e-05
0.00010789
0.000139257
0.000158665
2.94315e-05
0.000263508
0.000218477
0.000265989
3.73282e-05
0.000220419
-1.17757e-05
0.000155249
-1.46395e-05
-7.6847e-07
-3.07309e-07
-1.39747e-06
2.8821e-06
-1.25158e-06
9.20604e-06
9.74252e-07
1.75442e-05
4.37359e-06
2.70052e-05
9.29239e-06
3.65184e-05
1.41777e-05
4.56079e-05
1.41116e-05
5.58353e-05
5.2493e-05
8.13577e-05
0.000131964
0.000115183
2.15689e-05
0.000166527
0.000258581
0.000223404
7.72338e-05
0.000226084
1.80204e-06
0.000206841
-1.07648e-05
1.25958e-06
-2.02804e-06
-1.35497e-06
-3.49794e-07
-3.16757e-06
4.7981e-06
-2.57471e-06
1.2755e-05
-7.09367e-07
2.26271e-05
3.24192e-06
3.30556e-05
8.35333e-06
4.23428e-05
8.8448e-06
5.08746e-05
4.06484e-05
6.76798e-05
0.000126094
8.72279e-05
5.13844e-05
8.53674e-05
0.000268998
0.00015611
0.00011221
0.000188428
1.04693e-05
0.000217416
-5.00444e-06
5.01033e-06
-3.75075e-06
5.95076e-07
-3.97809e-06
-2.92291e-06
-5.94441e-07
-4.37357e-06
6.59698e-06
-4.86264e-06
1.69083e-05
-2.49003e-06
2.83591e-05
1.98674e-06
3.94222e-05
2.47556e-06
4.8712e-05
2.87805e-05
6.27426e-05
0.000116361
7.74122e-05
8.22194e-05
5.63929e-05
0.000234577
0.000119788
0.000133466
0.000134854
1.18991e-05
0.000186998
2.93045e-06
1.02962e-05
-5.28584e-06
4.38476e-06
-7.54044e-06
-9.16102e-07
-5.9849e-06
-4.67557e-06
-2.92444e-07
-7.49221e-06
9.22655e-06
-7.43353e-06
2.18518e-05
-4.56171e-06
3.49075e-05
-4.39565e-06
4.62935e-05
1.65343e-05
6.09582e-05
0.000100081
7.90227e-05
9.80957e-05
6.1536e-05
0.000171949
0.000119021
0.000150083
0.000103171
1.24124e-05
0.000134341
8.72349e-06
1.67432e-05
-6.447e-06
9.73179e-06
-1.06329e-05
2.93734e-06
-1.13939e-05
-2.73294e-06
-7.92754e-06
-7.88019e-06
9.55367e-08
-1.0606e-05
1.2399e-05
-1.05662e-05
2.78563e-05
-1.02884e-05
4.08003e-05
4.18598e-06
5.86417e-05
7.64357e-05
8.46036e-05
9.60521e-05
8.10663e-05
0.000113087
0.000120397
0.000167485
0.00010162
2.31499e-05
9.24331e-05
5.22996e-06
2.403e-05
-7.28684e-06
1.63473e-05
-1.30625e-05
8.58912e-06
-1.62846e-05
1.26599e-06
-1.53928e-05
-6.08865e-06
-9.71908e-06
-1.14066e-05
8.96202e-07
-1.4632e-05
1.64648e-05
-1.40224e-05
3.15904e-05
-7.12426e-06
5.21105e-05
4.59688e-05
8.91087e-05
7.70687e-05
0.000103587
7.39277e-05
0.000120226
0.000177832
0.00011005
3.99132e-05
8.48564e-05
-8.80584e-06
3.16548e-05
-7.62476e-06
2.37187e-05
-1.46582e-05
1.55549e-05
-2.00283e-05
7.12126e-06
-2.21399e-05
-2.00376e-06
-1.94777e-05
-9.57151e-06
-1.15542e-05
-1.62097e-05
2.47385e-06
-1.61355e-05
1.85779e-05
-1.68729e-05
4.1339e-05
8.64134e-06
8.94379e-05
4.42487e-05
0.000121929
4.3936e-05
0.000133579
0.000167025
0.000131033
4.91262e-05
0.000100837
-2.01235e-05
3.92339e-05
-7.57909e-06
3.15067e-05
-1.54127e-05
2.33823e-05
-2.24856e-05
1.44361e-05
-2.73431e-05
4.31314e-06
-2.84568e-05
-4.96034e-06
-2.40889e-05
-1.51814e-05
-1.25824e-05
-1.67774e-05
3.11576e-06
-2.6271e-05
2.7976e-05
-3.28871e-05
8.28675e-05
1.09057e-06
0.000132596
1.2881e-05
0.000152984
0.000126214
0.000174389
4.87566e-05
0.000131403
-2.04271e-05
4.64105e-05
-7.17664e-06
3.92038e-05
-1.52762e-05
3.14902e-05
-2.35207e-05
2.27136e-05
-3.07631e-05
1.25358e-05
-3.55658e-05
1.89852e-06
-3.53156e-05
-1.07564e-05
-2.85138e-05
-1.53588e-05
-1.40011e-05
-3.49629e-05
1.18077e-05
-6.9856e-05
6.49448e-05
-4.69488e-05
0.000130907
-1.8592e-05
0.000164069
7.18763e-05
0.000207322
4.60487e-05
0.000177097
-1.40016e-05
5.29182e-05
-6.50777e-06
4.65328e-05
-1.45057e-05
3.94962e-05
-2.32822e-05
3.13291e-05
-3.21362e-05
2.17365e-05
-3.99638e-05
1.08311e-05
-4.44984e-05
-2.74297e-06
-4.33291e-05
-1.04735e-05
-3.33991e-05
-4.20547e-05
-6.90928e-06
-9.85637e-05
4.05155e-05
-8.88596e-05
0.000106856
-4.32253e-05
0.00015554
2.24195e-05
0.000213526
3.44957e-05
0.000218875
-8.18189e-06
5.84872e-05
-5.56898e-06
5.31959e-05
-1.31709e-05
4.71441e-05
-2.21536e-05
3.98302e-05
-3.17833e-05
3.11243e-05
-4.1524e-05
2.08486e-05
-4.99813e-05
7.72288e-06
-5.49642e-05
-2.36091e-06
-5.14417e-05
-4.52729e-05
-3.0181e-05
-0.000117964
1.24915e-05
-0.000119079
7.07352e-05
-6.6406e-05
0.000130036
-1.82298e-05
0.000196189
1.8587e-05
0.000229434
-2.67957e-06
6.28659e-05
-4.37866e-06
5.89584e-05
-1.13315e-05
5.40999e-05
-2.01266e-05
4.78875e-05
-3.02109e-05
4.02983e-05
-4.09573e-05
3.11515e-05
-5.18269e-05
1.97198e-05
-6.19783e-05
7.94362e-06
-6.52688e-05
-4.57041e-05
-5.10104e-05
-0.000127233
-2.09124e-05
-0.000134286
2.76986e-05
-8.68409e-05
9.11702e-05
-6.29498e-05
0.000174756
3.61289e-06
0.000211163
1.52505e-06
6.59275e-05
-3.06162e-06
6.35799e-05
-9.00017e-06
6.01291e-05
-1.73608e-05
5.5324e-05
-2.75631e-05
4.89823e-05
-3.88949e-05
4.11112e-05
-5.09171e-05
3.1436e-05
-6.35431e-05
1.86233e-05
-7.2658e-05
-4.36741e-05
-6.72988e-05
-0.000122596
-5.56474e-05
-0.000130259
-2.494e-05
-9.85483e-05
3.9406e-05
-0.000111072
0.000139293
-1.10333e-05
0.000189402
2.96866e-06
6.76592e-05
-1.73168e-06
6.69601e-05
-6.44186e-06
6.50095e-05
-1.38806e-05
6.18243e-05
-2.38611e-05
5.69953e-05
-3.55761e-05
5.06446e-05
-4.84282e-05
4.22274e-05
-6.17085e-05
2.71761e-05
-7.20958e-05
-4.02316e-05
-7.61005e-05
-0.000102173
-8.7722e-05
-0.000101639
-8.42669e-05
-0.000106449
-1.70392e-05
-0.000143917
7.22503e-05
-2.038e-05
0.000148639
6.06062e-06
-6.67804e-07
6.8327e-05
6.89896e-05
-3.76122e-06
6.84425e-05
-9.8748e-06
6.71528e-05
-1.92092e-05
6.40384e-05
-3.09042e-05
5.9589e-05
-4.45206e-05
5.21306e-05
-5.83314e-05
3.32224e-05
-6.77548e-05
-3.84098e-05
-7.39176e-05
-6.44335e-05
-0.00011384
-4.53033e-05
-0.000144058
-0.000125298
-6.5418e-05
-0.000156594
-4.36237e-06
-2.36029e-05
7.54732e-05
1.35255e-05
-1.31069e-06
6.96325e-05
3.52652e-06
6.48004e-05
7.01487e-05
-5.46749e-06
7.11722e-05
-1.38941e-05
6.97061e-05
-2.48769e-05
6.76455e-05
-3.89607e-05
6.13081e-05
-5.36981e-05
3.75637e-05
-6.26727e-05
-3.90783e-05
-6.70863e-05
-1.38135e-05
-0.000124538
2.98296e-05
-0.000188973
-0.000166007
-0.000103349
-0.000151121
-7.08911e-05
-2.1258e-05
-6.70743e-06
2.1102e-05
-1.60717e-06
7.04452e-05
7.93421e-06
6.52248e-05
6.54166e-06
5.82588e-05
7.3847e-05
-8.14233e-06
7.35711e-05
-1.77592e-05
7.4415e-05
-3.16464e-05
6.93532e-05
-4.70058e-05
4.15351e-05
-5.76695e-05
-3.82429e-05
-6.35082e-05
4.01665e-05
-0.000121066
9.65969e-05
-0.000191305
-0.000217502
-0.000137478
-0.000132514
-0.000121957
-1.4657e-05
-7.74925e-05
2.77929e-05
-2.2099e-06
7.44497e-05
1.22694e-05
6.611e-05
1.43064e-05
5.746e-05
7.35101e-06
5.09078e-05
7.54497e-05
-1.00209e-05
7.95717e-05
-2.29159e-05
7.56277e-05
-3.79209e-05
4.53811e-05
-5.08518e-05
-3.2753e-05
-6.31593e-05
9.1094e-05
-0.000114436
0.000126443
-0.000150913
-0.000255073
-0.000153735
-0.000112963
-0.00015703
-5.08947e-06
-0.000131525
2.58167e-05
-2.6097e-06
7.58494e-05
1.86811e-05
6.80381e-05
2.27256e-05
5.76909e-05
1.69376e-05
4.78734e-05
-3.3802e-06
5.4288e-05
8.30843e-05
-1.35335e-05
7.96182e-05
-2.69064e-05
4.86037e-05
-4.11434e-05
-2.22461e-05
-6.13587e-05
0.000137093
-0.000109159
0.000121629
-0.000109622
-0.000260143
-0.000145844
-9.61551e-05
-0.000170546
-1.74375e-06
-0.000160377
1.74519e-05
-3.04842e-06
8.3523e-05
2.44394e-05
7.00911e-05
3.39583e-05
5.68053e-05
2.75752e-05
4.70533e-05
-2.06461e-06
4.65579e-05
-1.82036e-05
7.24917e-05
8.13845e-05
-1.52999e-05
5.06688e-05
-2.89716e-05
-8.70462e-06
-5.4685e-05
0.000180763
-0.000105029
9.0262e-05
-7.77927e-05
-0.000240224
-0.000129543
-8.01766e-05
-0.000161825
-5.4321e-06
-0.000166859
7.19013e-06
-2.95766e-06
8.12938e-05
3.37949e-05
7.41675e-05
4.69486e-05
5.71008e-05
4.16286e-05
4.2752e-05
2.68086e-06
4.23079e-05
-2.58315e-05
5.41858e-05
-5.82668e-05
0.000130758
5.11368e-05
-1.57679e-05
5.06724e-06
-4.27434e-05
0.000217961
-9.18827e-05
4.08044e-05
-5.55717e-05
-0.000213804
-0.000104213
-7.09174e-05
-0.000138804
-1.12611e-05
-0.000155997
8.36428e-07
-1.25295e-06
4.94321e-05
4.42033e-05
7.08854e-05
6.34096e-05
5.77065e-05
5.80733e-05
4.06561e-05
1.65546e-05
2.88783e-05
-2.39591e-05
4.04355e-05
-9.98388e-05
9.57579e-05
-7.81693e-05
0.000208928
1.58785e-05
-2.65791e-05
0.000240863
-6.56456e-05
-1.16505e-05
-3.94274e-05
-0.00018976
-7.96158e-05
-6.01171e-05
-0.000115014
-1.36197e-05
-0.000136446
-1.69215e-06
-1.03367e-05
2.49622e-05
5.69267e-05
3.67087e-05
8.298e-05
5.13151e-05
7.81762e-05
3.76036e-05
3.69236e-05
2.02871e-05
-1.16517e-05
1.65709e-05
-0.00011744
5.80372e-05
-0.000151171
0.00016876
-0.000131002
0.00033993
0.000255109
-4.08249e-05
-5.14391e-05
-2.58561e-05
-0.000168311
-6.08748e-05
-4.74482e-05
-9.2284e-05
-1.37862e-05
-0.000114847
-2.76421e-06
-2.9027e-05
0.0002738
4.23536e-05
3.95354e-05
0.000102042
1.76471e-05
0.000100956
2.85354e-05
6.44043e-05
1.01229e-05
1.00243e-05
-1.38879e-06
-0.00011155
1.06809e-05
-0.000208161
0.000115027
-0.000236001
0.000273759
-1.17564e-05
0.000351686
-7.62327e-05
-1.60305e-05
-0.000144714
-4.94522e-05
-3.62469e-05
-7.20749e-05
-1.42253e-05
-9.18443e-05
-4.0391e-06
-9.67549e-06
-9.55838e-05
4.26077e-05
0.000273546
0.000111014
3.05629e-05
0.000124785
-6.18184e-06
9.68012e-05
-3.86152e-06
4.50529e-05
-2.49057e-05
-7.77675e-05
-3.51716e-05
-0.000226528
2.90478e-05
-0.000313701
0.000192727
-8.92548e-05
0.000351258
5.74252e-05
0.000294261
-0.000123408
-3.73359e-05
-3.17081e-05
-5.39901e-05
-1.52357e-05
-7.10639e-05
-4.03833e-06
-1.67045e-05
-0.000116379
3.96376e-05
-9.2614e-05
0.000177165
0.000207394
0.000150644
4.70339e-06
0.000130888
-4.02685e-05
8.74635e-05
-4.62722e-05
-1.29413e-05
-8.97319e-05
-0.000189619
-7.20809e-05
-0.000377676
9.30224e-05
-0.000240379
0.000343852
0.000104022
0.000304661
0.00194221
0.000681834
-0.00232978
-3.25183e-05
-3.65255e-05
-1.6898e-05
-5.23274e-05
-3.29615e-06
-1.45184e-05
-3.47049e-05
3.53483e-05
-0.000112091
0.000164016
-7.94656e-05
0.000227399
0.000130639
0.000174355
-3.87636e-05
0.000125257
-7.8062e-05
6.7043e-05
-0.000126256
-8.25999e-05
-0.000196751
-0.000368633
-8.11238e-05
-0.000397938
0.000250581
9.34049e-05
0.000354469
0.00150479
0.000742083
0.00234164
0.000820136
-0.00247995
0.000443771
-0.00277355
-1.84612e-05
-3.49623e-05
-3.00433e-06
-1.14364e-05
-2.15437e-05
4.51835e-05
-4.45414e-05
0.00017355
-0.000121626
0.000241632
-9.36993e-05
0.000266532
3.84616e-05
0.000164197
-7.77036e-05
0.000128922
-0.000139941
4.76223e-05
-0.000256479
-0.000236919
-0.000328464
-0.000428146
-5.09163e-05
2.06261e-05
0.00032336
0.0011479
0.000711354
0.00210312
0.000980608
0.00214336
0.000856116
-0.00217934
0.000545744
-0.00258192
0.000250722
-0.00302427
-3.40602e-06
-4.06628e-06
5.09691e-05
-2.73301e-05
0.000190306
-6.12985e-05
0.000268284
-0.000148279
0.000319849
-0.000147017
0.000223994
-2.13356e-05
0.000163802
-0.000112584
0.000136645
-0.000228964
-5.04775e-05
-0.000442921
-0.000356283
-0.000400327
-0.00010478
7.44903e-05
0.000924058
0.000547202
0.00180884
0.00100563
0.00202798
0.00109599
0.00185511
0.000899232
-0.00189822
0.000582088
-0.00221568
0.000363524
-0.00269472
0.000157567
-0.00318184
-7.72655e-06
0.000198354
-3.53793e-05
0.000303867
-9.6882e-05
0.000373483
-0.000201912
0.000353778
-0.0002768
0.000206197
-6.373e-05
0.00014121
-0.000117148
0.000117513
-0.000396955
-0.000211395
-0.000587808
-0.000253021
-0.000252087
0.000669261
0.000329287
0.00146505
0.000890993
0.00185024
0.00118337
0.00176417
0.00118693
0.001664
0.000996258
-0.00176102
0.000681304
-0.00199744
0.000430875
-0.00228303
0.00020838
-0.00274553
5.55984e-05
-0.00323744
-1.41855e-05
0.000325509
-5.70207e-05
0.000439645
-0.000163043
0.000474723
-0.000322855
0.000443892
-0.000514494
0.00012174
-4.42604e-05
0.000241275
-0.00024091
-1.54708e-05
-0.000592879
-0.000224479
-0.000616351
0.000434076
-1.69012e-05
0.00110287
0.000691467
0.00163021
0.00111102
0.00161347
0.00133407
0.00159172
0.00125921
0.00144351
0.00121122
-0.00165848
0.000879222
-0.00195894
0.000590701
-0.00215727
0.000313868
-0.00238852
0.000102471
-0.00279241
1.63378e-05
-0.00325378
-2.51812e-05
0.00048671
-0.000104086
0.000599431
-0.000287749
0.000654553
-0.000533514
0.000514817
-0.000907569
0.000186737
1.02782e-05
0.000319907
-0.000576288
-0.000145612
-0.000671746
0.000248963
-0.000431238
0.000784503
0.000301468
0.00136874
0.000952941
0.0014329
0.00129158
0.00143627
0.00148951
0.00131044
0.00139229
0.00136366
0.000352972
-0.00158336
0.000352519
0.000362797
0.000362634
0.00114274
-0.00192199
0.000806395
-0.00217463
0.000500804
-0.0023442
0.000198401
-0.00248445
3.6632e-05
-0.0028127
-3.67835e-05
-0.00321699
-4.49314e-05
0.000697185
-0.000201839
0.000851298
-0.000484493
0.000929503
-0.000948198
0.000835539
-0.00155637
0.000692147
-0.000361961
-1.45171e-05
-0.000707383
3.31207e-05
-0.000455904
0.000458396
-0.00010513
0.000989094
0.000681114
0.00124094
0.0011449
0.00120301
0.00152484
0.00120503
0.00159492
0.00108319
0.00167276
-6.89091e-07
0.000293822
-0.000333553
0.000393393
0.000349857
-0.00185245
0.000349566
0.000355972
0.00035643
0.000293947
-0.000333649
0.000391531
-4.46855e-07
0.00025609
0.000400975
0.000257277
0.000398857
0.00108572
-0.00220132
0.000719031
-0.00239286
0.000334249
-0.00248005
6.00754e-05
-0.0025079
-5.5019e-05
-0.00279446
-6.46019e-05
-0.00315239
-8.44454e-05
0.00101697
-0.000367514
0.00121459
-0.000769579
0.00150355
-0.00161621
0.0015157
-0.00237992
0.000752543
-0.00112902
-0.000255718
-0.000418544
0.000169423
-0.000166931
0.000517607
0.000366357
0.00102966
0.000892393
0.000940286
0.00140763
0.00105895
0.00167093
0.000865999
0.00181211
-0.000215811
-0.000216848
0.000785002
0.000445052
0.000443868
0.000472278
0.000472584
-7.90905e-07
-0.000371177
0.000388271
-4.00629e-07
0.000234051
-0.00026753
0.000427273
-0.0021357
0.00136897
-0.000371036
0.000386163
-6.25798e-07
-0.000400304
0.000385726
-0.000399064
0.000383831
0.000234402
-0.000267025
0.000423754
-2.17042e-07
0.000419432
0.000416194
0.000938403
-0.00242069
0.00046525
-0.00252386
8.74266e-05
-0.0025074
-9.60846e-05
-0.00246683
-0.000118959
-0.00274011
-0.000121277
-0.00303111
-0.000154523
0.00141723
-0.000570151
0.00184547
-0.00111149
0.00200546
-0.00210596
0.00103707
-0.00266445
-7.54029e-05
-0.00130934
-9.82309e-05
-0.00015089
0.000217305
0.000133372
0.000714652
0.000681366
0.000688155
0.00114452
0.00085862
0.00160795
0.000688098
0.00184883
0.00062434
0.000486874
0.000487218
0.00049948
0.0004992
2.7589e-07
0.000120159
-0.000148942
0.000473559
0.000119174
-0.000147523
0.000472493
-1.94648e-07
0.000102915
0.000489716
0.000102433
0.000489131
-4.25961e-07
-0.000300439
0.000421605
1.1584e-06
0.000182191
-0.000209849
0.000128057
9.73612e-05
0.000123395
0.000104958
-0.00234398
0.00114668
0.000331337
0.000330566
-0.00179015
0.000424313
0.000424815
0.000424802
0.00042392
-0.000299788
0.0004185
-3.89621e-07
0.000417014
0.00041422
0.000181569
-0.000209566
0.000127242
9.8494e-05
0.00012279
0.000104383
9.34359e-07
0.000125624
9.90999e-05
0.000124777
0.000102246
0.000124939
0.000100346
0.000124107
0.000101782
0.00057958
-0.00253502
0.000133247
-0.00256968
-0.00015462
-0.00244887
-0.000220698
-0.00236509
-0.000202376
-0.00265901
-0.000181538
-0.00284958
-0.000253396
0.00191442
-0.000639094
0.00219225
-0.00129829
0.0011145
-0.00218339
-0.000277095
-0.00246275
-0.000342276
-0.00106529
1.7127e-05
4.92874e-05
0.000359734
0.00048829
0.000474437
0.000895084
0.000640827
0.00136232
0.000526267
0.00176978
0.000503319
0.000488479
0.000488335
0.000496951
0.000496085
-2.37355e-07
8.54465e-05
0.000504579
8.54777e-05
0.000503936
-2.78171e-07
6.85961e-05
0.000516609
6.85341e-05
0.000515865
3.30664e-07
4.42093e-05
-2.54956e-05
-1.01189e-05
0.000107025
-1.97643e-05
0.000133525
0.000110932
0.000135319
-2.43093e-06
4.38853e-05
-2.56986e-05
-1.00215e-05
-1.97507e-05
0.000107256
0.000133488
0.000111011
0.000135238
-2.58367e-06
6.27352e-07
2.88876e-05
0.000115773
0.000137539
0.000114034
0.00013702
2.91043e-05
0.000116003
0.000137455
0.00011413
0.00013695
1.19641e-06
-0.000241578
0.000125552
9.94278e-05
0.000125208
0.00010195
-2.80201e-05
9.34612e-06
1.63115e-07
2.65111e-05
0.000120057
-9.37102e-06
2.57622e-05
-3.02379e-05
0.000111208
2.44683e-07
-3.21511e-05
0.000117911
2.54107e-05
0.000114656
-0.00252069
0.000756296
-0.00204464
0.000332996
0.000333017
0.000367231
0.000367927
-2.21931e-07
0.000293567
-0.000322326
0.000453294
0.000294305
-0.000322862
0.00045315
4.2692e-07
0.000272415
0.000445527
0.00027372
0.000444933
-0.000241364
0.000124821
0.000100632
0.000124529
0.000101512
1.10464e-06
0.000124313
9.75232e-05
0.000122776
0.000102134
0.000123732
9.95806e-05
0.000122389
0.000101978
-2.80517e-05
9.18259e-06
2.64376e-05
0.000119837
-9.1011e-06
2.62447e-05
-3.05578e-05
0.000111908
-3.21386e-05
0.00011802
2.54213e-05
0.000114389
2.14768e-05
1.03301e-05
2.31891e-07
0.000120096
-1.57393e-05
-2.27119e-05
0.000112056
2.89681e-07
0.000120103
0.000115275
2.14159e-05
1.03365e-05
0.000119856
-1.55601e-05
-2.26685e-05
0.000112876
0.000120231
0.000114871
0.000190431
-0.0025922
-0.000199997
-0.00252431
-0.000357327
-0.00231224
-0.000336093
-0.00223137
-0.000330467
-0.00251008
-0.000280981
-0.0025686
-0.000282979
0.00206486
-0.000511702
0.00122493
-0.00140871
-0.000514854
-0.00194563
-0.000882244
-0.00192279
-0.000307375
-0.000740788
7.94688e-05
0.000329552
0.000238397
0.00072433
0.000391005
0.00114491
0.000379052
0.00150953
0.000362387
0.0004758
0.00047532
0.000480084
0.000479514
-1.65008e-07
4.6283e-05
0.000510957
4.64839e-05
0.00051022
-1.28952e-07
3.73993e-05
0.000505964
3.7637e-05
0.000504803
9.08964e-07
1.7686e-05
0.000117798
0.000138022
0.000119247
0.000139773
1.78278e-05
0.000118183
0.000137974
0.000120228
0.000139726
1.18738e-06
6.89302e-06
0.000121889
0.000141972
0.000120688
0.000141672
6.90946e-06
0.000122772
0.000141843
0.000121786
0.000141589
-6.18483e-06
-3.66365e-06
-5.96414e-06
0.000122837
-6.15108e-06
-1.42124e-05
0.000112655
-4.23053e-06
-5.24286e-08
0.000132968
-1.31375e-06
-7.24312e-06
-5.54791e-06
0.000120059
-1.35083e-08
-4.73329e-06
0.000128608
1.45593e-07
-8.4109e-06
0.00011977
-6.23342e-06
-1.42818e-05
0.00011364
-6.00738e-06
-3.61023e-06
-6.28726e-06
0.00012316
-4.2314e-06
-1.35842e-06
0.000133018
-7.15332e-06
-5.49844e-06
0.000120052
-4.72844e-06
0.000128569
-8.44091e-06
0.000120001
-7.55632e-06
7.73815e-06
-8.88266e-06
0.000124473
6.72754e-06
2.62934e-08
-7.61942e-06
0.000130848
-7.66553e-06
0.00012389
5.98241e-09
0.000131372
-7.49382e-06
7.69503e-06
-8.86951e-06
0.000124671
6.70391e-06
-7.58008e-06
0.000130864
-7.58121e-06
0.000123908
0.00013135
3.42156e-05
9.68746e-06
1.599e-07
-3.7506e-05
0.000118996
-9.43933e-06
-3.27732e-05
0.000111402
2.24213e-07
0.000117609
-3.49353e-05
0.0001138
-1.56359e-05
1.55268e-06
1.68536e-08
1.16497e-05
0.000122474
-1.5401e-06
1.52495e-05
-1.58449e-05
0.000113343
-1.27717e-08
-1.64188e-05
0.000117149
1.24058e-05
0.000119052
-0.00256506
0.000234795
-0.00224263
0.000215514
0.000215065
0.000261794
0.000261921
-2.22447e-07
0.000353689
-0.000374
0.00035353
0.00035368
-0.000373798
0.000352912
-2.31882e-07
0.000398825
0.000398513
7.49524e-07
0.000164319
-0.000176303
0.000103219
0.000128048
0.000104254
0.000128975
0.000164152
-0.000175342
0.000103604
0.000127958
0.000104603
0.000128924
6.16038e-07
3.05785e-05
5.23592e-05
0.000103064
1.73624e-05
0.000129179
0.000104767
0.000131218
4.06885e-05
3.06196e-05
5.22326e-05
0.000103435
1.74934e-05
0.000129144
0.000105008
0.000131107
4.06605e-05
3.41706e-05
9.5458e-06
-3.75077e-05
0.000118773
-9.13002e-06
-3.25967e-05
0.000111801
0.000117655
-3.50092e-05
0.000113471
-4.16445e-05
9.96688e-06
1.57464e-07
0.000118327
-1.73663e-05
3.62521e-05
0.000109216
1.84754e-07
0.000115925
0.000113417
-4.17081e-05
9.81842e-06
0.000118272
-1.68289e-05
3.66865e-05
0.000110343
0.00011627
0.000113473
-1.561e-05
1.45085e-06
1.1649e-05
0.000122364
-1.42729e-06
1.51366e-05
-1.57069e-05
0.000113906
-1.63829e-05
0.000117353
1.24377e-05
0.000118539
3.34439e-06
1.54389e-08
0.000119994
0.000116813
3.29662e-06
0.000119783
0.000116324
-0.000237705
-0.00255449
-0.000492804
-0.00238883
-0.000533393
-0.00211494
-0.00049582
-0.00206602
-0.000498051
-0.00229301
-0.000423429
-0.00214517
-0.000154684
0.00117554
-0.000462313
-0.000438776
-0.00148479
-0.00110056
-0.00172732
-0.000801031
-0.00142913
-0.000122006
-0.000539313
1.2293e-05
0.000555656
0.000142534
0.000972801
0.000177015
0.00134694
0.000200322
0.000418413
0.000417884
0.000417776
0.000417526
-6.44858e-08
3.1293e-05
0.00048197
3.15819e-05
0.00048131
-9.171e-08
2.69631e-05
0.000484505
2.71634e-05
0.00048384
1.0734e-06
1.1367e-06
0.000118568
0.000138602
0.000119574
0.00013893
1.08908e-06
0.000119391
0.000138491
0.000120495
0.000138729
1.16207e-06
-5.92484e-06
0.000119283
0.000137521
0.000118159
0.000136874
-6.58173e-06
0.000120392
0.000137391
0.000119129
0.000136699
-7.14399e-06
-1.00111e-05
0.00012607
-9.14433e-06
3.33684e-08
0.000132384
-7.51896e-06
-9.788e-06
0.000126547
-1.16084e-08
-9.2313e-06
0.000132386
-7.08218e-06
-1.00203e-05
0.000126416
-9.12242e-06
0.000132468
-7.19902e-06
-9.85482e-06
0.000127262
-9.24627e-06
0.00013263
-7.65431e-06
1.15971e-05
-1.2486e-05
0.000130428
1.08744e-05
2.76436e-08
-1.2221e-05
0.000135656
-7.76185e-06
0.000130254
-1.1412e-08
0.000135547
-7.36321e-06
1.15495e-05
-1.25812e-05
0.000131167
1.08665e-05
-1.22291e-05
0.000135879
-7.41944e-06
0.0001309
0.000135788
-2.56859e-06
-1.08577e-07
-5.28547e-07
-2.30407e-05
-2.46278e-05
-1.49849e-08
-4.91393e-08
2.4485e-06
-7.43295e-07
-8.58889e-06
-2.16793e-08
-8.74476e-06
-2.46573e-06
-9.92598e-09
-4.92318e-07
-2.30647e-05
2.48697e-06
-2.46299e-05
-6.99348e-07
-8.59545e-06
-8.75129e-06
-1.02074e-06
8.48137e-06
-8.69861e-06
8.15623e-06
-2.70574e-08
-8.66804e-06
-8.30167e-07
-1.50217e-08
-9.62044e-07
8.47726e-06
-8.78256e-06
8.15193e-06
-8.68939e-06
-8.07937e-07
1.8142e-05
1.99151e-06
-3.28412e-08
-2.31509e-05
0.000122059
-1.53827e-06
-1.69208e-05
0.000114017
-1.79995e-08
0.000117827
-1.98178e-05
0.000118688
-1.47192e-06
6.57521e-07
3.95948e-08
-1.61733e-06
-6.56305e-07
1.04918e-06
-1.34813e-06
-2.46384e-08
-1.81392e-06
-1.64752e-06
-0.00252996
-0.000272802
-0.00232476
5.76863e-05
5.68908e-05
0.000101377
0.000100971
1.0009e-08
0.000380807
-0.00036758
0.000202276
0.000380056
-0.000366972
0.000201992
8.37302e-08
0.000268518
0.000268262
1.28343e-06
0.000189487
-0.000197118
7.28004e-05
9.65933e-05
8.3319e-05
0.000107141
0.00018842
-0.000196307
7.38829e-05
9.65471e-05
8.45733e-05
0.000107098
1.05821e-06
9.29037e-05
0.000116293
8.86283e-05
0.000113092
9.34626e-05
0.000116255
8.98392e-05
0.000113083
-8.4639e-06
1.71333e-05
-1.51586e-05
0.000109708
1.88794e-05
-7.00318e-08
-1.69318e-05
0.000117755
-8.31701e-06
1.59295e-05
0.000113775
-5.33218e-08
1.76819e-05
0.000121909
-8.21165e-06
1.71877e-05
-1.5453e-05
0.000110081
1.88717e-05
-1.69875e-05
0.000117792
-8.11726e-06
1.59435e-05
0.000113964
1.76606e-05
0.000121965
-6.11551e-06
-1.15787e-05
-3.32795e-06
0.000124086
-7.94981e-06
1.92959e-05
0.000115232
-1.46682e-05
-2.70022e-08
0.000134424
3.3697e-06
-8.10016e-06
0.000117218
-2.50821e-08
0.000126157
4.5704e-08
2.76253e-05
0.000120975
-5.91935e-06
-1.14932e-05
-3.69994e-06
0.000124548
-8.01824e-06
1.93411e-05
0.000116513
-1.46122e-05
0.000134519
3.2908e-06
-7.94094e-06
0.0001174
0.00012619
2.7608e-05
0.00012135
1.81382e-05
1.83765e-06
-2.31025e-05
0.000121866
-1.42308e-06
-1.6964e-05
0.000114481
0.00011797