/*--------------------------------*- C++ -*----------------------------------*\
| =========                 |                                                 |
| \\      /  F ield         | OpenFOAM: The Open Source CFD Toolbox           |
|  \\    /   O peration     | Version:  5.x                                   |
|   \\  /    A nd           | Web:      www.OpenFOAM.org                      |
|    \\/     M anipulation  |                                                 |
\*---------------------------------------------------------------------------*/
FoamFile
{
    version     2.0;
    format      ascii;
    class       volScalarField;
    location    "2";
    object      rAU;
}
// * * * * * * * * * * * * * * * * * * * * * * * * * * * * * * * * * * * * * //

dimensions      [-1 3 1 0 0 0 0];

internalField   nonuniform List<scalar> 
12160
(
1.36157e-06
1.3615e-06
1.36154e-06
1.36146e-06
1.36147e-06
1.36151e-06
1.36201e-06
1.36146e-06
1.36144e-06
1.3615e-06
1.36296e-06
1.36209e-06
1.36229e-06
1.36142e-06
1.3615e-06
1.36333e-06
1.36303e-06
1.36305e-06
1.36174e-06
1.3614e-06
1.36155e-06
1.36333e-06
1.36327e-06
1.36312e-06
1.36255e-06
1.36241e-06
1.36142e-06
1.36161e-06
1.36336e-06
1.36327e-06
1.36321e-06
1.36318e-06
1.36321e-06
1.36217e-06
1.36154e-06
1.36161e-06
1.36336e-06
1.36328e-06
1.3632e-06
1.36316e-06
1.36314e-06
1.3629e-06
1.36247e-06
1.37165e-06
2.5435e-06
1.36336e-06
1.36328e-06
1.36316e-06
1.36315e-06
1.36311e-06
1.36312e-06
1.36318e-06
1.36967e-06
2.34541e-06
6.39664e-05
1.36336e-06
1.3633e-06
1.36328e-06
1.36309e-06
1.3631e-06
1.36308e-06
1.3631e-06
1.368e-06
2.31532e-06
6.1064e-05
0.000701191
1.36336e-06
1.36332e-06
1.3633e-06
1.3632e-06
1.36303e-06
1.36306e-06
1.363e-06
1.36959e-06
2.24271e-06
5.96926e-05
0.00105267
0.0013488
1.36336e-06
1.36333e-06
1.36332e-06
1.36323e-06
1.3632e-06
1.36298e-06
1.36252e-06
1.37203e-06
2.1918e-06
5.20787e-05
0.00129093
0.00135976
0.00136208
1.36336e-06
1.36334e-06
1.36333e-06
1.36325e-06
1.36323e-06
1.36313e-06
1.36235e-06
1.37442e-06
2.13104e-06
4.19375e-05
0.00130905
0.00136173
0.00136233
0.00136255
1.36327e-06
1.36335e-06
1.36334e-06
1.36326e-06
1.36325e-06
1.36318e-06
1.36294e-06
1.37552e-06
2.05818e-06
3.33647e-05
0.00126504
0.00136288
0.00136141
0.00136261
0.00136253
1.36328e-06
1.36326e-06
1.36335e-06
1.36326e-06
1.36326e-06
1.36322e-06
1.36321e-06
1.37579e-06
1.98869e-06
2.46793e-05
0.00120774
0.00136275
0.00136322
0.00136161
0.00136181
1.36329e-06
1.36328e-06
1.36335e-06
1.36326e-06
1.36326e-06
1.36323e-06
1.36324e-06
1.37536e-06
1.92379e-06
1.75965e-05
0.00108188
0.00136229
0.00136292
0.00136301
0.0013616
1.3633e-06
1.36329e-06
1.36335e-06
1.36326e-06
1.36326e-06
1.36322e-06
1.36325e-06
1.37437e-06
1.87265e-06
1.32445e-05
0.000887505
0.00136181
0.00136247
0.00136306
0.00136298
1.3633e-06
1.3633e-06
1.36335e-06
1.36328e-06
1.36326e-06
1.36318e-06
1.36323e-06
1.37286e-06
1.83954e-06
1.1005e-05
0.000610615
0.00136177
0.00136226
0.0013625
0.00136251
1.36334e-06
1.3633e-06
1.36335e-06
1.36327e-06
1.36328e-06
1.36314e-06
1.36318e-06
1.37027e-06
1.81623e-06
9.96251e-06
0.000371209
0.00136008
0.00136267
0.00136234
0.00136114
1.36335e-06
1.36333e-06
1.36335e-06
1.36325e-06
1.36327e-06
1.36311e-06
1.36314e-06
1.36671e-06
1.78945e-06
9.49731e-06
0.000275053
0.00135738
0.00136218
0.00136216
0.00136086
1.36335e-06
1.36334e-06
1.36334e-06
1.36323e-06
1.36298e-06
1.36309e-06
1.36311e-06
1.36335e-06
1.74605e-06
9.18264e-06
0.000237692
0.00134661
0.00136288
0.00136234
0.00136044
1.36335e-06
1.36333e-06
1.36334e-06
1.36322e-06
1.36301e-06
1.36279e-06
1.36272e-06
1.36272e-06
1.68414e-06
8.65675e-06
0.000219542
0.00133502
0.00136297
0.00136315
0.00136096
1.36335e-06
1.36332e-06
1.36323e-06
1.36322e-06
1.36302e-06
1.36286e-06
1.36271e-06
1.36249e-06
1.61135e-06
7.65487e-06
0.000199768
0.00132482
0.00136332
0.00136298
0.0013628
1.36333e-06
1.36332e-06
1.36324e-06
1.36312e-06
1.36303e-06
1.36291e-06
1.3628e-06
1.36263e-06
1.5404e-06
6.28874e-06
0.000161772
0.0013119
0.00136247
0.00136274
0.001363
1.36334e-06
1.36332e-06
1.36326e-06
1.36316e-06
1.36305e-06
1.36295e-06
1.36285e-06
1.36274e-06
1.482e-06
4.90362e-06
0.000110328
0.00129243
0.00136193
0.00136332
0.00136198
1.36333e-06
1.36335e-06
1.36329e-06
1.3632e-06
1.36309e-06
1.36298e-06
1.36289e-06
1.36278e-06
1.44184e-06
3.80115e-06
6.75693e-05
0.00124947
0.0013621
0.00136328
0.00136227
1.36332e-06
1.36331e-06
1.36335e-06
1.36327e-06
1.36315e-06
1.36303e-06
1.36306e-06
1.36282e-06
1.41674e-06
3.02925e-06
4.04806e-05
0.00112725
0.00136234
0.00136327
0.00136222
1.36332e-06
1.36328e-06
1.36329e-06
1.36334e-06
1.36324e-06
1.36309e-06
1.36315e-06
1.36298e-06
1.40179e-06
2.52847e-06
2.50479e-05
0.00085178
0.00136196
0.00136261
0.00136238
1.36332e-06
1.36332e-06
1.36324e-06
1.36326e-06
1.36334e-06
1.3632e-06
1.3632e-06
1.36307e-06
1.39348e-06
2.21375e-06
1.66112e-05
0.00053816
0.00135836
0.00136333
0.0013619
1.36333e-06
1.36332e-06
1.36324e-06
1.36318e-06
1.36324e-06
1.36333e-06
1.36315e-06
1.36314e-06
1.38958e-06
2.02508e-06
1.19923e-05
0.000321933
0.0013475
0.00136277
0.00136273
1.36333e-06
1.36333e-06
1.36323e-06
1.3631e-06
1.36313e-06
1.36322e-06
1.36331e-06
1.3632e-06
1.38859e-06
1.92501e-06
9.46824e-06
0.000200612
0.00131935
0.00136263
0.00136277
1.36333e-06
1.36333e-06
1.36322e-06
1.36323e-06
1.36302e-06
1.36307e-06
1.36324e-06
1.36329e-06
1.3898e-06
1.89082e-06
8.17709e-06
0.000137879
0.0012645
0.00136249
0.00136276
1.36333e-06
1.36333e-06
1.36322e-06
1.36322e-06
1.36311e-06
1.36293e-06
1.36301e-06
1.36331e-06
1.39339e-06
1.91169e-06
7.71045e-06
0.000108054
0.00118466
0.00136201
0.00136261
1.36333e-06
1.36333e-06
1.36322e-06
1.36322e-06
1.36307e-06
1.3628e-06
1.36283e-06
1.36318e-06
1.40094e-06
1.99368e-06
7.9533e-06
9.76022e-05
0.00110891
0.00136133
0.00136231
1.36333e-06
1.36333e-06
1.36323e-06
1.36322e-06
1.36306e-06
1.36272e-06
1.36267e-06
1.36314e-06
1.41458e-06
2.15416e-06
8.95038e-06
0.000102512
0.00107305
0.00135926
0.00136202
1.36333e-06
1.36333e-06
1.36324e-06
1.36323e-06
1.36305e-06
1.36269e-06
1.36257e-06
1.36331e-06
1.43846e-06
2.42589e-06
1.09703e-05
0.000123805
0.00108842
0.00135912
0.00136052
1.36333e-06
1.36333e-06
1.36325e-06
1.36324e-06
1.36306e-06
1.36269e-06
1.36253e-06
1.36407e-06
1.47908e-06
2.86757e-06
1.46962e-05
0.000169906
0.00114881
0.00135945
0.00136069
1.36334e-06
1.36333e-06
1.36325e-06
1.36325e-06
1.36309e-06
1.36271e-06
1.36294e-06
1.36577e-06
1.54395e-06
3.5885e-06
2.1735e-05
0.000258027
0.00123064
0.00136136
0.00136093
1.36313e-06
1.36331e-06
1.36328e-06
1.36325e-06
1.36312e-06
1.36275e-06
1.36303e-06
1.37084e-06
1.63705e-06
4.79202e-06
3.55621e-05
0.0004191
0.00129687
0.00136235
0.00136241
1.36311e-06
1.36302e-06
1.36328e-06
1.36316e-06
1.36316e-06
1.36282e-06
1.36313e-06
1.37934e-06
1.76392e-06
6.83061e-06
6.37582e-05
0.000679854
0.0013349
0.00136313
0.00136288
1.3631e-06
1.36299e-06
1.36311e-06
1.36324e-06
1.3631e-06
1.36291e-06
1.36335e-06
1.39237e-06
1.93878e-06
1.00665e-05
0.000117976
0.000986416
0.00135221
0.00136261
0.00136299
1.36308e-06
1.36299e-06
1.36305e-06
1.36314e-06
1.36321e-06
1.36303e-06
1.36371e-06
1.41016e-06
2.1679e-06
1.47733e-05
0.000205936
0.00119827
0.00135865
0.00136175
0.00136067
1.36307e-06
1.36302e-06
1.36301e-06
1.36311e-06
1.36288e-06
1.36316e-06
1.36425e-06
1.43217e-06
2.45721e-06
2.15632e-05
0.000329521
0.00129106
0.00136125
0.00136107
0.00135881
1.36304e-06
1.3631e-06
1.36301e-06
1.36302e-06
1.36295e-06
1.36307e-06
1.36495e-06
1.45724e-06
2.80695e-06
3.13039e-05
0.000483917
0.00132763
0.00136189
0.00136091
0.00135769
1.36548e-06
1.36305e-06
1.36305e-06
1.36297e-06
1.36297e-06
1.36295e-06
1.36284e-06
1.48382e-06
3.2061e-06
4.46911e-05
0.000655696
0.00134335
0.00136226
0.00136132
0.0013572
1.50894e-06
1.36669e-06
1.36296e-06
1.36287e-06
1.36316e-06
1.363e-06
1.36275e-06
1.36283e-06
3.62843e-06
6.16377e-05
0.000819232
0.00135104
0.00136226
0.00136235
0.00135754
4.05218e-06
1.5467e-06
1.36831e-06
1.36277e-06
1.36319e-06
1.36331e-06
1.36303e-06
1.3629e-06
1.36203e-06
8.01463e-05
0.000949768
0.00135539
0.00136218
0.00136273
0.00135867
0.00010016
4.7831e-06
1.58487e-06
1.36907e-06
1.36311e-06
1.36335e-06
1.3633e-06
1.36319e-06
1.3622e-06
1.35953e-06
0.00104187
0.00135807
0.00136231
0.00136259
0.0013596
0.00113434
0.000144365
5.52003e-06
1.59265e-06
1.37097e-06
1.3633e-06
1.36334e-06
1.36336e-06
1.36227e-06
1.35973e-06
1.3587e-06
0.00135968
0.00136251
0.00136259
0.00136016
0.001361
0.00123899
0.000170164
5.65813e-06
1.60455e-06
1.37242e-06
1.36356e-06
1.3632e-06
1.36314e-06
1.36193e-06
1.35886e-06
1.35555e-06
0.0013629
0.00136275
0.0013607
0.00136333
0.00136242
0.00126947
0.000147793
5.73527e-06
1.59532e-06
1.37827e-06
1.36383e-06
1.36271e-06
1.36196e-06
1.3607e-06
1.36079e-06
1.35316e-06
1.35412e-06
0.00136311
0.00136133
0.00136339
0.00136326
0.00136217
0.00125989
0.000126627
5.38792e-06
1.60717e-06
1.38385e-06
1.36297e-06
1.3628e-06
1.36029e-06
1.3611e-06
1.35357e-06
1.35491e-06
1.35543e-06
1.35451e-06
0.00136201
0.0013629
0.00136336
0.00136265
0.00136174
0.00123693
0.0001032
5.14689e-06
1.60753e-06
1.38703e-06
1.36054e-06
1.36303e-06
1.36199e-06
1.36268e-06
1.35044e-06
1.36221e-06
1.36135e-06
1.35891e-06
1.34619e-06
0.00136316
0.00136333
0.00136219
0.00136111
0.00120385
8.63091e-05
4.84607e-06
1.64085e-06
1.36754e-06
1.36126e-06
1.36314e-06
1.36328e-06
1.35847e-06
1.3596e-06
1.36208e-06
1.36215e-06
1.36228e-06
1.35508e-06
1.33344e-06
0.00136255
0.00136332
0.0013616
0.0013612
0.00117627
8.10276e-05
4.72742e-06
1.61908e-06
1.35809e-06
1.36305e-06
1.36331e-06
1.35987e-06
1.35856e-06
1.36213e-06
1.362e-06
1.36204e-06
1.36211e-06
1.36222e-06
1.34596e-06
1.33556e-06
0.00136193
0.00136331
0.00136179
0.0013624
0.00121286
5.77989e-05
5.74986e-06
1.46281e-06
1.3626e-06
1.36333e-06
1.36229e-06
1.35953e-06
1.36115e-06
1.36206e-06
1.36445e-06
1.36199e-06
1.36201e-06
1.36208e-06
1.36219e-06
1.35078e-06
1.35575e-06
0.00136105
0.00136328
0.00136309
0.00135868
0.00116686
5.98804e-05
5.59901e-06
1.36306e-06
1.36332e-06
1.36329e-06
1.36211e-06
1.36134e-06
1.36208e-06
1.36055e-06
1.32579e-06
1.364e-06
1.32609e-06
1.33019e-06
1.33016e-06
1.36196e-06
1.36201e-06
1.36207e-06
1.36217e-06
1.36198e-06
1.36316e-06
0.00135974
0.00136318
0.0013622
0.00133321
0.000791154
0.000109471
2.85808e-06
1.36359e-06
1.36331e-06
1.36241e-06
1.36145e-06
1.35729e-06
1.36019e-06
1.36217e-06
1.32936e-06
1.32833e-06
1.36189e-06
1.32937e-06
1.31928e-06
1.31763e-06
1.32834e-06
1.32558e-06
1.32555e-06
1.36212e-06
1.36208e-06
1.36144e-06
1.36168e-06
1.36154e-06
1.36314e-06
0.00135758
0.0013626
0.00134442
0.000903516
0.000237807
9.91846e-05
2.11392e-06
1.36351e-06
1.3596e-06
1.36024e-06
1.35375e-06
1.36135e-06
1.3649e-06
1.33976e-06
1.33985e-06
1.33725e-06
1.33729e-06
1.32623e-06
1.34098e-06
1.36279e-06
1.36849e-06
1.32626e-06
1.33096e-06
1.33056e-06
1.34161e-06
1.33975e-06
1.34039e-06
1.36292e-06
1.36158e-06
1.36103e-06
1.36127e-06
1.36167e-06
1.36313e-06
0.0013538
0.00135405
0.00101874
0.000329337
8.2434e-05
3.56076e-05
1.95612e-06
1.36281e-06
1.359e-06
1.35944e-06
1.35794e-06
1.36436e-06
1.33086e-06
1.33068e-06
1.33241e-06
1.33241e-06
1.34074e-06
1.34078e-06
1.33822e-06
1.33825e-06
1.34298e-06
1.17206e-06
1.24171e-06
1.17381e-06
1.24561e-06
1.36352e-06
1.36486e-06
1.3333e-06
1.33374e-06
1.33505e-06
1.33455e-06
1.34299e-06
1.33762e-06
1.33716e-06
1.17236e-06
1.24591e-06
1.17369e-06
1.24574e-06
1.18311e-06
1.24802e-06
1.1939e-06
1.24946e-06
1.1838e-06
1.25742e-06
1.19427e-06
1.2515e-06
1.36352e-06
1.36122e-06
1.36203e-06
1.36142e-06
1.36191e-06
1.3631e-06
0.00134725
0.00124279
0.000520546
0.000272771
6.91571e-05
2.21632e-05
1.66541e-06
1.36267e-06
1.36252e-06
1.35941e-06
1.36657e-06
1.32637e-06
1.32642e-06
1.32939e-06
1.32952e-06
1.33546e-06
1.3355e-06
1.33494e-06
1.33499e-06
1.3005e-06
1.24441e-06
1.22697e-06
1.27065e-06
1.21244e-06
1.19798e-06
1.25306e-06
1.30056e-06
1.22702e-06
1.27214e-06
1.21251e-06
1.19787e-06
1.26247e-06
1.18111e-06
1.2708e-06
1.19097e-06
1.26283e-06
1.18151e-06
1.27137e-06
1.19106e-06
1.17106e-06
1.24639e-06
1.16631e-06
1.23531e-06
1.19128e-06
1.254e-06
1.19569e-06
1.26104e-06
1.36232e-06
1.36028e-06
1.33195e-06
1.33201e-06
1.33737e-06
1.33744e-06
1.34432e-06
1.34431e-06
1.3491e-06
1.34924e-06
1.17101e-06
1.24565e-06
1.16628e-06
1.23567e-06
1.15973e-06
1.24572e-06
1.16356e-06
1.22918e-06
1.15938e-06
1.24594e-06
1.1634e-06
1.22906e-06
1.19215e-06
1.25968e-06
1.19627e-06
1.2634e-06
1.19827e-06
1.2605e-06
1.19845e-06
1.26059e-06
1.36409e-06
1.36202e-06
1.36203e-06
1.36169e-06
1.36238e-06
1.36309e-06
0.00133737
0.000916704
0.000533848
0.000733013
9.15469e-05
1.85721e-05
1.76255e-06
1.36251e-06
1.3626e-06
1.36601e-06
1.32619e-06
1.32648e-06
1.32909e-06
1.32905e-06
1.33509e-06
1.33514e-06
1.33508e-06
1.33511e-06
1.24476e-06
1.18127e-06
1.24802e-06
1.17744e-06
1.24594e-06
1.18126e-06
1.25075e-06
1.17733e-06
1.23686e-06
1.16535e-06
1.25641e-06
1.17047e-06
1.23977e-06
1.16531e-06
1.25533e-06
1.17031e-06
1.29128e-06
1.14032e-06
1.08214e-06
1.22964e-06
1.23228e-06
1.19988e-06
1.29333e-06
1.14058e-06
1.2295e-06
1.08228e-06
1.23558e-06
1.1999e-06
1.26151e-06
1.18708e-06
1.23731e-06
1.16321e-06
1.26181e-06
1.18753e-06
1.23771e-06
1.16321e-06
1.19598e-06
1.27106e-06
1.19983e-06
1.26706e-06
1.21844e-06
1.27968e-06
1.20943e-06
1.26831e-06
1.36451e-06
1.36036e-06
1.32952e-06
1.32949e-06
1.33883e-06
1.3388e-06
1.33908e-06
1.33848e-06
1.34575e-06
1.34555e-06
1.28458e-06
1.20732e-06
1.28336e-06
1.20124e-06
1.28417e-06
1.20726e-06
1.2836e-06
1.20152e-06
1.28184e-06
1.25511e-06
1.22135e-06
1.28656e-06
1.20082e-06
1.1831e-06
1.27936e-06
1.25471e-06
1.22164e-06
1.28705e-06
1.20134e-06
1.1827e-06
1.1967e-06
1.27126e-06
1.20048e-06
1.26733e-06
1.18614e-06
1.25133e-06
1.18673e-06
1.25141e-06
1.22119e-06
1.28313e-06
1.21268e-06
1.28329e-06
1.21797e-06
1.28445e-06
1.2182e-06
1.28465e-06
1.36281e-06
1.36194e-06
1.36206e-06
1.36218e-06
1.36241e-06
1.36308e-06
0.00129038
0.000885889
0.00109961
0.00116171
0.000112998
2.60968e-05
2.00402e-06
1.36954e-06
1.36226e-06
1.33017e-06
1.33012e-06
1.3375e-06
1.33769e-06
1.3255e-06
1.32546e-06
1.32417e-06
1.32418e-06
1.23732e-06
1.15951e-06
1.23938e-06
1.16322e-06
1.24081e-06
1.15938e-06
1.23936e-06
1.16319e-06
1.24752e-06
1.16578e-06
1.23917e-06
1.1626e-06
1.24753e-06
1.16563e-06
1.23905e-06
1.16253e-06
1.24784e-06
1.19188e-06
1.24135e-06
1.17945e-06
1.24676e-06
1.1919e-06
1.24382e-06
1.17923e-06
1.25968e-06
1.19304e-06
1.23817e-06
1.16173e-06
1.26278e-06
1.19296e-06
1.23789e-06
1.16157e-06
1.20392e-06
1.27636e-06
1.20746e-06
1.27542e-06
1.36449e-06
1.36263e-06
1.34006e-06
1.34001e-06
1.33628e-06
1.33632e-06
1.34903e-06
1.34891e-06
1.34808e-06
1.34806e-06
1.27447e-06
1.16932e-06
1.28762e-06
1.21957e-06
1.27445e-06
1.16603e-06
1.28788e-06
1.21841e-06
1.29162e-06
1.21662e-06
1.288e-06
1.21688e-06
1.29115e-06
1.21627e-06
1.2885e-06
1.21691e-06
1.26247e-06
1.1909e-06
1.2707e-06
1.19288e-06
1.26241e-06
1.1909e-06
1.27086e-06
1.19289e-06
1.27387e-06
1.03638e-06
1.07262e-06
1.19871e-06
1.2655e-06
1.21716e-06
1.27351e-06
1.02839e-06
1.07279e-06
1.19844e-06
1.26554e-06
1.21716e-06
1.20412e-06
1.27639e-06
1.20736e-06
1.27531e-06
1.22952e-06
1.30469e-06
1.23083e-06
1.3042e-06
1.36238e-06
1.36194e-06
1.36209e-06
1.36218e-06
1.36249e-06
1.36306e-06
0.00127471
0.00120485
0.00131365
0.00126772
0.000152616
2.41594e-05
2.45065e-06
1.39543e-06
1.3658e-06
1.32468e-06
1.32471e-06
1.32717e-06
1.3269e-06
1.34081e-06
1.34081e-06
1.3386e-06
1.33871e-06
1.25144e-06
1.18036e-06
1.23885e-06
1.17457e-06
1.25497e-06
1.17989e-06
1.23842e-06
1.17413e-06
1.23806e-06
1.16362e-06
1.23316e-06
1.16582e-06
1.2375e-06
1.16342e-06
1.23277e-06
1.16562e-06
1.14115e-06
1.08563e-06
1.14093e-06
1.08561e-06
1.36417e-06
1.36388e-06
1.34428e-06
1.34423e-06
1.33806e-06
1.33805e-06
1.34591e-06
1.34592e-06
1.34678e-06
1.34659e-06
1.30439e-06
1.25638e-06
1.30547e-06
1.26073e-06
1.30374e-06
1.25717e-06
1.30508e-06
1.26101e-06
1.29533e-06
1.23929e-06
1.30005e-06
1.251e-06
1.29493e-06
1.239e-06
1.29999e-06
1.25083e-06
1.28829e-06
1.24904e-06
1.30047e-06
1.2357e-06
1.2891e-06
1.2488e-06
1.30071e-06
1.23435e-06
1.26292e-06
1.19232e-06
1.30398e-06
1.23513e-06
1.26245e-06
1.19192e-06
1.3042e-06
1.23516e-06
1.36196e-06
1.36197e-06
1.36212e-06
1.36217e-06
1.36255e-06
1.36304e-06
0.00129538
0.00132129
0.00134411
0.00130435
0.000189033
2.45077e-05
3.48247e-06
1.46096e-06
1.33188e-06
1.33212e-06
1.35403e-06
1.35422e-06
1.34018e-06
1.34032e-06
1.3254e-06
1.32511e-06
1.19194e-06
1.26713e-06
1.20106e-06
1.26787e-06
1.19196e-06
1.26698e-06
1.20111e-06
1.26928e-06
1.18757e-06
1.23483e-06
1.17672e-06
1.25062e-06
1.18767e-06
1.24062e-06
1.1775e-06
1.25218e-06
1.21442e-06
1.14741e-06
1.26543e-06
1.17732e-06
1.21394e-06
1.14799e-06
1.26204e-06
1.1771e-06
1.26407e-06
1.19704e-06
1.26983e-06
1.18159e-06
1.26206e-06
1.19708e-06
1.26479e-06
1.18096e-06
1.36277e-06
1.3634e-06
1.36398e-06
1.35033e-06
1.35022e-06
1.34463e-06
1.34465e-06
1.35059e-06
1.3523e-06
1.35014e-06
1.35025e-06
1.30501e-06
1.27255e-06
1.30807e-06
1.26859e-06
1.30474e-06
1.27256e-06
1.30745e-06
1.26831e-06
1.30917e-06
1.26102e-06
1.30775e-06
1.26212e-06
1.30916e-06
1.26078e-06
1.30741e-06
1.26197e-06
1.18713e-06
1.16969e-06
1.1869e-06
1.16962e-06
1.36195e-06
1.36203e-06
1.36212e-06
1.36219e-06
1.36267e-06
1.3631e-06
0.00130009
0.00135118
0.00134916
0.00132236
0.000200299
2.39753e-05
7.90864e-06
1.79477e-06
1.3278e-06
1.32526e-06
1.37441e-06
1.37461e-06
1.25393e-06
1.17041e-06
1.18637e-06
1.27194e-06
1.23959e-06
1.17119e-06
1.18665e-06
1.25783e-06
1.33952e-06
1.3395e-06
1.19375e-06
1.21507e-06
1.15384e-06
1.26346e-06
1.19561e-06
1.21396e-06
1.15657e-06
1.26494e-06
1.21061e-06
1.23856e-06
1.19074e-06
1.26714e-06
1.21063e-06
1.24863e-06
1.19086e-06
1.27094e-06
1.08911e-06
1.03767e-06
1.08931e-06
1.03768e-06
1.36284e-06
1.36395e-06
1.36226e-06
1.34278e-06
1.34312e-06
1.34435e-06
1.34458e-06
1.35221e-06
1.35224e-06
1.35116e-06
1.35323e-06
1.29736e-06
1.32044e-06
1.30116e-06
1.32614e-06
1.29826e-06
1.32179e-06
1.30196e-06
1.32465e-06
1.2793e-06
1.32191e-06
1.27287e-06
1.32502e-06
1.27969e-06
1.32138e-06
1.27196e-06
1.3252e-06
1.32098e-06
1.28188e-06
1.30856e-06
1.27325e-06
1.32055e-06
1.28195e-06
1.30874e-06
1.27308e-06
1.29413e-06
1.24993e-06
1.30309e-06
1.26291e-06
1.29386e-06
1.2498e-06
1.30356e-06
1.2629e-06
1.36196e-06
1.36207e-06
1.36211e-06
1.36236e-06
1.36294e-06
0.00131118
0.00135488
0.00135098
0.00132696
0.000265373
3.9822e-05
1.02492e-05
2.24734e-06
2.24872e-06
3.60668e-06
3.6136e-06
1.22599e-06
1.18966e-06
1.29903e-06
1.19993e-06
1.20879e-06
1.18983e-06
1.30073e-06
1.19997e-06
1.47214e-06
1.47146e-06
1.2349e-06
1.17188e-06
1.17767e-06
1.24553e-06
1.23719e-06
1.17201e-06
1.1777e-06
1.2456e-06
1.26854e-06
1.19573e-06
1.26856e-06
1.18843e-06
1.26723e-06
1.19599e-06
1.26654e-06
1.18853e-06
1.14831e-06
1.26109e-06
1.19013e-06
1.19319e-06
1.14835e-06
1.26843e-06
1.19132e-06
1.20175e-06
1.36237e-06
1.36391e-06
1.36227e-06
1.35783e-06
1.34871e-06
1.34849e-06
1.34546e-06
1.34586e-06
1.34617e-06
1.34633e-06
1.32199e-06
1.29293e-06
1.27271e-06
1.30468e-06
1.32284e-06
1.29388e-06
1.27313e-06
1.30574e-06
1.29335e-06
1.31589e-06
1.30226e-06
1.32368e-06
1.29547e-06
1.32048e-06
1.30238e-06
1.32721e-06
1.2681e-06
1.32187e-06
1.2696e-06
1.31723e-06
1.27027e-06
1.32197e-06
1.26821e-06
1.31907e-06
1.27917e-06
1.24776e-06
1.27889e-06
1.24772e-06
1.36118e-06
1.3621e-06
1.3622e-06
1.36284e-06
0.00131781
0.00135357
0.00135454
0.0013454
0.000254989
5.25288e-05
7.61318e-06
7.5559e-06
2.5607e-05
2.56701e-05
4.83877e-06
4.80127e-06
5.98927e-06
5.79857e-06
1.29898e-06
1.17458e-06
1.31467e-06
1.18157e-06
1.30018e-06
1.17554e-06
1.31404e-06
1.18227e-06
1.33712e-06
2.28854e-06
1.48929e-06
1.79812e-06
1.33952e-06
2.29254e-06
1.49359e-06
1.79929e-06
1.27675e-06
1.19686e-06
1.18151e-06
1.28226e-06
1.27918e-06
1.19999e-06
1.18317e-06
1.27957e-06
1.28488e-06
1.20696e-06
1.26615e-06
1.21929e-06
1.28517e-06
1.20722e-06
1.26364e-06
1.2157e-06
1.36152e-06
1.36387e-06
1.36331e-06
1.35538e-06
1.32786e-06
1.32807e-06
1.33978e-06
1.33972e-06
1.32631e-06
1.32929e-06
1.28902e-06
1.2602e-06
1.24017e-06
1.24053e-06
1.29126e-06
1.26148e-06
1.26283e-06
1.24159e-06
1.2975e-06
1.27675e-06
1.30368e-06
1.28121e-06
1.2985e-06
1.28508e-06
1.29895e-06
1.27783e-06
1.30426e-06
1.28186e-06
1.29941e-06
1.2852e-06
1.31437e-06
1.29532e-06
1.31362e-06
1.29539e-06
1.28141e-06
1.30939e-06
1.29119e-06
1.29761e-06
1.28184e-06
1.31023e-06
1.29178e-06
1.29799e-06
1.36125e-06
1.36218e-06
1.36279e-06
0.00132294
0.00135338
0.00135532
0.00134668
0.000495178
0.000165518
9.08609e-06
9.21555e-06
4.65667e-05
4.70075e-05
5.76481e-06
3.2044e-06
4.40216e-06
5.32292e-06
3.35022e-06
2.02006e-06
3.273e-06
5.64049e-06
2.17747e-06
4.90026e-06
5.21686e-06
3.44416e-06
7.95591e-06
6.76851e-06
5.47458e-06
4.22365e-06
8.07518e-06
6.66511e-06
5.37924e-06
3.89199e-06
1.37569e-06
1.2192e-06
1.41001e-06
1.21178e-06
1.37578e-06
1.21939e-06
1.40834e-06
1.21164e-06
1.42362e-06
2.23916e-06
1.46547e-06
2.26503e-06
9.60515e-07
1.22964e-06
9.55658e-07
1.2226e-06
1.21389e-06
1.12304e-06
1.21425e-06
1.12382e-06
1.36158e-06
1.36264e-06
1.36553e-06
1.36148e-06
1.3222e-06
1.32224e-06
1.32672e-06
1.32681e-06
1.32296e-06
1.32329e-06
1.31643e-06
1.31621e-06
1.21829e-06
1.23968e-06
1.20172e-06
1.25923e-06
1.23678e-06
1.22533e-06
1.22009e-06
1.24125e-06
1.20246e-06
1.25842e-06
1.2373e-06
1.22287e-06
1.28524e-06
1.2529e-06
1.28452e-06
1.25285e-06
1.29664e-06
1.26567e-06
1.27429e-06
1.31657e-06
1.246e-06
1.28862e-06
1.2965e-06
1.26538e-06
1.27416e-06
1.31724e-06
1.2456e-06
1.28879e-06
1.30943e-06
1.28434e-06
1.31032e-06
1.2847e-06
1.36219e-06
1.36278e-06
0.0013257
0.00135283
0.0013493
0.00134238
0.00114764
0.000436261
0.000435702
0.00101753
0.0010176
2.22037e-05
2.27114e-05
0.000150533
0.000151978
5.21244e-06
4.98565e-06
3.17198e-06
4.12467e-06
4.76502e-06
2.82526e-06
5.21634e-06
4.81373e-06
4.62328e-06
3.89735e-06
4.71957e-06
2.88943e-06
1.02889e-05
1.13548e-05
5.35109e-06
2.92994e-06
1.06715e-05
1.01867e-05
5.47593e-06
3.73416e-06
1.61043e-06
1.22744e-06
1.61308e-06
1.22721e-06
1.36219e-06
1.36196e-06
1.36526e-06
1.36282e-06
1.35311e-06
1.33283e-06
1.33284e-06
1.33887e-06
1.33887e-06
1.18121e-06
1.15696e-06
1.22081e-06
1.1945e-06
1.17939e-06
1.15803e-06
1.22222e-06
1.1956e-06
1.20999e-06
1.2183e-06
1.127e-06
1.22696e-06
1.17602e-06
1.20369e-06
1.2098e-06
1.21608e-06
1.1279e-06
1.22717e-06
1.17711e-06
1.20423e-06
1.21089e-06
1.22175e-06
1.24847e-06
1.27106e-06
1.21002e-06
1.22201e-06
1.24754e-06
1.26719e-06
1.2537e-06
1.18926e-06
1.26091e-06
1.1897e-06
1.21062e-06
1.16335e-06
1.27549e-06
1.25357e-06
1.22947e-06
1.16429e-06
1.27666e-06
1.25399e-06
1.36278e-06
0.00132549
0.00135494
0.00135027
0.00132838
0.00104413
0.000876973
0.000876558
0.00103175
0.00103184
0.000122174
7.33179e-05
4.83888e-05
0.000195157
0.000124497
7.21088e-05
4.69775e-05
0.0001965
0.000450296
0.000448178
1.74034e-05
2.16635e-05
6.99897e-06
3.81346e-06
1.78116e-05
1.89357e-05
7.79568e-06
5.66814e-06
1.36278e-06
1.36219e-06
1.36265e-06
1.36572e-06
1.36177e-06
1.28303e-06
1.28433e-06
1.30441e-06
1.30489e-06
1.33091e-06
1.33268e-06
1.30449e-06
1.30508e-06
1.17422e-06
1.18511e-06
1.24722e-06
1.19798e-06
1.1735e-06
1.18642e-06
1.24822e-06
1.19827e-06
1.22966e-06
1.14926e-06
1.12825e-06
1.09148e-06
1.21194e-06
1.15868e-06
1.22866e-06
1.15071e-06
1.09267e-06
1.12863e-06
1.21113e-06
1.15961e-06
1.23164e-06
1.26871e-06
1.2315e-06
1.26835e-06
0.00132909
0.00134857
0.00134783
0.00128288
0.000872495
0.000871719
0.00101747
0.00101692
0.00089142
0.000901962
0.000913746
0.00091499
0.000311005
0.000192034
0.000106186
0.000389398
0.000301766
0.000189851
9.22943e-05
0.000396271
0.000911909
0.000721245
0.000533809
0.000422231
0.000877808
0.000726002
0.000541547
0.00042005
4.77071e-05
2.89234e-05
5.12181e-05
4.20391e-05
1.36063e-06
1.36021e-06
1.36387e-06
1.36592e-06
1.35109e-06
1.29057e-06
1.30425e-06
1.31457e-06
1.32716e-06
1.29268e-06
1.29415e-06
1.11378e-06
1.19387e-06
1.16146e-06
1.13963e-06
1.1142e-06
1.19456e-06
1.16162e-06
1.13948e-06
1.21521e-06
1.17171e-06
1.24424e-06
1.19019e-06
1.21365e-06
1.17253e-06
1.24551e-06
1.19205e-06
0.00132536
0.00134614
0.00134517
0.00128873
0.000854618
0.000858495
0.00105458
0.00105552
0.000914679
0.000747136
0.000746524
0.000892725
0.000783153
0.000895358
0.000881462
0.000777896
0.0007491
0.000865126
0.00073573
0.000871842
0.000783637
0.000755854
0.000499161
0.000416214
0.00021227
0.000518635
0.00050046
0.00043328
0.00023283
0.000518399
0.000686908
0.000402069
0.000709528
0.000417665
1.35058e-06
1.36145e-06
1.36467e-06
1.36258e-06
1.2644e-06
1.26559e-06
1.28363e-06
1.28767e-06
1.30842e-06
1.3125e-06
1.28753e-06
1.28764e-06
1.09137e-06
1.08954e-06
1.16645e-06
1.10554e-06
1.14847e-06
1.15306e-06
1.09299e-06
1.08982e-06
1.16712e-06
1.10756e-06
1.14465e-06
1.15356e-06
1.20413e-06
1.14666e-06
1.20223e-06
1.14701e-06
1.17688e-06
1.12117e-06
1.17709e-06
1.12129e-06
0.00131803
0.00134384
0.00133602
0.00129016
0.00129017
0.00128849
0.00128854
0.000845029
0.000868891
0.00112701
0.00113552
0.000873163
0.000698084
0.000701979
0.000869222
0.000684757
0.000899862
0.000842769
0.000694478
0.000596528
0.000838372
0.000609616
0.000852745
0.000827383
0.000591893
0.000792469
0.000592411
0.000776188
0.000585028
0.000733311
0.000588295
1.32307e-06
1.36246e-06
1.36332e-06
1.34887e-06
1.2639e-06
1.26291e-06
1.29752e-06
1.29874e-06
1.2632e-06
1.26431e-06
1.11039e-06
1.11573e-06
1.06601e-06
1.12833e-06
1.08211e-06
1.07954e-06
1.06582e-06
1.12904e-06
1.08145e-06
1.08057e-06
1.1114e-06
1.11636e-06
1.13514e-06
1.18947e-06
1.06708e-06
1.10774e-06
1.13598e-06
1.18293e-06
1.06681e-06
1.11071e-06
1.11053e-06
1.06006e-06
1.11185e-06
1.06064e-06
0.00132169
0.00132537
0.00117717
0.00128946
0.00128959
0.00129647
0.00129631
0.000839913
0.000590048
0.000750341
0.000843637
0.000703014
0.000943789
0.000803479
0.0005876
0.000803417
0.000890112
0.000787175
0.000994044
0.00114804
0.00116505
0.000650319
0.00083546
0.000596005
0.000751431
0.000814203
0.000588097
0.000735808
0.000587115
1.3316e-06
1.36288e-06
1.36459e-06
1.28456e-06
1.2849e-06
1.29586e-06
1.29612e-06
1.28835e-06
1.2942e-06
1.25737e-06
1.2583e-06
1.06946e-06
1.05164e-06
1.13471e-06
1.06641e-06
1.07453e-06
1.09829e-06
1.0662e-06
1.07642e-06
1.09862e-06
1.05304e-06
1.13465e-06
1.06874e-06
1.1426e-06
1.11128e-06
1.11301e-06
1.04091e-06
1.11699e-06
1.14062e-06
1.03976e-06
1.11158e-06
0.0012961
0.00046942
9.44494e-05
0.00123583
0.00123203
0.00124796
0.00124275
0.000865949
0.000589462
0.00083182
0.000957657
0.000793693
0.00108173
0.000865679
0.000611014
0.000868155
0.00101247
0.000853777
0.0011293
0.0011522
0.00109182
0.00115041
0.00107086
0.00115234
0.00109545
0.00116159
0.0010679
0.0008078
0.000575512
0.000746882
0.00059105
1.36269e-06
1.36375e-06
1.36334e-06
1.30434e-06
1.30501e-06
1.33234e-06
1.33237e-06
1.26158e-06
1.26622e-06
1.09066e-06
1.10258e-06
1.07696e-06
1.09107e-06
1.04487e-06
1.04086e-06
1.08256e-06
1.10357e-06
1.07718e-06
1.09289e-06
1.04498e-06
1.04281e-06
1.09815e-06
1.10344e-06
1.02471e-06
1.042e-06
1.10326e-06
1.04398e-06
1.09969e-06
1.02766e-06
0.00103988
9.43298e-05
2.41131e-05
7.21639e-05
7.26689e-05
2.6723e-05
4.19335e-05
5.05076e-05
0.000108841
0.00118984
0.00103869
0.000106319
0.00119
0.00103467
0.000940997
0.000688303
0.00101619
0.00108771
0.000944747
0.00114721
0.000975168
0.000747987
0.000997428
0.00113442
0.000932949
0.00117695
0.0011604
0.000979734
0.00116264
0.000970183
1.36267e-06
1.36468e-06
1.35216e-06
1.27771e-06
1.28281e-06
1.26351e-06
1.26642e-06
1.10683e-06
1.0659e-06
1.15249e-06
1.09212e-06
1.08432e-06
1.10734e-06
1.10864e-06
1.0815e-06
1.10831e-06
1.06637e-06
1.15413e-06
1.09461e-06
1.13678e-06
1.06688e-06
1.1086e-06
1.03934e-06
1.13535e-06
1.06688e-06
1.11101e-06
1.03828e-06
1.04919e-06
1.04797e-06
1.05022e-06
1.05121e-06
0.000155887
0.000114181
1.9755e-05
0.000196391
1.8424e-05
0.000185081
0.00117353
0.000846476
1.7259e-05
6.99705e-05
3.32895e-05
0.0010896
0.000909349
1.5814e-05
2.02773e-05
2.15822e-05
7.16925e-05
1.76694e-05
3.22773e-05
0.00109048
0.000899264
1.51953e-05
1.94765e-05
1.61521e-05
0.000948129
0.00119769
0.00092269
0.00119718
0.000555231
0.000263274
0.000561789
0.000249366
1.36262e-06
1.36508e-06
1.30821e-06
1.28692e-06
1.29483e-06
1.30779e-06
1.30697e-06
1.3069e-06
1.25209e-06
1.12893e-06
1.0884e-06
1.25778e-06
1.12884e-06
1.08928e-06
1.19527e-06
1.19368e-06
1.13421e-06
1.09929e-06
1.19083e-06
1.13587e-06
1.19257e-06
1.09966e-06
1.00967e-06
1.00802e-06
1.16013e-06
1.03124e-06
1.0145e-06
1.007e-06
1.15953e-06
1.03033e-06
0.00022793
0.00121106
6.57277e-05
1.44828e-05
1.48963e-05
0.00126012
7.00379e-05
8.89237e-06
1.45872e-05
0.00125897
0.00124275
0.00123195
1.6072e-05
1.20408e-05
5.52855e-05
2.41117e-05
1.03691e-05
1.2899e-05
1.64055e-05
5.66214e-05
1.20334e-05
2.34004e-05
1.05029e-05
7.91132e-06
0.000333133
0.000701195
0.000318222
0.000718414
1.36252e-06
1.3622e-06
1.3167e-06
1.2976e-06
1.29865e-06
1.31563e-06
1.33246e-06
1.32631e-06
1.12277e-06
1.13982e-06
1.1058e-06
1.14393e-06
1.10994e-06
1.06775e-06
1.07959e-06
1.07984e-06
1.1251e-06
1.14097e-06
1.10643e-06
1.14499e-06
1.11135e-06
1.06941e-06
1.08112e-06
1.0804e-06
1.13451e-06
1.14865e-06
1.09294e-06
1.04851e-06
1.14483e-06
1.09287e-06
1.14548e-06
1.04822e-06
0.00122669
0.00131808
0.00127541
0.00128617
0.00131878
0.00132265
0.00132276
0.00110601
1.3798e-05
7.52389e-05
4.0786e-05
2.72994e-05
0.00101713
0.000824815
0.00075709
0.00131124
0.00118925
0.00113957
0.0011044
1.72353e-05
7.60058e-05
5.45966e-05
2.69495e-05
0.00101907
0.000826149
0.000753893
0.00130796
0.00118959
0.00113922
1.02287e-05
1.93677e-05
7.79693e-06
1.25101e-05
1.04303e-05
1.92901e-05
7.25403e-06
1.24783e-05
1.36239e-06
1.35623e-06
1.29922e-06
1.2877e-06
1.09905e-06
1.16761e-06
1.28806e-06
1.09963e-06
1.16392e-06
1.29937e-06
1.31158e-06
1.30309e-06
1.12042e-06
1.20712e-06
1.13041e-06
1.08282e-06
1.02715e-06
1.07461e-06
1.12893e-06
1.20648e-06
1.13187e-06
1.0275e-06
1.0847e-06
1.07617e-06
1.06637e-06
1.04872e-06
1.05813e-06
1.04881e-06
0.00126656
0.00132511
0.00133678
0.00132561
0.0013372
0.00132752
0.00132763
4.36118e-05
0.00057106
0.000557545
2.48193e-05
0.00117469
0.00112719
0.00124802
0.00121922
0.00118691