/*--------------------------------*- C++ -*----------------------------------*\
| =========                 |                                                 |
| \\      /  F ield         | OpenFOAM: The Open Source CFD Toolbox           |
|  \\    /   O peration     | Version:  5.x                                   |
|   \\  /    A nd           | Web:      www.OpenFOAM.org                      |
|    \\/     M anipulation  |                                                 |
\*---------------------------------------------------------------------------*/
FoamFile
{
    version     2.0;
    format      ascii;
    class       volVectorField;
    location    "2";
    object      U;
}
// * * * * * * * * * * * * * * * * * * * * * * * * * * * * * * * * * * * * * //

dimensions      [0 1 -1 0 0 0 0];

internalField   nonuniform List<vector> 
12160
(
(0.169999 0 0.000125825)
(0.160651 0 0.00145836)
(0.169937 0 -0.00274629)
(0.166812 0 0.00327422)
(0.160463 0 -0.00415513)
(0.16937 0 -0.00209294)
(0.165392 0 0.00428804)
(0.166568 0 -0.00375844)
(0.159655 0 -0.000960138)
(0.168663 0 -0.00496737)
(0.160911 0 0.00415953)
(0.165145 0 -0.00171405)
(0.166333 0 0.00299607)
(0.158208 0 -0.00718776)
(0.167369 0 -0.00254426)
(0.155393 0 0.00372962)
(0.160161 0 -0.000206892)
(0.165113 0 0.00729206)
(0.1641 0 -0.00471014)
(0.156264 0 -0.00271795)
(0.165104 0 -0.0051723)
(0.150104 0 0.00331117)
(0.155113 0 0.000877597)
(0.160829 0 0.00807241)
(0.162597 0 0.000591623)
(0.163371 0 0.00343115)
(0.151682 0 -0.010238)
(0.162926 0 0.00126416)
(0.144146 0 0.00325229)
(0.150094 0 0.00149059)
(0.155767 0 0.00815047)
(0.157674 0 0.00341754)
(0.162301 0 0.00998363)
(0.157382 0 -0.0056192)
(0.148934 0 -0.00311514)
(0.156654 0 -0.000346141)
(0.136596 0 0.00344689)
(0.144427 0 0.00270252)
(0.150642 0 0.00797152)
(0.154134 0 0.00502381)
(0.158538 0 0.0115472)
(0.1551 0 0.0022685)
(0.157543 0 0.00494381)
(0.131446 0 -0.0132323)
(0.0914251 0 0.016902)
(0.126953 0 0.0038669)
(0.137093 0 0.00421232)
(0.145403 0 0.00905471)
(0.149972 0 0.00584645)
(0.155495 0 0.0118115)
(0.152984 0 0.00577611)
(0.155979 0 0.011072)
(0.138726 0 -0.00613238)
(0.0721917 0 0.000256783)
(-0.186327 0 -0.0728389)
(0.115106 0 0.00432244)
(0.127549 0 0.0060145)
(0.138264 0 0.0110746)
(0.145793 0 0.00800393)
(0.15176 0 0.0116812)
(0.152483 0 0.00767239)
(0.154276 0 0.0127963)
(0.138488 0 0.00297068)
(0.0910787 0 0.00518922)
(-0.19848 0 -0.0174424)
(-0.0162994 0 0.152891)
(0.101532 0 0.00466426)
(0.115648 0 0.00768818)
(0.128761 0 0.0138847)
(0.139316 0 0.0114289)
(0.147755 0 0.0138492)
(0.15083 0 0.0089863)
(0.153657 0 0.0133093)
(0.141734 0 0.00696418)
(0.116506 0 0.00778647)
(-0.278727 0 -0.0210618)
(0.263718 0 0.0344206)
(0.00460629 0 -0.160874)
(0.0871227 0 0.00479151)
(0.101905 0 0.00888356)
(0.116658 0 0.0166445)
(0.130122 0 0.0157337)
(0.141577 0 0.0181976)
(0.148564 0 0.0122351)
(0.152218 0 0.013595)
(0.147028 0 0.00880889)
(0.130281 0 0.00824203)
(-0.238314 0 -0.0135087)
(-0.0253548 0 0.0214516)
(0.110331 0 0.00786053)
(-0.0978496 0 0.0885319)
(0.072638 0 0.00460256)
(0.0872265 0 0.00940936)
(0.102535 0 0.0186644)
(0.117877 0 0.0198432)
(0.132559 0 0.0239633)
(0.143802 0 0.0178764)
(0.150584 0 0.016708)
(0.15043 0 0.00983174)
(0.150146 0 0.00857281)
(-0.199086 0 -0.00636077)
(-0.0596621 0 -0.0244026)
(0.0674031 0 0.112187)
(-0.130014 0 -0.00191183)
(0.0610529 0 -0.0508314)
(0.0594459 0 0.00408995)
(0.0725057 0 0.00922224)
(0.0874561 0 0.0195031)
(0.10323 0 0.0228011)
(0.119969 0 0.0296781)
(0.135416 0 0.0253902)
(0.146485 0 0.0236753)
(0.153266 0 0.0145469)
(0.165311 0 0.00965512)
(-0.110114 0 -0.0046189)
(-0.10257 0 -0.046328)
(0.0594423 0 0.0226522)
(-0.0245343 0 0.0307282)
(0.0831814 0 -0.00926504)
(-0.0606778 0 0.0167409)
(0.0478057 0 0.00350068)
(0.058972 0 0.00846325)
(0.0724858 0 0.0190268)
(0.0873507 0 0.0239994)
(0.104544 0 0.0338856)
(0.122523 0 0.0328889)
(0.138527 0 0.0331905)
(0.152956 0 0.023489)
(0.18108 0 0.015119)
(-0.0232861 0 -0.00315819)
(-0.100678 0 -0.0583969)
(0.0430853 0 0.000848516)
(0.0155227 0 -0.0179277)
(0.0497948 0 0.0648522)
(-0.090401 0 -0.00973228)
(0.037752 0 0.00297048)
(0.0471275 0 0.00755716)
(0.0586508 0 0.0173558)
(0.0714649 0 0.0233464)
(0.0877219 0 0.0356373)
(0.106032 0 0.0383753)
(0.125141 0 0.0428057)
(0.147368 0 0.0361661)
(0.192933 0 0.0254867)
(0.0809079 0 0.00162701)
(-0.112491 0 -0.0654796)
(0.0363799 0 -0.0116987)
(0.0101807 0 -0.0276833)
(0.0258708 0 0.010433)
(-0.0346775 0 0.0392971)
(0.0295491 0 0.00248141)
(0.0372619 0 0.0064199)
(0.0466084 0 0.0150999)
(0.0569558 0 0.0211992)
(0.0712086 0 0.0347641)
(0.0876394 0 0.0405063)
(0.107298 0 0.0499264)
(0.134567 0 0.049383)
(0.196552 0 0.0399398)
(0.158317 0 0.0168267)
(-0.102417 0 -0.0589646)
(0.0320355 0 -0.0188082)
(0.0137009 0 -0.0437473)
(0.00926594 0 -0.0039877)
(-0.00808757 0 -0.00366633)
(0.0227307 0 0.00211873)
(0.0291828 0 0.00530646)
(0.0365976 0 0.0127983)
(0.0446979 0 0.0183371)
(0.0561791 0 0.0316686)
(0.0695687 0 0.0390445)
(0.0871596 0 0.05277)
(0.115596 0 0.0591081)
(0.188022 0 0.0544189)
(0.201611 0 0.0394431)
(-0.0384339 0 -0.0316391)
(0.0311675 0 -0.0439738)
(0.0124625 0 -0.0464297)
(0.00245623 0 -0.02329)
(0.00192029 0 -0.0122458)
(0.01696 0 0.00185001)
(0.0224769 0 0.0044397)
(0.0285653 0 0.0107757)
(0.0349363 0 0.0151813)
(0.0435105 0 0.0272948)
(0.0532513 0 0.0348865)
(0.0677178 0 0.0511749)
(0.0928813 0 0.062925)
(0.169852 0 0.0649637)
(0.213084 0 0.0623958)
(0.0788592 0 0.0123551)
(0.022746 0 -0.0631673)
(0.00958799 0 -0.0426071)
(-0.00271785 0 -0.02962)
(0.00600149 0 -0.0295368)
(0.0119593 0 0.00164051)
(0.0167746 0 0.00379444)
(0.0219753 0 0.00927129)
(0.0272748 0 0.0123282)
(0.0335249 0 0.0227749)
(0.0401619 0 0.0292122)
(0.0507159 0 0.0465732)
(0.0698632 0 0.0601074)
(0.144969 0 0.0690462)
(0.199259 0 0.0795653)
(0.139997 0 0.059267)
(0.0244521 0 -0.0402402)
(-0.00668324 0 -0.0312269)
(-0.00586116 0 -0.0422082)
(0.00535838 0 -0.0331579)
(0.00763845 0 0.00145652)
(0.0117933 0 0.00327363)
(0.0163651 0 0.00819724)
(0.0210491 0 0.0101987)
(0.0259925 0 0.0189674)
(0.030644 0 0.0234064)
(0.0370621 0 0.0397915)
(0.0485471 0 0.0526914)
(0.117368 0 0.0663489)
(0.168972 0 0.0885208)
(0.153455 0 0.0912387)
(0.0436132 0 0.0258872)
(-0.0303618 0 -0.00466469)
(-0.0146016 0 -0.0400611)
(0.00421525 0 -0.0384503)
(0.00397475 0 0.00126144)
(0.00744877 0 0.0027556)
(0.0114103 0 0.00736575)
(0.0156904 0 0.00868804)
(0.0200744 0 0.0163378)
(0.024007 0 0.0185153)
(0.0274513 0 0.0322983)
(0.0318499 0 0.0420043)
(0.0906948 0 0.0594327)
(0.136781 0 0.0863889)
(0.133818 0 0.106016)
(0.073141 0 0.0847534)
(-0.0330063 0 0.0292234)
(-0.0174949 0 -0.0183356)
(7.77155e-05 0 -0.0311632)
(0.00117816 0 0.00102478)
(0.00373184 0 0.00213608)
(0.00701 0 0.00656712)
(0.0108433 0 0.0075186)
(0.0149434 0 0.0146409)
(0.0188753 0 0.0152653)
(0.0213782 0 0.026165)
(0.0218394 0 0.0306839)
(0.0704055 0 0.048827)
(0.118655 0 0.0755752)
(0.090236 0 0.100136)
(0.107593 0 0.11911)
(-0.0139239 0 0.0592289)
(-0.0178431 0 0.023698)
(-0.00956338 0 -0.00886097)
(-0.000533563 0 0.000773913)
(0.000888475 0 0.00132209)
(0.00314823 0 0.00560944)
(0.00641307 0 0.00639055)
(0.0101575 0 0.0134321)
(0.0142214 0 0.0132842)
(0.017124 0 0.022035)
(0.0164915 0 0.0225336)
(0.0562025 0 0.0389389)
(0.109854 0 0.0584411)
(0.0339024 0 0.0802824)
(0.145 0 0.132179)
(0.013731 0 0.0764698)
(-0.014071 0 0.0577095)
(-0.013108 0 0.0245858)
(-0.00105398 0 0.000578043)
(-0.000809501 0 0.000317902)
(9.72489e-05 0 0.00433261)
(0.00240923 0 0.00502563)
(0.00560314 0 0.0122828)
(0.00960314 0 0.011905)
(0.0131766 0 0.0195743)
(0.0129187 0 0.0185626)
(0.045093 0 0.0324415)
(0.102765 0 0.0418517)
(0.00801573 0 0.0614062)
(0.179399 0 0.116313)
(0.043855 0 0.0755438)
(-0.00305257 0 0.0803472)
(-0.00923568 0 0.0542423)
(-0.000219361 0 0.000243667)
(-0.00139485 0 -0.000969173)
(-0.00192846 0 0.00273342)
(-0.000821057 0 0.00323269)
(0.00131462 0 0.0107719)
(0.00493022 0 0.0105365)
(0.00893124 0 0.0181765)
(0.00927405 0 0.0175711)
(0.0357267 0 0.0282849)
(0.099374 0 0.0321288)
(0.0257111 0 0.0465374)
(0.201503 0 0.0701208)
(0.0731402 0 0.062632)
(0.00603405 0 0.0871305)
(-0.00651733 0 0.0733304)
(0.0019734 0 -0.000108976)
(-0.000680301 0 -0.00227525)
(-0.00266819 0 0.000856975)
(-0.00289383 0 0.000971763)
(-0.00230726 0 0.00864266)
(0.000293828 0 0.00854672)
(0.00418636 0 0.0169847)
(0.00477426 0 0.0177937)
(0.0268201 0 0.0256865)
(0.0937456 0 0.0294243)
(0.0546641 0 0.0377897)
(0.19258 0 0.0258525)
(0.0945318 0 0.055937)
(0.00997983 0 0.0750904)
(-0.000740991 0 0.0777681)
(0.00537948 0 -0.000416552)
(0.00149974 0 -0.00360212)
(-0.00189589 0 -0.00121413)
(-0.00379525 0 -0.0017113)
(-0.00491852 0 0.00560601)
(-0.00390198 0 0.00584051)
(-0.000854182 0 0.0153888)
(-0.000591 0 0.0175475)
(0.0176096 0 0.0236242)
(0.0839849 0 0.0302659)
(0.0735975 0 0.0362456)
(0.152805 0 0.0130844)
(0.103234 0 0.0611104)
(0.00744218 0 0.0483819)
(0.00510994 0 0.0685046)
(0.00982553 0 -0.000680317)
(0.0049574 0 -0.00483369)
(0.000315464 0 -0.00333718)
(-0.0032711 0 -0.00473617)
(-0.00619119 0 0.00175291)
(-0.00708492 0 0.00217988)
(-0.00579712 0 0.012891)
(-0.00578283 0 0.0161745)
(0.00817545 0 0.0211149)
(0.0686164 0 0.0326491)
(0.0786574 0 0.0390893)
(0.104314 0 0.0186631)
(0.117537 0 0.0698118)
(0.0111811 0 0.0256672)
(0.00834325 0 0.0530752)
(0.015034 0 -0.000931624)
(0.00946789 0 -0.00582024)
(0.00392148 0 -0.00526362)
(-0.00103738 0 -0.00785753)
(-0.00577 0 -0.00235821)
(-0.0087403 0 -0.00208774)
(-0.00984517 0 0.00844108)
(-0.00938031 0 0.0131235)
(-0.00143746 0 0.0171543)
(0.0478736 0 0.0345998)
(0.0702327 0 0.0437385)
(0.0697613 0 0.0309726)
(0.133091 0 0.0671714)
(0.0245595 0 0.0212114)
(-0.000596293 0 0.0418785)
(0.0206915 0 -0.00106922)
(0.0147658 0 -0.00650838)
(0.00872027 0 -0.00683428)
(0.00274532 0 -0.01086)
(-0.00362868 0 -0.00647687)
(-0.00848482 0 -0.00699952)
(-0.0121218 0 0.00256106)
(-0.0114428 0 0.00766814)
(-0.00901908 0 0.0123565)
(0.0225447 0 0.0339884)
(0.0492764 0 0.0479162)
(0.0469808 0 0.0443297)
(0.134108 0 0.0596791)
(0.0340018 0 0.0322556)
(-0.013384 0 0.0387631)
(0.0264672 0 -0.00111536)
(0.0205133 0 -0.00686041)
(0.0143395 0 -0.00797736)
(0.007753 0 -0.0132871)
(0.000348474 0 -0.0102429)
(-0.00612424 0 -0.0124613)
(-0.0124165 0 -0.00390057)
(-0.0125712 0 0.000626254)
(-0.015923 0 0.00679893)
(-0.00883551 0 0.0298427)
(0.0196503 0 0.0506244)
(0.0235531 0 0.0583274)
(0.115784 0 0.0607013)
(0.0371916 0 0.0526348)
(-0.0161868 0 0.0414236)
(0.0320519 0 -0.00106054)
(0.0263718 0 -0.00688915)
(0.0203918 0 -0.00862586)
(0.0136602 0 -0.0149806)
(0.0059406 0 -0.0133054)
(-0.00172284 0 -0.0177944)
(-0.0104987 0 -0.0102789)
(-0.0127672 0 -0.0074545)
(-0.0234509 0 0.000831405)
(-0.0403499 0 0.0233309)
(-0.0173154 0 0.0502842)
(-0.00184468 0 0.0688122)
(0.0763731 0 0.0654757)
(0.0370207 0 0.0783698)
(-0.0133887 0 0.0517209)
(0.0372412 0 -0.000927442)
(0.0320631 0 -0.00664848)
(0.0265187 0 -0.00874786)
(0.020099 0 -0.0158088)
(0.0125677 0 -0.0154284)
(0.00433687 0 -0.0223393)
(-0.00588699 0 -0.0161315)
(-0.0105521 0 -0.0171095)
(-0.0295068 0 -0.00643051)
(-0.0650055 0 0.0134883)
(-0.0535075 0 0.0412036)
(-0.0245506 0 0.0702444)
(0.0339298 0 0.0661851)
(0.0323959 0 0.100411)
(-0.00836466 0 0.072041)
(0.0418003 0 -0.000709034)
(0.0373714 0 -0.00618758)
(0.0324223 0 -0.00847709)
(0.0265762 0 -0.0158596)
(0.0196697 0 -0.0164785)
(0.011582 0 -0.0253492)
(0.00125791 0 -0.0208959)
(-0.00564334 0 -0.0265664)
(-0.033496 0 -0.014125)
(-0.0833386 0 0.00123207)
(-0.0817687 0 0.0282206)
(-0.0412663 0 0.0593478)
(0.000381061 0 0.0600408)
(0.0198143 0 0.106865)
(-0.00411714 0 0.0913217)
(0.0456122 0 -0.000411431)
(0.0420709 0 -0.00549649)
(0.0379345 0 -0.0077842)
(0.032824 0 -0.0153322)
(0.0267011 0 -0.0166265)
(0.0193736 0 -0.0266865)
(0.0100529 0 -0.0239989)
(0.00154954 0 -0.0344904)
(-0.0350264 0 -0.0215108)
(-0.0949911 0 -0.0114746)
(-0.100116 0 0.0133089)
(-0.061559 0 0.0393923)
(-0.0273075 0 0.0505663)
(0.00779685 0 0.100427)
(-2.73334e-05 0 0.0981026)
(0.0483883 0 -7.03217e-05)
(0.04605 0 -0.00457099)
(0.042856 0 -0.00671528)
(0.0386889 0 -0.0142514)
(0.0334033 0 -0.0160923)
(0.0270538 0 -0.0267708)
(0.0191827 0 -0.0253187)
(0.00996804 0 -0.0394877)
(-0.0346168 0 -0.0274547)
(-0.0977494 0 -0.0241827)
(-0.105937 0 -0.00617709)
(-0.0740278 0 0.014269)
(-0.0678987 0 0.0378922)
(-0.00247674 0 0.0940401)
(0.00230112 0 0.0929465)
(0.0503273 0 0.000284128)
(0.0490528 0 -0.00352542)
(0.0470248 0 -0.00525808)
(0.0439442 0 -0.012658)
(0.0397085 0 -0.0148991)
(0.0343722 0 -0.0259029)
(0.0277129 0 -0.02518)
(0.0176171 0 -0.0406861)
(-0.0325021 0 -0.0309357)
(-0.0893799 0 -0.0354184)
(-0.0952343 0 -0.025835)
(-0.0798714 0 -0.0159755)
(-0.100961 0 0.0174314)
(-0.013693 0 0.0785621)
(0.00211372 0 0.0840083)
(0.0509299 0 0.00072395)
(0.0512459 0 -0.00247292)
(0.0501528 0 -0.00351909)
(0.0484558 0 -0.0105882)
(0.0454077 0 -0.0129443)
(0.0413156 0 -0.0242758)
(0.0353941 0 -0.0243452)
(0.0229267 0 -0.0399414)
(-0.0299264 0 -0.0312732)
(-0.0681007 0 -0.0431618)
(-0.0641007 0 -0.0464804)
(-0.0867058 0 -0.051839)
(-0.117581 0 -0.00319749)
(-0.0174741 0 0.0428203)
(0.00722216 0 0.0647596)
(0.0519636 0 -0.00171704)
(0.0521757 0 0.00181271)
(0.0522379 0 -0.00146025)
(0.0520068 0 -0.00817084)
(0.0502555 0 -0.0102219)
(0.0477322 0 -0.0218119)
(0.0425198 0 -0.0226981)
(0.0266383 0 -0.0384387)
(-0.0292066 0 -0.0303055)
(-0.0331696 0 -0.0449828)
(-0.0101039 0 -0.066415)
(-0.105484 0 -0.0871937)
(-0.118506 0 -0.0199566)
(-0.0175135 0 -0.00105382)
(0.0128759 0 0.0317035)
(0.0528012 0 0.000600305)
(0.0527246 0 -9.91641e-05)
(0.0447859 0 0.00223498)
(0.0546224 0 -0.00554201)
(0.0538933 0 -0.00681942)
(0.0533622 0 -0.0184918)
(0.0490143 0 -0.0198803)
(0.0295893 0 -0.0361378)
(-0.0298274 0 -0.0300016)
(0.00962655 0 -0.0426037)
(0.052931 0 -0.0783879)
(-0.141269 0 -0.11151)
(-0.107298 0 -0.0288645)
(-0.0147068 0 -0.0436263)
(0.0189719 0 -0.00623639)
(0.0557973 0 -0.00308668)
(0.0533533 0 0.00446818)
(0.045016 0 0.00127928)
(0.0439127 0 0.0023764)
(0.0561432 0 -0.00285322)
(0.0579081 0 -0.0144881)
(0.0544798 0 -0.015658)
(0.0324428 0 -0.0327352)
(-0.0278598 0 -0.0293669)
(0.0501661 0 -0.040626)
(0.093333 0 -0.0785536)
(-0.177657 0 -0.107998)
(-0.0897409 0 -0.0439317)
(-0.00621048 0 -0.0791943)
(0.0220738 0 -0.0364192)
(0.0570156 0 0.00131239)
(0.0556503 0 0.00149606)
(0.0454432 0 0.00704115)
(0.0426644 0 0.00191442)
(0.032273 0 1.37484e-05)
(0.0612044 0 -0.0100583)
(0.0584142 0 -0.0101285)
(0.0352269 0 -0.0280563)
(-0.0217773 0 -0.0270431)
(0.0862688 0 -0.0416567)
(0.100839 0 -0.0744008)
(-0.197069 0 -0.0815103)
(-0.0764871 0 -0.0627447)
(-0.00104585 0 -0.098407)
(0.0172281 0 -0.0604212)
(0.0629684 0 -0.00537164)
(0.0569589 0 0.00875846)
(0.0464302 0 0.00518518)
(0.0425299 0 0.00862377)
(0.0287546 0 -0.00251951)
(0.0497994 0 -0.00358583)
(0.0606835 0 -0.00397563)
(0.037276 0 -0.0221645)
(-0.0123307 0 -0.0221034)
(0.118833 0 -0.0429552)
(0.0859949 0 -0.0682362)
(-0.188877 0 -0.0505272)
(-0.065441 0 -0.0738117)
(-0.00171917 0 -0.0990765)
(0.00887183 0 -0.0749693)
(0.0615845 0 0.00290124)
(0.0614978 0 0.00318909)
(0.0476526 0 0.0144993)
(0.0406543 0 0.00757293)
(0.0280587 0 0.0014665)
(0.042129 0 -0.00960879)
(0.0599824 0 -0.0131655)
(0.0386262 0 -0.0155581)
(-0.00152803 0 -0.0147104)
(0.151108 0 -0.0416667)
(0.0532586 0 -0.0628068)
(-0.169694 0 -0.0256347)
(-0.0567307 0 -0.0764168)
(-0.00664807 0 -0.0886415)
(0.002365 0 -0.0817561)
(0.038217 0 -0.00748294)
(0.0595836 0 0.0152915)
(0.0497446 0 0.0108648)
(0.0400382 0 0.0181763)
(0.0229854 0 7.34299e-05)
(0.0365334 0 -0.00784906)
(0.0392997 0 -0.0318465)
(0.134093 0 -0.0100644)
(0.00904851 0 -0.00574423)
(0.175049 0 -0.0362065)
(0.0101981 0 -0.0512953)
(-0.150642 0 -0.00794812)
(-0.0498953 0 -0.0743833)
(-0.00992697 0 -0.0750599)
(-0.00086254 0 -0.0797524)
(0.014796 0 0.0049848)
(0.0342445 0 0.00572733)
(0.0461804 0 0.0258614)
(0.0392919 0 0.0160567)
(0.0205869 0 0.0113211)
(0.02185 0 -0.00991924)
(0.0242448 0 -0.0437137)
(0.104459 0 -0.053447)
(0.173987 0 -0.0388898)
(0.191202 0 -0.0267824)
(-0.0260721 0 -0.0307284)
(-0.133927 0 -0.000871915)
(-0.0406926 0 -0.067396)
(-0.0106727 0 -0.0584739)
(-0.00175111 0 -0.0716949)
(0.194969 0 -0.017823)
(0.027799 0 0.0207326)
(0.0208778 0 0.0178236)
(0.0335636 0 0.0323494)
(0.0165281 0 0.0119434)
(0.011573 0 0.0023683)
(0.00317027 0 -0.0472036)
(0.063681 0 -0.0724837)
(0.142664 0 -0.0792959)
(0.342211 0 0.00401249)
(-0.0483041 0 -0.0144954)
(-0.117074 0 -0.00412227)
(-0.0312276 0 -0.0568649)
(-0.0105336 0 -0.0434893)
(-0.00259474 0 -0.06132)
(-0.0678153 0 -0.0115169)
(0.223809 0 0.000748648)
(0.0304072 0 0.0350355)
(0.00760181 0 0.0259414)
(0.00872832 0 0.0312709)
(0.000384762 0 0.00427012)
(-0.0129277 0 -0.0356476)
(0.0138679 0 -0.0975564)
(0.108538 0 -0.128035)
(0.274363 0 -0.0139327)
(0.162313 0 0.0149445)
(-0.101248 0 -0.00745258)
(-0.0241714 0 -0.0442203)
(-0.0110519 0 -0.0323651)
(-0.0031598 0 -0.0506141)
(-0.0875765 0 -0.00225758)
(-0.0738065 0 0.0206287)
(0.193312 0 0.0279438)
(0.0184752 0 0.045186)
(-0.0167507 0 0.029276)
(-0.0129796 0 0.0284673)
(-0.037632 0 -0.0250772)
(-0.0362541 0 -0.0879082)
(0.0309109 0 -0.155463)
(0.182001 0 -0.0744203)
(0.226394 0 0.0472423)
(0.316522 0 1.38512)
(-0.0243656 0 -0.0303097)
(-0.0117808 0 -0.023947)
(-0.00282652 0 -0.0403734)
(-0.0247843 0 -0.0141845)
(-0.0783528 0 0.00299142)
(-0.0623704 0 0.067539)
(0.1299 0 0.0452619)
(-0.0112124 0 0.0518363)
(-0.0403761 0 0.0309948)
(-0.0565184 0 0.0160904)
(-0.0905697 0 -0.0666542)
(-0.0671171 0 -0.177839)
(0.10371 0 -0.164553)
(0.311853 0 0.0645401)
(0.276502 0 1.1287)
(0.620922 2.32461e-27 1.59309)
(0.240362 0 1.80791)
(-0.0137335 0 -0.0166217)
(-0.00225755 0 -0.0301535)
(-0.0144789 0 -0.0054738)
(-0.0276434 0 0.0139419)
(-0.0894408 0 0.0324924)
(-0.0618396 0 0.0920373)
(0.0643792 0 0.0602225)
(-0.0429894 0 0.0537907)
(-0.0775502 0 0.0326561)
(-0.125865 0 0.00026741)
(-0.197624 0 -0.144861)
(-0.0530115 0 -0.214609)
(0.256051 0 0.0249291)
(0.262955 0 0.842834)
(0.754132 1.50852e-27 1.49201)
(0.648052 -6.97745e-30 1.45665)
(0.375589 3.42224e-27 1.73294)
(0.0967597 0 1.9491)
(-0.00243533 0 -0.0201623)
(-0.00272568 0 -0.00643049)
(-0.0181589 0 0.0108084)
(-0.038987 0 0.0592448)
(-0.0988861 0 0.0619271)
(-0.0795276 0 0.118555)
(-0.00165619 0 0.0597265)
(-0.0740557 0 0.0619454)
(-0.126823 0 0.0369542)
(-0.251664 0 -0.0611165)
(-0.281098 0 -0.186999)
(-0.0307043 0 -0.00516551)
(0.225916 0 0.660956)
(0.745188 0 1.29817)
(0.772887 0 1.42186)
(0.648175 2.88977e-26 1.25019)
(0.441931 -5.95882e-30 1.47676)
(0.248591 3.17446e-27 1.76559)
(0.0838723 0 2.0937)
(-0.00383116 0 0.0141716)
(-0.023088 0 0.0506171)
(-0.0557589 0 0.0946396)
(-0.123966 0 0.0979663)
(-0.14562 0 0.107001)
(-0.027099 0 0.0621508)
(-0.0937432 0 0.0713602)
(-0.207281 0 0.0143876)
(-0.408785 0 -0.146777)
(-0.346048 0 -0.111423)
(0.112164 0 0.547891)
(0.601898 0 1.10077)
(0.82109 0 1.27995)
(0.84525 9.75269e-26 1.2404)
(0.70305 -7.51893e-30 1.11157)
(0.460164 2.492e-26 1.29595)
(0.290929 0 1.49454)
(0.134387 0 1.84164)
(0.0220479 0 2.14442)
(-0.00751942 0 0.0572711)
(-0.0317687 0 0.0919015)
(-0.0902808 0 0.140206)
(-0.184247 0 0.140671)
(-0.263638 0 0.105842)
(-0.0747139 0 0.0471686)
(-0.0731474 0 0.0860002)
(-0.39562 0 -0.0541306)
(-0.500574 0 -0.135352)
(-0.0760546 0 0.360171)
(0.412836 0 0.854639)
(0.769712 -1.00526e-26 1.16518)
(0.924778 6.63482e-26 1.13052)
(0.925013 0 1.11506)
(0.791962 2.11822e-25 1.01405)
(0.572741 -7.05446e-30 1.24304)
(0.374626 6.256e-26 1.38242)
(0.178397 0 1.56442)
(0.0525954 0 1.83467)
(0.00645082 0 2.16849)
(-0.0140165 0 0.101557)
(-0.0541898 0 0.14901)
(-0.156855 0 0.191601)
(-0.295938 0 0.220646)
(-0.507644 0 0.065987)
(0.012 0 0.114683)
(-0.296603 0 0.0364218)
(-0.514897 0 -0.0839397)
(-0.412456 0 0.244517)
(0.0579152 0 0.61708)
(0.632065 -1.90239e-26 1.00091)
(0.890018 0 1.02832)
(1.0509 -1.64103e-25 1.01955)
(0.979616 -3.75497e-25 0.898338)
(1.00695 5.29119e-10 0.957885)
(0.747884 0 1.18648)
(0.527591 0 1.37764)
(0.306663 6.02236e-26 1.50512)
(0.108923 -2.31143e-27 1.62971)
(0.0147262 0 1.88025)
(-0.0240804 0 2.15409)
(-0.024058 0 0.165068)
(-0.103159 0 0.229149)
(-0.26966 0 0.284005)
(-0.489836 0 0.334477)
(-0.87652 0 0.0852548)
(-0.0022179 0 0.246932)
(-0.596323 0 -0.0731605)
(-0.469525 0 0.101217)
(-0.216238 0 0.448589)
(0.399493 3.21827e-42 0.840372)
(0.798226 0 0.8808)
(1.01641 2.66642e-25 0.909931)
(1.19022 -2.05474e-24 0.856809)
(1.10791 -4.1738e-10 0.805557)
(1.12231 3.07542e-09 0.801894)
(0.938487 -5.28599e-10 1.11778)
(1.11956 8.84682e-10 0.801735)
(1.13166 3.58574e-09 0.725731)
(1.12865 5.72264e-10 0.727011)
(0.682874 7.28762e-25 1.38705)
(0.461462 3.58073e-25 1.54077)
(0.198022 1.31595e-26 1.63149)
(0.0437535 4.26886e-27 1.67348)
(-0.0366108 0 1.85875)
(-0.021535 0 2.11927)
(-0.0435971 0 0.259277)
(-0.192179 0 0.357693)
(-0.438072 0 0.438188)
(-0.900812 0 0.589968)
(-1.50865 0 0.485904)
(-0.539737 0 0.0626957)
(-0.440845 0 -0.0586847)
(-0.20067 0 0.177753)
(0.0665602 3.46103e-42 0.502454)
(0.621418 0 0.782221)
(0.90142 0 0.717036)
(1.26261 5.74076e-26 0.761994)
(1.21289 -6.19676e-25 0.647332)
(1.36781 -5.44332e-10 0.567232)
(1.12638 3.24864e-09 0.920789)
(1.21047 6.24058e-09 0.635499)
(0.918869 -2.37996e-09 1.36754)
(1.12365 1.01528e-09 0.920517)
(1.1392 2.71654e-09 0.992528)
(1.13791 8.00934e-10 0.99169)
(1.20467 5.30197e-10 0.63481)
(1.22658 5.19662e-09 0.523161)
(1.21902 2.84847e-10 0.525437)
(0.605424 1.28667e-24 1.58146)
(0.313956 -8.24597e-25 1.66813)
(0.0524882 0 1.67125)
(-0.0425434 7.37671e-27 1.66966)
(-0.0822155 0 1.84585)
(-0.0621297 0 2.07249)
(-0.0799314 0 0.413238)
(-0.339724 0 0.545335)
(-0.661354 0 0.761799)
(-1.44768 0 0.86611)
(-1.94844 0 0.638508)
(-1.02257 0 -0.226737)
(-0.169476 0 0.0480817)
(-0.0538339 -3.30636e-27 0.185831)
(0.47806 7.66641e-27 0.598557)
(0.70452 7.01623e-26 0.522717)
(1.18722 0 0.664963)
(1.2501 -4.39061e-24 0.504255)
(1.47199 -3.75379e-09 0.46499)
(1.34692 -1.81203e-09 0.33144)
(1.34387 2.14173e-09 0.3284)
(1.42181 3.67458e-10 0.283658)
(1.42169 2.49882e-10 0.281465)
(1.20252 6.65955e-09 0.709909)
(1.34718 4.26498e-09 0.480428)
(0.807253 2.22846e-24 1.50565)
(1.16492 8.42829e-10 1.10514)
(1.19633 5.6372e-10 0.70816)
(1.17592 6.35042e-09 0.773314)
(1.1714 5.11262e-10 0.771279)
(1.33923 -1.13968e-09 0.478422)
(1.3121 3.03574e-09 0.385275)
(1.30675 -1.85488e-09 0.382413)
(0.385234 -1.70238e-24 1.65508)
(0.0830183 0 1.70227)
(-0.0910284 0 1.66277)
(-0.0979056 1.24479e-26 1.60126)
(-0.129776 0 1.79421)
(-0.0627494 0 1.9673)
(-0.143474 0 0.622733)
(-0.471108 0 0.850822)
(-0.923116 0 1.02519)
(-1.72247 0 0.471002)
(-2.02851 0 0.0934965)
(-0.978097 0 -0.164248)
(-0.0691338 0 0.0920233)
(0.26228 4.66682e-27 0.353105)
(0.548681 0 0.396394)
(0.995708 3.10462e-25 0.481346)
(1.23709 -3.19473e-25 0.421869)
(1.4818 -2.12827e-09 0.352034)
(1.47557 -1.68174e-11 0.2296)
(1.47612 3.07167e-10 0.229012)
(1.48931 5.08586e-10 0.183225)
(1.48956 3.62807e-10 0.18326)
(1.45601 -2.68365e-09 0.108379)
(1.45445 1.93411e-09 0.106461)
(1.52873 -8.76543e-10 0.112254)
(1.52812 4.35732e-10 0.112188)
(1.32557 4.17608e-09 0.536439)
(1.50251 2.21778e-08 0.256295)
(1.2593 2.27333e-08 0.247093)
(1.44965 1.58151e-08 0.26868)
(1.33908 3.40817e-09 0.242857)
(0.505591 -3.83786e-24 1.62994)
(0.917044 -3.16331e-09 1.28353)
(1.2975 1.40367e-09 0.800575)
(1.29874 2.84949e-10 0.801708)
(1.32443 -8.63072e-09 0.749021)
(1.32449 1.02432e-08 0.751041)
(1.31918 -9.73067e-11 0.535241)
(1.35839 5.66436e-09 0.628828)
(1.35423 -7.52749e-10 0.629706)
(1.49735 -8.97674e-09 0.256245)
(1.2712 -1.22388e-08 0.254787)
(1.44768 -2.55189e-10 0.270105)
(1.33452 -3.34349e-09 0.244704)
(1.48355 2.4214e-08 0.220107)
(1.2496 2.73509e-08 0.224767)
(1.44674 2.27423e-08 0.12515)
(1.32421 3.73713e-09 0.225061)
(1.47784 -1.26336e-08 0.219091)
(1.26215 -1.43908e-08 0.228119)
(1.44498 -7.42874e-09 0.125096)
(1.31738 -3.73609e-09 0.222973)
(0.120703 0 1.72628)
(-0.137533 -4.53223e-25 1.70809)
(-0.217139 0 1.58387)
(-0.178899 1.66543e-26 1.53259)
(-0.224788 0 1.74025)
(-0.116631 0 1.82323)
(-0.217226 0 0.862875)
(-0.446444 0 1.07703)
(-1.12466 0 0.63659)
(-1.61442 0 -0.440678)
(-1.64311 0 -0.323859)
(-0.658386 0 -0.0723961)
(0.151492 0 0.128761)
(0.460665 0 0.241081)
(0.770569 3.53746e-25 0.355168)
(1.03795 8.97165e-25 0.275874)
(1.37938 -9.65328e-10 0.292675)
(1.47088 9.34778e-10 0.14144)
(1.47086 2.13343e-10 0.141549)
(1.48792 1.47975e-09 0.0835275)
(1.48742 1.65758e-10 0.0840075)
(1.57458 -4.06723e-09 0.0201467)
(1.57591 1.10865e-09 0.0210582)
(1.59186 -5.29339e-09 0.00941536)
(1.59348 9.73047e-10 0.00919589)
(1.34433 4.24047e-09 -0.0393021)
(1.32282 3.06715e-09 0.157703)
(1.51186 4.01157e-09 -0.0613863)
(1.39874 3.89008e-09 -0.0345245)
(1.56107 4.43829e-09 -0.0269773)
(1.45993 3.90823e-09 -0.00552432)
(1.3353 -2.47835e-09 0.15831)
(1.34762 -1.18512e-09 -0.037978)
(1.51227 -4.00647e-09 -0.0613639)
(1.39945 -2.56327e-09 -0.0336763)
(1.56073 -5.02141e-09 -0.0270398)
(1.4615 -3.32635e-09 -0.00531317)
(1.50056 4.34769e-09 -0.0810712)
(1.6469 6.80908e-09 -0.0703159)
(1.45534 3.62032e-09 -0.0710335)
(1.61049 6.08766e-09 -0.0590883)
(1.50316 -3.28828e-09 -0.0812259)
(1.64681 -4.65072e-09 -0.0701487)
(1.45622 -3.02099e-09 -0.070312)
(1.61005 -4.94738e-09 -0.0588042)
(1.50236 2.27127e-08 0.321988)
(1.28954 2.25937e-08 0.310425)
(1.47396 1.55121e-08 0.325997)
(1.33948 3.51987e-09 0.306244)
(1.4446 6.72423e-10 0.127938)
(1.37458 5.98995e-10 0.140484)
(1.46982 1.43411e-09 0.14528)
(1.3683 6.06608e-10 0.128817)
(0.183739 -1.29287e-23 1.69771)
(0.618234 -1.37927e-09 1.45826)
(1.0192 1.00801e-09 0.967932)
(1.01893 2.90134e-10 0.967614)
(1.15486 -5.59357e-11 0.874379)
(1.1557 3.00115e-10 0.875424)
(1.40769 -7.20451e-10 0.462233)
(1.40856 -7.77991e-10 0.461003)
(1.41455 -8.65754e-09 0.429449)
(1.4125 6.10482e-09 0.428582)
(1.4968 -9.09743e-09 0.321844)
(1.30144 -1.20696e-08 0.309009)
(1.47204 -3.59598e-10 0.325124)
(1.33349 -3.464e-09 0.305962)
(1.45987 2.52403e-08 0.401106)
(1.27308 2.82499e-08 0.31593)
(1.46188 2.54423e-08 0.450154)
(1.30509 3.61209e-09 0.345223)
(1.45752 -1.24505e-08 0.402018)
(1.29564 -1.45706e-08 0.318899)
(1.46302 -7.8289e-09 0.450397)
(1.30668 -3.55352e-09 0.348851)
(1.44234 9.19894e-10 0.127941)
(1.38663 -5.20304e-10 0.137971)
(1.4718 -1.88323e-11 0.144591)
(1.36413 -3.44826e-10 0.128828)
(1.46173 1.77867e-09 0.092478)
(1.38392 1.17224e-09 0.108095)
(1.45985 -1.02343e-09 0.092669)
(1.38146 -1.20664e-09 0.108957)
(-0.154442 -7.42446e-25 1.70413)
(-0.321334 0 1.64083)
(-0.306202 0 1.47438)
(-0.278418 0 1.42869)
(-0.328035 0 1.61477)
(-0.173571 0 1.56406)
(-0.191085 0 0.928847)
(-0.398924 0 0.713275)
(-1.08123 0 -0.282815)
(-1.33406 0 -0.805769)
(-1.22783 0 -0.299187)
(-0.421265 0 -0.0227029)
(0.326319 0 0.0682266)
(0.612153 0 0.177904)
(0.951851 2.48291e-25 0.21108)
(1.22623 -6.30738e-10 0.20053)
(1.45424 1.42681e-09 0.0718605)
(1.45355 8.2513e-11 0.0724527)
(1.46612 1.79711e-09 0.0787105)
(1.46479 1.17244e-10 0.0794846)
(1.55935 -5.57932e-09 -0.0179177)
(1.56001 2.07761e-09 -0.0174288)
(1.54033 -6.01287e-09 -0.0164619)
(1.54073 2.44481e-09 -0.0175239)
(1.49929 4.36009e-09 -0.122886)
(1.6325 5.75743e-09 -0.107563)
(1.51098 6.8824e-09 -0.117616)
(1.64667 7.57343e-09 -0.112356)
(1.50321 -3.06942e-09 -0.122914)
(1.63286 -4.85846e-09 -0.107342)
(1.52136 -3.7067e-09 -0.117066)
(1.64852 -5.82019e-09 -0.112164)
(1.50279 8.81886e-09 -0.136047)
(1.63273 8.02916e-09 -0.131831)
(1.51322 7.73109e-09 -0.135523)
(1.64939 8.0945e-09 -0.135807)
(1.51242 -4.40247e-09 -0.135986)
(1.63391 -4.97095e-09 -0.131739)
(1.52488 -4.1083e-09 -0.136868)
(1.65128 -5.78847e-09 -0.136007)
(1.36908 9.11506e-10 0.00488117)
(1.38301 1.0155e-10 -0.0990125)
(1.5 3.84426e-11 -0.0976876)
(1.4396 1.91402e-09 -0.0764927)
(1.46178 1.11545e-10 -0.11164)
(1.56133 3.29648e-11 -0.107135)
(1.38153 -1.73738e-10 0.00495027)
(1.38537 -9.92098e-12 -0.0975718)
(1.44313 -1.21132e-09 -0.0764319)
(1.50043 -9.84112e-11 -0.0974578)
(1.46112 -1.94729e-10 -0.112364)
(1.56074 -4.1134e-10 -0.107298)
(1.51752 1.32451e-10 -0.151019)
(1.59672 4.6343e-10 -0.143746)
(1.51544 1.60886e-10 -0.144723)
(1.60007 4.72325e-10 -0.137088)
(1.52014 -2.24501e-10 -0.151383)
(1.59694 -3.34618e-10 -0.143941)
(1.51555 -1.70473e-10 -0.144367)
(1.59973 -4.16079e-10 -0.136849)
(1.44792 8.95336e-10 0.189552)
(1.35093 5.65691e-10 0.15533)
(1.43786 1.41814e-09 0.164051)
(1.37377 7.0891e-10 0.174396)
(1.51236 6.87932e-10 0.00557379)
(1.36022 1.12937e-10 0.0126038)
(1.40484 3.7127e-10 0.0172047)
(1.48009 2.31241e-10 -0.00266067)
(-0.183344 0 1.69785)
(0.158638 4.72305e-10 1.52258)
(0.637017 3.39718e-09 1.00977)
(0.635648 -1.28625e-11 1.00803)
(0.83791 1.27648e-09 0.980104)
(0.836907 -1.08251e-10 0.979024)
(1.13093 -2.99002e-09 0.529828)
(1.13396 -1.50928e-10 0.52624)
(1.22186 -1.28061e-09 0.465723)
(1.22413 -1.03987e-09 0.463211)
(1.31509 7.69054e-09 0.178224)
(1.49043 5.64704e-09 0.192656)
(1.34147 5.24928e-09 0.189602)
(1.51457 4.68137e-09 0.204538)
(1.31903 -3.54063e-09 0.179712)
(1.49027 -5.19159e-09 0.192707)
(1.34543 -3.0728e-09 0.190107)
(1.51494 -5.42731e-09 0.204434)
(1.35412 2.798e-09 0.071004)
(1.33735 3.14785e-09 0.13785)
(1.52566 2.12561e-09 0.128704)
(1.37725 4.57409e-09 0.16896)
(1.55988 4.20444e-09 0.188619)
(1.45926 5.21386e-09 0.330225)
(1.35936 -2.73202e-09 0.0684701)
(1.35285 -2.74242e-09 0.140607)
(1.52636 -4.22336e-09 0.127767)
(1.38034 -2.65516e-09 0.168411)
(1.55986 -5.59502e-09 0.18818)
(1.46245 -3.85162e-09 0.330562)
(1.44594 6.33755e-10 0.189089)
(1.35844 -4.81589e-10 0.156289)
(1.43858 -4.14617e-11 0.164402)
(1.37082 -5.32203e-10 0.173466)
(1.50655 1.81236e-09 0.252633)
(1.42949 1.22528e-09 0.200705)
(1.50565 -6.00422e-10 0.252144)
(1.42928 -1.04992e-09 0.199517)
(1.51063 -3.15676e-10 0.00660134)
(1.36774 -5.71496e-11 0.0145549)
(1.40708 -2.17589e-10 0.0185542)
(1.47583 2.26901e-10 0.00147178)
(1.47739 7.03583e-10 -0.000623621)
(1.45163 2.75123e-10 0.00528519)
(1.47358 -6.64586e-10 -0.00145716)
(1.44232 -3.27764e-10 0.00295011)
(-0.400838 -1.45685e-24 1.6697)
(-0.491636 0 1.51004)
(-0.443855 0 1.32166)
(-0.428128 0 1.32452)
(-0.492294 0 1.42356)
(-0.21677 0 1.25235)
(-0.0809504 0 0.565293)