/*--------------------------------*- C++ -*----------------------------------*\
| =========                 |                                                 |
| \\      /  F ield         | OpenFOAM: The Open Source CFD Toolbox           |
|  \\    /   O peration     | Version:  5.x                                   |
|   \\  /    A nd           | Web:      www.OpenFOAM.org                      |
|    \\/     M anipulation  |                                                 |
\*---------------------------------------------------------------------------*/
FoamFile
{
    version     2.0;
    format      ascii;
    class       surfaceVectorField;
    location    "2";
    object      Uf;
}
// * * * * * * * * * * * * * * * * * * * * * * * * * * * * * * * * * * * * * //

dimensions      [0 1 -1 0 0 0 0];

internalField   nonuniform List<vector> 
30582
(
(0.162273 0 0.000798016)
(0.169968 0 -0.00127481)
(0.165574 0 0.00237437)
(0.160557 0 -0.00132044)
(0.162143 0 -0.00345697)
(0.169654 0 -0.0024904)
(0.16613 0 0.00378563)
(0.16669 0 -0.000226449)
(0.165372 0 -0.00395502)
(0.160059 0 -0.00261188)
(0.161462 0 -0.0015215)
(0.169017 0 -0.00342187)
(0.162951 0 0.00422321)
(0.165269 0 0.00131755)
(0.165842 0 -0.00272717)
(0.166451 0 -0.000418056)
(0.164875 0 0.00103557)
(0.158932 0 -0.00397715)
(0.160358 0 -0.00608743)
(0.168016 0 -0.00389472)
(0.158277 0 0.00394266)
(0.160536 0 0.00197225)
(0.162415 0 -0.000953781)
(0.165129 0 0.00273801)
(0.165785 0 0.00516312)
(0.165217 0 -0.000788517)
(0.163111 0 -0.00593792)
(0.157236 0 -0.00507843)
(0.158741 0 -0.00263188)
(0.166236 0 -0.00369934)
(0.152889 0 0.00351854)
(0.155253 0 0.00231387)
(0.157788 0 0.000340182)
(0.160495 0 0.00392475)
(0.162732 0 0.0076857)
(0.163855 0 0.00400323)
(0.162944 0 -0.00203573)
(0.163736 0 -0.000720772)
(0.161793 0 0.000383958)
(0.153973 0 -0.00629924)
(0.155258 0 -0.00772768)
(0.164015 0 -0.00209425)
(0.147376 0 0.00328147)
(0.150099 0 0.00241043)
(0.152749 0 0.00118681)
(0.15544 0 0.00447807)
(0.158359 0 0.00811179)
(0.159251 0 0.0057698)
(0.159974 0 0.00201712)
(0.162449 0 0.00523425)
(0.162446 0 0.00673646)
(0.160377 0 -0.000986662)
(0.156664 0 -0.00790806)
(0.150308 0 -0.00686157)
(0.152758 0 -0.000944955)
(0.15979 0 0.000542553)
(0.140654 0 0.00335046)
(0.144287 0 0.0029916)
(0.147496 0 0.00210195)
(0.150368 0 0.00470665)
(0.153335 0 0.0080602)
(0.154951 0 0.00663611)
(0.156068 0 0.00422783)
(0.158106 0 0.00741819)
(0.160176 0 0.0107724)
(0.1587 0 0.00617509)
(0.15525 0 -0.00164036)
(0.157462 0 -0.000411031)
(0.155458 0 0.000950192)
(0.14019 0 -0.00794167)
(0.140544 0 -0.00684652)
(0.12404 0 0.00803641)
(0.132151 0 0.00365875)
(0.136844 0 0.00385188)
(0.141046 0 0.00346413)
(0.144915 0 0.00586233)
(0.14822 0 0.00851793)
(0.150307 0 0.00694265)
(0.152125 0 0.00543878)
(0.154815 0 0.0083296)
(0.157099 0 0.0116805)
(0.155761 0 0.00871641)
(0.154034 0 0.00403787)
(0.15554 0 0.00667903)
(0.155732 0 0.00803507)
(0.148135 0 -0.000522359)
(0.13764 0 -0.00965077)
(0.101819 0 -0.00677966)
(0.0789924 0 0.00850541)
(-0.0474508 0 -0.0291624)
(0.121375 0 0.00409671)
(0.127251 0 0.00496909)
(0.132713 0 0.00512138)
(0.137678 0 0.00762674)
(0.142107 0 0.0100736)
(0.145598 0 0.00858286)
(0.148049 0 0.00693479)
(0.150866 0 0.00872429)
(0.153637 0 0.0117458)
(0.153989 0 0.00981648)
(0.15281 0 0.0067327)
(0.15363 0 0.00923319)
(0.15511 0 0.0119418)
(0.147233 0 0.00693659)
(0.137331 0 -0.00154046)
(0.114903 0 -0.000396736)
(0.0839232 0 0.00274495)
(-0.0631442 0 -0.00875209)
(-0.189601 0 -0.0448944)
(-0.101312 0 0.0451106)
(0.108518 0 0.00449487)
(0.115377 0 0.00603518)
(0.121971 0 0.00685881)
(0.128155 0 0.00992229)
(0.133926 0 0.0124921)
(0.13879 0 0.0113331)
(0.142828 0 0.00973164)
(0.146774 0 0.0109065)
(0.149819 0 0.0127748)
(0.151295 0 0.0103935)
(0.151487 0 0.00833517)
(0.15307 0 0.0103847)
(0.153928 0 0.0130551)
(0.148005 0 0.00973215)
(0.14037 0 0.00498515)
(0.127497 0 0.00567693)
(0.102809 0 0.00649936)
(-0.0938243 0 -0.00808719)
(-0.236641 0 -0.0192682)
(0.0326208 0 0.0100648)
(0.132404 0 0.0931291)
(-0.00584662 0 -0.00693009)
(0.0942907 0 0.00472845)
(0.101719 0 0.00679821)
(0.109013 0 0.00829118)
(0.116153 0 0.0121178)
(0.123123 0 0.0152769)
(0.129442 0 0.0149038)
(0.13517 0 0.0136003)
(0.140447 0 0.0148025)
(0.144909 0 0.0160427)
(0.148159 0 0.0130918)
(0.149663 0 0.0106251)
(0.151524 0 0.0111909)
(0.152574 0 0.0134534)
(0.150343 0 0.0109663)
(0.144202 0 0.00789475)
(0.136008 0 0.0081153)
(0.123567 0 0.00801627)
(-0.0609041 0 -0.00292689)
(-0.257224 0 -0.0172517)
(-0.15204 0 0.00029397)
(0.113474 0 0.0278784)
(0.187025 0 0.0176373)
(0.0584899 0 -0.0757569)
(-0.0466217 0 -0.0299149)
(0.0796557 0 0.0046962)
(0.0871746 0 0.00711803)
(0.0945596 0 0.00914879)
(0.10222 0 0.0137045)
(0.10988 0 0.0176634)
(0.117268 0 0.0183343)
(0.124492 0 0.0178068)
(0.13134 0 0.0198275)
(0.137555 0 0.0211059)
(0.14269 0 0.0181339)
(0.14637 0 0.0150808)
(0.149574 0 0.0145574)
(0.151226 0 0.0151653)
(0.151324 0 0.0117801)
(0.148069 0 0.00932485)
(0.148587 0 0.0093057)
(0.140345 0 0.00840889)
(-0.0344025 0 0.00103627)
(-0.220959 0 -0.00990301)
(-0.148987 0 -0.0179585)
(-0.0425304 0 -0.00167894)
(0.0210238 0 0.0638181)
(0.0896081 0 0.0604879)
(-0.00984185 0 0.00518946)
(-0.113663 0 0.042908)
(-0.0183977 0 0.014751)
(0.0656462 0 0.00434397)
(0.0725718 0 0.00693629)
(0.0796509 0 0.00931497)
(0.0873413 0 0.0143691)
(0.0950298 0 0.0190874)
(0.102882 0 0.0208003)
(0.110942 0 0.0213353)
(0.118923 0 0.0246949)
(0.126847 0 0.0268462)
(0.133987 0 0.0247649)
(0.140121 0 0.0216665)
(0.145144 0 0.0209645)
(0.148548 0 0.0202226)
(0.151925 0 0.0157492)
(0.151428 0 0.0122103)
(0.15787 0 0.0103115)
(0.156851 0 0.00911876)
(0.0200161 0 0.00221643)
(-0.151427 0 -0.00548208)
(-0.150828 0 -0.0283003)
(-0.0827737 0 -0.0354626)
(-0.000110338 0 -0.0012782)
(0.062073 0 0.0670223)
(0.0214344 0 0.0750304)
(-0.0794818 0 0.0145534)
(-0.0234156 0 -0.00848355)
(0.0714596 0 -0.0298634)
(0.000188028 0 -0.0133299)
(0.0531105 0 0.00379271)
(0.0592089 0 0.00631823)
(0.0653495 0 0.00883936)
(0.0724958 0 0.014017)
(0.07977 0 0.0192628)
(0.0874034 0 0.021791)
(0.0954047 0 0.0234055)
(0.103887 0 0.0282244)
(0.112759 0 0.0318006)
(0.121246 0 0.0313078)
(0.129666 0 0.029173)
(0.136972 0 0.0295859)
(0.14303 0 0.0284749)
(0.149721 0 0.0234642)
(0.152944 0 0.0190577)
(0.167173 0 0.0150744)
(0.172194 0 0.0124114)
(0.0710127 0 0.0036038)
(-0.0667718 0 -0.00388207)
(-0.105396 0 -0.0341429)
(-0.100474 0 -0.0524162)
(-0.0297431 0 -0.0208322)
(0.0524281 0 0.0116536)
(0.0374825 0 0.00271951)
(-0.00393308 0 0.00618436)
(0.0126306 0 0.0442669)
(0.0673942 0 0.0281234)
(-0.00360914 0 -0.00685732)
(-0.0739893 0 0.00338662)
(0.0422205 0 0.00323322)
(0.0474666 0 0.00558676)
(0.0525317 0 0.0080062)
(0.0588114 0 0.0127786)
(0.0651876 0 0.0181839)
(0.0719754 0 0.021237)
(0.0792321 0 0.02367)
(0.0875363 0 0.0296569)
(0.0963492 0 0.0347692)
(0.105288 0 0.0360656)
(0.114949 0 0.0356565)
(0.123832 0 0.0382164)
(0.132655 0 0.038041)
(0.142948 0 0.0343697)
(0.150675 0 0.0298836)
(0.172944 0 0.0244922)
(0.186564 0 0.0203489)
(0.130994 0 0.00867916)
(0.0276605 0 -0.0007443)
(-0.067889 0 -0.037681)
(-0.105304 0 -0.0619697)
(-0.0321495 0 -0.0320688)
(0.0385752 0 -0.00548097)
(0.026633 0 -0.0149874)
(0.0129383 0 -0.0228488)
(0.0206968 0 -0.00427356)
(0.0372278 0 0.0374012)
(0.00755899 0 0.0565505)
(-0.0642004 0 0.0150006)
(0.0330948 0 0.00272377)
(0.0375069 0 0.0047656)
(0.0416314 0 0.00698348)
(0.046868 0 0.0111788)
(0.0521025 0 0.0162179)
(0.0578033 0 0.0193738)
(0.0638387 0 0.0222633)
(0.0713368 0 0.0288584)
(0.0793355 0 0.0351968)
(0.0876806 0 0.0379318)
(0.0972116 0 0.0394502)
(0.106665 0 0.0445409)
(0.11706 0 0.0463977)
(0.129854 0 0.0455373)
(0.141931 0 0.0428335)
(0.17196 0 0.0384017)
(0.195287 0 0.0327771)
(0.175625 0 0.0205406)
(0.11754 0 0.00929442)
(-0.0107552 0 -0.0313207)
(-0.104564 0 -0.0621931)
(-0.0402284 0 -0.0380043)
(0.0349408 0 -0.015285)
(0.0250404 0 -0.0305078)
(0.0115664 0 -0.0357868)
(0.00972334 0 -0.0144086)
(0.0178964 0 0.00315863)
(0.00889174 0 0.00373902)
(-0.0208665 0 0.0176248)
(0.02562 0 0.00229846)
(0.0293659 0 0.00397353)
(0.0326577 0 0.00585823)
(0.0369297 0 0.00945183)
(0.0410207 0 0.0139389)
(0.0456531 0 0.0168639)
(0.0502956 0 0.0197555)
(0.0565674 0 0.0261998)
(0.0633412 0 0.0332025)
(0.0703887 0 0.0367773)
(0.0785351 0 0.0397689)
(0.0873995 0 0.0470155)
(0.0977911 0 0.0513608)
(0.111447 0 0.0537481)
(0.126106 0 0.0542887)
(0.161295 0 0.0529655)
(0.193652 0 0.047244)
(0.199081 0 0.0391554)
(0.180466 0 0.0282349)
(0.0599408 0 -0.00796647)
(-0.068433 0 -0.0451804)
(-0.0356253 0 -0.0474002)
(0.0306673 0 -0.031503)
(0.022249 0 -0.036136)
(0.0128366 0 -0.0451004)
(0.00807852 0 -0.0310534)
(0.00556493 0 -0.0137248)
(0.00559314 0 -0.0092058)
(-0.00292727 0 -0.00799414)
(0.0193938 0 0.00198317)
(0.0226038 0 0.00336919)
(0.0253054 0 0.00486923)
(0.0288741 0 0.00788187)
(0.0320005 0 0.011778)
(0.0357669 0 0.0141624)
(0.0392174 0 0.0167452)
(0.0441042 0 0.0225473)
(0.0492953 0 0.0294624)
(0.0547152 0 0.0332792)
(0.0610735 0 0.036947)
(0.0686433 0 0.0454227)
(0.0774714 0 0.0519653)
(0.0900204 0 0.0568985)
(0.105059 0 0.0610334)
(0.142724 0 0.0638051)
(0.180332 0 0.0597381)
(0.200553 0 0.0592182)
(0.20959 0 0.051022)
(0.140235 0 0.0257259)
(0.0184257 0 -0.00944745)
(-0.00784421 0 -0.047315)
(0.0280461 0 -0.0536559)
(0.0203777 0 -0.0462336)
(0.0111304 0 -0.0445014)
(0.00487227 0 -0.0353901)
(-0.000132473 0 -0.0264831)
(0.00422885 0 -0.0286064)
(0.00399477 0 -0.0209683)
(0.0140894 0 0.00174433)
(0.0168673 0 0.00292179)
(0.0191703 0 0.0041142)
(0.0222261 0 0.00668905)
(0.0247342 0 0.0100168)
(0.02792 0 0.0117446)
(0.0305033 0 0.0137421)
(0.0342306 0 0.0187132)
(0.037892 0 0.0250148)
(0.0418362 0 0.0283973)
(0.0461633 0 0.0320243)
(0.0519836 0 0.0407942)
(0.0589213 0 0.0488535)
(0.0687905 0 0.0546071)
(0.0815738 0 0.0615037)
(0.118925 0 0.0683207)
(0.158747 0 0.067023)
(0.184556 0 0.0741188)
(0.208676 0 0.0710568)
(0.17654 0 0.0596474)
(0.107919 0 0.0360206)
(0.0516558 0 -0.0155393)
(0.0244261 0 -0.0516024)
(0.00803137 0 -0.045675)
(0.00151765 0 -0.0368664)
(0.00186336 0 -0.0419555)
(-0.00459835 0 -0.0359701)
(0.00132024 0 -0.0334377)
(0.00579664 0 -0.0313634)
(0.00951451 0 0.00154769)
(0.0118763 0 0.00256512)
(0.013911 0 0.00353172)
(0.0165699 0 0.00581875)
(0.0187068 0 0.0087295)
(0.0215122 0 0.00995065)
(0.0236139 0 0.011254)
(0.0266336 0 0.0154069)
(0.0291266 0 0.0208542)
(0.0320845 0 0.0232906)
(0.0347571 0 0.0262835)
(0.038612 0 0.034249)
(0.0433242 0 0.0431523)
(0.0496315 0 0.0486555)
(0.0590208 0 0.0563663)
(0.0936152 0 0.0657733)
(0.131786 0 0.0676855)
(0.156971 0 0.081434)
(0.186823 0 0.0840827)
(0.176357 0 0.0845607)
(0.148941 0 0.0753948)
(0.0918053 0 0.0403909)
(0.0341667 0 -0.00688116)
(-0.00295486 0 -0.0200308)
(-0.0175393 0 -0.0178283)
(-0.0106424 0 -0.0370417)
(-0.0097325 0 -0.0411251)
(-0.000822992 0 -0.0396707)
(0.00489952 0 -0.0358276)
(0.00562421 0 0.00135811)
(0.00754361 0 0.00222049)
(0.00933468 0 0.00301231)
(0.0116018 0 0.00513102)
(0.0135095 0 0.00777781)
(0.0160277 0 0.00868157)
(0.0178983 0 0.00943665)
(0.0205617 0 0.0130435)
(0.0224667 0 0.0176409)
(0.0249998 0 0.0189472)
(0.0266597 0 0.0209391)
(0.0290477 0 0.0275192)
(0.0315815 0 0.0360116)
(0.034456 0 0.0402732)
(0.039637 0 0.0473006)
(0.0696208 0 0.0584252)
(0.104051 0 0.06286)
(0.127074 0 0.0795051)
(0.155306 0 0.0874454)
(0.151395 0 0.0967631)
(0.146349 0 0.0986926)
(0.113298 0 0.0857991)
(0.057035 0 0.0555816)
(0.00530343 0 0.0296561)
(-0.0327985 0 0.0124307)
(-0.0239283 0 -0.0129947)
(-0.0159105 0 -0.0291023)
(-0.00726198 0 -0.034243)
(0.00218442 0 -0.0347743)
(0.00249623 0 0.00114205)
(0.00385329 0 0.00181728)
(0.00540715 0 0.0024431)
(0.00722939 0 0.00446222)
(0.00892175 0 0.00696288)
(0.0111268 0 0.00770337)
(0.0128826 0 0.00809813)
(0.0153169 0 0.0114444)
(0.0170259 0 0.0154818)
(0.0194748 0 0.0159876)
(0.0208533 0 0.0168759)
(0.0226926 0 0.0220338)
(0.0237099 0 0.0292044)
(0.0246453 0 0.0316299)
(0.0261513 0 0.0362938)
(0.0511275 0 0.0471916)
(0.0798712 0 0.0540829)
(0.104675 0 0.0706125)
(0.128649 0 0.0809338)
(0.113508 0 0.0927032)
(0.115101 0 0.10305)
(0.120706 0 0.111961)
(0.08887 0 0.102084)
(0.0296085 0 0.0705874)
(-0.023763 0 0.0443594)
(-0.0254246 0 0.0254146)
(-0.0173621 0 0.00286896)
(-0.0135292 0 -0.0123254)
(-0.00450969 0 -0.0199135)
(0.000308332 0 0.000898234)
(0.00103332 0 0.00129401)
(0.00222592 0 0.00172545)
(0.00344004 0 0.00366549)
(0.00489928 0 0.00608404)
(0.00671154 0 0.00675816)
(0.00833669 0 0.00694955)
(0.0105004 0 0.0102522)
(0.0121571 0 0.0140311)
(0.0145824 0 0.0141263)
(0.0160524 0 0.014266)
(0.0179996 0 0.0185855)
(0.0186502 0 0.0240816)
(0.0189348 0 0.0247235)
(0.0184475 0 0.0265725)
(0.0390208 0 0.0356529)
(0.0621862 0 0.043839)
(0.0901295 0 0.0562643)
(0.113767 0 0.0669323)
(0.0762785 0 0.0781133)
(0.0647243 0 0.0901209)
(0.117618 0 0.117645)
(0.125736 0 0.125703)
(0.0606619 0 0.0940308)
(-2.21087e-05 0 0.0679257)
(-0.0139974 0 0.0592432)
(-0.0163795 0 0.0408547)
(-0.0154756 0 0.0249534)
(-0.011781 0 0.00801182)
(-0.000806847 0 0.000675108)
(-0.000671532 0 0.000671358)
(-1.73944e-06 0 0.000815545)
(0.000492864 0 0.00261152)
(0.00155025 0 0.00496533)
(0.00277873 0 0.0056112)
(0.00423051 0 0.00570205)
(0.0060081 0 0.00910189)
(0.00758763 0 0.0128523)
(0.00988033 0 0.0128143)
(0.0115038 0 0.0125885)
(0.013699 0 0.0166318)
(0.0146448 0 0.0207937)
(0.0150213 0 0.0207529)
(0.0141089 0 0.0205305)
(0.0307921 0 0.0270298)
(0.0495406 0 0.0356613)
(0.0794836 0 0.0422568)
(0.104442 0 0.0500727)
(0.0589343 0 0.0610485)
(0.0220738 0 0.0707608)
(0.10665 0 0.0996098)
(0.163857 0 0.124175)
(0.0944277 0 0.0987706)
(0.027996 0 0.0760027)
(0.00533913 0 0.0804036)
(-0.0088319 0 0.0691286)
(-0.0116533 0 0.0556368)
(-0.0109796 0 0.0395457)
(-0.000576352 0 0.000409367)
(-0.00122441 0 -0.00014124)
(-0.00104811 0 -0.000331352)
(-0.00136898 0 0.00130129)
(-0.000938682 0 0.00352593)
(-0.000361904 0 0.00408359)
(0.000730686 0 0.00412116)
(0.00186192 0 0.00764452)
(0.00328023 0 0.0115207)
(0.00526668 0 0.0115604)
(0.00696926 0 0.0112146)
(0.00926719 0 0.0153568)
(0.0106332 0 0.0188692)
(0.0112253 0 0.0188415)
(0.0105838 0 0.0180624)
(0.0243226 0 0.0226604)
(0.0393695 0 0.0303448)
(0.0722335 0 0.0324367)
(0.0989723 0 0.036947)
(0.0642376 0 0.0451132)
(0.0161769 0 0.0539057)
(0.104759 0 0.0640737)
(0.193935 0 0.0930124)
(0.12627 0 0.08445)
(0.057925 0 0.0690303)
(0.0249444 0 0.0839523)
(0.00135154 0 0.0837691)
(-0.00478494 0 0.0754508)
(-0.00807357 0 0.0638709)
(0.000944682 0 6.57806e-05)
(-0.000449832 0 -0.000948834)
(-0.00101624 0 -0.00162802)
(-0.00203151 0 -0.000160766)
(-0.00237566 0 0.00178686)
(-0.00241114 0 0.00216638)
(-0.00193102 0 0.00209221)
(-0.00156417 0 0.00565783)
(-0.000532031 0 0.00969778)
(0.000804229 0 0.00985932)
(0.00243143 0 0.00953278)
(0.00455829 0 0.0141505)
(0.00626496 0 0.0175753)
(0.00685274 0 0.017806)
(0.00663367 0 0.0176834)
(0.018047 0 0.0210174)
(0.0304862 0 0.0269742)
(0.0647361 0 0.0274675)
(0.0945697 0 0.0307645)
(0.0770189 0 0.0347771)
(0.0385387 0 0.0421246)
(0.109145 0 0.0334355)
(0.201747 0 0.0477899)
(0.148017 0 0.0600656)
(0.0841568 0 0.0592549)
(0.0415598 0 0.0712286)
(0.00785204 0 0.0810568)
(0.00264656 0 0.0807339)
(-0.00375331 0 0.075569)
(0.00375774 0 -0.000264131)
(0.00173657 0 -0.00178624)
(0.00044631 0 -0.00294457)
(-0.00128809 0 -0.00186118)
(-0.00219217 0 -0.000187798)
(-0.00323172 0 -0.000273206)
(-0.00328016 0 -0.000381684)
(-0.00390618 0 0.00297859)
(-0.00364702 0 0.00711088)
(-0.00310461 0 0.00750014)
(-0.00186752 0 0.00718154)
(-0.000280177 0 0.0123569)
(0.00149004 0 0.0161797)
(0.00179766 0 0.016876)
(0.00185669 0 0.0176695)
(0.0111919 0 0.0204844)
(0.0215853 0 0.0246462)
(0.0554025 0 0.0259203)
(0.0872704 0 0.0298488)
(0.0836715 0 0.0314173)
(0.0616652 0 0.0370108)
(0.103734 0 0.0224834)
(0.175932 0 0.0194117)
(0.147907 0 0.0469168)
(0.100099 0 0.0585467)
(0.0509866 0 0.051887)
(0.00892439 0 0.061618)
(0.0075449 0 0.0706881)
(0.00219782 0 0.073095)
(0.00772212 0 -0.000549608)
(0.00516844 0 -0.00256246)
(0.00328859 0 -0.00422337)
(0.000907605 0 -0.00359103)
(-0.000687073 0 -0.00228508)
(-0.0025835 0 -0.00280009)
(-0.00350666 0 -0.0032372)
(-0.00499323 0 -0.000134407)
(-0.00561921 0 0.00366235)
(-0.00600171 0 0.00416586)
(-0.00557512 0 0.00399398)
(-0.00484955 0 0.00969296)
(-0.00342126 0 0.0141287)
(-0.00331852 0 0.0152103)
(-0.00329677 0 0.0168549)
(0.00379219 0 0.0198174)
(0.0124006 0 0.0223584)
(0.043113 0 0.0256342)
(0.0750604 0 0.0314681)
(0.0813211 0 0.0326459)
(0.0735725 0 0.0376801)
(0.0889554 0 0.024974)
(0.128961 0 0.0158985)
(0.135171 0 0.0474529)
(0.112562 0 0.0654998)
(0.0572074 0 0.0404083)
(0.00930941 0 0.0369235)
(0.00789271 0 0.0516895)
(0.00654258 0 0.0607216)
(0.0125574 0 -0.000807084)
(0.00964671 0 -0.0031815)
(0.00729888 0 -0.00533135)
(0.00443944 0 -0.00515458)
(0.002203 0 -0.00430896)
(-0.00036096 0 -0.00542618)
(-0.00204969 0 -0.0063107)
(-0.00452056 0 -0.00370896)
(-0.0059102 0 -0.000320949)
(-0.00746573 0 4.39088e-05)
(-0.00795444 0 2.71161e-05)
(-0.00846505 0 0.00559825)
(-0.00792462 0 0.0106463)
(-0.00758873 0 0.0123564)
(-0.00771635 0 0.0146354)
(-0.00361016 0 0.0177779)
(0.00313947 0 0.0191171)
(0.0280245 0 0.0251035)
(0.0573265 0 0.0336331)
(0.0694246 0 0.0355776)
(0.0720398 0 0.0414345)
(0.0742094 0 0.0334902)
(0.0848149 0 0.0248726)
(0.118702 0 0.0488626)
(0.125613 0 0.0684799)
(0.0710477 0 0.040515)
(0.0173626 0 0.0234195)
(0.00529247 0 0.0362028)
(0.00392245 0 0.0474271)
(0.0180225 0 -0.00100103)
(0.0148999 0 -0.00366026)
(0.0122605 0 -0.00616736)
(0.00909408 0 -0.00644615)
(0.00644181 0 -0.00605594)
(0.0033334 0 -0.00789443)
(0.00094949 0 -0.00937212)
(-0.00233304 0 -0.00733061)
(-0.00456653 0 -0.00443581)
(-0.0071274 0 -0.00454715)
(-0.00855494 0 -0.0045655)
(-0.010431 0 0.000411895)
(-0.0109739 0 0.00547495)
(-0.010644 0 0.00743399)
(-0.0105169 0 0.0103717)
(-0.0091997 0 0.0140128)
(-0.00534317 0 0.014734)
(0.0105536 0 0.0227061)
(0.0344764 0 0.0342914)
(0.048575 0 0.0381458)
(0.0578021 0 0.0458459)
(0.0586068 0 0.0435605)
(0.0554455 0 0.0377104)
(0.101935 0 0.0496677)
(0.133373 0 0.063392)
(0.0835462 0 0.0446632)
(0.0299352 0 0.0267826)
(0.00558791 0 0.0338316)
(-0.00660435 0 0.0403069)
(0.0237411 0 -0.0010925)
(0.0206024 0 -0.00389854)
(0.0177891 0 -0.00668596)
(0.0145526 0 -0.00736299)
(0.0116661 0 -0.00741089)
(0.00823663 0 -0.00988368)
(0.00534091 0 -0.0120843)
(0.00154689 0 -0.0107329)
(-0.00150283 0 -0.00837663)
(-0.00487645 0 -0.00927598)
(-0.0071786 0 -0.00975464)
(-0.0104507 0 -0.00540573)
(-0.0121572 0 -0.00069852)
(-0.0123465 0 0.00113698)
(-0.0121018 0 0.00411592)
(-0.0136829 0 0.00838807)
(-0.0126546 0 0.00955311)
(-0.00892729 0 0.018337)
(0.00648098 0 0.0318971)
(0.0210975 0 0.0389708)
(0.0331868 0 0.0492822)
(0.0364148 0 0.0521955)
(0.0329519 0 0.0513909)
(0.0813825 0 0.0561727)
(0.125268 0 0.0601947)
(0.0856496 0 0.0541324)
(0.036845 0 0.0425358)
(0.00890771 0 0.0409242)
(-0.0150925 0 0.0401052)
(0.0294254 0 -0.00108771)
(0.0264195 0 -0.00394498)
(0.0236301 0 -0.00687491)
(0.0204526 0 -0.00788053)
(0.0175367 0 -0.00830449)
(0.0139999 0 -0.0112948)
(0.010827 0 -0.0141413)
(0.00684679 0 -0.0134934)
(0.00323489 0 -0.0117878)
(-0.000687174 0 -0.0137952)
(-0.00372024 0 -0.0151516)
(-0.00831146 0 -0.011472)
(-0.011386 0 -0.00711802)
(-0.0125919 0 -0.0058868)
(-0.0125832 0 -0.0034501)
(-0.018011 0 0.00143201)
(-0.0197032 0 0.00378867)
(-0.0281364 0 0.0126314)
(-0.0246652 0 0.0265579)
(-0.0130755 0 0.0367581)
(0.000817939 0 0.0504527)
(0.00890289 0 0.0577761)
(0.00966069 0 0.0636162)
(0.0499631 0 0.0654896)
(0.0946602 0 0.0631097)
(0.0764021 0 0.0733344)
(0.0365678 0 0.0656166)
(0.0119017 0 0.0542851)
(-0.0153202 0 0.046618)
(0.0348078 0 -0.000993397)
(0.0320575 0 -0.00380239)
(0.029403 0 -0.00676775)
(0.0264453 0 -0.00795141)
(0.0236176 0 -0.00868741)
(0.0202454 0 -0.0120261)
(0.0170351 0 -0.0153984)
(0.013114 0 -0.0154527)
(0.00940196 0 -0.0143763)
(0.00513874 0 -0.0175512)
(0.00142388 0 -0.0200871)
(-0.00380492 0 -0.0171202)
(-0.00806729 0 -0.0132312)
(-0.0105254 0 -0.0135793)
(-0.0115192 0 -0.0123248)
(-0.021137 0 -0.00655051)
(-0.0262221 0 -0.00283188)
(-0.0442282 0 0.00542683)
(-0.0523917 0 0.0183658)
(-0.0469288 0 0.0293231)
(-0.035212 0 0.0457037)
(-0.0209329 0 0.0580673)
(-0.0139439 0 0.0695347)
(0.0160425 0 0.0714898)
(0.053907 0 0.0658335)
(0.0543843 0 0.0887507)
(0.0345369 0 0.0894887)
(0.0143282 0 0.0744731)
(-0.0105012 0 0.0619711)
(0.0396887 0 -0.000817276)
(0.0373063 0 -0.00351012)
(0.0348998 0 -0.00641597)
(0.0322427 0 -0.00768553)
(0.029622 0 -0.00861127)
(0.0265474 0 -0.0121186)
(0.0234967 0 -0.0158344)
(0.0198844 0 -0.0164312)
(0.0163025 0 -0.0159581)
(0.0120749 0 -0.0200743)
(0.00812328 0 -0.0238576)
(0.00279739 0 -0.0219593)
(-0.00205722 0 -0.0185349)
(-0.00576517 0 -0.021005)
(-0.00785519 0 -0.02188)
(-0.022024 0 -0.0159059)
(-0.0315409 0 -0.0103119)
(-0.0564227 0 -0.00323256)
(-0.0739224 0 0.0073056)
(-0.0733872 0 0.018621)
(-0.0666453 0 0.0346545)
(-0.047387 0 0.0482462)
(-0.0324188 0 0.0647478)
(-0.0120848 0 0.068994)
(0.0168145 0 0.0630855)
(0.026872 0 0.0930395)
(0.025872 0 0.103667)
(0.0141395 0 0.0936963)
(-0.00613638 0 0.0817672)
(0.0438654 0 -0.000558906)
(0.0419356 0 -0.00305719)
(0.0398971 0 -0.00583899)
(0.0376529 0 -0.00710402)
(0.0353579 0 -0.00812755)
(0.0326231 0 -0.0117376)
(0.0298725 0 -0.0155936)
(0.0266387 0 -0.0165434)
(0.0233434 0 -0.0165531)
(0.0195216 0 -0.0212312)
(0.0156364 0 -0.0260237)
(0.0108175 0 -0.0251062)
(0.00579213 0 -0.0224611)
(0.00140372 0 -0.0271241)
(-0.0017707 0 -0.0305637)
(-0.0203348 0 -0.0249378)
(-0.0339545 0 -0.0178507)
(-0.0642436 0 -0.0143733)
(-0.0884729 0 -0.00517763)
(-0.0917275 0 0.00584424)
(-0.0893104 0 0.0206984)
(-0.071664 0 0.03251)
(-0.0498042 0 0.0492814)
(-0.0342869 0 0.0587124)
(-0.0136723 0 0.0552616)
(0.00408898 0 0.087025)
(0.0139404 0 0.103617)
(0.00989356 0 0.0999713)
(-0.00200967 0 0.0947422)
(0.0471494 0 -0.000239357)
(0.0458311 0 -0.002447)
(0.044219 0 -0.00502962)
(0.0424635 0 -0.00622062)
(0.0405747 0 -0.00724503)
(0.0383117 0 -0.0108558)
(0.0359154 0 -0.014787)
(0.0331136 0 -0.0160066)
(0.030224 0 -0.016357)
(0.0268774 0 -0.0213186)
(0.0233635 0 -0.026729)
(0.0192781 0 -0.0264991)
(0.0147898 0 -0.0246647)
(0.0100105 0 -0.0311324)
(0.00595778 0 -0.0370112)
(-0.0165335 0 -0.0322092)
(-0.0342779 0 -0.0245092)
(-0.0663879 0 -0.0247287)
(-0.0954243 0 -0.0178851)
(-0.100464 0 -0.00995923)
(-0.100716 0 0.00347943)
(-0.0870722 0 0.012959)
(-0.0651304 0 0.0267188)
(-0.0647289 0 0.0419019)
(-0.0472121 0 0.044173)
(-0.014892 0 0.0789037)
(0.0027097 0 0.0972054)
(0.005049 0 0.0936671)
(0.00114378 0 0.0955016)
(0.0494456 0 0.000108469)
(0.0487206 0 -0.00174173)
(0.0476852 0 -0.00404354)
(0.0465374 0 -0.00502972)
(0.0450966 0 -0.00598018)
(0.0434001 0 -0.00953051)
(0.0414928 0 -0.0134477)
(0.0391987 0 -0.0148668)
(0.0367371 0 -0.0154904)
(0.0338877 0 -0.0206076)
(0.0308333 0 -0.026333)
(0.0273834 0 -0.0265027)
(0.0235769 0 -0.0252487)
(0.0183999 0 -0.0324896)
(0.0139676 0 -0.0400922)
(-0.0112669 0 -0.0364969)
(-0.0327554 0 -0.0292106)
(-0.0619984 0 -0.033211)
(-0.0919466 0 -0.0298506)
(-0.0964918 0 -0.0269766)
(-0.0976952 0 -0.0160934)
(-0.0929045 0 -0.0118773)
(-0.0739109 0 -0.000987447)
(-0.0874944 0 0.0184364)
(-0.0833038 0 0.0275707)
(-0.0407956 0 0.064019)
(-0.00827509 0 0.0862324)
(-0.000181529 0 0.0855165)
(0.00222649 0 0.0884378)
(0.0507443 0 0.000506004)
(0.0507866 0 -0.00100271)
(0.0502203 0 -0.00299451)
(0.0496028 0 -0.00366473)
(0.0487569 0 -0.00438084)
(0.0477403 0 -0.00775712)
(0.046368 0 -0.0116138)
(0.0446759 0 -0.013099)
(0.0427469 0 -0.0139131)
(0.040512 0 -0.0191888)
(0.0379832 0 -0.0250821)
(0.0348831 0 -0.0256587)
(0.0316704 0 -0.0247589)
(0.0253198 0 -0.0321198)
(0.0203823 0 -0.0403104)
(-0.00615448 0 -0.0368626)
(-0.0301735 0 -0.0311059)
(-0.0503014 0 -0.0382261)
(-0.0766293 0 -0.0393244)
(-0.0767402 0 -0.0432896)
(-0.0762303 0 -0.0362496)
(-0.0909701 0 -0.0408507)
(-0.0798365 0 -0.0340666)
(-0.0987263 0 -0.00811466)
(-0.107937 0 0.00702545)
(-0.0592172 0 0.0338029)
(-0.0152852 0 0.0605321)
(-0.00323547 0 0.0683147)
(0.00454544 0 0.0742985)
(0.0514468 0 -0.000393659)
(0.0512452 0 0.00105608)
(0.0517425 0 -0.0020916)
(0.0517419 0 -0.00217789)
(0.0513316 0 -0.00248057)
(0.0510798 0 -0.0056177)
(0.0503644 0 -0.00936873)
(0.0493556 0 -0.010735)
(0.0480293 0 -0.0115709)
(0.04657 0 -0.0169654)
(0.0446915 0 -0.023033)
(0.0419177 0 -0.0240133)
(0.0390978 0 -0.0235143)
(0.0310162 0 -0.0309057)
(0.024917 0 -0.0391834)
(-0.00313977 0 -0.0352669)
(-0.0288072 0 -0.030785)
(-0.031548 0 -0.037794)
(-0.0483249 0 -0.0440803)
(-0.0391021 0 -0.057183)
(-0.0339778 0 -0.056536)
(-0.0847923 0 -0.0710907)
(-0.0939731 0 -0.0696737)
(-0.102606 0 -0.0317132)
(-0.117445 0 -0.0116515)
(-0.067547 0 -0.00207752)
(-0.0177024 0 0.0206886)
(-0.00229919 0 0.0353107)
(0.0101441 0 0.0480844)
(0.0523824 0 -0.000772633)
(0.0522246 0 -0.0012235)
(0.0524502 0 0.000912518)
(0.0486003 0 0.00203197)
(0.0526113 0 -0.000420766)
(0.0534301 0 -0.00316589)
(0.0533789 0 -0.00684481)
(0.05295 0 -0.00790428)
(0.0522801 0 -0.00850548)
(0.0518088 0 -0.0139024)
(0.0507339 0 -0.020137)
(0.0483732 0 -0.0213882)
(0.0459809 0 -0.0212768)
(0.0360545 0 -0.0289634)
(0.0281731 0 -0.037278)
(-0.00159436 0 -0.0332059)
(-0.0293086 0 -0.0301522)
(-0.00979002 0 -0.034919)
(-0.01036 0 -0.0437826)
(0.00988103 0 -0.063676)
(0.0223724 0 -0.0724545)
(-0.0756862 0 -0.0949231)
(-0.124505 0 -0.0994595)
(-0.106391 0 -0.0510013)
(-0.11334 0 -0.0244502)
(-0.0666061 0 -0.0343665)
(-0.0159436 0 -0.0225292)
(0.000729034 0 -0.00319432)
(0.0158264 0 0.0125652)
(0.0542992 0 -0.000947403)
(0.0528336 0 0.00178021)
(0.053039 0 0.00205305)
(0.0489189 0 0.000616599)
(0.0449009 0 0.0018283)
(0.0436941 0 0.00230841)
(0.055385 0 -0.00430337)
(0.0553828 0 -0.00471473)
(0.0551789 0 -0.00481879)
(0.0559007 0 -0.0101031)
(0.055811 0 -0.0164721)
(0.053921 0 -0.0176855)
(0.0520146 0 -0.0177503)
(0.0407284 0 -0.0258047)
(0.0311517 0 -0.0344215)
(0.000864958 0 -0.0311054)
(-0.028682 0 -0.0296814)
(0.0101694 0 -0.0336485)
(0.0301247 0 -0.0416061)
(0.0514801 0 -0.063016)
(0.0724484 0 -0.0784715)
(-0.0623619 0 -0.0978142)
(-0.163126 0 -0.109738)
(-0.115505 0 -0.0690569)
(-0.0993847 0 -0.0364649)
(-0.0567538 0 -0.060184)
(-0.0109929 0 -0.0615686)
(0.00368339 0 -0.0375667)
(0.0208446 0 -0.0214619)
(0.0564064 0 -0.0013027)
(0.055837 0 -0.0016887)
(0.0545018 0 0.00317482)
(0.0495823 0 0.00580421)
(0.0452296 0 0.00399844)
(0.0430953 0 0.00160906)
(0.0432885 0 0.00221884)
(0.0381808 0 0.00114956)
(0.0565878 0 -0.000751795)
(0.0586738 0 -0.00580248)
(0.0596785 0 -0.0122536)
(0.0581611 0 -0.0130367)
(0.0567205 0 -0.0128686)
(0.0448532 0 -0.0211919)
(0.0340362 0 -0.0303749)
(0.00533292 0 -0.027916)
(-0.0245647 0 -0.0281948)
(0.0292045 0 -0.0340665)
(0.0683201 0 -0.041146)
(0.0755027 0 -0.0606314)
(0.0948331 0 -0.0764588)
(-0.0518668 0 -0.0785513)
(-0.191304 0 -0.0946359)
(-0.127072 0 -0.0786049)
(-0.084722 0 -0.0534217)
(-0.045393 0 -0.078878)
(-0.00381714 0 -0.0888858)
(0.00550871 0 -0.0649059)
(0.0193624 0 -0.048527)
(0.059992 0 -0.00153838)
(0.0568877 0 0.00358384)
(0.0563046 0 0.00483389)
(0.0510283 0 0.00341165)
(0.0459367 0 0.00635148)
(0.0432679 0 0.00786289)
(0.0425971 0 0.00511248)
(0.0359053 0 -0.000387955)
(0.0305138 0 -0.00110205)
(0.040716 0 -0.00185526)
(0.0623129 0 -0.00769403)
(0.0609439 0 -0.00783644)
(0.0597134 0 -0.00702489)
(0.047845 0 -0.0153069)
(0.0364531 0 -0.0250841)
(0.0114483 0 -0.0229929)
(-0.0166845 0 -0.0245512)
(0.0485278 0 -0.033684)
(0.102819 0 -0.0423117)
(0.0861318 0 -0.0588773)
(0.0912223 0 -0.071291)
(-0.0440177 0 -0.0580809)
(-0.195106 0 -0.0658813)
(-0.131255 0 -0.0759131)
(-0.0721159 0 -0.0683276)
(-0.0391028 0 -0.0872001)
(-0.00130783 0 -0.0987447)
(0.00391295 0 -0.0805593)
(0.0130889 0 -0.0677597)
(0.0622764 0 -0.001797)
(0.062642 0 -0.00276016)
(0.0592283 0 0.00632392)
(0.0525688 0 0.0117394)
(0.0470414 0 0.00949087)
(0.0426038 0 0.00642497)
(0.0415921 0 0.00832334)
(0.0352898 0 0.00490726)
(0.0284067 0 -0.000673125)
(0.0349186 0 -0.00620048)
(0.0459642 0 -0.00640974)
(0.0543687 0 -0.00856011)
(0.0610381 0 -0.000506459)
(0.0496548 0 -0.00885921)
(0.038002 0 -0.0188321)
(0.0178741 0 -0.0164817)
(-0.00652843 0 -0.018374)
(0.0693888 0 -0.0305605)
(0.135572 0 -0.0423052)
(0.0860455 0 -0.0576575)
(0.0676972 0 -0.0654976)
(-0.0418486 0 -0.0419594)
(-0.180167 0 -0.0379698)
(-0.122804 0 -0.0686358)
(-0.0601322 0 -0.0751258)
(-0.0360443 0 -0.0842312)
(-0.00407411 0 -0.0938124)
(0.000322898 0 -0.085315)
(0.00539257 0 -0.0783928)
(0.0499007 0 -0.00174349)
(0.06097 0 0.00668093)
(0.0605407 0 0.00874474)
(0.0556253 0 0.00717472)
(0.0486986 0 0.0131215)
(0.042826 0 0.0164085)
(0.0403463 0 0.0125652)
(0.0320638 0 0.00367872)
(0.0255221 0 0.000874043)
(0.0317308 0 -0.00337042)
(0.0393312 0 -0.00909559)
(0.0406396 0 -0.0211558)
(0.049641 0 -0.0221597)
(0.0980688 0 -0.0115553)
(0.038353 0 -0.0114845)
(0.0238375 0 -0.00913021)
(0.00380041 0 -0.0101877)
(0.0867604 0 -0.0243164)
(0.16347 0 -0.0389123)
(0.0806527 0 -0.0513483)
(0.0306036 0 -0.0569997)
(-0.0486909 0 -0.0305071)
(-0.160352 0 -0.0167135)
(-0.109795 0 -0.0562099)
(-0.0531878 0 -0.075391)
(-0.0333286 0 -0.0735425)
(-0.00844588 0 -0.0817904)
(-0.00375533 0 -0.0811979)
(0.000627318 0 -0.0807453)
(0.0265066 0 -0.000738595)
(0.0370745 0 -0.00345311)
(0.0469139 0 0.011438)
(0.0531638 0 0.02078)
(0.0479625 0 0.0177221)
(0.0432796 0 0.0135606)
(0.0396651 0 0.0175289)
(0.0304924 0 0.0146166)
(0.0217861 0 0.00539728)
(0.0216586 0 -0.00511507)
(0.0291917 0 -0.0084363)
(0.0303265 0 -0.0264718)
(0.0317723 0 -0.0379702)
(0.0718188 0 -0.0430627)
(0.119276 0 -0.0321103)
(0.156696 0 -0.025031)
(0.0119088 0 -0.000331764)
(0.100125 0 -0.0153903)
(0.180647 0 -0.0314528)
(0.0744876 0 -0.0373453)
(-0.00873796 0 -0.0409202)
(-0.0618641 0 -0.0220339)
(-0.142319 0 -0.00437847)
(-0.0956672 0 -0.0437065)
(-0.0450876 0 -0.0708588)
(-0.0302839 0 -0.0620355)
(-0.0102149 0 -0.0666928)
(-0.00583907 0 -0.0722932)
(-0.00126911 0 -0.0756879)
(0.104883 0 -0.00609333)
(0.0187216 0 0.00978873)
(0.0310218 0 0.0147303)
(0.0275318 0 0.0120084)
(0.033529 0 0.0231917)
(0.0384861 0 0.0292301)