/*--------------------------------*- C++ -*----------------------------------*\
| =========                 |                                                 |
| \\      /  F ield         | OpenFOAM: The Open Source CFD Toolbox           |
|  \\    /   O peration     | Version:  5.x                                   |
|   \\  /    A nd           | Web:      www.OpenFOAM.org                      |
|    \\/     M anipulation  |                                                 |
\*---------------------------------------------------------------------------*/
FoamFile
{
    version     2.0;
    format      ascii;
    class       volScalarField;
    location    "1.7";
    object      alpha.water;
}
// * * * * * * * * * * * * * * * * * * * * * * * * * * * * * * * * * * * * * //

dimensions      [0 0 0 0 0 0 0];

internalField   nonuniform List<scalar> 
12160
(
1
1
1
1
1
1
1
1
1
1
1
1
1
0.999999
1
1
1
1
1
1
1
1
1
1
1
1
1
1
1
0.999999
1
1
1
1
0.999999
1
1
1
1
1
1
1
1
0.996755
0.583135
1
1
1
1
1
1
1
0.996727
0.618223
0.0237169
1
1
1
1
1
1
0.999999
0.996643
0.616318
0.0227568
0.000997905
1
0.999999
0.999999
1
1
1
0.999996
0.994816
0.627361
0.025046
9.04544e-05
1.13347e-05
1
1
1
1
1
0.999999
0.99999
0.992339
0.641763
0.0294675
4.69766e-05
1.13133e-06
1.13144e-08
1
1
1
1
1
1
0.999982
0.989871
0.654799
0.0396965
5.76253e-05
8.70364e-08
1.07975e-12
1.87777e-12
1
1
1
1
1
1
0.999976
0.987626
0.65639
0.0525494
0.000130767
3.85316e-08
1.42382e-11
1.43206e-13
1.95947e-17
1
1
1
1
1
1
0.999975
0.985583
0.647873
0.0664626
0.000235679
1.17095e-07
4.20729e-12
4.41308e-16
1.84569e-22
1
1
1
1
1
1
0.999978
0.984418
0.632671
0.0716288
0.000439969
2.63348e-07
2.41439e-11
1.58236e-16
6.89581e-21
1
1
1
1
1
1
0.999987
0.984924
0.620912
0.0692442
0.000742748
6.12013e-07
6.41479e-11
9.46152e-16
2.47923e-21
1
1
1
1
1
1
0.999996
0.987641
0.621351
0.0646429
0.000915017
1.14291e-06
1.91506e-10
2.28502e-15
1.98504e-20
1
1
1
1
1
1
1
0.992042
0.638645
0.0640095
0.000972841
1.89675e-06
4.10063e-10
7.1076e-15
5.39184e-20
1
1
1
1
1
1
1
0.996707
0.672657
0.0707519
0.00109608
2.85523e-06
7.99067e-10
1.52029e-14
1.98653e-19
1
1
1
1
1
1
1
0.999702
0.716047
0.0878798
0.00142744
4.24838e-06
1.38073e-09
3.13736e-14
4.48127e-19
1
1
1
1
1
1
1
0.999999
0.762562
0.116586
0.00213256
6.74349e-06
2.32872e-09
5.66078e-14
1.00478e-18
1
1
1
1
1
1
1
1
0.808606
0.156835
0.00354596
1.17833e-05
4.12883e-09
1.00192e-13
1.91081e-18
0.999999
0.999999
1
1
1
1
1
1
0.845411
0.19988
0.00626975
2.28185e-05
8.10625e-09
1.8581e-13
3.56659e-18
1
1
0.999999
1
1
1
1
1
0.871025
0.240334
0.0108093
4.85908e-05
1.8283e-08
3.91742e-13
6.86525e-18
1
1
1
1
1
1
1
1
0.888256
0.276301
0.0162766
0.000109849
4.81444e-08
1.00071e-12
1.46329e-17
1
1
1
1
1
1
1
1
0.899395
0.306098
0.0215994
0.000229761
1.46141e-07
3.3222e-12
3.68921e-17
1
1
1
1
1
1
1
1
0.906426
0.328446
0.0263576
0.000379845
4.64603e-07
1.5006e-11
1.21383e-16
0.999999
0.999999
0.999999
1
1
1
1
1
0.910954
0.34408
0.0302295
0.000534251
1.0628e-06
8.39096e-11
5.73569e-16
0.999999
0.999999
0.999999
0.999999
1
1
1
1
0.91395
0.355147
0.0331131
0.000674057
1.86581e-06
3.03743e-10
3.44517e-15
1
0.999999
0.999999
0.999999
0.999999
1
1
1
0.916025
0.363552
0.0352881
0.000787124
2.73686e-06
7.36664e-10
1.35276e-14
1
1
1
0.999999
0.999999
0.999999
1
1
0.91784
0.369812
0.0371406
0.000878479
3.54682e-06
1.35362e-09
3.55312e-14
1
1
1
1
0.999999
0.999999
1
1
0.918959
0.374306
0.0385921
0.000963008
4.26522e-06
2.05672e-09
6.95637e-14
1
1
1
1
1
1
1
1
0.918899
0.376614
0.0394171
0.00102752
4.94367e-06
2.76519e-09
1.14514e-13
1
1
1
1
1
1
1
1
0.917239
0.376267
0.0396963
0.00106148
5.39808e-06
3.44911e-09
1.6873e-13
1
1
1
1
1
1
1
1
0.913247
0.371992
0.03956
0.00106621
5.71086e-06
3.86326e-09
2.25016e-13
1
1
1
1
1
1
1
1
0.906008
0.362016
0.0386825
0.00105458
5.75365e-06
4.23514e-09
2.58401e-13
1
1
1
1
1
1
1
1
0.894514
0.345026
0.0367143
0.0010141
5.58544e-06
4.29702e-09
2.93604e-13
1
1
1
1
1
1
1
0.999984
0.877318
0.320785
0.0335389
0.000931044
5.19207e-06
4.04238e-09
2.99839e-13
1
1
1
1
1
1
0.999999
0.999256
0.852532
0.289761
0.0292949
0.000806215
4.49706e-06
3.53615e-09
2.71934e-13
1
1
1
1
1
1
0.999995
0.997022
0.820107
0.25268
0.0241462
0.00064952
3.55215e-06
2.76801e-09
2.21885e-13
1
1
1
1
1
1
0.999976
0.993048
0.781429
0.208689
0.0182222
0.00047186
2.48179e-06
1.87091e-09
1.56616e-13
1
1
1
1
1
1
0.999927
0.987258
0.735811
0.16137
0.0121444
0.00029201
1.45173e-06
1.0356e-09
9.4378e-14
1
1
1
1
1
1
0.999828
0.9795
0.684783
0.119995
0.00739091
0.000157488
6.78331e-07
4.2787e-10
4.80759e-14
0.999657
0.999999
1
1
1
1
1
0.969419
0.629772
0.0879939
0.00443481
8.03903e-05
2.96862e-07
1.32806e-10
1.80003e-14
0.956784
0.999093
0.999997
1
1
1
1
1
0.570629
0.0639647
0.002762
4.22694e-05
1.29463e-07
4.26273e-11
5.02834e-15
0.508969
0.931276
0.997802
0.999992
1
1
1
1
1
0.0456016
0.00178845
2.40305e-05
5.95303e-08
1.4873e-11
1.4544e-15
0.0320643
0.415404
0.89341
0.996253
0.999982
1
1
1
0.999999
1
0.00116647
1.44964e-05
2.9873e-08
5.82742e-12
4.68252e-16
0.000741833
0.0183211
0.316687
0.861748
0.994575
0.999967
1
1
0.999999
0.999999
1
8.85154e-06
1.60347e-08
2.59118e-12
1.74967e-16
5.27247e-06
0.000321911
0.0100146
0.255418
0.837954
0.99306
0.999911
0.999999
0.999999
0.999998
0.999999
0.999994
8.76729e-09
1.24476e-12
7.56198e-17
4.56211e-09
1.87529e-06
0.000141444
0.00685807
0.220482
0.824612
0.989988
0.999842
0.999998
0.999999
0.999999
0.999994
0.999999
0.999998
6.25082e-13
3.61183e-17
3.09952e-13
1.28254e-09
7.0285e-07
8.84183e-05
0.00553265
0.207639
0.809182
0.988001
0.999786
0.999998
0.999998
0.999998
0.999994
1
1
1
1.83172e-17
9.61597e-18
6.50322e-14
4.81862e-10
3.56137e-07
6.91638e-05
0.00518701
0.203201
0.803932
0.986784
0.999969
0.999998
0.999999
0.999996
0.999999
1
1
1
1
2.00914e-18
2.31481e-14
2.10914e-10
2.22354e-07
6.31976e-05
0.00529977
0.210568
0.794556
0.995083
0.999999
0.999999
0.999998
0.999996
1
1
1
1
1
1
7.46235e-19
9.3427e-15
1.04124e-10
1.55912e-07
5.94653e-05
0.00570452
0.206954
0.839546
0.999952
0.999999
0.999999
0.999994
0.999998
1
1
1
1
1
1
1
2.75056e-19
4.27888e-15
5.44949e-11
1.10472e-07
4.56535e-05
0.00631378
0.193959
0.940321
0.999999
0.999999
0.999995
0.999994
1
1
0.999987
1
1
1
1
1
1
1.13167e-19
2.05614e-15
2.78296e-11
6.60783e-08
2.95357e-05
0.00542699
0.211701
0.995709
0.999999
0.999999
0.999994
0.999996
1
0.999993
0.999932
0.999994
0.999938
0.999941
0.99994
1
1
1
1
1
1
4.75866e-20
9.894e-16
1.31191e-11
3.33387e-08
1.14766e-05
0.00283236
0.327493
0.99149
0.999999
0.999998
0.999994
0.999999
0.999998
0.999901
0.999954
0.999675
0.999985
0.999948
0.999965
0.999959
0.999697
0.99967
0.999728
0.999988
1
1
1
1
1
2.06547e-20
5.23496e-16
6.01197e-12
1.09987e-08
3.9159e-06
0.00108145
0.406976
0.990765
0.999998
0.999998
0.999998
0.999999
0.999967
0.99963
0.999591
0.999698
0.999687
0.999697
0.999999
0.999709
0.999693
0.999708
0.999746
0.999755
0.999999
0.999999
0.999999
0.999902
0.999998
1
1
1
1
1.29902e-20
3.22873e-16
2.28702e-12
3.32558e-09
1.18275e-06
0.000807929
0.442192
0.993954
0.999997
0.999998
1
0.999996
0.999994
0.999953
1
1
1
0.999998
0.999958
0.999527
0.999999
0.999842
0.998395
0.999834
0.998436
0.998551
0.998
0.998484
0.99843
0.999001
0.998947
0.999999
0.999999
0.999999
0.999825
0.998254
0.99982
0.99829
0.999955
0.997646
0.999999
0.998094
0.999971
0.996576
0.999999
0.996924
0.999781
0.999997
1
1
1
1
1.19935e-20
2.01989e-16
7.99379e-13
8.63611e-10
3.70096e-07
0.00170123
0.460395
0.991615
0.999994
0.999998
1
1
1
1
1
0.999732
0.999632
0.999895
0.999941
0.997187
0.995768
1
0.999143
1
0.999995
0.995689
0.997586
1
0.998316
1
0.999999
0.998782
1
0.998249
1
0.998836
1
0.997726
1
0.999824
0.998445
0.999826
0.997833
0.9996
0.997374
0.999558
0.997772
0.997486
0.995446
0.995834
0.99583
0.996646
0.996679
0.995144
0.995156
0.996668
0.996613
0.999811
0.998233
0.999812
0.997844
0.999854
0.997391
0.99999
0.997467
0.999841
0.99721
0.999986
0.997355
0.999564
0.99692
0.999497
0.997016
0.999884
0.996578
0.999921
0.995806
0.999836
1
1
1
1
1
1.23615e-20
1.16055e-16
3.16688e-13
1.58425e-10
3.96179e-07
0.000534543
0.372261
0.985319
0.999963
1
1
1
1
1
0.999992
0.999999
0.999996
0.999999
0.99972
1
0.999736
1
0.99964
1
0.999652
1
0.999912
1
0.999908
1
0.999956
1
0.999952
1
0.995687
0.99742
1
0.999998
0.999022
1
0.995688
0.997406
1
1
0.997272
1
0.999005
1
0.99825
1
0.998998
1
0.997729
1
0.999579
0.997177
0.999551
0.996749
0.999277
0.996505
0.999264
0.99714
0.998483
0.995452
0.99685
0.996677
0.995631
0.995585
0.996575
0.996558
0.995111
0.995111
0.995301
0.998078
0.995316
0.998931
0.995287
0.998102
0.995298
0.998935
0.994838
0.996641
0.994843
0.994843
0.996163
0.999971
0.994843
0.996583
0.994838
0.994838
0.996205
0.999964
0.999568
0.996869
0.999502
0.996579
0.999737
0.996425
0.999727
0.996312
0.99931
0.995902
0.999033
0.995995
0.999791
0.995916
0.999911
0.995768
0.999984
1
1
1
1
1
1.12565e-20
8.0279e-17
4.32576e-12
2.54087e-08
2.9265e-06
0.000172635
0.254752
0.949527
0.998747
1
1
0.999995
0.999992
0.999998
1
1
1
0.999998
1
0.999991
0.999998
0.999999
0.999999
0.999995
0.999999
0.999997
1
0.999997
0.999996
0.999999
1
0.999999
0.999999
0.99974
1
0.999741
1
0.999641
1
0.999652
1
0.999912
1
0.999933
1
0.999967
1
0.999962
1
0.999344
0.996124
0.999203
0.995961
0.999714
0.995569
0.997495
0.9975
0.997433
0.997433
0.99956
0.999596
0.998681
0.998705
0.998623
1
0.99787
1
0.998507
1
0.997721
1
0.995421
0.997188
0.996481
0.99935
0.995378
0.997246
0.996286
0.9994
0.99548
0.998739
0.995354
0.998935
0.995372
0.998701
0.995336
0.998931
0.995901
0.994842
0.994838
0.998935
0.994882
0.996286
0.995847
0.994838
0.994843
0.998961
0.994891
0.996388
0.999334
0.995838
0.999027
0.995789
0.999588
0.995834
0.999588
0.995737
0.999999
1
1
1
1
1
1.86916e-20
3.45946e-13
5.43427e-08
1.50713e-05
0.000192004
0.000766964
0.142926
0.833117
0.999134
1
1
1
0.999995
1
1
1
1
0.999993
1
0.999991
0.999994
0.999999
0.999996
0.999995
0.999996
0.999997
1
0.999996
0.999996
0.999999
1
0.999998
0.999999
0.999941
1
0.99997
0.999999
0.999947
0.998429
0.996592
0.996574
0.996845
0.996856
0.999738
0.999771
0.999728
0.999773
1
1
0.999958
1
0.999991
1
0.99994
1
0.999636
1
0.999868
1
0.999599
1
0.999783
1
0.999484
1
0.99879
1
0.999463
0.999999
0.998752
1
0.995924
0.998431
0.997435
0.999961
0.995792
0.998436
0.997332
0.999971
1
1
1
1
1
1
2.20523e-15
1.1162e-08
2.86004e-05
0.000995887
0.00367871
0.00655083
0.0567594
0.613284
0.992222
0.992214
0.915228
0.915161
1
1
0.999737
0.999724
1
1
1
1
1
1
1
1
1
1
1
0.999998
1
1
1
1
1
0.999998
1
0.999996
0.999999
0.999996
0.999995
0.999997
0.999998
1
1
0.999997
1
0.999999
0.999997
0.999999
0.999996
0.999355
0.996904
0.998388
0.998418
0.999268
0.999309
1
1
1
1
1
0.999999
0.999974
1
0.999989
0.999998
0.99996
0.999997
0.999865
1
0.999935
1
0.999865
0.999998
0.999914
0.999997
0.999961
1
0.999889
0.999998
1
1
1
1
1
1
2.08541e-10
8.83951e-06
0.00110672
0.0106521
0.024443
0.0348273
0.0555147
0.396377
1
1
0.837858
0.838026
0.999996
1
1
0.999958
1
1
0.999999
0.999978
1
1
1
1
1
1
0.999999
1
1
1
1
1
0.999998
0.999996
0.999996
1
1
1
1
1
1
0.999999
1
0.999759
0.99773
0.999161
0.999136
0.999619
0.999629
0.999941
0.999941
0.999908
0.999942
0.999997
1
1
0.999996
0.999996
1
1
0.999992
0.999997
0.999998
0.999998
1
0.999997
0.999998
0.999993
0.999996
1
0.999997
0.999996
0.999999
0.999989
0.999995
0.999995
0.999995
0.999923
1
0.999977
1
0.999968
0.999995
0.999957
0.999997
1
1
1
1
1
3.77577e-07
0.000396065
0.00548274
0.0246068
0.0589888
0.128311
0.130806
0.284184
0.284143
0.119
0.119226
0.973185
0.999991
0.923681
0.998004
0.973153
0.999992
0.923563
0.998002
0.731257
0.731349
0.999997
1
1
0.999952
0.999989
0.999998
0.999996
0.999978
0.995445
0.999999
1
1
0.9954
0.999998
0.99999
0.999999
0.999999
1
0.999997
0.999998
0.999997
0.999998
0.999999
0.999999
1
0.999991
0.997815
0.997364
0.999862
0.999879
0.99997
0.999978
0.99994
0.999941
0.999999
0.999999
0.999998
0.999981
0.999997
0.999999
0.999998
0.999979
0.999993
1
0.999997
0.999998
0.999985
0.999995
0.999996
0.999982
0.999997
0.999999
1
1
0.999997
0.999991
0.999993
0.999992
1
1.00002
1.00001
0.999999
1
1
1
1
2.94771e-05
0.00151695
0.00673637
0.0232701
0.0579701
0.148822
0.133704
0.129233
0.292045
0.288363
0.17291
0.175241
0.0752929
0.0752938
0.956734
0.999994
0.857882
0.989772
0.956736
0.999993
0.857901
0.98981
0.793489
0.458872
0.670892
0.629981
0.794573
0.45634
0.671197
0.629179
0.999985
0.999999
0.999999
0.99996
0.999998
0.999994
0.999991
0.999997
0.999066
0.999994
0.999793
0.999997
0.999106
0.999993
0.999797
0.999998
1
0.999999
0.999759
0.995609
0.99898
0.999003
0.999872
0.99987
1
1
0.999994
0.999994
0.999993
0.999997
0.999991
1
0.999991
0.999992
0.999994
0.999993
0.999992
0.999998
0.999989
0.999999
0.999984
1
0.999993
1
0.999995
1
0.99999
0.999998
0.999994
0.999999
1
0.999998
0.999994
0.999999
0.999985
0.999984
0.999986
0.999985
1
1
1
0.000132712
0.00128422
0.00215957
0.00408511
0.0136326
0.148229
0.198026
0.205666
0.359062
0.358719
0.0931649
0.434099
0.0842372
0.0752945
0.0752945
0.668299
0.43283
0.097554
0.670182
0.0869483
0.0752958
0.0752938
0.0752929
0.0752937
0.0752946
0.0752929
0.0752938
0.0752924
0.0752938
0.0752938
0.926955
0.999862
0.870743
0.994917
0.927087
0.999852
0.870877
0.99498
0.718797
0.534876
0.720118
0.533742
0.999999
0.999975
0.999989
0.999985
0.983002
0.999994
0.982988
0.999993
1
1
0.999991
0.998469
0.995671
0.995625
0.997302
0.997392
0.999744
0.999805
1
1
0.999992
0.999998
0.999996
0.999995
0.999994
0.999992
0.999998
0.999995
0.999995
0.999996
0.999995
0.999992
0.999996
0.999994
0.999993
1
0.999993
0.999996
0.999984
0.99998
0.999995
0.999997
0.999983
1
0.999995
0.999985
1
1
0.999987
0.99999
0.999987
0.999992
1
1
0.000145602
0.000244032
0.000278195
0.000381398
0.00222207
0.208484
0.20782
0.0203623
0.0203944
0.34697
0.36901
0.372317
0.373614
0.293005
0.0786579
0.0782125
0.219447
0.0781767
0.113543
0.295363
0.0771168
0.221828
0.0776379
0.0766189
0.0836273
0.116203
0.236112
0.0929091
0.123958
0.105472
0.208578
0.0894353
0.112831
0.75541
0.886832
0.755193
0.887459
1
1
0.999999
0.999941
0.996718
0.99682
0.996722
0.99876
0.99893
0.999742
1
0.999933
1
0.999729
1
0.999946
1
0.999997
1
0.999999
1
0.999999
0.999996
0.999997
1
1
0.999987
0.999996
1
0.999993
0.99999
0.999998
0.999995
1
1
1
0.999999
0.999996
0.999994
0.999996
1
0.999994
0.999996
0.999984
0.999993
0.999983
1
0.999993
1
1
1.76632e-05
2.64269e-05
3.03549e-05
0.000176603
0.00200613
0.0957877
0.0949636
0.00538616
0.00531408
0.594982
0.41778
0.594989
0.44447
0.594971
0.400341
0.594987
0.440914
0.364867
0.386768
0.272975
0.594982
0.170381
0.480821
0.258751
0.514488
0.165433
0.22709
1
0.999999
1
0.999999
0.999798
0.997236
0.996958
0.995674
0.995674
0.998015
0.997972
0.999397
0.99945
0.9999
1
0.999975
0.999999
0.999914
1
0.999983
0.999998
1
1
0.999998
1
0.999993
1
1
1
1
1
0.999996
0.999999
0.999995
0.999998
1
1
7.26492e-07
4.39348e-06
7.72504e-06
0.000623077
0.000877031
0.00088833
0.000847278
0.000928427
0.0348405
0.0344987
0.00320033
0.00312985
0.594989
0.478971
0.595007
0.463937
0.594987
0.468816
0.594999
0.454382
0.170848
0.181957
0.384974
0.545596
0.171241
0.184346
0.381336
0.543177
0.395548
0.594989
0.385842
0.589755
0.999997
0.999999
0.999999
0.999999
0.999619
0.996903
0.996632
0.996166
0.996172
0.998334
0.998343
1
0.999558
1
0.99872
1
0.999648
1
0.998741
0.999999
0.999997
0.999996
1
0.99998
0.999996
0.999995
0.999999
6.79834e-08
9.00764e-07
2.27866e-05
0.000677335
0.000859135
0.000942291
0.00098672
0.00106981
0.104561
0.123827
0.00822484
0.0134389
0.0188342
0.00216526
0.103396
0.124429
0.0084202
0.0137653
0.0189198
0.00216071
0.00159472
0.00150116
0.595007
0.541253
0.595012
0.491838
0.594999
0.53419
0.595013
0.486692
0.170637
0.31138
0.168991
0.31029
0.999989
0.999998
0.999999
0.999996
0.999754
0.999676
0.997952
0.997591
0.996975
0.996677
0.99661
0.996607
0.996155
1
0.998199
1
0.999015
1
0.996115
1
0.998256
1
0.99902
1
0.99952
0.999999
0.999487
0.999999
0.999999
0.999999
0.999999
0.999999
1.34018e-08
1.95451e-07
6.30334e-05
0.000565789
0.000473348
3.74632e-05
2.72798e-05
0.000701944
0.000891388
0.0010297
0.00104522
0.0324795
0.0288662
0.00153125
0.00199455
0.00326546
0.000554339
0.032212
0.0284503
0.00168241
0.00217934
0.00338004
0.000564102
0.000169068
0.000654052
0.000335339
0.000816458
0.000208713
0.000637005
0.000264148
0.000751745
0.999986
0.999998
0.999999
0.99999
0.99966
0.999622
0.997653
0.997552
0.995671
0.995594
0.996204
1
0.999285
0.994777
1
0.993963
0.999287
0.994764
1
0.993945
0.996165
1
0.99854
0.999046
1
1
0.99858
0.999016
1
1
0.999403
1
0.999362
1
7.17072e-10
3.32142e-07
2.35043e-05
0.000187883
0.000146805
4.4412e-05
4.35396e-05
0.000168458
0.000556288
0.00142381
0.000214539
0.000851779
0.000373157
0.000208429
0.000538384
0.00144794
0.000464921
0.0014306
0.000848995
0.000938399
0.000798231
0.000461715
0.000367392
0.000396706
0.000342687
0.000318281
0.000875037
0.000247761
0.000762313
0.999997
0.999998
0.999999
0.999999
1
0.999996
0.999993
0.999808
0.999729
0.997824
0.997683
0.993745
0.998851
0.993738
0.996843
0.993996
0.998113
0.993644
0.993981
0.998115
0.998835
0.993645
0.996819
0.994762
1
0.995031
1
0.995034
0.994748
1
1
3.28536e-10
1.32316e-06
8.01371e-06
0.000158273
0.000135564
6.83391e-05
6.62828e-05
0.000174221
0.00055927
0.00144617
0.000157596
0.00114484
0.00042886
0.000208713
0.000916622
0.00144622
0.000440981
0.00144665
0.000575691
0.000189557
0.000432618
0.000330545
0.000767532
9.93047e-05
0.000326896
0.000219184
0.000593975
0.000398294
0.00116841
0.000309358
0.00126625
0.999999
0.999997
0.999999
0.999998
1
0.999959
0.999969
0.999635
0.9996
0.993738
0.997762
0.999911
0.994831
0.998678
0.996953
0.993645
0.997793
0.999907
0.994534
0.998684
0.996649
0.993738
0.994391
0.996267
0.997495
0.994351
0.997487
0.993644
0.996299
2.0297e-09
3.32208e-07
1.02522e-06
3.72539e-05
4.05224e-05
9.60958e-07
1.38658e-08
1.3872e-08
0.000115763
3.50695e-05
0.000161752
0.000115441
1.9537e-05
0.00016392
0.000157735
0.000833913
0.00118223
0.000160243
0.00131142
0.000274031
0.000208429
0.0013508
0.00103536
0.000308303
0.00144598
0.000236296
5.78047e-05
0.00027252
2.47136e-05
0.000274015
1
0.999997
1
1
1
0.999996
0.999989
0.999833
1
0.998666
0.999872
0.997083
0.99949
0.999774
0.996596
0.999269
1
0.998349
0.999753
0.994422
0.997245
0.995461
0.998005
0.994206
0.997247
0.994981
0.997611
0.993731
0.995336
0.993645
0.995303
1.31351e-09
1.77817e-08
4.33874e-06
2.26401e-08
4.84738e-06
2.30654e-08
1.3872e-08
1.38658e-08
1.48449e-05
3.29459e-05
0.000114906
3.2248e-05
0.000129135
6.04681e-05
1.36775e-05
2.43294e-05
1.5167e-05
1.41738e-05
8.54724e-05
1.81554e-05
0.000118652
5.82633e-05
1.74798e-05
2.8703e-05
0.000447816
0.00013086
0.000403359
5.55175e-05
2.95678e-05
7.70807e-05
1.57145e-05
8.12052e-05
0.999998
0.999997
0.999998
0.999995
0.999995
0.999999
1
1
0.999978
0.99974
0.999986
0.999973
0.999657
0.999971
0.996781
0.998696
0.999004
0.999704
0.996238
0.99838
0.99841
0.999454
0.994381
0.995684
0.994637
0.996907
0.994129
0.995648
0.994236
0.99621
4.14798e-11
7.37389e-09
1.03294e-07
2.48669e-06
1.12497e-06
8.46796e-08
1.53768e-07
2.58876e-06
1.17775e-06
8.26169e-08
3.62702e-08
3.8565e-08
1.01575e-05
1.49047e-06
2.98316e-05
4.37283e-05
7.51479e-05
9.3278e-06
7.81976e-06
1.56681e-05
1.40736e-06
4.68905e-05
6.63085e-05
9.89016e-06
6.1491e-05
3.81828e-05
7.79551e-05
1.57147e-05
0.999995
0.999995
0.999995
1
1
0.999998
0.999995
0.999997
0.999952
0.999603
0.99998
0.999633
0.99998
1
1
1
0.999969
0.999526
0.999965
0.999537
0.999964
1
1
1.00001
0.996546
0.9986
0.99848
0.999641
0.996165
0.997723
0.99836
0.999442
1.817e-12
2.08065e-09
2.24631e-08
2.30462e-08
2.04625e-09
6.91156e-11
8.26129e-11
5.52522e-08
5.25365e-07
5.52532e-08
6.84825e-08
6.24509e-08
5.52522e-08
5.52529e-08
5.52522e-08
2.17857e-07
5.52529e-08
2.37349e-07
5.51405e-08
6.98984e-07
5.52527e-08
1.17271e-07
6.71455e-08
5.52517e-08
5.51405e-08
5.51405e-08
2.07727e-07
5.51405e-08
1.96338e-07
8.90507e-06
9.5539e-07
2.64461e-05
7.5348e-07
7.22041e-06
6.05653e-07
2.59315e-05
8.1123e-07
0.999992
0.999994
0.999996
0.999981
1.00001
0.999988
0.999989
1.00001
0.999997
0.999995
0.999998
1
0.999729
0.999972
0.99896
0.999999
0.999891
1
0.99969
0.999975
0.998776
0.999827
1
1
0.997359
0.99798
0.997069
0.997394
-4.29608e-31
7.16601e-08
4.07453e-10
6.21656e-08
3.52082e-10
4.06559e-12
3.31761e-12
2.75769e-07
5.52525e-08
5.52526e-08
5.52553e-08
5.52528e-08
1.36929e-07
7.55567e-08
1.21224e-07
5.74046e-07
1.09615e-07
4.72702e-07
5.6632e-07
6.92466e-08
2.56281e-07
1.34989e-07
5.51405e-08
5.52553e-08
5.52521e-08
5.51405e-08
9.93975e-08
1.14626e-07
7.03577e-08
5.5641e-07
1.0414e-07
4.2768e-07
4.45307e-07
5.96158e-08
2.40582e-07
0.999994
0.999996
0.99999
0.99999
0.999994
0.999994
0.999993
0.999969
1.00001
0.999893
1
0.999948
1
0.999842
1
0.999991
1.00001
0.99991
1
0.999967
1
0.999879
1.00001
0.999996
0.999956
1
0.999998
0.999978
1
0.999943
0.999921
1
1
0.999935
0.999957
1
1
-2.67076e-34
2.19713e-07
4.15398e-07
6.57132e-08
8.92341e-11
1.67558e-07
3.26775e-07
5.51405e-08
5.9491e-11
8.55395e-13
6.93232e-13
5.52532e-08
7.88386e-08
5.52534e-08
3.47265e-07
6.41106e-08
6.51587e-08
5.52534e-08
4.033e-07
9.52557e-07
7.16134e-07
5.51405e-08
5.81481e-08
5.51405e-08
3.0432e-07
5.51405e-08
5.51405e-08
5.50235e-08
3.62305e-07
9.48601e-07
5.53337e-07
0.999994
0.999995
0.999996
0.999999
0.999994
0.999994
0.999995
0.999876
0.99984
1
1
0.999837
1
0.999885
0.999861
1
1
0.999874
1.00001
0.999925
0.999869
1
0.999974
1
1
1
1
0.99996
0.999928
1
0.999965
1
1
1
1.00001
2.52876e-05
3.53731e-13
4.22577e-13
3.77211e-08
1.14683e-06
1.32133e-07
9.85551e-07
1.05888e-07
2.08569e-29
3.45965e-08
8.41522e-07
1.03532e-07
8.11304e-07
8.88746e-08
2.21629e-28
5.52539e-08
6.45968e-08
1.50994e-07
8.7877e-07
5.32845e-07
1.34771e-06
5.51405e-08
5.51405e-08
5.42205e-08
7.82356e-07
4.66145e-07
1.21733e-06
0.999995
0.999996
0.999998
1
0.999993
0.999999
1.00001
1
0.999995
0.999996
0.999998
0.999714
1
0.999784
1
0.999724
1
0.999837
1
0.999844
0.999876
0.999865
1
1
1
0.999888
0.999948
0.999889
1
0.999999
0.999999
-6.69288e-31
6.39795e-16
2.33589e-05
9.15424e-25
2.19669e-05
2.66077e-09
1.76607e-07
4.10822e-08
3.9829e-07
2.45301e-08
8.3605e-08
1.34139e-06
9.39594e-07
2.16272e-09
1.6241e-07
3.3973e-08
3.73167e-07
2.26221e-08
5.34384e-08
1.36153e-06
6.26961e-07
9.54893e-08
1.27533e-06
5.50235e-08
1.46665e-06
0.999996
0.999996
0.999996
1
1
1
1
0.999997
1
1
1
1
1
0.999995
0.999995
0.999703
0.999818
0.999888
1
1
1
0.999749
0.999855
0.99995
1
0.999998
0.999997
-7.16614e-35
1.58346e-08
6.54201e-10
1.55582e-08
6.07849e-10
3.28556e-05
2.9704e-05
1.4621e-05
6.37654e-08
1.57781e-08
1.14784e-07
2.13487e-09
3.08283e-07
3.61576e-08
5.87976e-07
1.56204e-08
7.60781e-08
1.73491e-06
1.14743e-05
5.65903e-08
1.64438e-08
1.02096e-07
1.96456e-09
2.75882e-07
3.09722e-08
5.99957e-07
1.46603e-08
7.57986e-08
1.74432e-06
0.999997
0.999998
0.999998
0.999998
0.999997
1
1
1.00001
1.00001
1.00001
0.999986
1
1
1.00001
1
1.00001
1.00001
0.999991
0.999998
0.999999
1
0.999587
1
0.999707
0.999998
1.47308e-15
-1.59034e-36
1.25899e-16
-1.17947e-36
1.22054e-16
3.26712e-07
1.99739e-08
2.96138e-07
1.75127e-08
8.73918e-05
7.24788e-05
4.27128e-05
9.24845e-06
5.36029e-06
1.04958e-05
1.29485e-07
1.97417e-09
1.95502e-09
2.03803e-09
5.64306e-07
4.20602e-08
1.00112e-06
1.81644e-08
3.5648e-05
6.54911e-06
4.53736e-06
8.19522e-06
1.09949e-07
1.91716e-09
1.93596e-09
1.93596e-09
5.78163e-07
3.97406e-08
1.09878e-06
1.61869e-08
0.999997
0.999999
1
0.999996
0.999998
0.999999
1
1
1.00001
1
1
1.00001
1
1
1.00001
1.00001
0.999695
1
1
1.00001
1
1
1.00001
1
1
1
1.00001
0.99983
0.999999
6.79004e-15
1.07092e-15
1.61935e-16
1.06722e-15
1.26039e-16
1.61083e-34
2.20113e-14
5.10294e-34
1.633e-14
6.41373e-06
3.74582e-07
5.74524e-06
3.60281e-07
0.000191368
6.07003e-05
0.000220523
5.18974e-05
0.000159146
5.20987e-05
0.000174063
4.4401e-05
3.69855e-05
6.77913e-06
5.90639e-06
7.13164e-06
2.81923e-05
4.21236e-06
4.76512e-06
5.4772e-06
0.999996
1
0.999998
0.999998
0.999997
0.999999
0.999997
0.999997
0.999996
1
1
1
0.999998
1
1
1
1
1
1.00001
1
1
1
1.00001
1
0.999998
1
0.999999
1
0.999994
1
1
1
1
1
1.00001
1.12038e-10
7.383e-32
1.44002e-13
8.307e-29
1.13403e-13
5.29111e-29
1.35139e-10
1.05059e-11
9.30003e-11
1.37874e-11
5.97806e-06
5.85627e-06
1.5048e-05
1.61113e-06
5.89086e-07
-4.0122e-25
9.41895e-09
3.51755e-07
6.28885e-06
5.22971e-06
1.40315e-05
1.73425e-06
5.89139e-07
-1.31769e-24
1.88451e-08
3.44633e-07
0.000222185
4.02332e-05
0.000222933
3.05176e-05
0.000183978
3.35296e-05
0.000203929
2.74347e-05
0.999996
0.999996
0.999995
0.999994
0.999992
0.999998
0.999999
0.999997
0.999999
0.999998
0.999984
0.999998
0.999988
1
1
1
1.00001
1.00002
1
1
1.00001
1
0.999997
1
0.999997
1
0.999993
1
0.999988
4.54398e-09
1.05961e-10
1.38706e-09
1.02067e-10
1.36177e-09
4.36813e-12
6.16966e-11
3.25357e-11
5.60796e-11
3.8337e-11
1.86946e-11
4.45271e-11
1.30014e-10
1.00242e-12
8.48543e-11
3.77413e-11
1.23808e-10
4.09759e-11
1.64642e-11
2.53086e-11
1.4125e-10
2.84731e-13
8.90188e-11
4.42233e-11
1.29984e-10
4.69949e-11
2.83545e-06
4.8472e-06
8.91417e-06
3.93537e-07
5.89305e-07
3.82233e-27
-1.83489e-26
2.94149e-07
3.33464e-06
4.40553e-06
8.98451e-06
5.43051e-07
5.95637e-07
4.78035e-32
-3.24622e-27
2.95435e-07
0.999997
0.999994
0.999998
0.999996
0.999998
0.999995
0.999977
0.999997
0.999985
0.999997
0.999999
0.999996
0.999999
0.999962
1
0.999764
1
0.999866
1
0.999988
0.999999
0.999962
1
0.999827
1
0.999883
1
1
1
1
1
1
1
0.999999
1.56697e-08
6.35215e-09
4.5529e-09
6.29247e-09
4.5529e-09
2.91252e-10
5.27162e-08
5.07445e-10
4.91621e-08
1.4318e-11
3.75638e-10
1.2854e-10
3.45291e-10
1.29688e-10
1.22052e-10
3.27654e-11
6.25056e-11
3.27654e-11
3.56292e-10
1.18617e-10
3.24556e-10
1.17575e-10
1.46412e-10
3.44618e-11
7.60149e-11
3.4719e-11
3.53611e-11
5.85647e-12
2.53784e-11
1.00242e-12
2.8077e-10
6.28887e-11
2.3898e-10
3.93184e-11
3.21036e-11
9.751e-13
1.31243e-11
2.88223e-13
2.7167e-10
7.17186e-11
2.51158e-10
4.78803e-11
0.999994
0.999995
0.999973
0.999985
0.999973
0.999976
0.999998
0.999997
0.999998
0.999998
1
0.999757
1
0.999805
0.999999
0.999965
1
0.999896
0.999999
0.999822
1
0.999852
1
0.999971
1
0.999906
1
0.999992
0.999998
0.999893
1
0.999327
1
0.999641
1
0.999979
1
0.999902
1
0.999487
1
0.999715
6.754e-06
7.1018e-09
6.10609e-07
9.83851e-06
5.29196e-07
9.12066e-06
5.77002e-10
3.2997e-11
1.81402e-09
4.12897e-09
1.23464e-08
1.22685e-10
4.71696e-09
3.23966e-08
8.49205e-09
4.8405e-08
8.00496e-10
3.42098e-11
1.85405e-09
3.16654e-09
9.91681e-09
1.54004e-10
4.49586e-09
3.40546e-08
4.50875e-09
4.59647e-08
6.59585e-11
1.03088e-09
1.97017e-10
7.33637e-10
1.78281e-10
4.83873e-10
3.2997e-11
8.22813e-10
1.84226e-10
6.93408e-10
1.66838e-10
5.08431e-10
3.44618e-11
4.36131e-10
1.21158e-10
3.71429e-10
6.03765e-11
4.39385e-10
1.32592e-10
4.07299e-10
7.35605e-11
0.999994
0.999996
0.999977
0.999983
0.999977
0.999977
1
1
1
1
1
0.999987
1
0.999998
1
0.999985
0.999997
0.999983
1
0.999994
1
0.999996
0.999989
0.999986
0.999995
0.999986
1
0.999285
1
0.999405
0.999999
0.999768
0.999999
0.999694
1
0.999458
1
0.999544
0.999999
0.999845
1
0.999738
3.19688e-06
6.22167e-05
0.000122254
7.10525e-05
0.000134365
9.74436e-09
3.43623e-06
2.21603e-05
2.92933e-06
2.13789e-05
3.32334e-11
1.59909e-09
3.34717e-11
9.53116e-09
4.5188e-09
2.45844e-08
4.6499e-09
5.47296e-09
4.58382e-09
2.93669e-08
3.39598e-11
1.73538e-09
3.37148e-11
9.34026e-09
4.28531e-09
2.29034e-08
4.42402e-09
9.17056e-09
4.35427e-09
2.87781e-08
1.29959e-09
1.50215e-09
3.39552e-10
1.08314e-09
2.77056e-10
3.74882e-10
3.32334e-11
1.44851e-09
3.29152e-10
1.14647e-09
2.39271e-10
4.18632e-10
3.42098e-11
0.999996
0.999998
0.999996
1
0.999999
0.999992
0.999998
1
0.999996
1
1
1
1
1
1
1
1
0.999996
1
1
0.999999
1
0.999999
1
1
0.999999
1
1
0.999881
0.999999
0.999969
0.999999
0.999982
0.999999
0.999948
0.999999
0.99999
0.999994
0.999989
1
0.999536
1
0.999349
1
0.99963
1
0.999429
1.69915e-05
7.93568e-05
3.18571e-06
8.55947e-05
8.29146e-06
0.000194932
0.000485692
0.000210985
0.000504577
1.37411e-07
1.8311e-05
2.29465e-06
8.30316e-06
1.54144e-06
1.42774e-05
1.20182e-05
3.04702e-05
4.31049e-06
1.63337e-05
2.12454e-06
6.84246e-06
1.41951e-06
1.4577e-05
1.44861e-05
3.31973e-05
4.5704e-06
2.44374e-10
9.31257e-10
4.8195e-07
2.67293e-07
1.98204e-08
4.35798e-08
3.18515e-10
9.95054e-10
5.93219e-07
2.98967e-07
3.24935e-08
4.36879e-08
3.21212e-08
0.999999
0.999998
0.999997
0.999974
0.999996
0.999979
0.999994
0.999999
1
0.999999
1
1
1.00001
1
1
0.999985
0.999999
0.999998
1
0.999986
0.999998
1
1
1
1
0.999984
0.999999
0.99999
0.999999
0.999966
0.999998
1
0.999712
1
0.999915
1
0.999985
0.999999
0.99983
1
0.999945
0.999999
0.999986
0.000921237
7.44508e-06
0.000392518
0.000703852
0.000380329
0.000613895
5.8547e-05
1.71359e-05
0.000121991
5.257e-05
0.000435946
3.19893e-05
0.000378671
0.00144493
0.000127155
0.000821038
6.40564e-05
1.83058e-05
0.000129797
5.89688e-05
0.000462891
3.85028e-05
0.000387575
0.00147861
0.000125169
0.000851321
2.49966e-06
2.05427e-05
1.52752e-06
1.13913e-05
8.29003e-07
1.33987e-05
8.40438e-07
2.07196e-05
1.57551e-06
9.26418e-06
1.21826e-06
1.71821e-05
1.25382e-06
2.79755e-07
1
0.999999
0.999998
0.999992
0.999992
0.999994
0.999993
0.999915
0.999888
0.999917
0.999883
0.999996
0.999987
0.999998
0.999976
0.999996
0.999981
0.999998
0.999945
0.999995
0.999977
0.999997
0.999974
0.999991
0.99998
0.999994
0.999955
1
1
0.999967
0.999997
0.999957
0.999997
1
1
0.999969
0.999997
0.999963
0.999998
0.000398233
0.00277612
0.00288513
0.0027791
0.0028486
1.88536e-05
0.00170002
0.00223767
0.00171841
0.00222939
8.47856e-06
5.01207e-05
2.93149e-05
0.000144151
5.11933e-05
0.000448118
0.0006163
0.00165689
0.000143503
0.00110696
1.06382e-05
5.57183e-05
4.03837e-05
0.000161002
5.68379e-05
0.00049034
0.000647713
0.00170577
0.000157284
0.00116696
1.936e-05
1.4134e-05
2.79039e-06
1.95585e-05
4.09212e-06
7.35192e-06
1
0.999998
0.999998
0.999979
0.999854
0.999962
0.999869
0.999951
0.999111
0.999865
0.999982
0.999024
0.999987
1
0.998799
1
0.998823
0.999986
0.999888
0.999153
0.999969
0.99899
0.999975
1
0.998684
1
0.998803
0.99997
0.999999
0.999991
0.999999
0.999986
0.999998
0.999938
0.999999
0.99999
0.999999
0.999999
0.999997
0.999931
0.00392374
0.000226917
0.00254754
0.0038273
0.00253424
0.003786
0.000237952
0.00269072
0.000279679
0.00180386