/*--------------------------------*- C++ -*----------------------------------*\
| =========                 |                                                 |
| \\      /  F ield         | OpenFOAM: The Open Source CFD Toolbox           |
|  \\    /   O peration     | Version:  5.x                                   |
|   \\  /    A nd           | Web:      www.OpenFOAM.org                      |
|    \\/     M anipulation  |                                                 |
\*---------------------------------------------------------------------------*/
FoamFile
{
    version     2.0;
    format      ascii;
    class       surfaceScalarField;
    location    "1.7";
    object      alphaPhi10;
}
// * * * * * * * * * * * * * * * * * * * * * * * * * * * * * * * * * * * * * //

dimensions      [0 3 -1 0 0 0 0];

internalField   nonuniform List<scalar> 
30582
(
0.000248241
-4.0648e-06
0.00025263
-4.3883e-06
0.000247905
-7.7633e-06
0.000254006
-1.37624e-06
0.000252145
-8.62852e-06
0.000246622
-1.01137e-05
0.000250929
3.07699e-06
0.000253354
-2.58531e-06
0.000251309
-1.33155e-05
0.000244466
-1.02148e-05
0.000246667
4.26194e-06
0.000250251
6.17981e-06
0.000253302
-4.57835e-06
0.000248232
-1.70814e-05
0.000241415
-7.14274e-06
0.000241299
5.36778e-06
0.000246205
8.30838e-06
0.000250714
8.76746e-06
0.000249033
-5.379e-06
0.000246134
-2.18e-05
0.000235228
2.27584e-06
0.000235211
6.08772e-06
0.000241306
1.02667e-05
0.000247177
1.18459e-05
0.000247223
1.05776e-05
0.000248228
-7.47406e-06
0.000237606
-2.4178e-05
0.000230433
1.66776e-05
0.000227856
7.35573e-06
0.000235316
1.20769e-05
0.000242248
1.51952e-05
0.00024489
1.41782e-05
0.000247676
1.11295e-05
0.000237574
-7.44194e-06
0.000235343
-2.90871e-05
0.000213372
4.83563e-05
0.000220495
7.36042e-06
0.000227947
1.47253e-05
0.000236126
1.81995e-05
0.000241438
1.8648e-05
0.000246986
1.48685e-05
0.000239642
9.062e-06
0.000237316
-9.41459e-06
0.000208826
-2.15637e-05
7.68631e-05
-8.33101e-06
0.000214124
6.37088e-06
0.000220414
1.48937e-05
0.00022847
2.23815e-05
0.00023602
2.36174e-05
0.000244127
2.15072e-05
0.000242794
1.17167e-05
0.0002408
5.57806e-06
0.000211257
-1.0115e-05
8.74922e-05
-2.68862e-06
-5.61337e-06
1.19394e-07
0.000209589
4.53587e-06
0.000213888
1.28965e-05
0.000220365
2.29986e-05
0.000228253
3.01486e-05
0.000238246
2.94988e-05
0.000243181
2.112e-05
0.000245509
7.00683e-06
0.00022219
-4.67125e-06
0.000107012
-3.69794e-06
-6.65799e-06
-6.47623e-10
1.13937e-07
1.27053e-09
0.000206948
2.64066e-06
0.000209338
9.08603e-06
0.000213372
1.98889e-05
0.000219507
3.1744e-05
0.000229311
3.90827e-05
0.000238755
3.39247e-05
0.000246262
2.03656e-05
0.000235672
-6.27444e-06
0.000134524
-4.31071e-06
-6.36876e-06
-1.2196e-08
4.68341e-09
5.08594e-12
7.02918e-10
-1.05321e-12
0.00020538
1.56804e-06
0.000206831
5.14807e-06
0.000208673
1.37849e-05
0.000211976
2.74201e-05
0.000219219
4.1837e-05
0.000229427
4.84108e-05
0.000241276
3.8908e-05
0.000244326
1.06945e-05
0.000161348
-5.77549e-06
-4.34947e-06
-2.79812e-08
-3.94799e-09
8.29227e-12
1.78296e-11
-8.0566e-17
-1.20158e-16
9.04416e-16
0.000203511
1.86933e-06
0.000205484
2.91428e-06
0.000206522
7.29888e-06
0.000207175
1.85854e-05
0.000210624
3.6015e-05
0.000218019
5.32444e-05
0.000230322
5.93603e-05
0.000243887
3.73717e-05
0.000182797
-3.38897e-06
6.79062e-07
-7.64048e-08
-8.81473e-09
-1.60306e-11
2.99091e-12
1.9697e-14
-9.52476e-16
-2.81821e-17
1.80728e-16
-3.45426e-22
0.000199746
3.76482e-06
0.000203797
3.55696e-06
0.000206065
3.37209e-06
0.000205418
9.05653e-06
0.000205475
2.37341e-05
0.000208141
4.58936e-05
0.000216458
6.71027e-05
0.000233812
6.60501e-05
0.000193136
7.7781e-06
9.45434e-06
-1.20291e-07
-1.78534e-08
-6.36537e-11
2.195e-12
-1.52783e-15
2.03598e-16
2.9583e-19
7.0831e-19
-2.39219e-26
-1.5015e-26
0.000192206
7.54012e-06
0.000200307
7.25436e-06
0.000205586
4.03556e-06
0.000205645
3.14451e-06
0.000204441
1.00901e-05
0.00020255
2.93252e-05
0.000204471
5.78758e-05
0.000218613
7.79926e-05
0.000190248
2.22653e-05
1.82161e-05
-1.09272e-07
-2.53736e-08
-1.50122e-10
5.88294e-12
-1.15275e-14
1.01555e-16
-4.76627e-20
4.649e-21
1.84441e-23
-3.94358e-25
0.000179966
1.22396e-05
0.000193248
1.45998e-05
0.000202762
1.00779e-05
0.00020598
3.70092e-06
0.000206453
1.13286e-06
0.000202178
1.04614e-05
0.000198097
3.56991e-05
0.000205062
6.76667e-05
0.000180568
2.8745e-05
2.1682e-05
1.58751e-07
-1.13592e-08
-2.57465e-10
9.66468e-12
-3.49078e-14
3.00148e-16
-3.47525e-19
1.56665e-21
-8.25754e-25
-1.5574e-26
0.000162672
1.72939e-05
0.00018139
2.40971e-05
0.000196111
2.12518e-05
0.000204645
1.14133e-05
0.000209303
8.50743e-07
0.000205637
-2.32542e-06
0.000199038
9.52218e-06
0.000197808
4.09936e-05
0.000173199
2.55077e-05
2.10966e-05
5.76103e-07
6.11035e-08
-2.35885e-10
2.26247e-11
-8.12011e-14
-4.07368e-16
-1.06539e-18
-2.23672e-21
-7.82078e-24
1.34639e-26
0.000140321
2.23507e-05
0.000164224
3.44599e-05
0.000184534
3.56733e-05
0.000199491
2.64055e-05
0.000209717
1.09992e-05
0.000210295
-3.80795e-06
0.000205091
-8.37603e-06
0.00019941
8.33573e-06
0.000170394
1.55251e-05
1.98938e-05
5.41424e-07
1.38891e-07
7.92675e-11
6.67875e-11
-1.07283e-13
-3.18629e-15
-2.72045e-18
-3.54227e-20
-2.63488e-23
1.28905e-25
0.000113418
2.69035e-05
0.000141822
4.47525e-05
0.000167447
5.1547e-05
0.000188798
4.63662e-05
0.000205418
3.07052e-05
0.000213159
8.13596e-06
0.000213365
-1.2081e-05
0.000206562
-1.29863e-05
0.000179409
2.66477e-06
2.06049e-05
2.58639e-07
2.0847e-07
3.54169e-10
1.91443e-10
-7.20459e-14
-5.01117e-15
-4.01243e-18
-1.3443e-19
-7.64507e-23
6.68353e-26
8.28402e-05
3.05779e-05
0.000114726
5.39998e-05
0.000144874
6.73255e-05
0.000172028
6.83173e-05
0.000195339
5.64449e-05
0.000211925
3.19382e-05
0.00022044
1.0614e-06
0.000216515
-1.93206e-05
0.000195539
-5.798e-06
2.70725e-05
-1.02998e-07
3.1222e-07
-1.82455e-10
4.30912e-10
-7.8156e-14
4.7467e-15
-4.03413e-18
-2.41822e-19
-1.24678e-22
-3.97735e-25
4.97073e-05
3.31329e-05
8.38488e-05
6.14553e-05
0.000117369
8.15047e-05
0.000149301
9.00523e-05
0.000178767
8.48898e-05
0.000203409
6.49618e-05
0.000220429
3.19489e-05
0.000224816
-6.46895e-06
0.00021504
-1.07467e-05
4.07223e-05
-4.73115e-07
5.28825e-07
-1.5739e-09
8.36249e-10
-3.55018e-13
4.00931e-14
-6.27168e-18
-9.32076e-20
-1.58567e-22
-1.37621e-24
1.52482e-05
3.44591e-05
5.03474e-05
6.66342e-05
8.58919e-05
9.29327e-05
0.000121236
0.00010957
0.000155697
0.000113122
0.000187349
0.00010095
0.000212872
7.25183e-05
0.000228388
2.83822e-05
0.000234589
-6.90691e-06
6.26114e-05
-9.32259e-07
9.86024e-07
-4.46187e-09
1.62199e-09
-1.33366e-12
1.12832e-13
-1.97173e-17
5.2253e-19
-2.69666e-22
-1.64115e-24
-1.9281e-05
3.45292e-05
1.54811e-05
6.93254e-05
5.16522e-05
0.000100874
8.88865e-05
0.000125282
0.000126767
0.0001385
0.000163946
0.000136525
0.000197295
0.000116527
0.000223269
7.76373e-05
0.0002468
1.28662e-05
8.98492e-05
-1.03015e-06
2.00141e-06
-1.00507e-08
3.4347e-09
-3.84906e-12
2.29413e-13
-6.22427e-17
1.63376e-18
-7.71654e-22
2.04916e-24
-5.26845e-05
3.34035e-05
-1.94733e-05
6.94836e-05
1.59619e-05
0.000105016
5.35678e-05
0.000136192
9.31441e-05
0.000158905
0.000133943
0.000168503
0.000173566
0.000160254
0.000208103
0.000131693
0.00024598
4.76277e-05
0.000111413
1.08228e-06
4.11529e-06
-1.70589e-08
7.9893e-09
-1.00006e-11
4.1011e-13
-1.7927e-16
3.0599e-18
-2.33885e-21
1.01827e-23
-8.38627e-05
3.11781e-05
-5.33012e-05
6.72314e-05
-1.98574e-05
0.000105303
1.66788e-05
0.000141905
5.62791e-05
0.000173057
9.86988e-05
0.000194149
0.000142353
0.000199715
0.00018354
0.000184817
0.000232411
9.22117e-05
0.000123996
5.936e-06
7.52596e-06
-7.58836e-09
2.00232e-08
-2.23407e-11
6.28387e-13
-5.07316e-16
3.25633e-18
-6.60796e-21
1.08871e-23
-0.000111864
2.80013e-05
-8.48867e-05
6.27636e-05
-5.45505e-05
0.000101924
-2.03992e-05
0.000142381
1.76907e-05
0.000180493
5.98691e-05
0.000211887
0.000105223
0.000231279
0.000150232
0.000233024
0.000207333
0.00014022
0.000127182
1.27651e-05
1.08221e-05
1.11558e-07
5.11581e-08
-2.76049e-11
7.27928e-13
-1.40084e-15
-9.12249e-18
-1.83286e-20
-4.44426e-23
-0.000135923
2.40593e-05
-0.000113261
5.63761e-05
-8.69624e-05
9.51756e-05
-5.63522e-05
0.000137877
-2.11614e-05
0.000181233
1.91269e-05
0.000221235
6.4068e-05
0.000253042
0.000110299
0.000271211
0.000172231
0.000185809
0.000120575
2.1053e-05
1.28852e-05
3.61248e-07
1.09886e-07
2.38113e-10
1.30916e-12
-2.63949e-15
-1.1289e-16
-5.08323e-20
-4.11512e-22
-0.000155486
1.95629e-05
-0.000137636
4.84338e-05
-0.000116084
8.54982e-05
-8.99723e-05
0.000128796
-5.88924e-05
0.000175608
-2.20017e-05
0.000222362
2.0759e-05
0.000264544
6.63047e-05
0.000297037
0.000129339
0.000223053
0.000104734
2.97153e-05
1.34172e-05
7.02817e-07
1.71756e-07
1.44133e-09
8.74602e-12
6.2189e-14
-1.12578e-15
-9.4128e-20
-2.87803e-21
-0.000170232
1.47464e-05
-0.000157425
3.9352e-05
-0.000141092
7.34417e-05
-0.000120194
0.00011572
-9.42263e-05
0.00016413
-6.20101e-05
0.000215617
-2.30566e-05
0.000266177
2.09895e-05
0.00030986
8.08493e-05
0.000249414
8.17097e-05
3.73326e-05
1.2345e-05
1.08894e-06
2.13943e-07
3.76572e-09
3.30954e-11
6.09515e-13
-6.79256e-15
3.19492e-18
-2.83466e-20
-0.000180072
9.83967e-06
-0.000172268
2.95891e-05
-0.000161384
5.96433e-05
-0.000146122
9.93706e-05
-0.00012602
0.000147513
-9.95315e-05
0.000201651
-6.57652e-05
0.000258325
-2.38309e-05
0.000310998
2.92086e-05
0.00026385
5.33797e-05
4.32596e-05
9.9497e-06
1.44759e-06
2.21818e-07
6.93779e-09
7.17378e-11
2.21254e-12
-2.10065e-14
3.20237e-17
-1.80394e-19
-0.000185025
4.95273e-06
-0.000182017
1.9589e-05
-0.000176605
4.48102e-05
-0.000167089
8.06102e-05
-0.000153288
0.000126639
-0.000133343
0.000181324
-0.000105886
0.000241772
-6.77048e-05
0.000302199
-2.30194e-05
0.000267174
2.07982e-05
4.72948e-05
6.59935e-06
1.74861e-06
1.91438e-07
1.0313e-08
1.05306e-10
5.1038e-12
-4.0986e-14
1.26438e-16
-6.35813e-19
-0.000185319
2.94293e-07
-0.000186807
9.74296e-06
-0.00018667
2.96535e-05
-0.000182685
6.04061e-05
-0.000175296
0.000102619
-0.00016232
0.000155616
-0.000142074
0.000217512
-0.000110265
0.000284332
-7.51564e-05
0.000262486
-1.42674e-05
4.91648e-05
2.51726e-06
1.99356e-06
1.29163e-07
1.3461e-08
1.09705e-10
8.89028e-12
-5.75666e-14
3.12695e-16
-1.38969e-18
-0.000181617
-3.70212e-06
-0.000187237
7.2347e-07
-0.000191758
1.48312e-05
-0.000192723
3.9691e-05
-0.000191636
7.67458e-05
-0.000185597
0.000125896
-0.000173024
0.000186566
-0.000149463
0.00025671
-0.00012427
0.000248179
-4.82852e-05
4.86995e-05
-2.00992e-06
2.14007e-06
4.71286e-08
1.62248e-08
7.96124e-11
1.29614e-11
-6.26416e-14
6.59896e-16
-2.18855e-18
-0.000174527
-7.0902e-06
-0.000183529
-7.40956e-06
-0.000191619
5.85134e-07
-0.000197144
1.92525e-05
-0.000202242
5.0297e-05
-0.00020268
9.38284e-05
-0.000197756
0.000150628
-0.00018323
0.000220333
-0.000168157
0.000223732
-7.9168e-05
4.60455e-05
-6.56456e-06
2.13772e-06
-3.8768e-08
1.77447e-08
2.9943e-11
1.67793e-11
-5.30786e-14
1.11226e-15
-2.7154e-18
-0.000164685
-9.84181e-06
-0.000176225
-1.43942e-05
-0.000187213
-1.18157e-05
-0.000197133
5.74313e-07
-0.000207439
2.44493e-05
-0.000213334
6.09511e-05
-0.000215828
0.000111901
-0.000210069
0.000177467
-0.00020563
0.000190995
-0.000106515
4.13834e-05
-1.07453e-05
2.0083e-06
-1.35478e-07
1.8241e-08
-4.48295e-11
1.87796e-11
-2.73873e-14
1.57613e-15
-2.62428e-18
-0.000152764
-1.19217e-05
-0.000166076
-1.99907e-05
-0.000179325
-2.22828e-05
-0.00019249
-1.64594e-05
-0.000206022
-8.42658e-07
-0.000217003
2.81186e-05
-0.000227331
7.24545e-05
-0.000229481
0.000131312
-0.000235426
0.000151814
-0.00012878
3.50114e-05
-1.44061e-05
1.79844e-06
-2.34148e-07
1.728e-08
-1.23617e-10
2.00289e-11
-2.53371e-15
1.81935e-15
-1.57775e-18
-0.00013935
-1.34134e-05
-0.000153764
-2.42336e-05
-0.000168579
-3.07365e-05
-0.00018393
-3.08422e-05
-0.00020015
-2.23315e-05
-0.000216301
-1.54499e-06
-0.000232783
3.357e-05
-0.000241049
8.40226e-05
-0.000256816
0.000109755
-0.000144413
2.7297e-05
-1.71644e-05
1.51041e-06
-3.12944e-07
1.51754e-08
-1.96688e-10
1.91502e-11
3.29977e-14
2.02888e-15
-2.02806e-19
-0.000124868
-1.44818e-05
-0.000139929
-2.72491e-05
-0.000155653
-3.71599e-05
-0.000172385
-4.22818e-05
-0.000190368
-4.06246e-05
-0.00020934
-2.92929e-05
-0.00022926
-5.06731e-06
-0.00024454
3.70612e-05
-0.000269577
6.81106e-05
-0.000152184
1.91312e-05
-1.8627e-05
1.15485e-06
-3.58537e-07
1.23162e-08
-2.51022e-10
1.63266e-11
7.51998e-14
1.95575e-15
1.7793e-18
-1.5144e-05
-0.000109724
-0.00012516
-2.92504e-05
-0.000141169
-4.17328e-05
-0.000158637
-5.09082e-05
-0.000177606
-5.50434e-05
-0.000198067
-5.18974e-05
-0.000220541
-3.80117e-05
-0.000243521
-5.86373e-06
-0.000273083
2.94811e-05
-0.000151586
1.14865e-05
-1.85935e-05
7.82076e-07
-3.61263e-07
8.85334e-09
-2.48901e-10
1.24546e-11
1.0216e-13
1.59701e-15
3.85335e-18
-3.03697e-05
-0.000109934
-3.56671e-05
-7.40572e-05
-0.000125739
-4.46805e-05
-0.00014334
-5.70297e-05
-0.000162698
-6.58165e-05
-0.000183703
-6.94061e-05
-0.000207232
-6.52042e-05
-0.000233932
-4.53895e-05
-0.000266479
-2.4769e-06
-0.000142653
5.00881e-06
-1.70009e-05
4.40008e-07
-3.19965e-07
5.35972e-09
-1.89617e-10
8.06856e-12
1.12308e-13
1.11602e-15
4.86488e-18
-4.60885e-05
-0.00011002
-7.15458e-05
-7.40555e-05
-3.07728e-05
-4.32844e-05
-0.000127077
-6.09435e-05
-0.000146266
-7.34615e-05
-0.000167243
-8.22772e-05
-0.000191044
-8.55766e-05
-0.000219903
-7.43434e-05
-0.00025176
-2.95059e-05
-0.000123917
8.79233e-08
-1.37653e-05
1.56259e-07
-2.42497e-07
2.4097e-09
-1.01754e-10
4.13323e-12
1.01321e-13
6.24922e-16
4.75469e-18
-6.26873e-05
-0.000110478
-0.000108145
-7.34203e-05
-6.10062e-05
-4.38222e-05
-2.56464e-05
-1.7638e-05
-0.000128812
-7.83976e-05
-0.000149288
-9.14163e-05
-0.000173111
-0.000100155
-0.000203626
-9.36861e-05
-0.000232204
-4.17681e-05
-9.55774e-05
-2.88856e-06
-9.20285e-06
-2.54066e-08
-1.47913e-07
4.50258e-10
-2.98536e-11
1.41852e-12
7.3108e-14
2.56266e-16
3.61726e-18
-8.04875e-05
-0.000111012
-0.000145922
-7.27011e-05
-9.14454e-05
-4.29811e-05
-4.93928e-05
-2.00758e-05
-3.23976e-05
1.47596e-05
-0.000130244
-9.74413e-05
-0.000153864
-0.00011053
-0.000186279
-0.000105425
-0.000210472
-4.15814e-05
-6.58986e-05
-3.16835e-06
-5.08241e-06
-6.67468e-08
-7.34297e-08
-1.52093e-10
2.01823e-12
1.39503e-13
3.87752e-14
7.60932e-17
2.17758e-18
-9.99965e-05
-0.000110735
-0.000185854
-7.10796e-05
-0.000121325
-4.28219e-05
-7.25218e-05
-1.98522e-05
-5.93604e-05
6.88706e-06
-4.02562e-05
5.50158e-05
-0.000133461
-0.000117581
-0.000168307
-0.0001118
-0.000187145
-3.65373e-05
-4.23173e-05
-2.41248e-06
-2.56775e-06
-5.12759e-08
-3.28656e-08
-1.65102e-10
4.47612e-12
-3.32037e-14
1.32298e-14
6.67312e-18
9.95102e-19
-0.00012052
-0.000112477
-0.00022828
-6.83068e-05
-0.000151608
-4.07963e-05
-9.32346e-05
-2.21092e-05
-8.19142e-05
2.70165e-06
-6.76178e-05
3.42486e-05
-8.35003e-05
0.000138516
-0.000149558
-0.000114196
-0.000161108
-3.05082e-05
-2.60779e-05
-1.66674e-06
-1.32186e-06
-3.04332e-08
-1.4689e-08
-9.80926e-11
6.608e-13
-2.28157e-14
3.25707e-15
-1.50004e-18
2.86659e-19
-0.000111911
-0.000130231
-0.00027015
-6.84659e-05
-0.000182366
-3.75403e-05
-0.000112207
-2.18238e-05
-9.52421e-05
-8.78127e-06
-8.34549e-05
1.85387e-05
-0.000146099
9.68473e-05
-0.000103392
0.000241908
-0.000132999
-2.4117e-05
-1.51253e-05
-1.16741e-06
-7.28343e-07
-1.74969e-08
-6.95521e-09
-4.97049e-11
-7.89848e-13
-1.06644e-14
7.99169e-16
-9.02859e-19
6.1792e-20
-1.768e-05
-0.00010632
-0.000230782
-8.79014e-05
-0.000209081
-3.84874e-05
-0.00012949
-2.02442e-05
-0.000101523
-1.5543e-05
-8.88195e-05
-3.41662e-06
-0.000179141
5.15806e-05
-0.000192812
0.000186267
-0.000153661
0.000395569
-8.21191e-06
-7.8287e-07
-4.22601e-07
-1.06555e-08
-3.44326e-09
-2.51769e-11
-7.95027e-13
-4.68138e-15
1.84756e-16
-3.78197e-19
1.49232e-20
-4.72769e-07
-4.1589e-06
-2.47418e-05
-5.18739e-05
-0.000159663
-5.78747e-05
-0.000141028
-2.36227e-05
-0.00010305
-1.86983e-05
-8.63853e-05
-1.79773e-05
-0.00018023
-2.32785e-06
-0.000246652
0.000105421
-0.000277207
0.000309813
-4.58029e-05
0.000441372
-2.4426e-07
-6.44798e-09
-1.73983e-09
-1.33824e-11
-4.92351e-13
-2.15479e-15
4.22425e-17
-1.53189e-19
3.776e-21
-3.68517e-09
-1.13646e-07
-5.53844e-07
1.29108e-07
-1.05998e-05
-2.2681e-05
-9.75906e-05
-4.09602e-05
-9.73919e-05
-2.62726e-05
-7.41245e-05
-3.09377e-05
-0.000152427
-4.57795e-05
-0.000251636
2.65709e-06
-0.000371098
0.000199311
-0.000170576
0.000434585
0.000151659
0.000289713
-8.46475e-10
-7.14984e-12
-2.68323e-13
-1.03771e-15
9.72607e-18
-6.67144e-20
1.01442e-21
-3.59084e-12
-2.82796e-10
-3.61632e-09
-3.07574e-08
-1.8682e-07
1.09959e-06
-4.72182e-06
-9.66708e-06
-5.71591e-05
-4.01438e-05
-5.46865e-05
-4.36082e-05
-0.000106613
-7.66897e-05
-0.000211774
-8.5641e-05
-0.000398427
2.99859e-05
-0.000325092
0.000353827
0.000203648
0.000382596
0.00148955
0.000555276
-0.00175511
-1.26635e-13
-5.12018e-16
1.52131e-18
-3.12549e-20
2.79128e-22
-2.44953e-16
-3.76221e-14
-2.46154e-12
-1.00752e-10
-1.02091e-09
-1.23953e-08
-6.78399e-08
1.17358e-06
-2.1482e-06
-5.91516e-06
-2.36916e-05
-5.07526e-05
-5.12798e-05
-9.62903e-05
-0.00013323
-0.000155116
-0.000348464
-0.000135602
-0.000399449
0.000104343
0.000155589
0.000401886
0.00124925
0.000622889
0.00194064
0.000736139
-0.00212151
0.000408875
-0.002164
1.29731e-19
-1.54205e-20
7.49683e-23
-7.721e-21
-1.29733e-19
-1.19501e-16
-2.5336e-14
-6.78311e-13
-5.3775e-11
-2.97663e-10
-7.12871e-09
-2.67607e-08
1.12398e-06
-6.92865e-07
-6.27128e-06
-5.679e-06
-8.52652e-05
-4.31398e-05
-0.000183341
-0.000220591
-0.000282828
-0.000357206
-0.000177845
5.07173e-05
0.000209214
0.00110368
0.000547463
0.00175398
0.00080955
0.00197642
0.000950574
-0.00219086
0.000620121
-0.00233276
0.000304188
-0.00246818
1.96564e-23
1.89051e-24
-3.67652e-21
-5.39711e-19
-3.05703e-17
-1.40761e-14
-1.79497e-13
-3.02672e-11
-9.4354e-11
-5.4813e-09
-7.32891e-09
1.10852e-06
5.3317e-07
-1.10096e-05
6.93369e-06
-0.000131314
-7.40202e-05
-0.000326613
-0.000256713
-0.000383299
-6.42395e-05
-6.28887e-05
0.000939418
0.000373477
0.00153697
0.000764472
0.00179766
0.000988311
0.00195649
0.00115778
-0.0021637
0.000827557
-0.0023983
0.000526251
-0.00255482
0.000219711
-0.00268789
-6.29393e-24
-1.00414e-21
-3.3483e-19
-7.45533e-18
-6.57564e-15
-4.66587e-14
-1.92589e-11
-2.01723e-11
-4.93057e-09
1.38332e-09
1.15726e-06
1.88518e-06
-1.57279e-05
9.3558e-06
-0.000211036
-0.000128946
-0.000453287
-7.79647e-05
-0.000369574
0.000748151
0.000128377
0.0012745
0.000635948
0.00160957
0.000952561
0.00171301
0.00123179
0.00190497
0.00130525
-0.00205244
0.000990352
-0.00232649
0.000680159
-0.00255221
0.000377183
-0.00271229
0.000138487
-0.00282638
-3.87057e-24
-2.33834e-22
-1.59751e-19
-1.73993e-18
-3.38929e-15
-8.51785e-15
-1.27724e-11
1.29429e-11
-4.68366e-09
8.9065e-10
1.46335e-06
3.74808e-06
-2.54154e-05
-2.15171e-05
-0.000318333
-4.87333e-05
-0.000482343
0.000559226
-0.000180649
0.00104527
0.000357607
0.0013843
0.000861217
0.00148679
0.00117877
0.00170892
0.00142784
0.00159002
0.00144853
-0.00173329
0.00112267
-0.00218475
0.000777909
-0.00242424
0.000456215
-0.00263124
0.000237215
-0.00281102
6.8769e-05
-0.00289515
-1.79996e-24
-5.04076e-23
-7.99869e-20
-2.44594e-19
-2.01983e-15
4.28959e-15
-8.28624e-12
1.51201e-11
-4.71307e-09
-2.28814e-09
2.18985e-06
3.28453e-06
-4.72399e-05
-2.94859e-05
-0.000337521
0.000335059
-0.000258176
0.00076064
0.000103981
0.00109452
0.00064739
0.00128811
0.0010599
0.00143469
0.001453
0.00140934
0.00160852
0.00139779
0.000373151
-0.00147623
0.000372602
0.000390675
0.000390489
0.00123508
-0.0018457
0.000831439
-0.00223828
0.000460571
-0.0024286
0.000211438
-0.00260546
6.60041e-05
-0.00280825
1.39702e-05
-0.00290912
-8.22133e-25
-5.96051e-24
-4.21895e-20
5.91897e-19
-1.34419e-15
7.13917e-15
-6.11085e-12
6.04277e-12
-3.27091e-09
-3.49864e-09
2.51298e-06
-3.66872e-07
-7.20067e-05
9.6161e-05
-0.000100761
0.000435856
6.66079e-05
0.000719666
0.000478833
0.00107817
0.000857328
0.00111397
0.00138062
0.00120548
0.00165686
0.00119028
0.00181601
-6.69933e-07
0.000278057
-0.000298623
0.000394345
0.000344385
-0.00162637
0.000344212
0.000348244
0.00034836
0.00027819
-0.000298491
0.000392203
-4.67127e-07
0.000260989
0.00040819
0.000262174
0.00040601
0.000987292
-0.00200155
0.000481579
-0.00225929
0.000119443
-0.0023366
-5.37975e-05
-0.00248566
-5.37027e-05
-0.00274058
-4.76763e-05
-0.00286144
-3.95585e-25
2.7191e-23
-2.80255e-20
7.72404e-19
-9.69157e-16
5.30007e-15
-3.84402e-12
9.48077e-14
-1.81808e-09
-9.7518e-10
9.91215e-07
-5.43546e-07
-1.44952e-05
0.000177151
0.000150431
0.000367272
0.000419002
0.00084151
0.000715498
0.000809367
0.00116193
0.000986043
0.00160006
0.000954243
0.00189289
-0.000219795
-0.000220954
0.000872156
0.000466787
0.000465281
0.000487548
0.000488005
-6.92363e-07
-0.000329573
0.000375993
-3.22892e-07
0.000229145
-0.000259342
0.00042478
-0.00187978
0.00124076
-0.000328855
0.000373852
-3.81993e-07
-0.00036154
0.000380557
-0.000359618
0.000378707
0.000229446
-0.000259101
0.00042145
-1.50367e-07
0.000417608
0.00041431
0.000631268
-0.00215117
6.28997e-05
-0.00220274
-0.000230939
-0.00215946
-0.000251478
-0.00228788
-0.000177932
-0.00261033
-9.64699e-05
-0.00276498
-2.86732e-25
3.97704e-23
-2.82822e-20
6.58602e-19
-6.0534e-16
2.3037e-15
-2.37098e-12
6.58061e-13
-9.00364e-10
1.80988e-10
3.25029e-07
-1.38948e-07
8.51508e-05
0.000161644
0.000348871
0.000544788
0.000715725
0.000555477
0.000969391
0.00074785
0.00140013
0.000696753
0.00185755
0.00071978
0.000504362
0.000504875
0.000518136
0.000517868
2.92405e-07
0.000156616
-0.000178154
0.000487891
0.000155601
-0.000177133
0.000486881
-2.67709e-07
0.000140159
0.000504193
0.000139734
0.000503534
-3.11884e-07
-0.000296977
0.00041384
1.24183e-06
0.000211962
-0.000238735
0.000126073
9.78342e-05
0.000122188
0.000104214
-0.00205913
0.000811433
0.00032638
0.000325386
-0.00164591
0.000368977
0.000369349
0.000388371
0.000387316
-0.000296449
0.000410791
-2.33748e-07
0.000410122
0.000407337
0.000211432
-0.000237966
0.000125347
9.86386e-05
0.000121638
0.000103606
1.04729e-06
0.000123701
0.000100612
0.000124249
0.000101809
0.000123105
0.000101564
0.000123571
0.000101414
0.000113573
-0.00220151
-0.000359311
-0.00207436
-0.000485445
-0.00192549
-0.000396435
-0.00206938
-0.000262905
-0.00244389
-0.000167763
-0.00259721
-3.48299e-25
4.58317e-23
-3.19812e-20
4.31223e-19
-3.49292e-16
9.72826e-16
-9.32677e-13
3.90953e-13
-2.75753e-10
1.59832e-10
1.89773e-07
2.30035e-06
0.00015564
0.000258983
0.000628502
0.000362562
0.000908639
0.000489661
0.00122758
0.000419048
0.00167783
0.000577649
0.000497089
0.000496917
0.000503209
0.000502467
-2.9181e-07
0.000123105
0.000521711
0.000123126
0.000521192
-2.95354e-07
0.000108653
0.000532883
0.000108606
0.000532093
4.47458e-07
8.88275e-05
-3.75274e-05
-2.08587e-05
0.000112944
-3.30227e-05
0.000137817
0.000115035
0.000138373
-1.41689e-05
8.85367e-05
-3.76415e-05
-2.07238e-05
-3.30151e-05
0.000113145
0.000137734
0.000115095
0.000138311
-1.41146e-05
6.0797e-07
7.72607e-05
0.000117461
0.000138978
0.000117937
0.000140475
7.74799e-05
0.000117651
0.000138849
0.000118004
0.000140417
1.08188e-06
-0.000267429
0.000121709
9.81599e-05
0.000122049
9.95363e-05
-4.30509e-05
8.79337e-06
2.06879e-07
3.99206e-05
0.000120169
-9.11932e-06
4.08529e-05
-4.48195e-05
0.000110744
2.22039e-07
-4.67953e-05
0.000116557
3.85113e-05
0.000115197
-0.00213232
0.000189303
-0.00180663
0.000221111
0.00022116
0.000266398
0.00026695
-7.527e-08
0.000298098
-0.000300337
0.000371198
0.00029895
-0.000300435
0.000370669
4.18343e-07
0.000289945
0.00039594
0.000291098
0.000395422
-0.000266637
0.000121158
9.87138e-05
0.000121382
9.92868e-05
9.1703e-07
0.000121256
9.33625e-05
0.000116696
0.00010025
0.00012077
9.51787e-05
0.000116349
0.000100196
-4.30794e-05
8.79792e-06
3.98281e-05
0.00011997
-8.91288e-06
4.12555e-05
-4.51463e-05
0.000111234
-4.67857e-05
0.000116615
3.83828e-05
0.000115071
3.33965e-05
9.67283e-06
2.31554e-07
0.000120317
-1.6091e-05
-3.3963e-05
0.000112822
2.85655e-07
0.000120409
0.000115766
3.33398e-05
9.72632e-06
0.0001201
-1.60131e-05
-3.37634e-05
0.000113343
0.000120459
0.000115309
-0.000436912
-0.00212341
-0.000681513
-0.00187829
-0.000605783
-0.00171615
-0.000503114
-0.00182917
-0.000378777
-0.00223288
-0.000220044
-0.00237717
-5.50353e-25
4.77346e-23
-3.07061e-20
2.63994e-19
-1.50306e-16
3.04374e-16
-1.24265e-13
7.28987e-14
-3.82025e-10
1.29079e-09
7.50652e-08
-8.06773e-08
0.000280152
0.000140459
0.000841571
0.00024967
0.00114862
0.000211767
0.00143486
0.000394131
0.000463496
0.000463077
0.000467646
0.000467131
-1.67461e-07
8.66112e-05
0.000519299
8.67969e-05
0.000518558
-1.67205e-07
7.64295e-05
0.000513558
7.66713e-05
0.000512426
9.23363e-07
6.81824e-05
0.000120473
0.000141243
0.000123748
0.000144347
6.84615e-05
0.000120832
0.000141166
0.00012478
0.000144321
1.22576e-06
5.60846e-05
0.000125647
0.00014604
0.000125579
0.000146503
5.62216e-05
0.000126543
0.000145889
0.00012673
0.000146429
-5.87538e-06
8.02566e-06
-1.95939e-05
0.000130315
-7.57364e-06
-2.85148e-05
0.00011581
7.59274e-06
-5.13346e-08
0.000139755
-1.53272e-05
-7.18476e-06
6.33722e-06
0.000123865
-6.17807e-09
7.05682e-06
0.000131743
5.66239e-08
-2.477e-05
0.000123366
-7.6956e-06
-2.8465e-05
0.000116471
-5.67165e-06
8.02927e-06
-1.99582e-05
0.000130688
7.58179e-06
-1.53774e-05
0.000139807
-7.09791e-06
6.36476e-06
0.000123723
7.05731e-06
0.000131732
-2.47668e-05
0.000123473
-7.62233e-06
-5.15587e-06
3.30388e-06
0.000126974
-6.16302e-06
1.72307e-08
4.20746e-06
0.000133293
-7.8425e-06
0.000126958
3.50157e-09
0.000133549
-7.52406e-06
-5.19498e-06
3.20325e-06
0.000127191
-6.17618e-06
4.19512e-06
0.000133323
-7.76048e-06
0.000126927
0.000133541
5.0047e-05
9.10308e-06
2.02408e-07
-5.54045e-05
0.000117725
-9.07865e-06
-4.85579e-05
0.000110793
1.94169e-07
0.000115992
-5.30292e-05
0.000112906
-3.24202e-05
1.31979e-06
-4.83229e-08
2.88331e-05
0.000122447
-1.16208e-06
3.17304e-05
-3.4815e-05
0.000114887
-5.79663e-08
-3.54428e-05
0.000118416
2.86854e-05
0.000119497
-0.00209092
-0.000475946
-0.0018693
3.80527e-05
3.74369e-05
8.87002e-05
8.85454e-05
2.14508e-07
0.000305246
-0.000288777
0.000204355
0.000304641
-0.000288338
0.000205014
6.27777e-08
0.000271288
0.000271265
7.51804e-07
0.00022234
-0.000225514
7.92644e-05
0.000103596
8.30178e-05
0.000107626
0.000222024
-0.000224824
7.9734e-05
0.000103575
8.32878e-05
0.000107547
4.59408e-07
4.69881e-05
7.03801e-05
8.89503e-05
3.69237e-05
0.000113487
8.75231e-05
0.000112386
6.07546e-05
4.70165e-05
7.01957e-05
8.91715e-05
3.70775e-05
0.000113406
8.76789e-05
0.000112258
6.07082e-05
5.00682e-05
9.12888e-06
-5.54357e-05
0.000117561
-8.88338e-06
-4.86762e-05
0.000110917
0.000115936
-5.32805e-05
0.000112802
-5.8756e-05
9.49074e-06
2.12842e-07
0.000114867
-1.81645e-05
5.33576e-05
0.000105058
2.14817e-07
0.000109885
0.000109958
-5.88352e-05
9.47261e-06
0.00011487
-1.76856e-05
5.38475e-05
0.000105958
0.000110189
0.000110145
-3.2419e-05
1.08777e-06
2.88312e-05
0.000122387
-9.8198e-07
3.16672e-05
-3.47326e-05
0.000115138
-3.54328e-05
0.000118533
2.86924e-05
0.000118995
2.70935e-06
1.12268e-09
0.000121684
0.00011844
2.63261e-06
0.000121537
0.000118089
-0.000824846
-0.0019801
-0.000798734
-0.00168534
-0.000698877
-0.00152038
-0.00061244
-0.00159551
-0.000450919
-0.002002
-0.000308742
-0.00206843
-8.52389e-25
4.4125e-23
-2.58645e-20
1.48151e-19
-1.3853e-16
5.71058e-16
-4.33772e-14
1.19417e-13
-5.71383e-10
3.17105e-10
-8.62154e-08
-3.48293e-08
0.000282084
8.20057e-05
0.00099212
7.60796e-05
0.00128426
0.000179407
0.000415892
0.000415353
0.000409151
0.000409187
-8.09445e-08
6.07464e-05
0.00047926
6.09686e-05
0.000478698
-1.13591e-07
4.86343e-05
0.000479872
4.87328e-05
0.000479254
1.13093e-06
4.52482e-05
0.000121832
0.000142122
0.000122816
0.000142265
4.53075e-05
0.000122785
0.000141988
0.000123776
0.000142048
1.09758e-06
3.98554e-05
0.000119913
0.000138821
0.000120124
0.000138972
3.9187e-05
0.000121072
0.00013866
0.000121091
0.0001388
-7.80103e-06
1.66855e-06
0.000129909
2.15805e-06
5.4311e-10
0.000135504
-7.86778e-06
2.49869e-06
0.000130788
-5.92108e-08
2.71493e-06
0.000136011
-7.64267e-06
1.43851e-06
0.000130239
2.1301e-06
0.000135589
-7.46877e-06
2.22568e-06
0.000131462
2.66074e-06
0.000136255
-7.91104e-06
-1.7771e-07
-1.03364e-06
0.000134767
-4.79026e-07
7.84234e-09
-7.93844e-07
0.000139411
-8.00849e-06
0.000135905
-5.94775e-09
0.000140721
-7.59485e-06
-5.03584e-08
-1.2396e-06
0.000135429
-4.51834e-07
-8.5038e-07
0.000139611
-7.65472e-06
0.000136561
0.000140986
-2.22868e-06
-1.22526e-05
-4.25854e-07
-1.89298e-05
-2.04583e-05
-1.72233e-08
-5.40759e-08
-9.32307e-06
-5.6712e-07
-2.632e-06
-1.80043e-08
-2.5449e-06
-2.13902e-06
-1.22702e-05
-3.87659e-07
-1.89178e-05
-9.33419e-06
-2.0459e-05
-5.37023e-07
-2.65243e-06
-2.55641e-06
-7.25923e-07
1.1387e-06
-2.03005e-06
9.16032e-07
-1.0069e-08
-1.81894e-06
-7.27539e-07
-9.81818e-09
-6.95918e-07
1.15482e-06
-2.09225e-06
9.18671e-07
-1.83814e-06
-7.1552e-07
4.0341e-05
1.96001e-06
-1.008e-07
-4.65433e-05
0.000122036
-1.46084e-06
-3.89419e-05
0.000116253
-1.00342e-07
0.000119495
-4.31754e-05
0.00011901
-1.29745e-05
7.05796e-07
-5.58905e-09
9.48646e-06
-5.82771e-07
1.27275e-05
-1.40579e-05
-3.62793e-08
-1.4281e-05
9.85398e-06
-0.00197927
-0.000937587
-0.00188311
-0.000151242
-0.00015259
-7.88725e-05
-8.019e-05
2.07981e-07
0.000288609
-0.000279873
2.89028e-05
0.000287725
-0.000279375
2.90284e-05
5.06431e-07
8.78032e-05
8.82656e-05
1.44177e-06
0.000242897
-0.000243599
3.3106e-05
6.04594e-05
4.16331e-05
6.84718e-05
0.000242853
-0.000244256
3.49184e-05
6.0793e-05
4.3331e-05
6.88909e-05
9.78718e-07
6.25457e-05
8.80273e-05
5.61553e-05
8.09287e-05
6.34306e-05
8.81747e-05
5.74209e-05
8.12472e-05
-8.17646e-06
3.94177e-05
-3.81067e-05
8.61363e-05
4.29527e-05
-1.12654e-07
-4.26798e-05
9.53111e-05
-8.50311e-06
3.66863e-05
9.42416e-05
-8.83907e-08
3.92901e-05
0.000102881
-7.86248e-06
3.95496e-05
-3.86544e-05
8.67041e-05
4.29645e-05
-4.27783e-05
9.54182e-05
-8.25127e-06
3.67043e-05
9.43757e-05
3.92515e-05
0.000102914
-6.00126e-06
-3.21881e-05
2.11123e-05
0.000106037
-8.27449e-06
4.3298e-05
0.000106869
-3.51281e-05
-4.30696e-08
0.000115404
2.72741e-05
-7.76686e-06
9.97801e-05
-6.34508e-08
0.000108651
5.52848e-08
5.00192e-05
0.000112234
-5.79382e-06
-3.21316e-05
2.08106e-05
0.000106277
-8.34778e-06
4.3536e-05
0.000107763
-3.50416e-05
0.000115427