/*--------------------------------*- C++ -*----------------------------------*\
| =========                 |                                                 |
| \\      /  F ield         | OpenFOAM: The Open Source CFD Toolbox           |
|  \\    /   O peration     | Version:  5.x                                   |
|   \\  /    A nd           | Web:      www.OpenFOAM.org                      |
|    \\/     M anipulation  |                                                 |
\*---------------------------------------------------------------------------*/
FoamFile
{
    version     2.0;
    format      ascii;
    class       volScalarField;
    location    "1.7";
    object      k;
}
// * * * * * * * * * * * * * * * * * * * * * * * * * * * * * * * * * * * * * //

dimensions      [0 2 -2 0 0 0 0];

internalField   nonuniform List<scalar> 
12160
(
9.95346e-09
9.92216e-09
1.00203e-08
9.90403e-09
1.00509e-08
1.0008e-08
9.89546e-09
1.00765e-08
1.00166e-08
1.00072e-08
9.8921e-09
1.0106e-08
1.00254e-08
1.00135e-08
1.00072e-08
9.89109e-09
1.01068e-08
1.00316e-08
1.00181e-08
1.00132e-08
1.00081e-08
9.89108e-09
1.01002e-08
1.00325e-08
1.00206e-08
1.00171e-08
1.00149e-08
1.00084e-08
9.8913e-09
1.00939e-08
1.00308e-08
1.00211e-08
1.00189e-08
1.00185e-08
1.00169e-08
1.00125e-08
9.89155e-09
1.00872e-08
1.00285e-08
1.00205e-08
1.00195e-08
1.00198e-08
1.00209e-08
1.00252e-08
1.00859e-08
9.89165e-09
1.00814e-08
1.00267e-08
1.00198e-08
1.00193e-08
1.00201e-08
1.00219e-08
1.00273e-08
1.00832e-08
1.00924e-08
9.89157e-09
1.0076e-08
1.00252e-08
1.00192e-08
1.00189e-08
1.00199e-08
1.00216e-08
1.00262e-08
1.00725e-08
1.00878e-08
1.01451e-08
9.8913e-09
1.00708e-08
1.00241e-08
1.00187e-08
1.00185e-08
1.00195e-08
1.00212e-08
1.00263e-08
1.00637e-08
1.00897e-08
1.01044e-08
1.01456e-08
9.89088e-09
1.00655e-08
1.00232e-08
1.00183e-08
1.00181e-08
1.00191e-08
1.00207e-08
1.00277e-08
1.00586e-08
1.00916e-08
1.01138e-08
1.00732e-08
1.00729e-08
9.89054e-09
1.00602e-08
1.00226e-08
1.00179e-08
1.00177e-08
1.00188e-08
1.00204e-08
1.00292e-08
1.00559e-08
1.00883e-08
1.00996e-08
1.00538e-08
1.00369e-08
1.00588e-08
9.89048e-09
1.00597e-08
1.00221e-08
1.00176e-08
1.00174e-08
1.00184e-08
1.00201e-08
1.00305e-08
1.00556e-08
1.0083e-08
1.0108e-08
1.00486e-08
1.00303e-08
1.00299e-08
1.00373e-08
9.89047e-09
1.00563e-08
1.00218e-08
1.00174e-08
1.00171e-08
1.0018e-08
1.00197e-08
1.00313e-08
1.00562e-08
1.00761e-08
1.01146e-08
1.00632e-08
1.00269e-08
1.00245e-08
1.00127e-08
9.89047e-09
1.00521e-08
1.00217e-08
1.00172e-08
1.00168e-08
1.00176e-08
1.00193e-08
1.00315e-08
1.00562e-08
1.00718e-08
1.01159e-08
1.00743e-08
1.00267e-08
1.00203e-08
1.00157e-08
9.89047e-09
1.0048e-08
1.00216e-08
1.0017e-08
1.00166e-08
1.00173e-08
1.00187e-08
1.00312e-08
1.00553e-08
1.0069e-08
1.01118e-08
1.00854e-08
1.0027e-08
1.00194e-08
1.00109e-08
9.89047e-09
1.0044e-08
1.00214e-08
1.00169e-08
1.00164e-08
1.0017e-08
1.0018e-08
1.00303e-08
1.00535e-08
1.00662e-08
1.01068e-08
1.00923e-08
1.00287e-08
1.00187e-08
1.0011e-08
9.89047e-09
1.00404e-08
1.00209e-08
1.00167e-08
1.00162e-08
1.00167e-08
1.00173e-08
1.00291e-08
1.00509e-08
1.0063e-08
1.01018e-08
1.00955e-08
1.00304e-08
1.00191e-08
1.00104e-08
9.89047e-09
1.00372e-08
1.00202e-08
1.00164e-08
1.0016e-08
1.00164e-08
1.00167e-08
1.00276e-08
1.00478e-08
1.00592e-08
1.00964e-08
1.00955e-08
1.00321e-08
1.00191e-08
1.00109e-08
9.89047e-09
1.00347e-08
1.00195e-08
1.0016e-08
1.00156e-08
1.00162e-08
1.00164e-08
1.00262e-08
1.00444e-08
1.00544e-08
1.009e-08
1.00939e-08
1.00334e-08
1.00192e-08
1.0011e-08
9.89047e-09
1.00327e-08
1.00188e-08
1.00155e-08
1.00152e-08
1.00158e-08
1.00161e-08
1.0025e-08
1.0041e-08
1.0049e-08
1.00829e-08
1.00918e-08
1.00345e-08
1.00192e-08
1.00113e-08
9.89047e-09
1.00314e-08
1.00183e-08
1.0015e-08
1.00147e-08
1.00153e-08
1.00157e-08
1.00239e-08
1.00375e-08
1.0044e-08
1.0075e-08
1.00898e-08
1.00356e-08
1.00193e-08
1.00115e-08
9.89047e-09
1.00309e-08
1.00178e-08
1.00146e-08
1.00142e-08
1.00148e-08
1.00152e-08
1.00228e-08
1.00343e-08
1.00404e-08
1.00666e-08
1.00872e-08
1.00369e-08
1.00195e-08
1.00119e-08
9.89047e-09
1.00311e-08
1.00176e-08
1.00143e-08
1.00138e-08
1.00143e-08
1.00147e-08
1.00217e-08
1.00314e-08
1.00376e-08
1.00583e-08
1.0083e-08
1.00383e-08
1.002e-08
1.00125e-08
9.89047e-09
1.0032e-08
1.00176e-08
1.0014e-08
1.00134e-08
1.00139e-08
1.00142e-08
1.00204e-08
1.00287e-08
1.0035e-08
1.00516e-08
1.00754e-08
1.00397e-08
1.00205e-08
1.00135e-08
9.89047e-09
1.00336e-08
1.00179e-08
1.0014e-08
1.00132e-08
1.00135e-08
1.00137e-08
1.0019e-08
1.00261e-08
1.00325e-08
1.00459e-08
1.00644e-08
1.00405e-08
1.00212e-08
1.00147e-08
9.89047e-09
1.00356e-08
1.00183e-08
1.00142e-08
1.00131e-08
1.00132e-08
1.00131e-08
1.00174e-08
1.00237e-08
1.00301e-08
1.00407e-08
1.00542e-08
1.00398e-08
1.0022e-08
1.00161e-08
9.89047e-09
1.00382e-08
1.00189e-08
1.00145e-08
1.00133e-08
1.00131e-08
1.00125e-08
1.00157e-08
1.00215e-08
1.00277e-08
1.00359e-08
1.00454e-08
1.00369e-08
1.00229e-08
1.0017e-08
9.89047e-09
1.00411e-08
1.00194e-08
1.00148e-08
1.00136e-08
1.00133e-08
1.00124e-08
1.00139e-08
1.00195e-08
1.00253e-08
1.00315e-08
1.00377e-08
1.00328e-08
1.00229e-08
1.00173e-08
9.89047e-09
1.00443e-08
1.002e-08
1.00152e-08
1.00139e-08
1.00136e-08
1.00128e-08
1.00133e-08
1.00178e-08
1.0023e-08
1.00275e-08
1.00312e-08
1.00285e-08
1.0022e-08
1.00174e-08
9.89049e-09
1.00477e-08
1.00205e-08
1.00155e-08
1.00143e-08
1.0014e-08
1.00134e-08
1.00145e-08
1.00173e-08
1.0021e-08
1.00241e-08
1.00261e-08
1.00246e-08
1.00206e-08
1.00172e-08
9.89072e-09
1.00512e-08
1.0021e-08
1.00159e-08
1.00147e-08
1.00144e-08
1.00139e-08
1.0016e-08
1.00185e-08
1.00204e-08
1.00214e-08
1.00222e-08
1.00214e-08
1.0019e-08
1.00166e-08
9.89134e-09
1.00546e-08
1.00212e-08
1.00162e-08
1.0015e-08
1.00148e-08
1.00143e-08
1.00174e-08
1.00203e-08
1.00219e-08
1.00209e-08
1.00193e-08
1.00188e-08
1.00176e-08
1.00159e-08
9.89223e-09
1.00576e-08
1.00215e-08
1.00164e-08
1.00154e-08
1.00152e-08
1.00148e-08
1.00187e-08
1.00223e-08
1.00239e-08
1.00231e-08
1.0019e-08
1.00168e-08
1.00162e-08
1.00153e-08
9.8933e-09
1.00605e-08
1.00217e-08
1.00167e-08
1.00157e-08
1.00156e-08
1.00152e-08
1.00198e-08
1.00244e-08
1.00261e-08
1.00261e-08
1.00216e-08
1.00165e-08
1.0015e-08
1.00146e-08
9.89454e-09
1.00635e-08
1.0022e-08
1.00169e-08
1.0016e-08
1.0016e-08
1.00156e-08
1.00208e-08
1.00264e-08
1.00282e-08
1.00295e-08
1.00253e-08
1.00182e-08
1.00147e-08
1.00138e-08
9.89597e-09
1.00667e-08
1.00224e-08
1.00172e-08
1.00163e-08
1.00163e-08
1.0016e-08
1.00217e-08
1.00286e-08
1.00303e-08
1.00331e-08
1.00302e-08
1.00207e-08
1.00154e-08
1.00133e-08
9.89767e-09
1.007e-08
1.00229e-08
1.00175e-08
1.00166e-08
1.00167e-08
1.00165e-08
1.00227e-08
1.00307e-08
1.00323e-08
1.00366e-08
1.0036e-08
1.0024e-08
1.00167e-08
1.00136e-08
1.00733e-08
9.89964e-09
1.00235e-08
1.00178e-08
1.00169e-08
1.0017e-08
1.00171e-08
1.00237e-08
1.00331e-08
1.00344e-08
1.00401e-08
1.00424e-08
1.00278e-08
1.00183e-08
1.00142e-08
1.00241e-08
1.00763e-08
9.90313e-09
1.00182e-08
1.00173e-08
1.00175e-08
1.00179e-08
1.0025e-08
1.00355e-08
1.00367e-08
1.00439e-08
1.00493e-08
1.00319e-08
1.00201e-08
1.00151e-08
1.00186e-08
1.00247e-08
1.00853e-08
9.90808e-09
1.00177e-08
1.00179e-08
1.00188e-08
1.00265e-08
1.0038e-08
1.00396e-08
1.00482e-08
1.0057e-08
1.00359e-08
1.00217e-08
1.0016e-08
1.00182e-08
1.00191e-08
1.0027e-08
1.00993e-08
9.91884e-09
1.00185e-08
1.00199e-08
1.00282e-08
1.00407e-08
1.00433e-08
1.00541e-08
1.0065e-08
1.00391e-08
1.00229e-08
1.00168e-08
1.00192e-08
1.00187e-08
1.00205e-08
1.00314e-08
1.01247e-08
9.93782e-09
1.00211e-08
1.00301e-08
1.00434e-08
1.00475e-08
1.00607e-08
1.0071e-08
1.00408e-08
1.00233e-08
1.00174e-08
1.00225e-08
1.00199e-08
1.002e-08
1.00229e-08
1.00413e-08
1.01763e-08
9.99457e-09
1.00321e-08
1.00461e-08
1.00519e-08
1.0067e-08
1.00746e-08
1.0041e-08
1.00229e-08
1.00175e-08
1.00342e-08
1.00239e-08
1.00214e-08
1.00216e-08
1.00283e-08
1.00643e-08
1.02613e-08
1.00539e-08
1.00487e-08
1.00562e-08
1.00726e-08
1.00768e-08
1.00402e-08
1.00221e-08
1.00171e-08
1.00512e-08
1.00361e-08
1.00263e-08
1.00228e-08
1.00244e-08
1.00412e-08
1.01056e-08
1.03801e-08
1.01416e-08
1.00605e-08
1.00776e-08
1.00785e-08
1.00392e-08
1.00213e-08
1.0016e-08
1.00646e-08
1.00534e-08
1.0039e-08
1.00278e-08
1.00243e-08
1.00307e-08
1.00681e-08
1.01777e-08
1.0412e-08
1.01529e-08
1.00816e-08
1.00798e-08
1.00383e-08
1.00205e-08
1.00146e-08
1.0084e-08
1.00686e-08
1.0057e-08
1.00404e-08
1.00285e-08
1.00268e-08
1.00477e-08
1.01241e-08
1.02533e-08
1.05668e-08
1.00974e-08
1.00801e-08
1.00375e-08
1.00199e-08
1.00132e-08
1.00775e-08
1.00832e-08
1.00737e-08
1.00589e-08
1.00402e-08
1.00287e-08
1.00356e-08
1.00941e-08
1.02168e-08
1.04047e-08
1.05703e-08
2.63214e-07
1.00365e-08
1.00194e-08
1.00121e-08
1.00346e-08
1.00687e-08
1.00835e-08
1.00758e-08
1.00591e-08
1.00385e-08
1.00315e-08
1.00676e-08
1.0192e-08
1.03841e-08
1.05683e-08
8.07248e-08
8.51881e-06
7.81772e-07
1.0019e-08
1.00111e-08
1.00181e-08
1.00291e-08
1.00627e-08
1.00831e-08
1.00761e-08
1.00578e-08
1.00377e-08
1.00469e-08
1.01518e-08
1.03556e-08
1.0598e-08
2.70754e-08
2.96937e-06
0.000131417
2.21415e-05
1.90117e-06
1.00103e-08
1.00093e-08
1.00157e-08
1.00262e-08
1.00581e-08
1.0083e-08
1.00752e-08
1.00563e-08
1.00409e-08
1.00967e-08
1.02986e-08
1.05316e-08
1.41103e-08
9.57316e-07
4.97776e-05
0.000823446
0.000308434
5.12457e-05
4.18037e-06
1.00076e-08
1.00144e-08
1.0024e-08
1.00547e-08
1.00831e-08
1.00734e-08
1.00564e-08
1.00554e-08
1.02019e-08
1.04949e-08
1.12112e-08
2.8732e-07
1.72393e-05
0.000346826
0.0024858
0.0017309
0.000641331
0.000106786
8.56659e-06
1.00067e-08
1.00138e-08
1.00226e-08
1.0051e-08
1.00944e-08
1.00718e-08
1.01025e-08
1.01309e-08
1.03665e-08
1.11935e-08
8.21305e-08
5.47246e-06
0.000128711
0.00118779
0.00509299
0.00472115
0.00327072
0.00120274
0.000203974
1.66896e-05
1.00064e-08
1.00137e-08
1.00215e-08
1.00751e-08
1.20181e-08
1.06752e-08
1.21748e-08
1.07113e-08
1.06447e-08
2.61578e-08
1.58645e-06
4.22648e-05
0.000500393
0.00274665
0.0176486
0.00893762
0.00811138
0.00564953
0.00207776
0.000359748
3.10705e-05
1.00065e-08
1.00138e-08
1.00227e-08
1.40278e-08
1.97159e-07
1.23242e-07
5.50272e-08
1.03552e-08
1.28634e-08
3.90453e-07
1.24464e-05
0.0001805
0.00127094
0.00984008
0.527531
0.0217431
0.52796
0.521439
0.521726
0.0148655
0.0129745
0.00896411
0.00338545
0.000608077
5.66703e-05
1.00068e-08
1.0014e-08
1.04439e-08
3.53265e-07
9.3864e-06
3.18175e-06
2.82553e-07
1.04501e-08
7.1675e-08
3.12598e-06
5.31246e-05
0.000491154
0.00513886
0.157603
0.544318
0.618072
0.0239717
0.544758
0.497444
0.498303
0.61833
0.583711
0.583859
0.0224575
0.0187916
0.0129002
0.00489598
0.000893586
8.73503e-05
1.00071e-08
1.00415e-08
5.73992e-08
1.4222e-05
0.000239215
3.13538e-06
1.00953e-06
1.51797e-08
6.1193e-07
1.16338e-05
0.000156789
0.00233355
0.0583572
0.550521
0.550666
0.596588
0.59673
0.640278
0.656336
0.033937
0.0442552
0.640635
0.576872
0.57754
0.656246
0.607647
0.607512
0.0307406
0.0244103
0.0152966
0.00559722
0.00104597
0.000121321
1.00079e-08
1.50304e-08
2.7077e-06
0.000252646
0.00280852
6.65668e-05
9.05048e-07
9.22303e-08
1.71045e-06
3.77811e-05
0.000686715
0.0270964
0.638637
0.638738
0.656034
0.656472
0.673662
0.674014
0.763931
0.763978
0.67296
0.583573
0.937953
0.581157
0.956782
0.0463575
0.0481504
0.414481
0.414549
0.493798
0.493817
0.672887
0.676038
0.676105
0.583058
0.941464
0.581468
0.954285
0.559
0.87571
0.547078
0.928157
0.558169
0.877944
0.547109
0.923743
0.0386581
0.0272256
0.0151758
0.0055051
0.00109991
0.000152523
1.01855e-08
4.18522e-07
7.50476e-05
0.00242126
0.0142012
0.0004755
0.000132017
3.37714e-06
5.74083e-06
0.000119815
0.0130898
0.632842
0.633193
0.647397
0.648081
0.823002
0.822932
0.84923
0.849185
0.972424
0.937677
0.601786
1.02918
0.629408
0.5263
0.941196
0.974637
0.602193
1.03002
0.629632
0.526765
1.18072
0.720291
1.15473
0.708787
1.18173
0.72045
1.15536
0.708871
0.609368
0.965166
0.596521
1.00711
0.553848
0.990921
0.547262
1.01998
0.0606954
0.0686188
0.229265
0.229341
0.285194
0.285235
0.442637
0.442726
0.551453
0.551642
0.609201
0.966611
0.596501
1.00617
0.615902
0.941128
0.591068
1.01986
0.616364
0.950299
0.592217
1.02264
0.553494
0.99585
0.548066
1.01858
0.540301
0.997449
0.539482
0.993829
0.0434332
0.0261597
0.0137074
0.00490834
0.00102624
0.00019783
3.53323e-08
1.53007e-05
0.00102348
0.012011
0.038249
0.00710367
0.00426156
0.000148315
2.49128e-05
0.00702952
0.646411
0.647128
0.64506
0.6466
0.82462
0.824559
0.828103
0.828239
1.24836
0.764096
1.2759
0.774363
1.25097
0.76449
1.28372
0.775584
1.2405
0.776238
1.28332
0.788089
1.24676
0.777196
1.29173
0.78945
0.962927
1.02984
0.598771
0.517371
1.11484
0.627931
0.967399
1.03193
0.518125
0.599159
1.11546
0.628109
1.27883
0.715738
1.23413
0.699729
1.28075
0.716069
1.23444
0.699798
0.577365
1.01533
0.560752
1.0609
0.54086
0.994882
0.532538
1.02763
0.0714694
0.102269
0.175901
0.175778
0.163911
0.163875
0.211782
0.211879
0.281385
0.281472
0.586953
0.355023
0.669857
0.396518
0.590573
0.355604
0.671877
0.396872
0.845156
0.959903
0.501435
0.79173
0.476425
0.554132
0.846212
0.9691
0.501648
0.792765
0.476634
0.55576
0.577382
1.01685
0.560933
1.06084
0.578717
1.05749
0.579593
1.06143
0.540437
0.99856
0.533311
1.02534
0.532824
1.01992
0.531931
1.01566
0.0421623
0.0233022
0.011852
0.00389725
0.000978283
0.00026383
1.57455e-06
0.000277595
0.00657661
0.0326398
0.0649122
0.062637
0.0192582
0.00264239
0.00133342
0.542803
0.544693
0.477267
0.477952
0.779813
0.779984
0.749186
0.750207
1.21953
0.762925
1.22781
0.764768
1.22635
0.763993
1.23455
0.76579
1.18401
0.757358
1.2126
0.763079
1.1921
0.758616
1.21922
0.764173
1.31946
0.747816
1.34031
0.756503
1.32295
0.748496
1.34895
0.75823
1.3123
0.740444
1.35598
0.761103
1.32034
0.742052
1.36425
0.762903
0.559622
1.02374
0.545569
1.05918
0.0685685
0.13314
0.248376
0.247908
0.192608
0.192149
0.157124
0.157255
0.147777
0.147922
0.216799
0.148528
0.270565
0.169859
0.224767
0.149027
0.280076
0.170844
0.415899
0.246685
0.359256
0.219228
0.422532
0.247686
0.367876
0.220375
0.590625
0.323429
0.696608
0.378237
0.595786
0.324353
0.699012
0.378725
0.974595
0.865647
0.486814
0.52863
0.821875
0.453555
0.982409
0.866708
0.487043
0.530221
0.823033
0.453797
0.55953
1.02423
0.545665
1.05803
0.552673
1.03387
0.55358
1.03766
0.0376947
0.0203354
0.00941305
0.002884
0.00109722
0.000365388
4.30857e-05
0.00233581
0.0234285
0.0536553
0.0779004
0.102369
0.0334907
0.0234892
0.0269062
0.646936
0.648423
0.617325
0.61797
0.788147
0.788474
0.760242
0.760738
1.26721
0.723803
1.269
0.7218
1.27531
0.72547
1.2762
0.723296
1.20208
0.707363
1.2438
0.713737
1.21101
0.709135
1.25114
0.7153
1.3083
0.726741
1.31694
0.728475
0.0606968
0.113649
0.349946
0.349798
0.300552
0.300102
0.212024
0.21141
0.175478
0.174863
0.121164
0.106121
0.124622
0.107356
0.119983
0.105482
0.125804
0.106333
0.154405
0.113484
0.145232
0.110418
0.160748
0.113533
0.149451
0.10998
0.204436
0.111744
0.262854
0.140904
0.212258
0.112798
0.272427
0.142459
0.424787
0.229162
0.356822
0.191035
0.433218
0.230687
0.366918
0.192767
0.0329405
0.0167538
0.0066256
0.0026579
0.0014569
0.000453747
0.000515047
0.0113911
0.0430195
0.0633853
0.0783843
0.0899074
0.126222
0.060337
0.459756
0.460019
0.474032
0.474439
0.656716
0.65718
0.610224
0.610759
0.685881
1.08562
0.687566
1.08693
0.68601
1.08722
0.688008
1.08716
0.669924
1.03875
0.654548
1.07492
0.670023
1.04248
0.655217
1.07469
1.27064
0.705951
1.26469
0.694811
1.27867
0.707699
1.27085
0.696262
1.19025
0.663316
1.22746
0.676607
1.1987
0.66512
1.23335
0.678057
0.0535243
0.0965755
0.202596
0.290791
0.290557
0.256914
0.256274
0.16082
0.159944
0.104775
0.1045
0.0966917
0.0910308
0.0939844
0.0778061
0.0963486
0.0909966
0.0941319
0.0777395
0.134298
0.0834168
0.112842
0.0777534
0.138263
0.0837826
0.114216
0.0777954
0.175967
0.0966952
0.182246
0.0977082
0.0268826
0.012175
0.00557937
0.00323272
0.00179947
0.000284645
0.00355845
0.0283623
0.0544128
0.064157
0.0773154
0.0919416
0.122784
0.0829358
0.60432
0.604164
0.595149
0.595009
0.943588
0.585682
0.58802
0.937975
0.947529
0.586408
0.58811
0.938284
0.635059
0.635077
0.64183
1.12715
0.655117
1.12445
0.641718
1.1292
0.655565
1.12319
0.625694
1.07566
0.602863
1.12378
0.625608
1.08031
0.6038
1.12276
1.17123
0.651792
1.17869
0.653337
0.0419762
0.0877231
0.155942
0.471979
0.471239
0.413069
0.411936
0.289509
0.288956
0.229126
0.227358
0.111503
0.213201
0.144522
0.143737
0.111517
0.20986
0.142644
0.144861
0.0883061
0.0742659
0.0782269
0.0975029
0.0888053
0.0748908
0.0783249
0.0990457
0.0590719
0.0578362
0.0588448
0.0504045
0.0598641
0.0577635
0.0597183
0.0504961
0.109485
0.0681004
0.081066
0.0564586
0.112081
0.068482
0.082131
0.0565986
0.0192679
0.00987198
0.00605918
0.00388014
0.00123575
0.0129637
0.0405164
0.0550677
0.0641176
0.0777882
0.0799551
0.106425
0.498549
0.498294
0.41422
0.414161
0.921906
0.561318
0.911728
0.571499
0.923764
0.561583
0.914254
0.571772
0.660507
0.660512
0.995237
0.553249
0.559788
0.981785
1.00034
0.554278
0.559959
0.982844
0.923155
0.56435
0.926927
0.563708
0.92496
0.564574
0.926308
0.563578
0.607043
1.05731
0.575364
1.11251
0.607232
1.06268
0.576421
1.11364
0.0281199
0.0652609
0.14746
0.272081
0.487899
0.486226
0.430018
0.427215
0.319723
0.318653
0.287702
0.184788
0.236913
0.35217
0.280688
0.182234
0.235396
0.346673
0.0954291
0.205205
0.130966
0.13406
0.0953771
0.202162
0.130247
0.13397
0.0699553
0.0586132
0.0539951
0.0846681
0.0700875
0.0589811
0.0540898
0.0851526
0.0474207
0.0463832
0.0481518
0.0465319
0.0147271
0.00977874
0.00665406
0.00284581
0.0248664
0.044512
0.0533433
0.0644218
0.0697821
0.0748792
0.149825
0.149758
0.158857
0.158843
0.523848
0.52354
0.276736
0.276755
0.977167
0.540913
0.968011
0.559515
0.979789
0.541454
0.97019
0.559933
0.590089
0.911209
0.573481
0.969759
0.590244
0.914218
0.573839
0.970478
0.992139
0.531626
0.533534
0.983387
0.994912
0.532362
0.533495
0.98293
0.982497
0.537688
0.979704
0.541403
0.985167
0.538172
0.979141
0.541317
0.0201635
0.0403719
0.10261
0.265911
0.562421
0.560454
0.618472
0.616163
0.56596
0.563706
0.609107
0.348058
0.702292
0.40999
0.600885
0.345697
0.69781
0.408346
0.552081
0.31878
0.449325
0.266907
0.374056
0.230723
0.548001
0.317502
0.450707
0.267186
0.368505
0.229519
0.295016
0.175752
0.289693
0.174597
0.0968372
0.198884
0.13085
0.127501
0.0970975
0.198485
0.130688
0.12872
0.0134265
0.00967851
0.00505491
0.0293663
0.0435337
0.0498231
0.058147
0.0620472
0.0819205
0.166373
0.166289
0.146548
0.146498
0.616421
0.924557
0.430203
0.554886
0.405888
0.530523
0.927332
0.618641
0.531007
0.430206
0.557798
0.405597
0.15461
0.162149
0.221737
0.195321
0.151172
0.160872
0.217115
0.194461
0.976047
0.525813
0.986687
0.541495
0.978529
0.526378
0.988437
0.541893
0.558489
1.00426
0.558713
1.00515
0.528819
0.984487
0.528732
0.983859
0.981998
0.528417
0.985078
0.528978
0.0171844
0.0270026
0.058606
0.167076
0.564273
0.563801
0.57895
0.578118
0.629594
0.625346
0.696559
0.69234
0.471803
0.927338
0.51625
0.864259
0.42177
0.788007
0.472014
0.917685
0.513069
0.865287
0.421753
0.78734
0.684943
0.377423
0.683534
0.377176
0.621663
0.350024
0.499316
0.393242
0.292084
0.234175
0.622924
0.350359
0.500063
0.389669
0.292273
0.233478
0.294926
0.179185
0.290602
0.178325
0.0126196
0.00781218
0.0334332
0.0354304
0.0412095
0.0454937
0.0562498
0.0778438
0.0777774
0.0583554
0.0583896
0.133361
0.133358
0.117424
0.117442
0.864769
0.549566
0.375366
0.491242
0.422336
0.313203
0.867118
0.552761
0.491633
0.3756
0.426987
0.313651
0.146551
0.124832
0.181379
0.158702
0.147265
0.125019
0.182283
0.159599
0.99242
0.539253
0.993935
0.539603
0.0154038
0.0216719
0.0368783
0.0880953
0.295458
0.59337
0.592319
0.58309
0.581465
0.930063
0.509095
1.02623
0.536375
0.918805
0.505316
1.01617
0.533705
1.09528
1.06555
0.58294
1.08694
0.571323
0.554013
1.08546
1.0573
0.58051
1.07515
0.56818
0.552194
0.510243
0.448747
0.955326
0.823491
0.510842
0.449262
0.957572
0.825476
0.730657
0.417963
0.732005
0.418298
0.646726
0.38363
0.435153
0.261966
0.651911
0.384461
0.432349
0.261516
0.0108748
0.0220117
0.0276233
0.0343354
0.0377921
0.041606
0.0589624
0.0585599
0.0494816
0.0494463
0.115617
0.168514
0.120441
0.159659
0.115839
0.169786
0.120756
0.160599
0.103228
0.103343
0.154188
0.12016
0.155853
0.131692
0.156542
0.120735
0.157039
0.132387
0.0141204
0.0184518
0.0278319
0.0526171
0.140998
0.512356
0.512227
0.692
0.690048
0.613604
0.61214
0.612335
0.610192
1.02234
0.522772
1.0887
0.555421
1.01638
0.521281
1.08516
0.554545
1.09659
1.13475
0.580917
0.610978
1.15237
0.59834
1.0912
1.1235
0.608717
0.579695
1.14168
0.595995
0.488983
0.86708
0.489686
0.870066
0.0128138
0.0252042
0.0289959
0.0347257
0.0691852
0.0688321
0.0687225
0.068394
0.0575595
0.057539
0.0508379
0.0507837
0.113434
0.176119
0.12447
0.15351
0.113469
0.176442
0.124579
0.153345
0.070709
0.0701333
0.107427
0.0915138
0.0712185
0.0702797
0.107728
0.0916187
0.185379
0.131694
0.186099
0.131913
0.0174067
0.0221187
0.0369271
0.0794297
0.241815
0.539197
0.538306
0.687053
0.684073
0.690507
0.687896
0.496045
0.926273
0.498549
0.859282
0.495934
0.92189
0.497595
0.859772
1.01085
0.526946
1.10566
0.574851
1.00857
0.52648
1.10272
0.574192
0.0119612
0.024096
0.0232169
0.031681
0.0932438
0.0932729
0.0491563
0.0471215
0.0763356
0.0689017
0.0614022
0.0815804
0.0583148
0.0748637
0.0767865
0.0690777
0.0614682
0.0813576
0.0582663
0.0748061
0.0999106
0.0997513
0.108689
0.16503
0.122883
0.137794
0.108723
0.165011
0.122897
0.137933
0.0983641
0.0823442
0.0986034
0.0824104
0.0205902
0.0269298
0.050681
0.12579
0.431495
0.430824
0.525684
0.524359
0.535548
0.534649
0.709157
0.704067
1.03494
0.578222
1.03872
0.549366
0.980983
0.520906
1.02407
0.574318
1.04214
0.550182
0.980162
0.520942
0.970063
0.516581
0.969847
0.516733
1.00357
0.534492
1.00609
0.534851
0.0125526
0.0183563
0.0184927
0.0252314
0.0247802
0.0306896
0.0305181
0.0723752
0.0714777
0.0350877
0.0333512
0.0897147
0.0685502
0.0766171
0.103102
0.0665874
0.108066
0.0904035
0.0687514
0.0763487
0.102026
0.0662857
0.105101
0.185872
0.112704
0.191098
0.100758
0.185246
0.111905
0.192185
0.10126
0.0235791
0.0335881
0.0713813
0.211199
0.456478
0.454707
0.53404
0.531208
0.616703
0.612609
1.13971
0.597787
0.551165
1.13433
0.604546
0.952252
0.548354
1.11911
0.60086
0.944146
1.13339
0.596317
1.05844
1.00352
0.557326
0.536653
1.06713
1.00856
0.55907
0.537981
0.975016
0.535739
0.976677
0.536364
0.00861168
0.0108992
0.0145762
0.0210384
0.0210171
0.0257771
0.0257226
0.123746
0.0737743
0.0440011
0.0526611
0.0406041
0.0432297
0.116232
0.073288
0.0472105
0.0451357
0.0400701
0.0417361
0.0288598
0.0287805
0.0870124
0.155509
0.0876777
0.156747
0.150677
0.0779962
0.149694
0.0781773
0.0263491
0.0422941
0.100828
0.369423
0.368519
0.437599
0.435814
0.441054
0.43863
0.534995
0.530643
0.778991
0.459597
0.940797
0.504281
1.07571
0.567483
0.769418
1.05939
0.563544
0.455668
0.932442
0.50268
1.15606
0.620821
1.13473
0.609673
1.11566
1.14433
0.606514
0.618869
0.00434738
0.00996019
0.0151152
0.0380183
0.0371759
0.0315599
0.0314457
0.0694089
0.0458858
0.0373791
0.0335813
0.0307709
0.0331578
0.0571756
0.0413085
0.0371857
0.0331279
0.0301223
0.0324788
0.0379285
0.077281
0.0308367
0.0449593
0.0371775
0.0711863
0.0312997
0.0424052
0.0955041
0.057019
0.0880835
0.0546411
0.0287617
0.0528332
0.140486
0.383205
0.381774
0.416285
0.413373
0.475651
0.470963
0.854153
0.454092
0.408172
0.804429
0.427888
0.674365
0.850266
0.452979
0.404589
0.793111
0.425155
0.664687
0.902931
1.032
0.487643
0.556833
1.01609
0.554197
0.902478
0.487616
0.00393905
0.00802756
0.0295038
0.0319433
0.0317726
0.0291228
0.0231352
0.0231519
0.0442883
0.0334768
0.0543057
0.0429081
0.0329939
0.0514617
0.0379739
0.0332336
0.031908
0.0346905
0.0313471
0.0322585
0.0338949
0.0295931
0.0309908
0.0343298
0.0312275
0.0308151
0.030134
0.0274559
0.031336
0.026884
0.030499
0.0641679
0.177885
0.363884
0.362188
0.409538
0.40552
0.567555
0.373052
0.696624
0.369859
0.77688
0.40447
0.556392
0.76331
0.400621
0.367165
0.689175
0.368009
0.848932
0.448237
0.8162
0.423657
0.845354
0.44755
0.804427
0.421356
0.869959
0.474247
0.875594
0.475216
0.00333081
0.00519324
0.0517777
0.0262127
0.050949
0.0259842
0.0226585
0.0226084
0.0412224
0.0323973
0.0457457
0.0354677
0.0546845
0.0416169
0.048987
0.0873757
0.0331429
0.0455882
0.0426254
0.0351185
0.0512835
0.040577
0.0493736
0.0817984
0.0278542
0.0288076
0.0273288
0.0281472
0.0273663
0.0242154
0.030893
0.0245843
0.0308997
0.0737102
0.281176
0.362515
0.360687
0.279353
0.354751
0.352631
0.4177
0.615777
0.358779
0.414041
0.606615
0.355317
0.762788
0.66552
0.39236
0.352549
0.754553
0.390712
0.662328
0.351809
0.842754
0.450476
0.812418
0.428404
0.835141
0.449314
0.802226
0.426733
0.00188268
0.00526966
0.0480956
0.0616592
0.0526691
0.0359404
0.0472293
0.0619898
0.0513263
0.0358075
0.020982
0.0212003
0.0342315
0.0372988
0.0297349
0.0272806
0.0285354
0.0271193
0.0388155
0.0352854
0.0389802
0.0290568
0.0303617
0.0275096
0.0252695
0.0265054
0.0265979
0.0302772
0.0288851
0.0862287
0.281599
0.349193
0.348021
0.278161
0.335136
0.331173
0.581183
0.623499
0.345624
0.623993
0.354015
0.324649
0.451941
0.334448
0.574001
0.61669
0.343631
0.614887
0.350875
0.323242
0.4466
0.33077
0.722429
0.653732
0.385323
0.355451
0.720183
0.38479
0.650381
0.354865
0.00144308
0.0311502
0.0290911
0.0290198
0.0307555
0.0251267
0.0248682
0.0500817
0.0629415
0.045649
0.0543596
0.0514967
0.111007
0.0401874
0.0611566
0.048098
0.0413337
0.0818966
0.0487345
0.063188
0.0440597
0.0536574
0.0500458
0.104774
0.039279
0.059513
0.0476234
0.0400957
0.0769711
0.0359163
0.0394201
0.0306577
0.0308647
0.0388703
0.0389331
0.0326026
0.0309895
0.0256941
0.0672858
0.229188
0.363814
0.309359
0.484845
0.362015
0.310481
0.487938
0.223472
0.319824
0.310856
0.603272
0.540369
0.63964
0.3387
0.360028
0.301551
0.598363
0.540118
0.636301
0.359685
0.338221
0.301673
0.68822
0.378775
0.687945
0.378683
0.00201256
0.0404297
0.0476183
0.0400187
0.0473145
0.042337
0.0419802
0.0371868
0.0336347
0.0331543
0.0317811
0.0319904
0.0361552
0.0539145
0.048793
0.0834978
0.0493116
0.0917228
0.0819577
0.0561442
0.121163
0.0366762
0.0326339
0.0320026
0.0324274
0.0302679
0.0345049
0.0479476
0.0513546
0.0813822
0.0478988
0.0874488
0.0792682
0.0545103
0.117032
0.0201228
0.0231644
0.201053
0.195142
0.0234813
0.07314
0.074312
0.416913
0.299915
0.506169
0.288916
0.488272
0.33867
0.502238
0.285042
0.402668
0.300623
0.510124
0.289182
0.492233
0.328852
0.49741
0.284218
0.318423
0.477409
0.306807
0.306998
0.45714
0.297639
0.574358
0.526494
0.336855
0.296874
0.571058
0.530611
0.336812
0.297792
0.00282977
0.0482554
0.0904653
0.0484461
0.0693686
0.0480057
0.0911676
0.0484149
0.069118
0.059904
0.059707
0.0306205
0.0303591
0.0405721
0.0432115
0.0433642
0.0458004
0.0425541
0.0462239
0.0484967
0.04589
0.0288288
0.029477
0.0382417
0.0414577
0.0402471
0.0413885
0.0447331
0.0454093
0.0464624
0.0451967
0.0228586
0.0395219
0.130058
0.125013
0.0407107
0.0654587
0.065863
0.515685
0.50128
0.290117
0.27797
0.482758
0.265499
0.521789
0.504277
0.291315
0.27853
0.476252
0.263933
0.399095
0.497072
0.272609
0.493621
0.291517
0.245021
0.263512
0.309022
0.369449
0.473302
0.266264
0.47025
0.283133
0.235672
0.245836
0.294918
0.0229092
0.0608702
0.0609177
0.0615555
0.101032
0.0569573
0.109601
0.0525929
0.0701957
0.0614588
0.10331
0.0559691
0.107061
0.0533416
0.0701248
0.0387647
0.0361332
0.0455489
0.0422621
0.0347472
0.0444788
0.0361193
0.0346834
0.046186
0.0412931
0.0341566
0.0448766
0.0305129
0.0321575
0.130199
0.235807
0.22349
0.125671
0.23293
0.212059
0.0337843
0.0516685
0.0546873
0.49606
0.279845
0.482062
0.272108
0.495855
0.279768
0.469663
0.269784
0.464144
0.309717
0.480859
0.25209
0.277793
0.184361
0.43464
0.280524
0.463243
0.275047
0.246285
0.177754
0.0036086
0.0524518
0.0462389
0.0526902
0.0467687
0.0615511
0.112036
0.0681041
0.115229
0.0676162
0.0526646
0.0501122
0.0449315
0.0616077
0.11426
0.0670108
0.112767
0.0688138
0.0508769
0.0488515
0.0450916
0.0353741
0.0343044
0.0353721
0.0344175
0.0415326
0.0383577
0.0390568
0.116054
0.244719
0.219511
0.248164
0.214511
0.114948
0.238234
0.204876
0.236825
0.201649
0.0537149
0.0552003
0.40068
0.476065
0.276697
0.236325
0.281742
0.171037
0.367534
0.452086
0.248403
0.278685
0.230991
0.165421
0.00262502
0.0479265
0.0653034
0.0482164
0.0654537
0.0273014
0.0274177
0.0461958
0.108356
0.0719038
0.107627
0.0685957
0.0556814
0.0658633
0.0584951
0.0652279
0.0405623
0.0384559
0.0462128
0.111823
0.0729478
0.108716
0.0706204
0.0567324
0.0636562
0.0569691
0.0678613
0.0388716
0.0378002
0.0617646
0.0433001
0.0559775
0.0438347
0.0563461
0.112629
0.224056
0.209085
0.237023
0.189672
0.243013
0.16267
0.112241
0.227763
0.200841
0.231338
0.192272
0.224276
0.159277
0.0578116
0.0586817
0.336087
0.211584
0.302552
0.207104
0.00223201
0.073276
0.0755065
0.0735079
0.0754298
0.0501256
0.0763649
0.0502723
0.076456
0.0313732
0.0312835
0.0935851
0.062197
0.100774
0.0540769
0.0539295
0.0660078
0.0599232
0.0615631
0.048383
0.0528979
0.0467371
0.055943
0.0952659
0.0624335
0.100816
0.0547658
0.0561884
0.0684162
0.0616182
0.0657961
0.048703
0.0500015
0.0455516
0.0571139
0.0692473
0.0817328
0.102687
0.0821641
0.102455
0.0626388
0.0635724
0.107823
0.216017
0.197728
0.215044
0.186338
0.168935
0.229036
0.163542
0.218173
0.275597
0.19729
0.108325
0.218312
0.19398
0.210552
0.189634
0.168756
0.21795
0.162099
0.215585
0.24967
0.194882
0.000765099
0.0596161
0.0390729
0.0595427
0.0388119
0.0929358
0.0998856
0.0929728
0.0996463
0.0470899
0.0653348
0.0470125
0.0655956
0.0828734
0.0425514
0.0782299
0.0423818
0.084583
0.0431952
0.0794318
0.0431703
0.0519084
0.0591161
0.0559435
0.0516031
0.0530665
0.0599367
0.0566605
0.0528948
0.0562381
0.121588
0.123439
0.121199
0.12331
0.109232
0.152601
0.109033
0.151016
0.0979024
0.0989225
0.209726
0.197888
0.213038
0.173551
0.166873
0.213973
0.161165
0.212402
0.206934
0.23111
0.196586
0.227787
0.215774
0.195813
0.210136
0.18094
0.167001
0.215696
0.161311
0.213183
0.208304
0.218571
0.197061
0.223375
0.00459462
0.00151493
0.076583
0.0509047
0.0763113
0.0504159
0.0894332
0.1033
0.0896299
0.103124
0.106034
0.0556581
0.0985727
0.0566148
0.110749
0.0791327
0.106238
0.0697376
0.109681
0.0571813
0.101407
0.0583959
0.113825
0.0795034
0.106414
0.0716219
0.0515008
0.0488765
0.0546414
0.0457774