/*--------------------------------*- C++ -*----------------------------------*\
| =========                 |                                                 |
| \\      /  F ield         | OpenFOAM: The Open Source CFD Toolbox           |
|  \\    /   O peration     | Version:  5.x                                   |
|   \\  /    A nd           | Web:      www.OpenFOAM.org                      |
|    \\/     M anipulation  |                                                 |
\*---------------------------------------------------------------------------*/
FoamFile
{
    version     2.0;
    format      ascii;
    class       surfaceScalarField;
    location    "1.7";
    object      meshPhi;
}
// * * * * * * * * * * * * * * * * * * * * * * * * * * * * * * * * * * * * * //

dimensions      [0 3 -1 0 0 0 0];

internalField   nonuniform List<scalar> 
30582
(
0
0
0
0
0
0
0
0
0
0
0
0
0
0
0
0
0
0
0
0
0
0
0
0
0
0
0
0
0
0
0
0
0
0
0
0
0
0
0
0
0
0
0
0
0
0
0
0
0
0
0
0
0
0
0
0
0
0
0
0
0
0
0
0
0
0
0
0
0
0
0
0
0
0
0
0
0
0
0
0
0
0
0
0
0
0
0
0
0
0
0
0
0
0
0
0
0
0
0
0
0
0
0
0
0
0
0
0
0
0
0
0
0
0
0
0
0
0
0
0
0
0
0
0
0
0
0
0
0
0
0
0
0
0
0
0
0
0
0
0
0
0
0
0
0
0
0
0
0
0
0
0
0
0
0
0
0
0
0
0
0
0
0
0
0
0
0
0
0
0
0
0
0
0
0
0
0
0
0
0
0
0
0
0
0
0
0
0
0
0
0
0
0
0
0
0
0
0
0
0
0
0
0
0
0
0
0
0
0
0
0
0
0
0
0
0
0
0
0
0
0
0
0
0
0
0
0
0
0
0
0
0
0
0
0
0
0
0
0
0
0
0
0
0
0
0
0
0
0
0
0
0
0
0
0
0
0
0
0
0
0
0
0
0
0
0
0
0
0
0
0
0
0
0
0
0
0
0
0
0
0
0
0
0
0
0
0
0
0
0
0
0
0
0
0
0
0
0
0
0
0
0
0
0
0
0
0
0
0
0
0
0
0
0
0
0
0
0
0
0
0
0
0
0
0
0
0
0
0
0
0
0
0
0
0
0
0
0
0
0
0
0
0
0
0
0
0
0
0
0
0
0
0
0
0
0
0
0
0
0
0
0
0
0
0
0
0
0
0
0
0
0
0
0
0
0
0
0
0
0
0
0
0
0
0
0
0
0
0
0
0
0
0
0
0
0
0
0
0
0
0
0
0
0
0
0
0
0
0
0
0
0
0
0
0
0
0
0
0
0
0
0
0
0
0
0
0
0
0
0
0
0
0
0
0
0
0
0
0
0
0
0
0
0
0
0
0
0
0
0
0
0
0
0
0
0
0
0
0
0
0
0
0
0
0
0
0
0
0
0
0
0
0
0
0
0
0
0
0
0
0
0
0
0
0
0
0
0
0
0
0
0
0
0
0
0
0
0
0
0
0
0
0
0
0
0
0
0
0
0
0
0
0
0
0
0
0
0
0
0
0
0
0
0
0
0
0
0
0
0
0
0
0
0
0
0
0
0
0
0
0
0
0
0
0
0
0
0
0
0
0
0
0
0
0
0
0
0
0
0
0
0
0
0
0
0
0
0
0
0
0
0
0
0
0
0
0
0
0
0
0
0
0
0
0
0
0
0
0
0
0
0
0
0
0
0
0
0
0
0
0
0
0
0
0
0
0
0
0
0
0
0
0
0
0
0
0
0
0
0
0
0
0
0
0
0
0
0
0
0
0
0
0
0
0
0
0
0
0
0
0
0
0
0
0
0
0
0
0
0
0
0
0
0
0
0
0
0
0
0
0
0
0
0
0
0
0
0
0
0
0
0
0
0
0
0
0
0
0
0
0
0
0
0
0
0
0
0
0
0
0
0
0
0
0
0
0
0
0
0
0
0
0
0
0
0
0
0
0
0
0
0
0
0
0
0
0
0
0
0
0
0
0
0
0
0
0
0
0
0
0
0
0
0
0
0
0
0
0
0
0
0
0
0
0
0
0
0
0
0
0
0
0
0
0
0
0
0
0
0
0
0
0
0
0
0
0
0
0
0
0
0
0
0
0
0
0
0
0
0
0
0
0
0
0
0
0
0
0
0
0
0
0
0
0
0
0
0
0
0
0
0
0
0
0
0
0
0
0
0
0
0
0
0
0
0
0
0
0
0
0
0
0
0
0
0
0
0
0
0
0
0
0
0
0
0
0
0
0
0
0
0
0
0
0
0
0
0
0
0
0
0
0
0
0
0
0
0
0
0
0
0
0
0
0
0
0
0
0
0
0
0
0
0
0
0
0
0
0
0
0
0
0
0
0
0
0
0
0
0
0
0
0
0
0
0
0
0
0
0
0
0
0
0
0
0
0
0
0
0
0
0
0
0
0
0
0
0
0
0
0
0
0
0
0
0
0
0
0
0
0
0
0
0
0
0
0
0
0
0
0
0
0
0
0
0
0
0
0
0
0
0
0
0
0
0
0
0
0
0
0
0
0
0
0
0
0
0
0
0
0
0
0
0
0
0
0
0
0
0
0
0
0
0
0
0
0
0
0
0
0
0
0
0
0
0
0
0
0
0
0
0
0
0
0
0
0
0
0
0
0
0
0
0
0
0
0
0
0
0
0
0
0
0
0
0
0
0
0
0
0
0
0
0
0
0
0
0
0
0
0
0
0
0
0
0
0
0
0
0
0
0
0
0
0
0
0
0
0
0
0
0
0
0
0
0
0
0
0
0
0
0
0
0
0
0
0
0
0
0
0
0
0
0
0
0
0
0
0
0
0
0
0
0
0
0
0
0
0
0
0
0
0
0
0
0
0
0
0
0
0
0
0
0
0
0
0
0
0
0
0
0
0
0
0
0
0
0
0
0
0
0
0
0
0
0
0
0
0
0
0
0
0
0
0
0
0
0
0
0
0
0
0
0
0
0
0
0
0
0
0
0
0
0
0
0
0
0
0
0
0
0
0
0
0
0
0
0
0
0
0
0
0
0
0
0
0
0
0
0
0
0
0
0
0
0
0
0
0
0
0
0
0
0
0
0
0
0
0
0
0
0
0
0
0
0
0
0
0
0
0
0
0
0
0
0
0
0
0
0
0
0
0
0
0
0
0
0
0
0
0
0
0
0
0
0
0
0
0
0
0
0
0
0
0
0
0
0
0
0
0
0
0
0
0
0
0
0
0
0
0
0
0
0
0
0
0
0
0
0
0
0
0
0
0
0
0
0
0
0
0
0
0
0
0
0
0
0
0
0
0
0
0
0
0
0
0
0
0
0
0
0
0
0
0
0
0
0
0
0
0
0
0
0
0
0
0
0
0
0
0
0
0
0
0
0
0
0
0
0
0
0
0
0
0
0
0
0
0
0
0
0
0
0
0
0
0
0
0
0
0
0
0
0
0
0
0
0
0
0
0
0
0
0
0
0
0
0
0
0
0
0
0
0
0
0
0
0
0
0
0
0
0
0
0
0
0
0
0
0
0
0
0
0
0
0
0
0
0
0
0
0
0
0
0
0
0
0
0
0
0
0
0
0
0
0
0
0
0
0
0
0
0
0
0
0
0
0
0
0
0
0
0
0
0
0
0
0
0
0
0
0
0
0
0
0
0
0
0
0
0
0
0
0
0
0
0
0
0
0
0
0
0
0
0
0
0
0
0
0
0
0
0
0
0
0
0
0
0
0
0
-2.19962e-18
7.75765e-18
-3.14761e-25
2.32701e-17
1.16328e-17
1.55227e-17
0
0
0
0
0
0
0
0
0
0
0
0
0
0
0
0
0
0
0
0
0
0
0
0
0
0
0
0
0
0
0
0
0
0
0
0
0
0
3.86969e-18
1.21826e-34
-5.64471e-19
8.96867e-26
1.93741e-17
-1.55132e-17
-2.16272e-18
2.32701e-17
-3.8778e-18
2.3277e-17
-1.12262e-18
-2.45915e-25
-3.87512e-17
2.80893e-34
-1.66242e-18
2.32578e-17
5.62151e-18
-3.87631e-17
0
0
0
0
0
0
0
0
0
0
0
0
0
0
0
0
0
0
0
0
0
0
0
0
0
0
0
0
0
0
0
0
0
0
0
0
0
6.44649e-19
-3.33911e-18
2.4503e-17
-2.72367e-20
-4.63715e-17
-1.54432e-17
3.09769e-17
-1.01709e-35
-1.10623e-18
1.16245e-17
1.41226e-33
-5.70615e-19
1.56799e-25
1.93284e-17
0
6.5877e-17
-6.48308e-21
-3.10009e-17
-1.73169e-35
5.42036e-19
2.32578e-17
5.62151e-18
-2.32587e-17
-3.4978e-20
2.46739e-24
-2.31982e-17
2.16513e-34
-5.09025e-21
-3.09283e-17
0
0
0
0
0
0
0
0
0
0
0
0
0
0
0
0
0
0
0
0
0
0
0
0
0
0
0
0
0
0
0
0
0
0
0
1.2171e-17
2.3196e-17
1.54407e-17
3.90962e-18
3.96207e-20
1.82404e-34
6.97945e-20
4.18344e-20
2.70755e-17
8.90632e-18
-2.13727e-18
-1.52529e-17
-1.40529e-34
1.86458e-19
1.15586e-17
-2.08332e-18
-1.54127e-17
8.34161e-35
6.11493e-20
-3.86965e-18
0
3.31698e-19
6.73998e-24
6.73658e-18
-1.1542e-17
8.65904e-18
-1.15584e-17
0
0
1.61069e-18
-3.30972e-18
1.58245e-17
9.86619e-21
2.32402e-17
7.69896e-18
-4.63715e-17
-6.9956e-20
-3.0931e-17
-1.76098e-34
-7.73713e-18
-6.18879e-17
0
-3.13667e-24
1.73271e-17
-1.92306e-18
1.73155e-17
-3.86016e-18
0
-7.72272e-18
1.99402e-18
-7.78511e-18
7.71939e-18
-9.65518e-18
7.77389e-18
-9.75635e-18
1.93789e-18
0
0
0
0
0
0
0
0
0
0
0
0
0
0
0
0
0
0
0
0
0
0
0
0
0
0
0
0
0
0
0
0
0
-1.0675e-17
1.94074e-17
-1.54929e-17
1.16307e-17
7.85193e-18
-6.10637e-35
-3.3387e-18
2.31703e-17
2.10884e-18
-3.0825e-17
-2.28718e-34
7.85976e-18
1.16488e-17
0
-3.11337e-17
7.93842e-36
-1.65366e-11
-4.45198e-12
-1.65408e-09
6.65265e-14
-2.44383e-13
1.29767e-08
1.89359e-13
1.31339e-08
-1.15319e-10
7.02739e-19
-1.35803e-19
4.43957e-19
1.36399e-19
-3.9231e-18
1.50323e-17
9.8563e-19
9.31027e-18
1.79204e-18
2.90052e-34
-3.97956e-16
7.67688e-13
1.28387e-08
-1.02422e-14
2.5911e-08
5.42529e-19
9.41335e-19
2.10776e-17
3.84087e-18
2.68805e-17
0
-3.00438e-19
8.6673e-18
-3.8504e-18
1.25038e-17
-7.69753e-18
6.30352e-19
6.44322e-20
0
-4.01853e-19
6.7149e-18
0
6.49462e-19
1.95491e-23
-5.74541e-18
0
3.21541e-22
-7.1485e-16
7.52036e-19
-7.66734e-18
0
0
-3.16583e-17
3.90974e-18
7.82037e-18
-1.34074e-20
1.54407e-17
0
1.10989e-18
1.01151e-18
3.85102e-18
-5.563e-18
-2.08323e-18
-1.65756e-33
0
1.26322e-22
1.15676e-17
-2.22127e-18
-7.69066e-18
-6.40385e-20
1.05863e-17
-3.84669e-18
6.73548e-18
-3.85508e-18
0
-7.71635e-18
3.924e-18
-1.16441e-17
7.71466e-18
-1.15761e-17
9.71293e-18
-9.73752e-18
3.86224e-18
9.54877e-19
6.434e-20
-1.09595e-18
6.70487e-18
0
6.41002e-20
-6.71613e-26
-6.70781e-18
-7.4642e-26
4.7914e-18
0
1.32845e-21
-1.09043e-18
0
0
1.53283e-17
2.04196e-25
-1.03743e-18
7.67686e-13
0
1.08559e-10
-1.14589e-17
-7.8389e-19
1.28055e-19
1.33919e-17
6.36408e-20
-1.03699e-18
-7.72157e-18
2.90603e-17
-7.66884e-18
0
0
0
0
0
0
0
0
0
0
0
0
0
0
0
0
0
0
0
0
0
0
0
0
0
0
0
0
0
0
0
4.31501e-18
1.3485e-20
-7.7156e-18
7.86027e-18
-7.82344e-18
-1.95007e-35
-9.77509e-19
-1.16784e-17
1.08662e-17
-3.09884e-17
-2.74538e-35
-7.60582e-20
3.85339e-18
8.96465e-18
-1.54512e-17
8.59323e-26
3.72495e-09
-2.7637e-12
1.16398e-08
6.42084e-11
1.27674e-08
8.14408e-09
-3.79054e-18
1.55054e-17
1.21658e-12
-9.33131e-11
-2.98605e-27
-3.62969e-09
3.03538e-10
1.17124e-09
-1.08271e-10
3.73427e-10
-7.93463e-09
-1.12062e-12
-5.80577e-10
-9.89478e-13
1.90177e-10
0
2.23474e-19
-8.62011e-19
-7.83041e-13
6.27551e-20
-1.79129e-13
-1.13879e-13
2.74469e-16
-9.51838e-35
-1.3825e-08
-3.95974e-16
5.25367e-20
4.14553e-13
1.54488e-17
-2.67243e-34
-7.2994e-11
-3.83599e-18
0
1.68287e-09
1.27446e-08
6.27184e-20
-3.8364e-19
-7.77963e-18
0
4.83765e-19
-6.02038e-20
8.40109e-18
-1.02492e-18
3.19709e-18
4.88333e-19
-5.25074e-20
-1.39895e-19
1.15828e-17
-9.46666e-19
-1.83295e-17
3.98086e-19
1.34827e-17
-1.12209e-19
-4.09435e-13
5.52739e-12
1.02359e-12
3.65422e-11
9.0787e-35
1.5282e-08
-1.61742e-09
0
1.54198e-17
-3.39657e-35
-1.25512e-17
0
4.15817e-19
1.09405e-18
3.76124e-18
-7.75319e-19
-8.98671e-18
3.23912e-18
5.42554e-20
7.70106e-18
-1.44721e-17
5.26839e-19
6.44323e-20
0
-8.05471e-19
8.63839e-18
1.28396e-19
5.7877e-19
-7.66085e-18
0
-7.09097e-16
4.25854e-19
-1.5368e-17
-1.74668e-09
-6.45841e-20
0
1.64596e-09
1.98292e-11
6.3669e-20
9.21235e-14
4.24759e-22
-2.45109e-13
0
2.27363e-21
1.28705e-08
6.14167e-14
-1.28007e-14
0
0
-1.0675e-17
1.16954e-17
-7.72124e-18
-3.91442e-18
-7.69293e-18
3.63257e-34
3.20706e-18
1.05078e-18
7.81038e-18
-2.28444e-18
8.5132e-20
0
-4.33255e-34
3.89442e-18
0
0
9.35702e-17
1.42803e-08
-3.07077e-12
1.37727e-08
-7.6778e-18
-2.73076e-15
-1.90639e-18
5.42463e-19
-7.60148e-18
9.71031e-18
-3.84075e-18
2.11164e-17
0
-1.57377e-12
-1.14099e-10
5.62854e-14
-9.9928e-13
1.35255e-08
-9.9432e-18
-4.27639e-15
-1.79881e-09
8.06304e-22
1.83159e-18
-9.55363e-19
2.56263e-20
3.28893e-17
-4.81931e-18
3.09974e-17
3.07134e-18
7.80755e-19
6.43403e-20
-1.11266e-18
2.01648e-17
6.40834e-20
6.41035e-20
-9.58248e-19
1.1499e-17
-1.84996e-36
-1.92281e-18
-7.84039e-19
1.28236e-19
0
1.91692e-17
1.27576e-19
-1.15478e-18
4.19657e-13
0
1.31081e-08
-1.33983e-17
-1.01852e-18
6.40264e-20
2.20467e-17
0
-1.12681e-18
-1.92062e-18
1.34578e-17
7.69583e-34
5.13075e-19
-1.29127e-19
-2.24109e-18
2.11591e-17
0
2.333e-19
-1.73169e-24
-7.91602e-22
-7.9992e-24
3.81398e-17
7.86941e-20
-1.92248e-18
-6.41132e-20
0
-1.28298e-08
-1.24113e-13
-6.40915e-20
7.51638e-18
-2.83267e-18
0
0
0
0
0
0
0
0
0
0
0
0
0
0
0
0
0
0
0
0
0
0
0
0
0
0
0
0
0
-1.32378e-17
1.94242e-17
-1.8138e-20
-3.86182e-18
-3.67086e-20
-6.92661e-34
-1.92979e-18
1.54144e-17
1.74879e-17
-1.53729e-17
-1.06328e-33
4.60821e-18
-1.55459e-17
4.60964e-18
-1.52351e-17
-3.0653e-26
-3.55757e-09
1.24834e-10
-1.31361e-08
-3.18921e-09
-1.31399e-08
-7.77811e-09
7.23977e-13
-2.42927e-10
-6.39748e-13
6.37037e-09
-9.33893e-27
5.26733e-11
-3.29285e-09
1.31922e-08
-3.23452e-09
1.30727e-08
1.11869e-10
3.16673e-13
6.59498e-09
5.91761e-13
6.46369e-09
5.82861e-20
4.96441e-12
-1.02358e-12
1.58946e-08
-8.65243e-35
-1.61612e-09
6.0392e-20
-4.05467e-09
2.4792e-17
1.19578e-26
-1.44049e-12
-1.71478e-17
0
-2.80479e-18
3.9516e-18
5.23464e-19
-1.01356e-17
-6.03176e-20
1.53006e-12
9.52933e-18
8.10836e-09
-2.76073e-17
-1.55263e-24
-5.52739e-12
3.84034e-09
1.17102e-17
-1.57981e-08
1.18646e-26
1.43469e-12
-1.40557e-15
1.23961e-19
1.95846e-17
-1.12499e-26
-9.74821e-18
-1.22041e-19
-1.18694e-18
-1.43409e-12
6.93714e-18
5.70093e-18
-7.67953e-09
5.20946e-18
6.19192e-20
1.17507e-17
-1.55789e-17
-2.646e-24
3.58257e-13
-3.10614e-25
-2.12673e-18
-6.78166e-17
-6.23938e-35
1.02824e-34
2.18731e-09
-4.37078e-20
5.11788e-14
-3.66584e-34
-6.92174e-09
-1.13909e-33
4.20297e-20
-2.48775e-34
-6.46966e-19
-9.1056e-19
1.59895e-18
-2.1869e-20
-3.84225e-19
1.52615e-19
4.26513e-25
7.33001e-19
2.06729e-19
-1.00662e-18
-1.09495e-35
2.30779e-16
2.84579e-20
-3.68308e-34
-3.35621e-34
1.09026e-19
-6.19738e-19
-9.83939e-19
-1.82591e-18
0
6.43223e-11
-6.45809e-20
0
1.70086e-09
-1.2989e-08
-1.49724e-24
6.06516e-19
1.07947e-14
0
-1.28823e-08
2.55909e-14
-1.2156e-13
-9.6116e-10
3.53445e-20
6.1861e-34
1.08152e-09
-3.34649e-20
-9.21233e-14
-2.3772e-21
2.90088e-34
-4.09151e-21
-6.14153e-14
0
0
4.49659e-18
7.82211e-18
-1.0419e-32
-7.72851e-18
-7.74215e-18
1.12333e-35
6.66489e-18
-3.06196e-19
3.83491e-18
-1.07921e-17
9.11954e-18
-4.63924e-17
9.81534e-36
3.81557e-18
-3.09364e-17
1.30945e-26
-3.7249e-09
-3.62974e-09
3.06966e-10
1.44788e-08
-1.10952e-10
1.34932e-08
-8.14417e-09
-7.93463e-09
-1.1622e-12
-5.80558e-10
-9.87339e-13
1.90196e-10
-3.76811e-25
-9.46824e-13
2.5605e-08
6.40299e-11
1.27675e-08
-2.84277e-18
1.1629e-17
1.22084e-12
-9.32747e-11
-5.61134e-20
6.10592e-19
-5.489e-12
-3.58261e-13
-1.97821e-16
0
-1.52817e-08
-1.27036e-08
0
6.93038e-19
1.35073e-17
0
-1.02129e-16
-1.15173e-17
5.6071e-20
2.67221e-19
5.57995e-19
2.98407e-20
3.91555e-19
-3.84151e-18
4.89569e-18
-5.42491e-20
5.43224e-19
5.77156e-18
-7.41395e-19
-1.82794e-17
-3.48892e-24
-8.63971e-19
-5.24591e-13
-7.83037e-13
6.27525e-20
1.17712e-13
1.93196e-13
2.05662e-17
0
-1.3825e-08
-2.81983e-09
0
1.92251e-17
0
-1.63443e-17
0
-1.98222e-10
2.66053e-08
-5.48402e-20
-4.56257e-19
3.12487e-19
-1.98996e-19
6.27186e-20
-2.38053e-19
-3.88463e-18
4.10704e-19
-3.54655e-18
3.197e-18
5.25071e-20
7.71696e-18
-8.59747e-18
3.48329e-19
2.51162e-17
1.08159e-18
-6.45625e-20
-2.66035e-18
2.69255e-17
1.62223e-33
1.27017e-19
-1.90665e-18
2.09808e-17
-1.81573e-19
-8.79268e-22
-6.4111e-20
0
1.29164e-08
3.18593e-13
-6.40924e-20
2.26939e-17
-2.84068e-18
-3.35598e-19
-3.532e-20
-4.31704e-19
-3.34445e-20
8.28672e-20
-4.33522e-24
2.42708e-23
-4.34129e-20
3.81801e-20
1.32711e-34
-3.81672e-20
0
0
0
0
0
0
0
0
0
0
0
0
0
0
0
0
0
0
0
0
0
0
0
0
0
0
0
0
5.81852e-17
6.4178e-34
6.74458e-18
-7.78639e-18
2.18059e-17
-7.66498e-18
2.91275e-33
6.49447e-18
3.83198e-18
-1.32322e-17
-2.32398e-17
-3.81525e-25
-4.56293e-18
3.055e-09
2.18893e-17
6.6858e-09
-4.81059e-34
-1.09762e-17
1.93329e-17
2.26955e-17
-3.86666e-17
5.93504e-20
-1.94482e-12
-8.8988e-18
-2.05767e-10
0
-1.41561e-15
-6.02261e-20
3.89303e-09
-1.92549e-17
0
1.95122e-12
7.71126e-18
1.18603e-19
-5.85491e-19
-2.90845e-18
-6.12229e-18
1.72912e-17
-6.01597e-20
-1.31147e-12
-1.28251e-20
-7.78354e-09
1.44528e-17
0
-2.61016e-12
-8.30692e-11
1.99599e-12
-3.57553e-10
0
3.55532e-10
1.31941e-08
-6.10618e-20
-1.92719e-17
0
6.71011e-18
-6.12979e-20
-1.91853e-18
4.35028e-13
-7.74476e-18
2.21657e-18
1.76243e-10
2.12386e-17
-6.10019e-20
-9.63156e-18
1.44294e-17
-3.27262e-20
2.55895e-13
3.49556e-11
-1.05272e-34
3.69826e-20
2.55895e-13
-2.98453e-34
-8.38896e-11
3.27401e-20
-6.69202e-19
1.38247e-18
-3.70033e-20
-8.12054e-19
2.14952e-18
5.84699e-20
-3.80147e-18
6.93445e-19
9.86272e-18
-6.02256e-16
-9.79048e-35
1.88259e-16
3.22964e-15
-1.42068e-24
-4.32007e-34
5.8473e-20
1.09818e-19
-5.38364e-19
1.06796e-18
5.19458e-18
-1.07672e-18
-2.97964e-17
-4.76634e-20
6.52705e-11
-7.06892e-20
4.18479e-34
9.39074e-10
3.34636e-20
-5.50179e-14
1.91461e-34
-2.55896e-14
0
0
2.18496e-17
-3.87087e-18
-7.77597e-18
-1.16036e-17
1.55275e-17
-7.14397e-35
1.92979e-18
8.98984e-18
-7.1311e-20
-1.3173e-17
-5.20948e-32
-3.09008e-17
-4.86405e-34
7.64431e-18
-3.08712e-17
4.14465e-27
3.55773e-09
-1.23555e-17
-4.47181e-12
-1.31925e-08
-3.22812e-09
-1.30739e-08
7.77829e-09
1.53572e-17
-3.88018e-18
1.16338e-17
5.62968e-13
6.46382e-09
3.0653e-26
1.24683e-10
-1.3136e-08
-3.18938e-09
-1.314e-08
7.27168e-13
-2.42898e-10
-6.39746e-13
6.37037e-09
6.10851e-20
-7.06278e-12
3.84027e-09
1.38109e-17
-1.60519e-08
0
1.43469e-12
-1.41352e-15
6.19779e-20
4.05452e-09
2.15718e-17
0
1.39677e-12
-4.00701e-18
0
-1.24289e-18
-1.43409e-12
7.1138e-18
8.29345e-18
-7.67953e-09
1.21563e-18
0
-1.48634e-12
7.89324e-18
-8.10836e-09
-1.56832e-17
5.82863e-20
5.16913e-12
3.58256e-13
1.58946e-08
0
-1.27422e-08
6.03872e-20
1.15895e-17
0
-8.63631e-18
-5.32392e-34
-1.7459e-18
-1.76672e-18
5.93864e-19
1.03146e-17
6.0318e-20
5.7574e-18
-1.81529e-17
6.04772e-20
5.11798e-14
1.67613e-12
-7.83705e-09
0
8.3717e-09
-2.84397e-20
-1.17712e-13
0
6.19507e-09
-2.31434e-33
-7.31866e-20
-8.37905e-21
5.33219e-19
-9.13143e-19
0
3.84248e-19
-1.61049e-18
-4.68662e-20
1.08757e-13
-3.10615e-25
-2.2196e-18
-6.64034e-17
0
2.34578e-34
1.13207e-09
-4.36974e-20
0
4.68478e-20
9.83173e-20
-2.51107e-34
-2.30485e-19
2.98762e-18
-6.85453e-19
0
6.33897e-19
0
-1.0371e-18
-3.34461e-20
-9.72906e-21
-4.46026e-20
3.81811e-20
3.05104e-34
0
0
0
0
0
0
0
0
0
0
0
0
0
0
0
0
0
0
0
0
0
0
0
0
0
0
0
0
2.29939e-18
-7.89316e-35
-1.72784e-17
-1.5521e-17
-3.10125e-17
-6.16522e-22
-1.55104e-17
-2.2907e-33
-2.2558e-18
3.90072e-18
8.21357e-18
-2.30589e-17
-1.62098e-33
7.76769e-18
-3.09634e-17
0
-2.21028e-18
-8.18876e-13
-3.71143e-10
1.16649e-17
-1.36419e-17
-6.94271e-16
-5.73704e-18
-9.00083e-19
-2.32229e-18
1.22293e-17
1.35602e-17
-5.76188e-18
1.72518e-17
-2.61077e-20
0
9.33679e-19
2.80888e-18
-1.35998e-17
6.67044e-18
-1.5459e-17
1.09509e-17
8.66226e-18
5.84457e-18
1.6397e-17
0
-5.62746e-20
-1.65999e-19
-8.50407e-18
-2.58721e-18
0
3.84532e-17
0
5.61968e-18
-1.3355e-17
0
-4.8756e-18
1.14095e-17
0
-1.12509e-18
9.52825e-19
-1.08605e-18
1.03241e-17
-5.93511e-20
5.37442e-19
-1.84451e-18
-5.71201e-18
1.82082e-17
-6.21471e-20
-7.0328e-18
-5.27117e-18
4.30048e-18
0
-6.65725e-16
7.09531e-34
-3.7616e-18
0
2.82122e-18
-5.53317e-34
1.42925e-18
3.98585e-18
6.47018e-18
1.62281e-17
-6.19458e-20
-5.74434e-18
8.53421e-18
-6.94432e-32
-8.56579e-19
-3.38739e-35
-1.90858e-16
5.19083e-34
1.27592e-18
2.62231e-18
0
0
0
5.81973e-17
-1.24398e-33
-9.15447e-20
2.06422e-18
-3.89962e-18
-8.49995e-18
-1.76024e-17
-1.55537e-17
-7.6496e-34
-8.08524e-20
-3.09443e-17
5.82135e-36
1.53822e-19
-1.11248e-17
1.93329e-17
-1.33802e-17
2.21014e-17
-7.50466e-18
-3.13628e-35
-1.26183e-17
-1.9213e-18
0
2.61015e-12
-5.08597e-12
-1.99601e-12
3.57553e-10
0
-3.55966e-10
-1.31941e-08
1.39345e-24
-3.89295e-09
-1.73375e-17
0
-1.96401e-12
1.53975e-17
6.12978e-20
-2.32142e-18
2.18272e-18
-5.8257e-18
5.38884e-18
-5.7988e-18
1.44376e-17
0
1.31148e-12
-5.77933e-18
7.78333e-09
2.02414e-17
5.93518e-20
-2.09836e-12
-1.07732e-17
-2.06158e-10
0
-1.4166e-15
-6.02285e-20
-2.11901e-17
0
9.65538e-18
5.9301e-20
2.44608e-18
-8.67751e-18
-4.32127e-18
2.10398e-17
6.01577e-20
-7.70257e-18
1.35023e-17
0
-5.66027e-18
1.55534e-19
1.07738e-17
-6.0082e-16
0
1.84833e-16
3.96884e-15
9.53104e-20
-2.55895e-13
0
8.38896e-11
0
-1.1011e-18
-1.0614e-18
-2.06665e-18
7.06648e-18
-2.13329e-18
-2.5727e-17
9.53265e-20
8.12054e-19
-2.14952e-18
0
2.55896e-13
3.49556e-11
0
0
0
-2.93734e-33
-9.98619e-19
1.69617e-18
-3.70032e-20
0
0
0
0
0
0
0
0
0
0
0
0
0
0
0
0
0
0
0
0
0
0
0
0
0
0
-1.16756e-17
4.12102e-33
8.9177e-18
1.2868e-17
3.82027e-18
1.25921e-17
-1.32764e-17
-3.87712e-17
5.82552e-33
-1.55807e-17
-3.87179e-18
0
-2.32789e-17
3.17915e-25
2.18803e-18
3.26774e-09
-2.62296e-13
4.39344e-12
3.32164e-09
4.3768e-18
2.62293e-13
-6.53548e-09
-6.624e-09
6.55738e-13
1.52561e-33
4.0009e-18
-7.52402e-18
-1.63931e-19
5.96448e-20
0
3.86211e-18
-1.16022e-17
0
-1.2396e-18
1.68892e-12
5.62978e-13
0
1.47605e-08
1.31706e-08
-2.20896e-18
3.89689e-18
-1.36602e-18
7.18271e-35
8.33557e-18
-7.77945e-18
0
-1.16608e-18
-1.37661e-20
5.72096e-18
7.68743e-18
-1.24036e-17
-2.26849e-18
-3.84791e-18
-1.22471e-17
6.03336e-20
0
1.72527e-18
6.03355e-20
-1.30672e-17
-7.34426e-12
-2.09838e-12
0
-5.51343e-10
-1.29656e-08
-7.74441e-18
-1.82083e-17
1.20575e-19
9.57554e-18
6.02636e-20
-3.38171e-18
5.88277e-19
1.90121e-18
-5.72951e-18
1.44806e-17
-1.91535e-18
2.3717e-20
-1.73963e-18
7.55799e-19
0
0
1.18271e-18
0
-7.87556e-19
2.37374e-20
3.99737e-19
6.3391e-19
3.51171e-20
1.18871e-18
-2.17941e-18
0
-6.65335e-13
2.0473e-13
1.34824e-08
0
2.72866e-08
4.65382e-20
0
-1.99182e-33
2.78758e-19
7.40944e-18
5.61088e-18
-2.37215e-17
-9.30906e-20
0
0
0
0
-2.24037e-18
-4.48075e-18
-1.75232e-17
-7.80171e-18
-5.44301e-17
3.88775e-18
-2.32969e-17
1.46424e-33
2.12122e-18
-1.16641e-17
-1.72359e-17
-2.32223e-17
1.4837e-33
1.92962e-17
-3.87287e-17
0
1.98437e-18
2.35895e-18
9.61406e-18
-8.70089e-18
8.64034e-18
-7.74847e-18
0
2.64766e-17
1.44304e-17
-8.75974e-18
1.24889e-17
-1.94264e-18
0
-2.13675e-12
-1.53265e-08
4.81946e-18
-3.58257e-12
7.28469e-11
-1.86619e-18
-1.05154e-18
1.6152e-17
4.78312e-18
-3.8344e-18
8.58249e-18
-5.79163e-18
-1.24292e-19
-5.46299e-18
3.58256e-12
5.42429e-18
0
9.78123e-10
-1.23941e-19
-4.29992e-18
-1.52738e-17
0
2.57204e-18
2.84864e-18
1.24226e-19
-2.76958e-18
3.57758e-20
5.15499e-18
4.2348e-18
6.19519e-20
-1.61249e-18
1.92009e-18
5.35116e-18
1.1438e-17
5.62749e-20
2.62487e-18
-1.85759e-18
-3.00008e-18
0
6.91048e-16
-5.93752e-20
-9.5852e-18
0
1.84419e-18
1.12513e-19
4.22198e-19
-7.62162e-18
-3.56276e-18
-3.93027e-18
1.18704e-19
-7.45817e-18
6.77809e-18
-1.68182e-31
-8.19916e-19
0
-3.1226e-16
2.77825e-34
7.44352e-19
7.08799e-19
0
0
0
0
0
0
0
0
0
0
0
0
0
0
0
0
0
0
0
0
0
0
0
0
4.05898e-18
0
-2.1977e-17
1.5495e-17
-2.33211e-17
-1.15516e-17
-1.54501e-17
-1.17913e-24
3.71741e-09
-3.54586e-09
3.19216e-09
4.25472e-13
-3.49716e-09
-2.31369e-12
8.11094e-09
-7.75433e-09
-4.25434e-13
-6.38468e-09
2.31374e-12
6.99499e-09
3.71288e-24
3.14e-09
6.85127e-09
-6.12616e-20
1.42335e-10
2.09835e-12
1.03958e-12
-8.65502e-26
-1.30487e-08
-6.24402e-20
-1.85432e-25
1.60788e-08
3.48472e-10
-6.09036e-12
6.09035e-12
0
-6.55733e-13
-5.79266e-18
-2.83634e-10
1.73754e-17
1.24652e-19
-9.7803e-18
3.46672e-17
-9.48025e-20
-5.81477e-18
-2.43211e-26
-1.60482e-08
-3.88965e-12
3.13261e-09
-6.13165e-13
-9.78591e-18
-3.56257e-15
1.51412e-17
-1.28667e-18
6.10958e-13
-6.26519e-09
1.99746e-18
2.33113e-17
-1.0007e-08
-4.46518e-20
0
-1.08525e-09
-2.75635e-20
1.02355e-13
-1.40743e-13
0
1.57069e-08
-3.07081e-13
-5.1295e-18
0
-4.05341e-18
1.29764e-33
7.56064e-22
1.33273e-18
-3.94749e-18
-4.55975e-19
1.4997e-08
-5.92332e-20
0
-1.40619e-08
0
1.07476e-12
1.72731e-12
4.09439e-13
0
1.53799e-08
-2.0804e-09
1.66338e-13
-1.49216e-17
1.18493e-19
-8.43004e-18
-5.81013e-20
-2.23172e-18
2.10277e-18
8.51296e-19
-1.72021e-17
-9.32371e-19
4.18938e-18
-1.67303e-24
0
4.62547e-34
0
0
0
0
0
-1.16756e-17
-4.61202e-33
-2.23688e-19
6.58608e-18
1.1662e-17
-1.27415e-17
0
-2.32791e-17
-1.34113e-33
1.87277e-18
3.91037e-17
-1.30721e-17
-2.32058e-17
-6.42431e-34
2.18996e-18
1.54819e-17
-8.30479e-18
-1.56311e-17
-5.80989e-25
3.2826e-09
-9.61743e-13
1.51913e-11
3.44763e-09
9.61746e-13
-6.56616e-09
-6.82977e-09
1.9235e-12
-7.19717e-18
-6.0334e-20
0
-6.27471e-18
1.99892e-18
1.83553e-24
-6.25507e-18
1.68274e-11
5.11794e-12
0
1.59311e-08
-7.00712e-11
9.08278e-18
-2.08319e-19
-1.14214e-17
-6.02898e-20
-8.91533e-18
1.12515e-18
0
-4.52432e-18
1.72632e-18
-1.94414e-18
0
7.69019e-18
3.43281e-18
5.82886e-18
-1.58648e-18
-8.46712e-34
0
-1.25722e-17
-3.47928e-24
1.45381e-19
-4.60616e-12
-1.27948e-12
0
-2.96243e-08
-3.85924e-10
1.54737e-17
1.29343e-18
0
-1.83733e-17
0
1.05764e-18
-5.58432e-19
-2.8967e-18
1.42561e-17
-1.9e-17
5.81318e-18
-6.00703e-20
-5.11798e-13
2.13676e-12
-1.18034e-09
0
1.52976e-08
4.53542e-24
3.07075e-13
0
1.07333e-08
-6.00763e-20
1.82895e-19
2.1593e-18
4.15786e-18
-2.14865e-17
4.65447e-20
-3.94573e-19
2.38818e-18
-1.02426e-31
-1.8772e-18
7.55779e-19
0
3.5091e-20
0
0
-1.30771e-18
1.39372e-18
-3.51088e-20
0
0
0
0
0
0
0
0
0
0
0
0
0
0
0
0
0
0
0
0
1.32746e-17
-2.46231e-22
-7.86266e-18
7.84507e-18
-7.72738e-18
-1.02616e-33
-1.09514e-17
1.10445e-17
1.7553e-21
1.28503e-17
0
-1.55408e-17
-1.56027e-33
9.59287e-20
1.18023e-17
-1.92129e-19
-3.23426e-17
0
1.21274e-17
3.78289e-09
-1.18217e-17
8.3066e-16
0
7.75725e-13
-2.84131e-15
-6.16547e-20
-4.14564e-09
-1.1428e-17
0
-5.03906e-12
1.34176e-17
-6.09392e-20
2.27552e-18
-7.77289e-13
1.12468e-19
-1.60132e-17
-7.56503e-09
2.56448e-17
0
4.02186e-12
-1.84171e-18
8.28643e-09
1.9088e-17
0
-5.19469e-18
4.71968e-18
3.83318e-18
9.77025e-18
-7.00942e-18
7.66659e-18
1.39373e-18
9.55078e-18
-2.87395e-18
0
-1.38027e-17
-7.66505e-18
-6.17396e-20
-9.2122e-13
-3.26e-18
-1.64654e-08
1.31125e-33
-4.3767e-17
0
2.6527e-33
-7.65698e-10
-3.12196e-12
1.24461e-33
2.63362e-18
-2.86907e-18
-1.64894e-17
6.25076e-18
-6.32757e-20
9.58672e-18
-8.45648e-19
0
-6.4445e-18
-1.67903e-17
7.46325e-17
0
-2.83017e-15
-6.01114e-20
1.278e-18
3.87186e-18
0
5.01814e-17
3.77196e-18
-6.14755e-20
7.07212e-19
-6.06118e-20
7.25502e-18
3.48091e-17
-6.00905e-20
9.4826e-19
-3.92969e-18
-2.19615e-18
9.46535e-19
2.4073e-09
1.14381e-24
0
0
3.83838e-14
2.7637e-12
0
2.08331e-08
-1.50882e-18
-8.89232e-34
2.77809e-20
-6.81741e-19
8.03223e-19
-6.35318e-18
0
0
0
0
0
0
1.31532e-17
0
4.85856e-17
-3.61175e-18
-8.08619e-18
-7.66956e-18
-1.55739e-17
-1.45465e-24
-3.61521e-09
6.20226e-11
-7.89473e-09
1.22413e-10
1.79196e-24
1.22388e-10
3.3025e-09
4.83258e-10
-1.36902e-10
6.33762e-10
2.62621e-10
4.04104e-13
-6.62981e-09
1.52365e-12
3.11549e-10
4.52845e-27
1.54516e-08
-3.99201e-12
3.39282e-09
1.44333e-08
3.08356e-12
1.40244e-08
-1.29229e-12
-6.69488e-10
5.84541e-18
-9.42587e-20
-7.59167e-13
-6.73628e-09
-1.0374e-18
3.49446e-18
-1.08801e-18
1.29632e-17
6.12637e-20
4.13677e-09
-5.11796e-12
3.75956e-12
-1.12236e-25
5.12436e-12
6.24418e-20
-5.66923e-26
1.28581e-08
-3.99201e-12
-6.12126e-20
-1.9235e-12
-5.79255e-18
-8.2678e-09
2.89232e-18
-6.23202e-20
4.62257e-18
-7.79428e-18
-1.49973e-08
-5.92311e-20
0
1.34184e-08
1.39902e-08
-5.81292e-20
-5.62978e-13
6.96042e-12
-3.89565e-18
0
3.19345e-08
5.99773e-17
-4.60611e-13
-2.43105e-13
-1.51131e-18
0
1.85192e-18
-2.12941e-18
5.81067e-20
-4.46467e-18
3.37081e-18
1.89647e-18
-2.18972e-18
3.71591e-18
4.96437e-18
-1.04099e-18
9.73153e-09
4.46512e-20
0
-2.75635e-20
1.02355e-13
-1.57377e-12
0
-4.05377e-09
-7.03915e-18
-4.46604e-20
0
6.18198e-20
3.76075e-19
-5.67061e-18
2.63301e-24
0
3.40259e-34
0
0
0
0
0
0
0
0
0
0
0
0
0
0
0
0
0
1.56427e-17
-3.76424e-35
-8.88811e-18
-4.4375e-18
-1.36917e-19
-1.58358e-17
1.08277e-34
2.78591e-19
-1.2006e-19
8.88791e-18
-2.35252e-17
-7.977e-25
-3.57806e-09
1.20912e-11
1.50638e-08
-1.63774e-12
1.85526e-12
-2.70195e-08
1.20392e-10
-1.33131e-08
1.48605e-08
-7.82753e-09
1.53874e-19
1.04889e-17
1.10013e-18
1.9996e-18
2.40838e-18
-7.87408e-18
-1.01293e-12
-2.57379e-10
2.3475e-24
-3.67228e-09
3.63987e-09
1.37014e-08
1.3986e-10
1.34339e-08
-8.0134e-09
-2.87565e-12
-7.25067e-09
3.76383e-13
-2.90121e-10
-1.77145e-24
1.36461e-17
-2.91724e-12
-7.6769e-13
-1.19922e-17
0
-1.52858e-08
-2.84366e-11
0
-1.15496e-17
0
9.57454e-18
-7.76595e-34
2.54127e-18
-5.36624e-19
2.88013e-18
-1.59371e-17
4.11125e-18
4.72035e-24
0
-5.81553e-18
8.65551e-18
6.58119e-18
5.91594e-20
0
-1.55136e-18
-1.34572e-17
-6.2658e-20
8.27863e-18
-1.02359e-12
0
1.27195e-08
3.18564e-18
2.29726e-17
9.02285e-18
-5.91302e-20
1.6809e-19
-2.10999e-17
-6.24843e-20
1.06144e-18
2.88497e-18
-7.25579e-18
8.35747e-20
7.55519e-18
4.58772e-20
9.21234e-13
-1.50933e-08
0
-6.19436e-20
0
-1.58365e-17
1.04857e-17
9.1756e-20
-8.1222e-19
-1.07721e-17
1.19771e-33
-3.06629e-17
4.20928e-18
5.89718e-20
-2.04722e-13
1.21551e-12
-8.51315e-10
0
1.35924e-08
3.84804e-20
-3.07072e-13
0
-8.64947e-09
5.89596e-20
1.26053e-19
5.16616e-18
1.26322e-17
-1.63686e-17
0
2.9878e-19
-7.553e-18
0
0
0
0
0
0
4.86235e-17
7.84507e-18
1.55739e-17
-1.55671e-17
-7.86266e-18
4.97268e-34
1.09516e-17
8.6814e-18
1.97947e-17
-3.1198e-17
7.75947e-32
-1.52387e-17
-5.58415e-35
-2.52322e-18
-1.45074e-21
0
8.33595e-19
0
3.97218e-09
3.18699e-12
6.70522e-18
-5.93613e-22
-3.88554e-18
-7.66689e-18
6.84209e-18
-4.24483e-18
-2.57924e-12
-7.94145e-09
6.70662e-18
0
1.47608e-19
-7.6651e-18
8.15634e-18
4.79937e-18
0
8.08638e-12
-1.3565e-10
-7.64355e-18
1.56619e-08
0
-8.75203e-13
8.89563e-17
6.16548e-20
-1.73318e-17
0
1.63255e-17
3.99015e-25
6.00468e-18
8.74316e-13
-1.05794e-17
-1.56881e-17
2.70689e-10
1.22187e-17
6.15534e-20
-9.76087e-18
1.52879e-17
-3.89563e-24
-7.77929e-12
-7.65109e-18
-1.60066e-08
0
1.07016e-16
0
-2.00762e-19
-3.94082e-12
0
2.16616e-18
-1.55169e-08
6.33015e-20
1.2283e-12
2.08556e-12
-5.64593e-34
-7.97089e-10
1.41009e-08
1.22945e-19
1.18332e-18
9.60044e-19
-4.05221e-18
1.40478e-17
-6.00809e-20
0
-1.14771e-18
3.14106e-18
6.48151e-18
-6.32719e-20
-1.53344e-18
1.01464e-18
5.18847e-18
-3.95557e-19
2.17378e-24
1.39464e-12
-2.70465e-34
1.23458e-08
-6.17184e-20
-1.02322e-18
3.83728e-18
-6.79223e-09
-2.86984e-25
0
-2.7769e-20
5.11795e-14
-4.99002e-13
0
1.02762e-10
2.40828e-09
1.63473e-24
-2.77801e-20
-5.88563e-13
-7.47437e-19
2.17536e-18
0
0
0
0
0
0
0
0
0
0
0
0
0
0
2.19345e-17
1.14286e-18
4.83988e-17
-1.10721e-19
-2.319e-17
-3.55894e-18
1.62643e-19
-2.61135e-25
-1.32397e-17
-3.25222e-09
1.8204e-17
-7.09564e-09
-5.00332e-34
1.5405e-17
-1.52567e-17
2.93953e-24
-1.68892e-12
-1.31787e-12
8.03227e-18
-6.12166e-20
-1.02353e-13
-2.29028e-12
1.08335e-10
0
1.03074e-08
-1.202e-08
5.68492e-20
3.87826e-09
1.13918e-17
0
9.55359e-13
-1.24318e-17
0
1.49214e-08
-1.53904e-08
-1.22427e-19
-1.91874e-18
2.31276e-18
4.93909e-20
-1.0955e-18
-5.71553e-19
5.23384e-18
-6.77455e-18
-2.10896e-17
-3.13967e-18
-7.10233e-18
-1.29927e-17
1.13571e-19
-9.61753e-13
5.69574e-18
-7.75604e-09
-1.43178e-17
6.19839e-20
-4.555e-12
4.01743e-09
-5.42734e-18
-5.7897e-10
0
3.03086e-12
6.17853e-17
-6.1305e-20
2.01117e-18
0
-5.3543e-22
-4.52623e-26
-2.06769e-18
-3.02919e-12
-3.03261e-18
2.01779e-17
-8.03343e-09
5.06069e-18
0
-4.12377e-18
5.17129e-20
3.80554e-20
4.69751e-18
-8.57257e-13
-6.4445e-18
0
-6.49315e-09
-5.87274e-20
2.02479e-17
0
-2.2312e-17
3.80634e-20
1.50451e-18
1.94821e-18
-8.50472e-18
-5.55378e-18
0
8.09334e-18
-3.04343e-17
-3.87734e-20
0
4.72109e-16
4.761e-18
5.94418e-34
-8.09457e-18
1.9844e-18
-3.98187e-26
0
-1.07052e-34
2.90429e-24
0
4.85724e-34
0
0
0
0
0
0
0
1.53147e-17
9.78039e-35
8.88811e-18
8.88486e-18
1.5563e-17
1.36917e-19
8.88791e-18
-1.56835e-17
-2.08929e-34
3.48058e-18
-1.58358e-17
-5.19074e-25
-4.49739e-18
-3.67222e-09
3.63951e-09
1.37009e-08
-5.70439e-12
1.34348e-08
-1.49323e-17
-8.0134e-09
-2.77969e-12
-7.25059e-09
2.09646e-18
1.52261e-17
-2.16376e-34
-2.28218e-18
-8.29107e-16
1.91927e-13
-2.04718e-12
-1.26668e-08
-8.92869e-12
-1.33139e-08
-1.48607e-08
-1.16381e-18
3.29067e-18
2.0608e-18
-2.21322e-18
-3.73056e-19
-6.76031e-18
3.86351e-18
7.78723e-18
7.11003e-18
5.91609e-20
0
-3.96315e-18
-2.46169e-18
1.25306e-19
1.00824e-17
7.89861e-18
0
-6.69096e-16
1.72673e-17
1.22989e-18
6.13116e-20
0
1.06688e-17
1.14949e-17
-1.57853e-17
-1.15772e-17
9.86871e-18
1.48286e-34
-1.25534e-17
-5.24173e-18
0
3.50102e-18
-4.12837e-18
-3.85652e-18
6.56109e-20
1.67343e-19
-6.12786e-20
1.35948e-17
2.83943e-18
-4.2795e-18
-7.73592e-18
5.98731e-20
-1.38154e-18
9.9519e-19
0
3.16613e-16
2.94548e-15
5.98522e-20
-3.89862e-18
-9.63674e-19
-6.37371e-18
-1.92035e-17
5.89686e-20
-3.58253e-13
7.16523e-13
-8.50848e-10
0
1.38342e-08
0
-1.53538e-13
0
-2.46941e-12
-5.62965e-13
0
-8.64673e-09
0
-1.50939e-08
-1.39199e-08
-1.26161e-33
-2.10598e-18
3.02078e-18
3.0321e-18
-2.8694e-17
3.8482e-20
3.19813e-19
1.23845e-19
-1.32228e-18
3.15558e-18
-4.93159e-18
1.11713e-18
-1.16023e-17
-4.58896e-20
0
4.588e-20
0
0
0
0
0
0
0
0
0
0
0
1.97595e-17
-2.32756e-34
1.34523e-19
4.36052e-18
1.58002e-17
5.39547e-19
-3.41078e-17
-7.25659e-18
4.76259e-34
2.25851e-17
1.59023e-17
1.74246e-17
-3.9559e-17
0
-2.65108e-17
-1.74011e-12
-3.17398e-10
7.67288e-18
-2.30309e-12
1.33604e-08
-1.16284e-17
1.81477e-17
-4.35562e-18
8.80551e-18
1.25015e-17
-2.73912e-18
1.64305e-17
-3.82577e-18
0
3.84903e-18
-2.30867e-17
5.0443e-24
-7.36827e-25
-2.8372e-18
8.05298e-17