/*--------------------------------*- C++ -*----------------------------------*\
| =========                 |                                                 |
| \\      /  F ield         | OpenFOAM: The Open Source CFD Toolbox           |
|  \\    /   O peration     | Version:  5.x                                   |
|   \\  /    A nd           | Web:      www.OpenFOAM.org                      |
|    \\/     M anipulation  |                                                 |
\*---------------------------------------------------------------------------*/
FoamFile
{
    version     2.0;
    format      ascii;
    class       volScalarField;
    location    "1.7";
    object      nut;
}
// * * * * * * * * * * * * * * * * * * * * * * * * * * * * * * * * * * * * * //

dimensions      [0 2 -1 0 0 0 0];

internalField   nonuniform List<scalar> 
12160
(
1.07133e-09
1.09484e-09
5.80881e-08
1.07602e-09
1.03025e-07
7.35092e-08
1.07738e-09
2.10846e-07
8.87768e-08
8.30581e-08
1.09951e-09
1.08154e-07
1.29581e-07
6.65897e-08
1.80196e-07
1.11945e-09
7.35978e-08
1.45027e-07
1.72674e-07
4.7127e-08
3.67564e-08
1.14561e-09
6.33642e-08
8.28726e-08
1.66277e-07
6.81879e-08
3.34456e-08
3.00717e-08
1.17819e-09
5.12091e-08
6.72039e-08
1.15881e-07
8.099e-08
8.87884e-08
1.71749e-08
5.28613e-09
1.21738e-09
4.22871e-08
5.2558e-08
7.69696e-08
1.28009e-07
1.18487e-07
2.27596e-08
5.57576e-09
9.04255e-09
1.25675e-09
4.06075e-08
4.24156e-08
5.12766e-08
1.07693e-07
1.45938e-07
2.72057e-08
7.23918e-09
9.71414e-09
1.21196e-08
1.28942e-09
4.54162e-08
3.92928e-08
3.87375e-08
4.82609e-08
1.09986e-07
4.55323e-08
1.29767e-08
6.87919e-09
2.30522e-08
9.71943e-09
1.31069e-09
6.08327e-08
4.3989e-08
3.43576e-08
3.5405e-08
5.02431e-08
1.18556e-07
2.29627e-08
6.46088e-09
2.43869e-08
4.45155e-09
1.34277e-08
1.3221e-09
9.93385e-08
5.95102e-08
3.70824e-08
3.18875e-08
3.2172e-08
3.40376e-08
1.77429e-08
6.44606e-09
1.88181e-08
3.15699e-09
2.82712e-09
3.85404e-09
1.33204e-09
1.67515e-07
1.04829e-07
4.73736e-08
3.46486e-08
2.68092e-08
2.27242e-08
1.06799e-08
1.06982e-08
1.44308e-08
3.63234e-09
6.4978e-09
5.87736e-09
4.90668e-09
1.34672e-09
1.17095e-07
3.42978e-07
7.80442e-08
4.37463e-08
2.69296e-08
2.14387e-08
8.59563e-09
4.56408e-08
1.28234e-08
8.18718e-09
9.32888e-09
4.05678e-09
7.32153e-09
3.1614e-09
1.38095e-09
5.88647e-08
1.9901e-07
2.82125e-07
6.56932e-08
3.11208e-08
2.52524e-08
8.50523e-09
3.05837e-08
1.18587e-08
1.41258e-08
4.57177e-09
6.55176e-09
1.00737e-08
1.92805e-08
1.44898e-09
3.25406e-08
6.62337e-08
1.30893e-07
1.03072e-07
4.28379e-08
3.65683e-08
9.41613e-09
2.2452e-08
1.48222e-08
8.73166e-09
6.49191e-09
1.19078e-08
6.94035e-09
5.25919e-09
1.56517e-09
2.04874e-08
3.29337e-08
4.69451e-08
7.57728e-08
6.6859e-08
5.63654e-08
1.05971e-08
2.29145e-08
2.07325e-08
8.73856e-09
1.25869e-08
1.87762e-08
1.40069e-08
9.93586e-09
1.75567e-09
1.44195e-08
2.04876e-08
2.67542e-08
4.1414e-08
6.45336e-08
4.17437e-08
1.07384e-08
2.31055e-08
2.9915e-08
9.81307e-09
2.08445e-08
3.04602e-08
2.7612e-08
3.57847e-08
2.06637e-09
1.10581e-08
1.44532e-08
1.76061e-08
2.45025e-08
3.34337e-08
2.89874e-08
9.51872e-09
1.89588e-08
5.39009e-08
1.07983e-08
9.96744e-09
2.09821e-08
2.51856e-08
1.11342e-07
2.59116e-09
9.07941e-09
1.10982e-08
1.27343e-08
1.64129e-08
2.00904e-08
2.33096e-08
8.02226e-09
1.33707e-08
5.91014e-08
1.21373e-08
7.78562e-09
9.04509e-09
1.89675e-08
1.99672e-08
3.53792e-09
7.87748e-09
9.1216e-09
9.95162e-09
1.22253e-08
1.44196e-08
1.79729e-08
6.8956e-09
9.41296e-09
2.97303e-08
1.4498e-08
6.86295e-09
4.92619e-09
1.85175e-08
1.80092e-08
5.27461e-09
7.15859e-09
7.92125e-09
8.27302e-09
9.72889e-09
1.0964e-08
1.31849e-08
6.11629e-09
7.08028e-09
1.75034e-08
1.8136e-08
6.20439e-09
3.61745e-09
1.66095e-08
2.76177e-08
6.71224e-09
6.77068e-09
7.20237e-09
7.23895e-09
8.18218e-09
8.81141e-09
9.92137e-09
5.63403e-09
5.80122e-09
1.09391e-08
2.44081e-08
5.63656e-09
3.0745e-09
1.11469e-08
6.05901e-08
5.04247e-09
6.63823e-09
6.8134e-09
6.61372e-09
7.21879e-09
7.4463e-09
7.93299e-09
5.38558e-09
5.06522e-09
7.59823e-09
3.12435e-08
5.15833e-09
2.81265e-09
9.18308e-09
1.99749e-08
3.45474e-09
6.73518e-09
6.67814e-09
6.27071e-09
6.63401e-09
6.58874e-09
6.72493e-09
5.25727e-09
4.5721e-09
6.04894e-09
3.17884e-08
4.73298e-09
2.65624e-09
9.90921e-09
1.62812e-08
2.59444e-09
7.07343e-09
6.76882e-09
6.14413e-09
6.31443e-09
6.05585e-09
5.986e-09
5.20098e-09
4.19301e-09
5.26804e-09
6.12184e-08
4.32502e-09
2.60047e-09
1.44305e-08
2.25256e-08
2.11062e-09
7.70603e-09
7.09496e-09
6.21107e-09
6.19555e-09
5.73668e-09
5.5424e-09
5.19796e-09
3.88981e-09
4.79285e-09
4.92931e-08
3.92211e-09
2.55731e-09
2.18423e-08
3.07791e-08
1.82084e-09
8.75232e-09
7.70406e-09
6.47467e-09
6.24635e-09
5.5928e-09
5.31271e-09
5.26148e-09
3.69005e-09
4.43473e-09
2.12595e-08
3.66242e-09
2.37778e-09
1.49241e-08
9.74262e-09
1.64236e-09
1.04548e-08
8.69798e-09
6.9653e-09
6.46873e-09
5.63129e-09
5.22493e-09
5.42791e-09
3.67798e-09
4.13224e-09
1.21404e-08
3.4082e-09
2.08526e-09
1.39829e-08
5.38845e-09
1.53484e-09
1.33293e-08
1.02666e-08
7.75076e-09
6.88931e-09
5.83733e-09
5.24268e-09
5.55151e-09
3.89687e-09
3.83911e-09
7.75497e-09
2.99089e-09
1.8618e-09
1.67968e-08
6.60499e-09
1.47755e-09
1.85812e-08
1.27541e-08
8.94377e-09
7.55266e-09
6.2062e-09
5.37161e-09
5.49e-09
4.1812e-09
3.50269e-09
5.19465e-09
2.47165e-09
1.88715e-09
2.10973e-08
6.00682e-09
1.45967e-09
2.87956e-08
1.67119e-08
1.07087e-08
8.51391e-09
6.7519e-09
5.60999e-09
5.23803e-09
3.93827e-09
3.16634e-09
3.63973e-09
2.19544e-09
2.26912e-09
2.13563e-08
6.13399e-09
1.47317e-09
4.23417e-08
2.27064e-08
1.32137e-08
9.8085e-09
7.51399e-09
6.02535e-09
5.064e-09
3.57936e-09
3.09531e-09
2.88043e-09
2.34435e-09
3.14908e-09
1.83736e-08
6.80908e-09
1.51748e-09
3.57555e-08
2.7058e-08
1.608e-08
1.13661e-08
8.48759e-09
6.64466e-09
4.94902e-09
3.3741e-09
3.25156e-09
2.9298e-09
2.73129e-09
6.02043e-09
1.67716e-08
8.22874e-09
1.59307e-09
2.42448e-08
2.38486e-08
1.83131e-08
1.30797e-08
9.58824e-09
7.47781e-09
4.86297e-09
3.36839e-09
3.43391e-09
3.79297e-09
2.36632e-09
2.27962e-08
2.06495e-08
1.13441e-08
1.70165e-09
1.82606e-08
1.90737e-08
1.84529e-08
1.40095e-08
1.04465e-08
8.44705e-09
4.80326e-09
3.4979e-09
3.64453e-09
5.20611e-09
1.99829e-09
6.94609e-09
2.82755e-08
2.0147e-08
1.84739e-09
1.51062e-08
1.56735e-08
1.65052e-08
1.36333e-08
1.11195e-08
9.32583e-09
4.75857e-09
3.69717e-09
3.86962e-09
7.20223e-09
2.11125e-09
3.2266e-09
2.14248e-08
4.11877e-08
2.03671e-09
1.3342e-08
1.35115e-08
1.44636e-08
1.27823e-08
1.15423e-08
9.48403e-09
4.74571e-09
3.94422e-09
4.10597e-09
1.01012e-08
2.59502e-09
2.28333e-09
1.46456e-08
2.96892e-08
2.28593e-09
1.23297e-08
1.21758e-08
1.28996e-08
1.17904e-08
1.14046e-08
9.09315e-09
4.72431e-09
4.24858e-09
4.39323e-09
1.46506e-08
3.19647e-09
1.8298e-09
1.46361e-08
1.45132e-08
1.17741e-08
2.88127e-09
1.13796e-08
1.18187e-08
1.09403e-08
1.10505e-08
8.72132e-09
4.77646e-09
4.71678e-09
4.82785e-09
2.49407e-08
3.63708e-09
1.62239e-09
1.56495e-08
9.35077e-09
1.10431e-08
1.16144e-08
4.26461e-09
1.11094e-08
1.02734e-08
1.06019e-08
8.35584e-09
4.97459e-09
5.39144e-09
5.59797e-09
1.09008e-07
3.88313e-09
1.67706e-09
1.63853e-08
7.13951e-09
1.08296e-08
1.10598e-08
1.19762e-08
8.33529e-09
9.77735e-09
1.01262e-08
8.03296e-09
5.23935e-09
6.41569e-09
7.15533e-09
3.62962e-08
4.03336e-09
1.92324e-09
1.49745e-08
5.88786e-09
9.59238e-09
1.10144e-08
1.16075e-08
1.54821e-08
8.37605e-09
9.69504e-09
7.69524e-09
5.533e-09
8.12676e-09
1.0037e-08
2.17469e-08
4.13431e-09
2.2647e-09
1.1325e-08
5.09702e-09
9.61846e-09
9.85591e-09
1.20512e-08
1.53566e-08
1.1506e-08
5.61457e-09
7.33767e-09
5.92088e-09
1.07787e-08
1.37018e-08
2.40415e-08
4.10694e-09
2.57674e-09
8.48898e-09
4.60633e-09
7.24728e-09
1.03107e-08
1.10923e-08
1.77426e-08
1.35032e-08
8.83679e-09
2.77259e-09
6.54569e-09
1.44008e-08
1.73381e-08
2.55399e-08
4.1262e-09
2.71321e-09
7.02842e-09
4.4159e-09
7.33335e-09
7.74927e-09
1.2543e-08
1.71755e-08
2.1634e-08
8.97594e-09
4.81738e-09
1.34995e-09
1.97173e-08
2.0139e-08
2.16963e-08
4.33375e-09
2.76753e-09
7.79081e-09
3.08493e-09
2.49541e-08
9.31293e-09
9.74273e-09
2.38581e-08
3.62811e-08
9.65435e-09
5.78062e-09
4.71701e-09
8.82537e-10
2.52393e-08
1.93691e-08
4.75941e-09
2.92802e-09
1.26676e-08
3.78553e-09
3.21771e-08
2.24883e-08
1.59063e-08
1.49253e-08
7.70927e-08
1.34734e-08
7.06233e-09
5.31589e-09
4.02251e-09
5.7801e-10
1.69875e-08
5.2322e-09
3.2391e-09
2.37357e-08
5.4002e-09
1.49963e-08
2.63569e-08
1.19559e-08
3.07421e-08
3.07693e-08
1.31134e-08
6.24128e-09
7.29546e-09
6.22541e-09
5.63734e-09
2.9391e-10
5.31933e-09
3.59325e-09
2.23785e-08
8.7347e-09
5.21917e-09
1.08073e-08
3.56469e-08
1.02042e-08
8.1878e-08
1.30518e-08
5.04303e-09
7.38953e-09
1.39268e-08
1.15602e-08
2.97195e-09
8.56823e-09
3.97873e-09
2.00706e-08
1.52996e-08
5.20103e-09
5.40671e-09
4.84816e-09
8.30303e-08
9.51896e-09
2.23107e-08
5.61229e-09
5.81084e-09
2.02863e-08
5.9457e-08
2.2633e-08
3.87615e-08
4.12993e-07
1.11496e-08
1.88373e-08
2.77984e-08
2.67402e-08
5.93201e-09
5.97402e-09
3.39831e-09
1.45577e-07
8.91071e-09
8.56832e-09
4.80803e-09
1.77481e-08
8.99335e-08
1.22829e-07
7.70983e-08
2.35925e-07
9.30504e-06
1.26345e-06
2.60253e-08
7.26025e-08
7.20789e-08
1.47488e-08
4.21312e-09
6.39999e-09
3.0949e-09
1.35835e-07
8.15034e-09
6.26871e-09
1.12207e-08
8.43014e-08
1.2085e-07
1.05096e-07
2.18613e-07
4.4653e-06
6.40737e-05
2.26023e-05
3.15091e-06
5.29524e-08
1.98924e-08
7.28009e-09
4.13568e-09
7.11755e-09
3.11142e-09
1.9991e-07
7.35143e-09
6.4478e-09
5.60065e-08
1.29195e-07
8.5786e-08
1.92878e-07
1.64859e-06
2.23365e-05
0.000385685
0.000177246
5.71535e-05
9.8001e-06
1.05112e-07
8.24471e-09
6.81594e-09
4.5517e-09
7.8203e-09
3.1602e-09
5.25768e-08
6.53826e-09
1.38935e-08
1.50338e-07
9.76553e-08
2.07544e-07
5.21887e-07
8.9018e-06
0.000108452
0.000725582
0.000783233
0.000542169
0.000196786
3.64356e-05
2.02663e-07
6.94959e-09
7.17465e-09
5.05053e-09
9.30303e-09
3.22801e-09
2.26362e-08
5.70094e-09
4.80928e-08
1.19488e-07
1.64323e-07
2.46383e-07
2.97233e-06
3.39265e-05
0.000629562
0.000445654
0.000780457
0.000816132
0.000798838
0.000594156
0.000302874
3.75711e-07
6.77894e-09
6.9458e-09
5.67236e-09
7.28414e-09
4.07054e-08
2.06588e-08
7.50131e-09
9.79094e-08
8.974e-08
1.23872e-07
9.4344e-07
1.10634e-05
0.000185193
0.000439689
0.00161876
0.000577546
0.0016193
0.00160975
0.00161011
0.000809622
0.000839562
0.000840937
0.000432233
9.31229e-05
6.99958e-07
6.26751e-09
5.5809e-09
4.94734e-09
6.85184e-08
6.82927e-07
6.55444e-07
2.65888e-08
4.53806e-08
7.06556e-08
3.62655e-07
3.38893e-06
5.07499e-05
0.000438992
0.00128138
0.00171394
0.00144024
0.000787219
0.00171458
0.00190433
0.00190599
0.00144021
0.00139178
0.0013916
0.000820179
0.000852584
0.000867782
0.000415302
7.99438e-05
1.11848e-06
7.76932e-09
3.47554e-09
1.7554e-08
1.32773e-06
1.37584e-05
1.00625e-06
9.04754e-08
4.16874e-08
1.18901e-07
1.00337e-06
1.35174e-05
0.000415227
0.000969202
0.00147819
0.00147838
0.00162399
0.0016243
0.00153723
0.00136644
0.000795073
0.000681105
0.00153735
0.00170774
0.00170845
0.00136633
0.00130597
0.00130581
0.000827835
0.000854796
0.000871232
0.000423491
7.28685e-05
1.63461e-06
5.29223e-09
3.07366e-09
3.90895e-07
2.06778e-05
0.000234638
2.04945e-05
4.67169e-07
6.05357e-08
2.31063e-07
3.16121e-06
0.000160036
0.000618209
0.00179756
0.00179788
0.00184778
0.0018484
0.00138237
0.00138278
0.00155222
0.00155242
0.001426
0.00125162
0.00124186
0.00125339
0.00125654
0.000813845
0.000719137
0.00136206
0.00136226
0.00149351
0.00149337
0.00142589
0.00153998
0.0015401
0.00125131
0.00124412
0.00125318
0.00125425
0.00121946
0.00121345
0.00121808
0.00123737
0.00121923
0.00121501
0.00121795
0.0012339
0.000840742
0.000854746
0.000854541
0.00038235
6.36548e-05
2.19567e-06
3.03134e-09
5.42364e-08
5.69294e-06
0.000384766
0.00182138
0.000157988
1.65739e-05
3.30083e-06
5.0369e-07
3.34645e-05
0.000407434
0.00183931
0.00183984
0.00189034
0.00189135
0.00164929
0.00164952
0.00168367
0.00168411
0.00127513
0.00116297
0.00127253
0.00133675
0.00131621
0.00112825
0.00116566
0.00127606
0.00127242
0.0013371
0.00131627
0.00112831
0.00144764
0.00144271
0.00143662
0.00143405
0.00144826
0.00144275
0.00143694
0.00143408
0.00130684
0.00127175
0.00128654
0.00130911
0.00114192
0.00118081
0.00113967
0.00119984
0.000844589
0.000765785
0.000899287
0.000899415
0.00106081
0.00106104
0.00118705
0.00118743
0.00131566
0.00131595
0.00130675
0.00127233
0.00128623
0.00130839
0.00136159
0.00135516
0.0013641
0.00135711
0.0013616
0.00136277
0.00136429
0.00135933
0.00114155
0.00118367
0.00113946
0.00119825
0.00112655
0.001188
0.00112634
0.00118533
0.000862985
0.00084548
0.000826442
0.000337716
5.56109e-05
3.09137e-06
6.17863e-09
1.32005e-06
8.60947e-05
0.0017138
0.00206723
0.000957962
0.000423425
0.000100764
7.92116e-06
0.000258858
0.00198318
0.00198469
0.00214898
0.00215317
0.00167038
0.00167081
0.00169297
0.00169372
0.0014929
0.00149973
0.00150897
0.00150716
0.0014947
0.00149985
0.00151363
0.00150718
0.00148741
0.00151945
0.00151052
0.0015241
0.00149126
0.00151953
0.00151608
0.00152434
0.00114402
0.00127365
0.00125199
0.00108046
0.00132175
0.0012801
0.00114704
0.00127442
0.00108054
0.00125179
0.00132193
0.00128004
0.0014089
0.00137231
0.00138969
0.00136435
0.00140987
0.00137228
0.00138983
0.00136434
0.00118329
0.00120085
0.00116041
0.00123675
0.00109547
0.00115702
0.00109193
0.00117716
0.000897959
0.000824006
0.000676023
0.000675265
0.00067831
0.000677991
0.000759663
0.000760348
0.000907805
0.000908324
0.0010251
0.0010158
0.00110019
0.00107302
0.00102851
0.00101572
0.00110176
0.00107301
0.00121841
0.00125826
0.00119413
0.00119219
0.00117505
0.0012409
0.00121867
0.00126552
0.00119401
0.00119266
0.00117499
0.00124124
0.00118306
0.00120135
0.00116013
0.00123624
0.00121356
0.00125881
0.0012136
0.00126144
0.00109531
0.00115928
0.00109184
0.00117573
0.00108499
0.00117404
0.00108487
0.00117129
0.000871725
0.000822165
0.000795504
0.000266292
5.47279e-05
4.51185e-06
1.83345e-07
1.90044e-05
0.00116638
0.00187109
0.00207867
0.0023577
0.00174647
0.000864498
0.000354132
0.00193559
0.00194155
0.00178036
0.00178257
0.00171367
0.00171443
0.00176718
0.00176929
0.0014798
0.0015134
0.0014856
0.00151429
0.00148467
0.00151366
0.00148952
0.00151425
0.00147132
0.00152735
0.00147855
0.00152336
0.00147674
0.00152753
0.00148288
0.00152352
0.00142671
0.00140656
0.00142993
0.001406
0.00142872
0.00140658
0.00143496
0.00140601
0.00138963
0.00137019
0.00142386
0.00139774
0.00139401
0.00137011
0.00142907
0.001398
0.00112741
0.00117812
0.00110905
0.00120491
0.000923542
0.000935442
0.000797727
0.000796279
0.000695601
0.000694112
0.000610484
0.000611762
0.000599845
0.00060076
0.000567382
0.000622603
0.000649603
0.000665768
0.000580915
0.00062212
0.000664019
0.000665769
0.000841232
0.0008218
0.000772992
0.000772549
0.000849172
0.000821968
0.000783804
0.000772554
0.000963142
0.000923771
0.0010524
0.00100159
0.000967364
0.000923423
0.001054
0.00100135
0.00120035
0.00119001
0.00115247
0.00114849
0.00115002
0.00110531
0.00120571
0.0011902
0.00115224
0.00114866
0.0011505
0.00110508
0.00112727
0.00117815
0.00110887
0.00120409
0.00113935
0.00120392
0.0011394
0.00120633
0.000854232
0.000795934
0.000754659
0.000248696
6.1441e-05
6.78516e-06
3.96276e-06
0.000302914
0.00184093
0.00183196
0.0019118
0.00234807
0.00217646
0.00227618
0.000544827
0.00162304
0.00162638
0.00156785
0.00156915
0.00153802
0.00153876
0.0015553
0.00155631
0.0013665
0.0013613
0.00136505
0.00135552
0.00137159
0.00136152
0.00136922
0.00135553
0.00134279
0.00136668
0.00135182
0.00135345
0.00134834
0.00136675
0.00135626
0.00135354
0.00136328
0.00133178
0.00136765
0.00133166
0.000916254
0.000966405
0.00105977
0.00105857
0.000904351
0.0009029
0.000707611
0.00070592
0.000647287
0.000645488
0.000403807
0.000498365
0.000393448
0.000512824
0.000400518
0.000496821
0.000396248
0.000510355
0.000453005
0.00052869
0.000435241
0.00052148
0.000465984
0.000527806
0.000444213
0.000519988
0.000527315
0.000511481
0.000607973
0.000577499
0.000539212
0.000511239
0.000621086
0.000577546
0.000801247
0.00075885
0.000726265
0.00068652
0.000810119
0.000758789
0.000738005
0.000686426
0.000825328
0.000762653
0.000683855
0.000279625
6.09701e-05
1.00354e-05
5.88992e-05
0.00168589
0.00180099
0.00169822
0.00169342
0.00183577
0.00423464
0.00200296
0.00154555
0.00154581
0.00168713
0.00168794
0.00143629
0.00143795
0.00140459
0.00140521
0.00139665
0.00136338
0.00139463
0.00136892
0.001397
0.00136522
0.00139515
0.00136931
0.00139667
0.00135476
0.00138402
0.00137614
0.00139694
0.00135669
0.00138409
0.00137603
0.00133172
0.00130257
0.00131854
0.00127812
0.00133638
0.00130266
0.00132197
0.00127807
0.0012829
0.00125759
0.00129315
0.00125615
0.00128765
0.00125752
0.00129665
0.00125619
0.000890201
0.000978076
0.000995491
0.000902596
0.000900832
0.000789496
0.000787898
0.000564623
0.000562644
0.00046088
0.000459704
0.000348908
0.000458808
0.000335295
0.000431392
0.000347347
0.000458463
0.000334989
0.000430999
0.000412949
0.000440847
0.000373874
0.000429384
0.00042048
0.000440546
0.000376517
0.000429033
0.000486228
0.000472655
0.000496134
0.000472667
0.000781089
0.000701773
0.000631813
0.000228805
6.02563e-05
7.83399e-06
0.00117024
0.00180426
0.00168881
0.00156716
0.0015332
0.00160925
0.00163497
0.00125547
0.00143369
0.00143394
0.00153805
0.00153818
0.00128641
0.00130116
0.001311
0.00130081
0.00128947
0.00130167
0.00131155
0.00130145
0.00133653
0.00133682
0.0012764
0.00130648
0.00130775
0.00128811
0.00127656
0.00130776
0.00130796
0.00128755
0.00125054
0.00125664
0.00123019
0.0012836
0.00125053
0.00125953
0.00123021
0.00128287
0.00127178
0.00124388
0.00127548
0.00124368
0.000831333
0.000967812
0.00102908
0.00108913
0.00108763
0.000967481
0.000965495
0.000802318
0.000800588
0.000676819
0.000674213
0.000507954
0.000516272
0.00056766
0.000418116
0.000507804
0.000510917
0.000565117
0.000419491
0.000463344
0.000292717
0.000442898
0.000339962
0.000463987
0.000293864
0.000442726
0.000342606
0.000257744
0.000380143
0.000259463
0.000351145
0.000259318
0.000379365
0.000261312
0.000350891
0.000371133
0.00039658
0.000313939
0.000365735
0.000376153
0.000396483
0.000315922
0.000365536
0.000702613
0.000658688
0.000479957
0.000190901
2.35458e-05
0.0016916
0.00168857
0.00157781
0.00151949
0.00144283
0.00106861
0.000835963
0.00158329
0.00158285
0.00149326
0.00149289
0.00129255
0.00129481
0.00131801
0.00132806
0.0012941
0.00129494
0.00131893
0.00132788
0.00144028
0.00144051
0.00120663
0.0011733
0.0012005
0.00122287
0.00121018
0.00117353
0.00120054
0.00122331
0.00125281
0.00124272
0.00124551
0.00123146
0.00125329
0.00124257
0.0012448
0.0012314
0.0012067
0.00121116
0.00116164
0.00125454
0.00120654
0.00121419
0.0011616
0.00125466
0.000716757
0.000902973
0.0010397
0.00107548
0.00103985
0.0010374
0.000918997
0.000915502
0.000787892
0.000786014
0.0006039
0.00063686
0.000718637
0.0006724
0.00059504
0.000634248
0.000717375
0.000666292
0.000466152
0.000500292
0.000535691
0.000399911
0.0004659
0.000495032
0.000535048
0.000399121
0.00040789
0.000261299
0.000364669
0.00031521
0.000407907
0.000261923
0.000364564
0.000316008
0.000232614
0.000341191
0.000233798
0.000341095
0.000647425
0.000643844
0.000388221
4.64115e-05
0.00168281
0.00160192
0.00154183
0.00153407
0.00131827
0.000905977
0.000624751
0.000624538
0.000626548
0.00062639
0.00131862
0.00131838
0.000997327
0.000997617
0.00120762
0.00117264
0.00124167
0.00123081
0.00120965
0.00117279
0.00124303
0.00123077
0.00130052
0.00129927
0.00130957
0.00130634
0.00130058
0.00130069
0.00130946
0.00130683
0.00116434
0.00110222
0.00111864
0.00117229
0.00116634
0.00110236
0.00111864
0.00117195
0.00119308
0.00114263
0.00119868
0.00115281
0.00119445
0.00114246
0.00119828
0.00115275
0.000639363
0.000754131
0.000980645
0.00110219
0.00111799
0.00111484
0.0011597
0.00115643
0.00104457
0.00104154
0.00089408
0.000866039
0.000964874
0.000936185
0.000886473
0.000864329
0.000959468
0.000934369
0.000849887
0.000833728
0.00076269
0.000767946
0.000684852
0.000704033
0.000844231
0.000832109
0.000763016
0.000767459
0.000678456
0.000702997
0.000604849
0.000614082
0.000597969
0.000613391
0.000485493
0.000495391
0.000549322
0.00039341
0.000485307
0.000493566
0.000548793
0.000394924
0.000630802
0.000619236
7.75012e-05
0.00159096
0.00154847
0.00153413
0.00149783
0.00127104
0.000784498
0.000641378
0.00064126
0.000588577
0.000588386
0.00104907
0.0012106
0.00115519
0.000980883
0.00112494
0.00119445
0.0012122
0.00105095
0.00119426
0.00115475
0.000983463
0.00112414
0.00048177
0.000721228
0.000591447
0.000787895
0.000474852
0.00071927
0.000583444
0.000787187
0.00116645
0.00111099
0.00119176
0.00114995
0.00116817
0.00111105
0.00119284
0.00114991
0.00119916
0.00123513
0.00119915
0.00123576
0.00110507
0.00116626
0.00110505
0.00116577
0.00117184
0.00111226
0.00117334
0.0011121
0.000611669
0.000650922
0.000807986
0.00105503
0.00117205
0.00117072
0.00116341
0.00116204
0.0011132
0.0011084
0.00115503
0.00115031
0.00100588
0.00112009
0.00105403
0.00107067
0.000944238
0.00101705
0.00100559
0.00111156
0.00105202
0.00107075
0.000943816
0.00101578
0.000944408
0.000906562
0.000942524
0.000906137
0.000901955
0.000883127
0.000805519
0.000704031
0.000814016
0.000718707
0.000901686
0.000882664
0.000805895
0.000699175
0.000813754
0.000717912
0.000605908
0.000630845
0.000599695
0.00063022
0.000618762
0.000105133
0.00161439
0.00146435
0.00144979
0.00133261
0.00114682
0.000423842
0.000423547
0.000392937
0.000392903
0.000506464
0.000506433
0.000501178
0.000501168
0.00114478
0.000931461
0.00105348
0.00113497
0.000782166
0.000952542
0.00114592
0.000934407
0.00113469
0.00105315
0.00078689
0.000952566
0.000417643
0.000564088
0.000480431
0.000664736
0.000418362
0.000563915
0.000481156
0.000666488
0.0011867
0.0011377
0.00118756
0.00113761
0.000605342
0.000608117
0.000684248
0.00087122
0.00112515
0.00117581
0.00117361
0.0011222
0.00112022
0.00112343
0.00104036
0.00116966
0.00105865
0.00111374
0.00103763
0.00116231
0.00105724
0.00122262
0.00119886
0.00113129
0.0012081
0.00110215
0.00108959
0.00121568
0.00119258
0.00113046
0.00119925
0.00110086
0.00108876
0.00105912
0.000990916
0.00113122
0.00104244
0.00105887
0.000990572
0.00113221
0.00104318
0.000992387
0.000982252
0.000992673
0.000981965
0.000939996
0.000956205
0.000753546
0.000779159
0.00094356
0.000956012
0.000750227
0.000778916
0.000135446
0.00144891
0.00141032
0.0013437
0.00108156
0.000540623
0.000358157
0.000356771
0.00034073
0.000340266
0.000502649
0.000440185
0.000514764
0.000428824
0.000502738
0.000441971
0.000514915
0.00043014
0.000443655
0.000444136
0.000418245
0.00052473
0.000425181
0.000571423
0.000421678
0.000525225
0.000427153
0.000573163
0.000168711
0.00059715
0.000623664
0.000735662
0.000938761
0.00111469
0.00111372
0.00127348
0.00127022
0.00115269
0.00114991
0.00107609
0.00107369
0.00116916
0.00104579
0.00119737
0.00107962
0.00116404
0.00104467
0.00119472
0.00107922
0.0012231
0.00125832
0.00113803
0.00118467
0.0012423
0.00113875
0.00121859
0.00125052
0.00118402
0.00113737
0.00123553
0.00113837
0.00106536
0.0010977
0.00106514
0.00109927
0.00134751
0.00140009
0.0011902
0.000719907
0.0004015
0.000399692
0.000411584
0.000409556
0.000341456
0.000341329
0.000333427
0.000332916
0.000503104
0.000454514
0.000527566
0.000420796
0.000503083
0.000454994
0.000527635
0.000420365
0.000275383
0.000409195
0.000347109
0.000461878
0.000276191
0.000409374
0.000347665
0.000461971
0.000470433
0.000548222
0.000471382
0.000548459
0.000197604
0.000597797
0.000656012
0.000799031
0.000996196
0.00111968
0.00111754
0.0012235
0.00121954
0.00115214
0.00114902
0.00104006
0.00111337
0.00103335
0.00108073
0.00103948
0.00111009
0.00103258
0.00108053
0.00115924
0.00106404
0.00121914
0.00112026
0.00115646
0.00106344
0.00121715
0.00112012
0.00139609
0.00135124
0.000919046
0.000438503
0.000456705
0.000456566
0.000346415
0.000335966
0.000288564
0.000404816
0.000364018
0.00032946
0.000360847
0.000310712
0.000289351
0.000404918
0.000364114
0.000328573
0.000360584
0.000310479
0.000450292
0.000449536
0.000504708
0.000445126
0.000533883
0.000402277
0.000504721
0.00044512
0.000533879
0.000402579
0.000337659
0.000446926
0.000338061
0.000446922
0.000226531
0.000609866
0.000700807
0.000861419
0.00101834
0.00101644
0.00110235
0.00109979
0.00107807
0.00107555
0.00117555
0.00116989
0.00120799
0.00113511
0.00119305
0.0010944
0.00115167
0.00105888
0.00119744
0.00113188
0.00119348
0.00109364
0.00115062
0.00105811
0.00113919
0.00106376
0.00113812
0.00106321
0.00117046
0.00109584
0.00117087
0.00109554
0.0013502
0.00111434
0.000601631
0.000261828
0.000259242
0.000303641
0.000302322
0.000383275
0.000380593
0.000286853
0.000278142
0.000319102
0.000399436
0.00039722
0.0003596
0.000382892
0.000359121
0.000320256
0.000399493
0.000396852
0.000357018
0.000382146
0.000352691
0.000482877
0.000468891
0.000501123
0.000453775
0.000481525
0.000466964
0.000502269
0.000453395
0.000255005
0.000634703
0.000749543
0.000915961
0.0010225
0.00101896
0.00106812
0.00106426
0.00109151
0.00108672
0.00127149
0.00115996
0.00111953
0.00127254
0.00117499
0.00116012
0.00111902
0.00126247
0.00117397
0.00115492
0.00126561
0.00115875
0.0012098
0.00116391
0.00111975
0.00109016
0.00121447
0.00116564
0.0011194
0.00108955
0.00116017
0.00111104
0.00116022
0.00111071
0.00104985
0.000702701
0.000441829
0.000232022
0.000231319
0.000273985
0.000273243
0.000394677
0.000380832
0.000311226
0.000254308
0.000291448
0.000231285
0.000380153
0.000380784
0.000328977
0.000236238
0.000293684
0.000229707
0.000262375
0.000261972
0.000434682
0.000452368
0.000434695
0.000453827
0.00045114
0.000405862
0.00044941
0.000405815
0.000288679
0.000663968
0.000791285
0.000947495
0.000945238
0.00100629
0.0010027
0.000966186
0.000961697
0.00100419
0.000999038
0.0010465
0.00101866
0.00115191
0.00106645
0.0012394
0.00113636
0.00103757
0.00122857
0.00113522
0.0010153
0.00114512
0.00106559
0.00130213
0.00121648
0.00128686
0.00120431
0.00127319
0.00129259
0.00120361
0.0012155
0.000603632
0.000580334
0.000347217
0.000313404
0.000307241
0.000297713
0.00029624
0.000293529
0.00031029
0.000287566
0.00018978
0.000244963
0.000198657
0.000263881
0.000296805
0.000288601
0.000189744
0.000243831
0.000196917
0.000210371
0.000454092
0.000193662
0.000328424
0.000207734
0.000429003
0.000195262
0.0003155
0.000360709
0.000359337
0.000345602
0.000353199
0.000335441
0.000690292
0.000818792
0.000950146
0.000947222
0.000948001
0.000943381
0.000944986
0.000938856
0.00108796
0.000999685
0.000954367
0.00105066
0.000962393
0.000966065
0.00108377
0.000998571
0.000952744
0.00104235
0.000961385
0.000959034
0.00112384
0.00121952
0.00105954
0.00114623
0.00120749
0.00114576
0.00112295
0.00105906
0.000508653
0.000467049
0.000288716
0.000298155
0.000295877
0.000285918
0.000283108
0.000283438
0.000333825
0.000184612
0.000344954
0.000324625
0.000180731
0.000331705
0.000207858
0.00026274
0.000259842
0.000192157
0.000250545
0.000185331
0.00019425
0.000245416
0.000256619
0.000191592
0.000250281
0.000180602
0.000175797
0.000221632
0.000179764
0.000218518
0.000388287
0.00070545
0.000824132
0.000907298
0.000904036
0.000901123
0.000895332
0.000888686
0.000931557
0.00097945
0.000894684
0.0010325
0.000931006
0.000877958
0.00102235
0.000928983
0.000926282
0.00097243
0.000893448
0.00107555
0.00099638
0.00105152
0.000960832
0.00107127
0.000995716
0.00104176
0.000960007
0.00110288
0.00105066
0.00110611
0.00105031
0.000483061
0.000334094
0.000366132
0.000268592
0.000360567
0.000267331
0.00029646
0.000296364
0.000215398
0.000179879
0.000314926
0.000189244
0.000352727
0.000286951
0.000228112
0.000457078
0.000181286
0.000226956
0.00029832
0.000185576
0.000336526
0.000281307
0.000227696
0.000436454
0.000234252
0.000171084
0.000232843
0.00016898
0.000162687
0.000205807
0.000175029
0.000206528
0.000441575
0.000699922
0.000827383
0.000884476
0.000881339
0.000822171
0.000899963
0.000895042
0.000887169
0.000920564
0.000897328
0.000881597
0.000911669
0.000894544
0.00101526
0.00094786
0.000922127
0.000877687
0.00100766
0.000921209
0.000944387
0.000877026
0.00107816
0.00101242
0.00105941
0.000985102
0.00107098
0.00101188
0.00105025
0.000984579
0.000499368
0.000259451
0.000350964
0.000360445
0.000233547
0.000315604
0.000346249
0.000361223
0.000229447
0.000314062
0.000268583
0.000269578
0.00019216
0.00019563
0.000176881
0.000224266
0.000236316
0.00021293
0.000207824
0.000196986
0.000201223
0.000232081
0.000244385
0.000215038
0.000216864
0.000162185
0.000223069
0.000175956
0.00047939
0.000676988
0.00081907
0.000830996
0.000828801
0.000810407
0.000851117
0.000843336
0.000902145
0.000934173
0.000886218
0.000930901
0.000892467
0.000855264
0.000795
0.000905832
0.000894666
0.000926475
0.000884215
0.00092164
0.000889723
0.000853938
0.000787958
0.000900838
0.000992517
0.000944452
0.000932335
0.000895858
0.000990198
0.000931821
0.00094055
0.000895189
0.000354565
0.000323782
0.000336213
0.000335986
0.000322376
0.000331184
0.000329449
0.000250659
0.000376785
0.000224373
0.00034729
0.000236066
0.000563291
0.000211863
0.000373977
0.000366181
0.000225081
0.00047226
0.000244771
0.000378185
0.000219552
0.000345263
0.000232165
0.000543143
0.000209138
0.000369111
0.000363013
0.000219845
0.000454794
0.000200176
0.000201534
0.000249205
0.000236232
0.000210156
0.000200114
0.000258568
0.000237231
0.000512555
0.000558651
0.000724149
0.000823871
0.000848394
0.000815149
0.000820554
0.000848451
0.00081692
0.000709973
0.000796412
0.000781309
0.000909572
0.000855333
0.000948191
0.000885383
0.00092236
0.00082223
0.0009035
0.000854259
0.000943737
0.000921786
0.000884871
0.000821628
0.000973004
0.000937943
0.000972098
0.000937429
0.000155521
0.000336213
0.000388308
0.000334289
0.000387611
0.000459549
0.000457158
0.000195267
0.000181644
0.000254757
0.00024353
0.000180125
0.000263885
0.000259607
0.000253848
0.000491172
0.000252424
0.000515099
0.000453132
0.00027847
0.000603119
0.000193768
0.00017833
0.000245172
0.000253114
0.000174286
0.000258232
0.000250773
0.000252346
0.000484636
0.000247444
0.000501713
0.000444692
0.000272769
0.000590143
0.000481358
0.00029303
0.000666941
0.000652077
0.00029019
0.000432722
0.000432819
0.000762445
0.000829267
0.000836935
0.000807719
0.00081899
0.000927317
0.000838377
0.000802363
0.00074745
0.000828555