/*--------------------------------*- C++ -*----------------------------------*\
| =========                 |                                                 |
| \\      /  F ield         | OpenFOAM: The Open Source CFD Toolbox           |
|  \\    /   O peration     | Version:  5.x                                   |
|   \\  /    A nd           | Web:      www.OpenFOAM.org                      |
|    \\/     M anipulation  |                                                 |
\*---------------------------------------------------------------------------*/
FoamFile
{
    version     2.0;
    format      ascii;
    class       volScalarField;
    location    "1.7";
    object      omega;
}
// * * * * * * * * * * * * * * * * * * * * * * * * * * * * * * * * * * * * * //

dimensions      [0 0 -1 0 0 0 0];

internalField   nonuniform List<scalar> 
12160
(
0.0719999
0.0719999
0.0022353
0.0719999
0.00484269
0.0011868
0.0719999
0.00828071
0.00157314
0.00114164
0.0719999
0.0110059
0.00216183
0.00135706
0.00114461
0.0719999
0.0116285
0.002688
0.00155386
0.00135928
0.00130524
0.0719999
0.0111482
0.00280562
0.00170312
0.00149715
0.00158342
0.0013568
0.0719999
0.0104441
0.00267472
0.00173722
0.00158053
0.00164051
0.00192699
0.00246397
0.0719999
0.00992236
0.00250061
0.00170335
0.00161184
0.00165538
0.00204596
0.00371727
0.0117993
0.0719999
0.00952581
0.00237361
0.00166301
0.00160987
0.00166999
0.00197793
0.00331385
0.0110539
0.011468
0.0719999
0.00926329
0.00228259
0.00163226
0.00160294
0.00168668
0.00189214
0.00263347
0.010052
0.0106213
0.021479
0.0719999
0.00911485
0.00222115
0.00160809
0.00159019
0.00170288
0.00186975
0.00250078
0.00851313
0.0117911
0.0193236
0.0223607
0.0719999
0.00908156
0.00218372
0.00158705
0.00157633
0.00170538
0.00189503
0.00281725
0.00732716
0.0117811
0.0228566
0.015374
0.0130425
0.0719999
0.00918523
0.00216968
0.00156921
0.00156014
0.00169651
0.00191123
0.00321729
0.00641975
0.011581
0.0153231
0.00893757
0.00562661
0.0107093
0.0719999
0.00953148
0.00218373
0.00155591
0.00154227
0.0016785
0.00191898
0.00356006
0.00619524
0.0109963
0.0155866
0.00667904
0.00412159
0.00419312
0.00752125
0.0719999
0.010129
0.00224883
0.00155135
0.00152422
0.00165418
0.00191616
0.00381638
0.00663459
0.00991438
0.017758
0.0100729
0.00334679
0.00280223
0.00179806
0.0719999
0.0108082
0.00237995
0.00156529
0.00150994
0.001628
0.00189665
0.00399263
0.00709812
0.00928805
0.0186298
0.0114199
0.00304059
0.00257854
0.00207499
0.0719999
0.0114581
0.00254509
0.00159931
0.00150483
0.00160637
0.00185526
0.00408633
0.00743671
0.00903669
0.0183183
0.0133451
0.00324385
0.00212502
0.00163365
0.0719999
0.0120341
0.00271313
0.00164274
0.00151309
0.00159645
0.0017879
0.00408682
0.00764552
0.0088853
0.0177707
0.0157933
0.0037275
0.00207628
0.00146872
0.0719999
0.0125165
0.00286902
0.00168947
0.0015312
0.00159838
0.00170292
0.00398619
0.00772766
0.00876829
0.0172901
0.0179539
0.00442228
0.00217056
0.00147796
0.0719999
0.0128959
0.00300363
0.00173382
0.00155215
0.00160584
0.001639
0.00379934
0.00768126
0.00860772
0.0167253
0.0193945
0.0052353
0.00224184
0.00154255
0.0719999
0.0131792
0.00311185
0.00177198
0.0015716
0.00161499
0.00162878
0.00357853
0.00751183
0.00822808
0.0158951
0.0204406
0.00597647
0.0022729
0.00156514
0.0719999
0.013381
0.00319378
0.00180216
0.00158747
0.00162478
0.00163227
0.00340002
0.00719565
0.00767918
0.0147218
0.0213451
0.00664731
0.00229891
0.00158258
0.0719999
0.0135182
0.00325269
0.00182438
0.00159865
0.00163229
0.00163623
0.00323095
0.00669864
0.00714515
0.0131351
0.0222215
0.00734157
0.00231978
0.00160543
0.0719999
0.0136054
0.00329302
0.00183989
0.00160544
0.00163628
0.00163618
0.00305638
0.00614784
0.00678385
0.0112161
0.0229537
0.00814815
0.00234829
0.00162711
0.0719999
0.0136599
0.00331911
0.00185046
0.00160906
0.00163719
0.00163183
0.00287346
0.00559737
0.00645874
0.00941425
0.023109
0.0091266
0.00241255
0.00165206
0.0719999
0.0136638
0.0033364
0.00185803
0.0016111
0.00163657
0.00162467
0.00267478
0.00504558
0.0060745
0.00844947
0.021848
0.0101638
0.002551
0.00170484
0.0719999
0.013604
0.00333909
0.00186499
0.00161345
0.00163638
0.00161646
0.00244927
0.00447671
0.00564665
0.00774144
0.018867
0.0110644
0.00279909
0.00180542
0.0719999
0.0134665
0.00332303
0.00186903
0.00161858
0.00163831
0.0016088
0.00219066
0.00388156
0.00518376
0.00705828
0.0158523
0.0113463
0.00317442
0.00191692
0.0719999
0.0132372
0.00328407
0.00186836
0.00162465
0.00164374
0.00160508
0.00191358
0.00328554
0.00468693
0.00632736
0.0130108
0.0105935
0.00368547
0.0019793
0.0719999
0.0129076
0.00321859
0.00186131
0.00162987
0.0016512
0.00161259
0.00167518
0.00276561
0.00417643
0.00555516
0.01026
0.00903205
0.00386818
0.00204849
0.0719999
0.0124763
0.00312514
0.00184657
0.00163287
0.0016598
0.00162761
0.00161924
0.00241359
0.00371437
0.00479911
0.00764699
0.00703228
0.00365033
0.0020895
0.0719999
0.0119527
0.00300555
0.00182392
0.00163266
0.0016683
0.00164525
0.00182254
0.00240475
0.00336886
0.00416001
0.00544592
0.00512026
0.00317048
0.00202365
0.0719999
0.0113713
0.00286575
0.00179463
0.00162915
0.00167544
0.00166282
0.00207131
0.00275827
0.00333408
0.00366141
0.0039203
0.00362349
0.0026111
0.00186913
0.0719999
0.01086
0.00271821
0.00176196
0.00162347
0.00168107
0.00167931
0.00230832
0.00324078
0.00368154
0.00366357
0.00298816
0.00258202
0.00210433
0.00167322
0.0719999
0.0105263
0.00259765
0.00173124
0.00161777
0.00168635
0.0016941
0.0025156
0.00376598
0.00413501
0.00412218
0.00318558
0.00195015
0.00170148
0.00147919
0.0719999
0.0103566
0.00252743
0.00171098
0.00161518
0.00169391
0.0017077
0.00269767
0.00427843
0.00461014
0.0046939
0.00430286
0.00211214
0.00143336
0.00131353
0.0719999
0.0103195
0.00249961
0.00170702
0.00162132
0.00170651
0.00172215
0.00286505
0.00476438
0.00506941
0.00529773
0.00588986
0.00291567
0.00149194
0.00119876
0.0719999
0.0103804
0.00250659
0.00171948
0.00163937
0.0017252
0.00174432
0.00302737
0.00523302
0.00550718
0.00586615
0.00789711
0.00404297
0.00182061
0.00121984
0.0719999
0.0104979
0.0025414
0.00174722
0.0016692
0.00175253
0.00180067
0.00319581
0.00569961
0.00592832
0.00637385
0.0100517
0.00559618
0.00223678
0.0013569
0.0106445
0.0719999
0.00259555
0.00178918
0.00171084
0.00179196
0.0019
0.00340937
0.00616635
0.00633068
0.00681948
0.012252
0.00747139
0.00275402
0.00152853
0.00266234
0.0108519
0.0719999
0.00184438
0.00176496
0.00184633
0.00203546
0.00367237
0.0065847
0.00670001
0.00724733
0.0144983
0.00939203
0.00330582
0.0017277
0.00191152
0.00275165
0.0116594
0.0719999
0.00183273
0.00191892
0.00220077
0.00396249
0.00693025
0.00706317
0.0079041
0.016871
0.0109699
0.00379122
0.00192742
0.00191344
0.00199138
0.00305892
0.0131781
0.0719999
0.00201268
0.00239562
0.00426345
0.00720848
0.00750819
0.00936395
0.0193085
0.0119796
0.00408366
0.00209686
0.00212503
0.00200313
0.00220083
0.00364463
0.0174598
0.0719999
0.00262432
0.00457069
0.00743442
0.0080542
0.0111957
0.0208436
0.0122097
0.0040624
0.00220359
0.00287599
0.00224431
0.00219763
0.00251735
0.005156
0.0269514
0.0719999
0.00488193
0.00762945
0.00865212
0.0127887
0.0213483
0.0117675
0.00379171
0.00222713
0.00517184
0.00310911
0.00246889
0.00238678
0.00323192
0.00894418
0.050136
0.0719999
0.00781379
0.00927414
0.0140042
0.0212196
0.0110538
0.00354531
0.00225198
0.00800536
0.00536924
0.00343495
0.00259811
0.00266003
0.0051855
0.0164348
0.0685591
0.0719999
0.00992467
0.0149408
0.0207898
0.0102741
0.00329526
0.00223795
0.0106165
0.00822037
0.00555891
0.00353463
0.00264877
0.00344485
0.00894494
0.0265764
0.0718571
0.0719999
0.015706
0.0201971
0.00945532
0.00304073
0.00215999
0.0162103
0.0115106
0.00854067
0.00548847
0.00340576
0.00287462
0.00587584
0.016104
0.0335386
0.0870214
0.0719999
0.0194171
0.00860761
0.00281801
0.00204284
0.0180065
0.0163454
0.0121201
0.00869833
0.0051671
0.00325514
0.0043196
0.0120561
0.0264596
0.0509879
0.113257
0.181184
0.00768773
0.00263242
0.00191741
0.00659053
0.0152067
0.0161487
0.0119847
0.00864021
0.00473692
0.00376508
0.00897574
0.0246153
0.0495899
0.084743
0.165485
0.268309
0.102368
0.00251071
0.00180515
0.00236387
0.0049973
0.0127994
0.0162108
0.0115964
0.00846446
0.0047642
0.00635474
0.0204647
0.0506599
0.0849221
0.143848
0.214893
0.595158
0.307954
0.159816
0.00170962
0.00164004
0.00209194
0.00438398
0.0110946
0.0165963
0.0110533
0.00837113
0.00559358
0.0132996
0.0445594
0.0871464
0.134261
0.165606
0.362826
1.63365
0.960996
0.414975
0.237242
0.00147478
0.00206743
0.00392398
0.00976719
0.0171356
0.0104987
0.00865227
0.00784642
0.0290612
0.0812333
0.130688
0.136099
0.238567
0.959727
3.50024
2.68568
1.50187
0.566932
0.339976
0.00144329
0.00208423
0.00357066
0.00841529
0.0177942
0.0102993
0.0095014
0.0127549
0.0577293
0.114623
0.115433
0.170992
0.540467
2.10165
7.01918
6.02777
4.4181
2.27592
0.807171
0.475035
0.00147061
0.00208447
0.00324154
0.0068077
0.0186159
0.0102735
0.0106314
0.0252386
0.089086
0.0942115
0.123905
0.314961
1.24879
4.21671
39.6015
11.4518
9.93881
7.07218
3.497
1.18778
0.648817
0.0014957
0.00206736
0.00286679
0.00533731
0.0206949
0.0112674
0.0138597
0.056774
0.0674859
0.0872022
0.191167
0.712259
2.46379
22.3796
325.885
37.6473
326.043
323.926
324.032
18.361
15.4539
10.6597
5.22853
1.79836
0.877159
0.00151501
0.00203131
0.00260853
0.00538495
0.0409169
0.0214355
0.0286461
0.0368545
0.0561217
0.110639
0.375245
1.35041
11.706
122.995
317.583
429.147
30.4511
317.722
261.217
261.44
429.333
419.4
419.56
27.3812
22.0407
14.8657
7.08539
2.5013
1.08994
0.0015037
0.00206204
0.00263956
0.0251945
0.338014
0.13477
0.0396177
0.029753
0.061677
0.165587
0.673888
5.61993
60.2116
372.428
372.48
367.36
367.377
416.515
480.326
42.6841
64.9756
416.715
337.799
338.048
480.3
465.285
465.239
37.1337
28.5569
17.5574
8.01408
3.04738
1.28559
0.00150967
0.00218008
0.00764611
0.275108
2.29553
0.677654
0.0796862
0.0383447
0.0657426
0.278994
2.17758
43.8305
355.28
355.272
355.039
355.156
487.323
487.434
492.153
492.121
471.921
466.255
755.283
463.668
761.445
56.9611
66.9559
304.306
304.308
330.629
330.673
471.906
438.99
439.001
465.958
756.731
463.995
760.838
458.4
721.67
449.131
750.107
457.802
722.584
449.205
748.637
45.981
31.8523
17.759
8.08944
3.4815
1.44202
0.00159091
0.00326629
0.103286
1.84758
7.79695
2.23732
0.639096
0.241912
0.094491
0.848536
32.1275
344.065
344.157
342.476
342.656
499.004
498.892
504.394
504.234
762.605
806.275
472.905
769.914
478.196
466.475
807.437
763.788
473.267
770.336
478.344
466.862
815.612
499.262
803.783
494.255
815.961
499.359
804.041
494.305
466.292
758.929
463.664
769.305
485.013
839.187
480.194
850.097
71.8639
89.6059
254.94
254.989
268.847
268.826
372.887
372.845
419.145
419.197
466.197
759.715
463.761
769.017
452.341
694.477
433.302
751.489
452.677
697.327
434.085
752.31
484.863
841.326
480.986
850.058
479.608
839.601
478.971
838.442
50.3291
30.9406
16.5861
7.54371
3.74599
1.64292
0.00186133
0.0285294
0.939812
7.00843
18.5025
7.4154
4.30422
1.09536
0.321097
27.1559
325.947
326.059
300.17
300.302
493.673
493.509
489.143
489.005
836.199
509.488
845.55
513.791
836.936
509.709
848.111
514.595
834.003
510.866
849.586
517.083
836.046
511.472
852.023
517.896
841.705
808.577
478.257
478.844
843.454
490.532
843.385
809.722
479.504
478.641
843.809
490.696
907.677
521.557
888.066
512.868
908.417
521.81
888.196
512.919
487.931
845.512
483.237
857.813
493.724
859.864
487.704
872.972
79.591
124.112
260.2
260.309
241.647
241.707
278.784
278.661
309.962
309.881
572.581
349.502
608.856
369.535
574.204
350.1
609.823
369.869
693.654
762.879
419.916
664.099
405.45
446.556
694.375
765.775
420.136
664.702
405.648
447.748
488.041
846.425
483.508
858.118
476.877
840.072
477.582
841.445
493.41
861.363
488.451
872.095
491.088
868.728
490.316
867.127
48.3665
28.3425
14.8987
6.47393
4.0426
1.89846
0.00550208
0.327268
4.28329
17.4442
31.2278
26.567
11.0269
3.05655
3.76531
280.433
280.546
268.073
268.125
455.054
454.952
423.944
424.015
824.119
504.114
826.476
505.034
826.007
504.732
828.827
505.721
804.729
495.864
820.13
500.919
807.253
496.628
822.197
501.584
924.824
531.663
937.323
538.053
925.97
532.14
940.061
539.277
944.354
540.396
952.326
544.525
947.147
541.599
954.642
545.71
496.379
868.96
491.923
879.056
74.2451
142.328
311.355
311.333
276.894
276.826
257.377
257.053
246.359
246.225
382.104
238.56
416.509
255.132
386.92
239.547
421.789
256.611
494.393
300.177
464.76
283.773
497.58
301.333
469.348
285.255
613.228
350.118
661.922
377.637
615.886
351.25
663.2
378.216
811.929
727.429
422.408
460.284
714.665
410.34
814.798
728.202
422.691
461.602
715.369
410.645
496.359
869.353
492.093
878.699
485.076
858.759
485.854
860.183
44.127
25.5491
12.4732
5.33244
4.67625
2.23599
0.0685918
1.87293
12.7265
29.2885
40.7472
43.5972
15.3877
10.3196
49.3847
398.596
398.692
393.739
393.824
512.443
512.41
488.809
488.81
927.342
531.701
929.638
532.488
929.799
532.838
932.065
533.587
895.208
517.579
920.094
527.346
898.149
518.85
922.492
528.465
959.669
545.692
962.92
547.043
66.2445
117.6
330.211
330.443
332.339
332.376
299.633
299.482
271.098
270.9
300.055
212.938
316.742
209.344
299.569
212.315
317.489
208.351
340.847
214.652
333.681
211.74
344.964
215.103
336.439
211.506
387.692
218.472
432.344
243.989
393.645
220.637
438.63
246.663
530.158
301.985
491.311
278.266
534.758
304.02
497.176
280.828
39.912
21.9677
9.6886
5.32352
5.96831
2.49467
0.541848
6.75673
23.8867
37.3247
46.2875
48.9754
29.8069
30.1239
297.471
297.591
280.969
281.076
457.23
457.027
434.451
434.639
491.09
796.268
493.008
794.009
491.06
796.372
493.141
793.95
479.657
766.736
472.933
781.115
479.637
768.402
473.393
781.008
954.135
541.967
959.158
543.62
956.821
543.271
961.325
544.776
927.782
527.45
949.205
538.637
930.919
528.913
951.183
539.771
60.1261
98.7402
203.514
322.172
322.543
325.415
325.263
284.827
284.271
227.337
227.32
277.126
198.407
280.304
180.361
277.384
198.482
281
180.371
325.218
189.22
301.818
181.081
328.821
190.179
303.35
181.328
361.902
204.579
367.333
206.717
34.4169
17.349
8.83074
6.76757
6.90691
2.22089
2.54626
15.7196
32.2196
40.9384
50.4274
57.1333
75.0989
66.0595
421.513
421.33
386.95
386.828
733.503
450.122
448.53
721.069
734.821
450.505
448.408
720.953
475.155
475.065
502.845
862.742
500.95
872.946
502.692
863.464
501.213
872.34
500.339
855.984
490.058
875.494
500.273
857.711
490.81
875.193
920.932
524
924.115
525.325
50.4927
90.6406
151.534
433.352
433.27
426.953
426.658
360.84
360.93
338.534
337.22
219.515
412.964
254.593
343.773
219.606
410.751
252.414
345.326
190.584
253.713
176.625
286.805
191.396
254.849
176.915
289.095
229.189
152.143
226.794
143.543
230.852
152.264
228.533
143.908
295.004
171.719
258.222
154.37
297.967
172.724
259.973
154.837
27.4232
14.9873
10.0649
8.38777
4.63901
7.66359
23.9945
34.9014
42.1967
53.9135
74.8215
127.308
314.882
314.809
277.393
277.423
713.246
433.513
691.745
430.327
713.829
433.674
693.177
430.591
458.596
458.528
824.809
471.532
466.294
802.851
826.61
472.318
466.423
803.433
736.866
454.123
744.216
457.754
738.028
454.359
744.139
457.671
503.062
872.971
495.302
886.79
503.285
875.212
496.233
887.604
39.2321
72.2733
141.829
252.985
469.199
468.695
467.921
466.646
405.796
405.403
476.407
290.155
329.671
523.751
471.712
287.322
328.135
520.302
204.717
410.171
244.48
335.225
204.716
408.382
243.431
335.663
171.505
224.315
148.066
268.608
171.822
225.185
148.369
269.463
203.86
135.945
205.955
136.419
22.7472
15.1881
11.5598
7.05424
14.7767
27.7866
34.5973
41.9941
52.9347
82.6502
239.815
239.79
253.543
253.585
397.271
397.109
277.477
277.416
809.169
461.279
779.604
454.589
809.978
461.682
780.507
454.946
453.734
701.322
437.917
742.348
453.831
702.872
438.227
742.623
852.102
482.323
476.947
838.857
853.021
482.927
476.913
838.714
823.498
470.572
817.317
469.636
824.787
471.063
817.119
469.587
31.5368
53.5343
104.635
241.256
503.063
502.723
533.304
532.814
541.811
541.221
681.267
401.896
727.859
437.937
677.838
399.96
727.288
437.029
649.593
382.355
589.132
347.56
546.185
327.715
649.112
381.563
590.692
348.143
543.152
326.487
487.751
286.203
484.461
284.642
199.462
401.469
238.202
324.092
200.074
402.145
238.137
325.937
21.2848
15.6298
9.41748
18.4582
28.1139
32.4765
38.8209
48.8162
104.424
259.399
259.316
248.987
248.983
587.589
763.718
372.409
565.701
360.808
444.159
765.001
588.648
444.631
372.553
567.177
360.806
320.92
224.823
374.906
247.902
318.357
223.66
372.127
247.033
836.768
473.284
827.927
470.885
837.661
473.764
828.641
471.248
465.733
813.078
465.925
813.381
478.54
844.143
478.469
843.956
837.995
475.082
839.553
475.656
28.0943
41.4836
72.5335
158.361
481.44
481.586
497.632
497.501
565.569
564.186
603.068
601.872
469.043
827.913
489.788
807.217
446.678
774.8
469.391
825.584
487.697
808.11
446.859
775.108
725.261
416.324
725.216
416.247
689.24
396.346
619.869
558.557
358.819
325.829
690.843
396.933
620.506
557.326
359.167
325.218
486.75
284.04
484.583
282.957
20.3949
11.7253
20.7095
24.1954
28.4245
34.139
49.0487
183.662
183.634
148.511
148.611
263.318
263.327
234.296
234.337
755.403
590.004
356.312
432.822
539.956
328.808
756.703
591.563
433.277
356.646
542.625
329.27
350.899
221.299
377.534
238.745
352.004
221.698
378.843
239.462
836.287
473.984
836.955
474.331
25.4464
35.6377
53.896
101.117
262.593
504.65
504.7
519.595
519.064
827.876
489.345
877.371
506.66
824.974
486.993
874.265
504.811
895.845
888.799
515.29
899.711
518.372
508.461
892.889
886.564
513.515
896.523
516.123
507.177
481.761
452.861
844.509
789.968
482.443
453.538
845.753
791.309
736.261
425.516
737.407
425.981
688.009
401.2
577.473
336.217
690.906
402.151
576.291
335.744
13.8522
15.1919
19.5865
25.5528
34.9423
76.9595
164.627
164.139
145.223
145.317
230.016
382.825
233.973
372.317
230.416
384.156
234.516
373.364
232.675
232.684
368.655
228.994
366.556
230.464
371.236
229.872
367.641
230.976
15.8014
30.8997
44.6264
71.5235
150.196
459.642
459.923
543.392
543.249
532.326
532.336
569.035
568.312
874.427
499.882
909.245
514.459
873.153
498.99
908.296
513.839
896.566
901.8
510.46
515.736
927.615
525.435
895.455
898.427
514.11
509.678
924.036
523.551
458.985
789.907
459.737
791.493
9.50926
18.0018
24.3621
48.2363
172.317
172.213
166.971
166.996
168.571
168.573
152.471
152.542
225.468
387.489
235.932
364.807
225.548
387.79
236.108
364.789
256.767
171.393
309.49
198.134
257.859
171.676
309.862
198.321
394.06
240.22
394.793
240.516
17.5598
37.0003
56.2903
99.4076
242.738
481.565
481.688
561.549
560.926
599.326
598.682
476.939
831.955
482.456
795.093
477.098
830.466
481.893
795.698
871.995
495.23
906.916
513.143
872.12
495.073
905.982
512.615
8.56763
17.8325
25.2619
72.2482
204.166
204.292
141.9
140.257
264.536
170.205
168.679
247.618
161.605
240.943
265.375
170.597
168.816
247.609
161.589
240.938
221.88
221.898
215.35
370.748
230.168
342.535
215.412
370.71
230.196
342.622
291.312
184.246
291.674
184.396
19.1124
44.1569
72.3182
146.027
423.726
423.855
476.874
476.78
496.765
497.094
603.254
601.822
856.746
509.398
870.64
501.98
851.794
491.941
855.218
507.403
873.193
503.074
851.859
492.332
851.54
485.616
852.149
486.01
857.42
487.747
859.267
488.209
9.29686
16.4727
30.7376
96.3665
95.5874
101.072
100.946
188.834
187.806
122.32
119.907
281.147
171.618
192.883
286.712
173.906
300.92
282.286
172.097
192.386
285.773
173.456
297.998
384.926
240.363
381.34
222.044
384.707
239.645
382.634
223.338
20.4638
52.9195
95.2331
230.576
446.433
446.247
499.98
499.135
564.997
563.722
896.362
515.352
492.32
891.387
514.511
820.82
490.033
886.448
511.821
817.502
895.524
514.62
874.892
862.196
497.726
492.27
878.676
865.244
499.436
493.765
840.409
482.195
841.802
482.9
8.20274
15.5104
32.9906
90.6741
90.8576
94.082
94.1385
313.538
193.719
141.38
207.076
139.319
186.911
305.75
192.466
143.507
191.06
136.44
181.692
109.995
109.861
200.175
343.768
201.699
345.389
333.99
192.174
333.09
192.643
21.6389
63.699
127.423
389.895
389.869
434.862
434.642
456.489
456.101
532.764
531.154
744.377
451.178
816.727
472.858
867.925
499.388
741.559
862.298
496.416
448.8
814.272
471.737
887.818
510.343
881.776
506.242
876.27
885.302
503.912
509.147
7.20203
17.1629
43.5322
121.308
120.999
106.008
106.149
236.464
147.88
129.984
176.948
125.615
166.91
216.672
139.177
128.848
174.593
123.538
164.937
180.293
170.188
159.229
136.894
178.967
165.934
160.296
134.406
264.768
158.678
254.87
154.703
22.608
76.5375
171.578
403.311
403.046
439.119
438.183
503.342
501.634
785.1
454.235
427.688
765.643
444.608
698.053
784.545
453.628
424.657
760.884
442.231
693.08
803.437
846.235
460.241
485.794
841.488
483.692
803.67
460.423
7.74408
17.1878
102.19
107.136
107.385
101.857
81.7186
81.6825
132.669
181.336
157.429
132.178
182.558
155.143
182.692
126.488
122.798
180.532
125.116
174.059
174.491
120.583
120.766
179.182
124.77
170.625
171.414
123.88
174.318
123.029
23.2702
90.9602
215.845
401.063
400.635
454.476
452.928
638.645
400.46
711.24
413.397
752.427
434.444
633.734
746.621
431.247
396.386
708.714
411.898
789.298
449.865
776.208
440.927
789.113
449.475
772.178
438.91
788.803
451.382
791.596
452.451
6.89521
15.5442
141.418
97.5928
141.303
97.1983
76.43
76.286
191.377
180.106
145.259
187.418
155.034
145.031
214.75
191.162
182.821
200.868
142.885
189.241
152.391
144.244
216.839
187.416
118.907
168.383
117.37
166.571
168.214
117.661
176.502
119.036
23.3902
105.312
339.838
409.864
409.249
339.775
394.184
393.982
470.823
668.913
399.83
469.648
665.389
397.205
751.322
702.129
425.494
401.679
748.817
424.13
701.331
401.139
781.662
444.949
766.859
434.883
779.792
444.041
763.844
433.416
3.77013
20.3108
137.038
171.064
225.519
113.878
136.403
171.611
223.696
114.014
78.121
78.6426
178.141
190.66
168.107
121.644
120.751
127.363
186.771
179.126
193.716
125.201
124.237
127.929
116.522
163.427
119.236
172.073
22.5552
127.371
343.804
420.21
419.909
343.236
393.76
392.693
644.224
667.434
389.999
670.311
396.67
379.59
568.479
369.216
641.581
665.63
388.628
667.167
394.364
378.531
566.782
367.181
727.876
692.181
413.288
396.772
727.313
412.945
691.49
396.413
3.21182
96.2072
86.5258
86.372
95.4027
75.8694
75.4843
199.8
167.049
203.451
156.525
218.146
197.069
189.686
163.53
131.35
183.639
173.414
199.103
167.082
200.68
155.41
215.562
192.902
187.814
161.233
131.189
182.382
169.244
179.424
195.6
123.022
130.654
184.959
194.554
126.089
130.63
21.177
120.443
316.493
441.591
364.641
594.793
441.184
365.938
597.289
314.761
401.581
397.865
663.249
631.764
674.59
382.546
390.333
366.747
662.273
632.265
674.236
390.204
382.227
367.164
707.314
403.835
707.691
403.959
12.9408
120.25
122.63
119.713
122.067
92.1273
91.8288
190.441
185.168
130.141
130.502
177.601
137.011
207.677
192.213
169.997
195.352
178.068
180.87
201.617
200.895
189.279
182.997
130.531
128.114
173.668
133.62
191.2
203.509
167.924
193.575
174.3
178.254
199.84
198.31
18.6785
79.0514
301.455
299.262
80.9172
169.023
171.693
546.811
361.663
604.789
357.694
596.188
365.215
599.06
355.253
538.722
362.828
607.798
358.673
598.737
358.304
597.691
354.431
409.458
587.816
362.231
404.323
577.032
354.379
651.99
623.573
378.766
361.885
651.389
626.065
378.839
363.215
16.8984
133.115
180.272
193.22
146.338
132.697
180.944
193.452
145.916
108.768
108.616
176.912
127.585
193.976
145.473
202.416
204.282
196.507
149.854
147.497
152.472
172.662
124.905
189.366
142.084
196.481
194.528
202.454
148.418
143.365
151.598
19.8765
121.777
257.968
254.627
123.256
168.649
169.543
616.747
606.979
355.941
349.459
596.096
344.694
620.7
609.677
357.679
350.486
593.755
343.046
528.686
594.629
347.684
594.295
357.25
320.498
427.753
315.239
508.751
582.16
340.523
582.484
349.344
309.686
412.886
306.349
52.2623
111.66
111.714
149.885
184.633
205.601
188.793
201.125
148.752
149.59
186.491
204.394
187.192
202.521
148.465
196.236
188.954
204.623
145.044
135.41
148.776
190.716
185.82
205.992
142.303
133.478
149.823
22.8487
111.57
263.839
280.65
401.987
260.438
276.974
391.277
113.598
149.505
152.937
599.871
345.961
597.267
344.921
601.007
346.27
591.714
342.188
581.428
475.061
596.389
333.797
345.02
280.215
565.907
453.27
588.328
341.652
326.321
270.394
16.4953
128.802
121.874
128.896
122.198
150.859
193.179
218.935
194.294
220.293
216.206
154.924
128.721
150.678
194.814
217.45
192.475
221.928
213.268
153.103
128.714
186.931
133.406
187.001
133.279
26.564
125.276
126.138
249.694
280.777
400.262
280.532
398.576
248.908
274.976
386.65
272.463
386.084
154.562
156.17
543.085
590.892
452.789
317.853
343.903
265.982
525.711
580.027
431.572
339.894
310.634
257.49
16.7781
99.1005
112.477
99.4627
112.598
101.454
101.51
133.194
191.755
225.813
191.548
223.207
162.954
235.994
165.144
236.139
197.354
139.682
133.058
194.362
227.416
192.351
225.959
164.543
232.649
162.818
240.084
194.133
137.946
32.379
135.795
155.341
136.531
155.868
246.077
266.145
387.713
273.726
370.894
425.412
253.587
245.586
268.248
380.847
269.682
373.585
411.249
248.442
163.364
164.429
501.034
295.098
482.668
288.713
14.3336
117.201
119.385
117.379
119.315
126.395
152.03
126.246
151.835
111.116
110.922
180.584
215.599
186.502
203.561
160.423
234.453
165.139
229.74
155.886
219.831
152.418
225.503
181.784
216.045
186.361
204.326
164.064
238.313
167.466
236.433
155.864
214.843
149.678
227.186
34.3904
187.518
208.927
188.125
209.206
171.333
172.5
240.543
263.119
379.541
266.051
368.82
250.233
410.981
249.36
400.985
461.18
278.533
241.061
264.796
376.285
263.308
371.764
249.906
402.998
247.038
399.504
446.127
274.511
2.24136
106.022
88.2396
105.979
87.9541
166.36
171.701
166.147
171.345
131.94
153.908
131.666
153.815
167.965
177.419
162.35
180.316
169.353
178.362
163.431
181.417
155.309
224.875
161.011
212.51
156.506
226.239
161.794
214.481
31.1503
226.835
227.765
227.051
228.19
224.129
263.31
224.363
263.015
229.979
231.047
257.804
378.764
265.09
355.061
250.187
401.052
248.656
399.031
274.555
426.57
270.515
422.068
262.349
377.909
263.655
363.099
250.511
403.066
249.338
399.493
275.272
419.252
269.889
419.738
20.2816
2.80839
151.18
119.091
150.779
118.35
179.67
191.887
179.559
191.591
183.104
197.898
179.177
200.892
188.908
227.541
188.931
217.693
185.696
200.22
181.364
203.478
191.202
228.001
188.872
220.222
148.439
202.43
151.064
199.463
149.714
204.419
152.525
201.459
25.3897
223.905
168.906
224.341
169.938
273.104
270.695
272.727
270.62
269.653
321.675
269.352
319.958
254.73
346.109
257.32
342.079
258.818
348.077
257.798
349.621
246.044
403.47
247.45
397.189
248.167
407.275
248.73
404.003
12.4787
105.024
89.2407
104.884
89.5015
4.07843
168.775
144.381
168.415
143.986
200.678
260.189
200.181
261.073
209.641
282.037
211.942
277.432
202.576
260.806
200.24
263.635
210.806
279.92
210.089
278.95
161.199
221.821
162.858
219.038
172.093
259.866
182.648
238.961
163.88
225.437
165.308
223.068
174.073
260.175
182.727
242.262
20.9391
101.622
260.532
243.261
260.249
243.605
333.868
329.237
331.724
327.5
271.159
366.089
263.032
388.284
286.212
481.584
306.871
433.063
271.398
364.602
261.705
388.554
286.097
472.424
301.565
432.498
240.283
376.945
240.457
381.42
242.748
382.712
242.196
389.54
11.5073
84.9285
62.2726
85.0485
62.7539
151.039
124.82
150.996
125.051
4.81571
196.1
254.383
200.343
242.96
188.982
227.854
203.709
226.351
197.731
252.255
198.594
244.714
189.536
225.057
201.083
226.691
198.338
296.781
197.861
298.882
210.386
335.848
215.843
324.092
200.524
297.652
198.26
302.848
211.994
331.502
213.533
326.868
20.1636
81.3056
221.409
220.607
219.248
218.586
310.873
251.825
307.906
249.942
305.352
493.794
311.593
479.368
301.008
467.443
301.931
465.384
303.476
482.524
305.205
476.072
300.532
457.576
296.111
463.84
276.243
396.91
253.798
435.404
289.179
517.167
306.737
475.905
276.075
399.323
254.566
434.583
288.264
511.263
304.914
473.148
36.8504
12.5118
110.81
87.737
110.588
87.4841
225.087
263.746
182.462
222.413
188.739
206.348
206.858
199.847
203.607
183.929
222.084
258.03
179.873
218.286
184.455
203.212
203.08
195.295
199.489
179.411
6.68063
193.053
309.341
201.914
291.196
188.674
275.011
193.776
304.644
199.487
291.655
187.659
272.48
213.584
347.868
218.628
334.397
213.982
341.907
215.541
335.271
22.8229
88.1644
251.092
251.201
250.3
250.98
285.092
288.523
281.267
285.262
276.807
455.72
295.581
409.598
267.207
359.256
285.305
366.442
272.4
441.944
287.44
401.134
266.165
349.999
277.522
361.653
306.333
528.305
311.495
519.873
295.785
490.309
286.929
501.823
304.715
521.497
309.389
515.176
293.86
481.249
283.418
496.918
26.4866
107.296
98.5061
107.482
98.5548
14.7666
134.072
139.397
133.475
139.242
283.331
256.092
190.287
181.103
257.51
179.089
220.654
185.614
234.441
169.249
275.687
251.915
185.891
178.35
250.989
174.833
214.488
182.239
227.319
164.648
8.31917
190.487
320.681
202.599
297.549
183.72
281.622
190.172
315.043
199.564
296.907
181.496
277.075
24.285
92.1664
209.26
308.784
344.963
307.544
344.679
372.895
352.186
244.698
416.601
278.472
249.196
445.513
319.462
444.844
298.739
337.497
364.446
239.941
410.19
273.536
242.495
441.709
314.423
439.869
293.791
250.214
466.833
272.95
423.481
215.751
350.687
246.334
455.51
268.635
412.543
211.648
337.225
302.849
489.021
292.269
502.2
302.026
483.374
290.891
498.782
29.0192
94.4485
103.734
94.4639
103.739
129.298
94.8929
128.794
94.7124
16.9028
167.743
191.892
165.108
196.132
168.983
213.212
194.743
212.354
169.006
190.083
164.623
195.379
171.014
215.902
191.576
212.057
281.821
187.677
216.255
158.781
229.125
161.292
274.617
183.598
210.033
155.521
222.416
157.307
8.99206
24.25
82.1859
192.133
433.056
463.105
431.768
462.478
399.721
405.364
399.656
404.383
368.232
387.214
254.957
229.17
457.394
279.583
513.061
313.265
487.836
289.039
360.427
382.244
227.441
255.539
457.752
280.409
515.582
314.841
491.527
290.679
264.845
470.87
282.261
433.731
244.092
384.274
263.386
462.267
280.458
423.549
242.711
374.342
67.7278
26.1513
76.5208
80.8227
76.4068
80.1111
170.132
192.871
146.252
160.642
146.223
149.113
145.408
133.025
145.974
133.419
170.688
201.131
145.214
160.542
145.13
147.344
146.463
131.938
145.94
132.64
17.9407
126.555
182.366
137.616
171.884
125.826
183.671
126.605
181.427
137.539
171.272
126.311
188.003
9.02263
23.4371
69.2221
142.584
480.484
466.925
480.24
466.919
526.234
540.619
523.312
538.336