/*--------------------------------*- C++ -*----------------------------------*\
| =========                 |                                                 |
| \\      /  F ield         | OpenFOAM: The Open Source CFD Toolbox           |
|  \\    /   O peration     | Version:  5.x                                   |
|   \\  /    A nd           | Web:      www.OpenFOAM.org                      |
|    \\/     M anipulation  |                                                 |
\*---------------------------------------------------------------------------*/
FoamFile
{
    version     2.0;
    format      ascii;
    class       volScalarField;
    location    "1.7";
    object      p;
}
// * * * * * * * * * * * * * * * * * * * * * * * * * * * * * * * * * * * * * //

dimensions      [1 -1 -2 0 0 0 0];

internalField   nonuniform List<scalar> 
12160
(
5294.01
5310.05
4640.05
5319.8
4656.14
3986.28
5329.05
4665.77
4002.43
3332.36
5338.59
4675.01
4011.83
3348.71
2678.88
5347.6
4684.66
4021.07
3357.54
2695.4
2024.78
5355.7
4693.69
4030.81
3366.98
2703.54
2041.96
1371.92
5363.45
4701.71
4039.94
3377.03
2713.05
2048.94
1389.32
717.217
5372.29
4709.19
4047.8
3386.28
2723.42
2058.77
1394.74
737.433
200.838
5384.05
4717.63
4054.74
3393.95
2732.94
2069.74
1404.68
740.684
211.382
2.26165
5400.58
4728.98
4062.37
3400.07
2740.38
2079.86
1416.56
751.158
212.327
1.32853
-6.63705
5422.95
4745.2
4072.9
3406.41
2745.39
2087.18
1427.33
764.585
218.868
2.04632
-6.84165
-7.47476
5451.09
4767.47
4088.58
3415.58
2749.91
2090.75
1434.46
777.429
230.121
3.49509
-6.81784
-7.47603
-8.23776
5483.87
4795.74
4110.78
3430.24
2757.2
2092.77
1436.41
786.053
242.404
6.84422
-6.8192
-7.49818
-8.19728
-8.78897
5519.51
4828.9
4139.45
3452.1
2770.57
2097.39
1435.12
786.882
251.448
11.0735
-6.80512
-7.50097
-8.16355
-8.79622
-9.52563
5555.86
4865
4173.4
3481.11
2792.31
2108.79
1436.17
781.991
252.804
15.7102
-6.78823
-7.51857
-8.15991
-8.81419
-9.51091
5590.99
4901.86
4210.61
3516.33
2822.48
2129.9
1445.04
778.541
247.584
17.5959
-6.7467
-7.53242
-8.16633
-8.82071
-9.48722
5623.36
4937.42
4248.34
3555
2859.48
2160.49
1465.66
783.748
242.054
17.0174
-6.65674
-7.54334
-8.17639
-8.82833
-9.4809
5651.93
4970.1
4284.64
3594.42
2900.29
2199.91
1500.54
802.11
242.675
15.6825
-6.55849
-7.53655
-8.18864
-8.83194
-9.48104
5676.05
4998.87
4317.87
3632.06
2941.44
2243.59
1542.13
836.904
253.548
15.6445
-6.46652
-7.50151
-8.18706
-8.83636
-9.48475
5695.41
5023.1
4346.98
3666.2
2980.58
2287.89
1588.39
880.169
276.695
18.1036
-6.3821
-7.45645
-8.16822
-8.83226
-9.48643
5709.86
5042.49
4371.38
3695.87
3015.83
2329.51
1635.9
931.197
310.619
24.1444
-6.24464
-7.4229
-8.13648
-8.81757
-9.48668
5719.43
5056.98
4390.83
3720.52
3046.16
2366.29
1679.65
982.64
352.056
34.4107
-6.02336
-7.41468
-8.10975
-8.80003
-9.48409
5724.12
5066.57
4405.34
3740.03
3071.1
2397.46
1717.98
1030.38
395.42
49.1846
-5.59533
-7.42723
-8.10126
-8.78852
-9.47825
5723.97
5071.34
4415
3754.55
3090.65
2422.67
1750.02
1071.09
435.25
66.079
-4.76711
-7.45655
-8.11079
-8.78545
-9.47244
5718.95
5071.29
4419.9
3764.28
3105.14
2442.14
1775.41
1104.46
469.392
82.8203
-3.33061
-7.50002
-8.13644
-8.79137
-9.4709
5709.05
5066.41
4420.07
3769.35
3114.93
2456.49
1794.6
1130.16
497.219
98.0337
-1.51831
-7.53248
-8.17421
-8.80608
-9.47285
5694.29
5056.67
4415.48
3769.85
3120.24
2466.28
1808.62
1148.88
518.21
110.878
0.311655
-7.53352
-8.21279
-8.82779
-9.47765
5674.72
5042.05
4406.07
3765.7
3121.18
2471.84
1818.32
1162.33
533.56
120.826
1.97464
-7.49664
-8.23843
-8.84923
-9.48406
5650.51
5022.59
4391.77
3756.8
3117.65
2473.34
1824.17
1171.67
544.531
128.023
3.35792
-7.43983
-8.24868
-8.86434
-9.49013
5621.9
4998.41
4372.57
3742.99
3109.47
2470.64
1826.34
1177.63
552.291
133.268
4.41885
-7.3745
-8.24654
-8.87111
-9.4944
5589.3
4969.74
4348.56
3724.18
3096.38
2463.44
1824.68
1180.61
557.757
137.358
5.21989
-7.30998
-8.23446
-8.87044
-9.49627
5553.39
4936.9
4319.96
3700.37
3078.15
2451.34
1818.76
1180.29
561.184
140.42
5.8823
-7.25828
-8.21697
-8.86403
-9.49614
5514.26
4900.27
4287.2
3671.66
3054.72
2433.91
1808.01
1176.18
562.233
142.315
6.39948
-7.223
-8.20018
-8.85447
-9.49428
5473.05
4861.52
4251.48
3638.05
3026.26
2410.95
1791.68
1167.23
560.232
143.064
6.68336
-7.20198
-8.19151
-8.84536
-9.49147
5430.43
4820.09
4210.61
3598.27
2993.23
2382.52
1769.42
1152.15
554.376
142.573
6.77019
-7.19455
-8.19147
-8.84061
-9.48882
5387.1
4777.11
4168.38
3560.41
2956.68
2348.87
1741.33
1130.39
543.483
140.275
6.68716
-7.20306
-8.19432
-8.84034
-9.48733
5343.8
4733.4
4124.61
3517.57
2913.38
2310.26
1707.99
1102.23
526.537
135.474
6.31726
-7.23098
-8.20464
-8.84219
-9.4869
5301.19
4689.7
4080.08
3472.7
2868.39
2266.75
1668.75
1067.14
503.742
127.742
5.57385
-7.27958
-8.22428
-8.84857
-9.48765
5259.89
4646.69
4035.56
3426.97
2821.71
2219.92
1623.04
1027.57
475.303
117.002
4.42183
-7.34112
-8.24766
-8.8598
-9.49006
4605.02
5194.64
3991.76
3381.24
2774.27
2171.15
1573.47
979.665
440.998
103.466
2.90001
-7.41214
-8.27063
-8.8732
-9.49352
3949.31
4539.19
5114.09
3336.22
2726.86
2121.63
1521.96
927.691
400.868
87.3695
1.07383
-7.48776
-8.29042
-8.88614
-9.49768
3292.61
3882.33
4458.19
5056.67
2680.17
2072.17
1469.92
874.227
357.456
69.2184
-0.992544
-7.55696
-8.30404
-8.89691
-9.50168
2634.92
3223.86
3800.39
4400.39
5009.41
2023.37
1418.05
821.262
315.348
51.0222
-2.98339
-7.59816
-8.30709
-8.90413
-9.50495
1975.99
2563.68
3140.49
3741.9
4353
4983.38
1366.67
769.404
277.288
35.8451
-4.48072
-7.59396
-8.29789
-8.90568
-9.50706
1316.63
1901.52
2478.34
3081.1
3694.39
4327.32
4964.11
718.23
243.292
24.3911
-5.38813
-7.56456
-8.27335
-8.90014
-9.50755
668.447
1238.52
1813.64
2418.01
3033.49
3669.56
4306.31
4948.86
211.921
15.9047
-5.90802
-7.5325
-8.23542
-8.88591
-9.50622
182.969
592.791
1148.72
1752.09
2371.04
3010.4
3646.5
4291.62
4938.29
9.51927
-6.22281
-7.50949
-8.20198
-8.86619
-9.50406
4.87303
143.242
511.871
1086.84
1706.2
2348.99
2985.2
3631.56
4273.7
4923.72
-6.41664
-7.49528
-8.17816
-8.84843
-9.50088
-6.53213
0.155368
105.217
459.054
1043.35
1685.12
2325.04
2973.38
3605.88
4248.53
4903.61
-7.47941
-8.1619
-8.83527
-9.49719
-7.45886
-6.63762
-2.65836
83.0102
425.751
1023.87
1663.71
2315.3
2939.45
3551.37
4220.91
5036.96
-8.1496
-8.82577
-9.49344
-8.1352
-7.43162
-6.67576
-3.71859
70.6319
411.657
1006.36
1657.74
2284.92
2875.92
3497.98
4261.96
4671.26
5511.14
-8.81883
-9.49035
-8.8094
-8.11567
-7.41058
-6.69094
-4.16699
66.1811
402.674
1004.55
1638.51
2237.32
2790.47
3468.2
4059.48
4475.16
5225
5941.4
-9.48784
-9.4845
-8.79812
-8.09849
-7.40212
-6.6957
-4.27852
64.766
404.315
995.134
1614.63
2132.14
2751.04
3432.14
3960.62
4233.18
4969.37
5735.08
6424.57
-9.48119
-8.78593
-8.09023
-7.39704
-6.68448
-4.20974
67.4086
400.501
994.301
1547.3
2142.19
2836.34
3415.6
3784
3948.28
4688.58
5473
6266.37
6982.56
-9.47446
-8.77901
-8.08574
-7.38514
-6.65699
-4.0419
66.8134
403.23
1010.64
1627.31
2282.75
2872.62
3315.58
3547.83
3627.93
4359.74
5170.58
6017.36
6858.26
7630.26
-9.46932
-8.77472
-8.07621
-7.36373
-6.60809
-3.81585
62.4058
437.99
1100.22
1737.78
2346.69
2826.46
3145.82
3292.53
3300.44
3997.18
4819.75
5714.99
6632.99
7528.9
8356.5
-9.46608
-8.76765
-8.05474
-7.32093
-6.52205
-4.19702
66.1881
522.642
1189.27
1811.69
2320.1
2726.1
2956.55
3006.55
2389.4
3627.67
2392.73
2304.21
2306.54
4427.43
5363.26
6354.18
7331.41
8265.28
9145.5
-9.46284
-8.75461
-8.01414
-7.2573
-6.38501
-4.89337
102.648
580.917
1238.35
1790.63
2272
2586.82
2738.98
2721.27
2499.48
2243.26
3987.56
2502.92
2632.89
2634.77
2244.8
2126
2126.69
4940.06
6019.16
7098.06
8105.29
9062.71
9986.36
-9.45711
-8.73002
-7.9467
-7.19417
-6.23589
-4.93928
128.945
609.331
1217.94
1739.98
2152.51
2419.68
2529.14
1947.24
1945.68
1897.2
1898.53
2338.61
2092.78
4434.74
3482.36
2340.09
2426.9
2427.99
2086.79
2012.95
2007.78
5583.46
6785.75
7913.28
8924.81
9907.81
10874.1
-9.44699
-8.6897
-7.84525
-7.01132
-6.05466
-4.63445
141.177
609.847
1161.55
1641.98
2018.44
2254.7
1842.36
1843.82
1770.86
1772.32
1823.08
1820.82
1793.51
1790.4
2142.63
1733.54
1646.54
1740
1643.99
5038.4
3750.71
2257.6
2258
2233.19
2231.01
2137.34
2188.84
2184.25
1731.24
1646.54
1737.46
1641.9
1732.95
1567.49
1733.64
1634.14
1730.4
1565.93
1730.51
1631.17
6373.73
7643.31
8763.19
9785.58
10791.3
11807.6
-9.43154
-8.62996
-7.72573
-6.75896
-5.82963
-4.15565
147.214
553.731
1077.29
1522.97
1874.31
1686.64
1687.48
1584.51
1585.34
1759.94
1755.41
1707.59
1701.67
1493.01
1533.5
1560.42
1471.01
1558.42
1613.19
1532.08
1495.78
1560.95
1472.06
1558.47
1612.59
1449.2
1537.49
1462.25
1555.6
1450.06
1537.25
1463.06
1555.5
1755.68
1653.1
1746.3
1662.25
1626.4
1621.15
1632.97
1613.05
5820.65
4228.87
2443.17
2442.13
2314.04
2313.75
1973.26
1969.34
1944.21
1941.55
1753.38
1653.25
1744.07
1659.79
1772.36
1638.83
1826.07
1673.56
1769.99
1640.8
1823.61
1671.09
1626.89
1623.62
1633.55
1615.96
1623.61
1595.97
1623.6
1596.79
7271.39
8536.87
9639.43
10671.3
11702.2
12782.7
-9.4105
-8.54547
-7.58558
-6.55316
-5.50102
-3.42721
119.302
480.906
965.265
1404.74
1418.23
1418.64
1275.05
1275.62
1626.1
1620.47
1534.2
1528.75
1438.75
1525.94
1405.01
1490.18
1440.41
1525.91
1409.84
1490.81
1372.8
1458.25
1384.33
1469.1
1376.06
1458.14
1388.17
1469.18
1523.83
1496.65
1523.67
1554.48
1494.75
1511.49
1525.62
1500.17
1555.15
1524.73
1496.04
1511.97
1467.04
1482.81
1494.77
1511.72
1467.9
1483.02
1495.22
1511.94
1629.23
1616.84
1631.64
1609.57
1573.23
1555.64
1566.68
1560.35
6753.75
5008.98
2926.93
2925.89
2641.44
2638.93
2177.08
2170.2
2033.38
2028.63
1495.02
1589.11
1501.5
1599.99
1499.93
1590.46
1505.38
1601.03
1476.86
1572.32
1546.03
1499.75
1593.96
1658.94
1482.64
1570.96
1547.74
1503.16
1594.86
1658.36
1630.22
1620.01
1632.61
1613.19
1626.12
1599.26
1626.2
1600.07
1573.35
1557.05
1567.39
1559.76
1574.35
1548.02
1574.26
1547.88
8221.72
9444.65
10533.4
11567.7
12637.6
13774.4
-9.38114
-8.46802
-7.46817
-6.39382
-5.10901
-2.1694
81.4313
414.758
858.452
1084.74
1085.44
884.621
885.365
1368.41
1365.78
1215.81
1215.79
1330.02
1417.22
1292.29
1379.68
1333.35
1417.14
1296.52
1379.59
1218.63
1325.83
1247.35
1339.69
1219.96
1324.64
1251.11
1339.35
1463.77
1477.24
1449.85
1461.53
1464.51
1477.45
1450.83
1461.98
1412.13
1422.4
1432.37
1442.65
1414.6
1423.31
1432.53
1443.02
1546.52
1542.41
1555.46
1530.51
7800.33
6073.82
3654.56
3655.8
3251.45
3251.97
2671.64
2660.45
2396.2
2387.81
1629.35
1718.79
1564.54
1655.2
1634.81
1720.26
1568.82
1656.84
1489.52
1577.77
1525.22
1618.75
1494.61
1579.07
1531.37
1620.25
1439.63
1464.68
1449.25
1474.1
1445.92
1466.92
1453.78
1475.88
1482.86
1452.02
1485.75
1504.19
1461.81
1486.08
1484.15
1453.97
1487.12
1504.67
1465.03
1487.45
1547.16
1544.92
1556.5
1531.77
1530.72
1509.59
1531.29
1511.09
9183.03
10361.3
11430.8
12458.1
13586.4
14778.3
-9.35858
-8.43568
-7.45121
-6.21667
-4.58642
2.21282
66.2084
358.934
732.563
1031.9
1032.38
806.3
807.088
1312.52
1311.44
1175.21
1173.03
1372.15
1382.45
1330.2
1342.89
1373.34
1383.03
1331.32
1343.39
1209.99
1254.48
1277.96
1298.28
1210.5
1254.55
1278.58
1298.55
1390.7
1406.97
1394.84
1408.24
8865.81
7292.19
4610.48
4614.45
4082.51
4083.88
3363.23
3357.84
2975.99
2967.22
2068.88
2232.19
1937.95
2045.11
2070.26
2231.14
1932.24
2042.95
1715.84
1801.36
1815.82
1925.29
1716.83
1801.62
1816.34
1924.91
1551.14
1588.75
1489.15
1518.15
1559.04
1591.45
1495.02
1520.88
1436.38
1459.97
1465.16
1491.74
1443.05
1462.42
1470.57
1494.09
10142.1
11272.5
12305.3
13351.7
14549.7
15762.4
-9.36143
-8.50572
-7.73641
-6.19274
-3.53442
12.4868
117.128
318.063
564.686
565.368
381.727
382.375
998.658
995.186
773.319
774.795
1130.84
1135.02
1187.35
1067.15
1130.37
1134.06
1187.19
1066.3
1063.5
929.539
995.565
999.167
1062.79
931.36
995.195
998.548
1368.03
1377.49
1325.8
1333.97
1370.48
1378.47
1327.02
1334.48
1221.41
1237.48
1276.42
1288.07
1223.52
1238.18
1277.02
1288.44
9897.9
8509.7
6856.34
4332.36
4332.97
3833.21
3828.47
3024.02
3020.38
2601.85
2599.73
1901.15
2009.9
1785.53
1858.68
1911.85
2012.8
1792.18
1860.45
1629.15
1677.58
1703.72
1769.37
1633.74
1679.31
1708.91
1770.92
1480.87
1522.26
1490.3
1525.14
11085.5
12149.6
13168.5
14254.2
15534.3
16517.7
-9.41886
-8.87877
-8.77306
-6.3187
2.39822
29.4206
182.202
196.852
516.87
514.992
316.195
315.647
842.018
904.413
833.64
746.244
843.901
903.858
832.353
746.875
743.723
741.18
1105.7
1152.49
1162.51
1099.64
1105.93
1154.5
1163.07
1099.8
1035.91
946.032
958.166
1028.81
1036.14
946.589
958.332
1029.53
1203.39
1217.74
1207.62
1218.9
10888
9643.98
8223.64
5368.59
5372.61
4656.33
4655.46
4069.46
4069.84
3561.37
3548.84
2386.02
2469.84
2634.49
2255.06
2388.73
2482.37
2637.55
2261.44
2185.2
1936.14
2027.16
2078.04
2187.12
1940.19
2028.55
2082.75
1821.49
1867.02
1698.78
1737.48
1828.79
1869.24
1703.72
1739.67
1546.49
1586.44
1616.91
1660.14
1553.54
1588.95
1623.34
1662.44
11979.1
12992.8
14025.4
15187.9
16320.1
-9.63405
-9.86333
-10.4096
-3.39673
22.1353
46.2743
90.38
142.1
142.014
78.1923
78.368
453.401
489.007
337.955
383.105
453.309
488.549
338.849
382.808
281.908
281.514
855.396
870.39
785.928
744.583
855.583
870.424
785.475
744.616
559.33
600.343
651.837
686.374
560.247
599.931
651.673
685.926
1010.73
923.329
934.603
1000.82
1011.44
925.84
935.376
1003.63
11813
10706.2
9456.82
8078.26
5244.14
5233.69
4522.65
4511.56
3925.25
3911.17
2670.46
2867.54
3193.44
2933.5
2679.34
2869.24
3191.85
2932.31
2258.71
2418.67
2478.12
2206.23
2261.4
2430.48
2482.42
2213.53
2107.37
1888.82
1994.81
2018.95
2107.8
1891.26
1995.19
2020.67
1782.56
1855.09
1790.92
1856.96
12816.9
13816.2
14892.4
15976.8
-10.1386
-11.0941
-9.43393
-1.9536
11.8057
46.4671
24.5238
24.682
60.9936
60.9356
137.775
137.684
101.026
101.137
447.273
456.491
330.544
352.713
446.798
456.318
330.359
352.622
261.524
177.876
202.068
246.839
261.593
178.964
202.08
247.104
849.104
859.004
770.853
758.429
849.638
859.322
770.765
758.194
562.396
570.969
653.613
659.341
562.836
571.014
653.088
659.09
12663.9
11677.7
10594.7
9399.48
6311.12
6314.41
5712.27
5708.33
5058.38
5055.92
3540.42
3809.75
3774.86
4114.59
3553.17
3813.63
3795.87
4120.03
3276.81
3489.92
3025.09
3197.69
2910.78
3019.9
3298.6
3495.61
3036.14
3201.17
2913.14
3020.71
2637.31
2708.79
2644.06
2711.67
2225.78
2376.54
2406.28
2203.09
2229.61
2391.77
2411.39
2213.66
13625.4
14632.9
15659.6
-10.756
-10.9264
-8.65289
-6.90917
-2.50642
40.0595
33.0063
33.1189
47.3876
47.9316
137.57
183.845
145.376
119.367
124.313
197.337
184.777
138.069
197.712
145.517
119.676
124.109
97.7109
105.49
100.14
106.105
98.5111
105.764
100.631
106.271
432.242
443.198
334.96
345.4
432.33
443.248
335.262
345.537
261.879
254.203
262.083
254.598
743.305
735.627
743.121
735.361
531.031
544.198
532.344
544.539
13475.8
12555.4
11621.3
10603.4
7481.6
7491.53
6885.31
6884.32
6346.05
6336.58
5656.81
5655.19
4310.04
4236.42
4621.18
4054.38
3969.77
3813.41
4314.26
4260.54
4627.66
4063.79
3979.61
3827.92
3595.89
3673.34
3607.13
3678.3
3306.29
3368.02
3084.64
2831.42
3138.17
2880.42
3322.41
3373.79
3090
2844.43
3140.57
2884.6
2578.02
2604.22
2590.56
2608.62
14407.4
15374.1
-10.9251
-9.86911
-8.70326
-7.66527
-6.54859
26.4116
26.352
-2.8595
-2.85668
43.6936
42.5762
49.7878
50.4503
167.711
138.334
142.868
173.582
132.593
137.121
169.06
138.261
173.999
142.63
132.301
135.714
92.6887
98.9768
109.122
111.829
93.9998
99.4629
109.301
111.462
318.461
329.931
319.002
330.15
14254.6
13371.9
12520.9
11661.3
10726.9
7449.64
7447.22
6931.7
6913.85
5350.16
5815.28
5173.32
5490.13
5378.08
5822.47
5189.65
5495.79
4602.41
4312.55
4875.62
4865.32
5150.01
4531.8
4615.8
4326.63
4881.44
4889.71
5157.59
4537.54
4231.61
3899.58
4130.19
3829.45
4234.85
3902.78
4138.13
3837.25
3605.61
3643.86
3616.06
3647.99
3358.99
3400.69
2858.84
2899.85
3375.23
3405.9
2866.98
2902.71
15146.8
-10.2214
-9.48092
-8.52798
-8.02223
-6.99503
11.1071
10.9953
-3.02697
-3.05562
49.5212
55.1931
57.4522
43.4759
49.4466
57.1657
58.1538
44.3226
41.7013
42.8119
83.7557
86.6687
103.987
107.483
85.2049
85.3572
104.569
105.806
14978
14155.8
13340.7
12573.7
11814.9
8537.57
8554.5
7953.34
7952.11
7420.76
7419.41
6917.42
6908.38
5509.77
5768.14
5358.13
5439.24
5525.93
5773.88
5367.98
5443.3
4456.3
4802.35
4564.68
4915.86
5086.86
5171.56
4471.36
4808.38
4918.6
4570.43
5092.95
5174.02
3958.38
3876.83
3960.98
3884.5
-10.0285
-9.18441
-8.44339
-7.9032
-5.06464
-5.0572
-5.28638
-5.30372
-0.619839
-0.573548
-4.53164
-4.53361
46.3112
60.3197
62.6067
42.6877
46.8263
61.7601
62.6731
44.3418
9.58798
10.4454
21.5344
29.7261
9.61474
10.4917
21.6507
29.6613
80.2372
77.5074
81.136
77.4373
14879.2
14134.8
13403.8
12725.7
12046.9
8533.1
8527.31
8104.64
8088.34
7556.08
7540.81
6453.39
5812.92
6147.73
5940.19
6451.93
5813.15
6148.06
5940.1
5658.61
5762.09
5461.26
5513.69
5675.34
5767.69
5468.22
5516.08
-9.75663
-9.00719
-8.40453
-7.62582
-4.72958
-4.71106
-5.094
-5.10703
1.73977
1.41056
-3.7114
-2.29315
-2.5013
-3.19246
1.78915
1.49213
-3.69648
-2.2687
-2.48781
-3.17508
-4.41359
-4.39691
46.0206
57.637
63.4025
38.0462
45.9726
58.2109
63.2556
38.4174
11.2546
16.5408
11.3796
16.5879
14863
14217.1
13577
12989.8
9610.07
9622.71
9009.13
9009.97
8447.92
8454.64
8176.52
8160.03
6386.37
6964.47
6277.33
6612.48
6049.28
6371.14
6426.04
6972.66
6297.69
6619.91
6046.11
6370.65
5942.21
6061.3
5949.53
6063.88
5771.11
5860.81
5791.71
5867.12
-9.61275
-8.89616
-8.26715
-5.33415
-5.34923
-5.76762
-5.77667
-4.41976
-4.4073
-4.81376
-4.81518
-1.78952
-2.30675
-3.08723
-2.69902
-2.91653
-2.80615
-1.794
-2.30643
-3.07935
-2.69373
-2.9161
-2.7924
-3.27701
-3.6436
-3.09165
-3.27636
-3.25727
-3.62633
-3.07502
-3.26721
14949
14400.8
13855.5
13355.9
9638.13
9635.77
9194.91
9175.07
8739.82
8728.71
6527.58
6914.31
7625.98
6856.3
7266.41
7023.81
7621.48
6854.82
7264.89
7019.31
6544.06
6920.09
6428.06
6176.95
6594.28
6319.91
6443.07
6194.12
6601.07
6325.55
6017.44
6109.18
6030.33
6113.16
-9.52021
-8.83647
-8.04182
-5.18186
-5.17772
-5.58561
-5.585
-3.16227
-3.45545
-3.93495
-3.33347
-3.55608
-3.55951
-3.15107
-3.44646
-3.96219
-3.28382
-3.54794
-3.59132
-4.72903
-4.73484
-2.94362
-2.84713
-2.93928
-2.83605
-2.98209
-3.13665
-2.97331
-3.13738
15143.8
14695.5
14224.9
10641.2
10645
10113.6
10112
9681.79
9682.33
9265.59
9253.99
7462.15
8100.73
7354.18
7789.16
7090.71
7502.09
7489.49
7090.21
7501.48
8105.96
7363.39
7791.49
6759.32
6947.95
6994.06
7214.97
6993.18
6771.43
7213.5
6951.15
-9.48466
-8.72293
-7.81549
-4.98354
-4.97389
-5.4046
-5.40072
-3.15193
-3.26754
-3.63705
-3.07424
-3.30489
-3.34562
-3.10284
-3.24698
-3.64749
-3.05684
-3.30721
-3.35996
-3.92235
-4.24379
-3.51421
-3.80356
-3.91179
-4.23872
-3.51904
-3.80361
-2.98153
-3.07982
-2.94367
-3.05333
15437.1
15076.1
14671.8
10734.9
10729.7
10302
10282.9
9773.3
9770.41
7616.49
8029.2
8574.21
7865.74
8286.34
7949.96
7634.69
8035.34
8574.21
7864.32
8287.2
7949.67
7552.38
7270.92
7750.33
7504.65
7279.53
7505.76
7557.67
7751.78
-9.45905
-8.62785
-5.53177
-5.1947
-5.18119
-5.52897
-5.99937
-6.00637
-4.73503
-3.6853
-3.97479
-4.72146
-3.6769
-3.97357
-3.02425
-3.15956
-3.38731
-3.00606
-3.15061
-3.24221
-2.97711
-3.13952
-3.39439
-2.99018
-3.14511
-3.24665
-3.35069
-3.5872
-3.34146
-3.58248
15806.2
15494.6
15113.2
10863.2
10862.9
10352.2
10347.1
8265.24
8909.32
8263.51
8689.34
8075.31
8461.19
8300.45
8078.32
8463.67
8919.42
8284.2
8696.57
7780.32
7960.54
8029.97
8186.83
7802.76
7968.01
8041.91
8191.25
7650.33
7808.98
7668.01
7814.81
-9.42254
-8.48723
-5.08455
-5.39935
-5.07071
-5.39154
-5.9474
-5.94905
-3.6128
-3.47475
-3.69812
-3.61766
-3.84889
-3.88826
-3.96137
-4.2968
-3.44922
-3.62573
-3.69195
-3.60576
-3.84632
-3.88987
-3.94231
-4.28911
-3.29273
-3.16771
-3.28909
-3.16634
-3.32847
-3.51187
-3.31518
-3.50662
16203.2
15900.9
11915.8
10904.6
10890.6
11929.8
11362.1
11364.4
10354
8434.72
8867.88
10355.7
8463.57
8878.58
8214.89
8458.65
8357.95
8657.97
8233.41
8364.31
8473.01
8663.7
7871.36
8014.38
8088.86
8217.56
7893.06
8020.93
8110.1
8223.44
-9.47089
-8.4486
-4.94448
-4.11172
-3.82452
-5.40081
-4.93207
-4.10723
-3.81407
-5.3817
-5.86798
-5.86189
-3.46867
-3.46497
-3.23989
-3.48787
-3.61419
-3.70731
-3.46598
-3.2334
-3.46464
-3.47924
-3.61139
-3.70551
-3.33068
-3.19619
-3.32466
-3.18619
16609.8
16280.4
11969.7
10849.5
10852.6
11968.4
11552.2
11539.1
8679.9
8455.14
8848.09
8436.65
8845.05
9175.77
8689.11
9354.7
8695.54
8486.51
8860.35
8468.03
8856.84
9181.59
8717.37
9354.05
8317.14
8480.22
8431.35
8667.09
8322.63
8434.18
8496.15
8673.82
-9.44253
-6.17815
-5.79239
-5.78526
-6.17832
-6.62129
-6.63172
-4.22533
-4.01226
-3.69394
-3.91241
-3.77633
-4.53814
-3.86594
-4.11488
-5.25154
-4.10358
-4.36541
-4.23554
-4.00832
-3.6874
-3.90942
-3.77004
-4.53836
-3.86722
-4.11484
-5.24414
-4.11364
-4.36899
-3.39288
-3.48036
-3.55415
-3.67646
-3.39629
-3.47636
-3.55243
-3.67403
17006.1
16582.1
12070.7
10913.9
9340.12
8892.18
10918.3
9344.66
8902.7
12067.8
11570.4
11553.1
8615.6
8888.05
8452.97
8834.68
8707.72
9157.4
8637.52
8894.01
8479.23
8717.44
8842.53
9159.07
8372.85
8503.64
8381.91
8507.56
-9.43436
-5.78014
-6.15899
-5.76599
-6.16188
-6.64643
-6.6546
-3.48571
-3.69215
-3.82005
-3.68825
-3.76279
-3.96942
-4.28789
-4.07139
-4.25729
-4.07352
-4.28064
-4.51202
-4.54583
-4.85256
-3.47996
-3.70143
-3.68568
-3.8229
-3.76781
-3.97166
-4.08449
-4.27768
-4.26336
-4.08901
-4.28616
-4.50736
-4.54277
-4.84876
17305
12844
12092.2
12071.5
12867.9
12558.8
12549
9169.14
9361.14
8940
9354.7
8933.25
9839.42
9186.2
9674.03
9221.08
9362.93
8960.05
9361.01
8938.2
9855.83
9215.37
9684.63
11522.5
9353.19
9807.67
11516.6
9402.89
9825.79
8718.32
8981.51
8935.35
9217.64
8732.47
8983.66
8938.94
9218.7
-9.44661
-5.77223
-4.80123
-4.55699
-6.151
-5.75439
-4.7954
-4.54644
-6.15411
-6.60264
-6.61354
-3.64366
-3.79421
-3.73971
-3.94582
-4.02583
-4.25465
-3.74143
-4.00454
-4.14227
-4.4493
-3.66271
-3.80003
-3.74977
-3.95073
-4.04247
-3.7492
-4.24365
-4.0093
-4.14912
-4.44492
17580.4
12921.4
12096
12065.6
12941.3
12602.2
12589
8971.37
9133.89
9217.37
9339.86
9407.95
9639.3
8990.75
9155.88
9223
9348.79
9437.9
9650.4
9760.4
9371.05
9788
9317.83
9754.62
10253.2
9672.17
10289.5
9769.01
9399.42
9799.42
9374.36
9773.32
10255.5
9694.21
10298.4
-9.62759
-6.57821
-6.58962
-5.75026
-4.76476
-4.61362
-4.79508
-4.57131
-6.13756
-5.73656
-4.75913
-4.60026
-4.78812
-4.56131
-6.1414
-3.81963
-3.99379
-4.27379
-4.01355
-4.13223
-4.43408
-3.85652
-4.00971
-4.26562
-4.02489
-4.13767
-4.43111
17814.7
12921.8
12210.2
10391.7
9949.04
12163
10387.2
9937.16
12944.3
12637.9
12626.5
9255.81
9436.46
9416.54
9609.82
9281.54
9446.51
9436.89
9618.86
9626.21
10040.5
9430.52
9843.54
9618.16
10298.8
9640.49
10019.6
9440.39
9623.97
9849.6
10293
-9.45961
-6.57273
-6.56559
-6.58432
-6.57861
-5.72965
-4.7614
-4.59877
-4.78579
-4.57532
-4.319
-4.47229
-6.13148
-5.71774
-4.75859
-4.59535
-4.78185
-4.574
-4.31219
-4.46993
-6.13514
-4.04439
-4.17306
-4.05377
-4.1757
17969.1
12954.6
12972.7
12232.1
10303.1
9934.82
10322.4
9935.39
12194.7
10295.6
9926.42
10316.5
9918.75
12660.9
12647.4
9793.26
9505.87
10084.1
9984.84
9713.41
10286.4
9822.5
9516.14
10066.1
9717.65
9991.88
10280.5
-9.52284
-6.55417
-6.61325
-6.57117
-6.62639
-6.13399
-6.1367
-5.73506
-4.73023
-4.53002
-4.70982
-4.54709
-4.50388
-4.34509
-4.50416
-4.34118
-4.10524
-4.23816
-5.72466
-4.72641
-4.53349
-4.70799
-4.54712
-4.50612
-4.3445
-4.50307
-4.34831
-4.11605
-4.24133
18075.2
12988.1
13022.8
13008.8
13046.1
12227.3
10340.4
9914.29
10335.9
9929.3
10069.5
10288.6
12192.5
10335.2
9918.74
10331.8
9921.91
10064.6
10286.4
12676.2
12665.8
9903.96
10058.9
9930.71
10063.9
-9.47243
-6.64354
-6.65167
-6.65615
-6.66302
-6.11611
-6.19741
-6.12251
-6.20099
-5.76105
-5.7503
-4.74241
-4.54689
-4.73533
-4.53942
-4.53642
-4.37682
-4.5629
-4.36716
-4.34302
-4.14348
-4.29221
-4.16837
-4.74011
-4.55229
-4.73385
-4.54148
-4.53728
-4.38099
-4.56272
-4.3681
-4.34755
-4.16173
-4.29756
-4.18673
17932.9
13046.8
13063
13067.3
13083.7
12680.4
12675.6
12218.6
10338.5
9932.77
10357
9926.17
10388
10041.9
10303.6
10078.5
9930.3
10078.1
12193.1
10334.8
9937.94
10356.4
9918.88
10385.7
10047.2
10303.7
10082.7
9948.16
10080.2
-9.48379
-6.69636
-6.75739
-6.7045
-6.76744
-6.22875
-6.2685
-6.2323
-6.26919
-5.74535
-5.78925
-5.73844
-5.78127
-4.75761
-4.58949
-4.77936
-4.54754
-4.75544
-4.58791
-4.77654
-4.54816
-4.61429
-4.39848
-4.59839
-4.41257
-4.61584
-4.40714
-4.60079
-4.42046
17497.5
13013
12946.3
13030.2
12962.4
12676.2
12671.1
12672.3
12663.9
12223.8
12201.6
10362.9
9905.74
10340.3
9934.3
10406.3
10110.1
10390.6
10111.5
10199.1
9888.77
10095.2
9895.35
10363.4
9924.39
10344.1
9937.69
10400.1
10118
10391.5
10098.8
10199.2
9904.42
10096.5
9910.95
-8.6317
-9.47841
-6.29623
-6.34166
-6.29861
-6.34203
-5.81739
-5.89172
-5.80844
-5.8765
-4.80129
-4.59161
-4.76865
-4.63866
-4.7739
-4.59597
-4.74759
-4.622
-4.79719
-4.58871
-4.76338
-4.63702
-4.76957
-4.60027
-4.74651
-4.62098
-4.61236
-4.44529
-4.66173
-4.41098
-4.61339
-4.44668
-4.6621
-4.41618
17101.4
12862.8
12759.3
12874.6
12778.2
12624.3
12567.6
12615.4
12558.5
12185.4
12136.8
12166.1
12119.7
10381
9947.85
10388.8
9951.37
10379.5
9949.67
10387.1
9951.62
10375.4
10082.6
10352.2
10105.3
10376.8
10101.7
10358.3
10110.2
-8.73823
-5.99203
-6.06007
-5.98266
-6.05729
-9.48882
-5.92434
-5.97354
-5.90738
-5.96034
-4.77025
-4.59302
-4.74877
-4.61482
-4.81398
-4.67513
-4.85137
-4.64558
-4.76991
-4.59706
-4.74856
-4.61445
-4.81304
-4.67097
-4.84786
-4.64331
-4.668
-4.46771
-4.63679
-4.50707
-4.65372
-4.48428
-4.61162
-4.50712
-4.66879
-4.47215
-4.63705
-4.51539
-4.65465
-4.49039
-4.61348
-4.51436
16779.1
16324.8
12468.1
12325.2
12455.3
12313
12128.4
12092.9
12104.9
12066.9
10428.7
9907.23
10369.9
9927.08
10403.7
9844.29
10378.9
9885.43
10425.1
9911.35
10369.1
9922.93
10403.7
9864.27
10382.4
9886.78
10386.5
10080
10368.8
10114.8
10388.1
10094.9
10372.5
10122.2
-8.79509
-6.13927
-6.2316
-6.14311
-6.24224
-5.51161
-5.64271
-5.50404
-5.62167
-9.52664
-4.8537
-4.70513
-4.86854
-4.68827
-4.92082
-4.70948
-4.9975
-4.7055
-4.84994
-4.69081
-4.86218
-4.67761
-4.91549
-4.70722
-4.99384
-4.69403
-4.63884
-4.51754
-4.61868
-4.53792
-4.65404
-4.58865
-4.67267
-4.55837
-4.63732
-4.51911
-4.61882
-4.53795
-4.65063
-4.57667
-4.6681
-4.55225
16447
16046
11985.7
11975.6
11955.9
11961.5
12041
11915.4
11997.4
11886
10310.6
9842.73
10350
9838
10281.9
9787.33
10250
9828.61
10308.7
9851.48
10349.8
9836.66
10280.6
9798.71
10249.8
9827.18
10315.4
10010.6
10303.1
9958.35
10259.2
9899.69
10207.2
9910.44
10316.1
10027.6
10307.8
9964.54
10259.7
9918.38
10212.2
9914.43
-8.10388
-8.91472
-5.70892
-5.80257
-5.70276
-5.79971
-4.36218
-4.58256
-4.47822
-4.3216
-4.49701
-4.77002
-4.43841
-4.7266
-4.37434
-4.60423
-4.36943
-4.57496
-4.48185
-4.33592
-4.50205
-4.76733
-4.45089
-4.7323
-4.38274
-4.60848
-9.55227
-4.6692
-4.5916
-4.67933
-4.56374
-4.70541
-4.54876
-4.66308
-4.57798
-4.6739
-4.54925
-4.69851
-4.53214
-4.52758
-4.38386
-4.52277
-4.36804
-4.52778
-4.38521
-4.52156
-4.37289
16134.1
15750.5
11924.2
11806.2
11917.3
11815.3
11360
11460.5
11354.3
11445.3
10110.6
9792.36
10222
9726.65
10190.7
9517.46
10079.5
9760.26
10117.2
9786.35
10216.8
9724.76
10186.3
9531.39
10083.3
9746.96
10189.8
9910.7
10195.6
9924.81
10184.6
9910.37
10149.7
9927.89
10188.9
9923.98
10198.2
9927.18
10183.1
9912.32
10149.2
9928.49
-8.28209
-5.52923
-5.7651
-5.51986
-5.76534
-9.01874
-5.27544
-5.4376
-5.26857
-5.42682
-4.34994
-4.19313
-4.4235
-4.34101
-4.15699
-4.3041
-4.25801
-4.48813
-4.15579
-4.34853
-4.35824
-4.19775
-4.42601
-4.3439
-4.16758
-4.3097
-4.26081
-4.48887
-4.16284
-4.35215
-9.60597
-4.43172
-4.36862
-4.46515
-4.33551
-4.40299
-4.29638
-4.43068
-4.37312
-4.4653
-4.33599
-4.40235
-4.29729
15723.4
15415.6
14978.9
11491.3
11329
11480.2
11329.7
9325.35
9640.03
9736.42
9258.31
9670.81
10101.8
9109.32
9759.58
9303.07
9742.92
9640.38
9372.8
9757.3
9328.84
9697.58
10100.7
9168.01
9782.65
9363.78
9771.46
10105.2
9903.5
10126.8
9887.93
10198.9
9883.18
10099.7
9900.86
10125.2
9871.94
10190.3
9850.1
10006.9
9770.54
9966.16
9792.02
10007.4
9786.23
9968.53
9804.3
-8.51596
-5.9534
-6.0887
-5.95276
-6.09397
-5.11159
-5.36095
-5.10727
-5.3524
-9.06637
-4.35248
-4.09846
-4.27244
-4.12374
-4.48385
-4.30509
-4.65124
-4.19176
-4.354
-4.10629
-4.2755
-4.13027
-4.48306
-4.3072
-4.65085
-4.18745
-4.18318
-4.32262
-4.05911
-4.16647
-4.00696
-4.15669
-4.19538
-4.32657
-4.07351
-4.17143
-4.02113
-4.16212
-9.76741
15336.1
14996.6
14584.7
10835.2
10789.9
10820.4
10789.2
10868.8
10846.7
10868.6
10845.1
9549.49
9299.59
9678.53
9803.4
9316.55
9616.83
9180.48
9693.17
9364.16
9649.74
9592.6
9334.71
9817.85
9692.04
9339.24
9627.09
9212.37
9705.43
9400.66
9664.34
9899.48
9745.25
9925.71
9713.64
9884.72
9666.05
9902.04
9757.39
9927.86
9732.12
9889.13
9685.2
-7.99336
-8.56366
-5.52309
-5.68848
-5.51731
-5.68926
-3.89152
-4.00511
-4.10333
-3.98046
-4.23771
-4.28744
-4.17726
-4.54546
-4.02897
-4.35304
-3.90628
-4.02086
-4.10986
-4.00334
-4.24734
-4.29438
-4.19001
-4.54825
-4.03393
-4.35618
-9.24456
-4.08382
-3.86522
-4.08707
-3.86554
-4.11843
-3.85098
-4.08903
-3.87318
-4.09149
-3.87659
-4.12552
-3.87311
-10.0677
15045.3
14596.8
14100
10647.6
10558.3
10642.8
10564.7
10321.5
10314.4
10318.1
10306
9280.31
8925.61
9317.94
8893.86
9309.87
8673.95
9336.72
8897.3
9298.45
8948.79
9326.92
8915.65
9315.23
8708.75
9345.73
8910.46
9406.65
9698.95
9140.42
9356.08
9253.87
9457.86
9462.12
9714
9167.67
9367.1
9286.24
9470.57
-7.93164
-5.25931
-5.2818
-5.26301
-5.29007
-8.75747
-5.04043
-5.0872
-5.03422
-5.08391
-3.9037
-3.65112
-4.04493
-3.89934
-3.7074
-3.94788
-3.80643
-4.07924
-3.74528
-3.99303
-3.92458
-3.67503
-4.05235
-3.90742
-3.71957
-3.95532
-3.81855
-4.08381
-3.75468
-3.99768
-9.5628
-3.99521
-3.7923
-4.00335
-3.81939
-10.4063
14855.3
14297.4
13716.3
13223.6
10214.9
9986.92
10196.1
9985.5
8406.45
8713.58
8826.6
8402.51
8817.62
9231.35
8210.69
8887.45
8377.24
8818.41
8719.99
8426.83
8833.49
8426.01
8826.17
9233.78
8258.9
8902.47
8400.64
8827.35
9211.92
8974.52
9216.3
8988.33
9194.97
8943.89
9215.28
8996.06
9224.27
8993.01
9196.28
8948.13
-6.21379
-8.34229
-4.71099
-4.94439
-4.70334
-4.94707
-8.82848
-4.16859
-3.65206
-3.90917
-3.80243
-4.63395
-4.16511
-3.65152
-3.9074
-3.80196
-4.61717
-3.62118
-3.77447
-3.60029
-3.70871
-3.57671
-3.66976
-3.6294
-3.77733
-3.61255
-3.7129