/*--------------------------------*- C++ -*----------------------------------*\
| =========                 |                                                 |
| \\      /  F ield         | OpenFOAM: The Open Source CFD Toolbox           |
|  \\    /   O peration     | Version:  5.x                                   |
|   \\  /    A nd           | Web:      www.OpenFOAM.org                      |
|    \\/     M anipulation  |                                                 |
\*---------------------------------------------------------------------------*/
FoamFile
{
    version     2.0;
    format      ascii;
    class       volScalarField;
    location    "1.7";
    object      p_rgh;
}
// * * * * * * * * * * * * * * * * * * * * * * * * * * * * * * * * * * * * * //

dimensions      [1 -1 -2 0 0 0 0];

internalField   nonuniform List<scalar> 
12160
(
5621.01
5637.05
5621.05
5646.8
5637.14
5621.28
5656.05
5646.77
5637.43
5621.36
5665.59
5656.01
5646.83
5637.71
5621.88
5674.6
5665.66
5656.07
5646.54
5638.4
5621.78
5682.7
5674.69
5665.8
5655.99
5646.54
5638.96
5622.92
5690.45
5682.71
5674.94
5666.03
5656.05
5645.94
5640.32
5622.22
5699.29
5690.19
5682.79
5675.28
5666.42
5655.77
5645.74
5626.53
3444.8
5711.05
5698.63
5689.74
5682.95
5675.94
5666.74
5655.69
5629.65
3650.21
155.68
5727.58
5709.98
5697.37
5689.07
5683.38
5676.86
5667.56
5639.71
3640.57
148.788
7.07571
5749.95
5726.2
5707.9
5695.41
5688.39
5684.18
5678.32
5644.18
3708.44
163.715
0.645878
0.131405
5778.09
5748.47
5723.57
5704.58
5692.91
5687.75
5685.42
5644.89
3799.67
192.607
0.371429
0.0534729
-0.0626623
5810.87
5776.74
5745.78
5719.24
5700.2
5689.77
5687.33
5641.42
3884.35
259.445
0.443113
0.0234743
-0.0222786
0.0400274
5846.51
5809.9
5774.45
5741.11
5713.58
5694.39
5686.02
5631.25
3902.23
343.45
0.958957
0.0203183
0.0114485
0.0327823
-0.0426272
5882.86
5845.99
5808.4
5770.11
5735.31
5705.79
5687.07
5616.35
3856.29
434.443
1.69556
0.00331029
0.0150912
0.0148079
-0.0279114
5917.99
5882.86
5845.61
5805.33
5765.48
5726.89
5695.95
5607.19
3766.64
468.394
3.13854
-0.00944589
0.00867222
0.00828565
-0.00421952
5950.36
5918.41
5883.34
5844
5802.48
5757.49
5716.6
5614.87
3695.81
453.014
5.30561
-0.0177394
-0.00138855
0.000666288
0.00210256
5978.93
5951.1
5919.64
5883.42
5843.29
5796.91
5751.53
5646.55
3698.87
423.12
6.58564
-0.00695942
-0.0136332
-0.00294109
0.00195879
6003.06
5979.87
5952.86
5921.06
5884.44
5840.59
5793.13
5702.91
3805.79
419.151
7.07429
0.0337443
-0.0120568
-0.00736281
-0.00174816
6022.41
6004.1
5981.98
5955.2
5923.58
5884.89
5839.4
5769.03
4017.81
463.459
8.00419
0.086003
0.00679307
-0.00326034
-0.00342955
6036.87
6023.49
6006.38
5984.87
5958.83
5926.51
5886.9
5834.74
4292.7
575.809
10.4148
0.130022
0.0385312
0.0114254
-0.00368248
6046.43
6037.97
6025.83
6009.52
5989.16
5963.29
5930.65
5887.64
4592.46
764.248
15.4733
0.156981
0.0652727
0.0289726
-0.0010965
6051.12
6047.57
6040.34
6029.04
6014.1
5994.46
5968.98
5935.38
4891.52
1028.84
25.5974
0.182297
0.0737801
0.0404754
0.00474793
6050.97
6052.33
6050
6043.56
6033.65
6019.67
6001.02
5976.09
5135.75
1312.91
45.1112
0.235899
0.0642828
0.0435497
0.0105561
6045.95
6052.29
6054.89
6053.28
6048.14
6039.14
6026.41
6009.46
5312.13
1580.74
77.6899
0.386067
0.0387137
0.0376269
0.0120954
6036.05
6047.41
6055.06
6058.35
6057.93
6053.49
6045.6
6035.16
5435.65
1819.19
117.008
0.813868
0.00118025
0.0229178
0.0101501
6021.29
6037.67
6050.48
6058.85
6063.24
6063.28
6059.63
6053.88
5518.5
2016.98
155.353
1.71378
-0.0365974
0.00120986
0.00534764
6001.72
6023.05
6041.06
6054.7
6064.18
6068.84
6069.33
6067.33
5572.9
2165.63
189.658
2.87832
-0.0596304
-0.020226
-0.00105715
5977.51
6003.58
6026.76
6045.8
6060.65
6070.34
6075.17
6076.67
5609.02
2269.87
217.603
4.09525
-0.0650022
-0.0353369
-0.00713535
5948.9
5979.41
6007.56
6031.99
6052.47
6067.64
6077.34
6082.63
5633.42
2343.81
238.446
5.21101
-0.0562973
-0.042109
-0.0114053
5916.3
5950.73
5983.55
6013.18
6039.37
6060.44
6075.68
6085.61
5650.4
2400.06
254.168
6.12506
-0.0371059
-0.0414368
-0.0132696
5880.39
5917.9
5954.95
5989.36
6021.15
6048.34
6069.77
6085.29
5663.91
2441.98
267.538
6.86316
-0.0130044
-0.035015
-0.0131368
5841.26
5881.27
5922.2
5960.66
5997.72
6030.91
6059.01
6081.18
5671.17
2471.77
278.014
7.53354
0.00965688
-0.0254543
-0.0112785
5800.05
5842.52
5886.48
5927.05
5969.26
6007.94
6042.68
6072.23
5668.84
2486.84
283.957
8.0393
0.0238638
-0.0163374
-0.00847325
5757.43
5801.08
5845.61
5887.28
5936.23
5979.52
6020.42
6057.14
5653.77
2484.2
285.959
8.30184
0.0276209
-0.0115747
-0.00582301
5714.1
5758.11
5803.38
5849.41
5899.68
5945.87
5992.33
6035.39
5620.7
2455.36
284.941
8.32885
0.0273192
-0.0113071
-0.00432695
5670.8
5714.39
5759.61
5806.57
5856.38
5907.26
5958.99
6007.23
5563.56
2388.64
278.552
8.21358
0.0173518
-0.0131554
-0.00390105
5628.19
5670.69
5715.08
5761.7
5811.39
5863.75
5919.75
5972.14
5476.93
2275.46
264.306
7.86079
-0.00366208
-0.0195293
-0.00465643
5586.89
5627.69
5670.56
5715.97
5764.72
5816.92
5874.04
5932.49
5352.99
2114.26
241.37
7.17526
-0.0302592
-0.0307621
-0.00706138
5586.01
5521.64
5626.75
5670.24
5717.27
5768.15
5824.47
5881.02
5181.04
1908.16
210.734
6.16634
-0.0588975
-0.0441646
-0.0105236
5584.31
5520.19
5441.09
5625.22
5669.86
5718.62
5772.94
5818.1
4960.84
1661.91
173.587
4.91339
-0.0864045
-0.0571137
-0.014684
5581.61
5517.32
5439.18
5383.67
5623.16
5669.17
5720.82
5745.16
4702.63
1370.72
130.881
3.50935
-0.108772
-0.0678957
-0.0186861
5577.92
5512.86
5435.39
5381.38
5336.41
5620.36
5668.74
5663.83
4407.19
1058.82
87.196
2.11685
-0.12023
-0.0751257
-0.021955
5572.99
5506.68
5429.49
5376.9
5334
5310.38
5616.94
5573.95
4085.75
786.842
53.0889
1.11032
-0.117353
-0.0766733
-0.0240626
5566.18
5498.51
5421.34
5370.1
5329.39
5308.32
5291.11
5473.38
3746.25
576.764
31.9023
0.560451
-0.0959195
-0.0711348
-0.0245525
5361.69
5485.67
5410.63
5361.01
5322.49
5304.56
5287.31
5275.86
3386.43
419.133
19.9067
0.306087
-0.0593613
-0.0569072
-0.0232219
3015.06
5161.04
5390.38
5349.06
5314.04
5299.4
5281.5
5272.62
5265.29
298.772
12.9132
0.192057
-0.0264964
-0.0371929
-0.0210578
210.103
2455.72
4894.57
5321.93
5303.13
5291.99
5274.2
5266.56
5254.7
5250.72
8.45246
0.134639
-0.00291251
-0.0194311
-0.0178788
5.42394
120.083
1869.48
4686.61
5271.32
5282
5268.04
5262.38
5240.88
5229.52
5230.61
0.108098
0.0132293
-0.00626563
-0.0141926
0.101749
2.43773
65.7133
1507.02
4536.71
5245.4
5260.38
5258.3
5228.45
5186.36
5201.91
5363.96
0.0254752
0.00323432
-0.0104397
0.0398424
0.103465
1.16156
45.061
1300.62
4457.24
5214.84
5254.17
5227.92
5164.92
5132.98
5242.95
4998.26
5184.14
0.010167
-0.00735354
0.0196039
0.0593379
0.115699
0.782626
36.386
1224.85
4372.65
5204.6
5234.74
5180.31
5079.47
5103.2
5040.47
4802.15
4898
4960.4
-0.00484507
-0.00150356
0.0308775
0.0765106
0.121559
0.645768
34.1292
1198.79
4348.56
5190.01
5211.51
5075.13
5040.04
5067.13
4941.61
4560.17
4642.37
4754.09
4789.57
0.00180693
0.0430697
0.0847696
0.125632
0.616067
34.8978
1242.34
4298.8
5224.42
5144.29
5085.19
5125.34
5050.58
4764.98
4275.24
4361.59
4492.01
4631.37
4693.56
0.00854103
0.0499895
0.0892661
0.137031
0.617953
37.5778
1221.68
4521.99
5261.43
5224.3
5225.74
5161.6
4950.52
4528.72
3954.83
4032.78
4189.61
4382.37
4569.26
4687.26
0.0136805
0.0542806
0.098797
0.158096
0.572099
41.5854
1145.11
5050.56
5351.22
5334.78
5289.66
5115.39
4780.65
4273.21
3627.15
3670.28
3838.87
4080.04
4344
4585.9
4759.5
0.016919
0.0613484
0.120261
0.200564
0.547565
35.7002
1247.42
5406.62
5440.27
5408.68
5263.05
5014.9
4590.99
3986.72
2552.54
3300.96
2555.87
2793.93
2796.25
3446.76
3728.43
4065.23
4388.42
4668.27
4894.5
0.0201579
0.0743948
0.160866
0.26395
0.560721
18.8995
1926.92
5444.22
5489.34
5387.59
5214.84
4875.23
4372.43
3699.15
2336.33
2406.09
3007.4
2339.78
2143.17
2145.05
2407.63
2614.58
2615.3
3305.64
3730.34
4155.09
4508.29
4811.7
5081.35
0.0258885
0.0989801
0.228302
0.326911
0.657977
7.98608
2394.62
5469.08
5468.91
5336.88
5095.05
4707.07
4160.24
2759.66
2758.05
3036.64
3037.97
2175.78
2255.16
2801.76
2504.69
2177.26
1938.28
1939.36
2249.17
2500.18
2495
3295.26
3842.89
4316.31
4673.81
5002.8
5315.09
0.0360107
0.139299
0.329752
0.509706
0.820456
6.5932
2602.42
5485.21
5412.48
5238.67
4960.22
4539.8
3307.08
3308.47
3561.62
3563.09
2633.2
2630.95
2932.19
2928.59
1980.26
1976.44
1727.08
1820.63
1886.6
2754.33
2122.81
1119.54
1119.98
1421.28
1419.16
1974.96
1701.62
1697.03
1974.11
1727.08
1818.11
1884.44
2137.46
2133.61
2301.13
2037.86
2134.92
2131.41
2297.97
2034.43
3431.82
4046.41
4512.21
4880.57
5232.25
5594.58
0.0514563
0.199044
0.449277
0.762041
1.03991
12.6165
2709.55
5417.6
5328.04
5119.09
4814.44
3804.93
3805.76
4030.71
4031.54
3220.96
3216.28
3492.86
3487.02
2217.68
2095.96
2287.13
2365.57
2453.75
2178.04
2094.49
2220.71
2287.64
2365.89
2453.8
2177.43
2665.68
2755.45
2518.11
2613.31
2666.59
2755.21
2518.36
2613.21
1512.79
1572.55
1665.67
1419.79
1868.45
1701.51
1713.52
1854.66
2886.26
1954.15
659.863
658.829
854.222
853.885
840.055
836.124
1136.79
1134.15
1510.52
1572.71
1663.42
1417.36
1367.9
1072.86
1258.58
1270.1
1365.52
1074.97
1256.15
1267.66
1868.93
1703.96
1714.1
1857.38
2026.83
1997.86
2026.84
1998.37
3675.28
4285.93
4734.44
5112.33
5489.14
5915.72
0.0725009
0.283535
0.58942
0.967841
1.3687
6.10358
2192.18
5313.79
5215.43
4999.59
4191.89
4192.29
4376.23
4376.8
3740.25
3734.63
3976.08
3970.63
2815.32
2902.9
2941.24
3026.84
2816.88
2902.87
2945.95
3027.46
3235.98
3321.63
3082.22
3167.15
3239.33
3321.5
3086.14
3167.23
2087.08
2258.31
2287.29
2120.17
2401.36
2418.98
2088.85
2261.8
2120.82
2288.34
2401.07
2419.47
2683.81
2700.8
2552.85
2571.65
2684.67
2701.01
2552.73
2571.86
1387.19
1536.49
1551.09
1368.21
1815.57
1635.77
1647.03
1802.17
3163.07
2082.21
488.427
487.817
532.397
530
397.731
390.883
579.104
574.362
282.782
373.487
448.743
543.415
287.715
374.816
452.634
544.449
753.897
1009.37
823.071
609.032
702.059
1094.11
759.696
1008.05
824.799
612.444
702.924
1093.54
1388.18
1539.68
1552.06
1371.87
1222.95
1197.43
1223.03
1198.29
1815.7
1637.12
1647.71
1801.3
1979.48
1951.57
1979.44
1951.39
3971.01
4539.7
4974.36
5354.73
5770.55
6253.41
0.101858
0.360978
0.706835
1.12737
1.77806
5.11508
1501.71
5071.87
5102.29
4513.56
4514.24
4641.06
4641.78
4137.55
4134.91
4312.13
4312.09
3358.78
3446
3484.61
3572.06
3362.1
3445.91
3488.84
3571.95
3737.15
3844.42
3602.1
3694.46
3738.49
3843.21
3605.85
3694.11
2840.1
2853.94
2986.27
2998.35
2840.72
2854.15
2987.12
2998.8
3271.58
3282.01
3129.48
3139.87
3274.13
3282.91
3129.67
3140.23
1304.17
1462.31
1475.11
1288.98
3551.21
2494.88
561.141
562.367
484.905
485.432
230.822
219.549
284.824
276.389
-231.431
-144.588
-129.895
-42.8488
-225.767
-143.104
-125.366
-41.2075
118.872
204.677
-6.00498
83.0903
124.003
205.897
0.434684
84.5171
227.146
248.221
394.244
415.301
233.551
250.505
398.787
417.078
919.479
692.318
726.061
939.106
558.955
581.948
920.833
694.303
727.441
939.585
562.16
583.22
1304.81
1464.85
1476.17
1290.29
1125.67
1106.07
1126.24
1107.6
4278.21
4802.28
5217.8
5591.09
6065.39
6603.26
0.124415
0.393319
0.724231
1.41757
3.59774
13.1861
865.433
4444.65
4973.85
4456.26
4456.72
4558.66
4559.41
4073.91
4072.83
4263.63
4261.42
3400.26
3410.58
3519.4
3532.11
3401.46
3411.16
3520.53
3532.62
3723.12
3767.63
3627.69
3648.03
3723.64
3767.7
3628.32
3648.31
3287.42
3303.79
3291.6
3305.06
3961.67
3049.7
866.82
870.867
664.501
665.851
267.714
262.247
207.6
198.719
-449.649
-286.398
-416.703
-309.665
-448.248
-287.428
-422.361
-311.813
-312.183
-227.414
-376.225
-267.09
-311.114
-227.146
-375.515
-267.451
-307.513
-270.866
-206.017
-179.064
-299.552
-268.151
-200.067
-176.335
65.2929
85.4371
-67.7172
-45.0187
72.1343
87.8723
-62.1605
-42.6913
4583.2
5059.48
5438.32
5830.71
6374.71
6933.41
0.121567
0.323374
0.672166
8.81084
28.5688
59.3575
437.817
3324.93
4606.61
4607.24
4411.29
4411.65
4415.45
4411.95
4517.48
4518.83
3967.01
3809.39
3861.73
3903.41
3966.53
3808.46
3861.59
3902.53
4062.67
4093.03
4159.11
3998.35
4061.96
4094.84
4158.71
3997.73
3408.3
3417.76
3516.74
3524.91
3410.77
3418.75
3517.99
3525.44
3728.55
3744.63
3623.69
3635.33
3730.66
3745.32
3624.27
3635.71
4339.36
3609.7
2624.51
586.043
586.565
411.351
406.493
-64.3929
-67.9998
-159.547
-161.649
-611.989
-503.258
-564.139
-491.075
-601.27
-500.344
-557.47
-489.298
-398.685
-350.549
-485.348
-419.856
-394.116
-348.819
-480.122
-418.301
-415.883
-374.57
-406.312
-371.68
4872.58
5282.62
5647.49
6079.17
6705.33
7034.71
0.0641387
0.0281987
8.44031
81.2366
176.944
251.771
495.847
2138.31
4580.74
4578.84
3998.16
3998.34
4168.08
4230.53
4323.66
4236.26
4169.95
4229.94
4322.31
4236.83
4476.72
4474.15
3941.92
3839.66
3849.71
3935.86
3942.15
3841.73
3850.29
3936.03
4029.64
4104.93
4117.08
4022.52
4029.86
4105.5
4117.25
4023.25
3747.11
3761.48
3751.4
3762.66
4675.24
4087.7
3334.96
969.886
974.013
584.301
583.422
324.545
324.993
144.896
132.277
-613.139
-693.645
-529.052
-744.11
-610.425
-681.102
-525.96
-737.717
-650.963
-738.232
-647.222
-758.216
-649.017
-734.197
-645.822
-753.457
-685.651
-640.12
-648.476
-609.78
-678.32
-637.892
-643.527
-607.58
-493.613
-453.834
-573.985
-530.814
-486.688
-451.326
-567.537
-528.513
5112.09
5471.81
5850.42
6358.93
6837.11
-0.147474
2.45904
42.542
189.005
433.648
848.611
821.198
1484.01
1483.72
682.96
684.273
4318.65
4460.66
4159.86
4512.29
4318.41
4460.17
4160.24
4511.93
3485.8
3485.8
4174.07
4189.09
4267.24
4225.73
4174.21
4189.11
4266.75
4225.8
4347.45
4405.83
4291.4
4325.94
4348.19
4405.39
4291.18
4325.48
4039.46
4092.5
4103.78
4029.53
4040.16
4095.03
4104.57
4032.37
4946.1
4494.09
3913.71
3200.56
851.094
840.59
458.904
447.795
192.478
178.407
-655.599
-458.574
-296.576
-556.573
-646.696
-456.841
-298.103
-557.661
-734.999
-740.222
-680.786
-787.49
-732.284
-728.405
-676.475
-780.13
-728.842
-798.369
-692.391
-817.276
-728.414
-795.933
-692.003
-815.523
-761.192
-688.723
-752.863
-686.791
5295.92
5641.18
6063.39
6493.75
-0.376362
11.1146
53.7556
180.402
416.285
975.652
748.325
724.457
1732.65
1711.59
953.914
964.764
484.728
484.844
4241.23
4421.84
3873.18
4439.39
4240.78
4421.67
3873.08
4439.46
3661.18
2221.16
3187.45
2946.84
3665.9
2210.98
3188.77
2943.69
4163.97
4173.92
4242.59
4230.03
4164.56
4174.23
4242.48
4229.92
4358.21
4370.32
4300.5
4306.98
4358.8
4370.35
4300
4306.74
5142.98
4811.08
4385.3
3873.66
1271.54
1274.71
1002.75
998.877
678.631
676.198
-431.197
-161.912
-362.451
-22.8317
-418.425
-158.031
-341.407
-17.3234
-528.6
-315.553
-614.425
-441.868
-570.464
-461.411
-506.782
-309.866
-603.399
-438.401
-568.131
-460.59
-681.327
-609.896
-674.602
-607.019
-802.959
-792.634
-762.888
-825.658
-799.073
-777.365
-757.76
-815.006
5450.43
5803.88
6176.63
-0.015705
9.22961
17.1587
31.3023
97.837
964.396
1100.71
1141.8
2098.51
2097.09
571.928
2113.27
538.555
483.35
488.3
3165.32
2108.58
592.676
3174.05
551.202
483.668
488.091
487.076
494.867
476.588
482.548
487.88
495.13
477.076
482.717
4114.37
4414.63
3923.38
4444.99
4114.99
4414.65
3924.24
4445.39
3345.71
2550.06
3351.59
2545.61
4248.17
4240.39
4247.97
4240.21
4298.6
4376.83
4299.88
4377.18
5300.81
5034.57
4755.56
4404.83
1796.16
1806.36
1521.19
1519.72
1313.03
1303.27
959.258
957.639
26.746
-211.18
173.515
-228.936
-159.075
-315.397
30.9368
-186.99
180.072
-219.541
-149.24
-300.894
-369.435
-292.008
-358.21
-287.089
-493.045
-431.338
-562.953
-640.253
-509.466
-591.314
-476.884
-425.584
-557.638
-627.256
-507.088
-587.154
-736.861
-710.679
-724.317
-706.278
5578.4
5891.06
-0.0627014
1.11226
1.74342
2.71924
15.5377
1286.35
1282.3
132.749
132.956
1906.29
2023.13
2171.79
2179.79
1481.16
508.828
511.291
1158.41
510.888
684.39
1493.04
501.59
1169.47
508.382
503.154
540.051
690.055
1307.51
571.567
727.172
636.676
1167.65
554.641
672.013
3455.73
4012.29
3455.38
4015.11
5425.66
5197
5000.45
4797.74
4546.95
1765.5
1763.67
1568.37
1549.64
242.869
706.578
234.63
551.079
270.876
713.819
250.911
556.761
-14.894
-126.345
258.298
89.8315
374.492
92.9168
-1.51849
-112.273
264.111
114.273
382.1
98.6333
-56.9612
-220.89
-158.394
-291.029
-53.7623
-217.73
-150.484
-283.243
-366.345
-328.1
-355.913
-324.004
-473.633
-431.951
-645.977
-605.002
-457.374
-426.772
-637.874
-602.174
5663.82
-0.571041
-0.418911
-0.105716
0.821502
13.5817
591.481
586.42
37.4355
36.95
3283.81
2259.65
3194.74
2461.04
3283.64
2169.83
3195.43
2442.54
2113.93
2239.06
1481.19
3126.53
952.99
2494.36
1410.09
2714.66
929.059
1235.74
5495.04
5326.8
5165.9
5054.19
4956.84
2201.03
2219.7
1958.85
1957.66
1742.18
1741.16
1562.55
1553.29
408.348
666.177
428.981
509.965
424.421
671.922
438.777
514.026
-15.5907
146.642
92.7923
260.178
304.291
388.981
-0.540731
152.705
262.927
98.5314
310.397
391.453
-193.33
-274.881
-190.76
-267.247
-0.538651
-0.316874
-0.206741
4.28814
7.45103
7.53371
7.65836
8.20939
213.525
211.526
22.0184
21.5704
3276.19
2590.13
3204.02
2562.35
3276.68
2538.06
3204.05
2512.21
993.275
1057.74
2166.49
3067.29
995.532
1071.44
2146.38
3053.78
2117.62
3139.58
2068.66
3112.62
5396.23
5305.86
5229.38
5208.27
5200.03
2211.42
2207.37
2125.34
2109.07
1896
1880.71
1021.15
546.017
878.466
514.742
1019.74
545.735
878.783
514.616
552.948
656.411
502.463
554.878
569.744
662.014
509.424
557.264
-0.273036
-0.170747
-0.0461906
4.96532
7.65251
8.22448
8.81821
9.38666
605.557
715.431
52.0562
82.6323
114.155
15.9483
598.944
718.959
53.2511
84.5767
114.672
15.9376
11.9526
11.3793
3276.88
2934.12
3225.05
2709.66
3276.79
2897.21
3224.9
2682.12
969.078
1759.77
960.017
1753.74
5380.15
5388.37
5403.45
5475.67
2601.11
2614.28
2351.86
2355.13
2141.27
2150.02
2216.05
2199.66
678.568
1234.55
724.574
1049.69
629.889
946.38
718.507
1242.81
744.583
1057.12
626.639
945.876
668.726
785.273
676.184
787.835
628.191
717.882
648.762
724.182
-0.129748
-0.0664482
0.4182
6.15475
5.46176
2.19336
2.10623
6.91188
8.18478
9.39251
9.49948
190.679
169.39
12.216
15.0025
22.2951
6.59332
189.137
166.999
13.1374
16.0998
22.9726
6.66608
4.2002
6.93293
5.21153
8.01616
4.47319
6.84115
4.78578
7.62319
5466.14
5572.29
5683.23
5846.31
2634.44
2632.37
2547.33
2528.18
2455.76
2445.16
823.554
1188.55
1579.55
999.855
1379.28
1009.04
1575.13
998.423
1377.74
1004.82
840.218
1194.32
850.163
755.888
1008.24
893.653
864.929
773.183
1015.02
899.278
710.677
799.226
723.747
803.194
-0.0374636
-0.00640471
0.317004
3.52851
3.23164
2.42352
2.41744
4.32055
6.50892
12.401
4.65458
8.61971
5.69837
4.5875
6.40333
12.5362
6.34967
12.4317
8.87215
8.82239
7.83706
5.93912
5.46281
5.54867
5.32385
5.25736
8.57994
4.82569
7.87518
5660.95
5867.56
6054.07
2967.4
2971.27
2773.49
2771.97
2680.4
2681.56
2619.28
2608.66
1105.39
1711.23
1173.55
1589.21
1077.61
1464.13
1133.35
1077.17
1463.49
1716.61
1183.28
1591.67
1035.03
1193.53
1108.26
1299.8
1107.33
1047.19
1298.32
1196.72
-0.0021725
0.114022
0.407815
3.49739
3.34082
2.77887
2.767
4.38859
6.74357
12.8293
4.53707
10.7921
6.27554
4.65902
9.05702
12.8192
6.41617
12.7725
7.24913
4.48799
5.88369
5.66258
8.38486
3.86088
5.1418
4.89016
7.18861
5.83312
10.5861
5.31074
11.2289
5954.39
6248.97
6504.78
3065.99
3060.87
2968.48
2949.29
2781.44
2778.81
1251.65
1638.59
1831.07
1321.53
1716.82
1226.64
1270.4
1644.53
1831.12
1322.02
1717.63
1228.45
1339.86
1226.16
1522.02
1441.02
1234.97
1442.17
1345.71
1523.24
0.0229231
0.197413
2.4576
2.73981
2.77826
2.45985
2.32028
2.3133
3.41637
3.62785
4.23258
3.42759
3.52653
4.24904
4.44583
8.66972
11.2847
4.64503
12.0852
5.32643
4.81984
12.022
10.2905
5.63643
12.9773
5.06834
3.94518
5.18817
3.72631
5.20315
6323.75
6669.36
6955.23
3202.68
3202.42
3029.19
3024.23
1195.2
1837.98
1374.03
1791.5
1359.5
1729.14
1230.83
1365.74
1733.09
1848.13
1396.88
1799.55
1393.44
1555.53
1483.81
1623.92
1417.22
1562.97
1498.84
1630.92
1384.17
1532.71
1402.39
1538.74
0.0585773
0.33044
2.58746
2.57219
2.60511
2.57992
2.36629
2.36463
3.7041
3.80169
4.15512
3.66715
4.11902
3.75729
3.52238
3.26561
3.70212
3.68638
3.95415
3.57965
4.04765
3.7398
3.56946
3.30549
6.47411
4.46248
6.17802
3.95589
3.77798
3.92219
3.69572
3.95587
6721.31
7078.55
3596.26
3254.87
3240.88
3610.28
3380.86
3383.21
3047.68
1370.99
1802.36
3049.51
1400.4
1813.17
1509.51
1570.16
1637.6
1762.49
1531.63
1648.15
1586.4
1769.9
1454.38
1588.97
1528.93
1642.64
1477.66
1595.74
1552.76
1653.11
0.00901487
0.363721
2.68199
3.28455
3.56182
2.55771
2.69473
3.28976
3.57262
2.5767
2.43844
2.44453
3.66245
3.75581
3.88753
3.73563
3.9753
3.56992
3.6487
3.79609
3.75556
3.76612
3.91577
3.57578
3.87766
3.85403
3.99537
3.71159
7128.75
7462.95
3656.19
3210.57
3213.75
3654.81
3580.91
3567.82
1470.26
1413.39
1803.65
1381.84
1787.75
1965.74
1306.24
1971.71
1485.75
1445.23
1816
1413.82
1799.64
1971.56
1334.52
1971.1
1592.46
1587.37
1693.61
1767.04
1600.45
1701.51
1604.86
1775.09
0.0368651
2.46558
2.50932
2.51641
2.46535
2.35976
2.34932
3.47331
3.36525
3.67478
3.45641
3.5979
3.16063
3.6605
3.41158
2.69896
3.58468
3.3243
3.46296
3.37045
3.68135
3.45977
3.6042
3.16028
3.65922
3.41161
2.70622
3.57456
3.32035
3.76493
3.75527
3.72799
3.55771
3.7496
3.75678
3.72606
3.56057
7526.29
7769.93
3764.63
3288.38
1962.15
1514.24
3292.8
1966.69
1524.71
3761.75
3612.62
3595.35
1558.03
1678.23
1539.05
1775.17
1787.34
1947.33
1580.17
1684.13
1566.49
1797.45
1783.01
1949
1599.62
1726.19
1610.6
1734.05
0.0443866
2.51939
2.48215
2.53335
2.4792
2.33286
2.32468
3.77416
3.68952
3.56164
3.57002
3.75289
3.54687
3.56622
3.61217
3.42976
3.60939
3.4051
3.34601
3.48982
3.18473
3.7789
3.68028
3.5726
3.5588
3.74786
3.54434
3.599
3.57639
3.42353
3.59379
3.39918
3.34969
3.49274
3.18832
7825.68
3862.99
3790.73
3770.1
3886.95
3915.15
3905.42
1471.2
1987.47
1572.49
1986.36
1559.89
2141.07
1661.39
2147.96
1523.04
1989.26
1592.37
1992.65
1564.71
2157.58
1690.24
2158.54
3573.84
1665.73
2119.77
3567.9
1715.25
2137.9
1624.05
1753.38
1840.66
1988.9
1638.21
1755.21
1844.24
1989.93
0.0297965
2.52741
3.23484
3.4763
2.48403
2.54472
3.2399
3.48664
2.48086
2.37304
2.36213
3.76019
3.60983
3.78512
3.58119
3.6529
3.5947
3.81011
3.54962
3.54331
3.40523
3.74116
3.60386
3.77505
3.57595
3.63622
3.80235
3.60564
3.54455
3.53642
3.40832
8101.66
3942.14
3797.14
3766.81
3962.09
3961.08
3947.93
1714.41
1753.82
1959.5
1958.57
1893.94
2124.03
1733.7
1775.6
1965.11
1967.47
1923.57
2135.09
1907.46
1689.47
2105.36
1636.04
2072.5
2399.64
1637.07
2254.26
1915.83
1717.34
2116.77
1692.55
2091.2
2401.94
1659.18
2263.19
0.0865637
2.39353
2.38212
2.53985
3.27933
3.42682
3.25231
3.46446
2.48993
2.55344
3.28244
3.43991
3.25783
3.4742
2.48604
3.7536
3.69062
3.58206
3.56593
3.55581
3.43122
3.71673
3.67467
3.5895
3.55385
3.54986
3.43318
8338.3
3946.13
3912.44
2358.93
1916.34
3865.33
2354.46
1904.52
3968.68
4002.94
3991.59
1854.48
2033.01
1893.79
2085.41
1880.11
2043.03
1913.67
2094.41
1949.15
2192.68
1880.44
2165.26
2067.04
2449.87
1963.11
2171.13
1890.09
2072.83
2171.34
2444.13
0.0151924
2.39684
2.61299
2.38525
2.5875
2.54403
3.26572
3.44001
3.25595
3.45071
3.54968
3.40633
2.50117
2.55585
3.26836
3.44335
3.25964
3.45192
3.55628
3.40885
2.49476
3.6643
3.54474
3.65463
3.54357
8494.34
3982.93
4001
3942.26
2268.21
1895.44
2282.89
1900.51
3904.92
2260.78
1887.05
2277.03
1883.94
4033.43
4020.03
2111.61
1934.43
2230.33
2300.89
2140.59
2431.73
2140.48
1944.43
2211.74
2144.83
2307.95
2425.8
-0.0464048
2.41527
2.35638
2.39826
2.34324
2.77448
2.74456
2.6578
3.27965
3.47195
3.29295
3.46247
3.36028
3.5306
3.37592
3.52067
3.63197
3.51189
2.64212
3.28336
3.46842
3.29464
3.46234
3.35779
3.53118
3.3771
3.51354
3.62118
3.50879
8600.46
4018.54
4053.53
4039.26
4076.83
3953.67
2314.68
1875.78
2297.27
1903.4
2201.57
2420.47
3918.94
2309.43
1880.26
2293.3
1896.06
2196.63
2418.34
4051.67
4041.25
2199.2
2350.91
2224.97
2355.95
0.00633192
2.32828
2.32409
2.31566
2.31273
2.5121
2.4274
2.50539
2.42376
3.23912
3.12647
3.61059
3.53139
3.31189
3.55589
3.31717
3.48112
3.29504
3.48543
3.43027
3.61675
3.47547
3.60067
3.55632
3.50437
3.30674
3.53536
3.31616
3.47694
3.29521
3.4845
3.42585
3.59851
3.47088
3.58232
8456.46
4077.5
4093.41
4098.04
4114.09
4055.07
4050.26
3946.59
2329.14
1930.97
2355.07
1916.56
2526.27
2166.48
2428.12
2216.67
2196.05
2341.5
3921.1
2325.33
1936.12
2354.59
1909.34
2523.97
2171.77
2428.25
2220.91
2212.82
2343.52
-0.00440313
2.28299
2.22369
2.27483
2.21363
2.39887
2.36668
2.39527
2.36594
2.58521
2.48595
2.58652
2.49374
4.79234
3.91769
5.00844
3.8855
4.5364
3.85031
4.63896
3.82478
3.55605
3.52308
3.3163
3.52277
3.48529
3.49423
3.30493
3.50188
8018.81
4041.21
3970.54
4058.43
3986.68
4050.84
4046.52
4046.95
4039.33
3946.25
3924.11
2351.73
1901.47
2335.95
1923.02
2553.67
2252.16
2532.72
2258.9
2430.19
2128.88
2335.26
2126.42
2352.26
1920.09
2339.73
1926.43
2547.52
2260.16
2533.6
2246.21
2430.24
2144.49
2336.54
2141.98
0.180525
0.00148737
2.34501
2.30209
2.34258
2.30167
2.45635
2.39838
2.46523
2.41353
3.26397
3.47599
3.37259
3.39176
3.24182
3.40855
3.25703
3.39196
3.27053
3.47382
3.3697
3.39433
3.24612
3.4042
3.25815
3.39288
5.02487
3.76281
4.9866
3.71615
4.72283
3.70857
4.83641
3.68667
7622
3883.43
3778.25
3895.3
3797.24
3996.68
3932.45
3987.88
3923.36
3907.88
3864.82
3888.64
3847.77
2363.71
1927.07
2367.98
1933.94
2362.11
1928.87
2366.33
1934.22
2496.16
2214.34
2483.89
2226.14
2497.52
2233.51
2490.03
2231.08
0.0792704
2.30946
2.24595
2.3188
2.24873
-0.00771844
2.37363
2.32549
2.3905
2.33858
3.23926
3.4087
3.25298
3.39486
3.2123
3.36373
3.18758
3.38081
3.23956
3.40463
3.25315
3.39516
3.21322
3.36789
3.19106
3.38303
3.24129
3.46119
3.32416
3.38298
3.22984
3.38432
3.25697
3.37411
3.24444
3.45327
3.32446
3.37585
3.22897
3.3782
3.25511
3.3669
7299.25
7512.58
3826.88
3681.44
3814.08
3669.3
3854.82
3802.78
3831.39
3776.88
2411.39
1886.63
2349.21
1909.88
2392.68
1841.71
2374.33
1875.38
2407.79
1890.8
2348.45
1905.75
2392.68
1861.15
2377.93
1876.6
2499.83
2189.07
2477.85
2228.11
2501.35
2203.99
2481.55
2235.55
0.027359
2.17424
2.08787
2.17039
2.07724
2.43711
2.31534
2.44464
2.33627
-0.0446953
3.18125
3.3345
3.17119
3.34672
3.11206
3.32572
3.03783
3.32742
3.18495
3.3488
3.17752
3.35725
3.11734
3.32791
3.04141
3.33876
3.21401
3.34007
3.23893
3.31493
3.20867
3.2872
3.20324
3.3043
3.21554
3.3385
3.23879
3.31492
3.21209
3.29923
3.20781
3.31047
6965.96
7228.55
3684.44
3669.73
3654.65
3655.73
3743.02
3616.37
3699.58
3587.12
2301.13
1842.99
2348.23
1829.89
2255.62
1748.74
2211.03
1803.03
2299.21
1851.19
2348.04
1828.23
2254.33
1760.08
2210.84
1801.59
2428.43
2119.96
2412.41
2072.25
2380.32
2036.41
2338.66
2034.35
2429.17
2137.09
2417.14
2078.34
2380.76
2053.81
2343.6
2037.73
0.109085
-0.0893913
2.26708
2.25689
2.27252
2.25398
3.32073
3.27105
3.20474
3.36021
3.18493
3.08365
3.25944
2.9716
3.31325
3.08374
3.31351
3.27863
3.20111
3.34589
3.17984
3.08631
3.24685
2.96579
3.30481
3.07942
-0.0697828
3.18541
3.27676
3.18909
3.29081
3.1438
3.30038
3.19153
3.29042
3.19453
3.30532
3.15069
3.31701
3.24154
3.37645
3.23757
3.40106
3.24135
3.37515
3.23878
3.39625
6652.2
6928.25
3610.89
3486.92
3604.07
3496.02
3411.34
3502.89
3405.62
3487.75
2075.67
1752.82
2182.23
1691.68
2157.8
1482.4
2044.19
1727.5
2082.28
1746.79
2177.05
1689.92
2153.51
1496.35
2048.11
1714.27
2336.97
2058.72
2338.04
2076.63
2321.93
2036.32
2273.78
2067.6
2336.03
2070.62
2340.6
2077.88
2320.36
2037.64
2273.29
2067.83
-0.0889702
2.59585
2.83088
2.67271
2.92332
-0.191518
2.37604
2.37009
2.37901
2.37485
3.32832
3.35858
3.25479
3.21077
3.36688
3.21992
3.26746
3.03737
3.35911
3.16657
3.32004
3.35399
3.25228
3.20789
3.35633
3.21434
3.26469
3.03667
3.35209
3.16297
-0.123214
3.27599
3.36832
3.27182
3.37216
3.28146
3.38804
3.27702
3.36385
3.27168
3.37172
3.28211
3.38717
6240.92
6590.32
6820.97
3520.12
3347.95
3509.18
3348.71
1642.43
1786.48
2053.47
1576.56
1988.96
2248.17
1411.5
2061.61
1615.56
2055.31
1786.79
1689.84
2074.35
1647.06
2015.75
2247.03
1470.29
2084.8
1676.27
2083.9
2250.57
2036.06
2258.38
2033.64
2349.68
2034.23
2245.08
2032.88
2256.77
2017.42
2341.15
2000.99
2237.82
2013.82
2205.82
2027.96
2238.28
2028.75
2208.18
2039.6
-0.206446
2.32343
1.6095
2.37185
1.64335
3.61736
5.51521
3.73886
5.66185
-0.237177
3.15542
3.28632
3.15658
3.26077
2.99889
3.16596
2.956
3.21762
3.13934
3.2773
3.14279
3.25334
3.00189
3.18205
2.97645
3.22384
3.39023
3.2508
3.32484
3.21592
3.39595
3.2464
3.37806
3.24686
3.31133
3.21121
3.3819
3.24099
-0.284226
5853.4
6169.46
6417.72
3185.74
3129.49
3170.94
3128.89
3243.46
3208.08
3243.38
3206.54
1871.25
1747.85
2126.82
2125.09
1792.83
2093
1655.06
2167.71
1849.4
2134.87
1914.3
1782.94
2139.55
2140.32
1815.48
2103.23
1686.98
2179.96
1886.02
2149.45
2191.79
2010.52
2188.75
2006.63
2200.28
1981.77
2194.35
2021.74
2190.9
2024.83
2204.67
2000.81
6.42747
-0.330584
4.68656
6.81281
4.60301
6.15233
3.5646
3.32767
3.7993
3.44722
5.89284
3.15237
5.56909
12.7335
3.93412
8.50792
3.58871
3.32042
3.84774
3.46951
6.07319
3.19236
5.61922
12.9685
3.91515
8.7185
-0.394018
3.29241
3.40307
3.25274
3.36833
3.18776
3.36474
3.2885
3.39549
3.23291
3.36015
3.20795
3.34565
-0.58214
5562.39
5768.83
5929.25
2978.76
2884.56
2973.98
2890.97
3015.92
2992.21
3012.51
2983.95
1907.3
1557.81
1950.04
1520.87
1932.38
1291.66
1954.2
1520.08
1925.45
1581.02
1959.01
1542.69
1937.78
1326.48
1963.31
1533.19
1833.26
2125.52
1760.26
1975.68
1851.42
2055.1
1888.66
2140.57
1787.43
1986.68
1883.72
2067.8
2.57183
21.1766
21.9349
21.1936
21.6709
-0.429959
13.8332
17.5697
13.9679
17.5148
3.21467
3.61573
3.22041
4.0176
3.54773
6.04417
7.33996
14.239
4.14135
10.5327
3.20909
3.63061
3.29105
4.12607
3.57455
6.32791
7.54437
14.5713
4.22696
10.9416
-0.563269
3.19908
3.32157
3.22939
3.30375
-0.853666
5372.39
5468.9
5544.07
5714.16
2882.06
2647.09
2863.24
2645.79
1368.56
1505.17
1782.56
1352.3
1760.59
2021.92
1147.84
1816.01
1319.98
1752.88
1511.36
1388.6
1789.53
1376.02
1769.23
2024.35
1196.89
1831.09
1343.52
1761.96
1984.03
1717.37
1959.08
1760.54
1985.29
1734.66
1987.36
1738.88
1967.04
1765.07
1986.59
1738.9
27.484
0.879283
18.9089
27.2315
18.8279
26.9535
1.28906
20.7039
4.96601
14.9657
9.16213
15.8994
20.7319
5.42911
15.9978
9.69232
15.9638
4.1845
10.5294
4.45975
13.0922
4.43692
13.4416
4.18194
10.9186
4.64653
13.5101
4.46369
13.6133
0.550286
0.0671698
5286.23
5284.46
5278.1
5333.54
2514.63
2488.25
2512.63
2500.51
2707.31
2556.58
2702.08
2556.74
1560.68
1474.02
1738.27
1782.61
1569.5
1702.44
1279.88
1687.79
1534.48
1687.5
1571.39
1480.4