/*--------------------------------*- C++ -*----------------------------------*\
| =========                 |                                                 |
| \\      /  F ield         | OpenFOAM: The Open Source CFD Toolbox           |
|  \\    /   O peration     | Version:  5.x                                   |
|   \\  /    A nd           | Web:      www.OpenFOAM.org                      |
|    \\/     M anipulation  |                                                 |
\*---------------------------------------------------------------------------*/
FoamFile
{
    version     2.0;
    format      ascii;
    class       surfaceScalarField;
    location    "1.7";
    object      phi;
}
// * * * * * * * * * * * * * * * * * * * * * * * * * * * * * * * * * * * * * //

dimensions      [0 3 -1 0 0 0 0];

internalField   nonuniform List<scalar> 
30582
(
0.000248273
-3.9985e-06
0.000252612
-4.33916e-06
0.000247935
-7.62902e-06
0.000253954
-1.34209e-06
0.000252125
-8.52966e-06
0.000246649
-9.90824e-06
0.000250858
3.09675e-06
0.000253301
-2.51815e-06
0.000251284
-1.31654e-05
0.000244488
-9.93322e-06
0.000246587
4.27072e-06
0.000250177
6.22127e-06
0.000253242
-4.47548e-06
0.000248202
-1.68796e-05
0.000241428
-6.77672e-06
0.000241218
5.36887e-06
0.000246122
8.32533e-06
0.000250634
8.82858e-06
0.000248968
-5.2412e-06
0.000246092
-2.15434e-05
0.00023523
2.738e-06
0.000235127
6.09087e-06
0.000241224
1.02667e-05
0.000247091
1.1869e-05
0.000247133
1.06641e-05
0.000248149
-7.29795e-06
0.000237557
-2.38702e-05
0.000230415
1.72561e-05
0.000227751
7.37609e-06
0.000235235
1.20799e-05
0.000242167
1.519e-05
0.000244796
1.42061e-05
0.000247574
1.12391e-05
0.000237484
-7.22482e-06
0.000235275
-2.87304e-05
0.000213316
4.90883e-05
0.000220342
7.40895e-06
0.000227848
1.47635e-05
0.000236051
1.81963e-05
0.000241355
1.86307e-05
0.000246881
1.48989e-05
0.00023952
9.20315e-06
0.000237208
-9.15804e-06
0.000209428
-2.48423e-05
0.00013094
-0.000103672
0.000213894
6.44773e-06
0.000220267
1.49901e-05
0.000228382
2.24327e-05
0.000235953
2.35977e-05
0.000244044
2.14679e-05
0.00024267
1.17487e-05
0.000240657
5.75384e-06
0.000211828
-1.15582e-05
0.000140895
-3.47969e-05
-0.000250447
0.000145884
0.000209263
4.63125e-06
0.000213663
1.30516e-05
0.00022023
2.3142e-05
0.000228183
3.02036e-05
0.000238194
2.94476e-05
0.000243092
2.10461e-05
0.000245369
7.03702e-06
0.000222777
-5.19549e-06
0.000172911
-4.35746e-05
-0.000283646
-1.5983e-06
0.000114728
3.11194e-05
0.000206525
2.73788e-06
0.000209014
9.28005e-06
0.000213155
2.01262e-05
0.000219393
3.1932e-05
0.000229267
3.91301e-05
0.000238717
3.38229e-05
0.000246173
2.02425e-05
0.000236969
-7.1548e-06
0.000211107
-4.33911e-05
-0.000243411
-8.38088e-05
9.76048e-05
1.55244e-05
6.21805e-05
-3.10615e-05
0.000204875
1.65057e-06
0.000206406
5.34639e-06
0.000208351
1.40848e-05
0.000211774
2.77445e-05
0.000219132
4.20669e-05
0.000229416
4.8431e-05
0.00024126
3.87358e-05
0.000246405
1.08064e-05
0.000247592
-4.36399e-05
-0.000130248
-0.000156554
-8.12933e-05
9.50893e-05
0.000103038
-2.53328e-05
-0.000111706
8.06445e-05
0.000202951
1.92338e-06
0.000204973
3.08316e-06
0.000206091
7.60593e-06
0.000206858
1.90011e-05
0.000210442
3.64349e-05
0.000217973
5.35097e-05
0.000230359
5.93316e-05
0.000246674
3.84676e-05
0.000278184
-1.97851e-05
1.35147e-05
-0.000187403
-0.000100227
-0.00013762
7.46459e-05
0.000123481
-6.70489e-05
-6.999e-05
9.65091e-05
-1.58647e-05
0.000199169
3.78187e-06
0.00020323
3.6662e-06
0.00020554
3.6343e-06
0.000204981
9.48268e-06
0.00020516
2.42826e-05
0.000207989
4.6419e-05
0.00021647
6.73989e-05
0.000237089
6.89159e-05
0.000294948
2.17032e-05
0.000156383
-0.000162653
-0.000107166
-0.000180464
5.70921e-05
-0.000120066
1.4427e-05
4.20052e-05
6.95556e-05
-4.30365e-05
-8.18704e-05
0.000191646
7.52386e-06
0.000199722
7.28981e-06
0.000205
4.20634e-06
0.0002051
3.51516e-06
0.000203987
1.06557e-05
0.000202245
3.00268e-05
0.000204364
5.85249e-05
0.000222057
8.24311e-05
0.000297623
6.62411e-05
0.000257305
-7.9219e-05
-8.00567e-05
-0.000189763
3.51031e-05
-0.000158475
2.42344e-05
-0.000129874
2.99532e-05
8.16075e-05
-5.76666e-05
0.000179448
1.21978e-05
0.00019268
1.45666e-05
0.000202163
1.01271e-05
0.000205369
3.9373e-06
0.000205879
1.62379e-06
0.000201716
1.11842e-05
0.000197806
3.6585e-05
0.000208244
7.23384e-05
0.000289636
9.0418e-05
0.000303417
2.01289e-05
-1.85539e-05
-0.000140722
2.64216e-05
-0.000181082
8.15879e-06
-0.000142399
1.00375e-05
-0.000109958
-6.27033e-06
0.000162214
1.72339e-05
0.000180866
2.40114e-05
0.00019553
2.11993e-05
0.000204015
1.14818e-05
0.000208654
1.16217e-06
0.000205022
-1.68239e-06
0.000198511
1.04792e-05
0.00020047
4.43589e-05
0.000278789
8.31854e-05
0.00031376
8.00754e-05
7.11809e-05
-6.96059e-05
2.73374e-05
-0.000141638
-3.542e-06
-0.000169381
-1.71068e-06
-0.000130651
5.44817e-06
0.000139934
2.22799e-05
0.000163762
3.43377e-05
0.000184
3.5541e-05
0.000198885
2.63289e-05
0.000209056
1.10796e-05
0.000209598
-3.4139e-06
0.000204441
-7.61227e-06
0.000201013
9.93617e-06
0.00027194
5.12077e-05
0.000310586
8.63593e-05
0.000144688
6.56878e-06
4.5432e-05
-8.77004e-05
-1.17939e-05
-0.000133386
-8.59688e-06
-0.000162495
4.13024e-06
0.000113106
2.6828e-05
0.000141433
4.46093e-05
0.000166978
5.13594e-05
0.000188247
4.61796e-05
0.000204785
3.05998e-05
0.000212442
8.23646e-06
0.000212623
-1.15958e-05
0.00020706
-1.36597e-05
0.000272169
9.70683e-06
0.000318077
4.3717e-05
0.000205324
2.5723e-05
8.18897e-05
-2.98888e-05
-9.10025e-06
-9.0394e-05
-1.3719e-05
-0.000128263
8.41927e-07
8.26047e-05
3.05013e-05
0.000114413
5.38476e-05
0.000144481
6.71068e-05
0.000171548
6.80579e-05
0.000194767
5.61977e-05
0.000211247
3.17943e-05
0.000219665
1.19402e-06
0.000216013
-2.05483e-05
0.000277974
-1.94644e-05
0.000348443
-2.06598e-05
0.000260954
-1.19128e-05
0.000125231
-1.76185e-05
4.22132e-06
-4.32103e-05
-1.14095e-05
-9.27035e-05
-1.44939e-06
4.95483e-05
3.30564e-05
8.36127e-05
6.13016e-05
0.000117055
8.12738e-05
0.000148902
8.97527e-05
0.000178274
8.45513e-05
0.000202808
6.46366e-05
0.000219712
3.17475e-05
0.00022398
-6.77313e-06
0.000286348
-2.89224e-05
0.00039677
-6.77912e-05
0.000315464
-7.51703e-05
0.000161999
-4.86801e-05
2.26613e-05
-3.60584e-05
-2.52652e-06
-5.20931e-05
-2.13378e-06
1.51661e-05
3.43821e-05
5.01877e-05
6.64815e-05
8.5655e-05
9.27014e-05
0.000120919
0.000109257
0.000155291
0.000112735
0.00018684
0.00010052
0.000212242
7.21064e-05
0.000227599
2.81285e-05
0.000294296
-1.47206e-05
0.00044781
-7.99621e-05
0.000371471
-0.000123798
0.000192023
-0.000105195
3.80709e-05
-6.40897e-05
7.04518e-06
-4.563e-05
-1.30976e-06
-1.92839e-05
3.44501e-05
1.53977e-05
6.91721e-05
5.14912e-05
0.000100645
8.86487e-05
0.000124972
0.000126448
0.0001381
0.000163535
0.00013604
0.000196767
0.000115995
0.00022259
7.71149e-05
0.000294503
2.79217e-05
0.000482799
-4.97098e-05
0.000436362
-0.000144853
0.000224151
-0.000155926
4.27703e-05
-0.000109894
1.26047e-05
-6.96492e-05
7.65001e-07
-5.26039e-05
3.332e-05
-1.94782e-05
6.9326e-05
1.5876e-05
0.000104787
5.34052e-05
0.000135889
9.29058e-05
0.000158514
0.000133625
0.00016801
0.000173148
0.000159659
0.000207543
0.000131042
0.000283736
8.78815e-05
0.000484606
2.61144e-05
0.000502871
-0.000116219
0.000259914
-0.000180616
3.76386e-05
-0.000150795
1.24921e-05
-0.000109782
2.16013e-06
-8.36925e-05
3.10886e-05
-5.32232e-05
6.7065e-05
-1.98666e-05
0.000105069
1.65892e-05
0.000141603
5.61147e-05
0.00017268
9.84628e-05
0.000193677
0.000142039
0.000199119
0.000183103
0.000184099
0.000262348
0.00015243
0.00046227
0.000110218
0.000552819
-2.38335e-05
0.000297937
-0.000154242
2.47282e-05
-0.000167706
6.17333e-06
-0.000144476
1.21621e-06
-0.000111598
2.79052e-05
-8.47196e-05
6.2585e-05
-5.44782e-05
0.000101677
-2.04145e-05
0.000142072
1.75963e-05
0.000180122
5.97045e-05
0.000211438
0.000104994
0.000230721
0.000149907
0.000232314
0.000230801
0.000215646
0.000423449
0.00019125
0.000559305
0.000103732
0.000338015
-6.39118e-05
1.07681e-05
-0.000140282
-6.21016e-06
-0.000155323
-2.21535e-06
-0.000135555
2.39572e-05
-0.000112998
5.61837e-05
-8.68018e-05
9.49085e-05
-5.62883e-05
0.00013755
-2.11853e-05
0.000180854
1.90276e-05
0.000220799
6.39075e-05
0.000252525
0.000110057
0.000270571
0.000190052
0.000273063
0.000371077
0.000268018
0.000526669
0.000223887
0.000369468
7.2279e-05
6.39856e-06
-5.95425e-05
-2.1834e-05
-0.000124659
-7.99833e-06
-0.000155012
1.94568e-05
-0.00013727
4.82288e-05
-0.000115828
8.52095e-05
-8.98214e-05
0.000128442
-5.88405e-05
0.000175206
-2.20366e-05
0.000221918
2.06564e-05
0.00026405
6.61262e-05
0.000296457
0.000141919
0.000318704
0.000306283
0.000337857
0.000466386
0.000328301
0.000376804
0.00021655
1.35309e-05
6.51467e-05
-3.52411e-05
-4.61355e-05
-1.53727e-05
-0.000169651
1.46395e-05
-0.000156951
3.9138e-05
-0.000140732
7.31327e-05
-0.000119946
0.000115334
-9.40895e-05
0.000163691
-6.19748e-05
0.000215144
-2.31052e-05
0.00026568
2.08686e-05
0.000309307
8.83508e-05
0.000350025
0.000231131
0.000393856
0.000385159
0.000419084
0.000353421
0.000351684
2.43413e-05
0.00020574
-4.2982e-05
7.28877e-05
-2.31173e-05
-0.000179386
9.7349e-06
-0.000171684
2.93721e-05
-0.000160913
5.93198e-05
-0.000145769
9.89554e-05
-0.000125786
0.000147031
-9.94147e-05
0.00020113
-6.57528e-05
0.000257792
-2.38942e-05
0.000310442
3.17706e-05
0.000365888
0.000147432
0.000433724
0.00028899
0.000490025
0.000303207
0.000469299
3.25165e-05
0.000343509
-4.39553e-05
0.000206713
-2.73346e-05
-0.000184241
4.85519e-06
-0.000181324
1.93756e-05
-0.000176022
4.44813e-05
-0.000166622
8.01731e-05
-0.000152946
0.000126115
-0.00013313
0.000180746
-0.000105798
0.000241175
-6.77029e-05
0.0003016
-2.51822e-05
0.000367395
5.63469e-05
0.000456973
0.000181753
0.000540961
0.000230628
0.000562605
3.46116e-05
0.000467204
-4.06095e-05
0.000340164
-2.90479e-05
-0.00018444
1.99203e-07
-0.00018601
9.54065e-06
-0.000185979
2.93317e-05
-0.0001821
5.99587e-05
-0.000174837
0.000102064
-0.000161995
0.00015498
-0.000141889
0.000216837
-0.000110189
0.000283662
-8.18156e-05
0.000358234
-3.86291e-05
0.000462371
6.62803e-05
0.000572445
0.000141521
0.000630068
2.90531e-05
0.000568164
-3.44676e-05
0.000461063
-2.82104e-05
-0.000180669
-3.77146e-06
-0.000186368
5.57004e-07
-0.000190978
1.45404e-05
-0.000192012
3.92439e-05
-0.000191056
7.61773e-05
-0.000185147
0.000125217
-0.000172721
0.000185812
-0.000149295
0.000255943
-0.00013519
0.000337036
-0.000128828
0.000448433
-5.18848e-05
0.000580536
4.76442e-05
0.000666322
1.79904e-05
0.000641132
-2.65104e-05
0.000560207
-2.49981e-05
-0.000173522
-7.14668e-06
-0.000182575
-7.56378e-06
-0.000190702
2.81002e-07
-0.000196277
1.88059e-05
-0.000201544
4.97326e-05
-0.000202099
9.3129e-05
-0.00019732
0.000149816
-0.000182937
0.000219453
-0.000182924
0.000303678
-0.00021062
0.000418827
-0.000166645
0.000563193
-3.7397e-05
0.000665578
6.00405e-06
0.000678309
-1.7029e-05
0.000631651
-1.9894e-05
-0.000163642
-9.88083e-06
-0.000175212
-1.451e-05
-0.00018624
-1.20257e-05
-0.000196283
2.86324e-07
-0.000206638
2.38998e-05
-0.000212619
6.02527e-05
-0.000215254
0.000111063
-0.000209633
0.000176513
-0.000224144
0.000260673
-0.000283372
0.000376431
-0.00027231
0.000524492
-0.000128994
0.00065479
-8.11003e-06
0.000679693
-7.62486e-06
0.000668906
-1.33427e-05
-0.000151699
-1.19426e-05
-0.000165023
-2.00698e-05
-0.000178293
-2.24578e-05
-0.000191503
-1.68058e-05
-0.000205049
-1.30282e-06
-0.00021616
2.74408e-05
-0.000226626
7.16242e-05
-0.000228898
0.000130328
-0.000257867
0.000210236
-0.000346775
0.000324075
-0.00036742
0.000471541
-0.000223053
0.000618551
-2.21789e-05
0.00066886
-5.91915e-07
0.00067266
-6.77735e-06
-0.000138282
-1.34168e-05
-0.00015269
-2.42759e-05
-0.000167506
-3.08565e-05
-0.000182872
-3.10884e-05
-0.000199113
-2.2742e-05
-0.00021532
-2.14338e-06
-0.000231916
3.2731e-05
-0.000240299
8.30256e-05
-0.000283741
0.000156202
-0.000400408
0.000263869
-0.000451364
0.000408019
-0.000303672
0.000552161
-3.56753e-05
0.000632048
7.90683e-06
0.000660362
-7.11917e-07
-0.000123813
-1.44688e-05
-0.000138851
-2.7256e-05
-0.000154558
-3.7224e-05
-0.000171283
-4.24452e-05
-0.000189267
-4.0934e-05
-0.000208257
-2.98041e-05
-0.000228229
-5.83068e-06
-0.000243675
3.61069e-05
-0.00030194
0.000101224
-0.000444088
0.000199881
-0.000522575
0.00033508
-0.000368119
0.000472466
-4.76133e-05
0.000564099
1.79752e-05
0.000621981
6.20696e-06
-1.51157e-05
-0.000108698
-0.000124096
-2.92238e-05
-0.000140071
-4.1743e-05
-0.000157513
-5.09946e-05
-0.000176464
-5.52489e-05
-0.000196913
-5.2278e-05
-0.000219395
-3.86381e-05
-0.000242492
-7.01347e-06
-0.000312354
4.65217e-05
-0.000477722
0.000134859
-0.000579694
0.000257001
-0.000413894
0.000380855
-5.23007e-05
0.000477153
2.69935e-05
0.000555081
1.33793e-05
-3.03122e-05
-0.000108899
-3.55505e-05
-7.31471e-05
-0.000124655
-4.46395e-05
-0.000142212
-5.70435e-05
-0.000161533
-6.59251e-05
-0.000182508
-6.96544e-05
-0.000206015
-6.56572e-05
-0.00023311
-4.80207e-05
-0.000314102
-5.26566e-06
-0.000499789
6.85882e-05
-0.000618826
0.000173991
-0.000436183
0.00027929
-4.7952e-05
0.000376507
3.54527e-05
0.000468694
1.98231e-05
-4.60001e-05
-0.000108967
-7.13092e-05
-7.31403e-05
-3.06291e-05
-4.2518e-05
-0.000125964
-6.08874e-05
-0.000145097
-7.34797e-05
-0.000166026
-8.24074e-05
-0.000189794
-8.58752e-05
-0.000219665
-7.91015e-05
-0.000308445
-5.36782e-05
-0.000505023
-3.18069e-08
-0.000630194
7.99557e-05
-0.000429454
0.000167261
-3.45597e-05
0.000265898
4.37334e-05
0.000368226
2.5281e-05
-6.25654e-05
-0.000109399
-0.000107781
-7.24956e-05
-6.07126e-05
-4.30568e-05
-2.54925e-05
-1.70255e-05
-0.000127658
-7.83264e-05
-0.000148065
-9.14402e-05
-0.00017185
-0.000100352
-0.000204276
-0.000101265
-0.000298794
-8.87526e-05
-0.000486213
-7.24881e-05
-0.000599128
-3.1098e-05
-0.000396237
4.67391e-05
-1.60908e-05
0.000148792
5.14152e-05
0.000258216
2.96341e-05
-8.03292e-05
-0.000109894
-0.000145418
-7.17619e-05
-9.09911e-05
-4.22171e-05
-4.90836e-05
-1.94657e-05
-3.22654e-05
1.52399e-05
-0.000129036
-9.73551e-05
-0.000152606
-0.000110684
-0.000188013
-0.000116615
-0.000287571
-0.000112487
-0.000444444
-0.000130521
-0.00052991
-0.000141706
-0.000350153
-7.71821e-05
1.74538e-06
2.89032e-05
5.70097e-05
0.000143198
3.25478e-05
-9.9796e-05
-0.00010957
-0.000185192
-7.01193e-05
-0.000120696
-4.20568e-05
-7.20513e-05
-1.92494e-05
-5.90955e-05
7.36441e-06
-4.01626e-05
5.54024e-05
-0.000132233
-0.000117728
-0.000171265
-0.000127431
-0.000274308
-0.000129878
-0.000389293
-0.000167638
-0.000448748
-0.000211683
-0.000305179
-0.000186679
1.01558e-05
-8.55919e-05
5.76449e-05
2.82685e-05
3.35629e-05
-0.000120707
-0.000111322
-0.000227437
-6.73254e-05
-0.000150791
-4.00245e-05
-9.25995e-05
-2.15086e-05
-8.15037e-05
3.15881e-06
-6.7449e-05
3.46508e-05
-8.33895e-05
0.000138792
-0.000153784
-0.000135209
-0.000256514
-0.000145226
-0.000330299
-0.000188872
-0.000377933
-0.000238453
-0.000264582
-0.00025228
3.09963e-06
-0.000179623
5.08742e-05
-7.88207e-05
3.20781e-05
-0.000138803
-0.000135687
-0.000271168
-6.75912e-05
-0.000181352
-3.67648e-05
-0.000111392
-2.12317e-05
-9.47308e-05
-8.28144e-06
-8.32385e-05
1.89484e-05
-0.000145902
9.71633e-05
-0.000103303
0.000242095
-0.000234329
-0.000157395
-0.000268017
-0.000207508
-0.000325691
-0.000241115
-0.000226105
-0.000276931
-1.0287e-05
-0.000238893
3.69063e-05
-0.000165655
2.77094e-05
-0.00016086
-0.000212272
-0.000311576
-9.52792e-05
-0.00021109
-3.78526e-05
-0.000128486
-1.96708e-05
-0.000100886
-1.50769e-05
-8.8477e-05
-3.04294e-06
-0.000178891
5.19374e-05
-0.000192695
0.000186555
-0.000153563
0.000395658
-0.000209505
-0.000215906
-0.000289547
-0.000243651
-0.000188118
-0.000279103
-2.04048e-05
-0.000266814
2.25318e-05
-0.00022452
2.17595e-05
-0.000206751
-0.000163614
-0.000386133
-0.000137715
-0.00024126
-6.511e-05
-0.000143138
-2.32006e-05
-0.00010228
-1.82767e-05
-8.59226e-05
-1.76314e-05
-0.000180023
-1.91115e-06
-0.000246653
0.000105896
-0.000277073
0.000310065
-4.57576e-05
0.000441416
-0.000264055
-0.000241399
-0.000155528
-0.000276243
-2.36776e-05
-0.000275832
1.19326e-05
-0.000256216
1.54241e-05
-0.000231407
-0.000239398
-0.000562546
1.27982e-05
-0.000301687
-7.72878e-05
-0.000160568
-4.76801e-05
-9.94104e-05
-2.60699e-05
-7.3541e-05
-3.06583e-05
-0.000152196
-4.54577e-05
-0.000251724
3.1591e-06
-0.000371037
0.00019986
-0.000170497
0.000434804
0.00015096
0.000290455
-0.00012713
-0.000269798
-2.34439e-05
-0.000276477
5.68769e-06
-0.000269587
9.92527e-06
-0.000260169
-9.83684e-05
-0.000637263
-0.000164681
-0.000434217
0.000145328
-0.00019771
-4.01459e-05
-9.92786e-05
-4.78117e-05
-5.5827e-05
-4.37839e-05
-0.000106339
-7.65156e-05
-0.000211905
-8.52763e-05
-0.000398688
3.08107e-05
-0.000325182
0.000354546
0.000202896
0.000382868
0.00149009
0.000556378
-0.00175601
-2.14469e-05
-0.000271795
1.65052e-06
-0.00027244
5.7872e-06
-0.000262622
-1.89934e-05
-0.000633428
-0.000102203
-0.000479701
-0.000119197
-0.000252322
0.00019994
-0.000112169
-2.72557e-05
-4.15268e-05
-6.21119e-05
-5.28109e-05
-9.73119e-05
-0.000133333
-0.000155087
-0.000349015
-0.000134949
-0.000400299
0.000105927
0.000154656
0.000402786
0.00124893
0.000624027
0.00194162
0.00073772
-0.00212296
0.00040994
-0.00216595
1.46067e-07
-0.00027029
3.06042e-06
-0.000261064
-1.41175e-06
-0.000615735
-3.66861e-05
-0.000464318
-0.000117585
-0.000275508
-9.60116e-05
-0.000126721
0.000214493
-3.8092e-05
-3.06906e-05
-9.54279e-06
-0.00010538
-4.4688e-05
-0.000185957
-0.000221235
-0.000282867
-0.000358402
-0.000176846
4.96197e-05
0.000210964
0.00110249
0.000549228
0.00175436
0.000811285
0.00197713
0.000952477
-0.00219189
0.000621662
-0.00233468
0.000304778
-0.00247073
1.49639e-06
2.13063e-07
-0.000601135
-1.60114e-05
-0.000452447
-4.85565e-05
-0.000280303
-0.000112788
-0.000139158
-8.35741e-05
-3.68969e-05
0.000213298
1.22386e-05
-5.24719e-05
1.5667e-05
-0.000165735
-7.74403e-05
-0.000329752
-0.000258033
-0.000383236
-6.57583e-05
-6.14681e-05
0.000938297
0.000375152
0.00153719
0.000766401
0.00179786
0.000990554
0.0019561
0.00115963
-0.00216326
0.000828939
-0.00239917
0.000527073
-0.00255698
0.000220256
-0.00269098
-5.7543e-06
-0.000442981
-2.54768e-05
-0.000281479
-4.7379e-05
-0.000146894
-0.000105049
-4.12273e-05
-7.92415e-05
1.16313e-05
0.000213906
3.79311e-05
-7.4736e-05
2.17357e-05
-0.000264911
-0.000133713
-0.000454073
-8.01535e-05
-0.000368841
0.000746779
0.00013005
0.00127439
0.000637951
0.0016099
0.000954369
0.00171271
0.00123394
0.00190403
0.00130693
-0.00205133
0.000991414
-0.00232573
0.00068057
-0.00255266
0.000377503
-0.00271423
0.000138651
-0.00282963
-9.71038e-06
-0.00027966
-2.7294e-05
-0.000147185
-4.70858e-05
-5.00119e-05
-9.62618e-05
2.11337e-05
-8.8742e-05
6.78511e-06
0.000245052
7.78015e-05
-0.000130802
-4.15242e-05
-0.000357099
-5.09906e-05
-0.000483236
0.000558088
-0.00018015
0.00104475
0.000359686
0.00138468
0.000863166
0.00148637
0.00118071
0.00170847
0.00142951
0.00158814
0.00145057
-0.00173178
0.00112383
-0.00218374
0.000777744
-0.00242291
0.000455363
-0.00263052
0.000236812
-0.00281239
6.89078e-05
-0.00289854
-1.11934e-05
-0.000145739
-2.87379e-05
-4.28236e-05
-5.42727e-05
2.2962e-05
-9.80892e-05
4.31193e-05
-0.000125076
-2.52127e-05
0.000348066
8.16968e-05
-0.000254023
-6.7359e-05
-0.000340731
0.000334281
-0.000259428
0.000760567
0.000104038
0.00109519
0.000649177
0.00128805
0.00106149
0.00143489
0.0014543
0.00140791
0.00160974
0.0013947
0.000373957
-0.00147388
0.000373406
0.000391288
0.000391096
0.00123746
-0.00184542
0.00083113
-0.00223713
0.000458758
-0.0024263
0.000209643
-0.00260336
6.53923e-05
-0.00280887
1.39507e-05
-0.00291249
-1.22798e-05
-3.93554e-05
-3.22056e-05
4.42447e-05
-7.55551e-05
7.69965e-05
-0.000131967
4.51035e-05
-0.000195392
-0.000101801
0.000531564
-3.8143e-05
-0.000283239
9.69645e-05
-0.000103415
0.000436004
6.51349e-05
0.000720091
0.000479136
0.00107853
0.000858696
0.00111457
0.0013818
0.00120474
0.00165746
0.00118742
0.00181703
-6.70432e-07
0.000277099
-0.000297595
0.000395124
0.000345217
-0.00162528
0.000345036
0.000349252
0.000349362
0.000277228
-0.00029746
0.000392968
-4.6674e-07
0.000260006
0.000408848
0.000261191
0.000406667
0.000988516
-0.00200281
0.000480202
-0.00225857
0.000117205
-0.00233386
-5.55475e-05
-0.00248242
-5.44663e-05
-0.00274045
-4.80759e-05
-0.00286442
-1.4899e-05
5.47857e-05
-4.27462e-05
0.00011735
-0.000115908
0.000143613
-0.000230475
4.16734e-06
-0.00030136
-8.32331e-05
0.000576654
-0.000143024
-4.32499e-05
0.000182179
0.00015041
0.000367133
0.000418093
0.000842137
0.000715525
0.000810124
0.00116315
0.000985748
0.00160079
0.000951847
0.00189303
-0.000218446
-0.000219604
0.000868636
0.000466845
0.000465327
0.000487485
0.000487985
-6.91986e-07
-0.000328596
0.00037691
-3.21795e-07
0.000227613
-0.000257662
0.000425495
-0.00188039
0.00124362
-0.000327879
0.000374763
-3.81061e-07
-0.000360441
0.000381478
-0.000358513
0.000379614
0.000227918
-0.000257417
0.000422145
-1.4669e-07
0.000418162
0.000414834
0.000631257
-0.00215387
6.13221e-05
-0.00220269
-0.000232718
-0.00215669
-0.0002526
-0.00228428
-0.00017891
-0.00260962
-9.72598e-05
-0.00276716
-2.09991e-05
0.000147039
-7.24343e-05
0.000210592
-0.000182886
0.000221345
-0.000447651
0.000121277
-0.00050587
5.24659e-05
0.000381164
-4.93363e-05
0.000188266
0.000166417
0.000351126
0.000545169
0.000715062
0.000556102
0.000969547
0.000748276
0.00140062
0.000694881
0.00185776
0.000716559
0.000504409
0.000504923
0.000518026
0.000517751
2.93883e-07
0.000155428
-0.000176659
0.000487782
0.00015442
-0.000175619
0.00048682
-2.66776e-07
0.0001391
0.00050408
0.000138669
0.000503469
-3.10627e-07
-0.000295402
0.00041496
1.23859e-06
0.000210133
-0.000236662
0.000126132
9.80098e-05
0.000122332
0.00010431
-0.00206321
0.00081408
0.000325063
0.000324046
-0.00164448
0.000370616
0.000371012
0.000389722
0.000388693
-0.00029486
0.000411896
-2.29774e-07
0.000411368
0.00040857
0.000209599
-0.000235892
0.000125408
9.87965e-05
0.000121778
0.000103693
1.05175e-06
0.000123764
0.000100656
0.000124264
0.000101901
0.00012317
0.000101602
0.000123588
0.000101506
0.000112622
-0.00220517
-0.000360034
-0.00207537
-0.000484757
-0.00192454
-0.000396793
-0.0020664
-0.00026416
-0.00244272
-0.00016874
-0.00259842
-2.98888e-05
0.000267869
-0.000129711
0.000336606
-0.000298147
0.000346338
-0.000672714
0.000302091
-0.000755496
0.000102452
0.000229375
1.13051e-05
0.000343378
0.00026465
0.000631644
0.000362902
0.000908261
0.00049033
0.00122749
0.000417547
0.00167795
0.000574604
0.000497229
0.000497057
0.000503089
0.000502341
-2.91132e-07
0.00012218
0.000521619
0.000122202
0.000521099
-2.95054e-07
0.000107741
0.00053276
0.000107694
0.000531965
4.48987e-07
8.77418e-05
-3.72381e-05
-2.05005e-05
0.000113058
-3.27642e-05
0.000137704
0.000114872
0.000138236
-1.38004e-05
8.74536e-05
-3.73738e-05
-2.03654e-05
-3.27527e-05
0.00011324
0.000137619
0.000115016
0.000138174
-1.37405e-05
6.03456e-07
7.62983e-05
0.000117469
0.000138848
0.000118091
0.000140473
7.65508e-05
0.00011763
0.000138715
0.000118213
0.000140417
1.08714e-06
-0.000265201
0.000121984
9.83451e-05
0.000122248
9.98364e-05
-4.26033e-05
8.8095e-06
2.09284e-07
3.94806e-05
0.000120236
-9.13962e-06
4.04602e-05
-4.43975e-05
0.000111087
2.26113e-07
-4.63164e-05
0.00011668
3.81304e-05
0.000115449
-0.00214094
0.000190347
-0.00181293
0.000222868
0.000222899
0.000268108
0.000268648
-7.91906e-08
0.000296705
-0.00029969
0.00037368
0.000297567
-0.000299779
0.000373144
4.18014e-07
0.000288001
0.000398009
0.000289177
0.000397501
-0.000264422
0.000121431
9.89196e-05
0.000121581
9.95819e-05
9.23099e-07
0.000121552
9.38874e-05
0.000117078
0.000100727
0.000121065
9.57559e-05
0.000116731
0.000100697
-4.26334e-05
8.82211e-06
3.93884e-05
0.00012004
-8.94025e-06
4.08709e-05
-4.47336e-05
0.000111599
-4.63084e-05
0.000116739
3.8005e-05
0.000115381
3.29954e-05
9.69009e-06
2.31053e-07
0.000120328
-1.61087e-05
-3.36389e-05
0.000113165
2.85798e-07
0.000120362
0.000116082
3.2938e-05
9.74383e-06
0.000120108
-1.60324e-05
-3.3488e-05
0.000113749
0.000120414
0.000115767
-0.000436899
-0.0021283
-0.000678798
-0.00188133
-0.000603885
-0.00171744
-0.000503354
-0.0018272
-0.000380032
-0.00223143
-0.000220881
-0.00237754
-4.59917e-05
0.00042659
-0.000219697
0.000532563
-0.000484374
0.000470149
-0.000840775
0.000396639
-0.00104968
0.000207366
3.33135e-05
-4.24931e-05
0.000650521
0.00014451
0.000850037
0.000249877
0.00114871
0.000210504
0.00143454
0.000391528
0.000463544
0.00046312
0.000467441
0.000466925
-1.66059e-07
8.58851e-05
0.000519251
8.6077e-05
0.000518507
-1.65487e-07
7.56087e-05
0.000513531
7.58546e-05
0.000512397
9.23541e-07
6.73254e-05
0.000120481
0.000141252
0.000123675
0.000144233
6.76104e-05
0.000120852
0.000141176
0.000124719
0.000144208
1.22716e-06
5.53961e-05
0.000125558
0.000145989
0.000125496
0.000146425
5.55322e-05
0.000126457
0.000145839
0.000126641
0.00014635
-5.85466e-06
7.79213e-06
-1.93908e-05
0.000130511
-7.58189e-06
-2.82112e-05
0.000116194
7.33523e-06
-4.40283e-08
0.000139663
-1.50783e-05
-7.23722e-06
6.12348e-06
0.000123778
-3.23969e-09
6.81301e-06
0.000131537
5.52557e-08
-2.43329e-05
0.000123243
-7.70071e-06
-2.81671e-05
0.000116864
-5.66344e-06
7.79458e-06
-1.97517e-05
0.00013086
7.32337e-06
-1.51255e-05
0.000139713
-7.15486e-06
6.15611e-06
0.000123809
6.8134e-06
0.000131526
-2.4327e-05
0.000123355
-7.64857e-06
-4.98891e-06
3.10513e-06
0.000127001
-5.98954e-06
1.85941e-08
4.00715e-06
0.000133163
-7.87414e-06
0.000127099
7.33023e-09
0.000133441
-7.55065e-06
-5.02833e-06
2.99579e-06
0.000127213
-6.00198e-06
3.99352e-06
0.000133192
-7.79976e-06
0.000127141
0.000133436
4.95542e-05
9.1276e-06
2.04183e-07
-5.48657e-05
0.000117964
-9.10401e-06
-4.81536e-05
0.000111205
1.99184e-07
0.000116182
-5.26267e-05
0.000113437
-3.19712e-05
1.33165e-06
-5.02031e-08
2.84257e-05
0.0001225
-1.16625e-06
3.13563e-05
-3.44292e-05
0.000115326
-5.86739e-08
-3.49732e-05
0.00011856
2.83386e-05
0.000119799
-0.0021015
-0.000476341
-0.00188105
3.94279e-05
3.88225e-05
9.01898e-05
9.00352e-05
2.10329e-07
0.000305414
-0.000289401
0.000206644
0.000304793
-0.00028897
0.000207286
6.02684e-08
0.000273771
0.000273723
7.63897e-07
0.000221467
-0.000224889
8.00747e-05
0.000104205
8.38288e-05
0.000108201
0.000221159
-0.000224196
8.05482e-05
0.000104182
8.41032e-05
0.000108112
5.31006e-07
4.65695e-05
6.97777e-05
8.98274e-05
3.65697e-05
0.000114301
8.83708e-05
0.000113247
6.02688e-05
4.65887e-05
6.9586e-05
9.02165e-05
3.67194e-05
0.000114215
8.8531e-05
0.000113119
6.02154e-05
4.95713e-05
9.15486e-06
-5.48926e-05
0.000117801
-8.91151e-06
-4.8261e-05
0.000111359
0.000116131
-5.2865e-05
0.000113341
-5.8214e-05
9.52112e-06
2.1268e-07
0.000115167
-1.82108e-05
5.29693e-05
0.000105698
2.13135e-07
0.000110204
0.000110591
-5.82904e-05
9.50424e-06
0.000115171
-1.77284e-05
5.34562e-05
0.000106617
0.000110511
0.000110792
-3.19707e-05
1.09368e-06
2.84232e-05
0.000122444
-9.83683e-07
3.13042e-05
-3.43525e-05
0.000115631
-3.49621e-05
0.000118688
2.83663e-05
0.000119413
2.72145e-06
-4.60032e-10
0.000121716
0.000118931
2.64273e-06
0.000121561
0.000118608
-0.00082192
-0.00198518
-0.000795467
-0.00168975
-0.000697847
-0.00152295
-0.000612463
-0.00159477
-0.000451426
-0.00200088
-0.000309247
-0.00206829
-7.83773e-05
0.000646043
-0.000333178
0.000644212
-0.000658438
0.000692868
-0.001137
0.000659084
-0.0015014
0.000533972
-0.000543151
-0.000209422
0.00100445
8.59601e-05
0.00101395
7.5124e-05
0.00128409
0.000176876
0.00041591
0.000415375
0.000408936
0.000408967
-8.20651e-08
5.99864e-05
0.000479248
6.02109e-05
0.000478682
-1.14113e-07
4.78191e-05
0.000479722
4.79207e-05
0.000479101
1.13503e-06
4.47156e-05
0.000121795
0.000142129
0.000122703
0.000142198
4.47743e-05
0.000122752
0.000141993
0.000123669
0.00014198
1.0972e-06
3.93472e-05
0.000119867
0.000138812
0.000120107
0.000138993
3.86795e-05
0.000121025
0.000138651
0.000121073
0.00013882
-7.82015e-06
1.53032e-06
0.000129875
2.00416e-06
2.34172e-09
0.000135445
-7.85077e-06
2.36855e-06
0.000130692
-5.58922e-08
2.56641e-06
0.000135904
-7.66538e-06
1.29378e-06
0.000130219
1.97513e-06
0.000135531
-7.46008e-06
2.09585e-06
0.000131377
2.51207e-06
0.000136147
-7.92276e-06
-8.67063e-08
-1.11029e-06
0.000134675
-3.68395e-07
8.78613e-09
-8.72357e-07
0.000139315
-7.9954e-06
0.000135769
-8.68032e-09
0.000140621
-7.60831e-06
4.97002e-08
-1.31757e-06
0.000135333
-3.41837e-07
-9.2862e-07
0.000139517
-7.63438e-06
0.000136421
0.000140885
-2.20556e-06
-1.19837e-05
-4.20848e-07
-1.90011e-05
-2.05298e-05
-1.61967e-08
-4.66464e-08
-9.01262e-06
-5.58819e-07
-2.77319e-06
-1.56159e-08
-2.66307e-06
-2.13137e-06
-1.19983e-05
-3.83937e-07
-1.9025e-05
-9.02211e-06
-2.05308e-05
-5.34164e-07
-2.79669e-06
-2.67565e-06
-7.19491e-07
1.24395e-06
-2.14189e-06
1.01229e-06
-9.20607e-09
-1.9203e-06
-7.2999e-07
-9.1573e-09
-6.90269e-07
1.26106e-06
-2.20461e-06
1.01519e-06
-1.93938e-06
-7.20184e-07
3.98746e-05
1.96089e-06
-9.89248e-08
-4.60442e-05
0.000122282
-1.4549e-06
-3.85861e-05
0.000116817
-9.62431e-08
0.000119738
-4.2827e-05
0.000119639
-1.27928e-05
7.22041e-07
-6.73771e-09
9.33547e-06
-5.7784e-07
1.25752e-05
-1.38473e-05
-3.64365e-08
-1.40307e-05
9.75439e-06
-0.00198568
-0.000937733
-0.00189746
-0.000150636
-0.00015198
-7.80048e-05
-7.93146e-05
2.01613e-07
0.000289421
-0.000280681
3.04865e-05
0.000288597
-0.000280174
3.06016e-05
5.02456e-07
8.97074e-05
9.01646e-05
1.43946e-06
0.000242411
-0.000242859
3.36397e-05
6.08717e-05
4.21776e-05
6.89426e-05
0.000242371
-0.000243509
3.54567e-05
6.12043e-05
4.38645e-05
6.93553e-05
9.78063e-07
6.32282e-05
8.86797e-05
5.68649e-05
8.15153e-05
6.41055e-05
8.88151e-05
5.81301e-05
8.18172e-05
-8.2532e-06
3.9179e-05
-3.78457e-05
8.69946e-05
4.25428e-05
-1.13129e-07
-4.22775e-05
9.58418e-05
-8.54356e-06
3.64597e-05
9.50918e-05
-8.64239e-08
3.8902e-05
0.000103385
-7.93731e-06
3.93061e-05
-3.83805e-05
8.75599e-05
4.25525e-05
-4.23713e-05
9.595e-05
-8.29536e-06
3.64789e-05
9.52257e-05
3.88641e-05
0.000103418
-6.04323e-06
-3.20115e-05
2.08289e-05
0.000107053
-8.29997e-06
4.29633e-05
0.000107605
-3.4917e-05
-1.4528e-07
0.000116315
2.70357e-05
-7.87603e-06
0.000100695
-7.16258e-08
0.000109428
5.07274e-08
4.95359e-05
0.000112571
-5.59024e-06
-3.19161e-05
2.05368e-05
0.000107186
-8.36735e-06
4.31946e-05
0.000108509
-3.48223e-05
0.000116338