/*--------------------------------*- C++ -*----------------------------------*\
| =========                 |                                                 |
| \\      /  F ield         | OpenFOAM: The Open Source CFD Toolbox           |
|  \\    /   O peration     | Version:  5.x                                   |
|   \\  /    A nd           | Web:      www.OpenFOAM.org                      |
|    \\/     M anipulation  |                                                 |
\*---------------------------------------------------------------------------*/
FoamFile
{
    version     2.0;
    format      ascii;
    class       volScalarField;
    location    "1.7";
    object      rAU;
}
// * * * * * * * * * * * * * * * * * * * * * * * * * * * * * * * * * * * * * //

dimensions      [-1 3 1 0 0 0 0];

internalField   nonuniform List<scalar> 
12160
(
1.58577e-06
1.58568e-06
1.58573e-06
1.58709e-06
1.58563e-06
1.58571e-06
1.58706e-06
1.58592e-06
1.58559e-06
1.58571e-06
1.58703e-06
1.58633e-06
1.58706e-06
1.58558e-06
1.58574e-06
1.58853e-06
1.58747e-06
1.58699e-06
1.58687e-06
1.58556e-06
1.58582e-06
1.58853e-06
1.58847e-06
1.58693e-06
1.58825e-06
1.58706e-06
1.5856e-06
1.58587e-06
1.58857e-06
1.58845e-06
1.58841e-06
1.58841e-06
1.58697e-06
1.58709e-06
1.58576e-06
1.58575e-06
1.58852e-06
1.58847e-06
1.58838e-06
1.58836e-06
1.5869e-06
1.58845e-06
1.58715e-06
1.59128e-06
2.7198e-06
1.58852e-06
1.58842e-06
1.58833e-06
1.58831e-06
1.58771e-06
1.58841e-06
1.58848e-06
1.59254e-06
2.56502e-06
6.41723e-05
1.58853e-06
1.58844e-06
1.58832e-06
1.58823e-06
1.58762e-06
1.5882e-06
1.58811e-06
1.59387e-06
2.5741e-06
6.67581e-05
0.000794767
1.58855e-06
1.58848e-06
1.58835e-06
1.58821e-06
1.58813e-06
1.58807e-06
1.58704e-06
1.59679e-06
2.53015e-06
6.09229e-05
0.00145573
0.00157005
1.58855e-06
1.58851e-06
1.58841e-06
1.58826e-06
1.58809e-06
1.58801e-06
1.58719e-06
1.60063e-06
2.47349e-06
5.21209e-05
0.00151636
0.00158615
0.00158726
1.58857e-06
1.58853e-06
1.58848e-06
1.58835e-06
1.58815e-06
1.58795e-06
1.58826e-06
1.60438e-06
2.42451e-06
3.90194e-05
0.00150024
0.00158725
0.0015872
0.00158745
1.58838e-06
1.58845e-06
1.58709e-06
1.58845e-06
1.58828e-06
1.58803e-06
1.58822e-06
1.60812e-06
2.41862e-06
2.9668e-05
0.00140206
0.0015865
0.00158744
0.0015872
0.00158762
1.58837e-06
1.58833e-06
1.58604e-06
1.58709e-06
1.58843e-06
1.58821e-06
1.58793e-06
1.61135e-06
2.45026e-06
2.35584e-05
0.00128344
0.00158631
0.0015869
0.00158751
0.00158582
1.58856e-06
1.58845e-06
1.58709e-06
1.58589e-06
1.58774e-06
1.58843e-06
1.58817e-06
1.61292e-06
2.50691e-06
2.18894e-05
0.00110214
0.00158603
0.00158657
0.00158758
0.00158753
1.58856e-06
1.58856e-06
1.58823e-06
1.58708e-06
1.58698e-06
1.58854e-06
1.58845e-06
1.61236e-06
2.55412e-06
2.26458e-05
0.000911587
0.00158568
0.00158657
0.00158687
0.00158537
1.58856e-06
1.58856e-06
1.58856e-06
1.5883e-06
1.58747e-06
1.5881e-06
1.58856e-06
1.6083e-06
2.55492e-06
2.42085e-05
0.000829634
0.00158551
0.00158686
0.00158649
0.00158437
1.58856e-06
1.58856e-06
1.58856e-06
1.5885e-06
1.58807e-06
1.58787e-06
1.58852e-06
1.60128e-06
2.48582e-06
2.44522e-05
0.000805342
0.00158528
0.00158738
0.00158715
0.00158332
1.58855e-06
1.58856e-06
1.58856e-06
1.58856e-06
1.5885e-06
1.58806e-06
1.58848e-06
1.59342e-06
2.36005e-06
2.21502e-05
0.000758041
0.00158392
0.00158802
0.00158767
0.00158459
1.58855e-06
1.58855e-06
1.58856e-06
1.58856e-06
1.58856e-06
1.58839e-06
1.58815e-06
1.58866e-06
2.21595e-06
1.78694e-05
0.000654435
0.00158161
0.00158818
0.0015882
0.00158574
1.58854e-06
1.58855e-06
1.58855e-06
1.58856e-06
1.58856e-06
1.58841e-06
1.58833e-06
1.58816e-06
2.08093e-06
1.35019e-05
0.00050681
0.00157748
0.00158807
0.00158795
0.001587
1.58854e-06
1.58855e-06
1.58855e-06
1.58855e-06
1.58856e-06
1.58843e-06
1.58841e-06
1.58808e-06
1.96361e-06
1.00633e-05
0.000349063
0.00156936
0.0015878
0.00158815
0.00158682
1.58853e-06
1.58854e-06
1.58855e-06
1.58855e-06
1.58856e-06
1.58845e-06
1.58843e-06
1.58795e-06
1.87828e-06
7.9127e-06
0.000218141
0.00155218
0.00158734
0.00158797
0.00158631
1.58853e-06
1.58854e-06
1.58854e-06
1.58855e-06
1.58855e-06
1.58845e-06
1.58845e-06
1.58783e-06
1.82295e-06
6.59028e-06
0.000134523
0.00151372
0.00158658
0.00158703
0.00158502
1.58852e-06
1.58853e-06
1.58853e-06
1.58854e-06
1.58855e-06
1.58844e-06
1.58845e-06
1.5878e-06
1.78752e-06
5.73914e-06
9.20961e-05
0.00143065
0.00158645
0.00158654
0.00158326
1.58852e-06
1.58852e-06
1.58853e-06
1.58853e-06
1.58854e-06
1.5884e-06
1.58844e-06
1.5879e-06
1.76541e-06
5.18483e-06
7.05063e-05
0.00129121
0.00158748
0.00158751
0.00158284
1.58852e-06
1.58852e-06
1.58852e-06
1.58853e-06
1.58853e-06
1.58835e-06
1.5884e-06
1.5882e-06
1.75194e-06
4.83538e-06
5.83175e-05
0.00115037
0.00158779
0.00158809
0.00158489
1.58851e-06
1.58852e-06
1.58852e-06
1.58852e-06
1.58853e-06
1.58834e-06
1.58835e-06
1.58855e-06
1.74381e-06
4.61847e-06
5.11446e-05
0.00103424
0.00158671
0.00158796
0.00158733
1.58804e-06
1.58851e-06
1.58852e-06
1.58852e-06
1.58852e-06
1.58837e-06
1.58834e-06
1.58854e-06
1.73892e-06
4.47747e-06
4.68629e-05
0.000947638
0.0015849
0.00158694
0.00158739
1.58625e-06
1.58851e-06
1.58851e-06
1.58852e-06
1.58852e-06
1.58838e-06
1.58837e-06
1.58853e-06
1.73497e-06
4.37742e-06
4.40903e-05
0.000887559
0.00158295
0.00158589
0.00158537
1.5867e-06
1.58849e-06
1.58851e-06
1.58851e-06
1.58851e-06
1.58839e-06
1.58838e-06
1.58853e-06
1.73151e-06
4.30374e-06
4.19719e-05
0.000847414
0.00158125
0.00158491
0.0015833
1.58849e-06
1.5885e-06
1.58849e-06
1.58847e-06
1.58851e-06
1.58839e-06
1.58838e-06
1.58817e-06
1.72901e-06
4.25193e-06
4.04392e-05
0.000814043
0.00158039
0.00158406
0.00158135
1.5885e-06
1.58849e-06
1.5885e-06
1.58846e-06
1.58847e-06
1.5884e-06
1.58839e-06
1.58798e-06
1.72843e-06
4.22325e-06
3.96103e-05
0.00078839
0.00158085
0.00158337
0.00157968
1.58851e-06
1.5885e-06
1.5885e-06
1.5885e-06
1.58845e-06
1.58842e-06
1.58839e-06
1.5879e-06
1.7312e-06
4.22466e-06
3.93212e-05
0.000775426
0.00157452
0.00158505
0.00157837
1.58851e-06
1.58851e-06
1.58848e-06
1.5885e-06
1.5885e-06
1.58844e-06
1.58842e-06
1.58793e-06
1.73862e-06
4.27121e-06
3.94236e-05
0.000771431
0.00157966
0.00158282
0.00157963
1.58851e-06
1.58851e-06
1.58849e-06
1.58848e-06
1.58844e-06
1.5885e-06
1.58843e-06
1.58805e-06
1.75251e-06
4.38678e-06
4.02659e-05
0.000772174
0.00157843
0.00158846
0.00158292
1.58851e-06
1.58851e-06
1.58851e-06
1.58848e-06
1.58833e-06
1.58844e-06
1.58849e-06
1.58825e-06
1.77513e-06
4.60024e-06
4.23283e-05
0.000787755
0.00157771
0.00158307
0.00158293
1.589e-06
1.58851e-06
1.58851e-06
1.58851e-06
1.58825e-06
1.58833e-06
1.5885e-06
1.58852e-06
1.81008e-06
4.94456e-06
4.61704e-05
0.000821733
0.00157848
0.0015836
0.0015778
1.58901e-06
1.58874e-06
1.58851e-06
1.58851e-06
1.58819e-06
1.58824e-06
1.5885e-06
1.58966e-06
1.8628e-06
5.46933e-06
5.25751e-05
0.000878664
0.00157996
0.00158429
0.0015788
1.58901e-06
1.58874e-06
1.58848e-06
1.58851e-06
1.58818e-06
1.58819e-06
1.58851e-06
1.59319e-06
1.93596e-06
6.26461e-06
6.32497e-05
0.000962332
0.00158199
0.00158513
0.00158015
1.58901e-06
1.58874e-06
1.58845e-06
1.58848e-06
1.58819e-06
1.58818e-06
1.58854e-06
1.59952e-06
2.03089e-06
7.56831e-06
8.25951e-05
0.00107877
0.00158425
0.00158609
0.00158181
1.58868e-06
1.58874e-06
1.58844e-06
1.58845e-06
1.58849e-06
1.58819e-06
1.58862e-06
1.60885e-06
2.15585e-06
9.75414e-06
0.000120383
0.0012288
0.00158622
0.00158714
0.00158371
1.58867e-06
1.58828e-06
1.58842e-06
1.58833e-06
1.58851e-06
1.5885e-06
1.58878e-06
1.62117e-06
2.31582e-06
1.30681e-05
0.000188182
0.00137046
0.00158606
0.00158823
0.00158578
1.58956e-06
1.58828e-06
1.58769e-06
1.5883e-06
1.5881e-06
1.5885e-06
1.58791e-06
1.63698e-06
2.51706e-06
1.77553e-05
0.000291237
0.00146787
0.00158479
0.00158771
0.00158792
1.65912e-06
1.59017e-06
1.58771e-06
1.58777e-06
1.58805e-06
1.58842e-06
1.58802e-06
1.58792e-06
2.77388e-06
2.43728e-05
0.000420873
0.00152181
0.00158389
0.00158674
0.00158544
3.10907e-06
1.70415e-06
1.59147e-06
1.58706e-06
1.58781e-06
1.58847e-06
1.5882e-06
1.58805e-06
1.58702e-06
3.39625e-05
0.000568
0.00154914
0.00158356
0.0015861
0.00158168
4.77028e-05
3.80527e-06
1.77565e-06
1.59285e-06
1.58719e-06
1.58842e-06
1.58854e-06
1.58834e-06
1.58742e-06
1.58283e-06
0.000729057
0.00156387
0.00158346
0.00158575
0.00157896
0.000907357
8.16036e-05
4.98692e-06
1.84077e-06
1.59582e-06
1.58808e-06
1.58852e-06
1.58854e-06
1.58708e-06
1.58697e-06
1.58168e-06
0.00157225
0.00158329
0.00158295
0.00157732
0.00157686
0.00119683
0.000143359
6.18309e-06
1.89413e-06
1.59874e-06
1.58841e-06
1.58821e-06
1.58845e-06
1.58568e-06
1.58392e-06
1.58238e-06
0.00158343
0.00158262
0.00157382
0.00158342
0.00158332
0.00138844
0.000201421
7.17172e-06
1.92523e-06
1.60391e-06
1.58844e-06
1.58707e-06
1.5875e-06
1.58241e-06
1.58557e-06
1.58854e-06
1.58567e-06
0.00158276
0.00157312
0.00158266
0.00158453
0.0015864
0.00145646
0.000242743
7.61777e-06
1.96194e-06
1.60742e-06
1.58811e-06
1.58717e-06
1.58581e-06
1.5843e-06
1.58855e-06
1.58845e-06
1.58853e-06
1.585e-06
0.00157289
0.00157312
0.0015853
0.00158745
0.00158565
0.0014841
0.000256734
7.78661e-06
1.97528e-06
1.60896e-06
1.58595e-06
1.58789e-06
1.5857e-06
1.58854e-06
1.58853e-06
1.58827e-06
1.58846e-06
1.58654e-06
1.58353e-06
0.00157492
0.00158843
0.00158784
0.00158682
0.00149306
0.000252403
7.51642e-06
1.99853e-06
1.59375e-06
1.58644e-06
1.58834e-06
1.58854e-06
1.58576e-06
1.58846e-06
1.5859e-06
1.58801e-06
1.5883e-06
1.58649e-06
1.57697e-06
0.00157846
0.00158851
0.00158808
0.0015878
0.00149882
0.000237073
7.64871e-06
1.88759e-06
1.58702e-06
1.58755e-06
1.58854e-06
1.58855e-06
1.58573e-06
1.58814e-06
1.58536e-06
1.58716e-06
1.58753e-06
1.58798e-06
1.58409e-06
1.56389e-06
0.00158159
0.00158851
0.00158836
0.00158814
0.00151887
0.0002175
8.14353e-06
1.68518e-06
1.58567e-06
1.58854e-06
1.58855e-06
1.58854e-06
1.58645e-06
1.58746e-06
1.5921e-06
1.58695e-06
1.58694e-06
1.58711e-06
1.5856e-06
1.58439e-06
1.57452e-06
0.00158459
0.00158851
0.00158833
0.00158748
0.0015408
0.000247456
7.46258e-06
1.59255e-06
1.58854e-06
1.58854e-06
1.58854e-06
1.58849e-06
1.58604e-06
1.58683e-06
1.54371e-06
1.59074e-06
1.5434e-06
1.543e-06
1.54297e-06
1.58687e-06
1.58684e-06
1.58684e-06
1.58696e-06
1.58807e-06
1.58851e-06
0.00158738
0.0015885
0.00158716
0.0015868
0.00156767
0.000413543
4.8437e-06
1.60207e-06
1.58805e-06
1.58704e-06
1.58853e-06
1.58828e-06
1.58561e-06
1.58899e-06
1.544e-06
1.54146e-06
1.58689e-06
1.54379e-06
1.54633e-06
1.54695e-06
1.54144e-06
1.53755e-06
1.53743e-06
1.58687e-06
1.58682e-06
1.58612e-06
1.58767e-06
1.58832e-06
1.58851e-06
0.0015881
0.00158776
0.00158551
0.00158625
0.00158097
0.000756181
3.90322e-06
1.6025e-06
1.58805e-06
1.58633e-06
1.58845e-06
1.58769e-06
1.59093e-06
1.5392e-06
1.53923e-06
1.55324e-06
1.55328e-06
1.53842e-06
1.54885e-06
1.58732e-06
1.59378e-06
1.53841e-06
1.54488e-06
1.54484e-06
1.549e-06
1.53484e-06
1.5351e-06
1.58558e-06
1.58433e-06
1.5858e-06
1.58584e-06
1.58834e-06
1.58851e-06
0.00158733
0.00158672
0.00158352
0.0015841
0.00158447
0.000876261
3.59355e-06
1.59735e-06
1.58853e-06
1.58721e-06
1.5881e-06
1.58917e-06
1.54053e-06
1.5405e-06
1.54081e-06
1.54073e-06
1.55324e-06
1.55316e-06
1.55413e-06
1.55498e-06
1.54861e-06
1.3482e-06
1.41957e-06
1.35576e-06
1.42597e-06
1.58654e-06
1.58932e-06
1.54354e-06
1.54361e-06
1.55499e-06
1.55505e-06
1.54953e-06
1.54484e-06
1.54582e-06
1.34898e-06
1.44136e-06
1.35654e-06
1.44291e-06
1.35136e-06
1.41138e-06
1.35526e-06
1.42691e-06
1.35222e-06
1.43148e-06
1.35545e-06
1.43622e-06
1.58679e-06
1.58399e-06
1.58507e-06
1.58603e-06
1.58821e-06
1.58851e-06
0.00158616
0.00158554
0.00158445
0.0015808
0.00158384
0.000590295
3.45411e-06
1.60199e-06
1.58851e-06
1.58778e-06
1.59315e-06
1.52134e-06
1.52146e-06
1.5382e-06
1.53832e-06
1.55061e-06
1.551e-06
1.54499e-06
1.54498e-06
1.48102e-06
1.40431e-06
1.40085e-06
1.48109e-06
1.38742e-06
1.35635e-06
1.41943e-06
1.48385e-06
1.40087e-06
1.48229e-06
1.3875e-06
1.35622e-06
1.45784e-06
1.35236e-06
1.46959e-06
1.35948e-06
1.45836e-06
1.35242e-06
1.47045e-06
1.35958e-06
1.35168e-06
1.42075e-06
1.35068e-06
1.40145e-06
1.36872e-06
1.44604e-06
1.37861e-06
1.44573e-06
1.5908e-06
1.59226e-06
1.55648e-06
1.55645e-06
1.564e-06
1.56394e-06
1.56048e-06
1.56072e-06
1.57017e-06
1.57026e-06
1.35191e-06
1.43934e-06
1.35154e-06
1.41336e-06
1.34263e-06
1.42316e-06
1.35303e-06
1.38718e-06
1.34262e-06
1.42336e-06
1.35288e-06
1.38679e-06
1.36947e-06
1.45993e-06
1.37869e-06
1.45418e-06
1.36216e-06
1.4361e-06
1.36288e-06
1.43708e-06
1.58667e-06
1.58682e-06
1.58526e-06
1.58623e-06
1.58839e-06
1.58851e-06
0.00158439
0.00158802
0.00158149
0.001581
0.00158184
0.00103066
4.27078e-06
1.61103e-06
1.58824e-06
1.59333e-06
1.52874e-06
1.52923e-06
1.52569e-06
1.52563e-06
1.54448e-06
1.54457e-06
1.54635e-06
1.54647e-06
1.45714e-06
1.34412e-06
1.45096e-06
1.32721e-06
1.45742e-06
1.34414e-06
1.45149e-06
1.32865e-06
1.43642e-06
1.32627e-06
1.44161e-06
1.32853e-06
1.43876e-06
1.32621e-06
1.44185e-06
1.32842e-06
1.43167e-06
1.2335e-06
1.2108e-06
1.36264e-06
1.4309e-06
1.3516e-06
1.44e-06
1.23403e-06
1.36424e-06
1.21095e-06
1.43557e-06
1.3517e-06
1.41891e-06
1.32561e-06
1.41689e-06
1.33931e-06
1.4196e-06
1.32559e-06
1.41333e-06
1.33797e-06
1.36979e-06
1.4404e-06
1.37535e-06
1.44401e-06
1.40296e-06
1.46365e-06
1.38636e-06
1.48466e-06
1.58916e-06
1.59208e-06
1.57118e-06
1.57147e-06
1.56758e-06
1.56768e-06
1.56496e-06
1.56557e-06
1.57084e-06
1.5717e-06
1.4968e-06
1.34995e-06
1.49779e-06
1.4113e-06
1.49408e-06
1.35208e-06
1.49801e-06
1.4114e-06
1.48827e-06
1.43181e-06
1.41221e-06
1.48998e-06
1.40708e-06
1.3484e-06
1.43776e-06
1.4312e-06
1.41161e-06
1.49184e-06
1.40712e-06
1.34796e-06
1.37e-06
1.45123e-06
1.37555e-06
1.45031e-06
1.36077e-06
1.43435e-06
1.3607e-06
1.4342e-06
1.40551e-06
1.47044e-06
1.38958e-06
1.49135e-06
1.37436e-06
1.50863e-06
1.37423e-06
1.51355e-06
1.5868e-06
1.58686e-06
1.58558e-06
1.58789e-06
1.58728e-06
1.5885e-06
0.00158169
0.00158789
0.00158194
0.00156804
0.00155474
0.00132716
6.22334e-06
1.67189e-06
1.58717e-06
1.53578e-06
1.53573e-06
1.54349e-06
1.54378e-06
1.53057e-06
1.53061e-06
1.53062e-06
1.53061e-06
1.43606e-06
1.32454e-06
1.43371e-06
1.32244e-06
1.43585e-06
1.32436e-06
1.43366e-06
1.32238e-06
1.43559e-06
1.32388e-06
1.43202e-06
1.32011e-06
1.4356e-06
1.32373e-06
1.43192e-06
1.32008e-06
1.42544e-06
1.32135e-06
1.46578e-06
1.3158e-06
1.42552e-06
1.3213e-06
1.46574e-06
1.32109e-06
1.46371e-06
1.35843e-06
1.45209e-06
1.34477e-06
1.466e-06
1.35833e-06
1.45173e-06
1.34456e-06
1.36519e-06
1.45421e-06
1.3684e-06
1.45574e-06
1.58716e-06
1.58872e-06
1.56233e-06
1.56229e-06
1.56176e-06
1.56143e-06
1.56513e-06
1.56521e-06
1.56336e-06
1.56355e-06
1.48609e-06
1.40524e-06
1.5046e-06
1.44606e-06
1.48473e-06
1.40453e-06
1.51003e-06
1.44763e-06
1.51126e-06
1.44298e-06
1.46873e-06
1.42094e-06
1.51052e-06
1.44257e-06
1.47808e-06
1.42568e-06
1.48142e-06
1.3941e-06
1.47879e-06
1.3978e-06
1.47706e-06
1.39582e-06
1.47885e-06
1.39787e-06
1.45785e-06
1.29301e-06
1.28032e-06
1.33034e-06
1.46292e-06
1.39705e-06
1.45763e-06
1.13005e-06
1.27769e-06
1.33012e-06
1.46679e-06
1.39702e-06
1.36524e-06
1.45537e-06
1.36901e-06
1.45589e-06
1.35051e-06
1.46682e-06
1.3504e-06
1.46677e-06
1.58681e-06
1.58692e-06
1.58709e-06
1.58686e-06
1.58838e-06
1.5885e-06
0.00157866
0.00158753
0.00156481
0.00153999
0.00131158
0.000864597
1.10257e-05
1.90462e-06
1.59102e-06
1.53476e-06
1.53474e-06
1.53656e-06
1.53618e-06
1.55342e-06
1.55341e-06
1.55265e-06
1.55266e-06
1.44129e-06
1.3429e-06
1.43779e-06
1.33969e-06
1.44077e-06
1.34269e-06
1.43739e-06
1.33951e-06
1.41979e-06
1.32367e-06
1.43128e-06
1.32658e-06
1.41867e-06
1.32339e-06
1.43087e-06
1.32633e-06
1.20363e-06
1.13387e-06
1.20299e-06
1.13371e-06
1.5868e-06
1.5887e-06
1.56208e-06
1.56201e-06
1.55771e-06
1.55768e-06
1.56606e-06
1.56602e-06
1.56221e-06
1.56185e-06
1.50099e-06
1.45683e-06
1.49852e-06
1.44979e-06
1.50333e-06
1.45677e-06
1.50072e-06
1.44933e-06
1.50591e-06
1.40859e-06
1.51258e-06
1.42803e-06
1.51004e-06
1.40763e-06
1.51747e-06
1.42735e-06
1.49116e-06
1.49347e-06
1.51319e-06
1.4817e-06
1.49142e-06
1.49327e-06
1.52031e-06
1.48132e-06
1.50018e-06
1.43238e-06
1.42274e-06
1.45089e-06
1.49952e-06
1.43223e-06
1.43796e-06
1.44929e-06
1.58687e-06
1.587e-06
1.58724e-06
1.58797e-06
1.58839e-06
1.5885e-06
0.00157517
0.0015793
0.00151804
0.000808975
0.000345252
0.000207344
2.71395e-05
2.58678e-06
1.54766e-06
1.54822e-06
1.68862e-06
1.68878e-06
1.55491e-06
1.55493e-06
1.53259e-06
1.53247e-06
1.34133e-06
1.44841e-06
1.34504e-06
1.44701e-06
1.34128e-06
1.44882e-06
1.34507e-06
1.44694e-06
1.34327e-06
1.43077e-06
1.33714e-06
1.44695e-06
1.3433e-06
1.43585e-06
1.33717e-06
1.44936e-06
1.41025e-06
1.33283e-06
1.45017e-06
1.36636e-06
1.40985e-06
1.33568e-06
1.44989e-06
1.36777e-06
1.46198e-06
1.36827e-06
1.44753e-06
1.35255e-06
1.46109e-06
1.36834e-06
1.44717e-06
1.35191e-06
1.58454e-06
1.58768e-06
1.58012e-06
1.55425e-06
1.55609e-06
1.56418e-06
1.56414e-06
1.55825e-06
1.55876e-06
1.56934e-06
1.56937e-06
1.51484e-06
1.45393e-06
1.51473e-06
1.45053e-06
1.51552e-06
1.45572e-06
1.51779e-06
1.4518e-06
1.52431e-06
1.46468e-06
1.52474e-06
1.47356e-06
1.52913e-06
1.46452e-06
1.52993e-06
1.4735e-06
1.42452e-06
1.47945e-06
1.42967e-06
1.47964e-06
1.58696e-06
1.58711e-06
1.58736e-06
1.5857e-06
1.58841e-06
1.5885e-06
0.00157125
0.0015657
0.000765042
0.000139871
6.44407e-05
4.47666e-05
2.78739e-05
3.99818e-06
1.54116e-06
1.541e-06
1.82351e-06
1.82333e-06
1.43151e-06
1.3383e-06
1.34957e-06
1.45522e-06
1.43307e-06
1.33834e-06
1.34976e-06
1.44912e-06
1.5514e-06
1.55136e-06
1.3521e-06
1.36015e-06
1.28066e-06
1.45083e-06
1.35213e-06
1.36121e-06
1.28355e-06
1.45082e-06
1.37018e-06
1.43918e-06
1.35133e-06
1.46676e-06
1.37024e-06
1.44679e-06
1.35178e-06
1.46937e-06
1.29191e-06
1.22599e-06
1.29207e-06
1.23116e-06
1.58465e-06
1.58406e-06
1.58516e-06
1.5375e-06
1.53727e-06
1.54137e-06
1.54428e-06
1.5591e-06
1.56086e-06
1.54482e-06
1.54549e-06
1.46001e-06
1.46144e-06
1.43289e-06
1.50904e-06
1.46125e-06
1.46302e-06
1.43387e-06
1.50925e-06
1.48155e-06
1.52483e-06
1.46723e-06
1.5132e-06
1.48149e-06
1.52632e-06
1.48586e-06
1.51182e-06
1.54044e-06
1.47443e-06
1.54873e-06
1.48366e-06
1.53884e-06
1.49481e-06
1.54898e-06
1.48726e-06
1.53059e-06
1.48422e-06
1.54441e-06
1.49586e-06
1.53e-06
1.48497e-06
1.54441e-06
1.49601e-06
1.58711e-06
1.5872e-06
1.5853e-06
1.58034e-06
1.58846e-06
0.00156871
0.0011454
0.00024632
6.17881e-05
2.63422e-05
1.23226e-05
1.18331e-05
5.34573e-06
5.34615e-06
1.24434e-05
1.24245e-05
1.43872e-06
1.33791e-06
1.55316e-06
1.33462e-06
1.44639e-06
1.33845e-06
1.55905e-06
1.33511e-06
2.08704e-06
2.08697e-06
1.42081e-06
1.33808e-06
1.34534e-06
1.43727e-06
1.43046e-06
1.33842e-06
1.34532e-06
1.43721e-06
1.43522e-06
1.35797e-06
1.46743e-06
1.36446e-06
1.443e-06
1.35815e-06
1.46425e-06
1.36455e-06
1.25767e-06
1.47977e-06
1.38268e-06
1.33183e-06
1.25779e-06
1.48421e-06
1.38315e-06
1.3321e-06
1.58708e-06
1.5838e-06
1.5849e-06
1.57319e-06
1.55488e-06
1.555e-06
1.5186e-06
1.52189e-06
1.5264e-06
1.52817e-06
1.43818e-06
1.41791e-06
1.36644e-06
1.38771e-06
1.44145e-06
1.42006e-06
1.36847e-06
1.38953e-06
1.46323e-06
1.50489e-06
1.45442e-06
1.51506e-06
1.46462e-06
1.50546e-06
1.45555e-06
1.51628e-06
1.48054e-06
1.52971e-06
1.49382e-06
1.52858e-06
1.48106e-06
1.52998e-06
1.49406e-06
1.52914e-06
1.49295e-06
1.46923e-06
1.48907e-06
1.46979e-06
1.58721e-06
1.58534e-06
1.58182e-06
1.58289e-06
0.00152847
0.000631319
0.000203365
6.45583e-05
2.65851e-05
1.04998e-05
1.15161e-05
1.19074e-05
5.28652e-06
5.35257e-06
8.57946e-06
8.47712e-06
2.00165e-05
2.00212e-05
1.47119e-06
1.33261e-06
1.65053e-06
1.33685e-06
1.4802e-06
1.33244e-06
1.65661e-06
1.33665e-06
1.71168e-06
3.10245e-06
1.89897e-06
2.24774e-06
1.7095e-06
3.12165e-06
1.89761e-06
2.25734e-06
1.4712e-06
1.36822e-06
1.36771e-06
1.47282e-06
1.47286e-06
1.36845e-06
1.36772e-06
1.46895e-06
1.43858e-06
1.35576e-06
1.4093e-06
1.32441e-06
1.44747e-06
1.35568e-06
1.40919e-06
1.32441e-06
1.58723e-06
1.58701e-06
1.58191e-06
1.57878e-06
1.52283e-06
1.52664e-06
1.51217e-06
1.51554e-06
1.51352e-06
1.51433e-06
1.39136e-06
1.34554e-06
1.32103e-06
1.32185e-06
1.3922e-06
1.34736e-06
1.32319e-06
1.32298e-06
1.40485e-06
1.36399e-06
1.40738e-06
1.36638e-06
1.40557e-06
1.40561e-06
1.40702e-06
1.36885e-06
1.40895e-06
1.36705e-06
1.40663e-06
1.40706e-06
1.49788e-06
1.43084e-06
1.49856e-06
1.43201e-06
1.35937e-06
1.4957e-06
1.44645e-06
1.41004e-06
1.35979e-06
1.49744e-06
1.44754e-06
1.41031e-06
1.58636e-06
1.58233e-06
1.58454e-06
0.00139424
0.000683439
0.000477148
0.00029475
0.000104626
1.05716e-05
7.82312e-06
7.54612e-06
4.34087e-06
4.34448e-06
1.59699e-05
3.25915e-06
1.46362e-05
1.94701e-05
1.68445e-05
2.03193e-06
3.26967e-06
1.52329e-05
2.02683e-06
1.43158e-05
1.94784e-05
1.70186e-05
1.97428e-05
1.89375e-05
1.97558e-05
1.82073e-05
1.97614e-05
1.89444e-05
1.97753e-05
1.82374e-05
1.51939e-06
1.35945e-06
1.64751e-06
1.38305e-06
1.51875e-06
1.35929e-06
1.64735e-06
1.38286e-06
1.75082e-06
2.40995e-06
1.74734e-06
2.42379e-06
1.24183e-06
1.30974e-06
1.24177e-06
1.30939e-06
1.37475e-06
1.2795e-06
1.37458e-06
1.27935e-06
1.58629e-06
1.58721e-06
1.58303e-06
1.58619e-06
1.52391e-06
1.52359e-06
1.52612e-06
1.52764e-06
1.49495e-06
1.49935e-06
1.48083e-06
1.48294e-06
1.30045e-06
1.27387e-06
1.29107e-06
1.33706e-06
1.37542e-06
1.32832e-06
1.30475e-06
1.27721e-06
1.29252e-06
1.33844e-06
1.37496e-06
1.32907e-06
1.4527e-06
1.36768e-06
1.45285e-06
1.36783e-06
1.44246e-06
1.35428e-06
1.40832e-06
1.42827e-06
1.3473e-06
1.40097e-06
1.44311e-06
1.35538e-06
1.41003e-06
1.42861e-06
1.34756e-06
1.4009e-06
1.49164e-06
1.43386e-06
1.49327e-06
1.43499e-06
1.58458e-06
1.58494e-06
0.00137664
0.00125491
0.0011909
0.00110596
0.000472747
7.49297e-06
7.51833e-06
7.3477e-05
7.33748e-05
4.4679e-06
4.20399e-06
4.1898e-06
4.17744e-06
4.11762e-06
1.51205e-05
1.22005e-05
4.87266e-06
1.77625e-05
1.24847e-05
4.09343e-06
1.52548e-05
4.83763e-06
1.26068e-05
1.82836e-05
1.58546e-05
1.22496e-05
6.1274e-06
1.58659e-05
1.13845e-05
1.34863e-05
6.91207e-06
1.6502e-05
1.25568e-05
1.75492e-06
1.41212e-06
1.75518e-06
1.41097e-06
1.58491e-06
1.58662e-06
1.58323e-06
1.58539e-06
1.57034e-06
1.54017e-06
1.52993e-06
1.55436e-06
1.54391e-06
1.26333e-06
1.2728e-06
1.30378e-06
1.267e-06
1.25578e-06
1.27434e-06
1.30404e-06
1.27043e-06
1.2829e-06
1.30884e-06
1.22385e-06
1.30581e-06
1.26667e-06
1.30227e-06
1.28436e-06
1.30832e-06
1.22504e-06
1.30704e-06
1.26813e-06
1.30372e-06
1.32394e-06
1.32963e-06
1.28811e-06
1.36079e-06
1.32501e-06
1.32993e-06
1.30838e-06
1.36105e-06
1.40569e-06
1.32203e-06
1.40611e-06
1.32253e-06
1.41542e-06
1.33112e-06
1.37686e-06
1.31628e-06
1.41593e-06
1.33181e-06
1.37862e-06
1.31717e-06
1.58617e-06
0.00149095
0.00152625
0.00152276
0.00132706
0.000526315
1.62805e-05
1.64191e-05
0.000242756
0.000245424
2.45723e-06
3.60119e-06
2.48496e-06
3.36286e-06
2.4581e-06
3.75124e-06
2.48688e-06
3.38914e-06
4.28252e-06
4.04192e-06
5.38059e-06
2.4894e-06
8.35731e-06
3.00312e-06
5.69074e-06
2.84462e-06
8.80017e-06
6.10684e-06
1.58655e-06
1.58562e-06
1.58658e-06
1.5857e-06
1.5846e-06
1.49095e-06
1.49322e-06
1.47608e-06
1.47862e-06
1.51887e-06
1.51947e-06
1.49249e-06
1.49074e-06
1.29395e-06
1.30683e-06
1.33519e-06
1.27585e-06
1.28268e-06
1.30804e-06
1.34043e-06
1.27694e-06
1.27907e-06
1.24666e-06
1.19335e-06
1.18006e-06
1.22838e-06
1.18172e-06
1.2767e-06
1.24333e-06
1.19152e-06
1.19512e-06
1.237e-06
1.18731e-06
1.22156e-06
1.29668e-06
1.22308e-06
1.2969e-06
0.00150633
0.00157747
0.00156294
0.000972976
0.000830749
0.000824401
0.000842952
0.000808273
4.42233e-05
4.46428e-05
0.000372631
0.000378809
2.47698e-06
3.12796e-06
2.45224e-06
3.22711e-06
2.47803e-06
3.19425e-06
2.45261e-06
3.2943e-06
9.03556e-06
8.26533e-06
3.96431e-06
2.73699e-06
9.018e-06
8.1635e-06
4.00346e-06
2.74963e-06
3.44938e-06
2.30304e-06
3.53397e-06
2.29614e-06
1.57718e-06
1.58615e-06
1.58722e-06
1.58534e-06
1.56811e-06
1.46874e-06
1.49058e-06
1.52316e-06
1.52503e-06
1.4743e-06
1.47511e-06
1.27991e-06
1.28167e-06
1.28334e-06
1.2426e-06
1.28048e-06
1.28171e-06
1.28238e-06
1.23577e-06
1.33433e-06
1.3179e-06
1.11815e-06
1.28965e-06
1.32589e-06
1.31928e-06
1.12203e-06
1.29013e-06
0.00152004
0.00158439
0.00154768
0.000940093
0.000834279
0.000798864
0.000786415
0.000754946
1.47118e-05
1.21163e-05
0.00016274
0.000107772
7.80924e-05
0.000456957
1.48728e-05
1.20588e-05
0.00015946
0.00010556
7.77028e-05
0.000457126
0.000600208
0.000622437
2.4199e-06
2.61913e-06
2.32469e-06
3.00827e-06
2.42034e-06
2.65124e-06
2.32376e-06
3.0395e-06
8.66535e-06
4.77468e-06
8.75324e-06
4.79103e-06
1.54664e-06
1.5874e-06
1.58549e-06
1.58376e-06
1.49018e-06
1.48996e-06
1.46495e-06
1.46704e-06
1.46379e-06
1.4905e-06
1.48063e-06
1.4798e-06
1.27628e-06
1.26358e-06
1.32173e-06
1.25872e-06
1.27158e-06
1.28748e-06
1.26842e-06
1.26513e-06
1.3209e-06
1.26026e-06
1.2706e-06
1.28877e-06
1.33158e-06
1.27497e-06
1.34749e-06
1.27425e-06
1.23086e-06
1.21604e-06
1.254e-06
1.21662e-06
0.00154079
0.00158605
0.00148958
0.00100565
0.00106454
0.00149614
0.00151237
0.000909569
0.000822545
0.000774409
0.000768492
4.62933e-05
4.84105e-05
0.000585568
0.000493069
0.000343606
0.00095502
4.65462e-05
4.90207e-05
0.00055402
0.000467139
0.000335379
0.000948098
0.00124747
0.000855685
0.0010903
0.000803751
0.00121078
0.000862254
0.00115092
0.000830105
1.55651e-06
1.5868e-06
1.58417e-06
1.5713e-06
1.45764e-06
1.45501e-06
1.492e-06
1.49834e-06
1.44763e-06
1.44858e-06
1.29338e-06
1.27875e-06
1.26219e-06
1.26847e-06
1.24309e-06
1.22461e-06
1.26274e-06
1.26967e-06
1.23954e-06
1.2253e-06
1.28055e-06
1.27871e-06
1.29547e-06
1.2899e-06
1.23352e-06
1.24332e-06
1.29365e-06
1.28594e-06
1.23306e-06
1.23396e-06
1.32643e-06
1.23998e-06
1.32721e-06
1.21362e-06
0.00156098
0.00158655
0.00154485
0.00132611
0.0013725
0.00149771
0.00149883
0.00124713
0.000936495
0.00061423
0.00124062
0.000801231
0.00109555
0.00120731
0.00094469
0.0006085
0.00102814
0.000618594
0.000822317
0.000809814
0.000873012
0.000958614
0.00105268
0.00100774
0.00106956
0.00105126
0.000761991
0.00111199
0.000810669
1.58735e-06
1.5859e-06
1.58704e-06
1.49347e-06
1.49348e-06
1.50426e-06
1.47899e-06
1.45466e-06
1.45529e-06
1.47823e-06
1.47896e-06
1.23522e-06
1.286e-06
1.2918e-06
1.28815e-06
1.27344e-06
1.28372e-06
1.23528e-06
1.27318e-06
1.28365e-06
1.28733e-06
1.29451e-06
1.28811e-06
1.31545e-06
1.25537e-06
1.2698e-06
1.16763e-06
1.27326e-06
1.3156e-06
1.16773e-06
1.25999e-06
0.00157707
0.00158324
0.00156339
0.00134749
0.00137352
0.00144954
0.00145193
0.00125154
0.000955804
0.000615588
0.00131215
0.000705932
0.00105136
0.00122584
0.000784619
0.000616203
0.00104756
0.000623006
0.00095687
0.00125696
0.00101321
0.00112505
0.000849768
0.00136095
0.0010892
0.00122563
0.000939363
0.000891255
0.000659532
0.000971265
0.000636291
1.58643e-06
1.58631e-06
1.58381e-06
1.51757e-06
1.51763e-06
1.52642e-06
1.52722e-06
1.45062e-06
1.45157e-06
1.27294e-06
1.28784e-06
1.28816e-06
1.28935e-06
1.2798e-06
1.23912e-06
1.27168e-06
1.28799e-06
1.28941e-06
1.28751e-06
1.28098e-06
1.24117e-06
1.32808e-06
1.30788e-06
1.26483e-06
1.24788e-06
1.30823e-06
1.24967e-06
1.33329e-06
1.26784e-06
0.00158291
0.00158171
0.00155496
0.00149175
0.00148626
0.00155619
0.00156294
0.00156414
0.00138351
0.00146549
0.00125377
0.00138309
0.00148749
0.00125099
0.00122709
0.000812867
0.000700223
0.0012927
0.000650527
0.00119463
0.00119508
0.00064213
0.00075057
0.00113613
0.00061545
0.00122836
0.00144016
0.00118594
0.0014752
0.00117921
1.58683e-06
1.58678e-06
1.57722e-06
1.50298e-06
1.5036e-06
1.4869e-06
1.48823e-06
1.26597e-06
1.28505e-06
1.30328e-06
1.27625e-06
1.30506e-06
1.29016e-06
1.27026e-06
1.30134e-06
1.2924e-06
1.28663e-06
1.30893e-06
1.27827e-06
1.34946e-06
1.2941e-06
1.38544e-06
1.29423e-06
1.34632e-06
1.29655e-06
1.38929e-06
1.29764e-06
1.33277e-06
1.22939e-06
1.33364e-06
1.24135e-06
0.0015856
0.0015866
0.00153997
0.00157283
0.00153925
0.0015725
0.00157518
0.00157477
0.00147731
0.00148128
0.00131159
0.00147626
0.00128557
0.00139093
0.00148252
0.00141537
0.00150136
0.00147198
0.00134429
0.00149423
0.00129653
0.00139395
0.00147323
0.00141027
0.00103499
0.00134587
0.00106486
0.00143348
0.00148499
0.00140929
0.00147827
0.00139135
1.58727e-06
1.5865e-06
1.49734e-06
1.4714e-06
1.47221e-06
1.49839e-06
1.51299e-06
1.51101e-06
1.45754e-06
1.29661e-06
1.31184e-06
1.45884e-06
1.29794e-06
1.31414e-06
1.39959e-06
1.36518e-06
1.32028e-06
1.30205e-06
1.40267e-06
1.32415e-06
1.37067e-06
1.30584e-06
1.31067e-06
1.24118e-06
1.34344e-06
1.2523e-06
1.31407e-06
1.2427e-06
1.35354e-06
1.25687e-06
0.00158577
0.00158506
0.00155286
0.00143131
0.00150261
0.00156491
0.00155292
0.00143229
0.0015096
0.00156495
0.00157523
0.0015742
0.00146733
0.00152723
0.00145341
0.00140508
0.00138552
0.00149956
0.00144911
0.00145983
0.00152598
0.00139809
0.00139582
0.00149866
0.00134418
0.00144769
0.00131052
0.00145841
1.58691e-06
1.57756e-06
1.50411e-06
1.46814e-06
1.46867e-06
1.50255e-06
1.55107e-06
1.54593e-06
1.31997e-06
1.36291e-06
1.34041e-06
1.32338e-06
1.3399e-06
1.28481e-06
1.28956e-06
1.3007e-06
1.3227e-06
1.36401e-06
1.34229e-06
1.32617e-06
1.34205e-06
1.28664e-06
1.29086e-06
1.30355e-06
1.34005e-06
1.35101e-06
1.31762e-06
1.26008e-06
1.34162e-06
1.31909e-06
1.35436e-06
1.26302e-06
0.00158415
0.00156668
0.00157052
0.00157088
0.00156549
0.00156948
0.00156861
0.00147919
0.00142794
0.00149963
0.00145154
0.00149181
0.00142823
0.00150658
0.00145654
0.00155276
0.00149102
0.00143697
0.00148774
0.00142807
0.00150258
0.00145137
0.00149906
0.00142836
0.00150739
0.00145979
0.0015531
0.00149692
0.00143724
0.00141664
0.00148443
0.00136385
0.0014445
0.00138075
0.00149694
0.00136743
0.00144509
1.58586e-06
1.57086e-06
1.51249e-06
1.48399e-06
1.32936e-06
1.3451e-06
1.48088e-06
1.33057e-06
1.34052e-06
1.50872e-06
1.52585e-06
1.51906e-06
1.39938e-06
1.38768e-06
1.27835e-06
1.32798e-06
1.19965e-06
1.28769e-06
1.39924e-06
1.39364e-06
1.28113e-06
1.20193e-06
1.33034e-06
1.28874e-06
1.27642e-06
1.23347e-06
1.27481e-06
1.23495e-06
0.00156426
0.00155965
0.00156634
0.00155998
0.00156621
0.00155662
0.00155562
0.00140678
0.00152399
0.00151227
0.00137067
0.00152238
0.00149073
0.00146889
0.00149487
0.00145335
0.00149014
0.00144111
0.00145947
0.00144826
0.00142934
0.00140703
0.00152297
0.00137651