/*--------------------------------*- C++ -*----------------------------------*\
| =========                 |                                                 |
| \\      /  F ield         | OpenFOAM: The Open Source CFD Toolbox           |
|  \\    /   O peration     | Version:  5.x                                   |
|   \\  /    A nd           | Web:      www.OpenFOAM.org                      |
|    \\/     M anipulation  |                                                 |
\*---------------------------------------------------------------------------*/
FoamFile
{
    version     2.0;
    format      ascii;
    class       volVectorField;
    location    "1.7";
    object      U;
}
// * * * * * * * * * * * * * * * * * * * * * * * * * * * * * * * * * * * * * //

dimensions      [0 1 -1 0 0 0 0];

internalField   nonuniform List<vector> 
12160
(
(0.191304 0 0.000327683)
(0.186853 0 0.0019083)
(0.191219 0 -0.00274756)
(0.190035 0 0.0034818)
(0.186457 0 -0.0045681)
(0.190404 0 -0.00161949)
(0.190003 0 0.00399126)
(0.189561 0 -0.00433324)
(0.18538 0 -0.000441289)
(0.189553 0 -0.00441379)
(0.186353 0 0.00360814)
(0.18957 0 -0.00212932)
(0.189181 0 0.00288025)
(0.18312 0 -0.00764948)
(0.187696 0 -0.00118123)
(0.182785 0 0.00324676)
(0.185785 0 -0.000938556)
(0.189584 0 0.00610803)
(0.18624 0 -0.00575106)
(0.180523 0 -0.00223441)
(0.184904 0 -0.00309755)
(0.178459 0 0.00294766)
(0.182641 0 0.000155443)
(0.186568 0 0.00623164)
(0.186759 0 -0.000765625)
(0.185198 0 0.00272723)
(0.174317 0 -0.0110551)
(0.181748 0 0.00496465)
(0.173455 0 0.00286752)
(0.178484 0 0.000988855)
(0.183407 0 0.00653247)
(0.18403 0 0.0011791)
(0.18662 0 0.00760341)
(0.177855 0 -0.00740704)
(0.170497 0 -0.00285092)
(0.175775 0 0.00450771)
(0.167958 0 0.00269511)
(0.173534 0 0.00199752)
(0.17904 0 0.00699104)
(0.182338 0 0.00307883)
(0.185208 0 0.00793144)
(0.179507 0 -0.000845284)
(0.177519 0 0.00325304)
(0.151583 0 -0.0149106)
(0.108486 0 0.0255912)
(0.162819 0 0.00243163)
(0.167943 0 0.00228084)
(0.174123 0 0.00794774)
(0.178684 0 0.00476632)
(0.184343 0 0.00900365)
(0.180501 0 0.00124727)
(0.180125 0 0.00680536)
(0.156765 0 -0.009136)
(0.0934829 0 0.000904103)
(-0.21143 0 -0.0830972)
(0.158784 0 0.00206136)
(0.162687 0 0.00196069)
(0.168106 0 0.00803437)
(0.174031 0 0.00685098)
(0.180616 0 0.0107582)
(0.18264 0 0.00459849)
(0.182287 0 0.00649056)
(0.163629 0 -0.00332888)
(0.112818 0 0.00193096)
(-0.178284 0 -0.0224059)
(-0.0804887 0 0.155582)
(0.156175 0 0.00169828)
(0.158581 0 0.00112103)
(0.162461 0 0.0072325)
(0.167614 0 0.00752487)
(0.175177 0 0.0134448)
(0.180722 0 0.00833967)
(0.185056 0 0.00888796)
(0.172611 0 -0.00229355)
(0.148147 0 -0.000142018)
(-0.237521 0 -0.029485)
(0.234056 0 0.0203091)
(0.00849539 0 -0.12773)
(0.154705 0 0.00145884)
(0.156017 0 0.00018416)
(0.158121 0 0.00560128)
(0.161546 0 0.00650373)
(0.167804 0 0.0144024)
(0.175387 0 0.0124531)
(0.182911 0 0.0134813)
(0.182814 0 0.00361406)
(0.171853 0 -0.00189993)
(-0.136128 0 -0.0277005)
(-0.0723416 0 -0.0204768)
(0.0863476 0 -0.00624432)
(-0.0690231 0 0.0995338)
(0.153375 0 0.0013598)
(0.154671 0 -0.000328427)
(0.155634 0 0.0038293)
(0.156966 0 0.00409625)
(0.160838 0 0.0129896)
(0.167269 0 0.0140041)
(0.176616 0 0.0196954)
(0.185582 0 0.0121222)
(0.200178 0 0.00416639)
(-0.0540584 0 -0.0258577)
(-0.0547372 0 -0.0686428)
(0.0631388 0 0.0782792)
(-0.0921514 0 -0.0155748)
(0.0741806 0 -0.0370322)
(0.151479 0 0.00140112)
(0.153544 0 -1.56076e-05)
(0.154768 0 0.00273779)
(0.15462 0 0.00138724)
(0.155733 0 0.00962797)
(0.159296 0 0.0120326)
(0.166854 0 0.022496)
(0.181506 0 0.0204314)
(0.216069 0 0.0143728)
(0.0748942 0 -0.0163869)
(-0.0925099 0 -0.0863729)
(0.0530448 0 -0.0184586)
(-0.00651149 0 -0.00607873)
(0.0686772 0 -0.0154861)
(-0.0502953 0 0.0214528)
(0.147301 0 0.00187212)
(0.151763 0 0.0013087)
(0.154466 0 0.00291093)
(0.154209 0 -0.000303146)
(0.153565 0 0.00574727)
(0.153529 0 0.007232)
(0.157104 0 0.0203794)
(0.171381 0 0.0239432)
(0.222752 0 0.0247791)
(0.164771 0 0.00129953)
(-0.0720987 0 -0.082172)
(0.0300735 0 -0.0362395)
(0.0263961 0 -0.0535219)
(0.0332668 0 0.0349915)
(-0.0696478 0 -0.0187913)
(0.139791 0 0.00269331)
(0.147838 0 0.00372822)
(0.153326 0 0.00450197)
(0.154482 0 -2.23572e-05)
(0.154119 0 0.003178)
(0.151493 0 0.00160079)
(0.150261 0 0.0142567)
(0.160495 0 0.0205591)
(0.219832 0 0.0295887)
(0.214966 0 0.0206205)
(-0.0494757 0 -0.0499262)
(0.0219315 0 -0.0495184)
(0.00911838 0 -0.0573733)
(0.0134171 0 -0.0292832)
(-0.0144594 0 0.00955354)
(0.128785 0 0.00365489)
(0.140768 0 0.00664858)
(0.149858 0 0.00782989)
(0.154203 0 0.00271448)
(0.156082 0 0.00327545)
(0.152945 0 -0.00218556)
(0.148488 0 0.00667536)
(0.152589 0 0.0117838)
(0.212599 0 0.026265)
(0.231956 0 0.0303085)
(0.022825 0 -0.00591166)
(0.0160467 0 -0.0489348)
(0.00280788 0 -0.0603588)
(0.00117028 0 -0.037755)
(0.00423286 0 -0.0378189)
(0.113909 0 0.00468089)
(0.129917 0 0.00987397)
(0.14303 0 0.0125298)
(0.151852 0 0.00796023)
(0.15742 0 0.00652131)
(0.156204 0 -0.00257499)
(0.151482 0 0.00142747)
(0.150369 0 0.000985257)
(0.206013 0 0.0165945)
(0.231449 0 0.0287149)
(0.0836236 0 0.0244588)
(0.0244513 0 -0.0395509)
(-0.00871902 0 -0.0418458)
(-0.00345129 0 -0.0528416)
(0.00365572 0 -0.0410075)
(0.0954034 0 0.0056538)
(0.115065 0 0.0131956)
(0.132317 0 0.017891)
(0.145956 0 0.0147475)
(0.15601 0 0.0128962)
(0.159117 0 0.00123845)
(0.157198 0 0.000582573)
(0.153423 0 -0.00748758)
(0.204144 0 0.00494763)
(0.23154 0 0.0170973)
(0.12969 0 0.0310973)
(0.0464939 0 -0.0187429)
(-0.0094095 0 -0.0225263)
(-0.0101757 0 -0.0447309)
(0.00215046 0 -0.0512879)
(0.0737937 0 0.00649017)
(0.0964649 0 0.016315)
(0.117432 0 0.0234253)
(0.13567 0 0.0224547)
(0.150658 0 0.0219743)
(0.15984 0 0.00989516)
(0.163141 0 0.00551284)
(0.159487 0 -0.00995526)
(0.20712 0 -0.00421846)
(0.246796 0 0.0010121)
(0.171994 0 0.0139811)
(0.0792087 0 -0.0110521)
(-0.00374552 0 -0.00465584)
(-0.0103175 0 -0.0346353)
(-0.000810844 0 -0.0412905)
(0.0498401 0 0.0071341)
(0.0746671 0 0.0189779)
(0.0986107 0 0.028625)
(0.120839 0 0.0303977)
(0.14069 0 0.0323934)
(0.156235 0 0.0214028)
(0.165835 0 0.0154276)
(0.165964 0 -0.00475584)
(0.213038 0 -0.00634406)
(0.279751 0 -0.0119699)
(0.212842 0 -0.0138599)
(0.108462 0 -0.019966)
(0.0108492 0 -0.00317602)
(-0.00604228 0 -0.0212327)
(-0.00148514 0 -0.0306325)
(0.0244303 0 0.00754219)
(0.0504602 0 0.0209958)
(0.0764314 0 0.0330662)
(0.101741 0 0.037853)
(0.125801 0 0.0431241)
(0.147012 0 0.0344145)
(0.162984 0 0.0291144)
(0.170548 0 0.00774919)
(0.218993 0 -0.000121296)
(0.321759 0 -0.01752)
(0.254791 0 -0.0341797)
(0.132302 0 -0.0371538)
(0.0244458 0 -0.0154727)
(0.00249703 0 -0.0185956)
(-0.00167405 0 -0.0178081)
(-0.00149677 0 0.00768976)
(0.0247581 0 0.0222586)
(0.0517202 0 0.0364416)
(0.0790167 0 0.0442075)
(0.106242 0 0.0532101)
(0.132173 0 0.0477656)
(0.154344 0 0.045268)
(0.170091 0 0.0261967)
(0.222137 0 0.0154607)
(0.356522 0 -0.0121206)
(0.30307 0 -0.0389683)
(0.153585 0 -0.0576523)
(0.0320692 0 -0.0342849)
(0.00839495 0 -0.0269975)
(-0.000139574 0 -0.0163256)
(-0.0270215 0 0.00757204)
(-0.00148154 0 0.0227153)
(0.0254297 0 0.0385627)
(0.0535674 0 0.0490216)
(0.0827056 0 0.0618099)
(0.112069 0 0.060277)
(0.139573 0 0.0620899)
(0.162472 0 0.0474792)
(0.21806 0 0.0370672)
(0.367001 0 0.00663944)
(0.359405 0 -0.0233031)
(0.177932 0 -0.0716787)
(0.0315489 0 -0.0507617)
(0.0105374 0 -0.0425048)
(0.00143922 0 -0.0249147)
(-0.0512753 0 0.00719798)
(-0.0273251 0 0.022357)
(-0.00144466 0 0.0393407)
(0.026419 0 0.0520382)
(0.0561902 0 0.0683317)
(0.0875042 0 0.0708853)
(0.118878 0 0.0780518)
(0.147499 0 0.0688737)
(0.205846 0 0.0606276)
(0.35699 0 0.0341145)
(0.406135 0 0.01284)
(0.205337 0 -0.0676419)
(0.0237727 0 -0.0586813)
(0.00818685 0 -0.0568466)
(0.0017113 0 -0.0389361)
(-0.0734849 0 0.00659023)
(-0.0518913 0 0.0212111)
(-0.0279379 0 0.0387584)
(-0.00137822 0 0.0531466)
(0.0278189 0 0.0724434)
(0.0596316 0 0.0788694)
(0.0931358 0 0.0916553)
(0.125656 0 0.088438)
(0.185835 0 0.0837455)
(0.333243 0 0.0639736)
(0.423842 0 0.0495331)
(0.239171 0 -0.0305781)
(0.0120447 0 -0.0505517)
(0.000890411 0 -0.0626905)
(7.9684e-05 0 -0.0513961)
(-0.0930085 0 0.00578837)
(-0.0743946 0 0.0193411)
(-0.0531403 0 0.0368625)
(-0.0288169 0 0.0523303)
(-0.00128331 0 0.0740119)
(0.0297116 0 0.0838387)
(0.0636729 0 0.102045)
(0.0980154 0 0.104719)
(0.158542 0 0.104748)
(0.299072 0 0.0930659)
(0.411314 0 0.0851416)
(0.271808 0 0.0290315)
(0.00323846 0 -0.0214361)
(-0.0108335 0 -0.0523088)
(-0.00355037 0 -0.0554841)
(-0.109347 0 0.00483996)
(-0.0941787 0 0.0168362)
(-0.0762356 0 0.0337578)
(-0.0549467 0 0.0496532)
(-0.0300561 0 0.072993)
(-0.00105617 0 0.0856984)
(0.031925 0 0.108867)
(0.0663123 0 0.1167)
(0.125033 0 0.122372)
(0.255473 0 0.120096)
(0.375472 0 0.120627)
(0.287648 0 0.0878175)
(0.00620053 0 0.0279073)
(-0.0226511 0 -0.022046)
(-0.00872204 0 -0.0443065)
(-0.122169 0 0.00378725)
(-0.110723 0 0.0138172)
(-0.096538 0 0.0296007)
(-0.0789106 0 0.0452547)
(-0.057499 0 0.0694806)
(-0.0315419 0 0.0845065)
(-0.000823309 0 0.111768)
(0.0324898 0 0.123771)
(0.08679 0 0.13556)
(0.203163 0 0.142992)
(0.322364 0 0.154315)
(0.280922 0 0.140295)
(0.0143865 0 0.0868937)
(-0.0303655 0 0.0254885)
(-0.0148157 0 -0.0147599)
(-0.131316 0 0.00268469)
(-0.123672 0 0.0104384)
(-0.113508 0 0.0245995)
(-0.0999752 0 0.0393449)
(-0.0826996 0 0.063666)
(-0.0606631 0 0.0803356)
(-0.0333707 0 0.110304)
(-0.00118337 0 0.126263)
(0.0451086 0 0.143448)
(0.143611 0 0.160338)
(0.255546 0 0.182774)
(0.251874 0 0.18851)
(0.0225789 0 0.146028)
(-0.0331979 0 0.0812171)
(-0.0193515 0 0.030186)
(-0.136894 0 0.00155838)
(-0.132836 0 0.0068525)
(-0.126786 0 0.018998)
(-0.117548 0 0.0322172)
(-0.104861 0 0.0558167)
(-0.0874461 0 0.0733099)
(-0.0644773 0 0.104763)
(-0.0341398 0 0.124809)
(0.00259444 0 0.146681)
(0.078698 0 0.171536)
(0.178654 0 0.204458)
(0.205496 0 0.228306)
(0.027106 0 0.200867)
(-0.0319093 0 0.1382)
(-0.0214976 0 0.0830708)
(-0.138712 0 0.000622484)
(-0.138208 0 0.00316266)
(-0.136208 0 0.0130569)
(-0.131223 0 0.0242264)
(-0.12333 0 0.0463257)
(-0.111015 0 0.0637135)
(-0.09312 0 0.0956348)
(-0.066527 0 0.119295)
(-0.0398769 0 0.145475)
(0.0071435 0 0.175572)
(0.0954597 0 0.218681)
(0.143495 0 0.260639)
(0.0258986 0 0.247818)
(-0.0280928 0 0.191353)
(-0.0217988 0 0.137689)
(-0.137356 0 -0.000282346)
(-0.140078 0 -0.000529186)
(-0.141825 0 0.00705438)
(-0.140777 0 0.0157446)
(-0.137675 0 0.0356787)
(-0.13061 0 0.0520352)
(-0.118325 0 0.0834744)
(-0.0974823 0 0.109673)
(-0.0817321 0 0.140314)
(-0.0648124 0 0.174419)
(0.00528728 0 0.225866)
(0.0690753 0 0.286432)
(0.0188428 0 0.283213)
(-0.0227554 0 0.236936)
(-0.0201877 0 0.189133)
(-0.133228 0 -0.0011803)
(-0.138764 0 -0.00383315)
(-0.143598 0 0.00138626)
(-0.146103 0 0.0071158)
(-0.147719 0 0.0243763)
(-0.145717 0 0.0388908)
(-0.139208 0 0.0688099)
(-0.12494 0 0.0957253)
(-0.119589 0 0.129813)
(-0.128768 0 0.166244)
(-0.0833074 0 0.222457)
(0.00144208 0 0.29453)
(0.00867258 0 0.300454)
(-0.0162349 0 0.272153)
(-0.0170061 0 0.233432)
(-0.126794 0 -0.00195292)
(-0.134548 0 -0.0066702)
(-0.141793 0 -0.00397919)
(-0.147678 0 -0.00142565)
(-0.15358 0 0.0129129)
(-0.15607 0 0.0249036)
(-0.155225 0 0.052494)
(-0.147709 0 0.0781752)
(-0.152978 0 0.115064)
(-0.186636 0 0.152433)
(-0.166422 0 0.212139)
(-0.0558104 0 0.292076)
(-0.00010682 0 0.303634)
(-0.00906851 0 0.293012)
(-0.0125746 0 0.267607)
(-0.118552 0 -0.00257491)
(-0.127924 0 -0.00903739)
(-0.137091 0 -0.00873732)
(-0.145862 0 -0.00912948)
(-0.154917 0 0.00202992)
(-0.161365 0 0.0105947)
(-0.166246 0 0.0353487)
(-0.165049 0 0.0579083)
(-0.181143 0 0.096714)
(-0.237715 0 0.133615)
(-0.241888 0 0.194504)
(-0.134467 0 0.272007)
(-0.0113441 0 0.305599)
(-0.00280483 0 0.299404)
(-0.00750304 0 0.288618)
(-0.109004 0 -0.00307048)
(-0.119433 0 -0.0109128)
(-0.130024 0 -0.0127486)
(-0.140805 0 -0.0158942)
(-0.152068 0 -0.00822223)
(-0.162355 0 -0.00366473)
(-0.172542 0 0.0182326)
(-0.17662 0 0.0359033)
(-0.203536 0 0.0753577)
(-0.281407 0 0.110561)
(-0.309549 0 0.17073)
(-0.201524 0 0.243811)
(-0.0215724 0 0.300021)
(0.00201082 0 0.300044)
(-0.00266117 0 0.295691)
(-0.0986165 0 -0.00348535)
(-0.10957 0 -0.0123314)
(-0.121076 0 -0.0159702)
(-0.133173 0 -0.0215285)
(-0.146088 0 -0.0171482)
(-0.159373 0 -0.0166148)
(-0.173217 0 0.00173431)
(-0.182177 0 0.0132513)
(-0.220081 0 0.0518653)
(-0.317581 0 0.0840429)
(-0.367678 0 0.141997)
(-0.254987 0 0.212278)
(-0.0329022 0 0.274367)
(0.00972285 0 0.287979)
(0.00162112 0 0.295044)
(-0.087481 0 -0.00377426)
(-0.0988554 0 -0.0134036)
(-0.110744 0 -0.0184308)
(-0.123614 0 -0.0260129)
(-0.137542 0 -0.0245733)
(-0.152435 0 -0.0278002)
(-0.1685 0 -0.0140238)
(-0.182916 0 -0.00842199)
(-0.230855 0 0.0270834)
(-0.346313 0 0.0548654)
(-0.415664 0 0.110401)
(-0.297067 0 0.174654)
(-0.0394424 0 0.2372)
(0.0166727 0 0.26165)
(0.00748044 0 0.282586)
(-0.0875967 0 -0.0141799)
(-0.0685943 0 -0.00391977)
(-0.0995384 0 -0.0201917)
(-0.112676 0 -0.0294173)
(-0.127091 0 -0.0304946)
(-0.142707 0 -0.0369135)
(-0.160073 0 -0.0274825)
(-0.178937 0 -0.0285401)
(-0.235515 0 0.00214666)
(-0.367374 0 0.0240162)
(-0.452095 0 0.0777247)
(-0.323705 0 0.133754)
(-0.0399643 0 0.192318)
(0.0231046 0 0.224949)
(0.0124904 0 0.256694)
(-0.0877796 0 -0.0212991)
(-0.0687254 0 -0.0145965)
(-0.0446479 0 -0.0037646)
(-0.100849 0 -0.0318267)
(-0.1153 0 -0.0350213)
(-0.131066 0 -0.0440463)
(-0.148871 0 -0.0382677)
(-0.170341 0 -0.045216)
(-0.233992 0 -0.0190123)
(-0.378693 0 -0.00690998)
(-0.472664 0 0.0438529)
(-0.331274 0 0.0883992)
(-0.0331017 0 0.140722)
(0.0293618 0 0.179895)
(0.0169617 0 0.220608)
(-0.0884156 0 -0.0332277)
(-0.0684878 0 -0.0220497)
(-0.0445096 0 -0.0134597)
(-0.0186702 0 -0.00355926)
(-0.102592 0 -0.0382391)
(-0.118138 0 -0.0494791)
(-0.13599 0 -0.0466392)
(-0.159429 0 -0.0579984)
(-0.228425 0 -0.0360609)
(-0.376252 0 -0.0355209)
(-0.469222 0 0.00673624)
(-0.31747 0 0.0321124)
(-0.0199538 0 0.0823695)
(0.0354428 0 0.128089)
(0.0206883 0 0.176385)
(-0.089238 0 -0.0400775)
(-0.0682694 0 -0.0339325)
(-0.0437879 0 -0.0202056)
(-0.0197192 0 -0.0119919)
(-0.00883921 0 -0.00546216)
(-0.104255 0 -0.0533911)
(-0.122075 0 -0.0530843)
(-0.1475 0 -0.0675597)
(-0.220846 0 -0.0491547)
(-0.355096 0 -0.057839)
(-0.433482 0 -0.0379452)
(-0.284623 0 -0.0396263)
(-0.00497072 0 0.0179737)
(0.0407118 0 0.0714905)
(0.0234803 0 0.125964)
(-0.0895997 0 -0.0555628)
(-0.0677694 0 -0.0408802)
(-0.0429387 0 -0.0307415)
(-0.01948 0 -0.0174235)
(-0.0115213 0 -0.0159013)
(0.0312508 0 -0.00796716)
(-0.1072 0 -0.0578163)
(-0.135011 0 -0.0749873)
(-0.211778 0 -0.0591514)
(-0.316872 0 -0.0733979)
(-0.37236 0 -0.0778197)
(-0.245036 0 -0.115067)
(0.00712636 0 -0.0444135)
(0.0435832 0 0.0128176)
(0.0250447 0 0.071385)
(-0.0914007 0 -0.0603554)
(-0.0664216 0 -0.0559034)
(-0.0410252 0 -0.0362745)
(-0.0204407 0 -0.0261365)
(-0.0114626 0 -0.0226586)
(0.0220631 0 -0.0205583)
(0.0505462 0 -0.0185342)
(-0.12237 0 -0.0808463)
(-0.200436 0 -0.0668732)
(-0.271537 0 -0.0852191)
(-0.309473 0 -0.105586)
(-0.210274 0 -0.158095)
(0.00770761 0 -0.0923262)
(0.0418152 0 -0.0438278)
(0.0249988 0 0.015177)
(-0.108909 0 -0.0846568)
(-0.0668944 0 -0.0596341)
(-0.0382329 0 -0.0491164)
(-0.0196662 0 -0.02934)
(-0.0139304 0 -0.0303428)
(0.0156826 0 -0.0265864)
(0.0285993 0 -0.046128)
(0.154295 0 -0.0164978)
(-0.185155 0 -0.0734633)
(-0.226606 0 -0.0973901)
(-0.259891 0 -0.121631)
(-0.181168 0 -0.167221)
(-0.00199814 0 -0.122427)
(0.0339498 0 -0.0929506)
(0.0228564 0 -0.0387881)
(-0.168955 0 -0.0785168)
(-0.0871296 0 -0.0846533)
(-0.038188 0 -0.0497044)
(-0.0178768 0 -0.0391182)
(-0.0141538 0 -0.0308877)
(0.00233709 0 -0.0324308)
(0.0118113 0 -0.0658961)
(0.116744 0 -0.0692975)
(0.211684 0 -0.0473392)
(-0.179749 0 -0.109233)
(-0.227374 0 -0.133658)
(-0.154122 0 -0.159106)
(-0.0125551 0 -0.138577)
(0.0226415 0 -0.128106)
(0.0187795 0 -0.0846269)
(-0.142329 0 -0.114482)
(-0.133987 0 -0.0792978)
(-0.0596898 0 -0.0728746)
(-0.0197696 0 -0.0358927)
(-0.0133653 0 -0.0361578)
(-0.00685612 0 -0.0299605)
(-0.00729484 0 -0.0717635)
(0.0669954 0 -0.0917613)
(0.164754 0 -0.0925069)
(0.370696 0 0.00418132)
(-0.207676 0 -0.1346)
(-0.129149 0 -0.154033)
(-0.0180005 0 -0.146464)
(0.0124999 0 -0.147846)
(0.0139664 0 -0.117652)
(-0.189653 0 -0.125094)
(-0.0665638 0 -0.126106)
(-0.0784411 0 -0.067717)
(-0.0396138 0 -0.0549726)
(-0.0165968 0 -0.02803)
(-0.0121405 0 -0.0316817)
(-0.0207859 0 -0.0633923)
(0.00487688 0 -0.110453)
(0.0956373 0 -0.157371)
(0.290712 0 -0.0488359)
(0.265345 0 0.0481289)
(-0.107393 0 -0.153254)
(-0.018287 0 -0.152112)
(0.00584341 0 -0.156697)
(0.00942122 0 -0.137586)
(-0.0796228 0 -0.151829)
(-0.14442 0 -0.158565)
(0.0802567 0 -0.105061)
(-0.0400258 0 -0.0476537)
(-0.0334294 0 -0.0407224)
(-0.0202777 0 -0.0177579)
(-0.0351927 0 -0.0529123)
(-0.0426068 0 -0.0970089)
(0.000563294 0 -0.17795)
(0.193316 0 -0.123855)
(0.340057 0 0.108473)
(0.229026 0 1.02787)
(-0.0181922 0 -0.153425)
(0.00265952 0 -0.15949)
(0.00576328 0 -0.148309)
(-0.0129765 0 -0.15019)
(-0.0640298 0 -0.169265)
(-0.0969602 0 -0.128798)
(0.141827 0 -0.0747686)
(-0.0220362 0 -0.0287051)
(-0.035976 0 -0.0247914)
(-0.046854 0 -0.0248912)
(-0.0735722 0 -0.0759024)
(-0.0848128 0 -0.170932)
(0.0443717 0 -0.19113)
(0.322826 0 0.089777)
(0.284107 0 0.879491)
(0.530947 1.40404e-27 1.34913)
(0.183625 0 1.39443)
(-0.000548943 0 -0.15931)
(0.00304856 0 -0.153417)
(0.000917598 0 -0.156769)
(-0.018083 0 -0.155989)
(-0.0863331 0 -0.135941)
(-0.0788016 0 -0.070832)
(0.161861 0 -0.0464755)
(-0.0171402 0 -0.00746241)
(-0.0585911 0 -0.0184595)
(-0.0928521 0 -0.0297276)
(-0.159308 0 -0.133123)
(-0.108062 0 -0.182625)
(0.103267 0 0.0624742)
(0.287734 0 0.746805)
(0.59546 6.78676e-28 1.2037)
(0.625694 -5.75947e-30 1.40908)
(0.386629 2.40639e-27 1.50522)
(0.0954639 0 1.54545)
(0.00137933 0 -0.155597)
(0.00107818 0 -0.153129)
(-0.00578369 0 -0.159703)
(-0.0353519 0 -0.122454)
(-0.0896895 0 -0.0884573)
(-0.0669298 0 -0.0312678)
(0.165017 0 -0.0207581)
(-0.0299862 0 0.00972972)
(-0.0937126 0 -0.0102278)
(-0.188125 0 -0.0568586)
(-0.250646 0 -0.153487)
(-0.174548 0 -0.0146657)
(0.1849 0 0.704954)
(0.540988 0 1.1027)
(0.668626 0 1.22686)
(0.80673 3.17984e-26 1.3964)
(0.570636 -5.96938e-30 1.54399)
(0.335624 2.62442e-27 1.64934)
(0.0975019 0 1.75648)
(-0.00210743 0 -0.153984)
(-0.0172395 0 -0.127974)
(-0.0373961 0 -0.0808264)
(-0.0827267 0 -0.0536523)
(-0.0605212 0 -0.00186246)
(0.158837 0 -0.000425281)
(-0.0440561 0 0.0220044)
(-0.157983 0 -0.0165223)
(-0.309156 0 -0.0858275)
(-0.350632 0 -0.0489857)
(0.0464615 0 0.569153)
(0.409007 0 0.955651)
(0.641298 0 1.14222)
(0.803698 9.23236e-26 1.23777)
(0.926513 -9.53166e-30 1.33906)
(0.685833 2.92067e-26 1.51482)
(0.457301 0 1.6788)
(0.218662 0 1.79064)
(0.0385113 0 1.85045)
(-0.0060558 0 -0.122673)
(-0.0207209 0 -0.0874887)
(-0.0354792 0 -0.0447071)
(-0.0767101 0 -0.0242388)
(-0.0599836 0 0.0103901)
(0.167035 0 0.0100816)
(-0.0683788 0 0.0338968)
(-0.244882 0 -0.0458145)
(-0.38545 0 -0.0243343)
(-0.20153 0 0.460828)
(0.168619 0 0.771048)
(0.562071 -9.42465e-27 1.0138)
(0.777503 5.51552e-26 1.0533)
(1.02205 0 1.2201)
(1.01067 3.60958e-25 1.13459)
(0.795733 -8.3927e-30 1.42203)
(0.571303 6.65539e-26 1.60623)
(0.333656 0 1.75396)
(0.163345 0 1.85648)
(0.0409077 0 1.91444)
(-0.00819374 0 -0.0839426)
(-0.0211944 0 -0.0500285)
(-0.0369555 0 -0.013162)
(-0.0704514 0 0.00539815)
(-0.0755789 0 -0.00344818)
(0.21414 0 0.0313443)
(-0.134264 0 0.00279614)
(-0.297705 0 -0.0287622)
(-0.328931 0 0.299288)
(-0.0543413 0 0.635757)
(0.377491 -1.94786e-26 0.854835)
(0.710612 0 0.931015)
(0.971192 -2.00724e-25 1.0748)
(1.14317 -6.0457e-25 1.00888)
(1.13373 6.81431e-10 0.976234)
(0.865933 0 1.19042)
(0.588804 0 1.49461)
(0.353507 3.9213e-26 1.64246)
(0.17996 2.37587e-28 1.76312)
(0.0632328 0 1.87973)
(0.0120283 0 1.93839)
(-0.00884525 0 -0.0471456)
(-0.0227922 0 -0.0161794)
(-0.0458574 0 0.0129944)
(-0.0781231 0 0.035988)
(-0.115646 0 -0.0475237)
(0.293644 0 0.0637438)
(-0.261757 0 -0.0460225)
(-0.207823 0 0.143988)
(-0.0469191 0 0.403291)
(0.220107 1.3701e-42 0.625567)
(0.570626 0 0.803279)
(0.896594 2.68269e-25 0.858343)
(1.19593 -2.64883e-24 0.880759)
(1.24402 -6.96151e-10 0.887121)
(1.15598 3.81041e-09 0.734854)
(0.968836 -4.91901e-10 0.990498)
(1.15275 8.60543e-10 0.734791)
(1.20549 4.46628e-09 0.710179)
(1.20241 5.9773e-10 0.711538)
(0.648015 9.26655e-25 1.27827)
(0.328164 4.32935e-25 1.50902)
(0.12878 -1.18033e-26 1.60316)
(0.027036 1.29378e-26 1.70353)
(0.00686416 0 1.84979)
(-0.00984011 0 1.93022)
(-0.00996336 0 -0.0129267)
(-0.0263971 0 0.0191269)
(-0.0682727 0 0.0315922)
(-0.119475 0 0.0802648)
(-0.1702 0 -0.13604)
(0.462666 0 -0.00268554)
(-0.153207 0 -0.020735)
(0.056334 0 0.164513)
(0.150447 7.42842e-43 0.338035)
(0.477932 0 0.637481)
(0.743302 0 0.647523)
(1.14689 4.3947e-25 0.738038)
(1.26852 -9.46405e-25 0.714145)
(1.45358 -7.40084e-10 0.640614)
(1.09386 3.96453e-09 0.80259)
(1.19862 8.1367e-09 0.615555)
(0.857417 -2.69154e-09 1.18933)
(1.09165 8.88237e-10 0.800943)
(1.11784 3.2759e-09 0.88519)
(1.11649 4.88106e-10 0.882938)
(1.19224 4.25861e-10 0.615454)
(1.20697 6.97131e-09 0.507519)
(1.19932 1.92511e-10 0.509146)
(0.400089 2.19897e-24 1.39161)
(0.0539655 -8.61251e-25 1.49149)
(-0.105426 0 1.49554)
(-0.0937893 1.12432e-26 1.57815)
(-0.0664966 0 1.78261)
(-0.0316959 0 1.87897)
(-0.0128853 0 0.023117)
(-0.0389281 0 0.0601801)
(-0.107568 0 0.0581768)
(-0.238654 0 0.133566)
(-0.288131 0 -0.0606964)
(0.387958 0 -0.149243)
(0.0906718 0 0.0694869)
(0.171938 -8.98339e-28 0.137172)
(0.463606 4.9359e-27 0.474512)
(0.592712 8.32657e-26 0.410922)
(0.965505 0 0.574559)
(1.24387 -4.43505e-24 0.549824)
(1.54472 -4.94855e-09 0.517628)
(1.38478 -3.27434e-09 0.418534)
(1.38195 4.49595e-09 0.415755)
(1.44612 5.05371e-10 0.389009)
(1.44611 3.42477e-10 0.387045)
(1.17934 9.15505e-09 0.682761)
(1.34038 7.42763e-09 0.554216)
(0.582248 2.627e-24 1.31193)
(1.04758 7.38725e-10 1.03575)
(1.17258 4.11079e-10 0.681757)
(1.16771 9.30759e-09 0.784404)
(1.16281 3.01551e-10 0.78179)
(1.33403 -7.78043e-10 0.55187)
(1.30511 5.17613e-09 0.437685)
(1.30033 -2.14493e-09 0.436023)
(0.0432502 -7.79977e-25 1.47702)
(-0.236423 0 1.44041)
(-0.275227 0 1.34344)
(-0.210767 1.46503e-26 1.44394)
(-0.120632 0 1.68127)
(-0.0622174 0 1.79965)
(-0.0183757 0 0.0639443)
(-0.0707602 0 0.118399)
(-0.166624 0 0.104206)
(-0.425071 0 0.162066)
(-0.460055 0 0.204369)
(0.207787 0 -0.120043)
(0.192171 0 0.0774461)
(0.366644 2.26293e-27 0.244553)
(0.596461 0 0.323223)
(0.84896 2.68411e-25 0.404583)
(1.14588 4.07364e-25 0.368731)
(1.50708 -2.51687e-09 0.411219)
(1.52086 -5.68678e-11 0.318045)
(1.52152 3.76784e-10 0.317342)
(1.53189 5.64562e-10 0.273027)
(1.53212 3.84816e-10 0.272841)
(1.49326 -3.94986e-09 0.230553)
(1.49197 2.90258e-09 0.228903)
(1.58116 -8.84278e-10 0.228525)
(1.58045 9.07145e-10 0.228222)
(1.30183 8.32996e-09 0.606551)
(1.46438 2.43603e-08 0.390654)
(1.27427 1.9548e-08 0.382517)
(1.4388 1.7683e-08 0.403098)
(1.31803 3.20503e-09 0.377696)
(0.14923 7.33469e-25 1.4135)
(0.620266 -6.02039e-09 1.15191)
(1.11009 1.41117e-09 0.82465)
(1.11045 1.01663e-10 0.824626)
(1.22169 -1.346e-08 0.7457)
(1.22058 1.73045e-08 0.749384)
(1.29668 9.1133e-10 0.603277)
(1.3153 1.04803e-08 0.692427)
(1.3119 -4.0895e-10 0.692187)
(1.4598 -9.18269e-09 0.390743)
(1.28217 -1.05623e-08 0.387845)
(1.43646 1.20136e-09 0.40405)
(1.31474 -3.22251e-09 0.379516)
(1.46016 2.64774e-08 0.331317)
(1.26367 2.60664e-08 0.319924)
(1.43996 2.39177e-08 0.229598)
(1.31628 3.5053e-09 0.334)
(1.45535 -1.31114e-08 0.33046)
(1.27237 -1.38832e-08 0.321759)
(1.43784 -7.46623e-09 0.229334)
(1.31141 -3.52984e-09 0.332131)
(-0.289161 0 1.43238)
(-0.446701 -3.58362e-25 1.28706)
(-0.372723 0 1.19768)
(-0.285816 1.72594e-26 1.29189)
(-0.200463 0 1.55932)
(-0.08123 0 1.66783)
(-0.0267215 0 0.125795)
(-0.124846 0 0.197593)
(-0.283152 0 0.220172)
(-0.546171 0 0.224527)
(-0.685157 0 0.228931)
(0.119657 0 -0.0567775)
(0.341411 0 0.104247)
(0.561041 0 0.15679)
(0.773834 3.10062e-25 0.238055)
(0.977435 1.06391e-24 0.168471)
(1.33432 -9.27196e-10 0.321497)
(1.48962 1.0806e-09 0.249247)
(1.48965 2.14707e-10 0.249305)
(1.49352 1.73236e-09 0.187773)
(1.49297 2.12719e-10 0.18833)
(1.61134 -5.00936e-09 0.150957)
(1.61206 1.80127e-09 0.152021)
(1.62857 -6.40169e-09 0.12627)
(1.62969 1.6272e-09 0.126689)
(1.38927 4.22001e-09 0.105665)
(1.32728 3.24156e-09 0.276683)
(1.53173 4.03819e-09 0.0849949)
(1.43802 3.90521e-09 0.0947697)
(1.58281 4.43264e-09 0.103047)
(1.4551 4.91893e-09 0.134297)
(1.33623 -2.87493e-09 0.276702)
(1.39255 -8.21078e-10 0.105695)
(1.53187 -3.86519e-09 0.0847728)
(1.43912 -2.57748e-09 0.0954709)
(1.58266 -5.12448e-09 0.103031)
(1.45576 -3.96708e-09 0.134371)
(1.52372 4.05949e-09 0.0497301)
(1.66016 7.29594e-09 0.0620983)
(1.51096 3.76458e-09 0.0640693)
(1.6529 6.31194e-09 0.0744395)
(1.52549 -3.18598e-09 0.0493196)
(1.65967 -4.68978e-09 0.0619816)
(1.51227 -3.14646e-09 0.0646906)
(1.65273 -5.08977e-09 0.0746827)
(1.46004 2.6166e-08 0.482859)
(1.272 1.81965e-08 0.44398)
(1.43093 1.74875e-08 0.458525)
(1.31338 3.28858e-09 0.467963)
(1.483 4.11025e-10 0.278814)
(1.3649 -3.74311e-10 0.301452)
(1.45159 1.53282e-09 0.305552)
(1.41158 5.87681e-10 0.27537)
(-0.334371 -1.01139e-23 1.41101)
(0.119962 -3.22814e-09 1.23186)
(0.675369 4.95054e-10 0.817609)
(0.673907 -2.7432e-10 0.816356)
(0.845071 -7.72962e-10 0.74587)
(0.844631 -7.79991e-11 0.745616)
(1.15194 -1.47353e-09 0.584826)
(1.15235 -3.17101e-11 0.584432)
(1.25041 -1.82476e-08 0.591693)
(1.24822 1.47366e-08 0.58904)
(1.45607 -9.49371e-09 0.483509)
(1.27722 -9.77971e-09 0.445488)
(1.42816 1.26505e-09 0.458485)
(1.31148 -3.30711e-09 0.471055)
(1.44464 3.02223e-08 0.557797)
(1.24455 2.10428e-08 0.479755)
(1.40543 3.03795e-08 0.609464)
(1.30198 3.40776e-09 0.503232)
(1.44291 -1.40617e-08 0.558734)
(1.26335 -1.1066e-08 0.48374)
(1.40621 -7.38589e-09 0.610061)
(1.30482 -3.39639e-09 0.506873)
(1.48137 1.96783e-09 0.278949)
(1.37318 4.87712e-10 0.301255)
(1.45285 1.15169e-09 0.305603)
(1.40985 3.44448e-11 0.275599)
(1.46785 1.03544e-09 0.242632)
(1.3995 8.2556e-10 0.255128)
(1.46571 3.38407e-10 0.242477)
(1.39624 -7.73887e-10 0.255079)
(-0.551552 -8.3631e-25 1.36458)
(-0.525928 0 1.1892)
(-0.456725 0 1.07427)
(-0.382544 0 1.12754)
(-0.264972 0 1.41271)
(-0.126499 0 1.4831)
(-0.043069 0 0.219702)
(-0.19903 0 0.311701)
(-0.419741 0 0.383569)
(-0.722892 0 0.345815)
(-0.887833 0 0.318676)
(-0.0700237 0 -0.135628)
(0.60988 0 0.0361621)
(0.706115 0 0.0955779)
(0.930336 2.46345e-25 0.0970506)
(1.17569 -5.70902e-10 0.180824)
(1.41842 1.58108e-09 0.157716)
(1.41801 1.05012e-10 0.158198)
(1.42604 1.92434e-09 0.149101)
(1.42506 1.45884e-10 0.149602)
(1.58182 -6.46271e-09 0.102989)
(1.58202 2.62641e-09 0.103612)
(1.5544 -6.4343e-09 0.0973882)
(1.55459 2.93192e-09 0.0964608)
(1.56374 4.45077e-09 -0.000230493)
(1.69693 6.36425e-09 0.00651207)
(1.58631 7.68045e-09 -0.00662168)
(1.71578 7.88858e-09 -0.00558037)
(1.56788 -3.24113e-09 -0.00184786)
(1.69732 -5.21303e-09 0.00619389)
(1.59718 -4.02552e-09 -0.00906976)
(1.71805 -5.96259e-09 -0.0057607)
(1.54232 9.98288e-09 -0.027129)
(1.66874 8.43266e-09 -0.0244087)
(1.57732 8.66507e-09 -0.0187646)
(1.70781 8.38885e-09 -0.0195656)
(1.55181 -4.82348e-09 -0.0277885)
(1.66996 -5.07401e-09 -0.0244845)
(1.58947 -4.4679e-09 -0.0213771)
(1.71005 -5.93509e-09 -0.0202119)
(1.3861 1.00018e-09 0.158901)
(1.43756 3.3804e-11 0.0454456)
(1.54601 -4.15179e-11 0.0414631)
(1.45356 1.94314e-09 0.0867941)
(1.49007 9.45926e-11 0.0258455)
(1.58462 -8.26989e-11 0.0337905)
(1.39439 1.36185e-10 0.159559)
(1.44016 -4.08026e-11 0.046216)
(1.45527 -1.04302e-09 0.0870997)
(1.54637 -2.09721e-10 0.0415852)
(1.49046 -2.24458e-10 0.0254758)
(1.58444 -4.84831e-10 0.0336998)
(1.58968 2.69873e-11 -0.0200144)
(1.66396 4.23916e-10 -0.0160653)
(1.54293 1.68872e-10 -0.00592028)
(1.62164 3.95905e-10 0.00309049)
(1.59236 -2.16886e-10 -0.0208917)
(1.66441 -2.81921e-10 -0.0163123)
(1.54331 -1.72303e-10 -0.00615498)
(1.62142 -3.28112e-10 0.00303566)
(1.47339 4.93041e-10 0.404058)
(1.37115 -6.1479e-10 0.349327)
(1.44576 1.77476e-09 0.353684)
(1.40486 6.13491e-10 0.384569)
(1.47853 7.38788e-10 0.204655)
(1.41809 -3.44443e-11 0.220155)
(1.44482 7.19628e-10 0.222629)
(1.46016 2.75206e-10 0.204314)
(-0.662809 0 1.35554)
(-0.42934 -1.05543e-09 1.24024)
(0.139147 3.65528e-09 0.775481)
(0.13487 -2.59169e-10 0.773957)
(0.334885 1.14625e-09 0.694547)
(0.332012 -6.49638e-10 0.692707)
(0.654072 -7.71638e-09 0.642251)
(0.663528 2.72647e-09 0.64339)
(0.844767 -4.12181e-09 0.578732)
(0.849109 1.00301e-09 0.577317)
(0.986726 5.51124e-09 0.423894)
(1.17416 5.73025e-09 0.474529)
(1.08097 3.99016e-09 0.417721)
(1.25927 4.78717e-09 0.436683)
(0.992924 -3.05845e-09 0.426097)
(1.17469 -5.11077e-09 0.47467)
(1.08403 -2.83745e-09 0.418959)
(1.25915 -6.00397e-09 0.436926)
(1.25047 1.88397e-09 0.32861)
(1.29577 1.60207e-09 0.369177)
(1.41012 1.93447e-09 0.375747)
(1.18736 3.30025e-09 0.401665)
(1.36042 3.99551e-09 0.428935)
(1.39038 5.39023e-09 0.530976)
(1.25326 -2.73073e-09 0.325196)
(1.30851 -2.25626e-09 0.372993)
(1.40984 -4.21403e-09 0.374138)
(1.18916 -2.40117e-09 0.401009)
(1.36001 -5.93418e-09 0.428159)
(1.39305 -3.064e-09 0.531834)
(1.47185 2.4372e-09 0.404874)
(1.37469 5.01039e-10 0.34769)
(1.44544 1.06571e-09 0.353386)
(1.40328 -3.76142e-11 0.387231)
(1.45434 5.32404e-10 0.465138)
(1.38063 7.33947e-10 0.408892)
(1.45463 1.79033e-09 0.465561)
(1.38403 -4.2027e-10 0.410224)
(1.47759 -2.85502e-10 0.205127)
(1.42131 4.63439e-10 0.222934)
(1.44598 -1.8076e-10 0.223667)
(1.45685 3.8649e-10 0.20541)
(1.49052 9.11e-10 0.1654)
(1.46835 1.49833e-10 0.179787)
(1.48824 -6.39493e-10 0.165812)
(1.46263 -9.55136e-11 0.182118)
(-0.65915 -1.20279e-24 1.24263)
(-0.588151 0 1.04928)
(-0.524912 0 0.944377)
(-0.428557 0 0.989242)
(-0.359438 0 1.24206)
(-0.165264 0 1.25468)
(-0.0719059 0 0.357102)
(-0.280913 0 0.467654)
(-0.549899 0 0.545737)
(-0.996121 0 0.589123)
(-1.31759 0 0.751606)
(-0.872078 -1.3241e-24 -0.233712)
(0.854003 -1.16543e-25 0.0126642)
(0.815081 -1.45635e-25 0.0105478)
(1.01281 -6.77961e-10 0.0355357)
(1.30037 1.62348e-09 0.066025)
(1.29911 1.74751e-10 0.0660906)