/*--------------------------------*- C++ -*----------------------------------*\
| =========                 |                                                 |
| \\      /  F ield         | OpenFOAM: The Open Source CFD Toolbox           |
|  \\    /   O peration     | Version:  5.x                                   |
|   \\  /    A nd           | Web:      www.OpenFOAM.org                      |
|    \\/     M anipulation  |                                                 |
\*---------------------------------------------------------------------------*/
FoamFile
{
    version     2.0;
    format      ascii;
    class       surfaceVectorField;
    location    "1.7";
    object      Uf;
}
// * * * * * * * * * * * * * * * * * * * * * * * * * * * * * * * * * * * * * //

dimensions      [0 1 -1 0 0 0 0];

internalField   nonuniform List<vector> 
30582
(
(0.186205 0 0.00112502)
(0.191261 0 -0.00117846)
(0.189459 0 0.00270205)
(0.186655 0 -0.0013018)
(0.185952 0 -0.00366592)
(0.190812 0 -0.00224846)
(0.190466 0 0.00373879)
(0.189798 0 -0.000409874)
(0.189095 0 -0.00444962)
(0.185918 0 -0.002559)
(0.184986 0 -0.00102515)
(0.189978 0 -0.0029202)
(0.188143 0 0.003798)
(0.189786 0 0.000962681)
(0.189977 0 -0.0032215)
(0.189371 0 -0.000769041)
(0.188462 0 0.00123426)
(0.18425 0 -0.00394979)
(0.183365 0 -0.00604601)
(0.188624 0 -0.00292756)
(0.18494 0 0.00342584)
(0.186069 0 0.00135141)
(0.187634 0 -0.00152865)
(0.189577 0 0.00193399)
(0.18993 0 0.00450846)
(0.187711 0 -0.00136681)
(0.186151 0 -0.00669182)
(0.181821 0 -0.0050641)
(0.181073 0 -0.0017125)
(0.1863 0 -0.00199727)
(0.180913 0 0.00309588)
(0.182713 0 0.00172944)
(0.184593 0 -0.000386684)
(0.186177 0 0.00263443)
(0.187975 0 0.00617038)
(0.188171 0 0.00274452)
(0.186725 0 -0.00323622)
(0.185719 0 -0.00160066)
(0.184571 0 0.000268488)
(0.17742 0 -0.00646327)
(0.176422 0 -0.00711168)
(0.183326 0 0.000806955)
(0.176345 0 0.00290723)
(0.178471 0 0.00199714)
(0.180919 0 0.000575846)
(0.183024 0 0.00330713)
(0.185317 0 0.00638339)
(0.185299 0 0.00375578)
(0.185349 0 0.000215367)
(0.18669 0 0.00331511)
(0.186113 0 0.00518695)
(0.181527 0 -0.00222879)
(0.178167 0 -0.00921482)
(0.172407 0 -0.00716135)
(0.17281 0 0.00102212)
(0.178761 0 0.0050858)
(0.170813 0 0.00278055)
(0.173495 0 0.00246198)
(0.176427 0 0.00149768)
(0.178762 0 0.00396088)
(0.181625 0 0.00676379)
(0.182873 0 0.00489304)
(0.183596 0 0.00213743)
(0.184619 0 0.00449532)
(0.185682 0 0.00776888)
(0.183063 0 0.00349387)
(0.178112 0 -0.00409705)
(0.177687 0 -0.00220645)
(0.176455 0 0.000228218)
(0.16104 0 -0.00861946)
(0.159989 0 -0.00528778)
(0.14213 0 0.0144675)
(0.165256 0 0.00256221)
(0.16795 0 0.00251731)
(0.170887 0 0.00214044)
(0.173828 0 0.00492774)
(0.177037 0 0.00747365)
(0.178862 0 0.0059664)
(0.181015 0 0.00393006)
(0.183341 0 0.00600138)
(0.185163 0 0.00847232)
(0.182855 0 0.00471453)
(0.179639 0 0.000210282)
(0.179816 0 0.00286096)
(0.177905 0 0.00504496)
(0.167142 0 -0.00279686)
(0.157073 0 -0.0119976)
(0.122533 0 -0.007453)
(0.0982048 0 0.0131379)
(-0.0514723 0 -0.0305547)
(0.160421 0 0.00224484)
(0.162753 0 0.00222981)
(0.165201 0 0.00211935)
(0.168025 0 0.00509311)
(0.171286 0 0.00799144)
(0.174077 0 0.00748753)
(0.176964 0 0.00581793)
(0.17965 0 0.00773745)
(0.183035 0 0.0098887)
(0.183491 0 0.00691532)
(0.182002 0 0.00293781)
(0.181394 0 0.0037177)
(0.180492 0 0.00664656)
(0.171877 0 0.00178869)
(0.158873 0 -0.00620667)
(0.134792 0 -0.00352987)
(0.105671 0 0.0014221)
(-0.0424005 0 -0.0104395)
(-0.187834 0 -0.0524818)
(-0.145959 0 0.0429957)
(0.156947 0 0.00187821)
(0.158682 0 0.00163049)
(0.160248 0 0.00153711)
(0.162574 0 0.00451364)
(0.165172 0 0.00762989)
(0.16786 0 0.00786288)
(0.171136 0 0.00719092)
(0.174604 0 0.0100813)
(0.178647 0 0.0121134)
(0.180669 0 0.00965559)
(0.182318 0 0.00648568)
(0.183848 0 0.00677945)
(0.184026 0 0.00769994)
(0.177449 0 0.00222676)
(0.167085 0 -0.00280662)
(0.155888 0 -0.00161511)
(0.129683 0 0.000885274)
(-0.0623513 0 -0.0133077)
(-0.212733 0 -0.025977)
(0.0278878 0 -0.000479511)
(0.0860465 0 0.0873443)
(-0.035997 0 0.00917166)
(0.154894 0 0.0015775)
(0.156096 0 0.00098118)
(0.156761 0 0.000648434)
(0.158351 0 0.00326716)
(0.159866 0 0.00640961)
(0.162003 0 0.00696022)
(0.164544 0 0.00700979)
(0.167709 0 0.0108494)
(0.171952 0 0.0139278)
(0.175282 0 0.0130608)
(0.179037 0 0.0104147)
(0.181817 0 0.0110902)
(0.184629 0 0.011205)
(0.183935 0 0.00652057)
(0.177729 0 0.000686562)
(0.172232 0 -0.00226403)
(0.158329 0 -0.00102878)
(0.0060099 0 -0.0134889)
(-0.182558 0 -0.0285848)
(-0.154931 0 -0.0255952)
(0.0732044 0 -0.000265295)
(0.160203 0 0.00465751)
(0.0466352 0 -0.0664473)
(-0.0302638 0 -0.00915459)
(0.153656 0 0.00140888)
(0.154688 0 0.000602092)
(0.154805 0 -7.44037e-05)
(0.155826 0 0.001916)
(0.156262 0 0.00470742)
(0.157544 0 0.00495873)
(0.15883 0 0.00528924)
(0.161192 0 0.00959486)
(0.164351 0 0.0136898)
(0.167536 0 0.0142929)
(0.172061 0 0.0132355)
(0.176001 0 0.0161652)
(0.180944 0 0.016616)
(0.184247 0 0.0127011)
(0.184806 0 0.00790585)
(0.191496 0 0.00348098)
(0.185693 0 0.00116025)
(0.0588975 0 -0.0138092)
(-0.0976856 0 -0.0267709)
(-0.0954321 0 -0.0486677)
(-0.0609706 0 -0.0447735)
(-0.0046019 0 0.0290402)
(0.0772779 0 0.0363935)
(-0.00290192 0 -0.00760016)
(-0.0837791 0 0.0414678)
(0.00257933 0 0.0237679)
(0.152213 0 0.00138064)
(0.15346 0 0.000714215)
(0.153731 0 -0.000170624)
(0.15472 0 0.00112467)
(0.154568 0 0.00327871)
(0.155127 0 0.00272575)
(0.155143 0 0.00272971)
(0.15635 0 0.00668957)
(0.157833 0 0.0112938)
(0.160067 0 0.0126003)
(0.163479 0 0.0130096)
(0.167062 0 0.0181808)
(0.172768 0 0.0211082)
(0.179061 0 0.0198036)
(0.185007 0 0.0163137)
(0.200826 0 0.0126132)
(0.208637 0 0.00931489)
(0.137536 0 -0.00637326)
(0.010136 0 -0.0210801)
(-0.0732843 0 -0.0593009)
(-0.0751713 0 -0.0775865)
(-0.000846609 0 -0.0427817)
(0.0559841 0 0.0294811)
(0.0283137 0 0.037711)
(-0.0502864 0 -0.0107845)
(-0.0117365 0 -0.0209979)
(0.0723826 0 -0.0261634)
(0.0119431 0 -0.0046757)
(0.149377 0 0.0016387)
(0.151621 0 0.0014296)
(0.152424 0 0.00065245)
(0.154005 0 0.00136138)
(0.154154 0 0.00282513)
(0.154488 0 0.00132571)
(0.153735 0 0.000534559)
(0.154093 0 0.00339832)
(0.153872 0 0.00767039)
(0.154631 0 0.00854902)
(0.155991 0 0.00961087)
(0.1582 0 0.0160531)
(0.162352 0 0.0214284)
(0.169118 0 0.0228999)
(0.177819 0 0.0222029)
(0.202129 0 0.0230026)
(0.22121 0 0.0196223)
(0.19042 0 0.00711626)
(0.117287 0 -0.00746524)
(0.00139723 0 -0.0523944)
(-0.0803757 0 -0.0842537)
(-0.0312187 0 -0.0571052)
(0.0428189 0 -0.0274279)
(0.0397205 0 -0.0373248)
(0.0108202 0 -0.0300108)
(0.0133778 0 0.0128284)
(0.0521672 0 0.0099773)
(-0.000484802 0 -0.0129115)
(-0.0614025 0 0.00115185)
(0.143734 0 0.00228637)
(0.14757 0 0.00289491)
(0.149793 0 0.00252916)
(0.152545 0 0.00275566)
(0.153749 0 0.00371354)
(0.154474 0 0.00156195)
(0.153825 0 -0.000161501)
(0.154164 0 0.00128225)
(0.152992 0 0.00445125)
(0.152529 0 0.0038187)
(0.151683 0 0.0043914)
(0.151895 0 0.0105713)
(0.153272 0 0.0172907)
(0.1588 0 0.0202396)
(0.166544 0 0.0222362)
(0.195606 0 0.0280073)
(0.223216 0 0.0272053)
(0.218859 0 0.0221098)
(0.192978 0 0.011046)
(0.0576468 0 -0.0259752)
(-0.0600431 0 -0.0659061)
(-0.0250839 0 -0.0611271)
(0.0263272 0 -0.0429381)
(0.0195959 0 -0.0501471)
(0.0181757 0 -0.0554647)
(0.0199066 0 -0.0403736)
(0.0224651 0 0.00256895)
(0.00940386 0 0.0249229)
(-0.0432497 0 -0.00449276)
(0.134586 0 0.00317838)
(0.14028 0 0.00477745)
(0.14451 0 0.00520138)
(0.148848 0 0.00560469)
(0.151621 0 0.00618065)
(0.153765 0 0.00382821)
(0.154026 0 0.00135826)
(0.155282 0 0.00146205)
(0.154411 0 0.00322716)
(0.153532 0 0.000592322)
(0.151286 0 -0.000309155)
(0.149991 0 0.00400811)
(0.148354 0 0.0104324)
(0.151425 0 0.0128802)
(0.156184 0 0.0161323)
(0.186547 0 0.0250167)
(0.217226 0 0.0279122)
(0.225894 0 0.030721)
(0.227562 0 0.0255076)
(0.118895 0 0.00671858)
(-0.0139156 0 -0.0277231)
(-0.0167147 0 -0.0461413)
(0.0198161 0 -0.049224)
(0.0123697 0 -0.0583306)
(0.00611906 0 -0.0588793)
(0.0051443 0 -0.0450602)
(0.00752821 0 -0.0335567)
(0.00882504 0 -0.0341825)
(-0.00470272 0 -0.0143428)
(0.12166 0 0.00417245)
(0.129351 0 0.00687101)
(0.13565 0 0.00827561)
(0.141899 0 0.00940444)
(0.146647 0 0.0102007)
(0.150855 0 0.00815673)
(0.15301 0 0.00536057)
(0.155812 0 0.0043403)
(0.156492 0 0.00491285)
(0.156143 0 0.000431554)
(0.153766 0 -0.00238201)
(0.152214 0 -0.000613697)
(0.148882 0 0.00402817)
(0.149428 0 0.00375544)
(0.150354 0 0.0063366)
(0.179301 0 0.0156171)
(0.209091 0 0.0213865)
(0.222024 0 0.028768)
(0.235319 0 0.0295047)
(0.157789 0 0.0272069)
(0.0533862 0 0.00940854)
(0.0236381 0 -0.023233)
(0.0205029 0 -0.0442011)
(0.00366386 0 -0.0464416)
(-0.00265649 0 -0.0510202)
(-0.000321727 0 -0.0545615)
(-0.00128302 0 -0.0453655)
(0.00241299 0 -0.0413426)
(0.00408611 0 -0.0394273)
(0.10495 0 0.00517167)
(0.114487 0 0.00904218)
(0.122822 0 0.0115495)
(0.131117 0 0.0136902)
(0.137999 0 0.0152342)
(0.144493 0 0.0139202)
(0.149163 0 0.011384)
(0.153931 0 0.0101304)
(0.156794 0 0.00973694)
(0.158268 0 0.00418824)
(0.157198 0 -0.000651269)
(0.156701 0 -0.00126769)
(0.15333 0 0.00100126)
(0.152453 0 -0.00277678)
(0.150761 0 -0.00328869)
(0.177256 0 0.00356084)
(0.203954 0 0.0107193)
(0.218777 0 0.0180283)
(0.232938 0 0.0228543)
(0.180569 0 0.0298656)
(0.108517 0 0.0278074)
(0.0650589 0 0.00223185)
(0.0340738 0 -0.0290544)
(0.0075209 0 -0.0292725)
(-0.00884537 0 -0.0321001)
(-0.00944735 0 -0.0437358)
(-0.00644772 0 -0.0487502)
(-0.000650436 0 -0.0523433)
(0.00309767 0 -0.0461935)
(0.0848294 0 0.0060757)
(0.0959341 0 0.0110832)
(0.106075 0 0.0147691)
(0.116249 0 0.0181044)
(0.125233 0 0.0206827)
(0.133994 0 0.0204766)
(0.141184 0 0.0186353)
(0.148307 0 0.018087)
(0.15359 0 0.0174756)
(0.157925 0 0.0117737)
(0.15933 0 0.0056051)
(0.161129 0 0.0031135)
(0.159466 0 0.00306969)
(0.158342 0 -0.00430591)
(0.155297 0 -0.00873241)
(0.180271 0 -0.00498274)
(0.204126 0 0.000323987)
(0.22547 0 0.00347865)
(0.238556 0 0.0089833)
(0.201767 0 0.0153911)
(0.153994 0 0.0224627)
(0.104449 0 0.00889576)
(0.0614169 0 -0.0148635)
(0.0213742 0 -0.0101552)
(-0.00682515 0 -0.0135117)
(-0.00986351 0 -0.0301716)
(-0.0102894 0 -0.0396382)
(-0.00549329 0 -0.0420563)
(0.000631442 0 -0.0462449)
(0.0619535 0 0.006815)
(0.0742304 0 0.0128264)
(0.0858102 0 0.0176582)
(0.0975378 0 0.0222456)
(0.10836 0 0.0260482)
(0.119135 0 0.0272349)
(0.12866 0 0.0264615)
(0.13818 0 0.0271341)
(0.146077 0 0.0272302)
(0.153447 0 0.0220107)
(0.158434 0 0.0157002)
(0.162837 0 0.0122333)
(0.164748 0 0.0105141)
(0.164553 0 0.000451359)
(0.162011 0 -0.00733237)
(0.186262 0 -0.00763025)
(0.20848 0 -0.00529072)
(0.243435 0 -0.00710018)
(0.261331 0 -0.00553639)
(0.229819 0 -0.00740387)
(0.195717 0 -6.30337e-05)
(0.140228 0 -0.00419404)
(0.093923 0 -0.0155488)
(0.0450289 0 -0.00609299)
(0.00316597 0 -0.00390939)
(-0.00489391 0 -0.0146814)
(-0.00855719 0 -0.0278744)
(-0.00590135 0 -0.0309424)
(-0.00108704 0 -0.0359141)
(0.0371612 0 0.00733995)
(0.0501502 0 0.0141509)
(0.0627099 0 0.0199958)
(0.0755493 0 0.0257787)
(0.0877906 0 0.0308654)
(0.100176 0 0.0335759)
(0.111676 0 0.0341585)
(0.12332 0 0.0364256)
(0.133707 0 0.0378064)
(0.143851 0 0.0337099)
(0.152105 0 0.0279665)
(0.15961 0 0.0253159)
(0.164783 0 0.0223318)
(0.168192 0 0.0122153)
(0.167986 0 0.001552)
(0.192478 0 -0.00256034)
(0.21476 0 -0.00320493)
(0.267399 0 -0.0107399)
(0.297576 0 -0.0147697)
(0.267271 0 -0.0247287)
(0.236601 0 -0.0241098)
(0.172572 0 -0.0269389)
(0.121498 0 -0.0286362)
(0.0664539 0 -0.0171385)
(0.0169959 0 -0.00937927)
(0.00667308 0 -0.01247)
(-0.00189491 0 -0.0199025)
(-0.00385818 0 -0.0176995)
(-0.00160032 0 -0.0241633)
(0.0113746 0 0.00761663)
(0.0245942 0 0.0149813)
(0.037641 0 0.0216328)
(0.0510902 0 0.0284595)
(0.064241 0 0.0347689)
(0.077724 0 0.0389829)
(0.0906889 0 0.0410585)
(0.103992 0 0.0451363)
(0.11647 0 0.0482119)
(0.128987 0 0.0457528)
(0.140129 0 0.0411494)
(0.150678 0 0.0400764)
(0.159181 0 0.037263)
(0.166537 0 0.0282416)
(0.170701 0 0.0170549)
(0.196342 0 0.0108228)
(0.220721 0 0.00773864)
(0.287757 0 -0.0055646)
(0.335856 0 -0.0147962)
(0.312415 0 -0.0296926)
(0.278606 0 -0.0365954)
(0.204188 0 -0.0451588)
(0.144017 0 -0.0474938)
(0.0821854 0 -0.0376988)
(0.028553 0 -0.0249623)
(0.0164203 0 -0.0225636)
(0.00528394 0 -0.0228341)
(0.00117874 0 -0.0157802)
(-0.000982313 0 -0.0170603)
(-0.0144629 0 0.00763038)
(-0.00148915 0 0.0152813)
(0.0115483 0 0.022489)
(0.0250939 0 0.0301404)
(0.0386182 0 0.0375115)
(0.0526438 0 0.0430845)
(0.0664862 0 0.046636)
(0.0808612 0 0.0525533)
(0.0948372 0 0.0575482)
(0.109156 0 0.0570519)
(0.12265 0 0.0540769)
(0.135873 0 0.0552112)
(0.147574 0 0.0537537)
(0.158408 0 0.0462462)
(0.166944 0 0.0369326)
(0.194075 0 0.0302032)
(0.220876 0 0.02636)
(0.294569 0 0.0107432)
(0.362097 0 -0.00265758)
(0.357963 0 -0.018791)
(0.327275 0 -0.0310659)
(0.240501 0 -0.0537886)
(0.168112 0 -0.064728)
(0.0925671 0 -0.0568784)
(0.0320775 0 -0.0425963)
(0.0213032 0 -0.0393829)
(0.00945362 0 -0.03482)
(0.00491711 0 -0.0245209)
(0.000573748 0 -0.0206585)
(-0.0394529 0 0.00738334)
(-0.0271733 0 0.0150442)
(-0.0146087 0 0.0225346)
(-0.0014631 0 0.0307514)
(0.0119069 0 0.0389552)
(0.0259243 0 0.045659)
(0.0400537 0 0.0505433)
(0.0548788 0 0.0581716)
(0.0696801 0 0.0650998)
(0.0851049 0 0.0666587)
(0.100218 0 0.0656283)
(0.115473 0 0.0694082)
(0.129861 0 0.0701418)
(0.143536 0 0.0647966)
(0.155659 0 0.0582715)
(0.184159 0 0.0522453)
(0.212801 0 0.0489521)
(0.287525 0 0.0344202)
(0.363453 0 0.0204991)
(0.386568 0 0.0100479)
(0.377157 0 -0.00507167)
(0.282372 0 -0.0439324)
(0.194935 0 -0.0696423)
(0.100852 0 -0.0670688)
(0.0282288 0 -0.0547568)
(0.0198678 0 -0.0550066)
(0.0093692 0 -0.0497392)
(0.00612436 0 -0.0393426)
(0.00162009 0 -0.0319876)
(-0.0627693 0 0.0068914)
(-0.0515833 0 0.0142884)
(-0.0399177 0 0.021779)
(-0.0276315 0 0.0302804)
(-0.0148998 0 0.039047)
(-0.00141144 0 0.046606)
(0.0124419 0 0.0525974)
(0.027119 0 0.0617008)
(0.0420864 0 0.0704058)
(0.0579108 0 0.0739213)
(0.0738467 0 0.0749129)
(0.09032 0 0.0814451)
(0.106529 0 0.0849139)
(0.122267 0 0.0822601)
(0.137329 0 0.0787427)
(0.166667 0 0.0747155)
(0.19676 0 0.0722893)
(0.269545 0 0.0607726)
(0.346701 0 0.0491768)
(0.390416 0 0.0431686)
(0.414618 0 0.0313496)
(0.322654 0 -0.00917027)
(0.223452 0 -0.0489461)
(0.108691 0 -0.0583058)
(0.0185461 0 -0.0545803)
(0.0123315 0 -0.0622749)
(0.00463004 0 -0.0597946)
(0.0041333 0 -0.0527017)
(0.000912154 0 -0.0452213)
(-0.0836982 0 0.00618574)
(-0.0739398 0 0.0130557)
(-0.06354 0 0.0202678)
(-0.0525158 0 0.0287641)
(-0.0408584 0 0.037802)
(-0.0283774 0 0.0459078)
(-0.0153108 0 0.0527349)
(-0.00133076 0 0.06302)
(0.0131974 0 0.0732347)
(0.0287653 0 0.0784844)
(0.0447782 0 0.081376)
(0.0616522 0 0.090513)
(0.0787454 0 0.0968964)
(0.0955756 0 0.0970233)
(0.112432 0 0.0966506)
(0.142099 0 0.0959739)
(0.1731 0 0.09434)
(0.242454 0 0.0875187)
(0.317585 0 0.0786491)
(0.372279 0 0.07625)
(0.419483 0 0.0674956)
(0.347825 0 0.0406282)
(0.25351 0 -0.000508356)
(0.121205 0 -0.0245909)
(0.00807606 0 -0.0358651)
(0.000605494 0 -0.0530288)
(-0.00465767 0 -0.0574534)
(-0.00132996 0 -0.0576766)
(-0.00166151 0 -0.0534583)
(-0.101666 0 0.00530995)
(-0.0935936 0 0.0114093)
(-0.0847491 0 0.0180775)
(-0.0753151 0 0.026286)
(-0.065101 0 0.0352963)
(-0.0540435 0 0.0436201)
(-0.042216 0 0.0509799)
(-0.0294365 0 0.0621051)
(-0.0158891 0 0.0734979)
(-0.00116974 0 0.0802226)
(0.0142706 0 0.0847768)
(0.0308183 0 0.0962085)
(0.0479304 0 0.105486)
(0.0649926 0 0.108102)
(0.0825439 0 0.110763)
(0.111524 0 0.113781)
(0.142538 0 0.113638)
(0.207008 0 0.112808)
(0.278306 0 0.106701)
(0.337272 0 0.108774)
(0.395006 0 0.103042)
(0.349481 0 0.0892618)
(0.2771 0 0.0586858)
(0.139004 0 0.0283092)
(0.00479889 0 0.00345492)
(-0.00970644 0 -0.0229098)
(-0.0163757 0 -0.0370435)
(-0.00977778 0 -0.0471229)
(-0.00599872 0 -0.0498455)
(-0.116259 0 0.00430892)
(-0.110035 0 0.00943221)
(-0.102953 0 0.0153132)
(-0.0953583 0 0.0229683)
(-0.0868703 0 0.0316608)
(-0.0775731 0 0.0398659)
(-0.0673657 0 0.0474344)
(-0.0562229 0 0.0590319)
(-0.0441308 0 0.0712212)
(-0.030799 0 0.0791068)
(-0.0165274 0 0.0850972)
(-0.000939741 0 0.0984378)
(0.0154922 0 0.110331)
(0.0322074 0 0.115054)
(0.0495952 0 0.120267)
(0.0765511 0 0.126908)
(0.106439 0 0.129025)
(0.164098 0 0.134022)
(0.229711 0 0.131645)
(0.288919 0 0.139576)
(0.349793 0 0.137621)
(0.328197 0 0.133239)
(0.282602 0 0.11429)
(0.151017 0 0.0863369)
(0.0101481 0 0.0576627)
(-0.0120826 0 0.0255157)
(-0.0264311 0 0.0019325)
(-0.0187334 0 -0.0177513)
(-0.0115295 0 -0.0294025)
(-0.127238 0 0.00323109)
(-0.12292 0 0.00722437)
(-0.117714 0 0.0121127)
(-0.112115 0 0.0189733)
(-0.105548 0 0.0270778)
(-0.0982566 0 0.0348284)
(-0.0899592 0 0.0422736)
(-0.0808051 0 0.0539601)
(-0.0705678 0 0.0665474)
(-0.059081 0 0.0752324)
(-0.0464809 0 0.0824025)
(-0.0324563 0 0.0971392)
(-0.0173288 0 0.11103)
(-0.00100334 0 0.117849)
(0.0156516 0 0.125028)
(0.0387992 0 0.134774)
(0.0662628 0 0.139539)
(0.115201 0 0.14984)
(0.173348 0 0.151742)
(0.229355 0 0.165625)
(0.288872 0 0.168671)
(0.287119 0 0.173132)
(0.265065 0 0.164617)
(0.15175 0 0.142729)
(0.0182559 0 0.116724)
(-0.00940589 0 0.0820269)
(-0.0322368 0 0.0536005)
(-0.0248585 0 0.0285476)
(-0.0173379 0 0.00791282)
(-0.134539 0 0.00211654)
(-0.132076 0 0.00488995)
(-0.128763 0 0.00862955)
(-0.125229 0 0.0144947)
(-0.120684 0 0.0217738)
(-0.115528 0 0.0287569)
(-0.109326 0 0.0357494)
(-0.102418 0 0.0471261)
(-0.0943405 0 0.0597065)
(-0.0850728 0 0.0687896)
(-0.0745607 0 0.0767915)
(-0.0625702 0 0.0924398)
(-0.0493144 0 0.107509)
(-0.0337553 0 0.116395)
(-0.0179209 0 0.12553)
(0.000705523 0 0.137705)
(0.0238278 0 0.145079)
(0.0619033 0 0.159428)
(0.110574 0 0.165987)
(0.161133 0 0.185669)
(0.216745 0 0.193713)
(0.230521 0 0.206066)
(0.227404 0 0.208585)
(0.13949 0 0.193877)
(0.0243873 0 0.173691)
(-0.00466543 0 0.139411)
(-0.0329668 0 0.109962)
(-0.0273478 0 0.0824151)
(-0.0205009 0 0.0568635)
(-0.138181 0 0.00108626)
(-0.137551 0 0.00248246)
(-0.135994 0 0.00499122)
(-0.134522 0 0.00973258)
(-0.132016 0 0.0160011)
(-0.129005 0 0.0219509)
(-0.124966 0 0.0281862)
(-0.120439 0 0.0388662)
(-0.11471 0 0.051029)
(-0.107938 0 0.0600605)
(-0.0998471 0 0.0684691)
(-0.090283 0 0.0845636)
(-0.0793479 0 0.100158)
(-0.0655021 0 0.110844)
(-0.0507777 0 0.122028)
(-0.0370084 0 0.136175)
(-0.0188866 0 0.146073)
(0.00486897 0 0.162968)
(0.04226 0 0.173572)
(0.0870789 0 0.199117)
(0.136316 0 0.211632)
(0.161075 0 0.231576)
(0.17297 0 0.244616)
(0.115697 0 0.236587)
(0.0259586 0 0.224551)
(-0.000493566 0 0.193012)
(-0.0304575 0 0.165013)
(-0.0268541 0 0.138053)
(-0.0217858 0 0.110623)
(-0.13833 0 0.000166054)
(-0.139395 0 0.000103687)
(-0.139508 0 0.00130026)
(-0.140016 0 0.00487813)
(-0.139483 0 0.010029)
(-0.138492 0 0.0147336)
(-0.136574 0 0.0199479)
(-0.134449 0 0.0295888)
(-0.131129 0 0.0409548)
(-0.12697 0 0.0494786)
(-0.121496 0 0.0578224)
(-0.11467 0 0.073807)
(-0.106416 0 0.0895007)
(-0.0953012 0 0.101449)
(-0.0826427 0 0.114441)
(-0.0741295 0 0.130371)
(-0.0613614 0 0.142872)
(-0.0523446 0 0.161745)
(-0.0289717 0 0.174991)
(0.00621538 0 0.205097)
(0.0497107 0 0.222305)
(0.0822676 0 0.249432)
(0.10614 0 0.27365)
(0.0811691 0 0.269721)
(0.0217897 0 0.265673)
(0.00157144 0 0.238925)
(-0.0258509 0 0.214347)
(-0.0241403 0 0.190475)
(-0.0211577 0 0.16364)
(-0.135502 0 -0.00073533)
(-0.13806 0 -0.00199823)
(-0.139777 0 -0.00219583)
(-0.141838 0 0.000289925)
(-0.143233 0 0.00419503)
(-0.143964 0 0.00743451)
(-0.144008 0 0.0113919)
(-0.144248 0 0.0197126)
(-0.143293 0 0.0299774)
(-0.141696 0 0.0375925)
(-0.13886 0 0.0454045)
(-0.134909 0 0.0607023)
(-0.12954 0 0.076077)
(-0.121633 0 0.0884902)
(-0.111972 0 0.102637)
(-0.108535 0 0.119745)
(-0.101392 0 0.135017)
(-0.10525 0 0.154902)
(-0.0966207 0 0.170295)
(-0.0740599 0 0.202471)
(-0.038914 0 0.224147)
(0.00336469 0 0.257513)
(0.0357329 0 0.290517)
(0.038874 0 0.290337)
(0.0134927 0 0.29191)
(0.00130385 0 0.274457)
(-0.019883 0 0.254701)
(-0.0198808 0 0.235579)
(-0.0187485 0 0.211479)
(-0.130142 0 -0.00157001)
(-0.133888 0 -0.00385473)
(-0.136932 0 -0.00526434)
(-0.140278 0 -0.00400751)
(-0.143026 0 -0.00132028)
(-0.145638 0 0.000146264)
(-0.147207 0 0.00280696)
(-0.149841 0 0.00961543)
(-0.15116 0 0.0185938)
(-0.151894 0 0.0249812)
(-0.151574 0 0.0318352)
(-0.150471 0 0.0459579)
(-0.147989 0 0.0605793)
(-0.143459 0 0.0726274)
(-0.137204 0 0.0868722)
(-0.138959 0 0.104512)
(-0.137192 0 0.122373)
(-0.153112 0 0.142078)
(-0.157964 0 0.159277)
(-0.147595 0 0.192493)
(-0.124985 0 0.217253)
(-0.069559 0 0.254286)
(-0.0280476 0 0.293292)
(0.000667631 0 0.295235)
(0.00450301 0 0.302058)
(-0.00019803 0 0.29556)
(-0.0127718 0 0.282675)
(-0.0144047 0 0.270398)
(-0.0149204 0 0.250672)
(-0.122731 0 -0.00226669)
(-0.127359 0 -0.00542426)
(-0.13141 0 -0.00786423)
(-0.13582 0 -0.00782631)
(-0.13968 0 -0.0063795)
(-0.143828 0 -0.00637159)
(-0.147211 0 -0.00531175)
(-0.151298 0 0.000149034)
(-0.15498 0 0.00742287)
(-0.157472 0 0.01222)
(-0.159464 0 0.0176857)
(-0.161158 0 0.0302656)
(-0.16144 0 0.0438454)
(-0.160137 0 0.0548082)
(-0.157227 0 0.0679515)
(-0.164426 0 0.0855694)
(-0.168107 0 0.105808)
(-0.195346 0 0.124142)
(-0.212528 0 0.14294)
(-0.214262 0 0.176116)
(-0.204235 0 0.203243)
(-0.150444 0 0.241057)
(-0.0967448 0 0.281952)
(-0.0335773 0 0.295643)
(-0.00608249 0 0.304625)
(-0.00145583 0 0.301496)
(-0.0057187 0 0.296237)
(-0.00828578 0 0.291462)
(-0.0100069 0 0.278206)
(-0.113774 0 -0.0028249)
(-0.118992 0 -0.0066741)
(-0.123768 0 -0.00998347)
(-0.128974 0 -0.0110177)
(-0.133719 0 -0.0107607)
(-0.138948 0 -0.0121132)
(-0.143626 0 -0.012542)
(-0.148965 0 -0.00890423)
(-0.153788 0 -0.00314165)
(-0.158636 0 -0.000678126)
(-0.162119 0 0.00340135)
(-0.166954 0 0.0140305)
(-0.169968 0 0.0267148)
(-0.171433 0 0.0359776)
(-0.171675 0 0.0468083)
(-0.184292 0 0.0643149)
(-0.1934 0 0.0859408)
(-0.231275 0 0.101918)
(-0.26008 0 0.121986)
(-0.273632 0 0.154336)
(-0.275568 0 0.182511)
(-0.221706 0 0.220614)
(-0.167289 0 0.257783)
(-0.0780198 0 0.284287)
(-0.0166341 0 0.302785)
(-0.00466658 0 0.301996)
(-0.000443941 0 0.299726)
(-0.002733 0 0.298377)
(-0.00508299 0 0.292186)
(-0.103711 0 -0.00327975)
(-0.109287 0 -0.00763272)
(-0.114518 0 -0.0116285)
(-0.120254 0 -0.0135665)
(-0.125629 0 -0.0143738)
(-0.131598 0 -0.0169392)
(-0.137153 0 -0.0187361)
(-0.143446 0 -0.0167683)
(-0.149336 0 -0.0127251)
(-0.15572 0 -0.0120494)
(-0.161489 0 -0.0101972)
(-0.167786 0 -0.00111565)
(-0.173936 0 0.00990984)
(-0.17736 0 0.0167353)
(-0.180226 0 0.0244768)
(-0.19835 0 0.0417046)
(-0.212805 0 0.0635074)
(-0.260558 0 0.0770833)
(-0.300304 0 0.0971841)
(-0.324543 0 0.127918)
(-0.338527 0 0.156236)
(-0.282268 0 0.194314)
(-0.227753 0 0.227905)
(-0.117213 0 0.258333)
(-0.0267563 0 0.28708)
(-0.00592468 0 0.29049)
(0.00593018 0 0.293958)
(0.00181597 0 0.298159)
(-0.000533935 0 0.295364)
(-0.0928599 0 -0.0036311)
(-0.098736 0 -0.00837797)
(-0.104139 0 -0.0128723)
(-0.110157 0 -0.0155057)
(-0.115918 0 -0.0172115)
(-0.122345 0 -0.0208025)
(-0.128462 0 -0.0237907)
(-0.135357 0 -0.0233011)
(-0.141952 0 -0.0208935)
(-0.149262 0 -0.0220787)
(-0.156192 0 -0.0222575)
(-0.163936 0 -0.0157911)
(-0.171171 0 -0.00621468)
(-0.178067 0 -0.00303491)
(-0.182758 0 0.00231793)
(-0.206516 0 0.0184615)
(-0.226454 0 0.0393645)
(-0.283197 0 0.0508458)
(-0.333064 0 0.0693249)
(-0.366623 0 0.0986387)
(-0.391935 0 0.126059)
(-0.332373 0 0.162439)
(-0.276088 0 0.193299)
(-0.147215 0 0.225005)
(-0.0357098 0 0.255619)
(-0.00811457 0 0.263919)
(0.0134815 0 0.274697)
(0.00860165 0 0.285863)
(0.0046552 0 0.28876)
(-0.0875388 0 -0.00891043)
(-0.0815232 0 -0.00381864)
(-0.0930722 0 -0.0137952)
(-0.0991969 0 -0.0169217)
(-0.105053 0 -0.019319)
(-0.11171 0 -0.0237473)
(-0.118134 0 -0.0277303)
(-0.125353 0 -0.0284981)
(-0.132349 0 -0.0275604)
(-0.140124 0 -0.0303299)
(-0.147684 0 -0.032397)
(-0.156254 0 -0.0281974)
(-0.164545 0 -0.0208132)
(-0.173719 0 -0.0204716)
(-0.181871 0 -0.0185703)
(-0.209215 0 -0.00365057)
(-0.234265 0 0.0145037)
(-0.299115 0 0.0237865)
(-0.35829 0 0.039304)
(-0.399205 0 0.0677409)
(-0.434775 0 0.0939183)
(-0.369684 0 0.126826)
(-0.310419 0 0.154022)
(-0.168515 0 0.18463)
(-0.0392253 0 0.21456)
(-0.00816868 0 0.227238)
(0.0202453 0 0.243137)
(0.0145815 0 0.259699)
(0.0100344 0 0.269524)
(-0.0876882 0 -0.0178686)
(-0.0816747 0 -0.014307)
(-0.0686599 0 -0.00919902)
(-0.0548603 0 -0.0038392)
(-0.0934908 0 -0.0207503)
(-0.100194 0 -0.025848)
(-0.106658 0 -0.0306327)
(-0.113988 0 -0.0324516)
(-0.121151 0 -0.0327781)
(-0.129079 0 -0.036842)
(-0.13688 0 -0.0405117)
(-0.145789 0 -0.038238)
(-0.154511 0 -0.0329226)
(-0.165207 0 -0.0354138)
(-0.174834 0 -0.0369525)
(-0.206465 0 -0.0254428)
(-0.235575 0 -0.00852673)
(-0.307104 0 -0.00274082)
(-0.37484 0 0.00841513)
(-0.420019 0 0.0350691)
(-0.464125 0 0.0606386)
(-0.391685 0 0.0873974)
(-0.327136 0 0.110875)
(-0.178403 0 0.137826)
(-0.0359638 0 0.16629)
(-0.00530097 0 0.182522)
(0.0265898 0 0.202222)
(0.0200332 0 0.223209)
(0.0148673 0 0.238491)
(-0.0880976 0 -0.0271163)
(-0.081725 0 -0.0215281)
(-0.0686066 0 -0.0184519)
(-0.0548555 0 -0.0140062)
(-0.0445787 0 -0.0085604)
(-0.0318885 0 -0.00365798)
(-0.0944726 0 -0.0325335)
(-0.101721 0 -0.0352562)
(-0.108824 0 -0.0366444)
(-0.116719 0 -0.0418021)
(-0.124519 0 -0.0467869)
(-0.133528 0 -0.0460531)
(-0.142345 0 -0.0424908)
(-0.15415 0 -0.0471427)
(-0.164751 0 -0.0516635)
(-0.199383 0 -0.0426653)
(-0.231332 0 -0.0276127)
(-0.305122 0 -0.0284403)
(-0.378765 0 -0.0213424)
(-0.423958 0 -1.65558e-05)
(-0.47265 0 0.025129)
(-0.395067 0 0.0408813)
(-0.322089 0 0.0600062)
(-0.175614 0 0.0840171)
(-0.0259197 0 0.111287)
(0.00117079 0 0.131217)
(0.0328004 0 0.153762)
(0.0250251 0 0.178508)
(0.0189606 0 0.1983)
(-0.0888268 0 -0.0368813)
(-0.0820486 0 -0.0334427)
(-0.0683786 0 -0.0278892)
(-0.0543715 0 -0.0210922)
(-0.0441487 0 -0.0169683)
(-0.0322928 0 -0.0126976)
(-0.0191947 0 -0.00769468)
(-0.0127691 0 -0.00454736)
(-0.0957444 0 -0.0391665)
(-0.103424 0 -0.045354)
(-0.111048 0 -0.0514524)
(-0.120106 0 -0.0520197)
(-0.128887 0 -0.0498905)
(-0.141745 0 -0.0560815)
(-0.153208 0 -0.0628217)
(-0.190137 0 -0.0555912)
(-0.224094 0 -0.0426655)
(-0.291761 0 -0.0478709)
(-0.364658 0 -0.0467796)
(-0.404867 0 -0.0384063)
(-0.44935 0 -0.0158028)
(-0.376923 0 -0.0161868)
(-0.297176 0 -0.00407708)
(-0.16122 0 0.0238977)
(-0.0120681 0 0.0498861)
(0.0103793 0 0.07474)
(0.0385618 0 0.0995392)
(0.0294616 0 0.127426)
(0.0222254 0 0.15095)
(-0.0894189 0 -0.0473527)
(-0.0824215 0 -0.0403224)
(-0.0680194 0 -0.0376281)
(-0.0538212 0 -0.0322756)
(-0.0433633 0 -0.0254307)
(-0.0316627 0 -0.018761)
(-0.0195996 0 -0.0148154)
(-0.0145993 0 -0.0140219)
(-0.0101803 0 -0.0105195)
(0.0114299 0 -0.00676283)
(-0.0967769 0 -0.0544866)
(-0.105727 0 -0.0563724)
(-0.114454 0 -0.0554712)
(-0.128543 0 -0.0629671)
(-0.141011 0 -0.0713065)
(-0.179639 0 -0.0651698)
(-0.215677 0 -0.0541976)
(-0.268859 0 -0.061752)
(-0.333331 0 -0.065687)
(-0.363728 0 -0.0703998)
(-0.397437 0 -0.0580604)
(-0.33926 0 -0.0750798)
(-0.262613 0 -0.0776812)
(-0.138749 0 -0.0401739)
(0.00130902 0 -0.0134983)
(0.0193064 0 0.0147782)
(0.0427577 0 0.0418939)
(0.0328783 0 0.0719299)
(0.0244107 0 0.0984325)
(-0.0905002 0 -0.0588281)
(-0.0821768 0 -0.0556667)
(-0.0670955 0 -0.0479202)
(-0.05259 0 -0.0384887)
(-0.0419819 0 -0.0337329)
(-0.0315424 0 -0.0283505)
(-0.0199603 0 -0.0217481)
(-0.014437 0 -0.0201419)
(-0.0114919 0 -0.0192669)
(0.00552334 0 -0.0183194)
(0.0266569 0 -0.0141417)
(0.0415518 0 -0.0134541)
(-0.0991742 0 -0.0590972)
(-0.114785 0 -0.0681693)
(-0.12845 0 -0.0779427)
(-0.167723 0 -0.0724949)
(-0.20573 0 -0.0630467)
(-0.241658 0 -0.0725817)
(-0.291968 0 -0.0793612)
(-0.313173 0 -0.092028)
(-0.336564 0 -0.0918252)
(-0.291318 0 -0.114177)
(-0.228883 0 -0.136773)
(-0.118664 0 -0.0989082)
(0.00761683 0 -0.0685824)
(0.0244709 0 -0.0445513)
(0.0432341 0 -0.0157578)
(0.0342911 0 0.0144537)
(0.0251721 0 0.0430318)
(-0.100155 0 -0.0711546)
(-0.0834913 0 -0.0601354)
(-0.066658 0 -0.0588513)
(-0.0504938 0 -0.0523792)
(-0.039629 0 -0.042144)
(-0.0300187 0 -0.0326739)
(-0.0200534 0 -0.0279503)
(-0.0161314 0 -0.0283207)
(-0.0126965 0 -0.0265727)
(0.0023691 0 -0.024698)
(0.0188729 0 -0.0237496)
(0.0259883 0 -0.0338355)
(0.0395727 0 -0.0317143)
(0.104094 0 -0.0174768)
(-0.115339 0 -0.0827686)
(-0.153762 0 -0.0782915)
(-0.192385 0 -0.0701974)
(-0.213521 0 -0.0826179)
(-0.247723 0 -0.0913588)
(-0.265714 0 -0.105551)
(-0.283453 0 -0.11368)
(-0.245321 0 -0.130903)
(-0.198435 0 -0.162698)
(-0.106136 0 -0.136073)
(0.00232471 0 -0.107511)
(0.0208288 0 -0.0951693)
(0.038156 0 -0.0686071)
(0.0323359 0 -0.0410268)
(0.0240585 0 -0.0120464)
(-0.138932 0 -0.0818223)
(-0.101766 0 -0.0846557)
(-0.077012 0 -0.0701671)
(-0.0506932 0 -0.054478)
(-0.0382104 0 -0.0506852)
(-0.0275735 0 -0.0439251)
(-0.0187715 0 -0.0336228)
(-0.0159239 0 -0.0301437)
(-0.0140421 0 -0.0308851)
(-0.00621105 0 -0.031427)
(0.00900984 0 -0.0293093)
(0.0142112 0 -0.046998)
(0.0202054 0 -0.0554887)
(0.0728729 0 -0.0581589)
(0.135519 0 -0.0424348)
(0.181571 0 -0.0325112)
(-0.175746 0 -0.0760126)
(-0.182452 0 -0.0911377)
(-0.201012 0 -0.103364)
(-0.22699 0 -0.11805)
(-0.244271 0 -0.127698)
(-0.207006 0 -0.134746)
(-0.169578 0 -0.163127)
(-0.0968617 0 -0.152026)
(-0.00771518 0 -0.130573)
(0.0103218 0 -0.128853)
(0.02768 0 -0.110685)
(0.0263647 0 -0.0877686)
(0.020782 0 -0.0619109)
(-0.155642 0 -0.0948243)
(-0.159203 0 -0.0787551)
(-0.110558 0 -0.080623)
(-0.0714601 0 -0.0785372)
(-0.048939 0 -0.0589968)
(-0.0283893 0 -0.042533)
(-0.0188232 0 -0.0387825)
(-0.014753 0 -0.037581)
(-0.0137595 0 -0.0328918)
(-0.0113078 0 -0.0304063)
(-0.00225955 0 -0.0311539)
(-0.0022822 0 -0.0528544)
(0.00225825 0 -0.0680349)
(0.0389529 0 -0.0793267)
(0.0918698 0 -0.079155)
(0.139917 0 -0.0813482)
(0.188219 0 -0.068123)
(0.296743 0 -0.0205868)
(-0.157128 0 -0.111881)
(-0.193712 0 -0.125018)
(-0.217163 0 -0.134133)
(-0.178262 0 -0.138612)
(-0.141088 0 -0.156547)
(-0.086061 0 -0.155976)
(-0.0153035 0 -0.142555)
(-2.75194e-05 0 -0.146472)
(0.016899 0 -0.138063)
(0.018304 0 -0.1211)
(0.0163196 0 -0.101287)
(-0.165991 0 -0.121876)
(-0.12271 0 -0.118028)
(-0.100275 0 -0.0999154)
(-0.103286 0 -0.0732844)
(-0.0690654 0 -0.0674286)