/*--------------------------------*- C++ -*----------------------------------*\
| =========                 |                                                 |
| \\      /  F ield         | OpenFOAM: The Open Source CFD Toolbox           |
|  \\    /   O peration     | Version:  5.x                                   |
|   \\  /    A nd           | Web:      www.OpenFOAM.org                      |
|    \\/     M anipulation  |                                                 |
\*---------------------------------------------------------------------------*/
FoamFile
{
    version     2.0;
    format      ascii;
    class       volScalarField;
    location    "0.8";
    object      alpha.water;
}
// * * * * * * * * * * * * * * * * * * * * * * * * * * * * * * * * * * * * * //

dimensions      [0 0 0 0 0 0 0];

internalField   nonuniform List<scalar> 
12160
(
1
1
1
1
1
1
1
1
1
1
1
1
1
1
1
1
1
1
1
1
1
1
1
1
1
1
1
1
1
1
1
1
1
1
1
1
1
1
1
1
1
1
1
0.99951
0.676625
1
1
1
1
1
1
1
0.997013
0.654978
0.0298779
1
1
1
1
1
1
1
0.998429
0.650645
0.0386075
0.000279687
1
1
1
1
1
1
1
0.999898
0.679896
0.0516626
6.56665e-05
2.43327e-07
1
1
1
1
1
1
1
1
0.702411
0.0776834
0.000214932
3.35485e-08
5.00708e-12
1
1
1
1
1
1
1
1
0.701741
0.111163
0.00064123
1.79779e-07
1.02568e-12
7.00012e-17
1
1
1
1
1
1
1
1
0.674975
0.125809
0.00181121
7.28353e-07
1.03031e-11
3.06489e-17
5.89941e-22
1
1
1
1
1
1
1
1
0.62017
0.118757
0.00325299
3.41974e-06
7.42866e-11
2.11099e-16
3.91629e-22
1
1
1
1
1
1
1
1
0.548713
0.0934129
0.00357813
8.54461e-06
5.40548e-10
1.84958e-15
3.31158e-21
1
1
1
1
1
1
1
1
0.471241
0.0640146
0.00247264
1.23869e-05
1.7139e-09
1.45269e-14
3.64568e-20
1
1
1
1
1
1
1
1
0.395764
0.0402128
0.00110814
7.10778e-06
3.2501e-09
4.83006e-14
3.2948e-19
1
1
1
1
1
1
1
1
0.326693
0.023707
0.000407985
1.91358e-06
1.45932e-09
1.01429e-13
1.21776e-18
1
1
1
1
1
1
1
1
0.266099
0.0132566
0.000138373
3.56914e-07
2.13921e-10
4.40091e-14
2.85302e-18
1
1
1
1
1
1
1
1
0.214595
0.00709782
4.3673e-05
5.71221e-08
1.80502e-11
6.05415e-15
1.2139e-18
1
1
1
1
1
1
1
1
0.171887
0.00368179
1.28491e-05
8.19906e-09
1.79918e-12
5.08815e-16
1.63362e-19
1
1
1
1
1
1
1
1
0.137161
0.00187455
3.55955e-06
1.0774e-09
2.11973e-13
5.18912e-17
1.43225e-20
1
1
1
1
1
1
1
1
0.109382
0.000950251
9.42286e-07
1.34347e-10
2.30859e-14
5.14187e-18
1.35396e-21
1
0.999999
1
1
1
1
1
1
0.0874918
0.000487254
2.4441e-07
2.01786e-11
2.57288e-15
4.77414e-19
1.14154e-22
1
1
1
1
1
1
1
1
0.0705114
0.000257969
6.44669e-08
4.16784e-12
3.76601e-16
4.92076e-20
9.34996e-24
1
1
1
1
1
1
1
1
0.0575994
0.000144566
1.81721e-08
8.75318e-13
6.27326e-17
6.35326e-21
8.88163e-25
1
1
1
1
1
1
1
1
0.0480676
8.82595e-05
5.86806e-09
2.00327e-13
1.0685e-17
8.49512e-22
9.65885e-26
1
1
1
1
1
1
1
1
0.0413814
5.9986e-05
2.35182e-09
5.52299e-14
2.03824e-18
1.17834e-22
1.04989e-26
0.999999
0.999999
1
1
1
1
1
1
0.0371394
4.58177e-05
1.23918e-09
2.02253e-14
4.93739e-19
1.90901e-23
1.20843e-27
0.999999
0.999999
0.999999
1
1
1
1
1
0.0350604
3.88622e-05
8.58569e-10
1.04245e-14
1.70053e-19
4.16511e-24
1.70122e-28
0.999999
0.999999
0.999999
0.999999
1
1
1
1
0.0349683
3.60659e-05
7.2468e-10
7.38232e-15
8.71198e-20
1.37289e-24
3.40149e-29
1
1
0.999999
0.999999
0.999999
1
1
1
0.0367712
3.61425e-05
6.90121e-10
6.49191e-15
6.30402e-20
6.96431e-25
1.07487e-29
1
1
1
1
0.999999
1
1
1
0.0404654
3.89629e-05
7.03011e-10
6.37415e-15
5.71328e-20
5.07727e-25
5.33287e-30
1
1
1
1
1
1
1
1
0.0461075
4.51882e-05
7.58243e-10
6.54654e-15
5.74552e-20
4.66791e-25
3.86627e-30
1
1
1
1
1
1
1
1
0.0538142
5.67402e-05
8.89583e-10
6.95494e-15
5.94734e-20
4.76104e-25
3.56787e-30
1
1
1
1
1
1
1
1
0.0637456
7.74022e-05
1.19365e-09
7.91703e-15
6.26329e-20
4.96245e-25
3.67072e-30
1
1
1
1
1
1
1
1
0.0760994
0.000114034
1.92426e-09
1.03498e-14
6.98614e-20
5.22547e-25
3.85125e-30
1
1
1
1
1
1
1
1
0.0910996
0.000178484
3.80191e-09
1.67064e-14
8.94494e-20
5.79663e-25
4.07437e-30
1
1
1
1
1
1
1
1
0.10898
0.000290816
8.83719e-09
3.45306e-14
1.4342e-19
7.38154e-25
4.53722e-30
1
1
1
1
1
1
1
1
0.129968
0.000483959
2.29241e-08
8.82982e-14
3.03338e-19
1.18563e-24
5.82011e-30
1
1
1
1
1
1
1
1
0.154266
0.00081037
6.29081e-08
2.62188e-13
8.3303e-19
2.5509e-24
9.47792e-30
1
1
1
1
1
1
1
1
0.182027
0.00135105
1.75303e-07
8.46629e-13
2.76954e-18
7.3778e-24
2.08726e-29
1
1
1
1
1
1
1
1
0.213328
0.00222608
4.84364e-07
2.80333e-12
1.03133e-17
2.69439e-23
6.30728e-29
1
1
1
1
1
1
1
1
0.248135
0.00360511
1.30269e-06
9.18107e-12
3.99557e-17
1.14106e-22
2.48914e-28
1
1
1
1
1
1
1
1
0.286322
0.00571106
3.37083e-06
2.98968e-11
1.5353e-16
5.14622e-22
1.17777e-27
0.327611
1
1
1
1
1
1
1
1
0.0088087
8.35688e-06
1.21593e-10
5.72321e-16
2.32345e-21
6.09024e-27
0.0132149
0.399463
1
1
1
1
1
1
1
1
1.99088e-05
5.30117e-10
2.32293e-15
1.01461e-20
3.19363e-26
4.59904e-05
0.0242771
0.509283
1
1
1
1
1
1
1
0.999999
2.26603e-09
1.07776e-14
4.43564e-20
1.62321e-25
9.41011e-09
0.000140003
0.049975
0.613343
1
1
1
1
1
0.999999
0.999999
0.999997
5.17483e-14
2.14346e-19
7.96862e-25
2.42772e-13
5.53446e-08
0.000608515
0.0865799
0.70086
1
1
1
1
0.999999
0.999997
0.999997
0.999998
0.999999
1.11625e-18
4.06487e-24
5.7545e-18
1.7049e-12
6.46838e-07
0.00190318
0.128395
0.766171
1
1
1
0.999999
0.999997
0.999997
0.999997
0.999999
0.999999
1
2.2392e-23
1.24132e-22
4.82868e-17
3.99208e-11
4.33196e-06
0.00422475
0.16644
0.810401
0.99999
1
1
0.999999
0.999997
0.999997
0.999999
0.999999
0.999996
0.999997
1
1.23892e-21
1.09573e-15
6.74691e-10
1.54937e-05
0.00669165
0.193191
0.83937
0.999773
1
1
0.999998
0.999997
0.999997
0.999999
0.999999
0.999998
0.999995
0.999995
0.999998
3.0117e-20
2.01064e-14
4.20386e-09
2.91655e-05
0.00762158
0.205975
0.859998
0.999718
1
1
0.999998
0.999997
0.999998
0.999999
0.999999
0.999998
0.999995
0.999995
0.999995
0.999995
5.62055e-19
1.33492e-13
9.20762e-09
2.81202e-05
0.00681275
0.205907
0.873088
0.999764
1
1
0.999998
0.999997
0.999998
0.999999
1
0.999999
0.999997
0.999995
0.999995
0.999995
0.999992
3.89288e-18
2.8102e-13
6.75416e-09
1.89262e-05
0.00519507
0.199038
0.876888
0.99994
1
1
0.999999
0.999997
0.999998
0.999999
1
1
1
1
1
1
0.999998
0.999997
0.999995
0.999995
0.999999
7.83324e-18
1.7919e-13
3.47235e-09
1.07625e-05
0.00367234
0.184481
0.877204
0.999587
1
1
0.999999
0.999998
0.999999
0.999999
1
0.999999
1
1
1
1
0.999999
0.999998
0.999998
1
1
1
0.999998
0.999998
0.999999
4.40791e-18
8.0881e-14
1.49919e-09
5.38804e-06
0.00245972
0.16523
0.85158
0.999537
1
1
0.999999
0.999999
0.999998
1
0.999998
1
0.999998
0.999998
1
1
1
0.999998
0.999999
0.999997
1
1
0.999999
1
1
1
0.999999
0.999998
0.999999
1.74429e-18
3.01568e-14
5.71362e-10
2.45479e-06
0.0016141
0.133605
0.829367
0.99748
1
1
0.999999
0.999998
0.999998
0.999998
0.999998
0.999999
1
0.999998
1
0.999998
1
1
1
1
1
1
1
1.00001
1.00001
1.00001
1.00001
1
1
1
1
1
1
1
1
1
1
1
1
1
1
1
1
1
1
0.999997
0.999995
0.999998
5.70496e-19
9.99257e-15
1.89749e-10
1.10167e-06
0.00105063
0.102946
0.761025
0.993712
0.999997
1
0.999999
0.999998
0.999999
0.999998
0.999999
0.999998
0.999998
0.999998
0.999999
1
1
1
1
1
1
1
0.999999
1
0.999999
0.999998
1
0.999999
1
1
1
0.999998
0.999998
0.999998
0.999998
1
1
1
1
1
1
1
1
1
1
1.00001
1.00001
1.00001
1.00001
1.00001
1.00001
1
1
1
1
1
1
1
1
1
1
1
1
1
1
1
1
1
1
1
1
1
1
1
1
0.999998
0.999995
0.999995
0.999996
1.66994e-19
2.81261e-15
6.11588e-11
4.42744e-07
0.00056862
0.0671563
0.674015
0.981693
0.999662
0.999999
1
1
1
1
0.999998
0.999999
0.999998
0.999999
0.999998
0.999998
0.999998
0.999998
0.999999
1
0.999999
1
0.999998
0.999998
0.999998
0.999998
0.999999
1
0.999999
1
1
1
1
1
1
1
1
1
1
1
0.999999
0.999998
1
0.999999
1
1
0.999999
0.999998
0.999999
0.999998
1
1
1
1
1
1
1
1
1
1
1.00001
1.00001
1.00001
1.00001
1.00001
1.00001
1.00001
1.00001
1
1
1
1
1
1
1
1
1
1
1
1
1
1
1
1
1
1
1
1
1
1
1
1
1
1
1
1
1
1
1
1
1
1
1
1
1
1
0.999996
0.999995
0.999995
0.999994
3.91668e-20
8.01174e-16
1.68186e-11
1.4748e-07
0.000259964
0.0391617
0.550101
0.940093
0.997943
1
1
1
1
0.999998
1
0.999999
1
0.999998
0.999998
0.999998
0.999998
1
1
1
1
0.999998
0.999998
0.999998
0.999998
1
1
1
1
1
0.999998
1
0.999998
0.999999
1
0.999999
1
0.999998
0.999998
1
0.999998
1
1
0.999999
1
1
1
1
1
1.00001
1
1.00001
1.00001
1.00001
1.00001
1.00001
1.00001
1.00001
1.00001
1.00001
1
1
1
1.00001
1.00001
1.00001
1.00001
1
1
1
1
1
1
1.00001
1
1
1
1
1
1
1
1
1
1
1
1
1
1
1
1
1
1
1
1
1
1
1
1
1
1
1
1
1
1
0.999999
0.999995
0.999995
0.999995
0.999998
9.82471e-21
2.01086e-16
3.82488e-12
3.23952e-08
0.000102688
0.0188373
0.37469
0.862272
0.999358
1
1
1
1
0.999998
1
0.999998
1
0.999998
0.999998
0.999998
0.999998
1
1
1
1
0.999998
0.999998
0.999998
0.999998
1
1
1
1
1
0.999998
1
1
1.00001
1.00001
1.00001
1.00001
1.00001
1.00001
1.00001
1.00001
1.00001
1.00001
1.00001
1.00001
1.00001
1.00001
1.00001
1.00001
1.00001
1.00001
1.00001
1.00001
1.00001
1.00001
1.00001
1.00001
1.00001
1.00001
1
1
1
1
1.00001
1.00001
1.00001
1
1
1
1
1
1
1
1
1
1
0.999997
0.999995
0.999995
0.999997
0.999998
1.94822e-21
5.35001e-17
4.38938e-13
6.21308e-09
2.45807e-05
0.00726006
0.182529
0.751427
0.997344
0.997383
0.939792
0.939929
0.999999
1
0.999981
0.999981
0.999998
0.999998
0.999998
0.999998
1
1
1
1
0.999999
0.999998
0.999999
0.999998
1
1
1
1
1
0.999998
1
0.999998
1
1
1
1
0.999998
0.999998
1
0.999998
1
1
1
1
1
1.00001
1.00001
1
1.00001
1
1.00001
1
1.00001
1
1.00001
1
1
1
1
1.00001
1.00001
1.00001
1.00001
1
1
1
1
1.00001
1.00001
1.00001
1.00001
1.00001
1
1.00001
1
1
0.999995
0.999995
0.999998
0.999998
0.999999
4.70365e-22
7.85744e-18
3.7918e-14
5.61857e-10
1.80085e-06
0.00207282
0.0663608
0.471238
1
1
0.872917
0.873107
0.999999
1
1
0.999999
1
1
1
1
1
1
0.999999
0.999998
0.999998
0.999998
1
1
1
1
1
0.999999
1
0.999998
1
1
1
1
0.999998
0.999998
1
1
1
1.00001
1.00001
1.00001
1.00001
1
1.00001
1
1.00001
1
1.00001
1
1
1
1
1
1
1
1.00001
1
1
1
1
1
1.00001
1
1.00001
1
1
1
1
1.00001
1
1.00001
1
1.00001
1
1.00001
1
1.00001
1
1.00001
1
0.999999
0.999995
0.999997
0.999999
0.999999
3.00452e-23
1.25997e-18
1.51013e-15
4.48303e-17
7.79128e-11
0.000400576
0.0132862
0.344712
0.344853
0.125979
0.126094
0.963757
1
0.895644
0.999022
0.963649
1
0.895648
0.999056
0.751458
0.751852
0.999999
1
1
1
1
1
1
1
0.994372
1
0.999556
1
0.994285
1
0.999538
1
1
1
1
1
1
1
1
1
1
1.00001
1.00001
1.00001
1
1
1
1
1
1
1
1
1
1
1
1
1.00001
1
0.999999
1
0.999999
1
1
1
1
1
1
1
1
1
1
1
1
1
1
1
1.00001
1
0.999998
0.999996
0.999999
0.999999
4.43347e-24
6.47216e-20
4.45544e-17
7.72284e-11
7.86032e-11
1.88088e-05
0.00520254
0.00520695
1.07104e-18
1.71815e-18
0.161461
0.161677
0.0242497
0.024339
0.92964
0.999927
0.830484
0.992463
0.929575
0.999929
0.830743
0.992589
0.829522
0.440719
0.609532
0.619616
0.829744
0.439491
0.610286
0.619084
1
1
1
0.999984
1
1
1
0.999983
0.99644
1
0.999656
1
0.996418
1
0.999637
1
1
1
1.00001
1.00001
1
1.00001
1
1.00001
1
1
0.999993
1
1
1
1
1
1
1
0.999993
0.999999
0.999988
0.999998
0.999999
1
1
1
1
1
1
1
0.999995
1
1
1
0.999996
1
0.999995
0.999997
1
1
1
1
0.999999
0.999998
0.999999
3.52871e-26
2.09742e-20
1.34221e-13
1.39545e-09
1.48926e-06
4.66557e-05
0.00101929
0.00101643
1.09567e-05
1.09152e-05
0.0572636
0.364992
0.0777081
0.0111187
0.0233823
0.498667
0.364504
0.0573628
0.498659
0.0778568
0.0111945
0.023492
0.000211019
0.000210587
0.00165601
0.00320577
0.000207541
0.000209049
0.00167613
0.00323076
0.893998
1
0.826547
0.991598
0.894093
1
0.826786
0.991637
0.727643
0.492652
0.727587
0.491954
1
1
1
1
0.962037
1
0.961849
1
1
1
1.00001
1.00001
1
1.00001
1
1.00001
1
1
1
1
1
1
1
0.999998
1
0.999998
1
1
1
1
1
1
0.999996
1
1
1
0.999994
0.999999
0.999988
0.999992
0.999997
0.999997
1
1
1
1
1
1
0.999993
0.999994
1
1
0.999999
0.999999
7.14564e-28
4.52732e-16
2.06986e-11
2.2169e-07
8.32598e-05
0.000354651
0.000360208
0.000396262
0.000397128
0.000387054
0.000382776
0.000118645
0.000114989
0.18601
0.00650936
0.0133327
0.199418
0.000337295
0.00038858
0.185905
0.00654169
0.199527
0.0134165
0.000339714
0.000403229
0.000209582
0.000209049
0.000335386
0.000711669
0.000206061
0.000207541
0.00033772
0.000720665
0.693747
0.911931
0.693327
0.911819
1
1
1
1.00001
1.00001
1
1.00001
1
1.00001
0.999999
1
0.999996
1
1
1
1
1
0.999997
0.999998
0.999999
0.999996
1
1
1
1
1
1
1
1
0.999999
0.999999
0.999997
0.999997
1
1
1
1
0.999996
0.999998
1
1
0.999998
0.999998
0.999994
0.999994
1
1
1
1
1
-1.04727e-41
2.59265e-14
7.53057e-10
9.25015e-06
0.000397044
0.00022549
0.000248347
0.000274775
0.000267996
0.000172814
0.000130717
0.00022784
9.8723e-05
0.000184815
0.000128381
0.000237588
9.8023e-05
0.00014816
0.000173016
0.000208184
0.000426413
7.50178e-05
0.000144189
0.000204604
0.000427216
7.32704e-05
0.00014402
1
1
1
1
1.00001
1.00001
1.00001
1
1.00001
1
1.00001
1
1.00001
1
1
0.999996
1
1
1
1
1
0.999998
0.999994
0.999998
0.999998
0.999994
0.999999
1
1
1
1
1
1
0.999998
0.999996
1
1
-4.56951e-39
7.55806e-14
7.49602e-08
4.7846e-05
0.000741087
0.000105044
0.000722469
0.000744508
4.44513e-05
5.83003e-05
9.58932e-05
1.43201e-05
8.71384e-05
6.39221e-05
0.000120834
6.39937e-05
9.4512e-05
6.85667e-05
0.000131347
7.30629e-05
8.63295e-05
0.000140414
8.88298e-05
0.000159534
0.000121786
0.00017165
0.000119167
0.00017165
0.000155924
0.000329934
0.000152027
0.00033577
1
1
1
1.00001
1.00001
1
1.00001
0.999998
1.00001
0.999999
1.00001
1
0.999996
1
1
1.00001
1
1
1.00001
0.999996
0.999999
0.999995
0.999998
1
1
1
1
-2.58498e-37
3.02839e-12
5.43598e-07
9.44118e-05
0.00120073
0.000371138
0.000680686
0.00096891
4.0934e-05
0.000128926
6.0732e-06
3.92948e-06
4.42308e-05
3.92948e-06
6.65244e-05
0.000158938
7.84086e-06
4.0164e-06
5.11268e-05
4.0164e-06
5.90695e-05
1.17033e-05
6.30898e-05
6.39937e-05
6.42081e-05
6.46772e-05
6.53101e-05
6.56505e-05
6.30898e-05
8.63742e-05
6.14361e-05
0.000145271
9.31485e-05
0.000170278
1
1
1
1.00001
1
1
1
1.00001
1
1
0.999995
1
0.999996
1
0.999993
0.999999
0.999996
1
1
1
1
1
1
1
0.999996
0.999999
1
1
0.999994
0.999997
1
1
-1.4794e-36
1.84353e-10
9.0441e-07
2.59808e-05
0.000232671
4.27438e-09
4.38791e-09
0.00164264
0.00104268
0.000321041
0.00105835
1.46114e-05
7.54871e-05
8.77733e-06
3.92948e-06
1.97105e-05
3.92948e-06
2.63095e-05
8.02844e-05
5.51106e-06
4.0164e-06
1.96357e-05
4.0164e-06
0.000883587
0.000481559
1.92392e-05
0.000124262
0.000141181
9.21412e-05
4.6675e-06
1.85828e-05
1
1
1
1
1
1.00001
1
1
0.999999
1
0.999995
1
1
0.999995
0.999999
0.999995
1
1
1
1
1
1
0.999993
0.999998
0.999998
0.999998
1
1
1
1
0.999997
0.999997
1
1
-4.4188e-33
9.06027e-10
3.2116e-08
6.20316e-07
1.17477e-05
4.07465e-08
2.50075e-07
0.000583037
0.00184701
0.000512947
0.000617705
0.000911484
1.31295e-05
5.01297e-06
0.000649354
0.0024826
0.000115191
0.00252455
0.000487532
3.48765e-05
0.000372736
5.79098e-05
1.44845e-05
1.17032e-05
4.0164e-06
0.000103269
0.0010457
4.89862e-06
0.000491936
0.999999
1
1.00001
1
1.00001
1
1.00001
1
1
1
1
0.999999
1
0.999998
1
0.999999
1
1
1
1
1
1
1
0.999994
0.999998
0.999998
1
1
1
0.999999
0.999999
2.53227e-13
8.94846e-10
1.03608e-08
4.32818e-09
1.83235e-08
1.3953e-08
3.30199e-08
0.000853862
0.00370323
7.03166e-05
3.32122e-05
0.00037184
1.0001e-05
2.27769e-05
0.00180524
0.000432122
0.000226295
0.00358718
0.000460365
8.82952e-10
8.82639e-10
1.42377e-07
8.67848e-07
8.82639e-10
8.82952e-10
5.36606e-06
4.68411e-06
0.00108681
0.00419116
4.30308e-06
0.0018348
0.999998
1
1.00001
1
1.00001
1
1
1
1
1
1
1
1
1
1
1
1
1
1
1
1
0.999998
0.999999
1
1
1
1
1
1
5.52379e-12
6.58831e-10
7.66036e-16
1.43432e-09
9.43755e-10
1.71215e-14
8.11275e-17
6.15778e-17
1.21872e-09
1.01211e-09
3.35099e-08
5.46893e-09
4.93869e-08
1.68178e-07
0.000518378
0.00259098
1.42735e-05
8.95864e-05
0.00034933
8.36794e-06
0.000159575
0.00361468
3.5805e-05
0.000325742
0.00235455
0.000114646
5.0248e-07
8.37898e-07
4.66548e-06
3.938e-06
0.999998
1
1.00001
1
1.00001
1
1
1
1
1
1
1
1
1
1
1
1
1
1
1
1
1
1
1
1
1
1
1
1
1
1
2.13673e-12
1.19313e-15
2.58387e-13
7.51788e-16
3.48267e-13
1.04961e-14
6.85216e-16
1.98072e-16
1.49861e-12
2.41595e-10
2.11102e-09
5.64019e-10
5.14212e-08
5.05101e-12
4.29841e-31
-6.87934e-30
1.01113e-06
-5.24546e-32
4.93546e-07
4.03183e-07
5.24595e-07
-2.39991e-31
-1.61252e-32
7.43533e-32
8.37174e-06
1.47923e-05
5.69954e-05
4.50705e-05
6.93395e-07
2.22155e-07
2.02072e-05
6.93223e-06
0.999998
1
1
1
1.00001
1.00001
1
1.00001
1
1
1
1
1
1
1
1
1
1
1
1
1
1
1
1
1
1
1
1
1
1
2.08317e-16
5.20662e-14
3.83554e-15
2.16728e-12
3.03042e-31
7.62156e-14
1.09086e-13
3.61799e-13
1.15432e-13
4.08834e-13
2.2198e-14
6.47798e-14
3.24859e-31
4.53561e-12
1.75708e-12
1.78792e-12
1.3565e-29
8.32588e-12
-1.55014e-30
1.23298e-05
1.03769e-13
3.58965e-06
3.28228e-30
6.78401e-13
7.20865e-10
4.30862e-06
2.04683e-05
0.000110508
0.999997
1
0.999997
1
1.00001
1
0.999997
1
1
1
1
1
1
1
1
1
1
1
1
1
1
1
1
1
0.999999
1
0.999999
1
1
1
1
1
4.55627e-17
5.69651e-12
1.89732e-12
3.78812e-12
3.92308e-12
1.71721e-14
1.47426e-15
3.05004e-15
4.84612e-18
4.84612e-18
3.94615e-15
1.87428e-15
3.72e-15
3.23923e-15
2.27724e-14
3.49788e-12
2.70637e-14
2.43238e-14
5.60364e-15
1.95503e-13
1.62675e-13
8.26687e-14
2.31379e-13
1.20244e-14
4.53582e-15
9.0412e-14
9.84572e-12
7.97716e-14
1.25862e-13
6.53318e-12
4.84612e-18
9.67545e-12
4.84612e-18
5.29349e-13
1.88523e-13
1.16964e-12
1.18661e-13
0.999996
0.999995
0.999997
0.999999
1
1
1
1.00001
1.00001
1
0.999995
0.999999
1
1
0.999999
1
0.999999
1
1
1.00001
1
1
1
1.00001
1
0.999999
1
1
5.46106e-16
1.24875e-10
2.52085e-11
1.25629e-10
1.62537e-11
3.39069e-14
1.01442e-15
4.84612e-18
5.02148e-16
6.58412e-15
1.29403e-14
1.71707e-14
3.50347e-14
6.50568e-12
8.68145e-13
1.03208e-12
2.0611e-13
4.49435e-14
4.93495e-11
3.71472e-12
5.90701e-11
2.28534e-13
8.02993e-15
2.12681e-13
2.52951e-14
8.44598e-15
1.8081e-13
5.97869e-13
2.1854e-11
3.35767e-12
7.13677e-14
3.9264e-13
5.72256e-11
2.35108e-11
9.45588e-11
0.999997
0.999998
0.999997
0.999996
0.999994
0.99999
0.99999
0.999995
1
0.999999
1
1
1
0.999989
0.999998
1
1
1
1
1
1
0.999998
0.999999
1
0.999999
1
0.999997
0.999997
1
1
1
1
1
1
1
1
1
7.66051e-16
1.12434e-09
8.36765e-10
5.08738e-11
2.47658e-11
1.46071e-09
6.87443e-10
5.0682e-10
2.52962e-11
3.87285e-14
2.05283e-15
2.43069e-15
1.35939e-14
1.54169e-14
2.14235e-14
2.04741e-12
5.76485e-11
-5.82019e-36
1.2823e-13
2.1978e-11
7.77413e-10
8.88534e-16
4.83575e-14
1.59871e-15
8.88074e-14
7.34809e-12
4.87051e-28
5.02473e-10
9.81189e-34
1.38441e-11
6.16445e-10
0.999998
0.999998
0.999997
1
0.999992
0.999989
0.999985
1
0.999993
0.999999
0.999997
0.999989
0.999998
1
0.999998
1
0.999998
0.999989
0.999998
1
0.999998
0.999999
0.99999
0.999999
1
1
1
1
0.999997
1
0.999989
0.999999
1
1
1
7.45994e-19
-2.48918e-30
2.50609e-30
1.29768e-09
4.51171e-09
3.10724e-09
1.26924e-08
4.92744e-10
2.73039e-12
1.96477e-09
4.55791e-09
2.07213e-08
1.74788e-08
5.27504e-09
2.08758e-13
-2.21983e-42
1.30811e-11
7.58842e-10
7.0436e-13
2.37459e-10
5.31847e-09
-7.16793e-37
1.65977e-10
7.94142e-09
4.87046e-28
2.61327e-10
7.36483e-09
0.999997
0.999998
0.999972
1
1
0.999985
1
1
0.999984
0.999989
0.999991
0.999994
0.999994
0.999989
0.999995
0.999993
0.999995
0.999989
0.999993
1
1
0.999996
1
0.999999
1
1
1
0.999993
0.999999
1
1
2.06834e-21
-2.83354e-35
-2.69311e-35
9.61215e-23
-3.82625e-38
1.1186e-09
1.6492e-08
6.76976e-09
1.45755e-08
5.59778e-09
6.69153e-09
1.79805e-08
8.20282e-16
5.07401e-10
1.47876e-08
2.83067e-08
2.19634e-08
1.86331e-08
5.30075e-08
4.39435e-08
4.67004e-36
4.68941e-10
1.98715e-09
5.06448e-09
5.54966e-09
0.999997
0.999993
0.999983
0.999972
0.999992
0.999985
0.999985
0.999992
0.999991
1
1
1
1
0.999992
0.999991
1
1
0.999998
1
0.999999
0.999999
1
0.999995
1
1
1
1
8.41887e-20
-1.80491e-33
9.92433e-19
-3.58203e-37
1.17279e-21
7.18868e-17
4.92215e-20
4.52743e-12
5.10329e-08
1.26169e-09
2.09834e-08
1.04828e-09
1.33894e-07
2.31422e-08
5.14585e-08
3.39915e-08
6.80549e-09
1.48688e-08
-5.31506e-36
2.36381e-08
9.05515e-09
1.0113e-08
2.16889e-08
1.46632e-07
1.51326e-07
1.02511e-07
2.3494e-07
6.70755e-08
5.25903e-08
0.999999
0.999991
0.999982
0.999982
0.999982
0.999985
0.999995
0.999991
0.99999
0.999995
0.999993
0.999995
0.999986
1
1
1
1
1
1
0.99999
0.999994
1
1
1
1
6.89848e-22
2.40509e-20
1.87631e-17
1.63462e-22
3.79747e-19
1.90516e-15
2.24671e-16
9.16777e-19
3.71668e-19
3.11928e-14
9.79511e-17
8.28166e-11
9.09579e-11
7.04198e-10
4.86861e-13
4.09903e-07
2.48381e-08
1.93312e-07
2.5342e-08
3.4613e-07
3.14004e-08
9.64512e-08
7.39341e-08
-4.44756e-37
-3.88143e-27
-3.80888e-26
-1.00122e-36
3.17759e-07
1.54661e-07
1.38404e-07
3.69061e-07
4.88516e-07
3.31247e-07
2.14638e-07
7.61745e-07
0.999998
0.999992
0.999995
0.999986
0.99999
0.999987
0.999991
1
1
1
1
1
0.999999
0.999994
0.999997
0.999999
1
0.999999
1
1
1
1
1
1
1
1
1
1
1
2.25589e-15
-7.2352e-30
-2.30555e-30
1.49178e-30
-6.29625e-30
6.77299e-18
1.2653e-15
1.91422e-21
7.5025e-16
5.6959e-13
2.6429e-15
1.52968e-15
7.99872e-18
8.37008e-17
2.83887e-12
6.05267e-13
7.02372e-17
1.66185e-34
2.60308e-14
2.84532e-15
3.16332e-17
2.71462e-09
2.99976e-09
1.59692e-08
4.03365e-11
-2.31122e-37
5.89147e-42
-1.6372e-27
-4.81273e-36
0.999999
1
1
0.999988
0.999978
0.999989
0.999989
0.999998
0.999993
1
1
1
1
1
0.999997
1
1
1
1
1
1
0.999999
1
1
1
1
0.999997
1
1
1
1
1
1
1
1
8.97414e-11
4.48533e-15
1.69976e-11
4.56104e-11
4.10048e-12
5.62334e-12
1.06318e-16
3.04308e-14
1.77541e-20
2.07373e-14
1.83504e-13
3.90543e-11
9.78901e-12
5.87827e-13
6.02492e-18
6.51679e-42
2.5855e-39
1.39249e-18
2.44872e-15
3.47006e-13
4.08817e-14
1.49206e-14
8.67052e-19
-2.32982e-37
3.27955e-39
1.05488e-18
8.90526e-18
1.79043e-11
2.55101e-12
1.58062e-16
1.0043e-17
5.37971e-13
3.31258e-14
1.46599e-16
0.999994
1
1
0.999982
0.999989
0.999993
0.999989
0.999993
0.999988
1
0.999997
1
0.999999
0.999999
0.999999
1
0.99998
0.999999
1
1
0.999985
0.999998
1
1
0.999998
1
1
1
0.999998
3.9837e-12
1.37326e-08
3.51138e-09
7.51378e-09
2.25303e-09
9.03396e-12
2.74175e-09
1.25034e-08
1.26288e-09
4.77943e-09
9.37864e-16
3.83272e-41
3.61055e-18
2.85414e-22
9.27645e-13
3.65447e-12
-7.50016e-28
1.99902e-11
-2.23207e-39
-5.60749e-29
1.11039e-20
-5.43368e-28
2.67311e-12
1.14555e-34
-3.90807e-31
-4.61079e-29
1.73819e-12
2.16977e-10
4.96391e-11
3.9127e-12
5.5848e-17
1.85295e-37
9.76612e-22
1.54344e-17
2.78118e-14
6.85882e-12
4.56258e-13
2.00691e-13
1.91228e-18
-1.53447e-28
1.52678e-22
-5.33052e-31
0.999996
0.999992
0.999983
0.999989
0.99997
0.999978
0.999985
0.999965
0.99998
0.999973
1
1
1
0.999996
0.999999
0.999999
1
0.999984
1
1
1
0.999999
0.999999
0.999992
1
0.999983
0.999992
0.999996
0.999999
0.999979
0.999994
0.999999
1
0.999982
2.41452e-11
1.2643e-10
3.45118e-13
1.05124e-10
3.89371e-13
3.81146e-07
8.03436e-08
2.77987e-07
7.00311e-08
1.11933e-09
6.17811e-08
3.41184e-09
1.92178e-09
6.12478e-08
1.94766e-07
1.85936e-07
1.7788e-07
2.20728e-07
3.9345e-08
3.17754e-09
2.04973e-09
3.2684e-08
1.24326e-07
1.06179e-07
9.98819e-08
1.11349e-07
-2.5133e-35
6.71352e-25
1.02953e-16
3.51621e-42
1.25326e-10
1.81382e-09
1.44141e-10
2.77661e-09
2.08818e-39
-1.13094e-28
1.06464e-20
-1.04053e-27
3.28939e-11
-4.72793e-59
-8.8085e-28
1.58934e-42
0.999993
0.999992
0.999997
0.999999
0.999995
0.999997
0.999965
0.999994
0.999976
1
1
1
1
1
0.999995
0.999997
0.999999
0.999995
1
0.999997
1
0.999998
1
1
1
1
0.999997
0.999999
0.999999
0.999989
0.999993
0.999999
0.999999
0.999984
1
1
1
0.999998
0.999994
0.999994
0.999998
0.999983
1.10541e-11
3.72886e-09
2.91477e-09
8.58012e-12
3.14832e-09
1.26556e-11
8.65024e-07
7.15404e-07
1.5949e-06
6.51148e-07
1.25625e-06
1.06268e-06
5.82262e-08
9.07449e-08
3.37038e-07
5.15393e-07
5.14556e-07
4.39628e-07
1.53574e-06
4.76372e-07
1.18823e-06
8.1161e-07
7.96428e-08
1.04693e-07
3.30324e-07
5.36947e-07
4.28797e-09
1.35539e-07
4.02631e-08
1.03384e-08
2.59159e-07
6.50652e-07
6.8688e-07
1.07922e-07
1.22158e-08
8.20225e-09
1.02345e-07
4.96022e-07
3.23778e-07
2.47149e-09
2.91657e-08
4.13305e-09
2.16134e-08
6.31244e-11
4.34972e-42
9.10948e-11
1.56823e-24
0.999971
0.999993
0.999997
0.999998
0.999997
0.999995
1
0.999999
1
0.999996
0.999986
0.999976
0.999981
0.999983
1
1
1
1
1
1
1
1
1
1
1
1
1
1
1
1
0.999999
0.999988
1
0.999998
1
0.999999
1
0.999999
1
1
1
1
1.69677e-09
2.54017e-14
3.78702e-13
3.19828e-14
1.47964e-13
3.28857e-08
7.62707e-09
6.39974e-11
1.24522e-08
1.27396e-10
9.41452e-07
5.48197e-07
1.59124e-06
1.59124e-06
5.1244e-07
1.5949e-06
1.16202e-07
1.24952e-07
4.03485e-07
8.23118e-07
5.2915e-07
3.03058e-07
1.4284e-06
1.56483e-06
3.42393e-07
1.59124e-06
1.82756e-07
1.56201e-07
3.63168e-07
8.2314e-07
1.53451e-09
1.3077e-07
1.20986e-07
3.20153e-08
3.53112e-07
7.21268e-07
7.3526e-07
1.00456e-07
9.2496e-09
9.69749e-09
8.92064e-08
5.39779e-07
2.9698e-07
0.999978
0.999993
0.999998
0.999996
0.999999
0.999996
1
1
0.999999
1
0.999994
1
1
0.999997
1
0.999999
1
1
0.999995
1
0.999989
0.999999
1
0.999989
1
0.999998
1
0.999997
0.999988
0.999992
0.999996
1
0.999998
1
1
1
1
1
1
1
0.999999
1
1
1
1
1
1
5.47046e-07
5.47195e-14
5.48069e-14
5.48069e-14
5.47195e-14
7.84215e-14
1.7875e-11
5.89725e-13
4.24578e-11
1.02682e-07
3.70196e-09
8.16995e-08
4.38378e-08
9.08275e-09
1.05894e-10
1.16231e-14
2.31418e-14
1.98346e-10
1.35052e-08
1.64e-07
7.45233e-08
3.05916e-08
7.84662e-10
2.5279e-12
5.02714e-12
1.21974e-09
4.40314e-07
1.46857e-06
2.13937e-07
2.04916e-07
2.91942e-07
6.37755e-07
2.28709e-07
8.51262e-07
2.96527e-07
2.30249e-07
2.96132e-07
6.95978e-07
1.00563e-10
0.999993
0.999984
0.999994
1
0.999999
0.999999
0.999997
0.999996
1
1
1
1
0.999999
1
1
0.999989
0.999998
0.999996
0.999998
0.999996
0.999999
0.999999
0.999995
1
1
0.999986
0.999995
0.999989
0.999998
0.999986
0.999998
1
1
0.999999
1
1
1
1
1
1
1
1
1
6.25477e-05
2.0581e-06
1.77456e-10
3.5943e-06
7.83482e-10
6.26312e-06
3.28938e-16
9.36065e-12
2.45245e-15
2.78424e-32
-4.98782e-33
7.67632e-12
8.31273e-25
1.10909e-24
6.63658e-12
2.71349e-09
1.48555e-12
6.35774e-11
1.99724e-13
6.26286e-30
-9.96483e-28
4.08268e-11
9.29825e-25
-1.81357e-25
1.39722e-11
6.7232e-09
4.95203e-08
4.69271e-09
4.13703e-08
2.82569e-08
9.98501e-09
4.48977e-10
9.47794e-10
9.44197e-09
1.01432e-07
4.19657e-08
3.16487e-08
1.35482e-09
4.02619e-09
2.94813e-13
0.999999
0.999982
0.999984
0.999997
0.999987
0.999997
0.999987
1
1
1
0.999999
1
0.999989
0.999998
0.999999
1
1
1
1
1
0.999993
0.999998
1
1
1
1
1
1
1
0.999997
0.999997
0.999997
0.999997
0.999995
1
0.999991
0.999998
0.999987
0.999994
5.196e-05
0.000327348
0.000903346
0.000544827
0.00107954
1.9748e-06
1.27153e-07
8.49652e-05
3.82894e-07
0.000126348
2.61055e-13
2.15744e-26
2.42491e-14
4.18221e-13
2.79167e-08
-1.9419e-26
3.47345e-07
3.77514e-07
8.93452e-07
3.41865e-07
5.34439e-11
-8.23875e-31
4.30584e-12
4.14672e-31
2.14684e-07
2.4864e-09
1.03533e-06
7.33195e-07
1.879e-06
7.35871e-07
2.7235e-09
8.75909e-13
2.83608e-11
6.38599e-11
8.51832e-10
5.83121e-16
1
0.999986
0.999982
0.999989
0.999999
0.999993
0.999999
0.999994
1
1
1
1
1
1
1
1
1
1
0.999999
0.999999
1
1
1
1
1
1
1
1
0.999999
0.999989
0.999994
0.999997
1
1
1
0.999996
0.999994
1
1
1
0.00100743
3.84853e-05
0.00224593
0.00160751
0.00221866
0.00146888
5.02678e-07
6.34264e-24
1.78608e-05
9.94945e-06
-2.54192e-23
0.00225025
2.4447e-22
2.62619e-05
1.52091e-05
4.09293e-05
0.00250825
8.11274e-07
-3.44985e-24
4.3878e-05
1.45067e-05
2.34348e-05
5.57948e-06
4.01535e-06
2.93119e-24
6.48725e-05
2.06668e-05
4.44811e-05
1.05117e-05
1.02281e-11
5.06545e-19
1
0.999996
0.999982
0.999991
0.999998
1
0.999995
0.999989
1
1
1
1
1
1
1
1
1
1
1
1
1
1
0.999999
0.999998
1
1
1
1
1
1
1
1
1
1
1
1
0.000347754
0.000642008
0.00101878
0.000632729
0.00101877
1.45118e-05
0.000751627
0.000256494
0.000486042
0.000207278
1.19018e-08
0.000489323
9.55914e-05
9.49746e-05
0.000574352
0.000707143
0.00408546
0.00143598
0.00714541
0.000646717
0.000173617
0.000133134
0.000865991
0.000381026
0.00284617
0.00110297
0.00644501
0.000354051
9.60943e-05
0.000427693
0.000121169
3.84105e-15
4.55889e-24
1
1
0.999992
0.999992
0.999994
1
1
0.999998
0.999996
1
1
1
1
0.999997
0.999999
1
1
0.999999
0.999997
1
1
1
1
1
1
1
1
1
1
1
1
0.000175868
1.99381e-05
0.00035527
0.000887829
0.000353163
0.000892083
6.08697e-07
2.13333e-05
2.16204e-05
3.0405e-05
2.16323e-05
9.09664e-05
0.00107
2.82957e-05
4.79866e-05
0.000844851
2.13372e-05
2.13401e-05
2.1788e-05
2.13365e-05
2.75609e-05
6.3368e-12
0.00497687
0.000689154
0.00117898
0.00133817
0.000574655
0.00712297
0.00562111
0.000871819
0.00193275
0.001355
0.000273287
0.0062004
2.36156e-19
6.19405e-26
1
1
0.999999
0.999997
0.999988
0.999993
0.999994
0.999993
0.99999
1
0.999999
0.999999
0.999993
1
1
1
1
1
1
1
1
1
1
1
1
1
1
1
1
1
1
1
1
5.03911e-05
4.7338e-05
3.47114e-18
4.73695e-05
2.09878e-20
3.5236e-07
0.000242857
0.000319592
0.000245026
0.000322863
9.99103e-10
2.13341e-05
2.13306e-05
4.14096e-05
2.33159e-05
7.8603e-05
2.13299e-05
7.23262e-05
0.000181776
2.13334e-05
0.000125758
4.89684e-05
3.69057e-05
2.13334e-05
2.13366e-05
2.13373e-05
2.13373e-05
7.19383e-05
0.000181278
2.13402e-05
0.000125118
3.84919e-17
0.00717977
0.00109819
0.00718453
0.00105374
5.0909e-20
1.81e-24
1
1
1
1
0.999987
0.999988
0.999992
0.999993
0.999988
0.999993
1
1
1
1
1
1
0.999998
0.999998
1
0.999998
1
1
0.999989
0.999983
1
1
1
1
1
1
1
1
1
1
1
1
0.017935
0.000697326
0.00156714
0.00716022
0.00155686
0.0071517
1.24732e-09
0.000117522
0.000198861
0.000358587
0.000115169
0.000233385
0.000200066
0.000678706
0.000117999
0.00019746
0.000357954
0.00011342
0.0002348
0.000194843
0.000673167
3.79235e-17
6.03976e-05
2.13341e-05
5.77954e-05
0.000159595
6.07074e-05
2.13366e-05
5.79198e-05
0.000158043
5.00086e-16
6.70177e-19
4.96071e-24
1
1
1
1
0.999994
0.999984
0.999984
0.999991
0.999986
0.999993
0.999992
0.999993
0.999998
0.999993
1
1
1
1
1
1
0.999999
1
0.999998
1
0.999995
1
1
0.999998
1
0.999993
0.999983
0.999999
0.999992
0.999999
1
1
1
1
0.514599
0.0849729
0.00313639
0.0384632
0.160133
0.0385001
0.160073
8.07466e-06
9.5508e-05
0.000137585
0.000616262
0.000129498
0.000505404
0.000259957
0.000450142
0.000447909
0.000452386
0.000473866
9.54514e-05
0.000138581
0.000609526
0.000124629
0.000506458
0.000253728
0.0004434
0.00044566
0.000441117
0.000466012
6.39193e-10
2.24173e-14
2.21787e-18
4.18543e-24
1
1
1
1
1
0.999983
0.999988
0.999984
0.999993
0.999986
0.999995
0.999991
0.999999
0.999999
0.999989
0.999999
0.999993
0.999988
0.999971
0.999994
0.999999
0.999999
0.999999
0.999989
0.999986
1
1
0.999991
1
0.999999
0.99998
0.999982
0.999996
0.780271
0.40267
0.402671
0.898904
0.952093
0.899026
0.952113
0.224351
0.00987606
0.223837
0.00498481
0.00828533
0.223871
0.00499851
0.00831269
4.4361e-05
9.42315e-05
0.000270079