/*--------------------------------*- C++ -*----------------------------------*\
| =========                 |                                                 |
| \\      /  F ield         | OpenFOAM: The Open Source CFD Toolbox           |
|  \\    /   O peration     | Version:  5.x                                   |
|   \\  /    A nd           | Web:      www.OpenFOAM.org                      |
|    \\/     M anipulation  |                                                 |
\*---------------------------------------------------------------------------*/
FoamFile
{
    version     2.0;
    format      ascii;
    class       surfaceScalarField;
    location    "0.8";
    object      alphaPhi10;
}
// * * * * * * * * * * * * * * * * * * * * * * * * * * * * * * * * * * * * * //

dimensions      [0 3 -1 0 0 0 0];

internalField   nonuniform List<scalar> 
30582
(
0.000288501
-6.82765e-07
0.000286872
1.62979e-06
0.000287621
-4.50553e-07
0.000282875
3.99675e-06
0.000285364
3.88704e-06
0.000285729
1.75016e-06
0.000279095
3.78024e-06
0.000281813
7.54762e-06
0.000284588
5.02856e-06
0.000281654
8.13574e-06
0.000273306
5.78842e-06
0.00027868
6.91375e-06
0.000282579
9.55655e-06
0.000278331
8.35116e-06
0.000276137
2.01809e-05
0.000262631
1.06754e-05
0.000273752
1.07161e-05
0.00028039
9.10271e-06
0.000277796
1.0092e-05
0.000275759
8.72854e-06
0.000265526
4.30244e-05
0.00024613
1.65006e-05
0.000263562
2.08654e-05
0.000276208
1.4898e-05
0.000278211
8.68749e-06
0.000278523
7.32839e-06
0.000262274
1.19807e-05
0.00025841
7.32038e-05
0.000224679
2.14515e-05
0.000247129
3.2934e-05
0.000266163
3.09106e-05
0.000277135
1.59737e-05
0.000282271
4.93922e-06
0.000268596
1.00606e-06
0.000258029
1.23612e-05
0.000232933
0.000129113
0.000200052
2.46271e-05
0.000225442
4.31379e-05
0.000249395
4.97011e-05
0.000268669
3.9377e-05
0.000282769
1.54758e-05
0.000277822
-4.2871e-06
0.000268925
-9.88915e-06
0.000227836
1.72227e-05
0.00011237
-6.4418e-06
0.000174252
2.57994e-05
0.000200444
4.96249e-05
0.000227012
6.55209e-05
0.000252047
6.63235e-05
0.000274605
4.75411e-05
0.000284533
8.76488e-06
0.000284076
-1.94378e-05
0.000250287
-2.87662e-05
0.000138199
-3.61809e-06
-9.94056e-06
3.02122e-07
0.000148985
2.52675e-05
0.000174291
5.19532e-05
0.000201191
7.54464e-05
0.000228957
8.86111e-05
0.000257233
8.36957e-05
0.000279473
5.26014e-05
0.000293248
-4.07942e-07
0.000280901
-4.41277e-05
0.000180938
-1.66167e-05
8.66071e-07
-7.2158e-08
-3.16779e-09
7.44412e-10
0.000125422
2.35632e-05
0.000148748
5.081e-05
0.000174289
7.88555e-05
0.000202045
0.000102358
0.000232568
0.000113276
0.0002622
0.000100969
0.000288107
5.77426e-05
0.000297217
-1.48499e-05
0.000233717
-2.73971e-05
1.53067e-05
-2.19528e-07
3.65184e-09
-4.59487e-11
3.95878e-11
2.55722e-14
0.00010423
2.11916e-05
0.000125004
4.73074e-05
0.000148181
7.69176e-05
0.000174099
0.000106801
0.000203781
0.000131145
0.000235921
0.000139555
0.000269637
0.000119439
0.000297601
5.73599e-05
0.000261654
-1.86665e-05
4.27476e-05
-6.42021e-07
2.90817e-08
-1.93634e-10
3.05448e-12
-1.18203e-15
1.37367e-16
2.31717e-19
8.56752e-05
1.85548e-05
0.000103713
4.2482e-05
0.000124074
7.14139e-05
0.0001472
0.000103817
0.000174199
0.000136383
0.000204881
0.000162185
0.000240826
0.000168365
0.000279353
0.000137687
0.000266856
1.58737e-05
7.23378e-05
-1.13055e-06
2.47806e-07
-1.05533e-09
1.58707e-11
-9.93689e-15
1.76457e-17
-2.60153e-20
6.28515e-21
1.4115e-25
6.97399e-05
1.59353e-05
8.51235e-05
3.71447e-05
0.000102601
6.39556e-05
0.000122596
9.60179e-05
0.000146123
0.000131894
0.000173317
0.000167947
0.000206724
0.000196287
0.000247673
0.000200045
0.00024048
4.69126e-05
8.16006e-05
-2.10166e-07
1.16882e-06
-4.17637e-09
4.87935e-11
-1.04759e-13
2.81701e-16
-1.80077e-19
1.24217e-21
-3.79968e-25
-1.04597e-26
5.62328e-05
1.35071e-05
6.91976e-05
3.18612e-05
8.39587e-05
5.57869e-05
0.000100874
8.56777e-05
0.000120799
0.000121341
0.000143846
0.000161364
0.000172667
0.000202004
0.000209423
0.000234538
0.000198511
6.14315e-05
7.40784e-05
2.44549e-06
2.16834e-06
-4.20792e-09
1.49068e-10
-6.38829e-13
-3.90132e-15
-2.33078e-18
2.92092e-21
-2.85004e-24
-7.76436e-27
4.48753e-05
1.13575e-05
5.57287e-05
2.6976e-05
6.80677e-05
4.77521e-05
8.21689e-05
7.4492e-05
9.87204e-05
0.000107757
0.000117707
0.000147481
0.000141628
0.000192403
0.000172134
0.000239293
0.000155263
5.93153e-05
5.02774e-05
3.10734e-06
2.30732e-06
1.03924e-08
5.00421e-10
-9.33934e-13
-6.98191e-14
-1.49571e-17
-1.01644e-19
-4.47431e-23
5.31005e-27
3.53519e-05
9.5234e-06
4.44265e-05
2.26597e-05
5.46884e-05
4.03553e-05
6.63417e-05
6.35793e-05
7.99179e-05
9.32945e-05
9.52637e-05
0.000130199
0.0001147
0.00017441
0.000138749
0.000225789
0.000118306
4.67106e-05
3.01779e-05
2.12387e-06
1.0604e-06
2.03182e-08
6.17413e-10
4.01572e-12
-2.73014e-13
-2.36217e-17
-1.31071e-18
-3.14791e-22
-6.95055e-25
2.73427e-05
8.00925e-06
3.49676e-05
1.89824e-05
4.35073e-05
3.38408e-05
5.31054e-05
5.35916e-05
6.41646e-05
7.93326e-05
7.6422e-05
0.000112136
9.20076e-05
0.000152891
0.000110286
0.000202872
8.93408e-05
3.24381e-05
1.68864e-05
1.02914e-06
2.82109e-07
8.23234e-09
1.78185e-10
6.5491e-12
-1.64012e-13
1.35898e-16
-6.07793e-18
-5.53528e-22
-1.07266e-23
2.05429e-05
6.79984e-06
2.70262e-05
1.59506e-05
3.41841e-05
2.83056e-05
4.21117e-05
4.48345e-05
5.11068e-05
6.66495e-05
6.08446e-05
9.491e-05
7.32494e-05
0.000130894
8.67441e-05
0.000176433
6.72561e-05
2.06858e-05
8.78902e-06
4.17916e-07
6.51635e-08
1.82037e-09
2.66389e-11
1.42031e-12
-1.70429e-14
2.08924e-16
-3.64179e-18
4.32415e-21
-5.6717e-23
1.46693e-05
5.87356e-06
2.0294e-05
1.35321e-05
2.63828e-05
2.37519e-05
3.29964e-05
3.74209e-05
4.03491e-05
5.55922e-05
4.80932e-05
7.94008e-05
5.79383e-05
0.000110221
6.76749e-05
0.000149964
5.05907e-05
1.23766e-05
4.21385e-06
1.51199e-07
1.39044e-08
3.23196e-10
4.3314e-12
1.3506e-13
-3.52403e-16
4.1797e-17
-3.44724e-19
6.29812e-21
-3.19072e-23
9.46659e-06
5.20271e-06
1.44864e-05
1.16811e-05
1.97891e-05
2.01258e-05
2.54089e-05
3.13394e-05
3.14963e-05
4.62737e-05
3.77119e-05
6.59736e-05
4.55382e-05
9.18008e-05
5.2453e-05
0.000125443
3.80722e-05
7.05123e-06
1.86295e-06
4.95825e-08
2.79783e-09
5.02242e-11
6.31056e-13
1.13711e-14
3.30088e-17
3.69103e-18
-7.23633e-21
1.20219e-21
-2.7452e-24
4.70471e-06
4.76187e-06
9.34846e-06
1.03406e-05
1.41172e-05
1.7353e-05
1.90269e-05
2.65079e-05
2.4179e-05
3.86568e-05
2.92646e-05
5.47209e-05
3.55352e-05
7.59766e-05
4.04192e-05
0.000103835
2.86859e-05
3.87863e-06
7.67594e-07
1.49465e-08
5.45969e-10
7.06473e-12
7.64281e-14
1.43871e-15
7.29053e-18
3.55586e-19
5.92227e-22
1.07896e-22
-4.07951e-26
1.7906e-07
4.52565e-06
4.65091e-06
9.45941e-06
9.1119e-06
1.53459e-05
1.35611e-05
2.28188e-05
1.80644e-05
3.26225e-05
2.23571e-05
4.55642e-05
2.74621e-05
6.2794e-05
3.09584e-05
8.54374e-05
2.16304e-05
2.09155e-06
2.98971e-07
4.23244e-09
1.0481e-10
9.07485e-13
8.57413e-15
1.64532e-16
1.01726e-18
3.78805e-20
1.26691e-22
1.05223e-23
7.66691e-27
-4.29619e-06
4.47525e-06
1.8939e-07
8.98717e-06
4.54393e-06
1.40274e-05
8.75552e-06
2.01515e-05
1.28591e-05
2.80241e-05
1.66433e-05
3.83363e-05
2.09104e-05
5.21159e-05
2.3526e-05
7.02263e-05
1.63026e-05
1.12379e-06
1.12593e-07
1.15153e-09
2.02831e-11
1.07233e-13
1.06845e-15
1.77301e-17
1.07498e-19
3.6098e-21
1.37261e-23
9.38375e-25
1.17036e-27
-8.89082e-06
4.59463e-06
-4.2218e-06
8.88644e-06
2.10393e-07
1.33207e-05
4.38255e-06
1.84004e-05
8.30645e-06
2.47041e-05
1.18241e-05
3.28433e-05
1.55292e-05
4.37176e-05
1.76591e-05
5.79828e-05
1.22441e-05
6.1434e-07
4.19533e-08
3.13859e-10
4.02936e-12
2.31803e-14
1.9039e-16
2.28642e-18
1.33943e-20
3.48153e-22
1.2919e-24
7.6629e-26
1.00811e-28
-1.37619e-05
4.87104e-06
-8.75219e-06
9.12501e-06
-4.07331e-06
1.31702e-05
2.41086e-07
1.74622e-05
4.18036e-06
2.25264e-05
7.64276e-06
2.88854e-05
1.10208e-05
3.73516e-05
1.29724e-05
4.84042e-05
9.11389e-06
3.50438e-07
1.59397e-08
9.00714e-11
8.54294e-13
5.01832e-15
4.03162e-17
3.97915e-19
2.19774e-21
4.34878e-23
1.48889e-25
6.85644e-27
8.52487e-30
-1.9056e-05
5.2941e-06
-1.3559e-05
9.67784e-06
-8.47545e-06
1.35271e-05
-3.85129e-06
1.72625e-05
2.82259e-07
2.13603e-05
3.87558e-06
2.62936e-05
7.13269e-06
3.27735e-05
9.14814e-06
4.11759e-05
6.65524e-06
2.14749e-07
6.43169e-09
2.89089e-11
2.01945e-13
1.15696e-15
7.56717e-18
6.97046e-20
3.52482e-22
6.06307e-24
1.99288e-26
7.54633e-28
8.62115e-31
-2.49094e-05
5.85341e-06
-1.87885e-05
1.05237e-05
-1.31517e-05
1.43541e-05
-8.06052e-06
1.77364e-05
-3.56729e-06
2.11121e-05
3.29092e-07
2.49068e-05
3.64695e-06
2.97794e-05
5.92747e-06
3.59942e-05
4.6779e-06
1.44792e-07
2.84849e-09
1.12672e-11
5.38229e-14
3.109e-16
1.55551e-18
1.32383e-20
5.47654e-23
8.57609e-25
2.4569e-27
8.47679e-29
9.01553e-32
-3.1447e-05
6.53761e-06
-2.45765e-05
1.16414e-05
-1.82483e-05
1.56202e-05
-1.25405e-05
1.88341e-05
-7.53136e-06
2.17004e-05
-3.16971e-06
2.46109e-05
3.75938e-07
2.81778e-05
3.09014e-06
3.26167e-05
3.03072e-06
1.08818e-07
1.4056e-09
5.63321e-12
1.58301e-14
1.0769e-16
3.87772e-19
3.06363e-21
9.79893e-24
1.36075e-25
3.17932e-28
9.81053e-30
8.82081e-33
-3.87806e-05
7.33366e-06
-3.10482e-05
1.30093e-05
-2.39012e-05
1.72943e-05
-1.74363e-05
2.0516e-05
-1.17615e-05
2.30643e-05
-6.77873e-06
2.53095e-05
-2.8476e-06
2.78344e-05
4.54573e-07
3.08133e-05
1.59127e-06
9.07927e-08
7.24697e-10
3.70594e-12
4.606e-15
5.11041e-17
1.25088e-19
9.71398e-22
2.2448e-24
2.78306e-26
5.09042e-29
1.32917e-30
9.67411e-34
-4.70064e-05
8.22576e-06
-3.83169e-05
1.46023e-05
-3.02363e-05
1.93444e-05
-2.28842e-05
2.27423e-05
-1.64018e-05
2.51563e-05
-1.06446e-05
2.69302e-05
-6.17619e-06
2.86381e-05
-2.13322e-06
3.04222e-05
2.53179e-07
8.29969e-08
3.30789e-10
2.99828e-12
9.2005e-16
3.35713e-17
4.88526e-20
4.50916e-22
6.82054e-25
8.32578e-27
1.12993e-29
2.45906e-31
1.40562e-34
-5.62013e-05
9.19493e-06
-4.64811e-05
1.639e-05
-3.737e-05
2.1736e-05
-2.90126e-05
2.54728e-05
-2.15893e-05
2.79297e-05
-1.49095e-05
2.94211e-05
-9.75195e-06
3.0506e-05
-4.82019e-06
3.1325e-05
-1.0661e-06
8.19567e-08
3.68256e-11
2.77233e-12
-4.18057e-16
2.7945e-17
1.94973e-20
3.00677e-22
2.47242e-25
3.83664e-27
3.5417e-30
7.05244e-32
2.97481e-35
-6.64236e-05
1.02223e-05
-5.56218e-05
1.83356e-05
-4.54058e-05
2.44257e-05
-3.59421e-05
2.86656e-05
-2.7455e-05
3.13386e-05
-1.97113e-05
3.27314e-05
-1.37133e-05
3.33825e-05
-7.74058e-06
3.34263e-05
-2.43165e-06
8.71917e-08
-2.62704e-10
2.77935e-12
-7.78295e-16
2.65148e-17
5.35578e-21
2.57633e-22
8.37616e-26
2.5944e-27
1.40597e-30
3.21499e-32
8.99024e-36
-7.77036e-05
1.128e-05
-6.58012e-05
2.04016e-05
-5.44308e-05
2.73605e-05
-4.37828e-05
3.22664e-05
-3.4125e-05
3.53355e-05
-2.51847e-05
3.68121e-05
-1.81958e-05
3.72139e-05
-1.1034e-05
3.66759e-05
-3.92297e-06
9.99578e-08
-6.46183e-10
2.98844e-12
-1.00062e-15
2.68036e-17
-4.2741e-21
2.50325e-22
6.89298e-27
2.26735e-27
5.84154e-31
2.18242e-32
3.40797e-36
-9.00447e-05
1.23411e-05
-7.70538e-05
2.25326e-05
-6.4514e-05
3.04848e-05
-5.263e-05
3.62077e-05
-4.17169e-05
3.98583e-05
-3.14629e-05
4.16137e-05
-2.33338e-05
4.19501e-05
-1.48424e-05
4.10224e-05
-5.61795e-06
1.24208e-07
-1.25564e-09
3.53867e-12
-2.12494e-15
2.85067e-17
-1.39956e-20
2.54968e-22
-3.43459e-26
2.23895e-27
1.5304e-31
1.92524e-32
1.28233e-36
-0.000103409
1.33639e-05
-8.93872e-05
2.46746e-05
-7.5698e-05
3.37166e-05
-6.25631e-05
4.04178e-05
-5.03368e-05
4.48275e-05
-3.86739e-05
4.70693e-05
-2.92621e-05
4.7542e-05
-1.93117e-05
4.64194e-05
-7.59582e-06
1.67004e-07
-2.37164e-09
4.83921e-12
-5.34724e-15
3.30869e-17
-2.86129e-20
2.68618e-22
-7.24651e-26
2.29555e-27
-1.54708e-31
1.92203e-32
1.89819e-37
-0.000117718
1.43094e-05
-0.000102768
2.67445e-05
-8.79994e-05
3.6976e-05
-7.36368e-05
4.47903e-05
-6.0077e-05
5.0158e-05
-4.69378e-05
5.30914e-05
-3.61138e-05
5.3921e-05
-2.45943e-05
5.28246e-05
-9.94217e-06
2.40343e-07
-4.6757e-09
7.98655e-12
-1.40494e-14
4.4934e-17
-5.70999e-20
3.05754e-22
-1.45077e-25
2.41166e-27
-4.71279e-31
1.98359e-32
-4.64849e-37
-0.000132851
1.51335e-05
-0.000117123
2.86642e-05
-0.000101394
4.01393e-05
-8.58815e-05
4.92207e-05
-7.10084e-05
5.57218e-05
-5.63649e-05
5.95852e-05
-4.4018e-05
6.09956e-05
-3.08469e-05
6.01735e-05
-1.27544e-05
3.63638e-07
-9.78195e-09
1.59644e-11
-3.89946e-14
7.60715e-17
-1.22526e-19
4.08569e-22
-3.03523e-25
2.71664e-27
-9.35588e-31
2.08907e-32
-1.10186e-36
1.57835e-05
-0.000148635
-0.000132334
3.03453e-05
-0.00011582
4.30902e-05
-9.92885e-05
5.35463e-05
-8.31802e-05
6.13925e-05
-6.70477e-05
6.64046e-05
-5.30987e-05
6.86659e-05
-3.82275e-05
6.83763e-05
-1.61442e-05
5.66737e-07
-2.11731e-08
3.67251e-11
-1.14597e-13
1.63367e-16
-3.00883e-19
6.94699e-22
-6.77517e-25
3.58714e-27
-1.79616e-30
2.35091e-32
-2.21606e-36
3.16825e-05
-0.000148233
3.86945e-05
-0.000187329
-0.000131171
4.56966e-05
-0.000113812
5.76139e-05
-9.66044e-05
6.69706e-05
-7.90602e-05
7.3405e-05
-6.34681e-05
7.6774e-05
-4.68942e-05
7.73326e-05
-2.02387e-05
8.93509e-07
-4.63779e-08
9.27393e-11
-3.57532e-13
4.21363e-16
-8.7417e-19
1.55781e-21
-1.73967e-24
6.08663e-27
-3.74164e-30
3.1006e-32
-4.46553e-36
4.78025e-05
-0.000147291
7.78317e-05
-0.000187371
3.63288e-05
-0.000223658
-0.000129363
6.12479e-05
-0.000111257
7.22667e-05
-9.24427e-05
8.03531e-05
-7.52264e-05
8.51632e-05
-5.69949e-05
8.68746e-05
-2.51821e-05
1.40558e-06
-1.00423e-07
2.43722e-10
-1.16957e-12
1.23562e-15
-2.9571e-18
4.41119e-21
-5.39097e-24
1.39559e-26
-9.17167e-30
5.2805e-32
-9.6562e-36
6.42235e-05
-0.000145785
0.000117786
-0.000187246
7.34272e-05
-0.000224469
2.9819e-05
-0.000253477
-0.00012707
7.70606e-05
-0.000107203
8.70271e-05
-8.84468e-05
9.35734e-05
-6.86658e-05
9.68341e-05
-3.11366e-05
2.18441e-06
-2.1205e-07
6.45201e-10
-3.94887e-12
3.85535e-15
-1.08811e-17
1.46925e-20
-1.99761e-23
4.23119e-26
-2.83311e-29
1.23144e-31
-2.46822e-35
8.1082e-05
-0.000143928
0.000158897
-0.000186896
0.000111798
-0.000225616
6.11368e-05
-0.000255787
1.89935e-05
-0.000272471
-0.000123307
9.31651e-05
-0.000103177
0.000101757
-8.2013e-05
0.000106921
-3.82858e-05
3.33198e-06
-4.32936e-07
1.68123e-09
-1.34141e-11
1.21503e-14
-4.08981e-17
5.33469e-20
-8.34624e-23
1.57243e-25
-1.10495e-28
3.92499e-31
-7.91698e-35
9.84267e-05
-0.000140652
0.000201612
-0.000186643
0.000152005
-0.000227103
9.40756e-05
-0.000258555
4.16873e-05
-0.000278481
-1.5908e-06
-0.00027088
-0.000119432
0.00010942
-9.7115e-05
0.000116859
-4.68238e-05
4.9613e-06
-8.47853e-07
4.22102e-09
-4.48276e-11
3.75851e-14
-1.49338e-16
1.97391e-19
-3.64404e-22
6.57506e-25
-5.10807e-28
1.59684e-30
-3.26588e-34
0.000116233
-0.000137238
0.000246154
-0.000185195
0.0001947
-0.000229339
0.000129517
-0.000262544
6.58564e-05
-0.000282724
1.08226e-05
-0.000290894
-4.33283e-05
-0.000227552
-0.000114044
0.000126349
-5.6932e-05
7.18055e-06
-1.58465e-06
1.01079e-08
-1.46552e-10
1.2958e-13
-4.88927e-16
7.16751e-19
-1.57256e-21
2.85512e-24
-2.57154e-27
7.56342e-30
-1.65512e-33
0.00013506
-0.000132871
0.000292608
-0.000183691
0.000240271
-0.000230765
0.000168006
-0.000267828
9.38239e-05
-0.000290511
2.60451e-05
-0.000297947
-3.80724e-05
-0.00029615
-5.68333e-05
-0.000170718
-6.88427e-05
1.00921e-05
-2.82104e-06
2.30449e-08
-4.6676e-10
5.83345e-13
-1.87946e-15
2.56151e-18
-6.21247e-21
1.22224e-23
-1.31126e-26
3.8099e-29
-9.47387e-33
1.40943e-05
-8.31485e-05
0.000342113
-0.000182377
0.000289117
-0.000232538
0.000209912
-0.00027267
0.000124923
-0.000298927
4.82162e-05
-0.000312682
-2.42367e-05
-0.000311782
-7.20684e-05
-0.000280915
-0.000265185
9.44663e-05
-4.76058e-06
5.02297e-08
-1.44553e-09
2.45787e-12
-8.59062e-15
1.1334e-17
-2.45669e-20
5.03542e-23
-6.32804e-26
1.91052e-28
-5.63093e-32
1.10648e-07
-7.34243e-06
4.95832e-05
-0.000125249
0.000342062
-0.000235322
0.000255724
-0.00027835
0.000159202
-0.000306949
7.20911e-05
-0.000322802
-7.80047e-07
-0.000336139
-6.3936e-05
-0.000319915
-0.000252792
-0.000293308
2.75611e-05
6.69052e-05
-4.38415e-09
9.90007e-12
-3.99112e-14
5.36603e-17
-1.10838e-19
2.22748e-22
-2.85185e-25
9.20053e-28
-3.24084e-31
3.92782e-11
-7.08503e-09
6.19686e-07
-1.94881e-05
7.58565e-05
-0.000178658
0.000306606
-0.000286205
0.000196786
-0.000315934
9.77891e-05
-0.000332647
1.98448e-05
-0.000343427
-4.07593e-05
-0.000359316
-0.000184433
-0.000388274
1.85483e-05
-0.000284295
0.00028331
-0.000216404
-1.73543e-13
2.48722e-16
-5.36991e-19
1.1177e-21
-1.34418e-24
4.3864e-27
-1.7224e-30
1.12205e-15
1.02768e-13
4.58908e-10
-9.11412e-08
1.9427e-06
-3.9258e-05
9.3353e-05
-0.000236363
0.00023837
-0.000327789
0.000124811
-0.000342956
3.86017e-05
-0.000351404
-1.97049e-05
-0.000364482
-0.000103105
-0.000440643
4.3856e-05
-0.000413581
0.000302105
-0.000303089
0.00131253
-7.65106e-05
-0.00145243
-2.39827e-18
5.77205e-21
-6.88503e-24
2.28448e-26
-8.8754e-30
2.88896e-20
4.90242e-18
1.58193e-14
-6.8442e-12
4.21808e-09
-5.36602e-07
4.10412e-06
-6.5409e-05
9.1591e-05
-0.000287936
0.000153535
-0.000356513
5.43308e-05
-0.000358685
-7.86124e-06
-0.000363248
-4.89437e-05
-0.000418643
6.45022e-05
-0.000461289
0.000324907
-0.000436383
0.00114692
-0.000137475
0.00123983
4.83156e-05
-0.00136465
-5.10525e-06
-0.00144733
-3.28443e-23
1.27053e-25
-4.8154e-29
6.92549e-25
1.11158e-22
4.87389e-19
-5.81364e-17
3.9587e-13
-9.00416e-11
2.02315e-08
-1.881e-06
5.66622e-06
-9.20174e-05
6.88711e-05
-0.000323864
6.75543e-05
-0.000369736
-6.72573e-06
-0.00035982
-2.99104e-05
-0.000382281
6.56994e-05
-0.00041984
0.000295999
-0.000432379
0.000909176
-0.000198639
0.00107128
3.10699e-05
0.00121998
0.000196863
-0.00136852
5.39007e-05
-0.00142366
-1.90134e-06
-0.00144543
-2.41285e-28
1.32414e-27
1.42245e-23
-1.01313e-21
1.09264e-17
8.75888e-16
4.96995e-12
-7.25314e-10
4.54581e-08
-4.09554e-06
4.84941e-06
-0.000111402
3.08662e-05
-0.00033923
-7.67879e-06
-0.00036846
-3.68646e-05
-0.000352866
3.80633e-05
-0.000354645
0.000231795
-0.000355636
0.000662071
-0.000185275
0.000835172
3.74692e-05
0.00102091
0.000230132
0.00128174
0.000357686
-0.00144257
0.000147918
-0.00146253
2.81536e-05
-0.00145371
-9.85693e-06
-0.00143557
-1.2815e-26
3.13658e-22
1.93548e-20
1.57011e-16
5.19483e-14
1.92935e-11
-2.60638e-09
3.77424e-08
-5.14212e-06
1.25713e-06
-0.000118905
-1.48319e-05
-0.000333904
-6.09834e-05
-0.000342781
-1.0807e-05
-0.000303996
0.000142092
-0.000264941
0.000441431
-0.000134994
0.000590827
5.90707e-05
0.000810541
0.000247838
0.00108708
0.000424794
0.00135865
0.00056076
-0.00156173
0.000252853
-0.0015475
7.51867e-05
-0.00150957
-9.26166e-06
-0.0014543
-3.57869e-05
-0.00139978
1.21955e-25
4.81179e-21
1.21093e-18
6.42488e-16
4.57082e-13
1.56576e-11
-2.06514e-09
-3.691e-09
-4.44093e-06
-2.03042e-06
-0.000107932
-5.60346e-05
-0.000303929
-7.17366e-05
-0.000280416
4.28884e-05
-0.000204792
0.000259598
-8.31073e-05
0.000377706
7.81274e-05
0.00061815
0.000251463
0.000875635
0.000459282
0.00111937
0.000664076
0.00149948
0.000776334
-0.00171506
0.00039217
-0.00170104
0.000132678
-0.00160499
1.61876e-07
-0.00151899
-5.85431e-05
-0.00143155
-5.62222e-05
-0.00134355
1.05315e-23
2.05231e-20
1.12119e-17
4.64154e-16
8.69009e-13
-1.79671e-12
-6.10716e-10
-1.22099e-08
-2.87909e-06
-3.47859e-06
-8.92601e-05
-7.43642e-05
-0.000242066
-6.28288e-05
-0.000173588
0.000109633
-5.48278e-05
0.000208327
8.62716e-05
0.000443466
0.000252812
0.000647464
0.000479637
0.000863383
0.000715265
0.00119193
0.000971629
0.00155374
0.000210329
-0.00166839
0.000207023
0.000235193
0.000238434
0.000524322
-0.00184721
0.00018789
-0.00175625
1.5127e-05
-0.00161995
-8.20443e-05
-0.00149549
-0.000115443
-0.00137233
-8.37882e-05
-0.00125977
1.05025e-22
1.33159e-20
1.98437e-17
-5.41453e-17
5.75888e-13
-2.72209e-12
3.10265e-10
-1.17354e-08
-1.37592e-06
-3.33506e-06
-6.21217e-05
-8.00076e-05
-0.000152304
-2.05921e-05
-4.29815e-05
6.83031e-05
8.51961e-05
0.000274045
0.000255692
0.00041577
0.000484507
0.00062848
0.000714542
0.000884643
0.00102255
0.00124549
0.00127988
-6.65936e-07
0.000319555
-0.000303341
0.000194781
0.000158971
-0.00173083
0.000156509
0.000137819
0.000133462
0.000323674
-0.000307133
0.000189816
1.57023e-07
0.000300395
0.000254195
0.000300515
0.00026175
0.000196852
-0.00185617
1.66731e-05
-0.0017578
-0.000109272
-0.00159273
-0.000175248
-0.00143569
-0.000169666
-0.00128645
-9.91899e-05
-0.00116058
1.81938e-22
-1.413e-21
9.66828e-18
-6.44484e-17
2.49886e-13
-1.75888e-12
3.7918e-10
-7.50749e-09
-3.55144e-07
-2.6498e-06
-3.04623e-05
-5.94209e-05
-5.30091e-05
-5.51742e-05
8.18586e-05
0.000107255
0.000251986
0.000201627
0.000469836
0.000425631
0.000687357
0.000587982
0.0010112
0.000933455
0.00133458
-0.000219848
-0.000217236
0.000938094
0.000315973
0.000324279
0.000367489
0.000372041
-1.48431e-06
-0.000280494
0.000137608
3.69992e-06
0.000197513
-0.000163302
0.000156869
-0.00160193
6.79532e-05
-0.00027951
0.000127402
-1.06642e-06
-0.00022465
8.30414e-05
-0.000223658
7.65425e-05
0.000187212
-0.000143964
0.000150268
3.12091e-06
0.00022874
0.000234846
-1.75548e-05
-0.00182195
-0.000148109
-0.00171897
-0.00023909
-0.00152889
-0.000268538
-0.00133682
-0.000206197
-0.00117945
-0.000116689
-0.00104389
7.36839e-23
-1.39034e-21
3.34696e-18
-3.49373e-17
9.31997e-14
-8.12989e-13
2.15367e-10
-3.78229e-09
1.46976e-07
-1.58718e-06
-1.58429e-06
-6.74226e-05
4.10333e-05
-4.94802e-05
0.000240141
2.8864e-05
0.000424749
0.000238842
0.000656626
0.00034858
0.00092676
0.000621101
0.00132356
0.000754692
0.000366662
0.000368952
0.00039163
0.000390741
1.97141e-06
0.000134364
-7.94148e-05
0.000259053
0.000129499
-7.05119e-05
0.000267264
7.94015e-07
0.000132849
0.00036821
0.000129909
0.000372424
1.14604e-06
-0.000102916
7.60763e-05
8.02527e-06
-1.71076e-05
9.87096e-05
5.0476e-05
-2.01181e-05
5.00257e-05
-1.31421e-05
-0.00145363
-0.000165859
4.20535e-05
1.60769e-05
-0.000168336
-8.13005e-05
-7.82261e-05
-5.5595e-05
-5.50284e-05
-7.05345e-05
5.51179e-05
-2.12387e-06
2.43026e-05
1.99607e-05
-3.36709e-05
0.000125461
4.93747e-05
-1.87746e-05
4.8512e-05
-1.26092e-05
5.77007e-06
6.05934e-05
8.26193e-06
5.97626e-05
-2.17054e-06
6.19973e-05
1.28736e-05
6.02258e-05
1.33711e-06
-0.000234611
-0.00173545
-0.000334661
-0.0016234
-0.000378609
-0.00141882
-0.000324115
-0.0012189
-0.000234905
-0.00106123
-0.000127448
-0.000916442
2.35981e-23
-6.52783e-22
9.80895e-19
-1.3779e-17
2.85942e-14
-2.96313e-13
1.02929e-10
-1.40623e-09
2.69091e-07
-1.19432e-06
1.82824e-05
-6.11287e-05
0.000151013
-0.00010431
0.000378452
4.1388e-05
0.000622202
0.000165452
0.000839754
0.000277455
0.00127041
0.00054679
0.000374295
0.000372406
0.000393315
0.000391446
5.38935e-07
0.00012218
0.000376791
0.0001209
0.000378501
1.55548e-07
0.000107596
0.000406058
0.000105784
0.000406012
1.25956e-06
-2.60743e-05
4.05895e-06
3.10549e-05
-4.78842e-06
2.51481e-05
6.80084e-05
2.3254e-05
7.986e-05
5.73053e-05
-2.44034e-05
3.69622e-06
3.16151e-05
2.2913e-05
-1.8026e-07
6.92167e-05
2.76302e-05
8.11276e-05
5.69085e-05
7.06759e-07
2.06723e-05
5.4255e-05
0.000107294
5.15985e-05
0.000107663
2.37656e-05
5.57865e-05
0.000107899
5.29768e-05
0.0001083
4.09499e-06
0.00019055
2.91069e-05
-4.12242e-05
3.06136e-05
-3.8355e-05
3.59988e-05
7.93665e-06
1.28993e-06
-3.13948e-05
3.66454e-05
-7.97455e-06
-6.55156e-05
7.78817e-05
-2.45096e-05
1.16355e-06
4.56567e-05
3.12298e-05
-5.16701e-05
-1.9051e-05
-0.00131315
-0.000375094
2.48462e-05
-8.79589e-05
-8.14587e-05
-9.91543e-05
-9.04704e-05
2.81104e-07
-0.000263442
0.000309564
-0.000127703
-0.000267622
0.000310383
-0.000120705
2.69335e-07
-0.000234815
-8.44908e-05
-0.000246306
-7.60747e-05
0.000209173
2.60445e-05
-3.92061e-05
2.7209e-05
-3.85454e-05
-1.40074e-07
2.45054e-05
-3.65287e-05
3.16894e-05
-3.94882e-05
2.36971e-05
-3.3105e-05
3.09411e-05
-3.88456e-05
4.22146e-05
8.222e-06
-3.68059e-05
3.70339e-05
-8.27714e-06
-6.65731e-05
7.95727e-05
-2.3497e-05
5.27329e-05
3.08801e-05
-5.27652e-05
-1.8195e-05
-2.74688e-05
9.18449e-06
1.28713e-06
4.61958e-05
-1.02437e-05
2.78361e-05
-5.27144e-06
9.99004e-07
5.21085e-05
-1.682e-05
-2.99738e-05
9.50339e-06
4.6949e-05
-1.00781e-05
2.77065e-05
-1.05855e-06
5.27879e-05
-1.42182e-05
-0.000463907
-0.0016062
-0.000490727
-0.00151128
-0.000462927
-0.00128001
-0.000359206
-0.0010946
-0.00025866
-0.000930015
-0.00013971
-0.000776731
6.61876e-24
-2.28454e-22
2.58809e-19
-4.22362e-18
7.07134e-15
-7.97644e-14
5.43597e-11
-6.14377e-10
2.58117e-07
-8.1904e-07
3.36363e-05
-5.35119e-05
0.000226902
-0.000127707
0.000558354
-2.01209e-05
0.000807787
-1.9986e-05
0.00113719
0.000315891
0.000373589
0.000373244
0.000378664
0.000375808
4.24598e-07
8.21518e-05
0.000399314
8.02564e-05
0.000398359
3.93543e-07
7.31537e-05
0.00040192
7.22969e-05
0.000399799
1.57836e-06
5.4831e-05
5.37437e-05
0.000112134
6.03186e-05
0.000114897
5.87371e-05
5.49579e-05
0.000111814
6.35795e-05
0.000114767
1.95883e-06
5.67178e-05
7.21694e-05
0.000130039
7.30844e-05
0.000126913
5.80645e-05
7.49884e-05
0.000129923
7.64441e-05
0.000127265
-5.39498e-06
-6.08981e-05
7.63864e-05
-1.48817e-05
-7.31762e-06
5.44389e-05
-2.72446e-05
-3.68243e-05
2.09626e-08
5.94123e-05
3.99674e-05
-4.39722e-06
-4.73853e-05
1.41385e-05
-2.25732e-08
-3.80743e-05
7.6717e-05
6.77799e-07
6.26266e-05
3.88118e-05
-7.10047e-06
5.27281e-05
-2.37732e-05
-4.96047e-06
-5.79077e-05
7.49968e-05
-1.23089e-05
-3.66931e-05
4.04718e-05
6.04986e-05
-4.38057e-06
-4.47256e-05
1.88287e-05
-3.77779e-05
7.78093e-05
6.31054e-05
4.01683e-05
-1.90812e-06
3.40888e-05
-2.56155e-05
4.76898e-05
3.19281e-05
-2.41196e-07
-2.66281e-05
0.000100328
-3.40999e-06
4.1712e-05
-1.73341e-07
9.8244e-05
-1.62079e-06
3.26458e-05
-2.46002e-05
4.93617e-05
3.13851e-05
-2.58219e-05
0.000100474
-3.03139e-06
4.39284e-05
9.87025e-05
-4.60553e-05
1.15673e-05
9.37097e-07
5.01094e-05
1.25484e-05
-8.8007e-06
7.85417e-05
-3.30834e-05
1.28044e-06
2.01339e-05
8.59354e-05
-3.41814e-05
6.78068e-05
1.23882e-05
1.13773e-06
-6.70666e-05
2.23793e-05
-1.43416e-05
-7.63785e-05
8.20924e-05
-1.58819e-05
1.29934e-06
6.96433e-05
1.37726e-05
-6.76637e-05
-1.53776e-05
-0.00119585
-0.000581208
0.000117141
-0.000125062
-0.000122532
-0.000112733
-0.000107064
2.38524e-06
-0.00034085
0.000359778
-0.000109271
-0.00034509
0.00036706
-0.000101043
1.43843e-06
-0.000131879
-0.000123739
2.54491e-06
-0.000370793
0.000413294
-6.51249e-05
-2.3813e-05
-6.09536e-05
-2.28176e-05
-0.000372535
0.000419555
-6.25343e-05
-2.32854e-05
-5.81513e-05
-2.12083e-05
2.11293e-06
-0.00011597
-4.36174e-05
-2.74747e-05
-0.000123979
-1.26015e-05
-4.78098e-05
-1.62542e-05
-6.96735e-05
-0.000116475
-4.64451e-05
-2.38547e-05
-0.00012321
-9.15813e-06
-4.4313e-05
-1.32375e-05
-6.98025e-05
-5.27037e-05
1.20908e-05
5.54806e-05
1.21141e-05
-9.11521e-06
7.99515e-05
-3.04697e-05
1.94034e-05
8.61149e-05
-3.2618e-05
4.75588e-05
1.81072e-05
3.81753e-07
8.56715e-06
-2.50063e-05
-9.57228e-05
-3.17697e-05
-2.43923e-08
1.06671e-05
-3.11683e-05
5.21311e-05
1.83026e-05
9.12578e-06
-2.49101e-05
-9.57918e-05
-2.8878e-05
1.16927e-05
-3.02197e-05
7.131e-05
1.24792e-05
-6.92029e-05
2.35853e-05
-1.42682e-05
-7.72826e-05
8.26696e-05
-1.46158e-05
7.37456e-05
1.54757e-05
-6.78091e-05
-1.51893e-05
9.42827e-06
9.23343e-07
3.13817e-05
-2.06165e-05
9.65222e-06
3.21226e-05
-1.96469e-05
-0.000589437
-0.00150749
-0.000622115
-0.00135209
-0.000499428
-0.00113979
-0.000396733
-0.000956523
-0.000282548
-0.000787177
-0.000146572
-0.000630158
1.49544e-24
-5.8922e-23
5.62496e-20
-1.00578e-18
2.25188e-15
-2.39702e-14
2.22409e-11
-2.28823e-10
1.52434e-07
-4.28477e-07
3.3046e-05
-4.01469e-05
0.000283629
-0.000168777
0.000727753
-0.000202737
0.000991098
1.96473e-05
0.000345913
0.000344457
0.000371126
0.000371943
3.61026e-07
5.09108e-05
0.00039547
5.18922e-05
0.00039401
-9.55843e-08
3.02859e-05
0.000399385
3.13332e-05
0.000396271
1.66839e-06
4.66896e-05
7.30918e-05
0.000128829
7.93055e-05
0.000126407
4.57524e-05
7.56489e-05
0.000128776
8.16747e-05
0.000126248
1.31898e-06
3.04597e-05
8.92961e-05
0.000123395
8.36219e-05
0.00012055
2.81668e-05
9.07755e-05
0.000122751
8.52208e-05
0.000119986
-1.26223e-06
-2.15676e-05
5.0958e-05
-2.20839e-05
-1.74355e-07
0.000106484
-9.49865e-07
-1.56368e-05
5.53319e-05
-1.47359e-07
-1.67421e-05
0.000108713
-1.02763e-06
-2.0877e-05
5.22624e-05
-2.13932e-05
0.000106183
-7.37317e-07
-1.51127e-05
5.85526e-05
-1.62498e-05
0.000108751
2.8639e-07
7.46909e-06
-4.755e-06
6.91738e-05
1.15057e-05
-1.46769e-07
-6.09731e-06
0.00012504
-6.42306e-07
6.55648e-05
-1.21212e-07
0.000121177
3.01449e-07
6.62958e-06
-3.83366e-06
7.1891e-05
1.1113e-05
-5.83648e-06
0.000124791
-4.93909e-07
6.84549e-05
0.000121502
-6.7339e-06
5.61571e-05
-2.16549e-06
-3.18085e-05
-2.60061e-05
4.05478e-08
4.14182e-07
3.87499e-05
-2.99621e-06
-3.74573e-05
5.47484e-08
-2.21014e-05
-6.61795e-06
5.68684e-05
-2.14922e-06
-3.19138e-05
3.96049e-05
-2.61175e-05
-2.90088e-06
-3.59266e-05
-2.19127e-05
-2.16744e-06
3.20702e-05
-2.7219e-05
1.93615e-05
-8.34452e-08
-1.58817e-05
-2.90638e-06
-5.72808e-08
-1.98095e-06
3.09852e-05
-2.63606e-05
1.90815e-05
-1.54764e-05
-2.64268e-06
-7.379e-05
1.96596e-05
1.45207e-06
7.95267e-05
-1.43155e-05
-1.64928e-05
8.60918e-05
-2.059e-05
1.5116e-06
-2.03518e-06
9.31923e-05
-2.16222e-05
3.48397e-05
7.95321e-06
6.49441e-07
-3.60292e-05
-7.85898e-06
-4.77499e-05
4.93412e-05
8.45523e-07
3.92792e-05
-4.77668e-05
-0.00113425
-0.000651042
9.05794e-05
-0.000142617
-0.000143629
-0.000136195
-0.000132205
2.86488e-06
-0.000356471
0.000352614
-0.000124071
-0.000366922
0.000363026
-0.000115771
3.03772e-06
-0.000112464
-0.000103889
5.23111e-07
-0.000438632
0.00043949
-5.5602e-05
7.59152e-06
-5.60705e-05
-6.54219e-06
-0.000449881
0.000451398
-5.15183e-05
8.02305e-06
-5.22869e-05
-6.27627e-06
7.09929e-07
-6.388e-05
-2.11451e-05
-5.82946e-05
-1.45679e-05
-6.20815e-05
-2.10606e-05
-5.57522e-05
-1.44489e-05
-2.66672e-05
-0.000115519
0.000118731
-4.16693e-05
-0.000103962
-3.48741e-08
0.00010724
-5.37807e-05
-2.52675e-05
-0.000111189
-4.0016e-05
2.09646e-07
-0.000100348
-5.19094e-05
-2.65821e-05
-0.000116886
0.000121508
-4.05734e-05
-0.000108379
0.000113441
-5.49644e-05
-2.52367e-05
-0.000111262
-3.8539e-05
-0.000103131
-5.14824e-05
-2.23758e-05
0.000107277
-0.000109272
-3.10392e-06
-3.45793e-05
-0.000106705
-1.44641e-05
9.84016e-05
7.88786e-07
-3.14494e-05
-0.00010276
-2.41028e-05
-2.76191e-05
4.56862e-07
-4.27597e-05
8.51618e-07
-8.16423e-05
-1.27741e-05
-2.20232e-05
0.000106113
-0.000107194
-7.50717e-07
-3.45692e-05
-0.000105718
-1.18017e-05
9.98429e-05
-2.6728e-05
-0.000103507
-2.41596e-05
-2.53021e-05