/*--------------------------------*- C++ -*----------------------------------*\
| =========                 |                                                 |
| \\      /  F ield         | OpenFOAM: The Open Source CFD Toolbox           |
|  \\    /   O peration     | Version:  5.x                                   |
|   \\  /    A nd           | Web:      www.OpenFOAM.org                      |
|    \\/     M anipulation  |                                                 |
\*---------------------------------------------------------------------------*/
FoamFile
{
    version     2.0;
    format      ascii;
    class       volScalarField;
    location    "0.8";
    object      k;
}
// * * * * * * * * * * * * * * * * * * * * * * * * * * * * * * * * * * * * * //

dimensions      [0 2 -2 0 0 0 0];

internalField   nonuniform List<scalar> 
12160
(
9.96758e-09
9.95381e-09
1.00214e-08
9.94954e-09
1.0036e-08
1.00066e-08
9.94852e-09
1.00455e-08
1.0011e-08
1.00054e-08
9.94833e-09
1.00411e-08
1.00135e-08
1.00081e-08
1.00053e-08
9.94831e-09
1.00354e-08
1.00127e-08
1.00092e-08
1.00077e-08
1.00058e-08
9.9483e-09
1.00291e-08
1.00116e-08
1.00089e-08
1.00085e-08
1.00083e-08
1.00061e-08
9.9483e-09
1.00242e-08
1.00104e-08
1.00085e-08
1.00083e-08
1.00088e-08
1.0009e-08
1.0007e-08
9.9483e-09
1.002e-08
1.00095e-08
1.00081e-08
1.00081e-08
1.00085e-08
1.00092e-08
1.00097e-08
1.00239e-08
9.9483e-09
1.00168e-08
1.00087e-08
1.00077e-08
1.00077e-08
1.00082e-08
1.00088e-08
1.00096e-08
1.0019e-08
1.00254e-08
9.9483e-09
1.00143e-08
1.00081e-08
1.00074e-08
1.00075e-08
1.00079e-08
1.00083e-08
1.00093e-08
1.00157e-08
1.00233e-08
1.00234e-08
9.9483e-09
1.00123e-08
1.00076e-08
1.00072e-08
1.00073e-08
1.00076e-08
1.00079e-08
1.00089e-08
1.00157e-08
1.00198e-08
1.0022e-08
1.0015e-08
9.9483e-09
1.00109e-08
1.00073e-08
1.0007e-08
1.00071e-08
1.00074e-08
1.00076e-08
1.00086e-08
1.0015e-08
1.00172e-08
1.00233e-08
1.00131e-08
1.00118e-08
9.9483e-09
1.00098e-08
1.00071e-08
1.00069e-08
1.00069e-08
1.00072e-08
1.00073e-08
1.00085e-08
1.00138e-08
1.00143e-08
1.00259e-08
1.00126e-08
1.00107e-08
1.00101e-08
9.9483e-09
1.0009e-08
1.00069e-08
1.00068e-08
1.00068e-08
1.0007e-08
1.00071e-08
1.00084e-08
1.00125e-08
1.00127e-08
1.00243e-08
1.00174e-08
1.00097e-08
1.00089e-08
1.00072e-08
9.9483e-09
1.00083e-08
1.00068e-08
1.00067e-08
1.00068e-08
1.00069e-08
1.0007e-08
1.00084e-08
1.00113e-08
1.00118e-08
1.00219e-08
1.00184e-08
1.00096e-08
1.00088e-08
1.00055e-08
9.9483e-09
1.00079e-08
1.00067e-08
1.00067e-08
1.00067e-08
1.00068e-08
1.00069e-08
1.00085e-08
1.00103e-08
1.0011e-08
1.00189e-08
1.00178e-08
1.00095e-08
1.00087e-08
1.0006e-08
9.9483e-09
1.00074e-08
1.00066e-08
1.00066e-08
1.00066e-08
1.00067e-08
1.00068e-08
1.00086e-08
1.00095e-08
1.00103e-08
1.0016e-08
1.0015e-08
1.00097e-08
1.00085e-08
1.00063e-08
9.9483e-09
1.00069e-08
1.00064e-08
1.00066e-08
1.00066e-08
1.00067e-08
1.00067e-08
1.00086e-08
1.00088e-08
1.00098e-08
1.00131e-08
1.00122e-08
1.00095e-08
1.00083e-08
1.00071e-08
9.9483e-09
1.00064e-08
1.00061e-08
1.00064e-08
1.00066e-08
1.00066e-08
1.00066e-08
1.00087e-08
1.00082e-08
1.00095e-08
1.0011e-08
1.00101e-08
1.00088e-08
1.0008e-08
1.00075e-08
9.9483e-09
1.00059e-08
1.00058e-08
1.00061e-08
1.00064e-08
1.00066e-08
1.00066e-08
1.00087e-08
1.00078e-08
1.00093e-08
1.00096e-08
1.00087e-08
1.0008e-08
1.00077e-08
1.00074e-08
9.9483e-09
1.00056e-08
1.00054e-08
1.00058e-08
1.0006e-08
1.00064e-08
1.00066e-08
1.00086e-08
1.00075e-08
1.00091e-08
1.00087e-08
1.00079e-08
1.00075e-08
1.00074e-08
1.00073e-08
9.9483e-09
1.00053e-08
1.00052e-08
1.00055e-08
1.00057e-08
1.00061e-08
1.00065e-08
1.00086e-08
1.00073e-08
1.00089e-08
1.00081e-08
1.00074e-08
1.00072e-08
1.00072e-08
1.00071e-08
9.9483e-09
1.0005e-08
1.00049e-08
1.00052e-08
1.00054e-08
1.00058e-08
1.00061e-08
1.00084e-08
1.00071e-08
1.00088e-08
1.00077e-08
1.00071e-08
1.0007e-08
1.0007e-08
1.0007e-08
9.9483e-09
1.00049e-08
1.00047e-08
1.00049e-08
1.00051e-08
1.00055e-08
1.00058e-08
1.00083e-08
1.0007e-08
1.00086e-08
1.00073e-08
1.00069e-08
1.00069e-08
1.00069e-08
1.00069e-08
9.9483e-09
1.00048e-08
1.00045e-08
1.00046e-08
1.00048e-08
1.00052e-08
1.00055e-08
1.00081e-08
1.00069e-08
1.00083e-08
1.0007e-08
1.00067e-08
1.00067e-08
1.00068e-08
1.00068e-08
9.9483e-09
1.00048e-08
1.00045e-08
1.00045e-08
1.00045e-08
1.00049e-08
1.00051e-08
1.00079e-08
1.00069e-08
1.00082e-08
1.00068e-08
1.00066e-08
1.00066e-08
1.00067e-08
1.00068e-08
9.9483e-09
1.0005e-08
1.00045e-08
1.00044e-08
1.00042e-08
1.00046e-08
1.00046e-08
1.00076e-08
1.00069e-08
1.00081e-08
1.00067e-08
1.00065e-08
1.00065e-08
1.00066e-08
1.00067e-08
9.9483e-09
1.00052e-08
1.00046e-08
1.00045e-08
1.00041e-08
1.00044e-08
1.00041e-08
1.00073e-08
1.0007e-08
1.0008e-08
1.00067e-08
1.00065e-08
1.00065e-08
1.00065e-08
1.00066e-08
9.9483e-09
1.00054e-08
1.00048e-08
1.00046e-08
1.00042e-08
1.00043e-08
1.00032e-08
1.00069e-08
1.00071e-08
1.00078e-08
1.00068e-08
1.00066e-08
1.00065e-08
1.00065e-08
1.00065e-08
9.9483e-09
1.00057e-08
1.0005e-08
1.00048e-08
1.00044e-08
1.00043e-08
1.00028e-08
1.00066e-08
1.00072e-08
1.00076e-08
1.00068e-08
1.00066e-08
1.00066e-08
1.00065e-08
1.00065e-08
9.9483e-09
1.00061e-08
1.00052e-08
1.0005e-08
1.00047e-08
1.00045e-08
1.00035e-08
1.00063e-08
1.00072e-08
1.00072e-08
1.00066e-08
1.00066e-08
1.00066e-08
1.00066e-08
1.00065e-08
9.9483e-09
1.00064e-08
1.00055e-08
1.00052e-08
1.00049e-08
1.00048e-08
1.00041e-08
1.00062e-08
1.0007e-08
1.00068e-08
1.00063e-08
1.00065e-08
1.00066e-08
1.00066e-08
1.00065e-08
9.9483e-09
1.00067e-08
1.00057e-08
1.00054e-08
1.00052e-08
1.0005e-08
1.00046e-08
1.00062e-08
1.00068e-08
1.00064e-08
1.0006e-08
1.00063e-08
1.00064e-08
1.00065e-08
1.00059e-08
9.9483e-09
1.00071e-08
1.00058e-08
1.00056e-08
1.00054e-08
1.00052e-08
1.00049e-08
1.00066e-08
1.00067e-08
1.00064e-08
1.00057e-08
1.00061e-08
1.00062e-08
1.00063e-08
1.00048e-08
9.9483e-09
1.00075e-08
1.0006e-08
1.00058e-08
1.00056e-08
1.00055e-08
1.00052e-08
1.00069e-08
1.00066e-08
1.00065e-08
1.00055e-08
1.00059e-08
1.00057e-08
1.0006e-08
1.00051e-08
9.94831e-09
1.0008e-08
1.00062e-08
1.0006e-08
1.00058e-08
1.00057e-08
1.00054e-08
1.00072e-08
1.00067e-08
1.00068e-08
1.00055e-08
1.00058e-08
1.00052e-08
1.00054e-08
1.0005e-08
9.9483e-09
1.00085e-08
1.00063e-08
1.00061e-08
1.0006e-08
1.00058e-08
1.00057e-08
1.00074e-08
1.00068e-08
1.00072e-08
1.00058e-08
1.00058e-08
1.00049e-08
1.00046e-08
1.00044e-08
9.9483e-09
1.0009e-08
1.00065e-08
1.00063e-08
1.00061e-08
1.0006e-08
1.00059e-08
1.00076e-08
1.00069e-08
1.00076e-08
1.00061e-08
1.00059e-08
1.00052e-08
1.00045e-08
1.00035e-08
9.9483e-09
1.00097e-08
1.00066e-08
1.00064e-08
1.00062e-08
1.00062e-08
1.0006e-08
1.00078e-08
1.00069e-08
1.00078e-08
1.00064e-08
1.00061e-08
1.00056e-08
1.00048e-08
1.00033e-08
1.00106e-08
9.9483e-09
1.00068e-08
1.00065e-08
1.00064e-08
1.00063e-08
1.00062e-08
1.00079e-08
1.00069e-08
1.0008e-08
1.00067e-08
1.00063e-08
1.0006e-08
1.00053e-08
1.00034e-08
1.00069e-08
1.0012e-08
9.9483e-09
1.00066e-08
1.00064e-08
1.00064e-08
1.00063e-08
1.00079e-08
1.00069e-08
1.0008e-08
1.00068e-08
1.00065e-08
1.00061e-08
1.00058e-08
1.00036e-08
1.00067e-08
1.00072e-08
1.00148e-08
9.9483e-09
1.00065e-08
1.00065e-08
1.00064e-08
1.0008e-08
1.00068e-08
1.00079e-08
1.00068e-08
1.00066e-08
1.00064e-08
1.00061e-08
1.00044e-08
1.00066e-08
1.00068e-08
1.00078e-08
1.00188e-08
9.94831e-09
1.00066e-08
1.00065e-08
1.0008e-08
1.00068e-08
1.00076e-08
1.00066e-08
1.00065e-08
1.00065e-08
1.00063e-08
1.00057e-08
1.00067e-08
1.00068e-08
1.0007e-08
1.00087e-08
1.00245e-08
9.9485e-09
1.00066e-08
1.0008e-08
1.00069e-08
1.00074e-08
1.00064e-08
1.00063e-08
1.00064e-08
1.00063e-08
1.00061e-08
1.00067e-08
1.00068e-08
1.00069e-08
1.00074e-08
1.001e-08
1.00338e-08
9.95084e-09
1.0008e-08
1.00072e-08
1.00075e-08
1.00062e-08
1.0006e-08
1.00061e-08
1.00063e-08
1.00062e-08
1.0008e-08
1.00068e-08
1.0007e-08
1.00072e-08
1.00078e-08
1.00124e-08
1.00513e-08
9.95796e-09
1.00075e-08
1.0008e-08
1.00064e-08
1.00058e-08
1.00059e-08
1.00061e-08
1.00061e-08
1.00079e-08
1.0008e-08
1.0007e-08
1.00073e-08
1.00075e-08
1.00087e-08
1.00186e-08
1.00888e-08
9.98908e-09
1.00085e-08
1.00071e-08
1.0006e-08
1.00059e-08
1.0006e-08
1.00061e-08
1.00089e-08
1.00084e-08
1.00079e-08
1.00072e-08
1.00075e-08
1.0008e-08
1.00112e-08
1.00368e-08
1.01429e-08
9.96576e-09
1.0008e-08
1.00065e-08
1.00061e-08
1.00061e-08
1.00061e-08
1.00087e-08
1.0009e-08
1.0009e-08
1.00079e-08
1.00075e-08
1.00079e-08
1.00091e-08
1.00194e-08
1.00768e-08
1.01935e-08
9.99396e-09
1.00072e-08
1.00065e-08
1.00063e-08
1.00062e-08
1.00078e-08
1.00094e-08
1.00093e-08
1.00095e-08
1.00079e-08
1.00078e-08
1.00085e-08
1.00124e-08
1.00414e-08
1.01274e-08
1.01375e-08
1.00114e-08
1.00071e-08
1.00067e-08
1.00064e-08
1.00074e-08
1.0008e-08
1.00107e-08
1.00095e-08
1.00099e-08
1.00078e-08
1.00081e-08
1.00098e-08
1.00225e-08
1.0078e-08
1.01321e-08
1.00474e-08
1.00114e-08
9.9681e-09
1.00071e-08
1.00067e-08
1.00072e-08
1.00074e-08
1.00089e-08
1.0012e-08
1.00096e-08
1.001e-08
1.00078e-08
1.00087e-08
1.00135e-08
1.00438e-08
1.01029e-08
1.00696e-08
1.00123e-08
1.00113e-08
1.00114e-08
9.96818e-09
1.00069e-08
1.0007e-08
1.00072e-08
1.00078e-08
1.001e-08
1.00129e-08
1.00097e-08
1.00098e-08
1.00079e-08
1.00099e-08
1.00231e-08
1.00686e-08
1.00781e-08
1.00153e-08
1.00113e-08
1.00136e-08
1.00121e-08
1.0012e-08
9.96904e-09
1.0007e-08
1.00073e-08
1.00081e-08
1.00112e-08
1.00134e-08
1.00098e-08
1.00094e-08
1.00082e-08
1.00133e-08
1.00383e-08
1.00698e-08
1.00188e-08
1.00122e-08
1.00128e-08
1.00185e-08
1.0015e-08
1.00131e-08
1.00128e-08
9.97044e-09
1.00071e-08
1.00074e-08
1.00085e-08
1.00125e-08
1.00138e-08
1.001e-08
1.00091e-08
1.00093e-08
1.00197e-08
1.00481e-08
1.00203e-08
1.00138e-08
1.00129e-08
1.00164e-08
1.00263e-08
1.00212e-08
1.00168e-08
1.00144e-08
1.00138e-08
9.97178e-09
1.00071e-08
1.00075e-08
1.00087e-08
1.00137e-08
1.00143e-08
1.00106e-08
1.00092e-08
1.00116e-08
1.00265e-08
1.00184e-08
1.00151e-08
1.00141e-08
1.00153e-08
1.00219e-08
1.00415e-08
1.00317e-08
1.00242e-08
1.00188e-08
1.00158e-08
1.00148e-08
9.97315e-09
1.00071e-08
1.00076e-08
1.00088e-08
1.00144e-08
1.00145e-08
1.00113e-08
1.00098e-08
1.00143e-08
1.0015e-08
1.00153e-08
1.00156e-08
1.00153e-08
1.00189e-08
1.00327e-08
1.00576e-08
1.0052e-08
1.00582e-08
1.00514e-08
1.00517e-08
1.00379e-08
1.00276e-08
1.00211e-08
1.00173e-08
1.00159e-08
9.97423e-09
1.00073e-08
1.0008e-08
1.0009e-08
1.0014e-08
1.00144e-08
1.00121e-08
1.00107e-08
1.00121e-08
1.00145e-08
1.0016e-08
1.00158e-08
1.00175e-08
1.0026e-08
1.00438e-08
1.00673e-08
1.00687e-08
1.00629e-08
1.00678e-08
1.00756e-08
1.0076e-08
1.00727e-08
1.00609e-08
1.00626e-08
1.00444e-08
1.00315e-08
1.00235e-08
1.00188e-08
1.00172e-08
9.97535e-09
1.00075e-08
1.00084e-08
1.00091e-08
1.00128e-08
1.0014e-08
1.00129e-08
1.0011e-08
1.00127e-08
1.00151e-08
1.00159e-08
1.00171e-08
1.00216e-08
1.00341e-08
1.00507e-08
1.005e-08
1.00471e-08
1.00469e-08
1.00759e-08
1.00806e-08
1.00728e-08
1.00911e-08
1.00815e-08
1.00809e-08
1.00854e-08
1.00824e-08
1.00699e-08
1.00704e-08
1.00507e-08
1.00354e-08
1.00255e-08
1.002e-08
1.00193e-08
9.97656e-09
1.00072e-08
1.00085e-08
1.00091e-08
1.00113e-08
1.00136e-08
1.00134e-08
1.00118e-08
1.00131e-08
1.00155e-08
1.00168e-08
1.00194e-08
1.00269e-08
1.00392e-08
1.0039e-08
1.00368e-08
1.00368e-08
1.00588e-08
1.00577e-08
1.00512e-08
1.00507e-08
1.00913e-08
1.00796e-08
1.00873e-08
1.00826e-08
1.00835e-08
1.00794e-08
1.00991e-08
1.0114e-08
1.01134e-08
1.01076e-08
1.01073e-08
1.00926e-08
1.00998e-08
1.01003e-08
1.00796e-08
1.0086e-08
1.00831e-08
1.00822e-08
1.00721e-08
1.00733e-08
1.00684e-08
1.00789e-08
1.00718e-08
1.00722e-08
1.0068e-08
1.00778e-08
1.00555e-08
1.00384e-08
1.00266e-08
1.00216e-08
1.0023e-08
9.97831e-09
1.00065e-08
1.00083e-08
1.00089e-08
1.00103e-08
1.00134e-08
1.00144e-08
1.00127e-08
1.0014e-08
1.00161e-08
1.00181e-08
1.00223e-08
1.00308e-08
1.00307e-08
1.00291e-08
1.00291e-08
1.00436e-08
1.00433e-08
1.00406e-08
1.00405e-08
1.00683e-08
1.0072e-08
1.00617e-08
1.00625e-08
1.00589e-08
1.00653e-08
1.00711e-08
1.00671e-08
1.00606e-08
1.00612e-08
1.0058e-08
1.00645e-08
1.00541e-08
1.00515e-08
1.00562e-08
1.00527e-08
1.00534e-08
1.00511e-08
1.00553e-08
1.00522e-08
1.00924e-08
1.0091e-08
1.00886e-08
1.00948e-08
1.00751e-08
1.00868e-08
1.00792e-08
1.00827e-08
1.00828e-08
1.01107e-08
1.0123e-08
1.01227e-08
1.0119e-08
1.01185e-08
1.01148e-08
1.01135e-08
1.01082e-08
1.01064e-08
1.00921e-08
1.00896e-08
1.00884e-08
1.00933e-08
1.00976e-08
1.01013e-08
1.01013e-08
1.00984e-08
1.00969e-08
1.00998e-08
1.01007e-08
1.00968e-08
1.00743e-08
1.00853e-08
1.00784e-08
1.00814e-08
1.00701e-08
1.0078e-08
1.00693e-08
1.00769e-08
1.00585e-08
1.00399e-08
1.0027e-08
1.00245e-08
1.003e-08
9.98085e-09
1.00057e-08
1.00079e-08
1.00088e-08
1.00097e-08
1.00136e-08
1.00155e-08
1.00142e-08
1.00147e-08
1.00168e-08
1.00198e-08
1.00249e-08
1.00249e-08
1.0024e-08
1.0024e-08
1.00348e-08
1.00347e-08
1.00323e-08
1.00323e-08
1.00489e-08
1.00455e-08
1.00474e-08
1.00451e-08
1.00483e-08
1.00452e-08
1.00469e-08
1.00448e-08
1.00432e-08
1.00418e-08
1.0044e-08
1.00421e-08
1.0043e-08
1.00417e-08
1.00437e-08
1.0042e-08
1.00728e-08
1.0066e-08
1.00615e-08
1.00667e-08
1.00632e-08
1.00587e-08
1.00716e-08
1.00648e-08
1.00655e-08
1.00605e-08
1.0062e-08
1.00579e-08
1.00559e-08
1.00518e-08
1.00589e-08
1.00536e-08
1.00551e-08
1.00514e-08
1.00578e-08
1.0053e-08
1.00898e-08
1.00909e-08
1.00839e-08
1.00952e-08
1.00766e-08
1.0089e-08
1.00837e-08
1.00834e-08
1.00825e-08
1.01143e-08
1.01294e-08
1.01297e-08
1.01264e-08
1.01264e-08
1.01235e-08
1.01232e-08
1.01197e-08
1.0119e-08
1.01201e-08
1.01215e-08
1.01177e-08
1.01198e-08
1.012e-08
1.01223e-08
1.01172e-08
1.01198e-08
1.01115e-08
1.01018e-08
1.01144e-08
1.01148e-08
1.01174e-08
1.00997e-08
1.01103e-08
1.00996e-08
1.01129e-08
1.01138e-08
1.01166e-08
1.00972e-08
1.00876e-08
1.00892e-08
1.00824e-08
1.00933e-08
1.00955e-08
1.0099e-08
1.0093e-08
1.0097e-08
1.00748e-08
1.00869e-08
1.00806e-08
1.00816e-08
1.00713e-08
1.00778e-08
1.007e-08
1.00763e-08
1.00609e-08
1.00393e-08
1.00281e-08
1.00302e-08
1.00426e-08
9.9846e-09
1.00049e-08
1.00074e-08
1.00085e-08
1.00098e-08
1.00143e-08
1.00166e-08
1.00162e-08
1.00163e-08
1.00182e-08
1.00216e-08
1.00216e-08
1.0021e-08
1.0021e-08
1.0028e-08
1.0028e-08
1.00264e-08
1.00265e-08
1.00374e-08
1.00361e-08
1.0037e-08
1.00361e-08
1.00373e-08
1.0036e-08
1.00369e-08
1.00361e-08
1.0034e-08
1.00334e-08
1.00344e-08
1.00336e-08
1.0034e-08
1.00334e-08
1.00343e-08
1.00336e-08
1.00519e-08
1.00467e-08
1.00499e-08
1.0046e-08
1.00512e-08
1.00463e-08
1.00493e-08
1.00456e-08
1.00454e-08
1.00426e-08
1.00472e-08
1.00434e-08
1.00452e-08
1.00425e-08
1.00468e-08
1.00432e-08
1.01013e-08
1.00949e-08
1.00937e-08
1.01002e-08
1.00844e-08
1.01082e-08
1.0134e-08
1.0135e-08
1.01319e-08
1.01326e-08
1.01292e-08
1.01299e-08
1.01266e-08
1.01268e-08
1.01254e-08
1.01244e-08
1.01245e-08
1.01237e-08
1.01272e-08
1.01266e-08
1.01259e-08
1.01261e-08
1.0122e-08
1.01226e-08
1.01234e-08
1.01232e-08
1.01224e-08
1.01241e-08
1.01244e-08
1.01253e-08
1.01212e-08
1.01227e-08
1.01192e-08
1.0122e-08
1.01216e-08
1.01248e-08
1.01191e-08
1.01233e-08
1.01084e-08
1.01139e-08
1.01184e-08
1.01111e-08
1.01168e-08
1.01206e-08
1.0107e-08
1.01132e-08
1.01182e-08
1.01093e-08
1.01163e-08
1.01211e-08
1.00985e-08
1.00928e-08
1.00902e-08
1.00983e-08
1.0107e-08
1.01047e-08
1.01047e-08
1.01031e-08
1.00605e-08
1.00379e-08
1.00319e-08
1.00408e-08
1.00635e-08
9.9888e-09
1.00042e-08
1.00067e-08
1.00084e-08
1.00101e-08
1.00154e-08
1.00189e-08
1.00201e-08
1.00197e-08
1.00209e-08
1.00239e-08
1.00239e-08
1.00228e-08
1.00228e-08
1.00314e-08
1.00314e-08
1.00295e-08
1.00295e-08
1.00405e-08
1.00374e-08
1.00394e-08
1.00373e-08
1.00402e-08
1.00374e-08
1.00393e-08
1.00373e-08
1.00361e-08
1.00342e-08
1.00369e-08
1.00349e-08
1.00361e-08
1.00343e-08
1.00368e-08
1.0035e-08
1.0045e-08
1.0042e-08
1.00447e-08
1.00419e-08
1.00862e-08
1.01048e-08
1.01358e-08
1.01371e-08
1.01355e-08
1.01369e-08
1.01332e-08
1.01347e-08
1.01314e-08
1.01326e-08
1.01284e-08
1.01295e-08
1.01277e-08
1.01279e-08
1.01308e-08
1.01305e-08
1.01302e-08
1.01292e-08
1.01262e-08
1.01253e-08
1.0127e-08
1.01262e-08
1.01283e-08
1.01273e-08
1.01294e-08
1.0128e-08
1.01256e-08
1.01227e-08
1.01249e-08
1.01225e-08
1.01282e-08
1.01269e-08
1.01269e-08
1.01263e-08
1.01228e-08
1.01228e-08
1.0124e-08
1.01226e-08
1.01238e-08
1.01256e-08
1.01255e-08
1.0126e-08
1.00569e-08
1.00386e-08
1.0041e-08
1.00589e-08
1.0092e-08
9.98722e-09
1.00036e-08
1.00065e-08
1.00082e-08
1.00107e-08
1.00186e-08
1.00238e-08
1.00261e-08
1.00281e-08
1.00257e-08
1.00256e-08
1.00361e-08
1.00361e-08
1.0027e-08
1.0027e-08
1.00255e-08
1.00255e-08
1.00325e-08
1.00337e-08
1.00328e-08
1.00332e-08
1.00326e-08
1.00337e-08
1.00328e-08
1.00333e-08
1.00309e-08
1.0031e-08
1.00306e-08
1.00315e-08
1.00309e-08
1.00311e-08
1.00306e-08
1.00316e-08
1.00417e-08
1.0038e-08
1.00408e-08
1.00378e-08
1.00415e-08
1.0038e-08
1.00406e-08
1.00378e-08
1.00382e-08
1.00351e-08
1.0039e-08
1.00359e-08
1.00381e-08
1.00351e-08
1.00389e-08
1.0036e-08
1.00834e-08
1.01076e-08
1.01307e-08
1.01353e-08
1.01375e-08
1.01341e-08
1.01362e-08
1.0129e-08
1.01328e-08
1.01284e-08
1.01319e-08
1.01262e-08
1.01236e-08
1.01262e-08
1.01222e-08
1.01303e-08
1.01281e-08
1.01302e-08
1.01271e-08
1.01261e-08
1.01226e-08
1.01263e-08
1.01222e-08
1.01292e-08
1.0127e-08
1.01299e-08
1.01269e-08
1.01263e-08
1.01205e-08
1.01287e-08
1.0125e-08
1.00527e-08
1.00453e-08
1.00585e-08
1.00863e-08
1.01072e-08
9.94832e-09
1.00035e-08
1.00058e-08
1.00083e-08
1.00122e-08
1.00264e-08
1.00306e-08
1.00421e-08
1.00738e-08
1.00341e-08
1.00341e-08
1.00487e-08
1.00486e-08
1.00291e-08
1.00286e-08
1.00289e-08
1.00291e-08
1.00292e-08
1.00286e-08
1.0029e-08
1.00291e-08
1.00302e-08
1.00302e-08
1.00335e-08
1.0035e-08
1.00335e-08
1.0035e-08
1.00336e-08
1.00351e-08
1.00336e-08
1.0035e-08
1.00323e-08
1.0033e-08
1.00317e-08
1.00339e-08
1.00323e-08
1.00331e-08
1.00317e-08
1.00339e-08
1.0038e-08
1.0035e-08
1.00379e-08
1.0035e-08
1.0075e-08
1.01103e-08
1.01231e-08
1.01309e-08
1.01348e-08
1.01312e-08
1.0135e-08
1.01307e-08
1.01344e-08
1.01292e-08
1.01333e-08
1.01184e-08
1.01221e-08
1.01218e-08
1.01225e-08
1.01242e-08
1.01282e-08
1.0127e-08
1.01284e-08
1.01163e-08
1.01244e-08
1.01165e-08
1.01232e-08
1.01221e-08
1.01295e-08
1.01222e-08
1.01288e-08
1.01257e-08
1.0117e-08
1.01266e-08
1.01176e-08
1.01302e-08
1.01225e-08
1.01305e-08
1.01229e-08
1.01268e-08
1.01198e-08
1.01269e-08
1.01188e-08
1.01297e-08
1.01245e-08
1.01303e-08
1.01238e-08
1.00553e-08
1.00612e-08
1.00856e-08
1.01062e-08
9.94832e-09
1.0003e-08
1.00057e-08
1.00085e-08
1.00185e-08
1.00362e-08
1.00569e-08
1.01309e-08
1.00969e-08
1.00968e-08
1.013e-08
1.01299e-08
1.00387e-08
1.00387e-08
1.00455e-08
1.00462e-08
1.00387e-08
1.00387e-08
1.00455e-08
1.00462e-08
1.00679e-08
1.00679e-08
1.00315e-08
1.00303e-08
1.00305e-08
1.0031e-08
1.00315e-08
1.00303e-08
1.00305e-08
1.00311e-08
1.00341e-08
1.00337e-08
1.00327e-08
1.00322e-08
1.00341e-08
1.00338e-08
1.00328e-08
1.00323e-08
1.00325e-08
1.00342e-08
1.00323e-08
1.00344e-08
1.00326e-08
1.00342e-08
1.00323e-08
1.00344e-08
1.00719e-08
1.01025e-08
1.01285e-08
1.01305e-08
1.01241e-08
1.01304e-08
1.01225e-08
1.01286e-08
1.01223e-08
1.01281e-08
1.01224e-08
1.01246e-08
1.01271e-08
1.01236e-08
1.01284e-08
1.01293e-08
1.01314e-08
1.01292e-08
1.01131e-08
1.01187e-08
1.01134e-08
1.012e-08
1.01182e-08
1.01247e-08
1.01188e-08
1.01257e-08
1.01129e-08
1.01231e-08
1.01131e-08
1.01216e-08
1.01178e-08
1.01282e-08
1.01181e-08
1.0127e-08
1.01247e-08
1.01137e-08
1.01293e-08
1.01186e-08
1.00694e-08
1.00865e-08
1.01041e-08
9.94834e-09
1.00028e-08
1.00053e-08
1.00092e-08
1.00292e-08
1.01043e-08
1.02574e-08
1.02065e-08
1.02064e-08
1.03454e-08
1.03454e-08
1.01503e-08
1.01502e-08
1.02087e-08
1.02086e-08
1.00448e-08
1.0045e-08
1.00537e-08
1.00546e-08
1.00448e-08
1.0045e-08
1.00537e-08
1.00546e-08
1.0084e-08
1.01017e-08
1.01045e-08
1.00814e-08
1.00839e-08
1.01016e-08
1.01045e-08
1.00813e-08
1.00335e-08
1.00317e-08
1.00321e-08
1.00334e-08
1.00336e-08
1.00317e-08
1.00322e-08
1.00334e-08
1.0039e-08
1.00384e-08
1.00355e-08
1.00347e-08
1.0039e-08
1.00385e-08
1.00356e-08
1.00348e-08
1.00852e-08
1.00932e-08
1.01295e-08
1.0135e-08
1.01232e-08
1.01305e-08
1.01202e-08
1.01269e-08
1.01182e-08
1.01244e-08
1.01162e-08
1.01188e-08
1.01177e-08
1.01212e-08
1.01228e-08
1.01253e-08
1.01243e-08
1.01274e-08
1.01155e-08
1.0116e-08
1.01153e-08
1.01125e-08
1.01193e-08
1.01207e-08
1.01221e-08
1.01226e-08
1.01219e-08
1.0119e-08
1.01249e-08
1.01253e-08
1.01181e-08
1.01155e-08
1.01242e-08
1.01208e-08
1.01122e-08
1.01183e-08
1.01123e-08
1.01196e-08
1.01165e-08
1.01242e-08
1.01167e-08
1.01252e-08
1.00933e-08
1.01025e-08
9.94845e-09
1.00023e-08
1.00058e-08
1.00114e-08
1.01292e-08
1.08411e-08
1.13709e-08
1.03096e-08
1.03096e-08
1.05106e-08
1.05108e-08
1.01695e-08
1.01226e-08
1.01712e-08
1.0195e-08
1.01967e-08
1.01253e-08
1.01225e-08
1.01695e-08
1.01253e-08
1.01713e-08
1.01952e-08
1.01969e-08
1.03322e-08
1.03208e-08
1.02548e-08
1.02523e-08
1.03342e-08
1.03224e-08
1.02554e-08
1.02528e-08
1.0052e-08
1.00529e-08
1.00647e-08
1.00669e-08
1.00519e-08
1.00529e-08
1.00647e-08
1.00669e-08
1.01018e-08
1.00974e-08
1.01018e-08
1.00973e-08
1.00332e-08
1.00345e-08
1.00333e-08
1.00346e-08
1.00436e-08
1.00434e-08
1.00436e-08
1.00434e-08
1.01107e-08
1.01068e-08
1.01158e-08
1.01453e-08
1.01335e-08
1.01416e-08
1.01273e-08
1.01351e-08
1.01164e-08
1.01227e-08
1.01134e-08
1.01189e-08
1.01087e-08
1.0112e-08
1.01131e-08
1.01111e-08
1.01157e-08
1.01145e-08
1.01138e-08
1.01175e-08
1.01194e-08
1.01157e-08
1.01212e-08
1.01199e-08
1.01132e-08
1.01112e-08
1.01182e-08
1.01162e-08
1.01137e-08
1.01098e-08
1.01152e-08
1.01159e-08
1.01101e-08
1.01122e-08
1.01184e-08
1.01137e-08
1.01197e-08
1.01222e-08
1.01134e-08
1.01174e-08
1.0117e-08
1.0112e-08
1.0123e-08
1.01166e-08
1.0105e-08
9.94897e-09
1.00023e-08
1.00059e-08
1.00916e-08
1.27265e-08
1.93205e-08
1.40328e-08
1.41395e-08
2.70378e-08
2.73984e-08
1.05339e-08
1.05409e-08
1.11056e-08
1.11283e-08
1.0143e-08
1.02018e-08
1.0201e-08
1.01464e-08
1.02441e-08
1.02397e-08
1.0143e-08
1.02021e-08
1.01464e-08
1.02013e-08
1.02449e-08
1.02403e-08
1.04016e-08
1.03828e-08
1.03104e-08
1.03004e-08
1.04055e-08
1.03858e-08
1.03122e-08
1.03017e-08
1.0076e-08
1.00799e-08
1.0076e-08
1.00799e-08
1.01169e-08
1.014e-08
1.01288e-08
1.01398e-08
1.01506e-08
1.01295e-08
1.01366e-08
1.01224e-08
1.01297e-08
1.01156e-08
1.01166e-08
1.01125e-08
1.01126e-08
1.01212e-08
1.01225e-08
1.01173e-08
1.01181e-08
1.01107e-08
1.01105e-08
1.01085e-08
1.01109e-08
1.01094e-08
1.01091e-08
1.01137e-08
1.01138e-08
1.01109e-08
1.01147e-08
1.01132e-08
1.01125e-08
1.01082e-08
1.01085e-08
1.01111e-08
1.01118e-08
1.01094e-08
1.01116e-08
1.01136e-08
1.01157e-08
1.01126e-08
1.01086e-08
1.01162e-08
1.01106e-08
1.01139e-08
1.0109e-08
1.01165e-08
1.01106e-08
1.01177e-08
1.0111e-08
1.01215e-08
1.01142e-08
9.95081e-09
1.00022e-08
1.00126e-08
1.49652e-08
7.71966e-08
1.07197e-07
1.38376e-08
1.40742e-08
2.57023e-08
2.6459e-08
1.06798e-08
1.05414e-08
1.0542e-08
1.06993e-08
1.07064e-08
1.05548e-08
1.05548e-08
1.07282e-08
1.12299e-08
1.12994e-08
1.04376e-08
1.04287e-08
1.03593e-08
1.03493e-08
1.04447e-08
1.04348e-08
1.03631e-08
1.03522e-08
9.95597e-09
1.01433e-08
1.01776e-08
1.01457e-08
1.01577e-08
1.01724e-08
1.01737e-08
1.01492e-08
1.01656e-08
1.01516e-08
1.0153e-08
1.01233e-08
1.01325e-08
1.01171e-08
1.01195e-08
1.01121e-08
1.01108e-08
1.01233e-08
1.01264e-08
1.01164e-08
1.01148e-08
1.01111e-08
1.01112e-08
1.01083e-08
1.01086e-08
1.01113e-08
1.01093e-08
1.01137e-08
1.01138e-08
1.01098e-08
1.01093e-08
1.01143e-08
1.01114e-08
1.01083e-08
1.0112e-08
1.01093e-08
1.0115e-08
1.00053e-08
1.00312e-08
1.90177e-07
1.01502e-06
5.06923e-08
2.57868e-08
6.42211e-07
5.259e-07
1.0748e-08
1.07425e-08
1.21664e-08
1.09998e-08
1.07019e-08
1.05832e-08
1.05544e-08
1.07799e-08
1.07338e-08
1.06032e-08
1.05711e-08
1.08177e-08
1.08254e-08
1.07882e-08
1.08545e-08
1.07877e-08
1.08565e-08
1.08219e-08
1.08947e-08
1.08249e-08
1.04873e-08
1.04684e-08
1.04993e-08
1.04781e-08
9.96758e-09
1.01871e-08
1.02159e-08
1.01598e-08
1.01695e-08
1.01376e-08
1.01582e-08
1.01272e-08
1.01467e-08
1.01219e-08
1.01404e-08
1.01254e-08
1.01161e-08
1.01166e-08
1.01205e-08
1.01369e-08
1.01293e-08
1.0131e-08
1.01349e-08
1.01138e-08
1.01117e-08
1.01127e-08
1.01107e-08
1.01229e-08
1.01217e-08
1.01179e-08
1.01143e-08
1.00059e-08
1.09293e-08
4.10345e-06
8.98959e-06
3.4909e-08
2.50017e-08
5.60143e-07
5.98093e-07
1.06923e-08
1.06695e-08
1.05794e-08
1.06176e-08
1.0613e-08
1.0566e-08
1.07113e-08
1.06936e-08
1.0601e-08
1.064e-08
1.06318e-08
1.05877e-08
1.06737e-08
1.05555e-08
1.06353e-08
1.06086e-08
1.05616e-08
1.07157e-08
1.06638e-08
1.06325e-08
1.05808e-08
1.07491e-08
1.0739e-08
1.07027e-08
1.07683e-08
1.07324e-08
9.98872e-09
1.02458e-08
1.02435e-08
1.01799e-08
1.02095e-08
1.02051e-08
1.01907e-08
1.01717e-08
1.01417e-08
1.01483e-08
1.01229e-08
1.01332e-08
1.01172e-08
1.01177e-08
1.01157e-08
1.01132e-08
1.01152e-08
1.01145e-08
1.01269e-08
1.01286e-08
1.01232e-08
1.01181e-08
1.01321e-08
1.01332e-08
1.01142e-08
1.01123e-08
1.01251e-08
1.01216e-08
1.01142e-08
1.01116e-08
1.01225e-08
1.01164e-08
1.00094e-08
6.4322e-08
5.91691e-05
2.16703e-05
9.82155e-06
0.00014383
0.000101014
3.19759e-08
1.16143e-08
1.21233e-06
2.51989e-07
1.06413e-08
1.06329e-08
1.05554e-08
1.0582e-08
1.05783e-08
1.05367e-08
1.06621e-08
1.06542e-08
1.05761e-08
1.06043e-08
1.06022e-08
1.0555e-08
1.33742e-08
1.07623e-08
1.05414e-08
1.05001e-08
1.06493e-08
1.05322e-08
1.05497e-08
1.05007e-08
1.00202e-08
1.03069e-08
1.026e-08
1.02064e-08
1.01759e-08
1.01765e-08
1.01529e-08
1.01563e-08
1.01358e-08
1.01412e-08
1.0116e-08
1.01147e-08
1.01205e-08
1.01165e-08
1.01145e-08
1.01198e-08
1.01285e-08
1.01232e-08
1.01201e-08
1.01274e-08
1.01239e-08
1.01232e-08
1.01158e-08
1.01158e-08
1.0113e-08
1.01126e-08
1.01211e-08
1.01237e-08
1.01168e-08
1.01166e-08
1.01152e-08
1.01121e-08
1.01227e-08
1.01159e-08
1.00384e-08
2.28195e-06
0.000769986
0.000129636
7.53746e-05
0.000723825
0.000545134
1.2875e-08
1.09082e-08
3.02876e-07
2.39143e-07
4.05544e-08
1.6465e-06
1.0532e-08
1.05314e-08
4.73619e-08
1.06774e-08
1.12658e-08
2.45245e-07
8.69034e-06
3.24328e-06
1.04699e-08
1.049e-08
1.04865e-08
1.05094e-08
1.05936e-08
1.06087e-08
1.05048e-08
1.04939e-08
1.00602e-08
1.03495e-08
1.02677e-08
1.02263e-08
1.02094e-08
1.01884e-08
1.01845e-08
1.01632e-08
1.01657e-08
1.01425e-08
1.01472e-08
1.01288e-08
1.01325e-08
1.01227e-08
1.01234e-08
1.0122e-08
1.0123e-08
1.0134e-08
1.01278e-08
1.01288e-08
1.0137e-08
1.01279e-08
1.01273e-08
1.01161e-08
1.01135e-08
1.01163e-08
1.01144e-08
1.01215e-08
1.01226e-08
1.01175e-08
1.01169e-08
1.25265e-08
5.87376e-05
0.00897839
0.000872834
0.000557279
0.00408544
0.00324706
4.49087e-08
1.6415e-08
6.22387e-07
4.49833e-07
1.16907e-07
3.00034e-06
1.06225e-08
1.06001e-08
2.6111e-07
5.4467e-08
4.14745e-08
4.68148e-07
0.000238801
4.83478e-05
3.47063e-05
6.6824e-06
0.000123469
2.49718e-05
1.7296e-05
4.06314e-06
2.07648e-08
1.29636e-08
1.04735e-08
1.06344e-08
1.01061e-08
1.03611e-08
1.02553e-08
1.0199e-08
1.02029e-08
1.0177e-08
1.01812e-08
1.01592e-08
1.01637e-08
1.01274e-08
1.01297e-08
1.01431e-08
1.01341e-08
1.01359e-08
1.01407e-08
1.01311e-08
1.01331e-08
1.01475e-08
1.0138e-08
1.01402e-08
1.01447e-08
1.01213e-08
1.01187e-08
1.01194e-08
1.01158e-08
1.01239e-08
1.01181e-08
1.0125e-08
1.0122e-08
4.23002e-07
0.00106312
0.0585678
0.0209638
0.0184552
0.0560987
0.0860051
0.078436
0.00592046
0.000404587
8.74689e-05
0.00410532
0.000212773
4.48952e-05
8.97794e-08
3.33196e-08
2.11943e-06
3.15587e-06
6.05229e-07
1.08022e-05
1.63128e-08
1.89607e-08
1.98502e-06
4.89096e-07
3.52451e-07
5.00229e-06
4.55396e-05
1.10406e-05
3.66537e-05
1.08087e-05
1.01555e-08
1.03473e-08
1.02523e-08
1.02019e-08
1.02165e-08
1.01775e-08
1.01872e-08
1.01581e-08
1.01626e-08
1.01495e-08
1.01533e-08
1.01451e-08
1.01487e-08
1.01661e-08
1.0149e-08
1.01523e-08
1.01677e-08
1.01583e-08
1.01604e-08
1.0128e-08
1.01253e-08
1.01357e-08
1.01333e-08
1.01315e-08
1.01286e-08
1.01399e-08
1.01377e-08
1.01247e-08
1.01216e-08
1.0128e-08
1.01241e-08
4.36179e-05
0.0116353
0.0746847
0.0960179
0.0702064
0.0938592
0.117452
0.111846
0.0240937
0.00166259
0.000517277
0.00129823
0.000226059
0.00931697
0.0817057
0.0519003
0.000792324
0.0152518
0.000277371
0.000693503
0.000118382
0.00620292
0.0621817
0.0420721
7.70059e-06
4.27722e-05
1.01667e-05
4.28583e-05
0.000107739
3.05102e-05
0.000128009
3.81431e-05
1.01958e-08
1.03502e-08
1.02638e-08
1.01862e-08
1.02026e-08
1.03013e-08
1.02283e-08
1.02527e-08
1.01665e-08
1.01514e-08
1.01616e-08
1.0182e-08
1.01628e-08
1.01706e-08
1.01441e-08
1.01373e-08
1.01365e-08
1.01331e-08
1.01514e-08
1.01448e-08
1.01492e-08
1.01448e-08
1.01304e-08
1.0126e-08
1.01355e-08
1.01267e-08
1.01342e-08
1.01305e-08
1.01413e-08
1.01337e-08
0.00106355
0.0602107
0.120573
0.0815836
0.119971
0.143197
0.117645
0.0741779
0.105152
0.142176
0.153482
0.150243
0.00532357
0.0520566
0.000286397
0.00011077
0.0021819
0.0191114
0.00274424
0.000477141
0.0350211
0.000141519
0.00123963
0.0146145
2.66249e-05
0.000148553
4.27353e-05
0.000222268
1.0204e-08
1.03636e-08
1.02212e-08
1.02093e-08
1.02269e-08
1.02656e-08
1.01889e-08
1.02262e-08
1.01629e-08
1.01471e-08
1.01522e-08
1.01446e-08
1.01554e-08
1.01588e-08
1.0174e-08
1.01695e-08
1.01835e-08
1.01615e-08
1.01686e-08
1.01565e-08
1.01652e-08
1.01762e-08
1.019e-08
1.01847e-08
1.01337e-08
1.01314e-08
1.01246e-08
1.01278e-08
1.01444e-08
1.01333e-08
1.01432e-08
1.01375e-08
0.00997144
0.21954
0.181548
0.180719
0.217665
0.184374
0.178485
0.216761
0.102482
0.145982
0.0998087
0.134099
0.188731
0.193159
0.143624
0.192579
0.210816
0.170557
0.21671
0.0970105
0.133443
0.0934757
0.125851
0.184691
0.182554
0.141232
0.19372
0.215275
0.168251
0.0195402
0.0881963
0.0082804
0.0428991
0.0121969
0.0705041
0.00564742
0.0361224
1.01941e-08
1.03726e-08
1.02304e-08
1.01686e-08
1.01993e-08
1.02012e-08
1.02031e-08
1.02126e-08
1.02196e-08
1.02774e-08
1.01924e-08
1.02291e-08
1.01476e-08
1.01797e-08
1.01364e-08
1.01436e-08
1.01338e-08
1.01815e-08
1.01662e-08
1.02113e-08
1.01494e-08
1.01477e-08
1.01653e-08
1.02081e-08
1.0129e-08
1.01239e-08
1.01397e-08
1.0132e-08
0.0330387
0.281629
0.274965
0.281986
0.274276
0.165415
0.161522
0.139798
0.152708