/*--------------------------------*- C++ -*----------------------------------*\
| =========                 |                                                 |
| \\      /  F ield         | OpenFOAM: The Open Source CFD Toolbox           |
|  \\    /   O peration     | Version:  5.x                                   |
|   \\  /    A nd           | Web:      www.OpenFOAM.org                      |
|    \\/     M anipulation  |                                                 |
\*---------------------------------------------------------------------------*/
FoamFile
{
    version     2.0;
    format      ascii;
    class       surfaceScalarField;
    location    "0.8";
    object      meshPhi;
}
// * * * * * * * * * * * * * * * * * * * * * * * * * * * * * * * * * * * * * //

dimensions      [0 3 -1 0 0 0 0];

internalField   nonuniform List<scalar> 
30582
(
0
0
0
0
0
0
0
0
0
0
0
0
0
0
0
0
0
0
0
0
0
0
0
0
0
0
0
0
0
0
0
0
0
0
0
0
0
0
0
0
0
0
0
0
0
0
0
0
0
0
0
0
0
0
0
0
0
0
0
0
0
0
0
0
0
0
0
0
0
0
0
0
0
0
0
0
0
0
0
0
0
0
0
0
0
0
0
0
0
0
0
0
0
0
0
0
0
0
0
0
0
0
0
0
0
0
0
0
0
0
0
0
0
0
0
0
0
0
0
0
0
0
0
0
0
0
0
0
0
0
0
0
0
0
0
0
0
0
0
0
0
0
0
0
0
0
0
0
0
0
0
0
0
0
0
0
0
0
0
0
0
0
0
0
0
0
0
0
0
0
0
0
0
0
0
0
0
0
0
0
0
0
0
0
0
0
0
0
0
0
0
0
0
0
0
0
0
0
0
0
0
0
0
0
0
0
0
0
0
0
0
0
0
0
0
0
0
0
0
0
0
0
0
0
0
0
0
0
0
0
0
0
0
0
0
0
0
0
0
0
0
0
0
0
0
0
0
0
0
0
0
0
0
0
0
0
0
0
0
0
0
0
0
0
0
0
0
0
0
0
0
0
0
0
0
0
0
0
0
0
0
0
0
0
0
0
0
0
0
0
0
0
0
0
0
0
0
0
0
0
0
0
0
0
0
0
0
0
0
0
0
0
0
0
0
0
0
0
0
0
0
0
0
0
0
0
0
0
0
0
0
0
0
0
0
0
0
0
0
0
0
0
0
0
0
0
0
0
0
0
0
0
0
0
0
0
0
0
0
0
0
0
0
0
0
0
0
0
0
0
0
0
0
0
0
0
0
0
0
0
0
0
0
0
0
0
0
0
0
0
0
0
0
0
0
0
0
0
0
0
0
0
0
0
0
0
0
0
0
0
0
0
0
0
0
0
0
0
0
0
0
0
0
0
0
0
0
0
0
0
0
0
0
0
0
0
0
0
0
0
0
0
0
0
0
0
0
0
0
0
0
0
0
0
0
0
0
0
0
0
0
0
0
0
0
0
0
0
0
0
0
0
0
0
0
0
0
0
0
0
0
0
0
0
0
0
0
0
0
0
0
0
0
0
0
0
0
0
0
0
0
0
0
0
0
0
0
0
0
0
0
0
0
0
0
0
0
0
0
0
0
0
0
0
0
0
0
0
0
0
0
0
0
0
0
0
0
0
0
0
0
0
0
0
0
0
0
0
0
0
0
0
0
0
0
0
0
0
0
0
0
0
0
0
0
0
0
0
0
0
0
0
0
0
0
0
0
0
0
0
0
0
0
0
0
0
0
0
0
0
0
0
0
0
0
0
0
0
0
0
0
0
0
0
0
0
0
0
0
0
0
0
0
0
0
0
0
0
0
0
0
0
0
0
0
0
0
0
0
0
0
0
0
0
0
0
0
0
0
0
0
0
0
0
0
0
0
0
0
0
0
0
0
0
0
0
0
0
0
0
0
0
0
0
0
0
0
0
0
0
0
0
0
0
0
0
0
0
0
0
0
0
0
0
0
0
0
0
0
0
0
0
0
0
0
0
0
0
0
0
0
0
0
0
0
0
0
0
0
0
0
0
0
0
0
0
0
0
0
0
0
0
0
0
0
0
0
0
0
0
0
0
0
0
0
0
0
0
0
0
0
0
0
0
0
0
0
0
0
0
0
0
0
0
0
0
0
0
0
0
0
0
0
0
0
0
0
0
0
0
0
0
0
0
0
0
0
0
0
0
0
0
0
0
0
0
0
0
0
0
0
0
0
0
0
0
0
0
0
0
0
0
0
0
0
0
0
0
0
0
0
0
0
0
0
0
0
0
0
0
0
0
0
0
0
0
0
0
0
0
0
0
0
0
0
0
0
0
0
0
0
0
0
0
0
0
0
0
0
0
0
0
0
0
0
0
0
0
0
0
0
0
0
0
0
0
0
0
0
0
0
0
0
0
0
0
0
0
0
0
0
0
0
0
0
0
0
0
0
0
0
0
0
0
0
0
0
0
0
0
0
0
0
0
0
0
0
0
0
0
0
0
0
0
0
0
0
0
0
0
0
0
0
0
0
0
0
0
0
0
0
0
0
0
0
0
0
0
0
0
0
0
0
0
0
0
0
0
0
0
0
0
0
0
0
0
0
0
0
0
0
0
0
0
0
0
0
0
0
0
0
0
0
0
0
0
0
0
0
0
0
0
0
0
0
0
0
0
0
0
0
0
0
0
0
0
0
0
0
0
0
0
0
0
0
0
0
0
0
0
0
0
0
0
0
0
0
0
0
0
0
0
0
0
0
0
0
0
0
0
0
0
0
0
0
0
0
0
0
0
0
0
0
0
0
0
0
0
0
0
0
0
0
0
0
0
0
0
0
0
0
0
0
0
0
0
0
0
0
0
0
0
0
0
0
0
0
0
0
0
0
0
0
0
0
0
0
0
0
0
0
0
0
0
0
0
0
0
0
0
0
0
0
0
0
0
0
0
0
0
0
0
0
0
0
0
0
0
0
0
0
0
0
0
0
0
0
0
0
0
0
0
0
0
0
0
0
0
0
0
0
0
0
0
0
0
0
0
0
0
0
0
0
0
0
0
0
0
0
0
0
0
0
0
0
0
0
0
0
0
0
0
0
0
0
0
0
0
0
0
0
0
0
0
0
0
0
0
0
0
0
0
0
0
0
0
0
0
0
0
0
0
0
0
0
0
0
0
0
0
0
0
0
0
0
0
0
0
0
0
0
0
0
0
0
0
0
0
0
0
0
0
0
0
0
0
0
0
0
0
0
0
0
0
0
0
0
0
0
0
0
0
0
0
0
0
0
0
0
0
0
0
0
0
0
0
0
0
0
0
0
0
0
0
0
0
0
0
0
0
0
0
0
0
0
0
0
0
0
0
0
0
0
0
0
0
0
0
0
0
0
0
0
0
0
0
0
0
0
0
0
0
0
0
0
0
0
0
0
0
0
0
0
0
0
0
0
0
0
0
0
0
0
0
0
0
0
0
0
0
0
0
0
0
0
0
0
0
0
0
0
0
0
0
0
0
0
0
0
0
0
0
0
0
0
0
0
0
0
0
0
0
0
0
0
0
0
0
0
0
0
0
0
0
0
0
0
0
0
0
0
0
0
0
0
0
0
0
0
0
0
0
0
0
0
0
0
0
0
0
0
0
0
0
0
0
0
0
0
0
0
0
0
0
0
0
0
0
0
0
0
0
0
0
0
0
0
0
0
0
0
0
0
0
0
0
0
0
0
0
0
0
0
0
0
0
0
0
0
0
0
0
0
0
0
0
0
0
0
0
0
0
0
0
0
0
0
0
0
0
0
0
0
0
0
0
0
0
0
0
0
3.05015e-18
-1.07573e-17
4.36469e-25
-3.2268e-17
-1.61308e-17
-2.15249e-17
0
0
0
0
0
0
0
0
0
0
0
0
0
0
0
0
0
0
0
0
0
0
0
0
0
0
0
0
0
0
0
0
0
0
0
0
0
0
-5.36598e-18
-1.68933e-34
7.82735e-19
-1.24366e-25
-2.68655e-17
2.15116e-17
2.99898e-18
-3.2268e-17
5.37723e-18
-3.22776e-17
1.55671e-18
3.41003e-25
5.37351e-17
-3.89506e-34
2.30523e-18
-3.22509e-17
-7.79518e-18
5.37516e-17
0
0
0
0
0
0
0
0
0
0
0
0
0
0
0
0
0
0
0
0
0
0
0
0
0
0
0
0
0
0
0
0
0
0
0
0
0
-8.93916e-19
4.63025e-18
-3.39776e-17
3.77683e-20
6.4302e-17
2.14146e-17
-4.29547e-17
1.41037e-35
1.53398e-18
-1.61193e-17
-1.95834e-33
7.91255e-19
-2.17428e-25
-2.68021e-17
0
-9.13497e-17
8.98989e-21
4.29881e-17
2.40128e-35
-7.51625e-19
-3.22509e-17
-7.79518e-18
3.22522e-17
4.8503e-20
-3.42145e-24
3.21683e-17
-3.00233e-34
7.0585e-21
4.28873e-17
0
0
0
0
0
0
0
0
0
0
0
0
0
0
0
0
0
0
0
0
0
0
0
0
0
0
0
0
0
0
0
0
0
0
0
-1.68772e-17
-3.21651e-17
-2.14111e-17
-5.42136e-18
-5.49408e-20
-2.52934e-34
-9.67819e-20
-5.80105e-20
-3.75447e-17
-1.23501e-17
2.96368e-18
2.11507e-17
1.94868e-34
-2.58556e-19
-1.60279e-17
2.88888e-18
2.13724e-17
-1.15671e-34
-8.47939e-20
5.36594e-18
0
-4.59956e-19
-9.34613e-24
-9.34142e-18
1.60049e-17
-1.20072e-17
1.60276e-17
0
0
-2.2335e-18
4.58949e-18
-2.19433e-17
-1.36812e-20
-3.22265e-17
-1.06759e-17
6.4302e-17
9.7006e-20
4.28911e-17
2.4419e-34
1.07288e-17
8.58181e-17
0
4.34953e-24
-2.4027e-17
2.66665e-18
-2.4011e-17
5.35278e-18
0
1.07089e-17
-2.76505e-18
1.07954e-17
-1.07043e-17
1.33886e-17
-1.07798e-17
1.35288e-17
-2.68722e-18
0
0
0
0
0
0
0
0
0
0
0
0
0
0
0
0
0
0
0
0
0
0
0
0
0
0
0
0
0
0
0
0
0
1.48026e-17
-2.69117e-17
2.14836e-17
-1.6128e-17
-1.0888e-17
8.46753e-35
4.62968e-18
-3.21295e-17
-2.92427e-18
4.27441e-17
3.17156e-34
-1.08989e-17
-1.6153e-17
0
4.31722e-17
-1.1008e-35
2.29306e-11
6.17343e-12
2.29367e-09
-9.22428e-14
3.38878e-13
-1.79944e-08
-2.62587e-13
-1.82125e-08
1.5991e-10
-9.74467e-19
1.88313e-19
-6.15622e-19
-1.8914e-19
5.44005e-18
-2.08448e-17
-1.36674e-18
-1.29103e-17
-2.48497e-18
-4.02206e-34
1.82822e-16
-1.06453e-12
-1.7803e-08
1.42051e-14
-3.59301e-08
-7.52308e-19
-1.30532e-18
-2.92277e-17
-5.32602e-18
-3.72745e-17
0
4.16609e-19
-1.20187e-17
5.33924e-18
-1.73387e-17
1.06739e-17
-8.7409e-19
-8.93463e-20
0
5.57237e-19
-9.31136e-18
-8.90219e-20
-9.00591e-19
-9.94993e-24
9.29996e-18
0
-1.47821e-22
3.2422e-16
-1.04283e-18
1.06321e-17
0
0
4.38996e-17
-5.42152e-18
-1.08443e-17
1.85916e-20
-2.14111e-17
0
-1.53905e-18
-1.40263e-18
-5.3401e-18
7.71405e-18
2.88875e-18
8.75617e-34
0
-1.75167e-22
-1.60405e-17
3.08017e-18
1.06644e-17
8.88004e-20
-1.46797e-17
5.3341e-18
-9.3399e-18
5.34573e-18
0
1.07e-17
-5.44129e-18
1.61466e-17
-1.06977e-17
1.60522e-17
-1.34686e-17
1.35027e-17
-5.35566e-18
-1.3241e-18
-8.92184e-20
1.51972e-18
-9.29745e-18
0
-8.88858e-20
9.31306e-26
9.30153e-18
1.03504e-25
-6.64409e-18
0
-1.84212e-21
1.51206e-18
0
0
-2.12553e-17
0
1.43857e-18
-1.06452e-12
0
-1.50539e-10
1.58897e-17
1.087e-18
-1.7757e-19
-1.85701e-17
-8.82488e-20
1.43796e-18
1.07073e-17
-4.02971e-17
1.06342e-17
0
0
0
0
0
0
0
0
0
0
0
0
0
0
0
0
0
0
0
0
0
0
0
0
0
0
0
0
0
0
0
-5.9835e-18
-1.86993e-20
1.0699e-17
-1.08996e-17
1.08485e-17
2.70411e-35
1.35548e-18
1.61942e-17
-1.50678e-17
4.29707e-17
3.80694e-35
1.05468e-19
-5.34338e-18
-1.2431e-17
2.14257e-17
-1.1916e-25
-5.16528e-09
3.83234e-12
-1.61406e-08
-8.9036e-11
-1.77041e-08
-1.12932e-08
5.25622e-18
-2.15009e-17
-1.68699e-12
1.29394e-10
4.14067e-27
5.03319e-09
-4.20907e-10
-1.62412e-09
1.50136e-10
-5.1782e-10
1.10027e-08
1.55393e-12
8.0507e-10
1.37208e-12
-2.63712e-10
7.60542e-20
9.1444e-19
1.31557e-18
1.08582e-12
0
2.48392e-13
1.57914e-13
-1.24786e-16
1.31989e-34
1.91707e-08
1.76328e-16
2.11794e-24
-5.74848e-13
-2.14224e-17
3.70578e-34
1.01219e-10
5.31926e-18
0
-2.33359e-09
-1.76725e-08
-8.69698e-20
5.31983e-19
1.07878e-17
0
-6.70823e-19
8.34829e-20
-1.16495e-17
1.42123e-18
-4.43332e-18
-6.77157e-19
7.28104e-20
1.93989e-19
-1.60616e-17
1.31271e-18
2.54169e-17
-5.52014e-19
-1.86961e-17
7.77984e-20
5.67752e-13
-7.66467e-12
-1.41938e-12
-5.0672e-11
-1.25892e-34
-2.11911e-08
2.24282e-09
-4.14943e-24
-2.13822e-17
4.70992e-35
1.74044e-17
0
-5.76602e-19
-1.51709e-18
-5.2156e-18
1.07511e-18
1.24616e-17
-4.49159e-18
-7.52343e-20
-1.06788e-17
2.0068e-17
-7.30553e-19
-8.93464e-20
0
1.11692e-18
-1.19786e-17
8.90217e-20
-8.02564e-19
6.64173e-18
0
3.18903e-16
-5.90519e-19
2.13103e-17
2.42206e-09
8.95568e-20
0
-2.2824e-09
-2.74993e-11
2.34399e-24
-1.27745e-13
-1.94746e-22
3.39885e-13
0
-1.01669e-21
-1.78471e-08
-8.51652e-14
1.77477e-14
0
0
1.48026e-17
-1.62176e-17
1.07068e-17
5.42802e-18
1.06676e-17
-5.03718e-34
-4.44714e-18
-1.45709e-18
-1.08304e-17
3.16776e-18
-1.1805e-19
0
6.00782e-34
-5.40028e-18
0
0
-3.62967e-17
-1.9802e-08
4.25815e-12
-1.90982e-08
5.32059e-18
1.11126e-15
2.64353e-18
-7.52218e-19
1.05407e-17
-1.3465e-17
5.32586e-18
-2.92815e-17
0
2.1823e-12
1.58217e-10
-7.80569e-14
1.38567e-12
-1.87555e-08
1.36534e-17
1.88613e-15
2.49436e-09
-1.11808e-21
-2.53982e-18
1.32477e-18
-3.55353e-20
-4.56066e-17
6.6828e-18
-4.29832e-17
-4.25893e-18
-1.08265e-18
-8.92187e-20
1.54289e-18
-2.7962e-17
-8.88626e-20
-8.88904e-20
1.32877e-18
-1.59453e-17
-6.41321e-37
2.66631e-18
1.0872e-18
-1.77821e-19
0
-2.65813e-17
1.76905e-19
1.6013e-18
-5.81939e-13
0
-1.81767e-08
1.8579e-17
1.41236e-18
-8.87835e-20
-3.05716e-17
0
1.56252e-18
2.66327e-18
-1.86615e-17
-1.14925e-33
-7.11466e-19
1.79056e-19
3.10766e-18
-2.93407e-17
0
-3.23511e-19
2.40128e-24
1.09769e-21
1.10922e-23
-5.28874e-17
-1.09123e-19
2.66585e-18
-8.89039e-20
0
1.77907e-08
1.72106e-13
8.88738e-20
-1.04227e-17
3.92798e-18
0
0
0
0
0
0
0
0
0
0
0
0
0
0
0
0
0
0
0
0
0
0
0
0
0
0
0
0
0
1.83565e-17
-2.6935e-17
2.51514e-20
5.35507e-18
5.09027e-20
9.60492e-34
2.67598e-18
-2.13747e-17
-2.42499e-17
2.13171e-17
1.47442e-33
-6.39007e-18
2.1557e-17
-6.39206e-18
2.1126e-17
4.25056e-26
4.93317e-09
-1.73103e-10
1.82155e-08
4.42238e-09
1.82207e-08
1.07857e-08
-1.00392e-12
3.3686e-10
8.8712e-13
-8.83361e-09
1.295e-26
-7.30406e-11
4.5661e-09
-1.82932e-08
4.48522e-09
-1.81275e-08
-1.55125e-10
-4.39121e-13
-9.14507e-09
-8.20578e-13
-8.963e-09
8.08256e-20
-6.884e-12
1.41937e-12
-2.20406e-08
1.19981e-34
2.24102e-09
-8.37386e-20
5.62249e-09
-3.43784e-17
-1.65815e-26
1.99748e-12
2.37783e-17
0
3.88932e-18
-5.47957e-18
-7.25872e-19
1.40548e-17
8.36406e-20
-2.12168e-12
-1.3214e-17
-1.12436e-08
3.82823e-17
1.69411e-19
7.66467e-12
-5.32528e-09
-1.58801e-17
2.19068e-08
-1.64523e-26
-1.98887e-12
6.32313e-16
8.59447e-20
-2.71574e-17
1.55999e-26
1.35176e-17
1.69231e-19
1.64589e-18
1.98861e-12
-9.61952e-18
-7.90531e-18
1.0649e-08
-7.22381e-18
-8.58616e-20
-1.62943e-17
2.16028e-17
3.66914e-24
-4.96784e-13
4.30719e-25
2.69184e-18
2.88616e-17
8.65197e-35
-1.42583e-34
-3.03308e-09
3.03055e-20
-7.09681e-14
5.08331e-34
9.59817e-09
1.57955e-33
-5.82814e-20
3.44968e-34
8.97129e-19
1.26265e-18
-2.21722e-18
3.03252e-20
5.32794e-19
-2.11627e-19
-5.91433e-25
-1.01643e-18
-6.84204e-19
1.39586e-18
1.51833e-35
-1.09518e-16
-3.94618e-20
5.10722e-34
4.65395e-34
-1.51183e-19
8.59372e-19
1.3644e-18
2.53194e-18
0
-8.9194e-11
0
0
-2.35853e-09
1.80115e-08
-8.82855e-20
-7.4981e-19
-1.49634e-14
0
1.78635e-08
-3.54857e-14
1.68564e-13
1.33281e-09
-4.90111e-20
-8.57808e-34
-1.49971e-09
-9.28058e-20
1.27745e-13
1.07222e-21
-4.02256e-34
1.84717e-21
8.51627e-14
0
0
-6.23529e-18
-1.08467e-17
1.57611e-32
1.07169e-17
1.07358e-17
-1.55769e-35
-9.24201e-18
4.24593e-19
-5.31776e-18
1.49651e-17
-1.26458e-17
6.43309e-17
-1.36106e-35
-5.29093e-18
4.28986e-17
-1.81577e-26
5.16521e-09
5.03325e-09
-4.25661e-10
-2.00773e-08
1.53854e-10
-1.87106e-08
1.12933e-08
1.10027e-08
1.61159e-12
8.05043e-10
1.36911e-12
-2.63739e-10
5.22513e-25
1.31294e-12
-3.55057e-08
-8.87883e-11
-1.77043e-08
3.94199e-18
-1.61256e-17
-1.69291e-12
1.29341e-10
-7.78108e-20
-4.14825e-19
7.61144e-12
4.96787e-13
8.15925e-17
0
2.11907e-08
1.76158e-08
0
-1.47533e-18
-1.87302e-17
0
4.44587e-17
1.59707e-17
-7.7752e-20
-3.70548e-19
-7.73755e-19
-4.13792e-20
-5.42958e-19
5.32691e-18
-6.78872e-18
7.52256e-20
-7.53273e-19
-8.00326e-18
1.02807e-18
2.53476e-17
4.83798e-24
1.42801e-18
7.27435e-13
1.08581e-12
-8.70147e-20
-1.63228e-13
-2.679e-13
-7.58256e-18
0
1.91707e-08
3.91018e-09
7.28534e-20
-2.66589e-17
0
2.26642e-17
0
2.74869e-10
-3.68929e-08
7.60453e-20
6.32678e-19
-4.33317e-19
2.75942e-19
-8.697e-20
3.30101e-19
5.38671e-18
-5.69512e-19
4.9179e-18
-4.43318e-18
-7.281e-20
-1.07009e-17
1.19219e-17
-4.83018e-19
-3.48279e-17
-1.49981e-18
8.9527e-20
3.68903e-18
-3.73368e-17
-2.2495e-33
-1.76131e-19
2.6439e-18
-2.90934e-17
2.51782e-19
1.21926e-21
-8.8899e-20
0
-1.79108e-08
-4.41777e-13
8.88751e-20
-3.1469e-17
3.93909e-18
4.65364e-19
4.89772e-20
5.98631e-19
4.63765e-20
-1.1491e-19
6.01152e-24
-3.36556e-23
6.01995e-20
5.29448e-20
-1.84026e-34
5.29253e-20
0
0
0
0
0
0
0
0
0
0
0
0
0
0
0
0
0
0
0
0
0
0
0
0
0
0
0
0
-8.06837e-17
-8.89938e-34
-9.35251e-18
1.07972e-17
-3.02376e-17
1.06288e-17
-4.03903e-33
-9.00569e-18
-5.31369e-18
1.83488e-17
3.22259e-17
5.29049e-25
6.32728e-18
-4.23627e-09
-3.03533e-17
-9.271e-09
6.67071e-34
1.52204e-17
-2.68084e-17
-3.14712e-17
5.36179e-17
8.22994e-20
2.69683e-12
1.47926e-17
2.85331e-10
0
6.33895e-16
-8.35171e-20
-5.39835e-09
2.67002e-17
0
-2.7057e-12
-1.0693e-17
-1.64464e-19
8.11883e-19
4.03306e-18
8.4896e-18
-2.39773e-17
8.34217e-20
1.81858e-12
1.77842e-20
1.07932e-08
-2.00413e-17
-8.51015e-20
3.61943e-12
1.1519e-10
-2.76778e-12
4.95808e-10
0
-4.93005e-10
-1.82958e-08
0
2.67237e-17
0
-9.30471e-18
8.5e-20
2.66037e-18
-6.03241e-13
1.07394e-17
-3.07366e-18
-2.44391e-10
-2.9451e-17
8.45895e-20
1.33558e-17
-2.00088e-17
-4.53804e-20
-3.54842e-13
-4.84719e-11
1.45977e-34
-5.12828e-20
-3.54842e-13
4.13856e-34
1.16327e-10
-4.53997e-20
9.27963e-19
-1.91704e-18
5.13114e-20
1.12605e-18
-2.98068e-18
0
5.53448e-18
-2.92172e-18
-1.90692e-17
2.68921e-16
1.35762e-34
-6.91013e-17
-1.51568e-15
0
5.99051e-34
-8.10828e-20
-1.52282e-19
7.46533e-19
-1.48091e-18
-7.20317e-18
1.49305e-18
4.13177e-17
6.60934e-20
-9.05087e-11
-4.90124e-20
-5.80292e-34
-1.30219e-09
4.6403e-20
7.62918e-14
-2.65493e-34
3.54843e-14
0
0
-3.02981e-17
5.36762e-18
1.07827e-17
1.60904e-17
-2.15315e-17
9.90633e-35
-2.67598e-18
-1.24659e-17
9.88849e-20
1.82666e-17
7.35518e-32
4.28493e-17
6.74483e-34
-1.06001e-17
4.28082e-17
-5.74727e-27
-4.93341e-09
1.7133e-17
6.20094e-12
1.82936e-08
4.47634e-09
1.81291e-08
-1.07859e-08
-2.12954e-17
5.38053e-18
-1.61322e-17
-7.80652e-13
-8.96319e-09
-4.25056e-26
-1.72895e-10
1.82153e-08
4.42262e-09
1.82208e-08
-1.00834e-12
3.3682e-10
8.87117e-13
-8.83361e-09
-1.6941e-19
9.79375e-12
-5.32519e-09
-1.5881e-17
2.22587e-08
0
-1.98887e-12
6.38037e-16
0
-5.62228e-09
-2.9913e-17
0
-1.93686e-12
5.5564e-18
0
1.72348e-18
1.98861e-12
-9.8645e-18
-1.15003e-17
1.0649e-08
-1.68568e-18
0
2.06106e-12
-1.09453e-17
1.12436e-08
2.17474e-17
-8.08251e-20
-7.16788e-12
-4.96786e-13
-2.20406e-08
0
1.76692e-08
5.25583e-24
-1.60708e-17
0
1.19757e-17
7.38253e-34
2.42099e-18
2.44985e-18
-8.23493e-19
-1.43029e-17
-8.36413e-20
-7.98361e-18
2.51721e-17
8.3862e-20
-7.09697e-14
-2.32424e-12
1.08674e-08
0
-1.16088e-08
-3.94366e-20
1.63228e-13
0
-8.59052e-09
3.20923e-33
1.01486e-19
1.1619e-20
-7.39398e-19
1.26623e-18
0
-5.32826e-19
2.23322e-18
6.4988e-20
-1.5081e-13
4.30721e-25
3.97474e-18
2.70953e-17
0
-3.25282e-34
-1.56981e-09
0
0
-6.49625e-20
-1.36334e-19
3.48203e-34
3.19606e-19
-4.14285e-18
9.50498e-19
0
-8.79007e-19
0
1.43812e-18
4.63788e-20
1.3491e-20
6.18491e-20
-5.29446e-20
-4.23078e-34
0
0
0
0
0
0
0
0
0
0
0
0
0
0
0
0
0
0
0
0
0
0
0
0
0
0
0
0
-3.1885e-18
0
2.39594e-17
2.15225e-17
4.30041e-17
8.54913e-22
2.15078e-17
3.17645e-33
3.12806e-18
-5.40901e-18
-1.13895e-17
3.19751e-17
2.24776e-33
-1.07712e-17
4.29361e-17
0
3.06493e-18
1.13551e-12
5.14651e-10
-1.61753e-17
1.2052e-17
2.99093e-16
7.95539e-18
1.24812e-18
3.22025e-18
-1.69581e-17
-1.88036e-17
7.98982e-18
-2.39225e-17
3.62028e-20
0
-1.2947e-18
-3.89499e-18
1.88584e-17
-9.2497e-18
2.14365e-17
-1.51853e-17
-1.20117e-17
-8.10449e-18
-2.27372e-17
0
0
2.30186e-19
6.4038e-18
3.58761e-18
0
-4.0516e-17
0
-7.79265e-18
1.8519e-17
0
6.76085e-18
-1.58212e-17
0
1.56013e-18
-1.32125e-18
1.50599e-18
-1.43161e-17
8.23004e-20
-7.45255e-19
2.55773e-18
7.92068e-18
-2.52488e-17
0
9.75218e-18
9.07847e-18
-5.96334e-18
0
2.98322e-16
-9.83885e-34
5.2161e-18
0
-3.91211e-18
7.67268e-34
-1.9819e-18
-5.52706e-18
-8.97201e-18
-2.2503e-17
8.58984e-20
7.9655e-18
-1.18341e-17
3.34463e-32
-4.38666e-19
4.6972e-35
9.15595e-17
-7.19797e-34
-1.76928e-18
-3.63628e-18
0
0
0
-8.07005e-17
1.725e-33
1.26942e-19
-2.86239e-18
5.40749e-18
1.17866e-17
2.44087e-17
2.15678e-17
1.06075e-33
1.12116e-19
4.29095e-17
-8.07229e-36
-2.13301e-19
1.54265e-17
-2.68083e-17
1.8554e-17
-3.06474e-17
1.04065e-17
4.34898e-35
1.74975e-17
2.6642e-18
-8.5101e-20
-3.61942e-12
7.05256e-12
2.76781e-12
-4.95808e-10
0
4.93608e-10
1.82958e-08
0
5.39824e-09
2.40414e-17
0
2.72344e-12
-2.13512e-17
-8.49998e-20
3.21905e-18
-3.02671e-18
8.07833e-18
-7.47254e-18
8.04103e-18
-2.00202e-17
0
-1.81858e-12
8.01403e-18
-1.07929e-08
-2.80681e-17
-8.23e-20
2.90973e-12
1.20364e-17
2.85873e-10
0
6.27237e-16
-3.27626e-24
2.93837e-17
0
-1.33888e-17
-8.22309e-20
-3.3919e-18
1.20328e-17
5.99218e-18
-2.91753e-17
-8.34189e-20
1.06809e-17
-1.87232e-17
-2.57858e-31
6.43469e-18
4.03549e-20
-1.33552e-17
2.65732e-16
0
-7.00377e-17
-1.7879e-15
1.32168e-19
3.54842e-13
0
-1.16327e-10
0
1.52687e-18
1.47182e-18
2.86577e-18
-9.79888e-18
2.95817e-18
3.56748e-17
-1.32186e-19
-1.12605e-18
2.98068e-18
-4.53734e-20
-3.54843e-13
-4.84719e-11
0
0
0
4.07312e-33
1.38476e-18
-2.35203e-18
5.13112e-20
0
0
0
0
0
0
0
0
0
0
0
0
0
0
0
0
0
0
0
0
0
0
0
0
0
0
1.61902e-17
-5.7145e-33
-1.23659e-17
-1.78437e-17
-5.29746e-18
-1.74611e-17
1.841e-17
5.37629e-17
-8.07807e-33
2.16053e-17
5.3689e-18
0
3.22801e-17
-4.40844e-25
-3.03408e-18
-4.53128e-09
3.63719e-13
-6.09226e-12
-4.60602e-09
-6.06918e-18
-3.63714e-13
9.06255e-09
9.18531e-09
-9.09292e-13
-2.11551e-33
-5.54792e-18
1.04333e-17
2.27319e-19
-8.27077e-20
0
-5.35548e-18
1.60885e-17
7.90079e-20
1.71892e-18
-2.34198e-12
-7.80667e-13
0
-2.0468e-08
-1.82633e-08
3.0631e-18
-5.4037e-18
1.89422e-18
-9.96006e-35
-1.15587e-17
1.07875e-17
0
1.61697e-18
1.90891e-20
-7.93309e-18
-1.06599e-17
1.71997e-17
3.14564e-18
5.33578e-18
1.69827e-17
-8.36628e-20
0
-2.39238e-18
8.36677e-20
1.81199e-17
1.01841e-11
2.90976e-12
0
7.64533e-10
1.79791e-08
1.07389e-17
2.52489e-17
-1.67198e-19
-1.32781e-17
-8.35657e-20
4.68932e-18
-8.15747e-19
-2.63636e-18
7.94495e-18
-2.00798e-17
2.65596e-18
-3.28876e-20
2.4123e-18
-1.04804e-18
0
0
-1.64003e-18
0
1.09208e-18
-3.2916e-20
-5.54304e-19
-8.79024e-19
-4.86959e-20
-1.64835e-18
3.02212e-18
-2.49925e-19
9.22602e-13
-2.83887e-13
-1.86956e-08
0
-3.78376e-08
6.45328e-20
0
2.762e-33
-3.86545e-19
-1.02745e-17
-7.78044e-18
3.28938e-17
1.29086e-19
0
0
0
0
3.10666e-18
6.21332e-18
2.42989e-17
1.08184e-17
7.54766e-17
-5.39103e-18
3.23051e-17
-2.03041e-33
-2.94143e-18
1.61743e-17
2.39005e-17
3.22016e-17
-2.05741e-33
-2.67575e-17
5.3704e-17
0
-2.75166e-18
-3.27108e-18
-1.33315e-17
1.20653e-17
-1.19813e-17
1.07446e-17
0
-3.67143e-17
-2.00102e-17
1.21469e-17
-1.7318e-17
2.6938e-18
0
2.96297e-12
2.12528e-08
-6.68301e-18
4.96785e-12
-1.01015e-10
2.58779e-18
1.45814e-18
-2.23975e-17
-6.63262e-18
5.31705e-18
-1.19011e-17
8.03108e-18
0
7.57537e-18
-4.96783e-12
-7.5217e-18
0
-1.35634e-09
1.71866e-19
5.96258e-18
2.11797e-17
0
-3.56658e-18
-3.95013e-18
-1.7226e-19
3.8405e-18
-4.96092e-20
-7.14827e-18
-5.87228e-18
-8.59069e-20
2.236e-18
-2.66254e-18
-7.42029e-18
-1.58607e-17
1.5607e-19
-3.63983e-18
-1.44552e-18
4.16012e-18
0
-2.7304e-16
8.23339e-20
1.32915e-17
0
-2.55728e-18
-1.56018e-19
-5.85449e-19
1.05687e-17
4.94038e-18
5.44999e-18
-1.64603e-19
1.0342e-17
-9.39898e-18
7.01907e-32
-1.43917e-19
0
1.37832e-16
-3.85252e-34
-1.03217e-18
-9.82871e-19
0
0
0
0
0
0
0
0
0
0
0
0
0
0
0
0
0
0
0
0
0
0
0
0
-5.62846e-18
0
3.04748e-17
-2.14864e-17
3.23387e-17
1.60182e-17
2.14242e-17
1.63507e-24
-5.15482e-09
4.91695e-09
-4.42648e-09
-5.89961e-13
4.84941e-09
3.20836e-12
-1.12472e-08
1.07527e-08
5.89938e-13
8.85345e-09
-3.20839e-12
-9.69974e-09
-5.14854e-24
-4.35415e-09
-9.50045e-09
8.49497e-20
-1.97372e-10
-2.90972e-12
-1.44155e-12
1.20017e-25
1.80943e-08
0
2.57133e-25
-2.22959e-08
-4.83219e-10
8.44532e-12
-8.4453e-12
0
9.09285e-13
8.03251e-18
3.93307e-10
-2.4094e-17
-1.72851e-19
1.35621e-17
-4.80719e-17
1.3146e-19
8.06317e-18
3.37253e-26
2.22535e-08
5.39366e-12
-4.3439e-09
8.48176e-13
1.2094e-17
1.54582e-15
-2.09959e-17
1.78418e-18
-8.47197e-13
8.68776e-09
-2.76983e-18
-3.23251e-17
1.38764e-08
6.19173e-20
0
1.50489e-09
7.6445e-20
-1.41935e-13
1.95166e-13
0
-2.17804e-08
4.2582e-13
7.11293e-18
0
5.62075e-18
-1.7994e-33
-1.04841e-21
-1.84806e-18
5.47387e-18
6.32287e-19
-2.07959e-08
8.21373e-20
0
1.94992e-08
8.06049e-20
-1.49034e-12
-2.39522e-12
-5.6776e-13
0
-2.13268e-08
2.88483e-09
-2.30656e-13
2.06913e-17
-1.6431e-19
1.16897e-17
8.05674e-20
3.09467e-18
-2.91585e-18
-1.18047e-18
2.38536e-17
1.29289e-18
-5.80929e-18
2.31994e-24
0
-6.41401e-34
0
0
0
0
0
1.61903e-17
6.39535e-33
3.10181e-19
-9.13272e-18
-1.61713e-17
1.76682e-17
0
3.22804e-17
1.8597e-33
-2.59692e-18
-5.42239e-17
1.81267e-17
3.21789e-17
8.9084e-34
-3.03675e-18
-2.14683e-17
1.1516e-17
2.16752e-17
8.05641e-25
-4.55189e-09
1.33362e-12
-2.10653e-11
-4.78073e-09
-1.33363e-12
9.10511e-09
9.47064e-09
-2.66726e-12
9.98011e-18
8.36634e-20
0
8.70096e-18
-2.77184e-18
-2.54527e-24
8.67373e-18
-2.33341e-11
-7.0969e-12
0
-2.20912e-08
9.71656e-11
-1.25948e-17
2.8887e-19
1.58378e-17
8.36021e-20
1.23626e-17
-1.56021e-18
0
6.27375e-18
-2.39384e-18
2.69588e-18
0
-1.06638e-17
-4.76017e-18
-8.0827e-18
2.19993e-18
1.17411e-33
0
1.74335e-17
7.90037e-20
-2.01596e-19
6.38723e-12
1.7742e-12
0
4.10791e-08
5.35151e-10
-2.1457e-17
-1.79356e-18
0
2.54778e-17
0
-1.4666e-18
7.74361e-19
4.01677e-18
-1.97685e-17
2.63468e-17
-8.06097e-18
-1.66602e-19
7.09696e-13
-2.96297e-12
1.63674e-09
0
-2.12128e-08
1.29056e-19
-4.25812e-13
0
-1.48836e-08
8.33061e-20
-2.53615e-19
-2.99423e-18
-5.76559e-18
2.97947e-17
-6.45422e-20
5.47143e-19
-3.31163e-18
0
2.60306e-18
-1.04802e-18
0
-8.35265e-25
0
0
1.81336e-18
-1.93263e-18
4.86843e-20
0
0
0
0
0
0
0
0
0
0
0
0
0
0
0
0
0
0
0
0
-1.84075e-17
3.41441e-22
1.09029e-17
-1.08785e-17
1.07153e-17
1.42295e-33
1.51859e-17
-1.53151e-17
-2.43403e-21
-1.78191e-17
0
2.15499e-17
2.16358e-33
-1.33021e-19
-1.63659e-17
2.6642e-19
4.48485e-17
0
-1.35597e-17
-5.24563e-09
2.40524e-17
-3.42509e-16
0
-1.07718e-12
1.26204e-15
8.54947e-20
5.74864e-09
1.58469e-17
0
6.98751e-12
-1.86057e-17
8.45026e-20
-3.1554e-18
1.07784e-12
-1.55956e-19
2.2205e-17
1.04902e-08
-3.55609e-17
0
-5.57699e-12
2.55385e-18
-1.14905e-08
-2.64688e-17
0
7.20332e-18
-6.54464e-18
-5.31536e-18
-1.35481e-17
9.71975e-18
-1.0631e-17
-1.93265e-18
-1.32438e-17
3.98523e-18
0
1.91398e-17
1.06289e-17
-8.56094e-20
1.27743e-12
4.2804e-18
2.28321e-08
-1.81827e-33
1.54082e-17
8.77763e-20
-3.67843e-33
1.06177e-09
4.32912e-12
-1.72587e-33
-3.65196e-18
3.97845e-18
2.28653e-17
-8.66774e-18
8.77426e-20
-1.32936e-17
1.17264e-18
0
9.42319e-18
2.64427e-17
-3.18362e-17
0
1.2564e-15
1.66709e-19
-4.79923e-18
-5.36899e-18
0
-2.45997e-17
-5.23047e-18
8.52463e-20
-9.8067e-19
8.40486e-20
-1.00603e-17
-4.82687e-17
8.33258e-20
-1.31492e-18
5.44918e-18
3.04534e-18
-1.31253e-18
-3.33813e-09
-1.58609e-24
0
-7.70249e-20
-5.32288e-14
-3.83234e-12
0
-2.88887e-08
2.09224e-18
1.23307e-33
-3.8523e-20
9.45351e-19
-1.11381e-18
8.80977e-18
0
0
0
0
0
0
-1.82391e-17
0
-6.73722e-17
5.00831e-18
1.12129e-17
1.06352e-17
2.15959e-17
2.01712e-24
5.01311e-09
-8.6005e-11
1.09474e-08
-1.69746e-10
-2.48486e-24
-1.69712e-10
-4.57948e-09
-6.70121e-10
1.89837e-10
-8.78821e-10
-3.64169e-10
-5.60359e-13
9.19336e-09
-2.1128e-12
-4.32016e-10
-6.27947e-27
-2.14263e-08
5.5356e-12
-4.70472e-09
-2.00142e-08
-4.27588e-12
-1.94472e-08
1.79198e-12
9.28357e-10
-8.10566e-18
1.30706e-19
1.05271e-12
9.341e-09
1.43853e-18
-4.84567e-18
1.5087e-18
-1.79758e-17
-8.49526e-20
-5.73633e-09
7.09692e-12
-5.21327e-12
1.55635e-25
-7.1058e-12
8.65862e-20
7.86135e-26
-1.783e-08
5.5356e-12
8.48817e-20
2.66726e-12
8.03236e-18
1.14647e-08
-4.0107e-18
8.64177e-20
-6.40998e-18
1.08081e-17
2.07963e-08
0
0
-1.8607e-08
-1.93998e-08
8.05985e-20
7.80666e-13
-9.65181e-12
-2.38826e-18
0
-4.42826e-08
-5.65931e-17
6.3872e-13
3.37092e-13
2.09568e-18
0
-2.56801e-18
2.9528e-18
-8.05749e-20
6.19103e-18
-4.67421e-18
-2.62979e-18
3.03643e-18
-5.15274e-18
-6.88394e-18
1.44351e-18
-1.34944e-08
0
0
3.82231e-20
-1.41932e-13
2.1823e-12
0
5.62124e-09
9.76098e-18
6.19292e-20
0
-8.57237e-20
-5.21492e-19
7.86326e-18
-3.65112e-24
0
-4.71827e-34
0
0
0
0
0
0
0
0
0
0
0
0
0
0
0
0
0
-2.16913e-17
5.21977e-35
1.23249e-17
6.15335e-18
1.89858e-19
2.1959e-17
-1.50145e-34
-3.86314e-19
1.66484e-19
-1.23246e-17
3.26217e-17
1.10615e-24
4.96159e-09
-1.67664e-11
-2.08885e-08
2.27102e-12
-2.57262e-12
3.74672e-08
-1.66944e-10
1.84609e-08
-2.06066e-08
1.08542e-08
-2.13373e-19
-1.45446e-17
-1.52552e-18
-2.77278e-18
-3.33964e-18
1.09188e-17
1.4046e-12
3.56899e-10
-3.25521e-24
5.09224e-09
-5.0473e-09
-1.89994e-08
-1.9394e-10
-1.86284e-08
1.1112e-08
3.98758e-12
1.00543e-08
-5.21919e-13
4.02302e-10
2.45642e-24
-1.89227e-17
4.04524e-12
1.06454e-12
1.66292e-17
0
2.11963e-08
3.94322e-11
0
1.60155e-17
0
-1.32767e-17
1.07688e-33
-3.5239e-18
7.4412e-19
-3.99379e-18
2.20994e-17
-5.70095e-18
-6.54558e-24
0
8.06423e-18
-1.20023e-17
-9.12594e-18
-8.20346e-20
0
2.15122e-18
1.86607e-17
0
-1.14797e-17
1.41937e-12
0
-1.76377e-08
-4.41743e-18
-3.18555e-17
-1.25117e-17
8.19942e-20
-2.33085e-19
2.92587e-17
8.66451e-20
-1.47187e-18
-4.0005e-18
1.00614e-17
-1.15891e-19
-1.04766e-17
0
-1.27745e-12
2.09294e-08
0
-8.58954e-20
0
2.196e-17
-1.45402e-17
-1.27235e-19
1.12628e-18
1.49373e-17
-1.66082e-33
4.25193e-17
-5.83689e-18
8.17745e-20
2.83885e-13
-1.68552e-12
1.18049e-09
0
-1.88482e-08
5.33606e-20
4.25809e-13
0
1.1994e-08
-8.17576e-20
-1.74795e-19
-7.16376e-18
-1.75167e-17
2.26978e-17
0
-4.1431e-19
1.04735e-17
0
0
0
0
0
0
-6.74248e-17
-1.08785e-17
-2.15959e-17
2.15864e-17
1.09029e-17
-6.89546e-34
-1.51863e-17
-1.20382e-17
-2.74488e-17
4.32613e-17
-1.07598e-31
2.11311e-17
7.74338e-35
3.49887e-18
2.01169e-21
0
-1.15592e-18
0
-5.5081e-09
-4.41931e-12
-9.29794e-18
8.23146e-22
5.38796e-18
1.06314e-17
-9.48773e-18
5.88618e-18
3.57655e-12
1.10122e-08
-9.29987e-18
0
-2.04683e-19
1.0629e-17
-1.13102e-17
-6.65515e-18
-8.45691e-20
-1.12131e-11
1.88102e-10
1.04284e-17
-2.17179e-08
0
1.21281e-12
-9.46908e-17
3.2282e-24
2.40334e-17
0
-2.26381e-17
-5.53302e-25
-8.32651e-18
-1.21239e-12
1.46701e-17
2.17542e-17
-3.75356e-10
-1.69433e-17
-8.53544e-20
1.35351e-17
-2.11993e-17
2.56083e-19
1.07873e-11
1.07982e-17
2.21959e-08
0
-1.08622e-16
-8.33692e-20
2.7839e-19
5.46463e-12
0
-3.00375e-18
2.15168e-08
-1.75556e-19
-1.70325e-12
-2.89198e-12
7.82905e-34
1.1053e-09
-1.95533e-08
-1.70485e-19
-1.64088e-18
-1.33126e-18
5.61908e-18
-1.94797e-17
8.33125e-20
0
1.5915e-18
-4.35562e-18
-8.98772e-18
8.77372e-20
2.12638e-18
-1.40697e-18
-7.19469e-18
5.48508e-19
-3.01432e-24
-1.9339e-12
3.75047e-34
-1.71196e-08
8.55832e-20
1.41887e-18
-5.32105e-18
9.41859e-09
3.97953e-25
0
-2.10937e-25
-7.09685e-14
6.91951e-13
0
-1.42497e-10
-3.33949e-09
-2.26683e-24
-1.15562e-19
8.16142e-13
1.03645e-18
-3.01651e-18
0
0
0
0
0
0
0
0
0
0
0
0
0
0
-3.04159e-17
-1.58477e-18
-6.71133e-17
1.53533e-19
3.21569e-17
4.93508e-18
-2.25532e-19
3.62108e-25
1.83591e-17
4.50976e-09
-2.52429e-17
9.83931e-09
6.93795e-34
-2.13617e-17
2.1156e-17
-4.07615e-24
2.34198e-12
1.82746e-12
-8.44519e-18
8.48918e-20
1.41926e-13
3.17586e-12
-1.50224e-10
0
-1.42929e-08
1.66678e-08
7.88311e-20
-5.37786e-09
-1.57966e-17
0
-1.32477e-12
1.72388e-17
0
-2.0691e-08
2.13414e-08
1.69765e-19
2.66066e-18
-3.20704e-18
-6.8489e-20
1.5191e-18
7.92556e-19
-7.25761e-18
9.39407e-18
2.92443e-17
4.35369e-18
9.84859e-18
1.80166e-17
-1.57486e-19
1.33363e-12
-7.89811e-18
1.07551e-08
1.9854e-17
-8.59513e-20
6.31628e-12
-5.57085e-09
5.69829e-18
8.02839e-10
0
-4.20122e-12
-1.29571e-17
-8.50072e-20
-2.78884e-18
0
7.42465e-22
6.2764e-26
2.8672e-18
4.20048e-12
4.20523e-18
-2.79801e-17
1.11397e-08
-7.01751e-18
0
5.71831e-18
-7.17088e-20
-5.27702e-20
-6.5139e-18
1.18873e-12
8.9364e-18
0
9.00386e-09
8.14355e-20
-2.80771e-17
0
3.09394e-17
-5.27814e-20
-2.08626e-18
-2.70153e-18
1.17932e-17
7.70127e-18
0
-1.12228e-17
4.22023e-17
-5.37659e-20
0
-1.90949e-16
-9.8045e-18
-8.24263e-34
1.12245e-17
-2.75171e-18
5.52156e-26
0
1.48446e-34
-4.02729e-24
0
-6.73539e-34
0
0
0
0
0
0
0
-2.12364e-17
-1.35622e-34
-1.23249e-17
-1.23204e-17
-2.15808e-17
-1.89858e-19
-1.23246e-17
2.17478e-17
2.89715e-34
-4.82642e-18
2.1959e-17
7.19784e-25
6.23641e-18
5.09216e-09
-5.04681e-09
-1.89986e-08
7.91011e-12
-1.86296e-08
2.07062e-17
1.1112e-08
3.85451e-12
1.00542e-08
-2.9071e-18
-2.11135e-17
3.00043e-34
5.71036e-18
3.74094e-16
-2.6614e-13
2.83877e-12
1.75647e-08
1.23812e-11
1.8462e-08
2.06069e-08
1.61382e-18
-4.56308e-18
-2.85765e-18
3.06901e-18
5.17306e-19
9.37433e-18
-5.35742e-18
-1.07983e-17
-9.85927e-18
-8.20366e-20
0
5.49558e-18
3.41355e-18
-8.68793e-20
-1.3981e-17
-9.50482e-18
0
2.68508e-16
-2.39441e-17
-1.70545e-18
-8.50191e-20
0
-1.47941e-17
-1.59397e-17
2.1889e-17
1.60537e-17
-1.36846e-17
-2.05623e-34
1.74075e-17
7.26856e-18
0
-4.85477e-18
5.72469e-18
5.34772e-18
-9.09806e-20
-2.32049e-19
8.49733e-20
-1.88515e-17
-3.93735e-18
5.93425e-18
1.07272e-17
-1.71236e-31
-4.08461e-19
1.3206e-18
0
-1.33022e-16
-1.40493e-15
-8.29953e-20
5.4061e-18
1.3363e-18
8.83823e-18
2.66289e-17
0
4.96778e-13
-9.93578e-13
1.17984e-09
0
-1.91835e-08
-4.74507e-25
2.12904e-13
1.71759e-19
3.42426e-12
7.80647e-13
0
1.19902e-08
0
2.09302e-08
1.93024e-08
1.74943e-33
2.9203e-18
-4.18883e-18
-4.20452e-18
3.97892e-17
-5.33619e-20
-4.43476e-19
-1.71732e-19
1.83357e-18
-4.37576e-18
6.83849e-18
-1.54909e-18
1.60885e-17
-6.36274e-20
0
-6.36205e-20
0
0
0
0
0
0
0
0
0
0
0
-2.73999e-17
3.22756e-34
-1.8654e-19
-6.04661e-18
-2.19096e-17
-7.48173e-19
4.72963e-17
1.00625e-17
-6.60414e-34
-3.13181e-17
-2.20512e-17
-2.41622e-17
5.48553e-17
0
3.67617e-17
2.41295e-12
4.40125e-10
-1.06398e-17
3.19362e-12
-1.85265e-08
1.61247e-17
-2.51649e-17
6.03982e-18
-1.22103e-17
-1.73355e-17
3.79825e-18
-2.27837e-17
5.30508e-18
0
-5.33733e-18
3.20136e-17
-6.99478e-24
1.02174e-24
4.0116e-19
-5.90486e-17
0
0
5.02138e-20
-2.12896e-13
0
1.87175e-08
-1.43068e-33