/*--------------------------------*- C++ -*----------------------------------*\
| =========                 |                                                 |
| \\      /  F ield         | OpenFOAM: The Open Source CFD Toolbox           |
|  \\    /   O peration     | Version:  5.x                                   |
|   \\  /    A nd           | Web:      www.OpenFOAM.org                      |
|    \\/     M anipulation  |                                                 |
\*---------------------------------------------------------------------------*/
FoamFile
{
    version     2.0;
    format      ascii;
    class       volScalarField;
    location    "0.8";
    object      nut;
}
// * * * * * * * * * * * * * * * * * * * * * * * * * * * * * * * * * * * * * //

dimensions      [0 2 -1 0 0 0 0];

internalField   nonuniform List<scalar> 
12160
(
9.73621e-10
9.29763e-10
1.27117e-07
9.75036e-10
1.33116e-07
1.74815e-07
9.68671e-10
6.64504e-08
9.49907e-08
4.04429e-08
9.96775e-10
8.55105e-08
7.18735e-08
4.57648e-08
3.31485e-08
1.01161e-09
4.88883e-08
1.86082e-07
7.83011e-08
2.95031e-08
1.40334e-08
1.07354e-09
2.82894e-08
6.62052e-08
1.68316e-07
3.55213e-08
1.97765e-08
1.28694e-08
1.15297e-09
1.79975e-08
3.01906e-08
4.68147e-08
5.91848e-08
3.34754e-08
1.03576e-08
4.18089e-09
1.28044e-09
1.41746e-08
1.82832e-08
2.3811e-08
4.99352e-08
3.73789e-08
1.43314e-08
5.63266e-09
2.6795e-09
1.45192e-09
1.20858e-08
1.42237e-08
1.54362e-08
2.29861e-08
3.12051e-08
2.07316e-08
1.18501e-08
3.07305e-09
3.65356e-09
1.68043e-09
1.1453e-08
1.20808e-08
1.23314e-08
1.52371e-08
1.84949e-08
2.19648e-08
9.17447e-09
4.46583e-09
4.73421e-09
1.01088e-09
1.97789e-09
1.151e-08
1.14509e-08
1.07367e-08
1.24822e-08
1.29202e-08
1.51165e-08
6.35475e-09
5.86377e-09
4.27837e-09
2.84714e-09
1.54822e-09
2.3613e-09
1.21412e-08
1.15225e-08
1.03282e-08
1.10533e-08
1.03989e-08
1.07187e-08
4.73048e-09
3.33997e-09
3.58591e-09
5.70831e-09
3.33844e-09
5.80588e-09
2.85267e-09
1.32615e-08
1.21726e-08
1.0512e-08
1.08178e-08
9.15213e-09
9.11821e-09
4.22945e-09
2.44984e-09
3.7546e-09
1.97459e-09
6.15095e-09
3.22019e-09
2.74021e-09
3.48149e-09
1.48737e-08
1.33242e-08
1.11945e-08
1.1178e-08
8.92951e-09
8.72167e-09
4.13571e-09
1.98278e-09
2.90886e-09
2.48608e-09
3.30518e-09
1.38352e-08
5.25607e-09
3.05972e-09
4.28836e-09
1.70102e-08
1.49752e-08
1.23194e-08
1.20591e-08
9.19247e-09
9.21189e-09
4.25328e-09
1.69876e-09
2.25184e-09
3.64831e-09
1.46701e-09
6.43742e-09
9.74523e-09
5.59525e-09
5.33089e-09
1.97189e-08
1.71562e-08
1.39001e-08
1.34156e-08
9.86099e-09
1.01657e-08
4.42383e-09
1.534e-09
2.13738e-09
3.60133e-09
1.06933e-09
5.15436e-09
1.29824e-08
1.62597e-08
6.69555e-09
2.30494e-08
1.99218e-08
1.59787e-08
1.52733e-08
1.09041e-08
1.15313e-08
4.51963e-09
1.44694e-09
2.67607e-09
2.15737e-09
9.04e-10
9.85586e-09
6.11727e-09
2.99398e-08
8.52056e-09
2.70287e-08
2.33309e-08
1.86183e-08
1.76881e-08
1.23499e-08
1.32667e-08
4.52435e-09
1.43023e-09
4.81535e-09
1.01284e-09
9.05946e-10
1.58074e-08
3.89608e-09
5.60774e-09
1.10468e-08
3.16195e-08
2.74241e-08
2.18892e-08
2.07464e-08
1.4249e-08
1.54058e-08
4.46102e-09
1.50847e-09
5.36462e-09
9.3797e-10
1.04319e-09
7.89818e-09
3.64449e-09
3.74459e-09
1.47364e-08
3.66603e-08
3.21829e-08
2.58493e-08
2.45547e-08
1.66738e-08
1.80229e-08
4.37061e-09
1.70203e-09
3.73547e-09
1.02788e-09
1.40425e-09
6.69481e-09
4.76248e-09
4.53372e-09
2.05633e-08
4.17993e-08
3.74686e-08
3.05103e-08
2.92292e-08
1.97083e-08
2.12447e-08
4.28119e-09
2.03406e-09
3.07877e-09
1.15356e-09
2.10403e-09
8.49839e-09
8.68671e-09
5.9795e-09
3.06393e-08
4.6488e-08
4.29564e-08
3.57748e-08
3.48697e-08
2.3436e-08
2.52546e-08
4.21489e-09
2.58438e-09
2.78717e-09
1.33313e-09
3.28266e-09
1.14714e-08
2.0096e-08
1.18235e-08
4.63978e-08
5.00371e-08
4.80656e-08
4.13535e-08
4.14942e-08
2.79131e-08
3.03126e-08
4.19077e-09
3.46793e-09
2.76887e-09
1.60549e-09
4.95597e-09
1.27993e-08
2.06192e-08
4.60224e-08
4.7377e-08
5.18061e-08
5.19921e-08
4.66757e-08
4.89152e-08
3.31111e-08
3.67863e-08
4.22992e-09
4.80881e-09
2.90603e-09
2.02541e-09
7.13328e-09
1.36457e-08
1.64547e-08
3.64966e-08
3.18157e-08
5.14747e-08
5.39781e-08
5.08842e-08
5.6508e-08
3.88191e-08
4.5182e-08
4.36838e-09
6.80889e-09
3.12959e-09
2.67503e-09
9.8188e-09
1.41531e-08
1.54211e-08
2.3396e-08
2.15364e-08
4.91784e-08
5.36133e-08
5.30765e-08
6.29758e-08
4.4502e-08
5.61338e-08
4.67255e-09
9.05756e-09
3.42975e-09
3.65258e-09
1.32584e-08
1.46398e-08
1.54122e-08
2.08253e-08
1.5626e-08
4.54556e-08
5.10558e-08
5.27273e-08
6.65675e-08
4.91966e-08
7.00796e-08
5.28379e-09
1.0108e-08
3.79205e-09
5.17172e-09
1.79e-08
1.55875e-08
1.58527e-08
2.04561e-08
1.19183e-08
4.09847e-08
4.69581e-08
5.00076e-08
6.60447e-08
5.17479e-08
8.57477e-08
6.55248e-09
9.25013e-09
4.24081e-09
7.48269e-09
2.29634e-08
1.75142e-08
1.68418e-08
2.10091e-08
9.40082e-09
3.63363e-08
4.20996e-08
4.56876e-08
6.17141e-08
5.14046e-08
9.70897e-08
9.64714e-09
7.78742e-09
4.9048e-09
1.10417e-08
2.80382e-08
2.10259e-08
1.87289e-08
2.24261e-08
7.59162e-09
3.19025e-08
3.71319e-08
4.06639e-08
5.51783e-08
4.83602e-08
9.55549e-08
2.19599e-08
6.68907e-09
6.08172e-09
1.6489e-08
3.39655e-08
2.68562e-08
2.20885e-08
2.511e-08
6.239e-09
2.79013e-08
3.24719e-08
3.56204e-08
4.8057e-08
4.36299e-08
8.27627e-08
4.57468e-08
6.07344e-09
8.6919e-09
2.49963e-08
4.0029e-08
3.62393e-08
2.79962e-08
2.98675e-08
5.19935e-09
2.44123e-08
2.83112e-08
3.09595e-08
4.1334e-08
3.83042e-08
6.76938e-08
1.2753e-08
5.97051e-09
1.58911e-08
3.79333e-08
4.23402e-08
5.32046e-08
3.82894e-08
3.82173e-08
4.38406e-09
2.14348e-08
2.47098e-08
2.68532e-08
3.54243e-08
3.31341e-08
5.48902e-08
7.83149e-09
6.36343e-09
2.09001e-08
4.87606e-08
4.55373e-08
8.67064e-08
5.53172e-08
5.29751e-08
3.73511e-09
1.89293e-08
2.16525e-08
2.33361e-08
3.04067e-08
2.8494e-08
4.49498e-08
6.04503e-09
7.18494e-09
1.10119e-08
5.09298e-08
4.71275e-08
1.12809e-07
7.72054e-08
8.20525e-08
3.21267e-09
1.68434e-08
1.909e-08
2.03748e-08
2.6219e-08
2.45007e-08
3.73464e-08
5.20709e-09
8.34197e-09
7.23212e-09
4.25866e-08
4.75505e-08
9.82093e-08
9.053e-08
1.48583e-07
2.78833e-09
1.51213e-08
1.69619e-08
1.79084e-08
2.27535e-08
2.11428e-08
3.14751e-08
4.77414e-09
9.36626e-09
5.62854e-09
2.87287e-08
4.57172e-08
9.15614e-08
9.08557e-08
2.83943e-07
2.44143e-09
1.37149e-08
1.52073e-08
1.58692e-08
1.98975e-08
1.83559e-08
2.68727e-08
4.54805e-09
9.37245e-09
4.77997e-09
1.87433e-08
4.16894e-08
9.33771e-08
8.84085e-08
3.25241e-07
2.15608e-09
1.25776e-08
1.37742e-08
1.41927e-08
1.75491e-08
1.60603e-08
2.32097e-08
4.44013e-09
8.11124e-09
4.24565e-09
1.28877e-08
3.77848e-08
7.72658e-08
8.28005e-08
2.5832e-07
1.92182e-09
1.16993e-08
1.26131e-08
1.28242e-08
1.5621e-08
1.41783e-08
2.02524e-08
4.40507e-09
6.40889e-09
3.85167e-09
9.09761e-09
3.28861e-08
5.20373e-08
7.00001e-08
1.87092e-07
1.10112e-08
1.61913e-09
1.17121e-08
1.17135e-08
1.40433e-08
1.26406e-08
1.78323e-08
4.41714e-09
4.93244e-09
3.52869e-09
6.59379e-09
2.7407e-08
3.62384e-08
5.27908e-08
1.20828e-07
1.09953e-08
1.02851e-08
1.32429e-09
1.0845e-08
1.27549e-08
1.13897e-08
1.58265e-08
4.46087e-09
3.85867e-09
3.26715e-09
4.91814e-09
2.33172e-08
2.75574e-08
3.86373e-08
7.7151e-08
1.01428e-08
1.02478e-08
1.00245e-08
1.13544e-09
1.17385e-08
1.03744e-08
1.41453e-08
4.52429e-09
3.07987e-09
3.06352e-09
3.75964e-09
1.99155e-08
2.20359e-08
2.90416e-08
5.288e-08
1.08862e-08
9.37999e-09
9.92135e-09
1.09281e-08
1.02359e-09
9.5743e-09
1.27171e-08
4.5974e-09
2.53066e-09
2.90711e-09
2.95977e-09
1.65294e-08
1.83306e-08
2.3054e-08
3.94162e-08
8.91249e-09
9.96583e-09
8.91253e-09
1.05928e-08
1.32449e-08
9.62011e-10
1.15137e-08
4.67189e-09
2.15056e-09
2.82772e-09
2.3858e-09
1.331e-08
1.58876e-08
1.91672e-08
3.11106e-08
1.04244e-08
8.21715e-09
9.26582e-09
9.13246e-09
1.22714e-08
1.20993e-08
9.04539e-10
4.738e-09
1.88621e-09
2.83684e-09
1.97765e-09
1.07455e-08
1.42789e-08
1.66846e-08
2.58228e-08
4.73967e-09
9.18765e-09
7.69761e-09
9.20046e-09
9.73084e-09
1.19367e-08
1.06113e-08
1.11402e-09
1.68712e-09
2.91e-09
1.68166e-09
8.65405e-09
1.32099e-08
1.5072e-08
2.2404e-08
1.50734e-09
4.66084e-09
7.90734e-09
7.66103e-09
9.50848e-09
9.30451e-09
1.27592e-08
2.44442e-09
6.74664e-10
2.9337e-09
1.45338e-09
6.84955e-09
1.24266e-08
1.39915e-08
2.01601e-08
3.03841e-09
1.40303e-09
4.62386e-09
7.22842e-09
8.04334e-09
9.61503e-09
8.49424e-09
3.9503e-09
5.65138e-09
1.1723e-09
1.25433e-09
5.26339e-09
1.17475e-08
1.32326e-08
1.86435e-08
1.15473e-09
6.14021e-09
1.48618e-09
4.44378e-09
7.16748e-09
8.54778e-09
9.84083e-09
4.58142e-09
8.44506e-09
3.06037e-09
6.75301e-10
3.95481e-09
1.1104e-08
1.27015e-08
1.76199e-08
3.11773e-09
1.03901e-09
4.02269e-09
1.58903e-09
4.34664e-09
7.72371e-09
9.16718e-09
7.62059e-09
6.48842e-09
2.51928e-08
2.74275e-09
9.05803e-10
1.023e-08
1.24386e-08
1.70165e-08
1.20118e-08
2.10048e-09
9.63289e-10
2.19244e-09
1.71375e-09
4.4824e-09
9.43138e-09
1.12948e-08
4.8491e-09
2.22915e-08
1.07461e-08
4.09738e-09
1.20491e-09
2.59466e-10
1.23658e-08
1.69516e-08
1.51783e-08
1.30506e-08
1.24818e-09
1.1597e-09
1.79152e-09
1.85277e-09
5.06236e-09
1.56915e-08
8.09435e-09
8.19184e-09
1.49295e-08
9.83592e-09
8.72948e-10
1.06708e-09
2.60061e-09
2.41698e-10
1.75864e-08
2.20436e-08
2.23612e-08
8.35317e-09
9.40195e-10
2.33174e-09
1.74661e-09
2.04102e-09
6.93191e-09
1.43566e-08
4.23214e-09
1.01524e-08
1.29121e-08
7.57767e-10
8.02872e-10
8.99464e-10
1.49503e-09
4.49432e-09
2.37597e-10
3.48695e-08
2.32023e-08
6.28953e-09
8.37887e-10
2.82273e-09
1.93612e-09
2.41261e-09
8.67024e-09
3.37956e-09
5.3893e-09
1.03982e-08
1.18569e-09
7.6614e-10
7.94838e-10
1.06034e-09
1.12363e-09
1.96736e-09
5.25829e-09
2.41394e-10
5.00673e-08
8.77669e-09
5.80248e-09
8.17883e-10
2.53837e-09
2.37095e-09
2.96982e-09
3.65361e-09
2.63371e-09
6.6993e-09
1.735e-09
1.05904e-09
8.40984e-10
1.02299e-09
1.58541e-09
1.27366e-09
1.34391e-09
2.296e-09
3.12585e-09
2.45141e-10
1.11368e-08
4.88541e-09
6.7918e-09
8.63174e-10
2.44454e-09
2.4979e-09
2.7816e-09
1.93854e-09
3.27094e-09
2.01467e-09
1.46759e-09
1.05908e-09
1.09731e-09
1.30244e-09
7.38391e-09
2.31965e-09
1.7418e-09
1.59006e-09
2.01573e-09
2.19652e-09
2.602e-10
5.82701e-09
3.62515e-09
1.43743e-08
9.98045e-10
2.24e-09
2.05874e-09
1.98153e-09
1.8438e-09
1.79773e-09
1.74194e-09
1.39255e-09
1.3884e-09
1.34391e-09
2.63617e-09
7.07055e-10
3.60156e-08
7.20481e-10
5.85023e-10
5.87582e-10
4.50461e-09
2.2782e-09
1.68945e-09
1.60539e-09
1.64653e-09
2.77069e-10
4.29991e-09
3.13952e-09
1.73824e-08
1.32207e-09
1.55201e-09
1.69461e-09
1.6489e-09
1.63494e-09
1.70354e-09
1.76034e-09
1.76963e-09
1.5475e-09
2.13606e-09
1.50394e-08
9.25591e-10
1.5203e-09
8.72977e-09
9.40514e-10
1.10586e-09
1.11692e-09
1.61829e-09
1.09823e-09
1.11994e-09
9.755e-09
2.78196e-09
1.68498e-09
1.31203e-09
1.43337e-09
3.02874e-10
2.85803e-09
2.99771e-09
7.3145e-09
2.20091e-09
1.22979e-09
1.6438e-09
1.70719e-09
1.6525e-09
1.92026e-09
2.0513e-09
2.0551e-09
2.03834e-09
4.8686e-09
8.17765e-10
7.99256e-10
6.47395e-10
6.41469e-10
2.15817e-09
4.28114e-09
8.21078e-09
1.0659e-08
2.3543e-09
4.26855e-09
4.56914e-09
4.36568e-09
2.62836e-09
2.60848e-09
9.44935e-09
2.81718e-09
1.64806e-09
1.24867e-09
1.28264e-09
3.35566e-10
2.86076e-09
3.0978e-09
5.1831e-09
7.03792e-09
1.23245e-09
1.7895e-09
1.70341e-09
1.92555e-09
1.99108e-09
2.67595e-09
1.92818e-09
4.07223e-09
5.05328e-10
5.02498e-10
4.69535e-10
4.69163e-10
1.78877e-09
1.73551e-09
1.00509e-09
9.93915e-10
5.0461e-09
1.98381e-09
2.51819e-09
1.88481e-09
2.53977e-09
9.16638e-09
1.13043e-08
3.80621e-09
3.78692e-09
4.18078e-09
4.1783e-09
5.21111e-09
4.05462e-09
4.10242e-09
1.95121e-09
2.30774e-09
1.85859e-09
2.32535e-09
1.66398e-09
2.33795e-09
1.7922e-09
2.53233e-09
1.72947e-09
2.06284e-09
1.94027e-09
2.28796e-09
8.25875e-09
3.06343e-09
1.69442e-09
1.23017e-09
1.17339e-09
3.80751e-10
3.10977e-09
3.35853e-09
5.22623e-09
4.92459e-09
1.22313e-09
1.82825e-09
1.94664e-09
1.99149e-09
2.38088e-09
2.20688e-09
3.39047e-09
4.16947e-10
4.17418e-10
3.93115e-10
3.93752e-10
8.44913e-10
8.39873e-10
7.42579e-10
7.41727e-10
1.62297e-09
1.80331e-09
1.44714e-09
1.16822e-09
1.8456e-09
2.01188e-09
1.78889e-09
1.5734e-09
1.47753e-09
1.10674e-09
2.00426e-09
2.03463e-09
8.23713e-10
1.81352e-09
8.50254e-10
1.74834e-09
8.02571e-10
1.86199e-09
8.24671e-10
1.79227e-09
2.34937e-09
2.32956e-09
2.14382e-09
2.38618e-09
3.20118e-09
2.07843e-09
3.79646e-09
2.03207e-09
9.93752e-09
1.41198e-08
3.62471e-09
3.62034e-09
3.65684e-09
3.64248e-09
3.11842e-09
3.07616e-09
3.04983e-09
2.98726e-09
2.30356e-09
2.15957e-09
2.1504e-09
2.22682e-09
2.73044e-09
2.51163e-09
2.26581e-09
2.2412e-09
2.66818e-09
2.38077e-09
2.25322e-09
2.14522e-09
3.22153e-09
1.96397e-09
3.75613e-09
1.95177e-09
2.43867e-09
1.96793e-09
2.46597e-09
1.90489e-09
9.75247e-09
2.97029e-09
1.79667e-09
1.2021e-09
1.08332e-09
4.43595e-10
3.46388e-09
4.1713e-09
5.40524e-09
2.4136e-09
1.15563e-09
2.24791e-09
2.22121e-09
2.19109e-09
2.70236e-09
2.53714e-09
3.8176e-10
3.81886e-10
3.75841e-10
3.77099e-10
6.76103e-10
6.76953e-10
6.53576e-10
6.55479e-10
7.50079e-10
1.42807e-09
6.90246e-10
1.57567e-09
7.36638e-10
1.44576e-09
6.65732e-10
1.68794e-09
5.90238e-10
1.46381e-09
5.90313e-10
1.60117e-09
5.76614e-10
1.53827e-09
5.71929e-10
1.74445e-09
1.72996e-09
1.41239e-09
1.83006e-09
1.91952e-09
1.21926e-09
1.66603e-09
1.67562e-09
1.36041e-09
1.95421e-09
1.83483e-09
1.17373e-09
1.75352e-09
1.00066e-09
1.7232e-09
1.04349e-09
1.63827e-09
9.76429e-10
1.76308e-09
1.01099e-09
1.70137e-09
5.8919e-09
2.0371e-09
4.6662e-09
1.98656e-09
4.17118e-09
2.11965e-09
4.81269e-09
2.05328e-09
1.04848e-08
1.47107e-08
3.66839e-09
3.68802e-09
3.64516e-09
3.65252e-09
3.33348e-09
3.33606e-09
3.26835e-09
3.24965e-09
1.76672e-09
7.29125e-09
1.68478e-09
7.40287e-09
1.71793e-09
7.40913e-09
1.64944e-09
7.86195e-09
1.58197e-09
1.73242e-09
1.42931e-08
1.60989e-09
8.20024e-09
3.88304e-09
1.57102e-09
1.70335e-09
1.68987e-08
1.58553e-09
9.17105e-09
3.9581e-09
6.12767e-09
1.93352e-09
4.72838e-09
1.9087e-09
6.79306e-09
1.84645e-09
7.2373e-09
1.80115e-09
3.93298e-09
2.02697e-09
5.08536e-09
1.93665e-09
2.81392e-09
1.9268e-09
2.72396e-09
1.84455e-09
8.37096e-09
2.95311e-09
1.88151e-09
1.34562e-09
1.04666e-09
5.29704e-10
4.07884e-09
4.44941e-09
4.99344e-09
1.72005e-09
9.05744e-10
2.88561e-09
2.64818e-09
3.73366e-09
2.58111e-09
3.91588e-10
3.92511e-10
3.63183e-10
3.63342e-10
6.02941e-10
6.04128e-10
6.06825e-10
6.09276e-10
5.29152e-10
1.39245e-09
5.08355e-10
1.74218e-09
5.18218e-10
1.47e-09
4.99973e-10
1.84268e-09
4.59638e-10
2.40051e-09
4.84789e-10
2.26803e-09
4.57637e-10
2.44591e-09
4.81201e-10
2.35676e-09
9.14168e-10
1.54915e-09
8.71191e-10
1.58951e-09
8.97637e-10
1.57222e-09
8.46691e-10
1.66226e-09
7.65238e-10
1.52048e-09
8.08117e-10
1.47182e-09
7.54487e-10
1.55185e-09
7.92055e-10
1.51524e-09
9.07546e-09
1.96177e-09
6.29473e-09
1.75687e-09
1.25791e-08
1.3312e-08
3.93547e-09
3.98342e-09
3.7983e-09
3.8334e-09
3.50903e-09
3.5549e-09
3.37963e-09
3.40583e-09
1.89453e-09
4.49848e-09
1.88558e-09
5.80799e-09
1.85569e-09
4.63264e-09
1.83058e-09
5.96485e-09
1.82608e-09
7.06192e-09
1.85176e-09
6.93059e-09
1.76994e-09
7.11588e-09
1.80207e-09
7.06402e-09
2.03822e-09
7.86089e-09
1.92294e-09
8.64932e-09
1.93929e-09
7.26129e-09
1.84315e-09
7.82652e-09
1.60676e-09
1.75208e-09
8.72502e-09
1.06434e-08
1.83817e-09
9.72806e-09
1.59021e-09
1.70707e-09
7.53448e-09
9.15535e-09
1.78075e-09
8.41833e-09
9.57681e-09
1.97674e-09
7.85308e-09
1.77509e-09
1.18452e-08
1.67856e-09
1.04183e-08
1.691e-09
6.80152e-09
3.14916e-09
2.26917e-09
1.86013e-09
1.18779e-09
6.48982e-10
4.48188e-09
5.17395e-09
4.35725e-09
1.50271e-09
6.84296e-10
4.04187e-09
3.90936e-09
4.45557e-09
3.40845e-09
6.08431e-10
6.10157e-10
5.41106e-10
5.42386e-10
8.39047e-10
8.39852e-10
7.7339e-10
7.78553e-10
6.53104e-10
1.52355e-09
6.17033e-10
1.84295e-09
6.40784e-10
1.58729e-09
6.07715e-10
1.92452e-09
5.3598e-10
1.89189e-09
5.56539e-10
2.13518e-09
5.32429e-10
1.92337e-09
5.52914e-10
2.17871e-09
7.30988e-10
1.61862e-09
7.1943e-10
1.67225e-09
1.94788e-08
1.38869e-08
5.38412e-09
5.4413e-09
4.18678e-09
4.24421e-09
4.24745e-09
4.33428e-09
3.87339e-09
3.94474e-09
2.39068e-09
3.41134e-09
2.06866e-09
3.62288e-09
2.32199e-09
3.36205e-09
2.0422e-09
3.69571e-09
1.93873e-09
3.85216e-09
2.02686e-09
3.80353e-09
1.90902e-09
4.01373e-09
2.00134e-09
3.92361e-09
2.3122e-09
1.09307e-08
2.3754e-09
7.97177e-09
2.2261e-09
9.74233e-09
2.25178e-09
7.38076e-09
2.13446e-09
7.23996e-09
2.28412e-09
7.15896e-09
2.01984e-09
6.7353e-09
2.15656e-09
6.64623e-09
6.75683e-09
3.83458e-09
3.59037e-09
3.38037e-09
1.85209e-09
8.01909e-10
5.16855e-09
5.20068e-09
4.30636e-09
1.36072e-09
6.92974e-10
6.47956e-09
4.98424e-09
6.63968e-09
3.92773e-10
3.92895e-10
4.84624e-10
4.83851e-10
7.55349e-10
7.58498e-10
6.4167e-10
6.4448e-10
2.64879e-09
5.05234e-10
2.20009e-09
4.87674e-10
2.68149e-09
5.07625e-10
2.15935e-09
4.8744e-10
2.91749e-09
4.71509e-10
3.14393e-09
4.70432e-10
2.88723e-09
4.72469e-10
3.14413e-09
4.7157e-10
6.94033e-10
1.55412e-09
6.61455e-10
1.85689e-09
6.81308e-10
1.61876e-09
6.52678e-10
1.93462e-09
6.15251e-10
1.92476e-09
6.33792e-10
2.25398e-09
6.10333e-10
1.97909e-09
6.28471e-10
2.33047e-09
1.38555e-08
1.36732e-08
3.48069e-08
3.99331e-09
4.07685e-09
4.42057e-09
4.52347e-09
4.17727e-09
4.37271e-09
4.06614e-09
4.24529e-09
2.40792e-09
6.7901e-09
2.32095e-09
1.10854e-08
2.3396e-09
5.66412e-09
2.25623e-09
1.06869e-08
2.34136e-09
1.08593e-08
2.40552e-09
1.12441e-08
2.26329e-09
1.02487e-08
2.32753e-09
1.07736e-08
2.40771e-09
8.57597e-09
2.32594e-09
7.72445e-09
6.6391e-09
4.71185e-09
6.38184e-09
5.33062e-09
2.26388e-09
9.56332e-10
5.42529e-09
9.72889e-09
3.632e-09
1.31478e-09
1.04593e-09
4.20101e-09
7.8792e-09
1.52656e-08
5.72879e-10
5.72956e-10
6.69516e-10
6.69202e-10
4.57882e-10
3.62597e-09
4.3851e-09
4.29764e-10
4.57929e-10
3.65652e-09
4.25864e-09
4.31748e-10
7.13607e-10
7.16066e-10
2.60694e-09
5.52357e-10
2.28986e-09
5.53376e-10
2.54635e-09
5.54034e-10
2.25985e-09
5.551e-10
2.64386e-09
5.36271e-10
3.02787e-09
5.44862e-10
2.56973e-09
5.3588e-10
3.02154e-09
5.47372e-10
6.05478e-10
2.11047e-09
6.02701e-10
2.14118e-09
1.10405e-08
1.7222e-08
1.81422e-08
5.78402e-09
5.99692e-09
4.64611e-09
4.80287e-09
4.9126e-09
5.11304e-09
4.15621e-09
4.35568e-09
4.08098e-09
2.02235e-09
3.26777e-09
2.04936e-09
4.36467e-09
1.98654e-09
3.51994e-09
1.99208e-09
6.40655e-09
2.24994e-09
1.51786e-08
2.11988e-09
7.34407e-09
2.2138e-09
1.33081e-08
2.08882e-09
2.39498e-09
1.32019e-08
2.41179e-09
1.02535e-08
2.33195e-09
1.03378e-08
2.33994e-09
9.48176e-09
2.38551e-09
9.36738e-09
2.41502e-09
9.39561e-09
2.31824e-09
8.5342e-09
2.33776e-09
8.71022e-09
5.78247e-09
6.40516e-09
5.20175e-09
2.22371e-09
7.28852e-10
8.04968e-09
6.78861e-09
4.40453e-09
1.31608e-09
1.29969e-09
1.21504e-09
2.29258e-08
1.35616e-09
1.3564e-09
2.07141e-09
2.06798e-09
3.76371e-10
5.37986e-09
4.02228e-10
6.03766e-09
3.74831e-10
5.64611e-09
4.00452e-10
6.29711e-09
1.05019e-09
1.04947e-09
5.18322e-10
3.18412e-09
3.31645e-09
4.70778e-10
5.16912e-10
3.2452e-09
3.20471e-09
4.73644e-10
4.16014e-10
6.91476e-09
4.20287e-10
6.29192e-09
4.15443e-10
7.07516e-09
4.22306e-10
5.99204e-09
2.77809e-09
5.70835e-10
3.09618e-09
5.51897e-10
2.74554e-09
5.7006e-10
3.08017e-09
5.5174e-10
1.03041e-08
1.34629e-08
1.84404e-08
1.38489e-07
3.0617e-09
3.20965e-09
3.42145e-09
3.61617e-09
3.63438e-09
3.87558e-09
1.96191e-09
2.91014e-09
2.66361e-09
2.33138e-09
1.93059e-09
3.12824e-09
2.58868e-09
2.1671e-09
7.43872e-09
2.61375e-09
9.45693e-09
2.5959e-09
6.29361e-09
2.55188e-09
7.39719e-09
2.49157e-09
6.32648e-09
2.78153e-09
6.73204e-09
2.85311e-09
5.40276e-09
2.60951e-09
5.66936e-09
2.71348e-09
2.67563e-09
6.40248e-09
2.58302e-09
5.75296e-09
6.97978e-09
5.04706e-09
2.14457e-09
5.47861e-10
7.29528e-09
5.81873e-09
8.73976e-09
2.35603e-09
2.24721e-09
2.95814e-09
3.35971e-09
3.36471e-09
2.35549e-10
2.35658e-10
2.35339e-09
2.35138e-09
3.68197e-09
3.67974e-09
4.54733e-10
4.07421e-09
4.8109e-10
6.68422e-09
4.52889e-10
4.24853e-09
4.80273e-10
6.75285e-09
7.07903e-09
8.14294e-10
5.95426e-09
6.53702e-10
7.11705e-09
8.11091e-10
5.96365e-09
6.52499e-10
5.66621e-10
3.20505e-09
3.07215e-09
5.18163e-10
5.66483e-10
3.19911e-09
2.95948e-09
5.21239e-10
4.76825e-10
4.2733e-09
4.71694e-10
5.7981e-09
4.75562e-10
4.43184e-09
4.73305e-10
5.51656e-09
9.57969e-09
1.42268e-08
1.36634e-08
2.41651e-08
2.82523e-09
2.9654e-09
3.06505e-09
3.23275e-09
3.03093e-09
3.2114e-09
1.65035e-09
2.20473e-09
1.90548e-09
1.96621e-09
1.77758e-09
2.60446e-09
1.94568e-09
2.15578e-09
1.79372e-09
2.5496e-09
1.92326e-09
4.53621e-09
2.97857e-09
3.63695e-09
1.92429e-09
3.16643e-09
2.1298e-09
8.04746e-09
2.71999e-09
3.28517e-09
2.34082e-09
8.69989e-09
2.29542e-09
8.59839e-09
5.19779e-09
2.62029e-09
7.35472e-09
2.60914e-09
4.55261e-09
2.70049e-09
6.04207e-09
2.61205e-09
5.02743e-09
2.03603e-09
4.22754e-10
2.29422e-08
3.96092e-09
1.59824e-09
5.95274e-09
1.15544e-08
9.14082e-09
9.056e-10
9.06408e-10
4.48251e-10
4.48477e-10
1.33503e-09
9.7828e-10
2.27632e-08
1.74772e-09
3.47991e-08
7.60146e-09
9.7636e-10
1.33537e-09
7.61727e-09
2.25093e-08
1.74829e-09
3.41815e-08
2.12353e-10
3.5981e-09
5.19925e-10
3.18635e-08
2.12242e-10
3.82282e-09
5.27287e-10
3.01385e-08
5.25414e-10
6.49089e-09
5.90925e-10
9.12908e-09
5.238e-10
6.75836e-09
5.89917e-10
9.30608e-09
5.99203e-09
7.83622e-10
6.00584e-09
7.82065e-10
4.55301e-09
5.04285e-10
4.241e-09
5.0693e-10
4.93979e-10
5.22461e-09
4.92023e-10
5.53789e-09
5.64977e-09
2.51863e-08
8.89034e-09
1.90665e-08
2.87209e-09
2.98519e-09
2.62934e-09
2.74404e-09
2.53884e-09
2.69338e-09
2.61293e-09
2.76672e-09
3.25777e-09
1.84377e-09
1.79034e-09
1.54958e-09
2.76075e-09
2.53064e-09
5.13035e-09
1.89808e-09
2.03988e-09
1.75213e-09
2.67934e-09
2.35534e-09
1.8407e-09
6.46585e-09
1.86777e-09
6.65064e-09
2.07153e-09
7.82117e-09
2.16208e-09
2.33926e-09
5.39163e-09
7.81942e-09
2.12401e-09
5.80021e-09
2.19432e-09
2.52197e-09
4.29617e-09
7.37101e-09
2.64309e-09
9.18535e-09
2.66327e-09
8.19168e-09
1.93671e-09
3.37177e-10
2.86176e-08
3.89633e-09
1.83894e-09
3.78672e-08
1.1108e-07
8.96394e-09
9.13983e-09
2.29118e-08
2.35015e-08
8.92755e-10
8.9577e-10
1.51145e-09
1.51264e-09
1.10101e-09
1.70591e-09
3.93436e-08
1.11668e-08
1.68552e-10
1.13227e-08
1.09967e-09
1.71811e-09
1.1118e-08
3.86042e-08
1.69785e-10
9.29671e-09
2.81443e-10
3.20797e-09
2.43597e-10
5.97414e-09
2.82337e-10
3.22039e-09
2.45561e-10
6.2294e-09
6.5472e-10
7.2371e-09
6.54048e-10
7.22749e-09
1.91749e-09
9.40881e-09
2.01314e-08
9.87763e-09
1.94511e-08
2.27549e-09
2.40692e-09
2.51729e-09
2.66311e-09
2.30143e-09
1.41467e-09
1.51826e-09
1.6494e-09
2.09442e-09
1.49218e-09
1.63449e-09
1.93916e-09
1.40755e-09
1.9331e-09
3.46454e-09
1.63598e-09
1.95972e-09
2.2028e-09
1.58114e-09
2.26998e-09
5.20575e-09
1.81725e-09
2.52163e-09
2.5884e-09
3.70821e-09
6.18744e-09
1.72626e-09
1.92775e-09
3.07401e-09
5.67571e-09
1.87543e-09
2.16474e-09
2.213e-09
8.50526e-09
2.31225e-09
6.83156e-09
2.08602e-09
5.21903e-09
2.28594e-09
5.1704e-09
2.2808e-09
4.2599e-09
2.30178e-09
4.23182e-09
2.76067e-10
4.98735e-09
4.62847e-09
5.75004e-09
4.6194e-07
4.25082e-07
5.09856e-09
5.50216e-09
1.29411e-08
1.34875e-08
9.0194e-09
3.67453e-10
6.69573e-09
4.82563e-10
1.00585e-08
3.71204e-10
7.38217e-09
4.89157e-10
2.04262e-09
2.17743e-09
3.48613e-10
6.83311e-09
2.19554e-10
3.58683e-09
3.51745e-10
7.3289e-09
2.20805e-10
3.70457e-09
2.31021e-10
2.1373e-09
2.61781e-08
7.89778e-09
1.80372e-08
5.33703e-09
5.53373e-09
4.32214e-09
4.59694e-09
1.10967e-08
1.10229e-08
3.5608e-09
3.86529e-09
4.08147e-09
1.8805e-09
1.68542e-09
4.08767e-09
4.91733e-09
2.20845e-09
1.8092e-09
4.66667e-09
1.43207e-09
1.83113e-09
3.05169e-09
3.56914e-09
1.97772e-09
3.90468e-09
1.56317e-09
2.08584e-09
3.09653e-09
2.63212e-09
2.23407e-09
3.57294e-09
4.36039e-09
2.06823e-09
3.38436e-09
2.2536e-09
3.16396e-09
2.07702e-09
2.96803e-07
3.20845e-06
6.40135e-08
1.09498e-08
4.60199e-07
2.28423e-07
5.95215e-09
6.56474e-09
4.06604e-09
3.18196e-09
4.36394e-09
4.27308e-10
3.50542e-09
6.25526e-10
4.38058e-09
4.35832e-10
3.47761e-09
6.36868e-10
9.33441e-10
3.9663e-09
8.60472e-10
4.61651e-09
1.00977e-09
4.23997e-09
8.95095e-10
4.08247e-09
3.85546e-10
6.25542e-09
3.88597e-10
6.48132e-09
1.98734e-10
2.97744e-09
1.01728e-08
7.76713e-09
1.86518e-08
2.14395e-09
2.42161e-09
2.40008e-09
2.74932e-09
2.52366e-09
2.91394e-09
1.49131e-09
1.52608e-09
1.80668e-09
3.92053e-09
1.66685e-09
2.07e-09
3.28232e-09
4.2218e-09
1.8607e-09
2.73581e-09
1.84216e-09
3.93673e-09
3.52557e-09
3.57571e-09
2.33592e-09
3.0712e-09
2.37122e-09
2.98787e-09
1.09845e-06
9.74761e-06
6.48892e-08
1.64696e-08
6.38742e-07
3.04552e-07
9.95794e-10
1.63894e-09
1.1505e-09
1.61018e-09
2.28131e-09
2.28985e-09
1.09445e-09
1.71126e-09
1.09546e-09
1.52906e-09
2.17671e-09
3.20214e-09
2.40846e-09
2.23221e-09
3.83266e-09
5.29715e-10
4.29953e-09
6.70703e-10
3.33326e-09
5.34745e-10
3.82267e-09
6.99896e-10
8.03525e-10
3.31491e-09
8.50458e-10
3.08759e-09
1.76166e-10
4.9072e-09
6.44843e-09
1.20709e-08
7.12684e-09
6.98555e-09
5.9635e-09
5.66507e-09
4.6926e-09
5.13227e-09
2.39279e-09
2.61513e-09
1.84527e-09
1.26858e-09
9.89223e-10
2.22698e-09
1.60136e-09
1.27651e-09
1.83788e-09
1.41875e-09
1.15679e-09
3.73892e-09
4.95982e-09
2.33535e-09
1.54879e-09
3.33172e-09
2.38354e-09
2.646e-09
2.00924e-09
3.73689e-09
4.35041e-09
1.98423e-09
1.64818e-09
2.72154e-08
5.80126e-06
1.2961e-06
8.99092e-07
3.59609e-06
2.70454e-06
1.15847e-07
1.94961e-08
1.01711e-06
5.9935e-07
9.86857e-10
1.41959e-09
9.31322e-10
1.38914e-09
1.31289e-09
2.57828e-09
1.02194e-09
1.44132e-09
9.7654e-10
1.41329e-09
1.22036e-09
3.18191e-09
8.33244e-09
1.97291e-09
1.36846e-09
2.87076e-09
2.06304e-09
1.39471e-09
2.35015e-09
1.20594e-09
1.60822e-10
3.53965e-09
6.22898e-09
2.31641e-08
2.51419e-09
2.50092e-09
2.66799e-09
2.73125e-09
2.49962e-09
2.65437e-09
2.61438e-09
1.44207e-09
1.25206e-09
1.01854e-09
1.89074e-09
2.20581e-09
1.27917e-09
1.13612e-09
2.73702e-09
1.84949e-09
3.91086e-09
1.80251e-09
1.39659e-09
1.15e-09
1.88377e-09
2.61709e-09
1.52873e-09
1.37074e-09
1.86824e-09
1.87244e-09
1.22468e-09
2.61933e-09
1.40897e-09
1.86886e-09
1.84032e-09
2.96586e-07
0.000105218
3.56935e-06
2.31893e-06
2.13399e-05
1.63324e-05
7.66021e-09
6.57523e-09
4.79915e-07
2.02108e-07
5.23102e-08
3.69704e-07
1.58966e-09
5.83925e-09
4.90344e-08
2.80845e-09
9.4907e-09
2.17037e-07
9.53962e-07
6.90957e-07
1.54546e-09
1.02717e-09
1.83644e-09
1.0569e-09
1.36491e-09
6.48644e-09
1.35984e-09
2.76689e-09
1.54569e-10
3.16721e-09
8.99657e-09
3.34031e-09
3.17388e-09
2.9387e-09
2.87354e-09
2.84412e-09
2.88133e-09
2.24626e-09
2.32278e-09
1.29913e-09
1.1672e-09
9.90019e-10
1.81293e-09
3.70803e-09
1.46973e-09
1.31854e-09
3.81449e-09
1.68793e-09
1.24498e-09
1.08765e-09
2.30468e-09
1.21026e-09
2.05691e-09
1.54252e-09
1.74412e-09
1.64122e-09
1.31263e-09
1.84572e-09
1.83461e-09
1.60396e-09
5.57401e-06
0.000537541
2.48975e-05
1.52222e-05
0.000201961
0.000157853
2.77009e-08
4.88332e-08
6.60788e-07
2.49128e-07
1.52788e-07
4.03589e-07
1.59473e-09
5.07487e-09
1.57e-07
1.71869e-08
1.23357e-07
3.63753e-07
4.14741e-06
1.3323e-06
1.16408e-06
1.0467e-06
2.33294e-06
8.02679e-07
1.17149e-06
5.6915e-07
1.43384e-08
4.35475e-08
1.1946e-09
4.66885e-09
1.55614e-10
3.28797e-09
9.7791e-09
2.03006e-09
2.05443e-09
2.46739e-09
2.51152e-09
2.36605e-09
2.43187e-09
1.79474e-09
1.44976e-09
1.1503e-09
1.10839e-09
1.63255e-09
1.27998e-09
1.67729e-09
1.42341e-09
1.21271e-09
1.18167e-09
1.89973e-09
1.2838e-09
1.12514e-09
1.21724e-09
2.17148e-09
1.5667e-09
1.30843e-09
1.52019e-09
1.16095e-09
2.23099e-09
5.15536e-08
0.000304866
0.000601862
0.000583757
0.000542627
0.000580246
0.000791077
0.000733804
0.000288549
7.34289e-06
2.45997e-06
0.000178629
3.87915e-06
1.48394e-06
5.53867e-08
8.46299e-08
1.24572e-06
5.77689e-07
6.27335e-07
5.73263e-07
3.81725e-09
5.56382e-08
5.37115e-07
1.85207e-07
2.85757e-07
9.13183e-07
1.25673e-06
2.58013e-06
1.15626e-06
2.78321e-06
1.53174e-10
2.40002e-09
7.6809e-09
3.21265e-09
3.40751e-09
2.7132e-09
2.86279e-09
1.53873e-09
1.00409e-09
1.16764e-09
1.34098e-09
2.34145e-09
1.3443e-09
1.72858e-09
2.13487e-09
1.42441e-09
1.10399e-09
1.36537e-09
1.5992e-09
1.4717e-09
2.47614e-09
1.43811e-09
3.46109e-09
1.5101e-09
2.61933e-09
1.48684e-09
3.60168e-09
1.33447e-09
1.93112e-09
1.3633e-09
1.97465e-09
3.89771e-06
0.000474949
0.000672214
0.000571332
0.000648193
0.000559495
0.000685756
0.000656905
0.000492153
4.194e-05
1.66775e-05
2.70046e-05
6.0087e-06
0.000353527
0.000690155
0.000685033
1.77136e-05
0.000430289
1.01865e-05
1.25335e-05
3.32586e-06
0.000323509
0.000631248
0.000668807
1.67661e-06
1.05618e-06
1.86724e-06
1.45993e-06
2.80061e-06
4.36766e-06
3.15461e-06
4.2835e-06
1.72815e-10
2.63519e-09
2.19344e-09
2.12244e-09
2.28896e-09
2.48672e-09
2.1703e-09
2.37501e-09
1.78109e-09
2.08135e-09
1.24439e-09
1.94243e-09
2.0512e-09
1.40098e-09
2.10884e-09
9.48515e-10
2.79797e-09
2.24488e-09
2.50283e-09
3.59143e-09
1.14698e-09
2.77753e-09
2.02673e-09
2.43844e-09
1.87561e-09
1.99261e-09
2.05712e-09
2.14947e-09
1.91388e-09
1.97039e-09
0.000231466
0.000593938
0.000610717
0.000726179
0.000686551
0.00059442
0.000603354
0.000744184
0.000677032
0.000590832
0.000654256
0.000641393
0.000215493
0.000569275
8.44703e-06
8.21478e-06
0.000206909
0.000411545
8.87952e-05
1.1581e-05
0.000510856
7.85566e-06
8.19476e-05
0.000415905
2.6294e-06
2.95346e-06
3.82687e-06
4.62755e-06
2.22402e-10
2.83327e-09
9.92474e-10
4.17947e-09
4.46046e-09
1.19945e-09
1.34637e-09
1.60711e-09
1.09599e-09
2.40084e-09
1.15799e-09
2.48707e-09
1.16044e-09
1.4624e-09
1.7687e-09
1.02052e-09
1.24836e-09
2.50625e-09
1.39386e-09
2.47548e-09
1.22773e-09
2.04207e-09
1.6335e-09
1.07702e-09
1.36568e-09
9.39685e-10
2.97889e-09
2.20488e-09
1.72498e-09
2.33445e-09
1.04418e-09
2.39633e-09
0.000485106
0.000722305
0.000653566
0.000650606
0.000716972
0.000727079
0.000707981
0.000559081
0.000677002
0.000552998
0.000583301
0.000582189
0.000676467
0.000509664
0.000576622
0.000638404
0.000537975
0.000631924
0.000557034
0.000693325
0.000548166
0.000592977
0.000587179
0.000668645
0.000497206
0.000578693
0.000640605
0.000543939
0.000627766
0.000459885
0.000561922
0.000355119
0.000493828
0.000399896
0.000554589
0.000340214
0.000518699
2.96251e-10
2.63443e-09
1.48052e-09
1.65557e-09
1.56649e-09
4.78222e-09
2.00406e-09
1.71644e-09
2.88626e-09
1.84797e-09
1.55015e-09
1.86175e-09
1.16212e-09
2.44908e-09
1.27177e-09