/*--------------------------------*- C++ -*----------------------------------*\
| =========                 |                                                 |
| \\      /  F ield         | OpenFOAM: The Open Source CFD Toolbox           |
|  \\    /   O peration     | Version:  5.x                                   |
|   \\  /    A nd           | Web:      www.OpenFOAM.org                      |
|    \\/     M anipulation  |                                                 |
\*---------------------------------------------------------------------------*/
FoamFile
{
    version     2.0;
    format      ascii;
    class       volScalarField;
    location    "0.8";
    object      omega;
}
// * * * * * * * * * * * * * * * * * * * * * * * * * * * * * * * * * * * * * //

dimensions      [0 0 -1 0 0 0 0];

internalField   nonuniform List<scalar> 
12160
(
0.0719999
0.0719999
0.00444485
0.0719999
0.00803367
0.00147252
0.0719999
0.0106977
0.00199619
0.00129354
0.0719999
0.0102688
0.00250185
0.00149035
0.00127854
0.0719999
0.00978342
0.00238427
0.00162182
0.00141776
0.00144994
0.0719999
0.00897596
0.00228047
0.0015749
0.00147409
0.00155641
0.00151237
0.0719999
0.00830114
0.00210185
0.00154176
0.00144912
0.00153408
0.00177418
0.00200921
0.0719999
0.00748754
0.00196304
0.00147432
0.00144096
0.00150565
0.00167149
0.00207346
0.00754127
0.0719999
0.00666897
0.00179637
0.00142597
0.00139933
0.00148644
0.00159189
0.00190942
0.00529998
0.00699246
0.0719999
0.0058402
0.00164432
0.00136163
0.00136413
0.00145092
0.00153888
0.00196129
0.00407397
0.00723919
0.0120313
0.0719999
0.00505681
0.00150296
0.00130549
0.00131279
0.00141819
0.00148016
0.00193916
0.00443812
0.00629652
0.00754849
0.00541205
0.0719999
0.00435093
0.00138354
0.00125118
0.00126742
0.00136676
0.00142458
0.00193259
0.00468931
0.00538471
0.00844587
0.00385718
0.00292611
0.0719999
0.00373819
0.00128789
0.00120394
0.00122216
0.0013165
0.0013555
0.0018908
0.00459281
0.00414736
0.0106472
0.0033677
0.00269833
0.00269591
0.0719999
0.00322067
0.00121438
0.00116404
0.00118204
0.00126516
0.00129375
0.0018602
0.00427139
0.00364289
0.0093663
0.00656777
0.00204731
0.00201062
0.00198522
0.0719999
0.0027926
0.00115934
0.00113124
0.00114746
0.0012188
0.00123719
0.00185402
0.00385676
0.00343216
0.00828976
0.0089085
0.00212362
0.00192661
0.00154444
0.0719999
0.00244431
0.00111876
0.00110465
0.00111857
0.00117833
0.00119028
0.00186775
0.00343524
0.00308045
0.00764962
0.00951945
0.00213996
0.00188058
0.00145744
0.0719999
0.00216496
0.00108907
0.0010833
0.00109485
0.00114409
0.00115219
0.00189542
0.00301823
0.00271219
0.00731417
0.00770169
0.00216623
0.00195467
0.0015512
0.0719999
0.00194357
0.00106737
0.00106628
0.00107562
0.00111566
0.00112167
0.00192651
0.00262017
0.00248832
0.00635265
0.00552237
0.00238298
0.00183879
0.00165322
0.0719999
0.00177153
0.00105152
0.00105272
0.00106015
0.0010924
0.00109722
0.0019524
0.00225288
0.00242672
0.00472849
0.00377028
0.00218024
0.00168656
0.00156584
0.0719999
0.00163994
0.00104001
0.00104202
0.00104773
0.00107358
0.00107761
0.00196748
0.00193575
0.00239618
0.00356149
0.00260731
0.00178545
0.00150445
0.00141971
0.0719999
0.00154313
0.0010317
0.00103368
0.00103786
0.00105846
0.00106182
0.00196862
0.00168123
0.00233618
0.00279192
0.00195465
0.00150024
0.00134934
0.0013017
0.0719999
0.00147585
0.00102581
0.00102728
0.00103009
0.00104642
0.00104905
0.00195369
0.00149289
0.0022575
0.00226098
0.00159244
0.00134055
0.00127083
0.00122106
0.0719999
0.00143412
0.00102178
0.00102248
0.00102403
0.00103698
0.00103866
0.00192201
0.00136256
0.00217174
0.0018845
0.00138399
0.00125043
0.00123011
0.00118956
0.0719999
0.00141406
0.00101927
0.00101903
0.00101938
0.00102966
0.00103026
0.00187174
0.00127735
0.00208761
0.00161826
0.00125764
0.00119389
0.00119836
0.00117421
0.0719999
0.00141427
0.00101807
0.00101679
0.00101594
0.0010241
0.00102345
0.00180132
0.00122845
0.00200593
0.00143213
0.00117843
0.00115444
0.00116858
0.00115449
0.0719999
0.00143391
0.00101806
0.00101568
0.00101363
0.00102004
0.00101792
0.0017095
0.00120839
0.00192255
0.00130302
0.00112739
0.00112388
0.0011411
0.00113191
0.0719999
0.00147319
0.0010192
0.00101565
0.00101243
0.00101735
0.00101346
0.00159323
0.00121449
0.00183181
0.00121488
0.00109371
0.00109798
0.00111605
0.00110989
0.0719999
0.00153278
0.00102151
0.00101667
0.00101239
0.00101598
0.00101004
0.00145488
0.00124117
0.00172816
0.00115412
0.00107147
0.00107543
0.00109294
0.00108964
0.0719999
0.00161392
0.00102505
0.0010187
0.00101346
0.00101591
0.00100785
0.00130104
0.00128283
0.00160597
0.00111425
0.00105602
0.00105613
0.00107215
0.00107101
0.0719999
0.00171803
0.00102996
0.00102171
0.00101556
0.00101713
0.00100767
0.00114477
0.0013295
0.00146656
0.00108866
0.00104626
0.00104
0.00105408
0.00105435
0.0719999
0.00184672
0.00103645
0.00102571
0.00101859
0.00101953
0.00100967
0.00103333
0.00136555
0.00131845
0.00107495
0.00104209
0.0010279
0.00103863
0.00103978
0.0719999
0.00200199
0.0010448
0.00103078
0.00102251
0.00102306
0.00101287
0.00114262
0.00137297
0.00117795
0.00106941
0.00104132
0.00102043
0.00102657
0.00102715
0.0719999
0.00218605
0.00105542
0.00103699
0.00102737
0.00102769
0.00101692
0.00127924
0.0013511
0.00109809
0.0010662
0.00104043
0.00101873
0.00101891
0.00101656
0.0719999
0.00240137
0.00106877
0.00104446
0.00103323
0.0010335
0.00102175
0.00140517
0.00130964
0.00117773
0.00106092
0.00103902
0.00102137
0.00101566
0.00100904
0.0719999
0.00265025
0.00108544
0.00105333
0.00104021
0.00104056
0.00102739
0.00151185
0.00126513
0.00130013
0.0010619
0.00103795
0.00102438
0.00101461
0.00100579
0.0719999
0.00293481
0.00110613
0.00106376
0.00104843
0.001049
0.00103394
0.00159753
0.0012294
0.00142074
0.00106525
0.00103878
0.00102485
0.00101371
0.00100514
0.0719999
0.00325657
0.00113165
0.00107589
0.00105801
0.00105897
0.00104151
0.00166374
0.00120849
0.00152792
0.00107383
0.00104028
0.00102278
0.00101278
0.00100491
0.0719999
0.00361682
0.00116288
0.00108992
0.00106909
0.0010706
0.00105024
0.00171304
0.00120505
0.0016188
0.00109049
0.00104204
0.00102013
0.001013
0.00100439
0.0719999
0.00402014
0.00120085
0.00110601
0.00108181
0.00108405
0.00106026
0.0017482
0.00121973
0.00169455
0.00111639
0.00104493
0.0010203
0.0010141
0.00100442
0.00451197
0.0719999
0.00124704
0.00112442
0.0010963
0.00109943
0.00107173
0.00177148
0.00125257
0.00175877
0.00115272
0.00105107
0.00102501
0.00101681
0.00100531
0.00130989
0.0052603
0.0719999
0.00114542
0.00111271
0.00111689
0.00108483
0.00178456
0.00130374
0.00181588
0.00120131
0.00106119
0.00103367
0.00102242
0.00100806
0.00117275
0.00141472
0.00654002
0.0719999
0.0011312
0.00113657
0.00109974
0.00178888
0.00137425
0.0018692
0.00126487
0.00107498
0.00104585
0.0010314
0.00101361
0.001155
0.00121487
0.00162373
0.00793449
0.0719999
0.00115864
0.00111673
0.0017857
0.00146609
0.00192146
0.00134694
0.00109286
0.0010603
0.00104338
0.00102173
0.00118628
0.00119065
0.00129313
0.0018996
0.00943328
0.0719999
0.00113616
0.00177614
0.00158107
0.00197422
0.00145167
0.0011163
0.00107649
0.0010576
0.00103158
0.00116082
0.00122745
0.00125375
0.00139387
0.00227161
0.0112842
0.0719999
0.00176169
0.0017225
0.00203022
0.00158388
0.00114702
0.0010943
0.00107336
0.00104279
0.00174737
0.00119927
0.00129865
0.00133
0.00153184
0.00292369
0.0160714
0.0719999
0.00190222
0.00209844
0.00175067
0.00118767
0.00111355
0.00109034
0.00105516
0.00214563
0.00173533
0.00126997
0.0013799
0.00142229
0.00179452
0.00478227
0.0320543
0.0719999
0.002185
0.00196579
0.00124205
0.00113466
0.00110822
0.00106849
0.00224512
0.00245559
0.00168624
0.00135574
0.00146698
0.00156355
0.00257087
0.0111973
0.0522317
0.0719999
0.00225421
0.00131775
0.00115788
0.00112691
0.00108284
0.00258378
0.00218106
0.00276992
0.00166603
0.00144614
0.00156706
0.00189608
0.00532556
0.0245856
0.0884995
0.0719999
0.00142711
0.0011846
0.0011457
0.00109783
0.00156219
0.00321959
0.00216826
0.00298921
0.00165732
0.00153083
0.00172032
0.00300832
0.0124314
0.0434629
0.0877094
0.076639
0.00121623
0.00116452
0.00111287
0.00124017
0.00184564
0.00421931
0.00232202
0.00305596
0.00164225
0.00160185
0.00210921
0.00642422
0.0243567
0.0591142
0.0686351
0.00360448
0.0568889
0.00118183
0.00112761
0.00119068
0.00130206
0.00256197
0.00516367
0.00249414
0.00297752
0.00159603
0.00170076
0.00339869
0.0132747
0.0381425
0.0553435
0.00517654
0.00376467
0.00305486
0.0568889
0.00114031
0.00114825
0.00120916
0.00148184
0.00368074
0.00518834
0.00260311
0.00276908
0.00152159
0.00212514
0.00682904
0.0227226
0.0416536
0.00880599
0.00447192
0.00547017
0.00377482
0.00329032
0.0568889
0.00116117
0.00125123
0.00176302
0.00496399
0.00484885
0.00263097
0.00247177
0.00159176
0.00358932
0.012177
0.0283785
0.01045
0.00592442
0.00563006
0.00746071
0.00573977
0.00421106
0.00387968
0.0568889
0.00117523
0.00132545
0.00204859
0.00618094
0.00470791
0.00267012
0.00223808
0.00218041
0.00628503
0.0167404
0.00997041
0.00676605
0.0062703
0.00717707
0.00837997
0.00781172
0.00637119
0.00492021
0.00465824
0.0568889
0.00120418
0.00144153
0.00214191
0.00708985
0.00479261
0.00287758
0.0022959
0.00339854
0.00893239
0.00795681
0.0069191
0.00703282
0.00716714
0.0080508
0.0107545
0.00893859
0.00819556
0.00716314
0.00590962
0.00552808
0.0568889
0.00126992
0.00155802
0.00191321
0.00696983
0.00485747
0.0032797
0.00274089
0.00480058
0.00590199
0.00649088
0.00739362
0.00719044
0.00782985
0.00946345
0.0193048
0.0129429
0.0194884
0.0183138
0.0183566
0.00981093
0.0087705
0.00809645
0.00704376
0.00648316
0.0568889
0.00135951
0.00165938
0.00169376
0.00573542
0.00485179
0.00382309
0.00337142
0.00426276
0.00580588
0.00694916
0.00706908
0.00767013
0.00860457
0.0137717
0.021027
0.0230387
0.0157126
0.0211986
0.0220756
0.0222007
0.0237682
0.02231
0.0225303
0.0110718
0.00958081
0.00902553
0.0081263
0.00748887
0.0568889
0.00147686
0.00176668
0.00166433
0.00414158
0.00487108
0.00439742
0.00361661
0.00473515
0.00603394
0.0066371
0.00734498
0.00805332
0.0105665
0.018006
0.0177963
0.0172966
0.0172194
0.023667
0.0259742
0.0181845
0.0243188
0.024811
0.0233007
0.0242294
0.0262163
0.023908
0.0238456
0.0126092
0.0104983
0.00974451
0.00894075
0.00888771
0.0568889
0.00157816
0.00186147
0.00173745
0.00286612
0.00490816
0.00479571
0.00411251
0.0048017
0.00616948
0.00674912
0.00775052
0.00874918
0.0152201
0.0151785
0.0146174
0.0146136
0.0210028
0.0206865
0.0196156
0.0195058
0.0291908
0.0264719
0.0309742
0.0272526
0.0297656
0.0197879
0.0263065
0.0355787
0.0354923
0.0338853
0.0338456
0.0294557
0.0318267
0.0319545
0.0263384
0.0307619
0.0272456
0.0295307
0.024829
0.0261163
0.0236946
0.0282538
0.0245574
0.0257552
0.0234269
0.0279799
0.0137317
0.0111861
0.0100988
0.00987015
0.0112567
0.0568889
0.00161739
0.00194073
0.00184754
0.00224548
0.00507539
0.00542366
0.00447498
0.0052386
0.00619915
0.00725473
0.00781998
0.0132601
0.013269
0.0128203
0.0128319
0.0179073
0.0178525
0.0174966
0.0174831
0.0272894
0.0269842
0.0224469
0.025032
0.0215457
0.0229578
0.0267748
0.0269432
0.0220849
0.0245656
0.0212111
0.0226599
0.0224145
0.0198435
0.0229195
0.020141
0.0222393
0.0197127
0.0226775
0.0199867
0.0301716
0.0320981
0.0290676
0.0330689
0.0253682
0.0312025
0.0262304
0.0302548
0.020443
0.02934
0.0377711
0.0377511
0.0368309
0.0367693
0.036426
0.0361739
0.034962
0.0345949
0.0300585
0.0318688
0.0289281
0.0328135
0.0316116
0.0343748
0.0328043
0.0338676
0.0314466
0.0341165
0.0326674
0.0335941
0.0250639
0.0309199
0.0259416
0.0300044
0.0242526
0.0289862
0.0239411
0.0287681
0.0143042
0.0116646
0.0103135
0.0115285
0.0155716
0.0568889
0.00162115
0.00194603
0.00197378
0.00228929
0.00552301
0.0060446
0.0050999
0.00534767
0.00628579
0.00736334
0.0119597
0.0119625
0.0116882
0.0117088
0.0163253
0.016333
0.0157568
0.0157762
0.0213586
0.0185516
0.021128
0.0184402
0.0212276
0.0184676
0.0210017
0.0183359
0.0204737
0.0179862
0.0206201
0.0180207
0.0204136
0.0179443
0.0205499
0.0179542
0.0286205
0.0270054
0.022504
0.0238135
0.0260887
0.0217422
0.0283205
0.0266466
0.0234319
0.0221511
0.0256942
0.0214162
0.0239163
0.0200459
0.0246484
0.0204886
0.0237025
0.0198975
0.0243334
0.020298
0.0282407
0.0321144
0.0271928
0.0329882
0.0257386
0.0318968
0.0270268
0.0307811
0.0198376
0.0303223
0.0390818
0.0391893
0.0384972
0.038536
0.0383427
0.0383485
0.037477
0.0373673
0.0383434
0.0350414
0.0379752
0.0345656
0.0383149
0.0350989
0.0377823
0.0344159
0.0369417
0.0340226
0.0332304
0.0374703
0.0339176
0.030293
0.0364992
0.0334943
0.0327353
0.0371294
0.0335651
0.0296984
0.0276571
0.0317567
0.0267653
0.0325525
0.0292477
0.0336785
0.0286193
0.0331835
0.0252504
0.0313715
0.0262221
0.030402
0.0247635
0.0296987
0.0243763
0.0294007
0.0149547
0.0117988
0.0109484
0.0142339
0.0231718
0.0568889
0.00156839
0.00198873
0.0020617
0.00272829
0.00659436
0.00667071
0.00599073
0.00566087
0.00665807
0.0112673
0.0112807
0.010866
0.010869
0.0150603
0.0150714
0.0145455
0.0145752
0.019335
0.01685
0.0190661
0.0167301
0.0192827
0.0168245
0.0190355
0.0167058
0.0183587
0.0161508
0.0184349
0.0160558
0.0183543
0.0161624
0.0184263
0.0160602
0.0232028
0.0189414
0.0230462
0.0188167
0.0230371
0.018836
0.0228895
0.0186918
0.0228201
0.0183838
0.0228719
0.0185084
0.0227157
0.0183515
0.0227632
0.0184275
0.0306495
0.0332647
0.0290425
0.0346117
0.0197361
0.0280155
0.0395588
0.0398053
0.0394215
0.039608
0.039481
0.0397198
0.0390171
0.0391549
0.0389983
0.0358479
0.0388941
0.0355328
0.0395239
0.0362862
0.0393083
0.0360036
0.0386108
0.0353484
0.0387772
0.035485
0.0387428
0.0355893
0.0390607
0.035873
0.0392393
0.0363612
0.0390064
0.0361716
0.0394244
0.0367365
0.0390364
0.0363764
0.0365275
0.038193
0.0353964
0.0327423
0.0386666
0.035858
0.0360356
0.0379831
0.0352586
0.0322001
0.0385631
0.035888
0.029807
0.0326269
0.0280438
0.0339722
0.0318751
0.0357192
0.0312195
0.0351405
0.0152816
0.011985
0.0125835
0.0184324
0.035462
0.0568889
0.00155707
0.00190661
0.0022665
0.00319921
0.00828289
0.00827446
0.00752663
0.00667467
0.00714807
0.0140685
0.0140886
0.0132129
0.0132284
0.0174076
0.0174255
0.0170717
0.0171032
0.0218445
0.0173236
0.0214863
0.017086
0.021753
0.017281
0.0214231
0.0170418
0.0207193
0.0167186
0.0209543
0.0164669
0.0207028
0.0167201
0.0209177
0.0164568
0.0232365
0.0182996
0.0231368
0.0182599
0.0202567
0.0252561
0.0386653
0.0389067
0.0394494
0.0397332
0.0394345
0.0398438
0.0394996
0.0398554
0.0390796
0.038427
0.0391219
0.0376229
0.0397991
0.0386168
0.0398693
0.0378551
0.0390903
0.036352
0.0391199
0.0368715
0.0397111
0.0367321
0.0398304
0.0371917
0.0390407
0.035866
0.0393077
0.0361749
0.0398674
0.0367655
0.039969
0.0369741
0.0393585
0.0363987
0.0393607
0.0363266
0.0397096
0.0369384
0.0398739
0.037012
0.0151459
0.0131197
0.0163501
0.026081
0.0515746
0.0568889
0.00147392
0.00195268
0.00224296
0.00376142
0.0115505
0.010613
0.00953423
0.00882962
0.011553
0.0115539
0.0129061
0.0128965
0.0165374
0.0165669
0.015325
0.015361
0.017615
0.0202757
0.0177165
0.020198
0.0176322
0.0202877
0.0177454
0.0202092
0.0173064
0.0196981
0.0172087
0.0198809
0.0173373
0.0197103
0.0172386
0.0198912
0.0228694
0.017508
0.0228397
0.0172733
0.022775
0.0174553
0.0227689
0.0172208
0.0226908
0.0172574
0.0226589
0.0168278
0.0226825
0.0172478
0.0226117
0.016801
0.0202493
0.025398
0.0345804
0.0391499
0.039568
0.0391914
0.0396574
0.038081
0.0389579
0.0380356
0.0388637
0.0376038
0.0351505
0.038056
0.0348676
0.0387107
0.0361624
0.0391719
0.0359233
0.0388093
0.0355483
0.0385296
0.0351839
0.0397516
0.036515
0.0395815
0.0362092
0.0402676
0.0359383
0.0409937
0.0368076
0.0153504
0.0168134
0.0247556
0.0424182
0.0741534
0.0719993
0.00148767
0.00168484
0.00233799
0.00477412
0.0148404
0.0124734
0.0139237
0.0191174
0.0155794
0.0155766
0.016917
0.0169083
0.019281
0.0167718
0.0169246
0.0189968
0.0192908
0.0168
0.0169587
0.0190134
0.0176377
0.0176657
0.0178419
0.0217427
0.0178973
0.0222664
0.0178658
0.0217473
0.0179325
0.0222633
0.0176015
0.0221453
0.0173753
0.0224465
0.0176347
0.0221384
0.0174031
0.0224411
0.0229245
0.0174674
0.0229168
0.017469
0.0193148
0.0262522
0.0306439
0.0363566
0.0370802
0.0374328
0.0380918
0.0377687
0.0385269
0.0380572
0.0389328
0.0342225
0.0372651
0.0354126
0.0374187
0.0354414
0.0388545
0.0364334
0.0389975
0.0335616
0.0382451
0.0336822
0.0377125
0.0348301
0.0397121
0.0349511
0.0392456
0.0388971
0.0340509
0.0396509
0.0345187
0.0402857
0.0352633
0.0408773
0.0356174
0.0402317
0.0355347
0.0400281
0.0350455
0.0411413
0.0364725
0.0411084
0.0360547
0.0182374
0.0252609
0.0426838
0.074539
0.0719993
0.00134534
0.00171616
0.00236274
0.00870974
0.0157213
0.0199015
0.0322188
0.0269497
0.0269446
0.0349793
0.0349528
0.0191343
0.0163965
0.0198347
0.0178968
0.0191264
0.0163871
0.0198284
0.0178906
0.0222733
0.022267
0.0217361
0.0171031
0.0173143
0.020912
0.0217269
0.0171304
0.0173555
0.0209174
0.0202289
0.0173314
0.0205799
0.0176239
0.020239
0.0173434
0.0205951
0.0176523
0.0176182
0.0233515
0.0174691
0.023112
0.0176509
0.023339
0.0174977
0.023106
0.0205702
0.0249707
0.0315031
0.0354367
0.0380196
0.0388767
0.0372852
0.0383219
0.0368515
0.0380168
0.0373137
0.036458
0.0374401
0.0375264
0.0388365
0.0373152
0.0382185
0.0389303
0.0332985
0.0360497
0.0331194
0.0366847
0.0345654
0.0377533
0.0344749
0.0383221
0.033398
0.0381182
0.0334445
0.0373947
0.0345837
0.0396
0.0345877
0.038944
0.038892
0.0336595
0.0402653
0.0347412
0.0263
0.0429857
0.0747883
0.0719993
0.00136955
0.00153422
0.00278562
0.0100335
0.0293946
0.0528038
0.0517155
0.0517123
0.0718751
0.0718753
0.0426255
0.0426035
0.0572857
0.057254
0.0222712
0.017602
0.0225941
0.0194939
0.0222586
0.0175875
0.0225844
0.0194856
0.0261595
0.032024
0.0313199
0.0275512
0.0261533
0.0319995
0.0313147
0.027536
0.0234684
0.0173744
0.0176026
0.0228454
0.0234575
0.0174072
0.0176496
0.0228439
0.0228344
0.0175423
0.0225475
0.0176686
0.0228338
0.0175393
0.0225554
0.0176887
0.0280734
0.0241183
0.0315863
0.0358871
0.0395313
0.040488
0.0381963
0.0392095
0.0372768
0.0383433
0.0366478
0.0361764
0.0372463
0.0373467
0.0379224
0.0372339
0.0384657
0.0382512
0.036093
0.0347877
0.0356916
0.0332462
0.035737
0.0351623
0.0374228
0.0360491
0.0370888
0.0347049
0.0372297
0.0361773
0.0356633
0.0334281
0.0373118
0.0346732
0.0335877
0.0364288
0.0334701
0.0368832
0.0346777
0.0379408
0.0346416
0.038371
0.0438072
0.0749436
0.0719993
0.00118687
0.00206099
0.00388124
0.0227896
0.0831673
0.12932
0.0798613
0.0798655
0.103148
0.10313
0.0502672
0.0377686
0.0482705
0.058327
0.0549556
0.0364507
0.037735
0.0502515
0.0364473
0.0482511
0.0583082
0.0549277
0.0949266
0.083438
0.076525
0.0689204
0.0950566
0.0833751
0.0765045
0.0688735
0.0246815
0.0191904
0.0260622
0.0221676
0.0246688
0.0191772
0.0260519
0.0221602
0.03058
0.0323649
0.0305802
0.0323368
0.0176552
0.0233131
0.0176976
0.0233117
0.0239745
0.0181046
0.0239711
0.0180968
0.0455802
0.0305122
0.0289196
0.0373446
0.0431364
0.0439966
0.0412263
0.0421341
0.0388778
0.0399972
0.037309
0.0383783
0.033198
0.0363117
0.0356723
0.0357605
0.0351688
0.0357285
0.0347024
0.0374294
0.0370019
0.0366829
0.0363642
0.0369993
0.0354397
0.0331152
0.0366743
0.0344709
0.0356465
0.0327511
0.0361373
0.0355892
0.0329637
0.0330446
0.0367779
0.0340662
0.0371238
0.0370789
0.0340963
0.0343764
0.0359159
0.0332051
0.0374322
0.0344177
0.0752397
0.0719993
0.00124455
0.00199818
0.0109899
0.0627036
0.173933
0.213371
0.213756
0.232264
0.233581
0.119534
0.119848
0.152275
0.152607
0.0436423
0.0657093
0.0563922
0.0418828
0.0851437
0.0667259
0.0436121
0.0656992
0.0418824
0.0563914
0.0851664
0.0667503
0.115536
0.098782
0.102981
0.0819867
0.115853
0.0989098
0.103095
0.0820222
0.0286617
0.0252841
0.0286481
0.0252825
0.0759084
0.0485432
0.0336794
0.034885
0.0433478
0.0432133
0.0443515
0.0408914
0.0420437
0.039363
0.0399237
0.0380694
0.0373326
0.0405694
0.0407808
0.0392143
0.0385378
0.0370723
0.035915
0.0340181
0.0372277
0.0349381
0.0343927
0.0378475
0.0367405
0.0352229
0.0381719
0.0362825
0.0356217
0.0333816
0.0328053
0.0360889
0.035656
0.034417
0.0340091
0.0367444
0.0364321
0.0358212
0.0328502
0.0365498
0.0338035
0.0362141
0.0329805
0.0363758
0.0330866
0.0369545
0.0339004
0.0373631
0.0342009
0.0719993
0.00123746
0.00317345
0.0253599
0.167114
0.25218
0.218047
0.220777
0.227942
0.230251
0.14598
0.142149
0.131179
0.154605
0.14716
0.142962
0.131936
0.155823
0.184413
0.186039
0.13417
0.112286
0.12163
0.0949449
0.134799
0.112693
0.121997
0.0950903
0.0719993
0.077362
0.0531563
0.0369998
0.040948
0.04903
0.0489064
0.0462357
0.0477614
0.0423069
0.043074
0.0408263
0.0423346
0.0388739
0.0401886
0.0369298
0.0349001
0.0401424
0.0416415
0.0381744
0.0364251
0.0370274
0.0371944
0.0338299
0.0340309
0.0370155
0.0343684
0.0376276
0.0378284
0.0351178
0.0348709
0.0377921
0.0356167
0.0331557
0.0362099
0.0340901
0.0367855
0.00170273
0.00760952
0.0697956
0.294493
0.229606
0.200672
0.38548
0.271759
0.195735
0.198827
0.216213
0.216095
0.15679
0.162945
0.140296
0.174997
0.15844
0.164084
0.141482
0.176454
0.194115
0.185553
0.193676
0.182131
0.195929
0.187754
0.19525
0.184398
0.149881
0.123514
0.15081
0.124245
0.0719979
0.0808702
0.0592107
0.0400892
0.0467631
0.0476398
0.0506053
0.0445368
0.0476485
0.0422319
0.0452661
0.0429233
0.0394193
0.0385064
0.0409704
0.044708
0.0418431
0.0417731
0.0435193
0.0381495
0.0357644
0.0377663
0.035077
0.0397255
0.0392426
0.0388107
0.0369192
0.00244666
0.02053
0.151752
0.469944
0.229451
0.208345
0.435097
0.30306
0.201454
0.190406
0.216118
0.210717
0.199259
0.22215
0.20317
0.192272
0.216364
0.212037
0.200996
0.218252
0.230517
0.232167
0.159608
0.173594
0.145882
0.186853
0.162167
0.174929
0.147616
0.188254
0.199905
0.18272
0.201366
0.184891
0.0719922
0.0882296
0.0634176
0.045137
0.053222
0.0529071
0.0501213
0.0492368
0.0468292
0.0480462
0.0442531
0.0461939
0.0418822
0.0411644
0.041347
0.0375143
0.0395191
0.0386869
0.0439572
0.043307
0.0429799
0.0393278
0.0429257
0.0437853
0.03826
0.0361429
0.040957
0.0397954
0.0381344
0.0356523
0.0394141
0.0381996
0.00613593
0.0382503
0.392756
0.758351
0.626682
1.44381
1.24759
0.276019
0.2133
0.52943
0.39639
0.209059
0.194139
0.226343
0.231311
0.206745
0.238828
0.210749
0.195719
0.225591
0.22888
0.20882
0.236009
0.258629
0.236401
0.268817
0.231109
0.255613
0.242659
0.275034
0.233414
0.0719775
0.0997165
0.0661314
0.052638
0.0550871
0.0549569
0.0509766
0.0515021
0.0476056
0.0488078
0.0407936
0.0396775
0.0436729
0.0426342
0.0390491
0.0438636
0.0454393
0.0443345
0.0411009
0.045821
0.0427578
0.0425297
0.0409324
0.0408953
0.0374519
0.0367735
0.0422459
0.0423862
0.0394806
0.0388803
0.039941
0.0362287
0.0413876
0.0381501
0.00969834
0.0749235
2.13675
1.49038
1.19067
3.42306
2.99263
0.248122
0.222389
0.531322
0.382731
0.379978
0.588899
0.285146
0.231259
0.291039
0.249328
0.216698
0.303279
0.723379
0.613785
0.20985
0.254122
0.209102
0.269154
0.255966
0.221866
0.278465
0.219706
0.0719467
0.107813
0.0693502
0.0644091
0.0628014
0.0604143
0.0596834
0.0556145
0.0558798
0.0517514
0.0526155
0.0482314
0.0475158
0.046072
0.0433198
0.043685
0.0443074
0.0495313
0.0452589
0.045878
0.0485632
0.0473837
0.0445554
0.0420305
0.0378515
0.0417771
0.0389057
0.0433296
0.0435167
0.0405653
0.0397619
0.0155724
0.29437
16.7027
4.18609
3.26189
10.64
9.43655
0.296619
0.307757
0.602941
0.493105
0.490002
0.686291
0.2747
0.2194
0.480857
0.301377
0.336215
0.433237
2.54339
1.33547
1.17306
0.806761
1.79332
1.04474
0.918329
0.736025
0.276098
0.281869
0.270859
0.225595
0.0718876
0.109761
0.0735444
0.0687751
0.0693472
0.062157
0.0627353
0.0575686
0.0583726
0.0471134
0.0469458
0.0528127
0.0504243
0.0489538
0.0533628
0.048362
0.0479694
0.053594
0.0515316
0.0499939
0.0543779
0.0449336
0.0438689
0.041646
0.0399606
0.0452732
0.0414223
0.0461639
0.0429543
0.0244211
2.93663
97.311
35.9119
34.0108
96.6809
108.719
106.89
15.0009
3.46658
1.73549
11.8321
2.44744
1.29188
0.368294
0.39371
0.68933
0.549554
0.562948
0.881147
0.267158
0.292379
0.639648
0.375735
0.452532
0.662655
1.41144
0.92112
1.27713
0.874493
0.0717744
0.109855
0.0795303
0.0683842
0.0705096
0.0636081
0.0652264
0.0593984
0.0606482
0.0558008
0.0559433
0.0532312
0.0551947
0.0608562
0.0543231
0.0556828
0.0613277
0.0576195
0.0574394
0.0472846
0.0440344
0.0493781
0.0465004
0.0484711
0.045369
0.05072
0.047977
0.0461291
0.0422499
0.0472241
0.0435341
0.220037
24.498
111.103
168.06
108.311
167.757
171.273
170.263
48.9558
8.06939
4.15445
6.5678
2.78809
26.3544
118.387
75.7632
5.28353
35.4455
2.82393
4.50655
1.94276
18.7821
98.5059
62.9063
0.817995
1.32996
0.802914
1.19261
2.05562
1.20122
2.13128
1.21514
0.0715405
0.115654
0.101123
0.0696338
0.0722115
0.107359
0.082576
0.0863481
0.0636907
0.0573123
0.0605403
0.066412
0.0597013
0.0622394
0.0517458
0.0525856
0.048635
0.0479208
0.0536296
0.0509921
0.0550792
0.0514608
0.0474747
0.0440575
0.0489996
0.0447583
0.0488167
0.0458181
0.0509468
0.0471964
3.00118
101.375
197.429
112.346
174.744
240.902
194.986
99.6768
155.314
240.637
234.59
234.246
17.3561
91.4437
3.40855
1.91277
9.40615
46.4382
11.5313
4.13344
68.5538
2.07942
6.21042
35.1389
1.09691
2.25741
1.17846
2.44708
0.0711729
0.129343
0.0974694
0.0721903
0.0750031
0.106916
0.0781082
0.0851406
0.061555
0.0564803
0.0588067
0.0561091
0.0598094
0.0583424
0.0659468
0.0656012
0.0656654
0.0598209
0.0627767
0.0586234
0.0616375
0.0619453
0.0690309
0.067894
0.0506673
0.0519248
0.0444628
0.0464726
0.0527476
0.0478325
0.0546091
0.0494158
20.5552
303.943
277.781
277.77
303.589
253.582
252.105
387.709
151.377
263.982
171.11
230.335
278.995
378.992
249.078
301.658
391.87
269.901
389.042
139.921
243.435
157.638
214.331
276.217
367.159
244.054
302.401
395.771
268.016
42.4893
156.955
23.3173
86.8704
30.5003
127.128
16.5996
69.6404
0.0706553
0.133902
0.0975478
0.0676959
0.0726184
0.0708505
0.0744333
0.074239
0.0745759
0.108377
0.0813092
0.0886784
0.0565315
0.0636192
0.0522879
0.0512338
0.0486159
0.0642196
0.0606974
0.0695251
0.0553887
0.0523492
0.0567131
0.0698464
0.0505058
0.0446901
0.0529618
0.0475885
59.1188
367.35
346.394
368.072
346.511
249.381
247.463
248.846
324.935
199.657
146.705
401.796
245.221
578.779
524.194
321.376
453.057
291.502
360.217
564.765
384.441
217.701
301.242
128.013
187.894
397.923
243.88
531.907
587.681
326.267
458.338
291.785
364.857
568.765
385.483
0.0704379
0.231213
0.104806
0.110203
0.232647
0.172455
0.156967
0.0684827
0.0648347
0.0612384
0.0538554
0.0640736
0.0663619
0.0643085
0.0560729
0.0739877
0.0737587
0.0665116
0.0604388
0.0741057
0.0729862
0.069645
0.0630737
0.08651
0.0714262
0.0767977
0.0927116
0.0796438
0.0857377
0.0569126
0.0605702
0.0520281
0.0546779
0.0621983
0.0709851
0.0587947
0.0690902
70.0136
424.807
408.042
663.477
347.522
426.312
410.658
665.861
347.239
255.008
253.327
342.682
210.588
440.198
270.201
598.076
669.011
536.499
320.676
352.814
392.933
333.676
207.458
446.127
275.09
611.441
550.658
676.495
330.805
361.408
398.582
0.0701625
0.285345
0.114483
0.115493
0.296966
0.223209
0.167313
0.0604337
0.0615035
0.0513749
0.0526834
0.0647008
0.0578868
0.0665317
0.0668576
0.0587213
0.0597475
0.0704755
0.0658725
0.0876499
0.0743974
0.0661086
0.0710388
0.0719034
0.0760827
0.0948473
0.0928434
0.0934776
0.0786249
0.0746316
0.0789197
0.0833453
0.0866357
0.0997118
0.0987221
11.6439
216.116
214.859
443.032
431.684
742.868
448.12
714.103
291.673
442.643
435.057
750.376
451.2
719.103
291.23
620.334
684.108
738.788
365.363
398.161
427.115
639.387
697.413
746.034
378.974
407.717
432.772
0.0691821
0.331043
0.134097
0.111244
0.10595
0.130101
0.1131
0.108702
0.323421
0.20201
0.172508
0.0631103
0.05517
0.0669357
0.0598958
0.0690612
0.0628393
0.0726471
0.0680172
0.0809214
0.0937124
0.0726947
0.0658527
0.0608811
0.0882725
0.0870187
0.0971355
0.0773869
0.0704658
0.0789398
0.0935434
0.933429
99.9456
15.5388
97.3927
13.8515
382.485
459.289
768.422
460.738
774.139
767.817
443.491
149.472
378.939
456.643
771.802
461.43
769.421
773.47
447.488
147.481
759.101
438.1
771.566
447.275
0.0685184
0.322039
0.301342
0.152041
0.133473
0.13174
0.140116
0.122671
0.144227
0.130226
0.130793
0.136184
0.122643
0.200412
0.196223
0.085218
0.0766429
0.113755
0.0696822
0.0629757
0.128795
0.0914711
0.0802518
0.117057
0.0764567
0.0827224
0.126147
0.625084
10.7796
2.53606
5.20213
1.53308
45.8523
32.7544
230.295
440.957
625.909
380.344
745.34
454.472
798.865
458.515
793.176
785.373
452.638
221.135
434.214
605.68
368.959
734.561
452.63
800.575
459.719
790.453
793.881
459.125
0.0685231
0.240198
0.212315
0.249071
0.213538
0.151275
0.153912
0.144991
0.154247
0.147019
0.129799
0.1381
0.151551
0.148611
0.141937
0.14804
0.145001
0.129833
0.134498
0.13667
0.143426
0.0910084
0.07774
0.0950976
0.0898603
2.24933
5.69288
11.8015
3.18278
6.34718
35.9997
6.89121
19.0254
4.4626
133.275
93.8837
276.059
485.312
297.998
455.349
439.884
682.974
396.126
762.913
458.081
812.573
465.976
789.655
254.782
453.371
280.689
413.361
432.87
663.643
383.967
752.776
457.077
815.12
468.465
787.664
0.0691927
0.213657
0.248775
0.213802
0.253084
0.123048
0.129543
0.116194
0.152707
0.132829
0.144509
0.143883
0.149708
0.142988
0.15134
0.146381
0.123558
0.13667
0.122268
0.152379
0.131134
0.144697
0.142439
0.147479
0.140764
0.146729
0.145909
0.13052
0.134209
3.6006
26.8725
34.0912
18.1565
24.0622
25.9618
51.0832
16.257
32.8431
115.75
21.0291
70.842
15.0779
218.987
371.501
220.779
362.461
176.332
264.202
162.854
284.599
284.345
530.213
306.98
494.234
261.472
498.461
287.009
457.559
0.0701706
0.331784
0.330096
0.30227
0.323179
0.12279
0.137654
0.129184
0.144403
0.10599
0.112608
0.105878
0.105274
0.107873
0.0992283
0.143959
0.140199
0.140844
0.141973
0.149037
0.138982
0.148199
0.144204
0.114124
0.109915
0.114772
0.106274
0.147052
0.126098
0.136598
0.141156
0.14683
0.138033
0.144328
0.142854
31.9111
0.500719
101.376
113.867
83.2522
97.8756
107.621
161.405
77.3766
129.914
192.952
360.483
211.115
329.656
59.3767
116.945
67.2015
104.596
150.236
260.383
156.668
254.027
45.3911
81.4595
47.6625
77.8822
219.398
383.343
220.057
379.346
181.705
316.687
174.214
322.902
0.0704366
0.285136
0.229371
0.297501
0.230984
0.210222
0.20424
0.196409
0.166185
0.106535
0.116482
0.113072
0.123396
0.0928035
0.0864584
0.0939167
0.0869766
0.0998385
0.0931231
0.101092
0.0926516
0.0811703
0.10027
0.0886334
0.0889555
0.0916341
0.101132
0.0969343
0.0948742
6.40699
215.813
189.621
211.088
188.786
0.0528871
211.129
233.327
191.76
220.677
233.887
341.821
205.718
394.986
277.239
445.032
283.279
451.836