/*--------------------------------*- C++ -*----------------------------------*\
| =========                 |                                                 |
| \\      /  F ield         | OpenFOAM: The Open Source CFD Toolbox           |
|  \\    /   O peration     | Version:  5.x                                   |
|   \\  /    A nd           | Web:      www.OpenFOAM.org                      |
|    \\/     M anipulation  |                                                 |
\*---------------------------------------------------------------------------*/
FoamFile
{
    version     2.0;
    format      ascii;
    class       volScalarField;
    location    "0.8";
    object      p;
}
// * * * * * * * * * * * * * * * * * * * * * * * * * * * * * * * * * * * * * //

dimensions      [1 -1 -2 0 0 0 0];

internalField   nonuniform List<scalar> 
12160
(
5356.91
5360.57
4702.54
5365.98
4705.92
4049.45
5368.76
4711.43
4053.19
3394.36
5366.63
4714.69
4059.5
3397.41
2741.99
5356.23
4713.49
4064.09
3403.85
2745.17
2086.72
5336.44
4703.73
4063.37
3409.79
2752.82
2088.77
1434.57
5307.12
4684.08
4053.83
3412.22
2762.34
2096.58
1435.34
779.407
5271.16
4654.47
4033.86
3404.71
2766.25
2108.8
1443.03
779.003
234.682
5231.17
4617.99
4003.4
3384.85
2759.1
2117.15
1461.39
785.699
234.686
3.9356
5190.13
4577.44
3965.75
3353.35
2738.85
2114.43
1478.94
810.458
242.462
6.52581
-6.80726
5150.24
4535.9
3924.01
3314.05
2705.65
2094.34
1473.61
831.145
267.362
10.9
-6.78617
-7.43703
5113.07
4495.65
3881.46
3270.55
2663.88
2058.96
1453.02
834.322
293.591
19.5915
-6.71051
-7.48331
-8.18383
5079.59
4458.24
3840.44
3226.5
2617.89
2013.77
1414.71
815.256
301.556
31.033
-6.65526
-7.47285
-8.14864
-8.77639
5050.27
4424.63
3802.53
3184.39
2571.78
1964.36
1365.26
773.89
288.757
36.5627
-6.41965
-7.53199
-8.14577
-8.80986
-9.51041
5025.16
4395.25
3768.66
3145.79
2528.17
1915.44
1311.79
717.866
256.177
34.4645
-6.06191
-7.62051
-8.18741
-8.81162
-9.48548
5004.1
4370.15
3739.19
3111.55
2488.63
1869.85
1259.84
658.671
215.389
25.5798
-5.97045
-7.67977
-8.25566
-8.83862
-9.48456
4986.79
4349.14
3714.12
3081.98
2453.91
1829.09
1212.32
602.219
175.05
15.3218
-6.27531
-7.70881
-8.30132
-8.87297
-9.49299
4972.86
4331.89
3693.19
3056.96
2424.17
1793.78
1170.56
551.372
139.631
7.1939
-6.57548
-7.67738
-8.31194
-8.8983
-9.50374
4961.95
4318.02
3676.06
3036.19
2399.2
1763.9
1134.89
507.423
110.13
1.66497
-6.70706
-7.59329
-8.28212
-8.90716
-9.50726
4953.71
4307.17
3662.33
3019.27
2378.6
1739.09
1105.06
470.532
86.216
-1.7901
-6.76197
-7.52817
-8.22234
-8.89101
-9.50773
4947.87
4298.99
3651.61
3005.76
2361.91
1718.84
1080.52
440.247
67.0959
-3.80904
-6.78993
-7.49147
-8.17895
-8.85778
-9.5025
4944.19
4293.18
3643.53
2995.23
2348.64
1702.58
1060.63
415.82
51.933
-4.92336
-6.79988
-7.47665
-8.15649
-8.83267
-9.4924
4942.5
4289.53
3637.81
2987.32
2338.34
1689.76
1044.76
396.415
39.9702
-5.5053
-6.8029
-7.47148
-8.14543
-8.81886
-9.48456
4942.66
4287.84
3634.2
2981.73
2330.63
1679.88
1032.29
381.219
30.5846
-5.80479
-6.80227
-7.46814
-8.14116
-8.81191
-9.47989
4944.6
4287.99
3632.53
2978.2
2325.18
1672.51
1022.71
369.5
23.2756
-5.95997
-6.80149
-7.46569
-8.13884
-8.80889
-9.47747
4948.3
4289.92
3632.67
2976.56
2321.74
1667.32
1015.59
360.636
17.6467
-6.04278
-6.80314
-7.4654
-8.13718
-8.80732
-9.47634
4953.75
4293.58
3634.55
2976.67
2320.13
1664.04
1010.58
354.124
13.3842
-6.09066
-6.80653
-7.46759
-8.13668
-8.80637
-9.47577
4960.97
4298.98
3638.13
2978.48
2320.22
1662.49
1007.41
349.574
10.2457
-6.12038
-6.81083
-7.47171
-8.13766
-8.80613
-9.47546
4970.01
4306.14
3643.43
2981.95
2321.93
1662.54
1005.9
346.698
8.0488
-6.13826
-6.81612
-7.47672
-8.14002
-8.80673
-9.47539
4980.9
4315.11
3650.47
2987.09
2325.26
1664.12
1005.91
345.295
6.65745
-6.14957
-6.82122
-7.48141
-8.14327
-8.80812
-9.4756
4993.69
4325.93
3659.3
2993.94
2330.22
1667.22
1007.39
345.24
5.97498
-6.15618
-6.82481
-7.48576
-8.14639
-8.81001
-9.47605
5008.41
4338.65
3669.98
3002.56
2336.84
1671.86
1010.33
346.472
5.94484
-6.15894
-6.82705
-7.48925
-8.14914
-8.81189
-9.47666
5025.06
4353.3
3682.56
3013.01
2345.2
1678.11
1014.75
348.995
6.53792
-6.15871
-6.82799
-7.49145
-8.15119
-8.8136
-9.47727
5043.59
4369.9
3697.08
3025.36
2355.38
1686.04
1020.72
352.856
7.75051
-6.15544
-6.82773
-7.49251
-8.15247
-8.81497
-9.4778
5063.95
4388.4
3713.56
3039.66
2367.46
1695.76
1028.32
358.148
9.60486
-6.14883
-6.82632
-7.49233
-8.15299
-8.81589
-9.47819
5085.99
4408.75
3732
3055.97
2381.52
1707.37
1037.67
364.997
12.1422
-6.13837
-6.82368
-7.49095
-8.15283
-8.81632
-9.47841
5109.54
4430.83
3752.33
3074.28
2397.62
1721
1048.9
373.558
15.4187
-6.12334
-6.81984
-7.48848
-8.152
-8.81624
-9.47849
5134.35
4454.45
3774.46
3094.56
2415.8
1736.72
1062.12
384.007
19.5048
-6.10116
-6.81463
-7.48486
-8.15048
-8.81565
-9.47846
5160.11
4479.37
3798.21
3116.74
2436.04
1754.61
1077.45
396.528
24.4867
-6.06907
-6.80898
-7.48041
-8.14827
-8.81459
-9.47831
4505.3
5203.67
3823.36
3140.67
2458.3
1774.72
1095.01
411.307
30.4625
-6.02264
-6.80367
-7.47573
-8.14549
-8.81313
-9.47804
3849.63
4549.23
5264.58
3166.14
2482.46
1797.03
1114.86
428.515
37.5409
-5.95219
-6.79926
-7.4709
-8.14237
-8.81138
-9.47762
3192.89
3894.32
4610.94
5317.85
2508.36
1821.46
1137.04
448.292
45.8439
-5.84016
-6.79554
-7.46611
-8.13913
-8.80947
-9.47709
2535.74
3238.65
3957.64
4665.23
5358.77
1847.89
1161.54
470.735
55.5035
-5.6612
-6.79282
-7.4621
-8.13597
-8.80752
-9.47647
1876.09
2582.92
3304.32
4013.98
4707.29
5385
1188.29
495.875
66.662
-5.37806
-6.79165
-7.45921
-8.13346
-8.80568
-9.47584
1217.12
1925.1
2651.79
3363.66
4058.14
4732.87
5378.78
523.674
79.4595
-4.93157
-6.79101
-7.45757
-8.13179
-8.80419
-9.47524
554.01
1267.79
1998.13
2715.16
3411.07
4085.59
4733.49
5416.64
94.0231
-4.24349
-6.78937
-7.4571
-8.13093
-8.80319
-9.47475
110.522
607.767
1345.2
2066.7
2766.91
3442.39
4093.53
4754.47
5270.37
-3.22375
-6.78537
-7.4573
-8.13072
-8.80264
-9.47441
-1.76074
141.394
691.522
1419.64
2123.94
2802.81
3457.41
4106.2
4639.19
5275.65
-6.77798
-7.45763
-8.13087
-8.80247
-9.47421
-6.76666
1.86476
194.138
773.878
1483.22
2165.17
2822.85
3465.52
4028.47
4647.5
4982.31
-7.45849
-8.1312
-8.80255
-9.47414
-7.45997
-6.7443
10.5134
251.363
845.908
1530.38
2190.76
2831.15
3424.58
4027.64
4484.85
5118.51
-8.13227
-8.80286
-9.47417
-8.13397
-7.47946
-6.63781
23.1844
304.895
898.588
1561.31
2202.13
2813.42
3432.69
3917.51
4557.41
5127.57
5761.85
-8.80377
-9.47431
-8.80517
-8.14767
-7.52152
-6.32559
38.1168
348.069
933.166
1578.8
2198.55
2820.05
3400.62
3994.25
4533.46
5073.68
5757.97
6437.38
-9.47468
-9.47526
-8.81348
-8.17325
-7.59409
-5.68364
51.9367
377.169
955.66
1582.8
2205.68
2820.47
3416.23
3955.14
4482.7
4956.12
5697.02
6423.68
7137.62
-9.47807
-8.82889
-8.22661
-7.67196
-4.95209
61.2196
393.375
962.631
1591
2208.74
2820.63
3377.87
3914.34
4368.03
4772.62
5577.85
6355.87
7117.02
7863.68
-9.48327
-8.86028
-8.28466
-7.7254
-4.68656
64.6258
397.229
967.512
1592.3
2210.79
2783.81
3334.58
3798.32
4202.66
4465.49
5384.78
6241.63
7048.4
7838.74
8606.76
-9.49326
-8.89321
-8.32448
-7.73861
-4.96468
63.7754
396.789
963.103
1593.58
2171.04
2739.26
3230.52
3659.56
3930.18
4032.89
5068.21
6050.6
6949.22
7779.44
8584.59
9366.73
-9.50352
-8.9157
-8.3395
-7.73131
-5.46114
60.7615
390.927
959.899
1554.05
2131.06
2652.3
3107.3
3436.2
3529.65
2841.7
4633.71
2846.2
2675.26
2674.24
5760.98
6769.93
7686.85
8534.29
9346.95
10134.3
-9.51052
-8.92428
-8.34088
-7.71106
-5.91546
55.3669
381.838
921.587
1518.35
2054.19
2537.75
2934.22
3135.43
3044.66
3034.12
2667.57
5370.26
3044.06
3278.15
3285.1
2643.27
2428.38
2407.54
6515.32
7533.57
8452.34
9306.14
10118.7
10904.7
-9.51442
-8.92492
-8.32903
-7.68326
-6.2371
48.512
354.429
887.689
1447.88
1950.44
2400.2
2709.23
2775.48
2085.57
2072.46
2013.68
2008.37
2939.12
2559.85
6171.21
4932.42
2931.61
3279.67
3293.57
2508.59
2278.82
2241.63
7311.31
8324.29
9236.92
10085.5
10892.1
11673.5
-9.5189
-8.92021
-8.30909
-7.65276
-6.46685
37.8321
327.988
818.209
1356.29
1828.02
2217.3
2424.66
1941.47
1937.84
1838.67
1837.64
1889.05
1881.62
1855.63
1850.82
2849.79
2071.4
2096.65
2196.74
1972.3
7054.18
6006.34
4001.17
3999.32
3617.76
3615.72
2823.45
3199.95
3200.66
2054.64
2077.97
2181.92
1951.39
1974.73
1795.42
1925.68
1859.01
1958.15
1785.26
1912.63
1838.43
8147.44
9132.72
10031.4
10865.7
11663.6
12434.4
-9.52493
-8.91322
-8.28676
-7.62826
-6.63237
27.5241
282.076
738.198
1242.17
1676.61
1980.08
1713.66
1710.76
1578.74
1576
1790.12
1779.67
1686.96
1674.29
1587.28
1683.1
1665.9
1498.83
1566.85
1779.38
1676.9
1589.19
1664.31
1499.9
1567.41
1770.56
1489.61
1516.54
1500.48
1549.59
1496.74
1519.76
1508.65
1552.21
2531.1
2218.3
2329.26
2384.24
2198.37
2183.1
2363.32
2044.44
7955.08
6823.37
4726.5
4710.43
4363.61
4353.85
3952
3933.74
3460.53
3446.22
2519.12
2198.12
2313.11
2365.02
2754.45
2557.42
2886.2
2519.39
2749.41
2557.76
2886.41
2510.47
2184.39
2167.84
2347.18
2029.05
2006.44
1886.72
1994.74
1872.07
8994.87
9953.21
10823.7
11643.2
12427.1
13183.9
-9.53052
-8.90589
-8.26755
-7.61639
-6.73275
15.7112
234.873
637.218
1093.61
1482.3
1414.12
1411.58
1286.84
1287.52
1581.84
1570.74
1463.28
1454.42
1439.76
1457.11
1379.22
1392
1445.2
1459.47
1384.16
1394.09
1321.87
1318.29
1339.97
1348.32
1323.94
1320.16
1343.37
1349.86
1737.68
1606.06
1771.46
1854.93
1555.94
1670.49
1732.65
1602.48
1848.1
1767.69
1557.54
1668.21
1470.98
1528.37
1508.25
1590.29
1478.38
1530.64
1517.92
1592.05
2734.93
2328.39
2535.67
2490.98
2286.96
2255.59
2446.65
2104.77
8851.32
7888.57
5482.96
5463.14
5099.33
5078.44
4669.5
4666.09
4321.91
4316.95
3370.87
3773.36
3244.3
3639.76
3367.59
3773.94
3238.32
3636.51
2945.4
2682.19
3284.71
3093.26
3476.14
3148.7
2938.24
2670.3
3272.61
3085.18
3469
3137.14
2717
2311.68
2516.79
2472.53
2949.86
2634.28
2935.59
2616.15
2272.47
2229.35
2426.68
2083.11
2096.9
1927.3
2084.14
1913.74
9845.61
10763.5
11611.3
12411.8
13178.3
13918.3
-9.53464
-8.89925
-8.25753
-7.61124
-6.78242
6.45131
181.121
507.168
926.753
1081.15
1083.17
885.21
885.887
1310.14
1304.81
1172.16
1170.27
1254.17
1282.19
1173.67
1252.62
1252.67
1283.75
1177.32
1253.98
1075.56
1216.06
1107.98
1212.9
1073.65
1213.34
1111.5
1213.08
1405.84
1453.61
1347.47
1376.16
1413.12
1455.29
1359
1379.51
1237.82
1231.96
1300.74
1306.92
1252.34
1237.21
1314.53
1312.01
2744.73
2397.75
2591.71
2548.94
9721.51
8848.93
6227.03
6219.97
5861.19
5845.4
5380.78
5363.13
5015.78
5006.2
3873.03
4190.15
3738.39
4067.12
3891.77
4201.4
3747.06
4074.28
3496.44
3885.65
3609.04
3976.34
3494.72
3887.42
3615.01
3979.69
3405.47
3761.82
3275.78
3610.25
3404.74
3759.81
3273.2
3607.73
2815.33
2998.2
3281.03
3083.57
3139.82
3446.02
2797.36
2990.96
3273.01
3064.48
3134.74
3443.67
2724.67
2373.69
2575.17
2520.53
2907.04
2691.03
2885.42
2663.57
10679.9
11565.7
12387.1
13166.7
13914.2
14635.3
-9.53696
-8.89554
-8.24638
-7.60748
-6.82089
-0.345212
117.946
375.581
700.883
976.152
975.878
769.262
770.417
1182.3
1180.6
1054.68
1049.33
1179.18
1180.39
1139.5
1163.15
1189.9
1184.89
1147.89
1167.07
1048
1088.97
1085.86
1129.41
1050.36
1089.47
1090.71
1131.93
1202.36
1264.17
1215.63
1267.32
10584
9762.61
7027.68
7031.55
6620.6
6616.63
6265.86
6244.76
5864.96
5838.14
4451.22
5038.72
4376.93
4780.12
4460.62
5041.92
4393.16
4787.48
4050.51
4362.72
4217.31
4551.87
4064.9
4374.56
4238.86
4562.62
4023.61
4346.31
3896.62
4219.91
4023.84
4344.1
3885.78
4214.56
3550.2
3916.61
3723.48
4074.64
3546.31
3912.08
3715.46
4068.12
11504.2
12351.7
13147.9
13905.6
14632.5
15332.4
-9.54
-8.89145
-8.23384
-7.60692
-6.86784
-3.99363
54.0586
257.771
494.669
495.299
321.501
322.961
879.121
873.425
694.555
695.016
936.903
974.19
967.378
915.892
936.532
976.754
967.708
915.619
890.547
765.352
834.126
847.175
890.104
765.23
833.78
845.093
1160.29
1216.09
1117.13
1175.09
1171.2
1220.48
1126.28
1179.4
1020.03
1031.99
1054.81
1123.87
1028.18
1034.69
1062.29
1126.64
11432.4
10568.5
9797.51
6918.64
6919.66
6621.03
6606.56
6152.19
6136.64
5706.99
5693.07
4543.65
5194.86
4520.69
5006.7
4536.51
5191.61
4518.22
5000.76
4200.56
4553.21
4382.86
4772.58
4198.29
4546.59
4381.54
4765.26
4004.84
4291.78
4022.47
4286.72
12306.4
13120.4
13891.7
14626.7
15330.5
16008.3
-9.54225
-8.88918
-8.22237
-7.604
-6.87117
-5.18506
15.3295
141.134
407.374
405.869
231.247
231.222
684.564
767.139
722.698
598.827
684.096
766.805
721.339
599.256
617.213
613.755
878.328
956.681
925.485
901.371
878.909
962.689
926.772
900.121
811.68
740.414
751.323
827.822
812.237
740.172
751.911
826.156
997.825
996.41
1007.21
998.83
12259.7
11395.5
10608.6
7758.72
7749.71
7430.84
7397.91
7021.62
6997.42
6624.77
6593.55
5329.15
5128.5
5514.86
4983.32
5330.49
5150.71
5518.45
4986.22
5203.16
4758.47
5118.45
4846.98
5195.24
4747.72
5111.73
4839.04
4669.39
4988.77
4540.67
4803.16
4660.28
4973.44
4527.13
4787.52
4167.03
4440.1
4363.62
4619.89
4170.02
4430.63
4360.21
4607.3
13084.2
13871.3
14617.3
15326.4
16006.6
-9.5439
-8.88568
-8.21742
-7.55032
-6.89574
-5.36462
-2.31653
48.4469
48.167
12.4726
12.3909
300.133
341.404
218.301
263.387
299.17
340.833
219.022
262.519
148.817
148.549
657.814
681.727
619.332
580.002
658.486
682.57
619.554
580.849
393.233
427.71
480.246
489.644
393.191
426.786
479.303
489.059
793.533
692.83
728.673
764.617
794.246
696.501
729.429
768.414
13045.5
12242
11471.6
10739.8
7709.51
7669.95
7238.03
7204.81
6808.21
6775.84
5298.97
5747.93
5937.45
5354.5
5307.28
5747.91
5948.48
5356.98
5480.5
5247.36
5652.39
5101.02
5464.93
5227.74
5632.61
5074.36
5328.98
4860.84
5168.96
4978.64
5319.05
4847.65
5156.51
4956.65
4705.05
4967.73
4697.44
4954.13
13843.5
14603.8
15319.8
16003.2
-9.5416
-8.88525
-8.19619
-7.46482
-6.9072
-5.53351
-3.62431
-3.61759
-3.38091
-3.38027
10.767
10.6493
-1.29757
-1.29717
265.13
273.585
182.118
196.827
263.528
273.262
181.543
196.717
103.916
54.2357
59.3577
83.1749
104.243
54.3675
59.481
82.9608
618.303
652.344
560.592
551.089
621.981
653.172
560.759
551.385
360.476
361.419
445.714
438.593
358.973
361.376
443.743
438.597
13810.6
13033.4
12309.3
11549.5
8440.33
8421.27
8032.32
8017.78
7456.35
7462.28
5875.48
6371.98
5884.13
6540.86
5894.88
6374.63
5919.15
6551.82
5730.09
6164.34
5635.48
6018.15
5379.53
6015.28
5763.87
6160.48
5661.54
6011.79
5356.33
5993.33
5396.08
5893.67
5373.56
5867.44
5358.3
5181.99
5512.09
5031.7
5352.46
5202.29
5499.12
5040.75
14585.7
15310.3
15997.9
-9.54537
-8.8664
-8.16873
-7.34778
-6.88334
-5.64281
-3.87303
-3.86809
-3.72786
-3.73303
-1.16775
20.7666
-2.09901
-2.20349
-2.45087
22.7181
20.7574
-1.12827
22.8854
-2.11373
-2.21863
-2.46599
-2.2603
-2.61351
-2.12302
-2.4397
-2.26495
-2.61198
-2.12853
-2.44339
225.383
235.154
146.114
156.296
225.546
234.974
145.978
156.231
58.9688
47.9182
59.4764
47.9803
518.55
509.096
518.722
508.3
305.551
322.25
305.834
322.305
14562.5
13789.7
13080.7
12412.4
9168.12
9162.03
8768.88
8745.77
8187.57
8175.86
7745.76
7736.1
6686.89
6070.93
6782.68
6145.86
6638.44
5935.26
6678.09
6102.4
6776.21
6152.51
6621.75
5919.86
5979.36
6539.45
5965.57
6516.38
5855.36
6300.12
5734.89
5569.67
6110.78
5919.07
5846.63
6282.3
5711.69
5578.27
6105.83
5907.55
5395.02
5726.94
5401.6
5712.37
15297.1
15990.5
-9.53604
-8.84847
-8.14757
-7.34075
-6.603
-4.23951
-4.2568
-4.68928
-4.72135
-3.58952
-3.57629
-3.82593
-3.8297
1.31605
-3.00396
-3.22565
-0.564718
-2.74163
-2.80476
1.5809
-2.98605
-0.540778
-3.23152
-2.73593
-2.80549
-2.58305
-2.70239
-2.47298
-2.50869
-2.57314
-2.69802
-2.46596
-2.50948
105.348
123.466
105.376
123.687
15279.7
14540.7
13801.8
13174.5
12466.4
8831.63
8849.75
8640.93
8594.3
6717.03
7410.09
6705.53
7278.96
6725.4
7399.64
6728.88
7277.38
6366.31
6130.29
6919.25
6569.5
7099.57
6914.58
6400
6139.32
6918.85
6600.34
7103.59
6910.27
6858.46
6553.94
6247.52
6170.58
6862.1
6554.63
6241.95
6169.79
6008.43
6388.79
6012.87
6379.93
5840.9
6214.23
5565.85
5903.91
5859.51
6202.59
5565.57
5901.21
15981.7
-9.53668
-8.81614
-8.13349
-7.34016
-6.98103
-4.85528
-4.86231
-4.92439
-4.99258
-3.71108
-3.06563
-3.1258
-3.23229
-3.70295
-3.05364
-3.12269
-3.22218
-4.39586
-4.3791
-2.71491
-2.64017
-2.34673
-2.38829
-2.70662
-2.63648
-2.34005
-2.38382
15971.7
15261.2
14525.5
13853.6
13279.4
9794.12
9715.85
9328
9331.81
9008.86
8997.28
8589.68
8540.07
6862.74
7577.68
6913.97
7630.55
6812.62
7498.98
6871.72
7576.72
6237.22
6549.01
6745.23
7044.84
6804.84
7346.65
6270.47
6534.14
7034.52
6762.37
6753.93
7313.37
6570.85
6151.82
6568.9
6149.41
-9.52006
-8.81256
-8.10193
-7.55925
-5.22451
-5.20946
-5.60914
-5.64029
-5.64094
-5.64263
-4.96142
-5.1032
-3.56559
-3.12848
-3.14352
-3.41508
-3.55919
-3.12977
-3.14228
-3.41434
-4.06241
-4.52794
-3.80816
-3.95472
-4.03346
-4.51689
-3.82785
-3.95712
-2.73679
-2.75957
-2.74245
-2.76109
15964.3
15257.6
14539
13945.7
13175.7
9586.88
9570.13
9303.75
9262.49
8808.77
8740.35
7697.06
7084.99
7735.23
7004.27
7632.47
7011.73
7631.78
6935.41
7000.19
7448.5
6855.85
7330.23
7002.95
7444.32
6876.88
7355.12
-9.52298
-8.78944
-8.23024
-7.71676
-5.21484
-5.07638
-5.61824
-5.60789
-4.08139
-4.39531
-4.84463
-4.1862
-4.5778
-4.28919
-4.10898
-4.39588
-4.84362
-4.22598
-4.59403
-4.30852
-5.14032
-5.26356
-3.53752
-3.14365
-3.27606
-3.48945
-3.54036
-3.15233
-3.27474
-3.50309
-3.72642
-4.03793
-3.76353
-4.05027
15968.9
15278.4
14612.1
14144.6
10192.1
10259.2
9934.69
9966.02
9558.23
9543.12
9243.54
9189.07
7282.16
8125.65
7269.8
7971.93
7027.83
7957.08
7293.15
8118.38
7310.48
7965.93
7002.61
7901.39
7126.28
7950.75
7120.39
7952.13
6984.35
7506.9
7010.06
7546.34
-9.49711
-8.84097
-8.27804
-5.6346
-5.74496
-6.0488
-6.0391
-5.056
-5.07934
-5.50998
-5.36695
-4.14948
-4.35998
-4.77518
-4.19527
-4.54173
-4.42539
-4.19431
-4.37726
-4.85637
-4.24825
-4.57389
-4.53138
-3.98384
-4.52972
-3.52336
-4.14525
-4.24565
-4.60103
-3.93413
-4.25911
15978.2
15330.9
14695.5
13965.3
10216
10217.3
9868.22
9856.62
9444.66
9385.9
7482.96
8407.4
8344.74
7495.93
8178.26
7568.15
8321.37
7483.97
8153.41
7517.72
7437.34
8366.54
7470.2
7148.74
8349.61
7699.46
7460.99
7208.59
8335.27
7753.58
7046.98
7652.02
7087.66
7696.58
-9.51272
-8.86967
-8.29649
-5.58812
-5.57005
-5.9768
-5.97167
-3.51024
-4.19366
-4.74931
-4.06358
-4.56615
-4.20793
-3.88968
-4.26767
-4.59975
-3.69801
-4.26178
-3.9504
-5.52009
-5.42777
-4.27058
-4.09575
-4.35305
-4.23945
-3.41859
-3.80873
-3.70971
-3.95037
16003.7
15396.3
14717.3
11020.7
11022.6
10686
10643.5
10349.7
10300.2
9828.39
9781.39
7846.18
8659.56
7843.7
8484.37
7750.49
8658.84
7843.56
7697.88
8615.53
8646.22
7841.8
8467.71
7531.33
8062.66
7767.35
8674.84
7737.87
7524.9
8649.1
8062.78
-9.49652
-8.86003
-8.32668
-5.61486
-5.60514
-5.88915
-5.8605
-3.8642
-4.08513
-4.61929
-4.1017
-4.47311
-4.30876
-3.78164
-3.99158
-4.46877
-3.79205
-4.3033
-3.98949
-4.61446
-5.12724
-4.26611
-4.7974
-4.527
-5.07177
-4.23674
-4.73417
-3.4735
-3.59283
-3.64629
-3.78812
16077.9
15497.3
14954.1
10974.4
10958.4
10608.3
10585.5
10076.6
10073.3
7914.07
8732.96
8795.46
8087.58
8632.78
8090.42
7871.58
8707.78
8795.31
8078.1
8624.56
8091.62
7902.95
7836
8802.59
8385.31
7821.2
8371.45
7859.61
8764.18
-9.509
-8.8538
-6.11006
-5.82244
-5.78973
-6.09716
-6.44749
-6.4533
-5.55608
-4.48064
-4.90137
-5.53719
-4.45614
-4.89321
-3.87375
-4.17886
-4.49787
-4.19873
-4.3881
-4.28168
-3.5648
-3.96041
-4.45643
-3.86901
-4.21595
-4.12779
-4.12103
-4.5981
-4.14168
-4.57933
16247.2
15804.3
15370.1
11193.3
11167.4
10734
10717.8
8336.87
9080.08
8391.81
9009.35
8108.08
8796.28
8366.07
8085.19
8777.39
9074.32
8395.85
8983.15
8093.16
8636.4
8154.31
8781.4
8072.34
8616.54
8134.24
8749.94
7940.47
8562.5
7910.19
8539.66
-9.51461
-8.8422
-5.80466
-6.12167
-5.78133
-6.10156
-6.3926
-6.38921
-4.48457
-4.32733
-4.64045
-4.38729
-4.75308
-4.88952
-4.65207
-5.06233
-4.2703
-4.43383
-4.61967
-4.36222
-4.74043
-4.87687
-4.63434
-5.05284
-4.44441
-4.21042
-4.42361
-4.18544
-4.09089
-4.51422
-4.09184
-4.50237
16571
16124.6
11946.2
11141.8
11086.6
11942.8
11454.1
11458.7
10128.5
8488.34
9254.18
10152.6
8503.21
9257.6
8509.83
8632.57
8978.7
9363.09
8498.2
8964.25
8614.35
9356.61
8075.98
8577.21
8302.52
8807.29
8060.3
8556.01
8275.63
8789.28
-9.48936
-8.81709
-5.83385
-4.95034
-4.65785
-6.14857
-5.81608
-4.94384
-4.63712
-6.12074
-6.40863
-6.39754
-4.29879
-4.44652
-4.08105
-4.49927
-4.6076
-4.77783
-4.27464
-4.06586
-4.39072
-4.47477
-4.59142
-4.75923
-4.42468
-4.11848
-4.40614
-4.11592
16872.1
16275.7
12002.8
10983.1
11035
11951
11531.9
11491.6
8649.84
8405.29
9141.14
8428.61
9139.07
9209.46
8659.26
9445.11
8660.92
8443.99
9162.8
8465.81
9152.39
9171.07
8689.02
9458.84
8594.25
8517.85
9071.38
9152.73
8574.26
9070.56
8526.91
9153.15
-9.40437
-6.43368
-6.32518
-6.30798
-6.42258
-6.8092
-6.81435
-4.93547
-4.90683
-4.75841
-4.9318
-4.66345
-5.39391
-4.83026
-5.19838
-6.12842
-4.93318
-5.23638
-4.93584
-4.89707
-4.74651
-4.9272
-4.63949
-5.39009
-4.82544
-5.19452
-6.11107
-4.94446
-5.24031
-4.32897
-4.54272
-4.66843
-4.79721
-4.30231
-4.49115
-4.65331
-4.77812
17060.7
16477.1
12055
10859.9
9410.42
8653.4
10878.4
9402.55
8670.92
12005.5
11376.1
11379.6
8574.01
8789.22
8502.9
9032.62
9257.9
9418.08
8590.89
8739.63
8518.31
9264.64
9014.18
9394.81
8522.31
9013.72
8517.15
9014.09
-9.4318
-6.33
-6.36902
-6.31244
-6.35429
-6.63792
-6.64312
-4.6377
-4.77309
-4.94934
-4.84589
-4.84861
-5.11947
-4.91636
-4.90683
-5.19409
-4.97216
-5.2636
-5.31377
-5.15951
-5.6989
-4.60676
-4.76584
-4.83398
-4.94602
-4.84802
-5.11728
-4.91555
-4.92579
-5.19604
-4.99075
-5.26775
-5.31418
-5.1462
-5.69046
17309.4
12516.1
12010.6
11969.1
12568
12159.1
12206.1
8970.46
9441.43
8770.38
9547.39
8769.51
9864.49
8974.86
9726.96
9022.94
9355.87
8733.85
9539.8
8677.79
9844.32
9009.55
9734.12
11015.6
9045.28
9905.43
10992.4
9103.41
9894.71
8733.92
8866.89
9250.35
9643.35
8768.25
8788.74
9257.54
9642.3
-9.47132
-6.31313
-5.4643
-5.05857
-6.33116
-6.28704
-5.45711
-5.04631
-6.32223
-6.60043
-6.61089
-4.75375
-4.98967
-4.85951
-5.09693
-4.91047
-4.97029
-4.84862
-5.04135
-5.06822
-5.15633
-4.74509
-4.9852
-4.86643
-5.09747
-4.93143
-4.85955
-4.96649
-5.04329
-5.07344
-5.15492
17135.8
12496.9
11853.2
11848.4
12559
12135.1
12140.7
8871.93
8926.53
9509.35
9471.05
9168.41
9885.77
8764.23
8953.77
9504.84
9485.13
9167.22
9882.11
9213.04
9160.26
9890.64
9035.45
9799.2
9859.14
9315.6
10104.2
9229.84
9143.62
9891.38
9094.76
9829.78
9861.22
9345.82
10104
-9.4835
-6.60109
-6.61491
-6.19438
-5.39262
-4.98631
-5.32645
-5.05529
-6.30963
-6.17675
-5.38548
-4.97861
-5.32063
-5.0436
-6.30695
-4.87046
-4.91343
-4.98387
-4.9998
-5.00739
-5.0983
-4.88933
-4.92935
-4.98371
-5.00434
-5.01155
-5.0981
17255.4
12537.6
11853
10020.5
9321.84
11823.7
10019.7
9324.38
12571.2
12233.3
12207.2
8965.88
9476.14
9095.8
9825.8
8975.74
9484.69
9106.24
9804.44
9324.13
9475.87
9202.41
9755.19
9816
10077.9
9375.47
9430.87
9154.92
9831.51
9759.19
10045.6
-9.4643
-6.59563
-6.59494
-6.62183
-6.62046
-6.08678
-5.17993
-4.90422
-5.26117
-4.83037
-4.93436
-5.05254
-6.27228
-6.07711
-5.17801
-4.91138
-5.26017
-4.83179
-4.9415
-5.05423
-6.27142
-4.91976
-4.99292
-4.94143
-4.99854
17282.2
12534.4
12535.1
11908.4
9865.6
9345.21
9779.01
9371.78
11888.5
9871.92
9339.39
9781.75
9359.39
12159.8
12126.3
9434.21
9178.58
9503.82
9867.74
9580.76
9993.05
9455.38
9198.23
9466.26
9592.89
9846.29
9978.1
-9.48195
-6.59068
-6.61489
-6.62075
-6.63553
-6.27909
-6.27015
-5.96613
-5.07249
-4.61723
-5.00416
-4.70841
-4.90913
-4.85893
-4.98255
-4.79002
-4.88999
-4.96165
-5.95717
-5.07038
-4.62135
-5.00293
-4.7081
-4.91049
-4.86951
-4.98588
-4.79418
-4.91028
-4.96722
17280.7
12532.6
12533.9
12528.1
12528.5
11750.2
9705.99
9368.34
9768.55
9305.89
9469.2
9934.29
11684.7
9698.59
9372.57
9766.66
9326.24
9438.61
9912.86
12247
12215.1
9410.75
9850.26
9399.21
9815.23
-9.48977
-6.62866
-6.69735
-6.65213
-6.72132
-6.2739
-6.28838
-6.25806
-6.27425
-6.00596
-5.99292
-4.94401
-4.54702
-4.94928
-4.54026
-4.81375
-4.52947
-4.72413
-4.65612
-4.84475
-4.825
-4.90124
-4.75595
-4.94086
-4.55262
-4.94787
-4.53733
-4.81398
-4.52235
-4.72221
-4.65333
-4.84751
-4.84168
-4.9061
-4.76608
17256.7
12532.9
12538.4
12528.1
12527.9
12278.2
12242.8
11646.6
9766.59
9180.29
9787.73
9248.79
9692.73
9429.24
9835.47
9347.65
9445.79
9913.44
11595.3
9733.37
9261.69
9808.17
9275.28
9665.19
9399.5
9816.42
9341.09
9424.37
9862.77
-9.49037
-6.7388
-6.86309
-6.76432
-6.88989
-6.3265
-6.39557
-6.31434
-6.38641
-6.0209
-6.0321
-5.98279
-6.00549
-5.05197
-4.61196
-5.02944
-4.64244
-5.03672
-4.61767
-5.0263
-4.62008
-4.64983
-4.44656
-4.67287
-4.41732
-4.64401
-4.43321
-4.67049
-4.39401
17138.7
12541.7
12530.9
12536.1
12573.5
12273.4
12251.3
12240.6
12216
11640.8
11584.9
10136
9313.97
10049.4
9418.57
9978.06
9329.81
10010.1
9377.71
9797.53
9441.81
9888.13
9362.21
10124.4
9332.56
10050.9
9397.66
9685.09
9159.53
9705.17
9247.32
9771.83
9455.24
9855.7
9380.37
-8.87539
-9.52724
-6.44382
-6.50073
-6.43479
-6.49776
-6.08493
-6.1714
-6.05235
-6.13771
-5.08141
-4.64256
-5.0702
-4.64919
-5.07097
-4.64711
-5.10309
-4.60278
-5.06841
-4.6285
-5.05534
-4.63208
-5.0609
-4.62981
-5.08465
-4.58962
-4.78174
-4.50243
-4.75022
-4.52941
-4.77044
-4.46532
-4.74151
-4.49139
17319.4
12492.2
12523.8
12563
12563.9
12161
12231.7
12131.4
12209.6
11640.7
11661.2
11586.9
11612.1
10194
9481.78
10222.8
9458.29
10178.3
9446.94
10202.9
9429.59
10330.1
9401.58
10091.4
9564.78
10285
9365.53
10044.7
9495.62
-8.82874
-6.30298
-6.34573
-6.29088
-6.33975
-9.53624
-6.28694
-6.30291
-6.25248
-6.27963
-5.15829
-4.68554
-5.09459
-4.77165
-5.24733
-4.97163
-5.33272
-4.88488
-5.14732
-4.67853
-5.0804
-4.76634
-5.23955
-4.9844
-5.32652
-4.88687
-4.80683
-4.53038
-4.78889
-4.53367
-4.76134
-4.46088
-4.79746
-4.42389
-4.79381
-4.48251
-4.77592
-4.49179
-4.75209
-4.42748
-4.78068
-4.39573
17065.3
16484.9
12130.3
12163.8
12148.2
12198.7
11761.5
11914.1
11706
11895.3
10193.6
9482.6
10221.3
9455.89
10139.5
9305.94
10047.8
9421.02
10180
9446.76
10200.7
9430.24
10127.1
9330.48
10054.4
9401.88
10349.9
9588.63
10394
9567.25
10325.7
9554.14
10371.3
9522.83
-8.84202
-6.41129
-6.50001
-6.40046
-6.49928
-6.09924
-6.09956
-6.08321
-6.07747
-9.5273
-5.41638
-5.0544
-5.39718
-5.06498
-5.46269
-5.13294
-5.68521
-5.04291
-5.40798
-5.05321
-5.38802
-5.06451
-5.45468
-5.1393
-5.67559
-5.04498
-4.87196
-4.55322
-4.81379
-4.64565
-4.97058
-4.84561
-5.03766
-4.79122
-4.86159
-4.52475
-4.80104
-4.61964
-4.96313
-4.8398
-5.03253
-4.7712
16883.5
16280.9
12020.7
12055.9
11974.6
12011.5
11856.4
11858.2
11821.1
11850.7
9759.16
9163.58
9767.25
9248.28
9705.29
9379.47
9780.97
9303.57
9737.73
9241.18
9792.53
9280.22
9700.02
9379.32
9782.8
9326.95
10350.2
9590.13
10396
9567.92
10339.6
9392.11
10070.1
9576.76
10325.9
9554.48
10372.1
9524.58
10292.8
9375.6
10042.5
9504.13
-8.3838
-8.89081
-6.0889
-6.09686
-6.0708
-6.08069
-4.93454
-4.9056
-5.23627
-4.99143
-5.31631
-5.32747
-4.98706
-5.49386
-5.02111
-5.34001
-4.94301
-4.90714
-5.23717
-5.00323
-5.31737
-5.32586
-4.99825
-5.49636
-5.0193
-5.3428
-9.51918
-5.14207
-4.91904
-5.10204
-4.97296
-5.1808
-4.96506
-5.13602
-4.91173
-5.09722
-4.95554
-5.17601
-4.94763
-4.90012
-4.83535
-4.94346
-4.77734
-4.89
-4.82846
-4.93708
-4.75861
16582.1
16135
12003.5
11950
11953.6
11944.2
11010.2
11366.6
11001.3
11376.2
9876.78
9348.02
9787.27
9378.52
10023.6
9311.73
10100.1
9318.11
9877.19
9335.58
9784.87
9370.94
10028.9
9343.98
10101.5
9335.69
9979.69
9321.41
10017.4
9362.84
9713.47
9438.65
9827.32
9354.28
9701.29
9192.88
9762.88
9259.97
9681.83
9380.47
9800.51
9343.13
-8.38607
-5.91216
-6.01223
-5.89477
-5.99622
-8.91633
-5.92493
-5.87128
-5.91617
-5.86248
-4.97448
-4.95677
-5.122
-5.13055
-4.9393
-5.15802
-4.71223
-5.18735
-4.84789
-5.11815
-4.98223
-4.96301
-5.12299
-5.13186
-4.95474
-5.16132
-4.71175
-5.18742
-4.85899
-5.11892
-9.53905
-5.05157
-4.90586
-5.00396
-4.96643
-5.07246
-4.98113
-5.04677
-4.902
-4.99909
-4.96139
-5.06933
-4.97726
16259.7
15813
15378.3
11529.9
11458.3
11494.7
11458.7
9156.44
9205.61
9899.02
9049.34
9810.44
9848.62
8985.14
9884.3
9053.65
9918.23
9220.8
9193.77
9911.74
9117.07
9845.87
9857.5
9050.94
9879.08
9123.44
9914.91
10011.9
9467.14
9929.25
9514.13
10093.1
9482.43
9999.08
9423.58
9906.89
9477.43
10071.7
9451.2
9831.72
9462.76
9884.37
9383.68
9779.21
9421.95
9838.7
9374.16
-8.3701
-6.09416
-6.19392
-6.07576
-6.17487
-5.62201
-5.7424
-5.61576
-5.74324
-8.88957
-5.00105
-4.7795
-4.99723
-4.74986
-5.01179
-4.68969
-5.12402
-4.72969
-5.00317
-4.77718
-5.00049
-4.73925
-5.01442
-4.6905
-5.12943
-4.72466
-4.96753
-5.08804
-4.83932
-5.02015
-4.858
-5.05492
-4.97225
-5.08754
-4.84281
-5.02071
-4.86213
-5.05332
-9.51034
16099.6
15512
14958.3
11144.8
11199.6
11086
11172.5
10873.6
10991.5
10888.9
11049.4
9314.62
9219.73
9837.15
9746.54
9091.39
9823.92
8988.07
9730.89
9168.59
9891.17
9393.58
9177.65
9754.35
9857.72
9084.67
9796.04
9025.95
9743.39
9163.4
9887.38
9855.72
9463.78
9914.26
9426.73
9880.27
9449.17
9794.9
9400.19
9854.2
9370.13
9857.37
9463.56
-7.94818
-8.34065
-5.71928
-5.78887
-5.71106
-5.79932
-4.42465
-4.54149
-4.65971
-4.4953
-4.82993
-4.93794
-4.77996
-5.32738
-4.60231
-5.03115
-4.44646
-4.53774
-4.66774
-4.51601
-4.83056
-4.94219
-4.76542
-5.31577
-4.61853
-5.0354
-8.80138
-4.87674
-4.6676
-4.89833
-4.63454
-4.83582
-4.55724
-4.86919
-4.65692
-4.89822
-4.61479
-4.83996
-4.55807
-9.51221
16026
15420.3
14729.7
10978.7
11026.1
10960.6
11027.3
10120.4
10740.5
10148
10726.4
9443.27
8765.81
9551.82
8757.85
9411.78
8662.18
9451.36
8653.41
9345.68
8735.66
9555.62
8671.12
9397.72
8695.36
9464.99
8664.09
9178.85
9592.12
8914.01
9449.31
8929.96
9461.07
9235.93
9603.89
8938.68
9467.71
8947.71
9470.62
-7.75612
-5.77982
-5.73512
-5.73488
-5.75803
-8.15411
-5.81168
-5.79414
-5.79492
-5.76014
-4.42214
-4.24189
-4.64549
-4.54745
-4.22991
-4.60969
-4.43405
-5.02295
-4.24136
-4.73729
-4.46162
-4.26364
-4.65884
-4.54886
-4.26381
-4.61305
-4.44866
-5.02332
-4.27871
-4.74893
-8.79804
-4.70725
-4.45205
-4.71778
-4.4846
-9.52204
15997.4
15353.7
14732.1
13979.6
10614
10695.9
10591.2
10649.4
8393.68
8646.11
9150.24
8421.04
9127.85
9192.33
8340.34
9081.69
8486.69
9249.7
8655.99
8433.17
9171.97
8454.18
9142.38
9155.16
8359.82
9070.32
8492.33
9248.11
9634.95
8842.23
9508.26
8829.62
9411.06
8767.95
9628.81
8767.71
9509.88
8774.88
9385.93
8736.97
-7.25009
-7.36652
-5.43691
-5.53396
-5.37411
-5.5146
-8.10332
-5.01852
-4.57992
-4.91438