/*--------------------------------*- C++ -*----------------------------------*\
| =========                 |                                                 |
| \\      /  F ield         | OpenFOAM: The Open Source CFD Toolbox           |
|  \\    /   O peration     | Version:  5.x                                   |
|   \\  /    A nd           | Web:      www.OpenFOAM.org                      |
|    \\/     M anipulation  |                                                 |
\*---------------------------------------------------------------------------*/
FoamFile
{
    version     2.0;
    format      ascii;
    class       volScalarField;
    location    "0.8";
    object      p_rgh;
}
// * * * * * * * * * * * * * * * * * * * * * * * * * * * * * * * * * * * * * //

dimensions      [1 -1 -2 0 0 0 0];

internalField   nonuniform List<scalar> 
12160
(
5683.91
5687.57
5683.54
5692.98
5686.92
5684.45
5695.76
5692.42
5688.19
5683.36
5693.63
5695.69
5694.5
5686.41
5684.99
5683.23
5694.49
5699.09
5692.85
5688.18
5683.72
5663.44
5684.73
5698.37
5698.79
5695.82
5685.77
5685.57
5634.12
5665.08
5688.83
5701.22
5705.34
5693.58
5686.34
5684.41
5598.16
5635.47
5668.85
5693.71
5709.25
5705.8
5694.04
5681.6
3997.84
5558.17
5598.99
5638.39
5673.85
5702.1
5714.15
5712.39
5676.06
3877.63
195.594
5517.13
5558.43
5600.75
5642.35
5681.85
5711.43
5729.94
5707.76
3861.34
252.368
1.97843
5477.24
5516.9
5559.01
5603.05
5648.65
5691.34
5724.61
5735.65
4048.68
337.772
0.531315
0.085799
5440.07
5476.65
5516.46
5559.55
5606.88
5655.96
5704.02
5739.32
4199.95
507.969
1.63096
0.0379362
-0.00883076
5406.59
5439.24
5475.44
5515.51
5560.89
5610.77
5665.71
5720.26
4204.19
727.211
4.61066
0.0494978
0.0263656
0.0526108
5377.27
5405.62
5437.53
5473.39
5514.78
5561.36
5616.26
5678.89
4042.75
823.645
12.8725
-0.00551974
0.029232
0.0191442
-0.0274118
5352.16
5376.25
5403.66
5434.79
5471.17
5512.43
5562.79
5622.87
3705.81
777.778
23.121
-0.0738172
-0.0124098
0.0173755
-0.00248264
5331.1
5351.15
5374.19
5400.55
5431.63
5466.84
5510.84
5563.67
3268.19
611.587
25.443
-0.0945729
-0.0806553
-0.0096226
-0.00156484
5313.79
5330.14
5349.11
5370.98
5396.91
5426.09
5463.32
5507.22
2797.62
418.86
17.5543
-0.0947418
-0.126309
-0.0439653
-0.00999466
5299.86
5312.88
5328.19
5345.96
5367.17
5390.78
5421.56
5456.37
2343.04
262.999
7.89348
-0.102973
-0.136912
-0.0692966
-0.0207461
5288.95
5299.02
5311.06
5325.2
5342.2
5360.89
5385.9
5412.42
1929.96
155.023
2.95877
-0.0579181
-0.107107
-0.0781601
-0.024258
5280.71
5288.17
5297.33
5308.28
5321.6
5336.09
5356.06
5375.53
1569.54
86.7041
1.05429
-0.00448655
-0.0473321
-0.0620111
-0.0247305
5274.87
5279.98
5286.61
5294.76
5304.91
5315.84
5331.52
5345.25
1264.39
46.4587
0.376673
0.0299587
-0.00395096
-0.0287797
-0.0195062
5271.19
5274.18
5278.53
5284.23
5291.64
5299.58
5311.64
5320.82
1012.06
24.1417
0.155271
0.0444141
0.0185104
-0.00367151
-0.00940319
5269.5
5270.53
5272.81
5276.33
5281.35
5286.76
5295.76
5301.42
807.245
12.3426
0.0885202
0.0495286
0.0295747
0.0101408
-0.00155903
5269.66
5268.84
5269.2
5270.73
5273.63
5276.88
5283.29
5286.22
643.59
6.30622
0.0711953
0.0528545
0.0338412
0.0170859
0.00311097
5271.6
5268.99
5267.53
5267.2
5268.18
5269.51
5273.72
5274.5
514.715
3.27731
0.06719
0.0553112
0.0361596
0.0201137
0.00552503
5275.3
5270.92
5267.67
5265.56
5264.74
5264.32
5266.59
5265.64
414.786
1.77138
0.0643041
0.0555991
0.0378239
0.0216786
0.00665902
5280.75
5274.58
5269.55
5265.68
5263.13
5261.04
5261.58
5259.12
338.818
1.01963
0.0605994
0.0534069
0.0383266
0.022629
0.00723035
5287.97
5279.98
5273.13
5267.48
5263.21
5259.49
5258.41
5254.57
282.745
0.640429
0.0562063
0.0492925
0.0373391
0.0228682
0.00754132
5297.01
5287.14
5278.43
5270.95
5264.93
5259.54
5256.9
5251.7
243.417
0.44706
0.0508973
0.0442751
0.0349839
0.0222692
0.00760513
5307.9
5296.1
5285.47
5276.09
5268.26
5261.12
5256.91
5250.29
218.468
0.347809
0.0457864
0.0395926
0.0317269
0.020878
0.00739827
5320.69
5306.93
5294.3
5282.94
5273.22
5264.22
5258.4
5250.24
206.24
0.298032
0.0421951
0.0352342
0.0286105
0.0189878
0.00694413
5335.41
5319.65
5304.98
5291.56
5279.84
5268.86
5261.33
5251.47
205.698
0.277914
0.0399588
0.0317529
0.0258653
0.0171074
0.0063396
5352.06
5334.3
5317.56
5302.01
5288.2
5275.11
5265.75
5253.99
216.303
0.278616
0.0390143
0.0295447
0.0238078
0.0154007
0.00573163
5370.59
5350.9
5332.08
5314.36
5298.38
5283.04
5271.72
5257.86
238.032
0.299391
0.0392742
0.0284908
0.0225344
0.0140284
0.00519467
5390.95
5369.4
5348.56
5328.67
5310.46
5292.76
5279.32
5263.15
271.219
0.344645
0.0406823
0.0286705
0.0220099
0.0131084
0.00480922
5413
5389.75
5367
5344.97
5324.52
5304.37
5288.67
5270
316.555
0.42681
0.0433294
0.0300529
0.0221731
0.0126766
0.00458717
5436.54
5411.83
5387.33
5363.28
5340.62
5317.99
5299.9
5278.56
374.985
0.570079
0.047168
0.0325207
0.0230038
0.01276
0.00450465
5461.35
5435.44
5409.46
5383.57
5358.8
5333.72
5313.12
5289.01
447.677
0.819627
0.0523852
0.036135
0.0245199
0.0133485
0.00454154
5487.11
5460.37
5433.2
5405.74
5379.04
5351.61
5328.46
5301.53
535.962
1.25175
0.0580434
0.0405836
0.026732
0.0144071
0.00469262
5486.3
5530.67
5458.36
5429.67
5401.3
5371.72
5346.01
5316.31
641.235
1.99539
0.0633956
0.045272
0.0295166
0.0158725
0.00496335
5484.63
5530.23
5591.58
5455.14
5425.46
5394.03
5365.86
5333.52
764.87
3.26465
0.0678953
0.0500969
0.0326286
0.0176216
0.00537486
5481.89
5529.32
5591.94
5644.85
5451.36
5418.46
5388.05
5353.29
908.109
5.40264
0.0718938
0.0548894
0.0358754
0.0195279
0.00591304
5478.74
5527.65
5592.64
5646.23
5685.77
5444.88
5412.55
5375.73
1071.94
8.9375
0.0753868
0.0588956
0.0390337
0.0214804
0.00653007
5473.08
5525.92
5593.33
5648.98
5688.29
5712
5439.29
5400.87
1256.93
14.6517
0.0786701
0.0617931
0.0415433
0.0233234
0.00716267
5468.12
5522.1
5594.79
5652.66
5693.14
5713.87
5705.78
5428.67
1463.02
23.6576
0.0849226
0.0634309
0.0432073
0.0248064
0.00775891
5459.01
5518.79
5595.13
5658.16
5700.07
5720.59
5714.49
5743.64
1689.66
37.4168
0.10075
0.0638961
0.0440744
0.0258134
0.008247
1935.45
5512.77
5596.2
5663.7
5709.91
5731.39
5728.53
5735.47
5597.37
57.663
0.138963
0.0636948
0.0442794
0.0263614
0.00858908
86.4743
2365.35
5596.52
5670.65
5720.94
5745.8
5746.41
5741.2
5620.19
5602.65
0.225595
0.0633752
0.0441327
0.0265336
0.00878647
0.415844
158.761
3027.97
5678.88
5734.22
5762.17
5765.85
5754.52
5663.47
5628.5
5309.31
0.0625291
0.0438008
0.0264533
0.00885877
0.0610962
1.08314
326.911
3663.09
5750.91
5781.38
5787.76
5774.15
5713.58
5662.63
5465.85
5445.51
0.0427273
0.0261373
0.00883144
0.0410326
0.0419519
4.40369
566.78
4202.64
5803.59
5812.31
5799.13
5756.42
5721.69
5552.51
5538.4
5454.57
5434.85
0.0252288
0.00869074
0.0238344
0.0273328
0.00434033
13.5975
841.25
4608.51
5838.17
5829.8
5795.54
5763.05
5689.62
5629.24
5514.46
5400.67
5430.97
5456.38
0.00831891
0.00773701
0.0155161
0.00175152
-0.040539
30.1657
1091.21
4883.24
5860.61
5833.8
5802.68
5763.46
5705.23
5590.13
5463.69
5283.1
5370.03
5442.69
5502.62
0.00493177
0.000108216
-0.0516037
-0.03455
47.8205
1266.53
5060.33
5866.52
5842
5805.74
5763.63
5666.86
5549.33
5349
5099.58
5250.87
5374.89
5482.03
5574.69
-0.000274871
-0.031281
-0.10962
0.0147304
54.4655
1349.28
5178.74
5871.13
5843.3
5807.79
5726.8
5623.57
5433.27
5183.54
4792.38
5057.82
5260.66
5413.42
5549.75
5663.77
-0.0102663
-0.0642137
-0.149407
-0.00633347
48.6387
1348.01
5250.99
5866.95
5844.58
5768.04
5682.24
5519.46
5294.39
4910.85
4359.6
4741.32
5069.72
5314.28
5490.47
5641.61
5769.76
-0.0205221
-0.0867012
-0.164445
-0.0681149
37.0447
1302.36
5266.23
5864.6
5805.05
5728.05
5595.26
5396.1
5070.64
4509.83
3004.86
4307
3009.35
3165
3163.98
4780.31
5135.1
5397.91
5591.32
5749.97
5883.31
-0.0275249
-0.0952814
-0.165847
-0.109201
26.1443
1206.61
5258.9
5824.56
5769.34
5651.16
5480.6
5222.63
4768.88
4022.63
2870.96
2830.45
4390.09
2880.91
2788.41
2795.36
2806.15
2917.13
2896.28
4880.88
5244.76
5509.38
5709.15
5867.72
5999.69
-0.0314185
-0.0959243
-0.154015
-0.12178
17.5039
1080.27
5089.19
5790.42
5698.86
5547.35
5342.75
4996.61
4406.64
2898.29
2885.16
3153.47
3148.17
2776.24
2722.23
4537.76
3954.45
2768.73
2790.93
2804.83
2670.96
2766.05
2728.85
5022.89
5381.43
5639.96
5834.51
5987.07
6114.52
-0.0359037
-0.0912114
-0.134082
-0.113318
11.4731
873.303
4939.39
5710.85
5607.23
5424.71
5159.08
4709.77
3406.2
3402.56
3629.43
3628.4
2699.18
2691.76
2994.35
2989.54
2687.41
2314.33
2177.32
2277.38
2215.29
4766.79
4375.17
2861.37
2859.51
2805.03
2803.01
2661.07
2712.72
2713.44
2297.55
2158.65
2262.58
2194.34
2379.25
2362.87
2493.17
2263.49
2362.68
2352.68
2480.09
2242.93
5204.88
5535.8
5780.47
5960.68
6104.66
6221.43
-0.0419301
-0.0842195
-0.111756
-0.0989794
7.44208
672.701
4513.94
5612.34
5492.94
5272.74
4920.2
3831.95
3829.04
4024.94
4022.2
3251.52
3241.07
3472.41
3459.74
2313.99
2247.94
2392.6
2394.15
2462.18
2344.23
2241.74
2315.87
2391
2395.23
2462.73
2335.4
2707.56
2734.5
2558.19
2607.3
2714.69
2737.71
2566.36
2609.91
2288.16
2137.63
2248.61
2141.25
2440.52
2263.68
2443.9
2286.6
5013.29
4538.25
2935.73
2919.65
2898.87
2889.11
2813.27
2795.01
2650.41
2636.08
2276.2
2117.43
2232.45
2122.06
2349.93
1989.97
2318.71
2114.9
2344.88
1990.34
2318.94
2105.97
2426.54
2248.42
2427.77
2271.2
2409.72
2289.99
2398.02
2275.34
5398.17
5702.26
5918.67
6084.19
6214.08
6316.94
-0.0475242
-0.0768891
-0.0925479
-0.0920658
4.03506
438.749
3983.52
5452.34
5342.5
5077.15
4187.77
4185.23
4388.02
4388.69
3696
3684.9
3905.17
3896.31
2816.71
2834.07
2915.85
2928.66
2822.16
2836.43
2920.79
2930.74
3185.21
3181.67
3038.02
3046.37
3187.29
3183.53
3041.42
3047.91
2303.37
2369.69
2535.08
2420.62
2463.44
2577.99
2298.32
2366.08
2413.78
2531.31
2465.04
2575.71
2688.96
2746.36
2568.18
2650.22
2696.37
2748.63
2577.84
2651.97
2492.78
2247.81
2455.09
2248.83
2529.47
2336
2527.06
2347.28
5255.18
4948.43
3036.74
3016.92
2981.03
2960.15
2884.03
2880.63
2860.5
2855.54
2152.92
2555.39
2186.6
2582.05
2149.64
2555.98
2180.61
2578.81
2218.68
2117.35
2558.01
2197.94
2580.81
2583.85
2211.55
2105.46
2545.91
2189.85
2573.67
2572.29
2474.85
2231.1
2436.21
2230.38
2546.59
2231
2532.32
2212.88
2514.98
2309.75
2507.08
2325.62
2502.11
2332.5
2489.35
2318.96
5594.82
5858.51
6052.32
6198.78
6311.34
6397.37
-0.0516408
-0.0702462
-0.0825261
-0.0891336
1.86796
255.732
3241.56
5118.05
5167.18
4509.96
4511.97
4641.66
4642.33
4079.28
4073.94
4268.47
4266.58
3282.92
3310.96
3366.01
3445
3281.42
3312.52
3369.65
3446.34
3594.09
3734.64
3462.73
3567.67
3592.17
3731.9
3466.24
3567.85
2782.53
2830.29
2884.28
2912.97
2789.83
2831.99
2895.82
2916.33
3097.43
3091.57
2997.96
3004.13
3111.93
3096.81
3011.74
3009.23
2502.23
2317.34
2511.31
2306.43
5471.16
5254.06
3125.84
3118.77
3087.51
3071.73
2938.87
2921.22
2901.6
2892.02
2009.67
2326.76
2040.34
2369.07
2028.41
2338.02
2048.99
2376.22
2119.49
2508.68
2072.4
2439.67
2117.75
2510.45
2078.36
2443.03
2187.49
2543.83
2215.86
2550.33
2186.74
2541.81
2213.27
2547.8
2249.64
2234.56
2517.4
2517.88
2232.33
2538.53
2231.69
2227.35
2509.39
2498.8
2227.23
2536.17
2482.17
2293.29
2494.76
2278.02
2501.82
2285.83
2480.21
2258.35
5775.07
6006.77
6174.17
6299.7
6393.27
6460.35
-0.0539592
-0.066542
-0.0713826
-0.086235
0.750556
122.786
2204.16
4604.11
4943.12
4400.51
4400.22
4521.62
4522.75
3943.69
3941.98
4143.09
4137.71
3207.29
3208.51
3328.72
3352.37
3218.02
3213.02
3337.11
3356.31
3561.13
3602.12
3435.59
3479.16
3563.5
3602.63
3440.46
3481.7
3099.19
3160.99
3112.45
3164.14
5679.53
5513.42
3271.21
3275.07
3191.77
3187.8
3169.52
3148.44
3095.8
3068.98
1932.67
2520.11
2022.17
2425.33
1942.07
2523.33
2038.4
2432.7
2021.74
2333.93
2024.96
2359.47
2036.13
2345.78
2046.51
2370.24
2163.99
2486.69
2199.4
2522.69
2164.23
2484.49
2188.56
2517.34
2173.5
2539.92
2186.66
2537.82
2169.6
2535.38
2178.62
2531.3
5945.33
6138.7
6280.9
6384.67
6457.55
6503.45
-0.0569974
-0.0624527
-0.0588429
-0.0858784
0.167746
47.2789
1073.03
3940.83
4557.44
4558.2
4459.1
4461.17
4295.91
4290.19
4439.63
4440.01
3773.07
3648.55
3641.76
3752.14
3772.69
3651.16
3642.11
3751.85
3889.72
3928.84
3997.67
3846.36
3889.27
3928.71
3997.29
3844.28
3200.56
3256.36
3308.07
3366.04
3211.5
3260.77
3317.26
3370.37
3527.17
3539.14
3402.08
3471.13
3535.31
3541.83
3409.55
3473.91
5873.85
5665.31
5552.52
3166.26
3167.29
3196.66
3182.19
3063.76
3048.23
2945.58
2931.66
2030.5
2681.7
2170.94
2656.94
2023.34
2678.44
2168.45
2650.98
2172.44
2525.08
2193.64
2583.35
2170.15
2518.44
2192.3
2576.02
2108
2394.95
2125.64
2389.89
6093.5
6253.44
6370.71
6451.7
6501.49
6525.27
-0.059255
-0.0601753
-0.047365
-0.0830085
0.0080585
13.8911
389.166
2448.35
4471.24
4469.72
4067.1
4067.89
4010.63
4093.26
4212.72
4088.99
4010.14
4092.89
4211.3
4089.29
4350.21
4346.73
3714.54
3643.85
3612.67
3737.59
3715.13
3649.92
3613.99
3736.35
3805.41
3899.31
3910.24
3821.54
3805.97
3899.08
3910.83
3819.88
3541.54
3540.14
3550.99
3542.6
6046.92
5837.83
5708.8
3356.3
3347.27
3357.25
3324.33
3276.47
3252.33
3207.97
3176.77
2329.98
1965.01
2351.31
1984.13
2331.31
1987.22
2354.92
1987.02
2367
2084.08
2444.06
2010.72
2359.08
2073.31
2437.33
2002.79
2162.24
2481.62
2193.39
2455.89
2153.13
2466.29
2179.85
2440.25
2126.75
2399.83
2172.66
2428.94
2129.71
2390.33
2169.23
2416.32
6217.24
6350.33
6442.33
6497.4
6523.64
-0.0609061
-0.0566769
-0.0424205
-0.0293794
-0.0291564
3.33168
76.9007
1675.17
1675.53
652.411
652.909
4127.98
4313.09
3924.32
4396.78
4126.56
4312.49
3925.03
4396
3441.1
3442.54
3976.5
4000.43
4100.65
4061.32
3977.15
4001.26
4100.84
4062.11
4177.28
4233.21
4118.2
4129.21
4176.9
4232.25
4117.17
4128.61
3822.26
3862
3897.85
3793.34
3822.98
3865.7
3898.62
3797.15
6178.6
6029.81
5916.29
5849.2
3315.85
3276.3
3174.16
3140.94
3075.22
3042.85
1972.91
2421.8
2447.43
1864.35
1981.22
2421.8
2458.5
1866.92
2486.77
2088.46
2493.48
2107.29
2471.2
2068.84
2473.7
2080.63
2492.76
2173.65
2481.77
2142.4
2482.83
2160.42
2469.3
2120.42
2161.29
2423.98
2153.67
2410.38
6322.53
6428.88
6490.83
6520.24
-0.0585985
-0.0562534
-0.0212104
0.0559893
-0.0413957
0.791251
29.7088
29.7392
2.32922
2.32987
773.176
774.072
125.695
126.144
3951.76
4238.68
3611.75
4294.6
3949.91
4238.36
3612.25
4295.02
3657.76
2016.87
2772.1
2738.82
3659.05
2011.52
2775.53
2736.35
3933.22
3967.27
4032.34
4022.77
3936.91
3968.1
4032.5
4023.06
4146.33
4160.79
4092.11
4086.24
4144.74
4160.74
4090.07
4086.25
6289.69
6166.8
6098.39
5999.26
3395.59
3376.51
3322.19
3307.69
3076.6
3082.54
1903.87
2400.29
1746.78
2403.43
1923.25
2402.96
1781.82
2414.42
1924.68
2358.84
1995.98
2378.59
1898.25
2533.96
1958.43
2355
2021.98
2372.22
1875.04
2512.02
2077.43
2574.98
2054.88
2548.74
2329.57
2012.81
2342.92
2002.96
2323.73
2033.1
2329.93
2012.03
6410.76
6481.27
6514.88
-0.0623716
-0.0374072
0.0061897
0.172658
-0.00920139
0.846417
6.96506
6.95459
2.03682
2.03138
267.589
1643.75
360.963
55.6158
113.876
2238.48
1641.58
268.088
2238.61
361.635
55.9627
114.384
3.92523
3.56994
10.9869
18.317
3.90282
3.56356
11.0807
18.4366
3776.74
4207.14
3552.61
4242.22
3777.29
4206.96
3553.47
4242.32
3180.71
2162.88
3180.98
2159.96
4023.42
4013.94
4023.61
4013.2
3992.85
4154.91
3992.43
4154.97
6387.52
6268.92
6214.81
6204.25
3457.96
3451.84
3390.24
3367.11
3153.26
3141.55
3048.2
3038.54
2403.56
1623.32
2335
1862.53
2509.57
1806.43
2394.75
1654.84
2328.58
1869.16
2492.87
1791.01
2014.03
2574.07
2000.2
2550.99
2056.02
2500.75
2087.29
2097.96
2463.14
2447.34
2047.27
2482.94
2064.03
2106.53
2458.17
2435.8
2080.12
2412.03
2086.67
2397.44
6468.1
6507.54
-0.0530416
-0.0194888
0.0271969
0.180385
0.826956
3.91405
3.93013
4.18018
4.15364
3.84037
3.83063
2.53834
2.51368
836.77
31.9268
63.4404
894.792
3.65246
3.83436
836.57
32.0953
895.303
63.8245
3.66976
3.90364
3.58709
3.46506
4.10785
5.9251
3.57907
3.46174
4.12638
5.96862
2986.86
3909.92
2985.17
3909.69
6450.74
6365.81
6281.35
6310.56
6266.12
3129.36
3147.48
3270.95
3224.31
1608.43
2301.38
1766.53
2339.91
1616.8
2290.97
1789.86
2338.33
1749
1691.4
2301.93
1794.03
2324.05
2475.68
1782.66
1700.41
2301.52
1824.84
2328.08
2471.37
2569.87
2433.44
1958.94
2050.09
2573.49
2434.12
1953.34
2049.29
2036.47
2416.81
2040.88
2407.94
2008.26
2381.58
2061
2399.06
2026.84
2369.92
2060.69
2396.33
6498.67
-0.0536806
0.0127841
0.0408892
0.24676
2.58527
2.49913
2.62905
3.15762
3.04643
2.659
2.89171
3.34283
2.7359
2.73219
2.89143
3.39724
2.74208
2.11283
2.2703
3.45262
4.64048
2.98371
3.28482
3.44268
4.64827
2.98175
3.28846
6488.7
6432.23
6350.77
6334.12
6419.95
3439.98
3361.68
3307.48
3311.28
3318.97
3307.46
3231.58
3182
1760.81
2475.71
1984.71
2701.27
1710.65
2397
1942.43
2647.43
1765.35
1893.33
2273.35
2389.16
2022.27
2564.07
1798.57
1878.47
2378.86
2290.48
1971.35
2530.8
2419.12
2000.12
2417.16
1997.66
-0.0370751
0.0162204
0.0722505
0.314042
6.3852
2.16147
6.46148
6.58471
0.605397
0.686349
1.97035
1.31291
2.33141
2.48447
2.76941
2.35651
2.37777
2.50766
2.82606
2.40636
2.16161
2.00576
2.2483
2.49464
2.39339
2.19548
2.39716
2.55955
3.20724
4.0785
3.18158
4.10697
6481.28
6428.67
6364.6
6428.2
6326.15
3245.58
3228.8
3301.47
3260.22
3139.27
3070.83
2264.82
1815.78
2465.96
1571.87
2200.24
1742.44
2362.48
1503.07
1894.54
2342.81
1897.05
2371.43
1897.24
2338.61
1918.05
2396.3
-0.0400299
0.0390542
-0.0535
0.501199
9.44111
4.05727
6.15201
8.17959
1.87852
2.06792
1.24285
1.72408
1.56948
1.78586
1.99731
2.23902
1.25444
1.68484
1.59381
1.76686
1.54349
1.12155
2.23074
2.50579
2.37451
2.28744
2.23993
2.50588
2.36989
2.39138
2.20248
2.35879
2.34234
2.486
6485.95
6449.58
6438.52
6630.42
3181.34
3248.5
3263.76
3295.1
3232.46
3217.47
3262.84
3208.41
1552.37
2395.73
1707.07
2409.15
1603.12
2532.32
1563.37
2388.53
1747.68
2403.14
1577.81
2476.6
1850.29
2674.72
1844.34
2676.08
1841.46
2363.98
1867.09
2403.39
-0.0142322
-0.0129787
-0.0998255
1.89602
3.30122
1.62502
1.63471
12.5351
8.51947
3.73867
9.03955
1.68892
1.8284
1.32723
1.74312
1.48991
1.64777
1.71138
1.8387
1.22631
1.69068
1.45732
1.54231
8.05943
4.94451
2.81577
2.84641
3.05326
2.38457
2.31443
2.07591
6495.26
6502.37
6523.16
6455.6
3209.96
3211.24
3205.01
3193.4
3133.31
3074.55
1757.25
2681.64
2293.99
1608.8
2291.13
1516.91
2270.7
1596.77
2266.26
1466.61
1711.56
2640.77
1884.2
1722.51
2763.58
2273.21
1874.92
1782.32
2749.22
2327.32
1737.06
2342.09
1777.68
2386.62
-0.0299802
-0.0425226
-0.129174
1.75027
1.84982
1.6924
1.69911
6.62528
14.0294
5.45016
6.57391
8.002
2.6244
2.54732
6.29215
18.8691
3.63719
18.9069
6.07788
1.71803
4.17103
2.15994
2.07107
1.79686
1.86378
3.47803
8.97369
2.57252
5.37358
6520.79
6568.33
6546.42
3346.89
3348.76
3345.89
3303.38
3346.92
3297.49
3167.59
3120.63
1449.44
2262.72
1624.17
2264.81
1701.11
2609.47
1446.79
1648.46
2566.15
2249.41
1622.21
2248.13
1776.96
2308.26
1852.2
2759.68
1822.68
1770.46
2733.92
2308.36
-0.0140347
-0.034741
-0.168601
1.70821
1.71797
1.77144
1.80022
8.03706
26.0985
2.58933
2.69248
4.54568
2.49401
2.78721
14.0141
5.17432
4.27059
25.8385
5.8436
2.45681
1.94411
2.6336
2.10731
2.54417
1.9995
2.69888
2.19678
9.67833
29.1144
2.68648
14.0756
6595.17
6670.15
6786.95
3305.54
3289.5
3274.46
3251.62
3082.22
3078.92
1509.17
2328.04
2051.72
1509.42
2054.57
1346.56
1466.63
2302.84
2051.58
1499.87
2046.33
1347.81
1651.34
1757.19
2550.96
2306.47
1742.33
2292.6
1607.95
2512.53
-0.027053
-0.0314591
1.87114
1.82738
1.86006
1.88399
1.87205
1.86625
1.75037
2.58499
2.1645
1.76927
2.60974
2.17355
5.92132
18.9778
2.3251
2.98682
4.50882
2.50162
3.9172
25.7959
2.51122
4.87249
17.8927
3.36968
2.77998
2.30521
2.78795
2.3453
6764.76
6978.96
7212.03
3532.81
3506.87
3410.95
3394.78
1265.64
2008.72
1493.13
2110.63
1372.64
2060.8
1294.82
1349.69
2041.88
2003.01
1497.13
2084.41
1670.5
2213.71
1578.33
2205.39
1649.63
2193.84
1558.2
2173.91
1634.81
2256.85
1604.52
2234.01
-0.0335026
-0.0246948
1.83424
1.84969
1.8575
1.86972
1.92098
1.92435
2.72541
2.71725
2.40415
2.67017
2.30474
2.3205
2.7308
2.32064
2.78141
2.77618
2.42839
2.69802
2.3207
2.33315
2.74851
2.33007
2.36003
2.63733
2.70858
2.86636
2.81646
2.38986
2.95003
2.44796
7089.09
7302.24
3626.63
3492.02
3436.81
3623.2
3472.93
3477.53
2822.08
1422.77
2188.55
2846.11
1437.6
2191.96
1782.82
1735.09
2251.66
2465.57
1771.13
2237.19
1716.78
2459.04
1622.77
2123.98
1707.25
2212
1607.04
2102.77
1680.3
2193.97
-0.00945626
-0.00483891
1.79183
2.4276
2.7202
1.80928
1.80954
2.43408
2.74089
1.83701
1.89749
1.90856
2.7607
2.76352
2.84011
2.42188
2.45191
2.43222
2.78489
2.94056
2.81935
2.4712
2.4681
2.45082
2.36649
2.70192
2.52388
3.42497
7391.04
7458.16
3689.23
3344.22
3396.14
3637.4
3560.62
3520.35
1439.86
1360.74
2096.55
1371.21
2081.62
1999.44
1276.39
2062.14
1450.88
1399.35
2118.18
1408.33
2094.91
1961.03
1306.14
2075.9
1846.29
1615.34
2323.4
2250.2
1826.22
2322.54
1624.31
2250.57
0.0750241
2.21002
1.97635
1.9935
2.22107
2.17184
2.16669
2.76275
2.46681
2.6099
2.43652
2.71032
2.30443
2.69577
2.32767
1.82034
2.75465
2.45151
2.76224
2.47655
2.62183
2.44112
2.73425
2.30813
2.70059
2.33152
1.83765
2.74331
2.44752
2.76572
2.68602
2.42627
2.43153
2.7924
2.73761
2.44139
2.45062
7580.84
7664.87
3748.94
3234.21
2032.48
1275.36
3252.72
2024.59
1292.86
3699.37
3418.32
3421.84
1514.53
1579.19
1581.79
1973.11
2336.76
2208.03
1531.34
1529.53
1597.1
2343.46
1954.65
2184.71
1731.17
2222.57
1725.95
2222.9
0.0469441
1.96894
2.27212
1.98639
2.28679
2.34137
2.33616
2.62017
2.60818
2.43194
2.41198
2.66665
2.39578
2.93716
2.77579
2.48855
2.70991
2.41851
2.53982
2.87559
2.33634
2.65113
2.61545
2.4239
2.43527
2.66723
2.39797
2.76706
2.92772
2.48658
2.69126
2.41431
2.53938
2.88883
2.34469
7830.03
3535.08
3709.11
3667.66
3587.06
3515.5
3562.49
1272.31
2067.81
1402.1
2179.09
1395.77
2166.17
1448.94
2200.94
1324.83
1982.23
1365.49
2171.47
1304.01
2146.09
1483.52
2208.08
3066.83
1357.5
2217.55
3043.67
1415.62
2206.86
1639.24
1638.17
2155.65
2414.63
1673.5
1559.94
2162.82
2413.54
0.00508537
1.98469
2.56844
2.9742
2.30387
2.01069
2.57556
2.98633
2.31274
2.37525
2.36478
2.64969
2.41378
2.6649
2.42747
2.76777
2.87855
2.7025
2.50978
2.61005
2.69258
2.65837
2.41826
2.65798
2.42692
2.74683
2.69158
2.88238
2.50783
2.60482
2.69399
7657.09
3517.65
3554.28
3549.59
3579.77
3494.04
3499.78
1614.08
1545.33
2251.5
2089.8
1653.26
2370.54
1506.33
1572.48
2246.97
2103.85
1652.02
2366.86
1359.5
1477.69
2208.02
1353.54
2117.11
2005.56
1280.5
2068.93
1376.35
1461.01
2208.75
1412.77
2147.7
2007.67
1310.79
2068.87
-0.0087035
2.37065
2.35683
2.09543
2.6423
3.05309
2.71313
2.97964
2.31786
2.11298
2.64938
3.0609
2.71894
2.99124
2.32049
2.70235
2.77048
2.8708
2.57302
2.67656
2.75647
2.68351
2.75461
2.87105
2.56849
2.6724
2.75669
7779.01
3561.99
3555.45
1987.82
1289.08
3526.09
1987
1291.74
3595.65
3598.41
3572.33
1562.48
2072.73
1571.51
2301.44
1572.32
2081.26
1581.87
2280.07
1645.89
1627.05
1651.33
2076.93
2264.9
2229
1697.22
1582
1603.83
2280.39
2080.93
2196.67
0.0105114
2.37394
2.37433
2.34774
2.34882
2.18688
2.8459
3.13429
2.77748
3.1955
2.93372
2.81569
2.35226
2.19647
2.84776
3.12727
2.77849
3.19411
2.92697
2.81419
2.35308
2.7882
2.71507
2.76659
2.70948
7807.4
3562.76
3563.55
3618.83
1830.79
1305.97
1739.66
1336.93
3598.8
1837.09
1300.04
1742.32
1324.58
3532.39
3498.93
1750.29
1605.76
1649.2
2183.8
2007.95
2138.35
1771.43
1625.46
1611.54
2020.07
2162.34
2123.36
-0.0055154
2.37861
2.35473
2.34855
2.33409
2.34628
2.35517
2.3059
2.93728
3.38462
2.99786
3.30114
2.95366
3.01666
2.8933
3.07197
2.84669
2.7751
2.31479
2.93912
3.38051
2.99896
3.30152
2.95241
3.00712
2.89037
3.06941
2.82689
2.76983
7805.93
3563.12
3564.79
3558.64
3559.42
3476.72
1680.34
1329.97
1730.09
1280.12
1601.24
2066.25
3411.21
1672.92
1334.13
1728.17
1300.47
1570.55
2044.77
3622.51
3590.64
1702.81
2142.29
1691.21
2107.25
-0.0110095
2.34315
2.27841
2.31968
2.25443
2.35149
2.33626
2.36728
2.35034
2.27154
2.28451
3.06715
3.45732
3.05509
3.47105
3.04204
3.32865
3.13531
3.19665
2.92684
2.93514
2.85942
3.01352
3.07027
3.45167
3.05645
3.47392
3.04109
3.33678
3.13679
3.20215
2.9252
2.92082
2.85549
3.00875
7780.31
3563.66
3568.83
3558.9
3558.32
3652.94
3617.54
3374.61
1757.24
1178.5
1785.88
1239.28
1831.01
1553.89
1960.05
1485.94
1709.17
2176.8
3323.36
1724.03
1259.87
1806.34
1265.81
1803.45
1524.06
1940.98
1479.34
1687.71
2126.13
-0.0109769
2.24055
2.11799
2.21502
2.09118
2.30113
2.23961
2.31323
2.24873
2.25662
2.24
2.29467
2.26654
2.96527
3.40885
2.99137
3.37494
2.98049
3.40309
2.99448
3.39725
3.2294
3.42173
3.19552
3.46189
3.23521
3.43505
3.19777
3.48522
7659.97
3569.89
3555.14
3564.38
3597.96
3648.11
3626.74
3615.31
3591.45
3363.3
3307.43
2124.85
1309.68
2045.05
1407.31
2125.5
1471.91
2152.2
1525.16
2028.63
1681.91
2128.21
1593.32
2113.27
1328.24
2046.56
1386.42
1832.5
1301.6
1847.24
1394.72
2002.92
1695.31
2095.77
1611.45
-0.0631603
-0.0473458
2.19742
2.14303
2.20639
2.14594
2.18881
2.1187
2.22132
2.15233
2.93596
3.37811
2.95047
3.36833
2.94004
3.3574
2.90145
3.40838
2.94894
3.39213
2.9653
3.38539
2.95008
3.37466
2.91985
3.42147
3.10495
3.38851
3.14072
3.35727
3.11625
3.42561
3.14942
3.39531
7840.1
3512.88
3542.7
3583.84
3582.96
3533.42
3596.64
3503.89
3574.6
3363.2
3389.12
3309.4
3340.05
2176.82
1461.03
2202.02
1441.1
2161.07
1426.16
2182.08
1412.38
2450.88
1533.33
2223.1
1685.6
2405.82
1497.26
2176.39
1616.41
-0.0112838
1.99863
1.96032
2.01064
1.96627
-0.0551397
2.01105
1.99622
2.04541
2.01933
2.85122
3.31619
2.90716
3.23803
2.77895
3.06723
2.70623
3.14152
2.86215
3.32315
2.92131
3.24327
2.7867
3.05446
2.7124
3.13948
3.08011
3.36031
3.1018
3.35327
3.11758
3.40771
3.07113
3.45503
3.09314
3.40817
3.11476
3.39518
3.12684
3.44111
3.08791
3.48321
7585.48
7672.72
3489.2
3520.08
3507.24
3555.18
3487.93
3624.24
3432.49
3605.5
2176.28
1461.97
2200.61
1438.42
2128.55
1301.48
2043.23
1410.01
2162.63
1426.11
2180
1412.76
2116.17
1326.03
2049.9
1390.91
2463.27
1697.75
2503.09
1680.75
2439.02
1663.2
2480.35
1636.26
-0.0197149
1.90216
1.81942
1.91299
1.82016
1.8525
1.85871
1.86768
1.88063
-0.0453427
2.61907
2.98526
2.64257
2.9705
2.57175
2.90375
2.35155
2.99178
2.62722
2.98643
2.65168
2.97061
2.57914
2.89668
2.36046
2.9887
2.98089
3.30439
3.04382
3.2072
2.89213
3.03025
2.83825
3.07148
2.99127
3.33285
3.05657
3.23323
2.89959
3.0361
2.84338
3.09152
7402.49
7463.55
3719.19
3749.87
3673.18
3705.55
3558.71
3559.21
3523.36
3551.76
1749.65
1161.9
1765.51
1238.61
1679.05
1340.62
1742.01
1277.2
1728.25
1239.49
1790.8
1270.62
1673.76
1340.46
1743.88
1300.61
2463.28
1699.48
2505.35
1681.07
2460.76
1523.55
2201.53
1697.97
2438.96
1663.77
2481.43
1637.63
2413.93
1507.04
2173.88
1625.32
-0.225879
-0.0655101
1.88226
1.88415
1.90028
1.90028
2.75501
2.95362
2.45892
2.69535
2.37518
2.53454
2.71121
2.20479
2.66901
2.35154
2.74387
2.9499
2.45756
2.68221
2.37357
2.53415
2.70008
2.20228
2.67075
2.34888
-0.0366531
2.7136
2.94964
2.76646
2.88361
2.6735
2.88946
2.71943
2.95676
2.77126
2.89983
2.67707
2.90405
2.86902
2.92518
2.81691
2.99193
2.87913
2.93189
2.82327
3.01053
7100.39
7312.78
3690.09
3630.53
3640.21
3624.81
3061.46
3408.96
3052.63
3418.72
1841.95
1308.57
1747.68
1343.67
1990.74
1276.55
2064.79
1285.22
1842.29
1295.96
1745.17
1336.06
1996.06
1308.83
2066.23
1302.88
2126.84
1463.82
2159.79
1510
1850.76
1562.87
1951.41
1491.6
1848.42
1335.27
1905.27
1407.1
1819.11
1504.57
1924.6
1480.41
-0.219025
1.73746
1.64817
1.75483
1.66418
-0.0889084
1.70043
1.76731
1.70919
1.77604
2.711
2.59906
2.56849
2.43316
2.58839
2.37781
2.81407
2.33905
2.67001
2.40291
2.70012
2.591
2.56625
2.43166
2.57172
2.3745
2.81509
2.33923
2.65864
2.40215
-0.0562894
2.65713
2.83202
2.73325
2.74396
2.61752
2.70894
2.6617
2.83505
2.73795
2.747
2.61927
2.70948
6777.43
6987.8
7220.37
3558.78
3477.3
3523.7
3477.74
1473.56
1352.04
2216.08
1367.63
2128.59
1994.96
1287.35
2186.35
1366.15
2230.64
1367.19
1510.86
2228.8
1435.36
2164.05
2003.85
1353.31
2181.25
1435.94
2227.36
2157.29
1598.86
2060.89
1659.63
2243.9
1633.35
2144.47
1555.19
2038.47
1622.84
2222.48
1602.01
2062.59
1702.44
2124.04
1614.57
2010.09
1661.6
2078.36
1605.03
-0.194818
1.5747
1.47985
1.59309
1.49889
1.68416
1.58059
1.69042
1.57971
-0.0606832
2.37201
2.589
2.371
2.62336
2.36573
2.69273
2.2585
2.64792
2.36997
2.59197
2.36799
2.63414
2.3631
2.69192
2.25304
2.65295
2.60921
2.49649
2.54267
2.36178
2.54692
2.35256
2.60291
2.49232
2.53983
2.36143
2.54286
2.35461
-0.0274576
6616.91
6685.05
6791.35
3495.18
3539.15
3436.38
3512.16
3248.29
3352.89
3263.63
3410.87
1636.39
1668.05
2285.45
2068.26
1567.64
2300.09
1462.67
2205.43
1653.75
2376.3
1715.29
1625.95
2076.06
2306
1560.89
2272.21
1500.57
2217.93
1648.6
2372.5
2148.03
1726.83
2177.31
1719.06
2195.83
1764.78
2087.21
1663.23
2117.23
1662.42
2172.9
1779.07
0.030676
-0.151556
1.61458
1.57759
1.62278
1.58668
2.61948
2.66787
2.38445
2.56176
2.22718
2.27148
2.29137
1.74406
2.46326
2.03448
2.59774
2.67169
2.37644
2.54112
2.22656
2.26724
2.30589
1.75562
2.44704
2.03025
0.0275523
2.35119
2.58991
2.3591
2.59342
2.37387
2.65243
2.3588
2.60107
2.35932
2.61338
2.36976
2.65169
-0.0292589
6543.13
6592.45
6559.06
3309.83
3352.38
3291.74
3353.66
2814.22
3417.47
2841.83
3403.44
2070.23
1397.99
2183.92
1384.69
2034.25
1279.75
2068.83
1275.78
1972.64
1367.77
2187.7
1297.97
2020.21
1312.95
2082.51
1286.49
1605.45
2018.7
1533.63
2068.9
1527.21
2058.32
1662.52
2030.46
1558.28
2087.29
1545.01
2067.88
0.148027
3.51722
7.60207
5.08423
8.8132
0.0355739
1.18382
1.803
1.20234
2.12642
2.63644
2.67845
2.41312
2.37292
2.67242
2.29247
2.46721
1.87857
2.66256
2.16286
2.59703
2.6568
2.3998
2.37155
2.63988
2.28916
2.45737
1.88065
2.63205
2.15396
0.0307691
2.38687
2.64204
2.37635
2.60955
-0.039053
6514.5
6525.37
6559.97
6470.1
3280.16
3355.85
3257.41
3309.34
1349.54
1436.73
2106.07
1363.96
2070.73
1982.91
1269.01
2010.25
1421.11
2184.08
1446.56
1388.98
2127.79
1397.07
2085.26
1945.73
1288.52
1998.94
1426.77
2182.51
2407.06
1585.09
2251.08
1601.75
2201.36
1558.27
2400.89
1510.5
2252.69
1546.94
2176.21
1527.25
6.4927
0.439943
16.1754
11.8492
16.0566
10.9447
0.0751622
1.72561
2.27631
1.88865
2.25428
16.4119
1.73023
2.32091
1.91641
2.53695
18.1537
2.58362
2.25223
2.55949
2.11563
2.59157
2.18821
2.56599
2.2409
2.64118
2.13534
2.68121
2.20037
0.0148679
-0.0576383
6503.05
6468.81
6461.38
6657.33
3227.5
3198.01
3224.21
3261.46
3091.58
3358.54
3085.53
3303.73
1487.27
1605.71
2370.69
1942.59
1631.5
2279.92
1510.18
2132.53
1736.06
2465.19
1516.16
1604.74
1933.33
2373.2
1634.19
2271.36
1511.34
2096.13
1709.4