/*--------------------------------*- C++ -*----------------------------------*\
| =========                 |                                                 |
| \\      /  F ield         | OpenFOAM: The Open Source CFD Toolbox           |
|  \\    /   O peration     | Version:  5.x                                   |
|   \\  /    A nd           | Web:      www.OpenFOAM.org                      |
|    \\/     M anipulation  |                                                 |
\*---------------------------------------------------------------------------*/
FoamFile
{
    version     2.0;
    format      ascii;
    class       surfaceScalarField;
    location    "0.8";
    object      phi;
}
// * * * * * * * * * * * * * * * * * * * * * * * * * * * * * * * * * * * * * //

dimensions      [0 3 -1 0 0 0 0];

internalField   nonuniform List<scalar> 
30582
(
0.000288481
-6.76958e-07
0.000286849
1.63195e-06
0.000287604
-4.42043e-07
0.000282866
3.98304e-06
0.000285342
3.89383e-06
0.00028571
1.76287e-06
0.000279128
3.7378e-06
0.000281799
7.52614e-06
0.000284556
5.04769e-06
0.000281644
8.14339e-06
0.000273421
5.70678e-06
0.000278703
6.83365e-06
0.000282549
9.53348e-06
0.000278303
8.38951e-06
0.000276133
2.01771e-05
0.000262846
1.05749e-05
0.00027386
1.05501e-05
0.000280407
8.97578e-06
0.000277751
1.00849e-05
0.000275714
8.80906e-06
0.000265542
4.29898e-05
0.000246448
1.63987e-05
0.000263775
2.06591e-05
0.000276312
1.46446e-05
0.000278195
8.53179e-06
0.000278439
7.3598e-06
0.000262229
1.21219e-05
0.000258443
7.31215e-05
0.000225075
2.13726e-05
0.000247448
3.27258e-05
0.000266379
3.05925e-05
0.000277216
1.56242e-05
0.000282236
4.73481e-06
0.000268481
1.10736e-06
0.00025797
1.25946e-05
0.000232999
0.00012895
0.000200497
2.45784e-05
0.000225844
4.2977e-05
0.000249723
4.93812e-05
0.000268882
3.89264e-05
0.000282843
1.5017e-05
0.000277742
-4.52603e-06
0.000268757
-9.67913e-06
0.000227983
1.76104e-05
0.00016662
-6.60782e-05
0.000174715
2.57815e-05
0.000200896
4.95267e-05
0.000227427
6.5274e-05
0.000252383
6.58794e-05
0.00027482
4.69494e-05
0.000284557
8.20242e-06
0.0002839
-1.96693e-05
0.000250816
-3.25128e-05
0.000211915
-2.7684e-05
-0.000305074
0.000237736
0.00014944
2.52755e-05
0.000174759
5.19181e-05
0.000201655
7.52977e-05
0.000229388
8.82698e-05
0.000257585
8.31144e-05
0.000279682
5.18242e-05
0.000293292
-1.19002e-06
0.000280917
-4.97703e-05
0.000276055
-9.66532e-05
1.83645e-05
-0.000351122
-4.88248e-05
0.00028655
0.00012585
2.35898e-05
0.000149207
5.08273e-05
0.000174769
7.88048e-05
0.000202529
0.000102156
0.000233025
0.00011283
0.000262572
0.000100224
0.000288318
5.67981e-05
0.000297175
-1.74471e-05
0.000335237
-0.000108953
0.00024526
-0.000323549
5.49536e-05
-0.000454901
0.000163709
0.00012284
0.00010462
2.12299e-05
0.000125435
4.73621e-05
0.000148649
7.6947e-05
0.000174596
0.000106737
0.000204293
0.000130889
0.000236415
0.000138988
0.000270033
0.000118509
0.000297787
5.61856e-05
0.000372505
-5.47148e-05
0.000448685
-0.000312378
8.7885e-05
-0.00035648
9.10372e-05
-0.000382229
2.78108e-05
9.50296e-05
8.60209e-05
1.85989e-05
0.000104105
4.25598e-05
0.000124511
7.14997e-05
0.000147681
0.000103863
0.00017472
0.00013631
0.000205431
0.000161872
0.000241361
0.00016766
0.000279772
0.000136524
0.000384073
4.46181e-05
0.000586711
-0.000192741
0.000256113
-0.000480605
5.40238e-05
-0.000319467
1.72653e-05
-0.000371683
9.07017e-05
4.3279e-06
7.00398e-05
1.59811e-05
8.547e-05
3.7234e-05
0.000102996
6.40756e-05
0.000123041
9.61393e-05
0.000146621
0.000131962
0.00017387
0.000167871
0.000207318
0.000195916
0.00024827
0.000199161
0.000373278
0.000147318
0.000652993
-2.16636e-05
0.000470385
-0.000407013
4.16072e-05
-0.000468189
1.56673e-05
-0.000317869
4.05806e-05
-0.000321562
-2.6517e-05
5.64879e-05
1.35519e-05
6.94976e-05
3.19535e-05
8.43064e-05
5.59233e-05
0.000101273
8.58436e-05
0.000121256
0.000121504
0.000144367
0.000161465
0.000173254
0.000201935
0.000210078
0.000234108
0.000347372
0.000225068
0.000671384
0.000128927
0.000615222
-0.000166501
2.90081e-05
-0.000394414
-1.81618e-05
-0.00043436
8.06587e-06
-0.000285354
-1.19506e-05
4.50882e-05
1.13997e-05
5.59834e-05
2.70661e-05
6.83676e-05
4.78924e-05
8.25181e-05
7.46784e-05
9.91259e-05
0.000107974
0.000118177
0.000147695
0.000142171
0.000192548
0.000172772
0.000239241
0.000315645
0.000265834
0.000654266
0.000242185
0.000649819
9.43312e-05
4.68584e-05
-0.000184351
-6.581e-05
-0.000346766
-1.86266e-05
-0.000407667
9.71614e-07
3.55259e-05
9.56232e-06
4.46387e-05
2.27443e-05
5.49421e-05
4.04915e-05
6.66411e-05
6.37695e-05
8.02696e-05
9.35347e-05
9.56758e-05
0.000130475
0.000115181
0.000174684
0.000139331
0.000225989
0.000285686
0.000269201
0.000617269
0.000302832
0.000579918
0.000312086
5.05038e-05
9.06857e-05
-8.41497e-05
-0.000166012
-4.68741e-05
-0.000318518
-6.18068e-06
2.74812e-05
8.04473e-06
3.51408e-05
1.90603e-05
4.37181e-05
3.39684e-05
5.33574e-05
5.37752e-05
6.44638e-05
7.95753e-05
7.6775e-05
0.000112435
9.24239e-05
0.000153232
0.000110795
0.000203219
0.000260241
0.000251434
0.000574379
0.000312091
0.00044821
0.00043454
4.06552e-05
0.000321934
-7.56401e-05
8.21761e-05
-6.00465e-05
-0.000152839
-1.65054e-05
2.0649e-05
6.83214e-06
2.71639e-05
1.60216e-05
3.43557e-05
2.84227e-05
4.23201e-05
4.50057e-05
5.1357e-05
6.6882e-05
6.11415e-05
9.52088e-05
7.3602e-05
0.000131257
8.7177e-05
0.00017685
0.000239145
0.000224315
0.000523578
0.000302235
0.00031381
0.000446491
3.82689e-05
0.000436926
-4.56064e-05
0.000291901
-5.51914e-05
7.7321e-05
-1.99351e-05
1.47459e-05
5.90315e-06
2.03995e-05
1.35966e-05
2.6519e-05
2.38583e-05
3.31654e-05
3.75773e-05
4.05549e-05
5.58078e-05
4.8339e-05
7.96845e-05
5.82321e-05
0.000110579
6.80351e-05
0.000150399
0.000221617
0.000194378
0.000461146
0.000286747
0.000209215
0.00040683
4.23982e-05
0.000442361
-1.12514e-05
0.000402571
-3.25162e-05
0.000269226
-1.74584e-05
9.51565e-06
5.23021e-06
1.45625e-05
1.17402e-05
1.98932e-05
2.02223e-05
2.55426e-05
3.1481e-05
3.16624e-05
4.64698e-05
3.79121e-05
6.62347e-05
4.57797e-05
9.21369e-05
5.27476e-05
0.000125866
0.000206873
0.000165143
0.000389092
0.000266432
0.000140797
0.000355165
4.35305e-05
0.000405698
1.12967e-05
0.000419813
-8.19505e-06
0.00037825
-9.61816e-06
4.72772e-06
4.78794e-06
9.39721e-06
1.03955e-05
1.41922e-05
1.74412e-05
1.91289e-05
2.6636e-05
2.43099e-05
3.88336e-05
2.94249e-05
5.4957e-05
3.57309e-05
7.62836e-05
4.06566e-05
0.000104228
0.000194219
0.000138521
0.000313678
0.000240557
9.82859e-05
0.000308943
4.02681e-05
0.000358428
2.15786e-05
0.000395416
7.10137e-06
0.000404517
-1.67407e-06
1.76777e-07
4.55094e-06
4.6738e-06
9.51135e-06
9.16001e-06
1.54277e-05
1.36345e-05
2.29356e-05
1.8164e-05
3.27819e-05
2.24827e-05
4.57758e-05
2.76181e-05
6.30697e-05
3.11471e-05
8.57931e-05
0.000182858
0.000115588
0.000241569
0.00021063
7.10329e-05
0.00026781
3.67248e-05
0.000312486
2.475e-05
0.000355256
1.40403e-05
0.000388477
3.35682e-06
-4.3236e-06
4.50038e-06
1.87213e-07
9.03754e-06
4.5666e-06
1.41048e-05
8.80261e-06
2.02596e-05
1.29306e-05
2.8169e-05
1.67384e-05
3.85262e-05
2.10321e-05
5.23618e-05
2.36738e-05
7.0543e-05
0.000171922
9.67296e-05
0.000178971
0.000178185
5.33227e-05
0.00022834
3.42977e-05
0.000270237
2.47165e-05
0.00031252
1.61523e-05
0.000353144
5.5812e-06
-8.94378e-06
4.62018e-06
-4.24889e-06
8.93649e-06
2.08428e-07
1.33957e-05
4.40485e-06
1.85025e-05
8.35238e-06
2.48379e-05
1.18922e-05
3.30151e-05
1.56212e-05
4.39372e-05
1.77726e-05
5.8263e-05
0.000160305
8.21599e-05
0.000128172
0.000147529
4.09021e-05
0.000190606
3.20484e-05
0.00023059
2.37926e-05
0.000271161
1.60747e-05
0.000312597
6.15543e-06
-1.38413e-05
4.89751e-06
-8.80462e-06
9.17591e-06
-4.09975e-06
1.32447e-05
2.39434e-07
1.75611e-05
4.20227e-06
2.26526e-05
7.68649e-06
2.90436e-05
1.10866e-05
3.75497e-05
1.30571e-05
4.86526e-05
0.000146671
7.1897e-05
8.92977e-05
0.000121034
3.17699e-05
0.000156661
2.89684e-05
0.000193686
2.23824e-05
0.000232
1.52755e-05
0.00027196
5.98376e-06
-1.91632e-05
5.3219e-06
-1.36377e-05
9.73061e-06
-8.52681e-06
1.3603e-05
-3.87674e-06
1.73608e-05
2.81019e-07
2.14824e-05
3.89664e-06
2.64425e-05
7.17502e-06
3.29552e-05
9.20826e-06
4.13985e-05
0.000129441
6.5883e-05
6.13424e-05
9.98524e-05
2.45426e-05
0.000128261
2.48117e-05
0.000160818
2.02628e-05
0.000195806
1.41438e-05
0.000233131
5.55976e-06
-2.50461e-05
5.88286e-06
-1.88949e-05
1.05791e-05
-1.3229e-05
1.44328e-05
-8.11024e-06
1.78365e-05
-3.59153e-06
2.12334e-05
3.28403e-07
2.50506e-05
3.66752e-06
2.995e-05
5.96608e-06
3.61974e-05
0.000107138
6.37016e-05
4.18188e-05
8.54065e-05
1.76343e-05
0.000106761
1.98512e-05
0.000133222
1.74174e-05
0.000163663
1.26548e-05
0.000197295
5.03631e-06
-3.16149e-05
6.56889e-06
-2.47123e-05
1.17002e-05
-1.83529e-05
1.5703e-05
-1.26155e-05
1.89381e-05
-7.57911e-06
2.1824e-05
-3.19201e-06
2.47538e-05
3.75698e-07
2.83424e-05
3.10928e-06
3.28068e-05
7.87914e-05
6.45436e-05
2.83354e-05
7.7185e-05
1.07881e-05
9.22527e-05
1.47724e-05
0.000111839
1.39663e-05
0.000136673
1.08032e-05
0.000165515
4.42215e-06
-3.89818e-05
7.36681e-06
-3.12152e-05
1.30718e-05
-2.40349e-05
1.73822e-05
-1.75381e-05
2.06256e-05
-1.18339e-05
2.31928e-05
-6.82318e-06
2.54552e-05
-2.8685e-06
2.7998e-05
4.55312e-07
3.09964e-05
4.47732e-05
6.68249e-05
1.79373e-05
7.49416e-05
4.95938e-06
8.30138e-05
1.0223e-05
9.68021e-05
1.02501e-05
0.000115556
8.66105e-06
0.000138815
3.71978e-06
-4.72424e-05
8.26066e-06
-3.8517e-05
1.46687e-05
-3.04011e-05
1.9438e-05
-2.30147e-05
2.28588e-05
-1.65004e-05
2.52921e-05
-1.07124e-05
2.70821e-05
-6.21831e-06
2.8805e-05
-2.15073e-06
3.0604e-05
7.23489e-06
6.85348e-05
9.13206e-06
7.56302e-05
1.26761e-06
7.86334e-05
6.18639e-06
8.70504e-05
6.74434e-06
0.000100308
6.45047e-06
0.000117766
2.95491e-06
-5.64737e-05
9.23129e-06
-4.67162e-05
1.64599e-05
-3.75679e-05
2.18355e-05
-2.91739e-05
2.55972e-05
-2.1716e-05
2.80745e-05
-1.50024e-05
2.9582e-05
-9.8165e-06
3.06803e-05
-4.85661e-06
3.15109e-05
-3.01948e-05
6.80337e-05
1.03429e-06
7.66325e-05
-5.95929e-07
7.74938e-05
2.99124e-06
8.18285e-05
3.71078e-06
9.0084e-05
4.40394e-06
0.000102354
2.18183e-06
-6.67333e-05
1.02596e-05
-5.58934e-05
1.84085e-05
-4.56388e-05
2.45308e-05
-3.61365e-05
2.87981e-05
-2.76123e-05
3.14935e-05
-1.98314e-05
3.29035e-05
-1.3802e-05
3.35676e-05
-7.79737e-06
3.3621e-05
-6.41554e-05
6.54716e-05
-7.22985e-06
7.62978e-05
-1.14349e-06
7.71801e-05
8.65404e-07
7.96196e-05
1.48057e-06
8.40587e-05
2.63416e-06
9.18537e-05
1.45967e-06
-7.80508e-05
1.13176e-05
-6.61104e-05
2.04765e-05
-5.47007e-05
2.74703e-05
-4.40125e-05
3.24068e-05
-3.43154e-05
3.55012e-05
-2.53348e-05
3.69969e-05
-1.8311e-05
3.74125e-05
-1.11133e-05
3.68835e-05
-9.25442e-05
6.20098e-05
-1.60001e-05
7.42418e-05
-1.43629e-06
7.65906e-05
-6.7872e-07
7.87242e-05
1.30487e-07
8.09697e-05
1.26847e-06
8.54244e-05
8.4034e-07
-9.04289e-05
1.23781e-05
-7.7401e-05
2.26082e-05
-6.48221e-05
3.0598e-05
-5.28971e-05
3.6355e-05
-4.1943e-05
4.00344e-05
-3.16457e-05
4.18121e-05
-2.34783e-05
4.21642e-05
-1.4947e-05
4.12463e-05
-0.000115056
5.93957e-05
-2.59263e-05
7.1936e-05
-2.74791e-06
7.55534e-05
-2.15168e-06
7.80636e-05
-6.01922e-07
7.94566e-05
3.39913e-07
8.18982e-05
3.6602e-07
-0.000103828
1.33993e-05
-8.97722e-05
2.47492e-05
-7.60451e-05
3.38312e-05
-6.28693e-05
4.05702e-05
-5.06009e-05
4.50129e-05
-3.88926e-05
4.72812e-05
-2.94389e-05
4.77727e-05
-1.9445e-05
4.66622e-05
-0.000132501
5.86907e-05
-3.76301e-05
7.10994e-05
-5.60997e-06
7.4798e-05
-4.05807e-06
7.74598e-05
-1.23187e-06
7.86935e-05
-3.26224e-07
8.01228e-05
5.61012e-08
-0.00011817
1.43418e-05
-0.000103189
2.6816e-05
-8.83854e-05
3.70895e-05
-7.39833e-05
4.49452e-05
-6.03814e-05
5.03507e-05
-4.71954e-05
5.33157e-05
-3.63262e-05
5.41685e-05
-2.47602e-05
5.30879e-05
-0.000146132
6.02931e-05
-5.25344e-05
7.3595e-05
-1.02908e-05
7.57803e-05
-6.80929e-06
7.75492e-05
-2.30807e-06
7.8536e-05
-9.59809e-07
7.93271e-05
-1.26951e-07
-0.000133332
1.51617e-05
-0.000117577
2.87301e-05
-0.000101818
4.02484e-05
-8.62686e-05
4.93748e-05
-7.13547e-05
5.59186e-05
-5.66643e-05
5.98196e-05
-4.42694e-05
6.12589e-05
-3.10496e-05
6.0458e-05
-0.000157204
6.41606e-05
-7.24683e-05
8.0227e-05
-1.63658e-05
7.967e-05
-1.04305e-05
7.94015e-05
-4.14757e-06
7.93887e-05
-1.788e-06
7.93642e-05
-2.89402e-07
1.58059e-05
-0.000149138
-0.000132818
3.04026e-05
-0.000116279
4.31912e-05
-9.97155e-05
5.36953e-05
-8.35693e-05
6.15894e-05
-6.73913e-05
6.66456e-05
-5.33925e-05
6.89427e-05
-3.84718e-05
6.8681e-05
-0.000166763
7.0017e-05
-9.81505e-05
8.98428e-05
-2.27907e-05
8.66519e-05
-1.45432e-05
8.37827e-05
-6.73442e-06
8.19883e-05
-2.96887e-06
8.05696e-05
-5.44084e-07
3.17285e-05
-0.000148741
3.8719e-05
-0.000187857
-0.000131662
4.57854e-05
-0.000114277
5.77529e-05
-9.70363e-05
6.71623e-05
-7.94497e-05
7.36478e-05
-6.38073e-05
7.70604e-05
-4.71845e-05
7.76554e-05
-0.000175602
7.75194e-05
-0.000130301
0.000102168
-2.91134e-05
9.61654e-05
-1.88951e-05
9.10039e-05
-9.86105e-06
8.69094e-05
-4.52113e-06
8.35406e-05
-9.43173e-07
4.78745e-05
-0.000147808
7.78838e-05
-0.000187905
3.62991e-05
-0.000224156
-0.000129863
6.13711e-05
-0.00011173
7.2447e-05
-9.28788e-05
8.05915e-05
-7.56137e-05
8.54541e-05
-5.73354e-05
8.72114e-05
-0.000184286
8.63399e-05
-0.000168604
0.000115822
-3.56353e-05
0.00010869
-2.35253e-05
0.000100796
-1.32071e-05
9.43499e-05
-6.31749e-06
8.87058e-05
-1.47811e-06
6.43248e-05
-0.000146313
0.000117871
-0.000187795
7.33706e-05
-0.000224977
2.97283e-05
-0.000253884
-0.000127582
7.72224e-05
-0.000107685
8.72537e-05
-8.8884e-05
9.38619e-05
-6.90604e-05
9.71791e-05
-0.000193228
9.61526e-05
-0.00021254
0.000130276
-4.33023e-05
0.000123489
-2.79378e-05
0.000113102
-1.65919e-05
0.00010418
-8.26299e-06
9.62955e-05
-2.12641e-06
8.12173e-05
-0.000144474
0.000159025
-0.000187467
0.000111719
-0.000226144
6.09598e-05
-0.000256208
1.88386e-05
-0.000272723
-0.000123834
9.33711e-05
-0.000103665
0.000102034
-8.24644e-05
0.000107266
-0.000202731
0.000106682
-0.000261195
0.000144808
-5.25489e-05
0.000139523
-3.18547e-05
0.000127406
-1.97781e-05
0.000116288
-1.02887e-05
0.000106206
-2.8248e-06
9.86022e-05
-0.000141219
0.000201795
-0.000187244
0.000151912
-0.00022766
9.38157e-05
-0.000259
4.1395e-05
-0.000278765
-1.79453e-06
-0.000270928
-0.00011997
0.000109677
-9.76251e-05
0.000117195
-0.000213012
0.000117547
-0.00031239
0.000157877
-6.37719e-05
0.000156031
-3.52146e-05
0.000142883
-2.25493e-05
0.000130177
-1.22458e-05
0.000118245
-3.54651e-06
0.000116456
-0.000137824
0.000246409
-0.000185833
0.000194604
-0.000229937
0.000129182
-0.000263027
6.54243e-05
-0.00028303
1.03989e-05
-0.000290958
-4.3725e-05
-0.000227203
-0.000114613
0.000126664
-0.000224107
0.000128291
-0.000363704
0.000168861
-7.82744e-05
0.000172379
-3.81096e-05
0.000158926
-2.49072e-05
0.00014524
-1.40259e-05
0.000131957
-4.25455e-06
0.000135338
-0.000133495
0.000292953
-0.000184368
0.000240185
-0.000231413
0.000167604
-0.000268358
9.32636e-05
-0.000290866
2.5429e-05
-0.00029806
-3.87731e-05
-0.00029591
-5.70941e-05
-0.000170109
-0.0002361
0.000138658
-0.000413896
0.000178483
-9.76991e-05
0.000188286
-4.08302e-05
0.0001751
-2.68745e-05
0.000160893
-1.56166e-05
0.000146831
-4.917e-06
0.000151909
-0.000252672
0.000342568
-0.000183109
0.000289058
-0.000233241
0.000209449
-0.000273258
0.000124238
-0.000299332
4.74489e-05
-0.000312886
-2.51177e-05
-0.000311715
-7.26887e-05
-0.000280316
-0.000265776
9.56666e-05
-0.000464153
0.000188914
-0.000123989
0.000204772
-4.37748e-05
0.00019123
-2.85314e-05
0.000176757
-1.70091e-05
0.000162286
-5.52838e-06
0.000212121
-0.000524364
0.000378155
-0.00028826
0.000342046
-0.000236097
0.000255207
-0.000278999
0.000158394
-0.000307414
7.11758e-05
-0.000323059
-1.77397e-06
-0.00033623
-6.48245e-05
-0.000319579
-0.00025386
-0.000292231
2.69133e-05
6.87533e-05
-0.000159397
0.000224323
-4.66648e-05
0.000207662
-2.98292e-05
0.000192528
-1.82151e-05
0.000177963
-6.0859e-06
0.000250216
-0.000197493
0.000431738
-0.000577947
0.000382605
-0.000328818
0.00030604
-0.00028693
0.000195854
-0.000316459
9.67287e-05
-0.000332967
1.8751e-05
-0.000343584
-4.18064e-05
-0.000359248
-0.000185761
-0.000387678
1.78731e-05
-0.000283191
0.00028372
-0.000214967
-4.73306e-05
0.000224989
-3.02484e-05
0.000208081
-1.9112e-05
0.000193425
-6.58634e-06
0.000244153
-4.12674e-05
0.000578668
-0.000344423
0.000415521
-0.000610864
0.000344387
-0.000367165
0.00023729
-0.000328366
0.000123604
-0.000343334
3.73738e-05
-0.00035159
-2.08893e-05
-0.000364501
-0.000104448
-0.000440561
4.31036e-05
-0.000412909
0.000302339
-0.00030181
0.0013129
-7.54806e-05
-0.00145239
-2.83664e-05
0.000223107
-1.93382e-05
0.000208308
-6.97095e-06
0.00023758
-2.17938e-05
0.000583518
-4.61173e-05
0.00057843
-0.000507332
0.000364294
-0.000630771
0.000267235
-0.00039711
0.000152162
-0.000356925
5.29537e-05
-0.000358914
-9.18347e-06
-0.000363296
-5.02744e-05
-0.000418676
6.35767e-05
-0.000461034
0.000324828
-0.000435398
0.0011474
-0.000136308
0.00124031
4.94805e-05
-0.00136527
-4.45623e-06
-0.00144793
-1.82297e-05
0.000221998
-7.1195e-06
0.000233879
-1.45281e-05
0.000573153
-1.14288e-05
0.000589366
-5.70527e-05
0.000490141
-0.00063318
0.000271359
-0.000634895
0.000168607
-0.000413555
6.60476e-05
-0.000370019
-8.21399e-06
-0.000359883
-3.12684e-05
-0.000382302
6.47504e-05
-0.000419849
0.000295706
-0.000431912
0.000909754
-0.00019775
0.00107178
3.22198e-05
0.00122058
0.000198283
-0.00136939
5.48962e-05
-0.00142462
-1.39173e-06
-0.00144654
-6.83527e-06
-5.76291e-06
0.000566026
-7.40117e-06
0.000565582
1.23542e-05
0.000512136
-7.90472e-05
0.000330139
-0.00069196
0.000154204
-0.000620492
6.55993e-05
-0.000413107
-9.65619e-06
-0.000368576
-3.82935e-05
-0.000352858
3.70618e-05
-0.000354613
0.000231305
-0.000355449
0.000662511
-0.000184668
0.000835564
3.84649e-05
0.00102125
0.000231551
0.00128235
0.000359438
-0.0014435
0.000149199
-0.00146369
2.8955e-05
-0.00145497
-9.57326e-06
-0.00143697
-3.52279e-06
0.000548249
9.93232e-06
0.000479955
4.45344e-05
0.00034141
-9.03184e-05
0.000139632
-0.000677388
2.96874e-05
-0.00058458
-2.9158e-05
-0.000393605
-6.40553e-05
-0.000342815
-1.19194e-05
-0.000303877
0.000141398
-0.000264706
0.000441539
-0.000134477
0.00059088
6.00162e-05
0.000810533
0.000249185
0.00108733
0.000426575
0.00135918
0.000563143
-0.00156289
0.000254531
-0.00154884
7.62369e-05
-0.00151097
-8.6799e-06
-0.00145586
-3.56206e-05
-0.00140135
2.30372e-06
0.000455186
3.47008e-05
0.00031186
7.40837e-05
0.000120783
-7.14698e-05
-4.62211e-05
-0.00060148
-9.00049e-05
-0.000523733
-0.000107689
-0.000349971
-7.4489e-05
-0.000280245
4.1972e-05
-0.000204451
0.000259369
-8.2536e-05
0.000377399
7.90047e-05
0.000617915
0.000252635
0.000875642
0.000460869
0.00111951
0.000666247
0.0015
0.000779704
-0.00171656
0.000394337
-0.00170269
0.000134254
-0.00160685
1.20484e-06
-0.00152086
-5.82323e-05
-0.00143325
-5.61688e-05
-0.00134518
1.07883e-05
0.000288834
5.77264e-05
9.9896e-05
9.49709e-05
-9.17004e-05
-2.59907e-05
-0.000216241
-0.000475244
-0.000198014
-0.000433408
-0.000148398
-0.000276062
-6.50862e-05
-0.000173187
0.000109146
-5.4228e-05
0.000207777
8.70859e-05
0.00044313
0.000253789
0.000647312
0.000480964
0.000863288
0.000717092
0.00119154
0.000974701
0.00155406
0.000211601
-0.00166943
0.000208306
0.000236016
0.00023915
0.000527172
-0.00184939
0.000189848
-0.00175829
1.64054e-05
-0.00162205
-8.16159e-05
-0.00149747
-0.000115384
-0.00137403
-8.37941e-05
-0.00126139
1.87603e-05
8.65776e-05
7.10446e-05
-0.000103707
0.000106977
-0.000263503
2.12713e-05
-0.000362791
-0.000310467
-0.000267017
-0.000314788
-0.000168349
-0.000172799
-2.16554e-05
-4.23859e-05
6.7616e-05
8.59327e-05
0.000273652
0.000256564
0.000415406
0.000485696
0.000628175
0.000716077
0.000883734
0.0010249
0.00124526
0.00128351
-6.63177e-07
0.000320219
-0.000304084
0.000196131
0.00015996
-0.00173271
0.000157535
0.000138654
0.000134297
0.000324362
-0.000307933
0.000191213
1.41905e-07
0.000300814
0.000255279
0.000300926
0.000262728
0.000198882
-0.00185843
1.83501e-05
-0.00176023
-0.000108658
-0.00159501
-0.000175286
-0.00143757
-0.000169703
-0.00128812
-9.92203e-05
-0.00116216
2.33701e-05
-0.000107121
7.44593e-05
-0.000267968
0.000111443
-0.000391726
5.02059e-05
-0.000462192
-0.000115293
-0.000317178
-0.000165958
-0.000134005
-6.04501e-05
-5.73677e-05
8.25978e-05
0.000106735
0.00025285
0.000201012
0.000470957
0.000425165
0.000688706
0.000586982
0.00101283
0.000932548
0.00133761
-0.000220537
-0.00021793
0.000937967
0.000317641
0.000325991
0.000368786
0.00037333
-1.46641e-06
-0.000281195
0.000138537
3.68049e-06
0.000198625
-0.000164164
0.000157989
-0.00160297
6.91397e-05
-0.000280225
0.000128361
-1.02168e-06
-0.0002251
8.35817e-05
-0.000224148
7.71977e-05
0.000188438
-0.000145048
0.000151504
3.10313e-06
0.000230263
0.000236339
-1.62842e-05
-0.00182379
-0.000147539
-0.00172135
-0.000239304
-0.00153099
-0.000268697
-0.00133858
-0.000206266
-0.00118108
-0.000116774
-0.00104539
2.52437e-05
-0.000264194
7.06851e-05
-0.000387715
0.000107432
-0.000473357
6.13719e-05
-0.000510068
7.75971e-05
-0.000291252
-8.71144e-06
-0.000167882
5.00639e-05
-5.17962e-05
0.000241129
2.81227e-05
0.000425739
0.00023811
0.000658012
0.00034796
0.000927728
0.00061967
0.00132571
0.000754019
0.000367701
0.000369989
0.000392376
0.000391492
1.94697e-06
0.000134672
-8.0279e-05
0.000261301
0.000129744
-7.13951e-05
0.00026959
7.83997e-07
0.000132892
0.000369782
0.000129894
0.000373964
1.13344e-06
-0.000103648
7.68868e-05
8.01983e-06
-1.60228e-05
9.75423e-05
5.08289e-05
-1.9872e-05
5.03461e-05
-1.28532e-05
-0.00145407
-0.000165178
4.26257e-05
1.68999e-05
-0.000169427
-8.15533e-05
-7.84254e-05
-5.54253e-05
-5.48033e-05
-7.15564e-05
5.60018e-05
-2.08848e-06
2.46481e-05
2.04528e-05
-3.24305e-05
0.000124121
4.97649e-05
-1.85078e-05
4.88886e-05
-1.23115e-05
5.73344e-06
6.10924e-05
8.5191e-06
6.03165e-05
-1.69992e-06
6.25094e-05
1.32171e-05
6.07893e-05
1.73044e-06
-0.000234107
-0.00173723
-0.00033506
-0.0016256
-0.000378954
-0.00142074
-0.000324205
-0.00122064
-0.000235055
-0.0010628
-0.000127574
-0.000917817
2.55397e-05
-0.000379731
6.27023e-05
-0.00046116
9.52353e-05
-0.000518144
6.94483e-05
-0.000422285
0.000208631
-0.00034194
0.000165347
-0.000192661
0.000190929
-0.000111539
0.00038079
4.05239e-05
0.000623325
0.000165232
0.00084074
0.000275794
0.0012716
0.000545994
0.000374906
0.000373009
0.000393851
0.000391968
5.41138e-07
0.000121879
0.000378172
0.000120547
0.000379878
1.53946e-07
0.000107176
0.000406926
0.000105332
0.000406861
1.09523e-06
-2.45516e-05
3.63883e-06
3.0406e-05
-3.84765e-06
2.48512e-05
6.8516e-05
2.42996e-05
8.04169e-05
5.65105e-05
-2.28688e-05
3.28866e-06
3.09929e-05
2.25699e-05
5.93042e-07
6.97439e-05
2.856e-05
8.16863e-05
5.61191e-05
6.91037e-07
2.16173e-05
5.47695e-05
0.000107861
5.21755e-05
0.00010817
2.47064e-05
5.62818e-05
0.000108459
5.35296e-05
0.000108809
4.09967e-06
0.000189521
2.92461e-05
-4.10514e-05
3.08036e-05
-3.819e-05
3.5473e-05
7.85951e-06
1.3e-06
-3.0838e-05
3.70344e-05
-7.91419e-06
-6.52702e-05
7.7654e-05
-2.43415e-05
1.1585e-06
4.51527e-05
3.15937e-05
-5.139e-05
-1.88739e-05
-0.00131281
-0.000375371
2.64034e-05
-8.85341e-05
-8.19658e-05
-9.96199e-05
-9.08888e-05
2.71975e-07
-0.000262746
0.000309113
-0.000128192
-0.00026689
0.000309875
-0.000121138
2.83137e-07
-0.000233824
-8.46303e-05
-0.000245282
-7.61284e-05
0.000207986
2.61933e-05
-3.90155e-05
2.74271e-05
-3.83691e-05
-1.42095e-07
2.45796e-05
-3.64681e-05
3.17308e-05
-3.93554e-05
2.37772e-05
-3.30386e-05
3.09871e-05
-3.87108e-05
4.17051e-05
8.17146e-06
-3.62446e-05
3.74329e-05
-8.21888e-06
-6.63195e-05
7.93627e-05
-2.3332e-05
5.22518e-05
3.12814e-05
-5.2424e-05
-1.80355e-05
-2.68746e-05
9.12773e-06
1.27499e-06
4.67263e-05
-1.01769e-05
2.73624e-05
-5.02759e-06
9.91314e-07
5.2682e-05
-1.65998e-05
-2.94297e-05
9.47193e-06
4.74976e-05
-9.9557e-06
2.72555e-05
-7.94026e-07
5.3388e-05
-1.3966e-05
-0.000464351
-0.00160793
-0.000491238
-0.00151331
-0.000463084
-0.00128186
-0.000359407
-0.00109628
-0.000258934
-0.000931438
-0.000139889
-0.000777928
2.47679e-05
-0.000454057
5.55998e-05
-0.000504208
8.12996e-05
-0.000432164
7.93265e-05
-0.000459136
0.000325827
-0.000440174
0.000412859
-0.000250626
0.000330017
-0.000143256
0.00056457
-2.04417e-05
0.000808999
-2.10411e-05
0.00113758
0.000314603
0.000374
0.00037365
0.000379102
0.000376243
4.25345e-07
8.17765e-05
0.00039988
7.98923e-05
0.000398874
4.00115e-07
7.28021e-05
0.000402425
7.19549e-05
0.000400306
1.58392e-06
5.54024e-05
5.41562e-05
0.000112565
6.07953e-05
0.000115326
5.92839e-05
5.53887e-05
0.000112236
6.40869e-05
0.000115184
1.95431e-06
5.67244e-05
7.25283e-05
0.000130385
7.35128e-05
0.000127215
5.80125e-05
7.53687e-05
0.000130255
7.68958e-05
0.000127545
-5.35872e-06
-6.02051e-05
7.60576e-05
-1.43414e-05
-7.43012e-06
5.41199e-05
-2.68661e-05
-3.66192e-05
1.08121e-07
5.99607e-05
3.96705e-05
-4.40297e-06
-4.67166e-05
1.5214e-05
-3.54178e-08
-3.79183e-05
7.733e-05
6.70152e-07
6.17359e-05
3.93765e-05
-7.22235e-06
5.23611e-05
-2.33629e-05
-5.12664e-06
-5.72329e-05
7.46235e-05
-1.1671e-05
-3.64773e-05
4.01446e-05
6.1058e-05
-4.37727e-06
-4.41554e-05
1.98598e-05
-3.76151e-05
7.84115e-05
6.22322e-05
4.07227e-05
-1.89202e-06
3.3691e-05
-2.52945e-05
4.82651e-05
3.17469e-05
-2.24784e-07
-2.64125e-05
0.00010086
-3.32704e-06
4.24769e-05
-1.75053e-07
9.88104e-05
-1.61376e-06
3.22608e-05
-2.42825e-05
4.99173e-05
3.12018e-05
-2.55983e-05
0.000101017
-2.95551e-06
4.45905e-05
9.92653e-05
-4.55776e-05
1.15163e-05
9.30736e-07
4.9648e-05
1.27287e-05
-8.74641e-06
7.82973e-05
-3.29483e-05
1.26775e-06
2.03646e-05
8.56746e-05
-3.40511e-05
6.70402e-05
1.23512e-05
1.12339e-06
-6.62098e-05
2.27293e-05
-1.42615e-05
-7.61904e-05
8.18439e-05
-1.57336e-05
1.27917e-06
6.89405e-05
1.41731e-05
-6.74581e-05
-1.52551e-05
-0.00119541
-0.000581748
0.000120055
-0.000125483
-0.000122815
-0.000113249
-0.000107475
2.38547e-06
-0.000340585
0.00035967
-0.000110005
-0.000344739
0.000366878
-0.00010172
1.43565e-06
-0.000132528
-0.000124317
2.57385e-06
-0.000370324
0.000413062
-6.52566e-05
-2.40666e-05
-6.10855e-05
-2.30562e-05
-0.000371863
0.000419241
-6.26754e-05
-2.35433e-05
-5.82897e-05
-2.14343e-05
2.08785e-06
-0.000115732
-4.33251e-05
-2.76733e-05
-0.00012372
-1.27983e-05
-4.79549e-05
-1.64621e-05
-6.93609e-05
-0.00011622
-4.61311e-05
-2.4026e-05
-0.000122913
-9.31669e-06
-4.44323e-05
-1.34138e-05
-6.9451e-05
-5.2225e-05
1.2035e-05
5.50055e-05
1.23084e-05
-9.06219e-06
7.97288e-05
-3.03194e-05
1.96595e-05
8.58706e-05
-3.24759e-05
4.71518e-05
1.80731e-05
3.84407e-07
8.61829e-06
-2.49501e-05
-9.54796e-05
-3.17707e-05
-1.932e-08
1.0645e-05
-3.10874e-05
5.17094e-05
1.82605e-05
9.19716e-06
-2.48552e-05
-9.55486e-05
-2.88546e-05
1.16909e-05
-3.01283e-05
7.05548e-05
1.24525e-05
-6.83488e-05
2.38979e-05
-1.41919e-05
-7.70715e-05
8.24511e-05
-1.45197e-05
7.31033e-05
1.58201e-05
-6.75619e-05
-1.50927e-05
9.47461e-06
9.18699e-07
3.18366e-05
-2.04633e-05
9.7065e-06
3.25933e-05
-1.94603e-05
-0.000590073
-0.0015091
-0.000622455
-0.00135394
-0.000499675
-0.00114159
-0.000397187
-0.000958032
-0.000282911
-0.000788416
-0.000146764
-0.000631164
2.17198e-05
-0.000498846
5.02377e-05
-0.000426662
7.57983e-05
-0.000471867
9.20577e-05
-0.00051291
0.000398563
-0.000515754
0.000677987
-0.000312401
0.000499162
-0.000207499
0.000751627
-0.000204399
0.000992357
1.8106e-05
0.000346147
0.000344689
0.000371202
0.000372034
3.65361e-07
5.06332e-05
0.000395804
5.16159e-05
0.000394354
-1.00433e-07
3.00296e-05
0.000399806
3.10778e-05
0.000396681
1.66464e-06
4.64173e-05
7.33381e-05
0.000128996
7.9536e-05
0.000126612
4.54029e-05
7.58887e-05
0.00012894
8.18825e-05
0.000126445
1.32642e-06
3.01564e-05
8.93992e-05
0.000123535
8.37861e-05
0.000120672
2.77934e-05
9.08917e-05
0.000122889
8.53788e-05
0.000120111
-1.2595e-06
-2.12992e-05
5.14204e-05
-2.19171e-05
-1.68955e-07
0.000106961
-9.5864e-07
-1.54058e-05
5.58549e-05
-1.54665e-07
-1.65997e-05
0.000109165
-1.0332e-06
-2.06002e-05
5.27396e-05
-2.12162e-05
0.000106651
-7.45534e-07
-1.48732e-05
5.91054e-05
-1.61086e-05
0.000109188
2.77748e-07
7.30924e-06
-4.63816e-06
6.95844e-05
1.14233e-05
-1.43328e-07
-6.0473e-06
0.000125407
-6.38117e-07
6.60602e-05
-1.18538e-07
0.00012154
2.90904e-07
6.46303e-06
-3.71243e-06
7.23272e-05
1.10387e-05
-5.79887e-06
0.000125153
-4.99753e-07
6.89854e-05
0.000121845
-6.75716e-06
5.60644e-05
-2.16082e-06
-3.1801e-05
-2.60099e-05
4.59612e-08
3.97492e-07
3.85497e-05
-2.97023e-06
-3.70675e-05
5.63483e-08
-2.20148e-05
-6.63886e-06
5.6773e-05
-2.15831e-06
-3.18686e-05
3.93848e-05
-2.61208e-05
-2.88976e-06
-3.55424e-05
-2.18332e-05
-2.13965e-06
3.17167e-05
-2.68731e-05
1.92591e-05
-8.22218e-08
-1.57758e-05
-2.85088e-06
-5.90828e-08
-1.95307e-06
3.06462e-05
-2.60264e-05
1.89754e-05
-1.53637e-05
-2.57499e-06
-7.30594e-05
1.95607e-05
1.44418e-06
7.88773e-05
-1.41096e-05
-1.63834e-05
8.57628e-05
-2.04838e-05
1.4981e-06
-1.65374e-06
9.28256e-05
-2.15532e-05
3.47088e-05
7.93077e-06
6.44584e-07
-3.59357e-05
-7.83406e-06
-4.76058e-05
4.91745e-05
8.36163e-07
3.9039e-05
-4.76792e-05
-0.00113375
-0.000651738
9.42453e-05
-0.000142945
-0.000143838
-0.000136632
-0.000132523
2.86035e-06
-0.000356542
0.000352828
-0.000124629
-0.000366938
0.000363214
-0.000116231
3.0353e-06
-0.000113156
-0.0001045
5.0014e-07
-0.00043845
0.000439492
-5.57026e-05
7.16047e-06
-5.61718e-05
-6.80328e-06
-0.000449779
0.00045148
-5.16121e-05
7.59578e-06
-5.23884e-05
-6.53829e-06
7.26351e-07
-6.40062e-05
-2.13869e-05
-5.83967e-05
-1.48137e-05
-6.22308e-05
-2.13023e-05
-5.58943e-05
-1.46899e-05
-2.67111e-05
-0.000115472
0.000118695
-4.17684e-05
-0.000103901
-4.03792e-08
0.000107156
-5.40501e-05
-2.52839e-05
-0.000111132
-4.01413e-05
2.16206e-07
-0.000100297
-5.21609e-05
-2.66152e-05
-0.000116817
0.000121452
-4.06948e-05
-0.000108322
0.00011338
-5.52568e-05
-2.52584e-05
-0.000111184
-3.86647e-05
-0.000103074
-5.17238e-05
-2.23906e-05
0.000107184
-0.000109149
-3.31822e-06
-3.45215e-05
-0.000106394
-1.45745e-05
9.83354e-05
7.91226e-07
-3.16833e-05
-0.000102674
-2.41101e-05
-2.77925e-05
4.62501e-07
-4.29961e-05
8.57216e-07
-8.11598e-05
-1.29139e-05
-2.20439e-05
0.000105987
-0.000107051
-9.17802e-07
-3.45097e-05
-0.000105391
-1.18668e-05
9.97625e-05
-2.69307e-05
-0.000103401
-2.41697e-05
-2.54592e-05
-4.04329e-05
-8.16862e-05