/*--------------------------------*- C++ -*----------------------------------*\
| =========                 |                                                 |
| \\      /  F ield         | OpenFOAM: The Open Source CFD Toolbox           |
|  \\    /   O peration     | Version:  5.x                                   |
|   \\  /    A nd           | Web:      www.OpenFOAM.org                      |
|    \\/     M anipulation  |                                                 |
\*---------------------------------------------------------------------------*/
FoamFile
{
    version     2.0;
    format      ascii;
    class       volScalarField;
    location    "0.8";
    object      rAU;
}
// * * * * * * * * * * * * * * * * * * * * * * * * * * * * * * * * * * * * * //

dimensions      [-1 3 1 0 0 0 0];

internalField   nonuniform List<scalar> 
12160
(
1.14391e-06
1.14388e-06
1.14391e-06
1.14386e-06
1.14387e-06
1.14391e-06
1.14385e-06
1.14384e-06
1.14387e-06
1.1439e-06
1.14472e-06
1.14383e-06
1.14383e-06
1.14389e-06
1.14386e-06
1.14524e-06
1.14469e-06
1.14381e-06
1.14385e-06
1.1439e-06
1.14379e-06
1.14524e-06
1.14525e-06
1.14463e-06
1.14383e-06
1.14386e-06
1.144e-06
1.14366e-06
1.14559e-06
1.14525e-06
1.14526e-06
1.14462e-06
1.14382e-06
1.144e-06
1.14475e-06
1.14373e-06
1.14559e-06
1.14559e-06
1.14526e-06
1.14523e-06
1.1441e-06
1.14474e-06
1.14496e-06
1.14538e-06
1.69103e-06
1.14559e-06
1.14559e-06
1.14559e-06
1.14526e-06
1.14464e-06
1.14531e-06
1.14491e-06
1.14833e-06
1.74727e-06
3.7124e-05
1.14559e-06
1.14559e-06
1.14559e-06
1.14559e-06
1.14534e-06
1.14499e-06
1.14529e-06
1.14695e-06
1.75916e-06
2.89165e-05
0.000894374
1.14555e-06
1.14559e-06
1.14559e-06
1.14559e-06
1.14559e-06
1.1453e-06
1.14495e-06
1.1457e-06
1.68352e-06
2.17406e-05
0.00107226
0.00114363
1.14551e-06
1.14555e-06
1.14559e-06
1.14559e-06
1.14559e-06
1.14535e-06
1.14536e-06
1.14526e-06
1.62999e-06
1.45335e-05
0.000940381
0.00114231
0.00114486
1.14552e-06
1.14551e-06
1.14559e-06
1.14559e-06
1.14559e-06
1.14534e-06
1.14535e-06
1.14525e-06
1.63171e-06
1.02076e-05
0.000696591
0.00114289
0.00114321
0.00114502
1.14552e-06
1.14552e-06
1.14559e-06
1.14559e-06
1.14559e-06
1.14533e-06
1.14534e-06
1.14507e-06
1.69638e-06
9.04339e-06
0.000406822
0.00114326
0.00114355
0.00114314
0.0011454
1.14553e-06
1.14552e-06
1.14558e-06
1.14559e-06
1.14559e-06
1.14532e-06
1.14533e-06
1.1449e-06
1.84608e-06
9.58278e-06
0.000269342
0.00113933
0.00114327
0.00114391
0.00114021
1.14554e-06
1.14553e-06
1.14558e-06
1.14558e-06
1.14559e-06
1.14532e-06
1.14466e-06
1.1448e-06
2.08598e-06
1.2167e-05
0.000250372
0.0011349
0.00114434
0.00114297
0.00114108
1.14554e-06
1.14554e-06
1.14558e-06
1.14558e-06
1.14558e-06
1.14533e-06
1.14471e-06
1.14414e-06
2.42806e-06
1.76823e-05
0.000330207
0.00113128
0.00114499
0.00114557
0.00113904
1.14555e-06
1.14554e-06
1.14558e-06
1.14558e-06
1.14558e-06
1.14534e-06
1.14478e-06
1.14426e-06
2.89003e-06
2.79158e-05
0.000543559
0.00113659
0.00114529
0.00114557
0.00114144
1.14555e-06
1.14555e-06
1.14558e-06
1.14558e-06
1.14558e-06
1.14536e-06
1.14486e-06
1.1444e-06
3.49946e-06
4.66061e-05
0.000813706
0.00114245
0.00114457
0.00114529
0.00114355
1.14557e-06
1.14555e-06
1.14558e-06
1.14558e-06
1.14558e-06
1.14538e-06
1.14495e-06
1.14456e-06
4.2935e-06
8.08608e-05
0.00100578
0.00114492
0.00114418
0.00114457
0.00114532
1.14558e-06
1.14557e-06
1.14558e-06
1.14558e-06
1.14558e-06
1.14541e-06
1.14504e-06
1.14471e-06
5.31935e-06
0.000142384
0.0010968
0.00114539
0.00114556
0.00114418
0.0011447
1.14558e-06
1.14558e-06
1.14558e-06
1.14558e-06
1.14558e-06
1.14543e-06
1.14511e-06
1.14484e-06
6.63349e-06
0.000246202
0.00113013
0.00114556
0.00114557
0.00114555
0.00114432
1.14558e-06
1.14558e-06
1.14558e-06
1.14558e-06
1.14558e-06
1.14545e-06
1.14518e-06
1.14496e-06
8.30091e-06
0.000400651
0.00114065
0.00114557
0.00114557
0.00114557
0.0011442
1.14558e-06
1.14558e-06
1.14558e-06
1.14558e-06
1.14558e-06
1.14546e-06
1.14524e-06
1.14506e-06
1.03896e-05
0.000589777
0.00114372
0.00114557
0.00114557
0.00114557
0.00114422
1.14558e-06
1.14558e-06
1.14558e-06
1.14558e-06
1.14558e-06
1.14547e-06
1.14529e-06
1.14514e-06
1.29599e-05
0.000770316
0.00114462
0.00114557
0.00114557
0.00114557
0.00114432
1.14558e-06
1.14558e-06
1.14558e-06
1.14558e-06
1.14558e-06
1.14548e-06
1.14532e-06
1.14521e-06
1.60373e-05
0.000910697
0.00114517
0.00114557
0.00114557
0.00114557
0.00114445
1.14557e-06
1.14558e-06
1.14558e-06
1.14558e-06
1.14558e-06
1.14549e-06
1.14534e-06
1.14525e-06
1.9571e-05
0.00100081
0.00114555
0.00114557
0.00114557
0.00114557
0.00114458
1.14555e-06
1.14557e-06
1.14558e-06
1.14558e-06
1.14558e-06
1.14549e-06
1.14536e-06
1.14529e-06
2.33727e-05
0.00105253
0.00114556
0.00114557
0.00114557
0.00114557
0.00114471
1.14554e-06
1.14555e-06
1.14558e-06
1.14558e-06
1.14558e-06
1.14549e-06
1.14537e-06
1.14531e-06
2.70599e-05
0.00108057
0.00114557
0.00114557
0.00114557
0.00114557
0.00114483
1.14554e-06
1.14555e-06
1.14558e-06
1.14558e-06
1.14558e-06
1.14549e-06
1.14537e-06
1.14532e-06
3.00693e-05
0.00109518
0.00114523
0.00114518
0.00114557
0.00114557
0.00114494
1.14553e-06
1.14554e-06
1.14558e-06
1.14558e-06
1.14558e-06
1.14548e-06
1.14536e-06
1.14532e-06
3.18028e-05
0.00110219
0.00114524
0.00114487
0.00114508
0.00114557
0.00114503
1.14553e-06
1.14553e-06
1.14558e-06
1.14558e-06
1.14558e-06
1.14547e-06
1.14534e-06
1.14531e-06
3.18843e-05
0.00110514
0.00114491
0.0011449
0.00114484
0.00114547
0.0011451
1.14552e-06
1.14553e-06
1.14558e-06
1.14558e-06
1.14558e-06
1.14546e-06
1.14532e-06
1.14528e-06
3.03623e-05
0.00110522
0.0011449
0.0011449
0.00114487
0.0011452
0.00114516
1.14551e-06
1.14552e-06
1.14557e-06
1.14558e-06
1.14558e-06
1.14545e-06
1.14528e-06
1.14525e-06
2.76573e-05
0.00110206
0.00114489
0.00114489
0.00114488
0.00114486
0.00114519
1.1455e-06
1.14551e-06
1.14557e-06
1.14557e-06
1.14558e-06
1.14543e-06
1.14524e-06
1.1452e-06
2.43448e-05
0.00109582
0.00114489
0.00114488
0.00114488
0.00114487
0.00114485
1.14549e-06
1.1455e-06
1.14557e-06
1.14557e-06
1.14557e-06
1.14541e-06
1.1452e-06
1.14515e-06
2.09221e-05
0.00108386
0.00114522
0.00114488
0.00114487
0.00114487
0.00114487
1.14549e-06
1.14549e-06
1.14557e-06
1.14557e-06
1.14557e-06
1.14539e-06
1.14514e-06
1.14508e-06
1.77128e-05
0.0010631
0.00114521
0.00114487
0.00114487
0.00114487
0.00114487
1.14548e-06
1.14549e-06
1.14557e-06
1.14557e-06
1.14557e-06
1.14537e-06
1.14508e-06
1.145e-06
1.48746e-05
0.00102818
0.00114519
0.00114484
0.00114485
0.00114486
0.00114487
1.14585e-06
1.14548e-06
1.14557e-06
1.14557e-06
1.14557e-06
1.14535e-06
1.14502e-06
1.14491e-06
1.24519e-05
0.000972016
0.00114556
0.00114479
0.00114481
0.00114483
0.00114486
1.14585e-06
1.14571e-06
1.14557e-06
1.14557e-06
1.14557e-06
1.14533e-06
1.14495e-06
1.14481e-06
1.04273e-05
0.000887526
0.00114555
0.00114539
0.00114489
0.00114518
0.00114483
1.14591e-06
1.14571e-06
1.14554e-06
1.14557e-06
1.14557e-06
1.14532e-06
1.14487e-06
1.14471e-06
8.75661e-06
0.000771989
0.00114554
0.00114557
0.00114539
0.00114528
0.00114518
1.1459e-06
1.14571e-06
1.14554e-06
1.14551e-06
1.14557e-06
1.1453e-06
1.1448e-06
1.14459e-06
7.38621e-06
0.000635257
0.00114514
0.00114556
0.00114557
0.00114557
0.00114515
1.1459e-06
1.14571e-06
1.14554e-06
1.14552e-06
1.1455e-06
1.14529e-06
1.14474e-06
1.14447e-06
6.2658e-06
0.000489698
0.00114469
0.00114556
0.00114557
0.00114557
0.0011451
1.14561e-06
1.1457e-06
1.14554e-06
1.14552e-06
1.14551e-06
1.1446e-06
1.14467e-06
1.14435e-06
5.35062e-06
0.000357197
0.00114424
0.00114556
0.00114556
0.00114557
0.00114505
1.14493e-06
1.14542e-06
1.14553e-06
1.14552e-06
1.14551e-06
1.14453e-06
1.14355e-06
1.14423e-06
4.60297e-06
0.000250382
0.00114322
0.00114556
0.00114556
0.00114557
0.00114498
1.14442e-06
1.14467e-06
1.14527e-06
1.14552e-06
1.14551e-06
1.14514e-06
1.14327e-06
1.14386e-06
3.9911e-06
0.000171862
0.00114079
0.00114556
0.00114556
0.00114557
0.00114489
3.49129e-06
1.14408e-06
1.14527e-06
1.14527e-06
1.14551e-06
1.14549e-06
1.14508e-06
1.14321e-06
1.14361e-06
0.000117591
0.00113509
0.00114556
0.00114556
0.00114556
0.0011448
8.11219e-05
2.86364e-06
1.14463e-06
1.14527e-06
1.1453e-06
1.14549e-06
1.14548e-06
1.14407e-06
1.14288e-06
1.14469e-06
0.00112219
0.00114556
0.00114556
0.00114556
0.00114471
0.00109455
4.55602e-05
2.24674e-06
1.14476e-06
1.1453e-06
1.14535e-06
1.14548e-06
1.14375e-06
1.14412e-06
1.14468e-06
1.1427e-06
0.00114553
0.00114556
0.00114556
0.00114461
0.00114562
0.00100444
2.25656e-05
1.86632e-06
1.14498e-06
1.14535e-06
1.1454e-06
1.14381e-06
1.14352e-06
1.14543e-06
1.14102e-06
1.13467e-06
0.00114554
0.00114556
0.00114451
0.00114559
0.00114543
0.000712306
1.31217e-05
1.6337e-06
1.14518e-06
1.14518e-06
1.14395e-06
1.14351e-06
1.14511e-06
1.1402e-06
1.14215e-06
1.14491e-06
1.13339e-06
0.00114556
0.00114441
0.0011456
0.00114559
0.0011444
0.000394929
8.8755e-06
1.4946e-06
1.14519e-06
1.1439e-06
1.1438e-06
1.14487e-06
1.14083e-06
1.14284e-06
1.14553e-06
1.14558e-06
1.14369e-06
1.13208e-06
0.00114431
0.00114424
0.00114557
0.00114554
0.00113934
0.000220266
6.8541e-06
1.41307e-06
1.14545e-06
1.14366e-06
1.1452e-06
1.14333e-06
1.14299e-06
1.14558e-06
1.14558e-06
1.14558e-06
1.14535e-06
1.14439e-06
1.13617e-06
0.00114414
0.00114553
0.0011441
0.00112706
0.000149377
5.90634e-06
1.36432e-06
1.14555e-06
1.14542e-06
1.14531e-06
1.14396e-06
1.14552e-06
1.14558e-06
1.14558e-06
1.14557e-06
1.14558e-06
1.14543e-06
1.14558e-06
1.14558e-06
0.00114407
0.0011441
0.00114455
0.00111265
0.000132997
5.53591e-06
1.33117e-06
1.14574e-06
1.14537e-06
1.14532e-06
1.14539e-06
1.14558e-06
1.14558e-06
1.14557e-06
1.14556e-06
1.14558e-06
1.14558e-06
1.14558e-06
1.14558e-06
1.14558e-06
0.00114423
0.00114442
0.00114522
0.00111384
0.000146489
5.52845e-06
1.31095e-06
1.14565e-06
1.14541e-06
1.14558e-06
1.14558e-06
1.14558e-06
1.14557e-06
1.14554e-06
1.14189e-06
1.14419e-06
1.14558e-06
1.14558e-06
1.14558e-06
1.14558e-06
1.14559e-06
0.00114453
0.00114519
0.00114526
0.00112269
0.000184452
5.71152e-06
1.30556e-06
1.1455e-06
1.14558e-06
1.14558e-06
1.14558e-06
1.14558e-06
1.1449e-06
1.14242e-06
1.13474e-06
1.14144e-06
1.13491e-06
1.13241e-06
1.13451e-06
1.14429e-06
1.14558e-06
1.14526e-06
1.14558e-06
1.14558e-06
1.14558e-06
0.00114524
0.00114559
0.00114455
0.00113046
0.000244319
6.16537e-06
1.30508e-06
1.14604e-06
1.14558e-06
1.14558e-06
1.14558e-06
1.1441e-06
1.14485e-06
1.14164e-06
1.14117e-06
1.14431e-06
1.14386e-06
1.14064e-06
1.13963e-06
1.13958e-06
1.14509e-06
1.13513e-06
1.13523e-06
1.14558e-06
1.14429e-06
1.14558e-06
1.14558e-06
1.14558e-06
1.14558e-06
0.00114385
0.00114559
0.0011439
0.00113509
0.0003298
6.87646e-06
1.34427e-06
1.1461e-06
1.14558e-06
1.14558e-06
1.14557e-06
1.14408e-06
1.14722e-06
1.14349e-06
1.14496e-06
1.15199e-06
1.15207e-06
1.14412e-06
1.1395e-06
1.14559e-06
1.14353e-06
1.1427e-06
1.14292e-06
1.14177e-06
1.14139e-06
1.13584e-06
1.13774e-06
1.14461e-06
1.14558e-06
1.14558e-06
1.14558e-06
1.14558e-06
1.14558e-06
0.001141
0.00114559
0.00114274
0.0011376
0.000434696
8.48742e-06
1.38005e-06
1.14775e-06
1.14558e-06
1.14557e-06
1.14556e-06
1.14679e-06
1.14859e-06
1.14755e-06
1.14626e-06
1.14655e-06
1.14296e-06
1.14341e-06
1.14985e-06
1.15007e-06
1.1379e-06
1.10348e-06
1.12887e-06
1.11384e-06
1.13484e-06
1.14392e-06
1.14328e-06
1.13761e-06
1.13926e-06
1.14253e-06
1.14291e-06
1.13927e-06
1.13925e-06
1.13953e-06
1.10386e-06
1.12963e-06
1.11789e-06
1.13463e-06
1.09694e-06
1.13579e-06
1.09411e-06
1.1384e-06
1.1087e-06
1.13569e-06
1.10166e-06
1.13863e-06
1.14558e-06
1.14558e-06
1.14558e-06
1.14558e-06
1.14558e-06
1.14558e-06
0.00113849
0.00114495
0.0011411
0.00113878
0.000553999
1.09852e-05
1.50179e-06
1.1519e-06
1.14556e-06
1.14405e-06
1.14602e-06
1.13786e-06
1.13757e-06
1.14189e-06
1.14168e-06
1.15046e-06
1.1504e-06
1.14858e-06
1.14865e-06
1.13698e-06
1.13559e-06
1.12514e-06
1.1346e-06
1.10756e-06
1.10262e-06
1.13667e-06
1.13998e-06
1.1248e-06
1.14048e-06
1.1071e-06
1.10124e-06
1.14938e-06
1.12962e-06
1.15238e-06
1.11934e-06
1.14346e-06
1.13272e-06
1.15581e-06
1.12063e-06
1.10797e-06
1.11868e-06
1.11576e-06
1.10433e-06
1.12856e-06
1.13206e-06
1.1298e-06
1.13279e-06
1.14392e-06
1.14257e-06
1.13569e-06
1.13642e-06
1.13382e-06
1.13641e-06
1.11212e-06
1.13022e-06
1.12362e-06
1.12456e-06
1.1074e-06
1.1211e-06
1.11789e-06
1.10034e-06
1.09233e-06
1.06902e-06
1.0959e-06
1.0888e-06
1.08921e-06
1.06912e-06
1.09432e-06
1.08261e-06
1.1274e-06
1.13251e-06
1.13022e-06
1.13209e-06
1.11204e-06
1.13449e-06
1.11213e-06
1.13467e-06
1.14558e-06
1.14558e-06
1.14558e-06
1.14558e-06
1.14558e-06
1.14558e-06
0.00113646
0.00114369
0.00114085
0.00113898
0.000724267
1.66951e-05
1.69431e-06
1.16561e-06
1.14538e-06
1.14621e-06
1.13286e-06
1.1317e-06
1.14825e-06
1.14827e-06
1.14701e-06
1.14707e-06
1.14827e-06
1.14847e-06
1.15261e-06
1.11671e-06
1.15223e-06
1.11388e-06
1.14616e-06
1.11716e-06
1.15327e-06
1.11363e-06
1.1524e-06
1.1261e-06
1.14876e-06
1.11143e-06
1.15306e-06
1.13047e-06
1.14992e-06
1.11714e-06
1.10944e-06
1.08692e-06
9.6184e-07
1.12837e-06
1.12199e-06
1.03737e-06
1.10616e-06
1.08576e-06
1.12772e-06
9.59329e-07
1.13858e-06
1.03473e-06
1.15464e-06
1.08835e-06
1.147e-06
1.07539e-06
1.15512e-06
1.09339e-06
1.14525e-06
1.07672e-06
1.13161e-06
1.12821e-06
1.13099e-06
1.12821e-06
1.14549e-06
1.08981e-06
1.14014e-06
1.09614e-06
1.14558e-06
1.14175e-06
1.12196e-06
1.12408e-06
1.12326e-06
1.12554e-06
1.10715e-06
1.11005e-06
1.10511e-06
1.12547e-06
1.03927e-06
1.11322e-06
1.02843e-06
1.11525e-06
1.01239e-06
1.11365e-06
1.01256e-06
1.11557e-06
1.10423e-06
1.07179e-06
1.08541e-06
1.06057e-06
1.12078e-06
1.07436e-06
1.10363e-06
1.07092e-06
1.08446e-06
1.06124e-06
1.12152e-06
1.07418e-06
1.1325e-06
1.13051e-06
1.13197e-06
1.13014e-06
1.10353e-06
1.11209e-06
1.10246e-06
1.11038e-06
1.14597e-06
1.09361e-06
1.13777e-06
1.1e-06
1.14972e-06
1.10041e-06
1.15045e-06
1.09618e-06
1.14558e-06
1.14558e-06
1.14558e-06
1.14558e-06
1.14558e-06
1.14559e-06
0.0011348
0.00114364
0.00113996
0.00113891
0.000903761
2.82586e-05
2.07329e-06
1.21754e-06
1.14638e-06
1.1502e-06
1.15027e-06
1.14891e-06
1.14928e-06
1.14092e-06
1.14058e-06
1.14412e-06
1.14416e-06
1.14601e-06
1.16087e-06
1.15097e-06
1.1594e-06
1.15003e-06
1.1609e-06
1.15391e-06
1.15944e-06
1.15219e-06
1.15641e-06
1.13258e-06
1.15509e-06
1.15239e-06
1.15665e-06
1.13402e-06
1.15523e-06
1.15669e-06
1.05234e-06
1.1537e-06
1.08672e-06
1.15712e-06
1.05248e-06
1.15532e-06
1.08551e-06
1.16273e-06
1.12488e-06
1.16267e-06
1.12253e-06
1.16334e-06
1.12583e-06
1.15787e-06
1.1228e-06
1.13224e-06
1.11866e-06
1.13768e-06
1.12405e-06
1.14264e-06
1.14177e-06
1.1372e-06
1.13643e-06
1.13213e-06
1.13088e-06
1.10101e-06
1.09738e-06
1.09472e-06
1.09114e-06
1.10621e-06
1.12936e-06
1.09964e-06
1.12156e-06
1.10579e-06
1.12994e-06
1.09873e-06
1.12118e-06
1.02722e-06
1.11437e-06
1.06013e-06
1.11431e-06
1.03847e-06
1.11454e-06
1.0847e-06
1.11367e-06
1.11324e-06
1.11244e-06
1.10956e-06
1.11927e-06
1.11577e-06
1.11667e-06
1.11248e-06
1.12095e-06
1.09519e-06
1.0417e-06
1.03076e-06
1.07123e-06
1.11076e-06
1.08062e-06
1.1014e-06
1.05118e-06
1.05769e-06
1.07756e-06
1.09099e-06
1.08309e-06
1.13251e-06
1.11129e-06
1.13512e-06
1.12087e-06
1.12336e-06
1.11787e-06
1.12966e-06
1.12592e-06
1.14558e-06
1.14558e-06
1.14558e-06
1.14558e-06
1.14558e-06
1.14558e-06
0.00113373
0.00114264
0.00114161
0.00114055
0.00103307
5.70522e-05
3.04479e-06
1.32567e-06
1.14748e-06
1.14219e-06
1.14218e-06
1.14399e-06
1.14398e-06
1.15118e-06
1.15129e-06
1.14767e-06
1.14799e-06
1.14484e-06
1.154e-06
1.14209e-06
1.15435e-06
1.15052e-06
1.15502e-06
1.14432e-06
1.15579e-06
1.12209e-06
1.14098e-06
1.11832e-06
1.14172e-06
1.12339e-06
1.14133e-06
1.11924e-06
1.14191e-06
1.12608e-06
9.93217e-07
1.12663e-06
9.96429e-07
1.14134e-06
1.1417e-06
1.12484e-06
1.12457e-06
1.12464e-06
1.12561e-06
1.14498e-06
1.14562e-06
1.12008e-06
1.12201e-06
1.0334e-06
1.0753e-06
1.03712e-06
1.10245e-06
1.03112e-06
1.07387e-06
1.03531e-06
1.10203e-06
1.10411e-06
1.12875e-06
1.06269e-06
1.127e-06
1.10524e-06
1.12899e-06
1.06163e-06
1.12743e-06
1.12542e-06
1.10757e-06
1.10447e-06
1.08984e-06
1.12844e-06
1.10881e-06
1.10543e-06
1.09247e-06
1.11347e-06
1.11159e-06
1.11139e-06
1.10914e-06
1.11648e-06
1.1105e-06
1.1144e-06
1.10771e-06
1.14558e-06
1.14558e-06
1.14558e-06
1.14558e-06
1.14558e-06
1.14558e-06
0.00113236
0.00114383
0.00114449
0.00113747
0.00111013
0.000136566
6.22318e-06
1.51743e-06
1.14966e-06
1.14976e-06
1.22751e-06
1.22732e-06
1.14942e-06
1.14964e-06
1.14049e-06
1.14065e-06
1.15091e-06
1.16115e-06
1.1571e-06
1.15284e-06
1.15322e-06
1.15986e-06
1.15756e-06
1.14955e-06
1.15117e-06
1.13751e-06
1.15143e-06
1.14544e-06
1.15355e-06
1.13052e-06
1.15191e-06
1.13576e-06
1.14968e-06
1.13525e-06
1.15401e-06
1.17463e-06
1.15651e-06
1.13418e-06
1.15599e-06
1.17465e-06
1.12291e-06
1.07846e-06
1.09423e-06
1.15015e-06
1.12687e-06
1.07935e-06
1.09347e-06
1.15154e-06
1.14427e-06
1.14197e-06
1.13626e-06
1.11709e-06
1.11851e-06
1.12839e-06
1.13163e-06
1.11933e-06
1.11801e-06
1.10037e-06
1.10012e-06
1.05671e-06
1.06936e-06
1.06842e-06
1.06645e-06
1.05396e-06
1.06879e-06
1.06593e-06
1.07103e-06
1.12844e-06
1.11245e-06
1.09157e-06
1.08171e-06
1.13185e-06
1.11103e-06
1.09066e-06
1.0857e-06
1.07147e-06
1.13378e-06
1.07159e-06
1.14114e-06
1.14558e-06
1.14558e-06
1.14558e-06
1.14558e-06
1.14558e-06
1.14558e-06
0.00113095
0.00114294
0.00113884
0.00113734
0.00113476
0.000366517
1.68077e-05
2.4203e-06
1.12506e-06
1.12551e-06
1.29202e-06
1.29172e-06
1.12375e-06
1.14204e-06
1.14922e-06
1.15292e-06
1.12763e-06
1.14275e-06
1.14992e-06
1.15144e-06
1.1454e-06
1.14532e-06
1.13986e-06
1.13864e-06
1.13229e-06
1.15948e-06
1.14076e-06
1.13274e-06
1.13133e-06
1.14671e-06
1.16517e-06
1.15361e-06
1.16027e-06
1.16533e-06
1.16502e-06
1.1428e-06
1.16017e-06
1.15806e-06
1.05371e-06
7.84824e-07
1.06159e-06
7.81756e-07
1.14558e-06
1.13997e-06
1.14216e-06
1.13054e-06
1.12793e-06
1.12782e-06
1.13039e-06
1.12657e-06
1.12918e-06
1.12044e-06
1.12223e-06
1.12695e-06
1.07345e-06
1.12416e-06
1.11325e-06
1.12719e-06
1.07328e-06
1.12446e-06
1.1161e-06
1.12462e-06
1.09598e-06
1.10743e-06
1.10979e-06
1.12643e-06
1.09984e-06
1.11336e-06
1.11437e-06
1.11025e-06
1.10428e-06
1.08387e-06
1.10032e-06
1.11128e-06
1.1082e-06
1.08345e-06
1.10016e-06
1.03155e-06
1.09251e-06
1.04459e-06
1.10072e-06
1.02331e-06
1.09132e-06
1.0363e-06
1.09396e-06
1.14558e-06
1.14558e-06
1.14558e-06
1.14558e-06
1.14558e-06
0.00112874
0.0011397
0.00113785
0.00113715
0.00113505
0.000803824
7.78626e-05
3.31771e-06
3.31628e-06
9.07621e-06
9.0685e-06
1.12552e-06
1.12957e-06
1.21743e-06
1.1457e-06
1.12682e-06
1.12965e-06
1.21717e-06
1.14565e-06
1.51464e-06
1.51387e-06
1.1252e-06
1.13445e-06
1.13543e-06
1.13996e-06
1.12682e-06
1.13448e-06
1.13554e-06
1.1361e-06
1.14035e-06
1.15048e-06
1.12593e-06
1.16141e-06
1.13707e-06
1.14755e-06
1.11939e-06
1.15782e-06
1.08714e-06
1.14174e-06
1.16211e-06
1.09051e-06
1.09331e-06
1.16859e-06
1.16087e-06
1.13837e-06
1.14558e-06
1.14221e-06
1.14382e-06
1.13643e-06
1.10983e-06
1.1112e-06
1.11968e-06
1.10368e-06
1.12475e-06
1.10681e-06
1.04384e-06
1.09561e-06
1.06927e-06
1.04164e-06
1.04325e-06
1.09377e-06
1.0642e-06
1.04101e-06
1.08837e-06
1.0977e-06
1.10104e-06
1.11977e-06
1.08063e-06
1.09308e-06
1.09593e-06
1.11e-06
1.08035e-06
1.12285e-06
1.11147e-06
1.1073e-06
1.07894e-06
1.12761e-06
1.11545e-06
1.09835e-06
1.08145e-06
1.14391e-06
1.08686e-06
1.15253e-06
1.14558e-06
1.14558e-06
1.14558e-06
1.14558e-06
0.00112855
0.0011379
0.00113779
0.00113678
0.00113699
0.00110535
0.000171522
0.000170953
0.00104834
0.00104837
6.98015e-06
6.97005e-06
4.41816e-05
4.3994e-05
1.20837e-06
1.12127e-06
1.35791e-06
1.16248e-06
1.21042e-06
1.11955e-06
1.35746e-06
1.16232e-06
1.40202e-06
2.51026e-06
1.85997e-06
1.74427e-06
1.40173e-06
2.51697e-06
1.85792e-06
1.74553e-06
1.12965e-06
1.15917e-06
1.14723e-06
1.14042e-06
1.13151e-06
1.15916e-06
1.14694e-06
1.14103e-06
1.12918e-06
1.15156e-06
1.09747e-06
1.13203e-06
1.12833e-06
1.15058e-06
1.09538e-06
1.13397e-06
1.14558e-06
1.14558e-06
1.14443e-06
1.14164e-06
1.10787e-06
1.11081e-06
1.10844e-06
1.11026e-06
1.10988e-06
1.1102e-06
1.08954e-06
1.08977e-06
1.04842e-06
1.06632e-06
1.09219e-06
1.08631e-06
1.05145e-06
1.06257e-06
1.11388e-06
1.12067e-06
1.10995e-06
1.11407e-06
1.06993e-06
1.08976e-06
1.11828e-06
1.11839e-06
1.11035e-06
1.10906e-06
1.06525e-06
1.08626e-06
1.08492e-06
1.09364e-06
1.08276e-06
1.09815e-06
1.12983e-06
1.12107e-06
1.10904e-06
1.13741e-06
1.10778e-06
1.13184e-06
1.09886e-06
1.15531e-06
1.14558e-06
1.14558e-06
1.14558e-06
0.00112627
0.00113911
0.00113792
0.00113719
0.00113125
0.00108311
0.000528083
0.000528423
0.00106434
0.00106446
1.77408e-05
3.18306e-06
1.46373e-05
8.56471e-05
4.61421e-05
2.28153e-06
3.18716e-06
1.77083e-05
2.2814e-06
1.4611e-05
8.5142e-05
4.59576e-05
0.000830432
0.000840869
0.000370053
0.000246605
0.00083562
0.000839961
0.000367066
0.000245168
1.29983e-06
1.07844e-06
1.36725e-06
1.13894e-06
1.30458e-06
1.07771e-06
1.36988e-06
1.13885e-06
1.55002e-06
2.2721e-06
1.55029e-06
2.27511e-06
1.05484e-06
1.08811e-06
1.06282e-06
1.08562e-06
1.18544e-06
9.91209e-07
1.18302e-06
9.92196e-07
1.14531e-06
1.14494e-06
1.14558e-06
1.13998e-06
1.11103e-06
1.11499e-06
1.10533e-06
1.10957e-06
1.11761e-06
1.10885e-06
1.12175e-06
1.1095e-06
1.08693e-06
1.0687e-06
1.08392e-06
1.10315e-06
1.09102e-06
1.0754e-06
1.0777e-06
1.07227e-06
1.07783e-06
1.10031e-06
1.08639e-06
1.07508e-06
1.11351e-06
1.08848e-06
1.13329e-06
1.10038e-06
1.12116e-06
1.09909e-06
1.11483e-06
1.10925e-06
1.09545e-06
1.1093e-06
1.13515e-06
1.09315e-06
1.12429e-06
1.12203e-06
1.09182e-06
1.11701e-06
1.11866e-06
1.11566e-06
1.1292e-06
1.11997e-06
1.14558e-06
1.14558e-06
0.00112786
0.00113926
0.00113807
0.00113473
0.00105107
0.000840174
0.000837339
0.000821193
0.000821453
0.000792101
0.000793531
0.00101221
0.00101553
5.23204e-06
0.000109514
5.74084e-05
5.64095e-06
0.000679124
0.000634048
5.23522e-06
0.00010914
5.64812e-06
5.71308e-05
0.000676829
0.000627892
0.000828161
0.000866875
0.000772445
0.000627387
0.00083315
0.000865691
0.000770081
0.000623617
1.65707e-06
1.11586e-06
1.66e-06
1.11711e-06
1.14558e-06
1.14467e-06
1.14558e-06
1.14465e-06
1.13137e-06
1.1166e-06
1.11937e-06
1.11477e-06
1.12213e-06
1.06229e-06
1.08603e-06
1.07193e-06
1.09854e-06
1.06484e-06
1.07677e-06
1.07553e-06
1.09159e-06
1.10029e-06
1.07472e-06
1.10576e-06
1.07285e-06
1.11168e-06
1.09602e-06
1.10143e-06
1.07629e-06
1.10161e-06
1.07985e-06
1.10745e-06
1.09475e-06
1.06608e-06
1.07602e-06
1.07928e-06
1.1047e-06
1.07522e-06
1.10725e-06
1.09212e-06
1.11209e-06
1.09934e-06
1.08027e-06
1.10984e-06
1.12018e-06
1.12812e-06
1.12441e-06
1.12761e-06
1.13313e-06
1.14511e-06
1.12355e-06
1.13655e-06
1.13976e-06
1.14558e-06
0.00112765
0.00114005
0.00113814
0.00113198
0.000811241
0.000920475
0.000905714
0.000877373
0.000882857
0.000937457
0.000935554
0.000863738
0.00100833
0.00092891
0.000927615
0.000857015
0.00100795
0.000975414
0.000960382
0.000913873
0.000783952
0.000828268
0.000972994
0.000916924
0.000783049
0.000825403
0.000937241
1.14558e-06
1.14558e-06
1.14337e-06
1.14527e-06
1.13885e-06
1.14025e-06
1.13836e-06
1.12903e-06
1.13279e-06
1.13791e-06
1.13489e-06
1.12572e-06
1.1229e-06
1.09749e-06
1.1069e-06
1.11288e-06
1.09353e-06
1.09326e-06
1.10092e-06
1.12117e-06
1.10811e-06
1.10638e-06
1.0781e-06
1.0822e-06
1.078e-06
1.09205e-06
1.05222e-06
1.11728e-06
1.10625e-06
1.10268e-06
1.09354e-06
1.09954e-06
1.06357e-06
1.02329e-06
1.09852e-06
1.02958e-06
1.10626e-06
0.0011308
0.00114183
0.00114318
0.00108571
0.000653842
0.00102955
0.000656004
0.000650023
0.001086
0.00106905
0.00102603
0.00110931
0.001029
0.00102355
0.000999187
0.000990814
0.0010223
0.00102004
0.000989593
0.000977338
0.000976213
0.00097219
0.000975254
0.000958594
0.00098803
0.000946194
0.000945152
0.000946836
0.000962011
0.000808096
0.000978162
0.000806507
1.14558e-06
1.14193e-06
1.14461e-06
1.14141e-06
1.13576e-06
1.11358e-06
1.11699e-06
1.11045e-06
1.12811e-06
1.11424e-06
1.13369e-06
1.10183e-06
1.07593e-06
1.10847e-06
1.07377e-06
1.09243e-06
1.08799e-06
1.09743e-06
1.08599e-06
1.11576e-06
1.10609e-06
1.11675e-06
1.03246e-06
1.11719e-06
1.11457e-06
1.1286e-06
1.06129e-06
0.00113222
0.00114508
0.00113995
0.00103882
0.000518847
0.000831612
0.000676123
0.000576156
0.00105215
0.00100194
0.00110424
0.00109839
0.0010737
0.0010912
0.0010284
0.000978468
0.00110027
0.00109317
0.00106583
0.00109016
0.00105647
0.00110884
0.00107602
0.000828113
0.000912916
0.000954748
0.00107807
0.000820933
0.000934131
0.00092587
0.000963229
0.000939233
0.000916907
0.000914874
1.14413e-06
1.14343e-06
1.14228e-06
1.1389e-06
1.14204e-06
1.13969e-06
1.13815e-06
1.13256e-06
1.13057e-06
1.12587e-06
1.12435e-06
1.11939e-06
1.06029e-06
1.09729e-06
1.09935e-06
1.08806e-06
1.06998e-06
1.09784e-06
1.0672e-06
1.0877e-06
1.1003e-06
1.07293e-06
1.10414e-06
1.09875e-06
1.09589e-06
1.07124e-06
1.13963e-06
1.11567e-06
1.0959e-06
1.00113e-06
1.11865e-06
1.06655e-06
0.00113589
0.00114459
0.00114008
0.00110152
0.000917608
0.00112413
0.00113318
0.000429443
0.000556002
0.000854262
0.000551457
0.00107041
0.00102136
0.00110349
0.00109844
0.00110312
0.00109719
0.00105743
0.00101444
0.0011069
0.00108769
0.00110821
0.00109678
0.000588865
0.000742722
0.00108318
0.000989984
0.000967862
0.000995875
0.00110596
0.00109885
1.1405e-06
1.14481e-06
1.14088e-06
1.1421e-06
1.12179e-06
1.11891e-06
1.12355e-06
1.12136e-06
1.11615e-06
1.11795e-06
1.08891e-06
1.11221e-06
1.08924e-06
1.06227e-06
1.09613e-06
1.0539e-06
1.08151e-06
1.088e-06
1.08882e-06
1.07051e-06
1.10069e-06
1.10862e-06
1.0538e-06
1.10789e-06
1.07701e-06
1.01524e-06
1.11406e-06
1.11633e-06
1.10013e-06
1.00863e-06
1.1289e-06
9.32052e-07
1.14277e-06
9.75255e-07
0.00113843
0.00114515
0.00114108
0.00114234
0.00110873
0.00114012
0.00114264
0.000691419
0.000396279
0.000726148
0.000684629
0.000581822
0.00108409
0.00111338
0.000676602
0.000320793
0.000989063
0.000322469
0.000748722
0.00107758
0.000824501
0.00105401
0.00105401
0.00110254
0.00109778
0.000994941
0.00054039
0.00110602
0.000752554
1.12872e-06
1.14544e-06
1.14222e-06
1.13134e-06
1.12622e-06
1.12737e-06
1.12376e-06
1.12092e-06
1.11707e-06
1.11453e-06
1.11369e-06
1.06136e-06
1.06707e-06
1.09318e-06
1.10928e-06
1.06738e-06
1.10518e-06
1.06816e-06
1.08951e-06
1.10403e-06
1.06637e-06
1.09663e-06
1.10448e-06
1.05121e-06
1.00227e-06
1.04681e-06
1.07562e-06
1.06271e-06
1.07343e-06
1.08842e-06
1.02414e-06
0.00114111
0.00114543
0.0011371
0.00113516
0.00112407
0.00113139
0.00113255
0.000600683
0.00023891
0.00102897
0.00109473
0.000815762
0.00109564
0.00106079
0.00040663
0.000775476
0.000907344
0.000247955
0.000760329
0.00106627
0.0010866
0.00109248
0.00109772
0.00107687
0.00108382
0.00109375
0.00110034
0.000525157
0.00020465
0.000967213
0.000401054
1.13302e-06
1.14392e-06
1.13525e-06
1.11932e-06
1.12257e-06
1.12043e-06
1.12268e-06
1.10852e-06
1.10883e-06
1.07118e-06
1.09043e-06
1.0612e-06
1.08644e-06
1.07621e-06
1.05915e-06
1.07683e-06
1.08812e-06
1.0596e-06
1.08844e-06
1.07181e-06
1.06195e-06
1.08602e-06
1.06679e-06
1.08041e-06
1.01237e-06
1.08705e-06
1.0237e-06
1.10671e-06
1.08864e-06
0.00114542
0.00114529
0.00112023
0.00111396
0.00111594
0.00112036
0.00110961
0.00110969
0.00112517
0.00108853
0.00107684
0.00112733
0.00109394
0.00107414
0.000704477
0.000305814
0.00110427
0.00103397
0.000820165
0.00111446
0.000958647
0.000240383
0.00107245
0.00083526
0.000332333
0.00100577
0.00108534
0.00111964
0.00109027
0.00111634
1.14559e-06
1.14393e-06
1.13696e-06
1.12929e-06
1.13269e-06
1.12253e-06
1.12256e-06
1.06196e-06
1.06706e-06
1.10196e-06
1.0761e-06
1.08684e-06
1.09333e-06
1.06868e-06
1.08637e-06
1.09093e-06
1.06773e-06
1.10266e-06
1.0751e-06
1.10687e-06
1.0868e-06
1.1214e-06
1.10179e-06
1.11672e-06
1.09856e-06
1.13214e-06
1.10671e-06
1.05705e-06
1.03787e-06
1.06461e-06
1.03203e-06
0.00114441
0.00114455
0.00111537
0.00111997
0.00111082
0.00112012
0.00112121
0.00112128
0.00107947
0.0011059
0.00111464
0.00111397
0.00109014
0.00107673
0.00104065
0.00103277
0.00110799
0.00108724
0.0011119
0.00111864
0.00108547
0.00108707
0.00104568
0.00103202
0.00111117
0.00108688
0.00104595
0.00107286
0.00108148
0.00111039
0.00106632
0.0011006
1.14559e-06
1.14533e-06
1.12912e-06
1.11682e-06
1.11947e-06
1.12893e-06
1.12758e-06
1.13031e-06
1.11221e-06
1.08074e-06
1.09381e-06
1.1105e-06
1.0833e-06
1.09205e-06
1.13644e-06
1.14039e-06
1.11197e-06
1.10328e-06
1.12168e-06
1.10126e-06
1.1195e-06
1.08558e-06
1.1217e-06
1.07769e-06
1.11379e-06
1.1022e-06
1.12381e-06
1.07891e-06
1.12709e-06
1.10005e-06
0.00114114
0.00113543
0.00111414
0.00104856
0.00105377
0.00112985
0.00110975
0.00104849
0.00105547
0.00113021
0.00113402
0.00113364
0.00108781
0.001077
0.00108096
0.00111446
0.00111093
0.00107473
0.00108944
0.0010742
0.00107302
0.001114
0.00111902
0.001075
0.00112161
0.000969738
0.00109413
0.000924829
1.1453e-06
1.14136e-06
1.1161e-06
1.13028e-06
1.13301e-06
1.13459e-06
1.11753e-06
1.12835e-06
1.07071e-06
1.07705e-06
1.11135e-06
1.07336e-06
1.10815e-06
1.10089e-06
1.04403e-06
1.0888e-06
1.07432e-06
1.06697e-06
1.10984e-06
1.07179e-06
1.10612e-06
1.09473e-06
1.05138e-06
1.08522e-06
1.10952e-06
1.11573e-06
1.07541e-06
1.10002e-06
1.11654e-06
1.08664e-06
1.12157e-06
1.10797e-06
0.00113766
0.0011099
0.0011251
0.00112535
0.00111139
0.00111196
0.00111257
0.00105177
0.0010608
0.00105084
0.00104851
0.00105684
0.0010396
0.00106192
0.00104795
0.00111655
0.00107853
0.00105646
0.00105561
0.00105995
0.00105423
0.00104968
0.00105896
0.00104038
0.00106752
0.00105046
0.00111623
0.0010815
0.00105638
0.00108753
0.00105732
0.00108212
0.0010503
0.00105797
0.00105753
0.00108681
0.00105048
1.14089e-06
1.13643e-06
1.11488e-06
1.1098e-06
1.08939e-06
1.08581e-06
1.11486e-06
1.08999e-06
1.08898e-06
1.1258e-06
1.11582e-06
1.12557e-06
1.09854e-06
1.11445e-06
1.1065e-06
1.07619e-06
1.08877e-06
1.10992e-06
1.10218e-06
1.11648e-06
1.11256e-06
1.1049e-06
1.08386e-06
1.11196e-06
1.04357e-06
1.14021e-06
1.06039e-06
1.14286e-06
0.00113558
0.00111294
0.00110902
0.00111321
0.0011106
0.00111859
0.0011204
0.00098568
0.00107495
0.001057
0.00101289
0.0010835
0.00107082
0.0010613
0.00107654
0.00101701
0.00109081
0.00102666
0.0010342
0.00106645
0.00102644
0.000999383
0.00108792
0.00101362
0.00106148
0.00109208
0.00107696
0.00107409
0.00105957