/*--------------------------------*- C++ -*----------------------------------*\
| =========                 |                                                 |
| \\      /  F ield         | OpenFOAM: The Open Source CFD Toolbox           |
|  \\    /   O peration     | Version:  5.x                                   |
|   \\  /    A nd           | Web:      www.OpenFOAM.org                      |
|    \\/     M anipulation  |                                                 |
\*---------------------------------------------------------------------------*/
FoamFile
{
    version     2.0;
    format      ascii;
    class       volVectorField;
    location    "0.8";
    object      U;
}
// * * * * * * * * * * * * * * * * * * * * * * * * * * * * * * * * * * * * * //

dimensions      [0 1 -1 0 0 0 0];

internalField   nonuniform List<vector> 
12160
(
(0.210716 0 0.00201791)
(0.221531 0 0.00325458)
(0.21028 0 -0.00249168)
(0.211649 0 0.00324698)
(0.220484 0 -0.00242395)
(0.209207 0 0.00231555)
(0.21279 0 0.00218833)
(0.210525 0 -0.00107456)
(0.219214 0 0.00507955)
(0.207223 0 -0.00148323)
(0.20619 0 0.00186942)
(0.212261 0 -0.000131551)
(0.210585 0 0.00617686)
(0.214644 0 -0.0024681)
(0.204404 0 0.00676947)
(0.202621 0 0.00215608)
(0.206278 0 0.00148109)
(0.213307 0 0.00489616)
(0.205921 0 -0.00100793)
(0.211078 0 0.00808327)
(0.199346 0 0.00433558)
(0.190479 0 0.00291969)
(0.203186 0 0.00440213)
(0.20799 0 0.00567779)
(0.210883 0 -4.11335e-05)
(0.205405 0 0.00789996)
(0.200243 0 -0.00336609)
(0.195383 0 0.0221557)
(0.17712 0 0.00372718)
(0.191246 0 0.00764453)
(0.205122 0 0.00936597)
(0.207753 0 0.00289139)
(0.213057 0 0.00613922)
(0.195916 0 -0.00396515)
(0.194035 0 0.0112473)
(0.18377 0 0.0192965)
(0.159288 0 0.00430943)
(0.177795 0 0.0104591)
(0.193125 0 0.0142172)
(0.206618 0 0.0096442)
(0.211799 0 0.00781043)
(0.208239 0 -0.00378443)
(0.19499 0 0.00483816)
(0.167225 0 -0.00405847)
(0.117558 0 0.0588883)
(0.140353 0 0.00457976)
(0.159725 0 0.0123934)
(0.179239 0 0.0185803)
(0.195189 0 0.0174455)
(0.211112 0 0.0161777)
(0.211054 0 0.000643039)
(0.211505 0 0.00142291)
(0.174934 0 -0.0112761)
(0.133011 0 0.0140631)
(-0.381279 0 -0.094889)
(0.121154 0 0.00456493)
(0.140511 0 0.0132894)
(0.16059 0 0.0215727)
(0.181007 0 0.0243072)
(0.199466 0 0.0265539)
(0.214101 0 0.0132016)
(0.216994 0 0.00558274)
(0.206214 0 -0.0145188)
(0.180883 0 -0.00881372)
(-0.0693299 0 -0.032445)
(-0.146947 0 0.215789)
(0.102842 0 0.00433581)
(0.121076 0 0.0132807)
(0.140779 0 0.0228852)
(0.161647 0 0.0289786)
(0.184332 0 0.0355202)
(0.203469 0 0.0269915)
(0.220819 0 0.0204296)
(0.21786 0 -0.00653048)
(0.239374 0 -0.0145947)
(0.0930984 0 -0.053628)
(0.0692626 0 -0.171418)
(0.126192 0 -0.020473)
(0.0860628 0 0.00395753)
(0.102594 0 0.0126183)
(0.120853 0 0.0227184)
(0.141017 0 0.0310705)
(0.163637 0 0.0414502)
(0.187546 0 0.038714)
(0.20967 0 0.0387743)
(0.226705 0 0.0149573)
(0.267336 0 -0.00284013)
(0.282283 0 -0.0526125)
(0.017521 0 -0.135293)
(0.110043 0 -0.107257)
(0.0311452 0 0.0779532)
(0.0711613 0 0.00351429)
(0.0857095 0 0.0115654)
(0.102024 0 0.0214839)
(0.120402 0 0.0309634)
(0.141676 0 0.043827)
(0.165302 0 0.0462748)
(0.19221 0 0.0546656)
(0.217414 0 0.0400253)
(0.288057 0 0.0246978)
(0.400977 0 -0.0302267)
(0.10562 0 -0.145012)
(0.034867 0 -0.090902)
(0.0138095 0 -0.117857)
(0.0774105 0 -0.0100712)
(0.0582331 0 0.00306355)
(0.0707578 0 0.0103199)
(0.084936 0 0.0195984)
(0.10109 0 0.029308)
(0.120009 0 0.043252)
(0.141716 0 0.0491017)
(0.167784 0 0.0649239)
(0.198564 0 0.0593125)
(0.284024 0 0.0542444)
(0.47221 0 0.00657394)
(0.288211 0 -0.0948949)
(0.0426953 0 -0.158693)
(0.0132255 0 -0.100629)
(0.0531101 0 -0.0993411)
(-0.0171275 0 0.0102491)
(0.0471995 0 0.00263717)
(0.0578206 0 0.00902955)
(0.0698973 0 0.0174148)
(0.0837217 0 0.0267328)
(0.0999902 0 0.0406528)
(0.118782 0 0.0482008)
(0.142093 0 0.0685642)
(0.17132 0 0.0693701)
(0.269932 0 0.0761901)
(0.49718 0 0.0469845)
(0.428202 0 -0.0219389)
(0.0165929 0 -0.157658)
(0.00922313 0 -0.133047)
(0.0116098 0 -0.0886943)
(-0.0200134 0 -0.100702)
(0.0378844 0 0.00225337)
(0.0468054 0 0.00779457)
(0.056955 0 0.0151853)
(0.0685681 0 0.0237433)
(0.0822209 0 0.0368898)
(0.0979368 0 0.0449066)
(0.117632 0 0.0673528)
(0.142814 0 0.0708051)
(0.247042 0 0.0878979)
(0.494707 0 0.0786722)
(0.485114 0 0.0332055)
(0.026115 0 -0.0787179)
(-0.0384361 0 -0.102027)
(-0.000192208 0 -0.132899)
(0.000956806 0 -0.0909754)
(0.0300622 0 0.00192082)
(0.0375257 0 0.00667421)
(0.0459878 0 0.0130709)
(0.0556284 0 0.020692)
(0.0669012 0 0.0326325)
(0.0797303 0 0.0403499)
(0.0959195 0 0.063042)
(0.116269 0 0.0667854)
(0.223825 0 0.0906298)
(0.473205 0 0.0952028)
(0.472118 0 0.0815406)
(0.0410251 0 0.0281461)
(-0.0616199 0 -0.0490984)
(-0.0287981 0 -0.10986)
(0.000343848 0 -0.124466)
(0.023495 0 0.00164273)
(0.0297488 0 0.00569827)
(0.0367881 0 0.0111647)
(0.044741 0 0.0178012)
(0.0539568 0 0.0283407)
(0.0642671 0 0.0353504)
(0.0773398 0 0.0570441)
(0.0931063 0 0.0599223)
(0.203334 0 0.0873219)
(0.445067 0 0.0976991)
(0.396109 0 0.115963)
(0.0372063 0 0.12117)
(-0.0646406 0 0.0270595)
(-0.0430146 0 -0.0529558)
(-0.00998403 0 -0.0974483)
(0.0179483 0 0.00141863)
(0.0232317 0 0.00487926)
(0.0291085 0 0.00951181)
(0.035667 0 0.0151979)
(0.0431675 0 0.0243029)
(0.0513811 0 0.0304327)
(0.0618286 0 0.0503612)
(0.0736452 0 0.0520287)
(0.186197 0 0.0804648)
(0.4134 0 0.092548)
(0.285501 0 0.127873)
(0.0276201 0 0.167785)
(-0.0459896 0 0.098113)
(-0.047484 0 0.0265343)
(-0.0147207 0 -0.0481183)
(0.0132007 0 0.00124507)
(0.0177361 0 0.00421755)
(0.0226954 0 0.00812944)
(0.028137 0 0.0129433)
(0.0342514 0 0.0206825)
(0.0407785 0 0.0258991)
(0.049084 0 0.0436695)
(0.0577111 0 0.0441931)
(0.17198 0 0.0719056)
(0.37301 0 0.0839697)
(0.190435 0 0.130039)
(0.0297538 0 0.166596)
(-0.0195237 0 0.139034)
(-0.033368 0 0.0937877)
(-0.0154645 0 0.0245066)
(0.00905077 0 0.00112063)
(0.0130386 0 0.00371012)
(0.0173045 0 0.0070156)
(0.0218829 0 0.0110593)
(0.0269102 0 0.0175573)
(0.0321227 0 0.0219023)
(0.0387199 0 0.0373915)
(0.044895 0 0.0370018)
(0.160069 0 0.0628262)
(0.322689 0 0.0742013)
(0.126485 0 0.127859)
(0.0323411 0 0.145861)
(0.00253664 0 0.148377)
(-0.0136852 0 0.132397)
(-0.0102084 0 0.0872148)
(0.00531575 0 0.00104407)
(0.00893755 0 0.00334706)
(0.01271 0 0.00616021)
(0.0166522 0 0.00954246)
(0.0208571 0 0.0149522)
(0.0250777 0 0.0184994)
(0.030342 0 0.031769)
(0.0347119 0 0.0307152)
(0.149986 0 0.0539917)
(0.267264 0 0.0647669)
(0.0868225 0 0.120001)
(0.0311486 0 0.126046)
(0.0135368 0 0.141529)
(0.00137252 0 0.142493)
(-0.00374245 0 0.125813)
(0.0018328 0 0.0010104)
(0.00525106 0 0.00311811)
(0.00870984 0 0.00554788)
(0.0122147 0 0.00837828)
(0.0158286 0 0.0128589)
(0.0193324 0 0.0156938)
(0.0235818 0 0.0269178)
(0.0266832 0 0.0254045)
(0.141188 0 0.0458618)
(0.210575 0 0.0563042)
(0.0617291 0 0.109641)
(0.0285442 0 0.109489)
(0.0178749 0 0.128706)
(0.00878074 0 0.138108)
(0.00123306 0 0.138163)
(-0.00154374 0 0.00101714)
(0.00181633 0 0.00301664)
(0.00512189 0 0.00516367)
(0.008367 0 0.00754509)
(0.0115896 0 0.0112537)
(0.0146093 0 0.0134582)
(0.0181117 0 0.0228748)
(0.0203731 0 0.021037)
(0.133052 0 0.0386794)
(0.158401 0 0.0488331)
(0.0454278 0 0.0966027)
(0.0265085 0 0.0952884)
(0.0186647 0 0.115069)
(0.0116954 0 0.12707)
(0.00364322 0 0.135992)
(-0.00494736 0 0.00106296)
(-0.001512 0 0.00303633)
(0.00178382 0 0.0049929)
(0.00492733 0 0.00702198)
(0.0079347 0 0.010105)
(0.0106664 0 0.0117544)
(0.0136476 0 0.0196263)
(0.0154051 0 0.0175351)
(0.124868 0 0.032545)
(0.115278 0 0.0425358)
(0.0344697 0 0.08155)
(0.0248769 0 0.0826178)
(0.0182529 0 0.101506)
(0.0121805 0 0.114124)
(0.00453225 0 0.126355)
(-0.00850198 0 0.00114701)
(-0.0048673 0 0.0031733)
(-0.00144844 0 0.00502475)
(0.00173453 0 0.00678973)
(0.00468273 0 0.00938257)
(0.00729637 0 0.0105402)
(0.00994651 0 0.0171347)
(0.0114618 0 0.0148055)
(0.115707 0 0.0274766)
(0.0806522 0 0.0378938)
(0.026504 0 0.0667936)
(0.0229141 0 0.0710365)
(0.0173761 0 0.0880523)
(0.0117926 0 0.100949)
(0.0045848 0 0.114092)
(-0.0123198 0 0.00127099)
(-0.00837355 0 0.00342494)
(-0.00470751 0 0.00525251)
(-0.0013537 0 0.00683403)
(0.00167385 0 0.00905869)
(0.00431879 0 0.00977849)
(0.00680323 0 0.0153506)
(0.00828035 0 0.0127578)
(0.104467 0 0.0234306)
(0.0554012 0 0.0350178)
(0.0208838 0 0.0533872)
(0.0201779 0 0.0607871)
(0.0160361 0 0.0750791)
(0.0110559 0 0.0880585)
(0.00433683 0 0.101145)
(-0.0165082 0 0.00143332)
(-0.0121431 0 0.00378768)
(-0.00811655 0 0.00567194)
(-0.0044683 0 0.00714551)
(-0.00123181 0 0.009113)
(0.00157675 0 0.00943774)
(0.00404136 0 0.0142275)
(0.00564614 0 0.0113131)
(0.0899199 0 0.0203435)
(0.0378534 0 0.0343657)
(0.0157047 0 0.0424293)
(0.0167096 0 0.0523709)
(0.0141432 0 0.0632968)
(0.0100619 0 0.0758271)
(0.00397607 0 0.088325)
(-0.0211652 0 0.00163078)
(-0.0162829 0 0.00426083)
(-0.0117871 0 0.00628061)
(-0.00773112 0 0.00771838)
(-0.00416307 0 0.00953241)
(-0.00106504 0 0.00949587)
(0.00150834 0 0.0137211)
(0.0033793 0 0.0104094)
(0.0710191 0 0.0181459)
(0.0257796 0 0.0360272)
(0.0104764 0 0.0347461)
(0.0128945 0 0.0456831)
(0.0117467 0 0.0533389)
(0.00879344 0 0.0647243)
(0.00354574 0 0.0761485)
(-0.0263796 0 0.00186325)
(-0.0208904 0 0.00484346)
(-0.0158261 0 0.0070758)
(-0.0112525 0 0.00854869)
(-0.00723996 0 0.010309)
(-0.00373106 0 0.00993873)
(-0.000926687 0 0.013799)
(0.00132862 0 0.00999777)
(0.0473798 0 0.0167666)
(0.0171721 0 0.0391498)
(0.00563032 0 0.0299919)
(0.00925005 0 0.0409104)
(0.00902843 0 0.0455463)
(0.00727666 0 0.055243)
(0.00304639 0 0.0651023)
(-0.0322295 0 0.00212902)
(-0.0260557 0 0.00552949)
(-0.0203316 0 0.00805301)
(-0.0151389 0 0.00963307)
(-0.0105715 0 0.0114386)
(-0.00653756 0 0.0107591)
(-0.0033841 0 0.0144412)
(-0.000628706 0 0.0100473)
(0.0199369 0 0.016135)
(0.0100406 0 0.0422655)
(0.0019202 0 0.0273566)
(0.00600332 0 0.0384407)
(0.00629364 0 0.0398891)
(0.00562158 0 0.0477245)
(0.00249191 0 0.0556498)
(-0.0387795 0 0.00242513)
(-0.0318579 0 0.00631196)
(-0.0253946 0 0.00920574)
(-0.0194895 0 0.0109665)
(-0.014264 0 0.0129178)
(-0.00959086 0 0.0119545)
(-0.00597624 0 0.0156345)
(-0.00260631 0 0.010541)
(-0.00893081 0 0.0162086)
(0.0038334 0 0.044742)
(-1.56012e-05 0 0.0266536)
(0.00324853 0 0.0379466)
(0.00379998 0 0.0359928)
(0.00402758 0 0.0423133)
(0.00190991 0 0.0481083)
(-0.0460802 0 0.00274783)
(-0.0383643 0 0.00718135)
(-0.0310976 0 0.0105242)
(-0.0243978 0 0.0125404)
(-0.0184178 0 0.0147414)
(-0.0129968 0 0.0135247)
(-0.00880643 0 0.0173741)
(-0.0047109 0 0.0114743)
(-0.0362981 0 0.0169763)
(-0.00225913 0 0.0454521)
(-0.000838549 0 0.0264899)
(0.00128859 0 0.0385129)
(0.00179046 0 0.0337197)
(0.00257195 0 0.0388518)
(0.00134601 0 0.0425823)
(-0.0541647 0 0.00309166)
(-0.0456285 0 0.00812484)
(-0.0375122 0 0.011994)
(-0.0299506 0 0.0143425)
(-0.0231297 0 0.0168999)
(-0.0168578 0 0.0154692)
(-0.0119782 0 0.019656)
(-0.00704269 0 0.0128538)
(-0.0599411 0 0.0184061)
(-0.00863166 0 0.0440911)
(-0.000879102 0 0.0267074)
(2.6181e-06 0 0.0394029)
(0.000456203 0 0.0327225)
(0.0013726 0 0.0370698)
(0.000837079 0 0.0388853)
(-0.0630446 0 0.00344913)
(-0.0536867 0 0.00912441)
(-0.0446968 0 0.0135948)
(-0.0362249 0 0.0163538)
(-0.0284913 0 0.0193783)
(-0.0212744 0 0.0177853)
(-0.0155928 0 0.0224726)
(-0.00970884 0 0.0146925)
(-0.0789817 0 0.0205087)
(-0.0155561 0 0.0416741)
(-0.00131461 0 0.0272467)
(-0.00102492 0 0.0398435)
(-0.000250625 0 0.0324646)
(0.000534746 0 0.0364566)
(0.000428631 0 0.0367683)
(-0.072708 0 0.00381061)
(-0.0625537 0 0.0101565)
(-0.0526934 0 0.0152976)
(-0.0432863 0 0.0185467)
(-0.0345866 0 0.0221522)
(-0.0263449 0 0.0204653)
(-0.0197515 0 0.0258113)
(-0.0128175 0 0.0170076)
(-0.0937567 0 0.023294)
(-0.0235595 0 0.0389157)
(-0.00280312 0 0.0281787)
(-0.0022047 0 0.0397461)
(-0.000654505 0 0.0327044)
(-2.51781e-05 0 0.0364983)
(0.00012909 0 0.0358149)
(-0.0831067 0 0.0041642)
(-0.0722209 0 0.0111906)
(-0.061523 0 0.0170644)
(-0.0511852 0 0.0208824)
(-0.0414901 0 0.0251852)
(-0.0321626 0 0.0234925)
(-0.0245548 0 0.0296493)
(-0.0164808 0 0.0198191)
(-0.105166 0 0.0267579)
(-0.0333191 0 0.0370037)
(-0.00564465 0 0.0303175)
(-0.00390743 0 0.0396264)
(-0.00121181 0 0.0333937)
(-0.000466684 0 0.0368042)
(-4.12266e-05 0 0.0356146)
(-0.094179 0 0.00449575)
(-0.0826434 0 0.0121901)
(-0.0711841 0 0.0188459)
(-0.0599524 0 0.0233088)
(-0.0492631 0 0.0284258)
(-0.038814 0 0.0268381)
(-0.0301015 0 0.0339488)
(-0.0208148 0 0.0231452)
(-0.114213 0 0.03089)
(-0.0462426 0 0.0367313)
(-0.00977136 0 0.0341857)
(-0.00630329 0 0.0401808)
(-0.00227445 0 0.0346846)
(-0.000976596 0 0.0373322)
(-0.00014913 0 0.0358827)
(-0.105722 0 0.00478621)
(-0.0937631 0 0.0131116)
(-0.0816395 0 0.020582)
(-0.0695974 0 0.0257587)
(-0.0579499 0 0.0318053)
(-0.0463753 0 0.0304562)
(-0.0364865 0 0.0386536)
(-0.0259382 0 0.0269975)
(-0.121773 0 0.0356747)
(-0.0633589 0 0.0382614)
(-0.0145307 0 0.0398267)
(-0.00924815 0 0.0420072)
(-0.00395238 0 0.036892)
(-0.00170473 0 0.0383024)
(-0.000289171 0 0.0365867)
(-0.105379 0 0.0139112)
(-0.125594 0 0.00515069)
(-0.0928395 0 0.0222015)
(-0.0800952 0 0.0281501)
(-0.0675745 0 0.0352348)
(-0.0549084 0 0.0342812)
(-0.0437986 0 0.043685)
(-0.0319697 0 0.0313756)
(-0.128533 0 0.0410788)
(-0.0853673 0 0.0412653)
(-0.0193486 0 0.0477949)
(-0.0124305 0 0.0455984)
(-0.00611633 0 0.040326)
(-0.00273538 0 0.0401103)
(-0.000534652 0 0.0378777)
(-0.104591 0 0.0236244)
(-0.125445 0 0.0149656)
(-0.153701 0 0.00522805)
(-0.0914092 0 0.030385)
(-0.0781284 0 0.038606)
(-0.0644571 0 0.0382224)
(-0.052117 0 0.0489395)
(-0.0390244 0 0.0362618)
(-0.135003 0 0.0470425)
(-0.112487 0 0.0453908)
(-0.024067 0 0.0577387)
(-0.0158477 0 0.0507219)
(-0.00860601 0 0.0450163)
(-0.00402449 0 0.0430692)
(-0.000884097 0 0.0400376)
(-0.103348 0 0.0323543)
(-0.125025 0 0.0255235)
(-0.153971 0 0.0151598)
(-0.179272 0 0.00464708)
(-0.0895909 0 0.0417897)
(-0.0750353 0 0.042163)
(-0.0615078 0 0.0542856)
(-0.0472089 0 0.0416122)
(-0.141533 0 0.0534815)
(-0.143625 0 0.0505457)
(-0.0291286 0 0.0689462)
(-0.0192504 0 0.0570194)
(-0.0111152 0 0.0509914)
(-0.00542107 0 0.0474209)
(-0.00132793 0 0.0433159)
(-0.101791 0 0.0446369)
(-0.1243 0 0.0349729)
(-0.154307 0 0.0261198)
(-0.180226 0 0.0134311)
(-0.197916 0 0.00307969)
(-0.0866498 0 0.0459568)
(-0.0720122 0 0.0595664)
(-0.0566145 0 0.0473486)
(-0.148385 0 0.0602863)
(-0.179075 0 0.0564303)
(-0.0354603 0 0.0807918)
(-0.022387 0 0.0643655)
(-0.013603 0 0.0583119)
(-0.00691876 0 0.0531266)
(-0.00184011 0 0.0478646)
(-0.0991392 0 0.049427)
(-0.123465 0 0.0485331)
(-0.154666 0 0.035767)
(-0.181616 0 0.023695)
(-0.200297 0 0.00936646)
(-0.205895 0 -0.00166575)
(-0.0836688 0 0.0645951)
(-0.0673081 0 0.0533545)
(-0.155745 0 0.0673074)
(-0.217337 0 0.0627605)
(-0.0430514 0 0.0929521)
(-0.0251173 0 0.0727096)
(-0.0158549 0 0.0668397)
(-0.00842159 0 0.0601758)
(-0.00237468 0 0.0537109)
(-0.0963812 0 0.0691686)
(-0.121622 0 0.0542596)
(-0.155331 0 0.0503755)
(-0.183544 0 0.0323405)
(-0.203138 0 0.0178851)
(-0.213761 0 0.000263207)
(-0.211229 0 -0.0130487)
(-0.0793436 0 0.0594718)
(-0.163712 0 0.074367)
(-0.256174 0 0.0695325)
(-0.0525754 0 0.104543)
(-0.0274498 0 0.081815)
(-0.0177864 0 0.0763379)
(-0.00983216 0 0.0683854)
(-0.00291424 0 0.0608212)
(-0.0927069 0 0.0655233)
(-0.119665 0 0.0753858)
(-0.155222 0 0.0569277)
(-0.186307 0 0.0468274)
(-0.207362 0 0.0242502)
(-0.217873 0 0.00726834)
(-0.228807 0 -0.0192497)
(-0.113781 0 -0.0159845)
(-0.172412 0 0.0812796)
(-0.293988 0 0.076622)
(-0.0650732 0 0.114937)
(-0.0295414 0 0.0914634)
(-0.0194102 0 0.0865314)
(-0.0110968 0 0.077502)
(-0.00343073 0 0.0690301)
(-0.182338 0 0.0878862)
(-0.117422 0 0.0744186)
(-0.155193 0 0.0790154)
(-0.18863 0 0.0530746)
(-0.212585 0 0.0376331)
(-0.225837 0 0.0107719)
(-0.230859 0 -0.0101835)
(-0.19797 0 -0.0338837)
(-0.160273 0 -0.0997966)
(-0.331707 0 0.0841191)
(-0.0817735 0 0.124892)
(-0.0316319 0 0.101808)
(-0.0207869 0 0.0971424)
(-0.0122229 0 0.0872661)
(-0.00390864 0 0.0781198)
(-0.372826 0 0.0955561)
(-0.20204 0 0.0967989)
(-0.155553 0 0.0824793)
(-0.191393 0 0.0745859)
(-0.217548 0 0.042319)
(-0.23316 0 0.0234408)
(-0.241406 0 -0.00848307)
(-0.222549 0 -0.0242742)
(-0.243876 0 -0.131853)
(0.304382 0 0.0419161)
(-0.104559 0 0.136568)
(-0.0338025 0 0.113269)
(-0.0219106 0 0.108041)
(-0.0132126 0 0.0974687)
(-0.00434785 0 0.0878335)
(-0.13185 0 0.156274)
(-0.418781 0 0.101853)
(-0.228912 0 0.103846)
(-0.195309 0 0.0812794)
(-0.223209 0 0.0614983)
(-0.240251 0 0.0258879)
(-0.248545 0 0.00704829)
(-0.253139 0 -0.0281249)
(-0.274501 0 -0.0895148)
(-0.170415 0 -0.0140391)
(-0.202136 0 0.223862)
(-0.0363786 0 0.12662)
(-0.0226019 0 0.11922)
(-0.0140203 0 0.107951)
(-0.00475269 0 0.0979704)
(-0.0324866 0 0.142277)
(-0.194285 0 0.133124)
(-0.440858 0 0.112128)
(-0.259202 0 0.101388)
(-0.230704 0 0.0686961)
(-0.247886 0 0.0423089)
(-0.256089 0 0.00696376)
(-0.2615 0 -0.00621868)
(-0.299529 0 -0.0712451)
(-0.281918 0 0.029469)
(-0.282082 0 0.0937954)
(-0.101045 0 0.948267)
(-0.0227263 0 0.130664)
(-0.0144844 0 0.118555)
(-0.00509063 0 0.10831)
(-0.0185742 0 0.142655)
(-0.0308681 0 0.154143)
(-0.325815 0 0.130222)
(-0.461531 0 0.109221)
(-0.285953 0 0.0886749)
(-0.257766 0 0.0460343)
(-0.264381 0 0.0214646)
(-0.268976 0 -0.0112174)
(-0.294857 0 -0.0229765)
(-0.341961 0 0.0158964)
(-0.367225 0 0.201157)
(-0.156611 0 0.836792)
(-0.0188008 5.93007e-28 0.884473)
(-0.0128215 0 0.962132)
(-0.0144262 0 0.128974)
(-0.0053089 0 0.11859)
(-0.0122212 0 0.13902)
(-0.0133456 0 0.15004)
(-0.0356691 0 0.178832)
(-0.441151 0 0.115557)
(-0.47159 0 0.0909283)
(-0.304607 0 0.0662789)
(-0.274394 0 0.0174708)
(-0.272187 0 0.00428074)
(-0.282365 0 -0.0223271)
(-0.322056 0 0.0418641)
(-0.36686 0 0.152738)
(-0.264008 0 0.692115)
(-0.0580129 9.63423e-28 0.786612)
(0.0931344 -1.30006e-30 0.875419)
(0.00798738 8.42799e-29 0.930259)
(-0.00665807 0 0.965199)
(-0.00532447 0 0.128384)
(-0.00471859 0 0.137241)
(-0.0090912 0 0.147516)
(-0.00292403 0 0.160211)
(-0.0511211 0 0.170565)
(-0.503172 0 0.0861282)
(-0.469652 0 0.0582969)
(-0.312099 0 0.0372219)
(-0.280591 0 -0.0115988)
(-0.271784 0 -0.00471434)
(-0.284033 0 0.0197629)
(-0.312625 0 0.143916)
(-0.27249 0 0.516146)
(-0.0483656 0 0.656617)
(0.109607 0 0.763772)
(0.203418 5.57925e-27 0.923048)
(0.0756768 -3.57904e-31 0.94778)
(0.00554978 -3.62481e-28 0.96052)
(-0.00573575 0 0.967906)
(-0.00380491 0 0.145891)
(-0.00152282 0 0.155567)
(0.019738 0 0.146575)
(-0.0697468 0 0.122114)
(-0.517126 0 0.0460598)
(-0.453286 0 0.0168665)
(-0.305384 0 0.00496938)
(-0.271706 0 -0.0311279)
(-0.252266 0 0.017874)
(-0.251452 0 0.0882005)
(-0.219447 0 0.364062)
(-0.0147071 0 0.469551)
(0.111399 0 0.618029)
(0.231609 2.56133e-26 0.796054)
(0.350238 -1.74563e-30 0.98155)
(0.152351 1.27648e-27 1.0038)
(0.037136 0 0.995774)
(-0.00684797 0 0.973171)
(-0.0151258 0 0.941865)
(-0.00129275 0 0.151607)
(0.0151887 0 0.140988)
(0.0439764 0 0.103787)
(-0.0693874 0 0.0472703)
(-0.486147 0 0.0027765)
(-0.419359 0 -0.0274831)
(-0.283865 0 -0.0214351)
(-0.240073 0 -0.0304378)
(-0.207478 0 0.0611362)
(-0.14686 0 0.219086)
(0.0107188 0 0.316628)
(0.110609 -3.77835e-27 0.465025)
(0.250344 1.93819e-26 0.666841)
(0.424805 0 0.839412)
(0.490585 2.97707e-25 1.08823)
(0.24069 -4.14257e-31 1.0983)
(0.0815568 -1.08162e-26 1.05377)
(-0.0074636 0 1.00931)
(-0.03629 0 0.962191)
(-0.0181258 0 0.924401)
(0.00437178 0 0.134829)
(0.0347322 0 0.0980693)
(0.063784 0 0.0372544)
(-0.0394969 0 -0.037554)
(-0.413183 0 -0.0486414)
(-0.364484 0 -0.0686866)
(-0.239426 0 -0.0359452)
(-0.182333 0 -0.02131)
(-0.102064 0 0.130571)
(0.0166046 0 0.179375)
(0.113139 -5.93968e-27 0.35547)
(0.257633 0 0.511863)
(0.459176 -1.46244e-25 0.672285)
(0.57485 -5.42009e-25 0.901709)
(0.687932 1.99862e-10 1.09425)
(0.345459 0 1.19635)
(0.125219 0 1.16059)
(0.00965058 -3.12079e-26 1.0755)
(-0.0503195 5.05723e-27 1.00686)
(-0.0641967 0 0.939082)
(-0.0329771 0 0.861231)
(0.0111364 0 0.0915469)
(0.0496502 0 0.0329917)
(0.0774271 0 -0.0364503)
(0.000480431 0 -0.125543)
(-0.304935 0 -0.112172)
(-0.283892 0 -0.0993905)
(-0.175465 0 -0.0408809)
(-0.081492 0 0.00825072)
(0.015288 0 0.102543)
(0.119787 -2.18592e-42 0.230033)
(0.260853 0 0.358775)
(0.477018 2.39453e-25 0.484361)
(0.604876 -1.62071e-24 0.703187)
(0.887763 -1.25609e-09 0.944647)
(0.584249 4.05575e-09 0.798366)
(0.470684 9.76476e-11 1.12558)
(0.574643 8.51379e-10 0.811668)
(0.678711 3.78719e-09 0.851146)
(0.693217 -1.81898e-10 0.85454)
(0.155583 5.46183e-25 1.24233)
(0.0156132 1.7482e-25 1.16871)
(-0.0672553 -2.21752e-26 1.07257)
(-0.106695 1.24335e-26 0.979908)
(-0.0916676 0 0.884236)
(-0.0351174 0 0.812432)
(0.0163612 0 0.0288265)
(0.0561266 0 -0.0404651)
(0.0835741 0 -0.10267)
(0.0297208 0 -0.204312)
(-0.168063 0 -0.165452)
(-0.188425 0 -0.126655)
(-0.0882301 0 -0.0339144)
(0.0133792 0 -0.0176864)
(0.119475 -1.98609e-42 0.141298)
(0.25949 0 0.188954)
(0.467152 0 0.353918)
(0.601542 1.10997e-24 0.487328)
(0.933167 -1.05658e-24 0.736903)
(1.00241 -4.07348e-10 0.689323)
(0.433324 4.91546e-09 0.782839)
(0.61182 6.73269e-10 0.477996)
(0.12988 -1.26698e-09 1.13328)
(0.424987 1.88198e-09 0.778966)
(0.32882 3.89535e-09 0.749363)
(0.309886 1.3084e-09 0.747561)
(0.582049 -4.87244e-09 0.430877)
(0.844999 2.46937e-09 0.497293)
(0.861152 -4.07277e-09 0.498476)
(0.0132327 1.64033e-24 1.22893)
(-0.0920055 -3.02176e-25 1.1614)
(-0.15091 0 1.04608)
(-0.159233 6.9135e-27 0.925957)
(-0.112428 0 0.823233)
(-0.0439623 0 0.731486)
(0.0189301 0 -0.041476)
(0.0559223 0 -0.111077)
(0.0827852 0 -0.159065)
(0.0454773 0 -0.268075)
(-0.0122661 0 -0.211425)
(-0.0693795 0 -0.139752)
(-0.00659545 0 -0.0530264)
(0.116309 -1.75204e-27 -0.00569113)
(0.253599 2.02426e-27 0.0852693)
(0.443829 9.14786e-26 0.21221)
(0.580867 0 0.301531)
(0.921645 -1.18225e-24 0.512252)
(1.03558 -4.45585e-09 0.561762)
(0.911287 -7.82881e-09 0.365115)
(0.941895 5.59433e-09 0.351257)
(1.12674 -6.68068e-10 0.363443)
(1.13899 -1.00649e-09 0.348901)
(0.452786 2.3177e-09 0.36044)
(0.342587 -5.46313e-09 -0.105536)
(-0.0430216 8.0675e-25 0.992881)
(-0.0537201 -3.08947e-10 0.121903)
(0.394389 -1.49905e-09 0.30844)
(0.232809 4.29335e-09 0.128636)
(0.21216 2.73955e-09 0.0214254)
(0.334024 -1.02205e-08 -0.171244)
(0.512053 -2.5328e-09 0.0137915)
(0.531963 -8.01898e-09 -0.002295)
(-0.135304 2.03187e-25 1.1754)
(-0.20965 0 1.11848)
(-0.23976 0 0.985179)
(-0.194296 7.15045e-27 0.84889)
(-0.130306 0 0.745755)
(-0.0471365 0 0.65542)
(0.0194605 0 -0.108647)
(0.0504708 0 -0.175015)
(0.0787871 0 -0.202952)
(0.0473291 0 -0.31018)
(0.111679 0 -0.250788)
(0.0541521 0 -0.166164)
(0.0851171 0 -0.0577841)
(0.237667 1.78012e-27 -0.0516266)
(0.389561 0 0.112759)
(0.556207 1.79007e-25 0.152853)
(0.800742 1.70956e-24 0.30726)
(1.03394 -2.02737e-09 0.413859)
(1.16462 -1.13799e-09 0.320911)
(1.17 -7.0003e-10 0.318697)
(1.20943 1.39706e-10 0.278502)
(1.20542 -2.00811e-10 0.272218)
(0.667733 -6.58235e-09 -0.139291)
(0.690855 3.2965e-09 -0.134475)
(1.09232 -9.39679e-10 0.0272113)
(1.10564 6.34217e-10 0.0312008)
(-0.0133138 -1.54565e-09 -0.34533)
(0.622976 1.50543e-08 -0.327192)
(-0.463735 2.5625e-08 -0.670549)
(0.588012 1.0377e-08 -0.353166)
(-0.325366 2.82039e-09 -0.566112)
(-0.21332 3.44091e-24 0.902702)
(-0.207595 -1.84309e-09 0.0661223)
(-0.308182 -4.32691e-10 -0.739619)
(-0.295148 -3.494e-10 -0.740445)
(-0.197365 8.27602e-11 -0.619492)
(-0.19373 -9.00797e-10 -0.64046)
(-0.0738617 -4.93568e-09 -0.419971)
(-0.11325 4.34036e-09 -0.580781)
(-0.117558 5.2338e-11 -0.607879)
(0.617245 -8.14788e-09 -0.386689)
(-0.44182 -1.3983e-08 -0.687653)
(0.572113 -3.27608e-09 -0.415122)
(-0.310293 -2.92737e-09 -0.579491)
(0.723714 1.90288e-08 -0.267145)
(-0.0453608 1.9383e-08 -0.0201355)
(0.747968 1.87299e-08 -0.298032)
(-0.263137 3.27407e-09 -0.413055)
(0.739792 -1.15748e-08 -0.310904)
(0.0399923 -9.84075e-09 -0.016734)
(0.750598 -4.21416e-09 -0.307459)
(-0.213312 -3.37534e-09 -0.414939)
(-0.302609 0 1.11277)
(-0.331853 -9.76286e-26 1.04767)
(-0.289098 0 0.895701)
(-0.220789 7.09762e-27 0.771903)
(-0.143821 0 0.664637)
(-0.0521547 0 0.563621)
(0.0189178 0 -0.168058)
(0.0445935 0 -0.2277)
(0.0639103 0 -0.240842)
(0.0580357 0 -0.321697)
(0.197786 0 -0.28456)
(0.198851 0 -0.194456)
(0.195234 0 -0.0883832)
(0.340175 0 -0.0631062)
(0.554591 2.63205e-25 0.0706783)
(0.699206 1.11673e-24 0.058914)
(1.08035 -5.27025e-10 0.294059)
(1.16752 4.70581e-10 0.238867)
(1.15846 -5.49861e-10 0.23393)
(1.21237 1.45602e-09 0.178)
(1.20466 -5.14242e-10 0.173202)
(1.11391 -5.67786e-09 0.0743542)
(1.12034 7.37243e-10 0.085552)
(1.23994 -7.64904e-09 0.148239)
(1.24537 1.00179e-09 0.15495)
(-0.149194 3.57086e-09 -0.844298)
(-0.0873406 2.96613e-09 -0.388301)
(0.816927 3.28008e-09 -0.405732)
(0.25961 3.04758e-09 -0.616425)
(0.998271 2.68803e-09 -0.446865)
(0.606336 4.52604e-09 -0.66325)
(-0.0465583 -2.57082e-09 -0.35403)
(-0.108248 -1.21011e-09 -0.822643)
(0.827498 -3.16573e-09 -0.406273)
(0.323406 -1.69395e-09 -0.568409)
(1.00978 -2.85385e-09 -0.444629)
(0.613094 -4.95905e-09 -0.660418)
(0.5654 1.79673e-09 -0.303151)
(1.23946 3.25743e-09 -0.311587)
(0.522795 2.07715e-09 -0.386076)
(1.23261 3.39931e-09 -0.353172)
(0.588002 -9.78696e-10 -0.290228)
(1.24414 -9.96801e-10 -0.304712)
(0.544142 -1.38367e-09 -0.371144)
(1.23925 -2.03892e-09 -0.348325)
(0.394152 1.62229e-08 -0.431964)
(-0.606757 2.79941e-08 -0.739737)
(0.458236 1.02979e-08 -0.45272)
(-0.629446 4.0688e-09 -0.783217)
(0.4023 8.61269e-09 -0.614835)
(-0.193254 6.63762e-09 -0.738034)
(0.289543 8.21801e-09 -0.614317)
(-0.148177 4.26199e-09 -0.668499)
(-0.416708 1.42924e-25 0.815252)
(-0.390368 -1.10414e-09 -0.0913972)
(-0.277182 -3.11444e-09 -0.903761)
(-0.254057 -3.11227e-09 -0.91703)
(-0.320577 -1.92883e-09 -0.839936)
(-0.289029 -1.86017e-09 -0.84059)
(-0.524596 -3.16332e-09 -1.04009)
(-0.495709 -3.38859e-09 -1.05385)
(-0.481106 6.33141e-09 -1.0015)
(-0.434739 -1.01619e-08 -0.999118)
(0.375064 -1.05776e-08 -0.495184)
(-0.552006 -1.49404e-08 -0.753866)
(0.437343 -4.11459e-09 -0.5181)
(-0.602027 -4.23936e-09 -0.793244)
(0.37748 2.23975e-08 -0.529807)
(-0.59478 4.2048e-08 -1.01765)
(0.454412 2.42729e-08 -0.243202)
(-0.58331 6.35444e-09 -0.84431)
(0.366895 -1.62532e-08 -0.569815)
(-0.546798 -2.1784e-08 -1.02441)
(0.445581 -1.57439e-08 -0.28807)
(-0.574114 -6.40201e-09 -0.84384)
(0.417058 -1.27664e-08 -0.639537)
(-0.184064 -6.39373e-09 -0.751218)
(0.294442 -1.28125e-08 -0.653483)
(-0.143639 -5.00179e-09 -0.671681)
(0.539694 6.54858e-09 -0.617651)
(-0.13949 3.43999e-09 -0.555493)
(0.547517 -9.08664e-09 -0.630977)
(-0.122217 -3.66286e-09 -0.555539)
(-0.416923 -2.90366e-25 1.03763)
(-0.401091 0 0.9518)
(-0.316787 0 0.805749)
(-0.244612 0 0.683635)
(-0.157526 0 0.572123)
(-0.0547444 0 0.469305)
(0.0179626 0 -0.216004)
(0.0387571 0 -0.270103)
(0.0612406 0 -0.265175)
(0.0625473 0 -0.344472)
(0.284745 0 -0.370093)
(0.406458 0 -0.239087)
(0.303395 0 -0.117937)
(0.50876 0 -0.100647)
(0.656782 2.55632e-25 -0.0897644)
(0.997802 -4.33437e-10 0.122098)
(1.12926 1.24957e-09 0.160526)
(1.12712 -4.67208e-10 0.160769)
(1.15552 2.05858e-09 0.106979)
(1.14377 1.28399e-10 0.112308)
(1.22182 -7.38375e-09 0.0997981)
(1.23158 2.62305e-09 0.0999427)
(1.21841 -7.32475e-09 0.113438)
(1.22314 3.50386e-09 0.107766)
(0.551106 1.37105e-09 -0.252326)
(1.32181 2.08256e-09 -0.242467)
(0.675126 2.04606e-09 -0.207001)
(1.37174 3.42471e-09 -0.229915)
(0.570906 -5.95372e-10 -0.244206)
(1.31803 -9.41401e-10 -0.234029)
(0.729993 -7.55141e-10 -0.201423)
(1.3709 -1.53052e-09 -0.223515)
(0.81028 1.75965e-09 -0.0313873)
(1.53274 3.52531e-09 -0.140229)
(0.842127 2.16268e-09 -0.120736)
(1.50024 3.57542e-09 -0.144096)
(0.854446 -3.65209e-10 -0.0224354)
(1.52995 6.85237e-11 -0.135048)
(0.897132 -7.96235e-10 -0.1161)
(1.50468 -1.22374e-09 -0.141009)
(-0.258029 2.20028e-09 -0.853298)
(0.107344 7.39309e-11 -0.938505)
(0.787683 8.60441e-10 -0.423528)
(0.549452 2.92346e-09 -0.570523)
(0.207266 3.01783e-10 -0.880405)
(0.97523 9.32508e-10 -0.455662)
(-0.226218 -1.76097e-09 -0.852834)
(0.133136 -5.44226e-11 -0.938549)
(0.56707 -3.65336e-09 -0.577787)
(0.799126 4.68578e-10 -0.422944)
(0.254716 -4.48313e-10 -0.844429)
(0.987843 2.89509e-10 -0.452073)
(0.458714 2.68095e-10 -0.559967)
(1.17959 5.89066e-10 -0.341341)
(0.397379 4.1448e-10 -0.665099)
(1.15737 6.51233e-10 -0.386611)
(0.481712 -4.17744e-10 -0.545444)
(1.18074 -5.15816e-10 -0.335626)
(0.427432 -4.49893e-10 -0.634764)
(1.16341 -4.07682e-10 -0.381133)
(-0.0297599 1.36254e-08 -0.697675)
(-0.25782 7.69959e-09 -0.792958)
(0.137454 9.71308e-09 -0.661958)
(-0.288358 6.96464e-09 -0.84656)
(0.232409 2.25604e-09 -0.591024)
(-0.188842 1.5711e-09 -0.844179)
(0.120674 2.29035e-09 -0.613356)
(-0.181155 1.41616e-09 -0.815399)
(-0.496769 0 0.775548)
(-0.482402 -1.02141e-09 -0.090616)
(-0.325238 -3.86176e-09 -0.936986)
(-0.317268 -3.68009e-09 -0.96379)
(-0.280717 -3.89928e-09 -0.93126)
(-0.260727 -3.92828e-09 -0.954828)
(-0.479589 -9.43909e-10 -1.10592)
(-0.440471 -2.87692e-10 -1.13396)
(-0.504161 -6.87625e-10 -1.06221)
(-0.475229 -9.91969e-10 -1.08622)
(-0.643437 1.5264e-08 -1.23066)
(-0.16373 1.77043e-08 -1.11655)
(-0.655873 1.1204e-08 -1.24728)
(-0.220572 1.54134e-08 -1.13943)
(-0.618534 -9.19724e-09 -1.25352)
(-0.160907 -1.75864e-08 -1.17362)
(-0.626729 -7.98093e-09 -1.25469)
(-0.200644 -1.68775e-08 -1.17957)
(-0.490798 1.02322e-08 -1.26733)
(-0.409456 1.63142e-08 -1.16926)
(-0.390601 1.25844e-08 -1.17215)
(-0.66162 1.08379e-08 -1.25722)
(-0.316293 1.37622e-08 -1.14616)
(-0.184553 2.30527e-08 -0.657676)
(-0.451658 -6.45212e-09 -1.23842)
(-0.376967 -1.30631e-08 -1.15859)
(-0.346217 -1.41009e-08 -1.18321)
(-0.62713 -7.32684e-09 -1.25342)
(-0.280035 -1.55308e-08 -1.16954)
(-0.152626 -2.52575e-08 -0.660154)
(-0.0255626 -1.76436e-08 -0.720848)
(-0.237019 -7.29783e-09 -0.799138)
(0.137449 -1.44887e-08 -0.702308)
(-0.275804 -7.59469e-09 -0.848686)
(-0.171683 1.70272e-08 -0.785198)
(-0.312009 9.00837e-09 -0.923462)
(-0.148995 -1.96011e-08 -0.792734)
(-0.297021 -9.10262e-09 -0.917832)
(0.239161 -3.51813e-09 -0.64032)
(-0.177107 -1.8558e-09 -0.837377)
(0.145254 -3.33854e-09 -0.63786)
(-0.180932 -2.03171e-09 -0.814245)
(0.379252 2.70469e-09 -0.588098)
(-0.221332 1.69831e-09 -0.80132)
(0.381413 -3.70513e-09 -0.606925)