/*--------------------------------*- C++ -*----------------------------------*\
| =========                 |                                                 |
| \\      /  F ield         | OpenFOAM: The Open Source CFD Toolbox           |
|  \\    /   O peration     | Version:  5.x                                   |
|   \\  /    A nd           | Web:      www.OpenFOAM.org                      |
|    \\/     M anipulation  |                                                 |
\*---------------------------------------------------------------------------*/
FoamFile
{
    version     2.0;
    format      ascii;
    class       surfaceVectorField;
    location    "0.8";
    object      Uf;
}
// * * * * * * * * * * * * * * * * * * * * * * * * * * * * * * * * * * * * * //

dimensions      [0 1 -1 0 0 0 0];

internalField   nonuniform List<vector> 
30582
(
(0.21636 0 0.00264174)
(0.210498 0 -0.000199516)
(0.215137 0 0.00325075)
(0.221008 0 0.000489605)
(0.215704 0 -0.00245751)
(0.209743 0 -0.000130281)
(0.212149 0 0.00271295)
(0.211087 0 0.00121642)
(0.214008 0 -0.00174325)
(0.219849 0 0.0011682)
(0.214281 0 0.00370984)
(0.208215 0 0.000519561)
(0.209346 0 0.00202746)
(0.212526 0 0.00116196)
(0.21135 0 -0.000598871)
(0.210555 0 0.00229848)
(0.213416 0 0.00563309)
(0.216929 0 0.00151437)
(0.211232 0 -0.00198004)
(0.205814 0 0.00240006)
(0.205066 0 0.00201403)
(0.206234 0 0.00180583)
(0.209028 0 0.000681924)
(0.212784 0 0.00212436)
(0.211911 0 0.00553083)
(0.208253 0 0.00291152)
(0.208726 0 -0.00173152)
(0.212861 0 0.00251695)
(0.207102 0 0.00743221)
(0.201875 0 0.00594667)
(0.197135 0 0.00254128)
(0.202903 0 0.00340641)
(0.205396 0 0.00295461)
(0.207134 0 0.00333842)
(0.210304 0 0.00529044)
(0.212095 0 0.00279028)
(0.208312 0 -0.000520244)
(0.205663 0 0.00307993)
(0.206787 0 0.0079908)
(0.205661 0 0.00264282)
(0.199155 0 0.00045051)
(0.197364 0 0.0126702)
(0.184836 0 0.00332703)
(0.190862 0 0.00537699)
(0.197833 0 0.00603771)
(0.204154 0 0.00665479)
(0.207233 0 0.0075383)
(0.207871 0 0.00463409)
(0.208645 0 0.00143814)
(0.21197 0 0.00265226)
(0.208831 0 0.00701178)
(0.20066 0 0.00224768)
(0.196671 0 -0.00366828)
(0.197139 0 0.00363671)
(0.193831 0 0.016653)
(0.189577 0 0.0215507)
(0.168806 0 0.00402089)
(0.177457 0 0.00713373)
(0.185587 0 0.00906434)
(0.192186 0 0.0107305)
(0.199783 0 0.0118131)
(0.20587 0 0.00985455)
(0.207911 0 0.00629787)
(0.209776 0 0.00494404)
(0.211679 0 0.00698224)
(0.210648 0 0.0014719)
(0.20136 0 -0.00387399)
(0.195453 0 0.000338187)
(0.193477 0 0.00801421)
(0.18063 0 0.00377854)
(0.174751 0 0.00751519)
(0.150665 0 0.0380046)
(0.150372 0 0.00444579)
(0.159507 0 0.0083509)
(0.169384 0 0.0114348)
(0.178517 0 0.0143448)
(0.187292 0 0.0164182)
(0.194157 0 0.0161916)
(0.20166 0 0.0135794)
(0.208865 0 0.0125391)
(0.212134 0 0.0120313)
(0.211426 0 0.00475191)
(0.208306 0 -0.00155105)
(0.209872 0 -0.001407)
(0.201566 0 0.00311538)
(0.184962 0 -0.002956)
(0.170989 0 -0.00769938)
(0.150118 0 0.00528334)
(0.124965 0 0.0362765)
(-0.13186 0 -0.0194749)
(0.131036 0 0.00457228)
(0.140432 0 0.00891601)
(0.150673 0 0.0128454)
(0.160157 0 0.0168275)
(0.170569 0 0.0200898)
(0.180123 0 0.021787)
(0.189287 0 0.0209069)
(0.197328 0 0.0216012)
(0.206117 0 0.0214118)
(0.212607 0 0.0151235)
(0.213417 0 0.00697823)
(0.214024 0 0.00259554)
(0.212924 0 0.00352128)
(0.208859 0 -0.00611455)
(0.188114 0 -0.0129118)
(0.177908 0 -0.0099294)
(0.158935 0 0.0025229)
(0.0318403 0 -0.00830552)
(-0.228804 0 -0.0633894)
(-0.264112 0 0.0700667)
(0.11208 0 0.00444935)
(0.121115 0 0.00889857)
(0.13107 0 0.013285)
(0.140645 0 0.0179548)
(0.151241 0 0.0222347)
(0.161119 0 0.0255836)
(0.17204 0 0.0266637)
(0.182669 0 0.0294625)
(0.193191 0 0.0310769)
(0.201468 0 0.0272524)
(0.20976 0 0.0201577)
(0.21746 0 0.0166938)
(0.219968 0 0.0130723)
(0.217427 0 -0.000376565)
(0.21069 0 -0.0104892)
(0.222794 0 -0.015472)
(0.20704 0 -0.0117299)
(0.136991 0 -0.0295178)
(0.0137733 0 -0.0431307)
(-3.31382e-05 0 -0.105341)
(-0.036619 0 0.0204645)
(-0.0103781 0 0.0844532)
(0.0943872 0 0.004145)
(0.102718 0 0.00845392)
(0.111906 0 0.0129466)
(0.120965 0 0.0178944)
(0.131076 0 0.022801)
(0.140898 0 0.027253)
(0.151896 0 0.0300338)
(0.162642 0 0.0347093)
(0.174771 0 0.0385115)
(0.185939 0 0.0376601)
(0.196928 0 0.0329049)
(0.206569 0 0.0328625)
(0.216238 0 0.0296833)
(0.223762 0 0.018296)
(0.222883 0 0.00430909)
(0.242598 0 -0.00552088)
(0.251427 0 -0.00866524)
(0.260828 0 -0.0338699)
(0.183944 0 -0.0531158)
(0.0553094 0 -0.0988117)
(0.0412156 0 -0.153195)
(0.0896526 0 -0.136476)
(0.122781 0 -0.0642508)
(0.0786688 0 0.036204)
(0.0784648 0 0.00373394)
(0.0858861 0 0.00774418)
(0.0940768 0 0.0120872)
(0.102309 0 0.0169732)
(0.111486 0 0.0220956)
(0.120627 0 0.0270902)
(0.130947 0 0.0310164)
(0.141346 0 0.0369128)
(0.153221 0 0.0426491)
(0.164469 0 0.0444715)
(0.17731 0 0.042528)
(0.189878 0 0.046391)
(0.202524 0 0.0467907)
(0.213542 0 0.0388579)
(0.223343 0 0.0276025)
(0.257381 0 0.0180987)
(0.279377 0 0.0110515)
(0.334157 0 -0.0173137)
(0.336512 0 -0.0413202)
(0.193951 0 -0.0971082)
(0.0659144 0 -0.140196)
(0.026194 0 -0.108869)
(0.0682775 0 -0.0990068)
(0.0619262 0 -0.114673)
(0.020858 0 -0.0208226)
(0.054278 0 0.0280075)
(0.0645157 0 0.00328691)
(0.0709596 0 0.00690639)
(0.0780793 0 0.0109371)
(0.0853228 0 0.0155249)
(0.0933831 0 0.0205328)
(0.101557 0 0.0256235)
(0.11076 0 0.0301283)
(0.120205 0 0.0365662)
(0.131042 0 0.0435369)
(0.141696 0 0.0471399)
(0.154073 0 0.0477007)
(0.166543 0 0.0549987)
(0.18102 0 0.0598404)
(0.195387 0 0.0559612)
(0.209831 0 0.0497547)
(0.250719 0 0.0447648)
(0.288053 0 0.0396022)
(0.380133 0 0.0143725)
(0.440031 0 -0.0116625)
(0.344594 0 -0.06099)
(0.192086 0 -0.119731)
(0.0741576 0 -0.149405)
(0.0405177 0 -0.125098)
(0.0240463 0 -0.097565)
(0.0129489 0 -0.109167)
(0.03346 0 -0.111509)
(0.0680269 0 -0.0551029)
(0.0301419 0 0.00127554)
(0.0525298 0 0.00284847)
(0.0580269 0 0.0060411)
(0.0641029 0 0.00966899)
(0.0703276 0 0.0138262)
(0.0772464 0 0.0184969)
(0.0843289 0 0.0233733)
(0.0922805 0 0.028009)
(0.10054 0 0.0344536)
(0.109967 0 0.0419409)
(0.119395 0 0.046459)
(0.130402 0 0.0486473)
(0.141904 0 0.0580547)
(0.155487 0 0.0667601)
(0.169552 0 0.0665656)
(0.186205 0 0.064386)
(0.234248 0 0.0664758)
(0.279957 0 0.0653149)
(0.390602 0 0.0483042)
(0.489742 0 0.0269585)
(0.450205 0 -0.00697835)
(0.352792 0 -0.058092)
(0.152403 0 -0.128793)
(0.0312052 0 -0.158171)
(0.0259592 0 -0.145545)
(0.0117504 0 -0.116982)
(0.0124177 0 -0.097077)
(0.0304358 0 -0.0939703)
(0.0165486 0 -0.0964725)
(-0.0198877 0 -0.0457196)
(0.0423659 0 0.00244356)
(0.0470024 0 0.00521426)
(0.0521235 0 0.00840659)
(0.0573878 0 0.0120789)
(0.0632295 0 0.0162901)
(0.0692327 0 0.0207662)
(0.0759545 0 0.0252248)
(0.0829713 0 0.0313138)
(0.0909427 0 0.0387546)
(0.0989635 0 0.0435437)
(0.108275 0 0.0465391)
(0.118207 0 0.0568459)
(0.12994 0 0.0679531)
(0.142453 0 0.0698349)
(0.15756 0 0.070094)
(0.209181 0 0.079542)
(0.260527 0 0.0820961)
(0.38232 0 0.0751228)
(0.503535 0 0.0629693)
(0.491147 0 0.0422741)
(0.461421 0 0.00587791)
(0.22716 0 -0.0536339)
(0.0217559 0 -0.117837)
(-0.0109216 0 -0.124807)
(-0.0136213 0 -0.117399)
(0.00451542 0 -0.135029)
(0.00604946 0 -0.110993)
(0.00628335 0 -0.087147)
(-0.00896287 0 -0.0957954)
(0.0338161 0 0.00208562)
(0.037705 0 0.00446488)
(0.0419878 0 0.00722941)
(0.0463966 0 0.010414)
(0.0512754 0 0.0141188)
(0.0562917 0 0.018104)
(0.0618883 0 0.022204)
(0.0677346 0 0.0277305)
(0.0743452 0 0.0347421)
(0.0809756 0 0.0393863)
(0.0886322 0 0.0426081)
(0.0969282 0 0.0529296)
(0.106628 0 0.0651783)
(0.116951 0 0.0677891)
(0.12958 0 0.0687773)
(0.183319 0 0.0827366)
(0.236733 0 0.089276)
(0.360124 0 0.0903215)
(0.490697 0 0.087011)
(0.483413 0 0.0808362)
(0.487369 0 0.0575881)
(0.263071 0 0.0309303)
(0.0351436 0 -0.0248119)
(-0.0177524 0 -0.0593839)
(-0.0493573 0 -0.0753267)
(-0.033617 0 -0.109729)
(-0.0139701 0 -0.121277)
(7.58179e-05 0 -0.126731)
(0.000728707 0 -0.107869)
(0.0266444 0 0.00178054)
(0.0299055 0 0.00381242)
(0.0334792 0 0.0061819)
(0.0371569 0 0.00890817)
(0.0412064 0 0.0121093)
(0.0453644 0 0.0155796)
(0.0499805 0 0.0192338)
(0.0547926 0 0.0241058)
(0.0602028 0 0.0304675)
(0.0655841 0 0.0347325)
(0.0717565 0 0.0378279)
(0.078535 0 0.0475941)
(0.0863856 0 0.0600165)
(0.0945129 0 0.0626018)
(0.104499 0 0.0633234)
(0.159801 0 0.0795625)
(0.214263 0 0.0889611)
(0.334446 0 0.0930975)
(0.462949 0 0.096462)
(0.434657 0 0.102892)
(0.434943 0 0.098905)
(0.254664 0 0.104167)
(0.0378777 0 0.0750719)
(-0.0118078 0 0.029735)
(-0.0631119 0 -0.0106816)
(-0.0523172 0 -0.0534762)
(-0.0351559 0 -0.0811547)
(-0.0193911 0 -0.100791)
(-0.00463549 0 -0.110837)
(0.0206109 0 0.00152968)
(0.0233633 0 0.00326491)
(0.0263557 0 0.00528513)
(0.0294287 0 0.00759919)
(0.0327884 0 0.0103309)
(0.0362275 0 0.0133042)
(0.0400178 0 0.016488)
(0.0439542 0 0.0206907)
(0.0483483 0 0.0263039)
(0.052669 0 0.0300806)
(0.057581 0 0.0328696)
(0.0630479 0 0.041751)
(0.0693176 0 0.0536729)
(0.0754925 0 0.0558955)
(0.0830972 0 0.0559406)
(0.139651 0 0.0728281)
(0.19518 0 0.0838629)
(0.308367 0 0.0885207)
(0.430782 0 0.0951006)
(0.365283 0 0.10793)
(0.336161 0 0.121971)
(0.211866 0 0.147642)
(0.0304913 0 0.144685)
(-0.00439165 0 0.107455)
(-0.0567298 0 0.0629024)
(-0.0560622 0 0.0269448)
(-0.0450353 0 -0.0128581)
(-0.0288678 0 -0.0492331)
(-0.012379 0 -0.0725636)
(0.0154868 0 0.00133108)
(0.0178422 0 0.0028225)
(0.0203731 0 0.00454547)
(0.0229635 0 0.00650226)
(0.0257666 0 0.00881448)
(0.0286228 0 0.0113319)
(0.0317399 0 0.0140606)
(0.0349592 0 0.0176272)
(0.0385181 0 0.0224766)
(0.041973 0 0.0257337)
(0.0458559 0 0.0281458)
(0.0502326 0 0.0359903)
(0.0552012 0 0.0469855)
(0.0597698 0 0.0487402)
(0.0653834 0 0.048076)
(0.122812 0 0.0645109)
(0.179358 0 0.0761473)
(0.279603 0 0.0803882)
(0.392682 0 0.0882207)
(0.301916 0 0.106406)
(0.23536 0 0.128965)
(0.157628 0 0.15441)
(0.0287015 0 0.167185)
(0.00404821 0 0.148453)
(-0.0342046 0 0.118755)
(-0.0396788 0 0.0974301)
(-0.0413939 0 0.0604603)
(-0.0314744 0 0.0253528)
(-0.0149512 0 -0.0114837)
(0.0110594 0 0.00118229)
(0.0131196 0 0.0024824)
(0.0152997 0 0.00396158)
(0.0175203 0 0.00561703)
(0.0198891 0 0.00756757)
(0.0222892 0 0.00968275)
(0.0248739 0 0.0119929)
(0.0275236 0 0.0149818)
(0.0304165 0 0.019106)
(0.0331871 0 0.021858)
(0.0362541 0 0.023883)
(0.0397492 0 0.0306597)
(0.0436739 0 0.0405028)
(0.0469895 0 0.0418003)
(0.0510268 0 0.0405654)
(0.10889 0 0.0558482)
(0.166212 0 0.0673255)
(0.247334 0 0.0709048)
(0.345858 0 0.0790422)
(0.249747 0 0.102762)
(0.156913 0 0.128939)
(0.111388 0 0.14323)
(0.0317985 0 0.156136)
(0.0161452 0 0.152981)
(-0.00843849 0 0.143747)
(-0.0166044 0 0.13678)
(-0.0243874 0 0.113264)
(-0.0217883 0 0.0898617)
(-0.0130937 0 0.0561397)
(0.00713674 0 0.00108201)
(0.00899416 0 0.00223896)
(0.0109219 0 0.00352697)
(0.0128743 0 0.004937)
(0.0149198 0 0.00658411)
(0.0169784 0 0.00835426)
(0.0191569 0 0.0102942)
(0.02137 0 0.0127764)
(0.023747 0 0.0162432)
(0.025994 0 0.0185271)
(0.028434 0 0.0201858)
(0.0312324 0 0.0259418)
(0.0343346 0 0.0345552)
(0.0367159 0 0.0354509)
(0.0395611 0 0.0338307)
(0.0974403 0 0.0475792)
(0.155154 0 0.0583696)
(0.213666 0 0.0613231)
(0.291818 0 0.0694421)
(0.204755 0 0.0971883)
(0.105599 0 0.123895)
(0.0788173 0 0.127281)
(0.0326477 0 0.135865)
(0.022939 0 0.142831)
(0.00847251 0 0.144922)
(0.00195458 0 0.145184)
(-0.00614635 0 0.13749)
(-0.00871384 0 0.128517)
(-0.00721358 0 0.106685)
(0.00354579 0 0.00102708)
(0.0052834 0 0.00208625)
(0.00704795 0 0.00323157)
(0.0088237 0 0.00445012)
(0.0106441 0 0.00585132)
(0.0124624 0 0.00733438)
(0.0143466 0 0.0089552)
(0.0162404 0 0.0110039)
(0.0182326 0 0.0138963)
(0.0200947 0 0.0157604)
(0.0220686 0 0.0170842)
(0.0243298 0 0.0219109)
(0.026798 0 0.0293218)
(0.0285126 0 0.0298776)
(0.0304928 0 0.0280362)
(0.0879495 0 0.0401031)
(0.145663 0 0.0498908)
(0.18028 0 0.0523628)
(0.235258 0 0.0604978)
(0.164496 0 0.0893268)
(0.0737152 0 0.114775)
(0.0576836 0 0.112695)
(0.0302009 0 0.117694)
(0.0245118 0 0.12845)
(0.0161839 0 0.135061)
(0.0111588 0 0.139211)
(0.00532608 0 0.140281)
(0.00130279 0 0.139894)
(-0.00125554 0 0.132042)
(0.000132583 0 0.0010138)
(0.00182457 0 0.00201869)
(0.00350537 0 0.00306692)
(0.00518648 0 0.00414438)
(0.00686997 0 0.00535408)
(0.00853842 0 0.00660433)
(0.0102258 0 0.00795798)
(0.0119022 0 0.00964491)
(0.0136231 0 0.0120491)
(0.0152189 0 0.0135429)
(0.0168619 0 0.0145661)
(0.0187221 0 0.0185778)
(0.0207135 0 0.0248783)
(0.0219775 0 0.0251454)
(0.0233605 0 0.0232013)
(0.0798674 0 0.0336022)
(0.137143 0 0.0422386)
(0.149795 0 0.0444741)
(0.181176 0 0.0525356)
(0.128001 0 0.0796213)
(0.0532752 0 0.103064)
(0.0441189 0 0.0994467)
(0.0275434 0 0.102325)
(0.0236044 0 0.113988)
(0.0185624 0 0.121827)
(0.0147852 0 0.127314)
(0.0105303 0 0.13254)
(0.006212 0 0.136768)
(0.0025176 0 0.137068)
(-0.0032427 0 0.00104025)
(-0.00152787 0 0.00203196)
(0.000140411 0 0.00302657)
(0.00180007 0 0.00400884)
(0.00342493 0 0.00507752)
(0.00502461 0 0.00614587)
(0.00660192 0 0.00728122)
(0.00815085 0 0.00867277)
(0.00969807 0 0.0106742)
(0.011128 0 0.0118457)
(0.0125538 0 0.0125987)
(0.0141285 0 0.015916)
(0.015774 0 0.0212361)
(0.0167584 0 0.0212507)
(0.0177555 0 0.0192705)
(0.07262 0 0.0281249)
(0.128941 0 0.0355849)
(0.124165 0 0.0378856)
(0.134228 0 0.0456565)
(0.0964351 0 0.0685592)
(0.0399925 0 0.0890098)
(0.0351524 0 0.086316)
(0.0257231 0 0.0888966)
(0.0223807 0 0.100348)
(0.0185373 0 0.108227)
(0.0154226 0 0.114)
(0.0121143 0 0.12054)
(0.00811387 0 0.126557)
(0.00418588 0 0.131131)
(-0.00670783 0 0.00110536)
(-0.00490733 0 0.00212344)
(-0.00318668 0 0.00310542)
(-0.00148022 0 0.00403489)
(0.000156321 0 0.00500897)
(0.00175918 0 0.00594203)
(0.00330362 0 0.00690482)
(0.00480503 0 0.0080621)
(0.00626435 0 0.00974057)
(0.00761554 0 0.0106326)
(0.00891914 0 0.0111419)
(0.0103065 0 0.0138836)
(0.0117158 0 0.0183694)
(0.0125547 0 0.0181514)
(0.0133296 0 0.0161582)
(0.0655556 0 0.0236457)
(0.120228 0 0.0299883)
(0.10276 0 0.0327565)
(0.0961285 0 0.0401941)
(0.0708908 0 0.057782)
(0.0306769 0 0.0741062)
(0.0286919 0 0.0733383)
(0.0240362 0 0.0767759)
(0.0211265 0 0.0871663)
(0.0178444 0 0.0947193)
(0.0150227 0 0.100691)
(0.0120561 0 0.107478)
(0.00838268 0 0.114028)
(0.00461655 0 0.12017)
(-0.010381 0 0.00120955)
(-0.00843776 0 0.00229134)
(-0.0066035 0 0.00330024)
(-0.00478741 0 0.00421726)
(-0.0030748 0 0.00513964)
(-0.00140107 0 0.00598007)
(0.000179574 0 0.00681208)
(0.00170419 0 0.00778971)
(0.00315173 0 0.00921919)
(0.00450076 0 0.00987043)
(0.00576484 0 0.010156)
(0.0070498 0 0.0124331)
(0.00831494 0 0.0162347)
(0.00911342 0 0.0157904)
(0.00979295 0 0.0137725)
(0.0579642 0 0.0200994)
(0.110003 0 0.0254356)
(0.085554 0 0.029179)
(0.066973 0 0.036443)
(0.0507678 0 0.0482554)
(0.0238276 0 0.0600308)
(0.023341 0 0.0613588)
(0.0217262 0 0.0658662)
(0.0194751 0 0.0745233)
(0.0167868 0 0.0815083)
(0.0142159 0 0.0876993)
(0.0114567 0 0.0944462)
(0.00806475 0 0.100988)
(0.0044878 0 0.107561)
(-0.0143724 0 0.00135288)
(-0.0122315 0 0.00253448)
(-0.0102283 0 0.00360792)
(-0.00824505 0 0.00455254)
(-0.00639508 0 0.0054641)
(-0.00458791 0 0.00625194)
(-0.00290754 0 0.00699115)
(-0.00129275 0 0.00783856)
(0.000210766 0 0.00908609)
(0.0016253 0 0.00952909)
(0.00292247 0 0.00960659)
(0.00418008 0 0.0115218)
(0.00538124 0 0.0147841)
(0.00622468 0 0.0141075)
(0.00690627 0 0.012029)
(0.0490998 0 0.017409)
(0.0970799 0 0.0218734)
(0.0711604 0 0.0272176)
(0.0460066 0 0.0346888)
(0.0355528 0 0.0405245)
(0.0184071 0 0.0478595)
(0.0187967 0 0.0511368)
(0.0186087 0 0.0565416)
(0.0171606 0 0.0629868)
(0.015197 0 0.0691356)
(0.013049 0 0.0753389)
(0.010608 0 0.0818887)
(0.00751599 0 0.0881271)
(0.0041698 0 0.0946779)
(-0.0187845 0 0.00153293)
(-0.0163955 0 0.00285188)
(-0.0141713 0 0.00402636)
(-0.0119651 0 0.00503816)
(-0.00992168 0 0.00597898)
(-0.00792383 0 0.00675249)
(-0.00608265 0 0.00743449)
(-0.00431569 0 0.00819766)
(-0.00269368 0 0.00932457)
(-0.00114842 0 0.00958705)
(0.000246301 0 0.00946706)
(0.00154254 0 0.0111119)
(0.00275063 0 0.013972)
(0.00371033 0 0.0130501)
(0.00447461 0 0.0108573)
(0.0383324 0 0.0154955)
(0.0803528 0 0.0192349)
(0.0578497 0 0.0267879)
(0.031364 0 0.0352038)
(0.0241648 0 0.0352832)
(0.0132259 0 0.0385536)
(0.0142996 0 0.0433282)
(0.0148884 0 0.0489973)
(0.0142281 0 0.0531145)
(0.013063 0 0.0582736)
(0.0114683 0 0.0641013)
(0.00949121 0 0.0702263)
(0.00680386 0 0.0759118)
(0.00377721 0 0.0821829)
(-0.0237112 0 0.00174804)
(-0.0210278 0 0.00324166)
(-0.0185343 0 0.00455474)
(-0.0160545 0 0.00567199)
(-0.0137646 0 0.00668174)
(-0.0115198 0 0.00747834)
(-0.00946161 0 0.00813722)
(-0.00748554 0 0.00886033)
(-0.00568439 0 0.00992417)
(-0.00394707 0 0.0100304)
(-0.00239399 0 0.00971927)
(-0.000995861 0 0.0111765)
(0.000281772 0 0.0137604)
(0.00141848 0 0.0125721)
(0.00233198 0 0.0102017)
(0.0253794 0 0.0142949)
(0.0590932 0 0.0174501)
(0.0440956 0 0.0276299)
(0.0212514 0 0.0376024)
(0.0157049 0 0.032458)
(0.00809116 0 0.0323479)
(0.00986325 0 0.0381115)
(0.0110793 0 0.0432755)
(0.0109615 0 0.0453894)
(0.0104747 0 0.049408)
(0.00951167 0 0.0544904)
(0.00810247 0 0.0599415)
(0.00591994 0 0.0648265)
(0.0033166 0 0.0705763)
(-0.0292363 0 0.00199731)
(-0.0262177 0 0.00370043)
(-0.0234115 0 0.00518951)
(-0.020611 0 0.00645075)
(-0.0180261 0 0.00756875)
(-0.0154825 0 0.00842653)
(-0.0131535 0 0.0090957)
(-0.010912 0 0.00982264)
(-0.00887551 0 0.0108788)
(-0.00688876 0 0.010851)
(-0.00511736 0 0.0103526)
(-0.00355758 0 0.0116992)
(-0.00215136 0 0.0141229)
(-0.000777695 0 0.0126413)
(0.000341487 0 0.0100228)
(0.0106327 0 0.0137493)
(0.0335798 0 0.016448)
(0.0287102 0 0.0291176)
(0.0134529 0 0.0407215)
(0.0095461 0 0.0320812)
(0.00371957 0 0.0286625)
(0.00581682 0 0.0349091)
(0.00766724 0 0.0396646)
(0.00777184 0 0.0399909)
(0.0076875 0 0.0426926)
(0.00732499 0 0.0468976)
(0.00649585 0 0.0514503)
(0.0048843 0 0.0553445)
(0.00278982 0 0.060334)
(-0.0354318 0 0.0022784)
(-0.0320437 0 0.00422367)
(-0.0288879 0 0.00592419)
(-0.0257251 0 0.00736823)
(-0.0228007 0 0.00863448)
(-0.0199105 0 0.00959238)
(-0.0172609 0 0.0103057)
(-0.0147014 0 0.0110815)
(-0.0123754 0 0.0121848)
(-0.0100812 0 0.012045)
(-0.00803427 0 0.0113621)
(-0.0062569 0 0.0126706)
(-0.00466371 0 0.0150432)
(-0.0029952 0 0.0132388)
(-0.00161306 0 0.0102964)
(-0.00477973 0 0.013818)
(0.00542614 0 0.0161721)
(0.0118851 0 0.0304004)
(0.00684901 0 0.0435148)
(0.00501246 0 0.0329543)
(0.000950719 0 0.027002)
(0.00258436 0 0.0336615)
(0.00463977 0 0.0381914)
(0.00490165 0 0.0366066)
(0.00505823 0 0.0379236)
(0.0051606 0 0.0414392)
(0.0048379 0 0.0449948)
(0.00376576 0 0.0477948)
(0.00221617 0 0.0518455)
(-0.0423553 0 0.00258791)
(-0.0385719 0 0.00480496)
(-0.0350374 0 0.00675053)
(-0.0314777 0 0.00841594)
(-0.0281758 0 0.00987083)
(-0.0248962 0 0.0109682)
(-0.0218803 0 0.0117604)
(-0.0189536 0 0.0126319)
(-0.0162872 0 0.0138377)
(-0.0136304 0 0.0136099)
(-0.0112517 0 0.0127466)
(-0.00919864 0 0.014088)
(-0.00736233 0 0.016512)
(-0.00534356 0 0.014354)
(-0.0036425 0 0.0110118)
(-0.0194521 0 0.0144824)
(-0.022646 0 0.0165959)
(-0.00559497 0 0.0307178)
(0.00077571 0 0.0451002)
(0.00149741 0 0.0339924)
(-0.000446951 0 0.026571)
(0.000636489 0 0.0337663)
(0.00224342 0 0.0382323)
(0.0025195 0 0.0350293)
(0.00278307 0 0.0348461)
(0.00318596 0 0.0378822)
(0.00330299 0 0.0405672)
(0.0026868 0 0.0422847)
(0.00163636 0 0.0453207)
(-0.0500499 0 0.00292128)
(-0.0458543 0 0.00543583)
(-0.0419203 0 0.00765728)
(-0.0379382 0 0.00958177)
(-0.034229 0 0.0112657)
(-0.0305241 0 0.0125426)
(-0.0271023 0 0.0134495)
(-0.0237638 0 0.0144656)
(-0.0207095 0 0.0158302)
(-0.0176378 0 0.0155416)
(-0.0148735 0 0.0145056)
(-0.0124875 0 0.0159509)
(-0.0103515 0 0.0185252)
(-0.00792455 0 0.0159861)
(-0.00584809 0 0.0121701)
(-0.0323258 0 0.0157299)
(-0.0481163 0 0.0176976)
(-0.0224649 0 0.0300908)
(-0.00542236 0 0.0447655)
(-0.00156911 0 0.0344491)
(-0.000857624 0 0.0265996)
(-0.000417968 0 0.0342353)
(0.00064905 0 0.0389619)
(0.000872396 0 0.0346926)
(0.00111042 0 0.0332167)
(0.00158153 0 0.035984)
(0.00197564 0 0.0379529)
(0.00170452 0 0.0386265)
(0.00109475 0 0.0407174)
(-0.0585381 0 0.00327197)
(-0.0539257 0 0.00610441)
(-0.0495831 0 0.00862909)
(-0.0451626 0 0.0108491)
(-0.0410253 0 0.0128015)
(-0.0368685 0 0.0142985)
(-0.0330092 0 0.0153571)
(-0.0292209 0 0.0165696)
(-0.0257368 0 0.0181501)
(-0.0222021 0 0.0178326)
(-0.019001 0 0.0166375)
(-0.0162253 0 0.0182575)
(-0.0137332 0 0.0210768)
(-0.0108435 0 0.0181368)
(-0.00833506 0 0.0137813)
(-0.0430119 0 0.0175652)
(-0.0694078 0 0.0194667)
(-0.0377486 0 0.0290118)
(-0.012 0 0.0428718)
(-0.00497311 0 0.0341216)
(-0.00107723 0 0.0269794)
(-0.000952013 0 0.0345813)
(-0.000509038 0 0.0396252)
(-0.000124003 0 0.0349203)
(9.78644e-05 0 0.0325924)
(0.000495475 0 0.0352809)
(0.000951359 0 0.0367605)
(0.000900621 0 0.0365687)
(0.000630252 0 0.0378174)
(-0.0678217 0 0.00363148)
(-0.0627992 0 0.00679518)
(-0.0580511 0 0.00964499)
(-0.05319 0 0.0121943)
(-0.0486164 0 0.0144538)
(-0.0439916 0 0.0162117)
(-0.0396727 0 0.01746)
(-0.0354057 0 0.0189231)
(-0.0314575 0 0.0207776)
(-0.0274181 0 0.0204696)
(-0.0237342 0 0.0191372)
(-0.0205129 0 0.0210027)
(-0.0176086 0 0.0241568)
(-0.0142052 0 0.0208074)
(-0.0112104 0 0.0158604)
(-0.0517325 0 0.0199953)
(-0.0862918 0 0.0219137)
(-0.0512706 0 0.0282863)
(-0.0194446 0 0.0402826)
(-0.00917954 0 0.0336558)
(-0.00206095 0 0.0277168)
(-0.00175965 0 0.0347244)
(-0.00161375 0 0.0397944)
(-0.000839715 0 0.0352463)
(-0.000451439 0 0.0325855)
(-0.000137901 0 0.0352451)
(0.000254937 0 0.0364777)
(0.000331919 0 0.0356855)
(0.000274514 0 0.0362874)
(-0.0778711 0 0.00398898)
(-0.0724645 0 0.00748814)
(-0.0673295 0 0.0106782)
(-0.0620384 0 0.0135865)
(-0.0570336 0 0.0161888)
(-0.0519393 0 0.0182477)
(-0.0471518 0 0.019725)
(-0.0423882 0 0.0214953)
(-0.0379511 0 0.0236822)
(-0.0333746 0 0.0234296)
(-0.0291693 0 0.0219924)
(-0.0254499 0 0.0241749)
(-0.022079 0 0.0277473)
(-0.0181161 0 0.0239967)
(-0.0145839 0 0.0184258)
(-0.0589915 0 0.0230271)
(-0.0993751 0 0.0250414)
(-0.0635379 0 0.028452)
(-0.0282224 0 0.0379512)
(-0.014602 0 0.0338601)
(-0.00420752 0 0.0292576)
(-0.00335527 0 0.0349949)
(-0.00304354 0 0.0396857)
(-0.00170825 0 0.0356006)
(-0.000923901 0 0.0330521)
(-0.000560594 0 0.0355307)
(-0.000244671 0 0.0366526)
(-3.32023e-05 0 0.0355406)
(4.20757e-05 0 0.0357139)
(-0.0886275 0 0.00433144)
(-0.0828751 0 0.00815897)
(-0.0773921 0 0.0116948)
(-0.0717025 0 0.014986)
(-0.0662887 0 0.0179631)
(-0.0607377 0 0.0203609)
(-0.0554872 0 0.0221063)
(-0.0502241 0 0.0242423)
(-0.0452865 0 0.02682)
(-0.040152 0 0.0266773)
(-0.0353964 0 0.0251801)
(-0.031132 0 0.0277512)
(-0.0272445 0 0.0318182)
(-0.0226848 0 0.0276964)
(-0.0185703 0 0.0214969)
(-0.0653463 0 0.0266666)
(-0.109598 0 0.0288422)
(-0.0757044 0 0.0297538)
(-0.0394006 0 0.0368663)
(-0.0215451 0 0.0356772)
(-0.0077182 0 0.0322688)
(-0.00597397 0 0.0360893)
(-0.00510694 0 0.0399061)
(-0.00309094 0 0.036282)
(-0.00173105 0 0.0340449)
(-0.0010942 0 0.0360952)
(-0.000719864 0 0.0370706)
(-0.000307908 0 0.0358168)
(-9.52125e-05 0 0.0357499)
(-0.0999987 0 0.00464227)
(-0.0939711 0 0.00877919)
(-0.0881833 0 0.0126549)
(-0.0821415 0 0.0163443)
(-0.076363 0 0.0197217)
(-0.0703907 0 0.0224927)
(-0.0647011 0 0.0245447)
(-0.0589512 0 0.0271052)
(-0.0535166 0 0.0301304)
(-0.0478192 0 0.030161)
(-0.042498 0 0.0286633)
(-0.0376502 0 0.0316942)
(-0.0332019 0 0.036322)
(-0.0280198 0 0.0318857)
(-0.0232875 0 0.0250885)
(-0.0712934 0 0.0309121)
(-0.117903 0 0.0333036)
(-0.0887858 0 0.0322285)
(-0.0543509 0 0.0375032)
(-0.0303865 0 0.0395909)
(-0.0122745 0 0.0370313)
(-0.00950975 0 0.0386223)
(-0.00782283 0 0.0411021)
(-0.00512784 0 0.0378138)
(-0.00311066 0 0.0357981)
(-0.00198959 0 0.0371427)
(-0.00134101 0 0.0378216)
(-0.000632886 0 0.0364759)
(-0.000217051 0 0.0362378)
(-0.10555 0 0.00931733)
(-0.111853 0 0.00489739)
(-0.0996141 0 0.013515)
(-0.0933013 0 0.0176043)
(-0.0872088 0 0.0213989)
(-0.0808674 0 0.0245712)
(-0.0747863 0 0.026965)
(-0.068586 0 0.0300074)
(-0.0626776 0 0.0335353)
(-0.0564292 0 0.0338106)
(-0.0505432 0 0.0323856)
(-0.0450869 0 0.0359469)
(-0.0400442 0 0.0411918)
(-0.0342281 0 0.0365278)
(-0.0288541 0 0.029206)
(-0.0772351 0 0.035749)
(-0.125072 0 0.0384009)
(-0.10357 0 0.0357997)
(-0.0736125 0 0.0397767)
(-0.0413536 0 0.045129)
(-0.0170932 0 0.0438461)
(-0.0134806 0 0.0427615)
(-0.0109073 0 0.0438188)
(-0.00768224 0 0.040616)
(-0.00505079 0 0.0386243)
(-0.00334387 0 0.0390458)
(-0.00222668 0 0.0392144)
(-0.0011197 0 0.0376951)
(-0.000408061 0 0.0372379)
(-0.104985 0 0.0187035)
(-0.111556 0 0.0142328)
(-0.125519 0 0.0100189)
(-0.140892 0 0.00519086)
(-0.0987458 0 0.0229193)
(-0.0921243 0 0.0265115)
(-0.0857075 0 0.0292774)
(-0.0791118 0 0.0328552)
(-0.0727779 0 0.0369354)
(-0.0660158 0 0.0375334)
(-0.0595869 0 0.0362694)
(-0.0535127 0 0.0404303)
(-0.0478553 0 0.0463354)
(-0.0414115 0 0.0415644)
(-0.0353887 0 0.0338405)
(-0.083486 0 0.0411441)
(-0.131701 0 0.0440871)
(-0.12051 0 0.0403495)
(-0.0977254 0 0.0433465)
(-0.0547169 0 0.0522383)
(-0.0218352 0 0.0528109)
(-0.0175982 0 0.0483049)
(-0.0141713 0 0.0481828)
(-0.0105182 0 0.0449091)
(-0.00739575 0 0.042692)
(-0.0050704 0 0.0421317)
(-0.00339088 0 0.0416029)
(-0.00180974 0 0.039785)
(-0.000707377 0 0.0389673)
(-0.103969 0 0.0282212)
(-0.110855 0 0.0242038)
(-0.125235 0 0.0201531)
(-0.14093 0 0.0150664)
(-0.153836 0 0.0101451)
(-0.168117 0 0.00492639)
(-0.0973967 0 0.0313785)
(-0.0905 0 0.0355363)
(-0.0837987 0 0.040212)
(-0.0765819 0 0.0412146)
(-0.0696588 0 0.0402103)
(-0.0629824 0 0.0450383)
(-0.05671 0 0.0516364)
(-0.0496629 0 0.0469116)
(-0.043002 0 0.0389606)
(-0.0902781 0 0.0470396)
(-0.138214 0 0.0502907)
(-0.139314 0 0.0457454)
(-0.126452 0 0.0479911)
(-0.0708074 0 0.0602863)
(-0.0267267 0 0.0633925)
(-0.0216587 0 0.0555729)
(-0.0176439 0 0.0538986)
(-0.0134814 0 0.0506307)
(-0.00990529 0 0.0480304)
(-0.00701353 0 0.0465604)
(-0.00473817 0 0.0452644)
(-0.00267622 0 0.0430026)
(-0.00110858 0 0.0416913)
(-0.102569 0 0.0379184)
(-0.109734 0 0.0331531)
(-0.124663 0 0.0305003)
(-0.140846 0 0.0258331)
(-0.154139 0 0.020506)
(-0.168734 0 0.0142623)
(-0.179749 0 0.00897323)
(-0.190413 0 0.00383319)
(-0.0956873 0 0.043226)
(-0.0881204 0 0.0447148)
(-0.0807637 0 0.0440767)
(-0.0735237 0 0.049638)
(-0.0666627 0 0.0569495)
(-0.0590611 0 0.0524544)
(-0.0517958 0 0.0445059)
(-0.0977963 0 0.0533482)
(-0.14492 0 0.0569139)
(-0.160304 0 0.0518622)
(-0.159404 0 0.0535142)
(-0.0895422 0 0.0690242)
(-0.0324771 0 0.0749216)
(-0.0257578 0 0.064277)
(-0.0209533 0 0.0607252)
(-0.0164267 0 0.057829)
(-0.0124439 0 0.0546841)
(-0.00901695 0 0.0523309)
(-0.0061973 0 0.050299)
(-0.0036306 0 0.0475205)
(-0.0015948 0 0.0456105)
(-0.100465 0 0.0478763)
(-0.108357 0 0.0458254)
(-0.123883 0 0.0411492)
(-0.1406 0 0.0353853)
(-0.154487 0 0.031224)
(-0.169607 0 0.0248608)
(-0.180921 0 0.0184002)
(-0.192157 0 0.0113205)
(-0.199106 0 0.00614195)
(-0.204542 0 0.00061571)
(-0.0928752 0 0.0477074)
(-0.0851593 0 0.0540655)
(-0.0777482 0 0.062103)
(-0.0696601 0 0.0580467)
(-0.0618489 0 0.0503783)
(-0.10618 0 0.0599452)
(-0.152047 0 0.0638282)
(-0.182861 0 0.0585651)
(-0.195896 0 0.0596233)
(-0.111063 0 0.0781057)
(-0.039412 0 0.0869262)
(-0.0302889 0 0.0739232)
(-0.0238909 0 0.0685746)
(-0.019121 0 0.0663158)
(-0.0148335 0 0.0626138)
(-0.0110123 0 0.0594581)
(-0.00771662 0 0.0566824)
(-0.00464674 0 0.0533485)
(-0.00211859 0 0.0508137)
(-0.0977602 0 0.0581244)
(-0.105914 0 0.0509012)
(-0.122544 0 0.0522164)
(-0.140435 0 0.0494898)
(-0.154999 0 0.0424573)
(-0.170744 0 0.0339879)
(-0.18258 0 0.0283175)
(-0.194249 0 0.0206781)
(-0.201717 0 0.013496)
(-0.209075 0 0.00463977)
(-0.209828 0 -0.000631876)
(-0.203196 0 -0.00757638)
(-0.0899774 0 0.0669022)
(-0.0815061 0 0.0635071)
(-0.0732195 0 0.0564402)
(-0.11551 0 0.0666715)
(-0.159758 0 0.0708686)
(-0.20596 0 0.0656906)
(-0.234291 0 0.0661767)
(-0.134956 0 0.0866694)
(-0.0478294 0 0.0987986)
(-0.0352507 0 0.0841591)
(-0.0264108 0 0.0773029)
(-0.0214518 0 0.0757034)
(-0.0169119 0 0.0716309)
(-0.0128435 0 0.0677582)
(-0.00918441 0 0.0643172)
(-0.00566794 0 0.0604587)
(-0.00265987 0 0.0572976)
(-0.094544 0 0.0686488)
(-0.103368 0 0.0710652)
(-0.120644 0 0.0637606)
(-0.139374 0 0.055645)
(-0.155277 0 0.0543892)
(-0.172454 0 0.0485332)
(-0.184925 0 0.0389925)
(-0.197269 0 0.0281395)
(-0.20525 0 0.0213303)
(-0.212271 0 0.0123726)
(-0.215817 0 0.00366158)
(-0.21822 0 -0.00986894)
(-0.220018 0 -0.0166293)
(-0.170402 0 -0.0145731)
(-0.0859604 0 0.0625246)
(-0.125878 0 0.0733436)
(-0.16808 0 0.0778538)
(-0.22885 0 0.0729838)
(-0.272777 0 0.0731088)
(-0.160623 0 0.0943674)
(-0.0587064 0 0.109787)
(-0.0410585 0 0.0946308)
(-0.028582 0 0.0866817)
(-0.02343 0 0.0857205)
(-0.0186803 0 0.0814801)
(-0.0144416 0 0.0769526)
(-0.0105195 0 0.0729842)
(-0.00663147 0 0.0686847)
(-0.0031909 0 0.0649623)
(-0.137522 0 0.0797793)
(-0.100122 0 0.0682368)
(-0.118543 0 0.0758043)
(-0.138275 0 0.0772705)
(-0.155208 0 0.0671282)
(-0.173559 0 0.054927)
(-0.187468 0 0.0505897)
(-0.20127 0 0.0420532)
(-0.209973 0 0.0304068)
(-0.218148 0 0.0172519)
(-0.221855 0 0.00895388)
(-0.223544 0 -0.00179358)
(-0.229833 0 -0.014746)
(-0.221934 0 -0.0268485)
(-0.155876 0 -0.023453)
(-0.127582 0 -0.0595012)
(-0.177074 0 0.0846124)
(-0.25206 0 0.0802881)
(-0.31042 0 0.0804037)
(-0.18788 0 0.101537)
(-0.073275 0 0.119959)
(-0.0483527 0 0.105223)
(-0.0306225 0 0.0966819)
(-0.0251641 0 0.0961243)
(-0.0201558 0 0.0918837)
(-0.0158165 0 0.0867817)
(-0.0117126 0 0.0824277)
(-0.00750277 0 0.0777954)
(-0.00368773 0 0.0736153)
(-0.277582 0 0.0895477)
(-0.189503 0 0.090605)
(-0.159731 0 0.0886424)
(-0.137333 0 0.0786041)
(-0.155373 0 0.0807876)
(-0.17493 0 0.0767155)
(-0.190012 0 0.0632203)
(-0.204943 0 0.0474896)
(-0.215066 0 0.0405054)
(-0.224502 0 0.030264)
(-0.229499 0 0.0167074)
(-0.234663 0 0.00077373)
(-0.236132 0 -0.00955264)
(-0.233785 0 -0.0175002)
(-0.210259 0 -0.029859)
(-0.210238 0 -0.0847513)
(-0.202075 0 -0.117902)
(0.0717499 0 -0.0262113)
(-0.348113 0 0.0898887)
(-0.218132 0 0.109389)
(-0.0929924 0 0.130782)
(-0.0577882 0 0.116493)
(-0.0328309 0 0.10759)
(-0.0267713 0 0.106868)
(-0.0213984 0 0.10264)
(-0.0169997 0 0.0970339)
(-0.012757 0 0.0924124)