/*--------------------------------*- C++ -*----------------------------------*\
| =========                 |                                                 |
| \\      /  F ield         | OpenFOAM: The Open Source CFD Toolbox           |
|  \\    /   O peration     | Version:  5.x                                   |
|   \\  /    A nd           | Web:      www.OpenFOAM.org                      |
|    \\/     M anipulation  |                                                 |
\*---------------------------------------------------------------------------*/
FoamFile
{
    version     2.0;
    format      ascii;
    class       surfaceScalarField;
    location    "0.9";
    object      alphaPhi10;
}
// * * * * * * * * * * * * * * * * * * * * * * * * * * * * * * * * * * * * * //

dimensions      [0 3 -1 0 0 0 0];

internalField   nonuniform List<scalar> 
30582
(
0.000285902
-5.68982e-07
0.000284024
1.87846e-06
0.000285233
-4.34123e-07
0.000280212
3.81121e-06
0.000282687
4.42418e-06
0.000283507
1.50293e-06
0.000278341
1.87137e-06
0.000279007
7.49126e-06
0.000281422
6.50844e-06
0.000280153
6.90286e-06
0.000277974
3.6719e-07
0.000277439
3.4392e-06
0.000278449
1.04643e-05
0.000275664
1.09969e-05
0.000275509
1.70881e-05
0.00027521
2.76398e-06
0.000277488
3.18517e-07
0.000277839
4.04917e-06
0.000273122
1.30072e-05
0.000272506
1.39999e-05
0.000266588
3.63809e-05
0.000267814
7.39584e-06
0.00027566
4.59226e-06
0.000279643
-1.48511e-06
0.000273913
3.2574e-06
0.000271206
1.4307e-05
0.000259713
2.08747e-05
0.000261139
6.13409e-05
0.000254342
1.34721e-05
0.000268777
1.42781e-05
0.000278428
5.80747e-06
0.000277954
-5.5253e-06
0.000275087
-6.23841e-07
0.000259558
1.44623e-05
0.000255931
2.60832e-05
0.00023875
0.000108941
0.000235624
1.87182e-05
0.000255435
2.68146e-05
0.000271496
2.12097e-05
0.000279484
4.27744e-06
0.000282151
-1.25887e-05
0.000267136
-8.20184e-06
0.000256655
1.37379e-05
0.000226482
3.81322e-05
0.000113695
-8.94223e-06
0.000213151
2.24725e-05
0.000236526
3.76277e-05
0.000257856
4.04548e-05
0.000274166
2.65273e-05
0.000285549
8.79287e-07
0.000280373
-2.58259e-05
0.000268127
-1.9673e-05
0.000234669
4.65688e-06
0.000129774
2.81791e-06
-9.61466e-06
2.88661e-07
0.000188753
2.43978e-05
0.000213717
4.52813e-05
0.000238362
5.71211e-05
0.000260866
5.37547e-05
0.0002801
3.19761e-05
0.000287713
-6.46093e-06
0.000284825
-4.25221e-05
0.000257991
-3.76788e-05
0.000157797
-6.02875e-06
-1.81956e-06
-3.22711e-08
-3.12662e-09
1.62831e-09
0.00016408
2.46734e-05
0.00018897
4.91446e-05
0.000214804
6.88393e-05
0.000240774
7.72129e-05
0.000266253
6.76022e-05
0.000285469
3.42203e-05
0.000296377
-1.80128e-05
0.000284598
-6.09381e-05
0.000199146
-1.79562e-05
6.16933e-06
-9.74817e-08
1.07421e-09
-4.53662e-11
9.82549e-11
2.05596e-13
0.000140378
2.37018e-05
0.000164005
4.96384e-05
0.000189326
7.46229e-05
0.000216208
9.34059e-05
0.000244845
9.86203e-05
0.000271966
8.11051e-05
0.000294009
3.65878e-05
0.000301498
-3.09765e-05
0.00024141
-3.1164e-05
2.22732e-05
-3.30104e-07
5.63797e-09
-7.81355e-11
3.73004e-12
-7.46515e-16
9.65848e-16
3.09793e-18
0.00011845
2.19278e-05
0.000140093
4.76135e-05
0.000163765
7.51996e-05
0.000189688
0.000101142
0.000218596
0.000119655
0.000249144
0.000121442
0.00027967
9.5444e-05
0.000303687
3.44177e-05
0.000268284
-2.39266e-05
4.9629e-05
-9.00917e-07
7.32752e-08
-4.5572e-10
1.29942e-11
-4.44536e-15
1.30506e-17
-2.04872e-20
5.00206e-20
1.50545e-23
9.87081e-05
1.97421e-05
0.000118035
4.39859e-05
0.000139432
7.19463e-05
0.000163271
0.000101617
0.00019049
0.000129248
0.000220791
0.000148009
0.000254714
0.000146399
0.000289927
0.000109204
0.000273955
8.44893e-06
7.74986e-05
-1.3581e-06
4.69255e-07
-2.47965e-09
4.68712e-11
-4.90044e-14
4.10323e-16
-8.85036e-20
1.19062e-21
-2.0254e-25
-7.535e-27
8.12668e-05
1.74413e-05
9.82279e-05
3.95493e-05
0.00011712
6.62982e-05
0.000138339
9.68783e-05
0.000162832
0.000129275
0.000190666
0.000159372
0.000223656
0.000179067
0.000262731
0.000173595
0.000254278
3.82316e-05
8.656e-05
-3.87645e-07
1.54805e-06
-6.33949e-09
1.7197e-10
-4.12495e-13
1.30433e-15
-1.18088e-18
5.25526e-21
-1.46951e-24
-6.10626e-27
6.60461e-05
1.52207e-05
8.07715e-05
3.48976e-05
9.71973e-05
5.94719e-05
0.000115672
8.89652e-05
0.00013706
0.00012265
0.000161445
0.000158497
0.000191086
0.000191942
0.000227908
0.000213889
0.000216905
5.70863e-05
8.12419e-05
2.10701e-06
2.67989e-06
-5.94008e-09
5.21414e-10
-1.3781e-12
-1.29002e-14
-1.05398e-17
5.67469e-21
-2.3629e-23
2.04388e-26
5.2843e-05
1.32032e-05
6.55725e-05
3.04197e-05
7.97278e-05
5.23672e-05
9.55923e-05
7.95514e-05
0.000113905
0.000112119
0.000134639
0.000149456
0.000160121
0.000189462
0.000192086
0.000227764
0.000175501
5.99013e-05
5.91315e-05
3.2462e-06
2.85251e-06
9.33647e-09
1.23337e-09
-1.77964e-12
-1.34218e-13
-3.60691e-17
-3.56276e-19
-2.31319e-22
5.47619e-26
4.13866e-05
1.14564e-05
5.24159e-05
2.63598e-05
6.45862e-05
4.55613e-05
7.81141e-05
6.98454e-05
9.36117e-05
9.98452e-05
0.000110909
0.000135849
0.000132285
0.000177293
0.000158671
0.000222877
0.000137897
5.12393e-05
3.83752e-05
2.5544e-06
1.59107e-06
2.51236e-08
1.40842e-09
4.29985e-12
-4.06483e-13
-5.05351e-17
-3.16419e-18
-8.50789e-22
-2.89908e-24
3.13765e-05
1.00101e-05
4.10214e-05
2.28509e-05
5.15329e-05
3.94131e-05
6.30675e-05
6.0608e-05
7.6116e-05
8.7341e-05
9.03972e-05
0.000120357
0.000108079
0.000160054
0.000129079
0.000206885
0.000106861
3.85858e-05
2.33757e-05
1.44623e-06
5.26109e-07
1.32498e-08
5.30619e-10
1.07945e-11
-2.85807e-13
1.50964e-16
-9.89529e-18
-1.3508e-21
-3.0138e-23
2.25053e-05
8.87127e-06
3.10817e-05
1.99498e-05
4.02695e-05
3.41143e-05
5.01769e-05
5.23037e-05
6.11857e-05
7.55383e-05
7.29434e-05
0.000104795
8.74722e-05
0.000140965
0.000103756
0.000185376
8.22644e-05
2.66414e-05
1.33714e-05
6.80826e-07
1.48523e-07
3.82096e-09
8.4899e-11
3.33546e-12
-4.58385e-14
3.76007e-16
-7.1886e-18
5.07655e-21
-1.01668e-22
1.44762e-05
8.02911e-06
2.22855e-05
1.76675e-05
3.04772e-05
2.97421e-05
3.91182e-05
4.51731e-05
4.84971e-05
6.49922e-05
5.82332e-05
9.02484e-05
7.01621e-05
0.000122105
8.25759e-05
0.000162145
6.31177e-05
1.72565e-05
7.11852e-06
2.85417e-07
3.76917e-08
8.61666e-10
1.40139e-11
4.62882e-13
-1.87068e-15
1.07785e-16
-1.07597e-18
1.24728e-20
-6.92006e-23
7.00846e-06
7.4677e-06
1.43349e-05
1.59797e-05
2.18386e-05
2.63061e-05
2.95545e-05
3.93057e-05
3.76925e-05
5.59777e-05
4.58802e-05
7.73452e-05
5.57322e-05
0.000104678
6.51306e-05
0.00013955
4.83286e-05
1.06597e-05
3.52591e-06
1.08798e-07
8.75897e-09
1.67409e-10
2.39838e-12
4.48535e-14
8.48927e-17
1.35858e-17
-4.14481e-20
3.38289e-21
-9.3652e-24
-1.55676e-07
7.16413e-06
6.94803e-06
1.48545e-05
1.40502e-05
2.3768e-05
2.11568e-05
3.47038e-05
2.84125e-05
4.85858e-05
3.54811e-05
6.63768e-05
4.37285e-05
8.93489e-05
5.09001e-05
0.000118909
3.69486e-05
6.37132e-06
1.63792e-06
3.83817e-08
1.9558e-09
2.92162e-11
3.60154e-13
5.55914e-15
2.43491e-17
1.30475e-18
1.36804e-21
4.05945e-22
-2.80197e-25
-7.25444e-06
7.09876e-06
-1.34228e-07
1.42464e-05
6.82708e-06
2.20777e-05
1.36152e-05
3.13096e-05
2.0314e-05
4.28023e-05
2.66454e-05
5.74215e-05
3.37074e-05
7.63979e-05
3.93387e-05
0.00010091
2.81863e-05
3.74606e-06
7.22597e-07
1.28339e-08
4.28569e-10
4.75507e-12
4.8514e-14
7.98931e-16
4.78168e-18
1.67406e-19
4.67765e-22
4.15085e-23
2.36828e-26
-1.45055e-05
7.25104e-06
-7.15096e-06
1.41155e-05
-9.1093e-08
2.11646e-05
6.64141e-06
2.90515e-05
1.30794e-05
3.85442e-05
1.90099e-05
5.04378e-05
2.52561e-05
6.58728e-05
2.99272e-05
8.58094e-05
2.1398e-05
2.21077e-06
3.08957e-07
4.17897e-09
9.42321e-11
7.33236e-13
6.45482e-15
1.07662e-16
6.4231e-19
2.03034e-20
7.68281e-23
4.76372e-24
5.32527e-27
-2.21061e-05
7.60062e-06
-1.43212e-05
1.44212e-05
-6.94342e-06
2.09678e-05
-2.82381e-08
2.78342e-05
6.41609e-06
3.57147e-05
1.22453e-05
4.53088e-05
1.8001e-05
5.76929e-05
2.21934e-05
7.36065e-05
1.6082e-05
1.34064e-06
1.31999e-07
1.37799e-09
2.14729e-11
1.09943e-13
9.83736e-16
1.42861e-17
8.04624e-20
2.32014e-21
8.58484e-24
4.88477e-25
6.56045e-28
-3.0234e-05
8.12785e-06
-2.18438e-05
1.51232e-05
-1.39511e-05
2.1429e-05
-6.62989e-06
2.75695e-05
6.0007e-08
3.41903e-05
6.05329e-06
4.19067e-05
1.161e-05
5.16998e-05
1.57184e-05
6.41679e-05
1.18418e-05
8.58035e-07
5.80882e-08
4.89586e-10
5.23394e-12
2.91087e-14
2.13125e-16
2.32495e-18
1.23826e-20
2.82589e-22
9.83775e-25
4.88679e-26
6.26696e-29
-3.90445e-05
8.81056e-06
-2.98974e-05
1.61815e-05
-2.13133e-05
2.24854e-05
-1.33904e-05
2.81895e-05
-6.23345e-06
3.38629e-05
1.68204e-07
4.00754e-05
5.78618e-06
4.77305e-05
1.01397e-05
5.72785e-05
8.3675e-06
5.93967e-07
2.69675e-08
2.00803e-10
1.43755e-12
8.66348e-15
5.68977e-17
5.27733e-19
2.51833e-21
4.51653e-23
1.41607e-25
5.60972e-27
6.57341e-30
-4.86689e-05
9.62435e-06
-3.86379e-05
1.75511e-05
-2.92107e-05
2.40789e-05
-2.05092e-05
2.96042e-05
-1.2686e-05
3.4642e-05
-5.65637e-06
3.96875e-05
2.66908e-07
4.55947e-05
5.14039e-06
5.27298e-05
5.41219e-06
4.51684e-07
1.337e-08
1.00067e-10
4.6429e-13
3.07141e-15
1.51374e-17
1.33729e-19
5.43637e-22
8.54589e-24
2.41594e-26
8.0257e-28
8.36782e-31
-5.92105e-05
1.05416e-05
-4.81977e-05
1.91841e-05
-3.78029e-05
2.61433e-05
-2.81691e-05
3.17388e-05
-1.95006e-05
3.64188e-05
-1.16419e-05
4.06276e-05
-5.1917e-06
4.51461e-05
4.50982e-07
5.02841e-05
2.77822e-06
3.7817e-07
6.87227e-09
6.24791e-11
1.64436e-13
1.39313e-15
4.77318e-18
4.17758e-20
1.274e-22
1.843e-24
4.26745e-27
1.27185e-28
1.15615e-31
-7.07399e-05
1.15295e-05
-5.86833e-05
2.10273e-05
-4.72258e-05
2.8607e-05
-3.65333e-05
3.45075e-05
-2.68636e-05
3.91017e-05
-1.79924e-05
4.27694e-05
-1.08089e-05
4.62448e-05
-4.17721e-06
4.97743e-05
2.89095e-07
3.46518e-07
3.05572e-09
4.82665e-11
5.76987e-14
8.34275e-16
1.83186e-18
1.74686e-20
3.61146e-23
5.10657e-25
8.90279e-28
2.35886e-29
1.70924e-32
-8.32912e-05
1.25512e-05
-7.01695e-05
2.30156e-05
-5.75909e-05
3.13925e-05
-4.57447e-05
3.78185e-05
-3.49435e-05
4.25874e-05
-2.48986e-05
4.6008e-05
-1.67869e-05
4.87474e-05
-8.97631e-06
5.10439e-05
-2.17102e-06
3.43791e-07
1.95977e-10
4.33916e-11
1.26485e-14
6.4302e-16
7.52768e-19
1.01335e-20
1.25397e-23
1.98383e-25
2.43467e-28
5.86998e-30
3.16548e-33
-9.68625e-05
1.35712e-05
-8.26956e-05
2.50772e-05
-6.89814e-05
3.44061e-05
-5.59242e-05
4.1572e-05
-4.38908e-05
4.67659e-05
-3.2537e-05
5.02257e-05
-2.33157e-05
5.25367e-05
-1.41521e-05
5.39232e-05
-4.7057e-06
3.68674e-07
-2.73282e-09
4.36421e-11
-1.5464e-14
5.84174e-16
2.37815e-19
7.80576e-21
4.65718e-24
1.11993e-25
8.72643e-29
2.14623e-30
8.02448e-34
-0.000111406
1.45432e-05
-9.62649e-05
2.71404e-05
-8.14459e-05
3.75416e-05
-6.71658e-05
4.56476e-05
-5.38378e-05
5.15189e-05
-4.10699e-05
5.52988e-05
-3.05734e-05
5.74835e-05
-1.99094e-05
5.8294e-05
-7.44784e-06
4.26634e-07
-6.56668e-09
4.8661e-11
-4.31671e-14
5.92234e-16
-1.32746e-19
7.16781e-21
1.07967e-24
8.6135e-26
3.55244e-29
1.18777e-30
2.71455e-34
-0.000126831
1.54248e-05
-0.000110834
2.91126e-05
-9.49969e-05
4.06914e-05
-7.95309e-05
4.99067e-05
-6.4892e-05
5.67019e-05
-5.06449e-05
6.10939e-05
-3.87283e-05
6.34536e-05
-2.64469e-05
6.4021e-05
-1.05233e-05
5.31976e-07
-1.26843e-08
6.11825e-11
-9.2636e-14
6.61949e-16
-5.23833e-19
7.325e-21
-1.24055e-24
7.97646e-26
1.10074e-29
9.13712e-31
1.041e-34
-0.000142989
1.61589e-05
-0.000126317
3.09077e-05
-0.000109601
4.37169e-05
-9.30463e-05
5.42068e-05
-7.71314e-05
6.2146e-05
-6.13886e-05
6.74455e-05
-4.79376e-05
7.03032e-05
-3.39589e-05
7.09657e-05
-1.40639e-05
7.09734e-07
-2.40557e-08
9.0086e-11
-2.02384e-13
8.37106e-16
-1.10827e-18
8.20856e-21
-3.64636e-24
8.21106e-26
-7.29092e-30
8.53245e-31
2.49702e-35
-0.000159686
1.66968e-05
-0.000142568
3.24101e-05
-0.000125182
4.64889e-05
-0.000107693
5.8364e-05
-9.06014e-05
6.76768e-05
-7.3401e-05
7.41584e-05
-5.83431e-05
7.78511e-05
-4.2633e-05
7.89772e-05
-1.82158e-05
9.99198e-07
-4.67818e-08
1.56379e-10
-4.80686e-13
1.27204e-15
-2.30408e-18
1.04502e-20
-7.6988e-24
9.24533e-26
-2.70326e-29
8.84518e-31
-2.86763e-35
-0.000176675
1.69892e-05
-0.000159394
3.35228e-05
-0.000141605
4.88331e-05
-0.00012341
6.22057e-05
-0.000105304
7.30666e-05
-8.67529e-05
8.10287e-05
-7.00664e-05
8.58818e-05
-5.26426e-05
8.78607e-05
-2.31384e-05
1.45719e-06
-9.29534e-08
3.11485e-10
-1.23421e-12
2.3654e-15
-5.17863e-18
1.62674e-20
-1.65538e-23
1.18748e-25
-5.7111e-29
1.00075e-30
-8.56344e-35
1.69818e-05
-0.000193657
-0.000176552
3.41472e-05
-0.000158682
5.05999e-05
-0.000140075
6.54977e-05
-0.000121198
7.80998e-05
-0.000101473
8.77867e-05
-8.32068e-05
9.4169e-05
-6.4143e-05
9.73822e-05
-2.9006e-05
2.16122e-06
-1.8637e-07
6.86394e-10
-3.49286e-12
5.23821e-15
-1.34104e-17
3.20654e-20
-3.9935e-23
1.89112e-25
-1.19027e-28
1.29533e-30
-1.80231e-34
3.41741e-05
-0.000193745
3.85195e-05
-0.000232176
-0.000176171
5.16357e-05
-0.000157511
6.80357e-05
-0.000138181
8.24811e-05
-0.000117548
9.41748e-05
-9.78278e-05
0.000102408
-7.72669e-05
0.000107293
-3.60055e-05
3.2093e-06
-3.7129e-07
1.60219e-09
-1.06964e-11
1.31916e-14
-3.93186e-17
7.77962e-20
-1.12728e-22
3.92655e-25
-2.80871e-28
2.09977e-30
-3.82038e-34
5.17839e-05
-0.000193781
7.76911e-05
-0.000232916
3.12513e-05
-0.000263428
-0.000175485
6.96098e-05
-0.000156095
8.59488e-05
-0.000134903
9.98364e-05
-0.000113956
0.000110303
-9.21077e-05
0.000117249
-4.43439e-05
4.71823e-06
-7.22061e-07
3.78447e-09
-3.38013e-11
3.56359e-14
-1.23954e-16
2.20573e-19
-3.67085e-22
1.03917e-24
-8.06815e-28
4.54497e-30
-9.42672e-34
6.99813e-05
-0.000193682
0.000118124
-0.000234214
6.31975e-05
-0.000264862
1.91791e-05
-0.000282607
-0.000174712
8.82271e-05
-0.000153405
0.000104451
-0.000131563
0.000117443
-0.000108714
0.00012691
-5.42385e-05
6.80852e-06
-1.35326e-06
8.78287e-09
-1.07518e-10
1.06856e-13
-3.75111e-16
6.81491e-19
-1.3106e-21
3.30752e-24
-2.82315e-27
1.29848e-29
-2.90115e-33
8.90262e-05
-0.000193757
0.000160388
-0.000235946
9.67319e-05
-0.000267748
4.05447e-05
-0.000286228
3.44486e-06
-0.000286052
-0.000172846
0.000107668
-0.000150563
0.000123451
-0.000127076
0.000135804
-6.59051e-05
9.58787e-06
-2.42708e-06
1.9696e-08
-3.38642e-10
4.51416e-13
-1.31888e-15
2.18309e-18
-4.71668e-21
1.17093e-23
-1.13304e-26
4.59509e-29
-1.11169e-32
0.000109083
-0.000192903
0.000205201
-0.00023857
0.000132579
-0.000271792
6.35801e-05
-0.000290784
1.22685e-05
-0.000295052
-2.02767e-05
-0.000265775
-0.000170785
0.00012789
-0.000147135
0.000143511
-7.95375e-05
1.31179e-05
-4.15511e-06
4.22804e-08
-1.04129e-09
1.81841e-12
-5.68437e-15
8.68295e-18
-1.73127e-20
4.30742e-23
-4.80929e-26
1.85097e-28
-5.02892e-32
0.000130288
-0.00019199
0.000253106
-0.000240808
0.000171513
-0.000277505
8.94862e-05
-0.000297698
2.25658e-05
-0.000301081
-2.68942e-05
-0.000288434
-7.36738e-05
-0.000192101
-0.000168717
0.000149472
-9.53662e-05
1.74056e-05
-6.78803e-06
8.64284e-08
-3.10384e-09
6.91352e-12
-2.5955e-14
3.85256e-17
-7.37282e-20
1.71912e-22
-2.02283e-25
7.83935e-28
-2.48108e-31
0.000152957
-0.000191386
0.000304491
-0.000243376
0.000214067
-0.000283361
0.000118602
-0.000306621
3.73682e-05
-0.000312501
-2.86083e-05
-0.000299367
-9.50117e-05
-0.000267096
-8.16603e-05
-0.000110441
-0.000113812
2.23987e-05
-1.05829e-05
1.66927e-07
-8.91984e-09
2.48382e-11
-1.15605e-13
1.67562e-16
-3.51826e-19
7.94155e-22
-9.08617e-25
3.40823e-27
-1.22629e-30
2.82082e-05
-0.000135557
0.000360328
-0.000247223
0.00026072
-0.000290029
0.000151107
-0.000315866
5.52661e-05
-0.000324519
-2.1324e-05
-0.000319785
-9.84665e-05
-0.000295912
-0.000127079
-0.000221678
-0.000298531
0.00018809
-1.58073e-05
3.07352e-07
-2.50176e-08
8.47946e-11
-4.87325e-13
6.93846e-16
-1.67883e-18
3.83609e-21
-4.55313e-24
1.6313e-26
-6.09729e-30
5.7373e-07
-2.2483e-05
8.53562e-05
-0.000193137
0.000312437
-0.000298941
0.000187426
-0.000326348
7.5812e-05
-0.000336412
-1.20866e-05
-0.000333756
-8.5552e-05
-0.000332699
-0.000140808
-0.000282183
-0.00032679
-0.000193418
-2.67273e-05
0.000214817
-6.7e-08
2.7775e-10
-1.93719e-12
2.7377e-15
-7.41923e-18
1.80337e-20
-2.37885e-23
8.47026e-26
-3.23933e-29
8.50732e-10
-1.21393e-07
2.50746e-06
-4.58522e-05
0.000100993
-0.000254212
0.000227567
-0.000339081
9.96226e-05
-0.000350158
-5.20684e-07
-0.000347978
-7.45111e-05
-0.000344797
-0.000129585
-0.000343923
-0.000281665
-0.000327307
-3.95234e-05
-0.000180622
0.000305561
-9.0744e-05
-7.00211e-12
1.03914e-14
-2.71389e-17
8.06008e-20
-1.17731e-22
4.43286e-25
-1.82375e-28
5.78466e-14
-5.49273e-12
6.84342e-09
-7.9859e-07
5.03959e-06
-7.5667e-05
9.19955e-05
-0.000306197
0.00012525
-0.000364708
1.10704e-05
-0.000361749
-6.776e-05
-0.000354729
-0.000117894
-0.000356489
-0.000205319
-0.000420269
-2.20797e-05
-0.000344751
0.000321594
-0.000196655
0.0013524
1.54001e-05
-0.00145855
-9.1718e-17
3.41655e-19
-5.03386e-22
2.23317e-24
-1.00398e-27
1.63656e-18
9.48492e-17
8.68376e-13
-2.10136e-10
3.18872e-08
-2.77352e-06
6.42732e-06
-0.000105672
5.82888e-05
-0.000338194
2.34815e-05
-0.000377071
-6.76927e-05
-0.000361817
-0.000115899
-0.000356724
-0.000150467
-0.00041134
-1.32431e-05
-0.000429105
0.000322514
-0.00034567
0.00119138
-3.56342e-05
0.00128519
0.000152477
-0.00142227
4.88484e-05
-0.00150739
-1.72784e-21
1.0636e-23
-4.97876e-27
4.96963e-23
1.82084e-21
2.5829e-17
2.39892e-15
1.08354e-11
-1.91088e-09
6.44822e-08
-5.57911e-06
4.43187e-06
-0.000122959
1.0745e-05
-0.000348501
-6.59577e-05
-0.000375508
-0.000124098
-0.000353615
-0.000132296
-0.000374895
-1.05009e-05
-0.000414082
0.000280925
-0.000387516
0.000962237
-0.000116531
0.00111678
0.000132783
0.00127689
0.000321749
-0.00144616
0.000139361
-0.00151278
3.47414e-05
-0.00154213
-1.98886e-26
2.80156e-26
7.85323e-22
6.01981e-20
3.76683e-16
1.09134e-13
3.77395e-11
-5.46736e-09
3.40572e-08
-5.61787e-06
-3.43558e-07
-0.000117487
-4.51028e-05
-0.000336711
-0.000134892
-0.000358748
-0.000143698
-0.000342207
-3.90598e-05
-0.000346336
0.000203847
-0.000337003
0.000707168
-0.000132446
0.000879891
0.000120352
0.00105896
0.000350722
0.00133143
0.000511588
-0.00152127
0.000261701
-0.0015685
9.3447e-05
-0.00157148
1.44686e-05
-0.0015566
4.28485e-25
1.28001e-20
3.07548e-18
1.38e-15
8.66597e-13
1.65089e-11
-4.33947e-09
-1.09623e-08
-4.39618e-06
-3.08883e-06
-9.8003e-05
-8.26849e-05
-0.000309775
-0.000170417
-0.000325096
-9.26039e-05
-0.00028866
0.000100932
-0.000243421
0.000462594
-9.24279e-05
0.00061064
0.000136804
0.00081916
0.000360149
0.00110975
0.00057241
0.00139538
0.000764854
-0.00164865
0.000409495
-0.00166906
0.000171079
-0.00164613
3.64545e-05
-0.00159347
-2.11144e-05
-0.00153548
3.05259e-23
4.87461e-20
2.50225e-17
4.90676e-16
1.40908e-12
-5.04673e-12
-1.61704e-09
-1.83903e-08
-2.27525e-06
-3.3764e-06
-7.04119e-05
-9.56714e-05
-0.000265318
-0.000158734
-0.000252389
-1.50031e-05
-0.000172724
0.000254122
-3.49485e-05
0.000365953
0.000152261
0.000605774
0.00035019
0.000879535
0.000590361
0.00113156
0.000836234
0.00153064
0.00106801
-0.00183379
0.000597691
-0.00183684
0.000274306
-0.00177229
7.00622e-05
-0.00167974
-3.62473e-05
-0.00157834
-5.07521e-05
-0.00148473
2.66334e-22
1.43979e-20
3.69903e-17
-1.55424e-16
7.17152e-13
-5.12899e-12
-1.89e-10
-1.31583e-08
-8.57783e-07
-2.56101e-06
-4.69216e-05
-9.02146e-05
-0.000195062
-0.000128584
-0.000133323
8.33928e-05
-1.99413e-06
0.00017527
0.000155735
0.000424181
0.000333854
0.00064194
0.000587784
0.000866389
0.000855532
0.00115649
0.00121038
0.0015561
0.000310958
-0.00174894
0.000309354
0.000320406
0.000320132
0.000770153
-0.00200625
0.000378079
-0.00194062
0.000111622
-0.00181386
-5.28682e-05
-0.00166313
-0.000109314
-0.00151978
-8.13658e-05
-0.00140337
3.77639e-22
-4.38384e-21
1.43694e-17
-1.32697e-16
2.60488e-13
-2.60387e-12
1.00517e-10
-6.79492e-09
-1.96395e-07
-1.76915e-06
-2.48358e-05
-7.71844e-05
-0.000103307
-5.9696e-05
1.24113e-05
2.43478e-05
0.000148928
0.000254005
0.000325911
0.000397105
0.000578689
0.000621432
0.00083274
0.00081641
0.00119561
0.00121136
0.00155512
-7.73211e-07
0.000350494
-0.00035864
0.000319877
0.000237133
-0.00187002
0.000233864
0.000211773
0.00020846
0.000351563
-0.0003595
0.000316519
-3.9108e-07
0.000317403
0.000353888
0.000318124
0.000353179
0.000398943
-0.00202712
0.000142711
-0.00197171
-7.82845e-05
-0.00178844
-0.000177541
-0.0015949
-0.00016642
-0.00143473
-0.000100016
-0.00130335
1.2059e-22
-3.13888e-21
4.29346e-18
-5.8961e-17
7.78368e-14
-9.98184e-13
7.90344e-11
-2.95501e-09
4.91685e-08
-1.16087e-06
-5.23191e-06
-4.9786e-05
-4.21202e-06
-9.77111e-05
0.000140975
7.91598e-05
0.000323773
0.000166873
0.000556144
0.000400421
0.000799701
0.000525636
0.00112351
0.000847335
0.00155963
-0.000269424
-0.000270145
0.000942936
0.000438402
0.000439121
0.000454028
0.000455733
-8.44155e-07
-0.000342062
0.000221399
1.7173e-06
0.00027052
-0.000239304
0.000286942
-0.00167622
0.000205143
-0.00034213
0.00021565
2.12611e-07
-0.000272051
0.000141549
-0.000273491
0.000140034
0.000270105
-0.000235014
0.000283144
1.4237e-06
0.00035356
0.000354563
9.63347e-05
-0.00198074
-0.000132788
-0.00191721
-0.00025957
-0.00170641
-0.000268287
-0.00149303
-0.000207226
-0.00132752
-0.000123308
-0.00118005
3.27368e-23
-1.22502e-21
1.03755e-18
-1.96055e-17
2.15624e-14
-3.29323e-13
4.04662e-11
-1.18512e-09
1.02964e-07
-6.39429e-07
1.07346e-05
-4.52699e-05
7.75784e-05
-8.34123e-05
0.00031053
-1.30776e-05
0.000503727
0.000183708
0.000772858
0.000326979
0.000998359
0.000494446
0.0014764
0.000719036
0.000433259
0.000434527
0.000458029
0.000457718
6.66958e-07
0.00013048
-0.000126748
0.000434004
0.000127661
-0.000123982
0.000436108
2.1104e-07
0.000113676
0.000470621
0.000110411
0.000473193
5.33168e-07
-0.000182935
0.000164496
6.31186e-06
9.16006e-05
-2.04165e-05
8.74806e-05
1.04715e-05
8.47691e-05
2.67253e-05
-0.00145515
-0.000124736
0.000111175
0.000104093
-0.000324295
-9.9164e-05
-8.57894e-05
-2.66268e-05
-1.97924e-05
-0.000172738
0.000153906
-4.22678e-07
7.02115e-05
7.09663e-05
8.99565e-05
-1.10655e-05
8.67898e-05
1.23639e-05
8.38205e-05
2.7591e-05
4.85327e-06
0.000107417
5.10625e-05
0.000109759
4.53197e-05
0.000108947
5.62445e-05
0.000109876
5.03232e-05
-0.000236492
-0.00187704
-0.000367149
-0.00180963
-0.000387094
-0.0015876
-0.000322299
-0.00137796
-0.000247046
-0.00120378
-0.000138431
-0.00104161
7.59654e-24
-3.61222e-22
2.359e-19
-5.63776e-18
5.61833e-15
-9.5999e-14
2.1292e-11
-4.16767e-10
9.17539e-08
-4.22048e-07
1.76287e-05
-3.6886e-05
0.000173302
-0.0001324
0.00044421
-2.24987e-05
0.000709959
0.000164896
0.000934941
0.00015775
0.00133506
0.000482679
0.000424373
0.000422987
0.000433777
0.000431623
4.5742e-07
9.04282e-05
0.00045605
8.91834e-05
0.000456213
-8.26644e-08
8.33304e-05
0.000465209
8.28923e-05
0.000463926
1.56323e-06
4.98352e-05
-1.92596e-05
5.98947e-06
5.93613e-05
-7.93898e-06
0.000119383
7.4534e-05
0.000125256
2.53089e-05
4.7937e-05
-1.77887e-05
8.43084e-06
-9.7634e-06
5.92378e-05
0.000120673
7.64422e-05
0.000126613
2.58895e-05
1.12277e-06
5.54543e-05
8.71071e-05
0.00014345
8.79737e-05
0.000145394
5.39808e-05
8.88912e-05
0.000144086
8.92932e-05
0.000146002
3.47992e-06
8.59917e-05
4.67168e-05
-2.12401e-05
5.00559e-05
-2.09246e-05
1.00272e-05
6.30164e-06
1.31283e-06
-6.52156e-06
7.63604e-05
-6.41268e-06
-3.85894e-05
5.62823e-05
-8.08744e-07
1.25106e-06
1.62409e-05
7.08917e-05
-2.27281e-05
1.71657e-05
-0.00126849
-0.000423158
9.34643e-05
-0.000145221
-0.000133589
-0.000138815
-0.00012487
9.3313e-07
-0.000182659
0.000250889
-0.000168326
-0.000177478
0.000241266
-0.000148643
1.04981e-06
-0.000129701
-8.0635e-05
-0.000133596
-6.26245e-05
9.18758e-05
4.40804e-05
-1.74017e-05
4.8408e-05
-2.06419e-05
7.45016e-08
3.64789e-05
-2.42167e-05
3.95974e-05
-2.54314e-05
3.61402e-05
-2.14206e-05
3.92023e-05
-2.46015e-05
1.37503e-05
6.4667e-06
-9.27832e-06
7.71639e-05
-6.52233e-06
-3.80906e-05
5.59588e-05
1.0181e-06
2.10282e-05
7.12714e-05
-2.33795e-05
1.93466e-05
-3.40584e-06
9.74548e-06
6.56654e-07
9.38993e-05
-1.16707e-05
1.12409e-06
4.23494e-05
3.20515e-07
0.000100354
3.34612e-05
-5.36513e-06
9.89419e-06
9.57962e-05
-1.16123e-05
2.9442e-06
4.71239e-05
0.00010165
3.9782e-05
-0.000505304
-0.00173889
-0.00051704
-0.00167968
-0.000464018
-0.00144589
-0.000377586
-0.00124742
-0.000283383
-0.00105882
-0.000154835
-0.000886776
1.54629e-24
-9.28267e-23
5.63035e-20
-1.393e-18
1.30393e-15
-2.33261e-14
9.83208e-12
-1.63551e-10
6.60832e-08
-2.38881e-07
2.03387e-05
-2.91715e-05
0.000219379
-0.000157267
0.000605178
-3.72643e-05
0.000912201
-6.93549e-05
0.00116205
0.00020064
0.00039935
0.000399387
0.000410337
0.00040802
-2.57254e-07
6.36712e-05
0.000444289
6.38007e-05
0.000441821
-1.14792e-07
5.38865e-05
0.000443677
5.42921e-05
0.000441016
2.16419e-06
4.3167e-05
8.7408e-05
0.000141678
9.41131e-05
0.000143006
4.22352e-05
8.89243e-05
0.000141739
9.67962e-05
0.000142672
1.68407e-06
3.12989e-05
9.31452e-05
0.000143101
9.51123e-05
0.000144028
3.02772e-05
9.5235e-05
0.000142243
9.71843e-05
0.000142886
-1.215e-06
-2.38726e-05
3.06053e-05
5.38435e-05
-8.68913e-06
1.49543e-05
2.81454e-05
-1.31358e-05
-1.17604e-07
0.000113822
1.75681e-05
-3.38585e-06
-2.11724e-05
7.52196e-05
-1.24754e-07
-1.03436e-05
0.000119187
4.42861e-07
2.11763e-05
9.53718e-05
-7.27562e-06
1.37176e-05
3.09185e-05
-9.42513e-08
-2.32628e-05
2.78656e-05
5.47293e-05
-1.32045e-05
1.8185e-05
0.00011548
-3.45231e-06
-2.05573e-05
7.7189e-05
-1.05356e-05
0.000120367
2.41524e-05
9.65545e-05
-5.15736e-06
1.78579e-05
-1.33982e-05
8.78048e-05
7.92243e-06
5.65273e-08
-7.1017e-06
0.000137416
-3.94343e-06
8.86027e-05
-1.40998e-07
0.00013914
-5.12955e-06
1.75236e-05
-1.30972e-05
8.95943e-05
8.26048e-06
-7.22011e-06
0.000137972
-3.84619e-06
9.01057e-05
0.00013974
-1.55632e-05
7.3821e-06
6.16225e-07
2.0396e-05
3.38857e-05
-5.9933e-06
5.82147e-05
-1.71792e-05
8.9367e-07
4.38467e-05
6.44877e-05
-1.98154e-05
1.63032e-05
9.26128e-06
5.52497e-07
-1.8142e-05
6.83853e-05
-9.55103e-06
-5.23851e-05
5.81106e-05
3.01674e-06
7.699e-07
1.97991e-05
5.70922e-05
-3.75664e-05
1.16083e-05
-0.00111998
-0.000653818
0.000343486
-0.000178525
-0.00016934
-0.000168198
-0.000157117
1.69437e-06
-0.000302633
0.000334104
-0.000178385
-0.000296928
0.00033447
-0.000169436
1.35817e-06
-0.000191917
-0.000179174
3.80132e-06
-0.000290689
0.000356152
-7.69474e-05
-4.53732e-05
-7.34053e-05
-4.18318e-05
-0.000283608
0.00035801
-7.27815e-05
-4.15877e-05
-6.7928e-05
-3.6947e-05
3.22574e-06
-9.00283e-05
-1.77747e-05
-3.84304e-05
-9.24021e-05
-2.1627e-05
-5.80709e-05
-2.93727e-05
-2.68289e-05
-9.04178e-05
-1.86768e-05
-3.12077e-05
-8.95006e-05
-1.43302e-05
-5.11155e-05
-2.32862e-05
-2.44713e-05
-1.99874e-05
7.68509e-06
2.32351e-05
3.37638e-05
-6.06938e-06
5.89447e-05
-1.43183e-05
4.42731e-05
6.48285e-05
-1.88405e-05
1.71238e-05
1.4121e-05
1.69853e-07
2.54602e-05
-2.14554e-05
-7.21145e-05
-2.0675e-05
3.30177e-07
1.71766e-05
-1.89373e-05
1.96492e-05
1.41485e-05
2.57474e-05
-2.0334e-05
-7.24096e-05
-1.90948e-05
2.01709e-05
-1.80341e-05
2.14256e-05
9.29081e-06
-2.32485e-05
7.02485e-05
-9.20932e-06
-5.26969e-05
5.78738e-05
5.05061e-06
2.4501e-05
5.97566e-05
-3.76756e-05
1.3616e-05
1.06676e-05
5.49901e-07
8.56969e-05
2.15166e-05
9.76252e-06
8.74875e-05
2.55866e-05
-0.000645731
-0.0016102
-0.000640229
-0.00150347
-0.000522644
-0.00130083
-0.000438099
-0.0010927
-0.000312441
-0.000901216
-0.000162724
-0.000724046
2.71483e-25
-1.91428e-23
1.12878e-20
-2.94298e-19
3.92755e-16
-6.29978e-15
3.71445e-12
-5.24216e-11
3.04192e-08
-1.13399e-07
1.70934e-05
-2.06409e-05
0.000239444
-0.000174373
0.000780265
-0.000215004
0.00105895
-7.99359e-05
0.000354587
0.000353437
0.000366534
0.000368078
2.74084e-07
3.41807e-05
0.000418781
3.58919e-05
0.000418061
-2.20606e-08
1.31523e-05
0.000431387
1.49771e-05
0.000428913
1.46676e-06
2.34148e-05
8.60977e-05
0.00013649
9.14612e-05
0.000136623
2.14042e-05
8.78488e-05
0.000135945
9.24631e-05
0.00013591
1.34403e-06
5.63987e-06
9.7949e-05
0.000134201
9.39228e-05
0.000134062
1.4364e-06
0.000100009
0.000133502
9.5437e-05
0.000133405
-5.25116e-06
-1.02197e-05
8.94807e-05
-6.80636e-06
8.46301e-08
0.000136032
-4.96061e-06
-7.39015e-06
9.62393e-05
2.26627e-08
-3.25547e-06
0.000134438
-5.44865e-06
-9.81916e-06
9.1095e-05
-6.92501e-06
0.00013608
-5.08666e-06
-7.35735e-06
9.9421e-05
-3.43751e-06
0.00013413
-5.52466e-06
7.09165e-06
-6.63042e-06
9.82128e-05
3.56694e-06
3.27336e-08
-5.09891e-06
0.000139055
-5.88418e-06
0.000100703
2.622e-09
0.000138471
-5.79332e-06
7.87675e-06
-7.72039e-06
0.000100872
4.08067e-06
-5.75307e-06
0.000138146
-5.95824e-06
0.000103662
0.000137564
-5.78951e-06
2.95083e-05
-6.96786e-07
-2.29658e-05
-2.46844e-05
4.44533e-09
3.00813e-07
2.04574e-05
2.45349e-07
-1.79632e-05
-6.53743e-08
-1.25297e-05
-4.86732e-06
2.68414e-05
-6.94793e-07
-2.29679e-05
2.23974e-05
-2.49676e-05
3.05823e-07
-1.71807e-05
-1.25836e-05
3.15561e-08
1.56844e-05
-1.33927e-05
8.31858e-06
-8.5067e-08
-6.724e-06
6.40745e-07
-1.19251e-07
1.61481e-07
1.51127e-05
-1.27417e-05
8.41139e-06
-6.74154e-06
7.97476e-07
-2.08313e-05
1.18191e-05
4.91998e-07
2.24914e-05
1.99011e-05
-1.00267e-05
5.972e-05
-8.76185e-06
8.44991e-07
3.19275e-05
6.17551e-05
-1.00314e-05
1.53386e-05
7.10178e-06
3.20556e-07
-1.72302e-05
-6.51019e-06
-3.603e-05
3.88437e-05
2.75728e-07
1.88665e-05
-3.22181e-05
-0.00103779
-0.000727919
0.000395323
-0.000178326
-0.000172835
-0.000182158
-0.000172336
2.83913e-06
-0.000341441
0.000345396
-0.000185318
-0.000349345
0.000356644
-0.0001738
3.16019e-06
-0.000178695
-0.000168831
9.81011e-07
-0.000395951
0.000409691
-6.9359e-05
-2.21349e-05
-7.03398e-05
-3.12467e-05
-0.000407687
0.000426062
-6.64447e-05
-2.23176e-05
-6.70964e-05
-3.099e-05
2.3889e-06
-7.6968e-05
-4.4798e-05
-7.33103e-05
-3.8995e-05
-7.40356e-05
-4.39992e-05
-7.0052e-05
-3.83653e-05
-2.93812e-05
-0.000102939
0.00010691
-5.1537e-05
-9.3062e-05
3.61051e-07
9.60199e-05
-7.81227e-05
-2.79637e-05
-9.76906e-05
-5.06902e-05
3.58257e-07
-8.88343e-05
-7.43815e-05
-3.02437e-05
-0.000103015
0.000109265
-4.8787e-05
-9.7659e-05
0.000102916
-7.67274e-05
-2.84272e-05
-9.55653e-05
-4.69508e-05
-9.19459e-05
-7.07291e-05
-2.14972e-05
9.02018e-05
-8.98337e-05
-1.73016e-05
-2.81966e-05
-7.29439e-05
-1.19367e-05
8.26437e-05
1.45464e-06
-4.53575e-05
-8.19008e-05
-2.57526e-05
-3.98068e-05
1.00111e-06
-6.2317e-05
7.4439e-07
-2.52893e-05
-1.32861e-05
-2.11052e-05
8.6318e-05
-8.51615e-05
-1.1259e-05
-2.75538e-05
-7.23341e-05
-8.70743e-06
8.32089e-05
-3.77201e-05
-7.94696e-05
-2.55458e-05
-3.48171e-05
-5.65678e-05
-2.41453e-05