/*--------------------------------*- C++ -*----------------------------------*\
| =========                 |                                                 |
| \\      /  F ield         | OpenFOAM: The Open Source CFD Toolbox           |
|  \\    /   O peration     | Version:  5.x                                   |
|   \\  /    A nd           | Web:      www.OpenFOAM.org                      |
|    \\/     M anipulation  |                                                 |
\*---------------------------------------------------------------------------*/
FoamFile
{
    version     2.0;
    format      ascii;
    class       volScalarField;
    location    "0.9";
    object      alpha.water;
}
// * * * * * * * * * * * * * * * * * * * * * * * * * * * * * * * * * * * * * //

dimensions      [0 0 0 0 0 0 0];

internalField   nonuniform List<scalar> 
12160
(
1
1
1
1
1
1
1
1
1
1
1
1
1
1
1
1
1
1
1
1
1
1
1
1
1
1
1
1
1
1
1
1
1
1
1
1
1
1
1
1
1
1
1
0.999613
0.673854
1
1
1
1
1
1
1
0.996431
0.659501
0.0306504
1
1
1
1
1
1
1
0.995573
0.633455
0.0342069
0.000413107
1
1
1
1
1
1
1
0.99724
0.647516
0.0417068
4.1331e-05
7.33036e-07
1
1
1
1
1
1
1
0.999569
0.677554
0.056955
0.000140191
4.2914e-08
4.5926e-11
1
1
1
1
1
1
1
0.999999
0.70127
0.0839202
0.000359637
1.16092e-07
8.13862e-13
5.82952e-16
1
1
1
1
1
1
1
1
0.707158
0.114757
0.000995481
3.75796e-07
6.99825e-12
2.93743e-17
2.50789e-21
1
1
1
1
1
1
1
1
0.688743
0.130872
0.00224554
1.75011e-06
4.00446e-11
1.50373e-16
2.64728e-22
1
1
1
1
1
1
1
1
0.644851
0.126278
0.00377716
5.53156e-06
3.02043e-10
1.07e-15
2.34262e-21
1
1
1
1
1
1
1
1
0.583049
0.104739
0.00417046
1.2138e-05
1.19416e-09
8.6319e-15
2.0977e-20
1
1
1
1
1
1
1
1
0.512474
0.0765651
0.00315784
1.64668e-05
3.28219e-09
3.47245e-14
1.98452e-19
1
1
1
1
1
1
1
1
0.440706
0.0515984
0.00162076
1.09972e-05
5.24579e-09
1.04311e-13
8.68383e-19
1
1
1
1
1
1
1
1
0.372522
0.0327143
0.00068559
3.67332e-06
2.95876e-09
1.73555e-13
2.96744e-18
1
1
1
1
1
1
1
1
0.310674
0.0197026
0.000265319
8.6613e-07
5.89837e-10
9.71565e-14
5.19348e-18
1
1
1
1
1
1
1
1
0.256513
0.0113694
9.56655e-05
1.72909e-07
6.84556e-11
1.81422e-14
2.92368e-18
1
1
1
1
1
1
1
1
0.210404
0.00635516
3.23711e-05
3.06758e-08
6.69438e-12
1.96671e-15
5.23856e-19
1
1
1
1
1
1
1
1
0.172078
0.00348782
1.03953e-05
4.9895e-09
9.13559e-13
2.03522e-16
5.58843e-20
1
0.999999
1
1
1
1
1
1
0.140906
0.0019106
3.22341e-06
7.64717e-10
1.23625e-13
2.53155e-17
5.91693e-21
1
1
1
1
1
1
1
1
0.1161
0.00106653
9.89437e-07
1.15764e-10
1.60449e-14
2.90191e-18
6.36786e-22
1
1
1
1
1
1
1
1
0.0968639
0.000621695
3.13816e-07
2.15223e-11
2.22781e-15
3.28391e-19
6.29095e-23
1
1
1
1
1
1
1
1
0.0824673
0.000388952
1.09162e-07
5.63669e-12
4.08977e-16
4.28966e-20
6.40855e-24
1
1
1
1
1
1
1
1
0.0722967
0.000267263
4.4537e-08
1.64656e-12
8.97694e-17
7.05899e-21
7.77202e-25
0.999999
0.999999
1
1
1
1
1
1
0.0658682
0.000204342
2.248e-08
5.85861e-13
2.23837e-17
1.29338e-21
1.09924e-25
0.999999
0.999999
0.999999
1
1
1
1
1
0.0628231
0.000173217
1.44959e-08
2.71793e-13
7.06388e-18
2.7623e-22
1.7002e-26
0.999999
0.999999
0.999999
0.999999
1
1
1
1
0.0629087
0.000161074
1.15708e-08
1.69568e-13
3.04886e-18
7.80222e-23
3.15665e-27
1
1
0.999999
0.999999
0.999999
1
1
1
0.0659945
0.00016217
1.06853e-08
1.35986e-13
1.85688e-18
3.16415e-23
8.09789e-28
1
1
1
1
0.999999
1
1
1
0.0720595
0.00017635
1.09249e-08
1.2738e-13
1.4957e-18
1.88903e-23
3.12457e-28
1
1
1
1
1
1
1
1
0.0811465
0.000207072
1.22475e-08
1.31313e-13
1.41985e-18
1.52538e-23
1.83862e-28
1
1
1
1
1
1
1
1
0.0933574
0.000263271
1.53643e-08
1.47162e-13
1.47548e-18
1.46261e-23
1.48815e-28
1
1
1
1
1
1
1
1
0.10883
0.000361469
2.25138e-08
1.84743e-13
1.6546e-18
1.53089e-23
1.43942e-28
1
1
1
1
1
1
1
1
0.127723
0.000529809
3.94163e-08
2.77265e-13
2.08268e-18
1.72249e-23
1.51687e-28
1
1
1
1
1
1
1
1
0.150188
0.000814329
8.04288e-08
5.15366e-13
3.18336e-18
2.18002e-23
1.71404e-28
1
1
1
1
1
1
1
1
0.176342
0.00128734
1.83871e-07
1.15929e-12
6.21736e-18
3.38972e-23
2.18193e-28
1
1
1
1
1
1
1
1
0.206242
0.00205764
4.50205e-07
3.01478e-12
1.52317e-17
6.90841e-23
3.43924e-28
1
1
1
1
1
1
1
1
0.239855
0.00328142
1.13118e-06
8.52803e-12
4.43914e-17
1.83031e-22
7.24735e-28
1
1
1
1
1
1
1
1
0.277028
0.00517105
2.82341e-06
2.51288e-11
1.43395e-16
5.94836e-22
2.05153e-27
1
1
1
1
1
1
1
1
0.317461
0.00799777
6.86492e-06
9.26939e-11
4.82361e-16
2.19262e-21
7.34546e-27
1
1
1
1
1
1
1
1
0.360714
0.0120836
1.60921e-05
3.81863e-10
1.77738e-15
8.50881e-21
3.05551e-26
1
1
1
1
1
1
1
1
0.406333
0.017774
3.62086e-05
1.54521e-09
7.62741e-15
3.40877e-20
1.35686e-25
0.453582
1
1
1
1
1
1
1
1
0.0254161
7.8078e-05
5.95728e-09
3.42716e-14
1.51584e-19
6.1192e-25
0.0353617
0.530619
1
1
1
1
1
1
1
1
0.000162338
2.18904e-08
1.50386e-13
7.34286e-19
2.89487e-24
0.000322659
0.056817
0.635133
1
1
1
1
1
1
1
0.999999
7.77598e-08
6.33347e-13
3.5998e-18
1.48543e-23
2.58034e-07
0.000805354
0.0969379
0.718358
1
1
1
1
1
0.999998
0.999999
1
2.58273e-12
1.71073e-17
7.93974e-23
1.22005e-11
1.05904e-06
0.00249627
0.140582
0.773847
0.999996
1
1
1
0.999998
0.999997
0.999997
0.999999
1
7.79402e-17
4.19022e-22
3.55501e-16
8.6964e-11
7.11606e-06
0.00536555
0.175756
0.803479
0.999514
1
1
0.999999
0.999997
0.999997
0.999999
0.999996
0.999996
1
2.12273e-21
1.01734e-20
2.5137e-15
1.51032e-09
2.45704e-05
0.00771335
0.191601
0.815154
0.998117
0.999999
1
0.999998
0.999997
0.999997
0.999999
0.999996
0.999994
0.999994
0.999998
7.20544e-20
4.94164e-14
9.07352e-09
3.9998e-05
0.00784807
0.186379
0.815713
0.997178
0.999999
1
0.999997
0.999997
0.999999
0.999999
0.999997
0.999994
0.999994
0.999994
0.999994
1.51404e-18
3.167e-13
1.62479e-08
3.34182e-05
0.00604644
0.162968
0.809829
0.997134
1
0.999999
0.999997
0.999997
0.999999
0.999999
0.999999
0.999997
0.999995
0.999994
0.999994
0.999991
1.01889e-17
5.38672e-13
1.04166e-08
2.0102e-05
0.00387116
0.137258
0.803602
0.997483
1
0.999999
0.999998
0.999997
0.999999
1
1
1
1
0.999999
0.999998
0.999997
0.999999
1.63859e-17
3.07138e-13
4.8572e-09
9.93743e-06
0.00231944
0.117309
0.794225
0.998591
1
0.999999
0.999998
0.999997
0.999999
1
1
1
1
1
1
1
1
1
0.999999
0.999999
1
8.32614e-18
1.27467e-13
1.84739e-09
4.38073e-06
0.00140427
0.0984822
0.79254
0.996019
1
1
0.999998
0.999997
1
1
1
1
1
1
1
1
1
1
1
1
1
1
0.999999
0.999998
0.999999
3.02799e-18
4.28531e-14
6.27209e-10
1.81307e-06
0.000844319
0.0847297
0.740211
0.995594
0.999999
1
0.999998
0.999999
0.999999
1
0.999999
1
1
1
1
1
1
1
1
1
1
0.999999
0.999999
1
1
1
0.999997
0.999996
0.999998
9.02736e-19
1.26368e-14
1.99154e-10
7.27033e-07
0.00051284
0.0635622
0.704317
0.987905
0.999995
1
0.999999
0.999999
1
1
1
1
1
0.999998
1
0.999998
1
1
1
1
1
1
1
1
1
1
1
1
1
1
1
1
1
1
1
1
1
1
1
0.999999
1
0.999999
1
1
1
0.999995
0.999995
0.999996
2.34536e-19
3.51986e-15
5.74325e-11
3.05559e-07
0.000317507
0.0456093
0.618553
0.975439
0.999956
0.999999
0.999999
1
1
1
0.999999
0.999999
0.999998
0.999999
0.999998
1
1
1
1
1
1
0.999999
0.999998
0.999998
0.999998
0.999998
1
1
1
1
1
0.999998
0.999998
0.999998
0.999998
1
1
1
1
1
1
1
1
1
1.00001
1
1
1
1
1
1
1
1
1
1
1
1
1
1
1
1
1
1
1
1
1
1
1
0.999999
1
1
1
0.999999
1
1
0.999998
0.999995
0.999995
0.999993
5.73749e-20
8.74359e-16
1.70525e-11
1.14585e-07
0.000159268
0.0287909
0.51957
0.952294
0.998819
0.999995
1
1
1
1
0.999998
0.999998
0.999998
0.999998
0.999998
0.999999
0.999998
0.999998
0.999998
0.999998
0.999998
0.999998
0.999998
0.999999
0.999998
0.999999
0.999998
0.999999
0.999998
1
1
1
1
1
1
1
0.999998
0.999997
0.999999
0.999998
0.999998
0.999998
1
1
1
1
0.999998
0.999998
0.999998
0.999998
1
1
1
1
1
1
1
1
1.00001
1.00001
1
1.00001
1
1
1
1
1
1
0.999995
1
0.999991
1
1
1
1
1
0.999992
1
1
0.999996
1
1
0.999999
1
1
1
1
1
1
1
1
1
1
1
1
1
1
0.999999
1
0.999999
1
1
1
0.999998
1
1
0.999996
0.999995
0.999995
0.999995
1.16467e-20
2.3518e-16
4.33543e-12
3.53249e-08
6.67661e-05
0.0161538
0.396012
0.890222
0.993582
1
1
1
1
0.999999
0.999998
0.999999
1
0.999998
0.999998
0.999998
0.999998
0.999998
0.999998
0.999998
0.999998
0.999998
0.999998
0.999998
0.999998
0.999998
0.999998
0.999998
0.999998
1
0.999998
0.999998
0.999998
0.999998
0.999998
0.999998
0.999998
0.999998
0.999999
0.999999
0.999999
0.999998
0.999999
0.999998
1
1
1
1
1
1.00001
1.00001
1.00001
1.00001
1.00001
1.00001
1
1
1
1
1
1
0.999994
1
0.999999
1
0.999996
1
0.999992
1
0.999995
1
0.999999
1
0.999998
1
0.999979
0.999999
0.999984
1
0.999998
1
1
1
0.999994
0.999988
1
1
0.999992
1
0.999999
1
1
1
1
1
1
1
1
1
1
0.999998
1
1
1
1
0.999995
0.999995
0.999997
0.999999
2.65526e-21
5.87631e-17
9.16654e-13
7.36781e-09
2.29647e-05
0.0073152
0.232981
0.77732
0.986137
1
1
1
1
0.999999
1
0.999999
1
0.999998
0.999999
0.999998
0.999998
0.999998
0.999998
0.999998
0.999998
0.999998
0.999998
0.999998
0.999998
0.999998
0.999999
0.999998
0.999999
0.999999
0.999999
0.999998
0.999999
1.00001
1.00001
1.00001
1.00001
1.00001
1.00001
1
1.00001
1
1.00001
1
1
1
1
1
1
1
1
1
1
1
1
1
1
1
1
0.999984
1
0.999918
1
0.999968
1
0.999951
1
0.999965
1
0.999933
1
0.999984
1
0.999961
1
1
0.999999
0.999995
0.999997
0.999999
0.999999
4.85146e-22
1.66549e-17
9.94302e-14
1.28668e-09
4.39084e-06
0.00250983
0.0962262
0.614168
0.981822
0.982041
0.87392
0.874332
0.999998
0.999999
0.999578
0.999596
0.999999
0.999998
0.999999
0.999998
1
1
1
1
0.999999
0.999999
0.999999
0.999999
1
1
1
1
1
0.999999
1
0.999998
0.999998
0.999999
1
0.999999
0.999998
0.999998
1
0.999998
0.999998
1
1
1
1.00001
1.00001
1.00001
1
1.00001
1
1.00001
1
1
1
1
1
1
1
1
1
1
0.999999
1
0.999996
1
0.999999
1
0.999988
1
0.999994
1
0.999968
1
0.999869
1
1
0.999998
0.999995
0.999999
0.999999
0.999999
1.09875e-22
2.71826e-18
8.00231e-15
9.81467e-11
2.41591e-07
0.000757207
0.0311942
0.32747
0.99934
0.999538
0.758531
0.75938
0.999999
1
1
0.999999
0.999999
1
1
0.999999
1
1
0.999999
0.999998
0.999999
0.999998
1
1
1
1
0.999999
0.999999
0.999999
0.999998
1
1
1
1
0.999998
0.999999
0.999999
1
1
1.00001
1.00001
1
1.00001
1
1.00001
1
1.00001
1
1.00001
1
1
1
1
1
1
1
1
1
1
1
1
1
1
1
1
1
1
0.999998
1
0.999999
1
0.999994
1
0.999979
1
0.999993
1
0.999909
1
0.999961
1
1
0.999998
0.999998
0.999999
0.999999
6.48955e-24
4.46082e-19
2.86255e-16
1.93826e-17
1.88893e-11
0.000141125
0.00525824
0.215758
0.215797
0.0632247
0.0631754
0.912529
0.999238
0.821946
0.974005
0.913004
0.999327
0.822258
0.974342
0.597643
0.598698
0.999999
1
1
1
0.999999
1
1
1
0.982154
0.999995
0.998432
1
0.982401
0.999996
0.998462
1
0.999999
1
1
1
1
1
1
1
1
1.00001
1.00001
1
0.999999
1
0.999998
1
0.999999
1
1
1
1
1
1
1
1
1
0.999996
1
0.999997
0.999999
1
1
1
1
0.999996
1
1
1
1
1
1
1
1
1
0.999992
1
1
0.999999
0.999999
0.999999
9.29913e-25
2.218e-20
1.93091e-17
1.87395e-11
2.08019e-09
8.12287e-06
0.00217344
0.00217518
2.80432e-19
3.05001e-21
0.0925768
0.0925998
0.0105891
0.010591
0.863699
0.995716
0.726539
0.924633
0.864463
0.99574
0.7273
0.925366
0.657226
0.301578
0.43508
0.473576
0.659583
0.300925
0.436012
0.473769
1
1
1
0.999953
1
1
1
0.999955
0.984234
1
0.998597
1
0.984608
1
0.998639
1
1
1
1.00001
1.00001
1
1
0.999997
1
0.999997
1
0.99999
1
0.99999
1
1
1
1
1
0.999988
0.999998
0.999988
0.999997
0.999997
1
1
1
1
1
1
1
0.999997
0.999998
1
1
0.99999
0.999998
0.999992
0.99999
1
1
1
1
1
0.999999
0.999999
6.81563e-27
4.70411e-19
4.60532e-14
2.79645e-09
4.91767e-06
0.000115235
0.000498019
0.000498871
1.92691e-05
1.94157e-05
0.0317249
0.245875
0.0477211
0.0040918
0.0112737
0.28522
0.245704
0.0317627
0.285393
0.0477207
0.00411068
0.0113064
0.000105574
0.000105579
0.000730152
0.00140308
0.000105579
0.000105574
0.000737535
0.00140958
0.808613
0.985737
0.718853
0.927632
0.809725
0.986018
0.720095
0.92875
0.501534
0.351025
0.503099
0.350913
1
1
1
1
0.925751
0.999077
0.926347
0.999133
1
1
1.00001
1.00001
1
1.00001
1
1
0.999998
1
0.999999
1
0.999999
0.999996
1
0.999992
1
0.999994
1
1
1
0.999999
1
1
0.999993
0.999998
1
0.999999
0.99999
0.999996
0.999988
0.999991
0.999996
0.999995
1
0.999999
1
1
0.999999
1
0.999992
0.999992
1
1
1
1
1.49435e-28
6.40044e-16
1.25438e-11
5.50366e-07
0.000107692
0.000385985
0.000380841
0.000389203
0.000382849
0.000238257
0.000234527
0.000147977
0.000145932
0.113456
0.00317305
0.0114666
0.0814151
0.000122214
0.000306171
0.113464
0.00318491
0.0813209
0.0114584
0.000123348
0.000308866
0.000105579
0.000105574
0.000121141
0.000230113
0.000105574
0.000105579
0.000122469
0.000231385
0.568519
0.789241
0.569228
0.791081
1
1
1
1.00001
1.00001
1
1
0.999998
1
0.999998
1
0.999996
1
1
1
1
1
0.999998
0.999994
1
1
1
1
0.999999
0.999999
0.999999
1
1
1
0.999999
0.999997
0.999993
0.999992
0.999997
0.999998
0.999998
0.999998
0.99999
0.999993
0.999997
0.999995
0.999993
0.999993
0.999993
0.999993
0.999997
0.999995
1
1
1
-6.86652e-41
1.06512e-14
2.77955e-09
7.6422e-06
0.000354655
0.00029332
0.000201366
0.000407569
0.000281677
0.00029382
0.000123314
0.000300869
0.000148464
0.00030072
0.000136069
0.000300611
0.000155496
0.000272271
0.000240943
0.000110704
0.000228552
4.77009e-05
4.74236e-05
0.000117483
0.000233001
4.74236e-05
4.77009e-05
1
1
1
1.00001
1.00001
1.00001
1.00001
1
1.00001
1
1.00001
0.999999
1
0.999999
1
0.999996
1
1
1
1
1
0.999999
0.999998
1
1
0.999997
1
0.999995
0.999998
0.999996
0.999995
0.999999
0.999999
0.999996
0.99999
0.999995
0.999995
-9.0863e-39
-1.2041e-31
7.27867e-08
1.65331e-05
0.000761624
0.00054335
0.000189856
0.000417483
0.000180649
4.6357e-05
0.000698194
0.000296869
0.000300874
0.000124838
0.000300611
0.000180505
0.000285197
0.00013753
0.000300876
0.00018478
9.40679e-05
0.000205085
0.000169627
0.000272038
7.337e-05
0.000164931
0.000163741
0.000262806
0.000123923
0.000300876
0.000131841
0.000300611
1
1
1
1.00001
1
0.999998
1
0.999996
1
0.999999
1
1
0.999995
1
0.999994
1
1
1
1
0.999995
0.999999
0.999997
0.999999
1
1
1
1
-3.56671e-37
2.45572e-12
1.98851e-07
2.06505e-05
0.000781721
0.000888096
8.52182e-05
0.000387725
1.04651e-05
0.00011478
0.000119707
7.63206e-05
3.73216e-05
0.000346473
1.60696e-05
0.000130651
2.20819e-05
3.92947e-06
3.50872e-05
4.63266e-05
0.000848333
0.000470107
0.000173577
0.000146949
0.00026108
0.000179437
0.000171479
0.000160577
0.000254546
0.000184744
5.67268e-05
0.00019461
6.83465e-05
0.00014403
1
1
1
1.00001
1
1
1
1
0.999999
1
0.999996
0.999999
0.999998
1
0.999994
0.999998
0.999994
0.999999
1
1
0.999994
0.999998
1
1
0.999994
0.999998
1
1
0.999993
0.999997
1
1
-8.85202e-36
1.15952e-10
2.2424e-07
6.8052e-09
3.53452e-05
6.81019e-09
6.8052e-09
0.000555713
0.000896383
2.07362e-05
0.000346945
1.04059e-05
4.57041e-05
4.08027e-05
2.5953e-05
2.93372e-05
0.000228619
3.92947e-06
5.57477e-05
2.31568e-05
3.92947e-06
5.37833e-05
4.12576e-05
0.000475111
0.00189623
7.31163e-05
0.000311315
0.000464559
0.000805751
0.000117009
9.35878e-05
0.999999
1
1.00001
1
1
1
0.999999
1
0.999999
1
0.999998
1
1
0.999999
1
0.999999
1
0.999991
0.999997
0.999993
0.999993
0.999999
0.999994
0.999996
1
0.999998
0.999992
0.999996
0.999992
0.999997
0.999997
0.999997
0.999999
1
-4.52534e-33
4.66205e-10
1.38218e-08
3.8741e-08
6.64804e-07
4.55453e-09
3.35191e-08
0.00021585
0.00188404
3.83181e-05
1.77719e-05
0.000142623
4.0607e-06
3.31113e-05
0.000909045
0.000150607
5.59641e-06
0.000434605
1.4831e-05
4.02558e-06
3.15175e-05
1.48335e-05
4.01223e-06
3.02198e-05
3.92947e-06
3.92941e-06
0.000684732
8.23245e-06
0.00019661
0.999999
1
1.00001
1
1
1
1
1
1
1
1
1
1
1
1
1
1
0.999998
0.999995
0.999999
1
0.999991
0.999998
0.999998
1
0.999998
1
0.999991
0.999991
0.999995
0.999992
2.35201e-13
6.82098e-10
1.57976e-09
1.1553e-08
1.19108e-07
2.54168e-09
2.64508e-09
3.48212e-05
0.00112539
3.01102e-05
1.02102e-05
0.000153217
5.17737e-06
4.00884e-06
0.00121121
0.000131675
5.82995e-06
0.000257215
4.75196e-05
8.82952e-10
8.82639e-10
8.41047e-07
8.19416e-06
1.18254e-07
1.56303e-06
7.49734e-06
3.55748e-05
3.92945e-06
0.00116581
3.92947e-06
0.000547799
1
1
1
1
1
1
1
1
1
1
1
1
1
1
1
0.999999
1
1
1
1
1
1
0.999999
1
1
0.999991
0.999994
0.999995
0.999999
4.60406e-12
3.33467e-10
3.8226e-14
5.17674e-10
5.25731e-10
4.07715e-14
3.5099e-14
3.47238e-14
4.91519e-09
6.42139e-09
6.86698e-07
3.93315e-08
4.40173e-07
7.83773e-06
4.27719e-05
0.000540293
3.7515e-05
6.11242e-05
0.000216857
3.19498e-05
1.89452e-05
0.000804217
0.000124126
1.86503e-05
0.000385218
2.34714e-05
4.67442e-06
9.43634e-06
3.12841e-05
7.07474e-05
1
1
1
1
1
1
1
1
1
1
1
1
1
1
1
1
1
1
1
1
1
1
1
1
1
1
1
1
1
1
0.999999
2.90754e-12
2.52684e-11
9.80572e-14
4.31485e-13
1.55535e-13
6.32693e-13
1.72435e-12
1.79216e-12
3.17237e-33
2.19163e-09
4.22817e-09
2.3272e-09
2.09163e-07
1.61881e-31
2.73327e-33
-2.2975e-32
5.47415e-07
1.87158e-32
4.7047e-07
6.47035e-07
3.73749e-06
7.81685e-32
2.37751e-31
7.43533e-32
3.6388e-05
6.45511e-05
0.000161328
5.36669e-05
4.17591e-06
1.6144e-06
4.04358e-05
3.33823e-05
1
1
0.999999
1
1
1
1
1
1
1
1
1
1
1
1
0.999999
1
1
1
1
1
1
1
1
1
1
1
1
1
1
1.42792e-12
3.94736e-09
2.5738e-12
8.17457e-14
-2.94124e-32
5.42227e-11
2.19146e-12
4.66255e-14
1.89351e-31
1.39768e-10
1.1921e-11
1.95652e-10
-4.29207e-31
4.11561e-15
2.5706e-16
-1.75748e-24
1.60928e-30
5.3752e-13
1.16798e-31
3.75641e-05
4.31215e-14
8.8511e-06
8.00705e-32
7.83702e-14
3.99287e-06
3.27515e-05
9.56244e-05
8.36402e-05
0.999998
0.999999
0.999997
1
1
1
0.999997
1
0.999999
0.999997
1
1
1
1
1
1
1
1
1
1
1
1
1
1
0.999999
0.999999
1
1
1
1
1
1
1.85528e-10
2.77553e-08
2.11051e-09
1.90044e-08
1.0566e-07
1.43344e-08
2.11988e-08
1.16646e-11
6.38786e-30
1.5262e-11
8.15039e-12
1.94281e-29
1.59525e-10
1.30793e-10
1.40973e-10
2.79191e-09
1.5712e-09
4.93609e-09
5.6974e-12
1.62482e-14
1.57474e-11
8.50079e-12
-2.19999e-29
1.45949e-10
6.36593e-11
1.12209e-10
1.64988e-08
2.42291e-09
5.28267e-09
4.17672e-13
6.54766e-17
1.38638e-12
4.83669e-15
3.61897e-14
6.66507e-14
8.65265e-14
6.61603e-14
0.999996
0.999995
0.999997
1
1
1
0.999998
1
1
1
0.999996
0.999997
0.999996
1
0.999995
0.999998
0.999999
1
1
1
1
1
1
1
1
1
1
1
2.64158e-09
4.01073e-08
1.12826e-06
2.93495e-07
1.53541e-06
8.12325e-08
1.25476e-07
8.00466e-18
1.11722e-09
6.47819e-10
8.00466e-18
8.28067e-08
3.25765e-08
9.077e-10
1.26801e-07
2.91371e-08
4.47266e-08
2.28419e-08
9.72805e-09
8.88075e-10
5.80472e-08
8.00466e-18
1.36393e-09
8.00466e-18
6.68652e-10
7.34591e-08
3.0233e-08
1.32818e-07
6.74157e-08
3.08122e-08
5.74362e-08
2.5995e-08
7.04708e-08
7.00957e-08
3.47204e-07
0.999997
0.999998
0.999997
0.999995
0.999995
0.999991
0.99999
0.999996
1
0.999997
0.999999
0.999999
1
0.999992
0.999999
0.999991
1
0.999997
0.999999
1
0.999999
0.999989
0.999996
0.999999
0.999998
1
0.999999
0.999997
1
0.999998
0.999997
0.999997
0.999998
1
1
1
1
1.0691e-07
2.61842e-06
1.25094e-07
9.077e-10
6.27446e-05
3.42374e-06
7.88899e-07
3.88216e-07
6.31679e-05
1.57611e-06
1.55462e-06
4.80381e-08
2.83979e-08
1.59762e-06
6.07452e-07
1.87782e-08
7.22451e-09
2.96944e-06
6.60246e-07
2.47325e-10
1.43988e-08
5.26169e-08
2.72779e-08
1.64941e-06
6.08538e-07
1.72287e-08
2.92986e-06
1.55478e-07
6.52832e-07
7.77197e-10
1.67903e-07
0.999997
0.999998
0.999996
1
0.999994
0.999993
0.999987
0.999998
0.999995
0.999998
0.999998
0.999992
0.999998
0.999999
0.999989
0.999999
0.999993
0.999989
0.999997
0.999999
0.999993
0.999999
0.999989
0.999999
1
1
1
1
0.999997
0.999999
0.999993
1
1
1
1
2.91896e-07
1.58941e-05
1.5718e-05
0.000181373
1.09442e-07
1.53648e-07
3.71432e-08
9.01763e-10
0.000484576
0.00018437
7.63119e-07
5.38486e-07
1.35739e-07
5.0547e-07
0.000486126
8.82889e-07
7.32723e-07
6.64049e-09
1.32548e-22
9.0039e-09
1.04372e-08
7.57664e-07
6.61386e-07
1.20131e-07
-8.92945e-23
7.34211e-09
1.46734e-07
0.999996
0.999998
0.999972
1
1
0.999982
1
1
0.999986
0.999991
0.99999
0.999996
0.999996
0.999989
0.999994
0.999989
0.999992
0.999993
0.999997
0.999999
1
0.999993
0.999999
0.999997
1
1
1
0.999994
0.999998
1
1
2.19137e-07
2.66303e-05
7.39459e-08
2.62831e-05
6.9856e-08
0.00158951
3.30273e-05
1.26196e-06
9.63555e-09
2.0364e-05
3.1899e-09
4.69443e-09
0.000696971
0.00160032
3.47549e-05
1.76862e-06
1.05008e-08
2.24972e-05
4.97239e-08
4.81861e-08
0.000696701
3.46246e-07
1.32252e-08
2.91989e-07
1.14615e-08
0.999996
0.999994
0.999983
0.999972
0.999991
0.999982
0.999984
0.99999
0.999987
1
1
1
1
0.999992
0.999991
1
0.999999
0.999997
1
0.999999
0.999998
1
0.999995
1
1
1
1
2.15587e-08
8.6762e-07
2.38548e-05
8.18184e-07
2.31506e-05
1.12631e-05
1.09339e-05
0.00335806
0.000228785
0.00184572
0.00350619
5.26415e-05
-1.97387e-26
8.79345e-09
8.83741e-09
1.38218e-26
6.48977e-08
6.35263e-24
0.003379
0.000233074
0.00183856
0.00351186
5.61891e-05
-6.04664e-26
3.51088e-08
4.87744e-08
-2.11391e-26
3.82197e-08
1.70736e-09
0.999998
0.999989
0.999983
0.999983
0.999983
0.999983
0.999991
0.999984
0.99999
0.999992
0.99999
0.999993
0.999983
1
1
1
0.999999
1
1
0.999993
0.999997
1
1
1
1
1.24629e-11
5.38267e-06
6.6601e-08
5.1559e-06
5.96198e-08
8.47993e-05
0.000809598
8.28667e-05
0.000803399
0.000211237
0.000208567
0.0062135
0.00511702
0.00676803
0.00431461
0.000148705
0.00178817
0.00242151
0.000120581
-5.43238e-23
8.29473e-23
-5.60729e-24
-7.05995e-23
0.00625142
0.00508201
0.00687656
0.00428643
0.000145581
0.00176176
0.00240127
0.000115341
-3.18933e-23
-2.31444e-22
3.00135e-23
1.82021e-23
0.999997
0.99999
0.999992
0.99999
0.999989
0.99999
0.999996
1
1
1
1
1
0.999997
0.999988
0.999995
0.999998
1
0.999999
1
0.999998
1
1
0.999997
1
1
1
1
1
1
6.37725e-11
3.95901e-11
9.79231e-26
4.05405e-11
1.26793e-26
0.000281
9.82549e-06
0.000277102
9.38185e-06
0.000897919
0.00403641
0.000892689
0.00403964
0.00214774
6.43521e-05
0.00015075
0.00104202
0.00213846
6.28427e-05
0.000149729
0.00102651
0.00679132
0.00525915
0.00746882
0.00513206
0.00678842
0.00522023
0.0074641
0.00509827
0.999999
1
1
0.999985
0.999981
0.999993
0.999993
0.999999
0.999996
1
1
1
1
1
0.999995
1
1
1
1
0.999999
0.999998
0.999998
0.999999
1
1
1
0.999997
1
1
1
1
1
1
1
1
1.77929e-08
6.38678e-12
1.77252e-08
1.1015e-08
1.47677e-08
4.90593e-09
0.00112369
5.98343e-05
0.00112157
5.93927e-05
0.0049981
0.000191501
0.000519517
0.0027924
0.00784491
0.00436049
0.0061283
0.00632256
0.00500605
0.000190656
0.000519871
0.00279245
0.00790052
0.00432841
0.0061521
0.00628444
0.0030051
0.000242532
0.000867306
0.00181022
0.00298117
0.000240501
0.00086448
0.00179192
0.999995
1
1
0.999987
0.999991
0.999993
0.99999
0.999992
0.999989
1
0.999995
1
0.999999
0.999999
0.999995
1
0.999983
0.999999
0.999999
1
0.99999
0.999998
1
1
0.999995
1
0.999999
1
0.999998
4.62552e-09
1.54046e-07
3.11719e-07
8.49663e-08
2.15058e-07
8.15623e-12
2.37327e-07
1.9887e-08
2.27049e-07
1.09091e-08
0.000227326
0.000773769
0.00174122
7.87367e-05
2.62047e-05
2.17491e-09
2.17261e-09
1.85239e-05
0.00022968
0.000776246
0.00173482
7.80036e-05
2.60245e-05
2.17261e-09
2.17491e-09
1.82249e-05
0.004811
0.000740176
0.00139299
0.0034917
0.00829295
0.00420579
0.00556764
0.00693257
0.00482287
0.000753069
0.00139068
0.00351476
0.00829295
0.00421006
0.00555477
0.00692639
0.999996
0.999994
0.999989
0.99999
0.999974
0.999978
0.999982
0.999965
0.999975
0.999968
1
0.999996
1
0.99999
0.999999
0.999998
1
0.999985
1
1
1
0.999998
0.999999
0.999994
1
0.99999
0.999994
0.999992
0.999997
0.999983
0.999997
0.999995
0.999999
0.99999
1.33645e-10
2.17646e-07
5.65578e-08
1.60418e-07
4.56226e-08
1.59421e-07
4.85299e-07
5.19413e-08
3.38069e-07
8.47604e-10
7.88286e-08
2.84928e-08
1.59008e-08
1.43441e-08
9.12354e-08
1.43441e-08
4.51243e-08
1.44787e-08
2.89339e-08
2.33853e-08
8.0901e-09
2.5832e-09
3.05128e-08
2.5832e-09
1.58206e-08
2.62421e-09
5.56826e-05
0.000446866
0.000478231
2.31231e-05
1.91201e-05
1.53274e-06
1.08034e-06
1.41626e-05
5.28819e-05
0.000459019
0.000457374
2.43377e-05
1.93851e-05
1.42225e-06
9.571e-07
1.41372e-05
0.999997
0.999994
0.999997
1
0.999997
0.999997
0.999965
0.999994
0.999973
1
1
1
1
1
0.999991
0.999995
0.999997
0.999991
1
0.999998
1
0.999999
1
1
1
1
0.999997
0.999991
0.999999
0.999986
0.999995
0.999992
0.999998
0.999985
0.999999
1
1
0.999997
0.999996
0.999993
0.999998
0.99999
1.58471e-08
1.87706e-09
5.44773e-07
3.02857e-07
4.6022e-07
2.52929e-07
2.93752e-08
4.34013e-08
3.63368e-08
2.7636e-08
1.978e-09
1.34537e-07
1.70857e-07
8.01513e-08
8.61209e-08
2.58479e-09
5.42723e-09
2.59465e-09
1.71981e-08
6.75342e-09
7.19499e-10
4.0006e-08
9.95496e-08
5.95911e-08
3.82423e-08
6.69565e-10
1.89687e-09
2.90037e-07
8.54543e-08
2.04856e-07
9.4369e-08
3.04317e-07
9.86298e-08
8.34036e-08
2.2696e-08
6.19569e-08
4.67531e-09
8.49168e-08
4.1027e-09
8.64617e-08
1.74188e-07
2.30764e-07
8.3115e-08
8.3115e-08
9.94869e-08
1.03089e-07
8.64617e-08
0.999996
0.999995
0.999996
0.999998
0.999996
0.999997
1
1
1
0.999993
0.999985
0.999973
0.99998
0.999982
1
1
1
1
1
1
1
1
1
1
1
1
1
1
1
1
0.999998
0.999986
0.999999
0.999996
1
0.999999
1
1
1
1
1
1
1.40576e-09
1.0879e-07
6.66789e-09
1.12422e-07
8.07178e-09
1.13862e-08
3.8147e-07
3.57552e-07
3.01263e-07
3.13132e-07
9.60972e-08
2.14907e-07
1.96476e-07
9.4716e-09
4.69669e-08
9.01373e-10
3.79971e-09
7.38318e-10
1.4174e-08
1.29223e-09
4.90445e-09
1.1015e-07
7.13881e-08
3.42605e-09
5.00046e-09
1.50267e-10
8.77393e-10
6.69565e-10
4.88293e-09
6.65226e-10
5.32695e-10
2.91014e-07
1.40048e-07
2.47337e-07
1.76243e-07
3.03228e-07
1.48526e-07
1.14162e-07
2.26183e-08
9.12948e-08
1.10326e-08
1.04277e-07
8.27649e-09
0.999983
0.999997
0.999999
0.999994
0.999998
0.999994
0.999999
1
0.999999
1
0.999996
1
1
0.999998
1
0.999999
1
1
0.999995
1
0.99999
1
1
0.999993
1
0.999999
1
0.999997
0.999985
0.999991
0.999995
1
0.999999
1
1
1
1
1
1
1
0.999998
0.999999
1
1
1
1
1
6.87586e-08
6.47564e-12
5.48069e-14
1.64392e-11
5.47195e-14
6.24652e-08
3.31517e-09
8.30626e-08
5.66536e-09
3.57855e-08
2.56287e-07
6.14597e-08
5.15964e-08
1.16847e-07
4.41994e-07
1.36519e-07
3.93412e-07
1.73004e-07
2.07809e-07
3.64271e-08
2.72248e-08
8.28415e-08
4.40341e-07
1.34635e-07
4.32743e-07
1.60369e-07
1.536e-23
-7.85933e-25
1.17652e-07
7.072e-08
7.63544e-07
1.24908e-09
6.91571e-24
1.48523e-24
4.41616e-08
2.85465e-08
3.30561e-07
6.69565e-10
4.62728e-11
0.999963
0.999995
0.999997
1
1
0.999999
0.999999
0.999996
1
0.999998
1
1
0.999999
1
1
0.999992
0.999999
0.999996
0.999998
0.999997
0.999999
0.999999
0.999996
1
1
0.999988
0.999997
0.999987
0.999998
0.999987
0.999998
1
0.999997
0.999998
1
1
1
1
1
1
1
1
1
7.61362e-06
3.63415e-07
6.33568e-11
6.98268e-08
2.68402e-11
1.44275e-07
1.18927e-08
2.06915e-08
1.37743e-08
2.19662e-08
1.04222e-08
9.99508e-08
8.86083e-26
-9.80051e-26
6.64574e-09
8.39547e-09
2.14198e-08
2.27078e-08
2.04331e-08
3.35006e-08
2.78518e-08
1.45438e-07
4.24025e-26
-2.64915e-25
1.06457e-08
4.07126e-08
2.89036e-08
4.01373e-08
3.48068e-08
3.06578e-08
3.85591e-08
9.27783e-08
3.3801e-08
4.3915e-08
5.34719e-08
2.87994e-08
5.80981e-08
1.23669e-07
3.98989e-08
1.15904e-13
0.999982
0.999986
0.999991
1
0.99999
0.999999
0.99999
1
1
1
1
1
0.999992
0.999998
0.999998
1
1
1
1
1
0.99999
0.999997
0.999998
1
1
1
1
1
1
0.999996
0.999998
0.999997
0.999998
0.999996
1
0.99999
0.999997
0.999987
0.999994
7.59802e-06
9.87356e-06
7.71241e-06
1.2576e-05
7.71241e-06
8.01232e-07
1.21117e-07
1.07763e-06
6.00686e-07
2.00551e-06
1.6779e-09
4.57077e-27
1.68914e-08
-1.05405e-26
8.64934e-07
2.11007e-07
4.61501e-07
2.36541e-06
2.22143e-06
1.64575e-06
5.17408e-09
9.45703e-28
2.81684e-08
1.0546e-26
3.61467e-06
4.94878e-07
2.52241e-06
5.82088e-06
6.45839e-06
3.72889e-06
2.44689e-09
9.09447e-09
5.64737e-09
1.53857e-08
1.29699e-08
1.21485e-16
0.999997
0.999982
0.999987
0.999993
1
0.999998
1
0.999999
1
1
1
1
1
1
1
1
1
1
0.999998
0.999998
1
1
1
1
1
1
1
1
0.999998
0.999992
0.999996
0.999993
1
1
0.999998
0.999991
0.999994
0.999999
1
1
0.000472217
1.19555e-05
0.000709526
0.000763358
0.000852247
0.000828197
3.23733e-07
6.54421e-06
1.54946e-05
1.53508e-05
6.28899e-06
0.000287843
1.30149e-05
4.24697e-05
2.96779e-05
1.44e-05
0.00054
2.38432e-05
3.30376e-06
5.62574e-05
2.94346e-05
8.93469e-05
3.28558e-05
5.52537e-05
3.0785e-06
0.000133623
5.36768e-05
0.000193134
5.84166e-05
1.47882e-11
9.77976e-20
1
0.999983
0.999982
0.999992
1
0.999999
0.999996
0.999991
1
1
1
1
1
1
1
1
1
1
1
1
1
1
0.999998
0.999998
1
1
1
1
1
1
1
1
1
0.999999
1
1
0.000345737
0.000842171
0.000874078
0.000810485
0.000865201
8.84375e-06
0.00161036
0.00128178
0.00139525
0.00114521
2.37647e-08
4.75315e-05
0.000158647
0.000156757
2.11973e-05
0.00022514
0.00261993
0.000402666
0.00237634
7.24526e-05
0.000132622
0.000151459
6.8074e-05
0.000286598
0.00264508
0.000426222
0.00236716
0.000377719
0.000239159
0.000349315
0.000267093
5.44136e-15
1.33099e-24
1
0.999993
0.999982
0.99999
0.999994
1
0.999999
0.999996
0.999992
1
1
1
1
1
1
1
1
1
0.999999
1
1
1
1
1
1
1
1
1
1
1
1
0.000324791
4.54208e-05
0.000678035
0.000974855
0.000631315
0.000974266
1.29705e-06
0.000735711
0.000630256
0.00066035
0.000986683
3.18402e-05
0.00220307
0.000617576
2.3332e-05
0.00162769
0.000460313
0.000442044
0.000345807
0.000703482
0.000485509
9.00446e-11
0.000111643
0.000158376
0.000181216
0.000268704
0.000207055
0.00243335
0.000425927
0.000224444
0.000251938
0.000368285
3.94102e-05
0.00207545
1.72836e-19
9.67507e-27
1
0.999999
0.999991
0.999992
0.99999
0.999993
0.999994
0.999988
0.99999
1
1
0.999996
0.99999
1
1
1
1
1
1
1
1
1
1
1
1
1
1
1
1
1
1
1
1
4.50551e-05
3.75662e-05
3.20223e-19
3.76039e-05
2.83743e-19
1.09505e-06
0.000675957
0.000484009
0.000662235
0.000487271
1.60515e-08
5.9304e-05
0.000128654
3.18995e-05
7.57458e-05
0.000615193
0.000504232
0.000158218
0.000252284
9.48487e-05
0.000140023
2.32739e-05
0.000351372
2.37744e-05
7.70241e-05
2.77666e-05
0.000301362
0.000128405
0.000233842
4.72997e-05
0.000100941
5.92722e-15
0.00123801
0.000241838
0.00129701
0.000119509
1.44131e-20
2.74371e-25
1
1
0.999999
0.999997
0.999987
0.99999
0.999995
0.999993
0.999989
0.999993
1
1
1
1
1
1
0.999998
0.999996
1
1
0.999999
1
0.999996
0.999988
1
1
1
1
1
1
1
1
1
1
1
1
0.00663451
0.000182394
0.000667157
0.00285388
0.000666132
0.00285599
1.58183e-08
0.000220628
0.000295198
0.00066784
0.000523328
0.000673911
0.000450773
0.000384429
0.000194741
0.000287535
0.000658394
0.000496129
0.000671878
0.000446213
0.000384223
1.0153e-12
3.06841e-05
0.000188787
6.88759e-05
5.65482e-05
2.31955e-05
8.86413e-05
3.67051e-05
5.44756e-05
5.69681e-17
1.81669e-19
7.37482e-25
1
1
1
1
0.999988
0.999989
0.999985
0.999992
0.999985
0.999992
0.999994
0.999995
0.999999
0.999993
1
1
1
1
1
1
0.999999
1
0.999999
1
0.999997
1
1
0.999995
1
0.999992
0.999986
0.999999
0.999996
1
1
1
1
1
0.351298
0.0351259
0.00090247
0.0152706
0.0797746
0.0152694
0.0797529
7.41196e-07
0.000418587
0.000548531
0.000552045
0.000379613
0.000671878
0.000347065
0.000237136