/*--------------------------------*- C++ -*----------------------------------*\
| =========                 |                                                 |
| \\      /  F ield         | OpenFOAM: The Open Source CFD Toolbox           |
|  \\    /   O peration     | Version:  5.x                                   |
|   \\  /    A nd           | Web:      www.OpenFOAM.org                      |
|    \\/     M anipulation  |                                                 |
\*---------------------------------------------------------------------------*/
FoamFile
{
    version     2.0;
    format      ascii;
    class       volScalarField;
    location    "0.9";
    object      k;
}
// * * * * * * * * * * * * * * * * * * * * * * * * * * * * * * * * * * * * * //

dimensions      [0 2 -2 0 0 0 0];

internalField   nonuniform List<scalar> 
12160
(
9.96539e-09
9.94929e-09
1.00221e-08
9.94374e-09
1.00394e-08
1.00069e-08
9.94224e-09
1.00525e-08
1.0012e-08
1.00057e-08
9.94192e-09
1.00474e-08
1.00152e-08
1.0009e-08
1.00056e-08
9.94187e-09
1.00428e-08
1.00148e-08
1.00104e-08
1.00086e-08
1.00062e-08
9.94186e-09
1.00372e-08
1.00136e-08
1.00102e-08
1.00096e-08
1.00092e-08
1.00065e-08
9.94186e-09
1.00314e-08
1.00125e-08
1.00098e-08
1.00095e-08
1.00099e-08
1.001e-08
1.00077e-08
9.94186e-09
1.00264e-08
1.00115e-08
1.00094e-08
1.00093e-08
1.00098e-08
1.00105e-08
1.00111e-08
1.00294e-08
9.94186e-09
1.00223e-08
1.00106e-08
1.0009e-08
1.00089e-08
1.00095e-08
1.00102e-08
1.00112e-08
1.00239e-08
1.00312e-08
9.94186e-09
1.00189e-08
1.00099e-08
1.00086e-08
1.00087e-08
1.00091e-08
1.00097e-08
1.00112e-08
1.00198e-08
1.00291e-08
1.00347e-08
9.94186e-09
1.00163e-08
1.00092e-08
1.00084e-08
1.00084e-08
1.00088e-08
1.00092e-08
1.00108e-08
1.00195e-08
1.00257e-08
1.00267e-08
1.0022e-08
9.94186e-09
1.00142e-08
1.00087e-08
1.00081e-08
1.00082e-08
1.00085e-08
1.00088e-08
1.00103e-08
1.00191e-08
1.00236e-08
1.00284e-08
1.00163e-08
1.00147e-08
9.94186e-09
1.00125e-08
1.00083e-08
1.00079e-08
1.0008e-08
1.00083e-08
1.00085e-08
1.00101e-08
1.0018e-08
1.00201e-08
1.00328e-08
1.0015e-08
1.00127e-08
1.00126e-08
9.94186e-09
1.00113e-08
1.0008e-08
1.00078e-08
1.00078e-08
1.00081e-08
1.00082e-08
1.00099e-08
1.00163e-08
1.00172e-08
1.00313e-08
1.00207e-08
1.00113e-08
1.00101e-08
1.00089e-08
9.94186e-09
1.00103e-08
1.00078e-08
1.00077e-08
1.00077e-08
1.00079e-08
1.0008e-08
1.00099e-08
1.00147e-08
1.00154e-08
1.00291e-08
1.00238e-08
1.00112e-08
1.001e-08
1.0006e-08
9.94186e-09
1.00096e-08
1.00077e-08
1.00076e-08
1.00076e-08
1.00078e-08
1.00079e-08
1.00099e-08
1.00133e-08
1.00142e-08
1.00261e-08
1.00252e-08
1.00111e-08
1.00097e-08
1.00064e-08
9.94186e-09
1.00089e-08
1.00076e-08
1.00075e-08
1.00076e-08
1.00077e-08
1.00077e-08
1.001e-08
1.00122e-08
1.00131e-08
1.00227e-08
1.00229e-08
1.00113e-08
1.00098e-08
1.00064e-08
9.94186e-09
1.00082e-08
1.00073e-08
1.00075e-08
1.00075e-08
1.00076e-08
1.00076e-08
1.001e-08
1.00113e-08
1.00122e-08
1.00195e-08
1.00188e-08
1.00115e-08
1.00097e-08
1.00072e-08
9.94186e-09
1.00076e-08
1.0007e-08
1.00073e-08
1.00075e-08
1.00075e-08
1.00076e-08
1.00101e-08
1.00105e-08
1.00116e-08
1.00164e-08
1.00152e-08
1.00112e-08
1.00094e-08
1.00079e-08
9.94186e-09
1.00071e-08
1.00066e-08
1.0007e-08
1.00072e-08
1.00075e-08
1.00075e-08
1.00101e-08
1.00098e-08
1.00113e-08
1.00137e-08
1.00124e-08
1.00103e-08
1.00091e-08
1.00085e-08
9.94186e-09
1.00067e-08
1.00063e-08
1.00066e-08
1.00069e-08
1.00073e-08
1.00075e-08
1.00101e-08
1.00093e-08
1.0011e-08
1.00119e-08
1.00105e-08
1.00094e-08
1.00087e-08
1.00084e-08
9.94186e-09
1.00063e-08
1.0006e-08
1.00063e-08
1.00066e-08
1.0007e-08
1.00073e-08
1.00101e-08
1.00088e-08
1.00108e-08
1.00106e-08
1.00094e-08
1.00087e-08
1.00084e-08
1.00082e-08
9.94186e-09
1.00061e-08
1.00057e-08
1.0006e-08
1.00062e-08
1.00066e-08
1.0007e-08
1.001e-08
1.00085e-08
1.00106e-08
1.00097e-08
1.00087e-08
1.00082e-08
1.00081e-08
1.0008e-08
9.94186e-09
1.00059e-08
1.00055e-08
1.00057e-08
1.00059e-08
1.00063e-08
1.00066e-08
1.00098e-08
1.00082e-08
1.00103e-08
1.00091e-08
1.00082e-08
1.0008e-08
1.0008e-08
1.00079e-08
9.94186e-09
1.00058e-08
1.00054e-08
1.00055e-08
1.00056e-08
1.0006e-08
1.00063e-08
1.00095e-08
1.00081e-08
1.001e-08
1.00085e-08
1.00079e-08
1.00078e-08
1.00078e-08
1.00078e-08
9.94185e-09
1.00059e-08
1.00053e-08
1.00053e-08
1.00053e-08
1.00057e-08
1.00059e-08
1.00092e-08
1.0008e-08
1.00098e-08
1.00081e-08
1.00076e-08
1.00076e-08
1.00077e-08
1.00077e-08
9.94185e-09
1.0006e-08
1.00053e-08
1.00052e-08
1.0005e-08
1.00054e-08
1.00055e-08
1.00089e-08
1.0008e-08
1.00096e-08
1.00079e-08
1.00075e-08
1.00074e-08
1.00075e-08
1.00076e-08
9.94185e-09
1.00063e-08
1.00055e-08
1.00053e-08
1.0005e-08
1.00052e-08
1.00049e-08
1.00084e-08
1.00081e-08
1.00094e-08
1.00078e-08
1.00074e-08
1.00074e-08
1.00074e-08
1.00075e-08
9.94186e-09
1.00066e-08
1.00057e-08
1.00054e-08
1.0005e-08
1.00051e-08
1.0004e-08
1.0008e-08
1.00082e-08
1.00092e-08
1.00078e-08
1.00075e-08
1.00074e-08
1.00074e-08
1.00074e-08
9.94186e-09
1.0007e-08
1.00059e-08
1.00056e-08
1.00052e-08
1.00052e-08
1.00036e-08
1.00074e-08
1.00083e-08
1.00088e-08
1.00078e-08
1.00075e-08
1.00074e-08
1.00074e-08
1.00074e-08
9.94186e-09
1.00073e-08
1.00061e-08
1.00059e-08
1.00055e-08
1.00054e-08
1.00043e-08
1.0007e-08
1.00083e-08
1.00084e-08
1.00076e-08
1.00075e-08
1.00074e-08
1.00074e-08
1.00074e-08
9.94186e-09
1.00078e-08
1.00063e-08
1.00061e-08
1.00058e-08
1.00056e-08
1.00049e-08
1.00071e-08
1.00081e-08
1.00078e-08
1.00073e-08
1.00074e-08
1.00074e-08
1.00074e-08
1.00074e-08
9.94186e-09
1.00083e-08
1.00066e-08
1.00063e-08
1.0006e-08
1.00058e-08
1.00054e-08
1.00072e-08
1.00079e-08
1.00074e-08
1.00069e-08
1.00072e-08
1.00073e-08
1.00073e-08
1.00068e-08
9.94186e-09
1.00088e-08
1.00068e-08
1.00065e-08
1.00062e-08
1.00061e-08
1.00057e-08
1.00077e-08
1.00077e-08
1.00074e-08
1.00066e-08
1.0007e-08
1.0007e-08
1.00071e-08
1.00057e-08
9.94186e-09
1.00094e-08
1.0007e-08
1.00067e-08
1.00065e-08
1.00063e-08
1.0006e-08
1.00082e-08
1.00077e-08
1.00076e-08
1.00064e-08
1.00067e-08
1.00065e-08
1.00068e-08
1.0006e-08
9.94186e-09
1.001e-08
1.00072e-08
1.00069e-08
1.00067e-08
1.00065e-08
1.00063e-08
1.00085e-08
1.00077e-08
1.0008e-08
1.00065e-08
1.00066e-08
1.00061e-08
1.00062e-08
1.00059e-08
9.94186e-09
1.00108e-08
1.00074e-08
1.0007e-08
1.00068e-08
1.00067e-08
1.00065e-08
1.00088e-08
1.00078e-08
1.00085e-08
1.00068e-08
1.00066e-08
1.00058e-08
1.00055e-08
1.00053e-08
9.94186e-09
1.00116e-08
1.00075e-08
1.00072e-08
1.0007e-08
1.00069e-08
1.00067e-08
1.0009e-08
1.00079e-08
1.00089e-08
1.00071e-08
1.00068e-08
1.00061e-08
1.00054e-08
1.00044e-08
9.94185e-09
1.00127e-08
1.00077e-08
1.00073e-08
1.00072e-08
1.00071e-08
1.00069e-08
1.00091e-08
1.0008e-08
1.00093e-08
1.00075e-08
1.0007e-08
1.00065e-08
1.00057e-08
1.00042e-08
1.0014e-08
9.94186e-09
1.0008e-08
1.00074e-08
1.00073e-08
1.00072e-08
1.00071e-08
1.00092e-08
1.00081e-08
1.00095e-08
1.00078e-08
1.00072e-08
1.00068e-08
1.00061e-08
1.00043e-08
1.00083e-08
1.0016e-08
9.94186e-09
1.00075e-08
1.00074e-08
1.00073e-08
1.00072e-08
1.00093e-08
1.00081e-08
1.00095e-08
1.0008e-08
1.00074e-08
1.0007e-08
1.00066e-08
1.00045e-08
1.00077e-08
1.00087e-08
1.00202e-08
9.94186e-09
1.00075e-08
1.00074e-08
1.00073e-08
1.00093e-08
1.00082e-08
1.00094e-08
1.00081e-08
1.00075e-08
1.00073e-08
1.00069e-08
1.00053e-08
1.00076e-08
1.00079e-08
1.00096e-08
1.00258e-08
9.94196e-09
1.00076e-08
1.00074e-08
1.00094e-08
1.00083e-08
1.00092e-08
1.0008e-08
1.00075e-08
1.00074e-08
1.00072e-08
1.00066e-08
1.00077e-08
1.00078e-08
1.00082e-08
1.00108e-08
1.00337e-08
9.94322e-09
1.00075e-08
1.00094e-08
1.00085e-08
1.00092e-08
1.00079e-08
1.00073e-08
1.00073e-08
1.00072e-08
1.0007e-08
1.00076e-08
1.00079e-08
1.0008e-08
1.00087e-08
1.00126e-08
1.00466e-08
9.94935e-09
1.00094e-08
1.00089e-08
1.00094e-08
1.00079e-08
1.0007e-08
1.00071e-08
1.00072e-08
1.0007e-08
1.00093e-08
1.00078e-08
1.00081e-08
1.00084e-08
1.00094e-08
1.00163e-08
1.00715e-08
9.96139e-09
1.00095e-08
1.00099e-08
1.00084e-08
1.0007e-08
1.00069e-08
1.0007e-08
1.0007e-08
1.00101e-08
1.00093e-08
1.00081e-08
1.00084e-08
1.00088e-08
1.00109e-08
1.00267e-08
1.01239e-08
1.00136e-08
1.00104e-08
1.00093e-08
1.00073e-08
1.00068e-08
1.00069e-08
1.0007e-08
1.00107e-08
1.00106e-08
1.00092e-08
1.00084e-08
1.00088e-08
1.00096e-08
1.00157e-08
1.00546e-08
1.01839e-08
9.96473e-09
1.00105e-08
1.00079e-08
1.00071e-08
1.0007e-08
1.0007e-08
1.00116e-08
1.00109e-08
1.00114e-08
1.00092e-08
1.00088e-08
1.00094e-08
1.00117e-08
1.003e-08
1.01054e-08
1.02567e-08
9.98692e-09
1.00089e-08
1.00076e-08
1.00072e-08
1.00071e-08
1.00097e-08
1.00129e-08
1.00113e-08
1.0012e-08
1.00092e-08
1.00091e-08
1.00103e-08
1.00181e-08
1.00625e-08
1.01654e-08
1.01569e-08
1.00114e-08
1.00082e-08
1.00076e-08
1.00073e-08
1.00086e-08
1.00104e-08
1.00149e-08
1.00117e-08
1.00124e-08
1.00092e-08
1.00096e-08
1.00128e-08
1.0035e-08
1.01087e-08
1.01622e-08
1.00529e-08
1.0015e-08
9.96395e-09
1.00081e-08
1.00076e-08
1.00083e-08
1.00088e-08
1.00124e-08
1.00163e-08
1.0012e-08
1.00124e-08
1.00092e-08
1.00105e-08
1.00196e-08
1.00654e-08
1.01342e-08
1.00806e-08
1.00158e-08
1.00168e-08
1.00151e-08
9.96511e-09
1.00079e-08
1.0008e-08
1.00083e-08
1.00096e-08
1.00147e-08
1.0017e-08
1.00121e-08
1.00121e-08
1.00094e-08
1.00127e-08
1.00347e-08
1.00973e-08
1.00948e-08
1.00194e-08
1.00163e-08
1.00215e-08
1.00184e-08
1.00168e-08
9.96692e-09
1.0008e-08
1.00086e-08
1.00104e-08
1.0017e-08
1.00176e-08
1.00125e-08
1.00116e-08
1.001e-08
1.00183e-08
1.00579e-08
1.00931e-08
1.00245e-08
1.00173e-08
1.00196e-08
1.00288e-08
1.00243e-08
1.00206e-08
1.0019e-08
9.96936e-09
1.00081e-08
1.00088e-08
1.00108e-08
1.00192e-08
1.00183e-08
1.00133e-08
1.00114e-08
1.00119e-08
1.00291e-08
1.00718e-08
1.00279e-08
1.00193e-08
1.00189e-08
1.0025e-08
1.00402e-08
1.00335e-08
1.00278e-08
1.00234e-08
1.00215e-08
9.97174e-09
1.00082e-08
1.00089e-08
1.00106e-08
1.002e-08
1.00188e-08
1.00143e-08
1.00119e-08
1.00151e-08
1.00413e-08
1.00264e-08
1.00213e-08
1.00197e-08
1.00225e-08
1.0033e-08
1.0058e-08
1.0049e-08
1.00393e-08
1.00317e-08
1.00266e-08
1.00242e-08
9.97402e-09
1.00083e-08
1.0009e-08
1.00103e-08
1.00192e-08
1.00187e-08
1.00153e-08
1.0013e-08
1.00201e-08
1.00213e-08
1.00217e-08
1.00212e-08
1.00215e-08
1.00276e-08
1.00453e-08
1.00728e-08
1.00734e-08
1.0073e-08
1.00655e-08
1.00657e-08
1.0059e-08
1.0046e-08
1.00362e-08
1.00299e-08
1.00274e-08
9.97612e-09
1.00082e-08
1.00093e-08
1.00102e-08
1.00171e-08
1.0018e-08
1.00162e-08
1.00143e-08
1.00161e-08
1.00202e-08
1.00219e-08
1.00218e-08
1.00244e-08
1.00355e-08
1.00554e-08
1.00862e-08
1.00822e-08
1.00893e-08
1.00865e-08
1.00963e-08
1.00966e-08
1.00834e-08
1.00736e-08
1.00744e-08
1.00701e-08
1.00537e-08
1.00405e-08
1.00329e-08
1.00317e-08
9.97863e-09
1.00077e-08
1.00094e-08
1.00103e-08
1.00146e-08
1.00169e-08
1.00169e-08
1.00149e-08
1.00171e-08
1.00206e-08
1.00219e-08
1.00231e-08
1.00289e-08
1.00428e-08
1.00614e-08
1.00614e-08
1.00574e-08
1.00573e-08
1.00935e-08
1.00882e-08
1.01043e-08
1.01156e-08
1.00949e-08
1.01028e-08
1.01038e-08
1.00901e-08
1.0079e-08
1.008e-08
1.00814e-08
1.00603e-08
1.00437e-08
1.0036e-08
1.00382e-08
9.98168e-09
1.00069e-08
1.00093e-08
1.00102e-08
1.00126e-08
1.00162e-08
1.00174e-08
1.00161e-08
1.00173e-08
1.00209e-08
1.00224e-08
1.00255e-08
1.00336e-08
1.00467e-08
1.00465e-08
1.00442e-08
1.00441e-08
1.00647e-08
1.00645e-08
1.00595e-08
1.00593e-08
1.01019e-08
1.009e-08
1.00965e-08
1.00911e-08
1.00923e-08
1.01152e-08
1.01297e-08
1.01313e-08
1.01303e-08
1.01227e-08
1.01222e-08
1.01036e-08
1.01117e-08
1.01123e-08
1.00915e-08
1.00963e-08
1.0093e-08
1.00924e-08
1.00805e-08
1.00824e-08
1.00794e-08
1.00849e-08
1.00814e-08
1.00826e-08
1.00799e-08
1.00847e-08
1.00888e-08
1.00644e-08
1.0046e-08
1.00404e-08
1.00483e-08
9.98587e-09
1.0006e-08
1.00088e-08
1.00099e-08
1.00115e-08
1.00158e-08
1.00183e-08
1.00173e-08
1.00183e-08
1.00213e-08
1.00235e-08
1.00282e-08
1.00364e-08
1.00364e-08
1.0035e-08
1.0035e-08
1.00499e-08
1.00498e-08
1.00466e-08
1.00465e-08
1.00669e-08
1.00839e-08
1.00658e-08
1.00651e-08
1.00652e-08
1.00773e-08
1.00844e-08
1.00665e-08
1.00654e-08
1.00648e-08
1.00648e-08
1.00775e-08
1.00596e-08
1.00598e-08
1.00606e-08
1.00602e-08
1.00594e-08
1.00595e-08
1.00604e-08
1.00599e-08
1.01053e-08
1.01004e-08
1.01021e-08
1.01044e-08
1.00903e-08
1.00945e-08
1.00936e-08
1.00913e-08
1.01205e-08
1.01427e-08
1.01434e-08
1.01427e-08
1.0138e-08
1.01371e-08
1.01316e-08
1.01298e-08
1.01229e-08
1.01209e-08
1.01064e-08
1.00999e-08
1.01029e-08
1.01035e-08
1.01128e-08
1.0113e-08
1.01159e-08
1.0109e-08
1.0113e-08
1.01118e-08
1.01161e-08
1.01079e-08
1.00909e-08
1.00944e-08
1.00947e-08
1.00914e-08
1.00814e-08
1.00871e-08
1.00819e-08
1.00873e-08
1.00923e-08
1.00667e-08
1.00485e-08
1.00473e-08
1.00634e-08
9.99123e-09
1.00051e-08
1.00081e-08
1.00097e-08
1.0011e-08
1.00162e-08
1.00194e-08
1.0019e-08
1.00194e-08
1.00217e-08
1.0025e-08
1.00301e-08
1.00302e-08
1.00295e-08
1.00295e-08
1.00393e-08
1.00393e-08
1.00372e-08
1.00373e-08
1.00517e-08
1.00508e-08
1.00513e-08
1.00508e-08
1.00514e-08
1.00506e-08
1.00511e-08
1.00506e-08
1.00478e-08
1.00473e-08
1.00482e-08
1.00475e-08
1.00477e-08
1.00472e-08
1.00481e-08
1.00475e-08
1.00762e-08
1.00669e-08
1.00658e-08
1.00762e-08
1.0065e-08
1.00651e-08
1.00766e-08
1.00664e-08
1.00761e-08
1.00654e-08
1.00647e-08
1.00647e-08
1.00596e-08
1.00597e-08
1.00613e-08
1.00605e-08
1.00594e-08
1.00595e-08
1.0061e-08
1.00603e-08
1.01056e-08
1.00983e-08
1.01012e-08
1.01029e-08
1.00893e-08
1.00895e-08
1.00937e-08
1.00856e-08
1.01207e-08
1.01488e-08
1.01522e-08
1.01521e-08
1.01481e-08
1.01477e-08
1.01442e-08
1.01436e-08
1.01388e-08
1.01376e-08
1.01344e-08
1.01399e-08
1.01294e-08
1.01351e-08
1.01327e-08
1.01386e-08
1.01274e-08
1.01329e-08
1.01181e-08
1.01128e-08
1.01228e-08
1.01239e-08
1.01292e-08
1.01164e-08
1.01159e-08
1.01108e-08
1.01198e-08
1.01217e-08
1.01265e-08
1.01146e-08
1.01055e-08
1.00977e-08
1.01014e-08
1.01017e-08
1.01113e-08
1.01081e-08
1.01101e-08
1.01063e-08
1.00894e-08
1.00892e-08
1.00942e-08
1.00858e-08
1.00813e-08
1.00814e-08
1.00814e-08
1.00819e-08
1.00946e-08
1.00678e-08
1.00534e-08
1.00583e-08
1.00849e-08
9.99777e-09
1.00043e-08
1.00075e-08
1.00092e-08
1.00113e-08
1.00174e-08
1.00209e-08
1.00215e-08
1.00214e-08
1.0023e-08
1.00266e-08
1.00267e-08
1.00263e-08
1.00263e-08
1.00325e-08
1.00324e-08
1.00313e-08
1.00313e-08
1.00412e-08
1.00404e-08
1.00409e-08
1.00403e-08
1.00411e-08
1.00404e-08
1.00409e-08
1.00403e-08
1.00384e-08
1.0038e-08
1.00388e-08
1.00382e-08
1.00384e-08
1.0038e-08
1.00388e-08
1.00382e-08
1.00529e-08
1.00514e-08
1.00523e-08
1.00511e-08
1.00526e-08
1.00512e-08
1.0052e-08
1.0051e-08
1.00491e-08
1.00478e-08
1.00498e-08
1.00483e-08
1.0049e-08
1.00477e-08
1.00496e-08
1.00483e-08
1.01039e-08
1.00946e-08
1.0099e-08
1.01008e-08
1.01205e-08
1.01479e-08
1.01588e-08
1.01597e-08
1.01557e-08
1.01561e-08
1.01519e-08
1.01526e-08
1.01485e-08
1.01486e-08
1.01475e-08
1.01483e-08
1.01452e-08
1.01473e-08
1.01482e-08
1.01506e-08
1.01453e-08
1.0149e-08
1.01388e-08
1.01435e-08
1.01424e-08
1.01459e-08
1.01376e-08
1.01432e-08
1.01418e-08
1.01466e-08
1.01348e-08
1.01423e-08
1.01299e-08
1.01381e-08
1.01333e-08
1.01421e-08
1.0128e-08
1.01368e-08
1.01126e-08
1.01191e-08
1.01267e-08
1.01165e-08
1.01246e-08
1.01328e-08
1.01104e-08
1.01171e-08
1.01242e-08
1.01136e-08
1.01226e-08
1.01308e-08
1.01025e-08
1.00934e-08
1.00987e-08
1.00989e-08
1.01102e-08
1.01071e-08
1.01077e-08
1.01048e-08
1.00953e-08
1.00701e-08
1.00625e-08
1.00757e-08
1.01126e-08
1.00029e-08
1.00037e-08
1.00067e-08
1.00091e-08
1.00115e-08
1.00195e-08
1.00235e-08
1.00258e-08
1.00254e-08
1.00277e-08
1.00287e-08
1.00287e-08
1.00278e-08
1.00278e-08
1.00353e-08
1.00353e-08
1.00337e-08
1.00337e-08
1.00434e-08
1.00415e-08
1.00428e-08
1.00413e-08
1.00433e-08
1.00415e-08
1.00427e-08
1.00413e-08
1.004e-08
1.00385e-08
1.00407e-08
1.00392e-08
1.004e-08
1.00385e-08
1.00407e-08
1.00392e-08
1.00485e-08
1.00469e-08
1.00484e-08
1.00468e-08
1.01223e-08
1.01417e-08
1.01643e-08
1.01659e-08
1.01617e-08
1.0163e-08
1.01569e-08
1.0159e-08
1.01544e-08
1.01559e-08
1.01515e-08
1.01506e-08
1.01511e-08
1.01492e-08
1.01545e-08
1.01538e-08
1.01537e-08
1.01527e-08
1.01492e-08
1.01488e-08
1.01504e-08
1.01489e-08
1.01505e-08
1.01516e-08
1.01524e-08
1.01522e-08
1.01478e-08
1.01477e-08
1.01455e-08
1.01475e-08
1.01488e-08
1.01512e-08
1.01458e-08
1.01503e-08
1.01391e-08
1.01451e-08
1.01427e-08
1.01467e-08
1.01382e-08
1.0146e-08
1.01423e-08
1.01487e-08
1.00955e-08
1.00761e-08
1.00789e-08
1.01014e-08
1.01411e-08
9.99689e-09
1.00032e-08
1.00065e-08
1.00086e-08
1.00123e-08
1.00229e-08
1.00293e-08
1.00367e-08
1.0063e-08
1.00824e-08
1.00814e-08
1.05719e-08
1.05679e-08
1.00316e-08
1.00316e-08
1.00342e-08
1.0034e-08
1.00363e-08
1.00372e-08
1.00365e-08
1.00368e-08
1.00363e-08
1.00372e-08
1.00365e-08
1.00369e-08
1.00348e-08
1.0035e-08
1.00346e-08
1.00354e-08
1.00349e-08
1.0035e-08
1.00346e-08
1.00354e-08
1.00443e-08
1.0042e-08
1.0044e-08
1.00417e-08
1.00442e-08
1.0042e-08
1.00439e-08
1.00417e-08
1.00416e-08
1.0039e-08
1.00424e-08
1.004e-08
1.00415e-08
1.0039e-08
1.00423e-08
1.004e-08
1.01233e-08
1.01414e-08
1.01642e-08
1.01616e-08
1.01644e-08
1.0159e-08
1.01617e-08
1.01527e-08
1.01569e-08
1.01512e-08
1.0155e-08
1.01498e-08
1.01449e-08
1.01506e-08
1.01456e-08
1.01534e-08
1.01495e-08
1.01536e-08
1.01501e-08
1.01495e-08
1.01474e-08
1.01505e-08
1.01466e-08
1.01511e-08
1.01513e-08
1.01527e-08
1.01508e-08
1.0148e-08
1.01468e-08
1.01489e-08
1.01506e-08
1.00977e-08
1.00906e-08
1.01045e-08
1.01324e-08
1.01412e-08
9.94188e-09
1.00031e-08
1.00057e-08
1.00087e-08
1.00139e-08
1.00411e-08
1.00996e-08
1.04522e-08
1.48978e-08
1.01444e-08
1.01436e-08
1.08122e-08
1.08097e-08
1.00334e-08
1.00331e-08
1.0035e-08
1.00347e-08
1.00335e-08
1.00331e-08
1.0035e-08
1.00348e-08
1.00464e-08
1.00463e-08
1.00371e-08
1.00383e-08
1.00371e-08
1.00383e-08
1.00371e-08
1.00383e-08
1.00371e-08
1.00383e-08
1.0036e-08
1.00366e-08
1.00355e-08
1.00373e-08
1.00361e-08
1.00367e-08
1.00356e-08
1.00374e-08
1.00413e-08
1.00388e-08
1.00412e-08
1.00388e-08
1.01231e-08
1.01455e-08
1.01577e-08
1.016e-08
1.01651e-08
1.01586e-08
1.01634e-08
1.01569e-08
1.01614e-08
1.0154e-08
1.01587e-08
1.01408e-08
1.01467e-08
1.01422e-08
1.01474e-08
1.01445e-08
1.01513e-08
1.01461e-08
1.01516e-08
1.01407e-08
1.01496e-08
1.01412e-08
1.01484e-08
1.01442e-08
1.0153e-08
1.01448e-08
1.01522e-08
1.01507e-08
1.01421e-08
1.01512e-08
1.01433e-08
1.01537e-08
1.0146e-08
1.01536e-08
1.01474e-08
1.01497e-08
1.01461e-08
1.01508e-08
1.01448e-08
1.01511e-08
1.01502e-08
1.01527e-08
1.01491e-08
1.01094e-08
1.01154e-08
1.01348e-08
1.01398e-08
9.94191e-09
1.00026e-08
1.00055e-08
1.00084e-08
1.00967e-08
1.10244e-08
1.38696e-08
4.93518e-08
1.54144e-08
1.54125e-08
3.2959e-08
3.2963e-08
1.01214e-08
1.01288e-08
1.02671e-08
1.02888e-08
1.01211e-08
1.01283e-08
1.02665e-08
1.0288e-08
1.10712e-08
1.10697e-08
1.00356e-08
1.00348e-08
1.00373e-08
1.0037e-08
1.00357e-08
1.00348e-08
1.00373e-08
1.0037e-08
1.00569e-08
1.00579e-08
1.00449e-08
1.0045e-08
1.00568e-08
1.00577e-08
1.00448e-08
1.00449e-08
1.00362e-08
1.00376e-08
1.00361e-08
1.00377e-08
1.00363e-08
1.00377e-08
1.00362e-08
1.00378e-08
1.01308e-08
1.01467e-08
1.01576e-08
1.0158e-08
1.01504e-08
1.01575e-08
1.01489e-08
1.01553e-08
1.01481e-08
1.01538e-08
1.01467e-08
1.01465e-08
1.01508e-08
1.01481e-08
1.01517e-08
1.01505e-08
1.01548e-08
1.01531e-08
1.01395e-08
1.01452e-08
1.01396e-08
1.01465e-08
1.01414e-08
1.01493e-08
1.01417e-08
1.01503e-08
1.01395e-08
1.0149e-08
1.01398e-08
1.01478e-08
1.01413e-08
1.01525e-08
1.0142e-08
1.01515e-08
1.01501e-08
1.01405e-08
1.01532e-08
1.01434e-08
1.01354e-08
1.01448e-08
1.01393e-08
9.94216e-09
1.00025e-08
1.00049e-08
1.00123e-08
1.41665e-08
7.6084e-08
2.79547e-07
1.16006e-07
1.16112e-07
4.40161e-07
4.40486e-07
2.14899e-08
2.15258e-08
5.20403e-08
5.22369e-08
1.01286e-08
1.01427e-08
1.03212e-08
1.03528e-08
1.01285e-08
1.01424e-08
1.03206e-08
1.0352e-08
1.13972e-08
1.31902e-08
1.36531e-08
1.1124e-08
1.13979e-08
1.31944e-08
1.36622e-08
1.11239e-08
1.00375e-08
1.00362e-08
1.00388e-08
1.00393e-08
1.00376e-08
1.00362e-08
1.00388e-08
1.00393e-08
1.00655e-08
1.00694e-08
1.00479e-08
1.00485e-08
1.00654e-08
1.00693e-08
1.00478e-08
1.00484e-08
1.01603e-08
1.01487e-08
1.0164e-08
1.01606e-08
1.01469e-08
1.01541e-08
1.01452e-08
1.01517e-08
1.01442e-08
1.015e-08
1.01428e-08
1.0144e-08
1.01442e-08
1.01471e-08
1.01479e-08
1.01492e-08
1.015e-08
1.01531e-08
1.01422e-08
1.01405e-08
1.01425e-08
1.01388e-08
1.01447e-08
1.01444e-08
1.01467e-08
1.0144e-08
1.01466e-08
1.01401e-08
1.01493e-08
1.0148e-08
1.01439e-08
1.014e-08
1.01483e-08
1.01426e-08
1.01395e-08
1.01455e-08
1.01395e-08
1.01465e-08
1.01401e-08
1.01495e-08
1.01401e-08
1.01504e-08
1.01672e-08
1.01446e-08
9.94335e-09
1.00021e-08
1.00056e-08
1.05646e-08
1.49444e-07
2.06476e-06
3.57439e-06
1.58265e-07
1.59156e-07
5.61821e-07
5.66233e-07
2.20159e-08
1.41883e-08
2.23571e-08
3.23724e-08
3.2422e-08
1.48544e-08
1.41924e-08
2.20807e-08
1.48674e-08
2.24902e-08
3.25716e-08
3.2797e-08
1.41854e-07
1.26918e-07
6.7519e-08
6.36402e-08
1.45283e-07
1.30834e-07
6.83344e-08
6.48132e-08
1.01595e-08
1.01986e-08
1.03818e-08
1.04926e-08
1.01591e-08
1.0198e-08
1.03814e-08
1.0492e-08
1.21296e-08
1.15706e-08
1.21326e-08
1.15696e-08
1.00412e-08
1.00416e-08
1.00412e-08
1.00416e-08
1.00879e-08
1.01012e-08
1.00877e-08
1.0101e-08
1.02015e-08
1.0181e-08
1.01619e-08
1.01705e-08
1.0155e-08
1.01634e-08
1.01498e-08
1.01577e-08
1.01422e-08
1.01461e-08
1.01407e-08
1.01434e-08
1.01381e-08
1.01399e-08
1.01403e-08
1.01398e-08
1.01413e-08
1.01413e-08
1.01372e-08
1.01422e-08
1.01433e-08
1.01408e-08
1.01455e-08
1.01453e-08
1.01408e-08
1.01386e-08
1.01437e-08
1.01396e-08
1.0142e-08
1.01383e-08
1.01435e-08
1.01433e-08
1.01386e-08
1.0139e-08
1.01445e-08
1.01378e-08
1.01462e-08
1.01474e-08
1.01376e-08
1.01399e-08
1.01444e-08
1.01392e-08
1.01484e-08
1.01398e-08
1.01617e-08
9.94747e-09
1.00021e-08
1.00066e-08
4.81421e-08
5.2874e-06
2.53945e-05
1.02446e-05
1.05534e-05
5.14586e-05
5.19753e-05
3.79926e-07
3.96966e-07
1.5841e-06
1.66597e-06
1.62875e-08
3.04529e-08
2.9153e-08
1.69317e-08
4.70069e-08
4.27511e-08
1.63042e-08
3.06992e-08
1.69868e-08
2.95132e-08
4.76222e-08
4.35164e-08
1.86177e-07
1.56514e-07
8.81576e-08
7.5596e-08
1.92224e-07
1.61871e-07
8.99885e-08
7.74505e-08
1.0661e-08
1.09426e-08
1.06603e-08
1.0943e-08
1.01958e-08
1.02411e-08
1.01891e-08
1.01769e-08
1.01724e-08
1.01531e-08
1.01583e-08
1.01463e-08
1.01518e-08
1.01418e-08
1.01424e-08
1.01402e-08
1.01401e-08
1.01447e-08
1.01456e-08
1.01415e-08
1.01419e-08
1.01401e-08
1.01396e-08
1.01391e-08
1.01398e-08
1.0139e-08
1.01387e-08
1.01397e-08
1.01397e-08
1.01366e-08
1.01399e-08
1.01381e-08
1.01378e-08
1.0139e-08
1.01383e-08
1.01406e-08
1.01405e-08
1.01361e-08
1.01366e-08
1.01405e-08
1.01417e-08
1.01415e-08
1.01385e-08
1.01428e-08
1.01364e-08
1.01428e-08
1.01386e-08
1.01447e-08
1.01388e-08
1.01445e-08
1.01364e-08
1.01478e-08
1.01379e-08
9.95819e-09
1.00021e-08
1.00542e-08
1.39735e-06
0.000116765
0.000274492
1.2266e-05
1.20023e-05
5.6718e-05
5.34926e-05
8.72456e-07
4.44838e-07
4.10037e-07
1.00958e-06
8.95937e-07
4.60888e-07
4.25875e-07
1.0282e-06
2.69237e-06
2.72406e-06
2.20124e-07
1.88592e-07
1.24964e-07
1.0464e-07
2.27865e-07
1.95681e-07
1.28533e-07
1.08032e-07
9.97977e-09
1.02485e-08
1.02751e-08
1.01868e-08
1.01874e-08
1.02013e-08
1.02064e-08
1.01696e-08
1.01865e-08
1.01673e-08
1.01724e-08
1.01468e-08
1.01536e-08
1.01427e-08
1.0144e-08
1.01403e-08
1.014e-08
1.01468e-08
1.01498e-08
1.01407e-08
1.01392e-08
1.01408e-08
1.01406e-08
1.01394e-08
1.01396e-08
1.01404e-08
1.01398e-08
1.01405e-08
1.01401e-08
1.01364e-08
1.01362e-08
1.01398e-08
1.01372e-08
1.0139e-08
1.01414e-08
1.01359e-08
1.01419e-08
1.00047e-08
1.22867e-08
2.78383e-05
0.00150792
0.000520064
0.000306632
0.00327262
0.0022298
9.85161e-06
4.71029e-06
7.6028e-05
3.80306e-05
9.09198e-07
5.66512e-07
4.17618e-07
1.24889e-06
9.40788e-07
5.89946e-07
4.38232e-07
1.27953e-06
3.32359e-06
1.9443e-06
1.56453e-06
9.23392e-07
1.856e-06
1.22317e-06
1.27239e-06
8.53972e-07
3.22403e-07
2.38355e-07
3.36809e-07
2.50105e-07
1.00137e-08
1.03149e-08
1.02898e-08
1.01986e-08
1.01957e-08
1.01576e-08
1.01791e-08
1.01512e-08
1.01662e-08
1.01474e-08
1.01586e-08
1.01483e-08
1.01427e-08
1.01429e-08
1.01455e-08
1.01567e-08
1.01489e-08
1.01502e-08
1.01541e-08
1.01417e-08
1.01414e-08
1.01412e-08
1.01411e-08
1.01439e-08
1.01415e-08
1.01416e-08
1.01389e-08
1.0006e-08
1.04663e-07
0.000382465
0.012759
0.00145783
0.000715342
0.010996
0.00540709
3.52154e-06
9.28535e-07
7.17451e-06
1.47062e-05
1.9212e-06
4.84585e-05
1.71626e-06
5.20314e-07
3.50318e-06
6.4947e-06
9.37776e-07
2.19227e-05
0.000161304
7.07934e-05
5.78146e-07
6.12774e-07
4.02433e-07
9.40042e-07
5.92681e-07
6.09317e-07
4.2185e-07
8.79238e-07
1.6394e-06
5.67924e-07
1.00346e-06
4.82134e-07
1.00566e-08
1.03787e-08
1.02854e-08
1.02151e-08
1.02486e-08
1.02285e-08
1.02074e-08
1.01899e-08
1.01637e-08
1.01695e-08
1.015e-08
1.01558e-08
1.01461e-08
1.01462e-08
1.01455e-08
1.01447e-08
1.01436e-08
1.01436e-08
1.01495e-08
1.01508e-08
1.01463e-08
1.01433e-08
1.01496e-08
1.01492e-08
1.0143e-08
1.01428e-08
1.01453e-08
1.01426e-08
1.01425e-08
1.01424e-08
1.01443e-08
1.01404e-08
1.00291e-08
5.0778e-06
0.00308205
0.0917804
0.0842157
0.0904815
0.0915379
0.00446248
0.00169607
0.0471674
0.0270531
7.29052e-06
6.84062e-07
2.95416e-06
1.33111e-05
1.57793e-06
3.91515e-05
3.07706e-06
3.73266e-07
1.8399e-06
7.11403e-06
9.00513e-07
1.88005e-05
0.000937572
0.00014327
0.000131068
1.93891e-05
0.000302978
2.4211e-05
4.59983e-05
5.27066e-06
1.01034e-08
1.0415e-08
1.02928e-08
1.02324e-08
1.01898e-08
1.01935e-08
1.0169e-08
1.01745e-08
1.0158e-08
1.01623e-08
1.01463e-08
1.01459e-08
1.01491e-08
1.01471e-08
1.01465e-08
1.01486e-08
1.01522e-08
1.01481e-08
1.01456e-08
1.01514e-08
1.01479e-08
1.01469e-08
1.01465e-08
1.01453e-08
1.01458e-08
1.01445e-08
1.01463e-08
1.01462e-08
1.01434e-08
1.01422e-08
1.01442e-08
1.01438e-08
1.01451e-08
1.01412e-08
1.23138e-08
0.00015324
0.0148042
0.132166
0.125483
0.102761
0.103238
0.000630423
0.000221993
0.0194887
0.00752707
0.00223539
0.0486304
4.53003e-05
6.91e-06
0.00827036
0.000135108
0.000114435
0.0182961
0.127077
0.0994985
4.82595e-08
1.52849e-07
2.65891e-08
8.29807e-08
1.09625e-06
4.93612e-06
4.51789e-06
7.97399e-07
1.01512e-08
1.0414e-08
1.02906e-08
1.02361e-08
1.02264e-08
1.0203e-08
1.02026e-08
1.0181e-08
1.01845e-08
1.01639e-08
1.0168e-08
1.0154e-08
1.01556e-08
1.01506e-08
1.01502e-08
1.01493e-08
1.01496e-08
1.01566e-08
1.01518e-08
1.0152e-08
1.01583e-08
1.0152e-08
1.01506e-08
1.01471e-08
1.01465e-08
1.01475e-08
1.01471e-08
1.01478e-08
1.01478e-08
1.01451e-08
1.01441e-08
2.91316e-07
0.00200577
0.0457706
0.119633
0.116421
0.095935
0.0948365
6.6262e-05
0.000192017
0.0239747
0.00240298
0.00181108
0.0620366
1.20392e-07
8.33442e-06
0.0102127
0.000254879
0.000207085
0.0210063
0.244438
0.191301
0.229252
0.114701
0.237621
0.182154
0.135798
0.0943826
3.30306e-07
5.06782e-05
2.586e-08
1.36565e-06
1.01992e-08
1.0396e-08
1.02756e-08
1.02165e-08
1.02239e-08
1.01949e-08
1.02014e-08
1.01782e-08
1.01846e-08
1.01551e-08
1.01566e-08
1.01642e-08
1.01589e-08
1.01587e-08
1.01636e-08
1.01565e-08
1.01583e-08
1.01684e-08
1.01622e-08
1.01624e-08
1.01675e-08
1.01513e-08
1.01493e-08
1.01505e-08
1.01484e-08
1.01499e-08
1.01464e-08
1.01517e-08
1.01499e-08
3.68871e-05
0.013265
0.0908592
0.0863972
0.0858297
0.0904059
0.123575
0.122953
0.0973779
0.193443
0.150143
0.0955196
0.193428
0.141366
8.6933e-05
0.000278697
0.0319793
0.0080216
0.00612254
0.103861
1.01969e-06
5.12819e-05
0.0124262
0.000171321
0.00151968
0.0057981
0.197242
0.0891764
0.126073
0.0675472
1.02343e-08
1.03783e-08
1.02751e-08
1.0217e-08
1.02362e-08
1.01943e-08
1.0207e-08
1.01761e-08
1.01804e-08
1.01684e-08
1.01707e-08
1.01684e-08
1.01717e-08
1.01864e-08
1.01735e-08
1.01768e-08
1.01883e-08
1.01791e-08
1.01805e-08
1.01554e-08
1.01534e-08
1.016e-08
1.01573e-08
1.01575e-08
1.01551e-08
1.01645e-08
1.01621e-08
1.01537e-08
1.01518e-08
1.01548e-08
1.01518e-08
0.00151134
0.050079
0.0852694
0.1021
0.0845676
0.101878
0.122151
0.121839
0.0893145
0.103303
0.0936071
0.137682
0.121027
0.090935
0.111318
0.141446
0.0979747
0.0812799
0.0856481
0.139318
0.113726
0.0885125
0.107688
0.136964
0.0398764
0.113381
0.026034
0.0248221
0.141785
0.0735633
0.104776
0.0627911
1.02496e-08
1.03858e-08
1.0286e-08
1.02084e-08
1.02239e-08
1.03359e-08
1.02478e-08
1.02811e-08
1.01889e-08
1.01734e-08
1.01819e-08
1.02058e-08
1.0184e-08
1.01927e-08
1.01645e-08
1.01612e-08
1.0159e-08
1.01578e-08
1.01748e-08
1.01672e-08
1.01699e-08
1.01661e-08
1.01576e-08
1.01546e-08
1.01608e-08
1.01552e-08
1.01604e-08
1.01576e-08
1.01661e-08
1.01598e-08
0.0140633
0.111047
0.0937446
0.116392
0.092852
0.120724
0.0925967
0.114276
0.0904899
0.12033
0.14297
0.142653
0.0753972
0.0854975
0.102154
0.0652099
0.0651215
0.0694835
0.0680718
0.0772608
0.0803653
0.0579882
0.0616523
0.0672692
0.0521619
0.114484
0.040934
0.0554286
1.0245e-08
1.04039e-08
1.02461e-08
1.02292e-08
1.02549e-08
1.02973e-08
1.02117e-08
1.02531e-08
1.01871e-08
1.01722e-08
1.0175e-08
1.01708e-08
1.01797e-08
1.01827e-08
1.01987e-08
1.01948e-08
1.02143e-08
1.01876e-08
1.01955e-08
1.01803e-08
1.01898e-08
1.02018e-08
1.02188e-08
1.02092e-08
1.01603e-08
1.01603e-08
1.01549e-08
1.0158e-08
1.01665e-08
1.01592e-08
1.01681e-08
1.01648e-08
0.0488433
0.247785
0.159465
0.159312
0.247329
0.249314
0.248612
0.129362
0.11364
0.0864798
0.0979386
0.0900157
0.164659
0.0911835
0.106054
0.14939
0.130146
0.144889
0.12697
0.111294
0.0829036
0.0948158
0.0873259
0.158638
0.0855718
0.105061
0.149235
0.130813
0.140427
0.0777232
0.0843346
0.0637064
0.0715261
0.0723351
0.078873
0.0618007
0.0689348
1.02333e-08
1.04255e-08
1.02672e-08
1.01922e-08
1.02213e-08
1.02211e-08
1.0229e-08
1.02409e-08
1.02493e-08
1.03214e-08
1.02266e-08
1.02666e-08
1.01734e-08
1.01995e-08
1.0164e-08
1.01688e-08
1.01619e-08
1.01995e-08
1.0194e-08
1.02455e-08
1.01755e-08
1.01747e-08
1.01915e-08
1.0236e-08
1.01586e-08
1.01553e-08
1.01653e-08
1.01595e-08
0.105944
0.229261
0.362567
0.228806
0.361645
0.294343
0.292761
0.0877435
0.0710019
0.0722545
0.0773551
0.111003
0.0970509
0.17742
0.152485
0.146582
0.136604
0.145636
0.173289
0.190469
0.223073
0.0827926
0.0676297
0.074617
0.0708416
0.107934
0.0959373