/*--------------------------------*- C++ -*----------------------------------*\
| =========                 |                                                 |
| \\      /  F ield         | OpenFOAM: The Open Source CFD Toolbox           |
|  \\    /   O peration     | Version:  5.x                                   |
|   \\  /    A nd           | Web:      www.OpenFOAM.org                      |
|    \\/     M anipulation  |                                                 |
\*---------------------------------------------------------------------------*/
FoamFile
{
    version     2.0;
    format      ascii;
    class       surfaceScalarField;
    location    "0.9";
    object      meshPhi;
}
// * * * * * * * * * * * * * * * * * * * * * * * * * * * * * * * * * * * * * //

dimensions      [0 3 -1 0 0 0 0];

internalField   nonuniform List<scalar> 
30582
(
0
0
0
0
0
0
0
0
0
0
0
0
0
0
0
0
0
0
0
0
0
0
0
0
0
0
0
0
0
0
0
0
0
0
0
0
0
0
0
0
0
0
0
0
0
0
0
0
0
0
0
0
0
0
0
0
0
0
0
0
0
0
0
0
0
0
0
0
0
0
0
0
0
0
0
0
0
0
0
0
0
0
0
0
0
0
0
0
0
0
0
0
0
0
0
0
0
0
0
0
0
0
0
0
0
0
0
0
0
0
0
0
0
0
0
0
0
0
0
0
0
0
0
0
0
0
0
0
0
0
0
0
0
0
0
0
0
0
0
0
0
0
0
0
0
0
0
0
0
0
0
0
0
0
0
0
0
0
0
0
0
0
0
0
0
0
0
0
0
0
0
0
0
0
0
0
0
0
0
0
0
0
0
0
0
0
0
0
0
0
0
0
0
0
0
0
0
0
0
0
0
0
0
0
0
0
0
0
0
0
0
0
0
0
0
0
0
0
0
0
0
0
0
0
0
0
0
0
0
0
0
0
0
0
0
0
0
0
0
0
0
0
0
0
0
0
0
0
0
0
0
0
0
0
0
0
0
0
0
0
0
0
0
0
0
0
0
0
0
0
0
0
0
0
0
0
0
0
0
0
0
0
0
0
0
0
0
0
0
0
0
0
0
0
0
0
0
0
0
0
0
0
0
0
0
0
0
0
0
0
0
0
0
0
0
0
0
0
0
0
0
0
0
0
0
0
0
0
0
0
0
0
0
0
0
0
0
0
0
0
0
0
0
0
0
0
0
0
0
0
0
0
0
0
0
0
0
0
0
0
0
0
0
0
0
0
0
0
0
0
0
0
0
0
0
0
0
0
0
0
0
0
0
0
0
0
0
0
0
0
0
0
0
0
0
0
0
0
0
0
0
0
0
0
0
0
0
0
0
0
0
0
0
0
0
0
0
0
0
0
0
0
0
0
0
0
0
0
0
0
0
0
0
0
0
0
0
0
0
0
0
0
0
0
0
0
0
0
0
0
0
0
0
0
0
0
0
0
0
0
0
0
0
0
0
0
0
0
0
0
0
0
0
0
0
0
0
0
0
0
0
0
0
0
0
0
0
0
0
0
0
0
0
0
0
0
0
0
0
0
0
0
0
0
0
0
0
0
0
0
0
0
0
0
0
0
0
0
0
0
0
0
0
0
0
0
0
0
0
0
0
0
0
0
0
0
0
0
0
0
0
0
0
0
0
0
0
0
0
0
0
0
0
0
0
0
0
0
0
0
0
0
0
0
0
0
0
0
0
0
0
0
0
0
0
0
0
0
0
0
0
0
0
0
0
0
0
0
0
0
0
0
0
0
0
0
0
0
0
0
0
0
0
0
0
0
0
0
0
0
0
0
0
0
0
0
0
0
0
0
0
0
0
0
0
0
0
0
0
0
0
0
0
0
0
0
0
0
0
0
0
0
0
0
0
0
0
0
0
0
0
0
0
0
0
0
0
0
0
0
0
0
0
0
0
0
0
0
0
0
0
0
0
0
0
0
0
0
0
0
0
0
0
0
0
0
0
0
0
0
0
0
0
0
0
0
0
0
0
0
0
0
0
0
0
0
0
0
0
0
0
0
0
0
0
0
0
0
0
0
0
0
0
0
0
0
0
0
0
0
0
0
0
0
0
0
0
0
0
0
0
0
0
0
0
0
0
0
0
0
0
0
0
0
0
0
0
0
0
0
0
0
0
0
0
0
0
0
0
0
0
0
0
0
0
0
0
0
0
0
0
0
0
0
0
0
0
0
0
0
0
0
0
0
0
0
0
0
0
0
0
0
0
0
0
0
0
0
0
0
0
0
0
0
0
0
0
0
0
0
0
0
0
0
0
0
0
0
0
0
0
0
0
0
0
0
0
0
0
0
0
0
0
0
0
0
0
0
0
0
0
0
0
0
0
0
0
0
0
0
0
0
0
0
0
0
0
0
0
0
0
0
0
0
0
0
0
0
0
0
0
0
0
0
0
0
0
0
0
0
0
0
0
0
0
0
0
0
0
0
0
0
0
0
0
0
0
0
0
0
0
0
0
0
0
0
0
0
0
0
0
0
0
0
0
0
0
0
0
0
0
0
0
0
0
0
0
0
0
0
0
0
0
0
0
0
0
0
0
0
0
0
0
0
0
0
0
0
0
0
0
0
0
0
0
0
0
0
0
0
0
0
0
0
0
0
0
0
0
0
0
0
0
0
0
0
0
0
0
0
0
0
0
0
0
0
0
0
0
0
0
0
0
0
0
0
0
0
0
0
0
0
0
0
0
0
0
0
0
0
0
0
0
0
0
0
0
0
0
0
0
0
0
0
0
0
0
0
0
0
0
0
0
0
0
0
0
0
0
0
0
0
0
0
0
0
0
0
0
0
0
0
0
0
0
0
0
0
0
0
0
0
0
0
0
0
0
0
0
0
0
0
0
0
0
0
0
0
0
0
0
0
0
0
0
0
0
0
0
0
0
0
0
0
0
0
0
0
0
0
0
0
0
0
0
0
0
0
0
0
0
0
0
0
0
0
0
0
0
0
0
0
0
0
0
0
0
0
0
0
0
0
0
0
0
0
0
0
0
0
0
0
0
0
0
0
0
0
0
0
0
0
0
0
0
0
0
0
0
0
0
0
0
0
0
0
0
0
0
0
0
0
0
0
0
0
0
0
0
0
0
0
0
0
0
0
0
0
0
0
0
0
0
0
0
0
0
0
0
0
0
0
0
0
0
0
0
0
0
0
0
0
0
0
0
0
0
0
0
0
0
0
0
0
0
0
0
0
0
0
0
0
0
0
0
0
0
0
0
0
0
0
0
0
0
0
0
0
0
0
0
0
0
0
0
0
0
0
0
0
0
0
0
0
0
0
0
0
0
0
0
0
0
0
0
0
0
0
0
0
0
0
0
0
0
0
0
0
0
0
0
0
0
0
0
0
0
0
0
0
0
0
0
0
0
0
0
0
0
0
0
0
0
0
0
0
0
0
0
0
0
0
0
0
0
0
0
0
0
0
0
0
0
0
0
0
0
0
0
0
0
0
0
0
0
0
0
0
0
0
0
0
0
0
0
0
0
0
0
0
0
0
0
0
0
0
0
0
0
0
0
0
0
0
0
0
0
0
0
0
0
0
0
0
0
0
0
0
0
0
0
0
0
0
0
0
0
0
0
0
0
0
0
0
0
0
0
0
0
0
0
0
0
0
0
0
0
0
0
0
0
0
0
0
0
0
0
0
0
0
0
0
0
0
0
0
0
0
0
0
0
0
0
0
0
0
0
0
0
0
0
0
0
0
0
0
0
0
0
0
0
0
0
0
0
0
0
0
0
0
0
0
0
0
0
0
0
0
0
0
0
2.60781e-18
-9.19724e-18
3.73171e-25
-2.75884e-17
-1.37914e-17
-1.84033e-17
0
0
0
0
0
0
0
0
0
0
0
0
0
0
0
0
0
0
0
0
0
0
0
0
0
0
0
0
0
0
0
0
0
0
0
0
0
0
-4.58778e-18
-1.44433e-34
6.6922e-19
-1.0633e-25
-2.29693e-17
1.83919e-17
2.56406e-18
-2.75884e-17
4.59741e-18
-2.75965e-17
1.33095e-18
2.91549e-25
4.59422e-17
-3.33019e-34
1.97091e-18
-2.75738e-17
-6.66469e-18
4.59563e-17
0
0
0
0
0
0
0
0
0
0
0
0
0
0
0
0
0
0
0
0
0
0
0
0
0
0
0
0
0
0
0
0
0
0
0
0
0
-7.64277e-19
3.95875e-18
-2.90501e-17
3.2291e-20
5.49767e-17
1.8309e-17
-3.67253e-17
1.20583e-35
1.31151e-18
-1.37816e-17
-1.67433e-33
6.76504e-19
-1.85896e-25
-2.29151e-17
0
-7.81018e-17
7.68614e-21
3.67538e-17
2.05304e-35
-6.42622e-19
-2.75738e-17
-6.66469e-18
2.75749e-17
4.14689e-20
-2.92526e-24
2.75031e-17
-2.56692e-34
6.03484e-21
3.66676e-17
0
0
0
0
0
0
0
0
0
0
0
0
0
0
0
0
0
0
0
0
0
0
0
0
0
0
0
0
0
0
0
0
0
0
0
-1.44296e-17
-2.75004e-17
-1.8306e-17
-4.63513e-18
-4.69731e-20
-2.16253e-34
-8.27462e-20
-4.95976e-20
-3.20998e-17
-1.05591e-17
2.53388e-18
1.80834e-17
1.66608e-34
-2.21059e-19
-1.37035e-17
2.46992e-18
1.82729e-17
-9.88957e-35
-7.24967e-20
4.58775e-18
0
-3.93252e-19
-7.99072e-24
-7.98669e-18
1.36838e-17
-1.02659e-17
1.37032e-17
0
0
-1.90959e-18
3.9239e-18
-1.8761e-17
-1.16971e-20
-2.75529e-17
-9.12766e-18
5.49767e-17
8.29378e-20
3.66708e-17
2.08777e-34
9.17291e-18
7.33724e-17
0
3.71874e-24
-2.05425e-17
2.27992e-18
-2.05288e-17
4.57649e-18
0
9.15583e-18
-2.36405e-18
9.22979e-18
-9.15188e-18
1.14469e-17
-9.2165e-18
1.15668e-17
-2.29751e-18
0
0
0
0
0
0
0
0
0
0
0
0
0
0
0
0
0
0
0
0
0
0
0
0
0
0
0
0
0
0
0
0
0
1.26559e-17
-2.30088e-17
1.83679e-17
-1.37891e-17
-9.30901e-18
7.23953e-35
3.95826e-18
-2.747e-17
-2.50018e-18
3.65452e-17
2.71161e-34
-9.3183e-18
-1.38104e-17
0
3.69112e-17
-9.41155e-36
1.96051e-11
5.27813e-12
1.96103e-09
-7.88745e-14
2.89733e-13
-1.53848e-08
-2.24496e-13
-1.55712e-08
1.36719e-10
-8.33146e-19
1.61003e-19
-5.26342e-19
-1.6171e-19
4.65111e-18
-1.78218e-17
-1.16853e-18
-1.1038e-17
-2.12459e-18
-3.43877e-34
1.93526e-16
-9.10143e-13
-1.52211e-08
1.21473e-14
-3.07194e-08
-6.43206e-19
-1.11602e-18
-2.4989e-17
-4.55362e-18
-3.18688e-17
0
3.5619e-19
-1.02757e-17
4.56492e-18
-1.48242e-17
9.12596e-18
-7.47326e-19
-7.63889e-20
0
4.76425e-19
-7.96099e-18
1.52223e-19
-7.69983e-19
-1.12594e-23
3.4066e-18
0
-1.55903e-22
3.465e-16
-8.91591e-19
9.09017e-18
0
0
3.75331e-17
-4.63527e-18
-9.2716e-18
1.58954e-20
-1.8306e-17
0
-1.31585e-18
-1.19921e-18
-4.56566e-18
6.59533e-18
2.46982e-18
7.48631e-34
0
-1.49764e-22
-1.37142e-17
2.63347e-18
9.11781e-18
7.59222e-20
-1.25508e-17
4.56052e-18
-7.98539e-18
4.57047e-18
0
9.14828e-18
-4.65218e-18
1.3805e-17
-9.14628e-18
1.37243e-17
-1.15154e-17
1.15445e-17
-4.57896e-18
-1.13207e-18
-7.62796e-20
1.29933e-18
-7.9491e-18
0
-7.59953e-20
7.96244e-26
7.95258e-18
8.84934e-26
-5.68054e-18
0
-1.57497e-21
1.29278e-18
0
0
-1.81728e-17
1.5125e-19
1.22995e-18
-9.10144e-13
0
-1.28707e-10
1.35853e-17
9.29357e-19
-1.51818e-19
-1.5877e-17
-7.54506e-20
1.22942e-18
9.15446e-18
-3.4453e-17
9.09195e-18
0
0
0
0
0
0
0
0
0
0
0
0
0
0
0
0
0
0
0
0
0
0
0
0
0
0
0
0
0
0
0
-5.11575e-18
-1.59874e-20
9.14738e-18
-9.31891e-18
9.27524e-18
2.31195e-35
1.15891e-18
1.38456e-17
-1.28826e-17
3.67389e-17
3.25484e-35
9.01723e-20
-4.56846e-18
-1.06282e-17
1.83185e-17
-1.01879e-25
-4.41619e-09
3.27656e-12
-1.37998e-08
-7.61236e-11
-1.51366e-08
-9.65538e-09
4.49395e-18
-1.83827e-17
-1.44234e-12
1.10629e-10
3.54017e-27
4.30325e-09
-3.59865e-10
-1.38859e-09
1.28363e-10
-4.42724e-10
9.40706e-09
1.32857e-12
6.88315e-10
1.1731e-12
-2.25468e-10
6.50245e-20
-1.12265e-19
1.27657e-18
9.28343e-13
0
2.1237e-13
1.35013e-13
-1.31376e-16
1.12847e-34
1.63905e-08
1.87943e-16
1.81079e-24
-4.91483e-13
-1.83157e-17
3.16835e-34
8.65396e-11
4.54784e-18
0
-1.99517e-09
-1.51096e-08
-7.43571e-20
4.54832e-19
9.2233e-18
0
-5.73538e-19
7.13759e-20
-9.96008e-18
1.21512e-18
-3.79038e-18
-5.78953e-19
6.22512e-20
1.65856e-19
-1.37323e-17
1.12234e-18
2.17309e-17
-4.71959e-19
-1.59847e-17
6.65156e-20
4.85414e-13
-6.55311e-12
-1.21354e-12
-4.33233e-11
-1.07634e-34
-1.81179e-08
1.91756e-09
3.54766e-24
-1.82812e-17
4.02687e-35
1.48804e-17
0
-4.92981e-19
-1.29708e-18
-4.45921e-18
9.19195e-19
1.06544e-17
-3.8402e-18
-6.43235e-20
-9.13015e-18
1.71577e-17
-6.24605e-19
-7.6389e-20
0
9.54943e-19
-1.02414e-17
1.52223e-19
-6.86173e-19
1.24945e-17
0
3.41954e-16
-5.0488e-19
1.82198e-17
2.07081e-09
0
0
-1.9514e-09
-2.3511e-11
0
-1.09219e-13
-2.06185e-22
2.90598e-13
0
-1.0781e-21
-1.52589e-08
-7.28138e-14
1.51761e-14
0
0
1.26559e-17
-1.38657e-17
9.15407e-18
4.64082e-18
9.12051e-18
-4.30666e-34
-3.8022e-18
-1.24577e-18
-9.25975e-18
2.70836e-18
-1.0093e-19
0
5.13654e-34
-4.61711e-18
0
0
-4.30371e-17
-1.69303e-08
3.64062e-12
-1.63285e-08
9.11527e-18
1.22122e-15
2.26015e-18
-6.43128e-19
9.01208e-18
-1.15122e-17
4.55348e-18
-2.5035e-17
0
1.86582e-12
1.35272e-10
-6.67322e-14
1.18472e-12
-1.60355e-08
1.61573e-17
2.0196e-15
2.13262e-09
-9.55929e-22
-2.17148e-18
1.13265e-18
-3.03818e-20
-3.89926e-17
5.71363e-18
-3.67496e-17
-3.64128e-18
-9.2564e-19
-7.62799e-20
1.31913e-18
-2.39068e-17
-7.59754e-20
-7.59992e-20
1.13607e-18
-1.36329e-17
-5.48314e-37
2.27963e-18
9.29533e-19
-1.52033e-19
0
-2.27264e-17
7.5624e-20
1.36907e-18
-4.97533e-13
0
-1.55406e-08
1.58846e-17
1.20753e-18
-7.59078e-20
-2.6138e-17
0
1.33592e-18
2.27703e-18
-1.59551e-17
-9.82578e-34
-6.08286e-19
1.53089e-19
2.65697e-18
-2.50856e-17
0
-2.76594e-19
2.05304e-24
9.385e-22
9.48361e-24
-4.52174e-17
-9.32974e-20
2.27924e-18
0
0
1.52106e-08
1.47146e-13
7.59849e-20
-8.9112e-18
3.35833e-18
0
0
0
0
0
0
0
0
0
0
0
0
0
0
0
0
0
0
0
0
0
0
0
0
0
0
0
0
0
1.56944e-17
-2.30287e-17
2.15038e-20
4.57846e-18
4.35206e-20
8.21198e-34
2.2879e-18
-1.82748e-17
-2.07331e-17
1.82256e-17
1.2606e-33
-5.46336e-18
1.84308e-17
-5.46505e-18
1.80623e-17
3.63413e-26
4.21774e-09
-1.47999e-10
1.55738e-08
3.78103e-09
1.55783e-08
9.2215e-09
-8.58326e-13
2.88007e-10
7.58466e-13
-7.55252e-09
1.1072e-26
-6.24479e-11
3.90391e-09
-1.56403e-08
3.83476e-09
-1.54986e-08
-1.32628e-10
-3.75438e-13
-7.81881e-09
-7.01574e-13
-7.66315e-09
0
-5.88566e-12
1.21353e-12
-1.88441e-08
1.02581e-34
1.91602e-09
7.1599e-20
4.80709e-09
-2.93927e-17
-1.41768e-26
1.7078e-12
2.03299e-17
0
3.32527e-18
-4.6849e-18
-6.20603e-19
1.20165e-17
7.15107e-20
-1.81399e-12
-1.12977e-17
-9.61303e-09
3.27304e-17
-7.2422e-20
6.55311e-12
-4.55299e-09
-1.13124e-17
1.87298e-08
-1.40663e-26
-1.7005e-12
6.84815e-16
7.34807e-20
-2.32189e-17
1.33376e-26
1.15572e-17
1.44688e-19
1.4072e-18
1.70022e-12
-8.22446e-18
-6.75885e-18
9.10462e-09
-6.17619e-18
-7.34096e-20
-1.39312e-17
1.84698e-17
-1.11125e-19
-4.24739e-13
3.68255e-25
2.63179e-18
3.11739e-17
7.39723e-35
-1.21905e-34
-2.59321e-09
2.59105e-20
-6.0676e-14
4.34611e-34
8.20621e-09
1.35047e-33
-4.98292e-20
2.9494e-34
7.67024e-19
1.07953e-18
-1.89567e-18
2.59273e-20
4.55526e-19
-1.80936e-19
-3.58634e-20
-8.69024e-19
-5.74836e-19
1.19342e-18
1.29814e-35
-1.14725e-16
-3.37389e-20
4.36655e-34
3.97902e-34
-1.29258e-19
7.34742e-19
1.16653e-18
2.16475e-18
0
-7.62587e-11
7.65652e-20
0
-2.01649e-09
1.53994e-08
-7.5482e-20
-4.56276e-19
-1.27933e-14
0
1.52728e-08
-3.03397e-14
1.44116e-13
1.13952e-09
-4.19033e-20
-7.33405e-34
-1.28221e-09
1.63288e-24
1.09219e-13
1.13836e-21
-3.43919e-34
1.95946e-21
7.28121e-14
0
0
-5.33102e-18
-9.27366e-18
1.34754e-32
9.16269e-18
9.17887e-18
-1.33179e-35
-7.90169e-18
3.63017e-19
-4.54656e-18
1.27948e-17
-1.08119e-17
5.50014e-17
-1.16368e-35
-4.52362e-18
3.66773e-17
-1.55244e-26
4.41613e-09
4.30331e-09
-3.6393e-10
-1.71656e-08
1.31541e-10
-1.59971e-08
9.65548e-09
9.40706e-09
1.37787e-12
6.88292e-10
1.17056e-12
-2.25491e-10
4.46736e-25
1.12253e-12
-3.03565e-08
-7.59119e-11
-1.51367e-08
3.3703e-18
-1.3787e-17
-1.4474e-12
1.10584e-10
-6.65206e-20
-3.29121e-20
6.5076e-12
4.24738e-13
8.86928e-17
0
1.81175e-08
1.5061e-08
6.43556e-20
-3.23013e-19
-1.60139e-17
0
4.73341e-17
1.36546e-17
-6.64761e-20
-3.16809e-19
-6.61542e-19
-3.53782e-20
-4.64216e-19
4.55438e-18
-5.80419e-18
6.43161e-20
-6.4403e-19
-6.84259e-18
8.78976e-19
2.16715e-17
4.13636e-24
1.22791e-18
6.21939e-13
9.28345e-13
7.43954e-20
-1.39556e-13
-2.2905e-13
-8.5375e-18
0
1.63905e-08
3.34311e-09
-2.41491e-31
-2.27927e-17
0
1.93773e-17
0
2.35006e-10
-3.15425e-08
6.50169e-20
5.40925e-19
-3.70475e-19
2.35924e-19
-7.43572e-20
2.82228e-19
4.60551e-18
-4.86919e-19
4.20469e-18
-3.79027e-18
-6.22508e-20
-9.149e-18
1.01929e-17
-4.12969e-19
-2.9777e-17
-1.2823e-18
7.65434e-20
3.15403e-18
-3.19221e-17
-1.92327e-33
-1.50588e-19
2.26047e-18
-2.48742e-17
2.15268e-19
1.04243e-21
0
0
-1.53133e-08
-3.77711e-13
7.5986e-20
-2.69053e-17
3.36783e-18
3.97875e-19
4.18743e-20
5.11815e-19
3.96508e-20
-9.82449e-20
5.13971e-24
-2.87747e-23
5.14691e-20
0
-1.57338e-34
4.52499e-20
0
0
0
0
0
0
0
0
0
0
0
0
0
0
0
0
0
0
0
0
0
0
0
0
0
0
0
0
-6.89826e-17
-7.60875e-34
-7.99617e-18
9.23131e-18
-2.58524e-17
9.08737e-18
-3.45327e-33
-7.69965e-18
-4.54308e-18
1.56877e-17
2.75524e-17
4.52324e-25
5.40967e-18
-3.62191e-09
-2.59514e-17
-7.92648e-09
5.70329e-34
1.30131e-17
-2.29205e-17
-2.69071e-17
4.5842e-17
-7.0364e-20
2.30572e-12
1.26989e-17
2.43951e-10
0
6.69082e-16
-1.42807e-19
-4.61546e-09
2.2828e-17
0
-2.31331e-12
-9.14224e-18
-1.40613e-19
6.9414e-19
3.44817e-18
7.2584e-18
-2.05e-17
7.13235e-20
1.55484e-12
1.52051e-20
9.22794e-09
-1.71348e-17
7.27598e-20
3.09453e-12
9.84843e-11
-2.36638e-12
4.23904e-10
0
-4.21508e-10
-1.56425e-08
0
2.28482e-17
0
-7.95531e-18
7.2673e-20
2.27456e-18
-5.15757e-13
9.18196e-18
-2.6279e-18
-2.08949e-10
-2.51799e-17
7.2322e-20
1.14189e-17
-1.71071e-17
0
-3.03382e-13
-4.14423e-11
1.24807e-34
-4.38455e-20
-3.03381e-13
3.53837e-34
9.94571e-11
-3.88156e-20
7.93386e-19
-1.63902e-18
4.387e-20
9.62747e-19
-2.54841e-18
-6.93201e-20
3.94438e-18
-1.19963e-18
-6.51009e-18
2.86948e-16
1.16073e-34
-7.95296e-17
-1.5893e-15
-5.65002e-20
5.12174e-34
-6.93238e-20
-1.30197e-19
6.38268e-19
-1.26614e-18
-6.15854e-18
1.27652e-18
3.53257e-17
5.65083e-20
-7.73828e-11
4.19045e-20
-4.96136e-34
-1.11334e-09
7.93487e-20
6.52276e-14
-2.2699e-34
3.03383e-14
0
0
-2.59042e-17
4.58919e-18
9.21895e-18
1.37569e-17
-1.84089e-17
8.46968e-35
-2.2879e-18
-1.06581e-17
8.45442e-20
1.56175e-17
6.2885e-32
3.66351e-17
5.76667e-34
-9.06287e-18
3.66e-17
-4.91378e-27
-4.21794e-09
1.46483e-17
5.30166e-12
1.56406e-08
3.82717e-09
1.55e-08
-9.2217e-09
-1.8207e-17
4.60022e-18
-1.37927e-17
-6.67438e-13
-7.66331e-09
-3.63413e-26
-1.47821e-10
1.55737e-08
3.78124e-09
1.55784e-08
-8.62108e-13
2.87973e-10
7.58464e-13
-7.55252e-09
7.24281e-20
8.37342e-12
-4.55291e-09
-8.96279e-18
1.90307e-08
0
-1.70049e-12
6.73403e-16
7.34773e-20
-4.80691e-09
-2.55749e-17
0
-1.65597e-12
4.75059e-18
0
1.47354e-18
1.70022e-12
-8.43391e-18
-9.83247e-18
9.10462e-09
-1.44121e-18
0
1.76216e-12
-9.35799e-18
9.61303e-09
1.85935e-17
1.38207e-19
-6.12837e-12
-4.24738e-13
-1.88442e-08
0
1.51068e-08
7.15933e-20
-1.37402e-17
0
1.0239e-17
6.31189e-34
2.06989e-18
2.09457e-18
-7.04067e-19
-1.22287e-17
-7.15113e-20
-6.8258e-18
2.15216e-17
0
-6.06772e-14
-1.98717e-12
9.29137e-09
0
-9.92524e-09
3.37192e-20
1.39556e-13
0
-7.34469e-09
2.74382e-33
8.67678e-20
9.93396e-21
-6.32168e-19
1.08259e-18
0
-4.55553e-19
1.90935e-18
-5.55584e-20
-1.28939e-13
3.68256e-25
3.39827e-18
3.1144e-17
0
-2.78109e-34
-1.34215e-09
-5.18041e-20
0
-5.55414e-20
-1.16562e-19
2.97705e-34
2.73256e-19
-3.54204e-18
8.12653e-19
0
-7.5153e-19
0
1.22956e-18
3.96527e-20
1.15345e-20
5.28795e-20
-9.05328e-20
-3.61722e-34
0
0
0
0
0
0
0
0
0
0
0
0
0
0
0
0
0
0
0
0
0
0
0
0
0
0
0
0
-2.72609e-18
0
2.04847e-17
1.84013e-17
3.67675e-17
7.3093e-22
1.83887e-17
2.71579e-33
2.67441e-18
-4.62457e-18
-9.73777e-18
2.7338e-17
1.92178e-33
-9.20914e-18
3.67093e-17
0
2.62044e-18
9.70835e-13
4.40015e-10
-1.38295e-17
1.71649e-17
3.23681e-16
6.80166e-18
1.06711e-18
2.75323e-18
-1.44988e-17
-1.60766e-17
6.83111e-18
-2.04532e-17
3.09525e-20
0
-1.10694e-18
-3.33012e-18
1.61235e-17
-7.90827e-18
1.83277e-17
-1.29831e-17
-1.02697e-17
-6.92914e-18
-1.94398e-17
0
1.33435e-19
1.96803e-19
5.51625e-18
3.06732e-18
0
-3.36206e-17
0
-6.66253e-18
1.58333e-17
0
5.78036e-18
-1.35267e-17
0
1.33388e-18
-1.12964e-18
1.28759e-18
-1.224e-17
7.03648e-20
-6.37175e-19
2.18679e-18
6.77199e-18
-2.15871e-17
0
8.33788e-18
1.23393e-17
-5.09852e-18
0
3.18077e-16
-8.41198e-34
4.45964e-18
0
-3.34476e-18
6.55996e-34
-1.69448e-18
-4.7255e-18
-7.67085e-18
-1.92396e-17
7.34411e-20
6.81032e-18
-1.01179e-17
3.46543e-32
1.64056e-18
4.01599e-35
9.62556e-17
-6.15409e-34
-1.5127e-18
-3.10893e-18
0
0
0
-6.8997e-17
1.47483e-33
1.08533e-19
-2.44728e-18
4.62328e-18
1.00773e-17
2.08688e-17
1.844e-17
9.06913e-34
9.58562e-20
3.66866e-17
-6.90161e-36
-1.82367e-19
1.31893e-17
-2.29205e-17
1.58632e-17
-2.62027e-17
8.8973e-18
3.71828e-35
1.49599e-17
2.27783e-18
0
-3.09452e-12
6.02977e-12
2.3664e-12
-4.23904e-10
0
4.22023e-10
1.56425e-08
-7.23947e-20
4.61537e-09
2.05548e-17
0
2.32847e-12
-1.82548e-17
-7.26728e-20
2.75221e-18
-2.58777e-18
6.90677e-18
-6.38884e-18
6.87489e-18
-1.71167e-17
0
-1.55485e-12
6.85181e-18
-9.22769e-09
-2.39976e-17
-7.03645e-20
2.48775e-12
1.7182e-17
2.44414e-10
0
6.70227e-16
7.1408e-20
2.51223e-17
0
-1.14471e-17
-7.03055e-20
-2.9e-18
1.02878e-17
5.12317e-18
-2.49442e-17
-7.13211e-20
9.13194e-18
-1.60079e-17
0
5.37709e-18
3.02594e-20
-8.90141e-18
2.84514e-16
0
-7.80579e-17
-1.89899e-15
1.12999e-19
3.03381e-13
0
-9.94571e-11
0
1.30543e-18
1.25837e-18
2.45016e-18
-8.37781e-18
2.52917e-18
3.05011e-17
-1.13016e-19
-9.62747e-19
2.54841e-18
-2.91306e-25
-3.03382e-13
-4.14423e-11
0
0
0
3.48242e-33
1.18393e-18
-2.01093e-18
4.38698e-20
0
0
0
0
0
0
0
0
0
0
0
0
0
0
0
0
0
0
0
0
0
0
0
0
0
0
1.38422e-17
-4.88576e-33
-1.05726e-17
-1.52559e-17
-4.5292e-18
-1.49289e-17
1.57401e-17
4.5966e-17
-6.90656e-33
1.84721e-17
4.59028e-18
0
2.75987e-17
-3.76911e-25
-2.59407e-18
-3.87413e-09
3.10971e-13
-5.20873e-12
-3.93804e-09
-5.189e-18
-3.10967e-13
7.74826e-09
7.85322e-09
-7.77423e-13
-1.80871e-33
-4.74334e-18
8.92025e-18
1.94352e-19
-7.07131e-20
0
-4.57881e-18
1.37552e-17
6.75537e-20
1.46964e-18
-2.00234e-12
-6.6745e-13
0
-1.74996e-08
-1.56147e-08
2.61888e-18
-4.62003e-18
1.61952e-18
-8.51561e-35
-9.8824e-18
9.22308e-18
0
1.38247e-18
1.63207e-20
-6.7826e-18
-9.11399e-18
1.47053e-17
2.68945e-18
4.56197e-18
1.45198e-17
-7.15297e-20
0
-2.04543e-18
1.43071e-19
1.54921e-17
8.70714e-12
2.48777e-12
0
6.53657e-10
1.53717e-08
9.18154e-18
2.15872e-17
-1.4295e-19
-1.13525e-17
-7.14467e-20
4.00926e-18
-6.97444e-19
-2.25402e-18
6.79274e-18
-1.71678e-17
2.27078e-18
2.81181e-20
2.06246e-18
-8.96053e-19
0
0
-1.40218e-18
0
9.33703e-19
-2.81424e-20
-4.73916e-19
-7.51545e-19
-4.16338e-20
-1.4093e-18
2.58384e-18
-7.12243e-20
7.88804e-13
-2.42716e-13
-1.59843e-08
0
-3.23502e-08
0
0
2.36145e-33
-3.30487e-19
-8.78441e-18
-6.65209e-18
2.81235e-17
1.10365e-19
0
0
0
0
2.65612e-18
5.31224e-18
2.0775e-17
9.24947e-18
6.45307e-17
-4.6092e-18
2.76201e-17
-1.73595e-33
-2.51485e-18
1.38286e-17
2.04343e-17
2.75316e-17
-1.75903e-33
-2.2877e-17
4.59156e-17
0
-2.35261e-18
-2.7967e-18
-1.13981e-17
1.03155e-17
-1.02437e-17
9.18635e-18
0
-3.13899e-17
-1.71082e-17
1.03853e-17
-1.48065e-17
2.30313e-18
0
2.53327e-12
1.81706e-08
-5.71381e-18
4.24739e-12
-8.63657e-11
2.2125e-18
1.24668e-18
-1.91493e-17
-5.67073e-18
4.54595e-18
-1.01751e-17
6.86638e-18
1.47357e-19
6.47676e-18
-4.24737e-12
-6.43088e-18
0
-1.15963e-09
1.46941e-19
5.09786e-18
1.81081e-17
0
-3.04934e-18
-3.37726e-18
-1.47278e-19
3.28353e-18
-4.24147e-20
-6.1116e-18
-5.02065e-18
-7.34483e-20
1.91172e-18
-2.27641e-18
-6.34417e-18
-1.35605e-17
-1.05102e-31
-3.11197e-18
3.30218e-18
3.55681e-18
0
-3.05952e-16
7.03935e-20
1.13639e-17
0
-2.18642e-18
-1.33392e-19
-5.00545e-19
9.03597e-18
4.2239e-18
4.65961e-18
-1.40732e-19
8.84218e-18
-8.0359e-18
7.60406e-32
1.38881e-18
0
1.46864e-16
-3.29381e-34
-8.82482e-19
-8.40331e-19
0
0
0
0
0
0
0
0
0
0
0
0
0
0
0
0
0
0
0
0
0
0
0
0
-4.8122e-18
0
2.60552e-17
-1.83704e-17
2.76489e-17
1.36952e-17
1.83172e-17
1.39794e-24
-4.40725e-09
4.20387e-09
-3.78454e-09
-5.04401e-13
4.14613e-09
2.74308e-12
-9.61609e-09
9.1933e-09
5.04382e-13
7.56949e-09
-2.7431e-12
-8.29305e-09
-4.40188e-24
-3.72269e-09
-8.12266e-09
7.263e-20
-1.68748e-10
-2.48774e-12
-1.23249e-12
1.02611e-25
1.54702e-08
-7.40237e-20
2.19843e-25
-1.90625e-08
-4.1314e-10
7.22055e-12
-7.22053e-12
0
7.77417e-13
6.86761e-18
3.36268e-10
-2.05998e-17
-1.47783e-19
1.15952e-17
-4.11003e-17
1.12395e-19
6.89382e-18
2.88343e-26
1.90262e-08
4.61145e-12
-3.71393e-09
7.25373e-13
1.03197e-17
1.65925e-15
-1.7951e-17
1.52543e-18
-7.24333e-13
7.42782e-09
-2.36813e-18
-2.76372e-17
1.1864e-08
1.05876e-19
0
1.28665e-09
3.26785e-20
-1.21349e-13
1.6686e-13
0
-1.86217e-08
3.64065e-13
6.08139e-18
0
4.8056e-18
-1.53844e-33
-8.96367e-22
-1.58004e-18
4.68003e-18
5.4059e-19
-1.778e-08
7.02254e-20
0
1.66713e-08
6.89153e-20
-1.27421e-12
-2.04785e-12
-4.85419e-13
0
-1.82339e-08
2.46646e-09
-1.97203e-13
1.76906e-17
-1.40481e-19
9.99441e-18
6.88832e-20
2.64587e-18
-2.49298e-18
-1.00927e-18
2.03943e-17
1.10539e-18
-4.9668e-18
1.98349e-24
0
-5.48382e-34
0
0
0
0
0
1.38423e-17
5.46787e-33
2.65198e-19
-7.80826e-18
-1.38261e-17
1.51059e-17
0
2.7599e-17
1.59e-33
-2.2203e-18
-4.63601e-17
1.54979e-17
2.75122e-17
7.61647e-34
-2.59635e-18
-1.83549e-17
9.84591e-18
1.85318e-17
6.88804e-25
-3.89175e-09
1.14021e-12
-1.80103e-11
-4.08741e-09
-1.14022e-12
7.78465e-09
8.09717e-09
-2.28044e-12
8.53275e-18
7.15302e-20
0
7.43911e-18
-2.36986e-18
-2.17615e-24
7.41583e-18
-1.99501e-11
-6.06768e-12
0
-1.88874e-08
8.30743e-11
-1.07683e-17
2.46977e-19
1.35409e-17
7.14778e-20
1.05697e-17
-1.33394e-18
0
5.3639e-18
-2.04667e-18
2.30491e-18
0
-9.11726e-18
-4.06983e-18
-6.91052e-18
1.88089e-18
1.00384e-33
0
1.49052e-17
-6.75421e-20
-1.7236e-19
5.46093e-12
1.51691e-12
0
3.51216e-08
4.57541e-10
-1.83452e-17
-1.53345e-18
0
2.17829e-17
0
-1.25391e-18
6.6206e-19
3.43424e-18
-1.69016e-17
2.25259e-17
-6.89193e-18
0
6.06771e-13
-2.53327e-12
1.39938e-09
0
-1.81364e-08
-1.1034e-19
-3.64059e-13
0
-1.27251e-08
7.12247e-20
-2.16835e-19
-2.56e-18
-4.92944e-18
2.54738e-17
-5.5182e-20
4.67794e-19
-2.83136e-18
-2.81144e-20
2.22556e-18
-8.96029e-19
0
0
0
0
1.55038e-18
-1.65235e-18
4.16239e-20
0
0
0
0
0
0
0
0
0
0
0
0
0
0
0
0
0
0
0
0
-1.5738e-17
2.91924e-22
9.32174e-18
-9.30088e-18
9.16135e-18
1.21659e-33
1.29836e-17
-1.30941e-17
-2.08103e-21
-1.52349e-17
0
1.84247e-17
1.84981e-33
-1.1373e-19
-1.39924e-17
2.27783e-19
3.83444e-17
0
-1.16202e-17
-4.48489e-09
1.82631e-17
-3.77837e-16
0
-9.20812e-13
1.34123e-15
-7.30959e-20
4.91495e-09
1.35487e-17
0
5.97415e-12
-1.59075e-17
7.22477e-20
-2.69779e-18
9.21531e-13
-1.33338e-19
1.89847e-17
8.96887e-09
-3.04037e-17
0
-4.76819e-12
2.18348e-18
-9.82414e-09
-2.26302e-17
0
6.15866e-18
-5.59551e-18
-4.54451e-18
-1.15833e-17
8.31015e-18
-9.08928e-18
-1.65237e-18
-1.13231e-17
3.40727e-18
0
1.63641e-17
9.08746e-18
-7.3194e-20
1.09217e-12
1.38732e-18
1.95209e-08
-1.55458e-33
1.60158e-17
0
-3.14497e-33
9.07788e-10
3.7013e-12
-1.47558e-33
-3.12234e-18
3.40148e-18
1.95493e-17
-7.41071e-18
7.50178e-20
-1.13657e-17
1.00258e-18
0
9.3772e-18
2.4932e-17
-3.41443e-17
0
1.33353e-15
-1.42533e-19
-8.04432e-18
-4.59036e-18
0
-2.55585e-17
-4.47192e-18
7.28835e-20
-8.38449e-19
7.18595e-20
-8.60133e-18
-4.12686e-17
7.12416e-20
-1.12423e-18
4.65892e-18
2.60369e-18
-1.12218e-18
-2.85402e-09
-1.35607e-24
0
3.29265e-20
-4.55072e-14
-3.27656e-12
0
-2.46991e-08
1.78882e-18
1.05425e-33
-3.29362e-20
8.08252e-19
-9.52277e-19
7.53214e-18
0
0
0
0
0
0
-1.5594e-17
0
-5.76016e-17
4.28198e-18
9.58675e-18
9.0928e-18
1.8464e-17
1.72459e-24
4.28609e-09
-7.35322e-11
9.35976e-09
-1.45129e-10
-2.1245e-24
-1.45099e-10
-3.91535e-09
-5.72937e-10
1.62306e-10
-7.5137e-10
-3.11356e-10
-4.79093e-13
7.8601e-09
-1.8064e-12
-3.69363e-10
-5.36879e-27
-1.8319e-08
4.7328e-12
-4.02242e-09
-1.71117e-08
-3.65578e-12
-1.66269e-08
1.5321e-12
7.93723e-10
-6.93015e-18
1.1175e-19
9.00046e-13
7.98633e-09
1.22991e-18
-4.14293e-18
1.28991e-18
-1.53688e-17
-7.26324e-20
-4.90443e-09
6.0677e-12
-4.45722e-12
1.33064e-25
-6.07529e-12
0
6.72127e-26
-1.52442e-08
4.73281e-12
7.25718e-20
2.28044e-12
6.86747e-18
9.80206e-09
-3.42905e-18
7.3885e-20
-5.48038e-18
9.24066e-18
1.77803e-08
7.02226e-20
0
-1.59085e-08
-1.65863e-08
-6.89162e-20
6.67454e-13
-8.25206e-12
2.45538e-18
0
-3.78606e-08
-4.86468e-17
5.46088e-13
2.88205e-13
1.79176e-18
0
-2.19559e-18
2.52457e-18
-6.88896e-20
5.29318e-18
-3.99634e-18
-2.2484e-18
2.59607e-18
-4.40547e-18
-5.88561e-18
1.23417e-18
-1.15374e-08
0
0
0
-1.21349e-13
1.86581e-12
0
4.80603e-09
8.3454e-18
5.2948e-20
0
-7.32917e-20
-4.45863e-19
6.7229e-18
-3.12162e-24
0
-4.03401e-34
0
0
0
0
0
0
0
0
0
0
0
0
0
0
0
0
0
-1.85455e-17
4.46278e-35
1.05375e-17
5.26096e-18
1.62324e-19
1.87744e-17
-1.2837e-34
-3.30289e-19
1.4234e-19
-1.05372e-17
2.78908e-17
9.4573e-25
4.24204e-09
-1.43349e-11
-1.78592e-08
1.94166e-12
-2.19954e-12
3.20335e-08
-1.42733e-10
1.57836e-08
-1.76181e-08
9.28008e-09
-1.82429e-19
-1.24353e-17
-1.30428e-18
-2.37066e-18
-2.85531e-18
9.33527e-18
1.2009e-12
3.0514e-10
-2.78313e-24
4.35374e-09
-4.31532e-09
-1.6244e-08
-1.65814e-10
-1.59269e-08
9.50045e-09
3.40929e-12
8.59618e-09
-4.46228e-13
3.43959e-10
0
-1.61784e-17
3.45859e-12
9.10153e-13
1.42175e-17
0
1.81223e-08
3.37136e-11
0
1.36929e-17
0
-1.13513e-17
9.20708e-34
-3.01285e-18
6.36205e-19
-3.4146e-18
1.88945e-17
-4.87417e-18
-5.59631e-24
0
6.89472e-18
-1.02617e-17
-7.80246e-18
-7.01376e-20
0
1.83924e-18
1.59545e-17
-7.42848e-20
-9.8149e-18
1.21353e-12
0
-1.50798e-08
-3.7768e-18
-2.72357e-17
-1.06972e-17
7.0103e-20
-1.99282e-19
2.50155e-17
7.40795e-20
-1.25842e-18
-3.42033e-18
8.60225e-18
-9.90837e-20
-8.95721e-18
1.63183e-19
-1.09219e-12
1.78941e-08
0
7.34385e-20
0
1.87753e-17
-1.24315e-17
-1.08783e-19
9.62944e-19
1.27711e-17
-1.41996e-33
3.6353e-17
-4.9904e-18
-6.99152e-20
2.42716e-13
-1.44108e-12
1.00929e-09
0
-1.61148e-08
4.5622e-20
3.64053e-13
0
1.02546e-08
-6.99008e-20
-1.49445e-19
-6.12485e-18
-1.49764e-17
1.94061e-17
0
-3.54225e-19
8.95462e-18
0
0
0
0
0
0
-5.76466e-17
-9.30088e-18
-1.84639e-17
1.84559e-17
9.32174e-18
-5.89546e-34
-1.29839e-17
-1.02924e-17
-2.3468e-17
3.69874e-17
-9.19939e-32
1.80665e-17
6.6204e-35
2.99145e-18
1.71995e-21
0
-9.88285e-19
0
-4.7093e-09
-3.7784e-12
-7.94951e-18
7.0377e-22
4.60658e-18
9.08963e-18
-8.11178e-18
5.03254e-18
3.05787e-12
9.41514e-09
-7.95117e-18
0
-1.74999e-19
9.08751e-18
-9.66991e-18
-5.68999e-18
7.23029e-20
-9.58697e-12
1.60823e-10
1.12683e-17
-1.85683e-08
0
1.037e-12
-8.12532e-17
2.76003e-24
2.0548e-17
0
-1.9355e-17
-4.7306e-25
-7.11896e-18
-1.03656e-12
1.25426e-17
1.85993e-17
-3.2092e-10
-1.44862e-17
-7.29759e-20
1.15722e-17
-1.81249e-17
7.29846e-20
9.22289e-12
9.34875e-18
1.8977e-08
0
-9.25036e-17
1.42561e-19
2.38017e-19
4.67212e-12
0
-2.56814e-18
1.83964e-08
7.50481e-20
-1.45624e-12
-2.47258e-12
6.69365e-34
9.45005e-10
-1.67176e-08
-1.4576e-19
-1.40291e-18
-1.1382e-18
4.80418e-18
-1.66547e-17
7.12302e-20
0
1.36069e-18
-3.72395e-18
-7.68428e-18
7.50132e-20
1.818e-18
-1.20292e-18
-6.15129e-18
4.68961e-19
-2.57717e-24
-1.65344e-12
3.20656e-34
-1.46369e-08
7.31715e-20
1.2131e-18
-4.54937e-18
8.05267e-09
3.4024e-25
0
6.58443e-20
-6.06739e-14
5.91602e-13
0
-1.21831e-10
-2.85518e-09
-1.93809e-24
-3.29353e-20
6.97783e-13
8.86139e-19
-2.57905e-18
0
0
0
0
0
0
0
0
0
0
0
0
0
0
-2.60049e-17
-1.35494e-18
-5.73802e-17
1.31267e-19
2.74934e-17
4.21937e-18
-1.92824e-19
3.09593e-25
1.56966e-17
3.85574e-09
-2.15821e-17
8.41238e-09
5.93178e-34
-1.82638e-17
1.80879e-17
-3.48501e-24
2.00233e-12
1.56243e-12
-2.75635e-18
1.45149e-19
1.21351e-13
2.71529e-12
-1.28438e-10
0
-1.22201e-08
1.42505e-08
6.73964e-20
-4.59794e-09
-1.35057e-17
0
-1.13265e-12
1.47388e-17
0
-1.76903e-08
1.82464e-08
1.45145e-19
2.2748e-18
-2.74194e-18
-5.85564e-20
1.29879e-18
6.77616e-19
-6.20509e-18
8.03171e-18
2.50032e-17
3.7223e-18
8.42031e-18
1.54037e-17
-1.34647e-19
1.14023e-12
-6.7527e-18
9.19533e-09
1.69747e-17
7.34863e-20
5.40026e-12
-4.76295e-09
4.80557e-18
6.86409e-10
0
-3.5921e-12
-2.12047e-17
-7.26814e-20
-2.38439e-18
0
6.3479e-22
5.36617e-26
2.45139e-18
3.59131e-12
3.59537e-18
-2.39223e-17
9.52419e-09
-5.9998e-18
0
4.88902e-18
-6.13093e-20
-4.51173e-20
-5.56923e-18
1.01634e-12
7.64041e-18
0
7.69809e-09
6.96254e-20
-2.40053e-17
0
2.64524e-17
-4.51268e-20
-1.78371e-18
-2.30974e-18
1.00829e-17
6.5844e-18
0
-9.59523e-18
3.6082e-17
-4.59674e-20
0
-2.10321e-16
-5.63739e-18
-7.04725e-34
9.59668e-18
-2.35264e-18
4.7208e-26
0
1.26918e-34
-3.44323e-24
0
-5.7586e-34
0
0
0
0
0
0
0
-1.81566e-17
-1.15953e-34
-1.05375e-17
-1.05336e-17
-1.8451e-17
-1.62324e-19
-1.05372e-17
1.85938e-17
2.47699e-34
-4.12647e-18
1.87744e-17
6.15398e-25
5.33198e-18
4.35367e-09
-4.3149e-09
-1.62433e-08
6.76296e-12
-1.59278e-08
1.77033e-17
9.50045e-09
3.29551e-12
8.59608e-09
-2.4855e-18
-1.80516e-17
2.56529e-34
3.54763e-18
3.96688e-16
-2.27541e-13
2.42708e-12
1.50174e-08
1.05856e-11
1.57846e-08
1.76184e-08
1.37978e-18
-3.90132e-18
-2.44322e-18
2.62393e-18
4.42284e-19
8.01483e-18
-4.58046e-18
-9.23231e-18
-8.42944e-18
-7.01393e-20
0
4.69859e-18
2.9185e-18
0
-1.19535e-17
-1.03015e-17
0
3.00029e-16
-2.04716e-17
-1.45812e-18
-7.26893e-20
0
-1.26486e-17
-1.36281e-17
1.87145e-17
1.37255e-17
-1.17e-17
-1.75803e-34
1.4883e-17
6.21444e-18
0
-4.15071e-18
4.89447e-18
4.57218e-18
-7.77863e-20
-1.98396e-19
7.26501e-20
-1.61176e-17
-3.36634e-18
5.07364e-18
9.17148e-18
1.41968e-19
-1.74701e-18
-3.42525e-18
0
-1.44399e-16
-1.47217e-15
-7.0959e-20
4.62209e-18
1.1425e-18
7.55648e-18
2.27671e-17
6.99114e-20
4.24735e-13
-8.49486e-13
1.00874e-09
0
-1.64014e-08
4.05692e-25
1.8203e-13
-1.46849e-19
2.92766e-12
6.67434e-13
0
1.02513e-08
0
1.78948e-08
1.65031e-08
1.49572e-33
2.49678e-18
-3.58135e-18
-3.59476e-18
3.40188e-17
-4.56231e-20
-3.79161e-19
-1.46827e-19
1.56766e-18
-3.74117e-18
5.84674e-18
-1.32443e-18
1.37553e-17
-5.43971e-20
0
-5.4394e-20
0
0
0
0
0
0
0
0
0
0
0
-2.34263e-17
2.75949e-34
-1.59487e-19
-5.16971e-18
-1.87322e-17
-6.3967e-19
4.04372e-17
8.60319e-18
-5.64638e-34
-2.67762e-17
-1.88533e-17
-2.06581e-17
4.69e-17
0
3.14304e-17
2.06302e-12
3.76296e-10
-9.09674e-18
2.73047e-12
-1.58397e-08
1.37862e-17
-2.15154e-17
5.1639e-18
-1.04395e-17
-1.48214e-17
3.24741e-18
-1.94795e-17
4.53571e-18
0
-4.56329e-18
2.73709e-17
-5.98037e-24
8.7356e-25
1.45119e-18
-5.86836e-17
0
0
4.29316e-20
-1.82016e-13
0
1.60031e-08
-1.22319e-33
-1.23761e-33
8.69051e-19
2.14402e-18