/*--------------------------------*- C++ -*----------------------------------*\
| =========                 |                                                 |
| \\      /  F ield         | OpenFOAM: The Open Source CFD Toolbox           |
|  \\    /   O peration     | Version:  5.x                                   |
|   \\  /    A nd           | Web:      www.OpenFOAM.org                      |
|    \\/     M anipulation  |                                                 |
\*---------------------------------------------------------------------------*/
FoamFile
{
    version     2.0;
    format      ascii;
    class       volScalarField;
    location    "0.9";
    object      nut;
}
// * * * * * * * * * * * * * * * * * * * * * * * * * * * * * * * * * * * * * //

dimensions      [0 2 -1 0 0 0 0];

internalField   nonuniform List<scalar> 
12160
(
9.74007e-10
9.43066e-10
1.48237e-07
9.81452e-10
1.23513e-07
1.69557e-07
9.77954e-10
7.03963e-08
1.08127e-07
4.95309e-08
9.90796e-10
1.68883e-07
6.02441e-08
4.63854e-08
3.80163e-08
9.84803e-10
2.65711e-07
7.83519e-08
5.0775e-08
3.47672e-08
1.66441e-08
1.00508e-09
8.09475e-08
1.62739e-07
8.29904e-08
3.00714e-08
2.20988e-08
1.53171e-08
1.04012e-09
3.62697e-08
9.98296e-08
1.08774e-07
3.29818e-08
2.91213e-08
1.208e-08
4.5746e-09
1.10939e-09
2.18239e-08
3.67747e-08
5.04276e-08
4.43384e-08
2.80376e-08
1.39621e-08
5.75702e-09
3.22598e-09
1.21039e-09
1.56428e-08
2.17636e-08
2.70174e-08
3.77676e-08
3.01287e-08
1.76638e-08
1.21717e-08
3.7363e-09
4.2075e-09
1.35128e-09
1.30245e-08
1.56381e-08
1.78271e-08
2.44089e-08
2.64303e-08
1.88011e-08
1.39303e-08
3.7972e-09
6.6997e-09
1.7732e-09
1.53837e-09
1.18501e-08
1.30324e-08
1.34019e-08
1.69671e-08
1.92662e-08
1.79232e-08
8.89995e-09
9.7428e-09
5.99408e-09
2.80863e-09
1.6281e-09
1.78131e-09
1.1555e-08
1.18807e-08
1.14615e-08
1.33344e-08
1.42565e-08
1.52947e-08
5.75995e-09
6.12512e-09
5.27214e-09
1.11008e-08
4.99797e-09
1.20424e-08
2.09315e-09
1.18377e-08
1.16118e-08
1.06393e-08
1.17009e-08
1.11826e-08
1.17606e-08
4.77413e-09
3.64911e-09
4.66723e-09
2.87483e-09
1.1874e-08
3.57622e-09
2.90005e-09
2.49157e-09
1.25771e-08
1.19209e-08
1.05277e-08
1.10694e-08
9.75438e-09
9.58782e-09
4.27335e-09
2.72772e-09
4.46956e-09
2.45437e-09
6.49499e-09
1.02414e-08
6.01351e-09
3.23633e-09
3.00122e-09
1.37217e-08
1.26911e-08
1.0904e-08
1.11289e-08
9.23366e-09
9.00789e-09
4.16182e-09
2.21675e-09
3.13904e-09
3.44293e-09
2.52233e-09
5.24731e-09
1.03207e-08
6.35212e-09
3.65782e-09
1.52595e-08
1.38793e-08
1.16831e-08
1.16813e-08
9.27221e-09
9.19405e-09
4.27727e-09
1.90348e-09
2.41477e-09
4.85859e-09
1.62058e-09
5.1912e-09
7.3085e-09
1.1291e-08
4.51597e-09
1.71842e-08
1.54717e-08
1.28376e-08
1.26597e-08
9.69505e-09
9.8823e-09
4.42313e-09
1.70325e-09
2.15281e-09
4.8775e-09
1.2099e-09
5.47819e-09
1.6573e-08
1.02276e-08
5.6646e-09
1.94764e-08
1.74649e-08
1.43698e-08
1.40514e-08
1.04506e-08
1.09568e-08
4.52244e-09
1.56223e-09
2.36922e-09
3.2999e-09
9.22743e-10
7.15429e-09
6.86466e-09
1.66452e-08
7.26078e-09
2.20788e-08
1.9846e-08
1.62899e-08
1.58739e-08
1.15345e-08
1.23866e-08
4.54529e-09
1.47754e-09
3.58576e-09
1.49398e-09
8.54872e-10
7.86554e-09
4.12566e-09
6.10241e-09
9.60837e-09
2.48638e-08
2.25667e-08
1.85994e-08
1.81576e-08
1.2966e-08
1.41727e-08
4.50568e-09
1.47119e-09
6.18998e-09
9.43984e-10
9.45714e-10
6.95598e-09
3.90732e-09
3.78556e-09
1.33529e-08
2.76149e-08
2.55132e-08
2.12683e-08
2.09343e-08
1.47713e-08
1.63625e-08
4.43853e-09
1.57247e-09
4.90345e-09
9.87743e-10
1.18242e-09
6.53733e-09
4.84597e-09
4.77823e-09
1.9887e-08
3.00387e-08
2.84741e-08
2.42008e-08
2.42155e-08
1.69731e-08
1.90395e-08
4.37532e-09
1.78251e-09
3.59911e-09
1.08172e-09
1.65844e-09
7.94068e-09
8.10424e-09
5.81502e-09
2.98181e-08
3.18019e-08
3.11203e-08
2.7199e-08
2.79495e-08
1.95717e-08
2.2332e-08
4.34416e-09
2.1321e-09
3.0747e-09
1.21155e-09
2.49121e-09
1.05591e-08
1.84689e-08
1.03304e-08
2.93212e-08
3.26038e-08
3.30632e-08
2.99388e-08
3.19551e-08
2.25086e-08
2.6419e-08
4.37575e-09
2.68747e-09
2.79523e-09
1.39737e-09
3.7893e-09
1.254e-08
2.42956e-08
3.07468e-08
1.95864e-08
3.23151e-08
3.39563e-08
3.20014e-08
3.58312e-08
2.56176e-08
3.15149e-08
4.51266e-09
3.52467e-09
2.81833e-09
1.67916e-09
5.57942e-09
1.35464e-08
1.88202e-08
5.48875e-08
1.33819e-08
3.10421e-08
3.36425e-08
3.2979e-08
3.89231e-08
2.85729e-08
3.77927e-08
4.82743e-09
4.65201e-09
2.99853e-09
2.10327e-09
7.96836e-09
1.44685e-08
1.683e-08
2.8251e-08
9.81307e-09
2.90399e-08
3.22336e-08
3.2677e-08
4.04703e-08
3.08844e-08
4.51111e-08
5.47377e-09
5.91718e-09
3.30214e-09
2.74014e-09
1.11264e-08
1.52538e-08
1.67971e-08
2.31457e-08
7.56966e-09
2.66262e-08
3.00404e-08
3.12047e-08
4.00266e-08
3.20342e-08
5.23344e-08
6.83154e-09
6.63945e-09
3.76616e-09
3.6732e-09
1.56887e-08
1.62361e-08
1.73853e-08
2.2343e-08
6.04343e-09
2.40906e-08
2.74176e-08
2.89251e-08
3.77967e-08
3.17219e-08
5.67219e-08
1.01629e-08
6.40639e-09
4.4828e-09
5.12205e-09
2.25875e-08
1.80826e-08
1.839e-08
2.29024e-08
4.94455e-09
2.16345e-08
2.46943e-08
2.62443e-08
3.44657e-08
3.00823e-08
5.56088e-08
2.3005e-08
5.86347e-09
5.63426e-09
7.4791e-09
3.01221e-08
2.15841e-08
2.01326e-08
2.43241e-08
4.12106e-09
1.93819e-08
2.20954e-08
2.35039e-08
3.07379e-08
2.75857e-08
4.98634e-08
3.37271e-08
5.48837e-09
7.77025e-09
1.14847e-08
3.57977e-08
2.76575e-08
2.34136e-08
2.69128e-08
3.48612e-09
1.73932e-08
1.97391e-08
2.09195e-08
2.71072e-08
2.47365e-08
4.26471e-08
1.23048e-08
5.43507e-09
1.15454e-08
1.98073e-08
3.99115e-08
3.75905e-08
2.94635e-08
3.16424e-08
2.98638e-09
1.56823e-08
1.76712e-08
1.86e-08
2.38209e-08
2.19101e-08
3.59732e-08
7.82195e-09
5.71589e-09
1.24166e-08
4.56421e-08
4.18525e-08
5.72099e-08
4.03632e-08
4.02926e-08
2.58703e-09
1.42396e-08
1.5899e-08
1.65831e-08
2.09621e-08
1.93167e-08
3.0433e-08
6.1147e-09
6.15358e-09
8.67463e-09
5.86044e-08
4.18286e-08
9.72847e-08
5.65152e-08
5.62242e-08
2.26426e-09
1.30466e-08
1.44084e-08
1.48669e-08
1.85304e-08
1.70418e-08
2.59836e-08
5.30639e-09
6.42568e-09
6.25798e-09
2.24798e-08
4.12981e-08
1.25895e-07
7.28413e-08
9.18633e-08
2.00113e-09
1.20813e-08
1.31765e-08
1.34304e-08
1.64905e-08
1.50999e-08
2.24217e-08
4.89278e-09
6.05653e-09
4.9441e-09
1.25934e-08
4.09652e-08
1.05816e-07
7.72077e-08
1.8206e-07
1.78539e-09
1.13244e-08
1.21781e-08
1.2246e-08
1.47964e-08
1.3471e-08
1.95474e-08
4.68333e-09
5.13546e-09
4.14235e-09
8.18804e-09
3.72297e-08
7.58905e-08
7.24668e-08
3.75768e-07
1.60776e-09
1.07575e-08
1.13926e-08
1.12851e-08
1.34022e-08
1.21217e-08
1.7201e-08
4.59105e-09
4.15434e-09
3.6215e-09
5.73098e-09
3.26319e-08
4.96255e-08
6.21151e-08
2.13577e-07
1.46215e-09
1.03887e-08
1.08024e-08
1.05234e-08
1.2267e-08
1.10162e-08
1.52632e-08
4.56982e-09
3.33216e-09
3.27047e-09
4.22873e-09
2.77476e-08
3.4505e-08
4.83547e-08
1.16277e-07
1.02373e-08
1.27548e-09
1.04143e-08
9.93921e-09
1.13578e-08
1.01213e-08
1.36469e-08
4.59128e-09
2.71532e-09
3.02728e-09
3.26408e-09
2.281e-08
2.6233e-08
3.63427e-08
7.29399e-08
1.02369e-08
1.03087e-08
1.09486e-09
9.53455e-09
1.06466e-08
9.40798e-09
1.22883e-08
4.63535e-09
2.2793e-09
2.88487e-09
2.5945e-09
1.7574e-08
2.10175e-08
2.77786e-08
4.97822e-08
9.30711e-09
1.02573e-08
1.14547e-08
9.8694e-10
1.0132e-08
8.85154e-09
1.11421e-08
4.68647e-09
1.9774e-09
2.84868e-09
2.12154e-09
1.33716e-08
1.77025e-08
2.23846e-08
3.74638e-08
9.79799e-09
9.19019e-09
1.12032e-08
1.52459e-08
9.39174e-10
8.44951e-09
1.01759e-08
4.73228e-09
1.77047e-09
2.93008e-09
1.78802e-09
1.03561e-08
1.55981e-08
1.90231e-08
3.00882e-08
8.18394e-09
9.52487e-09
9.67508e-09
1.3966e-08
2.19697e-08
9.41139e-10
9.38391e-09
4.75966e-09
1.63091e-09
3.17153e-09
1.54754e-09
8.06569e-09
1.42327e-08
1.69456e-08
2.54686e-08
8.75177e-09
7.97892e-09
9.67611e-09
1.10057e-08
1.6801e-08
1.14132e-08
9.1292e-10
4.74863e-09
1.5393e-09
3.54184e-09
1.37274e-09
6.22809e-09
1.32534e-08
1.55823e-08
2.25765e-08
4.68349e-09
8.04727e-09
8.10845e-09
1.03764e-08
1.16613e-08
1.08916e-08
6.14984e-09
1.30571e-09
1.48678e-09
4.18792e-09
1.24604e-09
4.73528e-09
1.23826e-08
1.4571e-08
2.06398e-08
1.46086e-09
4.53757e-09
7.50359e-09
8.6993e-09
1.06693e-08
9.06518e-09
8.60633e-09
2.32441e-09
6.73323e-10
4.74604e-09
1.13954e-09
3.55475e-09
1.14556e-08
1.37346e-08
1.92348e-08
4.01431e-09
1.5193e-09
4.42861e-09
7.53753e-09
9.03485e-09
9.67642e-09
8.2017e-09
3.42894e-09
4.65255e-09
8.06656e-10
1.02287e-09
2.61678e-09
1.04877e-08
1.30464e-08
1.81743e-08
9.74523e-10
3.06204e-09
1.69615e-09
4.27525e-09
8.03064e-09
8.72295e-09
1.00791e-08
4.25634e-09
1.25379e-08
3.81142e-09
5.51158e-10
1.96154e-09
9.63077e-09
1.26635e-08
1.74985e-08
1.53441e-09
9.70851e-10
1.96211e-09
1.84061e-09
4.31128e-09
8.50067e-09
9.17616e-09
7.53623e-09
1.07036e-08
3.80662e-08
3.27568e-09
8.07704e-10
8.34897e-09
1.30761e-08
1.74746e-08
8.65356e-09
1.11659e-09
1.75115e-09
1.75016e-09
1.98058e-09
4.6122e-09
9.06775e-09
1.25141e-08
7.03423e-09
4.35052e-08
1.3629e-08
5.62232e-09
1.13727e-09
2.42446e-10
1.3706e-08
1.90095e-08
1.8325e-08
8.67969e-09
8.64627e-10
3.93176e-09
1.83158e-09
2.14726e-09
5.29242e-09
1.2286e-08
8.60777e-09
1.24924e-08
2.05911e-08
1.4079e-08
8.65508e-10
9.28499e-10
1.71393e-09
2.23919e-10
2.25583e-08
4.38988e-08
2.09314e-08
5.22816e-09
7.83047e-10
3.72789e-09
2.13421e-09
2.43035e-09
6.9406e-09
1.01756e-08
5.67169e-09
1.52462e-08
1.87456e-08
8.79064e-10
7.73455e-10
1.08913e-09
1.14704e-09
2.24034e-09
2.19309e-10
3.38918e-08
9.06679e-09
4.29266e-09
8.18334e-10
3.41645e-09
2.7885e-09
3.05171e-09
7.27688e-09
3.27249e-09
8.15935e-09
1.56243e-08
1.43885e-09
9.06245e-10
1.04548e-09
1.47269e-09
1.24947e-09
1.37568e-09
2.80341e-09
2.18648e-10
1.06866e-08
4.98996e-09
4.56614e-09
9.65266e-10
3.49232e-09
3.35645e-09
3.62267e-09
3.18808e-09
3.61705e-09
1.07679e-08
2.24191e-09
1.45287e-09
1.2177e-09
1.52248e-09
2.16219e-09
1.75224e-09
1.54154e-09
1.57482e-09
2.62795e-09
2.22528e-10
5.64025e-09
3.77729e-09
7.48971e-09
1.13138e-09
2.53037e-09
2.82577e-09
2.74543e-09
2.01656e-09
5.17419e-09
2.82655e-09
2.20546e-09
1.55e-09
1.67859e-09
1.79739e-09
6.60525e-09
3.36749e-09
2.37497e-09
1.90346e-09
1.58026e-09
2.03598e-09
2.35143e-10
4.32177e-09
3.36323e-09
1.08564e-08
1.39738e-09
1.65213e-09
2.37589e-09
1.98796e-09
2.42649e-09
2.57145e-09
2.66594e-09
1.93583e-09
2.01904e-09
1.94211e-09
3.45316e-09
6.02526e-10
1.91682e-08
6.06036e-10
5.57997e-10
5.60171e-10
6.94626e-09
3.17383e-09
2.23034e-09
1.56461e-09
1.62653e-09
2.47587e-10
2.97339e-09
3.46478e-09
8.39212e-09
2.31011e-09
1.40769e-09
2.21239e-09
1.91513e-09
2.11577e-09
2.44865e-09
2.39545e-09
2.42865e-09
2.33986e-09
2.67708e-09
9.69136e-09
8.37364e-10
1.08896e-09
1.25698e-08
8.42953e-10
1.03348e-09
1.03974e-09
1.11168e-09
9.21831e-10
9.33959e-10
1.32905e-08
4.04871e-09
2.44492e-09
1.56866e-09
1.40797e-09
2.69236e-10
3.1881e-09
3.91172e-09
7.94458e-09
8.32358e-09
1.63506e-09
2.08233e-09
2.11839e-09
2.16815e-09
2.65464e-09
2.70957e-09
3.27637e-09
2.60611e-09
5.10929e-09
7.09058e-10
7.06293e-10
6.2612e-10
6.23698e-10
1.60021e-09
2.13061e-09
1.24236e-08
1.42706e-08
1.64013e-09
2.93787e-09
2.9926e-09
2.18154e-09
1.54175e-09
1.56041e-09
1.3974e-08
4.78276e-09
2.6078e-09
1.6737e-09
1.20665e-09
2.96214e-10
3.71545e-09
4.70831e-09
8.64115e-09
6.58168e-09
1.85927e-09
2.39346e-09
2.18109e-09
2.54592e-09
2.6988e-09
3.85261e-09
2.7106e-09
4.53623e-09
5.02022e-10
5.00014e-10
4.62989e-10
4.62663e-10
1.07821e-09
1.06991e-09
8.76585e-10
8.71306e-10
5.67195e-09
2.35715e-09
2.45911e-09
1.76747e-09
1.81116e-09
1.29634e-08
1.52168e-08
4.78794e-09
4.7266e-09
7.27007e-09
7.24517e-09
5.86336e-09
6.80017e-09
6.82441e-09
2.44722e-09
2.33317e-09
1.84353e-09
1.76146e-09
2.16141e-09
1.15543e-09
2.18938e-09
1.28087e-09
2.49238e-09
1.09599e-09
2.50177e-09
1.19031e-09
1.31305e-08
5.37639e-09
2.79911e-09
1.72036e-09
1.07699e-09
3.35294e-10
4.54121e-09
5.44329e-09
9.3116e-09
3.17791e-09
1.50718e-09
2.744e-09
2.70521e-09
2.70494e-09
3.03343e-09
3.52218e-09
3.78984e-09
4.24545e-10
4.24963e-10
4.18107e-10
4.18948e-10
7.65773e-10
7.62634e-10
7.5687e-10
7.56901e-10
8.8442e-10
1.42881e-09
2.11049e-09
7.594e-10
2.74109e-09
1.90541e-09
1.40472e-09
8.68942e-10
2.11389e-09
7.40593e-10
2.9329e-09
1.94621e-09
6.05771e-10
2.15453e-09
6.06708e-10
2.15391e-09
5.94809e-10
2.25078e-09
5.97101e-10
2.2224e-09
2.27211e-09
3.47385e-09
2.13624e-09
3.95488e-09
2.74557e-09
2.37826e-09
2.75428e-09
2.04316e-09
1.32847e-08
1.95178e-08
3.97874e-09
3.94875e-09
4.2157e-09
4.16937e-09
3.62546e-09
3.54124e-09
3.94934e-09
3.85225e-09
2.26347e-09
3.21075e-09
2.2474e-09
3.69794e-09
2.851e-09
4.20507e-09
2.31096e-09
3.28952e-09
2.83944e-09
3.91201e-09
2.30297e-09
3.2085e-09
2.81955e-09
2.30369e-09
2.75733e-09
1.95326e-09
2.36948e-09
1.58183e-09
2.55786e-09
1.50141e-09
1.33383e-08
5.05081e-09
3.04096e-09
1.84802e-09
1.09306e-09
3.8888e-10
5.29863e-09
6.69027e-09
8.25546e-09
2.56017e-09
1.07681e-09
3.29652e-09
3.14659e-09
2.73379e-09
3.8071e-09
3.42657e-09
4.17478e-10
4.17659e-10
4.06608e-10
4.07675e-10
6.79066e-10
6.80692e-10
6.52533e-10
6.54669e-10
5.41565e-10
1.9809e-09
5.26331e-10
2.42776e-09
5.33248e-10
2.05851e-09
5.15722e-10
2.60575e-09
5.13034e-10
2.19352e-09
4.96136e-10
2.28442e-09
5.06054e-10
2.29371e-09
4.90891e-10
2.35229e-09
1.30718e-09
9.30099e-10
2.31086e-09
2.57667e-09
7.76752e-10
2.72602e-09
1.31237e-09
9.09528e-10
2.64642e-09
2.35542e-09
7.61757e-10
2.8892e-09
6.92535e-10
2.16084e-09
6.88206e-10
2.16073e-09
6.81609e-10
2.23999e-09
6.77196e-10
2.22564e-09
4.22872e-09
2.97441e-09
3.64809e-09
3.89832e-09
3.03085e-09
2.35215e-09
2.9563e-09
2.02967e-09
1.33412e-08
2.17188e-08
3.94099e-09
3.94279e-09
3.93521e-09
3.92078e-09
3.70731e-09
3.68541e-09
3.65194e-09
3.59832e-09
1.93484e-09
1.20953e-08
1.83705e-09
1.07778e-08
1.87361e-09
1.37095e-08
1.80698e-09
1.38297e-08
1.79059e-09
3.37488e-09
1.07891e-08
1.77091e-09
9.60372e-09
3.3477e-09
1.82969e-09
3.52568e-09
1.26736e-08
1.75972e-09
1.2345e-08
3.60107e-09
4.08774e-09
2.815e-09
3.60974e-09
3.57055e-09
5.41478e-09
3.50443e-09
5.50588e-09
3.35816e-09
3.1296e-09
2.20463e-09
3.14453e-09
1.9496e-09
2.61835e-09
1.62498e-09
2.74733e-09
1.56384e-09
1.24775e-08
5.58188e-09
3.46937e-09
2.32989e-09
1.3298e-09
4.61133e-10
6.28114e-09
6.75128e-09
7.76465e-09
2.04672e-09
7.44432e-10
4.18066e-09
3.54747e-09
4.62432e-09
3.61684e-09
4.33545e-10
4.34503e-10
4.09488e-10
4.09475e-10
6.2545e-10
6.25781e-10
6.26975e-10
6.293e-10
4.91123e-10
1.8445e-09
4.7699e-10
2.16234e-09
4.86067e-10
1.91736e-09
4.75234e-10
2.19126e-09
4.51368e-10
2.62286e-09
4.57809e-10
2.42887e-09
4.46972e-10
2.82002e-09
4.55009e-10
2.51956e-09
6.38254e-10
1.96377e-09
6.23821e-10
2.27032e-09
6.29185e-10
2.02252e-09
6.10631e-10
2.412e-09
6.29971e-10
1.92373e-09
6.05006e-10
2.16569e-09
6.18663e-10
2.01652e-09
5.93586e-10
2.29864e-09
4.96438e-09
2.70466e-09
4.37448e-09
2.76713e-09
1.34023e-08
2.06697e-08
4.26428e-09
4.30966e-09
4.07287e-09
4.09779e-09
3.76307e-09
3.80533e-09
3.66493e-09
3.67584e-09
2.20096e-09
8.7171e-09
2.15306e-09
1.14347e-08
2.10592e-09
8.30801e-09
2.05707e-09
1.09949e-08
2.03737e-09
1.33009e-08
2.09653e-09
1.3254e-08
1.95726e-09
1.38587e-08
2.0093e-09
1.30158e-08
2.0845e-09
8.22842e-09
1.9415e-09
9.15616e-09
1.99862e-09
7.18251e-09
1.88552e-09
7.58144e-09
1.84758e-09
1.73789e-09
9.3076e-09
8.07224e-09
1.84646e-09
9.85326e-09
1.90004e-09
1.72461e-09
6.97244e-09
6.57969e-09
1.80349e-09
7.71168e-09
5.31795e-09
2.49815e-09
4.42035e-09
2.65348e-09
5.57199e-09
2.42335e-09
6.79265e-09
2.47767e-09
1.26729e-08
6.81142e-09
4.77367e-09
3.4458e-09
1.76293e-09
5.62489e-10
7.0051e-09
8.33047e-09
5.15859e-09
1.8601e-09
6.99802e-10
5.20175e-09
4.25523e-09
6.21095e-09
4.8068e-09
6.35396e-10
6.36851e-10
5.55553e-10
5.55521e-10
8.40789e-10
8.41627e-10
7.80866e-10
7.86618e-10
5.95039e-10
1.86297e-09
5.70157e-10
2.21217e-09
5.90472e-10
1.89412e-09
5.67235e-10
2.2494e-09
5.21654e-10
2.07747e-09
5.39376e-10
2.34234e-09
5.16552e-10
2.19021e-09
5.35834e-10
2.4215e-09
6.37273e-10
1.89139e-09
6.28798e-10
1.93163e-09
2.03185e-08
2.00598e-08
5.78744e-09
5.87701e-09
4.54106e-09
4.60948e-09
4.607e-09
4.72199e-09
4.07224e-09
4.15347e-09
2.92163e-09
3.89058e-09
2.42504e-09
5.04704e-09
2.72111e-09
3.64765e-09
2.31978e-09
4.9804e-09
2.26465e-09
6.73324e-09
2.39234e-09
6.1721e-09
2.16672e-09
6.54611e-09
2.28879e-09
6.03009e-09
2.51744e-09
9.30217e-09
2.46012e-09
7.2786e-09
2.38359e-09
8.97662e-09
2.31137e-09
7.0018e-09
2.21918e-09
7.54217e-09
2.32913e-09
7.13441e-09
2.10279e-09
6.90749e-09
2.20223e-09
6.6762e-09
1.51558e-08
9.15469e-09
7.9777e-09
6.2077e-09
2.54116e-09
6.9347e-10
8.44856e-09
8.50547e-09
4.90692e-09
1.49276e-09
8.20342e-10
4.66763e-09
6.83402e-09
9.32358e-09
4.35672e-10
4.35707e-10
5.72317e-10
5.707e-10
7.73317e-10
7.75966e-10
6.44224e-10
6.45909e-10
2.95354e-09
4.96595e-10
2.46806e-09
4.77607e-10
2.85113e-09
4.98936e-10
2.41947e-09
4.80531e-10
3.05477e-09
4.62063e-10
3.52991e-09
4.57371e-10
2.90298e-09
4.63624e-10
3.45909e-09
4.62307e-10
6.19218e-10
1.84782e-09
6.16485e-10
2.08369e-09
6.15528e-10
1.85976e-09
6.14294e-10
2.09742e-09
5.86167e-10
2.03743e-09
5.90355e-10
2.32335e-09
5.81102e-10
2.10885e-09
5.87294e-10
2.38227e-09
2.14363e-08
1.75906e-08
5.56001e-08
4.5788e-09
4.70847e-09
4.81267e-09
4.95602e-09
4.53383e-09
4.75013e-09
4.34643e-09
4.52967e-09
2.50647e-09
7.32665e-09
2.60465e-09
1.07048e-08
2.47472e-09
6.13124e-09
2.52745e-09
9.86233e-09
2.59457e-09
9.72842e-09
2.64903e-09
1.01015e-08
2.47306e-09
9.4433e-09
2.551e-09
9.71266e-09
2.63854e-09
7.75888e-09
2.54307e-09
7.63583e-09
1.60002e-08
1.1386e-08
1.29102e-08
8.2054e-09
2.58263e-09
8.25748e-10
9.19085e-09
1.11796e-08
5.30007e-09
1.3948e-09
1.14366e-09
1.82531e-09
1.05854e-08
1.77849e-08
6.22766e-10
6.22775e-10
7.71535e-10
7.70564e-10
4.53619e-10
3.89092e-09
4.53321e-09
4.31232e-10
4.53149e-10
3.94048e-09
4.48469e-09
4.32555e-10
7.16114e-10
7.185e-10
2.87526e-09
5.32138e-10
2.4544e-09
5.30249e-10
2.74496e-09
5.35482e-10
2.36748e-09
5.33952e-10
3.13127e-09
5.24567e-10
3.26912e-09
5.29691e-10
2.97476e-09
5.24621e-10
3.25983e-09
5.34444e-10
5.78734e-10
2.22476e-09
5.75781e-10
2.25596e-09
2.0296e-08
1.84273e-08
3.07551e-08
6.68483e-09
6.96456e-09
5.15902e-09
5.39408e-09
5.32309e-09
5.58835e-09
4.48899e-09
4.72806e-09
5.23099e-09
2.55746e-09
4.08176e-09
2.49174e-09
5.21518e-09
2.49169e-09
4.19014e-09
2.4311e-09
8.9945e-09
2.75342e-09
1.57207e-08
2.58905e-09
8.41893e-09
2.69224e-09
1.04551e-08
2.56194e-09
2.79055e-09
1.01714e-08
2.74384e-09
8.54777e-09
2.70157e-09
8.4589e-09
2.67089e-09
8.07249e-09
2.67936e-09
7.81994e-09
2.7008e-09
8.10708e-09
2.61168e-09
7.69472e-09
2.63978e-09
7.91932e-09
1.52872e-08
1.37397e-08
8.08317e-09
2.52048e-09
6.28248e-10
1.59022e-08
6.65342e-09
1.165e-08
1.87343e-09
1.74395e-09
1.4365e-09
3.81061e-08
1.45836e-09
1.45888e-09
2.40443e-09
2.40383e-09
3.97495e-10
7.02669e-09
4.30028e-10
7.94569e-09
3.96833e-10
7.08345e-09
4.28715e-10
8.05918e-09
1.12649e-09
1.12363e-09
5.09826e-10
3.61537e-09
3.53614e-09
4.65581e-10
5.08781e-10
3.68517e-09
3.47089e-09
4.67092e-10
4.21143e-10
7.97624e-09
4.25129e-10
7.37711e-09
4.20981e-10
8.11891e-09
4.27389e-10
6.88879e-09
3.1389e-09
5.46104e-10
3.18098e-09
5.34423e-10
3.07641e-09
5.44963e-10
3.21586e-09
5.35408e-10
2.72954e-08
1.60231e-08
2.71804e-08
1.54295e-07
3.56426e-09
3.78071e-09
3.94654e-09
4.19004e-09
4.32682e-09
4.61285e-09
2.46008e-09
3.27715e-09
3.00655e-09
3.12067e-09
2.37821e-09
3.43461e-09
2.83499e-09
2.73233e-09
6.84462e-09
3.21592e-09
8.37406e-09
3.1451e-09
6.15791e-09
3.22668e-09
7.27811e-09
3.10999e-09
6.18762e-09
3.33955e-09
6.54799e-09
3.39149e-09
5.4945e-09
3.31248e-09
5.69006e-09
3.35754e-09
3.17878e-09
6.76342e-09
3.13171e-09
5.96811e-09
1.61955e-08
8.13185e-09
2.41771e-09
4.70454e-10
1.54802e-08
5.37788e-09
3.29321e-09
7.56972e-09
3.38675e-08
1.0865e-07
5.7064e-09
5.70985e-09
1.03602e-08
1.03655e-08
2.46691e-09
2.46596e-09
4.60629e-09
4.60726e-09
4.74307e-10
5.19794e-09
5.0695e-10
8.47023e-09
4.73045e-10
5.33243e-09
5.06285e-10
8.48817e-09
7.78139e-09
8.50735e-10
6.17193e-09
6.91881e-10
7.81922e-09
8.47346e-10
6.17419e-09
6.89798e-10
5.46644e-10
3.32335e-09
3.3608e-09
5.09836e-10
5.46605e-10
3.31926e-09
3.27976e-09
5.11813e-10
4.81575e-10
4.91302e-09
4.67889e-10
6.21122e-09
4.81898e-10
4.86193e-09
4.69664e-10
5.85e-09
2.60053e-08
1.67754e-08
1.8438e-08
4.38616e-08
3.10403e-09
3.25963e-09
3.38632e-09
3.57178e-09
3.42565e-09
3.62565e-09
1.95255e-09
2.55931e-09
2.35377e-09
2.30676e-09
2.03393e-09
2.9663e-09
2.29664e-09
2.45319e-09
2.07978e-09
3.25084e-09
2.1407e-09
7.82736e-09
4.17414e-09
4.00255e-09
2.18904e-09
4.0784e-09
2.3158e-09
1.22296e-08
3.94866e-09
3.81307e-09
2.89783e-09
8.02027e-09
2.91443e-09
7.87154e-09
4.76771e-09
2.87509e-09
5.88557e-09
3.08662e-09
4.40939e-09
2.97923e-09
5.25441e-09
3.14101e-09
8.90872e-09
2.30371e-09
3.60557e-10
1.88694e-08
5.02964e-09
1.31258e-09
1.3062e-07
6.64643e-07
6.25329e-07
1.07353e-08
1.07567e-08
2.31519e-08
2.32417e-08
1.4978e-09
1.0144e-09
4.16175e-08
2.0592e-09
4.91573e-08
6.73062e-09
1.0119e-09
1.49649e-09
6.74521e-09
4.08545e-08
2.05467e-09
4.85301e-08
3.35795e-09
4.01609e-08
2.13167e-09
6.97623e-08
3.43024e-09
4.39578e-08
2.16738e-09
7.06088e-08
5.43083e-10
7.93563e-09
6.14195e-10
1.09696e-08
5.42039e-10
8.0077e-09
6.13225e-10
1.09797e-08
5.75635e-09
7.95809e-10
5.76612e-09
7.93706e-10
4.65271e-09
5.00342e-10
4.39022e-09
5.02451e-10
5.04949e-10
6.43351e-09
5.0401e-10
6.57374e-09
1.26546e-08
7.33845e-08
1.18437e-08
2.90874e-08
3.05346e-09
3.17848e-09
2.84272e-09
2.97032e-09
2.84502e-09
2.97522e-09
2.96651e-09
3.08131e-09
4.4333e-09
2.26953e-09
2.08178e-09
1.78441e-09
3.09201e-09
3.08033e-09
6.48769e-09
2.30197e-09
2.33049e-09
1.95542e-09
3.2109e-09
3.12903e-09
2.26584e-09
7.32394e-09
2.31368e-09
6.89618e-09
2.56065e-09
7.81408e-09
2.61333e-09
2.59399e-09
5.39124e-09
7.4195e-09
2.61412e-09
6.12773e-09
2.61093e-09
2.72309e-09
4.52549e-09
6.5723e-09
2.86106e-09
7.31449e-09
2.94732e-09
6.36417e-09
2.2336e-09
2.84509e-10
8.55028e-09
4.12824e-09
1.00041e-08
1.15369e-06
1.44115e-05
5.27209e-07
5.32347e-07
1.36446e-06
1.36079e-06
2.6069e-08
2.62946e-08
1.15611e-07
1.18074e-07
1.17536e-09
2.3668e-09
5.44178e-08
1.12599e-08
6.99246e-10
2.40626e-08
1.17253e-09
2.36399e-09
1.12036e-08
5.49745e-08
7.08979e-10
2.40247e-08
6.36898e-09
3.47433e-08
2.12379e-09
2.00549e-08
6.55796e-09
3.71203e-08
2.17e-09
2.07716e-08
6.75592e-10
7.59259e-09
6.74192e-10
7.58354e-09
2.33341e-09
2.91641e-08
1.47342e-08
1.60208e-08
2.22078e-08
2.58655e-09
2.70852e-09
2.83327e-09
2.96661e-09
2.81167e-09
1.61126e-09
1.79061e-09
1.90389e-09
2.45895e-09
1.63855e-09
1.87665e-09
2.20339e-09
1.63881e-09
2.15881e-09
4.26156e-09
1.91779e-09
2.3368e-09
2.59385e-09
1.80965e-09
2.68915e-09
6.45916e-09
2.11148e-09
2.98642e-09
2.9215e-09
4.21145e-09
6.69508e-09
2.02828e-09
2.23223e-09
3.3279e-09
5.34215e-09
2.20912e-09
2.44542e-09
2.57662e-09
7.51023e-09
2.79688e-09
5.39802e-09
2.57754e-09
5.00176e-09
2.56354e-09
4.85241e-09
2.69891e-09
3.83401e-09
2.56993e-09
4.24494e-09
2.30433e-10
3.15619e-09
2.91376e-09
2.60659e-07
1.63665e-05
0.00011262
4.74168e-07
4.60148e-07
1.2996e-06
1.16566e-06
3.33372e-07
2.00293e-08
2.31017e-07
3.78347e-08
4.34386e-07
1.98285e-08
1.97414e-07
3.61786e-08
1.72308e-07
1.71298e-07
1.02198e-08
8.7441e-08
3.73157e-09
3.75406e-08
1.06972e-08
9.70902e-08
3.84309e-09
4.18755e-08
1.92475e-10
2.97723e-09
1.95676e-08
9.69192e-09
2.73662e-08
7.82823e-09
8.44242e-09
4.34059e-09
4.61862e-09
2.32864e-08
2.35552e-08
3.62427e-09
3.8577e-09
3.27401e-09
1.94226e-09
1.91007e-09
4.58863e-09
6.15748e-09
2.56339e-09
2.02219e-09
4.84619e-09
1.7172e-09
1.99737e-09
3.51517e-09
3.92268e-09
2.22068e-09
4.63641e-09
1.84481e-09
2.28131e-09
3.23667e-09
2.77812e-09
2.55544e-09
3.89042e-09
4.42222e-09
2.2811e-09
3.41996e-09
2.51985e-09
2.86633e-09
2.49908e-09
4.8073e-06
0.00038417
1.9577e-05
1.07835e-05
0.000147369
9.39616e-05
5.49678e-07
3.77079e-07
2.04256e-06
1.04578e-06
1.79558e-07
3.03477e-08
2.45814e-07
5.52013e-08
2.08763e-07
2.96118e-08
2.15487e-07
5.23411e-08
1.38013e-07
2.73417e-07
7.54476e-08
2.88003e-07
1.03048e-07
2.20495e-07
6.51132e-08
2.06176e-07
2.00821e-08
1.83963e-07
2.01858e-08
1.9735e-07
1.63711e-10
4.66877e-09
8.1074e-09
1.28125e-08
2.09467e-08
2.12065e-09
2.39325e-09
2.48924e-09
2.77878e-09
2.58731e-09
2.85856e-09
1.64618e-09
1.6718e-09
2.02806e-09
4.85054e-09
1.84069e-09
2.12179e-09
3.37893e-09
4.86551e-09
1.98926e-09
3.51297e-09
2.1122e-09
4.09074e-09
3.2258e-09
3.15676e-09
2.56778e-09
3.05146e-09
2.59458e-09
4.04338e-08
7.27405e-05
0.000718138
5.69973e-05
2.58467e-05
0.00060849
0.000297174
2.01657e-07
1.15303e-07
2.22616e-07
3.83659e-07
2.67658e-07
7.1457e-07
1.52142e-07
1.17901e-07
1.52762e-07
2.16674e-07
1.64104e-07
4.15664e-07
3.55537e-06
1.50337e-06
2.2201e-07
4.03856e-08
2.53279e-07
5.66161e-08
2.20655e-07
3.8473e-08
2.72719e-07
5.23051e-08
9.50076e-08
2.14923e-07
7.68527e-08
2.00464e-07
1.45261e-10
4.50257e-09
6.22607e-09
1.76932e-08
8.46606e-09
8.29607e-09
5.10757e-09
4.94243e-09
5.92559e-09
6.44026e-09
2.56015e-09
2.72932e-09
2.40636e-09
1.45702e-09
1.11285e-09
2.51434e-09
1.51558e-09
1.52356e-09
2.22228e-09
1.53697e-09
1.23309e-09
3.85367e-09
3.93111e-09
2.40884e-09
1.71335e-09
3.85616e-09
2.32791e-09
2.65927e-09
1.97861e-09
3.73574e-09
3.25162e-09
2.18876e-09
2.70312e-09
1.01292e-06
0.000548645
0.000964709
0.000897155
0.000934564
0.000932686
0.000296071
7.91679e-05
0.000842938
0.000641608
2.90781e-07
1.10756e-07
1.70353e-07
3.17489e-07
1.5759e-07
5.48155e-07
1.69164e-07
9.18251e-08
1.57013e-07
2.72918e-07
1.74836e-07
3.70706e-07
2.40915e-05
4.2384e-06
2.27e-06
5.57256e-07
5.06453e-06
6.36432e-07
9.66585e-07
1.86165e-07
1.40761e-10
3.01625e-09
6.7296e-09
2.73858e-08
2.30756e-09
2.34161e-09
2.57086e-09
2.67021e-09
2.49026e-09
2.63394e-09
2.47896e-09
1.63453e-09
1.39452e-09
1.13202e-09
2.14258e-09
2.79615e-09
1.38649e-09
1.21293e-09
2.90439e-09
2.23011e-09
4.46075e-09
2.0755e-09
1.53209e-09
1.35654e-09
2.23512e-09
2.72868e-09
1.60693e-09
1.49153e-09
1.97507e-09
1.93457e-09
1.53154e-09
2.58705e-09
1.57807e-09
1.93365e-09
5.00465e-09
2.72243e-05
0.000578077
0.000876141
0.000835167
0.000794812
0.000789304
1.39611e-05
7.62575e-06
0.000458209
0.00038173
0.000173858
0.000659745
6.65943e-07
9.85764e-07
0.000394286
1.19521e-05
8.89339e-06
0.000539785
0.000924878
0.000834762
1.07341e-08
1.90156e-08
7.92563e-09
1.27469e-08
2.43857e-07
3.53054e-07
1.90184e-07
1.62143e-07
1.44133e-10
2.67899e-09
9.38084e-09
3.13938e-09
3.00916e-09
2.96928e-09
2.93337e-09
3.27831e-09
3.34025e-09
2.42532e-09
2.50551e-09
1.49314e-09
1.27599e-09
1.02189e-09
2.19731e-09
3.59914e-09
1.54886e-09
1.46024e-09
4.90278e-09
1.86684e-09
1.34687e-09
1.10593e-09
2.87416e-09
1.35278e-09
2.28276e-09
1.58163e-09
2.00926e-09
1.79461e-09
1.45956e-09
2.03828e-09
1.95709e-09
1.05033e-07
0.000430672
0.0005869
0.000680189
0.000665928
0.000631238
0.000623888
5.10086e-06
6.34728e-06
0.000455131
0.000170282
0.000184389
0.000659354
2.02841e-08
4.20511e-07
0.000399159
2.46171e-05
1.63767e-05
0.000529948
0.000718441
0.00084309
0.000762887
0.000657912
0.000721329
0.000846808
0.000651707
0.000718672
6.76384e-08
1.89393e-06
2.9606e-09
1.04453e-07
1.4591e-10
2.8923e-09
1.02669e-08
2.2234e-09
2.28604e-09
2.73052e-09
2.82034e-09
2.501e-09
2.60397e-09
3.21189e-09
1.54974e-09
1.20204e-09
1.12676e-09
1.76244e-09
1.55506e-09
2.91211e-09
1.55398e-09
1.29113e-09
1.26533e-09
2.21508e-09
1.5324e-09
1.30518e-09
1.29306e-09
2.19422e-09
1.83387e-09
1.39492e-09
1.64522e-09
1.34619e-09
2.25673e-09
7.92495e-06
0.000547839
0.000492523
0.000539348
0.000535447
0.000489834
0.000614357
0.000610208
0.000532089
0.000618595
0.00072767
0.000525957
0.000630155
0.000724895
8.8052e-06
1.25847e-05
0.000430975
0.000263302
0.000312324
0.000695421
2.64204e-07
1.99909e-06
0.00032832
2.37231e-05
7.89888e-05
0.000161887
0.000692343
0.000555055
0.000627199
0.000579675
1.53034e-10
2.5425e-09
8.51747e-09
3.51932e-09
3.79847e-09
2.81238e-09
3.01393e-09
1.78015e-09
1.02788e-09
1.13231e-09
1.33717e-09
3.64423e-09
1.46792e-09
2.13763e-09
3.20521e-09
1.58854e-09
1.1824e-09
1.42064e-09
1.71267e-09
1.52725e-09
2.44927e-09
1.55532e-09
3.24698e-09
1.69791e-09
2.39294e-09
1.77712e-09
3.48316e-09
1.51748e-09
2.20864e-09
1.56184e-09
2.07552e-09
0.000402072
0.000642705
0.000461401
0.000497596
0.000458409
0.000496517
0.000584273
0.000582435
0.000320979
0.000408221
0.000524181
0.00049249
0.000631781
0.000442701
0.000391143
0.000606486
0.00040312
0.000303633
0.000510169
0.000505847
0.000624678
0.000438451
0.00038199
0.000595258
0.000485084
0.000700871
0.000492599
0.000363548
0.000555158
0.000500038
0.000522998
0.000520222
1.89303e-10
2.67974e-09
2.40684e-09
2.33998e-09
2.52294e-09
2.83038e-09
2.22941e-09
2.52687e-09
1.9293e-09
2.85846e-09
1.3091e-09
2.12084e-09
2.79148e-09
1.50517e-09
1.90011e-09
1.00616e-09
3.15813e-09
2.50736e-09
2.8191e-09
3.13216e-09
1.21332e-09
2.81207e-09
2.0628e-09
2.49966e-09
1.98462e-09
2.21743e-09
2.5321e-09
2.05175e-09
2.13674e-09
1.97533e-09
0.000585342
0.000715316
0.000456697
0.0005486
0.000354641
0.000513914
0.000452944
0.000543361
0.000349406
0.000512676
0.000581445
0.0005802
0.000299876
0.00031557
0.000429149
0.000453144
0.000388476
0.000373379
0.000290287
0.000396934
0.000305184
0.000460478
0.000387029
0.000368503
0.000506567
0.000607181
0.000528985
0.000474842
2.46387e-10
3.06231e-09
1.03086e-09
4.53175e-09
5.02299e-09
1.27509e-09
1.36733e-09
1.65505e-09
1.22842e-09
2.50605e-09
1.20304e-09
3.07284e-09
1.27758e-09
1.45304e-09
2.62685e-09
1.09101e-09
1.49884e-09
3.15579e-09
1.55701e-09
2.97374e-09
1.35051e-09
2.02743e-09
2.26431e-09
1.13677e-09
1.51236e-09
1.07499e-09
3.46175e-09
2.383e-09
1.87366e-09
2.60074e-09
1.1732e-09
2.62683e-09
0.000669295
0.000763433
0.000599084
0.00059844
0.000762208
0.000780178
0.000778224
0.000383315
0.000539169
0.000336524
0.000486333
0.000345012
0.000592703
0.000297709
0.000448642
0.000549937
0.000378842
0.000546381
0.000376194
0.000533661
0.00032936
0.000479243
0.000339386
0.000579509
0.000287058
0.000447782
0.000549105
0.000377329
0.000536096
0.000298081
0.000312728
0.000362251
0.000381525
0.000288335
0.000301305
0.000360758
0.000375367
3.1573e-10
2.87853e-09
1.71315e-09
1.64947e-09
1.61945e-09
6.29646e-09
2.01479e-09
1.84324e-09
4.61992e-09
2.18347e-09
1.74345e-09
2.11099e-09
1.34063e-09
2.3835e-09
1.40291e-09