/*--------------------------------*- C++ -*----------------------------------*\
| =========                 |                                                 |
| \\      /  F ield         | OpenFOAM: The Open Source CFD Toolbox           |
|  \\    /   O peration     | Version:  5.x                                   |
|   \\  /    A nd           | Web:      www.OpenFOAM.org                      |
|    \\/     M anipulation  |                                                 |
\*---------------------------------------------------------------------------*/
FoamFile
{
    version     2.0;
    format      ascii;
    class       volScalarField;
    location    "0.9";
    object      omega;
}
// * * * * * * * * * * * * * * * * * * * * * * * * * * * * * * * * * * * * * //

dimensions      [0 0 -1 0 0 0 0];

internalField   nonuniform List<scalar> 
12160
(
0.0719999
0.0719999
0.00405082
0.0719999
0.0076469
0.0014202
0.0719999
0.0105162
0.00194928
0.00127214
0.0719999
0.0104043
0.00248032
0.00148213
0.00126218
0.0719999
0.00997403
0.00242288
0.00162189
0.00142182
0.00143934
0.0719999
0.00936871
0.00231861
0.00158794
0.00149023
0.0015787
0.00150061
0.0719999
0.00892044
0.00218499
0.00155763
0.00146983
0.00156145
0.00181902
0.0020884
0.0719999
0.00836936
0.00209491
0.00150957
0.00145616
0.00153334
0.00174313
0.00224171
0.00828356
0.0719999
0.00774692
0.00197623
0.00147775
0.00142805
0.00151252
0.00165014
0.0020252
0.00609741
0.00776404
0.0719999
0.00702604
0.00184904
0.00143018
0.0014062
0.00148684
0.00159072
0.00210251
0.00470824
0.00780585
0.0157916
0.0719999
0.00626212
0.00170899
0.00138265
0.00136761
0.00146627
0.0015331
0.00213933
0.00471626
0.00702738
0.00827564
0.0085433
0.0719999
0.00550743
0.00157238
0.00132961
0.00132912
0.00142839
0.0014877
0.00213147
0.00508328
0.00674298
0.00822297
0.00435495
0.00336463
0.0719999
0.0048033
0.00144982
0.00127789
0.00128566
0.00138705
0.00143306
0.00209566
0.00522248
0.0054806
0.0118068
0.00344054
0.00300987
0.00323097
0.0719999
0.00417369
0.00134711
0.00123045
0.00124297
0.00133842
0.00137714
0.00205949
0.00501667
0.00454569
0.0110729
0.00630138
0.00212657
0.00216664
0.00233323
0.0719999
0.00362853
0.00126502
0.00118913
0.00120322
0.00128956
0.00131732
0.00203183
0.00463696
0.00414244
0.00983566
0.00982226
0.0022551
0.00197197
0.00159956
0.0719999
0.00316812
0.00120153
0.00115423
0.001168
0.00124366
0.0012622
0.00202154
0.00422237
0.00388331
0.0086298
0.012364
0.00231298
0.00191575
0.00145965
0.0719999
0.00278732
0.00115348
0.00112533
0.00113774
0.0012026
0.00121433
0.00203348
0.00380831
0.00349564
0.00800283
0.0123257
0.00230401
0.00199926
0.0015049
0.0719999
0.00247782
0.00111756
0.0011017
0.0011123
0.00116694
0.00117431
0.00205964
0.00340482
0.00306387
0.00780538
0.00991638
0.00252651
0.00199621
0.00163911
0.0719999
0.00223199
0.00109095
0.00108251
0.00109122
0.00113664
0.0011414
0.0020898
0.00300493
0.00275858
0.00740707
0.00710623
0.00276999
0.00191723
0.00166826
0.0719999
0.00204091
0.00107146
0.0010671
0.00107389
0.00111131
0.00111451
0.00211508
0.00261662
0.00264558
0.00596417
0.00485713
0.0025182
0.00177063
0.00160452
0.0719999
0.00189846
0.00105733
0.0010549
0.00105982
0.00109039
0.00109257
0.00212887
0.00226072
0.00263599
0.00449533
0.003309
0.00203854
0.00158303
0.00145584
0.0719999
0.00179861
0.00104731
0.00104542
0.00104853
0.00107334
0.0010746
0.00212603
0.00195579
0.00261281
0.00348871
0.00238357
0.00165806
0.00141062
0.00133406
0.0719999
0.00173658
0.0010405
0.00103824
0.00103961
0.00105967
0.0010598
0.00210316
0.0017115
0.00254704
0.0027885
0.00185648
0.00143427
0.00130469
0.00124705
0.0719999
0.00170776
0.00103632
0.00103308
0.0010327
0.00104891
0.00104766
0.00205594
0.00153146
0.00244952
0.00228513
0.00155038
0.00130776
0.00125178
0.00120229
0.0719999
0.00171022
0.00103438
0.00102976
0.00102758
0.00104064
0.00103768
0.00198037
0.00141121
0.00233538
0.00191971
0.0013652
0.00123112
0.00121467
0.00118394
0.0719999
0.00174285
0.00103452
0.00102816
0.00102417
0.00103459
0.00102949
0.0018731
0.00134127
0.0022126
0.00165597
0.00124845
0.00118041
0.00118235
0.00116452
0.0719999
0.00180546
0.00103665
0.00102823
0.00102248
0.00103061
0.00102291
0.00173005
0.00131749
0.00208029
0.00146829
0.00117251
0.001143
0.0011535
0.0011421
0.0719999
0.00189859
0.00104081
0.00102992
0.00102253
0.00102865
0.00101798
0.00155551
0.00133344
0.00193462
0.0013344
0.00112296
0.00111263
0.00112707
0.00111984
0.0719999
0.0020233
0.00104714
0.00103315
0.00102428
0.00102869
0.00101504
0.00136116
0.00137895
0.00177064
0.00124096
0.00109075
0.00108663
0.00110268
0.00109853
0.0719999
0.00218081
0.00105588
0.00103789
0.00102758
0.00103069
0.00101499
0.00116727
0.00143583
0.00159041
0.00117636
0.00107138
0.00106413
0.00108035
0.00107867
0.0719999
0.00237229
0.00106741
0.00104413
0.00103229
0.0010345
0.00101795
0.00104628
0.00148048
0.00140414
0.0011341
0.00106133
0.00104633
0.00105987
0.00106038
0.0719999
0.0025992
0.00108221
0.00105193
0.00103835
0.00104
0.00102277
0.00118602
0.00148741
0.00123455
0.00110587
0.00105767
0.00103399
0.00104257
0.00104359
0.0719999
0.00286296
0.00110089
0.00106138
0.00104576
0.00104718
0.00102891
0.00135631
0.00145859
0.00115021
0.00108525
0.00105506
0.00102792
0.00103022
0.00102884
0.0719999
0.00316496
0.0011242
0.00107261
0.0010546
0.00105604
0.00103623
0.00151328
0.00140692
0.00125151
0.00107394
0.00105285
0.00102768
0.00102377
0.00101756
0.0719999
0.00350597
0.00115296
0.00108577
0.00106498
0.00106667
0.00104471
0.00164461
0.00135598
0.00140367
0.00108776
0.00105138
0.00103019
0.00102138
0.00101106
0.0719999
0.00388599
0.00118809
0.001101
0.00107699
0.00107918
0.00105446
0.00174707
0.00132394
0.00155645
0.0011114
0.00105289
0.00103109
0.00102051
0.00100817
0.0719999
0.00430381
0.00123051
0.00111846
0.00109077
0.00109368
0.00106559
0.00182244
0.00132007
0.0016964
0.00114506
0.00105632
0.00103006
0.00101996
0.0010071
0.0719999
0.00475815
0.00128111
0.00113833
0.00110641
0.00111027
0.00107828
0.00187452
0.00134666
0.00181971
0.00119293
0.00106099
0.00103018
0.00102081
0.00100723
0.0719999
0.00525615
0.00134084
0.00116075
0.00112401
0.00112903
0.00109269
0.00190763
0.00140309
0.00192689
0.00125832
0.00106877
0.00103458
0.00102349
0.00100863
0.0058562
0.0719999
0.001412
0.00118594
0.00114363
0.00115003
0.00110903
0.00192551
0.00148878
0.00202121
0.00134366
0.00108193
0.00104398
0.00102913
0.00101161
0.00150661
0.00666031
0.0719999
0.00121455
0.00116537
0.0011733
0.0011275
0.00193122
0.00160332
0.00210626
0.00145266
0.00110233
0.00105768
0.00103887
0.00101728
0.00125142
0.00164458
0.00794643
0.0719999
0.00118962
0.0011989
0.00114836
0.00192742
0.00174573
0.00218331
0.00159021
0.00113144
0.00107532
0.00105267
0.00102625
0.00122031
0.00130285
0.00189683
0.00915255
0.0719999
0.00122723
0.0011719
0.00191642
0.00191333
0.00225195
0.0017615
0.00117102
0.00109544
0.00106962
0.00103811
0.00126235
0.00126185
0.00139584
0.00218328
0.0103525
0.0719999
0.0011988
0.00190033
0.00210209
0.0023112
0.0019722
0.00122395
0.00111757
0.00108853
0.00105193
0.00123304
0.00130938
0.00133431
0.00150748
0.00256105
0.0126378
0.0719999
0.00188225
0.00231345
0.00236749
0.00222991
0.00129457
0.00114201
0.00110849
0.00106704
0.0018691
0.00128156
0.0013897
0.00141767
0.00167273
0.00343023
0.0197582
0.0719999
0.00256491
0.00242788
0.0025493
0.00139025
0.00116959
0.00112932
0.00108307
0.00287701
0.00186099
0.0013692
0.00147654
0.00152535
0.00207521
0.00627872
0.0412853
0.0719999
0.00249004
0.00296586
0.00152301
0.00120243
0.00115096
0.00109983
0.0025168
0.00316901
0.00182829
0.00146664
0.00157117
0.00172657
0.00339179
0.015083
0.0577901
0.0719999
0.00354275
0.00171658
0.00124323
0.00117374
0.00111741
0.00420406
0.00249199
0.00342231
0.00183275
0.00156051
0.00169484
0.00228243
0.00761649
0.028337
0.0986422
0.0719999
0.00200617
0.00129698
0.00119716
0.00113546
0.00238944
0.00519825
0.00275135
0.00360003
0.00183948
0.00164206
0.00192029
0.0040992
0.0160894
0.0486336
0.092629
0.0863173
0.00137292
0.00122085
0.00115306
0.00144741
0.00311955
0.00611338
0.00306125
0.00363953
0.00181719
0.00171843
0.00254944
0.00883635
0.0296332
0.0668814
0.0792468
0.00531344
0.0568889
0.00124529
0.001169
0.00125263
0.00160298
0.0048124
0.00586002
0.00323714
0.00352913
0.00175952
0.00188505
0.00454087
0.0172282
0.0456573
0.065358
0.00653461
0.00632457
0.00568816
0.0568889
0.00118155
0.00118087
0.00127801
0.00205477
0.00694883
0.00553578
0.00326042
0.0032462
0.0017231
0.00260351
0.00911564
0.0288738
0.0506043
0.0102134
0.00715155
0.0088763
0.00660475
0.00588069
0.0568889
0.00118754
0.00139527
0.00255049
0.00918265
0.00553259
0.00328244
0.00287637
0.00192804
0.00473635
0.0160548
0.0363838
0.0123469
0.00856901
0.00871647
0.0101624
0.00938029
0.00753319
0.00647268
0.0568889
0.00123267
0.00156391
0.00271254
0.010858
0.00590058
0.00347571
0.0027149
0.00280034
0.0082943
0.022753
0.0123567
0.0091569
0.00884755
0.00972852
0.0110424
0.0105839
0.0101339
0.00895187
0.00782505
0.0568889
0.00131993
0.00169945
0.00235865
0.0107734
0.00620295
0.00391279
0.00299731
0.00437595
0.012171
0.0102274
0.00904658
0.0090794
0.0094012
0.0104885
0.0134117
0.0118428
0.0111935
0.0110107
0.0107075
0.00972694
0.0568889
0.00142661
0.00179856
0.00198153
0.00897842
0.00627611
0.00449178
0.00370761
0.00621341
0.00758375
0.00831126
0.009156
0.00914897
0.00995781
0.0117294
0.0207014
0.0160489
0.0207623
0.0195775
0.0196161
0.0131223
0.0121196
0.0119037
0.0123423
0.0119588
0.0568889
0.0015672
0.0019042
0.00182337
0.00622502
0.00616323
0.00506452
0.00444721
0.00532497
0.00731724
0.00854796
0.00886394
0.00943878
0.010615
0.0154616
0.0227954
0.0244162
0.0193818
0.0228723
0.0242003
0.0242729
0.0246661
0.0235336
0.0236846
0.0150157
0.0133064
0.0126977
0.0136578
0.0147449
0.0568889
0.00166433
0.00199066
0.00185
0.00393924
0.00577674
0.00553601
0.00472243
0.00585648
0.00735109
0.00824976
0.00878347
0.00979544
0.0121014
0.0198849
0.0198439
0.0187201
0.0186873
0.0254593
0.0262798
0.0227986
0.0271953
0.0257831
0.0257885
0.0260036
0.0265871
0.0255886
0.0257357
0.0173339
0.0144595
0.0133093
0.0148183
0.0188213
0.0568889
0.00168988
0.00202733
0.00193733
0.00271223
0.00542187
0.00580943
0.00531199
0.00573792
0.00740798
0.00796128
0.00911808
0.0102117
0.0162365
0.0162057
0.015657
0.0156533
0.0220132
0.0219316
0.020972
0.020908
0.028327
0.0270863
0.0304979
0.0274996
0.0294063
0.0254103
0.0312537
0.0365723
0.0362979
0.0338998
0.0336696
0.0286705
0.0306905
0.0307486
0.0272774
0.0304492
0.0277384
0.02939
0.026155
0.0277962
0.0258179
0.0282849
0.0261401
0.0277916
0.0257279
0.028219
0.0188807
0.0152689
0.0138673
0.0163885
0.0247807
0.0568889
0.00164778
0.00203688
0.00199523
0.00245274
0.00561664
0.00634127
0.00568118
0.00606668
0.00729301
0.00813286
0.00917767
0.0141688
0.0141771
0.0137889
0.0138041
0.0190187
0.0189779
0.0182445
0.0182413
0.0242968
0.0287896
0.0222857
0.0238828
0.0220805
0.0254044
0.028873
0.0242109
0.0221599
0.0237775
0.0219487
0.0252446
0.0231021
0.0211579
0.0232443
0.0212356
0.023033
0.0210671
0.0231701
0.0211467
0.0302718
0.0315248
0.0295995
0.0323365
0.0275612
0.0307944
0.0282072
0.0301706
0.026505
0.0343791
0.0397036
0.0395655
0.0383859
0.038178
0.0378931
0.0374511
0.0358798
0.0354034
0.0305173
0.0315107
0.0296875
0.0322971
0.0320123
0.0339286
0.0330168
0.0332669
0.0320352
0.0337551
0.033005
0.0331437
0.0275223
0.0308184
0.0282829
0.030204
0.0264416
0.0294453
0.0262735
0.029482
0.0195534
0.0159816
0.0147155
0.018611
0.0328512
0.0568889
0.00159281
0.00195921
0.00209133
0.00261746
0.00643179
0.00713123
0.00632456
0.00637613
0.00707339
0.00834156
0.0128984
0.0129019
0.012732
0.0127495
0.0169661
0.016983
0.0165293
0.0165528
0.021665
0.0193642
0.0215962
0.0192614
0.0216005
0.0193021
0.0215218
0.01919
0.020894
0.0185294
0.0210092
0.0185403
0.0208439
0.0185013
0.0209628
0.0185198
0.0272427
0.0248084
0.0222967
0.0250385
0.0247216
0.0220831
0.0273602
0.0247041
0.0248115
0.0221576
0.0246076
0.021936
0.0241524
0.0212358
0.0243619
0.0213903
0.0240829
0.0211366
0.0242814
0.0212915
0.0303009
0.0314242
0.0295869
0.0321065
0.0275327
0.0300741
0.0282936
0.0293475
0.0260149
0.0356835
0.0416144
0.0416327
0.0407566
0.0406909
0.040381
0.0402567
0.0393488
0.0390575
0.0400346
0.0377924
0.0390789
0.0368083
0.0395448
0.0373528
0.0384505
0.0361523
0.0366114
0.0338617
0.0339824
0.0379005
0.0354976
0.032534
0.0358139
0.0333148
0.0331144
0.0371732
0.034691
0.032056
0.0302442
0.0313963
0.0295297
0.0319744
0.0311922
0.0330253
0.0309037
0.0326886
0.027363
0.0300097
0.0282213
0.0293486
0.0263616
0.0285138
0.0261098
0.028614
0.0200991
0.0166666
0.0163829
0.021891
0.0422839
0.0568889
0.00150354
0.00196242
0.00212391
0.00315142
0.00850356
0.00830018
0.00745184
0.00674871
0.00730812
0.0120621
0.0120755
0.0114776
0.0114782
0.0157579
0.0157583
0.0153474
0.015376
0.019755
0.017341
0.0195759
0.0172647
0.0197397
0.0173432
0.019575
0.0172738
0.0189748
0.0168859
0.0190877
0.0167793
0.0189712
0.0168959
0.0190919
0.0167915
0.0230733
0.0195812
0.0230806
0.0194559
0.0229904
0.0195083
0.0229786
0.0193675
0.0230995
0.0189887
0.0229408
0.0189261
0.0230215
0.0189484
0.0228571
0.018879
0.0297052
0.0309668
0.0290075
0.0322181
0.0251788
0.0347939
0.0424988
0.0427342
0.0421502
0.0422879
0.0417678
0.0419757
0.0411977
0.0412459
0.0417429
0.0387459
0.0415441
0.0388157
0.0419958
0.0391208
0.0416157
0.0390332
0.0407483
0.0384266
0.0412285
0.0387361
0.0404404
0.0382221
0.0411201
0.0387596
0.0409521
0.0391116
0.0400883
0.0383487
0.0406548
0.0389481
0.0396548
0.0379882
0.035428
0.0377571
0.0359065
0.0326465
0.039027
0.0372708
0.034655
0.0371512
0.0352794
0.0318367
0.0384977
0.0367542
0.0293014
0.0307632
0.0288737
0.0317707
0.031109
0.0338326
0.0302884
0.033138
0.020675
0.0179988
0.0196058
0.0275652
0.0529769
0.0568889
0.00146907
0.00184496
0.00230649
0.00356979
0.0112999
0.0099267
0.00908937
0.00768816
0.0079466
0.0147159
0.0147328
0.0135001
0.0134998
0.0180656
0.0180751
0.0176951
0.0177334
0.0221343
0.0178047
0.0219646
0.0175646
0.0220931
0.0178096
0.0219445
0.0175668
0.0212228
0.0173804
0.0214764
0.0171095
0.0211953
0.0173792
0.0214643
0.0171116
0.023542
0.0188766
0.0234618
0.0188475
0.025458
0.0310912
0.0425083
0.0428738
0.0426632
0.0429863
0.0419364
0.0424587
0.0418441
0.0422495
0.0411575
0.0389699
0.04159
0.0384189
0.0419539
0.0395342
0.0423092
0.0390488
0.0418598
0.038645
0.0418268
0.0384801
0.0422777
0.0391415
0.0424106
0.0390698
0.0424498
0.0391698
0.0423914
0.0394922
0.0428374
0.0397116
0.0425913
0.0399104
0.0416108
0.0394959
0.0420766
0.0395776
0.0414759
0.0395478
0.0421119
0.0398396
0.0216
0.0209504
0.0259123
0.0380012
0.0669705
0.0568889
0.00138522
0.00186462
0.00218935
0.00421158
0.0133694
0.0118622
0.0107495
0.010094
0.0123454
0.0123449
0.0141893
0.0141705
0.0170393
0.017063
0.0155773
0.0155942
0.0182198
0.02083
0.0183225
0.0207285
0.018248
0.0208396
0.0183447
0.0207411
0.0178815
0.0202089
0.0177702
0.020389
0.0179359
0.0202299
0.0178119
0.0204111
0.0232147
0.0179513
0.0233618
0.0177345
0.0231646
0.017965
0.0233444
0.017734
0.0232468
0.0178551
0.0232584
0.0174116
0.0232154
0.0178656
0.0232418
0.0174124
0.0262505
0.0298815
0.0395038
0.0421612
0.0427756
0.0419564
0.0425881
0.0406036
0.0415456
0.0403527
0.0411895
0.0409427
0.0372705
0.0417538
0.037713
0.041856
0.0381625
0.0425617
0.0384939
0.0424367
0.0387721
0.0422784
0.0382662
0.0429765
0.039408
0.0429554
0.0389766
0.0433071
0.0392993
0.0436315
0.0398288
0.023734
0.0273333
0.0376784
0.05703
0.0865014
0.0719993
0.00138109
0.00159225
0.00227321
0.0050326
0.0155935
0.0139486
0.0155328
0.0217168
0.016486
0.0164818
0.0184332
0.0184138
0.0197401
0.0172601
0.0174011
0.0194266
0.0197457
0.0172852
0.0174283
0.0194376
0.0180069
0.0180255
0.0184153
0.0222322
0.0184959
0.0227135
0.0184621
0.022239
0.0185319
0.0227189
0.0181025
0.0225706
0.0178827
0.0228441
0.0181633
0.0225713
0.0179221
0.0228524
0.0234642
0.018063
0.0234424
0.0180831
0.0273532
0.0308409
0.0357558
0.0402563
0.0411872
0.0408481
0.0418043
0.0408681
0.0418557
0.0407672
0.0417928
0.0362765
0.0397991
0.0367309
0.040269
0.0370408
0.041094
0.0375549
0.0414276
0.0362657
0.0415455
0.0364716
0.0408185
0.0369722
0.0424878
0.0371896
0.0418564
0.0424106
0.0369366
0.0431164
0.0375171
0.0432494
0.0376201
0.0437868
0.0381643
0.0434915
0.0388133
0.0434156
0.0381787
0.0439408
0.0394122
0.0439862
0.0388162
0.029407
0.0393528
0.0581669
0.0872371
0.0719993
0.00125256
0.0016515
0.00210129
0.0081224
0.0166307
0.023956
0.037397
0.0290171
0.0290147
0.0381567
0.0381561
0.0199432
0.0172659
0.0207855
0.0189009
0.0199335
0.0172591
0.0207762
0.0188897
0.0236727
0.0236579
0.0221201
0.0175426
0.0177384
0.021264
0.0221128
0.0175686
0.0177699
0.0212711
0.0206711
0.0178081
0.0209201
0.0179949
0.0206742
0.0178192
0.0209312
0.01802
0.0181009
0.0237736
0.0179456
0.0235021
0.0181573
0.0237685
0.0179828
0.0235064
0.0313863
0.0315237
0.0348406
0.0389062
0.0406906
0.0418383
0.0399399
0.0411339
0.0393912
0.0406087
0.039626
0.0381865
0.0396637
0.0397516
0.0409717
0.0389668
0.040454
0.0411042
0.0364052
0.0390772
0.0362314
0.0397877
0.0368385
0.0402132
0.0367786
0.0408241
0.0364769
0.0412592
0.0365486
0.0405186
0.0368385
0.0421016
0.0369336
0.0414383
0.0421254
0.0368139
0.0428734
0.0372478
0.0414089
0.059849
0.0881493
0.0719993
0.00127073
0.00148011
0.00264061
0.0102519
0.0392029
0.0711574
0.0600003
0.0600104
0.0855341
0.0855522
0.0442333
0.04422
0.0609825
0.0609736
0.0230231
0.0184291
0.0235419
0.0205091
0.0230103
0.018417
0.0235287
0.0204953
0.0272778
0.0333798
0.0324194
0.0287299
0.0272554
0.0333465
0.0324038
0.028704
0.0238766
0.0177839
0.0179819
0.0231905
0.0238655
0.0178163
0.0180201
0.0231912
0.023324
0.0180945
0.0229135
0.0180861
0.0233158
0.018099
0.0229183
0.0181088
0.0430428
0.0331783
0.0358782
0.0387533
0.0417805
0.0428001
0.0406003
0.0416703
0.0397432
0.0408595
0.0391761
0.0383923
0.0396862
0.0397715
0.0402755
0.0392903
0.0408846
0.0407228
0.038773
0.0367998
0.0386583
0.0359678
0.0382314
0.0374431
0.0397828
0.0375582
0.0396022
0.036372
0.0394062
0.0382822
0.038365
0.0360478
0.0395401
0.036702
0.0367132
0.0396509
0.0366393
0.0400102
0.0368735
0.0406206
0.0368464
0.0409444
0.0621572
0.0892635
0.0719993
0.00112196
0.00187622
0.00437045
0.0262562
0.119662
0.207247
0.0883181
0.0883089
0.121417
0.121589
0.0528397
0.0390498
0.0496127
0.0622017
0.0569374
0.0374662
0.0390124
0.0527874
0.0374525
0.04957
0.0621011
0.0568671
0.103377
0.0900175
0.0842643
0.0733097
0.103214
0.0898536
0.0840806
0.0731794
0.0254121
0.0199942
0.0269495
0.0230933
0.0253957
0.019977
0.0269327
0.0230736
0.031505
0.0333788
0.0314828
0.0333415
0.0180417
0.0236602
0.0180788
0.0236606
0.0245183
0.0187187
0.0245072
0.0187169
0.0647053
0.0434628
0.0353223
0.0399325
0.0450464
0.045979
0.043301
0.0442753
0.0413178
0.0421955
0.040014
0.0407751
0.0364451
0.0391097
0.0383742
0.0388039
0.0375201
0.0382992
0.0368431
0.0397777
0.039186
0.0392231
0.0386333
0.0393364
0.0382312
0.0360108
0.0391093
0.036703
0.0386885
0.0360264
0.0393328
0.0387475
0.0362279
0.0361384
0.0394482
0.0364367
0.0400168
0.0397984
0.0364191
0.0365498
0.039181
0.0363982
0.0401686
0.0366724
0.0905327
0.0719993
0.00117532
0.00193611
0.0119094
0.0955728
0.30132
0.382939
0.385525
0.625313
0.624693
0.135526
0.135878
0.19611
0.197335
0.045393
0.0699411
0.0582445
0.042684
0.0930297
0.0700951
0.0453382
0.0698398
0.0426615
0.0581734
0.0928866
0.0699802
0.128114
0.107473
0.114577
0.0883474
0.128072
0.107303
0.11442
0.0881458
0.0295412
0.0261788
0.0295182
0.0261582
0.0920497
0.0670313
0.0426145
0.0395643
0.0452133
0.0449082
0.0459383
0.0430026
0.0439849
0.0417139
0.0422891
0.0406561
0.0398048
0.0426163
0.0428922
0.0413667
0.0406295
0.0401123
0.0390363
0.0373685
0.0401012
0.0379636
0.0375238
0.0404037
0.0393735
0.0377442
0.0405438
0.0385891
0.038172
0.0368827
0.0362755
0.0393541
0.0387817
0.0372671
0.0366999
0.0395892
0.0392054
0.0389874
0.0363458
0.0393259
0.036585
0.0394039
0.0363991
0.0397041
0.0363247
0.0397811
0.0364904
0.0403891
0.0364234
0.0719993
0.00127622
0.0032455
0.0347012
0.498322
1.10075
0.419847
0.413632
0.692597
0.655272
0.188915
0.169615
0.15793
0.207158
0.188284
0.169855
0.157853
0.206704
0.27191
0.271059
0.15361
0.127707
0.136356
0.104856
0.15343
0.127492
0.13615
0.104643
0.0719993
0.0946291
0.068739
0.0410751
0.0443712
0.0506395
0.0507209
0.0473566
0.048795
0.0431273
0.0440008
0.0429126
0.0441579
0.0412864
0.0419377
0.0398017
0.0380061
0.0423333
0.0438261
0.0404732
0.0388455
0.0402088
0.0403993
0.0373209
0.0374962
0.0400935
0.0376514
0.040383
0.0405717
0.0379349
0.0377246
0.0403356
0.0382576
0.0367234
0.039487
0.036941
0.0396712
0.00171067
0.00808406
0.162654
3.01418
2.46552
1.83227
7.89077
6.31056
0.380462
0.312744
0.889898
0.635327
0.208385
0.202877
0.174795
0.241007
0.207926
0.203403
0.174883
0.241277
0.305545
0.266299
0.27178
0.239211
0.274237
0.250926
0.262363
0.237559
0.177945
0.146578
0.178081
0.146561
0.0719979
0.100058
0.0677855
0.0440383
0.0493288
0.0494687
0.0525397
0.0466644
0.0492763
0.0445139
0.0467802
0.0446357
0.0418463
0.0406305
0.0431234
0.046148
0.0432496
0.042937
0.0448402
0.0409819
0.0388356
0.0407455
0.0383925
0.0414818
0.0403737
0.0411231
0.0392433
0.00241187
0.0214371
0.994096
17.7668
4.75276
3.2027
18.071
12.3752
0.308233
0.249973
0.400037
0.528021
0.297743
0.825098
0.27185
0.238291
0.338774
0.386865
0.27111
0.559718
1.28836
0.831331
0.211142
0.221383
0.186437
0.24973
0.211322
0.220452
0.186745
0.24659
0.277126
0.233845
0.259404
0.230964
0.0719922
0.108673
0.0643698
0.0484561
0.0553216
0.0539109
0.0522316
0.0514418
0.0482916
0.049462
0.0466043
0.0480476
0.0444035
0.0437722
0.0441672
0.040784
0.0423839
0.0410408
0.0457014
0.0453008
0.044856
0.0417168
0.0437114
0.0438286
0.0414247
0.0394222
0.0423737
0.0412049
0.0414003
0.0390463
0.0414449
0.0402235
0.00585713
0.07537
5.61756
95.1379
93.8698
96.8168
98.1444
11.5002
6.01233
55.956
42.1645
0.424489
0.253971
0.319503
0.5052
0.297991
0.715789
0.326832
0.242563
0.296788
0.395698
0.276972
0.513638
4.31403
1.76805
1.37807
0.563619
2.01797
0.590125
0.756997
0.363064
0.0719775
0.114829
0.0665264
0.0554146
0.0567693
0.0571309
0.0526608
0.0536045
0.0495373
0.0506671
0.0437305
0.0423889
0.0461524
0.0454863
0.0421634
0.0462483
0.0473106
0.0464373
0.0432012
0.047616
0.0446477
0.0441867
0.0440902
0.0438801
0.040841
0.0402173
0.0446347
0.0442383
0.0420132
0.0412987
0.0428105
0.039661
0.0431566
0.0405327
0.00941489
0.638225
25.6093
150.85
150.249
129.29
130.796
3.311
1.95454
42.5324
19.7183
10.5741
73.7109
0.667878
0.497078
20.9755
3.14393
2.94135
33.8951
137.399
119.194
0.255647
0.28247
0.25327
0.282259
0.358949
0.391525
0.354445
0.290468
0.0719468
0.113717
0.0692818
0.0675923
0.0662181
0.061878
0.0615146
0.0570056
0.0574588
0.0534724
0.0543449
0.0500011
0.0490453
0.0484644
0.0449427
0.0458166
0.04572
0.0510351
0.0470339
0.0473646
0.0499645
0.0492993
0.0459621
0.0450862
0.0412761
0.0450533
0.0422335
0.0458242
0.045863
0.0432773
0.0423486
0.028245
4.6573
77.987
175.882
174.826
151.979
152.009
1.96303
2.30766
52.6764
14.1118
9.82204
94.0869
0.305408
0.632445
25.5855
4.12985
3.46739
39.6384
340.234
226.904
300.506
174.341
329.421
215.107
208.372
131.329
0.309203
1.12335
0.280848
0.33898
0.0718876
0.110539
0.0747588
0.0696892
0.070819
0.0631841
0.0642191
0.0587956
0.0599913
0.0494153
0.0499948
0.0542235
0.0521384
0.0500759
0.0545864
0.0503434
0.0508009
0.0551762
0.0532762
0.0514844
0.0557562
0.0478504
0.0470798
0.0448627
0.0432182
0.0477552
0.0441817
0.0486246
0.045823
0.322694
24.2134
184.477
160.188
160.295
184.564
201.146
201.494
183.01
312.714
206.334
181.611
306.953
195.016
1.96231
2.83111
74.2023
30.4653
19.6032
149.349
0.446262
1.39941
37.8478
4.61676
9.3964
35.8158
284.891
160.662
201.01
116.526
0.0717744
0.11077
0.0806553
0.0689914
0.0716387
0.0643183
0.0664352
0.0599737
0.0616115
0.0565248
0.0559596
0.0548051
0.0575795
0.061991
0.0562671
0.0586175
0.0629619
0.0589433
0.0586793
0.0497358
0.0463097
0.0509684
0.0479792
0.0507497
0.0479488
0.0524381
0.0500734
0.0489374
0.0450868
0.0497477
0.0462658
3.75887
77.9192
184.805
205.186
184.48
205.186
209.065
209.189
278.257
253.056
178.578
279.563
191.565
205.409
284.597
233.223
243.041
267.691
167.882
275.416
182.056
201.876
281.914
230.091
82.2052
161.772
52.8503
68.2773
255.395
147.115
200.336
120.701
0.0715405
0.118179
0.101758
0.0708375
0.0734548
0.1098
0.0834805
0.0886911
0.0650859
0.0585832
0.0618781
0.0681814
0.0609982
0.0640733
0.0528563
0.0542144
0.0492961
0.0491431
0.055318
0.052898
0.0563995
0.052661
0.0501077
0.0467439
0.0510745
0.0473969
0.0510971
0.0487899
0.0530984
0.050059
24.0257
155.241
205.267
212.161
261.82
234.912
204.433
210.314
258.982
234.71
245.888
245.868
251.428
270.93
238.039
143.906
167.633
186.094
234.498
194.644
263.334
125.93
159.296
182.547
102.971
188.55
77.3821
116.731
0.0711729
0.131709
0.0982747
0.072931
0.0770068
0.108967
0.0792685
0.0870092
0.0632559
0.0581409
0.0595795
0.0583323
0.0621023
0.0603173
0.0677333
0.0683944
0.068703
0.0618385
0.0650948
0.0604994
0.0640274
0.0644004
0.07159
0.0703758
0.0532943
0.0543353
0.0473661
0.0493879
0.0545946
0.0501991
0.0564727
0.0519453
72.9773
324.567
266.182
266.212
324.491
319.561
319.461
337.482
210.769
256.98
201.382
260.906
277.811
306.284
236.389
271.65
343.537
265.179
337.513
208.549
251.711
197.845
257.306
273.746
298.1
234.625
271.778
346.682
261.943
260.746
269.674
175.862
187.474
250.872
261.772
171.308
183.646
0.0706553
0.137059
0.0993127
0.0690377
0.0740651
0.0717762
0.0762522
0.0766952
0.0772434
0.111303
0.0835603
0.0914833
0.0584251
0.0649661
0.0545383
0.0531448
0.0511274
0.0647835
0.062824
0.0745344
0.0573041
0.0548304
0.059131
0.0729051
0.053327
0.0476345
0.055121
0.050012
140.253
322.885
389.843
322.821
389.744
346.99
346.705
271.614
269.607
189.348
192.05
332.392
229.51
424.08
387.808
270.543
365.998
270.039
300.363
441.736
338.625
264.773
263.518
188.501
186.615
328.697
228.151
389.142
427.828
269.778
369.882
267.483
299.7
445.459
337.37
0.0704379
0.227982
0.107595
0.114083
0.23143
0.184329
0.168336
0.070926
0.0651535
0.062735
0.056044
0.0641124
0.0687396
0.0668448
0.0591519
0.0770653
0.0746308
0.0682993
0.0628415
0.0741838
0.0760377
0.0729322
0.0672986
0.0894466
0.0745946
0.0798999
0.0972831
0.0832806
0.0889792
0.0581935
0.0611089
0.0535028
0.0554436
0.0638746
0.069048
0.0604914
0.0653194
176.654
376.278
334.696
478.397
481.266
376.168
335.781
479.29
481.151
401.733
401.277
284.286
204.42
340.497
234.775
389.863
444.101
362.531
243.867
259.633
294.854
284.746
204.865
340.928
235.284
391.891
363.926
445.63
244.374
259.513
295.232
0.0701625
0.278835
0.118225
0.11976
0.292101
0.253473
0.209443
0.061749
0.0640871
0.0535568
0.0559909
0.0673013
0.0604941
0.0677978
0.0700731
0.0608282
0.0639363
0.0738413
0.0706173
0.0909647
0.0769726
0.0688694
0.0745672
0.0750427
0.0790636
0.0978938
0.0958383
0.0993257
0.0834017
0.0799015
0.0838543
0.0884267
0.0925685
0.104744
0.103606
188.968
484.489
484.093
483.402
345.859
508.215
363.02
487.168
606.831
483.267
345.938
512.162
362.406
488.981
606.766
373.725
397.114
452.314
247.616
262.283
299.88
375.551
398.362
453.033
247.954
262.367
299.945
0.0691821
0.335406
0.146774
0.11468
0.110294
0.138878
0.117511
0.114424
0.341567
0.239504
0.204552
0.0654363
0.0577238
0.0712348
0.0632743
0.0713146
0.0666118
0.0769146
0.07375
0.0846844
0.0982029
0.0751908
0.0693629
0.0639092
0.0923341
0.0935265
0.103959
0.0821443
0.0761186
0.0861349
0.101696
169.82
564.006
426.703
563.61
425.793
685.617
425.293
549.594
386.258
640.867
469.198
311.701
734.875
685.682
425.974
551.797
385.487
640.118
471.298
311.834
734.732
413.132
272.186
414.192
271.91
0.0685184
0.324105
0.310315
0.176599
0.142984
0.142006
0.151483
0.132025
0.161776
0.137023
0.138358
0.143483
0.13085
0.216505
0.212018
0.0903356
0.07961
0.125245
0.0756891
0.0657258
0.141885
0.101322
0.0848042
0.130252
0.0816024
0.0950506
0.133972
86.6733
442.136
515.352
441.322
514.782
558.446
557.78
877.829
505.965
1117.52
651.027
823.045
397.226
522.184
335.88
661.635
443.015
288.712
877.804
506.141
1118.71
651.138
823.253
397.999
525.502
336.388
663.116
444.127
288.207
0.0685231
0.240613
0.213381
0.251242
0.216596
0.16823
0.176713
0.164246
0.177611
0.165631
0.140577
0.149302
0.166313
0.164735
0.155875
0.164312
0.158775
0.13858
0.141608
0.141268
0.147725
0.0962086
0.0861067
0.105169
0.106996
41.7304
379.766
266.074
379.123
264.999
580.182
683.735
579.76
683.591
698.184
697.468
784.648
1373.08
790.434
1368.28
483.073
1046.3
607.929
830.304
404.569
527.438
326.799
678.843
784.556
1374.51
790.509
1368.21
483.775
1046.91
608.226
831.416
405.108
529.896
326.858
680.035
0.0691927
0.214054
0.248501
0.216113
0.255326
0.128213
0.133677
0.120012
0.16936
0.144541
0.159363
0.159461
0.170439
0.160622
0.1739
0.163639
0.136341
0.148286
0.125939
0.167115
0.140949
0.15763
0.155134
0.163088
0.153977
0.162343
0.159507
0.138995
0.141223
25.6403
203.848
199.159
202.655
198.456
499.84
348.959
499.684
348.393
726.032
848.699
725.64
848.652
686.672
1077.29
615.372
1205.22
686.082
1074.56
613.776
1204.26
741.547
1320.07
753.4
1301.27
741.705
1320.33
753.548
1301.56
0.0701706
0.334238
0.332842
0.311902
0.341277
0.128508
0.14201
0.133873
0.148961
0.108369
0.113702
0.106646
0.110612
0.112513
0.101628
0.160507
0.155937
0.156796
0.157943
0.169649
0.155408
0.169181
0.160775
0.115016
0.116343
0.121295
0.108522
0.161888
0.135691
0.149016
0.15411
0.162283
0.149994
0.159275
0.155081
99.7769
8.79551
253.238
208.602
252.629
207.63
580.387
400.46
580.498
400.388
718.854
1092.2
622.819
1262.59
802.04
1261.9
731.798
1398.68
718.535
1090.45
621.802
1261.99
801.888
1262.97
731.817
1398.51
645.992
1050.98
592.062
1141.35
645.859
1049.62
591.44
1141.13
0.0704366
0.276761
0.226437
0.289233
0.229068
0.228441
0.241041
0.214379
0.196653
0.109126
0.119526
0.114663
0.127585
0.0951262
0.0883814
0.0949678
0.089771
0.101137
0.093478
0.100261
0.0949102
0.0833961
0.108612
0.0969324
0.0924106
0.0944499
0.108742
0.106744
0.0982467
52.5672
233.081
240.139
232.761
240.161
1.47543
289.691
250.829
289.091
250.298
447.208
924.726
551.617
684.497
389.976
503.319
364.441
549.628
447.275
926.035
551.632
684.232
390.681
503.357
363.764
548.665
679.309
1060.72
596.715
1198.46
766.507
1220.9
700.42
1341.27
679.271
1059.61
596.309