/*--------------------------------*- C++ -*----------------------------------*\
| =========                 |                                                 |
| \\      /  F ield         | OpenFOAM: The Open Source CFD Toolbox           |
|  \\    /   O peration     | Version:  5.x                                   |
|   \\  /    A nd           | Web:      www.OpenFOAM.org                      |
|    \\/     M anipulation  |                                                 |
\*---------------------------------------------------------------------------*/
FoamFile
{
    version     2.0;
    format      ascii;
    class       volScalarField;
    location    "0.9";
    object      p;
}
// * * * * * * * * * * * * * * * * * * * * * * * * * * * * * * * * * * * * * //

dimensions      [1 -1 -2 0 0 0 0];

internalField   nonuniform List<scalar> 
12160
(
5357.99
5359.69
4703.65
5363.64
4705.23
4049.98
5368.65
4709
4051.37
3395.12
5373.3
4714.01
4055.23
3396.07
2741.71
5373.55
4718.91
4061.34
3399.41
2742.11
2086.58
5366.42
4720
4068.1
3405.9
2744.84
2086.22
1433.69
5350.11
4713.82
4070.71
3414.93
2753.23
2087.78
1431.91
778.203
5324.99
4697.75
4063.83
3418.08
2764.96
2096.7
1430.41
776.409
234.345
5292.66
4672.45
4047.52
3414.25
2774.42
2112.73
1442.62
771.888
232.487
4.20832
5255.73
4639.68
4021.59
3398.54
2768.55
2122.13
1463.48
786.361
230.202
5.06189
-6.77728
5216.75
4602.21
3987.82
3371.91
2752.53
2123.07
1479.19
813.296
244.884
7.62789
-6.80229
-7.4714
5177.95
4562.73
3949.24
3336.71
2724.61
2108.05
1481.95
835.957
270.707
12.7298
-6.71573
-7.48556
-8.18153
5141.04
4523.53
3908.73
3296.46
2687.27
2078.62
1466.79
841.76
295.919
21.8666
-6.67532
-7.45834
-8.15035
-8.80263
5107.15
4486.33
3868.7
3254.42
2644.65
2038.39
1435.04
828.744
306.989
32.4735
-6.54226
-7.47723
-8.1306
-8.81127
-9.49284
5076.96
4452.24
3830.89
3213.18
2600.5
1992.57
1391.12
794.898
298.33
38.5428
-6.27746
-7.53217
-8.14779
-8.80294
-9.48206
5050.79
4421.95
3796.42
3174.5
2557.6
1945.57
1341.35
745.708
271.523
37.3228
-5.8773
-7.62059
-8.18889
-8.81584
-9.47895
5028.67
4395.74
3765.92
3139.49
2517.76
1900.48
1291.06
690.292
234.549
29.7055
-5.76227
-7.67858
-8.25452
-8.83887
-9.48448
5010.45
4373.61
3739.61
3108.7
2482.02
1859.13
1243.66
635.594
195.892
19.7205
-6.05847
-7.70099
-8.29859
-8.87392
-9.49369
4995.93
4355.42
3717.48
3082.3
2450.84
1822.46
1200.84
584.695
160.256
11.0706
-6.43812
-7.68036
-8.31052
-8.89739
-9.50328
4984.83
4340.92
3699.33
3060.19
2424.29
1790.82
1163.4
539.338
129.41
4.67825
-6.64605
-7.60671
-8.28748
-8.90638
-9.50715
4976.92
4329.86
3684.91
3042.13
2402.18
1764.13
1131.48
500.226
103.654
0.340062
-6.73137
-7.54458
-8.2345
-8.89399
-9.50754
4971.95
4321.97
3673.91
3027.81
2384.21
1742.1
1104.81
467.338
82.6004
-2.40719
-6.77292
-7.50385
-8.19025
-8.86474
-9.50357
4969.75
4317.02
3666.07
3016.93
2370.03
1724.33
1082.96
440.266
65.6094
-4.05092
-6.79247
-7.48171
-8.16405
-8.83915
-9.49464
4970.16
4314.82
3661.15
3009.18
2359.27
1710.38
1065.44
418.411
52.0311
-4.98545
-6.79994
-7.47373
-8.1491
-8.82337
-9.48667
4973.09
4315.22
3658.96
3004.32
2351.62
1699.86
1051.75
401.126
41.2825
-5.49411
-6.80147
-7.47028
-8.14282
-8.81415
-9.4814
4978.46
4318.12
3659.34
3002.14
2346.81
1692.4
1041.46
387.792
32.8828
-5.76819
-6.80019
-7.46761
-8.14005
-8.81
-9.47825
4986.23
4323.46
3662.19
3002.48
2344.64
1687.7
1034.16
377.857
26.44
-5.91642
-6.79898
-7.46554
-8.13817
-8.80803
-9.47675
4996.36
4331.18
3667.45
3005.25
2344.93
1685.56
1029.57
370.866
21.6519
-5.99792
-6.79971
-7.46517
-8.13664
-8.80686
-9.47601
5008.83
4341.26
3675.08
3010.4
2347.62
1685.79
1027.45
366.463
18.2837
-6.04434
-6.80139
-7.4666
-8.13599
-8.80604
-9.4756
5023.6
4353.68
3685.07
3017.89
2352.62
1688.33
1027.63
364.388
16.1611
-6.07054
-6.80391
-7.46911
-8.13645
-8.80571
-9.47534
5040.61
4368.41
3697.39
3027.71
2359.94
1693.11
1030.03
364.465
15.1572
-6.08507
-6.80695
-7.47185
-8.13793
-8.80599
-9.47525
5059.77
4385.4
3712.03
3039.87
2369.57
1700.14
1034.62
366.606
15.1847
-6.09148
-6.80902
-7.47432
-8.1396
-8.80685
-9.47535
5080.95
4404.55
3728.95
3054.36
2381.53
1709.46
1041.39
370.806
16.2062
-6.09064
-6.80979
-7.47612
-8.14114
-8.80783
-9.47561
5103.95
4425.74
3748.08
3071.17
2395.85
1721.1
1050.41
377.107
18.211
-6.08241
-6.80928
-7.4769
-8.1422
-8.80879
-9.47594
5128.53
4448.79
3769.3
3090.24
2412.53
1735.12
1061.72
385.599
21.2223
-6.06697
-6.80777
-7.47653
-8.14261
-8.8095
-9.47622
5154.38
4473.47
3792.45
3111.49
2431.55
1751.56
1075.4
396.401
25.2827
-6.04213
-6.80484
-7.47503
-8.14233
-8.8098
-9.47639
5181.13
4499.46
3817.31
3134.77
2452.84
1770.44
1091.54
409.651
30.455
-6.00253
-6.8009
-7.47262
-8.14139
-8.80964
-9.47646
5208.37
4526.4
3843.59
3159.88
2476.3
1791.75
1110.17
425.488
36.8194
-5.94098
-6.79717
-7.46952
-8.13984
-8.80902
-9.4764
5235.64
4553.88
3870.92
3186.56
2501.75
1815.4
1131.33
444.027
44.4784
-5.84268
-6.79417
-7.46624
-8.13782
-8.80802
-9.47623
4581.44
5280.01
3898.9
3214.45
2528.95
1841.26
1155.01
465.359
53.5429
-5.68452
-6.79163
-7.46288
-8.1357
-8.80678
-9.47595
3927.06
4626.37
5336.05
3243.14
2557.58
1869.13
1181.12
489.519
64.1389
-5.43398
-6.79052
-7.46016
-8.13358
-8.80549
-9.47558
3272.17
3973.11
4683.3
5377.8
2587.23
1898.71
1209.51
516.475
76.4015
-5.03755
-6.79038
-7.45849
-8.13191
-8.80424
-9.47515
2617.43
3319.88
4031.94
4726.05
5402.92
1929.61
1239.95
546.099
90.4629
-4.42124
-6.78984
-7.45792
-8.13107
-8.80326
-9.47475
1961.34
2667.39
3381.52
4076.67
4752.23
5414.18
1272.09
578.17
106.433
-3.49243
-6.7875
-7.4581
-8.1309
-8.80273
-9.47444
1305.43
2014.23
2732.9
3429.06
4104.44
4762.14
5393.49
612.366
124.397
-2.15038
-6.78209
-7.4584
-8.13108
-8.80257
-9.47425
648.163
1361.55
2084.8
2784.34
3459.02
4114.43
4745.13
5404.29
144.407
-0.275307
-6.77206
-7.45852
-8.13128
-8.80262
-9.47418
166.473
708.587
1438.1
2141.16
2817.44
3470.73
4102.62
4745.98
5285.76
2.26393
-6.75528
-7.45916
-8.13154
-8.80274
-9.47417
5.61708
205.668
793.14
1500.45
2177.94
2830.96
3464.07
4097.28
4636.55
5233.45
-6.72767
-7.46212
-8.1325
-8.80304
-9.47422
-6.69263
12.8744
265.189
863.151
1542.1
2193.52
2828.09
3453.93
4012.6
4595.17
5019.51
-7.47188
-8.13538
-8.80392
-9.47436
-7.48701
-6.59433
26.9254
318.574
908.81
1565.47
2194.36
2816
3399.34
3979
4434.54
5103.51
-8.14254
-8.80598
-9.47473
-8.1529
-7.52998
-6.15095
42.7757
356.798
928.075
1564.01
2182.67
2782.28
3376.96
3863.76
4511.62
5076.45
5718.85
-8.81039
-9.47552
-8.81661
-8.18074
-7.60296
-5.32929
55.5797
374.594
934.361
1552.52
2160.07
2769.41
3338.1
3939.34
4482.21
5005.23
5694.45
6373.63
-9.47705
-9.47913
-8.83325
-8.2355
-7.68345
-4.61726
60.6802
374.158
922.437
1534.63
2152.83
2766.99
3363.29
3905.73
4424.65
4866.79
5613.51
6342.7
7059.59
-9.48471
-8.86535
-8.29606
-7.72467
-4.60501
57.8422
360.29
905.912
1527.35
2151.84
2766.95
3328.93
3860.73
4300.49
4656.32
5467.34
6257.92
7024.41
7775.25
-9.49501
-8.89976
-8.3304
-7.73037
-5.18244
49.1298
343.216
894.445
1523.42
2151.22
2731.08
3282.98
3743.74
4119.01
4304.63
5232.5
6111.6
6942.53
7740.02
8514.23
-9.50568
-8.91911
-8.33712
-7.71155
-5.824
39.9803
331.021
882.179
1524.45
2107.45
2682.99
3177.2
3593.1
3842.23
3811.78
4842.56
5867.54
6802.83
7664.68
8484.03
9277.22
-9.51155
-8.92291
-8.32629
-7.66894
-6.24763
32.9487
317.778
877.238
1474.69
2064.12
2594.09
3048.31
3383.33
3428.73
2603.34
4300.76
2607.78
2512.29
2514.57
5492.65
6570.35
7538.04
8418.43
9249.99
10052
-9.51472
-8.91754
-8.29662
-7.62252
-6.48007
26.4319
308.784
831.356
1436.88
1985.67
2476.6
2881.24
3092.31
2914.88
2748.84
2330.56
4994.19
2753.59
2996.72
2995.44
2320.86
2216.87
2208.86
6229.54
7333.7
8307.83
9194.57
10030.1
10836
-9.5182
-8.9042
-8.26304
-7.58753
-6.63314
21.6627
277.935
795.635
1363.3
1878.59
2335.3
2667.82
2730.76
1967.26
1963.36
1950.18
1948.86
2519.04
2115.34
5794.18
4377.84
2516.01
2830.66
2832.92
2081.21
2005.56
1978.98
7038.64
8137.04
9102.03
9983.52
10817.3
11621.1
-9.5212
-8.88993
-8.236
-7.56699
-6.72372
14.7072
253.24
723.949
1265.56
1745.34
2163.28
2400.6
1900.57
1897.99
1843.69
1844.2
1777.8
1768.71
1786.72
1779.99
2360.73
1707.24
1723.33
1790.94
1640.64
6691.28
5520.28
3588.65
3583.13
3165.14
3159.07
2341.44
2719.58
2718.95
1693.22
1703.75
1775.77
1624.3
1665.86
1519.49
1644.11
1562.53
1658.7
1516.8
1640.59
1553.74
7904.66
8966.29
9909.42
10778.6
11605.9
12399.7
-9.5231
-8.87886
-8.22131
-7.56189
-6.76041
8.76874
213.497
642.353
1150.45
1597.11
1940.26
1724.7
1726.16
1590.62
1591.3
1773.73
1761.55
1717.3
1708.05
1442.51
1451.76
1456.61
1395.68
1439.26
1546.02
1462.9
1458.19
1458.15
1396.57
1440.91
1541.42
1413.18
1474.58
1403.52
1452.33
1412.78
1473.85
1406.55
1454.09
2085.21
1830.8
1896.05
2004.59
1731.56
1724.8
1829.07
1633.13
7666.78
6497.43
4385.4
4375.54
3995.28
3987.26
3576.38
3553.15
3005.19
2986.36
2078.4
1819.58
1885.94
1994.34
2294.02
2197.66
2438.11
2137.38
2292.16
2206.05
2434.33
2134.72
1725.56
1724.79
1822.15
1627.76
1646.81
1534.02
1640.89
1538.02
8789.98
9803.52
10717.2
11574.1
12387
13167.5
-9.5242
-8.87283
-8.21345
-7.54779
-6.7793
3.14371
172.643
543.71
1000.47
1429.57
1403.72
1402.12
1255.05
1255.15
1599.48
1591.19
1471.27
1463.65
1392.73
1453
1358.41
1413.38
1389.52
1451.97
1356.8
1413.1
1324.37
1385.81
1331.16
1394.77
1320.99
1385.38
1330.23
1394.69
1484.65
1425.92
1478.88
1567.82
1412.7
1404.5
1493.86
1425.44
1563.56
1478.52
1416.84
1406.53
1411.3
1410.42
1422.26
1406.19
1416.02
1412.24
1428.8
1409.04
2142.91
1856.08
1964.58
2016.68
1823.92
1811.16
1944.21
1687.9
8624.3
7630.99
5219.54
5202.43
4794
4775.41
4403.66
4397.72
4016.25
4002.1
3028.32
3420.64
2868.49
3244.4
3026.03
3416.28
2865.98
3239.86
2522.53
2239.43
2798.99
2701.63
3047.3
2555.28
2511.88
2236.6
2780.27
2691.58
3033.98
2547.08
2137.56
1852.33
1955.49
2013.26
2348.59
2162.43
2344.26
2161.81
1817.68
1800.65
1938.89
1676.18
1714.55
1576.42
1708.41
1571.42
9665.19
10629.9
11523.7
12360.5
13156.8
13919.5
-9.52604
-8.86918
-8.20481
-7.54371
-6.80197
-1.07269
126.023
420.969
834.662
1049.95
1052.04
845.964
847.02
1310.43
1305.18
1150.81
1149.35
1281.02
1339.62
1197.16
1287.13
1277.36
1338.45
1198.4
1287.28
1098.09
1241.91
1138.15
1255.3
1094.21
1239.45
1139.45
1254.5
1386.89
1381.62
1366.6
1341.84
1389.89
1384.59
1369.72
1345.86
1323.67
1262.58
1342.68
1290.83
1331.07
1267.2
1344.85
1294.25
2197.09
1927.41
2049.35
2068.22
9529.26
8639
6030.13
6018.98
5640.72
5627.03
5150.51
5146.79
4776.34
4776.31
3670.79
4013.08
3495.92
3860.76
3683.62
4017.72
3501.54
3861.63
3185.17
3578.69
3327.26
3717.57
3178.63
3572.83
3330.19
3714.69
3050.94
3338.25
2903.66
3183.57
3055.45
3334.18
2907.31
3179.41
2377.58
2593.21
2798.06
2549.46
2758.3
3009.14
2362.85
2580.84
2788.75
2540.8
2752.23
3004.01
2192.9
1919.9
2048.94
2059.94
2356.14
2218.57
2350.01
2209.15
10520.2
11451.7
12317.7
13134.6
13911
14651.9
-9.52799
-8.86595
-8.19521
-7.54567
-6.81494
-3.91841
70.6849
300.791
624.712
952.398
952.717
732.684
733.574
1195.88
1193.24
1041.62
1037.39
1254.2
1219.95
1185.21
1180.52
1261.69
1224.31
1189.63
1183.84
1076.68
1116.3
1121.34
1150.77
1076.91
1116.3
1124.2
1152.3
1269.49
1257.42
1284.76
1262.8
10413.5
9606.58
6878.85
6884.75
6449.87
6440.81
6064.09
6044.28
5628.28
5606.48
4289.51
4821.52
4222.38
4617.05
4293.79
4827.16
4231.59
4619.53
3864.56
4196.91
4048.62
4394.21
3873.36
4201.93
4064.06
4399.28
3739.83
3973.53
3554.45
3805.75
3743.58
3969.61
3546.84
3804.69
3208.43
3490.45
3376.32
3648.23
3210.67
3490.17
3373.36
3651.47
11361.8
12257.5
13098.8
13893
14645.5
15359.9
-9.52951
-8.86219
-8.19038
-7.54227
-6.82199
-5.19236
25.809
198.565
444.484
444.676
263.359
264.45
865.165
860.016
654.939
655.394
936.333
986.471
985.477
908.344
935.4
986.398
984.757
907.621
889.206
764.879
835.825
837.73
888.368
764.995
834.982
836.448
1208.34
1203.36
1158.02
1174.84
1221.28
1208.43
1165.75
1178.32
1049.32
1047.81
1093.29
1123.62
1053.97
1047.85
1097.92
1125.3
11270.8
10447.2
9656.02
6776.97
6784.98
6450.68
6440.71
5952.69
5928.82
5452.56
5440.37
4386.81
4943.5
4325.64
4694.21
4377.84
4936.31
4321.55
4686.62
3947.93
4199.07
4154.07
4435.2
3946.57
4192.15
4152.38
4427.04
3788.95
3950.49
3800.4
3946.77
12183.8
13047
13863.6
14632.1
15354.9
16041.4
-9.52965
-8.86246
-8.18171
-7.51452
-6.8448
-5.48516
4.5276
97.7142
359.001
357.717
177.885
177.868
685.599
764.577
705.996
588.328
683.794
763.138
703.465
586.299
583.158
579.337
863.352
965.743
924.718
895.559
864.246
969.187
924.999
898.233
799.692
737.12
740.046
821.125
799.792
735.252
739.894
819.51
1024.7
999.918
1032.83
1000.59
12112.6
11249.3
10472.6
7657.25
7662.94
7286.54
7262.91
6847.23
6820.25
6413.21
6375.21
5140.02
4964.7
5293.82
4822.37
5135.53
4968
5282.31
4817.34
5039.14
4614.78
4962.78
4699.05
5033.08
4601.3
4956.14
4689.32
4500.97
4783.4
4353.31
4575.88
4493.56
4771.83
4346.29
4566.3
3968.4
4143.45
4165.48
4359.19
3978.45
4136.88
4172.58
4351.53
12980.7
13820.4
14610.1
15344.2
16036.9
-9.53043
-8.8568
-8.171
-7.46424
-6.8466
-5.46452
-4.43191
27.9917
28.0375
6.08396
6.07499
263.409
300.338
177.054
213.068
262.504
299.47
177.889
212.586
107.283
107.454
653.787
673.639
604.088
566.394
652.24
673.573
603.485
565.154
360.559
394.261
456.426
468.087
359.291
393.17
453.993
467.039
776.703
688.822
709.766
759.881
776.839
689.156
709.933
759.525
12913.4
12094.3
11310
10629.9
7582.98
7544.96
7090.54
7058.23
6672.44
6639.58
5146.96
5525.35
5747.75
5223.83
5137.33
5507.25
5748.93
5213.06
5266.61
5124.2
5470.2
4954
5261.29
5112.73
5457.87
4943.16
5092.64
4701.78
4944.91
4816.3
5090.78
4699.45
4945.04
4805.81
4533.87
4742.94
4541.78
4741.18
13761.7
14576.5
15326.7
16027.6
-9.52786
-8.84832
-8.14935
-7.37814
-6.80266
-5.69424
-3.47321
-3.47661
-3.5915
-3.59684
6.41045
6.41635
-1.76765
-1.77529
227.809
235.071
145.468
157.087
226.986
235.034
145.311
157.347
68.4551
35.4706
34.8509
60.5743
68.8846
35.549
35.0089
60.5252
614.884
632.201
543.698
541.925
615.151
632.446
543.572
540.914
327.615
324.079
420.04
406.709
326.369
324.009
418.099
406.621
13693.7
12891.4
12161.6
11451.4
8312.79
8292.29
7899.91
7880.03
7325.9
7333
5776.1
6218.55
5804.96
6418.08
5790.87
6222.21
5832.21
6425.9
5623.06
6026.42
5528.01
5909.16
5302.08
5874.63
5652.58
6024.31
5540.37
5897.89
5262.94
5849.92
5306.39
5778.18
5284.58
5753.73
5129.99
4980.42
5281.03
4853.41
5130.07
5000.41
5279.04
4868.76
14527
15300.2
16012.8
-9.52731
-8.82995
-8.12644
-7.27289
-6.75654
-5.66465
-3.21313
-3.2197
-3.41908
-3.43856
-0.562794
12.9815
-0.468163
-1.44146
-1.53644
12.5437
13.0024
-0.552158
12.6202
-0.470234
-1.4544
-1.54323
-1.82556
-2.12994
-1.72115
-1.92596
-1.8508
-2.13657
-1.73726
-1.93221
192.01
202.659
116.321
125.486
192.353
202.783
116.188
125.624
41.6938
36.4319
41.9673
36.4962
497.368
495.321
497.372
494.648
274.867
286.696
275.288
286.528
14462.1
13648
12950.5
12274
9037.67
9037.33
8648.48
8622.42
8094.99
8089.68
7642.39
7641.1
6609.85
6034.01
6690.32
6099.68
6500.74
5873.98
6587.65
6052.33
6681.58
6098.89
6482.41
5847.69
5898.12
6396.36
5890.16
6378.11
5755.51
6124.87
5624.64
5422.16
5921.21
5748.15
5750.31
6121.89
5601.61
5432.1
5911.43
5736.42
5202.76
5501.26
5210.2
5491.66
15262.2
15992.1
-9.51849
-8.80766
-8.10593
-7.31484
-6.50232
-3.70518
-3.74527
-4.38494
-4.4146
-2.88347
-2.89215
-3.09455
-3.12915
0.0496425
-2.06076
-1.8833
-1.87654
-1.87331
-1.91681
0.167225
-2.06115
-1.89428
-1.88715
-1.8741
-1.91756
-1.98623
-2.08042
-1.83586
-1.91103
-1.99568
-2.08415
-1.83817
-1.91067
80.6072
91.1714
80.6079
91.3698
15213.4
14396.1
13658.4
13033.1
12329.2
8793.51
8790.6
8580.67
8532.84
6658.36
7290.73
6645.09
7167.98
6656.83
7276.6
6669.21
7160.82
6277.08
6106.68
6795.2
6491.36
6979.04
6810.69
6327.14
6103.81
6797.43
6531.56
6978.91
6797.18
6695.6
6426.72
6183.6
6071.45
6698.32
6417.03
6171.53
6073.94
5889.69
6230.9
5899.73
6226.14
5726.86
6029.65
5422.63
5709.88
5744.61
6031.47
5419.89
5702.14
15964.3
-9.51225
-8.77285
-8.08907
-7.31092
-6.56378
-3.97068
-4.01488
-4.36962
-4.40335
-2.87449
-2.32367
-2.42464
-2.4648
-2.8865
-2.3381
-2.43109
-2.49372
-3.47442
-3.50262
-2.10315
-2.06776
-1.83807
-1.89073
-2.11012
-2.07136
-1.83838
-1.89117
15927.6
15158.2
14360.2
13732.6
13163.5
9719.6
9651.99
9287.36
9255.11
8928.41
8922.41
8421.48
8391.56
6820.68
7483.32
6878.09
7516.68
6804.49
7446.29
6859.07
7494.52
6168.86
6467.28
6607.64
6905.86
6747.38
7221.38
6206.5
6470.98
6907.18
6628.72
6716.74
7205.57
6418.69
6053.79
6419.92
6050.88
-9.5002
-8.77274
-8.06535
-7.3806
-4.84347
-4.7952
-5.28122
-5.28824
-4.12116
-4.18507
-4.31932
-4.36175
-2.8406
-2.45727
-2.51025
-2.70236
-2.84784
-2.47149
-2.51244
-2.72885
-3.06128
-3.46441
-2.97914
-3.12761
-3.11647
-3.49065
-3.02364
-3.14187
-2.17877
-2.21534
-2.18659
-2.2176
15883
15109.5
14402.3
13876.5
13109.5
9504.5
9500.36
9234.21
9208.43
8735.74
8677.81
7644.59
7051.25
7657.43
6987.13
7585.03
7013.61
7597.42
6929.32
6942.76
7346.25
6809.26
7219.05
6967.45
7360.71
6824.14
7237.89
-9.49719
-8.7623
-8.11603
-7.48206
-4.94578
-4.83852
-5.27149
-5.25588
-3.40245
-3.60942
-4.05071
-3.58986
-3.84176
-3.6474
-3.43016
-3.60642
-4.06426
-3.52574
-3.82272
-3.66628
-4.54544
-4.5437
-2.83867
-2.54656
-2.65152
-2.80194
-2.84226
-2.55707
-2.64821
-2.83504
-3.15036
-3.36092
-3.18908
-3.36596
15832.7
15128.1
14511.7
14042.3
10190.7
10230.6
9893.08
9900.81
9475.98
9478.82
9182.56
9116.39
7278.96
8057.74
7218.82
7899.59
7032.71
7867.13
7279.66
8031.31
7255.01
7882.54
6973.83
7814.69
7083.83
7764.24
7083.83
7802.15
6912.1
7354.53
6948.36
7383.9
-9.47895
-8.78535
-8.13218
-5.44851
-5.46381
-5.87514
-5.87246
-4.97874
-4.90924
-5.21651
-5.17612
-3.55197
-3.65313
-4.0287
-3.70879
-4.0025
-3.82709
-3.52146
-3.63374
-4.06465
-3.71146
-4.00242
-3.8355
-3.77894
-4.29046
-3.35589
-3.81556
-3.99414
-4.32797
-3.62554
-3.93478
15832.2
15211.3
14647.8
13976.7
10227.7
10206.7
9869.72
9839.23
9412.32
9349.34
7488.88
8334.67
8290.3
7465.48
8109.91
7561.09
8260.28
7463.5
8081.86
7512.63
7480.19
8321.03
7416.24
7087.83
8155.09
7575.64
7401.01
7129.74
8152.12
7622.98
7001.66
7491.24
7006.93
7519.06
-9.48845
-8.80833
-8.16498
-5.41909
-5.37904
-5.81048
-5.79424
-3.59013
-3.99795
-4.43336
-3.80193
-4.24623
-4.05677
-3.84132
-4.05692
-4.35321
-3.74862
-4.26534
-3.82003
-5.15069
-5.10155
-3.8119
-3.5623
-3.87287
-3.66612
-3.22405
-3.63303
-3.47308
-3.77796
15924.6
15344.5
14783.8
11045.6
11047.2
10672.9
10647.8
10378.1
10324.5
9773.54
9727.66
7843.69
8593.51
7789.95
8369.22
7787.15
8615.57
7845.12
7734.88
8565.5
8585.26
7795.03
8361.72
7501.75
7980.39
7744.99
8523.95
7734.92
7509.02
8512.52
7987.57
-9.4733
-8.83866
-8.20569
-5.39577
-5.36559
-5.76596
-5.74635
-3.60277
-3.93681
-4.27537
-3.74314
-4.07772
-4.05544
-3.81161
-3.94516
-4.21837
-3.59653
-4.07027
-3.87382
-4.32619
-4.68368
-4.11368
-4.40624
-4.26426
-4.65187
-4.01128
-4.35402
-3.37318
-3.64696
-3.55899
-3.71778
16060.3
15533.2
15027.8
11023.1
10996.6
10650.7
10606.3
10055.8
10053.2
7983.88
8729.52
8767.12
8114.34
8628.29
8104.18
7955.51
8697.65
8761.08
8104
8618.56
8096.54
7949.66
7795.64
8724.8
8275.65
7797.49
8278.88
7913.46
8705.3
-9.46805
-8.86636
-6.06755
-5.72184
-5.69665
-6.06344
-6.45841
-6.4682
-5.31075
-4.27918
-4.50083
-5.28042
-4.2236
-4.48105
-3.63552
-3.95165
-4.17151
-3.90797
-4.0571
-4.04916
-3.63815
-3.98214
-4.10405
-3.63797
-3.96346
-3.83894
-4.08003
-4.25965
-3.94767
-4.2114
16291.4
15851.8
15388.9
11174.9
11168.3
10677
10692.3
8384.82
9079.45
8432.82
9021.65
8166.89
8792.5
8420.55
8149.71
8762.75
9079.47
8423.26
8999.68
8111.71
8572.71
8219.21
8802.18
8097.59
8566.94
8196.4
8761.21
7955.31
8476.31
7930.2
8468.44
-9.45902
-8.97237
-5.70944
-6.15004
-5.69361
-6.14193
-6.48229
-6.48445
-4.33135
-4.16543
-4.34264
-4.21108
-4.40873
-4.63074
-4.52594
-4.8841
-4.10842
-4.3064
-4.3225
-4.15405
-4.38808
-4.61794
-4.51764
-4.87983
-4.12573
-4.02031
-4.06499
-3.82651
-4.02805
-4.1923
-3.93169
-4.15565
16632.8
16133.1
11954
11132.2
11084.7
11945.2
11455.2
11454.4
10181.9
8538.94
9246.7
10171.5
8567.63
9252.81
8488.78
8702.56
8896.9
9350.97
8490.81
8892.8
8691.85
9344.65
8115.66
8547.69
8284.05
8698.87
8109.62
8535.96
8265.65
8683.97
-9.4644
-9.10242
-5.73794
-4.79915
-4.52635
-6.29217
-5.73122
-4.79623
-4.51763
-6.27399
-6.58248
-6.57678
-4.12482
-4.26513
-3.98813
-4.1943
-4.28909
-4.52465
-4.10841
-3.91264
-4.24245
-4.16225
-4.27965
-4.51503
-4.08984
-3.96163
-4.04795
-3.83896
16877.2
16267.7
11990.7
10922.4
10976.8
11945
11521.5
11481.5
8660
8431.3
9070.22
8481.54
9105.74
9215.4
8652.88
9373.26
8678.15
8464.49
9078.78
8499.42
9110.72
9168.92
8702.56
9407.22
8622.34
8557.07
9018.4
9138.53
8591.13
9023.35
8564.76
9139.09
-9.47147
-6.94738
-6.66112
-6.64654
-6.94394
-7.12896
-7.13801
-5.04434
-4.79192
-4.63194
-4.81189
-4.56222
-5.44923
-4.75201
-5.05952
-6.38017
-5.01184
-5.32151
-5.05373
-4.78932
-4.62329
-4.81059
-4.55336
-5.44937
-4.73474
-5.05249
-6.36538
-5.02707
-5.32666
-4.09411
-4.34216
-4.32018
-4.58698
-4.08883
-4.32103
-4.31537
-4.57797
17037.3
16448.3
12019.7
10823.8
9393.27
8700.71
10850.1
9408.66
8754.62
11975.3
11355.9
11364.9
8626.14
8858.88
8506.99
9017.08
9161.65
9431.07
8628.39
8749.67
8527.25
9165.93
8994.26
9368.93
8552.49
8987.54
8548.8
8990.14
-9.58262
-6.9025
-7.12386
-6.88362
-7.11862
-7.07924
-7.08845
-4.39296
-4.64528
-4.807
-4.65944
-4.73309
-5.01727
-5.27009
-5.06333
-5.33763
-5.01964
-5.32013
-5.61085
-5.60037
-6.02151
-4.37556
-4.64781
-4.65201
-4.8068
-4.71923
-5.01259
-5.08022
-5.2863
-5.34493
-5.0463
-5.32808
-5.61541
-5.59448
-6.01621
17266.5
12518.3
11968.3
11935.4
12553.2
12144.6
12174.3
8987.72
9455.64
8810.25
9521.59
8831.47
9805.34
9027.5
9716.26
9045.5
9437.17
8793.57
9506.59
8780.77
9791.83
9057.45
9728.99
10999.4
9088.46
9859.77
10989
9141.64
9849.26
8765.8
8975.49
9232
9611.23
8835.6
8870.14
9253.03
9604.83
-9.57081
-7.32838
-6.02099
-5.708
-7.40934
-7.30109
-6.01363
-5.69133
-7.40292
-7.12777
-7.13554
-4.61664
-4.85819
-4.81941
-5.07383
-5.13621
-5.37643
-4.86906
-5.09269
-5.28812
-5.60934
-4.62041
-4.85816
-4.82385
-5.0755
-5.15691
-4.87728
-5.37672
-5.09584
-5.29516
-5.60972
17112.7
12476.8
11830
11821.6
12520
12132.7
12134.2
8893.88
8974.49
9445.19
9460.03
9253.61
9852.75
8823.16
9014.88
9435.69
9472.98
9228.81
9849.41
9230.42
9179.82
9827.38
9070.92
9756.07
9806.87
9341.76
10076.5
9248.95
9150.28
9819.5
9118.75
9785.79
9809.52
9372.13
10077.8
-9.46871
-6.79867
-6.80251
-7.96199
-6.17428
-6.19205
-6.45841
-5.90368
-7.25942
-7.94178
-6.16826
-6.17873
-6.45215
-5.89362
-7.24889
-4.97062
-5.26978
-5.60473
-5.12928
-5.37648
-5.77871
-4.99046
-5.27817
-5.60942
-5.13503
-5.37917
-5.7801
17225.7
12519.8
11820.5
9977.84
9352.37
11794.1
9979.14
9351.59
12546.2
12220.9
12203
9043.26
9457.47
9187.88
9789.74
9036.18
9463.28
9166.26
9769.24
9331.21
9486.78
9183.74
9709.42
9723.76
9988.14
9374.35
9423.81
9146.32
9729.29
9711.6
9946.27
-9.43247
-6.62216
-6.47853
-6.62672
-6.48618
-8.67946
-7.10407
-6.56075
-6.85586
-6.75496
-5.87242
-6.0418
-6.56513
-8.66202
-7.09839
-6.55217
-6.85027
-6.74752
-5.88414
-6.0453
-6.55253
-5.44134
-5.53929
-5.45662
-5.54321
17263.8
12515.3
12523.2
11872.4
9814.68
9364.88
9747.15
9380.2
11855.9
9828.24
9362.82
9751.54
9377.6
12148
12120.9
9437.2
9189.06
9506.9
9795.79
9516.21
9894.12
9428.99
9196.32
9444.73
9525.37
9757.41
9854.52
-9.52842
-6.44729
-6.61848
-6.45402
-6.62331
-6.2069
-6.19732
-6.66455
-7.26588
-6.73191
-7.26069
-6.92272
-6.51126
-6.1656
-6.34158
-6.3568
-5.71848
-5.82216
-6.63957
-7.2638
-6.74823
-7.26268
-6.92138
-6.51107
-6.17828
-6.34503
-6.35668
-5.74345
-5.82973
17263.9
12516.5
12522.3
12515.8
12523.2
11722.1
9673.8
9377.51
9745.41
9312.96
9484.29
9847.71
11670
9673.65
9383.46
9743.52
9339.63
9444.39
9812.51
12230
12199.7
9428.77
9824.09
9410.85
9786.79
-9.51951
-6.79382
-7.12687
-6.79971
-7.13804
-6.24569
-6.66654
-6.23531
-6.65427
-5.89064
-5.87376
-5.13179
-6.29036
-6.89187
-4.58982
-6.59984
-6.61822
-6.82784
-6.4633
-6.25514
-5.97292
-6.0942
-6.14226
-5.12125
-6.31821
-6.89442
-4.57962
-6.60048
-6.62522
-6.83009
-6.46421
-6.2586
-5.99653
-6.10127
-6.15328
17227.8
12521.2
12525.2
12523.1
12521.6
12263.6
12233.8
11618.8
9711.08
9166.21
9720.77
9248.91
9638.99
9439.45
9771.61
9372.44
9446.7
9844.17
11569.3
9691.91
9272.41
9756.51
9279.11
9619.93
9416.59
9758.97
9371.08
9458.97
9799.25
-9.55451
-7.1755
-7.15665
-7.1924
-7.17317
-7.10733
-7.17316
-7.09758
-7.16117
-6.03324
-7.36915
-6.01542
-7.34672
-4.64392
-4.36737
-4.67027
-4.21933
-4.63525
-4.3637
-4.66649
-4.20839
-4.60147
-6.34755
-6.58384
-4.54265
-4.59611
-6.35456
-6.58638
-4.53526
17117.9
12525.5
12515
12529.1
12547.8
12259.8
12238.1
12231.6
12207
11608.3
11558.7
10126.1
9312.56
9981.51
9463.54
9899.16
9353.33
9972.87
9384.34
9741.56
9494.74
9872.45
9387.34
10111.1
9322.79
9969.79
9441.28
9647.56
9219.55
9703.75
9277.54
9733.08
9504.33
9838.66
9415.14
-9.13389
-9.57565
-6.93867
-6.84437
-6.92407
-6.83423
-8.51591
-7.91234
-8.50036
-7.89938
-4.90576
-4.34243
-4.65087
-4.40418
-5.96544
-6.74946
-7.37922
-5.31431
-4.89889
-4.34046
-4.6477
-4.39771
-5.95925
-6.76309
-7.37789
-5.30991
-4.07313
-4.05647
-4.15149
-4.02684
-4.06897
-4.04846
-4.14806
-4.018
17283
12477.6
12529.8
12523.6
12557.4
12153.4
12221.8
12123.3
12202.4
11606.2
11638.7
11558.8
11597.4
10171.2
9532.46
10209.2
9500.28
10158.9
9502.51
10191.8
9477.97
10234
9394.53
9960.31
9597.37
10168.7
9354.18
9891
9508.05
-8.95087
-6.64936
-6.55717
-6.63646
-6.55238
-9.51745
-7.19145
-6.89673
-7.164
-6.882
-7.43856
-6.92056
-7.41327
-7.07926
-7.06459
-6.35954
-6.62721
-6.78239
-7.43564
-6.93086
-7.41286
-7.0765
-7.06087
-6.35563
-6.62238
-6.77993
-4.23369
-4.02613
-4.10918
-4.16465
-5.6501
-6.79952
-7.03079
-5.44122
-4.23337
-4.02303
-4.10805
-4.16687
-5.65102
-6.79393
-7.02891
-5.44816
17046.8
16461.1
12127
12145
12140.2
12167.7
11733.1
11884.1
11689.9
11865.8
10173.4
9528.17
10202.4
9502.22
10127.8
9317.2
9990.01
9467.37
10160.8
9499.2
10184.8
9477.75
10115
9335.63
9995.87
9446.01
10273.7
9620.12
10312.3
9598.97
10251.2
9591.09
10292.7
9559.87
-8.89476
-6.51655
-6.52536
-6.51398
-6.53015
-6.3748
-6.2895
-6.36188
-6.27053
-9.49857
-6.03198
-6.02323
-6.25816
-5.79836
-5.92855
-5.53509
-5.9754
-5.63646
-6.02207
-6.00572
-6.24902
-5.78025
-5.92008
-5.52883
-5.96822
-5.62172
-6.86824
-6.79321
-6.97775
-6.7073
-6.64614
-6.0957
-6.26384
-6.47391
-6.86773
-6.78913
-6.97633
-6.70546
-6.64418
-6.09043
-6.26207
-6.46766
16885.4
16275.7
11985.9
12028.1
11949
11987.4
11826.7
11833.5
11796.8
11824.8
9698.81
9161.08
9705.65
9247.34
9677.7
9381.61
9744.25
9309.79
9686.48
9234.51
9731.3
9266.99
9668.04
9381.67
9745.93
9320.85
10274.9
9619.46
10315.5
9603.11
10247.2
9396.88
9954.55
9610.69
10254.7
9592.43
10296.4
9562.88
10205.7
9392.45
9940.06
9538.41
-8.31639
-8.86655
-6.16998
-6.10337
-6.15362
-6.09888
-5.09081
-5.29036
-5.33471
-5.04986
-5.32266
-5.65778
-5.0224
-5.4724
-5.0453
-5.33112
-5.10388
-5.28846
-5.33949
-5.07064
-5.32857
-5.65621
-5.0257
-5.47135
-5.05479
-5.33432
-9.49827
-5.73526
-5.80636
-5.96754
-5.57092
-5.6172
-5.38651
-5.73192
-5.80211
-5.96538
-5.56271
-5.61418
-5.37948
-6.31914
-5.86317
-6.00852
-6.16778
-6.32178
-5.89148
-6.01648
-6.17933
16635.9
16136.5
11998.1
11957.9
11954.5
11949.1
11006.9
11353.9
10997.6
11365.2
9826.62
9358.36
9753.48
9384.7
9984.08
9340.59
10073.3
9353.15
9834.85
9353
9754
9386.9
9988.02
9374.79
10079
9363.8
9887.64
9337.86
9948.14
9356.69
9657.65
9448.33
9752.74
9353.58
9659.48
9249.95
9783.53
9254.17
9629.6
9383.69
9715.26
9351.8
-8.251
-5.87558
-5.92185
-5.86012
-5.91634
-8.84715
-5.92491
-5.86941
-5.91724
-5.86154
-5.1306
-4.91249
-5.27857
-5.12105
-4.86376
-5.09369
-4.77828
-5.16845
-4.83057
-5.07848
-5.14582
-4.92074
-5.28326
-5.12341
-4.87415
-5.0978
-4.78616
-5.17157
-4.83632
-5.08078
-9.50753
-5.48809
-5.60359
-5.72038
-5.38196
-5.34936
-5.24139
-5.49055
-5.62335
-5.72588
-5.39384
-5.35074
-5.24577
16295.4
15850.2
15392.3
11528.9
11458.8
11496.2
11455.8
9176.48
9235.36
9843.83
9076.38
9771.02
9804.49
9006.05
9821.13
9095.34
9882.27
9248.94
9211.66
9854.73
9146.04
9804.76
9812.08
9064.53
9813.55
9163.29
9884.69
9925.42
9436.11
9804.39
9514.29
10011.5
9498.9
9909.13
9402.88
9785.39
9474.86
9989.65
9463.64
9815.63
9471.18
9810.37
9390.6
9725.61
9436.29
9768.01
9375.36
-8.20201
-5.92139
-5.96885
-5.9146
-5.96909
-5.5444
-5.59962
-5.53534
-5.58874
-8.83973
-4.96219
-4.7364
-4.94944
-4.7168
-4.98495
-4.69659
-5.11042
-4.71741
-4.96359
-4.73534
-4.95017
-4.71692
-4.98596
-4.70324
-5.1118
-4.71876
-4.98091
-5.13711
-4.77936
-4.94166
-4.78415
-4.97411
-4.99643
-5.14109
-4.78107
-4.94277
-4.78689
-4.97475
-9.49341
16074.4
15539.2
15023.7
11132.2
11173.4
11081
11169.6
10870.7
10932.5
10890.3
10994.4
9315.08
9249.48
9779.51
9688.62
9149.68
9771.97
9007.29
9664.52
9204.29
9841.51
9398.95
9200.86
9698.85
9796.33
9135.9
9748.6
9051.79
9681.46
9193.19
9837.28
9817.17
9447.56
9806.43
9435.09
9803.97
9451.13
9760.61
9393.86
9753.31
9384.29
9783.12
9455.63
-7.5836
-8.17985
-5.60981
-5.57528
-5.59038
-5.56937
-4.44015
-4.53364
-4.59609
-4.45466
-4.64882
-4.89891
-4.53548
-4.92425
-4.49373
-4.72098
-4.44583
-4.53342
-4.59936
-4.46157
-4.65428
-4.89981
-4.5396
-4.9216
-4.49914
-4.72406
-8.7841
-4.7987
-4.56667
-4.81422
-4.56355
-4.80394
-4.55414
-4.79628
-4.55978
-4.81295
-4.55518
-4.80477
-4.55706
-9.49615
15937.2
15365.5
14790.7
11016.3
11046.2
10988.2
11049.9
10148.7
10668.2
10142.8
10685.9
9463.48
8761.44
9491.26
8818.99
9381.43
8656.83
9377.98
8689.6
9415.87
8718.54
9469.45
8774.51
9396.78
8699.89
9404.5
8741.59
9200.76
9554.76
8890.26
9348.56
8926.03
9383.13
9251.78
9564.3
8933.91
9368.11
8953.24
9392.66
-7.49359
-5.37538
-5.35269
-5.37131
-5.35799
-8.11983
-5.35588
-5.32835
-5.33962
-5.3219
-4.42937
-4.29418
-4.59624
-4.49493
-4.32702
-4.50478
-4.37674
-4.69724
-4.34917
-4.55691
-4.44649
-4.2996
-4.60196
-4.49992
-4.32522
-4.50552
-4.37775
-4.69843
-4.34739
-4.55623
-8.76978
-4.64412
-4.42276
-4.64916
-4.43883
-9.4992
15848.3
15238.5
14678.4
13980.4
10643.3
10679.1
10599.7
10655.3
8394.12
8659.8
9078.7
8453.92
9075.75
9178.61
8414.58
9113.7
8514.54
9212.77
8676.14
8436.29
9093.2
8472.34
9081.52
9128.14
8429.75
9096.91
8541.37
9215.98
9607.45
8877.31
9440.22
8927.43
9422.76
8813.83
9619.42
8804.33
9439.38
8871.64
9343.79
8729.69
-6.63719
-7.35549
-5.03828
-4.95956
-5.0358
-4.96113
-8.09595
-4.52855
-4.26128