/*--------------------------------*- C++ -*----------------------------------*\
| =========                 |                                                 |
| \\      /  F ield         | OpenFOAM: The Open Source CFD Toolbox           |
|  \\    /   O peration     | Version:  5.x                                   |
|   \\  /    A nd           | Web:      www.OpenFOAM.org                      |
|    \\/     M anipulation  |                                                 |
\*---------------------------------------------------------------------------*/
FoamFile
{
    version     2.0;
    format      ascii;
    class       volScalarField;
    location    "0.9";
    object      p_rgh;
}
// * * * * * * * * * * * * * * * * * * * * * * * * * * * * * * * * * * * * * //

dimensions      [1 -1 -2 0 0 0 0];

internalField   nonuniform List<scalar> 
12160
(
5684.99
5686.69
5684.64
5690.64
5686.23
5684.97
5695.65
5690
5686.37
5684.12
5700.3
5695.01
5690.23
5685.07
5684.71
5700.55
5699.91
5696.34
5688.41
5685.11
5683.58
5693.42
5701
5703.1
5694.91
5687.84
5683.22
5684.69
5677.11
5694.82
5705.71
5703.93
5696.23
5684.77
5682.91
5683.2
5651.99
5678.75
5698.83
5707.08
5707.96
5693.7
5681.41
5679.51
3982.11
5619.66
5653.45
5682.52
5703.25
5717.42
5709.73
5693.62
5659.4
3900.54
200.662
5582.73
5620.68
5656.59
5687.54
5711.55
5719.12
5714.48
5669.67
3753.61
223.59
2.92369
5543.75
5583.21
5622.82
5660.92
5695.53
5720.07
5730.2
5704.77
3846.38
272.706
0.348247
0.055109
5504.95
5543.73
5584.23
5625.71
5667.61
5705.05
5732.95
5738.85
4039.02
372.45
1.11299
0.0357654
-0.00652384
5468.04
5504.53
5543.73
5585.46
5630.27
5675.62
5717.79
5746.76
4195.94
548.955
2.65884
0.0635312
0.0246566
0.0263697
5434.15
5467.32
5503.7
5543.43
5587.65
5635.39
5686.04
5733.74
4239.71
750.959
7.15387
0.0465943
0.0444053
0.017732
-0.00983821
5403.96
5433.24
5465.89
5502.18
5543.5
5589.56
5642.12
5699.9
4128.78
857.054
15.9943
0.00197615
0.0272105
0.0260625
0.000938602
5377.79
5402.95
5431.42
5463.5
5500.6
5542.57
5592.35
5650.71
3858.22
827.315
26.9015
-0.0580296
-0.0138851
0.0131589
0.00404997
5355.67
5376.74
5400.91
5428.49
5460.76
5497.48
5542.06
5595.29
3478.04
686.013
29.7146
-0.0663787
-0.0795108
-0.00987024
-0.00148643
5337.45
5354.61
5374.61
5397.7
5425.02
5456.13
5494.66
5540.59
3047.44
501.157
22.4718
-0.056271
-0.123558
-0.0449157
-0.0106933
5322.93
5336.41
5352.48
5371.3
5393.84
5419.46
5451.84
5489.69
2613.25
337.544
11.5475
-0.076731
-0.135476
-0.0683858
-0.020284
5311.83
5321.92
5334.33
5349.19
5367.29
5387.82
5414.41
5444.34
2203.75
213.942
4.92419
-0.0581095
-0.112455
-0.0773788
-0.0241509
5303.92
5310.86
5319.91
5331.13
5345.18
5361.13
5382.48
5405.23
1834.52
128.843
1.95575
-0.0170724
-0.0594896
-0.0649894
-0.0245405
5298.95
5302.97
5308.91
5316.82
5327.21
5339.1
5355.81
5372.34
1512.69
74.3735
0.750356
0.0184451
-0.0152496
-0.0357419
-0.0205763
5296.75
5298.02
5301.07
5305.93
5313.03
5321.33
5333.96
5345.27
1239.63
41.6072
0.296597
0.0395185
0.0109525
-0.0101467
-0.0116381
5297.16
5295.82
5296.15
5298.19
5302.27
5307.38
5316.44
5323.41
1013.22
22.8757
0.138375
0.0473072
0.0259018
0.00563402
-0.003673
5300.09
5296.22
5293.96
5293.32
5294.62
5296.86
5302.76
5306.13
829.355
12.5776
0.0876411
0.0507248
0.0321775
0.0148452
0.00160176
5305.46
5299.12
5294.34
5291.14
5289.81
5289.39
5292.46
5292.79
683.199
7.06452
0.0736009
0.0533912
0.0349564
0.019004
0.0047467
5313.23
5304.45
5297.19
5291.48
5287.64
5284.7
5285.16
5282.86
569.927
4.1553
0.0701745
0.0554555
0.0368288
0.0209691
0.00625128
5323.36
5312.18
5302.45
5294.26
5287.93
5282.56
5280.57
5275.87
485.188
2.62923
0.0680379
0.055831
0.0383576
0.0221438
0.00698532
5335.83
5322.26
5310.08
5299.4
5290.62
5282.79
5278.45
5271.46
425.338
1.82751
0.0659203
0.0543965
0.0390101
0.0229601
0.00739882
5350.6
5334.68
5320.06
5306.89
5295.62
5285.33
5278.63
5269.39
387.515
1.41077
0.0632468
0.0518835
0.0385496
0.0232914
0.00765666
5367.61
5349.41
5332.38
5316.71
5302.94
5290.11
5281.04
5269.46
369.601
1.20305
0.0601467
0.049147
0.0370705
0.0230066
0.00774962
5386.77
5366.39
5347.03
5328.87
5312.57
5297.14
5285.62
5271.61
370.103
1.12127
0.0580565
0.0466795
0.0354028
0.0221545
0.00765025
5407.95
5385.55
5363.95
5343.36
5324.53
5306.45
5292.4
5275.81
388.261
1.12892
0.0572827
0.044881
0.0338584
0.0211667
0.0073858
5430.95
5406.74
5383.08
5360.17
5338.85
5318.09
5301.41
5282.11
423.948
1.22516
0.0577918
0.044098
0.0328043
0.0202066
0.00706135
5455.53
5429.79
5404.3
5379.24
5355.53
5332.12
5312.72
5290.6
477.423
1.43128
0.0593134
0.0444691
0.0323894
0.0195011
0.00678263
5481.38
5454.46
5427.45
5400.49
5374.55
5348.56
5326.4
5301.4
549.296
1.80494
0.0622699
0.0459645
0.0326689
0.0191951
0.00660417
5508.13
5480.46
5452.31
5423.77
5395.85
5367.44
5342.54
5314.65
640.394
2.45403
0.0662569
0.0483817
0.03361
0.0193595
0.00654211
5535.37
5507.4
5478.59
5448.89
5419.3
5388.75
5361.17
5330.49
751.679
3.56043
0.070104
0.0514805
0.0351569
0.0199763
0.00659965
5562.64
5534.88
5505.92
5475.56
5444.76
5412.4
5382.34
5349.03
884.097
5.42469
0.0733818
0.0547575
0.0371776
0.0209778
0.00677045
5562.44
5607.01
5533.9
5503.45
5471.96
5438.26
5406.01
5370.36
1038.41
8.51874
0.0766279
0.0581192
0.0393029
0.0222172
0.00705005
5562.06
5607.37
5663.05
5532.14
5500.58
5466.13
5432.12
5394.52
1215.05
13.5504
0.0795669
0.0608345
0.0414246
0.023505
0.00742232
5561.17
5608.11
5664.3
5704.8
5530.23
5495.71
5460.51
5421.47
1413.98
21.5425
0.0843756
0.0625059
0.0430921
0.0247589
0.00784745
5560.43
5608.88
5666.94
5707.05
5729.92
5526.61
5490.95
5451.1
1634.48
33.8874
0.0965259
0.0630795
0.0439298
0.0257356
0.00824406
5558.34
5610.39
5670.52
5711.67
5733.23
5741.18
5523.09
5483.17
1874.99
52.3611
0.126596
0.0628967
0.0441053
0.026266
0.00855854
5556.43
5611.23
5675.9
5718.07
5739.43
5743.14
5720.49
5517.37
2133.16
79.0631
0.195302
0.0626001
0.0439241
0.0264253
0.00874567
5553.16
5612.56
5681.8
5727.34
5748.03
5749.43
5726.13
5731.29
2406.51
116.257
0.343338
0.0624908
0.0437176
0.0263838
0.0088207
2690.97
5613.59
5689.1
5738.16
5760.44
5759.73
5737.62
5726.98
5612.76
166.23
0.647342
0.0618853
0.0434625
0.0262567
0.00882452
231.313
3157.99
5698.14
5751.45
5774.94
5773.96
5753.07
5732.27
5617.55
5560.45
1.25299
0.0590443
0.0424973
0.0259553
0.00877734
2.38786
371.739
3797.92
5768.15
5793.1
5790.52
5771.09
5742.93
5647.6
5576.16
5346.51
0.0496995
0.0396262
0.0250826
0.00863446
0.0359298
5.7975
634.812
4313.49
5813.81
5816.47
5791.36
5759
5688.34
5614
5415.53
5430.51
0.0324634
0.023022
0.00826444
0.0221019
-0.00102259
17.8408
921.549
4659.87
5833.06
5815.01
5779.66
5725.28
5665.96
5498.76
5492.61
5403.45
5391.85
0.0186123
0.00748211
0.0123949
-0.00574159
-0.0284969
38.3461
1152.67
4842.22
5836.98
5803.52
5757.06
5712.41
5627.09
5574.33
5463.21
5332.22
5367.46
5392.63
0.00595325
0.00386558
-0.00424569
-0.0604869
0.0221622
55.1644
1256.12
4906.63
5818.21
5785.63
5749.83
5709.98
5652.29
5540.72
5405.64
5193.77
5286.51
5361.71
5424.6
-0.00171432
-0.0363481
-0.120982
0.0968547
56.1008
1220.87
4895.86
5797.08
5778.34
5748.83
5709.94
5617.92
5495.71
5281.46
4983.28
5140.36
5276.93
5389.42
5486.26
-0.0120083
-0.0707599
-0.155261
0.0417126
43.164
1066.85
4846.11
5785.4
5774.42
5748.21
5674.07
5571.96
5378.68
5099.9
4631.53
4905.54
5130.63
5307.55
5451.04
5571.25
-0.022683
-0.0901057
-0.162038
-0.0395128
27.5996
898.125
4799.34
5774.84
5775.45
5704.44
5625.97
5466.14
5227.92
4822.9
4138.5
4515.67
4886.65
5167.89
5375.7
5541.04
5680.23
-0.0285546
-0.0939127
-0.151247
-0.0732776
16.5311
767.275
4734.02
5775.33
5725.7
5661.11
5537.05
5337.11
5017.77
4408.9
2766.49
3974.05
2770.93
3002.03
3004.31
4511.98
4935.53
5249.1
5475.45
5653
5800.99
-0.0317242
-0.0885384
-0.121607
-0.0686071
10.0204
643.903
4715.66
5716.85
5687.88
5582.64
5419.45
5169.65
4725.76
3892.86
2585.69
2493.44
4014.01
2590.44
2506.98
2505.7
2483.74
2705.62
2697.61
4595.1
5044.89
5364.87
5597.58
5779.1
5931.04
-0.0351974
-0.0752031
-0.0880294
-0.052909
6.026
553.775
4394.21
5679.04
5614.28
5475.5
5277.85
4955.21
4361.92
2779.98
2776.05
3089.97
3088.66
2356.16
2277.72
4160.72
3399.87
2353.13
2341.91
2344.18
2243.59
2492.79
2466.2
4750.21
5194.18
5505.06
5732.53
5912.3
6062.13
-0.0381967
-0.0609264
-0.0609931
-0.040526
3.66143
415.437
4170.18
5569.68
5516.48
5342.04
5105.06
4685.7
3365.3
3362.71
3634.45
3634.97
2587.92
2578.85
2925.45
2918.72
2198.35
1950.17
1804.01
1871.59
1883.63
4403.88
3889.11
2448.86
2443.33
2352.42
2346.37
2179.06
2232.36
2231.74
1936.13
1784.43
1856.43
1867.26
2070.39
2086.93
2211.6
1967.01
2063.24
2084.22
2208.05
1958.24
4962.1
5369.37
5658.45
5873.61
6046.92
6186.69
-0.0401022
-0.0498572
-0.04631
-0.0385978
2.28473
298.069
3654.15
5426.95
5401.04
5193.23
4880.38
3842.99
3844.44
4036.82
4037.5
3235.14
3222.95
3502.75
3493.5
2169.23
2016.6
2183.31
2291.01
2334.59
2110.87
2027.75
2184.87
2184.84
2291.89
2336.24
2106.27
2631.14
2692.54
2461.23
2510.03
2630.73
2691.8
2464.26
2511.8
1842.28
1750.12
1815.4
1761.6
1973.71
1805.38
1909.66
1875.28
4724.98
4212.31
2594.64
2584.76
2530.54
2522.53
2437.65
2414.42
2195.07
2176.23
1835.49
1738.9
1805.28
1751.38
1889.5
1630.21
1870.62
1732.9
1887.63
1638.63
1866.87
1730.22
1967.71
1805.37
1902.74
1869.9
2050.09
1937.3
2044.16
1941.28
5193.27
5552.57
5812.21
6015.1
6174.01
6300.52
-0.0412016
-0.043832
-0.0384514
-0.0259351
1.1803
188.056
3063.59
5214.78
5245.78
5024.4
4177.38
4175.76
4356.23
4356.33
3713.64
3705.35
3913.16
3905.53
2769.67
2829.96
2895.04
2950.03
2766.48
2828.92
2893.43
2949.74
3187.71
3249.19
3029.2
3092.82
3184.33
3248.75
3028.27
3092.74
2050.35
2189.56
2242.51
2133.5
2320.2
2312
2059.53
2189.04
2129.23
2242.13
2324.34
2314.03
2629.28
2628.41
2482.2
2466.12
2634.01
2630.23
2488.72
2468.96
1900.76
1775.5
1884
1774.53
2066.43
1891.57
2024.62
1930.41
5028.15
4690.84
2773.32
2756.21
2675.71
2657.12
2618.2
2612.27
2554.84
2540.69
1810.38
2202.68
1810.8
2186.7
1808.08
2198.32
1808.27
2182.16
1795.83
1674.58
2072.29
1806.31
2151.97
1990.43
1785.2
1671.76
2053.58
1796.25
2138.65
1982.23
1895.41
1771.75
1874.9
1771.11
1945.32
1759.16
1940.98
1758.54
2060.19
1881.05
2019.29
1918.68
2119.77
1981.63
2113.62
1976.64
5414.39
5724.96
5964.71
6147.53
6289.88
6398.5
-0.0430435
-0.040184
-0.0298085
-0.0224494
0.523048
105.403
2330.76
4787.51
5056.58
4478.76
4480.85
4602.42
4603.47
4079.57
4074.3
4247.13
4245.65
3309.78
3368.39
3389.5
3479.51
3306.11
3367.21
3390.73
3479.64
3616.61
3760.5
3492.9
3610.07
3612.73
3758.01
3494.18
3609.25
2763.58
2758.31
2903.41
2878.65
2766.59
2761.28
2906.55
2882.68
3183.28
3122.19
3039.9
2988.05
3190.65
3126.79
3042.05
2991.46
1954.58
1847
1968.94
1825.71
5278.91
5044.13
2928.93
2917.79
2867.04
2853.36
2708.61
2704.9
2662.17
2662.15
1807.44
2149.7
1797.89
2162.71
1820.27
2154.35
1803.49
2163.58
1808.23
2201.72
1790.64
2180.91
1801.67
2195.86
1793.55
2178.04
1832.98
2120.26
1843.75
2123.64
1837.45
2116.19
1847.38
2119.48
1811.89
1829.59
2034.43
1983.78
1850.81
2101.64
1797.18
1817.24
2025.13
1975.13
1844.72
2096.51
1950.39
1839.5
1968.54
1817.44
1950.92
1813.36
1944.79
1803.93
5615.35
5892.76
6104.76
6267.68
6390.01
6476.89
-0.0449918
-0.0369474
-0.0202127
-0.0246126
0.209593
47.698
1369.99
4113.2
4810.88
4376.76
4377.06
4485.04
4485.91
3957.27
3954.62
4130.03
4125.77
3282.32
3248.07
3374.42
3369.74
3289.81
3252.44
3378.85
3373.07
3589.81
3629.45
3471.08
3500.52
3590.05
3629.45
3473.94
3502.06
3166.31
3154.24
3181.57
3159.62
5509.12
5357.4
3122.38
3128.27
3021.04
3011.98
2967.76
2947.95
2859.12
2837.34
1770.97
2302.93
1867.63
2262.28
1775.26
2308.59
1876.85
2264.77
1835.81
2168.13
1856.28
2201.83
1844.61
2173.16
1871.73
2206.92
1880.25
2113.93
1857.37
2108.53
1884.05
2110.01
1849.72
2107.48
1831.79
2113.76
1839.61
2111.41
1833.99
2113.47
1836.59
2114.65
5802.91
6044.49
6231.82
6372.05
6470.53
6530.92
-0.0465115
-0.0331895
-0.0153735
-0.0212643
0.0750926
16.5977
565.621
3209.76
4444.09
4445.14
4111.26
4114.16
4281.95
4276.78
4398.5
4398.94
3772.5
3660.83
3659.86
3744.59
3771.56
3660.81
3659.16
3743.85
3888.37
3928.36
3999.36
3836.92
3887.54
3928.47
3998.5
3835.63
3248.61
3243.63
3348.97
3365.78
3261.57
3248.71
3356.73
3369.29
3556.46
3554.95
3440.55
3470.89
3561.11
3554.99
3445.18
3472.57
5712.18
5544.04
5411.04
3024.6
3032.62
3026.31
3016.35
2864.27
2840.42
2691.15
2678.98
1873.67
2430.34
1975.91
2344.46
1864.69
2423.16
1971.81
2336.86
1919.82
2170.94
1964.86
2245.97
1918.47
2164.01
1963.17
2237.81
1892.18
2053.66
1903.83
2049.95
5970.86
6180.05
6342.66
6457.12
6525.89
6558.38
-0.0466508
-0.0334584
-0.00670903
0.00646809
0.0237302
5.42627
183.201
1702.52
4420.19
4419.69
3511.67
3515.36
4011.67
4090.7
4196.02
4078.49
4009.83
4089.22
4193.42
4076.33
4316.16
4312.31
3699.57
3652.91
3611.9
3731.77
3700.47
3656.42
3612.22
3734.46
3793.42
3896.02
3898.96
3814.84
3793.52
3894.16
3898.81
3813.23
3568.42
3543.65
3576.61
3544.36
5899.82
5691.62
5572.74
3254.84
3260.51
3212.95
3189.34
3102.08
3075.16
2996.42
2958.43
2140.85
1801.22
2130.28
1823.18
2136.37
1804.51
2118.79
1818.16
2202.98
1940.4
2288.4
1862.8
2196.93
1926.9
2281.75
1853.09
1993.83
2276.26
2006.05
2228.62
1986.42
2264.69
1999.05
2219.04
1928.18
2103.18
1974.55
2168.24
1938.34
2096.59
1981.69
2160.57
6113.71
6299.39
6435.07
6515.24
6553.9
-0.047428
-0.0277978
0.00399927
0.0567044
0.019984
1.62198
30.2732
1047.93
1048.15
329.761
329.503
3888
4269
3578.46
4243.05
3888.96
4268.46
3580.56
4243.92
2726.57
2731.35
3972.47
3992.34
4085.4
4047.71
3970.9
3992.26
4084.77
4046.41
4098.16
4199.74
4090.29
4107.65
4097.82
4198.62
4087.94
4106.59
3805.43
3857.99
3878.95
3788.6
3805.57
3858.35
3879.12
3788.26
6046.53
5882.09
5754.68
5739.27
3189.33
3151.32
3026.68
2994.37
2939.46
2906.59
1820.9
2199.24
2257.72
1733.69
1811.27
2181.15
2258.95
1723
2272.89
1965.3
2311.3
1960.28
2267.57
1953.83
2298.97
1949.44
2256.42
2014.59
2257.71
1980.07
2254.56
2012.24
2257.83
1969.59
1990.13
2199.19
1998.05
2197.43
6240.69
6401.46
6497.68
6544.57
-0.0448639
-0.0193271
0.0256249
0.14267
0.0631643
0.564243
13.5838
13.5897
2.11863
2.11329
445.558
445.671
56.5218
56.5237
3653.22
4183.48
3146.36
3975.08
3655.44
4183.54
3149.34
3978.37
2885.04
1379.87
1972.46
2091.31
2895.56
1377.04
1976.73
2092.1
3929.8
3947.12
4015.44
4013.5
3930.08
3947.38
4015.32
4012.49
4067.13
4123.45
4062.58
4054.36
4067.31
4123.37
4060.79
4054.27
6172.72
6024.83
5950.68
5901.22
3268.07
3247.55
3189.8
3169.95
2946.17
2953.27
1804.5
2246.86
1667.66
2280.64
1819.25
2250.54
1694.89
2288.51
1817.68
2220.93
1888.52
2269.61
1820.8
2393.32
1847.14
2218.84
1900.8
2258.33
1781.65
2368.62
1987.73
2459.49
1965.9
2435.03
2101.28
1811.25
2111.87
1824.68
2101.35
1831.22
2109.85
1840.05
6351.99
6471.17
6529.82
-0.0443165
-0.000960993
0.0484865
0.247561
0.141107
1.24937
4.82853
4.82649
2.39295
2.37427
150.392
1107.74
224.273
22.8548
57.0231
1281.78
1107.01
150.578
1282.63
224.269
22.9321
57.172
3.82183
3.51759
6.82048
9.93605
3.79661
3.51088
6.84083
9.96182
3404.56
4118.05
3079.51
3948.1
3409.32
4119.29
3084.5
3952.84
2194.71
1544.62
2201.69
1544.21
4002.24
4000.17
4002.26
3999.55
3823.23
4115.82
3825.95
4115.87
6287.11
6127.15
6084.69
6065.83
3327.53
3327.16
3269.86
3243.78
3060.7
3055.38
2944.83
2943.55
2326.53
1586.43
2242.64
1816.38
2371.87
1745.17
2304.31
1604.78
2233.96
1815.54
2353.54
1718.84
1932.8
2430.99
1924.79
2412.73
1956.19
2325.51
1977.04
1950.45
2273.58
2276.42
1950.95
2322.53
1953.95
1960.36
2263.78
2264.67
1887.87
2186.36
1895.27
2176.73
6433.22
6509.08
-0.0354923
0.0213124
0.0688444
0.208767
1.09506
4.63683
4.56576
4.43971
4.36974
3.74996
3.72123
3.43644
3.39011
511.377
17.3528
56.1036
366.31
3.49317
4.32858
511.532
17.4077
365.872
56.0618
3.49783
4.34073
3.65382
3.55964
3.68994
4.1514
3.64436
3.55593
3.6942
4.15805
2442.73
3368.76
2445.68
3376.6
6384.43
6221.13
6137.98
6169.08
6128.97
3091.24
3088.35
3210.7
3162.88
1549.77
2182.03
1706.09
2228.92
1548.24
2167.95
1730.2
2221.78
1659.77
1667.81
2177.87
1715.87
2203.52
2371.79
1709.82
1664.91
2180.11
1756.07
2203.4
2358.28
2407.01
2306.22
1895.04
1950.99
2409.72
2296.52
1882.93
1953.45
1917.76
2258.95
1927.76
2254.17
1894.24
2197.02
1917.78
2205.03
1911.95
2198.82
1915
2197.27
6481.26
-0.0292541
0.0560729
0.0853268
0.263921
2.71246
3.79046
3.19477
4.55363
3.72233
4.15226
3.5947
4.4284
3.77334
4.17762
3.64743
4.42059
3.78244
3.73723
3.5315
3.56718
4.20368
3.35705
3.30302
3.59481
4.22277
3.35538
3.30396
6444.55
6329.26
6185.43
6213.04
6304.04
3365.48
3297.82
3266.86
3234.6
3238.54
3232.6
3063.39
3033.5
1718.75
2381.36
1948.83
2587.4
1702.54
2344.33
1929.79
2565.23
1696.98
1811.59
2135.75
2250.17
1964.79
2438.8
1734.63
1815.32
2251.53
2156.85
1934.17
2423
2266.98
1902.12
2268.2
1899.17
-0.0172132
0.056037
0.108814
0.257644
6.9031
5.49668
3.05916
4.64638
2.93892
2.07255
6.41865
3.83987
4.21472
3.47675
4.35024
3.70064
4.1225
3.52944
4.34945
3.69728
3.20704
3.43948
3.52634
3.94697
3.03325
3.18326
3.44908
3.88138
3.60084
4.47344
3.63373
4.46983
6400.03
6280.53
6227.91
6359.03
6260
3163.21
3159.06
3231.94
3206.19
3066.23
3008.31
2212.35
1782.05
2388.16
1554.77
2152.82
1744.34
2328.13
1497
1837.11
2240.56
1850.46
2260.23
1861.75
2255.01
1865.31
2279.07
-0.0142418
0.0661922
0.057894
0.18253
6.921
7.73627
2.33104
4.46386
2.38318
2.7729
2.72365
2.74617
2.26489
4.49841
2.38753
2.86667
2.11989
2.38457
2.2708
2.66487
7.11473
4.73165
3.52853
3.54294
4.04339
3.59705
3.51356
3.60469
4.01203
3.59267
2.75226
3.31114
2.77839
3.02383
6349.75
6299.33
6338.09
6528.1
3180
3219.85
3222.16
3229.89
3150.22
3153.19
3201.85
3135.74
1549.17
2327.82
1656.09
2336.81
1608.01
2442.37
1549.89
2301.47
1692.24
2319.76
1549.06
2389.91
1807.85
2488.21
1807.78
2526.11
1769.22
2211.61
1805.4
2240.95
0.0039307
0.042643
0.0404802
1.89164
2.13543
1.79869
1.80136
5.37985
7.71607
1.93129
4.25363
2.26225
2.36403
2.26726
2.35975
2.08603
3.60394
2.25556
2.44117
2.12467
2.22695
2.23058
2.46324
5.65401
14.2241
3.318
4.33832
5.37127
7.21787
3.32103
2.86627
6349.29
6382.81
6475.47
6466.96
3221.62
3200.68
3206.52
3176.04
3100.97
3038.01
1763.15
2608.91
2239.55
1578.33
2222.77
1509.83
2209.62
1576.36
2194.73
1461.57
1754.45
2595.27
1830.23
1661.62
2569.06
2149.4
1814.99
1703.49
2566.12
2196.73
1691.74
2181.3
1696.97
2209.1
-0.00570828
0.0188181
0.00218444
1.91504
1.95963
1.85844
1.87489
4.19593
14.462
2.56853
2.89304
3.26924
2.71446
2.77547
8.16455
3.40511
2.86636
5.16894
3.02365
1.87186
2.11304
2.35703
2.54092
2.38949
2.43659
3.05216
6.89503
2.82997
3.70157
6441.78
6516.46
6612.92
3371.8
3373.38
3332.8
3307.67
3375.37
3321.86
3112.74
3066.92
1446.96
2196.67
1570.41
2149.66
1737.77
2566.21
1448.37
1685.49
2516.12
2188.46
1575.5
2142.15
1747.36
2225.98
1829.83
2608.79
1819.78
1754.64
2597.37
2233.19
0.00918963
-0.0133734
-0.0476855
1.92736
1.95825
1.89455
1.91413
3.04333
9.70667
2.66271
2.89993
3.50484
2.71487
2.63682
10.249
3.4031
3.01778
4.1955
3.18136
2.74509
2.38767
2.79084
2.54895
2.80775
2.43043
2.93903
2.78983
2.95723
10.0026
2.77142
6.03865
6577.59
6706.03
6860.76
3354.17
3327.65
3316.83
3272.51
3061.43
3058.83
1578.98
2324.59
2023.38
1536.17
2050.08
1360.32
1550.57
2292.71
2017.36
1525.78
2040.33
1352.74
1698.04
1716.83
2473.17
2196.81
1718.68
2200.07
1661.82
2453.66
0.0139011
-0.0440213
1.91365
1.92798
1.95313
1.91772
1.86112
1.85135
1.99573
2.78649
2.56965
2.02629
2.84503
2.63986
3.09343
5.98472
2.80765
3.09006
3.96699
2.89262
2.93724
7.65572
3.45713
3.0802
5.16991
3.0458
2.84974
2.70291
3.16537
3.17359
6808.87
7026.45
7230.84
3514.42
3507.83
3353.93
3369.24
1313.6
2008.1
1534.15
2122.93
1431.46
2057.02
1349.32
1414.23
2027.26
2008.17
1524.55
2100.95
1689.04
2150.02
1643.23
2226.17
1674.89
2144.24
1620.36
2185.18
1649.66
2170.66
1624.54
2162.79
0.022082
-0.154862
1.92946
1.82132
1.94522
1.82935
1.83129
1.82911
2.87863
2.87917
2.70198
2.84639
2.6502
2.57928
2.85694
2.49887
2.94002
2.90361
2.72539
2.90792
2.6957
2.59207
2.86521
2.50308
2.86757
3.16287
3.77053
3.28324
2.90331
2.72138
3.24968
2.97707
7150.85
7310.73
3634.49
3482.43
3434.91
3625.61
3474
3473.18
2875.49
1473.38
2181.07
2865.01
1502.03
2187.18
1761.77
1805.09
2169.86
2453.45
1763.75
2165.75
1794.29
2447.09
1662.46
2094.47
1688.78
2103.58
1656.37
2082.72
1670.33
2088.67
0.0155012
-0.290135
1.88774
2.57879
2.85171
1.66567
1.8944
2.58168
2.86037
1.68376
1.72363
1.72932
2.93466
2.94491
2.93303
2.72685
2.77042
2.68539
2.95112
3.26825
2.96761
2.8201
2.77988
2.69503
2.72841
3.05174
3.39196
3.51965
7396.12
7450.17
3677.11
3283.46
3337.91
3631.41
3550.16
3510.23
1450.03
1386.77
2025.64
1424.15
2048.29
2005.39
1270.01
1990.29
1468.13
1419.87
2034.17
1441.95
2053.25
1958.9
1319.69
2024.3
1874.38
1654.57
2270.41
2236
1843.1
2275.33
1662.16
2236.51
0.00792442
1.69657
1.64042
1.6551
1.70063
1.85221
1.84322
2.65388
2.58172
2.73637
2.55643
2.81155
2.24911
2.77402
2.46652
1.56862
2.676
2.36642
2.64435
2.5843
2.74505
2.55774
2.82038
2.24884
2.79128
2.47354
1.58347
2.66072
2.36121
3.00058
2.88657
2.77452
2.64176
3.00588
2.90774
2.77933
2.65078
7557.46
7636.05
3713.6
3198.17
2015.33
1322.68
3224.49
2030.71
1376.58
3669.16
3398.05
3407.2
1566.67
1648.86
1585.91
1957.58
2240.52
2221.03
1568.85
1539.58
1606.05
2244.75
1934.74
2158.86
1761.35
2196.39
1757.6
2198.96
-0.103848
1.39677
1.52702
1.41764
1.53571
1.90078
1.89195
2.8649
2.73599
2.57429
2.59843
2.78279
2.49823
2.58344
2.62027
2.34523
2.66277
2.36216
2.24281
2.43473
2.01419
2.88233
2.7335
2.60587
2.57449
2.79657
2.50288
2.60341
2.56774
2.33793
2.63616
2.35418
2.2387
2.44112
2.02173
7787.13
3537.23
3666.85
3633.99
3572.19
3500.98
3530.78
1289.57
2082.01
1441.98
2153.29
1457.73
2107.02
1501.56
2190.24
1347.46
2063.55
1425.24
2138.27
1407.02
2093.61
1531.49
2202.97
3050.63
1400.69
2171.89
3040.33
1453.85
2161.41
1671.14
1746.81
2137.33
2382.52
1740.88
1641.37
2158.33
2376.08
-0.0933947
0.991141
2.01275
2.32477
1.76694
1.02501
2.02537
2.34442
1.77696
1.86204
1.85406
2.78716
2.54547
2.71701
2.45514
2.54218
2.47246
2.70447
2.46341
2.39016
2.23968
2.78344
2.5455
2.71295
2.45347
2.52148
2.69594
2.47336
2.46021
2.38311
2.24051
7633.95
3497.57
3531.15
3522.82
3540.76
3491.58
3493.24
1636.04
1593.28
2187.34
2078.77
1738.44
2337.52
1565.28
1633.66
2177.83
2091.74
1713.61
2334.16
1376.89
1497.3
2144.76
1389
2073.98
1953.29
1306.67
2041.27
1395.46
1467.68
2136.87
1436.73
2103.7
1955.97
1337.1
2042.64
0.008853
2.31553
2.3101
1.82985
1.86148
1.84856
1.58136
2.13125
5.54455
1.87477
1.87269
1.86494
1.58837
2.14524
5.56838
2.60887
2.41976
2.24998
2.44354
2.30754
2.0761
2.58811
2.41087
2.24621
2.43779
2.30484
2.07578
7749.34
3544.16
3522.89
1945.11
1319.62
3496.56
1946.47
1318.94
3570.66
3585.97
3568.07
1639.85
2054.05
1663.59
2265.4
1632.78
2059.88
1641.87
2244.84
1652.97
1637.96
1632.69
2031.17
2172.66
2139.25
1696.11
1574.94
1595.23
2178.17
2033.35
2097.36
0.044416
2.58604
2.49141
2.57836
2.48372
12.7321
1.18643
1.48784
1.18276
1.43415
1.99563
1.82632
8.06447
12.8386
1.20591
1.50046
1.1883
1.4586
1.9843
1.82315
8.07465
2.26928
2.16878
2.25361
2.16486
7789.06
3543.62
3551.63
3582.84
1779.88
1325.67
1707.81
1345.37
3566.3
1793.41
1323.47
1712.11
1342.79
3520.57
3493.57
1753.27
1616.25
1652.29
2111.84
1943.4
2039.42
1745.03
1623.54
1590.01
1952.55
2073.46
1999.78
-0.0517842
2.52978
2.5649
2.5226
2.55376
2.51552
2.52221
29.3577
2.57407
16.0243
28.7691
1.50804
1.35048
1.70987
1.53394
1.50492
2.01864
1.91448
29.5554
2.6104
15.9506
28.8122
1.53765
1.35067
1.69743
1.5308
1.50506
1.99349
1.90693
7789.06
3547.08
3553.14
3546.33
3554.07
3448.57
1648.18
1339.2
1706.96
1287.22
1616.35
1979.68
3396.58
1647.97
1345.02
1705.03
1313.87
1576.33
1944.42
3605.56
3575.21
1720.83
2116.12
1702.85
2078.81
-0.0407417
2.22623
1.84949
2.21832
1.83825
3.11041
8.9336
3.10408
8.89238
4.13363
4.12835
52.6069
42.6313
55.2321
37.9526
2.41927
15.277
20.0391
2.33519
1.51377
1.78698
1.66572
1.62664
52.9207
42.3232
56.097
37.737
2.39414
15.0626
19.878
2.2932
1.51031
1.7634
1.65866
1.61564
7751.43
3551.97
3555.68
3553.87
3552.06
3638.35
3608.52
3346.78
1701.73
1164.42
1718.92
1239.4
1777.27
1564.15
1896.2
1510.74
1710.09
2107.54
3297.32
1682.59
1270.59
1754.68
1269.66
1758.18
1541.15
1883.52
1509.33
1722.31
2062.6
-0.0751202
1.80385
1.82443
1.78693
1.8079
3.94223
1.54679
3.91832
1.5549
9.6694
34.2591
9.64384
34.3079
20.575
4.16908
4.55846
12.144
20.5093
4.1606
4.55402
12.0306
56.7344
42.8598
59.9923
43.7327
56.717
42.5468
59.9527
43.4742
7639.17
3553.71
3539.24
3557.4
3572.25
3634.48
3613.53
3606.22
3582.41
3330.83
3281.29
2114.91
1308.28
1977.16
1452.3
2046.59
1495.43
2114.95
1531.79
1972.66
1734.86
2112.55
1618.46
2099.95
1318.47
1965.46
1430.04
1794.97
1361.62
1845.83
1424.94
1964.16
1744.4
2078.73
1646.22
-0.321507
-0.0957529
1.70272
1.79948
1.71724
1.80951
9.04564
0.873297
9.0435
0.882524
43.1432
5.21267
7.53251
25.979
64.8283
36.1237
49.6305
53.2972
43.2136
5.20781
7.53847
25.9857
65.2794
35.8534
49.8219
52.9961
27.4901
5.74636
10.5765
18.1222
27.3058
5.73835
10.5576
17.9869
7803.69
3498.25
3548.73
3544.41
3576.36
3525.81
3586.7
3495.83
3567.4
3328.73
3366.7
3281.35
3325.39
2153.98
1511.74
2188.42
1483.07
2141.65
1481.74
2171.01
1460.72
2354.85
1526.29
2092.05
1718.21
2289.53
1485.91
2022.73
1628.83
-0.133369
1.65341
1.75143
1.6657
1.7554
-0.0363535
1.10848
1.40246
1.13576
1.417
2.3899
7.26647
14.5074
1.56044
1.17181
1.67934
1.41176
1.39254
2.41161
7.27588
14.4565
1.55726
1.17405
1.68325
1.41655
1.39254
41.5594
9.69922
14.7622
31.2336
67.5029
34.1296
44.6034
57.0043
41.6533
9.80394
14.745
31.4132
67.5021
34.1688
44.5042
56.9488
7566.99
7648.94
3485.82
3501.35
3499.28
3524.23
3459.52
3594.32
3416.47
3576.05
2156.08
1507.57
2181.72
1484.8
2116.82
1312.75
1985.47
1456.36
2143.46
1478.55
2164.14
1460.29
2104.02
1331.18
1991.35
1434.98
2387.05
1729.27
2421.42
1712.43
2364.49
1700.18
2401.81
1673.24
-0.0724462
1.79871
1.79454
1.8008
1.78967
1.57518
1.67199
1.58721
1.6897
-0.0166147
2.0036
2.01664
1.78171
2.23675
2.10506
2.50022
2.0603
2.39657
2.01305
2.03407
1.79073
2.25463
2.11299
2.50632
2.06715
2.41109
1.42144
4.57219
4.63385
1.32695
1.36675
1.79221
1.62056
1.5
1.39999
4.67166
4.47155
1.33835
1.3708
1.79666
1.62138
1.5061
7404.28
7458.26
3684.38
3722.08
3647.58
3681.38
3528.99
3534.5
3499.13
3525.83
1689.3
1159.4
1703.91
1237.67
1651.49
1342.77
1705.31
1283.45
1677
1232.82
1729.58
1257.39
1641.79
1342.81
1707.01
1294.51
2387.95
1728.86
2424.88
1716.29
2368.35
1528.37
2085.98
1731.9
2367.72
1701.73
2405.75
1675.93
2326.82
1523.9
2071.49
1659.55
-0.158332
-0.0412685
1.80549
1.88006
1.82111
1.88411
2.59233
2.56358
2.34851
2.63213
2.35921
2.19694
2.67673
2.22616
2.64288
2.35649
2.57909
2.56515
2.34358
2.61119
2.35325
2.19774
2.67277
2.22694
2.63301
2.35324
-0.0157646
2.12162
2.06267
1.90249
2.28436
2.23439
2.4634
2.12334
2.06646
1.90352
2.29189
2.23569
2.4697
1.45065
1.89848
1.7536
1.60196
1.44799
1.86964
1.74466
1.59048
7153.98
7314.21
3684.69
3638.5
3641.06
3629.72
3058.21
3396.24
3048.93
3407.74
1791.79
1318.93
1713.9
1349.86
1951.21
1305.41
2038.02
1320.25
1799.96
1313.38
1714.3
1352.02
1955.19
1339.64
2043.77
1330.99
2034.79
1480.27
2090.54
1503.84
1794.95
1572.57
1876.83
1490.92
1806.62
1392.34
1925.91
1401.3
1766.87
1507.78
1839.35
1489.08
-0.0839512
1.77487
1.7386
1.79034
1.74411
-0.0199136
1.7033
1.77191
1.71033
1.77938
2.5484
2.64083
2.40122
2.43073
2.66043
2.43015
2.74718
2.35701
2.68441
2.43641
2.5325
2.63181
2.39557
2.42833
2.64977
2.42606
2.73931
2.35391
2.67862
2.43412
-0.024786
2.22184
2.13443
2.01849
2.32706
2.33741
2.44417
2.21803
2.1138
2.01179
2.31395
2.33451
2.43876
6813.08
7024.95
7234.39
3557.83
3477.83
3525.14
3474.87
1493.61
1381.8
2160.89
1394.66
2089.18
1950.82
1308.26
2123.19
1407.84
2194.68
1395.32
1528.75
2171.78
1464.33
2122.95
1958.42
1366.88
2115.72
1475.79
2197.14
2070.84
1567.84
1936.04
1659.79
2162.29
1649.81
2054.51
1534.49
1916.98
1620.27
2140.44
1614.44
2046.51
1710.87
2050.04
1621.49
1956.48
1675.94
2007.66
1606.23
-0.0306377
1.74748
1.70492
1.75425
1.70468
1.76222
1.7234
1.77144
1.73425
-0.011434
2.41273
2.63195
2.41885
2.65721
2.39583
2.68684
2.275
2.66147
2.41097
2.63288
2.41796
2.65684
2.3948
2.68017
2.27387
2.66003
2.5925
2.43631
2.60191
2.43929
2.62426
2.42867
2.577
2.43233
2.59971
2.43788
2.61835
2.42805
-0.0105348
6592.03
6712.11
6856.65
3482.57
3512.96
3431.45
3509.26
3245.38
3293.89
3265.01
3355.87
1636.84
1697.81
2227.8
2010.34
1625.91
2248.13
1481.89
2139.07
1689.44
2326.64
1720.66
1649.16
2020.55
2244.61
1612.11
2224.76
1526.42
2156.01
1678.39
2322.4
2109.48
1710.63
2069.49
1727.42
2119.53
1766.74
2052.91
1656.9
2016.34
1676.58
2098.65
1771.14
-0.016872
-0.00458624
1.72406
1.76534
1.74345
1.77175
2.60406
2.67587
2.44817
2.60255
2.40837
2.31123
2.53584
2.14719
2.57188
2.3447
2.59853
2.67618
2.44498
2.59579
2.40304
2.31067
2.53171
2.14978
2.56651
2.34183
0.0446471
2.42949
2.6908
2.44322
2.66461
2.40642
2.65576
2.43196
2.69786
2.4445
2.67319
2.40583
2.65295
-0.0132027
6454.51
6537.62
6619.97
3347.43
3372.5
3319.33
3376.23
2842.52
3345.16
2836.65
3362.97
2090.44
1393.6
2123.36
1445.84
2003.91
1274.41
1995.45
1311.98
2042.84
1350.67
2101.53
1401.37
2019.27
1317.48
2022.02
1363.99
1627.37
1981.34
1509.89
1968.15
1523.28
1980.38
1678.36
1990.87
1553.52
1987.69
1550.54
1989.92
0.0775451
1.69968
1.71188
1.72263
1.70661
0.0602782
1.63958
1.68193
1.65916
1.69479
2.62923
2.62616
2.4625
2.42544
2.58109
2.39884
2.52531
2.21798
2.5639
2.35223
2.6122
2.62083
2.45688
2.42048
2.60191
2.40009
2.53852
2.2406
2.59493
2.36728
0.059023
2.45006
2.67137
2.44507
2.65541
-0.016215
6365.39
6410.21
6506.26
6470.84
3309.44
3339.05
3265.82
3315.22
1349.97
1450.42
2034.53
1396.83
2018.62
1969.18
1343.24
2042.26
1448.96
2147.15
1466.72
1392.1
2049.01
1415.24
2024.4
1918.7
1358.44
2025.53
1475.81
2150.38
2379.57
1620.15
2183.03
1699.59
2213.06
1604.15
2391.51
1547.15
2182.19
1643.7
2134.08
1519.96
3.44336
0.251732
6.34736
6.79817
7.29978
7.22863
0.0810623
2.25967
2.57902
2.4012
2.59148
3.55383
2.32289
2.81438
2.51952
2.67956
5.24657
2.72657
2.43757
2.79456
2.49632
3.09401
2.58603
2.9288
2.43045
3.32552
2.66166
3.79102
2.75391
0.0580018
-0.0266525
6364.85
6318.98
6364.97
6547.88
3223.55
3194.12
3207.04
3228.44
3068.81
3383.14
3065.12
3324
1501.76
1623.38
2274.67
1885.12
1679.09
2247.54
1585.24
2166.45
1783.44
2404.67
1541.23
1625.56
1871.04
2274.17
1670.3