/*--------------------------------*- C++ -*----------------------------------*\
| =========                 |                                                 |
| \\      /  F ield         | OpenFOAM: The Open Source CFD Toolbox           |
|  \\    /   O peration     | Version:  5.x                                   |
|   \\  /    A nd           | Web:      www.OpenFOAM.org                      |
|    \\/     M anipulation  |                                                 |
\*---------------------------------------------------------------------------*/
FoamFile
{
    version     2.0;
    format      ascii;
    class       surfaceScalarField;
    location    "0.9";
    object      phi;
}
// * * * * * * * * * * * * * * * * * * * * * * * * * * * * * * * * * * * * * //

dimensions      [0 3 -1 0 0 0 0];

internalField   nonuniform List<scalar> 
30582
(
0.000285915
-5.48932e-07
0.000284016
1.8997e-06
0.000285248
-3.95678e-07
0.000280183
3.83275e-06
0.000282682
4.46586e-06
0.000283525
1.55655e-06
0.000278306
1.87723e-06
0.000278977
7.53752e-06
0.000281414
6.57717e-06
0.000280178
6.96526e-06
0.000277979
3.2643e-07
0.000277401
3.45342e-06
0.000278406
1.05455e-05
0.000275663
1.10919e-05
0.000275543
1.71496e-05
0.000275305
2.67412e-06
0.000277483
2.43887e-07
0.00027778
4.07904e-06
0.000273071
1.31375e-05
0.000272504
1.4131e-05
0.000266639
3.64245e-05
0.000268026
7.27951e-06
0.000275743
4.41497e-06
0.000279617
-1.59347e-06
0.000273828
3.32217e-06
0.000271132
1.45102e-05
0.000259724
2.10458e-05
0.000261206
6.13512e-05
0.000254669
1.33569e-05
0.000268985
1.4037e-05
0.000278517
5.51542e-06
0.000277919
-5.68467e-06
0.00027497
-5.15943e-07
0.00025947
1.47644e-05
0.000255966
2.6286e-05
0.000238839
0.000108896
0.000236048
1.86206e-05
0.000255764
2.65781e-05
0.000271707
2.08474e-05
0.000279532
3.90205e-06
0.00028204
-1.27546e-05
0.000266971
-8.01694e-06
0.000256534
1.41965e-05
0.000226694
3.84305e-05
0.000169388
-8.91774e-05
0.000213643
2.24051e-05
0.000236956
3.74286e-05
0.000258192
4.00923e-05
0.000274365
2.6015e-05
0.000285616
3.2533e-07
0.000280254
-2.60371e-05
0.000267904
-1.93869e-05
0.000235517
5.37439e-06
0.000200274
7.54458e-06
-0.000308634
0.000218146
0.000189279
2.4364e-05
0.000214216
4.5145e-05
0.000238805
5.68156e-05
0.000261209
5.32476e-05
0.000280302
3.13296e-05
0.000287698
-7.11883e-06
0.000284627
-4.27603e-05
0.000258838
-4.27086e-05
0.000248118
-4.24693e-05
-5.06833e-05
-0.000250406
-7.64271e-05
0.000294556
0.000164609
2.46699e-05
0.000189503
4.90773e-05
0.000215318
6.8632e-05
0.000241234
7.67906e-05
0.000266611
6.69384e-05
0.000285653
3.3375e-05
0.000296331
-1.88233e-05
0.000284817
-6.8739e-05
0.000300254
-9.48445e-05
0.000128099
-0.000221252
2.56033e-05
-0.000352436
0.000134461
0.000160095
0.000140887
2.3722e-05
0.00016454
4.96326e-05
0.000189873
7.45228e-05
0.000216743
9.31235e-05
0.000245332
9.80692e-05
0.000272342
8.02493e-05
0.000294193
3.55137e-05
0.000301436
-3.54428e-05
0.000346817
-0.000115302
0.000322842
-0.000289587
2.63027e-05
-0.000221951
8.72245e-05
-0.0003052
2.12466e-05
0.000138849
0.000118923
2.19645e-05
0.000140607
4.76554e-05
0.000164311
7.51939e-05
0.000190255
0.00010101
0.000219162
0.000119293
0.000249668
0.000120743
0.000280069
9.43729e-05
0.000303836
3.31144e-05
0.000379363
-6.79887e-05
0.000489038
-0.000281499
0.000137721
-0.000401005
7.49888e-05
-0.000209716
1.59834e-05
-0.000299937
8.71491e-05
5.16995e-05
9.91338e-05
1.97889e-05
0.00011851
4.40607e-05
0.000139954
7.20128e-05
0.000163834
0.000101615
0.000191086
0.000129087
0.0002214
0.000147561
0.00025528
0.000145532
0.000290344
0.000107865
0.000389755
2.27227e-05
0.000607813
-0.000186764
0.000325831
-0.000469609
7.8998e-05
-0.000405014
3.37553e-05
-0.000227487
4.06246e-05
-0.000253412
-2.83208e-05
8.16406e-05
1.74932e-05
9.86553e-05
3.9644e-05
0.000117601
6.6414e-05
0.000138873
9.69742e-05
0.000163418
0.000129283
0.000191301
0.000159186
0.000224316
0.000178526
0.000263355
0.000172521
0.000382234
0.000115385
0.000663993
-3.34569e-05
0.000521187
-0.00038212
6.25613e-05
-0.000453172
1.9184e-05
-0.000390443
2.05445e-05
-0.000207407
-1.25362e-05
6.63665e-05
1.52741e-05
8.11462e-05
3.50023e-05
9.76278e-05
5.9617e-05
0.00011616
8.91263e-05
0.00013761
0.000122782
0.000162061
0.000158524
0.000191765
0.000191736
0.000228638
0.000213243
0.000359414
0.000195341
0.000678649
0.000100729
0.000653448
-0.000165718
6.57202e-05
-0.000385279
-2.1872e-05
-0.000412116
3.25226e-06
-0.00037315
4.90153e-06
5.31105e-05
1.3256e-05
6.5893e-05
3.05273e-05
8.01038e-05
5.25264e-05
9.6027e-05
7.97503e-05
0.000114405
0.000112332
0.00013521
0.000149633
0.000160769
0.000189519
0.000192823
0.000227551
0.000330189
0.000242468
0.000662185
0.000211804
0.000688928
6.52489e-05
8.37533e-05
-0.000183751
-5.83887e-05
-0.000348762
-2.20603e-05
-0.000386804
1.5313e-06
4.16032e-05
1.15073e-05
5.26832e-05
2.64658e-05
6.49069e-05
4.57242e-05
7.84916e-05
7.00617e-05
9.40524e-05
0.000100103
0.000111421
0.00013612
0.000132876
0.000177527
0.000159367
0.000222976
0.000301165
0.000256575
0.000630441
0.000274213
0.000635856
0.000264876
8.63622e-05
6.264e-05
-7.75179e-05
-0.000164622
-4.49711e-05
-0.000325851
-7.81179e-06
3.15446e-05
1.00586e-05
4.12376e-05
2.29529e-05
5.17997e-05
3.9573e-05
6.3388e-05
6.08278e-05
7.64961e-05
8.7618e-05
9.08441e-05
0.00012068
0.000108602
0.000160394
0.000129706
0.000207188
0.000275284
0.000248856
0.000594134
0.000292882
0.00051903
0.000391039
6.90168e-05
0.000282222
-7.00868e-05
5.52088e-05
-5.70622e-05
-0.000152531
-1.57994e-05
2.26272e-05
8.91743e-06
3.12493e-05
2.00469e-05
4.04848e-05
3.42678e-05
5.04425e-05
5.25185e-05
6.15065e-05
7.58175e-05
7.3325e-05
0.000105137
8.79231e-05
0.000141358
0.000104304
0.000185796
0.000253057
0.000229415
0.000552783
0.000290207
0.000385806
0.000426106
5.32247e-05
0.000406831
-4.62061e-05
0.000258341
-5.35109e-05
5.16575e-05
-1.96044e-05
1.45539e-05
8.07324e-06
2.2407e-05
1.77597e-05
3.06439e-05
2.98878e-05
3.93318e-05
4.53784e-05
4.87617e-05
6.52633e-05
5.85525e-05
9.059e-05
7.05436e-05
0.000122517
8.30426e-05
0.00016262
0.000233996
0.000204857
0.000501306
0.000280892
0.0002684
0.000407613
4.66379e-05
0.000432693
-1.58783e-05
0.000376504
-3.50271e-05
0.000239857
-1.71512e-05
7.04356e-06
7.51035e-06
1.44124e-05
1.60678e-05
2.19593e-05
2.64442e-05
2.97195e-05
3.95001e-05
3.79045e-05
5.62355e-05
4.61416e-05
7.76743e-05
5.60489e-05
0.000105085
6.55201e-05
0.000140039
0.000217321
0.000179295
0.000439239
0.000266924
0.000181858
0.000367434
4.52413e-05
0.00040901
6.48628e-06
0.000410328
-1.22388e-05
0.000353715
-1.05415e-05
-1.62366e-07
7.20594e-06
6.98311e-06
1.49397e-05
1.41273e-05
2.38999e-05
2.12761e-05
3.48876e-05
2.85757e-05
4.88288e-05
3.56892e-05
6.66878e-05
4.39862e-05
8.9737e-05
5.1219e-05
0.000119386
0.000202251
0.000155109
0.000370139
0.000248396
0.000125375
0.000323407
4.20204e-05
0.000370655
1.80464e-05
0.00039745
3.63085e-06
0.000394458
-2.94563e-06
-7.30271e-06
7.14036e-06
-1.40733e-07
1.43298e-05
6.86208e-06
2.22049e-05
1.36914e-05
3.14846e-05
2.0432e-05
4.30314e-05
2.68049e-05
5.77131e-05
3.39117e-05
7.67623e-05
3.95946e-05
0.000101361
0.000187866
0.000133771
0.000299091
0.000226156
8.84837e-05
0.000285287
3.72101e-05
0.000328217
2.28046e-05
0.000365897
1.1714e-05
0.000389366
2.26537e-06
-1.45957e-05
7.29297e-06
-7.19883e-06
1.41985e-05
-9.72234e-08
2.12891e-05
6.67624e-06
2.92201e-05
1.31547e-05
3.87618e-05
1.91248e-05
5.07115e-05
2.54122e-05
6.62126e-05
3.01276e-05
8.62293e-05
0.000172999
0.000116228
0.000231973
0.000200889
6.38643e-05
0.000250776
3.33816e-05
0.000289116
2.32815e-05
0.000327741
1.49264e-05
0.000362685
4.89809e-06
-2.2239e-05
7.64335e-06
-1.44108e-05
1.45049e-05
-6.99049e-06
2.10917e-05
-3.37677e-08
2.79991e-05
6.45077e-06
3.5924e-05
1.23188e-05
4.55679e-05
1.81134e-05
5.80104e-05
2.23451e-05
7.39951e-05
0.000156276
0.000102953
0.000173904
0.000174297
4.6995e-05
0.000217758
3.05849e-05
0.000253572
2.22158e-05
0.000290181
1.52863e-05
0.000327381
5.83568e-06
-3.04107e-05
8.17168e-06
-2.1976e-05
1.52085e-05
-1.40396e-05
2.1554e-05
-6.67571e-06
2.77337e-05
5.4961e-08
3.43949e-05
6.08747e-06
4.21554e-05
1.16819e-05
5.19994e-05
1.58268e-05
6.45287e-05
0.000136099
9.41718e-05
0.000126522
0.000150335
3.43853e-05
0.000186906
2.77233e-05
0.00022062
2.07928e-05
0.000254995
1.45229e-05
0.000290945
5.81494e-06
-3.92663e-05
8.85562e-06
-3.00734e-05
1.62691e-05
-2.1444e-05
2.2613e-05
-1.34769e-05
2.83552e-05
-6.27776e-06
3.40664e-05
1.64261e-07
4.03181e-05
5.81999e-06
4.80173e-05
1.02091e-05
5.76171e-05
0.00011097
8.96575e-05
8.91205e-05
0.000131573
2.4611e-05
0.00016011
2.395e-05
0.00019068
1.89752e-05
0.000222437
1.3404e-05
0.000256114
5.40848e-06
-4.89369e-05
9.67057e-06
-3.8859e-05
1.76413e-05
-2.9385e-05
2.42101e-05
-2.06375e-05
2.97735e-05
-1.27703e-05
3.48477e-05
-5.69819e-06
3.99288e-05
2.63855e-07
4.58743e-05
5.17361e-06
5.30527e-05
8.00312e-05
8.8556e-05
6.04549e-05
0.000118323
1.69668e-05
0.000139217
1.92851e-05
0.000164774
1.64978e-05
0.000193157
1.2041e-05
0.0002238
4.87842e-06
-5.95256e-05
1.05887e-05
-4.84651e-05
1.92767e-05
-3.80222e-05
2.62785e-05
-2.83406e-05
3.19132e-05
-1.96261e-05
3.66294e-05
-1.17223e-05
4.08718e-05
-5.23142e-06
4.54241e-05
4.49654e-07
5.05982e-05
4.38441e-05
8.92398e-05
3.82095e-05
0.000110801
1.01689e-05
0.000125121
1.42964e-05
0.000144206
1.33136e-05
0.000167959
1.03753e-05
0.000194823
4.28538e-06
-7.11024e-05
1.15768e-05
-5.89981e-05
2.11217e-05
-4.74917e-05
2.87461e-05
-3.67499e-05
3.46878e-05
-2.7032e-05
3.93191e-05
-1.81129e-05
4.302e-05
-1.08861e-05
4.65265e-05
-4.21292e-06
5.00867e-05
4.58345e-06
8.98589e-05
1.89439e-05
0.000108506
4.81119e-06
0.000116159
9.66925e-06
0.000129748
9.60527e-06
0.000147914
8.38931e-06
0.000169944
3.62228e-06
-8.37003e-05
1.2598e-05
-7.05319e-05
2.31106e-05
-5.79046e-05
3.15346e-05
-4.60081e-05
3.80043e-05
-3.51568e-05
4.28126e-05
-2.50613e-05
4.62675e-05
-1.69031e-05
4.9037e-05
-9.0475e-06
5.13611e-05
-3.42471e-05
8.89172e-05
1.22716e-06
0.000107576
1.20829e-06
0.000112109
5.35959e-06
0.000120469
6.07065e-06
0.000133283
6.23838e-06
0.000150065
2.87624e-06
-9.73166e-05
1.36162e-05
-8.31052e-05
2.51712e-05
-6.93435e-05
3.45495e-05
-5.62359e-05
4.17624e-05
-4.41513e-05
4.69989e-05
-3.27443e-05
5.04956e-05
-2.34731e-05
5.28375e-05
-1.42609e-05
5.42505e-05
-6.95755e-05
8.66895e-05
-1.67385e-05
0.000106883
-1.47411e-06
0.000110258
1.89177e-06
0.000115577
3.03884e-06
0.000123501
4.16691e-06
0.000135355
2.0882e-06
-0.000111902
1.45853e-05
-9.67202e-05
2.72313e-05
-8.18562e-05
3.76839e-05
-6.75269e-05
4.58405e-05
-5.41475e-05
5.17585e-05
-4.13246e-05
5.55792e-05
-3.07749e-05
5.77974e-05
-2.00588e-05
5.86354e-05
-9.95532e-05
8.42282e-05
-3.57948e-05
0.000105746
-3.92176e-06
0.000109331
-1.06378e-06
0.000113214
7.78573e-07
0.000117837
2.28254e-06
0.000125386
1.33721e-06
-0.000127364
1.54625e-05
-0.000111333
2.91976e-05
-9.54544e-05
4.08295e-05
-7.99419e-05
5.00989e-05
-6.52526e-05
5.69456e-05
-5.09497e-05
6.13836e-05
-3.89769e-05
6.37812e-05
-2.66408e-05
6.43793e-05
-0.000123879
8.29607e-05
-5.68958e-05
0.000105329
-7.21763e-06
0.000109041
-3.95548e-06
0.000112222
-8.90213e-07
0.000114883
7.71471e-07
0.000119349
6.89231e-07
-0.000143555
1.61905e-05
-0.000126854
3.09839e-05
-0.000110103
4.38467e-05
-9.35065e-05
5.43941e-05
-7.75438e-05
6.23901e-05
-6.1746e-05
6.77419e-05
-4.82367e-05
7.06434e-05
-3.42015e-05
7.13419e-05
-0.000143343
8.38437e-05
-8.19997e-05
0.000108064
-1.18729e-05
0.000109984
-7.19949e-06
0.000112285
-2.4574e-06
0.000113789
-5.07696e-07
0.000116162
1.79328e-07
-0.000160275
1.67206e-05
-0.000143138
3.24744e-05
-0.000125725
4.6606e-05
-0.000108201
5.85412e-05
-9.10658e-05
6.79161e-05
-7.3813e-05
7.44571e-05
-5.86959e-05
7.82011e-05
-4.29287e-05
7.93707e-05
-0.00015921
8.7209e-05
-0.000112592
0.000114436
-1.79307e-05
0.000114122
-1.12182e-05
0.000114002
-4.4671e-06
0.000114294
-1.75604e-06
0.000115037
-2.02652e-07
-0.000177279
1.70036e-05
-0.000159989
3.35716e-05
-0.000142184
4.89325e-05
-0.000123962
6.23667e-05
-0.000105819
7.32945e-05
-8.72204e-05
8.13235e-05
-7.04757e-05
8.62369e-05
-5.2996e-05
8.82684e-05
-0.000172719
9.28798e-05
-0.00014898
0.000123597
-2.47247e-05
0.00012123
-1.55333e-05
0.000118437
-7.16714e-06
0.000116702
-3.18621e-06
0.000115724
-5.62351e-07
1.69852e-05
-0.000194264
-0.000177163
3.41773e-05
-0.000159288
5.06762e-05
-0.000140665
6.56356e-05
-0.000121761
7.83087e-05
-0.000101996
8.807e-05
-8.36746e-05
9.45225e-05
-6.45582e-05
9.77991e-05
-0.0001849
0.00010045
-0.000191319
0.000135219
-3.26781e-05
0.000131551
-2.01427e-05
0.000125839
-1.03908e-05
0.00012166
-4.92621e-06
0.000118442
-1.01207e-06
3.41821e-05
-0.00019436
3.84809e-05
-0.000232745
-0.000176795
5.16837e-05
-0.000158132
6.81433e-05
-0.000138788
8.26623e-05
-0.000118124
9.44373e-05
-9.83554e-05
0.000102751
-7.77472e-05
0.000107711
-0.000196523
0.000109422
-0.00023924
0.000148371
-4.22854e-05
0.000144827
-2.4697e-05
0.000136105
-1.38496e-05
0.000129298
-6.84882e-06
0.000123583
-1.58167e-06
5.17989e-05
-0.000194411
7.76157e-05
-0.000233494
3.11444e-05
-0.000263889
-0.000176128
6.96798e-05
-0.000156737
8.60927e-05
-0.000135529
0.000100067
-0.000114543
0.000110625
-9.26553e-05
0.000117659
-0.00020817
0.000119358
-0.000290722
0.000160904
-5.35448e-05
0.00015963
-2.87894e-05
0.00014892
-1.71798e-05
0.000139436
-8.83755e-06
0.000131287
-2.2665e-06
7.00068e-05
-0.000194336
0.000118016
-0.000234812
6.29819e-05
-0.000265332
1.90024e-05
-0.000282892
-0.000175382
8.83241e-05
-0.000154075
0.000104638
-0.000132207
0.000117731
-0.000109329
0.000127299
-0.000220252
0.000129741
-0.000342972
0.000171608
-6.74554e-05
0.000174815
-3.23031e-05
0.000163145
-2.0048e-05
0.000151788
-1.08224e-05
0.000141421
-3.0138e-06
8.90672e-05
-0.000194442
0.000160254
-0.000236574
9.64094e-05
-0.00026824
4.02012e-05
-0.000286531
3.21501e-06
-0.000286107
-0.00017355
0.000107799
-0.000151259
0.00012369
-0.000127756
0.000136158
-0.000233039
0.000140086
-0.000393436
0.000180205
-8.54778e-05
0.00018963
-3.54105e-05
0.000177923
-2.24669e-05
0.000165564
-1.26364e-05
0.000153602
-3.76115e-06
0.000109146
-0.000193629
0.000205052
-0.00023924
0.000132152
-0.000272316
6.30678e-05
-0.000291106
1.18278e-05
-0.000295143
-2.05254e-05
-0.000265581
-0.000171525
0.000128065
-0.000147877
0.000143812
-0.000246708
0.000149827
-0.000440251
0.000186901
-0.000109167
0.000203894
-3.86012e-05
0.000192821
-2.45634e-05
0.000180019
-1.42559e-05
0.000167183
-4.46388e-06
0.000130382
-0.000192761
0.000252954
-0.000241531
0.000170985
-0.000278073
8.88058e-05
-0.000298054
2.19182e-05
-0.000301197
-2.73966e-05
-0.000288272
-7.40494e-05
-0.000191532
-0.000169511
0.000149699
-0.00026143
0.000158534
-0.000482547
0.000192123
-0.000140563
0.000218297
-4.24381e-05
0.00020773
-2.65341e-05
0.000194791
-1.57527e-05
0.000181516
-5.11875e-06
0.000153085
-0.000192214
0.000304352
-0.000244159
0.000213439
-0.000283985
0.000117751
-0.000307018
3.65223e-05
-0.000312658
-2.93385e-05
-0.000299255
-9.5738e-05
-0.000266584
-8.19866e-05
-0.000109545
-0.000277558
0.000165827
-0.00051949
0.000195476
-0.000182489
0.000234049
-4.7186e-05
0.000223045
-2.84721e-05
0.000209668
-1.72013e-05
0.00019624
-5.74355e-06
0.000173023
-0.000297495
0.000360221
-0.000248083
0.000259995
-0.000290715
0.000150076
-0.000316311
5.42066e-05
-0.000324702
-2.22711e-05
-0.000319725
-9.9428e-05
-0.000295565
-0.000127776
-0.000220794
-0.000298748
0.000189203
-0.000553031
0.000199369
-0.000239686
0.000252674
-5.23952e-05
0.000239258
-3.01326e-05
0.000224705
-1.85633e-05
0.00021103
-6.35535e-06
0.000216353
-0.000596362
0.000402884
-0.000340159
0.000311612
-0.000299699
0.000186212
-0.000326851
7.45245e-05
-0.000336629
-1.32315e-05
-0.000333742
-8.66521e-05
-0.000332501
-0.000141764
-0.000281577
-0.000327569
-0.000191973
-2.74246e-05
0.000216627
-0.000313818
0.000273501
-5.6274e-05
0.000256553
-3.06437e-05
0.000239769
-1.9618e-05
0.00022576
-6.93188e-06
0.000294629
-0.000392095
0.000435693
-0.00062917
0.000352165
-0.000380713
0.000226137
-0.000339625
9.81426e-05
-0.000350469
-1.84948e-06
-0.000348011
-7.57434e-05
-0.00034465
-0.000130698
-0.000343567
-0.000282766
-0.00032638
-4.03137e-05
-0.000179084
0.00030561
-8.89833e-05
-5.64124e-05
0.000273639
-2.84935e-05
0.000254402
-1.9789e-05
0.00023994
-7.38869e-06
0.000288717
-5.05e-05
0.000609961
-0.000566362
0.000374582
-0.000651587
0.000257604
-0.00041218
0.00012349
-0.000364972
9.4251e-06
-0.000361743
-6.91625e-05
-0.000354592
-0.000119106
-0.000356243
-0.000206523
-0.000419809
-2.29436e-05
-0.00034375
0.000321777
-0.000195251
0.00135299
1.67443e-05
-0.00145872
-2.16695e-05
0.000266815
-1.81773e-05
0.000252791
-7.52668e-06
0.000276335
-9.28845e-06
0.000639269
-7.98085e-05
0.000503325
-0.000695106
0.000267904
-0.000661887
0.000140075
-0.000428764
2.16743e-05
-0.000377221
-6.92519e-05
-0.000361654
-0.000117207
-0.00035649
-0.000151643
-0.000411123
-1.41883e-05
-0.000428565
0.000322485
-0.000344458
0.00119205
-3.431e-05
0.00128595
0.000153921
-0.00142313
4.95505e-05
-0.00150827
-1.37548e-05
0.000262392
-7.05654e-06
0.000268367
-5.7866e-06
0.000616229
1.37517e-05
0.000542816
-0.000119299
0.000317734
-0.000744935
0.000128412
-0.000650225
2.20013e-05
-0.000429091
-7.06554e-05
-0.000375818
-0.000125496
-0.000353365
-0.000133457
-0.000374677
-1.14103e-05
-0.000413901
0.000280781
-0.00038686
0.000962999
-0.000115407
0.00111745
0.000134187
0.00127773
0.00032344
-0.00144725
0.000140452
-0.00151403
3.5189e-05
-0.00154346
-5.66742e-06
-3.03086e-06
0.000598539
1.19035e-05
0.000514639
4.19293e-05
0.000336231
-0.000137795
9.87175e-05
-0.00071524
-1.55146e-05
-0.000612709
-8.72106e-05
-0.000412536
-0.000141887
-0.000359427
-0.000144886
-0.000341936
-3.99264e-05
-0.000346161
0.000203633
-0.000336753
0.000707885
-0.000131746
0.000880634
0.000121411
0.00105961
0.00035231
0.0013321
0.000513701
-0.00152237
0.000263212
-0.00157001
9.42758e-05
-0.00157311
1.47766e-05
-0.00155823
2.98579e-06
0.000490603
3.594e-05
0.000309372
6.87902e-05
7.58869e-05
-0.000114964
-0.000112113
-0.000618642
-0.000154081
-0.000545838
-0.000174322
-0.000380101
-0.000178654
-0.000325659
-9.34712e-05
-0.000288391
0.000100622
-0.000243149
0.000463034
-9.1902e-05
0.000611129
0.000137759
0.00081944
0.000361577
0.0011101
0.000574315
0.00139577
0.000767585
-0.00164965
0.000411698
-0.00167085
0.000172329
-0.00164806
3.70099e-05
-0.00159535
-2.09315e-05
-0.0015373
1.16272e-05
0.000287466
5.78465e-05
5.76374e-05
8.70412e-05
-0.000165135
-6.19408e-05
-0.000305865
-0.000466857
-0.000261665
-0.000458495
-0.000231407
-0.000327348
-0.000166456
-0.000252674
-1.54729e-05
-0.000172296
0.000254224
-3.43391e-05
0.000366017
0.000153211
0.000605737
0.000351462
0.00087964
0.000592037
0.00113173
0.000838353
0.00153097
0.00107163
-0.00183502
0.000600716
-0.00183867
0.000276144
-0.00177467
7.08682e-05
-0.00168192
-3.59947e-05
-0.00158028
-5.06634e-05
-0.00148664
1.95383e-05
4.65925e-05
6.88922e-05
-0.000172229
9.41369e-05
-0.000353976
-1.38291e-05
-0.000439992
-0.00028853
-0.000332997
-0.000356905
-0.00024993
-0.000243874
-0.000135213
-0.000132934
8.32931e-05
-1.36526e-06
0.000175042
0.000156636
0.000424053
0.000334895
0.000641946
0.000589157
0.000866586
0.000857179
0.00115607
0.00121325
0.00155582
0.000312039
-0.00174963
0.000310397
0.000321635
0.000321367
0.000773594
-0.0020079
0.000380695
-0.00194322
0.000112645
-0.00181644
-5.26243e-05
-0.00166529
-0.000109189
-0.00152176
-8.12922e-05
-0.00140535
2.31214e-05
-0.000172776
6.94393e-05
-0.000349224
8.93857e-05
-0.000469402
1.55822e-05
-0.00051368
-0.000107847
-0.000382807
-0.000224028
-0.000250598
-0.00012849
-6.28945e-05
1.32541e-05
2.39145e-05
0.000149762
0.000253907
0.000326782
0.00039702
0.000579821
0.000621596
0.000834147
0.000815714
0.00119754
0.00121071
0.00155836
-7.61919e-07
0.000350626
-0.000359185
0.000321359
0.000238164
-0.00187135
0.000234876
0.00021277
0.000209502
0.000351672
-0.000360044
0.000318007
-3.98733e-07
0.00031737
0.00035529
0.000318113
0.000354527
0.000401963
-0.00202917
0.000143922
-0.00197449
-7.81345e-05
-0.00179093
-0.000177495
-0.00159698
-0.000166277
-0.00143677
-0.000100012
-0.00130534
2.34503e-05
-0.000341194
6.14105e-05
-0.000459495
7.94795e-05
-0.000527972
2.98744e-05
-0.00053878
4.81263e-05
-0.000421613
-5.30125e-05
-0.000186677
-4.70665e-06
-0.0001052
0.000142369
7.89836e-05
0.000324686
0.000166663
0.000557138
0.000400255
0.000801162
0.000525195
0.00112467
0.000846094
0.00156216
-0.000269636
-0.000270411
0.000943105
0.000439341
0.000439925
0.000454939
0.000456581
-8.25914e-07
-0.000342785
0.00022259
1.70577e-06
0.000270985
-0.000240274
0.000288942
-0.00167696
0.000207579
-0.000342886
0.000216892
2.0766e-07
-0.000272717
0.000142495
-0.000274155
0.000140979
0.0002706
-0.000236081
0.000285193
1.38864e-06
0.00035525
0.000356105
9.7504e-05
-0.00198275
-0.000132924
-0.00191971
-0.000259715
-0.00170871
-0.000268063
-0.0014952
-0.000207196
-0.00132959
-0.000123394
-0.00118194
2.17794e-05
-0.000448765
5.06808e-05
-0.000518201
6.97095e-05
-0.000547353
3.84486e-05
-0.000538499
0.000165013
-0.000385387
0.000145696
-0.000221545
0.000111638
-9.16155e-05
0.000312968
-1.33441e-05
0.000504693
0.000183067
0.000774326
0.0003271
0.000999257
0.000492774
0.00147799
0.000718608
0.000433966
0.000435236
0.00045888
0.000458572
6.6661e-07
0.00013037
-0.000127452
0.000435757
0.000127561
-0.000124793
0.000437823
2.2782e-07
0.00011344
0.00047164
0.000110229
0.000474141
5.3002e-07
-0.000184168
0.000165954
6.25468e-06
9.30601e-05
-2.21736e-05
8.79587e-05
1.11115e-05
8.52583e-05
2.74723e-05
-0.00145489
-0.000124564
0.000112362
0.000105417
-0.000327097
-9.9295e-05
-8.57266e-05
-2.59546e-05
-1.89991e-05
-0.000174168
0.000155509
-4.03908e-07
7.10932e-05
7.18238e-05
9.15782e-05
-1.30655e-05
8.73238e-05
1.30329e-05
8.42824e-05
2.82963e-05
4.80825e-06
0.000108058
5.16044e-05
0.000110303
4.60844e-05
0.000109516
5.67447e-05
0.000110355
5.10835e-05
-0.000236965
-0.00187871
-0.000367432
-0.00181199
-0.000386897
-0.00158988
-0.000322202
-0.00138019
-0.000247221
-0.00120576
-0.00013858
-0.00104336
1.94858e-05
-0.00050986
4.23406e-05
-0.000538698
6.10548e-05
-0.000552586
5.25359e-05
-0.00045066
0.000230287
-0.000416604
0.000340756
-0.000248145
0.000268167
-0.000153397
0.000453021
-2.32198e-05
0.000710979
0.00016507
0.000936356
0.000156519
0.00133551
0.000481747
0.00042494
0.000423564
0.000434241
0.000432102
4.46164e-07
9.04168e-05
0.000456543
8.92194e-05
0.000456692
-9.08877e-08
8.34279e-05
0.00046596
8.30031e-05
0.000464698
1.57977e-06
4.99025e-05
-1.93353e-05
5.75909e-06
5.99986e-05
-8.14953e-06
0.000120026
7.50827e-05
0.000125762
2.51604e-05
4.79445e-05
-1.78253e-05
8.1665e-06
-9.85983e-06
5.986e-05
0.000121294
7.69993e-05
0.000127094
2.57291e-05
1.13503e-06
5.52251e-05
8.75361e-05
0.000143717
8.83412e-05
0.000145635
5.36971e-05
8.93184e-05
0.000144335
8.96446e-05
0.000146226
3.50131e-06
8.43655e-05
4.69925e-05
-2.07909e-05
5.03383e-05
-2.06265e-05
9.8041e-06
6.22347e-06
1.28427e-06
-6.23355e-06
7.68804e-05
-6.27767e-06
-3.81278e-05
5.58627e-05
-3.45753e-07
1.37995e-06
1.59567e-05
7.14481e-05
-2.24551e-05
1.80231e-05
-0.00126757
-0.000424288
9.34899e-05
-0.000146088
-0.000134375
-0.000139382
-0.000125305
9.47088e-07
-0.000181294
0.000249776
-0.000168724
-0.000175989
0.000240024
-0.000148814
1.03965e-06
-0.000128052
-8.02358e-05
-0.000131822
-6.21271e-05
9.01271e-05
4.4368e-05
-1.69231e-05
4.87016e-05
-2.03292e-05
8.07482e-08
3.66895e-05
-2.39411e-05
3.97592e-05
-2.51814e-05
3.63526e-05
-2.11562e-05
3.93644e-05
-2.43507e-05
1.34161e-05
6.45223e-06
-8.86404e-06
7.76036e-05
-6.6722e-06
-3.76868e-05
5.54767e-05
1.9152e-06
2.0649e-05
7.17572e-05
-2.31054e-05
2.01672e-05
-3.11123e-06
9.74773e-06
6.59418e-07
9.45289e-05
-1.16287e-05
1.00554e-06
4.28922e-05
3.15455e-07
0.000101009
3.43825e-05
-5.01192e-06
9.89679e-06
9.64266e-05
-1.15593e-05
2.85336e-06
4.76253e-05
0.000102265
4.07281e-05
-0.000505909
-0.00174023
-0.00051718
-0.00168171
-0.000463948
-0.00144813
-0.000377888
-0.00124953
-0.000283724
-0.00106062
-0.000155026
-0.000888337
1.66444e-05
-0.000535278
3.8921e-05
-0.000546659
5.51278e-05
-0.000452029
5.39049e-05
-0.000471084
0.000284766
-0.000476068
0.000568679
-0.000301674
0.000416445
-0.000198042
0.000627844
-3.75682e-05
0.000913618
-6.95081e-05
0.00116238
0.000199153
0.000399571
0.000399625
0.000410605
0.000408305
-2.52556e-07
6.35953e-05
0.000445025
6.37278e-05
0.000442586
-1.19876e-07
5.37256e-05
0.000444231
5.41385e-05
0.000441572
2.16235e-06
4.24502e-05
8.78043e-05
0.00014185
9.43589e-05
0.000143176
4.1488e-05
8.93122e-05
0.000141907
9.70111e-05
0.000142842
1.67578e-06
3.09174e-05
9.33544e-05
0.00014311
9.52365e-05
0.000144109
2.99366e-05
9.54067e-05
0.000142266
9.72612e-05
0.000142971
-1.10907e-06
-2.37539e-05
3.02567e-05
5.46048e-05
-8.58679e-06
1.46349e-05
2.86945e-05
-1.30438e-05
-1.19571e-07
0.000114568
1.74797e-05
-3.42686e-06
-2.09869e-05
7.57425e-05
-1.31877e-07
-1.01328e-05
0.00011954
4.17374e-07
2.10755e-05
9.61071e-05
-7.13079e-06
1.34969e-05
3.13993e-05
2.94152e-09
-2.32019e-05
2.75523e-05
5.55066e-05
-1.30955e-05
1.8064e-05
0.000116209
-3.47853e-06
-2.0406e-05
7.76819e-05
-1.03272e-05
0.000120715
2.39996e-05
9.72812e-05
-5.19528e-06
1.7673e-05
-1.32814e-05
8.83398e-05
7.76738e-06
6.08858e-08
-7.0104e-06
0.000137704
-3.99033e-06
8.90175e-05
-1.46634e-07
0.000139395
-5.16782e-06
1.73582e-05
-1.30084e-05
9.01365e-05
8.1233e-06
-7.14334e-06
0.000138248
-3.88893e-06
9.04857e-05
0.000139987
-1.52619e-05
7.35623e-06
6.09133e-07
2.01111e-05
3.4178e-05
-5.98576e-06
5.79167e-05
-1.68591e-05
9.07679e-07
4.41398e-05
6.42358e-05
-1.95894e-05
1.61456e-05
9.22606e-06
5.60686e-07
-1.80885e-05
6.90364e-05
-9.60119e-06
-5.21925e-05
5.78834e-05
3.56449e-06
6.32348e-07
1.95197e-05
5.78578e-05
-3.72521e-05
1.23087e-05
-0.00111831
-0.000655165
0.000345805
-0.000179399
-0.000170183
-0.00016906
-0.000157961
1.70309e-06
-0.000301774
0.000333448
-0.000179466
-0.000295912
0.000333722
-0.000170482
1.37591e-06
-0.000192757
-0.000179817
3.85875e-06
-0.000289243
0.00035499
-7.71252e-05
-4.55858e-05
-7.35659e-05
-4.20193e-05
-0.000282095
0.000356801
-7.28563e-05
-4.17781e-05
-6.7934e-05
-3.70933e-05
3.22571e-06
-8.9681e-05
-1.74692e-05
-3.84071e-05
-9.18861e-05
-2.15582e-05
-5.80688e-05
-2.94344e-05
-2.6186e-05
-9.0061e-05
-1.83493e-05
-3.1151e-05
-8.90182e-05
-1.42389e-05
-5.10803e-05
-2.32999e-05
-2.37974e-05
-1.96248e-05
7.65117e-06
2.2905e-05
3.4046e-05
-6.07768e-06
5.86173e-05
-1.39861e-05
4.45557e-05
6.45619e-05
-1.86227e-05
1.67889e-05
1.40676e-05
1.63115e-07
2.5781e-05
-2.13568e-05
-7.18472e-05
-2.04181e-05
3.30436e-07
1.74075e-05
-1.87253e-05
1.92831e-05
1.40954e-05
2.60423e-05
-2.02242e-05
-7.2134e-05
-1.88591e-05
2.04045e-05
-1.78274e-05
2.12304e-05
9.20794e-06
-2.31426e-05
7.08687e-05
-8.96546e-06
-5.24961e-05
5.77121e-05
5.66466e-06
2.42038e-05
6.04505e-05
-3.74139e-05
1.4293e-05
1.05622e-05
5.56192e-07
8.63784e-05
2.23276e-05
9.63249e-06
8.82073e-05
2.64434e-05
-0.000646448
-0.00161096
-0.000640344
-0.00150531
-0.000523011
-0.00130301
-0.000438658
-0.00109459
-0.000312801
-0.000902842
-0.000162931
-0.000725406
1.31999e-05
-0.000543286
3.55476e-05
-0.000447141
5.0239e-05
-0.000479768
6.25883e-05
-0.000489533
0.00029823
-0.000546676
0.000813681
-0.000369196
0.000587598
-0.000252286
0.000842561
-0.000218176
0.00106229
-8.0782e-05
0.000354539
0.000353399
0.000366424
0.000367957
2.73118e-07
3.39798e-05
0.000419043
3.56925e-05
0.000418344
-2.01338e-08
1.28831e-05
0.000431722
1.47152e-05
0.000429262
1.45902e-06
2.32153e-05
8.62723e-05
0.000136615
9.16037e-05
0.000136742
2.12374e-05
8.80407e-05
0.000136074
9.26049e-05
0.000136032
1.33939e-06
5.47339e-06
9.80623e-05
0.000134307
9.4069e-05
0.000134223
1.29236e-06
0.000100133
0.000133602
9.55891e-05
0.000133557
-5.29909e-06
-1.02007e-05
9.00227e-05
-6.79377e-06
9.08669e-08
0.000136228
-4.98923e-06
-7.47442e-06
9.66169e-05
2.44844e-08
-3.2579e-06
0.000134593
-5.48874e-06
-9.83517e-06
9.16277e-05
-6.91689e-06
0.000136283
-5.10758e-06
-7.47984e-06
9.97633e-05
-3.448e-06
0.0001343
-5.58975e-06
7.2452e-06
-6.73118e-06
9.84344e-05
3.59526e-06
3.6442e-08
-5.18359e-06
0.000139052
-5.89156e-06
0.000100904
5.31441e-09
0.000138567
-5.85138e-06
8.06522e-06
-7.86471e-06
0.000101058
4.11062e-06
-5.82723e-06
0.000138159
-5.96792e-06
0.000103814
0.000137661
-5.76521e-06
2.90572e-05
-6.85933e-07
-2.29002e-05
-2.47111e-05
4.41403e-09
2.96842e-07
2.03645e-05
2.58075e-07
-1.77438e-05
-6.61632e-08
-1.24455e-05
-4.81068e-06
2.63948e-05
-6.85008e-07
-2.2901e-05
2.229e-05
-2.49948e-05
3.21992e-07
-1.69661e-05
-1.25015e-05
3.92187e-08
1.55778e-05
-1.32944e-05
8.25092e-06
-8.15166e-08
-6.67848e-06
6.71406e-07
-1.19181e-07
1.69483e-07
1.50237e-05
-1.26705e-05
8.3523e-06
-6.70881e-06
8.24128e-07
-2.03862e-05
1.17644e-05
5.00073e-07
2.19423e-05
2.03442e-05
-9.9659e-06
5.94502e-05
-8.46007e-06
8.32205e-07
3.24598e-05
6.14309e-05
-9.80588e-06
1.50328e-05
7.07405e-06
3.27288e-07
-1.70566e-05
-6.52436e-06
-3.57616e-05
3.86851e-05
2.63288e-07
1.85721e-05
-3.18864e-05
-0.00103574
-0.000729025
0.000398991
-0.000178916
-0.000173425
-0.000182941
-0.000173069
2.84032e-06
-0.000340944
0.000344966
-0.000186262
-0.000348835
0.000356269
-0.000174776
3.16451e-06
-0.00017972
-0.000169909
1.04625e-06
-0.000394872
0.00040873
-6.96146e-05
-2.25364e-05
-7.05704e-05
-3.16233e-05
-0.000406684
0.000425166
-6.66481e-05
-2.26864e-05
-6.7278e-05
-3.1325e-05
2.45789e-06
-7.71166e-05
-4.51084e-05
-7.35132e-05
-3.93257e-05
-7.41378e-05
-4.42672e-05
-7.01775e-05
-3.86501e-05
-2.94663e-05
-0.00010268
0.000106659
-5.16379e-05
-9.28698e-05
3.34859e-07
9.58321e-05
-7.83988e-05
-2.8042e-05
-9.74206e-05
-5.07832e-05
3.40527e-07
-8.8643e-05
-7.46286e-05
-3.02457e-05
-0.000102733
0.000109
-4.88772e-05
-9.74573e-05
0.000102718
-7.69494e-05
-2.83952e-05
-9.52459e-05
-4.70263e-05
-9.17052e-05
-7.09002e-05
-2.13885e-05
8.98687e-05
-8.94728e-05
-1.74145e-05
-2.80377e-05
-7.25237e-05
-1.17428e-05
8.23421e-05
1.44973e-06
-4.52852e-05
-8.14892e-05
-2.57091e-05
-3.99116e-05
9.99278e-07
-6.24437e-05
7.31233e-07
-2.44749e-05
-1.30546e-05
-2.09956e-05
8.59704e-05
-8.48198e-05
-1.13061e-05
-2.73993e-05
-7.19445e-05
-8.53353e-06
8.28244e-05
-3.77278e-05
-7.88814e-05
-2.54716e-05
-3.48843e-05