/*--------------------------------*- C++ -*----------------------------------*\
| =========                 |                                                 |
| \\      /  F ield         | OpenFOAM: The Open Source CFD Toolbox           |
|  \\    /   O peration     | Version:  5.x                                   |
|   \\  /    A nd           | Web:      www.OpenFOAM.org                      |
|    \\/     M anipulation  |                                                 |
\*---------------------------------------------------------------------------*/
FoamFile
{
    version     2.0;
    format      ascii;
    class       volScalarField;
    location    "0.9";
    object      rAU;
}
// * * * * * * * * * * * * * * * * * * * * * * * * * * * * * * * * * * * * * //

dimensions      [-1 3 1 0 0 0 0];

internalField   nonuniform List<scalar> 
12160
(
1.33763e-06
1.33759e-06
1.33763e-06
1.33756e-06
1.33758e-06
1.33763e-06
1.33755e-06
1.33754e-06
1.33757e-06
1.33762e-06
1.33753e-06
1.33755e-06
1.33752e-06
1.33758e-06
1.33758e-06
1.3375e-06
1.33753e-06
1.33815e-06
1.33755e-06
1.33758e-06
1.33812e-06
1.33869e-06
1.33748e-06
1.33814e-06
1.33873e-06
1.33755e-06
1.33884e-06
1.33734e-06
1.33992e-06
1.33867e-06
1.33743e-06
1.33869e-06
1.33876e-06
1.33823e-06
1.33866e-06
1.33816e-06
1.33992e-06
1.33992e-06
1.33866e-06
1.33786e-06
1.33863e-06
1.33878e-06
1.33873e-06
1.34029e-06
1.98561e-06
1.33991e-06
1.33992e-06
1.33992e-06
1.33901e-06
1.33799e-06
1.33926e-06
1.33872e-06
1.3437e-06
2.02966e-06
4.23259e-05
1.33991e-06
1.33991e-06
1.33992e-06
1.33985e-06
1.339e-06
1.33928e-06
1.33915e-06
1.34464e-06
2.1138e-06
3.80606e-05
0.000947282
1.33991e-06
1.33991e-06
1.33991e-06
1.33991e-06
1.33985e-06
1.33952e-06
1.33941e-06
1.34337e-06
2.06721e-06
3.13659e-05
0.0012839
0.001337
1.33991e-06
1.33991e-06
1.33991e-06
1.33991e-06
1.33991e-06
1.33968e-06
1.33961e-06
1.34045e-06
1.97569e-06
2.30998e-05
0.00117305
0.00133671
0.00133862
1.33985e-06
1.33991e-06
1.33991e-06
1.33991e-06
1.33991e-06
1.33963e-06
1.33968e-06
1.33963e-06
1.90939e-06
1.57418e-05
0.000982421
0.00133728
0.00133728
0.00133878
1.33981e-06
1.33985e-06
1.33991e-06
1.33991e-06
1.33991e-06
1.33959e-06
1.33963e-06
1.33954e-06
1.89392e-06
1.15629e-05
0.00067018
0.00133707
0.00133787
0.00133713
0.00133926
1.33981e-06
1.33981e-06
1.33991e-06
1.33991e-06
1.33991e-06
1.33957e-06
1.33959e-06
1.3393e-06
1.94451e-06
1.01701e-05
0.000412043
0.00133447
0.00133926
0.00133826
0.00133398
1.33982e-06
1.33981e-06
1.33991e-06
1.33991e-06
1.33991e-06
1.33955e-06
1.33957e-06
1.33907e-06
2.0767e-06
1.05456e-05
0.000280401
0.00132945
0.00133613
0.00133971
0.00133536
1.33983e-06
1.33982e-06
1.3399e-06
1.33991e-06
1.33991e-06
1.33955e-06
1.33955e-06
1.3389e-06
2.29639e-06
1.27071e-05
0.000259674
0.00132249
0.00133758
0.00133714
0.00133317
1.33984e-06
1.33983e-06
1.3399e-06
1.3399e-06
1.3399e-06
1.33955e-06
1.33868e-06
1.33884e-06
2.61188e-06
1.73347e-05
0.000323502
0.0013179
0.00133908
0.00133924
0.00133197
1.33987e-06
1.33984e-06
1.3399e-06
1.3399e-06
1.3399e-06
1.33956e-06
1.33875e-06
1.33802e-06
3.03614e-06
2.55828e-05
0.000511582
0.00132413
0.00133961
0.00133988
0.00133396
1.33989e-06
1.33987e-06
1.3399e-06
1.3399e-06
1.3399e-06
1.33957e-06
1.33884e-06
1.33818e-06
3.59066e-06
3.99468e-05
0.000795198
0.00133356
0.00133867
0.00133961
0.00133709
1.3399e-06
1.33989e-06
1.3399e-06
1.3399e-06
1.3399e-06
1.3396e-06
1.33894e-06
1.33836e-06
4.30348e-06
6.51215e-05
0.00105863
0.00133801
0.00133809
0.00133853
0.00133964
1.3399e-06
1.3399e-06
1.3399e-06
1.3399e-06
1.3399e-06
1.33962e-06
1.33905e-06
1.33855e-06
5.20878e-06
0.000109094
0.00122198
0.00133943
0.00133986
0.00133808
0.00133867
1.3399e-06
1.3399e-06
1.3399e-06
1.3399e-06
1.3399e-06
1.33965e-06
1.33914e-06
1.33872e-06
6.34505e-06
0.000183488
0.0012967
0.00133985
0.00133988
0.00133985
0.00133826
1.3399e-06
1.3399e-06
1.3399e-06
1.3399e-06
1.3399e-06
1.33967e-06
1.33923e-06
1.33888e-06
7.75022e-06
0.000300616
0.00132489
0.00133988
0.00133988
0.00133988
0.00133803
1.33989e-06
1.3399e-06
1.3399e-06
1.3399e-06
1.3399e-06
1.33968e-06
1.3393e-06
1.33901e-06
9.45282e-06
0.000463122
0.00133443
0.00133988
0.00133988
0.00133988
0.001338
1.33989e-06
1.33989e-06
1.3399e-06
1.3399e-06
1.3399e-06
1.3397e-06
1.33936e-06
1.33912e-06
1.14547e-05
0.000651497
0.00133751
0.00133988
0.00133988
0.00133988
0.00133809
1.33988e-06
1.33989e-06
1.33989e-06
1.3399e-06
1.3399e-06
1.3397e-06
1.3394e-06
1.33921e-06
1.37065e-05
0.000826261
0.00133853
0.00133988
0.00133988
0.00133988
0.00133826
1.33986e-06
1.33988e-06
1.33989e-06
1.33989e-06
1.3399e-06
1.33971e-06
1.33942e-06
1.33927e-06
1.60707e-05
0.000964756
0.00133916
0.00133988
0.00133988
0.00133988
0.00133841
1.33983e-06
1.33986e-06
1.33989e-06
1.33989e-06
1.33989e-06
1.33971e-06
1.33943e-06
1.33931e-06
1.83006e-05
0.00105726
0.00133982
0.00133988
0.00133988
0.00133988
0.00133856
1.33982e-06
1.33983e-06
1.33989e-06
1.33989e-06
1.33989e-06
1.3397e-06
1.33943e-06
1.33932e-06
2.006e-05
0.0011124
0.00133985
0.00133988
0.00133988
0.00133988
0.00133871
1.33981e-06
1.33982e-06
1.33989e-06
1.33989e-06
1.33989e-06
1.33969e-06
1.33941e-06
1.33932e-06
2.10171e-05
0.00114169
0.0013392
0.00133915
0.00133988
0.00133988
0.00133884
1.3398e-06
1.33981e-06
1.33989e-06
1.33989e-06
1.33989e-06
1.33968e-06
1.33938e-06
1.33929e-06
2.09891e-05
0.00115367
0.00133898
0.00133853
0.00133849
0.00133988
0.00133896
1.33979e-06
1.3398e-06
1.33989e-06
1.33989e-06
1.33989e-06
1.33966e-06
1.33934e-06
1.33925e-06
2.0022e-05
0.0011531
0.00133857
0.00133855
0.00133848
0.00133922
0.00133905
1.33978e-06
1.33979e-06
1.33989e-06
1.33989e-06
1.33989e-06
1.33964e-06
1.33928e-06
1.33918e-06
1.83598e-05
0.00113834
0.00133856
0.00133855
0.00133852
0.00133902
0.00133912
1.33976e-06
1.33978e-06
1.33988e-06
1.33989e-06
1.33989e-06
1.33962e-06
1.33922e-06
1.3391e-06
1.63288e-05
0.00110987
0.00133854
0.00133854
0.00133853
0.0013385
0.00133901
1.33979e-06
1.33976e-06
1.33988e-06
1.33988e-06
1.33989e-06
1.33959e-06
1.33914e-06
1.339e-06
1.42156e-05
0.00106056
0.00133917
0.00133852
0.00133851
0.00133851
0.00133849
1.33983e-06
1.33979e-06
1.33988e-06
1.33988e-06
1.33988e-06
1.33957e-06
1.33906e-06
1.33888e-06
1.22128e-05
0.000984174
0.00133977
0.00133848
0.00133849
0.0013385
0.0013385
1.33987e-06
1.33983e-06
1.33988e-06
1.33988e-06
1.33988e-06
1.33954e-06
1.33897e-06
1.33875e-06
1.04207e-05
0.000875833
0.00133983
0.00133904
0.00133844
0.00133847
0.00133849
1.34048e-06
1.33987e-06
1.33987e-06
1.33988e-06
1.33988e-06
1.33953e-06
1.33887e-06
1.33861e-06
8.87221e-06
0.000741722
0.00133934
0.00133945
0.00133835
0.001339
0.00133846
1.34048e-06
1.34013e-06
1.33987e-06
1.33988e-06
1.33988e-06
1.33951e-06
1.33878e-06
1.33845e-06
7.56365e-06
0.00058899
0.00133872
0.00133988
0.00133945
0.0013391
0.00133899
1.34048e-06
1.34013e-06
1.33979e-06
1.33987e-06
1.33988e-06
1.3395e-06
1.3387e-06
1.33829e-06
6.47228e-06
0.000441041
0.00133826
0.00133988
0.00133988
0.00133988
0.00133909
1.34048e-06
1.34013e-06
1.33982e-06
1.33867e-06
1.33987e-06
1.3395e-06
1.33862e-06
1.33813e-06
5.5689e-06
0.0003152
0.00133724
0.00133988
0.00133988
0.00133988
0.00133903
1.34048e-06
1.34013e-06
1.33982e-06
1.33981e-06
1.33861e-06
1.3395e-06
1.33855e-06
1.33798e-06
4.82417e-06
0.000218767
0.00133489
0.00133987
0.00133988
0.00133988
0.00133895
1.34011e-06
1.34013e-06
1.33982e-06
1.33981e-06
1.3398e-06
1.33978e-06
1.3385e-06
1.33784e-06
4.21153e-06
0.000150053
0.00132946
0.00133987
0.00133988
0.00133988
0.00133885
1.34011e-06
1.33977e-06
1.33982e-06
1.3398e-06
1.3398e-06
1.33901e-06
1.33862e-06
1.33771e-06
3.70773e-06
0.00010318
0.00131734
0.00133987
0.00133988
0.00133988
0.00133873
1.33926e-06
1.33977e-06
1.33951e-06
1.3398e-06
1.33977e-06
1.33972e-06
1.33742e-06
1.33812e-06
3.29225e-06
7.18607e-05
0.00129178
0.00133987
0.00133988
0.00133988
0.00133861
2.95194e-06
1.33894e-06
1.3395e-06
1.33956e-06
1.33977e-06
1.33977e-06
1.33859e-06
1.33711e-06
1.33775e-06
5.10255e-05
0.00124172
0.00133986
0.00133987
0.00133988
0.00133849
3.70716e-05
2.52304e-06
1.33887e-06
1.33956e-06
1.33966e-06
1.33977e-06
1.33921e-06
1.33682e-06
1.33779e-06
1.33723e-06
0.00115196
0.00133984
0.00133987
0.00133988
0.00133835
0.00101341
2.32798e-05
2.10809e-06
1.33918e-06
1.33966e-06
1.33977e-06
1.33922e-06
1.33677e-06
1.33756e-06
1.33933e-06
1.33565e-06
0.00133937
0.00133987
0.00133988
0.00133822
0.00133873
0.00074261
1.37274e-05
1.8643e-06
1.33944e-06
1.33975e-06
1.33924e-06
1.33649e-06
1.33603e-06
1.33959e-06
1.33603e-06
1.33196e-06
0.00133978
0.00133988
0.00133808
0.00133981
0.00133734
0.000385237
9.48755e-06
1.73077e-06
1.33968e-06
1.33921e-06
1.33656e-06
1.33654e-06
1.33946e-06
1.33486e-06
1.33782e-06
1.33976e-06
1.32689e-06
0.00133981
0.00133796
0.00133983
0.0013399
0.00132853
0.000211449
7.59325e-06
1.66704e-06
1.34029e-06
1.33643e-06
1.3369e-06
1.33961e-06
1.3336e-06
1.33683e-06
1.3399e-06
1.3399e-06
1.33946e-06
1.32173e-06
0.00133781
0.00133775
0.00133989
0.0013379
0.00130652
0.000154132
6.96262e-06
1.64256e-06
1.34154e-06
1.33607e-06
1.33972e-06
1.33632e-06
1.33655e-06
1.3399e-06
1.3399e-06
1.3399e-06
1.3399e-06
1.3399e-06
1.32758e-06
0.00133783
0.00133742
0.00133857
0.00128794
0.000151423
7.1411e-06
1.64069e-06
1.3416e-06
1.3393e-06
1.33897e-06
1.33736e-06
1.3399e-06
1.3399e-06
1.33989e-06
1.33989e-06
1.3399e-06
1.3399e-06
1.33988e-06
1.3399e-06
0.00133756
0.00133806
0.00133962
0.00129558
0.00018973
8.13957e-06
1.65045e-06
1.34312e-06
1.33962e-06
1.33914e-06
1.33971e-06
1.3399e-06
1.33989e-06
1.33988e-06
1.33986e-06
1.33989e-06
1.3399e-06
1.33988e-06
1.3399e-06
1.33991e-06
0.00133821
0.00133955
0.00133914
0.00131077
0.000274061
9.63338e-06
1.6654e-06
1.343e-06
1.3397e-06
1.33983e-06
1.3399e-06
1.3399e-06
1.33988e-06
1.33986e-06
1.33684e-06
1.33922e-06
1.33989e-06
1.3399e-06
1.3399e-06
1.3399e-06
1.3399e-06
0.00133961
0.00133991
0.00133812
0.00132235
0.000401907
1.1284e-05
1.68481e-06
1.34161e-06
1.3399e-06
1.3399e-06
1.3399e-06
1.33989e-06
1.33867e-06
1.33974e-06
1.31683e-06
1.33538e-06
1.31598e-06
1.3395e-06
1.33947e-06
1.33633e-06
1.33989e-06
1.33919e-06
1.3399e-06
1.3399e-06
1.3399e-06
0.00133641
0.00133991
0.00133733
0.00132817
0.000553706
1.34126e-05
1.68845e-06
1.34519e-06
1.33954e-06
1.3399e-06
1.33989e-06
1.33817e-06
1.3386e-06
1.3407e-06
1.33845e-06
1.33464e-06
1.33509e-06
1.33555e-06
1.32492e-06
1.32559e-06
1.33532e-06
1.32793e-06
1.32852e-06
1.33903e-06
1.33919e-06
1.33933e-06
1.3399e-06
1.3399e-06
1.3399e-06
0.00133246
0.00133991
0.00133559
0.00133049
0.000720108
1.55633e-05
1.80721e-06
1.34576e-06
1.3395e-06
1.33989e-06
1.33988e-06
1.33814e-06
1.34168e-06
1.34737e-06
1.34624e-06
1.349e-06
1.34796e-06
1.33855e-06
1.33841e-06
1.33905e-06
1.33707e-06
1.33829e-06
1.33567e-06
1.33575e-06
1.3393e-06
1.33628e-06
1.33933e-06
1.33989e-06
1.33933e-06
1.3399e-06
1.3399e-06
1.3399e-06
1.3399e-06
0.00132932
0.00133871
0.0013341
0.0013314
0.000877904
2.06452e-05
1.89841e-06
1.35489e-06
1.33983e-06
1.3398e-06
1.33986e-06
1.34205e-06
1.33408e-06
1.33042e-06
1.33556e-06
1.33424e-06
1.3471e-06
1.34701e-06
1.34761e-06
1.34784e-06
1.3297e-06
1.30095e-06
1.33399e-06
1.30136e-06
1.33466e-06
1.33835e-06
1.33515e-06
1.33063e-06
1.3344e-06
1.33805e-06
1.33875e-06
1.33058e-06
1.33159e-06
1.33188e-06
1.31226e-06
1.33456e-06
1.30112e-06
1.33548e-06
1.32996e-06
1.33162e-06
1.33188e-06
1.34215e-06
1.33596e-06
1.33972e-06
1.33311e-06
1.34217e-06
1.33989e-06
1.33989e-06
1.3399e-06
1.3399e-06
1.3399e-06
1.3399e-06
0.00132692
0.0013376
0.00133276
0.00133135
0.00100873
2.84697e-05
2.15757e-06
1.37328e-06
1.33943e-06
1.33675e-06
1.34429e-06
1.32894e-06
1.32911e-06
1.34044e-06
1.34205e-06
1.3466e-06
1.3468e-06
1.35009e-06
1.35016e-06
1.32095e-06
1.32357e-06
1.2933e-06
1.33427e-06
1.39044e-06
1.31858e-06
1.31821e-06
1.32097e-06
1.29307e-06
1.32823e-06
1.39076e-06
1.31741e-06
1.36431e-06
1.38072e-06
1.35742e-06
1.38442e-06
1.36634e-06
1.38065e-06
1.3602e-06
1.38435e-06
1.28653e-06
1.31749e-06
1.2842e-06
1.28499e-06
1.30472e-06
1.33309e-06
1.29861e-06
1.33693e-06
1.33834e-06
1.33398e-06
1.31783e-06
1.32384e-06
1.3218e-06
1.3262e-06
1.31915e-06
1.3232e-06
1.31925e-06
1.32011e-06
1.28658e-06
1.32086e-06
1.28344e-06
1.28548e-06
1.28405e-06
1.24738e-06
1.28708e-06
1.26295e-06
1.28168e-06
1.2497e-06
1.28529e-06
1.26246e-06
1.31665e-06
1.33226e-06
1.30061e-06
1.33717e-06
1.32897e-06
1.32959e-06
1.32969e-06
1.32937e-06
1.33989e-06
1.33989e-06
1.3399e-06
1.3399e-06
1.3399e-06
1.3399e-06
0.00132519
0.00133656
0.00133389
0.00133104
0.00115039
4.44628e-05
2.57059e-06
1.40582e-06
1.3409e-06
1.33983e-06
1.34054e-06
1.34084e-06
1.34571e-06
1.34541e-06
1.34822e-06
1.34841e-06
1.34784e-06
1.34835e-06
1.36283e-06
1.38344e-06
1.35721e-06
1.37963e-06
1.36349e-06
1.38325e-06
1.35833e-06
1.37938e-06
1.34859e-06
1.36347e-06
1.3522e-06
1.36954e-06
1.34798e-06
1.36289e-06
1.35253e-06
1.36936e-06
1.33984e-06
1.0763e-06
9.54881e-07
1.35209e-06
1.26461e-06
1.35654e-06
1.32973e-06
1.06877e-06
1.35158e-06
9.51155e-07
1.24294e-06
1.35683e-06
1.35532e-06
1.3474e-06
1.33501e-06
1.33631e-06
1.35652e-06
1.34411e-06
1.33247e-06
1.33586e-06
1.31093e-06
1.32146e-06
1.30405e-06
1.31569e-06
1.34933e-06
1.32495e-06
1.34192e-06
1.32887e-06
1.3377e-06
1.33018e-06
1.29217e-06
1.29279e-06
1.31608e-06
1.31748e-06
1.31544e-06
1.3209e-06
1.31554e-06
1.31939e-06
1.21674e-06
1.21936e-06
1.27074e-06
1.23043e-06
1.24095e-06
1.27478e-06
1.26891e-06
1.27908e-06
1.30106e-06
1.28162e-06
1.26616e-06
1.27918e-06
1.29722e-06
1.29281e-06
1.29111e-06
1.26962e-06
1.30528e-06
1.27827e-06
1.30039e-06
1.2912e-06
1.3137e-06
1.32373e-06
1.30304e-06
1.32064e-06
1.30421e-06
1.296e-06
1.30586e-06
1.30357e-06
1.34817e-06
1.32093e-06
1.34262e-06
1.33793e-06
1.3493e-06
1.34006e-06
1.34793e-06
1.33583e-06
1.33989e-06
1.3399e-06
1.3399e-06
1.3399e-06
1.3399e-06
1.3399e-06
0.00132381
0.00133745
0.001334
0.00133497
0.00124884
7.70797e-05
3.36518e-06
1.50416e-06
1.34566e-06
1.34691e-06
1.34675e-06
1.34425e-06
1.34423e-06
1.33807e-06
1.33741e-06
1.33657e-06
1.33656e-06
1.34869e-06
1.35886e-06
1.33912e-06
1.35781e-06
1.34912e-06
1.358e-06
1.34487e-06
1.35758e-06
1.34628e-06
1.35658e-06
1.34137e-06
1.35488e-06
1.34636e-06
1.35582e-06
1.34228e-06
1.35422e-06
1.35671e-06
1.35317e-06
1.35834e-06
1.34803e-06
1.35711e-06
1.34813e-06
1.36007e-06
1.34609e-06
1.35582e-06
1.37413e-06
1.36845e-06
1.39639e-06
1.3599e-06
1.37482e-06
1.37417e-06
1.39549e-06
1.32649e-06
1.32111e-06
1.32569e-06
1.31185e-06
1.33082e-06
1.32863e-06
1.30817e-06
1.30434e-06
1.28407e-06
1.27811e-06
1.26715e-06
1.26564e-06
1.28856e-06
1.28822e-06
1.27153e-06
1.28963e-06
1.26775e-06
1.28439e-06
1.27884e-06
1.28487e-06
1.27561e-06
1.28453e-06
1.19668e-06
1.26472e-06
1.25176e-06
1.27627e-06
1.23978e-06
1.22217e-06
1.2745e-06
1.22636e-06
1.30351e-06
1.25848e-06
1.29863e-06
1.27432e-06
1.3051e-06
1.26683e-06
1.30107e-06
1.2797e-06
1.29829e-06
1.2611e-06
1.35534e-06
1.25665e-06
1.23958e-06
1.29023e-06
1.29814e-06
1.32196e-06
1.36395e-06
1.3093e-06
1.20869e-06
1.29152e-06
1.32891e-06
1.32244e-06
1.32058e-06
1.31851e-06
1.32299e-06
1.30953e-06
1.31698e-06
1.30583e-06
1.33989e-06
1.3399e-06
1.3399e-06
1.3399e-06
1.3399e-06
1.3399e-06
0.00132249
0.00133666
0.00133981
0.00133001
0.00130062
0.000158507
5.70958e-06
1.71622e-06
1.35928e-06
1.33246e-06
1.33243e-06
1.33465e-06
1.33457e-06
1.34723e-06
1.34724e-06
1.34229e-06
1.34235e-06
1.34773e-06
1.36686e-06
1.33517e-06
1.35799e-06
1.34932e-06
1.36636e-06
1.34017e-06
1.35787e-06
1.30019e-06
1.33455e-06
1.33082e-06
1.33612e-06
1.29757e-06
1.33407e-06
1.33063e-06
1.33556e-06
1.24398e-06
1.19262e-06
1.24339e-06
1.20162e-06
1.33128e-06
1.3323e-06
1.30922e-06
1.29582e-06
1.30617e-06
1.30273e-06
1.32259e-06
1.3297e-06
1.29392e-06
1.2927e-06
1.18915e-06
1.25463e-06
1.19459e-06
1.26381e-06
1.18686e-06
1.24922e-06
1.19186e-06
1.26183e-06
1.26034e-06
1.29398e-06
1.21059e-06
1.28558e-06
1.2582e-06
1.28915e-06
1.20488e-06
1.28624e-06
1.31843e-06
1.27332e-06
1.30196e-06
1.24389e-06
1.30972e-06
1.26482e-06
1.28433e-06
1.20788e-06
1.30461e-06
1.25549e-06
1.3054e-06
1.25937e-06
1.3066e-06
1.26325e-06
1.28808e-06
1.2258e-06
1.33989e-06
1.3399e-06
1.3399e-06
1.3399e-06
1.3399e-06
1.3399e-06
0.00132049
0.00133758
0.00133339
0.00132988
0.00132281
0.00037215
1.36623e-05
2.16463e-06
1.35436e-06
1.35436e-06
1.53293e-06
1.53236e-06
1.34563e-06
1.34575e-06
1.3318e-06
1.33198e-06
1.36625e-06
1.35234e-06
1.36657e-06
1.33845e-06
1.36606e-06
1.35757e-06
1.36613e-06
1.34552e-06
1.36335e-06
1.32328e-06
1.35659e-06
1.32616e-06
1.3633e-06
1.32301e-06
1.35721e-06
1.32565e-06
1.33341e-06
1.32085e-06
1.34543e-06
1.34524e-06
1.33499e-06
1.322e-06
1.34401e-06
1.34764e-06
1.2937e-06
1.24254e-06
1.36514e-06
1.38778e-06
1.28822e-06
1.24249e-06
1.36582e-06
1.38722e-06
1.33798e-06
1.33817e-06
1.32449e-06
1.30298e-06
1.30259e-06
1.31659e-06
1.32094e-06
1.29892e-06
1.29669e-06
1.27547e-06
1.27096e-06
1.21827e-06
1.22895e-06
1.23281e-06
1.24267e-06
1.21412e-06
1.23085e-06
1.22678e-06
1.24757e-06
1.31699e-06
1.29574e-06
1.26485e-06
1.27646e-06
1.31317e-06
1.29528e-06
1.26278e-06
1.28382e-06
1.29484e-06
1.32143e-06
1.3053e-06
1.32328e-06
1.33989e-06
1.3399e-06
1.3399e-06
1.3399e-06
1.3399e-06
1.3399e-06
0.00131932
0.0013337
0.00133052
0.001329
0.00132767
0.000740115
4.08641e-05
4.05613e-06
1.31388e-06
1.31355e-06
1.73191e-06
1.72942e-06
1.30753e-06
1.34449e-06
1.35339e-06
1.34395e-06
1.31244e-06
1.34427e-06
1.35294e-06
1.34372e-06
1.34071e-06
1.34142e-06
1.3482e-06
1.3153e-06
1.30029e-06
1.36851e-06
1.3432e-06
1.32237e-06
1.29323e-06
1.38486e-06
1.38393e-06
1.33762e-06
1.35692e-06
1.36951e-06
1.38352e-06
1.31753e-06
1.35677e-06
1.35527e-06
1.13244e-06
9.03327e-07
1.11001e-06
9.08227e-07
1.33989e-06
1.33731e-06
1.33299e-06
1.31854e-06
1.31362e-06
1.32065e-06
1.32045e-06
1.32218e-06
1.32058e-06
1.3073e-06
1.30924e-06
1.30813e-06
1.22427e-06
1.31121e-06
1.27221e-06
1.30871e-06
1.22333e-06
1.31277e-06
1.27492e-06
1.30438e-06
1.25422e-06
1.29316e-06
1.28095e-06
1.30609e-06
1.25876e-06
1.30037e-06
1.28608e-06
1.28373e-06
1.26964e-06
1.27596e-06
1.25279e-06
1.2858e-06
1.27112e-06
1.28594e-06
1.25573e-06
1.20821e-06
1.29831e-06
1.22141e-06
1.27431e-06
1.2014e-06
1.29127e-06
1.22801e-06
1.27903e-06
1.3399e-06
1.3399e-06
1.3399e-06
1.3399e-06
1.3399e-06
0.00131654
0.00133093
0.00132994
0.00132785
0.00132756
0.00116434
0.00020576
6.10528e-06
6.10438e-06
2.0279e-05
2.02942e-05
1.3469e-06
1.31799e-06
1.53847e-06
1.37259e-06
1.34723e-06
1.31708e-06
1.53772e-06
1.3723e-06
2.23021e-06
2.22627e-06
1.29147e-06
1.31993e-06
1.32533e-06
1.32587e-06
1.29632e-06
1.31995e-06
1.32542e-06
1.32572e-06
1.35421e-06
1.35026e-06
1.33282e-06
1.35612e-06
1.35141e-06
1.3494e-06
1.33413e-06
1.35562e-06
1.28721e-06
1.30124e-06
1.36087e-06
1.22714e-06
1.28995e-06
1.30066e-06
1.36055e-06
1.22617e-06
1.33989e-06
1.33877e-06
1.33301e-06
1.32673e-06
1.29082e-06
1.29526e-06
1.30414e-06
1.28525e-06
1.31437e-06
1.28911e-06
1.20369e-06
1.28499e-06
1.2509e-06
1.20141e-06
1.20266e-06
1.27974e-06
1.24109e-06
1.19928e-06
1.26332e-06
1.27462e-06
1.27657e-06
1.3099e-06
1.25901e-06
1.27122e-06
1.27352e-06
1.30818e-06
1.26256e-06
1.26771e-06
1.27589e-06
1.29826e-06
1.25894e-06
1.2716e-06
1.28635e-06
1.29652e-06
1.21238e-06
1.25531e-06
1.21425e-06
1.29461e-06
1.3399e-06
1.3399e-06
1.3399e-06
1.3399e-06
0.00131646
0.00133492
0.0013304
0.00132601
0.00133002
0.00130919
0.000384445
0.000384276
0.00122601
0.0012259
1.41187e-05
1.41156e-05
0.000108494
0.000108481
1.50118e-06
1.32915e-06
1.80945e-06
1.46035e-06
1.50311e-06
1.32642e-06
1.80747e-06
1.45917e-06
2.06597e-06
4.25109e-06
3.04646e-06
2.62814e-06
2.05894e-06
4.25966e-06
3.04112e-06
2.6263e-06
1.34719e-06
1.35504e-06
1.33423e-06
1.34228e-06
1.3469e-06
1.35455e-06
1.33369e-06
1.3428e-06
1.33114e-06
1.36217e-06
1.31492e-06
1.35477e-06
1.33142e-06
1.35933e-06
1.31384e-06
1.35462e-06
1.3399e-06
1.3399e-06
1.33773e-06
1.33297e-06
1.28653e-06
1.29016e-06
1.28713e-06
1.28974e-06
1.29008e-06
1.29186e-06
1.26298e-06
1.27522e-06
1.21076e-06
1.24172e-06
1.26792e-06
1.26983e-06
1.21361e-06
1.23453e-06
1.28958e-06
1.30614e-06
1.28517e-06
1.2889e-06
1.24316e-06
1.27566e-06
1.29677e-06
1.30585e-06
1.28409e-06
1.28609e-06
1.23621e-06
1.27386e-06
1.26135e-06
1.28533e-06
1.25449e-06
1.28168e-06
1.30361e-06
1.2639e-06
1.28607e-06
1.27937e-06
1.31046e-06
1.25993e-06
1.2904e-06
1.27875e-06
1.3399e-06
1.3399e-06
1.3399e-06
0.00131984
0.0013348
0.00132952
0.00132917
0.00131974
0.00118747
0.000842727
0.000842151
0.00126181
0.00126144
3.44418e-05
5.5336e-06
2.50364e-05
0.000214843
9.99484e-05
4.57323e-06
5.53724e-06
3.44055e-05
4.57047e-06
2.50237e-05
0.000214146
9.96972e-05
0.00116964
0.00112643
0.000692705
0.000546451
0.00117054
0.00113323
0.000689854
0.000545028
1.67943e-06
1.29485e-06
1.83797e-06
1.40833e-06
1.68161e-06
1.29356e-06
1.83566e-06
1.40716e-06
2.7322e-06
3.75904e-06
2.72324e-06
3.7604e-06
1.25842e-06
1.26618e-06
1.25854e-06
1.26565e-06
1.43415e-06
1.30933e-06
1.40469e-06
1.31013e-06
1.3399e-06
1.3399e-06
1.33848e-06
1.33116e-06
1.29249e-06
1.29604e-06
1.29074e-06
1.29248e-06
1.2905e-06
1.29097e-06
1.2882e-06
1.29498e-06
1.25718e-06
1.23248e-06
1.26477e-06
1.27776e-06
1.26957e-06
1.24699e-06
1.25302e-06
1.23829e-06
1.25854e-06
1.2747e-06
1.26709e-06
1.24387e-06
1.29367e-06
1.28267e-06
1.29615e-06
1.28076e-06
1.30418e-06
1.28836e-06
1.30029e-06
1.30621e-06
1.27926e-06
1.28191e-06
1.30309e-06
1.29343e-06
1.30842e-06
1.30278e-06
1.28534e-06
1.28969e-06
1.30616e-06
1.28397e-06
1.30782e-06
1.29108e-06
1.3399e-06
1.3399e-06
0.00132116
0.00133249
0.00133082
0.00132589
0.00120216
0.000941763
0.000948315
0.00093273
0.000951162
0.00104602
0.00104814
0.00114988
0.00114677
9.51342e-06
0.000219125
8.6063e-05
1.16693e-05
0.000974571
0.000857229
9.51355e-06
0.000218597
1.16766e-05
8.60908e-05
0.000972587
0.000855094
0.00109297
0.00115531
0.00113775
0.00101075
0.00109545
0.00115503
0.00113507
0.00100983
2.28447e-06
1.36491e-06
2.27746e-06
1.36558e-06
1.33952e-06
1.3399e-06
1.3399e-06
1.33701e-06
1.32047e-06
1.30221e-06
1.3037e-06
1.31726e-06
1.31406e-06
1.22529e-06
1.26534e-06
1.24031e-06
1.28055e-06
1.22912e-06
1.25232e-06
1.24292e-06
1.27039e-06
1.28883e-06
1.24607e-06
1.28349e-06
1.24143e-06
1.2976e-06
1.27603e-06
1.28772e-06
1.26329e-06
1.281e-06
1.24736e-06
1.29023e-06
1.2741e-06
1.26902e-06
1.24226e-06
1.26031e-06
1.29731e-06
1.24624e-06
1.25854e-06
1.27383e-06
1.29527e-06
1.28926e-06
1.25365e-06
1.29503e-06
1.26161e-06
1.30067e-06
1.30827e-06
1.32109e-06
1.28645e-06
1.33132e-06
1.31563e-06
1.30979e-06
1.29501e-06
1.33989e-06
0.00131961
0.00133442
0.00132976
0.00132389
0.000976835
0.00100716
0.00108936
0.000917933
0.00101398
0.00100249
0.00116658
0.000978586
0.00111602
0.000996972
0.00115045
0.000974811
0.0011128
0.0010305
0.00105065
0.00117802
0.00107813
0.00136376
0.0013728
0.00117337
0.00107002
0.00137718
0.00137198
1.33952e-06
1.33736e-06
1.33986e-06
1.33789e-06
1.33244e-06
1.33127e-06
1.33076e-06
1.31318e-06
1.31906e-06
1.32214e-06
1.32444e-06
1.31136e-06
1.30921e-06
1.27284e-06
1.29023e-06
1.29539e-06
1.27574e-06
1.27074e-06
1.28627e-06
1.31e-06
1.28437e-06
1.27356e-06
1.25893e-06
1.24486e-06
1.24669e-06
1.27253e-06
1.20907e-06
1.29168e-06
1.29358e-06
1.27254e-06
1.25795e-06
1.28623e-06
1.22845e-06
1.25379e-06
1.29275e-06
1.20515e-06
1.29673e-06
0.00132381
0.00133598
0.00133568
0.00130736
0.000742169
0.000853226
0.00110013
0.000918877
0.00110617
0.00125162
0.000765709
0.00101315
0.00101556
0.0011485
0.00101765
0.00104426
0.00102704
0.00113171
0.00101374
0.00103819
0.00117579
0.00108061
0.00106071
0.00102954
0.00120278
0.00111831
0.00106034
0.00103415
0.00108262
0.000889867
0.00112113
0.000889515
1.33736e-06
1.33781e-06
1.33727e-06
1.33403e-06
1.32453e-06
1.29442e-06
1.30092e-06
1.29022e-06
1.29647e-06
1.29343e-06
1.3086e-06
1.28153e-06
1.24316e-06
1.28971e-06
1.24137e-06
1.27004e-06
1.24781e-06
1.27946e-06
1.24784e-06
1.28672e-06
1.28003e-06
1.27743e-06
1.2187e-06
1.3027e-06
1.31345e-06
1.29381e-06
1.2306e-06
0.00132545
0.00133798
0.00133355
0.00130434
0.000732207
0.000699012
0.00121101
0.000942875
0.00125321
0.00115947
0.00115286
0.00121369
0.00126356
0.000937802
0.00124232
0.00114464
0.0012649
0.00125264
0.00127046
0.00120512
0.000706237
0.00089569
0.00110439
0.000911764
0.000992951
0.000964086
0.00109844
0.000894561
0.000995214
0.000951961
0.00114331
0.00108402
0.00116955
0.00112104
1.33008e-06
1.33878e-06
1.33252e-06
1.32772e-06
1.33731e-06
1.32974e-06
1.32775e-06
1.32062e-06
1.32241e-06
1.31528e-06
1.31101e-06
1.30326e-06
1.22245e-06
1.27535e-06
1.26777e-06
1.26134e-06
1.23003e-06
1.26593e-06
1.23014e-06
1.26925e-06
1.27439e-06
1.24348e-06
1.28252e-06
1.27426e-06
1.28144e-06
1.24578e-06
1.33042e-06
1.2872e-06
1.29149e-06
1.17286e-06
1.31186e-06
1.2074e-06
0.00132973
0.00133677
0.00133433
0.00130167
0.00125148
0.00130037
0.00130759
0.000843086
0.000698743
0.00126602
0.000970847
0.00126567
0.00123991
0.00127052
0.00121232
0.00127641
0.00103341
0.00114419
0.00121958
0.00128905
0.00122906
0.00125396
0.00121258
0.000865525
0.000448071
0.001199
0.000981089
0.000873562
0.000710965
0.00117129
0.00118123
1.3126e-06
1.3399e-06
1.3322e-06
1.3325e-06
1.30431e-06
1.30222e-06
1.30402e-06
1.30413e-06
1.30044e-06
1.30294e-06
1.26394e-06
1.28803e-06
1.26746e-06
1.2234e-06
1.26704e-06
1.22235e-06
1.25766e-06
1.25097e-06
1.26492e-06
1.23617e-06
1.27543e-06
1.28802e-06
1.21072e-06
1.27507e-06
1.26017e-06
1.13492e-06
1.29103e-06
1.28741e-06
1.26898e-06
1.1461e-06
1.19749e-06
1.09049e-06
1.29303e-06
1.12144e-06
0.00133032
0.00133868
0.0013343
0.00131282
0.00130282
0.00130691
0.00132045
0.00107747
0.000458216
0.00115033
0.00125868
0.00109331
0.00123264
0.00128482
0.000676986
0.00106281
0.00126589
0.000894565
0.00122651
0.00127969
0.00124881
0.00128296
0.00127648
0.00126822
0.00129316
0.00129592
0.000768446
0.00127677
0.00107514
1.32116e-06
1.3399e-06
1.3349e-06
1.31808e-06
1.31195e-06
1.31237e-06
1.30865e-06
1.31158e-06
1.30647e-06
1.30191e-06
1.29698e-06
1.19978e-06
1.24812e-06
1.23998e-06
1.28487e-06
1.23032e-06
1.28732e-06
1.22011e-06
1.26014e-06
1.28297e-06
1.2452e-06
1.25499e-06
1.28025e-06
1.20412e-06
1.13206e-06
1.2021e-06
1.26101e-06
1.22572e-06
1.23002e-06
1.27422e-06
1.15748e-06
0.00133313
0.00133886
0.00132952
0.00131344
0.00131453
0.00130585
0.00131527
0.00123756
0.000620473
0.00117415
0.00127974
0.00110242
0.00125566
0.00123406
0.000593685
0.00108774
0.00128165
0.00104106
0.00119983
0.00120001
0.00118261
0.00122697
0.00118273
0.00121079
0.00116677
0.00124326
0.00116035
0.00110942
0.000597239
0.00104753
0.000859034
1.3399e-06
1.33991e-06
1.32952e-06
1.30272e-06
1.30927e-06
1.30764e-06
1.30911e-06
1.29372e-06
1.2935e-06
1.25389e-06
1.28492e-06
1.23747e-06
1.2417e-06
1.25734e-06
1.20504e-06
1.2312e-06
1.28303e-06
1.23387e-06
1.25406e-06
1.24934e-06
1.21935e-06
1.24178e-06
1.21437e-06
1.23858e-06
1.15015e-06
1.23904e-06
1.1638e-06
1.25154e-06
1.255e-06
0.00133682
0.00133852
0.00131138
0.00130568
0.00130864
0.00131125
0.00129545
0.00129478
0.00130903
0.00122408
0.00119762
0.00131042
0.00123116
0.00119711
0.00121544
0.000844418
0.00118971
0.00120978
0.00102603
0.00122464
0.00125365
0.000733267
0.00111043
0.00122766
0.000929047
0.00126015
0.00123381
0.00121672
0.00122268
0.00116367
1.33991e-06
1.33992e-06
1.33097e-06
1.31536e-06
1.32261e-06
1.30853e-06
1.31371e-06
1.20409e-06
1.24517e-06
1.25794e-06
1.2551e-06
1.25928e-06
1.2767e-06
1.22145e-06
1.26262e-06
1.27278e-06
1.24462e-06
1.26589e-06
1.25103e-06
1.28527e-06
1.2497e-06
1.30668e-06
1.29028e-06
1.30284e-06
1.26599e-06
1.32365e-06
1.30357e-06
1.21165e-06
1.16026e-06
1.24173e-06
1.15183e-06
0.00133806
0.00133756
0.00132034
0.00131359
0.0013206
0.00131348
0.00130994
0.00130981
0.00125612
0.00125327
0.00124177
0.00125798
0.0012146
0.00123039
0.00122295
0.0012193
0.00126249
0.00126488
0.00123913
0.00126409
0.0012143
0.00123251
0.00122848
0.00121963
0.00118459
0.00116159
0.00105493
0.00119504
0.00124472
0.00121716
0.00122741
0.00119858
1.33991e-06
1.33914e-06
1.31772e-06
1.30043e-06
1.30557e-06
1.31901e-06
1.31243e-06
1.31829e-06
1.29287e-06
1.25033e-06
1.27202e-06
1.29383e-06
1.25569e-06
1.26819e-06
1.30385e-06
1.30198e-06
1.26597e-06
1.25715e-06
1.32863e-06
1.28415e-06
1.30351e-06
1.25988e-06
1.28994e-06
1.23664e-06
1.29878e-06
1.23921e-06
1.31437e-06
1.24285e-06
1.32631e-06
1.26162e-06
0.00133464
0.00132567
0.00131615
0.00122151
0.00122937
0.00130795
0.00131596
0.00122232
0.00123347
0.00130791
0.00131948
0.0013187
0.00126046
0.0012717
0.00121224
0.00121525
0.00125284
0.00125197
0.00126712
0.0011986
0.00127437
0.00121762
0.00126414
0.001254
0.00118371
0.0011547
0.00110338
0.0010564
1.33909e-06
1.33374e-06
1.30612e-06
1.31513e-06
1.32386e-06
1.32522e-06
1.30578e-06
1.31426e-06
1.2388e-06
1.24728e-06
1.29547e-06
1.24726e-06
1.29237e-06
1.27905e-06
1.20529e-06
1.26249e-06
1.24313e-06
1.24117e-06
1.29154e-06
1.2448e-06
1.28764e-06
1.27163e-06
1.21459e-06
1.25985e-06
1.28343e-06
1.29999e-06
1.2422e-06
1.26921e-06
1.31185e-06
1.25572e-06
1.30693e-06
1.27914e-06
0.00133037
0.00130868
0.0013029
0.00130214
0.00130867
0.00129112
0.00129262
0.00123402
0.00123205
0.00125157
0.0012496
0.00124084
0.00121068
0.00126671
0.00124411
0.00129717
0.00125347
0.00122208
0.00124047
0.00123238
0.00125339
0.00125069
0.00124472
0.00121097
0.00127185
0.00124308
0.001297
0.00125851
0.00121948
0.00127493
0.00125652
0.00123521
0.0012453
0.00126385
0.00126013
0.00123518
0.00124681
1.33294e-06
1.32789e-06
1.2996e-06
1.2888e-06
1.25739e-06
1.25436e-06
1.29615e-06
1.25421e-06
1.26696e-06
1.31569e-06
1.29939e-06
1.31416e-06
1.28784e-06
1.31242e-06
1.28548e-06
1.24408e-06
1.26454e-06
1.29979e-06
1.29418e-06
1.29922e-06
1.29859e-06
1.29043e-06
1.25969e-06
1.28824e-06
1.20602e-06
1.32471e-06
1.22321e-06
1.32302e-06
0.00132693
0.00129552
0.00130106
0.00129613
0.00130031
0.0012932
0.00129485
0.00119886
0.00128397
0.00125666
0.00122813
0.0012898
0.00126712
0.00126101
0.00127077
0.00119333
0.00127666
0.00119752
0.00121695
0.00125
0.00121125
0.00120662
0.00129416
0.00122832
0.00125882
0.00129231
0.00126613
0.00127038
0.00125757
0.00119458
0.00127908
0.00119677
0.00121817
0.00125063
0.0012117
1.33002e-06
1.32079e-06
1.29989e-06
1.30692e-06
1.32359e-06
1.32998e-06
1.33172e-06
1.17653e-06
1.29645e-06
1.22156e-06