/*--------------------------------*- C++ -*----------------------------------*\
| =========                 |                                                 |
| \\      /  F ield         | OpenFOAM: The Open Source CFD Toolbox           |
|  \\    /   O peration     | Version:  5.x                                   |
|   \\  /    A nd           | Web:      www.OpenFOAM.org                      |
|    \\/     M anipulation  |                                                 |
\*---------------------------------------------------------------------------*/
FoamFile
{
    version     2.0;
    format      ascii;
    class       volVectorField;
    location    "0.9";
    object      U;
}
// * * * * * * * * * * * * * * * * * * * * * * * * * * * * * * * * * * * * * //

dimensions      [0 1 -1 0 0 0 0];

internalField   nonuniform List<vector> 
12160
(
(0.21046 0 0.00200718)
(0.218137 0 0.00347704)
(0.210138 0 -0.00238878)
(0.210093 0 0.00369094)
(0.217256 0 -0.00244807)
(0.209197 0 0.00222246)
(0.210866 0 0.00268245)
(0.208979 0 -0.00154087)
(0.215888 0 0.00536332)
(0.20761 0 -0.00146002)
(0.207908 0 0.00190239)
(0.21008 0 -0.00169297)
(0.208311 0 0.00651663)
(0.211893 0 -0.00174805)
(0.205246 0 0.00592967)
(0.208663 0 0.00132324)
(0.207413 0 -0.00179348)
(0.21009 0 0.00416437)
(0.203615 0 -0.000543298)
(0.208477 0 0.00887057)
(0.201096 0 0.00353973)
(0.203846 0 0.00160166)
(0.208722 0 0.000138376)
(0.208458 0 0.002057)
(0.206664 0 -0.00200778)
(0.201781 0 0.0091166)
(0.198957 0 -0.000933562)
(0.198053 0 0.0189445)
(0.196556 0 0.00244135)
(0.204399 0 0.002936)
(0.210616 0 0.00318175)
(0.206426 0 -0.00328139)
(0.206529 0 0.00443806)
(0.191722 0 -0.000696248)
(0.193853 0 0.0141778)
(0.18946 0 0.0155589)
(0.184038 0 0.00331059)
(0.197372 0 0.00628656)
(0.206553 0 0.00670589)
(0.210635 0 -0.000313526)
(0.208762 0 9.87865e-05)
(0.199273 0 -0.00491408)
(0.189282 0 0.0101094)
(0.168721 0 0.00109479)
(0.122222 0 0.0511173)
(0.168522 0 0.0040014)
(0.184804 0 0.00924478)
(0.199322 0 0.0118404)
(0.208037 0 0.00628447)
(0.214628 0 0.00353245)
(0.205099 0 -0.00879052)
(0.198689 0 0.000494031)
(0.167823 0 -0.00109724)
(0.130284 0 0.0212567)
(-0.371376 0 -0.100279)
(0.15082 0 0.00440696)
(0.169076 0 0.0114721)
(0.186416 0 0.016534)
(0.20159 0 0.0142317)
(0.212692 0 0.0115345)
(0.215325 0 -0.00362736)
(0.207371 0 -0.00681889)
(0.188979 0 -0.013189)
(0.164515 0 0.00379236)
(-0.091959 0 -0.0170296)
(-0.178398 0 0.2118)
(0.132363 0 0.00453348)
(0.151111 0 0.0127654)
(0.170171 0 0.0200781)
(0.188499 0 0.021398)
(0.205921 0 0.0220613)
(0.21578 0 0.00810564)
(0.220461 0 -0.000443159)
(0.204299 0 -0.0213118)
(0.21196 0 -0.013699)
(0.012966 0 -0.0320275)
(0.0545145 0 -0.130734)
(0.09724 0 -0.0135743)
(0.114203 0 0.00443612)
(0.132414 0 0.0131824)
(0.151644 0 0.0220902)
(0.171611 0 0.0267536)
(0.192088 0 0.0316097)
(0.210353 0 0.0217214)
(0.222461 0 0.0143918)
(0.22332 0 -0.0124654)
(0.2443 0 -0.02007)
(0.180075 0 -0.0484028)
(-0.0107346 0 -0.0946435)
(0.0976754 0 -0.0824488)
(0.0270789 0 0.0929539)
(0.0970873 0 0.00417784)
(0.114066 0 0.012908)
(0.132449 0 0.0226526)
(0.152298 0 0.0297875)
(0.174027 0 0.0385863)
(0.195944 0 0.0340726)
(0.216576 0 0.0318537)
(0.228575 0 0.00751205)
(0.277524 0 -0.00819365)
(0.314204 0 -0.0515162)
(0.0452823 0 -0.126697)
(0.040391 0 -0.0489102)
(0.00732252 0 -0.0983913)
(0.0790767 0 0.000212454)
(0.0814583 0 0.00381858)
(0.096823 0 0.0121676)
(0.113722 0 0.0220753)
(0.132389 0 0.0306843)
(0.153473 0 0.0423404)
(0.176469 0 0.0428638)
(0.200975 0 0.0482765)
(0.224487 0 0.0317151)
(0.289725 0 0.017143)
(0.42489 0 -0.0334251)
(0.163387 0 -0.130815)
(0.0699537 0 -0.128591)
(0.0181292 0 -0.0736546)
(0.0482239 0 -0.0766353)
(-0.0195116 0 0.0241452)
(0.0675109 0 0.00342297)
(0.0811205 0 0.0111659)
(0.0962262 0 0.0207279)
(0.113117 0 0.0299399)
(0.132506 0 0.0431837)
(0.154332 0 0.0473823)
(0.179604 0 0.0600852)
(0.207999 0 0.0525482)
(0.290686 0 0.0449971)
(0.482325 0 -0.000298614)
(0.334199 0 -0.0892132)
(0.0462809 0 -0.166423)
(0.0310697 0 -0.118867)
(0.0160278 0 -0.0623129)
(-0.0212241 0 -0.0806782)
(0.0552611 0 0.00303306)
(0.0671432 0 0.0100523)
(0.0803855 0 0.0189447)
(0.095264 0 0.0281104)
(0.112457 0 0.0418377)
(0.132017 0 0.0481954)
(0.155515 0 0.0659582)
(0.184191 0 0.0649754)
(0.277552 0 0.06858)
(0.504291 0 0.0363866)
(0.458884 0 -0.0231663)
(0.0430527 0 -0.153277)
(-0.00257195 0 -0.124255)
(0.0137515 0 -0.120467)
(0.00206993 0 -0.0685753)
(0.0446011 0 0.00267294)
(0.054896 0 0.0089372)
(0.0663606 0 0.0169925)
(0.0792316 0 0.0256808)
(0.094108 0 0.0390752)
(0.110995 0 0.0463696)
(0.131629 0 0.0669667)
(0.157426 0 0.0694087)
(0.257233 0 0.0822435)
(0.500026 0 0.06884)
(0.511857 0 0.0264555)
(0.0537353 0 -0.0802983)
(-0.0326429 0 -0.104781)
(-0.00864308 0 -0.130927)
(0.00491758 0 -0.114909)
(0.0353533 0 0.00235732)
(0.0442619 0 0.00789643)
(0.0541309 0 0.0150599)
(0.0651458 0 0.0230227)
(0.0778141 0 0.0355507)
(0.0920454 0 0.0429375)
(0.109568 0 0.0645911)
(0.131398 0 0.0680336)
(0.23519 0 0.087746)
(0.480521 0 0.0881687)
(0.503966 0 0.0711369)
(0.068907 0 0.0178946)
(-0.0569414 0 -0.0488502)
(-0.0261305 0 -0.112821)
(-0.00269789 0 -0.119362)
(0.0273034 0 0.00209199)
(0.0350554 0 0.00697802)
(0.0435581 0 0.0132698)
(0.0529501 0 0.0203952)
(0.0636439 0 0.0317576)
(0.0754585 0 0.0387191)
(0.0900643 0 0.0601332)
(0.107763 0 0.0631875)
(0.214773 0 0.0872461)
(0.455877 0 0.0945576)
(0.442361 0 0.104048)
(0.0630576 0 0.104919)
(-0.0584093 0 0.0194528)
(-0.0422955 0 -0.0542263)
(-0.00914432 0 -0.102337)
(0.0202218 0 0.00188095)
(0.0270554 0 0.0062105)
(0.0344402 0 0.0116982)
(0.0424754 0 0.0179653)
(0.0514876 0 0.0280387)
(0.0612276 0 0.0342983)
(0.0732732 0 0.0545911)
(0.0871849 0 0.05661)
(0.197005 0 0.082798)
(0.42926 0 0.0930427)
(0.344152 0 0.119472)
(0.0455872 0 0.157678)
(-0.0444756 0 0.0884274)
(-0.0441921 0 0.0184185)
(-0.0147075 0 -0.0487489)
(0.013882 0 0.00172961)
(0.0200283 0 0.00560781)
(0.026545 0 0.0103862)
(0.0334965 0 0.0158355)
(0.0411343 0 0.0246158)
(0.0491746 0 0.030056)
(0.059069 0 0.0486881)
(0.0697676 0 0.0495155)
(0.181817 0 0.076082)
(0.397622 0 0.0872827)
(0.242354 0 0.125272)
(0.034653 0 0.167562)
(-0.0218249 0 0.131564)
(-0.0343934 0 0.0849255)
(-0.0146408 0 0.0163856)
(0.0080664 0 0.00163767)
(0.0137461 0 0.00516955)
(0.0196327 0 0.00935395)
(0.0257646 0 0.0140603)
(0.0323279 0 0.0216237)
(0.0390338 0 0.0262201)
(0.047181 0 0.042926)
(0.0553058 0 0.0426504)
(0.168638 0 0.0683309)
(0.355915 0 0.0795593)
(0.163964 0 0.126746)
(0.0341505 0 0.153635)
(-0.00155201 0 0.146858)
(-0.0163413 0 0.126131)
(-0.0107182 0 0.0792168)
(0.00257744 0 0.00159976)
(0.00799048 0 0.00489391)
(0.0134708 0 0.00860598)
(0.0190291 0 0.0126653)
(0.0247988 0 0.0191336)
(0.0305085 0 0.0229153)
(0.0372805 0 0.0376306)
(0.0434497 0 0.0364311)
(0.156942 0 0.0603791)
(0.307166 0 0.0713411)
(0.111628 0 0.124011)
(0.0323593 0 0.13409)
(0.010517 0 0.145246)
(-0.00169735 0 0.141529)
(-0.00457959 0 0.11969)
(-0.00277855 0 0.00161365)
(0.0025627 0 0.00477937)
(0.00783788 0 0.00813891)
(0.0130507 0 0.0116548)
(0.0182828 0 0.0171774)
(0.0233006 0 0.0201967)
(0.0290308 0 0.0330014)
(0.0337968 0 0.0310528)
(0.146126 0 0.0527934)
(0.254305 0 0.0637633)
(0.0780222 0 0.116257)
(0.0293078 0 0.117667)
(0.0158894 0 0.135594)
(0.0067172 0 0.14103)
(0.000240001 0 0.137048)
(-0.00817296 0 0.00167768)
(-0.00273161 0 0.00482037)
(0.00253338 0 0.00794385)
(0.00760445 0 0.0110236)
(0.0125324 0 0.0157594)
(0.0171267 0 0.0180795)
(0.0221105 0 0.0291464)
(0.0259475 0 0.0265794)
(0.135425 0 0.0459305)
(0.201212 0 0.057349)
(0.0557086 0 0.106559)
(0.0262375 0 0.103934)
(0.0174675 0 0.123344)
(0.0104192 0 0.132971)
(0.00301758 0 0.138603)
(-0.0137546 0 0.00178983)
(-0.00806468 0 0.00501221)
(-0.00263727 0 0.00801061)
(0.00248736 0 0.0107611)
(0.00731833 0 0.014871)
(0.0117278 0 0.0165541)
(0.0162247 0 0.0261144)
(0.0195303 0 0.0229994)
(0.123883 0 0.0399956)
(0.152831 0 0.0522357)
(0.0405653 0 0.0945748)
(0.0239237 0 0.0923088)
(0.01712 0 0.111048)
(0.0114789 0 0.121717)
(0.0041753 0 0.131963)
(-0.0196669 0 0.00195197)
(-0.0135865 0 0.00534867)
(-0.00784741 0 0.0083319)
(-0.00249555 0 0.0108524)
(0.00243365 0 0.0144961)
(0.00686808 0 0.0156019)
(0.0111094 0 0.0239131)
(0.0142104 0 0.0202673)
(0.110383 0 0.0350842)
(0.112795 0 0.0487251)
(0.0297967 0 0.0811618)
(0.0218928 0 0.0821197)
(0.0161885 0 0.0990137)
(0.0112228 0 0.109956)
(0.00442047 0 0.121577)
(-0.0260357 0 0.00216084)
(-0.0194416 0 0.00581938)
(-0.0132478 0 0.00889699)
(-0.00751863 0 0.0112904)
(-0.0023155 0 0.0146128)
(0.00233641 0 0.0152005)
(0.00652866 0 0.0225302)
(0.00969605 0 0.0183232)
(0.0936683 0 0.0312408)
(0.0803078 0 0.0475006)
(0.0215067 0 0.0684)
(0.0194098 0 0.0731887)
(0.0149736 0 0.0873053)
(0.0105003 0 0.0985313)
(0.00422198 0 0.110135)
(-0.0329684 0 0.00240818)
(-0.0257565 0 0.00641589)
(-0.0189839 0 0.00969512)
(-0.0127347 0 0.0120587)
(-0.00710482 0 0.0152119)
(-0.00205916 0 0.0153263)
(0.00227225 0 0.0219399)
(0.00573222 0 0.0171119)
(0.0727298 0 0.0284556)
(0.0553605 0 0.0484357)
(0.0152817 0 0.0574215)
(0.0161926 0 0.0657796)
(0.0133597 0 0.0763702)
(0.00956543 0 0.0876655)
(0.00386244 0 0.0987468)
(-0.0405533 0 0.00268793)
(-0.0326388 0 0.00712995)
(-0.0251843 0 0.0107118)
(-0.01829 0 0.0131419)
(-0.0120909 0 0.0162699)
(-0.00649507 0 0.0159673)
(-0.00184814 0 0.0221143)
(0.00209742 0 0.0165858)
(0.0473202 0 0.0267072)
(0.0367261 0 0.0512613)
(0.00991142 0 0.0494227)
(0.0124879 0 0.0600764)
(0.0111833 0 0.0669621)
(0.0084238 0 0.0776712)
(0.00343801 0 0.087887)
(-0.0488551 0 0.00299642)
(-0.0401783 0 0.00794639)
(-0.0319594 0 0.0119272)
(-0.0243153 0 0.0145206)
(-0.0174203 0 0.017767)
(-0.0111309 0 0.0171021)
(-0.00600727 0 0.0230338)
(-0.00139785 0 0.0167124)
(0.0184949 0 0.0259444)
(0.0212362 0 0.0544757)
(0.00513124 0 0.0445609)
(0.00887448 0 0.0559373)
(0.00856697 0 0.059541)
(0.00702331 0 0.0689519)
(0.00296586 0 0.077939)
(-0.0579124 0 0.00332607)
(-0.0484427 0 0.0088431)
(-0.0394021 0 0.0133162)
(-0.0309251 0 0.01617)
(-0.023227 0 0.0196776)
(-0.0161136 0 0.0187133)
(-0.0103645 0 0.0246621)
(-0.00493584 0 0.0174697)
(-0.0114574 0 0.0261272)
(0.00751005 0 0.0568213)
(0.00207466 0 0.0424088)
(0.00545996 0 0.0539464)
(0.00576514 0 0.0541731)
(0.00544211 0 0.0620253)
(0.00243044 0 0.0692743)
(-0.0677366 0 0.00366787)
(-0.0574743 0 0.00979574)
(-0.0475852 0 0.0148476)
(-0.0382184 0 0.0180573)
(-0.0296305 0 0.0219686)
(-0.0215819 0 0.0207802)
(-0.015065 0 0.0269686)
(-0.0086834 0 0.0188438)
(-0.0397891 0 0.027255)
(-0.00561731 0 0.0574561)
(-0.000247267 0 0.0416104)
(0.00256561 0 0.0536526)
(0.00326396 0 0.0505405)
(0.00387051 0 0.0570729)
(0.00184868 0 0.0623204)
(-0.0783085 0 0.00401056)
(-0.0672884 0 0.0107756)
(-0.0565578 0 0.0164827)
(-0.0462757 0 0.0201411)
(-0.0367371 0 0.0245967)
(-0.027663 0 0.0232763)
(-0.020248 0 0.0299139)
(-0.0127906 0 0.0208284)
(-0.0644833 0 0.0292564)
(-0.0194993 0 0.0559953)
(-0.00191258 0 0.0419242)
(0.000248023 0 0.0541622)
(0.00128276 0 0.048691)
(0.00232115 0 0.0540869)
(0.00125433 0 0.0572352)
(-0.0895744 0 0.00434075)
(-0.0778698 0 0.0117475)
(-0.0663424 0 0.0181741)
(-0.0551552 0 0.0223696)
(-0.0446367 0 0.0275066)
(-0.0344732 0 0.0261656)
(-0.0260432 0 0.033447)
(-0.0174113 0 0.0234216)
(-0.084772 0 0.0321186)
(-0.0345617 0 0.0536652)
(-0.00404988 0 0.0434993)
(-0.00183855 0 0.0547108)
(-0.000113748 0 0.0480775)
(0.00107522 0 0.0526776)
(0.000743045 0 0.0539514)
(-0.101446 0 0.00464067)
(-0.0891681 0 0.0126707)
(-0.0769307 0 0.0198639)
(-0.0648895 0 0.0246786)
(-0.0533988 0 0.0306283)
(-0.0421155 0 0.0293996)
(-0.0325731 0 0.0375018)
(-0.0226927 0 0.0266205)
(-0.100976 0 0.0357969)
(-0.0516645 0 0.0513825)
(-0.00673469 0 0.0458724)
(-0.00404978 0 0.0551137)
(-0.00121715 0 0.048455)
(7.10859e-05 0 0.0523826)
(0.000296065 0 0.0522228)
(-0.113789 0 0.00488714)
(-0.101096 0 0.0135003)
(-0.0882799 0 0.0214844)
(-0.0754812 0 0.0269895)
(-0.0630693 0 0.0338749)
(-0.0506749 0 0.0329124)
(-0.0399499 0 0.0419937)
(-0.0287785 0 0.0304156)
(-0.113982 0 0.0402378)
(-0.0725998 0 0.0504356)
(-0.0108486 0 0.0503503)
(-0.00673292 0 0.0560325)
(-0.00247271 0 0.0497524)
(-0.000830029 0 0.0528199)
(-2.43333e-05 0 0.0516919)
(-0.12645 0 0.00505809)
(-0.113524 0 0.0141907)
(-0.100311 0 0.0229571)
(-0.0868987 0 0.029209)
(-0.0736658 0 0.0371405)
(-0.0602154 0 0.0366174)
(-0.0482726 0 0.0468163)
(-0.0358044 0 0.0347841)
(-0.124789 0 0.0453697)
(-0.0982212 0 0.0511735)
(-0.0157123 0 0.0571332)
(-0.00989656 0 0.058176)
(-0.00421247 0 0.0520801)
(-0.00179036 0 0.0539281)
(-0.000278018 0 0.0520983)
(-0.139139 0 0.00514388)
(-0.126297 0 0.0146918)
(-0.112899 0 0.0241957)
(-0.0990729 0 0.0312298)
(-0.085172 0 0.0403004)
(-0.0707739 0 0.0404029)
(-0.0576238 0 0.0518393)
(-0.043894 0 0.0396814)
(-0.134258 0 0.0510968)
(-0.12808 0 0.0536288)
(-0.0211011 0 0.0662896)
(-0.0132471 0 0.0619971)
(-0.00644392 0 0.0557889)
(-0.00294784 0 0.0559114)
(-0.000566157 0 0.0533904)
(-0.139128 0 0.0149452)
(-0.159629 0 0.00511937)
(-0.125891 0 0.0251089)
(-0.111888 0 0.0329329)
(-0.0975346 0 0.0432111)
(-0.0823552 0 0.0441303)
(-0.0680645 0 0.0569054)
(-0.0531553 0 0.0450342)
(-0.143058 0 0.0573111)
(-0.162542 0 0.0575556)
(-0.0276357 0 0.0769655)
(-0.0167462 0 0.0671165)
(-0.00903266 0 0.060847)
(-0.00436982 0 0.0590934)
(-0.000955741 0 0.0556788)
(-0.139003 0 0.0256086)
(-0.159915 0 0.0148565)
(-0.186015 0 0.00450641)
(-0.125201 0 0.0341914)
(-0.110652 0 0.0457137)
(-0.0949263 0 0.0476331)
(-0.0796279 0 0.0618316)
(-0.0636731 0 0.0507308)
(-0.151688 0 0.0638642)
(-0.200705 0 0.0623547)
(-0.0354195 0 0.0884357)
(-0.0200206 0 0.0732827)
(-0.0115886 0 0.0672964)
(-0.00583776 0 0.0636996)
(-0.00140889 0 0.0591802)
(-0.138714 0 0.0348795)
(-0.16038 0 0.0256153)
(-0.186874 0 0.0129171)
(-0.206425 0 0.00294035)
(-0.124388 0 0.0476373)
(-0.108406 0 0.0507187)
(-0.092313 0 0.0664108)
(-0.0755002 0 0.0566136)
(-0.160513 0 0.0705745)
(-0.240252 0 0.0679324)
(-0.044733 0 0.0998044)
(-0.0228781 0 0.0804804)
(-0.013939 0 0.0750777)
(-0.00732795 0 0.0697081)
(-0.00195859 0 0.0640069)
(-0.138461 0 0.048809)
(-0.160943 0 0.0348481)
(-0.188384 0 0.0226474)
(-0.207655 0 0.00858422)
(-0.215319 0 0.000454166)
(-0.122677 0 0.0531706)
(-0.106073 0 0.0704146)
(-0.08865 0 0.0624748)
(-0.169777 0 0.0772266)
(-0.279029 0 0.0741948)
(-0.0565628 0 0.110014)
(-0.0253475 0 0.088468)
(-0.015945 0 0.0839272)
(-0.00877519 0 0.0770003)
(-0.00252685 0 0.0701583)
(-0.13744 0 0.0547671)
(-0.161893 0 0.049228)
(-0.190449 0 0.030591)
(-0.210363 0 0.0160591)
(-0.218816 0 0.0017625)
(-0.20769 0 -0.00478196)
(-0.120819 0 0.0735848)
(-0.103095 0 0.0680573)
(-0.179628 0 0.0835821)
(-0.315377 0 0.0809367)
(-0.0719823 0 0.118806)
(-0.0276671 0 0.097132)
(-0.0176391 0 0.0935142)
(-0.0100722 0 0.0852975)
(-0.003074 0 0.0775095)
(-0.136318 0 0.0756596)
(-0.162332 0 0.055589)
(-0.19347 0 0.0443452)
(-0.214256 0 0.0213641)
(-0.22276 0 0.0061675)
(-0.218923 0 -0.0102255)
(-0.202103 0 -0.0193655)
(-0.118751 0 0.0730262)
(-0.19018 0 0.0893926)
(-0.348372 0 0.0877522)
(-0.0923002 0 0.126745)
(-0.030236 0 0.106592)
(-0.0191581 0 0.103507)
(-0.0112433 0 0.0942839)
(-0.00358638 0 0.0858157)
(-0.135311 0 0.0769654)
(-0.162862 0 0.0767529)
(-0.19641 0 0.0501182)
(-0.219668 0 0.0331894)
(-0.229261 0 0.00763325)
(-0.225317 0 -0.00892229)
(-0.22252 0 -0.03644)
(-0.0736668 0 -0.0202386)
(-0.201807 0 0.0943172)
(-0.378026 0 0.0942246)
(-0.119212 0 0.133701)
(-0.0333807 0 0.117147)
(-0.0206129 0 0.113748)
(-0.0123436 0 0.10376)
(-0.00406707 0 0.0948051)
(-0.214719 0 0.0979114)
(-0.163992 0 0.0809242)
(-0.199748 0 0.0701284)
(-0.225335 0 0.036951)
(-0.237226 0 0.0169229)
(-0.23682 0 -0.011803)
(-0.229969 0 -0.0354353)
(-0.162621 0 -0.0501402)
(-0.103238 0 -0.114672)
(-0.404673 0 0.100427)
(-0.155584 0 0.138224)
(-0.0370626 0 0.129351)
(-0.0219786 0 0.12427)
(-0.0134026 0 0.113609)
(-0.00452988 0 0.104297)
(-0.431731 0 0.108135)
(-0.23778 0 0.101069)
(-0.20441 0 0.0770515)
(-0.231763 0 0.0539129)
(-0.24531 0 0.0176165)
(-0.246984 0 -0.0034978)
(-0.244384 0 -0.0393274)
(-0.199913 0 -0.0528907)
(-0.186013 0 -0.154416)
(0.388477 0 0.0119063)
(-0.203832 0 0.142646)
(-0.0403423 0 0.143688)
(-0.022894 0 0.135242)
(-0.0143343 0 0.12379)
(-0.00497691 0 0.114134)
(-0.267143 0 0.157566)
(-0.457972 0 0.10861)
(-0.268093 0 0.096067)
(-0.239949 0 0.0606644)
(-0.254615 0 0.0311333)
(-0.257181 0 -0.0063543)
(-0.25278 0 -0.0265011)
(-0.243759 0 -0.0628857)
(-0.238361 0 -0.130252)
(-0.0866072 0 -0.0388555)
(-0.0772317 0 0.207022)
(-0.0436972 0 0.161247)
(-0.0223251 0 0.146617)
(-0.0148768 0 0.13419)
(-0.00537809 0 0.124186)
(-0.0389564 0 0.177859)
(-0.369782 0 0.125054)
(-0.473479 0 0.103466)
(-0.296698 0 0.0798202)
(-0.26508 0 0.0332449)
(-0.268065 0 0.0053001)
(-0.262829 0 -0.0317969)
(-0.25789 0 -0.0440012)
(-0.284593 0 -0.115228)
(-0.231004 0 0.000769365)
(-0.203806 0 0.123885)
(-0.0409889 0 0.954518)
(-0.0203616 0 0.157521)
(-0.0143862 0 0.144411)
(-0.00563037 0 0.13417)
(-0.0112306 0 0.167158)
(-0.0394173 0 0.178689)
(-0.483597 0 0.109281)
(-0.489629 0 0.0811294)
(-0.315906 0 0.0524019)
(-0.279656 0 -0.00023613)
(-0.272629 0 -0.0199192)
(-0.266717 0 -0.0533302)
(-0.286206 0 -0.0688893)
(-0.329095 0 -0.0208548)
(-0.312678 0 0.198285)
(-0.0781682 0 0.867931)
(0.0631812 7.95845e-28 0.916123)
(0.0129273 0 0.981532)
(-0.0128654 0 0.15327)
(-0.00552801 0 0.143549)
(-0.00718072 0 0.160471)
(0.00155257 0 0.161291)
(-0.0776239 0 0.164005)
(-0.544886 0 0.0785194)
(-0.491056 0 0.0442876)
(-0.323117 0 0.01849)
(-0.284634 0 -0.0343744)
(-0.27006 0 -0.0414968)
(-0.275875 0 -0.0669212)
(-0.322305 0 0.00748417)
(-0.33209 0 0.152152)
(-0.186844 0 0.733343)
(0.0207131 1.14108e-27 0.813771)
(0.173347 -1.9341e-30 0.920271)
(0.0656219 3.46923e-28 0.978417)
(0.00822775 0 1.02426)
(-0.00505694 0 0.151138)
(-0.00322723 0 0.156652)
(0.00136169 0 0.157066)
(0.0182479 0 0.145474)
(-0.105128 0 0.107324)
(-0.55176 0 0.0354399)
(-0.475655 0 -0.000515735)
(-0.31822 0 -0.0153831)
(-0.279793 0 -0.0641355)
(-0.266094 0 -0.050527)
(-0.280403 0 -0.0183637)
(-0.300095 0 0.13411)
(-0.237793 0 0.553389)
(0.00180792 0 0.691358)
(0.188159 0 0.79613)
(0.313778 9.38317e-27 0.969003)
(0.148571 -8.97652e-31 1.01105)
(0.0475436 -1.82587e-28 1.0334)
(0.00544373 0 1.03603)
(-0.000425854 0 0.15333)
(0.0157789 0 0.140338)
(0.0411384 0 0.0959462)
(-0.105314 0 0.0248687)
(-0.509627 0 -0.0111405)
(-0.439717 0 -0.0467627)
(-0.301442 0 -0.0464089)
(-0.262743 0 -0.0809407)
(-0.242991 0 -0.0197784)
(-0.24082 0 0.0687565)
(-0.204344 0 0.387319)
(0.0313297 0 0.497106)
(0.189836 0 0.637171)
(0.334281 3.68885e-26 0.823467)
(0.477249 -3.15604e-30 1.02706)
(0.254152 4.19936e-27 1.06814)
(0.0959876 0 1.07765)
(0.0181169 0 1.05893)
(-0.00777 0 1.03386)
(0.00463519 0 0.134698)
(0.035625 0 0.0902706)
(0.0591031 0 0.0213467)
(-0.0687916 0 -0.0669236)
(-0.420337 0 -0.0719741)
(-0.381596 0 -0.0908334)
(-0.271215 0 -0.0709273)
(-0.223276 0 -0.0730652)
(-0.193762 0 0.0372826)
(-0.126069 0 0.223828)
(0.0611046 0 0.318718)
(0.18435 -4.33082e-27 0.461333)
(0.339262 2.45602e-26 0.671573)
(0.544711 0 0.849914)
(0.672503 3.97519e-25 1.15987)
(0.381018 -1.56855e-30 1.17867)
(0.170842 -5.4924e-27 1.15457)
(0.0393615 0 1.11066)
(-0.0223631 0 1.06025)
(-0.0171039 0 1.0142)
(0.0119825 0 0.084354)
(0.0490878 0 0.0172285)
(0.0703629 0 -0.0562472)
(-0.0255481 0 -0.158192)
(-0.293878 0 -0.130454)
(-0.311301 0 -0.127729)
(-0.218714 0 -0.0794259)
(-0.161703 0 -0.0551003)
(-0.0690125 0 0.119963)
(0.0699475 0 0.160557)
(0.175935 -5.92729e-27 0.341967)
(0.33027 0 0.511214)
(0.564449 -1.70241e-25 0.678187)
(0.72926 -6.50234e-25 0.901085)
(0.913073 4.20417e-10 1.11645)
(0.515279 0 1.29664)
(0.252687 0 1.26594)
(0.0722573 -3.1502e-26 1.19938)
(-0.0293945 5.58269e-27 1.12026)
(-0.0569598 0 1.03613)
(-0.0318147 0 0.955952)
(0.0168057 0 0.0139778)
(0.0537828 0 -0.0617395)
(0.0707665 0 -0.124547)
(0.00483666 0 -0.224405)
(-0.152317 0 -0.179145)
(-0.223232 0 -0.155132)
(-0.14913 0 -0.0778182)
(-0.042956 0 -0.0146109)
(0.0656587 0 0.0771592)
(0.173108 -2.66445e-42 0.216364)
(0.319389 0 0.352939)
(0.565251 2.79756e-25 0.484431)
(0.720022 -1.91435e-24 0.659327)
(1.07107 -1.42187e-09 0.950409)
(0.937748 5.92372e-09 0.953545)
(0.663935 9.68395e-12 1.22958)
(0.937752 9.77756e-10 0.95295)
(0.959231 5.86635e-09 0.889646)
(0.960387 5.10638e-10 0.892109)
(0.315022 8.18967e-25 1.34725)
(0.101067 2.70259e-25 1.3085)
(-0.0452545 -2.6177e-26 1.20764)
(-0.103509 1.47546e-26 1.08788)
(-0.0890432 0 0.982314)
(-0.0345924 0 0.909875)
(0.0182766 0 -0.0609768)
(0.0505202 0 -0.133709)
(0.0649469 0 -0.176513)
(0.0192708 0 -0.266443)
(-0.0136429 0 -0.222306)
(-0.117089 0 -0.18152)
(-0.0487907 0 -0.0641661)
(0.0601538 0 -0.0479499)
(0.167948 -2.43654e-42 0.127816)
(0.311862 0 0.168708)
(0.546918 0 0.344874)
(0.691985 1.24114e-24 0.43369)
(1.06514 -1.21956e-24 0.689834)
(1.21649 -6.32849e-10 0.720505)
(0.685164 6.07945e-09 0.938098)
(0.96383 8.27261e-09 0.698288)
(0.275565 -2.08433e-09 1.20331)
(0.67184 1.05907e-09 0.937505)
(0.568131 3.86905e-09 0.886442)
(0.552156 -2.66006e-10 0.891118)
(0.940222 -2.25799e-09 0.696896)
(1.12521 7.86819e-09 0.677009)
(1.11799 -1.82287e-09 0.682979)
(0.112719 2.3249e-24 1.33984)
(-0.0678429 -4.70536e-25 1.30077)
(-0.156561 0 1.16837)
(-0.156086 8.54746e-27 1.02858)
(-0.113708 0 0.92253)
(-0.0471946 0 0.822433)
(0.0172726 0 -0.129122)
(0.0430322 0 -0.191418)
(0.0563349 0 -0.215418)
(0.026837 0 -0.289012)
(0.081898 0 -0.256995)
(0.025357 0 -0.187221)
(0.0399536 0 -0.0859417)
(0.162523 -8.31424e-28 -0.0271712)
(0.312447 1.40738e-27 0.0580555)
(0.519306 1.13691e-25 0.181925)
(0.665889 0 0.26957)
(0.998006 -1.39964e-24 0.433559)
(1.22949 -5.39816e-09 0.544432)
(1.34735 -6.47269e-09 0.38376)
(1.35118 8.20347e-09 0.381275)
(1.40149 5.48681e-11 0.31402)
(1.40604 -2.9235e-10 0.297228)
(0.69352 7.69107e-09 0.536888)
(0.772817 3.38053e-10 0.206227)
(0.0179096 1.31613e-24 1.01399)
(-0.0183397 -3.47769e-10 0.261482)
(0.671429 -7.01348e-10 0.513364)
(0.336045 5.78723e-09 0.340374)
(0.345877 5.30105e-10 0.313725)
(0.757717 -7.34688e-09 0.197983)
(1.0214 4.01416e-09 0.249661)
(1.02705 -7.16237e-09 0.255694)
(-0.137835 1.75225e-25 1.27647)
(-0.232687 0 1.24238)
(-0.241413 0 1.09685)
(-0.194303 9.17723e-27 0.954482)
(-0.136713 0 0.843037)
(-0.0503951 0 0.744517)
(0.0155153 0 -0.183343)
(0.0343764 0 -0.234937)
(0.0506964 0 -0.24344)
(0.03199 0 -0.307703)
(0.152357 0 -0.309375)
(0.185003 0 -0.214815)
(0.13364 0 -0.0896359)
(0.297081 8.64189e-28 -0.0778856)
(0.446539 0 0.0667033)
(0.645731 1.98712e-25 0.152669)
(0.833866 1.97399e-24 0.208426)
(1.18298 -2.24693e-09 0.378498)
(1.36159 -1.08656e-09 0.258811)
(1.36084 -5.7664e-10 0.254848)
(1.42641 4.44249e-10 0.194029)
(1.42576 1.18483e-10 0.193067)
(1.2613 -9.89298e-09 0.0744848)
(1.2775 5.28349e-09 0.0782388)
(1.42578 -1.53373e-09 0.188207)
(1.43678 6.75433e-10 0.177461)
(0.298748 1.19065e-09 -0.103446)
(1.03552 1.68952e-08 -0.110764)
(-0.130193 2.05879e-08 -0.443172)
(0.991315 1.12806e-08 -0.0883251)
(0.199843 2.23062e-09 -0.266187)
(-0.23772 4.7775e-24 0.886168)
(-0.219513 -3.24057e-09 0.11414)
(-0.39504 -1.40911e-09 -0.571422)
(-0.336859 -1.21754e-09 -0.542055)
(-0.0847903 -1.4893e-09 -0.35705)
(-0.0564256 -7.84192e-10 -0.367148)
(0.264236 -3.72267e-09 -0.139521)
(0.0899659 5.40092e-09 -0.314889)
(0.0975592 -2.98797e-10 -0.316938)
(1.03714 -7.53425e-09 -0.138618)
(-0.0861391 -1.12657e-08 -0.43746)
(0.987518 -7.9464e-10 -0.131923)
(0.224928 -2.30012e-09 -0.27216)
(1.25361 2.42958e-08 -0.0131515)
(0.527244 1.80824e-08 0.164258)
(1.29324 2.1619e-08 -0.0909801)
(0.427934 3.44843e-09 -0.176482)
(1.27897 -1.28979e-08 -0.0272866)
(0.617975 -9.9272e-09 0.141204)
(1.30243 -4.54414e-09 -0.119912)
(0.524442 -3.48845e-09 -0.180629)
(-0.332618 0 1.19671)
(-0.342262 -1.47265e-25 1.16401)
(-0.285322 0 1.00778)
(-0.231888 9.39517e-27 0.877935)
(-0.156572 0 0.755362)
(-0.0579243 0 0.640675)
(0.0135394 0 -0.224834)
(0.0303965 0 -0.265347)
(0.0407157 0 -0.269785)
(0.0422911 0 -0.313406)
(0.193121 0 -0.324046)
(0.331327 0 -0.24245)
(0.260602 0 -0.11925)
(0.389077 0 -0.0996525)
(0.630491 2.99168e-25 0.0737556)
(0.763492 1.19288e-24 -0.00896589)
(1.13781 -5.69384e-10 0.227749)
(1.31779 1.42721e-09 0.18883)
(1.31287 3.26552e-10 0.188171)
(1.3232 2.27845e-09 0.134414)
(1.31535 1.54176e-10 0.134893)
(1.3897 -7.29391e-09 0.0902341)
(1.39378 6.69104e-10 0.0903115)
(1.33416 -8.09726e-09 0.0648505)
(1.33243 2.02702e-09 0.0625899)
(0.658166 2.07659e-09 -0.352911)
(0.382353 3.66879e-09 0.0340542)
(1.32751 1.03006e-09 -0.154928)
(0.886536 2.33751e-09 -0.228839)
(1.39586 2.62043e-09 -0.118724)
(1.27377 5.47805e-09 -0.340254)
(0.408705 -2.69944e-09 0.0514551)
(0.657509 6.68191e-10 -0.369298)
(1.34471 -3.13427e-10 -0.158297)
(0.910093 -1.30893e-09 -0.213043)
(1.41169 -3.17448e-09 -0.117943)
(1.28728 -4.64705e-09 -0.35032)
(1.06144 2.744e-09 -0.154342)
(1.69434 6.37057e-09 -0.0655439)
(1.0606 2.20751e-09 -0.200902)
(1.68518 4.8773e-09 -0.068473)
(1.08911 -2.05088e-09 -0.152474)
(1.70068 -3.47193e-09 -0.0691788)
(1.07987 -1.6278e-09 -0.198703)
(1.69205 -2.97784e-09 -0.0728091)
(0.559705 1.73252e-08 -0.121697)
(-0.427624 2.28822e-08 -0.561536)
(0.631699 1.07832e-08 -0.184904)
(-0.471341 2.60175e-09 -0.583767)
(0.945261 6.53052e-09 -0.168666)
(0.10676 4.68364e-09 -0.509484)
(0.852646 5.51494e-09 -0.127613)
(0.195717 3.26668e-09 -0.431891)
(-0.459132 6.38545e-25 0.760817)
(-0.431636 -1.93419e-09 -0.2193)
(-0.52139 -2.30713e-09 -0.822676)
(-0.474387 -2.22632e-09 -0.807194)
(-0.492686 -1.81418e-09 -0.713033)
(-0.435406 -1.7837e-09 -0.692263)
(-0.686328 -5.13103e-09 -0.867276)
(-0.622196 -4.78882e-09 -0.859223)
(-0.53409 3.93601e-09 -0.748246)
(-0.446829 -1.06305e-08 -0.720048)
(0.534143 -7.81936e-09 -0.163287)
(-0.354338 -1.1948e-08 -0.562913)
(0.626273 -2.24086e-10 -0.227219)
(-0.448382 -2.70265e-09 -0.592919)
(0.488426 2.47387e-08 -0.277313)
(-0.454167 3.74255e-08 -0.777088)
(0.521079 2.49142e-08 0.0428356)
(-0.433979 4.91306e-09 -0.632781)
(0.480935 -1.47216e-08 -0.291658)
(-0.420545 -1.87353e-08 -0.79156)
(0.513029 -1.18281e-08 0.0141563)
(-0.426136 -4.91938e-09 -0.63405)
(0.963289 -9.1696e-09 -0.212687)
(0.114935 -4.37334e-09 -0.509532)
(0.86004 -8.32295e-09 -0.174035)
(0.219681 -3.60477e-09 -0.441729)
(1.17366 7.31106e-09 -0.155171)
(0.349604 3.73033e-09 -0.273145)
(1.19854 -8.10796e-09 -0.204781)
(0.403171 -3.51598e-09 -0.270824)
(-0.449762 -4.01341e-25 1.11275)
(-0.406185 0 1.05726)
(-0.332078 0 0.91617)
(-0.268167 0 0.778819)
(-0.173963 0 0.65257)
(-0.0606197 0 0.537963)
(0.011625 0 -0.254743)
(0.0275615 0 -0.289911)
(0.041609 0 -0.287472)
(0.0416175 0 -0.325627)
(0.237546 0 -0.371763)
(0.508267 0 -0.272943)
(0.370241 0 -0.155264)
(0.558202 0 -0.127325)
(0.729661 2.99703e-25 -0.088451)
(0.98466 -4.21773e-10 0.0400601)
(1.20681 1.47161e-09 0.100843)
(1.20693 -3.49469e-10 0.101765)
(1.26604 2.16505e-09 0.0743895)
(1.26034 2.5737e-11 0.0830579)
(1.32328 -7.44756e-09 0.0447854)
(1.32237 3.28673e-09 0.0422717)
(1.34985 -7.73247e-09 0.0416421)
(1.35035 3.90848e-09 0.0315226)
(1.08087 2.82705e-09 -0.149519)
(1.67266 5.13624e-09 -0.103109)
(1.18835 4.30623e-09 -0.0884478)
(1.67779 7.1996e-09 -0.0802351)
(1.10489 -2.04014e-09 -0.14708)
(1.67509 -4.20149e-09 -0.101943)
(1.22848 -2.42087e-09 -0.0823011)
(1.67507 -5.08596e-09 -0.0828298)
(1.15352 6.02531e-09 -0.0381929)
(1.66515 8.34968e-09 -0.0592996)
(1.211 5.19976e-09 -0.124067)
(1.70159 8.40479e-09 -0.056545)
(1.18424 -3.0608e-09 -0.0505796)
(1.65764 -4.25124e-09 -0.0677435)
(1.24145 -2.9452e-09 -0.130148)
(1.68767 -5.4805e-09 -0.0567604)
(0.419942 2.08172e-09 -0.386679)
(0.702816 6.0771e-11 -0.385972)
(1.32207 2.77207e-10 -0.158458)
(1.13605 2.88378e-09 -0.390052)
(0.957192 -1.07142e-10 -0.346216)
(1.48925 -7.77383e-11 -0.198906)
(0.441091 -7.37598e-10 -0.312581)
(0.710899 -8.57449e-11 -0.391269)
(1.15304 -2.64813e-09 -0.399651)
(1.34025 1.53877e-10 -0.161482)
(0.977113 -1.13272e-10 -0.314731)
(1.5018 1.99534e-10 -0.198265)
(1.03314 -2.17136e-10 -0.273412)
(1.69019 1.73203e-10 -0.126662)
(1.04414 -1.51018e-10 -0.320704)
(1.69441 1.81875e-12 -0.141921)
(1.05642 -1.21894e-10 -0.261615)
(1.69635 4.16936e-11 -0.129321)
(1.06513 8.16429e-11 -0.317969)
(1.70044 2.40872e-10 -0.144762)
(0.360209 8.48952e-09 -0.140569)
(-0.0480224 4.95773e-09 -0.578665)
(0.545795 5.81459e-09 -0.234983)
(-0.0940983 4.19908e-09 -0.566799)
(0.816481 1.50534e-09 -0.27157)
(0.0142128 1.4338e-09 -0.670083)
(0.67625 1.42046e-09 -0.269346)
(0.143967 1.2186e-09 -0.588272)
(-0.5557 0 0.708545)
(-0.537091 -1.38979e-09 -0.273809)
(-0.542877 -3.70837e-09 -0.906233)
(-0.508492 -3.65175e-09 -0.934045)
(-0.512682 -4.04843e-09 -0.88662)
(-0.473267 -4.09354e-09 -0.898571)
(-0.645591 -8.83257e-10 -1.01098)
(-0.61977 -1.42261e-09 -1.04548)
(-0.691579 -3.36742e-09 -0.937526)
(-0.657273 -3.03249e-09 -0.960153)
(-0.784275 1.6028e-08 -1.1038)
(-0.514774 1.88713e-08 -1.0016)
(-0.781806 1.2593e-08 -1.10273)
(-0.510032 1.60867e-08 -1.00633)
(-0.732779 -1.06171e-08 -1.11909)
(-0.474168 -1.96953e-08 -1.06233)
(-0.715538 -9.29828e-09 -1.08729)
(-0.450772 -1.83971e-08 -1.04924)
(-0.562637 1.02029e-08 -1.05125)
(-0.241847 1.368e-08 -0.833474)
(-0.462069 1.18023e-08 -0.956573)
(-0.757021 1.17575e-08 -1.07827)
(-0.50606 1.40601e-08 -0.984378)
(-0.0131723 1.86938e-08 -0.106428)
(-0.477666 -5.92564e-09 -0.990577)
(-0.228834 -1.03846e-08 -0.808587)
(-0.362993 -1.41059e-08 -0.945031)
(-0.681795 -7.87605e-09 -1.04639)
(-0.432474 -1.64455e-08 -1.0125)
(0.0706193 -2.01849e-08 -0.0797005)
(0.379172 -1.05275e-08 -0.184593)
(-0.0413761 -4.5794e-09 -0.585682)
(0.557355 -8.80454e-09 -0.280075)
(-0.0921923 -4.50682e-09 -0.582998)
(0.198164 1.20205e-08 -0.283481)
(-0.144047 6.16836e-09 -0.609192)
(0.209213 -1.28495e-08 -0.289198)
(-0.129168 -6.08469e-09 -0.623)
(0.838451 -3.00003e-09 -0.311428)
(0.0496896 -1.80577e-09 -0.660072)
(0.720146 -2.60305e-09 -0.309173)
(0.168519 -2.11121e-09 -0.575036)
(1.04856 2.61965e-09 -0.235647)
(0.295958 1.72641e-09 -0.485963)
(1.07122 -3.3925e-09 -0.282116)
(0.33662 -1.96878e-09 -0.466154)
(-0.566773 -4.8263e-25 1.01798)
(-0.448687 0 0.946313)
(-0.387502 0 0.81118)
(-0.293844 0 0.67398)
(-0.183327 0 0.545826)
(-0.0644923 0 0.425128)