/*--------------------------------*- C++ -*----------------------------------*\
| =========                 |                                                 |
| \\      /  F ield         | OpenFOAM: The Open Source CFD Toolbox           |
|  \\    /   O peration     | Version:  5.x                                   |
|   \\  /    A nd           | Web:      www.OpenFOAM.org                      |
|    \\/     M anipulation  |                                                 |
\*---------------------------------------------------------------------------*/
FoamFile
{
    version     2.0;
    format      ascii;
    class       surfaceVectorField;
    location    "0.9";
    object      Uf;
}
// * * * * * * * * * * * * * * * * * * * * * * * * * * * * * * * * * * * * * //

dimensions      [0 1 -1 0 0 0 0];

internalField   nonuniform List<vector> 
30582
(
(0.214437 0 0.00274865)
(0.210299 0 -0.000161784)
(0.213012 0 0.00358495)
(0.217696 0 0.000569934)
(0.213937 0 -0.00241869)
(0.209667 0 -0.000116616)
(0.210137 0 0.00318222)
(0.209536 0 0.00117052)
(0.212013 0 -0.00199044)
(0.216572 0 0.00133981)
(0.212643 0 0.00380685)
(0.208403 0 0.000458752)
(0.208729 0 0.00228896)
(0.210473 0 0.000583571)
(0.209234 0 -0.00161759)
(0.208645 0 0.00230195)
(0.211059 0 0.00594511)
(0.213891 0 0.00197323)
(0.210132 0 -0.00160531)
(0.206428 0 0.00205283)
(0.208484 0 0.00161024)
(0.207661 0 0.000103294)
(0.208052 0 -0.00174367)
(0.210085 0 0.00107356)
(0.208803 0 0.00533007)
(0.205963 0 0.0032206)
(0.206746 0 -0.00114031)
(0.210185 0 0.00332772)
(0.20666 0 0.00741319)
(0.203171 0 0.0050544)
(0.206479 0 0.00146369)
(0.208693 0 0.000861398)
(0.208114 0 -0.000818948)
(0.207936 0 7.71747e-05)
(0.208334 0 0.00310133)
(0.208377 0 0.00126804)
(0.204802 0 -0.00128203)
(0.202698 0 0.00401219)
(0.20438 0 0.00899468)
(0.203717 0 0.00423946)
(0.199978 0 0.0012832)
(0.199574 0 0.0107352)
(0.201019 0 0.00202524)
(0.204122 0 0.00238688)
(0.206808 0 0.0015496)
(0.209669 0 0.00142217)
(0.209712 0 0.00262438)
(0.207442 0 -0.000504232)
(0.20537 0 -0.00265024)
(0.206596 0 0.00103276)
(0.203351 0 0.00675657)
(0.196752 0 0.00443142)
(0.194792 0 -0.000813849)
(0.196405 0 0.006314)
(0.195904 0 0.01654)
(0.193757 0 0.0180817)
(0.191002 0 0.00287984)
(0.196964 0 0.00445824)
(0.20174 0 0.00462619)
(0.205476 0 0.0046026)
(0.208887 0 0.00495945)
(0.210625 0 0.00177664)
(0.208438 0 -0.00178424)
(0.207594 0 -0.00179883)
(0.206229 0 0.00224917)
(0.202901 0 -0.00016039)
(0.194602 0 -0.00282388)
(0.190502 0 0.00450904)
(0.191973 0 0.0121255)
(0.181287 0 0.00788613)
(0.179131 0 0.00826253)
(0.155841 0 0.0320943)
(0.177036 0 0.00365905)
(0.184421 0 0.00632664)
(0.191824 0 0.00777882)
(0.198347 0 0.00887119)
(0.203779 0 0.009296)
(0.207295 0 0.00683566)
(0.209648 0 0.00301474)
(0.212632 0 0.00125694)
(0.211532 0 0.00183091)
(0.206931 0 -0.004036)
(0.200227 0 -0.0068695)
(0.198981 0 -0.00249221)
(0.192399 0 0.00525907)
(0.178552 0 0.0043356)
(0.170023 0 -1.09793e-05)
(0.149503 0 0.0115296)
(0.127041 0 0.0360542)
(-0.124577 0 -0.0262828)
(0.160232 0 0.00420599)
(0.168799 0 0.00774833)
(0.177718 0 0.0103683)
(0.18561 0 0.012717)
(0.193643 0 0.0142081)
(0.200456 0 0.0133819)
(0.205772 0 0.0102934)
(0.210364 0 0.00853008)
(0.214214 0 0.00756898)
(0.214977 0 0.000104796)
(0.210189 0 -0.00618595)
(0.206235 0 -0.00823908)
(0.200927 0 -0.00319488)
(0.193834 0 -0.00602677)
(0.176639 0 -0.00719679)
(0.166169 0 0.00164134)
(0.150205 0 0.0124468)
(0.0191625 0 0.00226346)
(-0.231474 0 -0.058284)
(-0.274886 0 0.064293)
(0.141959 0 0.00447078)
(0.150966 0 0.00857767)
(0.160663 0 0.0121245)
(0.169624 0 0.0156125)
(0.179103 0 0.0183217)
(0.187458 0 0.019304)
(0.195906 0 0.0178467)
(0.203755 0 0.0177729)
(0.210228 0 0.0168447)
(0.214236 0 0.0102727)
(0.215772 0 0.00229119)
(0.217893 0 -0.00229314)
(0.213469 0 -0.00360263)
(0.205835 0 -0.0135309)
(0.194131 0 -0.0172865)
(0.200469 0 -0.0132767)
(0.186088 0 -0.0050309)
(0.0887405 0 -0.0129701)
(-0.0380123 0 -0.0245953)
(-0.0187217 0 -0.0751247)
(-0.0573209 0 0.0390103)
(-0.0405803 0 0.0868128)
(0.123457 0 0.00448437)
(0.132388 0 0.00884099)
(0.142128 0 0.0129758)
(0.151378 0 0.0172783)
(0.161488 0 0.0210931)
(0.170891 0 0.023735)
(0.180925 0 0.0240995)
(0.190293 0 0.0260908)
(0.19996 0 0.0268779)
(0.208137 0 0.0223426)
(0.214238 0 0.0149741)
(0.219121 0 0.0109433)
(0.222247 0 0.00704014)
(0.221891 0 -0.00606342)
(0.213615 0 -0.0168492)
(0.224299 0 -0.0217515)
(0.225189 0 -0.0169128)
(0.196018 0 -0.0294841)
(0.0960741 0 -0.0402878)
(0.00111559 0 -0.0675702)
(0.0192027 0 -0.112528)
(0.0760948 0 -0.105735)
(0.100845 0 -0.0483177)
(0.0621595 0 0.047184)
(0.105665 0 0.00430583)
(0.114135 0 0.00865326)
(0.123406 0 0.013044)
(0.132431 0 0.0177869)
(0.142404 0 0.0223739)
(0.151971 0 0.0262367)
(0.162556 0 0.0282841)
(0.172819 0 0.0322048)
(0.184001 0 0.0351289)
(0.194016 0 0.0333206)
(0.204255 0 0.0279519)
(0.213464 0 0.0267855)
(0.220643 0 0.0232004)
(0.225518 0 0.0116446)
(0.22608 0 -0.00238807)
(0.250422 0 -0.0114169)
(0.260111 0 -0.0140789)
(0.279252 0 -0.0364857)
(0.24213 0 -0.0499733)
(0.112678 0 -0.0900232)
(0.0197272 0 -0.110813)
(0.014828 0 -0.0677838)
(0.0654181 0 -0.0655303)
(0.0524989 0 -0.0915637)
(0.0159349 0 -0.00356927)
(0.053078 0 0.0409221)
(0.089192 0 0.00399661)
(0.0969552 0 0.00815615)
(0.105456 0 0.0125345)
(0.113894 0 0.0173836)
(0.123233 0 0.0223614)
(0.132419 0 0.0269473)
(0.142691 0 0.0302399)
(0.152885 0 0.035562)
(0.164374 0 0.0404801)
(0.175248 0 0.0412552)
(0.18725 0 0.0385071)
(0.198459 0 0.0410244)
(0.210051 0 0.0401381)
(0.220532 0 0.0314996)
(0.227879 0 0.0197213)
(0.259149 0 0.0108579)
(0.284521 0 0.00458705)
(0.351207 0 -0.0219007)
(0.366777 0 -0.0423901)
(0.238795 0 -0.0890762)
(0.103292 0 -0.128775)
(0.0576179 0 -0.124659)
(0.0562413 0 -0.0891039)
(0.0292601 0 -0.064047)
(0.0119875 0 -0.0859129)
(0.0277733 0 -0.0899846)
(0.0653625 0 -0.0385531)
(0.0297829 0 0.0152371)
(0.0743503 0 0.00361902)
(0.0812894 0 0.0074805)
(0.0888833 0 0.0116623)
(0.0965246 0 0.0163612)
(0.104965 0 0.0213956)
(0.113419 0 0.0262686)
(0.122875 0 0.0303088)
(0.132448 0 0.036416)
(0.143316 0 0.0427658)
(0.153902 0 0.0454466)
(0.166049 0 0.0451432)
(0.178037 0 0.051031)
(0.191459 0 0.0542331)
(0.204487 0 0.0494468)
(0.21776 0 0.0422243)
(0.257586 0 0.0360029)
(0.292315 0 0.031194)
(0.386025 0 0.00745054)
(0.455858 0 -0.0167149)
(0.379544 0 -0.060161)
(0.244376 0 -0.109829)
(0.104835 0 -0.148601)
(0.0592482 0 -0.147675)
(0.0505117 0 -0.125906)
(0.0253163 0 -0.0964615)
(0.0170784 0 -0.0694745)
(0.0304688 0 -0.0694104)
(0.0135001 0 -0.0760267)
(-0.0212405 0 -0.0287324)
(0.0612304 0 0.00322628)
(0.067327 0 0.00673075)
(0.0739918 0 0.0106042)
(0.080753 0 0.014986)
(0.0882001 0 0.0198283)
(0.0957451 0 0.0246617)
(0.104154 0 0.029017)
(0.112787 0 0.035374)
(0.122565 0 0.0425047)
(0.132261 0 0.0463315)
(0.143475 0 0.0477925)
(0.154923 0 0.0560434)
(0.168236 0 0.0630479)
(0.181897 0 0.0617395)
(0.197518 0 0.0588167)
(0.242775 0 0.0586167)
(0.286674 0 0.0568934)
(0.397488 0 0.0385131)
(0.497992 0 0.0182072)
(0.470605 0 -0.0109702)
(0.390894 0 -0.0558968)
(0.188627 0 -0.12309)
(0.0469208 0 -0.159792)
(0.0218545 0 -0.1434)
(0.0143879 0 -0.121585)
(0.0224106 0 -0.121376)
(0.0154085 0 -0.0916478)
(0.00904889 0 -0.0633421)
(-0.00940207 0 -0.0745729)
(0.0497748 0 0.0028514)
(0.0550786 0 0.00598235)
(0.06086 0 0.00948979)
(0.0667519 0 0.0134676)
(0.0732205 0 0.0179599)
(0.0798086 0 0.0225361)
(0.0871198 0 0.0268847)
(0.094686 0 0.0330955)
(0.103209 0 0.0404441)
(0.111726 0 0.0447881)
(0.121545 0 0.0472744)
(0.131823 0 0.0568104)
(0.143823 0 0.0664669)
(0.15647 0 0.0675033)
(0.17148 0 0.0672118)
(0.220712 0 0.0737458)
(0.269559 0 0.0754721)
(0.388789 0 0.0663701)
(0.508984 0 0.0527576)
(0.508074 0 0.0336213)
(0.490091 0 0.00186537)
(0.256311 0 -0.0543374)
(0.0492899 0 -0.116464)
(0.00520492 0 -0.124107)
(-0.0164039 0 -0.114431)
(-0.00560754 0 -0.130408)
(0.00243922 0 -0.125743)
(0.00933459 0 -0.116)
(0.00367613 0 -0.0919475)
(0.0398329 0 0.00251372)
(0.0444315 0 0.00528505)
(0.04942 0 0.00841219)
(0.0545135 0 0.0119565)
(0.0600775 0 0.0160176)
(0.0657532 0 0.0202102)
(0.0720199 0 0.02434)
(0.0785228 0 0.0301468)
(0.0858044 0 0.0372973)
(0.0930767 0 0.0417124)
(0.101407 0 0.0446383)
(0.110281 0 0.0545827)
(0.120576 0 0.0657684)
(0.131513 0 0.0679184)
(0.144619 0 0.068715)
(0.196308 0 0.0801122)
(0.247641 0 0.0850193)
(0.368877 0 0.0838527)
(0.496637 0 0.0785898)
(0.501996 0 0.0719639)
(0.516702 0 0.0489948)
(0.290384 0 0.0217787)
(0.0628147 0 -0.0307649)
(-0.00160304 0 -0.0602503)
(-0.0437913 0 -0.0765676)
(-0.0293867 0 -0.112344)
(-0.0165454 0 -0.121793)
(-0.00567051 0 -0.122398)
(0.00114847 0 -0.117155)
(0.0312024 0 0.00222348)
(0.0352044 0 0.00467018)
(0.0395126 0 0.00743314)
(0.04391 0 0.0105517)
(0.0486799 0 0.0141569)
(0.0535405 0 0.0179086)
(0.0588684 0 0.0216973)
(0.0643949 0 0.0269572)
(0.07054 0 0.0336374)
(0.0766363 0 0.0378403)
(0.0835654 0 0.0408095)
(0.0910548 0 0.050546)
(0.0996561 0 0.0623423)
(0.108665 0 0.0647577)
(0.119526 0 0.0655891)
(0.173085 0 0.0799082)
(0.225872 0 0.0874939)
(0.345533 0 0.0903307)
(0.472828 0 0.0913917)
(0.461441 0 0.0948309)
(0.476897 0 0.0877382)
(0.283513 0 0.089996)
(0.0647714 0 0.0617935)
(0.00524889 0 0.0209079)
(-0.0581382 0 -0.0143948)
(-0.0496184 0 -0.053978)
(-0.0337287 0 -0.0832635)
(-0.0176375 0 -0.104964)
(-0.00585881 0 -0.110774)
(0.0236584 0 0.00198554)
(0.0271794 0 0.00415541)
(0.0309284 0 0.00659085)
(0.0347478 0 0.00931529)
(0.0388496 0 0.012477)
(0.0430168 0 0.0157775)
(0.0475407 0 0.0191695)
(0.0522188 0 0.0238242)
(0.0573727 0 0.0298816)
(0.0624358 0 0.0337122)
(0.0681327 0 0.0364892)
(0.0743658 0 0.0456187)
(0.0814509 0 0.0573374)
(0.0886246 0 0.0595596)
(0.0972804 0 0.0598694)
(0.152384 0 0.0755773)
(0.206462 0 0.0850023)
(0.322016 0 0.089183)
(0.445598 0 0.0937934)
(0.400014 0 0.103113)
(0.389276 0 0.111829)
(0.243976 0 0.135233)
(0.0517623 0 0.131532)
(0.00929101 0 0.0958894)
(-0.0525648 0 0.0542467)
(-0.0513006 0 0.0184275)
(-0.0427971 0 -0.0175807)
(-0.0285016 0 -0.0500135)
(-0.0118495 0 -0.0753051)
(0.0169704 0 0.00180461)
(0.0201251 0 0.00374997)
(0.0234371 0 0.00590648)
(0.0268002 0 0.00828178)
(0.0303634 0 0.0110364)
(0.0339683 0 0.0139074)
(0.0378317 0 0.016891)
(0.0418048 0 0.0209387)
(0.0461303 0 0.0263121)
(0.0503311 0 0.0296951)
(0.0549935 0 0.0321583)
(0.0601483 0 0.0404529)
(0.065942 0 0.0516135)
(0.0715204 0 0.0534356)
(0.0782288 0 0.0530311)
(0.134501 0 0.0689922)
(0.189792 0 0.0794101)
(0.297313 0 0.0836853)
(0.414585 0 0.0901372)
(0.335806 0 0.104002)
(0.289358 0 0.122398)
(0.189404 0 0.150016)
(0.0399183 0 0.162664)
(0.0118812 0 0.140694)
(-0.0346544 0 0.110187)
(-0.0394344 0 0.0877755)
(-0.0401336 0 0.0519676)
(-0.0294165 0 0.0172421)
(-0.0147032 0 -0.0158919)
(0.0109154 0 0.00168324)
(0.0138141 0 0.00345601)
(0.0168054 0 0.00538673)
(0.0198305 0 0.00746834)
(0.0229828 0 0.0098655)
(0.0261548 0 0.0123473)
(0.0294987 0 0.01494)
(0.0329122 0 0.0184166)
(0.0365716 0 0.0231065)
(0.0400841 0 0.02602)
(0.0439142 0 0.028121)
(0.0481778 0 0.035481)
(0.0529074 0 0.0457815)
(0.0571874 0 0.0471399)
(0.0622826 0 0.0460526)
(0.119202 0 0.0614727)
(0.175496 0 0.0721719)
(0.268866 0 0.07607)
(0.375978 0 0.0833866)
(0.280792 0 0.102463)
(0.201302 0 0.126015)
(0.138253 0 0.146077)
(0.0349782 0 0.160536)
(0.0165505 0 0.152335)
(-0.0119087 0 0.13928)
(-0.0190831 0 0.130206)
(-0.0262706 0 0.10571)
(-0.0225559 0 0.0814953)
(-0.0128633 0 0.0480805)
(0.00528267 0 0.00161854)
(0.00802844 0 0.00327248)
(0.0108094 0 0.00503051)
(0.0136085 0 0.00687836)
(0.0164694 0 0.00897663)
(0.0193309 0 0.0111204)
(0.0222895 0 0.0133567)
(0.0252817 0 0.0163183)
(0.0284287 0 0.0203676)
(0.0314183 0 0.0228229)
(0.034606 0 0.024553)
(0.0381572 0 0.0309682)
(0.0420365 0 0.0402547)
(0.0453153 0 0.041158)
(0.0491406 0 0.0395131)
(0.106123 0 0.0538819)
(0.16299 0 0.0643198)
(0.237902 0 0.0677762)
(0.329428 0 0.0754136)
(0.233771 0 0.0991177)
(0.136395 0 0.125366)
(0.0981619 0 0.134032)
(0.0339308 0 0.143776)
(0.0223337 0 0.146577)
(0.00486469 0 0.146045)
(-0.00162468 0 0.144461)
(-0.00917922 0 0.133899)
(-0.0104605 0 0.122325)
(-0.00790607 0 0.0996323)
(-0.000121774 0 0.00160676)
(0.00257007 0 0.00319639)
(0.00523736 0 0.00483613)
(0.00791418 0 0.00650966)
(0.0105954 0 0.00837038)
(0.0132608 0 0.0102311)
(0.015957 0 0.0121556)
(0.018656 0 0.014671)
(0.021432 0 0.0181468)
(0.0240497 0 0.0201722)
(0.0267668 0 0.0215439)
(0.0297697 0 0.0270649)
(0.0329895 0 0.0352954)
(0.0355386 0 0.0357775)
(0.0384146 0 0.033718)
(0.0947874 0 0.0467593)
(0.151688 0 0.0565525)
(0.205623 0 0.0596801)
(0.277603 0 0.0675187)
(0.192593 0 0.0938972)
(0.0940322 0 0.1201)
(0.0704684 0 0.120092)
(0.0315151 0 0.125806)
(0.0241243 0 0.135206)
(0.0135347 0 0.140377)
(0.00861709 0 0.142435)
(0.00272316 0 0.141277)
(-0.00072868 0 0.138874)
(-0.00220921 0 0.128447)
(-0.00547703 0 0.00164595)
(-0.00275508 0 0.00322393)
(-0.00010555 0 0.00480005)
(0.00254804 0 0.00635637)
(0.00514654 0 0.00804051)
(0.00772117 0 0.00967534)
(0.0102685 0 0.0113364)
(0.0127916 0 0.013478)
(0.0153241 0 0.0164621)
(0.0177047 0 0.0180956)
(0.0201036 0 0.0191287)
(0.0227056 0 0.0238425)
(0.0254336 0 0.0310568)
(0.0274891 0 0.0311535)
(0.0296962 0 0.0287962)
(0.0846103 0 0.040412)
(0.140899 0 0.0493314)
(0.173669 0 0.0523933)
(0.224317 0 0.0605277)
(0.155006 0 0.0870166)
(0.0663635 0 0.111365)
(0.0521301 0 0.107843)
(0.0279075 0 0.110739)
(0.0233876 0 0.121878)
(0.0171034 0 0.129414)
(0.0131543 0 0.133471)
(0.00878562 0 0.136965)
(0.00486741 0 0.139538)
(0.00169902 0 0.137832)
(-0.0109468 0 0.00173425)
(-0.00811882 0 0.00335186)
(-0.00539916 0 0.00491714)
(-0.00268444 0 0.00641072)
(-7.29172e-05 0 0.00797753)
(0.00251037 0 0.00944336)
(0.00500715 0 0.0108912)
(0.00746139 0 0.0127321)
(0.00986614 0 0.0153113)
(0.0121301 0 0.0165933)
(0.0143435 0 0.01731)
(0.0166757 0 0.0213253)
(0.0190591 0 0.027617)
(0.0208204 0 0.0273538)
(0.0225959 0 0.0247735)
(0.0749148 0 0.0349957)
(0.129749 0 0.0429367)
(0.144128 0 0.0463392)
(0.173979 0 0.0547696)
(0.120888 0 0.0786813)
(0.0478987 0 0.100514)
(0.0398163 0 0.0964893)
(0.0250361 0 0.0980698)
(0.0216788 0 0.10929)
(0.017461 0 0.117141)
(0.0144731 0 0.121701)
(0.0111949 0 0.127294)
(0.00729727 0 0.132299)
(0.00367355 0 0.135253)
(-0.0166793 0 0.00187162)
(-0.0136705 0 0.003576)
(-0.0108081 0 0.00518194)
(-0.00795605 0 0.00666647)
(-0.00524284 0 0.00817268)
(-0.00256641 0 0.00952309)
(-2.53257e-05 0 0.0108072)
(0.00246051 0 0.0124198)
(0.00483813 0 0.0146819)
(0.00709321 0 0.0156532)
(0.00923903 0 0.0160738)
(0.0114186 0 0.0195068)
(0.013585 0 0.025004)
(0.0152176 0 0.0243946)
(0.016759 0 0.0216212)
(0.0649563 0 0.0305689)
(0.117206 0 0.0375181)
(0.118339 0 0.0417829)
(0.130427 0 0.0504648)
(0.0913135 0 0.0694908)
(0.0352466 0 0.0878086)
(0.0312291 0 0.0852884)
(0.0229385 0 0.087169)
(0.0200561 0 0.0975654)
(0.0166618 0 0.104977)
(0.0141714 0 0.109693)
(0.0114649 0 0.115784)
(0.00794969 0 0.121567)
(0.00437674 0 0.126724)
(-0.022808 0 0.00205733)
(-0.0195543 0 0.00389165)
(-0.0164821 0 0.00558611)
(-0.0134172 0 0.00711544)
(-0.0105296 0 0.00861696)
(-0.00768302 0 0.00990623)
(-0.00500676 0 0.0110733)
(-0.00240552 0 0.012522)
(4.12212e-05 0 0.014555)
(0.00238503 0 0.0152568)
(0.00456558 0 0.0153994)
(0.00669837 0 0.0183683)
(0.00876138 0 0.0232155)
(0.0104027 0 0.02226)
(0.0118702 0 0.0192866)
(0.053939 0 0.0271357)
(0.102074 0 0.0331454)
(0.0953454 0 0.0389043)
(0.0948908 0 0.0481074)
(0.0671507 0 0.0610128)
(0.0257892 0 0.0747241)
(0.0246033 0 0.0745181)
(0.0207924 0 0.0776145)
(0.0184332 0 0.0864091)
(0.0155945 0 0.0931075)
(0.0133444 0 0.0981129)
(0.0108923 0 0.104193)
(0.00772242 0 0.109981)
(0.00436118 0 0.115805)
(-0.0294497 0 0.00228561)
(-0.0258961 0 0.00429301)
(-0.0225552 0 0.00612029)
(-0.0192128 0 0.00774793)
(-0.0160829 0 0.00929959)
(-0.0129913 0 0.0105797)
(-0.0101077 0 0.011678)
(-0.00731172 0 0.0130321)
(-0.00470837 0 0.014915)
(-0.00218733 0 0.0153813)
(0.000123195 0 0.0152639)
(0.00230433 0 0.0178842)
(0.00436497 0 0.0222324)
(0.00613044 0 0.0209226)
(0.00765687 0 0.0177122)
(0.0412127 0 0.0246648)
(0.0832272 0 0.0298358)
(0.0745144 0 0.0377029)
(0.0668401 0 0.0479723)
(0.0477945 0 0.0543555)
(0.0184584 0 0.062862)
(0.0188497 0 0.0649796)
(0.0179624 0 0.0694512)
(0.0163847 0 0.0760225)
(0.0142313 0 0.0817891)
(0.0122695 0 0.087121)
(0.0100531 0 0.0930501)
(0.00718139 0 0.0985434)
(0.00405634 0 0.104391)
(-0.0367027 0 0.00254929)
(-0.0328036 0 0.00477229)
(-0.0291444 0 0.0067761)
(-0.0254704 0 0.00855209)
(-0.0220386 0 0.010208)
(-0.018637 0 0.0115297)
(-0.0154781 0 0.0126051)
(-0.0124128 0 0.0139298)
(-0.00957779 0 0.0157456)
(-0.00679995 0 0.016016)
(-0.00427362 0 0.0156496)
(-0.00195365 0 0.0180282)
(0.000197891 0 0.0220278)
(0.00218483 0 0.0203488)
(0.00388024 0 0.0168465)
(0.0265261 0 0.0231166)
(0.0600231 0 0.0275737)
(0.054728 0 0.0379093)
(0.0453409 0 0.0498611)
(0.0326358 0 0.0497574)
(0.0127253 0 0.0533866)
(0.0138848 0 0.0575134)
(0.0144637 0 0.0629026)
(0.0136879 0 0.0668727)
(0.0123733 0 0.0716243)
(0.0108917 0 0.0770102)
(0.00903086 0 0.0826239)
(0.00650174 0 0.0876548)
(0.0036588 0 0.0932686)
(-0.0446441 0 0.00284354)
(-0.0403658 0 0.00531881)
(-0.036349 0 0.00754179)
(-0.0322991 0 0.00951278)
(-0.0285165 0 0.0113249)
(-0.0247498 0 0.0127393)
(-0.0212554 0 0.0138374)
(-0.0178551 0 0.0151982)
(-0.0147197 0 0.0170251)
(-0.0116109 0 0.0171374)
(-0.00879169 0 0.0165397)
(-0.00625117 0 0.0187847)
(-0.00392355 0 0.0225781)
(-0.001623 0 0.0205094)
(0.000337244 0 0.0166497)
(0.0102961 0 0.0224442)
(0.0328829 0 0.0263224)
(0.0342782 0 0.0388845)
(0.028657 0 0.0528827)
(0.0209286 0 0.0474321)
(0.00762674 0 0.0469701)
(0.00939296 0 0.0526161)
(0.0107223 0 0.0579885)
(0.0105274 0 0.0595743)
(0.00998515 0 0.0632186)
(0.00910328 0 0.068165)
(0.00778155 0 0.0732728)
(0.00569485 0 0.0776743)
(0.00321402 0 0.0828688)
(-0.0533267 0 0.00316271)
(-0.0486489 0 0.00591922)
(-0.0442488 0 0.00839872)
(-0.0397902 0 0.0106096)
(-0.0356186 0 0.0126278)
(-0.0314423 0 0.0141858)
(-0.0275623 0 0.0153526)
(-0.0237711 0 0.0168159)
(-0.0202742 0 0.0187308)
(-0.0167669 0 0.0187252)
(-0.0135846 0 0.0179148)
(-0.0107477 0 0.0201273)
(-0.00816451 0 0.0238552)
(-0.00547155 0 0.0213836)
(-0.00315972 0 0.0170944)
(-0.00642761 0 0.0226145)
(0.00343757 0 0.0260366)
(0.0130024 0 0.0398594)
(0.0142078 0 0.0556589)
(0.0116554 0 0.0472791)
(0.00360843 0 0.0434753)
(0.0052956 0 0.0497258)
(0.0072519 0 0.054933)
(0.00731981 0 0.054562)
(0.00720391 0 0.0568332)
(0.00700452 0 0.0611063)
(0.00629205 0 0.0654578)
(0.00472689 0 0.068971)
(0.0027167 0 0.0735681)
(-0.0627752 0 0.00349848)
(-0.0576933 0 0.00655734)
(-0.0528992 0 0.00932367)
(-0.048014 0 0.0118165)
(-0.0434282 0 0.0140887)
(-0.0388103 0 0.0158402)
(-0.0345059 0 0.017122)
(-0.0302778 0 0.0187546)
(-0.0263679 0 0.0208333)
(-0.0224045 0 0.0207546)
(-0.0187959 0 0.0197559)
(-0.0155893 0 0.0220342)
(-0.0126772 0 0.0258256)
(-0.00952393 0 0.0229424)
(-0.0067857 0 0.0181629)
(-0.0223623 0 0.0236056)
(-0.0256852 0 0.0266961)
(-0.00853738 0 0.0401468)
(0.000920362 0 0.0571415)
(0.00363136 0 0.0477182)
(0.000906226 0 0.0420061)
(0.00232013 0 0.0488492)
(0.00401967 0 0.0537982)
(0.00436196 0 0.0515708)
(0.00455297 0 0.0523406)
(0.00481782 0 0.0560484)
(0.00467884 0 0.0595271)
(0.00364541 0 0.0619949)
(0.00215717 0 0.0657665)
(-0.0729874 0 0.00384074)
(-0.0675125 0 0.00721428)
(-0.0623292 0 0.01029)
(-0.057016 0 0.0131018)
(-0.0520073 0 0.0156724)
(-0.0469305 0 0.0176651)
(-0.0421767 0 0.0191085)
(-0.0374777 0 0.0209777)
(-0.0331138 0 0.0232943)
(-0.0286468 0 0.0231933)
(-0.0245581 0 0.0220394)
(-0.0209149 0 0.0244792)
(-0.0176047 0 0.0284544)
(-0.0139278 0 0.0251631)
(-0.0106958 0 0.0198449)
(-0.0365831 0 0.0253815)
(-0.0521813 0 0.0282646)
(-0.0296442 0 0.0398426)
(-0.0125538 0 0.0567192)
(-0.00376493 0 0.0482585)
(-0.00110559 0 0.0417687)
(3.76175e-07 0 0.0489081)
(0.00141882 0 0.0539097)
(0.00192418 0 0.0503603)
(0.00227912 0 0.0496076)
(0.00279255 0 0.0528687)
(0.00312521 0 0.0555666)
(0.00256243 0 0.0569195)
(0.00156614 0 0.0597552)
(-0.0839263 0 0.00417711)
(-0.0780891 0 0.00786692)
(-0.0725405 0 0.0112659)
(-0.0668154 0 0.0144279)
(-0.0613918 0 0.0173359)
(-0.0558565 0 0.0196148)
(-0.050645 0 0.0212653)
(-0.0454562 0 0.0234382)
(-0.040611 0 0.0260645)
(-0.0356052 0 0.0259989)
(-0.0309933 0 0.0247338)
(-0.0268531 0 0.0274276)
(-0.0230811 0 0.0316962)
(-0.0188296 0 0.0280189)
(-0.0150443 0 0.0221366)
(-0.048781 0 0.0279243)
(-0.0746645 0 0.0307002)
(-0.0495225 0 0.0394069)
(-0.026846 0 0.0548199)
(-0.0117745 0 0.0486008)
(-0.00294135 0 0.0427187)
(-0.00187557 0 0.0493636)
(-0.000797831 0 0.054439)
(6.71377e-05 0 0.0502192)
(0.000583927 0 0.0483815)
(0.00117899 0 0.0513453)
(0.00171192 0 0.053376)
(0.0015321 0 0.0536754)
(0.0010029 0 0.0555787)
(-0.0955232 0 0.00449205)
(-0.0893712 0 0.0084884)
(-0.0834999 0 0.0122132)
(-0.0774003 0 0.0157484)
(-0.0715904 0 0.0190266)
(-0.0656159 0 0.0216326)
(-0.0599561 0 0.0235344)
(-0.054277 0 0.0260769)
(-0.0489399 0 0.0290814)
(-0.0433761 0 0.0291163)
(-0.0382121 0 0.027797)
(-0.0335231 0 0.0308336)
(-0.0292325 0 0.0354924)
(-0.024368 0 0.0314751)
(-0.0199808 0 0.0250353)
(-0.0591933 0 0.0312097)
(-0.0929085 0 0.0339741)
(-0.0682183 0 0.0395089)
(-0.0426717 0 0.0525137)
(-0.0206481 0 0.049279)
(-0.00541328 0 0.0446964)
(-0.00404983 0 0.0501155)
(-0.00296659 0 0.0549141)
(-0.00152785 0 0.0506692)
(-0.000667656 0 0.0482679)
(-2.13303e-05 0 0.0509594)
(0.000578609 0 0.0525288)
(0.000685644 0 0.0520037)
(0.000516921 0 0.0530794)
(-0.107666 0 0.004765)
(-0.101271 0 0.00904799)
(-0.095141 0 0.0130892)
(-0.088724 0 0.0170092)
(-0.0825772 0 0.0206813)
(-0.076206 0 0.0236498)
(-0.0701295 0 0.0258444)
(-0.0639794 0 0.0288196)
(-0.0581584 0 0.032266)
(-0.0520369 0 0.0324746)
(-0.0463093 0 0.0311717)
(-0.0410327 0 0.0346364)
(-0.0361773 0 0.0397677)
(-0.0306758 0 0.0354849)
(-0.0256514 0 0.0285349)
(-0.068337 0 0.0352062)
(-0.107507 0 0.0380371)
(-0.0867879 0 0.0406456)
(-0.0614994 0 0.0509048)
(-0.0312564 0 0.0514641)
(-0.00890477 0 0.0481312)
(-0.00673381 0 0.0514568)
(-0.00539959 0 0.0555772)
(-0.00326125 0 0.0516063)
(-0.00184304 0 0.0491095)
(-0.00102359 0 0.0513767)
(-0.000380776 0 0.0526032)
(2.33766e-05 0 0.0515268)
(0.000134496 0 0.051955)
(-0.120206 0 0.00497337)
(-0.113657 0 0.00951223)
(-0.107354 0 0.0138486)
(-0.100704 0 0.0181482)
(-0.0942936 0 0.0222273)
(-0.0875893 0 0.0255852)
(-0.0811504 0 0.028109)
(-0.0745735 0 0.0315756)
(-0.0683 0 0.0355222)
(-0.0616424 0 0.0359839)
(-0.0553595 0 0.0347813)
(-0.0494738 0 0.0387555)
(-0.0440217 0 0.0444265)
(-0.0378772 0 0.0399842)
(-0.0321969 0 0.0326192)
(-0.0767835 0 0.0398687)
(-0.119407 0 0.0428265)
(-0.106102 0 0.0430364)
(-0.0844434 0 0.0508078)
(-0.0441558 0 0.0554759)
(-0.0134481 0 0.0537719)
(-0.0103726 0 0.0543488)
(-0.00841364 0 0.0571138)
(-0.00547269 0 0.0533369)
(-0.00335031 0 0.0509267)
(-0.00213153 0 0.0525298)
(-0.00131704 0 0.0533789)
(-0.000554026 0 0.0519403)
(-0.000151989 0 0.0518969)
(-0.132959 0 0.00510137)
(-0.126373 0 0.00984572)
(-0.119992 0 0.0144434)
(-0.113211 0 0.0190986)
(-0.106637 0 0.0235819)
(-0.0996919 0 0.0273458)
(-0.0929709 0 0.0302284)
(-0.0860354 0 0.0342373)
(-0.0793651 0 0.0387344)
(-0.0722199 0 0.0395332)
(-0.065415 0 0.038527)
(-0.0589196 0 0.0430876)
(-0.0528565 0 0.0493501)
(-0.0460833 0 0.044887)
(-0.0397474 0 0.0372546)
(-0.0850311 0 0.0451316)
(-0.129539 0 0.0482586)
(-0.126435 0 0.0466545)
(-0.111734 0 0.052412)
(-0.0596609 0 0.0609934)
(-0.0185437 0 0.0617522)
(-0.0144797 0 0.0587695)
(-0.0116499 0 0.0601035)
(-0.00817024 0 0.0564038)
(-0.00537533 0 0.053951)
(-0.00358015 0 0.0546)
(-0.00238968 0 0.0549286)
(-0.00117826 0 0.0531871)
(-0.000421761 0 0.0527501)
(-0.139134 0 0.0100125)
(-0.145698 0 0.0051364)
(-0.132873 0 0.0148197)
(-0.126094 0 0.01979)
(-0.119466 0 0.0246563)
(-0.112394 0 0.0288293)
(-0.105498 0 0.0320889)
(-0.0983038 0 0.0366802)
(-0.0913218 0 0.0417687)
(-0.0837636 0 0.042989)
(-0.0764966 0 0.042283)
(-0.0694192 0 0.0475027)
(-0.0627557 0 0.0543949)
(-0.0553895 0 0.0500808)
(-0.0484191 0 0.0423815)
(-0.0934755 0 0.0509052)
(-0.138675 0 0.0542317)
(-0.1484 0 0.0513598)
(-0.143488 0 0.0556096)
(-0.0778576 0 0.067922)
(-0.0245088 0 0.0716748)
(-0.0189237 0 0.0649184)
(-0.0151069 0 0.0645796)
(-0.0111399 0 0.061004)
(-0.00779308 0 0.0583404)
(-0.00540686 0 0.057939)
(-0.00369469 0 0.0575165)
(-0.0019518 0 0.0554141)
(-0.00075905 0 0.0545448)
(-0.139066 0 0.0201498)
(-0.14577 0 0.0149182)
(-0.159772 0 0.00995727)
(-0.174559 0 0.00480109)
(-0.132595 0 0.025361)
(-0.125546 0 0.0299269)
(-0.118598 0 0.0335677)
(-0.11127 0 0.0387662)
(-0.104092 0 0.0444736)
(-0.0962305 0 0.0461955)
(-0.0885929 0 0.0458973)
(-0.0809916 0 0.051843)
(-0.0737662 0 0.0593902)
(-0.0658688 0 0.0554211)
(-0.058311 0 0.0479079)
(-0.102421 0 0.0570687)
(-0.147392 0 0.0606167)
(-0.171881 0 0.0569551)
(-0.179429 0 0.0599766)
(-0.0989803 0 0.0758619)
(-0.0317144 0 0.0827514)
(-0.0238282 0 0.072748)
(-0.0185227 0 0.0702269)
(-0.0141674 0 0.0671661)
(-0.0103872 0 0.0641004)
(-0.0074352 0 0.0626809)
(-0.00513667 0 0.061417)
(-0.00288936 0 0.0588546)
(-0.00118624 0 0.0574451)
(-0.138858 0 0.0305346)
(-0.145808 0 0.0256107)
(-0.160148 0 0.0200838)
(-0.175122 0 0.0138495)
(-0.186444 0 0.00870443)
(-0.197917 0 0.00369327)
(-0.132095 0 0.0345386)
(-0.124794 0 0.0403473)
(-0.117554 0 0.046684)
(-0.109529 0 0.0489776)
(-0.101647 0 0.0491896)
(-0.0936197 0 0.0559222)
(-0.085907 0 0.0641416)
(-0.077564 0 0.0607296)
(-0.0694921 0 0.0536981)
(-0.112093 0 0.0634621)
(-0.156127 0 0.0672493)
(-0.19597 0 0.0632393)
(-0.21804 0 0.0651683)
(-0.122718 0 0.083752)
(-0.040159 0 0.0941708)
(-0.0291488 0 0.081619)
(-0.0215919 0 0.0769134)
(-0.0169798 0 0.0748039)
(-0.0128848 0 0.0712215)
(-0.00945827 0 0.0688097)
(-0.00662823 0 0.0667306)
(-0.00389819 0 0.063645)
(-0.00169987 0 0.061615)
(-0.138587 0 0.0412678)
(-0.145751 0 0.03487)
(-0.160662 0 0.0305378)
(-0.176108 0 0.0240742)
(-0.187629 0 0.0176025)
(-0.199 0 0.0106673)
(-0.20704 0 0.00573571)
(-0.212169 0 0.00164937)
(-0.131538 0 0.0482284)
(-0.123532 0 0.0511431)
(-0.115556 0 0.0519555)
(-0.10724 0 0.059528)
(-0.0991545 0 0.0684305)
(-0.0904815 0 0.0657934)
(-0.0819978 0 0.0595703)
(-0.122638 0 0.0698831)
(-0.165188 0 0.0739299)
(-0.219771 0 0.0699789)
(-0.257228 0 0.0710915)
(-0.148407 0 0.0909229)
(-0.0505921 0 0.104954)
(-0.0350403 0 0.0909927)
(-0.0242272 0 0.0845098)
(-0.0194115 0 0.0834158)
(-0.0150359 0 0.0795417)
(-0.0113571 0 0.0762447)
(-0.00811691 0 0.0733865)
(-0.00492742 0 0.0697892)
(-0.00226034 0 0.06711)
(-0.13795 0 0.0525036)
(-0.145833 0 0.0489368)
(-0.161418 0 0.0414672)
(-0.177429 0 0.0326376)
(-0.189416 0 0.026945)
(-0.201179 0 0.0192266)
(-0.209009 0 0.0121344)
(-0.214899 0 0.00504196)
(-0.217067 0 0.00104819)
(-0.21458 0 -0.00226459)
(-0.130162 0 0.053976)
(-0.121748 0 0.0624199)
(-0.113444 0 0.0720137)
(-0.104584 0 0.0703666)
(-0.0958181 0 0.0652909)
(-0.134138 0 0.0760912)
(-0.174778 0 0.0804327)
(-0.242577 0 0.0769027)
(-0.295075 0 0.0775954)
(-0.175505 0 0.0971979)
(-0.064109 0 0.114449)
(-0.042115 0 0.100472)
(-0.0265578 0 0.0928385)
(-0.0214933 0 0.0926102)
(-0.0168501 0 0.0887634)
(-0.0130086 0 0.0846527)
(-0.00947743 0 0.0811857)
(-0.00592462 0 0.0771559)
(-0.00282084 0 0.0738665)
(-0.136879 0 0.06434)
(-0.145221 0 0.0550178)
(-0.162113 0 0.053059)
(-0.179432 0 0.0466926)
(-0.19196 0 0.0369345)
(-0.204236 0 0.0258002)
(-0.21231 0 0.0190365)
(-0.218329 0 0.0109228)
(-0.220788 0 0.00385622)
(-0.221359 0 -0.00446203)
(-0.213307 0 -0.00722726)
(-0.199186 0 -0.0123545)
(-0.128643 0 0.0746315)
(-0.119785 0 0.0741548)
(-0.110909 0 0.0705637)
(-0.146637 0 0.0818134)
(-0.18503 0 0.0865132)
(-0.264 0 0.0837301)
(-0.330187 0 0.0843749)
(-0.203838 0 0.102603)
(-0.0818759 0 0.12281)
(-0.0511093 0 0.109975)
(-0.0289507 0 0.101904)
(-0.0234126 0 0.102162)
(-0.0184224 0 0.0985551)
(-0.0144412 0 0.0937013)
(-0.010692 0 0.0898308)
(-0.00682933 0 0.0854806)
(-0.00334789 0 0.0816994)
(-0.135815 0 0.0768582)
(-0.14457 0 0.0759931)
(-0.162597 0 0.065454)
(-0.181147 0 0.0527482)
(-0.19494 0 0.0477878)
(-0.208557 0 0.0385528)
(-0.216962 0 0.0268052)
(-0.223539 0 0.0142342)
(-0.22601 0 0.00714599)
(-0.225896 0 -0.00166758)
(-0.22212 0 -0.00964669)
(-0.216205 0 -0.0238374)
(-0.212311 0 -0.0281621)
(-0.143649 0 -0.0198189)
(-0.127134 0 0.0750134)
(-0.160279 0 0.0866815)
(-0.196071 0 0.0918766)
(-0.284103 0 0.0901887)
(-0.361908 0 0.0910172)
(-0.233791 0 0.107367)
(-0.105423 0 0.130254)
(-0.0628406 0 0.119838)
(-0.0318284 0 0.111916)
(-0.0254245 0 0.112044)
(-0.0199005 0 0.108673)
(-0.0157508 0 0.103206)
(-0.0118146 0 0.0990641)
(-0.00765522 0 0.0944803)
(-0.00383904 0 0.0903505)
(-0.175015 0 0.0902414)
(-0.144162 0 0.078173)
(-0.163427 0 0.0787538)
(-0.183119 0 0.0733131)
(-0.198079 0 0.0596532)
(-0.212988 0 0.0432814)
(-0.222502 0 0.035542)
(-0.230266 0 0.0247428)
(-0.233243 0 0.0119074)
(-0.234492 0 -0.00245864)
(-0.231069 0 -0.0103305)
(-0.22444 0 -0.0226893)
(-0.226245 0 -0.0364106)
(-0.199939 0 -0.0435539)
(-0.118144 0 -0.0336783)
(-0.082159 0 -0.0692699)
(-0.208167 0 0.0961304)
(-0.30324 0 0.0960203)
(-0.389615 0 0.0973534)
(-0.266804 0 0.111205)
(-0.136868 0 0.135983)
(-0.0781377 0 0.130797)
(-0.0353893 0 0.123303)
(-0.0276796 0 0.122444)
(-0.0213539 0 0.119055)
(-0.0170078 0 0.11309)
(-0.0129011 0 0.108728)
(-0.00843677 0 0.103973)
(-0.00430764 0 0.099593)
(-0.323225 0 0.101994)
(-0.22312 0 0.0988746)
(-0.200886 0 0.0932104)
(-0.186064 0 0.0789133)
(-0.202079 0 0.072665)
(-0.218035 0 0.0617089)
(-0.228549 0 0.0452992)
(-0.237232 0 0.0269113)
(-0.241268 0 0.017673)
(-0.243529 0 0.00631984)
(-0.241902 0 -0.00784195)
(-0.239793 0 -0.0260951)
(-0.237177 0 -0.0378139)
(-0.221672 0 -0.0444991)
(-0.181267 0 -0.0524877)
(-0.165597 0 -0.104282)
(-0.144626 0 -0.132529)
(0.141902 0 -0.0489452)
(-0.414772 0 0.104316)
(-0.304252 0 0.115442)
(-0.179767 0 0.140455)
(-0.0979635 0 0.143744)
(-0.0392962 0 0.136583)
(-0.0299783 0 0.133708)
(-0.0225994 0 0.129805)
(-0.0181564 0 0.123356)
(-0.0139226 0 0.118744)
(-0.0091898 0 0.113824)
(-0.00476649 0 0.109259)
(-0.349437 0 0.127537)
(-0.447269 0 0.10828)
(-0.347876 0 0.10425)
(-0.255118 0 0.0984717)
(-0.236251 0 0.087091)