/*--------------------------------*- C++ -*----------------------------------*\
| =========                 |                                                 |
| \\      /  F ield         | OpenFOAM: The Open Source CFD Toolbox           |
|  \\    /   O peration     | Version:  5.x                                   |
|   \\  /    A nd           | Web:      www.OpenFOAM.org                      |
|    \\/     M anipulation  |                                                 |
\*---------------------------------------------------------------------------*/
FoamFile
{
    version     2.0;
    format      ascii;
    class       volScalarField;
    location    "2.4";
    object      alpha.water;
}
// * * * * * * * * * * * * * * * * * * * * * * * * * * * * * * * * * * * * * //

dimensions      [0 0 0 0 0 0 0];

internalField   nonuniform List<scalar> 
12160
(
1
1
1
1
1
1
1
1
1
1
1
1
1
1
1
1
1
1
1
1
1
1
1
1
1
1
1
1
1
1
1
1
1
1
0.999995
1
1
1
1
1
1
1
0.999998
0.992226
0.491623
1
1
1
1
1
1
1
0.994332
0.560265
0.0209226
1
1
1
1
1
1
1
0.997065
0.591095
0.0249298
0.000878649
1
1
1
1
1
1
0.999999
0.997059
0.634503
0.0271816
0.000595709
9.54625e-06
1
1
1
1
1
1
0.999997
0.996407
0.673533
0.0393356
0.000223962
4.50005e-06
5.61761e-09
1
1
1
1
1
1
0.999993
0.995587
0.711097
0.0575511
4.25109e-05
8.29701e-07
9.10162e-10
2.53147e-12
1
1
1
1
1
1
0.999991
0.995325
0.746839
0.0819292
6.57418e-05
4.43449e-08
7.17208e-10
7.03358e-13
2.35773e-17
1
1
1
1
1
1
0.999992
0.995579
0.782044
0.109257
0.000234999
5.61157e-08
8.29393e-12
1.2608e-13
5.04748e-19
1
1
1
1
1
1
0.999993
0.99609
0.817031
0.138537
0.000986024
1.30671e-07
1.63016e-11
1.02872e-15
1.07984e-17
1
1
1
1
1
1
0.999996
0.996818
0.853108
0.172515
0.00206503
6.28182e-07
3.53226e-11
1.04977e-15
3.82427e-20
1
1
1
1
1
1
0.999998
0.99761
0.8869
0.21542
0.00410708
1.88491e-06
1.11049e-10
2.30822e-15
5.06165e-20
1
1
1
1
1
1
1
0.998407
0.915384
0.272331
0.00783887
3.29897e-06
2.48048e-10
7.77493e-15
9.61194e-20
1
1
1
1
1
1
1
0.999178
0.936589
0.340136
0.0145696
2.52486e-06
4.36744e-10
1.49884e-14
3.49215e-19
1
1
1
1
1
1
1
0.999835
0.950771
0.409887
0.0254322
2.01678e-05
9.59967e-10
2.49954e-14
6.3467e-19
1
1
1
1
1
1
1
0.999995
0.959004
0.468707
0.0403918
0.000204127
7.3259e-09
4.94097e-14
9.37802e-19
1
1
1
1
1
1
1
1
0.961571
0.506718
0.0564573
0.000689818
2.02206e-07
4.38822e-13
1.55592e-18
0.999999
0.999999
1
1
1
1
1
0.999999
0.960246
0.520856
0.0686587
0.00144762
1.66706e-06
1.48686e-11
1.9378e-17
1
1
0.999999
1
1
1
1
0.999832
0.9563
0.514485
0.0740168
0.00216482
5.93815e-06
3.4422e-10
5.63321e-16
1
1
1
1
1
1
0.999998
0.999201
0.947695
0.493444
0.0726334
0.00252071
1.18035e-05
2.57112e-09
1.34227e-14
1
1
1
1
1
1
0.999996
0.998504
0.932515
0.469494
0.0666396
0.00246962
1.50749e-05
7.21449e-09
1.12329e-13
1
1
1
1
1
1
0.999992
0.997845
0.920436
0.451359
0.0576528
0.00221747
1.51918e-05
9.5081e-09
3.47769e-13
0.999999
0.999999
1
1
1
1
0.999989
0.997191
0.910145
0.430122
0.0466427
0.00199039
1.51384e-05
9.88166e-09
4.4485e-13
0.999999
0.999999
0.999999
1
1
1
0.999985
0.996486
0.899437
0.405779
0.0381396
0.0018939
1.45466e-05
1.38896e-08
4.94461e-13
1
0.999999
0.999999
0.999999
1
1
0.99998
0.995716
0.887182
0.378594
0.0315398
0.0017321
1.42541e-05
2.00627e-08
1.56234e-12
1
1
1
0.999999
0.999999
1
0.999976
0.994848
0.873155
0.348313
0.0262518
0.00154672
1.68583e-05
3.24499e-08
3.52406e-12
1
1
1
1
0.999999
0.999999
0.999972
0.993884
0.857089
0.315621
0.021871
0.00131372
2.14639e-05
6.72323e-08
9.35111e-12
1
1
1
1
1
1
0.99997
0.992928
0.839475
0.281471
0.018334
0.0010655
2.28973e-05
1.22094e-07
2.73273e-11
1
1
1
1
1
1
0.999969
0.992117
0.821733
0.247293
0.0153998
0.00088978
1.9004e-05
1.4779e-07
5.75304e-11
1
1
1
1
1
1
0.99997
0.991501
0.805513
0.215057
0.0128624
0.000733242
1.50883e-05
1.23043e-07
6.51967e-11
1
1
1
1
1
1
0.999968
0.990909
0.791322
0.18653
0.010687
0.000568174
1.0368e-05
1.01423e-07
4.68755e-11
1
1
1
1
1
1
0.999964
0.989918
0.777289
0.163418
0.00879066
0.000415349
5.7668e-06
6.79984e-08
3.74491e-11
1
1
1
1
1
1
0.999955
0.988361
0.758053
0.144639
0.00726056
0.000268216
3.27487e-06
2.9834e-08
2.29265e-11
1
1
1
1
1
1
0.999924
0.986304
0.730659
0.127911
0.00609682
0.000134024
2.01308e-06
1.0733e-08
7.69277e-12
1
1
1
1
1
1
0.999866
0.983134
0.698298
0.112807
0.00511218
5.68211e-05
1.01844e-06
3.89555e-09
1.87862e-12
1
1
1
1
1
1
0.999779
0.979758
0.667936
0.102578
0.00436102
2.8636e-05
4.20717e-07
1.21575e-09
3.87777e-13
1
1
1
1
1
0.999999
0.999666
0.976802
0.643869
0.0972949
0.00396959
2.1254e-05
1.67833e-07
3.07964e-10
5.76804e-14
0.999999
1
1
1
1
1
0.999529
0.974379
0.625246
0.0950431
0.00373219
2.79341e-05
7.23642e-08
7.70375e-11
8.40772e-15
0.999382
0.999998
1
1
1
1
1
0.972207
0.610216
0.0933196
0.00349564
3.34224e-05
4.60394e-08
2.18911e-11
1.87426e-15
0.970482
0.999144
0.999996
1
1
1
1
1
0.597612
0.0912418
0.00322868
3.12434e-05
5.25687e-08
1.09631e-11
5.61868e-16
0.586716
0.968604
0.998786
0.999994
1
1
1
1
1
0.0889164
0.00297255
2.58129e-05
5.74107e-08
1.22422e-11
5.28523e-16
0.0864112
0.570636
0.965321
0.998451
0.999987
1
1
1
1
1
0.00274483
2.03453e-05
4.59137e-08
1.74667e-11
7.47255e-16
0.00255522
0.0822345
0.553363
0.961173
0.997768
0.999969
0.999998
1
1
0.999999
1
1.60265e-05
3.06559e-08
1.65747e-11
1.15461e-15
1.30034e-05
0.00234352
0.0793947
0.536267
0.955727
0.99669
0.999668
0.999962
0.999998
1
1
1
1.95032e-08
1.08542e-11
1.28678e-15
1.21909e-08
1.08054e-05
0.0024307
0.0765392
0.525282
0.950053
0.991281
0.998297
0.999899
0.999999
0.999999
1
1
1
6.37179e-12
9.87221e-16
3.4509e-12
7.70048e-09
1.38698e-05
0.00268805
0.0777348
0.517856
0.939872
0.978974
0.997627
0.999991
0.999999
1
1
1
1
1
6.76522e-16
4.48327e-16
1.36048e-12
1.37522e-08
3.16882e-05
0.0040676
0.0789343
0.511373
0.910375
0.971876
0.99956
0.999998
1
1
1
1
1
1
1
1.94082e-16
1.29739e-11
5.90345e-07
0.000449054
0.00681543
0.0783556
0.499182
0.826515
0.985944
0.999989
1
1
1
1
1
1
0.999989
0.999998
1
2.86807e-14
1.71647e-08
7.17137e-05
0.00180163
0.00826418
0.0801109
0.458722
0.807579
0.99762
1
1
1
1
1
1
0.999999
0.999972
0.999924
0.99999
0.999999
1.25886e-10
6.29996e-06
0.000608569
0.00220609
0.00830181
0.0938524
0.286595
0.894372
1
1
1
1
1
1
0.999995
0.999993
0.999937
0.999654
0.999833
0.99998
0.999999
1.24272e-07
0.000119603
0.000940663
0.00112947
0.00712165
0.0473828
0.227029
0.972972
1
1
1
1
1
0.999995
0.999981
0.99998
0.999982
0.999987
0.999982
0.999764
0.999263
0.99902
0.999802
0.999976
0.999998
6.39362e-06
0.00025041
0.000436623
0.0002686
0.00356584
0.0104228
0.476426
0.999991
1
1
1
1
0.999997
0.999969
0.999987
0.999974
0.999464
0.999981
0.999987
0.999968
0.999975
0.999934
0.999948
0.99844
0.997674
0.99897
0.999905
0.999987
0.999999
2.02376e-05
0.000158747
8.41525e-05
6.90658e-05
0.00062784
0.00550934
0.760063
0.999997
1
1
1
1
0.999993
0.999927
0.999868
0.999974
0.99997
0.999983
0.999115
0.997598
0.999692
0.999978
0.999929
0.999942
0.999099
0.999653
0.999402
0.997236
0.997549
0.999847
0.999992
0.999999
1
1.06944e-05
4.66183e-05
1.35599e-05
1.04435e-05
0.000147317
0.0223889
0.92044
1
1
1
1
1
0.999995
1
0.999996
1
0.999846
0.999794
0.999966
0.999933
0.999214
1
0.99915
1
0.9989
0.997236
0.998356
0.999774
0.999758
0.999673
0.999673
0.999106
1
0.999861
1
0.999113
1
0.999049
1
0.999677
1
0.998899
1
0.999419
1
0.999418
0.997296
0.999589
0.999989
0.999999
1
0.999998
1.71948e-06
9.40082e-06
2.17104e-06
1.24829e-06
4.5262e-05
0.0659574
0.98389
0.999999
1
1
1
1
1
1
1
0.999996
0.999998
0.999998
0.999995
0.999862
0.999582
1
0.999885
1
1
0.999404
0.99964
1
0.999839
1
1
0.999978
1
0.999975
1
0.999948
1
0.999948
1
1
0.999185
1
0.998636
1
0.998933
1
0.998863
0.99749
0.997236
0.998877
0.998863
0.999266
0.999291
0.999998
0.999265
0.999998
0.999998
1
0.999003
1
0.998832
1
0.999422
1
0.99938
1
0.999345
1
0.99791
1
0.998934
1
0.99893
1
0.99891
1
0.999338
0.999414
0.999922
0.999993
0.999999
1
0.999995
1.38239e-07
1.64305e-06
6.94081e-07
2.68802e-07
3.23475e-05
0.169593
0.980297
0.999997
1
1
1
1
1
1
0.999999
0.999999
0.999999
0.999999
0.999998
1
0.999998
1
0.999968
1
0.999999
1
0.999999
1
0.999999
1
0.999996
0.999999
0.999995
0.999999
0.999627
0.999872
1
1
0.999904
1
0.999403
0.999673
1
1
0.999884
1
0.999984
1
0.999983
1
0.999956
1
0.999954
1
1
0.998891
1
0.998581
1
0.99889
1
0.99889
0.999572
0.99835
0.997797
0.997784
0.997916
0.99791
0.999642
0.999935
1
1
0.9996
1
0.999738
1
0.997979
1
0.998144
1
0.998671
0.99823
1
0.999701
1
1
0.999047
0.99899
1
0.999671
1
1
1
0.998808
1
0.998624
1
0.998504
1
0.997913
1
0.998888
1
0.999014
1
0.99906
1
0.999413
0.999897
0.999874
0.999963
0.999998
1
0.999993
2.56274e-09
5.79154e-07
1.51069e-07
5.43237e-08
4.40908e-05
0.15054
0.926918
0.997416
0.999868
1
1
1
1
1
1
1
1
1
1
0.999999
0.999999
0.999999
1
1
1
0.999999
1
0.999999
0.999999
0.999999
1
1
1
1
1
1
1
0.999994
1
1
1
1
1
1
1
0.999996
1
0.999998
1
1
0.998659
1
0.998535
0.999902
0.999742
0.998534
0.998522
0.998231
0.998209
0.997985
0.998078
0.998377
0.998461
0.999373
1
0.998306
1
0.999
0.999948
0.998025
0.999964
0.999168
1
0.999245
1
0.998357
1
0.998359
1
0.999235
1
0.999314
1
0.997902
1
0.998207
1
0.998094
0.998895
1
1
0.999749
0.999999
0.998671
0.999192
1
1
0.999628
0.999999
1
0.99867
1
0.998607
1
0.998165
1
0.998011
0.999588
0.999427
0.999903
0.999993
1
0.999995
7.96582e-11
1.0411e-07
7.86419e-09
5.60049e-08
8.46469e-05
0.0649324
0.748006
0.969365
1
1
1
1
1
1
1
1
1
1
0.999999
0.999999
0.999999
0.999999
1
0.999999
1
0.999999
1
0.999999
0.999999
1
1
0.999999
1
1
1
0.999996
1
0.99961
0.999902
0.999747
0.999696
0.999576
0.99956
0.998595
0.998595
0.998261
0.998295
0.998525
1
0.998675
1
0.998524
1
0.998677
1
0.998957
1
0.998916
1
0.998885
1
0.998895
1
0.998982
0.999985
0.998201
0.999999
0.998892
0.999935
0.998022
0.999963
0.998643
1
0.998411
1
0.997859
1
0.997854
1
0.998227
0.998892
0.999756
0.999983
0.999999
0.999997
8.63931e-12
2.32998e-09
4.27357e-09
8.1863e-08
4.73786e-05
0.0174858
0.457605
0.891204
0.999635
0.999631
0.983891
0.983777
1
1
0.999999
0.999998
1
1
1
1
1
1
1
1
1
1
1
1
1
1
1
1
1
0.999999
1
0.999999
0.999999
1
0.999999
1
0.999999
1
1
1
1
1
0.999999
1
0.997878
0.999893
0.99983
0.999596
0.999568
0.999471
0.99944
0.999337
0.999328
0.999164
0.999144
0.998794
1
0.999002
1
0.998869
1
0.999046
1
0.999167
0.999986
0.999131
0.999997
0.999149
0.999978
0.999135
0.999998
0.999286
0.999956
0.999098
0.999921
0.996531
0.998255
0.999524
0.999977
0.999999
0.999997
3.21674e-12
5.25397e-10
7.82421e-09
3.83271e-08
1.61637e-05
0.00301235
0.176295
0.679795
1
1
0.963732
0.963608
1
1
1
1
1
1
1
1
1
1
1
1
1
1
1
1
1
1
1
1
1
1
1
1
1
1
1
1
1
1
0.996015
0.999392
0.999906
0.99985
0.999818
0.99975
0.99975
0.999708
0.999702
0.999432
0.999439
1
0.999451
1
0.99933
1
0.999503
1
0.999413
1
0.999242
1
0.99932
1
0.999334
1
0.999365
0.99912
0.999996
0.999271
0.999996
0.999257
1
0.999317
0.999999
0.999337
0.999987
0.999303
0.999993
0.999336
0.999984
0.999303
0.999995
0.995707
0.997464
0.999354
0.999992
0.999999
8.87952e-13
1.1659e-09
6.78544e-09
1.85866e-08
2.10255e-05
0.000361352
0.0488031
0.614745
0.61476
0.377542
0.377319
0.993796
1
0.974942
1
0.993646
1
0.974837
1
0.936924
0.93739
1
1
1
1
1
1
1
1
0.999362
1
0.999971
1
0.999325
1
0.99997
1
1
1
1
1
1
1
1
1
0.996143
0.998252
0.999704
0.999906
0.999842
0.9998
0.999813
0.999789
0.999792
0.999778
0.999633
0.999992
0.99998
0.999547
0.999603
1
1
0.999529
1
0.999442
1
0.999333
1
0.999529
1
0.999446
1
0.999321
1
0.999358
1
0.999367
1
0.99946
0.999323
0.999998
0.999267
1
0.995717
0.99693
0.999556
0.999998
1.24719e-12
2.17044e-09
2.29037e-09
7.33317e-07
0.000105947
0.00189387
0.0335912
0.0336212
0.00699693
0.00700737
0.539514
0.539914
0.23963
0.239599
0.985822
1
0.958389
1
0.985694
1
0.958572
1
1
0.718055
0.904808
0.831955
1
0.717116
0.905581
0.831647
1
1
1
1
1
1
1
1
1
1
0.999979
1
1
1
0.999979
1
0.998172
0.999029
0.999046
0.999337
0.99987
0.999832
0.999888
0.999863
0.999997
0.999936
0.999844
1
0.999784
1
0.999761
1
0.999666
1
0.999791
1
0.999639
1
0.99964
1
0.999722
1
0.999649
1
0.999598
1
0.999501
0.999998
0.999623
1
1
0.99946
1
0.999352
1
0.999499
1
0.999457
0.995752
0.996495
0.999757
2.26778e-11
1.30742e-09
7.87116e-08
4.80106e-05
0.00145324
0.0416333
0.0303957
0.0303035
0.0589543
0.0589375
0.470243
0.694972
0.52551
0.358439
0.522779
0.90625
0.694829
0.469945
0.907079
0.526203
0.356961
0.523122
0.122992
0.163011
0.166571
0.217281
0.121274
0.163131
0.165524
0.217411
0.980738
1
0.961325
1
0.980653
1
0.961587
1
0.996346
0.783776
0.996422
0.783468
1
0.999993
1
0.999992
0.995127
1
0.994971
1
0.99946
0.999567
0.99957
0.998676
0.998528
0.998534
0.999578
0.999622
0.999571
0.999588
0.999719
0.999726
1
0.999491
1
0.999658
1
0.999691
1
0.999406
1
0.999639
1
0.999666
0.999783
1
0.999726
1
0.999731
1
0.999637
0.999651
1
1
0.999678
1
0.999664
0.999648
1
1
0.999507
1
0.999594
1
0.993194
0.996016
1.41816e-10
2.30255e-09
1.28836e-05
0.00103393
0.0191263
0.192826
0.192573
0.097946
0.0976085
0.0739864
0.0733948
0.198423
0.198055
0.586457
0.362584
0.492682
0.695307
0.237184
0.428004
0.58637
0.361559
0.69647
0.493948
0.235714
0.428999
0.088558
0.0836771
0.152787
0.179172
0.0870464
0.0836161
0.151785
0.179781
0.901883
1
0.901947
1
0.997574
0.99957
0.99957
0.998929
0.998679
0.998635
0.998664
0.998952
0.999078
0.997417
1
0.998227
1
0.997528
1
0.998478
1
0.998825
0.999001
1
0.998777
1
1
0.998968
0.999103
1
0.998851
1
1
1
1
0.999377
0.99969
1
1
0.999482
0.999666
0.999667
1
0.999648
1
0.999687
1
0.999669
1
0.999633
1
0.999655
1
0.987078
9.08035e-12
7.86391e-07
0.000323933
0.00720578
0.055255
0.269911
0.269537
0.170567
0.170739
0.215803
0.118812
0.0825794
0.117225
0.216467
0.117885
0.0829117
0.117526
0.284031
0.2837
0.0976066
0.0643617
0.121345
0.0785723
0.0963049
0.0643016
0.120548
0.0788521
0.98767
0.999568
0.99957
0.996876
0.994115
0.998063
0.997958
0.998683
0.99866
0.998878
0.998735
0.998673
0.998741
0.997425
1
0.998241
1
0.997537
1
0.998425
1
0.998998
0.998653
1
1
0.998479
1
0.9991
0.998777
1
1
0.998637
1
1
0.999486
1
0.999525
4.80501e-09
2.60955e-05
0.00158379
0.0170022
0.128456
0.128853
0.0514493
0.0515221
0.258835
0.257866
0.2225
0.223342
0.410629
0.187465
0.306839
0.193254
0.412274
0.186711
0.307907
0.194359
0.232648
0.277607
0.224105
0.310317
0.227529
0.277475
0.224518
0.313423
0.163939
0.222361
0.163032
0.22095
0.998909
0.999515
0.995601
0.931646
0.955366
0.995411
0.995282
0.998736
0.998751
0.998955
0.998959
0.999997
0.997114
0.999997
0.99711
0.999997
0.997167
0.999997
0.997036
0.997626
0.999997
0.997748
1
0.997684
0.999997
0.997892
1
2.80088e-07
0.000135833
0.00409343
0.0230768
0.172193
0.171937
0.0516664
0.0517018
0.266266
0.239241
0.239333
0.273032
0.239241
0.253275
0.262535
0.239333
0.239241
0.269157
0.239333
0.251898
0.271154
0.271199
0.438839
0.195884
0.438825
0.224692
0.438827
0.194947
0.438753
0.225068
0.256073
0.396097
0.254629
0.400206
0.999698
0.994387
0.919116
0.59578
0.709232
0.701618
0.9291
0.927814
0.984932
0.984185
0.997775
0.997856
0.999196
0.999912
0.998363
0.999925
0.99711
0.999996
0.999103
0.99992
0.998297
0.999922
0.997035
0.999996
0.997363
0.999983
0.997389
0.999981
0.997312
1
0.997389
1
2.27141e-06
0.000411622
0.00795059
0.0279738
0.0294664
0.020303
0.0213839
0.117882
0.117117
0.0317336
0.0319206
0.285882
0.294949
0.302409
0.283802
0.346042
0.268659
0.283742
0.297747
0.306269
0.282253
0.348182
0.266811
0.175374
0.305384
0.247764
0.348589
0.173088
0.305481
0.246326
0.348189
0.998407
0.952469
0.595456
0.290831
0.739889
0.727946
0.830561
0.826398
0.939988
0.937955
0.999544
0.999907
0.999867
0.995761
0.999868
0.975097
0.999867
0.995449
0.999867
0.97383
0.999542
0.999908
0.999201
0.998178
0.999881
0.999928
0.999187
0.998053
0.999879
0.999923
0.997346
0.999987
0.997328
0.999987
1.14689e-05
0.000340091
0.012426
0.0460544
0.0474565
0.0223315
0.0234547
0.15735
0.136967
0.0227694
0.0535242
0.0281252
0.0227871
0.157405
0.136829
0.0227871
0.0541781
0.02767
0.0227694
0.02669
0.0270012
0.438254
0.273124
0.437984
0.272305
0.200492
0.371352
0.199948
0.370559
0.995525
0.880589
0.366615
0.159492
0.158731
0.535583
0.500792
0.769422
0.753158
0.766839
0.762006
0.712111
0.964162
0.871893
0.994506
0.954949
0.999868
0.708984
0.952873
0.999867
0.963363
0.867688
0.99441
0.999831
0.999867
0.987472
0.999868
0.986646
0.999826
0.999868
0.999867
1.77443e-06
0.000192796
0.0131596
0.0606961
0.061307
0.0186096
0.0193325
0.114428
0.134224
0.0227871
0.0350655
0.0508436
0.0240804
0.114169
0.1331
0.0227694
0.0356677
0.0503547
0.0254356
0.0512551
0.101406
0.0400162
0.0852709
0.0502694
0.10407
0.0400654
0.0821126
0.15271
0.33964
0.152315
0.337155
0.99478
0.879062
0.549078
0.244221
0.230855
0.546192
0.508666
0.80662
0.78751
0.715739
0.932154
0.932054
0.721544
0.917127
0.718357
0.712571
0.932007
0.933294
0.711427
0.920254
0.708209
0.810582
0.91629
0.962884
0.998043
0.913605
0.997928
0.807391
0.960767
4.49216e-06
0.0057497
0.00142992
0.0115708
0.0110982
0.00132458
4.27892e-05
4.95471e-05
0.0570096
0.0669168
0.161151
0.0565184
0.0639499
0.162331
0.0489535
0.119127
0.0601585
0.0314351
0.0569832
0.0329152
0.049142
0.118108
0.0627666
0.0314587
0.0573322
0.0344203
0.0474984
0.149995
0.0488183
0.153983
0.997413
0.9694
0.902895
0.413913
0.412301
0.497187
0.461182
0.596764
0.934825
0.755132
0.9351
0.801139
0.935302
0.5338
0.783177
0.935068
0.934548
0.703676
0.934825
0.758692
0.933041
0.802265
0.935479
0.752025
0.932107
0.788393
0.935302
0.757372
0.932331
0.751009
0.928265
0.00126135
7.84997e-05
0.00266611
6.38071e-05
0.00243881
6.30073e-05
3.85775e-05
2.94418e-05
0.0267317
0.0836624
0.144546
0.076267
0.16656
0.0235462
0.00262896
0.00256239
0.0840502
0.0275677
0.12943
0.0739669
0.16656
0.022813
0.00306442
0.00265395
0.0676453
0.0335411
0.0762581
0.0352722
0.0545472
0.152938
0.0569646
0.164378
0.998633
0.994228
0.996665
0.661711
0.658899
0.996685
0.968696
0.967606
0.7033
0.564712
0.932754
0.691046
0.513713
0.925735
0.812752
0.729561
0.935367
0.929656
0.79071
0.93446
0.673114
0.924036
0.774316
0.934052
0.82094
0.935703
0.766234
0.932951
0.805596
0.935266
5.46821e-05
1.91772e-06
0.000123269
0.00121554
0.00252731
5.96023e-06
0.000124185
0.00123376
0.00302134
4.6893e-06
3.85181e-05
2.41206e-05
0.0760599
0.00754526
0.0901896
0.138715
0.0456081
0.00240573
0.0784644
0.0920626
0.00812064
0.150487
0.0486942
0.00237887
0.059653
0.0434652
0.0643399
0.0453056
0.996361
0.995487
0.994049
0.876248
0.884099
0.994362
0.977898
0.979403
0.649256
0.47759
0.849549
0.480152
0.883036
0.927899
0.836318
0.987724
0.663141
0.434274
0.843925
0.43184
0.875021
0.926879
0.843774
0.988411
0.812533
0.669647
0.935792
0.912453
0.780431
0.935627
0.604599
0.905185
2.93464e-08
3.42687e-07
4.38222e-06
4.7774e-06
3.71659e-07
2.2796e-07
2.19936e-07
2.42307e-07
0.00022895
2.84406e-05
1.81716e-05
0.000282966
1.4563e-07
2.33045e-06
2.89036e-06
2.41467e-06
1.44506e-07
1.45892e-07
7.20909e-07
0.000279678
2.9729e-05
1.76764e-05
0.000278523
1.45892e-07
3.17388e-06
2.81468e-06
2.38126e-06
1.45892e-07
1.44154e-07
0.0329527
0.000507963
0.0167942
0.000419726
0.0336796
0.00039874
0.0220917
0.000501283
0.99289
0.99155
0.996816
0.965382
0.989711
0.87093
0.968532
0.989792
0.879543
0.996874
0.997045
0.997296
0.551015
0.678998
0.609659
0.809809
0.907399
0.93034
0.524576
0.690302
0.549438
0.896708
0.804882
0.932627
0.761885
0.938657
0.719895
0.938103
3.59899e-08
4.09481e-07
1.55998e-06
4.99918e-07
1.53104e-06
6.69357e-07
6.6387e-07
0.000117243
2.24214e-05
1.43172e-05
8.34167e-05
1.57793e-06
1.1577e-06
1.19495e-07
2.07995e-07
1.348e-07
5.7546e-07
2.60945e-07
2.52336e-07
2.18373e-07
2.9562e-07
0.00011667
2.5666e-05
8.19508e-05
1.43396e-05
2.20114e-06
1.28553e-06
1.79056e-07
1.19495e-07
1.33962e-07
4.01898e-07
2.14176e-07
2.88529e-07
2.37244e-07
3.345e-07
0.997098
0.991686
0.997247
0.997282
0.990947
0.993563
0.993752
0.996224
0.985109
0.879046
0.980257
0.838813
0.999915
0.973444
0.998492
0.997311
0.985998
0.891277
0.982795
0.848593
0.999915
0.978404
0.998969
0.998212
0.995851
0.999915
0.998474
0.997519
0.999915
0.574698
0.720998
0.824395
0.918037
0.553194
0.733122
0.825573
0.923601
2.59728e-07
1.44455e-06
1.56503e-06
1.19526e-07
3.64026e-06
1.11594e-06
1.14788e-06
1.19495e-07
3.16131e-06
1.55854e-06
1.57249e-06
3.00631e-05
2.08533e-05
1.58371e-06
8.93695e-07
1.19495e-07
1.19495e-07
1.19495e-07
1.88415e-07
6.49515e-07
1.5304e-06
3.46497e-05
2.17412e-05
1.92883e-06
1.04881e-06
1.19495e-07
1.19495e-07
1.19495e-07
2.18673e-07
5.42143e-07
1.20687e-06
0.996811
0.986444
0.997464
0.997482
0.986447
0.995209
0.995368
0.765263
0.920346
0.920914
0.984679
0.981564
0.999292
0.777923
0.929833
0.925672
0.989137
0.984562
0.999494
0.999095
0.993049
0.999915
0.992305
0.999915
0.999915
0.999713
0.999915
0.999356
0.995111
0.999915
0.994977
0.999915
0.999915
0.999736
0.999915
5.60556e-07
1.82842e-06
1.8415e-06
7.72081e-06
3.43475e-06
1.07358e-06
3.69093e-06
4.62538e-07
4.60558e-06
5.49529e-06
2.35614e-06
6.70357e-07
2.74361e-06
2.68724e-07
3.73414e-06
1.19495e-07
1.19495e-07
1.19495e-07
5.74292e-07
2.52669e-06
3.37064e-06
1.19495e-07
1.19495e-07
1.19495e-07
4.38953e-07
1.78645e-06
2.16713e-06
0.996836
0.986441
0.997753
0.999915
0.99973
0.997699
0.999915
0.999775
0.986713
0.994675
0.994767
0.943737
0.992842
0.985282
0.999915
0.949285
0.995733
0.987061
0.999915
0.995544
0.999374
0.988643
0.999892
0.999915
0.999915
0.996702
0.999585
0.990322
0.999915
0.999915
0.999915
1.53097e-15
2.07635e-06
8.8328e-07
2.04407e-06
8.50868e-07
1.88666e-05
5.78695e-06
3.62213e-06
3.12563e-06
7.04638e-06
3.42022e-07
3.67195e-06
4.50762e-06
1.31715e-05
4.67004e-06
2.24249e-06
2.37388e-06
4.77554e-06
1.57258e-07
2.28216e-06
3.60483e-06
1.19495e-07
3.96303e-06
1.19495e-07
3.06404e-06
0.997487
0.985456
0.985453
0.997306
0.999915
0.999514
0.999915
0.9996
0.997249
0.999915
0.999557
0.999915
0.99968
0.990674
0.990578
0.996787
0.989866
0.999391
0.999879
0.999915
0.999912
0.997854
0.991514
0.999591
0.999915
0.999915
0.999915
1.95471e-36
3.63484e-34
1.49998e-15
9.37728e-35
1.32132e-15
1.21427e-06
1.02647e-06
2.52069e-05
2.19999e-05
1.10377e-05
4.86415e-05
1.12336e-05
4.79043e-06
1.44625e-06
2.00899e-06
4.13933e-06
1.19495e-07
3.9472e-06
1.84492e-05
1.65521e-05
7.27125e-06
3.49602e-05
7.60883e-06
3.94145e-06
7.53985e-07
1.86057e-06
2.51517e-06
1.19495e-07
3.40486e-06
0.996059
0.985958
0.986882
0.985451
0.98545
0.99676
0.999915
0.999428
0.999915
0.999336
0.999278
0.999915
0.996639
0.999915
0.999404
0.999915
0.999272
0.999379
0.999915
0.986192
0.985869
0.998244
0.999858
0.998764
0.999896
8.70978e-17
2.4031e-17
6.03185e-20
7.75213e-18
8.95167e-19
-5.34307e-32
4.15133e-13
-4.96899e-32
2.26523e-13
9.78143e-06
6.86866e-06
5.01738e-05
1.66929e-05
5.03631e-05
9.96325e-06
1.82475e-05
4.09627e-06
3.83623e-05
4.22445e-06
4.22985e-06
1.59708e-07
3.38077e-06
9.12888e-07
3.61089e-05
8.88759e-06
4.13455e-05
7.17809e-06
1.39384e-05
2.59183e-06
2.48649e-05
2.69313e-06
2.70041e-06
1.19881e-07
2.66198e-06
4.6526e-07
0.994503
0.987593
0.98913
0.987219
0.988731
0.986352
0.985451
0.990161
0.999915
0.999406
0.999915
0.999295
0.999915
0.999048
0.999915
0.998936
0.998991
0.999887
0.990389
0.999915
0.999176
0.999915
0.999139
0.999915
0.999055
0.999915
0.998714
0.999017
0.999885
9.23773e-15
1.24619e-16
8.72021e-17
1.24145e-16
8.72021e-17
4.74291e-12
2.20477e-13
2.39837e-12
6.7495e-14
7.52575e-07
9.3726e-08
5.73707e-07
6.56128e-08
2.26999e-05
5.51601e-06
6.63702e-06
5.53613e-06
1.86234e-05
4.05047e-06
6.44336e-06
4.11968e-06
2.84495e-05
4.24519e-06
4.70676e-05
2.17178e-06
1.96352e-05
2.10599e-06
2.70178e-05
1.27095e-06
0.99615
0.989734
0.988888
0.989445
0.988872
0.989671
0.99278
0.988443
0.99216
0.984188
0.984186
0.999915
0.999546
0.999915
0.999246
0.999915
0.998705
0.999915
0.998612
0.999886
0.998643
0.999914
0.998384
0.999915
0.999379
0.999915
0.999428
0.999837
0.997771
0.999848
0.997881
0.999824
0.998469
0.999881
0.997804
2.71869e-11
2.23487e-11
6.69451e-16
1.00412e-16
2.73796e-16
9.58715e-17
2.56945e-12
1.09545e-11
1.41468e-11
2.3069e-12
7.41442e-07
3.79587e-07
1.76821e-06
1.07957e-07
3.44781e-07
4.78141e-08
1.31434e-07
5.38009e-08
6.56703e-07
2.84818e-07
1.6472e-06
8.98585e-08
2.70018e-07
3.15282e-08
9.80671e-08
3.78478e-08
1.05956e-05
1.10245e-06
3.19035e-06
1.36329e-06
9.62064e-06
1.11187e-06
3.15458e-06
1.20909e-06
0.994711
0.988872
0.991073
0.988872
0.990901
0.995188
0.994088
0.994706
0.993345
0.984186
0.993041
0.984188
0.992201
0.997943
0.996611
0.998327
0.996567
0.999729
0.998096
0.999662
0.998678
0.999915
0.999152
0.999915
0.999432
0.999915
0.998434
0.99991
0.998871
4.82282e-09
1.6218e-12
3.0515e-11
1.27741e-12
2.28488e-11
6.9051e-10
2.71491e-12
2.05935e-13
3.59578e-13
1.05187e-13
4.13232e-12
1.2387e-09
7.0356e-09
6.26692e-13
4.07306e-11
1.52931e-11
1.75326e-11
1.09272e-11
2.35745e-13
4.05956e-10
3.71579e-09
2.40814e-13
2.04013e-11
1.42718e-12
8.24281e-12
1.23478e-12
2.79885e-07
1.07824e-07
7.37482e-07
3.76735e-08
1.54246e-07
2.73712e-08
1.06039e-07
2.79334e-08
2.50952e-07
7.02308e-08
6.9385e-07
1.8778e-08
1.25285e-07
1.86495e-08
8.50608e-08
1.86214e-08
0.990796
0.998037
0.996174
0.997367
0.996184
0.997436
0.997065
0.996437
0.996457
0.995551
0.999829
0.997197
0.999661
0.997078
1
0.997927
1
0.9979
0.99991
0.996751
0.999701
0.996801
1
0.99748
1
0.997605
0.999915
0.999152
0.999915
0.99935
0.999915
0.999006
0.999915
0.999166
1.78549e-07
2.29488e-11
8.05004e-09
2.28988e-11
7.59653e-09
1.11305e-12
1.39941e-11
8.71352e-13
9.16585e-12
1.84092e-14
1.04186e-12
4.97605e-12
4.8592e-12
1.86056e-12
2.35636e-13
1.20098e-13
1.84985e-13
1.65917e-13
6.8122e-13
3.2357e-13
2.68221e-12
1.37003e-13
1.10267e-13
7.44071e-14
1.11724e-13
1.15303e-14
5.97594e-11
1.5833e-09
1.11199e-08
5.60653e-12
4.17629e-11
1.81761e-11
2.14491e-11
2.17685e-11
1.2884e-11
3.53055e-10
5.49501e-09
2.93099e-13
1.82411e-11
5.0821e-13
9.7495e-12
5.44196e-13
0.989845
0.997131
0.998269
0.995663
0.998294
0.995927
0.998529
0.999563
0.998378
0.999513
1
0.998051
1
0.998407
1
0.998739
1
0.998472
1
0.997508
1
0.997881
1
0.998032
1
0.99794
0.999915
0.998759
0.999915
0.998389
0.999835
0.996847
0.999801
0.997672
0.999913
0.998541
0.999915
0.998135
0.999836
0.996317
0.999792
0.997299
1.26102e-06
1.01631e-09
8.91424e-10
9.5038e-08
8.47687e-10
1.08188e-07
5.56727e-15
5.56727e-15
2.00338e-13
9.28361e-13
1.00994e-12
1.2948e-13
1.15879e-11
3.75183e-12
3.44745e-13
1.38249e-12
5.56727e-15
5.56727e-15
1.67888e-13
7.58257e-13
6.87919e-13
8.56171e-14
7.38892e-12
2.99921e-12
2.91866e-13
1.18792e-12
2.74598e-11
1.20524e-12
4.40996e-12
5.37933e-12
4.55948e-13
2.98846e-13
2.54303e-14
8.63311e-13
1.30352e-13
3.12503e-12
2.34416e-14
1.83652e-13
5.56727e-15
4.08556e-11
1.30217e-11
1.10468e-11
3.68462e-11
1.85523e-11
2.56024e-13
7.23805e-12
1.00519e-12
0.990895
0.994599
0.97776
0.969426
0.97698
0.96986
0.989712
0.953947
0.989242
0.955509
1
0.99947
1
0.999812
1
0.999692
1
0.9999
1
0.999002
1
0.999693
1
0.999666
1
0.999846
0.999752
0.996186
0.999735
0.996909
0.999745
0.998203
0.999874
0.997777
0.999728
0.995481
0.99972
0.99607
0.999732
0.997534
0.99984
0.997117
8.0526e-07
2.08525e-07
9.24951e-07
1.9597e-07
7.51206e-07
7.90515e-08
1.18823e-10
3.0068e-09
1.17212e-10
3.3054e-09
5.56727e-15
5.56727e-15
2.41156e-13
1.82297e-13
5.43508e-13
7.0271e-13
5.68342e-12
1.80444e-12
3.43407e-13
1.71241e-12
5.56727e-15
5.56727e-15
1.74709e-13
1.47788e-13
4.89406e-13
4.22606e-13
1.88258e-12
1.6945e-12
2.90997e-13
1.44444e-12
2.05465e-13
1.12472e-12
1.18665e-12
3.34442e-12
1.77716e-14
3.92797e-13
5.56727e-15
1.00585e-12
1.6603e-14
3.06492e-12
5.56727e-15
2.34356e-13
5.56727e-15
0.994342
0.9971
0.892742
0.810471
0.773216
0.807839
0.774907
0.987958
0.999327
0.999999
0.949301
0.999877
1
0.748355
0.923712
0.909664
0.996966
0.999176
0.986313
0.999999
0.946057
0.999999
1
0.757563
0.923852
0.906603
0.996882
0.999991
0.998836
0.999953
0.999495
0.999999
0.999735
0.999968
0.998097
0.999902
0.999126
0.999995
0.99963
0.999799
0.997681
0.999803
0.996589
0.999792
0.99724
0.999813
0.995939
1.79185e-06
2.35022e-06
1.79336e-06
2.34315e-06
1.79393e-06
7.47933e-09
4.42227e-08
4.87351e-09
2.63706e-08
3.33873e-09
3.4511e-11
6.27025e-13
2.42868e-12
8.55043e-11
2.68894e-11
4.70559e-10
3.51959e-10
2.66557e-11
3.23753e-11
3.40159e-13
1.64693e-12
8.61058e-11
2.8078e-11
1.78967e-10
3.13423e-10
2.81578e-11
5.56727e-15
2.05829e-13
1.85637e-12
2.12456e-12
1.68503e-13
1.17088e-12
5.56727e-15
1.35913e-13
6.6497e-13
1.94389e-12
1.31061e-13
8.36649e-13
2.60726e-14
0.997804
0.998708
0.973148
0.424001
0.686232
0.427757
0.689771
0.51752
0.442848
0.517613
0.443936
0.999119
0.986612
0.996927
0.999997
0.936143
0.98398
0.663612
0.91261
0.844935
0.976007
0.998826
0.988129
0.99999
0.998024
0.942558
0.987746
0.672529
0.91571
0.851335
0.978795
0.999983
0.998035
0.999906
0.998576
0.999994
0.998372
0.999946
0.997711
0.999905
0.998542
0.999976
0.998912
2.36439e-06
9.51554e-07
2.7679e-07
3.28893e-07
1.77396e-07
2.28183e-07
9.1e-09
2.09501e-09
8.23969e-09
8.40035e-10
8.62329e-09
1.18998e-09
7.0058e-10
1.97454e-09
7.0235e-10
4.80467e-09
1.14694e-08
1.742e-09
1.00192e-08
9.81702e-10
1.00013e-08
1.1783e-09
3.00474e-10
1.86891e-09
3.0279e-10
5.12324e-09
3.08603e-11
1.50176e-11
6.21639e-13
2.73707e-12
2.62524e-11
1.21715e-10
2.64509e-11
1.14182e-11
3.34627e-13
1.69692e-12
2.88527e-11
1.59248e-10
2.82342e-11
7.51799e-15
0.999476
0.998731
0.997684
0.881275
0.972341
0.883211
0.972554
0.3098
0.648328
0.308997
0.646222
0.627352
0.251647
0.704774
0.213207
0.447566
0.213207
0.339108
0.213141
0.625849
0.255557
0.707411
0.213201
0.443735
0.213201
0.338128
0.213138
0.995489
0.999885
0.485504
0.752462
0.610299
0.8506
0.998095
0.999977
0.50509
0.768336
0.636992
0.875127
2.3068e-05
1.21854e-07
1.22559e-07
1.23936e-07
1.23291e-07
7.36513e-08
8.06586e-09
5.07709e-08
8.66326e-09
4.40818e-08
2.05961e-08
3.69075e-08
9.46751e-09
3.37939e-08
4.53128e-08
4.62407e-08
9.56207e-09
1.97746e-08
3.60918e-08
3.88361e-08
2.45164e-08
4.15442e-08
1.23359e-08
3.89338e-08
5.12562e-08
4.94163e-08
1.08527e-08
2.98115e-08
4.2285e-08
3.99417e-08
8.05586e-12
3.15877e-09
1.21239e-08
4.5804e-09
1.44789e-08
4.38614e-14
0.999931
0.999022
0.99961
0.994881
0.894052
0.971287
0.893611
0.971288
0.213142
0.213141
0.388523
0.271197
0.604039
0.213057
0.579365
0.965397
0.376118
0.784523
0.213138
0.213139
0.384208
0.266645
0.601022
0.213052
0.572115
0.964999
0.370239
0.781041
0.274671
0.213207
0.270173
0.213141