/*--------------------------------*- C++ -*----------------------------------*\
| =========                 |                                                 |
| \\      /  F ield         | OpenFOAM: The Open Source CFD Toolbox           |
|  \\    /   O peration     | Version:  5.x                                   |
|   \\  /    A nd           | Web:      www.OpenFOAM.org                      |
|    \\/     M anipulation  |                                                 |
\*---------------------------------------------------------------------------*/
FoamFile
{
    version     2.0;
    format      ascii;
    class       surfaceScalarField;
    location    "2.4";
    object      alphaPhi10;
}
// * * * * * * * * * * * * * * * * * * * * * * * * * * * * * * * * * * * * * //

dimensions      [0 3 -1 0 0 0 0];

internalField   nonuniform List<scalar> 
30582
(
0.00014396
-1.13397e-06
0.000142902
1.05745e-06
0.000144016
-2.30333e-06
0.000137569
5.33285e-06
0.000142804
2.27041e-06
0.000143702
-3.11167e-06
0.000127674
9.89507e-06
0.000137437
1.06993e-05
0.000142726
3.24601e-06
0.000143074
-3.2258e-06
0.000113141
1.45333e-05
0.000127254
2.00785e-05
0.000137668
1.57575e-05
0.000140986
5.33388e-06
0.000142339
-2.51732e-06
9.57738e-05
1.73673e-05
0.000112674
2.91133e-05
0.000128099
2.96474e-05
0.000135126
2.16179e-05
0.000140526
7.14693e-06
0.000139664
9.79789e-07
7.74492e-05
1.83245e-05
9.56564e-05
3.43845e-05
0.00011395
4.32622e-05
0.000125228
3.95457e-05
0.00013512
2.70232e-05
0.000135026
1.17846e-05
0.000138906
5.36851e-06
5.82611e-05
1.91881e-05
7.75067e-05
3.64742e-05
9.67895e-05
5.15451e-05
0.000111483
5.70068e-05
0.000126158
4.85085e-05
0.000127433
3.46166e-05
0.000134932
1.5758e-05
0.000123847
2.49704e-05
3.89195e-05
1.93417e-05
5.83905e-05
3.83043e-05
7.83519e-05
5.49117e-05
9.5484e-05
6.75441e-05
0.000113636
6.95279e-05
0.000119158
5.67828e-05
0.000128687
4.08612e-05
0.000112643
2.53642e-05
2.24372e-05
-3.46839e-06
2.00131e-05
1.89064e-05
3.90172e-05
3.8715e-05
5.90041e-05
5.76521e-05
7.77582e-05
7.26375e-05
9.81166e-05
8.3064e-05
0.000109307
7.93794e-05
0.000121473
6.39974e-05
0.000107592
4.53844e-05
2.60587e-05
7.63077e-06
-7.28744e-06
2.04562e-07
2.11924e-06
1.78939e-05
2.00466e-05
3.78769e-05
3.92708e-05
5.84484e-05
5.86772e-05
7.67331e-05
7.9977e-05
9.07771e-05
9.63482e-05
9.60226e-05
0.000112404
8.84485e-05
0.000103329
6.77262e-05
3.90452e-05
8.61234e-06
-9.72676e-06
9.99337e-08
1.59165e-07
3.11703e-09
-1.4455e-05
1.65742e-05
2.08844e-06
3.5852e-05
1.99849e-05
5.71628e-05
3.88074e-05
7.83182e-05
5.98439e-05
9.68661e-05
7.95557e-05
0.00010757
9.94973e-05
0.000108929
0.000100396
9.04368e-05
5.14362e-05
1.91737e-05
-1.38351e-05
9.34491e-08
9.0836e-08
9.60551e-10
1.08689e-09
-4.62175e-13
-2.96944e-05
1.52394e-05
-1.4575e-05
3.32377e-05
1.81915e-06
5.40178e-05
1.93192e-05
7.6651e-05
3.89777e-05
9.91844e-05
5.9721e-05
0.000116701
8.19922e-05
0.000125073
9.32361e-05
0.000114551
6.30254e-05
3.02024e-05
-1.65031e-05
-3.44055e-09
-6.73874e-10
5.5385e-10
3.78343e-10
7.5575e-13
-1.64604e-13
4.03402e-16
-4.31474e-05
1.3453e-05
-2.99819e-05
3.06463e-05
-1.49403e-05
4.99971e-05
1.01894e-06
7.23181e-05
1.88603e-05
9.67684e-05
3.85937e-05
0.000120312
6.03353e-05
0.000138355
8.01984e-05
0.000135994
7.24288e-05
4.36722e-05
-1.63957e-05
-7.2601e-09
-8.01438e-09
6.21468e-12
1.815e-11
1.10482e-12
-1.04621e-13
-1.50856e-17
2.21271e-16
4.6168e-20
-5.40802e-05
1.09328e-05
-4.37435e-05
2.72146e-05
-3.04117e-05
4.61177e-05
-1.5954e-05
6.69701e-05
3.33904e-07
9.08445e-05
1.80316e-05
0.00011733
3.72707e-05
0.000143373
6.11904e-05
0.000154927
7.51796e-05
5.94527e-05
-1.50096e-05
2.46333e-07
-2.63206e-08
4.48573e-12
2.97583e-12
7.80403e-15
-2.48232e-16
1.68783e-16
2.60736e-17
-2.90751e-23
-4.96793e-23
-6.17967e-05
7.71647e-06
-5.51084e-05
2.22977e-05
-4.44093e-05
4.12122e-05
-3.19467e-05
6.21104e-05
-1.67183e-05
8.40223e-05
-6.86398e-07
0.000109563
1.55439e-05
0.000139054
3.90777e-05
0.000163139
7.29629e-05
7.4559e-05
-1.32259e-05
1.35108e-06
-1.946e-07
7.76447e-11
1.47154e-12
5.01001e-15
-1.29994e-16
7.19756e-19
1.48927e-18
2.26157e-20
-1.05424e-21
-6.47437e-05
2.94709e-06
-6.30606e-05
1.56687e-05
-5.64047e-05
3.4293e-05
-4.67062e-05
5.59717e-05
-3.28047e-05
7.81967e-05
-1.81418e-05
0.000101478
-3.56499e-06
0.000128669
1.77297e-05
0.000158429
6.78345e-05
8.47414e-05
-1.02241e-05
2.83035e-06
-5.66018e-07
1.30577e-09
-9.56207e-13
1.02916e-14
-1.83766e-16
8.8015e-19
4.17081e-20
9.84091e-23
-1.8475e-24
-6.14914e-05
-3.25231e-06
-6.62728e-05
6.15923e-06
-6.54192e-05
2.46832e-05
-5.95254e-05
4.71123e-05
-4.79429e-05
7.111e-05
-3.47909e-05
9.48457e-05
-2.09952e-05
0.000118906
-8.22483e-07
0.000145768
6.03844e-05
9.65067e-05
-6.42783e-06
4.71063e-06
-1.27669e-06
5.05362e-09
-1.12441e-11
6.11055e-14
2.61879e-16
2.33062e-18
7.82796e-21
7.85857e-23
-1.00956e-24
-5.12328e-05
-1.02586e-05
-6.35147e-05
-6.01035e-06
-6.98045e-05
1.05445e-05
-6.94084e-05
3.45662e-05
-6.18136e-05
6.09829e-05
-5.08661e-05
8.71852e-05
-3.78913e-05
0.000111741
-1.80775e-05
0.000135159
5.05889e-05
0.000103953
-1.711e-06
6.87347e-06
-2.24639e-06
9.50316e-09
8.58881e-12
2.60816e-13
3.92163e-15
7.45963e-18
-2.71457e-20
1.77477e-22
-3.66168e-25
-3.35449e-05
-1.7688e-05
-5.34295e-05
-2.03438e-05
-6.74988e-05
-8.31603e-06
-7.46746e-05
1.58108e-05
-7.37548e-05
4.65074e-05
-6.61148e-05
7.62316e-05
-5.44564e-05
0.00010375
-3.56562e-05
0.000128679
3.7885e-05
0.000110145
4.43018e-06
9.62386e-06
-3.00218e-06
5.49162e-09
8.80222e-11
1.95188e-13
1.84865e-14
1.48174e-17
-1.11788e-19
5.94408e-22
6.61342e-25
-8.8376e-06
-2.47073e-05
-3.57418e-05
-3.53757e-05
-5.78423e-05
-3.00004e-05
-7.39315e-05
-9.05917e-06
-8.16521e-05
2.3708e-05
-8.00861e-05
6.04788e-05
-7.1076e-05
9.28511e-05
-5.4473e-05
0.000122227
2.03347e-05
0.000117514
1.04509e-05
1.36722e-05
-3.28674e-06
1.62083e-08
1.13353e-10
1.58076e-15
3.41364e-14
1.54411e-17
-2.89154e-19
1.04133e-21
7.32733e-24
2.18132e-05
-3.06508e-05
-1.08093e-05
-4.96398e-05
-4.01882e-05
-5.30298e-05
-6.49475e-05
-3.89844e-05
-8.20186e-05
-8.69266e-06
-8.98637e-05
3.34856e-05
-8.79323e-05
7.73352e-05
-7.51276e-05
0.000113432
-3.35224e-06
0.000123122
1.17792e-05
1.98504e-05
-2.90036e-06
9.94453e-08
1.21242e-09
9.03226e-13
4.2326e-14
1.48714e-17
-5.59177e-19
1.04034e-21
2.21673e-23
5.67863e-05
-3.4973e-05
2.02689e-05
-6.1729e-05
-1.48881e-05
-7.49398e-05
-4.72758e-05
-7.07014e-05
-7.40154e-05
-4.69876e-05
-9.31787e-05
-5.37769e-06
-0.000101486
4.70391e-05
-9.69738e-05
9.91792e-05
-3.18923e-05
0.000123183
4.95222e-06
2.68293e-05
-2.30925e-06
3.99248e-07
1.13298e-09
1.3669e-10
1.0481e-13
1.94736e-16
-7.14603e-19
5.76643e-22
3.24035e-23
9.40894e-05
-3.73032e-05
5.5816e-05
-7.05202e-05
1.70359e-05
-9.3653e-05
-2.11806e-05
-0.000101035
-5.65897e-05
-8.81272e-05
-8.66973e-05
-5.3469e-05
-0.000106771
-9.25517e-08
-0.000115388
6.54528e-05
-6.04286e-05
0.000111947
-8.83108e-06
3.15964e-05
-2.86714e-06
1.00334e-06
-2.45583e-08
1.54731e-09
6.64225e-12
1.46166e-14
4.42733e-18
8.92825e-21
1.57938e-23
0.000131633
-3.75439e-05
9.37975e-05
-7.52846e-05
5.37713e-05
-0.000107256
1.21601e-05
-0.000126994
-2.98797e-05
-0.000127745
-6.93952e-05
-0.000105429
-0.000102127
-5.81125e-05
-0.000126022
1.0546e-05
-8.62242e-05
7.99301e-05
-2.5013e-05
3.09562e-05
-5.33951e-06
1.65515e-06
-7.70928e-08
6.53254e-09
1.16607e-10
4.31182e-13
4.22837e-16
4.95062e-19
-6.90329e-22
0.000167499
-3.58656e-05
0.000132008
-7.57547e-05
9.31318e-05
-0.000114645
5.07554e-05
-0.000145851
5.20473e-06
-0.000162078
-4.13082e-05
-0.000155832
-8.58383e-05
-0.000121717
-0.00012306
-6.07103e-05
-0.000104641
2.58529e-05
-3.77736e-05
2.24107e-05
-8.84017e-06
1.93649e-06
-1.54732e-07
1.47474e-08
4.85357e-10
3.93541e-12
1.07852e-14
1.84161e-17
-4.8128e-20
0.000200127
-3.26281e-05
0.000168491
-7.23487e-05
0.000132735
-0.000115358
9.22059e-05
-0.000156096
4.63029e-05
-0.000186949
-3.69533e-06
-0.000199691
-5.65328e-05
-0.000185132
-0.000106011
-0.0001376
-0.000107996
-4.28859e-05
-4.31226e-05
7.89551e-06
-1.23869e-05
1.58499e-06
-2.31884e-07
2.00572e-08
9.91519e-10
1.31438e-11
1.02223e-13
2.0113e-16
-6.47609e-19
0.000228412
-2.82854e-05
0.000201621
-6.57577e-05
0.000170443
-0.000110056
0.000133974
-0.000157126
9.07819e-05
-0.000200575
4.09196e-05
-0.000231564
-1.57125e-05
-0.000240499
-7.45345e-05
-0.000214352
-9.2318e-05
-0.000118263
-4.20511e-05
-1.0412e-05
-1.39273e-05
7.17195e-07
-3.51153e-07
1.90797e-08
1.52476e-09
1.86346e-11
3.57601e-13
8.42351e-16
-4.96609e-19
0.000251696
-2.32835e-05
0.000230279
-5.69438e-05
0.000204534
-9.98486e-05
0.000173623
-0.000149705
0.000135583
-0.000201927
8.92799e-05
-0.000248935
3.32073e-05
-0.000280463
-3.03653e-05
-0.000281195
-6.20198e-05
-0.000188851
-3.40925e-05
-2.62133e-05
-1.14594e-05
-3.42764e-07
-4.87902e-07
1.27189e-08
2.11596e-09
1.78018e-11
5.78019e-13
1.14657e-15
4.50553e-18
0.0002697
-1.80042e-05
0.000253788
-4.67919e-05
0.000233872
-8.62823e-05
0.000209315
-0.000135541
0.000177849
-0.000191971
0.000137961
-0.000250608
8.66747e-05
-0.000302371
2.35189e-05
-0.000329605
-2.31708e-05
-0.000243467
-2.11696e-05
-3.53993e-05
-8.2195e-06
-1.13048e-06
-5.60749e-07
-2.5754e-10
2.86206e-09
1.28454e-11
8.75943e-13
1.06568e-15
9.92975e-18
0.00028247
-1.27699e-05
0.00027192
-3.61365e-05
0.000257829
-7.07485e-05
0.000239814
-0.000116781
0.000215473
-0.000173166
0.000183766
-0.000237776
0.000140725
-0.000304617
8.24736e-05
-0.000355315
2.08592e-05
-0.00027806
-5.46593e-06
-3.88687e-05
-5.04109e-06
-1.71388e-06
-4.56712e-07
-9.83775e-09
3.13366e-09
-2.04857e-12
2.0104e-12
1.12598e-15
1.48582e-17
0.000290175
-7.70533e-06
0.000284766
-2.56161e-05
0.000276206
-5.4514e-05
0.000264409
-9.53432e-05
0.000247281
-0.000148589
0.000224277
-0.000213677
0.000191359
-0.000288358
0.000141617
-0.000356606
6.69391e-05
-0.00029045
1.01529e-05
-3.81037e-05
-2.12895e-06
-2.03398e-06
-2.87641e-07
-2.02717e-08
3.06759e-09
-2.20613e-11
3.66544e-12
-8.72842e-16
3.96946e-17
0.00029302
-2.8448e-06
0.000292575
-1.55137e-05
0.000289099
-3.85091e-05
0.000283041
-7.31463e-05
0.000272633
-0.000120695
0.000258134
-0.000182446
0.000235995
-0.000258256
0.000196296
-0.000335005
0.000110486
-0.000279635
2.4872e-05
-3.45921e-05
6.30316e-07
-2.08351e-06
-1.2497e-07
-3.34606e-08
3.04836e-09
-7.06604e-11
5.65552e-12
-7.88072e-15
-2.77108e-17
0.000291281
1.73923e-06
0.000295423
-5.69306e-06
0.00029677
-2.31846e-05
0.000296128
-5.15956e-05
0.000291593
-9.21067e-05
0.000284488
-0.00014705
0.000271868
-0.00021826
0.000242594
-0.000296067
0.000150063
-0.000251496
3.7902e-05
-2.94073e-05
2.76626e-06
-1.84788e-06
-2.65448e-09
-4.17751e-08
2.35324e-09
-1.68839e-10
9.83921e-12
-3.55788e-14
-9.48516e-17
0.000285503
5.77792e-06
0.000293597
3.56555e-06
0.000299651
-8.57379e-06
0.000304134
-3.11909e-05
0.000304673
-6.46756e-05
0.000303531
-0.000111149
0.000298114
-0.000173241
0.000278341
-0.000245683
0.000184424
-0.000212084
4.82792e-05
-2.36068e-05
3.97068e-06
-1.51987e-06
7.22721e-08
-3.72215e-08
1.10725e-09
-2.46028e-10
1.11992e-11
-9.91158e-14
2.00599e-16
0.000275854
9.6492e-06
0.000287405
1.19697e-05
0.000297901
5.31573e-06
0.000306941
-1.13803e-05
0.000312539
-3.90568e-05
0.000316736
-7.78804e-05
0.000316343
-0.000129336
0.000303351
-0.000190777
0.000211126
-0.000166251
5.59451e-05
-1.79257e-05
4.56806e-06
-1.18617e-06
1.16572e-07
-2.88768e-08
-6.42531e-11
-2.22829e-10
5.99351e-12
-1.34711e-13
5.93059e-16
0.000262945
1.29086e-05
0.000277519
1.9535e-05
0.000291479
1.83923e-05
0.000304629
7.62806e-06
0.0003156
-1.44416e-05
0.000325202
-4.75228e-05
0.000328736
-9.02406e-05
0.000319136
-0.000138974
0.000227072
-0.000118554
6.15832e-05
-1.28731e-05
4.79628e-06
-8.48529e-07
1.24104e-07
-1.82142e-08
-7.39064e-10
-1.78488e-10
5.60785e-14
-1.05926e-13
4.38628e-16
0.000247559
1.53862e-05
0.000264495
2.59329e-05
0.000281075
2.99383e-05
0.000297798
2.5223e-05
0.000313528
9.7001e-06
0.000328224
-1.74641e-05
0.000337269
-5.60331e-05
0.000328511
-9.4973e-05
0.000231025
-7.44544e-05
6.54643e-05
-8.5701e-06
4.78785e-06
-5.54069e-07
9.9085e-08
-8.85657e-09
-8.81576e-10
-1.075e-10
-2.87731e-12
-8.29675e-14
2.39092e-17
0.000230382
1.71774e-05
0.000249011
3.08702e-05
0.000267403
3.96052e-05
0.000286801
4.09357e-05
0.000306001
3.27505e-05
0.000325691
1.22334e-05
0.000342089
-2.2275e-05
0.000334058
-5.85021e-05
0.000224555
-4.23987e-05
6.78112e-05
-5.33235e-06
4.59832e-06
-3.04064e-07
5.7406e-08
-4.0434e-09
-7.14361e-10
-4.10869e-11
-2.18444e-12
-4.67715e-14
-1.00179e-16
1.797e-05
0.000212412
0.000231654
3.45337e-05
0.000251227
4.70462e-05
0.000272378
5.40279e-05
0.000293773
5.31637e-05
0.000317686
4.07554e-05
0.000340095
1.42209e-05
0.000334907
-2.21205e-05
0.000210761
-2.08018e-05
6.81593e-05
-3.14945e-06
4.27964e-06
-1.17783e-07
1.5368e-08
-1.72827e-09
-5.06119e-10
-1.25173e-11
-9.9006e-13
-1.37627e-14
-9.75657e-18
3.6401e-05
0.000213223
4.41689e-05
0.000168243
0.00023323
5.25308e-05
0.000255323
6.41007e-05
0.000277808
6.99926e-05
0.00030458
6.62702e-05
0.000330516
5.03088e-05
0.000328363
1.90654e-05
0.000193162
-4.26133e-06
6.63221e-05
-1.73516e-06
3.87375e-06
-3.51343e-08
-2.424e-09
-5.60008e-10
-2.82864e-10
-3.27751e-12
-4.31075e-13
-2.82282e-15
2.93536e-17
5.55344e-05
0.000214096
8.93692e-05
0.000168023
3.87303e-05
0.000129512
0.000236428
7.14259e-05
0.000259127
8.27823e-05
0.00028746
8.71123e-05
0.000314418
8.23127e-05
0.000313287
6.06939e-05
0.000174533
1.2562e-05
6.15207e-05
-4.74491e-07
3.38867e-06
-1.12836e-08
-4.26876e-09
-1.43584e-10
-1.20384e-10
-6.78175e-13
-1.18378e-13
-4.48519e-16
9.02301e-18
7.56584e-05
0.000216304
0.00013604
0.000167426
7.87585e-05
0.000127995
2.87565e-05
0.000100756
0.000238687
9.18651e-05
0.000267399
0.000102843
0.00029369
0.000107741
0.000292426
9.5408e-05
0.00015973
2.5582e-05
5.50724e-05
7.64549e-07
2.93032e-06
-1.52308e-09
-4.04698e-09
-3.20373e-11
-4.54959e-11
-1.13854e-13
-1.88016e-14
-4.75619e-17
5.28546e-20
9.71359e-05
0.00021721
0.000185228
0.000167116
0.000120248
0.000125936
6.00443e-05
9.67072e-05
1.21837e-05
8.85724e-05
0.00024541
0.000113855
0.00027027
0.000126105
0.000268057
0.000121407
0.000146217
3.56836e-05
4.77214e-05
1.6769e-06
2.53278e-06
1.6757e-08
-4.83197e-09
-4.21143e-12
-1.71834e-11
-1.62492e-14
-2.08249e-15
-4.64431e-18
-3.14051e-19
0.000120508
0.000222037
0.0002366
0.000165838
0.00016525
0.000122114
9.29808e-05
9.29995e-05
2.7735e-05
8.11559e-05
-1.26771e-05
0.00010125
0.000245351
0.000138548
0.000241246
0.000139647
0.000133262
4.21441e-05
4.00858e-05
2.32408e-06
2.09603e-06
3.07147e-08
-4.58224e-09
1.06133e-11
-8.13585e-12
-1.72784e-15
-2.37793e-16
-5.46802e-19
-1.241e-19
0.000145636
0.000219928
0.000292505
0.00016613
0.000212991
0.000118097
0.000130138
8.49563e-05
4.69848e-05
7.37496e-05
-1.53811e-05
8.38599e-05
-5.37322e-05
0.000154982
0.000212837
0.00015151
0.000120603
4.59327e-05
3.31374e-05
2.63578e-06
1.63624e-06
3.57061e-08
-2.43397e-09
4.64329e-11
-7.76981e-12
2.58948e-15
-2.38561e-16
-2.36642e-20
-3.09118e-20
0.000157897
0.000183664
0.000351145
0.000160354
0.000265428
0.00011369
0.000170938
7.72965e-05
7.46641e-05
5.7277e-05
-1.01393e-05
6.85077e-05
-9.53443e-05
0.000125472
-7.22444e-05
0.000227226
0.000107626
4.81031e-05
2.72678e-05
2.73736e-06
1.2192e-06
3.35498e-08
-1.16828e-09
6.94994e-11
-7.34945e-12
1.05347e-14
-6.06639e-16
3.93608e-19
-2.54257e-20
4.87181e-05
9.44511e-05
0.000373789
0.000118683
0.000319979
0.000104631
0.000217172
6.74532e-05
0.000110497
4.1464e-05
6.38077e-06
4.0757e-05
-0.000116457
8.96205e-05
-0.000147794
0.000201022
-0.000124902
0.000352128
2.26804e-05
2.71894e-06
9.09262e-07
2.85733e-08
-7.00447e-10
6.07259e-11
-5.1017e-12
2.30253e-14
-1.27883e-15
9.84833e-19
-2.09485e-20
2.67374e-06
1.87804e-05
0.000111121
6.21e-05
0.000334935
6.18147e-05
0.00026632
5.42646e-05
0.000155283
2.2661e-05
3.27636e-05
1.50812e-05
-0.000121436
4.57359e-05
-0.000223461
0.000165287
-0.000245836
0.000321956
-1.82071e-05
0.000370335
6.86499e-07
2.40538e-08
-5.78052e-10
4.17763e-11
-2.7158e-12
2.20935e-14
-1.20565e-15
2.06088e-18
-2.46101e-20
2.15847e-08
5.04398e-07
5.92092e-06
1.11504e-05
9.68611e-05
2.86237e-05
0.000280769
8.17915e-06
0.000206554
1.67011e-06
8.10436e-05
-2.56239e-05
-0.000100013
-6.34032e-06
-0.000275701
9.79764e-05
-0.000341586
0.000261037
-5.61573e-05
0.000359906
6.24329e-05
0.000307902
-6.02861e-10
2.78122e-11
-1.53508e-12
1.34494e-14
-7.82512e-16
2.41345e-18
-1.9333e-20
2.04463e-11
-6.98645e-10
4.4205e-08
1.98591e-07
5.33606e-06
4.36228e-06
8.06562e-05
-7.27851e-06
0.000228623
-4.96041e-05
0.000143971
-6.24239e-05
-2.68314e-05
-9.86569e-05
-0.000269643
-1.23618e-05
-0.000428353
0.000184745
-0.000142893
0.000347772
8.77138e-05
0.000334625
0.00229145
0.000670254
-0.0026538
-9.9873e-13
7.20195e-15
-4.3214e-16
1.79214e-18
-1.19623e-20
3.70551e-15
-6.63983e-13
3.77951e-11
-1.78999e-09
5.03003e-08
-2.00484e-07
4.78816e-06
-3.80094e-06
6.72915e-05
-4.64042e-05
0.00017717
-0.000112828
7.06456e-05
-0.000159613
-0.000161561
-0.000205734
-0.000444673
4.03707e-06
-0.000303461
0.000345313
8.10823e-05
0.000354403
0.0018507
0.000775377
0.00265877
0.00086976
-0.00285827
0.000436547
-0.00309035
-2.45311e-16
1.1697e-18
-8.26197e-21
7.24786e-19
-9.13251e-17
4.59708e-15
-1.36066e-12
6.95708e-11
-5.2495e-09
7.85195e-08
-1.38178e-06
4.57983e-06
-1.4388e-05
5.40252e-05
-8.41802e-05
0.000126303
-0.000190243
-3.93699e-06
-0.000311497
-0.000363783
-0.000285606
-0.000419405
0.000119987
1.95778e-05
0.000406817
0.00141513
0.00078997
0.00241859
0.00101556
0.00239991
0.00104098
-0.00257113
0.000670319
-0.00309204
0.000305357
-0.00339571
-7.06512e-21
-3.72255e-21
7.89792e-19
-2.18941e-16
1.42066e-14
-1.0887e-11
4.43255e-10
-9.76875e-08
1.54924e-07
-5.23299e-06
3.67517e-06
-2.41942e-05
3.71725e-05
-0.00010616
9.14642e-05
-0.000284037
-0.000151401
-0.000517656
-0.000381572
-0.00032331
-6.64192e-05
0.000205985
0.00105545
0.000766501
0.00214335
0.00106521
0.0022419
0.00117357
0.00185717
0.00123273
-0.00204892
0.000915492
-0.0028163
0.000581479
-0.00336817
0.000233347
-0.00362905
-6.23592e-20
4.25321e-17
-1.74295e-13
2.27156e-11
-6.32933e-09
5.54313e-08
-1.8316e-06
1.69951e-07
-8.59878e-06
2.06779e-06
-2.78929e-05
2.25764e-05
-0.000106887
4.98612e-05
-0.000472036
-0.000221059
-0.000677285
-0.000214026
-0.000175699
0.000755494
0.000505941
0.0018501
0.00105975
0.00208502
0.00122209
0.00176091
0.00126983
0.00146429
0.00139956
-0.00163111
0.00118457
-0.00231799
0.000819041
-0.00305378
0.000444187
-0.00357899
0.000152767
-0.00378182
-5.25427e-16
9.54192e-13
-2.15339e-10
2.02e-08
-3.95926e-07
2.0072e-07
-3.43596e-06
3.69619e-08
-7.42742e-06
5.07224e-07
-2.74287e-05
3.75161e-05
-0.000135502
1.25132e-05
-0.000705676
-0.000272789
-0.000618109
0.00036748
0.000212314
0.00144854
0.000907501
0.0018986
0.00124617
0.00170019
0.0012828
0.00139246
0.00134166
0.00111045
0.00160552
-0.00131641
0.00143317
-0.00187971
0.00111538
-0.00261409
0.000715853
-0.00332525
0.000361021
-0.00378721
9.80337e-05
-0.00387985
-1.26048e-12
1.14333e-09
-3.29925e-08
1.83568e-07
-1.31023e-06
-1.47436e-07
-2.49658e-06
-6.58645e-07
-4.99124e-06
1.8016e-06
-1.15128e-05
2.33812e-05
-0.000165204
-0.00010749
-0.000865146
3.57479e-05
-0.000286377
0.000982131
0.000678719
0.00165802
0.00114808
0.00164743
0.00129893
0.00131649
0.00135878
0.000983931
0.00146818
0.000911615
0.000411085
-0.000975242
0.000410445
0.000424057
0.000423538
0.00163206
-0.00151526
0.00140377
-0.00216777
0.00104197
-0.00293888
0.00061389
-0.00357811
0.000225123
-0.00391428
2.13603e-05
-0.00390121
-4.98086e-10
3.21456e-08
-1.98363e-07
1.2979e-08
-1.16312e-06
-4.89912e-07
-5.68259e-07
-1.11211e-07
-1.82423e-06
2.59713e-06
-2.77156e-06
1.24955e-06
-0.000272301
-0.000155328
-0.000670566
0.000483642
0.000212111
0.00133273
0.00100401
0.00151256
0.00128295
0.00121835
0.00139707
0.000971751
0.00137096
0.000720781
0.001659
-6.21807e-07
0.000144009
-0.000160887
0.000428579
0.000426946
-0.00109032
0.000426124
0.000447386
0.000446772
0.000144195
-0.000160756
0.000426378
-4.49572e-07
0.000129646
0.00043886
0.000130729
0.000436546
0.00163526
-0.00174603
0.00135487
-0.00247837
0.000915851
-0.00324132
0.000438417
-0.00379168
9.58545e-05
-0.00398878
-6.49077e-05
-0.0038363
-5.63916e-09
1.06261e-08
-2.12039e-07
-2.51284e-07
-2.68471e-07
-7.18539e-08
-1.22055e-07
7.16376e-08
-2.46e-07
1.71316e-07
-3.11152e-06
-7.75181e-06
-0.000432032
9.18351e-05
-0.000278772
0.000851975
0.00069287
0.00129731
0.00121925
0.00107304
0.00142826
0.00093502
0.00143381
0.000578304
0.00151343
-9.77386e-05
-9.88302e-05
0.00045767
0.000406723
0.000405712
0.000422705
0.000423088
-6.78032e-07
-0.000177256
0.000443993
-2.58915e-07
8.42327e-05
-9.2894e-05
0.000437478
-0.00126848
0.00181494
-0.000177046
0.000441737
-5.40446e-07
-0.000186191
0.000456861
-0.00018529
0.000454475
8.50186e-05
-9.26687e-05
0.00043375
-7.96546e-08
0.000425413
0.000422634
0.0016529
-0.00204209
0.00122429
-0.00278432
0.000706296
-0.00351282
0.000242932
-0.00393935
-7.95374e-05
-0.00397423
-0.000151437
-0.00368487
-4.52817e-09
-3.2046e-08
-7.2614e-08
-7.132e-08
-3.55997e-08
-3.90631e-10
-1.42259e-08
1.46722e-08
-4.93526e-08
-2.43749e-08
-9.04668e-06
-1.51569e-05
-0.000379269
0.000354894
0.000218304
0.00099761
0.00099257
0.000897388
0.00139491
0.000807054
0.00155623
0.000480067
0.00153204
0.000381016
0.000391201
0.000391485
0.000403763
0.000403645
2.57141e-07
2.4543e-05
-3.37078e-05
0.00041562
2.38126e-05
-3.22832e-05
0.000414426
-2.00271e-07
2.58103e-05
0.000421635
2.54343e-05
0.00042126
-2.45318e-07
-0.000106664
0.000457989
1.1641e-06
3.86864e-05
-4.2883e-05
0.000124242
9.47162e-05
0.000121929
9.94565e-05
-0.0014967
0.00188361
0.000117626
0.000116424
-0.000722374
0.00049383
0.000494291
0.000473016
0.000471506
-0.000105789
0.000454594
-3.0562e-07
0.000468112
0.000464792
3.76353e-05
-4.15753e-05
0.000123375
9.54956e-05
0.000121166
9.86698e-05
1.20052e-06
0.000121308
9.24253e-05
0.000118864
9.65056e-05
0.000120545
9.40628e-05
0.000118354
9.61562e-05
0.00151251
-0.00233027
0.000984013
-0.00306764
0.000424991
-0.00369619
-4.21191e-05
-0.00397685
-0.000272029
-0.00385365
-0.000241992
-0.00344288
-5.31261e-10
-6.36151e-09
-1.17504e-08
-9.62439e-09
-2.82067e-09
-1.15086e-11
-7.09964e-10
1.33077e-10
-1.64588e-08
-5.25896e-08
-2.45579e-05
-1.91728e-06
-8.17919e-05
0.000585339
0.000630574
0.00067839
0.00121157
0.000627421
0.00157454
0.000367645
0.00166865
0.0002855
0.000402766
0.000402573
0.0004116
0.00041062
-1.06021e-07
1.59471e-05
0.000401171
1.58989e-05
0.000400915
-6.68923e-08
1.11918e-05
0.000408586
1.1178e-05
0.000408299
3.70005e-07
-2.0002e-05
1.19615e-06
1.4679e-05
8.5062e-05
2.32998e-06
0.000109183
8.79983e-05
0.00011326
2.1588e-05
-2.0358e-05
1.03696e-06
1.47337e-05
2.39292e-06
8.51828e-05
0.000109076
8.79882e-05
0.000113099
2.16442e-05
5.92206e-07
-1.79832e-05
9.3049e-05
0.000116313
9.26818e-05
0.000117055
-1.77347e-05
9.32801e-05
0.000116171
9.28743e-05
0.000116909
1.21992e-06
-4.19062e-05
0.000129236
9.71874e-05
0.00012522
0.000103898
7.23681e-06
9.57993e-06
1.53284e-07
-8.03526e-06
0.000115307
-9.15787e-06
-8.73326e-06
8.53916e-06
0.000104049
2.16689e-07
6.56575e-06
0.000113226
-7.87303e-06
0.000108174
-0.00170841
0.00172418
-0.000814916
0.000492299
0.000492614
0.000496268
0.000497516
-1.99729e-07
4.46971e-05
-4.65905e-05
0.000495976
4.60366e-05
-4.74373e-05
0.000495535
3.17875e-07
4.42198e-05
0.000473171
4.51741e-05
0.000472691
-4.09928e-05
0.000128464
9.85267e-05
0.000124673
0.000103332
1.03313e-06
0.000131461
0.000101286
0.000129406
0.00010724
0.00013081
0.000103458
0.000128956
0.000106494
7.17178e-06
9.4412e-06
-8.00468e-06
0.00011492
-8.88784e-06
-8.25923e-06
7.89843e-06
0.000104727
6.44572e-06
0.00011322
-7.69763e-06
0.000107536
-1.00448e-05
1.07661e-05
2.1684e-07
0.000112335
-1.29736e-05
6.10048e-06
0.000100482
2.6374e-07
0.000110264
0.000105497
-1.006e-05
1.07244e-05
0.000112093
-1.2786e-05
5.97657e-06
0.000101902
0.000110505
0.000105152
0.00124841
-0.00259649
0.00063714
-0.00328295
2.66412e-05
-0.00376501
-0.000363898
-0.00388498
-0.000485346
-0.0036103
-0.000349877
-0.00309299
-2.45045e-11
-3.80466e-10
-1.04713e-09
-1.17263e-09
-2.75247e-10
-2.9941e-10
-3.91189e-11
-2.60206e-10
-8.67896e-09
-4.74509e-08
-4.89482e-05
0.000166999
0.000321544
0.000405345
0.000903617
0.00040954
0.00142945
0.000242723
0.00169946
0.000165269
0.000440127
0.000439636
0.000454821
0.000454296
-7.11552e-08
1.59486e-06
0.000412434
1.78381e-06
0.000411896
-1.41629e-08
-7.45648e-06
0.000420665
-7.23006e-06
0.00041962
8.38175e-07
-2.00777e-05
8.95393e-05
0.000111686
8.94892e-05
0.000111763
-1.97425e-05
8.98897e-05
0.000111692
9.04203e-05
0.000111769
1.0963e-06
-2.19182e-05
9.24708e-05
0.00011338
9.06182e-05
0.000112853
-2.1863e-05
9.36262e-05
0.000113394
9.16159e-05
0.000112851
-4.07247e-06
-1.71022e-05
1.00064e-05
9.62304e-05
-6.05007e-06
1.04343e-05
9.8422e-05
-1.83736e-05
-6.29471e-08
0.000108319
1.51814e-05
-6.32171e-06
-1.81168e-05
9.53354e-05
-1.44721e-08
-1.76908e-05
0.000106247
3.7785e-09
1.90646e-05
0.000106759
-6.0319e-06
1.04157e-05
9.99066e-05
-3.88193e-06
-1.69618e-05
9.59527e-06
9.64321e-05
-1.83484e-05
1.51233e-05
0.000108356
-6.23357e-06
-1.80065e-05
9.5267e-05
-1.76643e-05
0.000106167
1.9051e-05
0.00010707
-6.95358e-06
1.88656e-05
-1.80651e-05
9.92027e-05
1.78857e-05
1.68284e-08
-1.70998e-05
0.000108558
-6.97612e-06
0.000100407
-3.9e-09
0.000110233
-6.8691e-06
1.86496e-05
-1.78559e-05
9.93563e-05
1.77994e-05
-1.70205e-05
0.00010854
-6.85738e-06
0.000100376
0.000110183
-7.00594e-06
9.32894e-06
2.14615e-07
7.04168e-06
0.000119656
-9.17436e-06
8.40159e-06
0.00010647
2.89578e-07
0.000115315
8.83612e-06
0.000112791
1.59327e-05
2.58452e-06
3.36873e-08
-1.78566e-05
0.000114613
-2.19014e-06
-1.56098e-05
1.5551e-05
0.000106283
-1.09734e-08
1.54557e-05
0.000111549
-1.54593e-05
0.0001106
-0.00189252
0.00143046
-0.000912022
0.000456327
0.000455874
0.000454445
0.000454679
-1.94778e-07
4.7007e-05
-4.44676e-05
0.00049025
4.70327e-05
-4.4453e-05
0.000490146
-2.17271e-07
0.000497196
0.000497147
6.83748e-07
-3.08333e-05
4.53258e-05
0.000106174
0.000133058
0.000107318
0.000134315
-3.10437e-05
4.58557e-05
0.000106426
0.000132941
0.00010738
0.000134243
4.83478e-07
-1.39346e-05
7.5976e-07
0.000107227
-2.51017e-05
0.000134978
0.000106281
0.000134957
-3.2835e-06
-1.38418e-05
6.98661e-07
0.000107295
-2.49911e-05
0.000134944
0.000106436
0.0001349
-3.31483e-06
-6.89353e-06
9.37258e-06
6.89642e-06
0.000119303
-9.07953e-06
8.08668e-06
0.000107397
0.000115436
8.54775e-06
0.000112227
4.33516e-06
1.09919e-05
1.70537e-07
0.000123005
-1.38399e-05
-1.00874e-05
0.000111172
2.32703e-07
0.000120451
0.000116901
4.25799e-06
1.09213e-05
0.000122698
-1.33835e-05
-9.70891e-06
0.000112709
0.000120762
0.000116243
1.59723e-05
2.47651e-06
-1.78584e-05
0.000114363
-2.05369e-06
-1.56445e-05
1.56306e-05
0.00010678
1.54524e-05
0.000111676
-1.5273e-05
0.000109626
4.0417e-06
9.74757e-08
0.000109376
0.000104511
4.07844e-06
0.000109304
0.000104368
0.000821875
-0.00278494
8.68013e-05
-0.00334346
-0.000447698
-0.00368118
-0.000727342
-0.00364299
-0.000713043
-0.00324713
-0.000455494
-0.00263749
-2.62921e-13
-4.94695e-12
-1.3246e-10
-2.92952e-10
-2.22284e-11
-1.21166e-10
-6.71191e-12
-9.34445e-11
-4.4886e-09
-5.49657e-08
3.97922e-05
0.000128184
0.000580676
0.000170519
0.00114263
9.90939e-05
0.00157308
1.43771e-05
0.000460264
0.000459827
0.000465194
0.000465067
-4.24893e-09
-1.43328e-05
0.000447008
-1.40945e-05
0.000446496
-7.95874e-08
-2.25068e-05
0.000463075
-2.23379e-05
0.00046246
1.01404e-06
-2.84315e-05
9.38706e-05
0.00011456
9.47836e-05
0.000114668
-2.87933e-05
9.49761e-05
0.000114575
9.57408e-05
0.00011456
9.74199e-07
-3.94102e-05
9.99738e-05
0.000117309
9.75387e-05
0.000115888
-4.04479e-05
0.000100943
0.000117175
9.841e-05
0.000115757
-6.93395e-06
-1.85638e-05
9.6972e-05
-1.81604e-05
1.55476e-08
0.000105775
-7.21128e-06
-1.78362e-05
9.59658e-05
-9.94383e-09
-1.77485e-05
0.000104101
-6.90767e-06
-1.842e-05
9.73619e-05
-1.80565e-05
0.000105836
-7.0286e-06
-1.77468e-05
9.67755e-05
-1.76286e-05
0.000104317
-7.13192e-06
1.86588e-05
-1.84389e-05
9.9389e-05
1.87212e-05
-3.00266e-08
-1.9178e-05
0.000106705
-7.41227e-06
9.88604e-05
-3.57817e-08
0.000106476
-6.79569e-06
1.87104e-05
-1.87689e-05
0.00010048
1.87562e-05
-1.92137e-05
0.000107014
-7.18022e-06
9.97596e-05
0.000106748
-2.64121e-06
1.38475e-05
-7.62789e-07
-2.33361e-05
-2.53374e-05
-1.64143e-08
-7.31948e-08
1.75344e-05
-1.21395e-06
-1.37904e-05
-2.08624e-08
-1.41487e-05
-2.51173e-06
1.41402e-05
-7.23061e-07
-2.33062e-05
1.76157e-05
-2.53231e-05
-1.17493e-06
-1.37945e-05
-1.41311e-05
-1.46202e-06
1.33539e-05
-1.25805e-05
1.32435e-05
-3.3051e-08
-1.24769e-05
-1.35494e-06
-2.64596e-08
-1.39466e-06
1.33538e-05
-1.26908e-05
1.32321e-05
-1.24984e-05
-1.31368e-06
-1.63242e-05
2.38462e-06
-9.83349e-09
1.50324e-05
0.000118554
-2.25231e-06
1.70798e-05
0.00010716
-7.05844e-09
0.000112179
1.79672e-05
0.000114276
1.3583e-05
1.81906e-06
8.74034e-08
-1.62567e-05
-1.64093e-06
-1.39101e-05
1.29549e-05
-1.11071e-08
1.29275e-05
-1.5724e-05
-0.00201953
0.000947192
-0.00103649
0.000385822
0.000385726
0.000391067
0.000390886
-1.50953e-07
5.25999e-05
-4.88642e-05
0.00045302
5.17921e-05
-4.79073e-05
0.000452129
-1.08099e-07
0.000463087
0.00046234
1.44149e-06
-6.33097e-05
6.30452e-05
0.000109715
0.000136874
0.000108201
0.000134468
-6.41341e-05
6.36983e-05
0.000111094
0.00013681
0.000109648
0.000134467
1.06073e-06
0.000105862
0.000130919
0.00010755
0.000133868
0.000106459
0.000130859
0.000108823
0.000133802
-8.17769e-06
-2.39455e-05
2.76912e-05
0.000110584
-2.25992e-05
-4.20868e-08
2.6959e-05
0.00012049
-8.05726e-06
-2.10337e-05
0.000112447
-5.24301e-08
-1.91471e-05
0.000122858
-7.96916e-06
-2.37856e-05
2.73251e-05
0.000110873
-2.25706e-05
2.69151e-05
0.000120586
-7.89073e-06
-2.08473e-05
0.000112324
-1.91205e-05
0.00012285
-5.97974e-06
2.09881e-05
-3.25829e-05
0.000124813
-7.21465e-06
-2.18835e-05
0.000115102
1.66801e-05
-4.72374e-08
0.000136965
-2.46518e-05
-7.31621e-06
0.000113562
-3.60775e-08
0.00012521
-1.69183e-08
-1.27109e-05
0.000122707
-5.86924e-06
2.08073e-05
-3.32275e-05
0.000125603
-7.15629e-06
-2.17313e-05
0.000116602
1.66716e-05
0.000137119
-2.47634e-05
-7.22397e-06
0.000113624
0.000125191
-1.26982e-05
0.000122972
-1.63483e-05
2.22239e-06
1.50504e-05