/*--------------------------------*- C++ -*----------------------------------*\
| =========                 |                                                 |
| \\      /  F ield         | OpenFOAM: The Open Source CFD Toolbox           |
|  \\    /   O peration     | Version:  5.x                                   |
|   \\  /    A nd           | Web:      www.OpenFOAM.org                      |
|    \\/     M anipulation  |                                                 |
\*---------------------------------------------------------------------------*/
FoamFile
{
    version     2.0;
    format      ascii;
    class       volScalarField;
    location    "2.4";
    object      k;
}
// * * * * * * * * * * * * * * * * * * * * * * * * * * * * * * * * * * * * * //

dimensions      [0 2 -2 0 0 0 0];

internalField   nonuniform List<scalar> 
12160
(
9.94118e-09
9.90143e-09
1.0019e-08
9.8746e-09
1.00527e-08
1.00093e-08
9.85891e-09
1.00835e-08
1.0019e-08
1.00087e-08
9.85103e-09
1.0134e-08
1.00305e-08
1.00165e-08
1.00087e-08
9.8477e-09
1.01605e-08
1.00434e-08
1.0023e-08
1.00165e-08
1.00098e-08
9.84664e-09
1.01642e-08
1.00519e-08
1.00284e-08
1.00224e-08
1.0019e-08
1.00101e-08
9.84652e-09
1.01576e-08
1.00541e-08
1.00315e-08
1.00262e-08
1.00249e-08
1.00226e-08
1.00182e-08
9.84669e-09
1.01486e-08
1.00525e-08
1.00323e-08
1.00283e-08
1.00279e-08
1.00296e-08
1.00434e-08
1.01526e-08
9.84685e-09
1.01402e-08
1.00505e-08
1.00319e-08
1.00289e-08
1.00291e-08
1.00324e-08
1.00491e-08
1.01547e-08
1.01616e-08
9.84686e-09
1.0133e-08
1.0049e-08
1.00313e-08
1.00288e-08
1.00293e-08
1.00327e-08
1.00451e-08
1.01435e-08
1.01617e-08
1.02369e-08
9.84667e-09
1.01266e-08
1.00481e-08
1.00308e-08
1.00285e-08
1.00294e-08
1.00321e-08
1.0042e-08
1.01253e-08
1.01672e-08
1.02435e-08
1.02644e-08
9.8463e-09
1.01206e-08
1.00475e-08
1.00305e-08
1.00282e-08
1.00293e-08
1.00317e-08
1.00418e-08
1.01107e-08
1.01691e-08
1.02686e-08
1.02257e-08
1.01447e-08
9.84593e-09
1.01152e-08
1.00468e-08
1.00303e-08
1.00279e-08
1.00291e-08
1.00315e-08
1.00441e-08
1.00989e-08
1.01668e-08
1.02251e-08
1.02061e-08
1.00893e-08
1.01365e-08
9.84578e-09
1.01145e-08
1.00459e-08
1.003e-08
1.00276e-08
1.00287e-08
1.00314e-08
1.00469e-08
1.00908e-08
1.01574e-08
1.02167e-08
1.01224e-08
1.01277e-08
1.00797e-08
1.00831e-08
9.84575e-09
1.01151e-08
1.00455e-08
1.00297e-08
1.00273e-08
1.00284e-08
1.00312e-08
1.0049e-08
1.00863e-08
1.01468e-08
1.02154e-08
1.01266e-08
1.00599e-08
1.00699e-08
1.00248e-08
9.84575e-09
1.01161e-08
1.00453e-08
1.00294e-08
1.00269e-08
1.00279e-08
1.00308e-08
1.00498e-08
1.00846e-08
1.01344e-08
1.02125e-08
1.0142e-08
1.00495e-08
1.00426e-08
1.00439e-08
9.84593e-09
1.01178e-08
1.00452e-08
1.00292e-08
1.00265e-08
1.00274e-08
1.00301e-08
1.00494e-08
1.00835e-08
1.01209e-08
1.02063e-08
1.01605e-08
1.00519e-08
1.00332e-08
1.00241e-08
9.84749e-09
1.01199e-08
1.00448e-08
1.00291e-08
1.00263e-08
1.00269e-08
1.00291e-08
1.00482e-08
1.00822e-08
1.01128e-08
1.01965e-08
1.01702e-08
1.00595e-08
1.00302e-08
1.00195e-08
9.85031e-09
1.01206e-08
1.00441e-08
1.0029e-08
1.00261e-08
1.00266e-08
1.00281e-08
1.00464e-08
1.00798e-08
1.01069e-08
1.01826e-08
1.01815e-08
1.00647e-08
1.00316e-08
1.00172e-08
9.85321e-09
1.01191e-08
1.00437e-08
1.00287e-08
1.0026e-08
1.00264e-08
1.00271e-08
1.00443e-08
1.00768e-08
1.01018e-08
1.0165e-08
1.01946e-08
1.00652e-08
1.00321e-08
1.0018e-08
9.8558e-09
1.01171e-08
1.00439e-08
1.00284e-08
1.00258e-08
1.00262e-08
1.00267e-08
1.00423e-08
1.00738e-08
1.00969e-08
1.01506e-08
1.02167e-08
1.00749e-08
1.00326e-08
1.00182e-08
9.85786e-09
1.01163e-08
1.00441e-08
1.00284e-08
1.00256e-08
1.0026e-08
1.00264e-08
1.0041e-08
1.0071e-08
1.00917e-08
1.01381e-08
1.02061e-08
1.01041e-08
1.00338e-08
1.00191e-08
9.85929e-09
1.0116e-08
1.00441e-08
1.00283e-08
1.00254e-08
1.00258e-08
1.00262e-08
1.00402e-08
1.00683e-08
1.00863e-08
1.0127e-08
1.01897e-08
1.01389e-08
1.00435e-08
1.00207e-08
9.86007e-09
1.01157e-08
1.0044e-08
1.00282e-08
1.00253e-08
1.00256e-08
1.00264e-08
1.00394e-08
1.00656e-08
1.00811e-08
1.01154e-08
1.01755e-08
1.0155e-08
1.00624e-08
1.00241e-08
9.86023e-09
1.01156e-08
1.00437e-08
1.0028e-08
1.00251e-08
1.00255e-08
1.00271e-08
1.00387e-08
1.00627e-08
1.00769e-08
1.01033e-08
1.01659e-08
1.01595e-08
1.00803e-08
1.00307e-08
9.85985e-09
1.01157e-08
1.00433e-08
1.00278e-08
1.00249e-08
1.00253e-08
1.00275e-08
1.00383e-08
1.0059e-08
1.00732e-08
1.00941e-08
1.01613e-08
1.01591e-08
1.00943e-08
1.00392e-08
9.85901e-09
1.01157e-08
1.00429e-08
1.00277e-08
1.00246e-08
1.0025e-08
1.00273e-08
1.0037e-08
1.00547e-08
1.00696e-08
1.00873e-08
1.01578e-08
1.01573e-08
1.00997e-08
1.00474e-08
9.85782e-09
1.01158e-08
1.00423e-08
1.00276e-08
1.00246e-08
1.00246e-08
1.00265e-08
1.00349e-08
1.00504e-08
1.00659e-08
1.00825e-08
1.01446e-08
1.01544e-08
1.00984e-08
1.00516e-08
9.85638e-09
1.0116e-08
1.00416e-08
1.00275e-08
1.00247e-08
1.00245e-08
1.00254e-08
1.00322e-08
1.00457e-08
1.00609e-08
1.00783e-08
1.01217e-08
1.01448e-08
1.00967e-08
1.00513e-08
9.85486e-09
1.01158e-08
1.00408e-08
1.00275e-08
1.00249e-08
1.00249e-08
1.00254e-08
1.00295e-08
1.0041e-08
1.00548e-08
1.00701e-08
1.00978e-08
1.01304e-08
1.00939e-08
1.00505e-08
9.85337e-09
1.01155e-08
1.00398e-08
1.00273e-08
1.00251e-08
1.00254e-08
1.00266e-08
1.00297e-08
1.00371e-08
1.00485e-08
1.00608e-08
1.00807e-08
1.01091e-08
1.00835e-08
1.00499e-08
9.85203e-09
1.01153e-08
1.00389e-08
1.00272e-08
1.00253e-08
1.00258e-08
1.00279e-08
1.00326e-08
1.00377e-08
1.00433e-08
1.00517e-08
1.00652e-08
1.00879e-08
1.00712e-08
1.00451e-08
9.85109e-09
1.01155e-08
1.0038e-08
1.00271e-08
1.00254e-08
1.00261e-08
1.00291e-08
1.0036e-08
1.00421e-08
1.00441e-08
1.00442e-08
1.0051e-08
1.00667e-08
1.00586e-08
1.00364e-08
9.85128e-09
1.01161e-08
1.00373e-08
1.0027e-08
1.00256e-08
1.00264e-08
1.003e-08
1.00393e-08
1.00474e-08
1.00495e-08
1.00455e-08
1.00405e-08
1.00473e-08
1.00452e-08
1.00285e-08
9.852e-09
1.01162e-08
1.0037e-08
1.0027e-08
1.00257e-08
1.00266e-08
1.00305e-08
1.00422e-08
1.00529e-08
1.00562e-08
1.00526e-08
1.00428e-08
1.00345e-08
1.00331e-08
1.00219e-08
9.85296e-09
1.01168e-08
1.00375e-08
1.00271e-08
1.0026e-08
1.00269e-08
1.00309e-08
1.00447e-08
1.00581e-08
1.00634e-08
1.00616e-08
1.00533e-08
1.00368e-08
1.0025e-08
1.00162e-08
9.85403e-09
1.0118e-08
1.00386e-08
1.00275e-08
1.00263e-08
1.00272e-08
1.00312e-08
1.00469e-08
1.0063e-08
1.00706e-08
1.00717e-08
1.00658e-08
1.00493e-08
1.0025e-08
1.00123e-08
9.85525e-09
1.01201e-08
1.00401e-08
1.0028e-08
1.00267e-08
1.00276e-08
1.00316e-08
1.0049e-08
1.00676e-08
1.00778e-08
1.00835e-08
1.00797e-08
1.00622e-08
1.00306e-08
1.0012e-08
9.85666e-09
1.01228e-08
1.00419e-08
1.00287e-08
1.00272e-08
1.00282e-08
1.00322e-08
1.00511e-08
1.00721e-08
1.00841e-08
1.00973e-08
1.00973e-08
1.00738e-08
1.00365e-08
1.00138e-08
1.01263e-08
9.85843e-09
1.00439e-08
1.00295e-08
1.00278e-08
1.00289e-08
1.00333e-08
1.00533e-08
1.00765e-08
1.00894e-08
1.01101e-08
1.01224e-08
1.00845e-08
1.00421e-08
1.00155e-08
1.00459e-08
1.01305e-08
9.861e-09
1.00305e-08
1.00286e-08
1.00297e-08
1.00347e-08
1.00555e-08
1.00808e-08
1.00938e-08
1.01189e-08
1.01509e-08
1.00917e-08
1.00464e-08
1.00172e-08
1.00315e-08
1.00489e-08
1.01415e-08
9.86507e-09
1.00294e-08
1.00307e-08
1.00365e-08
1.00576e-08
1.00842e-08
1.00979e-08
1.01243e-08
1.01651e-08
1.00955e-08
1.00476e-08
1.00196e-08
1.00304e-08
1.00331e-08
1.00536e-08
1.01629e-08
9.87731e-09
1.00318e-08
1.00383e-08
1.00596e-08
1.00872e-08
1.01027e-08
1.01302e-08
1.01717e-08
1.00986e-08
1.0046e-08
1.00217e-08
1.0033e-08
1.00317e-08
1.00357e-08
1.00611e-08
1.02148e-08
9.9094e-09
1.00403e-08
1.00616e-08
1.009e-08
1.0108e-08
1.01375e-08
1.01712e-08
1.01014e-08
1.00436e-08
1.00221e-08
1.00423e-08
1.00345e-08
1.00338e-08
1.00399e-08
1.00744e-08
1.03156e-08
1.00102e-08
1.00635e-08
1.00925e-08
1.01132e-08
1.01461e-08
1.01676e-08
1.01079e-08
1.00418e-08
1.00214e-08
1.00654e-08
1.00443e-08
1.00367e-08
1.00365e-08
1.00483e-08
1.01141e-08
1.04612e-08
1.01237e-08
1.00946e-08
1.01181e-08
1.0155e-08
1.01671e-08
1.01149e-08
1.00425e-08
1.0021e-08
1.00964e-08
1.00662e-08
1.00466e-08
1.00387e-08
1.00412e-08
1.00734e-08
1.02736e-08
1.19027e-08
1.43673e-08
1.01223e-08
1.01626e-08
1.01697e-08
1.01202e-08
1.00487e-08
1.00215e-08
1.01258e-08
1.00977e-08
1.00671e-08
1.00482e-08
1.00417e-08
1.00577e-08
1.37091e-08
4.75153e-08
1.37223e-07
1.15236e-08
1.01685e-08
1.0223e-08
1.01224e-08
1.00556e-08
1.00233e-08
1.01835e-08
1.01299e-08
1.00991e-08
1.00693e-08
1.0365e-08
3.28345e-08
1.20765e-07
6.47761e-07
1.85818e-06
1.2145e-07
1.92261e-05
1.30733e-08
1.0158e-08
1.00596e-08
1.00255e-08
1.76426e-07
1.11735e-08
1.20901e-08
1.58895e-08
8.63337e-08
4.86679e-07
2.83364e-06
7.9503e-06
1.80009e-05
4.15921e-06
1.91878e-05
0.0140499
1.26596e-08
1.00679e-08
1.00272e-08
1.61031e-07
7.90768e-06
4.33249e-05
7.6299e-06
2.51487e-06
5.92781e-06
2.50713e-05
8.02002e-05
0.000125279
6.2531e-05
1.99659e-05
0.0113464
0.0154511
0.0164491
1.0665e-08
1.00284e-08
5.27323e-08
6.73459e-06
0.000371723
0.00303727
0.000710355
0.000131634
0.00016551
0.000423375
0.000707508
0.000435454
2.80363e-05
0.00924968
0.0131723
0.0160542
0.0176466
0.0183185
1.00702e-08
1.39871e-08
2.3144e-06
0.000298301
0.00627292
0.0287532
0.00939334
0.00166315
0.00198946
0.00285425
0.00185122
0.000142333
0.00711814
0.0110838
0.0132717
0.0167766
0.019001
0.0198486
0.0199912
3.43527e-07
0.000129012
0.00499543
0.0355947
0.078087
0.0299382
0.00804425
0.0102401
0.00641677
0.00172075
0.00511312
0.00917208
0.0108381
0.0135401
0.0176351
0.0202932
0.0216712
0.0219415
0.021481
2.95865e-05
0.00264107
0.0312395
0.0697799
0.10555
0.0460807
0.0297553
0.0196157
0.00622998
0.00282491
0.00809988
0.00881857
0.0108713
0.0142579
0.0191338
0.0216035
0.0239224
0.0244807
0.0244394
0.0228704
0.000929171
0.0203141
0.0667833
0.0771642
0.108767
0.057298
0.0560044
0.0220569
0.00223791
0.00754782
0.00755132
0.00872861
0.0114995
0.0156637
0.0272587
0.022674
0.0259319
0.0275846
0.0273732
0.0272159
0.0241919
0.0100867
0.0543488
0.0667111
0.0736082
0.0983018
0.0705871
0.0526224
0.0185263
0.00524086
0.00708507
0.00739986
0.00921125
0.0123869
0.0198879
0.494235
0.0304615
0.494706
0.477523
0.477887
0.0271746
0.0301158
0.0310287
0.0307184
0.0305253
0.0255091
0.0337185
0.0645257
0.0599921
0.0708506
0.0797683
0.078091
0.0494823
0.00785117
0.00673139
0.0068085
0.00779121
0.00975512
0.0146599
0.110499
0.559637
0.588379
0.0284636
0.560245
0.548843
0.549702
0.588639
0.570657
0.570875
0.0320645
0.0342253
0.034821
0.034585
0.0342677
0.0267607
0.044618
0.0589593
0.0608176
0.0692418
0.0629609
0.0612238
0.0434628
0.00652727
0.00704453
0.00729497
0.00818062
0.0104372
0.0401113
0.415774
0.415695
0.431664
0.43174
0.661266
0.585021
0.0331018
0.0452094
0.661612
0.657345
0.658215
0.584731
0.553285
0.553077
0.0368423
0.0388357
0.0390827
0.0390828
0.0384274
0.0279226
0.0365998
0.0501406
0.0627851
0.0610014
0.039869
0.058151
0.0345906
0.00739731
0.00754251
0.00792791
0.0082681
0.0213834
0.391252
0.3913
0.402974
0.403217
0.478008
0.478209
0.521932
0.5219
0.652127
0.52268
0.816718
0.515689
0.852539
0.0376079
0.0391168
0.582678
0.582763
0.545771
0.546169
0.651916
0.693502
0.693619
0.521374
0.818802
0.515667
0.845039
0.498706
0.757088
0.485702
0.813903
0.497907
0.7653
0.486549
0.809541
0.042411
0.044225
0.0441948
0.0443265
0.0428906
0.0289795
0.0220592
0.0345747
0.0402752
0.0363502
0.031618
0.0707738
0.0318893
0.00864886
0.00849734
0.00802958
0.0173782
0.401884
0.402125
0.415336
0.415868
0.486431
0.486385
0.493749
0.493746
0.692452
0.780482
0.434335
0.713241
0.445265
0.454082
0.790908
0.693719
0.434605
0.712949
0.44527
0.455798
0.767769
0.477548
0.771504
0.480469
0.768383
0.477625
0.771298
0.480407
0.580766
0.86741
0.558988
0.937181
0.489102
0.855663
0.481186
0.887012
0.0435555
0.0415791
0.564685
0.564889
0.607519
0.607254
0.730741
0.730675
0.666623
0.667312
0.579704
0.874722
0.559703
0.931297
0.619199
0.927525
0.608331
0.995487
0.618337
0.940592
0.609874
0.990366
0.487684
0.860521
0.481834
0.880452
0.469116
0.849763
0.468326
0.845881
0.0492959
0.050817
0.050367
0.0499596
0.0473539
0.0297956
0.0104812
0.0163634
0.0201744
0.020344
0.0331568
0.0751952
0.0295598
0.0122931
0.00864573
0.0169219
0.491358
0.4917
0.519442
0.519851
0.512409
0.512422
0.544506
0.544661
0.729735
0.452019
0.728489
0.450822
0.73235
0.452408
0.734243
0.451645
0.753428
0.463078
0.740635
0.457088
0.761461
0.464296
0.747282
0.458125
0.772951
0.72548
0.43019
0.430294
0.762558
0.440232
0.78401
0.726346
0.432369
0.430387
0.761985
0.440173
0.808221
0.462393
0.813399
0.467079
0.809494
0.462605
0.813019
0.467016
0.535628
0.886228
0.506858
0.95551
0.47377
0.86096
0.466695
0.894402
0.0520795
0.0452194
0.491353
0.491837
0.509767
0.509933
0.711797
0.711704
0.740448
0.740202
1.07004
0.670226
1.04573
0.661419
1.07281
0.670586
1.04695
0.661588
0.933947
0.951135
0.591906
0.966976
0.611892
0.561464
0.937638
0.963178
0.592715
0.968446
0.612318
0.563594
0.534531
0.893926
0.508174
0.950319
0.571504
1.01851
0.570411
1.01309
0.472257
0.864504
0.467307
0.886962
0.452114
0.84662
0.451656
0.844451
0.0586726
0.0590735
0.0570048
0.0555836
0.0513724
0.0301951
0.00407441
0.00841736
0.0122111
0.0171013
0.0389948
0.0672196
0.0379762
0.0187332
0.0106641
0.527634
0.527964
0.505002
0.505513
0.604381
0.604334
0.651107
0.651309
0.77991
0.480563
0.789023
0.485683
0.786822
0.481627
0.794741
0.486551
0.837213
0.530052
0.826423
0.510148
0.842337
0.53081
0.83122
0.51094
0.77155
0.44068
0.769355
0.437844
0.775145
0.441361
0.776633
0.439205
0.787546
0.4443
0.780598
0.440533
0.796967
0.44615
0.788415
0.442124
0.515557
0.878532
0.484041
0.959229
0.0655991
0.0516769
0.36281
0.36309
0.399662
0.39987
0.620443
0.620478
0.654203
0.654153
1.02591
0.644869
1.04874
0.653105
1.03594
0.646252
1.05848
0.654493
1.07945
0.673359
1.07548
0.671806
1.08326
0.67385
1.08381
0.672897
1.12909
0.64892
1.09299
0.637155
1.13299
0.649549
1.09418
0.6374
0.95392
0.969195
0.581718
0.533533
1.02475
0.599007
0.964588
0.973036
0.582531
0.535636
1.0261
0.599377
0.514519
0.885415
0.485445
0.954019
0.546687
1.01315
0.545613
1.00831
0.071361
0.0683808
0.0632723
0.0607817
0.0544469
0.0301043
0.00195452
0.00481791
0.0106437
0.0157573
0.0369859
0.0687256
0.0488362
0.027869
0.0315071
0.672932
0.673159
0.658522
0.659168
0.654208
0.654257
0.688085
0.688111
0.818253
0.461766
0.850153
0.473879
0.826309
0.46338
0.856118
0.475129
0.908313
0.530809
0.895945
0.499431
0.915169
0.53203
0.902417
0.500732
0.806023
0.44389
0.815035
0.445756
0.0864951
0.0673031
0.169819
0.170096
0.219494
0.219698
0.432651
0.432724
0.493209
0.492988
0.87973
0.55899
0.891139
0.564159
0.88932
0.560235
0.89934
0.565279
0.95236
0.602283
0.922001
0.588318
0.960598
0.603378
0.929963
0.589349
1.06186
0.605374
1.08771
0.620482
1.07295
0.607525
1.09758
0.622473
1.12083
0.646458
1.11026
0.640452
1.12523
0.647252
1.1188
0.642033
0.0869966
0.0766343
0.0684838
0.0653092
0.0557343
0.0292185
0.00109987
0.00401054
0.0113345
0.0149724
0.0436709
0.0708701
0.059315
0.0388863
0.514684
0.514987
0.509146
0.509589
0.692763
0.692518
0.671528
0.671984
0.597892
0.961242
0.587869
0.988381
0.59772
0.961164
0.587904
0.987304
0.615745
1.00226
0.614553
1.01046
0.615669
1.00681
0.615194
1.01
0.837033
0.456693
0.866886
0.467774
0.844221
0.458301
0.872035
0.468998
0.933869
0.520505
0.908768
0.490702
0.939893
0.521717
0.914028
0.491958
0.116418
0.103399
0.0529427
0.17532
0.17556
0.256737
0.256981
0.433124
0.433377
0.5246
0.525615
0.902522
0.520178
0.947017
0.533126
0.913315
0.522141
0.955902
0.534911
0.998803
0.570699
0.97455
0.553182
1.00877
0.572619
0.983337
0.554933
1.06056
0.593993
1.07196
0.596292
0.100292
0.0815505
0.0721948
0.0678965
0.0536575
0.024619
0.000845105
0.00423436
0.0100177
0.0184868
0.051579
0.076359
0.0816515
0.0589419
0.647235
0.647071
0.612138
0.612004
1.00636
0.617778
0.628739
1.00375
1.01143
0.618399
0.62839
1.00253
0.695802
0.695706
0.580557
1.03452
0.574595
1.06296
0.580267
1.03432
0.574583
1.06118
0.584455
1.05635
0.582249
1.06835
0.584477
1.06191
0.583334
1.06816
0.969866
0.530642
0.974873
0.531588
0.138527
0.165817
0.13455
0.112271
0.112522
0.180099
0.180771
0.229498
0.229892
0.321896
0.32214
0.416299
0.66802
0.394064
0.711957
0.41636
0.666846
0.393871
0.710542
0.460139
0.799101
0.470606
0.771272
0.460876
0.804708
0.471846
0.774035
0.911809
0.49339
0.943886
0.510926
0.920369
0.495268
0.950497
0.512578
1.00652
0.554525
0.978368
0.533501
1.01634
0.556633
0.986406
0.535346
0.105331
0.0828107
0.0742372
0.0658874
0.0453994
0.000752264
0.0043717
0.0102799
0.0243142
0.0463235
0.150654
0.0882224
0.52273
0.522474
0.507983
0.508137
0.95899
0.591201
0.939953
0.599617
0.961863
0.591644
0.943494
0.600052
0.667562
0.66757
1.06273
0.586992
0.606855
1.05394
1.06735
0.587845
0.606653
1.05337
0.986611
0.606507
1.00757
0.612046
0.988996
0.606801
1.00666
0.611846
0.575165
1.06326
0.568291
1.07121
0.575519
1.06898
0.569413
1.07334
0.143612
0.19936
0.258724
0.282034
0.363364
0.362616
0.300851
0.301102
0.349237
0.349828
0.599154
0.34023
0.309247
0.527361
0.59955
0.340022
0.309338
0.530384
0.412955
0.743971
0.389034
0.783807
0.413029
0.7427
0.388782
0.783389
0.440002
0.840028
0.455159
0.821228
0.440771
0.846449
0.456536
0.824105
0.909836
0.483882
0.918526
0.485765
0.102386
0.0816477
0.074228
0.0629656
0.000685001
0.00493393
0.0173354
0.0320438
0.0785775
0.148678
0.457077
0.457163
0.455299
0.455421
0.61254
0.612367
0.560641
0.560289
1.00369
0.563744
0.986641
0.582328
1.00743
0.56452
0.989574
0.582901
0.593391
0.92284
0.592012
0.958946
0.593586
0.926182
0.592416
0.959872
1.0668
0.567743
0.582187
1.07051
1.06853
0.568236
0.58186
1.06888
1.02743
0.567985
1.05143
0.581407
1.03116
0.568684
1.05156
0.58141
0.133846
0.201521
0.296516
0.476693
0.886266
0.885226
0.718025
0.716698
0.601068
0.598962
0.746046
0.350131
0.715855
0.351675
0.74003
0.348734
0.705893
0.348931
0.704454
0.347714
0.718755
0.352939
0.625738
0.328239
0.702754
0.347269
0.718006
0.352765
0.627531
0.328312
0.702868
0.358152
0.703167
0.358058
0.409878
0.788539
0.391426
0.812094
0.409826
0.787118
0.391109
0.811267
0.0952956
0.0804964
0.076977
0.000872416
0.00784769
0.0321468
0.0540211
0.097417
0.221499
0.250826
0.25094
0.398099
0.397899
0.840089
0.949723
0.538188
0.789304
0.513364
0.563005
0.952573
0.840715
0.563509
0.538257
0.791147
0.513568
0.560327
0.440676
0.634584
0.451477
0.562674
0.440873
0.637083
0.451759
0.994724
0.544401
0.994619
0.557316
0.997712
0.545108
0.996577
0.557771
0.564868
0.990572
0.565148
0.991767
0.574746
1.0668
0.574471
1.06532
1.01409
0.552892
1.01814
0.553663
0.118243
0.179864
0.284858
0.477245
1.29095
1.29074
1.16551
1.16459
1.10754
1.10451
0.976453
0.975423
0.565232
1.21543
0.600796
1.20352
0.438954
0.956248
0.564768
1.21374
0.599923
1.20167
0.437789
0.952305
0.925712
0.416407
0.921176
0.415331
0.874284
0.400609
0.866863
0.758538
0.396344
0.36238
0.872024
0.399959
0.865075
0.758852
0.39588
0.362287
0.785069
0.377442
0.784418
0.377221
0.0876514
0.0886875
0.00154767
0.0183878
0.0471102
0.0765539
0.13286
0.224028
0.224003
0.188784
0.188781
0.253157
0.253466
0.237198
0.237304
0.937704
0.817095
0.498614
0.543326
0.720487
0.451993
0.940304
0.81825
0.543777
0.498801
0.72257
0.452361
0.334352
0.305371
0.506399
0.361681
0.336217
0.305781
0.508682
0.362154
0.993314
0.551252
0.994909
0.551636
0.100606
0.151923
0.243543
0.415175
0.888012
1.43695
1.43605
1.3141
1.31175
1.99424
1.00474
1.93874
0.943944
1.98324
1.00139
1.93028
0.941838
1.68285
1.4288
0.823751
1.79121
0.878186
0.693434
1.68301
1.43135
0.823752
1.7867
0.876952
0.694002
0.642451
0.527478
1.32634
1.13007
0.64294
0.52649
1.3286
1.12619
1.06811
0.496627
1.06276
0.495331
1.00909
0.467211
0.834377
0.386096
1.00467
0.466028
0.834033
0.385837
0.0992145
0.00523933
0.0358796
0.0668094
0.0992017
0.1218
0.16368
0.163732
0.124061
0.124021
0.149862
0.259272
0.166556
0.269262
0.150094
0.260221
0.166801
0.270214
0.190867
0.191129
0.254014
0.212149
0.363009
0.294133
0.255273
0.212483
0.364549
0.294561
0.108909
0.122077
0.196429
0.330214
0.632286
1.83688
1.83688
1.74711
1.74608
1.51108
1.51036
1.49336
1.49011
2.19759
1.07476
2.07206
1.00741
2.19066
1.07302
2.06688
1.00617
1.57473
1.79287
0.770995
0.879119
1.92442
0.938117
1.58021
1.7909
0.878647
0.772085
1.9202
0.937179
0.59954
1.24355
0.599543
1.24408
0.0167486
0.0560936
0.0846805
0.106394
0.110088
0.109963
0.251309
0.251405
0.139719
0.140116
0.093624
0.0937434
0.134402
0.206412
0.129156
0.245146
0.134686
0.207298
0.12937
0.246335
0.269161
0.140028
0.281816
0.145489
0.270433
0.140304
0.283393
0.145879
0.173702
0.143304
0.174324
0.143458
0.118913
0.152065
0.251224
0.445445
0.997969
1.80236
1.80128
1.78652
1.78506
1.672
1.6721
1.21768
2.38172
1.17743
2.37714
1.21729
2.37409
1.17594
2.37614
2.28914
1.12194
2.15084
1.05949
2.28238
1.12046
2.14546
1.05827
0.0347921
0.0736912
0.0883968
0.125119
0.0959847
0.0958162
0.214159
0.2143
0.247446
0.133082
0.0825718
0.181285
0.105577
0.129916
0.249163
0.1335
0.0829097
0.182903
0.105957
0.131284
0.068027
0.0682598
0.139249
0.223045
0.133995
0.256207
0.139643
0.224713
0.134381
0.257768
0.264643
0.143259
0.266293
0.143667
0.130296
0.186252
0.311496
0.588496
1.6579
1.65697
1.73066
1.72949
1.67781
1.67705
1.82098
1.81894
2.60488
1.3609
2.60756
1.32522
2.50433
1.25923
2.60831
1.36098
2.62017
1.32811
2.50769
1.26033
2.4404
1.2109
2.44139
1.21129
2.33174
1.15923
2.32764
1.15842
0.0574165
0.0819388
0.081435
0.207829
0.207988
0.179389
0.179061
0.0923769
0.0918315
0.15462
0.15514
0.211882
0.120875
0.0751343
0.145497
0.0932213
0.110051
0.213591
0.121243
0.0753519
0.146513
0.0934581
0.110859
0.0734273
0.0553365
0.0789576
0.0591625
0.0737384
0.0553907
0.0793298
0.059262
0.142546
0.219764
0.360101
0.763575
1.4035
1.40113
1.52676
1.52441
1.67988
1.67748
2.70623
1.38619
1.38796
2.76947
1.41617
2.63801
1.38657
2.76245
1.41447
2.63495
2.71124
1.38729
2.6025
2.52475
1.3358
1.2769
2.61726
2.53927
1.33875
1.28
2.44027
1.23083
2.45157
1.23313
0.0709259
0.0814112
0.0776165
0.134902
0.135199
0.147786
0.147407
0.0831817
0.0592159
0.0848095
0.127397
0.0705391
0.174911
0.0832267
0.0591782
0.0837966
0.125259
0.0699866
0.171438
0.114323
0.114028
0.0694913
0.0934134
0.069586
0.0937955
0.0816997
0.0593115
0.081746
0.0592962
0.153273
0.236229
0.358537
0.991634
0.988059
1.29008
1.28636
1.18915
1.18671
1.31812
1.31422
2.13512
1.13988
2.40739
1.21829
2.64401
1.35296
2.12502
2.63361
1.35075
1.13679
2.40949
1.21892
2.69114
1.38691
2.71124
1.39582
2.6999
2.69172
1.39359
1.38684
0.0470266
0.0771237
0.088479
0.110101
0.110027
0.104115
0.104056
0.0999298
0.0614004
0.0661191
0.124672
0.064493
0.113457
0.0991727
0.0611619
0.0647861
0.121097
0.0635512
0.109632
0.122587
0.0823925
0.0915977
0.0636398
0.122411
0.0822989
0.0925168
0.0638126
0.0923783
0.0603492
0.0919247
0.0602238
0.154782
0.205841
0.243108
0.789221
0.783549
1.00397
0.998793
1.15001
1.14585
2.03451
1.04628
0.940341
1.90968
0.971297
1.73598
2.04041
1.04734
0.937924
1.89731
0.968648
1.72825
2.16436
2.48023
1.09432
1.27259
2.47577
1.27201
2.17746
1.09724
0.0545496
0.133904
0.0954342
0.0965898
0.0965434
0.0953562
0.175597
0.175332
0.102808
0.115351
0.0784576
0.102815
0.114748
0.0783387
0.0991856
0.0572947
0.0491333
0.0749753
0.0510773
0.0670183
0.0971104
0.05687
0.0488802
0.0732467
0.0507271
0.0664371
0.0768314
0.0592276
0.0771287
0.0592434
0.131945
0.117245
0.0953608
0.455919
0.447455
0.783028
0.773648
1.4103
0.804985
1.66088
0.846319
1.76954
0.905937
1.38794
1.76151
0.903797
0.796781
1.65521
0.84511
1.9509
0.984176
1.82483
0.921457
1.94713
0.983437
1.81538
0.919538
1.98574
1.00937
1.99953
1.01221
0.155641
0.0835811
0.0994733
0.160159
0.0995428
0.159861
0.198909
0.198751
0.112478
0.0998612
0.0770468
0.106896
0.0775863
0.0868984
0.110412
0.0934639
0.0996496
0.112878
0.0769829
0.1064
0.0774619
0.0870625
0.111937
0.093381
0.0473306
0.0509397
0.0471854
0.0512943
0.0715474
0.0601215
0.0723589
0.0600843
0.0904389
0.0561483
0.057083
0.287571
0.280038
0.0567024
0.0909345
0.0904731
0.569901
1.37291
0.738691
0.560631
1.35244
0.732382
1.67744
1.51906
0.85734
0.773203
1.67764
0.857242
1.51066
0.771166
1.85494
0.934892
1.71434
0.882646
1.83941
0.932112
1.71416
0.882607
0.0700553
0.0652996
0.132257
0.111057
0.145765
0.116186
0.132518
0.111721
0.148937
0.115725
0.131111
0.131364
0.102906
0.124307
0.0756543
0.06361
0.078175
0.0960313
0.103615
0.0765351
0.127783
0.0635845
0.0783776
0.096887
0.0494623
0.052499
0.0494268
0.0530662
0.061738
0.0367261
0.0763519
0.132392
0.129176
0.0752067
0.0897989
0.0871148
0.549913
1.0385
0.544387
1.22765
0.65881
0.331499
0.318732
0.314391
0.527451
1.01552
0.538338
1.20263
0.651524
0.3249
0.304687
0.304353
1.54634
1.36742
0.803237
0.70443
1.54881
0.803252
1.35096
0.701265
0.0131977
0.126607
0.120549
0.120717
0.127009
0.143534
0.143294
0.144647
0.130629
0.214038
0.139076
0.182223
0.148513
0.143436
0.115743
0.110406
0.134565
0.120886
0.146161
0.131669
0.216616
0.139593
0.185048
0.145672
0.148247
0.11571
0.109753
0.137408
0.119274
0.112995
0.153834
0.0872075
0.117649
0.116402
0.15757
0.0880524
0.118743
0.0463815
0.0351302
0.0740945
0.155811
0.235795
0.270237
0.153268
0.236405
0.268561
0.0710307
0.108356
0.101245
0.758291
0.390246
1.17442
0.401207
0.612602
0.242554
0.733199
0.380229
1.15521
0.609427
0.396969
0.240197
1.39899
0.751083
1.39057
0.749806
0.00658115
0.111485
0.11462
0.111983
0.115025
0.110959
0.110827
0.200611
0.193777
0.123308
0.135047
0.121708
0.0852453
0.125303
0.111948
0.0876528
0.124781
0.110452
0.102201
0.150895
0.159515
0.204158
0.196062
0.135961
0.123894
0.124383
0.0856696
0.111643
0.122832
0.0859743
0.126238
0.108407
0.0999289
0.150277
0.157741
0.0355723
0.0278792
0.0861639
0.08304
0.0273645
0.041926
0.0419354
0.206749
0.214684
0.263997
0.172193
0.252595
0.316351
0.216882
0.159732
0.192924
0.213575
0.263227
0.170382
0.252513
0.300026
0.206906
0.15725
0.134773
0.191122
0.231137
0.127769
0.174372
0.216979
0.574313
0.321805
0.338173
0.206675
0.555867
0.319387
0.336001
0.206202
0.00326463
0.0911341
0.131973
0.123657
0.0610768
0.0916191
0.133042
0.124376
0.0612699
0.0600726
0.0598573
0.154182
0.105005
0.111164
0.0754247
0.0947049
0.112552
0.106161
0.0700748
0.0662626
0.0751128
0.157484
0.106067
0.11124
0.0750555
0.0922821
0.104728
0.111773
0.0689269
0.064666
0.0746584
0.0275102
0.0219253
0.0650232
0.0628172
0.0220173
0.0272787
0.0279336
0.309402
0.219367
0.190438
0.12778
0.177329
0.107758
0.307782
0.215681
0.190209
0.127141
0.167277
0.105444
0.158336
0.188324
0.130721
0.187391
0.188996
0.173416
0.168841
0.287656
0.147119
0.171763
0.126266
0.169075
0.178586
0.166711
0.160388
0.274695
0.0020418
0.0366735
0.0366301
0.0559055
0.126565
0.0950797
0.12265
0.106868
0.0381095
0.055943
0.126506
0.0931058
0.119926
0.106467
0.0381563
0.0930295
0.0807002
0.0950499
0.0633959
0.0549147
0.0646731
0.0897714
0.0774012
0.0918901
0.0622581
0.0539774
0.0634437
0.0247652
0.0155288
0.0672824
0.183853
0.125333
0.0654279
0.184925
0.123491
0.0160708
0.02436
0.0254337
0.195674
0.122084
0.179263
0.112136
0.189615
0.121661
0.168175
0.110929
0.158655
0.0965987
0.169297
0.0929401
0.0999134
0.0915382
0.144335
0.0905298
0.15756
0.0999369
0.0913684
0.089753
0.000891247
0.0209836
0.0228732
0.0209146
0.0228474
0.0455876
0.104366
0.0697981
0.10896
0.0672254
0.0801773
0.0561513
0.0272345
0.0452344
0.106964
0.0693413
0.108712
0.0670983
0.0760224
0.0544284
0.0270718
0.0650607
0.0472552
0.0609334
0.0459869
0.0267004
0.0137079
0.0139022
0.0619449
0.218261
0.141672
0.235177
0.126435
0.0614883
0.216216
0.13478
0.224013
0.124665
0.0170127
0.0174422
0.114069
0.149469
0.0891843
0.0890307
0.0943169
0.0833794
0.105667
0.137563
0.0833495
0.0963175
0.0899909
0.0823366
0.000997975
0.0261345
0.0263457
0.0262184
0.0264463
0.0312993
0.0311534
0.0423665
0.0976939
0.0625524
0.0953129
0.0622826
0.0460163
0.0626127
0.0474532
0.0611533
0.0568015
0.0414168
0.041983
0.0991414
0.0620529
0.0952169
0.0616714
0.0462577
0.0609735
0.0470873
0.059914
0.0534736
0.0402411
0.0361527
0.0147264
0.0200716
0.0148199
0.0198154
0.0525916
0.201474
0.134692
0.222771
0.120511
0.0835058
0.0754048
0.0513716
0.207607
0.130919
0.217577
0.123892
0.0788487
0.0745876
0.0129039
0.0140806
0.105707
0.102219
0.0987916
0.103804
0.000821966
0.0263927
0.0272774
0.0263911
0.0271377
0.0344341
0.0321723
0.0343464
0.0321423
0.0421955
0.04192
0.0851057
0.0589907
0.0896596
0.0558255
0.0459362
0.0607206
0.0460897
0.0612926
0.0402667
0.0502442
0.0381462
0.0532074
0.0877102
0.0590817
0.0902261
0.0562608
0.0460577
0.0601969
0.0462634
0.0600885
0.0402927
0.0494549
0.0378032
0.0529435
0.0501208
0.0297101
0.0392927
0.0292511
0.03899
0.0133778
0.0140416
0.0455389
0.193253
0.123721
0.205077
0.114799
0.0814581
0.0808733
0.0751293
0.0797767
0.088004
0.102968
0.0450268
0.194668
0.117883
0.195816
0.116286
0.0809854
0.077039
0.0743811
0.078905
0.0826075
0.104395
0.000320537
0.0230112
0.0165885
0.0228163
0.016163
0.0321204
0.033596
0.0320553
0.0334921
0.0389837
0.0357652
0.0388695
0.0356035
0.0855306
0.051458
0.0867522
0.0532225
0.0887264
0.0522598
0.0898213
0.0537645
0.0420498
0.0536467
0.0429408
0.0495888
0.0427954
0.0542269
0.0433796
0.0506963
0.0516202
0.0492938
0.0428831
0.04933
0.0430002
0.0218826
0.040463
0.0226015
0.0400038
0.0395993
0.0409459
0.172114
0.116368
0.196963
0.101475
0.075008
0.0755712
0.0797793
0.074102
0.0955623
0.0770567
0.0775254
0.0863609
0.178152
0.112044
0.19081
0.104022
0.0748046
0.0735902
0.0790826
0.0740449
0.0961577
0.0739353
0.0785198
0.0843849
0.00542777
0.000371126
0.0260889
0.0137211
0.0258494
0.0132879
0.0352385
0.0396373
0.0350618
0.0393441
0.0870101
0.0472135
0.0867019
0.0454304
0.0875368
0.044047
0.0925186
0.0426
0.090522
0.0483195
0.089927
0.0464331
0.0896522
0.0438079
0.0917364
0.0432165
0.0413741
0.0422198
0.0383477
0.0468163
0.0424874
0.0437429
0.0396029
0.0481886
0.0658025
0.0397729
0.0432271
0.0398319
0.0427876
0.0598351
0.0540851
0.0595794
0.0537668
0.0441691
0.0629324
0.0448284
0.0618575
0.164097
0.103371
0.170686
0.0981932
0.170694
0.103638
0.171131
0.101188
0.091671
0.0721331
0.0795247
0.0706972
0.0918913
0.070034
0.0789082
0.0709484
0.00157206
0.0207813
0.0146331
0.0206488
0.0147921
0.000591194
0.0393629
0.0347192
0.0387346
0.0338953
0.0906742
0.042789
0.0916366
0.0421787
0.100471
0.0518076
0.109505
0.0472087
0.0930061
0.0426019
0.0909688