/*--------------------------------*- C++ -*----------------------------------*\
| =========                 |                                                 |
| \\      /  F ield         | OpenFOAM: The Open Source CFD Toolbox           |
|  \\    /   O peration     | Version:  5.x                                   |
|   \\  /    A nd           | Web:      www.OpenFOAM.org                      |
|    \\/     M anipulation  |                                                 |
\*---------------------------------------------------------------------------*/
FoamFile
{
    version     2.0;
    format      ascii;
    class       surfaceScalarField;
    location    "2.4";
    object      meshPhi;
}
// * * * * * * * * * * * * * * * * * * * * * * * * * * * * * * * * * * * * * //

dimensions      [0 3 -1 0 0 0 0];

internalField   nonuniform List<scalar> 
30582
(
0
0
0
0
0
0
0
0
0
0
0
0
0
0
0
0
0
0
0
0
0
0
0
0
0
0
0
0
0
0
0
0
0
0
0
0
0
0
0
0
0
0
0
0
0
0
0
0
0
0
0
0
0
0
0
0
0
0
0
0
0
0
0
0
0
0
0
0
0
0
0
0
0
0
0
0
0
0
0
0
0
0
0
0
0
0
0
0
0
0
0
0
0
0
0
0
0
0
0
0
0
0
0
0
0
0
0
0
0
0
0
0
0
0
0
0
0
0
0
0
0
0
0
0
0
0
0
0
0
0
0
0
0
0
0
0
0
0
0
0
0
0
0
0
0
0
0
0
0
0
0
0
0
0
0
0
0
0
0
0
0
0
0
0
0
0
0
0
0
0
0
0
0
0
0
0
0
0
0
0
0
0
0
0
0
0
0
0
0
0
0
0
0
0
0
0
0
0
0
0
0
0
0
0
0
0
0
0
0
0
0
0
0
0
0
0
0
0
0
0
0
0
0
0
0
0
0
0
0
0
0
0
0
0
0
0
0
0
0
0
0
0
0
0
0
0
0
0
0
0
0
0
0
0
0
0
0
0
0
0
0
0
0
0
0
0
0
0
0
0
0
0
0
0
0
0
0
0
0
0
0
0
0
0
0
0
0
0
0
0
0
0
0
0
0
0
0
0
0
0
0
0
0
0
0
0
0
0
0
0
0
0
0
0
0
0
0
0
0
0
0
0
0
0
0
0
0
0
0
0
0
0
0
0
0
0
0
0
0
0
0
0
0
0
0
0
0
0
0
0
0
0
0
0
0
0
0
0
0
0
0
0
0
0
0
0
0
0
0
0
0
0
0
0
0
0
0
0
0
0
0
0
0
0
0
0
0
0
0
0
0
0
0
0
0
0
0
0
0
0
0
0
0
0
0
0
0
0
0
0
0
0
0
0
0
0
0
0
0
0
0
0
0
0
0
0
0
0
0
0
0
0
0
0
0
0
0
0
0
0
0
0
0
0
0
0
0
0
0
0
0
0
0
0
0
0
0
0
0
0
0
0
0
0
0
0
0
0
0
0
0
0
0
0
0
0
0
0
0
0
0
0
0
0
0
0
0
0
0
0
0
0
0
0
0
0
0
0
0
0
0
0
0
0
0
0
0
0
0
0
0
0
0
0
0
0
0
0
0
0
0
0
0
0
0
0
0
0
0
0
0
0
0
0
0
0
0
0
0
0
0
0
0
0
0
0
0
0
0
0
0
0
0
0
0
0
0
0
0
0
0
0
0
0
0
0
0
0
0
0
0
0
0
0
0
0
0
0
0
0
0
0
0
0
0
0
0
0
0
0
0
0
0
0
0
0
0
0
0
0
0
0
0
0
0
0
0
0
0
0
0
0
0
0
0
0
0
0
0
0
0
0
0
0
0
0
0
0
0
0
0
0
0
0
0
0
0
0
0
0
0
0
0
0
0
0
0
0
0
0
0
0
0
0
0
0
0
0
0
0
0
0
0
0
0
0
0
0
0
0
0
0
0
0
0
0
0
0
0
0
0
0
0
0
0
0
0
0
0
0
0
0
0
0
0
0
0
0
0
0
0
0
0
0
0
0
0
0
0
0
0
0
0
0
0
0
0
0
0
0
0
0
0
0
0
0
0
0
0
0
0
0
0
0
0
0
0
0
0
0
0
0
0
0
0
0
0
0
0
0
0
0
0
0
0
0
0
0
0
0
0
0
0
0
0
0
0
0
0
0
0
0
0
0
0
0
0
0
0
0
0
0
0
0
0
0
0
0
0
0
0
0
0
0
0
0
0
0
0
0
0
0
0
0
0
0
0
0
0
0
0
0
0
0
0
0
0
0
0
0
0
0
0
0
0
0
0
0
0
0
0
0
0
0
0
0
0
0
0
0
0
0
0
0
0
0
0
0
0
0
0
0
0
0
0
0
0
0
0
0
0
0
0
0
0
0
0
0
0
0
0
0
0
0
0
0
0
0
0
0
0
0
0
0
0
0
0
0
0
0
0
0
0
0
0
0
0
0
0
0
0
0
0
0
0
0
0
0
0
0
0
0
0
0
0
0
0
0
0
0
0
0
0
0
0
0
0
0
0
0
0
0
0
0
0
0
0
0
0
0
0
0
0
0
0
0
0
0
0
0
0
0
0
0
0
0
0
0
0
0
0
0
0
0
0
0
0
0
0
0
0
0
0
0
0
0
0
0
0
0
0
0
0
0
0
0
0
0
0
0
0
0
0
0
0
0
0
0
0
0
0
0
0
0
0
0
0
0
0
0
0
0
0
0
0
0
0
0
0
0
0
0
0
0
0
0
0
0
0
0
0
0
0
0
0
0
0
0
0
0
0
0
0
0
0
0
0
0
0
0
0
0
0
0
0
0
0
0
0
0
0
0
0
0
0
0
0
0
0
0
0
0
0
0
0
0
0
0
0
0
0
0
0
0
0
0
0
0
0
0
0
0
0
0
0
0
0
0
0
0
0
0
0
0
0
0
0
0
0
0
0
0
0
0
0
0
0
0
0
0
0
0
0
0
0
0
0
0
0
0
0
0
0
0
0
0
0
0
0
0
0
0
0
0
0
0
0
0
0
0
0
0
0
0
0
0
0
0
0
0
0
0
0
0
0
0
0
0
0
0
0
0
0
0
0
0
0
0
0
0
0
0
0
0
0
0
0
0
0
0
0
0
0
0
0
0
0
0
0
0
0
0
0
0
0
0
0
0
0
0
0
0
0
0
0
0
0
0
0
0
0
0
0
0
0
0
0
0
0
0
0
0
0
0
0
0
0
0
0
0
0
0
0
0
0
0
0
0
0
0
0
0
0
0
0
0
0
0
0
0
0
0
0
0
0
0
0
0
0
0
0
0
0
0
0
0
0
0
0
0
0
0
0
0
0
0
0
0
0
0
0
0
0
0
0
0
0
0
0
0
0
0
0
0
0
0
0
0
0
0
0
0
0
0
0
0
0
0
0
0
0
0
0
0
0
0
0
0
0
0
0
0
0
0
0
0
0
0
0
0
0
0
0
0
0
0
0
0
0
0
0
0
0
0
0
0
0
0
0
0
0
0
0
0
0
0
0
0
0
0
0
0
0
0
0
0
0
0
0
0
0
0
0
0
0
0
0
0
0
0
0
0
0
0
0
0
0
0
0
0
0
0
0
0
0
0
0
0
0
0
0
0
0
0
0
0
0
0
0
0
0
0
0
0
0
0
0
0
0
0
0
0
0
0
0
0
0
0
0
0
0
0
0
0
0
0
0
0
0
0
0
0
0
0
0
0
0
0
0
0
0
0
0
0
0
0
0
0
0
0
0
0
0
0
0
0
0
0
0
0
0
0
0
0
0
0
0
0
0
0
0
3.81122e-18
-1.34415e-17
5.45376e-25
-4.03195e-17
-2.01557e-17
-2.68957e-17
0
0
0
0
0
0
0
0
0
0
0
0
0
0
0
0
0
0
0
0
0
0
0
0
0
0
0
0
0
0
0
0
0
0
0
0
0
0
-6.70489e-18
-2.11085e-34
9.78042e-19
-1.55397e-25
-3.35689e-17
2.68792e-17
3.74729e-18
-4.03195e-17
6.71895e-18
-4.03314e-17
1.94514e-18
4.26089e-25
6.7143e-17
-4.86695e-34
2.88042e-18
-4.02981e-17
-9.74022e-18
6.71636e-17
0
0
0
0
0
0
0
0
0
0
0
0
0
0
0
0
0
0
0
0
0
0
0
0
0
0
0
0
0
0
0
0
0
0
0
0
0
-1.11696e-18
5.78558e-18
-4.24557e-17
4.71922e-20
8.03466e-17
2.6758e-17
-5.36727e-17
1.76228e-35
1.91673e-18
-2.01414e-17
-2.44698e-33
9.88687e-19
-2.71681e-25
-3.34897e-17
0
-1.14143e-16
1.1233e-20
5.37144e-17
3.00045e-35
-9.3917e-19
-4.02981e-17
-9.74022e-18
4.02997e-17
6.06054e-20
-4.27517e-24
4.01949e-17
-3.75146e-34
8.81972e-21
5.35885e-17
0
0
0
0
0
0
0
0
0
0
0
0
0
0
0
0
0
0
0
0
0
0
0
0
0
0
0
0
0
0
0
0
0
0
0
-2.10883e-17
-4.01909e-17
-2.67536e-17
-6.77409e-18
-6.86495e-20
-3.16046e-34
-1.20931e-19
-7.24852e-20
-4.69128e-17
-1.54317e-17
3.70318e-18
2.64282e-17
2.43491e-34
-3.2307e-19
-2.00272e-17
3.60971e-18
2.67052e-17
-1.44533e-34
-1.05951e-19
6.70483e-18
0
-5.74724e-19
-1.16782e-23
-1.16723e-17
1.99984e-17
-1.50033e-17
2.00268e-17
0
0
-2.7908e-18
5.73465e-18
-2.74186e-17
-1.70949e-20
-4.02676e-17
-1.33398e-17
8.03466e-17
1.21211e-19
5.35932e-17
3.0512e-34
1.34059e-17
1.07231e-16
0
5.43482e-24
-3.00222e-17
3.33202e-18
-3.00021e-17
6.68839e-18
0
1.33809e-17
-3.45498e-18
1.3489e-17
-1.33752e-17
1.67292e-17
-1.34696e-17
1.69045e-17
-3.35773e-18
0
0
0
0
0
0
0
0
0
0
0
0
0
0
0
0
0
0
0
0
0
0
0
0
0
0
0
0
0
0
0
0
0
1.84962e-17
-3.36266e-17
2.68441e-17
-2.01522e-17
-1.36048e-17
1.05803e-34
5.78487e-18
-4.01464e-17
-3.65392e-18
5.34095e-17
3.96293e-34
-1.36184e-17
-2.01835e-17
0
5.39444e-17
-1.37547e-35
2.86526e-11
7.71381e-12
2.86598e-09
-1.15261e-13
4.23436e-13
-2.24844e-08
-3.28088e-13
-2.27568e-08
1.9981e-10
-1.21761e-18
2.35301e-19
-7.69231e-19
-2.36334e-19
6.79744e-18
-2.6046e-17
-1.70777e-18
-1.61316e-17
-3.10502e-18
-5.02564e-34
1.11652e-15
-1.33015e-12
-2.22452e-08
1.77564e-14
-4.48953e-08
-9.40023e-19
-1.63102e-18
-3.65206e-17
-6.65496e-18
-4.65751e-17
0
5.2056e-19
-1.50176e-17
6.67147e-18
-2.1665e-17
1.33373e-17
-1.09219e-18
-1.1164e-19
0
6.96278e-19
-1.16347e-17
2.31786e-31
-1.1253e-18
-5.74048e-23
1.16102e-17
0
-8.99441e-22
2.00899e-15
-1.30303e-18
1.3285e-17
0
0
5.48533e-17
-6.77429e-18
-1.35501e-17
2.32306e-20
-2.67536e-17
0
-1.92307e-18
-1.75261e-18
-6.67256e-18
9.63885e-18
3.60955e-18
1.0941e-33
0
-2.18875e-22
-2.00429e-17
3.84872e-18
1.33254e-17
1.10958e-19
-1.83426e-17
6.66505e-18
-1.16704e-17
6.67959e-18
0
1.33699e-17
-6.799e-18
2.01755e-17
-1.3367e-17
2.00575e-17
-1.68293e-17
1.68719e-17
-6.69199e-18
-1.65449e-18
-1.1148e-19
1.89892e-18
-1.16173e-17
0
-1.11064e-19
1.16368e-25
1.16224e-17
1.2933e-25
-8.30191e-18
0
-2.30177e-21
1.88935e-18
0
0
-2.65589e-17
0
1.79752e-18
-1.33014e-12
0
-1.88094e-10
1.98544e-17
1.35822e-18
-2.21876e-19
-2.32037e-17
-1.10269e-19
1.79676e-18
1.33789e-17
-5.03519e-17
1.32876e-17
0
0
0
0
0
0
0
0
0
0
0
0
0
0
0
0
0
0
0
0
0
0
0
0
0
0
0
0
0
0
0
-7.47649e-18
-2.33651e-20
1.33686e-17
-1.36193e-17
1.35554e-17
3.37883e-35
1.6937e-18
2.02349e-17
-1.88275e-17
5.36927e-17
4.75683e-35
1.31784e-19
-6.67665e-18
-1.55328e-17
2.67718e-17
-1.48892e-25
-6.45411e-09
4.78859e-12
-2.01679e-08
-1.11252e-10
-2.21216e-08
-1.4111e-08
6.56775e-18
-2.68657e-17
-2.10793e-12
1.61681e-10
5.17384e-27
6.28906e-09
-5.25931e-10
-2.02937e-09
1.87598e-10
-6.47026e-10
1.37481e-08
1.94166e-12
1.00595e-09
1.71444e-12
-3.29514e-10
5.37013e-24
-2.11543e-19
1.11611e-18
1.35675e-12
-4.34921e-19
3.10371e-13
1.97319e-13
-7.69641e-16
1.64922e-34
2.39541e-08
1.11607e-15
0
-7.18284e-13
-2.67677e-17
4.63044e-34
1.26474e-10
6.64651e-18
0
-2.91587e-09
-2.20822e-08
-1.0867e-19
6.64722e-19
1.34795e-17
0
-8.38206e-19
1.04313e-19
-1.45563e-17
1.77585e-18
-5.53951e-18
-8.46121e-19
9.09779e-20
2.42393e-19
-2.00692e-17
1.64026e-18
3.17589e-17
-6.89752e-19
-2.33611e-17
-1.73114e-25
7.09416e-13
-9.57715e-12
-1.77355e-12
-6.33155e-11
-1.57304e-34
-2.64787e-08
2.80245e-09
-9.4038e-20
-2.67174e-17
5.88513e-35
2.17471e-17
0
-7.20475e-19
-1.89564e-18
-6.51699e-18
1.34337e-18
1.5571e-17
-5.61232e-18
-9.40067e-20
-1.33434e-17
2.50754e-17
-9.12839e-19
-1.1164e-19
0
1.39562e-18
-1.49675e-17
-2.32362e-31
-1.00282e-18
2.15695e-17
0
1.99238e-15
-7.37864e-19
2.66276e-17
3.02641e-09
1.61196e-26
0
-2.8519e-09
-3.43545e-11
-2.92886e-24
-1.5962e-13
-1.19943e-21
4.24699e-13
0
-6.40172e-21
-2.23003e-08
-1.06415e-13
2.2176e-14
0
0
1.84962e-17
-2.02642e-17
1.33784e-17
6.78241e-18
1.33293e-17
-6.29404e-34
-5.55678e-18
-1.82066e-18
-1.35328e-17
3.95818e-18
-1.47506e-19
0
7.50688e-34
-6.74774e-18
0
0
-2.60401e-16
-2.4743e-08
5.32064e-12
-2.38635e-08
1.32848e-17
7.81143e-15
3.30314e-18
-9.3991e-19
1.31709e-17
-1.68248e-17
6.65476e-18
-3.65878e-17
0
2.72683e-12
1.97695e-10
-9.75176e-14
1.73142e-12
-2.34353e-08
2.07139e-17
1.20726e-14
3.11675e-09
-1.39706e-21
-3.17355e-18
1.65533e-18
-4.4402e-20
-5.69863e-17
8.35028e-18
-5.37083e-17
-5.32161e-18
-1.35279e-18
-1.1148e-19
1.92787e-18
-3.4939e-17
-1.11035e-19
-1.1107e-19
1.66033e-18
-1.9924e-17
-8.01342e-37
3.3316e-18
1.35848e-18
-2.22191e-19
0
-3.32139e-17
-1.10524e-19
2.00085e-18
-7.27137e-13
0
-2.27121e-08
2.32148e-17
1.76477e-18
-1.10937e-19
-3.81997e-17
0
1.9524e-18
3.3278e-18
-2.33179e-17
-1.436e-33
-8.8899e-19
2.23734e-19
3.88307e-18
-3.66618e-17
0
-4.04233e-19
3.00044e-24
1.37159e-21
1.386e-23
-6.60837e-17
-1.36351e-19
3.33103e-18
0
0
2.22298e-08
2.15036e-13
1.11049e-19
-1.30234e-17
4.90808e-18
0
0
0
0
0
0
0
0
0
0
0
0
0
0
0
0
0
0
0
0
0
0
0
0
0
0
0
0
0
2.29368e-17
-3.36557e-17
3.14271e-20
6.69126e-18
6.36039e-20
1.20015e-33
3.34369e-18
-2.67081e-17
-3.03007e-17
2.66361e-17
1.84232e-33
-7.98452e-18
2.69359e-17
-7.98699e-18
2.63974e-17
5.31115e-26
6.16409e-09
-2.16296e-10
2.27605e-08
5.52585e-09
2.27671e-08
1.34769e-08
-1.25441e-12
4.20912e-10
1.10847e-12
-1.10378e-08
1.61813e-26
-9.12655e-11
5.70543e-09
-2.28577e-08
5.60437e-09
-2.26507e-08
-1.93832e-10
-5.4869e-13
-1.14269e-08
-1.02533e-12
-1.11994e-08
2.5333e-24
-8.60169e-12
1.77353e-12
-2.75401e-08
1.49918e-34
2.8002e-09
-1.04639e-19
7.0254e-09
-4.29564e-17
-2.07189e-26
2.49589e-12
2.97114e-17
0
4.85977e-18
-6.84682e-18
-9.06991e-19
1.75617e-17
1.0451e-19
-2.65108e-12
-1.65112e-17
-1.40491e-08
4.78344e-17
1.0584e-19
9.57715e-12
-6.65404e-09
-1.76961e-17
2.7373e-08
-2.05575e-26
-2.48651e-12
3.95654e-15
-3.92428e-24
-3.39337e-17
1.94924e-26
1.68904e-17
2.11457e-19
2.05657e-18
2.48481e-12
-1.20198e-17
-9.87783e-18
1.33061e-08
-9.02628e-18
-1.07286e-19
-2.036e-17
2.6993e-17
8.12028e-20
-6.20741e-13
5.38192e-25
4.24459e-18
1.92506e-16
1.08108e-34
-1.7816e-34
-3.78989e-09
0
-8.86759e-14
6.35169e-34
1.19931e-08
1.97367e-33
-7.28237e-20
4.31044e-34
1.12098e-18
1.5777e-18
-2.77046e-18
3.78918e-20
6.65736e-19
-2.64431e-19
-5.24132e-20
-1.27005e-18
-8.77436e-19
1.74415e-18
1.89719e-35
-6.3991e-16
-4.93082e-20
6.38156e-34
5.8152e-34
-1.88906e-19
1.0738e-18
1.70484e-18
3.1637e-18
0
-1.11449e-10
0
0
-2.94703e-09
2.25057e-08
1.10317e-19
-9.12124e-19
-1.86938e-14
0
2.23207e-08
-4.43398e-14
2.10628e-13
1.66537e-09
0
-1.07185e-33
-1.87391e-09
0
1.59619e-13
6.67455e-21
-5.02626e-34
1.15026e-20
1.06412e-13
0
0
-7.79111e-18
-1.35531e-17
1.96938e-32
1.3391e-17
1.34146e-17
-1.94637e-35
-1.15481e-17
5.30537e-19
-6.64464e-18
1.86992e-17
-1.58012e-17
8.03826e-17
-1.70067e-35
-6.61112e-18
5.36026e-17
-2.26884e-26
6.45403e-09
6.28914e-09
-5.31871e-10
-2.5087e-08
1.92243e-10
-2.33793e-08
1.41112e-08
1.37481e-08
2.01371e-12
1.00592e-09
1.71073e-12
-3.29547e-10
6.5289e-25
1.64054e-12
-4.4365e-08
-1.10943e-10
-2.21218e-08
4.92559e-18
-2.01492e-17
-2.11532e-12
1.61614e-10
8.36785e-24
7.75831e-19
9.51063e-12
6.20748e-13
5.61212e-16
0
2.64781e-08
2.20112e-08
1.88107e-19
-2.86379e-18
-2.34038e-17
0
2.89172e-16
1.99557e-17
-9.71525e-20
-4.63006e-19
-9.66822e-19
-5.1704e-20
-6.78436e-19
6.65608e-18
-8.48262e-18
9.39958e-20
-9.41228e-19
-1.00002e-17
1.28459e-18
3.16722e-17
-6.04515e-24
1.90177e-18
9.08943e-13
1.35674e-12
-2.17459e-19
-2.03957e-13
-3.34752e-13
-5.8423e-17
0
2.39541e-08
4.88584e-09
0
-3.33107e-17
0
2.83193e-17
0
3.43454e-10
-4.60983e-08
9.50199e-20
7.90543e-19
-5.41437e-19
3.44794e-19
-1.08671e-19
4.12467e-19
6.73079e-18
-7.11615e-19
6.14501e-18
-5.53934e-18
-9.09775e-20
-1.3371e-17
1.48966e-17
-6.0354e-19
-4.3518e-17
-1.87404e-18
1.11866e-19
4.60951e-18
-4.6653e-17
-2.81079e-33
-2.20079e-19
3.3036e-18
-3.63528e-17
3.14606e-19
1.52348e-21
-1.11081e-19
0
-2.23799e-08
-5.52005e-13
1.11051e-19
-3.93211e-17
4.92196e-18
5.81481e-19
6.11979e-20
7.48e-19
5.79483e-20
-1.43582e-19
7.5115e-24
-4.20533e-23
7.52203e-20
0
-2.29944e-34
6.61311e-20
0
0
0
0
0
0
0
0
0
0
0
0
0
0
0
0
0
0
0
0
0
0
0
0
0
0
0
0
-1.00816e-16
-1.11199e-33
-1.16861e-17
1.34912e-17
-3.77824e-17
1.32809e-17
-5.04684e-33
-1.12528e-17
-6.63956e-18
2.29271e-17
4.02669e-17
6.61057e-25
7.90605e-18
-5.2933e-09
-3.7927e-17
-1.15843e-08
8.33517e-34
1.90182e-17
-3.34976e-17
-3.93238e-17
6.69965e-17
1.02836e-19
3.36973e-12
8.98011e-18
3.56526e-10
0
3.9775e-15
1.04356e-19
-6.74533e-09
3.33624e-17
0
-3.38082e-12
-1.33611e-17
-2.05501e-19
1.01446e-18
5.03938e-18
1.06079e-17
-2.996e-17
1.04237e-19
2.27235e-12
2.22217e-20
1.34863e-08
-2.5042e-17
1.06335e-19
4.52255e-12
1.43931e-10
-3.45838e-12
6.19522e-10
0
-6.16021e-10
-2.2861e-08
0
3.33918e-17
0
-1.16264e-17
1.06209e-19
3.32419e-18
-7.53761e-13
1.34191e-17
-3.84059e-18
-3.05371e-10
-3.67996e-17
1.05696e-19
1.66883e-17
-2.50014e-17
1.78356e-24
-4.43382e-13
-6.05666e-11
1.82402e-34
-6.40787e-20
-4.43381e-13
5.1712e-34
1.45353e-10
-5.67277e-20
1.15951e-18
-2.39537e-18
6.41145e-20
1.40702e-18
-3.72441e-18
-1.01309e-19
5.80348e-18
-3.409e-18
-9.55008e-18
1.69586e-15
1.69637e-34
-5.43242e-16
-8.99932e-15
0
7.48525e-34
-1.01314e-19
-1.90279e-19
9.32807e-19
-1.85042e-18
-9.0005e-18
1.86559e-18
5.16273e-17
8.2585e-20
-1.13092e-10
6.12419e-20
-7.25086e-34
-1.62711e-09
-5.7984e-20
9.53279e-14
-3.31738e-34
4.43382e-14
0
0
-3.78581e-17
6.70694e-18
1.34732e-17
2.01053e-17
-2.6904e-17
1.23781e-34
-3.34369e-18
-1.55764e-17
1.23558e-19
2.28244e-17
9.19043e-32
5.35409e-17
8.42779e-34
-1.32451e-17
5.34896e-17
-7.18132e-27
-6.16438e-09
2.1408e-17
7.74818e-12
2.28583e-08
5.59327e-09
2.26527e-08
-1.34772e-08
-2.66089e-17
6.72307e-18
-2.01575e-17
-9.75438e-13
-1.11997e-08
-5.31116e-26
-2.16035e-10
2.27604e-08
5.52615e-09
2.27673e-08
-1.25994e-12
4.20862e-10
1.10847e-12
-1.10378e-08
-1.05846e-19
1.22375e-11
-6.65392e-09
-1.74926e-17
2.78127e-08
0
-2.48651e-12
3.96006e-15
-1.34648e-24
-7.02514e-09
-3.73768e-17
0
-2.42015e-12
6.94282e-18
0
2.15352e-18
2.48481e-12
-1.23259e-17
-1.43698e-17
1.33061e-08
-2.10628e-18
0
2.57534e-12
-1.36764e-17
1.40491e-08
2.71738e-17
0
-8.9564e-12
-6.20744e-13
-2.75401e-08
0
2.2078e-08
2.09269e-19
-2.00808e-17
0
1.49639e-17
9.22461e-34
3.02507e-18
3.06114e-18
-1.02897e-18
-1.78718e-17
-1.04511e-19
-9.97567e-18
3.14531e-17
1.57177e-19
-8.86768e-14
-2.90418e-12
1.3579e-08
0
-1.45054e-08
4.92767e-20
2.03956e-13
0
-1.0734e-08
4.00999e-33
1.26808e-19
1.45181e-20
-9.23892e-19
1.58218e-18
0
-6.65775e-19
2.79044e-18
7.00847e-24
-1.88439e-13
5.38193e-25
3.28531e-18
1.89894e-16
0
-4.06446e-34
-1.9615e-09
0
0
-8.11719e-20
-1.70351e-19
4.35086e-34
3.99354e-19
-5.17656e-18
1.18766e-18
0
-1.09833e-18
0
1.79696e-18
5.79511e-20
1.68573e-20
7.72816e-20
6.61523e-20
-5.28644e-34
0
0
0
0
0
0
0
0
0
0
0
0
0
0
0
0
0
0
0
0
0
0
0
0
0
0
0
0
-3.98409e-18
0
2.99377e-17
2.68928e-17
5.37345e-17
1.06823e-21
2.68744e-17
3.96904e-33
3.90856e-18
-6.75865e-18
-1.42314e-17
3.99535e-17
2.80862e-33
-1.34588e-17
5.36494e-17
0
3.82968e-18
1.41885e-12
6.4307e-10
-2.02114e-17
1.2238e-17
1.96929e-15
9.9404e-18
1.55955e-18
4.02376e-18
-2.11894e-17
-2.34954e-17
9.98343e-18
-2.98916e-17
4.5236e-20
0
-1.61776e-18
-4.86686e-18
2.35639e-17
-1.15577e-17
2.67853e-17
-1.89743e-17
-1.50088e-17
-1.01267e-17
-2.84106e-17
0
9.75054e-20
2.87621e-19
1.13117e-17
4.48279e-18
0
-8.1166e-17
0
-9.73706e-18
2.31398e-17
0
8.4478e-18
-1.97689e-17
0
1.94941e-18
-1.65093e-18
1.88177e-18
-1.78883e-17
1.02836e-19
-9.3121e-19
3.19593e-18
9.89703e-18
-3.15489e-17
1.07683e-19
1.21855e-17
3.4876e-19
-7.45131e-18
0
1.88801e-15
-1.22938e-33
6.51761e-18
0
-4.88825e-18
9.58715e-34
-2.47643e-18
-6.90616e-18
-1.12107e-17
-2.8118e-17
1.07332e-19
9.95304e-18
-1.4787e-17
1.92821e-31
2.41163e-18
5.86924e-35
5.31149e-16
-8.99399e-34
-2.21075e-18
-4.5436e-18
0
0
0
-1.00837e-16
2.15541e-33
1.58617e-19
-3.57661e-18
6.75676e-18
1.47276e-17
3.04991e-17
2.69494e-17
1.32542e-33
1.40091e-19
5.36162e-17
-1.00865e-35
-2.66523e-19
1.92757e-17
-3.34975e-17
2.31835e-17
-3.82944e-17
1.30031e-17
5.43413e-35
2.18634e-17
3.32897e-18
-1.06335e-19
-4.52253e-12
8.8123e-12
3.45843e-12
-6.19521e-10
0
6.1677e-10
2.2861e-08
-2.41439e-24
6.7452e-09
3.00401e-17
0
3.40299e-12
-2.66788e-17
-1.06209e-19
4.02226e-18
-3.78194e-18
1.0094e-17
-9.33708e-18
1.00474e-17
-2.50155e-17
0
-2.27235e-12
1.00137e-17
-1.34859e-08
-3.50716e-17
2.05669e-19
3.63576e-12
2.22515e-17
3.57203e-10
0
3.96914e-15
2.08712e-19
3.67154e-17
0
-1.67296e-17
-1.02749e-19
-4.23825e-18
1.50353e-17
7.48733e-18
-3.64551e-17
-1.04233e-19
1.3346e-17
-2.3395e-17
-2.02623e-19
7.89749e-18
-1.59858e-18
-1.69426e-17
1.69283e-15
0
-5.34325e-16
-1.11347e-14
-8.25708e-20
4.43381e-13
0
-1.45353e-10
0
1.90785e-18
1.83906e-18
3.58083e-18
-1.22439e-17
3.69629e-18
4.45764e-17
-1.65169e-19
-1.40702e-18
3.72441e-18
-5.66948e-20
-4.43383e-13
-6.05666e-11
0
0
0
5.08944e-33
1.73028e-18
-2.93891e-18
6.41143e-20
0
0
0
0
0
0
0
0
0
0
0
0
0
0
0
0
0
0
0
0
0
0
0
0
0
0
2.023e-17
-7.14038e-33
-1.54514e-17
-2.2296e-17
-6.61928e-18
-2.1818e-17
2.30037e-17
6.71778e-17
-1.00937e-32
2.69963e-17
6.70854e-18
0
4.03346e-17
-5.50842e-25
-3.79114e-18
-5.66191e-09
4.54473e-13
-7.61238e-12
-5.75531e-09
-7.58355e-18
-4.54467e-13
1.13238e-08
1.14772e-08
-1.13618e-12
-2.64337e-33
-6.93223e-18
1.30366e-17
2.84039e-19
-1.03345e-19
0
-6.69177e-18
2.01028e-17
0
2.14783e-18
-2.92635e-12
-9.75458e-13
0
-2.55751e-08
-2.28204e-08
3.8274e-18
-6.75202e-18
2.36687e-18
-1.24453e-34
-1.44428e-17
1.34792e-17
0
2.02043e-18
2.38522e-20
-9.91254e-18
-1.33198e-17
2.14913e-17
3.93054e-18
6.66716e-18
2.12201e-17
-1.04538e-19
0
-2.98932e-18
-1.04547e-19
2.26412e-17
1.27252e-11
3.63579e-12
0
9.55295e-10
2.24652e-08
1.34185e-17
3.15489e-17
-2.08916e-19
-1.65913e-17
-1.04417e-19
5.85939e-18
-1.01929e-18
-3.29417e-18
9.92736e-18
-2.50901e-17
3.31867e-18
0
3.01421e-18
-1.30955e-18
0
0
-2.04924e-18
0
1.36457e-18
-4.11291e-20
-6.92613e-19
-1.09836e-18
-6.08464e-20
-2.05965e-18
3.77619e-18
1.04092e-19
1.15281e-12
-3.54729e-13
-2.33605e-08
0
-4.72787e-08
8.06354e-20
0
3.45117e-33
-4.82995e-19
-1.28381e-17
-9.72181e-18
4.11015e-17
1.61295e-19
0
0
0
0
3.88183e-18
7.76366e-18
3.0362e-17
1.35178e-17
9.43094e-17
-6.73619e-18
4.03658e-17
-2.53704e-33
-3.67537e-18
2.021e-17
2.98641e-17
4.02365e-17
-2.57077e-33
-3.3434e-17
6.71041e-17
0
-3.43825e-18
-4.08728e-18
-1.6658e-17
1.50758e-17
-1.49709e-17
1.34255e-17
0
-4.58752e-17
-2.5003e-17
1.51777e-17
-2.16392e-17
3.36595e-18
0
3.70228e-12
2.65557e-08
-8.35054e-18
6.20742e-12
-1.26219e-10
3.23349e-18
1.82198e-18
-2.79861e-17
-8.28757e-18
6.64375e-18
-1.48706e-17
1.0035e-17
1.07676e-19
9.46556e-18
-6.20739e-12
-9.39851e-18
0
-1.69476e-09
2.14749e-19
7.45035e-18
2.64644e-17
0
-4.4565e-18
-4.93575e-18
-2.15242e-19
4.79877e-18
-6.19876e-20
-8.93189e-18
-7.33752e-18
-1.07342e-19
2.79392e-18
-3.32689e-18
-9.27179e-18
-1.98183e-17
-9.75059e-20
-4.54803e-18
1.1515e-17
5.19815e-18
0
-1.9664e-15
1.02878e-19
1.6608e-17
0
-3.19537e-18
-1.94947e-19
-7.31529e-19
1.32058e-17
6.17309e-18
6.80986e-18
-2.05675e-19
1.29225e-17
-1.17442e-17
4.7861e-31
1.98135e-19
0
8.81137e-16
-4.81379e-34
-1.28972e-18
-1.22812e-18
0
0
0
0
0
0
0
0
0
0
0
0
0
0
0
0
0
0
0
0
0
0
0
0
-7.03287e-18
0
3.80789e-17
-2.68476e-17
4.04079e-17
2.0015e-17
2.67699e-17
2.04305e-24
-6.44104e-09
6.14381e-09
-5.53097e-09
-7.37227e-13
6.05943e-09
4.00883e-12
-1.40536e-08
1.34357e-08
7.37138e-13
1.10625e-08
-4.00894e-12
-1.212e-08
-6.4332e-24
-5.44059e-09
-1.1871e-08
1.06146e-19
-2.4662e-10
-3.63574e-12
-1.80124e-12
1.49963e-25
2.26091e-08
2.60823e-24
3.21293e-25
-2.78592e-08
-6.03784e-10
1.05526e-11
-1.05526e-11
0
1.13617e-12
1.00368e-17
4.91444e-10
-3.01059e-17
-2.1598e-19
1.6946e-17
-6.00668e-17
1.64261e-19
1.00751e-17
4.21404e-26
2.78062e-08
6.73948e-12
-5.42778e-09
1.06481e-12
1.86208e-17
1.00762e-14
-2.62347e-17
2.22937e-18
-1.05859e-12
1.08555e-08
-3.46095e-18
-4.03908e-17
1.73388e-08
-5.47773e-24
0
1.88039e-09
0
-1.77348e-13
2.43861e-13
0
-2.72149e-08
5.32065e-13
8.88774e-18
0
7.02322e-18
-2.24838e-33
-1.31001e-21
-2.30918e-18
6.8397e-18
7.90055e-19
-2.59848e-08
-1.02632e-19
0
2.43646e-08
0
-1.86221e-12
-2.99287e-12
-7.09413e-13
0
-2.66482e-08
3.60464e-09
-2.88209e-13
2.58541e-17
-2.05309e-19
1.46065e-17
1.0067e-19
3.86684e-18
-3.64341e-18
-1.47501e-18
2.98055e-17
1.61549e-18
-7.25881e-18
2.89881e-24
0
-8.01442e-34
0
0
0
0
0
2.023e-17
7.9911e-33
3.87577e-19
-1.14115e-17
-2.02064e-17
2.20768e-17
0
4.0335e-17
2.32373e-33
-3.2449e-18
-6.77538e-17
2.26497e-17
4.02081e-17
1.11312e-33
-3.79447e-18
-2.6825e-17
1.43895e-17
2.70836e-17
1.00666e-24
-5.68767e-09
1.66638e-12
-2.63214e-11
-5.9736e-09
-1.66639e-12
1.1377e-08
1.18337e-08
-3.33279e-12
1.24703e-17
1.04539e-19
0
1.0872e-17
-3.46347e-18
-3.18036e-24
1.0838e-17
-2.91563e-11
-8.8677e-12
0
-2.76033e-08
1.2141e-10
-1.57375e-17
3.60948e-19
1.97896e-17
1.04462e-19
1.54473e-17
-1.94951e-18
0
7.83916e-18
-2.99114e-18
3.36855e-18
0
-1.33246e-17
-5.94792e-18
-1.00995e-17
2.74885e-18
1.46707e-33
0
2.17834e-17
-9.87105e-20
-2.51898e-19
7.98096e-12
2.21692e-12
0
5.13291e-08
6.68678e-10
-2.68109e-17
-2.24108e-18
0
3.1835e-17
0
-1.83254e-18
9.67579e-19
5.01903e-18
-2.47011e-17
3.29208e-17
-1.00723e-17
-1.04091e-19
8.86773e-13
-3.70229e-12
2.04514e-09
0
-2.65057e-08
-8.06327e-20
-5.32061e-13
0
-1.85973e-08
1.04092e-19
-3.16897e-19
-3.74135e-18
-7.20421e-18
3.7229e-17
-8.06467e-20
6.83665e-19
-4.13794e-18
0
3.25258e-18
-1.30952e-18
0
1.21602e-19
0
0
2.26583e-18
-2.41485e-18
6.08319e-20
0
0
0
0
0
0
0
0
0
0
0
0
0
0
0
0
0
0
0
0
-2.30005e-17
4.26637e-22
1.36234e-17
-1.35929e-17
1.3389e-17
1.778e-33
1.89751e-17
-1.91366e-17
-3.04136e-21
-2.22653e-17
0
2.6927e-17
2.70343e-33
-1.66213e-19
-2.04494e-17
3.32897e-19
5.6039e-17
-1.05665e-19
-2.33318e-17
-6.55451e-09
2.10164e-17
-2.36764e-15
0
-1.34235e-12
7.98913e-15
1.06827e-19
7.18303e-09
1.9801e-17
0
8.73102e-12
-2.32482e-17
1.05588e-19
-3.94273e-18
1.34679e-12
-1.94869e-19
2.77456e-17
1.31077e-08
-4.4434e-17
0
-6.96855e-12
3.19108e-18
-1.43577e-08
-3.30733e-17
0
9.00068e-18
-8.17765e-18
-6.64164e-18
-1.69286e-17
1.2145e-17
-1.32837e-17
-2.41488e-18
-1.65484e-17
4.97961e-18
0
2.39155e-17
1.3281e-17
-1.06971e-19
1.59617e-12
5.92435e-18
2.85291e-08
-2.27197e-33
1.37371e-16
6.28958e-24
-4.59626e-33
1.3267e-09
5.40932e-12
-2.1565e-33
-4.5632e-18
4.97115e-18
2.85707e-17
-1.08305e-17
1.09636e-19
-1.66106e-17
1.46523e-18
0
8.72413e-18
2.84958e-17
-2.07878e-16
0
7.96819e-15
0
-8.13177e-18
-6.70866e-18
0
-1.42379e-16
-6.53556e-18
1.06517e-19
-1.22536e-18
1.0502e-19
-1.25706e-17
-6.03127e-17
1.04117e-19
-1.64302e-18
6.80885e-18
3.8052e-18
-1.64003e-18
-4.17106e-09
-1.98185e-24
0
-2.05543e-24
-6.65076e-14
-4.78858e-12
0
-3.60969e-08
2.61429e-18
1.54075e-33
-4.81352e-20
1.18123e-18
-1.39172e-18
1.1008e-17
0
0
0
0
0
0
-2.27901e-17
0
-8.41828e-17
6.25797e-18
1.40107e-17
1.32888e-17
2.69845e-17
2.52043e-24
6.26398e-09
-1.07465e-10
1.3679e-08
-2.12101e-10
-3.10488e-24
-2.12058e-10
-5.72215e-09
-8.37325e-10
2.37205e-10
-1.0981e-09
-4.55035e-10
-7.00178e-13
1.14873e-08
-2.63998e-12
-5.39812e-10
-7.84631e-27
-2.67725e-08
6.91683e-12
-5.87863e-09
-2.50082e-08
-5.3428e-12
-2.42997e-08
2.23911e-12
1.16e-09
-1.01282e-17
1.63319e-19
1.31539e-12
1.16717e-08
1.79747e-18
-6.05475e-18
1.88515e-18
-2.2461e-17
-1.0615e-19
-7.16765e-09
8.86773e-12
-6.51408e-12
1.94468e-25
-8.87883e-12
0
9.8229e-26
-2.22789e-08
6.91684e-12
1.06061e-19
3.33279e-12
1.00366e-17
1.43254e-08
-5.01144e-18
1.0798e-19
-8.00939e-18
1.35049e-17
2.59853e-08
0
0
-2.32497e-08
-2.42404e-08
-1.00709e-19
9.75452e-13
-1.20601e-11
6.95992e-18
0
-5.5332e-08
-1.24803e-16
7.98092e-13
4.21206e-13
2.61859e-18
0
-3.20877e-18
3.68957e-18
-1.0068e-19
7.73581e-18
-5.84051e-18
-3.28596e-18
3.79407e-18
-6.43844e-18
-8.60161e-18
1.8037e-18
-1.68615e-08
7.7367e-20
0
0
-1.77346e-13
2.72682e-12
0
7.02384e-09
1.21965e-17
7.73817e-20
0
-1.07113e-19
-6.51614e-19
9.82529e-18
-4.56214e-24
0
-5.89556e-34
0
0
0
0
0
0
0
0
0
0
0
0
0
0
0
0
0
-2.71037e-17
6.5222e-35
1.54002e-17
7.68872e-18
2.37232e-19
2.74381e-17
-1.87609e-34
-4.82706e-19
2.08024e-19
-1.53998e-17
4.07614e-17
1.38215e-24
6.1996e-09
-2.095e-11
-2.61006e-08
2.83767e-12
-3.21455e-12
4.68159e-08
-2.08599e-10
2.30673e-08
-2.57483e-08
1.35625e-08
-2.66614e-19
-1.81737e-17
-1.90617e-18
-3.46464e-18
-4.17294e-18
1.36432e-17
1.75507e-12
4.45952e-10
-4.06745e-24
6.36285e-09
-6.30669e-09
-2.37401e-08
-2.42332e-10
-2.32766e-08
1.38846e-08
4.98256e-12
1.2563e-08
-6.52147e-13
5.02684e-10
-2.07474e-19
-2.36442e-17
5.05461e-12
1.33016e-12
2.07784e-17
0
2.64852e-08
4.92713e-11
0
2.00117e-17
0
-1.65895e-17
1.34558e-33
-4.40318e-18
9.29792e-19
-4.99031e-18
2.76137e-17
-7.12344e-18
-8.17882e-24
0
1.00764e-17
-1.49971e-17
-1.1403e-17
-1.02504e-19
0
2.68799e-18
2.33169e-17
1.08566e-19
-1.43441e-17
1.77353e-12
0
-2.20386e-08
-5.51966e-18
-3.9804e-17
-1.56336e-17
1.02453e-19
-2.91244e-19
3.65592e-17
1.08265e-19
-1.83913e-18
-4.9987e-18
1.25719e-17
-1.44807e-19
-1.30907e-17
1.58989e-19
-1.59619e-12
2.61517e-08
0
-2.14659e-19
0
2.74395e-17
-1.81682e-17
-1.58983e-19
1.40731e-18
1.86645e-17
-2.07523e-33
5.31287e-17
-7.2933e-18
-1.02179e-19
3.5472e-13
-2.10609e-12
1.47505e-09
0
-2.35512e-08
0
5.32053e-13
0
1.49867e-08
-1.02158e-19
-2.18409e-19
-8.95125e-18
-2.18875e-17
2.83614e-17
0
-5.17688e-19
1.30869e-17
0
0
0
0
0
0
-8.42485e-17
-1.35929e-17
-2.69844e-17
2.69727e-17
1.36234e-17
-8.61601e-34
-1.89756e-17
-1.5042e-17
-3.42977e-17
5.40558e-17
-1.34446e-31
2.64036e-17
9.67549e-35
4.3719e-18
2.51365e-21
0
-1.44435e-18
0
-6.88248e-09
-5.52201e-12
-1.16179e-17
1.02854e-21
6.73235e-18
1.32842e-17
-1.18551e-17
7.35489e-18
4.46897e-12
1.37599e-08
-1.16204e-17
0
-2.55755e-19
1.32811e-17
-1.41322e-17
-8.31573e-18
0
-1.4011e-11
2.35037e-10
7.0233e-18
-2.71369e-08
0
1.51737e-12
-1.8075e-16
-2.13655e-19
3.00302e-17
0
-2.82867e-17
-6.91361e-25
-1.04041e-17
-1.5149e-12
1.83306e-17
2.71822e-17
-4.69014e-10
-2.1171e-17
-1.06652e-19
1.69124e-17
-2.64889e-17
1.06665e-19
1.34789e-11
9.40616e-18
2.77342e-08
0
-2.30583e-16
2.08345e-19
3.47854e-19
6.82815e-12
0
-3.75324e-18
2.68857e-08
-4.50756e-25
-2.12824e-12
-3.61358e-12
9.78254e-34
1.38109e-09
-2.44322e-08
-2.13024e-19
-2.05031e-18
-1.66344e-18
7.02114e-18
-2.43402e-17
1.041e-19
0
1.98861e-18
-5.44242e-18
-1.12303e-17
1.09629e-19
2.65695e-18
-1.75803e-18
-8.9899e-18
6.8537e-19
-3.76644e-24
-2.41645e-12
4.68627e-34
-2.13913e-08
1.06938e-19
1.7729e-18
-6.64875e-18
1.17687e-08
4.97249e-25
0
-4.81147e-20
-8.86797e-14
8.64603e-13
0
-1.78051e-10
-4.17275e-09
-2.83245e-24
4.81338e-20
1.01979e-12
1.29506e-18
-3.76919e-18
0
0
0
0
0
0
0
0
0
0
0
0
0
0
-3.80052e-17
-1.9802e-18
-8.38592e-17
1.91843e-19
4.01807e-17
6.16647e-18
-2.81806e-19
4.5246e-25
2.294e-17
5.63503e-09
-3.15415e-17
1.22944e-08
8.6691e-34
-2.66919e-17
2.64348e-17
-3.42287e-19
2.92634e-12
2.28344e-12
-7.49604e-18
1.06068e-19
1.77343e-13
3.9683e-12
-1.8771e-10
0
-1.78593e-08
2.08267e-08
9.84975e-20
-6.71974e-09
-1.97382e-17
0
-1.65532e-12
2.15402e-17
0
-2.58538e-08
2.66665e-08
2.12125e-19
3.32454e-18
-4.00726e-18
-8.55782e-20
1.89814e-18
9.90313e-19
-9.06852e-18
1.17381e-17
3.65413e-17
5.44001e-18
1.2306e-17
2.2512e-17
-1.96781e-19
1.6664e-12
-9.86884e-18
1.34387e-08
2.4808e-17
0
7.8923e-12
-6.96088e-09
8.8334e-18
1.00317e-09
0
-5.25332e-12
-2.0375e-16
-2.12436e-19
-3.4847e-18
0
9.27724e-22
7.84247e-26
3.58262e-18
5.24858e-12
5.25452e-18
-3.49616e-17
1.39193e-08
-8.7685e-18
0
7.14513e-18
-8.96015e-20
6.59367e-20
-8.13924e-18
1.48534e-12
1.11662e-17
0
1.12505e-08
1.01755e-19
-3.50829e-17
0
3.86594e-17
-6.59513e-20
-2.60682e-18
-3.37561e-18
1.47359e-17
9.62288e-18
0
-1.40231e-17
5.27325e-17
6.71815e-20
0
-1.35524e-15
-8.26007e-18
-1.02993e-33
1.40252e-17
-3.43831e-18
6.89925e-26
0
1.85486e-34
-5.03217e-24
0
-8.41599e-34
0
0
0
0
0
0
0
-2.65353e-17
-1.69462e-34
-1.54002e-17
-1.53945e-17
-2.69655e-17
-2.37232e-19
-1.53998e-17
2.71743e-17
3.62004e-34
-6.0307e-18
2.74381e-17
8.99384e-25
7.7925e-18
6.36274e-09
-6.30608e-09
-2.37391e-08
9.88382e-12
-2.3278e-08
2.58728e-17
1.38846e-08
4.81628e-12
1.25629e-08
-3.63247e-18
-2.63817e-17
3.74909e-34
4.58582e-18
2.32807e-15
-3.32547e-13
3.54708e-12
2.19474e-08
1.54705e-11
2.30686e-08
2.57487e-08
2.0165e-18
-5.70165e-18
-3.57068e-18
3.83479e-18
6.46383e-19
1.17134e-17
-6.69419e-18
-1.34927e-17
-1.23193e-17
-1.02506e-19
0
6.86682e-18
4.26529e-18
-1.08557e-19
-1.74696e-17
-1.54806e-17
0
1.90779e-15
-2.99186e-17
-2.13099e-18
-1.06233e-19
0
-1.84855e-17
-1.9917e-17
2.73507e-17
2.00594e-17
-1.70992e-17
-2.5693e-34
2.1751e-17
9.0822e-18
0
-6.06612e-18
7.1531e-18
6.68208e-18
-1.13682e-19
-2.8995e-19
1.06176e-19
-2.35552e-17
-4.91979e-18
7.41496e-18
1.34038e-17
0
5.38657e-18
-1.7485e-18
0
-9.11226e-16
-8.17204e-15
-1.03704e-19
6.75503e-18
1.66973e-18
1.10435e-17
3.32733e-17
1.0217e-19
6.20735e-13
-1.24149e-12
1.47424e-09
0
-2.39701e-08
0
2.6603e-13
1.0731e-19
4.27868e-12
9.75432e-13
0
1.49819e-08
0
2.61527e-08
2.41187e-08
2.18595e-33
3.64896e-18
-5.23402e-18
-5.25362e-18
4.97173e-17
-6.66766e-20
-5.54131e-19
-2.14582e-19
2.29108e-18
-5.46759e-18
8.54482e-18
-1.93562e-18
2.01029e-17
0
0
-7.94949e-20
0
0
0
0
0
0
0
0
0
0
0
-3.42367e-17
4.0329e-34
-2.33085e-19
-7.55535e-18
-2.73765e-17
-9.34856e-19
5.90975e-17
1.25733e-17
-8.25199e-34
-3.91326e-17
-2.75534e-17
-3.01912e-17
6.85427e-17
0
4.59344e-17
3.01504e-12
5.49948e-10
-1.32946e-17
3.99049e-12
-2.31493e-08
2.01481e-17
-3.1444e-17
7.54686e-18
-1.5257e-17
-2.1661e-17
4.74598e-18
-2.84686e-17
6.62879e-18
0
-6.6691e-18
4.00016e-17
-8.74011e-24
1.27668e-24
2.03191e-18
-2.06117e-16
0
0
6.27434e-20
-2.66018e-13
0
2.33879e-08
-1.78766e-33
-1.80872e-33
1.27009e-18
3.13341e-18
6.2763e-20
1.91508e-18
-2.77687e-17
-1.06343e-19