/*--------------------------------*- C++ -*----------------------------------*\
| =========                 |                                                 |
| \\      /  F ield         | OpenFOAM: The Open Source CFD Toolbox           |
|  \\    /   O peration     | Version:  5.x                                   |
|   \\  /    A nd           | Web:      www.OpenFOAM.org                      |
|    \\/     M anipulation  |                                                 |
\*---------------------------------------------------------------------------*/
FoamFile
{
    version     2.0;
    format      ascii;
    class       volScalarField;
    location    "2.4";
    object      nut;
}
// * * * * * * * * * * * * * * * * * * * * * * * * * * * * * * * * * * * * * //

dimensions      [0 2 -1 0 0 0 0];

internalField   nonuniform List<scalar> 
12160
(
1.65986e-09
2.03112e-09
8.5587e-08
1.8628e-09
5.29533e-08
6.27034e-08
2.02394e-09
8.43729e-08
5.32147e-08
7.71535e-08
2.24082e-09
2.90771e-08
9.12608e-08
4.76289e-08
5.00363e-08
2.5828e-09
2.26469e-08
3.07121e-08
7.27399e-08
5.03006e-08
5.60869e-08
3.09333e-09
1.92426e-08
2.29084e-08
2.89251e-08
9.724e-08
3.65945e-08
4.8857e-08
3.88606e-09
1.76931e-08
1.88054e-08
2.36226e-08
3.18893e-08
5.52699e-08
2.66991e-08
6.98167e-09
5.26263e-09
1.65399e-08
1.71439e-08
1.99115e-08
2.60731e-08
3.44591e-08
4.1411e-08
8.47531e-09
1.58275e-08
7.96653e-09
1.5954e-08
1.61373e-08
1.77156e-08
2.0626e-08
3.32588e-08
2.79868e-08
1.11333e-08
1.54317e-08
1.66936e-08
1.36266e-08
1.5935e-08
1.55331e-08
1.6311e-08
1.72304e-08
2.47613e-08
3.17927e-08
1.46395e-08
1.18692e-08
2.27262e-08
8.42871e-09
1.57425e-08
1.64466e-08
1.55978e-08
1.53535e-08
1.53821e-08
1.90273e-08
2.2727e-08
2.39261e-08
1.05301e-08
1.02978e-07
8.78514e-09
9.71346e-09
1.00023e-08
1.74161e-08
1.62403e-08
1.53103e-08
1.45858e-08
1.62408e-08
1.65188e-08
6.06806e-08
1.06177e-08
4.36727e-08
6.92616e-09
8.02197e-09
6.68929e-09
6.83029e-09
1.85911e-08
1.73317e-08
1.59509e-08
1.4735e-08
1.50307e-08
1.33456e-08
2.33561e-08
1.09459e-08
2.80827e-08
5.05904e-09
1.7634e-08
7.24415e-09
1.12037e-08
5.28194e-09
2.03336e-08
1.85206e-08
1.69974e-08
1.54734e-08
1.50002e-08
1.2356e-08
1.52162e-08
1.08202e-08
1.98615e-08
5.41987e-09
7.10432e-09
9.89773e-09
6.81993e-09
6.80968e-09
4.46734e-09
2.37002e-08
1.99423e-08
1.79581e-08
1.62883e-08
1.59959e-08
1.28666e-08
1.30608e-08
1.22892e-08
1.56223e-08
8.01299e-09
4.7916e-09
6.25947e-09
1.25381e-08
1.86578e-08
4.09501e-09
3.14054e-08
2.22845e-08
1.88705e-08
1.67624e-08
1.73759e-08
1.43454e-08
1.24069e-08
1.67652e-08
1.17156e-08
2.03768e-08
3.94468e-09
1.41793e-08
6.97212e-09
4.73981e-09
4.07713e-09
4.99243e-08
2.67277e-08
2.01826e-08
1.70866e-08
1.81931e-08
1.54475e-08
1.18489e-08
3.10291e-08
9.35445e-09
6.04416e-08
3.84291e-09
1.13432e-08
7.31319e-09
4.25379e-09
4.43334e-09
4.33242e-08
3.27094e-08
2.20847e-08
1.76599e-08
1.81074e-08
1.55234e-08
1.09476e-08
7.39943e-08
9.79796e-09
1.16127e-07
3.54714e-09
1.10755e-08
1.28565e-08
9.75123e-09
5.40155e-09
2.21822e-08
2.80186e-08
2.33586e-08
1.83254e-08
1.73866e-08
1.51076e-08
1.04541e-08
4.26113e-08
1.24118e-08
6.6023e-08
3.852e-09
8.40427e-09
2.20027e-08
1.80087e-08
7.30578e-09
1.35889e-08
1.77975e-08
2.04154e-08
1.81853e-08
1.58297e-08
1.41749e-08
1.05261e-08
2.69398e-08
1.91555e-08
5.34904e-08
4.93306e-09
1.4725e-08
1.35031e-08
1.88881e-08
7.71555e-09
9.77416e-09
1.20552e-08
1.51275e-08
1.57356e-08
1.38736e-08
1.26606e-08
1.14049e-08
2.15864e-08
3.6114e-08
6.12573e-08
8.56035e-09
8.41933e-09
7.92454e-09
1.39873e-08
4.91947e-09
7.80321e-09
9.01692e-09
1.08857e-08
1.20391e-08
1.20957e-08
1.13986e-08
1.30737e-08
1.98927e-08
5.56036e-08
9.07192e-08
1.46954e-08
1.40307e-08
1.11577e-08
1.39368e-08
3.13385e-09
6.73939e-09
7.31222e-09
8.34939e-09
9.30028e-09
1.01464e-08
9.63873e-09
1.57244e-08
2.07881e-08
4.35415e-08
1.64163e-07
2.7627e-08
5.14335e-08
1.2125e-08
9.44722e-09
2.23426e-09
6.23361e-09
6.35751e-09
6.87363e-09
7.47407e-09
8.03852e-09
7.89554e-09
1.59733e-08
2.44429e-08
3.13654e-08
9.38328e-08
4.57683e-08
3.28731e-08
1.29834e-08
1.12424e-08
1.73298e-09
6.10434e-09
5.89881e-09
6.03411e-09
6.28172e-09
6.49707e-09
6.69422e-09
1.229e-08
3.39202e-08
2.26575e-08
4.87688e-08
5.95225e-08
2.67963e-08
1.82529e-08
1.38493e-08
1.43024e-09
6.26763e-09
5.78326e-09
5.63353e-09
5.57364e-09
5.61152e-09
5.7848e-09
8.94458e-09
6.73462e-08
1.63825e-08
3.08607e-08
5.30986e-08
1.92282e-08
2.18585e-08
2.613e-08
1.23715e-09
6.75603e-09
5.94409e-09
5.5374e-09
5.21293e-09
5.07298e-09
5.05557e-09
6.62692e-09
3.0272e-08
1.35448e-08
2.03286e-08
3.91531e-08
1.41698e-08
2.15348e-08
2.40011e-08
1.11015e-09
7.63369e-09
6.39629e-09
5.69662e-09
5.12409e-09
4.80571e-09
4.55858e-09
5.19515e-09
1.53743e-08
1.29262e-08
1.38e-08
2.46848e-08
1.07859e-08
1.45754e-08
1.88967e-08
1.02594e-09
9.06206e-09
7.18563e-09
6.12281e-09
5.2667e-09
4.75213e-09
4.29653e-09
4.34257e-09
1.04157e-08
1.17739e-08
1.33339e-08
1.46964e-08
7.79093e-09
9.41608e-09
1.47763e-08
9.71022e-10
1.13632e-08
8.42342e-09
6.85753e-09
5.6494e-09
4.87551e-09
4.2535e-09
3.93281e-09
7.773e-09
1.06699e-08
1.31589e-08
9.83558e-09
5.90943e-09
6.6659e-09
9.10358e-09
9.3739e-10
1.52718e-08
1.03261e-08
7.99307e-09
6.31957e-09
5.17976e-09
4.42524e-09
3.94576e-09
6.44473e-09
9.81052e-09
1.16014e-08
7.449e-09
5.2165e-09
4.63565e-09
4.93657e-09
9.20412e-10
2.2599e-08
1.32426e-08
9.65525e-09
7.26913e-09
5.62451e-09
4.76271e-09
4.39523e-09
6.7963e-09
8.39447e-09
8.05049e-09
6.18522e-09
4.7014e-09
3.70825e-09
2.67069e-09
9.19697e-10
3.70163e-08
1.75116e-08
1.19376e-08
8.52925e-09
6.49223e-09
5.37723e-09
5.40478e-09
8.16992e-09
7.16056e-09
5.62767e-09
4.37313e-09
4.14394e-09
3.14965e-09
2.55525e-09
9.31612e-10
3.91437e-08
2.24355e-08
1.46984e-08
1.0088e-08
7.84558e-09
6.26298e-09
7.381e-09
9.87551e-09
7.19566e-09
6.73173e-09
2.95964e-09
4.59691e-09
2.8295e-09
2.79559e-09
9.56902e-10
2.54091e-08
2.39779e-08
1.70273e-08
1.16198e-08
9.27063e-09
7.49731e-09
1.05943e-08
1.12768e-08
7.47833e-09
1.01164e-08
2.36269e-09
4.70572e-09
3.28921e-09
3.2236e-09
9.96384e-10
1.77603e-08
1.98693e-08
1.70321e-08
1.28007e-08
1.03904e-08
9.20443e-09
1.67769e-08
1.18064e-08
7.79361e-09
1.44576e-08
2.24312e-09
3.34887e-09
4.68546e-09
4.68819e-09
1.05111e-09
1.37964e-08
1.55165e-08
1.50675e-08
1.30243e-08
1.06458e-08
1.09702e-08
3.24473e-08
1.10722e-08
8.10209e-09
1.97582e-08
2.08434e-09
2.77637e-09
5.25216e-09
1.25782e-08
1.12031e-09
1.16398e-08
1.27147e-08
1.28622e-08
1.20859e-08
1.02144e-08
1.24669e-08
5.11347e-08
1.00107e-08
8.47851e-09
2.28075e-08
2.01616e-09
3.31069e-09
4.1622e-09
1.71929e-08
1.2116e-09
1.02367e-08
1.10338e-08
1.11267e-08
1.08007e-08
9.72551e-09
1.33523e-08
3.62335e-08
9.16405e-09
8.96309e-09
2.06841e-08
2.10859e-09
4.93632e-09
3.02741e-09
6.70312e-09
9.64481e-09
1.3831e-09
9.91008e-09
9.91113e-09
9.75043e-09
9.18531e-09
1.21233e-08
2.42645e-08
8.59365e-09
9.28437e-09
2.01489e-08
2.5044e-09
7.6733e-09
2.56209e-09
5.48072e-09
9.39309e-09
8.8294e-09
1.84566e-09
9.05599e-09
9.00947e-09
8.63424e-09
1.02143e-08
1.75776e-08
9.14526e-09
9.69824e-09
1.71241e-08
3.16738e-09
2.88584e-08
2.49106e-09
4.51963e-09
8.62716e-09
8.64912e-09
9.38108e-09
2.31151e-09
8.50075e-09
8.08681e-09
8.88647e-09
1.42837e-08
1.08391e-08
1.02838e-08
1.33711e-08
3.49543e-09
1.42046e-08
2.60916e-09
3.65513e-09
8.3267e-09
7.95212e-09
9.13857e-09
1.05478e-08
3.39112e-09
7.60425e-09
8.12759e-09
1.26742e-08
1.43612e-08
1.16598e-08
1.34223e-08
3.71651e-09
7.86553e-09
2.69896e-09
3.74041e-09
7.34374e-09
7.86839e-09
8.1507e-09
9.81318e-09
1.64021e-08
3.17901e-09
7.62115e-09
1.1818e-08
1.97085e-08
1.38198e-08
1.53437e-08
3.52637e-09
6.45452e-09
2.76616e-09
4.36946e-09
7.41556e-09
6.9208e-09
7.96151e-09
8.35476e-09
1.25463e-08
1.4274e-08
2.52168e-09
1.13821e-08
2.69845e-08
1.78396e-08
1.78564e-08
3.42191e-09
7.47539e-09
2.62036e-09
4.96047e-09
1.12595e-08
6.79565e-09
6.86981e-09
7.88475e-09
8.84503e-09
8.38305e-09
7.67193e-09
1.44575e-09
3.24011e-08
2.44865e-08
2.07104e-08
3.59183e-09
9.62147e-09
2.42015e-09
4.58249e-09
3.68712e-08
1.13437e-08
6.53079e-09
6.63482e-09
7.44263e-09
6.56312e-09
7.50693e-09
7.02447e-09
1.39933e-09
3.33028e-08
2.3998e-08
3.93312e-09
1.22212e-08
2.98779e-09
6.64544e-09
4.41334e-08
3.65174e-08
1.11142e-08
6.16281e-09
5.91577e-09
5.43626e-09
8.30281e-09
1.51551e-08
3.14889e-08
6.68408e-10
2.69268e-08
4.46379e-09
1.63176e-08
4.22769e-09
4.18598e-09
2.80131e-08
5.5863e-08
3.14539e-08
9.63646e-09
5.56687e-09
1.33898e-08
3.83838e-08
1.43677e-07
4.03416e-07
1.27633e-07
4.82806e-07
6.42255e-09
2.89285e-08
5.88209e-09
4.23998e-09
9.38159e-08
2.91648e-08
4.98658e-08
2.71488e-08
3.50928e-08
1.60835e-07
6.73186e-07
1.37029e-06
3.47198e-06
1.09248e-06
1.92996e-06
0.000307092
9.36926e-08
7.67833e-09
5.29215e-09
3.69699e-07
1.56575e-06
5.78159e-06
4.29352e-06
1.76927e-06
1.87801e-06
5.53628e-06
1.13687e-05
1.50983e-05
8.14015e-06
3.45097e-06
0.000321566
0.000831978
0.000173012
7.53076e-09
6.68986e-09
2.96732e-08
2.96237e-06
5.99924e-05
0.000235836
0.00016313
8.83907e-05
4.52135e-05
5.96135e-05
8.34256e-05
5.27542e-05
6.93269e-06
0.000392416
0.000860908
0.00100795
0.00105708
0.000187526
6.63124e-09
7.98282e-09
7.53248e-07
5.80856e-05
0.000587426
0.00216892
0.00147303
0.00067322
0.000494248
0.00039208
0.000215074
3.95634e-05
0.000537726
0.000820439
0.000931834
0.00102388
0.00106684
0.00109522
0.000191636
1.35594e-07
2.02711e-05
0.000614988
0.00387973
0.00636613
0.00309113
0.00161617
0.00166906
0.000878341
0.000269504
0.000565711
0.000748724
0.000845492
0.000949468
0.00103822
0.00108243
0.00110251
0.00112761
0.000197784
6.27278e-06
0.000299473
0.00383116
0.00583896
0.00691481
0.00390898
0.00307604
0.00223979
0.00130648
0.00042923
0.000715163
0.000761798
0.000867494
0.00097243
0.00105662
0.00109793
0.00112708
0.00113611
0.00116833
0.000203635
0.000137336
0.00322718
0.00586035
0.00556108
0.00660938
0.00452155
0.00398906
0.00235888
0.000438601
0.000715348
0.000707459
0.000783611
0.000902459
0.00100389
0.000658514
0.00109782
0.00114599
0.00116112
0.00116837
0.00121412
0.000210336
0.00353583
0.00562656
0.00527462
0.0051526
0.00604523
0.00484135
0.0037534
0.00204703
0.00063065
0.000701325
0.000726086
0.000826687
0.000934823
0.000766351
0.00160588
0.000764536
0.00160651
0.00159515
0.00159561
0.00114347
0.00117401
0.00118268
0.00120702
0.00126878
0.000221872
0.00492846
0.00548656
0.0048212
0.00498717
0.00518459
0.00493408
0.00359004
0.000998416
0.000722412
0.000711463
0.000775355
0.000862559
0.000830427
0.0011731
0.00175604
0.0014134
0.00113269
0.00175685
0.00193286
0.00193428
0.00141335
0.00140266
0.00140256
0.00117156
0.00118858
0.00120535
0.00125215
0.00132919
0.000238908
0.00491761
0.00503008
0.00495958
0.00494119
0.00439343
0.00420217
0.00328449
0.000813149
0.000769043
0.000776941
0.000819123
0.000821204
0.000856809
0.0013543
0.00135432
0.0014308
0.001431
0.00152673
0.00128737
0.00115344
0.00073676
0.00152673
0.001665
0.00166561
0.00128686
0.00125745
0.00125714
0.00117958
0.00120283
0.00123149
0.0013034
0.00139307
0.000258934
0.00403487
0.00479798
0.00531519
0.00470483
0.00340544
0.00415821
0.00282673
0.000899501
0.000851367
0.00085348
0.000808534
0.000571802
0.00142599
0.00142616
0.00145927
0.00145972
0.0012218
0.00122203
0.00130873
0.00130878
0.00137368
0.00118531
0.0011568
0.0011811
0.00118722
0.00114334
0.000809062
0.00174425
0.00174444
0.00165111
0.00165167
0.00137331
0.0014842
0.00148446
0.00118483
0.00115813
0.00118069
0.00118068
0.00116154
0.00112951
0.00116167
0.00116375
0.0011613
0.00113663
0.00116158
0.00116008
0.00118677
0.00122134
0.00126558
0.00135988
0.00145983
0.000290351
0.00340628
0.00427279
0.00444979
0.00379462
0.00316217
0.00468457
0.00275279
0.00105776
0.000975925
0.000873116
0.000452379
0.00147199
0.00147245
0.00150222
0.00150305
0.00127744
0.00127762
0.00128955
0.00128998
0.00109351
0.00106261
0.0011151
0.00112509
0.00113873
0.00106845
0.00107114
0.00109403
0.00111495
0.00112448
0.00113867
0.00106854
0.00117336
0.00119099
0.00117932
0.0011964
0.00117393
0.001191
0.00117908
0.00119637
0.00125903
0.00119342
0.00123904
0.001248
0.00107706
0.0010953
0.00107175
0.00111913
0.00113774
0.000861499
0.00175421
0.00175461
0.0018155
0.0018153
0.00157627
0.00157639
0.00145168
0.00145276
0.00125872
0.00119937
0.00123881
0.00124329
0.00133262
0.00127124
0.00133901
0.00130995
0.00133251
0.00128189
0.00133893
0.00130591
0.00107663
0.00109851
0.0010715
0.00111384
0.00105926
0.00109907
0.00105911
0.00109611
0.00120013
0.0012489
0.00130812
0.00142111
0.0015255
0.000328519
0.00256063
0.00321924
0.00330205
0.00292126
0.00331348
0.00481121
0.00263538
0.00141309
0.00105721
0.00044983
0.00163279
0.0016333
0.0016853
0.00168589
0.00131918
0.00131962
0.00136116
0.00136182
0.00114145
0.00116009
0.00113722
0.00115612
0.00114393
0.0011602
0.00114215
0.00115613
0.00115898
0.0011721
0.00114506
0.00116322
0.001166
0.00117229
0.00115101
0.00116339
0.0010293
0.00107966
0.00108802
0.00100539
0.00109994
0.00109455
0.00103745
0.0010798
0.0010054
0.0010878
0.00109915
0.00109439
0.00112312
0.00111572
0.00113141
0.00112618
0.0011239
0.00111564
0.001131
0.00112613
0.00113371
0.00111405
0.00110615
0.00116121
0.00102904
0.00107563
0.00102522
0.00109967
0.0011448
0.000936363
0.00163498
0.00163582
0.0016532
0.00165356
0.0015583
0.00155873
0.00159164
0.0015917
0.00138968
0.00142378
0.00137936
0.00141899
0.00139169
0.00142379
0.00138004
0.00141896
0.00126274
0.0011783
0.00129841
0.00131459
0.00134305
0.00119798
0.00126454
0.0011872
0.00129832
0.00131537
0.00134324
0.00119801
0.00113336
0.00111946
0.00110607
0.00115715
0.00118612
0.00121114
0.00118593
0.00120724
0.00102885
0.00107814
0.00102521
0.00109474
0.00100861
0.00107109
0.00100857
0.00106968
0.00123018
0.00128933
0.00135765
0.001486
0.00158516
0.00038388
0.00169174
0.00253528
0.00271837
0.00270488
0.00358104
0.00437634
0.00305339
0.00196748
0.00116083
0.00171313
0.0017136
0.00174574
0.00174659
0.00144646
0.00144659
0.00150545
0.00150564
0.00118292
0.00119818
0.00118957
0.00120372
0.00118937
0.00119851
0.00119414
0.00120377
0.00124848
0.0012687
0.00121806
0.00123503
0.00125268
0.00126893
0.00122209
0.00123525
0.00109155
0.00108504
0.00108131
0.00107253
0.0010943
0.00108502
0.00108705
0.00107254
0.00107538
0.00105999
0.00107797
0.00106323
0.00108248
0.00106004
0.00108435
0.00106341
0.00107792
0.00108481
0.00104861
0.00113705
0.00117724
0.0010179
0.00139758
0.00139821
0.00145324
0.00145362
0.00145667
0.00145718
0.00149068
0.00149105
0.00135563
0.001394
0.00136637
0.00139824
0.00136323
0.00139409
0.00137384
0.00139839
0.00138997
0.00142355
0.0013854
0.00142062
0.00139305
0.00142367
0.00139127
0.00142056
0.0013278
0.00132743
0.00131344
0.00132521
0.00132999
0.00132727
0.00131387
0.00132502
0.00114199
0.00124489
0.00126443
0.00111931
0.00127832
0.00128456
0.00114912
0.00124688
0.00126423
0.00111937
0.00127885
0.00128447
0.00107773
0.00108964
0.00104867
0.0011336
0.00111756
0.00117456
0.00111742
0.00117129
0.00127929
0.00134286
0.00141048
0.00155415
0.00148734
0.000432162
0.00144445
0.00203854
0.00259094
0.00249929
0.00329133
0.0043625
0.0035063
0.00256953
0.000588789
0.00154326
0.00154345
0.00159854
0.00159917
0.00136398
0.00136417
0.00140847
0.00140857
0.00109851
0.001083
0.00111865
0.00109253
0.00110485
0.00108323
0.00112296
0.00109257
0.0011887
0.00118715
0.00115068
0.00112399
0.00119378
0.00118725
0.00115539
0.0011241
0.00107021
0.00103839
0.00107647
0.00103838
0.00123814
0.00107283
0.000969452
0.000970028
0.00105522
0.00105568
0.00122382
0.00122389
0.00129892
0.00129874
0.00126407
0.00130302
0.00125784
0.00130276
0.0012724
0.00130319
0.0012649
0.00130292
0.00130299
0.00134669
0.00128011
0.00133159
0.0013101
0.0013469
0.00128638
0.00133158
0.00125311
0.0012477
0.00127581
0.00127102
0.00126034
0.0012477
0.00128272
0.00127122
0.00131466
0.00131889
0.0012998
0.00130441
0.00131742
0.00131887
0.00130538
0.00130439
0.0013577
0.00139905
0.00146482
0.00162784
0.00131029
0.000520813
0.0011382
0.00187838
0.00202749
0.00220088
0.00346015
0.00436116
0.0038534
0.00291107
0.0016324
0.00163272
0.0017731
0.00177398
0.00142283
0.00142296
0.0014651
0.00146535
0.0012716
0.00126923
0.00126055
0.00128976
0.00127166
0.00126964
0.00126077
0.00128896
0.00129559
0.00130248
0.0012972
0.00130559
0.00129552
0.00130507
0.00129711
0.00130509
0.00108269
0.00104235
0.00109423
0.00104307
0.00108783
0.00104245
0.0010977
0.00104303
0.00114984
0.00112048
0.00111787
0.00106525
0.00115378
0.00112045
0.00112151
0.00106529
0.00137003
0.00114343
0.000773239
0.000785231
0.000785691
0.000936425
0.000936871
0.00110048
0.00110103
0.00116308
0.00116501
0.00115824
0.0011554
0.00117652
0.0011597
0.00116634
0.00115549
0.00118298
0.00115986
0.00121148
0.00120832
0.00119323
0.00118441
0.00121867
0.00120851
0.00119942
0.0011845
0.00123217
0.00121343
0.00123904
0.00121337
0.00144133
0.00144309
0.00152013
0.0017032
0.00120513
0.000559489
0.000425762
0.00150916
0.00213585
0.00203656
0.00351459
0.00434969
0.00430154
0.00108229
0.00148918
0.00148947
0.00159129
0.00159146
0.00130916
0.00130652
0.00133298
0.00133872
0.00131302
0.00130672
0.00133307
0.00133804
0.00139821
0.00139831
0.00118768
0.00124354
0.00119883
0.00124408
0.00118768
0.00124325
0.00119885
0.00124304
0.0011842
0.0012318
0.00118569
0.00123712
0.00118409
0.00123535
0.00118571
0.00123688
0.00116861
0.00112412
0.00117124
0.00112393
0.00150074
0.00138204
0.0010442
0.000565237
0.000565416
0.000723399
0.000724297
0.000811434
0.000812281
0.00095203
0.000952961
0.00103587
0.00103917
0.00101376
0.00106889
0.00103614
0.0010373
0.00101359
0.00106752
0.00107398
0.00110304
0.00107205
0.00110115
0.00107473
0.00110832
0.0010728
0.001104
0.00111484
0.00106354
0.00113425
0.00108347
0.00112059
0.00106357
0.00113886
0.00108359
0.00118555
0.00115228
0.00115981
0.00111661
0.00119203
0.00115238
0.00116503
0.00111662
0.00149165
0.00147146
0.00159244
0.00158956
0.000707803
0.000237477
0.000850726
0.00194811
0.00165599
0.00253286
0.00461345
0.00203977
0.00162327
0.00162293
0.00162568
0.00162591
0.0013166
0.00133296
0.00134638
0.00137033
0.00131894
0.00133312
0.0013482
0.00137023
0.00146657
0.0014668
0.00124088
0.00119696
0.00125104
0.00127777
0.00124397
0.0011971
0.00125092
0.00127699
0.001292
0.00128933
0.00129483
0.00128103
0.00129292
0.00128916
0.00129382
0.00128086
0.00115409
0.00120668
0.0011381
0.00121943
0.00115391
0.00120998
0.00113808
0.00122021
0.00157207
0.00156469
0.00142593
0.00110804
0.000940393
0.000939512
0.000840521
0.00084154
0.00087406
0.000875665
0.000977127
0.000935721
0.000895085
0.000920261
0.000978022
0.000935697
0.000895354
0.000924753
0.000971596
0.00101886
0.000941308
0.00104625
0.000971603
0.00101751
0.000941085
0.00104578
0.0010059
0.00108461
0.0010246
0.00107196
0.00100628
0.00108964
0.00102501
0.00107454
0.00110564
0.00103974
0.00111098
0.00103969
0.00150104
0.0015075
0.001715
0.000725862
0.000169587
0.000825441
0.00184596
0.00130196
0.00203798
0.00153795
0.00156423
0.00156449
0.00137613
0.0013759
0.00141691
0.00141697
0.00137934
0.00137916
0.00122492
0.00120356
0.0012682
0.00127248
0.0012277
0.00120373
0.00127017
0.00127249
0.00131516
0.00131996
0.00134532
0.0013002
0.00131522
0.00132163
0.00134523
0.00130084
0.00120626
0.00113434
0.00117406
0.001231
0.00120748
0.00113442
0.00117397
0.00122983
0.00121786
0.00117641
0.00123854
0.00119247
0.00121993
0.00117627
0.0012385
0.00119233
0.00157765
0.0016583
0.00163411
0.00152112
0.00142432
0.00142293
0.00124668
0.00124524
0.00107502
0.001073
0.00101974
0.000853011
0.000995372
0.000856172
0.00101549
0.000852542
0.000988157
0.000855033
0.000997659
0.000855931
0.00100002
0.000857805
0.00093594
0.000859496
0.000995642
0.000855657
0.000999118
0.000857698
0.000938089
0.000859579
0.00098897
0.000895621
0.000989471
0.000895626
0.000950227
0.00103255
0.000916748
0.00105389
0.000950056
0.00103065
0.000916316
0.00105284
0.00149421
0.00162523
0.000703041
0.000238111
0.00150879
0.00155186
0.00133388
0.00126164
0.00108979
0.000870947
0.000871492
0.00104407
0.00104361
0.0012312
0.00124346
0.0012698
0.00118278
0.00124083
0.00124987
0.00124513
0.0012313
0.00124973
0.00126965
0.00118359
0.00124064
0.000977297
0.00117752
0.00104551
0.00117846
0.00097895
0.00117729
0.00104794
0.00117844
0.00117891
0.00113767
0.00120442
0.0011814
0.00118093
0.00113773
0.00120565
0.00118137
0.00121758
0.00122891
0.00121756
0.00122974
0.0011565
0.00121918
0.0011564
0.00121807
0.00118875
0.0011403
0.00119087
0.00114016
0.00154518
0.00166663
0.00173487
0.00172429
0.00177226
0.00177173
0.0016645
0.00166344
0.00149904
0.00149659
0.0013608
0.00135971
0.00105634
0.00127779
0.00109846
0.00126314
0.000928701
0.00113734
0.00105611
0.00127497
0.00109746
0.00126165
0.000928404
0.00113475
0.00111372
0.000902747
0.00111067
0.000902447
0.00108142
0.00088964
0.00107739
0.00100991
0.000886665
0.000864529
0.00107946
0.000889282
0.001076
0.00100963
0.000886363
0.000864261
0.00102778
0.00088739
0.00102678
0.000887096
0.00154638
0.000680575
0.000294518
0.00159169
0.00125624
0.00112209
0.00101406
0.000732838
0.000732737
0.00068744
0.000687282
0.000726958
0.000727617
0.00072869
0.000728836
0.00120713
0.00114155
0.00118073
0.00120884
0.00103547
0.00110419
0.00120833
0.00114209
0.0012086
0.00118051
0.00103701
0.00110405
0.00067029
0.000941837
0.000836689
0.000989401
0.000672143
0.000941814
0.0008389
0.000989447
0.00119242
0.00116319
0.00119334
0.0011631
0.00152015
0.00162947
0.00174347
0.00181263
0.00187819
0.00182182
0.00182081
0.00169277
0.00169101
0.00163337
0.00142716
0.00160292
0.00137829
0.00162612
0.00142548
0.00159779
0.00137732
0.00150205
0.00138622
0.00130311
0.00154384
0.00133641
0.00118898
0.00150131
0.00138691
0.00130266
0.00153997
0.00133548
0.00118873
0.00115386
0.00101976
0.00133519
0.00122126
0.00115378
0.00101933
0.00133637
0.00121855
0.00119091
0.000992791
0.0011871
0.000992196
0.0011581
0.00096241
0.00105429
0.000878126
0.00115432
0.000961669
0.00105356
0.00087773
0.000659255
0.00112455
0.0013775
0.00113209
0.000987041
0.000757935
0.000597077
0.00059725
0.000539623
0.000539436
0.000571609
0.000569958
0.000628989
0.000591319
0.000571725
0.000571047
0.000629008
0.000592394
0.00060444
0.000604867
0.000553519
0.000744582
0.000678137
0.000879122
0.000554713
0.000744548
0.000679719
0.000879202
0.000688097
0.00155928
0.00170994
0.00180509
0.00190589
0.00210677
0.00210625
0.00200674
0.0020057
0.00179096
0.00179002
0.00167497
0.00167275
0.00170665
0.00147232
0.00165209
0.00143065
0.00170283
0.00147173
0.00164954
0.00143038
0.00146064
0.0015584
0.00127528
0.00136399
0.00160417
0.00139616
0.00146264
0.00155714
0.00136373
0.00127503
0.00160208
0.00139595
0.00111899
0.00129684
0.00111878
0.00129686
0.00138591
0.00122776
0.00105636
0.000875784
0.00050884
0.00050838
0.000801367
0.000801554
0.000522536
0.000523459
0.000454389
0.00045461
0.000536721
0.000505465
0.000541959
0.000562609
0.0005369
0.000506625
0.000542033
0.000564118
0.000600453
0.000544306
0.000616807
0.000559608
0.000601245
0.000544193
0.00061874
0.000559834
0.000454139
0.000599655
0.000454833
0.000599616
0.000743522
0.00164339
0.00176992
0.00184617
0.00198813
0.00204156
0.00204031
0.00196108
0.00196018
0.00178456
0.00178456
0.00158284
0.00177607
0.00155023
0.00178271
0.0015826
0.00177268
0.00154969
0.00178213
0.00174202
0.00152043
0.00170087
0.0014951
0.00173811
0.00151982
0.00169811
0.00149477
0.00127949
0.00114204
0.00103578
0.000815284
0.000458298
0.000457708
0.000728026
0.000728577
0.000582064
0.00054454
0.000431523
0.000493358
0.000491714
0.000407727
0.000584191
0.000544717
0.000431781
0.000495847
0.000491908
0.000410103
0.000361473
0.000362187
0.000556626
0.000536937
0.000554535
0.000587868
0.00055693
0.000539316
0.000554743
0.000590108
0.000616093
0.000575158
0.00061831
0.000575495
0.000860196
0.00171552
0.00179532
0.00183915
0.00200563
0.0020042
0.00200217
0.00200087
0.00190185
0.00190033
0.00187769
0.00187624
0.00188844
0.00170451
0.00188418
0.00168638
0.00183525
0.00162281
0.00188564
0.00170274
0.00188767
0.00168594
0.00183618
0.00162248
0.00180676
0.00159531
0.00180638
0.00159486
0.00177898
0.00157664
0.00177624
0.00157622
0.001221
0.00113318
0.00108275
0.000737553
0.000738767
0.000781315
0.000781203
0.000422845
0.00042108
0.000589757
0.00059164
0.00054778
0.000535593
0.000420452
0.000445117
0.000476029
0.000373592
0.000550201
0.00053583
0.0004206
0.000446982
0.000476212
0.000375171
0.000293579
0.000355789
0.000308408
0.000372592
0.000293954
0.00035567
0.000309227
0.000372653
0.00107601
0.00175432
0.00176339
0.00175019
0.00179767
0.00179507
0.00180722
0.00180563
0.00179397
0.00179207
0.00194075
0.00174463
0.00172621
0.00196594
0.00176701
0.00190224
0.00172607
0.00196255
0.00176648
0.00190092
0.00194116
0.00174412
0.00191968
0.00186283
0.00174104
0.00167077
0.00192548
0.00186758
0.00174114
0.00167054
0.00183476
0.00164544
0.00183841
0.00164524
0.00121794
0.00134299
0.00102449
0.000562985
0.000564808
0.000671747
0.000671536
0.000316575
0.000367378
0.000424508
0.000406755
0.000390677
0.00049021
0.00031648
0.00036721
0.000423504
0.000402328
0.000390071
0.000484439
0.000466359
0.000466006
0.000412715
0.000345191
0.000412794
0.000346067
0.000318752
0.000375742
0.000318738
0.000375651
0.00137165
0.00172951
0.00163156
0.00158339
0.00157828
0.0017471
0.0017427
0.00159013
0.0015872
0.00157366
0.00157063
0.00170546
0.00155239
0.00180666
0.00160453
0.00191116
0.00171545
0.00169846
0.00190638
0.00171471
0.00155005
0.00180588
0.00160371
0.00196698
0.00178643
0.00197542
0.00179123
0.00197015
0.00196584
0.00179072
0.00178595
0.00140384
0.00142406
0.000798931
0.000493236
0.00049304
0.000533651
0.000533751
0.000356927
0.000373236
0.000384362
0.000409834
0.000378073
0.000381119
0.00035494
0.000372817
0.000381867
0.000402069
0.000376605
0.000372837
0.000388084
0.00042644
0.000326662
0.00037641
0.000387835
0.000426323
0.000328601
0.000376439
0.000349285
0.000379842
0.000348008
0.00037961
0.00190551
0.00159318
0.00125321
0.0013994
0.00139102
0.00148423
0.00147893
0.00147464
0.00147121
0.00165304
0.00148138
0.00141311
0.00160515
0.00142731
0.00153666
0.00165404
0.00148084
0.00141237
0.00159892
0.00142637
0.00153308
0.00170552
0.00185586
0.00152688
0.00167842
0.00185265
0.0016778
0.00171062
0.00152671
0.00146858
0.00137657
0.000472867
0.000495795
0.000495868
0.000472383
0.000676743
0.000675915
0.000453175
0.000368786
0.000413178
0.000452733
0.000367581
0.000413058
0.000367254
0.000366337
0.000339183
0.000309423
0.000350863
0.000278661
0.00036198
0.00036565
0.00033822
0.000304426
0.000350188
0.00027671
0.000293398
0.000365669
0.000294041
0.00036552
0.00271701
0.00122755
0.00071678
0.00104263
0.00102705
0.00125898
0.00124871
0.00139649
0.00132801
0.00150566
0.00133815
0.00154764
0.00138319
0.0013849
0.00154334
0.001382
0.00132512
0.00150207
0.00133798
0.0016187
0.00144491
0.00157162
0.00140567
0.00161515
0.00144414
0.00156547
0.00140458
0.00164291
0.00148067
0.00164849
0.00148066
0.00198962
0.000777163
0.00045964
0.000620869
0.000459788
0.000619876
0.000738584
0.000737975
0.000351745
0.000338686
0.000412163
0.000352343
0.000411132
0.000432352
0.00035523
0.000447122
0.000337931
0.000352331
0.000411831
0.000351086
0.00041081
0.00043238
0.000357239
0.000446532
0.000341632
0.000239462
0.000340693
0.000240146
0.000281446
0.000373553
0.000283343
0.000373006
0.00225208
0.00078945
0.000370822
0.000817592
0.000801244
0.000369066
0.000459336
0.000456505
0.00105813
0.00137744
0.00126726
0.00104656
0.00136672
0.00126604
0.00150885
0.00143848
0.00136137
0.00129016
0.00150736
0.0013606
0.00143362
0.00129
0.00159975
0.00143359
0.0015491
0.00141031
0.00159019
0.00143265
0.00154728
0.00140969
0.00129461
0.000834317
0.000515636
0.000480295
0.000410347
0.00052652
0.00051585
0.000481779
0.000415592
0.000524505
0.000640397
0.000640971
0.0003375
0.000369424
0.000290051
0.000385869
0.00041528
0.000450983
0.000338745
0.000291986
0.000375456
0.000385321
0.000415315
0.000452211
0.00035059
0.000244391
0.000350041
0.000245664
0.00170948
0.000490887
0.000421383
0.000510638
0.000501191
0.00041674
0.000436214
0.00042671
0.000894727
0.00121862
0.0011049
0.00131277
0.00120646
0.000897326
0.000676785
0.000962733
0.000874417
0.00120374
0.0011034
0.00129838
0.00120466
0.000893604
0.000659669
0.000949955
0.00147338
0.00137835
0.00134806
0.00124925
0.00147395
0.00134758
0.00136831
0.00124901
0.000926685
0.000650683
0.000623674
0.000624954
0.000653271
0.000851653
0.000851268
0.000419849
0.000511395
0.000504229
0.000523943
0.000458893
0.00056651
0.000395263
0.000464851
0.000511358
0.000417022
0.000519167
0.000419646
0.000513281
0.000507835
0.000524696
0.000463344
0.000558978
0.000403464
0.000464575
0.000508629
0.000420461
0.000514284
0.000353384
0.000416304
0.000436311
0.000493383
0.000359325
0.000422201
0.000437402
0.000494596
0.00132855
0.00039993
0.000405316
0.000538532
0.000815965
0.000615228
0.000532223
0.0008175
0.000612164
0.000393685
0.000460445
0.000440028
0.00103721
0.000742582
0.00129044
0.000961811
0.00118102
0.000773592
0.00101613
0.000731569
0.00127763
0.00118114
0.000961068
0.000772339
0.00142328
0.00132461
0.00141681
0.00132395
0.000321796
0.000560587
0.000630538
0.000563209
0.000633253
0.000774509
0.000774296
0.00049204
0.00048365
0.00049652
0.000527335
0.000370599
0.000396385
0.000385845
0.000389987
0.000438708
0.000413231
0.000505865
0.000455607
0.000466908
0.000649113
0.000497067
0.000487574
0.000528442
0.00049805
0.000375238
0.000397369
0.000388749
0.00038121
0.000434416
0.000414922
0.000500511
0.00045002
0.000464503
0.000644458
0.00119262
0.000338385
0.000430659
0.000418964
0.000328365
0.000331944
0.000328076
0.000549206
0.000774704
0.000619086
0.000664359
0.000595669
0.00107855
0.000571344
0.000669411
0.000528841
0.000772621
0.000617637
0.000660921
0.000595353
0.00105081
0.000556308
0.000668439
0.000505278
0.000528437
0.00088658
0.000486662
0.000502715
0.000861453
0.000897579
0.000675888
0.000901762
0.000725325
0.000879119
0.000672841
0.000901907
0.000724946
0.000246568
0.000512979
0.000599481
0.000421248
0.000453273
0.000515691
0.000601663
0.000422765
0.000455464
0.000560179
0.000559361
0.000429672
0.000458863
0.00036111
0.000377139
0.000327887
0.000369704
0.000355789
0.000366392
0.000358519
0.000381676
0.000436032