/*--------------------------------*- C++ -*----------------------------------*\
| =========                 |                                                 |
| \\      /  F ield         | OpenFOAM: The Open Source CFD Toolbox           |
|  \\    /   O peration     | Version:  5.x                                   |
|   \\  /    A nd           | Web:      www.OpenFOAM.org                      |
|    \\/     M anipulation  |                                                 |
\*---------------------------------------------------------------------------*/
FoamFile
{
    version     2.0;
    format      ascii;
    class       volScalarField;
    location    "2.4";
    object      omega;
}
// * * * * * * * * * * * * * * * * * * * * * * * * * * * * * * * * * * * * * //

dimensions      [0 0 -1 0 0 0 0];

internalField   nonuniform List<scalar> 
12160
(
0.0719999
0.0719999
0.00174538
0.0719999
0.00356395
0.00114936
0.0719999
0.00651985
0.00142422
0.00111309
0.0719999
0.01049
0.00190189
0.00129523
0.00111057
0.0719999
0.0132144
0.00268237
0.00147391
0.00131123
0.0012153
0.0719999
0.0142071
0.00332117
0.00172604
0.00145503
0.00153924
0.00125734
0.0719999
0.0141165
0.00356849
0.00190849
0.00161019
0.00164749
0.00197589
0.00282988
0.0719999
0.0140353
0.00353179
0.00197802
0.00170754
0.00170631
0.00218284
0.00493606
0.0137302
0.0719999
0.014151
0.00350537
0.00198058
0.00174953
0.00173484
0.00220315
0.00482077
0.0138377
0.0133665
0.0719999
0.0144803
0.0035519
0.00199114
0.00177933
0.00176726
0.00209449
0.00375583
0.0136333
0.0132209
0.0229323
0.0719999
0.0148853
0.00366377
0.00202888
0.00181359
0.00182015
0.00202023
0.00305309
0.012237
0.0137184
0.0267411
0.0276166
0.0719999
0.0152465
0.00379674
0.00207954
0.001854
0.00187961
0.00203092
0.00281463
0.0107159
0.0146655
0.0349729
0.0290774
0.0191389
0.0719999
0.0155048
0.00391329
0.00212988
0.00189268
0.0019375
0.00211476
0.00315173
0.00916266
0.0148346
0.0311169
0.0244996
0.0111379
0.0162976
0.0719999
0.0156902
0.00399011
0.00216841
0.00192518
0.00198445
0.0022082
0.00367645
0.00799349
0.0137852
0.0268972
0.013844
0.0157504
0.0101305
0.011977
0.0719999
0.015862
0.00403915
0.00218806
0.00194456
0.00201501
0.0022812
0.0041368
0.00714963
0.0129888
0.0233627
0.0166284
0.00668515
0.00767573
0.00247242
0.0719999
0.0160306
0.00408892
0.00219796
0.00194477
0.00202664
0.00232759
0.00444907
0.00674783
0.0120163
0.0209438
0.0187613
0.00466122
0.00463354
0.00543289
0.0719999
0.0160067
0.00413793
0.0022124
0.00193145
0.00201668
0.00233937
0.00459107
0.00671008
0.0108067
0.0195228
0.0205056
0.00503838
0.00303801
0.00302413
0.0719999
0.0159404
0.00413332
0.00222698
0.0019237
0.00199545
0.00230082
0.0045838
0.0069265
0.00976337
0.0183932
0.021418
0.0061115
0.00257031
0.00190119
0.0719999
0.016329
0.00411773
0.00223307
0.0019247
0.00198829
0.00221639
0.00444853
0.0070755
0.00899775
0.0168594
0.0225697
0.00702087
0.00263174
0.00164989
0.0719999
0.0172283
0.0042491
0.00224923
0.00193282
0.00199982
0.00213626
0.00422081
0.00706514
0.00851972
0.0147136
0.0225484
0.00714574
0.00280184
0.0016977
0.0719999
0.0182599
0.00454153
0.00231585
0.00195626
0.00202028
0.00210775
0.00395291
0.00697309
0.00829313
0.0132601
0.0239039
0.00930591
0.00300045
0.00177101
0.0719999
0.0191781
0.00487185
0.0024416
0.00201776
0.00205217
0.00210753
0.00374757
0.00686141
0.00813017
0.0121565
0.0220181
0.0123488
0.00303012
0.0018908
0.0719999
0.019839
0.00516422
0.00258861
0.00211309
0.00210631
0.00214936
0.00360888
0.00670027
0.00794646
0.0113467
0.0197058
0.016094
0.00447448
0.00211264
0.0719999
0.0201191
0.00537514
0.00272347
0.00221953
0.00219801
0.00227385
0.00352682
0.00650392
0.00774727
0.010496
0.0179809
0.0181688
0.00705308
0.00227204
0.0719999
0.0200338
0.00545899
0.00282654
0.00232023
0.00231298
0.00247034
0.00352199
0.00626229
0.00755773
0.00947835
0.017432
0.0187359
0.00916279
0.00296096
0.0719999
0.0196177
0.00542146
0.00287672
0.00240211
0.00241622
0.00263181
0.00362365
0.00588881
0.00736395
0.00865175
0.0177374
0.0191479
0.0112666
0.00399184
0.0719999
0.0189037
0.00527253
0.002877
0.00245219
0.00248999
0.00272482
0.00365952
0.00549223
0.00710312
0.00812305
0.0182211
0.0197061
0.0126827
0.00512771
0.0719999
0.0179547
0.00503027
0.00283092
0.00247095
0.00252547
0.00273597
0.00357248
0.00513976
0.00678352
0.00807617
0.0172738
0.0200113
0.0133784
0.00588028
0.0719999
0.0168452
0.00471969
0.00274583
0.00245924
0.00254649
0.00269579
0.00337625
0.00470988
0.00634681
0.00826407
0.0146252
0.0194758
0.0139954
0.00611843
0.0719999
0.0156569
0.00436983
0.00263152
0.00241922
0.00256082
0.00273313
0.00317052
0.00425283
0.00578807
0.00773659
0.0121563
0.0187754
0.0145912
0.00638775
0.0719999
0.0144742
0.00400926
0.00250011
0.00235663
0.00255438
0.00284677
0.00327763
0.00391944
0.00517912
0.00690635
0.0106
0.0169779
0.0141531
0.00705275
0.0719999
0.0133923
0.00366589
0.00236505
0.00228148
0.00252513
0.00294696
0.0036269
0.00411113
0.0047137
0.0059185
0.00880808
0.0145168
0.0125093
0.00722177
0.0719999
0.0125001
0.00336704
0.0022395
0.00220268
0.00246505
0.00299731
0.0039642
0.0046555
0.00493333
0.00514757
0.00661012
0.0112553
0.0102513
0.00592948
0.0719999
0.011942
0.00313494
0.00213481
0.0021289
0.00238847
0.00300259
0.00422332
0.00525454
0.00562271
0.00546057
0.00508346
0.00698178
0.00748492
0.00449891
0.0719999
0.0119015
0.0029956
0.00205979
0.00206992
0.00231602
0.00296349
0.00440919
0.0058195
0.00641343
0.00649598
0.00594321
0.00418739
0.004658
0.00326546
0.0719999
0.0122195
0.00299498
0.00202384
0.00203221
0.00226114
0.00289411
0.00453308
0.00633697
0.00721163
0.00767208
0.00827825
0.00523967
0.00291557
0.00220213
0.0719999
0.0127645
0.00309263
0.00203554
0.00202133
0.00223366
0.00283081
0.00462271
0.00683559
0.00804987
0.00889018
0.0106325
0.00868531
0.00302104
0.00154013
0.0719999
0.0134165
0.00325863
0.00208372
0.00204341
0.0022402
0.00278698
0.00478426
0.00731772
0.00892477
0.0104025
0.0129413
0.0110981
0.004301
0.00149716
0.0719999
0.0141042
0.00346638
0.00216024
0.00209375
0.00228018
0.00276819
0.00503158
0.00778348
0.00964374
0.0122916
0.016073
0.0123337
0.00590089
0.00193062
0.0146929
0.0719999
0.00369816
0.00225837
0.00216525
0.00234573
0.00284703
0.00528862
0.00822247
0.0101429
0.0139151
0.0206878
0.0131996
0.00747801
0.00227658
0.00391829
0.0156909
0.0719999
0.00237244
0.0022529
0.00243414
0.00299632
0.00552419
0.00859981
0.0104514
0.0147355
0.0256508
0.0131005
0.00868924
0.00256333
0.00249359
0.004286
0.0165996
0.0719999
0.00235302
0.00254559
0.00319103
0.00570945
0.0088056
0.0106379
0.014856
0.0278278
0.0137241
0.00895767
0.00294179
0.0024609
0.00268518
0.00468448
0.0177193
0.0719999
0.00267806
0.00340686
0.00584707
0.00891231
0.0108447
0.0152268
0.0282449
0.0152634
0.00827191
0.00323617
0.0028223
0.00261021
0.00293642
0.00525965
0.0200426
0.0719999
0.00363098
0.00595587
0.00896749
0.0110536
0.0161059
0.0269799
0.0165361
0.00724981
0.00315214
0.00384455
0.00300318
0.00281298
0.00329956
0.00633036
0.0308535
0.0719999
0.00604242
0.00898306
0.0112468
0.0173575
0.0250543
0.0177845
0.00665178
0.00285827
0.006117
0.00409297
0.00322805
0.00303868
0.00407594
0.011636
0.0560601
0.0719999
0.00898278
0.0114216
0.0186587
0.0238087
0.0182778
0.00681055
0.00272226
0.0089633
0.00604979
0.00433264
0.00340584
0.00347587
0.00758449
0.0198717
0.0704617
0.0719999
0.011567
0.0196024
0.0231368
0.018213
0.00767602
0.00268764
0.0116931
0.00895892
0.00595903
0.00448662
0.00376316
0.00537067
0.0122511
0.0297191
0.0771245
0.0719999
0.0201858
0.0225353
0.0175099
0.00829072
0.00316558
0.0204713
0.0119742
0.00889354
0.00587661
0.00466417
0.00558328
0.0124517
0.0296396
0.0573607
0.0831212
0.582987
0.0218385
0.0162797
0.00831718
0.00351025
0.0210372
0.0205844
0.0126054
0.00916401
0.00654812
0.00818891
0.0277453
0.0689128
0.131408
0.0910927
1.56075
15.756
0.0150795
0.00792689
0.00359529
0.014169
0.0272557
0.0840795
0.159719
0.086155
0.0345301
0.084159
0.269826
0.437496
0.318323
1.22409
14.78
15.6268
15.2037
0.00763775
0.00352431
0.00740511
0.01894
0.212542
1.34148
1.57219
0.739984
0.342127
0.761257
1.31267
1.02555
0.910693
13.6078
14.5443
15.9276
16.6938
16.0473
0.00355416
0.00357133
0.0098043
0.175601
1.96804
6.5022
5.58528
2.47044
1.90026
2.83763
2.44096
0.847931
11.1436
13.5096
14.2425
16.3853
17.8105
18.1229
16.7662
0.00426045
0.10007
1.61656
7.21395
12.1265
9.6852
4.97734
5.8852
4.60904
2.85895
9.03839
12.2503
12.8187
14.2607
16.9859
18.7479
19.6562
19.4584
17.3815
0.0353844
1.07223
6.40371
11.9507
15.2643
11.7884
9.67325
8.75783
4.76851
6.58134
11.3259
11.576
12.5319
14.6622
18.1085
19.6767
21.2251
21.5478
20.9182
17.9364
0.498594
4.71408
11.3958
13.8758
16.4565
12.6722
14.0395
9.35057
4.92398
10.5513
10.6739
11.139
12.7424
15.6031
41.3943
20.6536
22.6285
23.757
23.4285
22.4162
18.4484
2.82129
9.65933
12.6476
14.2857
16.261
14.58
14.0199
9.05032
8.31026
10.1024
10.1914
11.1424
13.2505
25.9515
307.767
39.8431
307.939
299.359
299.5
23.7652
25.6522
26.2358
25.4499
24.0587
18.9446
6.84158
11.7607
12.4434
14.2066
15.3857
15.8268
13.7832
7.86362
9.31794
9.56971
10.0486
11.3095
17.6534
94.194
318.692
416.287
25.1292
318.892
283.953
284.189
416.484
406.839
407.025
27.369
28.7952
28.8888
27.6204
25.781
19.4033
9.0731
11.7213
12.2627
14.0132
14.3307
14.5696
13.2327
8.02715
9.16013
9.38935
9.98705
12.7096
46.8147
307.002
306.941
301.695
301.706
433.125
454.432
28.6984
61.3624
433.353
394.801
395.179
454.384
440.006
439.95
31.2333
32.287
31.7361
29.9853
27.5846
19.8181
9.07087
10.4504
11.8124
12.9657
11.7075
13.9846
12.2369
8.22379
8.85929
9.28892
10.226
37.3965
274.371
274.374
276.147
276.229
391.232
391.323
398.807
398.767
474.729
440.966
706.013
436.617
718.096
32.893
48.3483
334.056
334.068
330.549
330.677
474.702
467.256
467.255
440.042
707.001
436.752
715.721
429.348
670.281
418.107
699.377
428.749
673.305
418.87
697.831
35.7365
36.2103
34.9205
32.5959
29.3806
20.1867
6.47602
8.09182
9.05104
9.57942
9.99883
15.1079
11.5844
8.17661
8.70696
9.19647
38.4151
273.02
273.099
276.482
276.682
380.785
380.695
382.885
382.756
633.239
734.496
389.504
633.944
391.017
424.992
738.382
634.093
389.796
634.024
391.042
426.562
654.335
400.966
654.196
401.595
654.541
401.027
654.151
401.553
461.282
726.825
451.148
750.949
454.109
781.212
448.973
792.589
38.2824
48.2637
321.902
321.945
334.628
334.519
463.588
463.511
459.208
459.34
460.552
729.318
451.806
749.057
464.648
729.619
454.315
759.942
464.039
733.755
455.494
758.372
452.974
783.35
449.682
790.464
442.872
773.168
442.187
771.714
41.0754
40.6893
38.5033
35.1553
31.0416
20.4656
4.09321
5.083
6.10965
6.96412
10.0066
15.6292
11.2165
8.69944
8.17787
37.6185
300.932
301.047
308.218
308.354
388.43
388.309
400.032
399.95
639.307
389.64
640.587
389.942
640.208
389.94
642.862
390.653
650.081
395.083
646.81
392.95
653.053
396.06
649.241
393.785
750.948
671.951
395.387
427.988
693.274
402.205
755.711
672.669
430.046
395.651
693.25
402.208
719.622
414.437
718.924
414.744
720.254
414.656
718.847
414.71
472.457
795.502
458.22
822.854
460.399
800.428
455.212
813.339
45.4921
48.2926
300.524
300.668
308.352
308.385
456.778
456.593
465.211
465.039
769.991
470.737
758.128
466.12
770.865
470.988
758.635
466.249
739.622
807.212
455.87
735.569
455.597
468.675
741.483
811.303
456.524
736.251
455.851
470.442
471.632
798.531
459.442
821.256
481.827
840.952
480.982
839.181
459.012
801.848
455.817
810.206
448.255
790.431
447.82
789.446
47.6943
45.8173
41.988
37.4047
32.4084
20.5983
2.19881
3.32009
4.49207
6.32238
10.8893
15.3598
12.4374
9.5214
9.18656
307.994
308.102
289.277
289.429
417.834
417.765
432.501
432.58
659.307
401.076
663.284
403.487
661.545
401.855
665.534
404.188
670.587
417.791
678.474
413.066
672.429
418.314
680.161
413.634
706.841
406.142
711.504
408.235
708.349
406.776
714.438
409.501
732.339
419.153
724.134
414.336
736.245
420.882
727.086
415.76
478.288
809.848
461.602
843.611
55.7228
50.7683
259.598
259.681
275.014
275.086
425.933
425.807
438.863
438.719
756.78
462.604
767.534
467.092
759.914
463.567
770.456
468.034
776.6
473.013
776.299
472.895
777.617
473.32
779.007
473.686
850.341
488.853
832.16
480.797
851.879
489.386
832.791
481.049
835.318
778.537
460.062
476.663
801.638
466.314
839.415
780.374
460.78
478.515
802.36
466.633
477.409
812.576
462.916
841.581
489.178
862.578
488.28
860.849
55.7818
50.9216
44.8586
39.1093
33.3725
20.5633
1.35312
2.36342
4.10803
6.30469
11.2374
15.7537
13.9281
10.8459
53.5116
436.045
436.14
411.952
412.193
479.633
479.599
488.534
488.516
744.873
426.376
759.982
433.743
747.896
427.778
762.377
434.874
764.125
447.129
778.621
444.338
766.614
448.119
781.047
445.451
753.145
427.481
757.138
429.279
69.8589
62.7343
175.17
175.352
208.009
208.111
353.525
353.564
379.707
379.59
695.952
428.997
708.47
433.049
698.933
429.895
710.994
433.855
730.901
447.232
720.249
441.817
733.226
447.975
722.93
442.595
847.374
485.194
852.565
488.177
851.322
486.918
855.666
489.666
852.567
490.151
854.181
490.99
854.112
490.764
857.067
492.21
64.0765
54.7759
46.7524
40.1202
33.5952
20.258
0.932575
2.1351
4.37542
6.8029
12.6211
16.2503
15.3929
13.3581
315.292
315.417
287.15
287.257
486.891
486.673
458.348
458.581
470.189
757.345
466.36
766.33
470.033
757.039
466.307
765.971
475.263
769.501
473.753
773.947
475.228
771.462
474.28
773.89
773.102
438.137
792.236
448.461
776.057
439.64
794.424
449.649
812.176
464.539
812.948
460.646
814.619
465.632
814.999
461.805
84.9748
90.4284
68.4688
223.272
223.447
274.168
274.297
393.579
393.609
451.044
451.166
779.216
450.216
804.933
459.71
783.062
451.878
808.048
461.186
824.45
472.307
816.736
467.051
827.758
473.821
819.844
468.497
860.727
489.515
865.155
491.435
69.5827
56.5109
47.4925
39.8641
32.4131
20.9206
0.863308
2.26527
4.48069
9.07748
14.6757
17.555
18.9819
54.4602
434.625
434.429
384.679
384.556
768.711
472.841
471.677
749.783
770.307
473.245
471.386
749.253
497.638
497.533
488.818
831.922
479.296
854.418
488.574
831.95
479.278
853.697
493.545
857.57
491.065
863.576
493.61
859.606
491.972
863.594
829.934
472.053
832.345
472.974
92.3054
119.98
128.854
198.627
199.008
248.963
249.582
282.83
283.02
338.115
338.042
401.883
642.838
388.715
666.074
401.838
642.869
388.591
665.598
428.441
724.453
438.978
700.425
428.829
726.059
439.828
701.118
817.886
463.914
832.171
471.563
821.323
465.665
834.606
473.035
848.996
481.241
843.556
477.788
852.616
483.031
846.68
479.434
70.6141
56.278
46.6185
37.5864
28.4137
0.920493
2.55973
5.27688
14.6826
18.289
28.6628
43.2511
322.023
321.933
312.475
312.525
728.386
443.525
698.134
437.57
729.268
443.803
699.818
437.92
455.186
455.119
856.434
490.404
485.08
824.822
858.019
491.059
484.966
824.884
763.631
470.405
778.151
477.777
764.93
470.695
778.059
477.683
498.372
881.147
499.332
878.453
498.754
883.468
500.327
879.635
91.3522
127.412
181.443
254.534
386.396
385.962
357.934
357.799
399.557
399.499
613.18
363.602
345.494
573.055
613.023
363.389
345.493
573.541
425.028
730.198
413.291
749.161
425.101
729.918
413.121
749.093
437.42
774.497
444.228
766.101
438.021
776.813
445.395
766.938
822.908
465.385
826.774
467.219
68.2097
54.1609
43.2816
33.4711
1.00682
3.06213
9.39096
24.6119
38.5566
96.6729
292.206
292.213
330.854
330.999
432.307
432.166
406.457
406.253
819.395
468.397
777.983
457.633
820.586
468.976
779.086
458.078
451.193
699.141
440.054
737.538
451.319
700.79
440.383
737.887
884.389
500.505
495.874
869.624
884.924
500.904
495.634
869.126
843.634
482.811
848.926
487.565
845.262
483.465
849.06
487.625
84.839
121.523
181.454
313.383
622.239
622.113
575.948
575.55
559.123
558.212
731.601
410.465
719.183
410.753
728.741
409.052
714.353
408.091
706.107
406.241
718.741
411.444
668.566
381.897
705.83
405.851
718.64
411.293
668.946
381.946
710.707
399.892
710.649
399.785
431.347
763.685
426.973
770.572
431.37
763.709
426.828
770.551
63.7766
49.5292
37.0148
1.2415
4.83143
20.715
40.4993
77.2145
203.249
287.992
287.943
381.295
381.273
682.334
763.771
423.838
667.332
413.727
450.451
765.04
682.788
450.904
423.94
668.428
413.954
573.343
374.241
606.962
383.107
574.773
374.483
607.938
383.353
843.764
478.524
825.805
471.744
844.85
479.119
826.587
472.139
463.928
806.06
464.163
806.482
496.97
875.014
496.774
874.6
853.073
484.864
854.954
485.602
76.5237
107.921
164.195
276.778
728.418
728.521
700.217
700.112
738.83
738.015
717.555
717.375
535.086
951.197
546.944
952.801
472.653
840.776
534.764
951.976
546.647
952.46
471.55
839.217
831.193
461.267
829.39
460.228
808.459
450.305
804.593
751.093
447.005
419.165
807.831
449.755
803.973
751.615
446.635
419.187
763.849
425.34
763.956
425.232
56.6817
39.7331
1.75826
11.5524
37.501
68.2246
131.018
305.699
305.707
274.618
274.678
348.242
348.351
325.513
325.594
776.808
715.774
422.292
449.461
695.805
409.344
778.186
716.452
449.923
422.529
696.783
409.729
498.816
324.229
605.242
365.556
500.216
324.672
606.368
366.017
833.02
473.915
833.721
474.283
66.1818
93.235
139.688
229.045
472.802
788.744
788.691
776.302
775.716
1220.94
704.014
1209.5
684.865
1219.62
702.489
1208.09
683.819
1120.37
1030.72
632.144
1160.23
657.122
583.215
1121.03
1032.05
632.363
1160.21
656.655
583.819
556.782
517.254
993.372
925.332
557.245
516.508
994.186
924.204
896.886
500.233
895.259
499.227
871.335
485.46
791.414
439.682
870.357
484.604
791.637
439.585
42.0266
4.15182
26.047
59.0141
100.504
160.7
274.136
274.143
229.904
229.908
262.175
454.897
264.799
455.358
262.528
455.69
265.181
456.139
315.774
315.984
458.907
284.923
535.303
334.576
460.19
285.385
536.324
335.033
44.0328
78.2904
114.875
182.935
331.754
871.892
872.111
870.622
870.56
843.726
843.763
891.576
890.812
1287.66
729.98
1254.2
704.159
1286.48
729.087
1253.01
703.429
1078.11
1150.46
604.569
644.521
1199.63
671.929
1080.38
1150.12
644.296
605.542
1198.57
671.356
535.784
958.905
535.892
959.303
12.0849
45.6878
80.1623
121.484
216.35
216.3
313.601
313.647
267.386
267.674
206.044
206.207
250.413
408.36
238.313
435.731
250.859
409.175
238.675
436.672
448.263
257.26
456.895
259.984
449.789
257.82
458.015
260.575
382.486
238.977
383.271
239.25
46.0102
92.5313
141.941
241.281
501.965
882.838
882.846
910.988
910.662
936.925
936.985
769.298
1341.01
759.523
1333.44
769.17
1339.26
758.823
1333.32
1314.08
737.911
1264.55
708.637
1313.14
737.231
1263.44
707.981
27.1921
64.5259
85.3435
153.467
209.437
209.339
294.164
294.134
425.117
244.394
191.35
367.452
214.713
318.635
426.51
245.081
192.018
368.87
215.401
320.125
188.194
188.465
250.166
415.403
241.635
435.824
250.737
416.663
242.24
436.815
429.55
249.077
430.679
249.641
48.1622
108.569
173.504
319.982
826.62
826.749
864.391
864.37
882.197
882.506
969.798
969.464
1379.38
798.409
1383.92
785.836
1364.57
775.957
1383.25
799.293
1388.05
787.758
1365.72
776.791
1350.7
759.04
1351.54
759.496
1310.72
735.255
1310.43
734.939
47.0239
72.3088
75.2114
281.782
281.535
229.599
229.211
218.465
218.086
262.176
262.219
386.801
225.684
178.699
326.875
195.831
294.576
388.205
226.272
179.153
327.783
196.253
295.49
250.111
155.532
256.017
158.786
250.851
155.736
256.542
159.027
50.3809
125.271
204.21
436.282
780.731
780.542
844.812
844.258
936.407
936.06
1394.43
794.546
804.055
1408.73
801.45
1386.79
803.31
1407.58
800.729
1386.15
1396.71
795.412
1355.69
1355.33
767.245
764.257
1359.28
1359.66
768.894
766.222
1330.02
748.025
1333.52
749.515
58.2341
60.6194
75.7612
239.618
239.371
220.002
219.507
262.755
161.185
199.783
313.202
180.556
356.809
262.976
161.156
197.865
311.335
179.42
353.891
245.139
244.692
168.376
270.614
168.573
271.033
256.312
157.852
256.468
157.849
52.2565
136.587
219.752
626.274
626.036
738.414
738.143
747.835
747.678
837.615
836.75
1251.93
734.273
1332.5
759.284
1383.46
788.689
1251.15
1381.47
787.743
733.39
1334.25
760.058
1368.16
776.359
1372.48
779.252
1370.4
1369.25
778.23
776.532
33.4985
54.1575
110.747
223.223
223.16
195.099
194.952
279.973
164.508
172.023
304.202
170.583
297.695
279.407
164.053
169.656
301.186
168.748
294.047
315.879
193.21
280.405
169.071
315.625
193.044
281.548
169.516
264.478
158.88
264.145
158.646
52.5484
129.201
193.988
563.97
563.29
676.425
675.348
779.858
778.845
1230.77
706.287
665.439
1189.72
680.509
1129.71
1233.59
707.262
664.079
1186.62
679.101
1127.31
1269.04
1336.43
716.703
758.208
1336.34
758.146
1272.9
718.7
37.1444
97.2736
201.821
194.818
194.696
201.862
259.474
259.399
226.861
312.784
189.888
227.098
312.17
189.655
270.073
156.399
144.858
242.307
145.576
240.501
268.276
155.531
144.522
240.606
144.857
240.097
261.868
161.971
262.306
162.08
48.5625
95.5108
133.041
437.279
435.672
621.956
619.558
1009.89
606.159
1103.09
632.455
1143.38
654.964
1002.19
1141.36
653.978
601.288
1101.95
631.633
1205.23
681.134
1161.11
655.529
1205.54
680.984
1159.64
654.673
1208.67
681.7
1212.95
683.621
78.2264
107.546
216.416
257.96
216.497
257.892
269.312
269.319
319.772
294.849
186.933
303.386
188.714
200.99
310.819
209.034
294.881
320.374
186.928
303.059
188.559
201.357
313.339
209.125
138.543
212.726
138.498
213.597
254.214
160.945
255.376
161.081
40.158
71.1233
153.936
351.729
349.504
153.638
197.97
198.186
538.592
996.712
582.903
535.69
989.546
578.481
1111.73
1056.02
629.764
599.306
1112.97
630.049
1053.74
597.803
1159.52
652.133
1106.67
625.852
1156.72
650.621
1107.86
626.099
54.1132
78.2672
256.494
231.227
355.225
220.667
256.893
231.893
358.374
220.636
204.734
204.945
304.906
336.49
260.831
164.849
188.246
212.938
305.879
262.119
340.34
165.017
188.718
214.252
141.083
214.816
141.203
216.011
33.0757
74.8159
181.194
259.267
257.739
180.464
205.86
204.154
614.615
852.192
492.701
935.158
546.067
369.43
470.95
326.561
603.204
843.636
487.892
926.256
540.837
363.583
461.88
320.387
1049.52
992.072
595.848
563.881
1050.79
596.069
987.326
561.456
14.2419
194.575
193.288
193.162
194.421
168.536
168.33
344.521
255.436
424.486
265.441
397.092
262.154
362.888
248.989
215.908
322.681
232.846
348.295
256.524
426.547
266.046
399.376
260.604
367.435
249.068
215.781
326.804
231.923
319.75
369.524
199.875
238.454
323.947
373.211
201.308
240.081
28.5573
87.8409
182.807
289.326
288.977
439.246
287.977
289.18
438.709
180.425
235.33
230.087
731.085
525.526
910.092
417.137
518.708
313.542
721.558
519.745
904.179
515.967
413.05
310.999
982.928
567.022
981.481
566.342
20.4513
198.873
181.781
198.831
181.641
143.264
143.133
407.713
400.656
248.345
256.094
328.408
215.057
324.748
287.055
199.798
301.965
218.344
224.318
323.18
245.742
410.726
402.117
257.286
248.757
331.477
215.592
287.185
322.217
197.908
304.246
216.593
222.054
323.524
244.765
24.9603
82.389
200.074
198.203
83.3358
126.304
127.822
376.451
277.118
426.43
259.187
424.053
293.31
379.599
238.616
364.805
276.429
426.184
257.795
424.139
285.518
371.927
235.25
266.73
361.674
260.706
262.542
346.86
251.876
639.847
476.122
375.014
284.941
632.299
474.685
372.545
284.437
13.2403
177.657
220.146
293.548
134.746
177.663
221.124
294.198
134.522
107.238
107.01
358.836
228.837
307.84
199.992
288.834
304.438
298.383
191.256
184.823
196.797
361.175
229.623
308.293
199.486
285.523
297.253
303.388
189.744
182.12
196.223
21.8973
94.1824
180.307
178.353
94.5995
110.314
111.424
464.846
391.427
273.311
227.572
343.272
203.186
464.218
389.574
273.075
226.627
334.931
199.381
321.415
353.784
217.033
357.115
242.736
224.346
336.758
272.021
310.359
340.891
211.256
341.84
234.195
218.655
328.724
266.3
10.2155
83.5758
83.554
140.821
210.405
256.558
203.819
273.353
107.693
140.659
210.401
254.316
201.794
272.685
107.477
288.168
267.059
280.189
183.429
171.322
181.906
283.614
262.539
276.05
181.191
169.325
179.813
20.6229
80.3522
186.937
225.207
290.742
184.986
225.333
287.972
81.217
104.101
105.68
370.877
220.36
347.162
205.28
367.197
219.477
338.933
202.91
327.271
251.162
336.87
188.425
195.972
165.421
316.049
242.47
329.061
195.012
185.035
162.504
10.0042
65.2988
68.0356
65.2207
67.9884
128.002
189.131
227.86
191.904
226.367
257.719
169.285
93.0191
127.605
190.748
227.407
191.546
225.881
252.129
166.25
92.6214
243.145
159.693
237.156
156.811
21.2959
74.9514
75.2174
179.174
238.112
309.358
244.399
295.609
178.76
236.751
301.653
238.71
292.875
87.0697
87.7591
283.134
319.674
242.093
176.936
190.655
157.453
276.083
312.343
233.791
191.829
176.834
155.332
10.8314
71.2517
72.1865
71.3641
72.3348
98.9895
98.5695
124.482
184.835
221.116
184.805
220.691
154.901
232.776
156.649
230.97
228.154
150.374
123.99
185.65
220.573
184.535
219.64
154.818
230.27
155.693
228.853
223.143
147.515
24.7886
76.5101
88.6935
76.5456
88.3271
164.253
230.758
301.506
240.129
287.743
233.082
151.111
162.9
233.801
297.948
237.429
291.506
226.618
149.309
76.5579
78.4988
272.938
179.818
266.821
180.47
9.41732
72.2607
72.5164
72.2664
72.3437
102.216
99.3203
101.895
99.0631
123.862
123.355
179.445
216.093
182.36
211.899
155.63
230.819
156.498
231.625
147.4
215.707
144.25
219.871
181.436
216.386
182.657
212.224
155.492
230.039
156.565
229.655
146.938
214.411
143.101
219.301
29.3558
109.394
129.182
109.053
129.166
77.362
78.2521
152.585
223.074
286.503
227.177
278.589
153.54
229.287
150.476
227.809
246.378
175.093
152.131
223.702
279.922
222.181
280.011
153.003
224.347
149.037
226.853
240.926
175.737
2.8881
66.7695
61.5263
66.5263
60.8972
99.5969
101.02
99.3507
100.723
117.906
112.467
117.515
112.154
178.049
200.464
176.731
205.478
180.431
201.525
179.021
205.853
152.07
220.402
152.469
214.982
153.166
221.278
153.15
216.255
30.0025
146.334
136.84
146.72
137.419
98.5234
137.315
99.8497
137.157
141.917
144.052
211.878
277.025
222.442
261.548
148.856
222.083
151.596
219.748
169.681
230.006
157.243
243.283
215.058
272.495
219.124
264.853
148.553
219.317
150.633
219.35
170.099
227.082
157.902
241.683
21.6777
1.5093
90.3017
67.555
89.8786
66.6218
111.531
117.369
111.239
117.058
173.773
192.128
174.511
189.572
172.197
185.216
174.533
183.721
176.388
193.776
176.945
190.934
173.756
184.988
173.924
184.729
150.19
196.791
143.457
208.059
151.836
199.356
145.599
209.734
33.9378
129.52
122.104
130.142
122.433
168.595
160.938
168.795
161.25
151.539
183.543
152.313
182.618
205.753
261.778
208.979
256.344
209.7
262.351
209.553
260.492
158.564
216.726
150.71
215.937
158.769
213.995
149.86
216.396
10.3933
75.8157
67.9487
75.7386
68.3665
1.80772
117.049
110.006
116.536
109.208
171.798
183.162
172.841
182.785
177.159
194.509
182.53
188.656
173.696
183.074
172.399
184.235
178.867
192.219
179.89
189.794
133.685
185.712
136.929
179.29
130.899
175.407
131.637
172.958
135.558
188.796
139.071
181.799
132.344
175.304
131.871
174.739
40.3437
126.584
148.997
146.766
149.518
146.815
210.051
212.551
209.505
211.447
211.18
266.258
213.371
263.687
225.675
299.485
238.224
277.279
214.462
266.509
213.308
267.807
227.327
293.894
234.055
279.571
164.674
220.803
163.968
217.804
165.281
220.632
163.71
219.048
7.91604
49.9224
71.5043
50.6325
71.6434
132.313
119.473
132.275
120.506
1.27101
182.386
198.986
184.029
198.921
180.55
224.404
212.706
198.691
182.772
196.471
181.152
198.941
181.582
222.639
210.218
199.461
122.347
169.633
127.177
162.308
125.277
190.199
137.583
169.102
124.262
169.723
127.83
164.898
126.73
184.468
133.68
171.433
48.5502
166.659
233.988
254.363
233
253.468
205.954
211.674
204.653
208.838
247.203
313.948
247.926
311.933
257.398
329.195
264.339
319.01
249.673
309.33
244.51
314.759
258.664
323.163
259.334
320.17
174.877
227.542
166.317
232.309
164.808
235.593
159.944
226.596
175.215
227.282
166.089
233.371
164.726
233.014
158.906
226.613
34.0601
4.66736
80.2374
76.4922
80.9856
75.6964
196.386
207.069
159.546
204.753
178.017
178.052
235.193
217.242
210.936
186.581
196.356
200.109
154.746
204.977
173.125
173.91
233.116
211.682
211.748
181.81
2.01267
135.023
196.737
139.657
190.053
137.101
191.567
133.567
190.15
135.177
187.696
137
191.903
114.362
168.909
121.945
153.932
114.433
159.127
117.438
153.648
52.0025
194.086
326.081
362.36
326.401
362.638
273.715
319.581
271.349
317.082
247.422
319.094
256.776
307.827
256.073
369.541
300.795
320.223
247.686
314.185
252.509
307.791
254.01
356.204
290.497
319.788
180.238
262.284
172.454
274.571
181.315
281.335
185.022
274.152
179.86
259.734
171.162
274.323
180.896
277.341
183.343
273.798
29.3156
125.045
130.63
125.256
131.546
9.47494
156.025
154.314
155.092
154.006
187.078
203.73
129.432
136.708
208.016
141.066
224.873
184.213
222.708
149.645
185.482
199.656
125.194
133.321
204.707
137.254
217.134
179.618
221.251
146.587
2.4647
118.898
172.342
122.069
169.604
123.139
184.079
117.07
163.854
118.144
166.178
122.502
184.225
51.2196
203.78
367.629
379.043
463.228
379.217
463.006
339.925
328.23
264.338
366.296
282.308
255.128
493.092
370.248
405.884
304.888
316.721
334.339
260.265
361.119
277.202
249.949
485.699
366.14
401.27
300.838
178.958
261.054
181.469
242.346
191.851
256.267
177.405
256.607
179.68
238.281
188.97
249.246
179.247
274.937
186.866
259.953
179.37
273.516
186.594
260.403
35.0253
129.925
152.797
130.584
152.81
196.885
206.079
197.937
206.702
6.09744
192.901
248.629
174.005
259.823
203.36
277.085
226.393
272.248
192.093
248.508
172.202
259.071
203.582
278.957
224.319
271.954
186.345
126.23
236.242
151.574
234.539
147.117
183.097
123.42
237.696
149.832
234.7
145.184
1.72839
49.0583
172.789
394.007
729.531
803.294
728.689
803.039
453.02
578.678
453.088
576.988
291.388
329.869
224.823
197.223
363.336
245.409
506.458
334.062
428.919
279.701
282.649
324.94
194.285
223.457
358.931
244.391
500.981
332.619
425.317
278.822
185.816
271.287
190.702
250.019
178.405
248.868
185.43
269.002
190.324
246
177.381
243.589
108.162
20.2484
200.962
208.594
202.011
208.638
351.354
270.868
222.966
363.347
240.581
199.715
394.369
281.637
381.182
255.461
365.217
272.106
226.721
376.648
243.573
198.774
404.012
282.749
392.888
258.288
4.12443
172.91
264.407
165.587
273.415
182.212
285.831
172.16
262.342
164.873
270.643
181.823
284.4
1.24479
46.8704
140.97
290.165
858.85
844.946
858.737
845.063
926.196
980.064
925.523
978.937
470.098
643.489
421.726
719.581
551.019
968.725
655.559
854.525
471.495
642.26
421.138
721.866
554.949
959.777
648.933
860.82
306.439
212.198
553.469
352.478
505.398
327.551
301.128
212.081
551.386
352.834
503.315
328.579
62.666
298.266
301.301
298.329
301.438
10.8543
294.84
292.01