/*--------------------------------*- C++ -*----------------------------------*\
| =========                 |                                                 |
| \\      /  F ield         | OpenFOAM: The Open Source CFD Toolbox           |
|  \\    /   O peration     | Version:  5.x                                   |
|   \\  /    A nd           | Web:      www.OpenFOAM.org                      |
|    \\/     M anipulation  |                                                 |
\*---------------------------------------------------------------------------*/
FoamFile
{
    version     2.0;
    format      ascii;
    class       volScalarField;
    location    "2.4";
    object      p;
}
// * * * * * * * * * * * * * * * * * * * * * * * * * * * * * * * * * * * * * //

dimensions      [1 -1 -2 0 0 0 0];

internalField   nonuniform List<scalar> 
12160
(
5245.77
5296.51
4591.2
5319.29
4641.97
3936.89
5358.64
4664.77
3987.07
3281.21
5396.72
4704.14
4009.75
3331.43
2626.6
5436.61
4742.22
4049.09
3354.14
2675.56
1970.22
5478.57
4782.1
4087.08
3393.51
2698.11
2018.83
1314.95
5522.21
4824.08
4127
3431.42
2737.39
2041.44
1361.82
658.353
5567.11
4867.77
4169.01
3471.36
2775.17
2080.72
1384.38
706.525
169.504
5612.63
4912.8
4212.81
3513.42
2815.15
2118.36
1423.37
728.511
194.296
1.35303
5657.71
4958.56
4258.11
3557.35
2857.25
2158.42
1460.88
766.663
205.635
2.32746
-6.57671
5702.34
5003.98
4304.39
3603.03
2901.32
2200.52
1500.95
804.3
227.776
2.85075
-6.70111
-7.46287
5739.5
5049.27
4350.47
3650.07
2947.48
2244.68
1542.96
844.844
252.613
6.69372
-6.76314
-7.48726
-8.18472
5770.04
5086.86
4397.14
3697.15
2995.57
2291.37
1587.06
887.09
281.085
12.6819
-6.7764
-7.49996
-8.21445
-8.79503
5792.66
5117.79
4435.6
3745.91
3044.11
2340.84
1634.2
931.197
311.534
20.7453
-6.75765
-7.50138
-8.16656
-8.79405
-9.49927
5806.82
5140.62
4467.37
3785.72
3095.36
2392.33
1685.19
978.672
343.63
30.1322
-6.70622
-7.48918
-8.13486
-8.80858
-9.52168
5812.9
5154.79
4490.73
3818.8
3137.11
2444.76
1739.65
1030.91
379.514
40.4241
-6.51602
-7.48906
-8.12969
-8.81895
-9.49394
5811.77
5160.67
4505.1
3842.88
3172.06
2490.39
1794.71
1088.17
421.84
52.9325
-6.17671
-7.50385
-8.1325
-8.81926
-9.4726
5804.63
5159.43
4510.91
3857.26
3197.34
2528.13
1844.26
1147.1
472.286
69.4862
-5.49682
-7.50532
-8.15321
-8.81771
-9.46821
5792.68
5152.02
4508.98
3862.42
3212.01
2554.81
1885.13
1201.61
527.98
92.3408
-4.2311
-7.50061
-8.15765
-8.82365
-9.47
5776.94
5139.8
4500.92
3860.04
3216.79
2569.35
1913.57
1246.71
582.028
121.115
-2.05475
-7.47361
-8.15863
-8.82383
-9.4753
5758.04
5123.81
4488.07
3851.07
3213.25
2572.81
1928.47
1277.41
627.224
152.615
1.51971
-7.46751
-8.1478
-8.8196
-9.47731
5736.24
5104.7
4471.56
3837.34
3202.77
2567.97
1931.21
1292.19
657.452
181.048
6.61293
-7.42201
-8.16506
-8.80751
-9.48004
5712.05
5082.71
4452.02
3820.06
3187.68
2555.57
1925.41
1292.21
670.979
200.608
12.2386
-7.33457
-8.20821
-8.80734
-9.482
5685.88
5058.34
4429.66
3799.88
3169.31
2538.82
1909.72
1279.89
669.101
209.037
16.6099
-7.1627
-8.24037
-8.81139
-9.48933
5658.16
5032
4404.94
3776.98
3148.26
2519.08
1890.55
1264.3
656.021
207.003
18.6074
-6.95926
-8.26045
-8.84174
-9.50469
5629.53
5004.11
4378.25
3751.72
3124.68
2496.97
1869.11
1243.01
638.103
197.534
18.2012
-6.83811
-8.27285
-8.87697
-9.50534
5600.68
4975.33
4350.02
3724.51
3098.71
2472.66
1845.94
1220.07
617.797
184.848
16.1491
-6.83125
-8.27027
-8.88814
-9.50081
5572.21
4946.36
4320.94
3695.78
3070.8
2445.78
1820.65
1195.41
596.05
172.382
13.1294
-6.88444
-8.26051
-8.88727
-9.50283
5544.58
4917.8
4291.72
3666.22
3041.36
2416.96
1792.73
1168.89
573.106
160.118
9.56758
-6.9535
-8.25695
-8.8774
-9.50267
5518.13
4890.11
4262.99
3636.62
3011.15
2386.6
1762.86
1140.03
549.126
147.888
6.69842
-6.9857
-8.24571
-8.86354
-9.50256
5493.07
4863.61
4235.22
3607.65
2981.06
2355.52
1731.4
1109.19
523.313
135.634
4.41494
-7.02137
-8.22247
-8.85316
-9.50337
5469.57
4838.46
4208.67
3579.75
2951.8
2324.79
1699.21
1076.64
496.153
122.804
2.53864
-7.06684
-8.21231
-8.85604
-9.50416
5447.59
4814.83
4183.51
3553.09
2923.81
2295.27
1667.4
1043.46
467.966
109.367
0.9938
-7.12503
-8.20586
-8.86083
-9.49752
5427.45
4792.9
4159.81
3527.69
2897.16
2267.23
1637.38
1010.99
439.752
96.2233
-0.255312
-7.18295
-8.20305
-8.86397
-9.49561
5409.18
4772.7
4137.62
3503.67
2871.76
2240.52
1609.74
980.724
412.902
83.3822
-1.34283
-7.2303
-8.1968
-8.86205
-9.49821
5392.56
4754.35
4117.26
3481.34
2847.53
2214.79
1583.67
953.684
388.473
71.4155
-2.29233
-7.29124
-8.19406
-8.85814
-9.50548
5377.47
4737.72
4098.8
3460.8
2824.61
2189.99
1558.09
928.362
367.692
60.8234
-3.1152
-7.34954
-8.1963
-8.85579
-9.5102
5363.75
4722.66
4082.16
3442.23
2803.64
2166.64
1532.62
903.024
348.937
52.1752
-3.84469
-7.40491
-8.19791
-8.85597
-9.50954
5351.15
4708.98
4067.14
3425.58
2784.86
2145.22
1507.89
877.274
330.496
45.1761
-4.43917
-7.45179
-8.20087
-8.85176
-9.50599
4696.45
5331.97
4053.56
3410.65
2768.21
2126.2
1485.59
852.383
311.81
39.0888
-4.87713
-7.4927
-8.20339
-8.83948
-9.50386
4041.15
4677.4
5308.54
3397.23
2753.42
2109.59
1466.35
830.278
294.531
33.9019
-5.21006
-7.52037
-8.20037
-8.82599
-9.50568
3385
4022.37
4654.19
5288.66
2740.22
2095.02
1449.93
811.92
281.428
30.3568
-5.44073
-7.52756
-8.19398
-8.82702
-9.50741
2728.25
3366.64
3999.56
4634.6
5268.38
2082.13
1435.79
796.747
271.62
28.4141
-5.54744
-7.54242
-8.18561
-8.83113
-9.50074
2070.5
2710.41
3344.49
3980.49
4614.36
5248.94
1423.45
783.85
263.85
27.409
-5.60613
-7.54949
-8.17546
-8.8339
-9.49384
1412.39
2053.38
2689.11
3326.11
3960.84
4595.56
5228.57
772.632
257.107
26.5863
-5.6719
-7.52633
-8.16795
-8.83837
-9.48759
762.622
1396.1
2033.11
2671.58
3307.31
3943.14
4574.22
5205.25
251.082
25.7185
-5.74721
-7.50002
-8.16147
-8.83689
-9.48147
245.57
747.865
1377.15
2016.43
2654.29
3290.39
3921.37
4551.23
5173.04
24.812
-5.82166
-7.48301
-8.15438
-8.82857
-9.4785
23.8782
237.485
731.566
1361.46
2000.63
2639.03
3268.47
3896.49
4513.16
5163.06
-5.88834
-7.47222
-8.14692
-8.82133
-9.47813
-5.94023
22.4024
229.771
717.77
1348.05
1987.19
2618.2
3242.28
3853.88
4498.91
5083.29
-7.46438
-8.1395
-8.81536
-9.47714
-7.45356
-5.97805
21.6086
222.968
708.547
1337.06
1968.28
2590.26
3192.88
3829.23
4415.65
5234.73
-8.13218
-8.80936
-9.47636
-8.12186
-7.42367
-5.86656
21.1293
221.235
702.182
1320.95
1940.52
2532.47
3131.54
3756.55
4541.27
4665.39
5461.42
-8.80309
-9.47549
-8.79532
-8.09784
-7.34872
-5.55447
22.8594
221.764
692.876
1294.91
1879.71
2433.2
3052.54
3827.13
4115.22
4332.24
5063.85
5661.12
-9.47399
-9.47147
-8.77855
-8.0408
-7.18303
-4.80438
25.8428
220.062
675.949
1240.72
1769.48
2344.76
3086.16
3522.34
3925.35
4086.63
4712.96
5388.45
5933.65
-9.46534
-8.74166
-7.92422
-7.06775
-3.27034
26.9595
212.134
642.638
1139.38
1669.06
2319.33
2930.94
3473.91
3693.42
3873.93
4450.86
5087.32
5730.73
6294.71
-9.45154
-8.68368
-7.99675
-6.7452
-2.40225
25.846
209.098
533.78
1051.64
1661.87
2356.43
2974.72
3272.7
3506
3690.8
4196.64
4779.98
5424.57
6103.74
6782.08
-9.4329
-8.77716
-8.22048
-6.45927
-3.35789
26.926
132.844
478.683
1120.08
1826.3
2454.89
2845.51
3097.37
3354.4
3521.55
3961.22
4467.04
5062.71
5781.44
6585.91
7437.61
-9.48125
-9.08804
-8.23774
-6.96741
-4.41319
10.5795
85.6627
582.793
1292.3
1939.59
2404.92
2691.55
2954.49
3214.87
2648.5
3751.01
2653.83
2568.6
2572.46
4173.59
4678.69
5338.52
6202.22
7209.19
8281.01
-9.6521
-9.2313
-8.15645
-7.22819
-5.46702
-1.15106
153.443
752.458
1426.39
1966.09
2287.82
2546.48
2858.15
3090.28
2721.19
2609.62
3881.59
2727
2794.8
2799.44
2611.79
2487.7
2488.38
4280.04
4839.85
5652.89
6758.51
8022.37
9305.61
-9.81972
-8.999
-8.05268
-7.14835
-6.05431
-2.80834
241.702
900.069
1500.49
1898.48
2151.27
2433.28
2745.08
2400.17
2397.94
2263.53
2265.27
2680.43
2603.08
3860.24
3704.85
2682.47
2740.8
2743.38
2593.61
2520.19
2510.37
4297.62
5015.59
6091.49
7507.49
9030.16
10518.9
-9.67402
-8.81637
-7.90897
-6.9409
-6.43247
1.44121
317.575
984.924
1491.42
1775.69
2026.7
2333.52
2117.23
2118.15
1969.68
1970.24
2347.27
2344.23
2252.21
2247.01
2669.34
2285.79
2169.36
2322.47
2128.04
3753.76
3596.54
2742.08
2743.8
2766.98
2764.23
2659.41
2718.12
2709.59
2283.11
2170.25
2318.66
2127.4
2262.9
2036.67
2254.99
2085.24
2259.15
2036.16
2250.65
2081.77
4297.99
5297.56
6734.55
8469.49
10233.1
11888
-9.57487
-8.67251
-7.8302
-6.95826
-6.38008
13.3471
397.927
995.749
1366.66
1627.46
1917.11
1797.12
1797.73
1646.34
1646.45
2108.49
2101.48
1957.51
1948.46
2022.61
2065.16
2103.54
1933.65
2061.79
2168.79
2063.79
2027.96
2104.91
1935.72
2062.02
2168.13
1830.33
1962.36
1879.61
2016.16
1831.35
1962.04
1881.5
2016.15
2369.79
2209.14
2361.41
2215.57
2240.46
2232.03
2268.86
2198.49
3612.17
3398.78
2596.99
2598.63
2677.95
2679.82
2727.87
2721.84
2740.15
2736
2365.98
2205.7
2356.36
2210.76
2417.92
2212.99
2446.68
2234.6
2414.91
2215.69
2442.47
2232.71
2239.58
2234.29
2268.91
2198.72
2212.81
2145.49
2211.15
2143.15
4385.2
5819.64
7631.31
9652.61
11602.3
13344
-9.48922
-8.62567
-7.91435
-7.1572
-6.68552
41.2713
395.042
875.803
1210.06
1500.72
1471.95
1471.98
1307.04
1307.72
1791.45
1782.92
1629.58
1621.35
1760.54
1887.45
1690.09
1817.12
1761.24
1887.22
1694.2
1817.42
1555.19
1679.84
1626.57
1753.34
1561.43
1680.39
1631.49
1754.07
2091.72
2003.78
2092.71
2151.87
1965.46
2026.41
2096.69
2010.7
2153.63
2094.66
1968.9
2027.6
1883.97
1935.92
1925.09
1977.12
1887.55
1937.07
1928.06
1978.29
2328.17
2266.77
2304.54
2288.84
2260.15
2223.15
2275.13
2205.31
3521.94
3117.68
2381.06
2382.32
2495.66
2496.57
2595.69
2583.78
2674.57
2665.61
2265.22
2422.12
2268.67
2426.83
2270.31
2423.01
2273.1
2427.9
2281.26
2264.74
2396.18
2273.7
2421.53
2389.38
2285.17
2265.66
2397.21
2276.5
2422.31
2389.6
2328.34
2269.42
2304.63
2291.76
2357.34
2287.9
2357.58
2289.78
2257.22
2224.04
2275.46
2197.42
2203.06
2137.09
2202.1
2135.48
4768.91
6633.94
8781.6
11019
13068
14806.3
-9.45147
-8.65072
-7.92752
-7.14611
-7.27182
37.8237
314.95
716.559
1047.25
1141.75
1142.12
973.564
973.191
1452.19
1447.85
1273.71
1272.97
1484.79
1605.73
1417.18
1542.38
1487.56
1605.37
1421.4
1541.73
1252.45
1431.47
1351.75
1480.85
1253.19
1429.56
1353.1
1479.43
1811.48
1856.74
1745.8
1786.32
1815.8
1858.12
1750.26
1787.86
1609.04
1640.43
1674.37
1709.39
1614.72
1642.32
1677.05
1710.7
2341.9
2262.16
2305.45
2303.47
3734.4
2810.27
2115.25
2117.32
2246.74
2247.7
2386.93
2375.04
2498.78
2485.85
2140.25
2304.54
2170.28
2325.93
2149.06
2305.24
2178.31
2326.93
2244.61
2391.71
2207.6
2362.87
2249.99
2392.82
2217.7
2364.42
2342.52
2389.6
2335.75
2385.42
2350.6
2392.29
2342.51
2387.86
2280.06
2323.94
2403.45
2352.29
2330.15
2385.46
2287.2
2328.02
2404.19
2355.25
2335.21
2387.07
2340.48
2261.28
2304.76
2300.02
2350.37
2293.63
2350.53
2294.46
5524.47
7736.27
10147.8
12494.2
14544.8
16196.2
-9.45106
-8.67542
-7.97403
-7.07587
-7.03753
13.8318
229.056
532.631
860.246
1096.92
1096.63
900.762
900.456
1417.91
1415.92
1260.78
1257.77
1540.61
1573.02
1468.18
1504.34
1543.73
1574.34
1471.06
1505.36
1286.72
1374.07
1392.3
1435.31
1287.3
1374.03
1393.84
1435.82
1589.86
1634.41
1597.25
1636.58
4478.63
2899.5
1977.84
1980.34
1987.06
1988.67
2125.57
2122.79
2253.04
2244.95
1935.85
2200.35
2038.13
2211.06
1937.58
2197.89
2041.87
2210.04
2121.54
2285.21
2078.31
2245.45
2125.82
2284.82
2085.38
2245.22
2278.01
2313.83
2304.51
2338.67
2286.24
2316.67
2308.51
2340.94
2325.51
2375.43
2315.21
2355.31
2332.75
2377.95
2321.93
2358.08
6617.83
9096.49
11619.1
13987
15941.1
17477.3
-9.45461
-8.67328
-8.01102
-7.02025
-6.26726
-0.0591421
139.939
359.535
681.106
681.884
477.094
477.913
1093.59
1088.76
885.561
886.606
1248.53
1242.11
1310.46
1160.09
1247.76
1241.1
1310.35
1159.11
1183.32
1009.63
1105.56
1091.01
1182.11
1012.37
1104.73
1090.2
1536.32
1576.18
1466.8
1506.19
1541.37
1578.02
1469.68
1507.32
1326.39
1356.43
1388.85
1427.52
1330
1357.64
1390.73
1428.4
5646.3
3634.86
2547.4
1985.32
1984.13
1992.62
1989.32
2253.99
2247.58
2348.32
2341.73
2047.26
2213.57
2148.09
2218.08
2048.89
2213.51
2150.72
2218.86
2235.1
2270.91
2195.08
2236.76
2239.45
2272.82
2198.83
2238.09
2291.75
2336.58
2301.36
2339.53
8008.94
10566.7
13132.7
15395.3
17220.2
18318.3
-9.45682
-8.64836
-7.92247
-6.94662
-5.70969
-3.41649
58.009
253.001
669.658
666.437
431.091
429.674
932.741
1027.78
974.07
839.623
935.209
1026.98
972.506
840.827
890.601
886.581
1228.51
1274.04
1298.77
1212.19
1228.37
1276.14
1299.24
1211.41
1160.4
1055.75
1080.72
1141.37
1160.1
1056.37
1080.79
1141.04
1322.17
1356.4
1328.3
1358.07
7101.06
4973.56
3329.89
2389.85
2387.33
2226.04
2220.51
2133.86
2129.86
2177.73
2165.36
2175.68
1985.02
2138.91
2033.96
2175.2
1995.87
2140.44
2034.71
2210.51
2100.78
2208.28
2075.17
2209.25
2097.7
2207.45
2072.29
2172.33
2240.43
2215.45
2273.73
2174.65
2240.81
2216.2
2274.28
2260.85
2305.22
2236.02
2287.73
2267.19
2307.5
2239.99
2289.12
9531.25
12067.3
14573
16690.5
18097.9
-9.45252
-8.59621
-7.72446
-6.85019
-5.73453
-1.78155
25.8033
245.97
245.531
115.963
115.98
600.664
664.966
481.881
565.887
600.545
664.303
483.278
565.141
430.383
429.26
970.323
1001.02
928.935
859.971
971.779
1001.5
928.544
860.788
702.897
767.052
792.954
843.342
704.211
766.351
793.57
842.884
1146.54
1058.82
1082.46
1124.45
1147.33
1061.77
1083.11
1128.37
8743.6
6579.29
4823.93
3800.15
2667.39
2658.99
2491.75
2480.82
2458.98
2447.91
1959.83
2122.67
2208.46
1923.53
1963.5
2122.2
2203.94
1917.59
2273.73
2190.47
2232.36
2234.96
2274.37
2195.43
2234.2
2237.04
2277.01
2213.94
2254.4
2240.91
2276.55
2213.86
2254.24
2238.74
2222.22
2281.35
2225.17
2281.63
11020.8
13545.3
15889.5
17580.4
-9.4167
-8.52916
-7.56219
-6.62568
-5.89309
0.609303
42.0767
42.0958
29.0943
29.1171
254.215
253.618
110.116
109.68
624.798
647.77
497.875
542.909
625.162
647.856
497.961
542.91
446.192
311.223
360.075
413.885
446.19
313.129
360.025
414.132
985.803
1009.45
924.732
899.34
987.176
1009.94
925.193
900.686
741.324
763.448
822.865
841.937
743.157
763.736
823.304
842.144
10289.1
8416.85
6580.41
5422.16
3909.12
3910.47
3419.61
3416.56
3118.96
3118.93
2361.41
2514.54
2350.19
2655.21
2365.48
2516.17
2358.53
2656.81
2340.92
2487.56
2335.53
2453.75
2083.07
2304.69
2354.5
2490.19
2344.43
2456.08
2086.93
2304.77
2154.65
2237.27
2158.51
2238.82
2341.97
2301.69
2346.5
2296.97
2343.21
2311.66
2349.35
2302.13
12489.7
14863.4
16821.6
-9.37154
-8.4497
-7.47447
-6.15949
-4.04976
9.84168
74.3345
74.2108
37.053
36.9842
267.905
344.216
292.076
185.493
208.895
373.144
345.043
268.468
373.395
292.137
186.307
208.921
101.794
114.824
138.956
154.007
102.073
114.661
139.301
154.001
630.732
650.977
528.746
549.004
631.363
651.199
529.264
549.355
459.145
436.436
459.257
436.729
927.113
899.595
927.603
901.065
730.658
755.401
733.254
756.034
11748.9
10080.1
8505.88
7233.5
5206.12
5209.48
4480.8
4478.43
4513.89
4508.11
4066.18
4066.32
3172.21
3003.31
3425.59
2987.77
2859.99
2551.3
3177.29
3025.03
3430.88
2999.92
2862.43
2559.18
2603.39
2717.08
2610.01
2719.53
2604.35
2676.52
2543.93
2349.34
2611.89
2434.75
2615.03
2679.54
2549.78
2360.43
2614.09
2437.87
2321.77
2383.17
2331.55
2386.45
13799.6
15845.5
-9.33947
-8.38275
-7.31173
-5.98976
-2.43707
40.573
40.651
17.9502
18.068
87.7532
87.6242
73.487
73.5159
346.522
251.222
272.466
361.895
187.333
191.414
347.53
251.515
362.171
272.551
187.457
191.448
137.901
149.434
172.922
184.152
138.138
149.445
173.08
184.256
524.866
551.877
525.751
552.172
13048.3
11570.3
10273.4
9102.68
8383.39
5650.32
5646.25
5053.22
5037.8
4160.53
4729.11
4047.27
4340.53
4184.53
4732.99
4063.61
4345.99
3687.24
3297.93
3897.97
3868.05
4110.29
3615.8
3699.87
3310.52
3902.77
3890.4
4116.7
3619.72
3359.87
3036.33
3240.22
2938.36
3362.93
3039.93
3247.55
2947.93
2840.56
2926.24
2849.13
2929.14
2735.86
2823.63
2497.62
2565.23
2747.88
2826.46
2507.24
2568.43
14784.1
-9.32498
-8.40769
-7.79447
-5.71636
9.04845
71.1857
71.2166
34.1664
34.3059
134.439
134.986
145.699
115.997
134.285
134.985
145.673
115.949
117.038
116.954
172.04
176.694
199.495
201.389
172.519
176.85
199.831
201.532
14085.9
12862.7
11827.6
10842.5
10111.2
7497.05
7511.91
6727.11
6727.78
6118.24
6119.1
5606.95
5598.76
4494.39
4860.17
4430.16
4516.15
4508.54
4863.99
4438.5
4519.81
3584.12
3980.38
3721.88
4076.58
4224.47
4286.93
3599.6
3989.58
4079.6
3727.04
4232.22
4290.31
3218.47
3131.89
3222.34
3142.71
-9.3549
-8.84592
-8.94186
-3.93636
18.985
19.2005
8.73839
8.83117
104.235
104.219
55.6879
56.0506
146.188
155.948
160.76
133.456
146.251
156.243
160.901
133.581
108.193
128.351
133.519
150.144
109.222
128.32
133.771
150.285
186.798
190.135
187.466
190.402
13935.5
13127.3
12417.2
11674.9
11221.2
7829.81
7830.72
7317.36
7306.21
6771.28
6754.08
5765.35
4975.18
5286.22
5139.57
5762.32
4975.95
5287.18
5136.41
4861.23
4960.45
4663.27
4721.88
4876.4
4965.09
4671.38
4725.16
-9.45146
-9.74018
-9.86857
-4.54005
28.43
28.6511
8.26514
8.36017
124.934
141.027
102.952
107.479
125.21
83.6872
125.399
141.098
102.895
107.597
125.208
83.8764
64.4946
64.5943
165.918
164.871
172.864
151.704
166.073
165.253
173.081
151.77
144.177
157.156
144.449
157.351
14220.8
13715.8
12914.5
12388.1
9435.24
9449.75
8748.76
8750.26
8131.28
8147.56
7812.24
7797.67
5934.16
6665.91
5812.13
6171.97
5378.47
5815.5
5978.5
6672.34
5838.96
6180.8
5382.37
5817.3
5335.24
5434.61
5344.36
5437.83
5112.28
5169.74
5127.25
5173.91
-9.93399
-10.2952
-8.07752
6.14976
6.23138
-0.92158
-1.0323
30.4294
30.7604
13.9357
14.2204
131.989
144.825
106.512
109.179
125.389
90.2832
132.303
144.912
106.51
109.129
125.448
90.3548
36.8054
42.7963
64.2108
78.8962
37.2919
42.9349
64.3885
78.9414
14747.5
14089.4
13169.8
13024
9601.07
9598.8
9203.11
9186.28
8757.43
8747.62
6147.76
6653.64
7582.99
6607.44
7074.83
6797.07
7578.52
6615.59
7077.58
6792.68
6174.98
6662.06
6083.28
5685.8
6268.32
5849.1
6103.79
5709.61
6275.65
5856.83
5521.23
5623.09
5539.49
5628.67
-10.03
-10.5963
-4.48182
11.5543
11.7087
2.02849
1.96899
38.5995
43.7169
26.8988
28.3745
31.0666
23.3669
38.9166
43.8226
27.0212
28.6425
31.1652
23.5682
21.7828
21.9218
105.441
88.4724
105.39
88.5419
57.8834
70.6025
58.1804
70.6564
15180.7
14159.1
13363.3
10362.8
10365.2
10071.2
10065.9
9753.5
9758.54
9456.82
9449.93
7480.09
8310.52
7397.55
7876.69
6947.06
7457.31
7508.94
6951.91
7459.56
8313.73
7423.68
7884.36
6501.14
6741.73
6894.98
7133.72
6900.95
6524.55
7135.35
6748.46
-10.4804
-8.68747
-7.76241
8.63379
8.66536
-1.30859
-1.37459
37.7945
41.7714
28.6419
31.7463
34.8455
26.2584
38.1503
41.8759
28.7484
32.0928
34.9685
26.4721
14.6752
16.9461
21.5987
24.4382
14.8656
17.0145
21.6432
24.4547
48.2977
57.2119
48.5807
57.2104
15265.2
14187.7
13858.9
10454.7
10448.4
10342.9
10324.2
9957.62
9963.85
7731.85
8236.92
8839.04
7964.21
8452.57
8023.04
7758.37
8246.08
8841.45
7967.47
8455.39
8027.25
7689.36
7285.07
7873.59
7512.12
7303.13
7517.12
7704.31
7879.89
-9.32931
-10.7514
-5.68107
-3.67405
-3.68318
-5.68862
-6.51449
-6.51195
0.969254
14.1189
14.3325
1.12335
14.2154
14.3245
36.6563
42.4707
33.1484
33.8558
38.5899
30.0755
37.084
42.5992
33.3561
34.2036
38.7278
30.3006
22.1738
23.7797
22.1471
23.8867
15168.8
14628.3
14497.4
10565.6
10561.5
10445.2
10441.1
8363.52
9215.7
8355.43
8909.29
8147.36
8655.51
8417.58
8156.62
8661.13
9221.2
8394.32
8917.86
7952.3
8134.18
8151.88
8336.55
7980.75
8142.57
8177.46
8343.45
7816.88
7943.98
7844.41
7954.11
-12.1954
-8.66146
-5.19124
-5.39806
-5.19305
-5.3941
-6.13535
-6.13181
-2.21718
5.22025
3.38699
11.3997
10.8206
-2.87798
-3.57732
-3.94652
5.32838
-2.15677
3.36422
11.3997
10.6617
-2.8688
-3.56981
-3.93666
31.9676
28.5037
32.1921
28.6387
19.6225
20.149
19.6346
20.4092
15413
15112.5
11371.3
10672.1
10652
11391.1
11019.5
11021.3
10380.8
8471.18
9047
10387.1
8516.65
9058.39
8328.5
8528.67
8530.61
8779.46
8360.03
8540.1
8559.12
8788.02
8030.29
8154.28
8245.28
8391.24
8065.53
8162.48
8278.49
8400.03
-9.79551
-8.69224
-5.10955
-4.1623
-3.84474
-5.53033
-5.10175
-4.17367
-3.87536
-5.51209
-6.03891
-6.03394
-0.16626
-3.59279
11.7687
11.4142
-1.29619
-3.9407
0.0241012
11.7149
-3.61544
11.3387
-1.09113
-3.94625
28.8901
24.7418
28.9634
24.8845
15795.1
15539.2
11557.8
10669.3
10660.3
11551.2
11221.2
11203.6
8706.87
8498.7
8965.21
8467.91
8965.77
9362.58
8483.56
9268.08
8723.56
8538.93
8974.88
8514.08
8975.92
9371.69
8520.54
9279.52
8383.99
8564.55
8547.05
8800.09
8405.58
8554.61
8594.36
8808.22
-10.2212
-6.29864
-5.98157
-5.96749
-6.30058
-6.76288
-6.77567
-4.32173
-4.26515
-4.00103
-4.27697
-3.98
-4.78877
-4.06635
-4.52858
-5.4802
-4.31142
-4.65106
-4.32674
-4.27076
-4.01214
-4.2815
-3.99176
-4.78772
-4.08231
-4.53223
-5.46628
-4.319
-4.65377
-2.92855
-3.85529
-3.20025
-4.13706
-2.92167
-3.8686
-3.04568
-4.14484
16212.2
15839
11635.4
10708
9384.31
8794.56
10703.7
9388.68
8803.89
11616.7
11198.5
11168.6
8718.45
8950.88
8557.87
9008.07
8839.23
9380.41
8739.66
8947.84
8591.66
8847.63
9012.21
9380.41
8443.13
8639.72
8469.74
8647.86
-9.55246
-5.92882
-6.25475
-5.91338
-6.25776
-6.66601
-6.68008
-3.79044
-4.01827
-4.29732
-4.13281
-4.03428
-4.39749
-4.44848
-4.29301
-4.51303
-4.29189
-4.56565
-4.84541
-4.65707
-5.07971
-3.80638
-4.03359
-4.14036
-4.30321
-4.05149
-4.40249
-4.29718
-4.43724
-4.51614
-4.30733
-4.57066
-4.84047
-4.64712
-5.07123
16558
12274.7
11674.5
11641.4
12312.5
11999.1
11995.3
8806.75
9328.81
8780.23
9336.09
8789.63
9522.28
8950.43
9620.92
8858.17
9337.04
8795.12
9341.28
8799.62
9547.01
8976.64
9628.64
11107.2
9016.69
9651.81
11102.4
9068.98
9679.55
8852.39
8965.59
9154.48
9395.92
8856.91
8954.56
9152.11
9393.16
-9.50206
-5.90232
-4.98668
-4.68073
-6.23542
-5.8796
-4.97782
-4.66513
-6.23876
-6.62264
-6.63958
-3.97623
-4.29637
-4.07634
-4.38628
-4.2232
-4.40321
-4.09093
-4.3749
-4.42571
-4.71942
-3.99328
-4.30223
-4.08317
-4.38801
-4.23165
-4.09459
-4.38882
-4.37756
-4.42883
-4.71421
16777.9
12348.3
11644.7
11607.2
12374.5
12055.8
12041.7
8891.03
8972.47
9331.91
9317.27
9150.58
9678.11
8899.98
8995.61
9334.75
9325.77
9175.74
9688.99
9345
9082.59
9628.79
8985.8
9565.68
9970.78
9277.72
9944.13
9351.35
9114.19
9641.84
9050.6
9591.33
9966.16
9289.36
9943.93
-9.45057
-6.58035
-6.59693
-5.85378
-4.94841
-4.70128
-4.94167
-4.69422
-6.19921
-5.83878
-4.93937
-4.68453
-4.93301
-4.67817
-6.20317
-4.08222
-4.18474
-4.4283
-4.3429
-4.40982
-4.69171
-4.09398
-4.18661
-4.42076
-4.34592
-4.41093
-4.68795
16983.3
12342.3
11760.1
10088
9480.69
11706.3
10082.7
9465.77
12370
12096
12087.3
9063.04
9430.2
9145.21
9620.68
9089.5
9439.95
9161.82
9629.56
9342.49
9556.84
9173.64
9678.5
9615.14
10060.2
9363.23
9526.29
9177.18
9619.69
9683.29
10048.5
-9.45513
-6.57461
-6.58625
-6.59337
-6.60581
-5.81514
-4.91262
-4.68817
-4.94575
-4.64856
-4.42438
-4.67596
-6.19253
-5.79837
-4.90926
-4.68436
-4.94029
-4.64802
-4.42074
-4.67346
-6.19696
-4.18691
-4.43481
-4.19314
-4.43693
17037.3
12348.1
12372.7
11768.1
9972.72
9546.78
10045.2
9496.98
11726.1
9966.16
9537
10039.4
9482.73
12108.3
12098
9407.75
9271.97
9613.86
9748.1
9624.34
10054.8
9427.48
9295.54
9589.4
9631.82
9744.9
10044
-9.47219
-6.59719
-6.60792
-6.61533
-6.62637
-6.20686
-6.21221
-5.80904
-4.88085
-4.57153
-4.86991
-4.60719
-4.64195
-4.40943
-4.67185
-4.36838
-4.21933
-4.45472
-5.79623
-4.87742
-4.57348
-4.86669
-4.60684
-4.64352
-4.41453
-4.67242
-4.37783
-4.23509
-4.45924
17034.1
12342.6
12331.1
12372.9
12363.7
11779
10040.6
9525.13
10042.8
9548.36
9653.03
10125
11733.3
10036.1
9532.53
10039.9
9541.7
9646.97
10121.7
12113.8
12103.3
9413.15
9746.36
9419.45
9737.18
-9.46297
-6.6428
-6.69464
-6.6581
-6.70836
-6.21564
-6.23712
-6.22149
-6.23976
-5.83813
-5.82652
-4.93904
-4.55124
-4.88785
-4.60459
-4.62744
-4.30854
-4.63838
-4.32722
-4.4857
-4.25964
-4.48258
-4.24033
-4.93593
-4.55747
-4.88501
-4.60687
-4.62699
-4.31742
-4.63888
-4.33037
-4.4902
-4.27706
-4.48736
-4.25609
17068
12305.3
12325.2
12336.3
12349.7
12086.3
12083
11780.1
10061.2
9496.89
10033.3
9550.59
10139.3
9634.43
10119.8
9640.32
9551.33
9959.76
11737.5
10060
9504.3
10034
9546.26
10136.6
9638.21
10118.6
9642.63
9574.28
9960.21
-9.50123
-6.77586
-6.80739
-6.78524
-6.82082
-6.26267
-6.3225
-6.26591
-6.3219
-5.85287
-5.87583
-5.84232
-5.86138
-4.95502
-4.62177
-4.95852
-4.62408
-4.94953
-4.61998
-4.95272
-4.62263
-4.72758
-4.32157
-4.67381
-4.29218
-4.72779
-4.32882
-4.67366
-4.30009
16898.7
12335.7
12360.2
12357.1
12380.6
12053.2
12048.9
12052.6
12045
11787.9
11749.8
10046.6
9500.78
10053.3
9508.99
10152.9
9613.99
10124
9645.12
9995.71
9513.67
9961.85
9516.39
10042.7
9510.52
10050.9
9505.05
10147.3
9617.92
10124.7
9634.48
9994.84
9534.97
9963.69
9530.55
-8.75354
-9.51664
-6.35317
-6.43123
-6.35066
-6.43335
-5.91806
-6.00028
-5.9021
-5.97936
-4.97209
-4.63115
-4.96431
-4.64853
-4.96963
-4.66374
-4.97134
-4.65309
-4.96531
-4.62861
-4.95837
-4.64338
-4.96329
-4.65775
-4.96503
-4.64612
-4.75565
-4.36727
-4.74692
-4.35204
-4.75521
-4.36696
-4.74498
-4.35631
16943.3
12372.7
12331.1
12392
12351.2
12050.8
12066.6
12042.7
12055.9
11718.8
11660
11686.3
11629.6
10049.7
9508.25
10061.4
9516.54
10039.6
9494.69
10049.5
9504.36
10113.8
9620.28
10165.9
9598.56
10111.4
9633.55
10170
9594.01
-8.77123
-6.14441
-6.23604
-6.13049
-6.22652
-9.48908
-6.08647
-6.12737
-6.05792
-6.1052
-5.01282
-4.67696
-4.97285
-4.7186
-5.04901
-4.83586
-5.10611
-4.76853
-5.00571
-4.6715
-4.96712
-4.70864
-5.04385
-4.81869
-5.0964
-4.76153
-4.77078
-4.3811
-4.75127
-4.40863
-4.78143
-4.41265
-4.76791
-4.4469
-4.76939
-4.38517
-4.75073
-4.41031
-4.77581
-4.41091
-4.76615
-4.43525
17010.8
16019.2
11956.6
11994.9
11943.8
11981.6
11620.9
11618.5
11587.8
11581.4
9973.5
9477.74
10040.4
9424.22
9915.96
9349.77
9921.61
9372.57
9964.94
9466.04
10030.5
9413.36
9916.09
9365.19
9923.73
9372.22
10144.1
9596.59
10150.2
9605.34
10141.5
9604.45
10149.6
9604.01
-8.81073
-6.29064
-6.32303
-6.28848
-6.3281
-5.75556
-5.86167
-5.74653
-5.83765
-9.48193
-5.15046
-4.87325
-5.13265
-4.87041
-5.2177
-4.92554
-5.3321
-4.85083
-5.13918
-4.84329
-5.1198
-4.84659
-5.20957
-4.91306
-5.32538
-4.83215
-4.80692
-4.43466
-4.78376
-4.47884
-4.83872
-4.57185
-4.88996
-4.52452
-4.80235
-4.43094
-4.78037
-4.47271
-4.83466
-4.56009
-4.88464
-4.51874
17315.6
15997.3
11524.4
11499.6
11486.9
11487.9
11558.4
11568.1
11516.3
11527.4
9857.53
9348.94
9875.12
9362.59
9854.34
9358.56
9856.99
9376.06
9856.79
9359.96
9876.27
9364.04
9852.19
9369.4
9855.6
9376.32
10037.5
9514.79
10068.4
9447.21
10136.3
9459.7
9978.1
9493.83
10033.5
9518.62
10066.8
9441.72
10132.8
9479.03
9983.16
9495.91
-8.14854
-8.83313
-5.85537
-5.93507
-5.84189
-5.92784
-4.54994
-4.69702
-4.81815
-4.56239
-4.86278
-5.07435
-4.6955
-5.12729
-4.58376
-4.95071
-4.55689
-4.6888
-4.82186
-4.5763
-4.86866
-5.07093
-4.69269
-5.12724
-4.59251
-4.95628
-9.47972
-4.92316
-4.61255
-4.90907
-4.63888
-4.95928
-4.59385
-4.91365
-4.59452
-4.90081
-4.61596
-4.95093
-4.57113
-4.71772
-4.39331
-4.72024
-4.3839
-4.71676
-4.40537
-4.72018
-4.38989
17158.8
16238.3
11361.3
11417.5
11365.7
11429.9
10744.4
10889.1
10729.4
10849.6
9799.03
9354.05
9831.47
9313.42
9818.39
9161.02
9841.16
9217.03
9795.5
9350.53
9828.07
9305.09
9813.54
9180.58
9847.17
9198.81
9930.2
9457.31
9931.64
9478.67
9889.53
9419.12
9850.63
9453.93
9929.59
9474.6
9936.35
9485.07
9890.14
9426.32
9851.79
9460.89
-8.16238
-5.63276
-5.7489
-5.61549
-5.7356
-8.81996
-5.56666
-5.58943
-5.55372
-5.57449
-4.47732
-4.34696
-4.71337
-4.67316
-4.34925
-4.68013
-4.4715
-4.87255
-4.33967
-4.70968
-4.48918
-4.35074
-4.71778
-4.67437
-4.35964
-4.6826
-4.46955
-4.86909
-4.34091
-4.70907
-9.46588
-4.70475
-4.40113
-4.73547
-4.43031
-4.68886
-4.42089
-4.70207
-4.3996
-4.73271
-4.4308
-4.69002
-4.42685
16310.7
16116.2
14586.1
10727.8
10630.9
10711.2
10628.3
8769.18
9073.17
9293.25
8662.07
9210.13
9588.71
8386.32
9108.43
8548.91
9184.01
9078.03
8817.98
9316.97
8721.96
9232.12
9596.35
8418.89
9115.53
8592.32
9198.95
9757.15
9372.32
9791.29
9331.16
9742.7
9246.36
9754.57
9375.45
9791.24
9320.06
9733.02
9210.58
9712.13
9322.85
9619.26
9362.38
9717.67
9351.4
9627.08
9387.25
-8.16238
-5.80519
-5.88565
-5.79754
-5.88522
-5.30693
-5.38865
-5.29794
-5.37954
-8.78567
-4.7131
-4.40252
-4.65464
-4.4156
-4.77732
-4.46297
-4.93122
-4.42353
-4.71107
-4.3954
-4.65249
-4.41315
-4.7773
-4.46897
-4.93104
-4.42841
-4.34499
-4.62231
-4.32338
-4.57203
-4.23082
-4.54305
-4.36244
-4.62812
-4.33648
-4.57728
-4.24981
-4.54799
-9.46646
15124.3
15298
14618.1
10148
10299.1
10130.8
10299.3
10152.1
10036.8
10142.5
10030.9
9021.04
8766.79
9286.79
9337.68
8620.72
9109.88
8378.75
8906.09
8530.13
9039.89
9070.6
8794.12
9353.88
9294.66
8639.44
9114.37
8391.19
8908.61
8552.93
9045.19
9518.37
9244.9
9574.78
9163.48
9499.24
9149.1
9525.95
9264.75
9580.27
9190.43
9505.26
9176.15
-7.4803
-8.09405
-5.41855
-5.4464
-5.4019
-5.44068
-4.14081
-4.18438
-4.40311
-4.20778
-4.49711
-4.62233
-4.33815
-4.81587
-4.26527
-4.59818
-4.15187
-4.18823
-4.40842
-4.2201
-4.50199
-4.62681
-4.33909
-4.81692
-4.27257
-4.60228
-8.77085
-4.51566
-4.19885
-4.5246
-4.18476
-4.49642
-4.13805
-4.51366
-4.20021
-4.52374
-4.17954
-4.49688
-4.13718
-9.47799
14015.9
14087.2
13901
10294.7
10232
10293.3
10237.4
9835.86
9943.1
9832.72
9935.94
8683.32
8302.01
8753.36
8307.01
8672.02
8083.25
8598.83
8264.09
8684.45
8306.57
8753.5
8310.05
8676.97
8112.87
8607.73
8273.8
8890.61
9304.64
8345.83
8718.79
8369.41
8802.91
8942.89
9319.3
8350.47
8717.84
8378.78
8800.76
-7.38142
-5.23888
-5.29986
-5.23752
-5.3097
-8.07793
-5.19685
-5.16569
-5.18435
-5.16017
-4.11857
-3.93349
-4.35248
-4.24583
-3.98399
-4.27112
-4.03198
-4.49843
-4.00726
-4.33359
-4.14732
-3.95973
-4.36158
-4.25357
-3.99949
-4.27685
-4.04387
-4.50302
-4.01932
-4.3379
-8.77882
-4.34975
-4.08036
-4.35417
-4.10069
-9.49174
13255.9
12975.2
12718.8
12271.3
9827.92
9575.7
9809.37
9571.97
7993.11
8212.94
8350.09
7933.5
8366.9
8547.3
7871.47
8645.29
7911.17
8377.94
8225.6
8021.09
8363.19
7962.86
8378.74
8552.44
7908.73
8653.49
7936.77
8387.17
8593.44
8335.41
8569
8423.16
8531.44
8380.53
8592.51
8340.26
8568.9
8420.49
8531.46
8382.9
-6.74703
-7.36498
-4.88254
-4.87905
-4.87308
-4.88582
-8.12136
-4.57429
-4.07588
-4.36433
-4.08604
-4.92853
-4.5747
-4.07613
-4.36781
-4.08606
-4.91898
-3.94781
-4.17045
-4.02039
-4.20647
-3.98175
-4.17465
-3.96478
-4.17657
-4.03897
-4.21318
-3.99704
-4.18049
-8.78682
-9.50674
12925.6
12218.2
11618.2
11147.1
8611.53
8221.88
8609.27
8233.11
9235.86
8927.99