/*--------------------------------*- C++ -*----------------------------------*\
| =========                 |                                                 |
| \\      /  F ield         | OpenFOAM: The Open Source CFD Toolbox           |
|  \\    /   O peration     | Version:  5.x                                   |
|   \\  /    A nd           | Web:      www.OpenFOAM.org                      |
|    \\/     M anipulation  |                                                 |
\*---------------------------------------------------------------------------*/
FoamFile
{
    version     2.0;
    format      ascii;
    class       volScalarField;
    location    "2.4";
    object      p_rgh;
}
// * * * * * * * * * * * * * * * * * * * * * * * * * * * * * * * * * * * * * //

dimensions      [1 -1 -2 0 0 0 0];

internalField   nonuniform List<scalar> 
12160
(
5572.78
5623.51
5572.2
5646.29
5622.97
5571.88
5685.64
5645.77
5622.07
5570.21
5723.72
5685.13
5644.75
5620.43
5569.6
5763.61
5723.22
5684.09
5643.14
5618.56
5567.22
5805.57
5763.1
5722.08
5682.52
5641.11
5615.83
5565.95
5849.21
5805.07
5761.99
5720.42
5680.39
5638.43
5612.8
5563.35
5894.11
5848.77
5804.01
5760.36
5718.17
5677.72
5635.37
5573.43
2905.26
5939.63
5893.79
5847.81
5802.42
5758.15
5715.36
5674.37
5605.74
3311.25
137.428
5984.71
5939.56
5893.11
5846.35
5800.25
5755.42
5711.88
5657.28
3493.8
163.274
6.31794
6029.34
5984.98
5939.39
5892.03
5844.32
5797.52
5751.95
5694.89
3757.01
177.774
4.25253
0.129857
6066.5
6030.27
5985.47
5939.08
5890.48
5841.68
5793.94
5732.24
3998.6
257.054
1.64027
0.0675474
-0.00967699
6097.04
6067.86
6032.13
5986.15
5938.57
5888.37
5838.03
5770.47
4235.68
376.103
0.382229
0.0272729
-0.0394366
0.0339652
6119.66
6098.79
6070.6
6034.91
5987.11
5937.84
5885.16
5813.29
4464.62
535.475
0.560347
0.0199555
0.00844344
0.0349501
-0.0162717
6133.82
6121.62
6102.37
6074.72
6038.36
5989.33
5936.15
5862.01
4692.22
714.482
1.7729
0.0322447
0.040143
0.0204188
-0.0386807
6139.9
6135.78
6125.73
6107.8
6080.11
6041.76
5990.62
5916.75
4922.41
906.51
7.11523
0.0329251
0.0453129
0.0100452
-0.010942
6138.77
6141.67
6140.1
6131.88
6115.06
6087.39
6045.69
5977.57
5165.08
1129.91
14.8566
0.0218643
0.0425033
0.00974303
0.0104013
6131.63
6140.43
6145.91
6146.27
6140.34
6125.13
6095.25
6040.39
5403.19
1412.77
29.5453
0.0298357
0.0217917
0.0112943
0.0147884
6119.68
6133.02
6143.98
6151.42
6155.01
6151.81
6136.13
6098.8
5617.07
1788.86
56.4116
0.0451799
0.0173526
0.00535052
0.0129964
6103.94
6120.8
6135.91
6149.04
6159.79
6166.35
6164.57
6147.68
5788.88
2238.48
104.761
0.0663595
0.0163732
0.00517306
0.00770163
6085.05
6104.81
6123.07
6140.08
6156.25
6169.8
6179.47
6181.61
5912.83
2702.91
182.855
0.205015
0.0272137
0.00940407
0.00568825
6063.24
6085.7
6106.56
6126.34
6145.77
6164.97
6182.21
6197.17
5988.78
3096.43
290.573
1.6327
0.00999653
0.02149
0.00295764
6039.05
6063.71
6087.02
6109.06
6130.68
6152.57
6176.41
6197.21
6016.57
3351.91
406.41
5.36935
-0.0315583
0.021659
0.000998765
6012.88
6039.34
6064.65
6088.88
6112.31
6135.82
6160.73
6184.89
6007.33
3448.09
494.484
11.235
-0.0517509
0.0176111
-0.00633056
5985.16
6013
6039.93
6065.98
6091.26
6116.08
6141.55
6168.47
5972.33
3406.52
533.24
16.8271
-0.0369493
-0.0127393
-0.0216913
5956.53
5985.11
6013.25
6040.72
6067.68
6093.97
6120.11
6144.09
5906.63
3266.45
523.343
19.6222
-0.00145423
-0.0479503
-0.0223458
5927.68
5956.33
5985.02
6013.51
6041.71
6069.66
6096.92
6117.74
5802.02
3105.11
480.173
19.2452
0.0278481
-0.0590748
-0.0178088
5899.21
5927.36
5955.94
5984.78
6013.8
6042.77
6071.62
6089.85
5713.2
2980.09
415.502
17.2975
0.0385598
-0.0581825
-0.0198321
5871.58
5898.8
5926.72
5955.22
5984.36
6013.96
6043.69
6060.13
5633.1
2836.01
336.41
15.5223
0.0416855
-0.0483147
-0.0196745
5845.13
5871.11
5897.99
5925.62
5954.15
5983.6
6013.8
6027.81
5549.65
2672.68
275.208
14.7651
0.0480909
-0.0344182
-0.0195584
5820.07
5844.61
5870.22
5896.65
5924.06
5952.52
5982.31
5993.2
5455.78
2491.7
227.65
13.5137
0.0689391
-0.0239879
-0.0203735
5796.57
5819.46
5843.67
5868.75
5894.8
5921.78
5950.11
5956.39
5350.73
2290.92
189.496
12.0754
0.100374
-0.0267504
-0.0211637
5774.59
5795.83
5818.51
5842.09
5866.81
5892.27
5918.28
5918.49
5233.32
2074.57
157.899
10.2666
0.144437
-0.031242
-0.0145189
5754.45
5773.9
5794.81
5816.7
5840.16
5864.23
5888.25
5881.34
5107.28
1849.47
132.386
8.34367
0.158949
-0.0338908
-0.0126143
5736.18
5753.7
5772.62
5792.67
5814.76
5837.52
5860.61
5847.1
4981.91
1624.49
111.169
6.97604
0.133403
-0.0317433
-0.0152123
5719.57
5735.35
5752.26
5770.34
5790.53
5811.79
5834.54
5817.04
4867.4
1412.44
92.8125
5.73895
0.104164
-0.0280579
-0.0224844
5704.47
5718.72
5733.8
5749.81
5767.61
5786.98
5808.96
5788.82
4767.81
1224.79
77.0659
4.44042
0.0633711
-0.0258985
-0.0272033
5690.75
5703.66
5717.15
5731.23
5746.64
5763.64
5783.47
5758.62
4671.12
1072.69
63.3274
3.2368
0.024193
-0.026373
-0.0265433
5678.15
5689.98
5702.14
5714.58
5727.86
5742.22
5758.7
5725.24
4545.86
949.134
52.2362
2.08444
0.000876485
-0.0224977
-0.0229889
5677.44
5658.97
5688.56
5699.66
5711.21
5723.2
5736.28
5690.27
4375.04
839.219
43.8148
1.03528
-0.0119457
-0.0103902
-0.0208598
5676.15
5658.4
5635.54
5686.23
5696.43
5706.59
5716.78
5652.63
4178.04
740.283
36.7272
0.427556
-0.0170501
0.00304245
-0.0226823
5674
5657.37
5635.19
5615.66
5683.22
5692.02
5700
5617.73
3996.33
673.25
31.3434
0.208598
-0.015544
0.00198923
-0.0244133
5671.25
5655.64
5634.56
5615.6
5595.38
5679.12
5685.38
5588.08
3852.86
638.516
28.5515
0.138269
-0.00924151
-0.00212822
-0.0177453
5667.5
5653.4
5633.49
5615.49
5595.36
5575.94
5672.45
5563.3
3741.67
623.534
26.8642
0.181393
0.000129622
-0.00489442
-0.0108375
5660.77
5650.38
5632.11
5615.11
5595.84
5576.56
5555.57
5541.45
3651.46
612.014
25.1757
0.245787
0.00742309
-0.00937449
-0.00459206
5522.98
5643.47
5630.1
5614.58
5596.31
5578.14
5555.22
5532.26
3575.44
598.25
23.269
0.255729
0.0139601
-0.0078911
0.0015299
3509.42
5499.02
5622.99
5613.4
5597.29
5579.39
5556.37
5532.23
5500.04
582.91
21.4374
0.23193
0.0210874
0.000427496
0.00449549
566.427
3412.04
5466.64
5605.89
5597.59
5582.03
5557.47
5531.49
5494.16
5490.06
19.8085
0.201645
0.0284577
0.00766612
0.00487224
18.4559
539.027
3308.4
5432.52
5589.57
5584.08
5561.2
5531.28
5488.87
5479.91
5410.29
0.177029
0.0357558
0.0136394
0.00586124
0.165134
16.9658
520.608
3206.65
5396.61
5574.01
5564.08
5533.15
5481.87
5464.23
5396.65
5561.73
0.0429831
0.0196368
0.00663427
0.0532415
0.178518
17.6754
502.405
3143.92
5362.44
5534.92
5531.4
5475.18
5420.54
5391.55
5522.27
4992.39
5134.42
0.0259084
0.00751155
0.033678
0.0772285
0.276484
19.7529
511.556
3103.2
5303.24
5456.62
5468.18
5376.18
5341.53
5462.13
5096.22
4659.23
4736.85
4680.12
0.00900466
0.0115258
0.0504532
0.134309
0.576057
29.9669
521.985
3065.5
5141.78
5372.28
5364.9
5287.76
5375.16
5157.34
4906.34
4413.62
4385.96
4407.45
4298.65
0.0176562
0.0873354
0.255604
3.82721
50.3514
519.509
2989.87
4697.55
5330.69
5266.02
5262.33
5219.94
5108.9
4674.39
4200.89
4123.87
4106.34
4095.73
4005.71
0.0314551
0.145467
0.76393
14.3123
61.1581
529.29
2762.14
4495.9
5292.53
5258.87
5299.43
5263.71
4907.65
4486.88
4017.69
3869.68
3799.03
3789.7
3814.76
3839.08
0.0500959
0.10741
4.9246
17.6371
60.4606
615.661
1729.99
4866.09
5371.08
5423.3
5397.87
5134.46
4732.2
4335.07
3848.27
3634.33
3486.22
3428.33
3492.84
3642.97
3840.61
0.00293058
0.795884
7.61949
9.03985
51.3093
310.888
1352.01
5355.36
5543.3
5536.59
5347.89
4980.37
4588.93
4195.04
2811.65
3424.31
2816.98
3058.33
3062.19
3193.15
3045.06
3051.81
3259.82
3612.28
4030.02
-0.108535
1.80637
3.58438
2.31093
25.8621
69.7543
2804.8
5657.41
5677.39
5563.06
5230.68
4834.9
4491.6
4068.22
2558.04
2772.5
2901.94
2563.85
2305.07
2309.71
2774.66
2976.42
2977.1
2648.14
2556.36
2712.95
3161.86
3771.43
4400.62
-0.144996
1.23017
0.809585
0.891569
5.11975
37.5999
4468.22
5805.05
5751.47
5495.39
5093.82
4720.67
4376.23
3212.83
3210.53
3403.29
3405.03
2517.55
2765.31
2230.71
2727.18
2519.6
2252.08
2254.66
2755.84
3007.25
2997.29
2015.53
2079.94
2495.07
3256.53
4125.17
4959.88
-0.0897108
0.42381
0.376777
0.658561
1.44514
146.617
5434.74
5889.91
5742.36
5372.39
4968.49
4618.64
3581.95
3582.87
3760.44
3761.01
3157.26
3154.2
3390.89
3385.66
2507.09
2528.72
2249.97
2403.12
2370.77
1472.69
1968.06
1602.55
1604.27
1954.53
1951.8
2497.18
2230.89
2222.44
2526.02
2250.86
2399.32
2370.13
2667.42
2603.93
2822.49
2489.27
2663.69
2603.25
2818.11
2486.04
1363.39
1702.13
2483.62
3564.5
4674.08
5675.01
-0.0755864
0.239406
0.362534
0.572122
0.797427
428.943
5867.45
5900.7
5617.44
5223.59
4857.24
3915.41
3916.01
4092.55
4092.65
3569.89
3562.88
3742.96
3733.9
2749.22
2629.77
2830.24
2828.88
2957.12
2733.64
2628.3
2754.38
2831.6
2830.91
2957.35
2732.97
3048.26
3180.32
2937.29
3073.87
3049.24
3179.99
2939.16
3073.86
2126.85
2128.53
2280.77
1972.91
2482.61
2312.53
2349.44
2440.37
677.762
1119.98
808.243
809.9
1214.29
1216.13
1589.14
1583.94
1930.03
1925.86
2123.06
2125.09
2275.7
1968.09
2013.39
1645.88
1879.19
1830.37
2010.37
1648.64
1875.01
1829.05
2481.72
2314.79
2349.5
2440.61
2616.08
2548.32
2614.42
2546.15
790.609
1569.03
2726.36
4093.61
5389.28
6477.04
-0.00491142
0.217819
0.266322
0.365819
0.403386
1100.11
5844.59
5780.61
5460.39
5095.57
4245.61
4245.63
4408.22
4408.89
3905.62
3897.08
4071.47
4063.24
3137.49
3264.41
3226.71
3353.78
3138.16
3264.18
3230.84
3354.07
3418.54
3543.22
3324.62
3451.39
3424.78
3543.76
3329.53
3452.12
2657.2
2767.32
2856.33
2717.55
2872.87
2933.91
2662.02
2774.06
2719.3
2858.27
2876.3
2935.1
3101.93
3153.91
2985.01
3037.05
3105.49
3155.06
2987.93
3038.21
2086.02
2186.28
2223.95
2047.03
2502.65
2303.48
2355.54
2447.55
-72.6455
182.394
-59.7574
-58.4688
381.783
382.72
810.878
798.443
1213.16
1204.21
1047.75
1204.16
1211.25
1369.12
1054.81
1205.06
1217.35
1370.19
1555.51
1700.89
1669.47
1378.64
1526.2
1824.54
1559.18
1701.38
1670.52
1381.46
1526.98
1824.75
2086.2
2188.93
2224.04
2049.94
1954.07
1885.23
1954.3
1887.36
2499.73
2304.35
2355.86
2439.68
2608.28
2541.92
2607.31
2540.47
518.567
1729.61
3222.81
4805.98
6200.96
7285.37
0.0315507
0.183392
0.248717
0.375297
-0.102358
978.4
5467.97
5608.29
5295.85
4570.57
4570.92
4730.02
4729.64
4221.34
4216.98
4370.03
4369.28
3513.55
3634.5
3609.52
3734.77
3516.31
3634.14
3613.74
3734.09
3770.98
3950.06
3706.51
3835.62
3771.71
3948.12
3707.83
3834.19
3188.17
3233.44
3282.61
3323.13
3192.5
3234.82
3287.09
3324.68
3468.65
3500.04
3371.6
3406.61
3474.3
3501.91
3374.25
3407.91
2099.4
2181.85
2225.05
2061.32
-515.506
-783.654
-981.39
-979.272
-522.014
-520.979
-50.0433
-62.1534
388.043
374.943
278.067
441.161
475.107
627.879
287.573
441.97
483.613
628.941
868.808
1014.75
672.132
826.212
875.284
1015.86
683.576
827.774
1125.48
1171.62
1276.55
1325.5
1135.16
1174.3
1284.47
1327.93
1715.44
1561.15
1639.82
1786.61
1422.89
1477.96
1722.28
1565.03
1640.57
1789.57
1428.04
1479.57
2097.98
2180.98
2224.35
2057.85
1945.16
1889.17
1945.31
1890.05
621.663
2180.48
3935.4
5627.24
7023.79
8021.27
0.0319441
0.154496
0.201033
0.445548
0.410149
423.062
4388.29
5285.73
5105.2
4521.28
4520.97
4653.12
4652.79
4179.3
4177.31
4349.2
4346.15
3568.72
3601.15
3657.39
3693.57
3571.85
3602.48
3660.29
3694.59
3799.85
3887.23
3742.03
3785.07
3800.44
3887.18
3743.58
3785.58
3486.69
3531.24
3494.06
3533.4
-423.853
-1349.24
-1777.66
-1774.96
-1440.31
-1438.62
-966.406
-969.167
-511.288
-519.464
-578.975
-318.24
-313.505
-143.717
-577.229
-320.671
-309.753
-144.722
94.8924
256.439
-111.65
53.0651
99.3271
256.054
-104.529
52.8592
420.29
454.248
610.338
641.461
428.714
457.191
614.664
643.795
950.693
998.732
780.834
818.493
958.986
1001.25
788.401
821.264
1068.8
2890.39
4753.8
6466.09
7766.12
8648.36
0.0283875
0.15574
0.164018
0.501368
0.924725
114.68
2686.15
4726.79
4753.2
4753.93
4808.64
4808.96
4510.39
4505.52
4630.7
4631.66
4084.69
3916.48
3984.84
3996.34
4083.91
3915.51
3984.74
3995.35
4182.49
4173.11
4269.11
4090.2
4181.28
4175.85
4268.24
4089.39
3576.59
3616.45
3657.74
3697.14
3581.67
3618.31
3660.66
3698.29
3833.54
3863.58
3736.12
3774.78
3837.13
3864.78
3737.99
3775.67
99.5233
-1267.77
-1696.83
-1765.52
-1766.59
-1429.94
-1433.1
-832.383
-838.73
-410.765
-417.293
-462.853
-299.581
-199.304
-131.675
-461.413
-299.644
-196.786
-130.9
208.67
242.814
7.7643
47.5365
213.05
244.727
11.4952
48.8675
396.278
439.836
406.253
442.861
1817.54
3711.64
5615.31
7220.53
8391.24
8835.29
0.0261754
0.180643
0.252591
0.574654
1.26806
21.4904
1041.95
3579.15
4733.53
4730.29
4665.55
4663.57
4258.81
4353.9
4464.09
4329.78
4261.25
4353.06
4462.46
4330.86
4623.6
4619.56
4064.73
3961.22
3985.96
4048.41
4064.6
3963.37
3986.46
4047.64
4154.13
4214.65
4239.63
4135.09
4153.83
4215.27
4239.7
4134.76
3865.89
3900.13
3872.08
3901.84
913.054
-580.689
-1569.45
-2011.88
-2014.28
-1846.52
-1852.02
-1610.18
-1614.1
-1237.13
-1249.49
-823.493
-1176.73
-1024.63
-963.223
-823.962
-1166.03
-1023.07
-962.714
-625.657
-571.575
-466.107
-759.157
-626.902
-574.915
-466.941
-762.138
-332.615
-266.708
-130.106
-73.5294
-330.623
-266.335
-129.452
-72.9839
221.931
264.973
46.6073
96.7932
228.25
267.246
50.5504
98.1714
2693.74
4565.32
6403.3
7861.61
8614.94
0.0304814
0.232798
0.45059
0.670888
1.27629
6.67139
301.948
3143.31
3142.91
2023.7
2022.59
4547.69
4636.65
4515.65
4703.32
4546.96
4635.96
4516.59
4702.52
4534.15
4535.05
4289.01
4319.72
4410.25
4341.29
4290.45
4320.18
4409.83
4342.05
4505.91
4572.55
4432.41
4482.91
4507.08
4571.81
4433
4482.44
4175.27
4227.99
4251.64
4153.17
4176.06
4230.96
4252.3
4157.1
1903.18
377.928
-729.66
-1089.96
-1725.57
-1733.76
-1571.36
-1582.18
-1273.23
-1284.24
-1365.01
-1203.42
-1281.49
-1565.04
-1361.23
-1203.88
-1286.03
-1570.81
-720.003
-966.668
-926.554
-756.775
-719.356
-961.983
-924.709
-755.02
-559.213
-471.419
-432.793
-593.494
-559.669
-471.654
-432.97
-595.953
-319.806
-262.388
-316.72
-262.117
3531.98
5395.33
7064.46
8097.44
0.0662958
0.299854
0.612804
0.900641
1.6994
18.563
227.949
228.129
74.7178
74.8002
2790.77
2792.06
1320.31
1319.72
4533.98
4613.15
4455.08
4671.77
4533.86
4613.24
4455.93
4671.78
4729.52
3506.1
4384.79
3978.14
4729.53
3503.8
4388.12
3977.09
4300.72
4324.37
4396.48
4371.08
4302.11
4324.87
4396.94
4372.42
4540.69
4562.82
4470.44
4489.59
4542.52
4563.1
4470.88
4489.8
2781.91
1556.93
375.462
-124.323
-1134.95
-1133.4
-1289.99
-1292.86
-1260.77
-1260.52
-1609.61
-1457.15
-1786.26
-1482.22
-1605.2
-1455.49
-1777.41
-1480.57
-1463.72
-1317.94
-1302.7
-1185.81
-1396.96
-1176.63
-1449.88
-1315.28
-1293.85
-1183.48
-1392.95
-1176.53
-1162.37
-1081.42
-1158.92
-1079.87
-686.772
-865.774
-822.689
-729.822
-685.516
-855.947
-819.837
-724.939
4349.39
6065.31
7340.91
0.111459
0.379304
0.701101
1.72163
12.7791
273.92
242.765
242.146
378.592
378.425
2441.61
3430.47
2720.72
1900.27
2707.72
4396.32
3430.68
2440.81
4400.24
2723.98
1894.05
2709.38
734.59
951.872
965.77
1231.03
726.103
952.318
960.947
1231.67
4526.27
4622.96
4490.04
4669.51
4526.58
4623.19
4491.64
4669.87
4732.09
3798.66
4732.54
3797.65
4431.98
4404.42
4432.49
4405.94
4544.65
4588.06
4546.67
4588.7
3578.35
2562.58
1643.03
1033.6
-495.612
-492.288
-895.553
-898.152
-518.251
-524.114
-630.061
-629.946
-1111.12
-1442.03
-1022.09
-1294.1
-1268.88
-1576.26
-1106.05
-1419.88
-1016.73
-1281.88
-1266.44
-1568.29
-1361.1
-1248.3
-1354.28
-1245.85
-1193.99
-1122.85
-1102.39
-1121.19
-1035.76
-1037
-1183.11
-1119.83
-1096.65
-1110.09
-1033.56
-1033.87
-991.513
-931.76
-982.033
-928.472
5030.66
6400.22
0.143525
0.446251
0.968259
9.29655
135.487
1206.34
1204.89
646.039
644.017
489.141
485.841
1207.05
1204.97
2970.93
1942.26
2568.59
3472.59
1325.33
2241.11
2971.56
1937.8
3478.06
2574.57
1318.44
2245.9
594.368
581.027
930.226
1071.39
586.902
580.726
925.453
1074.49
4269.64
4703.61
4270.81
4703.91
4240.67
3398.9
2756.24
2246.1
2191.33
-44.1729
-48.3668
-311.143
-327.203
-934.892
-379.59
-883.006
-598.524
-911.432
-375.656
-867.897
-593.04
-924.663
-1136.53
-719.353
-901.608
-665.239
-823.104
-912.694
-1124.4
-714.555
-879.614
-658.807
-819.179
-928.727
-1084.18
-1045.71
-1180.86
-925.679
-1080.58
-1038.84
-1171.19
-1130.09
-1045.74
-1121.46
-1042.85
-1095.59
-1009.03
-1006.1
-939.643
-1083.39
-1006.21
-996.43
-936.446
5423.52
0.158014
0.428165
3.0252
55.916
393.987
1695.66
1693.42
1121.04
1122.27
1311
765.677
585.666
757.61
1314.43
760.8
587.39
759.177
1731.42
1729.45
674.994
510.082
805.577
595.584
668.838
509.932
801.971
597.113
4719.74
4037.57
3656.37
3346.46
3292.14
1155.25
1170.76
714.527
715.366
434.755
436.511
255.96
247.459
-594.418
-241.795
-490.449
-413.131
-580.859
-237.967
-483.027
-409.479
-883.289
-669.062
-750.003
-579.1
-550.859
-495.648
-868.27
-660.403
-576.064
-744.845
-543.849
-492.265
-933.257
-1017.7
-929.395
-1007.07
0.128126
0.213021
12.164
131.207
881.715
884.575
376.083
376.687
1656.69
1650.86
1468.09
1473.74
2376.96
1149.31
1783.31
1186.2
2385.93
1145.63
1789.09
1192.3
1445.63
1723.16
1384.49
1880.21
1417.33
1722.35
1387.03
1897.61
1034.22
1337.72
1030.23
1330.74
4462.82
4302.64
4278.75
4670.81
4677.1
1517.58
1519.33
1322.65
1311.47
1107.69
1090.49
333.129
-278.869
16.9705
-277.14
330.144
-278.401
17.9189
-279.818
-232.329
-145.224
-284.395
-236.943
-217.481
-140.591
-276.999
-233.665
0.0341443
0.286316
31.723
176.095
1181.31
1179.81
376.888
377.229
1653.71
1515.22
1555.7
1719.14
1538.14
1620.85
1632.84
1515.82
1555.07
1696.48
1538.68
1612.66
1780.45
1780.82
2550.22
1209.28
2505.99
1375.15
2550.31
1204.69
2505.82
1377.25
1578.77
2373.15
1570.99
2396.27
4740.72
4936.51
5401.41
7908.31
4461
4528.82
2550.34
2560.43
1900.74
1921.88
1844.81
1829.83
208.954
936.494
258.462
609.606
-30.6078
390.762
253.868
942.96
285.626
618.44
-26.3441
392.542
73.1221
158.666
82.0773
161.882
-16.8291
26.8004
-2.2803
30.9718
-0.429595
2.16298
64.9912
218.615
229.641
162.397
170.573
821.493
816.725
242.938
244.528
1781.18
1846.15
1940.12
1792.15
2176.15
1719.93
1769.2
1862.31
1963.44
1782.96
2188.86
1708.84
1163.91
2000.74
1609.88
2251.02
1149.78
2001.47
1601.11
2248.58
5279.63
5680.11
8300.3
10834.6
4415.52
4496.87
3667.78
3678.68
2824.45
2827.48
424.633
928.408
1533.04
745.212
1188.47
896.351
1528.66
755.163
1191.21
899.785
451.817
936.816
501.69
269.444
682.951
423.236
522.27
293.896
690.27
430.986
225.376
313.205
243.694
318.775
-0.438613
1.2299
105.068
356.306
366.731
180.784
189.329
1051.81
926.509
187.04
386.693
222.473
183.631
1052.48
925.731
187.281
391.259
219.58
183.71
215.272
217.583
2772.93
1753.17
2771.24
1748.27
1316.29
2396.09
1313.19
2391.19
5740.25
6384.24
10362.6
9132.49
9140.69
6136.57
6386.38
4363.83
4482.71
4347.51
4372.82
2923.06
2142.7
1973.98
1691.26
1169.94
1408.75
2971.87
1187.3
1410.98
2151.06
2026.2
1699.51
747.715
988.074
1053.85
1219.33
1064.67
771.115
1220.95
994.804
-0.9811
1.83759
107.644
459.993
464.489
148.768
154.234
778.415
909.408
188.706
268.682
375.435
195.025
777.113
902.305
188.693
272.986
372.347
204.356
383.823
740.379
304.282
619.009
377.045
759.254
304.662
597.255
1016.58
2203.03
1014.37
2187.37
5831.9
6427.02
9370.88
8576.04
8672.06
6333.89
6590.09
4314.43
4454.21
3145.79
2266.1
2553.05
3215.94
2418.98
3176.64
3192.55
2276.2
2547.13
3285.65
2401.23
3249.26
2620.73
1714.6
1853.77
1445.16
1748.92
1450.85
2655.57
1873.27
0.195196
48.746
13.7012
92.4015
88.7801
12.8536
2.16068
2.2194
424.396
493.52
1158.9
420.964
472.669
1167.2
358.701
816.906
444.159
247.568
420.63
258.004
360.346
810.466
461.893
248.071
423.067
268.342
356.367
1064.24
365.431
1091.82
5710.85
6072.75
7130.77
7390.34
7398.55
6800.57
7059.91
4140.82
2604.77
3144.33
2457.86
2750
2355.37
4639.66
2880.09
2362.55
2612.28
3537.82
2468.31
3077.93
2141.12
2874.9
2184.41
3149.11
2155.49
2991.57
2192.45
3039.63
2064.6
3107.23
2100.34
9.23275
0.847533
22.7934
3.08141
21.0568
3.07892
2.49862
2.42628
197.535
601.042
1027.68
556.169
1192.19
173.931
23.1955
22.3356
603.88
203.618
921.281
539.95
1192.03
168.658
26.4146
23.0205
494.73
261.362
553.013
273.164
402.664
1081.66
419.344
1160.8
5944.01
6341.02
3079.46
5607.56
5608.94
3099.14
3287.94
3298.39
5239.98
4478.09
2456.04
5335.81
4883.53
2516.98
2859.85
3494.68
2237.93
2366.65
3039.47
2253.5
3914.02
2413.9
3032.01
2126.2
2829.78
2219.58
3119.32
2141.48
2964.05
2231.24
0.202254
0.136891
3.4552
12.1748
22.1613
2.4749
3.46992
12.2977
25.7718
2.48293
2.58682
2.4723
543.3
57.9644
642.282
977.444
327.413
20.5974
560.452
655.179
62.0864
1058.76
349.382
20.3985
440.389
326.417
472.26
339.045
6348.47
6761.45
3293.65
3974.78
3905.95
3284.47
3425.89
3396.38
4023.22
5130.62
2979.44
5075.61
2732.96
2671.9
2307.93
1975.66
3939.88
5475.65
3028.66
5462.37
2799.61
2688.34
2289.92
1982.09
2899.78
3940.03
2231.91
2501.25
3137.72
2240.55
4418.33
2559.46
-0.741505
2.34802
2.3563
2.37361
2.34628
2.22021
2.20733
3.37834
4.795
3.57663
3.2251
5.47821
2.91068
3.47719
3.0192
2.48774
3.37752
3.03795
3.37688
5.16304
3.57503
3.21694
5.43368
2.91161
3.46758
3.01497
2.50135
3.36989
3.03516
237.721
7.0417
122.925
6.12273
242.881
6.23969
160.626
6.70393
6799.63
7101.09
3355.68
3346.06
2082.22
2367.86
3317.82
2085.99
2313.72
3336.57
3264.19
3232.34
4825.4
4052.97
4335.65
3289.88
2558.36
2672.12
5033.04
3968.49
4785.77
2640.64
3328.75
2655.63
3267.45
2264.74
3578.89
2276.61
-0.0733744
2.37351
2.39985
2.38959
2.39653
2.31928
2.30515
4.31751
3.52833
3.18954
3.72988
3.49283
3.12645
3.40597
3.39121
3.17065
3.39459
3.11847
3.01016
3.37979
2.9579
4.29744
3.53696
3.71171
3.18381
3.48028
3.12241
3.3868
3.41721
3.16751
3.37776
3.11304
3.01535
3.38981
2.9666
7106.09
3368.25
3395.84
3362.44
3412.68
3411
3405.63
1137.6
2064.88
2302.27
2113.11
2603.25
1824.61
1624.1
2106.22
1180.74
2066.56
2227.09
2099.6
2541.19
1849.44
1612.96
2110.34
3172.68
1360.77
1964.59
3165.79
1400.23
1992.35
4772.07
3751.69
3304.41
2759.1
4928.98
3653.05
3293.68
2716.13
-0.0231904
2.40747
3.05862
3.353
2.43101
2.42738
3.06406
3.36846
2.42349
2.36701
2.35019
3.64956
3.26132
3.45998
3.14484
3.45596
3.44657
3.4611
3.17764
3.25754
3.14149
3.66646
3.26203
3.45574
3.14427
3.44753
3.45743
3.46097
3.17521
3.25359
3.14416
7329.31
3490.62
3366.79
3329.24
3516.76
3456.02
3440.6
3335.17
2178.58
2647.47
2048.97
1773.76
2168.18
3252.29
2131.71
2615.81
2024.59
1776.37
2177.52
1498.56
1453.35
1946.81
1362.85
1884.24
2117.86
1244.93
1909.58
1502.92
1469.08
1959.86
1407.08
1909.89
2113.28
1256.45
1909.47
0.0295305
2.40777
2.39132
2.49996
3.11405
3.34672
3.12745
3.34442
2.46797
2.49644
3.11437
3.3602
3.12845
3.35879
2.45645
3.4915
3.5001
3.4273
3.23427
3.29353
3.18947
3.47975
3.49827
3.43487
3.23023
3.28674
3.18379
7536.82
3488.2
3480.95
2056
1450.1
3427.64
2050.73
1434.94
3513.45
3506.9
3497.43
2075.72
2079.69
1731.46
2096.93
2061.12
2068.04
1734.63
2105.78
1698.42
1712.92
1708.21
2001.06
2064.66
2211.97
1710.27
1680.67
1699.05
2069.2
2005.69
2200.28
0.0196721
2.41357
2.39094
2.39452
2.37109
2.61445
3.15948
3.37937
3.11789
3.43377
3.44633
3.22098
2.47086
2.58406
3.15384
3.37208
3.11726
3.41601
3.44855
3.21256
2.45859
3.52196
3.30368
3.51576
3.29464
7586.24
3506.75
3531.31
3500.59
1938.52
1511.33
2006.42
1465.28
3459.11
1932.02
1501.21
2000.62
1450.49
3561.22
3551.79
1748.49
1775.82
1764
2065.08
2052.17
2200.75
1760
1786.92
1737.89
2059.64
2061.6
2189.98
0.00423942
2.37211
2.3617
2.35397
2.34325
2.42896
2.42195
2.6713
3.30454
3.51855
3.52078
3.49224
3.25742
3.47736
3.2194
3.52585
3.51821
3.31242
2.62819
3.26434
3.48643
3.41459
3.46349
3.24918
3.46683
3.21766
3.50366
3.50248
3.30372
7596.62
3498.88
3479.34
3533.71
3524.81
3532.15
2015.62
1491.27
2004.92
1527.87
1790.69
2257.55
3487.45
2011.1
1498.88
2002.04
1521.78
1783.79
2254.25
3608.25
3600.54
1718.74
2039.49
1720.97
2029.99
0.0157969
2.32902
2.28112
2.31372
2.26739
2.40976
2.38752
2.40385
2.38483
2.52025
2.50772
3.47367
3.58657
3.51923
3.48646
3.36828
3.58154
3.52069
3.55849
3.31604
3.5015
3.30355
3.53565
3.36419
3.51789
3.44992
3.46183
3.33493
3.56084
3.41422
3.54335
3.29967
3.4838
3.2932
3.51644
7643.61
3447.15
3452.95
3481.51
3481.09
3578.52
3583.05
3589.43
2052.48
1499.86
2032.13
1546.72
2278.21
1766.52
2245
1786.96
1822.52
2223.99
3544.92
2051.32
1509.06
2032.87
1543.68
2275.57
1770.21
2243.82
1790.98
1845.23
2224.46
-0.0218426
2.20349
2.17368
2.1941
2.16025
2.36496
2.31268
2.36166
2.31324
2.43088
2.39704
2.43988
2.4112
3.24403
3.44324
3.11547
3.43763
3.21683
3.43324
3.11969
3.42769
3.37556
3.58007
3.56442
3.60413
3.30599
3.556
3.40697
3.58914
7456.4
3455.87
3484.05
3479.88
3504.6
3516.84
3486.51
3526.79
3487.93
3641.15
3603.1
2036.1
1500.12
2049.66
1503.74
2301.03
1766.26
2266.75
1803.46
2227.69
1764.29
2202.6
1760.04
2032.21
1511.17
2047.24
1498.37
2295.95
1777.49
2267.94
1798.49
2227.29
1786.9
2204.69
1778.67
0.0586904
-0.0367493
2.28807
2.21252
2.29052
2.21035
2.35568
2.28982
2.37157
2.31067
3.05123
3.39256
3.07052
3.36985
3.04414
3.34116
3.03425
3.35849
3.0573
3.3943
3.07547
3.3748
3.04985
3.34698
3.04026
3.36528
3.21452
3.53236
3.16916
3.54539
3.20728
3.53274
3.17082
3.53992
7514
3493.18
3430.14
3512.54
3451.8
3464.69
3482.42
3460.75
3478.14
3572.08
3445.46
3539.57
3422
2048.94
1514.65
2054.05
1526.68
2024.55
1489.17
2031.46
1497.61
2235.27
1758.7
2298.36
1723.83
2232.87
1777.58
2302.45
1723.66
0.0462774
2.15709
2.06998
2.17096
2.07948
-0.00797051
2.2115
2.17166
2.23996
2.19372
2.99669
3.32478
3.02896
3.29108
2.97727
3.203
2.93285
3.25786
3.00376
3.33019
3.03462
3.30097
2.9824
3.22017
2.94251
3.26481
3.11837
3.51045
3.14523
3.47861
3.0987
3.45616
3.10151
3.43224
3.11954
3.50607
3.14542
3.4768
3.10411
3.45782
3.1031
3.44383
7618.02
7224.28
3348.38
3373.84
3335.55
3360.07
3371.44
3357.91
3343.4
3328.22
1957.5
1479.57
2022.5
1430.13
1904.96
1361.87
1917.08
1378.25
1948.31
1471.42
2012.22
1421.51
1905.1
1380.84
1919.21
1380.27
2258.11
1712.37
2259.94
1723.78
2255.45
1721.34
2259.36
1723.87
0.0131494
2.02281
1.99647
2.02497
1.9914
2.19316
2.09597
2.20215
2.11989
1.57163e-05
2.88449
3.16639
2.90709
3.16457
2.81518
3.10966
2.70323
3.18208
2.8957
3.19633
2.91989
3.18827
2.82325
3.12207
2.70987
3.20064
3.04593
3.42296
3.07394
3.37401
3.02398
3.304
2.98595
3.33816
3.05051
3.42667
3.07727
3.38016
3.02806
3.31581
2.99127
3.34398
7930.7
7205.08
3237.21
3229.52
3199.58
3215.68
3272.58
3272.7
3231.9
3232.55
1848.03
1362.84
1873.38
1365.67
1828.06
1329.81
1818.03
1361.9
1847.31
1378.17
1874.54
1371.39
1825.93
1346.34
1816.68
1366.5
2151.24
1633.9
2178.43
1572.96
2258.68
1615.92
2111.08
1633.24
2147.25
1639.42
2176.8
1569.44
2255.15
1639.38
2116.2
1638.23
0.019657
-0.00784775
2.11578
2.0467
2.12918
2.054
3.13297
3.15659
2.86479
3.11938
2.81907
2.77932
3.00231
2.57066
3.10377
2.73688
3.12604
3.16479
2.86108
3.10548
2.81316
2.78271
3.00502
2.57059
3.095
2.73128
0.00276104
2.93144
3.25581
2.95935
3.21566
2.88992
3.25529
2.94096
3.27387
2.96761
3.2386
2.89826
3.27802
3.0514
3.367
3.04009
3.3852
3.05237
3.35498
3.04017
3.37924
7763.09
7463.6
3232.55
3352.12
3243.45
3360.96
2877.36
3297.6
2866.17
3245.75
1764.09
1318.66
1791.72
1279.95
1785.51
1128.31
1805.83
1184.94
1760.61
1318.93
1788.37
1272.68
1780.71
1148.1
1811.91
1167.24
2079.3
1629.66
2076.12
1650.07
2028.82
1557.38
1975.7
1608.7
2078.85
1652.46
2080.93
1663.03
2029.53
1569.82
1977.13
1620.82
0.011221
2.01845
1.91859
2.0356
1.93055
0.00786636
2.05865
2.04918
2.07155
2.06407
3.20094
3.20474
2.96492
2.87855
3.17459
2.84371
3.05393
2.65291
3.1752
2.8052
3.1891
3.20099
2.96051
2.87735
3.16424
2.84127
3.05592
2.65638
3.17399
2.80582
0.0168582
3.00295
3.33581
3.00149
3.27737
2.99559
3.26353
3.00563
3.33737
3.00426
3.2769
2.99444
3.25761
6881.81
7316.5
7302.34
4265.88
4458.03
4270.36
4442.03
1178.73
1224.87
1610.32
1369.38
1529.22
1735.04
2623.69
1997.16
1555.17
1519.72
1230.87
1240.08
1634.03
1454.13
1550.31
1742.7
2585.53
2003.29
1622.08
1535.34
1902.62
1513.09
1923.24
1480.59
1893.52
1399.34
1900.2
1522.02
1923.6
1472.33
1883.84
1364.29
1944.57
1580.5
1860.45
1619.74
1950.15
1612.44
1868.19
1649.64
0.0230595
1.88168
1.80187
1.88926
1.8023
1.99929
1.93467
2.00827
1.9436
0.0423429
2.65994
2.96537
2.71327
2.95756
2.60019
2.91945
2.45131
2.95408
2.66196
2.97254
2.71544
2.96001
2.60021
2.91345
2.45144
2.94919
3.22842
2.95111
3.05702
2.80839
3.17195
2.85972
3.21099
2.9453
3.04398
2.80316
3.15299
2.8548
0.0164208
5662.38
6482.27
6670.13
6900.14
5039.9
6854.28
5012.97
6202.17
6649.82
6191.9
6635.65
1349.56
1316.1
1758.27
1659.42
1576.86
1706.44
3382.25
2037.62
2179.39
1705.13
1401.3
1331.94
1675.66
1757.85
1547.32
1682.61
3327.63
2016.82
2154.11
1689.49
1810.81
1523.14
1838.54
1466.78
1814.85
1477.2
1818.67
1545.48
1844.04
1493.94
1820.98
1500.01
0.0470518
0.0860147
1.91734
1.89611
1.93323
1.90106
2.90338
3.025
2.6411
2.84928
2.56007
2.5871
2.73318
2.25559
2.8003
2.46747
2.89242
3.02122
2.63584
2.83703
2.55521
2.58263
2.73222
2.25447
2.793
2.46336
0.0576439
2.71223
3.05837
2.73262
3.04313
2.71327
3.07161
2.71427
3.05704
2.7335
3.0484
2.71284
3.07255
0.00495952
4537.98
5270.4
5749.1
3535.4
2770.31
3519.21
2774.07
7567.36
5192.82
7570.09
5201.1
4055.08
6442.39
3558.47
6729.2
5366.02
6503.46
6090.47
6685.81
4067.28
6418.16
3539.19
6732.28
5399.21
6533.12
6106.63
6695.55
1351.35
1732.09
4758.82
3163.47
3848.62
2505.01
1383.86
1746.05
4619.02
3045.47
3660.57
2321.46
0.305845
1.76793
1.71156
1.76927
1.70174
0.09623
1.79781
1.83741
1.81029
1.84281
2.94016
2.9871
2.7062
2.67477
2.91846
2.63135
2.86696
2.40062
2.89076
2.56448
2.91151
2.96099
2.69714
2.6671
2.90308
2.62569
2.8551
2.3961
2.87879
2.56019
0.0499626
2.74439
3.01382
2.73999
2.99356
-0.0087578
3773.6
4155.37
4549.7
4800.05
3270.29
2446.14
3255
2442.44
6486.16
6670.65
5608.96
6014.49
4101.32
7005.61
3771.61
1818.3
5249.27
2833.27
6683.32
6514.16
5652.42
6075.94
4134.44
7010.78
3860.11
1829.37
5316.37
2867.1
6602.91
6782.42
6603
6876.91
6990.5
6838.79
6599.75
6787.3
6595.7
6874.25
6990.55
6841.18
0.779667
0.29326
1.82048
1.92177
1.83497
1.9146
0.0530438
2.1699
2.66154
2.37263
2.65825
1.77266
2.16945
2.66195
2.36939
2.65817
1.78488
2.8451
2.6221
2.71042
2.52197
2.76922
2.57541
2.82826
2.61604
2.69282
2.51548
2.75423
2.56968
0.0421052
-0.0237379
3442.67
3392.67
3447.45
3638.03
1666.49
1224.68
1663.89
1236.26
2882.22
2122.96
2878.53
2123.11
6671.66
6446.81
3775.11
6265.11
5527.44
4114.86
2887.87
2080.56
4317.94
3601.31
6694.65
6517.25
6260.28
3824.42
5584.51
4145.18
2921.84