/*--------------------------------*- C++ -*----------------------------------*\
| =========                 |                                                 |
| \\      /  F ield         | OpenFOAM: The Open Source CFD Toolbox           |
|  \\    /   O peration     | Version:  5.x                                   |
|   \\  /    A nd           | Web:      www.OpenFOAM.org                      |
|    \\/     M anipulation  |                                                 |
\*---------------------------------------------------------------------------*/
FoamFile
{
    version     2.0;
    format      ascii;
    class       surfaceScalarField;
    location    "2.4";
    object      phi;
}
// * * * * * * * * * * * * * * * * * * * * * * * * * * * * * * * * * * * * * //

dimensions      [0 3 -1 0 0 0 0];

internalField   nonuniform List<scalar> 
30582
(
0.000143888
-1.05528e-06
0.000142758
1.13011e-06
0.000143942
-2.14357e-06
0.000137369
5.38892e-06
0.000142657
2.41541e-06
0.000143626
-2.8693e-06
0.000127432
9.93686e-06
0.000137235
1.08113e-05
0.000142575
3.46625e-06
0.000142991
-2.893e-06
0.000112863
1.45693e-05
0.00012701
2.01613e-05
0.000137462
1.59241e-05
0.000140829
5.62819e-06
0.000142249
-2.08824e-06
9.54648e-05
1.73979e-05
0.000112394
2.91852e-05
0.000127853
2.97709e-05
0.000134915
2.18376e-05
0.000140359
7.51879e-06
0.000139559
1.52038e-06
7.7114e-05
1.83508e-05
9.53465e-05
3.44456e-05
0.000113669
4.33692e-05
0.000124977
3.97091e-05
0.000134903
2.72936e-05
0.000134847
1.22308e-05
0.000138781
6.04059e-06
5.79046e-05
1.92094e-05
7.71706e-05
3.65267e-05
9.64781e-05
5.1636e-05
0.000111198
5.7148e-05
0.000125901
4.87106e-05
0.000127208
3.49328e-05
0.000134737
1.62751e-05
0.000123685
2.58116e-05
3.85487e-05
1.93559e-05
5.80326e-05
3.83474e-05
7.80142e-05
5.49906e-05
9.517e-05
6.76642e-05
0.000113347
6.97026e-05
0.000118894
5.70241e-05
0.000128451
4.12192e-05
0.000113316
2.66438e-05
4.46739e-05
-4.73516e-05
1.96393e-05
1.89095e-05
3.86444e-05
3.87442e-05
5.86436e-05
5.77181e-05
7.74178e-05
7.27427e-05
9.77992e-05
8.32116e-05
0.000109013
7.95843e-05
0.000121199
6.42757e-05
0.000107837
4.66985e-05
4.39308e-05
2.73869e-05
-0.00031607
0.000267501
1.75615e-06
1.78832e-05
1.96699e-05
3.78841e-05
3.88937e-05
5.84942e-05
5.83127e-05
7.68233e-05
7.96339e-05
9.0908e-05
9.6028e-05
9.61962e-05
0.000112102
8.86813e-05
0.000103357
6.87551e-05
6.30493e-05
2.75801e-05
-0.000387625
9.89417e-05
0.000179925
8.75255e-05
-1.47818e-05
1.6538e-05
1.72112e-06
3.58321e-05
1.96027e-05
5.71752e-05
3.84237e-05
7.83831e-05
5.94746e-05
9.69826e-05
7.92095e-05
0.000107727
9.91739e-05
0.000109125
0.000100388
9.16502e-05
7.73105e-05
5.44939e-05
-0.000437631
7.75868e-05
0.000210013
6.88535e-05
0.000113951
-2.64265e-05
-2.9969e-05
1.51872e-05
-1.49058e-05
3.3165e-05
1.44462e-06
5.39902e-05
1.89286e-05
7.66704e-05
3.85851e-05
9.92728e-05
5.93463e-05
0.000116846
8.16445e-05
0.000125256
9.32779e-05
0.000116235
8.97355e-05
7.92252e-05
-0.000357429
-2.57085e-05
-1.56529e-05
0.000303252
0.000160249
2.25557e-05
-0.000150082
0.000123656
-4.33557e-05
1.33867e-05
-3.02601e-05
3.05415e-05
-1.52788e-05
4.98884e-05
6.40659e-07
7.22782e-05
1.84572e-05
9.67983e-05
3.81894e-05
0.00012043
5.99559e-05
0.000138534
8.0216e-05
0.000138318
9.80593e-05
0.000107911
-0.000243643
-3.45603e-05
-0.000176498
0.000135137
0.000102007
0.000361494
-0.0001206
-6.92688e-06
8.7382e-05
3.62736e-05
-5.42145e-05
1.08587e-05
-4.39538e-05
2.70803e-05
-3.06972e-05
4.59598e-05
-1.63045e-05
6.68335e-05
-2.30201e-08
9.07584e-05
1.76038e-05
0.000117384
3.68528e-05
0.000143533
6.10904e-05
0.00015766
9.71816e-05
0.000139196
-0.000162477
2.67445e-05
-0.000271303
6.02444e-05
6.73547e-05
0.000169789
-2.99273e-05
0.000270822
9.95505e-05
-1.90954e-05
-9.88389e-05
-6.18555e-05
7.64102e-06
-5.52425e-05
2.21473e-05
-4.46246e-05
4.10077e-05
-3.22438e-05
6.18992e-05
-1.7086e-05
8.38966e-05
-1.13558e-06
0.000109498
1.50912e-05
0.000139146
3.88097e-05
0.000165814
9.02068e-05
0.000164635
-0.000111191
8.79101e-05
-0.000361017
0.000116459
2.21408e-05
0.000105458
-1.21084e-05
0.00015197
6.60797e-05
0.000304292
-9.78322e-05
-6.47319e-05
2.87634e-06
-6.31178e-05
1.55163e-05
-5.65409e-05
3.40635e-05
-4.69284e-05
5.56922e-05
-3.31182e-05
7.79313e-05
-1.85434e-05
0.000101304
-4.03617e-06
0.000128625
1.73124e-05
0.000160643
8.03049e-05
0.000175716
-6.91639e-05
0.000122607
-0.000421035
0.000147928
-3.64216e-06
0.000142242
-9.0181e-06
0.000102368
4.07571e-05
0.000177293
-4.84603e-05
-6.14185e-05
-3.31342e-06
-6.62604e-05
6.01895e-06
-6.5476e-05
2.44515e-05
-5.96624e-05
4.67975e-05
-4.81759e-05
7.075e-05
-3.51282e-05
9.4516e-05
-2.1432e-05
0.0001187
-1.33773e-06
0.000147275
6.85075e-05
0.00017244
-3.55077e-05
0.000142059
-0.000464043
0.000165615
-9.574e-06
0.00015386
5.30031e-06
0.000127924
7.32715e-06
0.000135798
-2.47235e-05
-5.11088e-05
-1.03096e-05
-6.34391e-05
-6.13479e-06
-6.97857e-05
1.03286e-05
-6.94599e-05
3.4249e-05
-6.19539e-05
6.05754e-05
-5.11119e-05
8.67337e-05
-3.82573e-05
0.000111341
-1.85979e-05
0.00013596
5.53226e-05
0.00016046
-8.06974e-06
0.000145002
-0.000420254
9.82706e-05
2.96031e-06
0.000153081
2.46301e-05
0.00013453
-5.79972e-06
0.000141051
-6.34414e-06
-3.33797e-05
-1.77291e-05
-5.33029e-05
-2.04458e-05
-6.74176e-05
-8.50295e-06
-7.46524e-05
1.55211e-05
-7.38042e-05
4.60993e-05
-6.62555e-05
7.57189e-05
-5.47197e-05
0.000103196
-3.61044e-05
0.000128848
4.02246e-05
0.000151058
1.32409e-05
0.00013915
-0.000295363
2.01117e-05
2.65517e-05
7.46792e-05
5.65538e-05
0.000121157
-1.03631e-05
0.000139093
4.94845e-06
-8.63921e-06
-2.47405e-05
-3.55743e-05
-3.54577e-05
-5.77097e-05
-3.01536e-05
-7.38413e-05
-9.31409e-06
-8.16189e-05
2.33358e-05
-8.01245e-05
5.99683e-05
-7.12221e-05
9.22213e-05
-5.47759e-05
0.000121868
2.10375e-05
0.000148035
2.60493e-05
0.00013825
-0.000177497
2.12834e-05
4.46489e-05
2.01457e-06
5.93315e-05
7.19015e-05
-1.61977e-05
0.000126992
1.52114e-05
2.20385e-05
-3.06777e-05
-1.06091e-05
-4.97056e-05
-4.00158e-05
-5.31516e-05
-6.48067e-05
-3.91881e-05
-8.19151e-05
-9.0179e-06
-8.98203e-05
3.30316e-05
-8.79666e-05
7.67128e-05
-7.52771e-05
0.000112723
-3.83044e-06
0.000146735
2.52382e-05
0.000148846
-9.26078e-05
5.33604e-05
3.29439e-05
3.29885e-05
2.94344e-05
3.19117e-05
-2.11113e-05
7.68151e-05
2.8427e-05
5.70334e-05
-3.49948e-05
2.04957e-05
-6.17823e-05
-1.4684e-05
-7.50372e-05
-4.70963e-05
-7.0862e-05
-7.38619e-05
-4.72414e-05
-9.30568e-05
-5.78132e-06
-0.000101433
4.64982e-05
-9.69895e-05
9.84252e-05
-3.3345e-05
0.000142237
9.49325e-06
0.00016248
-4.87961e-05
0.000105034
2.65584e-06
8.36485e-05
8.07619e-06
5.43466e-05
-1.14087e-05
2.2209e-05
2.84336e-05
9.4354e-05
-3.73205e-05
5.60646e-05
-7.05637e-05
1.72658e-05
-9.37321e-05
-2.0971e-05
-0.000101162
-5.64001e-05
-8.83238e-05
-8.65288e-05
-5.37694e-05
-0.000106621
-5.93372e-07
-0.00011528
6.47886e-05
-6.2883e-05
0.000127963
-1.72699e-05
0.000169
-4.56018e-05
0.000159286
-2.37482e-05
0.000131438
1.80976e-05
7.36271e-05
5.47974e-06
3.74582e-05
7.37117e-06
0.000131911
-3.7557e-05
9.40635e-05
-7.53194e-05
5.40228e-05
-0.000107321
1.23943e-05
-0.000127097
-2.96625e-05
-0.0001279
-6.91936e-05
-0.000105659
-0.000101943
-5.84479e-05
-0.000125873
9.99945e-06
-8.97725e-05
9.16782e-05
-4.8037e-05
0.00015873
-7.30491e-05
0.000196448
-4.10258e-05
0.000176564
4.25282e-05
0.000107008
1.50872e-05
6.40195e-05
-1.50876e-05
0.000167786
-3.58747e-05
0.000132287
-7.57811e-05
9.34006e-05
-0.000114697
5.10111e-05
-0.000145938
5.44417e-06
-0.000162204
-4.10819e-05
-0.000156012
-8.56266e-05
-0.000121975
-0.000122894
-6.14267e-05
-0.000109507
2.97335e-05
-7.3931e-05
0.000117572
-0.000119666
0.000205347
-6.21515e-05
0.000217573
5.78183e-05
0.000161274
1.75332e-05
0.000104562
-2.26622e-05
0.000200419
-3.26334e-05
0.000168779
-7.23668e-05
0.000133017
-0.000115398
9.24789e-05
-0.000156165
4.65642e-05
-0.000187058
-3.44557e-06
-0.00019984
-5.62982e-05
-0.00018534
-0.00010588
-0.000138989
-0.000114571
-5.63623e-05
-8.84221e-05
4.42247e-05
-0.000174327
0.000172233
-9.26711e-05
0.000235867
7.12773e-05
0.000204114
2.53889e-05
0.000153418
-1.50567e-05
0.000228706
-2.82876e-05
0.000201914
-6.57681e-05
0.000170734
-0.000110083
0.00013426
-0.000157179
9.10606e-05
-0.000200661
4.11877e-05
-0.000231691
-1.54569e-05
-0.000240681
-7.43971e-05
-0.000216823
-9.9229e-05
-0.000154331
-8.96875e-05
-5.50969e-05
-0.000218203
8.81002e-05
-0.000150084
0.000229646
0.000100375
0.00020677
4.10903e-05
0.000188413
-1.76092e-06
0.00025199
-2.32834e-05
0.000230574
-5.69479e-05
0.000204829
-9.98636e-05
0.000173917
-0.000149741
0.000135875
-0.000201993
8.95651e-05
-0.000249039
3.34824e-05
-0.00028063
-3.01529e-05
-0.000284926
-6.73158e-05
-0.000248736
-7.57619e-05
-0.000168256
-0.000217397
-5.5903e-05
-0.000236225
0.000174241
0.000139372
0.000190649
5.90361e-05
0.000188824
1.08971e-05
0.000269992
-1.80025e-05
0.000254083
-4.67914e-05
0.000234169
-8.62876e-05
0.000209614
-0.00013556
0.000178149
-0.000192015
0.000138261
-0.000250688
8.69678e-05
-0.000302524
2.38864e-05
-0.000334669
-2.52339e-05
-0.000327008
-4.93208e-05
-0.000275177
-0.000191658
-0.000193995
-0.000285534
-6.59359e-06
0.000189556
0.000124057
8.59685e-05
0.000163716
2.09077e-05
0.000282759
-1.27668e-05
0.000272213
-3.61331e-05
0.000258125
-7.07471e-05
0.000240113
-0.000116787
0.000215777
-0.000173188
0.000184074
-0.000237829
0.000141034
-0.000304755
8.30895e-05
-0.000361728
2.36941e-05
-0.000383597
-1.32634e-05
-0.000363065
-0.000142886
-0.000323949
-0.000249052
-0.000230478
0.00021789
-3.49273e-05
0.000123233
8.6793e-05
2.75681e-05
0.00029046
-7.70106e-06
0.000285057
-2.56105e-05
0.0002765
-5.45087e-05
0.000264707
-9.53403e-05
0.000247583
-0.000148593
0.000224588
-0.000213701
0.000191678
-0.000288473
0.000142576
-0.000364241
7.65113e-05
-0.000414545
2.89252e-05
-0.000425786
-7.24539e-05
-0.000433497
-0.000172085
-0.000400915
0.000214351
-0.000226939
0.000151135
-6.28301e-05
1.76166e-05
0.000293299
-2.8386e-06
0.000292861
-1.55054e-05
0.000289391
-3.85008e-05
0.000283337
-7.31393e-05
0.000272932
-0.000120689
0.000258439
-0.000182445
0.000236317
-0.000258341
0.000197691
-0.000343588
0.000128354
-0.000416084
7.73394e-05
-0.000462959
2.72669e-05
-0.000525507
-8.54945e-05
-0.000520088
0.000163536
-0.0003501
0.000135339
-0.000211143
-5.54107e-06
0.000291551
1.74768e-06
0.000295703
-5.68042e-06
0.000297058
-2.31729e-05
0.000296422
-5.1586e-05
0.000291889
-9.2097e-05
0.000284789
-0.000147038
0.000272186
-0.000218313
0.000244487
-0.000305136
0.000177827
-0.000393061
0.000131386
-0.00047013
0.000140499
-0.000576191
-1.94253e-06
-0.000609059
0.000103657
-0.00046021
0.000110413
-0.000325175
-5.84925e-06
0.000285764
5.78679e-06
0.000293869
3.58143e-06
0.000299934
-8.55675e-06
0.000304426
-3.11766e-05
0.000304968
-6.46649e-05
0.000303829
-0.000111137
0.00029842
-0.000173273
0.00028072
-0.000254546
0.000223319
-0.000350628
0.000189591
-0.000451266
0.000239361
-0.000568993
7.53562e-05
-0.00065349
4.81231e-05
-0.000553525
7.95988e-05
-0.000429396
5.1909e-06
0.000276104
9.66037e-06
0.000287666
1.19896e-05
0.000298175
5.34095e-06
0.000307226
-1.1357e-05
0.000312834
-3.90423e-05
0.000317036
-7.78723e-05
0.000316645
-0.000129362
0.000306131
-0.000198684
0.00026108
-0.000292308
0.00025188
-0.000412916
0.000327965
-0.00053987
0.00014481
-0.000638446
-3.71095e-06
-0.000601656
4.027e-05
-0.000514196
9.23277e-06
0.000263184
1.29204e-05
0.000277769
1.95578e-05
0.000291741
1.84231e-05
0.000304906
7.661e-06
0.000315893
-1.44158e-05
0.000325505
-4.75105e-05
0.000329043
-9.027e-05
0.000322237
-0.000145469
0.000286134
-0.000223737
0.000319312
-0.000359741
0.000413575
-0.000498526
0.000190766
-0.000585825
-5.75064e-05
-0.00058465
4.78648e-07
-0.000561864
6.65306e-06
0.000247786
1.53978e-05
0.000264733
2.59568e-05
0.000281326
2.99733e-05
0.000298063
2.52659e-05
0.00031381
9.74356e-06
0.000328523
-1.74338e-05
0.000337586
-5.60532e-05
0.000331943
-9.99753e-05
0.000296377
-0.000155712
0.000388992
-0.000293418
0.000499105
-0.000445271
0.000203838
-0.000511598
-0.000117921
-0.00052541
-3.32047e-05
-0.000550966
5.74112e-07
0.000230597
1.71887e-05
0.000249237
3.08937e-05
0.000267641
3.96419e-05
0.000287052
4.09844e-05
0.000306269
3.28068e-05
0.00032598
1.22866e-05
0.000342413
-2.22607e-05
0.000337998
-6.21087e-05
0.000294392
-9.79897e-05
0.000455719
-0.000222438
0.000583807
-0.000378119
0.000169792
-0.000411224
-0.000171745
-0.000457773
-5.07262e-05
-0.000507888
-3.27428e-06
1.79803e-05
0.000212617
0.000231869
3.45561e-05
0.000251452
4.70822e-05
0.000272616
5.40784e-05
0.000294026
5.32277e-05
0.000317958
4.08281e-05
0.000340413
1.4286e-05
0.000339519
-2.3782e-05
0.00028563
-5.33472e-05
0.000515227
-0.000157498
0.000653924
-0.000292556
7.79262e-05
-0.000286254
-0.00019525
-0.000387719
-6.20622e-05
-0.000446436
-8.4113e-07
3.64216e-05
0.000213428
4.41863e-05
0.00016843
0.000233444
5.25649e-05
0.000255548
6.41499e-05
0.000278046
7.00586e-05
0.000304834
6.63523e-05
0.00033083
5.04111e-05
0.000333726
2.00798e-05
0.000273991
-1.21422e-05
0.000566145
-0.000104265
0.000702062
-0.000205636
-3.10552e-05
-0.000183575
-0.000201526
-0.000279979
-7.33576e-05
-0.000376424
8.34464e-06
5.55656e-05
0.0002143
8.94046e-05
0.00016821
3.87378e-05
0.000129693
0.000236641
7.14723e-05
0.000259349
8.28461e-05
0.000287697
8.71951e-05
0.000314735
8.24477e-05
0.000319573
6.45633e-05
0.000259913
3.41577e-05
0.000587471
-3.34679e-05
0.000728844
-0.000131047
-0.000122601
-0.000114091
-0.000199254
-0.000185848
-6.20166e-05
-0.000291321
1.30007e-05
7.57009e-05
0.000216505
0.000136094
0.00016761
7.87735e-05
0.000128174
2.87528e-05
0.00010094
0.000238897
9.19248e-05
0.000267622
0.000102922
0.000294016
0.000107914
0.000299316
0.000102705
0.000247806
7.66701e-05
0.000562428
5.92005e-05
0.000718967
-2.35914e-05
-0.000189781
-6.38671e-05
-0.000190039
-0.000123306
-3.79339e-05
-0.000209931
4.22935e-07
9.71904e-05
0.000217407
0.000185303
0.000167297
0.000120272
0.000126112
6.00376e-05
9.68898e-05
1.21703e-05
8.87698e-05
0.000245619
0.000113928
0.000270609
0.000126328
0.000275145
0.000132085
0.000233962
0.000116549
0.000502041
0.000137057
0.000666828
0.000111339
-0.000193845
-1.95272e-05
-0.000183467
-7.04397e-05
-1.70017e-05
-0.000144239
-2.20554e-05
0.000120575
0.000222234
0.000236697
0.000166013
0.000165283
0.000122286
9.2974e-05
9.31757e-05
2.77056e-05
8.13545e-05
-1.27021e-05
0.000101472
0.000245703
0.000138835
0.000248206
0.000153267
0.00021857
0.000147477
0.000428449
0.000190142
0.000584055
0.000219831
-0.000136766
5.42612e-05
-0.000176554
-2.64389e-05
-7.59257e-06
-7.98484e-05
-4.16767e-05
0.000145991
0.000220287
0.000292628
0.000166302
0.000213035
0.000118262
0.000130134
8.51258e-05
4.69384e-05
7.39428e-05
-1.54373e-05
8.40896e-05
-5.37606e-05
0.000155233
0.000219435
0.000167605
0.00020203
0.000169807
0.000360886
0.00021504
0.000489476
0.000284721
-7.33081e-05
0.000156374
-0.000156468
3.41759e-05
-2.17997e-05
-1.22311e-05
-5.18569e-05
0.000175771
0.000189655
0.000352215
0.0001607
0.000265487
0.000113849
0.00017094
7.74552e-05
7.45995e-05
5.74646e-05
-1.02297e-05
6.87351e-05
-9.54044e-05
0.000125733
-7.22464e-05
0.000227479
0.00018368
0.000185955
0.000304631
0.000226062
0.000397055
0.000307461
-3.99306e-05
0.000251343
-0.000128606
0.000128512
-5.43186e-05
6.6695e-05
-4.82354e-05
0.000195519
0.000163931
0.000418939
0.000122931
0.000321244
0.000104943
0.00021719
6.75986e-05
0.000110417
4.16377e-05
6.25381e-06
4.09809e-05
-0.000116562
8.98927e-05
-0.000147821
0.000201309
-0.000124902
0.000352381
0.000260623
0.000229963
0.000321692
0.000301425
-2.98967e-05
0.000297427
-9.76909e-05
0.000220427
-7.37802e-05
0.000147973
-3.47543e-05
0.000233846
0.000222296
0.000471143
0.000111728
0.000379838
6.43368e-05
0.000267629
5.45043e-05
0.0001552
2.28149e-05
3.25965e-05
1.52947e-05
-0.000121603
4.60223e-05
-0.000223538
0.00016561
-0.000245859
0.000322266
-1.82141e-05
0.000370595
0.0002622
0.000289455
-3.17924e-05
0.000303321
-7.35566e-05
0.000273292
-7.00428e-05
0.000216689
-2.35336e-05
0.000290852
0.000205193
0.000553607
0.000139832
0.000438545
5.30207e-05
0.000323313
8.65249e-06
0.000207894
1.81061e-06
8.08548e-05
-2.54436e-05
-0.000100268
-6.04099e-06
-0.000275882
9.83662e-05
-0.000341666
0.000261416
-5.61439e-05
0.000360195
6.22569e-05
0.000308338
-4.28964e-05
0.000300559
-6.45211e-05
0.000294285
-5.89548e-05
0.000262204
-1.52056e-05
0.000312676
-6.47198e-05
0.000673485
8.53151e-05
0.000522171
5.62066e-05
0.000389965
-1.36312e-05
0.000268439
-5.18932e-05
0.00014523
-6.25646e-05
-2.71541e-05
-9.85574e-05
-0.000269944
-1.19797e-05
-0.000428399
0.0001851
-0.000142714
0.000347985
8.75002e-05
0.000334952
0.0022917
0.000670347
-0.0026537
-7.09515e-05
0.000306989
-5.34488e-05
0.000288779
-1.06605e-05
0.000328899
-8.71746e-05
0.000768434
-0.000159668
0.000689383
-8.18971e-05
0.000495722
-4.955e-05
0.000343533
-8.87252e-05
0.000212179
-0.000118842
7.2207e-05
-0.000161926
-0.000162555
-0.000205946
-0.00044489
4.51116e-06
-0.000303138
0.000345524
8.11381e-05
0.000354347
0.00185106
0.000775585
0.00266025
0.000869473
-0.00285938
0.000436358
-0.00309006
-5.69897e-05
0.00031053
-1.03855e-05
0.000339732
-6.78217e-05
0.000855249
-0.000173989
0.000891552
-0.000361837
0.000860466
-0.000446642
0.000477122
-0.000183139
0.000286063
-0.000162609
0.000156283
-0.000202918
-4.22024e-06
-0.00032026
-0.000365274
-0.000285562
-0.000419162
0.000120536
1.97048e-05
0.000406957
0.00141546
0.000789949
0.00242004
0.0010158
0.00240258
0.00104117
-0.00257428
0.000670215
-0.00309324
0.000305453
-0.00339552
-1.3256e-05
-1.94323e-05
0.00091598
-0.000128552
0.00106293
-0.000345371
0.00125054
-0.000751908
0.00094273
-0.00091225
0.0004124
-0.000309475
0.000200131
-0.000206457
0.00012536
-0.000332498
-0.00015661
-0.000528924
-0.000381771
-0.000322954
-6.63582e-05
0.000206599
0.00105565
0.000766773
0.00214444
0.00106555
0.00224392
0.00117446
0.00185965
0.00123354
-0.00205201
0.000915478
-0.00281955
0.000581808
-0.00336959
0.000233684
-0.0036292
-4.96193e-05
0.00119127
-0.000256884
0.00152397
-0.000618807
0.00149388
-0.00130305
0.000558663
-0.00105851
0.000248859
-0.000358203
0.000125736
-0.000206833
9.46448e-05
-0.000583753
-0.00023018
-0.000680514
-0.000213891
-0.000175421
0.000755751
0.000506493
0.00185096
0.00106025
0.00208636
0.00122311
0.00176274
0.00127137
0.0014644
0.00140087
-0.00163173
0.00118494
-0.00232147
0.000819516
-0.00305725
0.000444734
-0.00358064
0.000153232
-0.00378243
-0.000109839
0.00167461
-0.000407516
0.00192796
-0.00105289
0.000848533
-0.00159293
8.12453e-05
-0.000890899
5.57538e-05
-0.000288221
0.000250614
-0.000362802
2.72786e-05
-0.000841212
-0.000276526
-0.000617879
0.00036762
0.00021271
0.00144954
0.000907913
0.0018995
0.00124711
0.00170131
0.00128454
0.00139237
0.0013434
0.00110917
0.00160696
-0.00131526
0.00143433
-0.00188113
0.00111623
-0.00261819
0.000716823
-0.00332934
0.000361976
-0.00378939
9.87767e-05
-0.00388121
-0.000186005
0.00210236
-0.000581913
0.00126251
-0.00146686
-6.68849e-05
-0.00144479
-0.000225421
-0.000609724
0.000118824
-0.000156431
0.000399876
-0.0007354
-0.000205728
-0.00091201
3.54374e-05
-0.000285696
0.000983107
0.000679144
0.00165877
0.00114865
0.00164816
0.00130026
0.00131638
0.00136052
0.00098287
0.00146971
0.000909567
0.000411392
-0.000972827
0.000410751
0.0004243
0.000423774
0.00163363
-0.00151456
0.00140521
-0.00217011
0.00104379
-0.00294515
0.000615433
-0.0035828
0.000226452
-0.00391706
2.23425e-05
-0.00390355
-0.000238547
0.00150789
-0.000827299
4.66647e-05
-0.00158041
-0.000457179
-0.00121304
-0.000152985
-0.000337916
0.000405409
-0.000161965
2.63043e-05
-0.000967432
-0.00020588
-0.000670693
0.000484309
0.000213102
0.00133347
0.00100444
0.00151321
0.0012836
0.00121851
0.00139814
0.000971143
0.00137225
0.00071918
0.00166009
-6.21527e-07
0.000143452
-0.000160185
0.000428747
0.000427177
-0.0010875
0.000426354
0.00044769
0.000447082
0.000143632
-0.000160053
0.000426551
-4.482e-07
0.000129171
0.000439028
0.000130247
0.000436711
0.00163738
-0.00174672
0.0013579
-0.00248422
0.000919285
-0.003249
0.000440414
-0.00379676
9.77374e-05
-0.00399246
-6.3895e-05
-0.00383966
-0.000282645
0.000175541
-0.000956177
-0.000623484
-0.00141411
-0.000357273
-0.00100875
0.00027795
-0.000210457
0.0004184
-0.000554061
-0.000411936
-0.000761374
9.20067e-05
-0.00027839
0.000852914
0.000693654
0.00129799
0.00121966
0.00107357
0.00142854
0.00093475
0.00143453
0.00057733
0.0015141
-9.71436e-05
-9.82404e-05
0.000456069
0.000406908
0.000405917
0.00042281
0.000423191
-6.77278e-07
-0.000176481
0.00044415
-2.58164e-07
8.35564e-05
-9.20814e-05
0.00043753
-0.00126736
0.00181723
-0.000176272
0.000441896
-5.41085e-07
-0.000185275
0.000457025
-0.000184372
0.000454642
8.43494e-05
-9.18601e-05
0.000433804
-8.06629e-08
0.000425522
0.00042274
0.00165809
-0.00204692
0.00122868
-0.00279361
0.000709743
-0.00351833
0.000245053
-0.00394408
-7.782e-05
-0.00397853
-0.000150314
-0.00368934
-0.000289258
-0.000801459
-0.000778204
-0.000716553
-0.00105483
-1.14371e-05
-0.000719361
0.000400422
-0.000192478
-5.44565e-05
-0.000911541
-0.000220891
-0.000448477
0.000355559
0.000218965
0.000998371
0.000993273
0.000898017
0.00139522
0.000807121
0.00155617
0.000479607
0.00153225
0.000379848
0.000391292
0.000391573
0.000403787
0.000403668
2.55479e-07
2.40719e-05
-3.3132e-05
0.000415713
2.33599e-05
-3.17393e-05
0.000414552
-2.03281e-07
2.53876e-05
0.000421697
2.50151e-05
0.000421333
-2.44494e-07
-0.000105744
0.000458057
1.16609e-06
3.79999e-05
-4.20785e-05
0.000124174
9.48139e-05
0.000121902
9.95523e-05
-0.00149775
0.00188848
0.000116673
0.00011547
-0.000718302
0.000494173
0.000494634
0.000473224
0.000471713
-0.000104869
0.000454661
-3.06907e-07
0.00046826
0.000464936
3.69551e-05
-4.07696e-05
0.000123309
9.55915e-05
0.000121138
9.87451e-05
1.2002e-06
0.000121278
9.24635e-05
0.000118818
9.66301e-05
0.000120512
9.41209e-05
0.000118307
9.62163e-05
0.00151807
-0.00233631
0.000989278
-0.00307315
0.000426811
-0.00370009
-4.06694e-05
-0.00398123
-0.000270566
-0.00385828
-0.000241321
-0.00344802
-0.000161532
-0.000993884
-0.000500874
-0.000510709
-0.000555562
4.15045e-07
-0.000319355
3.60123e-05
-0.000282947
-0.000378094
-0.000754339
-9.61125e-06
-8.33063e-05
0.000586086
0.000631249
0.000678952
0.00121234
0.000627677
0.00157466
0.000367332
0.00166844
0.000284753
0.000402761
0.000402567
0.0004115
0.00041052
-1.06627e-07
1.55748e-05
0.000401211
1.55274e-05
0.000400954
-6.64692e-08
1.08087e-05
0.000408619
1.07958e-05
0.000408333
3.53807e-07
-2.05651e-05
1.32945e-06
1.48379e-05
8.50724e-05
2.52851e-06
0.000109139
8.80279e-05
0.000113281
2.17509e-05
-2.09157e-05
1.23286e-06
1.48918e-05
2.50897e-06
8.5214e-05
0.000109031
8.80238e-05
0.000113111
2.18085e-05
5.88788e-07
-1.851e-05
9.30563e-05
0.000116295
9.27065e-05
0.000117062
-1.82625e-05
9.32932e-05
0.000116153
9.29059e-05
0.000116916
1.22005e-06
-4.09714e-05
0.000129209
9.72728e-05
0.000125172
0.000104076
7.44599e-06
9.55017e-06
1.5402e-07
-8.23038e-06
0.000115254
-9.13843e-06
-8.93838e-06
8.77504e-06
0.000104116
2.17322e-07
6.79565e-06
0.000113197
-8.06742e-06
0.000108232
-0.00170976
0.00173008
-0.000811977
0.000493348
0.000493624
0.000496976
0.000498208
-1.9919e-07
4.37107e-05
-4.55719e-05
0.000496234
4.50511e-05
-4.64179e-05
0.000495801
3.16892e-07
4.32403e-05
0.000473377
4.41907e-05
0.000472891
-4.00547e-05
0.000128439
9.86188e-05
0.000124626
0.000103482
1.03153e-06
0.000131448
0.000101364
0.000129401
0.000107284
0.000130798
0.000103592
0.000128957
0.000106757
7.38152e-06
9.41325e-06
-8.19951e-06
0.000114868
-8.87009e-06
-8.46566e-06
8.13368e-06
0.000104794
6.67626e-06
0.000113191
-7.88961e-06
0.000107582
-1.02127e-05
1.0739e-05
2.15169e-07
0.000112306
-1.29712e-05
6.27762e-06
0.000100486
2.50037e-07
0.000110225
0.000105579
-1.02314e-05
1.06932e-05
0.000112065
-1.27478e-05
6.16921e-06
0.000101932
0.000110469
0.000105189
0.00125283
-0.00259986
0.000638875
-0.00328521
2.753e-05
-0.00376829
-0.000363019
-0.00388878
-0.000484686
-0.00361491
-0.000349787
-0.00309823
-8.50898e-05
-0.000762063
-0.000249518
-0.00038351
-0.000171638
-0.000199677
-8.36681e-05
-0.000395096
-0.000265945
-0.000460085
-0.000303867
0.000175754
0.000327025
0.000405959
0.000904242
0.000409868
0.00143015
0.000242467
0.00169953
0.000164682
0.000440079
0.000439588
0.000454687
0.000454162
-7.16338e-08
1.3089e-06
0.000412332
1.49635e-06
0.000411795
-1.32258e-08
-7.7175e-06
0.00042054
-7.49146e-06
0.000419495
8.37093e-07
-2.05637e-05
8.95656e-05
0.00011168
8.94933e-05
0.000111737
-2.02299e-05
8.99216e-05
0.000111687
9.04224e-05
0.000111741
1.10269e-06
-2.23132e-05
9.2459e-05
0.000113344
9.06254e-05
0.000112827
-2.2259e-05
9.36144e-05
0.000113359
9.16358e-05
0.000112826
-4.0615e-06
-1.72182e-05
1.01448e-05
9.62073e-05
-6.01023e-06
1.06356e-05
9.83897e-05
-1.84682e-05
-6.73766e-08
0.000108272
1.52945e-05
-6.32848e-06
-1.82271e-05
9.53653e-05
-1.09044e-08
-1.7786e-05
0.000106258
3.81032e-08
1.92528e-05
0.0001067
-6.06714e-06
1.06192e-05
9.98894e-05
-3.86353e-06
-1.70773e-05
9.72616e-06
9.64287e-05
-1.84438e-05
1.52347e-05
0.000108309
-6.234e-06
-1.8118e-05
9.52985e-05
-1.77615e-05
0.000106184
1.9239e-05
0.00010701
-6.94598e-06
1.89995e-05
-1.82094e-05
9.92122e-05
1.80092e-05
1.58793e-08
-1.72279e-05
0.000108553
-6.96499e-06
0.000100444
-2.77718e-10
0.000110276
-6.86023e-06
1.87777e-05
-1.79927e-05
9.93685e-05
1.79219e-05
-1.71471e-05
0.000108534
-6.85089e-06
0.000100416
0.000110225
-7.23662e-06
9.29916e-06
2.16649e-07
7.29458e-06
0.000119635
-9.14057e-06
8.64125e-06
0.000106547
2.92266e-07
0.000115298
9.09329e-06
0.000112923
1.61055e-05
2.55363e-06
5.26373e-08
-1.80209e-05
0.000114563
-2.18311e-06
-1.58124e-05
1.57674e-05
0.000106344
-3.74934e-09
1.56557e-05
0.000111492
-1.56441e-05
0.000110617
-0.00189119
0.00143426
-0.000909088
0.000457828
0.000457358
0.000455882
0.000456118
-1.93751e-07
4.60029e-05
-4.34415e-05
0.000490981
4.60311e-05
-4.34282e-05
0.000490828
-2.17679e-07
0.000497625
0.000497604
6.83442e-07
-3.17429e-05
4.63475e-05
0.00010625
0.000133053
0.000107394
0.000134297
-3.19557e-05
4.69098e-05
0.000106707
0.000132935
0.000107663
0.000134224
4.8486e-07
-1.41871e-05
4.72375e-07
0.000107399
-2.53405e-05
0.000134938
0.000106394
0.000134969
-3.47573e-06
-1.40944e-05
4.15151e-07
0.000107447
-2.52144e-05
0.000134903
0.000106558
0.000134914
-3.50966e-06
-7.12235e-06
9.34779e-06
7.14837e-06
0.000119282
-9.05478e-06
8.31493e-06
0.000107492
0.000115418
8.79918e-06
0.000112346
4.61009e-06
1.09559e-05
1.71115e-07
0.000123005
-1.38109e-05
-1.03217e-05
0.000111309
2.32575e-07
0.000120463
0.000117012
4.53225e-06
1.08874e-05
0.000122698
-1.33625e-05
-9.95598e-06
0.000112816
0.000120774
0.000116487
1.61439e-05
2.48626e-06
-1.80263e-05
0.000114317
-2.0592e-06
-1.58396e-05
1.58448e-05
0.000106848
1.56512e-05
0.00011162
-1.5461e-05
0.00010969
4.0686e-06
9.80163e-08
0.000109343
0.000104639
4.10561e-06
0.000109271
0.000104453
0.000823365
-0.00278435
8.72251e-05
-0.00334491
-0.000447569
-0.00368374
-0.000727167
-0.00364629
-0.0007131
-0.0032516
-0.000455722
-0.00264251
-4.68778e-05
-0.000540737
-9.22917e-05
-0.000316639
-5.46741e-05
-0.000358723
-0.000120041
-0.000598755
-0.000127274
-0.000364923
0.000236811
0.000136343
0.000596642
0.000170828
0.00114328
9.89507e-05
0.00157366
1.37682e-05
0.000460323
0.000459886
0.000465179
0.000465052
-4.04221e-09
-1.45499e-05
0.000446915
-1.4312e-05
0.000446404
-7.95251e-08
-2.27426e-05
0.000462959
-2.25737e-05
0.000462344
1.01306e-06
-2.87362e-05
9.38455e-05
0.000114519
9.47314e-05
0.000114595
-2.90973e-05
9.49487e-05
0.000114536
9.56854e-05
0.000114488
9.73874e-07
-3.96743e-05
9.99324e-05
0.000117253
9.75141e-05
0.000115845
-4.07128e-05
0.000100902
0.000117119
9.83855e-05
0.000115713
-6.91712e-06
-1.86891e-05
9.69623e-05
-1.82764e-05
1.16607e-08
0.000105778
-7.20939e-06
-1.79611e-05
9.59676e-05
-1.66786e-08
-1.78924e-05
0.000104111
-6.88551e-06
-1.85412e-05
9.73556e-05
-1.81719e-05
0.000105838
-7.01499e-06
-1.78817e-05
9.67779e-05
-1.77717e-05
0.000104324
-7.11286e-06
1.87664e-05
-1.85347e-05
9.93463e-05
1.8842e-05
-3.14819e-08
-1.9268e-05
0.00010666
-7.40046e-06
9.88383e-05
-4.26913e-08
0.000106446
-6.77792e-06
1.88192e-05
-1.88643e-05
0.000100437
1.88735e-05
-1.93034e-05
0.000106967
-7.15567e-06
9.97289e-05
0.000106715
-2.64329e-06
1.40342e-05
-7.59451e-07
-2.33922e-05
-2.5384e-05
-1.65574e-08
-7.64303e-08
1.77202e-05
-1.22519e-06
-1.38735e-05
-2.40345e-08
-1.423e-05
-2.5041e-06
1.43176e-05
-7.18599e-07
-2.33647e-05
1.78003e-05
-2.53683e-05
-1.18038e-06
-1.3882e-05
-1.42088e-05
-1.45434e-06
1.34535e-05
-1.26295e-05
1.33442e-05
-3.19544e-08
-1.25314e-05
-1.36915e-06
-3.00088e-08
-1.38873e-06
1.34544e-05
-1.27387e-05
1.33321e-05
-1.25516e-05
-1.32344e-06
-1.65131e-05
2.38787e-06
-1.06392e-08
1.52704e-05
0.000118481
-2.2572e-06
1.72873e-05
0.000107284
-5.82205e-09
0.000112167
1.82338e-05
0.000114364
1.36981e-05
1.79177e-06
9.69188e-08
-1.63254e-05
-1.65071e-06
-1.40718e-05
1.30937e-05
-9.93473e-09
1.30495e-05
-1.5813e-05
-0.00201615
0.000948331
-0.00103158
0.000386594
0.000386503
0.000391918
0.000391737
-1.4878e-07
5.15751e-05
-4.77686e-05
0.000454171
5.07675e-05
-4.68115e-05
0.000453253
-1.07593e-07
0.000464123
0.000463349
1.4439e-06
-6.44229e-05
6.42612e-05
0.000109884
0.000136904
0.000108472
0.000134475
-6.52422e-05
6.48838e-05
0.000111327
0.000136847
0.000109948
0.000134479
1.06386e-06
0.000105986
0.00013094
0.000107738
0.000133869
0.000106617
0.00013088
0.00010905
0.000133803
-8.20368e-06
-2.40967e-05
2.79675e-05
0.000110583
-2.28017e-05
-4.58069e-08
2.71941e-05
0.00012043
-8.01011e-06
-2.12357e-05
0.000112543
-5.25435e-08
-1.93451e-05
0.000122883
-7.98537e-06
-2.39802e-05
2.76407e-05
0.000111032
-2.27725e-05
2.71509e-05
0.000120526
-7.84141e-06
-2.10427e-05
0.000112567
-1.93155e-05
0.000122873
-5.93067e-06
2.11821e-05
-3.27901e-05
0.000124937
-7.22292e-06
-2.21459e-05
0.000115337
1.68195e-05
-5.26354e-08
0.000136955
-2.47663e-05
-7.26673e-06
0.000113607
-3.72061e-08
0.000125214
-1.2624e-08
-1.29424e-05
0.000122745
-5.80635e-06
2.09905e-05
-3.34165e-05
0.00012568
-7.16943e-06
-2.20054e-05
0.000116777
1.68083e-05
0.000137113
-2.48769e-05
-7.17325e-06
0.000113679
0.000125197
-1.29285e-05
0.000123011
-1.65371e-05
2.22333e-06
1.52886e-05