/*--------------------------------*- C++ -*----------------------------------*\
| =========                 |                                                 |
| \\      /  F ield         | OpenFOAM: The Open Source CFD Toolbox           |
|  \\    /   O peration     | Version:  5.x                                   |
|   \\  /    A nd           | Web:      www.OpenFOAM.org                      |
|    \\/     M anipulation  |                                                 |
\*---------------------------------------------------------------------------*/
FoamFile
{
    version     2.0;
    format      ascii;
    class       volScalarField;
    location    "2.4";
    object      rAU;
}
// * * * * * * * * * * * * * * * * * * * * * * * * * * * * * * * * * * * * * //

dimensions      [-1 3 1 0 0 0 0];

internalField   nonuniform List<scalar> 
12160
(
9.16282e-07
9.16272e-07
9.16278e-07
9.16266e-07
9.16268e-07
9.16274e-07
9.1653e-07
9.16246e-07
9.16265e-07
9.16274e-07
9.16792e-07
9.16491e-07
9.16226e-07
9.16264e-07
9.16276e-07
9.16785e-07
9.16734e-07
9.16452e-07
9.16213e-07
9.16258e-07
9.16285e-07
9.1682e-07
9.16718e-07
9.16677e-07
9.16418e-07
9.16193e-07
9.16262e-07
9.16281e-07
9.16819e-07
9.16769e-07
9.16753e-07
9.16621e-07
9.16382e-07
9.16193e-07
9.16252e-07
9.16272e-07
9.16818e-07
9.16784e-07
9.16769e-07
9.16689e-07
9.16569e-07
9.16363e-07
9.16166e-07
9.23487e-07
1.86264e-06
9.16818e-07
9.16794e-07
9.16784e-07
9.16726e-07
9.16521e-07
9.16524e-07
9.1633e-07
9.21494e-07
1.63481e-06
4.18588e-05
9.16817e-07
9.16799e-07
9.16794e-07
9.16757e-07
9.16726e-07
9.16457e-07
9.16486e-07
9.19178e-07
1.54983e-06
3.53778e-05
0.000487794
9.16816e-07
9.16799e-07
9.16799e-07
9.16775e-07
9.16757e-07
9.16715e-07
9.16425e-07
9.19347e-07
1.4442e-06
3.2553e-05
0.000574213
0.000907731
9.16816e-07
9.16796e-07
9.16799e-07
9.1678e-07
9.16775e-07
9.16795e-07
9.16718e-07
9.19923e-07
1.36064e-06
2.27577e-05
0.000748817
0.000912243
0.000916247
9.16815e-07
9.16793e-07
9.16796e-07
9.16776e-07
9.1678e-07
9.16817e-07
9.16801e-07
9.206e-07
1.28885e-06
1.56753e-05
0.000879459
0.000915055
0.000916268
0.000916518
9.16814e-07
9.16791e-07
9.16793e-07
9.16767e-07
9.16775e-07
9.16812e-07
9.16825e-07
9.20817e-07
1.22673e-06
1.10659e-05
0.000860225
0.00091624
0.000915327
0.000916574
0.000916315
9.16676e-07
9.16791e-07
9.16791e-07
9.16762e-07
9.16767e-07
9.16813e-07
9.1682e-07
9.2059e-07
1.17154e-06
8.3229e-06
0.000742881
0.000916449
0.000916122
0.000915389
0.000916237
9.16673e-07
9.16769e-07
9.16791e-07
9.16759e-07
9.16762e-07
9.16816e-07
9.1682e-07
9.20115e-07
1.12143e-06
6.57624e-06
0.000462376
0.000916169
0.000916375
0.000916039
0.000915551
9.16806e-07
9.16774e-07
9.16793e-07
9.1676e-07
9.16759e-07
9.16816e-07
9.1682e-07
9.19458e-07
1.074e-06
5.2883e-06
0.000299533
0.00091578
0.000916265
0.000916339
0.000916155
9.1681e-07
9.16806e-07
9.16798e-07
9.16771e-07
9.1676e-07
9.16815e-07
9.16817e-07
9.18748e-07
1.03309e-06
4.23981e-06
0.000179833
0.000914713
0.000916385
0.000916267
0.000916297
9.16814e-07
9.1681e-07
9.16813e-07
9.16793e-07
9.16771e-07
9.16814e-07
9.16815e-07
9.18023e-07
1.00096e-06
3.35696e-06
0.000103942
0.000913583
0.00091654
0.000916246
0.000916264
9.16815e-07
9.16814e-07
9.16813e-07
9.16813e-07
9.16793e-07
9.16812e-07
9.16814e-07
9.17314e-07
9.78322e-07
2.68966e-06
5.89849e-05
0.000914361
0.00091653
0.000916289
0.000916255
9.16816e-07
9.16815e-07
9.16814e-07
9.16813e-07
9.16813e-07
9.16792e-07
9.16812e-07
9.16702e-07
9.64016e-07
2.23293e-06
3.47288e-05
0.000898416
0.000916598
0.000916448
0.000916302
9.16818e-07
9.16816e-07
9.16814e-07
9.16813e-07
9.16813e-07
9.16812e-07
9.16791e-07
9.16577e-07
9.5573e-07
1.95451e-06
2.21649e-05
0.00076125
0.000916601
0.000916649
0.000916468
9.1682e-07
9.16818e-07
9.16816e-07
9.16814e-07
9.16813e-07
9.16812e-07
9.16811e-07
9.1665e-07
9.53198e-07
1.80824e-06
1.59692e-05
0.00054268
0.000916232
0.000916608
0.000916644
9.16823e-07
9.16821e-07
9.16818e-07
9.16816e-07
9.16814e-07
9.16813e-07
9.16663e-07
9.16785e-07
9.54585e-07
1.75918e-06
1.31739e-05
0.000374687
0.000914933
0.000916499
0.000916561
9.16824e-07
9.16823e-07
9.16821e-07
9.16818e-07
9.16816e-07
9.16814e-07
9.16496e-07
9.16815e-07
9.58644e-07
1.78077e-06
1.22332e-05
0.000289803
0.000910681
0.000916498
0.000916477
9.16826e-07
9.16824e-07
9.16822e-07
9.1682e-07
9.16818e-07
9.16815e-07
9.16681e-07
9.17223e-07
9.67195e-07
1.85624e-06
1.24633e-05
0.000260524
0.000905158
0.000916428
0.000916523
9.16828e-07
9.16826e-07
9.16824e-07
9.16822e-07
9.1682e-07
9.16818e-07
9.16819e-07
9.18024e-07
9.8263e-07
1.94965e-06
1.35677e-05
0.000264376
0.000902287
0.000916315
0.000916481
9.16829e-07
9.16828e-07
9.16826e-07
9.16824e-07
9.16822e-07
9.1682e-07
9.16824e-07
9.18501e-07
9.95188e-07
2.02598e-06
1.56352e-05
0.000285106
0.000902281
0.000916298
0.00091639
9.16831e-07
9.16831e-07
9.16829e-07
9.16827e-07
9.16825e-07
9.16822e-07
9.1683e-07
9.18989e-07
1.00585e-06
2.12356e-06
1.92282e-05
0.000306589
0.000902295
0.000916295
0.000916367
9.16833e-07
9.16832e-07
9.16831e-07
9.16829e-07
9.16827e-07
9.16825e-07
9.16836e-07
9.19681e-07
1.0184e-06
2.24839e-06
2.33708e-05
0.000316146
0.000903485
0.000916431
0.000916393
9.16828e-07
9.16833e-07
9.16832e-07
9.16831e-07
9.16829e-07
9.16827e-07
9.16843e-07
9.20394e-07
1.03244e-06
2.4128e-06
2.80709e-05
0.000334249
0.000903316
0.000916654
0.000916511
9.16826e-07
9.16828e-07
9.16833e-07
9.16832e-07
9.16831e-07
9.1683e-07
9.1685e-07
9.21082e-07
1.04896e-06
2.62106e-06
3.35261e-05
0.000358066
0.000900504
0.000916239
0.000916221
9.16059e-07
9.16826e-07
9.16833e-07
9.16833e-07
9.16833e-07
9.16832e-07
9.16756e-07
9.21825e-07
1.06841e-06
2.89022e-06
3.99308e-05
0.000394277
0.000895362
0.00091594
0.000913896
9.15944e-07
9.16822e-07
9.16833e-07
9.16834e-07
9.16833e-07
9.16833e-07
9.16348e-07
9.2248e-07
1.09058e-06
3.23946e-06
4.70189e-05
0.000441463
0.000893072
0.000915245
0.000912159
9.16731e-07
9.16809e-07
9.16814e-07
9.16834e-07
9.1682e-07
9.16834e-07
9.16459e-07
9.22976e-07
1.11392e-06
3.68568e-06
5.54531e-05
0.00048362
0.000896164
0.000914731
0.000911047
9.16833e-07
9.16814e-07
9.16809e-07
9.16819e-07
9.16835e-07
9.16668e-07
9.16577e-07
9.23818e-07
1.13661e-06
4.23664e-06
6.56553e-05
0.000527473
0.00089967
0.000914889
0.000910319
9.16832e-07
9.16826e-07
9.16814e-07
9.16809e-07
9.16826e-07
9.16778e-07
9.16531e-07
9.24626e-07
1.15727e-06
4.8832e-06
7.79624e-05
0.000583133
0.00090489
0.000914377
0.000909996
9.16831e-07
9.16832e-07
9.16826e-07
9.16805e-07
9.16809e-07
9.16834e-07
9.16739e-07
9.25777e-07
1.17845e-06
5.57295e-06
9.31906e-05
0.000646384
0.000909886
0.000914949
0.000909439
9.16516e-07
9.16832e-07
9.16833e-07
9.16808e-07
9.16805e-07
9.16836e-07
9.1683e-07
9.2747e-07
1.20861e-06
6.29515e-06
0.000110607
0.00072196
0.00091256
0.00091534
0.000909433
9.16515e-07
9.16692e-07
9.16832e-07
9.16812e-07
9.16809e-07
9.16831e-07
9.16735e-07
9.29453e-07
1.2542e-06
7.1156e-06
0.000128915
0.000807527
0.000913611
0.000915667
0.000909722
9.16514e-07
9.16692e-07
9.16769e-07
9.16809e-07
9.16812e-07
9.1681e-07
9.1667e-07
9.32228e-07
1.31235e-06
8.0643e-06
0.000149853
0.000866684
0.000914559
0.000915583
0.000910762
9.16483e-07
9.16691e-07
9.16767e-07
9.16779e-07
9.16809e-07
9.16766e-07
9.16763e-07
9.35291e-07
1.37179e-06
8.85711e-06
0.000171099
0.000890661
0.000914998
0.000915898
0.000912253
9.16482e-07
9.16649e-07
9.16835e-07
9.16761e-07
9.16617e-07
9.16713e-07
9.16885e-07
9.38188e-07
1.42301e-06
9.33285e-06
0.000184778
0.000897654
0.000915022
0.000915962
0.000913911
9.16338e-07
9.16648e-07
9.16781e-07
9.16815e-07
9.16611e-07
9.16608e-07
9.16971e-07
9.40665e-07
1.46549e-06
9.55758e-06
0.000194179
0.000891386
0.000916049
0.000916325
0.000914647
9.16701e-07
9.16489e-07
9.1678e-07
9.16769e-07
9.16802e-07
9.16619e-07
9.16575e-07
9.4289e-07
1.50182e-06
9.73186e-06
0.000204516
0.00088643
0.000916461
0.000916681
0.000915578
9.44247e-07
9.17029e-07
9.16649e-07
9.16769e-07
9.16774e-07
9.16781e-07
9.16555e-07
9.16576e-07
1.53382e-06
9.95037e-06
0.000217509
0.000887945
0.000916315
0.000916469
0.00091654
1.56193e-06
9.462e-07
9.17573e-07
9.16672e-07
9.16772e-07
9.16812e-07
9.16678e-07
9.16558e-07
9.16201e-07
1.02065e-05
0.000231464
0.000892589
0.000915972
0.000916368
0.000916409
1.04945e-05
1.60619e-06
9.49611e-07
9.17948e-07
9.16731e-07
9.16819e-07
9.16804e-07
9.16725e-07
9.16159e-07
9.1501e-07
0.000245198
0.000897423
0.000915697
0.000915891
0.000916345
0.000257881
1.10229e-05
1.65704e-06
9.53748e-07
9.18718e-07
9.16801e-07
9.16817e-07
9.16823e-07
9.16146e-07
9.14999e-07
9.14612e-07
0.000901251
0.000915634
0.000915431
0.000915938
0.000904222
0.000274249
1.14399e-05
1.70971e-06
9.59265e-07
9.19811e-07
9.17108e-07
9.16817e-07
9.16309e-07
9.16113e-07
9.14455e-07
9.1423e-07
0.000915668
0.000915183
0.000915492
0.000915702
0.000906382
0.000267365
1.18609e-05
1.74527e-06
9.65018e-07
9.24844e-07
9.18154e-07
9.16849e-07
9.16292e-07
9.15744e-07
9.15241e-07
9.125e-07
9.155e-07
0.000915206
0.000915209
0.000915432
0.000915665
0.00090392
0.000248958
1.16776e-05
1.76987e-06
9.75373e-07
9.36351e-07
9.17678e-07
9.16469e-07
9.15863e-07
9.15001e-07
9.12033e-07
9.12514e-07
9.15311e-07
9.15487e-07
0.000915188
0.000915304
0.000915663
0.000916337
0.000888557
0.000180702
1.14887e-05
1.79048e-06
1.00663e-06
9.42194e-07
9.15989e-07
9.16074e-07
9.15027e-07
9.1131e-07
9.10701e-07
9.16123e-07
9.15345e-07
9.16144e-07
9.14504e-07
0.000915284
0.000916373
0.000915927
0.000630789
0.000116904
1.15411e-05
1.83179e-06
1.10766e-06
9.2584e-07
9.1642e-07
9.16122e-07
9.15781e-07
9.09092e-07
9.14913e-07
9.16107e-07
9.16084e-07
9.1608e-07
9.14706e-07
9.1234e-07
0.000914604
0.000915816
0.00085169
0.000326029
9.85273e-05
1.12752e-05
1.99231e-06
1.12907e-06
9.15138e-07
9.16417e-07
9.16256e-07
9.12784e-07
9.13443e-07
9.1615e-07
9.16112e-07
9.16069e-07
9.16079e-07
9.15674e-07
9.15468e-07
9.06733e-07
0.000913044
0.000908774
0.000567352
0.0002847
9.79963e-05
9.6474e-06
3.17946e-06
1.01914e-06
9.15994e-07
9.16279e-07
9.14793e-07
9.09024e-07
9.16198e-07
9.16138e-07
9.1523e-07
9.16083e-07
9.16093e-07
9.16343e-07
9.16178e-07
9.15409e-07
9.10303e-07
0.000911058
0.000816282
0.000469468
0.000426552
0.00011196
1.88831e-05
3.98173e-06
9.40632e-07
9.16356e-07
9.15837e-07
9.09097e-07
9.15634e-07
9.13115e-07
9.13004e-07
9.00303e-07
9.1845e-07
8.9927e-07
8.99741e-07
8.98702e-07
9.16237e-07
9.16683e-07
9.16915e-07
9.15502e-07
9.15659e-07
9.16307e-07
0.000906163
0.000730728
0.000631844
0.000716411
0.000199079
7.94213e-05
1.91291e-06
9.15984e-07
9.16326e-07
9.12159e-07
9.1563e-07
9.11343e-07
9.16202e-07
9.15497e-07
9.02453e-07
8.97985e-07
9.16154e-07
9.02452e-07
9.0359e-07
9.03592e-07
8.97563e-07
8.98461e-07
8.98007e-07
9.17425e-07
9.1813e-07
9.16959e-07
9.1558e-07
9.15743e-07
9.16519e-07
0.000896326
0.00078805
0.000841477
0.00085285
0.000558912
0.000135522
1.20394e-06
9.1609e-07
9.15765e-07
9.14566e-07
9.14048e-07
9.15375e-07
9.15439e-07
9.05722e-07
9.05143e-07
9.04587e-07
9.04633e-07
8.98941e-07
9.07209e-07
9.17832e-07
9.16571e-07
8.98952e-07
9.00237e-07
9.00203e-07
9.07295e-07
9.0707e-07
9.07287e-07
9.18539e-07
9.18271e-07
9.1605e-07
9.15944e-07
9.15581e-07
9.1655e-07
0.000894893
0.000872697
0.000901473
0.000902797
0.000794329
3.85911e-05
9.94587e-07
9.16046e-07
9.15702e-07
9.15002e-07
9.14968e-07
9.16909e-07
9.01395e-07
9.01397e-07
9.04172e-07
9.04168e-07
9.07599e-07
9.07632e-07
9.05875e-07
9.05922e-07
9.05088e-07
8.36017e-07
8.54373e-07
8.38119e-07
8.72577e-07
9.1856e-07
9.17236e-07
9.01641e-07
9.01597e-07
9.02424e-07
9.02342e-07
9.05294e-07
9.02302e-07
9.02451e-07
8.37413e-07
8.60656e-07
8.38239e-07
8.72217e-07
8.40284e-07
8.5243e-07
8.42469e-07
8.734e-07
8.40128e-07
8.5804e-07
8.42106e-07
8.72576e-07
9.18493e-07
9.16378e-07
9.15969e-07
9.15563e-07
9.15923e-07
9.16532e-07
0.000900122
0.000905508
0.000911804
0.000911687
0.000863456
1.36324e-05
9.30314e-07
9.15963e-07
9.15271e-07
9.15806e-07
9.17806e-07
9.02425e-07
9.02465e-07
9.03347e-07
9.03445e-07
9.06347e-07
9.06354e-07
9.06721e-07
9.0672e-07
8.49402e-07
8.41122e-07
8.16347e-07
8.61295e-07
8.49577e-07
8.40988e-07
8.46668e-07
8.49688e-07
8.16373e-07
8.62334e-07
8.48532e-07
8.40865e-07
8.63439e-07
8.43192e-07
8.74514e-07
8.35823e-07
8.60463e-07
8.43224e-07
8.70839e-07
8.3597e-07
8.29638e-07
8.65539e-07
8.36266e-07
8.71473e-07
8.39625e-07
8.54226e-07
8.40197e-07
8.74728e-07
9.18347e-07
9.21061e-07
9.03081e-07
9.0312e-07
9.01836e-07
9.01804e-07
9.0323e-07
9.03633e-07
9.05595e-07
9.05305e-07
8.30886e-07
8.71233e-07
8.36448e-07
8.72074e-07
8.28056e-07
8.66805e-07
8.19619e-07
8.66938e-07
8.29345e-07
8.67021e-07
8.18936e-07
8.68414e-07
8.40902e-07
8.61157e-07
8.40176e-07
8.74792e-07
8.41425e-07
8.74308e-07
8.41485e-07
8.7331e-07
9.16553e-07
9.16044e-07
9.15936e-07
9.15859e-07
9.15882e-07
9.16511e-07
0.000904979
0.000912771
0.000911564
0.000911609
0.000856902
5.37009e-06
9.33796e-07
9.15756e-07
9.15875e-07
9.18304e-07
9.01953e-07
9.0207e-07
9.03639e-07
9.0361e-07
9.06509e-07
9.06533e-07
9.06047e-07
9.0607e-07
8.6679e-07
8.35202e-07
8.70659e-07
8.39419e-07
8.72073e-07
8.35642e-07
8.77636e-07
8.40242e-07
8.74417e-07
8.25636e-07
8.76468e-07
8.38062e-07
8.7362e-07
8.25836e-07
8.77251e-07
8.38639e-07
8.61275e-07
6.73021e-07
6.66327e-07
8.45285e-07
8.2982e-07
8.44182e-07
8.6164e-07
6.73213e-07
8.4666e-07
6.66454e-07
8.31949e-07
8.4165e-07
8.45474e-07
8.38662e-07
8.62486e-07
8.2046e-07
8.48782e-07
8.38647e-07
8.64319e-07
8.20695e-07
8.35365e-07
8.68326e-07
8.4068e-07
8.75304e-07
8.5286e-07
8.77401e-07
8.49912e-07
8.29302e-07
9.16433e-07
9.19689e-07
9.05322e-07
9.05341e-07
9.04638e-07
9.04668e-07
9.01849e-07
9.01567e-07
9.00939e-07
9.00922e-07
8.64852e-07
8.31187e-07
8.705e-07
8.27681e-07
8.65858e-07
8.31351e-07
8.7149e-07
8.27814e-07
8.65627e-07
8.65164e-07
8.47004e-07
8.58899e-07
8.44175e-07
8.15408e-07
8.73137e-07
8.64386e-07
8.46959e-07
8.60992e-07
8.44176e-07
8.14386e-07
8.36821e-07
8.74358e-07
8.4108e-07
8.76589e-07
8.31555e-07
8.68812e-07
8.33452e-07
8.69445e-07
8.53041e-07
8.79613e-07
8.49838e-07
8.83154e-07
8.54529e-07
8.5758e-07
8.56391e-07
8.80707e-07
9.16081e-07
9.16055e-07
9.15928e-07
9.15816e-07
9.15857e-07
9.16498e-07
0.000907955
0.00091298
0.000911492
0.000911871
0.000808524
6.04705e-06
9.87486e-07
9.17383e-07
9.16034e-07
9.01897e-07
9.01897e-07
9.04299e-07
9.04292e-07
9.00502e-07
9.00755e-07
8.98948e-07
8.9899e-07
8.73164e-07
8.32097e-07
8.69831e-07
8.39369e-07
8.72316e-07
8.3249e-07
8.70279e-07
8.39365e-07
8.69417e-07
8.2648e-07
8.60866e-07
8.34091e-07
8.72274e-07
8.26408e-07
8.63202e-07
8.34004e-07
8.66736e-07
8.31519e-07
8.69653e-07
8.35226e-07
8.68899e-07
8.3822e-07
8.74382e-07
8.41856e-07
8.84075e-07
8.3637e-07
8.81146e-07
8.41563e-07
8.83786e-07
8.39801e-07
8.825e-07
8.45731e-07
8.40952e-07
8.83951e-07
8.5352e-07
8.72027e-07
9.1611e-07
9.17718e-07
9.06699e-07
9.06732e-07
9.06041e-07
9.06073e-07
9.0569e-07
9.05612e-07
9.05292e-07
9.05213e-07
8.68338e-07
8.28702e-07
8.71077e-07
8.2674e-07
8.68296e-07
8.286e-07
8.70436e-07
8.26336e-07
8.66685e-07
8.29322e-07
8.65529e-07
8.22862e-07
8.67695e-07
8.29361e-07
8.65724e-07
8.2238e-07
8.39429e-07
8.16502e-07
8.76047e-07
8.23258e-07
8.39065e-07
8.16597e-07
8.76106e-07
8.2347e-07
8.77696e-07
7.56105e-07
8.00619e-07
8.31639e-07
8.33814e-07
8.27341e-07
8.77215e-07
7.8697e-07
7.99928e-07
8.31219e-07
8.36867e-07
8.2692e-07
8.41184e-07
8.84289e-07
8.53598e-07
8.72385e-07
8.43192e-07
8.77154e-07
8.44069e-07
8.77423e-07
9.16323e-07
9.16424e-07
9.15945e-07
9.15777e-07
9.15892e-07
9.16483e-07
0.000909046
0.000913338
0.000911445
0.000909126
0.00079174
1.38525e-05
1.22243e-06
9.43472e-07
9.16855e-07
8.96257e-07
8.96309e-07
8.97425e-07
8.97278e-07
9.01226e-07
9.015e-07
9.02848e-07
9.02879e-07
8.79198e-07
8.42497e-07
8.69973e-07
8.43619e-07
8.79086e-07
8.43145e-07
8.70319e-07
8.43557e-07
8.56132e-07
8.20835e-07
8.53146e-07
8.32684e-07
8.58709e-07
8.20746e-07
8.55278e-07
8.32597e-07
8.2984e-07
7.99056e-07
8.28668e-07
7.99912e-07
9.16337e-07
9.16191e-07
9.0978e-07
9.09812e-07
9.07937e-07
9.07972e-07
9.03031e-07
9.03087e-07
9.02647e-07
9.02583e-07
8.48898e-07
8.16381e-07
8.56905e-07
8.23622e-07
8.49098e-07
8.16344e-07
8.5702e-07
8.2368e-07
8.69354e-07
8.30461e-07
8.66206e-07
8.31041e-07
8.69011e-07
8.30299e-07
8.66306e-07
8.31138e-07
8.77761e-07
8.38046e-07
8.72954e-07
8.29509e-07
8.78121e-07
8.37658e-07
8.7369e-07
8.29012e-07
8.69627e-07
8.28385e-07
8.71178e-07
8.24864e-07
8.69594e-07
8.28272e-07
8.71591e-07
8.24668e-07
9.17512e-07
9.16867e-07
9.16039e-07
9.15751e-07
9.15962e-07
9.16458e-07
0.000909308
0.00091374
0.000911586
0.000911538
0.000846369
4.86646e-05
1.99322e-06
1.02436e-06
8.95393e-07
8.9555e-07
9.10695e-07
9.1082e-07
9.05797e-07
9.05812e-07
8.95976e-07
8.9597e-07
8.28476e-07
8.5266e-07
8.38745e-07
8.63383e-07
8.2856e-07
8.53641e-07
8.38769e-07
8.65623e-07
8.22167e-07
8.69018e-07
8.29457e-07
8.61042e-07
8.21914e-07
8.71283e-07
8.2917e-07
8.63858e-07
8.79616e-07
8.50108e-07
8.73411e-07
8.53327e-07
8.79511e-07
8.50019e-07
8.73279e-07
8.53212e-07
8.65859e-07
8.42815e-07
8.69e-07
8.53312e-07
8.65239e-07
8.4286e-07
8.68961e-07
8.53232e-07
9.1783e-07
9.16149e-07
9.15398e-07
9.04228e-07
9.04206e-07
9.05216e-07
9.05299e-07
9.04953e-07
9.05343e-07
9.0241e-07
9.02414e-07
8.47846e-07
8.12373e-07
8.64219e-07
8.26718e-07
8.47908e-07
8.12536e-07
8.64262e-07
8.2644e-07
8.75068e-07
8.39547e-07
8.72332e-07
8.37313e-07
8.74352e-07
8.3943e-07
8.722e-07
8.37223e-07
7.45904e-07
7.24577e-07
7.46226e-07
7.24361e-07
9.19007e-07
9.17413e-07
9.16208e-07
9.15742e-07
9.16063e-07
9.16545e-07
0.000910341
0.000914363
0.000913964
0.000913407
0.000891288
0.000216068
5.1287e-06
1.34241e-06
9.03488e-07
9.03654e-07
9.2589e-07
9.26055e-07
8.7032e-07
8.25886e-07
8.27605e-07
8.72462e-07
8.65189e-07
8.25857e-07
8.27711e-07
8.67472e-07
9.00736e-07
9.00994e-07
8.29163e-07
8.26099e-07
8.07792e-07
8.54988e-07
8.29148e-07
8.31308e-07
8.08017e-07
8.57816e-07
8.3717e-07
8.68148e-07
8.30285e-07
8.66881e-07
8.37165e-07
8.73388e-07
8.30216e-07
8.72119e-07
8.43616e-07
7.80392e-07
8.45271e-07
7.80822e-07
9.19499e-07
9.1647e-07
9.15919e-07
9.00352e-07
8.99898e-07
9.00376e-07
9.00241e-07
9.05591e-07
9.05856e-07
9.05046e-07
9.05438e-07
8.42664e-07
8.74741e-07
8.4284e-07
8.74188e-07
8.42627e-07
8.74136e-07
8.43097e-07
8.74663e-07
8.37173e-07
8.74956e-07
8.32704e-07
8.7712e-07
8.37155e-07
8.73965e-07
8.32727e-07
8.76616e-07
8.74421e-07
8.23658e-07
8.71626e-07
8.23185e-07
8.73484e-07
8.23636e-07
8.71682e-07
8.22968e-07
8.6422e-07
8.31973e-07
8.61869e-07
8.31771e-07
8.64068e-07
8.31862e-07
8.6207e-07
8.31687e-07
9.19701e-07
9.18108e-07
9.16311e-07
9.1584e-07
9.16379e-07
0.000911929
0.000916124
0.000915179
0.000909781
0.000893012
0.000629855
1.81586e-05
1.45753e-06
1.45736e-06
2.36856e-06
2.36994e-06
8.56858e-07
8.16254e-07
8.8302e-07
8.25839e-07
8.59836e-07
8.16238e-07
8.8528e-07
8.25834e-07
9.56257e-07
9.55966e-07
8.5997e-07
8.25684e-07
8.24086e-07
8.58006e-07
8.59902e-07
8.25635e-07
8.24139e-07
8.57684e-07
8.55224e-07
7.95176e-07
8.71216e-07
8.40015e-07
8.57393e-07
7.95101e-07
8.68923e-07
8.40052e-07
7.71821e-07
8.4949e-07
8.36047e-07
7.96794e-07
7.71794e-07
8.91126e-07
8.35992e-07
8.37481e-07
9.19354e-07
9.17384e-07
9.15947e-07
9.07729e-07
8.98312e-07
8.98632e-07
9.08057e-07
9.08012e-07
8.98745e-07
8.98733e-07
8.65405e-07
8.35145e-07
8.27977e-07
8.71898e-07
8.67046e-07
8.35173e-07
8.27579e-07
8.71942e-07
8.53514e-07
8.76733e-07
8.51471e-07
8.78717e-07
8.53534e-07
8.79002e-07
8.51552e-07
8.80633e-07
8.39236e-07
8.69878e-07
8.2919e-07
8.75043e-07
8.39417e-07
8.69804e-07
8.29405e-07
8.73134e-07
8.43416e-07
8.17223e-07
8.43174e-07
8.17134e-07
9.19767e-07
9.18576e-07
9.13157e-07
9.1632e-07
0.000914396
0.000916145
0.000915324
0.000909841
0.000816406
0.000313926
2.54453e-05
2.54243e-05
0.000110828
0.000110676
1.66451e-06
1.65667e-06
3.67896e-06
3.67936e-06
8.66605e-07
8.16946e-07
8.90489e-07
8.23782e-07
8.70642e-07
8.16851e-07
8.92322e-07
8.2372e-07
8.39107e-07
1.19133e-06
8.90201e-07
1.03506e-06
8.39362e-07
1.18393e-06
8.89364e-07
1.03536e-06
8.69541e-07
8.36699e-07
8.3625e-07
8.77306e-07
8.80646e-07
8.36675e-07
8.36291e-07
8.76799e-07
8.64009e-07
8.33934e-07
8.72114e-07
8.4604e-07
8.67247e-07
8.33739e-07
8.62581e-07
8.46035e-07
9.17464e-07
9.1663e-07
9.16637e-07
9.07029e-07
8.8551e-07
8.85498e-07
8.92911e-07
8.9289e-07
8.92434e-07
8.92478e-07
8.73488e-07
8.25447e-07
8.62612e-07
8.22235e-07
8.73668e-07
8.26514e-07
8.63001e-07
8.22531e-07
8.76572e-07
8.46628e-07
8.6955e-07
8.54429e-07
8.49394e-07
8.21019e-07
8.77577e-07
8.46976e-07
8.68736e-07
8.54425e-07
8.48807e-07
8.20756e-07
8.7169e-07
8.47971e-07
8.7241e-07
8.47896e-07
8.01704e-07
8.66759e-07
8.42288e-07
8.46735e-07
8.01871e-07
8.66933e-07
8.42428e-07
8.4592e-07
9.19732e-07
9.16326e-07
9.13497e-07
0.000916334
0.000915854
0.00091475
0.00086096
0.0003746
2.15468e-05
2.86214e-05
2.87049e-05
1.51063e-05
1.51114e-05
1.84866e-06
1.2308e-06
1.50408e-06
2.41556e-06
1.54241e-06
9.28024e-07
1.22374e-06
1.84839e-06
9.2705e-07
1.50231e-06
2.42314e-06
1.54132e-06
7.00978e-06
5.02679e-06
5.20103e-06
3.7434e-06
7.10483e-06
5.02325e-06
5.23268e-06
3.74101e-06
8.96947e-07
8.24093e-07
9.1017e-07
8.33274e-07
8.97263e-07
8.2416e-07
9.09863e-07
8.33514e-07
8.4507e-07
1.10145e-06
8.45818e-07
1.1015e-06
8.22282e-07
8.51623e-07
8.22297e-07
8.39415e-07
8.35917e-07
7.86467e-07
8.36581e-07
7.86697e-07
9.16215e-07
9.1611e-07
9.16077e-07
9.15942e-07
8.65483e-07
8.65651e-07
8.78536e-07
8.78751e-07
8.86153e-07
8.86154e-07
8.83917e-07
8.83839e-07
8.13279e-07
8.37193e-07
8.00972e-07
8.56676e-07
8.23187e-07
8.30195e-07
8.13839e-07
8.37968e-07
8.01469e-07
8.56194e-07
8.23586e-07
8.29998e-07
8.67924e-07
8.44225e-07
8.67379e-07
8.44075e-07
8.70979e-07
8.45924e-07
8.60221e-07
8.77288e-07
8.33157e-07
8.53863e-07
8.71176e-07
8.45975e-07
8.60232e-07
8.76598e-07
8.33e-07
8.53941e-07
8.69133e-07
8.44571e-07
8.69191e-07
8.44635e-07
9.20026e-07
9.15083e-07
0.000915117
0.000915803
0.000893773
0.000448091
4.54581e-05
4.69729e-06
4.70356e-06
9.21806e-06
9.25035e-06
1.20442e-05
1.21388e-05
4.56923e-06
4.57767e-06
1.44423e-06
1.96352e-06
1.35914e-06
1.15012e-06
3.64552e-06
1.96342e-06
1.44642e-06
1.96356e-06
1.14505e-06
1.35644e-06
3.65917e-06
1.95881e-06
9.76345e-06
1.00094e-05
5.7199e-06
4.71366e-06
9.9242e-06
1.00165e-05
5.75574e-06
4.69825e-06
9.304e-07
7.88735e-07
9.30365e-07
7.90364e-07
9.17099e-07
9.16116e-07
9.13674e-07
9.15808e-07
9.06433e-07
8.80951e-07
8.81067e-07
8.94388e-07
8.93652e-07
7.98741e-07
7.77465e-07
8.15323e-07
8.02018e-07
7.99686e-07
7.77746e-07
8.15996e-07
8.02798e-07
8.11923e-07
8.33905e-07
7.86262e-07
8.27964e-07
8.05186e-07
7.95467e-07
8.16136e-07
8.34083e-07
7.86354e-07
8.27046e-07
8.0554e-07
7.95429e-07
8.13509e-07
8.32275e-07
8.45913e-07
8.5807e-07
8.13488e-07
8.3183e-07
8.45808e-07
8.57107e-07
8.49498e-07
8.25705e-07
8.50059e-07
8.26019e-07
8.48185e-07
7.69179e-07
8.33325e-07
8.1566e-07
8.49891e-07
7.69893e-07
8.34523e-07
8.16317e-07
9.18222e-07
0.000913451
0.000912007
0.000688761
0.000112034
1.63147e-05
3.36415e-06
3.3689e-06
5.3288e-06
5.32407e-06
3.98644e-06
7.3258e-06
1.02595e-05
7.24833e-06
3.97476e-06
7.38121e-06
1.02206e-05
7.22466e-06
3.18065e-06
3.18417e-06
9.01993e-06
1.30691e-05
7.21512e-06
1.0471e-05
9.13968e-06
1.30825e-05
7.26175e-06
1.04383e-05
9.15066e-07
9.16239e-07
9.12816e-07
8.97244e-07
9.20262e-07
8.64068e-07
8.64111e-07
8.74863e-07
8.67621e-07
8.7864e-07
8.79212e-07
8.80665e-07
8.79608e-07
8.08993e-07
7.82436e-07
8.11677e-07
7.90226e-07
8.09464e-07
7.82109e-07
8.12193e-07
7.90366e-07
7.96135e-07
7.69833e-07
7.66274e-07
7.51171e-07
8.10785e-07
7.76077e-07
7.96051e-07
7.82455e-07
7.51216e-07
7.66303e-07
8.08876e-07
7.76429e-07
7.1762e-07
7.94268e-07
7.1788e-07
7.8971e-07
0.000911428
0.000891705
0.00035459
5.08572e-05
7.05203e-06
7.03027e-06
1.71224e-05
1.70983e-05
3.48892e-06
3.50171e-06
4.0942e-06
4.07875e-06
2.11849e-06
4.61272e-06
2.82823e-06
4.47379e-06
2.10994e-06
4.62967e-06
2.81848e-06
4.44869e-06
3.74438e-06
3.11678e-06
3.90539e-06
2.80407e-06
3.82465e-06
3.1187e-06
3.89735e-06
2.77778e-06
5.16913e-06
3.74849e-06
5.19547e-06
3.77017e-06
9.11235e-07
9.12961e-07
9.05872e-07
9.44929e-07
9.50667e-07
8.4481e-07
8.67657e-07
8.71532e-07
8.88667e-07
8.49865e-07
8.50362e-07
7.4741e-07
8.27536e-07
7.73267e-07
7.56471e-07
7.48533e-07
8.26182e-07
7.73419e-07
7.56438e-07
8.0664e-07
7.68325e-07
7.9023e-07
7.14175e-07
8.07366e-07
7.68885e-07
7.90518e-07
7.16061e-07
0.000910439
0.000802819
0.000179518
3.78721e-05
5.26777e-06
5.2756e-06
1.71992e-05
1.71877e-05
3.28427e-06
3.61014e-06
3.66579e-06
3.23259e-06
3.62666e-06
3.50197e-06
3.32911e-06
3.60893e-06
3.66718e-06
3.2783e-06
3.62554e-06
3.51964e-06
3.34535e-06
3.34474e-06
1.94899e-06
4.45736e-06
1.9791e-06
3.81163e-06
1.94909e-06
4.47817e-06
1.98029e-06
3.80437e-06
3.33802e-06
2.1779e-06
3.35572e-06
2.15607e-06
9.16506e-07
9.18614e-07
9.7731e-07
1.47995e-06
1.22137e-06
1.23662e-06
9.46032e-07
9.48163e-07
8.99064e-07
9.04346e-07
8.69991e-07
8.69867e-07
7.54425e-07
7.46896e-07
7.98654e-07
7.47528e-07
7.67871e-07
7.60758e-07
7.52865e-07
7.47021e-07
7.98923e-07
7.48172e-07
7.66869e-07
7.61837e-07
8.07638e-07
7.64335e-07
8.06128e-07
7.65182e-07
7.65458e-07
7.32459e-07
7.66067e-07
7.32747e-07
0.000903624
0.000648469
0.000101426
3.11557e-05
2.96343e-05
4.20811e-05
4.00636e-05
7.61854e-06
7.66741e-06
2.75471e-05
2.73916e-05
3.05637e-06
2.95077e-06
2.90617e-06
3.09923e-06
2.53493e-06
3.29414e-06
3.07933e-06
2.92455e-06
2.87071e-06
3.11594e-06
2.51972e-06
3.31557e-06
5.05854e-06
2.88424e-06
3.59862e-06
2.54726e-06
5.12327e-06
2.88345e-06
3.6191e-06
2.55007e-06
9.17541e-07
9.58466e-07
1.50776e-06
3.0881e-06
1.16876e-06
1.19849e-06
1.06647e-06
1.07626e-06
9.23271e-07
9.27964e-07
7.81246e-07
7.43331e-07
7.32344e-07
8.04978e-07
7.21778e-07
7.78716e-07
7.33338e-07
8.05317e-07
7.21726e-07
7.81927e-07
7.78315e-07
7.43253e-07
8.23834e-07
8.02399e-07
7.65407e-07
7.21637e-07
8.23845e-07
8.01166e-07
7.65154e-07
7.2317e-07
7.1686e-07
6.72637e-07
7.18126e-07
6.73466e-07
0.000901886
0.000676787
6.79048e-05
1.93051e-05
1.87415e-05
3.85894e-05
3.68257e-05
5.63622e-06
6.39786e-06
3.63784e-05
1.62143e-05
2.95016e-05
3.64866e-05
5.63469e-06
6.4009e-06
3.63601e-05
1.60241e-05
2.99386e-05
3.6531e-05
3.2487e-05
3.2131e-05
1.98214e-06
3.13775e-06
1.98254e-06
3.14631e-06
4.38179e-06
2.37959e-06
4.39396e-06
2.38437e-06
9.2003e-07
1.03678e-06
2.45424e-06
5.35015e-06
5.37132e-06
1.6581e-06
1.77245e-06
1.14756e-06
1.1762e-06
1.12592e-06
1.13298e-06
1.06716e-06
7.97317e-07
9.29384e-07
7.66032e-07
8.05094e-07
7.44171e-07
1.09968e-06
8.08652e-07
7.44581e-07
7.97474e-07
9.34306e-07
7.66542e-07
8.0003e-07
7.52899e-07
8.01969e-07
7.20669e-07
8.03149e-07
8.00463e-07
7.20204e-07
7.5392e-07
0.000878543
0.000757832
6.42193e-05
1.47032e-05
1.45567e-05
4.56707e-05
4.40516e-05
7.71759e-06
6.53054e-06
3.71982e-05
2.44388e-05
1.71341e-05
3.58482e-05
7.73542e-06
6.58093e-06
3.72092e-05
2.40388e-05
1.72919e-05
3.40479e-05
1.70122e-05
8.53652e-06
2.17335e-05
1.03767e-05
1.73089e-05
8.32488e-06
2.17177e-05
1.0767e-05
5.70395e-06
2.56843e-06
5.72318e-06
2.58668e-06
9.17535e-07
1.03514e-06
1.66646e-06
3.58549e-06
3.78771e-06
1.64853e-06
1.77141e-06
1.08355e-06
1.10983e-06
1.05632e-06
8.19641e-07
8.1638e-07
1.06164e-06
8.26072e-07
1.02876e-06
1.05699e-06
8.19688e-07
8.16485e-07
1.0731e-06
8.2634e-07
1.04504e-06
8.88636e-07
8.34833e-07
8.03879e-07
7.35973e-07
8.35674e-07
7.3649e-07
8.93338e-07
8.05814e-07
0.000892337
0.000133785
0.000370905
7.14571e-05
7.4175e-05
0.00038766
0.00084838
0.00084301
1.55806e-05
1.31682e-05
5.44003e-06
1.57088e-05
1.3748e-05
5.40194e-06
1.73689e-05
7.36284e-06
1.46719e-05
2.68655e-05
1.49196e-05
2.64074e-05
1.72957e-05
7.42622e-06
1.40892e-05
2.68423e-05
1.48427e-05
2.52942e-05
1.82486e-05
5.87922e-06
1.77757e-05
5.73316e-06
9.10729e-07
9.40535e-07
1.01194e-06
2.15635e-06
2.16682e-06
1.79146e-06
1.93155e-06
1.24407e-06
8.2409e-07
1.02903e-06
8.13267e-07
9.71409e-07
8.13044e-07
1.37987e-06
9.94442e-07
8.15587e-07
8.25886e-07
1.10372e-06
8.14815e-07
1.04665e-06
7.94698e-07
9.80093e-07
7.97024e-07
1.05434e-06
8.19867e-07
1.02413e-06
7.99819e-07
1.07576e-06
6.21674e-07
1.08954e-06
6.36313e-07
0.000393047
0.000838247
0.000245166
0.000844241
0.000261434
0.000845344
0.000863349
0.000871269
3.17332e-05
1.05987e-05
6.05013e-06
1.15999e-05
5.30397e-06
3.45414e-05
0.000235405
0.000234064
1.05643e-05
3.08259e-05
6.72291e-06
1.19544e-05
5.30373e-06
3.56021e-05
0.00021076
0.000228463
1.28922e-05
2.56811e-05
1.14682e-05
2.44784e-05
1.59447e-05
5.7296e-06
1.52792e-05
5.34152e-06
9.1257e-07
9.214e-07
9.07581e-07
1.35e-06
1.35556e-06
9.07487e-07
9.27845e-07
9.33287e-07
1.26584e-06
1.39639e-06
8.41012e-07
1.28898e-06
1.52354e-06
8.49151e-07
1.0131e-06
1.1379e-06
8.39626e-07
8.42682e-07
1.04336e-06
8.4213e-07
1.22976e-06
8.49534e-07
9.70389e-07
7.74964e-07
9.69831e-07
7.88732e-07
1.03881e-06
8.27197e-07
9.96385e-07
7.89707e-07
0.000857134
0.000907949
0.000796267
0.00038696
0.00024705
0.000898185
0.00079573
0.000383154
0.000216274
0.000899439
0.000870923
0.000883783
1.15836e-05
0.000100023
9.84105e-06
6.30985e-06
1.82703e-05
0.000245409
1.12791e-05
9.63532e-06
9.36649e-05
5.83187e-06
1.72241e-05
0.000241433
1.39884e-05
1.99728e-05
1.34591e-05
1.92524e-05
9.19194e-07
9.19863e-07
9.06795e-07
1.01775e-06
1.00859e-06
9.05022e-07
9.24252e-07
9.22216e-07
1.23617e-06
1.6796e-06
9.63863e-07
1.66895e-06
9.22915e-07
8.78929e-07
1.00331e-06
8.38855e-07
1.21773e-06
1.83582e-06
9.71829e-07
1.84259e-06
9.32775e-07
8.80475e-07
9.99021e-07
8.38863e-07
1.00987e-06
1.22971e-06
8.53633e-07
8.67376e-07
1.04368e-06
8.54564e-07
1.3563e-06
8.76147e-07
0.000883624
0.000898213
0.000898325
0.000897869
0.000898118
0.000903263
0.000903143
0.000864586
0.000687091
0.000846938
0.000833826
0.000688762
0.000854899
0.000877334
0.000856439
0.000897797
0.000862123
0.00086186
0.000866316
0.000661022
0.000848513
0.000834112
0.000692043
0.000854181
0.000876288
0.000856475
0.000896826
0.000862635
0.000861785
2.49713e-05
0.000579899
4.63093e-05
0.000607802
2.48648e-05
0.000623363
3.56643e-05
0.000575401
9.22426e-07
9.20461e-07
8.99056e-07
9.20155e-07
8.49943e-07
9.70317e-07
9.17202e-07
8.50111e-07
9.5991e-07
9.00456e-07
8.99929e-07
9.0087e-07
1.4517e-06
1.23718e-06
1.32953e-06
1.01148e-06