/*--------------------------------*- C++ -*----------------------------------*\
| =========                 |                                                 |
| \\      /  F ield         | OpenFOAM: The Open Source CFD Toolbox           |
|  \\    /   O peration     | Version:  5.x                                   |
|   \\  /    A nd           | Web:      www.OpenFOAM.org                      |
|    \\/     M anipulation  |                                                 |
\*---------------------------------------------------------------------------*/
FoamFile
{
    version     2.0;
    format      ascii;
    class       volVectorField;
    location    "2.4";
    object      U;
}
// * * * * * * * * * * * * * * * * * * * * * * * * * * * * * * * * * * * * * //

dimensions      [0 1 -1 0 0 0 0];

internalField   nonuniform List<vector> 
12160
(
(0.122759 0 0.000626811)
(0.100012 0 0.00215091)
(0.122834 0 -0.00130964)
(0.108992 0 0.00391698)
(0.100018 0 -0.00150059)
(0.122582 0 0.000166776)
(0.100112 0 0.00514444)
(0.108849 0 -0.000658051)
(0.0997501 0 0.00300812)
(0.122371 0 -0.00202972)
(0.0905738 0 0.00560955)
(0.10005 0 0.00102872)
(0.108989 0 0.00733284)
(0.0989884 0 -0.0010076)
(0.12188 0 0.000513195)
(0.0781751 0 0.00552387)
(0.0900259 0 0.00368675)
(0.10029 0 0.0115363)
(0.107191 0 0.00228292)
(0.0982623 0 0.00450046)
(0.120747 0 -0.00190811)
(0.064787 0 0.00522565)
(0.077992 0 0.00575594)
(0.090953 0 0.0146856)
(0.0982597 0 0.00691477)
(0.107246 0 0.0112035)
(0.0952753 0 -0.000118465)
(0.120201 0 0.00291803)
(0.0508202 0 0.00504203)
(0.0647747 0 0.00688055)
(0.0790043 0 0.0163961)
(0.0884559 0 0.0128259)
(0.0982421 0 0.0178306)
(0.10211 0 0.00528439)
(0.0944776 0 0.00762359)
(0.113784 0 0.000379159)
(0.0363963 0 0.00487178)
(0.0509081 0 0.00785229)
(0.0654221 0 0.017061)
(0.0777238 0 0.0168698)
(0.0898077 0 0.0233033)
(0.0917922 0 0.0124972)
(0.102837 0 0.0162674)
(0.0781496 0 0.00200603)
(0.0508214 0 0.0150114)
(0.0219956 0 0.00471003)
(0.0364941 0 0.00833632)
(0.0514997 0 0.0177803)
(0.0647187 0 0.0190838)
(0.0796117 0 0.0267563)
(0.0853685 0 0.0208415)
(0.0929398 0 0.0227014)
(0.0872852 0 0.00872593)
(0.020169 0 0.0130642)
(-0.20845 0 -0.0417807)
(0.00807383 0 0.00451623)
(0.0220516 0 0.00839232)
(0.0368279 0 0.0180615)
(0.051244 0 0.0208535)
(0.0667056 0 0.0286923)
(0.0775519 0 0.0269203)
(0.087627 0 0.0291277)
(0.0772808 0 0.0177981)
(0.0427027 0 0.018613)
(-0.257408 0 0.00396626)
(0.0126898 0 0.188224)
(-0.00500932 0 0.0043018)
(0.00807085 0 0.00806195)
(0.0221142 0 0.0178888)
(0.0365725 0 0.0217639)
(0.0525529 0 0.0305692)
(0.066073 0 0.0311154)
(0.0799481 0 0.0345016)
(0.0765652 0 0.0277404)
(0.0537052 0 0.0233297)
(-0.337932 0 -0.00136709)
(0.246376 0 0.0504672)
(0.012228 0 -0.12759)
(-0.016878 0 0.00408361)
(-0.00505033 0 0.00750799)
(0.00791804 0 0.0172417)
(0.0216915 0 0.0216801)
(0.0370149 0 0.0316704)
(0.0524298 0 0.0344623)
(0.0683144 0 0.038915)
(0.0736049 0 0.0367876)
(0.0619386 0 0.0284027)
(-0.30991 0 0.0101004)
(0.0701232 0 0.0501833)
(0.153736 0 -0.00164416)
(-0.095561 0 0.106992)
(-0.0277162 0 0.00371055)
(-0.0170232 0 0.00693714)
(-0.0053069 0 0.0163207)
(0.00733233 0 0.0207228)
(0.0215246 0 0.0314656)
(0.0368995 0 0.036115)
(0.0536583 0 0.0428768)
(0.065754 0 0.0444227)
(0.0724231 0 0.0359938)
(-0.220817 0 0.0212173)
(-0.0913219 0 -0.0225892)
(0.0852614 0 0.137011)
(-0.137295 0 0.0100604)
(0.0389979 0 -0.0240554)
(-0.0369857 0 0.00310668)
(-0.0279916 0 0.00615155)
(-0.0173271 0 0.0153909)
(-0.0059684 0 0.0193413)
(0.00680102 0 0.030159)
(0.0210639 0 0.0358479)
(0.0365135 0 0.0450257)
(0.0538342 0 0.0510036)
(0.0739241 0 0.043936)
(-0.141338 0 0.0327247)
(-0.171396 0 -0.0392608)
(0.0680153 0 0.0965426)
(-0.0377223 0 0.07741)
(0.0942125 0 -0.0113152)
(-0.0554763 0 0.0403898)
(-0.0442622 0 0.00233923)
(-0.0375962 0 0.00499754)
(-0.0283205 0 0.0140307)
(-0.018188 0 0.0180517)
(-0.00655091 0 0.0283905)
(0.00599913 0 0.0341899)
(0.019453 0 0.0446753)
(0.0377831 0 0.0540472)
(0.0707391 0 0.0516691)
(-0.102901 0 0.0457433)
(-0.244249 0 -0.0123528)
(0.0355299 0 0.0711111)
(-0.00701956 0 0.0185528)
(0.0525339 0 0.0966607)
(-0.0978457 0 -0.00499343)
(-0.0485929 0 0.00137888)
(-0.0451929 0 0.00341225)
(-0.0382855 0 0.0118815)
(-0.0297157 0 0.0163087)
(-0.0187827 0 0.0267405)
(-0.0074859 0 0.0323584)
(0.00387586 0 0.0422384)
(0.021064 0 0.05294)
(0.0642273 0 0.0560511)
(-0.0663875 0 0.0558104)
(-0.29415 0 0.0152076)
(-0.00117719 0 0.0789808)
(-0.012045 0 0.00289787)
(0.0462087 0 0.0687796)
(-0.0446242 0 0.0782182)
(-0.0484623 0 0.000233747)
(-0.049592 0 0.00076082)
(-0.0465432 0 0.00874181)
(-0.0403243 0 0.0136461)
(-0.0303823 0 0.0246254)
(-0.0199767 0 0.0308892)
(-0.0095737 0 0.0393445)
(0.00564828 0 0.0492985)
(0.0566483 0 0.0561446)
(-0.0389559 0 0.0603942)
(-0.347324 0 0.0284272)
(-0.0048681 0 0.0768225)
(-0.000936001 0 0.0206465)
(0.0153878 0 0.0556446)
(-0.02728 0 0.0475903)
(-0.0434887 0 -0.00120946)
(-0.0498288 0 -0.00293159)
(-0.0518377 0 0.0041688)
(-0.0492632 0 0.00975566)
(-0.0414908 0 0.0215152)
(-0.032084 0 0.0287779)
(-0.0221102 0 0.0369158)
(-0.00744802 0 0.0466068)
(0.0474699 0 0.053647)
(-0.0154448 0 0.0602912)
(-0.35636 0 0.037409)
(-0.00909806 0 0.080003)
(0.0079575 0 0.0293788)
(-0.00366312 0 0.0553523)
(-0.0107994 0 0.0369175)
(-0.0329713 0 -0.00286122)
(-0.0450856 0 -0.00724015)
(-0.0527366 0 -0.0018573)
(-0.0552002 0 0.00360133)
(-0.0516707 0 0.016815)
(-0.0441359 0 0.0250583)
(-0.0345464 0 0.0343181)
(-0.0199571 0 0.0452474)
(0.0372671 0 0.0522029)
(0.00341484 0 0.0577533)
(-0.268501 0 0.039263)
(0.0127046 0 0.0313066)
(0.0299653 0 0.0261123)
(-0.00559036 0 0.0538918)
(0.000870723 0 0.0416078)
(-0.0169221 0 -0.00444996)
(-0.0346601 0 -0.0118535)
(-0.0482966 0 -0.00918168)
(-0.0569768 0 -0.00507369)
(-0.059503 0 0.00891103)
(-0.0556801 0 0.0191006)
(-0.0470781 0 0.030888)
(-0.0333559 0 0.0434237)
(0.0244828 0 0.0504207)
(0.0175085 0 0.0582708)
(-0.170255 0 0.0394772)
(0.0295389 0 -0.0245649)
(0.0533205 0 0.0211612)
(-0.0100587 0 0.050752)
(0.00614241 0 0.0421202)
(0.00396386 0 -0.00581144)
(-0.0185131 0 -0.0164338)
(-0.0380059 0 -0.0172706)
(-0.0534532 0 -0.0155116)
(-0.0628221 0 -0.00218066)
(-0.0650858 0 0.00903768)
(-0.0603102 0 0.0260331)
(-0.0482609 0 0.0400341)
(0.00806143 0 0.0485188)
(0.023173 0 0.0615055)
(-0.0916085 0 0.0428868)
(0.033644 0 -0.0223792)
(0.0387237 0 0.0257928)
(-0.0147503 0 0.0264381)
(0.0171248 0 0.0378944)
(0.0289301 0 -0.0068663)
(0.00261824 0 -0.0205388)
(-0.0217776 0 -0.0251865)
(-0.0434796 0 -0.026795)
(-0.0600083 0 -0.0159786)
(-0.0700652 0 -0.00521961)
(-0.0724473 0 0.0167009)
(-0.065235 0 0.0340838)
(-0.0135051 0 0.0461841)
(0.0161083 0 0.0653812)
(-0.0436005 0 0.0507718)
(0.0149847 0 0.000824814)
(0.00626761 0 0.0418415)
(-0.015581 0 -0.0015482)
(0.0252869 0 0.0261006)
(0.056459 0 -0.0075104)
(0.0279596 0 -0.0237337)
(-0.000196946 0 -0.0322008)
(-0.0268836 0 -0.038097)
(-0.0504153 0 -0.0314503)
(-0.0690993 0 -0.0226511)
(-0.0798215 0 0.000856502)
(-0.0813194 0 0.0202208)
(-0.036745 0 0.0422244)
(-0.00148241 0 0.0666868)
(-0.0271383 0 0.0600232)
(-0.0114195 0 0.0311489)
(0.0047618 0 0.0491437)
(-0.00183218 0 0.00121428)
(0.0173633 0 0.0150917)
(0.084662 0 -0.007709)
(0.055969 0 -0.0257133)
(0.0259238 0 -0.0376069)
(-0.00447148 0 -0.0482667)
(-0.0338003 0 -0.0467107)
(-0.060273 0 -0.0414475)
(-0.0800221 0 -0.0205084)
(-0.092539 0 -0.0014006)
(-0.0585403 0 0.0311139)
(-0.0245501 0 0.0613727)
(-0.0396656 0 0.0661158)
(-0.0224004 0 0.0591815)
(0.022729 0 0.0541019)
(0.0106713 0 0.0122659)
(-0.00591021 0 0.021374)
(0.112354 0 -0.00746347)
(0.0846944 0 -0.0263264)
(0.054922 0 -0.0409577)
(0.0228789 0 -0.0562)
(-0.0105225 0 -0.0604312)
(-0.0430607 0 -0.0606712)
(-0.0724517 0 -0.0455275)
(-0.0957267 0 -0.0274234)
(-0.0771301 0 0.00997463)
(-0.0484821 0 0.0448855)
(-0.070636 0 0.0650903)
(-0.036419 0 0.0792303)
(0.0409087 0 0.0641466)
(0.0107976 0 0.0327089)
(-0.017875 0 0.0262256)
(0.138209 0 -0.00685307)
(0.112878 0 -0.0256229)
(0.0847131 0 -0.0419468)
(0.0534196 0 -0.0611288)
(0.0184571 0 -0.0710064)
(-0.0182675 0 -0.0783023)
(-0.0553797 0 -0.0709084)
(-0.0880765 0 -0.055179)
(-0.0873365 0 -0.0217011)
(-0.0639301 0 0.0159296)
(-0.111058 0 0.0501159)
(-0.0554675 0 0.0890769)
(0.0448396 0 0.077957)
(0.0140105 0 0.05922)
(-0.01507 0 0.0357406)
(0.161175 0 -0.00592489)
(0.139154 0 -0.0237835)
(0.113906 0 -0.0407383)
(0.0848509 0 -0.0625961)
(0.0511443 0 -0.0774883)
(0.0130309 0 -0.0920279)
(-0.028543 0 -0.092914)
(-0.0697878 0 -0.0839903)
(-0.0833839 0 -0.0601911)
(-0.0691492 0 -0.0217276)
(-0.152773 0 0.0197876)
(-0.085899 0 0.0809342)
(0.0636659 0 0.085557)
(0.0250928 0 0.0757892)
(-0.00683818 0 0.0520694)
(0.180586 0 -0.00477753)
(0.162454 0 -0.0211071)
(0.141015 0 -0.0375751)
(0.115582 0 -0.0607554)
(0.0849327 0 -0.0793767)
(0.048502 0 -0.100681)
(0.00547004 0 -0.109638)
(-0.0411573 0 -0.112236)
(-0.0645194 0 -0.100355)
(-0.0642856 0 -0.0636572)
(-0.171714 0 -0.0236593)
(-0.141889 0 0.0489563)
(0.0894232 0 0.0920822)
(0.0371619 0 0.0746312)
(0.00381982 0 0.0664404)
(0.196107 0 -0.00352009)
(0.182092 0 -0.0178757)
(0.164919 0 -0.0329371)
(0.144039 0 -0.056133)
(0.117849 0 -0.076805)
(0.0852523 0 -0.1033)
(0.044479 0 -0.119958)
(-0.0038513 0 -0.134624)
(-0.0359251 0 -0.134514)
(-0.0485111 0 -0.103921)
(-0.157236 0 -0.0760584)
(-0.212412 0 -0.0227137)
(0.118279 0 0.0816545)
(0.0525124 0 0.0620036)
(0.0128222 0 0.0688061)
(0.207656 0 -0.00227082)
(0.197739 0 -0.0143245)
(0.184972 0 -0.027291)
(0.169001 0 -0.0494754)
(0.148022 0 -0.0704885)
(0.121002 0 -0.100024)
(0.0852994 0 -0.122926)
(0.0393796 0 -0.148539)
(-0.00172445 0 -0.160252)
(-0.0250287 0 -0.139402)
(-0.128993 0 -0.128599)
(-0.211604 0 -0.0907066)
(0.160993 0 0.0161885)
(0.0776128 0 0.0247701)
(0.0188321 0 0.061584)
(0.215323 0 -0.00100627)
(0.209358 0 -0.0106532)
(0.200886 0 -0.0211423)
(0.189743 0 -0.0414908)
(0.17418 0 -0.0614557)
(0.153601 0 -0.0918154)
(0.124997 0 -0.118731)
(0.0845185 0 -0.152417)
(0.0370893 0 -0.175696)
(0.00529673 0 -0.167035)
(-0.084402 0 -0.173756)
(-0.15973 0 -0.151125)
(0.171997 0 -0.0926814)
(0.110178 0 -0.040628)
(0.0229735 0 0.038754)
(0.219376 0 0.000321527)
(0.217092 0 -0.00699106)
(0.212617 0 -0.014866)
(0.205967 0 -0.0328449)
(0.19568 0 -0.0506233)
(0.181684 0 -0.0797286)
(0.160925 0 -0.108462)
(0.128035 0 -0.146266)
(0.0767742 0 -0.179675)
(0.0380814 0 -0.184707)
(-0.0240224 0 -0.20806)
(-0.0974549 0 -0.203148)
(0.147494 0 -0.176157)
(0.112653 0 -0.0924687)
(0.00264692 0 -0.0158324)
(0.219575 0 0.0017655)
(0.221089 0 -0.00337898)
(0.220319 0 -0.00862075)
(0.217818 0 -0.0240781)
(0.212314 0 -0.039007)
(0.204353 0 -0.0658727)
(0.191589 0 -0.0946722)
(0.166827 0 -0.133035)
(0.114529 0 -0.172275)
(0.0767808 0 -0.189432)
(0.0639119 0 -0.229485)
(-0.0311864 0 -0.250399)
(0.0988408 0 -0.232188)
(0.090172 0 -0.126033)
(-0.0102313 0 -0.0870391)
(0.216977 0 0.00270016)
(0.221465 0 5.56289e-05)
(0.224247 0 -0.00233913)
(0.225698 0 -0.0154271)
(0.224291 0 -0.0273686)
(0.221375 0 -0.0516947)
(0.214923 0 -0.0767518)
(0.197861 0 -0.113958)
(0.15048 0 -0.154434)
(0.119062 0 -0.183325)
(0.145434 0 -0.232976)
(0.0273943 0 -0.285108)
(0.0557811 0 -0.274295)
(0.0740564 0 -0.172339)
(0.00122736 0 -0.141482)
(0.211113 0 0.00381362)
(0.218453 0 0.00347785)
(0.224652 0 0.00383837)
(0.229767 0 -0.00684382)
(0.232113 0 -0.015998)
(0.233197 0 -0.0380263)
(0.231367 0 -0.0573851)
(0.221134 0 -0.0927195)
(0.182536 0 -0.128024)
(0.163508 0 -0.16948)
(0.211678 0 -0.228469)
(0.0863136 0 -0.288324)
(0.0165424 0 -0.293747)
(0.0456774 0 -0.216659)
(0.00645938 0 -0.18571)
(0.202574 0 0.00482339)
(0.212368 0 0.00669812)
(0.221607 0 0.00963717)
(0.229946 0 0.00168231)
(0.236142 0 -0.00462498)
(0.241445 0 -0.0245187)
(0.242822 0 -0.03939)
(0.236775 0 -0.0719199)
(0.206957 0 -0.0985978)
(0.211855 0 -0.148666)
(0.277874 0 -0.214169)
(0.128298 0 -0.274613)
(-0.0215603 0 -0.287514)
(0.0150845 0 -0.245198)
(0.00681722 0 -0.223032)
(0.191861 0 0.00564094)
(0.203791 0 0.00951181)
(0.215257 0 0.0149947)
(0.226512 0 0.0100204)
(0.236524 0 0.00663585)
(0.245656 0 -0.0108)
(0.250177 0 -0.0232788)
(0.246167 0 -0.0529581)
(0.22063 0 -0.070011)
(0.263743 0 -0.120594)
(0.340254 0 -0.191985)
(0.155417 0 -0.25674)
(-0.0642667 0 -0.262983)
(-0.0140453 0 -0.243906)
(0.00284296 0 -0.246591)
(0.179801 0 0.00627715)
(0.192977 0 0.0117657)
(0.206231 0 0.0197448)
(0.219788 0 0.0176861)
(0.232987 0 0.0175641)
(0.245823 0 0.003526)
(0.255245 0 -0.00684766)
(0.251725 0 -0.0354542)
(0.223573 0 -0.045744)
(0.316293 0 -0.0876636)
(0.403872 0 -0.164362)
(0.147517 0 -0.229955)
(-0.112871 0 -0.227238)
(-0.0364623 0 -0.224694)
(-0.00184975 0 -0.247084)
(0.166117 0 0.00665001)
(0.180856 0 0.0135047)
(0.194912 0 0.0236505)
(0.210249 0 0.0243146)
(0.225554 0 0.0277126)
(0.24192 0 0.0176609)
(0.256592 0 0.00966964)
(0.254294 0 -0.0170982)
(0.218689 0 -0.0267488)
(0.364791 0 -0.0556936)
(0.466946 0 -0.134958)
(0.108713 0 -0.193245)
(-0.143588 0 -0.169878)
(-0.0405894 0 -0.200203)
(-0.00277768 0 -0.234633)
(0.166963 0 0.0144215)
(0.145353 0 0.00726122)
(0.182274 0 0.0268001)
(0.198363 0 0.0296379)
(0.214949 0 0.0365812)
(0.234008 0 0.0305569)
(0.25242 0 0.0265291)
(0.25312 0 0.00535312)
(0.209532 0 -0.0080379)
(0.406731 0 -0.0296873)
(0.513216 0 -0.106083)
(0.00769 0 -0.143881)
(-0.151619 0 -0.0949369)
(-0.0514959 0 -0.188048)
(0.00159225 0 -0.213205)
(0.167927 0 0.028807)
(0.145486 0 0.015475)
(0.108864 0 0.00699916)
(0.184985 0 0.0337543)
(0.201865 0 0.0438416)
(0.222651 0 0.0414458)
(0.242767 0 0.0425391)
(0.245644 0 0.0283778)
(0.198819 0 0.0148302)
(0.438898 0 -0.00550802)
(0.542903 0 -0.0809976)
(-0.0550514 0 -0.092446)
(-0.1501 0 -0.0462619)
(-0.0555437 0 -0.162645)
(0.0104813 0 -0.181316)
(0.170033 0 0.0363699)
(0.145593 0 0.0310776)
(0.108347 0 0.0145393)
(0.0880135 0 0.00584746)
(0.187272 0 0.0495412)
(0.208672 0 0.0500019)
(0.228837 0 0.0564164)
(0.232698 0 0.0485438)
(0.190219 0 0.0388439)
(0.438576 0 0.020088)
(0.551528 0 -0.0332501)
(-0.123508 0 -0.0467249)
(-0.146959 0 -0.0278154)
(-0.0396579 0 -0.126643)
(0.00818714 0 -0.134731)
(0.171193 0 0.0534092)
(0.146399 0 0.0390179)
(0.107251 0 0.0297417)
(0.0863439 0 0.0114592)
(0.0636219 0 0.00313028)
(0.192884 0 0.0563626)
(0.212187 0 0.0677211)
(0.216104 0 0.0642464)
(0.181088 0 0.0608709)
(0.405625 0 0.0413457)
(0.533605 0 0.0373739)
(-0.164961 0 0.0110343)
(-0.138515 0 -0.0209659)
(-0.0186609 0 -0.0898125)
(-0.00724863 0 -0.0921854)
(0.175636 0 0.0605479)
(0.146246 0 0.0573787)
(0.105936 0 0.0371794)
(0.0843842 0 0.0250255)
(0.0591174 0 0.00463877)
(0.0703159 0 -0.00162001)
(0.194102 0 0.0764466)
(0.196916 0 0.0756696)
(0.17066 0 0.0794514)
(0.350544 0 0.0641168)
(0.474881 0 0.0994902)
(-0.131234 0 0.0809309)
(-0.135352 0 -0.0280649)
(-0.00649819 0 -0.0490098)
(-0.0253622 0 -0.0624149)
(0.174793 0 0.082608)
(0.148324 0 0.0645397)
(0.104128 0 0.0557131)
(0.080043 0 0.0308573)
(0.0554339 0 0.0136803)
(0.0640517 0 -0.00747557)
(0.08266 0 -0.0111865)
(0.176152 0 0.0836874)
(0.15825 0 0.0943825)
(0.296514 0 0.0823428)
(0.404138 0 0.138093)
(-0.0695389 0 0.140402)
(-0.128725 0 -0.0158856)
(-0.00556136 0 -0.00268616)
(-0.036704 0 -0.0355688)
(0.153427 0 0.0887583)
(0.145517 0 0.0878396)
(0.102566 0 0.062763)
(0.0758022 0 0.0482329)
(0.0478712 0 0.0165963)
(0.0569431 0 -0.00308173)
(0.0624827 0 -0.0304495)
(0.15 0 -0.00930534)
(0.146021 0 0.1058)
(0.248332 0 0.0960878)
(0.332791 0 0.153259)
(-0.0375148 0 0.180761)
(-0.107407 0 0.0393902)
(-0.026694 0 0.0474369)
(-0.0401457 0 -0.00834781)
(0.129859 0 0.113733)
(0.118896 0 0.0937851)
(0.0972126 0 0.0864861)
(0.0707429 0 0.0543966)
(0.0407803 0 0.0326864)
(0.0400414 0 -0.00441067)
(0.0467472 0 -0.0411832)
(0.126866 0 -0.0494393)
(0.1838 0 -0.0297171)
(0.211528 0 0.107185)
(0.266178 0 0.15704)
(-0.0236752 0 0.196102)
(-0.0845761 0 0.10538)
(-0.0528647 0 0.0916952)
(-0.0320809 0 0.0280473)
(0.17875 0 0.114853)
(0.108976 0 0.118341)
(0.0679425 0 0.0924916)
(0.0625321 0 0.0777524)
(0.031259 0 0.0385804)
(0.0235799 0 0.00906353)
(0.0222089 0 -0.0488067)
(0.0892958 0 -0.0731772)
(0.166967 0 -0.0833882)
(0.352614 0 -0.00791058)
(0.217745 0 0.156405)
(-0.0224407 0 0.191368)
(-0.0626171 0 0.144897)
(-0.0571922 0 0.129215)
(-0.0210305 0 0.073663)
(0.172915 0 0.158715)
(0.138234 0 0.123001)
(0.0617401 0 0.115668)
(0.0301516 0 0.0830749)
(0.0201407 0 0.0637388)
(0.00490088 0 0.0134703)
(0.000700971 0 -0.0423445)
(0.0481244 0 -0.11094)
(0.151215 0 -0.132534)
(0.324131 0 -0.0102178)
(0.181036 0 0.0250361)
(-0.0265877 0 0.184262)
(-0.0487487 0 0.161352)
(-0.0486933 0 0.154106)
(-0.0139316 0 0.114316)
(-0.0386384 0 0.189703)
(0.111454 0 0.162894)
(0.0766678 0 0.127101)
(0.0183586 0 0.108167)
(-0.0154838 0 0.0712791)
(-0.015831 0 0.0443785)
(-0.0405079 0 -0.0342915)
(-0.00838276 0 -0.115825)
(0.0980366 0 -0.173527)
(0.247702 0 -0.0406985)
(0.194195 0 0.0365235)
(0.316065 0 1.6294)
(-0.0491659 0 0.170799)
(-0.0404076 0 0.168139)
(-0.00906651 0 0.143948)
(-0.0572702 0 0.185948)
(-0.0724467 0 0.191995)
(0.0175811 0 0.165042)
(0.00771597 0 0.124362)
(-0.0366342 0 0.10054)
(-0.0594961 0 0.0574924)
(-0.074393 0 0.0137682)
(-0.100929 0 -0.103302)
(-0.00820997 0 -0.206773)
(0.179009 0 -0.101281)
(0.251821 0 0.0596728)
(0.33781 0 1.33264)
(0.615222 2.03441e-27 1.84243)
(0.228585 0 2.00857)
(-0.0404142 0 0.180338)
(-0.00714319 0 0.164108)
(-0.0454158 0 0.197798)
(-0.0857119 0 0.211726)
(-0.169808 0 0.227729)
(-0.138877 0 0.177933)
(-0.0791868 0 0.12097)
(-0.0941628 0 0.089726)
(-0.114579 0 0.0413547)
(-0.160392 0 -0.0311229)
(-0.198227 0 -0.186644)
(0.0131383 0 -0.197767)
(0.315466 0 0.0194025)
(0.312705 0 1.1396)
(0.753305 9.33334e-28 1.6616)
(0.719441 -5.75386e-30 1.66585)
(0.384614 3.32154e-27 2.00482)
(0.103717 0 2.15945)
(-0.00858725 0 0.181464)
(-0.0113415 0 0.203901)
(-0.0645763 0 0.228558)
(-0.17675 0 0.276157)
(-0.353019 0 0.345162)
(-0.531469 0 0.186524)
(-0.188674 0 0.109966)
(-0.14428 0 0.0773782)
(-0.182973 0 0.0275806)
(-0.30679 0 -0.131018)
(-0.238403 0 -0.198739)
(0.155726 0 -0.00107425)
(0.325958 0 0.733377)
(0.807042 0 1.54081)
(0.816625 0 1.53458)
(0.86694 2.50314e-26 1.29461)
(0.600821 -6.13237e-30 1.78768)
(0.328703 3.64389e-27 2.16806)
(0.109223 0 2.38125)
(-0.0220759 0 0.244812)
(-0.127919 0 0.314322)
(-0.319142 0 0.421263)
(-0.778384 0 0.428439)
(-0.798176 0 0.170297)
(-0.265757 0 0.0766615)
(-0.168945 0 0.0723267)
(-0.298514 0 -0.0112971)
(-0.492434 0 -0.154552)
(-0.259671 0 -0.0712706)
(0.147678 0 0.639288)
(0.773045 0 1.30498)
(0.848967 0 1.46249)
(0.922841 6.72986e-26 1.17292)
(0.976118 -6.85214e-30 1.01482)
(0.801056 2.79448e-26 1.45365)
(0.529644 0 1.96246)
(0.226766 0 2.34614)
(0.0395266 0 2.48513)
(-0.051643 0 0.349725)
(-0.240938 0 0.486836)
(-0.58397 0 0.558251)
(-1.15979 0 0.234635)
(-0.761111 0 0.103844)
(-0.279674 0 0.0370783)
(-0.127976 0 0.0913332)
(-0.588384 0 -0.0673515)
(-0.552262 0 -0.141684)
(-0.0450547 0 0.369687)
(0.617813 0 1.15638)
(0.875314 -6.54542e-27 1.30428)
(0.947119 4.17125e-26 1.15784)
(0.984665 0 0.926191)
(1.13971 1.13503e-25 0.821065)
(0.966277 -7.93401e-30 1.16901)
(0.712735 9.49355e-26 1.64941)
(0.427223 0 2.14609)
(0.181296 0 2.47201)
(0.0433486 0 2.57432)
(-0.106081 0 0.528422)
(-0.350387 0 0.678069)
(-1.01225 0 0.349433)
(-1.1833 0 -0.0356868)
(-0.604689 0 0.00599145)
(-0.138896 0 0.126972)
(-0.427985 0 0.0887384)
(-0.696164 0 -0.131979)
(-0.392579 0 0.140387)
(0.384754 0 0.8018)
(0.784881 -1.23887e-26 1.21635)
(0.959971 0 1.11424)
(0.977 -1.02765e-25 0.900864)
(1.04645 -1.87963e-25 0.644095)
(1.24768 4.17574e-10 0.63635)
(1.18857 0 0.941293)
(0.951419 0 1.3439)
(0.647717 1.3625e-25 1.86438)
(0.358436 -1.20535e-26 2.32809)
(0.101751 0 2.60411)
(0.00736708 0 2.61043)
(-0.163219 0 0.702849)
(-0.542573 0 0.523795)
(-1.19544 0 -0.0208103)
(-1.0301 0 -0.183678)
(-0.324499 0 -0.00739038)
(-0.112741 0 0.273671)
(-0.710141 0 -0.0952163)
(-0.657919 0 -0.0887121)
(-0.0160416 0 0.504606)
(0.640869 2.08982e-42 0.994081)
(0.912628 0 1.08313)
(0.978064 1.92944e-25 0.859745)
(1.05459 -1.10888e-24 0.636141)
(1.16453 -3.28675e-11 0.550234)
(1.25926 1.4095e-09 0.383536)
(1.24552 -4.7355e-10 0.651282)
(1.25614 7.97391e-10 0.38317)
(1.2853 1.95247e-09 0.360772)
(1.28159 5.7366e-10 0.363099)
(1.16985 3.76189e-25 1.05078)
(0.923597 2.52817e-25 1.55766)
(0.55332 6.5248e-26 2.09458)
(0.232002 -1.50297e-26 2.49034)
(0.0253889 0 2.64936)
(-0.0350227 0 2.59041)
(-0.198027 0 0.547059)
(-0.722187 0 0.0591143)
(-1.16651 0 -0.205511)
(-0.830781 0 -0.126187)
(-0.201953 0 0.150987)
(-0.158091 0 0.112044)
(-0.696978 0 -0.181734)
(-0.324548 0 0.154681)
(0.340126 3.11426e-42 0.794889)
(0.876652 0 0.949984)
(0.994304 0 0.769048)
(1.10276 9.71563e-26 0.647331)
(1.02966 -2.69204e-25 0.39197)
(1.29328 -3.33286e-10 0.317204)
(1.31432 1.41478e-09 0.452076)
(1.29533 1.5477e-09 0.214669)
(1.24675 -1.26314e-09 0.768438)
(1.31096 8.69416e-10 0.451163)
(1.36801 1.09149e-09 0.468148)
(1.36499 6.92947e-10 0.466099)
(1.28794 3.41575e-10 0.215143)
(1.30968 1.20206e-09 0.194246)
(1.30179 1.05837e-10 0.197661)
(1.11301 -4.03113e-25 1.28559)
(0.829265 -6.74121e-25 1.78842)
(0.416365 0 2.28175)
(0.119237 -6.00956e-29 2.60659)
(-0.0636164 0 2.67962)
(-0.0566362 0 2.51065)
(-0.245616 0 0.0701915)
(-0.678763 0 -0.304276)
(-0.974521 0 -0.212598)
(-0.66576 0 0.108473)
(-0.11164 0 0.349979)
(-0.645325 0 -0.336073)
(-0.424229 0 -0.029472)
(-0.0828887 -3.93754e-27 0.365412)
(0.713945 7.42766e-27 0.791358)
(0.93436 6.14244e-26 0.678828)
(1.12823 0 0.601174)
(1.06014 -2.21818e-24 0.345987)
(1.20467 -1.55268e-09 0.254213)
(1.2318 5.88083e-10 0.0501924)
(1.22852 -1.58244e-09 0.0485933)
(1.25496 2.10942e-10 0.0639596)
(1.2548 2.60967e-10 0.0618172)
(1.35458 1.44012e-09 0.258638)
(1.32926 -8.6791e-10 0.0884491)
(1.32738 8.78725e-25 0.934473)
(1.47892 6.44396e-10 0.45018)
(1.34778 3.23563e-10 0.257403)
(1.38963 1.29605e-09 0.25495)
(1.38374 4.02778e-10 0.251159)
(1.32202 -1.88639e-09 0.0851323)
(1.28672 -1.4911e-09 0.0950834)
(1.28206 -2.04448e-09 0.0914585)
(0.996344 -2.58252e-24 1.47219)
(0.653702 0 1.97973)
(0.23612 0 2.44823)
(-0.0535996 9.15993e-27 2.66614)
(-0.171664 0 2.60849)
(-0.0957044 0 2.37634)
(-0.170361 0 -0.380278)
(-0.486538 0 -0.424354)
(-0.594471 0 -0.123602)
(-0.385869 0 0.101795)
(-0.190693 0 0.235653)
(-0.67276 0 -0.231279)
(-0.25688 0 0.0956367)
(0.415774 4.55076e-27 0.550139)
(0.792089 0 0.540938)
(1.1396 2.77617e-25 0.491599)
(1.20876 -2.58481e-25 0.294789)
(1.21406 -1.02061e-09 0.219802)
(1.1898 2.71528e-11 0.0473229)
(1.19027 1.37999e-10 0.0469731)
(1.21216 1.08021e-10 0.0137404)
(1.21296 8.66928e-11 0.0135381)
(1.2201 1.28867e-09 -0.0498714)
(1.21843 -1.97771e-09 -0.0519686)
(1.28669 -8.68093e-10 -0.0521722)
(1.28669 -3.05814e-10 -0.0520782)
(1.39024 -1.86491e-09 0.117788)
(1.4552 1.67446e-08 -0.0701137)
(1.20155 2.22685e-08 -0.100206)
(1.42045 1.25702e-08 -0.0797193)
(1.26471 3.45207e-09 -0.0733595)
(1.2377 -9.08191e-24 1.07487)
(1.52025 2.1493e-09 0.511502)
(1.47559 6.46345e-10 0.118333)
(1.47627 2.55703e-10 0.121097)
(1.42147 -3.8064e-10 0.126367)
(1.41911 -1.08415e-09 0.130479)
(1.38346 -1.40607e-09 0.115244)
(1.43278 -1.33741e-09 0.0891886)
(1.42785 -9.79708e-10 0.0885675)
(1.44779 -8.25505e-09 -0.0695205)
(1.2108 -1.22898e-08 -0.0937243)
(1.41645 -2.3212e-09 -0.0785138)
(1.25394 -3.39423e-09 -0.0718323)
(1.42392 1.91369e-08 -0.0954364)
(1.15622 2.5245e-08 -0.0232173)
(1.38302 1.6892e-08 -0.148584)
(1.23158 3.85496e-09 -0.085996)
(1.41802 -1.11789e-08 -0.0961476)
(1.17764 -1.32745e-08 -0.020188)
(1.38274 -6.80135e-09 -0.14826)
(1.22644 -3.83171e-09 -0.0866688)
(0.803256 0 1.68322)
(0.409451 -5.51583e-25 2.16778)
(-0.0143053 0 2.5122)
(-0.239957 1.90191e-26 2.63602)
(-0.269573 0 2.50552)
(-0.125275 0 2.17514)
(-0.0777242 0 -0.474487)
(-0.256188 0 -0.364333)
(-0.230622 0 -0.103389)
(-0.116916 0 -0.165392)
(-0.193887 0 -0.307235)
(-0.447045 0 -0.103885)
(0.140048 0 0.218597)
(0.548987 0 0.370008)
(0.995888 3.30039e-25 0.359449)
(1.19816 7.08686e-25 0.199584)
(1.28097 -5.54499e-10 0.144829)
(1.21272 3.65322e-10 0.0130807)
(1.21286 9.26177e-11 0.0132303)
(1.22901 6.59815e-10 -0.0237749)
(1.22789 1.70008e-11 -0.022934)
(1.22411 -2.19036e-09 -0.0667531)
(1.22705 -2.76771e-10 -0.0658648)
(1.22466 -2.92584e-09 -0.0775138)
(1.22689 -4.74686e-10 -0.0769465)
(1.0965 2.94883e-09 -0.211332)
(1.18887 3.42735e-09 -0.0516967)
(1.2741 2.65724e-09 -0.232946)
(1.1211 3.57053e-09 -0.194959)
(1.3213 3.94436e-09 -0.19085)
(1.34551 4.01899e-09 -0.254473)
(1.20689 -2.54376e-09 -0.0512026)
(1.09828 -8.06449e-10 -0.208804)
(1.27395 -2.54419e-09 -0.2326)
(1.12071 -2.21884e-09 -0.193764)
(1.32032 -4.26234e-09 -0.190912)
(1.34837 -3.74986e-09 -0.25425)
(1.16878 4.51064e-09 -0.200389)
(1.35759 5.84044e-09 -0.182407)
(1.16975 3.67004e-09 -0.197021)
(1.36573 5.36339e-09 -0.191591)
(1.17047 -3.07801e-09 -0.198221)
(1.35694 -4.31475e-09 -0.181485)
(1.17033 -2.75096e-09 -0.195129)
(1.36496 -4.39788e-09 -0.190809)
(1.51162 1.6419e-08 -0.065142)
(1.22536 2.29975e-08 -0.0705134)
(1.45298 1.20536e-08 -0.0528145)
(1.3206 3.37186e-09 -0.0755519)
(1.39917 1.70357e-09 -0.158424)
(1.26322 1.2798e-09 -0.148559)
(1.3853 1.62228e-09 -0.150798)
(1.30584 8.93058e-10 -0.150442)
(1.04093 -1.06335e-23 1.23482)
(1.35894 2.43089e-09 0.576996)
(1.44623 3.42506e-10 0.118806)
(1.44753 2.52707e-10 0.119011)
(1.49315 5.83038e-10 0.141062)
(1.49471 2.8172e-10 0.14269)
(1.51183 -2.18869e-11 -0.105943)
(1.5124 -1.33382e-09 -0.106412)
(1.43608 4.81424e-11 -0.0495018)
(1.43612 -1.2484e-09 -0.0507693)
(1.50547 -8.09147e-09 -0.0645145)
(1.24324 -1.2721e-08 -0.0642335)
(1.4521 -2.66192e-09 -0.0516644)
(1.31301 -3.3833e-09 -0.0752943)
(1.53918 1.91056e-08 -0.0662122)
(1.25644 2.79726e-08 -0.113175)
(1.4922 1.80431e-08 0.026849)
(1.3582 3.94685e-09 -0.0922625)
(1.53397 -1.11068e-08 -0.064592)
(1.28522 -1.41843e-08 -0.111025)
(1.4938 -6.94081e-09 0.0265011)
(1.35146 -3.91682e-09 -0.0879108)
(1.39526 -1.58183e-09 -0.159267)
(1.27408 -1.15256e-09 -0.148697)
(1.38623 -1.16661e-09 -0.150776)
(1.29873 -1.11694e-09 -0.150556)
(1.37351 2.52508e-09 -0.178055)
(1.27896 1.47967e-09 -0.143101)
(1.37083 -2.47352e-09 -0.17784)
(1.27513 -1.60966e-09 -0.142663)
(0.52125 -2.68949e-25 1.843)
(0.0562107 0 2.23368)
(-0.322805 0 2.50331)
(-0.464643 0 2.51694)
(-0.402499 0 2.27053)
(-0.162033 0 1.91041)
(-0.0466922 0 -0.383286)
(-0.120658 0 -0.278652)
(-0.0650594 0 -0.136329)
(-0.0262314 0 -0.246733)
(-0.215957 0 -0.433395)
(0.0246389 0 0.0235309)
(0.345276 0 0.154662)
(0.780187 0 0.186301)
(1.1425 2.06693e-25 0.132219)
(1.37068 -4.60321e-10 0.0741792)
(1.3464 6.68018e-10 -0.0423356)
(1.34598 5.172e-12 -0.0420217)
(1.38128 1.06016e-09 -0.0539329)
(1.37989 1.01666e-10 -0.0530687)
(1.24802 -2.96097e-09 -0.0729722)
(1.2497 5.37204e-11 -0.0729606)
(1.28867 -3.36072e-09 -0.102453)
(1.29127 5.8323e-10 -0.104984)
(1.13196 4.77793e-09 -0.198533)
(1.3153 5.20579e-09 -0.194533)
(1.13072 7.26331e-09 -0.196919)
(1.31157 6.57474e-09 -0.195057)
(1.13732 -3.05984e-09 -0.196737)
(1.3161 -4.60982e-09 -0.193283)
(1.1426 -3.80189e-09 -0.194783)
(1.31347 -5.33704e-09 -0.193581)
(1.16007 8.33023e-09 -0.207382)
(1.32324 6.68432e-09 -0.217568)
(1.14237 7.59517e-09 -0.202826)
(1.31792 6.93336e-09 -0.206246)
(1.17535 -4.1044e-09 -0.210946)
(1.32596 -4.5198e-09 -0.217977)
(1.15499 -4.05326e-09 -0.202319)
(1.32002 -5.36584e-09 -0.205715)
(1.21758 9.53559e-10 -0.152912)
(1.12073 5.15467e-11 -0.230251)
(1.26327 1.43842e-10 -0.237524)
(1.28889 1.71731e-09 -0.253023)
(1.16945 1.01062e-10 -0.242473)
(1.29212 2.6582e-10 -0.242616)
(1.23522 -3.21198e-10 -0.153531)
(1.12184 -5.43143e-11 -0.227707)
(1.29354 -1.23779e-09 -0.253345)
(1.2631 -2.66845e-11 -0.237047)
(1.16832 -2.11196e-10 -0.242721)
(1.29097 -2.93982e-10 -0.242453)
(1.2054 2.58404e-10 -0.242889)
(1.31674 5.30195e-10 -0.244111)
(1.20732 1.9166e-10 -0.262775)
(1.31986 5.53722e-10 -0.249917)
(1.20748 -2.40505e-10 -0.244014)
(1.31639 -4.49555e-10 -0.24424)
(1.2067 -2.36849e-10 -0.262155)
(1.31911 -4.83324e-10 -0.249569)
(1.44258 1.59658e-09 -0.14285)
(1.28397 1.37814e-09 -0.154651)
(1.40108 1.66043e-09 -0.149889)
(1.34638 8.78404e-10 -0.160495)
(1.38669 6.49939e-10 -0.242677)
(1.30745 3.09425e-10 -0.249358)
(1.34042 3.77371e-10 -0.246993)
(1.36616 4.29555e-10 -0.249247)
(0.689305 0 1.3447)
(1.08825 2.26206e-09 0.659496)
(1.34512 -5.76698e-10 0.148924)
(1.34442 1.9124e-10 0.146501)
(1.35316 -3.76791e-10 0.136593)
(1.35373 1.39108e-10 0.136032)
(1.477 1.97141e-09 -0.151605)
(1.48011 -4.21905e-09 -0.153412)
(1.49977 1.49601e-09 -0.110595)
(1.50276 -2.86919e-09 -0.112518)
(1.36733 8.10845e-09 -0.271322)
(1.57527 5.27316e-09 -0.257487)
(1.35342 5.27394e-09 -0.256202)
(1.56385 4.5903e-09 -0.247299)
(1.37281 -3.54959e-09 -0.269375)
(1.57537 -5.01333e-09 -0.257122)
(1.35553 -2.99913e-09 -0.254678)
(1.56362 -5.07277e-09 -0.247039)
(1.29031 3.28649e-09 -0.272459)
(1.3011 3.91143e-09 -0.263075)
(1.48275 2.69566e-09 -0.203811)
(1.30733 4.3306e-09 -0.240859)
(1.52825 3.94821e-09 -0.209348)
(1.45785 4.85556e-09 -0.0404953)
(1.29357 -2.22765e-09 -0.272596)
(1.31905 -2.86358e-09 -0.260678)
(1.48363 -3.84921e-09 -0.204302)
(1.30899 -2.38903e-09 -0.239047)
(1.52816 -4.91594e-09 -0.209307)
(1.46088 -4.27093e-09 -0.040481)
(1.43889 -1.3358e-09 -0.143409)
(1.29648 -1.24269e-09 -0.156162)
(1.40268 -1.19054e-09 -0.14975)
(1.34052 -1.11218e-09 -0.161209)
(1.48675 2.71766e-09 -0.132604)
(1.39783 1.57504e-09 -0.168326)
(1.48308 -2.21235e-09 -0.132604)
(1.39197 -1.52123e-09 -0.168292)
(1.38291 -8.0574e-10 -0.241298)
(1.31464 -2.72911e-10 -0.248147)
(1.34229 -5.86429e-10 -0.246314)
(1.35772 -1.35428e-10 -0.244256)
(1.33749 8.21404e-10 -0.257839)
(1.30195 4.98883e-10 -0.2429)
(1.33616 -1.0176e-09 -0.258823)
(1.30008 -6.20488e-10 -0.244354)
(0.0646372 -1.28526e-24 1.90171)
(-0.354073 0 2.21641)
(-0.650804 0 2.37977)
(-0.676086 0 2.30058)
(-0.520187 0 2.01765)
(-0.183576 0 1.57678)
(-0.0241751 0 -0.292678)
(-0.0353098 0 -0.258256)
(-0.0105765 0 -0.241296)
(-0.141137 0 -0.446982)
(-0.00437247 0 -0.377824)
(0.320059 2.92398e-26 0.0322312)
(0.531166 -5.79421e-26 0.0331309)
(0.92332 -2.22669e-25 -0.00474165)
(1.23463 -5.93005e-10 -0.0589924)
(1.39602 9.9357e-10 -0.0882326)
(1.39495 5.48721e-11 -0.0877929)