/*--------------------------------*- C++ -*----------------------------------*\
| =========                 |                                                 |
| \\      /  F ield         | OpenFOAM: The Open Source CFD Toolbox           |
|  \\    /   O peration     | Version:  5.x                                   |
|   \\  /    A nd           | Web:      www.OpenFOAM.org                      |
|    \\/     M anipulation  |                                                 |
\*---------------------------------------------------------------------------*/
FoamFile
{
    version     2.0;
    format      ascii;
    class       surfaceVectorField;
    location    "2.4";
    object      Uf;
}
// * * * * * * * * * * * * * * * * * * * * * * * * * * * * * * * * * * * * * //

dimensions      [0 1 -1 0 0 0 0];

internalField   nonuniform List<vector> 
30582
(
(0.107916 0 0.00139563)
(0.122797 0 -0.000311017)
(0.107068 0 0.0030418)
(0.100015 0 0.000339046)
(0.107957 0 -0.00140596)
(0.122708 0 -0.000631764)
(0.103027 0 0.00453616)
(0.10892 0 0.00164577)
(0.106993 0 -0.00107557)
(0.0998842 0 0.000724653)
(0.107719 0 0.00160008)
(0.122477 0 -0.000845654)
(0.095574 0 0.00537906)
(0.100081 0 0.00308905)
(0.102927 0 0.000192816)
(0.108919 0 0.00330176)
(0.106931 0 0.00518972)
(0.0993692 0 0.00103992)
(0.107243 0 -0.00151412)
(0.122125 0 -0.000852638)
(0.084647 0 0.00556633)
(0.0902998 0 0.00461024)
(0.0952581 0 0.00236953)
(0.10017 0 0.0062675)
(0.103096 0 0.00945321)
(0.10809 0 0.00486321)
(0.105621 0 0.000652301)
(0.0986254 0 0.00168852)
(0.106688 0 0.00252455)
(0.121313 0 -0.000615455)
(0.0715986 0 0.00537344)
(0.0780836 0 0.00560428)
(0.0842961 0 0.00473056)
(0.0904894 0 0.00923523)
(0.095889 0 0.0131249)
(0.0992748 0 0.0092548)
(0.101186 0 0.00461939)
(0.107219 0 0.00666919)
(0.10527 0 0.0078818)
(0.0967688 0 0.00225573)
(0.104669 0 -0.00100533)
(0.120474 0 0.000448093)
(0.0578355 0 0.00513302)
(0.0647808 0 0.00601705)
(0.0715103 0 0.00632324)
(0.0784982 0 0.0110957)
(0.085251 0 0.0155484)
(0.0897044 0 0.0137236)
(0.0937323 0 0.00989656)
(0.0982509 0 0.0123443)
(0.101178 0 0.0145465)
(0.104678 0 0.00833544)
(0.101135 0 0.002607)
(0.0948764 0 0.0036694)
(0.104086 0 0.00529173)
(0.116992 0 0.00178031)
(0.0434284 0 0.00495615)
(0.0508641 0 0.00641168)
(0.0578783 0 0.00737074)
(0.0650984 0 0.0119768)
(0.0723582 0 0.0167315)
(0.0783641 0 0.0166332)
(0.0833982 0 0.0148659)
(0.0891318 0 0.0180837)
(0.0944268 0 0.0205912)
(0.0950172 0 0.0151426)
(0.0954054 0 0.00892282)
(0.102473 0 0.0106685)
(0.101052 0 0.0119839)
(0.0863135 0 0.00488271)
(0.0927645 0 0.00119983)
(0.0823028 0 0.00760731)
(0.0289115 0 0.00479019)
(0.0364452 0 0.00657647)
(0.0435247 0 0.00809645)
(0.0512039 0 0.0127995)
(0.0585104 0 0.0174239)
(0.0650704 0 0.0180309)
(0.0713771 0 0.0179866)
(0.0786677 0 0.0217962)
(0.0850108 0 0.0250452)
(0.0875881 0 0.0220564)
(0.0891703 0 0.0167064)
(0.092366 0 0.017727)
(0.0963377 0 0.0195129)
(0.0950609 0 0.0125883)
(0.0849878 0 0.00539588)
(0.0491595 0 0.00799346)
(0.0335053 0 0.0140292)
(-0.0788141 0 -0.0139557)
(0.0147294 0 0.00461227)
(0.0220236 0 0.00653947)
(0.0289834 0 0.00836457)
(0.036661 0 0.013164)
(0.0439825 0 0.0179222)
(0.0513719 0 0.019265)
(0.0580631 0 0.0199765)
(0.0657121 0 0.0238516)
(0.0733501 0 0.0277329)
(0.0785818 0 0.0268044)
(0.0817591 0 0.023908)
(0.0864977 0 0.0251833)
(0.090899 0 0.025943)
(0.0851103 0 0.0199812)
(0.0808783 0 0.0133023)
(0.0649941 0 0.0142617)
(0.0329479 0 0.0158633)
(-0.11862 0 0.00821641)
(-0.237051 0 -0.0187039)
(-0.097879 0 0.0788391)
(0.00131711 0 0.00440807)
(0.00807234 0 0.00629601)
(0.0147525 0 0.00822566)
(0.0220829 0 0.0131014)
(0.0291701 0 0.0179744)
(0.0367002 0 0.0198743)
(0.0437343 0 0.0213127)
(0.0518985 0 0.025642)
(0.059726 0 0.0296391)
(0.0663893 0 0.0298079)
(0.0720206 0 0.0290365)
(0.07875 0 0.030987)
(0.0840764 0 0.0318386)
(0.0820961 0 0.0280619)
(0.0775186 0 0.0228134)
(0.0654931 0 0.0213738)
(0.0472867 0 0.0209923)
(-0.147615 0 0.00842294)
(-0.290717 0 0.00127585)
(-0.00551435 0 0.0296837)
(0.134945 0 0.118733)
(0.0124589 0 0.0257959)
(-0.0110864 0 0.00419174)
(-0.00502983 0 0.00592676)
(0.00129085 0 0.00778251)
(0.00799445 0 0.0126151)
(0.014702 0 0.0175624)
(0.0219028 0 0.0197728)
(0.0288177 0 0.0217216)
(0.0367937 0 0.0266319)
(0.0446064 0 0.0311247)
(0.0524914 0 0.0323707)
(0.0594068 0 0.0328038)
(0.0671937 0 0.0353225)
(0.07438 0 0.0367279)
(0.0767765 0 0.0351516)
(0.0752919 0 0.0323043)
(0.069252 0 0.0290014)
(0.0579826 0 0.0258887)
(-0.128102 0 0.0169404)
(-0.328222 0 0.00441754)
(-0.133903 0 0.023695)
(0.157511 0 0.050324)
(0.200056 0 0.0206569)
(0.0854631 0 -0.0640571)
(-0.0416665 0 -0.00778853)
(-0.0224768 0 0.00389542)
(-0.0169506 0 0.00553995)
(-0.0111794 0 0.00722004)
(-0.00517861 0 0.0118854)
(0.00108346 0 0.0167771)
(0.00762519 0 0.019008)
(0.0141964 0 0.0211972)
(0.021608 0 0.0265149)
(0.0289391 0 0.0315671)
(0.0369572 0 0.0337295)
(0.0445095 0 0.035296)
(0.0530441 0 0.0390006)
(0.061233 0 0.0409135)
(0.0670342 0 0.0410702)
(0.0699591 0 0.040639)
(0.073014 0 0.037442)
(0.0673013 0 0.0322321)
(-0.0794391 0 0.0250697)
(-0.26807 0 0.0157082)
(-0.200615 0 -0.00799196)
(-0.0117398 0 0.0134742)
(0.0776923 0 0.0926131)
(0.120186 0 0.0683003)
(0.00822039 0 0.00676697)
(-0.112561 0 0.0580956)
(-0.0282811 0 0.0364443)
(-0.0325168 0 0.00340593)
(-0.0278539 0 0.00497091)
(-0.0226952 0 0.00654085)
(-0.0171752 0 0.0111408)
(-0.0114591 0 0.0158517)
(-0.00563765 0 0.0178786)
(0.000480492 0 0.0200259)
(0.00706668 0 0.0254465)
(0.013843 0 0.0308065)
(0.0212942 0 0.0334757)
(0.0286419 0 0.0359803)
(0.0367065 0 0.0409179)
(0.0449667 0 0.0439608)
(0.0537463 0 0.0462398)
(0.0601626 0 0.0477424)
(0.0698391 0 0.0453531)
(0.0735441 0 0.0400002)
(-0.0344576 0 0.0347607)
(-0.182732 0 0.0270223)
(-0.196106 0 -0.0109361)
(-0.132375 0 -0.030999)
(-0.0116539 0 0.0420096)
(0.0765051 0 0.116597)
(0.0237695 0 0.1104)
(-0.0904493 0 0.0440349)
(-0.0215405 0 -0.00207815)
(0.0655372 0 -0.0176287)
(-0.00823885 0 0.0106907)
(-0.0406608 0 0.00271956)
(-0.037291 0 0.00410475)
(-0.0329656 0 0.0055694)
(-0.028156 0 0.0100558)
(-0.0230228 0 0.0147048)
(-0.0177575 0 0.0167651)
(-0.0122283 0 0.0186908)
(-0.00625966 0 0.0239512)
(-1.72652e-05 0 0.0292669)
(0.00640008 0 0.0319527)
(0.0132028 0 0.0350115)
(0.0202584 0 0.0405948)
(0.0276394 0 0.0448489)
(0.0371483 0 0.0487676)
(0.0458183 0 0.0525389)
(0.0622866 0 0.0526235)
(0.0728858 0 0.0478369)
(-0.0144882 0 0.0456409)
(-0.121857 0 0.0392917)
(-0.192794 0 0.00861504)
(-0.203479 0 -0.025687)
(-0.0679338 0 0.0190635)
(0.0505158 0 0.083714)
(0.0304979 0 0.052782)
(-0.0224453 0 0.0477203)
(0.00740612 0 0.0827088)
(0.0746636 0 0.0431532)
(-0.00181586 0 -0.00572884)
(-0.0741288 0 0.0174965)
(-0.0463916 0 0.00185478)
(-0.0447276 0 0.00293999)
(-0.0414321 0 0.00419788)
(-0.0379409 0 0.00837201)
(-0.0334683 0 0.0129466)
(-0.0290181 0 0.0152275)
(-0.0241827 0 0.0171724)
(-0.0184854 0 0.0225794)
(-0.0128147 0 0.0275582)
(-0.0070184 0 0.0300661)
(-0.000851684 0 0.033266)
(0.0049375 0 0.0385501)
(0.0113184 0 0.043446)
(0.0202585 0 0.0481206)
(0.0291076 0 0.0534887)
(0.0510051 0 0.0563378)
(0.0676548 0 0.0538796)
(0.00217577 0 0.0549516)
(-0.0833931 0 0.0508216)
(-0.198526 0 0.0288249)
(-0.270766 0 0.00154969)
(-0.122714 0 0.0375142)
(0.0166055 0 0.075081)
(0.0117425 0 0.0333708)
(-0.00908129 0 0.0106559)
(0.0195948 0 0.0472427)
(0.0495602 0 0.0825964)
(0.00395521 0 0.0929307)
(-0.0733738 0 0.0369826)
(-0.0485489 0 0.000801221)
(-0.0490925 0 0.00112656)
(-0.0473386 0 0.00207475)
(-0.0458681 0 0.00597012)
(-0.0424054 0 0.0102978)
(-0.0393049 0 0.0128765)
(-0.0351961 0 0.0149655)
(-0.030049 0 0.0206804)
(-0.0248389 0 0.0256735)
(-0.0193797 0 0.0284276)
(-0.0139075 0 0.0316173)
(-0.0085298 0 0.0363046)
(-0.00302711 0 0.0407786)
(0.00476208 0 0.0452842)
(0.0129844 0 0.051103)
(0.038856 0 0.055555)
(0.0602284 0 0.0560983)
(0.0126357 0 0.0597022)
(-0.0518726 0 0.0581227)
(-0.206857 0 0.0409237)
(-0.315779 0 0.0218762)
(-0.14951 0 0.0485041)
(-0.0027316 0 0.0778921)
(-0.00105659 0 0.0458195)
(-0.00676354 0 0.0118512)
(0.00167154 0 0.0323929)
(0.0305681 0 0.0621538)
(0.00946462 0 0.0551147)
(-0.036345 0 0.0627684)
(-0.0460638 0 -0.000494272)
(-0.0491456 0 -0.00132104)
(-0.0496956 0 -0.0011018)
(-0.0507149 0 0.00235741)
(-0.0491068 0 0.00643498)
(-0.0479032 0 0.00940804)
(-0.0447466 0 0.0116836)
(-0.0409076 0 0.0176901)
(-0.0361323 0 0.0230564)
(-0.0312332 0 0.0262718)
(-0.026346 0 0.0298241)
(-0.0210434 0 0.0344773)
(-0.0160739 0 0.0381194)
(-0.00851085 0 0.0425388)
(-0.00100331 0 0.0479407)
(0.0265589 0 0.0518502)
(0.0513804 0 0.0548847)
(0.0206017 0 0.0596349)
(-0.0266306 0 0.0603422)
(-0.197659 0 0.048267)
(-0.348036 0 0.032958)
(-0.178212 0 0.0552788)
(-0.00718047 0 0.0784269)
(0.0015447 0 0.0504491)
(0.00397521 0 0.0250514)
(-0.00229957 0 0.0412072)
(0.00549541 0 0.0554971)
(0.00229429 0 0.0429714)
(-0.0185425 0 0.0422066)
(-0.0383316 0 -0.00204268)
(-0.0442871 0 -0.00418411)
(-0.0475796 0 -0.00510502)
(-0.0512827 0 -0.00244589)
(-0.052339 0 0.00112896)
(-0.0535189 0 0.00404537)
(-0.0520947 0 0.00665114)
(-0.0504669 0 0.0131778)
(-0.0464659 0 0.0191443)
(-0.0428134 0 0.0228984)
(-0.0383337 0 0.0269015)
(-0.0333152 0 0.0322071)
(-0.0286929 0 0.0356054)
(-0.0210337 0 0.0406148)
(-0.0139486 0 0.0459211)
(0.0149094 0 0.0487243)
(0.0414918 0 0.0529185)
(0.0254424 0 0.0564921)
(-0.00605227 0 0.0590109)
(-0.141974 0 0.050146)
(-0.315194 0 0.0383442)
(-0.171829 0 0.033389)
(0.00222022 0 0.0554384)
(0.0104336 0 0.0510952)
(0.0184725 0 0.027731)
(0.00118352 0 0.044111)
(-0.00434983 0 0.0546156)
(-0.00139621 0 0.0454357)
(-0.00475808 0 0.0392835)
(-0.0250348 0 -0.00366264)
(-0.0338157 0 -0.00732427)
(-0.0399774 0 -0.00956731)
(-0.0466911 0 -0.00829779)
(-0.0505629 0 -0.00555205)
(-0.0548567 0 -0.00339006)
(-0.055989 0 -0.000774745)
(-0.0573516 0 0.00607908)
(-0.0553537 0 0.0128279)
(-0.0536754 0 0.0177373)
(-0.0496914 0 0.0220531)
(-0.045607 0 0.0286229)
(-0.0410396 0 0.0325878)
(-0.0339512 0 0.0383201)
(-0.0270786 0 0.0443274)
(0.00226266 0 0.0470008)
(0.0301683 0 0.0513039)
(0.0273878 0 0.054135)
(0.00993059 0 0.0580143)
(-0.0834206 0 0.0489895)
(-0.221525 0 0.0393711)
(-0.119482 0 0.00695522)
(0.0199137 0 0.00312382)
(0.0330125 0 0.0253735)
(0.0424151 0 0.0236147)
(0.00995312 0 0.0404397)
(-0.00777243 0 0.052308)
(0.000275979 0 0.0456073)
(0.00371132 0 0.0418663)
(-0.00647941 0 -0.00513677)
(-0.0177176 0 -0.0104039)
(-0.0266809 0 -0.014164)
(-0.036333 0 -0.0146483)
(-0.0432821 0 -0.0132621)
(-0.0508749 0 -0.0122377)
(-0.0553807 0 -0.010339)
(-0.0598995 0 -0.00371346)
(-0.0612148 0 0.00331588)
(-0.0622944 0 0.00913984)
(-0.060093 0 0.0140244)
(-0.0579951 0 0.0230736)
(-0.0534163 0 0.0284391)
(-0.0476695 0 0.034861)
(-0.0410823 0 0.0417138)
(-0.0126474 0 0.0452535)
(0.015778 0 0.0494613)
(0.0238279 0 0.0539998)
(0.0195369 0 0.0599025)
(-0.0370504 0 0.0495448)
(-0.133124 0 0.0411971)
(-0.0683062 0 0.00749312)
(0.0334865 0 -0.0234623)
(0.0341313 0 0.000696696)
(0.0444984 0 0.0234975)
(0.0192849 0 0.0244297)
(-0.0121484 0 0.038487)
(0.00353292 0 0.0423872)
(0.0114085 0 0.0399885)
(0.0165289 0 -0.00634354)
(0.00329105 0 -0.0131326)
(-0.00795687 0 -0.0185046)
(-0.0201453 0 -0.0209023)
(-0.0300117 0 -0.0212637)
(-0.0407428 0 -0.021958)
(-0.0486048 0 -0.0212035)
(-0.0567308 0 -0.0159043)
(-0.061437 0 -0.00914094)
(-0.0664436 0 -0.00359537)
(-0.0673649 0 0.00184565)
(-0.0687665 0 0.0129373)
(-0.0659747 0 0.0213255)
(-0.0627726 0 0.0295163)
(-0.0564584 0 0.0370326)
(-0.0308832 0 0.0426108)
(-0.00287282 0 0.0473411)
(0.0120849 0 0.0544877)
(0.0189286 0 0.0634606)
(-0.010214 0 0.0542956)
(-0.0694565 0 0.0468642)
(-0.0383123 0 0.0191229)
(0.0247078 0 -0.0106742)
(0.0199558 0 0.011614)
(0.0220757 0 0.0338888)
(0.0115711 0 0.011036)
(-0.0158337 0 0.0123212)
(0.00526818 0 0.0260992)
(0.0213201 0 0.0319451)
(0.042775 0 -0.00719122)
(0.0284448 0 -0.0152483)
(0.0153718 0 -0.0221504)
(0.00121066 0 -0.0264479)
(-0.011013 0 -0.0287249)
(-0.0243306 0 -0.0315548)
(-0.035322 0 -0.0324962)
(-0.0469475 0 -0.0292746)
(-0.055397 0 -0.0237832)
(-0.0645538 0 -0.0191726)
(-0.0697923 0 -0.0140129)
(-0.0749433 0 -0.00230497)
(-0.0760745 0 0.00870826)
(-0.0768834 0 0.0182117)
(-0.0727428 0 0.0270907)
(-0.0509901 0 0.0378704)
(-0.0250086 0 0.0441867)
(-0.00749377 0 0.0537677)
(0.0071199 0 0.0660398)
(-0.00551517 0 0.0603344)
(-0.0365974 0 0.0554387)
(-0.0275101 0 0.0383141)
(0.00199187 0 0.0161212)
(0.00987324 0 0.0299772)
(0.00605711 0 0.045525)
(0.00221769 0 0.0191334)
(-0.00855658 0 -0.000154619)
(0.000891009 0 0.00768053)
(0.0213251 0 0.0205475)
(0.0707654 0 -0.00761058)
(0.056214 0 -0.0165545)
(0.0420487 0 -0.0247323)
(0.0269417 0 -0.0307467)
(0.0129493 0 -0.0349278)
(-0.00233421 0 -0.040125)
(-0.0157282 0 -0.0432272)
(-0.030342 0 -0.042541)
(-0.0423005 0 -0.0391483)
(-0.0553441 0 -0.0364884)
(-0.0648963 0 -0.0321328)
(-0.0745607 0 -0.021822)
(-0.0799654 0 -0.0099209)
(-0.0861803 0 -0.000236573)
(-0.0864608 0 0.00931398)
(-0.0699299 0 0.0253755)
(-0.047162 0 0.0366198)
(-0.0306476 0 0.0492355)
(-0.0129524 0 0.0640062)
(-0.0205741 0 0.0638846)
(-0.0342017 0 0.0630966)
(-0.0247694 0 0.0591482)
(-0.0178111 0 0.0452901)
(0.00565475 0 0.0479457)
(0.0135731 0 0.0516448)
(0.00771658 0 0.0263858)
(0.00410985 0 0.00678916)
(-0.00387118 0 0.0131877)
(0.00552835 0 0.0182609)
(0.0989332 0 -0.00758514)
(0.0846782 0 -0.0169573)
(0.070548 0 -0.0260225)
(0.0554455 0 -0.0334099)
(0.0405169 0 -0.0392972)
(0.0244014 0 -0.0467628)
(0.00929566 0 -0.0522685)
(-0.00749703 0 -0.0544081)
(-0.0222471 0 -0.0536321)
(-0.0384305 0 -0.0537847)
(-0.051895 0 -0.0511447)
(-0.0663624 0 -0.0436499)
(-0.0764566 0 -0.0331291)
(-0.0878745 0 -0.0237207)
(-0.0944055 0 -0.0145276)
(-0.0848346 0 0.0039867)
(-0.0673291 0 0.0204503)
(-0.0535112 0 0.0359072)
(-0.0360276 0 0.0530558)
(-0.0475932 0 0.0610736)
(-0.0547874 0 0.0655985)
(-0.0380423 0 0.0742601)
(-0.0307692 0 0.0692953)
(0.00925415 0 0.0655639)
(0.031896 0 0.059169)
(0.0167632 0 0.039034)
(0.0113155 0 0.022578)
(-0.00360174 0 0.0229428)
(-0.0113157 0 0.0238214)
(0.125839 0 -0.00715555)
(0.112616 0 -0.0164881)
(0.0992161 0 -0.0259715)
(0.0847038 0 -0.0342158)
(0.0700501 0 -0.0414566)
(0.0541708 0 -0.050877)
(0.0382581 0 -0.0586864)
(0.020668 0 -0.0635893)
(0.00408317 0 -0.0657656)
(-0.014395 0 -0.0694366)
(-0.0308112 0 -0.0695653)
(-0.0492202 0 -0.0656062)
(-0.0642197 0 -0.0583306)
(-0.0802642 0 -0.0503903)
(-0.0921715 0 -0.0414245)
(-0.0915316 0 -0.0249296)
(-0.0821295 0 -0.00600404)
(-0.0705301 0 0.0118545)
(-0.0554479 0 0.0302788)
(-0.0797702 0 0.0460489)
(-0.0897505 0 0.0575366)
(-0.0630518 0 0.0790101)
(-0.0466134 0 0.0841972)
(0.00421032 0 0.0822459)
(0.0433635 0 0.0711134)
(0.0274595 0 0.0598862)
(0.01315 0 0.0460825)
(-0.00213614 0 0.0381417)
(-0.0169966 0 0.0310253)
(0.150314 0 -0.00638486)
(0.138681 0 -0.0152678)
(0.126585 0 -0.024695)
(0.113392 0 -0.0332598)
(0.0997623 0 -0.0413371)
(0.084782 0 -0.052103)
(0.0693588 0 -0.0618689)
(0.0522819 0 -0.0692712)
(0.0349235 0 -0.0742762)
(0.015744 0 -0.0815066)
(-0.00258416 0 -0.0852258)
(-0.0234053 0 -0.085548)
(-0.0422235 0 -0.0820092)
(-0.0625838 0 -0.0779394)
(-0.0794107 0 -0.0697125)
(-0.0857302 0 -0.0574192)
(-0.0859278 0 -0.0411171)
(-0.0782428 0 -0.0228743)
(-0.0663162 0 -0.00306636)
(-0.108352 0 0.017632)
(-0.130747 0 0.034817)
(-0.0984785 0 0.0674578)
(-0.069503 0 0.0849694)
(0.00409917 0 0.0907529)
(0.0534577 0 0.0817906)
(0.0349661 0 0.0771582)
(0.0190419 0 0.0675785)
(0.00358622 0 0.0569691)
(-0.0112924 0 0.0439777)
(0.17153 0 -0.00534611)
(0.161814 0 -0.0134716)
(0.151436 0 -0.0224334)
(0.140085 0 -0.0307701)
(0.12805 0 -0.0391426)
(0.114744 0 -0.0505945)
(0.100694 0 -0.0616676)
(0.0848918 0 -0.0709675)
(0.0682961 0 -0.0784409)
(0.0498232 0 -0.0890088)
(0.0308906 0 -0.0963933)
(0.00925045 0 -0.100955)
(-0.0115926 0 -0.10135)
(-0.0348502 0 -0.103031)
(-0.0557984 0 -0.098239)
(-0.0671536 0 -0.0911786)
(-0.0744214 0 -0.0804515)
(-0.0738347 0 -0.0637573)
(-0.0672653 0 -0.0428787)
(-0.120432 0 -0.0223607)
(-0.163654 0 -0.00212893)
(-0.147331 0 0.0351249)
(-0.112562 0 0.0648031)
(0.0017621 0 0.0899443)
(0.0752805 0 0.0888486)
(0.0504138 0 0.0795574)
(0.030818 0 0.0752051)
(0.0144564 0 0.0712228)
(-0.00132068 0 0.059319)
(0.188992 0 -0.00414321)
(0.181339 0 -0.0112873)
(0.172932 0 -0.019477)
(0.163687 0 -0.0271206)
(0.153621 0 -0.0352355)
(0.142527 0 -0.046722)
(0.130437 0 -0.0584236)
(0.116716 0 -0.0688211)
(0.101907 0 -0.0780794)
(0.0850925 0 -0.0912014)
(0.0671735 0 -0.102003)
(0.0464905 0 -0.110468)
(0.0251117 0 -0.114844)
(0.000809336 0 -0.122279)
(-0.0226149 0 -0.123529)
(-0.0385412 0 -0.121972)
(-0.0504866 0 -0.117587)
(-0.0565152 0 -0.104599)
(-0.0568212 0 -0.0839681)
(-0.110761 0 -0.0695102)
(-0.163049 0 -0.0500916)
(-0.192063 0 -0.0226879)
(-0.177168 0 0.0128027)
(-0.0118053 0 0.0694687)
(0.104528 0 0.086822)
(0.0709676 0 0.0746705)
(0.0442775 0 0.0682613)
(0.0249921 0 0.0726525)
(0.00817279 0 0.0676337)
(0.202494 0 -0.00288992)
(0.196923 0 -0.00888398)
(0.190563 0 -0.0160843)
(0.183532 0 -0.0226834)
(0.175626 0 -0.0300889)
(0.16696 0 -0.0410933)
(0.15721 0 -0.0527747)
(0.146031 0 -0.063423)
(0.133613 0 -0.0736186)
(0.119426 0 -0.0882505)
(0.103695 0 -0.101647)
(0.0852759 0 -0.113188)
(0.0652256 0 -0.121455)
(0.0419293 0 -0.134193)
(0.017915 0 -0.141644)
(-0.00278788 0 -0.145825)
(-0.0189254 0 -0.147497)
(-0.0304769 0 -0.139986)
(-0.0369904 0 -0.12182)
(-0.0887526 0 -0.115718)
(-0.143745 0 -0.102562)
(-0.18442 0 -0.0801435)
(-0.21415 0 -0.0570122)
(-0.0257095 0 -0.00267597)
(0.142167 0 0.0486305)
(0.0979456 0 0.0494606)
(0.0644771 0 0.0432213)
(0.0356724 0 0.064122)
(0.0156807 0 0.0651629)
(0.212069 0 -0.00163293)
(0.208507 0 -0.00641291)
(0.204161 0 -0.0124726)
(0.199313 0 -0.0178312)
(0.193593 0 -0.0241892)
(0.187357 0 -0.0342966)
(0.180084 0 -0.0454476)
(0.171591 0 -0.0556181)
(0.161834 0 -0.065932)
(0.150812 0 -0.0810274)
(0.138055 0 -0.0958829)
(0.123 0 -0.109307)
(0.105775 0 -0.12081)
(0.084909 0 -0.137599)
(0.0623178 0 -0.150495)
(0.0382344 0 -0.160454)
(0.0177705 0 -0.168043)
(0.00178614 0 -0.167145)
(-0.00994753 0 -0.153341)
(-0.0547156 0 -0.155422)
(-0.107166 0 -0.151378)
(-0.144362 0 -0.136227)
(-0.186788 0 -0.121184)
(-0.0198032 0 -0.0952152)
(0.163417 0 -0.0387301)
(0.135585 0 -0.014175)
(0.0924254 0 -0.00821962)
(0.0502934 0 0.0346037)
(0.020676 0 0.0500675)
(0.217845 0 -0.000336446)
(0.216207 0 -0.00393755)
(0.213794 0 -0.00880587)
(0.210987 0 -0.0128644)
(0.207374 0 -0.0179763)
(0.203427 0 -0.0268993)
(0.198529 0 -0.0371293)
(0.192712 0 -0.0462189)
(0.185689 0 -0.0559913)
(0.177932 0 -0.0707654)
(0.16844 0 -0.0857184)
(0.157263 0 -0.0999818)
(0.143758 0 -0.113551)
(0.126516 0 -0.132582)
(0.106933 0 -0.149314)
(0.0806464 0 -0.164458)
(0.0573832 0 -0.177703)
(0.0375853 0 -0.183883)
(0.0216938 0 -0.17595)
(-0.00936294 0 -0.185528)
(-0.054341 0 -0.191059)
(-0.0909284 0 -0.185572)
(-0.129063 0 -0.177369)
(-0.00611807 0 -0.168593)
(0.160763 0 -0.13479)
(0.142325 0 -0.0937532)
(0.113353 0 -0.0667787)
(0.056413 0 -0.0254992)
(0.0132124 0 0.0112182)
(0.219974 0 0.00104992)
(0.220232 0 -0.00147752)
(0.219647 0 -0.0051689)
(0.218705 0 -0.00792789)
(0.217042 0 -0.0117157)
(0.215217 0 -0.0193394)
(0.212502 0 -0.0284226)
(0.20914 0 -0.0360932)
(0.204701 0 -0.0447634)
(0.200016 0 -0.0585072)
(0.193828 0 -0.0727391)
(0.186637 0 -0.0868867)
(0.177237 0 -0.101506)
(0.163876 0 -0.120867)
(0.14827 0 -0.139592)
(0.121282 0 -0.157913)
(0.096265 0 -0.175942)
(0.0767775 0 -0.187865)
(0.0580043 0 -0.187091)
(0.0509968 0 -0.205358)
(0.0204504 0 -0.218868)
(-0.0276044 0 -0.228979)
(-0.0641205 0 -0.226983)
(0.000692945 0 -0.22264)
(0.122651 0 -0.204422)
(0.118833 0 -0.147225)
(0.101505 0 -0.1094)
(0.0512115 0 -0.0872276)
(-0.00415578 0 -0.0517521)
(0.218663 0 0.002237)
(0.22052 0 0.000925974)
(0.221778 0 -0.00164643)
(0.222668 0 -0.0029567)
(0.222792 0 -0.00545191)
(0.223009 0 -0.0118483)
(0.222315 0 -0.0197142)
(0.221055 0 -0.0259122)
(0.218919 0 -0.0331362)
(0.216844 0 -0.0454486)
(0.21359 0 -0.0587206)
(0.209638 0 -0.0712809)
(0.204138 0 -0.0856324)
(0.194725 0 -0.103969)
(0.183367 0 -0.123412)
(0.158653 0 -0.142761)
(0.13337 0 -0.163275)
(0.116796 0 -0.180651)
(0.098539 0 -0.186351)
(0.111107 0 -0.212268)
(0.105375 0 -0.231246)
(0.0456532 0 -0.255585)
(-0.00145689 0 -0.267909)
(0.0122974 0 -0.265385)
(0.0777425 0 -0.253428)
(0.0864485 0 -0.197008)
(0.0828108 0 -0.149393)
(0.0457 0 -0.136743)
(-0.00438692 0 -0.114502)
(0.214323 0 0.00326179)
(0.217715 0 0.00312125)
(0.220403 0 0.00178201)
(0.223058 0 0.00189755)
(0.22495 0 0.000777034)
(0.227007 0 -0.00445386)
(0.228318 0 -0.0110971)
(0.228905 0 -0.0159406)
(0.228728 0 -0.0216328)
(0.228744 0 -0.0324819)
(0.227871 0 -0.0447999)
(0.226371 0 -0.0548448)
(0.223814 0 -0.0669822)
(0.218029 0 -0.0839989)
(0.210542 0 -0.103245)
(0.190198 0 -0.121224)
(0.167488 0 -0.141112)
(0.156994 0 -0.164044)
(0.142193 0 -0.176341)
(0.16537 0 -0.207403)
(0.179523 0 -0.230702)
(0.115874 0 -0.256905)
(0.0565169 0 -0.286731)
(0.0219683 0 -0.289873)
(0.0360921 0 -0.284108)
(0.0507292 0 -0.241187)
(0.0596997 0 -0.194695)
(0.0402581 0 -0.183817)
(0.00389315 0 -0.163793)
(0.207078 0 0.004323)
(0.211741 0 0.00530323)
(0.215751 0 0.00510217)
(0.22003 0 0.00646686)
(0.22363 0 0.00676365)
(0.227299 0 0.00282979)
(0.230418 0 -0.00254292)
(0.232954 0 -0.0059114)
(0.234628 0 -0.0102607)
(0.236779 0 -0.0199623)
(0.237776 0 -0.0312126)
(0.23801 0 -0.0391161)
(0.237483 0 -0.0483078)
(0.234071 0 -0.0638385)
(0.2296 0 -0.0822271)
(0.214046 0 -0.0963175)
(0.195809 0 -0.11318)
(0.197195 0 -0.139208)
(0.188909 0 -0.15898)
(0.220691 0 -0.193186)
(0.245976 0 -0.221256)
(0.169988 0 -0.248125)
(0.108607 0 -0.281408)
(0.0323766 0 -0.288264)
(-0.0027832 0 -0.290603)
(0.0158135 0 -0.266881)
(0.0302028 0 -0.231056)
(0.0262474 0 -0.224051)
(0.00692454 0 -0.204536)
(0.197388 0 0.0052358)
(0.203182 0 0.00722054)
(0.208328 0 0.00811751)
(0.213813 0 0.0107366)
(0.218805 0 0.0123396)
(0.22406 0 0.00993695)
(0.228678 0 0.00588858)
(0.233235 0 0.00405902)
(0.236922 0 0.0010554)
(0.240899 0 -0.00750356)
(0.244127 0 -0.0175981)
(0.245811 0 -0.0242921)
(0.246781 0 -0.031263)
(0.244495 0 -0.0453436)
(0.24168 0 -0.0623549)
(0.228702 0 -0.0717868)
(0.2146 0 -0.0841771)
(0.23535 0 -0.108463)
(0.239483 0 -0.134505)
(0.276055 0 -0.171321)
(0.310184 0 -0.202978)
(0.216646 0 -0.233239)
(0.143073 0 -0.265597)
(0.0320156 0 -0.269246)
(-0.0431296 0 -0.27514)
(-0.0178028 0 -0.263974)
(0.00035899 0 -0.244546)
(0.00896378 0 -0.24923)
(0.00498977 0 -0.234916)
(0.185839 0 0.00596186)
(0.192419 0 0.00875972)
(0.198551 0 0.0106488)
(0.205011 0 0.0145059)
(0.210993 0 0.017391)
(0.217523 0 0.0164544)
(0.223546 0 0.013887)
(0.22975 0 0.0136278)
(0.23536 0 0.0121488)
(0.241173 0 0.00516243)
(0.246391 0 -0.00357343)
(0.25045 0 -0.00907444)
(0.253188 0 -0.0149899)
(0.250951 0 -0.02866)
(0.248959 0 -0.0441285)
(0.23487 0 -0.0502187)
(0.222282 0 -0.0577699)
(0.268462 0 -0.0768418)
(0.291743 0 -0.103982)
(0.333808 0 -0.142243)
(0.374333 0 -0.17805)
(0.243887 0 -0.212054)
(0.152878 0 -0.243229)
(0.0212726 0 -0.239355)
(-0.0884401 0 -0.244952)
(-0.0503644 0 -0.241479)
(-0.0249038 0 -0.234215)
(-0.00794757 0 -0.248766)
(0.000430582 0 -0.24684)
(0.172948 0 0.00646525)
(0.180329 0 0.00995294)
(0.186929 0 0.0126429)
(0.193945 0 0.0175752)
(0.20073 0 0.0217151)
(0.20824 0 0.0221537)
(0.215288 0 0.0210299)
(0.222671 0 0.0224991)
(0.229704 0 0.0226831)
(0.237453 0 0.0176952)
(0.244483 0 0.0106565)
(0.251208 0 0.00650979)
(0.256808 0 0.00148428)
(0.254769 0 -0.0115869)
(0.253501 0 -0.0261943)
(0.235207 0 -0.0317561)
(0.220793 0 -0.0361622)
(0.294182 0 -0.0492213)
(0.341787 0 -0.0715369)
(0.39162 0 -0.10977)
(0.437859 0 -0.149529)
(0.256294 0 -0.183304)
(0.127343 0 -0.211437)
(0.00196471 0 -0.19584)
(-0.128808 0 -0.198304)
(-0.0767301 0 -0.214173)
(-0.038045 0 -0.212339)
(-0.0196201 0 -0.233426)
(-0.0024557 0 -0.240803)
(0.16654 0 0.0105991)
(0.159462 0 0.00683646)
(0.173903 0 0.0139672)
(0.181565 0 0.0200093)
(0.188588 0 0.0252392)
(0.196638 0 0.0267847)
(0.204461 0 0.027)
(0.212599 0 0.0302215)
(0.220522 0 0.0321865)
(0.229781 0 0.0292203)
(0.238468 0 0.0241657)
(0.24717 0 0.0220216)
(0.255309 0 0.0181746)
(0.254856 0 0.00756914)
(0.254642 0 -0.00577291)
(0.231913 0 -0.0123787)
(0.214222 0 -0.0173099)
(0.31271 0 -0.0272764)
(0.386418 0 -0.0425751)
(0.439004 0 -0.0791129)
(0.490448 0 -0.120392)
(0.23732 0 -0.144372)
(0.0584443 0 -0.168343)
(-0.0214533 0 -0.13877)
(-0.146437 0 -0.132074)
(-0.0975416 0 -0.184646)
(-0.0465471 0 -0.194071)
(-0.0194987 0 -0.208869)
(-0.000630844 0 -0.223824)
(0.167445 0 0.0214699)
(0.160072 0 0.0147429)
(0.145419 0 0.0114336)
(0.126323 0 0.00712515)
(0.175082 0 0.0278125)
(0.183629 0 0.0304371)
(0.19166 0 0.0317143)
(0.200114 0 0.0364944)
(0.208536 0 0.0402438)
(0.2188 0 0.039152)
(0.228624 0 0.0360499)
(0.238388 0 0.0364253)
(0.248121 0 0.0346047)
(0.249032 0 0.0271904)
(0.250297 0 0.0169683)
(0.22597 0 0.0106388)
(0.205492 0 0.00349764)
(0.324215 0 -0.00632012)
(0.424607 0 -0.0174897)
(0.474818 0 -0.0533108)
(0.526552 0 -0.0934289)
(0.229084 0 -0.103293)
(-0.0232913 0 -0.117935)
(-0.0712051 0 -0.0905918)
(-0.151143 0 -0.0703828)
(-0.103581 0 -0.135728)
(-0.0550188 0 -0.175233)
(-0.0205075 0 -0.179267)
(0.00625845 0 -0.197119)
(0.16898 0 0.032755)
(0.160724 0 0.0294996)
(0.145539 0 0.0231342)
(0.126158 0 0.0149892)
(0.108606 0 0.0108267)
(0.0972695 0 0.00640117)
(0.17748 0 0.0350738)
(0.186129 0 0.0413852)
(0.194514 0 0.0467166)
(0.205269 0 0.0471306)
(0.215772 0 0.045762)
(0.225744 0 0.0487287)
(0.23605 0 0.0495396)
(0.237732 0 0.0452611)
(0.239682 0 0.0385497)
(0.217932 0 0.0348238)
(0.194934 0 0.0269443)
(0.318698 0 0.0180977)
(0.440601 0 0.00740358)
(0.495214 0 -0.0174203)
(0.546638 0 -0.0569108)
(0.2097 0 -0.0670041)
(-0.0919502 0 -0.0693827)
(-0.101005 0 -0.0573093)
(-0.149439 0 -0.0369569)
(-0.0948786 0 -0.0917135)
(-0.0465129 0 -0.144484)
(-0.0236785 0 -0.141226)
(0.0097505 0 -0.157816)
(0.170613 0 0.0446245)
(0.162378 0 0.0371777)
(0.145996 0 0.0352156)
(0.125707 0 0.0303839)
(0.107799 0 0.0220161)
(0.0961314 0 0.01294)
(0.0871787 0 0.00867878)
(0.075705 0 0.00443653)
(0.179174 0 0.0514925)
(0.190078 0 0.053228)
(0.200715 0 0.0532104)
(0.21043 0 0.0585514)
(0.220511 0 0.0621191)
(0.222471 0 0.0603074)
(0.224489 0 0.0564651)
(0.206894 0 0.0563818)
(0.185853 0 0.0499545)
(0.297922 0 0.0413539)
(0.421819 0 0.0308117)
(0.486091 0 0.0313662)
(0.539231 0 0.00237527)
(0.193286 0 -0.0122795)
(-0.142335 0 -0.0175875)
(-0.131011 0 -0.0326552)
(-0.142529 0 -0.0243603)
(-0.0828093 0 -0.061938)
(-0.0284507 0 -0.108065)
(-0.0234534 0 -0.103598)
(0.0003172 0 -0.113269)
(0.173414 0 0.0572921)
(0.163057 0 0.0546201)
(0.146323 0 0.0479487)
(0.125472 0 0.0380632)
(0.106593 0 0.0336142)
(0.0945835 0 0.0272929)
(0.0853641 0 0.0181218)
(0.0726677 0 0.00791761)
(0.0613696 0 0.0039679)
(0.0665773 0 0.000663787)
(0.184213 0 0.0584739)
(0.193493 0 0.0659687)
(0.202956 0 0.0721224)
(0.204552 0 0.0718674)
(0.206361 0 0.0700089)
(0.193382 0 0.0738155)
(0.17547 0 0.070244)
(0.265816 0 0.0639818)
(0.376529 0 0.0528316)
(0.440253 0 0.0739249)
(0.500126 0 0.0687093)
(0.201188 0 0.0589909)
(-0.145383 0 0.0462928)
(-0.150157 0 -0.0101641)
(-0.137599 0 -0.0245471)
(-0.0725059 0 -0.0360158)
(-0.0127514 0 -0.0692302)
(-0.0220115 0 -0.0724526)
(-0.0165415 0 -0.0771682)
(0.175214 0 0.0710772)
(0.166674 0 0.0617656)
(0.147285 0 0.0612474)
(0.124511 0 0.0565139)
(0.105032 0 0.0461943)
(0.0917137 0 0.0338968)
(0.0822136 0 0.0280634)
(0.0698814 0 0.0191343)
(0.0572756 0 0.00903286)
(0.0610162 0 -0.00165137)
(0.0671838 0 -0.00447258)
(0.0761039 0 -0.00658741)
(0.184276 0 0.0795548)
(0.185127 0 0.0803906)
(0.186156 0 0.0797139)
(0.177583 0 0.0871925)
(0.163927 0 0.0869835)
(0.233587 0 0.0824171)
(0.321335 0 0.073311)
(0.377341 0 0.104382)
(0.438045 0 0.118962)
(0.202673 0 0.118571)
(-0.102574 0 0.110932)
(-0.12998 0 0.0287492)
(-0.132415 0 -0.0219212)
(-0.0704564 0 -0.0137617)
(-0.00569449 0 -0.0256413)
(-0.021601 0 -0.0408265)
(-0.0312573 0 -0.0488728)
(0.16411 0 0.0860592)
(0.165214 0 0.0842039)
(0.146921 0 0.0757202)
(0.124726 0 0.0636171)
(0.103347 0 0.0595402)
(0.0886971 0 0.0518292)
(0.0779226 0 0.0392797)
(0.0638441 0 0.0234521)
(0.0516525 0 0.0153033)
(0.0554568 0 0.00497694)
(0.0604974 0 -0.00543567)
(0.0630676 0 -0.0194048)
(0.0725713 0 -0.020446)
(0.116424 0 -0.0102097)
(0.164578 0 0.0862455)
(0.161087 0 0.09705)
(0.151522 0 0.100142)
(0.203291 0 0.0966022)
(0.270663 0 0.0892765)
(0.314652 0 0.120175)
(0.367111 0 0.145743)
(0.183313 0 0.156302)
(-0.0549808 0 0.16076)
(-0.088473 0 0.0843439)
(-0.117351 0 0.011999)
(-0.0777089 0 0.0181074)
(-0.01635 0 0.0225978)
(-0.0228534 0 -0.00636641)
(-0.0388925 0 -0.0218369)
(0.141643 0 0.103614)
(0.142243 0 0.0902917)
(0.132206 0 0.0911387)
(0.120525 0 0.0871368)
(0.0998892 0 0.0742)
(0.0853866 0 0.0584189)
(0.0732726 0 0.0515966)
(0.058092 0 0.0401602)
(0.0443257 0 0.0243217)
(0.0430982 0 0.00568884)
(0.0484922 0 -0.00360201)
(0.051551 0 -0.022866)
(0.054615 0 -0.0362837)
(0.0943006 0 -0.04031)
(0.138433 0 -0.0296773)
(0.170609 0 -0.0199035)
(0.137759 0 0.109802)
(0.178775 0 0.107675)
(0.228472 0 0.101685)
(0.257255 0 0.128605)
(0.297794 0 0.155166)
(0.154559 0 0.171824)
(-0.0299478 0 0.1885)
(-0.0610454 0 0.137979)
(-0.0964541 0 0.0726761)
(-0.0801357 0 0.0693158)
(-0.0407394 0 0.0697636)
(-0.0293874 0 0.035337)
(-0.0361763 0 0.0100113)
(0.154305 0 0.115255)
(0.122948 0 0.115139)
(0.113936 0 0.108404)
(0.0921992 0 0.0931134)
(0.0825775 0 0.0897832)
(0.0787072 0 0.0819514)
(0.0666375 0 0.065557)
(0.0506987 0 0.0461838)
(0.0360197 0 0.0359992)
(0.0312286 0 0.0204207)
(0.0318106 0 0.00220205)
(0.0307355 0 -0.0274634)
(0.0344781 0 -0.0443303)
(0.0674192 0 -0.0577962)
(0.108081 0 -0.0607219)
(0.150982 0 -0.0670661)
(0.175384 0 -0.0554087)
(0.264286 0 -0.0183939)
(0.195466 0 0.111053)
(0.214636 0 0.133158)
(0.241271 0 0.15672)
(0.12187 0 0.171479)
(-0.0224224 0 0.193714)
(-0.0431461 0 0.166216)
(-0.0732678 0 0.125315)
(-0.070884 0 0.121007)
(-0.0553357 0 0.110621)
(-0.0369477 0 0.0798127)
(-0.0260656 0 0.0510588)
(0.175833 0 0.137848)
(0.166721 0 0.117339)
(0.123605 0 0.121912)
(0.0837954 0 0.116953)
(0.0648413 0 0.106159)