/*--------------------------------*- C++ -*----------------------------------*\
| =========                 |                                                 |
| \\      /  F ield         | OpenFOAM: The Open Source CFD Toolbox           |
|  \\    /   O peration     | Version:  5.x                                   |
|   \\  /    A nd           | Web:      www.OpenFOAM.org                      |
|    \\/     M anipulation  |                                                 |
\*---------------------------------------------------------------------------*/
FoamFile
{
    version     2.0;
    format      ascii;
    class       surfaceScalarField;
    location    "1.6";
    object      alphaPhi10;
}
// * * * * * * * * * * * * * * * * * * * * * * * * * * * * * * * * * * * * * //

dimensions      [0 3 -1 0 0 0 0];

internalField   nonuniform List<scalar> 
30582
(
0.000256707
-3.51455e-06
0.000260405
-3.69808e-06
0.000256343
-6.63469e-06
0.000261143
-7.37638e-07
0.000259914
-7.26849e-06
0.000254968
-8.31266e-06
0.000257248
3.89508e-06
0.000260389
-1.21306e-06
0.000259024
-1.13246e-05
0.000252631
-7.55652e-06
0.000252172
5.07539e-06
0.000256672
7.61221e-06
0.000260591
-2.7794e-06
0.000255793
-1.44866e-05
0.000249365
-3.40953e-06
0.000246159
6.01316e-06
0.000251755
9.99291e-06
0.000257271
1.09319e-05
0.000256214
-3.20015e-06
0.000253678
-1.87996e-05
0.000242749
7.51924e-06
0.00024023
5.92925e-06
0.000246057
1.1711e-05
0.000252696
1.45683e-05
0.000254136
1.30099e-05
0.000255885
-5.40644e-06
0.000244713
-2.0764e-05
0.000237548
2.38422e-05
0.000234616
5.61405e-06
0.000240037
1.19487e-05
0.000246702
1.77046e-05
0.000250646
1.80582e-05
0.000255022
1.38728e-05
0.000245356
-6.04901e-06
0.000242381
-2.55969e-05
0.000220037
5.78988e-05
0.00023089
3.72638e-06
0.000234319
1.1332e-05
0.000240226
1.84244e-05
0.000245641
2.27093e-05
0.000252953
2.01272e-05
0.000247874
1.1355e-05
0.000245664
-9.33191e-06
0.000215497
-1.86178e-05
8.24846e-05
-8.49131e-06
0.000229662
1.22754e-06
0.000230455
7.59101e-06
0.000234072
1.74868e-05
0.000239238
2.48278e-05
0.000247849
2.7813e-05
0.000249363
1.86377e-05
0.000249911
7.10829e-06
0.000220201
-1.21623e-05
9.50824e-05
-2.69706e-06
-5.96198e-06
1.3839e-07
0.000230703
-1.04119e-06
0.000229092
2.5903e-06
0.000229781
1.18815e-05
0.000232619
2.41062e-05
0.000240069
3.26077e-05
0.000246577
3.05989e-05
0.000252494
1.60539e-05
0.000233438
-5.5319e-06
0.000117941
-4.63186e-06
-6.60334e-06
-3.87622e-09
8.20074e-08
2.70912e-09
0.000233041
-2.33787e-06
0.000230496
-2.44504e-06
0.000228662
3.70961e-06
0.000227804
1.66957e-05
0.000231899
3.22762e-05
0.000238986
4.01989e-05
0.000249024
3.40676e-05
0.000245031
3.55374e-06
0.000148978
-5.37956e-06
-5.74551e-06
-1.79952e-08
3.85473e-09
-5.56172e-11
6.75157e-10
9.88332e-13
0.000234908
-1.86669e-06
0.000233273
-5.11492e-06
0.000230181
-3.96465e-06
0.000226234
5.27954e-06
0.000226046
2.25485e-05
0.000229603
4.16592e-05
0.000239337
4.98821e-05
0.000247989
2.94052e-05
0.000173537
-4.8507e-06
-2.20345e-06
-4.19588e-08
-4.76708e-09
4.67127e-12
1.13655e-11
-1.32567e-16
-7.92715e-17
1.20583e-15
0.000234531
3.76704e-07
0.000235587
-4.18099e-06
0.000233558
-8.49139e-06
0.000228781
-6.51085e-06
0.000224933
6.39268e-06
0.000222636
2.95151e-05
0.000227308
5.36832e-05
0.000240291
5.4652e-05
0.000187973
2.58355e-06
4.56116e-06
-9.25851e-08
-1.18216e-08
-2.49833e-11
3.21077e-12
9.63695e-15
-3.90247e-16
-2.16383e-17
1.38869e-16
4.16959e-21
0.000230017
4.51437e-06
0.000235201
7.63327e-07
0.000236834
-7.45754e-06
0.000233565
-1.32756e-05
0.000227822
-9.40009e-06
0.00022067
8.35912e-06
0.000218176
3.86429e-05
0.000227107
6.31253e-05
0.000186397
1.68731e-05
1.30699e-05
-1.06478e-07
-2.1663e-08
-8.39741e-11
2.17074e-12
-2.34709e-15
1.41911e-16
4.50232e-20
2.28539e-19
-1.70834e-26
-7.08681e-27
0.000220112
9.90418e-06
0.000231072
8.64334e-06
0.000238103
-5.04776e-07
0.000238312
-1.2205e-05
0.000233934
-1.93872e-05
0.000225017
-1.37474e-05
0.000216313
1.02214e-05
0.00021653
4.63048e-05
0.000178348
2.21651e-05
1.72849e-05
-1.75719e-08
-2.22027e-08
-1.65715e-10
6.01914e-12
-1.4912e-14
9.68634e-17
-6.70727e-20
3.79577e-21
4.19398e-24
-9.93595e-26
0.000204531
1.55815e-05
0.000221553
1.94224e-05
0.000234231
1.25147e-05
0.000239937
-2.13003e-06
0.000240744
-1.90148e-05
0.000233573
-2.79432e-05
0.000221791
-1.92113e-05
0.000214575
1.14951e-05
0.000173704
1.63795e-05
1.76457e-05
2.67541e-07
9.51239e-09
-1.86326e-10
1.29533e-11
-3.96385e-14
5.05805e-17
-4.31117e-19
8.09329e-22
-1.22953e-24
-2.31256e-27
0.000183379
2.11521e-05
0.00020616
3.09749e-05
0.000224917
2.8737e-05
0.00023774
1.47122e-05
0.000245609
-6.99515e-06
0.0002432
-2.86415e-05
0.0002328
-3.89376e-05
0.000221001
-2.15995e-05
0.000175315
3.40614e-06
1.7557e-05
2.15884e-07
7.12315e-08
-1.41194e-10
4.47081e-11
-7.1128e-14
-8.88736e-16
-1.21269e-18
-7.91795e-21
-9.80566e-24
1.85339e-26
0.00015713
2.62491e-05
0.000184986
4.23265e-05
0.000209576
4.63159e-05
0.000229392
3.7085e-05
0.000244276
1.60448e-05
0.000249538
-1.33335e-05
0.00024602
-4.18569e-05
0.000234068
-4.48477e-05
0.000189461
-7.12444e-06
1.93291e-05
-4.03018e-08
1.44379e-07
-2.28384e-10
1.27257e-10
-9.93201e-14
-9.56112e-16
-2.59688e-18
-4.45311e-20
-3.04697e-23
9.64747e-26
0.000126598
3.0532e-05
0.000158585
5.26498e-05
0.000188253
6.36494e-05
0.000214387
6.13214e-05
0.000236364
4.49974e-05
0.000250961
1.46222e-05
0.000257071
-2.43846e-05
0.00025036
-5.14203e-05
0.000211295
-1.67697e-05
2.70678e-05
-3.08958e-07
2.62944e-07
-8.89162e-10
2.92696e-10
-2.01622e-13
6.62454e-15
-4.33376e-18
-7.91418e-20
-7.74056e-23
1.10783e-26
9.27807e-05
3.38171e-05
0.000127814
6.13029e-05
0.000161509
7.93933e-05
0.000192953
8.50832e-05
0.00022149
7.61955e-05
0.000244709
5.1249e-05
0.000260391
1.13021e-05
0.000263705
-3.4108e-05
0.000235569
-2.39601e-05
4.12375e-05
-7.42978e-07
4.88492e-07
-2.49905e-09
5.74909e-10
-5.78362e-13
3.03756e-14
-9.58854e-18
3.22591e-20
-1.45297e-22
-6.90359e-26
5.67516e-05
3.6029e-05
9.37035e-05
6.79277e-05
0.000130251
9.2561e-05
0.000165751
0.000106595
0.000199751
0.000106822
0.000230326
9.05791e-05
0.000254675
5.69656e-05
0.000269084
6.00727e-06
0.000257791
-2.10187e-05
6.3541e-05
-1.32328e-06
9.56878e-07
-5.83323e-09
1.12691e-09
-1.58278e-12
7.6481e-14
-2.59792e-17
4.26938e-19
-3.43171e-22
8.24584e-25
1.95766e-05
3.7175e-05
5.7353e-05
7.23796e-05
9.55601e-05
0.000102619
0.000133793
0.000124519
0.000171817
0.00013453
0.000208301
0.000128847
0.000240566
0.000104687
0.000266052
5.99977e-05
0.000271718
7.02736e-07
8.99788e-05
-1.59381e-06
1.95168e-06
-1.17064e-08
2.32201e-09
-3.90328e-12
1.45435e-13
-6.81315e-17
1.11286e-18
-9.23119e-22
4.30192e-24
-1.77114e-05
3.7288e-05
1.98435e-05
7.46845e-05
5.85706e-05
0.000109369
9.82531e-05
0.000138158
0.000138821
0.000157514
0.000179456
0.000163374
0.000218174
0.00015124
0.000252545
0.000118194
0.000273169
2.95092e-05
0.000109227
-2.77953e-07
3.81994e-06
-1.81093e-08
5.07745e-09
-8.69467e-12
2.18577e-13
-1.65506e-16
1.79656e-18
-2.44149e-21
9.88924e-24
-5.41516e-05
3.64402e-05
-1.77855e-05
7.4917e-05
2.03888e-05
0.000112866
6.03363e-05
0.000147286
0.00010206
0.00017492
0.000145152
0.000191818
0.000188212
0.000193336
0.000229653
0.000174132
0.000261704
6.49617e-05
0.000116743
3.26671e-06
6.39665e-06
-1.32251e-08
1.14718e-08
-1.6219e-11
1.78378e-13
-3.77372e-16
8.8669e-19
-5.99934e-21
9.97755e-24
-8.88479e-05
3.46963e-05
-5.45705e-05
7.32251e-05
-1.79302e-05
0.000113236
2.11881e-05
0.000152014
6.28227e-05
0.000186523
0.000106863
0.000213209
0.000152334
0.000227696
0.000197995
0.000224994
0.000239068
0.000100583
0.000115253
7.56129e-06
8.42181e-06
4.445e-08
2.50886e-08
-1.88984e-11
-2.80262e-13
-7.74907e-16
-7.97634e-18
-1.37325e-20
-2.7036e-23
-0.000120987
3.21389e-05
-8.96126e-05
6.97383e-05
-5.54138e-05
0.000110709
-1.81187e-05
0.000152543
2.23063e-05
0.000192531
6.59925e-05
0.000227394
0.000112252
0.000253291
0.000159908
0.000265782
0.000207591
0.000131879
0.000106414
1.18561e-05
9.08529e-06
1.63994e-07
4.61048e-08
5.18793e-11
-1.76361e-12
-1.12599e-15
-5.11614e-17
-2.81717e-20
-2.21026e-22
-0.000149854
2.88674e-05
-0.000122093
6.46192e-05
-9.11522e-05
0.000105477
-5.6605e-05
0.000149195
-1.83947e-05
0.000193244
2.37985e-05
0.000234725
6.94907e-05
0.000270155
0.000117432
0.000295767
0.000169244
0.000155167
9.24093e-05
1.5586e-05
8.61423e-06
2.87751e-07
6.0948e-08
3.90904e-10
-3.5632e-12
7.34286e-15
-2.87558e-16
-4.09314e-20
-1.04785e-21
-0.000174848
2.4994e-05
-0.000151284
5.80584e-05
-0.000124308
9.77754e-05
-9.33513e-05
0.000142223
-5.8296e-05
0.000189096
-1.86193e-05
0.000235662
2.53841e-05
0.000278831
7.23653e-05
0.000315222
0.000126128
0.000170598
7.48069e-05
1.82427e-05
7.46729e-06
3.88102e-07
6.3812e-08
8.42803e-10
-3.38889e-12
7.70671e-14
-1.12953e-15
3.51999e-19
-5.78404e-21
-0.000195505
2.06565e-05
-0.000176561
5.02716e-05
-0.000154134
8.78842e-05
-0.000127499
0.000131923
-9.64651e-05
0.000180392
-6.02639e-05
0.000230741
-1.89223e-05
0.000279968
2.65002e-05
0.000324696
8.00412e-05
0.000179886
5.55348e-05
1.99011e-05
5.93537e-06
4.52563e-07
5.72385e-08
1.23353e-09
-1.84816e-12
2.03978e-13
-2.2712e-15
3.39837e-18
-2.27296e-20
-0.000211521
1.60168e-05
-0.000197439
4.15341e-05
-0.000179985
7.6123e-05
-0.000158263
0.000118648
-0.000132015
0.000167474
-0.000100195
0.000220323
-6.25093e-05
0.000274328
-1.8923e-05
0.000325391
3.19544e-05
0.000184776
3.55805e-05
2.09196e-05
4.29429e-06
4.86439e-07
4.61338e-08
1.478e-09
-3.34178e-13
3.32948e-13
-2.91077e-15
9.39341e-18
-4.85473e-20
-0.00022278
1.12582e-05
-0.000213586
3.21637e-05
-0.00020135
6.28987e-05
-0.000184946
0.000102806
-0.000164116
0.000150749
-0.000137504
0.000204782
-0.00010446
0.000262274
-6.38143e-05
0.00031922
-1.68031e-05
0.000186417
1.45748e-05
2.16254e-05
2.70228e-06
5.05796e-07
3.25629e-08
1.60133e-09
2.63743e-13
4.22008e-13
-2.8371e-15
1.59503e-17
-6.671e-20
-0.000229251
6.4709e-06
-0.00022482
2.24916e-05
-0.000217888
4.87013e-05
-0.000206978
8.49307e-05
-0.00019201
0.000130699
-0.000171301
0.000184547
-0.000143796
0.000244118
-0.000107821
0.000306281
-6.55348e-05
0.000186357
-7.24175e-06
2.2046e-05
1.0677e-06
5.27457e-07
1.92807e-08
1.66864e-09
1.19846e-14
4.71183e-13
-2.33102e-15
2.08479e-17
-6.88518e-20
-0.000231072
1.82164e-06
-0.00023118
1.28314e-05
-0.000229459
3.40623e-05
-0.000223964
6.5687e-05
-0.000215056
0.000107977
-0.000200738
0.000160136
-0.000179575
0.000220326
-0.000149638
0.000285934
-0.000112358
0.000183232
-2.87289e-05
2.21098e-05
-6.16363e-07
5.46852e-07
6.80196e-09
1.7526e-09
-5.32203e-13
4.98798e-13
-1.75671e-15
2.37618e-17
-5.94057e-20
-0.000228653
-2.41938e-06
-0.000232992
3.63331e-06
-0.000236141
1.95138e-05
-0.000235688
4.57872e-05
-0.000232828
8.34581e-05
-0.000225048
0.000132287
-0.000210856
0.000191417
-0.00018799
0.000258678
-0.000156306
0.000176305
-4.97215e-05
2.18653e-05
-2.36205e-06
5.56294e-07
-4.1787e-09
1.82058e-09
-7.99959e-13
5.2983e-13
-1.1859e-15
2.54341e-17
-4.57452e-20
-0.000222607
-6.04624e-06
-0.000230741
-4.6707e-06
-0.000237937
5.42973e-06
-0.00024207
2.58952e-05
-0.00024516
5.81195e-05
-0.000243697
0.000102107
-0.000236688
0.000158119
-0.000221767
0.000225194
-0.000196625
0.000164769
-7.05029e-05
2.13872e-05
-4.19195e-06
5.59439e-07
-1.78667e-08
1.92341e-09
-2.594e-12
5.54061e-13
-6.30394e-16
2.7077e-17
-3.164e-20
-0.000213451
-9.15583e-06
-0.000224514
-1.22724e-05
-0.00023487
-7.73834e-06
-0.000243456
6.81627e-06
-0.000252129
3.28639e-05
-0.000256429
7.08516e-05
-0.000256446
0.000121865
-0.000249627
0.000185979
-0.000232376
0.000147743
-9.07671e-05
2.04421e-05
-6.17461e-06
5.66371e-07
-3.59353e-08
2.02837e-09
-4.17803e-12
6.12034e-13
-1.87084e-16
2.83779e-17
-1.81254e-20
-0.000201743
-1.17078e-05
-0.000215038
-1.86324e-05
-0.000228139
-1.90028e-05
-0.000240729
-1.04659e-05
-0.000253631
8.31813e-06
-0.000263024
3.94591e-05
-0.000270033
8.44382e-05
-0.000270623
0.000142861
-0.000261849
0.000124742
-0.000109859
1.87946e-05
-8.28238e-06
5.64072e-07
-5.73823e-08
2.14789e-09
-5.36389e-12
6.80867e-13
4.76984e-16
3.15837e-17
-6.05646e-21
-0.000187918
-1.38253e-05
-0.000202936
-2.38095e-05
-0.00021813
-2.8641e-05
-0.000233527
-2.62045e-05
-0.000249331
-1.47657e-05
-0.000263571
8.86461e-06
-0.000277736
4.71622e-05
-0.00028482
9.86355e-05
-0.000284463
9.65866e-05
-0.000125449
1.62541e-05
-1.04128e-05
5.40013e-07
-8.1465e-08
2.24402e-09
-7.73402e-12
7.55951e-13
1.46802e-15
3.54797e-17
1.17484e-20
-1.55197e-05
-0.000172398
-0.000188817
-2.79447e-05
-0.000205433
-3.65072e-05
-0.00022286
-3.93081e-05
-0.000241075
-3.44599e-05
-0.000259554
-1.87822e-05
-0.000278758
9.8872e-06
-0.000291602
5.39444e-05
-0.000299546
6.63511e-05
-0.000136959
1.28384e-05
-1.22198e-05
4.85543e-07
-1.06243e-07
2.23273e-09
-1.00192e-11
8.25971e-13
2.85387e-15
3.95514e-17
3.74866e-20
-3.11416e-05
-0.000173195
-4.01956e-05
-0.000132202
-0.000190663
-4.27149e-05
-0.000209449
-4.99178e-05
-0.000229362
-5.10208e-05
-0.000250216
-4.37981e-05
-0.000272314
-2.5226e-05
-0.000292475
1.07756e-05
-0.000306391
3.58481e-05
-0.000143523
8.98978e-06
-1.34195e-05
3.96089e-07
-1.25833e-07
2.04828e-09
-1.05508e-11
8.45091e-13
4.75762e-15
4.3143e-17
7.41309e-20
-4.72946e-05
-0.00017451
-8.07138e-05
-0.000132676
-3.86765e-05
-9.35259e-05
-0.000193899
-5.82655e-05
-0.000214924
-6.43558e-05
-0.00023712
-6.41166e-05
-0.000261144
-5.49679e-05
-0.000286778
-2.93314e-05
-0.000304035
7.65123e-06
-0.000143595
5.02297e-06
-1.38883e-05
2.80532e-07
-1.33296e-07
1.64803e-09
-7.37983e-12
7.74914e-13
6.99771e-15
4.37223e-17
1.23478e-19
-6.43647e-05
-0.000176829
-0.000122246
-0.000132977
-7.70956e-05
-9.42574e-05
-3.52997e-05
-5.82262e-05
-0.00019828
-7.49105e-05
-0.000221291
-8.01849e-05
-0.000246359
-7.88932e-05
-0.000274721
-6.2832e-05
-0.000293097
-1.92927e-05
-0.000135691
1.30744e-06
-1.30413e-05
1.45376e-07
-1.26245e-07
1.0654e-09
-5.67152e-13
5.989e-13
8.91642e-15
3.92909e-17
1.77358e-19
-8.26434e-05
-0.000180001
-0.00016541
-0.000133665
-0.000116163
-9.39102e-05
-6.86727e-05
-6.08844e-05
-4.20441e-05
-1.61821e-05
-0.000203185
-9.30163e-05
-0.000229205
-9.73099e-05
-0.000259177
-8.73304e-05
-0.000275983
-3.80732e-05
-0.00011711
-1.75032e-06
-1.05e-05
1.20242e-08
-9.87893e-08
4.1143e-10
8.46442e-12
3.43479e-13
1.03175e-14
2.92376e-17
2.18893e-19
-0.000102712
-0.000183117
-0.000211387
-0.000134024
-0.000155289
-9.45393e-05
-0.000101708
-6.08745e-05
-7.77401e-05
-2.51884e-05
-4.838e-05
3.2198e-05
-0.000209846
-0.000112299
-0.000241989
-0.000104071
-0.000255461
-4.43776e-05
-9.09927e-05
-2.99559e-06
-6.96487e-06
-4.28639e-08
-6.13175e-08
-2.98699e-11
1.29861e-11
1.01247e-13
8.72918e-15
1.58512e-17
2.32415e-19
-0.000124486
-0.000187913
-0.000261066
-0.000133437
-0.000195641
-9.36715e-05
-0.000132747
-6.35002e-05
-0.000108553
-3.00616e-05
-8.35145e-05
9.94612e-06
-9.44832e-05
0.000126681
-0.000223089
-0.000116752
-0.000233222
-4.27522e-05
-6.51262e-05
-2.79574e-06
-4.042e-06
-4.84385e-08
-3.28219e-08
-8.91274e-11
9.06772e-12
-5.23792e-15
5.04276e-15
4.3578e-18
1.80799e-19
-0.00012663
-0.000201372
-0.000313478
-0.000134467
-0.000237647
-9.14279e-05
-0.0001629
-6.35187e-05
-0.000130699
-4.13541e-05
-0.000107295
-6.28146e-06
-0.000166143
8.1606e-05
-0.000114496
0.000241177
-0.00020881
-3.80395e-05
-4.40558e-05
-2.15333e-06
-2.30405e-06
-3.51191e-08
-1.67843e-08
-7.64798e-11
3.74935e-12
-9.27137e-15
1.9063e-15
-2.27103e-19
9.64888e-20
-3.24285e-05
-0.000180943
-0.000297722
-0.000148839
-0.000278239
-9.1531e-05
-0.000192561
-6.17585e-05
-0.00014682
-4.73975e-05
-0.000121292
-2.73571e-05
-0.000205071
3.26462e-05
-0.000210786
0.000177895
-0.000169142
0.000410319
-2.81104e-05
-1.5598e-06
-1.35222e-06
-2.24428e-08
-8.61959e-09
-4.90586e-11
7.333e-13
-6.60267e-15
6.78739e-16
-3.62065e-19
3.23218e-20
-1.05534e-06
-1.71689e-05
-5.31461e-05
-0.000106785
-0.000235034
-0.000107079
-0.000217544
-6.31731e-05
-0.000159324
-4.92383e-05
-0.000127788
-4.09015e-05
-0.000207271
-2.51565e-05
-0.000261544
8.34049e-05
-0.000301323
0.000310076
-6.34293e-05
0.000473749
-7.80528e-07
-1.40649e-08
-4.33916e-09
-2.86527e-11
-1.85226e-13
-3.88644e-15
2.31692e-16
-2.37515e-19
1.10528e-20
-8.69312e-09
-3.94525e-07
-1.47681e-06
-3.47512e-06
-2.399e-05
-5.6385e-05
-0.000165798
-7.70223e-05
-0.000164894
-5.37922e-05
-0.000125659
-5.13424e-05
-0.000183398
-6.4775e-05
-0.000263334
-2.33674e-05
-0.000393364
0.000175446
-0.000196345
0.000442992
0.000163784
0.000309965
-2.06097e-09
-1.60675e-11
-2.4011e-13
-2.12736e-15
8.00664e-17
-1.30824e-19
3.82851e-21
-8.65026e-12
-7.56741e-10
-1.04054e-08
-9.02184e-08
-4.98243e-07
3.66375e-07
-1.09836e-05
-2.85091e-05
-0.000111653
-6.2873e-05
-0.000115328
-6.05906e-05
-0.000145941
-8.87416e-05
-0.000224368
-0.00010374
-0.000403975
-1.27563e-05
-0.000338468
0.000317569
0.000215849
0.000390927
0.00142359
0.00052116
-0.00163478
-9.81899e-14
-1.13822e-15
2.99179e-17
-6.86754e-20
1.31322e-21
-5.82505e-16
-2.68677e-14
-6.87071e-12
-2.3498e-10
-2.9047e-09
-2.58422e-08
-1.76721e-07
1.06195e-06
-5.43478e-06
-1.57329e-05
-6.75612e-05
-6.32606e-05
-0.0001001
-0.000102431
-0.000156151
-0.000156868
-0.000340394
-0.00016732
-0.000366859
1.56339e-05
0.000181548
0.00035187
0.0012492
0.000565323
0.00184835
0.000660484
-0.00198768
0.000358033
-0.00199282
1.26314e-17
-3.60122e-20
4.69221e-22
-1.89694e-20
5.66451e-18
-3.22052e-16
-4.19821e-14
-1.88245e-12
-9.79673e-11
-8.10645e-10
-1.09586e-08
-7.55615e-08
1.15771e-06
-2.72241e-06
-1.03711e-05
-4.01927e-05
-8.93896e-05
-7.96638e-05
-0.000174985
-0.000221354
-0.000275792
-0.000310595
-0.000223585
7.89886e-05
0.000118193
0.0011431
0.000457963
0.00168952
0.000724151
0.00189689
0.000841575
-0.00207799
0.000535299
-0.00216495
0.000272
-0.00226483
1.91186e-22
7.80813e-23
-9.8311e-21
-5.09984e-19
-8.27722e-17
-2.32524e-14
-4.80903e-13
-4.56925e-11
-2.73259e-10
-6.33981e-09
-3.50498e-08
1.17615e-06
-1.15856e-06
-1.21835e-05
-1.83433e-05
-0.000128029
-9.62141e-05
-0.000296146
-0.0002133
-0.000373072
-7.94495e-07
-0.000143801
0.000975578
0.000285717
0.00147733
0.00067015
0.00173748
0.000883561
0.00191862
0.0010556
-0.00213265
0.000735842
-0.00227853
0.000465219
-0.00235817
0.000187576
-0.00245241
-5.75493e-24
-2.6787e-21
-4.80776e-19
-1.96991e-17
-9.40217e-15
-1.33575e-13
-2.39671e-11
-1.0036e-10
-4.12395e-09
-1.67242e-08
1.26798e-06
-1.93475e-07
-1.61746e-05
-1.25337e-05
-0.000191299
-0.000109952
-0.00039832
1.54375e-05
-0.000389304
0.000788195
4.35821e-05
0.00123903
0.000524024
0.001535
0.000872627
0.00166254
0.00113963
0.00189582
0.00123389
-0.0020741
0.000898291
-0.0022951
0.000617557
-0.00243087
0.000339314
-0.0025099
0.000127573
-0.00257998
-5.53033e-24
-6.13898e-22
-2.09216e-19
-4.9962e-18
-3.85145e-15
-3.8633e-14
-1.30071e-11
-3.65026e-11
-2.58384e-09
-1.24329e-08
1.62419e-06
1.17154e-06
-2.50628e-05
-2.67797e-05
-0.000266997
2.6231e-05
-0.000409116
0.000580997
-0.000182106
0.0010199
0.000262706
0.00129666
0.000762367
0.00143568
0.00109949
0.00165778
0.00137767
0.00166572
0.00137811
-0.00180995
0.00101197
-0.00218778
0.00072487
-0.00240241
0.000458541
-0.0025501
0.000247014
-0.00262935
6.62114e-05
-0.00264619
-2.41972e-24
-1.46165e-22
-8.57157e-20
-1.29533e-18
-1.59818e-15
-1.06989e-14
-6.30885e-12
-1.7047e-11
-2.01783e-09
-8.68251e-09
1.98013e-06
7.80119e-07
-3.782e-05
-1.61779e-05
-0.000237695
0.000336459
-0.000164578
0.000698176
0.000139623
0.000988419
0.000570948
0.00120447
0.000993578
0.00133889
0.00141838
0.00144089
0.00160251
0.00155189
0.000352574
-0.00163166
0.00035215
0.000376373
0.000376442
0.00106815
-0.00186614
0.000770578
-0.00223349
0.000514008
-0.00245788
0.000289585
-0.00259267
9.7292e-05
-0.00266043
1.10651e-05
-0.00265725
-9.07967e-25
-3.42352e-23
-3.43883e-20
-2.97573e-19
-7.43012e-16
-2.92418e-15
-3.70396e-12
-6.96353e-12
-1.43686e-09
-4.27786e-09
1.67386e-06
-5.59155e-07
-4.06411e-05
8.49085e-05
9.8842e-06
0.000365043
0.000168555
0.000636536
0.000491506
0.000973773
0.00080165
0.00100181
0.00133066
0.00119689
0.00166238
0.00129394
0.00186044
-7.10388e-07
0.000334692
-0.00036021
0.000378675
0.000294004
-0.00172196
0.000293861
0.000285011
0.00028493
0.000334725
-0.000360244
0.000376833
-5.36732e-07
0.000308151
0.000403388
0.000308901
0.000401667
0.000829228
-0.0019248
0.00052196
-0.00224144
0.000243692
-0.00241199
6.21818e-05
-0.00255756
-1.01546e-05
-0.00263921
-4.02343e-05
-0.00261702
-3.1915e-25
-6.74068e-24
-1.4197e-20
-5.63148e-20
-4.23422e-16
-3.45532e-16
-2.22033e-12
-2.02955e-12
-9.08911e-10
-1.71363e-09
8.90984e-07
-5.62446e-07
2.63485e-05
0.000135438
0.000226094
0.000325813
0.000479278
0.000731288
0.000733991
0.000685246
0.00111822
0.00094748
0.00158007
0.00102236
0.00193397
-0.000278402
-0.000278932
0.00098321
0.000503608
0.000502005
0.00052283
0.000523239
-7.16184e-07
-0.000396204
0.000330411
-3.79638e-07
0.000304982
-0.000343719
0.000417625
-0.00187816
0.000985107
-0.00039589
0.000328487
-4.69536e-07
-0.000428291
0.000317172
-0.000427449
0.000315617
0.000304924
-0.000343156
0.000414516
-2.41688e-07
0.000430157
0.000427349
0.000553137
-0.00195599
0.000167427
-0.00216518
-5.67635e-05
-0.00229304
-0.000135847
-0.00243187
-0.000120643
-0.0025588
-6.77856e-05
-0.00254923
-1.11898e-25
-9.5432e-25
-6.84217e-21
-4.08639e-22
-1.90683e-16
3.50278e-16
-1.22723e-12
-1.19424e-13
-5.04797e-10
-2.53311e-10
4.17731e-07
-1.51639e-07
9.522e-05
0.00013879
0.000400313
0.00046007
0.000750495
0.000445749
0.000973486
0.000664679
0.00140102
0.000740963
0.00186147
0.000782608
0.000525796
0.000525817
0.000542363
0.00054063
2.84831e-07
0.000193935
-0.000223775
0.000533202
0.000193127
-0.000223258
0.00053246
-2.38112e-07
0.000165737
0.000551294
0.000165393
0.000550781
-3.12569e-07
-0.000385385
0.000372032
1.23264e-06
0.000273443
-0.00030896
0.000126796
9.82276e-05
0.000120224
0.000106481
-0.00192726
0.000602146
0.000415596
0.000414695
-0.00185613
0.000273406
0.000273627
0.000302589
0.000302125
-0.00038481
0.000369478
-2.465e-07
0.000347189
0.000344826
0.000273697
-0.000309452
0.000126075
9.92603e-05
0.000120028
0.000105966
7.5142e-07
0.000130064
0.000108873
0.000130832
0.000109268
0.000129421
0.000109908
0.000130151
0.000109042
0.000185253
-0.00197381
-0.00017442
-0.00204752
-0.000365049
-0.00206384
-0.00030463
-0.00224788
-0.000190742
-0.00243584
-0.000117986
-0.00243125
-4.07172e-26
1.77522e-24
-4.77311e-21
5.86957e-20
-7.83728e-17
2.50992e-16
-5.60169e-13
2.12837e-13
-2.67676e-10
-4.38718e-11
3.57687e-07
-2.14055e-08
0.000145057
0.000190029
0.00065753
0.000277775
0.000918463
0.000402
0.00123616
0.00045177
0.00169021
0.000624059
0.000504261
0.000503218
0.000506952
0.000505588
-2.50549e-07
0.000135604
0.000556181
0.000135392
0.000555574
-2.14934e-07
0.000114955
0.000563228
0.000114334
0.000561473
3.521e-07
0.000106999
-4.73436e-05
-3.19245e-05
0.000128723
-3.82548e-05
0.000151383
0.00013177
0.000152479
-2.10326e-05
0.000106798
-4.75102e-05
-3.1858e-05
-3.81055e-05
0.000128973
0.00015129
0.000131896
0.000152382
-2.10172e-05
4.51186e-07
8.60746e-05
0.000132788
0.000151718
0.000133906
0.000153501
8.62661e-05
0.00013294
0.000151598
0.00013398
0.000153386
1.10028e-06
-0.000348519
0.000111738
9.27876e-05
0.000114946
9.08764e-05
-5.81768e-05
8.34939e-06
2.90698e-07
5.36355e-05
0.000122697
-8.37161e-06
5.53982e-05
-6.03928e-05
0.00011158
2.00585e-07
-6.32065e-05
0.000116656
5.18179e-05
0.000118425
-0.00189218
0.000150411
-0.00188429
0.000138373
0.000138901
0.00017538
0.000176149
-8.5526e-08
0.000373664
-0.000366886
0.000266531
0.000373952
-0.000366995
0.000266365
3.12777e-07
0.00037032
0.000305507
0.000371451
0.000304813
-0.000348493
0.000111157
9.35569e-05
0.000114255
9.05223e-05
9.05511e-07
0.000106407
7.74981e-05
9.75317e-05
8.64918e-05
0.000105969
7.87973e-05
9.72753e-05
8.65136e-05
-5.7958e-05
8.23885e-06
5.34938e-05
0.00012258
-8.24928e-06
5.58107e-05
-6.06366e-05
0.000112344
-6.29043e-05
0.000116895
5.17358e-05
0.000118289
4.64449e-05
8.99332e-06
2.33827e-07
0.000128027
-1.52001e-05
-4.62568e-05
0.000122989
2.08489e-07
0.000129945
0.000123834
4.6419e-05
8.92683e-06
0.000127803
-1.48934e-05
-4.61795e-05
0.000123476
0.000130027
0.000123528
-0.000278899
-0.00186931
-0.000620653
-0.00179191
-0.000590123
-0.00177834
-0.000422713
-0.00201591
-0.000283418
-0.00227041
-0.000161301
-0.00226995
-2.39688e-26
3.42114e-24
-3.29132e-21
3.79992e-20
-4.113e-17
1.30659e-16
-1.5276e-13
3.07159e-14
-8.82923e-11
-5.20656e-12
3.20182e-07
-1.94429e-07
0.000223809
8.01583e-05
0.000833113
0.000183775
0.00113666
0.0002295
0.00145843
0.000429319
0.00046797
0.000468664
0.000474347
0.000473968
-2.30934e-07
8.25403e-05
0.000536907
8.26314e-05
0.00053469
-2.45808e-07
7.39303e-05
0.000515808
7.45227e-05
0.000513451
7.36459e-07
6.89695e-05
0.000133619
0.0001506
0.000135651
0.000152752
6.8975e-05
0.000133892
0.000150506
0.000136586
0.000152663
1.09946e-06
5.70389e-05
0.000135118
0.000151159
0.000135403
0.000152378
5.6238e-05
0.000135757
0.000150993
0.00013626
0.000152284
-5.56197e-06
1.10997e-05
-2.39521e-05
0.000147147
-7.21273e-06
-3.59064e-05
0.000127864
1.089e-05
-2.699e-08
0.000155017
-2.00882e-05
-6.16251e-06
8.33701e-06
0.000140773
-5.30971e-09
9.3234e-06
0.000147874
5.60397e-08
-3.32228e-05
0.000134882
-7.29529e-06
-3.58639e-05
0.000128536
-5.40247e-06
1.11909e-05
-2.43176e-05
0.000147509
1.09158e-05
-2.01515e-05
0.000155096
-6.07902e-06
8.40489e-06
0.000140814
9.34352e-06
0.00014787
-3.32096e-05
0.00013498
-6.87095e-06
-5.84336e-06
3.43644e-06
0.000142079
-6.81782e-06
-1.88435e-09
4.54258e-06
0.000147125
-6.95323e-06
0.000143367
-5.75316e-09
0.000149032
-6.77282e-06
-5.90125e-06
3.41703e-06
0.000142213
-6.83871e-06
4.5182e-06
0.000147144
-6.86576e-06
0.000143367
0.00014902
6.81678e-05
8.78107e-06
1.42519e-07
-7.46327e-05
0.000109279
-8.41916e-06
-6.6018e-05
0.000106846
1.18432e-07
0.000111325
-7.1848e-05
0.000105503
-4.36773e-05
1.13421e-06
-6.92181e-09
3.84594e-05
0.000126786
-1.09215e-06
4.27101e-05
-4.72536e-05
0.000117222
-6.50386e-08
-4.82546e-05
0.000120215
3.77774e-05
0.000124497
-0.00175393
-0.000416176
-0.00173211
-2.65138e-05
-2.7671e-05
2.67087e-05
2.68207e-05
3.84318e-07
0.000356848
-0.000322541
0.000103503
0.000356498
-0.000322218
0.00010482
2.03702e-07
0.000164944
0.000165634
3.96184e-07
0.000286554
-0.000297056
5.57081e-05
7.89966e-05
5.94834e-05
8.24773e-05
0.000286345
-0.000296799
5.61789e-05
7.89406e-05
5.96912e-05
8.24065e-05
3.29633e-07
6.38653e-05
8.73807e-05
6.91472e-05
4.99017e-05
9.17432e-05
6.55238e-05
8.90549e-05
7.51283e-05
6.395e-05
8.71697e-05
6.92888e-05
4.991e-05
9.15906e-05
6.55728e-05
8.89502e-05
7.50556e-05
6.80926e-05
8.67329e-06
-7.45463e-05
0.000109081
-8.1969e-06
-6.58538e-05
0.00010698
0.000111323
-7.18157e-05
0.000105172
-7.77652e-05
9.47049e-06
1.80317e-07
9.98892e-05
-1.65188e-05
7.12353e-05
8.66813e-05
3.87422e-08
9.0599e-05
9.53852e-05
-7.77472e-05
9.38721e-06
9.99623e-05
-1.60321e-05
7.17683e-05
8.70114e-05
9.07133e-05
9.5894e-05
-4.36164e-05
1.00958e-06
3.84465e-05
0.000126718
-9.56367e-07
4.26203e-05
-4.71386e-05
0.000117828
-4.81837e-05
0.000120448
3.78358e-05
0.000124092
2.41101e-06
2.39489e-08
0.00013081
0.000128128
2.36922e-06
0.000130679
0.000127875
-0.000825938
-0.00166398
-0.000887841
-0.00149419
-0.00070845
-0.00149261
-0.000541947
-0.00175738
-0.000365275
-0.00206644
-0.000244803
-0.00202515
-2.80398e-26
3.02694e-24
-2.52966e-21
1.95362e-20
-1.46649e-17
3.14003e-17
-2.0554e-14
7.77182e-15
-1.37582e-11
-1.59264e-15
9.0289e-08
-1.24094e-07
0.000187164
2.09868e-05
0.000945102
5.90255e-05
0.00130687
0.000200041
0.000418749
0.000417733
0.000425562
0.000425633
-2.57181e-08
6.54175e-05
0.000476508
6.60951e-05
0.000477066
-5.35784e-08
5.48943e-05
0.000484924
5.51839e-05
0.000484826
1.28616e-06
5.39778e-05
0.000124894
0.00014373
0.00012568
0.000144348
5.31641e-05
0.000125376
0.000143366
0.000126341
0.000143974
1.55151e-06
4.65925e-05
0.000120701
0.000138756
0.000122287
0.000139923
4.51146e-05
0.000121735
0.000138522
0.00012313
0.000139687
-6.43042e-06
8.78383e-07
0.000142612
1.625e-06
-1.12348e-08
0.000147085
-6.69966e-06
2.4369e-06
0.000140793
-7.44724e-08
3.00302e-06
0.000144719
-6.29697e-06
7.2455e-07
0.000142885
1.566e-06
0.00014715
-6.29102e-06
2.278e-06
0.000141327
2.95467e-06
0.000144917
-6.00062e-06
-4.71642e-07
-7.15507e-07
0.00014231
-2.68831e-06
-3.96498e-08
1.21459e-06
0.000146654
-5.87324e-06
0.000143247
-2.562e-08
0.000146862
-5.69693e-06
-4.10592e-07
-9.52076e-07
0.000142816
-2.6131e-06
1.06772e-06
0.000146794
-5.55035e-06
0.000143678
0.000147041
-2.21867e-06
-1.52757e-05
-4.5862e-07
-2.16205e-05
-2.30496e-05
-7.71063e-09
-2.47775e-08
-1.30356e-05
-6.38958e-07
-2.97549e-06
-1.27597e-08
-3.22707e-06
-2.17876e-06
-1.52406e-05
-4.37263e-07
-2.16214e-05
-1.30432e-05
-2.30428e-05
-6.1821e-07
-2.9915e-06
-3.21625e-06
-7.52207e-07
1.95869e-06
-2.29007e-06
1.78646e-06
-3.54215e-08
-2.21386e-06
-6.13548e-07
-2.14007e-08
-6.81297e-07
1.97028e-06
-2.35722e-06
1.78659e-06
-2.2239e-06
-5.81158e-07
5.44472e-05
1.87286e-06
-4.99614e-08
-6.13702e-05
0.00011433
-1.39822e-06
-5.26286e-05
0.000113622
-8.7491e-08
0.0001162
-5.74699e-05
0.000112231
-1.7665e-05
5.01337e-07
-8.22059e-09
1.36088e-05
-5.01067e-07
1.73808e-05
-1.86751e-05
-5.25661e-08
-1.90625e-05
1.37749e-05
-0.00159922
-0.000979305
-0.00153043
-0.000185297
-0.000187733
-0.000119741
-0.000121885
4.27055e-07
0.000304415
-0.00027327
-5.84132e-05
0.000303877
-0.000272758
-5.86548e-05
7.20041e-07
7.74384e-06
9.08188e-06
1.27903e-06
0.000318519
-0.000315385
6.80032e-06
3.52268e-05
1.54392e-05
4.17186e-05
0.000319282
-0.000316319
8.31428e-06
3.55966e-05
1.71736e-05
4.209e-05
7.44248e-07
3.82201e-05
6.19407e-05
3.00143e-05
5.59667e-05
3.93404e-05
6.21826e-05
3.15731e-05
5.62142e-05
-8.22183e-06
5.00321e-05
-4.6935e-05
6.0868e-05
5.70998e-05
-2.24386e-07
-5.6777e-05
7.06999e-05
-8.30917e-06
4.62194e-05
7.16462e-05
-2.0228e-07
5.11159e-05
8.05119e-05
-7.74765e-06
5.05879e-05
-4.81865e-05
6.15572e-05
5.71751e-05
-5.70309e-05
7.08698e-05
-7.92507e-06
4.64768e-05
7.1765e-05
5.10871e-05
8.05026e-05
-5.28606e-06
-4.12935e-05
3.1667e-05
8.40758e-05
-8.01378e-06
5.64136e-05
8.82128e-05
-4.52597e-05
-4.22136e-08
9.38182e-05
3.79087e-05
-7.78207e-06
7.82676e-05
-1.36436e-07
8.74386e-05
5.54573e-08
6.45148e-05
9.31678e-05
-5.03607e-06
-4.1306e-05
3.14355e-05
8.41954e-05
-8.15514e-06
5.64031e-05
8.86985e-05