/*--------------------------------*- C++ -*----------------------------------*\
| =========                 |                                                 |
| \\      /  F ield         | OpenFOAM: The Open Source CFD Toolbox           |
|  \\    /   O peration     | Version:  5.x                                   |
|   \\  /    A nd           | Web:      www.OpenFOAM.org                      |
|    \\/     M anipulation  |                                                 |
\*---------------------------------------------------------------------------*/
FoamFile
{
    version     2.0;
    format      ascii;
    class       volScalarField;
    location    "1.6";
    object      alpha.water;
}
// * * * * * * * * * * * * * * * * * * * * * * * * * * * * * * * * * * * * * //

dimensions      [0 0 0 0 0 0 0];

internalField   nonuniform List<scalar> 
12160
(
1
1
1
1
1
1
1
1
1
1
1
1
1
1
1
1
1
1
1
1
1
1
1
1
1
1
1
1
1
1
1
1
1
1
1
1
1
1
1
1
1
1
1
0.997981
0.596921
1
1
1
1
1
1
1
0.997568
0.631315
0.0249411
1
1
1
1
1
1
0.999999
0.996995
0.629247
0.0235805
0.000985673
1
1
1
1
1
1
0.999995
0.994648
0.641478
0.0271987
4.90404e-05
1.07683e-05
1
1
1
1
1
1
0.999988
0.99169
0.652836
0.0330116
4.98985e-05
8.32074e-07
1.14752e-08
1
1
1
1
1
1
0.99998
0.988666
0.653565
0.045116
7.10093e-05
7.88925e-08
8.7371e-13
1.48392e-12
1
1
1
1
1
1
0.999974
0.98579
0.641955
0.0573655
0.000166818
4.75628e-08
8.03744e-12
8.17882e-14
2.01043e-17
1
1
1
1
1
1
0.999973
0.983636
0.622943
0.0634045
0.00029015
1.54121e-07
5.06825e-12
1.74943e-16
9.91064e-23
1
1
1
1
1
1
0.99998
0.98318
0.607565
0.0612016
0.000483352
3.43541e-07
3.04897e-11
1.83389e-16
2.59292e-21
1
1
1
1
1
1
0.999992
0.985125
0.605602
0.0569267
0.000652403
7.33842e-07
8.19623e-11
1.12899e-15
2.96706e-21
1
1
1
1
1
1
0.999999
0.989644
0.621305
0.0570539
0.000739902
1.2611e-06
2.28412e-10
2.82292e-15
2.41e-20
1
1
1
1
1
1
1
0.994787
0.653768
0.0643858
0.000895348
1.98817e-06
4.60601e-10
8.37981e-15
6.77036e-20
1
1
1
1
1
1
1
0.9987
0.694499
0.0800274
0.00120856
3.11841e-06
8.68109e-10
1.72065e-14
2.3619e-19
1
1
1
1
1
1
1
0.999986
0.735379
0.105489
0.00181749
5.15308e-06
1.55496e-09
3.46489e-14
5.13186e-19
1
1
1
1
1
1
1
1
0.771802
0.139533
0.00298945
9.14281e-06
2.8479e-09
6.46778e-14
1.12296e-18
1
1
1
1
1
1
1
1
0.800552
0.173371
0.0050747
1.72997e-05
5.52732e-09
1.22678e-13
2.2016e-18
1
1
1
1
1
1
1
1
0.81845
0.19819
0.00813256
3.39176e-05
1.15184e-08
2.45e-13
4.37591e-18
1
1
1
1
1
1
1
1
0.827632
0.214518
0.0112965
6.58197e-05
2.57214e-08
5.40079e-13
9.01973e-18
1
1
1
1
1
1
1
1
0.830376
0.223514
0.0135307
0.000118335
6.061e-08
1.35344e-12
2.00629e-17
1
1
1
1
1
1
1
1
0.829054
0.22612
0.0147336
0.000167339
1.47029e-07
4.01387e-12
4.98876e-17
1
1
1
1
1
1
1
1
0.825996
0.224461
0.0150958
0.000197046
2.66392e-07
1.42982e-11
1.48016e-16
1
0.999999
1
1
1
1
1
1
0.823197
0.221138
0.0149172
0.000207928
3.58755e-07
3.59054e-11
5.39826e-16
0.999999
0.999999
0.999999
1
1
1
1
1
0.821993
0.218367
0.0145366
0.000206384
4.04157e-07
5.88108e-11
1.40011e-15
0.999999
0.999999
0.999999
0.999999
1
1
1
1
0.823108
0.217489
0.0142346
0.000200149
4.12471e-07
7.38656e-11
2.39482e-15
1
1
0.999999
0.999999
0.999999
1
1
1
0.826874
0.218913
0.0141992
0.000195123
4.04483e-07
7.99048e-11
3.11759e-15
1
1
1
1
0.999999
0.999999
1
1
0.832744
0.22259
0.0144262
0.000196223
3.96483e-07
8.07668e-11
3.46317e-15
1
1
1
1
1
0.999999
1
1
0.839913
0.228441
0.0148528
0.000202018
4.0293e-07
8.04371e-11
3.56271e-15
1
1
1
1
1
1
1
1
0.847325
0.236359
0.0155185
0.000211818
4.17899e-07
8.27597e-11
3.58177e-15
1
1
1
1
1
1
1
1
0.853823
0.245261
0.016499
0.000226441
4.52507e-07
8.64876e-11
3.69263e-15
1
1
1
1
1
1
1
1
0.85818
0.25376
0.0176468
0.000248983
5.03041e-07
9.77325e-11
3.86733e-15
1
1
1
1
1
1
1
1
0.859109
0.260086
0.018783
0.000276498
5.75075e-07
1.14395e-10
4.39574e-15
1
1
1
1
1
1
1
1
0.85592
0.262007
0.0196889
0.000304216
6.65584e-07
1.3682e-10
5.18479e-15
1
1
1
1
1
1
1
0.999999
0.847679
0.258563
0.0200454
0.000326888
7.56461e-07
1.65263e-10
6.21843e-15
1
1
1
1
1
1
1
0.999685
0.832963
0.24887
0.0196928
0.000336682
8.2611e-07
1.92943e-10
7.4954e-15
1
1
1
1
1
1
0.999998
0.998158
0.811397
0.232338
0.0184099
0.000327026
8.45133e-07
2.10884e-10
8.67551e-15
1
1
1
1
1
1
0.99999
0.995301
0.784441
0.207775
0.0159454
0.000289925
7.82157e-07
2.07652e-10
9.32262e-15
1
1
1
1
1
1
0.999967
0.991089
0.751551
0.174523
0.0123168
0.000221237
6.18457e-07
1.74312e-10
8.91377e-15
0.999921
1
1
1
1
1
1
0.985412
0.713059
0.139235
0.00847315
0.000143352
3.83388e-07
1.14263e-10
7.1564e-15
0.978143
0.999713
0.999999
1
1
1
1
1
0.669228
0.107717
0.00553497
8.55388e-05
2.10453e-07
5.29594e-11
4.42954e-15
0.619449
0.961182
0.999015
0.999997
1
1
1
1
1
0.0811864
0.00365326
5.03617e-05
1.12251e-07
2.2971e-11
1.93205e-15
0.0595013
0.529983
0.928737
0.997832
0.999991
1
1
1
0.999999
1
0.00243797
3.05005e-05
6.04907e-08
1.04318e-11
7.84827e-16
0.00158869
0.0356845
0.409072
0.894551
0.996294
0.99998
1
1
0.999999
0.999999
1
1.86625e-05
3.34822e-08
5.05016e-12
3.37439e-16
1.1219e-05
0.000750561
0.0176211
0.320245
0.864712
0.994578
0.999946
1
0.999999
0.999998
1
0.999993
1.8532e-08
2.53851e-12
1.56164e-16
9.73853e-09
4.48311e-06
0.000287917
0.010309
0.263246
0.842499
0.991898
0.999907
0.999999
0.999998
0.999999
0.999999
0.999995
0.999986
1.30491e-12
7.67718e-17
6.52925e-13
2.94548e-09
1.48507e-06
0.000143634
0.00726672
0.231585
0.82178
0.990154
0.999878
0.999998
0.999997
0.999999
0.999994
0.999999
0.999998
0.999998
3.93822e-17
2.06366e-17
1.43194e-13
9.78318e-10
6.02642e-07
9.39063e-05
0.00603251
0.213631
0.812335
0.989216
0.999983
0.999998
0.999999
0.999995
0.999994
1
1
1
1
4.41543e-18
4.50178e-14
3.53482e-10
3.13641e-07
7.44076e-05
0.00556578
0.211091
0.802881
0.995884
0.999999
0.999998
0.999998
0.999994
0.999999
1
1
1
1
1
1.45728e-18
1.5132e-14
1.4734e-10
1.90273e-07
6.40607e-05
0.00542161
0.20282
0.841573
0.999997
0.999999
0.999999
0.999994
0.999994
1
0.999998
1
1
1
1
1
4.54191e-19
5.86963e-15
6.71624e-11
1.21443e-07
4.92279e-05
0.00505961
0.199833
0.934865
0.999999
0.999999
0.999997
0.999994
0.999998
0.999999
0.999808
0.999997
1
1
1
1
1
1.58796e-19
2.46451e-15
3.06543e-11
6.95362e-08
3.37358e-05
0.00385878
0.218308
0.992785
0.999999
0.999999
0.999996
0.999998
1
0.999949
0.999182
0.999776
0.99918
0.999404
0.999397
0.999997
1
1
1
1
1
5.79161e-20
1.01904e-15
1.28147e-11
3.52907e-08
1.4861e-05
0.00230501
0.297722
0.981072
0.999999
0.999999
0.999998
1
0.999997
0.999749
0.998738
0.998275
0.999923
0.998725
0.998599
0.998579
0.998279
0.998877
0.998868
0.999999
1
1
1
1
1
1.99942e-20
3.97669e-16
4.8612e-12
1.24835e-08
5.41112e-06
0.00106855
0.333093
0.980889
0.999998
0.999997
0.999999
1
0.999983
0.998691
0.998625
0.999668
0.999594
0.997664
0.997109
0.999952
0.998303
0.997664
0.997595
0.997586
0.997061
0.996757
0.996545
1
1
1
1
1
1
6.3355e-21
1.45918e-16
1.51517e-12
3.78692e-09
1.62634e-06
0.000862621
0.350041
0.984652
0.999994
0.999997
0.999999
0.999999
0.999991
0.999986
0.99999
1
0.999249
0.998771
0.999389
0.99925
0.99664
0.998466
0.995966
0.997053
0.995961
0.999911
0.998646
0.995841
0.995738
0.996463
0.996367
0.996579
0.996428
0.996354
0.998517
0.995987
0.99711
0.995991
1
0.996789
1
0.996049
1
0.996498
1
0.996584
0.999997
1
1
1
1
1
1.87674e-21
5.94364e-17
4.11571e-13
1.14933e-09
4.95491e-07
0.000774021
0.337206
0.976979
0.999978
0.999997
1
1
1
1
1
0.999884
0.999902
0.999987
0.999998
0.996256
0.996118
1
0.997857
1
1
0.996496
0.996576
1
0.997787
1
1
0.999509
1
0.999473
1
0.999398
1
0.999338
1
0.997495
0.995961
0.996596
0.995966
0.998087
0.995974
0.995962
0.996003
0.999689
0.998019
0.994423
0.994424
0.994981
0.994981
0.995588
0.995588
0.995588
0.995588
0.997495
0.995991
0.996581
0.996042
0.997495
0.995631
0.997321
0.995937
0.997495
0.995588
0.997279
0.99586
0.998107
0.995983
0.99596
0.995987
0.999844
0.996109
0.999805
0.996493
0.999991
1
1
1
1
1
1.05257e-21
2.55591e-17
1.40129e-13
2.34668e-10
1.11614e-07
0.000436093
0.24101
0.954447
0.999848
0.999987
1
1
0.999999
1
0.999997
1
0.999999
0.999999
0.999914
1
0.999922
1
0.999921
1
0.99993
1
0.999991
1
0.999991
1
0.999999
1
0.999998
1
0.996251
0.996471
1
0.999997
0.998449
1
0.996572
0.996717
0.999994
1
0.998274
1
0.999557
1
0.999528
1
0.999453
1
0.999423
1
0.99605
0.99597
0.99596
0.99601
0.997544
0.996
0.99596
0.996011
0.999517
0.996973
0.994194
0.994121
0.993859
0.993852
0.997005
0.996882
0.995846
0.995653
0.996613
0.998349
0.996157
0.997594
0.996471
0.998085
0.995948
0.996983
0.995619
0.995706
0.995588
0.995948
0.997287
0.997151
0.995588
0.995668
0.995588
0.995779
0.996877
0.997216
0.996784
0.995994
0.995962
0.996014
0.997495
0.996044
0.997495
0.99597
0.997495
0.996066
0.995962
0.996099
0.999677
0.996235
0.999548
0.996548
0.99999
1
1
1
1
1
8.59963e-22
1.29354e-17
3.57219e-14
3.8444e-11
2.19441e-08
0.000122036
0.135054
0.873411
0.996063
1
1
0.999972
0.999965
0.999999
1
0.999998
0.999999
0.999998
1
0.999998
1
1
1
1
1
0.999999
1
0.999999
1
0.999999
1
1
1
0.999967
1
0.999951
1
0.99997
1
1
1
0.999991
1
1
1
1
1
1
1
0.99596
0.996012
0.995962
0.996063
0.999684
0.996423
0.995135
0.994935
0.994832
0.994687
0.998754
0.99876
0.998134
0.998059
0.999561
1
0.999188
1
0.999375
1
0.998994
1
0.997616
1
0.998348
1
0.99738
1
0.998048
1
0.99751
0.999718
0.99674
0.99935
0.99728
0.999504
0.996495
0.998744
0.995826
0.995803
0.995994
0.995588
0.996394
0.999053
0.995711
0.995718
0.995588
0.995591
0.996204
0.998529
0.995962
0.996086
0.99596
0.996143
0.997324
0.996142
0.997495
0.996149
1
1
1
1
1
1
7.73784e-22
5.34524e-18
1.48139e-14
4.30742e-10
8.07978e-08
2.38921e-05
0.0653206
0.705683
0.984865
1
1
1
1
1
1
0.999998
1
0.999998
1
0.999998
1
1
1
1
1
0.999999
1
0.999999
1
0.999999
1
0.999999
1
0.999996
1
0.999999
1
0.999988
0.997829
0.993824
0.993813
0.994309
0.994215
0.999314
0.999327
0.999094
0.99913
0.99982
1
0.999729
1
0.999746
1
0.999703
1
0.999652
1
0.999744
1
0.999574
1
0.999682
1
0.999774
0.999999
0.999597
1
0.999759
1
0.999606
1
0.998566
1
0.999145
1
0.998426
1
0.99911
1
1
1
1
1
1
1
4.78668e-22
4.72918e-16
3.14085e-10
9.77278e-07
1.45139e-05
0.000132324
0.0260782
0.468804
0.964776
0.964756
0.85774
0.857677
1
1
0.998184
0.99819
1
0.999999
1
0.999999
0.999999
1
1
0.999998
0.999998
1
0.999998
1
0.999999
0.999993
1
0.999998
0.999998
1
0.999999
1
1
1
1
1
0.999999
1
1
1
0.999999
1
1
1
1
0.999691
0.994862
0.996797
0.996774
0.998363
0.998367
0.999972
0.999978
0.999871
0.999869
0.99988
1
0.999863
1
0.999873
1
0.999872
1
0.999803
0.999999
0.999838
1
0.999827
1
0.999854
1
0.999902
0.999991
0.999818
0.999999
1
1
1
1
1
1
1.56487e-18
4.77191e-11
1.16192e-06
0.000156501
0.000763718
0.0028161
0.0259495
0.231654
0.988695
0.989276
0.739228
0.739414
1
1
1
0.999883
0.999816
1
0.999999
0.999954
1
1
0.999999
1
1
1
1
1
1
0.999999
0.999998
0.99998
0.999998
0.999987
0.999999
0.999946
0.999999
0.999999
1
1
1
1
1
0.999996
0.997831
0.995702
0.995668
0.996966
0.996966
0.998753
0.998726
0.999581
0.999625
1
0.999992
1
0.999995
1
0.99999
1
0.999993
1
0.999991
1
0.999996
1
0.999998
1
0.999995
0.999999
0.999999
0.999983
0.999999
0.999979
1
0.999999
1
0.999909
0.999984
0.99997
0.999992
0.99999
1
0.999979
1
1
1
1
1
1
4.4996e-13
3.23342e-07
0.000194764
0.00332058
0.010919
0.0316722
0.0828996
0.161761
0.161831
0.0449314
0.0448764
0.886993
0.982552
0.839239
0.970799
0.887427
0.98317
0.839115
0.971373
0.592967
0.593268
0.999898
1
1
0.999883
0.999776
0.999999
0.999999
0.999929
0.964587
0.996977
0.998994
0.999932
0.964902
0.997046
0.999013
0.999934
0.999998
0.999942
0.999999
0.999998
0.999999
0.999924
0.999999
0.999974
1
0.999999
0.999924
0.995476
0.997814
0.997891
0.999347
0.999404
0.9995
0.999539
0.999971
1
1
0.999899
0.999963
1
1
0.999895
1
0.999998
1
1
1
0.999998
1
0.999999
1
1
1
1
1
1
1
1
0.999986
0.999997
0.999979
1
1
1
1
1
9.35582e-09
6.91004e-05
0.00295707
0.0168852
0.0483536
0.114916
0.102486
0.104294
0.166225
0.167864
0.115283
0.115158
0.142312
0.140357
0.853312
0.977257
0.756388
0.935076
0.85338
0.977873
0.756245
0.935768
0.70887
0.385718
0.547751
0.5101
0.709782
0.382301
0.549083
0.509621
0.999777
1
0.999999
0.999999
0.999841
1
0.999999
0.999999
0.967483
0.998722
0.991746
0.999901
0.967805
0.998752
0.991869
0.999895
1
1
0.999997
0.998891
0.995725
0.995483
0.996501
0.996406
0.999443
0.999441
0.999773
1
0.999567
1
0.999808
1
0.999603
1
0.999879
1
0.99996
1
0.999987
1
0.999834
1
0.999968
1
0.999989
1
0.999993
1
0.999988
1
1
1
1
1
1
1
1
1
1
1
1
3.83654e-06
0.000920318
0.00790648
0.0281943
0.0677208
0.14133
0.29447
0.29285
0.276016
0.275072
0.128534
0.352578
0.112368
0.125973
0.111189
0.523096
0.35062
0.128151
0.526281
0.112243
0.125668
0.111275
0.182731
0.449423
0.151867
0.183626
0.186574
0.443163
0.152439
0.153001
0.811917
0.964862
0.75052
0.942523
0.811661
0.965522
0.750379
0.943202
0.450824
0.409861
0.447072
0.408663
1
0.999438
1
0.999427
0.912503
0.98611
0.912373
0.986424
1
1
0.999999
0.999968
0.998293
0.997503
0.995478
0.995478
0.995624
0.995616
0.998512
0.998443
1
0.999282
1
0.999836
1
0.99984
1
0.99933
1
0.999865
1
0.999894
0.999879
1
0.999931
1
0.999957
1
0.999984
0.999998
1
1
0.999916
1
0.999994
0.999979
1
1
1
1
0.999997
1
1
1
6.48986e-05
0.00166899
0.00709529
0.0125863
0.0221305
0.0991536
0.0986397
0.00201314
0.00201281
0.417895
0.406835
0.316682
0.313295
0.25455
0.147271
0.161731
0.268276
0.190166
0.143763
0.253907
0.146701
0.271344
0.152813
0.188919
0.149339
0.352404
0.375624
0.243498
0.129727
0.360436
0.405091
0.251248
0.126726
0.609162
0.71716
0.60915
0.711223
1
1
1
0.999998
0.999643
0.997083
0.996732
0.995978
0.995881
0.992735
0.999005
0.992782
0.999063
0.992727
0.999044
0.992775
0.999136
0.998713
0.999379
1
0.996077
1
1
0.998821
0.999418
1
0.995934
1
1
1
0.999999
0.999935
0.999994
1
0.999999
0.99996
0.999996
0.999963
1
0.999983
1
1
1
0.999999
1
0.999951
1
0.999997
1
1
0.00011183
0.00108522
0.00156892
0.00161285
0.00219357
0.0350756
0.0363584
0.00291178
0.00296796
0.410753
0.424991
0.457422
0.334689
0.264878
0.42079
0.408693
0.33582
0.149513
0.150124
0.418804
0.328938
0.391011
0.32153
0.420613
0.490858
0.388775
0.379297
1
1
1
0.999999
0.999996
0.999811
0.999727
0.998079
0.997775
0.996544
0.996441
0.995801
0.995838
0.994237
0.998645
0.994021
0.998249
0.994317
0.998716
0.994098
0.998421
0.999514
0.998421
1
1
0.99773
0.999967
0.99954
0.998557
1
1
0.997876
0.999971
1
0.999999
1
0.999999
5.58126e-05
0.000201275
0.000161227
0.000702733
0.000939964
0.00114443
0.00124672
0.0013819
0.00765113
0.00738465
0.00143462
0.00156407
0.239785
0.394503
0.485225
0.286907
0.276535
0.39588
0.490866
0.287846
0.0336262
0.0213302
0.0960424
0.131151
0.0323134
0.0211159
0.0952977
0.132074
0.435971
0.42016
0.432213
0.488667
1
1
1
0.999999
0.999993
0.999812
0.999833
0.99848
0.998363
0.99574
0.995735
0.99778
0.993519
0.998758
0.992845
0.998103
0.993577
0.998342
0.992876
0.994744
0.99889
0.993237
0.998238
0.994725
0.998952
0.993225
0.998504
5.83633e-06
2.6656e-05
1.50404e-05
0.00055737
0.000935604
0.00120105
0.00119767
0.00116886
0.0115969
0.0234276
0.00145669
0.0029707
0.00396722
0.00197128
0.0111215
0.0234842
0.00135236
0.00289046
0.00393904
0.00187962
0.000684483
0.00069646
0.315086
0.273451
0.377893
0.170029
0.3271
0.270673
0.400487
0.169332
0.0154779
0.0214607
0.0155281
0.0216147
1
0.999999
0.999999
1
1
1
0.999999
0.999999
0.999999
0.999993
0.998726
0.998457
0.993486
0.999361
0.993436
0.997454
0.992845
0.996298
0.993021
0.999315
0.99302
0.996702
0.992871
0.996037
0.994786
0.998962
0.99446
0.998014
0.995115
0.99914
0.99514
0.999179
4.09707e-07
9.4289e-07
1.23577e-05
0.000272114
0.000249051
5.19524e-05
4.84304e-05
0.00109543
0.00135311
0.000923974
0.000753041
0.0036424
0.00737326
0.00235978
0.000810128
0.00262379
0.000568138
0.00364569
0.0072577
0.00209036
0.000734065
0.00252379
0.000560937
0.000214673
0.000620695
0.000392749
0.00148793
0.000345693
0.000503142
0.000346549
0.00132827
0.999997
0.999999
0.999999
1
1
1
0.999976
0.999982
0.999809
0.999732
0.994047
0.998283
0.99982
0.995269
0.998757
0.998266
0.999798
0.994675
0.9985
0.997607
0.993588
0.997451
0.993754
0.993495
0.996038
0.996473
0.993593
0.993129
0.995272
0.995637
0.994885
0.999342
0.994476
0.999343
5.52837e-09
2.46919e-07
3.08019e-05
9.39885e-05
8.42957e-05
4.9301e-05
5.01893e-05
0.000207327
0.00067008
0.00134452
0.000645496
0.00124819
0.000707594
0.000342791
0.00108195
0.00136269
0.000869996
0.00144622
0.000771913
0.000570042
0.000422782
0.00154438
0.00056652
0.00179502
0.000559322
0.00021004
0.000854492
0.000242303
0.000718426
0.999991
0.999998
0.999999
1
0.999999
1
0.999999
1
1
0.999995
0.999989
0.999883
1
0.999216
0.999904
0.998184
0.999339
0.999844
0.997712
0.999191
1
0.999054
0.999864
0.994823
0.996563
0.996066
0.99698
0.995777
0.994662
0.996835
0.996435
6.13785e-10
1.19766e-06
7.15725e-06
0.000112426
9.63468e-05
4.67108e-05
4.4024e-05
0.00021908
0.000824258
0.00114613
0.000379471
0.00122211
0.000477317
0.000462584
0.00144792
0.000934096
0.000405562
0.00108377
0.000403371
0.000109674
0.000330388
0.000211562
0.000370787
6.97805e-05
0.000271606
0.000138057
0.000379979
0.000181125
0.000621165
0.00023798
0.00105377
0.999987
0.999998
0.999999
0.999999
0.999999
0.999999
1
1
1
0.99979
1
1
0.999972
1
0.999998
0.999799
1
1
0.999987
1
0.999999
0.999385
0.998498
0.999987
0.999092
0.998046
0.998872
0.999326
0.999984
3.85007e-09
2.83067e-07
4.00955e-07
2.43093e-05
2.38857e-05
4.24813e-07
1.38658e-08
1.3872e-08
0.000107857
0.000101165
0.000166745
0.000103005
6.73251e-05
0.000198325
0.000245225
0.000988392
0.00062695
0.00029714
0.000829484
0.000324685
0.000421809
0.00132197
0.000547794
0.000241159
0.000575264
0.000213294
0.000101032
0.000165353
6.69157e-05
0.000262609
0.999995
0.999997
0.999999
1
1
1
1
1
1
1
1
1
1
1
0.999999
1
1
1
1
0.99989
1
1
1
0.999846
1
0.99998
1
0.99953
1
0.999457
1
1.05383e-09
1.52109e-08
7.8539e-06
2.13534e-08
7.28664e-06
2.04475e-08
1.3872e-08
1.38658e-08
3.47607e-05
0.000113863
0.000133691
0.000101032
0.000105776
6.46114e-05
1.74254e-05
3.59165e-05
8.39288e-05
3.52406e-05
0.000132972
7.02624e-05
0.000145731
6.81996e-05
1.72265e-05
3.88064e-05
0.000331704
0.000165248
0.000358732
9.53514e-05
0.000100883
0.000101032
6.64991e-05
0.000122921
0.999999
0.999997
0.999999
0.999999
0.999999
0.999997
1
0.999998
1
0.999999
1
0.999999
0.999999
1
0.999999
1
1
1
0.999991
1
0.999999
1
0.999976
1
0.999992
1
0.99992
1
0.999944
0.999999
2.97107e-11
1.41628e-08
1.17847e-07
1.05886e-05
4.26495e-06
8.65505e-08
2.61132e-07
1.02953e-05
3.77954e-06
8.1518e-08
5.23944e-08
5.42896e-08
6.88679e-05
3.27169e-06
0.000100739
0.000101153
0.000133005
7.35431e-06
6.12433e-05
7.06216e-05
3.03167e-06
0.000110356
0.000124819
7.52776e-06
0.000121599
0.000108603
0.000160222
6.60825e-05
0.999998
0.999997
0.999997
1
1
0.999998
0.999998
0.999999
0.999999
0.999999
1
0.999999
1
1
0.999999
1
1
0.999998
1
0.999999
1
1
1
1
0.999999
0.999999
1
1
1
1
0.999999
1
2.84378e-12
4.7807e-09
4.09434e-08
4.18754e-08
4.58848e-09
3.14816e-10
3.36678e-10
5.5322e-08
9.48642e-07
1.24289e-07
1.25446e-07
1.92901e-07
5.53271e-08
5.53256e-08
5.5322e-08
2.36313e-07
5.80961e-08
1.63249e-07
5.53287e-08
1.32301e-06
3.19971e-07
2.24722e-07
2.70723e-07
5.53235e-08
5.53235e-08
5.53271e-08
2.26529e-07
5.53252e-08
1.33994e-07
1.94205e-05
8.27482e-07
4.97574e-05
3.83664e-06
1.89454e-05
6.48712e-07
5.01218e-05
4.11289e-06
0.999995
0.999995
0.999997
1
1
1
1
1
0.999999
0.999995
1
1
0.999999
0.999999
0.999999
1
1
1
0.999999
0.999999
0.999996
1
1
1
1
1
1
1
2.33778e-31
1.52727e-07
2.7543e-09
1.36861e-07
2.26196e-09
3.87268e-11
3.25184e-11
2.16758e-07
5.91992e-08
8.43877e-08
8.52396e-07
5.53205e-08
1.09866e-07
1.55769e-07
2.26677e-07
5.26479e-07
1.97244e-07
5.14113e-07
9.78566e-07
1.5424e-07
3.64588e-07
4.33461e-07
1.11256e-07
1.03822e-06
1.17689e-07
5.53287e-08
7.968e-08
2.19742e-07
1.39649e-07
4.95492e-07
1.95104e-07
4.33174e-07
7.99668e-07
1.38248e-07
3.55176e-07
0.999994
0.999996
0.999985
0.999985
0.999994
0.999996
0.999991
1
1
1
1
0.999999
1
1
1
0.999999
1
0.999998
1
0.999998
1
1
1
1
0.999998
1
1
0.999999
1
0.999998
0.999998
0.999999
1
0.999998
1
0.999999
1
-1.50429e-32
3.69374e-07
5.83647e-07
1.5424e-07
7.39555e-10
3.36665e-07
5.22846e-07
1.38248e-07
6.11431e-10
9.53679e-12
8.40453e-12
5.53241e-08
5.53191e-08
1.68622e-07
3.7605e-07
1.91835e-07
1.55769e-07
2.18245e-07
4.33475e-07
1.58449e-06
1.59227e-06
5.53252e-08
5.69645e-08
1.61344e-07
3.14483e-07
1.63063e-07
2.15866e-07
1.39649e-07
3.86511e-07
1.57381e-06
1.41928e-06
0.999994
0.999997
0.999985
0.999987
0.999994
0.999994
0.99999
1
0.999999
1
1
0.999998
1
0.999998
1
1
1
1
1
0.999999
0.999999
1
1
1
1
1
1
0.999999
0.999999
1
1
1
1
1
1
4.0073e-05
1.0713e-12
1.5983e-12
5.97554e-08
1.56202e-06
4.68889e-07
1.30721e-06
3.47707e-07
1.3225e-27
5.25388e-08
1.33028e-06
3.85558e-07
1.21481e-06
3.01777e-07
2.02331e-27
2.08911e-07
1.57328e-07
4.08846e-07
1.32347e-06
1.29589e-06
3.40322e-06
1.93186e-07
1.41079e-07
3.03349e-07
1.31515e-06
1.27159e-06
3.37407e-06
0.999994
0.999996
0.999983
1
1
0.999983
1
1
0.999993
0.999995
0.999993
0.999998
1
0.999998
1
0.999999
1
1
1
0.999999
1
1
1
1
1
0.999999
1
0.999999
1
1
1
-3.19392e-53
6.39795e-16
4.42614e-05
1.85161e-25
4.23825e-05
3.38087e-08
3.73624e-07
1.52943e-07
4.39255e-07
9.97252e-08
5.46248e-07
2.80093e-06
3.26834e-06
6.54547e-08
3.45924e-07
1.29752e-07
4.13249e-07
8.60627e-08
4.36308e-07
2.96434e-06
2.4024e-06
3.87162e-07
3.17659e-06
3.1518e-07
3.78925e-06
0.999995
0.999995
0.999995
0.999991
1
1
1
1
1
1
1
1
1
0.999993
0.999994
1
1
1
1
1
1
0.999999
1
0.999999
1
1
1
2.28598e-35
4.26479e-07
2.97289e-08
4.26219e-07
2.91612e-08
5.5013e-05
5.1237e-05
3.55004e-05
4.24917e-07
1.0528e-06
1.02235e-06
8.41168e-08
9.98211e-07
2.16842e-07
9.5788e-07
1.46116e-07
5.76489e-07
4.09508e-06
2.90801e-05
3.90917e-07
8.72526e-07
9.31155e-07
8.41538e-08
9.05193e-07
1.83742e-07
9.4372e-07
1.27351e-07
5.7684e-07
4.15409e-06
0.999997
0.999997
0.999996
0.999996
0.999994
0.999991
1
1
1
0.999999
1
1
0.999993
1
1
1
1
0.999999
1
0.999998
0.999999
1
1
0.999998
1
1.55455e-15
9.86335e-35
3.73151e-16
7.37737e-36
3.35633e-16
1.99978e-06
2.46025e-07
1.9618e-06
2.40186e-07
0.000120634
0.000106021
0.000123329
3.18895e-05
3.2761e-05
3.08813e-05
7.00146e-07
7.49976e-07
6.17459e-07
9.32981e-08
1.67337e-06
3.07921e-07
1.85652e-06
2.09055e-07
9.47342e-05
2.47391e-05
2.9028e-05
2.56955e-05
6.02802e-07
6.27147e-07
6.10094e-07
8.65995e-08
1.45604e-06
2.64954e-07
1.96529e-06
1.83963e-07
0.999996
0.999998
0.999999
0.999994
0.999996
0.999998
0.999997
1
0.999998
0.999999
0.999999
0.999999
1
1
1
0.999999
1
1
1
1
1
1
1
0.999999
0.999999
1
0.999999
0.999999
1
1.26966e-14
2.53131e-16
-3.1566e-30
2.58402e-16
-3.52197e-30
-2.60401e-32
4.08639e-13
-3.59177e-32
2.97888e-13
1.06961e-05
5.38837e-07
1.01537e-05
5.6022e-07
0.000252796
9.90017e-05
0.000251748
9.94107e-05
0.000237947
8.77175e-05
0.000215607
8.43735e-05
0.000143559
2.54098e-05
3.60279e-05
2.67993e-05
0.000121368
2.03278e-05
2.87881e-05
2.22921e-05
0.999996
0.999997
0.999995
0.999994
0.999993
0.999998
0.999999
0.999995
0.999998
1
1
1
1
1
1
1
1
1
1
0.999999
1
1
0.999998
1
1
1
1
0.999999
1
1
1
0.999998
0.999999
1
0.999997
5.48934e-11
8.25985e-14
1.80496e-12
1.52836e-29
1.43598e-12
-2.98422e-30
3.18272e-29
2.42211e-10
6.07938e-30
2.81184e-10
8.26321e-06
9.42198e-06
1.82247e-05
3.13267e-06
7.37429e-07
1.88252e-12
1.92038e-08
4.31635e-07
8.18455e-06
9.05386e-06
1.75849e-05
3.33584e-06
7.27373e-07
1.93557e-12
1.83086e-08
4.58739e-07
0.000276802
8.91943e-05
0.000287395
8.75738e-05
0.000287395
7.50954e-05
0.000286674
7.7272e-05
0.999997
0.999997
0.999997
0.999993
0.999995
0.999998
0.999997
0.999998
0.999997
0.999999
1
0.999999
1
1
0.999999
1
0.999998
1
0.999999
1
1
1
1
1
0.999997
0.999999
1
0.999999
0.999999
6.23607e-09
5.5785e-11
1.37993e-09
5.50902e-11
1.36179e-09
1.12988e-11
8.20101e-10
1.25978e-10
7.78747e-10
1.66299e-10
2.72228e-10
1.76472e-12
7.41295e-10
3.77274e-11
1.33303e-09
7.61043e-10
1.53046e-09
6.49068e-10
2.51227e-10
1.8291e-12
6.9852e-10
3.81962e-11
1.20087e-09
7.91874e-10
1.48695e-09
6.9158e-10
3.35223e-06
5.42416e-06
8.12898e-06
7.52377e-07
6.10467e-07
9.53375e-12
2.40384e-08
2.83155e-07
3.43499e-06
5.72047e-06
7.15149e-06
9.26437e-07
6.09169e-07
8.02893e-12
2.14549e-08
3.13895e-07
0.999996
0.999996
0.999998
0.999998
0.999994
0.999996
1
1
1
1
1
0.999998
1
0.999997
1
0.999998
1
0.999997
0.999999
0.999997
1
0.999997
1
0.999997
1
0.999997
1
0.999997
1
0.999997
1
0.999997
1
1
2.22849e-08
7.6121e-09
6.25624e-09
7.48254e-09
6.25624e-09
7.22199e-09
8.36402e-08
7.54271e-09
8.17238e-08
4.92134e-11
2.97054e-09
1.78181e-09
2.99648e-09
1.7379e-09
8.0732e-10
1.27993e-10
2.83418e-10
1.82835e-10
2.90583e-09
1.70102e-09
2.91971e-09
1.6302e-09
9.36997e-10
1.69171e-10
3.99875e-10
2.60941e-10
1.56636e-09
2.85587e-12
1.37428e-09
1.25745e-10
7.1626e-09
1.43885e-09
3.51552e-09
1.03833e-09
1.38634e-09
2.42756e-12
1.25886e-09
1.15389e-10
7.1861e-09
1.37368e-09
3.50154e-09
9.2178e-10
0.999996
0.999997
0.999966
0.999982
0.999966
0.999975
0.99999
0.999976
0.999991
0.999973
1
0.999998
1
0.999998
1
1
1
0.999999
1
0.999998
1
0.999998
1
0.999999
1
0.999998
1
0.999997
1
0.999997
1
0.999999
1
0.999997
1
0.999995
1
0.999995
1
0.999997
1
0.999996
2.88913e-06
1.1942e-08
5.43967e-07
3.84854e-06
4.49636e-07
3.12215e-06
1.13631e-08
1.30051e-10
2.51123e-08
2.40662e-08
4.67992e-08
4.08596e-10
4.0663e-08
1.83591e-07
4.38242e-08
1.66534e-07
1.26701e-08
2.00369e-10
2.67833e-08
2.80302e-08
3.82298e-08
6.0694e-10
4.55669e-08
1.76941e-07
4.82996e-08
1.42004e-07
2.15802e-10
1.4647e-08
3.44801e-09
9.86786e-09
3.10994e-09
2.49226e-09
3.62617e-10
1.18577e-08
3.29404e-09
9.5725e-09
2.88723e-09
2.76821e-09
5.13024e-10
7.2825e-09
2.70596e-09
7.56799e-09
1.83427e-09
8.38185e-09
2.48155e-09
8.15215e-09
1.556e-09
0.999997
0.999998
0.999983
0.999998
0.999985
0.999996
1
1
0.999996
0.999999
1
1
1
1
1
0.999998
1
0.999999
1
1
1
0.999999
1
0.999994
1
0.999999
1
0.999998
1
0.999997
1
1
1
1
1
0.999997
1
0.999999
1
0.999999
1
1
2.62145e-06
2.70176e-05
9.93948e-05
3.11481e-05
0.00010821
2.73503e-08
5.99747e-06
3.66878e-05
5.70573e-06
3.88769e-05
1.32162e-10
2.5323e-08
2.77936e-10
1.00566e-07
3.85385e-08
1.53652e-07
3.99429e-08
1.05608e-07
3.92331e-08
1.98282e-07
2.22091e-10
2.81185e-08
9.68005e-10
1.84164e-07
4.31621e-08
3.31919e-07
4.47513e-08
1.06669e-07
4.39478e-08
2.20858e-07
1.65557e-08
7.35445e-08
5.58808e-09
4.20235e-08
6.34315e-09
3.70249e-09
4.98934e-10
7.15029e-08
5.39798e-09
4.01057e-08
5.506e-09
4.75511e-09
8.21888e-10
0.999999
0.999999
0.999999
0.999997
0.999999
0.999992
1
0.999998
0.999998
1
0.999998
1
1
0.999999
1
0.999998
1
1
0.999994
1
0.999997
1
1
0.999997
1
0.999996
1
1
1
1
1
1
1
1
1
1
0.999998
1
1
1
1
1
1
1
1
1
0.999998
3.59759e-06
5.78323e-05
2.94672e-05
6.30564e-05
3.0912e-05
0.000185532
0.0003208
0.000205168
0.000336479
1.85699e-06
2.74584e-05
6.99229e-06
9.62277e-06
5.66511e-06
4.18753e-05
2.04858e-05
6.28858e-05
1.56245e-05
2.17961e-05
7.0952e-06
7.94456e-06
5.74416e-06
4.27565e-05
2.33171e-05
6.87744e-05
1.67695e-05
5.858e-09
1.94615e-08
1.77777e-06
7.35077e-07
1.08461e-07
1.68862e-07
7.34032e-09
2.80287e-08
1.91165e-06
6.78228e-07
1.25896e-07
1.84664e-07
2.06169e-06
1
0.999998
0.999998
0.999997
0.999999
0.999997
0.999997
1
1
1
1
0.999998
1
1
1
0.999999
1
1
1
0.999998
1
0.999994
0.999994
1
1
1
1
0.999999
1
0.999996
1
1
1
1
1
1
0.999998
1
1
1
0.999995
1
0.999995
0.000365642
2.59851e-05
0.000173931
0.000230051
0.000169787
0.000190676
0.00012048
3.84047e-05
0.000214102
0.000101676
0.00052962
6.35683e-05
0.000330697
0.00113874
0.000166646
0.000913571
0.000135426
4.84464e-05
0.00021223
0.000114508
0.000548525
7.46336e-05
0.000329968
0.00115901
0.000171245
0.000942352
0.00010336
3.82461e-05
6.57913e-06
2.20443e-05
5.56509e-06
3.06978e-05
5.88198e-06
3.88237e-05
6.72295e-06
1.77014e-05
5.78287e-06
3.85301e-05
5.89342e-06
4.34061e-05
1
0.999998
0.999999
0.999993
0.999996
0.999995
0.999995
1
0.999996
1
0.999997
1
1
1
0.999999
0.999999
0.999994
0.999999
0.999995
0.999999
0.999999
1
0.999998
1
0.999992
1
0.999995
1
1
1
1
0.999998
0.999999
0.999998
1
1
1
0.999998
0.999999
0.000585116
0.00263771
0.00238033
0.00267131
0.00234024
0.000717004
0.00111036
0.0017512
0.0010932
0.00171243
7.58234e-05
0.000100039
9.62204e-05
0.000131039
0.000100965
0.000384418
0.000552401
0.00130893
0.00023667
0.00097807
8.85589e-05
0.000113001
0.000103807
0.000132542
0.000113909
0.000395488
0.00056293
0.00133285
0.000254313
0.00101464
0.00103468
4.76556e-05
1.35459e-05
6.71252e-05
1.26222e-05
0.000164509
1
0.999998
0.999999
0.999999
0.999993
0.999993
0.999993
0.999995
0.999994
0.999994
1
0.999994
1
0.999999
0.999996
1
0.999996
1
0.999992
0.999994
1
0.999993
1
0.999999
0.999994
1
0.999991
1
0.999999
1
1
0.999993
0.999999
0.999996
0.999999
1
1
0.999999
0.999998
0.999995
0.00622025
0.00498911
0.00345645
0.00458034
0.00351315
0.00452392
0.00539209
0.00236599
0.000458358
0.00147307
0.00102989
0.0027745
0.00254398
0.000482424
0.00147912
0.0011175
0.00285365
0.000216588
0.000853918
0.000443523
0.00159021
0.00039222
0.00146595
0.000230774
0.000858276
0.000419744
0.00158767
0.000390396
0.00145567
0.00264837
0.000174295
0.999999
0.999999
1
1
0.999999
1
0.999999
1
0.999997
1
0.999993
1
0.999994
0.999992
1
0.999998
0.999994
1
0.999984
1
0.999988
1
0.999991
0.999996
0.999998
1
0.999993
1
0.999994
1
0.99999
1
0.999997
0.999997
0.999997
0.999991
0.0485374
0.00846785
0.00626434
0.00790585
0.00626434
0.0220412
0.00273271
0.00484738
0.00265401
0.00483464
0.0109483
0.00192733
0.000356686
0.00109714
0.0010081
0.000761171
0.00306035
0.000609877
0.00229014
0.00196621
0.000394539
0.00106945
0.00110013
0.000749364
0.00304645
0.000660355
0.00209888
0.000338192
0.00151982
0.000373897
0.00149397
0.00236764
4.36524e-05
0.99999
1
1
1
0.999998
0.999942
0.999994
0.999958
0.999991
1
0.999984
1
0.99998
0.999994
1
0.999988
1
0.999992
0.999979
0.999979
1
0.999983
1
0.999956
1
0.999971
1
0.999976
1
0.999971
1
0.150746
0.0521807
0.0356332
0.0820313
0.0360495
0.0827605
0.0204996
0.00401873
0.00178293
0.00126034
0.00203308
0.00132479
0.00198519
0.0140291
0.00131179
0.00186853
0.00388734
0.00175071
0.00118583
0.0020001
0.0140404
0.00700449
0.0020114
0.000475802
0.00143022
0.000611661
0.00104378
0.00187659
0.00184607
0.000526111
0.00141189
0.000661931
0.00105578
0.00179384
0.000649945
8.00363e-07
0.999984
0.999999
1
1
1
0.99989
0.999958