/*--------------------------------*- C++ -*----------------------------------*\
| =========                 |                                                 |
| \\      /  F ield         | OpenFOAM: The Open Source CFD Toolbox           |
|  \\    /   O peration     | Version:  5.x                                   |
|   \\  /    A nd           | Web:      www.OpenFOAM.org                      |
|    \\/     M anipulation  |                                                 |
\*---------------------------------------------------------------------------*/
FoamFile
{
    version     2.0;
    format      ascii;
    class       volScalarField;
    location    "1.6";
    object      k;
}
// * * * * * * * * * * * * * * * * * * * * * * * * * * * * * * * * * * * * * //

dimensions      [0 2 -2 0 0 0 0];

internalField   nonuniform List<scalar> 
12160
(
9.95475e-09
9.92488e-09
1.00207e-08
9.90832e-09
1.00504e-08
1.00079e-08
9.90091e-09
1.00771e-08
1.00163e-08
1.00071e-08
9.89813e-09
1.01009e-08
1.00247e-08
1.00131e-08
1.0007e-08
9.89739e-09
1.00977e-08
1.00299e-08
1.00173e-08
1.00128e-08
1.00079e-08
9.89749e-09
1.0091e-08
1.003e-08
1.00194e-08
1.00163e-08
1.00143e-08
1.00082e-08
9.89774e-09
1.00854e-08
1.0028e-08
1.00196e-08
1.00179e-08
1.00175e-08
1.00161e-08
1.00119e-08
9.89798e-09
1.00792e-08
1.00259e-08
1.0019e-08
1.00182e-08
1.00186e-08
1.00197e-08
1.00228e-08
1.00778e-08
9.89807e-09
1.00737e-08
1.00242e-08
1.00183e-08
1.00179e-08
1.00187e-08
1.00204e-08
1.00246e-08
1.00741e-08
1.00837e-08
9.89796e-09
1.00684e-08
1.00229e-08
1.00178e-08
1.00175e-08
1.00185e-08
1.00201e-08
1.00239e-08
1.00636e-08
1.0079e-08
1.01309e-08
9.89762e-09
1.00649e-08
1.0022e-08
1.00173e-08
1.00171e-08
1.00181e-08
1.00196e-08
1.00243e-08
1.00558e-08
1.00792e-08
1.00876e-08
1.01279e-08
9.89718e-09
1.0061e-08
1.00213e-08
1.00169e-08
1.00168e-08
1.00177e-08
1.00192e-08
1.00256e-08
1.00519e-08
1.00817e-08
1.0097e-08
1.00601e-08
1.00642e-08
9.89691e-09
1.00567e-08
1.00207e-08
1.00166e-08
1.00164e-08
1.00174e-08
1.00188e-08
1.0027e-08
1.00508e-08
1.00773e-08
1.00907e-08
1.00444e-08
1.00329e-08
1.005e-08
9.89688e-09
1.00525e-08
1.00203e-08
1.00163e-08
1.00161e-08
1.0017e-08
1.00185e-08
1.0028e-08
1.00512e-08
1.0072e-08
1.00988e-08
1.00445e-08
1.00263e-08
1.00259e-08
1.00324e-08
9.89688e-09
1.0048e-08
1.002e-08
1.00161e-08
1.00158e-08
1.00166e-08
1.00181e-08
1.00286e-08
1.00517e-08
1.00672e-08
1.01033e-08
1.00582e-08
1.00247e-08
1.00221e-08
1.00117e-08
9.89688e-09
1.00437e-08
1.00197e-08
1.00159e-08
1.00156e-08
1.00163e-08
1.00177e-08
1.00285e-08
1.00512e-08
1.00643e-08
1.01024e-08
1.0069e-08
1.00247e-08
1.00187e-08
1.00139e-08
9.89688e-09
1.00396e-08
1.00193e-08
1.00157e-08
1.00153e-08
1.0016e-08
1.0017e-08
1.00279e-08
1.00496e-08
1.00617e-08
1.00982e-08
1.00779e-08
1.00249e-08
1.00182e-08
1.00102e-08
9.89688e-09
1.00359e-08
1.00188e-08
1.00155e-08
1.00151e-08
1.00157e-08
1.00163e-08
1.00268e-08
1.00471e-08
1.00588e-08
1.00936e-08
1.00816e-08
1.00262e-08
1.00176e-08
1.00104e-08
9.89688e-09
1.00325e-08
1.00181e-08
1.00152e-08
1.00149e-08
1.00154e-08
1.00157e-08
1.00254e-08
1.00441e-08
1.00551e-08
1.00883e-08
1.00825e-08
1.00272e-08
1.00178e-08
1.00099e-08
9.89688e-09
1.00297e-08
1.00173e-08
1.00149e-08
1.00147e-08
1.00151e-08
1.00154e-08
1.00242e-08
1.0041e-08
1.00504e-08
1.00826e-08
1.00818e-08
1.00283e-08
1.00177e-08
1.00102e-08
9.89688e-09
1.00274e-08
1.00166e-08
1.00144e-08
1.00143e-08
1.00148e-08
1.00151e-08
1.00232e-08
1.00379e-08
1.00453e-08
1.00762e-08
1.00806e-08
1.00293e-08
1.00176e-08
1.00103e-08
9.89688e-09
1.00257e-08
1.00159e-08
1.00139e-08
1.00138e-08
1.00144e-08
1.00148e-08
1.00224e-08
1.00348e-08
1.00405e-08
1.00693e-08
1.00791e-08
1.00302e-08
1.00176e-08
1.00104e-08
9.89688e-09
1.00245e-08
1.00153e-08
1.00134e-08
1.00134e-08
1.00139e-08
1.00144e-08
1.00216e-08
1.00319e-08
1.00368e-08
1.00619e-08
1.0077e-08
1.00312e-08
1.00179e-08
1.00107e-08
9.89688e-09
1.0024e-08
1.00149e-08
1.0013e-08
1.00129e-08
1.00135e-08
1.00139e-08
1.00208e-08
1.00294e-08
1.00342e-08
1.00549e-08
1.00733e-08
1.00322e-08
1.00182e-08
1.00113e-08
9.89688e-09
1.00241e-08
1.00146e-08
1.00127e-08
1.00125e-08
1.0013e-08
1.00134e-08
1.00199e-08
1.00272e-08
1.0032e-08
1.00489e-08
1.00669e-08
1.0033e-08
1.00186e-08
1.00122e-08
9.89688e-09
1.00248e-08
1.00146e-08
1.00124e-08
1.00121e-08
1.00126e-08
1.00129e-08
1.00189e-08
1.00251e-08
1.00299e-08
1.00438e-08
1.00576e-08
1.00332e-08
1.00189e-08
1.00134e-08
9.89688e-09
1.00261e-08
1.00149e-08
1.00124e-08
1.00118e-08
1.00122e-08
1.00124e-08
1.00176e-08
1.00231e-08
1.0028e-08
1.00391e-08
1.00486e-08
1.00324e-08
1.00192e-08
1.00146e-08
9.89688e-09
1.00278e-08
1.00153e-08
1.00125e-08
1.00118e-08
1.00119e-08
1.00118e-08
1.00162e-08
1.00212e-08
1.00262e-08
1.00347e-08
1.00408e-08
1.00301e-08
1.00194e-08
1.00155e-08
9.89688e-09
1.003e-08
1.00158e-08
1.00128e-08
1.00119e-08
1.00118e-08
1.00112e-08
1.00145e-08
1.00195e-08
1.00243e-08
1.00306e-08
1.00341e-08
1.0027e-08
1.00192e-08
1.00156e-08
9.89688e-09
1.00325e-08
1.00164e-08
1.00131e-08
1.00122e-08
1.0012e-08
1.0011e-08
1.00129e-08
1.0018e-08
1.00225e-08
1.00269e-08
1.00286e-08
1.0024e-08
1.00184e-08
1.00155e-08
9.89688e-09
1.00354e-08
1.00171e-08
1.00135e-08
1.00126e-08
1.00123e-08
1.00115e-08
1.00122e-08
1.00167e-08
1.00207e-08
1.00236e-08
1.00243e-08
1.00213e-08
1.00175e-08
1.00152e-08
9.89688e-09
1.00385e-08
1.00177e-08
1.00139e-08
1.00129e-08
1.00127e-08
1.0012e-08
1.00133e-08
1.00161e-08
1.0019e-08
1.00207e-08
1.00209e-08
1.0019e-08
1.00165e-08
1.00149e-08
9.89689e-09
1.00419e-08
1.00183e-08
1.00143e-08
1.00133e-08
1.0013e-08
1.00125e-08
1.00146e-08
1.0017e-08
1.00184e-08
1.00184e-08
1.00183e-08
1.00172e-08
1.00156e-08
1.00144e-08
9.89699e-09
1.00453e-08
1.00189e-08
1.00146e-08
1.00137e-08
1.00134e-08
1.00129e-08
1.0016e-08
1.00183e-08
1.00194e-08
1.00178e-08
1.00163e-08
1.00157e-08
1.00148e-08
1.00138e-08
9.89739e-09
1.00489e-08
1.00193e-08
1.0015e-08
1.0014e-08
1.00138e-08
1.00134e-08
1.00171e-08
1.00198e-08
1.0021e-08
1.00196e-08
1.00159e-08
1.00144e-08
1.0014e-08
1.00135e-08
9.89806e-09
1.00521e-08
1.00197e-08
1.00153e-08
1.00143e-08
1.00142e-08
1.00138e-08
1.0018e-08
1.00214e-08
1.00227e-08
1.00221e-08
1.00174e-08
1.00141e-08
1.00133e-08
1.00131e-08
9.89894e-09
1.00554e-08
1.00201e-08
1.00155e-08
1.00146e-08
1.00145e-08
1.00142e-08
1.00188e-08
1.0023e-08
1.00244e-08
1.0025e-08
1.00199e-08
1.00149e-08
1.00129e-08
1.00124e-08
9.90006e-09
1.00587e-08
1.00205e-08
1.00158e-08
1.00149e-08
1.00149e-08
1.00145e-08
1.00195e-08
1.00246e-08
1.00259e-08
1.00281e-08
1.00231e-08
1.00163e-08
1.00131e-08
1.00119e-08
9.9015e-09
1.00622e-08
1.0021e-08
1.0016e-08
1.00152e-08
1.00152e-08
1.00149e-08
1.00201e-08
1.00262e-08
1.00274e-08
1.00311e-08
1.00271e-08
1.00182e-08
1.00138e-08
1.00119e-08
1.00656e-08
9.90336e-09
1.00215e-08
1.00163e-08
1.00155e-08
1.00155e-08
1.00153e-08
1.00208e-08
1.00279e-08
1.00289e-08
1.0034e-08
1.00318e-08
1.00206e-08
1.00148e-08
1.00123e-08
1.00221e-08
1.00687e-08
9.90683e-09
1.00167e-08
1.00158e-08
1.00159e-08
1.00158e-08
1.00215e-08
1.00297e-08
1.00306e-08
1.00369e-08
1.0037e-08
1.00233e-08
1.0016e-08
1.00129e-08
1.00171e-08
1.00227e-08
1.00772e-08
9.91179e-09
1.00162e-08
1.00163e-08
1.00164e-08
1.00223e-08
1.00318e-08
1.00325e-08
1.004e-08
1.00427e-08
1.00262e-08
1.00172e-08
1.00137e-08
1.00166e-08
1.00175e-08
1.00247e-08
1.00899e-08
9.92161e-09
1.00167e-08
1.00171e-08
1.00234e-08
1.00339e-08
1.00348e-08
1.00435e-08
1.00489e-08
1.00292e-08
1.00184e-08
1.00145e-08
1.00172e-08
1.0017e-08
1.00187e-08
1.00286e-08
1.0113e-08
9.93897e-09
1.0018e-08
1.00248e-08
1.00362e-08
1.00377e-08
1.00479e-08
1.00558e-08
1.00317e-08
1.00193e-08
1.00151e-08
1.0019e-08
1.00177e-08
1.00181e-08
1.00209e-08
1.00376e-08
1.01587e-08
9.98949e-09
1.00263e-08
1.00385e-08
1.00411e-08
1.00532e-08
1.0062e-08
1.00334e-08
1.00198e-08
1.00155e-08
1.0028e-08
1.00202e-08
1.0019e-08
1.00196e-08
1.00257e-08
1.00583e-08
1.02346e-08
1.00438e-08
1.00407e-08
1.00446e-08
1.00586e-08
1.00665e-08
1.00342e-08
1.00197e-08
1.00156e-08
1.00427e-08
1.00298e-08
1.00224e-08
1.00204e-08
1.00222e-08
1.00375e-08
1.00965e-08
1.03535e-08
1.01347e-08
1.00482e-08
1.00636e-08
1.00698e-08
1.00344e-08
1.00195e-08
1.00155e-08
1.0052e-08
1.00446e-08
1.00327e-08
1.00241e-08
1.00219e-08
1.00279e-08
1.00627e-08
1.0166e-08
1.03847e-08
1.01472e-08
1.00681e-08
1.00725e-08
1.00345e-08
1.00192e-08
1.00149e-08
1.00716e-08
1.00558e-08
1.0048e-08
1.00345e-08
1.00251e-08
1.00242e-08
1.00429e-08
1.01155e-08
1.02396e-08
1.05485e-08
1.00815e-08
1.00742e-08
1.00345e-08
1.00191e-08
1.00141e-08
1.00732e-08
1.0073e-08
1.00619e-08
1.00503e-08
1.00349e-08
1.00256e-08
1.00313e-08
1.0083e-08
1.02029e-08
1.03882e-08
1.0528e-08
1.54772e-08
1.00342e-08
1.0019e-08
1.00132e-08
1.00331e-08
1.00666e-08
1.00748e-08
1.00652e-08
1.0051e-08
1.00341e-08
1.00277e-08
1.00555e-08
1.01675e-08
1.03544e-08
1.05362e-08
1.14724e-08
2.96476e-07
3.03484e-08
1.00189e-08
1.00123e-08
1.00182e-08
1.00284e-08
1.00604e-08
1.0074e-08
1.00663e-08
1.00504e-08
1.00334e-08
1.00378e-08
1.01196e-08
1.03077e-08
1.05365e-08
1.05957e-08
9.3425e-08
7.53473e-06
9.13197e-07
7.13704e-08
1.00114e-08
1.00104e-08
1.0016e-08
1.00253e-08
1.00546e-08
1.00728e-08
1.00659e-08
1.00494e-08
1.00354e-08
1.00704e-08
1.02384e-08
1.04481e-08
1.04406e-08
3.26293e-08
2.3508e-06
9.08413e-05
2.18024e-05
2.55029e-06
1.74085e-07
1.00085e-08
1.00144e-08
1.00225e-08
1.00503e-08
1.00716e-08
1.00646e-08
1.0049e-08
1.00436e-08
1.01449e-08
1.03765e-08
1.04262e-08
1.57116e-08
6.77304e-07
3.12087e-05
0.000554577
0.000235794
5.63893e-05
6.47188e-06
4.12777e-07
1.0007e-08
1.00133e-08
1.00207e-08
1.0046e-08
1.00696e-08
1.00625e-08
1.00511e-08
1.00624e-08
1.02737e-08
1.04129e-08
1.14554e-08
1.81247e-07
9.34163e-06
0.000215082
0.00246415
0.00125749
0.000552092
0.00013381
1.51089e-05
9.34814e-07
1.00062e-08
1.00128e-08
1.00195e-08
1.0041e-08
1.00655e-08
1.00602e-08
1.00724e-08
1.01172e-08
1.03739e-08
1.04784e-08
4.85887e-08
2.45183e-06
7.26746e-05
0.0011156
0.0184003
0.00460403
0.00258436
0.00117851
0.000290321
3.28321e-05
2.02691e-06
1.0006e-08
1.00126e-08
1.00186e-08
1.0036e-08
1.01511e-08
1.02158e-08
1.08157e-08
1.02614e-08
1.02379e-08
1.68625e-08
5.55577e-07
2.0232e-05
0.000409793
0.00906566
0.595393
0.0212336
0.595803
0.609274
0.609505
0.0080268
0.00492242
0.00233095
0.000586223
6.74386e-05
4.24038e-06
1.0006e-08
1.00125e-08
1.00179e-08
1.02694e-08
2.62629e-08
2.96936e-08
3.25683e-08
1.0144e-08
1.09105e-08
1.07316e-07
4.3513e-06
0.000121597
0.00344505
0.212264
0.568899
0.704921
0.021802
0.569294
0.491672
0.492234
0.705198
0.707503
0.70769
0.0130086
0.00872622
0.00432926
0.00111134
0.000128829
6.75511e-06
1.0006e-08
1.00123e-08
1.00229e-08
3.31392e-08
1.39731e-06
6.27299e-07
1.44708e-07
1.01685e-08
2.27326e-08
6.38565e-07
2.85382e-05
0.000855877
0.0652354
0.714093
0.714286
0.806172
0.806409
0.673248
0.73204
0.0294586
0.0490249
0.67361
0.567814
0.568343
0.731902
0.745306
0.745196
0.0200275
0.0141533
0.00712855
0.00165257
0.000171879
9.56277e-06
1.0006e-08
1.00122e-08
1.09926e-08
1.07494e-06
4.90442e-05
7.53563e-06
8.41132e-07
1.20608e-08
6.61333e-08
4.60384e-06
0.000146912
0.0122938
0.879644
0.879902
0.800409
0.80091
0.876689
0.877101
1.05162
1.05167
0.680719
0.64864
1.00533
0.628071
1.05358
0.0388187
0.0513791
0.321471
0.321521
0.411483
0.411393
0.680538
0.618604
0.618435
0.648305
1.01091
0.628676
1.05212
0.672441
1.05775
0.674548
1.09705
0.671586
1.06068
0.67469
1.09242
0.0286931
0.0196274
0.00886961
0.00185277
0.000190958
1.16444e-05
1.00059e-08
1.00832e-08
9.87958e-08
2.67981e-05
0.000678304
8.3679e-05
5.18761e-05
2.54061e-07
4.34021e-07
1.61268e-05
0.00152058
0.11832
0.117894
0.0221986
0.0223058
1.18729
1.18717
1.06302
1.06287
1.24049
1.14382
0.782715
1.33389
0.830163
0.65172
1.14802
1.24246
0.783096
1.33492
0.830435
0.652307
1.55141
0.992418
1.51445
0.970408
1.55247
0.992579
1.5149
0.970466
0.585385
0.970053
0.597731
0.970719
0.612901
1.05027
0.581742
1.12004
0.0518814
0.068204
0.208433
0.208381
0.239394
0.239324
0.306149
0.306295
0.406753
0.406867
0.58485
0.971779
0.597663
0.967711
0.540762
0.78902
0.489968
0.904851
0.541172
0.793356
0.490421
0.908486
0.612838
1.0572
0.582913
1.11989
0.64289
1.16934
0.642117
1.16577
0.036594
0.0216322
0.00862154
0.00172336
0.000174475
1.49375e-05
1.00072e-08
1.87789e-08
3.89998e-06
0.00036854
0.00548667
0.000732179
0.00051053
1.96853e-05
6.57985e-06
0.000157888
0.00845222
0.00853117
0.0150011
0.0152089
0.450782
0.451554
0.600197
0.604394
1.68054
1.1037
1.7094
1.11738
1.68276
1.10407
1.71733
1.11872
1.62746
0.985151
1.74949
1.04786
1.63092
0.985352
1.75714
1.04924
1.16167
1.32382
0.786067
0.638935
1.45793
0.833973
1.16578
1.32564
0.639685
0.786425
1.45886
0.834206
1.65787
0.983092
1.61656
0.955071
1.65954
0.983387
1.617
0.95515
0.533689
1.00963
0.554169
0.990657
0.597837
1.0523
0.5629
1.12692
0.0638024
0.0955582
0.185508
0.185381
0.174546
0.17449
0.197569
0.197824
0.211299
0.211551
0.357315
0.219176
0.434075
0.253505
0.361518
0.219705
0.436399
0.253881
0.612355
0.757557
0.35506
0.549481
0.324368
0.434078
0.613212
0.761112
0.355209
0.550476
0.324547
0.434749
0.5333
1.01121
0.554335
0.988564
0.483008
0.886355
0.483778
0.890318
0.597615
1.05805
0.564066
1.12513
0.632485
1.19316
0.631701
1.18949
0.0378219
0.019138
0.00721001
0.0013252
0.000150311
2.0836e-05
1.0294e-08
5.31846e-07
7.83204e-05
0.00308532
0.024527
0.00387753
0.0037425
0.0019107
0.000804708
0.0211864
0.0215098
0.029161
0.0293787
0.568923
0.570278
0.628212
0.629962
1.25951
0.612186
1.23807
0.589178
1.26208
0.612659
1.24248
0.590148
1.20815
0.673964
1.25883
0.683169
1.21899
0.67721
1.26734
0.686051
1.77947
1.08411
1.80066
1.09732
1.78283
1.08477
1.80817
1.09891
1.74016
0.968122
1.86575
1.05197
1.74482
0.968539
1.87184
1.05333
0.50791
1.00599
0.534455
0.973804
0.0632539
0.120773
0.2345
0.234176
0.195885
0.195649
0.184664
0.184353
0.172069
0.172299
0.148612
0.121504
0.168334
0.127775
0.155739
0.12131
0.176924
0.128052
0.241263
0.156473
0.209427
0.143655
0.249022
0.157283
0.218418
0.14429
0.327668
0.183406
0.434451
0.230515
0.332628
0.18413
0.436901
0.230939
0.752945
0.614345
0.336339
0.400727
0.550887
0.29675
0.756262
0.615404
0.336499
0.40141
0.55201
0.296943
0.507465
1.00656
0.534562
0.971057
0.447931
0.834806
0.448746
0.838734
0.0321713
0.0154544
0.00524025
0.000838135
0.000145179
3.22308e-05
3.96124e-08
1.43191e-05
0.000963892
0.0143404
0.0556264
0.0305674
0.0199902
0.0125312
0.0191984
0.529929
0.531144
0.532961
0.533593
0.763297
0.764366
0.811402
0.813081
1.46593
0.738487
1.40102
0.700592
1.46969
0.738995
1.40504
0.701397
1.30746
0.708118
1.36301
0.72164
1.3173
0.710661
1.37019
0.72366
1.6851
0.927933
1.6903
0.928467
0.0516531
0.110504
0.302709
0.30272
0.270575
0.270283
0.250224
0.249477
0.207754
0.207209
0.18331
0.141425
0.167567
0.125733
0.180114
0.140909
0.165746
0.124585
0.138152
0.112675
0.151634
0.118276
0.141861
0.112043
0.152413
0.117295
0.1023
0.0710319
0.120612
0.0799962
0.104972
0.0712292
0.124642
0.0804972
0.213678
0.12608
0.175552
0.104962
0.221037
0.127153
0.182196
0.10587
0.0260883
0.0117581
0.00293858
0.000566914
0.000188885
4.71648e-05
1.27728e-06
0.000235545
0.00689869
0.0393124
0.0817343
0.0905117
0.0518399
0.0507662
0.466396
0.466635
0.494571
0.495025
0.68494
0.685575
0.650242
0.650928
0.710083
1.15241
0.706239
1.15893
0.710609
1.15505
0.70709
1.16003
0.734037
1.11979
0.717436
1.1589
0.734614
1.12536
0.718802
1.15925
1.47126
0.765994
1.40863
0.729412
1.47525
0.766563
1.41173
0.730088
1.29064
0.697274
1.35188
0.71746
1.29891
0.699284
1.35725
0.718939
0.04216
0.0833962
0.210545
0.305066
0.30499
0.292326
0.291436
0.227136
0.225918
0.161922
0.161594
0.149978
0.122464
0.131028
0.0952525
0.148778
0.122218
0.130328
0.0950843
0.0976928
0.0702316
0.109515
0.0786775
0.0978629
0.0701489
0.109223
0.0785666
0.0791671
0.0569606
0.0811717
0.0572419
0.0202443
0.00705069
0.00168932
0.00060485
0.000272273
2.69089e-05
3.14976e-05
0.00227511
0.0260076
0.0689382
0.0951109
0.116704
0.149687
0.0798046
0.610873
0.610731
0.612518
0.612392
0.994025
0.630641
0.633258
0.989273
0.99918
0.631669
0.63354
0.990391
0.689268
0.689422
0.682254
1.20782
0.689201
1.20416
0.682422
1.21037
0.689907
1.20385
0.684314
1.13877
0.656652
1.19954
0.684513
1.14441
0.657948
1.19935
1.26738
0.690853
1.27481
0.692533
0.0325672
0.0687084
0.139531
0.498846
0.497823
0.457984
0.456133
0.345276
0.344392
0.293981
0.2916
0.175936
0.331496
0.204495
0.275312
0.175453
0.327437
0.202695
0.274563
0.144181
0.164394
0.1192
0.209368
0.144323
0.164916
0.119333
0.210024
0.118185
0.0894763
0.090161
0.0704144
0.11832
0.089456
0.0906777
0.0705518
0.0664289
0.0519283
0.070403
0.0563808
0.0670743
0.052059
0.0711186
0.0565693
0.0131976
0.00416651
0.00153887
0.000859872
0.000167766
0.000448342
0.0122345
0.053647
0.0855974
0.107816
0.141628
0.219407
0.449098
0.449077
0.198871
0.198996
0.910168
0.563342
0.894507
0.569224
0.91225
0.563655
0.897258
0.569552
0.648484
0.648536
1.03625
0.595032
0.60226
1.02037
1.04118
0.5961
0.602431
1.02124
0.952736
0.600052
0.968389
0.606426
0.954125
0.600245
0.967641
0.60633
0.660212
1.1055
0.620077
1.17813
0.660614
1.11108
0.621278
1.17987
0.0214603
0.0509247
0.118362
0.25268
0.539188
0.536893
0.492014
0.487861
0.38086
0.37903
0.39843
0.240692
0.291183
0.455465
0.391608
0.238325
0.289273
0.448558
0.181208
0.358119
0.210664
0.297833
0.180479
0.355118
0.210069
0.294405
0.144395
0.160454
0.112048
0.223515
0.144194
0.16163
0.112257
0.222758
0.105872
0.0841959
0.107335
0.0845184
0.00836678
0.0035195
0.00203795
0.000522778
0.00357585
0.0320036
0.0723665
0.0944789
0.115992
0.156933
0.387118
0.387074
0.408008
0.40796
0.335704
0.335641
0.338691
0.3382
0.953123
0.53758
0.937839
0.550709
0.955895
0.538167
0.940262
0.551195
0.559802
0.824955
0.531526
0.889862
0.559963
0.828197
0.531901
0.890583
1.01853
0.564963
0.566875
1.00683
1.02066
0.56561
0.566801
1.00608
0.987026
0.557354
1.00631
0.573726
0.989325
0.557754
1.00585
0.573659
0.0140365
0.0322517
0.0806767
0.225023
0.50659
0.504706
0.597416
0.595651
0.595062
0.59118
0.732275
0.399919
0.79342
0.450783
0.721006
0.396757
0.784659
0.44786
0.663616
0.367891
0.553932
0.32238
0.505047
0.293953
0.657145
0.366004
0.553057
0.322031
0.499849
0.292863
0.427517
0.244494
0.4257
0.2442
0.192309
0.388391
0.235798
0.303724
0.191659
0.386504
0.235433
0.300135
0.0068702
0.0040011
0.00119071
0.0136645
0.0510518
0.080288
0.0987845
0.116268
0.186223
0.399902
0.399407
0.379244
0.37894
0.311216
0.731791
0.260067
0.303742
0.245422
0.442761
0.735632
0.3113
0.443424
0.259971
0.302155
0.244711
0.516332
0.290963
0.418697
0.258534
0.513827
0.290193
0.414119
0.257349
0.944154
0.518048
0.937125
0.524162
0.94668
0.518632
0.939105
0.524612
0.507068
0.874213
0.507256
0.874904
0.558859
1.00185
0.558748
1.00114
0.973847
0.538533
0.97656
0.539029
0.0111923
0.020935
0.0467956
0.133756
0.483932
0.483287
0.526112
0.525138
0.561725
0.558065
0.659293
0.656458
0.492538
0.941113
0.519955
0.914209
0.461072
0.885338
0.490526
0.927168
0.515394
0.906955
0.459735
0.879489
0.80611
0.422394
0.802659
0.42174
0.745702
0.399851
0.619573
0.530151
0.360433
0.307741
0.744499
0.399854
0.618735
0.530184
0.360367
0.307779
0.445554
0.262782
0.446834
0.263112
0.00680002
0.00231327
0.0281065
0.0600852
0.0823957
0.0935929
0.110084
0.180431
0.180221
0.124952
0.12484
0.381252
0.380249
0.300028
0.299607
0.63437
0.322774
0.239044
0.394111
0.427952
0.259103
0.638453
0.320259
0.39495
0.238329
0.421105
0.257576
0.60955
0.321551
0.551315
0.296386
0.604005
0.320291
0.543439
0.294821
0.916446
0.510497
0.918025
0.510866
0.0101701
0.0160491
0.0291578
0.0691076
0.242543
0.543277
0.541655
0.563929
0.562225
0.830773
0.471581
0.869498
0.467658
0.821181
0.468101
0.862427
0.465752
1.03224
1.05997
0.535689
0.967167
0.507237
0.544658
1.02815
1.04597
0.534685
0.96436
0.506365
0.541454
0.52476
0.480693
0.984032
0.91509
0.522641
0.479583
0.973838
0.910418
0.836428
0.446719
0.836885
0.446955
0.777419
0.43091
0.570357
0.343645
0.780673
0.431847
0.574352
0.344234
0.00399065
0.0387673
0.0611484
0.072075
0.0724268
0.0728724
0.139643
0.139543
0.134891
0.134436
0.290916
0.606101
0.329279
0.504977
0.290415
0.601798
0.32846
0.501976
0.239705
0.239486
0.641551
0.34124
0.620708
0.330673
0.63778
0.340416
0.616527
0.329882
0.00624161
0.0137708
0.0215399
0.0401436
0.107757
0.391067
0.390947
0.58424
0.582133
0.588813
0.585768
0.621713
0.6197
0.931241
0.485179
0.906746
0.479189
0.928572
0.484739
0.907246
0.479383
1.07419
1.03959
0.560322
0.53526
1.00134
0.517027
1.06245
1.03945
0.535115
0.557826
1.00398
0.517398
0.515271
0.969426
0.514161
0.964178
0.0412106
0.0535014
0.0522928
0.0508241
0.120422
0.118716
0.0958235
0.0940177
0.167168
0.166755
0.149986
0.149057
0.261857
0.540704
0.308936
0.42715
0.262112
0.543361
0.309273
0.428695
0.21695
0.156266
0.279827
0.186123
0.21686
0.15616
0.279464
0.186049
0.620396
0.340861
0.622472
0.341103
0.0090175
0.0176311
0.0281536
0.0574932
0.175987
0.40799
0.407457
0.582129
0.578601
0.677152
0.670168
0.522908
0.968607
0.512145
0.915788
0.521838
0.968111
0.51213
0.912101
0.943031
0.497098
0.909197
0.497823
0.94718
0.498213
0.910225
0.498383
0.0314362
0.0415518
0.0318639
0.0393209
0.0846179
0.0801103
0.0456682
0.0431133
0.271951
0.169596
0.165857
0.255266
0.157475
0.284727
0.272868
0.16981
0.165392
0.254559
0.157413
0.280818
0.142073
0.140224
0.223214
0.456498
0.269883
0.355404
0.223224
0.457061
0.269988
0.355416
0.290839
0.178582
0.29169
0.178768
0.0122248
0.0218968
0.0373259
0.0872121
0.295348
0.294928
0.389864
0.388772
0.394699
0.394808
0.583558
0.57839
0.981554
0.547649
1.06677
0.56465
1.05564
0.553346
0.958278
0.539601
1.05096
0.560643
1.04783
0.551686
1.02672
0.533041
1.03046
0.533969
0.981446
0.52207
0.991446
0.524228
0.0237467
0.0234834
0.0204263
0.0417152
0.041456
0.022968
0.0228587
0.049851
0.0480943
0.0439707
0.0434727
0.235132
0.15739
0.110618
0.188278
0.127453
0.163391
0.234916
0.157357
0.110431
0.186977
0.127318
0.16184
0.106245
0.081231
0.119695
0.0758892
0.101919
0.0806526
0.117597
0.0762217
0.0157175
0.0270344
0.0515298
0.146028
0.331146
0.329469
0.408376
0.405793
0.470086
0.467702
1.07062
0.556374
0.422716
0.892611
0.488778
0.673579
0.423274
0.883918
0.486566
0.67581
1.05168
0.551889
1.08317
1.0747
0.580215
0.568086
1.06352
1.06774
0.577134
0.566896
1.04485
0.551385
1.05036
0.552554
0.010748
0.0122889
0.0175877
0.0370526
0.0368236
0.0247234
0.0246621
0.0570899
0.0486649
0.0534777
0.0601688
0.0486126
0.0612221
0.0547382
0.0501205
0.0534348
0.0599523
0.0481827
0.060565
0.0494567
0.0493159
0.0846399
0.137354
0.0840435
0.134203
0.0739672
0.051168
0.0704763
0.0504273
0.019291
0.0337816
0.0740747
0.250474
0.249595
0.31097
0.30913
0.322032
0.319612
0.419929
0.415277
0.607971
0.376809
0.714378
0.390548
0.775465
0.424998
0.596371
0.775374
0.424493
0.371677
0.709099
0.389401
1.01857
0.545643
0.856856
0.474837
0.852854
0.997651
0.473899
0.542179
0.00486029
0.0117764
0.0158476
0.0340898
0.0340288
0.0198517
0.0198468
0.0532484
0.0414933
0.0613801
0.0788592
0.0540919
0.0770838
0.0541175
0.0418696
0.0598752
0.0767993
0.0532494
0.0738786
0.0514731
0.078208
0.0659039
0.0695406
0.0495855
0.0742449
0.062763
0.0672968
0.049976
0.0418837
0.0500723
0.0412817
0.0227461
0.0428124
0.107367
0.279521
0.277974
0.307167
0.304122
0.360459
0.355752
0.700793
0.371836
0.330429
0.626693
0.341845
0.490417
0.690382
0.369106
0.327563
0.616685
0.339332
0.483393
0.726659
0.754578
0.387626
0.415987
0.757238
0.416442
0.719238
0.386202
0.0048144
0.00802239
0.0276785
0.0257164
0.0256834
0.0277654
0.0292447
0.0294758
0.0379108
0.0499099
0.0715446
0.0376793
0.0483232
0.0693511
0.0649209
0.0466281
0.0645035
0.0908101
0.0606036
0.0891323
0.0646177
0.0462249
0.0619618
0.0852154
0.0588668
0.0822029
0.0646002
0.0586152
0.0612865
0.056605
0.0256869
0.0538981
0.144846
0.281749
0.279984
0.321716
0.317642
0.426522
0.321951
0.533022
0.297001
0.581536
0.31762
0.413568
0.571576
0.314448
0.314259
0.523657
0.29455
0.699527
0.366647
0.619085
0.33155
0.69022
0.364807
0.611595
0.330093
0.728418
0.390257
0.720359
0.388937
0.0035038
0.00557155
0.0331349
0.0586715
0.0327165
0.0585962
0.0527911
0.0528538
0.0423615
0.0444541
0.069937
0.0456086
0.0739832
0.0661638
0.0447923
0.100308
0.0429159
0.0402375
0.067267
0.0443639
0.0719641
0.0638896
0.0434587
0.0960041
0.0606318
0.0823547
0.0581295
0.0748644
0.0537667
0.0523511
0.0515922
0.0508512
0.0274545
0.064985
0.229143
0.296098
0.294302
0.227172
0.298553
0.296073
0.342379
0.487634
0.304068
0.339467
0.476663
0.299745
0.574485
0.525753
0.310244
0.289084
0.568114
0.309038
0.5188
0.287655
0.682243
0.365975
0.607733
0.338945
0.674461
0.364781
0.603604
0.338352
0.00199883
0.00627662
0.0594812
0.0765077
0.0393245
0.0621872
0.0589326
0.0762663
0.0389565
0.062099
0.0476582
0.0478255
0.0432615
0.0364804
0.0476441
0.0512014
0.0511126
0.0390116
0.040556
0.0456095
0.0351584
0.0494105
0.0487106
0.0382033
0.055153
0.0659672
0.0532893
0.0613248
0.026538
0.0779494
0.236299
0.300318
0.29865
0.232562
0.293431
0.288539
0.467432
0.520128
0.290944
0.511337
0.300181
0.266647
0.368149
0.306784
0.46558
0.515205
0.289239
0.501394
0.296577
0.266441
0.36403
0.30294
0.569469
0.5384
0.321106
0.301202
0.565347
0.320452
0.530655
0.300072
0.00151921
0.0729106
0.0669692
0.0667464
0.0724225
0.0592017
0.058857
0.0801145
0.0939077
0.0626988
0.0841759
0.0581516
0.120149
0.0849033
0.103018
0.087677
0.079492
0.10169
0.0764637
0.0948879
0.0622705
0.084046
0.0582379
0.115202
0.0799924
0.10005
0.0872809
0.0760614
0.0975265
0.0381837
0.0535698
0.0402114
0.0538278
0.0361043
0.0535016
0.0390179
0.0539039
0.0222468
0.0581647
0.187044
0.336659
0.278488
0.41502
0.332523
0.27986
0.418263
0.18086
0.276752
0.266121
0.507286
0.443002
0.54434
0.278043
0.312066
0.24551
0.508534
0.447764
0.538053
0.311783
0.278613
0.246563
0.557399
0.327172
0.551787
0.326763
0.00271194
0.0804815
0.102649
0.0802278
0.102347
0.0881345
0.0877787
0.063168
0.0809229
0.0819387
0.0680933
0.0928151
0.0821458
0.116124
0.103891
0.109647
0.102023
0.112853
0.122922
0.104509
0.13025
0.0626141
0.0758604
0.0681096
0.0797406
0.0875686
0.079261
0.1019
0.110999
0.10795
0.098769
0.109551
0.119932
0.101518
0.127373
0.013193
0.0249255
0.157844
0.152147
0.0247853
0.0403581
0.0400359
0.389699
0.275777
0.481026
0.273927
0.441934
0.331842
0.488408
0.279078
0.369872
0.275776
0.477873
0.272495
0.443573
0.319221
0.475038
0.275994
0.26119
0.445479
0.294617
0.249371
0.417388
0.282329
0.474849
0.452946
0.266818
0.258415
0.481817
0.458415
0.268132
0.259298
0.00387839
0.0899386
0.107683
0.0959485
0.131138
0.0900539
0.108661
0.0967214
0.130941
0.111408
0.111283
0.0897858
0.0766382
0.115184
0.0963489
0.113002
0.106566
0.11207
0.0983351
0.096035
0.0886732
0.0844354
0.0741598
0.110075
0.0936144
0.106863
0.109411
0.105665
0.0968251
0.0933267
0.0884411
0.0135268
0.0191351
0.0943043
0.0909983
0.0196621
0.0332102
0.0333644
0.480583
0.489474
0.27115
0.271531
0.483175
0.263366
0.482411
0.479767
0.271367
0.269749
0.464796
0.259452
0.24443
0.410519
0.235773
0.448515
0.272245
0.197069
0.207175
0.290561
0.223945
0.379616
0.226891
0.416746
0.260853
0.189082
0.195556
0.276873
0.0280364
0.106603
0.106787
0.10806
0.11409
0.102048
0.11862
0.0934316
0.124588
0.108266
0.116306
0.100721
0.116893
0.095388
0.124571
0.112247
0.101498
0.102068
0.0908979
0.0773801
0.0848577
0.106787
0.0994752
0.103568
0.0885933
0.0766956
0.0857946
0.0241502
0.026097
0.0950351
0.213803
0.167116
0.0921219
0.213672
0.163119
0.0260497
0.0197054
0.0258423
0.482905
0.277929
0.496989
0.270757
0.467747
0.275929
0.470012
0.265866
0.317859
0.166312
0.482447
0.186206
0.258832
0.122275
0.288579
0.153183
0.449902
0.253383
0.180732
0.119352
0.00540981
0.0741351
0.0595811
0.0743217
0.0598529
0.0992627
0.12267
0.117374
0.124802
0.111264
0.113031
0.0923077
0.068663
0.0997333
0.124971
0.116349
0.123511
0.113698
0.110045
0.0907699
0.0688567
0.0901768
0.072122
0.0908158
0.0724174
0.03975
0.0396413
0.0393313
0.0839222
0.22466
0.170482
0.239856
0.160169
0.0836456
0.221105
0.161107
0.228587
0.155559
0.0261876
0.0286743
0.210961
0.394945
0.159161
0.165572
0.228301
0.122335
0.191051
0.361057
0.148529
0.224116
0.164012
0.120715
0.0036171
0.0765827
0.107038
0.0767676
0.107246
0.0406932
0.0408849
0.0594016
0.117773
0.103649
0.116199
0.101508
0.0908964
0.124277
0.0989364
0.111612
0.10154
0.0791261
0.0598142
0.12097
0.105529
0.117683
0.104735
0.0925465
0.121705
0.0975782
0.115145
0.098298
0.077874
0.0547565
0.0489339
0.0730268
0.0490746
0.0733569
0.0771695
0.213202
0.162616
0.228348
0.150381
0.143076
0.112062
0.076856
0.22021
0.158429
0.224181
0.155661
0.135111
0.110503
0.0486352
0.0489339
0.175751
0.162429
0.163845
0.163481
0.00313652
0.127378
0.128583
0.127809
0.128586
0.0793748
0.117802
0.0795243
0.117977
0.0484234
0.0484515
0.0933788
0.0764137
0.104476
0.0663063
0.0824557
0.100622
0.0861921
0.0954222
0.0841797
0.113406
0.0866962
0.106569
0.094548
0.0768287
0.104553
0.0672502
0.0851429
0.10361
0.0878561
0.100474
0.0849766
0.110018
0.0853964
0.108487
0.0480463
0.0886444
0.0963872
0.0889145
0.0962664
0.0824462
0.0826948
0.0828877
0.205938
0.161894
0.214178
0.152281
0.109251
0.137695
0.105629
0.145489
0.158046
0.151158
0.0822697
0.210748
0.158071
0.208644
0.157532
0.109813
0.13365
0.104677
0.148727
0.148745
0.151574
0.000933058
0.102399
0.0765424
0.102427
0.0762617
0.156355
0.168137
0.156499
0.167961
0.069198
0.0983875
0.0695759
0.0987754
0.0807181
0.0706236
0.080681
0.0665476
0.0821773
0.0718974
0.0818756
0.0680298
0.0721263
0.080354
0.0763743
0.0728272
0.0729098
0.0812568
0.0769511
0.0740162
0.029686
0.103346
0.0830289
0.102744
0.082795
0.126757
0.136054
0.125973
0.13488
0.107363
0.107038
0.196496
0.155804
0.214996
0.131888
0.120526
0.163192
0.125551
0.160061
0.136373
0.149873
0.13572
0.159828
0.201374
0.15175
0.209744
0.135725
0.121266
0.166841
0.125777
0.165318
0.136432
0.144757
0.13557
0.160125
0.00589608
0.0017985
0.134765
0.0993983
0.134525
0.0988776
0.150283
0.174066
0.150515
0.173911
0.105788
0.0782987
0.100471
0.0782522
0.114094
0.122152
0.121191
0.102991
0.108836
0.0807538
0.10313
0.0808418
0.116245
0.12241
0.121207
0.105154
0.0738933
0.0871907
0.074898
0.0838428
0.0748957
0.0892561
0.076072
0.0856898
0.0157572
0.062784
0.0422055
0.062706