/*--------------------------------*- C++ -*----------------------------------*\
| =========                 |                                                 |
| \\      /  F ield         | OpenFOAM: The Open Source CFD Toolbox           |
|  \\    /   O peration     | Version:  5.x                                   |
|   \\  /    A nd           | Web:      www.OpenFOAM.org                      |
|    \\/     M anipulation  |                                                 |
\*---------------------------------------------------------------------------*/
FoamFile
{
    version     2.0;
    format      ascii;
    class       surfaceScalarField;
    location    "1.6";
    object      meshPhi;
}
// * * * * * * * * * * * * * * * * * * * * * * * * * * * * * * * * * * * * * //

dimensions      [0 3 -1 0 0 0 0];

internalField   nonuniform List<scalar> 
30582
(
0
0
0
0
0
0
0
0
0
0
0
0
0
0
0
0
0
0
0
0
0
0
0
0
0
0
0
0
0
0
0
0
0
0
0
0
0
0
0
0
0
0
0
0
0
0
0
0
0
0
0
0
0
0
0
0
0
0
0
0
0
0
0
0
0
0
0
0
0
0
0
0
0
0
0
0
0
0
0
0
0
0
0
0
0
0
0
0
0
0
0
0
0
0
0
0
0
0
0
0
0
0
0
0
0
0
0
0
0
0
0
0
0
0
0
0
0
0
0
0
0
0
0
0
0
0
0
0
0
0
0
0
0
0
0
0
0
0
0
0
0
0
0
0
0
0
0
0
0
0
0
0
0
0
0
0
0
0
0
0
0
0
0
0
0
0
0
0
0
0
0
0
0
0
0
0
0
0
0
0
0
0
0
0
0
0
0
0
0
0
0
0
0
0
0
0
0
0
0
0
0
0
0
0
0
0
0
0
0
0
0
0
0
0
0
0
0
0
0
0
0
0
0
0
0
0
0
0
0
0
0
0
0
0
0
0
0
0
0
0
0
0
0
0
0
0
0
0
0
0
0
0
0
0
0
0
0
0
0
0
0
0
0
0
0
0
0
0
0
0
0
0
0
0
0
0
0
0
0
0
0
0
0
0
0
0
0
0
0
0
0
0
0
0
0
0
0
0
0
0
0
0
0
0
0
0
0
0
0
0
0
0
0
0
0
0
0
0
0
0
0
0
0
0
0
0
0
0
0
0
0
0
0
0
0
0
0
0
0
0
0
0
0
0
0
0
0
0
0
0
0
0
0
0
0
0
0
0
0
0
0
0
0
0
0
0
0
0
0
0
0
0
0
0
0
0
0
0
0
0
0
0
0
0
0
0
0
0
0
0
0
0
0
0
0
0
0
0
0
0
0
0
0
0
0
0
0
0
0
0
0
0
0
0
0
0
0
0
0
0
0
0
0
0
0
0
0
0
0
0
0
0
0
0
0
0
0
0
0
0
0
0
0
0
0
0
0
0
0
0
0
0
0
0
0
0
0
0
0
0
0
0
0
0
0
0
0
0
0
0
0
0
0
0
0
0
0
0
0
0
0
0
0
0
0
0
0
0
0
0
0
0
0
0
0
0
0
0
0
0
0
0
0
0
0
0
0
0
0
0
0
0
0
0
0
0
0
0
0
0
0
0
0
0
0
0
0
0
0
0
0
0
0
0
0
0
0
0
0
0
0
0
0
0
0
0
0
0
0
0
0
0
0
0
0
0
0
0
0
0
0
0
0
0
0
0
0
0
0
0
0
0
0
0
0
0
0
0
0
0
0
0
0
0
0
0
0
0
0
0
0
0
0
0
0
0
0
0
0
0
0
0
0
0
0
0
0
0
0
0
0
0
0
0
0
0
0
0
0
0
0
0
0
0
0
0
0
0
0
0
0
0
0
0
0
0
0
0
0
0
0
0
0
0
0
0
0
0
0
0
0
0
0
0
0
0
0
0
0
0
0
0
0
0
0
0
0
0
0
0
0
0
0
0
0
0
0
0
0
0
0
0
0
0
0
0
0
0
0
0
0
0
0
0
0
0
0
0
0
0
0
0
0
0
0
0
0
0
0
0
0
0
0
0
0
0
0
0
0
0
0
0
0
0
0
0
0
0
0
0
0
0
0
0
0
0
0
0
0
0
0
0
0
0
0
0
0
0
0
0
0
0
0
0
0
0
0
0
0
0
0
0
0
0
0
0
0
0
0
0
0
0
0
0
0
0
0
0
0
0
0
0
0
0
0
0
0
0
0
0
0
0
0
0
0
0
0
0
0
0
0
0
0
0
0
0
0
0
0
0
0
0
0
0
0
0
0
0
0
0
0
0
0
0
0
0
0
0
0
0
0
0
0
0
0
0
0
0
0
0
0
0
0
0
0
0
0
0
0
0
0
0
0
0
0
0
0
0
0
0
0
0
0
0
0
0
0
0
0
0
0
0
0
0
0
0
0
0
0
0
0
0
0
0
0
0
0
0
0
0
0
0
0
0
0
0
0
0
0
0
0
0
0
0
0
0
0
0
0
0
0
0
0
0
0
0
0
0
0
0
0
0
0
0
0
0
0
0
0
0
0
0
0
0
0
0
0
0
0
0
0
0
0
0
0
0
0
0
0
0
0
0
0
0
0
0
0
0
0
0
0
0
0
0
0
0
0
0
0
0
0
0
0
0
0
0
0
0
0
0
0
0
0
0
0
0
0
0
0
0
0
0
0
0
0
0
0
0
0
0
0
0
0
0
0
0
0
0
0
0
0
0
0
0
0
0
0
0
0
0
0
0
0
0
0
0
0
0
0
0
0
0
0
0
0
0
0
0
0
0
0
0
0
0
0
0
0
0
0
0
0
0
0
0
0
0
0
0
0
0
0
0
0
0
0
0
0
0
0
0
0
0
0
0
0
0
0
0
0
0
0
0
0
0
0
0
0
0
0
0
0
0
0
0
0
0
0
0
0
0
0
0
0
0
0
0
0
0
0
0
0
0
0
0
0
0
0
0
0
0
0
0
0
0
0
0
0
0
0
0
0
0
0
0
0
0
0
0
0
0
0
0
0
0
0
0
0
0
0
0
0
0
0
0
0
0
0
0
0
0
0
0
0
0
0
0
0
0
0
0
0
0
0
0
0
0
0
0
0
0
0
0
0
0
0
0
0
0
0
0
0
0
0
0
0
0
0
0
0
0
0
0
0
0
0
0
0
0
0
0
0
0
0
0
0
0
0
0
0
0
0
0
0
0
0
0
0
0
0
0
0
0
0
0
0
0
0
0
0
0
0
0
0
0
0
0
0
0
0
0
0
0
0
0
0
0
0
0
0
0
0
0
0
0
0
0
0
0
0
0
0
0
0
0
0
0
0
0
0
0
0
0
0
0
0
0
0
0
0
0
0
0
0
0
0
0
0
0
0
0
0
0
0
0
0
0
0
0
0
0
0
0
0
0
0
0
0
0
0
0
0
0
0
0
0
0
0
0
0
0
0
0
0
0
0
0
0
0
0
0
0
0
0
0
0
0
0
0
0
0
0
0
0
0
0
0
0
0
0
0
0
0
0
0
0
0
0
0
0
0
0
0
0
0
0
0
0
0
0
0
0
0
0
0
0
0
0
0
0
0
0
0
0
0
0
0
0
0
0
0
0
0
0
0
0
0
0
0
0
0
0
0
0
0
0
0
0
0
0
0
0
0
0
0
0
0
0
0
0
0
0
0
0
0
0
0
0
0
0
0
0
0
0
0
0
0
0
0
0
0
0
0
0
0
0
0
0
0
0
0
0
0
0
0
0
0
0
0
0
0
0
0
0
0
0
0
0
0
0
0
0
0
0
0
0
0
0
0
0
0
0
2.33923e-18
-8.25002e-18
3.34738e-25
-2.47471e-17
-1.23711e-17
-1.65079e-17
0
0
0
0
0
0
0
0
0
0
0
0
0
0
0
0
0
0
0
0
0
0
0
0
0
0
0
0
0
0
0
0
0
0
0
0
0
0
-4.11529e-18
-1.29558e-34
6.00297e-19
-9.5379e-26
-2.06037e-17
1.64978e-17
2.29999e-18
-2.47471e-17
4.12392e-18
-2.47544e-17
1.19388e-18
2.61523e-25
4.12106e-17
-2.98721e-34
1.76793e-18
-2.4734e-17
-5.9783e-18
4.12233e-17
0
0
0
0
0
0
0
0
0
0
0
0
0
0
0
0
0
0
0
0
0
0
0
0
0
0
0
0
0
0
0
0
0
0
0
0
0
-6.85564e-19
3.55104e-18
-2.60582e-17
2.89654e-20
4.93147e-17
1.64234e-17
-3.29429e-17
1.08164e-35
1.17644e-18
-1.23623e-17
-1.50189e-33
6.06831e-19
-1.66751e-25
-2.05551e-17
0
-7.00581e-17
6.89455e-21
3.29685e-17
1.8416e-35
-5.76438e-19
-2.4734e-17
-5.9783e-18
2.47349e-17
3.7198e-20
-2.62399e-24
2.46706e-17
-2.30255e-34
5.41332e-21
3.28913e-17
0
0
0
0
0
0
0
0
0
0
0
0
0
0
0
0
0
0
0
0
0
0
0
0
0
0
0
0
0
0
0
0
0
0
0
-1.29435e-17
-2.46682e-17
-1.64207e-17
-4.15776e-18
-4.21353e-20
-1.93981e-34
-7.42242e-20
-4.44896e-20
-2.87939e-17
-9.47159e-18
2.27292e-18
1.6221e-17
1.49449e-34
-1.98292e-19
-1.22922e-17
2.21555e-18
1.6391e-17
-8.87105e-35
-6.50303e-20
4.11526e-18
0
-3.52751e-19
-7.16776e-24
-7.16414e-18
1.22745e-17
-9.20862e-18
1.2292e-17
0
0
-1.71292e-18
3.51978e-18
-1.68288e-17
-1.04924e-20
-2.47152e-17
-8.1876e-18
4.93147e-17
7.4396e-20
3.28941e-17
1.87275e-34
8.22819e-18
6.58158e-17
0
3.33575e-24
-1.84268e-17
2.04511e-18
-1.84145e-17
4.10516e-18
0
8.21287e-18
-2.12058e-18
8.27922e-18
-8.20933e-18
1.0268e-17
-8.26729e-18
1.03756e-17
-2.06089e-18
0
0
0
0
0
0
0
0
0
0
0
0
0
0
0
0
0
0
0
0
0
0
0
0
0
0
0
0
0
0
0
0
0
1.13525e-17
-2.06392e-17
1.64762e-17
-1.23689e-17
-8.35028e-18
6.49394e-35
3.5506e-18
-2.46409e-17
-2.24269e-18
3.27814e-17
2.43234e-34
-8.35861e-18
-1.23881e-17
0
3.31097e-17
-8.44226e-36
1.75861e-11
4.73454e-12
1.75906e-09
-7.07469e-14
2.59894e-13
-1.38003e-08
-2.0137e-13
-1.39675e-08
1.22638e-10
-7.47341e-19
1.44422e-19
-4.72135e-19
-1.45056e-19
4.17209e-18
-1.59864e-17
-1.04819e-18
-9.90118e-18
-1.90578e-18
-3.08461e-34
3.9697e-16
-8.1641e-13
-1.36535e-08
1.08963e-14
-2.75556e-08
-5.76962e-19
-1.00108e-18
-2.24154e-17
-4.08464e-18
-2.85866e-17
0
3.19507e-19
-9.2174e-18
4.09478e-18
-1.32974e-17
8.18608e-18
-6.7036e-19
-6.85217e-20
0
4.27358e-19
-7.14109e-18
8.23364e-32
-6.90683e-19
-1.91813e-23
7.12948e-18
0
-3.20561e-22
7.14363e-16
-7.99767e-19
8.15398e-18
0
0
3.36676e-17
-4.15789e-18
-8.31672e-18
1.42583e-20
-1.64207e-17
0
-1.18033e-18
-1.07571e-18
-4.09545e-18
5.91608e-18
2.21545e-18
6.7153e-34
0
-1.3434e-22
-1.23018e-17
2.36225e-18
8.17877e-18
6.8103e-20
-1.12582e-17
4.09084e-18
-7.16298e-18
4.09976e-18
0
8.2061e-18
-4.17305e-18
1.23832e-17
-8.20431e-18
1.23108e-17
-1.03294e-17
1.03555e-17
-4.10737e-18
-1.01548e-18
-6.84236e-20
1.16551e-18
-7.13043e-18
0
-6.81686e-20
7.1424e-26
7.13355e-18
7.93795e-26
-5.0955e-18
0
-1.41277e-21
1.15963e-18
0
0
-1.63012e-17
1.35673e-19
1.10327e-18
-8.16408e-13
0
-1.1545e-10
1.21861e-17
8.33643e-19
-1.36182e-19
-1.42419e-17
-6.768e-20
1.10281e-18
8.21165e-18
-3.09047e-17
8.15558e-18
0
0
0
0
0
0
0
0
0
0
0
0
0
0
0
0
0
0
0
0
0
0
0
0
0
0
0
0
0
0
0
-4.58888e-18
-1.43409e-20
8.2053e-18
-8.35916e-18
8.31999e-18
2.07384e-35
1.03955e-18
1.24197e-17
-1.15559e-17
3.29552e-17
2.91962e-35
8.08855e-20
-4.09796e-18
-9.53363e-18
1.64319e-17
-9.13863e-26
-3.96137e-09
2.93911e-12
-1.23786e-08
-6.82837e-11
-1.35777e-08
-8.66098e-09
4.03112e-18
-1.64895e-17
-1.29379e-12
9.92355e-11
3.17557e-27
3.86006e-09
-3.22803e-10
-1.24558e-09
1.15143e-10
-3.97128e-10
8.43823e-09
1.19174e-12
6.17426e-10
1.05228e-12
-2.02247e-10
-5.83276e-20
1.56473e-19
7.94929e-19
8.32737e-13
1.33469e-19
1.90498e-13
1.21108e-13
-2.73586e-16
1.01225e-34
1.47024e-08
3.94716e-16
1.11741e-19
-4.40865e-13
-1.64293e-17
2.84204e-34
7.76268e-11
4.07946e-18
0
-1.78968e-09
-1.35535e-08
-6.66991e-20
4.07989e-19
8.2734e-18
0
-5.14469e-19
6.40249e-20
-8.9343e-18
1.08997e-18
-3.40001e-18
-5.19327e-19
5.58399e-20
1.48774e-19
-1.2318e-17
1.00675e-18
1.94928e-17
-4.23352e-19
-1.43384e-17
5.96652e-20
4.35421e-13
-5.87821e-12
-1.08856e-12
-3.88615e-11
-9.65491e-35
-1.62519e-08
1.72007e-09
-5.77213e-20
-1.63985e-17
3.61214e-35
1.33478e-17
0
-4.42209e-19
-1.16349e-18
-3.99996e-18
8.24528e-19
9.55709e-18
-3.4447e-18
-5.76989e-20
-8.18984e-18
1.53906e-17
-5.60277e-19
-6.85218e-20
0
8.56594e-19
-9.18666e-18
6.82728e-20
-6.15504e-19
5.09019e-18
0
7.06207e-16
-4.52882e-19
1.63433e-17
1.85754e-09
-1.37366e-19
0
-1.75043e-09
-2.1088e-11
6.77118e-20
-9.79705e-14
-4.28151e-22
2.60668e-13
0
-2.26637e-21
-1.36874e-08
-6.53145e-14
1.36152e-14
0
0
1.13525e-17
-1.24377e-17
8.2113e-18
4.16287e-18
8.18119e-18
-3.86312e-34
-3.41061e-18
-1.11747e-18
-8.30609e-18
2.42943e-18
-9.05352e-20
0
4.60753e-34
-4.14159e-18
0
0
-9.3398e-17
-1.51866e-08
3.26567e-12
-1.46468e-08
6.12255e-18
2.71402e-15
2.02738e-18
-5.76893e-19
8.08393e-18
-1.03266e-17
4.08452e-18
-2.24567e-17
0
1.67366e-12
1.2134e-10
-5.98578e-14
1.0627e-12
-1.4384e-08
1.04987e-17
4.26414e-15
1.91298e-09
-8.57479e-22
-1.94784e-18
1.016e-18
-2.72528e-20
-3.49767e-17
5.12519e-18
-3.29648e-17
-3.26627e-18
-8.30309e-19
-6.84239e-20
1.18328e-18
-2.14447e-17
-6.81507e-20
-6.8172e-20
1.01907e-18
-1.22288e-17
-4.91843e-37
2.04485e-18
8.33801e-19
-1.36375e-19
0
-2.03858e-17
-1.35673e-19
1.22807e-18
-4.46292e-13
0
-1.39401e-08
1.42487e-17
1.08317e-18
-6.80901e-20
-2.3446e-17
0
1.19833e-18
2.04252e-18
-1.43119e-17
-8.81383e-34
-5.45639e-19
1.37322e-19
2.38333e-18
-2.25021e-17
0
-2.48108e-19
1.84159e-24
8.41844e-22
8.5069e-24
-4.05605e-17
-8.36887e-20
2.0445e-18
-6.81804e-20
0
1.36441e-08
1.31988e-13
6.81593e-20
-7.99344e-18
3.01246e-18
0
0
0
0
0
0
0
0
0
0
0
0
0
0
0
0
0
0
0
0
0
0
0
0
0
0
0
0
0
1.4078e-17
-2.0657e-17
1.92892e-20
4.10692e-18
3.90385e-20
7.36623e-34
2.05227e-18
-1.63927e-17
-1.85978e-17
1.63486e-17
1.13077e-33
-4.90069e-18
1.65326e-17
-4.90221e-18
1.6202e-17
3.25985e-26
3.78336e-09
-1.32757e-10
1.39698e-08
3.39162e-09
1.39739e-08
8.27178e-09
-7.69927e-13
2.58345e-10
6.80352e-13
-6.77469e-09
9.93166e-27
-5.60164e-11
3.50184e-09
-1.40295e-08
3.43982e-09
-1.39024e-08
-1.18969e-10
-3.36772e-13
-7.01356e-09
-6.2932e-13
-6.87393e-09
-6.19854e-20
-5.2795e-12
1.08854e-12
-1.69034e-08
9.20159e-35
1.71869e-09
-1.92667e-19
4.31201e-09
-2.63655e-17
-1.27167e-26
1.53191e-12
1.82361e-17
0
2.9828e-18
-4.2024e-18
-5.56688e-19
1.07789e-17
6.41459e-20
-1.62717e-12
-1.01341e-17
-8.62299e-09
2.93595e-17
0
5.87821e-12
-4.08408e-09
-8.32055e-18
1.68008e-08
-1.26177e-26
-1.52571e-12
1.40317e-15
6.59129e-20
-2.08276e-17
1.19639e-26
1.03669e-17
1.29787e-19
1.26227e-18
1.52511e-12
-7.37743e-18
-6.06276e-18
8.16694e-09
-5.5401e-18
-6.58492e-20
-1.24965e-17
1.65676e-17
0
-3.80995e-13
3.30328e-25
2.36052e-18
6.6543e-17
6.63539e-35
-1.0935e-34
-2.32614e-09
0
-5.4427e-14
3.89851e-34
7.36105e-09
1.21139e-33
-4.46973e-20
2.64564e-34
6.88028e-19
9.68352e-19
-1.70044e-18
2.3257e-20
4.08612e-19
-1.62301e-19
-4.53583e-25
-7.79524e-19
-5.31751e-19
1.07051e-18
1.16444e-35
-2.29848e-16
-3.02641e-20
3.91684e-34
3.56922e-34
-1.15946e-19
6.59072e-19
1.04639e-18
1.9418e-18
0
-6.84048e-11
2.06041e-19
0
-1.80881e-09
1.38134e-08
6.77097e-20
-5.72638e-19
-1.14758e-14
0
1.36999e-08
-2.72148e-14
1.29274e-13
1.02216e-09
0
-6.57872e-34
-1.15016e-09
-3.55874e-20
9.79703e-14
2.36744e-21
-3.08499e-34
4.082e-21
6.53132e-14
0
0
-4.78198e-18
-8.31857e-18
1.20875e-32
8.21903e-18
8.23354e-18
-1.19463e-35
-7.0879e-18
3.2563e-19
-4.07831e-18
1.14771e-17
-9.69835e-18
4.93368e-17
-1.04383e-35
-4.05774e-18
3.28999e-17
-1.39255e-26
3.96132e-09
3.86011e-09
-3.26449e-10
-1.53977e-08
1.17994e-10
-1.43496e-08
8.66107e-09
8.43823e-09
1.23597e-12
6.17406e-10
1.05e-12
-2.02267e-10
4.00727e-25
1.00692e-12
-2.72301e-08
-6.80938e-11
-1.35778e-08
3.0232e-18
-1.23671e-17
-1.29833e-12
9.91947e-11
-5.96748e-20
-7.12575e-20
5.83738e-12
3.80991e-13
1.95298e-16
0
1.62516e-08
1.35099e-08
-5.77277e-20
-1.46553e-18
-1.43646e-17
0
1.01353e-16
1.22483e-17
-5.96298e-20
-2.84181e-19
-5.9341e-19
-3.17346e-20
-4.16407e-19
4.08533e-18
-5.20642e-18
5.76922e-20
-5.77702e-19
-6.13788e-18
7.8845e-19
1.94396e-17
5.83311e-20
1.43613e-18
5.57886e-13
8.32731e-13
6.67335e-20
-1.25184e-13
-2.0546e-13
-2.01544e-17
0
1.47024e-08
2.9988e-09
-5.58729e-20
-2.04453e-17
0
1.73817e-17
0
2.10803e-10
-2.8294e-08
5.83208e-20
4.85215e-19
-3.3232e-19
2.11626e-19
-6.66992e-20
2.53162e-19
4.13119e-18
-4.36771e-19
3.77165e-18
-3.39991e-18
-5.58397e-20
-8.20675e-18
9.14314e-18
-3.70437e-19
-2.67103e-17
-1.15024e-18
6.86603e-20
2.8292e-18
-2.86344e-17
-1.72519e-33
-1.35079e-19
2.02766e-18
-2.23124e-17
1.93097e-19
9.35074e-22
-6.81787e-20
0
-1.37362e-08
-3.38811e-13
6.81603e-20
-2.41343e-17
3.02097e-18
3.56898e-19
3.75617e-20
4.59103e-19
3.55672e-20
-8.81267e-20
4.61037e-24
-2.58112e-23
4.61683e-20
1.18419e-24
-1.41134e-34
4.05896e-20
0
0
0
0
0
0
0
0
0
0
0
0
0
0
0
0
0
0
0
0
0
0
0
0
0
0
0
0
-6.18781e-17
-6.82513e-34
-7.17265e-18
8.28058e-18
-2.31899e-17
8.15146e-18
-3.09762e-33
-6.90667e-18
-4.07519e-18
1.40721e-17
2.47148e-17
4.0574e-25
4.85253e-18
-3.24889e-09
-2.32786e-17
-7.11014e-09
5.11592e-34
1.16729e-17
-2.056e-17
-2.4136e-17
4.11208e-17
-6.31184e-20
2.06826e-12
1.35696e-17
2.18827e-10
0
1.40666e-15
2.51256e-24
-4.14011e-09
2.0477e-17
0
-2.07506e-12
-8.20069e-18
-1.26131e-19
6.22651e-19
3.09304e-18
6.51086e-18
-1.83887e-17
6.3978e-20
1.39471e-12
1.36391e-20
8.27756e-09
-1.53701e-17
-6.52667e-20
2.77582e-12
8.83415e-11
-2.12267e-12
3.80247e-10
0
-3.78097e-10
-1.40315e-08
-6.49357e-20
2.0495e-17
0
-7.13599e-18
6.51884e-20
2.0403e-18
-4.62639e-13
8.23632e-18
-2.35726e-18
-1.87429e-10
-2.25866e-17
6.48736e-20
1.02429e-17
-1.53452e-17
0
-2.72137e-13
-3.71742e-11
1.11953e-34
-3.93299e-20
-2.72136e-13
3.17395e-34
8.9214e-11
-3.4818e-20
7.11675e-19
-1.47022e-18
3.93519e-20
8.63595e-19
-2.28595e-18
-1.24362e-19
4.45372e-18
-1.01505e-18
-3.61239e-18
6.01153e-16
1.04119e-34
-1.862e-16
-3.23059e-15
5.06827e-20
4.59426e-34
-6.21842e-20
-1.16788e-19
5.72533e-19
-1.13574e-18
-5.52428e-18
1.14505e-18
3.16875e-17
5.06885e-20
-6.94131e-11
3.75905e-20
-4.45039e-34
-9.98676e-10
0
5.85098e-14
-2.03613e-34
2.72138e-14
0
0
-2.32363e-17
4.11655e-18
8.2695e-18
1.23401e-17
-1.6513e-17
7.59739e-35
-2.05227e-18
-9.56041e-18
7.5837e-20
1.4009e-17
5.64085e-32
3.28621e-17
5.17276e-34
-8.12949e-18
3.28306e-17
-4.40771e-27
-3.78354e-09
1.31397e-17
4.75563e-12
1.40298e-08
3.43301e-09
1.39036e-08
-8.27197e-09
-1.63319e-17
4.12645e-18
-1.23722e-17
-5.98699e-13
-6.87407e-09
-3.25985e-26
-1.32597e-10
1.39698e-08
3.39181e-09
1.3974e-08
-7.7332e-13
2.58315e-10
6.8035e-13
-6.77469e-09
6.49621e-20
7.51105e-12
-4.08401e-09
-8.32093e-18
1.70707e-08
0
-1.52571e-12
1.40778e-15
6.59116e-20
-4.31185e-09
-2.29409e-17
0
-1.48542e-12
4.26133e-18
0
1.32178e-18
1.52511e-12
-7.56531e-18
-8.81983e-18
8.16694e-09
-1.29278e-18
0
1.58068e-12
-8.39421e-18
8.62299e-09
1.66786e-17
-1.23971e-19
-5.49721e-12
-3.80994e-13
-1.69034e-08
0
1.35509e-08
6.4228e-20
-1.23251e-17
0
9.18445e-18
5.66183e-34
1.85671e-18
1.87885e-18
-6.31556e-19
-1.09692e-17
-6.41464e-20
-6.12281e-18
1.93051e-17
0
-5.44283e-14
-1.78251e-12
8.33446e-09
0
-8.90305e-09
-3.02465e-20
1.25183e-13
0
-6.58826e-09
2.46123e-33
7.78316e-20
8.91086e-21
-5.67061e-19
9.71099e-19
0
-4.08636e-19
1.7127e-18
-4.98407e-20
-1.15659e-13
3.30329e-25
3.73561e-18
6.59256e-17
0
-2.49466e-34
-1.20392e-09
2.32354e-20
0
-4.98212e-20
-1.04557e-19
2.67045e-34
2.45113e-19
-3.17724e-18
7.28958e-19
0
-6.7413e-19
0
1.10293e-18
3.55689e-20
1.03466e-20
4.74335e-20
0
-3.24468e-34
0
0
0
0
0
0
0
0
0
0
0
0
0
0
0
0
0
0
0
0
0
0
0
0
0
0
0
0
-2.44533e-18
0
1.8375e-17
1.65061e-17
3.29808e-17
6.55652e-22
1.64948e-17
2.43609e-33
2.39898e-18
-4.14829e-18
-8.73488e-18
2.45225e-17
1.72386e-33
-8.2607e-18
3.29286e-17
0
2.35056e-18
8.70849e-13
3.94699e-10
-1.24052e-17
1.55215e-17
6.92647e-16
6.10116e-18
9.5721e-19
2.46968e-18
-1.30055e-17
-1.44209e-17
6.12758e-18
-1.83467e-17
2.77647e-20
0
-9.92938e-19
-2.98715e-18
1.44629e-17
-7.0938e-18
1.64401e-17
-1.16459e-17
-9.21204e-18
-6.21551e-18
-1.74377e-17
0
5.98463e-20
1.76535e-19
6.99963e-18
2.75142e-18
0
-3.38492e-17
0
-5.97636e-18
1.42026e-17
0
5.18505e-18
-1.21336e-17
0
1.1965e-18
-1.0133e-18
1.15498e-18
-1.09794e-17
6.3118e-20
-5.71553e-19
1.96158e-18
6.07455e-18
-1.93639e-17
-6.60931e-20
7.47916e-18
6.67026e-18
-4.57342e-18
0
6.64448e-16
-7.54564e-34
4.00034e-18
0
-3.00028e-18
5.88435e-34
-1.51997e-18
-4.23883e-18
-6.88084e-18
-1.72581e-17
6.58774e-20
6.10892e-18
-9.07587e-18
6.9204e-32
9.48116e-19
3.60239e-35
1.90767e-16
-5.52028e-34
-1.3569e-18
-2.78874e-18
0
0
0
-6.1891e-17
1.32294e-33
9.73549e-20
-2.19523e-18
4.14713e-18
9.03944e-18
1.87196e-17
1.65408e-17
8.13511e-34
8.5984e-20
3.29083e-17
-6.19082e-36
-1.63585e-19
1.18309e-17
-2.05599e-17
1.42295e-17
-2.35041e-17
7.98098e-18
3.33533e-35
1.34192e-17
2.04324e-18
-6.52658e-20
-2.77582e-12
5.40877e-12
2.12269e-12
-3.80246e-10
0
3.78558e-10
1.40315e-08
-1.48189e-24
4.14003e-09
1.84379e-17
0
2.08867e-12
-1.63747e-17
-6.51883e-20
2.46876e-18
-2.32126e-18
6.19545e-18
-5.73086e-18
6.16685e-18
-1.53539e-17
0
-1.39471e-12
6.14614e-18
-8.27733e-09
-2.15261e-17
-6.31166e-20
2.23154e-12
1.34497e-17
2.19242e-10
0
1.40567e-15
0
2.2535e-17
0
-1.02682e-17
-6.30647e-20
-2.60133e-18
9.22826e-18
4.59553e-18
-2.23752e-17
-6.39758e-20
8.19145e-18
-1.43593e-17
0
5.59041e-18
-4.78268e-19
-8.1186e-18
5.98495e-16
0
-1.82257e-16
-3.95073e-15
0
2.72136e-13
0
-8.9214e-11
0
1.17099e-18
1.12877e-18
2.19782e-18
-7.51498e-18
2.26869e-18
2.73598e-17
-1.01377e-19
-8.63595e-19
2.28595e-18
0
-2.72137e-13
-3.71742e-11
0
0
0
3.12377e-33
1.062e-18
-1.80383e-18
3.93517e-20
0
0
0
0
0
0
0
0
0
0
0
0
0
0
0
0
0
0
0
0
0
0
0
0
0
0
1.24166e-17
-4.38258e-33
-9.4837e-18
-1.36847e-17
-4.06274e-18
-1.33913e-17
1.41191e-17
4.1232e-17
-6.19525e-33
1.65696e-17
4.11753e-18
0
2.47564e-17
-3.38093e-25
-2.3269e-18
-3.47514e-09
2.78944e-13
-4.67229e-12
-3.53246e-09
-4.65459e-18
-2.78941e-13
6.95028e-09
7.04442e-09
-6.97357e-13
-1.62244e-33
-4.25483e-18
8.00156e-18
1.74336e-19
-6.34304e-20
0
-4.10724e-18
1.23386e-17
6.05929e-20
1.31828e-18
-1.79612e-12
-5.98711e-13
0
-1.56974e-08
-1.40066e-08
2.34916e-18
-4.14422e-18
1.45272e-18
-7.63859e-35
-8.86462e-18
8.2732e-18
0
1.24009e-18
1.46399e-20
-6.08407e-18
-8.17534e-18
1.31908e-17
2.41246e-18
4.09213e-18
1.30244e-17
-6.41629e-20
0
-1.83477e-18
6.41666e-20
1.38966e-17
7.81039e-12
2.23156e-12
0
5.86337e-10
1.37886e-08
8.23594e-18
1.93639e-17
-1.28228e-19
-1.01833e-17
-6.40884e-20
3.59635e-18
-6.25615e-19
-2.02188e-18
6.09316e-18
-1.53997e-17
2.03692e-18
4.02749e-32
1.85004e-18
-8.03769e-19
0
0
-1.25777e-18
0
8.37541e-19
-2.5244e-20
-4.25108e-19
-6.74143e-19
-3.7346e-20
-1.26416e-18
2.31773e-18
3.1986e-24
7.07568e-13
-2.17719e-13
-1.43381e-08
0
-2.90185e-08
4.94919e-20
0
2.11824e-33
-2.9645e-19
-7.87971e-18
-5.967e-18
2.5227e-17
9.89989e-20
0
0
0
0
2.38257e-18
4.76513e-18
1.86354e-17
8.29688e-18
5.78847e-17
-4.1345e-18
2.47755e-17
-1.55717e-33
-2.25585e-18
1.24044e-17
1.83298e-17
2.46962e-17
-1.57787e-33
-2.05209e-17
4.11868e-17
0
-2.11031e-18
-2.50867e-18
-1.02243e-17
9.25312e-18
-9.18873e-18
8.24026e-18
0
-2.81571e-17
-1.53462e-17
9.31571e-18
-1.32816e-17
2.06593e-18
0
2.27237e-12
1.62992e-08
-5.12535e-18
3.80996e-12
-7.74705e-11
1.98463e-18
1.11828e-18
-1.71772e-17
-5.0867e-18
4.07776e-18
-9.12721e-18
6.15922e-18
6.60922e-20
5.80972e-18
-3.80994e-12
-5.76856e-18
0
-1.0402e-09
1.31808e-19
4.57283e-18
1.62432e-17
0
-2.73529e-18
-3.02944e-18
-1.3211e-19
2.94536e-18
-3.80464e-20
-5.48217e-18
-4.50358e-18
-6.58839e-20
1.71484e-18
-2.04196e-18
-5.69079e-18
-1.21639e-17
-2.21736e-31
-2.79147e-18
2.95097e-18
3.19049e-18
0
-6.81334e-16
6.31437e-20
1.01936e-17
0
-1.96124e-18
-1.19654e-19
-4.48994e-19
8.10536e-18
3.78889e-18
4.17972e-18
-1.26238e-19
7.93153e-18
-7.20829e-18
1.66871e-31
8.71657e-19
0
3.11961e-16
-2.95458e-34
-7.91595e-19
-7.53786e-19
0
0
0
0
0
0
0
0
0
0
0
0
0
0
0
0
0
0
0
0
0
0
0
0
-4.31659e-18
0
2.33718e-17
-1.64784e-17
2.48013e-17
1.22847e-17
1.64307e-17
1.25397e-24
-3.95335e-09
3.77092e-09
-3.39477e-09
-4.52474e-13
3.71912e-09
2.46054e-12
-8.62573e-09
8.24648e-09
4.52436e-13
6.78991e-09
-2.46059e-12
-7.43895e-09
-3.94853e-24
-3.33929e-09
-7.28611e-09
6.51479e-20
-1.51369e-10
-2.23153e-12
-1.10556e-12
9.20435e-26
1.38769e-08
6.64e-20
1.97201e-25
-1.70993e-08
-3.7059e-10
6.47691e-12
-6.4769e-12
0
6.97351e-13
6.16032e-18
3.01636e-10
-1.84782e-17
-1.32563e-19
1.04011e-17
-3.68674e-17
1.0082e-19
6.18383e-18
2.58647e-26
1.70667e-08
4.13652e-12
-3.33143e-09
6.5193e-13
3.13567e-18
3.54392e-15
-1.61022e-17
1.36833e-18
-6.49734e-13
6.66283e-09
-2.12424e-18
-2.47908e-17
1.06421e-08
4.74858e-20
0
1.15413e-09
5.86259e-20
-1.08852e-13
1.49675e-13
0
-1.67038e-08
3.2657e-13
5.45507e-18
0
4.31068e-18
-1.38e-33
-8.0405e-22
-1.41732e-18
4.19803e-18
4.84915e-19
-1.59488e-08
0
0
1.49544e-08
6.18177e-20
-1.14298e-12
-1.83695e-12
-4.35424e-13
0
-1.6356e-08
2.21244e-09
-1.76893e-13
1.58686e-17
-1.26013e-19
8.96509e-18
6.1789e-20
2.37337e-18
-2.23623e-18
-9.05327e-19
1.82939e-17
9.91547e-19
-4.45528e-18
1.77922e-24
0
-4.91905e-34
0
0
0
0
0
1.24167e-17
4.90474e-33
2.37885e-19
-7.00409e-18
-1.24022e-17
1.35501e-17
0
2.47566e-17
1.42625e-33
-1.99164e-18
-4.15855e-17
1.39018e-17
2.46787e-17
6.83205e-34
-2.32895e-18
-1.64645e-17
8.83189e-18
1.66232e-17
6.17864e-25
-3.49094e-09
1.02278e-12
-1.61554e-11
-3.66645e-09
-1.02279e-12
6.98291e-09
7.26325e-09
-2.04558e-12
7.65397e-18
6.41634e-20
0
6.67296e-18
-2.12579e-18
-1.95203e-24
6.65208e-18
-1.78954e-11
-5.44277e-12
0
-1.69422e-08
7.45185e-11
-9.65925e-18
2.21541e-19
1.21464e-17
6.41164e-20
9.48118e-18
-1.19656e-18
0
4.81148e-18
-1.83589e-18
2.06753e-18
0
-8.17828e-18
-3.65068e-18
-6.19881e-18
1.68717e-18
9.00451e-34
0
1.33701e-17
0
-1.54609e-19
4.89851e-12
1.36069e-12
0
3.15045e-08
4.10419e-10
-1.64558e-17
-1.37552e-18
0
1.95395e-17
0
-1.12477e-18
5.93875e-19
3.08055e-18
-1.51609e-17
2.02059e-17
-6.18214e-18
-6.38881e-20
5.44282e-13
-2.27238e-12
1.25526e-09
0
-1.62685e-08
0
-3.26566e-13
0
-1.14145e-08
6.38893e-20
-1.94503e-19
-2.29634e-18
-4.42176e-18
2.28502e-17
-4.94989e-20
4.19616e-19
-2.53976e-18
2.52189e-20
1.99635e-18
-8.03747e-19
0
-3.73188e-20
0
0
1.39071e-18
-1.48218e-18
3.73371e-20
0
0
0
0
0
0
0
0
0
0
0
0
0
0
0
0
0
0
0
0
-1.41171e-17
2.61859e-22
8.3617e-18
-8.34299e-18
8.21783e-18
1.09129e-33
1.16464e-17
-1.17455e-17
-1.86671e-21
-1.36659e-17
0
1.65271e-17
1.6593e-33
-1.02017e-19
-1.25513e-17
2.04324e-19
3.43953e-17
-1.2971e-19
-1.16451e-17
-4.02299e-09
1.24751e-17
-8.27036e-16
0
-8.25069e-13
2.82322e-15
-6.55678e-20
4.40876e-09
1.21533e-17
0
5.35888e-12
-1.42692e-17
6.4807e-20
-2.41995e-18
8.26623e-13
-1.19606e-19
1.70295e-17
8.04517e-09
-2.72725e-17
0
-4.27712e-12
1.9586e-18
-8.81236e-09
-2.02995e-17
0
5.52439e-18
-5.01923e-18
-4.07647e-18
-1.03904e-17
7.4543e-18
-8.15318e-18
-1.48219e-18
-1.0157e-17
3.05636e-18
0
1.46787e-17
8.15155e-18
-6.56558e-20
9.79689e-13
3.41126e-18
1.75104e-08
-1.39447e-33
4.0922e-17
6.73176e-20
-2.82107e-33
8.14296e-10
3.32011e-12
-1.32361e-33
-2.80077e-18
3.05116e-18
1.75359e-17
-6.64749e-18
6.72917e-20
-1.01952e-17
8.9932e-19
8.50539e-25
6.9209e-18
1.99803e-17
-7.30401e-17
0
2.82e-15
-4.09222e-31
-3.78986e-18
-4.1176e-18
0
-4.9983e-17
-4.01136e-18
6.53773e-20
-7.52098e-19
6.44587e-20
-7.71549e-18
-3.70184e-17
6.39044e-20
-1.00845e-18
4.1791e-18
2.33554e-18
-1.00661e-18
-2.56009e-09
-1.21641e-24
0
-2.95367e-20
-4.08196e-14
-2.9391e-12
0
-2.21554e-08
1.60459e-18
9.45671e-34
-2.95441e-20
7.25011e-19
-8.54203e-19
6.75641e-18
0
0
0
0
0
0
-1.3988e-17
0
-5.16693e-17
3.84098e-18
8.59941e-18
8.15634e-18
1.65624e-17
1.54697e-24
3.84467e-09
-6.59591e-11
8.3958e-09
-1.30182e-10
-1.9057e-24
-1.30156e-10
-3.51211e-09
-5.1393e-10
1.45591e-10
-6.73986e-10
-2.79289e-10
-4.29752e-13
7.05059e-09
-1.62036e-12
-3.31323e-10
-4.81586e-27
-1.64323e-08
4.24537e-12
-3.60816e-09
-1.53494e-08
-3.27927e-12
-1.49145e-08
1.37431e-12
7.1198e-10
-6.21641e-18
1.00241e-19
8.07351e-13
7.16382e-09
1.10324e-18
-3.71625e-18
1.15706e-18
-1.3786e-17
-6.5152e-20
-4.39932e-09
5.44279e-12
-3.99817e-12
1.1936e-25
-5.4496e-12
1.32809e-19
6.02905e-26
-1.36742e-08
4.24538e-12
6.50977e-20
2.04558e-12
6.1602e-18
8.79255e-09
-3.0759e-18
6.62756e-20
-4.91596e-18
8.28897e-18
1.59491e-08
-1.25979e-19
0
-1.42701e-08
-1.48781e-08
6.18128e-20
5.98712e-13
-7.40219e-12
4.3473e-18
0
-3.39614e-08
-5.98436e-17
4.89844e-13
2.5853e-13
1.60723e-18
0
-1.96946e-18
2.26457e-18
-6.17947e-20
4.74804e-18
-3.58475e-18
-2.01684e-18
2.3287e-18
-3.95175e-18
-5.27945e-18
1.10706e-18
-1.03492e-08
4.74852e-20
0
0
-1.08853e-13
1.67365e-12
0
4.31106e-09
7.48591e-18
4.74949e-20
0
-6.57434e-20
-3.99944e-19
6.03051e-18
-2.80012e-24
0
-3.61855e-34
0
0
0
0
0
0
0
0
0
0
0
0
0
0
0
0
0
-1.66355e-17
4.00316e-35
9.45223e-18
4.71914e-18
1.45607e-19
1.68408e-17
-1.15149e-34
-2.96273e-19
1.2768e-19
-9.45201e-18
2.50183e-17
8.48329e-25
3.80516e-09
-1.28586e-11
-1.60199e-08
1.74169e-12
-1.97301e-12
2.87344e-08
-1.28033e-10
1.41581e-08
-1.58037e-08
8.32433e-09
-1.63641e-19
-1.11546e-17
-1.16996e-18
-2.12651e-18
-2.56124e-18
8.37384e-18
1.07722e-12
2.73714e-10
-2.49649e-24
3.90536e-09
-3.87089e-09
-1.4571e-08
-1.48737e-10
-1.42866e-08
8.52201e-09
3.05817e-12
7.71086e-09
-4.00271e-13
3.08534e-10
1.88388e-24
-1.45122e-17
3.10239e-12
8.16413e-13
1.27533e-17
0
1.62559e-08
3.02415e-11
0
1.22827e-17
0
-1.01822e-17
8.25885e-34
-2.70256e-18
5.70683e-19
-3.06293e-18
1.69486e-17
-4.37218e-18
-5.01995e-24
0
6.18464e-18
-9.20487e-18
-6.99889e-18
-6.29142e-20
0
1.64982e-18
1.43113e-17
0
-8.80407e-18
1.08855e-12
0
-1.35268e-08
-3.38783e-18
-2.44307e-17
-9.59552e-18
6.28832e-20
-1.78758e-19
2.24391e-17
6.64501e-20
-1.12881e-18
-3.06807e-18
7.71631e-18
-8.88791e-20
-8.03471e-18
-4.8789e-20
-9.79703e-13
1.60512e-08
0
6.58771e-20
0
1.68417e-17
-1.11512e-17
-9.75796e-20
8.63771e-19
1.14558e-17
-1.27372e-33
3.2609e-17
-4.47644e-18
1.25426e-19
2.17716e-13
-1.29266e-12
9.05347e-10
0
-1.44551e-08
4.09234e-20
3.26559e-13
0
9.19845e-09
-6.27017e-20
-1.34054e-19
-5.49405e-18
-1.3434e-17
1.74075e-17
0
-3.17743e-19
8.03238e-18
0
0
0
0
0
0
-5.17096e-17
-8.34299e-18
-1.65624e-17
1.65551e-17
8.3617e-18
-5.28829e-34
-1.16467e-17
-9.2324e-18
-2.10511e-17
3.31781e-17
-8.25195e-32
1.62059e-17
5.93857e-35
2.68336e-18
1.54281e-21
0
-8.86502e-19
0
-4.22429e-09
-3.38927e-12
-7.1308e-18
6.31289e-22
4.13215e-18
8.1535e-18
-7.27635e-18
4.51424e-18
2.74294e-12
8.44548e-09
-7.13228e-18
0
-1.56976e-19
8.1516e-18
-8.67401e-18
-5.10398e-18
0
-8.59961e-12
1.4426e-10
6.14294e-18
-1.66559e-08
0
9.30691e-13
-8.25616e-17
-6.55679e-20
1.84318e-17
0
-1.73616e-17
-4.2434e-25
-6.38579e-18
-9.29808e-13
1.12509e-17
1.66838e-17
-2.87869e-10
-1.29942e-17
-6.54602e-20
1.03804e-17
-1.62582e-17
1.30932e-19
8.27303e-12
8.22083e-18
1.70226e-08
0
-1.08624e-16
6.39394e-20
2.13504e-19
4.19094e-12
0
-2.30365e-18
1.65018e-08
1.34638e-19
-1.30626e-12
-2.21793e-12
6.00427e-34
8.4768e-10
-1.49958e-08
-1.30749e-19
-1.25843e-18
-1.02098e-18
4.3094e-18
-1.49394e-17
6.38942e-20
0
1.22056e-18
-3.34042e-18
-6.89288e-18
6.72877e-20
1.63077e-18
-1.07904e-18
-5.51777e-18
4.20663e-19
-2.31175e-24
-1.48315e-12
2.87632e-34
-1.31294e-08
6.56356e-20
1.08816e-18
-4.08083e-18
7.22333e-09
3.05199e-25
0
-2.95316e-20
-5.44268e-14
5.30672e-13
0
-1.09284e-10
-2.56113e-09
-1.73848e-24
0
6.25919e-13
7.94876e-19
-2.31343e-18
0
0
0
0
0
0
0
0
0
0
0
0
0
0
-2.33266e-17
-1.21539e-18
-5.14707e-17
1.17748e-19
2.46619e-17
3.78482e-18
-1.72965e-19
2.77708e-25
1.408e-17
3.45864e-09
-1.93594e-17
7.54599e-09
5.32087e-34
-1.63828e-17
1.6225e-17
-5.25233e-20
1.79612e-12
1.40152e-12
-8.35229e-18
-1.302e-19
1.08852e-13
2.43565e-12
-1.15211e-10
0
-1.09616e-08
1.27829e-08
1.20913e-19
-4.1244e-09
-1.21148e-17
0
-1.016e-12
1.32209e-17
0
-1.58684e-08
1.63672e-08
1.30197e-19
2.04052e-18
-2.45955e-18
-5.25257e-20
1.16503e-18
6.07829e-19
-5.56603e-18
7.20453e-18
2.24281e-17
3.33894e-18
7.55311e-18
1.38173e-17
-1.20779e-19
1.02279e-12
-6.05724e-18
8.24831e-09
1.52265e-17
0
4.84409e-12
-4.27241e-09
5.9388e-18
6.15717e-10
0
-3.22311e-12
-6.22979e-17
-6.51939e-20
-2.13882e-18
0
5.69413e-22
4.81351e-26
2.19892e-18
3.22144e-12
3.22509e-18
-2.14586e-17
8.5433e-09
-5.38188e-18
0
4.3855e-18
-5.49951e-20
8.09406e-20
-4.99566e-18
9.11662e-13
6.85353e-18
0
6.90527e-09
6.24547e-20
-2.1533e-17
0
2.37281e-17
-4.04792e-20
-1.6e-18
-2.07186e-18
9.0445e-18
5.90628e-18
0
-8.60702e-18
3.23659e-17
4.12343e-20
0
-4.68729e-16
-5.39675e-18
-6.32146e-34
8.60832e-18
-2.11035e-18
4.23459e-26
0
1.13846e-34
-3.08862e-24
0
-5.16552e-34
0
0
0
0
0
0
0
-1.62867e-17
-1.04011e-34
-9.45223e-18
-9.44877e-18
-1.65508e-17
-1.45607e-19
-9.45201e-18
1.66789e-17
2.22189e-34
-3.70149e-18
1.68408e-17
5.52019e-25
4.78284e-18
3.90529e-09
-3.87051e-09
-1.45705e-08
6.06644e-12
-1.42874e-08
1.58801e-17
8.52201e-09
2.95611e-12
7.71078e-09
-2.22952e-18
-1.61924e-17
2.30109e-34
2.33811e-18
8.25219e-16
-2.04105e-13
2.17712e-12
1.34707e-08
9.49539e-12
1.41589e-08
1.58039e-08
1.23768e-18
-3.49953e-18
-2.19159e-18
2.35369e-18
3.96734e-19
7.18938e-18
-4.10872e-18
-8.28148e-18
-7.56129e-18
-6.29157e-20
0
4.21468e-18
2.61793e-18
6.66297e-20
-1.07224e-17
-7.38829e-18
0
6.63537e-16
-1.83633e-17
-1.30795e-18
-6.5203e-20
0
-1.13459e-17
-1.22245e-17
1.67871e-17
1.23119e-17
-1.04951e-17
-1.57697e-34
1.33502e-17
5.57442e-18
0
-3.72323e-18
4.39039e-18
4.10129e-18
-6.97751e-20
-1.77964e-19
6.51679e-20
-1.44576e-17
-3.01964e-18
4.55111e-18
8.22691e-18
-6.36732e-20
8.57896e-19
-3.10016e-18
0
-3.15505e-16
-2.93837e-15
-6.3651e-20
4.14606e-18
1.02484e-18
6.77824e-18
2.04223e-17
-6.27112e-20
3.8099e-13
-7.62e-13
9.0485e-10
0
-1.47122e-08
8.18242e-20
1.63282e-13
0
2.62614e-12
5.98695e-13
0
9.19553e-09
0
1.60518e-08
1.48034e-08
1.34168e-33
2.23964e-18
-3.21251e-18
-3.22454e-18
3.05152e-17
-4.09244e-20
-3.40111e-19
-1.31705e-19
1.4062e-18
-3.35586e-18
5.24459e-18
-1.18803e-18
1.23386e-17
0
0
-4.8792e-20
0
0
0
0
0
0
0
0
0
0
0
-2.10136e-17
2.47529e-34
-1.43061e-19
-4.63728e-18
-1.6803e-17
-5.73791e-19
3.62726e-17
7.71716e-18
-5.06486e-34
-2.40186e-17
-1.69116e-17
-1.85306e-17
4.20698e-17
0
2.81934e-17
1.85055e-12
3.37543e-10
-8.15987e-18
2.44926e-12
-1.42084e-08
1.23664e-17
-1.92995e-17
4.63207e-18
-9.36438e-18
-1.3295e-17
2.91296e-18
-1.74733e-17
4.06858e-18
0
-4.09332e-18
2.4552e-17
-5.36446e-24
7.83593e-25
1.63133e-18
-8.38241e-17
0
0
2.05759e-25
-1.63273e-13
0
1.43549e-08