/*--------------------------------*- C++ -*----------------------------------*\
| =========                 |                                                 |
| \\      /  F ield         | OpenFOAM: The Open Source CFD Toolbox           |
|  \\    /   O peration     | Version:  5.x                                   |
|   \\  /    A nd           | Web:      www.OpenFOAM.org                      |
|    \\/     M anipulation  |                                                 |
\*---------------------------------------------------------------------------*/
FoamFile
{
    version     2.0;
    format      ascii;
    class       volScalarField;
    location    "1.6";
    object      nut;
}
// * * * * * * * * * * * * * * * * * * * * * * * * * * * * * * * * * * * * * //

dimensions      [0 2 -1 0 0 0 0];

internalField   nonuniform List<scalar> 
12160
(
1.04246e-09
1.05654e-09
6.56014e-08
1.04567e-09
1.16356e-07
8.90341e-08
1.05019e-09
4.83443e-07
9.66713e-08
8.94535e-08
1.0754e-09
8.6493e-08
1.78768e-07
6.55757e-08
1.31445e-07
1.09677e-09
6.20431e-08
1.14353e-07
2.48222e-07
4.51305e-08
3.19163e-08
1.12414e-09
5.64383e-08
6.85461e-08
1.34814e-07
6.83781e-08
3.11047e-08
2.61016e-08
1.15166e-09
5.21726e-08
5.65017e-08
8.27452e-08
1.00992e-07
8.87337e-08
1.61534e-08
5.15428e-09
1.17547e-09
5.49886e-08
5.07685e-08
5.94529e-08
1.23704e-07
1.6908e-07
2.19622e-08
5.3127e-09
8.1705e-09
1.18837e-09
7.4718e-08
5.29207e-08
4.83242e-08
6.50584e-08
2.56385e-07
3.1956e-08
7.31117e-09
8.81753e-09
1.08155e-08
1.18743e-09
1.5424e-07
6.47322e-08
4.56256e-08
4.26948e-08
8.25428e-08
8.73338e-08
1.57305e-08
6.21818e-09
2.64877e-08
9.32888e-09
1.17566e-09
2.06675e-07
9.19591e-08
4.95676e-08
3.95848e-08
4.17059e-08
5.95277e-08
2.98097e-08
6.18964e-09
1.93757e-08
3.89062e-09
1.35627e-08
1.16236e-09
1.22126e-07
9.36169e-08
6.50093e-08
4.23875e-08
3.22093e-08
2.8536e-08
1.45989e-08
7.25917e-09
1.52802e-08
2.82663e-09
2.46654e-09
3.84621e-09
1.1575e-09
1.30316e-07
7.88238e-08
7.58636e-08
4.77019e-08
3.0499e-08
2.60212e-08
1.04058e-08
1.7267e-08
1.23231e-08
4.62272e-09
5.32291e-09
5.50522e-09
4.29036e-09
1.16671e-09
9.99112e-08
7.44222e-08
6.95622e-08
4.5788e-08
3.2026e-08
3.10836e-08
9.75254e-09
1.09866e-07
1.15699e-08
2.05555e-08
7.39994e-09
4.48432e-09
8.91104e-09
3.06794e-09
1.20091e-09
4.55991e-08
6.92271e-08
6.26065e-08
4.1083e-08
3.45605e-08
4.17186e-08
1.06464e-08
3.44155e-08
1.22738e-08
8.95127e-09
4.49063e-09
7.57615e-09
9.69197e-09
1.6824e-08
1.26874e-09
2.47337e-08
4.12253e-08
4.58911e-08
3.64978e-08
3.59008e-08
3.44538e-08
1.15602e-08
2.9316e-08
1.58382e-08
7.68667e-09
7.72694e-09
1.66673e-08
7.57441e-09
6.30607e-09
1.38232e-09
1.61068e-08
2.36775e-08
2.91691e-08
3.13141e-08
3.26543e-08
2.32338e-08
1.06e-08
2.50155e-08
2.15535e-08
7.86666e-09
1.94466e-08
2.84701e-08
1.79053e-08
1.20528e-08
1.56313e-09
1.18338e-08
1.58725e-08
1.92655e-08
2.37339e-08
2.58494e-08
1.91718e-08
8.62937e-09
1.75994e-08
3.42678e-08
8.18003e-09
1.11212e-08
2.29217e-08
5.63739e-08
9.90592e-08
1.85077e-09
9.45241e-09
1.17914e-08
1.36602e-08
1.70364e-08
1.90344e-08
1.72454e-08
7.11562e-09
1.16587e-08
3.85418e-08
8.72899e-09
7.77295e-09
8.53936e-09
2.6686e-08
5.00494e-08
2.32638e-09
8.02626e-09
9.46475e-09
1.0473e-08
1.28037e-08
1.44469e-08
1.55458e-08
6.15537e-09
8.13088e-09
2.2653e-08
9.74711e-09
6.1883e-09
5.03343e-09
2.20643e-08
2.56697e-08
3.16929e-09
7.14245e-09
8.06033e-09
8.56965e-09
1.01473e-08
1.12812e-08
1.2807e-08
5.54887e-09
6.17159e-09
1.33183e-08
1.14314e-08
5.17878e-09
3.79127e-09
1.47728e-08
9.69697e-08
4.71444e-09
6.59922e-09
7.18684e-09
7.38899e-09
8.46035e-09
9.0898e-09
9.98756e-09
5.16644e-09
5.07382e-09
8.52513e-09
1.47009e-08
4.4891e-09
3.27601e-09
1.02612e-08
3.03772e-08
6.20749e-09
6.29081e-09
6.64781e-09
6.64233e-09
7.3874e-09
7.64406e-09
8.10339e-09
4.97046e-09
4.41038e-09
6.06737e-09
2.07784e-08
4.01442e-09
2.97764e-09
9.42156e-09
1.59437e-08
4.8058e-09
6.16258e-09
6.34062e-09
6.17646e-09
6.70068e-09
6.71608e-09
6.93379e-09
4.90352e-09
3.98618e-09
4.93376e-09
1.99882e-08
3.65755e-09
2.76839e-09
1.13254e-08
1.55156e-08
3.25909e-09
6.19199e-09
6.21164e-09
5.90772e-09
6.26934e-09
6.11416e-09
6.19371e-09
4.91366e-09
3.67402e-09
4.33711e-09
2.20396e-08
3.28693e-09
2.58931e-09
2.02009e-08
2.47032e-08
2.40839e-09
6.38022e-09
6.23778e-09
5.79104e-09
6.0203e-09
5.72659e-09
5.71398e-09
4.97581e-09
3.41835e-09
3.99218e-09
2.33763e-08
2.8033e-09
2.4297e-09
1.74187e-08
2.32098e-08
1.92599e-09
6.75005e-09
6.41965e-09
5.80696e-09
5.91135e-09
5.48693e-09
5.41562e-09
5.10423e-09
3.22953e-09
3.75694e-09
1.94945e-08
2.35244e-09
2.21371e-09
9.39534e-09
8.41269e-09
1.63136e-09
7.35501e-09
6.77827e-09
5.95441e-09
5.91841e-09
5.36663e-09
5.2616e-09
5.28267e-09
3.16726e-09
3.58411e-09
1.37092e-08
1.9595e-09
1.99298e-09
8.06391e-09
5.08909e-09
1.44247e-09
8.29732e-09
7.3611e-09
6.24792e-09
6.04165e-09
5.37121e-09
5.20901e-09
5.4955e-09
3.31502e-09
3.42247e-09
9.25536e-09
1.60834e-09
1.89011e-09
8.46137e-09
6.1659e-09
1.31932e-09
9.76716e-09
8.25569e-09
6.72157e-09
6.29602e-09
5.49185e-09
5.18816e-09
5.63249e-09
3.67323e-09
3.22747e-09
6.22081e-09
1.43029e-09
1.99463e-09
9.66147e-09
5.7949e-09
1.24074e-09
1.21526e-08
9.61796e-09
7.43501e-09
6.70603e-09
5.71719e-09
5.21859e-09
5.56565e-09
4.0054e-09
2.97776e-09
4.2104e-09
1.61557e-09
2.32358e-09
1.15973e-08
6.0555e-09
1.19478e-09
1.63152e-08
1.17211e-08
8.48262e-09
7.31145e-09
6.06112e-09
5.34216e-09
5.32865e-09
3.81388e-09
2.73926e-09
2.94707e-09
2.07048e-09
2.96028e-09
1.42193e-08
6.80213e-09
1.17545e-09
2.423e-08
1.50084e-08
1.00015e-08
8.16649e-09
6.55455e-09
5.57769e-09
5.10453e-09
3.41973e-09
2.69046e-09
2.36421e-09
2.83208e-09
4.26264e-09
1.71654e-08
8.13872e-09
1.1774e-09
3.73207e-08
1.99675e-08
1.21454e-08
9.31543e-09
7.23625e-09
5.93071e-09
4.91315e-09
3.09461e-09
2.799e-09
2.35525e-09
4.01399e-09
8.29533e-09
2.05614e-08
1.03641e-08
1.199e-09
3.8313e-08
2.53313e-08
1.48451e-08
1.0724e-08
8.11976e-09
6.42515e-09
4.76107e-09
2.95906e-09
2.91351e-09
2.98232e-09
3.1634e-09
2.3388e-08
2.89733e-08
1.45075e-08
1.24095e-09
2.61885e-08
2.45157e-08
1.71331e-08
1.22047e-08
9.13629e-09
7.11044e-09
4.64227e-09
2.98491e-09
3.0276e-09
4.06315e-09
2.18308e-09
1.15085e-08
4.18607e-08
2.4528e-08
1.3031e-09
1.87674e-08
1.95842e-08
1.772e-08
1.33736e-08
1.00567e-08
7.95405e-09
4.5501e-09
3.09992e-09
3.14155e-09
5.65575e-09
1.71769e-09
4.71554e-09
3.50241e-08
5.64885e-08
1.38672e-09
1.49309e-08
1.57125e-08
1.63218e-08
1.3398e-08
1.06149e-08
8.81617e-09
4.48975e-09
3.25196e-09
3.26528e-09
7.88084e-09
1.42201e-09
3.10884e-09
2.44528e-08
5.41752e-08
1.49729e-09
1.27365e-08
1.31609e-08
1.41786e-08
1.2499e-08
1.09397e-08
9.19912e-09
4.45977e-09
3.4291e-09
3.40863e-09
1.09466e-08
1.35348e-09
2.33338e-09
2.15716e-08
2.31609e-08
1.13719e-08
1.74949e-09
1.15268e-08
1.2402e-08
1.14502e-08
1.09065e-08
8.9562e-09
4.46537e-09
3.64339e-09
3.58815e-09
1.50874e-08
1.56689e-09
1.90698e-09
1.8489e-08
1.40722e-08
1.0541e-08
1.02225e-08
2.30275e-09
1.10769e-08
1.04518e-08
1.05041e-08
8.55084e-09
4.49036e-09
3.94783e-09
3.8625e-09
2.03615e-08
1.89698e-09
1.66963e-09
1.50173e-08
1.00541e-08
1.02293e-08
9.68112e-09
9.60415e-09
3.4719e-09
9.58967e-09
9.94618e-09
8.15853e-09
4.59277e-09
4.39852e-09
4.33391e-09
2.55815e-08
2.24682e-09
1.58971e-09
1.18228e-08
7.78559e-09
8.98828e-09
9.58095e-09
9.25647e-09
1.07662e-08
4.31125e-09
9.29517e-09
7.72809e-09
4.77783e-09
5.04068e-09
5.2019e-09
2.24067e-08
2.59741e-09
1.67924e-09
9.2072e-09
6.3429e-09
8.81717e-09
8.57413e-09
9.50456e-09
1.05307e-08
8.58421e-09
6.0822e-09
7.18014e-09
4.95782e-09
6.0464e-09
6.84552e-09
1.70687e-08
2.94818e-09
1.90433e-09
7.34088e-09
5.36728e-09
6.71502e-09
8.65006e-09
8.80305e-09
1.14453e-08
9.6692e-09
7.33367e-09
2.71152e-09
5.10029e-09
7.47883e-09
9.32613e-09
1.73721e-08
3.16623e-09
2.17557e-09
6.10914e-09
4.71651e-09
5.39008e-09
6.66243e-09
9.28869e-09
1.10767e-08
1.31677e-08
7.77928e-09
4.13846e-09
1.33716e-09
9.18613e-09
1.21678e-08
2.14777e-08
3.25033e-09
2.3925e-09
5.35335e-09
4.37043e-09
1.10083e-08
6.43513e-09
7.41121e-09
1.26827e-08
1.69077e-08
9.11348e-09
5.24541e-09
4.3168e-09
8.62414e-10
1.54272e-08
1.77139e-08
3.37823e-09
2.51409e-09
5.55623e-09
2.94458e-09
1.9441e-08
1.48177e-08
9.68728e-09
9.66834e-09
2.5519e-08
1.4532e-08
7.24376e-09
5.01629e-09
3.57601e-09
5.52633e-10
1.42382e-08
3.60973e-09
2.73191e-09
7.5815e-09
3.29999e-09
1.13663e-08
1.67072e-08
1.4562e-08
1.48831e-08
1.81677e-08
2.22236e-08
7.07848e-09
7.11394e-09
5.8472e-09
5.34461e-09
2.93185e-10
3.83802e-09
3.09197e-09
1.4541e-08
4.19237e-09
4.0097e-09
7.20756e-09
2.10317e-08
9.98244e-09
2.97105e-08
2.08739e-08
6.2129e-09
7.08443e-09
1.49792e-08
1.31689e-08
3.2374e-09
5.73784e-10
3.59394e-09
3.30057e-08
5.91676e-09
4.84129e-09
4.30207e-09
7.70689e-09
3.75712e-08
8.60547e-09
4.12328e-08
7.33837e-09
5.21938e-09
1.99992e-08
7.32018e-08
2.90385e-08
1.51739e-08
3.28497e-08
4.67064e-10
6.90604e-08
8.69505e-09
4.15635e-08
5.4997e-09
5.23704e-09
4.67537e-09
7.16606e-08
7.74076e-09
9.59716e-09
4.51935e-09
1.39721e-08
8.86496e-08
1.2197e-07
5.96235e-08
6.63877e-08
5.86276e-07
5.98216e-08
1.06425e-09
1.2636e-08
1.37131e-08
2.40078e-08
4.32406e-09
6.00265e-09
3.34109e-09
1.20218e-07
6.92004e-09
6.04472e-09
8.05922e-09
7.09695e-08
1.24675e-07
7.88971e-08
1.10503e-07
2.64188e-07
6.43327e-06
1.63652e-06
1.72403e-07
2.41071e-09
3.22175e-08
8.48598e-09
4.09593e-09
6.81429e-09
2.92219e-09
7.27667e-08
5.88372e-09
6.01034e-09
3.61964e-08
1.44524e-07
8.33516e-08
1.26188e-07
1.41869e-07
1.86848e-06
5.19633e-05
2.26439e-05
4.98648e-06
5.72155e-07
5.51054e-09
1.08061e-08
7.1121e-09
4.49314e-09
7.52223e-09
2.68081e-09
2.41684e-08
4.99173e-09
9.54939e-09
9.2158e-08
9.90266e-08
1.22696e-07
1.08224e-07
6.41023e-07
1.33735e-05
0.000618438
0.000235749
7.31998e-05
1.5242e-05
1.93119e-06
1.2191e-08
7.65228e-09
7.4793e-09
5.26436e-09
1.03898e-08
2.24134e-09
1.32596e-08
4.5218e-09
2.29449e-08
1.29523e-07
8.37121e-08
8.17348e-08
2.03385e-07
3.6693e-06
0.000144948
0.000433611
0.000719859
0.00072148
0.00024949
6.06636e-05
9.68604e-06
2.62353e-08
7.42369e-09
8.40891e-09
7.30665e-09
1.10731e-08
1.76094e-09
8.89326e-09
4.44428e-09
6.3422e-08
4.37991e-08
5.49446e-08
1.04408e-07
1.00952e-06
3.38582e-05
0.000430056
0.00167807
0.000562037
0.00167855
0.00170308
0.00170337
0.000773945
0.00078135
0.000600343
0.000184979
3.9597e-05
5.58922e-08
7.75792e-09
9.18556e-09
8.36314e-09
4.29219e-09
3.5558e-09
3.89317e-08
7.23123e-09
2.48768e-08
3.51933e-08
7.28849e-08
2.72289e-07
7.43128e-06
0.000449957
0.0015243
0.00170642
0.00152915
0.00079383
0.00170699
0.00186125
0.00186235
0.00152919
0.00152203
0.00152199
0.000792465
0.000826903
0.000663038
0.000131249
2.30406e-05
9.16537e-08
8.08717e-09
6.84576e-09
5.85653e-09
7.17958e-09
1.0888e-07
9.8017e-08
1.44825e-08
2.30178e-08
3.79049e-08
9.40971e-08
1.54803e-06
0.00014018
0.00128885
0.00169018
0.00169035
0.00190677
0.00190715
0.00157677
0.00144486
0.000776852
0.000706406
0.00157696
0.00172211
0.00172269
0.00144478
0.00144939
0.00144941
0.000804245
0.000853951
0.00080444
0.000127484
1.87065e-05
1.34678e-07
6.90265e-09
4.323e-09
3.46105e-09
1.98929e-07
2.95137e-06
7.63503e-07
8.62015e-08
1.92732e-08
4.44686e-08
3.0924e-07
1.0196e-05
0.0012072
0.00225106
0.00225135
0.00268191
0.00268167
0.00158453
0.00158499
0.00184376
0.00184399
0.00143612
0.00132246
0.00128293
0.00130585
0.00131514
0.000767248
0.000688799
0.00109725
0.00109743
0.00128231
0.00128213
0.00143595
0.00146548
0.00146521
0.0013222
0.00128687
0.0013058
0.00131372
0.00134354
0.00132898
0.00135872
0.00134229
0.00134335
0.00133073
0.00135863
0.00133896
0.000812158
0.000866979
0.000827813
0.000110837
1.53043e-05
1.73254e-07
6.36962e-09
2.97677e-09
1.59283e-08
5.35957e-06
4.79424e-05
7.49829e-06
3.21197e-06
1.98383e-07
5.65438e-08
1.06109e-06
0.00020575
0.00164301
0.00163775
0.000594148
0.000593741
0.00210992
0.00211016
0.00248352
0.00248367
0.0014408
0.0012813
0.00146115
0.00152249
0.00152222
0.00126126
0.0012841
0.00144137
0.00146104
0.00152284
0.00152228
0.00126129
0.00166052
0.00172314
0.00164434
0.00170187
0.00166106
0.00172318
0.00164443
0.00170187
0.00128204
0.00127139
0.00128727
0.00128357
0.00120415
0.00121492
0.00117707
0.00125522
0.000778059
0.000703831
0.000776516
0.000776458
0.000873987
0.000874012
0.000934722
0.000935354
0.00109488
0.00109513
0.0012818
0.00127242
0.00128701
0.0012811
0.00127118
0.0012456
0.00123356
0.00127614
0.00127102
0.00124921
0.00123348
0.00127909
0.00120384
0.00121919
0.00117706
0.00125452
0.00123457
0.00128378
0.00123435
0.0012813
0.000828927
0.000870504
0.000810298
9.23569e-05
1.13791e-05
2.3758e-07
3.77156e-09
3.70675e-09
4.664e-07
4.02258e-05
0.00094983
9.90177e-05
4.88309e-05
8.53787e-06
2.71842e-06
6.58332e-05
0.000271185
0.000273153
0.000336227
0.000339733
0.00189467
0.0018961
0.00201529
0.0020277
0.00177834
0.00190413
0.0018122
0.00193327
0.0017795
0.00190412
0.00181558
0.00193279
0.00201518
0.00205809
0.00209986
0.00212571
0.00201429
0.00205545
0.00210016
0.00212157
0.00125295
0.00144479
0.00144646
0.00120782
0.00151315
0.00148789
0.00125546
0.00144524
0.00120788
0.00144626
0.00151341
0.00148781
0.00160253
0.0016398
0.00158687
0.00161592
0.00160308
0.0016397
0.00158699
0.00161589
0.00113874
0.0011976
0.00115317
0.00119797
0.00115475
0.00118997
0.00112435
0.00123101
0.000824244
0.000748212
0.000671893
0.000671402
0.000660306
0.000660102
0.000689963
0.000691276
0.000735014
0.000736129
0.000772439
0.000772213
0.000860962
0.000829252
0.000777234
0.000771981
0.000863107
0.000829233
0.0010221
0.00112976
0.000984123
0.000975676
0.00094772
0.00109582
0.00102224
0.00113285
0.00098394
0.000976036
0.000947567
0.00109597
0.00113843
0.0011983
0.001153
0.00119606
0.00111043
0.00115642
0.00111043
0.00115929
0.00115462
0.00119361
0.00112444
0.00122995
0.00118723
0.00126722
0.00118709
0.001265
0.000845589
0.000844631
0.000728899
6.74693e-05
8.18826e-06
3.58492e-07
2.43355e-09
7.42734e-08
7.71833e-06
0.000620647
0.00173506
0.000725378
0.00059344
0.000467183
0.000340905
0.00039824
0.000402648
0.000485285
0.000488029
0.00205064
0.00205671
0.00194904
0.00195379
0.00187057
0.00163374
0.00185265
0.00159196
0.00187132
0.00163269
0.0018536
0.00159066
0.00173906
0.00168076
0.00176385
0.00167542
0.00174714
0.00168267
0.00176978
0.0016772
0.00169322
0.00178071
0.00172021
0.00180851
0.0016946
0.00178048
0.00172326
0.00180773
0.0017847
0.00175284
0.00189732
0.00188099
0.00178447
0.00174991
0.00189727
0.00187715
0.00107542
0.00116837
0.00109802
0.00115896
0.000870989
0.000846125
0.000757571
0.000756454
0.000689884
0.000688981
0.000638954
0.000638921
0.00061978
0.000621424
0.000428367
0.000548697
0.000468477
0.000564414
0.000441576
0.000546693
0.000483802
0.000563097
0.000604056
0.000632467
0.000548462
0.000604587
0.000615736
0.00063233
0.000562784
0.000603851
0.000700348
0.000683042
0.00081772
0.000763831
0.000705726
0.000682518
0.000819728
0.000763504
0.00106216
0.000990503
0.000939548
0.000998875
0.000930653
0.000877549
0.00106454
0.000990768
0.000939248
0.000998847
0.000931098
0.000877201
0.00107524
0.00116861
0.00109793
0.00115707
0.00102866
0.00108481
0.00102865
0.00108754
0.00082063
0.000806335
0.000504016
4.6793e-05
7.01513e-06
6.03794e-07
6.76311e-09
1.48378e-06
0.00010993
0.00150836
0.00178975
0.00161421
0.00172838
0.00163532
0.000489092
0.00168739
0.00168998
0.00167042
0.00167157
0.0017356
0.00173857
0.00173625
0.00173971
0.00165785
0.00150493
0.00160568
0.00144753
0.00165954
0.00150408
0.0016073
0.0014468
0.00152679
0.0014681
0.00153995
0.00145433
0.00153296
0.0014685
0.00154407
0.00145455
0.00170033
0.0016547
0.00170047
0.00165218
0.00084287
0.000927769
0.000946895
0.000946145
0.000831795
0.000830695
0.000756025
0.00075413
0.000692016
0.000690498
0.000500435
0.000564246
0.00046152
0.000542435
0.000494269
0.000563398
0.000458058
0.000540291
0.000408861
0.000520728
0.00043382
0.000530471
0.000415165
0.00051831
0.000434603
0.0005281
0.000352464
0.000409055
0.000388136
0.000438271
0.000357291
0.000408387
0.000395729
0.000437863
0.000544323
0.000555495
0.000485214
0.000505269
0.000555101
0.000555257
0.000496008
0.000504933
0.000784852
0.000778226
0.000314788
4.12856e-05
7.50278e-06
1.03842e-06
1.68935e-07
2.07516e-05
0.00139119
0.00164011
0.00173814
0.00197499
0.00237146
0.00194429
0.00157993
0.00158016
0.00174821
0.0017491
0.00154654
0.00154841
0.00152458
0.00152541
0.00152179
0.00149182
0.00151652
0.001497
0.00152281
0.00149487
0.00151773
0.0014983
0.0015313
0.00144751
0.00151551
0.0014728
0.00153223
0.00145085
0.00151622
0.0014732
0.00156413
0.00145245
0.00149453
0.00138036
0.00156576
0.00145164
0.00149577
0.0013798
0.00140207
0.00134206
0.00142763
0.00134475
0.0014067
0.00134207
0.00143066
0.00134473
0.00080009
0.000897099
0.000991867
0.000896244
0.000894853
0.000826395
0.000824336
0.0006668
0.000664417
0.000564532
0.000563469
0.000438778
0.000525332
0.000400213
0.000467506
0.000435996
0.000524693
0.000398317
0.000467049
0.000342495
0.000402071
0.000363647
0.000424202
0.000342276
0.000401549
0.00036248
0.0004238
0.000308252
0.000366046
0.000312005
0.000365778
0.000759589
0.000712859
0.000226142
4.13949e-05
8.79234e-06
7.40472e-07
3.39251e-06
0.00042897
0.00162753
0.00166509
0.00163903
0.0017382
0.00188898
0.00146116
0.00144633
0.00144659
0.0015609
0.00156106
0.00134234
0.00139334
0.00140304
0.00135878
0.00134637
0.00139397
0.0014037
0.00136006
0.00142148
0.001422
0.00136602
0.00140822
0.00140299
0.00137615
0.00136645
0.00141
0.00140349
0.00137638
0.0013442
0.00131012
0.00131886
0.00134616
0.00134436
0.00131361
0.00131903
0.00134597
0.00137831
0.00132812
0.00138192
0.00132797
0.000767271
0.000848864
0.000964215
0.00110655
0.00110459
0.00101421
0.00101106
0.000873959
0.00087162
0.000764733
0.00076132
0.000622328
0.000650706
0.000668198
0.000588419
0.0006218
0.000645064
0.000666028
0.000587002
0.00056978
0.000448886
0.00052319
0.000509115
0.000569897
0.000449324
0.000523059
0.000509629
0.00037456
0.00045675
0.000323591
0.000406248
0.000374125
0.000456194
0.000324206
0.000406051
0.000278111
0.000349358
0.000284419
0.000364168
0.000279098
0.000349149
0.000285584
0.000364079
0.000708301
0.000618301
0.000146489
4.19991e-05
3.22355e-06
6.2811e-05
0.00151862
0.00166285
0.00159325
0.00153159
0.00139365
0.00115638
0.00152183
0.00152209
0.000909864
0.000909947
0.00128171
0.00130089
0.0013011
0.00132764
0.00128351
0.00130106
0.00130222
0.00132747
0.00142282
0.00142315
0.00123917
0.00124199
0.00127168
0.00125543
0.00124256
0.00124225
0.00127168
0.0012556
0.00127634
0.00129894
0.00127763
0.00129628
0.00127648
0.00129887
0.00127679
0.00129628
0.00128817
0.00124781
0.00123054
0.00130583
0.0012881
0.0012509
0.00123053
0.00130627
0.000698336
0.000802996
0.000922289
0.00103052
0.00108906
0.00108581
0.000981164
0.000976192
0.000858634
0.000855763
0.000717364
0.00072363
0.000794728
0.000768573
0.000709605
0.000721288
0.000793347
0.000761704
0.00063165
0.000670331
0.000676826
0.000608179
0.000631189
0.000666108
0.000676204
0.000603497
0.000570042
0.000441584
0.000509372
0.000524018
0.000569725
0.000442926
0.000509076
0.00052258
0.000354878
0.000452883
0.00035703
0.000452664
0.000657242
0.000252879
0.000129792
8.18145e-06
0.00127243
0.00160512
0.00160773
0.00151479
0.00134651
0.00110112
0.00101995
0.00101974
0.00101386
0.00101358
0.00105185
0.00105205
0.000885558
0.00088501
0.00118886
0.00117206
0.00121588
0.00122173
0.00119105
0.00117223
0.00121746
0.00122172
0.00126657
0.00121535
0.0012541
0.00123984
0.00126672
0.00121743
0.00125415
0.00124048
0.0011824
0.00115432
0.00117132
0.00118851
0.00118395
0.00115447
0.00117131
0.00118795
0.00119424
0.0011744
0.00121491
0.00120078
0.00119535
0.00117422
0.00121454
0.00120071
0.000647078
0.000702682
0.000862789
0.00100644
0.00106106
0.0010579
0.00113933
0.00113685
0.00107019
0.00106554
0.000981592
0.000915759
0.00102848
0.000977668
0.000972381
0.000913841
0.00102043
0.000975655
0.000932951
0.000884381
0.000856368
0.000848585
0.000806754
0.000796351
0.000925479
0.000882342
0.000854393
0.000847851
0.000801246
0.000795446
0.000737729
0.000727164
0.000735209
0.00072665
0.000668152
0.000704743
0.000733548
0.000620775
0.000667793
0.00070163
0.000733088
0.000615716
0.000557408
0.000264967
1.79824e-05
0.00148622
0.00158275
0.00155011
0.00144078
0.00118138
0.00093278
0.000954888
0.000954209
0.000945739
0.000945086
0.000678893
0.00104048
0.000865958
0.00063683
0.000807235
0.0010796
0.00104363
0.000679373
0.00107963
0.000865982
0.000634815
0.000806728
0.000813362
0.00078599
0.0007319
0.00076552
0.000810368
0.000785548
0.00072707
0.000764853
0.0011429
0.00110508
0.00115503
0.00113258
0.00114469
0.00110516
0.00115634
0.00113257
0.00114312
0.0011374
0.00114322
0.00113812
0.00115195
0.00117717
0.00115193
0.0011766
0.00116375
0.00113027
0.001165
0.00113007
0.00063419
0.000635384
0.000724811
0.000935401
0.00108351
0.00108167
0.00110753
0.00110579
0.00105124
0.00104677
0.001122
0.00111871
0.00102848
0.0011288
0.00105413
0.00110616
0.000980342
0.0010801
0.00102787
0.00111778
0.00105172
0.00110097
0.000979887
0.00107553
0.00102324
0.00094028
0.00102005
0.000939756
0.000987881
0.00092809
0.000914747
0.000831212
0.000916082
0.000832774
0.000985482
0.000927399
0.000913292
0.000829709
0.00091567
0.000832144
0.000758483
0.000771811
0.000758782
0.000771478
0.000457157
3.27191e-05
0.00151054
0.00153019
0.00152688
0.00140099
0.00106974
0.000645654
0.00064498
0.00054433
0.000543571
0.000850607
0.000849249
0.000802343
0.000801414
0.000934626
0.00064116
0.000771217
0.000994903
0.000743469
0.000768559
0.0009378
0.000638146
0.000994943
0.000770833
0.000736266
0.000767707
0.000887176
0.000818202
0.000847237
0.000797444
0.000882465
0.000817907
0.00084024
0.000797029
0.00113133
0.00110749
0.00113233
0.00110744
0.000618471
0.000613449
0.000633589
0.000764793
0.00101165
0.0011239
0.00112049
0.00110392
0.00110167
0.00106113
0.00100823
0.00107939
0.000997547
0.00105216
0.00100511
0.00107321
0.000995954
0.00118427
0.00119411
0.00107161
0.00114355
0.00103938
0.00107375
0.00118097
0.00118451
0.00107112
0.00113976
0.0010383
0.00107276
0.0010809
0.00101371
0.0011564
0.00109813
0.00108036
0.00101323
0.00114914
0.00109442
0.00105244
0.000986934
0.00105203
0.000986569
0.00102664
0.000989438
0.000882937
0.000908359
0.00102796
0.000989166
0.000885718
0.000908038
5.12049e-05
0.00148287
0.00149511
0.0014818
0.00131811
0.000662194
0.000546955
0.000546589
0.000555976
0.000554186
0.000782501
0.000881656
0.000831937
0.000796256
0.000782294
0.000878012
0.000831634
0.000793531
0.000676199
0.000675843
0.000918484
0.000855986
0.000920188
0.000860501
0.000915059
0.000855666
0.00091664
0.000860315
7.61122e-05
0.000609897
0.000598548
0.000647315
0.000813589
0.000973514
0.000972485
0.00116862
0.00116475
0.00113083
0.00112556
0.0010872
0.00108489
0.00111557
0.0010116
0.00109475
0.00101476
0.00111202
0.0010104
0.00109425
0.00101432
0.00120361
0.00119211
0.00110494
0.00108546
0.00116141
0.00105903
0.00119531
0.00119196
0.00108548
0.00110431
0.00116269
0.0010589
0.0010748
0.0011499
0.00107424
0.00114571
0.00143766
0.00144287
0.00134334
0.00103694
0.000530753
0.000524939
0.000484117
0.000476968
0.000566932
0.000565883
0.0005695
0.000566509
0.000755848
0.000835934
0.000822665
0.000730467
0.000756134
0.000838176
0.000822854
0.00073197
0.000505184
0.000588003
0.000582418
0.000644194
0.00050459
0.000587982
0.000582097
0.000644274
0.000914564
0.000873305
0.000915906
0.000873254
0.0001075
0.000596416
0.00059549
0.000677188
0.000846631
0.000973353
0.000971528
0.00112608
0.00112092
0.00114637
0.00113834
0.00107305
0.00114471
0.0010472
0.00112331
0.0010727
0.00114381
0.00104652
0.00112063
0.0011194
0.00103629
0.00111215
0.00106382
0.00112061
0.00103563
0.00111229
0.00106364
0.00134399
0.0013446
0.00107601
0.000581246
0.000436862
0.000419736
0.000344999
0.000334999
0.000577748
0.000607504
0.000582129
0.000565221
0.000587058
0.000596058
0.000578732
0.000607505
0.000581378
0.000563936
0.000586664
0.000590383
0.000530402
0.000524993
0.000713599
0.000778669
0.00078601
0.00067417
0.000713711
0.000779297
0.000786113
0.000674388
0.000604931
0.000633167
0.00060598
0.000633253
0.000143952
0.00058755
0.000607072
0.000714096
0.000841383
0.000839701
0.000947709
0.000945167
0.000923129
0.000921934
0.00106615
0.00105976
0.00118295
0.00110985
0.00122692
0.00112694
0.00120953
0.00110153
0.00116382
0.001105
0.001215
0.00112524
0.00120382
0.00110059
0.00117953
0.00107901
0.00118068
0.0010784
0.00115424
0.0010798
0.00115972
0.00107956
0.00124807
0.00109186
0.000735787
0.000376006
0.000374435
0.000277748
0.000277276
0.000331981
0.000324241
0.000337424
0.000336666
0.000547091
0.000608215
0.000489279
0.000488332
0.00054691
0.000443802
0.000546531
0.000608032
0.000488116
0.000485997
0.000546166
0.00044053
0.000358306
0.000407671
0.000387631
0.000405664
0.000348845
0.000406854
0.000383502
0.000405959
0.000186051
0.00058704
0.000633945
0.000757805
0.000869808
0.000865821
0.000931761
0.000927671
0.000946676
0.000943495
0.00123929
0.00112337
0.000992303
0.00112768
0.00105956
0.00097399
0.000992699
0.0011214
0.00105867
0.00097538
0.00122555
0.00112179
0.00125595
0.00123259
0.00117378
0.00114205
0.00124109
0.00122592
0.00117286
0.00114097
0.00121047
0.00112351
0.00121243
0.00112297
0.000954528
0.000692985
0.000568906
0.000324573
0.00032296
0.000301396
0.000300714
0.000256018
0.000315742
0.000363374
0.000296591
0.000337424
0.000309006
0.000251007
0.000323472
0.000364098
0.000296137
0.000336571
0.000307382
0.000354729
0.000354045
0.000454947
0.000438925
0.000453302
0.000432836
0.00030077
0.000331773
0.000292019
0.000328398
0.000230193
0.000596793
0.000670798
0.000777865
0.000775125
0.000846044
0.000841553
0.000824532
0.000819242
0.000888417
0.000882105
0.00092226
0.000926982
0.000996928
0.000933304
0.00104372
0.000982565
0.000911496
0.00104312
0.000981683
0.000922849
0.000991825
0.000932674
0.00121529
0.00113616
0.0011051
0.00105976
0.0011016
0.00119932
0.00105915
0.00113527
0.000584457
0.000582909
0.000473793
0.000297193
0.000296486
0.000252451
0.000252239
0.000246025
0.000293006
0.000389039
0.000322542
0.000347031
0.000337942
0.000250081
0.000297051
0.000385403
0.00031788
0.00034502
0.000330371
0.000278167
0.00046935
0.000309649
0.000423639
0.000272329
0.000455632
0.000301301
0.000416636
0.000235049
0.000295023
0.000236321
0.000293784
0.000282323
0.000615681
0.00070746
0.000808231
0.000804539
0.000811282
0.000805552
0.000821259
0.000814139
0.000985138
0.000901918
0.000879152
0.000930145
0.000867449
0.000824254
0.000975875
0.000900399
0.000877549
0.000921746
0.000866265
0.000818231
0.000998002
0.00102376
0.000932334
0.000980992
0.00102467
0.000980674
0.000991516
0.000931827
0.000519987
0.000495195
0.000301428
0.000303388
0.000302889
0.000302474
0.000390502
0.000391604
0.000320419
0.000257133
0.000432152
0.000318233
0.000251997
0.000424453
0.000278338
0.000313987
0.000387273
0.000340444
0.000364772
0.000341967
0.00027834
0.000313915
0.00038159
0.000327872
0.000360522
0.000326206
0.000279799
0.000358361
0.000271382
0.000352989
0.000353262
0.000636584
0.000738359
0.000795279
0.000791417
0.00079546
0.000788889
0.000769143
0.000891323
0.00085857
0.000812867
0.000894783
0.000836783
0.000755776
0.000886121
0.000834624
0.000883707
0.000849153
0.000811378
0.000976981
0.000900011
0.00091625
0.00085822
0.000967952
0.000899059
0.000908633
0.000857339
0.00100434
0.000945235
0.000996877
0.000944757
0.000495864
0.000374512
0.00030552
0.000441505
0.000302898
0.000441614
0.000527574
0.000527767
0.000229537
0.000244917
0.000447309
0.000245577
0.000450811
0.000409338
0.000244215
0.000547755
0.000239631
0.000222847
0.000437385
0.00024106
0.000443782
0.000401799
0.000238753
0.000532783
0.000360748
0.000315839
0.000355768
0.000298607
0.000247341
0.000332656
0.000241239
0.000328161
0.000433783
0.000648194
0.000745018
0.000796991
0.000793452
0.000738904
0.000823437
0.000817205
0.000800695
0.000819365
0.000838977
0.000795727
0.000808124
0.000835383
0.000880552
0.000843067
0.000831644
0.000803122
0.000873481
0.000830845
0.000835807
0.000802437
0.000970574
0.000915399
0.000912378
0.000887189
0.000962572
0.000914801
0.000907106
0.000886625
0.00052946
0.000287228
0.00040383
0.00046034
0.000221815
0.000440596
0.000401475
0.000459432
0.000220308
0.000440169
0.00047218
0.000472732
0.000220463
0.000198133
0.000235598
0.000336173
0.000353777
0.000279247
0.00021228
0.000229122
0.000193789
0.000329573
0.000346122
0.000276118
0.000339184
0.000275345
0.000334825
0.00026338
0.000502271
0.000639383
0.000749526
0.000769564
0.000766037
0.000739356
0.000796047
0.000785782
0.000808457
0.000851722
0.000811277
0.000842697
0.000827083
0.000776795
0.000716262
0.000890643
0.000805171
0.000845285
0.000808814
0.000832024
0.000823607
0.000775597
0.000710092
0.000884736
0.00088176
0.000854496
0.000865065
0.000828869
0.000877175
0.000864617
0.000846196
0.000828299
0.00030867
0.000517508
0.000570182
0.000569433
0.000516558
0.000567152
0.000565577
0.000358124
0.000526141
0.000306665
0.00049782
0.000285955
0.000600145
0.000336499
0.000520288
0.000518832
0.000353625
0.000541327
0.000347728
0.000529378
0.000305697
0.000498238
0.000285984
0.000586733
0.000325179
0.000513754
0.000516954
0.000344291
0.000529942
0.000200848
0.000250846
0.00028919
0.000344726
0.00019415
0.000250623
0.000285333
0.000344733
0.00055012
0.000535947
0.00065545
0.000794115
0.000815719
0.000754156
0.000787161
0.00081642
0.000756193
0.000638521
0.00074169
0.000722355
0.000831274
0.000773913
0.000862435
0.00079276
0.00085373
0.000740885
0.000830719
0.000777619
0.00085507
0.000853516
0.000792049
0.000740485
0.000876308
0.000886165
0.000869915
0.000885979
0.000177753
0.00048859
0.000599922
0.00048812
0.000599692
0.0007114
0.000709784
0.00028784
0.000310185
0.000448202
0.000414887
0.000343326
0.00043914
0.000403535
0.000417131
0.00057456
0.000409459
0.000575906
0.000568964
0.000415522
0.000614353
0.000286396
0.000299008
0.000415349
0.000444494
0.000331856
0.000432818
0.000412485
0.000393039
0.000570967
0.000401585
0.000568511
0.000562371
0.000407974
0.00060718
0.000429324
0.000337261
0.000596448
0.000579961
0.00033192
0.000360501
0.00035241
0.000738648
0.000801909
0.000821415
0.000792377
0.000781943
0.000930221