/*--------------------------------*- C++ -*----------------------------------*\
| =========                 |                                                 |
| \\      /  F ield         | OpenFOAM: The Open Source CFD Toolbox           |
|  \\    /   O peration     | Version:  5.x                                   |
|   \\  /    A nd           | Web:      www.OpenFOAM.org                      |
|    \\/     M anipulation  |                                                 |
\*---------------------------------------------------------------------------*/
FoamFile
{
    version     2.0;
    format      ascii;
    class       volScalarField;
    location    "1.6";
    object      omega;
}
// * * * * * * * * * * * * * * * * * * * * * * * * * * * * * * * * * * * * * //

dimensions      [0 0 -1 0 0 0 0];

internalField   nonuniform List<scalar> 
12160
(
0.0719999
0.0719999
0.00236101
0.0719999
0.00513561
0.0012008
0.0719999
0.00868883
0.00161059
0.00115106
0.0719999
0.0111657
0.00222565
0.00137106
0.00115713
0.0719999
0.0114657
0.00271187
0.00157303
0.00136583
0.00132049
0.0719999
0.0108192
0.00275963
0.00171005
0.00150124
0.00158457
0.00137268
0.0719999
0.0100697
0.00259067
0.00172492
0.00158054
0.00163586
0.00190678
0.00241828
0.0719999
0.00954684
0.00240808
0.00167844
0.00160857
0.00165134
0.00200738
0.0034823
0.0114937
0.0719999
0.00920604
0.00228352
0.00163377
0.0015985
0.00166784
0.00193785
0.00304937
0.0105444
0.011171
0.0719999
0.00904237
0.00220687
0.0016016
0.00158321
0.00168071
0.00186823
0.00247249
0.00935068
0.0102827
0.0212487
0.0719999
0.00900946
0.00216843
0.00157959
0.00156656
0.00168735
0.00185927
0.00244389
0.007795
0.0111137
0.0172813
0.0217797
0.0719999
0.00904849
0.00215519
0.0015647
0.00155288
0.00168087
0.00186997
0.00279177
0.00671533
0.011266
0.0202274
0.0128404
0.0118968
0.0719999
0.0091846
0.00215625
0.00155412
0.00153981
0.00166788
0.00187757
0.00316416
0.00615304
0.0108747
0.0141512
0.00750859
0.00524434
0.00961323
0.0719999
0.00950635
0.00217745
0.00154621
0.00152488
0.00165003
0.00188711
0.00348714
0.00622351
0.01014
0.0153846
0.00643711
0.00346636
0.00372616
0.00657777
0.0719999
0.0099669
0.00223925
0.00154452
0.00150819
0.00162798
0.00189078
0.00373486
0.00673136
0.00937226
0.0176016
0.00958642
0.00315704
0.00261451
0.00176989
0.0719999
0.0103923
0.00233993
0.00155507
0.00149379
0.00160481
0.00187035
0.00389782
0.00717306
0.00908019
0.0179802
0.0113212
0.00298901
0.00245394
0.00188089
0.0719999
0.0107207
0.00244011
0.00157644
0.00148628
0.00158525
0.00180542
0.00395096
0.00744528
0.00890529
0.0176576
0.0135758
0.00326181
0.00209618
0.00159726
0.0719999
0.0109455
0.00252035
0.00159882
0.0014879
0.00157297
0.00171367
0.00387575
0.00754871
0.00878796
0.0172549
0.0157868
0.00375321
0.00209274
0.00148487
0.0719999
0.0110761
0.00257594
0.00161699
0.00149304
0.0015655
0.00162934
0.00370273
0.00751854
0.00858284
0.0166843
0.0174609
0.00433977
0.00216244
0.00150331
0.0719999
0.0111343
0.00260762
0.00162809
0.0014965
0.00155981
0.00158804
0.00349087
0.0073654
0.00817439
0.0158911
0.0187879
0.00492869
0.00221898
0.00153709
0.0719999
0.0111495
0.00262053
0.00163207
0.00149656
0.00155462
0.00157366
0.00331097
0.00708753
0.00760253
0.0147989
0.0199792
0.00544627
0.00223415
0.00156374
0.0719999
0.0111499
0.00262236
0.00163064
0.00149277
0.00154765
0.00156151
0.00317162
0.00666762
0.00702201
0.0133066
0.0211002
0.0059883
0.00223759
0.00158835
0.0719999
0.0111585
0.00262068
0.00162638
0.00148608
0.00153799
0.00154578
0.00303469
0.00617116
0.00658195
0.0114978
0.0220564
0.00661616
0.00224606
0.00159978
0.0719999
0.0111905
0.00262164
0.00162192
0.0014782
0.00152653
0.00152655
0.00289384
0.00568124
0.00625139
0.0098097
0.0224981
0.00734291
0.00228659
0.00161876
0.0719999
0.0112631
0.00262949
0.00161947
0.00147102
0.00151499
0.001506
0.0027402
0.00519762
0.00588504
0.00886144
0.0217874
0.00812659
0.0023868
0.0016644
0.0719999
0.0113589
0.00264907
0.00162076
0.00146622
0.00150517
0.00148622
0.00256008
0.00470032
0.00549565
0.00825755
0.0194183
0.0087907
0.002553
0.00174775
0.0719999
0.0114619
0.00267571
0.00162784
0.00146536
0.00149879
0.00146917
0.00233951
0.00416972
0.00509964
0.00765316
0.0167175
0.00906591
0.00275068
0.00181671
0.0719999
0.0115531
0.00270511
0.00163889
0.00147036
0.00149737
0.00145655
0.00207413
0.00360873
0.00469328
0.00695906
0.0140505
0.00851031
0.00300384
0.00182819
0.0719999
0.01161
0.00273209
0.00165218
0.00147976
0.00150254
0.00145071
0.00178755
0.00306229
0.00427025
0.00615822
0.0112352
0.00731377
0.0030679
0.00180595
0.0719999
0.0116106
0.0027504
0.00166579
0.00149195
0.00151289
0.00145728
0.00154183
0.00260731
0.00383965
0.00528609
0.00829431
0.0058434
0.00287149
0.00178301
0.0719999
0.0115356
0.00275382
0.0016775
0.00150542
0.00152708
0.00147343
0.00147088
0.00231021
0.00344417
0.00442761
0.00581775
0.00443538
0.0025288
0.00170301
0.0719999
0.0113726
0.00273727
0.00168527
0.00151862
0.00154361
0.00149481
0.0016714
0.00228705
0.00313332
0.00370321
0.00407212
0.0033011
0.00215565
0.00158513
0.0719999
0.0111187
0.00269813
0.00168759
0.00153026
0.00156094
0.00151934
0.00192117
0.0025794
0.00307133
0.00315677
0.00292769
0.00246582
0.00182324
0.00145632
0.0719999
0.0107872
0.00263719
0.00168398
0.00153959
0.00157789
0.00154545
0.0021582
0.00299213
0.00335611
0.00314859
0.0022233
0.00189167
0.00155617
0.00133655
0.0719999
0.0104473
0.00255967
0.00167542
0.00154672
0.0015938
0.00157186
0.00235694
0.00345906
0.00373113
0.00365857
0.00232968
0.00153287
0.00135912
0.00123599
0.0719999
0.0102282
0.00248496
0.00166497
0.00155275
0.00160893
0.00159741
0.00251901
0.00392406
0.00412785
0.00429719
0.0031283
0.00159355
0.00122901
0.00115929
0.0719999
0.0101419
0.002444
0.001658
0.00155945
0.00162468
0.0016215
0.00265615
0.00435853
0.00451641
0.00497641
0.00430371
0.00202773
0.00124968
0.00110882
0.0719999
0.0101642
0.00243683
0.00166179
0.00157067
0.00164354
0.00164497
0.00277987
0.00476265
0.00489247
0.00561168
0.00598627
0.00264359
0.00140159
0.00111574
0.0719999
0.0102533
0.002459
0.00167886
0.00159087
0.00166671
0.00167095
0.00289905
0.00514998
0.0052631
0.00616544
0.00819147
0.00350916
0.00161063
0.00117528
0.0103734
0.0719999
0.00250266
0.00170991
0.00162142
0.00169559
0.00171343
0.00302076
0.0055367
0.00563628
0.00663063
0.0106115
0.00463594
0.00188948
0.00125823
0.00255989
0.0105579
0.0719999
0.00175456
0.00166355
0.00173407
0.00179012
0.00316682
0.00593371
0.0060098
0.00702318
0.012862
0.00600429
0.00222712
0.00136397
0.00181254
0.00264147
0.0113153
0.0719999
0.00171863
0.00178593
0.00189805
0.00336499
0.00631904
0.00636578
0.00738119
0.0149435
0.00748412
0.00260784
0.0014871
0.00178795
0.00188741
0.00293259
0.0128382
0.0719999
0.00185464
0.0020366
0.00360166
0.00665211
0.0066976
0.00781976
0.0169776
0.00886142
0.00298831
0.00162156
0.00194229
0.00187237
0.00209064
0.00351811
0.0169449
0.0719999
0.00221032
0.0038667
0.00692926
0.00706034
0.00876851
0.0190868
0.00988713
0.00329484
0.00175513
0.00242151
0.00204884
0.00206498
0.00242163
0.00499628
0.0259918
0.0719999
0.00415686
0.00714997
0.00748454
0.0102576
0.0206688
0.0103528
0.00343939
0.00186996
0.00445443
0.00265769
0.00227574
0.00228232
0.00314425
0.00860062
0.0480002
0.0719999
0.00732016
0.00796363
0.0117138
0.0213224
0.010265
0.00336122
0.00194797
0.00745433
0.00471682
0.00304557
0.00245688
0.00259364
0.00498198
0.0158189
0.0682063
0.0719999
0.00851599
0.0129185
0.0214126
0.00990328
0.00324115
0.00200198
0.00918815
0.00756496
0.00504861
0.00325358
0.00256981
0.00332473
0.00864428
0.026325
0.0713726
0.0719999
0.0139725
0.0212205
0.00939975
0.00310955
0.00205994
0.0149001
0.0100419
0.00777425
0.00510976
0.00323681
0.00274484
0.00543899
0.0158227
0.0335034
0.0885462
0.0719999
0.0207304
0.0087681
0.00295235
0.00206301
0.0195013
0.0156042
0.011054
0.00798772
0.0049133
0.00309204
0.00382194
0.0111586
0.0264204
0.052187
0.111406
0.172948
0.00796808
0.00277532
0.00201622
0.00702768
0.0168598
0.0156511
0.0113244
0.00803377
0.00452737
0.00335186
0.007602
0.0227896
0.0496767
0.088416
0.157359
0.122555
0.0568889
0.00265897
0.00194232
0.00251292
0.00536489
0.013852
0.0150552
0.0111254
0.00795333
0.00443724
0.0052083
0.0168793
0.0470937
0.0863866
0.139751
0.117969
0.147125
0.124049
0.0568889
0.00186456
0.00178249
0.0021923
0.00439774
0.0115005
0.0149146
0.0107297
0.00789987
0.00503255
0.0102034
0.0372532
0.0838034
0.132332
0.113831
0.118977
0.343686
0.192323
0.142388
0.0568889
0.00158244
0.00206875
0.00375605
0.0098251
0.015092
0.010281
0.00810628
0.00670135
0.0217856
0.0717978
0.125087
0.10774
0.100937
0.215492
1.12699
0.598662
0.281601
0.160107
0.0744035
0.00146235
0.00203424
0.00335073
0.00827757
0.0154183
0.0100122
0.00878986
0.00991656
0.0466936
0.105153
0.093364
0.0881092
0.144342
0.633848
3.98447
1.98207
1.08072
0.452928
0.191006
0.112116
0.00144439
0.00200921
0.00301835
0.00665049
0.0156948
0.00973262
0.00951724
0.018419
0.0800932
0.0731409
0.0738458
0.101935
0.35659
2.21508
42.4351
6.39573
3.58202
1.93525
0.753218
0.248452
0.165319
0.00144379
0.00197226
0.00268116
0.00499793
0.0164416
0.00959646
0.0105261
0.0464923
0.0479848
0.0567576
0.0710126
0.197472
1.07255
21.0802
354.808
37.7796
354.95
357.749
357.823
10.3713
6.29989
3.42031
1.27814
0.356029
0.239439
0.00143966
0.00190295
0.00240646
0.00407256
0.0163999
0.00960086
0.014452
0.0256004
0.037934
0.049783
0.103677
0.474053
7.6564
139.253
333.388
460.988
27.4644
333.507
264.162
264.308
461.157
464.842
464.978
16.4153
10.5529
5.79814
2.14297
0.537648
0.302233
0.0014145
0.00184602
0.00222132
0.00378289
0.0213056
0.0131977
0.0151429
0.0208728
0.0336035
0.0509905
0.200773
2.07007
50.6153
422.496
422.567
422.794
422.834
426.979
506.653
37.9204
69.4004
427.158
329.721
329.916
506.584
514.219
514.137
24.9023
16.5739
8.86151
3
0.702144
0.359434
0.00138708
0.0018324
0.00222796
0.00579901
0.117046
0.0516463
0.0255375
0.0212251
0.0284882
0.0767981
0.498196
10.1837
390.769
390.834
298.447
298.66
553.281
553.381
570.369
570.322
474
490.481
783.624
480.969
801.119
50.5948
74.5923
292.979
292.976
320.892
320.868
473.929
422.118
422.08
490.324
785.561
481.448
800.872
500.499
795.915
496.458
817.297
499.934
797.071
496.596
815.872
35.3295
22.6388
10.7145
3.43987
0.84477
0.396217
0.00137434
0.00190208
0.00281482
0.0476054
0.839056
0.359981
0.229079
0.0570346
0.0310124
0.114828
2.0239
72.0143
71.9853
37.3621
37.5682
562.717
562.599
428.032
427.942
860.973
892.697
535.682
876.12
545.363
516.72
894.029
861.999
535.983
876.6
545.521
517.172
934.292
575.935
921.008
570.201
934.629
576.016
921.231
570.234
456.606
762.984
464.339
756.265
508.991
864.476
494.228
892.309
66.6806
96.9039
268.421
268.374
273.91
273.822
327.53
327.464
371.505
371.523
456.274
763.726
464.382
755.373
425.4
633.445
397.199
709.054
425.777
635.083
397.592
710.258
509.068
867.132
495.226
892.684
520.738
910.854
520.205
909.835
44.1462
24.8502
10.64
3.41594
0.953963
0.448322
0.00142347
0.0020824
0.0110587
0.437834
4.10802
1.72253
1.12589
0.310209
0.195727
2.3983
31.1677
31.2322
44.616
44.7672
237.921
238.149
297.821
298.068
945.007
579.635
943.276
577.977
945.638
579.831
945.885
578.81
807.599
478.672
833.145
492.947
809.675
479.384
836.673
494.559
927.148
916.27
543.441
528.998
963.501
560.507
928.566
917.243
529.592
543.763
963.952
560.693
1034.53
599.521
1018.71
591.037
1035.22
599.737
1018.91
591.099
468.668
843.05
480.56
826.946
517.722
884.307
500.646
915.447
77.4072
127.715
276.097
276.111
264.341
264.338
286.347
286.171
287.476
287.384
462.58
283.828
504.174
305.703
465.134
284.599
505.614
306.164
599.114
670.549
360.789
563.18
342.261
396.12
599.871
671.859
361.006
563.992
342.506
396.68
468.451
843.873
480.776
826.518
434.974
766.463
435.669
767.986
517.586
886.432
501.644
914.772
532.742
941.554
532.14
940.307
44.7285
22.6585
9.4164
2.94419
1.108
0.529465
0.00155719
0.00361424
0.121032
2.56578
14.1361
5.34554
4.04249
2.22777
2.3605
53.1999
53.421
60.0905
60.1987
277.436
277.276
322.319
322.431
673.334
374.714
668.266
370.097
674.432
375.244
670.303
371.008
694.71
400.987
713.686
407.761
697.705
402.463
716.098
409.045
1050.94
608.808
1046.77
606.755
1052.06
609.258
1049.27
607.895
975.04
552.316
983.365
559.264
977.783
553.478
986.596
561.134
472.288
861.02
486.745
840.239
72.6231
142.736
309.542
309.571
283.938
283.968
289.009
288.539
277.63
277.265
346.927
221.441
359.321
226.385
352.689
221.899
365.695
227.406
399.405
247.401
381.843
237.609
404.43
248.735
388.103
238.949
467.865
268.514
531.296
301.787
471.327
269.78
532.982
302.472
708.881
620.236
357.98
401.178
591.936
338.158
710.412
621.139
358.265
401.874
592.859
338.512
471.956
861.326
486.882
839.236
435.453
769.544
436.25
771.219
39.2031
19.1662
7.37831
2.22054
1.41032
0.658996
0.00182467
0.0297626
0.989961
9.50726
31.0805
18.9365
11.5659
7.66286
39.2531
314.053
314.29
319.058
319.216
439.789
439.652
467.331
467.365
884.231
490.713
872.542
483.99
885.6
491.326
874.16
484.791
856.343
482.335
885.103
496.201
859.317
483.937
887.387
497.513
991.043
560.786
994.017
561.966
61.2824
119.107
319.686
319.951
325.29
325.37
330.973
330.815
300.216
300.086
366.301
250.644
363.075
231.794
364.404
250.106
361.844
230.589
337.894
216.379
349.533
222.964
341.698
216.17
350.695
222.108
290.242
173.649
310.748
182.527
293.8
174.416
314.969
183.841
392.557
226.969
361.803
207.735
398.192
228.999
367.325
209.671
33.2398
15.1088
4.70627
1.83375
1.95551
0.79812
0.00508
0.309641
4.95884
23.9695
47.0241
45.8291
21.8599
26.1104
295.201
295.308
282.902
283.017
442.886
442.76
426.506
426.723
466.611
772.487
465.699
774.169
466.644
772.675
465.888
774.233
479.357
773.597
473.396
786.869
479.441
775.656
474.075
786.89
940.623
527.379
942.529
528.421
942.192
528.067
943.818
529.127
920.526
519.555
946.936
533.525
923.374
521.05
948.689
534.633
52.694
92.962
212.272
340.383
340.827
353.737
353.541
340.637
340.024
286.824
286.784
341.808
233.117
327.397
203.746
341.236
232.932
327.196
203.585
285.238
174.675
301.159
185.472
285.918
174.695
301.32
185.386
256.826
155.61
260.162
156.493
26.6517
9.89071
3.10412
2.34175
2.60952
0.677682
0.0580661
1.98843
15.9798
41.4021
58.0287
67.1407
79.2421
54.6173
422.361
422.188
392.414
392.292
740.516
452.61
451.348
728.061
742.127
453.145
451.335
728.195
484.895
484.824
499.448
857.695
491.237
875.022
499.413
858.418
491.566
874.65
509.086
869.21
497.895
891.081
509.174
871.195
498.81
891.063
919.518
520.172
922.496
521.496
42.4454
80.9416
144.709
450.811
450.685
451.566
451.142
395.071
395.118
384.423
383.019
282.706
509.441
306.04
467.885
282.17
507.604
304.333
467.738
253.046
366.226
227.833
411.239
253.245
367.032
228.144
412.111
315.53
195.898
278.626
173.329
316.257
196.092
279.692
173.751
238.858
148.639
247.532
154.821
240.326
149.103
249.029
155.376
18.6328
6.53844
3.37643
3.53002
1.69745
0.523017
8.05631
32.2622
53.725
70.3948
101.624
189.736
295.104
295.04
218.572
218.689
710.121
433.045
687.501
428.75
710.748
433.229
689.022
429.049
455.774
455.703
836.244
479.094
473.593
812.764
837.931
479.856
473.728
813.341
746.461
461.956
757.959
467.821
747.464
462.129
757.868
467.747
512.517
885.952
503.909
902.206
512.859
888.228
504.887
903.237
30.7306
63.4184
128.335
245.198
495.094
494.464
501.459
499.759
443.566
442.915
555.408
332.617
366.393
592.611
551.867
330.416
364.623
588.887
286.881
534.242
311.252
489.712
285.934
533.124
310.659
487.832
253.305
363.361
219.973
426.542
253.095
364.914
220.512
426.266
298.333
185.911
300.632
186.714
12.7301
6.24299
4.99027
3.00454
2.81024
19.9385
45.0115
62.3708
86.1423
142.521
379.547
379.582
402.432
402.494
319.155
319.034
382.46
382.142
801.709
458.661
771.324
450.761
802.567
459.095
772.313
451.165
441.982
678.781
423.83
717.721
442.057
680.282
424.112
717.935
861.408
489.433
483.965
847.137
862.082
489.932
483.903
846.904
826.489
474.585
828.299
477.796
827.647
475.002
828.178
477.765
21.692
45.898
93.5068
223.583
477.437
477.084
524.356
523.95
556.033
554.82
746.007
436.707
771.446
461.08
741.485
434.164
768.946
459.036
711.309
415.987
646.839
379.903
626.023
369.125
710.059
414.81
647.31
379.821
623.839
368.175
579.504
336.23
579.019
336.063
287.823
551.11
321.449
489.265
287.003
550.866
321.152
487.457
10.9386
7.64521
4.5444
9.19417
32.2552
51.7949
68.5631
98.4164
199.643
418.795
418.574
401.003
400.958
458.417
703.323
300.323
476.959
304.028
410.116
704.88
458.216
410.717
300.204
475.974
303.337
634.812
370.186
572.069
337.723
634.066
369.415
569.572
336.468
826.101
468.788
811.341
462.804
827.018
469.283
812.132
463.204
443.581
768.607
443.71
768.728
485.141
851.067
485.053
850.877
836.821
476.464
838.248
476.988
17.6481
32.9486
64.5625
142.994
446.633
446.796
475.033
474.897
534.347
533.133
587.606
586.799
478.901
833.731
493.256
826.47
470.318
819.678
477.224
829.476
490.048
823.781
469.172
817.724
787.8
449.222
786.883
448.776
754.85
430.832
677.316
637.805
393.451
369.537
755.467
431.157
677.477
639
393.555
369.863
587.428
340.475
588.884
341.05
11.4449
6.34674
18.6069
39.2664
53.9633
66.805
102.907
279.454
279.422
229.552
229.667
448.211
447.748
373.94
373.847
678.742
503.423
309.956
396.13
575.615
337.129
680.799
501.859
396.957
309.184
571.947
335.514
687.068
392.997
650.721
371.67
684.452
391.598
646.766
369.901
810.059
460.95
810.74
461.304
16.444
26.1621
46.02
90.3612
239.751
483.388
483.408
510.843
510.338
782.915
467.733
805.544
468.808
780.471
465.722
803.594
467.644
871.627
887.663
499.893
845.755
488.02
507.247
870.599
883.038
499.181
846.107
487.685
504.728
485.483
474.191
850.943
833.321
483.765
473.321
847.451
831.876
794.75
452.633
795.497
453.04
757.242
435.51
645.977
378.314
759.44
436.577
648.459
379.097
8.3525
26.1435
40.8988
48.6403
54.9473
110.047
255.31
255.298
242.621
242.583
371.777
687.457
395.798
634.189
371.235
685.41
394.957
632.585
354.489
354.351
698.489
398.651
674.544
384.279
696.982
397.838
672.595
383.443
10.4652
22.5788
35.9869
62.0157
132.446
401.706
402.008
499.939
499.792
520.689
520.426
571.848
571.21
834.77
479.614
828.271
472.217
835.031
479.749
829.106
472.612
892.475
872.061
507.106
493.118
862.174
488.209
888.854
872.05
492.974
505.135
863.495
488.618
479.412
843.051
478.629
841.558
28.665
37.0798
38.9273
49.0134
226.889
226.151
197.935
197.115
294.865
294.68
263.365
263.116
346.441
646.826
375.531
584.763
346.647
648.266
375.855
585.673
429.448
265.758
480.458
288.923
429.775
265.587
480.099
288.773
678.351
390.311
679.624
390.611
12.5994
29.5618
47.2781
84.9
207.868
419.159
419.398
516.953
516.182
590.693
588.726
487.312
846.16
489.063
815.261
486.473
846.391
489.367
813.917
842.443
479.692
817.515
467.959
845.238
481.07
818.334
468.563
23.3903
30.9028
29.6131
67.6493
193.695
190.859
132.372
128.697
470.709
279.169
284.914
451.622
268.244
477.683
471.494
279.521
284.483
451.397
268.32
475.654
267.859
267.098
312.801
586.254
343.359
527.173
312.765
586.505
343.447
527.02
480.78
282.046
481.353
282.302
14.6901
37.268
61.4852
122.129
351.027
351.229
411.375
411.326
427.567
428.238
547.349
545.775
829.751
493.446
869.467
501.045
872.769
502.341
823.389
488.329
864.991
498.242
870.418
501.263
870.452
494.01
872.772
495.151
850.299
483.488
854.898
485.592
19.0268
21.5078
27.7611
110.943
110.716
82.6937
82.4404
150.162
148.329
130.313
129.127
429.785
258.773
226.084
385.553
233.042
368.161
429.831
258.797
226.24
384.729
233.112
367.375
296.519
199.256
308.786
187.074
292.161
198.235
306.638
187.757
16.6749
46.052
81.2843
192.699
380.712
380.528
438.283
437.432
496.565
495.712
863.893
495.272
425.995
791.549
461.304
691.567
426.387
788.228
459.601
692.868
858.133
491.973
862.434
871.903
494.312
497.428
856.927
870.973
492.073
496.853
863.178
490.77
866.325
492.048
11.2601
17.7333
30.915
114.158
114.019
82.0295
82.012
222.991
154.129
147.17
202.868
144.07
198.126
218.074
154.945
146.759
202.448
143.157
197.035
139.421
139.293
186.043
312.932
185.403
310.056
245.926
154.226
241.342
153.555
18.4874
56.6051
110.428
322.002
322.006
367.558
367.332
390.564
390.131
472.671
470.779
659.219
406.49
716.579
418.457
742.983
432.539
654.277
743.322
432.414
402.75
714.944
417.51
838.129
480.251
775.368
448.061
774.197
831.847
447.434
477.579
8.31591
20.2028
33.4483
114.706
114.774
78.636
78.6823
216.435
141.613
157.774
244.493
155.871
228.098
216.4
140.951
155.357
241.598
154.337
223.623
185.044
166.631
212.834
164.15
182.08
162.949
208.306
161.524
212.619
141.967
211.883
140.517
20.0832
69.5368
151.763
345.843
345.508
378.62
377.532
438.911
436.967
711.365
412.272
375.85
673.758
394.081
594.983
707.449
409.936
373.27
669.04
391.718
590.779
728.113
737.062
415.759
424.048
739.009
424.648
725.392
414.457
9.25871
16.2005
91.8246
84.7641
84.7947
91.7943
74.89
75.2693
118.316
194.101
165.554
118.402
191.761
163.389
233.245
148.504
166.558
266.741
166.141
260.646
232.154
147.253
162.378
259.904
163.282
251.997
230.881
163.565
225.831
160.359
21.3395
84.6677
196.172
354.277
353.775
404.44
402.645
554.542
361.206
620.825
365.375
649.918
379.573
547.211
645.031
376.754
355.614
616.682
363.024
716.009
407.38
675.672
386.322
713.072
405.766
673.093
385.021
725.268
412.867
722.616
411.68
7.06604
14.8768
108.454
132.89
108.012
132.686
100.064
100.146
184.552
181.506
156.351
185.72
164.111
161.636
183.413
183.126
179.091
180.561
153.794
184.037
162.161
159.009
182.024
180.194
168.073
260.749
163.392
250.712
217.379
157.373
213.864
154.958
22.0378
100.255
307.567
371.52
370.913
307.445
362.569
362.3
427.603
595.137
362.427
426.612
589.839
358.812
652.415
623.619
373.049
359.951
650.402
371.956
620.718
358.476
702.927
399.799
666.097
382.043
700.686
398.755
665.418
381.617
3.77523
21.8524
147.293
166.198
177.285
141.143
146.79
166.001
176.827
141.08
100.932
101.168
196.23
184.121
202.227
152.307
144.477
139.703
191.05
199.062
181.426
149.923
140.732
138.359
162.605
239.58
159.156
232.838
21.6217
121.914
315.265
390.245
389.864
314.546
368.61
367.2
578.178
610.679
358.625
606.786
362.939
343.265
513.987
344.452
578.237
609.504
357.608
602.62
360.096
343.53
512.652
342.407
645.832
630.078
371.193
363.389
644.508
370.629
627.107
362.274
2.93398
140.888
117.452
117.216
140.202
104.384
104.065
223.706
178.484
204.454
169.089
203.359
200.2
252.314
198.001
168.989
224.792
187.854
219.895
179.244
203.7
168.686
203.641
196.345
245.995
194.742
168.837
220.922
184.032
190.112
213.556
139.048
156.146
185.961
213.474
136.745
156.364
19.7254
108.527
285.367
423.943
341.402
550.31
422.433
342.789
553.116
283.248
373.136
368.407
610.251
572.418
631.166
350.727
365.532
331.374
612.162
575.814
629.25
365.293
351.762
332.974
636.076
369.2
634.3
368.815
15.2568
164.722
171.104
164.361
170.665
123.889
123.67
219.455
260.886
182.816
164.125
270.341
187.061
287.767
249.06
190.837
249.165
195.957
216.045
251.513
212.012
218.628
253.707
163.982
179.396
263.875
183.128
247.039
282.413
189.066
245.948
192.698
213.262
248.834
209.779
15.135
73.9056
264.64
262.341
74.6725
111.95
113.606
527.584
343.901
585.606
345.703
565.174
356.735
588.587
349.986
514.864
344.133
584.779
344.579
566.613
347.404
581.87
346.323
368.321
564.696
350.836
362.681
547.943
339.735
593.612
577.594
341.354
335.233
598.096
580.87
343.255
336.571
19.6645
177.506
196.779
246.496
194.05
177.281
197.758
247.491
193.753
141.054
141.002
272.944
184.352
291.82
195.706
301.395
288.791
281.347
191.736
199.178
195.601
265.982
180.401
286.232
192.058
294.297
278.479
287.942
189.713
195.05
195.508
15.2557
77.1182
215.389
212.949
78.2503
108.867
109.367
588.832
597.129
340.062
343.285
591.812
342.326
590.568
593.31
340.667
341.281
582.467
337.448
409.836
535.313
317.496
561.637
340.715
266.406
371.477
285.789
392.292
517.011
307.367
543.604
329.467
257.702
360.774
278.574
54.1537
140.745
140.891
194.21
198.33
252.708
201.333
245.397
191.792
194.061
200.426
251.369
200.025
247.809
191.581
301.373
293.658
283.504
195.983
191.598
189.164
294.917
291.249
285.49
192.091
190.238
190.589
20.2922
91.5141
220.782
251.705
340.421
218.214
250.875
335.493
91.624
78.6814
88.6858
593.489
342.702
596.658
344.421
587.24
340.294
583.196
338.222
480.487
342.882
583.755
278.663
334.414
211.579
462.142
328.603
567.87
327.562
270.875
206.357
18.8472
150.771
134.988
150.867
135.16
187.577
205.362
267.487
207.538
263.128
293.987
194.757
155.817
187.583
207.376
266.467
206.389
265.695
290.75
192.959
155.781
277.38
182.351
278.428
182.614
25.9562
122.404
122.236
207.318
252.394
343.689
256.776
336.508
207.135
249.678
333.813
250.298
330.587
100.861
104.562
401.396
531.19
338.112
249.859
307.138
208.762
387.746
514.421
326.618
301.361
246.612
205.438
19.9398
121.583
139.349
121.774
139.491
122.097
122.166
150.225
200.846
256.245
199.688
255.429
193.172
304.765
200.514
291.994
289.9
188.92
150.307
203.686
258.564
200.99
259.051
195.222
302.087
198.833
296.039
286.047
186.642
30.4513
142.905
176.93
143.213
177.383
199.994
245.804
334.198
251.263
325.021
319.987
198.766
199.678
249.692
330.68
248.78
330.981
311.563
196.001
148.986
149.549
367.784
239.806
359.529
239.584
17.0933
149.87
151.767
150.127
151.767
155.598
184.708
155.434
184.565
138.095
137.976
179.467
229.219
188.429
215.006
184.438
275.219
186.945
271.999
191.725
301.887
195.662
292.435
180.506
229.77
188.37
216.01
187.889
278.92
188.86
278.354
192.651
298.074
193.452
294.777
28.6035
194.597
202.424
195.133
202.721
194.835
195.329
208.122
243.344
336.207
247.637
328.367
199.956
313.963
194.406
324.286
347.899
230.278
207.874
246.433
332.848
244.546
334.023
201.177
310.307
193.025
328.32
340.797
229.807
2.29257
135.072
115.426
135.108
115.202
211.266
218.756
211.118
218.504
158.818
186.392
158.805
186.348
170.206
214.443
170.165
210.789
171.783
216.021
171.449
212.699
170.896
251.474
176.148
240.329
171.844
252.634
176.771
241.797
22.5868
208.707
183.261
208.873
183.758
240.481
248.645
240.472
248.416
236.304
236.16
237.321
328.432
246.306
303.24
211.1
345.729
214.322
342.791
222.758
338.275
219.893
349.182
240.233
325.391
243.453
308.277
212.563
349.713
215.294
347.533
223.014
334.681
219.406
350.271
23.3138
3.20266
195.985
160.367
195.65
159.776
229.517
245.748
229.387
245.485
188.417
225.229
185.467
226.421
197.965
273.243
206.771
252.801
190.971
228.288
187.837
229.539
199.782
273.554
206.589
255.061
172.332
253.105
173.064
250.293
173.595
255.513
174.547
252.564
16.4574
150.781
104.926
151.47
105.889
245.904
209.2
245.552
209.662
291.151
304.973
289.847
303.221
243.437
344.59
252.397
315.411
245.081
341.677
250.69
317.932
208.516
334.626
211.725
308.613
210.267
338.228
212.715
314.247
13.7279
137.189
118.927
136.994
119.134
5.08914
220.055
193.275
219.711
192.935
237.105
330.317
234.477
334.454
252.105
363.524
253.98
360.45
238.712
331.276
234.732
336.934
252.862
361.682
252.511
361.617
178.915
253.508
178.185
251.073
194.152
311.751
208.04
283.182
181.311
258.015
180.867
255.132
195.595
311.854
207.974
285.71
16.8612
68.2421
169.385
152.914
170.836
154.291
305.298
280.275
303.276
278.435
278.499
397.6
268.994
418.091
281.107
440.549
286.204
427.83
276.721
391.986
265.9
414.306
279.601
432.227
281.45
424.157
225.958
365.755
241.396
331.37
226.385
364.112
241.194
332.652
13.6504
109.666
71.6971
109.865
72.2322
197.187
167.767
197.103
167.683
6.61727
229.619
329.862
235.464
318.393
219.789
294.72
228.195
300.383
230.84
328.211
234.271
320.003
220.203
291.804
225.808
300.733
239.188
371.999
235.976
378.596
255.667
423.655
260.567
413.128
241.46
373.168
236.509
382.797
256.916
419.68
258.49
415.431
21.259
92.8217
184.404
196.618
182.163
194.21
249.983
203.486
247.642
202.927
283.292
440.038
285.653
436.469
275.736
406.181
274.625
413.801
281.178
431.055
280.252
432.806
274.86
395.168
268.819
410.505
280.745
426.375
262.417
464.924
284.188
473.814
283.012
475.035
279.227
422.61
261.343
459.354
282.565
468.518
281.604
468.627
31.2082
15.7153
144.845
79.6894
144.705
79.7549
304.789
344.257
215.848
298.639
217.552
240.695
254.236
207.916
270.794
204.298
301.56
338.362
213.532
294.304
213.938
237.614
249.627
203.781
265.751
200.222
8.2852
233.984
390.458
242.689
372.962
229.463
359.093
235.205
386.825
240.971
374.188
229.187
357.525
258.382
435.839
263.302
424.093
258.604
430.622
260.343
424.898
23.6191
100.753
240.624
257.73
239.711
257.523
269.321
277.82
266.28
274.311
264.417
379.541
269.685
341.522
245.324
345.513
260.203
337.587
261.936
367.023
261.871
338.285
246.342
343.024
255.096
336.585
276.687
466.64
279.258
468.301
259.518
415.015
243.801
439.573
274.87
463.012
278.001
463.208
256.754
403.342
240.075
430.412
27.5572
76.053
76.8652
76.2996
76.865
17.4367
156.885
106.915
156.47
106.519
376.679
344.35
236.742
221.47
346.347
221.538
285.722
212.033
323.516
211.922
368.584
339.713
232.267
218.703
339.374
217.397
278.464
208.062
315.453
207.2
13.0929
236.654
403.086
246.091
384.994
233.548
377.224
236.836
398.667
243.679
385.185
231.868
373.564
23.3469
92.8692
213.216
306.703
346.107
305.303
345.558
356.261
325.699
242.496
399.907
274.009
249.749
430.269
313.876
430.984
294.791
321.405
349.949
237.366
392.027
267.369
244.325
424.343
307.407
423.303
287.798
182.719
354.17
212.501
285.163
195.664
294.271
181.793
346.012
209.658
282.567
194.491
292.388
265.311
404.012
247.367
437.828
265.108
396.619
247.086
430.868
31.0546
71.4651
76.5334
71.4404
76.1428
108.992
98.9554
108.935
98.8714
24.3816
183.485
215.148
175.486
210.096
162.671
181.073
181.392
176.906
184.329
214.673
175.224
210.601
163.187
180.691
177.964
177.105
377.549
234.438
300.408
202.717
325.46
210.836
369.782
230.119
292.516
198.811
317.148
206.289
21.249
22.0654
76.3792
176.317
443.684
441.388
442.18
440.754
387.085
409.042
385.646
406.795
299.148
366.47
227.237
194.664
412.112
246.836
463.845
288.336
435.994
257.914
299.353
363.877
193.736
226.135
411.507
246.189
463.103
288.164
436.449
257.522
191.51
343.734
222.379
264.206
182.334
247.378
191.414
338.553
221.888
261.455
183.705
252.132
75.2182
33.7007
88.9873
91.5841
88.7787
90.4884
164.278
164.583
149.807
171.231
150.019
149.555
171.299
142.547
178.456
145.485
163.377
162.331
148.155
170.339
148.64
147.071
171.587
141.489
178.152
144.467
35.7393
153.155
226.407
166.594
213.222
124.15
159.097
153.725