/*--------------------------------*- C++ -*----------------------------------*\
| =========                 |                                                 |
| \\      /  F ield         | OpenFOAM: The Open Source CFD Toolbox           |
|  \\    /   O peration     | Version:  5.x                                   |
|   \\  /    A nd           | Web:      www.OpenFOAM.org                      |
|    \\/     M anipulation  |                                                 |
\*---------------------------------------------------------------------------*/
FoamFile
{
    version     2.0;
    format      ascii;
    class       volScalarField;
    location    "1.6";
    object      p;
}
// * * * * * * * * * * * * * * * * * * * * * * * * * * * * * * * * * * * * * //

dimensions      [1 -1 -2 0 0 0 0];

internalField   nonuniform List<scalar> 
12160
(
5303.76
5317.93
4649.82
5326.59
4664.06
3996.14
5333.95
4672.68
4010.49
3342.26
5340.7
4680.01
4018.96
3356.89
2688.89
5346.3
4686.86
4026.35
3365.02
2703.86
2034.89
5351.17
4692.38
4033.24
3372.67
2711.46
2050.67
1381.97
5356.71
4697.01
4038.63
3379.83
2719.38
2057.42
1398.39
727.214
5364.8
4702.16
4042.76
3384.98
2726.78
2065.85
1403.84
746.48
206.113
5377.23
4709.85
4047.15
3388.36
2731.72
2074.02
1412.99
750.183
216.197
2.66252
5394.96
4722.01
4054.1
3391.51
2734.07
2078.84
1421.87
760.582
217.941
1.57379
-6.65485
5417.35
4739.53
4065.88
3397.16
2735.48
2079.89
1426.61
771.321
225.617
2.74853
-6.8508
-7.46216
5443.09
4762.34
4083.86
3408.04
2739.37
2078.86
1426.08
778.039
236.917
4.63965
-6.81707
-7.47672
-8.25114
5470.2
4788.48
4106.86
3425.4
2749.26
2080.17
1421.82
776.875
244.585
8.60333
-6.82386
-7.4997
-8.18925
-8.77825
5496.76
4815.98
4133.85
3449.67
2767.52
2088.3
1419.71
769.3
245.184
12.6474
-6.80975
-7.51177
-8.1623
-8.80196
-9.53586
5521.15
4842.95
4162.44
3478.05
2792.36
2105.65
1425.65
763.003
238.758
14.7534
-6.78838
-7.53196
-8.16523
-8.81872
-9.50333
5542.31
4867.7
4190.24
3508.12
2822.51
2132.46
1444.09
765.868
232.157
14.2177
-6.72825
-7.54309
-8.17439
-8.82543
-9.48351
5559.79
4889.01
4215.32
3537.05
2854.66
2165.34
1472.63
783.66
232.409
12.9979
-6.64156
-7.53428
-8.1849
-8.83284
-9.48156
5573.76
4906.5
4236.77
3563.22
2885.69
2200.45
1508.61
812.468
242.911
13.219
-6.54939
-7.50228
-8.18252
-8.83531
-9.48256
5584.61
4920.34
4254.15
3585.07
2912.64
2233.46
1547.51
851.159
264.167
15.8365
-6.4582
-7.45631
-8.16595
-8.83195
-9.4858
5592.89
4931
4267.69
3602.36
2934.76
2262.56
1584.49
893.906
293.929
21.3333
-6.34512
-7.43169
-8.13601
-8.82016
-9.48501
5599.14
4939.08
4277.92
3615.43
2951.8
2285.28
1614.22
932.898
329.036
30.3399
-6.15787
-7.42968
-8.11712
-8.80278
-9.48249
5603.76
4945.16
4285.57
3625.01
2964.17
2302.04
1637.25
966.499
362.845
42.6235
-5.82348
-7.44725
-8.11467
-8.79391
-9.47704
5607
4949.69
4291.3
3631.98
2972.8
2313.43
1653.45
990.735
389.017
55.5047
-5.21703
-7.48608
-8.12856
-8.79346
-9.47408
5608.89
4952.92
4295.62
3637.15
2978.81
2320.71
1663.47
1006.66
406.983
65.6812
-4.28082
-7.53839
-8.15812
-8.80192
-9.47434
5609.29
4954.89
4298.83
3641.15
2983.2
2325.37
1668.92
1015.06
417.586
72.5389
-3.24884
-7.58157
-8.19865
-8.819
-9.47751
5607.89
4955.46
4300.97
3644.3
2986.73
2328.67
1671.78
1018.24
421.892
76.3561
-2.47741
-7.5979
-8.23591
-8.84208
-9.48313
5604.3
4954.31
4301.9
3646.7
2989.82
2331.54
1673.65
1018.86
422.235
77.6115
-2.03636
-7.58325
-8.25669
-8.86277
-9.48961
5598.07
4951.01
4301.24
3648.16
2992.55
2334.48
1675.7
1018.85
420.572
77.1412
-1.86647
-7.55306
-8.25808
-8.87403
-9.4947
5588.78
4945.09
4298.55
3648.27
2994.73
2337.64
1678.48
1019.55
418.86
75.9693
-1.87166
-7.51699
-8.24585
-8.87617
-9.49803
5576.1
4936.09
4293.27
3646.5
2995.89
2340.77
1682.12
1021.88
418.35
74.9914
-1.95198
-7.48057
-8.22432
-8.86968
-9.49793
5559.8
4923.64
4284.9
3642.21
2995.4
2343.32
1686.36
1026.14
419.898
74.7645
-2.01721
-7.44841
-8.199
-8.85776
-9.49585
5539.73
4907.48
4273
3634.78
2992.5
2344.54
1690.61
1031.95
423.683
75.4242
-2.01843
-7.42195
-8.17641
-8.84344
-9.49221
5516.11
4887.46
4257.28
3623.66
2986.41
2343.49
1693.98
1038.5
429.409
76.8816
-1.93814
-7.40974
-8.15603
-8.83011
-9.48781
5489.07
4863.71
4237.63
3608.47
2976.44
2339.19
1695.34
1044.58
436.338
79.1693
-1.79498
-7.4098
-8.14437
-8.81849
-9.48363
5458.97
4836.76
4214.18
3588.99
2962.16
2330.72
1693.4
1048.88
443.481
82.289
-1.56976
-7.40463
-8.14221
-8.8115
-9.48003
5426.38
4806.5
4186.52
3565.11
2943.38
2317.49
1686.89
1049.88
449.558
85.7931
-1.26183
-7.40533
-8.14324
-8.8095
-9.47788
5391.88
4773.66
4155.83
3537.83
2920.15
2299.17
1675.18
1045.46
453.166
89.1107
-0.912528
-7.42096
-8.15299
-8.81068
-9.47706
5356.08
4738.85
4122.4
3506.58
2891.67
2275.16
1658.07
1035.11
452.889
91.5168
-0.576311
-7.44435
-8.17058
-8.81689
-9.47741
5319.63
4702.7
4086.92
3472.35
2859.48
2247.12
1635.97
1018.29
447.39
92.1777
-0.3249
-7.47314
-8.19342
-8.82721
-9.47962
4665.88
5259.2
4050.05
3435.88
2823.98
2213.83
1605.92
993.942
436.347
90.6691
-0.24884
-7.50724
-8.21995
-8.84064
-9.48292
4012.46
4604.82
5177.45
3397.94
2786.07
2176.77
1571.07
966.081
419.237
86.5239
-0.419078
-7.54532
-8.24845
-8.85604
-9.48721
3359.22
3950.13
4522.25
5110.3
2746.6
2137.09
1531.9
929.771
395.079
79.4119
-0.911948
-7.58817
-8.27586
-8.87222
-9.49209
2706.31
3295
3865.9
4454.47
5051.99
2095.74
1489.93
888.776
364.839
68.8897
-1.78572
-7.63099
-8.29945
-8.88761
-9.49716
2053.49
2639.43
3208.24
3796.89
4395.9
5017.01
1446.27
845.436
331.443
55.7606
-3.01705
-7.65761
-8.31582
-8.90073
-9.50195
1401.63
1983.23
2549.16
3137.44
3737.97
4360.87
4985.36
800.915
298.316
42.5817
-4.22361
-7.65507
-8.31974
-8.90971
-9.50605
755.789
1327.21
1888.43
2476.01
3078.27
3702.99
4326.95
4959.13
266.752
31.2355
-5.11519
-7.62635
-8.30721
-8.91213
-9.50903
236.645
681.555
1227.17
1812.47
2416.73
3042.76
3666.42
4301.58
4937.57
21.8541
-5.68942
-7.58991
-8.28016
-8.90517
-9.50989
14.2994
192.03
584.874
1148.67
1753.11
2380.63
3005.23
3641.73
4270.95
4908.47
-6.06916
-7.56122
-8.24534
-8.8908
-9.5094
-6.32057
6.02227
140.437
513.259
1089.79
1716.6
2344.7
2983.21
3601.68
4229.61
4885.02
-7.53891
-8.21841
-8.87355
-9.50785
-7.51413
-6.56839
-0.127378
106.556
464.222
1053.36
1683.14
2324.9
2936.81
3533.2
4187.45
5013.96
-8.19832
-8.85953
-9.50509
-8.17886
-7.48866
-6.66854
-2.56955
85.822
434.751
1024.01
1667.35
2286.53
2869.19
3461.77
4207.76
4687.8
5526.42
-8.84844
-9.50205
-8.83724
-8.15835
-7.44486
-6.68847
-3.59629
74.5831
414.725
1012.98
1642.21
2239.75
2769.57
3435.28
4063.34
4526
5269.01
6005.38
-9.49919
-9.49629
-8.82521
-8.12541
-7.42118
-6.70329
-4.01644
68.3538
408.799
998.826
1620.59
2141.14
2752.52
3439.77
3986.78
4300.51
5052.72
5826.04
6533.87
-9.494
-8.80483
-8.10634
-7.41483
-6.7084
-4.18327
67.3948
400.342
1001.63
1572.19
2188.57
2855.68
3430.74
3828.97
4013.03
4785.39
5598.19
6398.55
7119.78
-9.48524
-8.79151
-8.09984
-7.41082
-6.70124
-4.23397
64.4461
407.929
1038.06
1666.72
2308.05
2889.95
3342.57
3600.2
3677.31
4458.67
5311.28
6174.98
7013.1
7785.78
-9.47732
-8.78552
-8.09541
-7.40437
-6.67625
-4.38185
62.7837
444.01
1113.9
1752.6
2353.58
2837.85
3185.75
3337.94
3321.01
4076.28
4962.12
5887.36
6808.88
7697.43
8522.22
-9.47236
-8.78146
-8.08733
-7.39627
-6.63464
-4.77592
67.6436
508.871
1175.17
1796.08
2319.71
2750.74
2982.29
3016.5
2368.08
3686.46
2371.86
2277.75
2280.61
4559.5
5528.76
6529.4
7513.1
8445.51
9313.45
-9.46904
-8.77571
-8.06543
-7.38428
-6.56838
-5.14042
92.7459
541.123
1194.42
1762.26
2258.64
2584.4
2753.25
2681.4
2494.35
2164.88
4125.41
2498.15
2651.42
2653.93
2166.81
2059.88
2061.12
5133.09
6191.25
7261.68
8289.89
9245.92
10147.6
-9.46567
-8.76755
-8.02335
-7.32405
-6.48881
-5.27873
104.497
551.812
1160.56
1688.8
2119.16
2418.03
2541.13
1859.04
1857.43
1835.78
1837.05
2259.13
1948.19
4679.07
3551.18
2260.72
2360.98
2362.23
1941.86
1893.92
1889.99
5810.27
6959.19
8088.65
9118.02
10084.8
11020.7
-9.46116
-8.76069
-7.99075
-7.21825
-6.39024
-5.17205
110.136
534.337
1088.44
1580.66
1987.94
2260.34
1811.48
1812.82
1748.9
1750.03
1693.52
1691.59
1703.59
1701.04
1988.81
1557.14
1464.82
1555.86
1468.31
5368.37
3991.08
2269.24
2269.69
2153.42
2151.58
1983.24
2055.36
2050.59
1553.75
1463.92
1553.36
1465.73
1565.53
1425.61
1592.68
1468.46
1562.77
1426.36
1590.2
1466.02
6611.23
7839.42
8960.53
9973.57
10955
11929.5
-9.45122
-8.72056
-7.92662
-7.07474
-6.26369
-5.06992
105.807
468.184
995.843
1461.85
1843.96
1662.17
1663.35
1545.11
1546.4
1718.16
1714.24
1692.75
1687
1315.83
1358.47
1383.63
1313.39
1392.92
1439.03
1356.87
1318.23
1384.02
1314.59
1393
1438.36
1382.5
1468.19
1348.58
1437.85
1383.7
1468.2
1349.84
1437.94
1565.75
1459.53
1550.52
1472.17
1415.57
1393.25
1404.98
1403.62
6189.64
4688.77
2638.47
2636.47
2413
2411.93
1913.26
1911.09
1773.48
1771.51
1563.95
1460.59
1548.98
1471.61
1592.72
1470.35
1652.92
1491.11
1590.59
1474.68
1652.36
1489.85
1415.61
1395.33
1405.64
1404.93
1431.73
1405.79
1431.46
1405.94
7531.71
8762.54
9843.25
10840.6
11849.1
12884.2
-9.44164
-8.66956
-7.83641
-6.94069
-6.09414
-4.92771
74.4652
392.252
880.456
1335.08
1377.62
1377.76
1237.13
1237.41
1617.84
1611.21
1507.11
1499.03
1392.81
1471.75
1365.7
1445.13
1394.63
1471.9
1371.51
1446.09
1378.79
1453.31
1357.57
1426.76
1382.5
1453.6
1362.15
1427.23
1326.77
1322.35
1355.95
1359.52
1330.09
1350.76
1327.87
1324.68
1359.97
1356.6
1331.46
1351.25
1396.17
1413.83
1367.49
1383
1398.73
1414.7
1369
1383.6
1388.82
1383.02
1398.13
1369.12
1330.73
1300.18
1310.51
1321.07
7140.49
5560.91
3317.86
3315.52
2946.61
2942.78
2306.57
2299.98
2074.84
2070.9
1374.39
1473.14
1353.12
1453.79
1382.9
1475.98
1360.17
1456.31
1269.7
1359.95
1333.15
1334.52
1432.04
1447.12
1273.51
1357.54
1333.71
1340.04
1433.82
1446.36
1389.39
1385.65
1399.1
1371.53
1405.35
1373.79
1405.63
1375.35
1330.87
1302.41
1311.64
1320.57
1361.8
1338.97
1361.73
1338.83
8509.67
9677.88
10723.2
11710
12770.6
13872.8
-9.42568
-8.61053
-7.73631
-6.7876
-5.88826
-4.72913
39.8481
319.987
753.405
1032.04
1032.62
812.135
812.944
1334.72
1332.01
1183.4
1183.41
1342.71
1438.88
1291.74
1382.27
1345.64
1438.35
1296.25
1382.16
1219.75
1325.28
1232.2
1326.01
1220.24
1323.51
1233.58
1324.33
1419.85
1435.73
1412.46
1424.7
1421.83
1436.41
1414.41
1425.57
1413.86
1427.58
1390.17
1395.22
1417.14
1428.83
1391.41
1395.96
1283.35
1287.86
1298.11
1266.51
8196.04
6628.6
4145.74
4145.78
3685.21
3685.27
3030.17
3017.82
2619.77
2609.81
1691.68
1775.95
1562.26
1648.21
1697.11
1777.8
1569.09
1651
1403.36
1488.77
1470.54
1563.4
1411.94
1491.97
1479.74
1566.43
1293.3
1331.52
1266.98
1301.31
1302.45
1334.93
1274.02
1304.23
1241.99
1232.81
1267.99
1262.86
1263.13
1294.3
1242.97
1237.24
1269.55
1262.96
1268.58
1296.53
1283.59
1289.21
1298.78
1266.61
1268.93
1247.58
1269.79
1249.94
9470.34
10575.7
11595.1
12585.2
13711.3
14875.5
-9.4057
-8.55169
-7.62362
-6.57931
-5.69662
-4.39352
17.4066
246.762
601.897
985.798
986.021
735.853
736.401
1294.53
1292.91
1157.88
1155.68
1369.36
1380.89
1323.84
1335.05
1370.34
1381.36
1324.09
1335.14
1211.19
1255.11
1268.57
1288.34
1210.4
1254.75
1268.08
1288.09
1394.07
1409.95
1398.08
1411.24
9234.88
7850.55
5131.65
5137.32
4596.17
4597.48
3875.12
3868.39
3416.47
3406.71
2331.75
2552.84
2156.99
2280.74
2336.87
2553.46
2159.78
2281.16
1850.85
1934.72
2001.85
2116.85
1851.12
1934.94
2007.91
2118.16
1585.74
1635.29
1470.74
1508.05
1594.67
1638.01
1477.96
1510.92
1327.78
1362.16
1393.35
1430.32
1336.82
1365.57
1401.61
1433.41
10402.1
11461.6
12443.6
13471.3
14667.9
15858.3
-9.38583
-8.49521
-7.51841
-6.36848
-5.61419
-3.41113
19.8227
161.279
486.8
487.346
268.061
268.579
961.946
958.401
711.754
712.853
1127.59
1136.33
1190.09
1063.7
1127.17
1135.23
1189.89
1062.78
1059.75
928.22
995.467
995.143
1059.4
930.496
995.436
995.123
1356.74
1370.45
1317.86
1332.43
1358.66
1371.16
1318.55
1332.67
1227.99
1244.59
1274.6
1290.25
1229.28
1245.02
1274.36
1290.28
10228.4
9011.96
7584.1
4909.84
4911.83
4387.02
4381.32
3558.87
3554.58
3051.6
3051.6
2204.1
2321.24
2023.69
2103.09
2211.53
2323.33
2030.37
2105.22
1721.11
1788.1
1863.34
1945.28
1730.91
1791.17
1870.62
1947.42
1542.65
1593.17
1552.56
1596.02
11313.5
12318.4
13285.6
14350.8
15649.4
16637.6
-9.36994
-8.46574
-7.47765
-6.31622
-5.11512
-1.07156
60.2337
56.4515
457.557
456.343
228.551
228.166
835.302
897.551
807.816
721.85
835.637
896.548
805.682
720.539
706.005
703.864
1110.92
1154.74
1163.68
1103.39
1110.72
1156.01
1163.96
1102.54
1044.81
956.163
968.709
1037.24
1044.97
957.495
969.164
1037.78
1219.53
1230.97
1222.51
1231.74
11174.6
10080.4
8868.17
5962.55
5966.95
5256.71
5256.1
4674.89
4674.43
4155.62
4140.55
2879.15
2944.3
3153.06
2704.89
2882.07
2959.39
3156.64
2712.57
2639.24
2269.48
2400.46
2486.67
2640.96
2273.37
2402.03
2491.27
2101.46
2158.45
1922.51
1966.38
2109.15
2160.62
1926.06
1967.77
1649.79
1695.49
1776.45
1821.36
1656.55
1697.84
1781.41
1823.07
12183.9
13148.4
14115.8
15288.9
16440.6
-9.37194
-8.51878
-7.68846
-6.29596
-2.707
-0.24002
14.5454
100.058
99.9327
58.965
58.9553
427.949
462.556
302.177
342.622
427.223
461.591
302.756
342.322
236.92
236.417
855.543
870.759
770.76
729.497
855.872
870.739
769.933
729.003
541.089
583.701
639.125
674.237
542.189
583.781
639.606
674.692
1028.84
954.849
965.074
1018.5
1029.49
957.755
965.984
1021.04
12066.7
11071.7
9998.49
8807.52
5859.03
5846.15
5144.04
5132.04
4541.35
4525.64
3165
3405.87
3747.22
3447.04
3177.04
3408.41
3745.99
3447.24
2730.9
2948.68
3013.25
2680.23
2733.87
2959.81
3017.31
2688
2510.24
2241.39
2316.64
2449.69
2512.8
2247.09
2318.6
2455.45
2079.1
2145.48
2086.98
2147.33
13008.4
13950.7
14973.5
16081.1
-9.42376
-8.79365
-8.21542
-5.74405
2.58073
6.92149
3.38765
3.20468
21.7539
21.7363
121.791
121.579
87.5061
87.096
437.872
447.532
312.426
332.199
437.09
447.097
312.187
332.088
259.342
166.123
184.236
248.119
259.239
166.951
184.271
247.965
860.315
870.674
772.628
759.288
860.133
870.639
772.671
759.206
563.215
571.928
663.652
669.897
563.686
571.84
664.022
670.196
12894.7
11992.4
11038.2
10015.6
6859.58
6863.32
6319.18
6314.72
5692.07
5695.22
4084.95
4393.32
4305.4
4689.43
4099.03
4397.58
4328.79
4695.68
3811.95
4057.88
3555.65
3771.79
3448.16
3586.25
3838.1
4064.86
3571.33
3777.05
3453.91
3588.55
3162.03
3253.53
3171.22
3257.28
2728
2923.36
2960.62
2695.05
2731.24
2938.14
2965.47
2704.88
13794.4
14755.2
15769
-9.58971
-9.55885
-8.65646
-4.44515
4.55272
13.1877
31.9485
31.6424
20.338
20.2018
139.137
209.594
150.65
120.615
129.483
222.735
209.965
139.037
223.142
150.339
120.622
129.015
76.2635
84.0906
87.2805
91.9678
75.544
83.0657
87.3304
91.9259
442.956
452.13
337.016
343.084
443.236
452.238
337.149
343.111
284.197
279.03
283.931
278.601
766.692
757.216
766.935
757.868
541.809
552.129
542.968
552.333
13676.9
12832.3
11994.5
11101.4
7923.55
7933.28
7391.07
7389.11
6881.97
6871.99
6266.32
6263.18
4894.39
4760.21
5183.27
4600.23
4562.21
4378.79
4898.96
4788.37
5192.41
4610.03
4560.36
4383.99
4166.32
4255.53
4176.25
4259.98
3882.15
3951.17
3630.52
3373.54
3710.21
3447.72
3898.59
3957.24
3640.97
3394.34
3714.49
3454.81
3122.68
3163.89
3137.06
3168.82
14560.1
15502.1
-10.177
-10.2522
-8.52933
-5.83272
-1.81616
11.3106
11.2967
-3.39999
-3.39244
53.2215
52.2825
31.2103
30.841
201.579
141.912
150.268
211.088
126.129
132.45
202.28
142.163
211.717
149.845
126.947
132.758
80.4693
88.4121
109.306
115.028
80.024
88.5135
109.778
115.355
319.248
324.384
319.918
324.463
14429.1
13616.9
12843.9
12077.3
11242.7
7908.57
7906.26
7430.77
7412.92
5772.25
6262.9
5612.24
5973.76
5795.58
6265.62
5631.4
5980.27
5125.5
4865.35
5436.78
5346.83
5672.63
5093.46
5139.6
4878.2
5442.17
5376.92
5681.85
5098.47
4812.46
4503.16
4710.47
4423.96
4814.99
4506.27
4715.11
4431.44
4183.33
4237.42
4192.24
4241.2
3929.24
3995.37
3404.32
3472.47
3944.55
4000.46
3421.29
3478.5
15296.1
-10.4938
-9.88832
-8.85961
-7.80651
-5.04327
1.77128
1.84568
-3.20854
-3.19747
36.4295
51.147
59.1046
29.066
34.6047
51.6017
58.099
28.9628
16.6907
16.8226
75.8465
80.8736
103.494
108.445
76.749
82.3414
105.701
111.474
15156.3
14373.1
13626.7
12932.8
12227.6
8904.28
8919.99
8371.85
8367.89
7865.46
7863.26
7393.42
7385.75
5902.94
6174.57
5761.46
5873.57
5921.47
6180.94
5773.43
5878.44
5004.3
5335.15
5132.19
5471.38
5559.51
5662.99
5016.31
5343.56
5474.39
5136.18
5570.14
5667.31
4565.46
4492.39
4568.4
4499.69
-10.0165
-9.52472
-8.62188
-7.08151
-3.51229
-3.51057
-4.26671
-4.3024
-1.87194
-1.82671
-3.0558
-3.01997
25.3943
41.9081
49.7155
21.7771
26.5386
41.6291
49.6151
22.6287
-0.909701
-1.34486
3.29707
4.23281
-0.917926
-1.33873
3.31642
4.22719
65.252
74.4469
64.7204
73.3018
15089
14393.5
13716.5
13087.8
12434.5
8874.44
8874.76
8510.94
8489.81
7992.17
7972.65
6866.88
6178.88
6547.1
6318.64
6864.49
6179.28
6547.61
6314.61
6025.7
6137.83
5842.14
5916.34
6042.31
6143.39
5852.01
5920.27
-9.85859
-9.16771
-8.10609
-6.87156
-3.51618
-3.49763
-4.28283
-4.33287
0.120211
0.0582166
-2.23743
-1.58351
-1.73395
-1.93436
0.122269
0.0474703
-2.21274
-1.56965
-1.72714
-1.90236
-2.95994
-2.89978
18.9482
22.3534
28.3787
13.4616
19.1283
22.2024
28.5357
13.4139
0.944029
0.827264
0.930687
0.812012
15107.9
14489.9
13889
13314.8
9865.7
9878.06
9297.7
9297.98
8769.66
8778.56
8548.37
8527.79
6719.47
7335.24
6628.8
7012.85
6410.09
6772.77
6779.57
7350.62
6647.58
7019.82
6408.64
6772.91
6311.63
6452.77
6322.54
6457.25
6121.44
6228.39
6140.23
6234.45
-9.6897
-8.83483
-7.91993
-4.94979
-4.95944
-5.40917
-5.41198
-3.57801
-3.55556
-4.28575
-4.31132
-0.981759
-1.10037
-2.07791
-1.63594
-1.69227
-1.87176
-0.981196
-1.10206
-2.06156
-1.61345
-1.68935
-1.83845
-2.47774
-2.75124
-2.21984
-2.37086
-2.44597
-2.73228
-2.1907
-2.36239
15217.8
14667.5
14136.2
13610.6
9869.62
9865.61
9460.39
9436.01
9024.79
9007.34
6849.18
7261.49
7895.81
7144.97
7649.46
7255.44
7891.85
7137.45
7645.46
7250.51
6861.98
7266.18
6768.71
6543.77
6987.67
6717.55
6774.53
6561.46
6989.99
6723.26
6386.82
6510.82
6406.61
6516.92
-9.53281
-8.68677
-7.77545
-4.82725
-4.81744
-5.3257
-5.32312
-2.49028
-2.71574
-3.35339
-2.82216
-3.06612
-3.05308
-2.45091
-2.68935
-3.37107
-2.84439
-3.08778
-3.0805
-4.27733
-4.28532
-1.99619
-1.94893
-1.98252
-1.92337
-2.19404
-2.34817
-2.15434
-2.32713
15397.4
14931.4
14445.2
10780.4
10786.1
10291.9
10288.2
9879.31
9875.16
9470.62
9456.68
7638.51
8286.9
7559
8015.74
7361.68
7808.25
7664.56
7363.94
7808.41
8291.71
7574.87
8020.87
7053.77
7312.12
7298.55
7574.15
7296.42
7054.2
7572.5
7310.74
-9.46065
-8.62392
-7.67902
-4.7749
-4.7638
-5.24235
-5.23938
-2.55336
-2.68577
-3.28696
-2.82711
-2.9891
-3.10274
-2.53693
-2.68366
-3.29641
-2.84289
-3.00668
-3.11716
-3.59626
-3.8684
-3.39824
-3.61088
-3.60566
-3.87209
-3.39099
-3.605
-2.36336
-2.49667
-2.33561
-2.4776
15664.9
15272.2
14824
10863.9
10858
10446.2
10427
9902.7
9898.59
7785.86
8210.85
8689.2
8023.33
8472.81
8058.24
7803.42
8216.62
8689.47
8021.79
8473.47
8058.45
7753.42
7494.53
7965.84
7740.88
7513.97
7746.9
7760.48
7968.61
-9.44146
-8.56769
-5.51442
-5.14525
-5.1355
-5.51302
-6.01627
-6.02703
-4.59025
-3.60672
-3.85187
-4.58471
-3.6036
-3.85341
-2.59911
-2.73573
-3.21136
-2.86699
-3.01125
-3.11345
-2.60074
-2.74823
-3.20508
-2.86785
-3.00795
-3.10838
-3.33759
-3.529
-3.32517
-3.52101
16005.1
15650
15209.5
10971.1
10970.8
10452.6
10452.3
8341.94
8987.59
8367.88
8823.87
8195.73
8603.21
8367.54
8198.82
8605.83
8985.49
8389.23
8831.4
7959.81
8145.13
8178.61
8369.15
7979.81
8151.35
8192.64
8374.52
7844.85
8007.06
7857.85
8011.15
-9.41271
-8.57389
-5.05887
-5.49685
-5.04839
-5.49114
-5.97131
-5.97619
-3.70592
-3.54885
-3.694
-3.53892
-3.7348
-3.92547
-3.94505
-4.24845
-3.54503
-3.70002
-3.69501
-3.53936
-3.7358
-3.9211
-3.94707
-4.24705
-3.20635
-3.07775
-3.1945
-3.07322
-3.28704
-3.46839
-3.27902
-3.46161
16361.7
16007.4
11959.1
10974.6
10959.6
11974.4
11421.4
11424.9
10400.5
8493.34
8950.4
10402.7
8523.77
8961.78
8319.79
8532.82
8490.12
8770
8339.98
8497.29
8548.13
8776.04
8042.35
8200.81
8213.26
8363.23
8064
8207.01
8236.97
8370.57
-9.43912
-8.5537
-4.97619
-4.16637
-3.91745
-5.4837
-4.96784
-4.16454
-3.91438
-5.46361
-5.93545
-5.93602
-3.52182
-3.63168
-3.31464
-3.52783
-3.62837
-3.83633
-3.52421
-3.30381
-3.6244
-3.51743
-3.63084
-3.8325
-3.25642
-3.09943
-3.25056
-3.09626
16718.1
16331.4
11993.8
10913.9
10910.4
11992.3
11582
11569.2
8771.37
8480.33
8909.6
8463.53
8900.75
9275.19
8711.6
9370.69
8791.72
8511.76
8921.33
8496.57
8912.81
9283.14
8751.7
9382.26
8384.61
8517.58
8538.95
8737.89
8392.33
8542.76
8531.46
8743.76
-9.45513
-6.27729
-5.89208
-5.88396
-6.27923
-6.71394
-6.7253
-4.23247
-4.08066
-3.91263
-4.02236
-3.88543
-4.51811
-4.07153
-4.27049
-5.39059
-4.20783
-4.43043
-4.2403
-4.07901
-3.91253
-4.02142
-3.884
-4.51829
-4.07425
-4.27147
-5.3851
-4.21532
-4.43279
-3.48404
-3.66911
-3.6522
-3.85776
-3.48526
-3.66194
-3.65103
-3.85413
17068.1
16571
12073.7
10956.2
9384.51
8937.95
10959.3
9393.17
8955.36
12069
11573.9
11554
8690.1
8996.45
8487.17
8933.43
8774.65
9240.2
8714.21
9008.57
8508.15
8781.48
8941.8
9244.84
8412.04
8585.49
8421.37
8589.47
-9.52262
-5.88828
-6.29115
-5.87642
-6.29345
-6.73582
-6.74518
-3.72417
-3.88985
-3.9958
-3.90913
-4.01461
-4.18549
-4.47979
-4.24227
-4.35234
-4.18115
-4.35389
-4.6635
-4.63449
-4.93129
-3.72152
-3.89575
-3.90747
-3.99766
-4.01955
-4.18808
-4.24968
-4.47367
-4.35504
-4.19548
-4.35789
-4.66102
-4.63223
-4.92744
17295.7
12730
12072.4
12051.2
12764
12502.5
12494.1
9179.12
9372.95
8970.66
9403.23
8943.26
9866.17
9201.25
9717.09
9231.01
9379.33
8992.7
9411.58
8956.73
9883.19
9226.95
9726.54
11497.4
9344.32
9834.96
11494
9390.77
9851.71
8847.26
9028.79
9029.43
9257.05
8867.6
9028.75
9036.8
9260.24
-9.53572
-5.87968
-4.85747
-4.63226
-6.27176
-5.8635
-4.85473
-4.62516
-6.27524
-6.70887
-6.71921
-3.84859
-3.99639
-4.03228
-4.15376
-4.24455
-4.46002
-4.07724
-4.18744
-4.31314
-4.62008
-3.85776
-3.99936
-4.0425
-4.15882
-4.25755
-4.08518
-4.4491
-4.1908
-4.3173
-4.61547
17458.8
12799.8
12063.9
12034.2
12824.6
12522.4
12514.7
9010.2
9144.01
9284.31
9376.53
9360.68
9641.63
9023.28
9165.34
9290.78
9384.7
9382.1
9650.36
9760.36
9412.18
9854.18
9316.94
9798.36
10259.4
9653.65
10249
9765.4
9437.53
9863.8
9371.35
9815.64
10260.4
9668.52
10247.5
-9.801
-6.6746
-6.68616
-5.85683
-4.81042
-4.67364
-4.83645
-4.64142
-6.23966
-5.84427
-4.8071
-4.66373
-4.83175
-4.63348
-6.24337
-4.08844
-4.18331
-4.48778
-4.18326
-4.32249
-4.61287
-4.10647
-4.19306
-4.47919
-4.1895
-4.3262
-4.60878
17648.9
12783.5
12175.8
10352.2
9907.2
12128.8
10347.4
9895.25
12813.8
12548.3
12540.9
9229.66
9441.52
9396.83
9675.77
9251.32
9448.83
9411.34
9682.18
9683.8
10007.1
9474.64
9880.4
9730.26
10324.7
9690.18
9980.02
9483.23
9733.55
9881.86
10315.4
-9.5598
-6.66292
-6.65675
-6.67442
-6.66838
-5.82217
-4.79638
-4.65507
-4.82806
-4.63254
-4.51975
-4.63203
-6.22236
-5.81265
-4.79545
-4.6535
-4.82554
-4.63034
-4.51234
-4.62912
-6.22548
-4.24587
-4.372
-4.25636
-4.37476
17824.2
12808.9
12831.8
12187.5
10255.6
9875.43
10261.6
9877.39
12146.8
10250.2
9872.64
10260
9864.05
12559.8
12545.6
9771.4
9591.32
10021.5
9957.71
9780.19
10281.6
9787.11
9596.33
10000.4
9779.44
9958.68
10273.9
-9.63107
-6.64452
-6.71393
-6.65878
-6.72705
-6.22201
-6.22491
-5.81845
-4.76245
-4.603
-4.76075
-4.60797
-4.63074
-4.52455
-4.63678
-4.51019
-4.28809
-4.41684
-5.80887
-4.76041
-4.60798
-4.76106
-4.6066
-4.62916
-4.52242
-4.6355
-4.51075
-4.30144
-4.42035
17933.6
12849.2
12910
12871.6
12932.6
12172.7
10252.9
9859.11
10269.3
9865.62
10036.4
10296.6
12131.8
10247.9
9867.43
10266.6
9861.04
10031
10295
12550.3
12541.7
9811.07
10035.6
9835.72
10038.4
-9.54453
-6.74284
-6.72491
-6.7555
-6.73585
-6.20804
-6.29847
-6.2135
-6.30189
-5.85316
-5.84289
-4.77722
-4.62739
-4.78896
-4.60003
-4.64777
-4.49626
-4.65072
-4.50704
-4.47922
-4.30974
-4.4489
-4.31751
-4.77512
-4.63219
-4.78716
-4.60004
-4.646
-4.50348
-4.65132
-4.50819
-4.48077
-4.32262
-4.45252
-4.3257
17733
12953.2
12954.2
12974.7
12974.7
12579.8
12573.7
12113.7
10215.5
9824.62
10242.6
9832.85
10314.1
10048.2
10311.2
10059
9876.69
10126.9
12086.2
10213
9835.71
10243.4
9830.56
10314.2
10056.6
10313.1
10068.3
9905.69
10131.4
-9.53737
-6.7476
-6.8142
-6.75827
-6.82446
-6.3303
-6.34707
-6.33343
-6.34888
-5.86392
-5.89481
-5.85731
-5.88572
-4.78158
-4.64904
-4.82445
-4.60225
-4.78122
-4.64839
-4.82302
-4.60226
-4.70389
-4.52317
-4.69025
-4.5263
-4.70385
-4.5278
-4.69088
-4.52778
17370.6
12884.8
12812
12904
12829.5
12599.5
12586.4
12593.8
12578.4
12116.1
12092.2
10291.9
9808.41
10244.9
9850.73
10286.2
10011.3
10275.2
10038.6
10156.5
9922.8
10146.9
9929.71
10292.4
9831.73
10250.4
9855.42
10283.3
10024.4
10280.3
10029.4
10160.2
9950.87
10152.7
9948.53
-8.68756
-9.49182
-6.37755
-6.403
-6.37943
-6.40509
-5.91887
-5.9762
-5.91001
-5.96288
-4.87018
-4.65245
-4.82448
-4.71317
-4.86683
-4.69316
-4.85774
-4.712
-4.86766
-4.6504
-4.82086
-4.71171
-4.86637
-4.6985
-4.85767
-4.71239
-4.69737
-4.56019
-4.7231
-4.52961
-4.69715
-4.56298
-4.72352
-4.53263
17096.1
12734.8
12639.6
12753.5
12661.9
12535.5
12486.3
12525.5
12476
12115.7
12075.7
12094.2
12054.5
10317.8
9873.15
10382.7
9857.3
10315.2
9869.92
10378.5
9855.27
10322
9985.96
10281.2
9998.74
10324.3
10007.3
10287.6
10010.1
-8.73463
-6.05235
-6.08149
-6.04225
-6.08241
-9.47529
-6.01128
-6.03736
-5.99349
-6.02499
-4.88858
-4.68808
-4.85921
-4.71785
-4.93238
-4.76211
-4.96192
-4.74439
-4.88773
-4.69221
-4.85879
-4.71715
-4.93105
-4.75982
-4.95881
-4.74201
-4.79325
-4.57584
-4.741
-4.62318
-4.75403
-4.61657
-4.72768
-4.61695
-4.79187
-4.5751
-4.739
-4.62583
-4.7539
-4.62078
-4.72898
-4.62054
16909.7
16330.6
12411.9
12277.1
12399
12272.4
12061.8
12047.7
12034.1
12014
10439.4
9865.09
10405.3
9894.11
10407.9
9801.85
10346.9
9869.36
10434.8
9863
10402.1
9886.21
10405.6
9819.61
10349.2
9865.88
10328.3
9921.82
10349
9964
10329.8
9933.05
10350.3
9973.09
-8.71819
-6.12602
-6.19264
-6.13071
-6.20503
-5.60661
-5.67817
-5.59773
-5.66048
-9.5061
-4.96909
-4.78817
-4.97863
-4.77641
-5.03614
-4.7766
-5.08811
-4.79413
-4.96498
-4.77671
-4.97295
-4.76719
-5.03183
-4.77452
-5.08409
-4.78474
-4.71958
-4.60606
-4.69105
-4.64917
-4.73232
-4.68867
-4.74862
-4.67001
-4.718
-4.60913
-4.69202
-4.64736
-4.73019
-4.68026
-4.74556
-4.66652
16663.2
16112.7
12007.1
11983.6
11981.3
11970
12015
11922.1
11969
11893
10246.9
9784.97
10296.9
9771.33
10209.7
9707.94
10139.6
9767.48
10244.3
9793.98
10296.8
9768.28
10206.5
9711.2
10135.7
9759.41
10302.7
9925.67
10295.9
9955.53
10274.4
9892.23
10219
9943.39
10299.7
9936.11
10297.5
9951.49
10271.3
9905.86
10221.6
9938.63
-7.94848
-8.79763
-5.71804
-5.69663
-5.7099
-5.69554
-4.44722
-4.66445
-4.5662
-4.3879
-4.57831
-4.82498
-4.4269
-4.73555
-4.42978
-4.67499
-4.44996
-4.65618
-4.5675
-4.39949
-4.58121
-4.82173
-4.43551
-4.7355
-4.4356
-4.67577
-9.51929
-4.75164
-4.69401
-4.76165
-4.67164
-4.7928
-4.66638
-4.74624
-4.68183
-4.75713
-4.65735
-4.78705
-4.65146
-4.61357
-4.50252
-4.60076
-4.51189
-4.6144
-4.51261
-4.60232
-4.52011
16342.1
15943.5
11913.1
11852.9
11904.4
11860.7
11401
11481.5
11384.3
11461.4
10057.5
9720.09
10104.2
9701.03
10163.1
9537.74
10104.4
9752.98
10052.9
9711.5
10098.1
9691.44
10155.7
9561.47
10114.2
9735.86
10165.3
9873.49
10187.7
9870.25
10167.3
9848.15
10119.5
9881.63
10165.1
9889.04
10191.1
9874.13
10163.8
9847.26
10117.6
9878
-8.05579
-5.4071
-5.51602
-5.39864
-5.51347
-8.84545
-5.25362
-5.34472
-5.24604
-5.33512
-4.47199
-4.33203
-4.53262
-4.41541
-4.29171
-4.38483
-4.31556
-4.4934
-4.27677
-4.42575
-4.47537
-4.33141
-4.533
-4.41591
-4.29517
-4.38701
-4.31712
-4.49436
-4.27814
-4.42716
-9.62887
-4.57117
-4.49045
-4.5959
-4.4599
-4.55579
-4.43723
-4.56939
-4.49633
-4.59618
-4.46005
-4.5542
-4.43515
15945.9
15613.6
15112.6
11508.9
11361.6
11492.5
11356.2
9326.27
9528.04
9693.81
9288.14
9699.78
9964.77
9112.36
9763.9
9300.71
9743.97
9517.97
9385.15
9721.29
9361.27
9730.02
9963.18
9167.96
9785.34
9356.13
9769.36
10040.9
9837.91
10097.4
9776.06
10054.3
9720.92
10035.1
9832.84
10094.9
9762.3
10046.2
9694.99
10002.3
9722.91
9959.33
9753.58
10000.8
9735.2
9959.58
9760.85
-8.16562
-5.60975
-5.70523
-5.60781
-5.70976
-4.89438
-5.09588
-4.8944
-5.0852
-8.984
-4.32407
-4.14187
-4.25113
-4.13191
-4.41677
-4.19424
-4.51433
-4.15691
-4.32446
-4.14754
-4.25279
-4.13401
-4.41728
-4.20486
-4.5171
-4.15669
-4.32895
-4.41813
-4.15847
-4.25664
-4.11636
-4.27555
-4.33472
-4.4197
-4.16371
-4.25883
-4.12171
-4.27817
-9.83874
15589.7
15201.4
14752.9
10881.6
10907.3
10865.9
10906.3
10874.6
10848.2
10877.6
10846.9
9590.37
9426.78
9699.22
9785.22
9438.42
9701.11
9175.71
9717.67
9394.93
9709.47
9648.62
9467.97
9804.12
9716.71
9461.1
9713.36
9202.22
9727.02
9424.52
9720.44
9886.6
9722.76
9949.93
9650.29
9928.34
9635.98
9888.93
9729.97
9949.85
9666.3
9935.84
9660.23
-7.32562
-8.37999
-5.10237
-5.27399
-5.0963
-5.27417
-3.76041
-3.9061
-3.94788
-3.75387
-3.99134
-4.14584
-3.8094
-4.14739
-3.7828
-4.06275
-3.77016
-3.9037
-3.95289
-3.7711
-4.0003
-4.14782
-3.81993
-4.14957
-3.79056
-4.06561
-9.29819
-4.07516
-3.971
-4.13772
-3.89818
-4.07013
-3.86009
-4.07764
-3.97912
-4.14098
-3.90153
-4.07346
-3.86657
-10.0874
15313.9
14843.3
14334.8
10800
10703.4
10794.8
10710.7
10402
10407.2
10401.3
10400.5
9391.87
8987.67
9428.89
8937.54
9383.36
8719.72
9427.46
8913.3
9394.46
9008.08
9435.72
8946.81
9387.49
8757.41
9436.98
8925.26
9510.84
9717.13
9157.3
9401.02
9273.46
9496.43
9578.11
9738.99
9182.35
9410.83
9302
9506.89
-7.55311
-4.6116
-4.76547
-4.61179
-4.7728
-8.71829
-4.49241
-4.57646
-4.4898
-4.57137
-3.74404
-3.54762
-3.86623
-3.78788
-3.50927
-3.73893
-3.55158
-3.81095
-3.52245
-3.74613
-3.77013
-3.55939
-3.87516
-3.79319
-3.52035
-3.74395
-3.55999
-3.81251
-3.53011
-3.74891
-9.58635
-3.89534
-3.73505
-3.90257
-3.75578
-10.7092
15135.1
14575.1
14015.6
13494.6
10362.5
10181.6
10343.5
10179.3
8465.45
8734.28
8897.33
8428.95
8884.52
9236.9
8279.36
8956.44
8447.81
8914.88
8740.55
8491.2
8906.42
8457.8
8895.02
9239.67
8317.02
8966.96
8475.65
8925.36
9265.77
8966.7
9271.98
8973.44
9193.66
8932.01
9263.52
8980.06
9276
8966.97
9191.5
8927.57
-4.81676
-7.38334
-3.66661
-3.66193
-3.65008
-3.66587
-8.15562
-3.54614
-3.19515
-3.43958
-3.18342
-3.74544
-3.545
-3.19914
-3.44086
-3.18707
-3.72083
-3.34736
-3.53637
-3.22886
-3.34359
-3.28261
-3.41295
-3.35894
-3.54165
-3.24341