/*--------------------------------*- C++ -*----------------------------------*\
| =========                 |                                                 |
| \\      /  F ield         | OpenFOAM: The Open Source CFD Toolbox           |
|  \\    /   O peration     | Version:  5.x                                   |
|   \\  /    A nd           | Web:      www.OpenFOAM.org                      |
|    \\/     M anipulation  |                                                 |
\*---------------------------------------------------------------------------*/
FoamFile
{
    version     2.0;
    format      ascii;
    class       volScalarField;
    location    "1.6";
    object      p_rgh;
}
// * * * * * * * * * * * * * * * * * * * * * * * * * * * * * * * * * * * * * //

dimensions      [1 -1 -2 0 0 0 0];

internalField   nonuniform List<scalar> 
12160
(
5630.76
5644.93
5630.82
5653.59
5645.05
5631.14
5660.95
5653.68
5645.48
5631.26
5667.7
5661
5653.96
5645.89
5631.89
5673.3
5667.86
5661.35
5654.02
5646.86
5631.89
5678.17
5673.38
5668.24
5661.68
5654.46
5647.67
5632.97
5683.71
5678.01
5673.63
5668.83
5662.38
5654.42
5649.39
5632.21
5691.8
5683.16
5677.75
5673.98
5669.78
5662.85
5654.84
5641.59
3526.64
5704.24
5690.85
5682.14
5677.37
5674.72
5671.02
5663.99
5643.26
3727.73
163.68
5721.96
5703.01
5689.09
5680.51
5677.07
5675.84
5672.87
5650.86
3717.99
154.146
6.97399
5744.35
5720.52
5700.88
5686.17
5678.48
5676.89
5677.59
5650.09
3793.59
177.778
0.35262
0.139744
5770.09
5743.34
5718.86
5697.04
5682.37
5675.86
5677.03
5642.32
3867.96
215.749
0.392242
0.05053
-0.0760412
5797.2
5769.48
5741.86
5714.4
5692.26
5677.17
5672.74
5626.34
3879.68
294.842
0.530272
0.021891
-0.0142489
0.050749
5823.76
5796.97
5768.84
5738.67
5710.52
5685.29
5670.6
5604.67
3815.8
374.916
1.20164
0.00958203
0.0127008
0.0270382
-0.0528658
5848.15
5823.95
5797.44
5767.05
5735.36
5702.65
5676.54
5587.82
3703.79
414.505
2.06909
-0.00980182
0.00977294
0.0102808
-0.0203296
5869.31
5848.7
5825.24
5797.13
5765.51
5729.46
5695.01
5588.45
3611.79
400.296
3.45461
-0.0195095
0.000615129
0.00357013
-0.000514697
5886.79
5870.01
5850.32
5826.05
5797.66
5762.34
5723.59
5615.77
3601.14
372.543
4.70101
-0.00776677
-0.00989572
-0.00383737
0.00143393
5900.76
5887.5
5871.77
5852.22
5828.69
5797.44
5759.61
5666.72
3698.85
373.553
5.39344
0.0281924
-0.00751751
-0.00630671
0.000434634
5911.61
5901.34
5889.15
5874.07
5855.64
5830.46
5798.51
5730.61
3900.38
421.679
6.55101
0.0796233
0.00905139
-0.0029459
-0.00280191
5919.89
5912
5902.68
5891.36
5877.76
5859.56
5835.5
5792.54
4156.35
524.26
8.81275
0.112739
0.0389989
0.00884489
-0.0020153
5926.14
5920.08
5912.92
5904.43
5894.8
5882.28
5865.22
5837.83
4418.48
691.302
13.1774
0.130039
0.0578941
0.0262151
0.000506851
5930.76
5926.16
5920.57
5914.01
5907.17
5899.04
5888.25
5871.5
4654.56
914.886
21.5515
0.142438
0.060356
0.0350876
0.00595739
5934
5930.68
5926.3
5920.98
5915.8
5910.43
5904.46
5895.74
4840.39
1137.79
36.4631
0.164899
0.046488
0.0355401
0.00891358
5935.89
5933.91
5930.62
5926.16
5921.81
5917.71
5914.47
5911.66
4957.75
1302.02
58.3766
0.237451
0.0169793
0.0270782
0.00866063
5936.29
5935.89
5933.82
5930.15
5926.2
5922.37
5919.93
5920.07
5019.35
1410.22
81.1139
0.433963
-0.0234358
0.00999714
0.00549031
5934.89
5936.46
5935.97
5933.31
5929.73
5925.67
5922.78
5923.24
5038.89
1469.88
97.2118
0.812206
-0.0604151
-0.0130825
-0.000133105
5931.3
5935.31
5936.89
5935.7
5932.82
5928.54
5924.65
5923.86
5031.89
1487.3
105.905
1.19504
-0.0804873
-0.033769
-0.00660887
5925.07
5932
5936.24
5937.16
5935.55
5931.48
5926.7
5923.85
5013.25
1476.54
108.559
1.44844
-0.0809037
-0.0450349
-0.0117063
5915.78
5926.08
5933.55
5937.27
5937.73
5934.64
5929.48
5924.55
4995.99
1454.74
107.329
1.56627
-0.0679214
-0.047167
-0.0150283
5903.1
5917.09
5928.27
5935.5
5938.89
5937.77
5933.13
5926.88
4988.8
1436.56
104.638
1.59109
-0.0460169
-0.0406825
-0.014927
5886.8
5904.64
5919.9
5931.21
5938.4
5940.32
5937.36
5931.14
4996.54
1430.88
102.501
1.5764
-0.0206306
-0.0287551
-0.0128542
5866.73
5888.47
5908
5923.78
5935.49
5941.53
5941.61
5936.95
5021.24
1440.38
102.257
1.5651
0.00189893
-0.0144344
-0.00920799
5843.11
5868.45
5892.27
5912.66
5929.4
5940.49
5944.98
5943.5
5059.56
1464.66
103.895
1.58558
0.0222088
-0.00111354
-0.00480855
5816.07
5844.71
5872.63
5897.47
5919.44
5936.19
5946.34
5949.58
5106.3
1503.27
106.964
1.62906
0.033922
0.0105074
-0.000631353
5785.97
5817.76
5849.18
5877.99
5905.16
5927.71
5944.4
5953.88
5154.61
1555.53
111.756
1.70786
0.0362095
0.0174986
0.00296673
5753.38
5787.5
5821.52
5854.11
5886.38
5914.49
5937.89
5954.88
5196.77
1614.29
118.791
1.81703
0.0354581
0.0195009
0.00512137
5718.88
5754.66
5790.83
5826.83
5863.16
5896.17
5926.18
5950.46
5224.58
1670.36
127.014
1.97077
0.0261179
0.0183226
0.0059372
5683.08
5719.84
5757.4
5795.59
5834.67
5872.16
5909.07
5940.11
5229.46
1712.03
135.145
2.15411
0.00911513
0.0121152
0.00558505
5646.63
5683.7
5721.92
5761.35
5802.48
5844.12
5886.97
5923.29
5206.25
1724.61
141.61
2.33358
-0.0129821
0.00178624
0.00337766
5646.87
5586.2
5685.04
5724.89
5766.98
5810.83
5856.93
5898.94
5149.44
1701.73
144.132
2.46982
-0.0387754
-0.0116379
7.87154e-05
5647.46
5585.82
5504.45
5686.94
5729.07
5773.77
5822.07
5869.54
5050.61
1637.42
141.543
2.50533
-0.0666988
-0.0270348
-0.00421107
5648.23
5585.13
5503.25
5437.3
5689.6
5734.09
5782.9
5825.74
4906.68
1527.7
132.249
2.38993
-0.0939565
-0.0432224
-0.00909249
5649.31
5584
5500.9
5435.47
5378.99
5692.74
5740.89
5770.75
4726.75
1364.72
114.469
2.06835
-0.118061
-0.0586126
-0.0141652
5650.49
5582.43
5497.25
5431.89
5376.9
5344.01
5697.14
5706.77
4510.69
1145.2
88.3447
1.52565
-0.13577
-0.071724
-0.0189538
5652.3
5580.23
5492.16
5426.44
5372.96
5341.87
5312.36
5634.43
4263.8
913
60.7703
0.942999
-0.141606
-0.08071
-0.0230525
5553.69
5576.99
5485.43
5419.01
5367.27
5337.99
5307.94
5286.13
3988.83
706.023
39.7225
0.537338
-0.130486
-0.0831253
-0.026028
3682.28
5396.34
5473.99
5409.46
5359.73
5331.76
5301.42
5282.58
5264.57
531.974
26.2395
0.309479
-0.104238
-0.0761713
-0.0268886
389.825
3140.82
5140.68
5390.47
5350.07
5323.63
5294.24
5276.72
5251.95
5235.47
17.5227
0.18894
-0.0698487
-0.0617978
-0.0264055
11.4451
233.722
2417.76
4901.55
5325.06
5313.52
5287.7
5272.21
5236.68
5210.6
5212.02
0.122306
-0.0431317
-0.0445496
-0.0248484
0.0911592
5.44756
115.456
1890.58
4706.3
5281.34
5279.94
5267.9
5225.81
5168.19
5168.45
5340.95
-0.0231642
-0.0305345
-0.022094
-0.00377419
0.0660256
2.1736
67.6289
1553.3
4567.98
5240.6
5264.01
5229.53
5158.19
5096.77
5188.75
5014.79
5199.42
-0.0194352
-0.0190476
-0.00824107
0.0166741
0.0872934
1.16388
47.7197
1366.24
4446.43
5222.17
5238.78
5182.75
5058.57
5070.28
5044.33
4853
4942.01
5024.39
-0.0161927
-0.0132916
0.00379033
0.0495971
0.104349
0.807919
39.6391
1260.3
4394.22
5204.03
5217.53
5084.13
5041.52
5074.76
4967.77
4627.5
4725.72
4845.05
4898.88
-0.0109982
0.0241695
0.0686653
0.108527
0.669043
36.5753
1245.24
4339.44
5235.15
5169.18
5131.57
5144.67
5065.72
4809.94
4339.99
4458.4
4617.2
4763.55
4830.78
-0.00224406
0.0374878
0.0751617
0.111612
0.605223
35.6298
1196.36
4536.62
5289.05
5263.71
5251.04
5178.92
4977.51
4581.08
4004.2
4131.71
4330.3
4539.99
4724.1
4842.78
0.00568124
0.0434782
0.0795972
0.117544
0.528462
33.2351
1178.1
5029.84
5364.9
5349.6
5296.55
5126.79
4820.57
4318.62
3647.66
3749.39
3981.23
4252.41
4519.88
4754.43
4925.23
0.0106368
0.0475444
0.0876675
0.125252
0.463789
25.3877
1285.56
5378.52
5426.17
5393.07
5262.66
5039.54
4616.73
3996.62
2531.11
3359.82
2534.87
2767.2
2770.06
3578.83
3893.93
4240.45
4570.11
4848.51
5062.44
0.0139564
0.0532937
0.109572
0.13698
0.400564
15.3793
1751.68
5353.38
5445.41
5359.22
5201.49
4872.81
4386.69
3659.13
2331.4
2327.48
3145.31
2335.21
2162.36
2164.88
2329.41
2548.08
2549.31
3498.66
3902.43
4318.7
4692.89
4994.91
5242.64
0.0173316
0.0614522
0.151649
0.19704
0.415309
7.56651
1959.87
5363.16
5411.53
5285.7
5061.71
4705.42
4172.26
2670.7
2669.01
2975.19
2976.39
2096.63
2110.1
3045.7
2574.86
2098.22
1873.41
1874.66
2103.76
2379.57
2375.53
3521.85
4016.33
4491.67
4867.02
5179.82
5461.66
0.021841
0.0683136
0.184256
0.302777
0.487922
6.39505
2059.62
5364.12
5339.36
5177.35
4929.72
4545.45
3276.2
3277.52
3539.65
3540.8
2503.03
2500.73
2841.62
2838.92
1826.98
1799.7
1545.16
1636.27
1710.32
3081.19
2362.13
1134.18
1134.74
1343.57
1341.83
1821.41
1569.88
1565.15
1796.3
1544.28
1633.79
1707.72
1970.05
1991.23
2160.17
1871.35
1967.3
1991.8
2157.66
1869.14
3668.69
4242.51
4709.55
5068.56
5395.97
5716.45
0.0317771
0.108438
0.248379
0.446265
0.60671
5.94726
1984.02
5260.33
5246.53
5057.97
4784.09
3780.46
3781.63
3991.32
3992.61
3179.4
3175.5
3478.18
3472.45
2039.83
1921.12
2110.33
2206.8
2288.25
2003.87
1919.73
2042.43
2110.72
2207.94
2288.33
2003.2
2599.86
2686.15
2405.73
2495.56
2600.91
2686.15
2406.85
2495.65
1323.43
1379.18
1470.15
1230.16
1657.26
1473.5
1485.24
1644.8
3248.77
2408.18
857.69
855.675
955.615
954.544
779.554
777.377
966.933
964.94
1321.64
1380.23
1468.6
1229.62
1189.21
905.381
1086.95
1088.27
1187.07
909.762
1086.44
1087.02
1657.29
1475.59
1485.9
1646.1
1834.94
1807.5
1834.65
1807.8
3935.04
4511.59
4938.25
5281.6
5636.07
6017.17
0.0413609
0.159443
0.338591
0.580309
0.773629
3.99202
1418.45
5073.87
5130.13
4929.88
4151.27
4151.4
4338.3
4338.59
3732
3725.37
3949
3940.91
2769.64
2848.71
2902.21
2981.79
2771.48
2848.86
2908.04
2982.74
3242.12
3316.69
3055.61
3124.81
3245.85
3316.97
3060.2
3125.28
1890.35
2083.29
2119.57
1925.2
2236.18
2258.26
1891.6
2085.78
1925.64
2120.21
2237.39
2258.75
2613.62
2631.82
2426.93
2442.93
2616.06
2632.69
2428.31
2443.52
1147.63
1302.77
1317.87
1127.94
1572.64
1380.27
1390.59
1562.61
3546.1
2629.67
885.844
883.684
841.314
837.515
526.457
520.087
619.491
615.84
160.562
257.19
299.476
398.622
169.242
260.352
306.746
401.787
546.164
797.525
609.653
442.821
539.139
883.883
550.035
795.139
610.219
448.483
541.287
883.086
1148.02
1305.39
1318.83
1130.35
1003.09
972.113
1003.37
973.711
1572.77
1382.49
1391.72
1562.13
1766.88
1742.65
1766.76
1742.65
4258.93
4772.93
5164.15
5496.97
5903.56
6351.76
0.0573195
0.218471
0.438691
0.733402
0.978885
2.24129
795.406
4604.16
4985.85
4460.86
4461.42
4568.48
4569.26
4103.86
4101.14
4279.71
4279.71
3371.47
3467.65
3484.08
3574.65
3374.39
3467.12
3488.59
3574.53
3738.28
3843.87
3586.96
3680.79
3738.76
3842.08
3588.32
3679.09
2796.49
2812.42
2949.2
2961.51
2798.49
2813.11
2951.24
2962.39
3273.45
3287.19
3087.39
3092.44
3276.73
3288.43
3088.61
3093.17
1041.82
1207.77
1218.03
1024.95
3947.06
3046.59
1059.63
1060.3
925.872
926.346
591.322
578.963
509.545
499.754
-170.849
-87.4252
-134.406
-49.8352
-165.074
-85.5713
-127.25
-47.0514
29.6919
111.803
-63.5497
26.7371
38.5853
115.008
-53.9075
29.7821
78.3543
113.873
210.51
242.069
87.7602
117.54
217.798
245.63
678.652
472.38
507.422
699.672
358.907
387.656
679.724
476.903
509.3
699.78
364.515
390.368
1042.06
1209.12
1218.7
1025.04
864.8
843.936
865.586
846.284
4565.51
5016.72
5382.08
5718.17
6190.29
6700.49
0.0773007
0.277308
0.551377
0.941693
1.17092
1.9677
385.691
3708.28
4782.67
4410.16
4410.36
4488.21
4488.74
4055.93
4054.29
4246.29
4244.07
3397.47
3409.03
3513.05
3524.28
3398.47
3409.49
3513.32
3524.37
3724.33
3768.26
3618.3
3638.09
3723.55
3767.9
3617.83
3637.86
3290.89
3306.78
3294.89
3308.06
4330.54
3610.6
1398.38
1404.1
1186.85
1188.49
780.922
774.165
649.84
639.99
-186.332
34.245
-197.119
-74.0398
-181.021
34.8999
-194.263
-73.608
-177.199
-94.0499
-189.93
-75.5299
-176.766
-93.8247
-183.727
-74.2023
-273.445
-224.313
-225.799
-189.167
-264.474
-221.594
-218.574
-186.291
-46.9413
-14.5348
-142.147
-106.497
-37.7177
-11.1368
-133.857
-103.407
4843.23
5248.62
5576.62
5950.28
6492.92
7029.31
0.0971639
0.33379
0.656593
1.15986
1.35234
3.62289
170.168
2460.92
4417.03
4417.47
4044.79
4045.04
4378.74
4375.16
4450.11
4451.14
3963.76
3810.7
3864.48
3899.95
3963.33
3809.63
3864.29
3899.01
4058.91
4091.71
4159
3994.33
4058.57
4093.95
4158.95
3994.3
3397
3410.72
3508.8
3523.38
3398.96
3411.45
3509.52
3523.64
3735.14
3751.74
3621.87
3637.51
3736.42
3752.17
3621.62
3637.54
4669.88
4110.32
3360.93
1169.49
1171.58
968.256
962.569
470.542
466.27
290.558
290.575
-308.741
-191.913
-325.719
-246.66
-301.295
-189.818
-319.068
-244.543
-306.602
-240.03
-325.515
-243.94
-296.87
-236.96
-318.279
-241.814
-353.995
-303.642
-343.915
-300.797
5100.56
5451.37
5764.53
6175.74
6820.37
7154.57
0.113058
0.363258
0.70684
2.38064
6.99086
22.6173
209.8
1193.13
4475.53
4476.66
3477.61
3478.02
4161.37
4223.67
4297.84
4211.6
4161.07
4222.63
4295.63
4210.41
4439
4436.84
3947.13
3841.91
3850.87
3939.61
3946.94
3843.24
3851.18
3938.77
4038.54
4115
4127.62
4030.93
4038.7
4116.23
4128.08
4031.49
3763.25
3774.71
3766.29
3775.51
4961.89
4522.76
3978.99
1579.06
1583.6
1195.48
1194.9
934.412
934.132
740.258
725.069
-120.024
-219.156
-10.4769
-294.286
-117.099
-204.057
-6.87794
-286.586
-196.925
-404.874
-273.931
-349.573
-195.195
-401.02
-272.37
-344.935
-405.684
-348.69
-424.717
-380.887
-397.93
-346.52
-421.195
-379.5
-390.286
-344.755
-414.43
-369.57
-383.725
-342.451
-409.508
-367.889
5316.95
5627.38
5940.8
6459.9
6957.56
0.111059
0.313071
2.07714
26.1739
79.0606
202.486
479.742
865.919
866.114
290.449
290.163
3951.22
4365.02
3775.06
4359.36
3952.19
4366.47
3775.11
4361.38
2835.75
2836.55
4173.89
4189.46
4252.07
4210.41
4173.79
4189.43
4251.22
4210.02
4211.9
4377.7
4275.03
4313.56
4214.19
4378.02
4275.56
4314.01
4057.56
4123.83
4134.25
4047.22
4058.22
4126.71
4135.17
4049.7
5199.78
4859.51
4443.67
3939.05
1474.97
1461.77
1082.83
1070.61
810.227
794.379
-160.966
79.7494
257.206
-42.7478
-148.887
82.3194
256.028
-42.4395
-262.833
-210.209
-145.664
-313.501
-259.86
-199.087
-141.601
-305.712
-325.986
-445.796
-370.562
-386.542
-323.419
-440.124
-368.608
-380.776
-464.615
-398.263
-456.716
-396.42
5487.37
5775.68
6144.52
6598.07
0.0593235
0.644829
24.1093
128.64
341.101
725.826
559.447
568.978
975.684
985.011
667.496
666.695
808.264
798.024
3822.13
4322.82
3436.43
4193.27
3821.64
4324.83
3435.61
4196.02
3296.91
1884.37
2622.47
2435.14
3300.72
1870
2628.39
2432.95
4174.49
4185.6
4244.37
4231.02
4174.54
4185.57
4244.41
4230.94
4239.16
4366.45
4281.22
4317.19
4240.85
4366.47
4282.05
4317.47
5373.73
5125.8
4827.31
4471.62
1836.4
1841.36
1625.52
1621.57
1314.76
1317.94
114.213
421.632
169.844
551.994
128.162
425.915
193.116
558.293
6.97513
252.386
-83.749
132.226
-33.0807
104.936
33.2915
259.388
-68.1149
137.484
-27.337
107.25
-156.61
-65.1698
-147.418
-61.4197
-300.742
-245.822
-208.568
-333.706
-297.488
-231.053
-203.723
-323.827
5619.4
5926.2
6286.03
-0.0703636
7.3875
64.0887
214.896
475.782
894.79
1617.04
1608.03
1598.38
1592.86
736.64
1777.52
673.59
726.371
664.715
2546.83
1769.21
734.781
2561.35
672.701
724.924
664.656
1013.94
2382.87
841.54
1002.94
1032.83
2349.88
844.416
851.785
3668.61
4284.68
3430.56
4226.99
3667.89
4287.42
3430.11
4229.82
2219.95
2039.29
2203.62
2033.74
4271.56
4260.1
4271.82
4260.76
4039.45
4331.6
4040.13
4333.02
5501.88
5311.48
5128.69
4893.53
2223.15
2237.39
2036.74
2034.8
1869.68
1859.75
1575.75
1572.94
611.063
315.791
735.588
317.596
433.341
250.619
615.629
343.791
744.792
327.256
431.49
255.583
201.457
290.15
211.152
294.6
82.9507
151.797
-17.0616
-98.1904
62.5647
-24.0251
99.5429
157.873
-6.66401
-77.3231
66.8323
-16.9348
-192.241
-151.037
-177.852
-146.106
5731.11
6019.1
-0.0791952
13.2975
57.5898
96.2345
156.694
613.689
610.581
15.733
15.7385
2295.46
2235.3
1836.98
1817.32
1343.23
831.526
907.139
1414.06
1039.49
824.101
1341.06
829.131
1428.39
865.238
1034.35
851.052
1881.71
2008.02
1313.3
758.779
1922.22
2158.31
1351.94
744.33
2849.94
3303.01
2850.57
3278.47
5600.08
5441.95
5323.47
5213.35
5044.7
2222.92
2222.65
2082.37
2065.06
700.715
1159.27
708.83
1039.33
724.107
1161.85
728.041
1045.5
514.115
429.219
819.45
590.055
897.1
654.562
527.71
441.879
824.841
620.821
906.345
659.567
523.867
382.651
422.147
303.491
526.39
385.765
426.67
310.951
211.504
265.439
220.323
269.208
96.5955
162.707
-100.544
-32.3982
112.071
167.786
-83.5798
-26.3803
5813.09
0.0486321
8.51235
12.1269
11.8233
16.816
218.097
225.861
21.5788
21.9457
2270.94
2293.56
2472.24
1850.85
1477.46
2271.91
2214.73
1856.85
869.183
872.767
2217.09
1763.76
2045.46
1706.22
2227.23
2591.12
2036.6
1995.42
5673.25
5544.1
5451.97
5413.32
5368.2
2551.39
2567.61
2362.9
2360.79
2195.24
2193.72
2057.8
2049.98
830.38
1079.52
861.626
952.917
848.483
1085.52
873.218
956.935
534.593
686.791
660.307
815.701
787.751
880.567
546.476
694.599
818.724
664.289
797.71
884.881
413.728
340.673
416.663
347.952
-0.0047426
1.0793
0.868171
5.70777
9.42279
10.7871
11.4756
12.3867
49.8225
48.2748
12.336
13.1895
1330.3
2126.51
2612.5
1582.06
1530.6
2133.49
2642.13
1587.99
197.301
126.483
542.592
738.632
189.774
125.261
538.469
743.754
2310.32
2238.29
2290.49
2589.12
5606.02
5564.61
5542.12
5570.31
5585.1
2534.32
2534.54
2517.77
2497.4
2346.79
2327.31
1446.69
943.76
1284.37
925.077
1442.59
943.819
1287.06
920.962
946.835
1037.8
916.819
966.251
963.517
1043.04
926.748
968.859
-0.320346
-0.104119
0.189006
4.81958
9.37493
11.1604
11.1058
10.8541
72.1808
139.791
12.6186
21.7752
27.4855
16.0338
69.4636
140.104
12.0124
21.3172
27.3266
15.5112
7.66714
7.80273
1732.41
1478.23
2038.28
940.593
1797.71
1463.34
2158.29
936.761
92.9039
126.174
93.1707
127.018
5624.91
5661.12
5715.41
5800.72
2855.02
2867.36
2626.79
2627.1
2443.9
2452.99
2575.26
2556.35
1026.95
1608.98
1102.52
1464.22
1024.13
1368.07
1089.75
1624.7
1123.57
1475.36
1022.5
1369.61
1063.1
1182.21
1075.7
1191.67
1003.61
1089.87
1022.25
1095.72
-0.202937
0.00147148
0.351774
4.38566
4.20684
2.66288
2.63306
10.3719
12.1088
9.18086
7.95933
25.7115
47.0405
18.2324
9.06649
19.7276
7.61111
25.7312
46.3746
16.6205
8.63954
19.1395
7.6009
5.2909
7.61213
6.44005
13.0937
6.15984
6.87977
6.18208
12.1102
5734.88
5839.01
5963.86
6100.98
2863.54
2859.56
2797.34
2772.94
2714.63
2697.7
1157.5
1545.55
1846.15
1285.64
1769.63
1214.65
1842.41
1281.57
1767.13
1213.88
1172.88
1555
1217.52
1152.8
1423.74
1310.41
1224.22
1172.44
1430.33
1320.65
1104.02
1204.36
1125.95
1210.44
-0.0500134
0.142542
0.64291
3.1952
3.13395
2.72089
2.73026
5.24125
7.97672
12.4484
7.99797
11.7147
8.45796
6.14736
10.6385
12.553
9.45109
12.9944
8.86367
6.70022
5.66318
13.4613
7.57028
14.997
7.5521
5.36941
9.24011
5.61057
8.41134
5914.63
6103.41
6274.34
3106.67
3112.36
2951.8
2948.19
2876.57
2872.5
2809.86
2796.01
1242.52
1890.06
1344.34
1796.78
1323.28
1762.88
1268.8
1328.36
1763.92
1894.91
1361.16
1802.13
1329.13
1577.47
1406.63
1676.83
1406.19
1330.45
1676.03
1576.81
0.0218416
0.211925
0.5373
3.37062
3.26401
2.7756
2.75799
5.27499
9.02558
11.1605
6.24179
11.6154
6.84448
6.85385
13.0293
9.72433
6.39744
10.6891
6.33244
4.24977
5.5369
4.95853
5.84324
3.95844
5.11784
4.45911
5.91241
5.08326
7.72192
5.46917
10.4661
6182.26
6445.06
6656.94
3195
3189.09
3112.33
3093.22
2908.29
2904.2
1382.3
1805.92
1945.46
1445.35
1894.6
1314.39
1399.76
1811.68
1945.76
1443.65
1895.25
1314.66
1505.64
1424.84
1714.29
1667.55
1446.97
1674.9
1513.03
1717.07
0.0405326
0.257143
2.46998
2.69034
2.69681
2.47152
2.30339
2.29263
3.50345
4.17298
4.39074
3.47356
3.93714
4.61205
5.435
10.0894
7.72898
5.68608
9.04925
5.7956
6.57183
12.2275
7.20327
5.31637
7.37757
5.05202
4.25614
4.50792
4.03339
5.18602
6522.62
6824.79
7051.49
3310.58
3310.31
3129.54
3129.3
1270.72
1916.25
1469.21
1925.16
1460.29
1867.73
1296.32
1463.35
1870.34
1914.2
1490.53
1932.68
1537.85
1722.44
1602.64
1793.14
1558.09
1728.65
1616.75
1798.49
1542.15
1701.41
1555.61
1705.5
0.0684101
0.243755
2.63997
2.47468
2.64605
2.48029
2.34237
2.33749
3.75444
4.29704
4.29145
4.23085
4.06842
3.74993
3.56634
3.39943
4.09022
3.76382
4.28538
4.01342
4.34908
3.78015
3.56283
3.42207
5.77776
4.78427
5.97176
4.31754
4.31119
4.13083
4.08207
4.28854
6879.77
7185.12
3639.53
3324.84
3309.78
3654.83
3440.25
3443.74
3094.11
1427.78
1884.77
3096.29
1458.18
1896.16
1592.79
1635.34
1763.09
1872.49
1612.98
1770.24
1650.57
1878.48
1589.29
1747.58
1618.05
1767.94
1611.27
1753.76
1642.02
1775.26
0.0407809
0.25868
2.65038
3.28962
3.49204
2.47483
2.65978
3.28926
3.49148
2.49479
2.3711
2.37054
4.02335
3.60192
4.30305
4.09272
4.36915
3.42669
3.96724
4.10564
3.6075
4.16675
4.30896
3.43177
4.35971
4.42855
4.62761
4.14324
7237
7513.9
3680.3
3274.96
3271.59
3678.78
3610.66
3597.95
1561.4
1435.79
1865.02
1406.14
1843.31
2065.17
1328.74
1987.73
1581.71
1467.16
1876.72
1439.11
1855.35
2073.13
1368.85
1999.36
1636.65
1615.08
1790.96
1835.36
1644.3
1794.75
1628.87
1841.19
0.0242689
2.36645
2.40979
2.41787
2.36446
2.26711
2.25574
3.46617
3.29997
3.45659
3.34687
3.48976
3.18065
3.45491
3.25598
2.56005
3.48045
3.25871
3.45821
3.30436
3.45817
3.34856
3.49173
3.18035
3.45219
3.25498
2.56541
3.47288
3.25607
3.7483
3.5656
3.79516
3.39868
3.74372
3.57151
3.79891
3.40432
7588.2
7758.77
3767.62
3330.55
2006.58
1559.92
3333.68
2015.25
1577.35
3762.92
3616.03
3596.21
1630.62
1786.43
1566.06
1873.92
1853.51
2030.16
1654.68
1798.51
1586.97
1860.3
1882.28
2034.79
1620.9
1794.33
1630.18
1798.29
-0.0438789
2.41193
2.35001
2.42355
2.34764
2.24347
2.2341
3.53527
3.49185
3.38611
3.35492
3.50107
3.33059
3.37495
3.4421
3.33434
3.50243
3.33217
3.19777
3.40185
3.10687
3.53951
3.48636
3.35794
3.38449
3.49611
3.32777
3.43462
3.38094
3.33139
3.48803
3.32749
3.19882
3.40392
3.11057
7816.4
3748.95
3770.99
3749.8
3783.02
3858.85
3850.5
1480.94
1999.32
1602.38
2034.92
1569.53
2167.84
1675.25
2191.04
1532.91
2005.7
1624.38
2043.25
1583
2184.96
1700.91
2200.49
3548.7
1656.54
2147.08
3545.24
1702.96
2163.86
1752.6
1800.1
1934.74
2028.33
1772.89
1799.98
1942.1
2031.5
-0.0593122
2.4212
3.17996
3.40175
2.36328
2.43702
3.18214
3.40859
2.35974
2.26681
2.25646
3.55526
3.40747
3.49341
3.37347
3.43516
3.39004
3.47553
3.36695
3.37728
3.24131
3.54611
3.40452
3.48312
3.36794
3.42197
3.46758
3.40086
3.36324
3.37304
3.24457
7980.13
3820.54
3765.1
3735.44
3845.4
3881.37
3873.69
1752.35
1762.77
2026.45
1995.25
1845.47
2126.38
1765.41
1784.03
2032.91
2003.4
1866.82
2135.08
1906.83
1729.6
2171.55
1634.94
2116.26
2405.86
1618.55
2213.79
1911.91
1754.9
2181.16
1689.29
2133.54
2406.89
1633.5
2212.35
0.0531018
2.29714
2.28558
2.43346
3.237
3.36951
3.21352
3.39629
2.38782
2.44587
3.2384
3.37871
3.21743
3.40375
2.38407
3.48595
3.50181
3.37009
3.39958
3.3714
3.26856
3.46783
3.49198
3.37788
3.39327
3.36751
3.27243
8172.58
3807.84
3878.09
2319.48
1874.44
3831.19
2314.74
1862.61
3838.19
3913.33
3905.98
1826.23
2038.06
1872.48
2151.37
1847.86
2045.37
1886.89
2157.75
2005.56
2158.3
1923.53
2202.14
2179.14
2475.78
2011.94
2131.15
1932.1
2182.41
2203.6
2466.47
-0.0849913
2.30665
2.70912
2.29515
2.68066
2.45176
3.23232
3.38461
3.21401
3.39409
3.35257
3.25807
2.43035
2.46146
3.23298
3.38597
3.21626
3.39609
3.35915
3.26226
2.41971
3.46506
3.36043
3.45405
3.3624
8349.47
3837.21
3860.12
3897.83
2220.72
1836.07
2222.13
1842.47
3857.07
2215.34
1833.29
2220.55
1829.24
3932.34
3918.16
2087.47
2018.5
2166.87
2273.76
2207.36
2426.86
2103.16
2023.51
2145.69
2206.61
2274.73
2419.16
-0.154637
2.3286
2.25596
2.31434
2.24283
2.87739
2.8419
2.74695
3.25031
3.40725
3.24928
3.40224
3.23884
3.35257
3.2462
3.35268
3.45299
3.35145
2.7034
3.25204
3.40078
3.24819
3.40352
3.2397
3.35446
3.24737
3.35198
3.43967
3.3484
8458.8
3879.7
3940.76
3902.1
3963.36
3899.13
2227.16
1820.67
2230.75
1839.81
2168.37
2428.47
3858.27
2222.19
1828.99
2228.06
1835.28
2162.91
2426.87
3925.79
3917.21
2103.14
2327.6
2127.74
2330.44
-0.065768
2.22897
2.25085
2.21631
2.2399
2.43459
2.32829
2.42876
2.32477
3.42189
3.31124
4.22096
3.63195
3.47737
3.65843
3.2103
3.36756
3.21205
3.34627
3.30268
3.45254
3.32541
3.45301
3.99418
3.56992
3.44928
3.61686
3.2113
3.35935
3.21139
3.34507
3.29944
3.43936
3.32264
3.44465
8256.63
3983.93
3984.59
4005.47
4005.08
3954.47
3948.44
3841.66
2206.16
1822.84
2240.73
1823.35
2452.34
2172.76
2435.73
2197.25
2140.08
2390.26
3814.25
2203.62
1833.89
2241.52
1821.08
2452.51
2181.12
2437.63
2206.57
2169.04
2394.78
-0.0579811
2.23175
2.16688
2.22106
2.15661
2.29733
2.28811
2.29414
2.28625
2.50205
2.38174
2.50411
2.39094
5.26035
4.16505
5.21355
4.21134
5.14175
4.07523
4.92536
4.09083
4.30532
3.54483
3.4612
3.56385
4.1307
3.50025
3.40367
3.52692
7891.85
3912.99
3836.28
3932.29
3853.83
3974.12
3961.77
3968.46
3953.85
3838.58
3814.73
2280.71
1804.13
2240.55
1839.44
2433.59
2153.39
2417.33
2186.01
2387.6
2162.9
2387.02
2160.83
2281.29
1827.41
2246.09
1844.16
2430.76
2166.45
2422.35
2176.75
2391.26
2190.95
2392.82
2179.63
0.124671
-0.0119287
2.26369
2.24076
2.26175
2.23861
2.35488
2.31391
2.36365
2.32716
3.21338
3.44372
3.34221
3.32944
3.15008
3.31136
3.14695
3.30261
3.21524
3.44277
3.34069
3.33247
3.15043
3.30597
3.14698
3.30238
5.37018
4.03388
5.43338
4.04705
5.45388
3.91993
5.42728
3.96288
7616.77
3755.51
3658.51
3774.2
3680.9
3907.86
3851.17
3897.94
3840.87
3838.23
3803.62
3816.77
3782.47
2300.59
1852.4
2361.93
1839.97
2297.96
1849.15
2357.73
1837.94
2442.81
2117.72
2412.93
2119.56
2445.09
2138.99
2419.37
2130.84
0.0828802
2.24915
2.22454
2.2592
2.2236
0.00580597
2.28669
2.26167
2.3044
2.27392
3.12093
3.31364
3.14254
3.29183
3.09391
3.27675
3.07705
3.28201
3.12175
3.30947
3.14292
3.29245
3.09521
3.27905
3.08012
3.28434
3.1201
3.35761
3.21377
3.26969
3.12969
3.25202
3.1411
3.2642
3.12215
3.36068
3.20805
3.26843
3.12983
3.24781
3.13977
3.26087
7429.87
7518.37
3770.69
3633.36
3757.82
3628.73
3788.03
3757.63
3760.47
3723.99
2422.05
1844.47
2384.66
1876.63
2396.92
1797.39
2342.4
1858.25
2417.42
1842.38
2381.46
1868.76
2394.58
1815.13
2344.73
1854.79
2441.65
2030.93
2458.06
2077.35
2443.09
2042.12
2459.35
2086.39
0.104314
2.1875
2.12684
2.1828
2.11446
2.34216
2.28013
2.35101
2.29771
-0.0241528
3.06588
3.25148
3.06113
3.25859
2.99675
3.2586
2.94723
3.23879
3.06992
3.26291
3.06676
3.26768
3.001
3.26061
2.95116
3.24804
3.13328
3.25156
3.16657
3.20368
3.13044
3.18719
3.12732
3.19267
3.13487
3.24847
3.1656
3.20551
3.13259
3.19566
3.13038
3.1962
7182.12
7295.22
3705.83
3677.72
3680.12
3664.23
3717.1
3623.28
3671.22
3594.3
2237.37
1783.3
2295.14
1761.67
2183.42
1669.07
2100.65
1741.09
2234.81
1792.28
2295.06
1758.68
2180.28
1672.35
2096.8
1733.08
2415.79
2035.03
2405.17
2068.62
2395.52
2023.67
2350.44
2064.5
2412.73
2045.45
2406.83
2064.56
2392.38
2037.28
2353.01
2059.71
0.232993
0.0277436
2.25743
2.31507
2.26475
2.31033
3.23578
3.18916
3.11694
3.29406
3.10389
3.02869
3.27123
2.96381
3.25809
3.01388
3.23307
3.19741
3.11565
3.28251
3.1009
3.03191
3.26255
2.96369
3.25228
3.01287
-0.0368037
3.10308
3.17438
3.10685
3.18293
3.05642
3.18276
3.10846
3.18659
3.11137
3.19724
3.06217
3.1977
3.15561
3.2578
3.15964
3.25723
3.15479
3.24776
3.15808
3.24904
6860.14
7121.16
3599.83
3533.45
3591.02
3541.25
3452.26
3523.83
3435.69
3503.89
2022.54
1680.45
2064.46
1666.04
2130.23
1502.58
2069.07
1720.09
2017.97
1671.89
2058.36
1656.57
2122.82
1526.37
2078.96
1703.06
2312.48
2015.92
2330.12
2017.43
2304.56
1972.28
2243.54
2018.94
2312.19
2031.44
2333.52
2021.26
2301.06
1971.37
2241.68
2015.28
0.13263
2.44899
2.90503
2.48898
2.97502
-0.0180792
2.41738
2.57383
2.4227
2.60008
3.20628
3.21986
3.14566
3.13706
3.23242
3.14016
3.21017
3.03285
3.23839
3.09062
3.20292
3.22053
3.14529
3.13719
3.22904
3.13935
3.20869
3.03192
3.23709
3.08939
-0.14597
3.13709
3.24653
3.14139
3.24782
3.12869
3.24719
3.13886
3.24068
3.1411
3.24769
3.13029
3.24931
6463.44
6788.37
6954.73
3537.83
3380.57
3521.46
3375.18
1643.41
1674.49
2010.87
1606.4
2017.94
2111.11
1414.57
2065.95
1613.21
2056.38
1664.35
1702.25
2038.35
1679.5
2048.19
2109.53
1470.27
2087.5
1668.64
2081.8
2186.3
1969.53
2228.99
1921.52
2205.13
1871.83
2180.45
1964.46
2226.48
1907.72
2196.94
1845.8
2233.2
1962.59
2198.98
1984.47
2231.66
1974.86
2199.23
1991.73
0.0345561
2.50217
2.19444
2.54413
2.20098
3.76596
4.57399
3.90927
4.6993
-0.139643
3.25121
3.2775
3.18761
3.28297
3.26937
3.33926
3.33198
3.33585
3.20912
3.27263
3.17361
3.28146
3.27535
3.34952
3.37259
3.34451
3.2445
3.15544
3.23504
3.1292
3.2872
3.12847
3.23876
3.15394
3.23084
3.12662
3.28201
3.12598
-0.336328
6107
6374.28
6585.85
3231.96
3246.89
3216.33
3245.98
3249.24
3209.63
3252.33
3208.33
1912.16
1875.1
2147.51
2106.93
1914.6
2177.27
1650.29
2192.21
1880.07
2194.59
1970.36
1916.28
2125.82
2164.98
1937.22
2189.5
1676.76
2201.55
1909.64
2205.54
2178.91
1985.8
2212.96
1942.63
2243.89
1951.61
2181.22
1993
2212.89
1958.63
2251.36
1975.78
2.92708
0.00444856
3.5058
3.75303
3.48148
3.46407
4.13154
3.57985
4.60294
4.02
6.79962
3.52141
5.59806
10.9685
4.45903
9.45136
4.22705
3.65465
4.58479
4.09331
6.92397
3.59914
5.58235
11.1094
4.48374
9.65162
0.441909
3.4289
3.33391
3.27933
3.36989
3.36066
3.39194
3.43062
3.32687
3.24459
3.36818
3.41376
3.38561
-0.193262
5831.05
6015.29
6163.97
3131.14
3029.71
3125.98
3036.96
3095.83
3084.24
3095.13
3077.53
2018.83
1619.77
2060.97
1564.38
2005.84
1337.33
2044.94
1535.71
2021.43
1640.15
2067.79
1573.68
2009.98
1375.06
2054.51
1547.7
1937.43
2143.68
1776.9
2020.6
1870.71
2093.66
2004.68
2165.54
1801.89
2030.39
1899.22
2104.1
4.35321
20.8556
18.9158
21.0904
18.6278
5.30989
10.261
14.6772
10.1436
14.4109
3.84921
4.06434
3.87089
4.03841
4.08905
5.81389
7.15442
12.1091
5.00618
9.89144
3.91301
4.14228
3.91547
4.04354
4.1673
5.88525
7.21861
12.2724
5.12016
10.1407
8.36828
3.53651
3.45504
3.66728
3.42782
0.332227
5652.14
5746.67
5843.31
5985.02
3028.65
2841.53
3009.7
2839.31
1421.35
1524.94
1853.16
1371.91
1827.4
2027.48
1208.06
1885
1382.26
1849.26
1531.17
1447.04
1862.23
1400.75
1837.91
2030.25
1245.75
1895.58
1410.15
1859.76
2037.88
1709.48
2014.76
1745.59
1983.97
1722.36
2035.6
1722.81
2018.76
1739.03
1981.79
1717.88
44.595
37.6019
26.0031
33.5322
26.397
33.1522
44.0516
19.1386
6.62531
13.2093
10.4997
21.3764
20.3388
6.78333
13.2487
11.0862
21.9275
4.91404
9.04938
6.47909
14.0708
6.11043
13.2192
4.99879
9.07373
6.3048
14.0479
6.08802
13.1457
21.8885
0.344846
5555.26
5574.64
5614.69
5676.24
2765.79
2755.25
2762.79
2768.04
2824.64
2781.54
2818.65
2777.47
1603.64
1592.32
1816.37
1819.29
1541.61
1749.07
1401
1844.94
1554.59
1774.99
1620.58
1605.89
1824.19
1820.34
1554.42
1754.25
1422.51
1852.28
1569.41
1780.86
1869.48
1649.76
1869.05
1663.2
342.301
57.0217
41.7607
53.4387
41.761
167.622