/*--------------------------------*- C++ -*----------------------------------*\
| =========                 |                                                 |
| \\      /  F ield         | OpenFOAM: The Open Source CFD Toolbox           |
|  \\    /   O peration     | Version:  5.x                                   |
|   \\  /    A nd           | Web:      www.OpenFOAM.org                      |
|    \\/     M anipulation  |                                                 |
\*---------------------------------------------------------------------------*/
FoamFile
{
    version     2.0;
    format      ascii;
    class       surfaceScalarField;
    location    "1.6";
    object      phi;
}
// * * * * * * * * * * * * * * * * * * * * * * * * * * * * * * * * * * * * * //

dimensions      [0 3 -1 0 0 0 0];

internalField   nonuniform List<scalar> 
30582
(
0.000256736
-3.46102e-06
0.000260397
-3.66106e-06
0.00025637
-6.52589e-06
0.000261114
-7.16657e-07
0.000259903
-7.19368e-06
0.000254992
-8.14561e-06
0.000257213
3.90034e-06
0.00026036
-1.17362e-06
0.00025901
-1.12111e-05
0.000252651
-7.3267e-06
0.000252138
5.07503e-06
0.000256635
7.62557e-06
0.000260553
-2.7169e-06
0.000255772
-1.43325e-05
0.000249377
-3.10871e-06
0.000246124
6.01463e-06
0.00025172
9.9901e-06
0.00025723
1.09491e-05
0.000256172
-3.11647e-06
0.000253647
-1.86024e-05
0.00024275
7.90105e-06
0.000240178
5.94555e-06
0.000246023
1.17109e-05
0.000252661
1.45583e-05
0.000254085
1.30354e-05
0.000255826
-5.29634e-06
0.000244672
-2.05239e-05
0.00023753
2.43249e-05
0.000234523
5.65517e-06
0.00023999
1.19787e-05
0.000246674
1.76978e-05
0.000250608
1.80359e-05
0.00025496
1.39013e-05
0.000245283
-5.90825e-06
0.000242321
-2.53158e-05
0.000219987
5.85131e-05
0.00023073
3.79268e-06
0.000234232
1.14137e-05
0.000240189
1.84639e-05
0.000245619
2.2686e-05
0.000252912
2.00849e-05
0.000247792
1.13926e-05
0.000245567
-9.15424e-06
0.000215931
-2.12594e-05
0.000137336
-0.000100978
0.000229422
1.30798e-06
0.000230299
7.72519e-06
0.000233994
1.76089e-05
0.000239216
2.48676e-05
0.000247838
2.77598e-05
0.000249313
1.85643e-05
0.000249811
7.1493e-06
0.00022067
-1.38933e-05
0.000149964
-3.38874e-05
-0.000256897
0.000154991
0.000230389
-9.66418e-07
0.000228855
2.75183e-06
0.000229631
1.20879e-05
0.000232558
2.42663e-05
0.00024007
3.26351e-05
0.000246576
3.04968e-05
0.000252439
1.59364e-05
0.00023411
-6.2911e-06
0.000186686
-5.06157e-05
-0.000265539
-2.52462e-05
8.38204e-05
7.11337e-05
0.000232669
-2.28049e-06
0.000230175
-2.28561e-06
0.000228417
3.96592e-06
0.000227666
1.69799e-05
0.000231863
3.24733e-05
0.000239016
4.01944e-05
0.00024904
3.38956e-05
0.000246589
3.45761e-06
0.000229206
-4.88108e-05
-0.000199642
-0.000116512
8.00448e-05
-2.14706e-05
6.29663e-05
8.16698e-06
0.00023451
-1.84039e-06
0.000232895
-5.00044e-06
0.000229857
-3.72546e-06
0.000226
5.63236e-06
0.000225923
2.29199e-05
0.000229603
4.18871e-05
0.000239411
4.98229e-05
0.00025047
3.00145e-05
0.000265339
-3.26752e-05
-5.81561e-05
-0.000190297
-8.83392e-05
5.18722e-05
9.29715e-05
-5.14758e-05
-9.09833e-05
9.91502e-05
0.000234139
3.70773e-07
0.000235183
-4.12936e-06
0.000233167
-8.30991e-06
0.000228437
-6.1624e-06
0.000224684
6.87168e-06
0.000222537
2.99859e-05
0.00022736
5.39381e-05
0.000243532
5.67609e-05
0.000288555
6.79798e-06
8.69529e-05
-0.000177784
-0.000104443
-0.000174194
6.64224e-05
7.84214e-05
-4.85941e-05
-9.3865e-05
9.41423e-05
5.00797e-06
0.000229661
4.47812e-06
0.000234803
7.51138e-07
0.000236413
-7.37594e-06
0.000233151
-1.30243e-05
0.000227471
-8.94902e-06
0.000220436
8.9724e-06
0.000218115
3.92317e-05
0.000230788
6.66827e-05
0.000295486
4.983e-05
0.00021094
-0.000117189
-0.000100853
-0.000181374
4.5788e-05
-0.000153559
1.78164e-05
1.20108e-05
5.71794e-05
-5.69021e-05
-7.16092e-05
0.000219809
9.85159e-06
0.000230709
8.57234e-06
0.00023769
-5.26e-07
0.000237867
-1.20916e-05
0.000233493
-1.90469e-05
0.000224636
-1.31489e-05
0.000216069
1.10179e-05
0.000220193
4.98264e-05
0.000291847
7.03215e-05
0.000273057
-1.22873e-05
-5.69211e-05
-0.00016112
2.71415e-05
-0.000162728
1.92329e-05
-0.000154976
2.2018e-05
4.71722e-05
-4.43858e-05
0.000204286
1.55234e-05
0.000221246
1.93148e-05
0.000233862
1.24005e-05
0.000239507
-2.16659e-06
0.000240264
-1.88629e-05
0.00023309
-2.75007e-05
0.000221389
-1.84686e-05
0.000217987
1.32241e-05
0.000286793
5.48801e-05
0.000296979
4.6399e-05
1.60197e-05
-8.52282e-05
2.73418e-05
-0.000161321
1.17918e-06
-0.000144674
4.3185e-06
-0.000137276
-8.86521e-07
0.00018319
2.10955e-05
0.000205914
3.08551e-05
0.000224606
2.85708e-05
0.000237352
1.45562e-05
0.000245143
-7.04492e-06
0.000242672
-2.84451e-05
0.000232271
-3.83829e-05
0.000223595
-2.40767e-05
0.000287467
1.25504e-05
0.000308216
4.36435e-05
9.96835e-05
-3.72648e-05
4.62051e-05
-0.000104091
-6.41589e-06
-0.000153726
-5.11988e-06
-0.000135236
5.55723e-06
0.00015699
2.62006e-05
0.000184799
4.22109e-05
0.000209331
4.61306e-05
0.000229073
3.68499e-05
0.000243874
1.58252e-05
0.000249039
-1.34119e-05
0.000245431
-4.16052e-05
0.000235363
-5.01506e-05
0.000295883
-3.24927e-05
0.000333306
-1.254e-05
0.000180241
-3.69137e-05
8.05513e-05
-7.1611e-05
-3.26605e-06
-0.000107241
-8.96717e-06
-0.000149878
2.52771e-06
0.000126495
3.04949e-05
0.000158448
5.25515e-05
0.00018807
6.34714e-05
0.000214141
6.10619e-05
0.000236039
4.4685e-05
0.000250521
1.4343e-05
0.000256505
-2.44859e-05
0.000250462
-5.67049e-05
0.000309608
-6.38753e-05
0.000380199
-7.93849e-05
0.000260588
-9.28871e-05
0.000119777
-7.61393e-05
1.05625e-05
-8.54395e-05
-7.09849e-06
-0.00010911
1.02544e-07
9.27031e-05
3.37916e-05
0.000127714
6.12285e-05
0.000161379
7.92432e-05
0.000192776
8.48366e-05
0.000221247
7.58535e-05
0.000244372
5.08346e-05
0.000259936
1.09114e-05
0.000263194
-3.72172e-05
0.000324638
-7.1735e-05
0.000443346
-0.000127022
0.000340514
-0.000159311
0.000148862
-0.000121972
2.67355e-05
-9.23124e-05
1.22762e-06
-9.37657e-05
-2.56055e-07
5.66904e-05
3.60127e-05
9.36286e-05
6.78772e-05
0.000130158
9.24488e-05
0.00016563
0.00010639
0.000199584
0.000106499
0.000230086
9.0139e-05
0.000254329
5.64423e-05
0.000268566
5.53882e-06
0.000337436
-5.00153e-05
0.000507951
-0.00013634
0.000423867
-0.000210376
0.000172512
-0.000182962
3.80348e-05
-0.000133271
9.21814e-06
-0.000100303
1.11592e-06
1.95264e-05
3.71639e-05
5.72933e-05
7.2348e-05
9.5491e-05
0.000102545
0.00013371
0.000124368
0.00017171
0.000134264
0.000208149
0.000128437
0.000240331
0.000104136
0.000265678
5.93307e-05
0.000341849
1.12616e-06
0.000553982
-9.60468e-05
0.000511342
-0.000223815
0.000195335
-0.000233198
3.91322e-05
-0.000184059
1.3145e-05
-0.000137198
2.79957e-06
-1.77512e-05
3.72776e-05
1.97934e-05
7.46639e-05
5.85144e-05
0.000109325
9.81929e-05
0.000138062
0.000138754
0.000157324
0.000179371
0.000163042
0.000218041
0.000150727
0.000252305
0.000117509
0.000334768
6.64115e-05
0.000566395
-1.12863e-05
0.000592778
-0.000177482
0.000221674
-0.000250154
2.98694e-05
-0.000223935
1.11741e-05
-0.000182088
3.3756e-06
-5.41768e-05
3.64257e-05
-1.78269e-05
7.48979e-05
2.0339e-05
0.000112839
6.02854e-05
0.000147232
0.000102013
0.000174803
0.000145108
0.000191588
0.000188155
0.000192928
0.000229531
0.000173501
0.000316537
0.00013574
0.000551683
8.11228e-05
0.000649482
-6.799e-05
0.000254382
-0.00021019
1.17947e-05
-0.000232079
2.90344e-06
-0.000215665
1.74171e-06
-8.88504e-05
3.46735e-05
-5.4599e-05
7.31978e-05
-1.79746e-05
0.000113212
2.1139e-05
0.000151986
6.27793e-05
0.000186465
0.000106834
0.000213077
0.000152319
0.000227424
0.000197959
0.0002245
0.000287905
0.000202133
0.000518644
0.000168779
0.000661347
6.92573e-05
0.000291809
-0.000105417
-7.34278e-06
-0.000191053
-1.05382e-05
-0.000218638
-2.1618e-06
-0.000120955
3.21046e-05
-8.96196e-05
6.96941e-05
-5.54488e-05
0.000110672
-1.81678e-05
0.000152518
2.22582e-05
0.000192507
6.59606e-05
0.000227339
0.000112248
0.000253149
0.00015991
0.000265472
0.000250108
0.000262297
0.000471067
0.00024971
0.000632545
0.000197582
0.00032108
3.9987e-05
-1.78298e-05
-9.49292e-05
-2.63851e-05
-0.000175206
-8.01536e-06
-0.000149775
2.88196e-05
-0.000122067
6.45515e-05
-9.11686e-05
0.000105414
-5.66497e-05
0.000149154
-1.84501e-05
0.000193227
2.37527e-05
0.000234715
6.94742e-05
0.000270112
0.000117436
0.000295623
0.00020462
0.000310961
0.000409869
0.000323494
0.000575019
0.000307236
0.000329984
0.000188677
-1.6456e-05
3.86134e-05
-3.88573e-05
-8.24568e-05
-1.48383e-05
-0.000174707
2.49323e-05
-0.00015121
5.79631e-05
-0.000124294
9.76764e-05
-9.33818e-05
0.000142146
-5.83541e-05
0.000189058
-1.86826e-05
0.000235662
2.5342e-05
0.000278847
7.23463e-05
0.000315202
0.000153168
0.000347074
0.000336823
0.000384007
0.000497322
0.000401191
0.000314768
0.000322453
-1.01527e-05
0.000182374
-4.57396e-05
4.54958e-05
-2.12031e-05
-0.000195289
2.05821e-05
-0.000176426
5.0148e-05
-0.000154073
8.77426e-05
-0.000127502
0.000131796
-9.65153e-05
0.000180307
-6.03399e-05
0.000230715
-1.8995e-05
0.000279999
2.64485e-05
0.000324745
9.74081e-05
0.000370962
0.000254292
0.000429606
0.00040448
0.000476849
0.000279208
0.000436751
-4.41091e-06
0.000316711
-4.63037e-05
0.000182938
-2.43482e-05
-0.000211221
1.59324e-05
-0.000197228
4.13843e-05
-0.000179862
7.59372e-05
-0.000158221
0.000118462
-0.000132042
0.000167323
-0.000100272
0.000220239
-6.26076e-05
0.000274328
-1.90048e-05
0.000325452
3.88378e-05
0.000383315
0.000164088
0.000461166
0.000301497
0.000532588
0.000229069
0.000526988
-4.96004e-07
0.000432835
-4.27357e-05
0.000313143
-2.49643e-05
-0.000222389
1.11674e-05
-0.000213288
3.19926e-05
-0.00020115
6.2672e-05
-0.000184841
0.000102557
-0.000164101
0.00015052
-0.000137564
0.000204615
-0.00010457
0.000262202
-6.39221e-05
0.000319245
-2.04977e-05
0.000384788
6.70636e-05
0.000480339
0.000191811
0.000570851
0.000168319
0.000593338
9.49592e-07
0.000525542
-3.67985e-05
0.000426898
-2.36982e-05
-0.000228763
6.3747e-06
-0.000224427
2.2306e-05
-0.000217599
4.84417e-05
-0.000206793
8.46242e-05
-0.000191931
0.000130387
-0.000171322
0.000184278
-0.000143898
0.000243943
-0.000107949
0.000306229
-7.9299e-05
0.000378046
-3.32347e-05
0.000485086
7.56486e-05
0.000596502
0.000100892
0.000638278
3.2125e-07
0.000593966
-2.98149e-05
0.000518558
-2.09617e-05
-0.00023049
1.72652e-06
-0.000230691
1.26391e-05
-0.000229074
3.3781e-05
-0.000223685
6.53338e-05
-0.000214894
0.000107588
-0.000200695
0.00015976
-0.000179643
0.000220024
-0.000149768
0.000285761
-0.000134836
0.000361766
-0.000129096
0.000473908
-4.283e-05
0.000603565
3.52605e-05
0.000662133
-1.18557e-06
0.000639785
-2.26353e-05
0.000586787
-1.73463e-05
-0.000227986
-2.50353e-06
-0.000232414
3.44985e-06
-0.000235658
1.92227e-05
-0.000235306
4.54019e-05
-0.000232567
8.30069e-05
-0.000224916
0.000131809
-0.000210859
0.000190976
-0.000188095
0.000258351
-0.000185825
0.000336751
-0.000216953
0.000449622
-0.000158242
0.00058932
-2.08089e-05
0.000659634
-1.92943e-06
0.000662878
-1.51168e-05
0.000632266
-1.33307e-05
-0.000221864
-6.12216e-06
-0.00023007
-4.8479e-06
-0.000237343
5.13561e-06
-0.000241577
2.54941e-05
-0.000244792
5.76267e-05
-0.000243458
0.000101549
-0.000236595
0.000157544
-0.000221811
0.000224691
-0.000231601
0.000304126
-0.000296636
0.000416434
-0.000266044
0.000557425
-8.40738e-05
0.000652585
-6.14736e-06
0.000663852
-7.79868e-06
0.00065556
-9.09225e-06
-0.000212645
-9.2189e-06
-0.000223766
-1.24264e-05
-0.000234189
-8.00226e-06
-0.000242871
6.42971e-06
-0.000251649
3.23508e-05
-0.00025607
7.0238e-05
-0.000256238
0.000121192
-0.000249562
0.000185296
-0.000271488
0.000264578
-0.000367424
0.000374915
-0.000366468
0.000516858
-0.000155319
0.000628669
-9.12747e-06
0.000655564
-2.1068e-06
0.00065816
-5.04673e-06
-0.000200889
-1.17566e-05
-0.000214225
-1.87602e-05
-0.000227377
-1.92385e-05
-0.000240035
-1.0838e-05
-0.000253016
7.79687e-06
-0.000262526
3.88074e-05
-0.000269699
8.36997e-05
-0.000270434
0.000142064
-0.000304912
0.00021872
-0.000428762
0.000325917
-0.000458707
0.000467153
-0.000223049
0.000584587
-1.04461e-05
0.000629986
4.78074e-06
0.000648676
-1.52779e-06
-0.000187029
-1.38593e-05
-0.000202073
-2.39079e-05
-0.000217301
-2.88358e-05
-0.000232746
-2.65277e-05
-0.000248615
-1.52387e-05
-0.000262967
8.23765e-06
-0.000277277
4.63854e-05
-0.000284486
9.77518e-05
-0.000331113
0.000168264
-0.00048046
0.000270418
-0.000541201
0.000408411
-0.000284538
0.00052864
-1.30002e-05
0.000587138
1.23293e-05
0.000622436
2.62835e-06
-1.55383e-05
-0.000171491
-0.00018792
-2.80128e-05
-0.000204552
-3.66568e-05
-0.000222008
-3.95741e-05
-0.000240265
-3.48779e-05
-0.000258812
-1.93936e-05
-0.000278105
9.06571e-06
-0.000291096
5.29959e-05
-0.000350158
0.000116797
-0.000522888
0.000210693
-0.000612923
0.00034214
-0.000337377
0.000461248
-1.45441e-05
0.000530182
1.98149e-05
0.000579651
6.96822e-06
-3.11789e-05
-0.000172279
-4.01822e-05
-0.000131309
-0.000189747
-4.28179e-05
-0.000208544
-5.01212e-05
-0.000228477
-5.13618e-05
-0.000249368
-4.43221e-05
-0.000271535
-2.59636e-05
-0.000291892
9.86146e-06
-0.000362051
6.4889e-05
-0.000556369
0.000150277
-0.000672806
0.000270576
-0.000378025
0.000382787
-1.3524e-05
0.000460227
2.7409e-05
0.000522587
1.1381e-05
-4.73507e-05
-0.000173575
-8.06867e-05
-0.000131775
-3.8598e-05
-9.2711e-05
-0.000192956
-5.84052e-05
-0.000213983
-6.46153e-05
-0.000236191
-6.4539e-05
-0.000260247
-5.56107e-05
-0.000286222
-3.16337e-05
-0.000366137
1.39479e-05
-0.000579997
8.85178e-05
-0.000717435
0.000194906
-0.000401587
0.000294138
-9.08478e-06
0.000378347
3.53032e-05
0.000452332
1.58008e-05
-6.44406e-05
-0.000175867
-0.000122203
-0.000132059
-7.6936e-05
-9.34366e-05
-3.51858e-05
-5.75252e-05
-0.000197299
-7.5089e-05
-0.000220302
-8.05037e-05
-0.00024538
-7.94054e-05
-0.000274621
-6.72115e-05
-0.000362363
-3.54085e-05
-0.000590529
2.44792e-05
-0.000738627
0.00010971
-0.000403132
0.000196452
-8.52591e-07
0.000285907
4.33598e-05
0.000370291
2.01311e-05
-8.27405e-05
-0.000178999
-0.000165348
-0.000132722
-0.000115916
-9.30787e-05
-6.84427e-05
-6.01796e-05
-4.19343e-05
-1.55909e-05
-0.000202155
-9.32359e-05
-0.000228171
-9.77132e-05
-0.000259856
-9.41707e-05
-0.000353091
-7.64831e-05
-0.00058187
-4.40671e-05
-0.000723236
9.08767e-06
-0.000381811
8.83894e-05
1.14803e-05
0.000184121
5.12294e-05
0.000278039
2.41556e-05
-0.000102832
-0.000182064
-0.000211303
-0.000133045
-0.000154944
-9.36932e-05
-0.000101356
-6.01652e-05
-7.75243e-05
-2.45896e-05
-4.82779e-05
3.2687e-05
-0.000208776
-0.000112631
-0.000243686
-0.000113883
-0.000341145
-0.000106117
-0.000550616
-0.000107737
-0.000666305
-0.000100998
-0.000344029
-2.86936e-05
2.48627e-05
7.50082e-05
5.76779e-05
0.000177673
2.75927e-05
-0.000124782
-0.000186825
-0.00026095
-0.000132417
-0.000195185
-9.2804e-05
-0.000132266
-6.27834e-05
-0.000108229
-2.94606e-05
-8.33271e-05
1.04596e-05
-9.43459e-05
0.000127033
-0.000225907
-0.00013041
-0.000327978
-0.00012705
-0.000502006
-0.000154727
-0.000585384
-0.000188657
-0.00030168
-0.000143346
3.16836e-05
-3.55137e-05
6.01943e-05
7.24923e-05
3.00325e-05
-0.000145408
-0.000205282
-0.000314284
-0.000133492
-0.000237063
-9.05388e-05
-0.000162276
-6.27939e-05
-0.000130257
-4.0755e-05
-0.000106991
-5.79645e-06
-0.000165894
8.20078e-05
-0.000114378
0.00024141
-0.000312837
-0.00014555
-0.000446262
-0.000182794
-0.000508605
-0.000231507
-0.000262446
-0.00022789
2.48359e-05
-0.000136498
5.78458e-05
-3.31646e-05
3.09183e-05
-0.000165107
-0.000293139
-0.000363397
-0.000156168
-0.000279773
-9.07815e-05
-0.000191783
-6.10323e-05
-0.000146242
-4.68097e-05
-0.00012088
-2.68663e-05
-0.000204782
3.30908e-05
-0.00021061
0.00017824
-0.000168952
0.000410362
-0.000390597
-0.000201215
-0.000447216
-0.000244182
-0.000224082
-0.000269871
8.81102e-06
-0.000211865
4.7656e-05
-0.000126308
2.8118e-05
-0.000211552
-0.000344152
-0.000436925
-0.000219611
-0.000319581
-0.00011636
-0.00021991
-6.2654e-05
-0.000158602
-4.86716e-05
-0.000127252
-4.04373e-05
-0.000206981
-2.46668e-05
-0.000261462
8.39423e-05
-0.000301064
0.000310352
-6.3249e-05
0.000473611
-0.000398299
-0.000250133
-0.000184142
-0.000284124
-4.68404e-06
-0.000256377
3.42976e-05
-0.000198507
2.37334e-05
-0.000256968
-0.000352883
-0.000636071
-0.000145005
-0.000389324
-0.000149869
-0.000249549
-8.6721e-05
-0.000167746
-5.35099e-05
-0.000124999
-5.09249e-05
-0.000183055
-6.43631e-05
-0.000263308
-2.282e-05
-0.000393197
0.000176075
-0.000196184
0.000443287
0.000163441
0.00031017
-0.000146723
-0.000287553
-1.0198e-05
-0.000278612
2.35926e-05
-0.000245673
1.81817e-05
-0.000294215
-0.000109478
-0.000768323
-0.000220632
-0.000566415
3.20856e-05
-0.000303935
-9.54834e-05
-0.000181581
-7.28869e-05
-0.000117853
-6.0656e-05
-0.000145525
-8.84551e-05
-0.000224339
-0.000103333
-0.000404141
-1.18754e-05
-0.000338655
0.000318546
0.000215323
0.000391405
0.00142382
0.000521968
-0.00163562
-8.02662e-06
-0.000289726
1.71444e-05
-0.000272165
1.28377e-05
-0.000296265
-5.97505e-06
-0.00077125
-0.000106549
-0.000646863
-0.000140182
-0.000404587
0.000132738
-0.000214846
-6.22182e-05
-0.000114988
-7.57521e-05
-0.000102992
-0.000103189
-0.000156048
-0.000156746
-0.000340763
-0.000166711
-0.00036777
1.72401e-05
0.00018071
0.000353159
0.00124858
0.000566652
0.00184894
0.000661865
-0.00198884
0.000358951
-0.00199457
1.40748e-05
-0.000286657
8.99446e-06
-0.000294669
1.24789e-05
-0.000748532
-2.86915e-05
-0.000635563
-0.000117847
-0.00044447
-0.000100298
-0.000264939
0.000182831
-0.000130396
-4.68101e-05
-6.98217e-05
-0.000108923
-8.22947e-05
-0.000176942
-0.000221701
-0.000275809
-0.000311602
-0.000222879
7.82136e-05
0.000119736
0.00114219
0.00045954
0.00169001
0.000725584
0.00189741
0.000843411
-0.00207896
0.000536799
-0.00216668
0.000272685
-0.00226726
6.97862e-06
5.38495e-06
-0.000728469
-7.5821e-06
-0.000618951
-4.53021e-05
-0.000449189
-0.000113128
-0.000287661
-7.75755e-05
-0.000154895
0.000207329
-6.0131e-05
-5.65008e-05
-3.15758e-05
-0.000159641
-0.000100076
-0.000298567
-0.000214251
-0.00037316
-2.17986e-06
-0.000142485
0.000974722
0.000287208
0.0014779
0.000671646
0.00173798
0.000885017
0.00191888
0.00105711
-0.00213258
0.000737685
-0.00227984
0.000466599
-0.0023606
0.000188184
-0.00245544
-2.63684e-06
-0.000605028
-2.15044e-05
-0.000449031
-4.54602e-05
-0.000299217
-0.000101573
-0.000173788
-5.86835e-05
-8.56205e-05
0.000232819
-9.84297e-06
-7.82336e-05
-2.18466e-05
-0.000237871
-0.000113691
-0.000399127
1.38758e-05
-0.000389216
0.00078742
4.48169e-05
0.00123922
0.000525884
0.00153584
0.00087378
0.00166308
0.00114082
0.00189567
0.00123467
-0.00207324
0.000900344
-0.00229524
0.000619342
-0.00243259
0.000340454
-0.00251287
0.00012799
-0.00258343
-8.04443e-06
-0.000445697
-2.48391e-05
-0.0003032
-4.14781e-05
-0.00018956
-8.58014e-05
-9.86268e-05
-4.56779e-05
-8.29102e-05
0.000305886
2.55546e-05
-0.000125635
-5.01758e-05
-0.000301386
2.50064e-05
-0.000410258
0.000580487
-0.000182283
0.00102022
0.000263823
0.00129785
0.000763876
0.00143636
0.0011005
0.00165832
0.00137817
0.00166366
0.00137861
-0.00180759
0.00101423
-0.00218713
0.000727028
-0.00240292
0.000459721
-0.00255185
0.000247474
-0.00263235
6.6296e-05
-0.00264972
-1.02533e-05
-0.000303552
-2.44884e-05
-0.000193689
-3.73496e-05
-0.00011465
-6.97782e-05
-8.03619e-05
-4.82259e-05
-8.50765e-05
0.000416517
1.83512e-05
-0.000194162
-3.54156e-05
-0.000240964
0.00033625
-0.00016602
0.000699132
0.000138803
0.000989825
0.00057185
0.00120571
0.000994523
0.00134001
0.00141881
0.00143968
0.00160215
0.00154923
0.000352768
-0.00162857
0.000352332
0.000376393
0.000376453
0.00107122
-0.00186457
0.000773355
-0.00223345
0.000514838
-0.00245804
0.000289586
-0.00259397
9.72231e-05
-0.00266328
1.11716e-05
-0.0026609
-1.05444e-05
-0.000194619
-2.35586e-05
-0.000111347
-4.06527e-05
-7.45269e-05
-7.56141e-05
-6.48683e-05
-6.84346e-05
-9.55718e-05
0.00053044
-7.03852e-05
-0.000159192
8.68292e-05
8.45688e-06
0.000365981
0.00016713
0.000637503
0.000491126
0.000975263
0.000802296
0.00100305
0.00133148
0.00119619
0.0016623
0.00129211
0.00185928
-7.11167e-07
0.000334043
-0.000359637
0.000379073
0.000294902
-0.00171922
0.00029475
0.000286155
0.000286062
0.000334076
-0.000359674
0.000377218
-5.37107e-07
0.000307603
0.000403369
0.000308357
0.000401635
0.000833474
-0.00192469
0.000523224
-0.00224184
0.00024319
-0.00241164
6.11451e-05
-0.00255789
-1.04059e-05
-0.0026417
-4.00935e-05
-0.0026208
-1.05635e-05
-0.000110357
-2.455e-05
-5.62059e-05
-5.89751e-05
-2.19789e-05
-0.000118505
-5.34855e-05
-0.000110522
-0.00010499
0.000565044
-0.000149231
7.68678e-05
0.000144834
0.000229605
0.000326123
0.000478511
0.000732724
0.000733665
0.000686706
0.00111864
0.000947255
0.00158042
0.0010211
0.0019333
-0.000277556
-0.00027809
0.000981548
0.000503145
0.000501528
0.000522108
0.000522553
-7.18131e-07
-0.000395614
0.000331597
-3.81717e-07
0.000304251
-0.00034338
0.000418585
-0.00187711
0.000991368
-0.000395307
0.000329665
-4.70432e-07
-0.000427756
0.000318767
-0.000426925
0.000317209
0.00030419
-0.000342809
0.000415455
-2.42202e-07
0.000430306
0.000427493
0.000556854
-0.00195832
0.000167187
-0.00216584
-5.87208e-05
-0.00229178
-0.000137317
-0.00243098
-0.000121155
-0.00256064
-6.78301e-05
-0.00255297
-1.14993e-05
-4.8254e-05
-3.25015e-05
4.42701e-07
-8.13958e-05
3.50795e-05
-0.000207068
-9.35041e-06
-0.000206159
-5.08609e-05
0.000466675
-4.95853e-05
0.000271287
0.000148288
0.000407439
0.000461048
0.000750187
0.000446974
0.000973397
0.000665078
0.00140081
0.000739962
0.00186156
0.000782312
0.000525283
0.000525318
0.000541796
0.000540143
2.86634e-07
0.000193588
-0.000223945
0.000533215
0.000192783
-0.000223466
0.000532498
-2.37675e-07
0.000165206
0.000550727
0.000164863
0.000550235
-3.16884e-07
-0.000385172
0.000373706
1.23569e-06
0.000273567
-0.000309146
0.000126901
9.86014e-05
0.000120562
0.000106864
-0.00192846
0.000608206
0.000415397
0.000414508
-0.00185462
0.000275831
0.000276064
0.000304981
0.000304525
-0.000384598
0.000371137
-2.50117e-07
0.000349242
0.000346868
0.000273833
-0.000309665
0.000126164
9.96542e-05
0.000120362
0.000106342
7.53357e-07
0.000129887
0.000109045
0.000130675
0.000109569
0.000129243
0.000110113
0.000129995
0.000109263
0.000186113
-0.00197725
-0.000176747
-0.00204781
-0.000367807
-0.00206129
-0.00030624
-0.00224589
-0.000191463
-0.00243701
-0.000118364
-0.00243461
-1.5814e-05
2.56202e-05
-5.76757e-05
7.6198e-05
-0.000122509
9.68419e-05
-0.000313254
8.73731e-05
-0.000344387
-2.85849e-05
0.000445677
-7.63031e-06
0.000427205
0.000200863
0.000667624
0.000278659
0.000918502
0.000402434
0.00123604
0.000450732
0.00169004
0.000623598
0.000504336
0.000503352
0.000506968
0.000505615
-2.47932e-07
0.000135339
0.000555397
0.000135148
0.000554785
-2.11249e-07
0.000114562
0.000562785
0.000113977
0.000561103
3.56043e-07
0.000107056
-4.73488e-05
-3.18498e-05
0.000129087
-3.83073e-05
0.000151263
0.000131859
0.000152113
-2.09874e-05
0.000106889
-4.75429e-05
-3.17842e-05
-3.81926e-05
0.000129296
0.000151171
0.000131977
0.000152013
-2.09719e-05
4.59806e-07
8.60625e-05
0.000132622
0.000151537
0.000133781
0.000153363
8.62482e-05
0.000132794
0.000151416
0.00013388
0.000153246
1.07938e-06
-0.00034893
0.000112257
9.32763e-05
0.000115407
9.1471e-05
-5.82411e-05
8.37777e-06
2.94728e-07
5.36338e-05
0.000122835
-8.39064e-06
5.55702e-05
-6.05472e-05
0.000111969
2.06365e-07
-6.32814e-05
0.000117005
5.19716e-05
0.00011884
-0.00189565
0.000153298
-0.0018852
0.000140893
0.000141396
0.000177875
0.000178625
-8.42589e-08
0.00037449
-0.000368095
0.000269521
0.000374819
-0.000368207
0.000269367
3.23113e-07
0.000370878
0.000308269
0.00037205
0.000307618
-0.000348922
0.000111679
9.40038e-05
0.000114717
9.10744e-05
8.982e-07
0.000106943
7.81454e-05
9.81189e-05
8.70849e-05
0.000106499
7.94369e-05
9.7856e-05
8.71021e-05
-5.80127e-05
8.26887e-06
5.34893e-05
0.000122713
-8.2823e-06
5.59753e-05
-6.07726e-05
0.000112734
-6.29707e-05
0.000117244
5.18855e-05
0.000118701
4.63777e-05
9.00206e-06
2.34921e-07
0.000127906
-1.52085e-05
-4.63495e-05
0.000123254
2.08179e-07
0.000129788
0.000124193
4.63525e-05
8.93523e-06
0.00012768
-1.49025e-05
-4.62661e-05
0.000123738
0.000129869
0.000123817
-0.000281377
-0.00187262
-0.000624045
-0.00179157
-0.000591919
-0.00177561
-0.000424333
-0.00201302
-0.000284544
-0.00227083
-0.000161928
-0.00227268
-2.02926e-05
0.000113179
-9.46525e-05
0.000171289
-0.000196951
0.000162294
-0.00038817
0.000108255
-0.000481225
-1.42548e-05
0.000452303
-0.000124704
0.000752773
8.69127e-05
0.00085937
0.000184153
0.00113678
0.000228783
0.00145799
0.000428904
0.000468003
0.000468683
0.000474213
0.000473839
-2.23633e-07
8.22745e-05
0.000536846
8.23871e-05
0.000534718
-2.48807e-07
7.38103e-05
0.000515681
7.43906e-05
0.000513363
7.40489e-07
6.87093e-05
0.000133418
0.000150486
0.000135477
0.00015266
6.8718e-05
0.00013369
0.000150389
0.000136417
0.000152568
1.09589e-06
5.64402e-05
0.000135133
0.000151097
0.000135403
0.000152318
5.56917e-05
0.000135778
0.000150934
0.00013627
0.000152227
-5.52604e-06
1.11331e-05
-2.41396e-05
0.000147619
-7.22286e-06
-3.60679e-05
0.000128237
1.09989e-05
-3.04666e-08
0.000154934
-2.01937e-05
-6.08573e-06
8.25629e-06
0.000140822
-5.69365e-09
9.29055e-06
0.000147727
5.66001e-08
-3.32323e-05
0.000134769
-7.3076e-06
-3.60119e-05
0.000128865
-5.35945e-06
1.12246e-05
-2.45003e-05
0.000147931
1.10254e-05
-2.02576e-05
0.000155013
-5.99992e-06
8.32414e-06
0.000140877
9.31014e-06
0.000147723
-3.32205e-05
0.000134866
-6.89052e-06
-5.81186e-06
3.37753e-06
0.000141947
-6.7989e-06
-1.476e-09
4.49839e-06
0.00014695
-6.98781e-06
0.000143213
-7.53832e-09
0.000148847
-6.79243e-06
-5.86929e-06
3.36041e-06
0.000142095
-6.81929e-06
4.47319e-06
0.000146968
-6.89486e-06
0.00014323
0.000148834
6.8224e-05
8.80092e-06
1.4788e-07
-7.46377e-05
0.000109722
-8.43843e-06
-6.61539e-05
0.000107321
1.24263e-07
0.000111787
-7.19327e-05
0.000106051
-4.37815e-05
1.13769e-06
-6.23015e-09
3.84719e-05
0.000127013
-1.09854e-06
4.28342e-05
-4.74303e-05
0.000117664
-6.40052e-08
-4.84165e-05
0.000120621
3.79056e-05
0.000124907
-0.00175895
-0.000418078
-0.00173659
-2.53403e-05
-2.65001e-05
2.8209e-05
2.83153e-05
3.85504e-07
0.000358331
-0.000324167
0.000106344
0.000357964
-0.000323843
0.00010766
2.04538e-07
0.000167907
0.000168587
3.96865e-07
0.000287452
-0.000297805
5.64061e-05
7.9734e-05
6.01494e-05
8.32176e-05
0.000287214
-0.000297586
5.68861e-05
7.97086e-05
6.03619e-05
8.31786e-05
3.67397e-07
6.39867e-05
8.75697e-05
6.98122e-05
5.01243e-05
9.2473e-05
6.62324e-05
8.97941e-05
7.53735e-05
6.41482e-05
8.73542e-05
6.9952e-05
5.01346e-05
9.23128e-05
6.62909e-05
8.97167e-05
7.52899e-05
6.81517e-05
8.70814e-06
-7.45583e-05
0.000109525
-8.23501e-06
-6.59956e-05
0.000107462
0.000111788
-7.19406e-05
0.000105727
-7.78054e-05
9.48832e-06
1.79948e-07
0.000100442
-1.66906e-05
7.14325e-05
8.73901e-05
2.81419e-08
9.11784e-05
9.60729e-05
-7.7799e-05
9.40381e-06
0.000100516
-1.61415e-05
7.20219e-05
8.77047e-05
9.12978e-05
9.65871e-05
-4.37162e-05
1.0122e-06
3.84584e-05
0.000126952
-9.64532e-07
4.27437e-05
-4.73148e-05
0.000118269
-4.83437e-05
0.000120843
3.79648e-05
0.000124492
2.42001e-06
2.30044e-08
0.000130685
0.000128451
2.37612e-06
0.000130564
0.000128146
-0.000828926
-0.00166774
-0.000888417
-0.00149507
-0.000709253
-0.00149069
-0.000543586
-0.00175398
-0.000366706
-0.00206605
-0.000245886
-0.00202679
-3.13421e-05
0.000224876
-0.000148239
0.00024418
-0.000278838
0.000258784
-0.000538699
0.000139597
-0.000635077
2.54256e-06
0.000325056
-0.000284782
0.00112447
2.47438e-05
0.00101878
5.89395e-05
0.00130663
0.000199958
0.000418674
0.000417665
0.000425256
0.00042534
-2.87972e-08
6.53294e-05
0.000476512
6.59908e-05
0.000477054
-5.56056e-08
5.48572e-05
0.000484741
5.51381e-05
0.000484636
1.25968e-06
5.33338e-05
0.000124956
0.000143685
0.000125717
0.000144304
5.25989e-05
0.000125436
0.00014333
0.000126374
0.000143938
1.52912e-06
4.62273e-05
0.000120621
0.000138619
0.00012223
0.000139814
4.47979e-05
0.000121657
0.000138389
0.000123083
0.000139585
-6.46749e-06
8.63584e-07
0.000142399
1.62598e-06
-1.19662e-08
0.00014689
-6.72631e-06
2.4243e-06
0.000140638
-7.77619e-08
3.01579e-06
0.000144591
-6.33126e-06
7.10817e-07
0.000142671
1.56552e-06
0.000146954
-6.30812e-06
2.25793e-06
0.000141178
2.96514e-06
0.000144791
-5.95213e-06
-5.15386e-07
-6.75648e-07
0.00014228
-2.77147e-06
-2.2338e-08
1.2955e-06
0.000146625
-5.86579e-06
0.000143183
-3.82409e-08
0.000146751
-5.68053e-06
-4.25549e-07
-8.99492e-07
0.000142784
-2.69993e-06
1.15859e-06
0.000146765
-5.51423e-06
0.000143616
0.000146931
-2.21191e-06
-1.53934e-05
-4.61348e-07
-2.16188e-05
-2.30352e-05
-8.19493e-09
-2.91132e-08
-1.30925e-05
-6.42732e-07
-3.00249e-06
-1.46126e-08
-3.2858e-06
-2.16413e-06
-1.53498e-05
-4.38927e-07
-2.16242e-05
-1.31001e-05
-2.3029e-05
-6.1755e-07
-3.02094e-06
-3.27546e-06
-7.4504e-07
1.99617e-06
-2.31733e-06
1.82087e-06
-3.53401e-08
-2.22586e-06
-6.06568e-07
-2.27165e-08
-6.7435e-07
2.00767e-06
-2.3845e-06
1.82091e-06
-2.23575e-06
-5.71294e-07
5.46661e-05
1.88514e-06
-5.59017e-08
-6.15336e-05
0.000114748
-1.42524e-06
-5.28281e-05
0.000114144
-9.18366e-08
0.000116689
-5.77065e-05
0.000112814
-1.77006e-05
5.06802e-07
-7.67647e-09
1.36247e-05
-5.10336e-07
1.74204e-05
-1.87537e-05
-5.45529e-08
-1.91344e-05
1.38266e-05
-0.00160576
-0.000982111
-0.00153977
-0.00018547
-0.000187887
-0.000119696
-0.000121847
4.38505e-07
0.00030602
-0.000274738
-5.70608e-05
0.000305472
-0.000274267
-5.72663e-05
7.26201e-07
9.33552e-06
1.0671e-05
1.29462e-06
0.000318976
-0.000315118
7.30783e-06
3.57437e-05
1.59648e-05
4.21972e-05
0.000319776
-0.000316074
8.83526e-06
3.61106e-05
1.7721e-05
4.25679e-05
7.56907e-07
3.88417e-05
6.24426e-05
3.0636e-05
5.64299e-05
3.99787e-05
6.26825e-05
3.22059e-05
5.66752e-05
-8.26236e-06
5.0241e-05
-4.71243e-05
6.15517e-05
5.72032e-05
-2.26061e-07
-5.67861e-05
7.12362e-05
-8.35093e-06
4.64446e-05
7.22968e-05
-2.03041e-07
5.12716e-05
8.10013e-05
-7.78657e-06
5.08046e-05
-4.839e-05
6.2258e-05
5.73059e-05
-5.70368e-05
7.14268e-05
-7.9793e-06
4.67097e-05
7.24361e-05
5.12569e-05
8.10452e-05
-5.29612e-06
-4.14985e-05
3.18002e-05
8.48067e-05
-8.05458e-06
5.66614e-05
8.89076e-05
-4.54045e-05
-4.43643e-08
9.45508e-05
3.80428e-05
-7.8007e-06
7.89791e-05
-1.37796e-07
8.79982e-05
6.55347e-08
6.46632e-05
9.37846e-05
-5.01902e-06
-4.15228e-05
3.15606e-05
8.49333e-05