/*--------------------------------*- C++ -*----------------------------------*\
| =========                 |                                                 |
| \\      /  F ield         | OpenFOAM: The Open Source CFD Toolbox           |
|  \\    /   O peration     | Version:  5.x                                   |
|   \\  /    A nd           | Web:      www.OpenFOAM.org                      |
|    \\/     M anipulation  |                                                 |
\*---------------------------------------------------------------------------*/
FoamFile
{
    version     2.0;
    format      ascii;
    class       volScalarField;
    location    "1.6";
    object      rAU;
}
// * * * * * * * * * * * * * * * * * * * * * * * * * * * * * * * * * * * * * //

dimensions      [-1 3 1 0 0 0 0];

internalField   nonuniform List<scalar> 
12160
(
1.49121e-06
1.49112e-06
1.49118e-06
1.49107e-06
1.49109e-06
1.49116e-06
1.49138e-06
1.49107e-06
1.49107e-06
1.49117e-06
1.49272e-06
1.49169e-06
1.4924e-06
1.49106e-06
1.4912e-06
1.49373e-06
1.49302e-06
1.49253e-06
1.49207e-06
1.49105e-06
1.49124e-06
1.49373e-06
1.49366e-06
1.49248e-06
1.49329e-06
1.49241e-06
1.49109e-06
1.49128e-06
1.49373e-06
1.49366e-06
1.4936e-06
1.49359e-06
1.49331e-06
1.49244e-06
1.49123e-06
1.49116e-06
1.49374e-06
1.49366e-06
1.49359e-06
1.49354e-06
1.49324e-06
1.49363e-06
1.49248e-06
1.49455e-06
2.49855e-06
1.49352e-06
1.49369e-06
1.4936e-06
1.49352e-06
1.49325e-06
1.49355e-06
1.49366e-06
1.49627e-06
2.36206e-06
5.75068e-05
1.49256e-06
1.49374e-06
1.49365e-06
1.49353e-06
1.4932e-06
1.49294e-06
1.49317e-06
1.49821e-06
2.37078e-06
6.06787e-05
0.000752026
1.49278e-06
1.49311e-06
1.49372e-06
1.4936e-06
1.49344e-06
1.49285e-06
1.49232e-06
1.50169e-06
2.32685e-06
5.2913e-05
0.00142302
0.00147713
1.49375e-06
1.49307e-06
1.49372e-06
1.49371e-06
1.49353e-06
1.49335e-06
1.49286e-06
1.50592e-06
2.28665e-06
4.38953e-05
0.00142193
0.00149191
0.00149272
1.49229e-06
1.49372e-06
1.49368e-06
1.4937e-06
1.49369e-06
1.49346e-06
1.49343e-06
1.5106e-06
2.2841e-06
3.23931e-05
0.00139194
0.00149287
0.0014924
0.00149274
1.49165e-06
1.493e-06
1.49369e-06
1.49363e-06
1.49366e-06
1.49367e-06
1.49341e-06
1.51482e-06
2.32528e-06
2.56045e-05
0.00127781
0.0014916
0.00149314
0.00149236
0.00149296
1.49313e-06
1.49277e-06
1.49358e-06
1.49364e-06
1.49356e-06
1.49362e-06
1.49369e-06
1.51812e-06
2.39348e-06
2.32105e-05
0.00115645
0.00149167
0.00149201
0.00149319
0.001491
1.49376e-06
1.49356e-06
1.49336e-06
1.49374e-06
1.49357e-06
1.49348e-06
1.49371e-06
1.51916e-06
2.45388e-06
2.4037e-05
0.00100691
0.00149159
0.00149199
0.0014928
0.00149325
1.49376e-06
1.49376e-06
1.4936e-06
1.49366e-06
1.4937e-06
1.49347e-06
1.4936e-06
1.51627e-06
2.46465e-06
2.58396e-05
0.000904072
0.00149133
0.00149228
0.00149221
0.00149044
1.49375e-06
1.49376e-06
1.49376e-06
1.4937e-06
1.49361e-06
1.49364e-06
1.49359e-06
1.50933e-06
2.40223e-06
2.57588e-05
0.000858648
0.00149114
0.00149255
0.00149203
0.00148993
1.49375e-06
1.49375e-06
1.49376e-06
1.49375e-06
1.4937e-06
1.49361e-06
1.49368e-06
1.50154e-06
2.28272e-06
2.28381e-05
0.000788227
0.00149039
0.00149285
0.00149272
0.00148947
1.49375e-06
1.49375e-06
1.49375e-06
1.49376e-06
1.49375e-06
1.49364e-06
1.49362e-06
1.49568e-06
2.14896e-06
1.84108e-05
0.000676075
0.00148865
0.00149284
0.00149271
0.00149075
1.49374e-06
1.49375e-06
1.49375e-06
1.49376e-06
1.49376e-06
1.49364e-06
1.49357e-06
1.49368e-06
2.02998e-06
1.40044e-05
0.000529606
0.00148544
0.00149278
0.00149317
0.00149088
1.49374e-06
1.49374e-06
1.49375e-06
1.49375e-06
1.49376e-06
1.49364e-06
1.49364e-06
1.4934e-06
1.93472e-06
1.06201e-05
0.000373828
0.00147928
0.00149248
0.00149322
0.00149116
1.49373e-06
1.49374e-06
1.49374e-06
1.49375e-06
1.49375e-06
1.49365e-06
1.49364e-06
1.49326e-06
1.8652e-06
8.57141e-06
0.000245246
0.00146672
0.00149187
0.00149298
0.00149022
1.49373e-06
1.49374e-06
1.49374e-06
1.49374e-06
1.49375e-06
1.49365e-06
1.49365e-06
1.4931e-06
1.82437e-06
7.50814e-06
0.000163477
0.0014429
0.0014911
0.00149156
0.00148896
1.49372e-06
1.49373e-06
1.49374e-06
1.49374e-06
1.49374e-06
1.49366e-06
1.49366e-06
1.49297e-06
1.80411e-06
6.94309e-06
0.00012164
0.00140066
0.00149137
0.00149096
0.00148697
1.49372e-06
1.49373e-06
1.49373e-06
1.49374e-06
1.49374e-06
1.49365e-06
1.49366e-06
1.49289e-06
1.79817e-06
6.66823e-06
0.000103098
0.00133536
0.00149246
0.00149253
0.00148675
1.49371e-06
1.49372e-06
1.49372e-06
1.49373e-06
1.49374e-06
1.49362e-06
1.49365e-06
1.49292e-06
1.80114e-06
6.59484e-06
9.5342e-05
0.00127878
0.0014935
0.00149312
0.00148921
1.49371e-06
1.49372e-06
1.49372e-06
1.49372e-06
1.49373e-06
1.49359e-06
1.49362e-06
1.49315e-06
1.80809e-06
6.64641e-06
9.3303e-05
0.00124662
0.00149332
0.00149341
0.00149167
1.49371e-06
1.49371e-06
1.49371e-06
1.49372e-06
1.49372e-06
1.49359e-06
1.49359e-06
1.4937e-06
1.81484e-06
6.74882e-06
9.44391e-05
0.00123499
0.00149319
0.0014925
0.00149309
1.4937e-06
1.49371e-06
1.49371e-06
1.49371e-06
1.49372e-06
1.4936e-06
1.49359e-06
1.49374e-06
1.8187e-06
6.83756e-06
9.68224e-05
0.0012362
0.00149312
0.00149162
0.0014913
1.49363e-06
1.49371e-06
1.49371e-06
1.49371e-06
1.49371e-06
1.49361e-06
1.4936e-06
1.49373e-06
1.81642e-06
6.87034e-06
9.87947e-05
0.0012423
0.00149311
0.00149081
0.00148954
1.49169e-06
1.4937e-06
1.4937e-06
1.49371e-06
1.49371e-06
1.49361e-06
1.49361e-06
1.49355e-06
1.80805e-06
6.82783e-06
9.90829e-05
0.00124785
0.00149312
0.00149013
0.00148795
1.49173e-06
1.4937e-06
1.4937e-06
1.4937e-06
1.49371e-06
1.4936e-06
1.4936e-06
1.49316e-06
1.79463e-06
6.71463e-06
9.76484e-05
0.00125033
0.00149313
0.0014896
0.0014866
1.49369e-06
1.49368e-06
1.4937e-06
1.49369e-06
1.4937e-06
1.49359e-06
1.4936e-06
1.493e-06
1.77847e-06
6.53836e-06
9.50153e-05
0.00124233
0.00149312
0.00148919
0.00148554
1.49369e-06
1.49369e-06
1.49368e-06
1.49366e-06
1.49369e-06
1.4936e-06
1.49359e-06
1.49298e-06
1.76246e-06
6.3171e-06
9.11434e-05
0.00123555
0.00148818
0.00148894
0.00148475
1.4937e-06
1.49369e-06
1.4937e-06
1.49368e-06
1.49366e-06
1.49362e-06
1.4936e-06
1.49303e-06
1.74884e-06
6.0864e-06
8.59965e-05
0.00121693
0.00149301
0.00149267
0.00148424
1.4937e-06
1.4937e-06
1.49369e-06
1.49369e-06
1.49368e-06
1.49364e-06
1.49361e-06
1.49311e-06
1.73986e-06
5.88117e-06
8.06615e-05
0.00119367
0.00149298
0.00149369
0.00148782
1.4937e-06
1.4937e-06
1.49369e-06
1.49369e-06
1.49369e-06
1.49367e-06
1.49364e-06
1.49323e-06
1.73796e-06
5.73637e-06
7.59782e-05
0.00116822
0.00149287
0.00148892
0.00148886
1.49438e-06
1.4937e-06
1.4937e-06
1.49369e-06
1.49361e-06
1.49369e-06
1.49366e-06
1.49339e-06
1.74446e-06
5.69218e-06
7.25887e-05
0.00114369
0.00149274
0.00148919
0.00148423
1.49438e-06
1.494e-06
1.4937e-06
1.4937e-06
1.49352e-06
1.49361e-06
1.49369e-06
1.49361e-06
1.7615e-06
5.76528e-06
7.12866e-05
0.00112444
0.0014926
0.00148956
0.00148474
1.49439e-06
1.49401e-06
1.49369e-06
1.4937e-06
1.49347e-06
1.49352e-06
1.49369e-06
1.49414e-06
1.79273e-06
5.98616e-06
7.24242e-05
0.00111647
0.0014925
0.00149005
0.00148547
1.4944e-06
1.49401e-06
1.49369e-06
1.4937e-06
1.49345e-06
1.49347e-06
1.49369e-06
1.4964e-06
1.84015e-06
6.40688e-06
7.7112e-05
0.00112485
0.00149247
0.00149066
0.00148644
1.49416e-06
1.49401e-06
1.49369e-06
1.4937e-06
1.49372e-06
1.49345e-06
1.49371e-06
1.50067e-06
1.90275e-06
7.15358e-06
8.81867e-05
0.00115747
0.00149256
0.00149137
0.00148765
1.49418e-06
1.49375e-06
1.49369e-06
1.4937e-06
1.49368e-06
1.49374e-06
1.49374e-06
1.50701e-06
1.9852e-06
8.49438e-06
0.000111907
0.00122287
0.0014928
0.00149219
0.00148907
1.49455e-06
1.49375e-06
1.49328e-06
1.4937e-06
1.49337e-06
1.49369e-06
1.49324e-06
1.51564e-06
2.09165e-06
1.06123e-05
0.000156895
0.00130521
0.00149266
0.00149307
0.00149068
1.52767e-06
1.49445e-06
1.49328e-06
1.49301e-06
1.49326e-06
1.49356e-06
1.49338e-06
1.49325e-06
2.22806e-06
1.36732e-05
0.000227129
0.00137406
0.00149108
0.00149343
0.00149243
2.40819e-06
1.55267e-06
1.49515e-06
1.49302e-06
1.49266e-06
1.49344e-06
1.4934e-06
1.4934e-06
1.49235e-06
1.80803e-05
0.000319886
0.00141994
0.00148984
0.00149251
0.00149264
2.45763e-05
2.80766e-06
1.60644e-06
1.49629e-06
1.4918e-06
1.49269e-06
1.4935e-06
1.49362e-06
1.49272e-06
1.48839e-06
0.00043303
0.00144745
0.00148924
0.00149179
0.00148904
0.000573774
4.05626e-05
3.63162e-06
1.66722e-06
1.49718e-06
1.49197e-06
1.49371e-06
1.49357e-06
1.49245e-06
1.49206e-06
1.48733e-06
0.00146423
0.00148908
0.00149133
0.00148613
0.00147356
0.000848363
7.95833e-05
4.63673e-06
1.72516e-06
1.50008e-06
1.49331e-06
1.49327e-06
1.49356e-06
1.49116e-06
1.48936e-06
1.48791e-06
0.00148899
0.00149107
0.00148408
0.00148873
0.00148361
0.00115543
0.000131289
5.64858e-06
1.77094e-06
1.50473e-06
1.49342e-06
1.4932e-06
1.49361e-06
1.48882e-06
1.49123e-06
1.49374e-06
1.49091e-06
0.00149091
0.00148274
0.00149075
0.00148815
0.0014901
0.00130173
0.000179951
6.42064e-06
1.81597e-06
1.50807e-06
1.49318e-06
1.49317e-06
1.4926e-06
1.4923e-06
1.49374e-06
1.49257e-06
1.49374e-06
1.49171e-06
0.00148186
0.00148126
0.00148764
0.00149135
0.00148959
0.0013626
0.000211918
6.96104e-06
1.83807e-06
1.50909e-06
1.49141e-06
1.49315e-06
1.4933e-06
1.49302e-06
1.49374e-06
1.49254e-06
1.49373e-06
1.49373e-06
1.49171e-06
0.00147751
0.00149271
0.00149259
0.0014909
0.00138816
0.000227337
7.04754e-06
1.8596e-06
1.49783e-06
1.49252e-06
1.49308e-06
1.49302e-06
1.49199e-06
1.49278e-06
1.49224e-06
1.49364e-06
1.49371e-06
1.49373e-06
1.48555e-06
0.00148162
0.00149353
0.00149298
0.00149181
0.00140238
0.000232645
7.33471e-06
1.77281e-06
1.49175e-06
1.49251e-06
1.49374e-06
1.49315e-06
1.49257e-06
1.49272e-06
1.49158e-06
1.49176e-06
1.49345e-06
1.49365e-06
1.49222e-06
1.47291e-06
0.00148402
0.00149371
0.00149313
0.00149261
0.00142255
0.000246703
7.43431e-06
1.59589e-06
1.49087e-06
1.49308e-06
1.49374e-06
1.49374e-06
1.49286e-06
1.49329e-06
1.49429e-06
1.49114e-06
1.49208e-06
1.49107e-06
1.49043e-06
1.4911e-06
1.48083e-06
0.00148653
0.00149371
0.00149342
0.00149301
0.00144355
0.000307911
6.80772e-06
1.50333e-06
1.49308e-06
1.49374e-06
1.49374e-06
1.49372e-06
1.49267e-06
1.49093e-06
1.44903e-06
1.48684e-06
1.44905e-06
1.4462e-06
1.44655e-06
1.49177e-06
1.49031e-06
1.48923e-06
1.49194e-06
1.49354e-06
1.49373e-06
0.00148871
0.00149371
0.00149369
0.00149294
0.00147033
0.000451455
5.00693e-06
1.52267e-06
1.49367e-06
1.49221e-06
1.49373e-06
1.49364e-06
1.49154e-06
1.4923e-06
1.45188e-06
1.45115e-06
1.49241e-06
1.45176e-06
1.43425e-06
1.43428e-06
1.45125e-06
1.44451e-06
1.44451e-06
1.4923e-06
1.4918e-06
1.49223e-06
1.49337e-06
1.49367e-06
1.49373e-06
0.00149065
0.0014937
0.0014935
0.0014929
0.00148426
0.000716349
4.4821e-06
1.52241e-06
1.4932e-06
1.49221e-06
1.49371e-06
1.49316e-06
1.49735e-06
1.45935e-06
1.45937e-06
1.45009e-06
1.4503e-06
1.45131e-06
1.46447e-06
1.48581e-06
1.49598e-06
1.45131e-06
1.45785e-06
1.45771e-06
1.46651e-06
1.46821e-06
1.46854e-06
1.49229e-06
1.49225e-06
1.49245e-06
1.49339e-06
1.49369e-06
1.49373e-06
0.00149234
0.00149369
0.00149286
0.00149239
0.00148992
0.000798433
4.26748e-06
1.5166e-06
1.49294e-06
1.49372e-06
1.4936e-06
1.49732e-06
1.43464e-06
1.43493e-06
1.42718e-06
1.42721e-06
1.45774e-06
1.45839e-06
1.45296e-06
1.45329e-06
1.46727e-06
1.28243e-06
1.34886e-06
1.267e-06
1.37635e-06
1.49082e-06
1.48251e-06
1.44279e-06
1.44304e-06
1.46966e-06
1.47017e-06
1.46737e-06
1.45671e-06
1.45793e-06
1.27981e-06
1.35898e-06
1.27723e-06
1.3763e-06
1.27683e-06
1.32633e-06
1.27142e-06
1.34925e-06
1.27442e-06
1.33119e-06
1.27176e-06
1.34883e-06
1.49228e-06
1.4922e-06
1.49239e-06
1.49342e-06
1.49369e-06
1.49373e-06
0.00149351
0.00149314
0.00149264
0.00149148
0.00149244
0.000839428
4.43191e-06
1.5288e-06
1.49376e-06
1.49369e-06
1.49559e-06
1.45392e-06
1.45399e-06
1.48203e-06
1.48229e-06
1.43911e-06
1.43944e-06
1.42126e-06
1.42132e-06
1.4032e-06
1.33164e-06
1.30126e-06
1.36241e-06
1.28864e-06
1.26887e-06
1.33504e-06
1.40275e-06
1.30125e-06
1.36339e-06
1.28863e-06
1.26868e-06
1.36231e-06
1.24629e-06
1.36985e-06
1.2551e-06
1.36264e-06
1.24636e-06
1.37017e-06
1.25512e-06
1.28793e-06
1.34786e-06
1.28383e-06
1.36124e-06
1.29813e-06
1.37481e-06
1.30568e-06
1.38613e-06
1.49278e-06
1.49293e-06
1.46942e-06
1.46928e-06
1.46263e-06
1.46266e-06
1.46995e-06
1.47006e-06
1.4803e-06
1.47674e-06
1.2883e-06
1.3677e-06
1.2835e-06
1.37753e-06
1.28829e-06
1.349e-06
1.26104e-06
1.35636e-06
1.28821e-06
1.33185e-06
1.26929e-06
1.36303e-06
1.29821e-06
1.38137e-06
1.3056e-06
1.38622e-06
1.28839e-06
1.36074e-06
1.28859e-06
1.36045e-06
1.491e-06
1.49219e-06
1.49163e-06
1.49335e-06
1.4937e-06
1.49373e-06
0.00149274
0.00149352
0.00149166
0.0014917
0.00149211
0.00103358
6.20027e-06
1.56519e-06
1.49377e-06
1.49782e-06
1.47878e-06
1.48002e-06
1.4806e-06
1.48111e-06
1.45285e-06
1.45286e-06
1.44934e-06
1.44922e-06
1.33632e-06
1.22224e-06
1.339e-06
1.21304e-06
1.33817e-06
1.22229e-06
1.33914e-06
1.21301e-06
1.27856e-06
1.1014e-06
1.31036e-06
1.18027e-06
1.28168e-06
1.1016e-06
1.31073e-06
1.18054e-06
1.36074e-06
1.14844e-06
1.00323e-06
1.26052e-06
1.3102e-06
1.28099e-06
1.36001e-06
1.15003e-06
1.26113e-06
1.00371e-06
1.31302e-06
1.28124e-06
1.32354e-06
1.21632e-06
1.30218e-06
1.19985e-06
1.32354e-06
1.21631e-06
1.30243e-06
1.19989e-06
1.30905e-06
1.39112e-06
1.30884e-06
1.3903e-06
1.30733e-06
1.37973e-06
1.30409e-06
1.38966e-06
1.49077e-06
1.49454e-06
1.48244e-06
1.48252e-06
1.48107e-06
1.48095e-06
1.47261e-06
1.47281e-06
1.472e-06
1.4724e-06
1.42633e-06
1.28911e-06
1.4281e-06
1.35432e-06
1.4262e-06
1.28941e-06
1.42861e-06
1.35585e-06
1.43141e-06
1.37563e-06
1.33918e-06
1.42019e-06
1.35199e-06
1.30572e-06
1.43171e-06
1.37834e-06
1.33548e-06
1.42052e-06
1.35533e-06
1.30663e-06
1.30839e-06
1.39115e-06
1.30888e-06
1.39044e-06
1.30754e-06
1.37093e-06
1.30748e-06
1.37374e-06
1.30743e-06
1.37963e-06
1.30376e-06
1.38944e-06
1.29935e-06
1.37692e-06
1.3003e-06
1.3767e-06
1.49098e-06
1.49144e-06
1.49247e-06
1.49289e-06
1.49371e-06
1.49373e-06
0.00149159
0.0014935
0.00149183
0.00148896
0.00149118
0.00132634
1.10238e-05
1.71029e-06
1.49886e-06
1.4845e-06
1.48461e-06
1.48772e-06
1.48838e-06
1.4332e-06
1.43309e-06
1.43588e-06
1.43592e-06
1.32081e-06
1.23414e-06
1.33484e-06
1.23902e-06
1.32452e-06
1.23431e-06
1.33527e-06
1.2393e-06
1.33893e-06
1.23385e-06
1.33438e-06
1.23016e-06
1.33891e-06
1.23354e-06
1.33458e-06
1.23012e-06
1.31541e-06
1.21735e-06
1.35389e-06
1.22416e-06
1.3182e-06
1.2173e-06
1.35406e-06
1.22459e-06
1.31143e-06
1.22516e-06
1.30926e-06
1.19108e-06
1.31474e-06
1.22519e-06
1.30942e-06
1.19129e-06
1.32872e-06
1.37128e-06
1.29817e-06
1.41141e-06
1.49048e-06
1.49147e-06
1.47004e-06
1.46999e-06
1.46308e-06
1.46266e-06
1.47433e-06
1.47445e-06
1.47421e-06
1.47427e-06
1.43308e-06
1.36282e-06
1.43931e-06
1.35605e-06
1.43606e-06
1.3627e-06
1.43924e-06
1.35579e-06
1.43538e-06
1.32944e-06
1.43656e-06
1.34146e-06
1.43509e-06
1.32939e-06
1.44055e-06
1.34083e-06
1.42187e-06
1.35711e-06
1.41498e-06
1.35871e-06
1.42229e-06
1.3572e-06
1.41541e-06
1.35962e-06
1.40894e-06
1.27924e-06
1.16745e-06
1.30019e-06
1.39097e-06
1.33831e-06
1.40905e-06
1.27958e-06
1.15624e-06
1.29899e-06
1.3911e-06
1.33907e-06
1.3291e-06
1.37133e-06
1.29803e-06
1.41195e-06
1.29469e-06
1.38761e-06
1.29598e-06
1.39173e-06
1.49226e-06
1.49231e-06
1.49222e-06
1.49083e-06
1.49371e-06
1.49373e-06
0.00149015
0.0014937
0.00148952
0.00148543
0.00149055
0.00143792
2.23942e-05
2.11544e-06
1.5189e-06
1.44456e-06
1.44456e-06
1.44686e-06
1.44596e-06
1.45483e-06
1.45489e-06
1.45445e-06
1.45457e-06
1.3364e-06
1.25181e-06
1.34663e-06
1.25398e-06
1.34034e-06
1.25179e-06
1.34658e-06
1.25394e-06
1.32866e-06
1.2411e-06
1.33843e-06
1.24361e-06
1.32759e-06
1.24077e-06
1.33802e-06
1.24335e-06
1.1111e-06
1.04032e-06
1.11131e-06
1.04059e-06
1.49227e-06
1.49222e-06
1.47178e-06
1.47297e-06
1.47162e-06
1.47172e-06
1.47325e-06
1.47323e-06
1.4646e-06
1.46426e-06
1.35589e-06
1.35729e-06
1.39944e-06
1.38265e-06
1.37764e-06
1.35811e-06
1.40066e-06
1.38379e-06
1.43633e-06
1.37456e-06
1.431e-06
1.38074e-06
1.43667e-06
1.37428e-06
1.43186e-06
1.38086e-06
1.44952e-06
1.41196e-06
1.44973e-06
1.40096e-06
1.45304e-06
1.41255e-06
1.44845e-06
1.40101e-06
1.44732e-06
1.39691e-06
1.43885e-06
1.38687e-06
1.44758e-06
1.39615e-06
1.44334e-06
1.38596e-06
1.49232e-06
1.4924e-06
1.49035e-06
1.49119e-06
1.49371e-06
1.49373e-06
0.00148866
0.00149359
0.00148593
0.00147818
0.00144185
0.00128727
5.35699e-05
3.18587e-06
1.49821e-06
1.49847e-06
1.6948e-06
1.69495e-06
1.46034e-06
1.46041e-06
1.44375e-06
1.44305e-06
1.25454e-06
1.35928e-06
1.25733e-06
1.35575e-06
1.2544e-06
1.35884e-06
1.25708e-06
1.35553e-06
1.25629e-06
1.35228e-06
1.25095e-06
1.35944e-06
1.25629e-06
1.3523e-06
1.25084e-06
1.35945e-06
1.34024e-06
1.24654e-06
1.34621e-06
1.2608e-06
1.34022e-06
1.2456e-06
1.34426e-06
1.26036e-06
1.36967e-06
1.28269e-06
1.35632e-06
1.2694e-06
1.36889e-06
1.28254e-06
1.35457e-06
1.26888e-06
1.49175e-06
1.49133e-06
1.48467e-06
1.46337e-06
1.46573e-06
1.4728e-06
1.47281e-06
1.45443e-06
1.45444e-06
1.45657e-06
1.45881e-06
1.38271e-06
1.34153e-06
1.41684e-06
1.37649e-06
1.38458e-06
1.34275e-06
1.41736e-06
1.37838e-06
1.44922e-06
1.40559e-06
1.44508e-06
1.40558e-06
1.4495e-06
1.40582e-06
1.44542e-06
1.40588e-06
1.40584e-06
1.37269e-06
1.40543e-06
1.37228e-06
1.49237e-06
1.49254e-06
1.49086e-06
1.49185e-06
1.49371e-06
1.49372e-06
0.00148669
0.00149269
0.00147588
0.00126035
0.000842243
0.000388564
5.49476e-05
6.37586e-06
1.46937e-06
1.46861e-06
1.94239e-06
1.94202e-06
1.35235e-06
1.25678e-06
1.26756e-06
1.37169e-06
1.35971e-06
1.25662e-06
1.26761e-06
1.37169e-06
1.45501e-06
1.4576e-06
1.25421e-06
1.28793e-06
1.21756e-06
1.34536e-06
1.25412e-06
1.28942e-06
1.21832e-06
1.34529e-06
1.28362e-06
1.3647e-06
1.26856e-06
1.37811e-06
1.28363e-06
1.36694e-06
1.26862e-06
1.37814e-06
1.22487e-06
1.18386e-06
1.22824e-06
1.18155e-06
1.49181e-06
1.4908e-06
1.48807e-06
1.44866e-06
1.44921e-06
1.4487e-06
1.45107e-06
1.46455e-06
1.46557e-06
1.4482e-06
1.44859e-06
1.33294e-06
1.35536e-06
1.32593e-06
1.37205e-06
1.33475e-06
1.35861e-06
1.32676e-06
1.37163e-06
1.35588e-06
1.39112e-06
1.34501e-06
1.38604e-06
1.35666e-06
1.39131e-06
1.34498e-06
1.38608e-06
1.41508e-06
1.36356e-06
1.44805e-06
1.39065e-06
1.41615e-06
1.3646e-06
1.44856e-06
1.39239e-06
1.45226e-06
1.42025e-06
1.45256e-06
1.41641e-06
1.45247e-06
1.42044e-06
1.45307e-06
1.41726e-06
1.49246e-06
1.49277e-06
1.49214e-06
1.48715e-06
1.49259e-06
0.00148416
0.00148543
0.00124728
0.000348725
0.000126591
4.48486e-05
1.76803e-05
8.63248e-06
8.62941e-06
3.11863e-05
3.12233e-05
1.50785e-06
1.29042e-06
1.61599e-06
1.30517e-06
1.51579e-06
1.28953e-06
1.62075e-06
1.30443e-06
2.40684e-06
2.40585e-06
1.34249e-06
1.25925e-06
1.26663e-06
1.3536e-06
1.35164e-06
1.25927e-06
1.26666e-06
1.35181e-06
1.41281e-06
1.26955e-06
1.39133e-06
1.28637e-06
1.4171e-06
1.2845e-06
1.3914e-06
1.28478e-06
1.14314e-06
1.34608e-06
1.26712e-06
1.20823e-06
1.14603e-06
1.33646e-06
1.26603e-06
1.1964e-06
1.49248e-06
1.49086e-06
1.48942e-06
1.48136e-06
1.46421e-06
1.46431e-06
1.4269e-06
1.42937e-06
1.43482e-06
1.43597e-06
1.33989e-06
1.2996e-06
1.26883e-06
1.29064e-06
1.34324e-06
1.30218e-06
1.27163e-06
1.29258e-06
1.33416e-06
1.39534e-06
1.34235e-06
1.3986e-06
1.33551e-06
1.3981e-06
1.3435e-06
1.39921e-06
1.35714e-06
1.41851e-06
1.36213e-06
1.42071e-06
1.35746e-06
1.41568e-06
1.35943e-06
1.42062e-06
1.35782e-06
1.31152e-06
1.35874e-06
1.31233e-06
1.49258e-06
1.49195e-06
1.4896e-06
1.4874e-06
0.00147941
0.00139363
0.000382791
8.39729e-05
3.03875e-05
1.28633e-05
1.37144e-05
1.34826e-05
8.59827e-06
8.51355e-06
1.23771e-05
1.23939e-05
1.01208e-05
1.02553e-05
1.56498e-06
1.29974e-06
1.74421e-06
1.34652e-06
1.57668e-06
1.29876e-06
1.75059e-06
1.34561e-06
1.74097e-06
3.54082e-06
2.23011e-06
2.69154e-06
1.73854e-06
3.57054e-06
2.22462e-06
2.69362e-06
1.39857e-06
1.29606e-06
1.28952e-06
1.39618e-06
1.39936e-06
1.29616e-06
1.28794e-06
1.39429e-06
1.43524e-06
1.29901e-06
1.37875e-06
1.28443e-06
1.44061e-06
1.29888e-06
1.37846e-06
1.28438e-06
1.49256e-06
1.49248e-06
1.48937e-06
1.47847e-06
1.43537e-06
1.44111e-06
1.41856e-06
1.41974e-06
1.4213e-06
1.42237e-06
1.30011e-06
1.26363e-06
1.23322e-06
1.24394e-06
1.30241e-06
1.26612e-06
1.23623e-06
1.24516e-06
1.31029e-06
1.28464e-06
1.3213e-06
1.27413e-06
1.30662e-06
1.31524e-06
1.31005e-06
1.28875e-06
1.32222e-06
1.27485e-06
1.30807e-06
1.31641e-06
1.40028e-06
1.32889e-06
1.40142e-06
1.32916e-06
1.27583e-06
1.29099e-06
1.24313e-06
1.32556e-06
1.27669e-06
1.29291e-06
1.2439e-06
1.32747e-06
1.49215e-06
1.48973e-06
1.49059e-06
0.00147242
0.000783867
0.00016835
5.12259e-05
2.16364e-05
1.03985e-05
4.85842e-06
4.88139e-06
5.17766e-06
5.19526e-06
1.08861e-05
3.91158e-06
1.1379e-05
1.11052e-05
1.20209e-05
2.5179e-06
3.9303e-06
1.09191e-05
2.5031e-06
1.13963e-05
1.11356e-05
1.20217e-05
7.04638e-06
2.925e-06
8.99665e-06
7.06265e-06
6.93051e-06
2.96377e-06
9.00598e-06
8.3576e-06
1.63229e-06
1.30192e-06
1.78581e-06
1.35666e-06
1.63671e-06
1.30132e-06
1.78776e-06
1.35505e-06
2.72154e-06
3.18515e-06
2.74453e-06
3.19351e-06
1.17749e-06
1.24471e-06
1.17738e-06
1.24444e-06
1.3946e-06
1.21788e-06
1.39759e-06
1.21813e-06
1.49228e-06
1.49259e-06
1.49073e-06
1.49151e-06
1.43048e-06
1.43118e-06
1.41672e-06
1.41764e-06
1.40396e-06
1.40927e-06
1.40059e-06
1.40203e-06
1.21552e-06
1.20952e-06
1.22834e-06
1.28247e-06
1.28751e-06
1.23905e-06
1.21964e-06
1.213e-06
1.22968e-06
1.28272e-06
1.28912e-06
1.24033e-06
1.36225e-06
1.2815e-06
1.36436e-06
1.28278e-06
1.34538e-06
1.27431e-06
1.32521e-06
1.32772e-06
1.25447e-06
1.30054e-06
1.3433e-06
1.27541e-06
1.32542e-06
1.32908e-06
1.25528e-06
1.302e-06
1.38343e-06
1.32372e-06
1.38417e-06
1.32412e-06
1.49061e-06
1.49121e-06
0.00139182
0.000560234
0.000182832
0.000108142
6.35081e-05
1.4742e-05
1.4826e-05
0.000458358
0.000458631
3.44528e-06
3.53657e-06
4.62036e-06
4.66876e-06
5.0223e-06
8.6963e-06
8.17642e-06
4.84463e-06
6.88348e-06
8.61529e-06
5.0266e-06
8.75577e-06
4.78401e-06
8.65147e-06
6.9228e-06
8.39754e-06
3.75898e-06
3.35958e-06
5.63302e-06
9.83469e-06
3.68376e-06
3.15922e-06
5.47071e-06
9.99483e-06
1.74078e-06
1.64381e-06
1.7426e-06
1.65321e-06
1.49144e-06
1.49247e-06
1.49087e-06
1.4919e-06
1.47245e-06
1.43368e-06
1.42988e-06
1.44505e-06
1.44573e-06
1.20909e-06
1.2274e-06
1.26218e-06
1.22006e-06
1.20901e-06
1.2293e-06
1.26581e-06
1.22056e-06
1.19997e-06
1.23294e-06
1.18384e-06
1.2302e-06
1.20831e-06
1.2383e-06
1.20164e-06
1.23287e-06
1.18412e-06
1.23124e-06
1.20952e-06
1.23999e-06
1.23147e-06
1.25114e-06
1.31925e-06
1.28067e-06
1.23281e-06
1.25312e-06
1.31929e-06
1.28251e-06
1.33188e-06
1.23769e-06
1.33234e-06
1.23806e-06
1.3124e-06
1.19945e-06
1.32357e-06
1.25844e-06
1.31314e-06
1.19998e-06
1.32407e-06
1.25939e-06
1.49045e-06
0.00133601
0.000709277
0.000564805
0.000551363
0.000462498
4.11358e-05
3.98057e-05
0.000372553
0.000367518
3.2485e-06
3.16458e-06
2.90153e-06
3.97493e-06
4.8729e-06
3.20303e-06
3.30707e-06
4.0074e-06
9.67616e-06
9.62292e-06
3.28946e-06
3.88512e-06
3.28152e-06
3.78613e-06
3.24712e-06
2.70635e-06
3.29083e-06
3.24932e-06
1.48384e-06
1.49221e-06
1.49261e-06
1.49227e-06
1.48897e-06
1.41361e-06
1.41308e-06
1.38556e-06
1.38913e-06
1.41634e-06
1.41634e-06
1.40813e-06
1.40799e-06
1.22441e-06
1.25044e-06
1.33026e-06
1.24283e-06
1.21498e-06
1.25211e-06
1.33049e-06
1.24269e-06
1.18167e-06
1.2676e-06
1.15679e-06
1.12372e-06
1.28026e-06
1.14833e-06
1.18169e-06
1.26805e-06
1.12385e-06
1.15848e-06
1.27675e-06
1.14861e-06
1.0985e-06
1.15094e-06
1.09923e-06
1.15145e-06
0.00139907
0.00123121
0.00126769
0.000870718
0.000743443
0.000673987
0.000645472
0.000610235
0.00017016
0.00017547
0.000591051
0.000562676
5.67642e-06
3.44064e-06
2.72345e-06
4.77631e-06
5.09324e-06
3.4291e-06
2.67458e-06
4.74417e-06
4.20812e-05
6.14961e-05
1.46747e-05
1.05879e-05
4.3747e-05
6.20258e-05
1.47876e-05
1.05247e-05
2.98276e-06
2.84363e-06
2.99466e-06
2.55865e-06
1.45971e-06
1.49269e-06
1.49235e-06
1.49085e-06
1.47644e-06
1.38468e-06
1.38281e-06
1.41749e-06
1.42111e-06
1.37461e-06
1.37565e-06
1.21076e-06
1.24187e-06
1.20285e-06
1.18004e-06
1.21043e-06
1.24099e-06
1.20173e-06
1.18035e-06
1.30056e-06
1.24435e-06
1.3064e-06
1.23281e-06
1.29362e-06
1.24391e-06
1.30691e-06
1.23288e-06
0.00144201
0.00145178
0.00146381
0.000953224
0.00075641
0.000666949
0.000673809
0.000683459
0.000104881
5.45328e-05
0.000550456
0.000344595
0.000279471
0.000459498
0.000108823
5.44758e-05
0.00057534
0.000352117
0.000281069
0.00047466
0.000856374
0.000851031
4.23327e-06
4.58562e-06
3.13816e-06
7.88944e-06
4.09671e-06
4.62107e-06
3.06769e-06
7.90603e-06
7.53086e-05
5.15552e-05
7.51722e-05
5.09657e-05
1.46705e-06
1.49278e-06
1.49093e-06
1.48517e-06
1.42035e-06
1.41995e-06
1.39127e-06
1.3922e-06
1.39884e-06
1.39603e-06
1.4216e-06
1.42115e-06
1.21997e-06
1.20447e-06
1.26682e-06
1.2047e-06
1.21707e-06
1.22091e-06
1.18076e-06
1.20727e-06
1.24486e-06
1.20707e-06
1.21572e-06
1.22094e-06
1.29106e-06
1.21924e-06
1.28994e-06
1.21941e-06
1.23953e-06
1.17316e-06
1.23947e-06
1.17331e-06
0.00145593
0.00148918
0.00147052
0.00115922
0.00118122
0.00140567
0.00141079
0.000705413
0.000628231
0.000771691
0.000844294
0.00027952
0.000151029
0.000403976
0.000739021
0.00034908
0.000882952
0.000279915
0.000152675
0.000439032
0.000756504
0.000360161
0.000889911
0.00116455
0.000850937
0.000993986
0.00055936
0.00106153
0.000913506
0.00102816
0.000589535
1.49331e-06
1.49278e-06
1.48957e-06
1.4717e-06
1.38455e-06
1.38515e-06
1.40973e-06
1.41326e-06
1.37758e-06
1.3776e-06
1.24892e-06
1.22073e-06
1.235e-06
1.22056e-06
1.21102e-06
1.22699e-06
1.23537e-06
1.22351e-06
1.21165e-06
1.22773e-06
1.22162e-06
1.22232e-06
1.22803e-06
1.25333e-06
1.13541e-06
1.19619e-06
1.23158e-06
1.25197e-06
1.13817e-06
1.19909e-06
1.25869e-06
1.19868e-06
1.26003e-06
1.19939e-06
0.00146617
0.00149003
0.00144234
0.00134888
0.00136112
0.00140516
0.00140385
0.00117241
0.000838476
0.000601766
0.000860645
0.000628078
0.00083824
0.00106265
0.00067894
0.000591907
0.000756549
0.000578315
0.000809586
0.0009383
0.00103049
0.000519821
0.00084469
0.000465253
0.000848109
0.00114779
0.000745683
0.00112314
0.000801887
1.49326e-06
1.49275e-06
1.49219e-06
1.42299e-06
1.42284e-06
1.40489e-06
1.40461e-06
1.3884e-06
1.38765e-06
1.40433e-06
1.40484e-06
1.19067e-06
1.24067e-06
1.24195e-06
1.24089e-06
1.23147e-06
1.23906e-06
1.19333e-06
1.23085e-06
1.23979e-06
1.24261e-06
1.24143e-06
1.24229e-06
1.24045e-06
1.17916e-06
1.27866e-06
1.23062e-06
1.2833e-06
1.24313e-06
1.23139e-06
1.18115e-06
0.00147675
0.0014877
0.00147857
0.00132383
0.00134338
0.00141367
0.00141715
0.00116841
0.000782193
0.0006517
0.00103173
0.000634515
0.000940832
0.000984478
0.000589278
0.000718724
0.00101414
0.000676172
0.000993476
0.00123253
0.00104391
0.00113121
0.00101838
0.00128416
0.00109083
0.00120747
0.00101356
0.00119737
0.000854244
0.00113578
0.000664246
1.4932e-06
1.49211e-06
1.48976e-06
1.41519e-06
1.41529e-06
1.4441e-06
1.44511e-06
1.38643e-06
1.38742e-06
1.22478e-06
1.23379e-06
1.25238e-06
1.24357e-06
1.23408e-06
1.20293e-06
1.22628e-06
1.23523e-06
1.25319e-06
1.24331e-06
1.23442e-06
1.20455e-06
1.27166e-06
1.23893e-06
1.19719e-06
1.2078e-06
1.23641e-06
1.20891e-06
1.2747e-06
1.19957e-06
0.00147389
0.00148806
0.00147942
0.00143949
0.00144031
0.00147909
0.00147144
0.00147153
0.00132372
0.0012665
0.00118415
0.00132986
0.00130768
0.00115503
0.00115114
0.000693711
0.000862362
0.001077
0.000770381
0.00104974
0.0010078
0.000597286
0.000913047
0.00112867
0.000897621
0.00115217
0.00128344
0.00120164
0.00132504
0.00111314
1.4925e-06
1.49224e-06
1.48454e-06
1.40103e-06
1.40167e-06
1.41205e-06
1.41351e-06
1.22279e-06
1.24719e-06
1.24856e-06
1.23987e-06
1.2511e-06
1.25458e-06
1.22714e-06
1.2493e-06
1.25586e-06
1.25077e-06
1.25152e-06
1.24203e-06
1.29182e-06
1.23974e-06
1.30255e-06
1.26403e-06
1.29169e-06
1.24235e-06
1.30375e-06
1.26551e-06
1.23112e-06
1.14529e-06
1.23389e-06
1.1479e-06
0.00147633
0.00148887
0.00145913
0.00146497
0.00145974
0.00146369
0.00146359
0.00146262
0.00134864
0.00126061
0.001229
0.0012771
0.0012495
0.00130318
0.00136373
0.00130854
0.00129673
0.00135329
0.00123009
0.00131439
0.00120868
0.00129838
0.00136941
0.00130531
0.00103948
0.00123106
0.00104553
0.00131716
0.00130341
0.00128112
0.00134561
0.00125692
1.49258e-06
1.49152e-06
1.41867e-06
1.39927e-06
1.40007e-06
1.41975e-06
1.425e-06
1.42123e-06
1.38734e-06
1.25456e-06
1.26785e-06
1.38865e-06
1.25579e-06
1.27024e-06
1.34411e-06
1.28306e-06
1.2722e-06
1.26798e-06
1.34232e-06
1.27495e-06
1.28686e-06
1.27326e-06
1.24097e-06
1.22036e-06
1.28458e-06
1.22035e-06
1.24154e-06
1.22193e-06
1.28679e-06
1.22163e-06
0.00147241
0.00148257
0.00145749
0.0013546
0.00140013
0.00146153
0.00145665
0.0013548
0.00140136
0.00146974
0.00145993
0.00146878
0.00132786
0.00143064
0.00126867
0.00126662
0.00124843
0.00140232
0.0013431
0.00130833
0.00143125
0.00125808
0.00125664
0.00140182
0.00116034
0.00127483
0.00114021
0.00131991
1.48833e-06
1.48346e-06
1.41843e-06
1.39427e-06
1.39399e-06
1.41817e-06
1.43639e-06
1.43265e-06
1.25239e-06
1.29664e-06
1.28915e-06
1.28396e-06
1.28496e-06
1.23941e-06
1.23865e-06
1.25783e-06
1.25568e-06
1.296e-06
1.29069e-06
1.28702e-06
1.28709e-06
1.24086e-06
1.24e-06
1.25995e-06
1.30254e-06
1.31352e-06
1.26007e-06
1.22564e-06
1.30301e-06
1.26158e-06
1.31587e-06
1.22806e-06
0.00146498
0.00145537
0.00145138
0.00145068
0.0014549
0.00145293
0.00145216
0.00135382
0.00137686
0.00138524
0.00138827
0.00139104
0.00134964
0.00136919
0.00135061
0.00144851
0.00136645
0.00136895
0.00135994
0.00137668
0.00138476
0.00138856
0.0013905
0.00135171
0.00137121
0.00135298
0.00144806
0.00137139
0.00137148
0.00139398
0.00141803
0.00131566
0.00139453
0.00139887
0.00141845
0.00132189
0.00139458
1.48144e-06
1.48128e-06
1.42683e-06
1.38821e-06
1.27611e-06
1.27133e-06
1.38857e-06
1.27681e-06
1.26703e-06
1.42325e-06
1.44022e-06
1.44047e-06
1.28501e-06
1.2933e-06
1.28956e-06
1.23094e-06
1.18068e-06
1.2406e-06
1.2853e-06
1.29316e-06
1.296e-06
1.18307e-06
1.23139e-06
1.24501e-06
1.31225e-06
1.26063e-06
1.31406e-06
1.26143e-06
0.00145048
0.0014529
0.00146089
0.00145141
0.00146082
0.00144238
0.00144171
0.00132459
0.00140284
0.00138069
0.00134333
0.00141369
0.00136614
0.00135226
0.00135522
0.00136261
0.00135978
0.00136276
0.00134182
0.00134058
0.00133957
0.00132381
0.0014019
0.00134356
0.00138287
0.00141581