/*--------------------------------*- C++ -*----------------------------------*\
| =========                 |                                                 |
| \\      /  F ield         | OpenFOAM: The Open Source CFD Toolbox           |
|  \\    /   O peration     | Version:  5.x                                   |
|   \\  /    A nd           | Web:      www.OpenFOAM.org                      |
|    \\/     M anipulation  |                                                 |
\*---------------------------------------------------------------------------*/
FoamFile
{
    version     2.0;
    format      ascii;
    class       volVectorField;
    location    "1.6";
    object      U;
}
// * * * * * * * * * * * * * * * * * * * * * * * * * * * * * * * * * * * * * //

dimensions      [0 1 -1 0 0 0 0];

internalField   nonuniform List<vector> 
12160
(
(0.196592 0 0.000487335)
(0.19371 0 0.00218907)
(0.196508 0 -0.0025931)
(0.195716 0 0.00370299)
(0.193265 0 -0.00445137)
(0.195619 0 -0.00111636)
(0.195083 0 0.00402887)
(0.195195 0 -0.00416024)
(0.192139 0 0.000261344)
(0.194738 0 -0.00387564)
(0.190576 0 0.00363476)
(0.1946 0 -0.00168613)
(0.194875 0 0.00349561)
(0.189649 0 -0.00719687)
(0.19273 0 -0.000215122)
(0.186719 0 0.0032801)
(0.190119 0 -0.000471728)
(0.194784 0 0.00656131)
(0.191792 0 -0.00525412)
(0.186907 0 -0.00114373)
(0.18982 0 -0.00179504)
(0.182151 0 0.00286878)
(0.186534 0 0.000531102)
(0.190914 0 0.00683783)
(0.191971 0 5.86938e-05)
(0.190897 0 0.00347741)
(0.180219 0 -0.0103738)
(0.186386 0 0.00685044)
(0.177855 0 0.00253888)
(0.182011 0 0.000972537)
(0.187172 0 0.00709887)
(0.188748 0 0.00223455)
(0.192185 0 0.00828555)
(0.183245 0 -0.00688993)
(0.176119 0 -0.00154705)
(0.180455 0 0.00670516)
(0.17439 0 0.00204716)
(0.177671 0 0.00117583)
(0.182216 0 0.00697398)
(0.186039 0 0.00411184)
(0.19013 0 0.00925492)
(0.185517 0 4.71029e-05)
(0.183107 0 0.00350768)
(0.156498 0 -0.0141268)
(0.112038 0 0.0288898)
(0.172599 0 0.00149972)
(0.174091 0 0.000466128)
(0.177737 0 0.00656858)
(0.181388 0 0.00496606)
(0.187989 0 0.0105986)
(0.186069 0 0.00324459)
(0.186738 0 0.00736425)
(0.162123 0 -0.00936693)
(0.0991242 0 0.00223537)
(-0.228045 0 -0.0848763)
(0.172643 0 0.000881781)
(0.172206 0 -0.000649397)
(0.173725 0 0.00493094)
(0.176814 0 0.00502486)
(0.182482 0 0.0114721)
(0.186336 0 0.00704495)
(0.188368 0 0.00856614)
(0.171682 0 -0.00315548)
(0.121116 0 0.00111378)
(-0.172777 0 -0.0234599)
(-0.103118 0 0.161813)
(0.174054 0 0.000553611)
(0.172335 0 -0.00166426)
(0.171782 0 0.00267395)
(0.172322 0 0.00311057)
(0.176734 0 0.0113869)
(0.181778 0 0.00971333)
(0.188724 0 0.0123197)
(0.180735 0 0.000938236)
(0.161112 0 -0.000467016)
(-0.214622 0 -0.0329993)
(0.212905 0 0.00432872)
(0.00986288 0 -0.104714)
(0.175713 0 0.000596158)
(0.174043 0 -0.002287)
(0.172057 0 0.000285117)
(0.170051 0 -7.29351e-05)
(0.171274 0 0.00869935)
(0.175303 0 0.010127)
(0.182684 0 0.0164487)
(0.187833 0 0.00953341)
(0.185977 0 0.00175947)
(-0.0920096 0 -0.0299547)
(-0.0786955 0 -0.0357844)
(0.0818782 0 -0.0118416)
(-0.0536151 0 0.103272)
(0.176259 0 0.000936653)
(0.176032 0 -0.00203299)
(0.174027 0 -0.00107515)
(0.17058 0 -0.00324506)
(0.168815 0 0.00417852)
(0.168939 0 0.00668392)
(0.174391 0 0.0179532)
(0.185277 0 0.0166572)
(0.210538 0 0.0111005)
(0.00837152 0 -0.0218887)
(-0.0598284 0 -0.0847136)
(0.0553469 0 0.0658891)
(-0.0750876 0 -0.0274329)
(0.0758102 0 -0.0268974)
(0.174669 0 0.00133337)
(0.176786 0 -0.000717671)
(0.176628 0 -0.000783885)
(0.17351 0 -0.00520018)
(0.169671 0 -0.000587892)
(0.165745 0 0.000425461)
(0.166141 0 0.0139931)
(0.177224 0 0.0186191)
(0.219236 0 0.0202053)
(0.12536 0 -0.00594418)
(-0.0934533 0 -0.0842625)
(0.04574 0 -0.0288032)
(-0.000197009 0 -0.0170273)
(0.0612332 0 -0.0180589)
(-0.0429436 0 0.024925)
(0.169191 0 0.00220293)
(0.175245 0 0.00185925)
(0.178399 0 0.0013768)
(0.177199 0 -0.00489255)
(0.173291 0 -0.00363255)
(0.166889 0 -0.00631097)
(0.162201 0 0.00597574)
(0.16799 0 0.0128496)
(0.219913 0 0.0238563)
(0.186894 0 0.0139196)
(-0.0623046 0 -0.0647219)
(0.0209566 0 -0.0396286)
(0.0250618 0 -0.0620762)
(0.0254391 0 0.0253373)
(-0.0597116 0 -0.0242609)
(0.159598 0 0.00326214)
(0.170117 0 0.0051655)
(0.177499 0 0.00497425)
(0.179664 0 -0.00184755)
(0.178318 0 -0.00350148)
(0.172081 0 -0.0106509)
(0.163892 0 -0.00221568)
(0.163556 0 0.0016626)
(0.216232 0 0.0185588)
(0.214373 0 0.0221077)
(-0.0209591 0 -0.020938)
(0.0182334 0 -0.0474722)
(0.00342881 0 -0.0565355)
(0.00881154 0 -0.0379175)
(-0.00763099 0 0.00125413)
(0.145828 0 0.00436789)
(0.160787 0 0.00868554)
(0.172581 0 0.0100641)
(0.179537 0 0.00388693)
(0.182806 0 0.000401534)
(0.179145 0 -0.0108278)
(0.170541 0 -0.00812103)
(0.165392 0 -0.0111985)
(0.214813 0 0.00618051)
(0.224175 0 0.0168722)
(0.0454439 0 0.00931847)
(0.0234294 0 -0.0386511)
(-0.00193044 0 -0.051245)
(-0.0026169 0 -0.0399765)
(0.00590708 0 -0.0447084)
(0.128008 0 0.00543442)
(0.147053 0 0.0122575)
(0.163343 0 0.015855)
(0.175629 0 0.011358)
(0.184181 0 0.00770572)
(0.185239 0 -0.00596918)
(0.179993 0 -0.00911983)
(0.172567 0 -0.0204239)
(0.218879 0 -0.00804647)
(0.236887 0 0.00152464)
(0.102305 0 0.0120647)
(0.0480187 0 -0.0317829)
(-0.00747775 0 -0.0307397)
(-0.00531495 0 -0.0501079)
(0.00253181 0 -0.0419118)
(0.106656 0 0.00637865)
(0.129164 0 0.0156539)
(0.149571 0 0.0217859)
(0.166867 0 0.0196852)
(0.180724 0 0.0175651)
(0.188243 0 0.00350949)
(0.189306 0 -0.00351618)
(0.183133 0 -0.0222433)
(0.228149 0 -0.0176486)
(0.264826 0 -0.016958)
(0.162562 0 -0.00969203)
(0.0766545 0 -0.0335559)
(0.00260708 0 -0.0197024)
(-0.00814584 0 -0.0379807)
(0.000949925 0 -0.0474998)
(0.0824604 0 0.00715608)
(0.107663 0 0.0186565)
(0.131494 0 0.0274134)
(0.153166 0 0.0282008)
(0.172183 0 0.0287195)
(0.186482 0 0.0161433)
(0.194743 0 0.00819043)
(0.193668 0 -0.0154615)
(0.239469 0 -0.0187254)
(0.309454 0 -0.031046)
(0.222624 0 -0.037373)
(0.101929 0 -0.0489719)
(0.0145954 0 -0.0221705)
(-0.00213527 0 -0.0340249)
(-0.000740277 0 -0.0356381)
(0.056205 0 0.00774542)
(0.0832648 0 0.021119)
(0.109678 0 0.0323747)
(0.134865 0 0.0362642)
(0.158413 0 0.0400935)
(0.17871 0 0.0300581)
(0.193785 0 0.0230646)
(0.200512 0 -0.000943936)
(0.249655 0 -0.01078)
(0.362091 0 -0.0352789)
(0.285169 0 -0.0584167)
(0.120349 0 -0.0692997)
(0.0262411 0 -0.0383644)
(0.00433645 0 -0.0368497)
(0.000318304 0 -0.0316842)
(0.0286939 0 0.00812917)
(0.056777 0 0.0229565)
(0.0848772 0 0.0364366)
(0.112606 0 0.0433542)
(0.139714 0 0.0508496)
(0.16499 0 0.0441734)
(0.186333 0 0.040219)
(0.201498 0 0.0190901)
(0.255822 0 0.00610226)
(0.405703 0 -0.0260727)
(0.353398 0 -0.0624416)
(0.136182 0 -0.091132)
(0.0306906 0 -0.0581656)
(0.00962073 0 -0.0504946)
(0.00157191 0 -0.0345717)
(0.000718265 0 0.00829863)
(0.0290194 0 0.0241374)
(0.0579311 0 0.0394729)
(0.0872195 0 0.0491405)
(0.116782 0 0.0602795)
(0.145821 0 0.0574566)
(0.172588 0 0.0579092)
(0.195258 0 0.0415485)
(0.254741 0 0.0294525)
(0.424398 0 -0.00501168)
(0.422017 0 -0.0428394)
(0.152244 0 -0.103714)
(0.0274575 0 -0.0742691)
(0.0102065 0 -0.0680841)
(0.00265957 0 -0.0475783)
(-0.0269794 0 0.00825449)
(0.000790457 0 0.0246572)
(0.0296809 0 0.0414302)
(0.0596041 0 0.05345)
(0.0905404 0 0.0679552)
(0.12204 0 0.0689921)
(0.152844 0 0.0747727)
(0.181503 0 0.0636276)
(0.245069 0 0.0541355)
(0.420681 0 0.0239702)
(0.475539 0 -0.00331106)
(0.174845 0 -0.0926451)
(0.0163712 0 -0.0796577)
(0.00650987 0 -0.0823015)
(0.00235288 0 -0.0634696)
(-0.0536982 0 0.00800141)
(-0.0271644 0 0.0245225)
(0.000940941 0 0.0422984)
(0.0306426 0 0.0562197)
(0.0619672 0 0.0736674)
(0.0947241 0 0.078288)
(0.128033 0 0.0893968)
(0.160887 0 0.0836149)
(0.227328 0 0.0776166)
(0.401862 0 0.0551901)
(0.497182 0 0.0359082)
(0.20509 0 -0.0490241)
(0.000467788 0 -0.067159)
(-0.00222725 0 -0.0855177)
(0.000233253 0 -0.075835)
(-0.0787925 0 0.00754875)
(-0.0541421 0 0.023748)
(-0.0275345 0 0.0420895)
(0.00117007 0 0.057447)
(0.0319951 0 0.0773505)
(0.0649597 0 0.0851418)
(0.0994432 0 0.101195)
(0.134575 0 0.100613)
(0.202273 0 0.0986245)
(0.371638 0 0.0846222)
(0.488245 0 0.073167)
(0.235613 0 0.0144162)
(-0.0123578 0 -0.0340476)
(-0.0144141 0 -0.0706612)
(-0.00364247 0 -0.0775699)
(-0.101693 0 0.00691643)
(-0.0794945 0 0.0223583)
(-0.0550362 0 0.0408269)
(-0.0280514 0 0.0571561)
(0.00148619 0 0.079014)
(0.0337442 0 0.0895126)
(0.0682936 0 0.10998)
(0.104234 0 0.114051)
(0.170942 0 0.116631)
(0.331601 0 0.112049)
(0.455002 0 0.109814)
(0.25069 0 0.0758514)
(-0.0140794 0 0.0170918)
(-0.0256314 0 -0.0352063)
(-0.00861611 0 -0.0624943)
(-0.121901 0 0.00612901)
(-0.102646 0 0.0203861)
(-0.0809044 0 0.0385485)
(-0.0563076 0 0.0553777)
(-0.0287893 0 0.0786869)
(0.00196254 0 0.0914596)
(0.0356541 0 0.115791)
(0.0712662 0 0.1237)
(0.134514 0 0.130976)
(0.282024 0 0.135811)
(0.404675 0 0.144887)
(0.247275 0 0.129788)
(-0.00970665 0 0.0755767)
(-0.0326717 0 0.0146369)
(-0.013961 0 -0.028758)
(-0.139015 0 0.0052024)
(-0.123084 0 0.0178827)
(-0.104548 0 0.035313)
(-0.0829276 0 0.0521594)
(-0.0581116 0 0.0764104)
(-0.0296101 0 0.0911061)
(0.00244938 0 0.118605)
(0.0369181 0 0.129461)
(0.0942692 0 0.141469)
(0.223862 0 0.154851)
(0.341171 0 0.175219)
(0.226842 0 0.179764)
(-0.00487785 0 0.131285)
(-0.0350116 0 0.0705707)
(-0.0175177 0 0.0187158)
(-0.152747 0 0.00416658)
(-0.140389 0 0.0149335)
(-0.12544 0 0.0312083)
(-0.107298 0 0.047574)
(-0.0857937 0 0.0722417)
(-0.0602487 0 0.0884674)
(-0.0305767 0 0.118173)
(0.00272664 0 0.131693)
(0.0512819 0 0.148133)
(0.158834 0 0.169057)
(0.267457 0 0.19978)
(0.193407 0 0.221518)
(-0.00120657 0 0.180289)
(-0.0334824 0 0.125132)
(-0.0187458 0 0.071865)
(-0.162913 0 0.00307139)
(-0.154254 0 0.0116413)
(-0.143145 0 0.0263576)
(-0.128858 0 0.0417377)
(-0.111196 0 0.0662637)
(-0.0892545 0 0.0835329)
(-0.0626949 0 0.114635)
(-0.0308379 0 0.131557)
(0.00703345 0 0.151425)
(0.0887274 0 0.178489)
(0.186994 0 0.21855)
(0.151437 0 0.253717)
(0.000706798 0 0.22109)
(-0.0297336 0 0.174212)
(-0.0184243 0 0.124319)
(-0.169592 0 0.00193449)
(-0.164485 0 0.0081227)
(-0.157339 0 0.0209258)
(-0.147128 0 0.0348263)
(-0.133715 0 0.0586158)
(-0.115958 0 0.0763714)
(-0.093217 0 0.108309)
(-0.0642744 0 0.128718)
(-0.0374346 0 0.151338)
(0.0132102 0 0.182479)
(0.102379 0 0.232079)
(0.103383 0 0.278025)
(0.00075383 0 0.253299)
(-0.0248123 0 0.215307)
(-0.0168362 0 0.172131)
(-0.17262 0 0.000889239)
(-0.171025 0 0.00446621)
(-0.167839 0 0.0151116)
(-0.161743 0 0.0270791)
(-0.152824 0 0.0495181)
(-0.1397 0 0.06712)
(-0.121428 0 0.0993181)
(-0.0966402 0 0.122459)
(-0.0805928 0 0.148026)
(-0.0627901 0 0.182509)
(0.0116661 0 0.239325)
(0.0487003 0 0.297656)
(-0.00022035 0 0.277028)
(-0.0195263 0 0.247805)
(-0.0143946 0 0.212733)
(-0.172295 0 1.24252e-05)
(-0.174017 0 0.000760554)
(-0.174631 0 0.00912826)
(-0.172475 0 0.0187824)
(-0.168115 0 0.0392928)
(-0.159869 0 0.0560121)
(-0.146613 0 0.0877588)
(-0.126782 0 0.112688)
(-0.120438 0 0.141103)
(-0.131329 0 0.177121)
(-0.075979 0 0.237402)
(0.00247201 0 0.303989)
(-0.00133245 0 0.289729)
(-0.0140611 0 0.271705)
(-0.0114943 0 0.245076)
(-0.169055 0 -0.000956761)
(-0.173775 0 -0.00279955)
(-0.17775 0 0.00324276)
(-0.179211 0 0.0102299)
(-0.179366 0 0.0283289)
(-0.175972 0 0.0434484)
(-0.168052 0 0.0738616)
(-0.153885 0 0.0996499)
(-0.156695 0 0.130852)
(-0.194403 0 0.167486)
(-0.160887 0 0.229245)
(-0.0320733 0 0.304466)
(-0.00191314 0 0.294069)
(-0.00849139 0 0.286518)
(-0.00838893 0 0.268866)
(-0.163255 0 -0.00183487)
(-0.170519 0 -0.00590866)
(-0.177196 0 -0.00229939)
(-0.182046 0 0.00167605)
(-0.186549 0 0.0170024)
(-0.187713 0 0.0299336)
(-0.185142 0 0.0581965)
(-0.177042 0 0.0836221)
(-0.188811 0 0.117403)
(-0.250966 0 0.153686)
(-0.239208 0 0.215444)
(-0.0912121 0 0.292062)
(-0.00669323 0 0.296081)
(-0.00351141 0 0.291992)
(-0.00524507 0 0.283908)
(-0.155352 0 -0.00260864)
(-0.164548 0 -0.00861819)
(-0.173432 0 -0.00749358)
(-0.181458 0 -0.00658233)
(-0.189672 0 0.00575239)
(-0.194909 0 0.0159243)
(-0.197604 0 0.0415806)
(-0.195379 0 0.0649363)
(-0.216317 0 0.100991)
(-0.300306 0 0.13594)
(-0.311989 0 0.197007)
(-0.143395 0 0.274613)
(-0.00700631 0 0.293663)
(0.000523015 0 0.293743)
(-0.00240828 0 0.290403)
(-0.14582 0 -0.0033139)
(-0.156372 0 -0.0109172)
(-0.167068 0 -0.0120985)
(-0.177655 0 -0.0140377)
(-0.188541 0 -0.00485139)
(-0.197501 0 0.00172353)
(-0.205535 0 0.0245964)
(-0.208555 0 0.0442301)
(-0.238707 0 0.0818798)
(-0.342165 0 0.11453)
(-0.377489 0 0.174056)
(-0.191559 0 0.251812)
(-0.00896497 0 0.279623)
(0.006444 0 0.287336)
(0.00020156 0 0.291023)
(-0.134776 0 -0.003903)
(-0.146518 0 -0.0128847)
(-0.158471 0 -0.0160316)
(-0.170862 0 -0.020557)
(-0.18372 0 -0.0146238)
(-0.196106 0 -0.0120293)
(-0.20878 0 0.00796831)
(-0.216358 0 0.022264)
(-0.255695 0 0.0603106)
(-0.376821 0 0.090353)
(-0.434942 0 0.146981)
(-0.234925 0 0.222382)
(-0.0107987 0 0.258088)
(0.0119363 0 0.272575)
(0.00360508 0 0.284099)
(-0.135332 0 -0.0145693)
(-0.114713 0 -0.00451707)
(-0.148152 0 -0.0193048)
(-0.161753 0 -0.0260918)
(-0.176133 0 -0.0231796)
(-0.191002 0 -0.0244161)
(-0.206664 0 -0.00840359)
(-0.219124 0 0.000206362)
(-0.267328 0 0.0368874)
(-0.40478 0 0.0636772)
(-0.4838 0 0.116909)
(-0.270734 0 0.186282)
(-0.011292 0 0.229866)
(0.0175131 0 0.25038)
(0.00682885 0 0.269147)
(-0.136449 0 -0.0219336)
(-0.115241 0 -0.0164217)
(-0.0859149 0 -0.00487251)
(-0.150871 0 -0.0306782)
(-0.16625 0 -0.0304382)
(-0.182477 0 -0.0350544)
(-0.199895 0 -0.0233016)
(-0.217264 0 -0.0206864)
(-0.273413 0 0.0123862)
(-0.42607 0 0.0346337)
(-0.52286 0 0.0859642)
(-0.295764 0 0.146184)
(-0.00946751 0 0.194693)
(0.0232824 0 0.220926)
(0.0101349 0 0.24678)
(-0.138498 0 -0.0342776)
(-0.11583 0 -0.0250954)
(-0.0861069 0 -0.0168415)
(-0.0541691 0 -0.00502924)
(-0.154565 0 -0.0364747)
(-0.171556 0 -0.0439476)
(-0.190021 0 -0.0359125)
(-0.210787 0 -0.0394757)
(-0.273527 0 -0.0106697)
(-0.439466 0 0.00434417)
(-0.548394 0 0.0540761)
(-0.306602 0 0.103728)
(-0.00462437 0 0.152303)
(0.0292227 0 0.184343)
(0.0134412 0 0.217184)
(-0.141309 0 -0.0412225)
(-0.116876 0 -0.0384782)
(-0.0860129 0 -0.0259023)
(-0.0554034 0 -0.0163913)
(-0.0357476 0 -0.00707691)
(-0.158789 0 -0.0513867)
(-0.178003 0 -0.0463095)
(-0.200831 0 -0.0548397)
(-0.268625 0 -0.0301526)
(-0.44184 0 -0.0252205)
(-0.553113 0 0.0198292)
(-0.300873 0 0.0524067)
(0.00315451 0 0.102296)
(0.035212 0 0.14077)
(0.0165959 0 0.18074)
(-0.144254 0 -0.0572877)
(-0.118185 0 -0.0466737)
(-0.0861062 0 -0.0391017)
(-0.0554705 0 -0.0247016)
(-0.0384888 0 -0.02056)
(0.012151 0 -0.00945115)
(-0.164273 0 -0.0551075)
(-0.189303 0 -0.0670093)
(-0.260925 0 -0.0456573)
(-0.429103 0 -0.0509962)
(-0.529059 0 -0.0208575)
(-0.278141 0 -0.0125726)
(0.0131182 0 0.0444961)
(0.0407356 0 0.0908377)
(0.0194386 0 0.137916)
(-0.148469 0 -0.0623197)
(-0.119059 0 -0.0636656)
(-0.0855295 0 -0.0470484)
(-0.0567412 0 -0.0366437)
(-0.0383551 0 -0.0298646)
(0.00218391 0 -0.0247922)
(0.0351742 0 -0.0209152)
(-0.176573 0 -0.0776236)
(-0.251827 0 -0.0577118)
(-0.398721 0 -0.0704645)
(-0.475454 0 -0.0635096)
(-0.24317 0 -0.09058)
(0.0228615 0 -0.0171935)
(0.0444473 0 0.0362588)
(0.0217117 0 0.0895681)
(-0.16178 0 -0.0872975)
(-0.121067 0 -0.069561)
(-0.0840974 0 -0.0630204)
(-0.0563817 0 -0.0428534)
(-0.04086 0 -0.0405871)
(-0.00465104 0 -0.0335307)
(0.0124631 0 -0.0523636)
(0.152228 0 -0.0195484)
(-0.241273 0 -0.0686079)
(-0.357956 0 -0.0845931)
(-0.411167 0 -0.0971557)
(-0.209239 0 -0.149237)
(0.023825 0 -0.0711426)
(0.0450851 0 -0.0198846)
(0.0230909 0 0.0372425)
(-0.22857 0 -0.0795593)
(-0.136192 0 -0.0960094)
(-0.0842343 0 -0.067413)
(-0.054755 0 -0.0561306)
(-0.0409539 0 -0.0439679)
(-0.01827 0 -0.0424191)
(-0.00501191 0 -0.0748173)
(0.109991 0 -0.0755828)
(0.213285 0 -0.0521954)
(-0.315804 0 -0.0980996)
(-0.356896 0 -0.118209)
(-0.179855 0 -0.172095)
(0.0141198 0 -0.11039)
(0.0405298 0 -0.0727562)
(0.0226091 0 -0.0161182)
(-0.277731 0 -0.114124)
(-0.197282 0 -0.0886618)
(-0.103553 0 -0.0926539)
(-0.0552235 0 -0.0571828)
(-0.0395846 0 -0.0522702)
(-0.0269722 0 -0.0429015)
(-0.0240094 0 -0.0817818)
(0.0550908 0 -0.0993101)
(0.159031 0 -0.101935)
(0.38688 0 -0.000830474)
(-0.317516 0 -0.130538)
(-0.152844 0 -0.171437)
(0.000647044 0 -0.13536)
(0.031428 0 -0.115683)
(0.0198244 0 -0.0657764)
(-0.283505 0 -0.136551)
(-0.20315 0 -0.139006)
(-0.139899 0 -0.0873753)
(-0.0747426 0 -0.0800671)
(-0.0411581 0 -0.0486948)
(-0.0311979 0 -0.0471849)
(-0.0358953 0 -0.0739368)
(-0.0103477 0 -0.115864)
(0.0735303 0 -0.169875)
(0.295347 0 -0.0622321)
(0.298078 0 0.0547609)
(-0.124604 0 -0.169291)
(-0.00748922 0 -0.151274)
(0.0215781 0 -0.144419)
(0.0159039 0 -0.10591)
(-0.0909371 0 -0.173445)
(-0.211419 0 -0.191791)
(-0.0294635 0 -0.134182)
(-0.0895739 0 -0.0755222)
(-0.0574311 0 -0.0649778)
(-0.0372616 0 -0.0385184)
(-0.0472951 0 -0.064879)
(-0.0553184 0 -0.101245)
(-0.0242385 0 -0.184467)
(0.181017 0 -0.136062)
(0.349959 0 0.108387)
(0.228101 0 0.966454)
(-0.00859662 0 -0.161559)
(0.0147732 0 -0.160598)
(0.0116329 0 -0.134266)
(-0.00276767 0 -0.168409)
(-0.0705337 0 -0.209606)
(-0.120197 0 -0.176809)
(0.0755131 0 -0.112627)
(-0.0563046 0 -0.0590728)
(-0.0508515 0 -0.0485807)
(-0.0556759 0 -0.0426978)
(-0.0796419 0 -0.0814249)
(-0.101115 0 -0.167982)
(0.00712372 0 -0.183391)
(0.280024 0 0.102718)
(0.280584 0 0.851047)
(0.487608 9.48208e-28 1.27401)
(0.163765 0 1.28959)
(0.0105516 0 -0.169819)
(0.00791633 0 -0.15261)
(0.0114951 0 -0.177134)
(-0.00979185 0 -0.188949)
(-0.084139 0 -0.186017)
(-0.0841146 0 -0.124854)
(0.126262 0 -0.0848874)
(-0.0366946 0 -0.0372938)
(-0.0645849 0 -0.0398029)
(-0.0935516 0 -0.0428314)
(-0.156997 0 -0.129156)
(-0.137591 0 -0.160384)
(0.0142177 0 0.0758226)
(0.24593 0 0.788228)
(0.527822 5.55664e-28 1.15605)
(0.551721 -4.37752e-30 1.33532)
(0.335398 1.57304e-27 1.40262)
(0.0885114 0 1.41642)
(0.00575182 0 -0.164796)
(0.00507073 0 -0.172743)
(0.00262826 0 -0.194275)
(-0.0306721 0 -0.168624)
(-0.0900938 0 -0.138185)
(-0.0660581 0 -0.0813377)
(0.152313 0 -0.0569023)
(-0.0353746 0 -0.0172053)
(-0.0936719 0 -0.0289227)
(-0.17481 0 -0.0616502)
(-0.245973 0 -0.132428)
(-0.217415 0 0.00735036)
(0.138853 0 0.731791)
(0.462144 0 1.07564)
(0.59901 0 1.18811)
(0.722496 2.6041e-26 1.37975)
(0.49695 -4.26783e-30 1.46814)
(0.29798 1.65379e-27 1.51875)
(0.080038 0 1.60292)
(0.00084509 0 -0.1864)
(-0.0127777 0 -0.174051)
(-0.0360508 0 -0.130616)
(-0.0828131 0 -0.0993583)
(-0.051255 0 -0.0468643)
(0.162723 0 -0.030339)
(-0.0449931 0 0.000445404)
(-0.149855 0 -0.0324021)
(-0.276557 0 -0.0656729)
(-0.33699 0 -0.00905675)
(-0.0133482 0 0.603525)
(0.319684 0 0.912353)
(0.567979 0 1.10741)
(0.719188 7.77964e-26 1.20069)
(0.85995 -8.12664e-30 1.36472)
(0.620221 2.2033e-26 1.49654)
(0.412953 0 1.58599)
(0.191269 0 1.64826)
(0.0379775 0 1.68695)
(-0.00433552 0 -0.167554)
(-0.0186973 0 -0.138121)
(-0.0337701 0 -0.0946717)
(-0.0719519 0 -0.0695761)
(-0.0372659 0 -0.0291347)
(0.193511 0 -0.0096405)
(-0.0749433 0 0.0105332)
(-0.208153 0 -0.0473598)
(-0.324755 0 0.0279402)
(-0.23631 0 0.471699)
(0.0901299 0 0.766353)
(0.473115 -8.55272e-27 0.960189)
(0.730627 4.69401e-26 1.02504)
(0.977234 0 1.1931)
(0.971007 3.62736e-25 1.1998)
(0.728556 -6.48503e-30 1.42752)
(0.521557 4.58094e-26 1.57138)
(0.314481 0 1.67665)
(0.150951 0 1.72678)
(0.0345102 0 1.75062)
(-0.00730105 0 -0.133835)
(-0.0192411 0 -0.101628)
(-0.0299459 0 -0.0648696)
(-0.0568953 0 -0.0441984)
(-0.0331856 0 -0.0501498)
(0.265927 0 0.00990777)
(-0.115761 0 -0.00509169)
(-0.247124 0 -0.00567647)
(-0.280995 0 0.307546)
(-0.0262342 0 0.608009)
(0.309597 -1.58743e-26 0.788456)
(0.649089 0 0.897197)
(0.912001 -1.89541e-25 1.03095)
(1.11358 -6.13139e-25 1.05656)
(1.07233 6.06694e-10 1.09202)
(0.770376 0 1.22713)
(0.571604 0 1.47395)
(0.380662 2.66181e-26 1.63478)
(0.212793 1.1137e-27 1.72669)
(0.0676794 0 1.77281)
(0.00532868 0 1.77182)
(-0.00801098 0 -0.0988521)
(-0.0183449 0 -0.0706033)
(-0.0276051 0 -0.0413034)
(-0.0504517 0 -0.0238082)
(-0.0403395 0 -0.0722979)
(0.345473 0 0.0189532)
(-0.185426 0 -0.034834)
(-0.117091 0 0.131793)
(0.0401654 0 0.340812)
(0.242644 2.34946e-43 0.544542)
(0.528801 0 0.731153)
(0.867682 2.6685e-25 0.778984)
(1.19146 -2.44691e-24 0.865635)
(1.25721 -8.49938e-10 0.982768)
(1.09126 4.51519e-09 0.898803)
(0.829467 -3.52589e-10 1.08582)
(1.08833 9.12928e-10 0.898809)
(1.16651 4.89954e-09 0.839557)
(1.16407 6.87934e-10 0.840104)
(0.57051 8.75916e-25 1.26577)
(0.377224 3.95746e-25 1.50933)
(0.216238 -9.78401e-27 1.63817)
(0.0719864 1.28084e-26 1.72948)
(0.0121442 0 1.76556)
(-0.0144041 0 1.76192)
(-0.00807558 0 -0.0685103)
(-0.0174971 0 -0.0438233)
(-0.0350339 0 -0.0305771)
(-0.0675299 0 0.00207033)
(-0.0589808 0 -0.0924166)
(0.43108 0 -0.0426835)
(-0.0542368 0 -0.0210971)
(0.128425 0 0.131845)
(0.215405 -3.56737e-43 0.299431)
(0.478657 0 0.559207)
(0.691761 0 0.561217)
(1.08803 6.92712e-25 0.729797)
(1.3055 -9.18928e-25 0.765594)
(1.51212 -7.50865e-10 0.752753)
(0.938616 4.82407e-09 0.96457)
(1.16109 1.04165e-08 0.819897)
(0.714475 -2.51467e-09 1.20418)
(0.936295 9.21822e-10 0.963818)
(0.907192 4.22113e-09 1.07585)
(0.905382 6.02468e-10 1.07492)
(1.15587 5.05183e-10 0.818514)
(1.21463 8.46527e-09 0.688959)
(1.20861 3.1787e-10 0.689833)
(0.408653 2.08562e-24 1.27088)
(0.139452 -7.55442e-25 1.4609)
(0.0163936 0 1.57506)
(-0.0298771 1.10024e-26 1.66142)
(-0.0472866 0 1.73598)
(-0.0195874 0 1.72417)
(-0.00803372 0 -0.0416193)
(-0.0197615 0 -0.0202569)
(-0.0518189 0 -0.0145923)
(-0.112163 0 0.0278006)
(-0.109115 0 -0.0521019)
(0.396926 0 -0.16003)
(0.163794 0 0.0518783)
(0.222726 4.07005e-29 0.12248)
(0.495494 2.78197e-27 0.408915)
(0.610927 9.56848e-26 0.333087)
(0.95115 0 0.526264)
(1.29717 -3.77944e-24 0.572822)
(1.55848 -5.11309e-09 0.563228)
(1.50095 -4.78065e-09 0.51376)
(1.49826 6.80959e-09 0.511757)
(1.56554 5.33117e-10 0.485806)
(1.56565 3.05136e-10 0.484363)
(1.04707 1.18515e-08 0.911605)
(1.34248 1.08786e-08 0.712453)
(0.465088 2.35831e-24 1.25882)
(0.806136 4.69294e-10 1.19392)
(1.04114 4.1936e-10 0.910251)
(0.987604 1.18109e-08 1.02952)
(0.983243 3.28239e-10 1.02742)
(1.33465 -1.52932e-10 0.713725)
(1.37238 8.89362e-09 0.58927)
(1.36763 -1.75354e-09 0.588395)
(0.115306 -4.62497e-25 1.31989)
(-0.106725 0 1.43412)
(-0.178944 0 1.45506)
(-0.141556 1.3922e-26 1.55429)
(-0.085603 0 1.66474)
(-0.0425761 0 1.66701)
(-0.00983861 0 -0.0180979)
(-0.0315787 0 0.0133597)
(-0.0714173 0 0.0126598)
(-0.197903 0 0.0379741)
(-0.196511 0 0.0782844)
(0.328032 0 -0.107483)
(0.252534 0 0.0668214)
(0.3958 1.00652e-27 0.196564)
(0.614589 0 0.260544)
(0.852324 2.29325e-25 0.343077)
(1.16837 6.43662e-25 0.395348)
(1.44953 -2.36327e-09 0.44108)
(1.58833 -1.43082e-10 0.35569)
(1.58857 3.2091e-10 0.354989)
(1.62334 4.70771e-10 0.309137)
(1.62277 2.75526e-10 0.307981)
(1.65289 -8.35144e-09 0.282593)
(1.65143 7.32498e-09 0.28236)
(1.76307 -7.93535e-10 0.270684)
(1.76245 1.32155e-09 0.270672)
(1.19881 1.20601e-08 0.804555)
(1.47646 2.47911e-08 0.531125)
(1.27731 1.18003e-08 0.526369)
(1.42557 1.76439e-08 0.555947)
(1.34729 3.06958e-09 0.515151)
(0.191201 1.86372e-24 1.26508)
(0.431117 -7.20485e-09 1.24842)
(0.812396 1.3698e-09 0.984301)
(0.812586 1.08176e-10 0.984976)
(0.95438 -1.62355e-08 0.970215)
(0.954241 2.18959e-08 0.971151)
(1.19396 1.57254e-09 0.803969)
(1.14407 1.40869e-08 0.893556)
(1.14089 -4.85871e-10 0.894352)
(1.47288 -8.98085e-09 0.530589)
(1.28925 -6.41919e-09 0.531012)
(1.42707 2.10219e-09 0.552033)
(1.34374 -3.02828e-09 0.517402)
(1.53517 2.66878e-08 0.449836)
(1.35717 1.84186e-08 0.441195)
(1.51198 2.37596e-08 0.36938)
(1.40725 3.25762e-09 0.44996)
(1.52997 -1.2796e-08 0.449481)
(1.36561 -9.93657e-09 0.44401)
(1.51017 -6.55353e-09 0.369707)
(1.40158 -3.23139e-09 0.448281)
(-0.149775 0 1.30189)
(-0.378652 -2.9287e-25 1.26531)
(-0.319967 0 1.26133)
(-0.210494 1.53643e-26 1.41905)
(-0.139944 0 1.57052)
(-0.0605221 0 1.57963)
(-0.0131742 0 0.0130509)
(-0.053725 0 0.0536616)
(-0.114794 0 0.0682932)
(-0.255808 0 0.0516695)
(-0.314333 0 0.0584557)
(0.333492 0 -0.0731375)
(0.406412 0 0.0656447)
(0.585756 0 0.105188)
(0.775156 2.81752e-25 0.183898)
(0.992302 1.03699e-24 0.184733)
(1.32347 -7.25078e-10 0.349943)
(1.55538 1.13839e-09 0.244416)
(1.55282 2.89143e-10 0.242987)
(1.5055 1.90521e-09 0.161565)
(1.5045 3.19834e-10 0.162263)
(1.76506 -4.99835e-09 0.156005)
(1.76561 2.08519e-09 0.156471)
(1.74427 -6.0248e-09 0.132437)
(1.74433 1.61985e-09 0.132062)
(1.56459 3.61477e-09 0.139706)
(1.46643 2.35928e-09 0.340068)
(1.69012 3.84198e-09 0.121258)
(1.63024 2.98047e-09 0.135046)
(1.75031 3.90089e-09 0.148986)
(1.58308 4.70624e-09 0.220398)
(1.47554 -2.44262e-09 0.338794)
(1.56713 -7.213e-10 0.141331)
(1.69024 -3.63094e-09 0.121653)
(1.63127 -2.04091e-09 0.136268)
(1.7501 -4.49095e-09 0.149339)
(1.58423 -3.40354e-09 0.220337)
(1.70742 3.64485e-09 0.0608313)
(1.82483 6.61736e-09 0.0713737)
(1.69472 3.23292e-09 0.0788972)
(1.8158 6.00487e-09 0.0898207)
(1.70898 -2.72416e-09 0.0609011)
(1.82454 -4.18249e-09 0.0714519)
(1.69533 -2.61375e-09 0.0796326)
(1.8154 -4.54482e-09 0.0901128)
(1.35677 2.72698e-08 0.667541)
(1.21379 1.03758e-08 0.606888)
(1.3612 1.77369e-08 0.625102)
(1.22195 3.20079e-09 0.644762)
(1.52692 7.04167e-12 0.385586)
(1.386 -1.15205e-09 0.415749)
(1.46368 1.77599e-09 0.421914)
(1.46593 6.52176e-10 0.379498)
(-0.245246 -6.58529e-24 1.24012)
(0.0320221 -3.58958e-09 1.17348)
(0.422564 2.94529e-10 0.906741)
(0.422654 -5.02772e-10 0.905791)
(0.543683 -1.17806e-09 0.921646)
(0.544123 -2.64719e-10 0.921366)
(0.840346 -1.74064e-09 0.769891)
(0.841463 1.17082e-09 0.768856)
(1.00227 -2.25556e-08 0.72793)
(1.00007 1.88467e-08 0.727135)
(1.35198 -9.32379e-09 0.666938)
(1.22123 -5.63376e-09 0.607053)
(1.35904 2.2428e-09 0.624853)
(1.21617 -3.18037e-09 0.644293)
(1.2814 3.15625e-08 0.7336)
(1.04451 1.21062e-08 0.660477)
(1.19288 2.99071e-08 0.802814)
(1.1388 3.4275e-09 0.674844)
(1.28069 -1.43591e-08 0.734672)
(1.05329 -6.52646e-09 0.664873)
(1.19218 -6.02866e-09 0.801845)
(1.14545 -3.40032e-09 0.679057)
(1.52591 2.94944e-09 0.385633)
(1.39824 1.17238e-09 0.413227)
(1.46652 1.76473e-09 0.420587)
(1.46499 3.64893e-10 0.380397)
(1.5667 5.91666e-10 0.320808)
(1.50914 7.12419e-10 0.328855)
(1.56432 1.01149e-09 0.320819)
(1.50571 -5.6568e-10 0.329163)
(-0.544485 -7.15557e-25 1.17252)
(-0.572431 0 1.08731)
(-0.426829 0 1.08269)
(-0.299959 0 1.24848)
(-0.188495 0 1.45395)
(-0.0881562 0 1.44318)
(-0.018031 0 0.0593496)
(-0.0878596 0 0.105161)
(-0.174932 0 0.15308)
(-0.331472 0 0.104894)
(-0.398841 0 0.0474224)
(0.335489 0 -0.209028)
(0.690481 0 0.00757194)
(0.707809 0 0.057307)
(0.918393 2.5668e-25 0.107635)
(1.18157 -4.38925e-10 0.205125)
(1.42881 1.53313e-09 0.172007)
(1.43374 3.68591e-11 0.173732)
(1.44685 1.79329e-09 0.169529)
(1.44778 7.11007e-11 0.171309)
(1.63825 -5.80427e-09 0.102181)
(1.63468 1.77779e-09 0.0989226)
(1.57353 -5.99245e-09 0.121791)
(1.57356 1.49941e-09 0.119351)
(1.70392 4.21068e-09 -0.0101076)
(1.80818 5.20081e-09 0.000311139)
(1.70231 6.86248e-09 -0.0120407)
(1.80843 6.92381e-09 -0.00839315)
(1.70653 -2.67491e-09 -0.0104696)
(1.80826 -4.31168e-09 0.000272706)
(1.71165 -3.46038e-09 -0.0140314)
(1.81019 -5.0731e-09 -0.00890582)
(1.6282 8.68145e-09 -0.0161569)
(1.72751 6.36821e-09 0.0247114)
(1.67088 6.61577e-09 -0.0207481)
(1.77196 6.76517e-09 -0.0182729)
(1.63479 -3.88475e-09 -0.0172281)
(1.72809 -3.63956e-09 0.0242159)
(1.67943 -3.315e-09 -0.0221211)
(1.77348 -4.4373e-09 -0.0186561)
(1.51106 1.00308e-09 0.209282)
(1.61884 3.31373e-12 0.0592477)
(1.70351 1.01479e-10 0.0529535)
(1.5713 1.91982e-09 0.145643)
(1.72734 -3.66284e-13 0.0353745)
(1.80591 -1.12518e-10 0.0319473)
(1.51686 1.604e-10 0.210465)
(1.62056 -3.98904e-12 0.0608729)
(1.57267 -1.05653e-09 0.145874)
(1.7037 1.80576e-11 0.0534218)
(1.72817 -2.57411e-10 0.0352583)
(1.80587 -7.60186e-10 0.0320199)
(1.76782 6.86955e-12 -0.0266956)
(1.83128 4.65749e-10 -0.0223441)
(1.75702 2.32277e-11 -0.0158567)
(1.82415 4.91466e-10 -0.0101354)
(1.76939 -2.33875e-10 -0.0273735)
(1.83144 -2.71539e-10 -0.0225211)
(1.75755 -1.56273e-10 -0.0159979)
(1.82412 -3.69688e-10 -0.01013)
(1.37739 8.43071e-11 0.551181)
(1.33811 -1.25873e-09 0.476141)
(1.40569 1.85843e-09 0.488151)
(1.31949 6.25337e-10 0.529797)
(1.53616 1.03444e-09 0.284474)
(1.45209 -2.06085e-10 0.307796)
(1.48082 9.98086e-10 0.312646)
(1.51746 3.57852e-10 0.283941)
(-0.67338 0 1.09739)
(-0.417177 -1.1706e-09 1.09691)
(-0.0982239 3.49385e-09 0.787108)
(-0.103904 -5.63656e-10 0.785836)
(0.116671 1.25996e-09 0.759634)
(0.115332 -9.38854e-10 0.758208)
(0.295331 -1.10371e-08 0.850661)
(0.307555 5.11604e-09 0.853294)
(0.499494 -6.83745e-09 0.752908)
(0.506174 3.12736e-09 0.75413)
(0.663469 3.62157e-09 0.530238)
(0.862676 5.84613e-09 0.618801)
(0.772685 2.67774e-09 0.547178)
(0.959386 4.73906e-09 0.602248)
(0.670031 -2.60222e-09 0.538672)
(0.863333 -5.03475e-09 0.620558)
(0.775125 -2.46622e-09 0.551546)
(0.959382 -5.97451e-09 0.603136)
(1.02777 1.10592e-09 0.416767)
(1.08793 1.2881e-10 0.505566)
(1.19674 1.68058e-09 0.472537)
(0.921254 2.421e-09 0.523682)
(1.10951 3.98106e-09 0.565844)
(1.16764 5.56609e-09 0.686699)
(1.02959 -2.45069e-09 0.415553)
(1.09434 -1.8639e-09 0.506162)
(1.19631 -3.83727e-09 0.471277)
(0.922112 -2.22762e-09 0.52536)
(1.10964 -5.93531e-09 0.565081)
(1.16832 -2.58787e-09 0.686045)
(1.37531 3.434e-09 0.550823)
(1.34143 1.0876e-09 0.476979)
(1.40546 1.56179e-09 0.488362)
(1.3158 2.97248e-10 0.529194)
(1.27711 4.77093e-10 0.594285)
(1.20766 5.422e-10 0.529429)
(1.278 2.63167e-09 0.594301)
(1.21321 -3.39735e-10 0.529943)
(1.53484 -1.99685e-10 0.28496)
(1.45906 6.81818e-10 0.307444)
(1.48342 -1.42351e-10 0.3124)
(1.51305 7.65753e-10 0.285099)
(1.59756 8.31306e-10 0.231296)
(1.57747 8.3016e-11 0.238025)
(1.59586 -5.24862e-10 0.231417)
(1.57352 4.05791e-11 0.237798)
(-0.758264 -9.67347e-25 1.01266)
(-0.64031 0 0.883373)
(-0.515455 0 0.891649)
(-0.382202 0 1.08569)
(-0.290137 0 1.2924)
(-0.138102 0 1.23954)
(-0.0292166 0 0.126039)
(-0.127893 0 0.179111)
(-0.239869 0 0.222229)
(-0.488938 0 0.158455)
(-0.552544 0 0.20792)
(0.152736 -1.27046e-25 -0.34476)
(0.954316 -2.21639e-25 -0.0261674)
(0.823749 -1.77151e-25 -0.0260991)
(1.05417 -6.74845e-10 0.043729)
(1.3156 1.4351e-09 0.0776101)