/*--------------------------------*- C++ -*----------------------------------*\
| =========                 |                                                 |
| \\      /  F ield         | OpenFOAM: The Open Source CFD Toolbox           |
|  \\    /   O peration     | Version:  5.x                                   |
|   \\  /    A nd           | Web:      www.OpenFOAM.org                      |
|    \\/     M anipulation  |                                                 |
\*---------------------------------------------------------------------------*/
FoamFile
{
    version     2.0;
    format      ascii;
    class       surfaceVectorField;
    location    "1.6";
    object      Uf;
}
// * * * * * * * * * * * * * * * * * * * * * * * * * * * * * * * * * * * * * //

dimensions      [0 1 -1 0 0 0 0];

internalField   nonuniform List<vector> 
30582
(
(0.192552 0 0.00134577)
(0.19655 0 -0.00102005)
(0.195298 0 0.00295277)
(0.193488 0 -0.00109836)
(0.192279 0 -0.0035305)
(0.196063 0 -0.00192334)
(0.195835 0 0.00386737)
(0.195455 0 -0.000218867)
(0.194928 0 -0.00430451)
(0.192702 0 -0.00215819)
(0.191243 0 -0.000421383)
(0.195178 0 -0.00240071)
(0.19291 0 0.00383006)
(0.194842 0 0.00121249)
(0.195271 0 -0.00291221)
(0.195035 0 -0.000358422)
(0.194256 0 0.00189287)
(0.190894 0 -0.00336345)
(0.189487 0 -0.00555102)
(0.193734 0 -0.00215936)
(0.189104 0 0.00345585)
(0.190348 0 0.00160592)
(0.192477 0 -0.00107354)
(0.194692 0 0.00237055)
(0.195414 0 0.00504206)
(0.193333 0 -0.000829741)
(0.191828 0 -0.00621685)
(0.188278 0 -0.00429993)
(0.187034 0 -0.000683555)
(0.191275 0 -0.000916211)
(0.184593 0 0.00307261)
(0.186626 0 0.00193745)
(0.188791 0 3.41533e-05)
(0.190516 0 0.00316122)
(0.192921 0 0.0067008)
(0.193377 0 0.00340372)
(0.192128 0 -0.00257414)
(0.191344 0 -0.000951769)
(0.190237 0 0.0011874)
(0.183563 0 -0.00558093)
(0.182062 0 -0.00612253)
(0.188103 0 0.00232863)
(0.180133 0 0.00270236)
(0.182081 0 0.00194949)
(0.184519 0 0.000753778)
(0.186853 0 0.00377236)
(0.189495 0 0.00696952)
(0.189831 0 0.00460678)
(0.190563 0 0.00115628)
(0.192078 0 0.00405228)
(0.191872 0 0.00590281)
(0.187071 0 -0.0016175)
(0.183503 0 -0.00861634)
(0.178169 0 -0.00615741)
(0.178146 0 0.00261437)
(0.183421 0 0.00716915)
(0.175892 0 0.00229084)
(0.177763 0 0.00188757)
(0.179994 0 0.00107509)
(0.182113 0 0.00392771)
(0.185005 0 0.00703588)
(0.186605 0 0.00570087)
(0.187955 0 0.00318155)
(0.189439 0 0.00570721)
(0.191222 0 0.00877453)
(0.188851 0 0.00432148)
(0.183962 0 -0.00339064)
(0.183176 0 -0.00180438)
(0.18174 0 0.00100281)
(0.166308 0 -0.00759505)
(0.164992 0 -0.00380343)
(0.146247 0 0.0172452)
(0.173048 0 0.00177102)
(0.174241 0 0.00128862)
(0.175675 0 0.000817824)
(0.177704 0 0.00380965)
(0.180141 0 0.00676948)
(0.181802 0 0.00605413)
(0.184214 0 0.00454274)
(0.187014 0 0.0073077)
(0.189686 0 0.00993276)
(0.1881 0 0.00635557)
(0.185843 0 0.00166003)
(0.186127 0 0.00354159)
(0.184175 0 0.00545307)
(0.172615 0 -0.0027957)
(0.16195 0 -0.0117257)
(0.127811 0 -0.00637807)
(0.103001 0 0.0154441)
(-0.0580039 0 -0.0297606)
(0.172067 0 0.00118799)
(0.172403 0 0.000452338)
(0.172725 0 -9.6567e-05)
(0.173908 0 0.00262476)
(0.175495 0 0.00574248)
(0.177276 0 0.00587746)
(0.179411 0 0.00499572)
(0.181935 0 0.00815386)
(0.18588 0 0.0110393)
(0.187162 0 0.00894207)
(0.186984 0 0.00516169)
(0.187219 0 0.00587442)
(0.187357 0 0.00797053)
(0.17921 0 0.00222249)
(0.165504 0 -0.00623365)
(0.14162 0 -0.004243)
(0.112472 0 0.00166958)
(-0.0368264 0 -0.0101666)
(-0.192672 0 -0.0538951)
(-0.165581 0 0.0456795)
(0.172791 0 0.000716239)
(0.172489 0 -0.00034024)
(0.171642 0 -0.00116136)
(0.171994 0 0.000951663)
(0.172223 0 0.00379247)
(0.173023 0 0.00410706)
(0.174418 0 0.0040592)
(0.176774 0 0.00809955)
(0.180055 0 0.0114291)
(0.18213 0 0.0107007)
(0.184931 0 0.00839098)
(0.18753 0 0.00982373)
(0.189328 0 0.0104596)
(0.184551 0 0.00504284)
(0.175584 0 -0.00109046)
(0.166397 0 -0.0019557)
(0.140014 0 0.000316367)
(-0.0467531 0 -0.015458)
(-0.199153 0 -0.028272)
(0.0200656 0 -0.00757416)
(0.0628659 0 0.0823706)
(-0.0466278 0 0.0209648)
(0.174502 0 0.000575073)
(0.174049 0 -0.000817261)
(0.172632 0 -0.0019784)
(0.172196 0 -0.000804681)
(0.171312 0 0.00146887)
(0.170916 0 0.00137153)
(0.170749 0 0.00150474)
(0.171798 0 0.00576919)
(0.173899 0 0.0100312)
(0.176018 0 0.0108389)
(0.179261 0 0.00992203)
(0.182231 0 0.0131794)
(0.186779 0 0.0144025)
(0.188279 0 0.0109186)
(0.184944 0 0.0052741)
(0.183356 0 0.00109411)
(0.171903 0 0.000656109)
(0.0345512 0 -0.0151737)
(-0.149731 0 -0.0314635)
(-0.146658 0 -0.0355826)
(0.0600342 0 -0.0159063)
(0.147392 0 -0.00644145)
(0.0472245 0 -0.0578649)
(-0.0218761 0 0.00240701)
(0.175882 0 0.000767922)
(0.175872 0 -0.000671331)
(0.174672 0 -0.00215887)
(0.174035 0 -0.00179202)
(0.172392 0 -0.000401057)
(0.171318 0 -0.0013116)
(0.169499 0 -0.00167317)
(0.169433 0 0.00194784)
(0.169444 0 0.00641894)
(0.170106 0 0.00778741)
(0.172201 0 0.00839018)
(0.174847 0 0.013981)
(0.179558 0 0.0172076)
(0.18398 0 0.0163365)
(0.187855 0 0.0131269)
(0.199186 0 0.00966838)
(0.199003 0 0.00647161)
(0.0971742 0 -0.0103396)
(-0.0436168 0 -0.0258859)
(-0.0759189 0 -0.0591573)
(-0.0662551 0 -0.0604661)
(-0.0116748 0 0.0158417)
(0.0697283 0 0.0273696)
(0.00339532 0 -0.0154434)
(-0.0682371 0 0.0373383)
(0.011098 0 0.029222)
(0.175604 0 0.00113678)
(0.176522 0 0.00013768)
(0.176389 0 -0.00136947)
(0.17633 0 -0.00150629)
(0.174874 0 -0.000928229)
(0.173769 0 -0.00297803)
(0.171327 0 -0.0042313)
(0.170125 0 -0.00216955)
(0.168515 0 0.00177403)
(0.16728 0 0.00237643)
(0.166902 0 0.00352702)
(0.16754 0 0.0101882)
(0.170519 0 0.0159556)
(0.175807 0 0.0180034)
(0.182651 0 0.0176469)
(0.202256 0 0.0186113)
(0.216415 0 0.0156933)
(0.167949 0 0.00218979)
(0.0652144 0 -0.0138454)
(-0.0425413 0 -0.0562573)
(-0.0783329 0 -0.084486)
(-0.00704459 0 -0.0541512)
(0.0498165 0 0.0181228)
(0.027575 0 0.0239498)
(-0.0364454 0 -0.0221838)
(-0.0069267 0 -0.0281606)
(0.0706074 0 -0.0224389)
(0.0164338 0 0.00147597)
(0.172245 0 0.001772)
(0.174957 0 0.0016928)
(0.176103 0 0.00058228)
(0.177592 0 0.000278922)
(0.177309 0 0.000306078)
(0.176914 0 -0.00269057)
(0.174863 0 -0.00504501)
(0.173401 0 -0.00466753)
(0.170605 0 -0.00212374)
(0.16828 0 -0.00315062)
(0.165326 0 -0.00297284)
(0.163973 0 0.00310292)
(0.163585 0 0.00994898)
(0.167066 0 0.0133296)
(0.173093 0 0.0157087)
(0.198568 0 0.0222572)
(0.221613 0 0.0220471)
(0.203065 0 0.0163388)
(0.158204 0 0.00407582)
(0.0315271 0 -0.0377492)
(-0.0756403 0 -0.0744052)
(-0.0362488 0 -0.0573933)
(0.0343408 0 -0.0342639)
(0.0354009 0 -0.0477366)
(0.0133623 0 -0.0397516)
(0.0126212 0 0.0036681)
(0.042885 0 0.00383231)
(0.000761253 0 -0.0170713)
(-0.0537066 0 0.000113436)
(0.164857 0 0.00273724)
(0.169654 0 0.00379053)
(0.173033 0 0.003527)
(0.176372 0 0.00324047)
(0.178267 0 0.00319156)
(0.179031 0 -0.000195321)
(0.178399 0 -0.00335649)
(0.177759 0 -0.00441073)
(0.175122 0 -0.00356643)
(0.172686 0 -0.00682585)
(0.168476 0 -0.00850018)
(0.16539 0 -0.00462926)
(0.162051 0 0.00184344)
(0.162879 0 0.00381032)
(0.165146 0 0.00720664)
(0.192111 0 0.0169293)
(0.218884 0 0.021184)
(0.217143 0 0.0234718)
(0.204792 0 0.0180501)
(0.0829667 0 -0.0040289)
(-0.0426913 0 -0.0426357)
(-0.0220359 0 -0.0519006)
(0.020356 0 -0.0435853)
(0.0121927 0 -0.0514929)
(0.0144246 0 -0.0592812)
(0.0169366 0 -0.048177)
(0.0165137 0 -0.00657073)
(0.00890419 0 0.0144064)
(-0.0332892 0 -0.0113899)
(0.153214 0 0.00381993)
(0.160192 0 0.00608)
(0.165935 0 0.00694116)
(0.171349 0 0.00743162)
(0.175396 0 0.00754171)
(0.178518 0 0.00468757)
(0.17963 0 0.00104526)
(0.181235 0 -0.000804528)
(0.1802 0 -0.00153259)
(0.178732 0 -0.00688075)
(0.174816 0 -0.0107401)
(0.171311 0 -0.00985549)
(0.166041 0 -0.00519458)
(0.164642 0 -0.00650211)
(0.163492 0 -0.0048254)
(0.189184 0 0.00457326)
(0.215094 0 0.0123149)
(0.220204 0 0.0186464)
(0.222734 0 0.0194667)
(0.129908 0 0.015487)
(0.0120149 0 -0.00567514)
(0.00123501 0 -0.0279455)
(0.0205062 0 -0.0430225)
(0.0081515 0 -0.0519651)
(0.000884377 0 -0.0538667)
(0.000405935 0 -0.04578)
(0.00323891 0 -0.0389561)
(0.00735932 0 -0.0426748)
(-0.000664888 0 -0.0219311)
(0.137393 0 0.0049059)
(0.14644 0 0.0084106)
(0.154436 0 0.0104874)
(0.162065 0 0.0120849)
(0.168454 0 0.0129853)
(0.174105 0 0.010993)
(0.178013 0 0.00765554)
(0.181859 0 0.00550245)
(0.183859 0 0.00408619)
(0.184023 0 -0.00261601)
(0.182003 0 -0.00837685)
(0.179569 0 -0.0103761)
(0.174202 0 -0.00862486)
(0.171554 0 -0.0137553)
(0.167698 0 -0.0158522)
(0.192136 0 -0.00847651)
(0.215599 0 -0.000996522)
(0.22585 0 0.00434031)
(0.231161 0 0.00913056)
(0.16324 0 0.0148286)
(0.0747634 0 0.0107038)
(0.0467313 0 -0.0124382)
(0.0346536 0 -0.0351865)
(0.00797585 0 -0.0341306)
(-0.00481189 0 -0.0409014)
(-0.00362271 0 -0.0495186)
(-0.00383995 0 -0.0450873)
(-4.2562e-05 0 -0.0427934)
(0.0041679 0 -0.0432977)
(0.117742 0 0.00591073)
(0.128586 0 0.0106334)
(0.1386 0 0.0139708)
(0.148312 0 0.0168292)
(0.156997 0 0.0188468)
(0.165105 0 0.0180677)
(0.171804 0 0.0155587)
(0.178177 0 0.0141785)
(0.182907 0 0.012679)
(0.186212 0 0.00598216)
(0.186778 0 -0.00118759)
(0.187273 0 -0.00498028)
(0.184072 0 -0.00629305)
(0.181563 0 -0.0151766)
(0.176524 0 -0.0213416)
(0.200358 0 -0.0179725)
(0.221911 0 -0.0128902)
(0.241853 0 -0.0114395)
(0.249979 0 -0.0077992)
(0.199724 0 -0.00433669)
(0.135182 0 0.00109011)
(0.08948 0 -0.012542)
(0.0604131 0 -0.0326773)
(0.0253129 0 -0.0239022)
(-0.00244953 0 -0.0251719)
(-0.0078118 0 -0.0351634)
(-0.00672544 0 -0.0439905)
(-0.00218254 0 -0.0482793)
(0.00189577 0 -0.0447307)
(0.0948709 0 0.00677081)
(0.107159 0 0.0125981)
(0.118836 0 0.0171685)
(0.130329 0 0.0213277)
(0.141052 0 0.0246247)
(0.151369 0 0.0253056)
(0.160605 0 0.0239809)
(0.169525 0 0.0239158)
(0.177031 0 0.0231919)
(0.183603 0 0.0171931)
(0.18789 0 0.00988227)
(0.191493 0 0.00542185)
(0.192378 0 0.00238932)
(0.191487 0 -0.00909243)
(0.187849 0 -0.0188222)
(0.211301 0 -0.0206846)
(0.232205 0 -0.0181918)
(0.268801 0 -0.0228911)
(0.285148 0 -0.0240645)
(0.243725 0 -0.0279485)
(0.195443 0 -0.0236562)
(0.132246 0 -0.0321231)
(0.0898322 0 -0.0413321)
(0.045625 0 -0.0258696)
(0.0079218 0 -0.0209474)
(0.00023589 0 -0.0285179)
(-0.00532392 0 -0.0359852)
(-0.00444309 0 -0.0357761)
(7.6908e-05 0 -0.0415163)
(0.0695273 0 0.00745337)
(0.0828626 0 0.0142101)
(0.0957862 0 0.0198986)
(0.10867 0 0.0252947)
(0.121033 0 0.0299161)
(0.13318 0 0.0321604)
(0.144581 0 0.0322684)
(0.155789 0 0.0338237)
(0.165937 0 0.0344571)
(0.175446 0 0.0297092)
(0.183278 0 0.0231625)
(0.190133 0 0.0195593)
(0.194951 0 0.0156933)
(0.197628 0 0.00412469)
(0.197397 0 -0.00813798)
(0.221661 0 -0.01382)
(0.243477 0 -0.0147173)
(0.30078 0 -0.0261673)
(0.332508 0 -0.0331812)
(0.297311 0 -0.0455212)
(0.255388 0 -0.0479883)
(0.171487 0 -0.0560875)
(0.111646 0 -0.0592266)
(0.0640852 0 -0.0421815)
(0.0200515 0 -0.030339)
(0.00946589 0 -0.0313646)
(0.000920728 0 -0.0354498)
(-0.000908492 0 -0.031297)
(-0.00019204 0 -0.0336436)
(0.0425178 0 0.00793899)
(0.056491 0 0.0154164)
(0.0702219 0 0.0220459)
(0.084071 0 0.0285438)
(0.0976183 0 0.0344237)
(0.111142 0 0.0381925)
(0.124222 0 0.0398407)
(0.13729 0 0.0431777)
(0.14969 0 0.0455194)
(0.161701 0 0.0424605)
(0.172564 0 0.0371785)
(0.182521 0 0.0353043)
(0.190746 0 0.0317181)
(0.197642 0 0.0217169)
(0.201427 0 0.00916168)
(0.228167 0 0.00209376)
(0.253076 0 -0.00226358)
(0.327679 0 -0.0185723)
(0.380961 0 -0.0306348)
(0.357744 0 -0.0497337)
(0.317904 0 -0.0604469)
(0.210676 0 -0.0753926)
(0.129384 0 -0.0803128)
(0.0755196 0 -0.0644141)
(0.0285259 0 -0.0483534)
(0.0179308 0 -0.0460891)
(0.00691368 0 -0.0437325)
(0.00295419 0 -0.0340796)
(0.000836935 0 -0.0331408)
(0.0146448 0 0.00821465)
(0.0288567 0 0.0161934)
(0.0429702 0 0.0235522)
(0.0573541 0 0.0309709)
(0.0716179 0 0.0379683)
(0.0860483 0 0.0431222)
(0.100282 0 0.046273)
(0.114694 0 0.0513791)
(0.128784 0 0.0556065)
(0.142767 0 0.0544902)
(0.156111 0 0.050874)
(0.168789 0 0.0512066)
(0.180248 0 0.0491428)
(0.190795 0 0.0407866)
(0.19926 0 0.0304191)
(0.228119 0 0.0228283)
(0.256385 0 0.0178807)
(0.34011 0 0.000425703)
(0.415485 0 -0.0154483)
(0.41386 0 -0.0356654)
(0.383511 0 -0.0525532)
(0.252822 0 -0.0816426)
(0.1465 0 -0.0974787)
(0.0818198 0 -0.0835716)
(0.029349 0 -0.0662888)
(0.0204485 0 -0.0648004)
(0.00985881 0 -0.0593679)
(0.00614017 0 -0.0474471)
(0.00209966 0 -0.0411325)
(-0.0133134 0 0.00827636)
(0.000754361 0 0.0165355)
(0.0148452 0 0.0243997)
(0.0293502 0 0.0325333)
(0.0438856 0 0.0404602)
(0.0587676 0 0.0467999)
(0.0736443 0 0.0513144)
(0.08888 0 0.058058)
(0.104067 0 0.0641514)
(0.119411 0 0.0649939)
(0.134528 0 0.0632756)
(0.149332 0 0.0661695)
(0.16353 0 0.0664159)
(0.177046 0 0.0600937)
(0.189231 0 0.0526862)
(0.220163 0 0.0460243)
(0.251075 0 0.0419037)
(0.337711 0 0.0255527)
(0.424794 0 0.00960749)
(0.449969 0 -0.00426639)
(0.444588 0 -0.022899)
(0.298432 0 -0.065905)
(0.166255 0 -0.0981303)
(0.0843077 0 -0.0912506)
(0.022402 0 -0.0769873)
(0.0169836 0 -0.0802521)
(0.00838062 0 -0.0752559)
(0.00627973 0 -0.0641066)
(0.00253169 0 -0.0555949)
(-0.0406326 0 0.00812683)
(-0.0270719 0 0.0164465)
(-0.0133702 0 0.0245893)
(0.000865699 0 0.033223)
(0.0152542 0 0.0418682)
(0.0301618 0 0.0491674)
(0.0452138 0 0.0548471)
(0.0607857 0 0.0630274)
(0.0765102 0 0.0708368)
(0.0926322 0 0.0735086)
(0.10883 0 0.0736813)
(0.125036 0 0.0791488)
(0.141116 0 0.0821497)
(0.156865 0 0.0782985)
(0.17215 0 0.0737101)
(0.204416 0 0.0691735)
(0.237402 0 0.0659804)
(0.323465 0 0.0531645)
(0.41376 0 0.039719)
(0.458932 0 0.0312131)
(0.487116 0 0.0164721)
(0.340316 0 -0.0257012)
(0.190786 0 -0.0706401)
(0.0876563 0 -0.0780507)
(0.00884597 0 -0.0733527)
(0.0070719 0 -0.0846573)
(0.0021776 0 -0.0839238)
(0.00337158 0 -0.0772881)
(0.00130628 0 -0.0697072)
(-0.0666377 0 0.00777307)
(-0.0539201 0 0.015936)
(-0.0409495 0 0.0241319)
(-0.0273495 0 0.0330494)
(-0.0134809 0 0.042193)
(0.00105551 0 0.050218)
(0.0158542 0 0.0568388)
(0.0313188 0 0.0662247)
(0.047085 0 0.0755253)
(0.0634634 0 0.0798225)
(0.0801253 0 0.0817454)
(0.0970837 0 0.0896035)
(0.114239 0 0.0953483)
(0.131304 0 0.0939534)
(0.148471 0 0.0921893)
(0.18158 0 0.091112)
(0.215928 0 0.0882139)
(0.299483 0 0.0805889)
(0.388981 0 0.070037)
(0.445054 0 0.0661051)
(0.496015 0 0.0547032)
(0.366399 0 0.0266477)
(0.218856 0 -0.0170233)
(0.096366 0 -0.039849)
(-0.00550706 0 -0.0504557)
(-0.00697321 0 -0.0709442)
(-0.00790373 0 -0.0780233)
(-0.00293485 0 -0.079754)
(-0.00162134 0 -0.0767101)
(-0.0907162 0 0.00722979)
(-0.0791435 0 0.0150204)
(-0.0672151 0 0.023047)
(-0.0545891 0 0.0320315)
(-0.0415864 0 0.0414526)
(-0.027793 0 0.0499693)
(-0.0136258 0 0.0573003)
(0.00132813 0 0.0676536)
(0.0166938 0 0.0781897)
(0.0328696 0 0.083881)
(0.0494702 0 0.0873466)
(0.0666266 0 0.0973198)
(0.0841853 0 0.105627)
(0.101839 0 0.106454)
(0.119934 0 0.107391)
(0.152758 0 0.109672)
(0.18758 0 0.107708)
(0.266937 0 0.106452)
(0.353298 0 0.0984576)
(0.41332 0 0.0995574)
(0.474413 0 0.0916533)
(0.369469 0 0.0773859)
(0.240808 0 0.0454068)
(0.110767 0 0.0153855)
(-0.0133723 0 -0.00825168)
(-0.0189947 0 -0.0358846)
(-0.019789 0 -0.0527757)
(-0.0115151 0 -0.0650597)
(-0.00601149 0 -0.069965)
(-0.112331 0 0.00651922)
(-0.10217 0 0.0137249)
(-0.0915505 0 0.0213634)
(-0.0801995 0 0.030201)
(-0.0683761 0 0.0396776)
(-0.0556719 0 0.0484483)
(-0.0424871 0 0.056259)
(-0.0284204 0 0.0673442)
(-0.0138378 0 0.078849)
(0.00172437 0 0.0857109)
(0.0178145 0 0.0904948)
(0.0346992 0 0.102272)
(0.0521054 0 0.112911)
(0.0697799 0 0.11563)
(0.0880779 0 0.118919)
(0.119374 0 0.124316)
(0.153464 0 0.123867)
(0.226483 0 0.128464)
(0.3074 0 0.124035)
(0.368138 0 0.131288)
(0.431268 0 0.127506)
(0.351139 0 0.122493)
(0.247487 0 0.103059)
(0.120492 0 0.0738982)
(-0.0123419 0 0.0465942)
(-0.0233756 0 0.014857)
(-0.0291433 0 -0.0100642)
(-0.0197962 0 -0.0311699)
(-0.0111287 0 -0.0454758)
(-0.13103 0 0.00566158)
(-0.122493 0 0.0120866)
(-0.113408 0 0.0191233)
(-0.103597 0 0.0276041)
(-0.0932197 0 0.0369164)
(-0.081916 0 0.0456987)
(-0.070036 0 0.0537542)
(-0.0572096 0 0.0653305)
(-0.043766 0 0.0775386)
(-0.0291997 0 0.0853611)
(-0.0140119 0 0.0912813)
(0.00220596 0 0.104534)
(0.0190064 0 0.11721)
(0.0362861 0 0.121502)
(0.0542602 0 0.126606)
(0.0827676 0 0.134932)
(0.114875 0 0.136269)
(0.179188 0 0.145952)
(0.252616 0 0.145415)
(0.311598 0 0.158641)
(0.372995 0 0.160187)
(0.315759 0 0.162821)
(0.236075 0 0.154998)
(0.121199 0 0.128559)
(-0.00761448 0 0.103678)
(-0.0223592 0 0.0714295)
(-0.034305 0 0.0428524)
(-0.0250948 0 0.0175051)
(-0.0159022 0 -0.00481107)
(-0.146467 0 0.0046799)
(-0.139702 0 0.010157)
(-0.13232 0 0.016395)
(-0.124262 0 0.0243106)
(-0.115554 0 0.0332424)
(-0.105923 0 0.0417862)
(-0.0956259 0 0.0498463)
(-0.0843607 0 0.061662)
(-0.0723872 0 0.0743075)
(-0.0591801 0 0.0828694)
(-0.0452547 0 0.089775)
(-0.0300934 0 0.10417)
(-0.0142462 0 0.118387)
(0.00258801 0 0.124201)
(0.0198366 0 0.130587)
(0.0440999 0 0.141501)
(0.0730557 0 0.144831)
(0.126552 0 0.158802)
(0.190718 0 0.162017)
(0.24566 0 0.180658)
(0.303363 0 0.187608)
(0.26729 0 0.196996)
(0.209405 0 0.200826)
(0.112817 0 0.177253)
(-0.00330817 0 0.156005)
(-0.0191802 0 0.12627)
(-0.0347281 0 0.098094)
(-0.0268788 0 0.0716504)
(-0.018261 0 0.0455266)
(-0.158416 0 0.00361413)
(-0.153501 0 0.00800301)
(-0.147922 0 0.0132728)
(-0.141767 0 0.0204226)
(-0.134896 0 0.0287614)
(-0.127149 0 0.0368127)
(-0.118665 0 0.0446299)
(-0.109247 0 0.0564157)
(-0.0990325 0 0.0692261)
(-0.0875241 0 0.0782835)
(-0.0752038 0 0.0859782)
(-0.0614718 0 0.101222)
(-0.0469555 0 0.116388)
(-0.0307073 0 0.123861)
(-0.0142537 0 0.131624)
(0.00488002 0 0.144363)
(0.0291282 0 0.149794)
(0.0700046 0 0.167022)
(0.123065 0 0.173815)
(0.172914 0 0.197417)
(0.226125 0 0.209249)
(0.209447 0 0.223965)
(0.171801 0 0.23776)
(0.0970571 0 0.21771)
(-0.000372001 0 0.200871)
(-0.0154702 0 0.175664)
(-0.0320521 0 0.14989)
(-0.0259534 0 0.124848)
(-0.0187231 0 0.0983252)
(-0.166791 0 0.00249787)
(-0.163699 0 0.00570987)
(-0.159967 0 0.00986642)
(-0.155796 0 0.0160702)
(-0.150862 0 0.0236176)
(-0.145136 0 0.0309278)
(-0.13863 0 0.0382512)
(-0.131287 0 0.0497173)
(-0.123077 0 0.0624057)
(-0.113577 0 0.0716831)
(-0.103172 0 0.0799204)
(-0.0912357 0 0.0957307)
(-0.0784273 0 0.111444)
(-0.0634847 0 0.120508)
(-0.0479421 0 0.130125)
(-0.0341362 0 0.144142)
(-0.0153732 0 0.151381)
(0.0101218 0 0.170683)
(0.0502975 0 0.180502)
(0.0955533 0 0.209298)
(0.14386 0 0.225375)
(0.145189 0 0.244371)
(0.126239 0 0.265979)
(0.0760952 0 0.249511)
(0.00071219 0 0.237338)
(-0.0120528 0 0.217112)
(-0.0275992 0 0.194942)
(-0.023285 0 0.173254)
(-0.0177736 0 0.148437)
(-0.171572 0 0.00140723)
(-0.170309 0 0.00331808)
(-0.168321 0 0.00627814)
(-0.166162 0 0.011405)
(-0.163199 0 0.0179929)
(-0.159541 0 0.0243328)
(-0.155094 0 0.0309184)
(-0.149976 0 0.0417608)
(-0.14395 0 0.0540265)
(-0.136708 0 0.0632088)
(-0.128491 0 0.0717046)
(-0.118693 0 0.08776)
(-0.107923 0 0.103774)
(-0.0949286 0 0.114131)
(-0.0809629 0 0.125561)
(-0.0724335 0 0.140743)
(-0.0594739 0 0.149667)
(-0.0501124 0 0.170691)
(-0.0249259 0 0.182494)
(0.0124381 0 0.215173)
(0.056737 0 0.235735)
(0.0755399 0 0.259914)
(0.0756687 0 0.287928)
(0.0515812 0 0.273235)
(0.000240936 0 0.265269)
(-0.0093863 0 0.249776)
(-0.0223614 0 0.2317)
(-0.0196035 0 0.214227)
(-0.0157212 0 0.192612)
(-0.172867 0 0.000446918)
(-0.173319 0 0.000914762)
(-0.173019 0 0.00259694)
(-0.172828 0 0.00657875)
(-0.171805 0 0.0120933)
(-0.170157 0 0.0172722)
(-0.167763 0 0.0228939)
(-0.164929 0 0.0328179)
(-0.161172 0 0.0443601)
(-0.156346 0 0.053093)
(-0.15052 0 0.0615166)
(-0.143156 0 0.077448)
(-0.134732 0 0.0934871)
(-0.124105 0 0.104783)
(-0.112327 0 0.11753)
(-0.108539 0 0.133696)
(-0.101126 0 0.144533)
(-0.105961 0 0.166268)
(-0.0968219 0 0.179791)
(-0.0693846 0 0.213973)
(-0.0321228 0 0.238355)
(0.00706908 0 0.267727)
(0.0264452 0 0.300851)
(0.0236839 0 0.288511)
(-0.000889171 0 0.283435)
(-0.00714079 0 0.27388)
(-0.0169766 0 0.259861)
(-0.0155103 0 0.246756)
(-0.0130097 0 0.229048)
(-0.17099 0 -0.00047644)
(-0.173035 0 -0.00135034)
(-0.174312 0 -0.00103539)
(-0.175884 0 0.00182783)
(-0.176742 0 0.0061594)
(-0.176921 0 0.0100056)
(-0.176478 0 0.014468)
(-0.17592 0 0.023214)
(-0.174427 0 0.0337623)
(-0.172043 0 0.0416952)
(-0.168686 0 0.0496746)
(-0.16396 0 0.0650459)
(-0.158144 0 0.0807483)
(-0.150249 0 0.0925809)
(-0.141073 0 0.106111)
(-0.141739 0 0.123036)
(-0.139368 0 0.135932)
(-0.15742 0 0.157552)
(-0.162714 0 0.17226)
(-0.146108 0 0.206647)
(-0.118682 0 0.233287)
(-0.0540263 0 0.266083)
(-0.0156066 0 0.30423)
(0.000279433 0 0.292599)
(-0.00144706 0 0.291919)
(-0.00491195 0 0.288836)
(-0.0113377 0 0.279177)
(-0.011225 0 0.270662)
(-0.00999799 0 0.257077)
(-0.166398 0 -0.00139973)
(-0.169787 0 -0.00336087)
(-0.172554 0 -0.00436781)
(-0.175486 0 -0.00261483)
(-0.178007 0 0.00044695)
(-0.179898 0 0.002721)
(-0.181182 0 0.00591503)
(-0.18288 0 0.0132699)
(-0.183596 0 0.0226151)
(-0.183539 0 0.0294645)
(-0.182593 0 0.0366311)
(-0.180557 0 0.0510091)
(-0.177445 0 0.0659596)
(-0.172547 0 0.0777458)
(-0.16636 0 0.0915647)
(-0.171348 0 0.108925)
(-0.1737 0 0.124067)
(-0.203831 0 0.144836)
(-0.222476 0 0.160525)
(-0.216806 0 0.194832)
(-0.199535 0 0.222283)
(-0.12605 0 0.256193)
(-0.063055 0 0.298209)
(-0.0193833 0 0.294647)
(-0.0046105 0 0.295084)
(-0.00271228 0 0.29447)
(-0.00584907 0 0.28928)
(-0.00686825 0 0.285647)
(-0.00681915 0 0.276453)
(-0.159484 0 -0.0022252)
(-0.163901 0 -0.00515195)
(-0.167825 0 -0.0072755)
(-0.171976 0 -0.00682171)
(-0.175641 0 -0.00491938)
(-0.179327 0 -0.00431622)
(-0.182152 0 -0.00249)
(-0.185859 0 0.00340665)
(-0.188738 0 0.0113275)
(-0.190729 0 0.0168388)
(-0.192051 0 0.0228664)
(-0.192658 0 0.0359127)
(-0.192177 0 0.0498149)
(-0.190261 0 0.0608761)
(-0.187174 0 0.0741964)
(-0.196679 0 0.0914408)
(-0.203615 0 0.109124)
(-0.244558 0 0.128262)
(-0.275567 0 0.144735)
(-0.281478 0 0.178548)
(-0.274854 0 0.206144)
(-0.191302 0 0.241816)
(-0.116489 0 0.28326)
(-0.0491092 0 0.288937)
(-0.00684556 0 0.294861)
(-0.00308508 0 0.295993)
(-0.00158012 0 0.292876)
(-0.00295985 0 0.291945)
(-0.00378503 0 0.287184)
(-0.150666 0 -0.00296438)
(-0.155862 0 -0.00668823)
(-0.160669 0 -0.00977791)
(-0.165808 0 -0.0104841)
(-0.170532 0 -0.00981658)
(-0.175543 0 -0.0105613)
(-0.180026 0 -0.0103429)
(-0.185 0 -0.00584575)
(-0.189764 0 0.00040317)
(-0.193586 0 0.00413101)
(-0.196894 0 0.00876088)
(-0.200222 0 0.0201995)
(-0.202274 0 0.0330127)
(-0.203079 0 0.0427956)
(-0.202827 0 0.0544914)
(-0.217043 0 0.0713601)
(-0.228683 0 0.0913505)
(-0.279241 0 0.107935)
(-0.32157 0 0.12514)
(-0.338898 0 0.157997)
(-0.344033 0 0.18543)
(-0.251774 0 0.222475)
(-0.167286 0 0.263111)
(-0.0761799 0 0.273504)
(-0.00783454 0 0.28658)
(-0.000281102 0 0.289542)
(0.00358559 0 0.290511)
(0.000362288 0 0.292882)
(-0.00114584 0 0.290716)
(-0.140272 0 -0.00361108)
(-0.146169 0 -0.00802505)
(-0.151556 0 -0.0119096)
(-0.157421 0 -0.013601)
(-0.162975 0 -0.0140826)
(-0.168965 0 -0.0161148)
(-0.174559 0 -0.0173264)
(-0.180688 0 -0.0145628)
(-0.186463 0 -0.00978068)
(-0.192323 0 -0.00821939)
(-0.197224 0 -0.00521427)
(-0.203141 0 0.00436455)
(-0.207957 0 0.0162086)
(-0.210947 0 0.024144)
(-0.213366 0 0.0331491)
(-0.232125 0 0.0499805)
(-0.248334 0 0.0709996)
(-0.307764 0 0.084521)
(-0.360343 0 0.102334)
(-0.388554 0 0.133448)
(-0.405905 0 0.160398)
(-0.306208 0 0.197988)
(-0.213402 0 0.236966)
(-0.101179 0 0.251758)
(-0.00975007 0 0.26876)
(0.00148577 0 0.274698)
(0.00924709 0 0.27989)
(0.00502455 0 0.286072)
(0.00197125 0 0.287531)
(-0.135054 0 -0.00915957)
(-0.128618 0 -0.00409032)
(-0.140941 0 -0.0137346)
(-0.147335 0 -0.0162205)
(-0.153414 0 -0.0176827)
(-0.160112 0 -0.0208538)
(-0.166505 0 -0.0233491)
(-0.173497 0 -0.0221158)
(-0.180201 0 -0.0189399)
(-0.187361 0 -0.0191468)
(-0.194108 0 -0.0182773)
(-0.201385 0 -0.0104604)
(-0.208578 0 -0.00029072)
(-0.213952 0 0.00480328)
(-0.218324 0 0.0111373)
(-0.241843 0 0.0275848)
(-0.262617 0 0.0484945)
(-0.330237 0 0.0597181)
(-0.392164 0 0.0768968)
(-0.430311 0 0.105833)
(-0.459697 0 0.131811)
(-0.352838 0 0.168841)
(-0.253032 0 0.204171)
(-0.123108 0 0.223603)
(-0.010908 0 0.243852)
(0.00335729 0 0.252492)
(0.0148613 0 0.261379)
(0.00938262 0 0.271195)
(0.00522614 0 0.276557)
(-0.13589 0 -0.0183795)
(-0.12921 0 -0.0151344)
(-0.114977 0 -0.0103975)
(-0.0984816 0 -0.00470163)
(-0.14231 0 -0.020631)
(-0.149511 0 -0.0247932)
(-0.156407 0 -0.0284053)
(-0.164002 0 -0.0285136)
(-0.17136 0 -0.0268412)
(-0.179305 0 -0.0287034)
(-0.187025 0 -0.0297827)
(-0.195448 0 -0.0243314)
(-0.20365 0 -0.0159182)
(-0.211964 0 -0.0140041)
(-0.218921 0 -0.0103333)
(-0.246268 0 0.00522489)
(-0.271537 0 0.0245281)
(-0.346699 0 0.0337753)
(-0.417274 0 0.0490258)
(-0.46382 0 0.0768365)
(-0.50461 0 0.101299)
(-0.389783 0 0.135913)
(-0.283517 0 0.166055)
(-0.140101 0 0.1889)
(-0.010143 0 0.212123)
(0.00599529 0 0.223108)
(0.0205569 0 0.235522)
(0.013824 0 0.248874)
(0.00853573 0 0.257864)
(-0.137473 0 -0.0279125)
(-0.130181 0 -0.0228981)
(-0.115535 0 -0.0208784)
(-0.0988315 0 -0.0166397)
(-0.0860109 0 -0.0107876)
(-0.0695332 0 -0.00495389)
(-0.144717 0 -0.032494)
(-0.152718 0 -0.0338189)
(-0.160489 0 -0.0334831)
(-0.168903 0 -0.0367592)
(-0.177142 0 -0.0395406)
(-0.186249 0 -0.0360674)
(-0.195184 0 -0.0296633)
(-0.205341 0 -0.0305285)
(-0.214669 0 -0.0301638)
(-0.245395 0 -0.0170624)
(-0.274602 0 0.000755312)
(-0.356439 0 0.00738999)
(-0.434996 0 0.0193545)
(-0.487232 0 0.0460742)
(-0.538082 0 0.0698778)
(-0.414731 0 0.0996554)
(-0.301189 0 0.124768)
(-0.150194 0 0.147749)
(-0.00681355 0 0.17331)
(0.00987776 0 0.186709)
(0.0264776 0 0.202472)
(0.0183618 0 0.219281)
(0.0118505 0 0.231851)
(-0.139904 0 -0.0379867)
(-0.131899 0 -0.035559)
(-0.116353 0 -0.0316212)
(-0.0990435 0 -0.0255144)
(-0.0860599 0 -0.0215025)
(-0.0700778 0 -0.0166078)
(-0.0547862 0 -0.0106205)
(-0.0431439 0 -0.00609252)
(-0.147976 0 -0.0388698)
(-0.156677 0 -0.0434794)
(-0.165226 0 -0.0477)
(-0.174779 0 -0.045798)
(-0.184034 0 -0.0411573)
(-0.195426 0 -0.0443755)
(-0.205968 0 -0.0472262)
(-0.239706 0 -0.036897)
(-0.271771 0 -0.0204971)
(-0.357683 0 -0.0190985)
(-0.442894 0 -0.0105701)
(-0.49629 0 0.0129698)
(-0.553976 0 0.0368007)
(-0.424634 0 0.0571048)
(-0.302348 0 0.0778384)
(-0.151724 0 0.100446)
(-0.00063944 0 0.127078)
(0.015294 0 0.143614)
(0.0325202 0 0.162364)
(0.0229094 0 0.182734)
(0.0150983 0 0.1988)
(-0.142782 0 -0.0487742)
(-0.134251 0 -0.0428854)
(-0.117531 0 -0.0427854)
(-0.0995406 0 -0.038802)
(-0.0860596 0 -0.0323969)
(-0.0698086 0 -0.0252789)
(-0.0554369 0 -0.0206588)
(-0.045135 0 -0.018556)
(-0.0371182 0 -0.0136718)
(-0.0116932 0 -0.00830969)
(-0.151616 0 -0.0543636)
(-0.161531 0 -0.0539872)
(-0.171127 0 -0.0507474)
(-0.183653 0 -0.0555883)
(-0.194894 0 -0.0609787)
(-0.230878 0 -0.052627)
(-0.264817 0 -0.0379741)
(-0.348864 0 -0.0419868)
(-0.4364 0 -0.038222)
(-0.48545 0 -0.0237687)
(-0.542432 0 -0.000695731)
(-0.415628 0 0.00481491)
(-0.286357 0 0.0196287)
(-0.143877 0 0.0460074)
(0.00861018 0 0.0731381)
(0.0219452 0 0.0941408)
(0.0384224 0 0.115583)
(0.0273254 0 0.139662)
(0.0181166 0 0.159138)
(-0.146362 0 -0.0606177)
(-0.136547 0 -0.0592333)
(-0.118622 0 -0.0546765)
(-0.0997847 0 -0.0468683)
(-0.0858178 0 -0.0433047)
(-0.0702695 0 -0.0378255)
(-0.0561059 0 -0.0305935)
(-0.0451236 0 -0.0273826)
(-0.0384219 0 -0.0252753)
(-0.0184423 0 -0.0227575)
(0.00716746 0 -0.0169993)
(0.0245152 0 -0.0154039)
(-0.156581 0 -0.0587459)
(-0.170423 0 -0.0652178)
(-0.182766 0 -0.0723634)
(-0.220565 0 -0.0647872)
(-0.255857 0 -0.0517382)
(-0.329823 0 -0.0593031)
(-0.41296 0 -0.0608171)
(-0.452279 0 -0.059144)
(-0.499733 0 -0.0423715)
(-0.386115 0 -0.0544758)
(-0.25802 0 -0.0519245)
(-0.12764 0 -0.0152027)
(0.0186469 0 0.0133776)
(0.0287829 0 0.0390423)
(0.0432588 0 0.0633047)
(0.0312237 0 0.0908441)
(0.0206945 0 0.113528)
(-0.155125 0 -0.0735571)
(-0.140118 0 -0.0645287)
(-0.120063 0 -0.0675232)
(-0.099312 0 -0.0633306)
(-0.0848134 0 -0.0545515)
(-0.0696037 0 -0.0448703)
(-0.0565615 0 -0.0399233)
(-0.0470873 0 -0.0386914)
(-0.0396075 0 -0.0352859)
(-0.0220953 0 -0.0317682)
(-0.00123354 0 -0.0293405)
(0.00784474 0 -0.0391087)
(0.0238186 0 -0.0358812)
(0.0952746 0 -0.0202055)
(-0.169432 0 -0.0825038)
(-0.208923 0 -0.0755124)
(-0.245982 0 -0.063208)
(-0.304892 0 -0.0722778)
(-0.376503 0 -0.0775917)
(-0.404944 0 -0.0864686)
(-0.439043 0 -0.0804827)
(-0.342347 0 -0.103567)
(-0.226259 0 -0.120167)
(-0.109672 0 -0.0773173)
(0.0237626 0 -0.0444089)
(0.0339734 0 -0.0188162)
(0.0451462 0 0.00793798)
(0.0337692 0 0.0377328)
(0.0225243 0 0.0631719)
(-0.195175 0 -0.0857157)
(-0.153963 0 -0.0899551)
(-0.12863 0 -0.0813238)
(-0.100118 0 -0.0684457)
(-0.0841658 0 -0.0662558)
(-0.0679038 0 -0.059443)
(-0.0555684 0 -0.0489816)
(-0.0470959 0 -0.0434321)
(-0.0409069 0 -0.0424678)
(-0.0305661 0 -0.0415383)
(-0.0114605 0 -0.037673)
(-0.00434731 0 -0.0549689)
(0.00372562 0 -0.063092)
(0.0615062 0 -0.0644203)
(0.131109 0 -0.0469839)
(0.181058 0 -0.0364993)
(-0.234627 0 -0.0741325)
(-0.278538 0 -0.0842792)
(-0.334695 0 -0.091406)
(-0.357426 0 -0.10399)
(-0.381457 0 -0.107776)
(-0.295512 0 -0.129377)
(-0.196834 0 -0.160768)
(-0.0975594 0 -0.125105)
(0.0186268 0 -0.0909393)
(0.0321774 0 -0.0736235)
(0.0433848 0 -0.0465564)
(0.0338472 0 -0.0175716)
(0.0231886 0 0.0103254)
(-0.25315 0 -0.0973279)
(-0.219853 0 -0.0823361)
(-0.166737 0 -0.0940323)
(-0.117127 0 -0.094267)
(-0.0938935 0 -0.0781927)
(-0.0680858 0 -0.0621012)
(-0.0549893 0 -0.0578879)
(-0.045774 0 -0.054126)
(-0.0402693 0 -0.0476792)
(-0.0351076 0 -0.0434142)
(-0.0226211 0 -0.0425634)
(-0.0201496 0 -0.0628583)
(-0.0145106 0 -0.0778815)
(0.024818 0 -0.0875353)
(0.0825408 0 -0.0865142)
(0.133681 0 -0.0892653)
(0.186158 0 -0.0749498)
(0.307772 0 -0.0255238)
(-0.292946 0 -0.106183)
(-0.31666 0 -0.116511)
(-0.335416 0 -0.124428)
(-0.254871 0 -0.138914)
(-0.168061 0 -0.171763)
(-0.0896041 0 -0.150816)
(0.00660823 0 -0.122986)
(0.022774 0 -0.116307)
(0.0357424 0 -0.0944087)
(0.0301771 0 -0.0681271)
(0.0210884 0 -0.041169)
(-0.280618 0 -0.124706)
(-0.258113 0 -0.121714)
(-0.200216 0 -0.113058)
(-0.164708 0 -0.0879938)
(-0.121726 0 -0.0893185)
(-0.0872709 0 -0.0861185)
(-0.0649831 0 -0.066378)
(-0.0469903 0 -0.0527753)