/*--------------------------------*- C++ -*----------------------------------*\
| =========                 |                                                 |
| \\      /  F ield         | OpenFOAM: The Open Source CFD Toolbox           |
|  \\    /   O peration     | Version:  5.x                                   |
|   \\  /    A nd           | Web:      www.OpenFOAM.org                      |
|    \\/     M anipulation  |                                                 |
\*---------------------------------------------------------------------------*/
FoamFile
{
    version     2.0;
    format      ascii;
    class       surfaceScalarField;
    location    "1.8";
    object      alphaPhi10;
}
// * * * * * * * * * * * * * * * * * * * * * * * * * * * * * * * * * * * * * //

dimensions      [0 3 -1 0 0 0 0];

internalField   nonuniform List<scalar> 
30582
(
0.000238839
-4.41957e-06
0.000243612
-4.77317e-06
0.00023855
-8.52169e-06
0.000245187
-1.57441e-06
0.000243185
-9.40763e-06
0.000237381
-1.1391e-05
0.000242203
2.98388e-06
0.000244602
-2.99166e-06
0.000242398
-1.44245e-05
0.00023544
-1.22289e-05
0.00023807
4.13324e-06
0.000241461
6.12478e-06
0.000244423
-5.01724e-06
0.000239573
-1.85581e-05
0.000232678
-1.01878e-05
0.000233025
5.04455e-06
0.000237512
8.08196e-06
0.000241818
8.72949e-06
0.000240336
-5.77965e-06
0.000237557
-2.34365e-05
0.000226959
-2.27235e-06
0.000227208
5.81689e-06
0.000233005
9.55224e-06
0.000238366
1.15346e-05
0.000238061
1.10043e-05
0.0002393
-7.52307e-06
0.000229605
-2.60832e-05
0.000222691
1.00926e-05
0.00021932
7.88839e-06
0.000227453
1.13682e-05
0.000233968
1.39499e-05
0.000235679
1.39168e-05
0.000238204
1.21007e-05
0.000228811
-6.72865e-06
0.00022755
-3.0941e-05
0.000205992
3.93645e-05
0.000209804
9.51553e-06
0.000219723
1.56192e-05
0.000228564
1.67719e-05
0.000232986
1.66423e-05
0.000237344
1.47764e-05
0.000229679
1.12329e-05
0.000228575
-7.75293e-06
0.000201469
-2.31475e-05
7.08646e-05
-8.03814e-06
0.000199381
1.04232e-05
0.000210132
1.91066e-05
0.000220892
2.32916e-05
0.000228797
2.09612e-05
0.000235573
1.84137e-05
0.000232268
1.21868e-05
0.00023041
9.39812e-06
0.000202377
-7.16407e-06
8.04496e-05
-2.65782e-06
-5.36643e-06
1.05365e-07
0.000189209
1.01724e-05
0.000199517
2.10376e-05
0.000210907
2.90913e-05
0.000221623
3.04658e-05
0.000231615
2.49186e-05
0.000234136
1.65466e-05
0.000234148
8.44841e-06
0.000210404
1.36766e-06
9.78615e-05
-2.9426e-06
-6.66461e-06
1.12282e-08
1.39513e-07
-2.88545e-11
0.000180197
9.01129e-06
0.000189166
2.05238e-05
0.000199732
3.22127e-05
0.000211342
3.93721e-05
0.000224068
3.80125e-05
0.000232559
2.64951e-05
0.000236845
1.38482e-05
0.000221922
-3.21281e-06
0.000121364
-2.89887e-06
-6.84449e-06
-7.78368e-09
6.53054e-09
3.75589e-11
7.21851e-10
-2.06334e-12
0.000172618
7.5795e-06
0.000180045
1.8132e-05
0.000188898
3.13581e-05
0.000199522
4.40329e-05
0.000212892
5.05489e-05
0.000225898
4.46735e-05
0.000235703
2.7635e-05
0.000232709
2.43112e-06
0.000145118
-4.2692e-06
-5.81553e-06
-1.80172e-08
-3.41785e-09
1.24277e-11
2.71792e-11
-2.28951e-17
-2.11084e-16
6.27047e-16
0.000166061
6.55656e-06
0.000172466
1.51583e-05
0.000179638
2.73918e-05
0.000188075
4.28046e-05
0.000199835
5.70902e-05
0.000214179
6.2268e-05
0.000228938
5.1434e-05
0.000237876
2.12302e-05
0.000170301
-4.57099e-06
-2.53903e-06
-5.28159e-08
-7.02716e-09
-9.3149e-12
2.78853e-12
3.54717e-14
-2.09182e-15
-3.13256e-17
2.01638e-16
-6.59778e-22
0.000159635
6.42658e-06
0.000165957
1.30657e-05
0.000172428
2.23678e-05
0.000178454
3.70129e-05
0.000187298
5.5341e-05
0.0001997
7.15693e-05
0.000215821
7.53797e-05
0.000234598
5.2331e-05
0.000188594
-4.96149e-07
4.45317e-06
-1.0222e-07
-1.43116e-08
-4.1235e-11
2.10637e-12
-8.81403e-16
2.41613e-16
9.73316e-19
1.64113e-18
-5.51821e-26
-4.79517e-26
0.000151681
7.95406e-06
0.000159646
1.27376e-05
0.000166654
1.884e-05
0.000171196
2.96265e-05
0.000177271
4.70404e-05
0.000185755
6.92856e-05
0.000199108
8.82765e-05
0.000221978
8.41134e-05
0.000196306
1.49871e-05
1.4897e-05
-1.49685e-07
-2.48158e-08
-1.11884e-10
5.73474e-12
-7.74361e-15
9.58551e-17
-3.07132e-20
4.97672e-21
7.33179e-23
-1.652e-24
0.000141096
1.05847e-05
0.000152137
1.54632e-05
0.000160979
1.84123e-05
0.00016578
2.42555e-05
0.000170683
3.62144e-05
0.000174933
5.78622e-05
0.000183135
8.52551e-05
0.000203968
0.00010151
0.000192494
3.08305e-05
2.37667e-05
-8.53732e-08
-2.87661e-08
-2.45037e-10
9.25074e-12
-2.62948e-14
4.46705e-16
-2.46032e-19
2.05889e-21
-4.79792e-25
-2.66116e-26
0.000127177
1.39194e-05
0.000142
2.07223e-05
0.000153942
2.25002e-05
0.000161061
2.31311e-05
0.000166838
2.81e-05
0.000168382
4.27659e-05
0.000171333
6.9663e-05
0.000186116
9.85783e-05
0.000180747
3.97381e-05
2.65366e-05
6.09042e-07
3.33342e-08
-3.80014e-10
1.75619e-11
-7.51577e-14
3.23056e-16
-8.24081e-19
3.10859e-21
-5.4842e-24
9.23175e-27
0.000109512
1.76647e-05
0.000128312
2.76069e-05
0.000144203
3.04617e-05
0.000155479
2.80826e-05
0.0001637
2.62697e-05
0.000165379
3.1103e-05
0.000165576
4.85234e-05
0.000172786
8.02268e-05
0.000169341
3.96081e-05
2.54904e-05
1.19644e-06
1.72777e-07
-1.81495e-10
3.47925e-11
-1.37793e-13
-1.7695e-15
-2.50512e-18
-1.71573e-20
-2.03008e-23
1.48656e-25
8.82123e-05
2.12996e-05
0.000110698
3.52789e-05
0.000130758
4.10514e-05
0.000146905
3.90355e-05
0.000159172
3.26103e-05
0.000163931
2.7718e-05
0.000165003
3.16767e-05
0.000166132
5.43626e-05
0.000162262
3.29709e-05
2.35699e-05
1.21948e-06
2.63599e-07
1.5698e-09
1.12018e-10
-1.20903e-13
-8.92133e-15
-4.64895e-18
-1.06485e-19
-6.95875e-23
1.71716e-25
6.38443e-05
2.4368e-05
8.92901e-05
4.27076e-05
0.000113152
5.28853e-05
0.000134101
5.38553e-05
0.000151472
4.67355e-05
0.000162141
3.44004e-05
0.000166719
2.60012e-05
0.000164939
3.31201e-05
0.000163815
2.29812e-05
2.30985e-05
9.56615e-07
3.18026e-07
2.69532e-09
3.48007e-10
2.06829e-13
-1.93193e-14
-4.52243e-18
-3.68823e-19
-1.33247e-22
-4.97208e-26
3.73217e-05
2.65226e-05
6.46799e-05
4.89782e-05
9.14912e-05
6.43683e-05
0.00011665
7.03367e-05
0.000139232
6.60954e-05
0.000156858
5.20186e-05
0.000167094
3.40255e-05
0.000166768
2.44469e-05
0.00017146
1.41666e-05
2.87154e-05
5.43625e-07
3.94078e-07
2.6148e-09
7.41139e-10
8.51639e-13
-4.79939e-15
7.58648e-18
-6.7033e-19
-1.52138e-22
-1.49371e-24
9.76834e-06
2.75534e-05
3.78188e-05
5.33837e-05
6.63891e-05
7.40803e-05
9.46925e-05
8.63259e-05
0.000121837
8.77311e-05
0.000145805
7.7148e-05
0.000163295
5.5818e-05
0.000169776
3.10292e-05
0.000183835
9.65906e-06
4.19944e-05
7.52592e-08
5.78862e-07
1.47229e-09
1.42846e-09
1.0755e-12
5.63429e-14
4.27022e-17
-4.08829e-19
-9.59989e-25
-5.62701e-24
-1.76019e-05
2.73702e-05
9.86861e-06
5.55035e-05
3.88442e-05
8.09285e-05
6.88962e-05
9.98766e-05
9.9363e-05
0.0001088
0.000128667
0.000104869
0.000153345
8.7098e-05
0.000169174
5.64197e-05
0.000195873
1.42314e-05
6.35914e-05
-1.8011e-07
1.02761e-06
-1.0874e-09
2.80156e-09
-1.35e-13
1.85614e-13
4.62249e-17
6.02912e-19
1.36117e-21
-1.23581e-23
-4.36111e-05
2.60092e-05
-1.79229e-05
5.51618e-05
1.00848e-05
8.42629e-05
4.03585e-05
0.000109466
7.25251e-05
0.000126714
0.000105602
0.000131865
0.000136603
0.000121611
0.000160859
9.54135e-05
0.000200109
3.56347e-05
8.851e-05
6.65966e-07
2.12993e-06
-5.7222e-09
6.09926e-09
-2.61759e-12
4.51161e-13
-1.84667e-17
2.63574e-18
1.22014e-21
-9.07162e-24
-6.71923e-05
2.35811e-05
-4.4346e-05
5.24322e-05
-1.85724e-05
8.3819e-05
1.042e-05
0.000114201
4.25425e-05
0.000139449
7.7439e-05
0.000154878
0.000113014
0.000155453
0.000143896
0.000138575
0.00019233
7.39186e-05
0.000110344
4.16776e-06
4.78204e-06
-1.06024e-08
1.50376e-08
-1.04725e-11
1.02546e-12
-1.48904e-16
6.27475e-18
-7.82574e-22
9.25993e-25
-8.74715e-05
2.02792e-05
-6.83064e-05
4.75415e-05
-4.58482e-05
7.9708e-05
-1.95057e-05
0.000113745
1.09143e-05
0.00014583
4.55856e-05
0.000171302
8.34142e-05
0.000184478
0.000118848
0.000180501
0.000173732
0.000120092
0.000124633
1.13023e-05
9.1031e-06
3.69634e-08
4.1429e-08
-2.6968e-11
2.53255e-12
-7.05626e-16
1.1075e-17
-5.37222e-21
4.4592e-24
-0.000103813
1.63419e-05
-8.89062e-05
4.08791e-05
-7.05892e-05
7.22825e-05
-4.80272e-05
0.000108229
-2.08145e-05
0.000145474
1.1756e-05
0.000179659
4.93874e-05
0.000205329
8.67662e-05
0.000216559
0.000145341
0.000167791
0.000127825
2.21848e-05
1.37306e-05
2.99306e-07
1.17704e-07
2.66521e-11
8.49913e-12
-2.8293e-15
-9.0696e-18
-2.46395e-20
-1.07517e-22
-0.000115849
1.20356e-05
-0.000105476
3.29119e-05
-9.18488e-05
6.21387e-05
-7.39023e-05
9.81577e-05
-5.11097e-05
0.000138525
-2.23681e-05
0.000179598
1.28548e-05
0.000216192
4.99779e-05
0.000242117
0.000108461
0.00021065
0.000118188
3.61484e-05
1.72456e-05
8.55345e-07
2.54243e-07
1.37666e-09
3.99365e-11
3.54139e-15
-4.26084e-16
-1.02105e-19
-1.22254e-21
-0.000123461
7.61217e-06
-0.00011759
2.41494e-05
-0.000108931
4.99944e-05
-9.61095e-05
8.43459e-05
-7.86168e-05
0.000125665
-5.50046e-05
0.000171161
-2.43002e-05
0.000216753
1.16529e-05
0.000254517
6.53168e-05
0.000242371
9.59579e-05
5.11325e-05
1.84887e-05
1.73614e-06
4.14004e-07
6.18097e-09
2.02059e-10
7.61003e-13
-6.23963e-15
6.50727e-19
-1.62971e-20
-0.000126699
3.23748e-06
-0.000125074
1.50959e-05
-0.000121433
3.66515e-05
-0.000113875
6.77604e-05
-0.000102216
0.000107945
-8.46337e-05
0.000155294
-5.98749e-05
0.000206736
-2.61239e-05
0.00025453
1.93804e-05
0.000258529
6.31226e-05
6.43119e-05
1.66297e-05
2.86003e-06
5.37051e-07
1.6804e-08
6.06753e-10
5.87181e-12
-4.51902e-14
4.49372e-17
-2.47791e-19
-0.000125759
-9.39294e-07
-0.000128084
6.24762e-06
-0.000129269
2.29313e-05
-0.000126707
4.94829e-05
-0.000121053
8.6598e-05
-0.000110022
0.000133333
-9.20307e-05
0.00018745
-6.24094e-05
0.000243021
-2.64466e-05
0.000260005
2.23963e-05
7.31951e-05
1.15029e-05
4.03904e-06
5.4906e-07
3.40121e-08
1.19832e-09
2.32435e-11
-1.57358e-13
5.09568e-16
-1.88482e-18
-0.000121445
-4.31481e-06
-0.00012747
-1.55358e-06
-0.000132572
9.55027e-06
-0.00013435
3.05739e-05
-0.000134641
6.30712e-05
-0.00013017
0.000106746
-0.000119464
0.000160766
-9.67154e-05
0.000221756
-7.21244e-05
0.000250441
-2.22214e-05
7.6571e-05
3.95006e-06
4.97966e-06
4.07698e-07
5.58623e-08
1.60364e-09
6.16903e-11
-3.40067e-13
3.22943e-15
-1.07507e-17
-0.000114305
-7.13989e-06
-0.000123025
-8.75985e-06
-0.000130889
-3.23649e-06
-0.000136848
1.20488e-05
-0.000142908
3.88404e-05
-0.000144452
7.73536e-05
-0.000141095
0.000128376
-0.000126847
0.000190898
-0.000114738
0.000228631
-6.45401e-05
7.39243e-05
-4.74191e-06
5.46491e-06
1.35509e-07
7.60976e-08
1.41533e-09
1.2257e-10
-4.94841e-13
1.20591e-14
-3.91867e-17
-0.000104999
-9.30517e-06
-0.000115663
-1.45021e-05
-0.000125929
-1.3719e-05
-0.000135741
-4.34343e-06
-0.000146008
1.51487e-05
-0.000152531
4.6919e-05
-0.000156344
9.26033e-05
-0.000150773
0.000152302
-0.000151047
0.00019459
-0.0001006
6.59274e-05
-1.31561e-05
5.29528e-06
-1.83592e-07
8.69993e-08
5.88439e-10
1.87166e-10
-4.52209e-13
3.03322e-14
-8.76937e-17
-9.41785e-05
-1.0821e-05
-0.00010608
-1.88873e-05
-0.000118016
-2.24152e-05
-0.000130202
-1.92585e-05
-0.00014296
-7.3915e-06
-0.000154066
1.6684e-05
-0.000165341
5.59156e-05
-0.00016745
0.000109281
-0.000179876
0.000152545
-0.000127996
5.37369e-05
-1.98876e-05
4.58342e-06
-5.07033e-07
8.57325e-08
-4.86588e-10
2.20724e-10
-1.78682e-13
5.31372e-14
-1.16526e-16
-8.24568e-05
-1.17217e-05
-9.49339e-05
-2.19675e-05
-0.000107864
-2.90395e-05
-0.00012153
-3.10865e-05
-0.000136299
-2.59197e-05
-0.000151552
-9.90587e-06
-0.000167961
1.93043e-05
-0.000176098
6.4563e-05
-0.000200621
0.000106947
-0.00014507
3.9547e-05
-2.38604e-05
3.52978e-06
-7.50246e-07
7.21992e-08
-1.69561e-09
2.24806e-10
6.11657e-14
6.4884e-14
-6.73582e-17
-7.03353e-05
-1.21215e-05
-8.28242e-05
-2.38314e-05
-9.61375e-05
-3.36942e-05
-0.000110568
-4.00018e-05
-0.000126449
-4.09364e-05
-0.000143619
-3.38523e-05
-0.000162401
-1.54658e-05
-0.000177692
2.08999e-05
-0.000212919
6.18125e-05
-0.000150861
2.55429e-05
-2.47847e-05
2.40566e-06
-8.38209e-07
5.12326e-08
-2.49876e-09
1.85049e-10
4.16172e-13
6.86115e-14
7.25073e-18
-5.81365e-05
-1.21988e-05
-7.0303e-05
-2.46427e-05
-8.34393e-05
-3.65296e-05
-9.80313e-05
-4.6231e-05
-0.000114315
-5.21354e-05
-0.000132207
-5.23489e-05
-0.000152404
-4.38498e-05
-0.000173768
-1.89234e-05
-0.000216075
2.1155e-05
-0.000145409
1.3512e-05
-2.28859e-05
1.39931e-06
-7.74129e-07
3.11082e-08
-2.482e-09
1.18071e-10
7.84219e-13
5.46074e-14
1.09293e-16
-1.19859e-05
-4.61506e-05
-5.78665e-05
-2.46353e-05
-7.03208e-05
-3.77611e-05
-8.45372e-05
-5.00237e-05
-0.000100631
-5.99147e-05
-0.000118519
-6.58228e-05
-0.000139037
-6.5712e-05
-0.000163373
-5.21634e-05
-0.000209289
-1.12435e-05
-0.000129652
4.50365e-06
-1.8818e-05
6.38061e-07
-6.06413e-07
1.53154e-08
-1.79424e-09
6.07009e-11
7.93539e-13
3.05754e-14
1.70537e-16
-2.39821e-05
-4.58702e-05
-2.54798e-05
-2.06708e-05
-5.73207e-05
-3.76353e-05
-7.06593e-05
-5.1639e-05
-8.60182e-05
-6.46367e-05
-0.000103347
-7.50863e-05
-0.00012373
-8.11084e-05
-0.000150202
-7.4409e-05
-0.000195158
-3.33148e-05
-0.000103975
-1.40194e-06
-1.32619e-05
1.43352e-07
-3.97515e-07
5.36994e-09
-9.49828e-10
2.33985e-11
6.16792e-13
1.27099e-14
1.29645e-16
-3.6336e-05
-4.49669e-05
-5.09447e-05
-2.04053e-05
-1.97033e-05
-9.67506e-07
-5.6944e-05
-5.13506e-05
-7.10382e-05
-6.66189e-05
-8.72534e-05
-8.07301e-05
-0.000107225
-9.15243e-05
-0.000136258
-8.74316e-05
-0.000177841
-3.98262e-05
-7.18769e-05
-3.7152e-06
-7.44728e-06
-7.45333e-08
-2.06597e-07
5.24874e-10
-3.34119e-10
5.50295e-12
3.615e-13
3.58979e-15
6.8397e-17
-4.93435e-05
-4.39364e-05
-7.66375e-05
-1.9274e-05
-3.85837e-05
-1.52496e-06
-1.44449e-05
1.34774e-05
-5.62562e-05
-6.61327e-05
-7.07934e-05
-8.30787e-05
-8.99477e-05
-9.7852e-05
-0.000122262
-9.40191e-05
-0.000159184
-3.54482e-05
-4.42179e-05
-3.10244e-06
-3.47524e-06
-8.89131e-08
-8.86806e-08
-3.83429e-10
-7.76891e-11
1.88348e-14
1.43353e-13
5.36903e-16
2.39743e-17
-6.32679e-05
-4.23318e-05
-0.000102743
-1.78315e-05
-5.73524e-05
-5.05377e-07
-2.68356e-05
1.08657e-05
-2.18935e-05
3.53709e-05
-5.46046e-05
-8.2321e-05
-7.24045e-05
-0.000100323
-0.00010776
-9.63299e-05
-0.000138342
-2.92046e-05
-2.54223e-05
-2.03551e-06
-1.53273e-06
-5.15999e-08
-3.55688e-08
-2.77029e-10
-1.66274e-11
-1.36906e-13
3.53586e-14
-1.78897e-19
5.35638e-18
-7.83774e-05
-3.94943e-05
-0.00012986
-1.5214e-05
-7.49415e-05
-2.42331e-07
-3.82354e-05
1.08945e-05
-3.87699e-05
2.77422e-05
-3.18068e-05
6.71776e-05
-5.53424e-05
-9.88866e-05
-9.23768e-05
-9.48452e-05
-0.000114774
-2.33443e-05
-1.37919e-05
-1.30447e-06
-7.11217e-07
-2.55163e-08
-1.46958e-08
-1.25765e-10
-6.15931e-12
-5.68244e-14
6.14075e-15
-6.68566e-18
8.69147e-19
-9.3135e-05
-3.98583e-05
-0.000157843
-1.15062e-05
-9.21131e-05
1.95763e-06
-4.66785e-05
8.20071e-06
-5.11494e-05
2.3274e-05
-5.17759e-05
4.77113e-05
-7.35602e-05
0.000140738
-7.72181e-05
-8.89042e-05
-9.03284e-05
-1.78143e-05
-6.71927e-06
-8.67733e-07
-3.68238e-07
-1.30984e-08
-6.51736e-09
-5.19709e-11
-2.98572e-12
-1.85973e-14
9.88389e-16
-2.35154e-18
1.46184e-19
-7.86589e-05
-6.38566e-05
-0.000182753
-1.24584e-05
-0.000108514
4.90451e-06
-5.26774e-05
7.95654e-06
-5.53201e-05
1.23714e-05
-6.13198e-05
3.28179e-05
-0.0001277
0.000101851
-9.25919e-05
0.00023333
-6.84043e-05
-1.27338e-05
-2.69704e-06
-5.71861e-07
-2.13482e-07
-7.4817e-09
-3.11748e-09
-2.25506e-11
-1.43938e-12
-6.17679e-15
1.37649e-16
-6.66323e-19
2.43008e-20
-8.48701e-06
-5.06047e-05
-0.000142162
-3.74766e-05
-0.000120237
1.932e-06
-5.6448e-05
8.68358e-06
-5.2554e-05
5.19044e-06
-5.97671e-05
1.08187e-05
-0.000155023
6.01408e-05
-0.000175181
0.00018444
-0.000140978
0.000374307
-7.74279e-07
-3.49841e-07
-1.37124e-07
-4.50352e-09
-1.58114e-09
-1.08394e-11
-6.87287e-13
-2.28664e-15
1.07293e-17
-1.98878e-19
4.43173e-21
-2.01889e-07
1.31778e-07
-1.0581e-05
-1.9369e-05
-8.39638e-05
-2.29695e-05
-5.53711e-05
2.46445e-06
-4.44412e-05
5.81497e-07
-4.88997e-05
-5.67696e-06
-0.000152806
8.60175e-06
-0.000230677
0.000115637
-0.000255599
0.000299062
-3.44972e-05
0.000408804
-8.6306e-08
-2.63572e-09
-8.39217e-10
-5.62921e-12
-3.36505e-13
-9.67349e-16
-4.55079e-18
-6.94764e-20
9.22317e-22
-1.46028e-09
-4.11353e-08
-2.03159e-07
1.04859e-06
-4.30891e-06
-5.58008e-06
-3.4673e-05
-1.91741e-05
-3.02618e-05
-1.05978e-05
-2.68943e-05
-2.14139e-05
-0.000122591
-3.58923e-05
-0.000240244
1.81683e-05
-0.000346763
0.000206801
-0.000145513
0.000410077
0.000127573
0.000281231
-4.26771e-10
-2.94192e-12
-1.79831e-13
-4.44558e-16
-4.29509e-18
-2.84677e-20
1.9523e-22
-1.43177e-12
-1.41629e-10
-1.26921e-09
-1.38665e-08
-6.90554e-08
1.25275e-06
-1.46878e-06
-1.31314e-06
-1.01402e-05
-2.97417e-05
-2.32811e-07
-3.69761e-05
-6.99824e-05
-7.39665e-05
-0.000200112
-7.60231e-05
-0.000389246
6.06505e-05
-0.000300184
0.000361471
0.000186667
0.000350984
0.0015915
0.000598044
-0.00190831
-9.20453e-14
-2.1235e-16
-3.2028e-18
-1.29529e-20
2.56033e-23
-9.83859e-17
-2.89095e-14
-8.95398e-13
-5.50794e-11
-3.64847e-10
-7.89611e-09
-1.98222e-08
1.20677e-06
-1.70599e-07
-3.02058e-06
1.15836e-05
-4.88335e-05
-6.9315e-06
-9.89137e-05
-0.00011227
-0.000161665
-0.000354469
-0.000110797
-0.000412207
0.000172672
0.000135147
0.000412992
0.00129006
0.000652412
0.00206901
0.00080505
-0.00227601
0.000454484
-0.0023628
-1.92437e-18
-6.25193e-21
-1.19851e-23
-3.07636e-21
-5.46028e-19
-4.45171e-17
-1.61764e-14
-2.43732e-13
-3.70559e-11
-8.66392e-11
-6.11258e-09
1.54882e-09
1.06401e-06
2.08724e-06
-7.27284e-06
2.03031e-05
-8.99654e-05
-1.01347e-05
-0.000198935
-0.000220608
-0.000295319
-0.000392416
-0.000130588
2.5362e-05
0.000282457
0.00107926
0.000623794
0.0018395
0.000881912
0.00208391
0.00100869
-0.00228755
0.00067225
-0.00249378
0.00032411
-0.00268691
-1.36445e-23
-4.77377e-24
-1.38475e-21
-4.14069e-19
-1.10934e-17
-1.00745e-14
-5.0505e-14
-2.63402e-11
9.67515e-12
-6.18167e-09
1.23466e-08
9.60891e-07
3.58439e-06
-1.43257e-05
2.65331e-05
-0.000142541
-5.74726e-05
-0.000359555
-0.000299587
-0.000388116
-0.000103868
-1.35756e-06
0.000915633
0.000446088
0.0016063
0.000856991
0.0018776
0.00108822
0.00198054
0.00118383
-0.00215567
0.000835355
-0.00245066
0.000529193
-0.00269886
0.000235999
-0.00292291
-4.82964e-24
-3.66095e-22
-2.62537e-19
-2.08231e-18
-5.77101e-15
6.05581e-15
-2.0968e-11
7.39282e-11
-6.83017e-09
1.96122e-08
9.63139e-07
4.07294e-06
-1.84749e-05
2.64183e-05
-0.000239087
-0.000154445
-0.000503454
-0.00016265
-0.000329335
0.000700545
0.000213731
0.00131925
0.000733142
0.00168852
0.00104607
0.00174689
0.00132186
0.00188624
0.00131097
-0.00201338
0.000950814
-0.00227113
0.000609117
-0.00253058
0.000349485
-0.00281235
0.000131956
-0.00305486
-2.99324e-24
-6.31701e-23
-1.5336e-19
1.04246e-18
-4.52652e-15
4.48637e-14
-1.97471e-11
9.72218e-11
-8.93625e-09
1.56597e-08
1.18432e-06
6.51655e-06
-2.85954e-05
-1.97115e-05
-0.000372709
-0.000127358
-0.000538372
0.000515758
-0.000144547
0.0010536
0.000479384
0.0014595
0.000962156
0.00151128
0.00128168
0.00171959
0.00148851
0.00155814
0.00148367
-0.00173084
0.00105904
-0.00212161
0.000652946
-0.00231496
0.000333308
-0.0025144
0.000172972
-0.00285336
5.74427e-05
-0.00311231
-1.481e-24
5.72076e-23
-1.12593e-19
3.99378e-18
-4.39104e-15
5.45825e-14
-1.81004e-11
5.96985e-11
-1.00432e-08
7.89579e-09
2.24722e-06
5.97855e-06
-6.22016e-05
-4.64653e-05
-0.000444276
0.000313803
-0.000336417
0.000783272
0.000125776
0.00118021
0.000758678
0.00131761
0.00115582
0.00147791
0.00152336
0.00139766
0.00164898
0.00132693
0.000398187
-0.00146853
0.000397625
0.000414798
0.000414659
0.00123655
-0.00190832
0.000714191
-0.00218285
0.00029775
-0.0022794
8.45458e-05
-0.00242598
-3.00177e-07
-0.00279562
-1.56193e-05
-0.00309669
-1.35806e-24
2.137e-22
-1.33507e-19
5.0563e-18
-4.48542e-15
3.82285e-14
-1.37194e-11
1.47148e-11
-4.84133e-09
-2.271e-09
3.60298e-06
-1.3863e-07
-0.000115656
9.00323e-05
-0.00022187
0.000472487
-2.56327e-05
0.000793513
0.000512474
0.00113338
0.000942907
0.00119007
0.00144367
0.00123367
0.00168735
0.00110907
0.00186683
-6.86196e-07
0.000259867
-0.000282713
0.000421719
0.000367943
-0.00170228
0.000367612
0.000367228
0.000367587
0.000259876
-0.000282585
0.000419646
-4.47089e-07
0.00023611
0.000439003
0.000237117
0.000436971
0.000933202
-0.0021272
0.000377307
-0.0022624
2.49075e-05
-0.00221976
-0.000121581
-0.00230469
-0.000118805
-0.00269244
-9.99231e-05
-0.00299676
-2.03043e-24
3.44802e-22
-1.82923e-19
4.63965e-18
-4.05383e-15
1.78993e-14
-6.64331e-12
6.55674e-13
-2.02192e-09
-4.17454e-10
1.28603e-06
-7.96634e-07
-6.8717e-05
0.000197291
5.00797e-05
0.000405824
0.000362057
0.000919316
0.000726539
0.000894045
0.00123893
0.00103697
0.00164037
0.000890117
0.00190631
-0.000185455
-0.000187162
0.000765992
0.00047396
0.00047263
0.000499885
0.00050017
-7.19237e-07
-0.00031519
0.000401142
-2.95375e-07
0.000188406
-0.000213751
0.000447353
-0.00202678
0.00125851
-0.000314749
0.000399065
-5.24417e-07
-0.000345795
0.000398453
-0.00034384
0.000396241
0.000188766
-0.000213322
0.0004439
-8.17851e-08
0.000442026
0.000438484
0.000577963
-0.00232772
3.42981e-05
-0.00227179
-0.000212407
-0.00212893
-0.000253509
-0.00216999
-0.000244261
-0.0025481
-0.000153401
-0.00284336
-3.70284e-24
4.50535e-22
-2.47197e-19
3.74174e-18
-1.94136e-15
5.44696e-15
-1.93418e-12
4.67291e-13
-1.47128e-09
1.4065e-09
1.02983e-07
-3.06994e-07
5.18351e-05
0.00017731
0.00027507
0.000611333
0.00067004
0.000632609
0.000987978
0.000825944
0.00144995
0.000666839
0.00186364
0.000634389
0.000504281
0.000504639
0.000514646
0.000514329
2.94055e-07
0.000107413
-0.000118931
0.000485173
0.000106452
-0.000117467
0.000483927
-2.5784e-07
0.000104149
0.000503396
0.000103686
0.000502664
-3.5908e-07
-0.000253329
0.000441083
1.38835e-06
0.000136645
-0.000153317
0.00012952
0.000100079
0.000126603
0.000106435
-0.00227491
0.000827714
0.000289099
0.000288138
-0.00164118
0.000402144
0.000402444
0.000415688
0.000414654
-0.000252457
0.000437847
-3.205e-07
0.000434682
0.000431748
0.000135999
-0.000152773
0.000128674
0.000101493
0.000126017
0.000105874
1.16113e-06
0.000126912
0.000101262
0.000126588
0.000103817
0.000126299
0.00010251
0.000125945
0.000103422
0.000122887
-0.00241639
-0.000244457
-0.00223974
-0.000346905
-0.00203554
-0.000380395
-0.00203386
-0.000324381
-0.00237712
-0.000214859
-0.00262851
-6.82468e-24
5.80182e-22
-5.26773e-19
8.4257e-18
-5.93488e-15
4.39311e-15
-1.86321e-12
1.52277e-12
-2.14735e-09
1.7658e-09
-2.8246e-06
6.76466e-06
0.000141009
0.000307459
0.000576609
0.000426411
0.000876239
0.00058731
0.00122661
0.000433381
0.00168341
0.000505844
0.000494518
0.000494405
0.00050208
0.000501182
-3.00481e-07
9.06775e-05
0.000518055
9.07037e-05
0.000517321
-3.22507e-07
7.76534e-05
0.000527993
7.75948e-05
0.000527115
4.45356e-07
3.75995e-05
-1.94858e-05
-5.35411e-06
0.000107268
-1.58944e-05
0.00013335
0.00011159
0.000135353
2.78275e-07
3.73651e-05
-1.97908e-05
-5.31482e-06
-1.59554e-05
0.00010753
0.000133306
0.000111679
0.000135267
2.86112e-07
6.52817e-07
3.51878e-05
0.00011483
0.000137155
0.000114988
0.000138144
3.54616e-05
0.000115038
0.000136999
0.000115104
0.000138079
1.29353e-06
-0.000181
0.00012968
0.000102892
0.000128753
0.000106147
-1.94267e-05
9.62489e-06
2.1592e-07
1.74689e-05
0.000121637
-1.00541e-05
1.77688e-05
-2.12361e-05
0.0001136
1.72276e-07
-2.23939e-05
0.000119344
1.68286e-05
0.000116995
-0.00240074
0.000248089
-0.00190776
0.000251838
0.000251549
0.000295649
0.000296099
-1.95797e-07
0.000237768
-0.000251528
0.000416323
0.000238412
-0.000251626
0.000415686
3.67631e-07
0.000212843
0.000440561
0.000213844
0.000439901
-0.000180368
0.000129012
0.000103933
0.00012811
0.00010568
1.03928e-06
0.000129567
0.000101727
0.000127074
0.000107276
0.000128991
0.000103704
0.000126645
0.000107065
-1.94287e-05
9.51857e-06
1.74041e-05
0.000121397
-9.59997e-06
1.80609e-05
-2.11922e-05
0.000114224
-2.23062e-05
0.000119468
1.67915e-05
0.000116662
1.36966e-05
1.04731e-05
2.35356e-07
0.000119976
-1.51091e-05
-1.52838e-05
0.000112169
3.0641e-07
0.000119513
0.00011583
1.37093e-05
1.05109e-05
0.000119718
-1.49842e-05
-1.53501e-05
0.000113053
0.000119662
0.000115368
-0.000270521
-0.00239081
-0.000453221
-0.00213343
-0.000498347
-0.00191759
-0.00049943
-0.00185881
-0.000402542
-0.00218943
-0.000241239
-0.00238727
-1.24584e-22
4.21024e-20
-2.78508e-16
2.09427e-14
-3.05661e-12
1.26874e-11
-2.36452e-10
-5.32682e-09
-4.12923e-08
4.30342e-08
-3.7469e-06
1.12801e-05
0.00030848
0.000198619
0.000801177
0.000328212
0.00113534
0.000245073
0.00141492
0.000329732
0.000464722
0.000464235
0.00046557
0.000464993
-1.93975e-07
5.45399e-05
0.000517825
5.48287e-05
0.000516977
-1.78393e-07
4.3826e-05
0.000512973
4.41491e-05
0.000511683
1.01898e-06
3.20148e-05
0.000118404
0.000139661
0.000120436
0.000141681
3.21782e-05
0.000118781
0.000139609
0.00012152
0.000141648
1.32046e-06
2.17193e-05
0.000124261
0.00014503
0.000123135
0.000144533
2.17225e-05
0.000125227
0.000144892
0.000124323
0.000144455
-6.27688e-06
-3.40123e-06
-6.02771e-06
0.000122971
-5.5913e-06
-1.00555e-05
0.00011192
-3.86131e-06
-3.57116e-08
0.000132004
-1.00832e-06
-7.15269e-06
-4.05988e-06
0.000119391
1.69663e-08
-3.34967e-06
0.000127684
7.35757e-08
-4.61427e-06
0.000118727
-5.72991e-06
-1.00612e-05
0.000112887
-6.09793e-06
-3.35439e-06
-6.38995e-06
0.000123369
-3.86987e-06
-1.05533e-06
0.000132098
-7.09686e-06
-4.03776e-06
0.000119454
-3.35986e-06
0.000127677
-4.62656e-06
0.000118918
-8.05369e-06
4.85531e-06
-5.35619e-06
0.000123384
4.08333e-06
2.91404e-08
-4.74441e-06
0.000129733
-7.95474e-06
0.000123732
2.1862e-08
0.000130926
-7.95099e-06
4.84177e-06
-5.42661e-06
0.000123575
4.07783e-06
-4.74765e-06
0.000129747
-7.88742e-06
0.000123787
0.000130931
2.44473e-05
9.88903e-06
1.54588e-07
-2.81367e-05
0.000123326
-1.00372e-05
-2.3627e-05
0.00011532
1.61372e-07
0.000120608
-2.64954e-05
0.000118912
-8.69042e-06
1.44969e-06
-6.38908e-08
7.01859e-06
0.000121923
-1.14893e-06
8.13132e-06
-9.43562e-06
0.000116054
-6.33293e-08
-1.00186e-05
0.000119572
7.4584e-06
0.000119114
-0.00236973
-0.00030453
-0.00212003
9.39331e-05
9.33766e-05
0.000136135
0.000136081
2.84014e-08
0.000275303
-0.0002806
0.00025712
0.000274667
-0.000279955
0.000256884
-5.2788e-08
0.000319571
0.000319179
8.26132e-07
0.00013545
-0.000153187
9.3742e-05
0.000118799
9.78065e-05
0.000122873
0.000135084
-0.000152326
9.41194e-05
0.000118686
9.80922e-05
0.000122797
5.93882e-07
2.2343e-05
4.26586e-05
0.000103838
1.17826e-05
0.000130092
0.000102504
0.000129
3.30899e-05
2.23459e-05
4.25269e-05
0.000104151
1.18763e-05
0.000130022
0.000102637
0.000128879
3.30688e-05
2.43645e-05
9.81077e-06
-2.8138e-05
0.00012313
-9.67277e-06
-2.3341e-05
0.000115755
0.000120657
-2.65517e-05
0.00011871
-3.18271e-05
1.01545e-05
1.69054e-07
0.000122933
-1.76315e-05
2.76066e-05
0.000114098
1.73925e-07
0.000120087
0.000118538
-3.18734e-05
1.00338e-05
0.000122861
-1.70379e-05
2.79598e-05
0.000115125
0.000120435
0.000118509
-8.74953e-06
1.22208e-06
7.05254e-06
0.000121809
-9.49463e-07
8.26435e-06
-9.50871e-06
0.000116417
-1.00412e-05
0.000119748
7.62791e-06
0.000118515
3.09517e-06
3.4194e-08
0.000119266
0.000116321
3.06875e-06
0.00011911
0.000115997
-0.000613407
-0.00223061
-0.000657129
-0.00197465
-0.000672384
-0.00174463
-0.00058515
-0.0016762
-0.000423914
-0.00200676
-0.000309165
-0.0020781
-1.0037e-18
2.25853e-15
-3.69794e-13
3.23672e-11
-4.55161e-10
2.32034e-08
-1.56146e-07
-1.58489e-07
-1.70643e-06
-8.19566e-08
-7.40418e-06
-1.15478e-06
0.0003606
0.00012856
0.000995346
9.77332e-05
0.00128266
0.00011474
0.000408875
0.000408389
0.000406425
0.000406227
-1.17468e-07
3.00213e-05
0.000478644
3.03114e-05
0.000477955
-1.14673e-07
1.81869e-05
0.000477518
1.84175e-05
0.000476772
1.1922e-06
1.44289e-05
0.000120187
0.000140957
0.000121465
0.000141342
1.44272e-05
0.000121137
0.000140778
0.000122418
0.000141127
1.19233e-06
8.02424e-06
0.00011986
0.000139119
0.000119829
0.000139355
7.34611e-06
0.000121014
0.00013893
0.000120825
0.000139168
-7.98733e-06
-6.44763e-06
0.000127474
-6.13206e-06
-3.68103e-09
0.000133077
-8.08348e-06
-5.54961e-06
0.000127611
-5.96545e-08
-5.37188e-06
0.000132924
-7.83973e-06
-6.64516e-06
0.000127839
-6.16066e-06
0.000133178
-7.6585e-06
-5.76381e-06
0.000128298
-5.42359e-06
0.000133185
-8.21918e-06
6.60281e-06
-6.95098e-06
0.000132825
6.20558e-06
-1.62897e-08
-6.98735e-06
0.000137625
-8.20635e-06
0.00013239
-1.7151e-08
0.000137163
-7.81565e-06
6.64964e-06
-7.17291e-06
0.000133565
6.232e-06
-7.01918e-06
0.000137854
-7.83206e-06
0.000133041
0.000137422
-1.79735e-06
7.45406e-08
-5.75695e-07
-2.24968e-05
-2.42259e-05
-3.09659e-09
-3.75901e-08
3.06142e-06
-8.87986e-07
-7.7448e-06
-2.34641e-09
-8.11928e-06
-1.72685e-06
9.42579e-08
-5.60963e-07
-2.2522e-05
3.06097e-06
-2.42348e-05
-8.76579e-07
-7.79119e-06
-8.1402e-06
-8.58657e-07
6.75185e-06
-6.92901e-06
6.49941e-06
-1.53441e-08
-6.60473e-06
-9.57716e-07
-3.35376e-09
-8.16617e-07
6.77116e-06
-7.00919e-06
6.5035e-06
-6.63033e-06
-9.54027e-07
1.20406e-05
1.62269e-06
-5.48836e-08
-1.65985e-05
0.000126327
-1.11063e-06
-1.11072e-05
0.000118102
-3.29569e-08
0.000121565
-1.39669e-05
0.000123397
-2.19296e-07
6.11576e-07
4.11073e-08
-2.01236e-06
-6.4157e-07
1.07194e-07
-8.01274e-07
-5.42531e-08
-1.0128e-06
-1.65475e-06
-0.00222023
-0.00076299
-0.00218051
-9.80509e-05
-9.91766e-05
-2.47094e-05
-2.53496e-05
1.67971e-07
0.000294872
-0.000295095
9.39435e-05
0.000293597
-0.00029422
9.41193e-05
3.21194e-07
0.000150024
0.000149964
1.26039e-06
0.000177614
-0.000189685
5.06414e-05
7.68879e-05
5.66666e-05
8.389e-05
0.000176889
-0.000189893
5.20927e-05
7.70138e-05
5.8215e-05
8.40233e-05
1.04736e-06
7.6095e-05
0.000100468
6.99059e-05
9.64568e-05
7.67549e-05
0.000100473
7.11073e-05
9.64495e-05
-8.66649e-06
1.88761e-05
-1.81058e-05
0.000101639
2.04465e-05
-1.09693e-07
-1.95521e-05
0.000109388
-8.52863e-06
1.6e-05
0.000109207
-6.84992e-08
1.7609e-05
0.000117233
-8.35948e-06
1.89419e-05
-1.84671e-05
0.000102004
2.04317e-05
-1.96079e-05
0.000109393
-8.30454e-06
1.60428e-05
0.000109293
1.75832e-05
0.000117257
-6.68415e-06
-1.14974e-05
-3.07575e-06
0.000125106
-7.45201e-06
1.38256e-05
0.000119503
-1.39509e-05
-6.93216e-08
0.000134681
2.75107e-06
-8.39197e-06
0.000115387
-5.00824e-08
0.000124299
2.13918e-08
2.09427e-05
0.000124746
-6.43751e-06
-1.14713e-05
-3.40595e-06
0.000125454
-7.51713e-06
1.38818e-05
0.000120632
-1.39033e-05
0.000134711
2.67733e-06