/*--------------------------------*- C++ -*----------------------------------*\
| =========                 |                                                 |
| \\      /  F ield         | OpenFOAM: The Open Source CFD Toolbox           |
|  \\    /   O peration     | Version:  5.x                                   |
|   \\  /    A nd           | Web:      www.OpenFOAM.org                      |
|    \\/     M anipulation  |                                                 |
\*---------------------------------------------------------------------------*/
FoamFile
{
    version     2.0;
    format      ascii;
    class       volScalarField;
    location    "1.8";
    object      alpha.water;
}
// * * * * * * * * * * * * * * * * * * * * * * * * * * * * * * * * * * * * * //

dimensions      [0 0 0 0 0 0 0];

internalField   nonuniform List<scalar> 
12160
(
1
1
1
1
1
1
1
1
1
1
1
1
1
0.999999
1
1
1
1
1
1
1
1
1
1
1
1
1
1
1
1
1
1
1
1
0.999999
1
1
1
1
1
1
1
1
0.995333
0.567927
1
1
1
1
1
1
1
0.995993
0.60476
0.0224672
1
1
1
1
1
1
0.999999
0.996495
0.605499
0.022079
0.000990619
1
0.999999
1
1
1
1
0.999997
0.994734
0.61626
0.0235224
0.000147836
1.12747e-05
1
1
1
1
1
0.999999
0.999991
0.992717
0.629419
0.0271115
4.66467e-05
1.44983e-06
1.06042e-08
1
1
1
1
1
1
0.999984
0.990642
0.647848
0.0353361
4.90339e-05
1.0059e-07
1.65524e-12
2.12754e-12
1
1
1
1
1
1
0.999979
0.98907
0.661902
0.0466716
0.000104043
3.30684e-08
2.58504e-11
2.15714e-13
1.885e-17
1
1
1
1
1
1
0.999978
0.987722
0.666803
0.0631238
0.000185624
9.06096e-08
3.7141e-12
1.22782e-15
5.51513e-22
1
1
1
1
1
1
0.99998
0.986729
0.663295
0.0780919
0.000371215
1.98e-07
1.94522e-11
1.41528e-16
2.48042e-20
1
1
1
1
1
1
0.999987
0.986749
0.654054
0.0838918
0.00071006
4.80221e-07
4.94958e-11
8.0598e-16
2.16324e-21
1
1
1
1
1
1
0.999995
0.988326
0.648333
0.0825074
0.00118241
9.70146e-07
1.53566e-10
1.83988e-15
1.66328e-20
1
1
1
1
1
1
0.999999
0.991796
0.652993
0.0788771
0.00138895
1.82772e-06
3.50544e-10
5.8497e-15
4.2632e-20
1
1
1
1
1
1
1
0.99609
0.673939
0.0788587
0.00143437
3.25353e-06
7.54993e-10
1.31267e-14
1.62435e-19
1
1
1
1
1
1
1
0.999466
0.710193
0.0867817
0.00155305
4.65135e-06
1.41338e-09
2.93994e-14
3.84295e-19
1
1
1
1
1
1
1
0.999994
0.756263
0.107359
0.00194591
6.54775e-06
2.39732e-09
5.64118e-14
9.31969e-19
1
1
1
1
1
1
1
1
0.809568
0.142971
0.0029098
1.00606e-05
3.90814e-09
1.01483e-13
1.85671e-18
0.999999
0.999999
1
1
1
1
1
1
0.858332
0.192193
0.00499173
1.76622e-05
6.93418e-09
1.73751e-13
3.53701e-18
1
1
0.999999
1
1
1
1
1
0.894729
0.250584
0.00938979
3.59626e-05
1.45898e-08
3.3839e-13
6.37328e-18
1
1
1
1
1
1
1
1
0.919626
0.313193
0.016775
8.62077e-05
3.80609e-08
8.20684e-13
1.26908e-17
1
1
1
1
1
1
1
1
0.936199
0.373693
0.0265957
0.000229476
1.26368e-07
2.73498e-12
3.04626e-17
1
1
1
1
1
1
1
1
0.946907
0.427092
0.0380566
0.000520975
5.21091e-07
1.36315e-11
1.00126e-16
0.999999
0.999999
0.999999
1
1
1
1
1
0.953568
0.470038
0.0502396
0.000958797
1.88378e-06
1.0468e-10
5.20076e-16
0.999999
0.999999
0.999999
0.999999
1
1
1
1
0.95733
0.501882
0.0617436
0.00152258
4.85894e-06
7.51765e-10
4.53025e-15
1
1
0.999999
0.999999
0.999999
1
1
1
0.959076
0.523166
0.0715226
0.00214649
9.87665e-06
3.21644e-09
3.59899e-14
1
1
1
0.999999
0.999999
0.999999
1
1
0.959569
0.53443
0.0789338
0.00275603
1.67053e-05
9.4117e-09
1.92983e-13
1
1
1
1
0.999999
0.999999
1
1
0.958511
0.536706
0.0832655
0.00327377
2.45613e-05
2.07183e-08
8.47906e-13
1
1
1
1
1
1
1
1
0.95534
0.529585
0.0838831
0.00359186
3.19651e-05
3.66991e-08
2.60676e-12
1
1
1
1
1
1
1
1
0.949597
0.51217
0.0810032
0.00363503
3.64037e-05
5.34849e-08
5.85211e-12
1
1
1
1
1
1
1
1
0.940418
0.484411
0.0749981
0.00341348
3.73854e-05
6.30096e-08
9.79697e-12
1
1
1
1
1
1
1
1
0.926438
0.446075
0.0663659
0.00299091
3.41635e-05
6.65067e-08
1.19887e-11
1
1
1
1
1
1
1
0.99993
0.905624
0.39794
0.0557023
0.00244811
2.78005e-05
5.91233e-08
1.30964e-11
1
1
1
1
1
1
0.999999
0.999055
0.875371
0.342059
0.0440905
0.00184703
2.05274e-05
4.34539e-08
1.12285e-11
1
1
1
1
1
1
0.999991
0.996544
0.834878
0.281283
0.0325318
0.00127254
1.34545e-05
2.74612e-08
7.23816e-12
1
1
1
1
1
1
0.999962
0.991887
0.786616
0.217439
0.0217496
0.000777892
7.66572e-06
1.44317e-08
3.70989e-12
1
1
1
1
1
1
0.999889
0.984836
0.730279
0.157376
0.0128424
0.000404111
3.59045e-06
5.99877e-09
1.44767e-12
1
1
1
1
1
0.999999
0.999743
0.97529
0.668416
0.110902
0.00711848
0.000185183
1.358e-06
1.77708e-09
4.03904e-13
0.999999
1
1
1
1
1
0.999492
0.963124
0.603747
0.0778635
0.00400987
8.26625e-05
4.82439e-07
4.15633e-10
8.33405e-14
0.999114
0.999998
1
1
1
1
1
0.948285
0.53835
0.0546271
0.00237226
3.94356e-05
1.74378e-07
9.94236e-11
1.6767e-14
0.93135
0.99815
0.999993
1
1
1
1
1
0.474608
0.0381912
0.00146734
2.09179e-05
6.86925e-08
2.65069e-11
3.46553e-15
0.4155
0.901575
0.996505
0.999986
1
1
1
1
1
0.0269406
0.000933138
1.21735e-05
3.05059e-08
8.29728e-12
8.23429e-16
0.0193103
0.333113
0.865636
0.995088
0.999975
1
1
1
0.999999
1
0.000613516
7.40836e-06
1.52712e-08
3.09011e-12
2.41738e-16
0.000394031
0.0110896
0.260344
0.842308
0.993543
0.999959
1
1
0.999999
0.999999
1
4.61279e-06
8.2222e-09
1.35122e-12
8.81375e-17
2.80036e-06
0.000168637
0.00690446
0.223511
0.825619
0.99244
0.999877
0.999999
1
0.999998
0.999999
1
4.55598e-09
6.48414e-13
3.82071e-17
2.42649e-09
9.63141e-07
8.75303e-05
0.00555063
0.204584
0.821125
0.988925
0.999762
0.999997
0.999999
0.999998
0.999997
1
1
3.29214e-13
1.84914e-17
1.67555e-13
6.80473e-10
4.23778e-07
6.84743e-05
0.00504324
0.20613
0.810033
0.986427
0.999663
0.999998
0.999998
0.999996
0.999999
1
1
1
9.53749e-18
5.17174e-18
3.57589e-14
3.00168e-10
2.68174e-07
6.31615e-05
0.00546351
0.210038
0.807834
0.984859
0.999949
0.999998
0.999997
0.999996
1
1
1
1
1
1.10443e-18
1.49953e-14
1.59927e-10
1.98546e-07
6.48026e-05
0.0064601
0.221903
0.797921
0.994253
0.999999
0.999999
0.999997
0.999999
1
1
1
1
1
1
4.79113e-19
7.26938e-15
9.31102e-11
1.65942e-07
6.54305e-05
0.00738052
0.222185
0.839358
0.999733
0.999999
0.999999
0.999996
1
1
1
1
1
1
1
1
2.11551e-19
3.92881e-15
6.07043e-11
1.40481e-07
5.08561e-05
0.00912216
0.195531
0.935869
0.999999
0.999999
0.999995
0.999998
1
1
0.999999
0.999998
1
1
1
1
1
1.04997e-19
2.75737e-15
4.22579e-11
8.76258e-08
2.85151e-05
0.00812179
0.212782
0.997422
0.999999
0.999998
0.999994
0.999999
1
1
0.999999
0.999979
0.999999
0.999999
0.999999
0.999944
0.999997
1
1
1
1
8.21078e-20
2.36416e-15
2.53531e-11
3.80183e-08
7.80223e-06
0.00412301
0.370275
0.996631
0.999998
0.999997
0.999994
1
1
0.999996
0.999999
0.999983
0.999624
0.999991
0.999882
0.999857
0.999982
0.999973
0.999973
0.999774
0.999992
1
1
1
1
9.47348e-20
1.91845e-15
1.27844e-11
9.47431e-09
2.56614e-06
0.00133372
0.484226
0.995936
0.999997
0.999996
0.999997
1
0.999991
0.999925
0.999925
0.99997
0.999926
0.999968
1
0.998139
0.99829
0.999972
0.999746
0.999725
0.999978
1
1
0.99965
0.999992
1
1
1
1
1.11432e-19
1.56174e-15
5.06102e-12
2.36338e-09
1.61196e-06
0.00139814
0.527
0.997953
0.999997
0.999997
0.999999
0.999994
0.999992
0.999992
1
1
1
1
1
1
1
1
1
1
0.999931
0.996783
0.995615
0.997441
0.997362
0.998183
0.998148
1
0.99988
0.999912
0.999983
1
0.999984
1
1
1
1
0.999892
0.999999
1
1
0.99986
0.999745
0.999999
1
1
1
1
1.4088e-19
1.17017e-14
1.44753e-10
1.46094e-08
4.92522e-06
0.00644236
0.596053
0.997336
0.999996
0.999998
0.999999
1
1
1
1
1
0.999975
0.999954
0.999947
0.999919
0.99996
1
0.999968
1
1
0.999961
0.999842
1
0.999955
1
1
0.999991
1
0.999839
1
0.999995
1
0.999655
1
1
1
1
0.999768
1
1
1
0.999883
0.998638
0.995622
0.996027
0.99598
0.995946
0.995927
0.995361
0.995201
0.999303
0.999098
1
1
1
0.999813
1
0.999204
1
0.999206
1
0.999054
1
0.999053
0.999995
0.999969
0.999995
0.999907
1
0.999838
1
0.999818
0.999939
1
1
1
1
1
3.28384e-17
1.70943e-11
2.77716e-08
1.14534e-05
0.000261587
0.00365922
0.517777
0.995635
0.999989
0.999999
1
1
1
1
0.999981
0.999992
0.999989
0.999998
0.999983
1
0.999969
1
0.999737
1
0.999737
1
0.999928
1
0.999924
1
0.999943
1
0.999932
1
1
0.999905
1
1
0.99985
1
0.999959
0.99984
1
1
0.999878
1
1
1
0.999824
1
1
1
0.999644
1
1
0.999965
1
0.999703
1
1
1
0.999975
0.999428
0.996326
0.997583
0.997597
0.996647
0.99658
0.995558
0.995587
0.995106
0.995106
0.995106
0.995106
0.995522
0.999254
0.995106
0.995106
0.995352
0.999241
0.994833
0.999224
0.999351
0.994839
0.999266
1
0.994839
0.99907
0.999171
0.994833
0.999159
1
1
0.999946
1
0.999672
1
0.999236
1
0.99912
1
1
1
1
1
0.999874
1
0.999836
0.999958
1
1
1
1
1
1.68663e-13
5.36632e-09
1.73546e-05
0.000760324
0.00378306
0.00483522
0.430043
0.982994
0.999319
1
1
1
1
0.999996
1
0.999998
1
0.999982
1
0.999983
1
0.999994
1
0.999994
1
0.99999
1
0.99999
1
0.999998
1
1
1
0.999918
1
0.999868
1
0.999739
1
0.999743
1
0.999924
1
0.999924
1
0.999942
1
0.999933
1
1
0.999976
1
0.999647
0.999431
0.998701
0.998627
0.998631
0.998344
0.998377
0.999432
0.999497
0.998309
0.99835
0.997082
1
0.99653
1
0.997008
1
0.99642
1
0.995106
0.995106
0.995656
0.998526
0.995106
0.995106
0.995506
0.998552
0.995106
0.995094
0.995527
0.999089
0.995106
0.995941
0.995401
0.999153
0.999165
0.994839
0.999166
0.999962
0.994897
0.999213
0.999004
0.994833
0.998984
0.999953
0.994889
0.999151
1
0.999992
1
0.999665
1
0.999272
1
0.999205
0.99996
1
1
1
1
1
8.82727e-11
4.56564e-06
0.000692012
0.0068448
0.0211429
0.0290225
0.292082
0.911474
0.999811
1
1
1
1
1
1
1
1
0.999983
1
0.999984
1
0.999996
1
0.999994
1
0.999991
1
0.999994
1
0.999999
1
0.999996
1
0.999947
1
0.999953
1
0.999106
0.998595
0.99887
0.998854
0.998766
0.998762
0.999833
0.999848
0.99979
0.999831
0.999917
1
0.999829
1
0.99989
1
0.999827
1
0.998982
1
0.999353
1
0.998949
1
0.999283
1
0.997564
1
0.997067
1
0.99763
1
0.997044
1
0.995106
0.995106
0.995872
0.999581
0.995106
0.995106
0.995822
0.999623
0.999989
1
1
1
1
1
1.59913e-07
0.000199702
0.00297854
0.0140092
0.0471848
0.0669363
0.111809
0.721546
0.995141
0.995141
0.92238
0.922296
1
1
0.999929
0.999927
1
0.999993
1
1
1
1
1
1
1
1
1
1
1
1
1
1
0.999982
1
0.999983
1
1
1
1
1
0.999991
1
0.999988
1
0.999999
1
1
1
0.999663
0.997494
0.998918
0.999614
0.999602
0.999744
0.999754
1
1
1
1
0.999987
1
0.999933
1
0.999994
1
0.999941
1
0.999298
1
0.999688
1
0.999312
1
0.999687
1
0.998624
1
0.998535
1
1
1
1
1
1
1
1.11225e-05
0.000737685
0.00251129
0.00817666
0.0550314
0.0999226
0.0841267
0.458554
1
1
0.844274
0.844336
0.999996
1
1
0.999996
1
1
1
0.999993
1
1
1
1
1
1
1
1
1
1
1
1
1
1
1
1
1
1
0.999994
1
0.999999
1
0.999982
0.998183
0.997651
0.999916
0.999901
0.99994
0.999945
0.999984
0.999984
0.999969
0.99998
0.999998
0.999999
0.999998
0.999993
0.999996
1
0.999997
0.999983
0.999999
0.999997
0.999999
0.999996
0.999998
0.999998
0.999999
0.999986
1
1
0.999986
1
0.999999
0.999999
0.999998
0.999999
0.999738
1
0.999922
1
0.999744
1
0.999912
1
1
1
1
1
1
5.69062e-05
0.000722093
0.000600689
0.00385761
0.0365515
0.0918214
0.117471
0.356562
0.355967
0.232594
0.232429
0.9675
0.99999
0.886752
0.995132
0.967272
0.99999
0.887043
0.995256
0.721506
0.722523
0.999996
1
1
1
0.999996
1
1
0.999992
0.996969
1
0.999911
1
0.996905
1
0.999906
1
1
1
1
1
1
1
1
1
1
0.999586
0.997551
0.999886
0.999986
0.999988
0.999996
0.999999
0.999983
0.999984
0.999985
0.999999
1
0.999985
0.999992
0.999999
1
0.999995
0.999999
0.999968
0.999999
0.999981
0.999996
0.999966
0.999996
0.99997
0.999999
1
0.999999
0.999992
0.999997
0.999988
0.999998
0.999988
1
0.999999
0.999991
0.999998
1
1
1
1
5.62509e-05
0.000210069
0.000108751
0.00130551
0.00840728
0.0544169
0.218221
0.220456
0.255998
0.255399
0.258176
0.259823
0.132109
0.136633
0.943969
0.999624
0.820244
0.9828
0.943671
0.999642
0.820775
0.983213
0.813555
0.475077
0.648686
0.624937
0.813334
0.473308
0.650938
0.624212
1
1
1
0.999995
1
1
1
0.999998
0.999999
0.999999
0.999936
1
0.999999
0.999999
0.999931
1
1
0.999993
0.997743
0.998493
0.999989
0.999987
0.999995
0.999996
1
1
0.999977
1
0.999992
1
0.999975
1
0.999994
1
0.999994
1
0.999974
1
0.99999
1
0.999981
1
0.999983
1
1
1
0.999978
0.999998
0.999973
0.999998
1
0.999935
1
0.99994
1
0.999955
1
0.999943
1
1
1
2.36904e-05
2.60959e-05
1.89864e-05
6.97087e-05
0.00111078
0.0447585
0.289881
0.30462
0.284301
0.285971
0.155876
0.445049
0.210235
0.0813007
0.124168
0.624601
0.444151
0.160221
0.628195
0.221647
0.0838568
0.128021
0.0987254
0.20208
0.0725839
0.0733447
0.10916
0.219403
0.0725823
0.0753722
0.911661
0.999891
0.830666
0.986062
0.911767
0.999904
0.831284
0.986815
0.796133
0.539942
0.791939
0.538263
1
1
1
1
0.979766
1
0.979586
1
1
1
0.999902
0.996774
0.999421
0.999412
0.999857
0.999882
1
1
0.999998
0.999997
1
0.999987
1
0.999853
1
0.999886
1
0.999979
1
0.999869
1
0.999912
0.999889
1
0.999904
1
0.999932
1
0.999949
0.999978
1
1
0.999904
1
0.999958
0.999972
1
0.999999
0.999957
1
0.999955
0.999999
0.999999
1
5.39164e-06
1.42447e-06
3.00575e-06
2.49441e-05
0.000184758
0.0578122
0.0569501
0.0083476
0.00833292
0.418599
0.424093
0.287427
0.29085
0.327639
0.082101
0.136456
0.487341
0.0725839
0.0725823
0.328585
0.0848174
0.499201
0.155463
0.0725823
0.0725839
0.0898641
0.166809
0.0725823
0.0725839
0.0940262
0.174448
0.0725839
0.0725823
0.729733
0.94523
0.729291
0.942731
0.999997
1
0.999997
0.999325
0.99711
0.999913
0.999949
0.99997
0.999973
1
1
0.999997
1
0.999999
1
0.999998
1
0.999919
0.999882
1
0.999983
1
1
0.999915
0.999864
1
0.999982
1
1
1
1
0.999793
0.99986
1
1
0.999817
0.999845
0.999854
1
0.999858
1
0.999904
1
0.999938
1
0.999889
1
0.999946
1
0.999995
1.13258e-07
2.21674e-07
1.61664e-06
0.000110728
0.000974446
0.0244326
0.0234338
0.00203337
0.00202256
0.586083
0.380265
0.595306
0.439978
0.588705
0.340101
0.595306
0.435986
0.229823
0.234551
0.131866
0.458054
0.0725839
0.120874
0.106019
0.32639
0.0725823
0.0766534
0.999987
0.999998
0.999999
0.999959
0.997865
0.997336
0.997273
0.999289
0.999335
1
1
1
1
1
1
0.999986
1
0.999997
1
0.999989
1
0.999834
0.999949
1
1
0.999926
1
0.999839
0.99994
1
1
0.999933
1
1
0.999787
1
0.999778
3.13227e-09
1.13727e-07
5.74432e-06
0.000458573
0.000617309
0.00061754
0.000779755
0.000875297
0.0104644
0.010076
0.00068099
0.000684365
0.581604
0.446276
0.595306
0.44129
0.5825
0.439492
0.595306
0.438951
0.0740845
0.0752509
0.277101
0.359118
0.0749764
0.0753473
0.280737
0.3625
0.27894
0.595306
0.25515
0.542408
0.999988
0.999999
0.999998
0.999725
0.996061
0.998342
0.998325
0.999467
0.999497
1
1
1
1
1
0.999999
1
0.999996
1
0.999995
1
1
0.999998
1
0.999999
1
0.999996
1
8.21746e-10
6.02657e-08
2.86303e-05
0.00054639
0.000617106
0.000768074
0.000911711
0.000979694
0.0681948
0.0434793
0.00205362
0.00598258
0.0063488
0.000487924
0.0689341
0.0433496
0.00193426
0.00576537
0.0061198
0.000442311
0.000902818
0.000836196
0.595306
0.464298
0.595306
0.452353
0.595306
0.460441
0.595306
0.451457
0.191308
0.131719
0.193944
0.132088
0.999999
0.999999
0.999996
0.999269
0.995709
0.995696
0.996455
0.996371
0.999163
0.999055
0.999727
0.999731
0.999947
1
0.999993
1
1
1
0.999935
1
0.999995
1
0.999997
1
1
1
0.999989
1
0.999999
1
0.999999
1
5.21315e-10
8.32697e-08
4.57226e-05
0.000584921
0.000476447
2.66144e-05
2.41261e-05
0.000547763
0.000761857
0.000933242
0.000980415
0.0258169
0.0101494
0.00127398
0.000487924
0.00211604
0.000480675
0.025864
0.00996781
0.00126205
0.000442311
0.00203649
0.00043552
0.000169068
0.000589313
0.000168972
0.000574893
0.000208494
0.000735586
0.000208429
0.000609993
1
0.999998
0.999987
0.998797
0.995696
0.995685
0.996626
0.996504
0.998794
0.998818
0.999977
1
1
0.999942
1
0.999339
1
0.999942
1
0.999316
0.999968
1
0.999996
1
1
1
1
0.999989
1
1
1
1
0.999989
1
1.24284e-10
7.32727e-07
2.41991e-05
0.000209435
0.000171003
7.43729e-05
7.0199e-05
0.000171166
0.00100835
0.00124477
0.000176222
0.00072613
0.000326169
0.000215673
0.00122374
0.00125152
0.000208443
0.000995652
0.000389476
0.000877973
0.000744948
0.000813327
0.000400778
0.000847527
0.000355552
0.000229974
0.000547653
0.000208494
0.000818146
1
0.999998
0.999972
0.999088
0.999013
0.996272
0.996026
0.995972
0.995675
0.996673
0.996534
0.997193
1
0.998398
1
0.99961
1
0.996947
0.999585
1
1
0.998371
1
0.999989
1
0.999906
1
0.999919
0.999975
1
1
6.9035e-10
2.4206e-06
2.17515e-05
6.4735e-05
5.42426e-05
7.18325e-05
6.94583e-05
0.00031732
0.00118829
0.00120583
0.000179977
0.00106761
0.000396995
0.000320363
0.00132007
0.00124577
0.000208473
0.00116849
0.000345364
2.43179e-05
0.000106773
5.01473e-05
0.000383442
1.80765e-05
8.65197e-05
3.52265e-05
0.000346889
0.000301651
0.000629491
0.000269112
0.00127954
0.999999
0.999998
0.99996
0.999307
0.999234
0.996836
0.996716
0.99517
0.995128
0.997377
1
0.998714
0.995913
0.999861
0.99322
0.997239
1
0.998767
0.99542
0.999922
0.992977
0.997428
0.999636
1
1
0.999611
1
0.997337
1
1.75814e-08
1.90514e-06
5.28287e-07
1.43012e-05
1.40309e-05
5.74791e-07
5.72852e-08
8.75696e-08
3.39464e-05
2.40846e-05
4.91169e-05
3.23573e-05
1.95198e-05
4.62208e-05
0.000381201
0.00125959
0.000601178
0.000566072
0.00119276
0.000206243
0.000359
0.00131967
0.000643973
0.000512583
0.00119921
0.00023353
0.000137475
0.000156018
0.000175765
0.00017924
0.999997
0.999997
0.999953
0.999382
0.999237
0.996955
0.996773
0.992562
0.998806
0.992569
0.996811
0.993254
0.997535
0.992424
0.993003
0.997825
0.998841
0.992442
0.997297
0.997179
0.999984
0.996007
0.999436
0.997019
0.999981
0.995449
0.999494
0.996852
1
0.9967
1
1.6149e-08
2.17759e-08
2.19409e-06
1.07733e-07
1.84914e-06
8.89029e-08
1.46205e-08
1.45928e-08
0.000104685
0.00023799
0.000159875
9.34118e-05
9.12635e-05
7.07237e-05
1.09799e-05
1.1552e-05
0.000198574
8.52967e-05
0.000176881
0.000100943
8.80435e-05
7.87347e-05
9.81087e-06
9.99917e-06
0.000339781
0.000545372
0.000396882
0.00046928
0.000407316
0.000173955
0.000360531
0.000192557
0.999993
0.999996
0.999984
0.999082
0.99897
0.999987
0.999857
0.999873
0.996334
0.992569
0.997842
0.996098
0.99243
0.998106
0.993957
0.993341
0.996868
0.996139
0.99351
0.997219
0.99348
0.996503
0.997496
1
0.994829
0.998924
0.997371
1
0.994011
0.999184
1.98367e-09
1.83612e-08
9.89488e-07
1.292e-05
1.5111e-05
1.29302e-07
8.51041e-07
1.17099e-05
1.18708e-05
1.14567e-07
8.57999e-08
8.1765e-08
0.000263246
8.59003e-05
0.000506481
0.000331875
0.000204613
4.68353e-05
0.000202498
0.000375142
7.00756e-05
0.000400875
0.000252125
5.60951e-05
0.000301159
0.000615975
0.000362268
0.000495388
0.999989
0.999992
0.999939
0.999198
0.999095
0.999968
0.999657
0.999724
0.992584
0.992569
0.995756
0.992562
0.997061
0.997585
0.993828
0.99976
0.992496
0.99243
0.995693
0.992423
0.997098
0.997613
0.993299
0.99976
0.994346
0.993173
0.998608
0.995624
0.993833
0.998594
0.993174
0.995455
3.50175e-10
1.94457e-08
1.27943e-07
1.27032e-07
1.45377e-08
2.8449e-11
1.06395e-11
4.25301e-08
4.73675e-06
1.54925e-06
9.1998e-07
5.68274e-06
4.23467e-08
4.24344e-08
4.23719e-08
3.05184e-07
4.25908e-08
4.25301e-08
4.26344e-08
5.37461e-06
1.59808e-06
9.52632e-07
5.16675e-06
4.2445e-08
4.60249e-08
4.35547e-08
2.84408e-07
4.25883e-08
4.25493e-08
0.000163988
2.79923e-05
0.000125038
1.24845e-05
0.000134296
2.59982e-05
0.000153516
1.58747e-05
0.999994
0.99999
0.999929
0.999027
0.998962
0.993599
0.999002
0.998928
0.993503
0.999951
0.999552
0.999666
0.992555
0.993258
0.992886
0.994185
0.998083
0.997062
0.992457
0.993031
0.992568
0.99758
0.994215
0.996819
0.994688
0.999009
0.994473
0.999038
1.48095e-12
1.62316e-07
4.23799e-08
1.34345e-07
2.14325e-08
8.96505e-11
2.17175e-11
6.18053e-06
1.25261e-07
3.25803e-07
3.22252e-06
4.25599e-08
4.24367e-08
1.29522e-07
4.26633e-08
1.5801e-07
4.26242e-08
4.25767e-08
4.89283e-07
9.12423e-08
4.59778e-07
6.23951e-06
1.41405e-07
3.00224e-06
3.45194e-07
4.25495e-08
4.25305e-08
4.26497e-08
1.10015e-07
1.19128e-07
4.26345e-08
4.32073e-08
4.88055e-07
8.51015e-08
4.46667e-07
0.999995
0.999995
0.999807
0.999898
0.999994
0.999991
0.999994
0.999296
0.998426
0.99474
0.998104
0.993142
1
0.998549
0.99959
0.999257
0.998346
0.994694
0.99807
0.99304
1
0.998567
0.999582
0.999252
0.998317
0.999996
0.999408
0.998384
0.999994
0.992858
0.992592
0.994609
0.995368
0.992555
0.992293
0.994184
0.994975
-2.80885e-31
4.44575e-07
2.52491e-07
5.30147e-08
1.62003e-09
3.21106e-07
2.07403e-07
4.51367e-08
7.45759e-10
1.52373e-12
5.4642e-13
4.25495e-08
4.25305e-08
4.26267e-08
4.25599e-08
1.35001e-07
6.326e-08
4.78979e-08
8.18739e-08
4.31266e-07
2.56563e-07
4.25305e-08
4.25486e-08
4.25957e-08
4.25495e-08
8.53538e-08
4.26541e-08
5.52457e-08
5.12271e-08
2.78861e-07
2.3564e-07
0.999995
0.999996
0.999828
0.999906
0.999996
0.999982
0.999991
0.992006
0.996579
0.994226
0.997021
0.998638
0.999609
0.991795
0.996537
0.994153
0.996987
0.998522
0.999589
0.997428
0.996855
0.999666
0.997503
0.999951
0.999594
0.999029
0.99999
0.997825
0.99685
0.999639
0.99754
0.999949
0.999602
0.999408
0.999991
1.49697e-05
1.59573e-13
1.6033e-13
1.52765e-07
5.17721e-07
2.1602e-07
7.45704e-07
9.91898e-08
-1.88656e-27
1.21309e-07
3.80524e-07
9.75146e-08
7.40687e-07
7.38546e-08
-7.13059e-30
1.60823e-07
3.83973e-07
3.43531e-08
2.05979e-07
7.42062e-07
3.28303e-07
1.041e-07
3.0028e-07
2.87063e-08
9.55073e-08
5.25569e-07
3.07172e-07
0.999996
0.999997
0.999554
0.999966
0.998521
0.999761
0.999973
0.999046
0.999997
0.999994
0.999996
0.998176
0.998017
0.997506
0.999883
0.998
0.997928
0.997253
0.999839
0.996835
0.997635
0.997167
0.999088
0.999435
0.999369
0.996823
0.998032
0.996952
0.999244
0.998981
0.999387
3.17167e-14
6.39795e-16
1.40222e-05
2.77657e-24
1.26288e-05
3.83433e-08
3.76585e-07
7.30285e-08
6.86406e-07
5.25489e-08
2.46315e-08
6.55323e-07
8.72364e-07
3.37428e-08
3.69825e-07
4.75601e-08
6.31335e-07
4.16354e-08
1.80218e-08
6.14557e-07
4.46437e-07
4.37768e-07
7.20216e-07
3.84526e-07
7.00588e-07
0.999997
0.999997
0.999997
0.999583
0.999945
0.995966
0.999851
0.997366
0.999754
0.999957
0.997587
0.999928
0.998403
0.999994
0.999995
0.995204
0.996994
0.996637
0.997809
0.999165
0.999217
0.995328
0.996698
0.997412
0.998885
0.99757
0.999298
7.80624e-18
3.31648e-29
5.05392e-11
9.56673e-30
4.3891e-11
3.20795e-05
2.56579e-05
6.34073e-06
8.76044e-08
1.14917e-08
2.52746e-08
3.4043e-09
4.7373e-07
1.40105e-08
6.73649e-07
6.1982e-09
2.88221e-07
7.97627e-07
4.92842e-06
9.48665e-08
1.03819e-08
2.11432e-08
3.56631e-09
5.16944e-07
1.04012e-08
7.03579e-07
5.82083e-09
2.83741e-07
9.05756e-07
0.999998
0.999999
0.999999
0.999999
0.999999
0.999556
0.999136
0.995112
0.99956
0.994848
0.994922
0.998891
0.999656
0.999388
0.996929
0.999757
0.99635
0.99599
0.999162
0.999997
0.999995
0.995251
0.99742
0.995457
0.997261
1.26733e-15
4.17793e-35
5.66105e-17
2.10156e-35
5.93471e-17
5.8877e-07
4.31937e-09
5.15405e-07
3.33435e-09
8.76172e-05
6.98334e-05
6.21506e-06
1.21122e-06
5.18232e-08
4.35158e-06
1.49337e-07
3.2838e-09
3.79465e-08
3.30379e-09
3.2979e-07
9.56526e-08
7.01274e-07
1.97345e-08
5.58316e-06
8.71261e-07
2.1495e-08
3.2006e-06
1.71238e-07
3.04508e-09
2.63172e-08
3.03737e-09
3.73007e-07
1.2697e-07
8.09359e-07
3.2634e-08
0.999997
0.999999
0.999998
0.999996
0.999995
0.999997
0.999997
0.999784
0.998566
0.995191
0.998761
0.993954
0.996645
0.992747
0.997778
0.991386
0.994731
0.99694
0.999786
0.998642
0.995904
0.998759
0.995038
0.997346
0.993959
0.998409
0.992371
0.995126
0.996934
4.98053e-15
1.24846e-15
4.14899e-34
1.25043e-15
-2.45123e-34
1.01294e-11
4.60039e-15
7.62952e-12
3.06005e-15
1.34811e-05
3.95442e-07
1.1178e-05
3.50989e-07
9.74196e-05
6.65969e-05
0.000165239
4.00986e-05
7.54675e-05
3.90279e-05
0.00015951
3.38594e-05
5.05924e-06
4.78203e-07
7.03993e-07
1.89503e-06
3.92764e-06
2.10169e-07
4.32042e-07
1.29827e-06
0.999997
0.999987
0.999985
0.999987
0.999985
0.99999
0.999885
0.99999
0.999923
0.999742
0.99975
0.999536
0.996821
0.999124
0.997318
0.994069
0.990811
0.994299
0.990285
0.996302
0.992745
0.996743
0.990528
0.999614
0.997269
0.999158
0.997549
0.994098
0.99153
0.994261
0.990765
0.996236
0.993229
0.997007
0.990663
9.0055e-11
-2.98867e-32
2.97545e-14
1.68772e-16
2.26343e-14
-5.57329e-31
1.63689e-09
3.09872e-15
1.42412e-09
3.07909e-15
2.68616e-06
9.43068e-06
4.53084e-05
4.51615e-06
7.48194e-07
4.91299e-11
4.86167e-11
3.13023e-07
3.82475e-06
7.34045e-06
3.93383e-05
4.02429e-06
7.37528e-07
4.86167e-11
4.91299e-11
2.95635e-07
6.09186e-05
2.98012e-05
0.000164496
1.07444e-05
5.18178e-05
1.82812e-05
0.000130213
1.02106e-05
0.999997
0.99999
0.999996
0.999989
0.999994
0.999689
0.999727
0.999799
0.999813
0.999559
0.998536
0.999649
0.99895
0.999417
0.995742
0.999276
0.99654
0.999527
0.996456
0.999404
0.996933
0.996987
0.992071
0.994611
0.992756
0.997471
0.992895
0.994632
0.993598
2.86367e-09
1.07466e-10
8.01894e-10
1.02957e-10
8.02075e-10
1.82489e-12
1.178e-11
2.05476e-11
1.00709e-11
2.2231e-11
2.84731e-13
1.19181e-09
6.06484e-10
2.84731e-13
4.22007e-11
4.34471e-13
2.27508e-11
2.46536e-11
2.84731e-13
9.67907e-10
5.46339e-10
2.84731e-13
4.46649e-11
3.97298e-13
2.48401e-11
2.53697e-11
2.12388e-06
6.86527e-06
4.18907e-05
6.40748e-07
3.85092e-07
8.2455e-10
1.6435e-09
1.57176e-07
2.35967e-06
4.95745e-06
3.52077e-05
7.53686e-07
3.83262e-07
6.26936e-10
1.26288e-09
1.68397e-07
0.999997
0.999993
0.99985
0.999973
0.99989
0.999979
0.998106
0.998939
0.998686
0.999237
0.999517
0.995666
0.999554
0.994856
0.999078
0.990339
0.998493
0.993118
0.999629
0.996557
0.999665
0.995857
0.99914
0.991832
0.998538
0.994113
0.996531
0.990926
0.995117
0.991851
0.997107
0.991747
0.995612
0.992728
1.22892e-08
4.98074e-09
2.96978e-07
4.83589e-09
2.13203e-07
1.96002e-10
3.09054e-08
3.01076e-10
2.75289e-08
2.84193e-12
2.00427e-10
2.01235e-11
1.30401e-10
2.11045e-11
1.26373e-10
2.05626e-11
4.06597e-11
2.05626e-11
1.72435e-10
1.70663e-11
1.19707e-10
1.74723e-11
1.22603e-10
1.81619e-11
4.58148e-11
1.79187e-11
1.69995e-12
6.83536e-10
2.97797e-10
1.06738e-11
5.15432e-11
4.21469e-13
3.71652e-11
2.01839e-11
8.80641e-13
6.13072e-10
2.36168e-10
4.46205e-12
5.19115e-11
7.942e-13
4.12149e-11
2.12815e-11
0.999999
0.999993
0.999964
0.999993
0.999978
0.999987
0.999495
0.999892
0.999621
0.999931
0.999337
0.990712
0.99852
0.993643
0.999967
0.997631
1
0.996018
0.999372
0.992366
0.998604
0.994888
0.999952
0.997949
1
0.996817
0.997412
0.991297
0.996821
0.991361
0.996257
0.989906
0.994557
0.99073
0.997798
0.992214
0.997307
0.992091
0.996227
0.990006
0.994453
0.990947
1.15059e-05
3.45528e-09
2.47267e-07
7.09401e-06
2.0272e-07
6.48216e-06
2.06604e-11
2.0578e-11
4.73221e-10
1.54236e-10
5.1106e-09
8.06276e-11
3.09029e-08
1.10964e-08
6.28555e-09
6.17007e-09
3.74827e-11
1.84131e-11
5.8037e-10
2.77864e-10
5.15908e-09
8.39714e-11
2.5367e-08
1.01733e-08
5.59609e-09
5.65914e-09
9.2998e-12
3.91744e-10
2.5268e-11
2.02513e-10
2.39058e-11
2.4592e-10
2.0578e-11
2.619e-10
2.16259e-11
1.8889e-10
2.08937e-11
2.06919e-10
1.81619e-11
6.9808e-11
9.94103e-13
7.34102e-11
1.41714e-11
7.26806e-11
2.01667e-12
8.15303e-11
1.70467e-11
0.999998
0.999994
0.999987
0.999982
0.999981
0.999981
0.999934
0.999989
0.999961
0.999998
1
0.998225
1
0.999004
1
0.999805
1
0.999403
1
0.998466
1
0.999161
1
0.999891
1
0.99962
0.996511
0.990256
0.99408
0.993122
0.999309
0.99684
0.999843
0.996278
0.996472
0.990525
0.994131
0.993108
0.999213
0.996984
0.999765
0.996115
4.84153e-06
2.50775e-05
0.000117872
2.58166e-05
0.000129546
1.71943e-09
9.64442e-07
3.93646e-06
8.59165e-07
3.59036e-06
2.05948e-11
2.07313e-11
4.1108e-11
2.18518e-09
4.88121e-10
9.10893e-09
4.07099e-08
8.1094e-09
6.21036e-10
4.73286e-09
2.11665e-11
6.75163e-11
4.003e-11
1.74266e-09
2.91871e-10
9.00299e-09
2.65396e-08
6.94772e-09
3.79344e-10
4.34976e-09
5.9248e-11
4.86412e-10
3.59874e-11
3.54441e-10
5.50463e-11
2.13517e-10
2.05948e-11
4.41257e-10
3.3905e-11
3.2528e-10
3.10023e-11
2.09162e-10
1.97861e-11
0.999991
0.999995
0.999976
0.99997
0.999992
0.999964
0.999992
0.999159
0.999357
1
0.999645
1
1
0.999971
1
0.999892
1
0.999543
0.99938
1
0.999745
1
1
0.999975
1
0.999944
1
0.999995
0.997778
0.999965
0.998549
1
0.999115
0.999992
0.997962
0.99994
0.998663
1
0.999244
0.997976
0.994892
0.998985
0.993521
0.997675
0.994779
0.998658
0.993438
4.67083e-06
8.56035e-05
1.25755e-05
9.34285e-05
2.15447e-05
5.03971e-05
0.000361097
5.57204e-05
0.000380183
1.0316e-08
3.77382e-06
1.02161e-06
5.97734e-07
8.8026e-07
6.76625e-06
1.27885e-06
5.1781e-06
8.79711e-07
3.62561e-06
9.76132e-07
6.09686e-07
8.51276e-07
6.5241e-06
9.63627e-07
5.24445e-06
8.52221e-07
2.26409e-11
2.27421e-11
2.49773e-07
5.77922e-08
6.18176e-10
1.42409e-09
3.65606e-11
2.28484e-11
2.7255e-07
5.89985e-08
3.74836e-10
1.3787e-09
3.23792e-10
0.999992
0.999997
0.999922
0.999589
0.999516
0.999507
0.999455
0.999665
0.999778
0.999571
0.999649
0.998987
0.998456
1
1
0.998758
1
0.999555
0.999976
0.999469
0.999993
0.999009
0.998663
1
1
0.99899
1
0.999583
0.99996
0.999523
0.999992
0.99991
0.996264
0.999589
0.997475
0.999999
0.998203
0.999868
0.996276
0.999395
0.99755
0.999998
0.998288
0.00041297
3.50485e-06
0.000310106
0.000323511
0.000316875
0.000285
1.50624e-05
1.8649e-06
0.000102182
1.94315e-05
0.000185363
1.94157e-05
0.000221671
0.000884066
0.000144885
0.000418779
1.98082e-05
3.02697e-06
0.00012468
2.19873e-05
0.000222709
2.06716e-05
0.000225882
0.000946036
0.000143296
0.000454234
4.89595e-08
4.50346e-06
4.04557e-06
2.10323e-06
6.46628e-06
1.34777e-05
4.26736e-06
4.58392e-06
4.03481e-06
2.15532e-06
6.95503e-06
1.23117e-05
5.70633e-06
5.34361e-10
0.999997
0.999998
0.999925
0.999114
0.998361
0.999149
0.998296
0.99733
0.997219
0.996966
0.997002
0.999575
0.997492
0.999637
0.996259
0.999715
0.997038
0.999995
0.996482
0.99942
0.997038
0.999479
0.995351
0.999578
0.996033
0.999993
0.995477
0.998136
1
0.99814
0.99968
0.99832
0.999987
0.998188
1
0.997931
0.999535
0.998292
0.999966
0.000328236
0.00204013
0.00215578
0.00202979
0.00214933
1.35761e-06
0.00156554
0.00177046
0.00159068
0.00170204
2.14494e-05
1.50596e-05
3.15239e-05
0.000199318
1.50624e-05
0.000253478
0.000443339
0.00153743
4.98126e-05
0.000533522
2.77179e-05
1.98344e-05
3.05263e-05
0.000233288
1.98082e-05
0.000302989
0.000522956
0.00159744
5.82773e-05
0.000609167
1.20893e-07
1.18732e-05
2.13252e-05
1.19295e-05
2.57446e-05
7.43877e-09
0.999999
0.999999
0.999969
0.998091
0.996658
0.995561
0.996653
0.995555
0.993018
0.993398
0.997594
0.993034
0.997495
0.998979
0.993034
0.998702
0.993031
0.997754
0.992798
0.992796
0.997602
0.99283
0.997409
0.998604
0.992885
0.998644
0.992855
0.997495
0.998155
0.99497
0.998577
0.994252
0.99834
0.994192
0.997719
0.994413
0.998061
0.993802
0.997887
0.993672
0.00198503
5.67605e-05
0.00197954
0.00193784
0.00197791
0.00192884
2.1011e-06
0.00210715
0.00107837
0.00171327
0.000891071