/*--------------------------------*- C++ -*----------------------------------*\
| =========                 |                                                 |
| \\      /  F ield         | OpenFOAM: The Open Source CFD Toolbox           |
|  \\    /   O peration     | Version:  5.x                                   |
|   \\  /    A nd           | Web:      www.OpenFOAM.org                      |
|    \\/     M anipulation  |                                                 |
\*---------------------------------------------------------------------------*/
FoamFile
{
    version     2.0;
    format      ascii;
    class       volScalarField;
    location    "1.8";
    object      k;
}
// * * * * * * * * * * * * * * * * * * * * * * * * * * * * * * * * * * * * * //

dimensions      [0 2 -2 0 0 0 0];

internalField   nonuniform List<scalar> 
12160
(
9.95213e-09
9.91951e-09
1.00199e-08
9.89989e-09
1.00512e-08
1.00081e-08
9.89012e-09
1.00777e-08
1.00169e-08
1.00074e-08
9.88612e-09
1.01097e-08
1.00261e-08
1.00139e-08
1.00073e-08
9.88482e-09
1.01156e-08
1.00332e-08
1.00188e-08
1.00137e-08
1.00083e-08
9.88468e-09
1.01096e-08
1.0035e-08
1.00217e-08
1.00179e-08
1.00155e-08
1.00086e-08
9.88487e-09
1.01028e-08
1.00335e-08
1.00225e-08
1.002e-08
1.00194e-08
1.00177e-08
1.00131e-08
9.88512e-09
1.00955e-08
1.00312e-08
1.00221e-08
1.00207e-08
1.0021e-08
1.00222e-08
1.00277e-08
1.00945e-08
9.88524e-09
1.00892e-08
1.00294e-08
1.00214e-08
1.00206e-08
1.00214e-08
1.00234e-08
1.00301e-08
1.00926e-08
1.01014e-08
9.88518e-09
1.00835e-08
1.00278e-08
1.00207e-08
1.00202e-08
1.00213e-08
1.00232e-08
1.00285e-08
1.0082e-08
1.0097e-08
1.01594e-08
9.88492e-09
1.00782e-08
1.00266e-08
1.00202e-08
1.00198e-08
1.00209e-08
1.00227e-08
1.00285e-08
1.00722e-08
1.01006e-08
1.01232e-08
1.01625e-08
9.88452e-09
1.0073e-08
1.00255e-08
1.00197e-08
1.00194e-08
1.00206e-08
1.00223e-08
1.00298e-08
1.0066e-08
1.01018e-08
1.01325e-08
1.0089e-08
1.0082e-08
9.88417e-09
1.00678e-08
1.00247e-08
1.00193e-08
1.00191e-08
1.00202e-08
1.0022e-08
1.00315e-08
1.0062e-08
1.00996e-08
1.01102e-08
1.00662e-08
1.00412e-08
1.00681e-08
9.88408e-09
1.00672e-08
1.00241e-08
1.0019e-08
1.00187e-08
1.00198e-08
1.00216e-08
1.0033e-08
1.00604e-08
1.00949e-08
1.01177e-08
1.00534e-08
1.00358e-08
1.00346e-08
1.00428e-08
9.88407e-09
1.00645e-08
1.00239e-08
1.00187e-08
1.00184e-08
1.00194e-08
1.00213e-08
1.00339e-08
1.00606e-08
1.0087e-08
1.01252e-08
1.00685e-08
1.00294e-08
1.00273e-08
1.0014e-08
9.88407e-09
1.00607e-08
1.00239e-08
1.00185e-08
1.00181e-08
1.0019e-08
1.00208e-08
1.00343e-08
1.00608e-08
1.008e-08
1.01286e-08
1.00792e-08
1.00287e-08
1.00221e-08
1.00179e-08
9.88407e-09
1.00569e-08
1.0024e-08
1.00184e-08
1.00178e-08
1.00186e-08
1.00202e-08
1.00341e-08
1.00602e-08
1.00762e-08
1.01259e-08
1.00916e-08
1.00289e-08
1.00206e-08
1.00117e-08
9.88407e-09
1.00531e-08
1.0024e-08
1.00183e-08
1.00176e-08
1.00183e-08
1.00195e-08
1.00335e-08
1.00589e-08
1.00733e-08
1.01201e-08
1.01013e-08
1.0031e-08
1.00197e-08
1.00115e-08
9.88407e-09
1.00495e-08
1.00238e-08
1.00182e-08
1.00175e-08
1.0018e-08
1.00188e-08
1.00324e-08
1.00569e-08
1.00702e-08
1.01142e-08
1.0109e-08
1.00334e-08
1.00203e-08
1.00108e-08
9.88407e-09
1.00463e-08
1.00234e-08
1.0018e-08
1.00173e-08
1.00178e-08
1.00181e-08
1.00309e-08
1.00543e-08
1.00666e-08
1.01088e-08
1.01117e-08
1.00362e-08
1.00205e-08
1.00114e-08
9.88407e-09
1.00437e-08
1.00229e-08
1.00177e-08
1.0017e-08
1.00175e-08
1.00178e-08
1.00293e-08
1.00511e-08
1.00622e-08
1.01031e-08
1.01107e-08
1.00389e-08
1.00208e-08
1.00117e-08
9.88407e-09
1.00417e-08
1.00224e-08
1.00173e-08
1.00166e-08
1.00171e-08
1.00175e-08
1.00278e-08
1.00475e-08
1.00571e-08
1.00963e-08
1.01086e-08
1.00408e-08
1.0021e-08
1.00123e-08
9.88407e-09
1.00404e-08
1.00219e-08
1.00169e-08
1.00161e-08
1.00167e-08
1.00171e-08
1.00265e-08
1.00435e-08
1.00517e-08
1.00882e-08
1.01058e-08
1.00418e-08
1.00212e-08
1.00127e-08
9.88407e-09
1.00398e-08
1.00215e-08
1.00165e-08
1.00157e-08
1.00162e-08
1.00167e-08
1.00251e-08
1.00396e-08
1.0047e-08
1.00789e-08
1.01028e-08
1.00431e-08
1.00213e-08
1.00131e-08
9.88407e-09
1.00401e-08
1.00212e-08
1.00162e-08
1.00153e-08
1.00157e-08
1.00161e-08
1.00236e-08
1.00359e-08
1.00436e-08
1.00688e-08
1.00992e-08
1.00449e-08
1.00217e-08
1.00135e-08
9.88406e-09
1.00412e-08
1.00213e-08
1.00159e-08
1.00149e-08
1.00153e-08
1.00156e-08
1.00221e-08
1.00326e-08
1.00405e-08
1.00599e-08
1.00932e-08
1.00471e-08
1.00222e-08
1.00142e-08
9.88406e-09
1.0043e-08
1.00215e-08
1.00159e-08
1.00146e-08
1.00149e-08
1.00151e-08
1.00205e-08
1.00294e-08
1.00375e-08
1.0053e-08
1.00821e-08
1.00493e-08
1.00231e-08
1.00153e-08
9.88407e-09
1.00453e-08
1.00219e-08
1.00161e-08
1.00146e-08
1.00146e-08
1.00146e-08
1.00188e-08
1.00265e-08
1.00344e-08
1.00469e-08
1.00689e-08
1.00505e-08
1.00244e-08
1.00167e-08
9.88407e-09
1.0048e-08
1.00223e-08
1.00163e-08
1.00148e-08
1.00145e-08
1.0014e-08
1.00169e-08
1.00237e-08
1.00313e-08
1.00413e-08
1.00573e-08
1.00486e-08
1.00263e-08
1.00182e-08
9.88407e-09
1.0051e-08
1.00228e-08
1.00166e-08
1.00151e-08
1.00147e-08
1.00139e-08
1.00152e-08
1.00212e-08
1.00283e-08
1.00362e-08
1.00473e-08
1.00439e-08
1.00279e-08
1.00192e-08
9.8841e-09
1.00543e-08
1.00231e-08
1.00169e-08
1.00154e-08
1.0015e-08
1.00143e-08
1.00146e-08
1.00191e-08
1.00255e-08
1.00316e-08
1.00389e-08
1.0038e-08
1.00277e-08
1.00199e-08
9.88445e-09
1.00577e-08
1.00233e-08
1.00172e-08
1.00158e-08
1.00154e-08
1.00148e-08
1.00159e-08
1.00186e-08
1.00231e-08
1.00276e-08
1.0032e-08
1.00321e-08
1.00262e-08
1.00201e-08
9.8852e-09
1.00608e-08
1.00234e-08
1.00175e-08
1.00161e-08
1.00158e-08
1.00153e-08
1.00175e-08
1.00203e-08
1.00226e-08
1.00244e-08
1.00267e-08
1.00269e-08
1.00239e-08
1.00197e-08
9.88624e-09
1.00635e-08
1.00234e-08
1.00177e-08
1.00165e-08
1.00163e-08
1.00158e-08
1.00191e-08
1.00225e-08
1.00245e-08
1.0024e-08
1.00228e-08
1.00228e-08
1.00214e-08
1.00188e-08
9.88748e-09
1.0066e-08
1.00235e-08
1.00179e-08
1.00168e-08
1.00167e-08
1.00162e-08
1.00206e-08
1.00251e-08
1.00271e-08
1.00267e-08
1.00228e-08
1.00198e-08
1.00191e-08
1.00178e-08
9.88881e-09
1.00686e-08
1.00237e-08
1.00181e-08
1.00171e-08
1.0017e-08
1.00167e-08
1.00219e-08
1.00277e-08
1.00299e-08
1.00303e-08
1.00265e-08
1.00198e-08
1.00172e-08
1.00166e-08
9.89024e-09
1.00714e-08
1.0024e-08
1.00183e-08
1.00174e-08
1.00174e-08
1.00171e-08
1.00232e-08
1.00304e-08
1.00326e-08
1.00343e-08
1.00317e-08
1.00226e-08
1.0017e-08
1.00155e-08
9.89181e-09
1.00745e-08
1.00244e-08
1.00186e-08
1.00177e-08
1.00178e-08
1.00177e-08
1.00245e-08
1.00332e-08
1.00353e-08
1.00385e-08
1.00382e-08
1.00266e-08
1.00185e-08
1.00151e-08
9.89359e-09
1.00778e-08
1.00249e-08
1.00189e-08
1.0018e-08
1.00182e-08
1.00185e-08
1.0026e-08
1.00361e-08
1.0038e-08
1.00426e-08
1.00456e-08
1.00317e-08
1.00206e-08
1.00157e-08
1.0081e-08
9.89546e-09
1.00255e-08
1.00193e-08
1.00184e-08
1.00187e-08
1.00194e-08
1.00277e-08
1.0039e-08
1.00407e-08
1.0047e-08
1.0054e-08
1.00373e-08
1.00231e-08
1.00167e-08
1.00261e-08
1.00841e-08
9.89874e-09
1.00197e-08
1.00188e-08
1.00192e-08
1.00206e-08
1.00295e-08
1.0042e-08
1.00441e-08
1.00523e-08
1.00633e-08
1.00427e-08
1.00254e-08
1.00179e-08
1.00202e-08
1.00268e-08
1.00938e-08
9.90346e-09
1.00193e-08
1.00198e-08
1.00218e-08
1.00316e-08
1.0045e-08
1.00485e-08
1.00595e-08
1.00727e-08
1.00471e-08
1.00269e-08
1.00189e-08
1.00199e-08
1.00207e-08
1.00293e-08
1.0109e-08
9.91521e-09
1.00205e-08
1.00232e-08
1.00338e-08
1.00482e-08
1.00534e-08
1.00674e-08
1.00793e-08
1.00491e-08
1.00273e-08
1.00195e-08
1.00213e-08
1.00205e-08
1.00223e-08
1.00342e-08
1.0137e-08
9.93582e-09
1.00247e-08
1.00361e-08
1.00514e-08
1.00586e-08
1.00746e-08
1.00828e-08
1.00488e-08
1.00265e-08
1.00196e-08
1.00263e-08
1.00221e-08
1.00219e-08
1.0025e-08
1.00451e-08
1.01946e-08
9.9984e-09
1.00385e-08
1.00545e-08
1.00638e-08
1.00809e-08
1.00845e-08
1.00471e-08
1.00253e-08
1.00189e-08
1.00408e-08
1.00278e-08
1.00238e-08
1.00237e-08
1.00308e-08
1.00707e-08
1.02887e-08
1.00622e-08
1.00575e-08
1.00688e-08
1.00862e-08
1.00853e-08
1.00451e-08
1.00239e-08
1.00173e-08
1.00602e-08
1.00427e-08
1.00302e-08
1.00252e-08
1.00266e-08
1.00451e-08
1.01149e-08
1.04068e-08
1.01487e-08
1.00733e-08
1.00908e-08
1.00859e-08
1.00432e-08
1.00224e-08
1.00154e-08
1.00772e-08
1.00627e-08
1.00453e-08
1.00314e-08
1.00267e-08
1.00335e-08
1.00735e-08
1.01891e-08
1.04395e-08
1.01558e-08
1.00942e-08
1.00862e-08
1.00416e-08
1.00212e-08
1.00137e-08
1.00954e-08
1.00809e-08
1.00661e-08
1.00459e-08
1.00317e-08
1.00294e-08
1.00529e-08
1.0133e-08
1.0267e-08
1.05889e-08
1.01295e-08
1.00855e-08
1.00402e-08
1.00203e-08
1.00122e-08
1.00819e-08
1.0093e-08
1.00851e-08
1.00673e-08
1.00449e-08
1.00316e-08
1.00407e-08
1.01064e-08
1.02331e-08
1.04217e-08
1.06187e-08
5.74249e-06
1.00387e-08
1.00196e-08
1.00111e-08
1.00363e-08
1.0072e-08
1.00934e-08
1.00862e-08
1.00668e-08
1.00425e-08
1.0036e-08
1.00834e-08
1.022e-08
1.04156e-08
1.0596e-08
1.886e-06
0.000106419
1.48901e-05
1.00191e-08
1.00103e-08
1.00181e-08
1.00302e-08
1.0067e-08
1.00948e-08
1.00859e-08
1.00649e-08
1.0042e-08
1.00602e-08
1.01993e-08
1.04195e-08
1.06412e-08
5.19009e-07
4.47539e-05
0.00084432
0.000226724
3.13289e-05
1.00095e-08
1.00088e-08
1.00158e-08
1.0028e-08
1.0064e-08
1.00978e-08
1.00843e-08
1.00632e-08
1.00506e-08
1.01455e-08
1.04982e-08
1.07162e-08
1.32468e-07
1.69357e-05
0.000402453
0.0029706
0.001567
0.000426705
5.98333e-05
1.00073e-08
1.0015e-08
1.00264e-08
1.00648e-08
1.0274e-08
1.00824e-08
1.00902e-08
1.0188e-08
1.04575e-08
1.22678e-08
3.74726e-08
5.8681e-06
0.000170911
0.00157392
0.00610675
0.00505871
0.00261462
0.000715239
0.000106374
1.00069e-08
1.00149e-08
1.00256e-08
1.04462e-08
3.10548e-08
1.01304e-08
1.21442e-08
1.25979e-08
1.20252e-08
3.346e-08
1.80777e-06
6.61826e-05
0.000732647
0.00354016
0.00967337
0.00978466
0.00780332
0.00403375
0.00112002
0.000178878
1.00071e-08
1.00152e-08
1.0091e-08
4.79791e-08
1.50821e-06
1.513e-08
9.49161e-08
3.69584e-08
2.105e-08
4.84343e-07
2.34487e-05
0.000296044
0.00185287
0.00565477
0.0215084
0.0153421
0.0144448
0.0111159
0.0058404
0.00165875
0.000288797
1.00076e-08
1.00199e-08
2.05524e-08
2.51356e-06
5.17712e-05
1.56699e-05
1.45351e-06
1.18997e-08
1.10112e-07
7.36236e-06
0.000107579
0.000825748
0.00315325
0.0118158
0.560816
0.0273038
0.561297
0.5582
0.558492
0.0224165
0.0195829
0.014359
0.00775148
0.00232102
0.000437948
1.00084e-08
1.11154e-08
8.902e-07
8.99305e-05
0.000912367
0.000139323
1.44428e-05
2.29177e-08
1.65184e-06
3.48706e-05
0.000308733
0.00146963
0.00631402
0.148697
0.577089
0.640874
0.0304782
0.577639
0.518294
0.51919
0.64111
0.627552
0.627682
0.0292936
0.0237977
0.0167232
0.00877438
0.00278645
0.000569921
1.00504e-08
1.54116e-07
3.60705e-05
0.00146502
0.0085585
0.00033215
6.78673e-05
2.67827e-07
9.25836e-06
9.13033e-05
0.000570444
0.00329127
0.0501327
0.536702
0.536768
0.595224
0.595435
0.658244
0.649047
0.039959
0.0490125
0.658618
0.5869
0.587619
0.64888
0.615145
0.614876
0.0352519
0.0267523
0.0173166
0.00902563
0.00297396
0.000696966
1.88599e-08
8.37024e-06
0.000698294
0.00993633
0.0374302
0.00568361
0.000372172
4.67773e-06
1.93144e-05
0.000177919
0.00130715
0.0233959
0.630316
0.630467
0.641859
0.642305
0.646846
0.647227
0.7323
0.732356
0.679818
0.577746
0.925848
0.574786
0.95276
0.0506234
0.0530561
0.45458
0.454685
0.531128
0.531196
0.679755
0.693437
0.693639
0.576935
0.931866
0.575362
0.948488
0.554784
0.865629
0.543433
0.920163
0.55385
0.870077
0.543777
0.915438
0.0405387
0.0280974
0.0171636
0.0087972
0.00299642
0.000829434
8.54007e-07
0.000214593
0.00629424
0.0325298
0.0697996
0.060247
0.00295081
0.000182628
3.92532e-05
0.000348272
0.0148589
0.614371
0.614692
0.612876
0.613558
0.803954
0.803903
0.827692
0.827653
0.930078
0.908293
0.578463
0.985798
0.601954
0.511131
0.914747
0.932768
0.57894
0.986644
0.602185
0.51218
1.11975
0.683702
1.09937
0.675206
1.1209
0.683878
1.10007
0.675323
0.618485
0.973809
0.602923
1.0182
0.539293
0.968545
0.536953
0.985008
0.06189
0.0734049
0.259753
0.259923
0.317348
0.317447
0.533151
0.533259
0.636258
0.636473
0.617835
0.977321
0.603169
1.01462
0.63905
0.992308
0.630635
1.04623
0.639193
1.00285
0.632037
1.04689
0.538554
0.974361
0.537985
0.981911
0.521914
0.957283
0.520873
0.95247
0.0443827
0.0281613
0.0166241
0.00806284
0.00296085
0.00103601
3.46945e-05
0.00252307
0.0259782
0.0558936
0.0813849
0.140665
0.0241019
0.000655887
7.86757e-05
0.0102227
0.554424
0.554868
0.545927
0.546412
0.793025
0.792953
0.778696
0.778779
1.19332
0.735866
1.21187
0.742208
1.19635
0.73634
1.21991
0.743456
1.22079
0.756213
1.23732
0.759619
1.2278
0.757297
1.24566
0.760945
0.905034
0.984906
0.574671
0.491002
1.06475
0.598907
0.912448
0.987313
0.492393
0.57513
1.06559
0.599123
1.19614
0.674166
1.17372
0.661727
1.19793
0.674497
1.17462
0.661908
0.586022
1.00593
0.560945
1.06596
0.524376
0.976913
0.52165
0.995857
0.0710777
0.102443
0.197079
0.196834
0.190056
0.18996
0.249742
0.249735
0.337947
0.338015
0.773205
0.468836
0.857067
0.507586
0.77551
0.46919
0.858845
0.507888
0.983357
1.03575
0.5939
0.956421
0.582529
0.601655
0.985874
1.04672
0.594328
0.957556
0.582751
0.603678
0.585416
1.01005
0.561602
1.06325
0.608235
1.10245
0.608504
1.10317
0.523413
0.981821
0.522661
0.9908
0.508808
0.974621
0.507891
0.970466
0.0450317
0.0273357
0.0154013
0.00702949
0.00324279
0.00131985
0.000618087
0.0140319
0.0459692
0.0617528
0.0830181
0.121642
0.0432456
0.00460476
0.00351049
0.445493
0.445903
0.382484
0.382931
0.683491
0.683394
0.664995
0.665273
1.18749
0.7332
1.19432
0.733377
1.19387
0.734187
1.20113
0.73441
1.14725
0.714884
1.17986
0.72222
1.15502
0.716061
1.18645
0.723297
1.26283
0.715631
1.27517
0.71978
1.26689
0.71641
1.28378
0.721507
1.28199
0.71755
1.28639
0.725632
1.29068
0.719304
1.29421
0.727348
0.572405
1.0175
0.544481
1.08529
0.0698598
0.130631
0.266296
0.265745
0.207043
0.206428
0.150793
0.150602
0.151395
0.151349
0.288615
0.18931
0.354107
0.217749
0.295796
0.189931
0.361748
0.218597
0.545895
0.320478
0.474993
0.289395
0.549861
0.321076
0.481007
0.290123
0.810546
0.451113
0.907821
0.500699
0.813234
0.451579
0.909352
0.501028
1.05072
1.02051
0.584844
0.578968
1.0107
0.569474
1.06193
1.02281
0.585279
0.581272
1.01165
0.569686
0.571682
1.02054
0.545098
1.08144
0.588103
1.09492
0.58848
1.09649
0.0434596
0.0255553
0.0132984
0.00644612
0.00397671
0.00166464
0.00496714
0.0329085
0.051888
0.0583603
0.0705091
0.0904717
0.0781189
0.0385683
0.0276803
0.567565
0.567873
0.515526
0.515951
0.724876
0.725
0.704647
0.704767
1.24265
0.697288
1.24194
0.693442
1.25052
0.698903
1.24945
0.694996
1.18505
0.676951
1.22764
0.683498
1.19385
0.678667
1.23531
0.685117
1.27962
0.702972
1.2887
0.704815
0.0676895
0.108147
0.35994
0.359771
0.313799
0.31328
0.172994
0.172621
0.146336
0.145913
0.115954
0.0980632
0.136089
0.108654
0.121189
0.0974286
0.142807
0.108377
0.182973
0.125903
0.163825
0.117425
0.189683
0.126279
0.170082
0.117619
0.304679
0.16372
0.379427
0.204997
0.314447
0.165232
0.387329
0.206418
0.575679
0.315019
0.496581
0.273047
0.58043
0.315889
0.503262
0.274217
0.0403232
0.0220456
0.0112012
0.00716938
0.00493535
0.00179789
0.0161594
0.0421397
0.0472388
0.0522527
0.0671032
0.0799035
0.186805
0.0628536
0.435218
0.435513
0.425157
0.425482
0.59958
0.599466
0.5433
0.543676
0.649372
1.07046
0.651943
1.06783
0.649294
1.07138
0.652193
1.06716
0.634654
1.00842
0.618697
1.04503
0.634508
1.01131
0.619114
1.04402
1.24565
0.680474
1.24264
0.669541
1.25336
0.682175
1.24879
0.671013
1.19165
0.645006
1.22192
0.654942
1.19991
0.646761
1.22775
0.656405
0.0626294
0.103926
0.182421
0.259565
0.259133
0.216033
0.215551
0.109607
0.109278
0.0749131
0.0745235
0.0949749
0.0809016
0.119746
0.0818181
0.0972954
0.0809007
0.123896
0.0822136
0.190642
0.108148
0.158822
0.0939992
0.198931
0.109262
0.16481
0.0947265
0.284017
0.150591
0.293368
0.152186
0.0337925
0.0173478
0.0111286
0.00836535
0.00524658
0.00126429
0.0281692
0.0405916
0.0400731
0.0493833
0.0704983
0.0838294
0.0967039
0.0748349
0.583635
0.58348
0.532832
0.53271
0.915252
0.5518
0.553518
0.902903
0.918215
0.552195
0.553487
0.903361
0.596486
0.596482
0.625905
1.13838
0.634206
1.14622
0.625691
1.13978
0.634495
1.14469
0.606802
1.06911
0.583108
1.12297
0.606625
1.07334
0.583913
1.1218
1.1817
0.636616
1.18886
0.638065
0.0508357
0.0971169
0.163974
0.42366
0.423387
0.342411
0.341821
0.217313
0.216772
0.157196
0.1563
0.0745502
0.0961146
0.0907567
0.0573418
0.0748182
0.0953906
0.089245
0.058374
0.0650204
0.0459934
0.0614149
0.0470967
0.0656807
0.0463256
0.0614155
0.0476712
0.080083
0.060213
0.101596
0.0643153
0.082355
0.0604339
0.104419
0.0647879
0.188733
0.101716
0.154777
0.0832597
0.195815
0.102975
0.159025
0.0840426
0.0249485
0.0153848
0.0117594
0.00861139
0.00414326
0.0328933
0.0359975
0.0356464
0.0469144
0.0694305
0.0528067
0.057669
0.419428
0.419239
0.228803
0.229007
0.935247
0.55855
0.917422
0.567839
0.937229
0.558846
0.919936
0.56812
0.62835
0.628336
0.991199
0.536781
0.541045
0.96599
0.995486
0.537579
0.541185
0.967045
0.928
0.550723
0.931503
0.54847
0.929748
0.550953
0.930779
0.548347
0.592184
1.06491
0.563805
1.11391
0.592342
1.07072
0.564858
1.11514
0.0354586
0.0765185
0.155809
0.284297
0.422223
0.421449
0.343276
0.341464
0.21955
0.218553
0.151698
0.11901
0.162692
0.214245
0.148037
0.117144
0.161748
0.210528
0.0395795
0.0616162
0.054745
0.0362715
0.0396357
0.0615437
0.0547937
0.0365604
0.0388883
0.039546
0.0458664
0.0301123
0.0389935
0.0397897
0.0459177
0.0301573
0.0695598
0.0526718
0.0717838
0.0529524
0.0200939
0.0149193
0.0117392
0.00763735
0.0276289
0.0317426
0.0311116
0.0429981
0.0538377
0.0444524
0.0854071
0.0853578
0.0814771
0.0814462
0.507277
0.507041
0.220429
0.220034
1.01967
0.554826
0.999625
0.571196
1.02248
0.555404
1.00195
0.571622
0.593457
0.924565
0.568033
1.00809
0.593562
0.927633
0.568363
1.00857
1.01037
0.527301
0.530984
1.00414
1.01297
0.527953
0.530947
1.00371
1.0134
0.542412
1.0087
0.540513
1.01655
0.542983
1.00848
0.540506
0.0266244
0.0513073
0.11683
0.275972
0.624838
0.622686
0.596548
0.595507
0.480505
0.479717
0.441662
0.263763
0.554352
0.338155
0.434703
0.261577
0.550887
0.336851
0.347778
0.213078
0.2279
0.153573
0.183471
0.138982
0.343031
0.211389
0.228235
0.153608
0.180676
0.138226
0.112454
0.0865025
0.111372
0.0862405
0.0446039
0.0619049
0.055822
0.0442202
0.0446607
0.0615657
0.0558921
0.0440366
0.018357
0.0142692
0.0113508
0.0196606
0.0247901
0.0258123
0.0316231
0.0385542
0.0433286
0.0663306
0.066138
0.0659857
0.0658987
0.734672
0.983034
0.454853
0.617857
0.396896
0.550461
0.985903
0.735931
0.550922
0.454863
0.618256
0.396514
0.122753
0.126721
0.214679
0.184151
0.123363
0.126205
0.214524
0.183569
1.0409
0.551757
1.05668
0.569808
1.0432
0.552282
1.05806
0.570126
0.58391
1.08497
0.584093
1.08568
0.530933
1.01487
0.530874
1.0144
1.03025
0.542605
1.03356
0.54322
0.0229083
0.0364148
0.0756451
0.185635
0.56591
0.565707
0.634011
0.63259
0.700999
0.696563
0.664935
0.663877
0.397009
0.79157
0.458278
0.700763
0.339377
0.617284
0.397554
0.788816
0.457056
0.702915
0.339141
0.615682
0.490238
0.272058
0.486697
0.271251
0.373869
0.217479
0.24794
0.159332
0.15761
0.110502
0.37214
0.217125
0.248986
0.159259
0.157894
0.110543
0.09706
0.0760296
0.0966493
0.0760825
0.016793
0.0150485
0.0133447
0.0167023
0.0219341
0.0290083
0.0330271
0.0833037
0.0832568
0.121225
0.121302
0.0497398
0.0494967
0.0548257
0.05483
0.955294
0.679569
0.408434
0.520561
0.497035
0.322616
0.957989
0.680582
0.520984
0.408439
0.496059
0.322197
0.0801294
0.0824899
0.183108
0.147552
0.0795689
0.0818998
0.180606
0.146607
1.08094
0.573194
1.08204
0.573457
0.0196404
0.0293721
0.0514171
0.114473
0.322512
0.609748
0.608904
0.670202
0.667438
1.11979
0.606965
1.11901
0.59552
1.10574
0.602529
1.11177
0.593521
1.01854
0.914356
0.564256
1.06979
0.580042
0.49592
1.02037
0.915323
0.564704
1.06783
0.579492
0.496222
0.439995
0.358607
0.795999
0.649111
0.440371
0.358391
0.797475
0.647878
0.508721
0.288477
0.506837
0.288077
0.383251
0.230152
0.176016
0.122937
0.385163
0.230456
0.176471
0.123131
0.0184961
0.00647221
0.0152702
0.0217088
0.0247543
0.0314077
0.0804905
0.0803881
0.0809189
0.0810623
0.0374866
0.0394434
0.0384023
0.0472513
0.0375948
0.0392394
0.0385966
0.0474809
0.0457069
0.0457824
0.0549037
0.0562928
0.129085
0.107663
0.0546878
0.0561314
0.127819
0.108125
0.0217034
0.0231821
0.0385106
0.0743252
0.182178
0.615272
0.615066
0.703482
0.702714
0.640973
0.639729
0.75294
0.74847
1.25376
0.642973
1.22348
0.635691
1.24233
0.640229
1.22146
0.635154
0.934215
1.09873
0.52539
0.620027
1.13843
0.622053
0.939711
1.10239
0.620689
0.526393
1.13986
0.622404
0.387719
0.691881
0.387313
0.689469
0.00526996
0.0169756
0.0202163
0.0221962
0.0724705
0.071974
0.0440468
0.0434223
0.0914386
0.0913746
0.0845828
0.0843783
0.0358953
0.0365198
0.037236
0.0385145
0.0359103
0.0363269
0.037319
0.0384631
0.108927
0.0607923
0.0584997
0.0428541
0.108054
0.0607452
0.0580261
0.0428046
0.0444827
0.0471906
0.0446334
0.0472429
0.0245186
0.0277483
0.0512446
0.110614
0.315689
0.644731
0.643971
0.70136
0.700317
0.738281
0.735158
0.609692
1.22662
0.645758
1.10339
0.607458
1.21399
0.642665
1.09584
1.28031
0.668918
1.26631
0.673157
1.27116
0.666851
1.26563
0.673076
0.00688325
0.017733
0.0172018
0.025057
0.0723382
0.0720196
0.0373841
0.0359661
0.108079
0.0630158
0.0934146
0.196671
0.0910945
0.152833
0.107299
0.0630116
0.0938689
0.196942
0.0911932
0.154171
0.0830552
0.0828966
0.037096
0.041363
0.0397696
0.0424644
0.0370863
0.0411332
0.0398126
0.0421999
0.0699349
0.0473377
0.069407
0.0473107
0.0269843
0.0338123
0.0691184
0.171891
0.58357
0.582399
0.675583
0.673737
0.648327
0.647449
0.717055
0.716568
1.05015
0.583817
1.18817
0.622598
1.25368
0.65219
1.04374
0.581022
1.18585
0.621926
1.24256
0.649635
1.30102
0.681687
1.28931
0.679116
1.33421
0.706673
1.32412
0.704503
0.00876228
0.0153353
0.0150785
0.0241399
0.024001
0.0771245
0.0769208
0.0689286
0.0684004
0.0320813
0.0299834
0.169617
0.076996
0.0782097
0.175972
0.0862057
0.100577
0.169347
0.0770164
0.0788108
0.176098
0.086349
0.101833
0.144285
0.102518
0.101359
0.0805026
0.142098
0.10271
0.0995387
0.0795209
0.0291892
0.0419117
0.0946753
0.282878
0.605569
0.603349
0.693596
0.689818
0.75928
0.755613
1.14055
0.603768
0.577201
1.08581
0.589965
1.00039
0.578835
1.09018
0.591124
1.00689
1.14151
0.603862
1.22816
1.29629
0.643881
0.679856
1.22943
1.2872
0.644072
0.677899
1.31771
0.71345
1.30646
0.711101
0.00803931
0.0108203
0.0218783
0.0581812
0.0583549
0.0914279
0.0902079
0.138652
0.0747514
0.0437855
0.0754433
0.0507315
0.0428938
0.131353
0.0732241
0.0446948
0.0631788
0.0486462
0.0403149
0.0334826
0.0328093
0.0670528
0.071907
0.0672858
0.0723955
0.117179
0.0680303
0.111673
0.0660159
0.0312386
0.0518433
0.129471
0.485459
0.484522
0.565662
0.563724
0.57721
0.574194
0.706326
0.699093
1.08696
0.60567
1.19774
0.624941
1.14517
0.604297
1.06852
1.14893
0.605004
0.599372
1.18859
0.622655
1.12983
0.611161
1.12678
0.611001
1.13401
1.13405
0.612693
0.611896
0.00488733
0.0112968
0.0448683
0.116246
0.116057
0.116502
0.115595
0.119885
0.0593627
0.0314768
0.0622084
0.0354071
0.0432341
0.112869
0.0565741
0.0323007
0.0601889
0.0350333
0.0450075
0.0956714
0.104348
0.0496854
0.0472711
0.098296
0.100938
0.0654742
0.0507612
0.108066
0.0613075
0.101257
0.0587451
0.0330257
0.0631812
0.172994
0.476557
0.47497
0.527827
0.524591
0.610724
0.606002
1.19517
0.620303
0.512674
1.07841
0.564797
0.883729
1.17523
0.615368
0.509231
1.06015
0.560661
0.873526
1.22623
1.15725
0.6415
0.609124
1.16157
0.609896
1.21263
0.638778
0.00489873
0.0147553
0.132387
0.134381
0.135366
0.132371
0.0915361
0.0909671
0.158043
0.14707
0.102679
0.164595
0.171363
0.10593
0.08672
0.0495311
0.0349037
0.0682969
0.0433238
0.059844
0.0841454
0.0481599
0.0399683
0.0755716
0.0475383
0.071388
0.127334
0.0682508
0.156202
0.0777647
0.0343916
0.074751
0.204479
0.425828
0.423771
0.499547
0.494571
0.754102
0.452827
0.911965
0.472018
0.971102
0.507711
0.740796
0.959959
0.504723
0.44693
0.904346
0.470231
1.17875
0.61519
1.04249
0.546529
1.15667
0.611056
1.0287
0.544008
1.19354
0.648932
1.17474
0.646031
0.00566814
0.0159809
0.172822
0.10281
0.175458
0.102752
0.0468956
0.0466233
0.396288
0.291107
0.15534
0.207921
0.125342
0.199732
0.300212
0.208209
0.326816
0.42898
0.164969
0.238892
0.131865
0.209033
0.330522
0.213138
0.0693396
0.123145
0.0786971
0.14939
0.203677
0.105146
0.242202
0.117094
0.0348335
0.0842637
0.327614
0.41008
0.407677
0.326332
0.380355
0.378735
0.497993
0.794734
0.439878
0.493489
0.783413
0.436033
0.951081
0.878567
0.492945
0.455014
0.947563
0.492274
0.874233
0.454003
1.13362
0.605476
0.968917
0.525913
1.11349
0.602442
0.962307
0.524902
0.00372118
0.00966355
0.185365
0.206035
0.372276
0.0718734
0.18674
0.209872
0.385711
0.072341
0.0432601
0.0433426
0.430821
0.462472
0.309629
0.157231
0.205412
0.215702
0.464443
0.353292
0.485189
0.170157
0.215203
0.222368
0.104741
0.191092
0.11648
0.226549
0.0342366
0.10028
0.320407
0.370368
0.368299
0.318106
0.349904
0.347284
0.695331
0.791895
0.421773
0.797061
0.433385
0.372969
0.522678
0.361001
0.687101
0.782704
0.419162
0.785245
0.429674
0.371212
0.514632
0.356596
0.923465
0.860522
0.489508
0.451425
0.925532
0.489637
0.85319
0.449984
0.00271844
0.021114
0.0276437
0.0278037
0.0205196
0.0187323
0.0184444
0.189685
0.215773
0.429431
0.222849
0.412815
0.15347
0.356326
0.174181
0.0651489
0.153375
0.11482
0.212326
0.218216
0.436188
0.224701
0.419987
0.152765
0.367669
0.176657
0.0644466
0.163147
0.114525
0.520485
0.509014
0.24781
0.243827
0.545035
0.520969
0.254916
0.247812
0.0341594
0.0879593
0.262332
0.371106
0.33174
0.536114
0.368558
0.33163
0.535811
0.258484
0.322865
0.317223
0.752757
0.628777
0.853194
0.397492
0.454
0.343049
0.746642
0.626764
0.84547
0.4527
0.396453
0.342588
0.881063
0.475182
0.878187
0.474627
0.00259307
0.0399622
0.0223766
0.0393078
0.0219553
0.0196498
0.0193037
0.522259
0.436125
0.210089
0.267568
0.314994
0.150443
0.0793051
0.120948
0.0880568
0.14452
0.104444
0.0606714
0.064162
0.10228
0.531004
0.443395
0.270373
0.211577
0.320798
0.151366
0.125159
0.0844625
0.0878935
0.152459
0.103275
0.06036
0.0677191
0.0963742
0.031018
0.0386015
0.2411
0.236274
0.0432508
0.139476
0.137731
0.39666
0.32446
0.545449
0.317913
0.532438
0.331442
0.507132
0.298002
0.38521
0.323542
0.541792
0.316509
0.531036
0.323566
0.499884
0.297162
0.324686
0.43218
0.29241
0.318057
0.420249
0.28618
0.693147
0.58976
0.381977
0.337128
0.69101
0.588755
0.381556
0.33684
0.00222741
0.0391234
0.0689064
0.0446521
0.0302415
0.0388214
0.0685649
0.0450275
0.0299182
0.0268516
0.0265654
0.41061
0.201926
0.290527
0.134666
0.112391
0.0566635
0.233789
0.113393
0.0594234
0.0322882
0.414083
0.202668
0.29478
0.135391
0.118178
0.237763
0.0586552
0.114205
0.0603934
0.0321718
0.0321109
0.0708507
0.185734
0.179779
0.0718119
0.118517
0.116647
0.565849
0.531282
0.332923
0.312376
0.466921
0.270447
0.562953
0.52693
0.332529
0.312113
0.462782
0.269917
0.426067
0.438713
0.254618
0.436214
0.275034
0.255458
0.305079
0.328467
0.408266
0.431522
0.252586
0.425399
0.270289
0.249813
0.290041
0.317113
0.0187023
0.0316665
0.0315484
0.0402995
0.075623
0.044135
0.0835987
0.043169
0.0337106
0.0398641
0.0776765
0.0437888
0.0817391
0.0432007
0.033599
0.184485
0.077068
0.0401595
0.0930295
0.0406831
0.0263927
0.18739
0.0793849
0.0398312
0.0937321
0.0411382
0.0262531
0.0348145
0.0521679
0.192781
0.262604
0.29507
0.185125
0.259854
0.284033
0.0541305
0.0946396
0.0948899
0.508402
0.317455
0.453132
0.259948
0.50478
0.317628
0.450796
0.259755
0.415438
0.37541
0.432678
0.234101
0.252147
0.215142
0.405832
0.355341
0.431785
0.252004
0.232101
0.210595
0.00282065
0.0376697
0.0330253
0.0379955
0.0335457
0.0413475
0.083987
0.0469045
0.087909
0.0485855
0.0353477
0.0264501
0.0300349
0.0412628
0.0857438
0.0460026
0.0842256
0.0490855
0.0356844
0.0260694
0.0298951
0.058368
0.0309417
0.0578464
0.0306759
0.0394137
0.051897
0.0527306
0.164946
0.256973
0.32506
0.262279
0.309542
0.160507
0.249868
0.302809
0.251086
0.293078
0.0891019
0.0887677
0.380994
0.418736
0.381252
0.230559
0.253927
0.219685
0.368439
0.418356
0.357716
0.253842
0.228328
0.214919
0.00188086
0.0247235
0.033482
0.0249048
0.0335263
0.0207571
0.0206476
0.0409121
0.0839748
0.0522103
0.0870103
0.0507311
0.0316635
0.0360194
0.0298214
0.0398165
0.0462699
0.0261493
0.0408418
0.0872358
0.0532523
0.0884107
0.0520911
0.0317451
0.0353695
0.0286059
0.0407244
0.0461211
0.0259335
0.0583002
0.0472895
0.0442027
0.0483968
0.0456148
0.148048
0.243522
0.304933
0.257308
0.268542
0.389448
0.225575
0.144767
0.242678
0.287045
0.249273
0.261825
0.366726
0.221042
0.0801364
0.0808001
0.377066
0.235655
0.359899
0.233162
0.00164072
0.0378523
0.0405699
0.0380086
0.0405035
0.0247488
0.0396073
0.0248431
0.0396036
0.0316555
0.0317673
0.0851865
0.0513436
0.0881625
0.0480798
0.0343996
0.0437664
0.0375108
0.0420959
0.0271528
0.0396297
0.0248019
0.0393168
0.0874663
0.0517162
0.0886359
0.0485298
0.0352554
0.0460207
0.0386905
0.0444728
0.027077
0.0394909
0.0246837
0.0384616
0.0807035
0.0564496
0.0834506
0.0574715
0.0836297
0.0670749
0.0692845
0.137307
0.226673
0.245012
0.223247
0.253078
0.224805
0.387941
0.228365
0.363797
0.380243
0.244139
0.136207
0.224245
0.231394
0.215373
0.246406
0.221104
0.364188
0.223934
0.344935
0.361432
0.241631
0.000678521
0.0329075
0.0214859
0.0327363
0.0211837
0.0480397
0.0540767
0.0480625
0.0539245
0.0340951
0.0406297
0.0338114
0.0405216
0.0818779
0.0369266
0.0794261
0.039412
0.0844659
0.0378939
0.0820655
0.0401379
0.0384561
0.0441162
0.0392206
0.0401591
0.0394685
0.0451022
0.0400044
0.0411705
0.0811671
0.118003
0.141888
0.117698
0.141696
0.0801632
0.115954
0.0816103
0.115736
0.120049
0.122114
0.213647
0.229944
0.219616
0.200479
0.213023
0.286083
0.200006
0.334699
0.256122
0.391102
0.254672
0.400242
0.215745
0.220195
0.213935
0.202705
0.210075
0.272614
0.198168
0.318888
0.253452
0.370601
0.252337
0.379181
0.00451569
0.00120712
0.0407545
0.0251205
0.0404804
0.0245947
0.0470343
0.0555566
0.0469846
0.0554322
0.095387
0.0418652
0.091126
0.0435375
0.10057
0.0520002
0.0991532
0.0490978
0.0997638
0.0430917
0.0948673
0.0449696
0.104085
0.0521132
0.0993439
0.0504395
0.0357912
0.0325793
0.0347295
0.0335708
0.0369722
0.0339911
0.0360104
0.0347893
0.0635857
0.158913
0.128376
0.158585
0.129522
0.159599
0.186629
0.158351
0.185168