/*--------------------------------*- C++ -*----------------------------------*\
| =========                 |                                                 |
| \\      /  F ield         | OpenFOAM: The Open Source CFD Toolbox           |
|  \\    /   O peration     | Version:  5.x                                   |
|   \\  /    A nd           | Web:      www.OpenFOAM.org                      |
|    \\/     M anipulation  |                                                 |
\*---------------------------------------------------------------------------*/
FoamFile
{
    version     2.0;
    format      ascii;
    class       surfaceScalarField;
    location    "1.8";
    object      meshPhi;
}
// * * * * * * * * * * * * * * * * * * * * * * * * * * * * * * * * * * * * * //

dimensions      [0 3 -1 0 0 0 0];

internalField   nonuniform List<scalar> 
30582
(
0
0
0
0
0
0
0
0
0
0
0
0
0
0
0
0
0
0
0
0
0
0
0
0
0
0
0
0
0
0
0
0
0
0
0
0
0
0
0
0
0
0
0
0
0
0
0
0
0
0
0
0
0
0
0
0
0
0
0
0
0
0
0
0
0
0
0
0
0
0
0
0
0
0
0
0
0
0
0
0
0
0
0
0
0
0
0
0
0
0
0
0
0
0
0
0
0
0
0
0
0
0
0
0
0
0
0
0
0
0
0
0
0
0
0
0
0
0
0
0
0
0
0
0
0
0
0
0
0
0
0
0
0
0
0
0
0
0
0
0
0
0
0
0
0
0
0
0
0
0
0
0
0
0
0
0
0
0
0
0
0
0
0
0
0
0
0
0
0
0
0
0
0
0
0
0
0
0
0
0
0
0
0
0
0
0
0
0
0
0
0
0
0
0
0
0
0
0
0
0
0
0
0
0
0
0
0
0
0
0
0
0
0
0
0
0
0
0
0
0
0
0
0
0
0
0
0
0
0
0
0
0
0
0
0
0
0
0
0
0
0
0
0
0
0
0
0
0
0
0
0
0
0
0
0
0
0
0
0
0
0
0
0
0
0
0
0
0
0
0
0
0
0
0
0
0
0
0
0
0
0
0
0
0
0
0
0
0
0
0
0
0
0
0
0
0
0
0
0
0
0
0
0
0
0
0
0
0
0
0
0
0
0
0
0
0
0
0
0
0
0
0
0
0
0
0
0
0
0
0
0
0
0
0
0
0
0
0
0
0
0
0
0
0
0
0
0
0
0
0
0
0
0
0
0
0
0
0
0
0
0
0
0
0
0
0
0
0
0
0
0
0
0
0
0
0
0
0
0
0
0
0
0
0
0
0
0
0
0
0
0
0
0
0
0
0
0
0
0
0
0
0
0
0
0
0
0
0
0
0
0
0
0
0
0
0
0
0
0
0
0
0
0
0
0
0
0
0
0
0
0
0
0
0
0
0
0
0
0
0
0
0
0
0
0
0
0
0
0
0
0
0
0
0
0
0
0
0
0
0
0
0
0
0
0
0
0
0
0
0
0
0
0
0
0
0
0
0
0
0
0
0
0
0
0
0
0
0
0
0
0
0
0
0
0
0
0
0
0
0
0
0
0
0
0
0
0
0
0
0
0
0
0
0
0
0
0
0
0
0
0
0
0
0
0
0
0
0
0
0
0
0
0
0
0
0
0
0
0
0
0
0
0
0
0
0
0
0
0
0
0
0
0
0
0
0
0
0
0
0
0
0
0
0
0
0
0
0
0
0
0
0
0
0
0
0
0
0
0
0
0
0
0
0
0
0
0
0
0
0
0
0
0
0
0
0
0
0
0
0
0
0
0
0
0
0
0
0
0
0
0
0
0
0
0
0
0
0
0
0
0
0
0
0
0
0
0
0
0
0
0
0
0
0
0
0
0
0
0
0
0
0
0
0
0
0
0
0
0
0
0
0
0
0
0
0
0
0
0
0
0
0
0
0
0
0
0
0
0
0
0
0
0
0
0
0
0
0
0
0
0
0
0
0
0
0
0
0
0
0
0
0
0
0
0
0
0
0
0
0
0
0
0
0
0
0
0
0
0
0
0
0
0
0
0
0
0
0
0
0
0
0
0
0
0
0
0
0
0
0
0
0
0
0
0
0
0
0
0
0
0
0
0
0
0
0
0
0
0
0
0
0
0
0
0
0
0
0
0
0
0
0
0
0
0
0
0
0
0
0
0
0
0
0
0
0
0
0
0
0
0
0
0
0
0
0
0
0
0
0
0
0
0
0
0
0
0
0
0
0
0
0
0
0
0
0
0
0
0
0
0
0
0
0
0
0
0
0
0
0
0
0
0
0
0
0
0
0
0
0
0
0
0
0
0
0
0
0
0
0
0
0
0
0
0
0
0
0
0
0
0
0
0
0
0
0
0
0
0
0
0
0
0
0
0
0
0
0
0
0
0
0
0
0
0
0
0
0
0
0
0
0
0
0
0
0
0
0
0
0
0
0
0
0
0
0
0
0
0
0
0
0
0
0
0
0
0
0
0
0
0
0
0
0
0
0
0
0
0
0
0
0
0
0
0
0
0
0
0
0
0
0
0
0
0
0
0
0
0
0
0
0
0
0
0
0
0
0
0
0
0
0
0
0
0
0
0
0
0
0
0
0
0
0
0
0
0
0
0
0
0
0
0
0
0
0
0
0
0
0
0
0
0
0
0
0
0
0
0
0
0
0
0
0
0
0
0
0
0
0
0
0
0
0
0
0
0
0
0
0
0
0
0
0
0
0
0
0
0
0
0
0
0
0
0
0
0
0
0
0
0
0
0
0
0
0
0
0
0
0
0
0
0
0
0
0
0
0
0
0
0
0
0
0
0
0
0
0
0
0
0
0
0
0
0
0
0
0
0
0
0
0
0
0
0
0
0
0
0
0
0
0
0
0
0
0
0
0
0
0
0
0
0
0
0
0
0
0
0
0
0
0
0
0
0
0
0
0
0
0
0
0
0
0
0
0
0
0
0
0
0
0
0
0
0
0
0
0
0
0
0
0
0
0
0
0
0
0
0
0
0
0
0
0
0
0
0
0
0
0
0
0
0
0
0
0
0
0
0
0
0
0
0
0
0
0
0
0
0
0
0
0
0
0
0
0
0
0
0
0
0
0
0
0
0
0
0
0
0
0
0
0
0
0
0
0
0
0
0
0
0
0
0
0
0
0
0
0
0
0
0
0
0
0
0
0
0
0
0
0
0
0
0
0
0
0
0
0
0
0
0
0
0
0
0
0
0
0
0
0
0
0
0
0
0
0
0
0
0
0
0
0
0
0
0
0
0
0
0
0
0
0
0
0
0
0
0
0
0
0
0
0
0
0
0
0
0
0
0
0
0
0
0
0
0
0
0
0
0
0
0
0
0
0
0
0
0
0
0
0
0
0
0
0
0
0
0
0
0
0
0
0
0
0
0
0
0
0
0
0
0
0
0
0
0
0
0
0
0
0
0
0
0
0
0
0
0
0
0
0
0
0
0
0
0
0
0
0
0
0
0
0
0
0
0
0
0
0
0
0
0
0
0
0
0
0
0
0
0
0
0
0
0
0
0
0
0
0
0
0
0
0
0
0
0
0
0
0
0
0
0
0
0
0
0
0
0
0
0
0
0
0
0
0
0
0
0
0
0
0
0
0
0
0
0
0
0
0
0
0
0
0
0
0
0
0
0
0
0
0
0
0
0
0
0
0
0
0
0
0
0
0
0
0
0
0
0
0
0
0
0
0
0
0
0
0
0
0
0
0
0
0
0
0
0
0
0
0
0
0
0
0
0
0
0
0
0
0
0
0
0
0
0
0
0
0
0
0
0
0
0
-2.13895e-18
7.54369e-18
-3.06079e-25
2.26283e-17
1.13119e-17
1.50946e-17
0
0
0
0
0
0
0
0
0
0
0
0
0
0
0
0
0
0
0
0
0
0
0
0
0
0
0
0
0
0
0
0
0
0
0
0
0
0
3.76296e-18
1.18466e-34
-5.48902e-19
8.7213e-26
1.88397e-17
-1.50853e-17
-2.10307e-18
2.26283e-17
-3.77085e-18
2.2635e-17
-1.09166e-18
-2.39132e-25
-3.76824e-17
2.73146e-34
-1.61657e-18
2.26163e-17
5.46646e-18
-3.76939e-17
0
0
0
0
0
0
0
0
0
0
0
0
0
0
0
0
0
0
0
0
0
0
0
0
0
0
0
0
0
0
0
0
0
0
0
0
0
6.26869e-19
-3.24702e-18
2.38272e-17
-2.64855e-20
-4.50925e-17
-1.50173e-17
3.01225e-17
-9.89036e-36
-1.07572e-18
1.13039e-17
1.37331e-33
-5.54876e-19
1.52474e-25
1.87953e-17
0
6.40601e-17
-6.30427e-21
-3.01459e-17
-1.68393e-35
5.27086e-19
2.26163e-17
5.46646e-18
-2.26172e-17
-3.40133e-20
2.39933e-24
-2.25584e-17
2.10542e-34
-4.94985e-21
-3.00753e-17
0
0
0
0
0
0
0
0
0
0
0
0
0
0
0
0
0
0
0
0
0
0
0
0
0
0
0
0
0
0
0
0
0
0
0
1.18353e-17
2.25562e-17
1.50148e-17
3.80179e-18
3.85279e-20
1.77373e-34
6.78695e-20
4.06806e-20
2.63287e-17
8.66067e-18
-2.07832e-18
-1.48322e-17
-1.36654e-34
1.81315e-19
1.12398e-17
-2.02586e-18
-1.49876e-17
8.11154e-35
5.94627e-20
-3.76292e-18
0
3.2255e-19
6.55408e-24
6.55078e-18
-1.12236e-17
8.42021e-18
-1.12396e-17
0
0
1.56627e-18
-3.21843e-18
1.5388e-17
9.59408e-21
2.25992e-17
7.48661e-18
-4.50925e-17
-6.80266e-20
-3.00779e-17
-1.71241e-34
-7.52373e-18
-6.0181e-17
0
-3.05016e-24
1.68492e-17
-1.87002e-18
1.6838e-17
-3.7537e-18
0
-7.50972e-18
1.93902e-18
-7.57039e-18
7.50648e-18
-9.38888e-18
7.55948e-18
-9.48726e-18
1.88444e-18
0
0
0
0
0
0
0
0
0
0
0
0
0
0
0
0
0
0
0
0
0
0
0
0
0
0
0
0
0
0
0
0
0
-1.03805e-17
1.88721e-17
-1.50656e-17
1.13099e-17
7.63537e-18
-5.93795e-35
-3.24662e-18
2.25312e-17
2.05068e-18
-2.99748e-17
-2.2241e-34
7.64298e-18
1.13275e-17
0
-3.0275e-17
7.71947e-36
-1.60805e-11
-4.32919e-12
-1.60846e-09
6.46879e-14
-2.37643e-13
1.26188e-08
1.84139e-13
1.27717e-08
-1.12139e-10
6.83356e-19
-1.32057e-19
4.31712e-19
1.32637e-19
-3.8149e-18
1.46177e-17
9.58445e-19
9.05348e-18
1.74262e-18
2.82052e-34
-4.10438e-16
7.46513e-13
1.24846e-08
-9.95969e-15
2.51964e-08
5.27565e-19
9.15373e-19
2.04963e-17
3.73493e-18
2.61391e-17
0
-2.92152e-19
8.42824e-18
-3.7442e-18
1.2159e-17
-7.48522e-18
6.12966e-19
6.26551e-20
0
-3.90769e-19
6.5297e-18
0
6.3155e-19
2.02824e-23
-1.85929e-18
0
3.31944e-22
-7.36134e-16
7.31294e-19
-7.45587e-18
0
0
-3.07851e-17
3.80191e-18
7.60468e-18
-1.30376e-20
1.50148e-17
0
1.07928e-18
9.8361e-19
3.74481e-18
-5.40957e-18
-2.02577e-18
-1.61185e-33
0
1.22838e-22
1.12486e-17
-2.16e-18
-7.47854e-18
-6.22723e-20
1.02943e-17
-3.7406e-18
6.54971e-18
-3.74876e-18
0
-7.50353e-18
3.81577e-18
-1.1323e-17
7.50189e-18
-1.12568e-17
9.44504e-18
-9.46895e-18
3.75572e-18
9.28541e-19
6.25654e-20
-1.06572e-18
6.51995e-18
0
6.23322e-20
-6.53089e-26
-6.5228e-18
-7.25833e-26
4.65924e-18
0
1.29181e-21
-1.06035e-18
0
0
1.49055e-17
0
-1.00882e-18
7.46512e-13
0
1.05565e-10
-1.11428e-17
-7.6227e-19
1.24523e-19
1.30225e-17
6.18855e-20
-1.00839e-18
-7.5086e-18
2.82588e-17
-7.45733e-18
0
0
0
0
0
0
0
0
0
0
0
0
0
0
0
0
0
0
0
0
0
0
0
0
0
0
0
0
0
0
0
4.196e-18
1.31131e-20
-7.50279e-18
7.64348e-18
-7.60766e-18
-1.89629e-35
-9.50549e-19
-1.13563e-17
1.05665e-17
-3.01337e-17
-2.66966e-35
-7.39605e-20
3.74711e-18
8.7174e-18
-1.5025e-17
8.35622e-26
3.62221e-09
-2.68747e-12
1.13188e-08
6.24375e-11
1.24152e-08
7.91946e-09
-3.68599e-18
1.50777e-17
1.18302e-12
-9.07394e-11
-2.90369e-27
-3.52958e-09
2.95166e-10
1.13894e-09
-1.05285e-10
3.63128e-10
-7.71578e-09
-1.08971e-12
-5.64564e-10
-9.62187e-13
1.84931e-10
-5.33339e-20
-5.29131e-21
-9.6501e-19
-7.61438e-13
6.10227e-20
-1.74188e-13
-1.10736e-13
2.83101e-16
-9.25585e-35
-1.34437e-08
-4.09028e-16
-1.48523e-24
4.0312e-13
1.50227e-17
-2.59872e-34
-7.09807e-11
-3.73019e-18
0
1.63646e-09
1.23931e-08
6.09886e-20
-3.73059e-19
-7.56506e-18
0
4.70423e-19
-5.85433e-20
8.16938e-18
-9.96655e-19
3.10891e-18
4.74865e-19
-5.10592e-20
-1.36037e-19
1.12634e-17
-9.20556e-19
-1.78239e-17
3.87106e-19
1.31108e-17
-5.45569e-20
-3.98143e-13
5.37494e-12
9.95366e-13
3.55343e-11
8.8283e-35
1.48605e-08
-1.57281e-09
5.27736e-20
1.49945e-17
-3.30289e-35
-1.22051e-17
0
4.04349e-19
1.06388e-18
3.6575e-18
-7.53935e-19
-8.73885e-18
3.14978e-18
5.27589e-20
7.48866e-18
-1.40729e-17
5.12309e-19
6.26552e-20
0
-7.83256e-19
8.40014e-18
0
5.62807e-19
-7.4493e-18
0
-7.30539e-16
4.14108e-19
-1.49441e-17
-1.6985e-09
6.28028e-20
0
1.60056e-09
1.92822e-11
-6.19129e-20
8.95828e-14
4.40436e-22
-2.3835e-13
0
2.34675e-21
1.25155e-08
5.9723e-14
-1.24476e-14
0
0
-1.03805e-17
1.13728e-17
-7.50828e-18
-3.80646e-18
-7.48075e-18
3.53238e-34
3.11861e-18
1.0218e-18
7.59496e-18
-2.22143e-18
8.2784e-20
0
-4.21305e-34
3.78701e-18
0
0
9.49901e-17
1.38864e-08
-2.98608e-12
1.33928e-08
-7.48149e-18
-2.82737e-15
-1.85381e-18
5.27502e-19
-7.39182e-18
9.44249e-18
-3.73482e-18
2.0534e-17
0
-1.53037e-12
-1.10952e-10
5.47349e-14
-9.7172e-13
1.31525e-08
-7.75439e-18
-4.41684e-15
-1.7492e-09
7.84065e-22
1.78108e-18
-9.29013e-19
2.49196e-20
3.19822e-17
-4.68639e-18
3.01425e-17
2.98663e-18
7.59221e-19
6.25657e-20
-1.08197e-18
1.96087e-17
6.2316e-20
6.23354e-20
-9.31819e-19
1.11819e-17
-1.79893e-36
-1.86978e-18
-7.62414e-19
1.24699e-19
0
1.86405e-17
0
-1.12293e-18
4.08086e-13
0
1.27466e-08
-1.30287e-17
-9.90433e-19
6.22605e-20
2.14387e-17
0
-1.09574e-18
-1.86765e-18
1.30866e-17
7.48357e-34
4.98924e-19
-1.25565e-19
-2.17928e-18
2.05755e-17
0
2.26866e-19
-1.68392e-24
-7.69769e-22
-7.77857e-24
3.70879e-17
7.65236e-20
-1.86946e-18
-1.24686e-19
0
-1.24759e-08
-1.20692e-13
-6.23238e-20
7.30907e-18
-2.75454e-18
0
0
0
0
0
0
0
0
0
0
0
0
0
0
0
0
0
0
0
0
0
0
0
0
0
0
0
0
0
-1.28727e-17
1.88885e-17
-1.76377e-20
-3.75531e-18
-3.56961e-20
-6.73556e-34
-1.87656e-18
1.49892e-17
1.70055e-17
-1.49489e-17
-1.03396e-33
4.48111e-18
-1.51171e-17
4.4825e-18
-1.48149e-17
-2.98076e-26
-3.45944e-09
1.21391e-10
-1.27738e-08
-3.10125e-09
-1.27775e-08
-7.56359e-09
7.04009e-13
-2.36227e-10
-6.22103e-13
6.19467e-09
-9.08136e-27
5.12205e-11
-3.20203e-09
1.28283e-08
-3.14531e-09
1.27121e-08
1.08783e-10
3.07939e-13
6.41309e-09
5.7544e-13
6.28541e-09
0
4.82749e-12
-9.95345e-13
1.54562e-08
-8.41379e-35
-1.57154e-09
5.87227e-20
-3.94284e-09
2.41082e-17
1.1628e-26
-1.40076e-12
-1.66748e-17
0
-2.72743e-18
3.84261e-18
5.09026e-19
-9.85606e-18
-5.8654e-20
1.48786e-12
9.2665e-18
7.88473e-09
-2.68459e-17
0
-5.37494e-12
3.73442e-09
9.46945e-18
-1.53624e-08
1.15374e-26
1.39516e-12
-1.45338e-15
-6.02697e-20
1.90445e-17
-1.09396e-26
-9.47934e-18
-1.18675e-19
-1.1542e-18
-1.39454e-12
6.7458e-18
5.54369e-18
-7.46772e-09
5.06578e-18
6.02114e-20
1.14266e-17
-1.51492e-17
4.55705e-20
3.48376e-13
-3.02047e-25
-1.97773e-18
-6.98305e-17
-6.06729e-35
9.99877e-35
2.12698e-09
-1.88414e-24
4.97672e-14
-3.56473e-34
-6.73083e-09
-1.10767e-33
4.08705e-20
-2.41913e-34
-6.29122e-19
-8.85446e-19
1.55485e-18
-2.12659e-20
-3.73628e-19
1.48406e-19
4.14749e-25
7.12784e-19
4.93985e-19
-9.78861e-19
-1.06475e-35
2.37583e-16
2.7673e-20
-3.58149e-34
-3.26364e-34
1.06019e-19
-6.02645e-19
-9.56801e-19
-1.77555e-18
0
6.25482e-11
1.25601e-19
0
1.65395e-09
-1.26308e-08
0
3.9036e-19
1.04896e-14
0
-1.2527e-08
2.48849e-14
-1.18203e-13
-9.34651e-10
6.87393e-20
6.01548e-34
1.05169e-09
1.33931e-24
-8.95825e-14
-2.4515e-21
2.82087e-34
-4.21988e-21
-5.97214e-14
0
0
4.37257e-18
7.60637e-18
-1.01316e-32
-7.51535e-18
-7.52862e-18
1.09235e-35
6.48107e-18
-2.97751e-19
3.72914e-18
-1.04945e-17
8.86802e-18
-4.51128e-17
9.54462e-36
3.71033e-18
-3.00832e-17
1.27333e-26
-3.62217e-09
-3.52963e-09
2.985e-10
1.40794e-08
-1.07892e-10
1.3121e-08
-7.91954e-09
-7.71578e-09
-1.13015e-12
-5.64546e-10
-9.60107e-13
1.8495e-10
-3.66419e-25
-9.20715e-13
2.48988e-08
6.22638e-11
1.24153e-08
-2.76436e-18
1.13083e-17
1.18717e-12
-9.07021e-11
-5.4561e-20
6.07517e-19
-5.33761e-12
-3.48376e-13
-2.03371e-16
0
-1.48602e-08
-1.23533e-08
0
9.38729e-19
1.31348e-17
0
-1.05306e-16
-1.11997e-17
5.45245e-20
2.59851e-19
5.42605e-19
2.90176e-20
3.80755e-19
-3.73556e-18
4.76067e-18
-5.27529e-20
5.28241e-19
5.61238e-18
-7.20946e-19
-1.77753e-17
0
-5.91512e-19
-5.10122e-13
-7.61438e-13
0
1.14466e-13
1.8787e-13
2.12876e-17
0
-1.34436e-08
-2.74206e-09
5.10893e-20
1.86948e-17
0
-1.58935e-17
0
-1.92755e-10
2.58715e-08
-5.33276e-20
-4.43673e-19
3.03868e-19
-1.93507e-19
6.09887e-20
-2.31487e-19
-3.77749e-18
3.99377e-19
-3.44874e-18
3.10882e-18
5.10589e-20
7.50412e-18
-8.36034e-18
3.38722e-19
2.44234e-17
1.05176e-18
-6.27818e-20
-2.58698e-18
2.61829e-17
1.57749e-33
1.23514e-19
-1.85406e-18
2.04021e-17
-1.76565e-19
-8.55017e-22
6.23428e-20
0
1.25602e-08
3.09802e-13
-6.23247e-20
2.2068e-17
-2.76233e-18
-3.26342e-19
-3.43458e-20
-4.19797e-19
-3.25221e-20
8.05816e-20
-4.21565e-24
2.36014e-23
-4.22156e-20
3.7127e-20
1.2905e-34
-3.71145e-20
0
0
0
0
0
0
0
0
0
0
0
0
0
0
0
0
0
0
0
0
0
0
0
0
0
0
0
0
5.65804e-17
6.24079e-34
6.55856e-18
-7.57163e-18
2.12045e-17
-7.45357e-18
2.83242e-33
6.31535e-18
3.72629e-18
-1.28673e-17
-2.25988e-17
-3.71002e-25
-4.43708e-18
2.97074e-09
2.12856e-17
6.5014e-09
-4.67791e-34
-1.06735e-17
1.87997e-17
2.20696e-17
-3.76002e-17
-5.77134e-20
-1.89118e-12
-6.74502e-18
-2.00092e-10
0
-1.45849e-15
-5.8565e-20
3.78565e-09
-1.87238e-17
0
1.8974e-12
7.49858e-18
1.15332e-19
-5.69342e-19
-2.82823e-18
-5.95343e-18
1.68143e-17
-5.85004e-20
-1.2753e-12
-1.24714e-20
-7.56886e-09
1.40542e-17
3.60881e-25
-2.53817e-12
-8.0778e-11
1.94093e-12
-3.47692e-10
0
3.45726e-10
1.28302e-08
-1.18754e-19
-1.87403e-17
0
6.52504e-18
-5.96072e-20
-1.86562e-18
4.2303e-13
-7.53116e-18
2.15544e-18
1.71382e-10
2.06529e-17
-5.93194e-20
-9.36591e-18
1.40314e-17
-9.54707e-20
2.48837e-13
3.39915e-11
-1.02368e-34
3.59626e-20
2.48837e-13
-2.90221e-34
-8.15759e-11
3.18371e-20
-6.50745e-19
1.34434e-18
-3.59827e-20
-7.89657e-19
2.09024e-18
-5.68572e-20
-4.36057e-18
1.16234e-18
3.37528e-18
-6.22361e-16
-9.52045e-35
1.96336e-16
3.32952e-15
4.63421e-20
-4.20092e-34
5.68602e-20
1.06789e-19
-5.23515e-19
1.0385e-18
5.05131e-18
-1.04702e-18
-2.89745e-17
-4.63488e-20
6.34703e-11
-3.43706e-20
4.06937e-34
9.13174e-10
-3.25407e-20
-5.35005e-14
1.8618e-34
-2.48838e-14
0
0
2.12469e-17
-3.76411e-18
-7.5615e-18
-1.12836e-17
1.50992e-17
-6.94693e-35
1.87656e-18
8.74189e-18
-6.93442e-20
-1.28096e-17
-5.0658e-32
-3.00485e-17
-4.72989e-34
7.43348e-18
-3.00198e-17
4.03034e-27
3.45961e-09
-1.20147e-17
-4.34848e-12
-1.28286e-08
-3.13909e-09
-1.27133e-08
7.56375e-09
1.49336e-17
-3.77316e-18
1.13129e-17
5.47441e-13
6.28554e-09
2.98076e-26
1.21245e-10
-1.27737e-08
-3.10142e-09
-1.27776e-08
7.07112e-13
-2.36199e-10
-6.22101e-13
6.19467e-09
1.18804e-19
-6.86798e-12
3.73435e-09
5.78678e-18
-1.56092e-08
0
1.39516e-12
-1.45556e-15
-1.20536e-19
3.94269e-09
2.09768e-17
0
1.35825e-12
-3.89649e-18
0
-1.20861e-18
-1.39454e-12
6.9176e-18
8.06471e-18
-7.46772e-09
1.1821e-18
0
-1.44535e-12
7.67554e-18
-7.88473e-09
-1.52506e-17
-8.0562e-25
5.02656e-12
3.48377e-13
1.54562e-08
0
-1.23908e-08
5.87254e-20
1.12699e-17
0
-8.39811e-18
-5.17709e-34
-1.69775e-18
-1.71799e-18
5.77484e-19
1.00301e-17
5.86544e-20
5.5986e-18
-1.76523e-17
-5.88053e-20
4.97682e-14
1.6299e-12
-7.6209e-09
0
8.1408e-09
0
-1.14465e-13
0
6.0242e-09
-2.25051e-33
-7.1168e-20
-8.14795e-21
5.18512e-19
-8.87957e-19
0
3.7365e-19
-1.56607e-18
-4.55697e-20
1.05757e-13
-3.02048e-25
-2.78705e-18
-6.87271e-17
0
2.28108e-34
1.10085e-09
2.12443e-20
0
4.55557e-20
9.56056e-20
-2.44181e-34
-2.24128e-19
2.90522e-18
-6.66548e-19
0
6.16414e-19
0
-1.0085e-18
-3.25237e-20
-9.46072e-21
-4.33724e-20
0
2.96689e-34
0
0
0
0
0
0
0
0
0
0
0
0
0
0
0
0
0
0
0
0
0
0
0
0
0
0
0
0
2.23597e-18
-7.67545e-35
-1.68018e-17
-1.50929e-17
-3.01572e-17
-5.99518e-22
-1.50826e-17
-2.22752e-33
-2.19359e-18
3.79313e-18
7.98704e-18
-2.24229e-17
-1.57627e-33
7.55345e-18
-3.01094e-17
0
-2.14932e-18
-7.9629e-13
-3.60906e-10
1.13431e-17
-5.80915e-18
-7.19725e-16
-5.57881e-18
-8.75258e-19
-2.25824e-18
1.18921e-17
1.31862e-17
-5.60296e-18
1.6776e-17
-2.53876e-20
0
9.07927e-19
2.7314e-18
-1.32247e-17
6.48646e-18
-1.50326e-17
1.06489e-17
8.42334e-18
5.68337e-18
1.59448e-17
0
5.47225e-20
-1.6142e-19
-1.01031e-17
-2.51585e-18
0
3.4436e-17
0
5.46469e-18
-1.29866e-17
0
-4.74112e-18
1.10948e-17
0
-1.09406e-18
9.26545e-19
-1.0561e-18
1.00394e-17
-5.77141e-20
5.22619e-19
-1.79364e-18
-5.55447e-18
1.7706e-17
-1.20868e-19
-6.83883e-18
-8.95413e-18
4.18186e-18
0
-6.92214e-16
6.89961e-34
-3.65785e-18
0
2.74341e-18
-5.38056e-34
1.38983e-18
3.87592e-18
6.29173e-18
1.57805e-17
-6.02372e-20
-5.5859e-18
8.29883e-18
-7.14887e-32
-8.33344e-19
-3.29397e-35
-1.96686e-16
5.04766e-34
1.24073e-18
2.54998e-18
0
0
0
5.65922e-17
-1.20967e-33
-8.90198e-20
2.00729e-18
-3.79207e-18
-8.26552e-18
-1.71169e-17
-1.51247e-17
-7.43861e-34
-7.86224e-20
-3.00908e-17
5.66079e-36
1.4958e-19
-1.0818e-17
1.87997e-17
-1.30112e-17
2.14918e-17
-7.29768e-18
-3.04978e-35
-1.22703e-17
-1.8683e-18
-1.19356e-19
2.53817e-12
-4.94569e-12
-1.94096e-12
3.47691e-10
0
-3.46148e-10
-1.28302e-08
5.93803e-20
-3.78558e-09
-1.68593e-17
0
-1.90984e-12
1.49728e-17
5.96071e-20
-2.25739e-18
2.12252e-18
-5.66502e-18
5.24021e-18
-5.63887e-18
1.40394e-17
0
1.2753e-12
-5.61993e-18
7.56866e-09
1.96831e-17
-1.15427e-19
-2.04048e-12
-1.23234e-17
-2.00472e-10
0
-1.4557e-15
1.17137e-19
-2.06056e-17
0
9.38908e-18
5.76654e-20
2.37861e-18
-8.43817e-18
-4.20208e-18
2.04595e-17
5.84985e-20
-7.49013e-18
1.31299e-17
0
-4.47188e-18
1.46472e-19
1.06106e-17
-6.1956e-16
0
1.90728e-16
4.08943e-15
-4.63422e-20
-2.48837e-13
0
8.15759e-11
0
-1.07073e-18
-1.03213e-18
-2.00965e-18
6.87158e-18
-2.07445e-18
-2.50174e-17
9.26973e-20
7.89657e-19
-2.09024e-18
3.18188e-20
2.48838e-13
3.39915e-11
0
0
0
-2.85632e-33
-9.71076e-19
1.64939e-18
-3.59826e-20
0
0
0
0
0
0
0
0
0
0
0
0
0
0
0
0
0
0
0
0
0
0
0
0
0
0
-1.13536e-17
4.00736e-33
8.67174e-18
1.25131e-17
3.71491e-18
1.22448e-17
-1.29102e-17
-3.77019e-17
5.66484e-33
-1.5151e-17
-3.76501e-18
0
-2.26368e-17
3.09147e-25
2.12768e-18
3.17761e-09
-2.55062e-13
4.27227e-12
3.23003e-09
4.25608e-18
2.55059e-13
-6.35522e-09
-6.4413e-09
6.37652e-13
1.48353e-33
3.89055e-18
-7.3165e-18
-1.5941e-19
5.79997e-20
0
3.75559e-18
-1.12822e-17
0
-1.20541e-18
1.64234e-12
5.4745e-13
0
1.43534e-08
1.28074e-08
-2.14804e-18
3.78941e-18
-1.32835e-18
6.98461e-35
8.10566e-18
-7.56488e-18
0
-1.13392e-18
-1.33865e-20
5.56317e-18
7.4754e-18
-1.20615e-17
-2.20592e-18
-3.74178e-18
-1.19093e-17
5.86695e-20
0
1.67768e-18
-1.17349e-19
-1.27068e-17
-7.1417e-12
-2.0405e-12
0
-5.36137e-10
-1.2608e-08
-7.53081e-18
-1.77061e-17
1.17249e-19
9.31144e-18
5.86015e-20
-3.28844e-18
5.72052e-19
1.84878e-18
-5.57149e-18
1.40812e-17
-1.86252e-18
4.1637e-32
-1.69165e-18
7.34953e-19
0
0
1.15009e-18
0
-7.65834e-19
2.30827e-20
3.88712e-19
6.16426e-19
3.41486e-20
1.15593e-18
-2.1193e-18
5.84219e-20
-6.46987e-13
1.99079e-13
1.31105e-08
0
2.6534e-08
0
0
-1.93689e-33
2.71069e-19
7.20508e-18
5.45613e-18
-2.30672e-17
-9.0523e-20
0
0
0
0
-2.17858e-18
-4.35716e-18
-1.70399e-17
-7.58653e-18
-5.29288e-17
3.78052e-18
-2.26543e-17
1.42385e-33
2.06271e-18
-1.13424e-17
-1.67605e-17
-2.25818e-17
1.44278e-33
1.8764e-17
-3.76605e-17
0
1.92964e-18
2.29389e-18
9.34889e-18
-8.46091e-18
8.40203e-18
-7.53476e-18
0
2.57464e-17
1.40324e-17
-8.51814e-18
1.21444e-17
-1.88906e-18
0
-2.07782e-12
-1.49038e-08
4.68654e-18
-3.48376e-12
7.08377e-11
-1.81472e-18
-1.02254e-18
1.57065e-17
4.6512e-18
-3.72864e-18
8.34577e-18
-5.63189e-18
-1.20861e-19
-5.31231e-18
3.48375e-12
5.27468e-18
0
9.51146e-10
-1.20523e-19
-4.18133e-18
-1.48525e-17
0
2.5011e-18
2.77007e-18
1.20799e-19
-2.69319e-18
3.4789e-20
5.01281e-18
4.118e-18
6.02432e-20
-1.56802e-18
1.86714e-18
5.20357e-18
1.11225e-17
-5.47228e-20
2.55247e-18
3.82497e-18
-2.91734e-18
0
7.06126e-16
-5.77376e-20
-9.32083e-18
0
1.79333e-18
1.09409e-19
4.10553e-19
-7.41141e-18
-3.4645e-18
-3.82187e-18
1.1543e-19
-7.25246e-18
6.59115e-18
-1.73795e-31
-7.97565e-19
0
-3.22524e-16
2.70162e-34
7.23822e-19
6.8925e-19
0
0
0
0
0
0
0
0
0
0
0
0
0
0
0
0
0
0
0
0
0
0
0
0
3.94702e-18
0
-2.13708e-17
1.50676e-17
-2.26779e-17
-1.1233e-17
-1.5024e-17
-1.14661e-24
3.61488e-09
-3.44807e-09
3.10412e-09
4.13734e-13
-3.40071e-09
-2.24988e-12
7.88723e-09
-7.54045e-09
-4.13701e-13
-6.20859e-09
2.24992e-12
6.80206e-09
3.61048e-24
3.0534e-09
6.6623e-09
-5.95737e-20
1.38409e-10
2.04048e-12
1.0109e-12
-8.41631e-26
-1.26888e-08
6.07151e-20
-1.80318e-25
1.56353e-08
3.38861e-10
-5.92238e-12
5.92236e-12
0
-6.37647e-13
-5.63289e-18
-2.75811e-10
1.68962e-17
1.21214e-19
-9.51055e-18
3.3711e-17
-9.21877e-20
-5.65439e-18
-2.36503e-26
-1.56055e-08
-3.78236e-12
3.04621e-09
-5.96383e-13
-7.59963e-18
-3.68056e-15
1.47236e-17
-1.25118e-18
5.94107e-13
-6.09239e-09
1.94237e-18
2.26683e-17
-9.731e-09
3.07424e-24
0
-1.05532e-09
1.40922e-24
9.95329e-14
-1.36862e-13
0
1.52737e-08
-2.98612e-13
-4.98803e-18
0
-3.94161e-18
1.26185e-33
7.35211e-22
1.29597e-18
-3.83861e-18
-4.43399e-19
1.45834e-08
-5.75998e-20
0
-1.3674e-08
0
1.04512e-12
1.67967e-12
3.98147e-13
0
1.49557e-08
-2.02302e-09
1.6175e-13
-1.451e-17
1.15225e-19
-8.19753e-18
-5.64988e-20
-2.17017e-18
2.04477e-18
8.27816e-19
-1.67276e-17
-9.06655e-19
4.07383e-18
-1.62689e-24
0
4.4979e-34
0
0
0
0
0
-1.13536e-17
-4.48481e-33
-2.17518e-19
6.40443e-18
1.13403e-17
-1.239e-17
0
-2.2637e-17
-1.30414e-33
1.82112e-18
3.80251e-17
-1.27116e-17
-2.25658e-17
-6.24712e-34
2.12956e-18
1.50549e-17
-8.07574e-18
-1.52e-17
-5.64965e-25
3.19206e-09
-9.35217e-13
1.47723e-11
3.35254e-09
9.3522e-13
-6.38506e-09
-6.6414e-09
1.87045e-12
-6.99867e-18
-5.867e-20
0
-6.10165e-18
1.94379e-18
1.7849e-24
-6.08255e-18
1.63633e-11
4.97678e-12
0
1.54917e-08
-6.81385e-11
8.83226e-18
-2.02573e-19
-1.11064e-17
-5.8627e-20
-8.66944e-18
1.09412e-18
0
-4.39954e-18
1.67871e-18
-1.89051e-18
0
7.47809e-18
3.33813e-18
5.66809e-18
-1.54273e-18
-8.23358e-34
0
-1.22254e-17
-5.54023e-20
1.41372e-19
-4.47912e-12
-1.24419e-12
0
-2.88072e-08
-3.7528e-10
1.50469e-17
1.25775e-18
0
-1.78666e-17
0
1.02847e-18
-5.4303e-19
-2.81681e-18
1.38629e-17
-1.8476e-17
5.65285e-18
0
-4.97682e-13
2.07782e-12
-1.14779e-09
0
1.48757e-08
4.52575e-20
2.98606e-13
0
1.04373e-08
-5.84194e-20
1.77851e-19
2.09974e-18
4.04319e-18
-2.08939e-17
4.5261e-20
-3.8369e-19
2.32232e-18
0
-1.82543e-18
7.34934e-19
0
3.41237e-20
0
0
-1.27164e-18
1.35528e-18
-3.41404e-20
0
0
0
0
0
0
0
0
0
0
0
0
0
0
0
0
0
0
0
0
1.29085e-17
-2.3944e-22
-7.6458e-18
7.62869e-18
-7.51425e-18
-9.97858e-34
-1.06493e-17
1.07399e-17
1.70689e-21
1.24959e-17
0
-1.51121e-17
-1.51723e-33
9.32828e-20
1.14767e-17
-1.8683e-19
-3.14505e-17
5.93021e-20
1.17301e-17
3.67856e-09
-1.14742e-17
8.59436e-16
0
7.54234e-13
-2.92758e-15
5.99541e-20
-4.0313e-09
-1.11128e-17
0
-4.90007e-12
1.30475e-17
-5.92584e-20
2.21276e-18
-7.55851e-13
1.09366e-19
-1.55715e-17
-7.35638e-09
2.49375e-17
0
3.91093e-12
-1.79092e-18
8.05788e-09
1.85616e-17
0
-5.05141e-18
4.58951e-18
3.72746e-18
9.50078e-18
-6.81609e-18
7.45514e-18
1.35529e-18
9.28736e-18
-2.79469e-18
0
-1.3422e-17
-7.45364e-18
-6.00367e-20
-8.95812e-13
-3.29026e-18
-1.60113e-08
1.27509e-33
-4.57117e-17
6.15577e-20
2.57954e-33
-7.4458e-10
-3.03585e-12
1.21028e-33
2.56098e-18
-2.78993e-18
-1.60346e-17
6.07836e-18
-6.15305e-20
9.3223e-18
-8.22324e-19
0
-6.30406e-18
-1.81203e-17
7.4775e-17
0
-2.91831e-15
0
6.64038e-18
3.76507e-18
0
5.17282e-17
3.66793e-18
-5.97799e-20
6.87706e-19
-5.894e-20
7.05492e-18
3.3849e-17
-5.84332e-20
9.22106e-19
-3.8213e-18
-2.13558e-18
9.20428e-19
2.3409e-09
1.11226e-24
0
-2.70067e-20
3.73259e-14
2.68747e-12
0
2.02585e-08
-1.46721e-18
-8.64706e-34
2.70147e-20
-6.62938e-19
7.81069e-19
-6.17795e-18
0
0
0
0
0
0
1.27904e-17
0
4.72456e-17
-3.51213e-18
-7.86317e-18
-7.45803e-18
-1.51444e-17
-1.41453e-24
-3.5155e-09
6.0312e-11
-7.67699e-09
1.19036e-10
1.74254e-24
1.19012e-10
3.21142e-09
4.69929e-10
-1.33126e-10
6.16282e-10
2.55378e-10
3.92958e-13
-6.44695e-09
1.48163e-12
3.02956e-10
4.40355e-27
1.50254e-08
-3.8819e-12
3.29924e-09
1.40352e-08
2.99852e-12
1.36376e-08
-1.25665e-12
-6.51023e-10
5.68419e-18
-9.1659e-20
-7.38229e-13
-6.55048e-09
-1.00879e-18
3.39808e-18
-1.058e-18
1.26057e-17
5.9574e-20
4.02267e-09
-4.9768e-12
3.65587e-12
-1.09141e-25
4.98303e-12
0
-5.51286e-26
1.25035e-08
-3.8819e-12
-5.95243e-20
-1.87045e-12
-5.63279e-18
-8.03977e-09
2.81255e-18
-6.06014e-20
4.49508e-18
-7.5793e-18
-1.45836e-08
-1.39604e-24
0
1.30483e-08
1.36043e-08
0
-5.47452e-13
6.76844e-12
-3.93868e-18
0
3.10537e-08
5.8163e-17
-4.47907e-13
-2.36397e-13
-1.46962e-18
0
1.80085e-18
-2.07068e-18
5.65041e-20
-4.34153e-18
3.27784e-18
1.84417e-18
-2.12933e-18
3.61342e-18
4.82745e-18
-1.01228e-18
9.46312e-09
-4.34203e-20
0
-2.68033e-20
9.95311e-14
-1.53036e-12
0
-3.94196e-09
-6.845e-18
-4.34286e-20
0
6.01147e-20
3.65702e-19
-5.51421e-18
2.56039e-24
0
3.30874e-34
0
0
0
0
0
0
0
0
0
0
0
0
0
0
0
0
0
1.52113e-17
-3.66042e-35
-8.64297e-18
-4.31511e-18
-1.3314e-19
-1.5399e-17
1.05291e-34
2.70907e-19
-1.16749e-19
8.64277e-18
-2.28763e-17
-7.75699e-25
-3.47937e-09
1.17577e-11
1.46483e-08
-1.59258e-12
1.80409e-12
-2.62743e-08
1.17071e-10
-1.29459e-08
1.44506e-08
-7.61163e-09
1.4963e-19
1.01996e-17
1.06979e-18
1.94445e-18
2.34196e-18
-7.6569e-18
-9.84993e-13
-2.5028e-10
2.28275e-24
-3.57099e-09
3.53948e-09
1.33235e-08
1.36003e-10
1.30634e-08
-7.79239e-09
-2.79634e-12
-7.05069e-09
3.66002e-13
-2.82119e-10
0
1.32698e-17
-2.83677e-12
-7.46517e-13
-1.16614e-17
0
-1.48642e-08
-2.76523e-11
0
-1.12311e-17
0
9.31047e-18
-7.55176e-34
2.47118e-18
-5.21823e-19
2.80069e-18
-1.54975e-17
3.99785e-18
4.59016e-24
0
-5.65514e-18
8.41678e-18
6.39967e-18
5.75277e-20
0
-1.50857e-18
-1.30861e-17
6.09296e-20
8.0503e-18
-9.95352e-13
0
1.23686e-08
3.09777e-18
2.2339e-17
8.77399e-18
-5.74994e-20
1.63453e-19
-2.0518e-17
-6.07609e-20
1.03217e-18
2.8054e-18
-7.05567e-18
8.12696e-20
7.34681e-18
-8.92284e-20
8.95825e-13
-1.4677e-08
0
-1.20472e-19
0
-1.53997e-17
1.01965e-17
8.92252e-20
-7.89818e-19
-1.0475e-17
1.16467e-33
-2.98172e-17
4.09319e-18
-5.73453e-20
-1.99076e-13
1.18199e-12
-8.27835e-10
0
1.32175e-08
3.74194e-20
-2.98602e-13
0
-8.41091e-09
5.73335e-20
1.22577e-19
5.02367e-18
1.22838e-17
-1.59171e-17
0
2.9054e-19
-7.34468e-18
0
0
0
0
0
0
4.72824e-17
7.62869e-18
1.51444e-17
-1.51377e-17
-7.6458e-18
4.83552e-34
1.06496e-17
8.44196e-18
1.92488e-17
-3.03375e-17
7.54545e-32
-1.48184e-17
-5.43013e-35
-2.45362e-18
-1.41072e-21
0
8.10604e-19
0
3.86262e-09
3.09909e-12
6.52029e-18
-5.77241e-22
-3.77837e-18
-7.45543e-18
6.65338e-18
-4.12775e-18
-2.5081e-12
-7.72241e-09
6.52164e-18
0
1.43536e-19
-7.45369e-18
7.93138e-18
4.667e-18
0
7.86335e-12
-1.31909e-10
-5.61595e-18
1.52299e-08
0
-8.51115e-13
8.63078e-17
5.99543e-20
-1.68537e-17
0
1.58752e-17
3.8801e-25
5.83906e-18
8.50202e-13
-1.02876e-17
-1.52554e-17
2.63223e-10
1.18817e-17
5.98557e-20
-9.49166e-18
1.48662e-17
-5.98629e-20
-7.56472e-12
-5.55553e-18
-1.55652e-08
0
1.10523e-16
1.52203e-24
-1.95225e-19
-3.83213e-12
0
2.10642e-18
-1.50889e-08
-6.15554e-20
1.19442e-12
2.02804e-12
-5.49021e-34
-7.75105e-10
1.3712e-08
1.19554e-19
1.15068e-18
9.33565e-19
-3.94044e-18
1.36604e-17
-5.84239e-20
0
-1.11606e-18
3.05443e-18
6.30274e-18
-6.15268e-20
-1.49115e-18
9.86652e-19
5.04536e-18
-3.84647e-19
2.11382e-24
1.35617e-12
-2.63006e-34
1.20053e-08
-6.00162e-20
-9.94999e-19
3.73145e-18
-6.6049e-09
-2.79069e-25
0
2.70031e-20
4.97674e-14
-4.85239e-13
0
9.99272e-11
2.34186e-09
1.58964e-24
-1.42313e-24
-5.7233e-13
-7.26822e-19
2.11537e-18
0
0
0
0
0
0
0
0
0
0
0
0
0
0
2.13295e-17
1.11134e-18
4.7064e-17
-1.07667e-19
-2.25504e-17
-3.46078e-18
1.58157e-19
-2.53932e-25
-1.28745e-17
-3.16253e-09
1.77019e-17
-6.89993e-09
-4.86532e-34
1.49802e-17
-1.48359e-17
-4.80236e-20
-1.64234e-12
-1.28152e-12
9.52576e-18
5.95219e-20
-9.95288e-14
-2.22712e-12
1.05347e-10
0
1.00231e-08
-1.16885e-08
1.90717e-24
3.77129e-09
1.10776e-17
0
9.2901e-13
-1.20889e-17
0
1.45098e-08
-1.49659e-08
-1.1905e-19
-1.86582e-18
2.24898e-18
4.80287e-20
-1.06528e-18
-5.55789e-19
5.08949e-18
-6.5877e-18
-2.05079e-17
-3.05307e-18
-6.90644e-18
-1.26343e-17
1.10439e-19
-9.35227e-13
5.53864e-18
-7.54212e-09
-1.39229e-17
0
-4.42937e-12
3.90663e-09
-1.52163e-18
-5.63002e-10
0
2.94737e-12
6.90411e-17
0
1.9557e-18
0
-5.20662e-22
-4.4014e-26
-2.01066e-18
-2.94564e-12
-2.94897e-18
1.96214e-17
-7.81186e-09
4.92111e-18
0
-4.01003e-18
5.02867e-20
0
4.56795e-18
-8.33612e-13
-6.26675e-18
0
-6.31406e-09
-5.71076e-20
1.96894e-17
0
-2.16966e-17
3.70136e-20
1.46302e-18
1.89448e-18
-8.27015e-18
-5.40061e-18
0
7.87012e-18
-2.95949e-17
1.13111e-19
0
4.88946e-16
5.58485e-18
5.78024e-34
-7.87131e-18
1.92967e-18
-3.87204e-26
0
-1.04099e-34
2.82418e-24
0
4.72327e-34
0
0
0
0
0
0
0
1.48923e-17
9.51064e-35
8.64297e-18
8.63981e-18
1.51338e-17
1.3314e-19
8.64277e-18
-1.52509e-17
-2.03166e-34
3.38458e-18
-1.5399e-17
-5.04757e-25
-4.37335e-18
-3.57093e-09
3.53913e-09
1.3323e-08
-5.54705e-12
1.30642e-08
-1.45205e-17
-7.79239e-09
-2.70302e-12
-7.05061e-09
2.03864e-18
1.48061e-17
-2.10408e-34
-3.08285e-18
-8.53838e-16
1.86634e-13
-1.99072e-12
-1.23174e-08
-8.68243e-12
-1.29467e-08
-1.44508e-08
-1.13171e-18
3.19991e-18
2.00396e-18
-2.15218e-18
-3.62767e-19
-6.57386e-18
3.75695e-18
7.57245e-18
6.91393e-18
5.75291e-20
0
-3.85384e-18
-2.39379e-18
0
9.80437e-18
1.14696e-17
0
-6.911e-16
1.67911e-17
1.19597e-18
5.96206e-20
0
1.03745e-17
1.11779e-17
-1.53499e-17
-1.12578e-17
9.59652e-18
1.44196e-34
-1.22072e-17
-5.09716e-18
0
3.40446e-18
-4.01451e-18
-3.75015e-18
6.38012e-20
1.62727e-19
-5.95885e-20
1.32198e-17
2.76111e-18
-4.16146e-18
-7.52256e-18
-1.16444e-19
-2.51854e-19
9.65949e-19
0
3.29035e-16
3.02673e-15
5.82014e-20
-3.79109e-18
-9.37095e-19
-6.19791e-18
-1.86738e-17
-5.73407e-20
-3.48373e-13
6.96761e-13
-8.27381e-10
0
1.34526e-08
-3.74095e-20
-1.49302e-13
6.02192e-20
-2.4013e-12
-5.47437e-13
0
-8.40824e-09
0
-1.46776e-08
-1.3536e-08
-1.22681e-33
-2.04789e-18
2.93746e-18
2.94847e-18
-2.79026e-17
3.74206e-20
3.10993e-19
1.20429e-19
-1.28581e-18
3.06855e-18
-4.79557e-18
1.08632e-18
-1.12822e-17
0
0
4.46146e-20
0
0
0
0
0
0
0
0
0
0
0
1.92145e-17
-2.26336e-34
1.30813e-19
4.24026e-18
1.53644e-17
5.24665e-19
-3.31671e-17
-7.05644e-18
4.63123e-34
2.19622e-17
1.54637e-17
1.6944e-17
-3.84679e-17
0
-2.57796e-17
-1.69211e-12
-3.08644e-10
7.46126e-18
-2.23957e-12
1.2992e-08
-1.13076e-17
1.76472e-17
-4.23549e-18
8.56264e-18
1.21567e-17
-2.66357e-18
1.59773e-17
-3.72025e-18
0
3.74287e-18
-2.24499e-17
4.90517e-24
-7.16505e-25
1.5188e-19
8.14092e-17
0
0
-3.5213e-20
1.49292e-13
0
-1.31259e-08
1.00328e-33
1.0151e-33
-7.12806e-19