/*--------------------------------*- C++ -*----------------------------------*\
| =========                 |                                                 |
| \\      /  F ield         | OpenFOAM: The Open Source CFD Toolbox           |
|  \\    /   O peration     | Version:  5.x                                   |
|   \\  /    A nd           | Web:      www.OpenFOAM.org                      |
|    \\/     M anipulation  |                                                 |
\*---------------------------------------------------------------------------*/
FoamFile
{
    version     2.0;
    format      ascii;
    class       volScalarField;
    location    "1.8";
    object      nut;
}
// * * * * * * * * * * * * * * * * * * * * * * * * * * * * * * * * * * * * * //

dimensions      [0 2 -1 0 0 0 0];

internalField   nonuniform List<scalar> 
12160
(
1.10595e-09
1.14081e-09
5.36483e-08
1.1144e-09
9.62079e-08
6.43111e-08
1.11523e-09
1.63471e-07
8.5071e-08
7.7362e-08
1.13784e-09
1.1115e-07
1.16648e-07
6.99074e-08
1.86453e-07
1.15957e-09
7.59644e-08
1.46311e-07
1.60382e-07
5.05497e-08
4.34693e-08
1.18508e-09
6.78016e-08
8.08274e-08
1.41457e-07
7.62879e-08
3.71319e-08
3.56228e-08
1.21958e-09
5.39902e-08
7.37201e-08
1.12196e-07
7.56087e-08
1.02892e-07
1.84436e-08
5.42621e-09
1.26854e-09
3.92908e-08
5.77456e-08
9.69666e-08
9.28582e-08
1.20105e-07
2.49329e-08
5.91616e-09
9.95112e-09
1.33075e-09
3.16063e-08
4.01505e-08
5.87045e-08
1.90183e-07
1.21249e-07
2.63065e-08
7.48436e-09
1.06164e-08
1.34485e-08
1.40231e-09
2.83033e-08
3.10071e-08
3.77617e-08
5.98208e-08
1.5403e-07
3.71754e-08
1.20386e-08
7.6182e-09
2.1233e-08
9.81837e-09
1.47622e-09
2.83358e-08
2.77249e-08
2.82526e-08
3.52324e-08
6.32592e-08
1.03482e-07
1.86257e-08
6.89596e-09
3.05984e-08
5.15949e-09
1.1738e-08
1.54568e-09
3.12113e-08
2.80398e-08
2.50094e-08
2.65377e-08
3.40451e-08
4.9428e-08
2.37724e-08
6.33879e-09
2.30601e-08
3.5495e-09
3.37042e-09
4.00352e-09
1.61074e-09
3.62785e-08
3.17509e-08
2.50795e-08
2.37677e-08
2.41402e-08
2.36812e-08
1.26688e-08
7.99633e-09
1.72828e-08
3.29561e-09
9.2074e-09
5.92112e-09
5.64718e-09
1.67094e-09
4.11606e-08
3.92972e-08
2.82759e-08
2.43005e-08
2.07949e-08
1.78751e-08
8.74325e-09
1.77469e-08
1.48987e-08
5.13724e-09
1.15899e-08
3.8767e-09
6.05821e-09
3.46703e-09
1.74209e-09
4.05396e-08
4.88101e-08
3.53339e-08
2.84224e-08
2.06621e-08
1.66161e-08
7.67537e-09
4.40727e-08
1.26698e-08
2.03128e-08
4.86798e-09
6.21942e-09
1.07135e-08
2.09855e-08
1.84471e-09
3.28971e-08
5.01627e-08
4.62257e-08
3.93395e-08
2.35251e-08
1.8163e-08
7.73873e-09
2.08916e-08
1.31334e-08
1.21229e-08
5.90212e-09
9.69252e-09
6.74004e-09
4.71416e-09
2.0004e-09
2.43377e-08
3.77417e-08
4.86636e-08
6.84342e-08
3.17293e-08
2.34833e-08
8.60312e-09
1.86178e-08
2.02169e-08
9.38492e-09
8.3213e-09
1.31019e-08
1.2534e-08
9.02403e-09
2.24695e-09
1.80729e-08
2.6012e-08
3.52935e-08
8.928e-08
5.7535e-08
3.88558e-08
9.82593e-09
1.98025e-08
3.16861e-08
1.17886e-08
5.83502e-08
2.02547e-08
1.78128e-08
2.11232e-08
2.64788e-09
1.40097e-08
1.87398e-08
2.36942e-08
4.35066e-08
1.10181e-07
1.08655e-07
1.07599e-08
2.17792e-08
4.3202e-08
1.46785e-08
1.36709e-08
1.76144e-08
3.43011e-08
4.94261e-08
3.33124e-09
1.14536e-08
1.43319e-08
1.68212e-08
2.44801e-08
4.08103e-08
1.29839e-07
1.05762e-08
2.02344e-08
6.83427e-08
1.72691e-08
9.16765e-09
1.88506e-08
1.88763e-08
3.01684e-08
4.58011e-09
9.86333e-09
1.16438e-08
1.28577e-08
1.67671e-08
2.25379e-08
4.38056e-08
9.50339e-09
1.52734e-08
1.26028e-07
2.2033e-08
8.1609e-09
8.40876e-09
1.16933e-08
1.509e-08
6.86469e-09
8.91993e-09
9.9973e-09
1.04792e-08
1.27623e-08
1.54391e-08
2.31713e-08
8.16767e-09
1.08274e-08
4.60424e-08
3.05523e-08
8.1261e-09
4.83336e-09
1.511e-08
1.12685e-08
8.44432e-09
8.44232e-09
9.02602e-09
9.02413e-09
1.04206e-08
1.17048e-08
1.49164e-08
7.21238e-09
8.29877e-09
2.91831e-08
4.62929e-08
8.39807e-09
3.50395e-09
2.26677e-08
2.44313e-08
6.20207e-09
8.34389e-09
8.53304e-09
8.16215e-09
9.00316e-09
9.55241e-09
1.08886e-08
6.66432e-09
6.8797e-09
1.64726e-08
6.14281e-08
8.39211e-09
3.01344e-09
1.27309e-08
1.48731e-07
4.31112e-09
8.61093e-09
8.42341e-09
7.71577e-09
8.16848e-09
8.24221e-09
8.67294e-09
6.37135e-09
6.00796e-09
1.02193e-08
4.67559e-08
7.91136e-09
2.8811e-09
8.7479e-09
2.76984e-08
3.30182e-09
9.2937e-09
8.67638e-09
7.59586e-09
7.73851e-09
7.44613e-09
7.38269e-09
6.16519e-09
5.36205e-09
7.84008e-09
6.16454e-08
7.23454e-09
2.90378e-09
7.92449e-09
1.8182e-08
2.74343e-09
1.0536e-08
9.33285e-09
7.78319e-09
7.61637e-09
6.98452e-09
6.65473e-09
6.02628e-09
4.8526e-09
6.71333e-09
6.73857e-08
6.91116e-09
3.02073e-09
9.42244e-09
2.09562e-08
2.42189e-09
1.26699e-08
1.05147e-08
8.29546e-09
7.7664e-09
6.80039e-09
6.28452e-09
6.00102e-09
4.48611e-09
5.98152e-09
2.68067e-08
7.42895e-09
3.11391e-09
1.39805e-08
3.66778e-08
2.24068e-09
1.64499e-08
1.24777e-08
9.20145e-09
8.19351e-09
6.90998e-09
6.14696e-09
6.16874e-09
4.32312e-09
5.41388e-09
1.55698e-08
8.73599e-09
2.942e-09
2.65319e-08
1.1179e-08
2.1547e-09
2.36974e-08
1.56908e-08
1.06463e-08
8.93894e-09
7.28619e-09
6.23563e-09
6.30163e-09
4.45093e-09
4.9317e-09
1.02585e-08
9.74191e-09
2.63607e-09
2.81196e-08
1.05275e-08
2.13895e-09
3.76828e-08
2.08903e-08
1.28537e-08
1.00681e-08
7.92278e-09
6.54409e-09
6.25147e-09
4.73366e-09
4.41367e-09
6.97742e-09
8.88172e-09
2.39802e-09
1.37461e-08
8.34087e-09
2.18258e-09
4.97972e-08
2.83685e-08
1.59986e-08
1.16119e-08
8.79729e-09
7.01737e-09
5.94353e-09
4.37073e-09
3.90367e-09
4.99978e-09
6.55145e-09
2.48804e-09
1.03626e-08
7.482e-09
2.28799e-09
3.67411e-08
3.10377e-08
1.9377e-08
1.34497e-08
9.92137e-09
7.79173e-09
5.76339e-09
3.97416e-09
3.79409e-09
3.96873e-09
4.78754e-09
3.23663e-09
1.0147e-08
7.70005e-09
2.45725e-09
2.54958e-08
2.56833e-08
2.14601e-08
1.53599e-08
1.11499e-08
8.83605e-09
5.67653e-09
3.85651e-09
4.03056e-09
4.10408e-09
3.89952e-09
5.04713e-09
1.26354e-08
8.80002e-09
2.70083e-09
2.00309e-08
2.06955e-08
2.09055e-08
1.61284e-08
1.20831e-08
1.00525e-08
5.59281e-09
3.97801e-09
4.31807e-09
5.25757e-09
4.01578e-09
7.72467e-09
2.11933e-08
1.21537e-08
3.03749e-09
1.7165e-08
1.74154e-08
1.85381e-08
1.54276e-08
1.28923e-08
1.08957e-08
5.4898e-09
4.25586e-09
4.67661e-09
7.06611e-09
5.377e-09
4.72679e-09
6.74778e-08
2.20622e-08
3.49633e-09
1.56202e-08
1.54295e-08
1.64174e-08
1.44006e-08
1.33898e-08
1.08056e-08
5.40618e-09
4.62355e-09
5.09835e-09
9.46735e-09
7.68589e-09
2.9329e-09
2.70967e-08
3.76554e-08
4.12008e-09
1.49027e-08
1.427e-08
1.49047e-08
1.33763e-08
1.3254e-08
1.02929e-08
5.33335e-09
5.10735e-09
5.61848e-09
1.29691e-08
9.61274e-09
2.30639e-09
1.34015e-08
2.33344e-08
4.99679e-09
1.47516e-08
1.37135e-08
1.3947e-08
1.25666e-08
1.2875e-08
9.86153e-09
5.42461e-09
5.83121e-09
6.38884e-09
1.95589e-08
9.93616e-09
2.06495e-09
1.00496e-08
1.19902e-08
1.48556e-08
7.7156e-09
1.36327e-08
1.34744e-08
1.20158e-08
1.24065e-08
9.48008e-09
5.69417e-09
6.92472e-09
7.81782e-09
3.63989e-08
8.91674e-09
2.1918e-09
9.43045e-09
8.21047e-09
1.3947e-08
1.65527e-08
1.41482e-08
1.33941e-08
1.17277e-08
1.20063e-08
9.13225e-09
6.00896e-09
8.81207e-09
1.08643e-08
2.95385e-08
7.69798e-09
2.5267e-09
1.09616e-08
6.59915e-09
1.37564e-08
1.57419e-08
1.90739e-08
1.79826e-08
1.16811e-08
1.18153e-08
8.78422e-09
6.35648e-09
1.20833e-08
1.57557e-08
2.44605e-08
6.7388e-09
2.92634e-09
1.8851e-08
5.73556e-09
1.2023e-08
1.58026e-08
1.84031e-08
3.01965e-08
1.18232e-08
1.19074e-08
8.58634e-09
6.92101e-09
1.75404e-08
2.01071e-08
3.18859e-08
6.22179e-09
3.21958e-09
3.26157e-08
5.28277e-09
1.27034e-08
1.36754e-08
1.95649e-08
3.11267e-08
1.75503e-08
4.90385e-09
8.66921e-09
7.82848e-09
2.62185e-08
2.32549e-08
3.55025e-08
6.25954e-09
3.21229e-09
1.68151e-08
3.16709e-09
9.27259e-09
1.59423e-08
1.68895e-08
4.8486e-08
2.18004e-08
1.07451e-08
2.84615e-09
9.26568e-09
3.35862e-08
2.57814e-08
3.50052e-08
6.77343e-09
3.09002e-09
1.64825e-08
3.55689e-09
1.08844e-08
1.08829e-08
2.26877e-08
3.97382e-08
4.22416e-08
9.84351e-09
5.5888e-09
1.41393e-09
3.12678e-08
2.90827e-08
3.94241e-08
7.63887e-09
3.10766e-09
1.93801e-08
4.76845e-09
2.79402e-08
1.47751e-08
1.60243e-08
9.57279e-08
1.0298e-07
9.41927e-09
6.40007e-09
5.15279e-09
9.21836e-10
4.06239e-08
3.68555e-08
8.4326e-09
3.26926e-09
1.51507e-08
7.63827e-09
5.01422e-08
1.78178e-08
3.44752e-08
2.31721e-08
2.61682e-08
1.11204e-08
6.97945e-09
5.64498e-09
4.47656e-09
6.11678e-10
2.38379e-08
8.40481e-09
3.51818e-09
1.30663e-08
1.46965e-08
1.43194e-08
4.30599e-08
1.17029e-08
1.99821e-07
1.93301e-08
9.08446e-09
5.82831e-09
7.64174e-09
6.7679e-09
6.26859e-09
2.95919e-10
7.57449e-09
3.74194e-09
1.29911e-08
3.08126e-08
6.79574e-09
6.60545e-09
6.18463e-08
1.10447e-08
3.79158e-08
8.85875e-09
4.52923e-09
7.85217e-09
1.38413e-08
1.10377e-08
2.80933e-09
1.57122e-07
3.97928e-09
1.35963e-08
4.3344e-08
4.98403e-09
6.5677e-09
3.51743e-09
8.71331e-08
1.0717e-08
1.68025e-08
4.8177e-09
6.9108e-09
2.10202e-08
4.82373e-08
1.76519e-08
1.24674e-07
4.80896e-06
1.95318e-07
1.25482e-08
3.50706e-08
1.45967e-08
5.86821e-09
6.89691e-09
3.23712e-09
6.40838e-08
1.09622e-08
8.56318e-09
5.82407e-09
2.32111e-08
9.14473e-08
1.08161e-07
1.17914e-07
2.41328e-06
6.50771e-05
1.27442e-05
3.97731e-07
2.22431e-08
2.19953e-08
1.13208e-08
4.23167e-09
7.04093e-09
3.43687e-09
4.58429e-08
1.1177e-08
7.14462e-09
1.71183e-08
1.00293e-07
1.21684e-07
1.53694e-07
1.37356e-06
3.21156e-05
0.0003357
0.000144087
3.01802e-05
7.11282e-07
1.28528e-08
7.02027e-09
4.10658e-09
7.61883e-09
3.89205e-09
5.4989e-08
1.0632e-08
7.84214e-09
8.02712e-08
1.38633e-07
2.43236e-07
7.27916e-07
1.64811e-05
0.000126968
0.000801603
0.000779964
0.000424215
0.000102318
1.23781e-06
7.5455e-09
6.7466e-09
4.26721e-09
8.65684e-09
1.1723e-08
4.63641e-08
9.05444e-09
2.23717e-08
1.77506e-07
2.71439e-07
4.57375e-07
5.32342e-06
6.03455e-05
0.000560356
0.000809584
0.000830427
0.000820068
0.000684416
0.000330668
2.07672e-06
6.48635e-09
6.33117e-09
4.21482e-09
2.97146e-08
1.95596e-07
2.05259e-08
1.25721e-08
1.16636e-07
2.13589e-07
3.30085e-07
1.93916e-06
2.63533e-05
0.000192109
0.000770877
0.000510045
0.000835616
0.000846001
0.000845082
0.000732727
0.000221523
3.3687e-06
7.986e-09
4.91901e-09
7.11423e-09
6.39334e-07
3.94285e-06
1.44753e-06
9.11752e-08
1.38049e-07
1.82366e-07
6.88719e-07
9.33461e-06
7.35889e-05
0.000687097
0.000513392
0.00168555
0.000654328
0.00168618
0.00168694
0.00168732
0.000853088
0.000855882
0.000856509
0.000769821
0.000206945
5.27982e-06
6.38024e-09
3.50182e-09
2.07153e-07
9.21924e-06
5.59147e-05
1.77103e-05
9.52424e-07
9.12872e-08
2.48342e-07
3.338e-06
2.63243e-05
0.000211603
0.000520138
0.00129025
0.00176686
0.00147335
0.000845621
0.00176773
0.00192757
0.0019294
0.00147329
0.00145824
0.00145804
0.00085987
0.000857976
0.000854038
0.000779939
0.000208184
7.21514e-06
4.34772e-09
2.76818e-08
5.40244e-06
9.72793e-05
0.000933188
6.3543e-05
6.63904e-06
1.48024e-07
9.18949e-07
9.01301e-06
6.70637e-05
0.000498132
0.000899112
0.00150236
0.00150256
0.00166214
0.00166255
0.00154841
0.00135965
0.000856639
0.000728823
0.00154853
0.00168825
0.00168901
0.00135941
0.0013229
0.0013225
0.000868842
0.000860139
0.000843859
0.000774184
0.000193016
9.37663e-06
4.81846e-09
8.92196e-07
5.74819e-05
0.00139389
0.00270878
0.000605076
0.000185239
2.68167e-06
2.34374e-06
2.08697e-05
0.000367436
0.000550754
0.00181135
0.00181172
0.00184541
0.00184605
0.0013902
0.00139058
0.00154277
0.00154297
0.00142321
0.00124745
0.00123707
0.001248
0.00125945
0.000879428
0.000789896
0.00146634
0.00146658
0.00157551
0.00157548
0.00142313
0.0015435
0.00154386
0.00124708
0.00124158
0.00124786
0.00125587
0.00122149
0.00121242
0.00122227
0.00123945
0.00122121
0.0012159
0.00122214
0.00123577
0.000887047
0.000864785
0.000833131
0.000759991
0.000181626
1.1967e-05
1.27203e-07
1.4608e-05
0.000763252
0.00232135
0.0028358
0.00299251
0.000469308
9.21898e-05
4.31474e-06
0.000173767
0.000384474
0.00182286
0.00182337
0.00183528
0.0018362
0.00164418
0.00164439
0.00167211
0.00167254
0.00126545
0.00114801
0.00127313
0.00132428
0.00130802
0.00111865
0.00115296
0.00126679
0.001273
0.00132463
0.00130805
0.00111878
0.00142042
0.00141895
0.00141277
0.00141363
0.00142121
0.00141899
0.00141319
0.00141366
0.00131092
0.00127892
0.00129168
0.00131439
0.00113099
0.00116916
0.00113157
0.0011814
0.000908558
0.000841234
0.00100195
0.00100224
0.00116279
0.00116315
0.00132431
0.00132468
0.00142566
0.00142591
0.00131071
0.00128132
0.00129147
0.0013115
0.00137993
0.00136497
0.00139824
0.00136645
0.00137988
0.00137326
0.00139838
0.00136681
0.00113058
0.00117279
0.00113149
0.00117864
0.00111302
0.00116766
0.00111283
0.00116421
0.000909126
0.000865004
0.000820281
0.000731632
0.000188299
1.62012e-05
3.35576e-06
0.000251794
0.00225251
0.0023648
0.00256461
0.00362746
0.00187816
0.000264376
2.91187e-05
0.000300612
0.00173489
0.0017356
0.00172413
0.00172487
0.00164622
0.00164661
0.00163644
0.00163702
0.00146599
0.00148184
0.00147535
0.00148535
0.00146815
0.00148196
0.00148037
0.00148537
0.00148304
0.00150444
0.00148874
0.00150326
0.00148744
0.0015045
0.0014944
0.00150349
0.00111046
0.00125941
0.00124683
0.00105829
0.00130382
0.00126563
0.00111567
0.00126057
0.00105842
0.00124665
0.00130419
0.00126557
0.00136873
0.0013414
0.00136327
0.00133503
0.00136965
0.00134136
0.00136383
0.00133505
0.00118914
0.00119486
0.00116272
0.00123526
0.00108123
0.00114812
0.0010824
0.00116076
0.000946021
0.000893593
0.00075003
0.000748914
0.000772866
0.000772374
0.000857721
0.000857962
0.00102362
0.00102403
0.00118754
0.00118084
0.00125663
0.00122751
0.00118945
0.00118087
0.0012579
0.00122756
0.00132221
0.00126837
0.00131146
0.00131947
0.00131054
0.00127259
0.00132329
0.00127636
0.00131127
0.00131994
0.00131049
0.00127279
0.00118885
0.00119736
0.00116261
0.00123302
0.00123524
0.00127382
0.00123513
0.00127406
0.00108107
0.00115126
0.0010824
0.0011576
0.00106399
0.00115011
0.00106394
0.00114754
0.000920586
0.000856748
0.000798268
0.000687722
0.000222022
2.21575e-05
5.98141e-05
0.00202758
0.00224991
0.00212345
0.00230293
0.00289939
0.00254968
0.000900589
0.000659248
0.00154402
0.00154479
0.00147948
0.00148032
0.00153926
0.00153932
0.00152121
0.00152152
0.00146779
0.00148642
0.00147309
0.00148526
0.00147245
0.00148665
0.0014771
0.00148518
0.00145641
0.00147475
0.00146324
0.001474
0.00146175
0.00147493
0.0014677
0.00147415
0.00140132
0.00138359
0.00139787
0.00137646
0.0014037
0.0013836
0.00140303
0.00137648
0.00137873
0.00135073
0.00138918
0.00136873
0.00138355
0.00135065
0.00139423
0.00136896
0.00113691
0.00117396
0.00110946
0.00121662
0.000962393
0.000976197
0.000845501
0.000843871
0.000733511
0.000731609
0.000615297
0.000614725
0.000629287
0.000629254
0.000691122
0.000727576
0.000772362
0.000776389
0.000701588
0.00072709
0.000782479
0.000776302
0.000982777
0.000954388
0.000910236
0.000908445
0.000987042
0.000954559
0.000916658
0.000908317
0.00113327
0.00110101
0.00120725
0.00116314
0.00113493
0.00110082
0.00120807
0.00116301
0.00121955
0.00129881
0.00127434
0.00118386
0.00128107
0.00124994
0.00122681
0.00129969
0.00127406
0.00118394
0.00128134
0.00124974
0.00113676
0.00117582
0.00110943
0.00121419
0.00116715
0.00122956
0.00116706
0.00123037
0.000918711
0.000836188
0.000757015
0.00064486
0.000216037
3.02807e-05
0.00132523
0.00223449
0.00200373
0.00187604
0.00189181
0.00223062
0.00349936
0.00297276
0.000561917
0.00140163
0.00140202
0.00137861
0.00137909
0.00143474
0.00143506
0.00142532
0.00142557
0.0013597
0.00133516
0.00135672
0.0013268
0.00136467
0.00133534
0.0013611
0.00132679
0.00134289
0.0013285
0.00134845
0.0013159
0.00134844
0.0013286
0.00135313
0.00131601
0.0013533
0.00131052
0.00135796
0.00131038
0.00098305
0.00097315
0.00111456
0.00111335
0.000952015
0.000950393
0.000653343
0.000652127
0.00059862
0.000597258
0.000412905
0.000499938
0.000437834
0.000531527
0.000426673
0.000497615
0.000452907
0.000529644
0.000526565
0.000573584
0.000493836
0.00055433
0.000539056
0.000572921
0.000505946
0.000553387
0.000662926
0.000630981
0.000746628
0.000710189
0.000675174
0.000630584
0.000755756
0.000710157
0.000942909
0.000902472
0.000868621
0.000836833
0.000947111
0.000902434
0.000875113
0.000836639
0.000897044
0.000791997
0.00070048
0.000634934
0.000189862
4.05301e-05
0.00204062
0.00202754
0.00174894
0.00172199
0.00179887
0.00201197
0.00569614
0.00222576
0.00148972
0.00149006
0.00160918
0.00160987
0.0013141
0.0013144
0.00129848
0.00129868
0.00132764
0.00134316
0.00132816
0.00134399
0.0013278
0.00134445
0.00132851
0.00134365
0.00131678
0.00131033
0.00130293
0.00133208
0.00131678
0.00131163
0.0013028
0.0013313
0.00132433
0.00127695
0.00131239
0.00125094
0.00132875
0.00127699
0.00131576
0.00125085
0.00129003
0.00123157
0.0012953
0.00122789
0.00129469
0.00123153
0.00129876
0.00122793
0.000968266
0.00102948
0.000966938
0.000885745
0.000883355
0.000745535
0.000744028
0.000475163
0.000474326
0.000403493
0.000401693
0.000348551
0.000444696
0.000393795
0.000447757
0.000354253
0.000444036
0.000402577
0.000447481
0.000511742
0.000506745
0.000463889
0.000475074
0.000525208
0.000506454
0.000474613
0.000474767
0.000632921
0.000596555
0.000644568
0.000596243
0.00084219
0.000716331
0.000675124
0.000614529
0.000177432
3.58481e-05
0.00203177
0.00177909
0.00160837
0.00171482
0.0018261
0.00194251
0.00162814
0.00114092
0.00140914
0.00140943
0.00149008
0.00149017
0.00124791
0.00122745
0.00124064
0.00126335
0.00125011
0.0012276
0.00124088
0.00126405
0.00128491
0.00128511
0.00123634
0.00130807
0.00126277
0.00129566
0.00123644
0.00130893
0.00126291
0.00129496
0.00120734
0.00124273
0.00118629
0.00127303
0.00120726
0.00124538
0.00118628
0.00127223
0.00128266
0.00121927
0.00128617
0.00121909
0.000912439
0.00102944
0.00106526
0.0010445
0.00104385
0.000885767
0.000884745
0.000698505
0.00069674
0.000566042
0.000564655
0.000444098
0.00033982
0.000473853
0.000254677
0.000444471
0.000337911
0.00047018
0.0002569
0.000413337
0.000221465
0.000397661
0.000226149
0.000415214
0.00022212
0.000397308
0.000227334
0.000310777
0.00038536
0.000358917
0.000390988
0.000315772
0.000384913
0.000364857
0.000390988
0.000503838
0.000481363
0.000454088
0.000435623
0.000514901
0.000481343
0.000461403
0.000435613
0.00074039
0.000670718
0.000665498
0.000411191
7.98348e-05
0.0019074
0.00166832
0.00159597
0.00170431
0.00179158
0.00114992
0.000681803
0.00139499
0.0013947
0.00100703
0.00100765
0.00130469
0.0012888
0.00133472
0.00132758
0.00130636
0.00128896
0.00133573
0.00132746
0.00142179
0.00142199
0.00119778
0.00113713
0.00116809
0.00121477
0.00120077
0.00113728
0.0011681
0.00121525
0.00125695
0.00121985
0.00124845
0.00120436
0.00125738
0.00121971
0.00124757
0.00120425
0.00117207
0.00121053
0.00113307
0.001248
0.0011719
0.0012139
0.00113306
0.00124823
0.00078845
0.000988008
0.0010788
0.00110414
0.000977472
0.000976443
0.000822481
0.000820278
0.000652096
0.000650112
0.000433591
0.000527674
0.000602536
0.000521914
0.000427314
0.000524659
0.000601582
0.000516416
0.00031834
0.000265356
0.000362081
0.000200928
0.000318035
0.000264431
0.000362028
0.000201379
0.000326474
0.000210775
0.000351161
0.00018323
0.000326656
0.000211211
0.000351033
0.000183213
0.000289211
0.000362335
0.000294054
0.000362064
0.000670395
0.000652689
0.000648194
0.000128323
0.00177323
0.0016791
0.00157769
0.00165026
0.00162522
0.000987368
0.000482872
0.000482625
0.000543259
0.000543111
0.00127354
0.00127339
0.000822906
0.000821866
0.00123965
0.00118701
0.00128213
0.00125395
0.00124181
0.00118719
0.00128368
0.00125397
0.00130867
0.0013317
0.00131217
0.0013437
0.00130869
0.00133322
0.00131209
0.00134393
0.00117401
0.00108638
0.00110951
0.00118926
0.00117591
0.0010865
0.0011095
0.00118893
0.00121439
0.0011422
0.00121821
0.00114281
0.00121607
0.00114207
0.00121798
0.0011427
0.000696906
0.000855613
0.00105802
0.00112783
0.0011785
0.00117513
0.00114307
0.00114146
0.000965222
0.000963929
0.000753743
0.000752632
0.000852459
0.000854059
0.000746526
0.00075083
0.000847692
0.000852382
0.000664852
0.00067938
0.000534412
0.000587186
0.00046921
0.000555939
0.000658017
0.000677464
0.000534107
0.000586932
0.000464541
0.000554864
0.000365193
0.000445522
0.00036271
0.000445129
0.000343841
0.000270482
0.000376688
0.000227914
0.000343753
0.000268536
0.000376574
0.000226578
0.000643686
0.000659474
0.000170734
0.00163188
0.00164717
0.00151051
0.00140781
0.00129222
0.000870822
0.000400424
0.000399687
0.000465194
0.000465024
0.00114862
0.00127757
0.00115893
0.00104781
0.00109256
0.00122688
0.00127919
0.00114941
0.00122673
0.00115867
0.00104786
0.00109204
0.000419731
0.000623661
0.00056285
0.000742459
0.000421277
0.000622203
0.000562561
0.000741405
0.0012115
0.00113875
0.00124835
0.0011873
0.00121303
0.00113881
0.00124916
0.00118726
0.00122933
0.00129856
0.00122927
0.00129898
0.00110147
0.00118892
0.00110144
0.00118853
0.00120404
0.0011231
0.00120561
0.00112295
0.000655105
0.000746581
0.00092914
0.00111976
0.00117217
0.00117131
0.00121592
0.00121366
0.00117466
0.00116986
0.00113365
0.00113214
0.000931213
0.00103384
0.0010049
0.000960272
0.000847791
0.000893973
0.000930994
0.00102952
0.00100319
0.000961385
0.000847371
0.000892095
0.000789048
0.000759838
0.000785231
0.000759314
0.000686962
0.000687987
0.000559623
0.000439301
0.000599986
0.000501213
0.000684024
0.000687466
0.000560704
0.000438133
0.000599928
0.000500816
0.000340641
0.000427639
0.000338893
0.000427442
0.000647609
0.000197619
0.00155836
0.00155468
0.00140364
0.00121746
0.00103472
0.000530311
0.000530182
0.000764741
0.00076486
0.0003209
0.000319619
0.000375437
0.000375469
0.00123014
0.00104481
0.00107115
0.00117544
0.000861657
0.000945473
0.0012314
0.00104566
0.00117519
0.00107088
0.000860996
0.000945167
0.000308276
0.000475351
0.00047956
0.000628829
0.00030788
0.000474008
0.00047587
0.000627593
0.00125316
0.00117899
0.00125368
0.00117887
0.000644582
0.000684931
0.000810743
0.00100193
0.00117701
0.00118889
0.00118715
0.00120163
0.00119833
0.00122843
0.00113173
0.0012189
0.00112048
0.0012178
0.00112943
0.00121325
0.00111935
0.00118365
0.00111199
0.00113086
0.00120305
0.00112558
0.00104759
0.00118371
0.00111146
0.00113048
0.00119978
0.00112459
0.00104705
0.000993768
0.000881971
0.00102892
0.000915145
0.000993584
0.000881561
0.00102972
0.000913701
0.000809696
0.000799156
0.000807246
0.000798712
0.000703887
0.000726697
0.00047377
0.00054138
0.000705049
0.000726358
0.000473963
0.000541251
0.000228017
0.00141251
0.00159758
0.00129834
0.000874613
0.00046637
0.000487417
0.00048685
0.000544747
0.000545117
0.000300483
0.000205825
0.000308809
0.000250026
0.000300787
0.000204845
0.000309308
0.000250413
0.00033279
0.00033328
0.000243719
0.000387144
0.000400898
0.000541209
0.000243053
0.000386582
0.000397893
0.000542301
0.000244185
0.000646671
0.000727281
0.000879272
0.00107236
0.00122096
0.00122004
0.00127997
0.0012787
0.00117306
0.00117085
0.0011934
0.00118904
0.00129131
0.00115906
0.00126978
0.00116304
0.00128354
0.00115806
0.0012679
0.00116269
0.00113542
0.00124945
0.00110696
0.00120914
0.00125246
0.00118841
0.00113852
0.00125117
0.00120901
0.00110683
0.00125284
0.00118818
0.000938579
0.000958912
0.000938284
0.000956537
0.00108333
0.00159387
0.00107973
0.00055081
0.000417174
0.000415897
0.000335106
0.000332332
0.000478763
0.000478493
0.000449341
0.000448713
0.000297276
0.000195084
0.000304792
0.000219186
0.000297411
0.000194269
0.0003051
0.000218912
0.000434278
0.000392203
0.000281447
0.000330254
0.000431469
0.000392072
0.000279846
0.000330142
0.000216961
0.000350843
0.00021727
0.000350822
0.000258308
0.000660081
0.000775703
0.000947175
0.00114047
0.00122297
0.00122121
0.00122961
0.00122853
0.00118552
0.00118238
0.00114098
0.00127856
0.00116928
0.00122079
0.00114053
0.00127138
0.00116854
0.00121657
0.00130356
0.00119928
0.00130869
0.00122315
0.00129708
0.00119852
0.00130761
0.00122282
0.00132327
0.00144017
0.000750969
0.000383503
0.000405665
0.000406223
0.000307957
0.000301294
0.000416166
0.000398666
0.000476157
0.00059671
0.000470716
0.000518179
0.000413948
0.000398651
0.000476945
0.000596811
0.000470696
0.000521278
0.000411524
0.000411305
0.000307158
0.000211231
0.000318779
0.000219802
0.000307187
0.00021045
0.000319014
0.00021887
0.000307537
0.000345737
0.000305844
0.000345682
0.000275765
0.000684568
0.000825773
0.00101038
0.00118564
0.00118315
0.00125069
0.00124759
0.00118396
0.00118157
0.00117108
0.00117057
0.0012058
0.00113066
0.00126764
0.00115719
0.00129734
0.00117665
0.00119775
0.00112763
0.00126493
0.00115641
0.00129102
0.00117598
0.00131934
0.00121724
0.00131201
0.00121655
0.00135009
0.00125919
0.00134314
0.00125846
0.00149827
0.0011163
0.000476898
0.000253226
0.000251298
0.00046631
0.00046437
0.000378892
0.000380162
0.000275999
0.000263275
0.000528901
0.000430709
0.000427905
0.000532723
0.000448253
0.000381562
0.00052794
0.000430641
0.000428662
0.000532601
0.000448183
0.000384613
0.000427223
0.000450163
0.00034381
0.00040356
0.000424637
0.00045326
0.000340274
0.000402022
0.00029219
0.000717528
0.000871992
0.00106305
0.00117978
0.00117594
0.00122034
0.00121563
0.00120985
0.00120566
0.00125174
0.00115158
0.00113163
0.00122001
0.00114358
0.00117521
0.00113196
0.00122216
0.00114334
0.00117871
0.00125097
0.0011509
0.00129364
0.00132037
0.00119487
0.00121808
0.00129419
0.00131419
0.00119477
0.00121749
0.00135276
0.00127769
0.00134501
0.00127691
0.0011685
0.000697856
0.000393791
0.000389178
0.000387047
0.000497388
0.000491233
0.000430721
0.000385508
0.000302491
0.000304458
0.000307178
0.000235241
0.000419888
0.000385556
0.000308061
0.000272872
0.000304308
0.000225016
0.000280811
0.000274911
0.000387834
0.000292137
0.00038766
0.000293305
0.00039349
0.000379045
0.000383062
0.000375677
0.000318372
0.000746877
0.000904617
0.00108776
0.00108568
0.00114497
0.00114153
0.00110759
0.00110278
0.00116127
0.00115365
0.00123762
0.00115976
0.00129596
0.00117685
0.00125835
0.00115306
0.00122383
0.00125975
0.0011525
0.00115652
0.00128902
0.00117582
0.00125054
0.00118121
0.00124714
0.00117931
0.00125122
0.00125223
0.00117908
0.00118109
0.000666559
0.000509233
0.00044136
0.00051566
0.000510134
0.000540174
0.000534243
0.000405022
0.000349165
0.0002568
0.000284735
0.000264317
0.000246004
0.000392322
0.000344074
0.00025899
0.000280166
0.000264388
0.000251441
0.00032273
0.000459346
0.000238196
0.000300186
0.00032735
0.000446042
0.000281948
0.000308148
0.000384765
0.000368589
0.000371283
0.00036425
0.000352124
0.000765956
0.000913253
0.00106088
0.00105797
0.00106855
0.00106403
0.00107384
0.00106841
0.00129699
0.00117391
0.00106687
0.00122514
0.00111484
0.00110942
0.00128332
0.00117212
0.00106538
0.00121338
0.00111351
0.00110269
0.00132551
0.00126892
0.00121914
0.0011736
0.00127016
0.0011731
0.00131586
0.00121813
0.000540694
0.000400089
0.000571786
0.00055955
0.000559393
0.000569913
0.000506644
0.000503454
0.000575503
0.00042374
0.000454931
0.00058544
0.000466403
0.000454158
0.00034623
0.000329834
0.000278909
0.000314776
0.000323824
0.000287224
0.000340637
0.000326304
0.000292308
0.000332257
0.000335052
0.00031645
0.000421443
0.000381289
0.000470628
0.000396275
0.000389413
0.000768244
0.00088453
0.000981323
0.000977667
0.000995495
0.000989054
0.00102509
0.00100688
0.00112039
0.00100586
0.00115802
0.00104958
0.00101391
0.00115039
0.00104795
0.00100261
0.00111405
0.00100494
0.00128875
0.00118554
0.00120291
0.00110872
0.00127282
0.00118417
0.00119263
0.00110776
0.00133914
0.00125651
0.00132481
0.00125524
0.000443304
0.000358295
0.000606818
0.000503052
0.000609453
0.000501414
0.00036648
0.000364299
0.000753063
0.000653863
0.000592035
0.00053166
0.000519005
0.000650402
0.000614134
0.000642506
0.000692238
0.0007822
0.000594168
0.000574399
0.000520348
0.000653583
0.000648838
0.000643647
0.000420377
0.000437436
0.000432762
0.000482623
0.000556613
0.000500391
0.000606574
0.000509378
0.000438007
0.000746445
0.000892877
0.000941527
0.000937717
0.000889432
0.000931662
0.000928131
0.000970258
0.00104546
0.000980743
0.000964222
0.00103602
0.000978358
0.00114044
0.00109032
0.00104183
0.000991864
0.00113676
0.00104115
0.00108661
0.000991446
0.00127992
0.00119716
0.00117967
0.00111311
0.00126458
0.00119638
0.0011738
0.00111266
0.000378101
0.00026642
0.000626479
0.000647433
0.00071039
0.000409814
0.000628204
0.000647647
0.000722757
0.00040657
0.00034573
0.00034398
0.000813297
0.000827721
0.000703858
0.00063095
0.000691977
0.000686713
0.00084123
0.000749634
0.000845155
0.000635941
0.000692603
0.000686733
0.000525263
0.000554708
0.000535545
0.000604125
0.000481984
0.000718651
0.000871491
0.00085642
0.000853014
0.000866065
0.000868579
0.000863793
0.000987366
0.001052
0.00096728
0.00105111
0.000975724
0.00091128
0.000857963
0.000930405
0.00097986
0.0010436
0.000965419
0.00104098
0.000973294
0.000910166
0.000849312
0.000925849
0.00113339
0.00108405
0.00105573
0.000999255
0.00113466
0.00105545
0.00107792
0.000998682
0.000311804
0.000254602
0.000280345
0.000280148
0.000250642
0.000246496
0.000244079
0.000484547
0.000674365
0.000804072
0.000707264
0.00076557
0.000557022
0.000724373
0.000611326
0.000389754
0.000447977
0.000485436
0.000519693
0.000674423
0.000809947
0.000707761
0.000771241
0.0005538
0.000737708
0.000614595
0.000384773
0.000464925
0.0004842
0.000900477
0.000885264
0.000766302
0.000748246
0.000918364
0.000893734
0.000765787
0.00074827
0.000557141
0.000606742
0.000769028
0.000834057
0.000877108
0.000859741
0.000829711
0.000877014
0.000858838
0.000760137
0.000796501
0.00078746
0.00102291
0.000924866
0.00108746
0.000950086
0.00101534
0.000878429
0.00101674
0.000922583
0.00108062
0.00101482
0.000949429
0.000877935
0.00111604
0.00105265
0.00111336
0.00105223
0.000171777
0.000327417
0.000247119
0.000321813
0.000244502
0.00026703
0.000265201
0.000932128
0.00083898
0.000712851
0.000818489
0.000694531
0.000581091
0.0003243
0.000399357
0.000428125
0.000441025
0.00047036
0.000356319
0.000275658
0.000503868
0.000939035
0.000846096
0.000819503
0.000713755
0.000701757
0.000582342
0.000408112
0.000336236
0.000428113
0.000455503
0.000467735
0.000354832
0.00028385
0.000482645
0.000588875
0.000324925
0.000720417
0.000709538
0.000348451
0.000567748
0.000560725
0.000744565
0.00086972
0.000875888
0.000861047
0.00086072
0.000922219
0.000842466
0.000829183
0.000731099
0.000868709
0.000871288
0.000859331
0.000858955
0.000913156
0.00083377
0.000828536
0.0007763