/*--------------------------------*- C++ -*----------------------------------*\
| =========                 |                                                 |
| \\      /  F ield         | OpenFOAM: The Open Source CFD Toolbox           |
|  \\    /   O peration     | Version:  5.x                                   |
|   \\  /    A nd           | Web:      www.OpenFOAM.org                      |
|    \\/     M anipulation  |                                                 |
\*---------------------------------------------------------------------------*/
FoamFile
{
    version     2.0;
    format      ascii;
    class       volScalarField;
    location    "1.8";
    object      omega;
}
// * * * * * * * * * * * * * * * * * * * * * * * * * * * * * * * * * * * * * //

dimensions      [0 0 -1 0 0 0 0];

internalField   nonuniform List<scalar> 
12160
(
0.0719999
0.0719999
0.00212809
0.0719999
0.00457854
0.00117609
0.0719999
0.00790562
0.00154008
0.00113418
0.0719999
0.0108074
0.00210428
0.00134407
0.00113347
0.0719999
0.0117342
0.00265785
0.00153669
0.00135235
0.00128993
0.0719999
0.0114313
0.00283916
0.00169494
0.00149268
0.0015803
0.00134051
0.0719999
0.0108038
0.00274748
0.00174559
0.00158157
0.00164404
0.00194694
0.00251055
0.0719999
0.0103455
0.00258983
0.00172331
0.0016164
0.00166039
0.0020812
0.0039506
0.0120985
0.0719999
0.00998413
0.00247681
0.0016901
0.00161631
0.00167451
0.00202107
0.00357622
0.011526
0.0117423
0.0719999
0.00971357
0.00239287
0.00166625
0.001619
0.0016907
0.00192487
0.0028042
0.0107104
0.010986
0.0217345
0.0719999
0.00950889
0.00232781
0.00164691
0.00161485
0.00171452
0.00188014
0.00258852
0.00921508
0.0123364
0.021141
0.0228922
0.0719999
0.00938976
0.00227547
0.001626
0.00160616
0.00172833
0.0019123
0.00283852
0.00800572
0.0122625
0.0253525
0.0178449
0.0141448
0.0719999
0.00941278
0.00223995
0.0016037
0.00159075
0.00172815
0.00194555
0.00326501
0.00688171
0.0122151
0.0169748
0.010673
0.0060449
0.011688
0.0719999
0.00971479
0.00223364
0.00158256
0.00156971
0.00171369
0.00196145
0.00364258
0.00630054
0.0118483
0.0163867
0.00695994
0.00504881
0.00477697
0.00843589
0.0719999
0.0103377
0.002288
0.00156893
0.00154533
0.00168788
0.00195804
0.00391077
0.00656399
0.0107478
0.0176367
0.0105614
0.00358507
0.00304068
0.00183231
0.0719999
0.0111583
0.00242709
0.00157742
0.00152295
0.00165562
0.00193185
0.00408445
0.00701929
0.00964144
0.0189629
0.011595
0.00313405
0.00273542
0.00232734
0.0719999
0.0120379
0.00263166
0.00161643
0.00151163
0.00162462
0.00188123
0.00417753
0.00736785
0.0091676
0.0189769
0.0132209
0.00325505
0.00217111
0.0016895
0.0719999
0.0129021
0.00286819
0.00167508
0.0015241
0.00160485
0.00180897
0.00419522
0.00760996
0.00895002
0.0181291
0.0153161
0.0037
0.00207741
0.00147027
0.0719999
0.0137054
0.00311483
0.00174589
0.00155443
0.00161062
0.00172751
0.00413066
0.00776163
0.0088096
0.0174066
0.0183213
0.00442221
0.00216617
0.00145119
0.0719999
0.0144031
0.00335512
0.0018223
0.0015925
0.00163279
0.00166696
0.00398394
0.00782069
0.0086539
0.0168485
0.0202227
0.00537401
0.00226959
0.00153976
0.0719999
0.0149686
0.00357223
0.00189773
0.00163173
0.00165795
0.00166216
0.00377893
0.00776404
0.00840874
0.0162057
0.0213278
0.00655816
0.00233558
0.00158648
0.0719999
0.0153891
0.00375365
0.00196648
0.00166908
0.00168529
0.00168014
0.00359547
0.00755657
0.00801611
0.0153022
0.0221601
0.0076029
0.00236286
0.00161983
0.0719999
0.0156632
0.00389168
0.00202418
0.00170167
0.00171162
0.00170449
0.0034113
0.00711773
0.00752602
0.0140161
0.0228359
0.00846705
0.00241158
0.00162215
0.0719999
0.0157968
0.00398306
0.0020681
0.00172755
0.00173391
0.00172674
0.00321439
0.00655182
0.00713986
0.0123067
0.0233922
0.00934597
0.00245612
0.00164215
0.0719999
0.0158019
0.00402826
0.00209725
0.00174605
0.00175083
0.00174366
0.00300928
0.00595093
0.00686912
0.0102546
0.0237193
0.0103702
0.00251845
0.00167865
0.0719999
0.0156653
0.00403093
0.00211227
0.00175757
0.00176262
0.00175442
0.00279603
0.00534807
0.00652207
0.00873938
0.0231915
0.0114742
0.00263369
0.00171949
0.0719999
0.0153844
0.00398641
0.00211499
0.00176372
0.00177089
0.00175933
0.00256735
0.00473954
0.00608729
0.00787273
0.0205761
0.0126372
0.00284884
0.00179013
0.0719999
0.0149597
0.00389462
0.00210338
0.00176711
0.00177691
0.00175961
0.00231589
0.00411516
0.00558744
0.00719491
0.0169608
0.0135402
0.00323253
0.0019217
0.0719999
0.0143971
0.00375774
0.0020772
0.00176594
0.00178135
0.00175945
0.00204801
0.00348721
0.00503512
0.00651012
0.0136745
0.0132769
0.00391077
0.00209032
0.0719999
0.0137124
0.00358087
0.00203716
0.00175903
0.00178318
0.00176641
0.00181622
0.00292176
0.00445761
0.00579468
0.0107835
0.01191
0.00463876
0.00221987
0.0719999
0.0129324
0.00337302
0.00198538
0.00174621
0.00178251
0.00177656
0.00177423
0.00252663
0.0039341
0.00509364
0.0082818
0.00971491
0.0048383
0.00244492
0.0719999
0.0121137
0.00314692
0.00192588
0.00172846
0.00177951
0.0017863
0.00198228
0.00254236
0.00355627
0.00449591
0.00625835
0.00716951
0.00446718
0.00253663
0.0719999
0.0114181
0.00292403
0.00186488
0.00170822
0.00177422
0.00179209
0.00223129
0.00295555
0.00355805
0.0040288
0.00477141
0.00499771
0.00371779
0.00243953
0.0719999
0.0109335
0.0027491
0.00181008
0.00168876
0.00176859
0.00179486
0.00247124
0.00349839
0.00397179
0.00404588
0.00377431
0.00346013
0.00290006
0.00218783
0.0719999
0.0106464
0.00263709
0.00177251
0.00167498
0.00176643
0.00179654
0.00269227
0.00407584
0.0045017
0.00448483
0.00404014
0.00254665
0.00220419
0.00186833
0.0719999
0.0105179
0.00257883
0.0017565
0.00167357
0.00177055
0.00180076
0.00290101
0.00464009
0.00504733
0.00503152
0.00518009
0.00285166
0.00174074
0.00156296
0.0719999
0.0105129
0.00256277
0.0017607
0.00168654
0.0017825
0.00181956
0.00310705
0.00518835
0.00556713
0.00560601
0.00664254
0.00408112
0.00187316
0.00134927
0.0719999
0.0105951
0.00257987
0.00178207
0.00171309
0.00180606
0.00188319
0.00332756
0.00573217
0.0060526
0.00614305
0.00849171
0.00575566
0.00245643
0.00140311
0.0719999
0.0107247
0.00262237
0.00181826
0.00175211
0.00184457
0.00199674
0.00359956
0.00626214
0.00649829
0.00662192
0.0106257
0.00796673
0.00314825
0.00166682
0.0108804
0.0719999
0.00268177
0.00186749
0.001803
0.00189983
0.00215253
0.00391313
0.00672283
0.0068921
0.00708231
0.0130284
0.0103272
0.00391643
0.00196364
0.00275185
0.0110805
0.0719999
0.00192855
0.00186611
0.00197317
0.00234001
0.0042453
0.00709277
0.00728495
0.00787657
0.0157514
0.0122624
0.00455385
0.00226236
0.00199903
0.00283849
0.0118995
0.0719999
0.00194214
0.00206618
0.00255152
0.004578
0.00738386
0.00779522
0.00962243
0.0185692
0.0135427
0.00481725
0.0024916
0.00202796
0.00207525
0.00314705
0.0133509
0.0719999
0.00217946
0.0027846
0.00489917
0.00762444
0.0084351
0.0116454
0.0203837
0.0137681
0.00462251
0.00259474
0.00230388
0.00211338
0.00227934
0.00370953
0.017794
0.0719999
0.00303763
0.00520452
0.00784346
0.00913365
0.0133209
0.0210194
0.0131226
0.0042239
0.00256058
0.00328966
0.00241396
0.00229788
0.00256458
0.00524599
0.027707
0.0719999
0.00549072
0.00806364
0.00983937
0.0145495
0.0208844
0.012182
0.00385094
0.00253969
0.00573917
0.00348092
0.00261085
0.00244527
0.00326575
0.0092539
0.0516354
0.0719999
0.00828712
0.01053
0.0154147
0.020365
0.0112144
0.00349671
0.00243344
0.00852467
0.00586317
0.00371203
0.00266959
0.00268195
0.0053888
0.0169447
0.0688096
0.0719999
0.0111203
0.0160552
0.0196787
0.0102788
0.00318157
0.00226633
0.0116701
0.00885021
0.00590791
0.00370493
0.00270921
0.00358332
0.00927341
0.0267584
0.0720179
0.0719999
0.0165209
0.0189385
0.00935189
0.00292162
0.00208024
0.0167408
0.0124948
0.00920847
0.00568929
0.0035197
0.00304447
0.00637226
0.016415
0.0335227
0.0860006
0.0719999
0.018146
0.00844787
0.00271058
0.00191067
0.0168057
0.0167618
0.0128203
0.00923499
0.00529705
0.00342812
0.00493726
0.0130122
0.0268785
0.0501464
0.116046
0.445396
0.00752544
0.00253362
0.00177288
0.00635035
0.0141996
0.0173719
0.0124309
0.00907231
0.004868
0.00427784
0.0106364
0.0265674
0.0499121
0.0820308
0.306097
0.912584
0.448203
0.00242269
0.00167015
0.00227878
0.00483445
0.0124206
0.0180628
0.011853
0.00881748
0.00505985
0.00786413
0.0247873
0.0537158
0.0814722
0.191876
0.637283
2.07255
1.2176
0.650937
0.00159595
0.00154349
0.0020527
0.00455551
0.0112433
0.0188081
0.0111903
0.00870334
0.00623657
0.0175799
0.0519182
0.0880656
0.144966
0.411985
1.37087
4.27272
2.95165
1.63261
0.900691
0.00143416
0.00212317
0.0042442
0.0101799
0.0193338
0.0105682
0.00903602
0.00950454
0.0375174
0.088491
0.135171
0.268459
0.831269
2.84049
7.61817
6.48582
4.18639
2.10135
1.20247
0.00147123
0.00218931
0.00394194
0.00904627
0.019863
0.0103459
0.0102196
0.0172143
0.0677451
0.123269
0.182576
0.514934
1.7868
4.82929
11.9486
11.7827
9.51545
5.89371
2.88681
1.56134
0.00154061
0.00222745
0.00370338
0.00781324
0.024753
0.0110324
0.0151583
0.0346963
0.098554
0.130355
0.327449
1.03702
3.13028
7.3355
42.1696
18.3602
17.0742
13.1536
7.97077
3.92949
1.98671
0.00159756
0.00228641
0.00342772
0.0104258
0.0980986
0.0617412
0.0447915
0.0649769
0.0919313
0.206923
0.598069
1.91832
4.51932
23.0152
332.72
41.728
332.88
330.895
330.994
26.2768
22.8804
16.7646
10.0692
5.08713
2.45191
0.0016454
0.00235332
0.00463168
0.106737
0.848211
0.424149
0.172335
0.0532215
0.111115
0.335042
1.0948
2.73536
12.1391
115.247
326.618
434.977
36.0424
326.768
268.885
269.094
435.155
430.349
430.498
34.0675
27.737
19.5814
11.2501
5.96153
2.80121
0.00169895
0.00280151
0.0475872
1.1294
4.59949
1.60001
0.366722
0.0596748
0.173125
0.536795
1.55879
6.60724
55.7581
357.24
357.236
358.106
358.145
425.109
477.363
46.6463
67.2488
425.318
347.639
347.907
477.325
464.999
464.936
40.5735
31.1023
20.5208
11.6583
6.51347
3.1001
0.00184151
0.0158395
0.597369
5.20132
13.8181
5.55457
2.00915
0.269923
0.213953
0.76808
3.55748
42.4797
347.981
347.994
347.813
347.936
465.289
465.437
474.664
474.642
477.664
463.143
748.418
460.565
756.486
57.564
67.1684
310.011
310.031
337.116
337.164
477.649
449.262
449.288
462.63
750.547
461.08
755.247
454.186
713.968
444.61
742.399
453.526
715.582
444.939
740.785
45.7007
32.4906
20.6013
11.5754
6.83429
3.38231
0.00377642
0.234042
3.65584
14.0133
24.6137
20.1326
6.28758
1.33836
0.306572
2.00425
38.6473
337.037
337.118
333.941
334.145
488.97
488.875
494.999
494.849
734.977
791.191
454.362
744.401
460.203
456.92
793.391
736.322
454.785
744.845
460.368
457.802
788.321
481.838
778.168
477.641
788.696
481.947
778.427
477.712
471.793
761.428
466.775
774.657
476.831
828.411
474.519
833.766
68.119
87.2586
259.247
259.341
272.92
272.921
402.586
402.556
446.291
446.363
471.375
762.745
467.04
773.628
463.103
726.984
451.021
765.658
463.222
730.27
451.978
765.935
476.35
830.807
475.467
833.09
468.918
819.827
468.061
818.127
48.8191
32.5562
20.2663
11.0203
7.06117
3.78035
0.0522707
1.80785
11.533
23.6357
31.7338
38.7779
12.8327
2.48089
0.660183
34.0063
319.574
319.698
316.639
316.785
481.724
481.566
475.848
475.729
814.004
496.59
821.41
499.687
814.872
496.868
824.055
500.52
823.164
502.655
831.115
505.313
825.447
503.355
833.556
506.119
815.007
782.039
460.905
463.96
816.639
473.208
817.849
783.229
465.215
461.34
817.051
473.403
873.911
502.582
860.962
495.663
874.63
502.844
861.263
495.795
492.813
841.883
482.443
862.942
484.983
850.881
481.938
857.934
75.1333
114.642
262.761
262.826
245.911
245.943
291.169
291.079
330.148
330.084
651.097
397.037
682.034
413.51
651.993
397.326
682.76
413.736
743.72
816.593
452.854
724.853
444.495
472.778
745.018
820.085
453.248
725.454
444.682
474.295
492.422
843.569
483.052
862.311
492.401
865.469
492.664
865.872
484.164
852.822
482.873
855.909
478.209
847.415
477.369
845.696
48.9164
31.9063
19.2934
10.2214
7.71882
4.26827
0.581963
6.92054
20.4316
29.0814
36.0488
41.9543
16.9612
5.11305
5.32499
288.528
288.65
258.526
258.682
444.04
443.957
437.149
437.242
809.033
493.266
810.761
493.772
810.807
493.853
813.173
494.491
787.723
484.75
806.332
489.974
790.161
485.49
808.372
490.653
901.172
517.228
912.224
522.919
902.535
517.788
915.005
524.169
929.834
531.229
926.003
530.152
932.87
532.561
928.26
531.314
503.475
866.724
490.761
892.051
72.5897
133.816
314.957
314.912
282.263
282.157
245.074
244.99
240.582
240.521
417.603
260.193
458.472
280.464
421.61
261.221
462.311
281.588
555.462
335.794
521.835
318.561
557.08
336.361
524.74
319.408
715.23
409.726
751.974
430.471
716.549
410.221
752.731
430.803
861.561
785.724
458.938
489.052
788.948
455.601
865.601
786.96
459.379
490.962
789.527
455.845
502.904
867.943
491.332
890.665
503.878
890.499
504.243
891.185
47.305
30.5616
17.5669
9.99616
9.13467
4.79739
2.97984
14.7275
25.8957
31.1082
37.2706
40.5591
22.3238
12.9739
49.2605
404.932
405.039
373.947
374.124
505.232
505.207
494.376
494.377
913.911
522.252
915.399
522.641
916.35
523.39
917.972
523.818
882.464
509.56
910.409
519.414
885.356
510.813
912.927
520.603
945.556
536.408
948.997
537.87
68.8565
111.131
322.944
323.143
329.616
329.632
264.783
264.705
244.455
244.305
280.824
196.15
310.823
204.419
284.033
195.791
315.312
204.622
347.485
219.503
331.739
211.832
351.88
220.414
336.165
212.543
459.597
259.469
508.187
288.651
465.728
262.03
512.505
290.665
610.534
349.062
571.689
326.286
612.843
350.041
575.083
327.76
44.9512
27.8354
15.9908
11.2915
10.9078
4.99097
7.91886
20.7837
27.01
30.3444
37.303
39.7141
32.7951
28.2392
292.147
292.279
264.208
264.296
456.266
456.077
418.411
418.636
489.116
796.972
490.861
794.52
489.002
796.892
490.92
794.225
481.975
769.591
474.851
784.512
481.863
771.034
475.216
784.212
940.589
532.889
946.859
535.231
943.259
534.207
949.103
536.447
923.739
523.727
943.347
533.389
926.794
525.168
945.328
534.562
64.682
100.95
188.659
293.047
293.35
289.77
289.708
230.673
230.386
185.661
185.523
272.485
181.926
304.081
182.729
274.649
182.194
307.758
183.726
372.536
213.417
342.371
197.862
378.766
215.738
347.252
199.522
448.74
252.435
455.139
255.241
40.1245
24.2176
16.4838
13.1961
11.3773
4.70411
13.8643
22.816
24.9153
28.7979
38.606
43.1553
59.3955
65.5917
414.177
413.983
357.587
357.483
733.428
449.551
446.156
714.692
734.506
449.816
446.042
714.655
464.223
464.148
506.254
870.276
502.233
884.659
506.042
870.775
502.409
883.951
502.596
860.292
491.54
882.12
502.481
861.853
492.223
881.759
921.293
522.129
924.344
523.396
55.714
94.3391
153.928
405.611
405.602
386.57
386.349
311.112
311.124
277.71
276.806
167.869
282.84
191.529
225.155
168.331
282.295
189.81
227.225
157.306
207.678
154.44
208.255
158.185
208.562
154.579
209.697
257.687
156.251
283.064
164.495
260.806
157.007
286.193
165.703
374.591
211.307
340.853
191.128
380.296
213.933
344.655
192.929
33.6964
22.9379
17.67
13.941
8.53332
17.2451
21.5771
22.3352
27.527
38.7538
45.9221
84.583
300.666
300.595
227.204
227.268
716.837
433.388
687.353
427.726
717.437
433.563
688.715
427.973
441.943
441.871
827.527
472.048
463.186
795.202
829.04
472.689
463.302
795.758
738.293
451.468
746.127
455.404
739.43
451.71
746.073
455.343
505.248
879.707
497.59
892.557
505.454
882.05
498.525
893.377
44.9725
77.4472
144.428
257.482
431.954
431.616
417.366
416.279
336.684
336.177
349.863
225.537
270.012
410.499
346.437
223.276
268.87
407.671
124.331
232.202
151.196
180.52
124.627
232.74
151.352
181.55
119.116
187.622
130.613
164.342
119.372
188.388
130.808
164.603
240.516
145.368
244.118
146.251
29.9733
22.8582
17.6777
11.6037
15.5811
18.9045
19.7197
26.0554
33.1264
45.0211
176.873
176.861
149.978
149.962
398.32
398.183
267.866
267.725
822.543
467.415
779.66
455.515
823.382
467.832
780.53
455.85
453.481
694.274
432.897
750.237
453.555
695.782
433.174
750.462
860.612
485.376
478.575
844.341
861.431
485.919
478.545
844.209
834.495
474.886
828.013
472.971
835.933
475.438
827.992
473.007
38.2037
59.9656
110.423
244.692
530.198
529.889
521.885
521.705
497.818
497.668
585.959
350.454
650.298
395.939
582.301
348.384
649.867
395.188
523.091
313.636
426.45
261.54
391.021
249.996
521.311
312.03
427.321
261.713
388.935
249.117
307.929
194.16
307.055
193.743
129.723
228.869
148.191
194.021
129.921
229.264
148.423
194.355
28.5186
21.6373
14.1631
12.0478
15.0501
17.0884
22.4627
29.8357
49.756
165.651
165.474
141.845
141.71
639.614
769.455
392.476
589.664
363.272
448.666
770.727
640.268
449.096
392.575
590.02
363.095
292.456
203.189
381.414
248.028
292.83
202.836
381.336
247.596
859.183
484.528
846.463
479.919
859.996
484.962
847.019
480.202
474.981
835.522
475.154
835.792
482.023
853.605
481.983
853.493
855.662
483.132
857.287
483.743
34.9689
48.7753
81.4141
165.781
482.788
482.97
521.424
521.223
596.768
595.427
586.542
586.39
426.335
765.66
456.042
729.755
400.307
690.495
427.022
766.201
455.601
731.148
400.228
690.152
621.303
358.047
619.813
357.231
544.235
316.109
443.048
362.693
262.69
220.47
544.045
315.833
444.06
363.495
263.188
220.725
284.933
177.789
285.191
177.995
25.9307
16.3235
8.5633
10.7433
15.6266
23.827
31.9187
157.085
157.034
158.518
158.594
155.001
154.862
146.032
146.031
776.575
650.425
381.304
442.863
576.836
341.222
777.971
650.866
443.318
381.405
576.145
340.889
259.927
173.535
381.825
234.645
258.441
172.781
379.528
233.602
862.569
486.173
863.091
486.446
30.47
42.8833
63.4197
114.252
274.01
512.873
512.914
557.745
556.972
911.562
536.317
918.047
531.488
907.985
533.481
916.357
530.236
860.509
822.27
498.961
889.228
515.328
473.39
862.01
823.532
499.528
890.02
515.292
473.924
442.755
406.597
773.625
709.299
443.214
406.542
774.461
709.07
628.287
360.977
627.86
360.677
544.478
316.709
371.521
227.082
546.293
317.277
372.33
227.493
18.1107
4.58205
9.55835
16.7204
28.3032
67.3449
165.137
165.119
148.544
148.706
124.754
191.636
124.356
188.985
124.988
191.557
124.784
189.61
137.345
137.369
225.275
145.405
321.991
198.931
225.004
145.199
321.239
199.383
19.6305
35.8484
52.9515
84.5304
169.884
503.923
504.134
549.609
549.552
546.41
546.38
630.922
629.473
970.919
554.737
963.534
546.576
967.897
552.846
963.371
546.282
822.793
879.377
474.622
512.784
908.955
523.435
825.382
881.088
513.387
475.585
909.823
523.83
413.091
721.527
412.788
720.796
3.59222
10.6505
18.7235
40.2974
173.718
173.057
131.441
130.659
190.989
190.963
188.238
188.045
120.748
187.2
122.169
175.716
120.743
186.993
122.317
175.701
250.823
155.002
207.854
129.761
250.434
154.934
207.35
129.655
205.027
134.506
205.428
134.663
20.8756
42.0376
66.0622
116.783
276.807
527.183
527.323
570.393
570.045
622.75
621.763
534.359
959.375
552.271
903.827
532.612
954.86
549.972
900.767
982.168
557.765
967.612
550.346
980.018
556.394
967.894
550.428
4.36253
12.3131
22.9062
65.3372
178.32
177.291
121.394
119.372
259.703
158.067
196.184
329.593
193.523
294.943
259.209
158.062
196.813
329.99
193.741
295.755
201.824
201.545
120.772
195.819
124.756
193.194
120.729
195.453
124.799
192.808
227.403
136.918
226.936
136.862
21.908
49.3922
83.7015
170.125
492.2
492.243
540.169
540.029
547.59
547.955
612.303
612.154
870.92
516.349
937.304
538.027
966.346
554.278
871.421
515.258
937.477
537.808
962.464
552.419
986.114
560.029
982.698
558.233
988.235
561.213
985.835
559.813
5.84828
13.7376
31.6179
95.3294
95.5082
165.393
165.645
181.922
179.924
116.237
113.886
320.697
178.766
182.774
330.325
192.315
263.592
320.77
178.841
183.853
330.638
192.665
264.766
337.727
227.736
294.813
199.481
334.633
226.602
292.525
197.802
22.7898
58.4112
108.574
266.099
513.29
513.078
568.362
567.458
627.583
626.723
911.174
524.294
510.063
889.998
515.892
851.246
511.357
892.011
517.014
854.234
912.498
524.688
949.38
981.763
538.872
558.135
949.959
979.461
539.077
556.802
974.089
558.39
971.34
556.892
6.88003
15.5051
55.5583
149.498
150.769
183.816
183.636
321.907
193.904
144.75
247.795
165.153
182.34
312.829
189.918
145.084
231.533
159.858
179.165
119.235
119.345
172.89
246.141
173.569
246.827
297.795
179.478
291.527
175.725
23.5759
69.4135
143.122
446.294
446.283
494.043
493.832
521.139
520.677
608.235
605.982
878.266
522.238
924.213
531.03
910.06
524.08
873.095
912.027
524.949
518.254
922.09
529.552
903.473
517.402
903.489
518.099
906.329
905.627
519.637
518.078
7.33218
22.1839
101.659
225.431
227.502
215.674
216.371
295.997
170.014
122.573
218.478
133.957
175.746
287.695
164.424
124.718
214.833
132.507
178.999
296.444
227.167
208.591
157.473
300.278
226.297
232.221
164.73
280.862
166.33
272.721
161.277
24.2331
82.4867
189.426
449.211
448.945
493.967
493.025
568.731
567.201
921.501
528.41
480.541
880.232
506.618
796.571
915.776
525.004
477.979
873.712
503.508
792.175
925.101
911.991
526.191
519.021
914.508
519.902
921.551
524.394
9.06009
36.88
231.532
240.16
241.988
232.266
180.671
180.686
274.616
347.077
225.703
281.148
367.414
233.245
250.47
150.17
125.143
216.97
133.788
208.353
247.024
147.592
136.733
227.449
141.883
225.59
302.138
179
331.901
196.239
24.7081
97.3012
231.172
433.932
433.451
501.808
500.045
735.642
449.732
813.975
469.269
838.59
483.728
730.633
834.461
481.63
445.768
811.764
467.92
914.644
518.911
866.643
492.936
908.752
516.021
862.548
491.09
891.28
516.455
886.718
514.669
12.7861
44.6025
284.801
204.372
287.895
204.924
127.962
127.981
526.234
445.211
262.383
391.079
241.505
307.09
488.838
324.058
472.115
548.428
277.647
415.9
253.417
319.826
509.407
331.142
164.946
281.515
181.848
309.538
365.922
210.128
399.295
229.876
24.8196
112.887
366.92
435.547
434.755
366.9
408.254
408.062
513.259
760.175
448.515
511.801
756.179
445.678
833.96
805.789
473.154
458.746
833.563
472.817
804.553
457.92
885.694
505.762
821.349
472.47
880.519
503.553
819.82
471.754
9.84176
36.2719
295.883
318.234
524.044
175.381
297.26
324.053
533.667
177.93
125.127
126.003
529.721
558.73
439.903
249.197
296.849
314.107
552.099
471.286
574.083
267.567
310.716
323.805
199.408
344.492
217.498
375.003
24.5267
139.539
367.654
432.46
431.762
367.3
402.847
402.045
704.228
752.754
436.04
758.303
444.168
409.28
609.209
388.004
701.224
750.007
434.176
754.332
441.464
407.852
605.94
385.156
814.781
793.806
463.666
451.762
815.692
463.913
791.515
450.578
8.71843
82.9294
98.606
99.2462
81.8682
75.9945
75.5672
391.469
319.965
534.07
315.085
539.226
275.518
491.909
284.923
167.154
342.372
236.529
408.561
323.559
538.539
317.481
544.561
275.849
498.393
287.437
167.492
350.911
236.523
578.01
574.986
323.384
325.865
593.484
582.913
332.881
331.179
24.3905
144.97
341.121
444.941
378.221
623.576
444.2
378.136
623.88
340.049
405.354
402.843
735.895
679.857
784.572
418.375
447.14
390.525
734.346
679.358
782.391
446.088
417.57
390.221
789.458
451.417
788.772
451.066
15.0956
122.053
90.55
122.145
89.796
73.5864
72.789
560.286
519.828
294.716
326.904
453.534
258.898
244.543
302.856
205.68
327.69
222.052
170.273
232.759
202.991
565.478
524.048
329.923
296.428
457.136
259.926
306.679
251.2
205.305
334.706
220.799
170.108
238.573
199.68
23.1911
118.801
334.668
332.997
124.123
245.665
245.63
532.74
373.062
622.738
369.216
618.596
359.396
601.961
359.392
526.892
372.44
621.828
368.32
618.236
354.338
599.546
358.659
418.248
560.631
350.828
415.379
554.93
346.213
706.699
655.191
404.522
379.937
706.509
654.992
404.303
379.8
15.0945
121.044
173.259
202.058
103.21
120.834
173.316
203.591
102.534
80.4856
80.0997
495.211
282.111
430.054
242.486
284.844
218.784
388.161
222.536
168.959
136.445
497.243
282.819
432.635
243.165
291.121
390.86
221.422
223.273
170.138
136.117
23.5696
169.689
310.282
307.274
170.783
231.223
230.874
633.404
623.195
372.219
364.283
587.397
344.47
632.907
622.274
372.018
364.124
586.407
344.16
554.737
564.926
335.266
562.59
344.636
333.95
469.923
338.095
543.891
562.137
333.339
558.176
341.011
327.715
458.293
330.568
50.8378
88.223
88.0659
123.233
172.973
195.598
175.817
197.898
109.086
122.766
174.757
195.869
174.741
198.082
108.712
343.699
238.33
192.703
198.625
142.503
125.629
345.97
241.238
191.716
199.074
142.848
125.192
24.4043
146.895
318.932
313.696
469.969
314.632
309.731
460.892
148.753
207.79
208.513
614.388
363.894
579.888
337.103
613.66
364.081
579.569
337.167
559.045
531.272
569.577
322.308
330.171
310.32
554.945
518.091
570.204
330.375
320.058
304.003
14.9072
112.06
106.204
112.141
106.536
125.866
177.649
195.43
178.844
200.024
184.725
125.248
107.19
125.556
179.156
194.232
175.874
200.884
185.483
124.449
106.879
214.13
129.804
212.785
128.563
25.8855
147.714
148.491
295.756
315.674
490.69
318.327
483.13
293.184
308.331
473.843
308.329
469.832
202.257
202.181
537.277
562.419
537.378
314.429
327.411
312.286
532.242
563.555
522.683
327.678
311.855
305.649
13.8204
76.7983
85.5428
77.0731
85.5713
89.7233
89.5005
125.574
179.299
206.171
181.558
205.134
135.153
185.685
130.795
194.944
198.607
123.801
125.398
182.101
208.14
182.673
207.24
135.038
184.395
128.212
196.461
197.88
122.606
31.5043
141.974
138.457
143.033
139.876
279.674
298.101
472.334
310.77
444.447
539.937
313.937
277.327
296.177
459.419
303.492
439.469
526.53
307.723
192.579
193.15
537.235
315.504
529.814
312.414
12.0381
87.5341
90.6128
87.7177
90.5681
93.45
113.845
93.2359
113.571
108.432
108.469
179.771
205.419
182.571
200.342
140.368
202.913
145.164
200.392
128.642
190.652
123.196
193.391
181.421
206.223
182.795
200.753
142.177
206.968
147.398
204.631
127.569
189.848
122.016
191.264
37.193
156.556
188.82
157.614
189.269
177.647
179.478
269.304
287.664
423.289
282.927
431.331
306.969
534.698
312.81
517.343
540.967
319.208
268.423
284.899
412.126
276.48
425.788
301.918
520.917
306.771
506.068
532.465
315.903
2.32714
81.1095
69.5898
80.8831
69.1946
123.118
129.476
122.889
129.104
111.208
122.363
110.703
122.071
171.178
171.96
164.297
181.132
173.094
173.563
166.308
181.975
143.902
203.116
146.697
195.428
145.355
205.025
147.959
197.233
37.4996
223.35
244.226
223.568
244.575
194.179
230.778
195.474
231.061
255.345
256.388
269.107
407.294
277.087
380.933
295.342
466.28
280.92
497.016
323.551
543.25
323.572
542.393
270.687
399.7
272.746
383.299
291.308
458.253
278.332
487.033
319.834
533.293
320.211
531.665
19.774
2.4886
113.496
89.3741
113.019
88.3003
132.539
143.102
132.288
142.817
175.548
179.221
172.759
183.09
180.32
195.216
179.829
192.59
178.391
181.243
175.266
185.335
182.601
195.419
179.769
194.632
135.967
173.42
130.725
179.173
137.681
176.198
132.686
181.467
33.2128
257.698
228.587
258.044
229.66
269.197
290.884
269.006
290.762
258.927
283.193
260.12
283.295
268.6
381.266
270.776
372.625
271.179
382.822
271.456
376.973
276.335
452.681
279.377
435.083
276.417
447.422
278.407
434.169
11.433
80.8083
67.2458
80.6444
67.8005
3.43651
129.683
113.218
129.16
112.426
183.241
204.471
182.42
203.806
190.388
217.502
192.4
213.307
184.862
204.361
182.035
205.497
191.907
215.055
190.01
214.795
137.642
180.79
136.845
181.211
144.334
212.92
158.767
194.017
140.807
185.115
140.054
185.821
146.548
213.376
159.144
197.777
29.0871
149.31
301.357
297.535
300.99
297.066
320.761
346.775
319.534
345.035
271.675
383.561
271.114
382.41
273.861
418.316
283.448
392.558
275.315
385.94
272.072
388.944
277.494
417.146
281.925
398.693
269.922
421.386
264.803
421.13
270.413
424.068
265.71
422.565
10.6901
63.2952
76.2803
63.372
76.6209
130.331
109.993
130.28
110.833
3.53636
188.379
207.597
190.266
203.276
181.721
206.946
206.399
191.545
189.814
204.852
187.824
204.157
182.76
204.889
203.923
192.127
165.7
233.227
168.161
232.97
170.941
257.523
178.018
246.485
167.402
233
168.096
235.542
172.614
252.816
175.294
249.06
25.555
107.941
302.188
274.529
299.498
272.416
350.552
316.889
347.725
313.721
302.279
446.436
293.658
465.024
312.431
507.791
322.966
484.055
301.448
440.528
289.47
463.725
311.926
497.723
317.011
482.627
262.478
420.415
261.07
425.491
266.493
452.758
273.058
436.495
264.652
425.351
262.765
432.005
268.525
456.077
274.11
442.649
51.1328
10.0911
88.338
121.499
88.2724
121.24
193.226
213.631
172.148
196.318
182.008
183.062
215.105
211.386
188.757
180.38
192.025
207.891
169.441
194.329
177.835
179.69
211.652
205.532
187.73
175.958
4.63361
157.954
241.482
167.984
225.549
152.457
207.648
157.96
235.946
164.818
225.249
151.414
205.898
168.782
257.156
173.618
247.85
169.025
250.113
169.907
248.53
23.7038
85.2351
288.966
278.932
288.165
278.799
377.895
339.996
371.855
335.965
312.118
510.947
323.457
484.859
302.784
452.046
328.266
453.985
307.647
498.416
315.969
476.896
299.032
433.419
316.996
445.591
302.216
471.089
284.508
503.063
313.068
545.658
318.661
527.896
301.536
471.274
284.612
501.338
311.172
536.618
315.141
523.125
30.6254
157.869
156.115
158.041
156.201
11.0277
159.482
175.725
158.122
175.555
204.199
201.562
147.849
146.431
196.801
142.982
206.878
176.712
189.341
140.064
196.767
199.072
142.563
143.975
191.739
138.98
201.665
171.9
184.265
135.621
5.21487
146.199
235.274
159.876
213.925
139.009
198.995
145.729
228.448
156.228
213.421
137.184
196.475
23.5626
83.6283
207.525
339.66
363.258
338.476
363.178
541.412
532.529
323.756
524.648
322.847
320.024
467.435
329.819
500.727
321.62
513.746
526.355
315.427
510.273
313.7
311.055
459.832
323.764
488.979
313.449
310.107
546.536
317.625
532.009
300.965
513.278
306.131
537.179
313.786
522.213
295.003
497.824
319.699
546.336
324.087
526.797
319.075
540.76
322.553
523.432
22.1061
141.492
148.992
141.3
148.923
182.939
133.138
183.009
133.143
11.7878
186.667
235.361
166.015
260.434
204.849
286.704
233.969
287.798
186.165
231.282
164
256.475
206.279
288.645
231.783
286.643
200.477
141.371
215.03
140.649
201.86
136.799
193.754
137.209
213.671
138.856
199.179
134.377
4.4161
24.003
78.2106
191.735
432.849
447.913
432.21
447.38
418.85
421.749
418.664
421.761
546.531
564.036
332.517
318.473
554.726
327.087
536.303
325.936
531.068
314.67
535.244
553.949
313.881
329.611
545.662
324.157
532.313
324.49
525.519
312.452
324.156
554.633
327.267
548.623
319.555
540.36
321.96
547.796
325.242
541.137
316.973
532.627
56.7101
19.6279
116.763
104.969
116.867
105.234
238.415
275.387
169.494
217.52
176.602
195.052
167.559
153.462
178.567
155.155
238.37
286.427
167.03
217.247
174.452
195.267
165.997
151.005
179.424
154.105
10.8086
152.744
218.781
142.686
242.794
169.58
274.669
152.473
218.655
142.43
242.175
170.689
277.826
3.15239
24.1845
69.8614
149.804
484.631
499.647
484.34
499.613
511.193
516.988
510.29
515.01
374.626
584.059
352.301
620.911
384.516
615.296
390.975
635.7
377.294
585.818
352.997