/*--------------------------------*- C++ -*----------------------------------*\
| =========                 |                                                 |
| \\      /  F ield         | OpenFOAM: The Open Source CFD Toolbox           |
|  \\    /   O peration     | Version:  5.x                                   |
|   \\  /    A nd           | Web:      www.OpenFOAM.org                      |
|    \\/     M anipulation  |                                                 |
\*---------------------------------------------------------------------------*/
FoamFile
{
    version     2.0;
    format      ascii;
    class       volScalarField;
    location    "1.8";
    object      p;
}
// * * * * * * * * * * * * * * * * * * * * * * * * * * * * * * * * * * * * * //

dimensions      [1 -1 -2 0 0 0 0];

internalField   nonuniform List<scalar> 
12160
(
5284.13
5302.39
4630.13
5313.27
4648.42
3976.27
5324.53
4659.13
3994.57
3322.24
5336.9
4670.37
4005.02
3340.67
2668.66
5349.67
4682.81
4016.16
3350.45
2687.09
2014.46
5362.22
4695.62
4028.6
3361.71
2696.16
2033.32
1361.23
5374.46
4708.21
4041.57
3374.29
2707.22
2041.17
1380.25
706.534
5386.94
4720.36
4054.22
3387.42
2719.93
2052.36
1386.63
728.328
195.108
5400.96
4732.56
4066.19
3400.24
2733.37
2065.21
1397.39
732.58
206.571
1.84749
5418.28
4746.18
4077.85
3411.99
2746.43
2079.21
1410.55
743.247
207.757
1.12648
-6.61922
5440.62
4763.08
4090.65
3422.8
2757.95
2092.81
1425.26
756.96
213.74
1.54618
-6.8234
-7.47878
5469.12
4785.11
4106.7
3434.3
2767.61
2104.13
1439.54
773.26
223.536
2.72574
-6.81884
-7.48062
-8.22924
5503.81
4813.52
4128.1
3449
2777.27
2112.32
1450.74
789.703
236.772
5.43282
-6.81691
-7.49758
-8.19843
-8.79187
5543.69
4848.35
4156.32
3469.37
2790.05
2119.5
1457.19
801.83
251.758
9.15894
-6.79905
-7.4954
-8.16403
-8.79624
-9.52182
5586.91
4888.56
4191.51
3497.24
2808.96
2129.61
1461.07
806.704
262.651
14.6169
-6.78231
-7.50448
-8.15642
-8.81273
-9.51233
5631.21
4932.3
4232.55
3532.88
2836.35
2146.45
1467.6
806.752
266.387
19.677
-6.74434
-7.5172
-8.15775
-8.81793
-9.48809
5674.29
4977.19
4277.41
3575.02
2872.7
2173.11
1481.69
808.597
263.913
21.8856
-6.6725
-7.53106
-8.16551
-8.82307
-9.48001
5714.07
5020.86
4323.5
3621.52
2916.59
2210.28
1507.34
818.424
261.185
21.6668
-6.52458
-7.54519
-8.17814
-8.82662
-9.47908
5748.8
5061.17
4368.33
3669.52
2965.53
2256.24
1545.61
841.482
263.971
20.6507
-6.40133
-7.53791
-8.19228
-8.8312
-9.48231
5777.14
5096.35
4409.67
3716.16
3016.05
2308.12
1594.58
879.547
277.115
20.8381
-6.30869
-7.50268
-8.19156
-8.83646
-9.48471
5798.14
5125.05
4445.71
3759.07
3065.06
2362.28
1650.62
930.775
303.585
23.7568
-6.20959
-7.45747
-8.16623
-8.8318
-9.48798
5811.19
5146.33
4475.12
3796.44
3110.08
2414.52
1708.99
991.316
343.302
31.1422
-6.05042
-7.42098
-8.13175
-8.81667
-9.48867
5816.01
5159.6
4496.95
3826.89
3149.21
2462.28
1764.97
1055.06
393.844
44.0865
-5.71611
-7.41194
-8.10266
-8.8022
-9.4858
5812.6
5164.57
4510.64
3849.53
3181.07
2503.63
1815.87
1116.2
449.552
62.9552
-5.07288
-7.41929
-8.07781
-8.78666
-9.47554
5801.12
5161.26
4515.92
3863.84
3204.79
2537.23
1859.8
1171.2
504.862
86.6847
-3.69506
-7.43278
-8.0881
-8.77985
-9.47009
5781.95
5149.82
4512.83
3869.57
3219.91
2562.26
1895.41
1218.41
556.104
113.345
-1.28724
-7.45576
-8.11494
-8.78152
-9.46744
5755.66
5130.64
4501.5
3866.79
3226.26
2578.36
1921.98
1256.54
600.947
140.324
2.06179
-7.44831
-8.15592
-8.7937
-9.46848
5722.95
5104.26
4482.31
3855.62
3223.91
2585.45
1939.23
1284.82
637.499
165.401
6.04402
-7.40542
-8.20844
-8.81439
-9.47295
5684.62
5071.36
4455.8
3836.42
3212.98
2583.65
1947.19
1303.18
664.867
186.664
10.3508
-7.29252
-8.22786
-8.8305
-9.48063
5641.62
5032.74
4422.65
3809.68
3193.79
2573.05
1946.09
1311.99
682.85
203.232
14.4846
-7.12458
-8.24398
-8.85645
-9.49192
5594.87
4989.3
4383.7
3776.06
3166.8
2553.89
1935.92
1311.74
692.045
214.842
18.0327
-6.92427
-8.25174
-8.86965
-9.49282
5545.51
4942.38
4339.92
3736.29
3132.66
2526.59
1916.83
1302.21
692.836
221.238
20.7623
-6.72607
-8.25051
-8.87678
-9.49621
5494.55
4892.58
4291.8
3691.2
3092.17
2491.72
1889.24
1283.32
685.063
222.161
22.3628
-6.55921
-8.2454
-8.87845
-9.49852
5443.06
4841.19
4241.07
3642.44
3046.32
2450
1853.68
1255.31
668.171
217.783
22.5705
-6.4579
-8.24509
-8.87724
-9.49922
5391.95
4789.24
4188.67
3590.39
2995.43
2402.02
1810.95
1218.71
642.556
208.126
21.4719
-6.45087
-8.24731
-8.87762
-9.49908
5342.04
4737.69
4135.73
3536.6
2941.43
2349.57
1762.21
1173.89
608.899
193.477
19.2568
-6.53341
-8.25109
-8.88012
-9.49942
5294.02
4687.36
4083.25
3482.25
2885.49
2293.09
1706.67
1121.3
568.074
174.188
16.0896
-6.68326
-8.25931
-8.88285
-9.50059
5248.46
4638.95
4032.06
3428.42
2829.09
2234.57
1647.08
1064.58
521.222
151.142
12.2224
-6.87714
-8.27374
-8.88792
-9.50149
5205.83
4593.05
3982.87
3375.95
2773.34
2175.67
1585.1
1001.13
469.191
125.605
8.07004
-7.08529
-8.28921
-8.8955
-9.50284
4550.13
5140.94
3936.27
3325.58
2719.12
2117.61
1523.01
935.729
413.46
98.8196
3.99442
-7.27463
-8.3001
-8.90247
-9.50506
3892.75
4484.83
5061.64
3277.92
2667.13
2061.22
1462.1
871.521
358.276
72.6312
0.281655
-7.41821
-8.3055
-8.90617
-9.50717
3233.51
3826.66
4405.43
5030.68
2617.99
2007.19
1403.11
809.889
308.653
49.7804
-2.65792
-7.50587
-8.30976
-8.9045
-9.50835
2572.33
3166.25
3746.61
4374.16
4995.77
1956.16
1346.68
750.952
266.152
32.7455
-4.48819
-7.52402
-8.27601
-8.88724
-9.50836
1908.8
2503.47
3086.47
3715.68
4339.27
4979.65
1293.53
695.195
229.333
20.9034
-5.46385
-7.50788
-8.2381
-8.88346
-9.50998
1244.46
1837.52
2425.38
3053.55
3680.52
4323.5
4971.08
643.625
196.82
12.7229
-5.98488
-7.48484
-8.19684
-8.86428
-9.5025
596.988
1171.4
1759.68
2387.92
3019.45
3665.42
4313.71
4966.03
168.485
7.02031
-6.27294
-7.47001
-8.1648
-8.84289
-9.49779
144.018
529.262
1094.77
1718.81
2356.49
3005.49
3654.37
4308.93
4966.09
3.1537
-6.43763
-7.45798
-8.1432
-8.82572
-9.49297
0.51979
111.448
464.69
1054.73
1689.18
2344.39
2993.51
3648.52
4302.83
4964.23
-6.5371
-7.44545
-8.12965
-8.81392
-9.48819
-6.60016
-2.27202
84.6792
430.588
1027.05
1679.72
2332.49
2989.28
3636.23
4293.68
4944.74
-7.43325
-8.11995
-8.80586
-9.48437
-7.42158
-6.65432
-3.68846
71.6745
410.938
1022.56
1669.81
2330.58
2967.78
3600.15
4279.87
5091.58
-8.11228
-8.79962
-9.48136
-8.10471
-7.40193
-6.67725
-4.15044
65.1216
407.441
1013.12
1671.74
2308.88
2914.88
3569.69
4346.74
4689.32
5531.67
-8.79446
-9.47889
-8.7894
-8.09192
-7.39292
-6.68715
-4.2938
65.8636
407.105
1017.73
1658.6
2264.19
2852.69
3550.76
4099.18
4461.66
5209.6
5909.92
-9.47675
-9.47447
-8.78136
-8.08396
-7.38778
-6.68165
-4.14669
67.7944
414.723
1011.78
1633.41
2169.4
2804.82
3478.91
3978.85
4222.34
4922.52
5673.67
6357.47
-9.47135
-8.77467
-8.0812
-7.37914
-6.66151
-3.80727
72.2455
414.79
1006.81
1551.31
2148.21
2870.77
3456.36
3797.57
3950.38
4649.64
5400.9
6182.72
6898.26
-9.46731
-8.77064
-8.07561
-7.36056
-6.61841
-3.44959
73.9007
410.375
1004.12
1618.09
2303.6
2913.69
3350.14
3565.89
3658.83
4349.74
5117.55
5932.89
6763.73
7540.74
-9.46491
-8.76345
-8.05597
-7.32435
-6.53294
-2.74246
65.6246
438.501
1105.22
1754.6
2382.68
2874.41
3171.29
3322.47
3359.44
4025.2
4810.59
5666.31
6542.68
7424.21
8268.95
-9.46392
-8.75412
-8.02143
-7.25009
-6.39642
-3.12963
67.4865
543.828
1218.1
1853.19
2375.04
2763.04
2993.49
3060.51
2435.12
3677.13
2438.46
2351.52
2353.69
4442.48
5356.47
6309.81
7236.62
8159.04
9073.3
-9.45756
-8.73081
-7.95456
-7.138
-6.21413
-4.4344
116.766
626.311
1294.41
1851.66
2322.61
2633.33
2799.73
2798.91
2541.03
2310.75
3992.58
2544.53
2661.64
2664.21
2312.14
2191.54
2191.91
4927.23
5990.5
7028.76
8007.86
8969.75
9936.96
-9.44829
-8.68574
-7.83889
-7.03641
-6.09301
-4.24668
154.86
674.08
1296.11
1820.78
2227.69
2489.39
2587.01
2028.41
2026.9
1963.9
1965.16
2400.36
2191.85
4370.32
3483.59
2402.04
2477.24
2478.74
2185.35
2106.7
2101.17
5527.89
6712.47
7812.49
8834.47
9840.27
10847.8
-9.43186
-8.61645
-7.68767
-6.86847
-5.80236
-3.92308
172.012
701.189
1262.48
1743.75
2103.76
2315.3
1888.19
1889.66
1814.82
1816.38
1923.76
1921.58
1880.43
1877.16
2247.01
1854.15
1763.74
1864.03
1758.24
4916.06
3647.15
2262.22
2263.19
2287.86
2285.98
2240.91
2285
2279.98
1851.82
1766.13
1862.12
1756.77
1839.35
1648.41
1800.02
1734.91
1836.81
1646.96
1796.79
1731.84
6260.3
7530.83
8659.76
9713.87
10750.4
11798.7
-9.40797
-8.54044
-7.59195
-6.62848
-5.56832
-1.97296
195.581
665.294
1185.51
1630.75
1950.39
1727.82
1728.77
1623.52
1624.39
1821.12
1816.29
1755.99
1749.78
1593.39
1646.03
1664.6
1548.1
1634.44
1702.82
1644.28
1595.72
1664.98
1548.56
1634.24
1702.06
1517.15
1608.32
1529.3
1622.18
1517.86
1607.94
1529.74
1621.89
1885.15
1775.66
1876.04
1786.16
1766.85
1769.01
1780.39
1752.63
5645.39
4019.49
2345.3
2345.2
2274.07
2274.34
2022.14
2018
2063.89
2060.96
1883.47
1777.83
1874.31
1785.51
1888.24
1742.92
1921.73
1785.22
1886.39
1746.51
1919.78
1784.34
1767.47
1771.66
1781.03
1755.45
1759.47
1728.9
1759.07
1728.69
7109.91
8406.66
9557.43
10618.1
11679.3
12784.1
-9.38193
-8.49349
-7.58328
-6.61439
-5.09748
9.19072
179.573
610.726
1085.99
1502.14
1464.66
1465.23
1335.24
1335.8
1667.28
1661.52
1578.15
1572.39
1488.2
1575.21
1458.18
1543.96
1489.57
1575.13
1463.27
1544.62
1404.53
1491.55
1430.79
1516.18
1408.89
1491.72
1434.88
1516.4
1644.04
1595.21
1637.96
1669.06
1568.41
1596.03
1645.74
1596.86
1669.65
1638.17
1568.79
1596.11
1550.9
1568.62
1564.59
1586.37
1552.28
1569
1564.74
1586.44
1791.48
1780.96
1791.91
1775.74
1738.56
1736.9
1748.21
1727.89
6516.26
4695.76
2668.6
2667.75
2471.22
2469.68
2100.19
2094.31
2019.97
2015.02
1563.36
1659.78
1603.21
1701.31
1567.92
1661.01
1606.64
1702.15
1655.78
1747.17
1731.48
1639.8
1739.61
1823.27
1659.31
1746.27
1732.29
1642.69
1740.3
1823.05
1791.99
1782.58
1792.21
1778.06
1791.01
1760.42
1791.32
1761.86
1738.03
1738.29
1749.03
1725.45
1725.23
1703.51
1724.04
1700.74
8038.06
9321.2
10476.7
11530.2
12624.1
13793.5
-9.36714
-8.5552
-7.96005
-6.89369
-3.17499
23.8639
159.957
532.336
967.246
1150.96
1151.57
956.915
957.038
1417.17
1414.55
1273
1272.76
1362.53
1449.5
1314.25
1401.52
1365.22
1449.18
1318.87
1401.53
1233.81
1354.81
1272.6
1361.64
1235.55
1353.64
1275.63
1361.13
1518.6
1532.29
1488.34
1497.64
1520.52
1532.95
1489.78
1498.29
1442.1
1451.58
1466.43
1473.78
1445.14
1452.7
1467.03
1474.36
1751.03
1747.26
1758.52
1733.68
7529.52
5682.65
3308.28
3309.91
2942.63
2942.15
2469.78
2459.77
2258.19
2250.53
1625.64
1720.74
1593.62
1696.57
1631.53
1721.57
1600.62
1698.41
1540.64
1630.14
1562.55
1664.48
1546.18
1631.81
1571.24
1666.63
1552.26
1574.57
1587.7
1608.04
1558.73
1577.05
1592.15
1609.89
1679.45
1650.95
1685.18
1705.01
1624.63
1647.73
1682.23
1654.59
1686.32
1706.05
1628.1
1649.17
1751.37
1748.41
1759.05
1733.94
1726.41
1703.71
1726.73
1704.67
9002.01
10263.9
11391
12438.3
13593.3
14819.7
-9.40975
-8.94518
-9.17034
-7.32802
3.0253
37.0525
140.854
439.854
827.486
1093.06
1093.41
877.697
878.246
1349.02
1348.06
1216.74
1214.69
1393.31
1403.95
1345.38
1358.22
1395
1404.76
1346.89
1358.89
1223.02
1275.47
1293.11
1313
1223.18
1275.4
1293.85
1313.33
1424.2
1437.78
1428.99
1439.28
8593.95
6860.86
4204.59
4208.16
3706.37
3708.14
3038.42
3033.14
2712.97
2706.77
1890.31
2057.55
1822.82
1941.72
1885.73
2055.28
1823.92
1941.36
1687.83
1783.86
1766.12
1881.31
1689.77
1783.82
1769.3
1881.37
1615.44
1639.5
1571.88
1591.14
1621.15
1641.41
1576.57
1593.35
1530.64
1550.93
1555.86
1574.32
1537.9
1553.74
1561.5
1576.77
9986.04
11201.9
12279.3
13366.5
14582.5
15799.5
-9.57599
-9.85902
-11.1516
-5.97034
10.6891
44.5987
150.253
386.652
644.3
644.827
481.797
482.604
1051.88
1048.32
840.517
842.112
1144.75
1144.65
1196.1
1080.97
1143.99
1143.19
1195.7
1079.5
1083.56
954.368
1020.37
1018.17
1082.6
955.246
1019.57
1017.13
1373.95
1383.32
1322.45
1330.04
1377.15
1384.54
1324.64
1330.9
1228.88
1244.06
1281.64
1293.39
1230.99
1244.77
1282.2
1293.74
9646.62
8089.25
6249.13
3877.73
3880.11
3432.01
3428.64
2706.2
2703.76
2375.59
2372.66
1816.48
1898.25
1727.39
1803.71
1820.31
1898.8
1731.69
1804.87
1655.74
1692.23
1701.24
1752.74
1659.5
1693.7
1703.96
1753.65
1579.84
1611.45
1587.71
1613.76
10965.2
12091.9
13167.6
14306.4
15572.2
16535.5
-9.8728
-11.0132
-10.4647
-5.54675
13.1871
38.8499
165.001
352.589
592.694
590.762
412.257
411.497
871.783
935.223
877.829
783.708
872.943
934.446
876.703
783.65
804.212
801.355
1102.54
1146.77
1155.67
1097.63
1102.26
1147.39
1155.65
1096.6
1045.49
960.028
971.889
1037.45
1045.24
959.802
971.746
1037.01
1214.8
1228.81
1218.99
1229.95
10685.5
9271.67
7662.23
4845.86
4850.34
4159.24
4159.34
3599.49
3599.67
3150.97
3140.19
2143.45
2204.01
2323.7
2050.25
2146.49
2211.57
2325.64
2056.76
2030.54
1838.28
1892.96
1951.92
2031.85
1842.09
1894.23
1954.75
1758.05
1791.04
1680.71
1729.38
1763.65
1792.66
1683.61
1730.58
1611.51
1643.62
1649.45
1687.38
1616.12
1645.13
1652.1
1688.31
11879.7
12952.5
14057.2
15242.6
16343
-10.1978
-10.6587
-8.88235
-6.24561
5.95237
33.0421
126.407
236.525
236.763
190.633
191.958
492.048
529.93
400.202
449.555
492.184
529.54
401.355
449.271
373.37
372.958
875.82
890.792
814.91
769.776
875.441
890.598
814.653
769.978
584.441
629.746
670.633
706.549
585.525
629.335
670.516
706.193
1019.75
933.143
948.689
1004.25
1020.15
934.664
949.083
1006.16
11651.4
10399.8
8972.59
7414.98
4671.63
4661.75
3997.5
3986.66
3425.97
3412.85
2349.05
2508.44
2780.79
2552.53
2353.41
2508.73
2779.03
2551.55
2066.43
2149.06
2220.31
2000.29
2068.38
2156.43
2222.86
2005.42
1947.93
1755.93
1842.42
1884.48
1948.8
1756.8
1842.95
1885.89
1744.39
1793.62
1752.15
1795.66
12739.5
13810.2
14937
16023.6
-9.96624
-9.54942
-8.31106
-6.65537
-3.43027
14.5476
110.222
110.754
67.0735
67.2995
193.772
193.829
162.349
162.29
471.876
484.221
371.652
397.087
471.523
484.129
371.507
397.039
308.595
239.12
267.937
292.118
308.656
240.377
267.997
292.382
852.478
864.047
783.263
769.678
852.001
863.925
783.165
769.38
576.596
586.704
659.226
666.728
577.264
586.814
659.068
666.628
12534.7
11436.5
10189.8
8840.47
5831.26
5833.17
5178.04
5173.94
4460.31
4460.33
3051.53
3284.5
3315.63
3618.28
3058.73
3286.12
3334.3
3622.61
2828.08
3004.57
2589.77
2743.12
2520.18
2620.09
2844.41
3008.52
2598.82
2745.96
2521.56
2620.43
2290.61
2385.53
2294.53
2386.95
2064.74
2123.05
2178.42
2005.97
2067.71
2134.66
2181.87
2015.01
13586
14645.4
15696.6
-9.83003
-9.05457
-8.03834
-7.02135
-5.31813
7.49802
105.68
105.508
52.0848
51.9757
164.783
230.152
171.797
147.028
154.329
248.035
231.301
165.554
248.6
172.268
147.808
154.653
131.25
141.207
131.936
137.619
130.707
141.073
132.238
137.81
447.73
457.41
360.46
370
448.228
457.649
360.977
370.246
289.641
280.149
289.723
280.447
749.325
737.487
749.289
737.49
533.596
546.05
535.462
546.605
13384.9
12360.6
11299.4
10135.4
7042.98
7052.32
6424.08
6425.12
5800.94
5793.25
5073.47
5074.11
3763.89
3719.59
4060.9
3540.19
3458.82
3328.37
3767.18
3742.92
4067.34
3547.84
3461.95
3335.69
3085.28
3150.71
3093.17
3154.09
2829.58
2880.52
2618.5
2432.86
2690.71
2495.97
2841.52
2884.74
2621.67
2443.71
2692.06
2499.21
2256.44
2306.67
2264.35
2309.23
14398.2
15393
-9.77531
-8.84656
-7.90135
-6.8957
-6.31219
4.21084
4.08216
-4.149
-4.16817
104.91
104.336
47.6519
47.9053
210.88
156.832
154.386
219.722
152.712
153.583
212.441
157.226
220.415
154.745
153.009
153.645
123.15
126.649
139.059
141.042
123.417
127.29
139.215
140.991
332.385
343.26
333.219
343.473
14194.5
13223.7
12265
11287
10251.3
7054.37
7051.59
6477.71
6460.87
4913.82
5352.44
4686.39
4980.82
4940.72
5359.7
4704.75
4987.49
4114.14
3792.53
4369.32
4381.41
4652.51
3984.83
4130.08
3808.59
4375.35
4405.06
4659.6
3991.13
3701.51
3371.24
3630.14
3324.11
3704.02
3373.23
3635.91
3328.89
3077.89
3096.04
3086.87
3099.65
2865.08
2888.2
2442.22
2510.99
2877.97
2892.48
2449.04
2513.14
15134.9
-9.71371
-8.72618
-7.79811
-7.40057
-6.54011
-0.0990646
-0.18112
-3.3298
-3.34388
65.9525
95.3764
102.392
57.8903
66.2284
97.6849
102.574
58.9652
31.741
32.3783
126.51
125.398
141.822
146.022
128.031
125.742
141.506
145.107
14920.6
14040.9
13146.9
12280.4
11443.2
8231.11
8243.14
7585.05
7583.45
7023.5
7023.96
6469.05
6459.9
5059.07
5297.34
4860.95
4921.98
5074.56
5302.85
4872.52
4927.14
3926.54
4314.28
4025.25
4421.83
4574.41
4656.29
3942.61
4324.36
4426.06
4030.81
4582.27
4660.22
3422.3
3386.62
3423.86
3391.37
-9.62377
-8.66653
-8.00289
-7.42558
-4.83696
-4.83627
-5.26671
-5.28379
-3.29266
-3.29331
-4.25216
-4.25481
56.2336
83.2517
87.829
50.4498
56.5564
85.4699
88.3215
51.7524
4.90039
3.44852
26.169
29.3957
5.02854
3.50195
26.3809
29.5811
115.656
117.519
118.518
117.884
14776.4
13986.8
13187.7
12435.9
11735.5
8226.18
8225.34
7745.34
7728.22
7163.85
7147.5
6080.14
5414.3
5717.63
5588.19
6077.06
5412.33
5717.49
5583.04
5209.27
5299.63
4953.71
5005.76
5222.68
5304.28
4964.02
5010.04
-9.52619
-8.72705
-8.09288
-7.5293
-4.87831
-4.8618
-5.29445
-5.30243
4.54074
3.96175
-3.89167
-2.84519
-2.91482
-3.55581
4.56897
3.97411
-3.87855
-2.84034
-2.91275
-3.54051
-4.73291
-4.71241
60.3532
78.3256
87.2451
51.7708
60.4061
79.4587
87.5209
51.8004
20.1719
20.693
20.187
20.7406
14722.2
14049.5
13366.5
12754.8
9429.37
9439.35
8770.13
8771.97
8159.25
8174.85
7835.96
7820.68
6097.19
6651.37
6043.44
6347.91
5725.78
6025.45
6151.18
6665.79
6062.45
6355.5
5722.39
6024.65
5573.41
5659.97
5577.88
5661.76
5347.61
5414.74
5360.21
5418.44
-9.49249
-8.73117
-8.11897
-5.5088
-5.52199
-5.92887
-5.93652
-5.1471
-5.1236
-5.25826
-5.25917
1.03354
0.703147
-4.1857
-3.49363
-3.5928
-3.99546
1.01304
0.697408
-4.17181
-3.49144
-3.58496
-3.97181
-3.99085
-4.34886
-4.11046
-4.36355
-3.97994
-4.33557
-4.10113
-4.35954
14791.6
14246
13679.2
13211.1
9477.46
9472.65
9009.78
8989.36
8505.51
8494.28
6295.54
6644.84
7339.18
6603.01
6973.2
6768.6
7336.46
6604.86
6973.74
6767.47
6313.43
6651.34
6202.57
5892.94
6345.84
6006.45
6212.28
5904.72
6349.81
6010.32
5682.28
5744.15
5692.05
5746.86
-9.45978
-8.73788
-8.02875
-5.46254
-5.46162
-5.80664
-5.79916
-4.0589
-4.29758
-4.65241
-4.10925
-4.45305
-4.26815
-4.05388
-4.28308
-4.64827
-4.09514
-4.44377
-4.26056
-5.30076
-5.29063
-4.38291
-4.25705
-4.37243
-4.23321
-4.04185
-4.2436
-4.03046
-4.23742
14997.2
14575.5
14126.9
10600.7
10607.1
10037.8
10033.9
9565.29
9561.85
9152.19
9139.97
7278.1
7901.87
7119.37
7506.98
6862.75
7231.51
7316.49
6869.94
7234.44
7912.66
7136.52
7513.87
6520.59
6682.95
6768.76
6936.34
6773.29
6534.95
6938.09
6687.59
-9.42846
-8.65385
-7.83659
-5.35021
-5.34535
-5.61677
-5.61087
-4.08105
-4.24404
-4.34703
-3.96409
-4.21417
-4.08798
-4.07671
-4.23289
-4.34164
-3.94744
-4.20329
-4.07857
-4.42816
-4.79002
-4.08342
-4.41764
-4.43031
-4.79063
-4.08773
-4.41851
-4.07358
-4.20565
-4.06287
-4.19233
15316.4
15007
14679.3
10720.4
10716.9
10264.6
10247.2
9727.44
9724.37
7447.86
7829.21
8542.33
7785.4
8187.1
7906.58
7466.42
7835.78
8541.56
7780.44
8186.21
7904.91
7349.84
7047.8
7507.14
7226.35
7068.15
7232.97
7357.45
7510.39
-9.39923
-8.57622
-5.5288
-5.38968
-5.37298
-5.52629
-6.00783
-6.01541
-5.11149
-4.30847
-4.57197
-5.09899
-4.28058
-4.56577
-3.9784
-4.16508
-4.19903
-4.01277
-4.15293
-4.07007
-3.96169
-4.14915
-4.1991
-4.01045
-4.15168
-4.06928
-3.98662
-4.21055
-3.99304
-4.21147
15738
15495.5
15204.4
10884.7
10885.5
10368.2
10364.4
8273
8931.78
8238.64
8648.32
8037.29
8431.57
8306.57
8037.43
8432.84
8940.88
8256.83
8654.59
7678.73
7798.79
7944.47
8118.37
7694.34
7803.14
7952.78
8120.84
7521.88
7624.08
7533.13
7626.99
-9.38899
-8.50768
-5.16866
-5.40211
-5.15804
-5.39275
-5.82898
-5.82918
-3.88313
-3.90715
-4.15496
-4.16596
-4.42032
-4.17524
-4.11842
-4.55236
-3.89208
-3.89307
-4.15153
-4.14712
-4.41568
-4.17611
-4.11369
-4.54708
-4.04124
-3.93766
-4.03201
-3.92478
-3.96243
-4.11961
-3.96961
-4.11936
16209.5
15973.8
12017.7
10974.4
10959
12029.3
11442.5
11444.7
10423
8457.61
8899.92
10424.9
8485.4
8910.05
8171.28
8456.5
8310.11
8639.87
8185.66
8314.56
8469.84
8645.15
7772.12
7911.67
8027.3
8178.82
7788.25
7914.98
8041.35
8181.63
-9.37454
-8.45503
-4.93787
-4.26623
-3.94934
-5.33961
-4.93097
-4.26296
-3.9445
-5.32233
-5.81232
-5.80905
-3.80847
-3.77702
-3.78362
-3.9278
-3.92344
-3.92206
-3.81186
-3.78937
-3.77883
-3.92622
-3.92312
-3.92157
-4.02083
-3.91937
-4.01674
-3.91733
16695.5
16413
12079.2
10942.5
10940.7
12078.8
11650.2
11639.1
8785.82
8503.84
8902.54
8477.47
8895.05
9239.86
8772.08
9449.16
8801.75
8532.47
8913.67
8507.27
8906.13
9245.89
8807.19
9458.28
8267.99
8528.79
8387.04
8694.8
8270.97
8388.66
8543.09
8700.68
-9.36596
-6.1826
-5.7378
-5.72602
-6.18051
-6.6467
-6.65593
-4.0651
-4.10399
-3.64927
-3.92825
-3.82042
-4.46441
-3.79741
-4.06085
-5.2468
-3.95981
-4.30842
-4.07171
-4.10152
-3.65234
-3.92964
-3.81562
-4.46562
-3.82701
-4.07067
-5.23908
-3.97517
-4.31693
-3.69544
-3.66672
-3.78017
-3.80017
-3.70193
-3.66297
-3.78107
-3.7983
17161.9
16771.3
12185
11017.6
9440.58
8992.04
11021.4
9444.94
9002.69
12184.9
11664.6
11645.2
8718.78
9031.18
8534.54
8909.84
8733.46
9238.19
8741.31
9037.6
8556.54
8740.97
8917.73
9240.52
8367.29
8517.63
8375.98
8521.17
-9.38381
-5.76588
-6.1334
-5.74797
-6.13032
-6.63805
-6.65095
-3.55083
-3.69551
-3.80985
-3.70543
-3.69126
-3.88737
-4.26454
-3.9593
-4.23936
-3.9725
-4.26996
-4.49293
-4.55702
-4.88549
-3.55495
-3.71269
-3.7062
-3.81589
-3.7148
-3.8963
-3.97451
-4.27859
-4.24622
-3.99194
-4.27747
-4.49605
-4.53862
-4.87738
17527.2
13093.8
12237.5
12216.3
13110.9
12704.6
12688
9258.3
9440.09
8994.54
9433.93
9002.55
9935.92
9261.37
9748.93
9314.86
9444.71
9012.91
9441.28
9012.35
9959.41
9287.59
9758.4
11631.1
9443.14
9923.33
11627.7
9488.5
9938.96
8877.15
9060.85
9035.14
9283.11
8891.17
9062.65
9039.11
9285.05
-9.39668
-5.83463
-4.84934
-4.56863
-6.14438
-5.81613
-4.84232
-4.55582
-6.14231
-6.6123
-6.62299
-3.62584
-3.71962
-3.77963
-3.95954
-4.00586
-4.25249
-3.80687
-4.00225
-4.15101
-4.45261
-3.64246
-3.72571
-3.79965
-3.96835
-4.03608
-3.82437
-4.25103
-4.00907
-4.16169
-4.45239
17861.4
13141.8
12226.3
12196.3
13145.9
12773.6
12758.9
8996.62
9194.65
9287.23
9409.2
9460.81
9744.93
9012.94
9213.24
9293.04
9416.35
9486.08
9754.19
9851.03
9506.92
9907.52
9437.86
9883.48
10303.8
9777.3
10385.1
9865.67
9541.12
9921.64
9496.24
9902.84
10307.9
9795.53
10386.9
-9.52221
-6.5969
-6.60822
-5.82268
-4.83982
-4.68393
-4.89
-4.61301
-6.14597
-5.80939
-4.83491
-4.66961
-4.8828
-4.60551
-6.14915
-3.89759
-4.07175
-4.29244
-4.04344
-4.19145
-4.47594
-3.92599
-4.08995
-4.28849
-4.05248
-4.19789
-4.47537
18130.3
13160.3
12349.6
10458.1
10028.6
12301.9
10456.2
10023.5
13175.4
12825.7
12813.9
9292.77
9523.22
9535.03
9746.6
9313.6
9530.3
9554.86
9754.99
9743.56
10094.2
9581.85
9899.48
9769.57
10308
9767.43
10082.2
9600.05
9777.13
9909.35
10305.3
-9.4109
-6.58146
-6.57373
-6.59527
-6.5878
-5.79438
-4.9115
-4.69206
-4.90676
-4.70119
-4.34207
-4.5285
-6.15969
-5.78022
-4.90737
-4.68589
-4.90088
-4.696
-4.34209
-4.52897
-6.16131
-4.15029
-4.2841
-4.16146
-4.28722
18239.5
13197.2
13214.6
12386.8
10388.2
10010.5
10422.2
10005.4
12356.1
10398.3
10007.4
10417.4
10007.8
12856.7
12844.1
9857.1
9653.43
10118.5
9978.94
9789.64
10282.2
9892.77
9675.72
10111.2
9798.2
9989.88
10281
-9.49723
-6.55861
-6.61945
-6.57435
-6.63307
-6.16819
-6.1692
-5.79114
-4.89128
-4.67007
-4.88248
-4.67902
-4.5847
-4.37793
-4.56877
-4.38678
-4.20709
-4.36248
-5.77924
-4.88768
-4.67598
-4.88182
-4.67667
-4.58647
-4.38267
-4.57089
-4.39568
-4.22101
-4.36614
18252.3
13223.5
13220.3
13245.1
13246.3
12390.2
10465.5
9998.02
10438.1
10047.1
10094.1
10283.3
12365.6
10462
10008.7
10437.4
10040.7
10099.2
10285.6
12878.2
12867.6
9946.34
10055
9983.08
10065.2
-9.4671
-6.64611
-6.67544
-6.6605
-6.6878
-6.15733
-6.21807
-6.16346
-6.22214
-5.81564
-5.80562
-4.89033
-4.68122
-4.89104
-4.68088
-4.59796
-4.38278
-4.61317
-4.34554
-4.48909
-4.25155
-4.43245
-4.29612
-4.8885
-4.6876
-4.89039
-4.68287
-4.59816
-4.38956
-4.61471
-4.34644
-4.49403
-4.27402
-4.43945
-4.3145
18196.5
13213.5
13199.4
13238.6
13222.8
12879.3
12872.4
12393.2
10496.8
10039
10480.4
10080
10435.7
10087.9
10330.1
10174.4
9943.61
10066.3
12372
10477.9
10043.3
10478.9
10060.6
10434.9
10098.8
10333.2
10178.6
9975.69
10075.4
-9.51543
-6.7376
-6.81494
-6.74604
-6.82639
-6.25146
-6.30544
-6.25519
-6.30692
-5.83501
-5.8515
-5.82495
-5.84153
-4.89321
-4.68931
-4.90182
-4.683
-4.89192
-4.69117
-4.89919
-4.68554
-4.6395
-4.41527
-4.62237
-4.44395
-4.64266
-4.42648
-4.62568
-4.45538
17821.2
13172.8
13137.1
13191.2
13151.8
12867.5
12834.3
12863.6
12830.2
12417
12392
10585.8
10028.7
10513.7
10102.2
10455.4
10163.8
10399.1
10220.3
10228.8
9924.03
10097.8
9995.86
10571.5
10041.7
10514.2
10087.6
10449.9
10171.4
10399.3
10207.3
10230.4
9948.42
10104.5
10008.2
-8.73892
-9.53176
-6.33957
-6.41375
-6.34071
-6.41783
-5.87259
-5.94128
-5.8619
-5.92717
-4.90502
-4.6748
-4.88491
-4.69792
-4.89712
-4.69716
-4.88034
-4.69415
-4.90248
-4.67893
-4.88232
-4.70165
-4.89481
-4.69818
-4.87722
-4.69692
-4.65231
-4.51978
-4.70383
-4.45961
-4.6562
-4.52954
-4.70649
-4.47217
17318.1
13073.6
13013
13081.3
13021.9
12783.8
12738.6
12777.4
12730.6
12395.9
12319.7
12373
12302.8
10618.8
10137.6
10601.1
10141.6
10611.7
10130.1
10595.6
10130.2
10504.6
10131.6
10395.9
10173.2
10498.1
10139.3
10395.8
10163.7
-8.86622
-6.1217
-6.25133
-6.11274
-6.24577
-9.52668
-6.01106
-6.08283
-5.99218
-6.06787
-4.87979
-4.69593
-4.86177
-4.71824
-4.90585
-4.78511
-4.95068
-4.74335
-4.87541
-4.69448
-4.85797
-4.71272
-4.90053
-4.77791
-4.94558
-4.73701
-4.73599
-4.52745
-4.71675
-4.54937
-4.75403
-4.54327
-4.76403
-4.54185
-4.7387
-4.53527
-4.71915
-4.55736
-4.75617
-4.54408
-4.76383
-4.54609
16848.1
16470.8
12643.8
12485.4
12631.3
12473.6
12272.2
12239.5
12251.9
12216.9
10512.3
10124.6
10570.4
10077.8
10455.4
9963.89
10406.4
10028
10509.2
10118.8
10565.7
10074.3
10456.6
9987.84
10412.2
10033.5
10600.4
10252.6
10564.9
10240.1
10594.3
10258.7
10564.2
10231.8
-8.88758
-6.32777
-6.4294
-6.32975
-6.43748
-5.72215
-5.90575
-5.71583
-5.88594
-9.53463
-5.01507
-4.82394
-4.98673
-4.83317
-5.0822
-4.93181
-5.23177
-4.83536
-5.00768
-4.80643
-4.97834
-4.81974
-5.07523
-4.92716
-5.22788
-4.82366
-4.74928
-4.54848
-4.71772
-4.612
-4.74703
-4.6472
-4.78218
-4.61238
-4.74465
-4.54596
-4.71586
-4.60416
-4.7431
-4.63377
-4.7781
-4.60244
16372.1
16048
12073.5
12003.4
12040
11994.3
12179
12022.4
12146.8
11993.5
10364
9928.19
10369.7
9921.93
10369.6
9896.36
10368.2
9918.97
10363.2
9943.91
10373.1
9922.81
10368.4
9910.99
10369.2
9918.1
10485.4
10251.1
10531.4
10224.3
10420.6
10104
10341.3
10175.6
10485.7
10258.2
10532.1
10226.2
10422.4
10128.5
10348.8
10181.4
-8.29972
-8.91515
-5.94644
-6.05253
-5.93941
-6.04958
-4.56149
-4.72462
-4.71931
-4.55917
-4.76914
-4.95534
-4.77913
-5.11616
-4.61591
-4.88565
-4.57015
-4.71667
-4.72477
-4.57678
-4.77656
-4.9517
-4.78417
-5.11766
-4.62729
-4.89162
-9.54996
-4.79092
-4.6571
-4.79105
-4.64461
-4.81114
-4.61747
-4.78655
-4.64512
-4.78688
-4.63426
-4.8071
-4.60539
-4.57899
-4.39182
-4.57311
-4.41899
-4.57626
-4.40039
-4.57451
-4.41991
15926.8
15653.3
11900
11806.7
11899.6
11816.5
11467.7
11477.7
11460
11464.6
10301.9
9908.56
10352
9883.55
10346
9638.85
10230.6
9885.98
10298
9907.82
10349.1
9875.34
10345.4
9646.18
10228.4
9880.77
10212.5
10051.6
10267.8
9991.66
10223.5
9977.21
10206.1
9971.26
10214.9
10075.6
10275.5
10000.3
10224.1
9982.62
10208.1
9976.5
-8.35383
-5.85686
-5.9576
-5.84635
-5.95339
-8.92059
-5.68396
-5.79746
-5.67351
-5.79165
-4.48039
-4.36988
-4.57895
-4.54595
-4.38626
-4.55719
-4.55207
-4.83314
-4.3381
-4.60123
-4.49404
-4.37866
-4.58382
-4.54909
-4.39746
-4.56161
-4.55948
-4.8352
-4.34559
-4.60473
-9.56152
-4.51202
-4.3908
-4.52123
-4.41785
-4.50459
-4.38174
-4.51374
-4.40583
-4.52525
-4.42413
-4.50924
-4.39545
15512.6
15253
14927.7
11457.8
11274.3
11452.3
11281
9348.27
9708.49
9805.52
9271.69
9741.21
10156.8
9100.6
9751
9299.47
9763.96
9712.86
9390.82
9822.74
9334.29
9762.42
10159.4
9151.67
9768.01
9348.26
9783.06
10169.5
9981.29
10190
9975.37
10194.2
9948.24
10165.4
9980.58
10189.7
9963.05
10187.6
9923.58
10051.3
9803.19
10006.9
9771.33
10053.8
9822.22
10011.5
9786.33
-8.33218
-6.03826
-6.06934
-6.03545
-6.07359
-5.65529
-5.79951
-5.64924
-5.79676
-8.84801
-4.83094
-4.47573
-4.70722
-4.57735
-4.95235
-4.73411
-5.1351
-4.67452
-4.83148
-4.4791
-4.70835
-4.57985
-4.95409
-4.74385
-5.13661
-4.67726
-4.35572
-4.48985
-4.40667
-4.5813
-4.22531
-4.4927
-4.37757
-4.49745
-4.43026
-4.59019
-4.25046
-4.50273
-9.60759
15105.4
14801.1
14477.6
10792.3
10733
10777
10733
10830.3
10779.4
10835.8
10780.2
9577.1
9382.92
9649.04
9801.87
9369.98
9628.32
9164.35
9696.27
9350.17
9659.98
9621.63
9412.63
9815.97
9659.07
9383.3
9634.57
9188.94
9704.81
9374.87
9668.81
9940.85
9804.56
9980.01
9776.01
9878.23
9702.38
9943.98
9816.9
9982.61
9794.52
9883.71
9723.7
-7.66717
-8.17694
-5.81039
-5.77433
-5.80252
-5.77307
-4.53928
-4.51312
-4.73602
-4.56127
-4.80768
-4.85621
-4.61958
-4.99874
-4.57036
-4.87024
-4.55215
-4.51568
-4.74269
-4.57483
-4.81505
-4.86054
-4.62727
-5.00199
-4.5833
-4.87798
-8.7888
-4.59107
-4.35417
-4.589
-4.34285
-4.66081
-4.4012
-4.59268
-4.35874
-4.59043
-4.34192
-4.66566
-4.40815
-9.69895
14785.2
14392.9
13937.4
10585.6
10458.3
10582.4
10463.9
10267.7
10232
10267.6
10228.4
9288.93
8857.83
9325.86
8860.91
9302.79
8646.93
9309.67
8870.55
9294.92
8879.05
9334.06
8873.54
9310.35
8682.06
9317.67
8888.14
9440.79
9671.12
9063.72
9338.13
9190.29
9433.16
9487.96
9684.43
9081.93
9344.19
9207
9437.63
-7.42709
-5.24399
-5.12834
-5.24712
-5.13713
-8.0111
-5.37557
-5.34346
-5.36975
-5.34311
-4.5661
-4.41732
-4.70102
-4.63327
-4.45049
-4.66487
-4.43348
-4.74676
-4.40189
-4.66336
-4.58271
-4.4269
-4.70749
-4.63869
-4.46544
-4.67286
-4.44211
-4.75333
-4.41271
-4.67092
-8.79877
-4.61252
-4.46022
-4.61672
-4.47379
-9.82115
14598.3
14067.6
13473.5
12995
10130.9
9874.12
10112.3
9869.87
8382.88
8645.17
8749.45
8332.05
8730.6
9102.35
8173.83
8829.74
8324.08
8754.4
8663.2
8407.54
8759.19
8358
8740.59
9110.16
8206.32
8838.32
8351.08
8764.7
9089.7
8805.92
9143.8
8839.25
9080.02
8872.12
9093.06
8823.15
9150.73
8844.06
9085.89
8886.18
-6.10663
-7.25213
-4.62587
-4.7351
-4.61092
-4.73453
-7.93433
-4.58515
-4.25382
-4.54128
-4.21173
-4.9809
-4.58702
-4.2429
-4.53786
-4.21586
-4.95687
-4.34891
-4.53499
-4.2479
-4.40993
-4.25916
-4.43592
-4.36395
-4.54187
-4.26103