/*--------------------------------*- C++ -*----------------------------------*\
| =========                 |                                                 |
| \\      /  F ield         | OpenFOAM: The Open Source CFD Toolbox           |
|  \\    /   O peration     | Version:  5.x                                   |
|   \\  /    A nd           | Web:      www.OpenFOAM.org                      |
|    \\/     M anipulation  |                                                 |
\*---------------------------------------------------------------------------*/
FoamFile
{
    version     2.0;
    format      ascii;
    class       volScalarField;
    location    "1.8";
    object      p_rgh;
}
// * * * * * * * * * * * * * * * * * * * * * * * * * * * * * * * * * * * * * //

dimensions      [1 -1 -2 0 0 0 0];

internalField   nonuniform List<scalar> 
12160
(
5611.13
5629.39
5611.13
5640.27
5629.42
5611.27
5651.53
5640.13
5629.57
5611.24
5663.9
5651.37
5640.01
5629.67
5611.66
5676.67
5663.8
5651.16
5639.45
5630.09
5611.46
5689.22
5676.62
5663.6
5650.72
5639.16
5630.32
5612.24
5701.46
5689.21
5676.57
5663.3
5650.22
5638.17
5631.25
5611.53
5713.94
5701.36
5689.22
5676.42
5662.93
5649.36
5637.63
5610.46
3354.61
5727.96
5713.56
5701.19
5689.24
5676.37
5662.21
5648.39
5617.94
3570.63
147.51
5745.28
5727.18
5712.85
5700.99
5689.43
5676.21
5661.55
5631.07
3575.92
144.379
7.04356
5767.62
5744.07
5725.64
5711.81
5700.95
5689.81
5676.25
5636.16
3641.66
153.758
1.05778
0.126928
5796.12
5766.1
5741.7
5723.3
5710.6
5701.13
5690.5
5642.57
3724.53
177.214
0.368162
0.0512736
-0.054152
5830.81
5794.52
5763.1
5738
5720.27
5709.32
5701.67
5648.85
3840.11
230.969
0.386473
0.0241769
-0.0234256
0.0371251
5870.69
5829.35
5791.32
5758.37
5733.05
5716.5
5708.1
5653.27
3933.15
305.053
0.781696
0.0258494
0.0109762
0.0327629
-0.0388215
5913.91
5869.56
5826.5
5786.25
5751.96
5726.61
5711.97
5651.54
3971.26
412.626
1.3581
0.0171992
0.0185834
0.0162714
-0.0293287
5958.21
5913.29
5867.55
5821.89
5779.35
5743.45
5718.52
5646.72
3955.52
510.59
2.66925
0.00528933
0.0172562
0.0110667
-0.00509635
6001.29
5958.19
5912.41
5864.02
5815.7
5770.11
5732.64
5648.66
3901.72
548.797
5.06561
-0.00645106
0.00949501
0.00593239
0.00298455
6041.07
6001.86
5958.5
5910.52
5859.59
5807.28
5758.32
5666.22
3867.22
539.986
8.45388
-0.0169022
-0.00313582
0.00237882
0.00391669
6075.8
6042.17
6003.33
5958.53
5908.53
5853.24
5796.61
5706.28
3895.89
516.437
9.99405
-0.00318246
-0.0172736
-0.00220252
0.000688506
6104.14
6077.35
6044.66
6005.16
5959.05
5905.12
5845.58
5765.39
4025.35
516.51
10.3983
0.0427613
-0.0165498
-0.00745507
-0.00171653
6125.14
6106.05
6080.71
6048.08
6008.06
5959.28
5901.62
5833.16
4253.16
568.605
11.3116
0.0984734
0.00878025
-0.00279995
-0.00498119
6138.19
6127.33
6110.12
6085.44
6053.08
6011.52
5959.99
5896.29
4548.72
703.713
14.1658
0.149215
0.0432729
0.0123279
-0.00567443
6143.01
6140.6
6131.95
6115.9
6092.21
6059.28
6015.97
5960.06
4895.29
937.687
21.1125
0.184645
0.0723701
0.0268031
-0.00280391
6139.6
6145.57
6145.63
6138.54
6124.07
6100.63
6066.88
6021.2
5221.8
1262.07
36.038
0.234413
0.0972498
0.0423383
0.00745879
6128.12
6142.26
6150.92
6152.84
6147.79
6134.23
6110.8
6076.2
5479.25
1648.22
67.5871
0.358424
0.0870245
0.0491522
0.0129076
6108.95
6130.82
6147.82
6158.57
6162.91
6159.26
6146.42
6123.41
5668.75
2063.48
120.658
0.712962
0.0603702
0.0474845
0.0155587
6082.66
6111.64
6136.49
6155.79
6169.26
6175.36
6172.98
6161.54
5805.63
2465.97
191.379
1.79685
0.0201145
0.0353046
0.0145187
6049.95
6085.26
6117.31
6144.63
6166.91
6182.45
6190.24
6189.82
5901.65
2822.48
273.984
4.02992
-0.0291832
0.0146103
0.0100448
6011.62
6052.36
6090.8
6125.42
6155.98
6180.65
6198.19
6208.18
5966.01
3110.3
361.868
7.43237
-0.0374708
-0.00149722
0.00236506
5968.62
6013.74
6057.65
6098.68
6136.79
6170.04
6197.09
6216.99
6004.89
3324.52
444.921
11.8363
-0.0292934
-0.0274473
-0.00892196
5921.87
5970.3
6018.7
6065.06
6109.8
6150.89
6186.92
6216.74
6023.77
3468.24
515.554
16.7244
0.00392089
-0.0406204
-0.00982217
5872.51
5923.38
5974.92
6025.29
6075.66
6123.59
6167.83
6207.21
6027.31
3544.55
569.126
21.5023
0.0609232
-0.0476997
-0.0132146
5821.55
5873.58
5926.8
5980.2
6035.17
6088.72
6140.24
6188.32
6013.65
3559.59
600.442
25.5592
0.130189
-0.0492635
-0.0155207
5770.06
5822.19
5876.07
5931.44
5989.32
6046.99
6104.68
6160.31
5979.15
3511.02
604.887
28.0505
0.190969
-0.0479135
-0.0162168
5718.95
5770.24
5823.66
5879.39
5938.43
5999.02
6061.95
6123.71
5921.64
3393.27
584.031
28.3818
0.224996
-0.0481524
-0.0160795
5669.04
5718.69
5770.73
5825.6
5884.43
5946.57
6013.21
6078.89
5837.01
3206.33
540.621
26.6347
0.229229
-0.0505685
-0.0164198
5621.02
5668.36
5718.25
5771.26
5828.49
5890.08
5957.67
6026.3
5718.55
2949.09
478.235
23.3099
0.194703
-0.0532633
-0.0175948
5575.46
5619.95
5667.06
5717.42
5772.09
5831.57
5898.09
5969.24
5556.11
2627.28
401.215
19.0377
0.128302
-0.0583984
-0.0184958
5532.83
5574.05
5617.87
5664.96
5716.34
5772.67
5836.1
5901.5
5336.07
2254.91
317.404
14.3133
0.0534361
-0.0661197
-0.0198452
5531.12
5467.94
5571.26
5614.59
5662.12
5714.61
5773.97
5823.79
5055.46
1850.9
234.034
9.80754
-0.015221
-0.0732279
-0.0220629
5527.75
5465.83
5388.64
5566.92
5610.13
5658.22
5712.95
5736.76
4732.26
1428.44
156.353
5.94746
-0.0678981
-0.0770379
-0.0241696
5522.51
5461.66
5386.43
5357.68
5560.99
5604.19
5653.64
5640.58
4369.77
1032.79
92.3098
3.0514
-0.105435
-0.0754501
-0.025349
5515.33
5455.25
5381.61
5355.15
5322.77
5553.15
5596.59
5534.87
3983.72
727.302
51.2125
1.38835
-0.0899136
-0.0582287
-0.0253584
5505.8
5446.47
5375.47
5350.68
5320.27
5306.65
5542.37
5419.5
3587.76
510.399
28.9114
0.634205
-0.0591536
-0.0544578
-0.0269805
5491.7
5434.51
5368.38
5342.56
5315.52
5304.5
5298.08
5295.22
3192.07
357.995
17.1562
0.332452
-0.020412
-0.0352763
-0.0195007
5165.6
5414.55
5356.65
5330.92
5308.45
5300.41
5294.71
5293.03
2809.75
250.278
10.6602
0.208156
0.0107587
-0.0138882
-0.0147884
2457.03
4951.97
5330.93
5315.76
5299.49
5294.49
5289.37
5289.93
5293.09
176.581
6.83082
0.154486
0.0320546
0.00328423
-0.00996859
126.588
1966.93
4711.29
5284.88
5286.09
5287.39
5282.52
5283.52
5283.83
5291.23
4.5387
0.131212
0.0454807
0.0150752
-0.00519547
2.96994
72.7716
1536.04
4562.88
5250.63
5276.57
5275.49
5278.28
5271.22
5274.68
5271.74
0.12241
0.0551191
0.0231429
-0.00137596
0.120458
1.36955
45.3791
1318.49
4461.45
5241.46
5266.36
5273.58
5256.79
5235.15
5260.87
5418.58
0.0627605
0.0293819
0.00163993
0.0703152
0.126306
0.790222
36.5142
1206.83
4435.94
5217.09
5267.89
5251.87
5203.88
5204.69
5327.73
5016.32
5204.67
0.034542
0.00410868
0.0395978
0.0830855
0.131263
0.649593
33.2215
1216.15
4381.25
5211.09
5254.39
5207.19
5141.69
5185.75
5080.18
4788.66
4882.6
4928.92
0.00624965
0.00853252
0.0476415
0.0910414
0.135231
0.618648
35.9771
1239.79
4378.09
5198.49
5230.22
5112.39
5093.82
5113.9
4959.84
4549.33
4595.52
4692.67
4722.48
0.0116489
0.0543282
0.093805
0.143353
0.650042
42.5022
1310.13
4329.58
5233.4
5148.3
5091.2
5159.76
5091.35
4778.54
4277.34
4322.66
4419.91
4547.72
4609.26
0.0156871
0.0583567
0.0993886
0.161686
0.697451
48.5727
1313.35
4528.21
5253.99
5215.08
5246.59
5202.67
4985.08
4546.77
3985.73
4022.78
4136.58
4297.89
4474.73
4597.74
0.018084
0.0655527
0.11903
0.197709
0.682941
60.0898
1157.05
5029.25
5356.22
5351.59
5325.65
5163.35
4806.12
4303.14
3686.15
3698.31
3829.71
4031.36
4253.68
4481.2
4671.95
0.0190753
0.0748759
0.153575
0.271563
0.666195
53.4936
1254.72
5436.2
5469.09
5450.18
5317.99
5051.85
4627.93
4040.69
2598.27
3350.42
2601.61
2841.26
2843.43
3461.86
3721.65
4020.87
4293.63
4562.03
4822.3
0.0254398
0.0981924
0.220446
0.383288
0.706394
27.3692
2178.63
5514.8
5545.4
5448.62
5265.45
4921.75
4433.18
3776.88
2377.87
2473.63
3012.77
2381.38
2171.96
2174.54
2475.02
2680.28
2680.64
3293.16
3701.71
4085.8
4410.86
4718.74
5031.96
0.0347112
0.143261
0.336109
0.484661
0.791594
10.2444
2849.54
5559.16
5547.07
5417.68
5170.24
4776.78
4218.16
2841.07
2839.54
3103.66
3104.88
2237.48
2354.22
2739.91
2507.28
2239.17
1988.61
1990.13
2347.72
2593.92
2588.39
3240.27
3769.63
4215.52
4583.47
4935.27
5288.81
0.0511377
0.212553
0.487335
0.652542
1.0757
10.9679
3104.23
5596.15
5513.41
5340.44
5045.54
4600.4
3352.91
3354.37
3605.58
3607.15
2733.88
2731.72
3019.16
3015.89
2084.63
2097.08
1844.41
1944.68
2001.22
2636.02
2023.14
1125.35
1126.39
1476.62
1474.78
2078.53
1797.84
1792.81
2094.73
1846.81
1942.78
1999.73
2243.87
2215.86
2367.51
2139.35
2241.34
2214.38
2364.25
2136.28
3318.5
3933.92
4408.78
4808.86
5191.35
5585.67
0.0750238
0.288555
0.583053
0.892624
1.33247
44.2264
3511.28
5557.19
5436.28
5226.87
4890.52
3846.11
3847.05
4069.73
4070.59
3282.53
3277.66
3541.36
3535.14
2320.05
2210.85
2391.3
2443.4
2529.77
2267.66
2209.1
2322.29
2391.68
2443.85
2529.57
2266.9
2735.1
2826.28
2586.84
2679.89
2735.8
2825.9
2587.09
2679.6
1642.22
1694.98
1795.4
1543.22
2009
1849.59
1860.97
1994.75
2707.61
1744.37
561.647
561.621
815.271
815.578
888.692
884.734
1254.33
1251.55
1640.56
1697.15
1793.65
1542.6
1483.72
1175.92
1354.24
1381.05
1481.86
1179.62
1352.32
1380.22
2009.62
1852.24
1861.62
1997.58
2162.74
2132.11
2162.34
2131.88
3513.43
4155.72
4652.43
5059.1
5466.33
5917.07
0.101073
0.335507
0.591947
0.992667
3.56404
38.1157
3060.56
5494.16
5336.27
5096.98
4238.32
4238.88
4436.42
4436.97
3781.41
3775.66
4020.01
4014.27
2865.13
2952.18
2994.77
3080.62
2866.17
2952.09
2999.51
3081.27
3267.74
3354.93
3128.71
3214.23
3272.13
3355.09
3132.81
3214.45
2209.73
2358.78
2401.58
2234.74
2475.77
2503.53
2211.39
2360.35
2235.32
2401.78
2476.18
2503.61
2768.89
2786.61
2624.34
2646.3
2770.27
2786.99
2624.29
2646.36
1549.33
1700.39
1711.33
1533.66
1981.07
1817.31
1828.62
1970.4
2922.19
1766.42
228.303
227.422
360.032
358.639
322.659
316.725
565.708
560.755
351.366
447.782
550.244
644.39
355.927
449.008
553.842
645.245
932.818
1182.76
1005.25
749.087
844.933
1258.42
936.379
1181.95
1006.2
751.979
845.722
1258.2
1549.84
1702
1711.62
1535.99
1387.73
1357.46
1388.05
1358.95
1980.54
1818.69
1829.43
1967.96
2130.44
2108.67
2129.26
2105.89
3787.46
4416.25
4917.71
5317.16
5757.11
6272.54
0.115862
0.273843
0.356683
6.33999
29.6443
60.0879
2553.68
5353.41
5213.52
4579.77
4580.37
4713.37
4713.48
4186.3
4183.68
4369.32
4369.07
3391.25
3478.27
3506.55
3593.9
3393.96
3477.95
3511.19
3593.89
3752.32
3873.4
3627.33
3716.41
3754.08
3872.21
3630.37
3715.89
2895.18
2908.98
3024.95
3034.45
2896.87
2909.65
3026.22
3035.11
3301.57
3311.19
3163.53
3171
3304.62
3312.3
3164.12
3171.57
1508.53
1666.85
1678.11
1491.26
3281.61
2092.46
211.359
212.979
173.566
173.006
29.2803
19.1151
147.595
139.858
-232.281
-142.642
-98.5387
-1.48547
-226.257
-141.795
-91.3563
0.358356
170.421
259.908
32.5914
130.082
175.948
261.578
41.497
132.198
340.233
362.55
532.516
549.075
346.689
363.995
537.083
550.858
1114.23
891.256
922.193
1139.34
721.76
740.947
1117.12
894.926
923.485
1140.4
725.233
742.438
1508.86
1668.01
1678.65
1491.51
1321.2
1298.8
1321.51
1299.77
4097.38
4704.91
5177.95
5571.29
6072.29
6644.68
0.073251
-0.0759108
4.6562
51.6212
154.935
223.4
1768.35
4909.38
5071.64
4517.42
4517.75
4630.06
4630.58
4110.41
4109.44
4305.16
4303.08
3421.39
3432.08
3534.56
3547.45
3423.12
3432.89
3536.1
3548.12
3736.14
3788.62
3642.83
3662.75
3736.32
3788.55
3643.59
3663.1
3320.93
3334.6
3325.72
3336.11
3693.93
2617.66
452.38
456.011
281.785
283.576
-57.382
-62.6956
-55.5943
-61.893
-628.013
-461.041
-531.53
-413.052
-632.519
-463.28
-530.413
-413.399
-338.861
-244.919
-424.796
-311.077
-336.85
-244.94
-421.466
-310.998
-239.644
-220.104
-120.366
-106.074
-234.031
-218.19
-115.622
-103.861
160.678
180.97
25.3852
38.1439
167.926
183.77
31.0846
40.5273
4427.24
4988.89
5412.31
5845.46
6407.49
6970.47
-0.0914734
0.731385
21.3486
106.809
341.248
466.254
776.583
3923.45
4698.11
4698.6
4542.82
4543.26
4468.67
4465.09
4585.4
4586.9
3980.92
3819
3870.49
3917.22
3980.14
3817.6
3870.1
3915.73
4082.73
4117.86
4183.92
4017.36
4081.77
4118.72
4183.08
4016.32
3414.18
3423.6
3513.35
3520.99
3417.44
3424.83
3515.62
3521.87
3736.01
3751.21
3628.88
3640.66
3738.12
3751.91
3629.46
3641.01
4089.93
3198.37
2008.77
126.822
129.27
8.52429
5.14341
-382.215
-384.626
-385.809
-388.723
-696.629
-614.909
-622.183
-546.04
-692.818
-614.357
-617.916
-544.886
-370.949
-335.9
-487.295
-436.487
-367.232
-334.433
-484.573
-435.585
-314.382
-285.379
-306.334
-283.064
4752.24
5224.95
5646.57
6131.35
6743.18
7052.48
-0.284435
4.32235
18.2195
63.4093
397.569
665.181
637.433
2597.83
4656.56
4654.61
4122.39
4121.88
4197.84
4261.34
4367.85
4273.85
4198.99
4260.53
4366.66
4273.66
4537.21
4534.33
3938.76
3833.95
3842.86
3933.85
3938.49
3834.62
3842.87
3932.82
4039.22
4118.93
4130.81
4031.17
4038.97
4118.71
4130.66
4030.73
3758.51
3772.54
3762.77
3773.72
4472.82
3724.13
2773.93
443.835
448.378
85.9028
86.0121
-145.594
-145.334
-265.718
-276.501
-855.715
-959.47
-839.831
-948.918
-852.66
-951.9
-837.868
-942.363
-805.621
-836.087
-781.43
-884.321
-804.297
-832.301
-780.158
-881.439
-749.09
-716.106
-666.523
-617.883
-743.484
-714.476
-663.642
-616.681
-428.218
-396.651
-541.323
-503.569
-423.656
-395.159
-538.68
-502.651
5012.73
5431.46
5882.24
6413.62
6859.96
-0.175691
4.53927
4.19837
30.2592
263.552
608.973
783.29
1919.01
1916.43
1367.87
1368.37
4334.74
4501.58
4069.47
4566.87
4333.95
4501.16
4071.8
4567.05
3534.6
3538.63
4194.49
4209.49
4296.23
4251.09
4194.09
4209.29
4295.94
4251.21
4378.36
4435.24
4309.87
4346.12
4379.19
4434.8
4309.72
4345.75
4048.48
4102.31
4117.87
4032.98
4048.88
4103.86
4118.27
4034.9
4784.51
4190.17
3430.94
2524.96
278.035
268.178
-66.3497
-77.1904
-306.955
-320.072
-976.961
-817.673
-709.224
-937.565
-972.617
-817.348
-710.929
-938.483
-927.292
-1009.74
-938.604
-993.379
-925.335
-1002.36
-936.037
-988.205
-888.287
-931.256
-844.778
-951.723
-887.413
-930.385
-844.255
-950.298
-799.357
-750.125
-791.58
-748.084
5218.53
5635.24
6107.98
6540.58
0.0496497
1.13242
0.752063
10.6741
61.1005
358.244
1288.15
1300.69
1533.1
1529.92
1410.05
1417.84
831.794
854.487
4215.26
4448.11
3759.05
4455.01
4213.75
4448.09
3761.1
4456.67
3794.12
2354.41
3154.64
2970.53
3793.24
2347.78
3164.67
2967.71
4167.39
4178.97
4255.01
4241.4
4166.93
4178.86
4254.91
4241.11
4375.95
4386.07
4306.64
4314.38
4376.62
4386.18
4306.47
4314.28
5013.73
4569.97
3992.93
3298.66
786.589
788.507
467.942
463.895
80.5697
80.6074
-920.019
-687.19
-821.677
-519.154
-912.793
-685.538
-802.99
-514.78
-977.324
-800.927
-1049.68
-896.446
-961.069
-861.221
-960.961
-796.948
-1040.68
-893.602
-959.727
-860.874
-1027.99
-933.159
-1024.06
-931.734
-963.998
-1045.92
-990.766
-1022.6
-961.013
-1034.39
-987.32
-1013.53
5411.03
5816.42
6213.61
-0.122597
0.00458708
0.291642
1.02279
9.16245
290.935
1666.15
1745.04
1677.32
1686.72
888.406
2208.14
1146.17
539.664
751.48
3022.24
2205.31
909.228
3038.75
1199.28
552.642
770.184
640.202
1177.65
495.009
504.449
692.912
1265.91
495.304
514.644
4069.17
4428.96
3783.91
4433.14
4070.1
4429.25
3786.98
4436.48
3704.81
2597.71
3686.93
2590.83
4254.19
4242.33
4254.18
4242.39
4288.77
4378.71
4289.97
4379.27
5209.91
4839.84
4434.26
3947.33
1336.15
1345.54
1046.23
1047.14
766.641
758.954
375.925
376.566
-519.433
-727.959
-386.779
-742.509
-670.048
-799.992
-516.157
-704.541
-380.276
-734.947
-666.924
-792.795
-879.625
-814.67
-871.816
-811.29
-969.521
-918.846
-1028.96
-1038.8
-956.936
-975.782
-957.472
-914.625
-1025.84
-1027.93
-955.595
-972.529
-1058.33
-1008.25
-1050.43
-1005.69
5569.21
5910.03
-0.24123
-0.00502037
0.297971
0.811145
1.81328
357.942
352.626
55.1934
55.0813
2350.92
2379.73
1687.13
1706.81
1679.05
543.34
793.699
2401.35
504.285
505.148
1684.84
556.371
2455.03
882.463
504.576
505.22
586.273
981.955
501.408
503.4
607.756
1021.53
501.574
503.342
3363.15
4267.83
3362.17
4257.68
5365.53
5048.78
4744.62
4427.74
4068.95
1352.61
1349.66
1107.89
1091.07
-194.791
243.734
-252.615
41.7618
-167.857
251.056
-234.255
48.4565
-502.804
-645.836
-248.011
-394.007
-123.016
-454.074
-486.86
-629.709
-241.981
-370.344
-115.902
-447.775
-587.089
-749.27
-657.572
-795.811
-584.582
-747.283
-651.919
-790.976
-893.5
-875.939
-884.548
-872.338
-967.199
-944.459
-1062.43
-993.882
-954.275
-940.181
-1055.65
-991.741
5651.97
-0.229638
0.104691
0.389462
0.948445
6.97713
152.409
146.335
15.8929
15.8102
3251.95
2102.35
3241.35
2451.08
3266.42
1893.24
3241.53
2430.43
1339.09
1366.5
804.208
2466.85
506.351
749.772
673.898
1795.63
506.029
529.796
5437.7
5211.93
4972.11
4761.24
4598.42
1893.93
1906.34
1568.82
1566.98
1333.64
1334.18
1110.96
1101.86
-42.8654
195.376
-68.2612
-7.2998
-27.3713
200.89
-56.7035
-2.14142
-544.604
-341.186
-446.639
-233.858
-207.836
-126.295
-528.562
-331.028
-229.61
-441.082
-199.984
-122.354
-729.433
-764.219
-727.874
-759.451
-0.140757
0.163252
0.217585
3.53089
5.94787
5.95003
7.20512
7.85721
65.2102
62.8881
6.3771
6.39551
3213.57
2440.74
3230.82
2447.39
3218.75
2407.2
3231.32
2436
434.7
439.93
1571.65
2030.66
439.924
440.528
1592.06
2049.64
1553.93
3181.22
1434.57
2909.81
5293.53
5157.94
5013.3
4920.55
4913.02
1895.37
1894.68
1746.25
1729
1494.34
1478.01
647.899
145.069
448.364
155.802
644.867
143.08
448.211
150.749
103.597
193.941
-5.09934
46.9455
116.984
198.583
5.2162
51.2226
-0.043236
0.101978
0.313168
4.07947
5.8927
6.91406
8.09276
8.56052
400.344
258.391
14.5727
38.2273
40.3113
5.4451
404.601
257.661
13.864
36.9548
38.9666
5.18439
7.27079
6.87114
3292.84
2546.59
3250.45
2509.34
3292.88
2527.24
3250.72
2504.49
1093.35
761.329
1108.07
763.436
5239.22
5220.72
5193
5246.11
2448.74
2458.79
2122.84
2125.26
1838.77
1855.2
1856.86
1841.64
367.682
921.447
480.715
785.129
301.042
600.69
421.792
935.945
499.684
792.714
297.635
599.875
297.396
383.936
301.892
385.711
204.69
271.804
217.262
275.497
-0.00960728
0.0975538
0.425079
6.1204
5.31173
1.94894
1.92221
5.1586
6.60657
8.27318
8.6021
155.2
64.8031
9.56277
5.3048
14.8266
4.95883
155.451
63.7536
9.50455
5.0375
14.3644
4.70961
3.48637
5.81397
3.15902
5.42804
3.74912
6.76188
3.41347
5.65012
5308.64
5417.57
5506.96
5710.43
2501.5
2496.8
2369.03
2349.44
2201.77
2190.4
569.93
919.077
1288.43
716.19
1086.06
721.331
1285.8
718.01
1086.59
720.502
587.83
925.57
616.545
466.707
759.8
580.192
626.214
478.513
763.761
584.06
372.344
434.201
382.14
436.897
0.0229612
0.0957205
0.335741
3.40573
3.12503
2.43203
2.40752
3.44125
8.5593
10.4774
3.62699
6.89702
4.67317
3.73103
9.95197
10.5269
3.85287
8.6775
5.10712
7.82844
6.90896
6.63508
4.25564
6.85325
4.00481
3.6461
5.42834
3.5233
7.12384
5514.28
5747.52
5956.27
2933.91
2940.92
2725.03
2722.98
2590.74
2589.45
2513.53
2502.29
899.297
1505.03
909.789
1287.41
815.721
1182.14
939.239
823.029
1185.06
1515.86
927.06
1294.3
766.255
928.53
854.149
1021.18
858.573
780.658
1022.91
933.167
0.054037
0.19277
0.498679
2.44642
2.37445
2.59343
2.58115
4.37763
9.80301
10.5021
3.79425
9.37539
5.31877
4.40153
10.6597
10.7762
3.99812
10.049
4.98071
2.81489
3.03561
3.16092
5.1237
2.76855
2.89183
3.05368
4.87085
4.13228
6.06538
3.93802
10.1736
5833.62
6179.91
6512.57
3056.78
3053.91
2953.98
2937.47
2766.78
2764.02
1059.75
1424.29
1807.25
1234.09
1609.8
1208.4
1079.14
1430.84
1806.15
1232.32
1608.5
1208.43
1114.29
971.186
1255.51
1147.51
991.65
1154.12
1122.42
1258.74
0.0828834
0.262909
2.4566
2.36943
2.38402
2.45945
2.31218
2.30487
2.44273
2.92715
2.84036
2.44362
2.92273
2.82606
4.93231
10.4084
6.56812
6.31221
10.3011
4.04301
4.80596
10.8117
6.85561
5.96209
10.3449
4.22711
3.85823
3.76205
4.11557
3.9211
6255.54
6670.22
7046.8
3228.91
3230.86
3067.48
3065.02
1254.32
1868.87
1391.19
1771.59
1347.25
1712.68
1288.86
1349.03
1711.98
1877.77
1410.22
1774.5
1274.17
1376.2
1394.73
1546.06
1290.75
1380.56
1406.64
1548.14
1236.06
1318.43
1248.25
1321.34
0.092264
0.310017
2.48699
2.5701
2.4949
2.57923
2.48471
2.4845
4.08087
4.81229
4.01475
3.55008
3.28058
3.54418
3.34544
2.91581
4.54999
3.93132
4.13787
3.62197
3.26248
3.60102
3.34152
2.90958
4.99731
6.48687
5.39144
5.98672
5.74885
3.98247
5.41901
4.11097
6727.62
7151.48
3698.29
3331.58
3317.13
3709.91
3462.47
3464.52
3143.38
1444.49
1849.52
3146.95
1473.25
1857.8
1484.88
1604.91
1604.12
1768.95
1502.21
1606.19
1617.21
1771.68
1335.05
1458.44
1466.11
1590.62
1351.95
1461.74
1485.48
1591.7
0.105382
0.357385
2.69535
3.20694
3.54009
2.61927
2.70114
3.20127
3.521
2.63633
2.4945
2.49772
5.10754
4.05174
6.63946
5.288
4.57909
3.62534
4.67579
5.72561
3.93598
5.76667
4.91451
3.69253
4.8135
7.05082
5.23217
6.23473
7214.53
7595.55
3766.11
3309.72
3308.79
3765.5
3681.6
3670.01
1629.26
1511.59
1887.82
1472.52
1858.32
2047.24
1434.73
2067.96
1645.79
1541.13
1899.38
1503.23
1869.12
2053.06
1473.77
2077.15
1558.14
1673.36
1648.44
1822.45
1564.51
1650.12
1687.57
1829.45
0.113433
2.46128
2.56479
2.57651
2.46326
2.33434
2.3251
3.63344
3.30454
3.73044
3.44684
3.59521
3.23426
3.72894
3.46552
2.70438
3.72835
3.3798
3.6267
3.31169
3.72776
3.4457
3.59618
3.23292
3.69936
3.45569
2.7119
3.71293
3.37123
4.56153
3.76416
4.20075
3.51872
4.34461
3.75355
4.4017
3.54509
7682.01
7959.17
3879.45
3399.35
2070.29
1661.19
3403.34
2074.92
1672.56
3879.23
3710.37
3690.09
1711.8
1869.72
1662.62
1891.34
1825.58
2049.31
1734.98
1877.73
1686.73
1836.53
1899.01
2053.38
1612.19
1733.2
1622.28
1736.51
0.0949332
2.5344
2.5081
2.55198
2.51094
2.34124
2.32833
3.75185
3.68668
3.57383
3.5758
3.82432
3.6282
3.58999
3.72365
3.44449
3.70989
3.41248
3.36449
3.47881
3.15343
3.74818
3.66965
3.57345
3.56794
3.80077
3.61927
3.70842
3.57578
3.43732
3.69039
3.40492
3.36134
3.4971
3.16136
8047.89
4112.84
3937.62
3915.63
4129.95
4060.94
4044.37
1565.53
2078.06
1664.97
2079.58
1679.32
2237.59
1746.29
2225.97
1622.48
2083.27
1683.63
2087.16
1689.88
2261.19
1772.32
2235.5
3688.27
1768.27
2235.48
3683.64
1813.09
2251.16
1833.09
1885.63
1978.65
2087.85
1849.22
1889.54
1985.63
2092.59
0.079732
2.46687
3.18542
3.46456
2.49066
2.48425
3.19202
3.47718
2.49267
2.36338
2.35268
3.77792
3.68415
3.74511
3.56519
3.67342
3.59684
3.74462
3.54949
3.53057
3.39831
3.76132
3.67806
3.72508
3.55637
3.64284
3.72707
3.59826
3.54244
3.51871
3.39836
8382.69
4162.59
3928.81
3898.24
4166.62
4132.63
4117.89
1796.73
1838.62
2071.24
2049.89
1955.8
2232.62
1814.54
1857.47
2077.56
2057.28
1981.89
2242
2017.67
1848.48
2227.46
1775.03
2201.75
2453.39
1750
2349.92
2029.24
1882.66
2241.78
1833.05
2221.13
2457.44
1765.26
2351.86
0.0942735
2.37484
2.36352
2.46838
3.19922
3.35718
3.15546
3.42271
2.48152
2.48132
3.20296
3.37052
3.16257
3.42988
2.47828
3.67644
3.61511
3.56249
3.53094
3.4982
3.38136
3.64763
3.59632
3.56643
3.52107
3.4901
3.38178
8653.93
4184.67
4055.44
2425.64
2007.67
4006.14
2423.72
1998.5
4199.79
4190.73
4178.93
1902.81
2134.43
2029.41
2223.09
1924.92
2142.16
2051.06
2231.78
2089.59
2263.93
2052.12
2228.21
2222.71
2464.05
2113.55
2248.74
2071.9
2231.7
2238.91
2461.22
0.0639043
2.38811
2.52119
2.3743
2.49464
2.47958
3.11722
3.34698
3.13729
3.32506
3.52615
3.34473
2.47237
2.49363
3.12125
3.35292
3.14268
3.33007
3.52611
3.34394
2.46703
3.56104
3.42942
3.54948
3.42615
8764.77
4225.45
4242.85
4100.43
2353.78
2003.55
2383.93
1991.64
4068.38
2363.8
1987.44
2378.57
1985.78
4229.26
4216.75
2209.99
2103.35
2290.22
2311.82
2223.13
2433.64
2244.69
2127.89
2276.8
2233.81
2324.58
2431.82
-0.0207998
2.41069
2.35017
2.39495
2.33655
2.7336
2.6772
2.53329
3.11878
3.33186
3.11958
3.33056
3.28076
3.49759
3.31197
3.47499
3.53175
3.38033
2.53345
3.12239
3.32589
3.12016
3.3328
3.27933
3.49284
3.31009
3.4661
3.51784
3.37751
8777.48
4253.97
4251
4275.59
4276.99
4120.24
2446.77
1998.83
2403.1
2062.55
2265.95
2423.92
4094.86
2441.24
1994.96
2400.87
2044.18
2262.69
2424.13
4253.72
4243.16
2274.97
2366.88
2310.07
2378.33
0.0116665
2.3257
2.30032
2.31131
2.28795
2.47314
2.40661
2.46633
2.40248
3.18639
3.04927
3.17057
3.3328
3.11373
3.36525
3.25578
3.47518
3.24505
3.50706
3.28238
3.50909
3.33291
3.47294
3.16732
3.32365
3.1141
3.354
3.25576
3.46838
3.24342
3.50617
3.27777
3.4869
3.32675
3.45467
8720.11
4244.2
4229.76
4269.34
4253.22
4254.01
4247.09
4122.93
2498.96
2075.64
2488.51
2118.91
2600.29
2269.55
2472.12
2380.3
2247.72
2353.29
4101.78
2479.46
2074.23
2486.97
2090.79
2593.95
2270.89
2470.22
2376.76
2276.7
2362.47
-0.0360389
2.24175
2.16614
2.2333
2.15467
2.37616
2.32974
2.37238
2.32822
2.55399
2.42387
2.54494
2.4334
3.90428
3.86513
4.44301
3.65555
3.72972
3.64231
4.39971
3.60298
3.27953
3.45676
3.25142
3.45018
3.26748
3.44343
3.24598
3.43407
8342.44
4201.07
4161.45
4219.48
4176.2
4242.22
4210.63
4238.3
4206.32
4141.62
4116.58
2578.4
2049.8
2516.38
2112.39
2649.31
2378.02
2585.97
2443.91
2488.59
2220.37
2363.16
2300.48
2563.41
2059.2
2516.62
2096
2643.6
2379.95
2586.39
2427.15
2490.72
2240.98
2367.75
2311.78
0.0733109
-0.0518635
2.30167
2.23
2.30048
2.22587
2.40116
2.34882
2.41178
2.36286
3.13387
3.42143
3.4988
3.35576
3.11988
3.30736
3.1242
3.31951
3.1455
3.40051
3.45353
3.34805
3.12207
3.3063
3.12729
3.31654
3.71434
3.60609
4.48383
3.51172
3.63875
3.5055
4.21092
3.49498
7838.7
4094.39
4031.94
4102.08
4040.86
4158.81
4105.73
4151.54
4097.07
4122.01
4059.68
4098.44
4039.43
2606.2
2150.93
2586.12
2151.94
2598.3
2137.75
2579.61
2137.44
2649.12
2325.68
2570.04
2350.98
2638.79
2326.85
2569.73
2334.83
-0.0487297
2.1798
2.0547
2.18871
2.06024
-0.0455825
2.28691
2.2162
2.3057
2.23105
3.12972
3.3058
3.13998
3.29144
3.12043
3.25375
3.08828
3.28304
3.13406
3.30721
3.14374
3.29688
3.12573
3.26095
3.09334
3.28933
3.16769
3.41736
3.50415
3.34263
3.12792
3.32533
3.10457
3.33831
3.16684
3.39449
3.44907
3.33554
3.12578
3.32451
3.10477
3.33418
7368.19
7658.64
4003.88
3841.83
3991.08
3830.1
4014.11
3958.16
3989.07
3933.21
2498.78
2138.71
2553.31
2101.5
2451.82
2036.67
2413.9
2071.95
2494.77
2125.68
2547.72
2089.98
2452.53
2048.66
2419.4
2069.52
2741.03
2433.17
2712.46
2417.67
2730.41
2432.77
2707.89
2402.42
-0.0651628
1.98573
1.8925
1.98374
1.88373
2.22656
2.05213
2.23286
2.07182
-0.0526801
3.01988
3.21569
3.05301
3.20182
2.95068
3.10339
2.80356
3.19756
3.0272
3.23318
3.06135
3.21512
2.95759
3.10797
2.80737
3.20912
3.10357
3.30914
3.13989
3.24085
3.11568
3.22864
3.09373
3.2503
3.10821
3.31165
3.14175
3.24871
3.11962
3.24213
3.09781
3.26028
6891.01
7230.57
3772.26
3697.41
3738.69
3688.36
3885.2
3724.26
3852.09
3695.14
2359.75
2000.75
2379.83
1963.13
2343.61
1876.51
2329.21
1924.5
2358.73
2003.23
2382.54
1954.1
2342.53
1888.6
2330.32
1917.28
2618.87
2429.05
2665.82
2405.38
2571.1
2314.75
2515.5
2369.63
2616.09
2428.91
2662.68
2401.57
2573.13
2338.43
2523.81
2373.74
-0.0480201
-0.0898471
2.02667
1.98504
2.03327
1.98308
3.12142
3.12898
2.96364
3.12261
2.91275
2.89833
2.91892
2.58187
3.07166
2.80199
3.11278
3.13692
2.95817
3.10501
2.90529
2.90194
2.91374
2.58025
3.06026
2.79597
-0.0674726
3.06369
3.21125
3.07737
3.20993
3.03806
3.23167
3.06806
3.22327
3.08154
3.22031
3.0421
3.24376
3.19013
3.36849
3.18722
3.35012
3.19287
3.35996
3.18583
3.34923
6444.84
6831.07
3586.69
3487.4
3586.32
3497.2
3519.49
3520.17
3511.58
3507.09
2267
1883.16
2312.21
1856.57
2313.12
1605.24
2195.28
1857.88
2263.09
1880.52
2309.36
1847.19
2312.53
1611.9
2193.11
1851.01
2387.05
2270.54
2456.62
2192.77
2366.23
2126.2
2331.46
2137.81
2389.72
2292.33
2463.99
2201.45
2367.52
2130.45
2334.08
2144.3
-0.147297
1.9844
2.60485
2.00053
2.69839
-0.0934449
1.9487
1.87117
1.9583
1.87428
3.19787
3.18182
3.09934
3.00578
3.13758
2.96672
2.97367
2.69238
3.17678
2.91369
3.18424
3.17306
3.09447
3.00264
3.12642
2.96232
2.96619
2.69033
3.16931
2.91019
-0.0787793
3.19568
3.34614
3.21573
3.28982
3.17986
3.30268
3.19396
3.33114
3.21172
3.28357
3.17521
3.28901
6030.21
6427.77
6770.01
3486.86
3293.32
3481.56
3300.09
1671.84
1859.96
2122.58
1592.66
2059.36
2303.09
1403.02
2053.05
1612.79
2076.37
1862.82
1712.63
2139.79
1654.45
2080.6
2305.77
1454.15
2070.18
1661.18
2095.51
2314.92
2130.38
2321.83
2132.22
2344.98
2106.08
2310.84
2128.21
2321.78
2118.95
2338.33
2080.32
2297.9
2082.47
2254.44
2052.5
2302.77
2102.35
2261.58
2068.13
-0.123241
2.28643
1.70083
2.34917
1.76534
2.01872
4.16515
2.06363
4.30747
-0.0199388
2.56989
2.89969
2.66509
2.80228
2.47503
2.65774
2.28562
2.70957
2.56826
2.89603
2.66406
2.79958
2.4715
2.64567
2.28454
2.70662
3.21769
3.08357
2.97557
2.79955
3.17746
2.91008
3.19586
3.07597
2.9522
2.79069
3.15234
2.90007
-0.124713
5622.78
5974.03
6311.19
3145.77
3076.29
3131.15
3076.74
3207.49
3142.49
3213.82
3144.38
1906.64
1842.89
2097.34
2123.58
1855.48
2104.48
1642.27
2170.98
1839.29
2145.15
1950.92
1870.98
2137.67
2107.35
1867.01
2110.7
1666.61
2179.64
1863.55
2153.97
2233.85
2096.48
2246.22
2087.78
2193.8
2031.79
2237.3
2108.71
2250.32
2105.67
2199.26
2052.35
2.94059
0.023967
3.79547
3.938
3.85289
3.65682
2.61084
2.70968
3.02721
2.63278
3.55625
2.49304
4.01769
8.31807
3.51788
5.15135
2.63145
2.71555
3.17889
2.6373
3.81219
2.49777
4.03972
8.75248
3.49372
5.39385
0.0401252
2.66935
2.93238
2.68347
2.93173
2.64595
2.8392
2.66835
2.92777
2.68244
2.93625
2.63273
2.84268
-0.215996
5302.4
5564.89
5767.24
2923.5
2797.1
2920.06
2803.24
2981.02
2929.32
2983.59
2927.38
1919.02
1508.39
1960.61
1515.3
1927.37
1286.34
1927.17
1518.85
1926.16
1532.92
1969.96
1534.63
1935.95
1328.9
1935.25
1543.87
1881.5
2097.7
1697.03
1960.07
1799.95
2030.48
1928.23
2111
1716.73
1967.18
1816.84
2035.09
2.55094
16.0407
16.9803
15.9651
16.9264
0.173543
12.5584
14.045
12.7399
13.5665
2.64373
2.60714
2.57989
3.66507
2.55551
3.98508
5.52087
12.7482
2.83913
5.91087
2.6714
2.63066
2.5664
3.89455
2.57336
4.31853
6.06099
13.1552
2.88669
6.42461
0.0310755
2.56574
2.785
2.56196
2.8028
-0.338101
5115.31
5239.11
5301.46
5499.75
2821.47
2566.57
2802.99
2562.4
1387.88
1483.33
1722.21
1324.08
1691.13
1900.28
1151.71
1767.46
1307.7
1704.63
1505.63
1414.04
1731.88
1351.44
1701.74
1910.78
1185.27
1776.51
1335.95
1716.78
1875.12
1585.16
1896.9
1652.86
1882.28
1704.28
1881.61
1606.4
1907.55
1660.87
1891.39
1722.03
14.3254
0.691579
15.2133
14.8494
15.2173
14.7899
0.2572
16.3557
9.73889
13.724
8.5361
15.2071
16.3543
9.7279
15.3074
9.67485
15.1605
2.5828
5.70092
4.1416
11.1745
2.80487
9.03018
2.61901
5.95845
4.35334
11.986
2.87532
9.77179
-0.169751
-0.318827
5057.13
5039.87
4980.06
5032.11
2334.1
2269.28
2331.85
2280.23
2631.09
2434.5
2625.85
2434.82
1582.65
1541.11
1683.09
1732.78
1524.38
1642.95
1264.31
1653.16
1463.35
1606.79
1610.58
1558.81
1748.2