/*--------------------------------*- C++ -*----------------------------------*\
| =========                 |                                                 |
| \\      /  F ield         | OpenFOAM: The Open Source CFD Toolbox           |
|  \\    /   O peration     | Version:  5.x                                   |
|   \\  /    A nd           | Web:      www.OpenFOAM.org                      |
|    \\/     M anipulation  |                                                 |
\*---------------------------------------------------------------------------*/
FoamFile
{
    version     2.0;
    format      ascii;
    class       surfaceScalarField;
    location    "1.8";
    object      phi;
}
// * * * * * * * * * * * * * * * * * * * * * * * * * * * * * * * * * * * * * //

dimensions      [0 3 -1 0 0 0 0];

internalField   nonuniform List<scalar> 
30582
(
0.00023887
-4.34166e-06
0.000243582
-4.71243e-06
0.000238579
-8.36416e-06
0.000245111
-1.52931e-06
0.000243153
-9.28592e-06
0.000237406
-1.11505e-05
0.000242094
3.01735e-06
0.000244526
-2.90198e-06
0.00024236
-1.42399e-05
0.00023546
-1.19e-05
0.000237937
4.15703e-06
0.00024135
6.19273e-06
0.00024434
-4.88233e-06
0.000239531
-1.83107e-05
0.000232689
-9.76158e-06
0.000232879
5.05779e-06
0.000237377
8.12994e-06
0.000241703
8.83052e-06
0.000240249
-5.60097e-06
0.000237502
-2.31233e-05
0.000226958
-1.73683e-06
0.000227057
5.82221e-06
0.000232857
9.57792e-06
0.000238226
1.16067e-05
0.000237937
1.11426e-05
0.000239202
-7.30091e-06
0.000229542
-2.57077e-05
0.000222665
1.07626e-05
0.000219161
7.89664e-06
0.000227303
1.13764e-05
0.000233818
1.39863e-05
0.000235529
1.40149e-05
0.00023807
1.22749e-05
0.000228705
-6.46392e-06
0.000227467
-3.05104e-05
0.000205923
4.0212e-05
0.000209618
9.5426e-06
0.000219567
1.56326e-05
0.000228415
1.67793e-05
0.000232829
1.66867e-05
0.000237183
1.49012e-05
0.000229532
1.14479e-05
0.000228459
-7.45517e-06
0.000202313
-2.69007e-05
0.000123834
-0.00010503
0.000199139
1.04788e-05
0.000209951
1.91582e-05
0.000220743
2.33041e-05
0.000228647
2.09609e-05
0.000235407
1.8463e-05
0.000232089
1.23444e-05
0.000230251
9.65592e-06
0.000203004
-8.14607e-06
0.000132182
-3.52493e-05
-0.000246662
0.000140782
0.000188882
1.02571e-05
0.000199282
2.11482e-05
0.000210739
2.91624e-05
0.000221485
3.04668e-05
0.000231467
2.49014e-05
0.000233954
1.65982e-05
0.00023395
8.64528e-06
0.000210959
1.7013e-06
0.000160759
-3.67227e-05
-0.000296916
1.50052e-05
0.000141215
-4.70012e-07
0.000179766
9.1164e-06
0.000188844
2.06948e-05
0.00019951
3.23773e-05
0.000211193
3.94541e-05
0.000223945
3.79887e-05
0.000232407
2.64483e-05
0.000236649
1.38993e-05
0.000223074
-3.47061e-06
0.00019389
-3.14296e-05
-0.000279911
-5.37284e-05
0.000116453
3.97671e-05
6.42079e-05
-6.46783e-05
0.000172077
7.68903e-06
0.000179615
1.83456e-05
0.000188586
3.16184e-05
0.000199321
4.4249e-05
0.000212769
5.063e-05
0.000225791
4.46042e-05
0.000235551
2.75455e-05
0.000234422
2.55195e-06
0.000226231
-3.58114e-05
-0.000192793
-0.000118548
-7.27615e-05
0.000135486
0.000108071
-4.09584e-06
-0.000128154
6.3476e-05
0.000165424
6.65262e-06
0.000171923
1.53812e-05
0.000179211
2.77208e-05
0.00018778
4.31592e-05
0.000199664
5.7354e-05
0.000214091
6.23299e-05
0.000228855
5.13004e-05
0.000240169
2.17981e-05
0.000258229
-2.94467e-05
-6.56144e-05
-0.00016299
-9.84792e-05
-9.28298e-05
7.85223e-05
0.000165035
-8.11147e-05
-5.11355e-05
9.49408e-05
-3.14648e-05
0.00015893
6.4942e-06
0.000165315
1.32609e-05
0.000171879
2.27131e-05
0.000178033
3.74677e-05
0.000187027
5.57964e-05
0.000199571
7.18745e-05
0.000215782
7.5403e-05
0.000237297
5.41723e-05
0.000282661
-2.63393e-06
8.06124e-05
-0.000175673
-0.000110813
-0.000150656
6.37777e-05
-7.80852e-05
9.44161e-06
7.44788e-05
7.70682e-05
-3.32628e-05
-8.78249e-05
0.000150946
7.98384e-06
0.000158933
1.28761e-05
0.000165996
1.91435e-05
0.00017064
3.01066e-05
0.000176858
4.76362e-05
0.000185517
6.98505e-05
0.000199037
8.86196e-05
0.000224879
8.78215e-05
0.000294594
4.224e-05
0.000205636
-0.000127658
-9.89182e-05
-0.000187568
4.48826e-05
-0.000131761
2.58692e-05
-9.45127e-05
3.6388e-05
0.000115159
-6.72112e-05
0.000140371
1.05746e-05
0.000151392
1.55248e-05
0.000160246
1.86266e-05
0.000165105
2.4678e-05
0.000170116
3.68492e-05
0.000174534
5.86193e-05
0.000182943
8.59444e-05
0.000206703
0.000106795
0.000292135
9.02802e-05
0.000286444
-3.85674e-05
-5.67089e-05
-0.000169867
3.36567e-05
-0.000176342
1.51152e-05
-0.000121007
1.4663e-05
-7.27877e-05
-1.22776e-05
0.000126499
1.38723e-05
0.000141264
2.0702e-05
0.000153176
2.25951e-05
0.0001603
2.34316e-05
0.000166133
2.8661e-05
0.000167803
4.35796e-05
0.000170953
7.06099e-05
0.000188471
0.000104177
0.000278378
0.000120553
0.000316729
5.99945e-05
3.59533e-05
-0.00013123
2.66839e-05
-0.000162894
4.60173e-06
-0.000165829
2.64749e-06
-0.000108992
4.27978e-06
0.000108913
1.7586e-05
0.000127625
2.75116e-05
0.000143447
3.04308e-05
0.000154678
2.8217e-05
0.000162895
2.66691e-05
0.00016464
3.18238e-05
0.000164981
4.9551e-05
0.000174277
8.48031e-05
0.00026059
0.000121965
0.000314433
0.000122849
0.000130053
-3.41056e-05
2.69592e-05
-0.000131505
-7.95254e-06
-0.00015034
-5.16344e-06
-0.000158018
5.75008e-06
8.77173e-05
2.11957e-05
0.000110091
3.512e-05
0.000130052
4.09061e-05
0.000146117
3.89925e-05
0.000158327
3.27848e-05
0.000163078
2.82317e-05
0.000164215
3.259e-05
0.00016658
5.72482e-05
0.000244919
0.000100474
0.000298905
0.000137492
0.00018515
6.7753e-05
4.69473e-05
-5.40937e-05
-1.7686e-05
-0.000121771
-1.30525e-05
-0.000142451
2.71311e-06
6.34723e-05
2.4245e-05
8.87884e-05
4.24982e-05
0.000112529
5.26437e-05
0.000133367
5.36561e-05
0.000150641
4.66789e-05
0.000161231
3.46311e-05
0.000165792
2.66548e-05
0.000164449
3.47211e-05
0.000234982
6.71854e-05
0.00028909
0.000110289
0.000216716
0.000105926
8.74132e-05
2.72872e-05
-1.92706e-05
-5.25091e-05
-1.91876e-05
-0.000115636
-2.01005e-07
3.70865e-05
2.63858e-05
6.43027e-05
4.87307e-05
9.09764e-05
6.40506e-05
0.000116003
7.00079e-05
0.000138458
6.58385e-05
0.000155968
5.1942e-05
0.000166109
3.43136e-05
0.000165786
2.53182e-05
0.000230641
3.90617e-05
0.000301034
5.52419e-05
0.000238032
8.89737e-05
0.00013544
5.78983e-05
-3.13282e-06
1.11493e-05
-1.71299e-05
-5.45668e-05
-2.54593e-06
9.67936e-06
2.74071e-05
3.75795e-05
5.3109e-05
6.60014e-05
7.37057e-05
9.41579e-05
8.58953e-05
0.000121157
8.73094e-05
0.000144983
7.68242e-05
0.000162338
5.57139e-05
0.000168697
3.14021e-05
0.000231269
2.46904e-05
0.000333096
6.99989e-06
0.000256071
3.72024e-05
0.000183305
4.11094e-05
1.84621e-05
3.63032e-05
-5.74206e-06
-2.38523e-07
-4.52101e-06
-1.75388e-05
2.72182e-05
9.77664e-06
5.521e-05
3.8597e-05
8.05134e-05
6.8493e-05
9.93706e-05
9.88017e-05
0.000108251
0.000127946
0.000104346
0.000152463
8.66986e-05
0.000168123
5.62883e-05
0.000231136
3.1535e-05
0.000367535
-9.7485e-06
0.000281047
-1.79763e-05
0.000224122
-3.61475e-06
3.74241e-05
2.21474e-05
4.48322e-06
2.60779e-05
-5.05211e-06
-4.3393e-05
2.58542e-05
-1.78618e-05
5.48567e-05
9.98676e-06
8.38203e-05
4.00994e-05
0.000108907
7.21011e-05
0.000126071
0.000105009
0.000131188
0.000135833
0.000120976
0.000159901
9.49207e-05
0.000225104
6.23205e-05
0.000381217
1.78531e-05
0.000322219
-5.09201e-05
0.000263383
-5.72371e-05
4.96782e-05
-1.5869e-05
1.16847e-05
1.49459e-05
-2.14037e-06
-6.68191e-05
2.34261e-05
-4.41287e-05
5.21211e-05
-1.85155e-05
8.33589e-05
1.03132e-05
0.000113607
4.22675e-05
0.000138741
7.69906e-05
0.00015409
0.000112383
0.000154638
0.000143061
0.000137816
0.000209687
0.000110337
0.00037145
7.20868e-05
0.000380288
-4.02165e-05
0.000302214
-8.97518e-05
5.06864e-05
-5.82454e-05
1.36311e-05
-1.78155e-05
8.49401e-08
-8.69465e-05
2.01273e-05
-6.79328e-05
4.72301e-05
-4.56331e-05
7.92387e-05
-1.94548e-05
0.000113127
1.07955e-05
0.000145078
4.52921e-05
0.000170439
8.29381e-05
0.000183535
0.000118161
0.000179538
0.000185604
0.000161899
0.00034484
0.000136947
0.00041892
3.34554e-05
0.000332338
-7.03399e-05
4.52659e-05
-8.43313e-05
9.363e-06
-5.39773e-05
2.6899e-07
-0.000103143
1.61966e-05
-8.83792e-05
4.05736e-05
-7.02155e-05
7.18125e-05
-4.78151e-05
0.000107599
-2.0772e-05
0.000144694
1.16229e-05
0.000178748
4.90746e-05
0.000204303
8.62439e-05
0.000215451
0.000153233
0.000211909
0.00030531
0.00020143
0.000416852
0.000139015
0.000357773
8.02033e-06
4.34854e-05
-6.85593e-05
-2.02524e-06
-7.2943e-05
-2.56969e-06
-0.000115044
1.19009e-05
-0.000104802
3.26193e-05
-9.13191e-05
6.16772e-05
-7.35279e-05
9.75252e-05
-5.0902e-05
0.000137729
-2.23368e-05
0.000178654
1.27074e-05
0.000215115
4.96281e-05
0.000240919
0.000113381
0.000255304
0.000254114
0.000263104
0.000380999
0.000237283
0.0003616
0.000135188
4.88705e-05
2.63544e-06
-1.64896e-05
-5.40948e-05
-8.44347e-06
-0.000122534
7.49038e-06
-0.000116778
2.38765e-05
-0.000108252
4.95518e-05
-9.55746e-05
8.37239e-05
-7.82422e-05
0.000124865
-5.48038e-05
0.000170196
-2.42821e-05
0.000215644
1.14775e-05
0.000253265
6.78919e-05
0.000286408
0.000192143
0.000317275
0.00032125
0.000322852
0.000340493
0.00025839
7.26879e-05
0.00011137
-2.53681e-05
1.15141e-05
-1.61649e-05
-0.000125664
3.13023e-06
-0.000124137
1.48497e-05
-0.000120614
3.62391e-05
-0.000113185
6.71624e-05
-0.000101675
0.000107157
-8.42606e-05
0.000154322
-5.96842e-05
0.000205598
-2.61229e-05
0.000253244
2.00004e-05
0.000301157
0.000120785
0.000357766
0.000243384
0.000395141
0.000293294
0.000370051
9.15903e-05
0.000239488
-3.08097e-05
0.000116812
-2.48631e-05
-0.000124643
-1.02144e-06
-0.000127048
6.04153e-06
-0.000128325
2.25602e-05
-0.000125869
4.89232e-05
-0.000120351
8.58389e-05
-0.000109476
0.000132372
-9.166e-05
0.000186298
-6.22237e-05
0.000241699
-2.75747e-05
0.000300819
4.17517e-05
0.00038019
0.000149789
0.000451361
0.000222665
0.000465771
9.54512e-05
0.000366191
-2.90259e-05
0.000237704
-2.82506e-05
-0.000120267
-4.37583e-06
-0.000126344
-1.72585e-06
-0.000131507
9.22382e-06
-0.000133376
3.00666e-05
-0.000133788
6.23598e-05
-0.000129453
0.000105817
-0.000118911
0.000159623
-9.63378e-05
0.000220412
-7.49857e-05
0.00028911
-4.15714e-05
0.000384142
4.78729e-05
0.000482106
0.000133972
0.000540054
8.02698e-05
0.000480952
-2.41426e-05
0.000361307
-2.92177e-05
-0.00011309
-7.1774e-06
-0.000121837
-8.88233e-06
-0.000129742
-3.49092e-06
-0.000135771
1.16189e-05
-0.000141917
3.8196e-05
-0.000143572
7.64785e-05
-0.000140363
0.000127268
-0.000126279
0.000189564
-0.000119413
0.00026484
-0.000120193
0.000367732
-5.69318e-05
0.000488947
3.88995e-05
0.000577178
5.09222e-05
0.000569401
-1.73734e-05
0.000474182
-2.71724e-05
-0.00010377
-9.32027e-06
-0.000114437
-1.45778e-05
-0.000124718
-1.39057e-05
-0.000134564
-4.69844e-06
-0.000144879
1.45807e-05
-0.000151492
4.6116e-05
-0.000155443
9.15583e-05
-0.000150014
0.000151004
-0.000157784
0.000227935
-0.000190094
0.000334741
-0.000158212
0.000469011
-5.11247e-05
0.000578971
1.73128e-05
0.000610787
-9.51637e-06
0.000561543
-2.20238e-05
-9.29543e-05
-1.08154e-05
-0.00010484
-1.89174e-05
-0.000116768
-2.25285e-05
-0.000128958
-1.95108e-05
-0.000141738
-7.83951e-06
-0.000152906
1.59949e-05
-0.000164286
5.49597e-05
-0.0001665
0.000108044
-0.000189158
0.000182377
-0.000250493
0.000288334
-0.00025063
0.000427159
-0.000143191
0.000561077
-1.32853e-05
0.000609569
-2.90858e-06
0.000604179
-1.42413e-05
-8.12567e-05
-1.16975e-05
-9.36994e-05
-2.19558e-05
-0.000106602
-2.90836e-05
-0.000120248
-3.12386e-05
-0.000135006
-2.62428e-05
-0.000150271
-1.04742e-05
-0.000166725
1.84335e-05
-0.000174958
6.34178e-05
-0.000213234
0.00013212
-0.000300974
0.000232858
-0.000329455
0.000367159
-0.000232406
0.000516374
-4.7683e-05
0.000595475
9.67414e-07
0.000605693
-6.11896e-06
-6.91755e-05
-1.20811e-05
-8.16145e-05
-2.37823e-05
-9.48823e-05
-3.36751e-05
-0.000109273
-4.00589e-05
-0.000125119
-4.11259e-05
-0.000142265
-3.42493e-05
-0.00016105
-1.61494e-05
-0.00017644
1.99154e-05
-0.000230023
8.02077e-05
-0.000341283
0.000172429
-0.000394421
0.000297823
-0.000305394
0.000440148
-8.15951e-05
0.000550286
6.30687e-06
0.000590136
6.09632e-07
-5.70307e-05
-1.21447e-05
-6.91346e-05
-2.45609e-05
-8.22104e-05
-3.64541e-05
-9.67452e-05
-4.62028e-05
-0.000112975
-5.22028e-05
-0.000130815
-5.25757e-05
-0.000150969
-4.43302e-05
-0.000172392
-2.01969e-05
-0.000239298
2.91902e-05
-0.000371002
0.000109926
-0.00044421
0.000222219
-0.000358631
0.00035106
-0.000104488
0.000463042
1.45959e-05
0.000541997
8.58714e-06
-1.19211e-05
-4.51097e-05
-5.67534e-05
-2.45259e-05
-6.91353e-05
-3.7636e-05
-8.32797e-05
-4.99195e-05
-9.93031e-05
-5.98747e-05
-0.000117121
-6.58972e-05
-0.000137573
-6.59714e-05
-0.000162178
-5.45446e-05
-0.000240369
-1.9126e-05
-0.000387999
4.61878e-05
-0.000475082
0.000140798
-0.000389411
0.000252999
-0.000109084
0.000355656
2.24823e-05
0.000455156
1.75662e-05
-2.38508e-05
-4.48237e-05
-2.52975e-05
-1.98122e-05
-5.61934e-05
-3.74678e-05
-6.9448e-05
-5.14676e-05
-8.47212e-05
-6.45014e-05
-0.000101965
-7.50306e-05
-0.000122273
-8.11977e-05
-0.000149505
-7.86446e-05
-0.00023502
-5.98932e-05
-0.000386494
-2.06314e-05
-0.000476257
4.73633e-05
-0.000394811
0.000146198
-9.51509e-05
0.000239066
3.0596e-05
0.000347543
2.46882e-05
-3.61352e-05
-4.3909e-05
-5.05757e-05
-1.95455e-05
-1.95332e-05
-2.79058e-07
-5.57948e-05
-5.1121e-05
-6.97906e-05
-6.63981e-05
-8.59061e-05
-8.05601e-05
-0.000105796
-9.15068e-05
-0.000136318
-9.43843e-05
-0.000227543
-8.61219e-05
-0.000358948
-8.74393e-05
-0.000434047
-6.28421e-05
-0.00037359
2.61417e-05
-6.64514e-05
0.000117498
3.89566e-05
0.000230705
2.98482e-05
-4.90675e-05
-4.28625e-05
-7.60766e-05
-1.84082e-05
-3.82019e-05
-8.7683e-07
-1.42754e-05
1.39963e-05
-5.50756e-05
-6.5836e-05
-6.95e-05
-8.28041e-05
-8.85697e-05
-9.77867e-05
-0.000123231
-0.000104594
-0.000219333
-0.000102595
-0.000312544
-0.000132526
-0.000361838
-0.000159648
-0.000340513
-9.59197e-05
-3.95285e-05
-7.82375e-07
4.48012e-05
0.000111653
3.31029e-05
-6.29084e-05
-4.12347e-05
-0.000101971
-1.69686e-05
-5.68786e-05
2.68592e-07
-2.6534e-05
1.13819e-05
-2.17634e-05
3.57598e-05
-5.33845e-05
-8.19515e-05
-7.11018e-05
-0.000100272
-0.000109672
-0.000111346
-0.000207963
-0.000115964
-0.000258175
-0.000156964
-0.000287756
-0.000206608
-0.000308336
-0.000191827
-2.38329e-05
-0.000111618
4.7391e-05
-3.37349e-06
3.40492e-05
-7.79245e-05
-3.83685e-05
-0.000128839
-1.43662e-05
-7.43911e-05
5.44004e-07
-3.76703e-05
1.1405e-05
-3.85121e-05
2.81309e-05
-3.17259e-05
6.74858e-05
-5.41355e-05
-9.89179e-05
-9.51761e-05
-0.000114768
-0.000190772
-0.000128536
-0.000200989
-0.00017315
-0.000230884
-0.000213836
-0.000275553
-0.000239394
-2.4747e-05
-0.000190915
3.84318e-05
-0.00010266
3.09141e-05
-9.32904e-05
-3.87696e-05
-0.000156548
-1.06601e-05
-9.12459e-05
2.48845e-06
-4.58174e-05
8.69107e-06
-5.0757e-05
2.36499e-05
-5.16267e-05
4.80318e-05
-7.34907e-05
0.000140977
-8.07482e-05
-0.000113346
-0.000168317
-0.000137223
-0.000140541
-0.000188984
-0.000196982
-0.000207053
-0.000238978
-0.000250412
-3.1063e-05
-0.000233079
2.4247e-05
-0.000176732
2.57823e-05
-0.000106032
-6.8007e-05
-0.000183646
-1.16716e-05
-0.000107383
5.47664e-06
-5.17282e-05
8.39914e-06
-5.47882e-05
1.27222e-05
-6.11108e-05
3.31339e-05
-0.000127576
0.000102117
-9.25452e-05
0.000233522
-0.000144888
-0.000136775
-7.98385e-05
-0.000197925
-0.000182658
-0.000203307
-0.000201668
-0.000244362
-3.47703e-05
-0.000246704
1.11871e-05
-0.00022002
1.92e-05
-0.000125829
-0.000125091
-0.000210037
-4.16155e-05
-0.000121522
2.46732e-06
-5.53362e-05
9.08448e-06
-5.18896e-05
5.50037e-06
-5.95032e-05
1.11145e-05
-0.000154877
6.04352e-05
-0.000175138
0.000184711
-0.000140974
0.000374495
-3.10311e-05
-0.000185582
-0.000179559
-0.000201023
-0.000170451
-0.000234521
-3.41037e-05
-0.000245026
2.27447e-06
-0.00023779
1.267e-05
-0.000167581
1.07212e-05
-0.000271213
-6.39149e-05
-0.000136815
-2.63225e-05
-5.57094e-05
2.84045e-06
-4.36206e-05
8.15348e-07
-4.85636e-05
-5.43937e-06
-0.000152666
8.90334e-06
-0.000230748
0.000116045
-0.000255612
0.000299349
-3.46578e-05
0.000409153
-0.000176287
-0.000188854
-0.000145376
-0.000226095
-3.1525e-05
-0.000237098
-2.60401e-06
-0.000240146
7.56338e-06
-0.000172303
-0.000171565
-0.000395359
0.000134867
-0.000178516
-2.22138e-05
-5.92694e-05
-2.27626e-05
-3.03083e-05
-1.0472e-05
-2.64861e-05
-2.12624e-05
-0.000122464
-3.56417e-05
-0.000240469
1.86243e-05
-0.000346826
0.000207259
-0.000145607
0.000410298
0.000126547
0.000282607
-0.000121077
-0.000213153
-3.0347e-05
-0.000227273
-5.03578e-06
-0.000234665
3.78398e-06
-0.000194666
-9.87158e-05
-0.000434712
-0.000132213
-0.000259054
0.000215405
-7.55292e-05
-5.95409e-06
-1.71819e-05
-3.58891e-05
2.73944e-07
-3.72321e-05
-6.98354e-05
-7.38911e-05
-0.000200398
-7.57128e-05
-0.00038962
6.14178e-05
-0.000300364
0.000362016
0.000185533
0.000351312
0.00159228
0.000599631
-0.00190931
-2.92858e-05
-0.000214215
-7.39165e-06
-0.000224917
1.00142e-06
-0.000195665
-2.82885e-05
-0.000433554
-9.98756e-05
-0.000283447
-0.000107821
-9.39369e-05
0.000233812
-8.47024e-06
-1.46658e-05
2.44777e-05
-6.0093e-05
-6.87603e-06
-0.000100191
-0.000112551
-0.000161738
-0.000355156
-0.000110177
-0.000412997
0.000174051
0.000133994
0.000413555
0.00129005
0.000653539
0.00207005
0.000806722
-0.00227715
0.000455535
-0.00236484
-8.75856e-06
-0.000212849
-9.99949e-07
-0.000194454
-9.96992e-06
-0.000421983
-3.9861e-05
-0.00026687
-0.000116454
-0.00010508
-9.66779e-05
1.52167e-05
0.000210125
4.53267e-05
-3.55147e-05
4.41098e-05
-0.000111079
-1.05028e-05
-0.00020224
-0.000221514
-0.00029538
-0.000393681
-0.000129492
2.41704e-05
0.000283874
0.00107824
0.000625371
0.00184001
0.000883587
0.00208431
0.00100956
-0.00228714
0.000673089
-0.0024947
0.000324565
-0.00268941
-2.05187e-06
-2.85079e-06
-0.000411995
-1.99578e-05
-0.000257906
-4.88258e-05
-0.000102552
-0.000118983
1.46279e-05
-9.609e-05
8.99315e-05
0.00016552
7.40109e-05
-6.54156e-05
5.76475e-05
-0.000179229
-6.0318e-05
-0.000363435
-0.000301109
-0.000387952
-0.00010518
-1.41926e-07
0.00091454
0.000447573
0.00160652
0.000858858
0.00187792
0.00108997
0.00197941
0.00118369
-0.00215354
0.00083499
-0.00244905
0.000529069
-0.0026992
0.000236178
-0.00292558
-7.20752e-06
-0.000250644
-2.72204e-05
-0.000101229
-5.01496e-05
1.22222e-05
-0.000116579
9.85842e-05
-0.000104743
0.000102548
0.000136983
7.5172e-05
-8.294e-05
5.96939e-05
-0.000299241
-0.000160197
-0.000504347
-0.00016478
-0.000328352
0.000698997
0.000215401
0.00131907
0.000735021
0.00168875
0.00104803
0.0017462
0.00132319
0.0018842
0.00131025
-0.00201077
0.000949512
-0.00226807
0.000607441
-0.00252742
0.000348801
-0.00281183
0.000131767
-0.00305735
-1.03388e-05
-9.65437e-05
-3.19069e-05
2.47896e-05
-6.2718e-05
0.000108174
-0.000126168
0.000148782
-0.000150978
6.53616e-05
0.000146794
0.000121827
-0.000145072
-3.82257e-05
-0.000421212
-0.000130134
-0.000538993
0.000514095
-0.00014345
0.00105275
0.00048172
0.00145969
0.000964076
0.00151058
0.00128365
0.00171808
0.00148931
0.00155643
0.00148359
-0.00172976
0.0010574
-0.00211865
0.000650548
-0.00231117
0.00033153
-0.00251015
0.000171935
-0.00285199
5.7103e-05
-0.00311445
-1.19341e-05
2.99972e-05
-3.71154e-05
0.000132438
-8.69825e-05
0.000184066
-0.00016145
0.000172222
-0.000257837
2.13166e-05
0.000247305
0.000153845
-0.000337143
-0.000104139
-0.000447207
0.000312484
-0.000337381
0.00078244
0.000126864
0.00118051
0.000760902
0.00131674
0.00115792
0.00147671
0.00152502
0.00139604
0.0016497
0.001325
0.000398659
-0.00146814
0.000398096
0.000415052
0.000414914
0.00123579
-0.00190815
0.00071286
-0.00218096
0.000296508
-0.00227615
8.38242e-05
-0.00242204
-1.23893e-06
-0.00279365
-1.63581e-05
-0.00309809
-1.67713e-05
0.000148053
-5.27303e-05
0.000236935
-0.000139851
0.000256883
-0.000246108
0.000165924
-0.000402443
-9.63177e-05
0.000497468
-1.05985e-05
-0.000430684
8.97051e-05
-0.000224428
0.000471917
-2.68593e-05
0.000793725
0.000513651
0.00113282
0.000944818
0.00118943
0.0014452
0.00123263
0.00168843
0.00110655
0.00186816
-6.87962e-07
0.000259521
-0.0002824
0.000422227
0.000368102
-0.00170356
0.000367769
0.000367491
0.000367847
0.000259529
-0.000282273
0.000420152
-4.48777e-07
0.000235554
0.000439468
0.000236559
0.000437436
0.000932876
-0.00212817
0.000377611
-0.00226207
2.59588e-05
-0.00221828
-0.000120772
-0.0023025
-0.000119455
-0.00269056
-0.000100825
-0.00299727
-2.36499e-05
0.000272547
-8.83417e-05
0.000351076
-0.000234045
0.000356627
-0.000436809
8.69596e-05
-0.000585719
-5.35624e-05
0.000540433
-0.000170893
-0.000170087
0.000198894
4.8595e-05
0.0004054
0.000361466
0.000919164
0.000727308
0.000893663
0.00124058
0.00103642
0.00164141
0.000887699
0.00190728
-0.000184823
-0.000186532
0.000762894
0.000474567
0.000473248
0.000500307
0.000500613
-7.2217e-07
-0.000315079
0.000401503
-2.96929e-07
0.000187933
-0.00021328
0.000447871
-0.00203054
0.00125985
-0.000314647
0.000399421
-5.29021e-07
-0.00034574
0.000398681
-0.0003438
0.000396471
0.000188291
-0.000212847
0.000444411
-8.12896e-08
0.000442659
0.000439114
0.00057945
-0.00233001
3.70233e-05
-0.00227313
-0.000208996
-0.00213006
-0.000251962
-0.00216999
-0.000244631
-0.00254675
-0.000153948
-0.00284332
-3.76476e-05
0.000425195
-0.00016246
0.000515074
-0.000392492
0.000474906
-0.000824755
0.000291791
-0.000931072
0.000301809
6.77322e-05
-6.46903e-05
9.3498e-05
0.000179086
0.000274909
0.000611124
0.000669506
0.000632207
0.000988764
0.00082554
0.00145146
0.000664855
0.00186425
0.000631405
0.000504658
0.000505015
0.000514706
0.000514389
2.94103e-07
0.000106491
-0.000117904
0.000485686
0.000105532
-0.000116435
0.000484445
-2.59094e-07
0.000103119
0.000503938
0.00010266
0.000503226
-3.6003e-07
-0.000252932
0.000441516
1.3943e-06
0.000135533
-0.000152143
0.000129671
0.000100138
0.000126804
0.000106474
-0.00228333
0.000832249
0.000289085
0.000288137
-0.00164722
0.00040378
0.000404105
0.000416726
0.000415698
-0.00025206
0.000438274
-3.21813e-07
0.000435156
0.000432225
0.000134891
-0.000151605
0.000128825
0.00010157
0.00012622
0.000105906
1.16578e-06
0.00012716
0.000101275
0.000126744
0.000103942
0.000126545
0.000102539
0.0001261
0.000103552
0.000126571
-0.00241956
-0.00023934
-0.00224279
-0.000343191
-0.00203883
-0.000379405
-0.00203522
-0.000324304
-0.00237639
-0.000214953
-0.00262837
-6.24719e-05
0.000637461
-0.000284849
0.000730047
-0.000647633
0.000722971
-0.00125594
0.000820615
-0.00144988
0.00046307
-0.000460029
2.41351e-05
0.00024845
0.000309269
0.000576764
0.000425852
0.000875861
0.00058722
0.00122708
0.000432438
0.00168388
0.000503302
0.000494705
0.000494593
0.000501979
0.000501077
-3.01171e-07
8.97341e-05
0.000518344
8.97586e-05
0.000517615
-3.23011e-07
7.66955e-05
0.000528068
7.66353e-05
0.000527189
4.44658e-07
3.62362e-05
-1.91918e-05
-5.00951e-06
0.000107374
-1.55231e-05
0.000133584
0.000111585
0.000135426
7.3749e-07
3.60002e-05
-1.94963e-05
-4.97124e-06
-1.55835e-05
0.000107637
0.000133546
0.000111669
0.000135344
7.43949e-07
6.52287e-07
3.40548e-05
0.000114844
0.00013727
0.000115043
0.000138273
3.43344e-05
0.00011505
0.000137114
0.000115173
0.000138208
1.30385e-06
-0.000179951
0.000129907
0.00010292
0.000128913
0.000106282
-1.9079e-05
9.68462e-06
2.16776e-07
1.70958e-05
0.000121753
-1.01223e-05
1.74078e-05
-2.08288e-05
0.000113681
1.70591e-07
-2.19982e-05
0.00011943
1.64362e-05
0.00011713
-0.00240982
0.000253058
-0.00191799
0.000253843
0.000253558
0.00029758
0.000298034
-1.98727e-07
0.000237676
-0.00025212
0.000418422
0.000238335
-0.000252226
0.000417798
3.69887e-07
0.000212188
0.000441844
0.000213196
0.000441207
-0.00017932
0.000129245
0.00010397
0.00012827
0.000105808
1.04749e-06
0.000129731
0.000101903
0.000127312
0.0001074
0.000129152
0.000103907
0.00012688
0.000107209
-1.90792e-05
9.57755e-06
1.70298e-05
0.000121513
-9.66209e-06
1.76944e-05
-2.07771e-05
0.000114314
-2.1908e-05
0.000119557
1.63942e-05
0.000116784
1.33816e-05
1.0547e-05
2.36362e-07
0.000120091
-1.52056e-05
-1.4966e-05
0.000112255
3.04844e-07
0.000119604
0.00011596
1.3393e-05
1.0584e-05
0.000119834
-1.50721e-05
-1.50298e-05
0.000113144
0.000119755
0.0001155
-0.00026499
-0.00239391
-0.000448668
-0.00213731
-0.000496814
-0.00192142
-0.000498728
-0.0018608
-0.000401618
-0.00218973
-0.000240886
-0.00238748
-0.000106985
0.000905978
-0.000460782
0.00108125
-0.00100591
0.00115597
-0.00159129
0.00126667
-0.00225348
0.000635335
-0.00107123
2.40732e-05
0.000533646
0.000199904
0.000802712
0.000328004
0.00113508
0.000244643
0.00141488
0.000327481
0.000464913
0.000464425
0.00046547
0.000464893
-1.94523e-07
5.372e-05
0.000517876
5.40082e-05
0.000517025
-1.79768e-07
4.28995e-05
0.000512979
4.32225e-05
0.000511683
1.01378e-06
3.09079e-05
0.00011845
0.000139787
0.000120437
0.000141776
3.10812e-05
0.000118841
0.000139734
0.000121555
0.000141744
1.32634e-06
2.05998e-05
0.000124176
0.000145034
0.0001232
0.000144646
2.06082e-05
0.000125153
0.000144895
0.000124391
0.000144564
-6.32478e-06
-3.74855e-06
-5.65091e-06
0.000123098
-5.59776e-06
-9.62394e-06
0.000111954
-4.04993e-06
-3.29001e-08
0.000132081
-7.12806e-07
-7.21759e-06
-4.43764e-06
0.000119491
1.68237e-08
-3.66507e-06
0.00012782
7.21067e-08
-4.12126e-06
0.000118779
-5.73125e-06
-9.63242e-06
0.000112924
-6.15356e-06
-3.69656e-06
-6.01826e-06
0.000123506
-4.05559e-06
-7.56769e-07
0.000132172
-7.16431e-06
-4.41428e-06
0.000119551
-3.67246e-06
0.000127813
-4.13504e-06
0.000118975
-8.11948e-06
5.17819e-06
-5.62723e-06
0.000123412
4.39309e-06
3.16001e-08
-5.01344e-06
0.000129738
-8.01655e-06
0.0001238
2.31915e-08
0.000130986
-8.02174e-06
5.1654e-06
-5.69762e-06
0.000123604
4.38753e-06
-5.01675e-06
0.000129753
-7.95457e-06
0.000123878
0.000130992
2.40592e-05
9.95413e-06
1.50261e-07
-2.76997e-05
0.000123443
-1.0099e-05
-2.32318e-05
0.000115422
1.57424e-07
0.000120717
-2.60669e-05
0.00011907
-8.18069e-06
1.46637e-06
-6.38219e-08
6.54074e-06
0.00012199
-1.16027e-06
7.6165e-06
-8.93093e-06
0.000116155
-6.58667e-08
-9.52045e-06
0.000119661
6.98887e-06
0.000119224
-0.00237458
-0.000300235
-0.00213153
9.5718e-05
9.51637e-05
0.000137886
0.000137839
2.13435e-08
0.000276358
-0.00028182
0.000259283
0.000275732
-0.000281197
0.000259045
-5.62136e-08
0.000321875
0.000321483
8.34057e-07
0.000134631
-0.00015271
9.43845e-05
0.000119701
9.83989e-05
0.000123156
0.000134304
-0.000151834
9.47682e-05
0.000119607
9.87061e-05
0.00012308
6.00411e-07
2.18452e-05
4.2287e-05
0.000104482
1.13777e-05
0.000130443
0.00010322
0.000129415
3.27929e-05
2.18507e-05
4.21548e-05
0.000104772
1.14722e-05
0.000130398
0.000103382
0.000129309
3.27716e-05
2.39741e-05
9.87296e-06
-2.76992e-05
0.000123247
-9.72943e-06
-2.29404e-05
0.000115863
0.000120764
-2.61233e-05
0.000118864
-3.1444e-05
1.02269e-05
1.67662e-07
0.000123081
-1.77673e-05
2.72301e-05
0.000114285
1.69672e-07
0.000120205
0.000118789
-3.14901e-05
1.01023e-05
0.000123008
-1.71608e-05
2.75873e-05
0.000115331
0.000120553
0.000118776
-8.23928e-06
1.2373e-06
6.57429e-06
0.000121877
-9.54455e-07
7.74823e-06
-9.00152e-06
0.000116522
-9.54182e-06
0.00011984
7.15697e-06
0.000118613
3.11651e-06
3.82951e-08
0.000119371
0.000116441
3.09943e-06
0.000119213
0.000116124
-0.000609502
-0.00223307
-0.000655432
-0.00197869
-0.000671807
-0.00174835
-0.000583848
-0.00167857
-0.000422678
-0.00200794
-0.000308879
-0.0020786
-0.000179424
0.0012532
-0.00063274
0.00135111
-0.00120106
0.00175786
-0.00208248
0.00141867
-0.00303682
0.000753697
-0.00180085
-9.92483e-05
0.000832797
0.000129347
0.00100137
9.6941e-05
0.00128278
0.000112658
0.000408886
0.0004084
0.000406308
0.000406109
-1.18375e-07
2.92434e-05
0.000478687
2.95336e-05
0.000477995
-1.15279e-07
1.7284e-05
0.000477544
1.75153e-05
0.000476796
1.19806e-06
1.33001e-05
0.000120204
0.000141047
0.000121401
0.000141353
1.32974e-05
0.000121165
0.000140868
0.000122361
0.000141134
1.19518e-06
6.81823e-06
0.000119824
0.000139137
0.00011985
0.000139432
6.13802e-06
0.000120979
0.000138948
0.000120846
0.000139244
-8.0018e-06
-6.79824e-06
0.000127623
-6.46801e-06
7.10017e-09
0.000133244
-8.13972e-06
-5.87303e-06
0.000127655
-6.09361e-08
-5.70061e-06
0.000132958
-7.87736e-06
-7.00389e-06
0.000128025
-6.50008e-06
0.000133347
-7.7122e-06
-6.09786e-06
0.000128361
-5.75666e-06
0.000133219
-8.25974e-06
6.88173e-06
-7.21535e-06
0.000132766
6.49821e-06
-1.68225e-08
-7.25026e-06
0.00013756
-8.23917e-06
0.000132443
-2.1533e-08
0.00013721
-7.85002e-06
6.95131e-06
-7.45178e-06
0.000133504
6.53076e-06
-7.28523e-06
0.00013779
-7.85345e-06
0.000133098
0.000137471
-1.81184e-06
2.98675e-07
-5.8166e-07
-2.25922e-05
-2.433e-05
-2.68513e-09
-4.003e-08
3.26712e-06
-9.03096e-07
-7.92916e-06
-2.66684e-09
-8.26282e-06
-1.73361e-06
3.0458e-07
-5.70307e-07
-2.26198e-05
3.27214e-06
-2.43372e-05
-8.95642e-07
-7.97471e-06
-8.28386e-06
-8.48118e-07
6.91417e-06
-7.02001e-06
6.6521e-06
-1.74971e-08
-6.70847e-06
-9.47375e-07
-3.16684e-09
-8.00585e-07
6.93406e-06
-7.11023e-06
6.65629e-06
-6.73471e-06
-9.44803e-07
1.15297e-05
1.61603e-06
-5.30133e-08
-1.61012e-05
0.000126462
-1.11509e-06
-1.05926e-05
0.000118199
-3.1378e-08
0.000121656
-1.34653e-05
0.00012356
-4.33971e-08
6.30227e-07
3.0495e-08
-2.21941e-06
-6.15281e-07
-1.10389e-07
-5.18024e-07
-4.31033e-08
-7.42618e-07
-1.88522e-06
-0.00222443
-0.000759644
-0.00218925
-9.67689e-05
-9.78934e-05
-2.36116e-05
-2.42462e-05
1.68247e-07
0.000296009
-0.000295968
9.55077e-05
0.000294726
-0.000295058
9.56638e-05
3.16294e-07
0.000151759
0.000151684
1.26887e-06
0.00017744
-0.000189378
5.11184e-05
7.73789e-05
5.71378e-05
8.42967e-05
0.000176705
-0.000189567
5.25676e-05
7.74971e-05
5.86989e-05
8.44289e-05
1.05233e-06
7.66831e-05
0.000101297
7.0489e-05
9.70569e-05
7.73421e-05
0.0001013
7.1711e-05
9.7045e-05
-8.78274e-06
1.86183e-05
-1.78681e-05
0.000102417
2.01947e-05
-1.08119e-07
-1.92405e-05
0.000110113
-8.6178e-06
1.56728e-05
0.000109962
-7.05824e-08
1.72254e-05
0.000117578
-8.47474e-06
1.86812e-05
-1.82242e-05
0.000102786
2.01784e-05
-1.93125e-05
0.000110158
-8.3874e-06
1.57143e-05
0.00011006
1.71974e-05
0.000117603
-6.79167e-06
-1.1115e-05
-3.55196e-06
0.000125941
-7.50472e-06
1.33894e-05
0.000119778
-1.35516e-05
-6.90605e-08
0.000134968
2.33375e-06
-8.48625e-06
0.000116264
-5.53466e-08
0.000124658
1.9552e-08
2.05508e-05
0.000124908
-6.55062e-06
-1.1086e-05
-3.8903e-06
0.000126299
-7.56588e-06
1.34466e-05
0.000120923
-1.35058e-05
0.000135024
2.25972e-06
-8.30269e-06
0.000116313