/*--------------------------------*- C++ -*----------------------------------*\
| =========                 |                                                 |
| \\      /  F ield         | OpenFOAM: The Open Source CFD Toolbox           |
|  \\    /   O peration     | Version:  5.x                                   |
|   \\  /    A nd           | Web:      www.OpenFOAM.org                      |
|    \\/     M anipulation  |                                                 |
\*---------------------------------------------------------------------------*/
FoamFile
{
    version     2.0;
    format      ascii;
    class       volScalarField;
    location    "1.8";
    object      rAU;
}
// * * * * * * * * * * * * * * * * * * * * * * * * * * * * * * * * * * * * * //

dimensions      [-1 3 1 0 0 0 0];

internalField   nonuniform List<scalar> 
12160
(
1.63078e-06
1.63068e-06
1.63074e-06
1.63211e-06
1.63062e-06
1.6307e-06
1.63209e-06
1.63121e-06
1.63058e-06
1.63069e-06
1.63205e-06
1.63157e-06
1.63208e-06
1.63055e-06
1.63071e-06
1.63359e-06
1.63243e-06
1.63201e-06
1.63195e-06
1.63053e-06
1.63081e-06
1.63362e-06
1.63353e-06
1.63196e-06
1.63337e-06
1.63208e-06
1.63056e-06
1.63087e-06
1.63362e-06
1.63355e-06
1.63347e-06
1.63346e-06
1.63199e-06
1.63212e-06
1.63074e-06
1.63078e-06
1.63362e-06
1.63352e-06
1.63344e-06
1.63343e-06
1.63192e-06
1.63348e-06
1.63218e-06
1.63876e-06
2.87176e-06
1.63362e-06
1.6335e-06
1.63336e-06
1.63338e-06
1.6327e-06
1.63309e-06
1.63205e-06
1.63892e-06
2.69645e-06
6.94987e-05
1.63362e-06
1.63351e-06
1.6335e-06
1.63326e-06
1.63249e-06
1.63303e-06
1.63134e-06
1.6393e-06
2.69445e-06
7.06628e-05
0.000820216
1.63355e-06
1.63352e-06
1.63352e-06
1.63337e-06
1.63304e-06
1.63314e-06
1.63223e-06
1.64221e-06
2.64884e-06
6.65506e-05
0.00142189
0.00161462
1.63356e-06
1.63346e-06
1.63352e-06
1.63338e-06
1.63337e-06
1.63292e-06
1.63226e-06
1.64549e-06
2.59349e-06
5.81124e-05
0.00156004
0.00163058
0.00163205
1.63357e-06
1.63347e-06
1.63352e-06
1.63338e-06
1.63337e-06
1.63323e-06
1.63271e-06
1.64874e-06
2.51993e-06
4.49436e-05
0.00155595
0.00163194
0.0016323
0.00163246
1.63357e-06
1.63348e-06
1.63336e-06
1.63337e-06
1.63338e-06
1.63321e-06
1.63326e-06
1.6513e-06
2.46659e-06
3.42679e-05
0.00147642
0.00163196
0.00163195
0.0016324
0.00163255
1.63362e-06
1.6335e-06
1.63339e-06
1.63324e-06
1.63304e-06
1.6332e-06
1.63325e-06
1.65352e-06
2.44837e-06
2.54833e-05
0.0013749
0.00163164
0.00163233
0.00163211
0.00163103
1.63362e-06
1.63359e-06
1.63341e-06
1.6333e-06
1.63314e-06
1.63287e-06
1.63323e-06
1.65506e-06
2.46161e-06
2.06656e-05
0.00118958
0.00163091
0.00163181
0.00163244
0.00163207
1.63361e-06
1.63362e-06
1.63359e-06
1.6333e-06
1.63323e-06
1.63304e-06
1.63273e-06
1.65499e-06
2.49621e-06
1.92881e-05
0.000954753
0.00163108
0.00163134
0.00163212
0.00163077
1.63361e-06
1.63362e-06
1.63362e-06
1.63343e-06
1.63317e-06
1.63318e-06
1.63296e-06
1.65189e-06
2.51807e-06
1.95943e-05
0.000748621
0.00163007
0.00163196
0.00163149
0.00162984
1.63361e-06
1.63361e-06
1.63362e-06
1.63349e-06
1.63307e-06
1.63196e-06
1.63315e-06
1.64638e-06
2.50015e-06
2.04846e-05
0.000683951
0.00162993
0.00163189
0.00163166
0.00162821
1.63361e-06
1.63361e-06
1.63361e-06
1.63354e-06
1.63315e-06
1.63163e-06
1.63194e-06
1.63954e-06
2.42248e-06
2.05071e-05
0.000671225
0.0016283
0.00163286
0.0016322
0.00162867
1.6336e-06
1.63361e-06
1.63361e-06
1.6336e-06
1.63354e-06
1.63276e-06
1.63144e-06
1.63283e-06
2.299e-06
1.86327e-05
0.000640048
0.00162605
0.0016335
0.00163315
0.00162974
1.6336e-06
1.6336e-06
1.63361e-06
1.63361e-06
1.6336e-06
1.63333e-06
1.63247e-06
1.63134e-06
2.1567e-06
1.50858e-05
0.0005547
0.00162299
0.00163357
0.00163347
0.00163196
1.6336e-06
1.6336e-06
1.6336e-06
1.63361e-06
1.63361e-06
1.63337e-06
1.63333e-06
1.63228e-06
2.01393e-06
1.13541e-05
0.000417917
0.00161732
0.00163357
0.00163355
0.00163354
1.63359e-06
1.6336e-06
1.6336e-06
1.6336e-06
1.63361e-06
1.63339e-06
1.63337e-06
1.63303e-06
1.9016e-06
8.44651e-06
0.000272549
0.00160499
0.00163352
0.00163356
0.0016334
1.63359e-06
1.63359e-06
1.6336e-06
1.6336e-06
1.6336e-06
1.63338e-06
1.63339e-06
1.63289e-06
1.82499e-06
6.48933e-06
0.00015717
0.00157645
0.00163317
0.00163343
0.00163351
1.63358e-06
1.63359e-06
1.63359e-06
1.6336e-06
1.6336e-06
1.63336e-06
1.63339e-06
1.63284e-06
1.77543e-06
5.20594e-06
9.19875e-05
0.00150268
0.00163238
0.00163303
0.00163283
1.63358e-06
1.63358e-06
1.63359e-06
1.63359e-06
1.6336e-06
1.6333e-06
1.63336e-06
1.63293e-06
1.74392e-06
4.36795e-06
5.93191e-05
0.00132767
0.00163203
0.00163265
0.00163143
1.63358e-06
1.63358e-06
1.63358e-06
1.63359e-06
1.63359e-06
1.63325e-06
1.6333e-06
1.63317e-06
1.7243e-06
3.82429e-06
4.19579e-05
0.00107319
0.00163255
0.00163265
0.00163075
1.63292e-06
1.63358e-06
1.63358e-06
1.63358e-06
1.63359e-06
1.63325e-06
1.63325e-06
1.6336e-06
1.71266e-06
3.47667e-06
3.2012e-05
0.000833173
0.00162986
0.00163348
0.00163159
1.63164e-06
1.63358e-06
1.63358e-06
1.63357e-06
1.63358e-06
1.63328e-06
1.63325e-06
1.6336e-06
1.70674e-06
3.25772e-06
2.61654e-05
0.000647035
0.00162431
0.00163263
0.00163332
1.63228e-06
1.63354e-06
1.63358e-06
1.63352e-06
1.63357e-06
1.63332e-06
1.63328e-06
1.63359e-06
1.70362e-06
3.1269e-06
2.26549e-05
0.000519857
0.00161554
0.00163162
0.00163167
1.63355e-06
1.63356e-06
1.63354e-06
1.6335e-06
1.63352e-06
1.63335e-06
1.63332e-06
1.63329e-06
1.70272e-06
3.06113e-06
2.05611e-05
0.000437612
0.00160424
0.00163356
0.00162969
1.63356e-06
1.63355e-06
1.63357e-06
1.63352e-06
1.6335e-06
1.63339e-06
1.63335e-06
1.63309e-06
1.70399e-06
3.04796e-06
1.95056e-05
0.000385011
0.00159294
0.00163354
0.0016306
1.63357e-06
1.63356e-06
1.63352e-06
1.63357e-06
1.63352e-06
1.63344e-06
1.63339e-06
1.63299e-06
1.70924e-06
3.08752e-06
1.93611e-05
0.000358442
0.00158365
0.00163347
0.00162963
1.63358e-06
1.63357e-06
1.6335e-06
1.63352e-06
1.63354e-06
1.6335e-06
1.63344e-06
1.63301e-06
1.71943e-06
3.19098e-06
2.00339e-05
0.000355052
0.00157697
0.00163342
0.00162879
1.63358e-06
1.63358e-06
1.63351e-06
1.6335e-06
1.63341e-06
1.63348e-06
1.63341e-06
1.63315e-06
1.73627e-06
3.37236e-06
2.16009e-05
0.000372538
0.00157548
0.00162807
0.0016283
1.63358e-06
1.63358e-06
1.63353e-06
1.63351e-06
1.63329e-06
1.63337e-06
1.6335e-06
1.63332e-06
1.76265e-06
3.66036e-06
2.43471e-05
0.000410414
0.00157795
0.00162919
0.00162289
1.63358e-06
1.63358e-06
1.63355e-06
1.63353e-06
1.6332e-06
1.63328e-06
1.63353e-06
1.63367e-06
1.80339e-06
4.10049e-06
2.88994e-05
0.000473544
0.00158684
0.00163342
0.00162407
1.6338e-06
1.63358e-06
1.63358e-06
1.63355e-06
1.63316e-06
1.6332e-06
1.63357e-06
1.63509e-06
1.86567e-06
4.7661e-06
3.63019e-05
0.000573428
0.00159848
0.00163349
0.00162863
1.6338e-06
1.63369e-06
1.63358e-06
1.63358e-06
1.63316e-06
1.63316e-06
1.63359e-06
1.63918e-06
1.95549e-06
5.78784e-06
4.87501e-05
0.000718352
0.00161029
0.00163353
0.00162938
1.6338e-06
1.63369e-06
1.63359e-06
1.63358e-06
1.63316e-06
1.63316e-06
1.63363e-06
1.64683e-06
2.07455e-06
7.46743e-06
7.17035e-05
0.000918383
0.0016203
0.0016313
0.00163031
1.63379e-06
1.63366e-06
1.63358e-06
1.63358e-06
1.63312e-06
1.63316e-06
1.63376e-06
1.65786e-06
2.23392e-06
1.02805e-05
0.000117499
0.00116243
0.00162759
0.00163244
0.00162911
1.63323e-06
1.63366e-06
1.63349e-06
1.63356e-06
1.6334e-06
1.63312e-06
1.634e-06
1.6736e-06
2.43907e-06
1.4537e-05
0.000200584
0.00137605
0.00162967
0.00163357
0.00163135
1.63322e-06
1.63301e-06
1.63349e-06
1.6333e-06
1.63342e-06
1.63341e-06
1.63441e-06
1.69464e-06
2.69802e-06
2.06636e-05
0.000325005
0.00150622
0.00162948
0.00163246
0.00163356
1.63521e-06
1.63219e-06
1.63308e-06
1.63303e-06
1.63306e-06
1.63331e-06
1.63289e-06
1.7211e-06
3.0234e-06
2.92856e-05
0.000482344
0.00156723
0.00162896
0.0016316
0.00162933
1.75276e-06
1.63587e-06
1.63249e-06
1.63295e-06
1.63277e-06
1.63325e-06
1.63286e-06
1.63288e-06
3.42788e-06
4.14275e-05
0.000657689
0.00159598
0.00162869
0.00163036
0.00162597
3.91551e-06
1.81056e-06
1.63802e-06
1.63291e-06
1.63284e-06
1.63344e-06
1.63309e-06
1.633e-06
1.63203e-06
5.81128e-05
0.000839941
0.00160995
0.00162936
0.00162838
0.00162309
7.99884e-05
4.88047e-06
1.88491e-06
1.64095e-06
1.63295e-06
1.63359e-06
1.63352e-06
1.63333e-06
1.63244e-06
1.62791e-06
0.00100749
0.00161991
0.00163003
0.0016287
0.00162021
0.0011669
0.000134444
6.24193e-06
1.93832e-06
1.64369e-06
1.63356e-06
1.63358e-06
1.6336e-06
1.63217e-06
1.6322e-06
1.62664e-06
0.0016242
0.00163036
0.00162912
0.00161976
0.00162621
0.00139492
0.000206029
7.27865e-06
1.97782e-06
1.64591e-06
1.63366e-06
1.63335e-06
1.63353e-06
1.6308e-06
1.63102e-06
1.62652e-06
0.001631
0.0016296
0.00161977
0.00163115
0.00163047
0.00149893
0.000249176
7.95271e-06
1.98895e-06
1.65166e-06
1.63371e-06
1.63236e-06
1.63192e-06
1.62891e-06
1.63039e-06
1.63357e-06
1.63004e-06
0.0016321
0.00162017
0.00163242
0.00163219
0.00163064
0.00152771
0.00027052
7.89468e-06
2.01601e-06
1.65573e-06
1.63336e-06
1.63245e-06
1.62973e-06
1.63106e-06
1.63359e-06
1.63223e-06
1.63354e-06
1.62799e-06
0.00162248
0.00162368
0.00163315
0.00163296
0.00163211
0.00153621
0.000253028
7.74846e-06
2.02162e-06
1.65782e-06
1.63052e-06
1.63324e-06
1.63263e-06
1.6336e-06
1.6324e-06
1.6316e-06
1.63311e-06
1.63084e-06
1.61987e-06
0.00162441
0.00163357
0.00163323
0.00163313
0.00153335
0.000219289
7.33753e-06
2.04674e-06
1.63941e-06
1.631e-06
1.63359e-06
1.6336e-06
1.62998e-06
1.63209e-06
1.63203e-06
1.63218e-06
1.6327e-06
1.62657e-06
1.61107e-06
0.00162752
0.00163356
0.00163348
0.00163249
0.00153261
0.00019518
7.33147e-06
1.94067e-06
1.62972e-06
1.63301e-06
1.6336e-06
1.63063e-06
1.62986e-06
1.63083e-06
1.63187e-06
1.63181e-06
1.63193e-06
1.63137e-06
1.63055e-06
1.60468e-06
0.00163101
0.00163356
0.00163279
0.00163188
0.00155284
0.000161873
8.30609e-06
1.73821e-06
1.63117e-06
1.6336e-06
1.6336e-06
1.63057e-06
1.633e-06
1.63036e-06
1.63744e-06
1.6318e-06
1.63177e-06
1.63182e-06
1.63143e-06
1.63225e-06
1.62096e-06
0.00163337
0.00163355
0.00163213
0.00163203
0.00158401
0.000179253
7.62262e-06
1.63532e-06
1.6336e-06
1.6336e-06
1.63358e-06
1.6324e-06
1.63233e-06
1.63178e-06
1.58491e-06
1.63432e-06
1.58494e-06
1.58452e-06
1.58449e-06
1.62923e-06
1.62677e-06
1.63146e-06
1.63044e-06
1.63251e-06
1.63352e-06
0.0016325
0.00163353
0.00163201
0.0016318
0.00161581
0.000318277
4.40503e-06
1.63892e-06
1.63342e-06
1.63228e-06
1.63352e-06
1.63108e-06
1.63147e-06
1.63469e-06
1.58635e-06
1.58219e-06
1.62971e-06
1.58635e-06
1.58178e-06
1.58199e-06
1.5822e-06
1.57823e-06
1.57818e-06
1.62486e-06
1.63106e-06
1.63017e-06
1.62813e-06
1.63153e-06
1.63352e-06
0.00163142
0.00163205
0.00162951
0.00162749
0.0016259
0.000693225
3.37309e-06
1.63928e-06
1.63269e-06
1.63003e-06
1.63243e-06
1.63087e-06
1.63851e-06
1.58742e-06
1.58754e-06
1.59514e-06
1.59523e-06
1.57974e-06
1.59633e-06
1.63245e-06
1.64243e-06
1.57974e-06
1.58669e-06
1.58669e-06
1.59677e-06
1.58614e-06
1.5867e-06
1.63099e-06
1.62851e-06
1.62843e-06
1.62839e-06
1.63148e-06
1.63352e-06
0.0016299
0.00162958
0.001625
0.00162349
0.00162111
0.000684957
3.09998e-06
1.63588e-06
1.63284e-06
1.62723e-06
1.63284e-06
1.63612e-06
1.58694e-06
1.58674e-06
1.5873e-06
1.5872e-06
1.60083e-06
1.60082e-06
1.59793e-06
1.59794e-06
1.59809e-06
1.37511e-06
1.48297e-06
1.38046e-06
1.47326e-06
1.63398e-06
1.63984e-06
1.58925e-06
1.58955e-06
1.59759e-06
1.59762e-06
1.59811e-06
1.59431e-06
1.59432e-06
1.37562e-06
1.4825e-06
1.38067e-06
1.47358e-06
1.38159e-06
1.46457e-06
1.3971e-06
1.47964e-06
1.38371e-06
1.4812e-06
1.39713e-06
1.4802e-06
1.62887e-06
1.63174e-06
1.62968e-06
1.63047e-06
1.63117e-06
1.63351e-06
0.00162755
0.0016297
0.00162445
0.00160431
0.00160167
0.000217975
2.74173e-06
1.63755e-06
1.6335e-06
1.62914e-06
1.63882e-06
1.58027e-06
1.5803e-06
1.58584e-06
1.58584e-06
1.59383e-06
1.59394e-06
1.59095e-06
1.59105e-06
1.50621e-06
1.45666e-06
1.44184e-06
1.47598e-06
1.42013e-06
1.40242e-06
1.47661e-06
1.50636e-06
1.44185e-06
1.47813e-06
1.42013e-06
1.4021e-06
1.49995e-06
1.3889e-06
1.50053e-06
1.39377e-06
1.50104e-06
1.38912e-06
1.50189e-06
1.39382e-06
1.37674e-06
1.47628e-06
1.37691e-06
1.45799e-06
1.40844e-06
1.5032e-06
1.41357e-06
1.49728e-06
1.63391e-06
1.63498e-06
1.60215e-06
1.60217e-06
1.6082e-06
1.60824e-06
1.61054e-06
1.61083e-06
1.60492e-06
1.60524e-06
1.38347e-06
1.48389e-06
1.38354e-06
1.46595e-06
1.36406e-06
1.46696e-06
1.36891e-06
1.44896e-06
1.36281e-06
1.46733e-06
1.36737e-06
1.44907e-06
1.4087e-06
1.50313e-06
1.41355e-06
1.49734e-06
1.39772e-06
1.49711e-06
1.3997e-06
1.49837e-06
1.63175e-06
1.63174e-06
1.63184e-06
1.6302e-06
1.63227e-06
1.63349e-06
0.00162422
0.00163177
0.00159718
0.00159066
0.00127847
0.000341172
3.15421e-06
1.63997e-06
1.63304e-06
1.6394e-06
1.58428e-06
1.58478e-06
1.5898e-06
1.58978e-06
1.59138e-06
1.59143e-06
1.59268e-06
1.5928e-06
1.49218e-06
1.37977e-06
1.48816e-06
1.372e-06
1.49704e-06
1.37993e-06
1.48861e-06
1.37196e-06
1.47222e-06
1.35577e-06
1.47818e-06
1.35584e-06
1.47128e-06
1.35558e-06
1.47716e-06
1.35493e-06
1.4878e-06
1.09219e-06
1.04235e-06
1.32449e-06
1.35851e-06
1.3651e-06
1.49145e-06
1.10461e-06
1.32567e-06
1.05641e-06
1.36286e-06
1.36509e-06
1.49278e-06
1.38701e-06
1.43796e-06
1.34478e-06
1.49367e-06
1.38697e-06
1.4399e-06
1.34473e-06
1.40232e-06
1.50573e-06
1.40858e-06
1.49262e-06
1.4733e-06
1.5238e-06
1.43382e-06
1.56703e-06
1.63251e-06
1.63653e-06
1.60778e-06
1.60772e-06
1.60913e-06
1.60917e-06
1.61334e-06
1.61317e-06
1.61727e-06
1.61733e-06
1.52672e-06
1.42907e-06
1.52538e-06
1.42082e-06
1.52627e-06
1.42909e-06
1.52583e-06
1.42036e-06
1.54496e-06
1.47706e-06
1.43336e-06
1.52931e-06
1.41787e-06
1.38399e-06
1.54483e-06
1.47669e-06
1.4338e-06
1.52952e-06
1.41771e-06
1.38339e-06
1.40254e-06
1.50573e-06
1.40856e-06
1.49294e-06
1.3903e-06
1.47546e-06
1.39037e-06
1.47568e-06
1.47322e-06
1.52358e-06
1.43371e-06
1.56661e-06
1.42161e-06
1.50074e-06
1.42172e-06
1.51256e-06
1.6317e-06
1.63176e-06
1.63189e-06
1.63138e-06
1.63257e-06
1.63348e-06
0.00161909
0.00162299
0.00157481
0.000938559
0.000347404
0.000272895
3.79683e-06
1.65998e-06
1.63283e-06
1.59351e-06
1.59348e-06
1.59994e-06
1.59991e-06
1.57975e-06
1.57979e-06
1.57968e-06
1.57969e-06
1.46638e-06
1.35259e-06
1.46413e-06
1.35443e-06
1.46618e-06
1.35243e-06
1.46409e-06
1.35439e-06
1.47189e-06
1.36357e-06
1.4638e-06
1.35874e-06
1.47196e-06
1.36343e-06
1.46368e-06
1.3587e-06
1.48696e-06
1.38349e-06
1.45859e-06
1.35225e-06
1.49418e-06
1.38342e-06
1.45834e-06
1.35209e-06
1.49795e-06
1.3879e-06
1.49942e-06
1.38101e-06
1.49821e-06
1.38784e-06
1.49921e-06
1.38003e-06
1.39423e-06
1.50105e-06
1.41064e-06
1.48189e-06
1.63247e-06
1.62954e-06
1.60417e-06
1.60414e-06
1.61042e-06
1.61036e-06
1.60763e-06
1.60803e-06
1.61118e-06
1.61222e-06
1.51206e-06
1.45634e-06
1.55063e-06
1.48125e-06
1.51521e-06
1.45388e-06
1.55073e-06
1.48102e-06
1.54409e-06
1.44623e-06
1.54613e-06
1.4676e-06
1.54359e-06
1.44584e-06
1.54676e-06
1.4677e-06
1.49464e-06
1.40537e-06
1.48813e-06
1.38845e-06
1.49454e-06
1.40405e-06
1.4884e-06
1.38742e-06
1.51708e-06
1.336e-06
1.25295e-06
1.41221e-06
1.47859e-06
1.37307e-06
1.51617e-06
1.33637e-06
1.25336e-06
1.41189e-06
1.47872e-06
1.37244e-06
1.39405e-06
1.50107e-06
1.41061e-06
1.48179e-06
1.44732e-06
1.54894e-06
1.44684e-06
1.54798e-06
1.6317e-06
1.63181e-06
1.63198e-06
1.63177e-06
1.63309e-06
1.63347e-06
0.00161031
0.00161632
0.000977564
0.000210592
7.45837e-05
5.39781e-05
5.56348e-06
1.78697e-06
1.63811e-06
1.58339e-06
1.5834e-06
1.58367e-06
1.58345e-06
1.6009e-06
1.6009e-06
1.60006e-06
1.60007e-06
1.47326e-06
1.37613e-06
1.47341e-06
1.37618e-06
1.47303e-06
1.37593e-06
1.473e-06
1.376e-06
1.45681e-06
1.35802e-06
1.4665e-06
1.36044e-06
1.4557e-06
1.35775e-06
1.46605e-06
1.36018e-06
1.2431e-06
1.17161e-06
1.24259e-06
1.17152e-06
1.63296e-06
1.63391e-06
1.60249e-06
1.6022e-06
1.59719e-06
1.59696e-06
1.6113e-06
1.61129e-06
1.61239e-06
1.61234e-06
1.55235e-06
1.47825e-06
1.54508e-06
1.48984e-06
1.55083e-06
1.47711e-06
1.54514e-06
1.49118e-06
1.55059e-06
1.50821e-06
1.54566e-06
1.47114e-06
1.55267e-06
1.50998e-06
1.54795e-06
1.47376e-06
1.52954e-06
1.51706e-06
1.56815e-06
1.50192e-06
1.53288e-06
1.51703e-06
1.56794e-06
1.50173e-06
1.50955e-06
1.40481e-06
1.56494e-06
1.48864e-06
1.5093e-06
1.40419e-06
1.56517e-06
1.48864e-06
1.6317e-06
1.6319e-06
1.63209e-06
1.63233e-06
1.63313e-06
1.63346e-06
0.00160819
0.00136678
0.000410269
0.000107621
3.38459e-05
2.36341e-05
1.42975e-05
2.25417e-06
1.58285e-06
1.58342e-06
1.72058e-06
1.72078e-06
1.60207e-06
1.6021e-06
1.57306e-06
1.57321e-06
1.39394e-06
1.47522e-06
1.39783e-06
1.49336e-06
1.39393e-06
1.47643e-06
1.39851e-06
1.49555e-06
1.38769e-06
1.45541e-06
1.37802e-06
1.4759e-06
1.38779e-06
1.4674e-06
1.37841e-06
1.47824e-06
1.44631e-06
1.35104e-06
1.45814e-06
1.3676e-06
1.44583e-06
1.35089e-06
1.45783e-06
1.36653e-06
1.49904e-06
1.39374e-06
1.5006e-06
1.40189e-06
1.49729e-06
1.392e-06
1.49847e-06
1.39759e-06
1.6321e-06
1.63563e-06
1.62409e-06
1.60121e-06
1.60288e-06
1.60841e-06
1.60841e-06
1.61059e-06
1.61278e-06
1.61706e-06
1.61693e-06
1.57137e-06
1.51377e-06
1.56543e-06
1.51792e-06
1.57103e-06
1.51597e-06
1.56738e-06
1.51849e-06
1.56696e-06
1.52923e-06
1.55558e-06
1.52537e-06
1.56943e-06
1.52885e-06
1.55807e-06
1.52431e-06
1.43602e-06
1.41974e-06
1.43573e-06
1.41993e-06
1.6318e-06
1.63205e-06
1.63215e-06
1.63146e-06
1.63322e-06
1.63348e-06
0.00159669
0.000939377
0.000450733
0.000168162
2.90636e-05
1.60018e-05
1.91294e-05
3.54607e-06
1.56967e-06
1.56925e-06
1.87158e-06
1.87152e-06
1.45876e-06
1.37291e-06
1.389e-06
1.48727e-06
1.46801e-06
1.3733e-06
1.38914e-06
1.4875e-06
1.60055e-06
1.60041e-06
1.38934e-06
1.3694e-06
1.37772e-06
1.46305e-06
1.3893e-06
1.3775e-06
1.37514e-06
1.47047e-06
1.41938e-06
1.46317e-06
1.39409e-06
1.5029e-06
1.41937e-06
1.47783e-06
1.3945e-06
1.50524e-06
1.32207e-06
1.26745e-06
1.32248e-06
1.26419e-06
1.6317e-06
1.63252e-06
1.63043e-06
1.58206e-06
1.58206e-06
1.59197e-06
1.59288e-06
1.60983e-06
1.60986e-06
1.59626e-06
1.60027e-06
1.52623e-06
1.543e-06
1.51733e-06
1.57533e-06
1.52658e-06
1.54953e-06
1.51854e-06
1.5749e-06
1.50883e-06
1.57948e-06
1.51596e-06
1.58297e-06
1.50939e-06
1.57987e-06
1.5174e-06
1.58342e-06
1.56854e-06
1.53186e-06
1.588e-06
1.53477e-06
1.56699e-06
1.5334e-06
1.58751e-06
1.53464e-06
1.55785e-06
1.5181e-06
1.57941e-06
1.5353e-06
1.55877e-06
1.51802e-06
1.5787e-06
1.53493e-06
1.63199e-06
1.63215e-06
1.63037e-06
1.63142e-06
1.63338e-06
0.00153712
0.000930769
0.000969366
0.000321521
4.28743e-05
1.74849e-05
1.34705e-05
4.47229e-06
4.47949e-06
6.8349e-06
6.83989e-06
1.3885e-06
1.3789e-06
1.53335e-06
1.40082e-06
1.39058e-06
1.3794e-06
1.53778e-06
1.40107e-06
2.19218e-06
2.1893e-06
1.45424e-06
1.37361e-06
1.37904e-06
1.47234e-06
1.46504e-06
1.3739e-06
1.37899e-06
1.47227e-06
1.47488e-06
1.39676e-06
1.49804e-06
1.41663e-06
1.4802e-06
1.39708e-06
1.49854e-06
1.41672e-06
1.37642e-06
1.50293e-06
1.40282e-06
1.45298e-06
1.37647e-06
1.50591e-06
1.39518e-06
1.45328e-06
1.6319e-06
1.6303e-06
1.62912e-06
1.61571e-06
1.59879e-06
1.59857e-06
1.57389e-06
1.57819e-06
1.58727e-06
1.58783e-06
1.5048e-06
1.49413e-06
1.43077e-06
1.47721e-06
1.52138e-06
1.49528e-06
1.43214e-06
1.48116e-06
1.55135e-06
1.57534e-06
1.543e-06
1.59069e-06
1.55353e-06
1.57675e-06
1.54368e-06
1.59242e-06
1.53749e-06
1.56727e-06
1.50902e-06
1.58899e-06
1.5381e-06
1.56768e-06
1.50922e-06
1.5905e-06
1.45484e-06
1.52321e-06
1.44852e-06
1.52365e-06
1.63214e-06
1.63061e-06
1.62626e-06
1.63289e-06
0.00149401
0.00131989
0.00144773
0.000682292
0.000168561
2.89934e-05
7.16877e-06
7.09937e-06
6.14472e-06
6.16873e-06
6.13431e-06
6.10016e-06
1.20023e-05
1.16117e-05
1.51711e-06
1.37134e-06
1.73456e-06
1.39206e-06
1.5209e-06
1.37114e-06
1.73955e-06
1.39137e-06
1.69167e-06
2.94567e-06
2.17819e-06
2.18281e-06
1.69231e-06
2.96017e-06
2.17128e-06
2.18692e-06
1.51254e-06
1.41263e-06
1.42436e-06
1.51486e-06
1.51418e-06
1.41382e-06
1.42549e-06
1.51292e-06
1.49987e-06
1.42303e-06
1.45547e-06
1.41324e-06
1.50627e-06
1.42296e-06
1.45459e-06
1.41323e-06
1.63209e-06
1.63178e-06
1.62871e-06
1.61436e-06
1.55782e-06
1.56097e-06
1.58004e-06
1.58002e-06
1.56055e-06
1.56121e-06
1.45212e-06
1.41166e-06
1.37826e-06
1.3715e-06
1.47202e-06
1.41381e-06
1.38112e-06
1.37266e-06
1.47292e-06
1.43449e-06
1.52043e-06
1.47011e-06
1.52617e-06
1.47243e-06
1.47438e-06
1.43759e-06
1.52168e-06
1.47167e-06
1.52451e-06
1.47331e-06
1.57033e-06
1.51088e-06
1.57022e-06
1.51119e-06
1.52261e-06
1.56859e-06
1.52426e-06
1.56704e-06
1.52337e-06
1.57019e-06
1.52546e-06
1.56777e-06
1.63076e-06
1.62716e-06
1.62876e-06
0.00151831
0.00156917
0.00158647
0.00149653
0.000755102
3.51286e-05
5.53803e-06
5.2728e-06
5.61388e-06
5.58749e-06
9.66766e-06
3.14075e-06
6.35697e-06
1.81998e-05
1.06482e-05
2.25641e-06
3.14918e-06
9.38651e-06
2.24535e-06
6.06077e-06
1.76555e-05
1.03277e-05
1.52755e-05
7.42803e-06
2.07783e-05
1.96669e-05
1.38537e-05
6.87121e-06
2.07559e-05
1.93146e-05
1.64457e-06
1.36433e-06
1.80824e-06
1.41529e-06
1.63879e-06
1.36397e-06
1.80679e-06
1.41431e-06
1.56373e-06
2.33326e-06
1.57329e-06
2.34395e-06
1.35583e-06
1.364e-06
1.35572e-06
1.35593e-06
1.47487e-06
1.35262e-06
1.46589e-06
1.3522e-06
1.63045e-06
1.63199e-06
1.63181e-06
1.63234e-06
1.56646e-06
1.56599e-06
1.54924e-06
1.5516e-06
1.54998e-06
1.55148e-06
1.54779e-06
1.54898e-06
1.35153e-06
1.34013e-06
1.33705e-06
1.41146e-06
1.43828e-06
1.39016e-06
1.3553e-06
1.34265e-06
1.33858e-06
1.41187e-06
1.43862e-06
1.39092e-06
1.5167e-06
1.43199e-06
1.51799e-06
1.43305e-06
1.51185e-06
1.43638e-06
1.50186e-06
1.53545e-06
1.44193e-06
1.4895e-06
1.51213e-06
1.43796e-06
1.50312e-06
1.53473e-06
1.44222e-06
1.49093e-06
1.56548e-06
1.51013e-06
1.56688e-06
1.51162e-06
1.62833e-06
1.62944e-06
0.00154668
0.00161706
0.00160233
0.00156568
0.00133438
2.67326e-05
2.71194e-05
0.000162828
0.000163077
3.85337e-06
3.80322e-06
5.57219e-06
5.50601e-06
3.71956e-06
1.66359e-05
6.29268e-06
2.20491e-06
1.98175e-05
1.84108e-05
3.70341e-06
1.60735e-05
2.18742e-06
6.00377e-06
1.98175e-05
1.83024e-05
1.72879e-05
9.0565e-06
2.10016e-05
2.00073e-05
1.65796e-05
8.68808e-06
2.1016e-05
2.0092e-05
1.82452e-06
1.10987e-06
1.82638e-06
1.11368e-06
1.62808e-06
1.63036e-06
1.63188e-06
1.63266e-06
1.62255e-06
1.57097e-06
1.57065e-06
1.58188e-06
1.58186e-06
1.27769e-06
1.2844e-06
1.36125e-06
1.31363e-06
1.27017e-06
1.28538e-06
1.35862e-06
1.31907e-06
1.32406e-06
1.38028e-06
1.24813e-06
1.36537e-06
1.32044e-06
1.36166e-06
1.32451e-06
1.38168e-06
1.25206e-06
1.3669e-06
1.32386e-06
1.36259e-06
1.31283e-06
1.39157e-06
1.37979e-06
1.42073e-06
1.313e-06
1.38934e-06
1.38065e-06
1.41862e-06
1.4917e-06
1.42517e-06
1.49286e-06
1.42584e-06
1.43374e-06
1.37846e-06
1.50122e-06
1.31718e-06
1.43528e-06
1.37918e-06
1.50192e-06
1.31742e-06
1.63045e-06
0.00155121
0.00162429
0.00160115
0.00144409
0.000816378
6.02108e-05
6.26115e-05
0.000516299
0.000518698
2.6407e-06
4.10451e-06
2.56708e-06
3.5476e-06
2.63112e-06
4.5839e-06
2.57851e-06
3.58011e-06
6.91621e-06
6.78174e-06
1.16013e-05
3.40544e-06
2.06961e-05
1.20633e-05
1.44548e-05
4.74159e-06
2.12038e-05
1.8336e-05
1.62848e-06
1.62902e-06
1.6299e-06
1.63183e-06
1.63503e-06
1.53337e-06
1.53436e-06
1.53429e-06
1.52707e-06
1.54393e-06
1.54543e-06
1.5168e-06
1.51665e-06
1.30498e-06
1.32356e-06
1.42718e-06
1.32115e-06
1.29586e-06
1.32509e-06
1.42906e-06
1.32121e-06
1.40711e-06
1.29727e-06
1.27902e-06
1.23499e-06
1.35618e-06
1.27199e-06
1.40766e-06
1.28627e-06
1.23507e-06
1.27934e-06
1.35138e-06
1.27176e-06
1.34244e-06
1.41147e-06
1.34297e-06
1.41249e-06
0.00156352
0.00162838
0.0016034
0.00111247
0.000983008
0.000980825
0.000897091
0.000853013
0.000134214
0.000138783
0.000934999
0.000932896
2.67123e-06
3.53284e-06
2.58725e-06
3.60903e-06
2.67276e-06
3.59066e-06
2.59939e-06
3.63028e-06
1.98808e-05
1.91295e-05
5.6477e-06
4.2621e-06
1.96757e-05
1.91343e-05
5.57947e-06
4.22512e-06
5.4276e-06
2.49134e-06
5.91072e-06
2.73934e-06
1.62036e-06
1.63013e-06
1.63163e-06
1.63118e-06
1.62449e-06
1.53868e-06
1.53918e-06
1.54432e-06
1.54472e-06
1.48905e-06
1.49132e-06
1.28162e-06
1.31545e-06
1.28877e-06
1.23255e-06
1.28212e-06
1.3122e-06
1.28879e-06
1.23322e-06
1.36169e-06
1.30449e-06
1.41366e-06
1.33604e-06
1.3568e-06
1.30756e-06
1.41821e-06
1.33654e-06
0.00158032
0.0016305
0.00158032
0.00104893
0.000987147
0.000904683
0.000832944
0.000804873
2.20507e-05
3.226e-05
0.000483807
0.000205602
0.000194789
0.00099335
2.1835e-05
3.24127e-05
0.000502458
0.000212164
0.000200729
0.00102349
0.000829602
0.000860695
2.60176e-06
3.25625e-06
2.46543e-06
3.47637e-06
2.60169e-06
3.28467e-06
2.46481e-06
3.48413e-06
7.65685e-06
9.89648e-06
7.566e-06
9.87767e-06
1.58906e-06
1.6319e-06
1.63095e-06
1.63205e-06
1.52171e-06
1.52356e-06
1.52809e-06
1.52307e-06
1.53754e-06
1.54138e-06
1.53034e-06
1.53058e-06
1.29537e-06
1.29237e-06
1.32726e-06
1.28979e-06
1.24999e-06
1.29777e-06
1.24989e-06
1.29533e-06
1.2908e-06
1.29119e-06
1.24462e-06
1.29926e-06
1.34197e-06
1.26808e-06
1.3466e-06
1.27474e-06
1.23883e-06
1.19378e-06
1.24898e-06
1.20565e-06
0.00159517
0.00163114
0.00155797
0.00101629
0.00108934
0.0015516
0.00155713
0.00102166
0.000898378
0.000828748
0.000812126
5.17379e-05
0.000110482
0.000670599
0.000632091
0.000381933
0.00103204
5.19053e-05
0.00011234
0.000673893
0.000672402
0.000391497
0.00106186
0.00126664
0.000915549
0.00130686
0.000947695
0.00122192
0.000845057
0.00126724
0.000927544
1.59776e-06
1.63127e-06
1.63109e-06
1.61925e-06
1.51199e-06
1.51333e-06
1.55634e-06
1.55765e-06
1.4902e-06
1.48989e-06
1.29268e-06
1.31741e-06
1.28368e-06
1.27884e-06
1.27651e-06
1.23733e-06
1.28406e-06
1.27802e-06
1.27657e-06
1.23673e-06
1.27566e-06
1.31829e-06
1.09988e-06
1.22282e-06
1.28789e-06
1.26217e-06
1.10343e-06
1.21762e-06
1.28757e-06
1.26429e-06
1.34271e-06
1.26905e-06
1.34457e-06
1.26974e-06
0.00161126
0.0016309
0.0015905
0.00133259
0.00137701
0.00149266
0.00149833
0.00127658
0.000749003
0.000669046
0.00129716
0.000866691
0.00112618
0.00123366
0.000677329
0.000663295
0.00126106
0.000752049
0.00108705
0.000851302
0.00092036
0.000814361
0.00110394
0.00079755
0.00111999
0.00121916
0.00097553
0.00124542
0.000847771
1.63194e-06
1.6311e-06
1.63183e-06
1.53172e-06
1.53252e-06
1.54371e-06
1.5457e-06
1.51586e-06
1.5193e-06
1.50555e-06
1.5061e-06
1.25242e-06
1.26668e-06
1.32045e-06
1.2606e-06
1.27307e-06
1.27824e-06
1.22684e-06
1.27221e-06
1.27884e-06
1.26909e-06
1.29932e-06
1.26159e-06
1.2244e-06
1.23971e-06
1.3327e-06
1.24951e-06
1.33604e-06
1.21691e-06
1.24954e-06
1.24004e-06
0.00162657
0.00162213
0.00157794
0.00148587
0.00149937
0.00146827
0.00147028
0.00114719
0.000693619
0.00069345
0.00127648
0.000728188
0.00108967
0.00114871
0.000651647
0.000681847
0.00126115
0.000699309
0.00113284
0.0014871
0.00130099
0.00147165
0.00109455
0.00149895
0.00132536
0.00148519
0.00112204
0.0011341
0.000900614
0.00117582
0.000654185
1.63179e-06
1.63161e-06
1.62811e-06
1.56262e-06
1.56353e-06
1.56627e-06
1.5698e-06
1.47629e-06
1.47719e-06
1.28749e-06
1.28166e-06
1.29538e-06
1.32158e-06
1.2618e-06
1.24086e-06
1.276e-06
1.28315e-06
1.29629e-06
1.32273e-06
1.26238e-06
1.24269e-06
1.36817e-06
1.2784e-06
1.23225e-06
1.24468e-06
1.27676e-06
1.24512e-06
1.36861e-06
1.23322e-06
0.00163007
0.00161929
0.00156946
0.00155368
0.00155236
0.00157026
0.00158252
0.0015823
0.00151729
0.00148398
0.00138507
0.00151474
0.00148553
0.00138655
0.00105423
0.000649083
0.000972154
0.000930906
0.000668609
0.0013087
0.0010712
0.000630483
0.000943129
0.000947951
0.000664224
0.00125845
0.00134628
0.00131708
0.00129173
0.00128919
1.63228e-06
1.63208e-06
1.62081e-06
1.53677e-06
1.53763e-06
1.5375e-06
1.53576e-06
1.27552e-06
1.28388e-06
1.32704e-06
1.28034e-06
1.30042e-06
1.32566e-06
1.28006e-06
1.29701e-06
1.32737e-06
1.28515e-06
1.33261e-06
1.28022e-06
1.37502e-06
1.29183e-06
1.35671e-06
1.29889e-06
1.37688e-06
1.29373e-06
1.36195e-06
1.30093e-06
1.27786e-06
1.20865e-06
1.28182e-06
1.21002e-06
0.00162586
0.00162329
0.00156908
0.00158798
0.00157004
0.00158983
0.00159221
0.00159138
0.00131026
0.00123908
0.00119899
0.00140224
0.00129534
0.00135283
0.00146423
0.00141815
0.00127152
0.00131366
0.00117867
0.00138318
0.00129644
0.00132722
0.0014595
0.00141387
0.00110855
0.00096886
0.00106198
0.00100596
0.00106525
0.00126718
0.00108829
0.00123684
1.6327e-06
1.63216e-06
1.53901e-06
1.50885e-06
1.51401e-06
1.53948e-06
1.5508e-06
1.55124e-06
1.50586e-06
1.31632e-06
1.31791e-06
1.50665e-06
1.31641e-06
1.31989e-06
1.43669e-06
1.40897e-06
1.34813e-06
1.30357e-06
1.43281e-06
1.34938e-06
1.41405e-06
1.30692e-06
1.22848e-06
1.19383e-06
1.3707e-06
1.28453e-06
1.23445e-06
1.19497e-06
1.37422e-06
1.28547e-06
0.00162706
0.00162478
0.00156303
0.0014074
0.0014519
0.0015969
0.00155897
0.00141057
0.00145845
0.00160282
0.00158783
0.0015923
0.00113201
0.0013517
0.00096281
0.00103689
0.00119416
0.00134581
0.00117218
0.00104464
0.00136045
0.00098725
0.00114543
0.00133611
0.00095275
0.000851808
0.000906816
0.000926133
1.63266e-06
1.625e-06
1.54567e-06
1.52537e-06
1.52582e-06
1.54418e-06
1.59183e-06
1.5869e-06
1.33847e-06
1.3857e-06
1.34602e-06
1.34656e-06
1.35452e-06
1.29096e-06
1.30736e-06
1.31923e-06
1.34284e-06
1.38612e-06
1.34809e-06
1.34858e-06
1.35653e-06
1.29231e-06
1.31123e-06
1.32066e-06
1.42678e-06
1.35737e-06
1.33965e-06
1.26707e-06
1.42551e-06
1.33987e-06
1.36158e-06
1.27091e-06
0.00162552
0.00160193
0.00159661
0.00159625
0.00160316
0.00160614
0.00160748
0.00151027
0.00139719
0.0014772
0.0014117
0.00148642
0.00146544
0.001497
0.00146199
0.00158477
0.00153202
0.00150103
0.00150973
0.00139487
0.00147529
0.00141113
0.00148662
0.00144545
0.00149386
0.00146072
0.0015832
0.00152894
0.00150111
0.00124954
0.00137244
0.00126027
0.0013768
0.00127598
0.00137397
0.00123319
0.00137319
1.63183e-06
1.61628e-06
1.53999e-06
1.53358e-06
1.34387e-06
1.35474e-06
1.53331e-06
1.34491e-06
1.35234e-06
1.54018e-06
1.55526e-06
1.53409e-06
1.38701e-06
1.39151e-06
1.27905e-06
1.30087e-06
1.20431e-06
1.3029e-06
1.38909e-06
1.39619e-06
1.28294e-06
1.20749e-06
1.30337e-06
1.30422e-06
1.30475e-06
1.17369e-06
1.30239e-06
1.16952e-06
0.0016291
0.00160539
0.00161687
0.00160539
0.00161658
0.00161913
0.00162198
0.0012342
0.00145369
0.00140055
0.00124225
0.0014672
0.00145577
0.0014886
0.00152864
0.00148149
0.00153141
0.00149754
0.00151545
0.00151271
0.00147367
0.00123291
0.00145199
0.00124192
0.0013996
0.00146626
0.00145615