/*--------------------------------*- C++ -*----------------------------------*\
| =========                 |                                                 |
| \\      /  F ield         | OpenFOAM: The Open Source CFD Toolbox           |
|  \\    /   O peration     | Version:  5.x                                   |
|   \\  /    A nd           | Web:      www.OpenFOAM.org                      |
|    \\/     M anipulation  |                                                 |
\*---------------------------------------------------------------------------*/
FoamFile
{
    version     2.0;
    format      ascii;
    class       volVectorField;
    location    "1.8";
    object      U;
}
// * * * * * * * * * * * * * * * * * * * * * * * * * * * * * * * * * * * * * //

dimensions      [0 1 -1 0 0 0 0];

internalField   nonuniform List<vector> 
12160
(
(0.185306 0 0.000202625)
(0.179226 0 0.00168137)
(0.185226 0 -0.00282427)
(0.183314 0 0.00332464)
(0.178899 0 -0.00456096)
(0.184487 0 -0.00197569)
(0.183393 0 0.00403194)
(0.182909 0 -0.00429996)
(0.177903 0 -0.000909777)
(0.183677 0 -0.00481028)
(0.180036 0 0.00368547)
(0.183002 0 -0.00220625)
(0.182516 0 0.00262579)
(0.175909 0 -0.00782176)
(0.181992 0 -0.00190553)
(0.176392 0 0.00326408)
(0.17937 0 -0.00107283)
(0.182934 0 0.00615145)
(0.179803 0 -0.00576626)
(0.173528 0 -0.00291556)
(0.179335 0 -0.00417994)
(0.172356 0 0.00296003)
(0.176208 0 -5.07365e-05)
(0.180061 0 0.0062359)
(0.180159 0 -0.00078021)
(0.17877 0 0.0025447)
(0.16784 0 -0.0113362)
(0.176497 0 0.00332073)
(0.16727 0 0.0029952)
(0.172434 0 0.0008071)
(0.176945 0 0.00629347)
(0.177148 0 0.00103432)
(0.179759 0 0.00787817)
(0.171897 0 -0.00725208)
(0.164413 0 -0.00365068)
(0.170437 0 0.0024801)
(0.160752 0 0.00308461)
(0.167527 0 0.00221836)
(0.173114 0 0.00669325)
(0.175686 0 0.00256685)
(0.178089 0 0.00800213)
(0.172478 0 -0.000417825)
(0.171645 0 0.00355321)
(0.146086 0 -0.0152092)
(0.104083 0 0.0223388)
(0.153276 0 0.00314949)
(0.161016 0 0.00334263)
(0.168474 0 0.00826717)
(0.172849 0 0.0041563)
(0.177409 0 0.00830999)
(0.172736 0 0.00120208)
(0.17287 0 0.00769641)
(0.151472 0 -0.00836365)
(0.087492 0 -6.98783e-05)
(-0.198589 0 -0.0808222)
(0.145571 0 0.0030729)
(0.15344 0 0.00403941)
(0.161744 0 0.00976401)
(0.168912 0 0.00709983)
(0.175058 0 0.00958653)
(0.175218 0 0.00336457)
(0.173954 0 0.00687932)
(0.155505 0 -0.00152307)
(0.10573 0 0.0031112)
(-0.183612 0 -0.02178)
(-0.0580377 0 0.151317)
(0.138396 0 0.00286644)
(0.145587 0 0.00408717)
(0.153804 0 0.0107265)
(0.162134 0 0.00987111)
(0.17085 0 0.0132888)
(0.175115 0 0.00656284)
(0.177132 0 0.00758042)
(0.162636 0 -0.00151705)
(0.136636 0 0.00238804)
(-0.254135 0 -0.026152)
(0.250236 0 0.028027)
(0.0066932 0 -0.147332)
(0.132254 0 0.00259614)
(0.138306 0 0.00360792)
(0.145548 0 0.0106626)
(0.153835 0 0.011496)
(0.163579 0 0.0170726)
(0.172005 0 0.0118145)
(0.177444 0 0.0105328)
(0.172991 0 0.00100052)
(0.15654 0 -0.00100766)
(-0.173934 0 -0.0227742)
(-0.0604313 0 -0.00593778)
(0.0913938 0 0.00301536)
(-0.0807561 0 0.0956787)
(0.126903 0 0.00229868)
(0.132112 0 0.0029552)
(0.138013 0 0.00973267)
(0.145098 0 0.0114252)
(0.154469 0 0.0193535)
(0.164748 0 0.0171001)
(0.174418 0 0.017586)
(0.178889 0 0.00715785)
(0.184543 0 0.000804251)
(-0.109846 0 -0.0228336)
(-0.0522363 0 -0.0511307)
(0.0657112 0 0.0902968)
(-0.105961 0 -0.00826767)
(0.0696715 0 -0.0455392)
(0.122242 0 0.00202421)
(0.126828 0 0.00256545)
(0.131905 0 0.00845292)
(0.137214 0 0.00996628)
(0.14484 0 0.0192936)
(0.154803 0 0.0201632)
(0.166482 0 0.0250729)
(0.179806 0 0.0170227)
(0.204352 0 0.00810518)
(0.00998395 0 -0.0200753)
(-0.0918264 0 -0.0748801)
(0.056367 0 -0.00513915)
(-0.0124985 0 0.00570328)
(0.0730506 0 -0.0129199)
(-0.0543986 0 0.0184913)
(0.11693 0 0.00206538)
(0.122175 0 0.00275838)
(0.12709 0 0.0074872)
(0.13099 0 0.0079523)
(0.136384 0 0.0172479)
(0.144056 0 0.0198593)
(0.155059 0 0.0296255)
(0.17325 0 0.0268018)
(0.217899 0 0.0199827)
(0.115823 0 -0.0096777)
(-0.07858 0 -0.0861129)
(0.0374078 0 -0.0268365)
(0.0251879 0 -0.0420077)
(0.0393701 0 0.0446335)
(-0.0764203 0 -0.0146891)
(0.109888 0 0.00246155)
(0.117033 0 0.00391009)
(0.12291 0 0.0072532)
(0.12628 0 0.00651103)
(0.130241 0 0.0143586)
(0.134794 0 0.0167615)
(0.14266 0 0.029569)
(0.161311 0 0.0325452)
(0.220412 0 0.0315325)
(0.192967 0 0.0101782)
(-0.0721169 0 -0.0689392)
(0.0291346 0 -0.0441346)
(0.0129817 0 -0.050896)
(0.0171116 0 -0.0176306)
(-0.0211338 0 0.0187791)
(0.100779 0 0.00305253)
(0.110444 0 0.00562589)
(0.11824 0 0.00836754)
(0.122599 0 0.0064747)
(0.12649 0 0.0121801)
(0.128409 0 0.0123824)
(0.132255 0 0.0255859)
(0.147481 0 0.0318788)
(0.213862 0 0.0382451)
(0.230258 0 0.030061)
(-0.0138082 0 -0.034702)
(0.0204999 0 -0.0507333)
(0.00930179 0 -0.0621916)
(0.0044936 0 -0.0302154)
(0.00166599 0 -0.0277581)
(0.0889541 0 0.00378284)
(0.10156 0 0.00779761)
(0.111949 0 0.0109482)
(0.118849 0 0.00856203)
(0.124007 0 0.0117123)
(0.12508 0 0.00889437)
(0.125783 0 0.0197145)
(0.135468 0 0.0258496)
(0.201488 0 0.0373759)
(0.236851 0 0.0428414)
(0.071033 0 0.0110202)
(0.0174127 0 -0.0559048)
(-0.00261151 0 -0.0507272)
(-0.000272837 0 -0.0493796)
(0.0044381 0 -0.0350402)
(0.0743342 0 0.00453514)
(0.0898362 0 0.0102703)
(0.103312 0 0.0145195)
(0.113591 0 0.0123829)
(0.121275 0 0.0137495)
(0.123485 0 0.0080281)
(0.123775 0 0.0150415)
(0.127597 0 0.0171087)
(0.189157 0 0.0307002)
(0.227636 0 0.0449786)
(0.121954 0 0.0444012)
(0.0232738 0 -0.0318046)
(-0.0103148 0 -0.0351524)
(-0.00769402 0 -0.049161)
(0.00373351 0 -0.0499495)
(0.0571772 0 0.00521201)
(0.075192 0 0.0127525)
(0.0916857 0 0.0186456)
(0.105614 0 0.0175379)
(0.116697 0 0.0187068)
(0.122484 0 0.0107919)
(0.124484 0 0.0137876)
(0.124446 0 0.00963739)
(0.179901 0 0.0211427)
(0.216001 0 0.0373953)
(0.150268 0 0.0548476)
(0.0499072 0 0.00599318)
(-0.0171383 0 -0.00903604)
(-0.0128724 0 -0.0429779)
(0.000533282 0 -0.0457423)
(0.0380479 0 0.00573834)
(0.0579001 0 0.0149553)
(0.0769485 0 0.0228054)
(0.0942799 0 0.0234626)
(0.109276 0 0.0257874)
(0.119943 0 0.0172436)
(0.125457 0 0.016631)
(0.124438 0 0.00635651)
(0.175207 0 0.0136951)
(0.217602 0 0.0244706)
(0.167934 0 0.0442878)
(0.0843421 0 0.0230169)
(-0.0103507 0 0.0103886)
(-0.0155913 0 -0.0231)
(-0.000907964 0 -0.03774)
(0.0177222 0 0.00605173)
(0.0385498 0 0.0166333)
(0.0593748 0 0.0265111)
(0.0794849 0 0.0294413)
(0.0981863 0 0.0339558)
(0.11385 0 0.0261451)
(0.124238 0 0.0239093)
(0.126389 0 0.00903495)
(0.174003 0 0.011158)
(0.237537 0 0.0126983)
(0.181054 0 0.0178736)
(0.120003 0 0.0216284)
(0.00591489 0 0.0178917)
(-0.00892433 0 -0.00100332)
(-0.00302718 0 -0.0176986)
(-0.00292537 0 0.00611417)
(0.0179464 0 0.0176182)
(0.0395806 0 0.0293523)
(0.0615318 0 0.0347648)
(0.0832143 0 0.0422131)
(0.103281 0 0.0363764)
(0.119099 0 0.0347745)
(0.127601 0 0.0184463)
(0.174818 0 0.0149467)
(0.268814 0 0.00554758)
(0.195746 0 -0.00669574)
(0.151585 0 0.00739429)
(0.0225903 0 0.0104218)
(0.000199416 0 0.00891885)
(-0.00399968 0 0.000355268)
(-0.0229842 0 0.00591604)
(-0.00300824 0 0.0178195)
(0.0184139 0 0.0310357)
(0.0410969 0 0.0388391)
(0.0646681 0 0.0495971)
(0.0881711 0 0.0467061)
(0.109141 0 0.047671)
(0.124355 0 0.033398)
(0.172655 0 0.0274644)
(0.286858 0 0.00773464)
(0.222367 0 -0.0116084)
(0.180983 0 -0.0103049)
(0.0343393 0 -0.00767508)
(0.00708105 0 0.0055486)
(-0.00292132 0 0.00821017)
(-0.0415932 0 0.00546967)
(-0.0233807 0 0.0172147)
(-0.0031703 0 0.0314004)
(0.0191099 0 0.0412494)
(0.0432901 0 0.0552833)
(0.0688891 0 0.0559237)
(0.0939885 0 0.0608584)
(0.11486 0 0.0507802)
(0.164378 0 0.0452003)
(0.286129 0 0.0218942)
(0.270781 0 0.00653432)
(0.209094 0 -0.0304499)
(0.0388209 0 -0.0243603)
(0.0106179 0 -0.00684548)
(-0.00052424 0 0.00460298)
(-0.0580323 0 0.00480916)
(-0.0422878 0 0.0158412)
(-0.0241884 0 0.0304033)
(-0.00339426 0 0.0417791)
(0.020118 0 0.0587018)
(0.046295 0 0.062989)
(0.0739626 0 0.0728299)
(0.0990324 0 0.068096)
(0.14941 0 0.0647376)
(0.270807 0 0.0455122)
(0.310532 0 0.0333507)
(0.235597 0 -0.0349519)
(0.0358327 0 -0.0309614)
(0.00991751 0 -0.0224452)
(0.000683801 0 -0.00653602)
(-0.0717351 0 0.00398864)
(-0.0589905 0 0.0137941)
(-0.0437108 0 0.0281103)
(-0.025357 0 0.0403759)
(-0.00369928 0 0.0595648)
(0.0215876 0 0.0671905)
(0.0500041 0 0.0822967)
(0.0774515 0 0.0833355)
(0.12807 0 0.0840266)
(0.245518 0 0.0708457)
(0.321202 0 0.0620845)
(0.262817 0 -0.00261443)
(0.0306449 0 -0.0227461)
(0.00378212 0 -0.0318656)
(-0.000304414 0 -0.0189458)
(-0.082316 0 0.00307287)
(-0.072902 0 0.0112008)
(-0.0609554 0 0.024686)
(-0.0457751 0 0.0371337)
(-0.0270053 0 0.0577576)
(-0.0039622 0 0.0682303)
(0.0234818 0 0.0884169)
(0.0513392 0 0.0947207)
(0.100769 0 0.101089)
(0.211404 0 0.0958692)
(0.304504 0 0.0917104)
(0.277167 0 0.0491583)
(0.031032 0 0.00567648)
(-0.00729145 0 -0.0264114)
(-0.00368163 0 -0.0252977)
(-0.0896138 0 0.00211601)
(-0.0836082 0 0.00821991)
(-0.0753053 0 0.0203559)
(-0.0638039 0 0.032277)
(-0.0487057 0 0.0534317)
(-0.0290551 0 0.0660525)
(-0.00424694 0 0.0904656)
(0.0228312 0 0.101212)
(0.0685414 0 0.113949)
(0.16885 0 0.118233)
(0.26763 0 0.121572)
(0.271075 0 0.0972897)
(0.0448207 0 0.0510965)
(-0.0171699 0 -0.00192455)
(-0.00924988 0 -0.0177547)
(-0.0936585 0 0.0011792)
(-0.0908854 0 0.00502118)
(-0.0863458 0 0.0153956)
(-0.07877 0 0.0261172)
(-0.0678733 0 0.0469145)
(-0.0524358 0 0.0608187)
(-0.0316478 0 0.087784)
(-0.00554899 0 0.102902)
(0.0328388 0 0.120998)
(0.118977 0 0.135674)
(0.215052 0 0.148974)
(0.244518 0 0.139847)
(0.0640193 0 0.104364)
(-0.0222064 0 0.0430753)
(-0.0158557 0 0.00822604)
(-0.0943907 0 0.000443612)
(-0.09473 0 0.00172281)
(-0.0938982 0 0.010102)
(-0.0901957 0 0.0190479)
(-0.0837669 0 0.0386243)
(-0.0730768 0 0.0528495)
(-0.0570848 0 0.0808356)
(-0.0330317 0 0.0998733)
(-0.00274318 0 0.123119)
(0.0633386 0 0.146568)
(0.15005 0 0.170144)
(0.200419 0 0.177029)
(0.0741084 0 0.157696)
(-0.0230045 0 0.0955607)
(-0.0204084 0 0.0479473)
(-0.092335 0 -0.000394153)
(-0.0955271 0 -0.00155119)
(-0.0979915 0 0.00480019)
(-0.0978049 0 0.0114836)
(-0.0958745 0 0.0290932)
(-0.0901441 0 0.0426196)
(-0.0794186 0 0.0703698)
(-0.0593847 0 0.0922643)
(-0.0380121 0 0.120347)
(0.000546906 0 0.149578)
(0.0769912 0 0.183561)
(0.137201 0 0.212165)
(0.0709085 0 0.207477)
(-0.0199626 0 0.149993)
(-0.0220587 0 0.096851)
(-0.0879543 0 -0.00113459)
(-0.0935351 0 -0.00430378)
(-0.0985113 0 -0.000122736)
(-0.101514 0 0.0038046)
(-0.10399 0 0.0188953)
(-0.103015 0 0.0308039)
(-0.0978097 0 0.0574197)
(-0.083897 0 0.0806337)
(-0.0732945 0 0.113434)
(-0.0626088 0 0.14689)
(-0.00314061 0 0.189551)
(0.0653679 0 0.236128)
(0.0520943 0 0.245443)
(-0.0154064 0 0.201518)
(-0.021562 0 0.148404)
(-0.0817146 0 -0.00173864)
(-0.0890232 0 -0.0066095)
(-0.0959199 0 -0.00468178)
(-0.101923 0 -0.00364415)
(-0.108171 0 0.00861571)
(-0.111336 0 0.0181191)
(-0.11158 0 0.0427337)
(-0.104243 0 0.0648516)
(-0.104442 0 0.100608)
(-0.117802 0 0.136513)
(-0.0824251 0 0.184485)
(-0.00594469 0 0.243702)
(0.024175 0 0.265229)
(-0.00970936 0 0.24358)
(-0.0188145 0 0.197229)
(-0.0741098 0 -0.00219252)
(-0.0825962 0 -0.00844721)
(-0.0909954 0 -0.00857674)
(-0.0993298 0 -0.010203)
(-0.108108 0 -0.000944744)
(-0.114839 0 0.00514883)
(-0.120579 0 0.027209)
(-0.11947 0 0.046108)
(-0.130661 0 0.0832508)
(-0.16638 0 0.119869)
(-0.155263 0 0.171889)
(-0.0693792 0 0.237981)
(0.00145907 0 0.267752)
(-0.00440868 0 0.26589)
(-0.01379 0 0.237055)
(-0.0656075 0 -0.00249598)
(-0.0747714 0 -0.00980794)
(-0.084146 0 -0.0117044)
(-0.0939123 0 -0.0156941)
(-0.104353 0 -0.00959325)
(-0.11434 0 -0.00744375)
(-0.124878 0 0.0119324)
(-0.128902 0 0.0256295)
(-0.151508 0 0.0628378)
(-0.208068 0 0.0979851)
(-0.219723 0 0.152127)
(-0.143275 0 0.215729)
(-0.0205616 0 0.266152)
(-0.000262491 0 0.270501)
(-0.00753487 0 0.259727)
(-0.0566508 0 -0.00268522)
(-0.066013 0 -0.0107013)
(-0.0758888 0 -0.0140479)
(-0.0864706 0 -0.020037)
(-0.0980488 0 -0.0168712)
(-0.110317 0 -0.0184776)
(-0.123711 0 -0.00283576)
(-0.132603 0 0.00486133)
(-0.166864 0 0.0406566)
(-0.242148 0 0.0721766)
(-0.27453 0 0.126082)
(-0.206528 0 0.183327)
(-0.0496644 0 0.252443)
(0.00184337 0 0.269134)
(-0.00187694 0 0.265707)
(-0.0476189 0 -0.00280977)
(-0.0567505 0 -0.0111801)
(-0.0666912 0 -0.0156304)
(-0.077603 0 -0.0232572)
(-0.0897216 0 -0.0226472)
(-0.102951 0 -0.0275129)
(-0.117719 0 -0.0161641)
(-0.131519 0 -0.0145319)
(-0.176716 0 0.0176647)
(-0.268483 0 0.0439175)
(-0.318084 0 0.0963448)
(-0.253865 0 0.149845)
(-0.0744275 0 0.219629)
(0.00769722 0 0.253171)
(0.00281786 0 0.262869)
(-0.0385401 0 -0.00283029)
(-0.0474258 0 -0.0113694)
(-0.0569885 0 -0.0165144)
(-0.0678042 0 -0.0254167)
(-0.0799781 0 -0.0269682)
(-0.0934449 0 -0.0344871)
(-0.108812 0 -0.0269846)
(-0.12614 0 -0.0315764)
(-0.180725 0 -0.00427418)
(-0.286508 0 0.0147021)
(-0.349228 0 0.0647052)
(-0.286181 0 0.112369)
(-0.0842333 0 0.174609)
(0.0133985 0 0.216495)
(0.00996776 0 0.244983)
(-0.0382744 0 -0.0113356)
(-0.0233988 0 -0.00259416)
(-0.0472261 0 -0.0167803)
(-0.0575252 0 -0.0265798)
(-0.0693281 0 -0.0299085)
(-0.0825527 0 -0.0396055)
(-0.0979465 0 -0.0352485)
(-0.11749 0 -0.0446605)
(-0.179104 0 -0.0220781)
(-0.293952 0 -0.0137288)
(-0.363619 0 0.0317901)
(-0.301246 0 0.069317)
(-0.0808009 0 0.123141)
(0.0194027 0 0.16812)
(0.0159917 0 0.209612)
(-0.0376645 0 -0.0165216)
(-0.0232728 0 -0.010594)
(-0.00907152 0 -0.0022161)
(-0.0472076 0 -0.0268415)
(-0.0582227 0 -0.0315334)
(-0.0707898 0 -0.0430407)
(-0.0859275 0 -0.0413707)
(-0.107651 0 -0.054035)
(-0.174544 0 -0.0354303)
(-0.28599 0 -0.0383669)
(-0.352679 0 -0.00561982)
(-0.296495 0 0.0148466)
(-0.0634709 0 0.0661958)
(0.0256995 0 0.11327)
(0.0205977 0 0.163043)
(-0.0370909 0 -0.0262654)
(-0.0225042 0 -0.0153141)
(-0.00877886 0 -0.00877939)
(0.00854593 0 -0.00185116)
(-0.0470819 0 -0.0319157)
(-0.0585923 0 -0.0448927)
(-0.0732261 0 -0.0455731)
(-0.097571 0 -0.0607383)
(-0.168804 0 -0.0452562)
(-0.258018 0 -0.0553397)
(-0.308875 0 -0.0478406)
(-0.272358 0 -0.0561105)
(-0.039177 0 0.00510544)
(0.0315393 0 0.0545602)
(0.023854 0 0.110249)
(-0.0361811 0 -0.0311095)
(-0.0214842 0 -0.024135)
(-0.00778597 0 -0.0123598)
(0.00757644 0 -0.00688131)
(0.0111953 0 -0.00369373)
(-0.0463605 0 -0.0452317)
(-0.060235 0 -0.0477895)
(-0.0877852 0 -0.0656183)
(-0.161719 0 -0.0527311)
(-0.21757 0 -0.0665517)
(-0.246491 0 -0.0801819)
(-0.241614 0 -0.11902)
(-0.0199288 0 -0.0515146)
(0.0356439 0 -0.00459094)
(0.0255809 0 0.0546387)
(-0.0343918 0 -0.0440208)
(-0.0198309 0 -0.028127)
(-0.00653026 0 -0.0194677)
(0.00790236 0 -0.00891305)
(0.00843012 0 -0.0107474)
(0.042817 0 -0.00638374)
(-0.0472709 0 -0.0479083)
(-0.0773973 0 -0.0687697)
(-0.150775 0 -0.0585917)
(-0.174187 0 -0.0761978)
(-0.190999 0 -0.0983706)
(-0.215978 0 -0.1456)
(-0.0152259 0 -0.0926342)
(0.0336375 0 -0.0568297)
(0.0249433 0 0.000157848)
(-0.0347636 0 -0.0457198)
(-0.0172106 0 -0.0397533)
(-0.00405855 0 -0.0214818)
(0.00703072 0 -0.0139247)
(0.00813227 0 -0.0143936)
(0.0343077 0 -0.0162237)
(0.0582325 0 -0.0164461)
(-0.0664135 0 -0.069735)
(-0.135749 0 -0.062994)
(-0.12974 0 -0.087102)
(-0.154278 0 -0.108789)
(-0.190851 0 -0.142117)
(-0.0200513 0 -0.115614)
(0.0244889 0 -0.0980639)
(0.0217047 0 -0.0498479)
(-0.056072 0 -0.0678372)
(-0.0174958 0 -0.0386045)
(-0.000800265 0 -0.0309181)
(0.00777154 0 -0.012973)
(0.00518396 0 -0.0188503)
(0.0281308 0 -0.0199772)
(0.0369571 0 -0.0405036)
(0.149531 0 -0.013687)
(-0.117847 0 -0.0649169)
(-0.0836538 0 -0.095507)
(-0.136644 0 -0.117101)
(-0.1641 0 -0.129305)
(-0.0253288 0 -0.125587)
(0.0133051 0 -0.123712)
(0.016959 0 -0.0885494)
(-0.102469 0 -0.0626518)
(-0.04099 0 -0.0607898)
(-0.00194344 0 -0.0265279)
(0.00929545 0 -0.0199086)
(0.00412945 0 -0.0160031)
(0.0147406 0 -0.0234275)
(0.0209424 0 -0.0574074)
(0.115816 0 -0.0628754)
(0.203119 0 -0.0433745)
(-0.0383839 0 -0.0968423)
(-0.132735 0 -0.121253)
(-0.139085 0 -0.120995)
(-0.0267385 0 -0.128777)
(0.00430035 0 -0.134669)
(0.0118876 0 -0.113074)
(-0.0109496 0 -0.0901061)
(-0.0716018 0 -0.0542986)
(-0.0236629 0 -0.0455401)
(0.00572581 0 -0.0109318)
(0.00368658 0 -0.0195842)
(0.00491219 0 -0.0176768)
(0.00164651 0 -0.0618691)
(0.070543 0 -0.0838566)
(0.162404 0 -0.0847894)
(0.353762 0 0.00671832)
(-0.133033 0 -0.109968)
(-0.118431 0 -0.117884)
(-0.0254017 0 -0.129984)
(-0.000778934 0 -0.136964)
(0.00745808 0 -0.125465)
(-0.131939 0 -0.0974547)
(0.0519657 0 -0.0901213)
(-0.0277335 0 -0.0364793)
(-0.0149387 0 -0.026253)
(-0.00162007 0 -0.00657024)
(-0.00196059 0 -0.0182283)
(-0.0131738 0 -0.0527585)
(0.0127566 0 -0.104867)
(0.107211 0 -0.144905)
(0.279203 0 -0.0385973)
(0.233325 0 0.0380864)
(-0.101555 0 -0.115868)
(-0.022909 0 -0.129189)
(-0.00328886 0 -0.134891)
(0.00408363 0 -0.129728)
(-0.0782004 0 -0.111341)
(-0.10958 0 -0.1054)
(0.152275 0 -0.0657829)
(-0.00513668 0 -0.0132638)
(-0.0202508 0 -0.0158416)
(-0.01211 0 0.00175693)
(-0.0305662 0 -0.0420596)
(-0.0360576 0 -0.0927688)
(0.0169104 0 -0.169285)
(0.192698 0 -0.108395)
(0.313335 0 0.0999891)
(0.245544 0 1.10676)
(-0.023543 0 -0.123307)
(-0.00442474 0 -0.130798)
(0.00163501 0 -0.129569)
(-0.0198694 0 -0.112912)
(-0.063512 0 -0.115189)
(-0.084585 0 -0.071541)
(0.178314 0 -0.0336654)
(-0.00470856 0 0.00256956)
(-0.0309811 0 -0.00201491)
(-0.0449677 0 -0.00807257)
(-0.0741214 0 -0.0712314)
(-0.0748268 0 -0.172914)
(0.0704323 0 -0.188322)
(0.338207 0 0.0823629)
(0.26686 0 0.937964)
(0.572536 2.00235e-27 1.4372)
(0.199967 0 1.52263)
(-0.00691428 0 -0.125353)
(-0.000132082 0 -0.126804)
(-0.00602845 0 -0.116818)
(-0.0232004 0 -0.106269)
(-0.0863215 0 -0.0809707)
(-0.0759222 0 -0.0186265)
(0.174266 0 -0.00814886)
(-0.0151438 0 0.0182458)
(-0.0603505 0 0.00141221)
(-0.0984571 0 -0.0174654)
(-0.167222 0 -0.136123)
(-0.0830057 0 -0.198597)
(0.179501 0 0.0484128)
(0.303417 0 0.737078)
(0.646893 9.8895e-28 1.28623)
(0.687221 -7.20535e-30 1.48663)
(0.4327 3.27997e-27 1.62223)
(0.106955 0 1.69335)
(-0.00141421 0 -0.12263)
(-0.00155338 0 -0.114145)
(-0.0105447 0 -0.109992)
(-0.0363072 0 -0.0684341)
(-0.0907044 0 -0.0391548)
(-0.072022 0 0.0173012)
(0.146364 0 0.0135598)
(-0.0388204 0 0.0303153)
(-0.100112 0 0.00711308)
(-0.205929 0 -0.0543133)
(-0.259445 0 -0.17028)
(-0.124072 0 -0.0265435)
(0.218412 0 0.677528)
(0.609506 0 1.13123)
(0.729937 0 1.30194)
(0.836182 3.69169e-26 1.4057)
(0.59509 -7.29707e-30 1.59754)
(0.348523 3.38817e-27 1.76092)
(0.112715 0 1.91069)
(-0.00367503 0 -0.105461)
(-0.0189365 0 -0.073674)
(-0.0375661 0 -0.0265954)
(-0.0884884 0 -0.00548354)
(-0.0732367 0 0.0497611)
(0.108636 0 0.026262)
(-0.054668 0 0.0380586)
(-0.169896 0 -0.00321505)
(-0.339112 0 -0.109236)
(-0.350878 0 -0.0804504)
(0.0946779 0 0.541665)
(0.484343 0 1.0032)
(0.719183 0 1.1747)
(0.889989 1.05893e-25 1.25942)
(0.928936 -1.03637e-29 1.31649)
(0.678309 3.34369e-26 1.49605)
(0.434925 0 1.70128)
(0.223409 0 1.87197)
(0.0462112 0 2.00408)
(-0.006754 0 -0.0691463)
(-0.0226749 0 -0.0321905)
(-0.0406504 0 0.0121271)
(-0.0904467 0 0.0256566)
(-0.087725 0 0.0565097)
(0.0934982 0 0.0259452)
(-0.0643473 0 0.0527868)
(-0.286244 0 -0.0483084)
(-0.43888 0 -0.0753733)
(-0.154172 0 0.426473)
(0.257652 0 0.78002)
(0.641183 -9.48134e-27 1.06724)
(0.840874 6.22537e-26 1.07652)
(1.06843 0 1.21566)
(1.01595 3.3892e-25 1.10757)
(0.735688 -8.85135e-30 1.39749)
(0.485005 7.07843e-26 1.56168)
(0.282539 0 1.70004)
(0.142654 0 1.89797)
(0.0436422 0 2.06324)
(-0.00842556 0 -0.0286193)
(-0.0252594 0 0.0060712)
(-0.0532642 0 0.0471309)
(-0.10277 0 0.060275)
(-0.141931 0 0.03361)
(0.140944 0 0.0516422)
(-0.161652 0 0.00799298)
(-0.358641 0 -0.0533815)
(-0.359748 0 0.281198)
(-0.0445143 0 0.636678)
(0.474101 -2.00656e-26 0.899794)
(0.788902 0 0.936978)
(1.04933 -2.05243e-25 1.08661)
(1.181 -5.79819e-25 0.985192)
(1.17652 7.01464e-10 0.930508)
(0.834706 0 1.21548)
(0.495239 0 1.44726)
(0.221882 3.75082e-26 1.54273)
(0.100547 -1.73016e-28 1.65928)
(0.0364198 0 1.89014)
(0.00311135 0 2.07938)
(-0.0103622 0 0.0114595)
(-0.0321855 0 0.0477764)
(-0.0800599 0 0.0799393)
(-0.140679 0 0.100763)
(-0.245209 0 -0.0279531)
(0.223952 0 0.122086)
(-0.364928 0 -0.0611226)
(-0.298108 0 0.143337)
(-0.12916 0 0.435586)
(0.246033 2.58807e-42 0.697376)
(0.641661 0 0.829114)
(0.935771 2.7731e-25 0.899912)
(1.23876 -2.66811e-24 0.894101)
(1.26984 -5.9743e-10 0.82799)
(1.23968 3.65998e-09 0.687436)
(0.989936 -5.58008e-10 1.01663)
(1.23675 8.83138e-10 0.687131)
(1.28472 4.37372e-09 0.665246)
(1.28228 5.74726e-10 0.666173)
(0.574479 9.35055e-25 1.34131)
(0.24003 4.23271e-25 1.47871)
(0.0348274 -8.79937e-27 1.497)
(-0.0388337 1.27166e-26 1.56185)
(-0.0314956 0 1.82248)
(-0.0311229 0 2.03482)
(-0.0144616 0 0.0545362)
(-0.0483303 0 0.097926)
(-0.132864 0 0.116903)
(-0.218484 0 0.162418)
(-0.338144 0 -0.188635)
(0.464975 0 0.0452093)
(-0.259957 0 -0.0285232)
(-0.0304459 0 0.183749)
(0.0923476 2.07979e-42 0.378054)
(0.500056 0 0.692459)
(0.793225 0 0.709778)
(1.21415 1.63641e-25 0.759215)
(1.27231 -9.25843e-25 0.665934)
(1.49819 -7.47325e-10 0.546725)
(1.17697 3.85621e-09 0.769093)
(1.28374 7.07894e-09 0.496791)
(0.829037 -2.90265e-09 1.27625)
(1.17427 9.27046e-10 0.768108)
(1.17551 3.2538e-09 0.842414)
(1.17388 6.7754e-10 0.840823)
(1.2773 3.92958e-10 0.496552)
(1.31335 6.11183e-09 0.42495)
(1.30578 1.06684e-10 0.427309)
(0.334158 2.23443e-24 1.5145)
(0.00943302 -8.98212e-25 1.5216)
(-0.128917 0 1.43646)
(-0.151492 1.17096e-26 1.48008)
(-0.130452 0 1.74174)
(-0.0573575 0 1.94775)
(-0.0216832 0 0.108904)
(-0.0851806 0 0.165706)
(-0.218305 0 0.173154)
(-0.447609 0 0.248775)
(-0.5665 0 -0.0799701)
(0.367559 0 -0.160122)
(0.0128013 0 0.0736349)
(0.101146 -1.15723e-27 0.148639)
(0.43408 6.35585e-27 0.527561)
(0.599443 6.21215e-26 0.466553)
(1.04235 0 0.634634)
(1.23829 -4.87548e-24 0.521335)
(1.54414 -5.02672e-09 0.460761)
(1.40704 -2.51593e-09 0.285402)
(1.40396 3.30906e-09 0.282414)
(1.48641 4.57506e-10 0.271185)
(1.48619 3.32619e-10 0.269161)
(1.25116 8.01349e-09 0.579855)
(1.38215 5.00675e-09 0.354921)
(0.559369 2.90974e-24 1.4536)
(1.09328 9.02338e-10 1.01064)
(1.24478 4.7646e-10 0.577935)
(1.22206 8.25085e-09 0.66301)
(1.21731 4.22347e-10 0.66014)
(1.37468 -1.41016e-09 0.352881)
(1.35416 4.01006e-09 0.277788)
(1.34908 -2.31013e-09 0.275093)
(0.0485981 -1.17028e-24 1.59394)
(-0.175212 0 1.50463)
(-0.213031 0 1.37897)
(-0.239402 1.60828e-26 1.39735)
(-0.186286 0 1.63472)
(-0.084348 0 1.83051)
(-0.0350586 0 0.184733)
(-0.156446 0 0.267206)
(-0.352598 0 0.249325)
(-0.793337 0 0.34082)
(-0.795345 0 0.498898)
(-0.295093 0 -0.138804)
(0.117863 0 0.0797533)
(0.324888 3.0127e-27 0.282015)
(0.563187 0 0.364559)
(0.869523 2.81033e-25 0.451385)
(1.13931 2.10646e-25 0.362066)
(1.49972 -2.68471e-09 0.368536)
(1.52439 -2.77718e-11 0.234464)
(1.52489 3.89755e-10 0.233832)
(1.52812 5.95699e-10 0.202348)
(1.52832 4.21276e-10 0.202333)
(1.47661 -3.08295e-09 0.0872183)
(1.47486 2.13072e-09 0.0857426)
(1.55184 -9.44469e-10 0.0986961)
(1.55103 7.56571e-10 0.0985267)
(1.38534 5.49994e-09 0.388993)
(1.51744 2.4241e-08 0.174999)
(1.30481 2.57398e-08 0.16605)
(1.48921 1.77842e-08 0.179228)
(1.36314 3.54545e-09 0.164639)
(0.164284 -3.89012e-25 1.57309)
(0.656672 -5.54056e-09 1.19678)
(1.22594 1.58721e-09 0.675973)
(1.22638 2.55139e-10 0.676473)
(1.31584 -1.15825e-08 0.595343)
(1.31526 1.45792e-08 0.597885)
(1.37881 1.35583e-10 0.387496)
(1.39956 8.1671e-09 0.483232)
(1.39515 -5.06376e-10 0.48266)
(1.5118 -9.56041e-09 0.174735)
(1.32009 -1.36522e-08 0.168583)
(1.48821 4.03197e-10 0.179517)
(1.35725 -3.50096e-09 0.165665)
(1.49608 2.64177e-08 0.132969)
(1.27652 3.04117e-08 0.150652)
(1.46381 2.36505e-08 0.0545532)
(1.3449 3.84158e-09 0.141551)
(1.4914 -1.34393e-08 0.132696)
(1.28914 -1.56535e-08 0.154808)
(1.46239 -6.71863e-09 0.0549851)
(1.33925 -3.8475e-09 0.140508)
(-0.170017 0 1.59657)
(-0.285559 -4.04114e-25 1.44743)
(-0.316208 0 1.32313)
(-0.302478 1.92443e-26 1.29231)
(-0.252773 0 1.51206)
(-0.103916 0 1.67133)
(-0.0580688 0 0.302382)
(-0.264695 0 0.411645)
(-0.611408 0 0.449116)
(-0.997186 0 0.664805)
(-1.41403 0 0.692627)
(-0.426562 0 -0.0394097)
(0.273717 0 0.122648)
(0.518972 0 0.202808)
(0.750446 3.16397e-25 0.311263)
(0.953621 1.11095e-24 0.199033)
(1.33966 -1.03076e-09 0.276166)
(1.4945 1.15431e-09 0.161419)
(1.49456 2.51502e-10 0.161517)
(1.50533 1.81234e-09 0.105343)
(1.5047 2.31067e-10 0.106276)
(1.602 -4.90488e-09 0.0575268)
(1.60304 1.51018e-09 0.0586134)
(1.61658 -6.46708e-09 0.0408787)
(1.61772 1.45836e-09 0.0408277)
(1.34513 4.52881e-09 -0.0378144)
(1.32245 3.10279e-09 0.105921)
(1.50409 4.27455e-09 -0.0598426)
(1.40341 3.95602e-09 -0.0369729)
(1.55354 4.47706e-09 -0.0258591)
(1.45178 3.55662e-09 -0.0467166)
(1.33505 -2.3923e-09 0.106822)
(1.34939 -1.05976e-09 -0.0366664)
(1.50485 -4.17453e-09 -0.0598663)
(1.40451 -2.57539e-09 -0.0364556)
(1.55336 -5.2224e-09 -0.0260133)
(1.45355 -2.94841e-09 -0.0460674)
(1.48059 4.78648e-09 -0.0532317)
(1.62302 7.56244e-09 -0.0453486)
(1.4664 3.9256e-09 -0.0446552)
(1.613 6.47958e-09 -0.0349246)
(1.48284 -3.58313e-09 -0.053788)
(1.6225 -4.97233e-09 -0.0455072)
(1.46758 -3.2495e-09 -0.0441919)
(1.6127 -5.22646e-09 -0.0347649)
(1.53928 2.55314e-08 0.232973)
(1.33723 2.50555e-08 0.21803)
(1.50978 1.74553e-08 0.227791)
(1.38811 3.62369e-09 0.22306)
(1.47164 6.70358e-10 0.0648434)
(1.37965 3.26469e-10 0.067656)
(1.46398 1.29994e-09 0.0740348)
(1.40172 5.70519e-10 0.0636599)
(-0.193791 -1.28342e-23 1.59366)
(0.195213 -3.09545e-09 1.3677)
(0.7914 7.46638e-10 0.773166)
(0.789156 -2.78369e-11 0.771586)
(0.961132 -4.93826e-10 0.643778)
(0.960567 7.27534e-11 0.643508)
(1.3029 -1.05361e-09 0.403375)
(1.30352 -6.1064e-10 0.401801)
(1.40284 -1.21421e-08 0.335323)
(1.40108 9.25129e-09 0.334799)
(1.53447 -9.69967e-09 0.23268)
(1.348 -1.3301e-08 0.21553)
(1.50764 2.82927e-10 0.22651)
(1.38376 -3.58999e-09 0.222506)
(1.5312 2.89194e-08 0.303514)
(1.32868 2.94126e-08 0.233369)
(1.50555 2.83046e-08 0.356319)
(1.3862 3.71031e-09 0.260598)
(1.52857 -1.3743e-08 0.304339)
(1.34954 -1.49012e-08 0.23534)
(1.50678 -7.34149e-09 0.356106)
(1.3865 -3.6616e-09 0.263403)
(1.46963 1.13914e-09 0.0655853)
(1.38745 -1.81224e-10 0.0694224)
(1.46501 5.9255e-10 0.0746155)
(1.39848 -2.88012e-10 0.0659284)
(1.45392 1.46918e-09 0.0583423)
(1.38378 1.06768e-09 0.0710325)
(1.45095 -5.53411e-10 0.0580375)
(1.3787 -1.09955e-09 0.0712014)
(-0.36918 -8.86404e-25 1.55497)
(-0.411667 0 1.37551)
(-0.429753 0 1.21663)
(-0.360698 0 1.1709)
(-0.276066 0 1.39997)
(-0.1374 0 1.48887)
(-0.100032 0 0.468636)
(-0.402349 0 0.623778)
(-0.814706 0 0.838761)
(-1.38585 0 1.07405)
(-2.11272 0 0.911937)
(-1.23176 0 -0.0407965)
(0.501745 0 0.0522921)
(0.675951 0 0.139411)
(0.936323 2.52538e-25 0.110503)
(1.16994 -6.47332e-10 0.145479)
(1.42943 1.75013e-09 0.0740419)
(1.42881 1.51474e-10 0.0746389)
(1.42835 2.07486e-09 0.0703377)
(1.42707 1.47376e-10 0.0711182)
(1.57393 -6.78359e-09 0.0144126)
(1.57411 2.77865e-09 0.0147403)
(1.55354 -7.01446e-09 0.0209004)
(1.55368 3.24529e-09 0.0201183)
(1.51839 4.87016e-09 -0.0827944)
(1.65365 6.51979e-09 -0.0774015)
(1.5353 7.9051e-09 -0.0890984)
(1.67048 8.40175e-09 -0.0875007)
(1.52294 -3.4461e-09 -0.0836956)
(1.65425 -5.35694e-09 -0.0774845)
(1.54699 -4.13523e-09 -0.0915747)
(1.67272 -6.27085e-09 -0.0880062)
(1.53383 1.0538e-08 -0.0852436)
(1.6633 8.84033e-09 -0.0855888)
(1.55011 9.08244e-09 -0.0941566)
(1.68323 8.75652e-09 -0.0961552)
(1.54439 -5.04001e-09 -0.0861198)
(1.66478 -5.22741e-09 -0.0856347)
(1.56254 -4.64475e-09 -0.0962541)
(1.68547 -6.13929e-09 -0.0966783)
(1.33665 1.0235e-09 0.00341755)
(1.38744 7.20221e-11 -0.0908551)
(1.4878 8.2954e-11 -0.102764)
(1.41076 1.5374e-09 -0.0877827)
(1.45566 1.2879e-10 -0.0972433)
(1.54868 5.07517e-11 -0.0995532)
(1.34838 9.0893e-11 0.00295013)
(1.39033 -3.68679e-11 -0.0893093)
(1.4134 -8.18906e-10 -0.0875578)
(1.48853 -3.37844e-11 -0.102363)
(1.45661 -2.48067e-10 -0.0981468)
(1.5486 -4.36124e-10 -0.0998501)
(1.5134 1.3069e-10 -0.12372)
(1.59527 4.05795e-10 -0.117211)
(1.50912 1.94181e-10 -0.11926)
(1.59515 4.98765e-10 -0.112248)
(1.51542 -1.90823e-10 -0.124457)
(1.59536 -2.79935e-10 -0.117451)
(1.51031 -2.07752e-10 -0.119858)
(1.59526 -4.40277e-10 -0.112394)
(1.51483 5.42105e-10 0.125623)
(1.39504 3.44103e-10 0.0959691)
(1.47599 1.21038e-09 0.10304)
(1.44701 5.63388e-10 0.114283)
(1.47972 3.07681e-10 -0.0132171)
(1.42494 4.30722e-11 -0.0101779)
(1.4678 6.09227e-10 -0.00592941)
(1.44808 1.11552e-10 -0.0137751)
(-0.520924 0 1.53904)
(-0.297146 -6.95884e-10 1.43747)
(0.326084 3.52793e-09 0.81941)
(0.323389 -2.16254e-10 0.81654)
(0.499683 1.21382e-09 0.70716)
(0.49743 -4.08936e-10 0.704829)
(0.832941 -4.57173e-09 0.504252)
(0.839247 9.59395e-10 0.502586)
(1.00794 -2.4248e-09 0.398267)
(1.01132 -2.66912e-10 0.395884)
(1.20631 7.54751e-09 0.206475)
(1.38442 6.02404e-09 0.219208)
(1.28965 5.15084e-09 0.195334)
(1.45804 4.81502e-09 0.206733)
(1.21064 -3.5707e-09 0.208385)
(1.3844 -5.43175e-09 0.219443)
(1.29279 -3.12282e-09 0.195314)
(1.4581 -5.80702e-09 0.206226)
(1.38407 2.99955e-09 0.0760292)
(1.38746 2.60259e-09 0.0873496)
(1.54233 2.23254e-09 0.122003)
(1.35404 4.43707e-09 0.156)
(1.52734 4.33588e-09 0.175185)
(1.50172 4.91025e-09 0.262076)
(1.38797 -3.18573e-09 0.0733687)
(1.40176 -2.42362e-09 0.0893495)
(1.54281 -4.61847e-09 0.12106)
(1.35573 -2.73666e-09 0.15655)
(1.52707 -6.07376e-09 0.175013)
(1.50476 -3.19978e-09 0.262218)
(1.51301 1.31837e-09 0.125185)
(1.40198 -2.60379e-10 0.0962235)
(1.4768 4.60962e-10 0.103078)
(1.44424 -3.24587e-10 0.113284)
(1.53907 1.27084e-09 0.188268)
(1.46765 1.02746e-09 0.145257)
(1.53806 4.53759e-10 0.188087)
(1.46737 -7.78057e-10 0.144774)
(1.4774 -2.90877e-10 -0.0125992)
(1.43086 1.80657e-10 -0.00883985)
(1.47 -1.91915e-10 -0.0054771)
(1.44076 -1.7794e-10 -0.0122951)
(1.47696 6.7814e-10 -0.010725)
(1.4479 1.86066e-10 -0.00510592)
(1.47511 -6.1205e-10 -0.01059)
(1.44397 -2.16778e-10 -0.00406435)
(-0.558267 -1.38591e-24 1.38222)
(-0.568997 0 1.2476)
(-0.494732 0 1.09379)
(-0.374063 0 1.052)
(-0.351678 0 1.26738)
(-0.160375 0 1.26775)
(-0.157947 0 0.684075)
(-0.492583 0 0.919927)
(-0.917966 0 1.18005)
(-1.74803 0 0.957373)
(-2.35321 0 0.768752)
(-1.36723 -1.34282e-24 -0.0986691)
(0.715891 -5.19395e-26 0.0188844)
(0.825414 -2.01836e-25 0.02619)