/*--------------------------------*- C++ -*----------------------------------*\
| =========                 |                                                 |
| \\      /  F ield         | OpenFOAM: The Open Source CFD Toolbox           |
|  \\    /   O peration     | Version:  5.x                                   |
|   \\  /    A nd           | Web:      www.OpenFOAM.org                      |
|    \\/     M anipulation  |                                                 |
\*---------------------------------------------------------------------------*/
FoamFile
{
    version     2.0;
    format      ascii;
    class       surfaceVectorField;
    location    "1.8";
    object      Uf;
}
// * * * * * * * * * * * * * * * * * * * * * * * * * * * * * * * * * * * * * //

dimensions      [0 1 -1 0 0 0 0];

internalField   nonuniform List<vector> 
30582
(
(0.179152 0 0.000948569)
(0.185266 0 -0.00127959)
(0.182686 0 0.00251031)
(0.179063 0 -0.00141378)
(0.178935 0 -0.00370033)
(0.184856 0 -0.00246512)
(0.183834 0 0.00368143)
(0.183112 0 -0.00046705)
(0.182366 0 -0.0044293)
(0.178401 0 -0.00278589)
(0.178054 0 -0.001438)
(0.184082 0 -0.00328631)
(0.181571 0 0.00385717)
(0.183197 0 0.000937996)
(0.183395 0 -0.00324381)
(0.182712 0 -0.000886263)
(0.181769 0 0.000873736)
(0.176906 0 -0.00427215)
(0.176594 0 -0.00632941)
(0.182835 0 -0.00350721)
(0.178453 0 0.0034729)
(0.179703 0 0.00131543)
(0.181014 0 -0.00163451)
(0.182968 0 0.00192512)
(0.183254 0 0.00440426)
(0.181159 0 -0.00149106)
(0.179647 0 -0.00678487)
(0.174719 0 -0.00549344)
(0.174519 0 -0.00241503)
(0.180664 0 -0.00287698)
(0.174659 0 0.00311071)
(0.1763 0 0.00162923)
(0.178034 0 -0.00055723)
(0.179716 0 0.0025726)
(0.181276 0 0.00619405)
(0.181546 0 0.00274513)
(0.180186 0 -0.00325111)
(0.179287 0 -0.00171053)
(0.178128 0 -0.000161134)
(0.170684 0 -0.00693728)
(0.170218 0 -0.00778987)
(0.177916 0 -0.000511886)
(0.170293 0 0.00297777)
(0.172395 0 0.00190905)
(0.174644 0 0.000381987)
(0.176577 0 0.00308527)
(0.178669 0 0.00626494)
(0.178605 0 0.00367276)
(0.178452 0 0.000135109)
(0.179959 0 0.00346387)
(0.179403 0 0.0052351)
(0.175334 0 -0.00222969)
(0.172156 0 -0.00927595)
(0.166127 0 -0.00771262)
(0.166998 0 -0.000195965)
(0.173467 0 0.00317199)
(0.16437 0 0.0030403)
(0.167398 0 0.00263573)
(0.170478 0 0.00151901)
(0.172774 0 0.00373022)
(0.175362 0 0.00649513)
(0.176315 0 0.00450532)
(0.176646 0 0.00180741)
(0.177619 0 0.0044348)
(0.178554 0 0.0079407)
(0.176118 0 0.00381588)
(0.171528 0 -0.00380463)
(0.171771 0 -0.00197408)
(0.1706 0 -1.66803e-05)
(0.15525 0 -0.0091535)
(0.154444 0 -0.00644317)
(0.13726 0 0.0118515)
(0.157213 0 0.00311734)
(0.160884 0 0.00324225)
(0.164676 0 0.00278549)
(0.168001 0 0.00521784)
(0.17131 0 0.00748721)
(0.172982 0 0.00550178)
(0.174621 0 0.00336863)
(0.176548 0 0.00537517)
(0.177889 0 0.00815743)
(0.175413 0 0.00471528)
(0.172148 0 0.000399314)
(0.172674 0 0.00355879)
(0.171343 0 0.00564319)
(0.161558 0 -0.0022768)
(0.151736 0 -0.011756)
(0.116789 0 -0.00807053)
(0.0928749 0 0.0110348)
(-0.0472531 0 -0.0309548)
(0.149354 0 0.00311085)
(0.153358 0 0.00362388)
(0.157464 0 0.0036941)
(0.16138 0 0.0065093)
(0.165557 0 0.00902224)
(0.168693 0 0.0077784)
(0.171485 0 0.00564116)
(0.173953 0 0.00687288)
(0.176557 0 0.00895392)
(0.176313 0 0.00594736)
(0.174066 0 0.00229295)
(0.173345 0 0.0039062)
(0.172687 0 0.00728424)
(0.164187 0 0.00300172)
(0.152255 0 -0.00491301)
(0.128601 0 -0.00248781)
(0.0991363 0 0.00153481)
(-0.0480597 0 -0.0105752)
(-0.184996 0 -0.0510386)
(-0.128313 0 0.041492)
(0.141661 0 0.00296875)
(0.145579 0 0.00361114)
(0.149462 0 0.00406351)
(0.153622 0 0.00731367)
(0.158054 0 0.0102495)
(0.161939 0 0.0099084)
(0.166113 0 0.00849779)
(0.169881 0 0.0101692)
(0.173602 0 0.0114541)
(0.175086 0 0.00816492)
(0.175465 0 0.00497789)
(0.176175 0 0.00534668)
(0.175461 0 0.00723299)
(0.168295 0 0.00273567)
(0.158221 0 -0.00152003)
(0.14607 0 0.000528879)
(0.120569 0 0.00274641)
(-0.0742027 0 -0.0112151)
(-0.222686 0 -0.0239854)
(0.0333139 0 0.00450175)
(0.105912 0 0.0891238)
(-0.0256725 0 -0.000138524)
(0.134824 0 0.00273009)
(0.138351 0 0.00326706)
(0.141634 0 0.00384542)
(0.145568 0 0.00728586)
(0.149632 0 0.0106943)
(0.153819 0 0.011197)
(0.158394 0 0.0106907)
(0.162857 0 0.0134052)
(0.16796 0 0.0151975)
(0.171427 0 0.0126798)
(0.174304 0 0.00921205)
(0.176279 0 0.00867214)
(0.177486 0 0.00906969)
(0.175062 0 0.00447729)
(0.167308 0 -0.000247049)
(0.159588 0 -0.00109822)
(0.145417 0 0.000675117)
(-0.0186489 0 -0.00977046)
(-0.209932 0 -0.0244481)
(-0.157283 0 -0.0164086)
(0.0873407 0 0.0108935)
(0.170816 0 0.0119306)
(0.0481557 0 -0.0714901)
(-0.0370314 0 -0.0190623)
(0.129057 0 0.00244609)
(0.132183 0 0.00280478)
(0.134712 0 0.00327867)
(0.138159 0 0.00657452)
(0.141439 0 0.0101935)
(0.145323 0 0.0111317)
(0.14949 0 0.0114603)
(0.154152 0 0.0153026)
(0.159578 0 0.0182231)
(0.164163 0 0.0172024)
(0.169343 0 0.0144808)
(0.173211 0 0.0148879)
(0.176663 0 0.0140908)
(0.178166 0 0.00903192)
(0.175818 0 0.0041065)
(0.178767 0 0.000822042)
(0.169672 0 -9.3636e-05)
(0.023347 0 -0.011332)
(-0.144594 0 -0.0228042)
(-0.113084 0 -0.0368526)
(-0.0545717 0 -0.0287347)
(0.00263947 0 0.0413774)
(0.0810528 0 0.0470444)
(-0.00728364 0 -0.0012288)
(-0.0961153 0 0.0432434)
(-0.00554174 0 0.0187079)
(0.124068 0 0.00216022)
(0.126866 0 0.00247034)
(0.128943 0 0.00275859)
(0.132009 0 0.00561069)
(0.134408 0 0.00908713)
(0.137613 0 0.00993434)
(0.140835 0 0.0106893)
(0.144969 0 0.0151948)
(0.149749 0 0.0193233)
(0.154636 0 0.0198347)
(0.160568 0 0.0186452)
(0.165615 0 0.0211776)
(0.171641 0 0.0213627)
(0.177112 0 0.017123)
(0.180129 0 0.0121342)
(0.19162 0 0.00714738)
(0.193671 0 0.0044871)
(0.0972634 0 -0.00948548)
(-0.0492105 0 -0.0214422)
(-0.100836 0 -0.0515758)
(-0.0738602 0 -0.0631108)
(0.00206497 0 -0.0288578)
(0.0588914 0 0.0421554)
(0.0266063 0 0.0504016)
(-0.0608357 0 -0.00122003)
(-0.0164546 0 -0.0153413)
(0.0712063 0 -0.0290846)
(0.00763692 0 -0.00927344)
(0.119197 0 0.00204497)
(0.122208 0 0.0024549)
(0.123987 0 0.00266278)
(0.126959 0 0.00492421)
(0.128909 0 0.00796576)
(0.131448 0 0.00828523)
(0.133524 0 0.00895037)
(0.136799 0 0.0134274)
(0.140271 0 0.0182616)
(0.144448 0 0.0196439)
(0.149677 0 0.0200099)
(0.154931 0 0.0248563)
(0.161836 0 0.0273694)
(0.169866 0 0.0256194)
(0.177975 0 0.0219557)
(0.198852 0 0.0180815)
(0.211995 0 0.0140968)
(0.160087 0 -0.000863639)
(0.060459 0 -0.0148304)
(-0.0342983 0 -0.0565885)
(-0.0831104 0 -0.0805465)
(-0.0272098 0 -0.047673)
(0.0478331 0 -0.0160841)
(0.0407775 0 -0.0242742)
(0.00708117 0 -0.0183639)
(0.013436 0 0.0227458)
(0.0578017 0 0.0161129)
(-0.00168432 0 -0.00997924)
(-0.0658683 0 0.00175357)
(0.113209 0 0.00226522)
(0.116981 0 0.00307189)
(0.1192 0 0.00333933)
(0.122543 0 0.00486735)
(0.124497 0 0.00736916)
(0.126685 0 0.00710862)
(0.127979 0 0.00722525)
(0.130615 0 0.0109822)
(0.132645 0 0.0157905)
(0.135589 0 0.0170715)
(0.139137 0 0.0182966)
(0.143358 0 0.0245918)
(0.149277 0 0.029597)
(0.158185 0 0.0306473)
(0.168661 0 0.0296989)
(0.196831 0 0.0298388)
(0.220944 0 0.0258089)
(0.205433 0 0.0140988)
(0.154226 0 0.000338597)
(0.0218524 0 -0.0418577)
(-0.0741894 0 -0.0774499)
(-0.0247231 0 -0.0604201)
(0.0336618 0 -0.0355626)
(0.0251948 0 -0.0416939)
(0.0194018 0 -0.0464913)
(0.0211497 0 -0.029381)
(0.0272913 0 0.0132252)
(0.00911837 0 0.0351695)
(-0.0504081 0 0.00219391)
(0.105278 0 0.00275967)
(0.110166 0 0.00414169)
(0.113544 0 0.00477561)
(0.117636 0 0.00597339)
(0.120184 0 0.0078153)
(0.122754 0 0.00704113)
(0.123828 0 0.0064927)
(0.126385 0 0.00916374)
(0.127588 0 0.0132597)
(0.129325 0 0.0134417)
(0.1309 0 0.0145525)
(0.133524 0 0.0210075)
(0.137207 0 0.0275598)
(0.145071 0 0.0302579)
(0.155029 0 0.032209)
(0.187586 0 0.036933)
(0.2191 0 0.0349185)
(0.225335 0 0.0306742)
(0.214832 0 0.020208)
(0.0895785 0 -0.012873)
(-0.0425321 0 -0.0516683)
(-0.0258088 0 -0.0556977)
(0.0252424 0 -0.0474632)
(0.0192182 0 -0.0568039)
(0.0113363 0 -0.0565941)
(0.00873764 0 -0.038291)
(0.0109974 0 -0.0239788)
(0.00938888 0 -0.0226274)
(-0.00920819 0 -0.00469596)
(0.0948742 0 0.00342093)
(0.10117 0 0.00553077)
(0.105949 0 0.0067214)
(0.111197 0 0.00810827)
(0.114881 0 0.00966936)
(0.118544 0 0.00869378)
(0.120225 0 0.0075276)
(0.123303 0 0.00885751)
(0.124601 0 0.0119442)
(0.125785 0 0.0106428)
(0.125852 0 0.0106229)
(0.127096 0 0.0158968)
(0.128214 0 0.0226242)
(0.133862 0 0.0253046)
(0.141354 0 0.0288374)
(0.174485 0 0.0366769)
(0.208782 0 0.0378066)
(0.225356 0 0.0416907)
(0.237546 0 0.0365077)
(0.150645 0 0.0203841)
(0.0269652 0 -0.0116377)
(0.0018021 0 -0.0438016)
(0.0200128 0 -0.0533421)
(0.0089442 0 -0.0534114)
(0.00345128 0 -0.0564085)
(0.00451444 0 -0.0534173)
(0.00198564 0 -0.0398828)
(0.00446585 0 -0.0344888)
(0.00320982 0 -0.0314315)
(0.0816847 0 0.00416233)
(0.0893951 0 0.00713718)
(0.0957192 0 0.00904492)
(0.102436 0 0.0109687)
(0.107585 0 0.0127498)
(0.11277 0 0.0119187)
(0.116008 0 0.0104894)
(0.120062 0 0.0108569)
(0.122173 0 0.0127399)
(0.123746 0 0.0100813)
(0.12348 0 0.00845738)
(0.124427 0 0.0118172)
(0.123735 0 0.0173572)
(0.12669 0 0.0180751)
(0.130709 0 0.0214405)
(0.162313 0 0.030391)
(0.195442 0 0.0340084)
(0.214562 0 0.0429393)
(0.235823 0 0.0439196)
(0.179402 0 0.0424849)
(0.097541 0 0.0278583)
(0.0471536 0 -0.0115879)
(0.0202193 0 -0.0437476)
(0.00354894 0 -0.0438935)
(-0.00596438 0 -0.0428705)
(-0.00515278 0 -0.049295)
(-0.00387262 0 -0.0492693)
(0.00173032 0 -0.0509012)
(0.00431254 0 -0.0425613)
(0.065788 0 0.00487658)
(0.0747631 0 0.00875638)
(0.0825687 0 0.0115224)
(0.090761 0 0.0142533)
(0.0975388 0 0.0166009)
(0.104463 0 0.0163089)
(0.109587 0 0.0149833)
(0.115144 0 0.015272)
(0.118747 0 0.0162502)
(0.121879 0 0.0126144)
(0.122308 0 0.00942221)
(0.123985 0 0.010672)
(0.123161 0 0.0144089)
(0.124111 0 0.0121017)
(0.124936 0 0.0133398)
(0.153749 0 0.0208828)
(0.183688 0 0.0258791)
(0.202579 0 0.0360071)
(0.224178 0 0.0411533)
(0.188951 0 0.0484058)
(0.138864 0 0.049671)
(0.085931 0 0.023431)
(0.0352103 0 -0.0127386)
(0.00306774 0 -0.0183792)
(-0.0132644 0 -0.0219781)
(-0.0115936 0 -0.0406446)
(-0.00978948 0 -0.0460419)
(-0.0035804 0 -0.0467082)
(0.00203482 0 -0.0478272)
(0.0476042 0 0.00547752)
(0.0575386 0 0.0101955)
(0.0665917 0 0.0138637)
(0.0760702 0 0.0175569)
(0.0843961 0 0.020744)
(0.0929828 0 0.0213652)
(0.100025 0 0.0205266)
(0.107445 0 0.0213923)
(0.112982 0 0.0222786)
(0.11832 0 0.0182825)
(0.120923 0 0.0140464)
(0.12397 0 0.0133248)
(0.124343 0 0.0152219)
(0.124461 0 0.0100759)
(0.123338 0 0.00798232)
(0.149827 0 0.0128931)
(0.176235 0 0.0173857)
(0.198751 0 0.0245077)
(0.216817 0 0.0308757)
(0.191967 0 0.0395245)
(0.162539 0 0.0495208)
(0.117305 0 0.0372925)
(0.0655596 0 0.0145811)
(0.0197783 0 0.0094367)
(-0.0144529 0 0.000762189)
(-0.0163648 0 -0.0178408)
(-0.0143909 0 -0.0329506)
(-0.00689022 0 -0.0385968)
(-0.000150753 0 -0.0417055)
(0.0278149 0 0.00589642)
(0.0382988 0 0.0112953)
(0.0482273 0 0.0158018)
(0.0586374 0 0.0204923)
(0.068232 0 0.0246747)
(0.0782167 0 0.0264606)
(0.0870015 0 0.0264785)
(0.0962331 0 0.0284123)
(0.103845 0 0.0299079)
(0.111563 0 0.0262493)
(0.116976 0 0.0217339)
(0.12209 0 0.0203439)
(0.124581 0 0.0203025)
(0.125923 0 0.0132026)
(0.12434 0 0.00770758)
(0.14922 0 0.00957066)
(0.17298 0 0.0124152)
(0.206372 0 0.0145049)
(0.225774 0 0.018532)
(0.199328 0 0.020151)
(0.178525 0 0.0309637)
(0.143968 0 0.0318857)
(0.10158 0 0.0223165)
(0.0451285 0 0.0203838)
(-0.0023496 0 0.0141737)
(-0.00963749 0 0.00385577)
(-0.0128476 0 -0.011954)
(-0.0093093 0 -0.01854)
(-0.00190944 0 -0.0276302)
(0.00725952 0 0.00608323)
(0.0178343 0 0.0119421)
(0.0281848 0 0.0171301)
(0.0390652 0 0.022735)
(0.0495008 0 0.0279444)
(0.0604533 0 0.0309948)
(0.070618 0 0.0321267)
(0.0813496 0 0.0354851)
(0.0908687 0 0.0381211)
(0.100733 0 0.035434)
(0.108737 0 0.0313062)
(0.116475 0 0.0306292)
(0.121753 0 0.0293902)
(0.12592 0 0.0218212)
(0.126524 0 0.0137825)
(0.150604 0 0.0120824)
(0.173451 0 0.0130691)
(0.221408 0 0.00933334)
(0.249821 0 0.00909104)
(0.216641 0 0.00259929)
(0.192055 0 0.00547953)
(0.16632 0 0.0135706)
(0.137478 0 0.0144483)
(0.0712965 0 0.0147325)
(0.0138465 0 0.0141236)
(0.00305713 0 0.012781)
(-0.00430659 0 0.00400208)
(-0.00646203 0 -8.24881e-05)
(-0.00339074 0 -0.00859186)
(-0.0131541 0 0.00601423)
(-0.00296681 0 0.0120734)
(0.00733252 0 0.0177197)
(0.0181802 0 0.0240567)
(0.0289476 0 0.0302015)
(0.0403388 0 0.0344664)
(0.0513695 0 0.0368201)
(0.0631 0 0.0417875)
(0.074102 0 0.0459379)
(0.0856927 0 0.0447206)
(0.0959591 0 0.0415871)
(0.106211 0 0.0423482)
(0.114347 0 0.0412801)
(0.121727 0 0.034566)
(0.126093 0 0.0259887)
(0.150128 0 0.0220462)
(0.173351 0 0.0212612)
(0.230838 0 0.0121335)
(0.27565 0 0.00665078)
(0.24559 0 -0.00368507)
(0.210787 0 -0.00917397)
(0.188365 0 -0.00667518)
(0.16809 0 -0.00153414)
(0.0929622 0 -0.00131858)
(0.0280679 0 0.0012932)
(0.0148356 0 0.007937)
(0.00336245 0 0.00721876)
(-0.00136094 0 0.00918107)
(-0.00378906 0 0.0043178)
(-0.0325447 0 0.00569087)
(-0.0231824 0 0.0116734)
(-0.0133965 0 0.0175144)
(-0.00308927 0 0.0243332)
(0.00749003 0 0.0312197)
(0.0187619 0 0.036523)
(0.0300744 0 0.0400549)
(0.0421935 0 0.0466212)
(0.0540764 0 0.0524655)
(0.0667786 0 0.0530156)
(0.0787564 0 0.0513558)
(0.0910798 0 0.0541964)
(0.101874 0 0.0543233)
(0.112 0 0.0490974)
(0.119927 0 0.0421664)
(0.144366 0 0.0378441)
(0.168827 0 0.0364112)
(0.229392 0 0.0244088)
(0.285911 0 0.0148774)
(0.278819 0 0.00686923)
(0.241666 0 -0.00245678)
(0.215731 0 -0.0192486)
(0.197536 0 -0.0204672)
(0.109902 0 -0.021254)
(0.0372584 0 -0.016092)
(0.0224785 0 -0.00578864)
(0.00876358 0 -0.000703333)
(0.00327843 0 0.00535618)
(-0.00160527 0 0.00639056)
(-0.0501143 0 0.00513648)
(-0.0419405 0 0.0107666)
(-0.0330967 0 0.0165218)
(-0.0237846 0 0.0235331)
(-0.0138865 0 0.0308974)
(-0.00328228 0 0.0369761)
(0.00773488 0 0.0415166)
(0.019614 0 0.0495018)
(0.0317009 0 0.0570077)
(0.0447926 0 0.0593924)
(0.0577426 0 0.0594878)
(0.0714259 0 0.064798)
(0.0842869 0 0.0668973)
(0.0965105 0 0.063884)
(0.107297 0 0.0595151)
(0.132135 0 0.0559317)
(0.157265 0 0.0550558)
(0.217593 0 0.0439905)
(0.278586 0 0.0338082)
(0.298331 0 0.0282339)
(0.285219 0 0.0200617)
(0.253189 0 -0.0154738)
(0.226659 0 -0.0327208)
(0.122463 0 -0.0339275)
(0.0380146 0 -0.0276903)
(0.0243691 0 -0.0216285)
(0.0102234 0 -0.0147148)
(0.00565087 0 -0.00649868)
(6.37048e-05 0 -0.00101586)
(-0.0652098 0 0.00439526)
(-0.0585114 0 0.00941673)
(-0.0509499 0 0.0148085)
(-0.0429993 0 0.021707)
(-0.0342246 0 0.0292466)
(-0.0247727 0 0.0357769)
(-0.014591 0 0.0410713)
(-0.00354677 0 0.0501805)
(0.00809673 0 0.0591371)
(0.0208528 0 0.063215)
(0.0339689 0 0.0651084)
(0.0481496 0 0.072962)
(0.0622033 0 0.0776055)
(0.0757071 0 0.0771802)
(0.0886214 0 0.0757834)
(0.113551 0 0.0741708)
(0.139202 0 0.0744678)
(0.197464 0 0.0657058)
(0.258629 0 0.0582916)
(0.296005 0 0.0545998)
(0.314193 0 0.0478453)
(0.286675 0 0.0131033)
(0.249252 0 -0.0186394)
(0.133121 0 -0.0270642)
(0.0339493 0 -0.0268174)
(0.0198073 0 -0.0318785)
(0.00702232 0 -0.0271974)
(0.00480658 0 -0.0200436)
(0.000201741 0 -0.0127962)
(-0.0773573 0 0.00352668)
(-0.0723186 0 0.00771338)
(-0.0662848 0 0.0124859)
(-0.0599729 0 0.0189827)
(-0.0526613 0 0.0263829)
(-0.0447429 0 0.0330051)
(-0.0358611 0 0.0387404)
(-0.0261811 0 0.0485818)
(-0.0155792 0 0.0586532)
(-0.00383074 0 0.0641831)
(0.00871716 0 0.067715)
(0.0225347 0 0.0778857)
(0.0368057 0 0.0853839)
(0.0506717 0 0.0874584)
(0.0646836 0 0.0890788)
(0.0891101 0 0.0906019)
(0.114924 0 0.0926337)
(0.169737 0 0.0875438)
(0.228981 0 0.0834686)
(0.275011 0 0.081749)
(0.312642 0 0.0770292)
(0.299185 0 0.0554241)
(0.268328 0 0.0235021)
(0.146924 0 0.00314129)
(0.0326139 0 -0.00840846)
(0.0116766 0 -0.0263791)
(-0.00151895 0 -0.0291144)
(5.02721e-05 0 -0.0275735)
(-0.00192726 0 -0.0221501)
(-0.0862829 0 0.00259019)
(-0.0829621 0 0.00576927)
(-0.0786019 0 0.0096971)
(-0.0741036 0 0.0155345)
(-0.068489 0 0.0225017)
(-0.0623796 0 0.0288562)
(-0.0551456 0 0.0346837)
(-0.0472404 0 0.0448227)
(-0.0381769 0 0.0555754)
(-0.0280302 0 0.0621857)
(-0.0167525 0 0.0671317)
(-0.00410457 0 0.0792469)
(0.00953048 0 0.0894504)
(0.0231565 0 0.0937319)
(0.0372214 0 0.0979953)
(0.0599402 0 0.103133)
(0.0850352 0 0.107576)
(0.13481 0 0.107361)
(0.190585 0 0.10715)
(0.239517 0 0.108694)
(0.285752 0 0.106774)
(0.287789 0 0.0962999)
(0.271199 0 0.0734379)
(0.160994 0 0.0538983)
(0.0366527 0 0.0285884)
(0.00693085 0 0.00103221)
(-0.0123673 0 -0.0140591)
(-0.00827066 0 -0.0208137)
(-0.00633257 0 -0.0214928)
(-0.0919007 0 0.00164345)
(-0.0902496 0 0.0036964)
(-0.0875837 0 0.00660631)
(-0.084977 0 0.0115748)
(-0.0811883 0 0.0178537)
(-0.0770376 0 0.0235983)
(-0.0716806 0 0.0291698)
(-0.0658386 0 0.0391709)
(-0.0586822 0 0.0501441)
(-0.0505707 0 0.0573883)
(-0.0411027 0 0.0634124)
(-0.0303514 0 0.0768448)
(-0.0182115 0 0.0891129)
(-0.00489797 0 0.0956545)
(0.00860823 0 0.102065)
(0.0278349 0 0.110355)
(0.0509187 0 0.117505)
(0.0937594 0 0.122606)
(0.144107 0 0.127031)
(0.191951 0 0.133421)
(0.24094 0 0.135395)
(0.256074 0 0.133377)
(0.255368 0 0.118757)
(0.167547 0 0.104866)
(0.0545157 0 0.0779672)
(0.0113069 0 0.0444025)
(-0.0190263 0 0.0207754)
(-0.0165128 0 0.00450969)
(-0.0121236 0 -0.00464884)
(-0.0942483 0 0.000808143)
(-0.0941943 0 0.00157235)
(-0.0931032 0 0.00335738)
(-0.0923918 0 0.00732814)
(-0.0904601 0 0.0127253)
(-0.0882708 0 0.0175679)
(-0.0848885 0 0.0225511)
(-0.0812685 0 0.0319852)
(-0.076257 0 0.0427326)
(-0.070475 0 0.0501342)
(-0.0631951 0 0.0567986)
(-0.0547603 0 0.0709266)
(-0.0447629 0 0.0842789)
(-0.0323397 0 0.0928291)
(-0.0195924 0 0.101374)
(-0.0041461 0 0.112333)
(0.0150003 0 0.122068)
(0.0480887 0 0.131223)
(0.0905883 0 0.141169)
(0.134514 0 0.153153)
(0.18254 0 0.159654)
(0.207736 0 0.166165)
(0.219969 0 0.158603)
(0.159313 0 0.152876)
(0.0686924 0 0.131267)
(0.0205071 0 0.0971947)
(-0.0231075 0 0.0695513)
(-0.0213074 0 0.0465721)
(-0.0186472 0 0.0282633)
(-0.0934822 0 2.09915e-05)
(-0.0949589 0 -0.000522264)
(-0.0952867 0 7.12952e-05)
(-0.0963607 0 0.00303472)
(-0.0962429 0 0.00742763)
(-0.0958516 0 0.0111331)
(-0.0944015 0 0.0152321)
(-0.0930352 0 0.0237169)
(-0.0902645 0 0.0338164)
(-0.0869555 0 0.0408795)
(-0.0821064 0 0.0476892)
(-0.0762477 0 0.0619313)
(-0.0687446 0 0.0755561)
(-0.0582348 0 0.0856227)
(-0.0466682 0 0.096035)
(-0.0355219 0 0.109129)
(-0.0206809 0 0.121721)
(-0.00109814 0 0.133436)
(0.0313136 0 0.148086)
(0.0701649 0 0.16566)
(0.112343 0 0.176912)
(0.143625 0 0.19322)
(0.166998 0 0.194754)
(0.135664 0 0.195866)
(0.071588 0 0.182808)
(0.0270726 0 0.151281)
(-0.0217697 0 0.123018)
(-0.0225316 0 0.0964708)
(-0.0211878 0 0.0726165)
(-0.0902004 0 -0.000767656)
(-0.092935 0 -0.00227765)
(-0.0947584 0 -0.00293976)
(-0.0970192 0 -0.000882426)
(-0.0986296 0 0.0023169)
(-0.099753 0 0.00463322)
(-0.100031 0 0.00761008)
(-0.100897 0 0.0148375)
(-0.100342 0 0.0239489)
(-0.0994447 0 0.0302307)
(-0.0970896 0 0.0366593)
(-0.0939769 0 0.0503936)
(-0.0891831 0 0.0638373)
(-0.0816578 0 0.0746811)
(-0.072254 0 0.0863972)
(-0.0663395 0 0.101302)
(-0.056239 0 0.11686)
(-0.0503104 0 0.130535)
(-0.0311784 0 0.148222)
(-0.00129686 0 0.170397)
(0.0359051 0 0.186583)
(0.0711796 0 0.210068)
(0.100478 0 0.224253)
(0.0946476 0 0.231187)
(0.0602021 0 0.226629)
(0.0277507 0 0.202251)
(-0.0181071 0 0.175984)
(-0.0207623 0 0.149263)
(-0.0219131 0 0.122856)
(-0.0848174 0 -0.00143931)
(-0.0884887 0 -0.0038028)
(-0.0913786 0 -0.00546687)
(-0.0947275 0 -0.00462332)
(-0.0973059 0 -0.0024226)
(-0.100217 0 -0.00178491)
(-0.101828 0 4.71944e-05)
(-0.104843 0 0.00583632)
(-0.106439 0 0.01371)
(-0.107663 0 0.0188492)
(-0.107678 0 0.024405)
(-0.107297 0 0.0370751)
(-0.105272 0 0.0500114)
(-0.101026 0 0.0606096)
(-0.0947099 0 0.0726726)
(-0.0941693 0 0.0886892)
(-0.0895596 0 0.106964)
(-0.0955484 0 0.121721)
(-0.0901445 0 0.141655)
(-0.072517 0 0.166034)
(-0.0426992 0 0.186995)
(-0.00454264 0 0.216886)
(0.0291745 0 0.239949)
(0.0447714 0 0.251494)
(0.0381914 0 0.255424)
(0.0211922 0 0.24375)
(-0.0130302 0 0.222737)
(-0.0171104 0 0.199404)
(-0.0203792 0 0.173033)
(-0.0778272 0 -0.00196758)
(-0.0821554 0 -0.00502711)
(-0.0858283 0 -0.00753656)
(-0.0900093 0 -0.00772373)
(-0.0935384 0 -0.00664655)
(-0.0976249 0 -0.00723805)
(-0.100922 0 -0.00695283)
(-0.105015 0 -0.00240231)
(-0.108661 0 0.00379309)
(-0.111505 0 0.00732406)
(-0.113618 0 0.0115765)
(-0.115957 0 0.0227576)
(-0.116581 0 0.0349022)
(-0.115525 0 0.0443854)
(-0.112512 0 0.0553965)
(-0.117452 0 0.0719134)
(-0.118337 0 0.0918524)
(-0.135411 0 0.106641)
(-0.14257 0 0.128117)
(-0.136533 0 0.153847)
(-0.11866 0 0.178131)
(-0.0759022 0 0.211762)
(-0.0383433 0 0.240817)
(-0.00224281 0 0.256818)
(0.0129845 0 0.266502)
(0.00988304 0 0.266138)
(-0.00713735 0 0.254834)
(-0.0117497 0 0.240387)
(-0.0165177 0 0.217319)
(-0.0697157 0 -0.0023456)
(-0.0744406 0 -0.0059373)
(-0.0786304 0 -0.00913357)
(-0.0833711 0 -0.0102036)
(-0.0875754 0 -0.0101545)
(-0.0924539 0 -0.0119362)
(-0.0967184 0 -0.0129729)
(-0.101841 0 -0.0101555)
(-0.106305 0 -0.00530759)
(-0.111224 0 -0.00400834)
(-0.114679 0 -0.0012033)
(-0.119858 0 0.0080344)
(-0.123214 0 0.019503)
(-0.12474 0 0.0271218)
(-0.124876 0 0.0357776)
(-0.135489 0 0.0523772)
(-0.141867 0 0.0729536)
(-0.169364 0 0.0868547)
(-0.187869 0 0.10883)
(-0.193052 0 0.134899)
(-0.187974 0 0.16192)
(-0.149269 0 0.196323)
(-0.107392 0 0.226756)
(-0.0449704 0 0.253331)
(-0.00996389 0 0.266945)
(0.000598282 0 0.270391)
(-0.00218146 0 0.268216)
(-0.00597177 0 0.263259)
(-0.0106809 0 0.248491)
(-0.0609425 0 -0.00259144)
(-0.0658103 0 -0.00653712)
(-0.0702749 0 -0.0102586)
(-0.0753301 0 -0.0120531)
(-0.0799508 0 -0.0128865)
(-0.0853083 0 -0.0156869)
(-0.0901858 0 -0.017885)
(-0.0959806 0 -0.0165511)
(-0.101256 0 -0.0132645)
(-0.107335 0 -0.0136596)
(-0.112703 0 -0.0130099)
(-0.119026 0 -0.00535547)
(-0.125043 0 0.00448283)
(-0.128741 0 0.00925933)
(-0.13122 0 0.0151534)
(-0.147883 0 0.0312958)
(-0.159924 0 0.0516485)
(-0.196828 0 0.0640487)
(-0.225729 0 0.0849661)
(-0.241299 0 0.110895)
(-0.247094 0 0.138989)
(-0.213126 0 0.171778)
(-0.174303 0 0.199384)
(-0.0964696 0 0.237326)
(-0.0357621 0 0.259237)
(-0.00935903 0 0.268862)
(0.000725568 0 0.269811)
(-0.00106971 0 0.268671)
(-0.0045892 0 0.262744)
(-0.0518816 0 -0.00274804)
(-0.0567006 0 -0.00687285)
(-0.0612112 0 -0.0109428)
(-0.0663521 0 -0.0132907)
(-0.0711613 0 -0.0148462)
(-0.0767459 0 -0.0184865)
(-0.0819543 0 -0.0216613)
(-0.0880961 0 -0.0216068)
(-0.0938402 0 -0.019785)
(-0.1005 0 -0.0217897)
(-0.106698 0 -0.0230353)
(-0.114018 0 -0.0178271)
(-0.120787 0 -0.00955938)
(-0.127615 0 -0.00825718)
(-0.132331 0 -0.00492126)
(-0.15466 0 0.0100037)
(-0.172517 0 0.0290588)
(-0.217673 0 0.0395814)
(-0.255961 0 0.0579212)
(-0.280116 0 0.0835898)
(-0.295818 0 0.111081)
(-0.264198 0 0.141834)
(-0.229045 0 0.166437)
(-0.140478 0 0.205927)
(-0.061196 0 0.23589)
(-0.0209834 0 0.252912)
(0.0047302 0 0.261082)
(0.00233061 0 0.266451)
(0.000457221 0 0.264275)
(-0.042773 0 -0.00282012)
(-0.0475224 0 -0.00703227)
(-0.0518512 0 -0.0112756)
(-0.0568695 0 -0.0139725)
(-0.0616575 0 -0.0160763)
(-0.0672477 0 -0.0203722)
(-0.0725585 0 -0.0243466)
(-0.0787906 0 -0.0253638)
(-0.0847321 0 -0.0248268)
(-0.0915832 0 -0.0281569)
(-0.0981109 0 -0.0310311)
(-0.105882 0 -0.0278561)
(-0.113226 0 -0.0216223)
(-0.12193 0 -0.0230742)
(-0.129296 0 -0.0231302)
(-0.156122 0 -0.0103266)
(-0.179473 0 0.006598)
(-0.231612 0 0.0146625)
(-0.27825 0 0.0291804)
(-0.308856 0 0.054247)
(-0.333161 0 0.0803842)
(-0.302133 0 0.107727)
(-0.268972 0 0.130941)
(-0.169049 0 0.167187)
(-0.0783659 0 0.196919)
(-0.0305141 0 0.216638)
(0.0109471 0 0.23467)
(0.00883248 0 0.249103)
(0.00644032 0 0.253847)
(-0.0384072 0 -0.00702726)
(-0.0338322 0 -0.00275826)
(-0.0425653 0 -0.0113523)
(-0.0473259 0 -0.0142014)
(-0.0518512 0 -0.0166485)
(-0.0572569 0 -0.0214108)
(-0.0624594 0 -0.0260034)
(-0.0685662 0 -0.0278974)
(-0.0744781 0 -0.0284515)
(-0.0812654 0 -0.0328693)
(-0.0878402 0 -0.0370689)
(-0.0956957 0 -0.0355433)
(-0.103179 0 -0.0311534)
(-0.113151 0 -0.0349536)
(-0.121635 0 -0.0381766)
(-0.152622 0 -0.0283909)
(-0.180276 0 -0.0132556)
(-0.237338 0 -0.00977913)
(-0.290998 0 0.000360616)
(-0.325064 0 0.0232006)
(-0.356315 0 0.0481018)
(-0.325237 0 0.0694817)
(-0.292057 0 0.0906515)
(-0.183491 0 0.122648)
(-0.0818127 0 0.148647)
(-0.032415 0 0.169376)
(0.0168619 0 0.192093)
(0.0146951 0 0.212948)
(0.0131746 0 0.22714)
(-0.0379694 0 -0.0140597)
(-0.0336179 0 -0.0111094)
(-0.0233358 0 -0.00654596)
(-0.0148591 0 -0.00239785)
(-0.0421448 0 -0.0166498)
(-0.0472168 0 -0.0216953)
(-0.0520857 0 -0.0267118)
(-0.057874 0 -0.0292795)
(-0.0635415 0 -0.0307282)
(-0.070059 0 -0.0360464)
(-0.0764732 0 -0.0413384)
(-0.0842401 0 -0.0411894)
(-0.0917041 0 -0.0383366)
(-0.102799 0 -0.043796)
(-0.11213 0 -0.0493896)
(-0.146017 0 -0.0416682)
(-0.176264 0 -0.0288135)
(-0.232547 0 -0.0311749)
(-0.289869 0 -0.0261578)
(-0.323316 0 -0.0105488)
(-0.357197 0 0.0129193)
(-0.330057 0 0.0237911)
(-0.296107 0 0.0418404)
(-0.182358 0 0.0721465)
(-0.0713628 0 0.0944152)
(-0.0275503 0 0.115894)
(0.0229473 0 0.140451)
(0.0200002 0 0.165512)
(0.0185161 0 0.186121)
(-0.0373777 0 -0.0213011)
(-0.0329316 0 -0.0161533)
(-0.0228885 0 -0.0130869)
(-0.0146592 0 -0.00965176)
(-0.00892519 0 -0.00545925)
(-0.000209293 0 -0.00202662)
(-0.0418459 0 -0.0265509)
(-0.0471448 0 -0.0296011)
(-0.0523435 0 -0.0317262)
(-0.0584075 0 -0.0377734)
(-0.0644292 0 -0.0439749)
(-0.072008 0 -0.0450207)
(-0.0793469 0 -0.0434906)
(-0.0917493 0 -0.0502343)
(-0.10224 0 -0.0574162)
(-0.138227 0 -0.0509085)
(-0.170657 0 -0.0403871)
(-0.216281 0 -0.0456299)
(-0.26921 0 -0.0469286)
(-0.297433 0 -0.0455129)
(-0.325538 0 -0.0269186)
(-0.312519 0 -0.0321312)
(-0.280191 0 -0.0209466)
(-0.167836 0 0.0131312)
(-0.0498383 0 0.03538)
(-0.0159655 0 0.0579835)
(0.0292178 0 0.0836539)
(0.0247767 0 0.111841)
(0.0223861 0 0.136412)
(-0.036636 0 -0.0289245)
(-0.0321467 0 -0.0256155)
(-0.0219942 0 -0.0196855)
(-0.0138061 0 -0.0137801)
(-0.00828242 0 -0.0106769)
(-0.000657626 0 -0.00779386)
(0.00806118 0 -0.00430889)
(0.0104972 0 -0.00280794)
(-0.0413071 0 -0.031509)
(-0.0467212 0 -0.0381216)
(-0.0521248 0 -0.0450637)
(-0.0594136 0 -0.0471067)
(-0.066427 0 -0.0466912)
(-0.0805057 0 -0.0546478)
(-0.0924242 0 -0.0632001)
(-0.129645 0 -0.0574188)
(-0.164499 0 -0.0490266)
(-0.193187 0 -0.055337)
(-0.234407 0 -0.0609957)
(-0.252255 0 -0.070216)
(-0.271381 0 -0.0641548)
(-0.275245 0 -0.0830981)
(-0.255384 0 -0.0878459)
(-0.146143 0 -0.0490437)
(-0.0296463 0 -0.0234557)
(-0.00176625 0 -0.000392995)
(0.0336012 0 0.0247225)
(0.0285601 0 0.055099)
(0.024827 0 0.0821965)
(-0.0352864 0 -0.0370835)
(-0.0309264 0 -0.0301997)
(-0.0206576 0 -0.0263858)
(-0.0127264 0 -0.0217115)
(-0.00715811 0 -0.0158967)
(0.000201443 0 -0.0105702)
(0.0077394 0 -0.00800905)
(0.0085365 0 -0.00888884)
(0.0098127 0 -0.00709552)
(0.0268198 0 -0.00509047)
(-0.0400382 0 -0.0446208)
(-0.0468157 0 -0.0474531)
(-0.0533261 0 -0.0478494)
(-0.0688162 0 -0.057044)
(-0.0822548 0 -0.067208)
(-0.11928 0 -0.0622252)
(-0.155971 0 -0.0556875)
(-0.167953 0 -0.0636606)
(-0.19363 0 -0.0714173)
(-0.204284 0 -0.0846623)
(-0.215819 0 -0.0893574)
(-0.231234 0 -0.109467)
(-0.231251 0 -0.132428)
(-0.12842 0 -0.0998473)
(-0.0178746 0 -0.0722579)
(0.00685451 0 -0.0570701)
(0.0355436 0 -0.0309419)
(0.0302937 0 -0.00169454)
(0.0255367 0 0.0271569)
(-0.0345777 0 -0.0459352)
(-0.0287762 0 -0.042719)
(-0.0185208 0 -0.0333383)
(-0.0107748 0 -0.0246765)
(-0.00529439 0 -0.0207913)
(0.000408001 0 -0.0165896)
(0.00746654 0 -0.0113704)
(0.0085537 0 -0.0117589)
(0.0082812 0 -0.0125561)
(0.0210983 0 -0.0135909)
(0.0385623 0 -0.0111711)
(0.0506143 0 -0.0116086)
(-0.0406014 0 -0.0468043)
(-0.0568423 0 -0.0572773)
(-0.0713828 0 -0.0692566)
(-0.106573 0 -0.0652906)
(-0.143079 0 -0.0608125)
(-0.140258 0 -0.0718318)
(-0.150741 0 -0.0816985)
(-0.164232 0 -0.095054)
(-0.173165 0 -0.103626)
(-0.190925 0 -0.115338)
(-0.206663 0 -0.143843)
(-0.118015 0 -0.126838)
(-0.0185602 0 -0.104226)
(0.00463165 0 -0.0993729)
(0.0288241 0 -0.0776308)
(0.0276711 0 -0.0524902)
(0.0231854 0 -0.0250668)
(-0.0454179 0 -0.0549931)
(-0.0290771 0 -0.0435493)
(-0.0173532 0 -0.0405081)
(-0.00799503 0 -0.0351656)
(-0.00242942 0 -0.0255019)
(0.00186635 0 -0.0170638)
(0.00740113 0 -0.0138296)
(0.00651827 0 -0.0164824)
(0.00665811 0 -0.0165483)
(0.0177374 0 -0.0172928)
(0.0312192 0 -0.0181784)
(0.0360241 0 -0.0288311)
(0.0475948 0 -0.0279496)
(0.105732 0 -0.0150134)
(-0.0605617 0 -0.0687776)
(-0.0921303 0 -0.0656316)
(-0.126237 0 -0.063964)
(-0.109702 0 -0.0780652)
(-0.105405 0 -0.0913419)
(-0.133192 0 -0.105613)
(-0.147738 0 -0.112982)
(-0.159189 0 -0.113665)
(-0.179233 0 -0.135655)
(-0.10809 0 -0.135066)
(-0.0232971 0 -0.120645)
(-0.00337301 0 -0.123492)
(0.0181854 0 -0.111002)
(0.020724 0 -0.0919904)
(0.0193367 0 -0.0693714)
(-0.0792704 0 -0.0625039)
(-0.0510058 0 -0.0656874)
(-0.029243 0 -0.04752)
(-0.00875363 0 -0.0323337)
(-0.00137185 0 -0.0300119)
(0.00410746 0 -0.0252017)
(0.00853349 0 -0.0156137)
(0.00629942 0 -0.0145464)
(0.0046567 0 -0.0178626)
(0.0095416 0 -0.0212269)
(0.0214357 0 -0.0215179)
(0.0248503 0 -0.0394129)
(0.0289498 0 -0.0485191)
(0.0765883 0 -0.0521202)
(0.132673 0 -0.0380156)
(0.175141 0 -0.0291012)
(-0.108666 0 -0.0637742)
(-0.0781157 0 -0.0791979)
(-0.0598786 0 -0.0961806)
(-0.108195 0 -0.112598)
(-0.136995 0 -0.119195)
(-0.137864 0 -0.113617)
(-0.15125 0 -0.125113)
(-0.0954191 0 -0.134147)
(-0.0260776 0 -0.127196)
(-0.0105141 0 -0.133066)
(0.00839043 0 -0.129239)
(0.0125963 0 -0.116573)
(0.0143999 0 -0.10092)
(-0.0567094 0 -0.074174)
(-0.0938178 0 -0.0601036)
(-0.0562958 0 -0.054349)
(-0.0312119 0 -0.0528713)
(-0.0128032 0 -0.0339636)
(0.00185048 0 -0.01843)
(0.00751063 0 -0.0167027)
(0.00681333 0 -0.0197401)
(0.00390802 0 -0.0169176)
(0.00412532 0 -0.0168721)
(0.00982635 0 -0.0209518)
(0.00833584 0 -0.0433884)
(0.0112944 0 -0.0589022)
(0.0453262 0 -0.0711412)
(0.0931796 0 -0.0719432)
(0.138534 0 -0.0742535)
(0.182761 0 -0.0625382)
(0.280871 0 -0.0173634)
(-0.0232732 0 -0.0934441)
(-0.0857089 0 -0.107459)
(-0.134671 0 -0.11556)
(-0.125583 0 -0.11436)
(-0.127838 0 -0.119426)
(-0.0822432 0 -0.131061)
(-0.0255777 0 -0.129386)