/*--------------------------------*- C++ -*----------------------------------*\
| =========                 |                                                 |
| \\      /  F ield         | OpenFOAM: The Open Source CFD Toolbox           |
|  \\    /   O peration     | Version:  5.x                                   |
|   \\  /    A nd           | Web:      www.OpenFOAM.org                      |
|    \\/     M anipulation  |                                                 |
\*---------------------------------------------------------------------------*/
FoamFile
{
    version     2.0;
    format      ascii;
    class       volScalarField;
    location    "2.6";
    object      alpha.water;
}
// * * * * * * * * * * * * * * * * * * * * * * * * * * * * * * * * * * * * * //

dimensions      [0 0 0 0 0 0 0];

internalField   nonuniform List<scalar> 
12160
(
1
1
1
1
1
1
1
1
1
1
1
1
1
1
1
1
1
1
1
1
1
1
1
1
1
1
1
1
1
1
1
1
1
1
0.999996
1
1
1
1
1
1
1
0.999998
0.993798
0.497438
1
1
1
1
1
1
1
0.995208
0.588309
0.0275232
1
1
1
1
1
1
1
0.9977
0.625829
0.0404017
0.00101931
1
1
1
1
1
1
0.999999
0.997962
0.682817
0.047138
0.000773355
1.31346e-05
1
1
1
1
1
1
0.999998
0.997713
0.731857
0.0701794
0.000500059
6.04593e-06
9.94361e-09
1
1
1
1
1
1
0.999996
0.997333
0.779465
0.0973644
0.000113859
2.16365e-06
1.58596e-09
2.94244e-12
1
1
1
1
1
1
0.999994
0.997293
0.824722
0.13352
0.000318017
8.99802e-08
2.58733e-09
8.57646e-13
1.2279e-16
1
1
1
1
1
1
0.999994
0.997471
0.864295
0.175376
0.00167779
1.00885e-07
2.37705e-11
5.88545e-13
2.61152e-18
1
1
1
1
1
1
0.999995
0.997683
0.893382
0.222667
0.00449549
1.22594e-06
2.392e-11
9.81918e-15
5.60662e-17
1
1
1
1
1
1
0.999997
0.997957
0.914249
0.273669
0.00856721
5.85673e-06
8.01007e-11
3.00016e-15
5.12861e-19
1
1
1
1
1
1
0.999999
0.998315
0.929721
0.323735
0.0140856
2.01221e-05
4.52931e-10
6.59037e-15
2.43615e-19
1
1
1
1
1
1
1
0.998779
0.942244
0.371809
0.020855
4.18828e-05
2.21975e-09
2.2278e-14
4.88136e-19
1
1
1
1
1
1
1
0.999337
0.95202
0.420195
0.0290355
6.54548e-05
3.66525e-09
6.257e-14
1.32728e-18
1
1
1
1
1
1
1
0.999817
0.958489
0.467342
0.0391245
0.00011156
5.07852e-09
7.62304e-14
2.64063e-18
1
1
1
1
1
1
1
0.999907
0.961561
0.507575
0.0515741
0.000315226
2.14981e-08
1.17109e-13
2.82087e-18
1
1
1
1
1
1
1
0.99984
0.960777
0.532248
0.0647487
0.000884754
3.52257e-07
9.27925e-13
3.87007e-18
0.999999
0.999999
1
1
1
1
0.999999
0.999604
0.954319
0.534884
0.0741099
0.00171426
2.11411e-06
3.45242e-11
4.07714e-17
1
1
0.999999
1
1
1
0.999992
0.998626
0.939661
0.507553
0.0762634
0.00248177
6.7455e-06
4.93535e-10
1.11251e-15
1
1
1
1
1
1
0.999968
0.99623
0.911085
0.452585
0.0682745
0.00283751
1.39565e-05
3.27793e-09
2.01165e-14
1
1
1
1
1
1
0.999924
0.992734
0.870239
0.381696
0.0518244
0.00263909
1.92791e-05
1.01559e-08
1.57124e-13
1
1
1
1
1
1
0.999859
0.988255
0.824573
0.303254
0.0330533
0.00190524
2.04283e-05
1.45203e-08
5.68162e-13
1
0.999999
1
1
1
1
0.999783
0.982979
0.775568
0.225994
0.0189591
0.00114403
1.75551e-05
1.52955e-08
7.48378e-13
0.999999
0.999999
0.999999
1
1
1
0.999713
0.977463
0.724071
0.162559
0.0109582
0.000700082
1.03861e-05
1.4708e-08
7.49006e-13
0.999999
0.999999
0.999999
0.999999
1
1
0.999672
0.97285
0.677561
0.119274
0.00670052
0.000441469
5.37197e-06
1.17753e-08
1.28742e-12
1
1
0.999999
0.999999
0.999999
0.999999
0.999672
0.970097
0.643219
0.0922906
0.00443215
0.000285124
3.9526e-06
1.12972e-08
1.69243e-12
1
1
1
1
0.999999
0.999999
0.999708
0.969586
0.623619
0.0766782
0.00330817
0.000184867
3.57456e-06
1.66911e-08
2.60505e-12
1
1
1
1
1
0.999999
0.999765
0.971261
0.618343
0.0686705
0.00275784
0.000133507
2.96681e-06
2.32421e-08
4.97102e-12
1
1
1
1
1
1
0.999824
0.974337
0.626602
0.0660201
0.00247656
0.000113134
2.20246e-06
2.19698e-08
6.99456e-12
1
1
1
1
1
1
0.999873
0.977901
0.644431
0.0676351
0.00237174
0.000100372
1.76156e-06
1.61073e-08
5.70472e-12
1
1
1
1
1
1
0.999909
0.981081
0.667538
0.0722549
0.00238191
9.02231e-05
1.30886e-06
1.34306e-08
3.436e-12
1
1
1
1
1
1
0.99994
0.983486
0.689886
0.0790198
0.00245923
8.11821e-05
8.50616e-07
1.00879e-08
2.77567e-12
1
1
1
1
1
1
0.999959
0.985658
0.70776
0.0863557
0.00258393
6.90489e-05
6.25979e-07
5.16955e-09
1.92934e-12
1
1
1
1
1
1
0.999954
0.987787
0.722078
0.0944481
0.00275869
4.45775e-05
5.37389e-07
2.23364e-09
8.15026e-13
1
1
1
1
1
1
0.999932
0.988605
0.730748
0.106731
0.00308375
2.29711e-05
3.61519e-07
1.10742e-09
2.68342e-13
1
1
1
1
1
1
0.999895
0.988754
0.741009
0.125207
0.00391811
1.68419e-05
1.87337e-07
4.78492e-10
8.21747e-14
1
1
1
1
1
1
0.999848
0.988799
0.753013
0.146646
0.00556347
2.4438e-05
9.34071e-08
1.59106e-10
1.7681e-14
0.999999
1
1
1
1
1
0.999792
0.988918
0.764862
0.16513
0.00778737
6.55166e-05
5.70154e-08
5.19151e-11
3.47132e-15
0.999729
0.999999
1
1
1
1
1
0.988958
0.774562
0.178953
0.00981443
0.000115303
7.10164e-08
1.81897e-11
1.06471e-15
0.988888
0.999625
0.999998
1
1
1
1
1
0.781242
0.188364
0.0112088
0.000158818
2.53081e-07
1.36447e-11
4.93273e-16
0.784099
0.988656
0.999445
0.999997
1
1
1
1
1
0.194178
0.011947
0.000182301
4.67036e-07
6.05204e-11
1.07753e-15
0.196887
0.782094
0.987093
0.99922
0.999992
1
1
1
1
1
0.0122475
0.000184317
5.5683e-07
1.81935e-10
3.81534e-15
0.0123415
0.196932
0.765466
0.984128
0.998694
0.999974
0.999995
0.999999
1
1
1
0.000177284
5.11759e-07
2.4016e-10
1.17044e-14
0.000172549
0.0123965
0.189328
0.73909
0.978744
0.997574
0.99945
0.999888
0.999995
1
1
0.999999
4.43153e-07
1.96752e-10
1.65765e-14
4.23079e-07
0.000176548
0.012702
0.178591
0.705866
0.971305
0.990333
0.996695
0.999752
0.999999
0.999999
1
0.999998
0.999999
1.50284e-10
1.39901e-14
1.33662e-10
4.93748e-07
0.000307952
0.0140273
0.166042
0.666719
0.956576
0.971512
0.99605
0.999969
0.999999
1
0.999998
0.999996
0.999999
1
1.06851e-14
2.81046e-15
1.18223e-09
1.07082e-05
0.00120627
0.0143455
0.145447
0.623535
0.908713
0.965777
0.999454
0.999997
1
0.999999
0.999995
0.999994
0.999999
1
1
7.84586e-12
8.41184e-07
0.000257822
0.00199129
0.0118918
0.122028
0.584535
0.836506
0.987634
0.999987
1
1
0.999997
0.999985
0.99998
0.999999
1
1
0.999998
2.01094e-08
5.13976e-05
0.000685782
0.00177171
0.0091167
0.110757
0.532366
0.836502
0.997916
1
1
0.999999
0.999986
0.999933
0.999853
0.999997
0.999997
0.999983
0.999993
0.999996
3.30857e-06
0.000197389
0.000616861
0.000768114
0.00745946
0.129509
0.353374
0.911938
1
1
1
0.999994
0.999955
0.999854
0.999538
0.999971
0.999985
0.999876
0.999758
0.999959
0.999994
2.08932e-05
0.000188588
0.000125797
0.000186965
0.00820085
0.0787706
0.287856
0.980797
1
1
1
0.999993
0.999966
0.999903
0.999555
0.99934
0.999543
0.99965
0.999641
0.999986
0.999529
0.998748
0.998908
0.999887
0.999986
1.90789e-05
3.51653e-05
2.30587e-05
0.000108259
0.0081708
0.0215763
0.62339
1
1
1
1
0.999998
0.999994
0.999983
0.998894
0.999664
0.999811
0.998881
0.998758
0.998743
0.99966
0.999827
0.999852
0.999805
0.997315
0.99643
0.998014
0.999822
0.99993
1.35255e-06
7.54458e-06
7.62544e-06
0.000188402
0.00163765
0.0103311
0.931669
1
1
1
1
1
0.999999
0.999999
0.999985
1
1
0.998969
0.999815
0.999878
0.99824
0.998955
0.998743
0.998725
0.999842
0.999979
0.999969
0.998416
0.996064
0.996105
0.99839
0.999795
0.999725
1.56597e-07
2.97839e-06
3.23109e-06
4.64978e-05
0.000121717
0.082953
0.993175
1
1
1
1
0.999999
1
1
1
1
0.999982
0.999969
1
0.999997
0.999133
1
0.99989
1
0.999891
0.999674
0.998949
0.997907
0.997845
0.997817
0.997816
0.999168
0.998704
0.998687
1
0.999939
1
0.999859
1
0.999999
1
0.999996
0.999974
0.999968
0.99997
0.999973
0.996456
0.996123
0.997524
0.999681
0.99951
0.999297
4.4313e-08
1.71916e-06
1.11149e-06
1.61699e-06
2.85663e-06
0.283866
0.999047
1
1
1
1
1
1
1
1
0.999992
0.999995
0.999995
0.999997
0.999971
0.999984
1
0.999972
1
1
0.999971
0.999958
1
0.999971
1
0.999974
0.999998
1
0.999994
1
0.999998
1
0.999989
1
1
0.999575
1
0.999383
1
0.999941
1
0.999956
0.999045
0.999567
0.998142
0.998101
0.997983
0.997942
0.996829
0.99684
0.998315
0.998301
1
0.999585
1
0.999435
1
0.999101
1
0.999023
1
0.999074
1
0.999053
0.999988
0.99989
0.999997
0.999858
1
0.99999
0.999971
0.999954
0.997312
0.999001
0.999775
0.999878
0.998945
0.998736
1.8127e-08
5.9134e-07
4.68618e-07
8.4555e-08
1.65455e-06
0.482385
0.998669
1
1
1
1
1
1
1
0.999998
1
0.999999
1
0.999991
1
0.999992
1
0.999994
1
0.999995
1
1
1
0.999994
1
0.999998
1
0.999995
1
1
0.999981
1
1
0.999991
1
0.99998
0.999959
0.999988
1
0.999986
1
1
1
1
1
1
1
0.999995
1
1
0.999743
1
0.999608
1
0.99996
1
0.99997
0.999251
0.999856
0.999179
0.999171
0.998811
0.998794
0.996889
0.996845
0.996829
0.996829
0.997404
0.999982
0.997755
0.999983
0.997393
1
0.997696
1
0.999007
0.999267
1
0.998738
1
1
0.998972
0.99925
1
0.998671
1
1
1
0.999738
1
0.999573
1
0.999321
1
0.999322
0.999976
0.999899
0.99999
0.999895
1
1
0.999973
0.99998
0.999727
0.999918
0.999884
0.999162
0.998085
0.998408
4.20379e-08
2.85532e-07
9.67113e-08
4.50413e-09
5.2208e-06
0.467324
0.996292
0.999937
0.999961
1
1
1
1
1
1
1
1
0.999998
1
0.999998
1
1
1
1
1
0.999999
1
0.999999
1
1
1
1
1
0.999996
1
0.999989
1
1
1
0.999995
1
0.999995
1
0.999989
1
0.999998
1
0.999995
1
1
0.999896
1
0.999823
0.999896
0.999912
0.999788
0.999764
0.999643
0.999609
0.998324
0.998337
0.9976
0.997619
0.996742
0.997284
0.996905
0.998052
0.996803
0.997986
0.996839
0.997613
0.997155
0.999337
0.997065
0.998517
0.99719
0.999347
0.997036
0.998487
0.997767
1
0.998188
1
0.99775
1
0.99819
1
0.999565
0.998978
1
1
0.998845
1
0.999574
0.998933
1
1
0.998821
1
1
0.999889
0.999999
0.99986
1
0.999659
1
0.999672
0.999918
0.999886
0.997094
0.997751
0.996699
0.998356
1.84916e-08
4.97579e-08
1.60729e-09
5.70471e-09
1.45631e-05
0.312303
0.948947
0.992483
1
1
1
1
1
1
1
1
1
0.999998
1
0.999998
1
1
1
1
1
0.999999
1
0.999999
1
1
1
1
1
0.999998
1
0.999998
1
0.999918
0.999914
0.999912
0.999905
0.999868
0.999853
0.999187
0.999193
0.998745
0.998779
0.996522
0.998312
0.996526
0.998312
0.996527
0.998324
0.996524
0.997703
0.996532
0.996535
0.996529
0.997456
0.996531
0.997041
0.996527
0.996767
0.996889
0.998064
0.99705
0.998915
0.996949
0.998534
0.996964
0.998455
0.997451
0.999902
0.997282
0.999438
0.997465
0.999907
0.997253
0.999417
0.999917
0.995605
0.976712
0.996543
0.994656
0.998486
2.55954e-09
8.2998e-10
1.60285e-08
3.7836e-06
0.000215822
0.11884
0.748524
0.944958
0.99978
0.999774
0.992539
0.992391
1
1
0.999998
0.999998
1
1
1
1
1
1
1
1
1
1
1
1
1
1
1
1
0.999998
1
1
1
1
1
1
1
1
1
1
1
1
1
1
1
0.999918
0.999894
0.999804
0.999751
0.999701
0.999622
0.999586
0.998369
0.998305
0.997494
0.997464
0.996516
0.997596
0.996521
0.996468
0.996524
0.997293
0.996521
0.996508
0.996674
0.996913
0.996583
0.996508
0.99678
0.998105
0.996631
0.996468
0.996916
0.998351
0.996838
0.998817
0.996178
0.922343
0.943821
0.995386
0.993788
0.999046
5.58841e-11
3.44031e-09
1.19065e-05
0.000451437
0.00583528
0.0268796
0.374013
0.766144
1
1
0.979546
0.979504
1
1
1
1
1
1
1
1
1
1
1
1
1
1
1
1
1
1
1
1
1
1
1
1
1
1
1
1
1
1
0.998972
0.999917
0.999444
0.998093
0.998087
0.998658
0.998681
0.998962
0.998962
0.998533
0.99864
0.996508
0.996511
0.997441
0.996489
0.996537
0.996506
0.997742
0.996508
0.996468
0.996491
0.9965
0.996508
0.996508
0.996508
0.996468
0.99649
0.996513
0.996468
0.99657
0.996512
0.996559
0.9965
0.99664
0.996468
0.996783
0.997994
0.996687
0.997376
0.996837
0.998887
0.996749
0.997627
0.896048
0.676147
0.933936
0.995095
0.994196
8.45773e-11
4.72153e-06
0.000633384
0.00621616
0.0232677
0.0841546
0.142729
0.661214
0.66113
0.410626
0.410294
0.994584
1
0.98081
1
0.994486
1
0.980735
1
0.956778
0.957076
1
1
1
1
1
1
1
1
0.99926
1
0.999949
1
0.999222
1
0.999949
1
1
1
1
1
1
1
1
1
0.960495
0.999794
0.999714
0.998541
0.99804
0.998044
0.998036
0.99806
0.997758
0.997751
0.996515
0.998351
0.99932
0.996524
0.99652
0.99854
0.999321
0.996518
0.997989
0.996552
0.99737
0.996551
0.996508
0.996545
0.996513
0.996541
0.996502
0.99651
0.996468
0.996524
0.996468
0.99651
0.996813
0.996547
0.99652
0.996488
0.996515
0.996493
0.477807
0.579328
0.997701
0.991802
2.33831e-07
0.000274422
0.00452911
0.0186021
0.057617
0.168629
0.143448
0.144208
0.277647
0.27788
0.528434
0.529037
0.251721
0.252664
0.987884
1
0.969722
1
0.987795
1
0.969811
1
0.997107
0.727221
0.916726
0.837149
0.997947
0.726431
0.917207
0.836604
1
1
1
1
1
1
1
1
0.999823
1
0.999955
1
0.99986
1
0.999954
1
0.690944
0.997851
0.999774
0.999486
0.999358
0.999391
0.998894
0.998952
0.998583
0.99861
0.996669
0.997437
0.996684
0.99926
0.996659
0.997427
0.996673
0.999268
0.996541
0.996544
0.996538
0.996541
0.996522
0.99783
0.996542
0.996546
0.99654
0.996542
0.996526
0.998062
0.996524
0.996526
0.996526
0.996594
0.998418
0.996617
0.998423
0.996615
0.997918
0.99656
0.997709
0.996552
0.377504
0.953761
0.999289
2.15431e-05
0.00133319
0.00733667
0.0177645
0.0615356
0.202369
0.211652
0.212307
0.338082
0.33828
0.41198
0.677038
0.439222
0.297684
0.463012
0.912189
0.67666
0.411835
0.912844
0.440264
0.296697
0.463952
0.0986966
0.1661
0.127706
0.204967
0.101028
0.167355
0.129418
0.20648
0.980489
1
0.963765
0.999992
0.980453
1
0.963894
1
0.985665
0.752617
0.986799
0.751889
1
0.999981
1
0.99998
0.992211
1
0.991981
1
0.377504
0.930342
0.999356
0.999587
0.999323
0.99939
0.999536
0.999538
0.999611
0.99963
0.99937
0.999415
0.99957
0.997704
0.99994
0.997684
0.998993
0.9967
0.999818
0.997872
1
0.997853
0.999123
0.996688
0.996832
0.997663
0.996853
0.997784
0.996701
0.997067
0.996698
0.996536
0.998316
0.997013
0.996708
0.997135
0.996729
0.996536
0.998419
0.997029
0.996598
0.99843
0.99658
0.998122
0.705832
0.989029
0.000100168
0.00135779
0.00273637
0.00509815
0.0148131
0.199307
0.200985
0.0519253
0.0522233
0.243237
0.241366
0.34842
0.348587
0.557016
0.274282
0.248012
0.642679
0.156611
0.193134
0.556901
0.27374
0.643976
0.247533
0.156484
0.192291
0.0839957
0.0894193
0.0943748
0.12533
0.0823269
0.0921639
0.0954637
0.12557
0.883272
0.999138
0.882932
0.999324
0.480066
0.482451
0.982019
0.998816
0.999178
0.999195
0.99929
0.999392
0.999527
0.99841
1
0.999018
0.999937
0.998572
1
0.999138
0.999982
0.99898
0.997919
0.999981
0.999178
0.999937
1
0.999098
0.998083
0.999989
0.999205
0.999969
1
0.999957
0.999326
0.998181
0.997271
1
0.999633
0.998424
0.997362
0.997189
0.999266
0.99722
0.999539
0.997182
0.999359
0.99663
0.998575
0.997105
0.99956
0.996638
0.998763
0.96402
7.29316e-05
0.000448302
0.000673965
0.00213612
0.0157389
0.240639
0.242761
0.075588
0.0760886
0.484652
0.10884
0.381027
0.231422
0.484205
0.0992786
0.371551
0.217049
0.367392
0.367479
0.0840144
0.0981191
0.0976737
0.0829383
0.0822989
0.0936061
0.0977758
0.0829579
0.952849
0.743735
0.930323
0.967926
0.997507
0.998652
0.998572
0.998553
0.998552
0.999035
0.999029
0.998919
0.999079
0.997926
0.999922
0.998586
0.999675
0.998166
1
0.998792
0.99982
0.998938
0.999064
1
0.999969
0.998863
0.999737
0.998913
0.999147
0.999977
1
0.998964
0.99982
0.999789
0.99742
0.999999
0.997761
1.86773e-05
0.000108787
0.000155318
0.00192241
0.0207225
0.0208805
0.00777987
0.00781534
0.234073
0.235914
0.072592
0.0727684
0.485112
0.224542
0.484652
0.305952
0.484652
0.20611
0.472072
0.299542
0.272082
0.463355
0.295828
0.49346
0.272228
0.464353
0.294901
0.493814
0.124651
0.315631
0.113665
0.267185
0.958956
0.971971
0.978607
0.90739
0.994146
0.999141
0.999133
0.998558
0.998551
0.998539
0.99855
1
0.997642
0.999737
0.99724
1
0.997786
0.999835
0.997251
0.997927
0.999516
0.997977
0.999173
0.998037
0.999751
0.998181
0.999518
2.99284e-06
1.96894e-05
4.39086e-05
0.00253193
0.0252864
0.0254742
0.00951791
0.00950748
0.30461
0.46706
0.181987
0.231063
0.443275
0.146382
0.304838
0.466778
0.182726
0.231112
0.444053
0.146729
0.0690339
0.0691048
0.485575
0.256317
0.481421
0.312676
0.484473
0.243367
0.471517
0.307712
0.343848
0.493814
0.343148
0.494323
0.983434
0.991449
0.946128
0.892381
0.976139
0.975544
0.998985
0.999028
0.999524
0.999524
0.998873
0.998801
0.997556
1
0.997554
0.999844
0.99724
0.999623
0.997449
1
0.997447
0.999801
0.99725
0.999628
0.997477
0.999404
0.997498
0.999504
0.997414
0.999232
0.997463
0.999464
1.78768e-07
2.59171e-06
5.31824e-05
0.00130824
0.00129945
0.000675772
0.000677145
0.0268283
0.0269256
0.00700567
0.00686396
0.304764
0.500148
0.191544
0.249229
0.402024
0.157374
0.304676
0.499758
0.191486
0.249747
0.401856
0.157842
0.0385933
0.0369735
0.0737841
0.093302
0.0392707
0.0379297
0.0745315
0.094457
0.99733
0.99141
0.88766
0.917241
0.985206
0.984562
0.998795
0.998743
0.999502
0.999442
0.997559
1
1
0.998034
1
0.998033
1
0.997979
1
0.99798
0.997451
1
0.997721
0.997481
0.99997
0.999457
0.99768
0.997432
0.999947
0.9994
0.997427
0.99925
0.997373
0.999246
3.85909e-08
3.7026e-07
0.000499973
0.00165533
0.0016638
0.00104981
0.00105131
0.0452271
0.0745726
0.00771542
0.0285815
0.0305764
0.0099482
0.0460903
0.0765091
0.00744384
0.0286422
0.0297434
0.00961867
0.00371352
0.00363633
0.236529
0.134509
0.23738
0.135312
0.0817275
0.170734
0.0827125
0.172832
0.999053
0.975329
0.887509
0.91955
0.912743
0.956708
0.953577
0.980349
0.979134
0.998557
0.998424
0.999688
1
0.999138
1
0.998413
1
0.999606
0.998316
1
1
0.999078
1
0.997948
1
0.998296
1
0.998215
0.997835
1
0.999999
9.46654e-10
3.12753e-05
0.0006297
0.0023558
0.0023513
0.00123618
0.00123145
0.0442994
0.131472
0.0070693
0.0244229
0.0236156
0.00865678
0.0452146
0.132023
0.00690481
0.0242372
0.0230397
0.00839695
0.00235442
0.00373511
0.00226445
0.00225978
0.00237645
0.00372628
0.00226031
0.00225503
0.0524031
0.17258
0.0536571
0.172751
0.998244
0.966453
0.912753
0.942139
0.936115
0.952651
0.950455
0.966181
0.964249
0.99975
1
0.99999
0.999248
0.999991
0.985606
0.999692
1
0.99999
0.999076
0.999991
0.984035
0.999539
0.999004
1
1
0.998866
1
0.999517
1
8.02047e-06
7.66851e-05
5.09777e-06
0.000425461
0.000420496
4.58143e-06
7.26236e-07
7.07385e-07
0.000430331
0.0022007
0.00223162
0.000403365
0.00223117
0.00213218
0.0435708
0.0999517
0.0021825
0.00924517
0.00514599
0.00305132
0.0440884
0.0997896
0.00220959
0.00915015
0.00503458
0.00301987
0.00225643
0.00188275
0.00229023
0.0020743
0.99515
0.973339
0.963526
0.952351
0.947873
0.956392
0.954622
0.888081
0.999947
0.924242
0.999947
0.980922
0.99999
0.88412
0.978431
0.99999
0.999946
0.918699
0.999947
0.999818
0.999991
0.996429
0.999971
0.999773
0.999991
0.995529
0.99997
0.999656
1
0.999607
1
6.06729e-05
7.93444e-07
5.44921e-06
5.50055e-07
5.32232e-06
4.26197e-07
9.56094e-07
7.02626e-07
1.64956e-06
0.000525798
0.000785952
0.000704821
0.000756177
8.59774e-06
1.59873e-06
5.94589e-07
0.00050186
3.37271e-06
0.00140117
0.000752711
0.000886581
1.05304e-05
1.17924e-06
6.21125e-07
0.00207628
0.00295497
0.00249779
0.00292614
0.000951371
0.00112309
0.000999872
0.00276069
0.993182
0.987406
0.962064
0.967976
0.964076
0.963427
0.962366
0.962064
0.967996
0.888361
0.999948
0.966528
0.884384
0.999947
0.966427
0.920933
0.999948
0.999921
0.962787
0.999946
0.917695
0.999909
0.99988
0.999987
0.992438
0.999958
0.999863
0.999987
0.99095
0.999958
1.08532e-07
2.65419e-07
1.58402e-07
5.6984e-07
1.60263e-07
4.72705e-07
1.71212e-07
7.28817e-07
1.73199e-07
3.61637e-07
1.29466e-06
1.09413e-06
6.39468e-05
2.91341e-07
0.000891349
0.00201558
0.000143185
1.52558e-06
8.81793e-05
0.000897349
5.20833e-07
0.00251403
9.79705e-05
1.72349e-06
0.00263004
0.00170192
0.0027647
0.00172023
0.994767
0.99232
0.985165
0.97839
0.972074
0.986253
0.97966
0.976331
0.931835
0.898071
0.999949
0.888081
0.999948
0.999977
0.965114
0.999977
0.930399
0.895922
0.999948
0.88412
0.999948
0.999977
0.96085
0.999977
0.933215
0.905454
0.99995
0.999941
0.929244
0.99995
0.902208
0.999935
9.11713e-10
4.17768e-06
1.32366e-06
1.06384e-06
2.9958e-06
4.3196e-07
3.81858e-07
1.15363e-07
2.67165e-07
1.09056e-06
6.85389e-07
1.59278e-07
1.15988e-07
4.76398e-07
4.31171e-07
6.37339e-07
2.05213e-07
7.99101e-07
1.15099e-07
3.43729e-07
1.44149e-06
7.54674e-07
1.72136e-07
1.15051e-07
5.78804e-07
4.74157e-07
5.48081e-07
1.84192e-07
7.09831e-07
3.01448e-07
2.88242e-07
4.64291e-06
3.64646e-07
5.38855e-07
4.4377e-07
7.78963e-06
4.13091e-07
0.998287
0.995204
0.992297
0.984278
0.999978
0.978163
0.978233
0.999977
0.971031
0.992821
0.984731
0.98278
0.916473
0.952378
0.900498
0.999748
0.99995
0.999838
0.914141
0.95012
0.897314
0.999947
0.999661
0.999737
0.911115
0.99995
0.907277
0.999951
6.1836e-09
5.84236e-06
9.04726e-06
4.01524e-06
5.88809e-06
9.94144e-07
8.62645e-07
7.00469e-07
8.54867e-06
5.5256e-06
6.60154e-07
3.72925e-06
3.31286e-06
2.6456e-07
2.33528e-06
2.01206e-06
1.01508e-06
1.86599e-06
2.60253e-07
1.30582e-06
7.08374e-07
9.9757e-07
1.04464e-05
7.04566e-07
6.04815e-06
4.35828e-06
3.51984e-06
2.94348e-06
3.54774e-07
2.12939e-06
1.14703e-06
1.81709e-06
2.67025e-07
6.41563e-07
6.79295e-07
0.997535
0.988054
0.99585
0.99641
0.988052
0.997717
0.998007
0.978337
0.999978
0.981594
0.999978
0.979703
0.999978
0.983998
0.999978
0.965746
0.999978
0.969411
0.999978
0.968037
0.999978
0.972523
0.999978
0.988618
0.974786
0.999978
0.98769
0.96468
0.999978
0.926136
0.966352
0.999607
0.99997
0.924123
0.96188
0.999534
0.999971
1.35282e-07
1.3579e-05
7.69384e-07
2.93168e-06
1.28143e-05
9.22678e-06
7.14604e-07
1.72402e-06
8.1975e-06
1.78874e-06
1.43832e-06
1.68247e-05
1.10437e-05
1.22048e-05
1.01714e-05
5.33874e-06
7.49087e-07
1.56351e-05
7.90612e-06
1.78658e-06
3.59386e-07
2.06137e-05
1.20916e-05
1.53354e-05
1.03777e-05
7.62187e-06
2.08182e-05
1.1302e-06
8.54121e-06
2.09937e-06
4.66057e-07
0.995245
0.988865
0.998141
0.998422
0.989592
0.997921
0.997937
0.973425
0.981787
0.999978
0.999978
0.980147
0.999978
0.966338
0.970892
0.999978
0.999977
0.969997
0.999977
0.985344
0.975607
0.999979
0.974545
0.999979
1
0.99423
1
0.986479
0.969774
0.999979
0.964498
0.999978
1
0.995466
1
2.98766e-07
1.55875e-06
1.38036e-06
2.14721e-05
9.10426e-07
8.43842e-06
2.14255e-06
5.71877e-06
1.21211e-05
1.55432e-05
7.68815e-07
4.57948e-06
1.59545e-06
3.0769e-06
7.91702e-06
2.03793e-05
9.49008e-06
1.27286e-06
4.48721e-06
3.94402e-06
8.28963e-07
2.85686e-05
1.50556e-05
1.26399e-06
5.75927e-06
5.21245e-06
6.81485e-07
0.994913
0.987445
0.997793
1
0.994454
0.997818
1
0.994933
0.987697
0.996815
0.99661
0.979593
0.999978
0.977902
0.999978
0.968837
0.999976
0.967789
0.999978
0.979006
0.987282
0.977599
0.999979
0.999979
0.999982
0.976538
0.988626
0.968785
0.999978
0.999959
0.999932
4.27368e-10
1.31669e-06
4.22676e-07
1.24928e-06
4.10718e-07
2.19928e-05
7.6406e-06
1.02942e-05
2.28788e-06
9.67748e-06
1.70188e-06
1.72771e-06
5.71743e-06
1.7224e-05
5.67994e-06
6.4283e-06
1.99503e-06
6.83237e-06
5.76515e-07
7.35594e-07
3.78865e-06
6.55638e-06
3.77474e-06
9.96927e-06
4.65851e-06
0.994765
0.985828
0.985762
0.997903
1
0.994801
1
0.993606
0.997678
0.999979
0.994579
0.999986
0.994036
0.995143
0.994722
0.97809
0.977885
0.988657
0.999978
0.999979
0.999981
0.977878
0.972411
0.99022
0.999979
0.999951
0.999904
2.38441e-16
1.04965e-11
6.01977e-28
1.03592e-11
1.81589e-28
6.0219e-07
4.14698e-07
1.27345e-05
1.73352e-05
1.1873e-05
1.42426e-05
9.33935e-06
5.14674e-06
1.79595e-06
2.85264e-06
2.01084e-06
4.32154e-06
4.28463e-06
9.08173e-06
8.53287e-06
6.95749e-06
7.69369e-06
7.39514e-06
2.2463e-06
3.69621e-07
1.23738e-06
3.70767e-07
2.97638e-06
2.44904e-06
0.994035
0.98545
0.98545
0.98545
0.98545
0.997708
1
0.99584
1
0.995982
0.991113
0.999981
0.997471
1
0.995546
0.999987
0.995709
0.991776
0.999888
0.991708
0.991694
0.979376
0.999979
0.98129
0.999945
7.06005e-17
3.88163e-17
5.29725e-34
2.33997e-17
2.37318e-34
3.08591e-11
1.42096e-13
2.92573e-11
7.74355e-14
2.4474e-06
2.03031e-06
5.84238e-06
6.76148e-06
1.06717e-05
4.70754e-06
1.56112e-05
3.2595e-06
2.02848e-05
3.41556e-06
1.61423e-05
5.33011e-06
9.3612e-06
7.31338e-06
3.58515e-06
4.75294e-06
6.75537e-06
3.06619e-06
4.89936e-06
5.59573e-07
5.93802e-06
4.89304e-07
5.73882e-06
1.35296e-06
3.89987e-06
1.66761e-06
0.991673
0.985486
0.989808
0.98545
0.988688
0.988566
0.98891
0.997441
0.999982
0.995936
0.999982
0.995964
0.999982
0.993034
0.999982
0.993939
0.98436
0.999979
0.997288
0.999978
0.995706
0.999982
0.995829
0.999888
0.992791
0.999877
0.993357
0.98716
0.99991
3.10403e-12
6.16955e-17
5.9397e-17
5.99194e-17
5.9397e-17
7.65569e-13
4.39642e-13
3.72787e-13
1.74012e-13
3.22853e-07
9.46278e-08
2.48812e-07
6.66203e-08
1.99862e-06
8.93438e-07
4.1324e-07
1.48532e-06
1.42692e-06
7.5161e-07
3.54338e-07
1.21153e-06
1.111e-05
2.37847e-06
1.67294e-05
1.46451e-06
4.19407e-06
3.95164e-07
5.86854e-06
3.49364e-07
0.994233
0.994528
0.993819
0.993965
0.993552
0.990224
0.994032
0.98995
0.993748
0.995932
0.996682
0.999904
0.996204
0.999977
0.995957
0.999982
0.994713
0.999979
0.993989
0.99998
0.987705
0.99998
0.991232
0.999901
0.995875
0.999976
0.995773
0.999913
0.994389
0.999978
0.993576
0.999858
0.98898
0.999884
0.990695
2.3349e-11
8.62003e-10
1.02459e-13
4.35777e-15
3.40753e-14
1.00158e-15
1.07706e-08
2.23308e-10
6.31462e-09
9.39306e-11
5.30342e-08
2.31531e-07
2.44956e-07
6.48911e-08
6.10343e-08
3.87992e-08
4.80945e-08
5.31479e-08
4.04608e-08
1.78478e-07
1.93832e-07
4.83573e-08
4.05581e-08
2.51565e-08
3.24565e-08
3.88469e-08
3.70795e-06
3.63542e-07
6.93731e-07
7.06816e-07
1.72977e-06
1.05958e-07
4.79883e-07
2.25649e-07
0.997917
0.990995
0.992741
0.991026
0.992267
0.997728
0.998192
0.997516
0.998021
0.995985
0.996367
0.99654
0.996636
0.99989
0.997367
0.999797
0.99647
0.999871
0.997409
0.999787
0.996404
0.999886
0.994497
0.999972
0.993713
0.999846
0.994154
0.999971
0.99337
1.63091e-08
1.03514e-13
1.41923e-11
1.03507e-13
1.24667e-11
7.52303e-09
4.42017e-12
5.75436e-13
1.15253e-12
1.26916e-13
9.54236e-10
6.87845e-09
2.14917e-08
1.58584e-09
9.06672e-11
1.41416e-12
1.11877e-11
1.62479e-10
5.8347e-10
3.97796e-09
1.48641e-08
3.6934e-10
3.13252e-11
2.64447e-13
3.52447e-12
6.02757e-11
1.16954e-07
2.0598e-07
2.9377e-07
8.77957e-08
8.7728e-08
4.19981e-08
5.37031e-08
5.51441e-08
5.56593e-08
8.48699e-08
2.11011e-07
3.67748e-08
4.50454e-08
1.8227e-08
2.99673e-08
3.32328e-08
0.997739
0.995584
0.998309
0.99745
0.998301
0.997658
0.998243
0.998981
0.998177
0.999068
0.999998
0.998569
0.99993
0.998405
0.999856
0.994974
0.999409
0.997065
0.999997
0.998541
0.999915
0.998498
0.999889
0.995851
0.999525
0.99764
0.99958
0.991742
0.999319
0.992308
0.999513
0.991914
0.999273
0.992105
2.91675e-07
1.21267e-11
1.53689e-09
1.21269e-11
8.62721e-10
8.64767e-13
4.68527e-12
2.98679e-13
2.89158e-12
1.87633e-10
1.03712e-11
3.4134e-12
1.20175e-11
1.50668e-12
7.28297e-12
3.89951e-13
4.20504e-12
7.41293e-13
3.14897e-12
7.46657e-13
3.87858e-12
2.51675e-13
2.08092e-12
7.79673e-14
1.20889e-12
1.08076e-13
2.78855e-09
8.56456e-09
1.96735e-08
6.469e-10
2.29113e-10
1.41608e-12
1.96354e-11
5.05599e-11
1.47254e-09
3.7353e-09
1.10495e-08
1.30929e-10
1.06878e-10
2.72641e-13
4.48655e-12
1.68364e-11
0.996114
0.985414
0.994299
0.973579
0.997102
0.985908
0.998931
0.999323
0.999162
0.999445
0.999736
0.994999
0.999353
0.997919
0.999989
0.997383
0.999956
0.9984
0.999745
0.995488
0.999462
0.997797
0.999989
0.998848
0.99999
0.99887
0.9997
0.995115
0.999524
0.995663
0.999654
0.991086
0.999219
0.993692
0.999655
0.995289
0.999437
0.996191
0.999804
0.993405
0.999544
0.995162
6.4981e-07
3.62586e-08
6.02127e-11
1.3742e-08
5.34719e-11
1.56103e-08
4.62223e-13
3.90578e-13
8.16449e-13
6.27103e-13
3.532e-13
3.8388e-12
3.38432e-12
8.10941e-13
8.47284e-14
1.73405e-13
1.96046e-14
3.86278e-14
1.60812e-13
1.89708e-13
1.73053e-13
7.71599e-13
1.94429e-12
4.19361e-13
9.2172e-15
1.31133e-13
1.2143e-08
8.76101e-12
1.44839e-12
1.11285e-11
9.96321e-13
6.54609e-12
6.41811e-13
1.52472e-12
2.88829e-13
1.98076e-12
1.54191e-13
1.1846e-12
7.96631e-14
5.56723e-15
1.26343e-12
7.62362e-12
5.56723e-15
5.56723e-15
5.56723e-15
1.12212e-12
5.56723e-15
0.991687
0.965294
0.916606
0.766869
0.946142
0.792739
0.98855
0.959019
0.992298
0.96941
0.999491
0.99385
0.999631
0.994122
0.999924
0.99856
1
0.997217
0.999862
0.998227
0.999945
0.998159
0.999975
0.999452
1
0.999006
0.999125
0.990199
0.99861
0.994171
0.999826
0.991014
0.9995
0.995736
0.999489
0.992565
0.999299
0.994747
0.9999
0.995735
0.999863
0.996842
8.52843e-07
1.42242e-07
2.60001e-07
1.52138e-07
2.03133e-07
3.98831e-07
2.40891e-11
2.38193e-09
2.16416e-11
3.08961e-09
4.36503e-13
1.50018e-13
2.59487e-12
1.35941e-13
2.67834e-13
2.60507e-13
2.23784e-12
5.82258e-13
8.40099e-14
2.98537e-13
1.77461e-14
5.56723e-15
3.30234e-13
5.49248e-14
2.04101e-14
7.07895e-13
1.03067e-12
1.23785e-12
9.22538e-15
1.07407e-12
9.20659e-10
2.61987e-13
1.58403e-12
9.22057e-12
5.77912e-14
3.31071e-12
7.19015e-13
2.12535e-14
2.56718e-14
1.26967e-12
1.21127e-14
3.36907e-13
3.78316e-14
0.971383
0.923877
0.878367
0.87409
0.760593
0.904861
0.761393
0.956137
0.983137
0.987416
0.951268
0.993384
0.995842
0.905555
0.993384
0.938703
0.993373
0.991418
0.967876
0.986718
0.961706
0.993349
0.996527
0.912505
0.993373
0.94747
0.993384
0.988427
0.977169
0.995978
0.966067
0.989357
0.971082
0.99653
0.990693
0.998884
0.985345
0.993832
0.986052
0.999709
0.985244
0.999299
0.993607
0.999879
0.991454
0.999606
0.994423
1.23011e-06
6.62258e-07
5.8033e-07
5.38527e-07
5.28519e-07
5.72343e-09
1.83288e-08
6.59904e-09
9.98015e-09
1.26273e-07
1.18374e-11
1.923e-12
2.06588e-12
1.66875e-11
2.39262e-11
1.27938e-09
3.5993e-10
1.66729e-11
1.49382e-11
8.90379e-13
2.33526e-12
1.41513e-11
2.70911e-11
1.63533e-09
4.42229e-10
1.41804e-11
5.56723e-15
5.56723e-15
1.95465e-12
8.61428e-13
9.22538e-15
9.2172e-15
5.56723e-15
5.56723e-15
8.85789e-13
9.51513e-13
9.2172e-15
9.22538e-15
8.4531e-12
0.909412
0.772094
0.82111
0.862762
0.884811
0.868236
0.883268
0.866817
0.846203
0.876705
0.858482
0.94503
0.943165
0.967183
0.968829
0.950098
0.990671
0.893562
0.988034
0.919804
0.987673
0.961683
0.949313
0.971598
0.966673
0.953842
0.990133
0.904739
0.987367
0.927762
0.987805
0.968167
0.963088
0.994953
0.931536
0.951567
0.928043
0.985592
0.980085
0.997643
0.957454
0.965024
0.947582
6.71234e-06
1.80854e-06
7.00256e-08
1.06528e-07
3.9516e-08
9.03276e-08
5.59975e-10
2.47007e-10
1.06225e-09
5.34224e-10
2.3844e-09
2.32665e-10
5.34224e-10
5.59975e-10
5.59975e-10
7.98777e-09
1.16505e-09
3.19364e-10
1.30512e-09
1.06999e-09
3.66818e-09
2.85179e-10
5.59975e-10
5.34224e-10
6.47128e-10
1.17173e-08
1.83601e-08
5.16246e-11
1.923e-12
1.37685e-11
1.62422e-11
7.03725e-11
1.64548e-11
5.83083e-11
8.94979e-13
1.54853e-11
1.72874e-11
7.65824e-11
1.42091e-11
5.57503e-15
0.836547
0.511988
0.602774
0.906559
0.878513
0.900521
0.867396
0.948622
0.954608
0.94536
0.952862
0.976893
0.865976
0.974893
0.8612
0.981823
0.855356
0.982182
0.86748
0.975544