/*--------------------------------*- C++ -*----------------------------------*\
| =========                 |                                                 |
| \\      /  F ield         | OpenFOAM: The Open Source CFD Toolbox           |
|  \\    /   O peration     | Version:  5.x                                   |
|   \\  /    A nd           | Web:      www.OpenFOAM.org                      |
|    \\/     M anipulation  |                                                 |
\*---------------------------------------------------------------------------*/
FoamFile
{
    version     2.0;
    format      ascii;
    class       surfaceScalarField;
    location    "2.6";
    object      alphaPhi10;
}
// * * * * * * * * * * * * * * * * * * * * * * * * * * * * * * * * * * * * * //

dimensions      [0 3 -1 0 0 0 0];

internalField   nonuniform List<scalar> 
30582
(
8.64759e-05
2.20784e-06
8.05387e-05
5.93718e-06
8.65325e-05
4.37759e-06
7.0616e-05
9.92271e-06
8.04354e-05
1.20343e-05
8.65641e-05
6.55498e-06
5.6559e-05
1.4057e-05
7.04655e-05
1.98927e-05
8.05208e-05
1.80777e-05
8.60665e-05
9.2873e-06
3.79671e-05
1.85919e-05
5.60674e-05
2.8455e-05
7.06951e-05
2.97183e-05
7.88957e-05
2.52485e-05
8.59979e-05
1.21635e-05
1.74075e-05
2.05596e-05
3.73396e-05
3.73198e-05
5.6699e-05
4.24511e-05
6.82752e-05
4.03388e-05
7.87525e-05
3.24939e-05
8.39243e-05
1.72102e-05
-2.91678e-06
2.03243e-05
1.7065e-05
4.08342e-05
3.82799e-05
5.57389e-05
5.35581e-05
5.71682e-05
6.82223e-05
5.0869e-05
7.37608e-05
4.26574e-05
8.42586e-05
2.20374e-05
-2.26496e-05
1.97328e-05
-3.17186e-06
4.05612e-05
1.77721e-05
6.13419e-05
3.53494e-05
7.39476e-05
5.39894e-05
7.14011e-05
6.10397e-05
6.35902e-05
7.4118e-05
5.2797e-05
7.0006e-05
4.12499e-05
-4.07217e-05
1.80721e-05
-2.29058e-05
3.94667e-05
-2.85089e-06
6.11842e-05
1.57262e-05
8.09651e-05
3.66936e-05
9.12434e-05
4.66411e-05
8.57996e-05
6.19454e-05
7.57625e-05
5.40271e-05
6.6938e-05
-1.84078e-06
6.53424e-07
-5.59333e-05
1.52116e-05
-4.11356e-05
3.63019e-05
-2.30221e-05
5.9638e-05
-4.40766e-06
8.13181e-05
1.74304e-05
0.000100228
3.16891e-05
0.000106195
4.79613e-05
9.97837e-05
4.40031e-05
8.44933e-05
-5.94345e-06
2.23183e-05
-1.27937e-05
4.88978e-07
-6.69572e-05
1.10239e-05
-5.65915e-05
3.06675e-05
-4.19032e-05
5.51829e-05
-2.45208e-05
7.97511e-05
-3.289e-06
0.000102037
1.45222e-05
0.000117395
3.35907e-05
0.000120566
3.14878e-05
0.000111491
2.49948e-06
2.40765e-05
-1.55562e-05
2.25077e-07
1.38868e-07
8.46917e-09
-7.2915e-05
5.95783e-06
-6.78406e-05
2.2273e-05
-5.8035e-05
4.67993e-05
-4.39158e-05
7.4578e-05
-2.47612e-05
0.000101223
-5.18056e-06
0.00012174
1.654e-05
0.000134446
2.16682e-05
0.000129474
4.31995e-06
4.18018e-05
-2.31726e-05
3.59164e-07
1.12633e-07
6.82045e-10
1.74764e-09
1.64344e-11
-7.35656e-05
6.50597e-07
-7.39693e-05
1.20866e-05
-6.9822e-05
3.40601e-05
-6.08406e-05
6.3724e-05
-4.57131e-05
9.55299e-05
-2.66537e-05
0.000122696
-4.16163e-06
0.000142441
8.77239e-06
0.000146201
8.38843e-06
5.23409e-05
-2.70246e-05
2.84285e-07
-5.00958e-09
1.70716e-09
5.68235e-10
8.5973e-13
-2.01254e-13
1.6651e-15
-6.89998e-05
-4.56585e-06
-7.46912e-05
1.37243e-06
-7.62073e-05
1.84718e-05
-7.33736e-05
4.65931e-05
-6.40481e-05
8.2059e-05
-4.85011e-05
0.000117377
-2.80056e-05
0.000146539
-7.98641e-06
0.000157808
1.07566e-05
6.5672e-05
-2.9339e-05
6.54847e-07
-4.04889e-08
5.20283e-11
6.71806e-11
3.75984e-12
-2.85984e-13
1.53301e-18
2.2518e-16
2.36925e-19
-5.9892e-05
-9.10785e-06
-7.0086e-05
-9.17105e-06
-7.68148e-05
1.9799e-06
-8.03981e-05
2.54963e-05
-7.75122e-05
6.00572e-05
-6.84361e-05
0.000101994
-5.28522e-05
0.000142222
-2.95026e-05
0.000166608
7.65008e-06
8.05764e-05
-3.04059e-05
1.85333e-06
-3.71282e-07
2.60193e-10
2.86306e-12
2.39174e-14
-8.94678e-16
1.01905e-15
5.42208e-17
-7.48597e-23
-2.13053e-22
-4.73291e-05
-1.25629e-05
-6.09791e-05
-1.82148e-05
-7.21399e-05
-1.38459e-05
-8.12235e-05
2.80528e-06
-8.47156e-05
3.26998e-05
-8.35962e-05
7.52174e-05
-7.54473e-05
0.000124587
-5.41903e-05
0.000165597
-1.49089e-06
0.000105118
-3.08886e-05
4.04145e-06
-1.66853e-06
3.97293e-09
-4.003e-12
1.49423e-14
-1.59675e-16
5.04537e-18
2.07112e-17
1.29026e-19
-4.92784e-21
-3.16756e-05
-1.56535e-05
-4.83004e-05
-2.52415e-05
-6.2802e-05
-2.75527e-05
-7.59592e-05
-1.91102e-05
-8.54647e-05
3.55437e-06
-9.22657e-05
4.13693e-05
-9.23207e-05
9.20893e-05
-7.80819e-05
0.000147422
-1.53417e-05
0.000121297
-3.22156e-05
7.52868e-06
-3.48086e-06
1.03943e-08
-1.11577e-10
1.99064e-13
5.44877e-16
3.54297e-18
1.08153e-19
1.75058e-21
-3.45436e-23
-1.30633e-05
-1.86123e-05
-3.25771e-05
-3.13768e-05
-4.99983e-05
-3.80453e-05
-6.60046e-05
-3.75072e-05
-8.02083e-05
-2.43666e-05
-9.31314e-05
4.42004e-06
-0.000101522
5.05704e-05
-9.66994e-05
0.000110006
-3.14588e-05
0.000120082
-3.494e-05
1.17592e-05
-5.62535e-06
3.31671e-08
-9.07464e-10
9.31214e-13
4.72008e-15
8.35898e-18
6.00524e-20
5.0138e-22
-4.50946e-24
8.41063e-06
-2.14739e-05
-1.39974e-05
-3.7192e-05
-3.4296e-05
-4.7079e-05
-5.28659e-05
-5.1184e-05
-6.98953e-05
-4.78202e-05
-8.63959e-05
-3.11021e-05
-0.000102164
5.06151e-06
-0.000107708
6.12315e-05
-4.62209e-05
9.70604e-05
-3.90861e-05
1.48239e-05
-7.63807e-06
7.44647e-08
-2.66976e-09
5.17955e-12
2.55218e-14
2.801e-17
8.43169e-20
8.48065e-22
3.82458e-25
3.27612e-05
-2.43506e-05
7.44837e-06
-4.29197e-05
-1.57518e-05
-5.57363e-05
-3.70422e-05
-6.29027e-05
-5.62953e-05
-6.4784e-05
-7.4378e-05
-5.98382e-05
-9.4821e-05
-3.84448e-05
-0.000109255
6.52501e-06
-5.58484e-05
5.74976e-05
-4.27645e-05
1.40153e-05
-9.43158e-06
1.3178e-07
-3.18705e-09
9.9479e-12
1.25784e-13
1.10984e-16
-1.60598e-19
1.73743e-21
7.88858e-24
5.98552e-05
-2.70939e-05
3.18222e-05
-4.87245e-05
5.62659e-06
-6.42981e-05
-1.8667e-05
-7.41116e-05
-4.03527e-05
-7.88453e-05
-6.00379e-05
-7.9124e-05
-8.19245e-05
-7.27347e-05
-0.000100775
-4.68444e-05
-5.86553e-05
7.514e-06
-4.2941e-05
8.32747e-06
-1.1157e-05
1.52487e-07
-4.06394e-09
1.83565e-11
2.12466e-13
1.3178e-16
-1.13216e-18
3.9729e-21
3.04118e-23
8.93159e-05
-2.94607e-05
5.90234e-05
-5.42951e-05
2.99653e-05
-7.30632e-05
2.40332e-06
-8.53683e-05
-2.19668e-05
-9.24975e-05
-4.41949e-05
-9.46883e-05
-6.70541e-05
-9.39944e-05
-8.69663e-05
-8.62931e-05
-5.51489e-05
-4.04265e-05
-3.84065e-05
-1.7957e-06
-1.24351e-05
1.58528e-09
-1.69651e-08
4.93236e-11
3.27469e-13
2.15761e-16
-1.99827e-18
3.37486e-21
6.9833e-23
0.000120322
-3.10061e-05
8.87085e-05
-5.91458e-05
5.72651e-05
-8.15949e-05
2.68442e-05
-9.75041e-05
-9.43702e-07
-0.000106391
-2.65073e-05
-0.000110185
-5.05847e-05
-0.000111158
-7.15357e-05
-0.000109067
-4.74663e-05
-7.67334e-05
-3.05841e-05
-1.54202e-05
-1.25046e-05
-2.12055e-07
-9.24636e-08
1.70812e-10
2.49161e-12
1.05547e-15
-1.95027e-18
4.72707e-21
8.05856e-23
0.000151747
-3.14255e-05
0.000120045
-6.23427e-05
8.73679e-05
-8.92485e-05
5.45082e-05
-0.000109259
2.30472e-05
-0.000121495
-6.23604e-06
-0.000126663
-3.25073e-05
-0.000128262
-5.54434e-05
-0.000126715
-3.59096e-05
-9.88365e-05
-2.07753e-05
-2.75722e-05
-1.10083e-05
-7.19294e-07
-2.57203e-07
-3.16042e-10
5.0477e-11
2.14435e-14
2.57743e-17
3.59258e-20
9.43121e-23
0.000182344
-3.05966e-05
0.000151883
-6.32635e-05
0.000119392
-9.43671e-05
8.53484e-05
-0.000120089
5.06805e-05
-0.000136892
1.73249e-05
-0.000145056
-1.30087e-05
-0.000146158
-3.82952e-05
-0.000144454
-2.4451e-05
-0.000110715
-1.00557e-05
-3.50298e-05
-8.25947e-06
-1.25288e-06
-3.79117e-07
-3.24657e-09
2.8567e-10
-7.96453e-14
3.74006e-15
2.29154e-19
6.60819e-22
0.00021095
-2.86057e-05
0.000182893
-6.16066e-05
0.000152059
-9.59303e-05
0.000118467
-0.000127486
8.23076e-05
-0.000151716
4.54483e-05
-0.000165015
9.44866e-06
-0.000167495
-1.85095e-05
-0.000163927
-1.40911e-05
-0.000118481
1.44876e-06
-3.59528e-05
-5.45179e-06
-1.58375e-06
-3.47862e-07
-8.71149e-09
7.64696e-10
-1.53329e-12
6.94967e-14
-5.98405e-18
-2.892e-20
0.000236629
-2.5679e-05
0.000211878
-5.75904e-05
0.000183935
-9.34831e-05
0.000152401
-0.000129864
0.000116891
-0.000162069
7.84293e-05
-0.000184697
3.82075e-05
-0.000193719
4.44506e-06
-0.0001864
1.36204e-07
-0.000129397
1.09405e-05
-3.10564e-05
-2.89805e-06
-1.55034e-06
-2.31841e-07
-1.25848e-08
1.25105e-09
-6.13817e-12
3.67044e-13
-9.22529e-17
-8.26194e-19
0.000258776
-2.21477e-05
0.000237854
-5.16549e-05
0.000213669
-8.73241e-05
0.000185616
-0.000126698
0.000152672
-0.000165645
0.000115066
-0.000198706
7.2857e-05
-0.00021922
3.36884e-05
-0.000215705
2.1638e-05
-0.000141975
1.64242e-05
-2.28855e-05
-5.63117e-07
-1.25962e-06
-1.80055e-07
-1.17731e-08
1.5509e-09
-9.61487e-12
7.15799e-13
-4.25408e-16
-1.35817e-18
0.000277072
-1.82954e-05
0.000260222
-4.45159e-05
0.000240195
-7.81811e-05
0.000216537
-0.000118245
0.000187795
-0.000161821
0.000153187
-0.000203765
0.000111846
-0.000237465
6.87921e-05
-0.000242487
4.505e-05
-0.00014843
1.95394e-05
-1.57629e-05
8.41694e-07
-8.83198e-07
-1.72222e-07
-9.09468e-09
1.73528e-09
-9.20168e-12
7.18702e-13
-6.353e-16
8.35328e-18
0.00029138
-1.43087e-05
0.00027867
-3.67433e-05
0.000262923
-6.72438e-05
0.000244005
-0.000105649
0.000220322
-0.000150772
0.000190768
-0.000199402
0.000152726
-0.000244292
0.000107641
-0.000258472
6.5404e-05
-0.00013674
2.0147e-05
-1.05946e-05
8.93582e-07
-5.83663e-07
-1.29917e-07
-6.98119e-09
1.62531e-09
-8.51519e-12
8.24005e-13
-6.20319e-16
1.54554e-17
0.000301683
-1.03023e-05
0.000293124
-2.87634e-05
0.000281635
-5.54555e-05
0.000267388
-9.06273e-05
0.000248858
-0.000134185
0.000225545
-0.000185548
0.000193357
-0.000239577
0.000147446
-0.000260281
8.22264e-05
-0.000113962
1.91421e-05
-7.07991e-06
7.00948e-07
-4.08527e-07
-5.85036e-08
-5.11858e-09
9.74907e-10
-8.87151e-12
1.04473e-12
-1.09449e-15
1.71479e-17
0.000308038
-6.35553e-06
0.000303608
-2.07859e-05
0.000296298
-4.34265e-05
0.000286513
-7.45803e-05
0.000272877
-0.000114646
0.000255708
-0.000164349
0.000230945
-0.000222642
0.000185894
-0.000250142
9.82172e-05
-9.36573e-05
1.8481e-05
-4.96435e-06
6.37512e-07
-3.03912e-07
-1.74442e-08
-4.34205e-09
5.65742e-10
-1.08344e-11
9.11798e-13
-1.74384e-15
8.3455e-18
0.000310318
-2.27913e-06
0.000310092
-1.28395e-05
0.000306896
-3.13828e-05
0.000301528
-5.84418e-05
0.000292355
-9.40587e-05
0.000280696
-0.000139633
0.000263473
-0.000196428
0.000221744
-0.000229688
0.000115044
-7.78461e-05
1.78962e-05
-3.70367e-06
6.57434e-07
-2.21961e-07
-9.66183e-10
-4.31437e-09
3.70294e-10
-1.67917e-11
6.79243e-13
-3.11275e-15
-3.33477e-17
0.000308694
1.62337e-06
0.00031247
-4.65705e-06
0.000313453
-1.93969e-05
0.000312634
-4.24887e-05
0.000307687
-7.37736e-05
0.000300838
-0.0001142
0.000289493
-0.000165292
0.000253273
-0.000201626
0.000133733
-6.58049e-05
1.79671e-05
-2.98224e-06
7.07027e-07
-1.64306e-07
3.16925e-09
-3.81476e-09
1.97569e-10
-2.52045e-11
8.81685e-13
-6.34437e-15
-5.92523e-17
0.00030382
4.87432e-06
0.000310936
3.15791e-06
0.000316126
-7.32971e-06
0.00031975
-2.65128e-05
0.000319078
-5.38794e-05
0.000316666
-8.96019e-05
0.000309067
-0.00013352
0.000279139
-0.00016912
0.000152904
-5.61673e-05
1.92945e-05
-2.53118e-06
7.6853e-07
-1.35059e-07
3.77293e-09
-2.80213e-09
5.30299e-11
-2.58164e-11
7.65353e-13
-9.75422e-15
-2.02499e-17
0.000295499
8.32065e-06
0.000305455
1.03551e-05
0.000314615
4.669e-06
0.000322312
-9.8911e-06
0.000326556
-3.39912e-05
0.000329107
-6.63199e-05
0.000324167
-0.000104537
0.000299062
-0.000136629
0.000173892
-4.82484e-05
2.18052e-05
-2.19623e-06
8.63648e-07
-1.15604e-07
4.00607e-09
-2.15352e-09
-1.63446e-11
-1.92211e-11
3.21608e-13
-8.50844e-15
1.57823e-17
0.000284243
1.12563e-05
0.000296801
1.6974e-05
0.000308959
1.60112e-05
0.000320437
6.54391e-06
0.000329864
-1.31988e-05
0.000337747
-4.26311e-05
0.000336726
-7.87776e-05
0.000314825
-0.000108183
0.000193895
-4.08215e-05
2.59313e-05
-1.94775e-06
1.00503e-06
-9.66796e-08
3.77152e-09
-1.52721e-09
-5.74382e-11
-1.53269e-11
-3.2409e-14
-5.19598e-15
8.46849e-18
0.000270864
1.33792e-05
0.000285496
2.25621e-05
0.00029987
2.60622e-05
0.000314457
2.19908e-05
0.000328189
8.2194e-06
0.000340922
-1.63744e-05
0.000346665
-5.25118e-05
0.000328491
-8.40188e-05
0.000209918
-3.38519e-05
3.22205e-05
-1.73263e-06
1.1717e-06
-7.92399e-08
3.05929e-09
-9.0896e-10
-7.71016e-11
-1.06232e-11
-1.67803e-13
-4.0613e-15
-1.5608e-18
0.000255893
1.49708e-05
0.000272085
2.67897e-05
0.000287972
3.44602e-05
0.000304825
3.5694e-05
0.000321516
2.86635e-05
0.000338797
1.03445e-05
0.000352871
-2.25557e-05
0.000338822
-5.75026e-05
0.000219092
-2.6614e-05
4.02679e-05
-1.54983e-06
1.39161e-06
-5.95226e-08
1.84937e-09
-5.94337e-10
-7.78741e-11
-4.98119e-12
-1.11692e-13
-2.66172e-15
-2.91274e-18
1.56187e-05
0.000240274
0.000257049
3.0007e-05
0.000273929
4.0833e-05
0.000292295
4.69905e-05
0.000310722
4.64881e-05
0.000331604
3.58563e-05
0.000352114
1.11031e-05
0.000343981
-2.51304e-05
0.000218468
-1.65434e-05
4.89675e-05
-1.31372e-06
1.62204e-06
-3.26007e-08
-5.75258e-10
-4.10381e-10
-7.96455e-11
-1.9853e-12
-5.04094e-14
-1.02411e-15
2.7081e-18
3.16087e-05
0.000241059
3.7965e-05
0.000202309
0.000258334
4.56023e-05
0.000277547
5.55808e-05
0.000296772
6.09401e-05
0.000319983
5.81093e-05
0.000343657
4.43038e-05
0.000340799
1.42582e-05
0.000207533
-2.57108e-06
5.69455e-05
-8.10739e-07
1.88134e-06
-1.32395e-08
-1.81232e-09
-2.06025e-10
-6.56733e-11
-8.05421e-13
-3.63975e-14
-3.01024e-16
3.97799e-18
4.82031e-05
0.000241739
7.69431e-05
0.000202081
3.25496e-05
0.00016976
0.000261232
6.19179e-05
0.000280544
7.18095e-05
0.000305202
7.57217e-05
0.000329757
7.1985e-05
0.000328915
5.42318e-05
0.000196926
1.26471e-05
6.32618e-05
1.9904e-07
2.24307e-06
-5.05782e-09
-2.01414e-09
-7.7308e-11
-3.8996e-11
-2.58182e-13
-1.90295e-14
-7.58895e-17
1.20825e-18
6.56597e-05
0.000243775
0.00011732
0.000201363
6.62651e-05
0.000168365
2.26156e-05
0.000147144
0.000262838
7.96238e-05
0.000288086
8.89249e-05
0.000312316
9.312e-05
0.000312611
8.51062e-05
0.00019083
2.66246e-05
6.67122e-05
1.67463e-06
2.9301e-06
5.33944e-09
-2.47575e-09
-2.28376e-11
-2.00071e-11
-6.0907e-14
-4.98494e-15
-1.25659e-17
-1.21481e-19
8.43068e-05
0.00024419
0.000160147
0.000200948
0.00010149
0.000166138
4.76927e-05
0.000143288
6.31785e-06
0.000140826
0.000269342
9.83673e-05
0.000292585
0.000108594
0.000293588
0.000108126
0.000187009
3.82591e-05
6.58007e-05
3.28286e-06
3.92391e-06
3.46716e-08
-2.52721e-09
-6.98237e-12
-9.54802e-12
-1.25265e-14
-4.00581e-16
-1.83239e-18
-1.4275e-19
0.000104496
0.000249153
0.000205059
0.000199278
0.000140286
0.000162151
7.46442e-05
0.000139186
1.54481e-05
0.000134158
-1.65971e-05
0.000157423
0.000271461
0.000119404
0.000272103
0.000125519
0.000182019
4.89636e-05
6.19848e-05
4.50998e-06
4.78597e-06
7.86359e-08
6.78252e-09
6.47183e-12
-8.73644e-12
-3.12485e-15
2.04396e-16
-3.50061e-19
-6.84994e-20
0.000126086
0.000249757
0.000254534
0.000199677
0.000181841
0.000157723
0.000105776
0.00013102
2.77745e-05
0.00012686
-2.52968e-05
0.000142857
-5.60713e-05
0.000213495
0.000248398
0.000138118
0.000174104
5.85035e-05
5.72967e-05
5.5348e-06
5.07419e-06
1.20914e-07
2.2547e-08
1.89199e-10
-1.85451e-11
-8.91565e-16
-1.91946e-16
-5.92574e-20
-2.83497e-20
0.000146342
0.000222832
0.000307075
0.000196856
0.000228522
0.000152996
0.000140768
0.000122731
4.77745e-05
0.00011102
-2.76095e-05
0.000129172
-0.000100024
0.00018681
-6.4587e-05
0.000278082
0.000162998
6.61239e-05
5.23218e-05
6.46515e-06
4.79117e-06
1.55367e-07
3.17957e-08
4.97949e-10
-3.56967e-11
4.42724e-14
-1.84526e-15
2.48496e-19
-2.95911e-20
7.10986e-05
0.000149372
0.000356095
0.00016071
0.000278457
0.000146452
0.000181858
0.000111904
7.54726e-05
9.50327e-05
-1.99626e-05
0.000103373
-0.000126528
0.000155677
-0.000137649
0.000259872
-0.000107949
0.000386031
4.7505e-05
7.16253e-06
4.20267e-06
1.75107e-07
2.99753e-08
7.34024e-10
-4.00105e-11
2.43689e-13
-1.31628e-14
3.29613e-18
-5.9307e-20
7.63294e-06
4.25536e-05
0.000175439
0.000108749
0.00032017
0.000105371
0.000227836
9.99439e-05
0.000111953
7.54197e-05
-3.78669e-06
7.88568e-05
-0.000141268
0.000118113
-0.00021769
0.000235717
-0.000219832
0.000371755
-7.155e-06
0.000393186
3.5318e-06
1.82174e-07
2.35336e-08
7.75844e-10
-3.5671e-11
4.11558e-13
-2.14117e-14
1.64956e-17
-2.79563e-19
1.84047e-07
2.8888e-06
1.90586e-05
2.97785e-05
0.000155525
6.18359e-05
0.000267795
5.14122e-05
0.000156189
5.50948e-05
3.465e-05
3.69795e-05
-0.000132563
7.01555e-05
-0.000283187
0.000183611
-0.00031999
0.000335875
-3.1566e-05
0.000396166
7.6998e-05
0.000316188
1.43853e-08
7.37608e-10
-3.34737e-11
3.96908e-13
-1.81148e-14
2.93525e-17
-5.71472e-19
7.42509e-10
3.22401e-09
4.5625e-07
1.36564e-06
1.74193e-05
1.24401e-05
0.00012679
1.31422e-05
0.000196581
-2.44652e-06
9.05752e-05
-1.38334e-06
-6.58281e-05
-2.95495e-05
-0.00028643
7.34879e-05
-0.000395633
0.000259259
-8.28802e-05
0.000387189
0.000103265
0.000369899
0.00226168
0.000737032
-0.00268252
-4.03391e-11
3.42388e-13
-1.38306e-14
2.8841e-17
-5.62931e-19
3.62326e-13
-5.44018e-11
2.10656e-09
-4.26659e-08
5.67744e-07
-1.71748e-06
1.4839e-05
-7.82879e-06
9.17087e-05
-3.37965e-05
0.000140374
-6.44168e-05
3.56286e-05
-0.000101685
-0.000175725
-0.00013865
-0.000421113
9.91184e-05
-0.000199767
0.000376147
0.00012217
0.000368284
0.00181886
0.000812714
0.00291803
0.000986762
-0.00316777
0.000590252
-0.00327278
-1.37116e-14
2.55938e-17
-5.39442e-19
2.02487e-16
4.00626e-14
1.40174e-12
-3.67508e-10
7.9534e-09
-5.12013e-07
6.49203e-07
-5.80094e-06
1.09713e-05
-2.41893e-05
6.38688e-05
-7.20966e-05
0.000112038
-0.000150686
7.28669e-06
-0.000279026
-0.000337963
-0.000220438
-0.000327117
0.000226499
9.98125e-05
0.000398505
0.00140741
0.000779735
0.00268451
0.00104624
0.00289449
0.00125412
-0.00316186
0.000957643
-0.00353516
0.000541832
-0.00381461
-1.46348e-19
2.01194e-16
5.55883e-15
-1.26378e-11
5.47377e-10
-6.78323e-08
7.31953e-08
-2.05947e-06
4.1297e-07
-6.64688e-06
6.56335e-06
-2.83507e-05
4.7162e-05
-9.81906e-05
0.000118743
-0.000266068
-0.000113836
-0.000500703
-0.000320108
-0.000227414
1.66992e-05
0.000309614
0.00106444
0.000741473
0.00241602
0.00104823
0.00266834
0.00127238
0.00267731
0.00147813
-0.00290135
0.00129535
-0.00349957
0.000962966
-0.0039563
0.000474773
-0.00428938
-1.21905e-13
1.257e-10
-7.48096e-09
6.01752e-08
-7.36818e-07
6.38836e-08
-2.16233e-06
1.36309e-07
-4.40522e-06
3.7817e-06
-2.70339e-05
4.14441e-05
-0.000100238
8.8844e-05
-0.000491623
-0.000179332
-0.000643672
-0.000121784
-8.89313e-05
0.000811888
0.000562171
0.00211486
0.00104263
0.00246365
0.00125293
0.00248298
0.00146666
0.00211383
0.00166655
-0.0023024
0.0015628
-0.00316881
0.00130216
-0.00383876
0.000874586
-0.00435611
0.000397657
-0.00468703
-1.46975e-10
1.73829e-08
-1.63894e-07
1.02111e-07
-9.67281e-07
1.18664e-09
-1.07549e-06
6.45371e-08
-2.53319e-06
1.71071e-06
-2.30556e-05
6.16621e-05
-0.000145369
4.6701e-05
-0.000745118
-0.000220691
-0.000545277
0.000456514
0.000266443
0.0017527
0.000924333
0.002241
0.00126528
0.00228994
0.00144594
0.00199967
0.00158061
0.00142422
0.00186131
-0.00161969
0.00180221
-0.00254183
0.00157814
-0.00344476
0.00121544
-0.00417945
0.000748285
-0.00470668
0.00027522
-0.00496224
-7.75872e-09
4.69065e-08
-2.2049e-07
-3.38636e-08
-3.18792e-07
-4.31167e-08
-1.77795e-07
2.12025e-09
-1.94302e-06
4.25868e-06
-3.07814e-06
3.85626e-05
-0.000207045
-9.36995e-05
-0.000891833
6.84753e-05
-0.000157238
0.00133067
0.000688472
0.00196498
0.00120035
0.00210491
0.00145032
0.00183951
0.00160614
0.00127671
0.00172822
0.00075411
0.000470393
-0.000789386
0.000469953
0.00047831
0.000477995
0.00192332
-0.00174102
0.00179629
-0.0027598
0.00147741
-0.00370566
0.00101372
-0.00444338
0.000493554
-0.00492478
0.000120318
-0.00508256
-1.04753e-08
-1.46213e-08
-6.50411e-08
-3.84495e-08
-4.62933e-08
-8.12279e-09
-5.6887e-08
7.6044e-09
-7.22128e-07
7.36996e-06
-2.79272e-06
1.00651e-05
-0.000396311
-0.000184786
-0.000646843
0.000809196
0.000364235
0.00162647
0.00102699
0.00188598
0.00141928
0.00165411
0.00163576
0.00122012
0.00166288
0.00060534
0.00187727
-6.73495e-07
5.66833e-05
-6.07108e-05
0.000475141
0.000485395
-0.000850448
0.000484935
0.000506254
0.000505828
5.66405e-05
-6.04847e-05
0.000473167
-4.88832e-07
4.70656e-05
0.000488499
4.74798e-05
0.000486756
0.00189463
-0.00183936
0.00166166
-0.00294065
0.00122052
-0.00390718
0.000671459
-0.00461782
0.000200407
-0.00500454
-7.33526e-05
-0.00500915
-9.08227e-10
-3.76986e-09
-1.01271e-08
-7.60921e-09
-1.00006e-08
-1.71536e-09
-7.76294e-08
2.85859e-07
9.56828e-07
9.54441e-07
-6.44168e-06
-1.44843e-05
-0.000694094
0.000304027
-0.000141675
0.00118507
0.000805638
0.00162261
0.00129036
0.00145253
0.00162087
0.00115006
0.00170584
0.000532768
0.0017355
5.80128e-06
4.9419e-06
0.000159116
0.000445677
0.000444761
0.000455618
0.000456013
-6.96157e-07
-6.3135e-05
0.000488479
-3.38562e-07
-3.12893e-05
4.15328e-05
0.000465302
-0.000905949
0.00194895
-6.27757e-05
0.000486488
-6.54364e-07
-4.26004e-05
0.000486251
-4.20006e-05
0.000484266
-3.07708e-05
4.16055e-05
0.000462064
-2.20571e-07
0.000463339
0.000460816
0.00180144
-0.00197763
0.001398
-0.00311031
0.000812696
-0.00404337
0.000223166
-0.0046382
-0.000201901
-0.00487588
-0.000289553
-0.00471932
-4.43505e-11
-3.54031e-10
-2.39648e-09
-2.09403e-09
-2.82621e-09
9.70646e-10
-2.42868e-08
1.0548e-07
-1.2665e-08
1.57188e-08
-3.22825e-05
-1.09896e-05
-0.000466788
0.000668058
0.000375333
0.00131842
0.00110983
0.00122042
0.00152247
0.00104409
0.00172683
0.000499411
0.0017392
0.000199135
0.000416762
0.000417145
0.000430901
0.000430676
1.89332e-07
-7.7353e-05
8.52763e-05
0.000437565
-7.82999e-05
8.68086e-05
0.000436442
-1.75708e-07
-6.47741e-05
0.000443215
-6.52617e-05
0.0004428
-3.77182e-07
4.98337e-05
0.000480576
1.28465e-06
-0.00010513
0.000123507
0.000123393
9.77538e-05
0.000123865
0.000100695
-0.000982304
0.0018781
-5.67175e-05
-5.77337e-05
0.000128891
0.000465071
0.000465337
0.000458759
0.000457631
5.04517e-05
0.000477288
-4.79099e-07
0.000479843
0.000476502
-0.000105593
0.00012448
0.000122743
9.85949e-05
0.000123044
0.000100156
1.09289e-06
0.00012392
9.64352e-05
0.000120813
0.000101251
0.000123285
9.8386e-05
0.000120395
0.00010107
0.00156432
-0.00213795
0.000947458
-0.00324554
0.000235341
-0.00405833
-0.000347946
-0.00449839
-0.000589493
-0.00457604
-0.000465139
-0.00425345
-5.65741e-12
-5.89911e-11
-1.06532e-09
8.94178e-13
-6.90703e-10
9.6477e-10
-5.47131e-10
6.14475e-10
-1.5943e-09
-3.78326e-09
-0.000125596
0.000226616
-3.69589e-05
0.000906015
0.000787743
0.000967876
0.00136237
0.000882592
0.00168397
0.000458617
0.00176763
0.000219229
0.000424115
0.000423773
0.000436133
0.000435084
-1.51042e-07
-6.32645e-05
0.000415403
-6.33065e-05
0.000415039
-1.62452e-07
-5.24759e-05
0.000420275
-5.24931e-05
0.0004197
3.99742e-07
-0.000124186
2.88598e-05
4.86961e-05
8.5576e-05
2.99947e-05
0.000109664
9.08749e-05
0.000114873
5.27735e-05
-0.000124252
2.89166e-05
4.87249e-05
2.98992e-05
8.56559e-05
0.000109539
9.08644e-05
0.000114699
5.27893e-05
6.2168e-07
-0.000111432
9.53972e-05
0.00011863
9.59833e-05
0.000119775
-0.000110925
9.57393e-05
0.000118562
9.60729e-05
0.00011972
1.35844e-06
0.000151313
0.000127751
9.7049e-05
0.000123185
0.000103606
4.66214e-05
8.93465e-06
1.50494e-07
-4.52684e-05
0.000112955
-9.23304e-06
-4.72208e-05
4.96266e-05
0.000104587
1.22504e-07
4.94073e-05
0.000111723
-4.45254e-05
0.00010694
-0.00109055
0.00167425
0.000187071
0.000458806
0.0004591
0.000449561
0.000449894
-3.28776e-07
-0.000174378
0.000193875
0.000445851
-0.00017338
0.000193281
0.000445024
2.04079e-07
-0.000165347
0.000449484
-0.000165233
0.000449653
0.000152222
0.000127075
9.82224e-05
0.000122634
0.000103154
9.91419e-07
0.000127289
0.000104002
0.000129401
0.000104351
0.000126792
0.000105187
0.000128749
0.000103977
4.66251e-05
8.8607e-06
-4.5276e-05
0.000112684
-8.83722e-06
-4.68883e-05
4.95572e-05
0.000104769
4.93539e-05
0.0001116
-4.45324e-05
0.000106658
-4.28652e-05
9.66483e-06
2.10583e-07
0.000111641
-1.61938e-05
3.89063e-05
0.000102583
2.08159e-07
0.00011024
0.000105298
-4.29811e-05
9.64011e-06
0.00011156
-1.58239e-05
3.9294e-05
0.000103832
0.000110524
0.000105471
0.00111203
-0.00229659
0.000302364
-0.00331579
-0.000477031
-0.00393937
-0.000933429
-0.00415689
-0.000984135
-0.00405662
-0.00063884
-0.00361332
-1.36454e-12
-4.41702e-13
-3.23893e-10
3.86829e-12
-8.35377e-11
1.26634e-11
-2.67671e-11
-4.74335e-11
-8.70206e-10
-2.01921e-09
-0.000102259
0.000457775
0.000409313
0.000687767
0.00106785
0.000668462
0.0015765
0.000393463
0.00174912
0.000186556
0.000446188
0.000445545
0.000454563
0.000454007
-9.19083e-08
-4.76074e-05
0.000419338
-4.72294e-05
0.000418418
-8.50278e-08
-3.87683e-05
0.000427379
-3.83878e-05
0.000426158
9.46411e-07
-0.000105545
9.16133e-05
0.000114113
9.00826e-05
0.000112722
-0.000105188
9.21927e-05
0.000114106
9.1187e-05
0.000112751
1.23249e-06
-9.22098e-05
9.01618e-05
0.000112237
9.02048e-05
0.00011311
-9.21729e-05
9.1335e-05
0.000112263
9.1257e-05
0.000113084
-4.65872e-06
-4.07878e-05
3.69729e-05
9.40487e-05
-7.47111e-06
4.60093e-05
9.40396e-05
-4.16821e-05
-6.81415e-08
0.000105439
4.13532e-05
-6.52637e-06
-4.16998e-05
9.83124e-05
1.4925e-09
-4.15172e-05
0.000108199
1.03525e-08
5.31193e-05
0.000102393
-7.50814e-06
4.60025e-05
9.5237e-05
-4.42767e-06
-4.06291e-05
3.64322e-05
9.42798e-05
-4.16166e-05
4.12368e-05
0.000105423
-6.42747e-06
-4.15967e-05
9.82591e-05
-4.14752e-05
0.000108132
5.31138e-05
0.000102702
-7.53605e-06
4.16636e-05
-3.99545e-05
0.000101224
4.13466e-05
1.93194e-08
-4.01015e-05
0.000109828
-7.28556e-06
0.000103232
9.47653e-09
0.000112345
-7.44005e-06
4.15709e-05
-3.98287e-05
0.000101437
4.12873e-05
-3.9982e-05
0.000109836
-7.22011e-06
0.000103267
0.000112322
-5.20152e-05
8.78895e-06
2.29587e-07
5.64694e-05
0.000114278
-9.14461e-06
5.22572e-05
0.000103578
1.77845e-07
0.000111255
5.71269e-05
0.000107547
5.71725e-05
2.49126e-06
-6.26834e-09
-5.65095e-05
0.000109807
-1.96428e-06
-5.66875e-05
5.84431e-05
0.000104798
-7.85197e-08
5.83871e-05
0.000108603
-5.35389e-05
0.000106284
-0.00119507
0.00121902
0.000203658
0.000410817
0.000410273
0.000417789
0.00041811
-2.10621e-07
-0.000203483
0.000217073
0.00044508
-0.000203272
0.000217089
0.000444704
-1.73676e-07
0.000439887
0.000439474
6.84588e-07
-0.000239445
0.000280168
8.6249e-05
0.000112069
9.03061e-05
0.000115784
-0.000239466
0.000280555
8.65952e-05
0.000111998
9.05247e-05
0.000115712
3.7979e-07
-6.98023e-05
-4.95326e-05
0.000105026
-7.67974e-05
0.000130848
9.74848e-05
0.000124628
-5.20246e-05
-7.01545e-05
-4.95236e-05
0.000105623
-7.65482e-05
0.000130899
9.78463e-05
0.000124603
-5.20632e-05
-5.20593e-05
8.83057e-06
5.64588e-05
0.000114075
-8.85682e-06
5.25131e-05
0.00010414
0.00011125
5.6914e-05
0.000107605
5.66878e-05
9.52997e-06
2.74987e-07
0.000117266
-1.69804e-05
-5.95792e-05
0.000110785
3.48081e-07
0.000119209
0.000111457
5.67582e-05
9.73997e-06
0.000117028
-1.70681e-05
-5.93149e-05
0.000111441
0.000119263
0.000111342
5.71423e-05
2.29587e-06
-5.64594e-05
0.000109697
-1.71411e-06
-5.66126e-05
5.84422e-05
0.000104655
5.83954e-05
0.000108554
-5.34218e-05
0.00010576
3.22308e-06
1.19324e-08
0.000105038
0.000100991
3.13951e-06
0.000105087
0.00010119
0.000426262
-0.00242851
-0.000520434
-0.00328183
-0.00124789
-0.00362739
-0.00151664
-0.00362451
-0.00127412
-0.00342115
-0.000743705
-0.00286767
-2.62971e-12
9.90116e-11
-8.67132e-11
2.51559e-11
1.2715e-12
-2.40419e-12
-2.44277e-12
-6.59373e-12
-1.08324e-09
-1.87215e-10
0.000109752
0.000377574
0.000716927
0.000429765
0.00130655
0.000290012
0.00167995
7.23237e-05
0.000462864
0.000462365
0.000469149
0.000468979
-9.65603e-09
-3.38202e-05
0.00044125
-3.34843e-05
0.000440631
-1.34199e-07
-3.36842e-05
0.000454561
-3.34696e-05
0.000453858
1.21216e-06
-8.05674e-05
9.00916e-05
0.00011219
9.15392e-05
0.000112703
-8.11007e-05
9.12629e-05
0.000112123
9.25947e-05
0.000112568
1.05256e-06
-7.35676e-05
9.65302e-05
0.000114626
9.42777e-05
0.00011386
-7.50376e-05
9.75799e-05
0.00011454
9.5236e-05
0.000113762
-7.22021e-06
-4.00746e-05
9.89534e-05
-4.03898e-05
3.8948e-08
0.000107159
-7.62648e-06
-3.85936e-05
9.62335e-05
-6.54396e-09
-3.90419e-05
0.000103793
-7.16906e-06
-3.99839e-05
9.95169e-05
-4.02761e-05
0.00010727
-7.37411e-06
-3.8508e-05
9.70851e-05
-3.89561e-05
0.000104039
-7.89522e-06
3.67298e-05
-3.37188e-05
9.50411e-05
3.69956e-05
-3.67198e-08
-3.45445e-05
0.000101951
-7.80062e-06
9.61353e-05
-1.40693e-08
0.000103256
-7.51037e-06
3.67879e-05
-3.4049e-05
9.61064e-05
3.70088e-05
-3.45436e-05
0.000102261
-7.58615e-06
9.7123e-05
0.000103548
-2.02942e-06
3.60444e-05
-7.25527e-07
-3.29216e-05
-3.46016e-05
-1.24927e-08
-6.34197e-08
3.94189e-05
-1.02508e-06
-2.58857e-05
-2.34509e-08
-2.60913e-05
-1.93298e-06
3.618e-05
-6.91916e-07
-3.29176e-05
3.94432e-05
-3.45918e-05
-9.69909e-07
-2.5886e-05
-2.60959e-05
-1.16375e-06
2.57887e-05
-2.45181e-05
2.57138e-05
-3.25837e-08
-2.43897e-05
-1.05931e-06
-2.1766e-08
-1.09346e-06
2.57778e-05
-2.46818e-05
2.5702e-05
-2.44305e-05
-1.02212e-06
-6.1434e-05
1.99227e-06
-6.50785e-08
6.47251e-05
0.000109075
-1.82504e-06
6.16283e-05
0.000102229
-6.435e-08
0.000106465
6.59274e-05
0.000105258
3.4052e-05
1.34784e-06
3.23258e-08
-3.59885e-05
-1.07034e-06
-3.40321e-05
3.4604e-05
-1.54666e-08
3.45404e-05
-3.50168e-05
-0.00130601
0.000536797
0.000152296
0.000308581
0.000308323
0.000326875
0.000326667
-1.09185e-07
-0.000216929
0.000233118
0.000394557
-0.000217384
0.000233942
0.000393427
-9.80696e-08
0.00041777
0.00041745
1.48285e-06
-0.000321747
0.000329003
9.96445e-05
0.000124815
9.35874e-05
0.000118193
-0.000322222
0.000329398
0.000101003
0.000124875
9.49253e-05
0.000118175
1.05861e-06
8.44124e-05
0.000108062
8.97488e-05
0.000114988
8.49388e-05
0.000108064
9.0933e-05
0.000114919
-8.1468e-06
-7.42717e-05
8.21703e-05
8.65227e-05
-7.41768e-05
-4.79701e-08
8.27465e-05
9.55046e-05
-7.77578e-06
-6.74147e-05
9.12419e-05
-5.96581e-08
-6.71177e-05
0.000101053
-7.93865e-06
-7.40787e-05
8.17603e-05
8.68773e-05
-7.41049e-05
8.26002e-05
9.5516e-05
-7.58099e-06
-6.72899e-05
9.13344e-05
-6.70875e-05
0.000101054
-6.38384e-06
6.34818e-05
-7.65485e-05
0.000124492
-9.93216e-06
-7.10469e-05
0.000114989
6.13445e-05
-7.32712e-08
0.000134247
-7.10133e-05
-7.41182e-06
0.000100977
-4.29005e-08
0.000111486
2.17403e-08
-6.53118e-05
0.000122522
-6.10744e-06
6.34407e-05
-7.68547e-05
0.000125159
-9.89865e-06
-7.08129e-05
0.000115627
6.13484e-05
0.000134399
-7.10289e-05
-7.2582e-06
0.000101267
0.000111562