/*--------------------------------*- C++ -*----------------------------------*\
| =========                 |                                                 |
| \\      /  F ield         | OpenFOAM: The Open Source CFD Toolbox           |
|  \\    /   O peration     | Version:  5.x                                   |
|   \\  /    A nd           | Web:      www.OpenFOAM.org                      |
|    \\/     M anipulation  |                                                 |
\*---------------------------------------------------------------------------*/
FoamFile
{
    version     2.0;
    format      ascii;
    class       volScalarField;
    location    "2.6";
    object      k;
}
// * * * * * * * * * * * * * * * * * * * * * * * * * * * * * * * * * * * * * //

dimensions      [0 2 -2 0 0 0 0];

internalField   nonuniform List<scalar> 
12160
(
9.9347e-09
9.89288e-09
1.00198e-08
9.86467e-09
1.00544e-08
1.00102e-08
9.84775e-09
1.00893e-08
1.00205e-08
1.00096e-08
9.83902e-09
1.01435e-08
1.00331e-08
1.00178e-08
1.00096e-08
9.83522e-09
1.01756e-08
1.00486e-08
1.00249e-08
1.00178e-08
1.00107e-08
9.83397e-09
1.01825e-08
1.00604e-08
1.00312e-08
1.00241e-08
1.00205e-08
1.00111e-08
9.83379e-09
1.01765e-08
1.00644e-08
1.00355e-08
1.00286e-08
1.00269e-08
1.00244e-08
1.00207e-08
9.83395e-09
1.01673e-08
1.00631e-08
1.0037e-08
1.00312e-08
1.00303e-08
1.00322e-08
1.00486e-08
1.01715e-08
9.83411e-09
1.01592e-08
1.0061e-08
1.00367e-08
1.00321e-08
1.00318e-08
1.00354e-08
1.00555e-08
1.01727e-08
1.01844e-08
9.83411e-09
1.01528e-08
1.00592e-08
1.00361e-08
1.00321e-08
1.00322e-08
1.00358e-08
1.00506e-08
1.01603e-08
1.01853e-08
1.02544e-08
9.83391e-09
1.01477e-08
1.0058e-08
1.00356e-08
1.00319e-08
1.00324e-08
1.00352e-08
1.00462e-08
1.0139e-08
1.01894e-08
1.02787e-08
1.03056e-08
9.83354e-09
1.0143e-08
1.00568e-08
1.00352e-08
1.00316e-08
1.00324e-08
1.00348e-08
1.00452e-08
1.01213e-08
1.0189e-08
1.03115e-08
1.028e-08
1.01743e-08
9.83338e-09
1.01386e-08
1.00555e-08
1.00349e-08
1.00314e-08
1.00322e-08
1.00348e-08
1.00474e-08
1.01068e-08
1.0183e-08
1.02765e-08
1.0268e-08
1.01175e-08
1.01656e-08
9.83373e-09
1.01373e-08
1.00541e-08
1.00344e-08
1.00311e-08
1.0032e-08
1.00348e-08
1.00505e-08
1.0097e-08
1.01704e-08
1.02597e-08
1.01771e-08
1.01831e-08
1.01011e-08
1.01028e-08
9.83432e-09
1.01381e-08
1.00532e-08
1.00338e-08
1.00307e-08
1.00317e-08
1.00347e-08
1.00529e-08
1.00914e-08
1.01574e-08
1.02465e-08
1.0171e-08
1.00904e-08
1.01043e-08
1.00309e-08
9.8353e-09
1.01401e-08
1.00526e-08
1.00333e-08
1.00302e-08
1.00312e-08
1.00344e-08
1.00543e-08
1.00892e-08
1.01437e-08
1.02338e-08
1.0188e-08
1.00757e-08
1.00583e-08
1.00634e-08
9.83712e-09
1.0143e-08
1.00521e-08
1.00331e-08
1.00298e-08
1.00307e-08
1.00337e-08
1.00545e-08
1.00886e-08
1.01305e-08
1.02204e-08
1.02039e-08
1.00817e-08
1.00434e-08
1.00346e-08
9.84052e-09
1.01442e-08
1.00512e-08
1.00329e-08
1.00295e-08
1.00302e-08
1.00328e-08
1.00538e-08
1.00886e-08
1.01226e-08
1.0206e-08
1.0213e-08
1.00876e-08
1.00406e-08
1.0026e-08
9.84518e-09
1.01445e-08
1.00503e-08
1.00326e-08
1.00293e-08
1.00298e-08
1.00317e-08
1.00523e-08
1.00876e-08
1.01174e-08
1.01912e-08
1.02223e-08
1.00942e-08
1.00416e-08
1.00229e-08
9.84981e-09
1.01435e-08
1.00499e-08
1.00322e-08
1.00292e-08
1.00297e-08
1.00309e-08
1.00506e-08
1.00858e-08
1.01128e-08
1.01761e-08
1.02325e-08
1.00895e-08
1.00425e-08
1.00232e-08
9.85391e-09
1.01424e-08
1.00502e-08
1.00321e-08
1.00291e-08
1.00296e-08
1.00307e-08
1.00489e-08
1.00837e-08
1.01086e-08
1.0164e-08
1.02534e-08
1.00988e-08
1.00415e-08
1.00234e-08
9.85708e-09
1.01424e-08
1.00505e-08
1.00322e-08
1.0029e-08
1.00295e-08
1.00307e-08
1.00478e-08
1.00814e-08
1.01042e-08
1.01543e-08
1.02399e-08
1.01346e-08
1.00431e-08
1.00238e-08
9.85915e-09
1.01425e-08
1.00508e-08
1.00323e-08
1.00291e-08
1.00296e-08
1.00311e-08
1.00473e-08
1.00787e-08
1.00992e-08
1.01439e-08
1.02184e-08
1.01704e-08
1.00582e-08
1.00253e-08
9.86007e-09
1.01424e-08
1.00508e-08
1.00324e-08
1.00292e-08
1.00299e-08
1.00323e-08
1.00473e-08
1.00763e-08
1.0094e-08
1.01318e-08
1.02008e-08
1.01856e-08
1.00812e-08
1.00297e-08
9.85989e-09
1.01421e-08
1.00506e-08
1.00324e-08
1.00293e-08
1.00303e-08
1.0034e-08
1.00478e-08
1.00736e-08
1.00899e-08
1.01195e-08
1.01904e-08
1.01883e-08
1.0098e-08
1.00379e-08
9.85874e-09
1.01417e-08
1.00502e-08
1.00322e-08
1.00293e-08
1.00305e-08
1.0035e-08
1.00482e-08
1.00702e-08
1.00866e-08
1.01106e-08
1.01855e-08
1.01878e-08
1.01136e-08
1.00473e-08
9.8568e-09
1.01412e-08
1.00497e-08
1.00321e-08
1.00291e-08
1.00303e-08
1.00351e-08
1.00476e-08
1.00667e-08
1.00838e-08
1.01054e-08
1.01817e-08
1.01866e-08
1.01216e-08
1.00561e-08
9.85425e-09
1.01405e-08
1.00491e-08
1.0032e-08
1.00291e-08
1.00298e-08
1.00342e-08
1.00457e-08
1.0063e-08
1.00811e-08
1.0103e-08
1.01666e-08
1.0185e-08
1.01215e-08
1.00612e-08
9.85127e-09
1.01396e-08
1.00482e-08
1.00319e-08
1.00293e-08
1.00298e-08
1.00326e-08
1.00425e-08
1.0058e-08
1.00758e-08
1.00981e-08
1.01418e-08
1.01755e-08
1.0121e-08
1.0061e-08
9.84805e-09
1.01386e-08
1.00472e-08
1.00317e-08
1.00294e-08
1.00303e-08
1.00327e-08
1.00393e-08
1.00523e-08
1.00683e-08
1.00882e-08
1.01196e-08
1.01566e-08
1.01166e-08
1.00605e-08
9.84476e-09
1.01374e-08
1.00461e-08
1.00315e-08
1.00295e-08
1.0031e-08
1.00343e-08
1.00396e-08
1.00474e-08
1.00596e-08
1.00758e-08
1.01005e-08
1.01286e-08
1.01006e-08
1.00592e-08
9.84147e-09
1.01364e-08
1.00449e-08
1.00312e-08
1.00295e-08
1.00314e-08
1.00361e-08
1.00429e-08
1.00479e-08
1.00523e-08
1.00618e-08
1.00801e-08
1.01022e-08
1.00812e-08
1.00499e-08
9.83914e-09
1.01359e-08
1.00438e-08
1.00309e-08
1.00294e-08
1.00315e-08
1.00375e-08
1.00468e-08
1.00528e-08
1.00528e-08
1.00509e-08
1.00587e-08
1.00755e-08
1.00629e-08
1.00346e-08
9.83861e-09
1.01354e-08
1.00428e-08
1.00306e-08
1.00294e-08
1.00315e-08
1.00383e-08
1.00504e-08
1.0059e-08
1.00594e-08
1.00523e-08
1.0044e-08
1.00503e-08
1.00454e-08
1.00242e-08
9.83898e-09
1.01343e-08
1.00427e-08
1.00305e-08
1.00293e-08
1.00313e-08
1.00385e-08
1.00533e-08
1.00652e-08
1.00679e-08
1.00619e-08
1.00477e-08
1.00341e-08
1.00304e-08
1.00168e-08
9.83978e-09
1.01336e-08
1.00439e-08
1.00306e-08
1.00294e-08
1.00312e-08
1.00383e-08
1.00555e-08
1.0071e-08
1.00768e-08
1.00737e-08
1.00631e-08
1.00367e-08
1.00212e-08
1.00113e-08
9.84079e-09
1.01341e-08
1.00459e-08
1.00311e-08
1.00296e-08
1.00311e-08
1.00379e-08
1.00572e-08
1.00763e-08
1.00859e-08
1.00863e-08
1.00795e-08
1.00514e-08
1.0021e-08
1.00082e-08
9.84195e-09
1.01359e-08
1.00484e-08
1.00318e-08
1.003e-08
1.00313e-08
1.00372e-08
1.00586e-08
1.00809e-08
1.0095e-08
1.01005e-08
1.00962e-08
1.00659e-08
1.00268e-08
1.00079e-08
9.84331e-09
1.01388e-08
1.00513e-08
1.00329e-08
1.00305e-08
1.00317e-08
1.00367e-08
1.00596e-08
1.0085e-08
1.01028e-08
1.01177e-08
1.01172e-08
1.00786e-08
1.00338e-08
1.00096e-08
1.01426e-08
9.84533e-09
1.00543e-08
1.00341e-08
1.00313e-08
1.00323e-08
1.00372e-08
1.00605e-08
1.00887e-08
1.01077e-08
1.0135e-08
1.01499e-08
1.00916e-08
1.00416e-08
1.00113e-08
1.00573e-08
1.01487e-08
9.84785e-09
1.00355e-08
1.00322e-08
1.00332e-08
1.00383e-08
1.00616e-08
1.00924e-08
1.01093e-08
1.01454e-08
1.01865e-08
1.01014e-08
1.00493e-08
1.00135e-08
1.0037e-08
1.0062e-08
1.01607e-08
9.85176e-09
1.00332e-08
1.00342e-08
1.00399e-08
1.00627e-08
1.00943e-08
1.01117e-08
1.01465e-08
1.02073e-08
1.01096e-08
1.0054e-08
1.00173e-08
1.00344e-08
1.00395e-08
1.00672e-08
1.01839e-08
9.86312e-09
1.00354e-08
1.00417e-08
1.0064e-08
1.00955e-08
1.01148e-08
1.01471e-08
1.0216e-08
1.01188e-08
1.00544e-08
1.00212e-08
1.00368e-08
1.00362e-08
1.00426e-08
1.0075e-08
1.02395e-08
9.89901e-09
1.00437e-08
1.00654e-08
1.00967e-08
1.01186e-08
1.01495e-08
1.02069e-08
1.01284e-08
1.00534e-08
1.0023e-08
1.00458e-08
1.00388e-08
1.00387e-08
1.00471e-08
1.00873e-08
1.03515e-08
1.00131e-08
1.0067e-08
1.00979e-08
1.01226e-08
1.01549e-08
1.01967e-08
1.0144e-08
1.00539e-08
1.00236e-08
1.00687e-08
1.00485e-08
1.00414e-08
1.00419e-08
1.00556e-08
1.01289e-08
1.06308e-08
1.13825e-08
1.00992e-08
1.01264e-08
1.01625e-08
1.01945e-08
1.01593e-08
1.00593e-08
1.00249e-08
1.01005e-08
1.007e-08
1.00514e-08
1.0044e-08
1.00472e-08
1.00844e-08
1.43074e-08
6.68695e-08
1.53086e-07
1.01297e-08
1.01706e-08
1.01971e-08
1.01769e-08
1.00803e-08
1.00291e-08
1.01326e-08
1.01016e-08
1.00714e-08
1.00538e-08
1.00483e-08
1.00871e-08
1.05802e-07
1.10728e-06
3.14754e-06
3.96977e-08
1.01786e-08
1.02415e-08
1.06083e-08
1.01061e-08
1.00379e-08
1.04356e-08
1.01397e-08
1.01122e-08
1.00828e-08
1.03498e-08
6.90146e-08
1.76264e-06
1.26603e-05
3.22848e-05
1.19347e-06
9.09683e-05
1.42295e-08
3.2775e-08
1.0487e-08
1.00484e-08
1.23686e-06
1.82405e-07
5.8322e-07
5.14695e-07
7.40235e-07
3.06492e-06
2.73885e-05
0.000101523
0.000213927
2.87503e-05
0.000116384
0.0266963
1.03684e-06
2.83149e-08
1.00941e-08
3.27933e-05
0.000411519
0.00100522
0.000508766
0.000177838
6.50492e-05
0.000208398
0.000667341
0.00100563
0.000351373
0.000129614
0.0227163
0.0311588
0.0300058
7.74172e-07
1.25235e-08
2.30815e-05
0.000634343
0.00824165
0.0212035
0.00966992
0.00191891
0.00113479
0.00248048
0.00353489
0.00186771
0.000227276
0.0198875
0.0273222
0.0322289
0.0352528
0.0333907
1.42704e-07
5.2915e-06
0.00042996
0.00892637
0.0399571
0.0647904
0.0276351
0.0061736
0.00766272
0.00919695
0.00559376
0.000600815
0.0173911
0.0242381
0.0278126
0.0333718
0.0367824
0.0394182
0.0368913
0.000138049
0.00656288
0.0390877
0.0756631
0.0873525
0.0382818
0.0153083
0.0217513
0.0129189
0.005034
0.0139449
0.0219713
0.024011
0.0288186
0.0345011
0.0377492
0.0410887
0.0433818
0.0403787
0.0030831
0.0333997
0.0614515
0.0903271
0.0879903
0.0433534
0.0382047
0.0276545
0.0123213
0.0131189
0.0197155
0.0210608
0.0246524
0.0295728
0.0342127
0.0387728
0.0418464
0.0453317
0.0474175
0.0439045
0.0209212
0.0583679
0.0617127
0.0859307
0.081119
0.0488315
0.0640272
0.0280191
0.0144896
0.0191667
0.0187911
0.0211196
0.0251184
0.0288752
0.038056
0.0378531
0.0423533
0.0461682
0.0498921
0.0521734
0.0474379
0.0430131
0.0602617
0.0615417
0.0732933
0.0727143
0.062445
0.0579822
0.0300021
0.0222817
0.0177007
0.0185061
0.0211868
0.023598
0.0276729
0.559444
0.0413961
0.55983
0.560137
0.560466
0.0407198
0.0463009
0.0513422
0.0556684
0.058392
0.0511086
0.0487506
0.0588159
0.0600691
0.066163
0.0643655
0.101784
0.057726
0.0270365
0.0194246
0.0168084
0.0181324
0.0194546
0.0210938
0.0660573
0.609719
0.662912
0.038552
0.610169
0.620453
0.621163
0.663139
0.673816
0.674238
0.0445406
0.0517489
0.0579852
0.0628341
0.0658697
0.054834
0.0320658
0.0515478
0.0593269
0.0634825
0.0715744
0.0864105
0.0507396
0.0260367
0.0170656
0.0160742
0.0164267
0.0164631
0.0287779
0.47987
0.479909
0.478225
0.478263
0.707809
0.645756
0.0420864
0.0678373
0.708045
0.716622
0.716936
0.645464
0.646569
0.646316
0.0497791
0.058891
0.066296
0.071435
0.0741176
0.0580206
0.0220603
0.0450262
0.0605458
0.0637027
0.0537605
0.0738906
0.0461918
0.0221287
0.0159446
0.0145967
0.0137825
0.0208962
0.425199
0.425253
0.436203
0.436509
0.574262
0.574463
0.585373
0.585335
0.685636
0.566981
0.905824
0.56093
0.933482
0.0459591
0.0450747
0.548831
0.549028
0.53075
0.53084
0.685297
0.70557
0.705297
0.566197
0.907135
0.560689
0.929423
0.567179
0.868985
0.561782
0.920723
0.567181
0.879321
0.562912
0.921457
0.0567981
0.0681329
0.0761645
0.0808062
0.0822582
0.0604255
0.0177534
0.037597
0.0544395
0.041402
0.0349081
0.0896539
0.0423805
0.0202009
0.0150859
0.0125436
0.0190921
0.429651
0.429974
0.444659
0.445247
0.531457
0.531421
0.535055
0.53506
0.836419
0.896906
0.516879
0.855633
0.527553
0.528647
0.906634
0.836951
0.516978
0.855123
0.527513
0.530362
0.839092
0.522876
0.867643
0.535873
0.840869
0.523145
0.867747
0.535883
0.590037
0.918404
0.577348
0.953849
0.52287
0.937877
0.515719
0.95842
0.0509525
0.0456956
0.564503
0.564679
0.560813
0.560955
0.670125
0.670239
0.633867
0.634483
0.589632
0.922523
0.577494
0.952741
0.610246
0.968587
0.610692
0.997457
0.609587
0.973361
0.61097
0.994751
0.522232
0.938227
0.515574
0.955267
0.523707
0.944158
0.524294
0.947209
0.0661956
0.0791373
0.0868686
0.0898644
0.0886238
0.0614796
0.0133274
0.0269519
0.0269338
0.0272664
0.0511575
0.0856119
0.0365434
0.0210057
0.0140454
0.0198107
0.484715
0.485113
0.499201
0.499595
0.528606
0.528642
0.553598
0.553739
0.788959
0.487028
0.783159
0.483509
0.792933
0.487673
0.789897
0.484531
0.775602
0.482225
0.781878
0.483829
0.783862
0.483469
0.78951
0.485035
0.883477
0.874512
0.5095
0.497361
0.906006
0.516263
0.89122
0.874865
0.4989
0.509575
0.905572
0.516203
0.870941
0.499227
0.91365
0.518277
0.873468
0.49973
0.914103
0.518376
0.533329
0.938737
0.520474
0.969076
0.50126
0.941405
0.496446
0.952074
0.0584452
0.0461804
0.481617
0.481991
0.527768
0.52786
0.734082
0.733916
0.714138
0.714073
1.02491
0.615369
0.988755
0.600211
1.02632
0.615571
0.989975
0.600448
0.938351
0.995117
0.559518
0.93007
0.568349
0.560294
0.942144
0.998927
0.560223
0.932924
0.568958
0.560738
0.533233
0.941656
0.520868
0.969258
0.555055
1.01766
0.554391
1.01469
0.500712
0.939677
0.496116
0.948849
0.496454
0.919332
0.497256
0.923014
0.0782466
0.0917674
0.0973727
0.0972879
0.0925783
0.060887
0.00778392
0.0110489
0.0124534
0.029196
0.0933548
0.0758333
0.04004
0.0244251
0.0161274
0.532658
0.533005
0.513296
0.51375
0.587097
0.587091
0.626868
0.62706
0.770119
0.479919
0.78126
0.484938
0.777362
0.481016
0.787528
0.485869
0.812692
0.522059
0.809321
0.50428
0.818039
0.522806
0.814353
0.505088
0.828341
0.470324
0.818238
0.462963
0.834091
0.471419
0.82666
0.464598
0.79808
0.449475
0.812334
0.456498
0.807352
0.451337
0.821028
0.458276
0.506934
0.933405
0.497036
0.95547
0.0708723
0.0464381
0.346544
0.346813
0.412926
0.413211
0.663014
0.662943
0.698886
0.698711
1.13453
0.679891
1.11459
0.670078
1.14219
0.680916
1.121
0.670921
1.06783
0.64145
1.09329
0.655485
1.06942
0.641671
1.09828
0.65608
1.08411
0.596661
1.04292
0.579324
1.08642
0.597033
1.04425
0.579646
1.00985
0.971667
0.550592
0.535168
0.990549
0.555628
1.01209
0.975858
0.551377
0.535539
0.993667
0.556278
0.506842
0.935209
0.497333
0.954956
0.528466
1.01155
0.527865
1.00878
0.0943253
0.105199
0.105554
0.101214
0.0921377
0.0586479
0.00299459
0.00543166
0.0225817
0.0395924
0.0865159
0.110494
0.0586981
0.0421835
0.0400745
0.680899
0.681131
0.669408
0.67003
0.61871
0.618748
0.660005
0.660015
0.797563
0.450678
0.821214
0.460497
0.805939
0.452346
0.827496
0.461817
0.86492
0.512911
0.863542
0.483336
0.871643
0.514089
0.870071
0.484658
0.800938
0.441695
0.809852
0.443571
0.0942952
0.0544279
0.185905
0.186161
0.270359
0.270612
0.513738
0.513807
0.579819
0.579684
1.02072
0.615918
1.06655
0.631157
1.02638
0.616539
1.07072
0.63176
1.12421
0.66641
1.09699
0.654397
1.13075
0.667316
1.10378
0.655275
1.19262
0.651162
1.17768
0.644359
1.20012
0.652636
1.18288
0.64547
1.11526
0.616061
1.14823
0.63186
1.11722
0.616431
1.15225
0.632631
0.114584
0.113924
0.108407
0.0993549
0.0878946
0.0544729
0.00156382
0.00721523
0.0458718
0.088594
0.211481
0.188671
0.134744
0.0739081
0.578724
0.579045
0.569741
0.570181
0.699577
0.699334
0.694709
0.695132
0.567947
0.905785
0.553445
0.944772
0.567955
0.90548
0.553451
0.944675
0.591884
0.976205
0.597473
0.974539
0.592161
0.981558
0.598275
0.97613
0.810395
0.440833
0.829689
0.448781
0.817519
0.442459
0.834916
0.450039
0.876181
0.494
0.853778
0.465466
0.882039
0.495126
0.859263
0.46673
0.129986
0.0973504
0.131245
0.34262
0.342974
0.428746
0.428996
0.590971
0.591424
0.678366
0.679341
1.09736
0.598519
1.14954
0.616211
1.10388
0.599713
1.15553
0.61747
1.1889
0.64505
1.17543
0.633636
1.19642
0.646577
1.18198
0.635033
1.21251
0.646095
1.22047
0.647711
0.125792
0.113303
0.104616
0.0906247
0.0807869
0.0480091
0.00175863
0.0190286
0.0666556
0.150898
0.226764
0.329115
0.22925
0.101687
0.717856
0.717697
0.67635
0.676198
1.01348
0.624584
0.643702
1.01703
1.01871
0.625253
0.64345
1.0168
0.737053
0.736947
0.549885
0.967015
0.539099
1.00647
0.549819
0.966756
0.539073
1.0056
0.560807
1.03653
0.572016
1.02094
0.561218
1.0433
0.573325
1.02234
0.907966
0.500915
0.912475
0.50176
0.147283
0.158811
0.143974
0.374749
0.374935
0.477285
0.477956
0.497484
0.497903
0.565067
0.565051
0.561316
0.993754
0.547967
1.01687
0.561561
0.993487
0.547946
1.01709
0.587117
1.06512
0.589872
1.04616
0.587745
1.06826
0.590748
1.04835
1.15398
0.59211
1.19108
0.609697
1.15894
0.593246
1.19555
0.61087
1.22316
0.638196
1.2046
0.624765
1.23084
0.639877
1.21059
0.626197
0.122297
0.107528
0.0935071
0.0804053
0.0736215
0.00545358
0.0473922
0.099057
0.141331
0.176528
0.134721
0.156284
0.447436
0.447208
0.29367
0.293658
1.05614
0.652738
1.03262
0.659949
1.06111
0.653549
1.03778
0.66064
0.710078
0.710112
1.07982
0.598063
0.628719
1.07819
1.08435
0.598901
0.628425
1.07729
1.05808
0.649626
1.06286
0.647678
1.06265
0.650361
1.06238
0.647614
0.555339
1.04769
0.562374
1.03062
0.556022
1.05382
0.56359
1.03411
0.141131
0.182418
0.221498
0.332747
0.63463
0.633912
0.60482
0.604558
0.634245
0.634109
0.990562
0.534972
0.523079
0.944328
0.99024
0.534681
0.522885
0.945702
0.558355
1.09597
0.548103
1.10975
0.558892
1.09701
0.548346
1.11179
0.571049
1.13308
0.577655
1.12972
0.571896
1.13716
0.578604
1.13327
1.17505
0.588954
1.18046
0.590085
0.112057
0.100775
0.0787669
0.0856833
0.0206563
0.0705565
0.0954356
0.104001
0.0949385
0.087528
0.158576
0.158678
0.15228
0.152235
0.497133
0.496956
0.264499
0.26439
1.0982
0.618937
1.07889
0.637947
1.10372
0.620103
1.08315
0.638772
0.628919
0.936539
0.595535
1.02769
0.629129
0.940522
0.596015
1.02851
1.0868
0.58035
0.603975
1.09783
1.08769
0.580698
0.60352
1.0954
1.0962
0.608984
1.10525
0.61409
1.10167
0.610063
1.1069
0.614402
0.124008
0.171859
0.238734
0.400594
0.860971
0.859919
0.820291
0.818402
0.803804
0.800602
1.17846
0.577569
1.14782
0.580055
1.16993
0.575597
1.13629
0.576762
1.13831
0.571496
1.14408
0.566305
1.04682
0.52939
1.13452
0.570484
1.14269
0.565927
1.04658
0.52917
1.08876
0.539599
1.08867
0.53959
0.561414
1.16825
0.560228
1.15685
0.561929
1.16994
0.560549
1.15907
0.105487
0.0829943
0.091227
0.0406641
0.072622
0.0684201
0.0556141
0.0615337
0.0694703
0.140849
0.140978
0.133656
0.13356
0.707139
0.946825
0.44096
0.61174
0.389628
0.546717
0.950314
0.708128
0.547313
0.441046
0.613057
0.389652
0.157686
0.171112
0.254086
0.209882
0.161604
0.170788
0.256248
0.209924
1.08761
0.595527
1.09036
0.60768
1.09173
0.596501
1.09286
0.608279
0.589504
1.04984
0.589796
1.05091
0.598581
1.10385
0.598344
1.10262
1.09015
0.595155
1.09545
0.596228
0.108186
0.145001
0.215571
0.34899
1.01237
1.01203
0.992441
0.991717
0.9434
0.940522
0.951036
0.948817
0.670953
1.35937
0.679688
1.39214
0.619808
1.29748
0.669878
1.35426
0.677269
1.38788
0.618844
1.29461
1.29681
0.608426
1.29381
0.607718
1.25442
0.596032
1.24875
1.17009
0.591028
0.558388
1.2539
0.59572
1.24797
1.17058
0.590765
0.558352
1.18098
0.562034
1.18146
0.562102
0.0932142
0.0936813
0.0497226
0.0559068
0.0420862
0.0394463
0.0534608
0.113007
0.112952
0.122831
0.122843
0.111668
0.112053
0.097292
0.0971699
0.898651
0.66664
0.39963
0.506774
0.518941
0.3266
0.901527
0.668341
0.507288
0.399839
0.521645
0.326912
0.11141
0.129237
0.210046
0.170681
0.11291
0.129359
0.212546
0.171039
1.07854
0.594194
1.08046
0.594676
0.0956159
0.116769
0.175692
0.282198
0.584298
1.00775
1.00667
1.01214
1.01006
1.4981
0.770347
1.55765
0.766793
1.48912
0.767244
1.55119
0.765266
1.546
1.48557
0.754677
1.53988
0.75889
0.726517
1.54477
1.47829
0.754351
1.53942
0.758575
0.724663
0.71877
0.660222
1.47775
1.376
0.717179
0.659473
1.47026
1.37364
1.34857
0.653136
1.34721
0.652666
1.32515
0.639556
1.22634
0.58123
1.32442
0.639154
1.22667
0.581139
0.0940792
0.0452069
0.0397748
0.0360174
0.0393991
0.0811259
0.0896342
0.0895169
0.115146
0.115072
0.0625596
0.0958723
0.072666
0.092277
0.0631801
0.097884
0.0738377
0.0936117
0.0688212
0.0687419
0.0934739
0.0867861
0.145248
0.137863
0.0953962
0.087958
0.147268
0.138317
0.092385
0.0896717
0.133788
0.215659
0.392708
1.05531
1.05513
1.05271
1.05175
0.949706
0.94864
1.03267
1.0294
1.56281
0.777394
1.56051
0.764534
1.56092
0.776743
1.56356
0.765164
1.54665
1.52608
0.749917
0.749372
1.54225
0.755911
1.54184
1.53252
0.750691
0.748723
1.55107
0.757889
0.703101
1.42932
0.70186
1.42399
0.0332475
0.0316081
0.0344856
0.0459239
0.189852
0.189924
0.175139
0.175248
0.0763465
0.0761342
0.130121
0.130005
0.0511299
0.0678897
0.0565827
0.0665634
0.0515203
0.0690463
0.0572697
0.0670193
0.0771682
0.0542984
0.0624681
0.0442966
0.0765803
0.0541211
0.0622803
0.0443217
0.0856879
0.0824665
0.0872406
0.083321
0.0873179
0.0843933
0.155353
0.272062
0.583617
1.0142
1.01349
1.02459
1.02366
1.00425
1.00349
0.781866
1.56526
0.790633
1.47306
0.780728
1.55461
0.788327
1.46942
1.56255
0.78127
1.52062
0.765272
1.55596
0.779897
1.5178
0.764927
0.0225152
0.0254849
0.0318382
0.0701843
0.187846
0.187948
0.201031
0.201032
0.062479
0.0487363
0.0710402
0.0755443
0.0485563
0.0983329
0.0618004
0.0486377
0.0709388
0.0747706
0.0484621
0.0978574
0.116125
0.116137
0.0448209
0.0601463
0.0570198
0.0555888
0.0450048
0.0606736
0.0574166
0.0557538
0.0503533
0.0402188
0.050004
0.0401998
0.0788453
0.0846274
0.176154
0.355802
1.01578
1.01547
1.0275
1.02658
0.930762
0.930321
0.998938
0.997965
1.44244
0.776375
1.51478
0.784207
1.54228
0.793882
1.44273
0.775778
1.52255
0.786136
1.54085
0.793749
1.56942
0.796806
1.5645
0.795957
1.5416
0.793137
1.53469
0.79189
0.012314
0.0239054
0.0286751
0.320908
0.320911
0.256825
0.256889
0.19716
0.197468
0.280519
0.28066
0.0628913
0.040217
0.0705596
0.0814225
0.0535235
0.0996504
0.0621081
0.0401451
0.070465
0.0806131
0.0533991
0.0990445
0.190914
0.125195
0.146109
0.0816155
0.191681
0.12539
0.146305
0.0817008
0.0685233
0.0881765
0.200576
0.503332
0.984723
0.983768
1.01247
1.01127
0.996784
0.994454
1.48647
0.773513
0.756822
1.47487
0.762509
1.38312
0.756612
1.47272
0.761958
1.38353
1.49481
0.775396
1.4928
1.52492
0.780192
0.791782
1.50731
1.53326
0.782978
0.793465
1.53311
0.797263
1.53359
0.797559
0.0123883
0.016095
0.0574765
0.336924
0.336756
0.272673
0.272677
0.193793
0.124801
0.244029
0.325574
0.186984
0.37779
0.194849
0.125133
0.244195
0.327067
0.187305
0.378608
0.317668
0.317655
0.0639975
0.118341
0.0639817
0.117924
0.148706
0.0855101
0.149463
0.0857528
0.0590952
0.0920806
0.23094
0.764176
0.763228
0.875944
0.874534
0.894553
0.893244
0.991226
0.989944
1.44449
0.777283
1.51106
0.772058
1.48231
0.761729
1.43474
1.47656
0.760339
0.77411
1.50396
0.770669
1.46965
0.762331
1.47023
0.753395
1.46526
1.47575
0.752407
0.763407
0.00667639
0.0545895
0.0753679
0.264436
0.264277
0.2487
0.248578
0.242244
0.136426
0.249715
0.348932
0.196935
0.404175
0.244612
0.136876
0.250025
0.350502
0.197313
0.405728
0.396821
0.245536
0.404155
0.225717
0.39689
0.245326
0.403824
0.225579
0.191943
0.109604
0.194272
0.11009
0.0527155
0.0963405
0.261673
0.709259
0.707482
0.789592
0.786562
0.911355
0.908191
1.5001
0.773474
0.741533
1.47172
0.76367
1.33824
1.50169
0.773856
0.742
1.47665
0.765294
1.34009
1.51007
1.48044
0.767982
0.755413
1.47473
0.754248
1.50823
0.767925
0.0383001
0.0544635
0.104043
0.16198
0.161671
0.10366
0.174115
0.174115
0.171689
0.396987
0.240704
0.171394
0.397688
0.240741
0.287425
0.164429
0.198296
0.321673
0.181592
0.361739
0.289158
0.164804
0.198279
0.321885
0.181633
0.361749
0.414626
0.229801
0.416122
0.230169
0.048685
0.0981302
0.23526
0.590834
0.588571
0.703452
0.698266
1.12586
0.643806
1.33472
0.689822
1.41294
0.736394
1.1102
1.41265
0.736449
0.638022
1.32573
0.687789
1.49202
0.766404
1.45056
0.75254
1.49916
0.768281
1.46306
0.75542
1.4837
0.76507
1.48661
0.766041
0.0547017
0.0398284
0.134072
0.112777
0.133533
0.112276
0.13584
0.135686
0.149456
0.22152
0.147627
0.266042
0.178456
0.120268
0.20224
0.168995
0.224064
0.146758
0.148208
0.268687
0.179027
0.119005
0.20259
0.166834
0.216417
0.399604
0.216763
0.401086
0.326991
0.191057
0.33126
0.191355
0.0452231
0.0895072
0.270201
0.541005
0.538707
0.268663
0.381811
0.380101
0.663807
1.11574
0.608012
0.66047
1.10393
0.604399
1.37937
1.25333
0.71751
0.652322
1.3825
0.718283
1.24698
0.650924
1.46029
0.763151
1.40774
0.74705
1.47659
0.766553
1.42421
0.750153
0.0131437
0.0410461
0.140181
0.154705
0.233637
0.0944733
0.13956
0.153214
0.228164
0.0939078
0.0997629
0.0998174
0.109383
0.230085
0.265941
0.15852
0.0856815
0.125705
0.107546
0.269614
0.226108
0.159068
0.085009
0.124628
0.197754
0.357033
0.198079
0.36037
0.0412137
0.0895224
0.265833
0.448819
0.447092
0.26299
0.333107
0.329792
0.896314
1.01343
0.548201
1.07338
0.582275
0.475223
0.710483
0.450831
0.893761
1.00621
0.546441
1.06135
0.578829
0.475132
0.704598
0.447701
1.31474
1.18686
0.696691
0.627513
1.31515
0.696739
1.17731
0.625885
0.00822118
0.0628445
0.0763028
0.0763057
0.0635912
0.0858122
0.0856508
0.160644
0.151583
0.261912
0.143194
0.248477
0.154599
0.178622
0.123306
0.0861357
0.14245
0.122399
0.162126
0.149378
0.254682
0.141228
0.241194
0.151549
0.181693
0.123121
0.0854322
0.145916
0.120549
0.155817
0.216858
0.100569
0.121362
0.154856
0.212964
0.100135
0.120479
0.0379954
0.0751437
0.214492
0.422335
0.405933
0.697235
0.420702
0.407165
0.701125
0.209944
0.286172
0.278221
0.929328
0.815896
1.10166
0.503056
0.600786
0.429272
0.931515
0.821018
1.09143
0.599829
0.503999
0.430448
1.24226
0.670717
1.23737
0.670061
0.00563019
0.0628388
0.0436453
0.0627235
0.0437855
0.043944
0.0436253
0.237988
0.242588
0.126432
0.130093
0.177632
0.1029
0.07177
0.12216
0.0854559
0.130809
0.104006
0.0712558
0.0826591
0.124192
0.234883
0.240162
0.129288
0.1253
0.178877
0.102529
0.124317
0.0775151
0.0853595
0.13531
0.102799
0.0699647
0.0830853
0.120829
0.0309051
0.0262818
0.193715
0.189273
0.0302869
0.104739
0.103394
0.416202
0.382105
0.641103
0.35737
0.660011
0.349038
0.550751
0.312885
0.402575
0.382396
0.640904
0.356849
0.662273
0.340108
0.547284
0.312691
0.279013
0.427698
0.294911
0.270663
0.411082
0.28685
0.86391
0.746302
0.466122
0.398156
0.874152
0.750269
0.468112
0.39883
0.00255172
0.054383
0.0939869
0.0789644
0.02896
0.053957
0.0955554
0.0783961
0.0286415
0.0247321
0.0243817
0.216365
0.117952
0.16102
0.0951794
0.109581
0.0861703
0.146377
0.0923072
0.0678678
0.0554512
0.215643
0.117073
0.161591
0.0948959
0.111138
0.147241
0.087217
0.0922896
0.0679991
0.0556819
0.0249863
0.0567755
0.135462
0.131684
0.0568879
0.0830872
0.0819676
0.700274
0.577975
0.376785
0.321116
0.486196
0.277128
0.69752
0.579688
0.376449
0.321432
0.483458
0.276347
0.316417
0.405056
0.237241
0.427642
0.271313
0.209129
0.250597
0.340999
0.29804
0.389249
0.233024
0.408916
0.264149
0.202515
0.237613
0.328219
0.001409
0.0139639
0.0137155
0.0472866
0.0926165
0.058321
0.0945584
0.0657338
0.0212803
0.0473461
0.0924087
0.0586343
0.0909322
0.0656979
0.0208455
0.132045
0.0862186
0.0769236
0.0926391
0.0584722
0.0493632
0.132694
0.0868439
0.0777298
0.0928093
0.0585939
0.0495977
0.0215313
0.0368888
0.137613
0.244125
0.203941
0.13351
0.244551
0.198723
0.0378602
0.0687697
0.0688889
0.523961
0.310543
0.457162
0.265944
0.526486
0.310722
0.450984
0.264596
0.346294
0.231282
0.434687
0.195496
0.255101
0.140735
0.328975
0.216011
0.424517
0.253589
0.191957
0.13716
0.000631961
0.00871095
0.00769162
0.00841544
0.00760398
0.0410302
0.083378
0.049827
0.0906217
0.0465238
0.0689665
0.0456697
0.0154334
0.0408964
0.0865994
0.0502318
0.0887079
0.046584
0.0707459
0.0459669
0.014746
0.0785346
0.053583
0.0790079
0.0537007
0.0214129
0.0281404
0.0281573
0.124226
0.253368
0.216626
0.256193
0.202631
0.122009
0.249272
0.204898
0.245967
0.195341
0.0537116
0.0527503
0.263214
0.403135
0.22058
0.16573
0.242396
0.136068
0.246785
0.391454
0.205851
0.240895
0.163357
0.132984
0.000630777
0.00798464
0.00953725
0.00793637
0.00951635
0.01204
0.0113414
0.0359705
0.0778126
0.0391856
0.078498
0.0409396
0.039076
0.0590422
0.0419599
0.0527894
0.0691996
0.0504187
0.0359319
0.0790248
0.0388003
0.0767691
0.0408736
0.0389312
0.06085
0.042239
0.0524406
0.0697528
0.0504735
0.0262944
0.0206946
0.0185309
0.0213349
0.0195867
0.111236
0.2369
0.206769
0.25112
0.190133
0.210547
0.131228
0.107843
0.240559
0.199642
0.246019
0.191418
0.199701
0.128911
0.0416251
0.041626
0.229911
0.156511
0.215198
0.154875
0.000606818
0.0154011
0.0197678
0.0154038
0.0196521
0.0122789
0.0133862
0.0121066
0.0133031
0.0322775
0.0319696
0.0732575
0.0364586
0.076743
0.0359048
0.0353435
0.034811
0.0323063
0.0421388
0.045681
0.0603493
0.0469373
0.0553431
0.0746458
0.036432
0.0754252
0.0363401
0.035238
0.0349075
0.0322733
0.042057
0.0460809
0.0613376
0.0471391
0.056536
0.032288
0.0240963
0.0363202
0.0249134
0.0365774
0.0342623
0.0363976
0.0984263
0.222605
0.199733
0.220738
0.187709
0.123611
0.197536
0.126689
0.184186
0.214844
0.150578
0.095173
0.222069
0.189245
0.212363
0.186769
0.12283
0.189846
0.125001
0.181781
0.20432
0.149525
0.000382368
0.0269565
0.0226269
0.0267583
0.0222397
0.020454
0.0270909
0.02042
0.0270428
0.0283033
0.027885
0.0278356
0.0274157
0.0744833
0.0340439
0.0738538
0.0347304
0.0763458
0.0344539
0.0755925
0.0350719
0.0297553
0.0317966
0.0306567
0.0310471
0.0297937
0.0319588
0.0306948
0.0309384
0.0320511
0.0445272
0.0448576
0.0447595
0.045771
0.0400305
0.0550585
0.0416581
0.0552993
0.0860312
0.0854033
0.204757
0.191655
0.213756
0.164082
0.129514
0.197401
0.141921
0.180836
0.132603
0.200664
0.144061
0.179201
0.205777
0.18079
0.206577
0.161519
0.128799
0.192672
0.140808
0.179912
0.131974
0.193899
0.143273
0.176179
0.00717459
0.000540749
0.0293718
0.017904
0.0292924
0.0177169
0.0304368
0.0373512
0.0299212
0.036776
0.0805113
0.0330843
0.0771238
0.0337818
0.0856186
0.0382546
0.0929878
0.0353041
0.0829355
0.0333728
0.0788376
0.0342492
0.0878143
0.037795
0.0921484
0.0357887
0.02841
0.0279289
0.0279102
0.0288911
0.0283354
0.0277575
0.0279429
0.0284805
0.0364848
0.0418827
0.0261135
0.0428963
0.026131
0.0649372
0.0698485
0.06477
0.0703322
0.0873198
0.102455
0.0871508
0.101319
0.207197
0.16673
0.213873
0.157407
0.206898
0.161678
0.209617
0.155094
0.134003
0.206561
0.148038
0.183787
0.13327
0.199066
0.146802
0.176536
0.00153842
0.0337654
0.0224242
0.0333845
0.0224876
0.000872822
0.0452509
0.0399836
0.0444763
0.0389015
0.100561
0.0424604
0.0980304
0.0427208
0.111878
0.0561893
0.120543
0.0498825
0.10294
0.0418922
0.0974279
0.043157
0.115553
0.0548515
0.118123
0.0507489
0.0262032
0.0268145
0.0265651
0.0262535
0.0264929
0.0314685
0.0286607
0.0274442
0.0266181
0.0272288
0.0268437
0.0269838