/*--------------------------------*- C++ -*----------------------------------*\
| =========                 |                                                 |
| \\      /  F ield         | OpenFOAM: The Open Source CFD Toolbox           |
|  \\    /   O peration     | Version:  5.x                                   |
|   \\  /    A nd           | Web:      www.OpenFOAM.org                      |
|    \\/     M anipulation  |                                                 |
\*---------------------------------------------------------------------------*/
FoamFile
{
    version     2.0;
    format      ascii;
    class       surfaceScalarField;
    location    "2.6";
    object      meshPhi;
}
// * * * * * * * * * * * * * * * * * * * * * * * * * * * * * * * * * * * * * //

dimensions      [0 3 -1 0 0 0 0];

internalField   nonuniform List<scalar> 
30582
(
0
0
0
0
0
0
0
0
0
0
0
0
0
0
0
0
0
0
0
0
0
0
0
0
0
0
0
0
0
0
0
0
0
0
0
0
0
0
0
0
0
0
0
0
0
0
0
0
0
0
0
0
0
0
0
0
0
0
0
0
0
0
0
0
0
0
0
0
0
0
0
0
0
0
0
0
0
0
0
0
0
0
0
0
0
0
0
0
0
0
0
0
0
0
0
0
0
0
0
0
0
0
0
0
0
0
0
0
0
0
0
0
0
0
0
0
0
0
0
0
0
0
0
0
0
0
0
0
0
0
0
0
0
0
0
0
0
0
0
0
0
0
0
0
0
0
0
0
0
0
0
0
0
0
0
0
0
0
0
0
0
0
0
0
0
0
0
0
0
0
0
0
0
0
0
0
0
0
0
0
0
0
0
0
0
0
0
0
0
0
0
0
0
0
0
0
0
0
0
0
0
0
0
0
0
0
0
0
0
0
0
0
0
0
0
0
0
0
0
0
0
0
0
0
0
0
0
0
0
0
0
0
0
0
0
0
0
0
0
0
0
0
0
0
0
0
0
0
0
0
0
0
0
0
0
0
0
0
0
0
0
0
0
0
0
0
0
0
0
0
0
0
0
0
0
0
0
0
0
0
0
0
0
0
0
0
0
0
0
0
0
0
0
0
0
0
0
0
0
0
0
0
0
0
0
0
0
0
0
0
0
0
0
0
0
0
0
0
0
0
0
0
0
0
0
0
0
0
0
0
0
0
0
0
0
0
0
0
0
0
0
0
0
0
0
0
0
0
0
0
0
0
0
0
0
0
0
0
0
0
0
0
0
0
0
0
0
0
0
0
0
0
0
0
0
0
0
0
0
0
0
0
0
0
0
0
0
0
0
0
0
0
0
0
0
0
0
0
0
0
0
0
0
0
0
0
0
0
0
0
0
0
0
0
0
0
0
0
0
0
0
0
0
0
0
0
0
0
0
0
0
0
0
0
0
0
0
0
0
0
0
0
0
0
0
0
0
0
0
0
0
0
0
0
0
0
0
0
0
0
0
0
0
0
0
0
0
0
0
0
0
0
0
0
0
0
0
0
0
0
0
0
0
0
0
0
0
0
0
0
0
0
0
0
0
0
0
0
0
0
0
0
0
0
0
0
0
0
0
0
0
0
0
0
0
0
0
0
0
0
0
0
0
0
0
0
0
0
0
0
0
0
0
0
0
0
0
0
0
0
0
0
0
0
0
0
0
0
0
0
0
0
0
0
0
0
0
0
0
0
0
0
0
0
0
0
0
0
0
0
0
0
0
0
0
0
0
0
0
0
0
0
0
0
0
0
0
0
0
0
0
0
0
0
0
0
0
0
0
0
0
0
0
0
0
0
0
0
0
0
0
0
0
0
0
0
0
0
0
0
0
0
0
0
0
0
0
0
0
0
0
0
0
0
0
0
0
0
0
0
0
0
0
0
0
0
0
0
0
0
0
0
0
0
0
0
0
0
0
0
0
0
0
0
0
0
0
0
0
0
0
0
0
0
0
0
0
0
0
0
0
0
0
0
0
0
0
0
0
0
0
0
0
0
0
0
0
0
0
0
0
0
0
0
0
0
0
0
0
0
0
0
0
0
0
0
0
0
0
0
0
0
0
0
0
0
0
0
0
0
0
0
0
0
0
0
0
0
0
0
0
0
0
0
0
0
0
0
0
0
0
0
0
0
0
0
0
0
0
0
0
0
0
0
0
0
0
0
0
0
0
0
0
0
0
0
0
0
0
0
0
0
0
0
0
0
0
0
0
0
0
0
0
0
0
0
0
0
0
0
0
0
0
0
0
0
0
0
0
0
0
0
0
0
0
0
0
0
0
0
0
0
0
0
0
0
0
0
0
0
0
0
0
0
0
0
0
0
0
0
0
0
0
0
0
0
0
0
0
0
0
0
0
0
0
0
0
0
0
0
0
0
0
0
0
0
0
0
0
0
0
0
0
0
0
0
0
0
0
0
0
0
0
0
0
0
0
0
0
0
0
0
0
0
0
0
0
0
0
0
0
0
0
0
0
0
0
0
0
0
0
0
0
0
0
0
0
0
0
0
0
0
0
0
0
0
0
0
0
0
0
0
0
0
0
0
0
0
0
0
0
0
0
0
0
0
0
0
0
0
0
0
0
0
0
0
0
0
0
0
0
0
0
0
0
0
0
0
0
0
0
0
0
0
0
0
0
0
0
0
0
0
0
0
0
0
0
0
0
0
0
0
0
0
0
0
0
0
0
0
0
0
0
0
0
0
0
0
0
0
0
0
0
0
0
0
0
0
0
0
0
0
0
0
0
0
0
0
0
0
0
0
0
0
0
0
0
0
0
0
0
0
0
0
0
0
0
0
0
0
0
0
0
0
0
0
0
0
0
0
0
0
0
0
0
0
0
0
0
0
0
0
0
0
0
0
0
0
0
0
0
0
0
0
0
0
0
0
0
0
0
0
0
0
0
0
0
0
0
0
0
0
0
0
0
0
0
0
0
0
0
0
0
0
0
0
0
0
0
0
0
0
0
0
0
0
0
0
0
0
0
0
0
0
0
0
0
0
0
0
0
0
0
0
0
0
0
0
0
0
0
0
0
0
0
0
0
0
0
0
0
0
0
0
0
0
0
0
0
0
0
0
0
0
0
0
0
0
0
0
0
0
0
0
0
0
0
0
0
0
0
0
0
0
0
0
0
0
0
0
0
0
0
0
0
0
0
0
0
0
0
0
0
0
0
0
0
0
0
0
0
0
0
0
0
0
0
0
0
0
0
0
0
0
0
0
0
0
0
0
0
0
0
0
0
0
0
0
0
0
0
0
0
0
0
0
0
0
0
0
0
0
0
0
0
0
0
0
0
0
0
0
0
0
0
0
0
0
0
0
0
0
0
0
0
0
0
0
0
0
0
0
0
0
0
0
0
0
0
0
0
0
0
0
0
0
0
0
0
0
0
0
0
0
0
0
0
0
0
0
0
0
0
0
0
0
0
0
0
0
0
0
0
0
0
0
0
0
0
0
0
0
0
0
0
0
0
0
0
0
0
0
0
0
0
0
0
0
0
0
0
0
0
0
0
0
0
0
0
0
0
0
0
0
0
0
0
0
0
0
0
0
0
0
0
0
0
0
0
0
0
0
0
0
0
0
0
0
0
0
0
0
0
0
0
0
0
0
0
0
0
0
0
0
0
0
0
0
0
0
0
0
0
0
0
0
0
0
0
0
0
0
0
0
0
0
0
0
0
0
0
0
0
0
0
0
0
0
0
0
0
0
0
0
0
0
0
0
0
0
0
0
0
0
0
0
0
0
0
0
0
0
0
0
0
0
0
0
0
0
0
0
0
0
0
0
0
0
0
0
0
-3.01073e-18
1.06183e-17
-4.30828e-25
3.18509e-17
1.59223e-17
2.12467e-17
0
0
0
0
0
0
0
0
0
0
0
0
0
0
0
0
0
0
0
0
0
0
0
0
0
0
0
0
0
0
0
0
0
0
0
0
0
0
5.29662e-18
1.66749e-34
-7.72618e-19
1.22758e-25
2.65182e-17
-2.12336e-17
-2.96022e-18
3.18509e-17
-5.30773e-18
3.18604e-17
-1.53659e-18
-3.36595e-25
-5.30405e-17
3.84472e-34
-2.27543e-18
3.18341e-17
7.69442e-18
-5.30568e-17
0
0
0
0
0
0
0
0
0
0
0
0
0
0
0
0
0
0
0
0
0
0
0
0
0
0
0
0
0
0
0
0
0
0
0
0
0
8.82362e-19
-4.5704e-18
3.35385e-17
-3.72801e-20
-6.34709e-17
-2.11378e-17
4.23995e-17
-1.39214e-35
-1.51415e-18
1.5911e-17
1.93303e-33
-7.81027e-19
2.14618e-25
2.64556e-17
0
9.0169e-17
-8.8737e-21
-4.24324e-17
-2.37024e-35
7.4191e-19
3.18341e-17
7.69442e-18
-3.18353e-17
-4.7876e-20
3.37723e-24
-3.17525e-17
2.96352e-34
-6.96726e-21
-4.2333e-17
0
0
0
0
0
0
0
0
0
0
0
0
0
0
0
0
0
0
0
0
0
0
0
0
0
0
0
0
0
0
0
0
0
0
0
1.6659e-17
3.17494e-17
2.11344e-17
5.35128e-18
5.42307e-20
2.49665e-34
9.5531e-20
5.72607e-20
3.70594e-17
1.21905e-17
-2.92538e-18
-2.08773e-17
-1.92349e-34
2.55214e-19
1.58208e-17
-2.85154e-18
-2.10961e-17
1.14176e-34
8.36979e-20
-5.29658e-18
0
4.54011e-19
9.22532e-24
9.22067e-18
-1.5798e-17
1.1852e-17
-1.58205e-17
0
0
2.20463e-18
-4.53016e-18
2.16597e-17
1.35043e-20
3.181e-17
1.05379e-17
-6.34709e-17
-9.57521e-20
-4.23367e-17
-2.41034e-34
-1.05902e-17
-8.47089e-17
0
-4.29331e-24
2.37164e-17
-2.63218e-18
2.37006e-17
-5.28359e-18
0
-1.05705e-17
2.72931e-18
-1.06558e-17
1.05659e-17
-1.32155e-17
1.06405e-17
-1.3354e-17
2.65248e-18
0
0
0
0
0
0
0
0
0
0
0
0
0
0
0
0
0
0
0
0
0
0
0
0
0
0
0
0
0
0
0
0
0
-1.46113e-17
2.65638e-17
-2.12059e-17
1.59195e-17
1.07473e-17
-8.35808e-35
-4.56984e-18
3.17142e-17
2.88647e-18
-4.21916e-17
-3.13057e-34
1.0758e-17
1.59442e-17
0
-4.26141e-17
1.08657e-35
-2.26346e-11
-6.09363e-12
-2.26402e-09
9.10522e-14
-3.34498e-13
1.77618e-08
2.59188e-13
1.79771e-08
-1.57843e-10
9.61872e-19
-1.85879e-19
6.07665e-19
1.86695e-19
-5.36973e-18
2.05754e-17
1.34908e-18
1.27434e-17
2.45285e-18
3.97007e-34
-9.8688e-16
1.05077e-12
1.75729e-08
-1.40164e-14
3.54657e-08
7.42584e-19
1.28845e-18
2.88499e-17
5.25718e-18
3.67927e-17
0
-4.11224e-19
1.18633e-17
-5.27022e-18
1.71146e-17
-1.0536e-17
8.62792e-19
8.81914e-20
0
-5.50035e-19
9.19101e-18
-8.78713e-20
8.8895e-19
4.62611e-23
-5.23575e-18
0
7.94288e-22
-1.76541e-15
1.02935e-18
-1.04947e-17
0
0
-4.33321e-17
5.35145e-18
1.07041e-17
-1.83513e-20
2.11344e-17
0
1.51916e-18
1.3845e-18
5.27108e-18
-7.61434e-18
-2.85141e-18
-2.26878e-33
0
1.72903e-22
1.58332e-17
-3.04035e-18
-1.05266e-17
-8.76526e-20
1.449e-17
-5.26515e-18
9.21917e-18
-5.27664e-18
0
-1.05617e-17
5.37096e-18
-1.59379e-17
1.05594e-17
-1.58447e-17
1.32945e-17
-1.33282e-17
5.28643e-18
1.30699e-18
8.80652e-20
-1.50008e-18
9.17728e-18
0
8.77369e-20
-9.19269e-26
-9.1813e-18
-1.02166e-25
6.55821e-18
0
1.81831e-21
-1.49252e-18
0
0
2.09806e-17
-2.79492e-25
-1.41998e-18
1.05076e-12
0
1.48587e-10
-1.56843e-17
-1.07295e-18
1.75274e-19
1.83301e-17
8.71082e-20
-1.41938e-18
-1.05689e-17
3.97762e-17
-1.04967e-17
0
0
0
0
0
0
0
0
0
0
0
0
0
0
0
0
0
0
0
0
0
0
0
0
0
0
0
0
0
0
0
5.90616e-18
1.84576e-20
-1.05607e-17
1.07587e-17
-1.07083e-17
-2.66915e-35
-1.33796e-18
-1.59848e-17
1.48731e-17
-4.24153e-17
-3.75773e-35
-1.04104e-19
5.27432e-18
1.22703e-17
-2.11488e-17
1.1762e-25
5.09851e-09
-3.78281e-12
1.59319e-08
8.78851e-11
1.74753e-08
1.11472e-08
-5.18828e-18
2.1223e-17
1.66519e-12
-1.27722e-10
-4.08715e-27
-4.96813e-09
4.15466e-10
1.60313e-09
-1.48195e-10
5.11127e-10
-1.08605e-08
-1.53384e-12
-7.94664e-10
-1.35434e-12
2.60304e-10
-4.24221e-24
-3.08151e-19
-8.4815e-19
-1.07179e-12
0
-2.45182e-13
-1.55871e-13
6.80303e-16
-1.30283e-34
-1.89229e-08
-9.85524e-16
7.19074e-20
5.67419e-13
2.11455e-17
-3.65788e-34
-9.99101e-11
-5.2505e-18
0
2.30343e-09
1.74441e-08
8.58457e-20
-5.25106e-19
-1.06483e-17
0
6.62152e-19
-8.24038e-20
1.1499e-17
-1.40286e-18
4.37601e-18
6.68405e-19
-7.18693e-20
-1.91481e-19
1.5854e-17
-1.29575e-18
-2.50884e-17
5.44879e-19
1.84544e-17
-7.67927e-20
-5.60413e-13
7.5656e-12
1.40104e-12
5.0017e-11
1.24264e-34
2.09172e-08
-2.21383e-09
-4.0958e-24
2.11058e-17
-4.64904e-35
-1.71795e-17
0
5.69149e-19
1.49748e-18
5.14819e-18
-1.06122e-18
-1.23005e-17
4.43353e-18
7.42619e-20
1.05408e-17
-1.98087e-17
7.2111e-19
8.81915e-20
0
-1.10249e-18
1.18238e-17
2.04944e-31
7.9219e-19
-5.23323e-18
0
-1.7654e-15
5.82886e-19
-2.10348e-17
-2.39076e-09
-8.83993e-20
0
2.2529e-09
2.7138e-11
2.31369e-24
1.26094e-13
1.05886e-21
-3.35495e-13
0
5.65496e-21
1.76164e-08
8.40641e-14
-1.75235e-14
0
0
-1.46113e-17
1.6008e-17
-1.05684e-17
-5.35786e-18
-1.05297e-17
4.97207e-34
4.38966e-18
1.43825e-18
1.06904e-17
-3.12682e-18
1.16524e-19
0
-5.93017e-34
5.33047e-18
0
0
2.30483e-16
1.95461e-08
-4.20311e-12
1.88513e-08
-7.88149e-18
-6.91251e-15
-2.60936e-18
7.42495e-19
-1.04045e-17
1.3291e-17
-5.25702e-18
2.8903e-17
0
-2.1541e-12
-1.56172e-10
7.70435e-14
-1.36776e-12
1.8513e-08
-1.89793e-17
-1.06613e-14
-2.46212e-09
1.10363e-21
2.50699e-18
-1.30765e-18
3.5076e-20
4.50171e-17
-6.59642e-18
4.24276e-17
4.20388e-18
1.06866e-18
8.80655e-20
-1.52295e-18
2.76005e-17
8.7714e-20
8.77414e-20
-1.3116e-18
1.57392e-17
-2.53213e-36
-2.63185e-18
-1.07315e-18
1.75523e-19
0
2.62378e-17
2.09319e-24
-1.5806e-18
5.74407e-13
0
1.79417e-08
-1.83389e-17
-1.3941e-18
8.7636e-20
3.01764e-17
0
-1.54232e-18
-2.62885e-18
1.84203e-17
1.05336e-33
7.0227e-19
-1.76742e-19
-3.06749e-18
2.89615e-17
0
3.19329e-19
-2.37024e-24
-1.0835e-21
-1.09489e-23
5.22038e-17
1.07712e-19
-2.63139e-18
-1.75504e-19
0
-1.75607e-08
-1.69877e-13
-8.7725e-20
1.0288e-17
-3.87721e-18
0
0
0
0
0
0
0
0
0
0
0
0
0
0
0
0
0
0
0
0
0
0
0
0
0
0
0
0
0
-1.81192e-17
2.65868e-17
-2.48263e-20
-5.28585e-18
-5.02448e-20
-9.48077e-34
-2.64139e-18
2.10984e-17
2.39365e-17
-2.10416e-17
-1.45537e-33
6.30748e-18
-2.12784e-17
6.30943e-18
-2.0853e-17
-4.19562e-26
-4.86941e-09
1.70866e-10
-1.798e-08
-4.36522e-09
-1.79852e-08
-1.06463e-08
9.90942e-13
-3.32505e-10
-8.75654e-13
8.71943e-09
-1.27826e-26
7.20965e-11
-4.50708e-09
1.80568e-08
-4.42725e-09
1.78932e-08
1.5312e-10
4.33445e-13
9.02686e-09
8.09971e-13
8.84715e-09
0
6.79502e-12
-1.40103e-12
2.17557e-08
-1.1843e-34
-2.21206e-09
8.26562e-20
-5.54982e-09
3.3934e-17
1.63672e-26
-1.97166e-12
-2.3471e-17
0
-3.83904e-18
5.40874e-18
7.1649e-19
-1.38731e-17
-8.25595e-20
2.09426e-12
1.30432e-17
1.10983e-08
-3.77875e-17
-2.12515e-24
-7.5656e-12
5.25645e-09
1.66141e-17
-2.16237e-08
1.62397e-26
1.96442e-12
-3.49189e-15
8.48369e-20
2.68064e-17
-1.53983e-26
-1.33428e-17
-1.67043e-19
-1.62462e-18
-1.96291e-12
9.49519e-18
7.80313e-18
-1.05113e-08
7.13044e-18
8.47518e-20
1.60837e-17
-2.13235e-17
6.414e-20
4.90364e-13
-4.25152e-25
-3.66828e-18
-1.69495e-16
-8.54014e-35
1.4074e-34
2.99388e-09
2.99111e-20
7.00508e-14
-5.01761e-34
-9.47411e-09
-1.55913e-33
5.75281e-20
-3.4051e-34
-8.85533e-19
-1.24633e-18
2.18856e-18
-2.99332e-20
-5.25907e-19
2.08891e-19
-4.14039e-20
1.00329e-18
7.03813e-19
-1.37781e-18
-1.49871e-35
5.64302e-16
3.89517e-20
-5.0412e-34
-4.5938e-34
1.49229e-19
-8.48264e-19
-1.34676e-18
-2.49921e-18
0
8.80409e-11
1.77676e-24
0
2.32805e-09
-1.77787e-08
0
6.13109e-19
1.47674e-14
0
-1.76326e-08
3.50271e-14
-1.66382e-13
-1.31559e-09
0
8.4672e-34
1.48032e-09
4.58012e-20
-1.26093e-13
-5.89234e-21
3.97057e-34
-1.01536e-20
-8.4062e-14
0
0
6.15469e-18
1.07065e-17
-1.42609e-32
-1.05784e-17
-1.05971e-17
1.53756e-35
9.12255e-18
-4.19105e-19
5.24902e-18
-1.47717e-17
1.24823e-17
-6.34994e-17
1.34347e-35
5.22255e-18
-4.23442e-17
1.7923e-26
-5.09845e-09
-4.96819e-09
4.20159e-10
1.98178e-08
-1.51865e-10
1.84688e-08
-1.11473e-08
-1.08605e-08
-1.59076e-12
-7.94637e-10
-1.35142e-12
2.6033e-10
-5.1576e-25
-1.29597e-12
3.50468e-08
8.76407e-11
1.74754e-08
-3.89104e-18
1.59172e-17
1.67103e-12
-1.27669e-10
-6.6103e-24
-2.14338e-19
-7.51306e-12
-4.90361e-13
-4.9707e-16
0
-2.09168e-08
-1.73881e-08
-1.48598e-19
1.37904e-18
1.84881e-17
0
-2.55417e-16
-1.57643e-17
7.6747e-20
3.65758e-19
7.63754e-19
4.08443e-20
5.3594e-19
-5.25806e-18
6.70097e-18
-7.42533e-20
7.43536e-19
7.89981e-18
-1.01478e-18
-2.50199e-17
0
-8.89526e-19
-7.18032e-13
-1.07178e-12
8.58923e-20
1.61119e-13
2.6444e-13
5.1833e-17
0
-1.89229e-08
-3.85963e-09
0
2.63143e-17
0
-2.23713e-17
0
-2.71316e-10
3.6416e-08
-7.50623e-20
-6.24501e-19
4.27716e-19
-2.72375e-19
8.58458e-20
-3.25834e-19
-5.31708e-18
5.6215e-19
-4.85434e-18
4.37588e-18
7.18689e-20
1.05626e-17
-1.17678e-17
4.76775e-19
3.43777e-17
1.48043e-18
-8.83698e-20
-3.64135e-18
3.68542e-17
2.22043e-33
1.73854e-19
-2.60972e-18
2.87174e-17
-2.48528e-19
-1.2035e-21
-8.77518e-20
0
1.76793e-08
4.36063e-13
-8.77263e-20
3.10623e-17
-3.88817e-18
-4.59349e-19
-4.83441e-20
-5.90893e-19
-4.57771e-20
1.13424e-19
-5.93382e-24
3.32206e-23
-5.94213e-20
5.22589e-20
1.81647e-34
-5.22412e-20
0
0
0
0
0
0
0
0
0
0
0
0
0
0
0
0
0
0
0
0
0
0
0
0
0
0
0
0
7.96408e-17
8.78435e-34
9.23162e-18
-1.06576e-17
2.98468e-17
-1.04914e-17
3.98682e-33
8.88929e-18
5.24501e-18
-1.81116e-17
-3.18094e-17
-5.22211e-25
-6.24549e-18
4.18152e-09
2.9961e-17
9.15116e-09
-6.58448e-34
-1.50237e-17
2.64619e-17
3.10644e-17
-5.29248e-17
-8.12371e-20
-2.66197e-12
-1.24292e-17
-2.81642e-10
0
-3.51295e-15
0
5.32857e-09
-2.63551e-17
0
2.67072e-12
1.05548e-17
1.62338e-19
-8.01389e-19
-3.98093e-18
-8.37986e-18
2.36673e-17
-8.23434e-20
-1.79508e-12
-1.75544e-20
-1.06537e-08
1.97822e-17
8.40021e-20
-3.57265e-12
-1.13701e-10
2.732e-12
-4.894e-10
0
4.86635e-10
1.80594e-08
0
-2.63783e-17
0
9.18444e-18
-8.39013e-20
-2.62599e-18
5.95444e-13
-1.06006e-17
3.03393e-18
2.41232e-10
2.90703e-17
-8.34962e-20
-1.31832e-17
1.97502e-17
4.47924e-20
3.50256e-13
4.78454e-11
-1.44091e-34
5.06199e-20
3.50255e-13
-4.08507e-34
-1.14824e-10
4.48129e-20
-9.15968e-19
1.89226e-18
-5.06482e-20
-1.1115e-18
2.94215e-18
0
-6.24102e-18
7.88568e-19
1.05704e-17
-1.49796e-15
-1.34007e-34
4.82785e-16
7.95241e-15
-1.94455e-24
-5.91308e-34
8.00347e-20
1.50313e-19
-7.36884e-19
1.46176e-18
7.11007e-18
-1.47375e-18
-4.07837e-17
-6.52391e-20
8.93387e-11
-2.2151e-24
5.72792e-34
1.28536e-09
0
-7.53056e-14
2.62061e-34
-3.50255e-14
0
0
2.99065e-17
-5.29824e-18
-1.06433e-17
-1.58824e-17
2.12532e-17
-9.77829e-35
2.64139e-18
1.23048e-17
-9.76067e-20
-1.80305e-17
-7.13046e-32
-4.22954e-17
-6.65765e-34
1.04631e-17
-4.22549e-17
5.67298e-27
4.86964e-09
-1.69115e-17
-6.12078e-12
-1.80572e-08
-4.41849e-09
-1.78948e-08
1.06465e-08
2.10201e-17
-5.31098e-18
1.59237e-17
7.70561e-13
8.84734e-09
4.19562e-26
1.7066e-10
-1.79799e-08
-4.36546e-09
-1.79853e-08
9.95309e-13
-3.32466e-10
-8.75651e-13
8.71943e-09
-2.50843e-19
-9.66716e-12
5.25636e-09
1.40631e-17
-2.1971e-08
0
1.96441e-12
-3.49237e-15
8.48321e-20
5.54961e-09
2.95263e-17
0
1.91183e-12
-5.48458e-18
0
-1.70121e-18
-1.96291e-12
9.737e-18
1.13516e-17
-1.05113e-08
1.66389e-18
0
-2.03442e-12
1.08038e-17
-1.10983e-08
-2.14663e-17
7.97804e-20
7.07523e-12
4.90363e-13
2.17557e-08
0
-1.74408e-08
-1.03758e-23
1.58631e-17
0
-1.18209e-17
-7.28711e-34
-2.3897e-18
-2.41819e-18
8.12849e-19
1.4118e-17
8.25601e-20
7.88042e-18
-2.48468e-17
4.13917e-20
7.00526e-14
2.2942e-12
-1.07269e-08
0
1.14587e-08
2.19561e-24
-1.61118e-13
0
8.47948e-09
-3.16775e-33
-1.00174e-19
-1.14688e-20
7.29841e-19
-1.24986e-18
0
5.25938e-19
-2.20435e-18
0
1.48861e-13
-4.25153e-25
-3.22585e-18
-1.68443e-16
0
3.21078e-34
1.54952e-09
-2.99053e-20
0
6.41228e-20
1.34571e-19
-3.43702e-34
-3.15475e-19
4.0893e-18
-9.38212e-19
0
8.67645e-19
0
-1.41953e-18
-4.57793e-20
-1.33166e-20
-6.10497e-20
2.36168e-24
4.1761e-34
0
0
0
0
0
0
0
0
0
0
0
0
0
0
0
0
0
0
0
0
0
0
0
0
0
0
0
0
3.14729e-18
-1.08037e-34
-2.36497e-17
-2.12444e-17
-4.24483e-17
-8.43863e-22
-2.12298e-17
-3.1354e-33
-3.08762e-18
5.33909e-18
1.12423e-17
-3.15618e-17
-2.21871e-33
1.0632e-17
-4.23811e-17
0
-3.02531e-18
-1.12084e-12
-5.08003e-10
1.59663e-17
-8.42266e-18
-1.74003e-15
-7.85256e-18
-1.23199e-18
-3.17862e-18
1.67389e-17
1.85605e-17
-7.88655e-18
2.36133e-17
-3.57348e-20
0
1.27797e-18
3.84464e-18
-1.86146e-17
9.13014e-18
-2.11594e-17
1.4989e-17
1.18564e-17
7.99973e-18
2.24434e-17
0
0
-2.2721e-19
-8.95457e-18
-3.54124e-18
0
6.25048e-17
0
7.69193e-18
-1.82796e-17
0
-6.67346e-18
1.56167e-17
0
-1.53997e-18
1.30418e-18
-1.48653e-18
1.41311e-17
-8.12366e-20
7.35622e-19
-2.52467e-18
-7.8183e-18
2.49225e-17
0
-9.62612e-18
-9.48364e-18
5.88626e-18
0
-1.66534e-15
9.71168e-34
-5.14867e-18
0
3.86154e-18
-7.57351e-34
1.95629e-18
5.45562e-18
8.85604e-18
2.22122e-17
-8.47881e-20
-7.86255e-18
1.16812e-17
-1.69757e-31
-2.14917e-18
-4.63648e-35
-4.66134e-16
7.10493e-34
1.74642e-18
3.58928e-18
0
0
0
7.96574e-17
-1.7027e-33
-1.25301e-19
2.8254e-18
-5.3376e-18
-1.16343e-17
-2.40932e-17
-2.1289e-17
-1.04704e-33
-1.10666e-19
-4.23549e-17
7.96795e-36
2.10544e-19
-1.52271e-17
2.64618e-17
-1.83142e-17
3.02512e-17
-1.0272e-17
-4.29277e-35
-1.72713e-17
-2.62977e-18
0
3.57264e-12
-6.9614e-12
-2.73203e-12
4.89399e-10
0
-4.87226e-10
-1.80594e-08
-8.358e-20
-5.32847e-09
-2.37306e-17
0
-2.68824e-12
2.10753e-17
8.39011e-20
-3.17744e-18
2.98759e-18
-7.97391e-18
7.37595e-18
-7.9371e-18
1.97614e-17
0
1.79508e-12
-7.91045e-18
1.06534e-08
2.77053e-17
0
-2.87212e-12
-1.76268e-17
-2.82178e-10
0
-3.51432e-15
-1.64879e-19
-2.90038e-17
0
1.32158e-17
8.1168e-20
3.34806e-18
-1.18773e-17
-5.91472e-18
2.87982e-17
8.23406e-20
-1.05429e-17
1.84812e-17
0
-6.62291e-18
8.73284e-19
6.29757e-18
-1.49442e-15
0
4.74773e-16
9.82212e-15
1.94455e-24
-3.50255e-13
0
1.14824e-10
0
-1.50713e-18
-1.45279e-18
-2.82873e-18
9.67222e-18
-2.91993e-18
-3.52137e-17
1.30478e-19
1.1115e-18
-2.94215e-18
-4.47865e-20
3.50257e-13
4.78454e-11
0
0
0
-4.02047e-33
-1.36686e-18
2.32163e-18
-5.0648e-20
0
0
0
0
0
0
0
0
0
0
0
0
0
0
0
0
0
0
0
0
0
0
0
0
0
0
-1.59809e-17
5.64064e-33
1.22061e-17
1.7613e-17
5.22899e-18
1.72354e-17
-1.81721e-17
-5.3068e-17
7.97366e-33
-2.13261e-17
-5.29951e-18
0
-3.18629e-17
4.35146e-25
2.99486e-18
4.47271e-09
-3.59018e-13
6.01351e-12
4.54648e-09
5.99073e-18
3.59013e-13
-8.94541e-09
-9.06658e-09
8.97539e-13
2.08817e-33
5.47621e-18
-1.02985e-17
-2.2438e-19
8.16386e-20
0
5.28626e-18
-1.58805e-17
4.42146e-24
-1.69671e-18
2.31171e-12
7.70574e-13
0
2.02034e-08
1.80273e-08
-3.02351e-18
5.33385e-18
-1.86974e-18
9.83132e-35
1.14093e-17
-1.06481e-17
0
-1.59607e-18
-1.88424e-20
7.83055e-18
1.05222e-17
-1.69774e-17
-3.10498e-18
-5.26681e-18
-1.67631e-17
8.25814e-20
0
2.36146e-18
-2.14041e-24
-1.78857e-17
-1.00524e-11
-2.87215e-12
0
-7.54649e-10
-1.77467e-08
-1.06001e-17
-2.49225e-17
1.65036e-19
1.31065e-17
8.24856e-20
-4.62871e-18
8.05203e-19
2.60228e-18
-7.84225e-18
1.98203e-17
-2.62163e-18
0
-2.38112e-18
1.0345e-18
0
0
1.61883e-18
0
-1.07796e-18
3.24905e-20
5.47139e-19
8.67662e-19
4.80665e-20
1.62705e-18
-2.98306e-18
0
-9.10679e-13
2.8022e-13
1.8454e-08
0
3.73485e-08
6.36987e-20
0
-2.7263e-33
3.81549e-19
1.01417e-17
7.67988e-18
-3.24687e-17
-1.27417e-19
0
0
0
0
-3.0665e-18
-6.13301e-18
-2.39849e-17
-1.06786e-17
-7.4501e-17
5.32135e-18
-3.18875e-17
2.00417e-33
2.90341e-18
-1.59652e-17
-2.35915e-17
-3.17854e-17
2.03081e-33
2.64117e-17
-5.30098e-17
0
2.7161e-18
3.2288e-18
1.31592e-17
-1.19093e-17
1.18264e-17
-1.06057e-17
0
3.62398e-17
1.97515e-17
-1.19899e-17
1.70942e-17
-2.65898e-18
0
-2.92467e-12
-2.09781e-08
6.59662e-18
-4.90364e-12
9.97083e-11
-2.55434e-18
-1.43929e-18
2.2108e-17
6.54689e-18
-5.24832e-18
1.17473e-17
-7.92728e-18
4.67051e-24
-7.47745e-18
4.90362e-12
7.42448e-18
0
1.3388e-09
-1.69644e-19
-5.88551e-18
-2.0906e-17
0
3.52048e-18
3.89907e-18
1.70033e-19
-3.79085e-18
4.8968e-20
7.05587e-18
5.79637e-18
8.47965e-20
-2.20709e-18
2.62812e-18
7.32438e-18
1.56557e-17
0
3.59278e-18
5.32868e-18
-4.10635e-18
0
1.73831e-15
-8.12697e-20
-1.31197e-17
0
2.52423e-18
1.54001e-19
5.77882e-19
-1.04321e-17
-4.87652e-18
-5.37955e-18
1.62476e-19
-1.02083e-17
9.27749e-18
-4.2356e-31
-3.5168e-19
0
-7.78444e-16
3.80272e-34
1.01883e-18
9.70167e-19
0
0
0
0
0
0
0
0
0
0
0
0
0
0
0
0
0
0
0
0
0
0
0
0
5.55571e-18
0
-3.00809e-17
2.12087e-17
-3.19207e-17
-1.58112e-17
-2.11473e-17
-1.61393e-24
5.08819e-09
-4.85339e-09
4.36927e-09
5.82387e-13
-4.78673e-09
-3.16682e-12
1.11018e-08
-1.06137e-08
-5.82312e-13
-8.73901e-09
3.16692e-12
9.57437e-09
5.082e-24
4.29787e-09
9.37765e-09
-8.38517e-20
1.94821e-10
2.87211e-12
1.42292e-12
-1.18465e-25
-1.78604e-08
-8.54607e-20
-2.5381e-25
2.20078e-08
4.76967e-10
-8.33617e-12
8.33614e-12
0
-8.97532e-13
-7.92869e-18
-3.88223e-10
2.37826e-17
1.70616e-19
-1.33868e-17
4.74506e-17
-1.29761e-19
-7.95895e-18
-3.32894e-26
-2.19659e-08
-5.32394e-12
4.28775e-09
-8.41742e-13
-1.07522e-17
-8.90745e-15
2.07245e-17
-1.76112e-18
8.36246e-13
-8.57546e-09
2.73402e-18
3.19073e-17
-1.3697e-08
4.32721e-24
0
-1.48544e-09
1.98357e-24
1.40099e-13
-1.92643e-13
0
2.14988e-08
-4.20318e-13
-7.021e-18
0
-5.54809e-18
1.77614e-33
1.03486e-21
1.82417e-18
-5.40312e-18
-6.24115e-19
2.05271e-08
0
0
-1.92472e-08
7.95649e-20
1.47108e-12
2.36426e-12
5.60414e-13
0
2.10511e-08
-2.84754e-09
2.27675e-13
-2.04238e-17
1.62187e-19
-1.15386e-17
-7.9526e-20
-3.05467e-18
2.87816e-18
1.16521e-18
-2.35453e-17
-1.27618e-18
5.7342e-18
-2.28996e-24
0
6.3311e-34
0
0
0
0
0
-1.5981e-17
-6.31268e-33
-3.06172e-19
9.01467e-18
1.59623e-17
-1.74398e-17
0
-3.18632e-17
-1.83566e-33
2.56335e-18
5.3523e-17
-1.78924e-17
-3.17629e-17
-8.79325e-34
2.9975e-18
2.11908e-17
-1.13672e-17
-2.13951e-17
-7.95227e-25
4.49305e-09
-1.31638e-12
2.0793e-11
4.71893e-09
1.31639e-12
-8.98742e-09
-9.34823e-09
2.63278e-12
-9.85111e-18
-8.2582e-20
0
-8.58849e-18
2.73601e-18
2.51237e-24
-8.56162e-18
2.30325e-11
7.00517e-12
0
2.18056e-08
-9.59097e-11
1.2432e-17
-2.85136e-19
-1.56331e-17
-8.25215e-20
-1.22028e-17
1.54005e-18
0
-6.19266e-18
2.3629e-18
-2.66103e-18
0
1.05259e-17
4.69864e-18
7.97823e-18
-2.17149e-18
-1.15893e-33
0
-1.72081e-17
0
1.9899e-19
-6.30467e-12
-1.75128e-12
0
-4.05481e-08
-5.28231e-10
2.11796e-17
1.77037e-18
0
-2.51485e-17
0
1.44764e-18
-7.64352e-19
-3.96485e-18
1.9513e-17
-2.60062e-17
7.95677e-18
-8.2221e-20
-7.00522e-13
2.92468e-12
-1.61559e-09
0
2.09386e-08
0
4.20309e-13
0
1.46912e-08
-8.22293e-20
2.50337e-19
2.95553e-18
5.69107e-18
-2.94096e-17
6.3708e-20
-5.40071e-19
3.26882e-18
0
-2.56942e-18
1.03447e-18
0
4.80315e-20
0
0
-1.78992e-18
1.90765e-18
-4.8055e-20
0
0
0
0
0
0
0
0
0
0
0
0
0
0
0
0
0
0
0
0
1.81696e-17
-3.37028e-22
-1.0762e-17
1.07379e-17
-1.05768e-17
-1.40455e-33
-1.49896e-17
1.51172e-17
2.40256e-21
1.75888e-17
0
-2.12714e-17
-2.13561e-33
1.31302e-19
1.61543e-17
-2.62977e-19
-4.42688e-17
0
1.83944e-17
5.17783e-09
-1.67712e-17
2.09483e-15
0
1.05999e-12
-7.05636e-15
0
-5.67433e-09
-1.5642e-17
0
-6.89719e-12
1.83652e-17
-8.34104e-20
3.11462e-18
-1.06391e-12
1.5394e-19
-2.1918e-17
-1.03546e-08
3.51013e-17
0
5.5049e-12
-2.52084e-18
1.1342e-08
2.61267e-17
0
-7.11021e-18
6.46005e-18
5.24666e-18
1.3373e-17
-9.59412e-18
1.04936e-17
1.90767e-18
1.30726e-17
-3.93371e-18
0
-1.88924e-17
-1.04915e-17
0
-1.26092e-12
5.05802e-19
-2.2537e-08
1.79477e-33
-1.22676e-16
8.66418e-20
3.63088e-33
-1.04805e-09
-4.27316e-12
1.70356e-33
3.60476e-18
-3.92703e-18
-2.25698e-17
8.55571e-18
-8.66084e-20
1.31218e-17
-1.15748e-18
0
-6.81465e-18
-2.49879e-17
1.83836e-16
0
-7.03846e-15
-8.22773e-20
8.03919e-18
5.2996e-18
0
1.2563e-16
5.16286e-18
-8.41444e-20
9.67994e-19
-8.29622e-20
9.93028e-18
4.76448e-17
-8.22488e-20
1.29793e-18
-5.37875e-18
-3.00597e-18
1.29557e-18
3.29498e-09
1.56559e-24
0
0
5.25379e-14
3.7828e-12
0
2.85153e-08
-2.0652e-18
-1.21713e-33
3.80251e-20
-9.33132e-19
1.09941e-18
-8.69589e-18
0
0
0
0
0
0
1.80034e-17
0
6.65014e-17
-4.94357e-18
-1.1068e-17
-1.04977e-17
-2.13168e-17
-1.99105e-24
-4.94831e-09
8.48933e-11
-1.08059e-08
1.67552e-10
2.45274e-24
1.67518e-10
4.52029e-09
6.61457e-10
-1.87384e-10
8.67458e-10
3.59462e-10
5.53116e-13
-9.07453e-09
2.08549e-12
4.26432e-10
6.1983e-27
2.11493e-08
-5.46405e-12
4.64391e-09
1.97555e-08
4.22062e-12
1.91959e-08
-1.76882e-12
-9.16362e-10
8.00089e-18
-1.29016e-19
-1.03911e-12
-9.22026e-09
-1.41994e-18
4.78304e-18
-1.4892e-18
1.77434e-17
8.38545e-20
5.66219e-09
-7.00519e-12
5.14589e-12
-1.53623e-25
7.01395e-12
0
-7.75974e-26
1.75995e-08
-5.46405e-12
-8.37845e-20
-2.63278e-12
-7.92854e-18
-1.13165e-08
3.95886e-18
-8.53007e-20
6.32713e-18
-1.06684e-17
-2.05275e-08
-1.96502e-24
0
1.83664e-08
1.9149e-08
1.59128e-19
-7.70571e-13
9.52705e-12
-2.90481e-18
0
4.37103e-08
1.1391e-16
-6.30463e-13
-3.3274e-13
-2.06859e-18
0
2.53482e-18
-2.91463e-18
7.95334e-20
-6.11101e-18
4.61379e-18
2.59579e-18
-2.99718e-18
5.08614e-18
6.79496e-18
-1.42486e-18
1.332e-08
6.11162e-20
0
3.7726e-20
1.401e-13
-2.15409e-12
0
-5.54858e-09
-9.63481e-18
-6.11287e-20
0
8.46157e-20
5.14751e-19
-7.76163e-18
3.60392e-24
0
4.65728e-34
0
0
0
0
0
0
0
0
0
0
0
0
0
0
0
0
0
2.14109e-17
-5.1523e-35
-1.21656e-17
-6.07381e-18
-1.87404e-19
-2.16751e-17
1.48204e-34
3.81321e-19
-1.64332e-19
1.21653e-17
-3.22e-17
-1.09185e-24
-4.89746e-09
1.65497e-11
2.06185e-08
-2.24166e-12
2.53938e-12
-3.69829e-08
1.64786e-10
-1.82223e-08
2.03402e-08
-1.07139e-08
2.10615e-19
1.43566e-17
1.5058e-18
2.73694e-18
3.29647e-18
-1.07776e-17
-1.38645e-12
-3.52286e-10
3.21314e-24
-5.02642e-09
4.98206e-09
1.87538e-08
1.91433e-10
1.83876e-08
-1.09683e-08
-3.93604e-12
-9.92433e-09
5.15173e-13
-3.97102e-10
8.19484e-20
1.86781e-17
-3.99296e-12
-1.05077e-12
-1.64142e-17
0
-2.09223e-08
-3.89226e-11
0
-1.58085e-17
0
1.31051e-17
-1.06296e-33
3.47835e-18
-7.34502e-19
3.94217e-18
-2.18138e-17
5.62726e-18
6.46097e-24
0
-7.96e-18
1.18472e-17
9.00799e-18
8.09743e-20
0
-2.12342e-18
-1.84195e-17
0
1.13314e-17
-1.40103e-12
0
1.74097e-08
4.36033e-18
3.14437e-17
1.235e-17
-8.09343e-20
2.30072e-19
-2.88805e-17
-8.55252e-20
1.45285e-18
3.94879e-18
-9.93134e-18
1.14393e-19
1.03411e-17
-6.28009e-20
1.26094e-12
-2.06589e-08
0
-2.51055e-24
0
-2.16762e-17
1.43523e-17
1.25591e-19
-1.11172e-18
-1.47442e-17
1.63936e-33
-4.19697e-17
5.76145e-18
-8.07131e-20
-2.80215e-13
1.66374e-12
-1.16524e-09
0
1.86046e-08
-5.26708e-20
-4.20304e-13
0
-1.18389e-08
8.07008e-20
1.72535e-19
7.07117e-18
1.72903e-17
-2.24045e-17
0
4.08954e-19
-1.03382e-17
0
0
0
0
0
0
6.65533e-17
1.07379e-17
2.13167e-17
-2.13074e-17
-1.0762e-17
6.80634e-34
1.499e-17
1.18826e-17
2.7094e-17
-4.27021e-17
1.06207e-31
-2.08579e-17
-7.64329e-35
-3.45364e-18
-1.98569e-21
0
1.14098e-18
0
5.43691e-09
4.36219e-12
9.17776e-18
-8.12506e-22
-5.31832e-18
-1.0494e-17
9.36509e-18
-5.8101e-18
-3.53032e-12
-1.08698e-08
9.17966e-18
0
2.02037e-19
-1.04916e-17
1.1164e-17
6.56913e-18
-8.34759e-20
1.10682e-11
-1.85671e-10
-8.3089e-18
2.14372e-08
0
-1.19889e-12
1.44774e-16
-3.18647e-24
-2.37228e-17
0
2.23454e-17
5.46151e-25
8.21888e-18
1.19672e-12
-1.44805e-17
-2.1473e-17
3.70504e-10
1.67243e-17
8.42511e-20
-1.33602e-17
2.09253e-17
8.42558e-20
-1.06479e-11
-7.43755e-18
-2.1909e-08
0
1.94031e-16
-2.14237e-24
-2.74792e-19
-5.39399e-12
0
2.96493e-18
-2.12387e-08
1.73287e-19
1.68123e-12
2.8546e-12
-7.72785e-34
-1.09101e-09
1.93005e-08
1.68281e-19
1.61967e-18
1.31406e-18
-5.54645e-18
1.92279e-17
-8.22356e-20
0
-1.57093e-18
4.29932e-18
8.87155e-18
-8.66032e-20
-2.09889e-18
1.38878e-18
7.1017e-18
-5.41418e-19
2.97535e-24
1.90891e-12
-3.70199e-34
1.68983e-08
-8.44769e-20
-1.40053e-18
5.25227e-18
-9.29685e-09
-3.92809e-25
0
-3.80085e-20
7.00528e-14
-6.83004e-13
0
1.40654e-10
3.29632e-09
2.23753e-24
7.60459e-20
-8.05594e-13
-1.02305e-18
2.97752e-18
0
0
0
0
0
0
0
0
0
0
0
0
0
0
3.00228e-17
1.56428e-18
6.62458e-17
-1.51549e-19
-3.17413e-17
-4.87129e-18
2.22617e-19
-3.57427e-25
-1.81218e-17
-4.45147e-09
2.49166e-17
-9.71213e-09
-6.84828e-34
2.10856e-17
-2.08826e-17
4.02347e-24
-2.31171e-12
-1.80383e-12
3.26322e-18
-1.67571e-19
-1.40095e-13
-3.13482e-12
1.48284e-10
0
1.41082e-08
-1.64523e-08
-7.78095e-20
5.30835e-09
1.55924e-17
0
1.30765e-12
-1.7016e-17
0
2.04236e-08
-2.10655e-08
-1.67571e-19
-2.62627e-18
3.16559e-18
6.76037e-20
-1.49946e-18
-7.82311e-19
7.1638e-18
-9.27265e-18
-2.88663e-17
-4.29741e-18
-9.72129e-18
-1.77837e-17
1.5545e-19
-1.3164e-12
7.79602e-18
-1.06161e-08
-1.95974e-17
1.69678e-19
-6.23464e-12
5.49885e-09
-1.71778e-18
-7.92466e-10
0
4.15038e-12
1.77498e-16
8.39111e-20
2.75279e-18
0
-7.32868e-22
-6.19527e-26
-2.83014e-18
-4.14619e-12
-4.15088e-18
2.76184e-17
-1.09957e-08
6.9268e-18
0
-5.6444e-18
7.07819e-20
-5.20876e-20
6.42971e-18
-1.17337e-12
-8.82089e-18
0
-8.88748e-09
-8.03829e-20
2.77142e-17
0
-3.05395e-17
5.20991e-20
2.0593e-18
2.66661e-18
-1.16408e-17
-7.60173e-18
0
1.10777e-17
-4.16568e-17
5.3071e-20
0
1.19987e-15
8.78481e-18
8.13608e-34
-1.10794e-17
2.71614e-18
-5.45015e-26
0
-1.46527e-34
3.97523e-24
0
6.64833e-34
0
0
0
0
0
0
0
2.09619e-17
1.33869e-34
1.21656e-17
1.21611e-17
2.13018e-17
1.87404e-19
1.21653e-17
-2.14667e-17
-2.8597e-34
4.76403e-18
-2.16751e-17
-7.10481e-25
-6.1558e-18
-5.02634e-09
4.98158e-09
1.8753e-08
-7.80787e-12
1.83888e-08
-2.04386e-17
-1.09683e-08
-3.80469e-12
-9.92423e-09
2.86952e-18
2.08406e-17
-2.96164e-34
-5.13939e-18
-2.05142e-15
2.62695e-13
-2.80207e-12
-1.73376e-08
-1.22211e-11
-1.82234e-08
-2.03406e-08
-1.59296e-18
4.5041e-18
2.82071e-18
-3.02934e-18
-5.1062e-19
-9.25316e-18
5.28817e-18
1.06587e-17
9.73183e-18
8.09763e-20
0
-5.42454e-18
-3.36943e-18
-8.57563e-20
1.38003e-17
8.40248e-18
0
-1.69164e-15
2.36346e-17
1.68341e-18
8.39201e-20
0
1.46029e-17
1.57337e-17
-2.1606e-17
-1.58462e-17
1.35078e-17
2.02966e-34
-1.71825e-17
-7.17461e-18
0
4.79201e-18
-5.65069e-18
-5.2786e-18
8.98047e-20
2.2905e-19
-8.38749e-20
1.86078e-17
3.88646e-18
-5.85755e-18
-1.05885e-17
-1.63902e-19
-5.02844e-19
1.39521e-18
0
8.05946e-16
7.19702e-15
8.19225e-20
-5.33623e-18
-1.31903e-18
-8.72399e-18
-2.62847e-17
0
-4.90359e-13
9.80736e-13
-1.1646e-09
0
1.89355e-08
-5.26565e-20
-2.10152e-13
-8.47714e-20
-3.38e-12
-7.70556e-13
0
-1.18352e-08
0
-2.06597e-08
-1.90529e-08
-1.72682e-33
-2.88255e-18
4.13468e-18
4.15017e-18
-3.92749e-17
5.26721e-20
4.37743e-19
1.69512e-19
-1.80987e-18
4.3192e-18
-6.7501e-18
1.52907e-18
-1.58805e-17
0
0
6.27981e-20
0
0
0
0
0
0
0
0
0
0
0
2.70458e-17
-3.18584e-34
1.84128e-19
5.96846e-18
2.16264e-17
7.38503e-19
-4.66849e-17
-9.93243e-18
6.51878e-34
3.09133e-17
2.17662e-17
2.38499e-17
-5.41463e-17
0
-3.62865e-17
-2.38177e-12
-4.34439e-10
1.05022e-17
-3.15234e-12
1.82871e-08
-1.59163e-17
2.48396e-17
-5.96175e-18
1.20525e-17
1.71114e-17
-3.74916e-18
2.24892e-17
-5.23651e-18
0
5.26834e-18
-3.15998e-17
6.90437e-24
-1.00853e-24
-2.47378e-18
1.79527e-16
0
0
4.9565e-20
2.10142e-13
0
-1.84756e-08
1.41218e-33
1.42883e-33
-1.00332e-18
-2.47528e-18
-4.95805e-20
-1.51285e-18