/*--------------------------------*- C++ -*----------------------------------*\
| =========                 |                                                 |
| \\      /  F ield         | OpenFOAM: The Open Source CFD Toolbox           |
|  \\    /   O peration     | Version:  5.x                                   |
|   \\  /    A nd           | Web:      www.OpenFOAM.org                      |
|    \\/     M anipulation  |                                                 |
\*---------------------------------------------------------------------------*/
FoamFile
{
    version     2.0;
    format      ascii;
    class       volScalarField;
    location    "2.6";
    object      nut;
}
// * * * * * * * * * * * * * * * * * * * * * * * * * * * * * * * * * * * * * //

dimensions      [0 2 -1 0 0 0 0];

internalField   nonuniform List<scalar> 
12160
(
2.36859e-09
3.88516e-09
9.8179e-08
3.19116e-09
3.06158e-08
4.93952e-08
4.28285e-09
4.43677e-08
3.03949e-08
4.66482e-08
5.39083e-09
2.04653e-08
4.53626e-08
2.79186e-08
3.03917e-08
8.36909e-09
1.86365e-08
2.06684e-08
3.98516e-08
2.80493e-08
2.81541e-08
1.42698e-08
1.61636e-08
1.82991e-08
1.98753e-08
4.28364e-08
2.28787e-08
2.61127e-08
1.21709e-08
1.59473e-08
1.55104e-08
1.89379e-08
2.02474e-08
3.18835e-08
2.1176e-08
8.34325e-09
7.37378e-09
1.60461e-08
1.5214e-08
1.6403e-08
1.94188e-08
2.10139e-08
3.01125e-08
9.60772e-09
1.62721e-08
5.22161e-09
1.69861e-08
1.53827e-08
1.5794e-08
1.62898e-08
2.40552e-08
1.85328e-08
1.3385e-08
1.83029e-08
1.60816e-08
4.21604e-09
1.95805e-08
1.60941e-08
1.55402e-08
1.49923e-08
1.94572e-08
2.09056e-08
1.48039e-08
1.46309e-08
2.62598e-08
8.24556e-09
3.74685e-09
2.58055e-08
1.82166e-08
1.56425e-08
1.4244e-08
1.68368e-08
1.69289e-08
2.09192e-08
1.35625e-08
9.48582e-08
1.08039e-08
1.20283e-08
3.59593e-09
4.19913e-08
2.30525e-08
1.7049e-08
1.41422e-08
1.52253e-08
1.41567e-08
2.90055e-08
1.28027e-08
5.0608e-08
1.02971e-08
1.07403e-08
9.35357e-09
3.68837e-09
7.8694e-08
3.25145e-08
2.04776e-08
1.51464e-08
1.43522e-08
1.22118e-08
2.05682e-08
1.25451e-08
2.23914e-08
6.54665e-09
2.17879e-08
9.10146e-09
1.50721e-08
4.05151e-09
4.86113e-08
4.19551e-08
2.66595e-08
1.73537e-08
1.42715e-08
1.14175e-08
1.45936e-08
1.27451e-08
1.42177e-08
7.7544e-09
6.99727e-09
1.85939e-08
1.00924e-08
1.06443e-08
4.76052e-09
2.89089e-08
3.59223e-08
3.16249e-08
2.03732e-08
1.51365e-08
1.17641e-08
1.30623e-08
1.47462e-08
1.24313e-08
3.00007e-08
4.07747e-09
7.0735e-09
1.19648e-08
2.97176e-08
6.08504e-09
2.11544e-08
2.60519e-08
2.73517e-08
2.24224e-08
1.65077e-08
1.31541e-08
1.40196e-08
1.82369e-08
1.15669e-08
1.17009e-07
3.64127e-09
6.83993e-09
1.00515e-08
8.44452e-09
8.65232e-09
1.6852e-08
1.98606e-08
2.16927e-08
2.22134e-08
1.72554e-08
1.4887e-08
1.73044e-08
2.35793e-08
1.0913e-08
1.72275e-07
3.94125e-09
9.87151e-09
8.9071e-09
5.2801e-09
1.14152e-08
1.39959e-08
1.60626e-08
1.82813e-08
2.04228e-08
1.66225e-08
1.54764e-08
2.46968e-08
3.1778e-08
1.09091e-08
1.22321e-07
4.36612e-09
1.15956e-08
7.72044e-09
8.75116e-09
8.22801e-09
1.19543e-08
1.34302e-08
1.57183e-08
1.79817e-08
1.55816e-08
1.52432e-08
3.82397e-08
5.04321e-08
1.11975e-08
9.94491e-08
5.07169e-09
7.90204e-09
1.06465e-08
1.41009e-08
5.02274e-09
1.04163e-08
1.15212e-08
1.35305e-08
1.51562e-08
1.47943e-08
1.53828e-08
2.77326e-08
1.72245e-07
1.22525e-08
1.05841e-07
5.7753e-09
9.75406e-09
1.64849e-08
3.39948e-08
3.37384e-09
9.21171e-09
1.00838e-08
1.16612e-08
1.29015e-08
1.40549e-08
1.54547e-08
1.99917e-08
1.33444e-07
1.50287e-08
6.80992e-08
7.19539e-09
1.61888e-08
1.55758e-08
2.14707e-08
2.46849e-09
8.28633e-09
8.91356e-09
1.00803e-08
1.11676e-08
1.30386e-08
1.4201e-08
1.78095e-08
5.75795e-08
2.09102e-08
4.21737e-08
8.7391e-09
1.44606e-08
1.28082e-08
1.10479e-08
1.92805e-09
7.70996e-09
7.98046e-09
8.81794e-09
9.84184e-09
1.14061e-08
1.22004e-08
1.77609e-08
3.89407e-08
2.98744e-08
3.70361e-08
1.51584e-08
1.07934e-08
6.09572e-09
9.88797e-09
1.5847e-09
7.4811e-09
7.38862e-09
7.81708e-09
8.55666e-09
9.5159e-09
1.09523e-08
1.84611e-08
3.2364e-08
3.94686e-08
4.06025e-08
2.72697e-08
9.36634e-09
4.91863e-09
1.84172e-08
1.35363e-09
7.55675e-09
7.14637e-09
7.19038e-09
7.48781e-09
8.02805e-09
9.81146e-09
1.65416e-08
2.81037e-08
4.31994e-08
4.64898e-08
4.39674e-08
9.47183e-09
5.96206e-09
7.096e-09
1.1939e-09
7.92221e-09
7.19949e-09
6.93892e-09
6.82868e-09
7.05675e-09
8.27192e-09
1.32884e-08
2.49812e-08
4.32712e-08
4.9735e-08
6.29064e-08
1.12383e-08
9.0446e-09
5.20792e-09
1.08151e-09
8.65457e-09
7.54197e-09
6.97412e-09
6.5405e-09
6.45733e-09
7.07583e-09
1.0079e-08
2.03756e-08
4.78759e-08
3.17112e-08
8.32979e-08
1.39755e-08
1.38417e-08
5.67567e-09
1.00179e-09
9.83171e-09
8.22221e-09
7.29904e-09
6.53374e-09
6.21048e-09
6.289e-09
7.98262e-09
1.6237e-08
3.52547e-08
2.09255e-08
5.68636e-08
1.54834e-08
1.87983e-08
6.75668e-09
9.45593e-10
1.16294e-08
9.2884e-09
7.95772e-09
6.80966e-09
6.22595e-09
5.87732e-09
6.66477e-09
1.35521e-08
3.01839e-08
2.15714e-08
3.30026e-08
1.38154e-08
2.11965e-08
8.55035e-09
9.07013e-10
1.44011e-08
1.08452e-08
8.97858e-09
7.40569e-09
6.48921e-09
5.77958e-09
6.0292e-09
1.11773e-08
2.51819e-08
2.34876e-08
1.84372e-08
1.13209e-08
1.54491e-08
1.0145e-08
8.82339e-10
1.90175e-08
1.30982e-08
1.04022e-08
8.38125e-09
7.0338e-09
6.09192e-09
6.30342e-09
8.92757e-09
1.79558e-08
2.01753e-08
1.17365e-08
1.13932e-08
9.6455e-09
7.14084e-09
8.69078e-10
2.76231e-08
1.64169e-08
1.23319e-08
9.6517e-09
7.74317e-09
6.78689e-09
7.27371e-09
9.23416e-09
1.30996e-08
1.07898e-08
8.058e-09
1.14366e-08
7.01336e-09
6.00797e-09
8.69361e-10
4.49411e-08
2.1107e-08
1.48567e-08
1.10815e-08
8.83609e-09
7.96083e-09
8.88716e-09
1.05905e-08
1.22274e-08
5.32412e-09
3.97705e-09
8.92386e-09
5.695e-09
7.25452e-09
8.78033e-10
4.48755e-08
2.63492e-08
1.77984e-08
1.24905e-08
1.03985e-08
9.60669e-09
1.16022e-08
1.21761e-08
1.25336e-08
4.98205e-09
2.42756e-09
7.91426e-09
5.29804e-09
7.87823e-09
8.97225e-10
2.91778e-08
2.80364e-08
2.01448e-08
1.36818e-08
1.17782e-08
1.12145e-08
1.57123e-08
1.31874e-08
1.29909e-08
6.10414e-09
1.98297e-09
8.3725e-09
7.00094e-09
8.49997e-09
9.27472e-10
2.04469e-08
2.2959e-08
1.97257e-08
1.46909e-08
1.2656e-08
1.24036e-08
2.12738e-08
1.33076e-08
1.32746e-08
7.36537e-09
1.99929e-09
7.22977e-09
1.38244e-08
1.35949e-08
9.6878e-10
1.59459e-08
1.78772e-08
1.73216e-08
1.49713e-08
1.24575e-08
1.33443e-08
2.7748e-08
1.25174e-08
1.34646e-08
8.27221e-09
2.14532e-09
6.16198e-09
1.44272e-08
5.73201e-08
1.01877e-09
1.35212e-08
1.46742e-08
1.48065e-08
1.38928e-08
1.14653e-08
1.44272e-08
3.72912e-08
1.13678e-08
1.39989e-08
9.40434e-09
2.30312e-09
7.87407e-09
7.78691e-09
3.28409e-08
1.08536e-09
1.18265e-08
1.27892e-08
1.28736e-08
1.24426e-08
1.08576e-08
1.55445e-08
3.50545e-08
1.07117e-08
1.42804e-08
1.06147e-08
2.66166e-09
1.38463e-08
5.08412e-09
1.70344e-08
1.11942e-08
1.19725e-09
1.14469e-08
1.15265e-08
1.12631e-08
1.04167e-08
1.42119e-08
2.15932e-08
1.08614e-08
1.43061e-08
1.24888e-08
3.3952e-09
2.18809e-08
3.98337e-09
1.56914e-08
1.09031e-08
1.02639e-08
1.48487e-09
1.04888e-08
1.04203e-08
9.92568e-09
1.18023e-08
1.5698e-08
1.3394e-08
1.32945e-08
1.44896e-08
4.40796e-09
1.48462e-08
4.06712e-09
1.2597e-08
1.00093e-08
1.00138e-08
1.11733e-08
1.70239e-09
9.76416e-09
9.41388e-09
1.02693e-08
1.33949e-08
1.94542e-08
1.33182e-08
1.7053e-08
5.21325e-09
1.0568e-08
4.37801e-09
6.4894e-09
9.57247e-09
9.1711e-09
1.07433e-08
1.31145e-08
2.09109e-09
8.83755e-09
9.40416e-09
1.25733e-08
3.09119e-08
1.42996e-08
3.05086e-08
5.21581e-09
1.04425e-08
4.20048e-09
5.30224e-09
8.4908e-09
8.9877e-09
9.47497e-09
1.17148e-08
2.08304e-08
1.93954e-09
8.84082e-09
1.2023e-08
4.70267e-08
1.70017e-08
3.87123e-08
4.55254e-09
1.11146e-08
3.93554e-09
5.41466e-09
8.68331e-09
7.8825e-09
9.08646e-09
9.67077e-09
1.48545e-08
1.47593e-08
1.6576e-09
1.15645e-08
5.66703e-08
2.11792e-08
4.99805e-08
4.75269e-09
2.02996e-08
3.72503e-09
6.19093e-09
1.12376e-08
7.86858e-09
7.8158e-09
8.89714e-09
1.03052e-08
9.1992e-09
7.94485e-09
1.26861e-09
4.94456e-08
2.78948e-08
5.90346e-08
5.39503e-09
1.57346e-08
3.46949e-09
5.60354e-09
4.31414e-08
1.09244e-08
7.42504e-09
7.45309e-09
8.4411e-09
7.59327e-09
1.1151e-08
3.52186e-08
1.31783e-08
3.7626e-08
6.71829e-08
6.01262e-09
1.2541e-08
6.25135e-09
6.09775e-09
5.2549e-08
3.42278e-08
1.0633e-08
6.82625e-09
6.79824e-09
6.15794e-09
4.58544e-08
2.74698e-07
6.21439e-07
2.16312e-09
7.27574e-08
6.44488e-09
1.13071e-08
1.04876e-08
3.78818e-09
7.27137e-08
6.98339e-08
2.75733e-08
9.2894e-09
6.429e-09
3.08393e-08
5.87289e-07
2.97317e-06
7.08248e-06
1.45565e-06
2.25615e-06
9.07389e-09
3.41918e-08
1.41764e-08
4.59343e-09
2.20965e-07
3.34554e-07
2.66551e-06
1.57983e-06
3.55389e-07
1.03742e-06
6.67604e-06
1.79152e-05
4.91395e-05
1.3883e-05
1.01329e-05
0.000514514
3.46845e-07
4.01246e-08
5.6042e-09
9.91966e-06
4.8685e-05
0.000111703
0.000244121
0.000160302
2.43828e-05
4.47834e-05
9.90443e-05
0.000133829
6.21349e-05
1.7942e-05
0.000577028
0.00127364
0.00029374
3.86482e-07
7.39416e-09
7.41524e-06
0.00013307
0.000746285
0.0019143
0.00184702
0.000682254
0.000356362
0.000380736
0.000444362
0.000238975
3.98121e-05
0.000720347
0.00139029
0.00149295
0.00134668
0.000301438
7.05912e-08
1.75044e-06
7.70195e-05
0.00113638
0.00426462
0.00616886
0.00322659
0.00130593
0.0017637
0.00132793
0.000712788
0.000214573
0.000959734
0.00131483
0.00140731
0.00147785
0.00156305
0.00139613
0.000293824
2.86643e-05
0.000903803
0.00551988
0.00676132
0.00699718
0.00378109
0.00229014
0.00255183
0.00180971
0.000925869
0.00111254
0.0012767
0.00132157
0.001411
0.00148156
0.00152199
0.00160818
0.00165838
0.000298894
0.000559176
0.00485492
0.00608953
0.00698742
0.00668242
0.0040882
0.00368761
0.00274132
0.00150464
0.00107886
0.00124682
0.00125299
0.00133401
0.00142179
0.0014689
0.00150681
0.00154267
0.00163569
0.00174244
0.000304325
0.00470448
0.00617359
0.00575212
0.00656188
0.00620424
0.00443397
0.0047217
0.00262633
0.00124177
0.00126166
0.00120424
0.00125764
0.00135065
0.0014097
0.000864197
0.00147698
0.00150191
0.00155048
0.00165339
0.00178248
0.000320018
0.00564814
0.00593324
0.00569715
0.00591321
0.00571562
0.00486647
0.00439819
0.00242904
0.00142334
0.00119422
0.00119847
0.00127161
0.00132229
0.00107435
0.00175561
0.00095789
0.00175607
0.00177445
0.00177483
0.00145618
0.00148834
0.00155568
0.00167619
0.00183382
0.00034194
0.00529895
0.0058485
0.00568541
0.00552406
0.00511379
0.00646124
0.00436978
0.00181864
0.00130212
0.00116487
0.00120109
0.00123489
0.00115025
0.000948591
0.001846
0.00152368
0.00141294
0.00184653
0.00193914
0.00194014
0.00152357
0.00155041
0.00155039
0.00143363
0.00148186
0.00156602
0.00170583
0.00188977
0.000383274
0.00432129
0.00558795
0.0056911
0.00526015
0.00535915
0.00603172
0.00369142
0.0016773
0.00121467
0.00115417
0.00116005
0.00111118
0.000731894
0.00153812
0.00153805
0.00157194
0.00157201
0.00157808
0.00136693
0.00140109
0.000936742
0.00157797
0.00161361
0.00161363
0.00136651
0.00139544
0.00139534
0.00141464
0.00147984
0.0015826
0.00173947
0.00194819
0.000437072
0.00358098
0.00525655
0.00562037
0.00517004
0.00462593
0.0056408
0.00314932
0.0015296
0.00119132
0.00111803
0.00105815
0.00058209
0.00152625
0.00152644
0.00155462
0.00155517
0.00137248
0.00137264
0.00141164
0.00141168
0.00140823
0.00124309
0.00122564
0.00123624
0.00124904
0.00136278
0.000921941
0.00164201
0.00164244
0.00151904
0.00151902
0.00140772
0.00143871
0.00143832
0.00124277
0.0012263
0.00123583
0.00124567
0.00126252
0.00125603
0.00128917
0.00125428
0.00126244
0.00126479
0.00128925
0.00125494
0.00139674
0.00148381
0.00160237
0.00177684
0.00200725
0.000504305
0.00307936
0.00471621
0.00508783
0.00415314
0.00385986
0.00614452
0.00288719
0.00149958
0.00119002
0.00103887
0.000509442
0.00154768
0.00154827
0.00158166
0.00158259
0.00134944
0.00134964
0.0013554
0.00135581
0.00121008
0.00119133
0.00122983
0.00124194
0.00125365
0.00119852
0.00119881
0.00120979
0.00122958
0.00124113
0.00125353
0.00119863
0.00123379
0.00125825
0.00125886
0.0012745
0.00123537
0.00125828
0.00125884
0.00127446
0.00126789
0.0012306
0.00125569
0.00125768
0.00111905
0.00115191
0.00110846
0.00116937
0.0013169
0.000945037
0.00172456
0.00172489
0.00170584
0.00170621
0.00146229
0.00146266
0.00131984
0.00132085
0.00126756
0.00123367
0.00125534
0.00125665
0.00129179
0.00128411
0.0013034
0.00129082
0.00129157
0.00128783
0.00130326
0.00128886
0.00111869
0.00115166
0.00110818
0.00116663
0.00113948
0.0011729
0.0011394
0.00117491
0.00138167
0.00148904
0.00162466
0.00181617
0.002057
0.000603835
0.0024703
0.00387554
0.00358959
0.00358025
0.00481391
0.00564948
0.00275062
0.00162893
0.00119397
0.000513503
0.00163938
0.00163998
0.0016657
0.00166626
0.00135186
0.00135229
0.00138523
0.00138584
0.00119088
0.00121017
0.00118169
0.00120261
0.00119456
0.00121029
0.00118733
0.00120261
0.00117624
0.0012031
0.00117823
0.00120245
0.00118334
0.00120323
0.00118488
0.00120258
0.00113438
0.00118872
0.00119009
0.00111805
0.00120425
0.00119176
0.00113964
0.00118837
0.00111795
0.00118979
0.00120357
0.00119155
0.00116864
0.00116513
0.00120366
0.00119051
0.00117033
0.00116505
0.00120386
0.00119043
0.00112678
0.00114956
0.00111421
0.00116939
0.00106293
0.00112902
0.00105445
0.0011392
0.00126882
0.000979709
0.00158338
0.00158386
0.00165228
0.00165247
0.00155897
0.00155927
0.00153336
0.00153364
0.00132762
0.00132211
0.00130554
0.00130281
0.00132855
0.00132212
0.00130617
0.00130283
0.00122194
0.00120039
0.00119248
0.00124389
0.00122882
0.00116974
0.00122452
0.00120321
0.00119275
0.00124592
0.00122913
0.00116971
0.00112647
0.00115132
0.00111402
0.00116905
0.00115033
0.00120299
0.00115007
0.00120072
0.00106278
0.0011278
0.00105431
0.00113714
0.00107539
0.00112754
0.00107534
0.00112998
0.00137005
0.00149906
0.00165282
0.00185865
0.00199908
0.000724186
0.0022273
0.00262116
0.00272808
0.00351372
0.00604195
0.00521063
0.00307673
0.00196011
0.00128569
0.00172284
0.00172332
0.00177124
0.00177199
0.00143216
0.00143233
0.00148127
0.00148143
0.00117605
0.00120426
0.0011855
0.00120978
0.00118283
0.00120451
0.00119065
0.00120983
0.00123874
0.00126766
0.00120924
0.0012363
0.0012432
0.00126787
0.0012136
0.0012365
0.00113268
0.00112262
0.00111548
0.00110334
0.00113704
0.00112262
0.00112192
0.00110335
0.0010824
0.0010673
0.00109895
0.00108231
0.0010893
0.00106732
0.00110585
0.00108248
0.001064
0.00112141
0.001055
0.00113436
0.00122983
0.00103036
0.00130386
0.00130438
0.00142944
0.00142998
0.00147426
0.00147461
0.0015161
0.00151639
0.00140264
0.0013985
0.00138223
0.00138451
0.0014081
0.00139856
0.00138697
0.0013846
0.00135081
0.00135253
0.00136814
0.00136771
0.00135219
0.00135264
0.00137159
0.00136772
0.00127735
0.00123343
0.0012572
0.00121883
0.00127838
0.00123325
0.00125775
0.00121868
0.00117377
0.00121429
0.00117121
0.00109849
0.00122509
0.00118496
0.00117521
0.00121695
0.00117135
0.00109849
0.00122707
0.00118503
0.00106387
0.00112255
0.00105494
0.00113395
0.00108471
0.00117063
0.00108452
0.00116866
0.00137256
0.00152829
0.00168827
0.00189532
0.00197015
0.000860102
0.00155179
0.00147182
0.00238174
0.00319171
0.00547291
0.00596579
0.00396639
0.00302094
0.000728775
0.00155423
0.0015544
0.00162416
0.00162473
0.00132857
0.00132875
0.00138022
0.00138026
0.00108448
0.00107187
0.00110008
0.00108075
0.00109109
0.00107206
0.00110474
0.0010808
0.00117061
0.00117704
0.00113353
0.00111196
0.00117575
0.00117716
0.00113843
0.00111209
0.00106573
0.00103545
0.00107189
0.00103542
0.00122799
0.00104444
0.000899849
0.00090052
0.00108957
0.00109016
0.00128231
0.00128237
0.00136825
0.00136833
0.00132337
0.00132219
0.00134308
0.00133294
0.00132796
0.00132227
0.0013464
0.00133303
0.00139171
0.00137912
0.00136977
0.00136433
0.00139706
0.00137932
0.00137482
0.00136439
0.00131631
0.00126484
0.00131281
0.00126429
0.00132086
0.00126491
0.00131643
0.00126447
0.00128865
0.00124918
0.00130297
0.00125994
0.00128967
0.00124909
0.00130552
0.00125994
0.00142601
0.00156478
0.00171566
0.00191845
0.00205793
0.00113657
0.000503341
0.00191823
0.00323844
0.00366017
0.00643811
0.00712349
0.00542791
0.00407057
0.00174156
0.00174185
0.00190047
0.00190128
0.00143185
0.00143197
0.00150142
0.00150166
0.0012383
0.00122986
0.00122283
0.00125981
0.00123837
0.00123004
0.00122302
0.00125973
0.00126892
0.00128309
0.00127798
0.00128047
0.00126889
0.00128638
0.00127791
0.0012815
0.00106526
0.00102452
0.00107097
0.00102367
0.0010704
0.00102459
0.00107455
0.00102364
0.00111876
0.00109933
0.00108522
0.00104324
0.00112276
0.00109931
0.00108911
0.00104329
0.00134901
0.0010692
0.000901913
0.00101417
0.00101474
0.00114957
0.0011499
0.00123224
0.00123314
0.00126576
0.00126748
0.00125488
0.00119589
0.00127656
0.00120818
0.00125927
0.00119599
0.0012805
0.00120834
0.00130853
0.00125122
0.00129448
0.0012317
0.00131352
0.00125144
0.00129877
0.00123188
0.00130838
0.00123616
0.00131256
0.00123613
0.00148331
0.00158177
0.00172843
0.00192683
0.00210929
0.00111462
0.000329562
0.00251424
0.00298559
0.00405771
0.00468911
0.00630959
0.00645329
0.00164282
0.00157477
0.00157503
0.00169328
0.0016934
0.00131291
0.00131524
0.00135329
0.00135144
0.00131694
0.00131543
0.00135336
0.00135147
0.00144652
0.00144655
0.00115448
0.00119972
0.0011601
0.00120882
0.00115447
0.00119939
0.0011601
0.00120835
0.00115899
0.00121868
0.00117451
0.00120708
0.00115889
0.00122307
0.00117456
0.00120785
0.00113315
0.00109679
0.0011356
0.00109662
0.00144346
0.00129945
0.00103592
0.000982352
0.000982663
0.00111504
0.00111586
0.0011443
0.00114497
0.00121757
0.00121816
0.00114821
0.00121834
0.0011397
0.00122765
0.00114859
0.00121749
0.00113968
0.00122817
0.00116197
0.00123322
0.00115197
0.00123665
0.00116254
0.00123592
0.00115246
0.00123867
0.00124349
0.00113224
0.0012645
0.00115209
0.00124618
0.00113219
0.0012672
0.00115214
0.00129895
0.00120639
0.00127722
0.00117762
0.00130336
0.00120646
0.00128059
0.00117764
0.00150869
0.00159369
0.00173263
0.00195402
0.00117333
0.000987628
0.0028704
0.00307192
0.00321341
0.00319685
0.00208414
0.00135809
0.00148517
0.00148478
0.00115814
0.00115798
0.00138224
0.00140415
0.00141699
0.00144328
0.00138618
0.0014044
0.00142008
0.00144327
0.00152042
0.00152068
0.00125185
0.00121053
0.00128133
0.00129945
0.00125488
0.00121065
0.00128108
0.00129824
0.00133898
0.00133822
0.00132974
0.00132124
0.00134143
0.00133822
0.00132892
0.00132106
0.00113287
0.00119658
0.00113222
0.001194
0.00113271
0.00120014
0.0011322
0.00119567
0.00148389
0.00142397
0.00129905
0.00116535
0.00122725
0.00122714
0.00116901
0.00116942
0.0011438
0.00114432
0.00121
0.0011223
0.00111341
0.00118611
0.00121012
0.00112228
0.00111361
0.00118826
0.00108838
0.00121097
0.00107585
0.0012195
0.00108845
0.00121133
0.00107576
0.00122069
0.00110241
0.00123358
0.00111027
0.00123168
0.00110258
0.0012358
0.00111028
0.00123396
0.00124835
0.00111566
0.00125059
0.00111543
0.00151068
0.00164234
0.0017749
0.00124464
0.00239496
0.00272876
0.00251384
0.00219126
0.00153516
0.00100847
0.000632781
0.000633138
0.000645959
0.000645683
0.00126894
0.00126894
0.000901788
0.000901784
0.00128313
0.00126477
0.00133449
0.00133914
0.00128705
0.00126502
0.00133736
0.00133921
0.00135699
0.00133679
0.00135342
0.00135095
0.00135704
0.00133903
0.00135338
0.00135143
0.00121861
0.00114975
0.00120268
0.00124971
0.00121931
0.0011498
0.00120254
0.00124796
0.0012577
0.00122055
0.00126794
0.00122657
0.0012608
0.00122046
0.00126882
0.00122642
0.00147194
0.00147608
0.00142003
0.00138347
0.00140195
0.00140054
0.00132588
0.00132396
0.00123685
0.00123427
0.0012577
0.00108615
0.00124503
0.00109414
0.00125304
0.00108564
0.00123849
0.00109309
0.00124027
0.00108025
0.00123649
0.0010684
0.00118785
0.00105575
0.00123712
0.00107964
0.00123519
0.00106806
0.00118809
0.00105574
0.00120546
0.00106283
0.00120557
0.00106282
0.00107454
0.00123936
0.00106425
0.00123706
0.00107444
0.00123948
0.00106392
0.00123795
0.00157016
0.00171191
0.00132101
0.00243745
0.00229441
0.001744
0.00120231
0.000942386
0.000657103
0.000572881
0.000573391
0.000602902
0.000602305
0.00112939
0.00124967
0.00114395
0.00104633
0.00108078
0.00123105
0.00125183
0.00112998
0.00123093
0.00114381
0.00104717
0.00108051
0.000471893
0.000713328
0.000622675
0.000786883
0.000480561
0.000712112
0.000626391
0.000786563
0.00123503
0.00119279
0.00126694
0.00123803
0.00123767
0.00119288
0.00126845
0.00123801
0.0012445
0.00127079
0.00124443
0.00127141
0.0011845
0.00124115
0.00118439
0.00124016
0.00123252
0.00118458
0.00123528
0.00118445
0.00148201
0.00145784
0.00147054
0.00145229
0.00157103
0.00157033
0.00153632
0.00153541
0.00138513
0.0013826
0.00133715
0.00133504
0.00114995
0.00134432
0.00116568
0.00134834
0.00110423
0.00131022
0.00114966
0.00134017
0.00116431
0.00134583
0.00110391
0.00130845
0.00130067
0.00108959
0.00129881
0.0010893
0.00127695
0.00108009
0.0012734
0.0012374
0.00107483
0.0010534
0.00127608
0.00107971
0.00127273
0.00123693
0.00107451
0.00105303
0.00124348
0.00105864
0.00124312
0.00105831
0.00175261
0.00132237
0.00214192
0.00168853
0.00116737
0.000933763
0.000765821
0.000553268
0.000552993
0.000641349
0.000641185
0.000472006
0.000473024
0.000482916
0.000482252
0.00118827
0.00103447
0.00105694
0.00116525
0.00088232
0.000943216
0.0011897
0.00103569
0.00116503
0.0010567
0.000884971
0.000942979
0.000366119
0.000610173
0.000517199
0.000673307
0.000369367
0.000610016
0.000520896
0.000673178
0.00124761
0.00121031
0.00124862
0.00121019
0.00173038
0.00141771
0.0014498
0.00147756
0.00151669
0.00152673
0.0015253
0.0014893
0.0014875
0.00141704
0.00125363
0.00143371
0.00123983
0.0014098
0.00125142
0.00142872
0.00123848
0.00142904
0.00140359
0.00123278
0.00142467
0.00123398
0.00120801
0.00142735
0.0013993
0.00123211
0.00142233
0.00123289
0.00120737
0.0012096
0.00114332
0.00139747
0.00133863
0.00120925
0.00114295
0.00139345
0.00133708
0.00133079
0.00114605
0.00132943
0.00114558
0.00131884
0.00113231
0.00126053
0.00106593
0.00131729
0.00113176
0.00126012
0.00106549
0.00119486
0.001715
0.00126754
0.0010805
0.000935279
0.000764551
0.000483782
0.000483298
0.000605749
0.000605292
0.000375515
0.000342003
0.000421102
0.00033939
0.000376652
0.000346004
0.00042353
0.000341244
0.000380883
0.000380293
0.000332198
0.000478698
0.00041829
0.000603886
0.000335561
0.000480685
0.000421562
0.000603998
0.000937332
0.00159593
0.00138455
0.00144135
0.00149849
0.00159368
0.00159299
0.00155475
0.00155342
0.00141676
0.00141517
0.00139257
0.00138964
0.00144033
0.00125583
0.00142799
0.00124248
0.00143804
0.00125504
0.00142874
0.00124206
0.00143187
0.0014194
0.00123717
0.0012401
0.00142158
0.00123948
0.00142853
0.00142179
0.00123968
0.0012366
0.00142552
0.00123934
0.00120683
0.00138012
0.00120642
0.00137686
0.00136627
0.00111253
0.00113596
0.000981502
0.000754577
0.000754888
0.000862225
0.00086265
0.000432661
0.000431822
0.000595727
0.000595231
0.000344333
0.000281293
0.0003766
0.000281184
0.000345182
0.000283934
0.000378242
0.00028125
0.000334194
0.000365639
0.000279544
0.000325044
0.000331839
0.000364971
0.000278703
0.000325024
0.000322097
0.000472978
0.000325421
0.000474641
0.000755173
0.00141602
0.00136363
0.00143654
0.00151788
0.001527
0.00152592
0.00147914
0.0014784
0.00138008
0.00137943
0.00128212
0.0014469
0.00128278
0.00141105
0.00128172
0.00144106
0.00128185
0.00140905
0.00144448
0.00128094
0.00142726
0.00127588
0.00143964
0.00128005
0.00142483
0.00127529
0.00119317
0.00111338
0.00120695
0.00099329
0.000743044
0.000743702
0.000909448
0.000909822
0.00029589
0.000350725
0.000439738
0.000328512
0.000355172
0.000401138
0.000293364
0.000350348
0.000439598
0.000326277
0.000355082
0.000399783
0.000543822
0.000543905
0.000331814
0.000265501
0.000389794
0.000255349
0.000332315
0.000267107
0.000390865
0.000255814
0.00024823
0.00031693
0.000246924
0.000316865
0.000625414
0.00126305
0.00133004
0.00142587
0.00156267
0.00156184
0.00153687
0.00153554
0.00140891
0.00140756
0.00137743
0.00137633
0.00140728
0.00129092
0.00143577
0.00130053
0.00144953
0.00130277
0.00140359
0.00128882
0.00143818
0.00130006
0.00144836
0.00130224
0.00146315
0.00131601
0.00145965
0.00131531
0.00147159
0.00133736
0.0014663
0.00133658
0.00110337
0.00122815
0.00119889
0.00107731
0.00107741
0.00117074
0.00117083
0.000728645
0.000729881
0.000930799
0.000931238
0.000289402
0.00031726
0.000436596
0.000344923
0.000376622
0.000401316
0.000286927
0.000317211
0.000436498
0.000342678
0.000376478
0.000399662
0.000563299
0.00058264
0.000465741
0.000457179
0.0005642
0.000583021
0.000465883
0.000457359
0.000553411
0.0011538
0.00128261
0.00140848
0.00150169
0.00150035
0.00146729
0.00146638
0.00137317
0.0013711
0.00142619
0.00129226
0.0012697
0.0014118
0.00127369
0.00136972
0.00126987
0.00141039
0.00127336
0.00136991
0.00142918
0.00129205
0.00143709
0.00145283
0.00132166
0.00132945
0.00144469
0.00145615
0.00132183
0.00132916
0.00147299
0.00135011
0.00147221
0.00134982
0.00123282
0.00144169
0.000989498
0.00108024
0.00108009
0.00114897
0.00114892
0.000560415
0.000578827
0.000847395
0.000713087
0.000711341
0.000833647
0.00056222
0.000579341
0.000847489
0.00071519
0.000711408
0.00083474
0.000971835
0.000971828
0.000397797
0.000410729
0.000397933
0.000409773
0.000467836
0.000470118
0.000469099
0.000470401
0.000506769
0.00106375
0.00121827
0.00136081
0.00135909
0.00141978
0.00141771
0.001375
0.00137307
0.00136498
0.00136375
0.00140446
0.00128515
0.00142699
0.00127551
0.00141599
0.00126976
0.00139624
0.00141271
0.00126935
0.00128249
0.00142217
0.00127475
0.00141647
0.0012937
0.00141064
0.00127721
0.00140759
0.00141885
0.00127692
0.00129354
0.000745077
0.00145595
0.000679207
0.000898928
0.000898713
0.000974499
0.000974194
0.000595186
0.000591471
0.000851548
0.000739524
0.000726702
0.00086395
0.00059832
0.000591392
0.00085172
0.000741573
0.000726856
0.000865985
0.000862166
0.000841964
0.000792258
0.000762201
0.000861294
0.000841592
0.000791392
0.000761828
0.000522998
0.000525343
0.000526317
0.000525333
0.000486427
0.000977946
0.00112189
0.00129008
0.00128737
0.00130304
0.00129962
0.00131015
0.00130686
0.00142287
0.0012794
0.00126151
0.00140745
0.00127348
0.00134832
0.00142198
0.00127839
0.00126109
0.00140913
0.00127294
0.00134867
0.00142661
0.0014148
0.00128537
0.0012767
0.00141094
0.00127632
0.00142508
0.00128491
0.00181773
0.000896691
0.000506729
0.00071299
0.00071221
0.000505097
0.000687661
0.000687416
0.000654377
0.00086187
0.000829837
0.000653463
0.000862608
0.000829827
0.000652551
0.000653269
0.000681813
0.000666197
0.000649352
0.000715594
0.000654614
0.000653304
0.000681739
0.000666556
0.00064943
0.000715496
0.000798537
0.000763553
0.000800086
0.000763803
0.000502077
0.000882383
0.000951426
0.00115144
0.00114795
0.00117871
0.00117311
0.00124375
0.00118514
0.00134606
0.00121125
0.00138259
0.00125334
0.0012323
0.00138147
0.00125249
0.00118163
0.00133947
0.00121012
0.00141605
0.00128511
0.00139875
0.0012802
0.00141818
0.00128446
0.00140404
0.00127978
0.0014234
0.00129993
0.00142419
0.00129962
0.00173013
0.000621277
0.000545493
0.000522052
0.000543975
0.000519895
0.000607847
0.000606978
0.000409611
0.000601057
0.000609284
0.000672653
0.000680764
0.000475176
0.000495704
0.000581832
0.000604998
0.000405349
0.000611167
0.000676195
0.000681655
0.000473655
0.000495189
0.000578514
0.000713134
0.000753608
0.000713472
0.000755141
0.000695678
0.000681768
0.000700976
0.000682889
0.000541467
0.000750967
0.000807005
0.00107976
0.00107654
0.000802606
0.000928478
0.000924668
0.00111879
0.00123207
0.00114658
0.00111478
0.00122311
0.00114446
0.00136502
0.00129908
0.00125044
0.00118811
0.00136512
0.00124996
0.00129434
0.00118753
0.00141814
0.0013095
0.00140154
0.00130732
0.00142586
0.00130937
0.0014097
0.00130735
0.000938914
0.000544527
0.000533742
0.000551722
0.000542074
0.000464265
0.000532109
0.000550688
0.000535022
0.000461738
0.000521121
0.000520415
0.000351088
0.000531601
0.000632609
0.000624642
0.000417033
0.00048446
0.000348272
0.000637667
0.000526563
0.000626116
0.000417253
0.000483429
0.000683585
0.000715225
0.000684532
0.000719198
0.000583387
0.000654117
0.000790553
0.000940424
0.000937681
0.00078332
0.000846667
0.000840295
0.00111076
0.00118379
0.00110183
0.00121385
0.0011285
0.00101444
0.000992059
0.00101411
0.00110767
0.00117719
0.00109999
0.00120432
0.00112611
0.00101361
0.000985692
0.00101057
0.00134882
0.00127407
0.00125702
0.00118194
0.00134846
0.00125681
0.00126695
0.00118124
0.00059439
0.000409864
0.000448658
0.000448485
0.000414779
0.000554055
0.000554898
0.000443332
0.00054723
0.000584464
0.000531825
0.000564109
0.000564102
0.00045695
0.000478239
0.000429378
0.000416307
0.000499437
0.0004429
0.000544965
0.000575259
0.000530009
0.000554461
0.00055693
0.000462371
0.00047911
0.00042599
0.000420451
0.000495003
0.000431294
0.000526877
0.000448887
0.000493142
0.000430025
0.000521612
0.000449283
0.000492385
0.000680926
0.000553046
0.00069472
0.00089189
0.000950601
0.000975225
0.000889158
0.00095085
0.000977284
0.000683144
0.000750759
0.000736748
0.00112613
0.00104765
0.00124153
0.00105923
0.00117556
0.000963528
0.00112617
0.00105066
0.00123328
0.00117526
0.00105877
0.000963324
0.00132596
0.00125045
0.0013219
0.00125008
0.000254244
0.000386641
0.000339965
0.000386067
0.000342015
0.000405243
0.000404726
0.000565212
0.000568143
0.000506841
0.000521702
0.000468636
0.000441544
0.000270906
0.000380353
0.000407078
0.000392193
0.00045438
0.000358053
0.000299229
0.000518926
0.000561179
0.000565709
0.000521209
0.000506483
0.000471525
0.000442221
0.000385136
0.000285172
0.000407884
0.000399015
0.000451986
0.000353989
0.000298574
0.000509109
0.00071432
0.000265698
0.000648207
0.000636881
0.000290695
0.000495107
0.000488824
0.000761515
0.000926477
0.000945313
0.000898753
0.000952508
0.000951074
0.000880409
0.000846103
0.000747404
0.000926055
0.000944075
0.000897466
0.000953659
0.000942287
0.000875806
0.000846154
0.000725848
0.0007699
0.000845975
0.000711168
0.000752962
0.000839003
0.00108245
0.001008
0.00102135
0.000940114
0.00108904
0.00101063
0.00102109
0.000939983
0.00019414
0.000362223
0.000443016
0.000293174
0.000272447
0.000359934
0.000447072
0.000291894
0.000270644
0.000279568
0.000278901
0.000537802
0.000495133
0.000452299
0.000434221
0.000366414
0.000314004
0.000432738
0.00043652
0.000365657
0.000312785
0.000537655
0.000495158
0.000454105
0.000435043
0.00037017
0.000434916
0.000316762
0.000437866
0.000367371