/*--------------------------------*- C++ -*----------------------------------*\
| =========                 |                                                 |
| \\      /  F ield         | OpenFOAM: The Open Source CFD Toolbox           |
|  \\    /   O peration     | Version:  5.x                                   |
|   \\  /    A nd           | Web:      www.OpenFOAM.org                      |
|    \\/     M anipulation  |                                                 |
\*---------------------------------------------------------------------------*/
FoamFile
{
    version     2.0;
    format      ascii;
    class       volScalarField;
    location    "2.6";
    object      omega;
}
// * * * * * * * * * * * * * * * * * * * * * * * * * * * * * * * * * * * * * //

dimensions      [0 0 -1 0 0 0 0];

internalField   nonuniform List<scalar> 
12160
(
0.0719999
0.0719999
0.00173878
0.0719999
0.00368517
0.0011549
0.0719999
0.00678732
0.00144619
0.00111986
0.0719999
0.0112282
0.00194992
0.00131398
0.00112789
0.0719999
0.0145716
0.00289584
0.00149363
0.00132684
0.00122465
0.0719999
0.0160643
0.00376236
0.00180899
0.00146562
0.00155651
0.00126679
0.0719999
0.0161619
0.00419251
0.00205968
0.00166543
0.00167043
0.00197495
0.00294218
0.0719999
0.0161501
0.00421674
0.00218817
0.00179198
0.00176091
0.00219857
0.00509915
0.0140825
0.0719999
0.0162468
0.00421137
0.00221244
0.00186588
0.00179492
0.00226437
0.00500525
0.0141178
0.0139921
0.0719999
0.0164519
0.00425758
0.00223371
0.0019143
0.00184816
0.00215523
0.00392214
0.0139334
0.013832
0.0226344
0.0719999
0.0166053
0.00433777
0.00227843
0.00196231
0.00192167
0.00210451
0.00312134
0.0123913
0.0141633
0.027248
0.0289555
0.0719999
0.0166274
0.00439298
0.00232293
0.00201155
0.00200001
0.00214403
0.00280362
0.010701
0.0148313
0.0350937
0.0313499
0.0205437
0.0719999
0.0165202
0.00439788
0.00234826
0.00204773
0.002072
0.00225794
0.00311865
0.00904481
0.0147182
0.0346193
0.0285826
0.0134116
0.0177951
0.0719999
0.0163923
0.00435432
0.00234829
0.00206609
0.00212279
0.00237152
0.00365147
0.00787112
0.0137246
0.0288585
0.0198402
0.0196582
0.0116569
0.0128095
0.0719999
0.0163636
0.00430093
0.00232746
0.00206511
0.00214422
0.00244304
0.0041194
0.00702958
0.0128557
0.0229491
0.0213864
0.00987645
0.0108943
0.00286663
0.0719999
0.0163947
0.00427962
0.0023075
0.00204575
0.00213897
0.00247087
0.00443132
0.0066182
0.0118666
0.0197232
0.0237768
0.00775657
0.00611761
0.00725842
0.0719999
0.0163254
0.0042779
0.00230547
0.00201809
0.00211417
0.00245986
0.0045839
0.0065528
0.0107921
0.0180117
0.025133
0.00853687
0.00399385
0.00416764
0.0719999
0.0163777
0.00425028
0.00231257
0.00200316
0.0020868
0.00240527
0.00460456
0.00673461
0.00988719
0.0166911
0.0257469
0.00885156
0.00351425
0.00239339
0.0719999
0.0169619
0.00426736
0.0023242
0.00200692
0.00208159
0.00232525
0.00450399
0.00690778
0.00924078
0.0152926
0.0263006
0.00998364
0.00345841
0.00197553
0.0719999
0.0180965
0.00445532
0.00236774
0.0020344
0.00210569
0.0022676
0.00432986
0.00697221
0.00878472
0.0137764
0.0256868
0.00906917
0.00366793
0.00194202
0.0719999
0.0193898
0.00481246
0.00247796
0.00209654
0.00215161
0.0022676
0.00411465
0.00698347
0.00849603
0.0127494
0.0259389
0.010674
0.00370886
0.00205653
0.0719999
0.0205734
0.00521684
0.00265961
0.00221136
0.00222289
0.00231749
0.00393257
0.00693982
0.008295
0.0120942
0.0232872
0.0138142
0.00383901
0.00217951
0.0719999
0.0214489
0.00558726
0.00287012
0.00237079
0.0023441
0.00245514
0.00382232
0.00681447
0.00809708
0.0114405
0.0200434
0.0171793
0.00586887
0.00241382
0.0719999
0.0218666
0.00586309
0.00307047
0.00255517
0.00254079
0.00270621
0.0038516
0.00665217
0.00790379
0.0106521
0.0180351
0.0191085
0.00885476
0.00263138
0.0719999
0.0218375
0.00599045
0.00322796
0.0027363
0.00277169
0.00302864
0.00402716
0.00644405
0.00776188
0.00977972
0.0173926
0.019496
0.0103876
0.00354927
0.0719999
0.0214075
0.00597424
0.0033127
0.0028807
0.00297098
0.00331595
0.00428137
0.00613529
0.00766491
0.00918572
0.0175713
0.0197834
0.0119946
0.00467828
0.0719999
0.0206142
0.00582626
0.00332768
0.00296505
0.00310091
0.00350193
0.00446932
0.00596757
0.00757346
0.0090851
0.0179323
0.0202806
0.0131874
0.00573291
0.0719999
0.0195386
0.00556584
0.00327683
0.00299818
0.00315181
0.00354959
0.00448601
0.0058207
0.00751324
0.00957995
0.0171395
0.0207952
0.0138597
0.00649103
0.0719999
0.0182738
0.00522257
0.00316837
0.00298273
0.00318999
0.00350882
0.00433496
0.00551564
0.00727824
0.00985122
0.015431
0.0207164
0.0146856
0.00669322
0.0719999
0.0169154
0.0048298
0.00301708
0.00291652
0.00321985
0.00357496
0.00414998
0.00509855
0.00677838
0.00944399
0.0143303
0.0201058
0.0153688
0.00704492
0.0719999
0.0155534
0.00441947
0.00284117
0.00280772
0.00320354
0.00372127
0.00426569
0.00477192
0.00604339
0.00850539
0.0131127
0.0177785
0.0148495
0.00798179
0.0719999
0.014286
0.00402203
0.00265838
0.00267442
0.00313568
0.00382368
0.00459134
0.004957
0.00544646
0.00703593
0.010944
0.0149304
0.012872
0.00807448
0.0719999
0.0132258
0.00366828
0.0024855
0.00253595
0.00301084
0.0038275
0.00489602
0.00550458
0.00574121
0.0059608
0.00797767
0.0115242
0.0103992
0.00594434
0.0719999
0.0127087
0.00338709
0.00233755
0.00240828
0.00285025
0.0037487
0.00508917
0.0061129
0.00664493
0.00659844
0.00605684
0.00710928
0.00753952
0.00413501
0.0719999
0.0129046
0.00324926
0.00222726
0.00230404
0.00269644
0.00361673
0.00518039
0.00667462
0.00762029
0.0083503
0.00787188
0.00407253
0.00438762
0.00285582
0.0719999
0.0136191
0.00331561
0.00217632
0.0022285
0.00257268
0.00345423
0.00519647
0.00718354
0.00852302
0.010021
0.0118471
0.00497659
0.00251342
0.00188024
0.0719999
0.0146195
0.00353258
0.00219689
0.00219222
0.00249305
0.00329183
0.00516672
0.00766204
0.00941755
0.0114975
0.0148107
0.0083173
0.00250583
0.00133456
0.0719999
0.0157194
0.00385107
0.00227423
0.0022064
0.00246965
0.00313156
0.00515242
0.00810044
0.010322
0.0130822
0.0172086
0.0104727
0.00373308
0.00130553
0.0719999
0.0168391
0.00422527
0.00239541
0.00226368
0.00249314
0.00299989
0.00519004
0.00848418
0.0110478
0.0150255
0.0200742
0.0115662
0.00550096
0.00163442
0.0177564
0.0719999
0.00462967
0.00254808
0.00235278
0.00255197
0.00300763
0.00529908
0.00880504
0.0113604
0.016841
0.0245217
0.0124592
0.007505
0.0019127
0.00499526
0.0192254
0.0719999
0.00272385
0.00246438
0.00264284
0.00312374
0.00546054
0.00900935
0.0112333
0.0174439
0.0294149
0.0129385
0.00908378
0.00223404
0.00290056
0.00559914
0.0200343
0.0719999
0.002593
0.00276463
0.00330442
0.00559996
0.00893126
0.0112197
0.0163605
0.0320015
0.0142994
0.00975382
0.00284734
0.00272527
0.00320446
0.00600923
0.0206279
0.0719999
0.00291591
0.00351718
0.00570705
0.00875277
0.0112084
0.0155167
0.0325527
0.0162962
0.00955387
0.00337641
0.00308105
0.00294483
0.00348194
0.00644492
0.0215717
0.0719999
0.00374739
0.00580206
0.00858999
0.0111693
0.0152247
0.029863
0.0180626
0.00903325
0.0033859
0.00397207
0.00333534
0.00317473
0.00384632
0.00707176
0.0315074
0.0719999
0.00589553
0.0084688
0.0111078
0.0154921
0.026785
0.0196047
0.00911013
0.00318935
0.00598801
0.00430551
0.00359064
0.0034466
0.00456025
0.0124087
0.0557566
0.0719999
0.00840194
0.011041
0.0161367
0.0251382
0.0208693
0.0101647
0.00327064
0.00836064
0.00601277
0.00460649
0.00383661
0.00395357
0.00830928
0.0202835
0.0711456
0.0719999
0.010991
0.0168217
0.0243379
0.0211258
0.0118421
0.00373624
0.0109625
0.00832965
0.00601895
0.00486978
0.00422894
0.00604336
0.0147843
0.0435175
0.113777
0.0719999
0.0173263
0.0238328
0.0207793
0.012993
0.00558568
0.0176077
0.0110582
0.00834087
0.00610525
0.0052534
0.0076363
0.0261348
0.0930189
0.176927
0.105439
1.26985
0.0233138
0.0198822
0.01321
0.00673363
0.0320467
0.0431629
0.0888873
0.0751511
0.0376509
0.0293386
0.125048
0.35868
0.601807
0.198298
3.45278
21.0052
0.0202598
0.0127643
0.0071149
0.0430255
0.285302
0.938044
1.4083
0.893983
0.335397
0.455556
1.24344
1.72786
0.961964
2.70883
19.4473
21.005
20.5282
0.0133441
0.00698637
0.0314466
0.322119
2.55343
5.73637
5.23541
2.8126
1.37951
2.51943
3.50927
2.59356
2.29171
17.7226
19.6521
21.5874
22.331
21.6502
0.00729163
0.0131934
0.248147
2.44468
7.39664
10.3481
8.56479
4.72735
4.34467
5.62381
4.77688
2.06389
15.2836
18.4344
19.7629
22.5813
23.5324
23.9369
22.7531
0.112406
1.98967
7.08127
11.1906
12.484
10.1245
6.68447
8.52381
7.13869
5.43706
12.5343
17.2094
18.1685
20.4242
23.2869
24.8025
25.5498
25.4819
23.8026
1.16571
6.26854
10.0913
12.9271
13.1674
10.6045
10.3603
10.088
8.18886
12.16
15.8126
16.8085
18.48
20.7997
23.2914
25.7318
27.126
27.7141
27.2132
24.8202
4.44708
9.45445
10.7287
13.0954
13.0748
11.013
13.5602
10.6685
11.6685
15.1916
15.604
16.793
18.5972
20.4832
44.0362
25.6287
28.1997
29.7767
30.1757
29.2701
25.8007
7.61544
10.1566
10.8022
12.3948
12.722
12.8317
13.1832
12.3515
15.6545
14.8219
15.4415
16.6615
17.8463
25.7578
318.66
43.216
318.796
315.668
315.786
27.9634
31.1092
33.003
33.2113
31.8418
26.7824
9.20004
10.0566
10.5655
11.9773
12.5867
15.753
13.2103
14.8663
14.9177
14.4294
15.0967
15.7541
18.3385
69.6373
330.293
435.074
27.2849
330.44
319.963
320.165
435.254
434.606
434.884
31.0685
34.9216
37.027
36.8348
34.8559
27.746
7.42041
9.22482
10.4245
12.0686
13.3556
14.326
13.7453
15.5229
14.0496
13.927
14.1603
14.8158
39.3198
311.986
312.025
304.226
304.237
448.526
472.413
30.0383
72.4183
448.705
444.111
444.301
472.345
463.346
463.197
35.1886
39.7955
41.8905
41.0671
38.0443
28.5462
6.1604
8.56573
10.7726
12.3215
11.6216
13.0993
14.6672
14.4669
13.384
13.0557
13.0251
35.8987
278.591
278.591
280.584
280.682
418.413
418.509
414.674
414.639
486.877
456.106
739.065
453.737
747.36
33.7244
48.8911
334.243
334.276
349.398
349.462
486.813
490.417
490.362
455.591
739.733
453.693
746.126
449.244
691.852
435.771
734.065
449.272
695.231
436.62
734.262
40.6646
45.9176
47.5324
45.4774
40.9805
29.1384
5.7653
7.97186
10.7
9.96884
9.04388
14.5909
14.6788
13.471
12.677
12.0743
37.4766
277.609
277.712
281.134
281.342
393.834
393.749
394.759
394.643
691.209
752.859
420.285
688.948
420.815
441.083
756.276
691.812
420.451
688.985
420.823
442.474
680.091
415.556
689.228
420.456
680.663
415.762
689.323
420.478
465.37
746.308
459.786
758.421
467.245
814.196
465.256
819.603
38.6912
48.3532
327.332
327.371
328.76
328.773
458.272
458.232
480.262
480.36
465.171
747.789
460.028
758.159
472.402
754.286
468.537
772.729
471.975
755.815
468.802
771.804
466.824
814.672
465.245
818.829
459.601
804.975
460.149
806.197
47.9098
53.1465
53.4687
49.48
43.084
29.4
5.39505
6.95437
7.50332
7.52256
10.627
15.1539
13.2855
12.8954
11.7636
38.5795
295.67
295.804
299.694
299.831
391.02
390.924
399.643
399.57
662.502
402.446
662.745
402.049
663.785
402.939
665.271
402.899
659.39
400.818
663.604
402.368
662.414
401.808
666.319
403.329
778.816
735.677
428.119
444.846
752.342
433.195
782.021
736.192
446.261
428.291
752.406
433.219
745.264
428.475
759.061
435.34
746.344
428.936
759.311
435.453
473.322
816.603
467.125
828.702
471.583
833.822
470.81
835.737
46.0628
47.1368
304.171
304.314
319.418
319.436
470.876
470.681
465.733
465.606
771.991
465.446
757.35
460.704
772.507
465.594
757.922
460.879
767.921
828.998
469.205
747.708
462.515
478.989
769.395
830.216
469.689
748.784
462.895
479.382
473.365
817.89
467.556
829.102
482.52
845.946
482.048
845.066
471.133
833.197
470.56
834.419
461.652
815.34
462.417
816.838
57.112
61.2167
58.913
52.3432
44.1675
29.2688
3.49478
4.21526
4.56489
8.30912
14.7898
14.5536
13.0138
12.4611
12.5438
309.174
309.289
289.794
289.929
409.939
409.886
423.197
423.281
654.836
398.519
659.015
400.846
657.208
399.345
661.428
401.6
656.065
411.83
669.281
407.895
658.013
412.351
671.022
408.483
731.311
418.951
733.532
419.601
733.566
419.927
736.825
421.079
737.326
421.133
739.191
421.781
741.166
422.869
742.441
423.358
476.444
832.345
471.122
842.301
57.6275
45.0699
265.784
265.884
288.873
288.963
449.727
449.572
460.977
460.772
808.858
486.159
806.368
483.982
811.161
486.871
808.235
484.558
790.506
474.258
799.106
479.255
790.885
474.383
800.734
479.691
848.722
483.74
829.559
475.313
849.835
484.113
830.246
475.634
860.345
800.196
470.107
487.185
808.551
468.9
861.195
801.887
470.719
487.525
809.789
469.42
476.415
833.109
471.431
842.148
487.196
864.107
486.726
863.197
68.7222
68.8346
62.5224
53.402
43.5693
28.7377
1.92976
2.68942
7.45537
12.4048
15.808
18.5212
14.7989
13.9637
54.9889
438.094
438.195
412.157
412.395
465.695
465.661
478.187
478.182
735.437
420.459
746.502
426.091
738.653
421.94
749.041
427.29
738.862
435.766
761.814
434.671
741.352
436.719
764.275
435.807
751.538
426.575
755.534
428.396
76.7885
52.1119
206.596
206.727
248.133
248.232
400.636
400.669
423.768
423.643
771.309
465.831
794.104
473.506
772.901
466.272
795.247
473.929
807.792
483.215
800.856
479.646
809.376
483.802
802.854
480.269
906.032
514.817
897.072
509.662
908.59
515.955
898.551
510.466
865.448
493.173
881.242
501.501
866.286
493.505
882.6
502.11
80.3532
72.8049
63.1864
51.789
41.373
27.7038
1.27078
3.49133
14.1648
24.2049
32.8483
26.4857
24.8242
18.1567
332.303
332.432
299.789
299.893
488.583
488.372
462.701
462.91
458.651
736.494
452.591
749.934
458.63
736.139
452.527
749.9
466.449
760.823
467.514
761.08
466.677
763.039
468.165
761.708
760.748
430.28
774.711
438.403
763.753
431.841
776.99
439.646
783.169
449.364
786.731
446.173
785.599
450.396
788.956
447.362
96.3565
91.0499
145.518
337.834
337.992
372.964
373.071
479.59
479.607
535.936
535.976
874.476
500.479
900.496
510.032
876.603
501.436
902.409
511.008
908.577
515.538
908.026
514.44
910.849
516.667
910.077
515.498
926.721
522.664
929.837
523.984
84.805
71.6302
60.5266
47.033
38.3005
29.2503
1.54079
7.56832
22.3258
37.188
48.3596
52.1611
35.5245
61.8975
455.848
455.67
399.432
399.313
771.929
474.884
475.657
752.552
773.54
475.321
475.446
752.365
509.536
509.452
476.306
806.036
464.7
832.602
476.252
806.037
464.676
832.214
483.874
850.533
487.023
845.791
484.273
853.018
488.12
846.41
801.274
456.708
803.52
457.552
102.035
122.213
138.982
381.482
381.55
428.044
428.328
434.748
434.861
464.095
463.856
488.863
815.664
480.798
828.304
488.912
816.01
480.789
828.136
505.278
863.691
512.057
845.96
505.57
864.341
512.599
846.351
928.019
522.954
941.938
529.211
929.993
523.98
943.456
530.204
941.652
529.012
943.146
530.533
944.356
530.377
945.341
531.741
81.0615
67.4713
53.9682
41.1487
36.2543
3.25728
16.5107
32.246
43.9816
55.2193
64.6408
115.077
301.27
301.195
253.569
253.594
764.077
464.863
728.742
457.256
765.491
465.357
730.791
457.739
467.027
466.97
862.576
494.049
490.676
829.726
864.107
494.694
490.542
829.807
790.216
485.439
799.3
490.204
792.173
485.989
799.431
490.223
490.207
875.57
496.703
863.169
490.878
878.077
497.783
864.884
95.1088
128.105
170.508
285.535
517.116
516.578
517.379
516.973
554.508
554.138
818.643
476.673
469.8
796.155
818.296
476.423
469.541
795.875
513.012
905.035
509.46
910.009
513.475
905.624
509.73
910.789
518
918.53
520.285
917.217
518.69
920.18
521.131
918.402
941.282
527.896
943.92
529.021
74.1767
61.3604
44.3781
39.1368
8.62493
25.8566
37.9641
47.4618
61.8426
86.7929
250.602
250.621
235.742
235.774
391.771
391.632
293.305
293.185
855.876
489.366
808.463
476.386
857.56
490.193
809.917
476.978
463.465
700.591
440.023
760.715
463.605
702.392
440.391
761.057
891.838
504.764
502.191
878.472
892.061
505.044
501.871
877.752
871.592
498.941
871.685
500.655
873.784
499.862
872.389
500.971
84.2479
116.429
168.119
289.558
614.123
613.993
618.676
618.145
649.877
648.646
936.999
531.758
921.921
530.149
933.676
530.19
917.483
527.642
917.789
529.04
925.263
530.048
881.274
501.438
917.066
528.403
925.111
529.866
880.892
501.231
903.185
507.703
903.031
507.695
522.468
942.627
526.404
935.162
522.997
943.892
526.871
936.284
67.1824
48.4806
40.3985
16.6831
31.6517
39.2317
46.2561
65.2956
105.722
245.86
245.867
221.688
221.748
626.127
757.661
385.473
584.653
360.507
444.106
759.142
626.673
444.632
385.593
585.443
360.618
334.157
239.878
408.056
266.725
336.282
239.833
409.086
266.887
880.635
499.27
860.621
490.845
882.087
500.049
861.575
491.338
473.688
826.132
473.95
826.571
505.346
889.379
505.194
889.092
884.484
502.419
886.802
503.378
72.9993
99.4627
146.593
240.302
644.394
644.474
645.984
645.898
681.093
680.258
711.24
710.702
583.461
1011.19
583.081
1032.49
561.305
990.273
582.677
1010.52
581.69
1031.24
560.594
989.42
997.034
558.399
996.151
557.899
982.353
551.834
980.639
945.605
549.881
530.082
982.622
551.739
980.541
946.355
549.799
530.235
949.741
530.901
950.404
531.134
53.186
40.9478
23.214
33.1098
36.052
42.2444
69.8085
204.254
204.256
191.52
191.587
236.582
236.887
201.468
201.492
756.268
644.429
378.1
434.905
588.155
346.262
757.776
645.313
435.431
378.386
589.449
346.68
304.299
211.804
406.123
253.497
305.685
212.059
408.039
254.077
864.485
490.945
865.326
491.392
55.2571
82.364
121.183
190.989
385.246
660.072
659.981
679.61
679.033
1057.21
614.495
1086.45
618.467
1056.27
613.101
1085.72
617.905
1081.84
1058.4
612.174
1080.87
614.996
601.414
1082.26
1056.45
612.242
1082.32
615.28
600.2
594.221
577.461
1057.45
1027.92
593.077
576.994
1055.13
1027.34
1013.36
569.903
1013.37
569.725
1004.78
564.826
972.88
545.278
1005.41
564.743
973.458
545.418
41.0435
26.3596
31.3796
33.3339
42.1255
106.109
185.278
185.221
190.089
190.111
166.597
280.326
172.561
271.89
167.741
282.899
174.339
274.324
180.689
180.76
281.38
181.296
347.243
228.293
284.289
182.985
349.339
229.002
40.6899
56.1877
96.6295
149.623
262.068
662.184
662.36
677.094
677.055
670.337
670.337
741.562
740.766
1085.03
619.028
1092.8
615.328
1085.45
618.901
1094.37
616.044
1080.16
1075.16
606.155
604.284
1084.88
609.861
1079.32
1077.88
605.551
605.471
1088.07
611.524
582.6
1035.65
581.772
1034.23
24.3346
28.4109
30.3581
46.7894
251.601
251.592
203.124
203.151
176.458
176.309
218.425
218.411
148.489
241.349
150.246
236.726
149.255
243.177
151.41
238.291
230.908
148.503
223.464
136.279
230.775
148.289
223.465
136.364
266.031
174.356
268.085
175.545
39.5817
59.5991
113.926
189.386
384.495
664.18
664.183
692.691
692.413
727.67
727.467
609.822
1081.81
616.345
1043.95
609.124
1078.8
614.991
1042.85
1081.74
609.921
1065.41
599.8
1080.8
609.269
1065.25
599.807
18.87
22.8896
26.3792
70.6584
252.806
252.719
221.047
220.958
211.156
138.959
161.551
229.959
136.712
245.135
210.661
138.827
161.372
229.163
136.481
244.777
213.535
213.524
135.078
226.539
146.282
217.697
135.428
227.151
146.896
217.947
202.849
126.901
202.507
126.867
37.629
67.0024
132.442
249.533
650.027
650.179
668.568
668.547
660.625
660.945
725.22
725.091
1024.99
601.412
1055.03
602.989
1063.98
609.381
1027.89
601.93
1058.67
604.694
1063.85
609.525
1072.63
605.472
1071.84
605.149
1047.57
593.059
1046.64
592.474
11.1603
19.4646
23.9181
297.878
297.853
219.369
219.408
270.585
270.549
301.374
301.384
217.315
126.764
161.613
236.06
142.115
248.309
216.46
126.556
161.433
235.244
141.838
247.82
338.922
214.876
313.714
178.52
339.74
215.069
314.037
178.636
35.0749
76.4228
156.382
357.358
655.743
655.692
690.03
689.634
725.898
725.298
1042.27
598.576
596.061
1044.67
598.66
1009.78
595.818
1044.2
598.383
1009.94
1045.92
600.126
1038.77
1049.62
590.312
595.571
1043.34
1052.96
592.345
596.966
1040.81
590.518
1041.69
590.862
10.0488
11.164
58.0865
311.898
311.786
237.32
237.334
345.803
215.61
287.975
456.57
262.861
453.177
346.571
215.992
288.139
457.315
263.288
453.564
326.874
326.863
160.88
288.124
160.785
287.779
317.86
181.891
318.617
182.297
32.5358
86.5626
189.564
561.561
561.574
616.956
616.862
650.581
650.544
726.186
725.9
1028.5
604.818
1058.91
605.296
1046.84
599.901
1027.58
1045.2
598.998
603.601
1057.51
604.566
1037.54
589.264
1042.25
589.876
1040.97
1040.1
589.236
590.167
4.68173
37.4941
110.965
294.168
294.062
255.208
255.163
407.005
230.656
293.249
471.833
270.999
467.822
408.831
231.447
293.553
472.647
271.461
468.516
460.261
291.623
510.131
296.138
460.807
291.503
510.271
296.103
367.006
208.633
369.116
209.563
30.6722
98.5131
233.242
549.78
549.558
605.96
605.225
695.612
694.943
1054.27
604.559
587.816
1045.66
599.671
992.525
1056.06
605.335
588.382
1047.92
601.204
993.633
1058.5
1046.4
597.481
591.691
1045.21
590.954
1058.35
597.648
21.0703
60.7383
205.323
227.184
226.999
205.227
253.198
253.289
262.371
460.611
290.062
262.285
461.03
290.11
440.465
251.701
290.836
482.849
279.65
505.51
441.724
252.262
290.842
482.907
279.681
505.592
519.232
300.963
520.096
301.346
29.4182
111.21
247.271
513.128
512.712
596.797
595.226
905.219
543.234
991.578
569.514
1021.95
587.543
900.918
1022.57
587.989
539.951
989.743
568.363
1053.66
596.375
1037.04
587.828
1057.1
598.137
1042.04
590.273
1042.36
588.549
1043.82
589.435
31.6172
64.1074
245.782
216.027
245.477
215.958
223.477
223.543
364.873
368.55
242.296
395.511
262.141
253.102
407.985
290.453
370.355
362.054
242.5
397.351
262.636
251.248
409.117
288.384
303.473
530.254
303.814
531.141
470.032
280.237
472.569
280.214
28.2862
119.189
334.82
501.044
500.406
334.738
411.222
411.068
593.324
905.578
530.286
592.469
902.559
528.106
1010.51
964.786
573.805
549.044
1012.73
574.646
963.416
548.131
1029.72
582.781
1004.43
571.435
1035.57
585.438
1010.3
573.796
13.9988
75.3793
262.639
280.403
431.006
203.49
262.276
278.223
426.458
203.379
191.439
191.803
311.553
432.816
420.387
253.778
205.455
259.475
308.8
422.814
429.403
254.055
203.735
257.8
289.29
499.191
289.364
501.072
26.9262
136.86
336.262
477.252
476.806
335.738
393.434
392.471
806.941
856.092
497.538
884.276
515.974
468.457
716.17
444.561
806.887
854.757
496.767
881.289
514.01
468.75
714.827
443.017
974.733
931.546
554.241
530.916
975.302
554.372
929.248
529.855
13.8313
153.33
170.069
170.141
153.313
154.88
154.354
362.356
277.001
448.124
269.251
440.478
274.062
390.901
257.833
200.605
342.175
245.074
366.055
274.105
442.725
266.464
435.005
272.116
392.96
256.978
200.55
347.047
243.532
361.279
411.592
224.04
246.099
360.111
408.281
222.877
244.685
25.7632
135.872
308.746
473.528
427.028
714.948
473.147
428.212
717.422
307.321
381.177
377.634
825.242
778.789
887.345
474.926
511.063
445.521
827.154
781.432
884.975
510.378
476.021
446.836
936.873
536.381
936.052
536.015
22.1448
162.525
128.382
162.468
128.022
108.439
107.79
421.059
426.983
249.452
249.363
379.04
233.046
264.926
321.175
209.925
333.532
228.896
199.009
276.24
239.325
418.553
424.533
248.053
247.392
379.36
231.849
322.786
271.819
209.274
339.11
227.438
197.646
278.274
237.334
23.2089
98.9159
298.847
297.187
104.188
211.547
211.517
546.545
412.427
678.192
397.629
692.919
366.993
625.563
369.795
538.632
412.93
678.87
397.619
694.455
360.939
624.891
369.544
384.396
555.524
348.605
380.59
545.952
341.894
798.107
740.379
456.38
423.519
802.684
742.375
458.444
424.295
13.1437
150.137
212.152
269.343
106.296
149.908
213.736
268.577
105.827
88.4655
87.4205
402.314
238.222
356.004
219.196
299.064
274.425
338.257
211.462
185.605
177.282
401.082
236.436
355.846
218.13
300.234
338.552
275.339
210.771
185.096
177.441
20.8306
150.566
263.777
261.535
151.024
193.044
192.919
712.248
646.981
407.028
372.866
594.601
347.695
711.817
648.679
406.858
373.475
594.039
346.965
471.287
533.777
318.566
550.946
337.925
290.933
421.249
319.481
458.016
524.87
313.753
540.894
331.43
283.547
410.476
312.54
9.26725
65.2465
64.5449
139.371
203.619
231.027
200.308
248.406
91.0386
139.3
203.854
232.901
197.996
248.766
90.4565
317.037
258.821
256.553
202.709
164.82
163.91
317.228
259.308
257.23
202.158
164.511
164.112
19.2107
121.069
270.227
277.546
384.858
267.561
276.6
379.559
122.291
174.762
175.614
615.316
360.976
573.732
337.673
617.147
361.433
571.246
336.251
500.509
409.206
556.186
290.256
328.56
243.4
490.438
396.073
551.579
326.764
285.524
237.601
8.008
51.5216
46.1547
50.598
45.7964
129.358
187.621
214.694
194.684
209.67
243.778
157.462
77.3552
129.201
189.878
216.043
193.259
209.043
245.746
157.629
76.2324
244.201
155.446
244.616
155.113
19.0856
104.845
105.069
256.686
279.328
398.467
281.783
388.308
255.59
275.752
387.42
274.811
380.73
152.955
152.614
443.064
536.706
401.767
263.141
316.628
237.895
433.167
531.361
389.281
314.666
259.54
232.802
7.84711
43.4196
45.9211
43.2368
45.8193
67.2301
65.897
120.402
180.019
190.515
178.293
196.978
144.438
227.866
150.666
215.411
233.594
150.916
120.284
180.977
190.102
176.94
196.553
143.876
230.23
150.871
214.585
234.157
150.438
21.1458
89.7029
85.5294
90.7118
87.031
240.78
270.59
387.913
278.014
373.616
390.998
231.47
238.602
272.182
381.996
274.399
374.982
382.12
227.723
132.899
133.372
417.111
252.807
407.892
250.071
8.11049
52.6574
58.1648
52.6695
57.9744
65.5518
66.9068
65.0044
66.5217
112.344
111.455
173.109
182.718
175.256
182.733
136.326
178.359
130.317
194.024
140.177
218.863
144.748
206.385
174.25
182.993
174.225
183.353
136.061
178.214
130.198
193.614
140.686
219.996
144.619
207.953
23.5352
98.9318
122.585
100.015
123.022
119.794
122.461
225.512
263.16
375.891
263.044
368.936
221.6
377.832
225.58
365.92
401.584
244.325
223.345
262.355
366.196
256.867
367.684
220.41
371.806
222.921
364.318
394.919
242.483
3.61959
65.0427
67.2002
64.8284
66.7303
78.195
88.1321
77.9239
87.798
101.827
98.7854
100.813
98.0909
171.264
171.807
168.424
176.327
172.622
172.218
169.73
176.339
126.095
170.899
127.674
167.063
126.251
170.968
127.715
166.843
23.6191
136.399
136.619
136.816
137.706
131.348
155.593
133.244
156.077
210.54
209.829
247.248
364.658
256.461
338.152
224.184
375.798
231.574
363.168
226.518
386.619
235.832
365.518
247.314
355.246
251.085
336.087
223.201
372.44
230.025
362.218
225.65
382.343
234.538
363.779
28.3488
2.00392
90.2555
73.4267
89.8801
72.9183
101.393
111.239
100.754
110.625
169.545
165.133
167.317
167.179
171.236
172.566
174.346
168.237
171.362
165.444
168.585
167.756
172.903
171.951
173.742
169.231
124.636
160.512
124.648
161.935
124.598
160.211
124.823
161.224
25.2558
129.517
90.3365
130.906
91.6825
170.451
177.142
170.637
177.983
211.273
228.792
211.003
228.049
247.07
337.842
249.278
330.961
246.471
332.734
246.374
328.764
222.062
380.465
233.069
357.479
220.629
375.389
231.236
352.33
10.4166
95.2247
79.7969
94.9753
80.1876
2.82933
122.689
117.824
122.067
116.853
176.806
179.002
176.454
179.779
182.974
197.219
187.802
189.237
178.39
178.221
175.992
180.606
185.341
195.549
186.291
190.805
120.781
157.998
121.665
157.241
120.846
167.387
124.699
159.06
121.678
158.945
122.38
158.868
121.834
166.766
124.18
161.024
27.8214
114.574
168.122
175.887
169.28
177.612
239.492
248.05
238.252
247.503
240.36
335.792
246.453
322.422
242.97
359.743
253.688
334.37
241.179
332.003
244.258
323.221
244.429
354.711
250.629
335.484
225.235
358.34
231.972
351.125
224.265
352.88
231.249
345.52
11.1465
56.5568
67.9234
57.2371
68.4227
150.556
131.589
150.55
132.488
1.74702
195.465
214.583
194.499
219.44
195.479
247.463
223.62
222.292
195.756
211.85
192.218
218.927
196.446
245.847
221.806
222.828
127.368
178.8
128.666
178.448
128.764
207.508
140.566
186.275
128.877
178.332
128.57
180.194
131.614
204.137
138.418
190.004
32.4634
110.181
284.185
286.498
281.776
284.445
253.01
238.573
251.264
235.839
260.48
370.466
258.823
370.352
266.731
390.505
275.027
376.24
260.269
363.578
254.12
370.201
268.778
385.907
272.365
378.415
225.353
365.684
237.26
333.866
215.976
366.971
229.869
336.607
224.858
362.518
236.748
332.977
215.432
364.246
229.054
335.423
39.5566
6.40075
100.766
77.5271
101.653
77.8613
225.824
263.819
175.886
231.197
193.05
203.323
256.411
227.803
233.554
200.66
224.493
257.076
172.15
230.416
188.719
199.495
254.433
222.775
233.439
196.223
4.41812
158.619
237.793
155.102
244.465
166.439
251.888
155.987
230.525
150.146
240.416
166.046
251.453
120.253
188.117
123.521
177.103
122.841
186.208
122.044
182.319
39.1696
115.732
314.304
312.599
313.931
313.091
404.699
398.757
400.11
395.088
275.025
398.195
278.853
388.376
270.718
416.853
306.987
385.741
273.659
390.66
273.745
385.516
270.546
404.074
298.582
382.174
231.389
363.092
223.772
379.516
229.532
394.048
231.805
385.64
230.893
360.73
222.974
378.581
229.27
389.336
230.194
385.115
30.1243
130.802
126.946
130.878
127.113
16.8782
162.361
152.239
161.904
151.571
244.011
262.69
161.458
173.134
272.883
179.914
281.945
210.872
279.47
184.313
237.909
260.947
156.447
169.94
270.66
176.412
273.022
205.638
277.194
180.715
4.8667
136.653
210.931
133.294
216.924
148.543
238.751
133.539
203.175
128.482
212.123
147.29
237.318
45.7857
126.57
294.585
409.27
457.532
408.313
457.608
595.615
491.415
350.89
631.492
376.385
299.91
615.229
398.262
638.945
387.612
477.057
586.956
345.51
622.39
369.714
292.71
610.037
393.217
631.627
381.441
246.253
401.975
237.145
416.763
254
429.562
244.939
399.102
235.837
413.704
250.483
420.329
250.444
410.064
248.667
408.914
250.473
409.435
248.547
408.587
49.6547
120.714
146.254
121.008
146.065
179.461
171.442
179.737
171.868
15.4489
201.058
253.224
186.339
254.287
208.674
274.039
232.032
262.216
199.401
248.882
182.28
252.618
208.685
274.139
230.049
261.554
245.563
158.019
278.673
185.512
287.773
183.233
240.533
153.665
269.965
179.544
284.899
180.045
2.89074
50.248
126.465
291.729
619.159
652.5
618.319
652.067
532.964
559.784
532.931
559.247
539.986
633.268
370.604
316.199
677.266
391.364
718.563
420.42
693.638
398.915
535.365
629.154
314.117
369.118
673.722
389.666
719.313
420.724
693.242
398.284
275.488
427.487
257.904
455.764
288.432
479.685
275.157
427.299
257.651
455.184
287.759
477.528
123.088
40.0101
161.339
173.714
161.637
173.513
280.614
285.991
198.967
277.206
212.4
211.114
288.756
238.902
282.375
219.644
284.291
283.146
198.121
281.573
211.558
208.362
292.717
236.609
286.951
219.133
8.44443
192.932
286.697
188
299.27
196.44
304.643
190.914
282.575
185.181
295.939
195.036
302.753
1.73449
52.6411
119.147
239.304
688.085
699.995
687.859
700.015
733.836
745.064
732.577
743.3
481.004
792.187
461.086
817.952
505.399
877.108
532.813
858.64
482.803
796.319
462.713
822.137
507.264
876.02
531.303
862.811
582.818
349.413
763.984
436.345
743.746
424.461
580.503
348.923
766.87
437.464
744.728
424.658
87.4393
230.51
296.482
230.501
296.194
24.3224
202.752
199.519
203.111
199.598
297.059
315.54
192.275
204.039
317.379
205.403
301.467
220.928
318.501