/*--------------------------------*- C++ -*----------------------------------*\
| =========                 |                                                 |
| \\      /  F ield         | OpenFOAM: The Open Source CFD Toolbox           |
|  \\    /   O peration     | Version:  5.x                                   |
|   \\  /    A nd           | Web:      www.OpenFOAM.org                      |
|    \\/     M anipulation  |                                                 |
\*---------------------------------------------------------------------------*/
FoamFile
{
    version     2.0;
    format      ascii;
    class       volScalarField;
    location    "2.6";
    object      p;
}
// * * * * * * * * * * * * * * * * * * * * * * * * * * * * * * * * * * * * * //

dimensions      [1 -1 -2 0 0 0 0];

internalField   nonuniform List<scalar> 
12160
(
5256.21
5328.05
4601.79
5355
4673.54
3946.99
5410.99
4700.55
4018.5
3291.76
5456.37
4756.58
4045.6
3362.9
2636.25
5505.52
4802.09
4101.64
3390.17
2706.76
1980.24
5554.19
4851.41
4147.33
3446.25
2734.26
2049.99
1324.31
5601.25
4900.29
4197.05
3492.26
2790.28
2077.81
1392.57
667.451
5645.35
4947.62
4246.41
3542.53
2836.73
2133.8
1420.84
736.411
176.03
5685.32
4992
4294.28
3592.59
2887.74
2180.8
1476.5
764.867
213.791
3.68282
5720.13
5032.25
4339.25
3641.29
2938.75
2232.76
1524.19
819.631
230.271
7.4605
-6.48055
5748.73
5067.37
4380.08
3687.11
2988.59
2284.98
1577.12
868.324
264.277
9.56835
-6.61568
-7.45814
5769.94
5096.34
4415.84
3728.81
3035.56
2336.29
1630.79
922.577
298.068
16.8628
-6.65248
-7.50269
-8.14323
5782.37
5117.96
4445.54
3765.49
3078.38
2384.74
1683.86
978.097
338.135
25.8632
-6.70135
-7.49046
-8.1864
-8.80369
5784.58
5130.79
4467.8
3796.36
3116.25
2428.95
1734.02
1033.36
381.524
38.4876
-6.6467
-7.47463
-8.15833
-8.80857
-9.47524
5775.89
5133.28
4481.6
3820.63
3148.4
2468.31
1779.84
1085.48
426.84
53.9532
-6.32127
-7.48047
-8.11855
-8.80673
-9.50226
5756.64
5124.64
4484.72
3835.06
3173.23
2502.54
1820.87
1132.95
471.861
71.973
-5.44806
-7.52683
-8.12809
-8.80721
-9.49065
5727.83
5105.18
4476.23
3839.03
3190.73
2530.99
1857.21
1175.39
514.412
92.1524
-4.12359
-7.53236
-8.16862
-8.81143
-9.47289
5691.6
5075.9
4456.38
3830.76
3196.2
2549.53
1887.46
1213.97
553.99
112.889
-2.28469
-7.52471
-8.19216
-8.83297
-9.47346
5651.08
5038.98
4426.16
3810.3
3188.4
2556.76
1910.52
1247.98
591.51
133.857
-0.0314415
-7.52063
-8.20025
-8.83893
-9.47923
5609.28
4997.53
4387.83
3778.66
3167.28
2549.61
1920.42
1275.05
626.016
155.931
2.6716
-7.50919
-8.1959
-8.83893
-9.4849
5568.56
4954.88
4344.43
3738.27
3133.7
2527.53
1914.36
1288.16
656.312
178.893
6.05974
-7.48913
-8.18701
-8.83755
-9.48626
5531.21
4913.39
4300.07
3691.66
3090.71
2491.33
1891.35
1283.83
672.375
198.977
10.4141
-7.42645
-8.19581
-8.83288
-9.48727
5498.9
4875.4
4257.03
3644.76
3039.09
2444.12
1851.99
1259.74
670.774
211.757
15.0909
-7.30682
-8.22312
-8.82959
-9.48799
5472.55
4842.62
4217.73
3599.33
2988.98
2387.95
1799.5
1216.32
648.054
213.056
18.4904
-7.10234
-8.2434
-8.8248
-9.49298
5452.58
4816.01
4184.01
3558.03
2940.24
2332.69
1737.35
1158.04
605.297
199.432
19.3032
-6.89713
-8.27139
-8.8566
-9.50792
5438.94
4795.98
4156.88
3522.86
2896.13
2279.51
1675.71
1088.71
549.332
172.576
16.5734
-6.80562
-8.29355
-8.8863
-9.50357
5431.16
4782.45
4136.73
3494.92
2858.96
2231.75
1616.88
1020.56
482.772
139.029
10.8824
-6.86546
-8.30715
-8.90553
-9.50525
5428.45
4774.93
4123.45
3474.6
2829.93
2191.96
1564.6
956.131
420.472
105.103
4.41378
-7.06075
-8.30599
-8.91569
-9.51004
5429.86
4772.57
4116.47
3461.72
2809.41
2161.52
1521.59
899.793
363.653
75.2336
-0.28316
-7.25423
-8.28801
-8.9141
-9.51317
5434.4
4774.38
4114.84
3455.59
2797.16
2140.76
1489.5
854.26
318.294
51.9549
-2.91805
-7.33038
-8.25342
-8.89864
-9.51319
5441.11
4779.3
4117.45
3455.11
2792.28
2129.35
1468.49
821.06
284.953
36.3347
-4.33286
-7.34984
-8.20255
-8.87317
-9.51068
5449.15
4786.37
4123.2
3458.97
2793.41
2126.25
1458.21
800.835
262.562
26.6853
-5.09539
-7.34566
-8.15478
-8.84856
-9.50537
5457.71
4794.73
4131.06
3465.91
2799.02
2129.64
1457.33
792.404
250.186
21.2109
-5.48892
-7.34058
-8.11689
-8.82567
-9.49528
5466.16
4803.64
4140.14
3474.82
2807.67
2137.58
1463.67
794.091
246.215
18.3828
-5.68262
-7.33531
-8.09258
-8.80501
-9.48518
5473.99
4812.43
4149.68
3484.88
2818.18
2148.28
1474.69
803.246
249.336
17.3884
-5.7978
-7.33777
-8.08145
-8.78808
-9.47837
5480.6
4820.52
4159.04
3495.42
2829.67
2160.47
1488.14
816.934
257.409
17.8287
-5.86674
-7.35036
-8.07846
-8.77933
-9.47662
5485.51
4827.35
4167.66
3505.78
2841.47
2173.55
1502.66
832.51
268.478
19.284
-5.90929
-7.37304
-8.08367
-8.77738
-9.47556
5488.47
4832.46
4174.96
3515.27
2852.98
2187.02
1517.65
848.537
280.12
21.4685
-5.93532
-7.40449
-8.09594
-8.78074
-9.47456
5489.23
4835.57
4180.47
3523.31
2863.6
2200.29
1532.91
864.935
291.713
23.9696
-5.94547
-7.43991
-8.1136
-8.78629
-9.47439
4836.44
5486.81
4183.89
3529.42
2872.64
2212.44
1547.96
881.91
304.397
26.9557
-5.9154
-7.47081
-8.13289
-8.79264
-9.47649
4184.98
4834.16
5470.88
3533.29
2879.55
2222.79
1562.06
899.639
319.718
31.5232
-5.81321
-7.49328
-8.14692
-8.79997
-9.48022
3534.71
4182.95
4818.33
5445.36
2884.04
2230.74
1574.07
916.334
336.45
38.5565
-5.54067
-7.50936
-8.15585
-8.81019
-9.4825
2885.86
3533.06
4167.24
4792.88
5412.12
2235.99
1583.29
930.461
351.988
46.783
-5.03078
-7.54216
-8.15907
-8.81848
-9.4823
2238.31
2884.62
3517.57
4141.9
4759.39
5372.87
1589.48
941.132
364.513
53.9024
-4.34529
-7.55664
-8.16555
-8.82817
-9.48078
1592.41
2237.56
2869.35
3492.33
4108.29
4720.37
5331.35
948.171
373.541
59.2272
-3.69147
-7.55378
-8.18734
-8.84256
-9.47948
951.553
1592.13
2222.48
2844.27
3458.54
4069.65
4677.89
5285.01
379.219
62.7733
-3.21525
-7.55088
-8.21325
-8.85346
-9.4762
381.815
951.486
1577.19
2197.49
2810.82
3419.78
4025.79
4631.12
5237.08
64.8884
-2.94441
-7.53887
-8.22727
-8.85734
-9.47739
65.8941
382.036
937.076
1552.5
2163.97
2771.63
3374.75
3977.54
4577.28
5203.37
-2.81848
-7.52059
-8.22646
-8.86143
-9.48477
-2.75588
66.1466
372.863
913.61
1519.33
2124.43
2726.32
3324.39
3915.94
4538.1
5120.12
-7.49952
-8.21556
-8.85875
-9.48844
-7.47298
-2.66413
64.1937
358.941
882.516
1479.05
2078.62
2673.9
3256.07
3867.45
4454.46
5282.13
-8.19894
-8.8514
-9.48988
-8.17753
-7.41169
-2.35748
62.3259
340.608
843.563
1434.06
2026.59
2594.67
3180.12
3780.33
4561.62
4580.66
5458.3
-8.84033
-9.48823
-8.82585
-8.13364
-7.28017
-1.28925
59.043
314.308
801.693
1383.67
1945.9
2482.45
3103.17
3825.46
4086.96
4220.93
4925.64
5546.92
-9.4844
-9.47904
-8.79771
-8.07115
-6.9711
-0.644614
50.3695
285.328
764.182
1315.31
1820.33
2391.89
3100.79
3518.1
3863.08
3877.26
4472.89
5142.35
5635.51
-9.46874
-8.76363
-8.09348
-6.6149
-1.60385
40.6172
263.232
723.767
1204.12
1721.33
2343.37
2949.94
3427.37
3601.13
3542.77
4035.83
4629.22
5273.76
5757.54
-9.46148
-8.86568
-8.08351
-6.67932
-3.10679
35.2313
261.498
609.976
1109.09
1660.71
2377.13
2966.75
3248.02
3318.92
3262.28
3620.21
4081.59
4705.06
5416.49
6095.08
-9.53289
-9.06593
-8.0139
-6.98167
-4.01218
39.4623
181.876
539.034
1120.73
1830.58
2490.88
2866.99
3007.34
3100.6
3076.13
3273.7
3548.89
4044.5
4791.46
5723.15
6725.48
-9.7347
-8.9355
-7.9795
-7.17813
-3.96054
23.7733
122.819
603.183
1320.64
2011.36
2470.05
2685.19
2823.7
2936.23
2277.42
3061.3
2281.99
2279.54
2282.86
3154.67
3404.09
4010.4
5011.92
6308.43
7671.06
-9.60896
-8.79012
-7.96943
-7.29386
-4.26985
4.19844
200.04
825.537
1526.19
2055.03
2361.45
2519.16
2700.08
2844.91
2271.83
2257.89
2918.93
2276.56
2221.65
2226.11
2260.14
2206.9
2208.34
2931.15
3243.5
4099.69
5520.95
7230.28
8940.87
-9.5428
-8.71024
-7.99895
-7.32782
-5.99328
-0.619219
321.146
1021
1613
2004.19
2206.42
2391.39
2611.38
2192.1
2190.75
2119.65
2120.85
2258.43
2286.42
2620.24
2839.6
2260.95
2221.98
2225.2
2278.15
2257.49
2250.33
2650.21
3195.6
4508.36
6421.97
8507.55
10475.2
-9.46665
-8.69498
-8.0429
-7.15664
-6.40636
19.2687
456.913
1133.96
1609.48
1879.2
2069.02
2293.46
2010.84
2011.87
1891.36
1892.45
2174.21
2171.52
2127.03
2122.67
2295.39
2025.89
1919.42
2044.61
1904.69
2243.29
2591.17
2227.59
2229.81
2258.9
2257.48
2286.68
2271.85
2265.39
2023.71
1922.81
2042.78
1903.67
2020.17
1830.5
2050.58
1888.72
2017.12
1832.04
2047.63
1885.75
2450.15
3458.2
5347.78
7710.74
10060.1
12090.4
-9.44767
-8.66701
-7.90768
-7.036
-6.46324
69.0635
585.26
1165.23
1509.33
1728.62
1959.78
1762.16
1762.77
1633.16
1633.72
2017.5
2011.25
1898.63
1890.6
1873.14
1883.44
1947.24
1821.4
1929.35
1987.62
1882.86
1877.63
1948.2
1822.78
1929.25
1987.47
1746.84
1862.15
1785.35
1901.65
1747.7
1861.81
1786.1
1901.43
2067.76
1940.64
2064.55
1948.95
2016.55
2001
2027.08
1983.68
1911.24
2224.93
2043.02
2044.44
2149.84
2151.06
2351.98
2347.21
2349.22
2346.83
2064.49
1942.15
2062.03
1945.51
2073.55
1879.43
2115.41
1943.13
2069.64
1874.78
2110.4
1937.38
2016.67
2005.48
2028.19
1986.49
2000.4
1956.73
2000.16
1957.55
2527.42
4195.51
6632.19
9300.84
11697.1
13609.1
-9.46398
-8.63492
-7.91129
-7.08175
-7.22967
123.157
605.651
1065.27
1357.95
1609.76
1492.47
1492.53
1360.1
1361.03
1767.8
1759.68
1633.93
1626.88
1696.47
1802.82
1637.73
1745.22
1696.37
1802.17
1641.01
1745.12
1534.82
1645.48
1590.25
1697.9
1540.6
1646
1593.87
1698.16
1943.81
1874.63
1942.26
1980.7
1868.14
1909.44
1946.2
1878.73
1981.68
1943.32
1870.87
1910.2
1795.76
1828.74
1846.28
1878.54
1798.94
1829.82
1847.89
1879.14
2062.31
2026.64
2051.24
2035.91
2041.53
2018.53
2046.5
2007.27
1859.99
1896.06
1805.74
1806.46
1919.51
1920.17
2226.39
2216.73
2300.83
2293.87
2023.41
2149
2035.63
2159.94
2027.33
2149.75
2039.66
2160.89
2018.34
1967.09
2117.56
2030.38
2151.52
2109.44
2023.34
1967.14
2118.64
2033.53
2152.21
2109.07
2063.14
2030.66
2052.11
2040.59
2075.08
2028.61
2075.76
2031.98
2040.66
2019.57
2046.91
2004.36
1997.83
1953.2
1998.22
1954.56
3092.16
5433.21
8277.95
11024.7
13258.4
14856.8
-9.43237
-8.59327
-7.92887
-6.83159
-8.23659
136.452
504.539
924.63
1211.49
1218.13
1218.87
1076.68
1076.65
1486.71
1482.48
1335.59
1335.01
1482.47
1590.71
1424.82
1535.97
1484.57
1590.13
1428.49
1535.37
1284.96
1454.1
1369.4
1481.48
1285.14
1452.19
1370.11
1480.08
1743.27
1776.01
1695.85
1724.31
1747.61
1777.35
1700.49
1725.89
1590.96
1616.85
1654.77
1677.7
1595.77
1618.55
1657.08
1679
2073.81
2042.88
2067.18
2048.7
2247.53
1819.64
1620.07
1620.95
1683.52
1683.38
2037.27
2026.99
2127.3
2116.65
1931.54
2059.77
1970.92
2095.66
1940.38
2060.97
1978.16
2096.82
2010.73
2128.76
1992.53
2119.17
2014.71
2129.63
2000.81
2120.55
2124.16
2171.75
2127.97
2171.82
2131.79
2174.23
2133.05
2173.69
2038.26
2088.34
2145.63
2098.45
2106.35
2151.05
2041.29
2093.85
2147.4
2099.58
2110.94
2152.74
2074.57
2044.54
2067.98
2050.7
2104.01
2064.71
2104.79
2067.58
4220
7101.88
10087
12657.5
14499.4
15850.1
-9.43191
-8.54022
-7.92253
-6.71711
-7.24055
100.669
387.919
775.427
1054.72
1181.8
1181.82
1010.22
1010.25
1471.68
1469.47
1339.82
1337.27
1532.39
1556.71
1481.53
1508.91
1535.7
1558.14
1484.41
1510.07
1325.66
1407.73
1418.59
1451.3
1325.73
1407.57
1420.01
1452.03
1574.54
1621.52
1580.56
1623.33
3259.14
2107.25
1687.96
1689.21
1588.34
1589.43
1903.83
1901.21
1947.02
1939.87
1773.53
2004.97
1859.75
1988.2
1782.76
2006.19
1864.6
1988.68
1901.18
2024.51
1876.46
2004.97
1905.55
2024.47
1881.89
2004.9
2114.99
2146.34
2134.15
2168.22
2122.83
2148.94
2137.34
2169.91
2120.23
2170.28
2123.81
2167.56
2125.83
2172.25
2128.52
2169.55
5887.12
9006.47
11721.8
13892.7
15456.9
16727
-9.42787
-8.40842
-7.91214
-6.94948
-3.66886
52.1692
288.398
625.776
849.67
850.424
686.371
687.653
1198.47
1193.98
1013.3
1014.41
1307.8
1290.46
1359.34
1224.62
1307.11
1288.79
1358.93
1223.09
1254.51
1095.84
1182.72
1170.43
1252.92
1095.49
1181.07
1167.09
1533.35
1566.43
1493.23
1520.33
1537.9
1568.11
1496.92
1521.73
1374.59
1402.09
1437.94
1466.33
1377.35
1402.89
1440.9
1467.65
4907.02
2989.01
2603.92
1950.1
1949.19
1895.28
1892.99
2240.58
2235.34
2239.36
2235.13
1933.4
2092.91
2026.01
2071.73
1936.37
2093.7
2027.37
2072.26
2077.65
2102.32
2057.14
2079.98
2082.11
2104.27
2060.59
2081.27
2156.72
2209.22
2166.27
2212.26
7893.85
10725.4
12924.5
14737.8
16293.1
17363
-9.41391
-8.26976
-7.62127
-7.22893
4.00723
60.1451
310.932
552.203
851.324
848.567
648.108
646.687
1030.66
1117.85
1080.37
946.002
1030.06
1116.1
1077.31
943.836
1037.86
1033.56
1307.64
1336.91
1368.22
1286.47
1307.72
1337.43
1368.19
1286.36
1251.76
1153.15
1174.44
1233.78
1251.9
1153.66
1174.46
1234.74
1375.03
1409
1379.45
1410.07
7006.8
4581.03
3522.49
2914.05
2913.41
2606.86
2603.64
2361.36
2358.84
2300.74
2289.78
2238.2
2119.87
2246.88
2126.75
2238.71
2128.6
2248.41
2128.52
2233.18
2109.61
2202.28
2121.43
2233.53
2109.8
2203.02
2121.7
2148.06
2203.62
2159.09
2194.77
2153.79
2205.46
2161.3
2195.92
2151.05
2182.98
2166.03
2193.23
2157.41
2185.42
2171.33
2195.16
9935.01
11895
13729.5
15500
16910.6
-9.39492
-8.33118
-7.81449
-5.9198
12.455
103.82
361.392
475.732
475.156
365.373
365.47
749.344
813.611
639.464
736.157
749.671
813.077
640.908
735.27
638.372
637.27
1081.05
1106.04
1046.8
978.336
1081.24
1106
1045.87
978.354
840.477
907.926
929.51
983.926
844.357
909.693
931.951
985.092
1256.7
1172.29
1192.96
1231.56
1257.21
1175.27
1193.78
1234.47
9171.48
6709.92
5053.52
4690.33
3245.84
3236.56
2980.32
2969.2
2839.65
2831.79
2141.47
2275
2418.03
2150.79
2144.64
2274.88
2414.85
2146.97
2397.34
2384.6
2410.48
2370.73
2398.64
2388.84
2412.13
2374.22
2349.95
2264.4
2296.2
2321.3
2351.49
2269.71
2297.96
2324.61
2246.57
2286.43
2254.86
2288.76
11414.9
12788.7
14535.7
16100.4
-9.40729
-8.85995
-8.81321
-1.77403
24.9461
112.752
259.495
259.629
227.347
227.702
426.601
426.278
342.598
340.914
779.992
800.411
654.147
704.464
779.88
800.04
654.397
704.438
601.102
461.379
526.237
563.53
601.125
460.021
525.053
563.988
1111.63
1130.39
1050.68
1031.66
1112.12
1130.74
1051.08
1032.7
888.62
905.323
975.221
986.632
890.84
905.471
976.692
987.852
11008.6
8775.12
7058.07
6178.93
4575.13
4576.36
4103.65
4100.2
3759.24
3757.43
2842.19
2970.16
2852.07
3160.06
2844.1
2971.47
2866.66
3163.34
2771.32
2894.76
2706.72
2807.95
2367.97
2574.16
2783.75
2897.73
2714.33
2810.41
2370.51
2574.27
2397.13
2454.28
2399.2
2455.38
2498.4
2532.6
2566.11
2463.89
2499.85
2540.37
2568.18
2469.06
12273.7
13592
15220
-9.72884
-10.0486
-9.18715
-1.7213
18.1925
68.8058
245.002
244.157
185.036
185.098
363.883
475.785
387.546
296.098
325.273
516.752
476.604
365.122
516.993
387.992
297.812
325.664
261.601
281.45
256.19
277.593
260.363
280.771
257.55
277.928
793.312
813.083
683.259
702.868
795.277
813.707
684.55
703.373
604.865
579.683
605.437
581.425
1057.42
1042.5
1058.51
1044.15
878.146
897.322
881.421
897.842
12024
10607.5
8987.51
7915.42
5794.71
5798.94
5103.74
5101.65
5166.06
5159.97
4720.53
4721.96
3672.3
3545.56
3922.31
3524.2
3327.05
3035.78
3674.81
3566.84
3929.49
3530.05
3328.83
3041.81
3076.21
3162.03
3081.63
3164.41
3041.76
3092.36
2939.07
2665.85
2972.49
2729.57
3051.88
3095.68
2943.55
2674.39
2974.46
2732.09
2576.95
2624.63
2583.35
2626.75
12918.7
14390.7
-10.4268
-10.6067
-8.59379
-4.28788
2.53913
69.7719
70.1118
20.9778
21.085
243.947
242.689
171.305
171.763
450.842
337.792
345.326
469.426
297.09
304.023
452.95
338.517
470.18
345.815
297.601
304.36
256.956
270.297
269.156
282.235
256.753
270.042
269.549
282.326
667.518
695.722
669.229
696.301
12694.6
11925.2
10678.2
9610.12
9024.97
6182.51
6176.3
5649.7
5633.56
4645.32
5172.11
4545.98
4805.73
4672.37
5177.5
4562.68
4811.87
4157.06
3789.43
4338.8
4353.1
4570.24
4088.68
4171.67
3800.53
4345
4379.01
4578.57
4092.48
3839.11
3515.01
3745.61
3451.13
3839.01
3515.93
3743.64
3452.95
3317.94
3390.5
3322.11
3392.26
3181.14
3247.42
2833.42
2876.33
3192.35
3250.8
2840.68
2878.96
13738.8
-10.4066
-9.8196
-8.00597
-5.95018
1.48862
75.8769
76.271
21.6372
21.734
224.328
243.675
262.078
201.737
223.959
243.589
261.56
203.229
170.377
171.154
269.583
280.024
279.558
289.558
270.229
280.109
280.284
289.951
13483.4
12867.9
12061.4
11170.1
10498.1
7810.11
7824.51
7110.32
7109.14
6558.2
6556.63
6118.39
6110.17
4873
5241.18
4858
4953.86
4889.9
5246.02
4867.91
4957.77
4042.52
4440.54
4155.36
4516.17
4674.93
4736.92
4053.72
4452.22
4521.22
4158.87
4684.98
4741.07
3674.44
3618.26
3675.07
3618.74
-9.97514
-9.12153
-7.99803
-6.28655
3.64288
3.67742
-1.56241
-1.5589
75.4098
75.6662
21.3303
21.4701
218.668
246.697
262.882
204.218
218.936
248.491
262.702
206.109
116.313
135.983
167.296
190.383
117.664
136.227
168.375
190.686
272.04
286.792
273.093
286.681
13655.5
13195.6
12489.3
11893.8
11454.1
8016.25
8016.82
7568.54
7554.36
7071.87
7055.44
6045.93
5324.47
5619.66
5448.92
6042.57
5323.09
5619.93
5443.67
5186.02
5301.38
5008.98
5076.28
5200.06
5305.64
5018.67
5079.84
-9.78049
-8.93935
-8.007
-6.68107
3.08149
3.10097
-2.40475
-2.40578
117.945
132.59
48.1824
72.5745
85.3775
41.9163
118.817
132.853
48.255
73.0026
85.6077
42.1778
19.317
19.409
229.088
240.769
257.97
210.243
229.425
242.215
258.143
211.675
154.142
176.817
154.85
177.036
13957.2
13535.6
13096
12679.6
9491.43
9506.38
8767.21
8765.68
8160.19
8174.18
7875.02
7859.86
6067.93
6746.81
5985.42
6328.43
5593.32
6035.31
6113.57
6755.33
6012.07
6337.73
5594.02
6035.77
5566.39
5704.32
5571.73
5706.05
5383.22
5482
5395.89
5484.84
-9.74902
-8.85077
-8.13701
-5.08039
-5.07836
-5.68948
-5.69421
1.04488
1.03557
-3.56524
-3.5736
106.74
123.988
39.3646
62.3085
66.963
38.6375
107.384
124.266
39.4876
62.6698
67.1194
38.9401
10.1692
11.0373
18.2448
19.2704
10.3241
11.0987
18.4429
19.3843
14328.1
14020.8
13738.2
13430.1
9644.53
9640.73
9129.52
9109.18
8654.29
8638.72
6233.62
6714.51
7532.58
6664.66
7058.99
6838.94
7529.11
6668.76
7061.69
6835.72
6260.54
6723.26
6203.29
5859.36
6389.04
6040.32
6223.07
5880.97
6396.64
6047.18
5709
5837.55
5722.67
5841.04
-9.64182
-8.86446
-8.16946
-5.0298
-5.01978
-5.47722
-5.47856
7.94056
7.89296
-2.01567
0.929905
0.810721
-1.5969
7.96388
7.9438
-2.02279
0.866773
0.763382
-1.62234
-3.99523
-3.99123
32.4978
32.0408
32.6702
32.3941
15.2237
16.9102
15.3969
17.0679
14789.9
14615.8
14395.7
10861.5
10868.1
10271.2
10266.2
9793.6
9791.7
9361.49
9353.3
7385.43
8132.42
7303.26
7694.64
6963.24
7414.48
7428.17
6965.14
7415.49
8141.89
7318.69
7699.48
6545.62
6754.99
6890.65
7077.61
6895.46
6566.37
7079.23
6761.69
-9.70549
-8.79153
-8.37595
-5.51618
-5.50332
-5.8946
-5.89715
6.78568
9.0585
-2.99496
-0.433879
-0.878471
-2.5386
6.76401
9.05734
-2.99143
-0.445224
-0.890313
-2.5358
-3.74311
-4.2517
-3.56722
-3.72703
-3.75281
-4.2454
-3.56312
-3.7235
12.1977
14.6452
12.2936
14.7275
15339
15239.4
15046.9
11014.7
11012.2
10577.7
10558.5
10024.6
10023.4
7577.07
8043.93
8826.46
7930.65
8373.9
8065.15
7603.02
8052.92
8827.87
7935.74
8377.1
8068.95
7566.32
7228.23
7715.44
7407.39
7242.55
7411.52
7572.79
7718.94
-9.36089
-9.08313
-6.18513
-6.02256
-6.01464
-6.18183
-6.5712
-6.57736
-5.82446
-4.22258
-4.56129
-5.83535
-4.22905
-4.56037
4.21538
6.08705
-3.18109
-1.89973
-2.43461
-2.98425
4.19388
6.07452
-3.17975
-1.92027
-2.44454
-2.98314
-3.9639
-4.08382
-3.96229
-4.09258
15961.6
15859.9
15572.6
11177.2
11179.6
10712.7
10707.2
8498.06
9299.71
8432.12
8915.66
8171.55
8655.59
8539.48
8182.7
8661.66
9311.57
8463.27
8927.24
7849.12
8008.52
8128.15
8289.95
7872.73
8016.27
8153.46
8299.53
7708.7
7818.97
7723.14
7824.23
-9.79203
-8.98858
-6.01361
-6.09194
-6.01128
-6.08622
-6.50504
-6.5039
-4.80614
-4.82156
-5.09543
-4.56214
-4.91548
-5.20487
-4.81841
-5.28981
-4.83342
-4.81635
-5.10632
-4.57292
-4.94113
-5.20984
-4.83837
-5.2958
-3.50464
-3.35199
-3.51267
-3.35254
-4.40824
-4.55519
-4.40482
-4.53143
16583.5
16387.7
12305.4
11256.7
11240.1
12321.6
11759.4
11761.7
10755.6
8660.47
9219.26
10756.8
8697.64
9233.02
8365.31
8657.46
8543.44
8880.1
8397.04
8554.73
8681.93
8889.76
7981.3
8096.23
8219.02
8351.79
8011
8105.63
8258.04
8364.26
-9.59946
-8.86037
-5.94361
-5.13339
-4.81263
-6.05441
-5.93872
-5.13807
-4.82416
-6.0431
-6.38852
-6.38497
-4.94069
-4.73348
-4.48863
-4.63216
-5.15331
-5.02232
-4.97268
-4.49784
-4.7347
-4.60181
-5.16783
-5.02431
-4.1341
-3.98007
-4.09272
-3.98406
17123.7
16797.9
12380.4
11239.8
11240.7
12380.6
11948.8
11937.7
9004.3
8712.22
9229.15
8672.85
9204.88
9560.97
9014.98
9856.68
9024.27
8742.25
9240.59
8710.43
9218.78
9568.53
9055.32
9866.91
8483.82
8712.18
8618.77
8936.32
8501.08
8625.67
8733.83
8944.7
-9.4783
-6.46548
-6.2522
-6.23985
-6.46297
-6.89931
-6.91647
-4.92288
-5.07507
-4.72309
-4.99029
-4.78884
-5.41276
-4.61036
-5.07
-5.93299
-4.8273
-5.1599
-4.93391
-5.07875
-4.73318
-4.99529
-4.79675
-5.41313
-4.63495
-5.07807
-5.92012
-4.84726
-5.16687
-4.67107
-4.70556
-4.90208
-4.95723
-4.69344
-4.70603
-4.91108
-4.95906
17559.6
17083.2
12458.9
11308.9
9818.72
9242.57
11315.9
9825.2
9259.63
12453.8
11938.5
11918.5
8927.16
9291.67
8737.65
9184.04
9014.38
9557.42
8952.54
9301.73
8759.62
9021.3
9192.27
9560.99
8576.15
8728.03
8593.35
8734.65
-9.42879
-6.3028
-6.41092
-6.28396
-6.40858
-6.83405
-6.8483
-4.63775
-4.64023
-4.85344
-4.88548
-4.54989
-4.87028
-4.78348
-4.72185
-5.01568
-4.76485
-5.07323
-5.17684
-5.11373
-5.55834
-4.64834
-4.66456
-4.89076
-4.86279
-4.57642
-4.87981
-4.74237
-4.78286
-5.02421
-4.79776
-5.08361
-5.1781
-5.10248
-5.54942
17821.9
13245.3
12442.5
12417.2
13268.8
12877.2
12859.4
9457.05
9807.58
9267.88
9792.24
9273.94
10265.4
9504.27
10098.3
9510.95
9814.97
9292.31
9801.09
9292.06
10279.9
9540.68
10110.5
11827.9
9633.16
10236.6
11822.2
9684.79
10254.8
9109.31
9364.23
9306.92
9598.79
9127.41
9372.9
9312.13
9602.51
-9.43946
-6.29008
-5.39899
-5.04899
-6.41239
-6.26363
-5.39077
-5.03243
-6.40995
-6.79752
-6.81396
-4.5422
-4.77444
-4.52519
-4.81439
-4.69143
-4.68823
-4.55065
-4.83503
-4.89293
-5.02465
-4.56994
-4.78441
-4.54991
-4.82428
-4.72205
-4.57287
-4.69236
-4.84403
-4.90339
-5.02506
17999.9
13260.1
12387.9
12356.5
13262.9
12889.6
12874.8
9333.09
9487.11
9601.49
9767.14
9685.36
10037.4
9353.24
9515.9
9607.94
9777.01
9722.98
10051.1
9984.14
9637.59
10173.1
9580.24
10153.6
10544.4
9873.56
10548.7
10000.2
9672.74
10189
9645.99
10175.7
10549.6
9892.61
10552.1
-9.47993
-6.78294
-6.7953
-6.26521
-5.36363
-5.08034
-5.3645
-5.07014
-6.40868
-6.245
-5.35495
-5.06424
-5.35641
-5.05471
-6.40994
-4.5991
-4.67474
-4.75354
-4.80245
-4.84015
-5.01683
-4.62974
-4.6937
-4.75388
-4.81228
-4.84665
-5.01589
18129.1
13205.6
12475.6
10681.5
10133.9
12427.6
10676.9
10122.4
13223.9
12895.8
12886.6
9575.85
9827.6
9671.91
10000.5
9610.01
9839.13
9703.35
10013.6
9916.53
10242.6
9672.39
10195.5
10011.3
10599.2
9940.25
10221.3
9692.22
10021.3
10205.1
10593.1
-9.51721
-6.76964
-6.78501
-6.78306
-6.79999
-6.24252
-5.33962
-5.06388
-5.36288
-5.04165
-4.76257
-5.03485
-6.43729
-6.22121
-5.33328
-5.05832
-5.35673
-5.03318
-4.77164
-5.0352
-6.43866
-4.68245
-4.86282
-4.70199
-4.868
18113.4
13191.2
13209.4
12474.8
10533.1
10095
10544.9
10099.6
12437.6
10527.3
10089.4
10540.4
10085.7
12880.9
12870
10060.3
9774.56
10251.7
10268.2
10049.5
10542.4
10089.4
9798.29
10236
10058.5
10275.3
10538.1
-9.54213
-6.78455
-6.78807
-6.79992
-6.8037
-6.46605
-6.47
-6.23395
-5.31394
-4.99967
-5.31276
-5.01246
-5.05451
-4.7765
-5.05454
-4.77637
-4.69925
-4.88909
-6.21404
-5.30698
-4.99462
-5.30692
-5.00236
-5.05249
-4.78386
-5.05429
-4.77572
-4.72086
-4.8945
18039.8
13166.8
13138.1
13190.7
13165.8
12451.8
10525.3
10074.4
10554.4
10072.9
10231.4
10527.5
12414.2
10523.4
10084.6
10553
10070.9
10230.1
10528.5
12877.5
12866.8
10095.3
10304.8
10126.6
10310.7
-9.5594
-6.80061
-6.85517
-6.81497
-6.86778
-6.48423
-6.50181
-6.48761
-6.50453
-6.25096
-6.2318
-5.37264
-5.01171
-5.3374
-5.03585
-5.05965
-4.73303
-5.05971
-4.75133
-4.95687
-4.75207
-4.92569
-4.73919
-5.36508
-5.00862
-5.3317
-5.027
-5.05629
-4.7247
-5.0547
-4.74456
-4.95538
-4.76171
-4.92664
-4.7388
17890.9
13101.4
13060.8
13129.5
13084.7
12858.4
12847.4
12447.6
10499.6
10002.1
10499.5
10038.4
10583.2
10251.4
10579.3
10261
10107.5
10316
12415.2
10499.8
10013.8
10501.7
10040
10584.2
10260.9
10581.4
10272.2
10134
10321.1
-9.55057
-6.90917
-6.95403
-6.92081
-6.96903
-6.52254
-6.56376
-6.52555
-6.56579
-6.2539
-6.24421
-6.23827
-6.22993
-5.39996
-5.10955
-5.42118
-5.06537
-5.38981
-5.09663
-5.41154
-5.05327
-5.14971
-4.74218
-5.10868
-4.77708
-5.14218
-4.73419
-5.10358
-4.76379
17551.4
13017.1
12971.2
13038.3
12992.3
12824.7
12767.2
12817
12761.2
12447.9
12411.4
10599.5
10012.2
10548.2
10068.1
10563.7
10161.8
10524.3
10225.2
10450.3
10160.9
10412.3
10169.9
10598.1
10030.5
10551.6
10065.1
10561.2
10175.4
10528.3
10220.3
10453.9
10188
10418.1
10191.6
-8.94622
-9.5391
-6.59716
-6.63411
-6.59629
-6.63796
-6.26655
-6.31606
-6.25093
-6.29689
-5.40185
-5.11551
-5.41457
-5.10931
-5.36904
-5.08633
-5.3479
-5.08739
-5.39235
-5.1018
-5.40453
-5.09676
-5.36261
-5.08285
-5.34242
-5.0801
-5.23097
-4.86461
-5.24028
-4.80657
-5.22062
-4.84342
-5.22973
-4.79039
17196.7
12937
12790.9
12956.4
12816.9
12722
12676.8
12712.4
12666.2
12429.8
12333.9
12394.6
12304.9
10643.4
10098.3
10646.1
10103
10635.3
10081.5
10633.3
10090.4
10643.8
10177.6
10581.8
10223
10642.1
10193.9
10586.1
10222.1
-8.94237
-6.39312
-6.43822
-6.38058
-6.43354
-9.50356
-6.37196
-6.38883
-6.34518
-6.37138
-5.34633
-5.10143
-5.33773
-5.11797
-5.36164
-5.18407
-5.39304
-5.14338
-5.34021
-5.09679
-5.33213
-5.11161
-5.35588
-5.17372
-5.38509
-5.13699
-5.22184
-4.89011
-5.22971
-4.91147
-5.20052
-4.90348
-5.19417
-4.9009
-5.21794
-4.87745
-5.22235
-4.90678
-5.19837
-4.90354
-5.19221
-4.89999
16743.9
16432.3
12594.6
12492.8
12581.4
12484.7
12306
12261
12271.4
12225.9
10688.8
10096.8
10665.5
10107.9
10559.2
9960.76
10512.9
10016.5
10680.2
10080.3
10653.3
10095.1
10556
9975.33
10513.8
10012.8
10678.6
10190.2
10618.4
10247.3
10675.5
10184.9
10610.3
10244
-8.89196
-6.44962
-6.46127
-6.45098
-6.47542
-6.06698
-6.14839
-6.06005
-6.12737
-9.47457
-5.39566
-5.20237
-5.39305
-5.18479
-5.44309
-5.20263
-5.57202
-5.16185
-5.38534
-5.17808
-5.38145
-5.16393
-5.43369
-5.19515
-5.5658
-5.14491
-5.20909
-4.93734
-5.20844
-4.95342
-5.21633
-5.04078
-5.24898
-4.99434
-5.20744
-4.93362
-5.20602
-4.95054
-5.21491
-5.02984
-5.24465
-4.99194
16208.7
16027.3
12015.4
11993.1
11987.7
11987.2
12197.5
12030.2
12150.8
11998.1
10405.6
9949.73
10454
9942.42
10392.1
9914.64
10381.1
9938.97
10403.3
9956.93
10453.5
9940.59
10387.8
9927.48
10380.9
9937.76
10804.9
10145.7
10601
10250.5
10575.2
10079.4
10531.6
10096.5
10797.1
10137.4
10591
10243
10572.1
10096.9
10535.4
10095.3
-8.27698
-8.81408
-6.1422
-6.13114
-6.12995
-6.1301
-4.92629
-5.07915
-5.10075
-4.88902
-5.11458
-5.37894
-4.93734
-5.32325
-4.88763
-5.17569
-4.9304
-5.06843
-5.10408
-4.90458
-5.11918
-5.37535
-4.94257
-5.32364
-4.89704
-5.17935
-9.44974
-5.25236
-5.05933
-5.25303
-5.05187
-5.26728
-4.99539
-5.24375
-5.04018
-5.2464
-5.03311
-5.25923
-4.97703
-5.0826
-4.88342
-5.06576
-4.87623
-5.08163
-4.89102
-5.067
-4.88186
15594
15583.2
11880.3
11720.8
11881.3
11733.9
11459.8
11528.3
11450.5
11516.6
10314.7
9911.36
10351.3
9885.45
10405.3
9577.06
10276.2
9877.19
10311.3
9909.11
10348.9
9876.89
10403.1
9589.86
10277
9867.69
10469.6
10116.5
10519
10103.7
10432.8
10076.4
10403.7
10087.7
10469.4
10132.3
10523.1
10107.3
10431.2
10079.4
10403.8
10088.1
-8.14872
-5.8405
-5.80005
-5.82636
-5.79317
-8.71592
-5.83232
-5.84636
-5.82551
-5.83111
-4.87011
-4.77399
-5.0214
-5.05014
-4.79137
-5.05214
-4.83486
-5.15151
-4.75915
-5.03549
-4.87877
-4.77756
-5.02424
-5.05289
-4.79806
-5.05612
-4.83226
-5.15213
-4.76309
-5.03729
-9.43361
-5.01282
-4.85958
-5.02519
-4.86112
-4.98684
-4.80952
-5.01327
-4.86388
-5.02483
-4.86444
-4.98792
-4.81355
14846.7
14938.7
14846.4
11493.5
11285.9
11481
11283.8
9340.78
9688.47
9843.68
9294.1
9834.64
10283.4
9111.7
9904.09
9335.49
9890.84
9694.94
9387.72
9864.19
9362.3
9859.02
10287.6
9157.14
9908.83
9390.49
9911.6
10319.6
10039.9
10342.2
10013.4
10332
9967
10317.3
10040.2
10342.2
10002.6
10326.9
9940.92
10286.6
9992.7
10245.5
9990.52
10286.7
10012.7
10250.6
10004.4
-7.98623
-5.74029
-5.69247
-5.73561
-5.698
-5.51229
-5.44921
-5.50695
-5.43735
-8.6671
-4.94703
-4.76098
-4.92084
-4.73327
-4.99716
-4.6845
-5.0783
-4.71361
-4.94873
-4.75805
-4.91822
-4.73385
-4.99655
-4.68815
-5.07705
-4.71429
-4.7683
-4.98342
-4.67403
-4.87413
-4.61436
-4.87966
-4.78172
-4.98702
-4.68724
-4.87816
-4.62807
-4.88411
-9.43068
14068.6
14155.2
14295.9
10796.5
10702.3
10779.7
10704.4
10960.2
10862.8
10957.1
10857.6
9628.83
9362.49
9670.03
9909.85
9377.64
9707.99
9157.84
9754.43
9396.35
9725.41
9675.93
9403.28
9925.86
9686.65
9402.48
9720.29
9189.56
9766.07
9433.2
9740.51
10058.2
9915.05
10127
9826.36
10023.6
9778.25
10066
9932.23
10132.5
9852.11
10034.7
9809.05
-7.1335
-7.86808
-5.31592
-5.20323
-5.29989
-5.20143
-4.46098
-4.57339
-4.64338
-4.41638
-4.64385
-4.91878
-4.31331
-4.68245
-4.36368
-4.64373
-4.47814
-4.57708
-4.65009
-4.43273
-4.65076
-4.92123
-4.31721
-4.68434
-4.3763
-4.64968
-8.66465
-4.86853
-4.63443
-4.85679
-4.6399
-4.82687
-4.55328
-4.86938
-4.63822
-4.85903
-4.64037
-4.8299
-4.56151
-9.43656
13455.2
13440.2
13554.5
10510
10338.2
10507.7
10345.3
10382.3
10293.2
10381.4
10287.1
9466.45
8980.4
9467.73
8957.5
9435.19
8699.32
9532.47
8897.54
9473.38
9005.07
9477.7
8971.99
9442.52
8738.91
9542.52
8915.36
9492.2
9765.06
9150.42
9405.19
9297.93
9548.44
9545.24
9782.41
9179.05
9416.65
9329.97
9560.65
-7.02549
-4.69808
-4.76084
-4.70305
-4.77586
-7.87736
-4.95656
-4.71848
-4.95107
-4.71461
-4.44364
-4.34061
-4.63932
-4.58797
-4.29686
-4.51967
-4.16143
-4.47516
-4.19765
-4.45481
-4.46941
-4.3661
-4.64935
-4.59819
-4.31445
-4.52738
-4.16909
-4.47721
-4.21107
-4.45927
-8.6909
-4.68608
-4.45127
-4.69312
-4.47297
-9.44479
13085.4
12820
12863.2
12714.6
10092.5
9743.49
10074.9
9741.09
8341.91
8689.29
8838.98
8357.59
8883.92
9240.85
8116.81
8919.66
8310.09
8847.05
8707.64
8369.52
8849.77
8380.64
8892.44
9247.41
8154.34
8929.08
8335
8855.9
9249.84
8991.59
9276.85
9003.88
9134.14
8905.17
9254.88
9016.53
9285.38
9013.51
9140.01
8918.22
-6.14976
-7.27139
-3.99321
-4.10635
-3.9877
-4.1082
-7.93629
-4.0923
-3.94817
-4.17924
-3.75384
-4.29907
-4.08947
-3.94654
-4.18044
-3.74718
-4.28388
-4.17928
-4.3748
-4.01931
-4.17179
-4.08028
-4.25646
-4.19799
-4.38166
-4.03519
-4.17811
-4.09665
-4.26359
-8.70498
-9.44614
12961.4
12399.3
12185.8
11769.5
9020.49
8807.98
9015.89