/*--------------------------------*- C++ -*----------------------------------*\
| =========                 |                                                 |
| \\      /  F ield         | OpenFOAM: The Open Source CFD Toolbox           |
|  \\    /   O peration     | Version:  5.x                                   |
|   \\  /    A nd           | Web:      www.OpenFOAM.org                      |
|    \\/     M anipulation  |                                                 |
\*---------------------------------------------------------------------------*/
FoamFile
{
    version     2.0;
    format      ascii;
    class       volScalarField;
    location    "2.6";
    object      p_rgh;
}
// * * * * * * * * * * * * * * * * * * * * * * * * * * * * * * * * * * * * * //

dimensions      [1 -1 -2 0 0 0 0];

internalField   nonuniform List<scalar> 
12160
(
5583.21
5655.05
5582.79
5682
5654.54
5581.99
5737.99
5681.55
5653.5
5580.76
5783.37
5737.57
5680.6
5651.9
5579.25
5832.52
5783.09
5736.64
5679.17
5649.76
5577.24
5881.19
5832.41
5782.33
5735.25
5677.26
5646.98
5575.31
5928.25
5881.29
5832.05
5781.27
5733.28
5674.8
5643.55
5572.45
5972.35
5928.62
5881.41
5831.53
5779.72
5730.8
5671.83
5611.02
2944.08
6012.32
5973
5929.28
5881.59
5830.74
5777.8
5727.5
5646.38
3486.49
180.726
6047.13
6013.25
5974.25
5930.29
5881.75
5829.76
5775.19
5713.36
3711.33
264.439
7.37907
6075.73
6048.37
6015.08
5976.12
5931.59
5881.98
5828.12
5763.34
4061.82
308.357
5.55664
0.161547
6096.94
6077.34
6050.84
6017.81
5978.56
5933.29
5881.78
5816.37
4367.95
458.664
3.64499
0.0637343
0.0318558
6109.37
6098.96
6080.54
6054.5
6021.38
5981.73
5934.84
5870.03
4672.4
636.397
0.94674
0.0467901
-0.0113893
0.025314
6111.58
6111.79
6102.8
6085.37
6059.25
6025.94
5984.99
5925.1
4967.13
873.432
2.40194
0.0470413
0.0166937
0.0204277
0.00775698
6102.89
6114.28
6116.6
6109.64
6091.4
6065.31
6030.82
5978.09
5232.21
1148.69
12.0556
0.041291
0.0564527
0.0222674
-0.019261
6083.64
6105.64
6119.72
6124.06
6116.23
6099.54
6071.85
6026.6
5438.76
1460.23
32.2586
0.00338202
0.0469118
0.0217881
-0.00765103
6054.83
6086.18
6111.23
6128.03
6133.73
6127.99
6108.19
6070.38
5597.2
1796.97
61.5156
0.0326442
0.00637856
0.0175664
0.0101034
6018.6
6056.9
6091.38
6119.77
6139.2
6146.53
6138.45
6110.72
5722.7
2128.45
101.211
0.147478
-0.0171506
-0.00397197
0.00953755
5978.08
6019.98
6061.16
6099.31
6131.41
6153.76
6161.52
6146.99
5829.76
2447.81
149.904
0.315054
-0.0252269
-0.00993236
0.00376504
5936.28
5978.53
6022.83
6067.66
6110.28
6146.61
6171.42
6176.8
5918.56
2770.21
208.726
0.503598
-0.0208652
-0.00992541
-0.00190427
5895.56
5935.88
5979.43
6027.27
6076.7
6124.52
6165.36
6192.27
5984.78
3085.8
281.326
0.870075
-0.0119667
-0.00854801
-0.00326171
5858.21
5894.39
5935.07
5980.66
6033.71
6088.33
6142.35
6188.37
6017.91
3355.6
371.087
2.46299
-0.0206348
-0.00388288
-0.00427079
5825.9
5856.39
5892.03
5933.76
5982.1
6041.12
6102.99
6163.96
6011.95
3521.52
466.142
6.86175
-0.0452433
-0.000589655
-0.00498852
5799.55
5823.62
5852.73
5888.33
5931.98
5984.95
6050.5
6119.38
5953.37
3539.18
533.761
13.2987
-0.0511291
0.00420021
-0.00997807
5779.58
5797.01
5819.01
5847.03
5883.24
5929.69
5988.31
6056.31
5829.21
3355.92
549.347
19.2706
-0.0413013
-0.0276005
-0.0249243
5765.94
5776.98
5791.88
5811.86
5839.13
5876.51
5926.57
5975.23
5614.55
2987.89
491.813
22.035
-0.00456484
-0.057272
-0.0205724
5758.16
5763.45
5771.73
5783.92
5801.96
5828.74
5867.56
5889.96
5321.15
2514.35
373.271
20.4843
0.0253031
-0.0764402
-0.0222526
5755.45
5755.93
5758.45
5763.6
5772.93
5788.96
5815
5803.58
5005.25
1993.55
238.031
14.7752
0.0358413
-0.0865572
-0.0270385
5756.86
5753.57
5751.46
5750.72
5752.41
5758.52
5771.67
5721.39
4676.28
1484.14
136.646
8.8624
0.0303643
-0.0849631
-0.0301691
5761.4
5755.38
5749.83
5744.59
5740.16
5737.76
5739.28
5648.83
4344.94
1067.13
79.1234
5.45067
0.00640591
-0.0695082
-0.0301961
5768.11
5760.3
5752.45
5744.11
5735.28
5726.35
5718.1
5593.02
4053.31
782.854
48.5006
3.48812
0.0163201
-0.044063
-0.0276855
5776.15
5767.37
5758.2
5747.97
5736.41
5723.25
5707.82
5559.31
3840.2
605.726
32.1767
2.31762
0.0525018
-0.0194581
-0.0223683
5784.71
5775.73
5766.06
5754.91
5742.02
5726.64
5707.09
5548.37
3718.98
503.349
24.0726
1.56941
0.0873054
0.00347525
-0.012283
5793.16
5784.64
5775.14
5763.82
5750.67
5734.57
5713.67
5558.27
3685.7
450.819
20.1035
1.18879
0.10665
0.0241947
-0.00218405
5800.99
5793.43
5784.68
5773.88
5761.18
5745.27
5724.95
5582.5
3734.69
433.374
18.0587
1.03326
0.11154
0.0411095
0.00462855
5807.6
5801.52
5794.04
5784.42
5772.67
5757.47
5738.61
5613.64
3841.78
443.838
17.2707
0.924778
0.110931
0.0498098
0.00637966
5812.51
5808.35
5802.66
5794.78
5784.47
5770.54
5753.27
5644.8
3981.17
473.968
17.2979
0.825848
0.102018
0.051738
0.00743514
5815.47
5813.46
5809.96
5804.27
5795.98
5784.02
5768.4
5672.62
4116.92
518.141
17.8023
0.726467
0.0860128
0.0483509
0.00844094
5816.23
5816.57
5815.47
5812.31
5806.6
5797.29
5783.73
5699.66
4227.77
566.174
18.6476
0.599887
0.0665154
0.0427587
0.00860693
5817.44
5813.81
5818.89
5818.42
5815.64
5809.44
5798.77
5727.07
4319.97
619.388
19.8766
0.385119
0.0464956
0.0363795
0.00651149
5819.98
5815.15
5797.88
5822.3
5822.55
5819.79
5812.77
5748.8
4383.44
700.19
22.2087
0.200308
0.0310337
0.0290417
0.00278043
5823.71
5817.95
5799.33
5772.36
5827.04
5827.74
5824.62
5766.23
4457.16
821.905
28.2051
0.138177
0.02068
0.0188137
0.000495668
5828.86
5822.06
5802.24
5773.87
5739.12
5832.98
5833.65
5780.57
4539.36
963.194
40.0024
0.162452
0.0166927
0.0105244
0.000696187
5835.31
5827.62
5806.57
5776.89
5740.39
5699.87
5839.59
5791.83
4617.69
1085.04
55.9441
0.456615
0.00992045
0.000833652
0.00221476
5842.26
5834.55
5812.35
5781.33
5743.29
5701.37
5658.35
5799.06
4680.58
1176.17
70.5038
0.833545
-0.0117551
-0.013561
0.00352051
5802.1
5841.54
5819.47
5787.27
5747.55
5704.65
5658.89
5612.01
4723.36
1238.12
80.5457
1.16339
-0.0361821
-0.0244624
0.00679553
4741.82
5800.9
5825.84
5794.48
5753.82
5708.78
5660.79
5612.12
5564.08
1276.32
85.8807
1.35184
-0.048453
-0.0283421
0.00560608
1294.14
4730.91
5778.83
5800.19
5760.94
5714.63
5663.75
5612.54
5558.27
5530.37
88.068
1.38527
-0.0469106
-0.03243
-0.00176964
88.7756
1294.68
4629.39
5740.84
5764.79
5721.34
5669.31
5613.39
5550.94
5519.1
5447.12
1.3535
-0.0363802
-0.0297528
-0.00544264
1.34445
89.2443
1245.53
4468.99
5683.36
5719.75
5673.64
5616.57
5545.05
5502.45
5435.46
5609.13
-0.0203204
-0.022395
-0.00687776
0.000929515
1.4358
91.6467
1177.01
4266.15
5607.96
5644
5611.71
5536.94
5469.11
5415.33
5542.62
4907.66
5131.3
-0.0113313
-0.00523036
0.00315534
0.0453915
2.55462
101.807
1095.84
4022.45
5493.91
5513.69
5528.7
5425.36
5392.17
5460.46
5067.96
4547.92
4598.64
4565.93
-0.00139813
0.00396278
0.0313036
0.191303
9.61318
104.635
959.339
3753.65
5221.86
5420.97
5415.37
5334.89
5389.79
5153.1
4844.07
4204.25
4145.89
4161.36
4000.51
0.014263
0.0727852
2.18711
15.8676
86.8425
804.235
3514.97
4827.63
5402.6
5318.28
5286.37
5238.93
5062.35
4582.08
3869.72
3708.85
3648.23
3638.77
3468.54
0.021708
0.416654
5.69216
14.1534
66.302
728.89
3223.52
4713.82
5351.24
5257.71
5320.12
5255.74
4882.94
4299.74
3589.12
3293.25
3100.62
3070.1
3127.51
3152.09
-0.0185488
1.50407
5.19889
6.31054
54.0277
849.511
2149.88
5012.52
5371.73
5427.57
5433.86
5155.93
4642.09
4081.13
3402.69
2946.82
2568.02
2409.76
2503.02
2780.27
3128.5
-0.0537692
1.55687
1.22286
1.74762
59.1654
518.899
1726.97
5414.09
5571.64
5608.35
5413.01
4973.99
4458.08
3916.31
2440.5
2734.8
2445.06
2769.11
2772.43
2174.01
1770.04
1724.32
2072.15
2711.84
3420.12
0.0547877
0.349045
0.393886
1.04053
58.65
144.331
3667.56
5730.54
5777.19
5651.99
5304.31
4807.58
4333.52
3822.87
2108.85
2420.71
1938.94
2113.6
1732.52
1736.98
2422.96
2695.56
2697.01
1297.03
960.834
1167.22
1931.09
2980.04
4036.21
-0.0469881
0.185301
0.238326
1.60874
12.1082
69.7166
5500.67
5926
5863.98
5601.1
5148.97
4678.78
4242.54
3004.82
3003.44
3259.44
3260.65
2095.71
2448.76
986.993
1863.34
2098.24
1733.84
1737.08
2440.5
2744.7
2737.53
365.42
264.313
925.387
2177.81
3603.56
4917.71
0.0178364
0.160286
0.158489
0.713719
1.29563
540.353
5978.01
6038.95
5860.43
5475.9
5010.8
4578.57
3475.57
3476.59
3682.12
3683.21
2984.32
2981.64
3265.75
3261.4
2133.15
2268.83
2000.08
2125.26
2147.65
-43.3554
961.724
1090.19
1092.46
1447.95
1446.56
2124.44
1785.26
1778.81
2266.62
2003.49
2123.45
2146.59
2424.69
2397.94
2618.07
2293.21
2421.64
2399.45
2615.08
2290.24
-481.981
-124.778
1107.32
2807.3
4503.79
5881.78
0.0357473
0.177149
0.276403
0.497147
0.42336
1837.17
6138.96
6070.18
5760.11
5324.75
4899.91
3880.45
3881.05
4079.36
4079.92
3478.9
3472.64
3684.07
3676.04
2599.83
2448.27
2673.94
2716.71
2824.68
2552.46
2447.69
2604.28
2674.89
2718.08
2824.58
2552.3
2964.8
3080.11
2843.05
2959.36
2965.64
3079.76
2843.79
2959.14
1824.82
1860.01
1983.91
1706.11
2258.7
2081.57
2107.66
2225.82
-1027.74
-59.1979
255.585
257.072
688.058
689.344
1216.86
1212.07
1540.46
1538.06
1821.58
1861.5
1981.37
1702.69
1669.03
1312.49
1547.92
1539.04
1665.11
1307.88
1542.94
1533.26
2258.81
2086.06
2108.78
2228.61
2403.67
2360
2403.42
2360.8
-1059.62
-51.1856
1728.3
3742.52
5490.61
6750.82
0.0191882
0.199295
0.26754
0.439881
-0.351317
3123.43
6157.23
5970.1
5608.27
5204.61
4266.13
4266.17
4461.28
4462.2
3881.96
3873.84
4075.82
4068.76
3073.41
3179.78
3174.35
3281.88
3073.33
3179.13
3177.64
3281.77
3398.17
3508.86
3288.28
3395.95
3403.95
3509.37
3291.91
3396.21
2509.5
2638.25
2705.88
2546.38
2775.63
2816.94
2511.85
2642.31
2547.35
2706.93
2778.36
2817.7
3013.74
3046.73
2906.22
2938.47
3016.93
3047.81
2907.81
2939.06
1820.16
1946.08
1970.66
1793.85
2284.04
2098.94
2126.91
2249.78
-1733.45
-1043.65
-638.456
-637.718
-196.262
-195.551
446.481
436.906
844.054
837.09
808.617
931.062
980.301
1102.25
812.549
931.797
984.389
1103.19
1292.35
1402.66
1390.86
1136.18
1256.19
1544.59
1297.41
1402.72
1391.95
1139.39
1256.88
1544.22
1820.99
1950.1
1971.52
1798.54
1671.81
1625.61
1672.49
1628.99
2283.17
2099.96
2127.32
2246.85
2403.04
2358.4
2403.43
2359.77
-1157.47
528.662
2719.6
4816.86
6404.56
7347.73
0.0510281
0.238247
0.246925
0.689445
-1.33377
3043.23
6042.82
5828.72
5460.48
4646.95
4647.67
4833.13
4833.1
4255.85
4251.61
4431.91
4431.31
3511.22
3619.49
3617.16
3728.35
3513.33
3618.89
3620.83
3727.73
3803.49
3972.69
3724.15
3836.26
3803.67
3970.76
3724.85
3834.84
3119.95
3152.7
3232.65
3261.13
3124.31
3154.05
3237.31
3262.71
3450.57
3476.46
3351.97
3374.91
3455.36
3478.15
3354.28
3376.21
1831.31
1962.47
1986.77
1806.24
-2002.36
-1774.89
-1480.45
-1479.49
-1089.15
-1089.18
-400.533
-410.835
18.207
7.51665
74.2553
201.444
278.124
400.911
82.9776
201.35
285.477
402.819
637.692
752.707
460.403
584.786
641.61
753.566
468.723
586.219
908.902
953.754
1069.97
1111.89
916.529
956.237
1075.03
1113.76
1472.81
1325.48
1382.01
1532.76
1199.9
1243.56
1475.87
1331.05
1383.79
1533.91
1204.51
1245.24
1832.06
1964.15
1987.58
1808.22
1698.79
1659.65
1699.57
1662.49
-684.431
1543.54
3892.07
5805.91
7003.23
7688.52
0.0512658
0.289214
0.25248
0.803935
-0.273656
2045.26
5662.98
5641.76
5299.68
4606.17
4606.16
4762.58
4762.59
4233.08
4230.86
4428.24
4425.65
3560.51
3584.84
3670.74
3698.14
3563.82
3586.27
3673.63
3699.3
3838.79
3920.89
3768.32
3801.05
3838.88
3920.72
3769.75
3801.8
3471.36
3518.34
3477.38
3520.15
-1644.86
-2141.54
-2068.16
-2066.88
-1840.02
-1838.86
-1189.98
-1192.6
-818.654
-825.885
-736.252
-509.374
-486.831
-362.601
-727.029
-508.155
-481.96
-360.674
-120.546
2.7625
-308.278
-181.835
-116.174
1.7007
-302.834
-180.381
261.162
290.325
441.935
472.844
268.907
292.07
445.285
475.322
747.044
793.724
591.174
631.605
752.605
795.68
595.905
633.626
328.718
2820.77
5014.55
6397.66
7325.51
7911.34
0.0551565
0.420583
0.262996
0.599951
4.67865
795.965
4449.81
5256.15
4922.35
4923.06
5055.95
5056.59
4615.26
4610.74
4758.44
4759.46
4143.97
3964.83
4033.72
4060.88
4143.27
3963.2
4033.32
4059.32
4253.68
4259.33
4346.26
4169.62
4252.09
4258.97
4344.59
4166.27
3573.61
3606.71
3684.17
3711.28
3578.19
3608.4
3687.89
3712.69
3881.73
3909.23
3785.21
3813.59
3884.48
3910.04
3788.16
3814.92
-651.089
-1913.62
-1640.21
-1801.33
-1802.03
-1527.79
-1529.93
-842.804
-847.809
-515.117
-519.26
-570.984
-414.213
-315.556
-269.734
-568.047
-412.653
-314.207
-269.298
56.2774
80.4489
-124.602
-101.605
60.5045
79.977
-121.26
-100.232
265.736
315.524
275.439
317.68
1704.64
4391.12
5825.58
6600.53
7518.94
7889.07
0.0690906
0.559272
0.650969
3.68391
50.9042
233.172
2392.14
4300.23
4915.19
4912.42
4951.99
4950.36
4356.73
4443.97
4570.4
4436.16
4356.1
4442.18
4567.27
4433.87
4770.86
4766.54
4143.86
4024.09
4055.41
4122.69
4143.94
4024.67
4055.41
4122.58
4245.49
4312.05
4333.36
4227.51
4245.63
4312.57
4333.38
4228.46
3918.75
3952.73
3923.23
3953.84
800.434
-976.135
-1374.59
-1479.95
-1480.58
-1461.25
-1464.54
-1379.89
-1382.34
-1111.04
-1122.34
-750.511
-1032.59
-908.571
-861.916
-750.081
-1023.83
-907.97
-860.199
-592.975
-555.391
-462.757
-704.929
-592.727
-555.272
-461.938
-704.575
-350.355
-294.684
-180.131
-144.318
-344.724
-292.911
-178.081
-143.058
117.348
146.797
-17.6658
8.0222
123.558
147.4
-12.524
9.38881
3781.16
6807.25
6094.06
6714.22
7482.62
0.0880763
0.539461
5.53324
48.3058
178.932
632.182
1158.32
3591.73
3590.72
2439.84
2438.26
4699.5
4785.3
4697.49
4873.59
4699.41
4784.73
4698.6
4872.65
4829
4829.19
4399.73
4424.74
4528.11
4459.65
4399.91
4424.69
4527.16
4459.61
4643.1
4713.42
4568.89
4623.49
4646.83
4715.16
4571.31
4624.65
4285.43
4341.46
4362.14
4260.29
4285.94
4344.47
4362.97
4263.21
2575.61
498.998
-500.128
-193.114
-1139.21
-1148.48
-1075.58
-1086.78
-884.975
-892.808
-1173.01
-1045.64
-1069.62
-1327.23
-1169.84
-1046.36
-1072.74
-1330.94
-590.373
-763.416
-740.137
-612.687
-584.64
-759.159
-735.771
-609.152
-476.357
-413.417
-381.509
-505.079
-474.723
-408.141
-380.695
-501.822
-288.326
-248.393
-280.035
-246.08
7817.38
8049.25
5726.97
6695.05
0.0779201
2.3895
36.3501
145.51
427.004
1164.78
1035.65
1039.87
1816.87
1818.56
2911.16
2913.67
1613.6
1616.66
4697.34
4765.79
4658.09
4833.33
4696.9
4765.42
4658.72
4833.31
4872.05
3696.98
4603.91
4150.01
4875.68
3692.08
4604.81
4148.15
4426.55
4445.31
4522.42
4503.4
4427.05
4445.67
4522.83
4504.43
4687.31
4704.69
4622.71
4634.28
4689.67
4704.84
4624.18
4635.51
5809.74
1923.28
848.601
631.617
-466.355
-465.294
-601.27
-604.932
-614.309
-616.217
-1116.23
-991.359
-1271.56
-974.317
-1114.27
-989.982
-1256.91
-971.023
-1020.96
-897.592
-920.238
-819.033
-1101.22
-899.605
-1008.54
-894.611
-912.645
-816.58
-1098.69
-900.296
-910.018
-852.899
-907.958
-852.022
-525.547
-625.866
-598.088
-554.619
-522.57
-617.925
-593.756
-549.217
9182.49
5170.79
5743.74
-0.0417535
10.5393
58.9045
139.262
447.01
1328.49
1385.8
1388.46
2116.64
2117.82
2268.84
3482.51
2418.17
1721.03
2538.96
4566.26
3481.67
2269.42
4569.4
2423.42
1718.05
2543.84
770.406
1134.26
891.237
1293.86
781.065
1139.98
901.048
1301.66
4687.86
4785.07
4654.6
4823.34
4689.7
4785.69
4656.42
4823.88
4832.05
3808.41
4837.49
3807.05
4562.29
4547.27
4563.4
4548.98
4680.97
4729.98
4683.39
4730.51
8932.83
3610.06
2126.12
1709.87
88.4373
92.2885
-272.387
-274.473
133.714
127.534
25.9273
27.1576
-609.187
-891.846
-525.104
-749.218
-797.663
-1079.44
-607.742
-871.259
-518.126
-744.115
-796.423
-1073.37
-876.58
-794.084
-871.272
-792.191
-745.082
-695.878
-696.547
-793.877
-669.021
-731.821
-734.987
-692.812
-692.188
-785.33
-667.432
-729.344
-726.705
-685.101
-720.252
-681.953
6684.31
5011.66
0.00510155
10.1982
21.9278
41.5287
110.906
1274.52
1284.95
356.94
358.94
1551.29
1540
2157.48
2158.85
2943.73
1618.13
1503.49
3345.01
1050.13
1231.56
2945.33
1616.35
3351.56
1501.76
1050.04
1227.87
690.17
731.156
738.819
904.334
681.463
744.89
744.576
905.606
4335.1
4843.88
4335.42
4845.23
8451.48
7976.95
3292.85
2754.32
2829.82
484.837
478.121
282.984
266.14
-455.171
63.406
-388.195
-133.015
-428.928
68.8497
-372.08
-127.077
-455.551
-640.236
-278.437
-418.468
-204.994
-350.224
-441.502
-629.872
-272.274
-392.687
-196.782
-346.425
-449.308
-602.725
-535.194
-658.131
-449.597
-603.07
-538.222
-656.693
-642.881
-578.57
-638.843
-577.898
-640.717
-582.782
-659.647
-623.552
-629.238
-580.184
-652.434
-621.592
4596.64
-0.23266
2.96339
5.67214
17.6094
116.034
1524.82
1537.92
506.826
510.092
2859.88
821.874
2273.07
1463.1
2857.05
771.46
2222.68
1386.56
2256.91
2258.15
703.209
785.595
768.378
705.382
695.108
762.662
769.612
705.872
4447.07
6299.18
4455.65
3891.53
3655.82
1464.58
1479.46
1098.52
1097.37
873.822
872.374
766.085
757.063
-218.361
139.617
-64.3178
26.1782
-202.704
144.062
-55.4176
29.3748
-424.617
-210.809
-316.53
-139.372
-102.232
-44.4073
-413.315
-199.478
-134.345
-313.016
-92.651
-40.6391
-476.419
-522.759
-476.661
-523.712
-0.315217
0.666751
1.44378
15.6584
148.414
149.5
59.9359
60.188
1479.92
1491.16
486.398
487.641
2853.08
1435.48
2822.64
1867.71
2850.85
1340.12
2756.16
1834.85
1679.48
2794.05
1816.85
2938.22
1681.63
2799.96
1812.77
2940.48
917.612
1913.58
862.222
1664.57
4561.34
4613.89
4489.61
5071.82
4644.69
1680.39
1681.04
1574.9
1560.82
1410.63
1394.16
613.698
67.6442
351.775
31.5045
610.375
65.4708
351.526
26.2806
90.9243
198.156
60.1823
121.564
104.379
201.212
68.8589
123.402
-0.269191
0.0628027
0.523777
19.8235
178.065
179.334
71.2179
71.1434
1866.05
2809.92
1154.29
1437.41
2698.28
932.884
1868.23
2808.57
1158.81
1438.13
2703.09
935.214
460.891
461.427
2866.74
1605.76
2817.06
1910.64
2861.1
1538.5
2764.68
1885.16
2078.56
2938.12
2075.36
2941.17
4631.17
4782.24
5362.29
5973.33
2647.86
2666.97
2103.06
2101.27
1837.43
1851.57
1901.02
1886.37
352.112
1016.89
436.246
766.512
183.541
612.594
398.409
1025.49
463.46
776.049
184.149
613.013
303.683
431.421
308.87
432.619
253.58
343.012
265.977
344.65
-0.264448
7.2676e-05
0.467927
11.8527
11.7902
7.16484
7.17063
186.225
186.861
52.4473
51.4469
1864.48
3004.93
1202.98
1540.98
2448.54
995.756
1864.62
3002.97
1202.75
1544.41
2447.71
998.885
263.193
253.711
482.912
605.208
267.673
259.881
487.752
612.497
4870.48
5268.09
6483.06
6541.28
2741.99
2742.74
2474.34
2454.36
2346.07
2330.91
521.843
988.751
1481.83
789.064
1171.85
799.556
1478.45
793.456
1174.54
796.834
549.34
997.489
629.965
446.784
803.174
617.005
649.953
468.62
810.883
624.171
412.712
531.574
426.635
535.077
-0.158713
-0.0340506
4.07681
14.4318
14.5038
10.2345
10.2446
303.732
491.453
56.7068
195.334
208.326
72.1693
309.278
503.894
54.8697
195.671
202.804
69.9226
28.9471
28.4115
1474.96
854.964
1480.3
860.19
531.897
1089.46
538.22
1102.72
5316.04
6005.41
7143.13
3804.51
3863.28
3248.54
3266.54
2928.34
2935.01
2710.3
2703.05
990.686
1735.58
1089.07
1475.07
923.448
1365.12
1033.93
925.897
1366.11
1745.08
1104.83
1479.91
803.018
1000.57
985.554
1162.45
990.819
824.378
1164.06
1007.27
-0.222992
0.309487
4.914
19.0412
19.021
11.2261
11.1873
297.444
859.043
51.308
166.587
160.839
62.4461
303.296
862.574
50.2046
165.356
157.043
60.7002
19.9602
29.2055
18.9377
18.7457
20.1058
29.149
18.913
18.7163
348.609
1108.09
356.604
1109.25
5872.92
6708.11
7591.67
3789.13
3832.79
3590.73
3587.66
3266.45
3278.77
1173.76
1639.01
2082.79
1357.43
1795.75
1418.27
1200.05
1647.98
2084.22
1363.6
1798.93
1432.71
1317.58
1155.46
1463.82
1328.55
1170.57
1332.67
1324.15
1467.29
0.197036
0.415075
1.83671
4.8787
4.84862
1.83586
1.75437
1.74807
4.62302
18.3768
18.2564
4.41528
18.5851
17.5552
291.559
656.906
18.213
65.6093
38.066
24.2487
294.876
655.85
18.3964
64.9626
37.322
24.0383
18.4819
15.787
18.7162
17.0981
6525.02
7269.69
7711.9
3881.33
3918.06
3708.65
3716.14
2217.45
2228.74
2055.56
2017.31
1564.49
1920.17
2286.85
1592.35
1926.24
2240.66
2124.88
2028.88
1427.63
1585.89
1575.63
1714.14
1451.48
1593.63
1606.8
1723.7
1405.21
1513.32
1419.95
1518.57
0.263744
-0.164077
1.66688
1.8838
1.66817
1.88845
1.81648
1.8155
2.41573
5.92334
7.48032
7.46458
7.47333
2.06707
2.57626
2.09754
5.74304
2.41796
11.7991
7.79136
8.36701
2.07602
2.55318
2.09169
17.2401
23.3163
20.0735
23.1212
9.05466
10.0918
9.39246
21.4078
7166.09
7676.38
4301.18
3851.64
3864.89
4306.04
4078.26
4082.98
3682.81
2382.91
2154
3694.73
2448.13
2167.78
1863.92
2304.8
1816.75
1983.13
1920.06
1828.04
2351.5
1992.83
1528.87
1643.08
1673.57
1756.78
1558.63
1652.47
1722.35
1769.24
-0.118533
-0.0457847
1.68328
2.24875
2.5666
1.90719
1.68821
2.24522
2.55512
1.91752
1.92834
1.93021
2.56978
2.47865
8.59552
16.2251
2.916
2.19872
2.70874
8.62781
2.47911
19.7019
2.58263
2.19816
20.5002
14.3576
21.4551
14.4778
7692.19
8048.05
4190.09
3765.8
3814.98
4181.22
4139.47
4154.87
2285.3
2385
2184.93
2404.52
2147.8
2351.12
1889.42
2473.88
2315.57
2430.08
2196.35
2469.97
2161.69
2358.68
1961.23
2484.17
2186.06
2461.63
1871.12
2034.2
2230.04
1877.99
2505.58
2042.58
0.00110609
2.2143
2.0603
2.07045
2.20655
2.0856
2.06799
2.77622
2.30054
2.65324
2.38307
2.5861
2.28647
2.91924
2.45929
2.02083
2.86211
2.53412
2.76506
2.29741
2.64577
2.37859
2.57826
2.28597
2.89542
2.45153
2.03295
2.84193
2.52641
2.42576
2.52526
2.22553
2.27414
2.40508
2.52594
2.23883
2.27267
8095.96
8313.14
4216.75
3802.97
2440.96
2025.49
3856.14
2447.44
2095.14
4207.32
4102.02
4097.59
2456.74
2424.67
2504.52
2126.31
2093.6
2348.55
2498.53
2450.95
2548.42
2100.49
2135.14
2352.83
2388.03
1937.21
2431.22
1943.8
0.0500161
2.04458
2.30831
2.04816
2.28332
2.15415
2.13871
2.6252
2.80407
2.56858
2.37718
2.99337
2.66985
3.07212
2.9787
2.6824
2.925
2.6232
2.67879
2.93186
2.48258
2.61678
2.79377
2.37222
2.56309
2.97155
2.66187
2.96282
3.07343
2.67475
2.89306
2.61239
2.67756
2.9377
2.49118
8365.87
4371.45
4175.39
4145.47
4394.96
4253.24
4232.99
1925.47
2434.12
2035.08
2424.1
2049.72
2567.24
2098.59
2572.47
2076.27
2441.51
2149.13
2432.93
2153.77
2581.84
2221.22
2584.63
3969.52
2139.01
2548.93
3971.27
2268.25
2567.07
2538.15
2378.5
2215.01
2370.28
2570.48
2419.42
2220.73
2373.98
0.0382273
2.1203
2.63992
3.0073
2.33318
2.11058
2.64764
3.01404
2.29574
2.1942
2.1746
2.98568
2.71069
3.09097
2.78647
3.02776
3.16648
3.11841
2.77574
2.79904
2.82708
2.98599
2.70848
3.08977
2.77813
3.01468
3.1353
3.16536
2.77152
2.79098
2.8275
8566.22
4380.71
4104.34
4070.72
4377
4266.39
4251.49
2267.92
2240.16
2343.79
2386.03
2319.18
2522.35
2339.42
2349.23
2350.23
2395.89
2432.96
2536
2245.59
2142.22
2490.67
2093.59
2471.69
2690.83
1884.77
2513.46
2252.78
2222.1
2506.5
2236.38
2493.74
2696.05
1893.98
2517
-0.0023067
2.20277
2.1888
2.20241
2.67856
3.02681
2.69218
3.01069
2.32327
2.17343
2.68604
3.01189
2.69583
3.00479
2.28573
3.12789
3.08203
3.11111
2.80432
2.87407
2.8444
3.15922
3.10583
3.11073
2.80412
2.87732
2.84419
8700.87
4342.53
4196.11
2648.75
2145.65
4147.98
2644.26
2130.42
4358.52
4288.26
4280.86
2323.34
2424.31
2313.65
2476.32
2437.02
2435.85
2421.03
2489.32
2399.31
2493.48
2290.27
2517.37
2460.32
2750.47
2441.96
2461.65
2376.55
2470.37
2527.17
2744.69
-0.0424025
2.21173
2.18805
2.1977
2.17297
2.21291
2.74734
3.05724
2.69403
3.06177
3.11883
2.84681
2.23651
2.19472
2.73792
3.03173
2.69778
3.04735
3.10094
2.83866
2.21848
3.07599
2.87423
3.08276
2.87585
8688.16
4346.52
4365.26
4202.35
2498.2
2097.41
2505.39
2116
4167.16
2492.6
2093.62
2501.06
2098.75
4295.27
4288.02
2544.6
2369.04
2486.08
2584.43
2476.81
2687.85
2575.29
2434.19
2457.98
2485.86
2591.73
2684.1
-0.0656974
2.18474
2.18156
2.16937
2.16592
2.1645
2.15889
2.14332
2.83413
3.09708
2.80295
3.07181
2.84765
3.11304
2.84336
3.10115
3.07077
2.88066
2.13297
2.77061
3.06278
2.7564
3.06626
2.8269
3.09448
2.83089
3.08893
3.03879
2.86107
8621.42
4327.61
4299.21
4351.46
4326.85
4197.12
2499.56
2069.39
2515.85
2079.25
2433.19
2659.52
4161.48
2497.68
2081.96
2514.57
2079.58
2426.63
2661.27
4324.44
4313.82
2546.13
2596.95
2562.66
2603.17
-0.0806355
2.1712
2.12059
2.15684
2.10797
2.14117
2.12283
2.13774
2.12006
2.04678
2.06242
2.68528
3.04669
2.75229
3.01313
2.91538
3.15049
2.95745
3.12803
2.93733
3.04915
2.9068
3.08647
2.67474
3.03368
2.72664
3.00879
2.83472
3.1376
2.84983
3.11186
2.85808
3.00871
2.86352
3.04306
8493.31
4262.12
4182.54
4290.58
4216.4
4331.52
4317.65
4196.69
2490.38
2032.78
2497.79
2061.17
2721.63
2430.78
2704.05
2446.89
2491.72
2579.49
4165.65
2490.68
2046.29
2500.01
2063.86
2723.32
2442.14
2706.92
2462.63
2496.54
2585.19
-0.0711812
2.07018
2.02705
2.05853
2.01203
2.10509
2.07143
2.10202
2.06934
2.02629
2.02867
2.04124
2.04265
2.63328
2.91842
2.60294
2.9639
2.63883
2.93015
2.61208
2.97375
2.81695
3.14478
2.89108
3.11366
2.77005
3.13718
2.81081
3.11819
8127.24
4094.36
4050.84
4120.57
4074.4
4283.51
4193.97
4278.23
4190.46
4204.01
4161.42
2589.12
2038.31
2544.02
2089.16
2711.24
2345.37
2666.5
2419.82
2681.57
2496.28
2652.5
2469.1
2587.71
2059.19
2547.43
2087.68
2709.27
2361.51
2670.53
2418.08
2686.04
2513.51
2659.07
2494.87
-0.133991
-0.0591961
2.04407
2.00965
2.04489
2.00574
2.00728
1.97404
2.02279
1.99314
2.61595
2.90702
2.60807
2.90872
2.64245
2.9185
2.65703
2.92418
2.62532
2.92025
2.61767
2.92109
2.64869
2.92183
2.66234
2.9313
2.68493
3.02919
2.65612
3.08568
2.6797
3.04835
2.66499
3.09809
7737.02
4038.47
3874.95
4057.61
3905.2
4113.93
4057.21
4106.26
4048.11
4185.54
4091.85
4145.78
4060.68
2627.06
2098.67
2626.95
2113.94
2619.09
2081.49
2614.19
2101.85
2765.53
2352.64
2713.76
2393.25
2764.08
2371.54
2718.1
2395.02
-0.124769
1.90838
1.86779
1.92087
1.87246
-0.0223919
1.92601
1.91019
1.9527
1.92754
2.66319
2.90035
2.66419
2.89172
2.66464
2.85479
2.64592
2.88302
2.66927
2.90492
2.66969
2.898
2.67037
2.86514
2.65383
2.88935
2.66602
3.0022
2.66329
2.97617
2.67909
2.96544
2.67484
2.97846
2.66945
3.0139
2.67
2.98047
2.68091
2.96519
2.67662
2.97921
7285.47
7658.98
3967.91
3871.09
3954.85
3861.23
4046.76
3979.28
4012.81
3943.6
2671.42
2087.66
2645.41
2103.19
2549.31
1996.48
2513.04
2028.85
2662.89
2071.34
2633.29
2089.6
2545.89
2004
2513.11
2020.59
2795.2
2364.39
2732.82
2421.24
2792.68
2357.73
2725.13
2419.47
-0.0670837
1.86384
1.85817
1.86247
1.84403
1.88174
1.80924
1.88863
1.83017
0.0073783
2.63929
2.83726
2.64669
2.8502
2.5898
2.83257
2.46331
2.87107
2.64954
2.86153
2.65824
2.87093
2.59913
2.83998
2.46945
2.88787
2.64379
2.92033
2.64933
2.89943
2.64638
2.83507
2.62692
2.86833
2.64543
2.92401
2.65168
2.90233
2.64781
2.84606
2.63126
2.87078
6764.39
7338.31
3761.2
3906.27
3710.27
3798.12
3908.35
3736.78
3859.81
3703.79
2398.25
1988.02
2457.44
1949.4
2365.9
1896.79
2342.5
1925.4
2395.89
1991.28
2456.09
1948.61
2361.62
1897.87
2342.03
1920.48
2920.3
2293.58
2714.03
2397.7
2699.01
2280.86
2669.18
2267.2
2912.85
2283.79
2704.74
2386.05
2694.67
2280.16
2670.35
2254.42
-0.113759
0.0115072
1.82894
1.84998
1.84112
1.851
2.75662
2.77446
2.58219
2.79276
2.56726
2.47473
2.76048
2.3747
2.7999
2.5119
2.75253
2.78516
2.57886
2.77721
2.56264
2.47829
2.75514
2.37419
2.79046
2.5082
0.032858
2.60225
2.80902
2.61539
2.80267
2.58192
2.85374
2.61086
2.82821
2.62202
2.82146
2.58996
2.87212
2.68652
2.87689
2.69457
2.89287
2.6875
2.86933
2.69334
2.88728
6190.84
7066.79
4259.41
5338.92
4015.18
5137.04
3602.04
3896.42
3562.93
3802.25
2283.88
1921.1
2314.47
1897.66
2373.03
1553.44
2240.91
1866.62
2277.54
1883.74
2309.62
1856.79
2370.51
1559.11
2241.72
1842.86
2623.58
2335.85
2672.33
2296.55
2571.5
2271.19
2531.75
2258.52
2620.52
2333.03
2670.95
2295.62
2569.28
2237.02
2528.94
2250.19
0.0252757
1.8102
1.86235
1.82439
1.86878
0.114732
1.79299
1.79225
1.79976
1.80744
2.80815
2.77772
2.65688
2.50157
2.73247
2.4717
2.69057
2.37396
2.75572
2.47939
2.79951
2.77417
2.65405
2.49883
2.72582
2.46774
2.69321
2.37334
2.75181
2.4776
0.0491418
2.69487
2.87736
2.71177
2.84655
2.69761
2.8749
2.69442
2.8731
2.71214
2.84326
2.69654
2.87091
5635.33
6784.6
7679.75
4525.04
5213.7
4267.53
5205.19
1994.56
1967.2
2257.33
1986.31
2203.56
2462.32
2140.18
2257.02
2118.74
2254.14
1908.65
1951.33
2283.19
1974.38
2228.23
2461.16
2132.26
2261.96
2106.4
2274.85
2555.82
2350.99
2505.43
2425.14
2566.31
2344.66
2489.89
2244.95
2482.55
2263.01
2526.03
2201.11
2519.75
2346.78
2490.59
2271.02
2518.48
2318.62
2493.34
2278.57
0.194623
1.93365
1.98575
1.93736
1.97981
1.79392
1.87392
1.79927
1.88568
0.161994
2.426
2.60691
2.44707
2.63988
2.38035
2.69793
2.30423
2.664
2.4243
2.6099
2.44971
2.6393
2.38096
2.69428
2.30542
2.66332
2.80511
2.59
2.70637
2.50629
2.78841
2.52311
2.79171
2.5864
2.69322
2.50228
2.77473
2.51868
0.0521929
5444.01
7337.86
7588.36
4195.64
3923.43
4137.01
3937.3
4349.47
4397.79
4271.02
4298.98
2372.25
2239.58
2365.9
2470.66
2228.89
2254.27
2432.61
2318.93
2483.54
2303.07
2291.54
2233.94
2465.43
2386.35
2225.54
2270.59
2380.25
2335.57
2460.62
2317.16
2595.63
2463.4
2429.08
2645.87
2711.02
2646.25
2469.26
2349.19
2413.72
2472.01
2618.7
2526.96
0.426468
0.318982
2.01845
2.13766
2.03424
2.1393
2.58315
2.63598
2.40079
2.64068
2.41327
2.29063
2.75802
2.38899
2.70189
2.42194
2.56607
2.63236
2.39411
2.62441
2.40639
2.2882
2.7541
2.38704
2.68927
2.41601
0.164
2.35936
2.62279
2.40043
2.58798
2.38282
2.65638
2.35854
2.61903
2.39821
2.58757
2.37982
2.64822
0.0463866
5520.79
8916.04
8626.06
3557.04
3595.74
3600.96
3688.13
3451.14
3302.29
3474.07
3309.04
2263.61
2598.98
2284.61
2606.71
2191.63
2383.64
2281.36
2496.62
2280.48
2551.32
2301.07
2571.98
2206.17
2405.34
2291.5
2481.73
2454.53
2631.61
2616.13
2181.86
2529.58
2188.99
2445.82
2644.56
2597.51
2195.08
2536.24
2201.88
0.673821
2.79209
3.7612
2.78987
3.77203
0.308798
2.03862
2.31348
2.0443
2.319
2.61494
2.57977
2.41931
2.33241
2.60536
2.38273
2.73746
2.42493
2.70026
2.44364
2.58925
2.55437
2.40929
2.32223
2.58788
2.37506
2.72985
2.42342
2.68701
2.43939
0.137884
2.40804
2.64282
2.40101
2.62117
0.0381878
5097.77
8293.03
8155.22
5481.98
3067.16
2646.01
3055.85
2641.35
1782.71
2346.07
1867
1765.31
1867.62
2159.8
1568.47
1861.4
1733.96
1805.42
2414.71
1833.66
1880.76
1795.78
1878.21
2166.31
1625.51
1870.93
1766.18
1816.21
2279.13
2780.89
2291.05
2811.73
2159.96
2681.04
2294.73
2742.08
2302.82
2765.73
2175.49
2668.46
3.28858
0.377475
6.24536
6.97002
6.63112
7.41993
0.240516
2.65189
2.79365
2.58598
2.99736
3.34465
2.65469
2.79909
2.59318
3.00878
3.44531
2.61269
2.41718
2.7164
2.5634
2.67395
2.49647
2.59404
2.41035
2.70498
2.55928
2.65882
2.49015
0.123937
0.0368568
4315.46
7874.73
7371.3
4381.46
2121.41
1904.13
2115.81
1918.56
2825.31
2434.96
2829.18
2437.23
2084.04
1830.39
1788.4
1918.08
1898.26
1758
1676.84
1631.1
1860.03
1669.85
2142.72
1856.59