/*--------------------------------*- C++ -*----------------------------------*\
| =========                 |                                                 |
| \\      /  F ield         | OpenFOAM: The Open Source CFD Toolbox           |
|  \\    /   O peration     | Version:  5.x                                   |
|   \\  /    A nd           | Web:      www.OpenFOAM.org                      |
|    \\/     M anipulation  |                                                 |
\*---------------------------------------------------------------------------*/
FoamFile
{
    version     2.0;
    format      ascii;
    class       surfaceScalarField;
    location    "2.6";
    object      phi;
}
// * * * * * * * * * * * * * * * * * * * * * * * * * * * * * * * * * * * * * //

dimensions      [0 3 -1 0 0 0 0];

internalField   nonuniform List<scalar> 
30582
(
8.62948e-05
2.31682e-06
8.02596e-05
6.03518e-06
8.6349e-05
4.59796e-06
7.0264e-05
9.99554e-06
8.01528e-05
1.22312e-05
8.63753e-05
6.89193e-06
5.61532e-05
1.41107e-05
7.01102e-05
2.00381e-05
8.02313e-05
1.83752e-05
8.58693e-05
9.74934e-06
3.75241e-05
1.86291e-05
5.56585e-05
2.85624e-05
7.03337e-05
2.99357e-05
7.85959e-05
2.56484e-05
8.57874e-05
1.27638e-05
1.6945e-05
2.05791e-05
3.68935e-05
3.73941e-05
5.62841e-05
4.2612e-05
6.79055e-05
4.06261e-05
7.84377e-05
3.2998e-05
8.3694e-05
1.79686e-05
-3.38213e-06
2.03272e-05
1.65994e-05
4.08733e-05
3.78278e-05
5.58504e-05
5.31346e-05
5.73828e-05
6.78398e-05
5.1224e-05
7.34276e-05
4.32644e-05
8.39979e-05
2.29844e-05
-2.31e-05
1.9718e-05
-3.63948e-06
4.05662e-05
1.73002e-05
6.14011e-05
3.48889e-05
7.40962e-05
5.35535e-05
7.16691e-05
6.06455e-05
6.40061e-05
7.376e-05
5.35022e-05
6.9697e-05
4.24337e-05
-4.11412e-05
1.80413e-05
-2.33594e-05
3.94381e-05
-3.32614e-06
6.11927e-05
1.52446e-05
8.10455e-05
3.62207e-05
9.1429e-05
4.61927e-05
8.6122e-05
6.15313e-05
7.62348e-05
5.39839e-05
6.92153e-05
-3.73504e-06
4.59238e-06
-5.63067e-05
1.51655e-05
-4.15585e-05
3.62404e-05
-2.34825e-05
5.95946e-05
-4.89272e-06
8.13301e-05
1.6936e-05
0.00010033
3.12037e-05
0.000106418
4.7494e-05
0.000100159
4.37611e-05
8.64576e-05
-1.03773e-05
7.58575e-05
-0.000365472
0.000367751
-6.72687e-05
1.0962e-05
-5.69683e-05
3.05754e-05
-4.23327e-05
5.50906e-05
-2.49912e-05
7.96931e-05
-3.78738e-06
0.000102054
1.40117e-05
0.000117522
3.30879e-05
0.000120824
3.10809e-05
0.000112839
3.42229e-06
7.2658e-05
-0.00037726
8.7645e-05
0.000135106
0.00023256
-7.31468e-05
5.87813e-06
-6.8156e-05
2.21497e-05
-5.84189e-05
4.66616e-05
-4.43555e-05
7.44549e-05
-2.52448e-05
0.000101151
-5.69698e-06
0.000121762
1.60121e-05
0.000134598
2.12007e-05
0.000130704
5.53655e-06
0.000110725
-0.000410623
0.000106021
0.000175516
4.72357e-05
0.000133212
9.9346e-05
-7.36996e-05
5.52794e-07
-7.4206e-05
1.19281e-05
-7.01454e-05
3.38762e-05
-6.12354e-05
6.35415e-05
-4.61655e-05
9.53757e-05
-2.71544e-05
0.000122608
-4.69757e-06
0.000142472
8.24419e-06
0.000147555
1.04779e-05
0.000125763
-0.0003403
4.0403e-05
-4.46312e-05
0.000326168
0.00016171
1.87383e-05
-0.000126924
0.00022627
-6.90187e-05
-4.68095e-06
-7.48297e-05
1.17645e-06
-7.64508e-05
1.82336e-05
-7.37106e-05
4.63514e-05
-6.4456e-05
8.1832e-05
-4.89694e-05
0.000117191
-2.85267e-05
0.000146437
-8.57042e-06
0.000159287
1.27448e-05
0.000145288
-0.000266441
5.19042e-05
-0.000290288
0.00028606
8.34673e-05
0.00040441
-0.000110674
2.48859e-06
7.65423e-05
0.000149728
-5.97844e-05
-9.23426e-06
-7.0108e-05
-9.40258e-06
-7.69647e-05
1.69041e-06
-8.06635e-05
2.51865e-05
-7.78625e-05
5.97579e-05
-6.88611e-05
0.000101724
-5.33408e-05
0.000142005
-3.01268e-05
0.000167994
8.42193e-06
0.00016361
-0.000206697
8.5543e-05
-0.000493621
0.000255237
3.1757e-05
0.00033777
-3.75978e-05
0.000331334
8.80691e-05
-9.03825e-06
-8.19447e-05
-4.70944e-05
-1.269e-05
-6.08722e-05
-1.84701e-05
-7.21681e-05
-1.41992e-05
-8.13786e-05
2.40553e-06
-8.49877e-05
3.23117e-05
-8.39706e-05
7.48674e-05
-7.58932e-05
0.000124276
-5.48345e-05
0.000166712
-2.26292e-06
0.000178678
-0.000162794
0.000119707
-0.000598337
0.00019026
-1.27359e-05
0.00029973
-6.51958e-06
0.000306692
5.15086e-05
0.000367894
-8.81764e-05
-3.13246e-05
-1.57699e-05
-4.80635e-05
-2.54988e-05
-6.26971e-05
-2.79411e-05
-7.59979e-05
-1.95799e-05
-8.5655e-05
3.07289e-06
-9.25762e-05
4.09173e-05
-9.27195e-05
9.16937e-05
-7.87208e-05
0.000148162
-1.753e-05
0.00018198
-0.000135471
0.000151355
-0.000569247
9.06174e-05
-4.7731e-05
0.000225255
2.29621e-05
0.000270248
3.59788e-05
0.000322221
-4.43458e-05
-1.26181e-05
-1.87065e-05
-3.22206e-05
-3.16128e-05
-4.97571e-05
-3.84389e-05
-6.59025e-05
-3.80365e-05
-8.02616e-05
-2.49733e-05
-9.33303e-05
3.82696e-06
-0.000101854
5.00513e-05
-9.73117e-05
0.000110285
-3.46555e-05
0.000165288
-0.0001217
0.000168209
-0.000519088
0.000101196
-7.96233e-05
0.00012251
3.71623e-05
0.000211055
2.02488e-05
0.000285978
-1.85044e-05
8.91849e-06
-2.15366e-05
-1.35436e-05
-3.73835e-05
-3.39288e-05
-4.74412e-05
-5.26177e-05
-5.17238e-05
-6.97984e-05
-4.84997e-05
-8.64697e-05
-3.1834e-05
-0.000102414
4.38778e-06
-0.000108242
6.09818e-05
-4.98716e-05
0.000125501
-0.000116809
0.000160397
-0.000454492
0.000103612
-8.83163e-05
0.000109889
3.38826e-05
0.000125789
9.00523e-06
0.000222299
1.66624e-06
3.3292e-05
-2.43734e-05
7.96792e-06
-4.30481e-05
-1.52811e-05
-5.60312e-05
-3.66583e-05
-6.34006e-05
-5.60393e-05
-6.54829e-05
-7.42894e-05
-6.06801e-05
-9.49221e-05
-3.93262e-05
-0.000109636
5.78177e-06
-5.93666e-05
7.04767e-05
-0.000111867
0.000120559
-0.000393217
9.91222e-05
-6.49426e-05
8.02388e-05
4.19223e-05
0.000101849
-3.05429e-06
0.000137849
1.1735e-05
6.03736e-05
-2.70816e-05
3.23637e-05
-4.87692e-05
6.17028e-06
-6.44995e-05
-1.8171e-05
-7.45185e-05
-3.99467e-05
-7.94932e-05
-5.9772e-05
-8.00003e-05
-8.18489e-05
-7.37533e-05
-0.000100917
-4.80454e-05
-6.17011e-05
8.11631e-06
-9.95903e-05
5.82001e-05
-0.000340695
6.80368e-05
-5.60328e-05
9.02124e-05
4.88648e-05
7.32962e-05
-1.72326e-05
0.000116028
1.65982e-05
8.97919e-05
-2.94182e-05
5.95516e-05
-5.42695e-05
3.05283e-05
-7.31272e-05
2.98768e-06
-8.56581e-05
-2.14421e-05
-9.30231e-05
-4.37588e-05
-9.55064e-05
-6.67773e-05
-9.50719e-05
-8.68941e-05
-8.77763e-05
-5.75384e-05
-5.22081e-05
-8.0139e-05
-1.13349e-05
-0.000282534
3.91771e-08
-0.000103927
0.000115931
5.20328e-05
8.70444e-05
-2.5604e-05
8.16676e-05
2.50003e-05
0.000120732
-3.09398e-05
8.91926e-05
-5.90592e-05
5.78131e-05
-8.15543e-05
2.74393e-05
-9.75788e-05
-3.73045e-07
-0.000106727
-2.59329e-05
-0.000110849
-5.01139e-05
-0.00011217
-7.12336e-05
-0.000110732
-4.93156e-05
-9.59991e-05
-5.86895e-05
-7.36577e-05
-0.00021611
-7.77595e-05
-0.000170933
6.70456e-05
6.77764e-05
0.000100188
-1.37594e-05
7.51998e-05
2.71519e-05
0.000152075
-3.13435e-05
0.000120461
-6.22078e-05
8.78685e-05
-8.91146e-05
5.50864e-05
-0.000109201
2.36821e-05
-0.000121634
-5.56746e-06
-0.000127093
-3.18756e-05
-0.000129087
-5.49174e-05
-0.000128486
-3.71145e-05
-0.000122934
-3.88543e-05
-0.000115834
-0.000154655
-0.000135113
-0.000197876
-5.08166e-05
8.03784e-05
5.44435e-05
1.51101e-05
7.13181e-05
1.93931e-05
0.000182582
-3.05072e-05
0.000152214
-6.30968e-05
0.00011982
-9.4159e-05
8.58743e-05
-0.000119902
5.13008e-05
-0.00013682
1.8023e-05
-0.000145224
-1.22594e-05
-0.000146709
-3.75991e-05
-0.000146406
-2.51438e-05
-0.000140457
-1.85396e-05
-0.000143248
-0.000108496
-0.000161993
-0.000170958
-0.000162031
8.44688e-05
-5.4907e-05
5.7397e-05
1.21566e-05
8.70058e-06
0.000211099
-2.85168e-05
0.000183132
-6.14252e-05
0.000152396
-9.56733e-05
0.000118913
-0.000127197
8.28687e-05
-0.00015147
4.61249e-05
-0.000164922
1.02296e-05
-0.000167713
-1.76905e-05
-0.000166617
-1.43593e-05
-0.00015719
3.71699e-06
-0.000162713
-7.25142e-05
-0.00017923
-0.000122948
-0.000210003
7.99341e-05
-0.000157496
7.86834e-05
-7.61934e-05
-8.0737e-06
0.000236696
-2.55969e-05
0.000212025
-5.74101e-05
0.000184175
-9.32041e-05
0.000152748
-0.000129509
0.000117362
-0.00016169
7.90363e-05
-0.000184382
3.8961e-05
-0.000193653
5.36161e-06
-0.000190765
9.52443e-07
-0.000181929
2.82019e-05
-0.000181675
-4.54508e-05
-0.000189777
-8.23135e-05
-0.000219865
7.33647e-05
-0.000203434
6.99127e-05
-0.000148726
-1.49431e-05
0.000258773
-2.20772e-05
0.000237917
-5.14889e-05
0.000213812
-8.70475e-05
0.000185856
-0.000126313
0.000153031
-0.000165179
0.000115569
-0.000198222
7.35316e-05
-0.000218952
3.48651e-05
-0.000223157
2.67592e-05
-0.000216572
5.20214e-05
-0.000205749
-1.16627e-05
-0.000215463
-7.74945e-05
-0.000194596
7.64341e-05
-0.000222934
5.57471e-05
-0.000189268
-3.00223e-06
0.000277012
-1.82392e-05
0.000260213
-4.43736e-05
0.00024025
-7.79271e-05
0.000216673
-0.000117864
0.000188036
-0.000161317
0.000153562
-0.000203172
0.000112409
-0.000237099
7.05507e-05
-0.000254638
5.79881e-05
-0.000254386
8.08517e-05
-0.000245402
3.69344e-05
-0.000254346
-0.000117981
-0.000174976
8.46101e-05
-0.000202772
4.7182e-05
-0.000214369
1.20098e-05
0.00029128
-1.42677e-05
0.000278604
-3.66303e-05
0.000262904
-6.70271e-05
0.000244047
-0.000105301
0.000220448
-0.000150276
0.00019101
-0.000198764
0.000153158
-0.000243922
0.000110438
-0.000276987
8.94386e-05
-0.000286089
0.000114439
-0.000287973
6.84072e-05
-0.000276875
-0.000146642
-0.000225685
0.000104421
-0.000194787
5.35348e-05
-0.000209125
2.05219e-05
0.000301556
-1.02759e-05
0.000293018
-2.86812e-05
0.000281558
-5.52843e-05
0.000267351
-9.0332e-05
0.000248882
-0.000133734
0.000225656
-0.000184923
0.000193654
-0.00023926
0.000151691
-0.000285174
0.000120239
-0.000307788
0.000149279
-0.000320929
8.92596e-05
-0.000308825
-0.000105716
-0.000317801
0.00013072
-0.000251984
7.29098e-05
-0.000214162
2.2702e-05
0.000307899
-6.34286e-06
0.000303476
-2.07334e-05
0.00029618
-4.33029e-05
0.000286416
-7.43492e-05
0.000272817
-0.000114267
0.000255705
-0.000163783
0.000231105
-0.000222374
0.000191663
-0.000279233
0.00015194
-0.000316876
0.00018829
-0.000346799
0.000125245
-0.000356914
-4.89618e-05
-0.000365579
0.000132106
-0.000319187
7.94524e-05
-0.000258527
5.37907e-06
0.000310177
-2.27812e-06
0.000309947
-1.28141e-05
0.000306751
-3.13045e-05
0.00030139
-5.82768e-05
0.000292233
-9.37653e-05
0.000280601
-0.000139164
0.000263511
-0.00019619
0.000228704
-0.000259414
0.000184233
-0.000311526
0.000223361
-0.000351947
0.000181139
-0.000402693
-4.22045e-06
-0.000401655
0.000100605
-0.000334079
5.93592e-05
-0.000299093
-1.70975e-05
0.000308563
1.61391e-06
0.000312325
-4.65574e-06
0.000313296
-1.93596e-05
0.000312472
-4.23859e-05
0.000307523
-7.35673e-05
0.000300679
-0.000113843
0.000289425
-0.000165078
0.00026104
-0.000228525
0.00021632
-0.000291501
0.000255365
-0.000343529
0.000242108
-0.000412915
2.11489e-05
-0.000428063
5.8627e-05
-0.000359677
4.42451e-05
-0.000318965
-1.52635e-05
0.000303709
4.8545e-06
0.000310801
3.13787e-06
0.000315969
-7.32879e-06
0.000319577
-2.64646e-05
0.000318891
-5.37534e-05
0.000316469
-8.93572e-05
0.00030892
-0.000133339
0.000286766
-0.000190804
0.000245957
-0.000258163
0.000290332
-0.000326468
0.00029924
-0.000400662
3.16896e-05
-0.000423456
1.99873e-05
-0.000389423
3.25074e-05
-0.000347939
-2.95146e-06
0.000295416
8.29259e-06
0.00030534
1.03154e-05
0.00031447
4.63725e-06
0.00032214
-9.8914e-06
0.00032636
-3.39339e-05
0.000328891
-6.61747e-05
0.000323971
-0.000104408
0.000306044
-0.000152617
0.000272232
-0.000217078
0.000328387
-0.000296219
0.000359113
-0.000386341
3.77852e-05
-0.000406757
-8.19746e-06
-0.000395271
1.51627e-05
-0.000372078
2.1716e-06
0.000284193
1.12229e-05
0.000296714
1.69186e-05
0.000308835
1.59509e-05
0.000320277
6.5001e-06
0.00032967
-1.32014e-05
0.000337523
-4.25663e-05
0.000336502
-7.87051e-05
0.000321003
-0.000119367
0.000292656
-0.000173041
0.00037244
-0.000261131
0.000421847
-0.000358953
3.9433e-05
-0.000387989
-3.69475e-05
-0.000378008
-2.18698e-06
-0.000377922
1.68343e-06
0.000270852
1.33414e-05
0.000285442
2.24946e-05
0.000299775
2.59777e-05
0.00031432
2.19078e-05
0.000328009
8.16132e-06
0.000340702
-1.63801e-05
0.000346426
-5.24901e-05
0.000333984
-9.16866e-05
0.000305711
-0.000132423
0.000423375
-0.000223976
0.000487391
-0.000326675
3.54125e-05
-0.000354932
-7.60166e-05
-0.00034892
-1.37248e-05
-0.00036647
-5.01177e-07
0.000255922
1.49302e-05
0.00027207
2.67131e-05
0.000287913
3.43571e-05
0.000304719
3.55783e-05
0.000321361
2.85561e-05
0.00033859
1.02734e-05
0.000352629
-2.25833e-05
0.00034375
-6.22558e-05
0.000310207
-9.61824e-05
0.000480293
-0.000189341
0.000551679
-0.000288263
2.40697e-05
-0.000315332
-0.000111655
-0.000319294
-1.56646e-05
-0.00034698
-1.18657e-06
1.55766e-05
0.000240345
0.000257076
2.99248e-05
0.00027391
4.07163e-05
0.000292227
4.68495e-05
0.000310601
4.63384e-05
0.000331425
3.57212e-05
0.00035189
1.10118e-05
0.000348275
-2.71081e-05
0.000303126
-5.51748e-05
0.000533339
-0.000149228
0.000606332
-0.000243994
-1.02876e-05
-0.000253906
-0.00013239
-0.000294596
-1.62001e-05
-0.000318759
1.87353e-06
3.15236e-05
0.000241129
3.78626e-05
0.000202482
0.000258358
4.5477e-05
0.000277522
5.54214e-05
0.000296692
6.07579e-05
0.000319841
5.79216e-05
0.000343469
4.41423e-05
0.000344518
1.47685e-05
0.000283698
-7.67968e-06
0.000559945
-8.17806e-05
0.000648867
-0.000191763
-6.4572e-05
-0.000189709
-0.000145008
-0.000241289
-2.36996e-05
-0.000287097
8.85069e-06
4.80737e-05
0.000241808
7.67376e-05
0.000202254
3.24542e-05
0.000170028
0.000261252
6.17471e-05
0.000280509
7.16043e-05
0.000305106
7.54936e-05
0.000329625
7.1766e-05
0.000332435
5.6225e-05
0.000266291
3.21751e-05
0.000537539
1.47255e-05
0.000666589
-9.95023e-05
-0.000118881
-0.000137453
-0.000155496
-0.000179221
-2.72291e-05
-0.000237759
9.33116e-06
6.5484e-05
0.000243841
0.00011701
0.000201536
6.60732e-05
0.000168635
2.25288e-05
0.000147499
0.000262852
7.94049e-05
0.000288041
8.86686e-05
0.000312252
9.28662e-05
0.000315994
8.82079e-05
0.000254146
6.83704e-05
0.000477361
9.23531e-05
0.000643292
3.80223e-05
-0.000137064
-8.13196e-05
-0.000165668
-0.000127282
-2.05854e-05
-0.000185865
-4.09658e-06
8.40825e-05
0.000244253
0.00015973
0.000201121
0.000101201
0.000166408
4.75181e-05
0.000143645
6.2397e-06
0.000141259
0.000269351
9.80949e-05
0.000292593
0.000108328
0.000296812
0.000112048
0.000245097
9.72565e-05
0.000407943
0.000137789
0.000591461
0.000144184
-5.82945e-05
-4.07476e-05
-0.000166651
-8.03364e-05
-4.97669e-06
-0.000142891
-2.56452e-05
0.00010422
0.000249214
0.000204532
0.000199451
0.0001399
0.000162422
7.43814e-05
0.000139544
1.52898e-05
0.000134595
-1.66499e-05
0.000157909
0.000271541
0.000119147
0.000275124
0.000130016
0.000235372
0.000121773
0.000350241
0.000154959
0.000532478
0.000196772
7.76841e-05
8.20564e-06
-0.000150052
-5.73463e-05
8.01834e-06
-9.33312e-05
-4.46685e-05
0.000125855
0.000249905
0.000253895
0.000199852
0.000181357
0.000157994
0.000105423
0.00013138
2.75351e-05
0.000127299
-2.54158e-05
0.000143361
-5.61209e-05
0.00021403
0.000251224
0.000143047
0.000223101
0.000142287
0.00030579
0.000166224
0.000472085
0.000215352
0.000163318
0.000111138
-0.00011977
-2.20758e-05
-1.39264e-05
-3.54012e-05
-5.73736e-05
0.000151613
0.000225466
0.000306664
0.000197136
0.000227941
0.000153267
0.000140324
0.000123093
4.74507e-05
0.000111465
-2.78034e-05
0.000129687
-0.000100116
0.000187356
-6.4587e-05
0.000278617
0.000208004
0.000158144
0.000270179
0.000177898
0.000408003
0.000230305
0.00018368
0.000194991
-8.85029e-05
7.98705e-05
-6.88472e-05
3.28449e-05
-4.9336e-05
0.000168868
0.000190749
0.000369296
0.000162834
0.000278244
0.000146833
0.000181323
0.000112268
7.506e-05
9.54838e-05
-2.02378e-05
0.000103899
-0.000126675
0.000156246
-0.000137673
0.000260442
-0.000107892
0.000386509
0.000241525
0.000186797
0.000345499
0.000240402
0.000164257
0.000249728
-7.20687e-05
0.000178556
-9.28747e-05
0.000103898
-3.31541e-05
0.000194089
0.000216304
0.000419855
0.000140191
0.000333904
0.000107174
0.000227739
0.000100417
0.000111453
7.58753e-05
-4.1423e-06
7.93882e-05
-0.000141487
0.000118711
-0.000217775
0.000236347
-0.000219764
0.000372315
-7.11373e-06
0.000393622
0.000287263
0.000245033
0.000129106
0.000275552
-6.65097e-05
0.000244168
-8.99459e-05
0.000175626
-3.23866e-05
0.000247078
0.000234275
0.000483795
0.000152364
0.000391448
8.26466e-05
0.000282169
5.27441e-05
0.000156206
5.56641e-05
3.42231e-05
3.75099e-05
-0.000132871
7.07721e-05
-0.000283362
0.000184298
-0.000320011
0.000336594
-3.15199e-05
0.000396721
7.6861e-05
0.000316761
8.35644e-05
0.000290575
-7.35335e-05
0.000282577
-8.3519e-05
0.000237742
-3.48446e-05
0.000311457
1.91859e-05
0.000608228
0.000109842
0.00047566
6.81513e-05
0.000346171
1.86443e-05
0.000210992
-2.04162e-06
9.07399e-05
-8.52708e-07
-6.63078e-05
-2.90532e-05
-0.000286764
7.41743e-05
-0.000395667
0.000259953
-8.27888e-05
0.000387863
0.000103152
0.00037043
0.00226162
0.000739432
-0.00268429
-9.63623e-05
0.000313405
-8.62171e-05
0.000285275
-3.69196e-05
0.000354772
-0.000139677
0.000850177
-0.000222763
0.000711187
-0.000125685
0.000458547
-4.4224e-05
0.000277755
-4.8119e-05
0.000154681
-6.59827e-05
3.63397e-05
-0.0001035
-0.000177147
-0.000138671
-0.00042139
9.98974e-05
-0.000199549
0.000376714
0.000122009
0.000369006
0.00181779
0.000814254
0.00291927
0.000990906
-0.00317074
0.000593041
-0.00327733
-0.000104166
0.000331354
-4.2094e-05
0.00039077
-0.000140164
0.0010388
-0.000328301
0.00115601
-0.00066759
0.000736243
-0.000403381
0.000384538
-0.000151006
0.0002162
-0.000109638
0.000129742
-0.000159385
7.9135e-06
-0.00028856
-0.000339968
-0.000220092
-0.000327031
0.000227379
9.97325e-05
0.00039899
0.0014061
0.000780698
0.00268482
0.0010487
0.00289673
0.00125895
-0.00316477
0.000962173
-0.00353988
0.000544319
-0.00382165
-5.23624e-05
-6.95147e-05
0.00118976
-0.000291127
0.00151421
-0.000686501
0.00112276
-0.0010541
0.00047799
-0.000496833
0.000277663
-0.000212469
0.000178163
-0.000158059
0.00016187
-0.000313341
-0.00011755
-0.000510978
-0.000320635
-0.000226489
1.65985e-05
0.000310513
0.00106332
0.000741766
0.00241626
0.00104926
0.00267
0.00127543
0.00268019
0.001483
-0.00290424
0.00130087
-0.00350347
0.000966779
-0.00396233
0.000476478
-0.00429812
-0.000142825
0.00175823
-0.000535147
0.00157267
-0.00113641
0.000514696
-0.00109081
0.000205051
-0.000424221
0.000207182
-0.000241488
0.000169877
-0.000166066
0.000158022
-0.000588913
-0.000185721
-0.000645891
-0.00012192
-8.79707e-05
0.000811167
0.000562669
0.00211529
0.00104274
0.00246491
0.00125434
0.00248554
0.00147008
0.00211747
0.00167116
-0.00230563
0.00156814
-0.0031715
0.0013067
-0.0038434
0.000877154
-0.00436301
0.000397923
-0.00469605
-0.000248091
0.00190462
-0.0008671
0.00075845
-0.00138017
8.58822e-06
-0.000894347
0.000117165
-0.000334204
0.00010393
-0.00017554
0.000315059
-0.000323104
8.79906e-05
-0.000862626
-0.000223267
-0.000544544
0.000456281
0.000266915
0.0017536
0.000924361
0.00224226
0.0012654
0.00229219
0.00144769
0.00200381
0.00158373
0.00142785
0.00186492
-0.00162161
0.00180667
-0.00254416
0.00158244
-0.00344724
0.00121789
-0.00418414
0.000748484
-0.00471357
0.000274638
-0.00497068
-0.000378573
0.000993645
-0.0011023
-7.20875e-05
-0.00129949
-0.000127314
-0.000649868
6.10065e-06
-0.000236375
0.000166368
-2.68493e-05
0.000512054
-0.000747167
-0.00015984
-0.000926052
6.81698e-05
-0.000156433
0.0013322
0.000688313
0.00196624
0.00120038
0.00210695
0.00145064
0.00184386
0.00160765
0.00128102
0.00173056
0.000754881
0.000471164
-0.000789466
0.000470723
0.000478965
0.000478652
0.00192631
-0.00174124
0.00179958
-0.00276131
0.00147974
-0.00370908
0.00101407
-0.00444973
0.000492037
-0.00493097
0.000118834
-0.00508952
-0.000505518
-0.000218273
-0.00095611
-0.00041318
-0.00101363
-0.00013176
-0.000512007
1.60923e-05
-8.60982e-05
0.000563104
-7.78988e-05
0.000143458
-0.00105047
-0.000211635
-0.000646248
0.00081107
0.000364698
0.00162778
0.00102677
0.00188793
0.0014194
0.00165797
0.00163653
0.00122403
0.00166464
0.000606411
0.00187903
-6.71233e-07
5.63201e-05
-6.02942e-05
0.000475809
0.000486353
-0.000849576
0.000485892
0.000507304
0.000506872
5.62777e-05
-6.00687e-05
0.000473843
-4.87185e-07
4.6705e-05
0.000489067
4.71185e-05
0.000487324
0.00189706
-0.00183872
0.00166369
-0.00294526
0.00122246
-0.00391747
0.000670544
-0.00462823
0.000196724
-0.00500886
-7.67168e-05
-0.0050128
-0.00034208
-0.000742274
-0.000627016
-0.000383414
-0.000761974
-8.53806e-05
-0.000410536
0.00035608
0.000120926
0.000725312
-0.000659753
-0.000435653
-0.000826448
0.000305448
-0.000140625
0.00118669
0.000805787
0.00162446
0.00129024
0.00145565
0.00162172
0.0011531
0.00170745
0.000533588
0.00173747
6.39528e-06
5.52954e-06
0.000157461
0.000446091
0.000445184
0.000455898
0.000456295
-6.93932e-07
-6.26702e-05
0.000489422
-3.37319e-07
-3.19163e-05
4.22694e-05
0.000465793
-0.000903687
0.00195117
-6.23113e-05
0.000487441
-6.53025e-07
-4.19544e-05
0.000487241
-4.1356e-05
0.000485263
-3.14007e-05
4.23477e-05
0.000462559
-2.16144e-07
0.000463763
0.000461237
0.00180225
-0.00197728
0.00139992
-0.00312272
0.000812038
-0.00405896
0.000218045
-0.00464955
-0.000207859
-0.00487772
-0.000293078
-0.00471972
-0.000147452
-0.000588748
-0.000421681
-0.000267235
-0.000580118
0.000233835
-0.000288291
0.000896182
-4.99454e-05
9.56358e-05
-0.00119104
-4.7594e-05
-0.000473406
0.00066988
0.000376184
0.00132024
0.00111001
0.00122269
0.0015232
0.00104641
0.00172841
0.000499913
0.00174113
0.00019787
0.000417177
0.000417559
0.000431273
0.000431047
1.88659e-07
-7.818e-05
8.62145e-05
0.000437868
-7.91258e-05
8.7746e-05
0.000436753
-1.75338e-07
-6.5544e-05
0.000443438
-6.60312e-05
0.000443025
-3.76906e-07
5.06424e-05
0.000481426
1.27983e-06
-0.000106206
0.000124652
0.000123439
9.78919e-05
0.000123944
0.000100793
-0.000979143
0.00187771
-5.76263e-05
-5.8649e-05
0.000133616
0.000465946
0.000466244
0.000459729
0.000458598
5.12642e-05
0.000478148
-4.79115e-07
0.000480737
0.000477399
-0.000106664
0.000125607
0.000122785
9.8733e-05
0.000123123
0.000100256
1.09139e-06
0.00012397
9.65157e-05
0.000120854
0.00010134
0.000123339
9.84695e-05
0.00012044
0.000101161
0.00156393
-0.00214129
0.00094745
-0.00325814
0.000229891
-0.00407081
-0.000356604
-0.00450081
-0.000596567
-0.00457423
-0.000469178
-0.00425055
-8.11441e-05
-0.000337184
-0.000351732
6.64044e-05
-0.000412687
0.000776128
-0.000168236
0.000433543
-0.000387852
-0.000416174
-0.000822462
0.000232998
-3.65234e-05
0.000907857
0.000788564
0.000969652
0.00136305
0.000884357
0.00168525
0.000459089
0.00176924
0.000218333
0.000424529
0.000424187
0.0004365
0.000435451
-1.50701e-07
-6.39341e-05
0.000415718
-6.3975e-05
0.000415353
-1.61825e-07
-5.3103e-05
0.000420605
-5.31183e-05
0.000420028
3.93785e-07
-0.000125226
2.91026e-05
4.89575e-05
8.5632e-05
3.02552e-05
0.000109759
9.09903e-05
0.000114947
5.30242e-05
-0.000125291
2.91627e-05
4.89871e-05
3.01606e-05
8.57092e-05
0.000109628
9.0974e-05
0.000114775
5.30412e-05
6.16614e-07
-0.00011245
9.5465e-05
0.000118669
9.60287e-05
0.000119829
-0.000111947
9.58096e-05
0.000118599
9.61159e-05
0.000119774
1.35696e-06
0.000152646
0.000127816
9.72214e-05
0.00012324
0.000103798
4.68568e-05
8.92569e-06
1.52002e-07
-4.5529e-05
0.000113033
-9.2231e-06
-4.74559e-05
4.98965e-05
0.000104674
1.23723e-07
4.968e-05
0.000111774
-4.47877e-05
0.000107051
-0.00108746
0.00167225
0.00019309
0.000458958
0.000459222
0.000449864
0.000450187
-3.24958e-07
-0.000175952
0.000195673
0.00044655
-0.000174952
0.000195102
0.00044577
2.08702e-07
-0.000166812
0.00045038
-0.000166684
0.000450539
0.000153541
0.000127144
9.83942e-05
0.000122693
0.00010334
9.92802e-07
0.000127322
0.00010423
0.000129476
0.00010455
0.000126829
0.000105414
0.000128825
0.000104181
4.68624e-05
8.84946e-06
-4.5538e-05
0.000112763
-8.82614e-06
-4.71323e-05
4.98338e-05
0.000104858
4.96285e-05
0.000111655
-4.47946e-05
0.000106767
-4.31294e-05
9.65214e-06
2.09757e-07
0.000111708
-1.61987e-05
3.91752e-05
0.000102642
2.05491e-07
0.000110276
0.00010538
-4.32473e-05
9.62638e-06
0.000111632
-1.58235e-05
3.95678e-05
0.000103888
0.000110562
0.00010556
0.00111101
-0.00230485
0.000297053
-0.0033253
-0.000486355
-0.00394105
-0.000943215
-0.00415416
-0.00099159
-0.00405182
-0.00064322
-0.00360733
-7.43731e-05
-3.80653e-06
-0.000281521
0.000479494
-0.000116051
0.000411547
-0.000146236
-0.000279714
-0.000524309
-0.00034791
-0.000241554
0.000460997
0.000410337
0.000689367
0.00106885
0.00066996
0.00157745
0.000394267
0.00175007
0.000186049
0.000446549
0.000445903
0.000454812
0.000454256
-9.05587e-08
-4.81691e-05
0.000419686
-4.77882e-05
0.000418767
-8.38586e-08
-3.92917e-05
0.000427706
-3.89043e-05
0.000426484
9.37637e-07
-0.000106523
9.17279e-05
0.000114175
9.01648e-05
0.000112747
-0.000106173
9.23016e-05
0.000114173
9.12493e-05
0.000112781
1.23341e-06
-9.30592e-05
9.02252e-05
0.000112255
9.02842e-05
0.000113151
-9.30228e-05
9.13989e-05
0.000112281
9.13289e-05
0.000113125
-4.65143e-06
-4.10661e-05
3.71815e-05
9.41681e-05
-7.48284e-06
4.6315e-05
9.40649e-05
-4.18856e-05
-6.04591e-08
0.000105503
4.15868e-05
-6.51208e-06
-4.19038e-05
9.83399e-05
6.09909e-09
-4.16631e-05
0.000108225
9.60203e-09
5.34021e-05
0.000102386
-7.51697e-06
4.63082e-05
9.52573e-05
-4.42782e-06
-4.09072e-05
3.66457e-05
9.43985e-05
-4.18206e-05
4.14718e-05
0.000105488
-6.42189e-06
-4.18012e-05
9.82899e-05
-4.16211e-05
0.00010816
5.33989e-05
0.000102697
-7.52421e-06
4.1827e-05
-4.02144e-05
0.000101377
4.15093e-05
2.10683e-08
-4.03399e-05
0.000109953
-7.32116e-06
0.000103273
1.30153e-08
0.000112376
-7.42812e-06
4.17301e-05
-4.00769e-05
0.000101585
4.14493e-05
-4.02165e-05
0.00010996
-7.26229e-06
0.000103307
0.000112353
-5.23022e-05
8.77978e-06
2.29793e-07
5.67773e-05
0.000114332
-9.13601e-06
5.25635e-05
0.000103691
1.77902e-07
0.000111304
5.74698e-05
0.000107671
5.74959e-05
2.46722e-06
-8.08579e-09
-5.67753e-05
0.000109854
-1.95118e-06
-5.70154e-05
5.87832e-05
0.000104858
-8.11957e-08
5.87199e-05
0.00010866
-5.37897e-05
0.000106293
-0.00119235
0.0012159
0.000209926
0.000410369
0.000409804
0.000417471
0.000417765
-2.10916e-07
-0.000205373
0.000219021
0.000445522
-0.00020517
0.000219041
0.00044514
-1.79504e-07
0.000440344
0.00043994
6.85084e-07
-0.00024129
0.000282583
8.6406e-05
0.00011199
9.04495e-05
0.000115687
-0.000241383
0.00028297
8.67449e-05
0.00011187
9.06811e-05
0.000115572
3.51724e-07
-7.02214e-05
-4.98647e-05
0.000105135
-7.70969e-05
0.000130838
9.76538e-05
0.000124613
-5.2335e-05
-7.05791e-05
-4.98506e-05
0.000105718
-7.69083e-05
0.000130895
9.80085e-05
0.000124596
-5.23721e-05
-5.23506e-05
8.82344e-06
5.67709e-05
0.00011413
-8.84973e-06
5.28286e-05
0.000104249
0.000111299
5.72621e-05
0.00010773
5.70116e-05
9.52073e-06
2.75173e-07
0.000117292
-1.69989e-05
-5.99539e-05
0.000110962
3.42389e-07
0.000119264
0.000111587
5.70835e-05
9.73356e-06
0.000117059
-1.70842e-05
-5.96922e-05
0.000111612
0.000119316
0.000111485
5.74648e-05
2.26919e-06
-5.6728e-05
0.00010975
-1.70134e-06
-5.69419e-05
5.87801e-05
0.000104721
5.8728e-05
0.000108609
-5.36792e-05
0.000105774
3.20504e-06
1.65917e-08
0.000105136
0.00010111
3.13104e-06
0.000105188
0.000101321
0.000421687
-0.00242948
-0.000527982
-0.00328367
-0.00125812
-0.00362615
-0.00152715
-0.0036186
-0.00128201
-0.00341303
-0.000747304
-0.00286002
-6.36363e-05
0.000343214
-0.000145242
0.000289045
6.45227e-06
-1.36092e-05
-0.000412337
-0.000550177
-0.000322039
-7.87592e-06
0.000227319
0.00038067
0.000719035
0.000431288
0.00130752
0.000291223
0.00168049
7.23716e-05
0.000462995
0.000462495
0.000469215
0.000469045
-9.49229e-09
-3.42175e-05
0.000441484
-3.38763e-05
0.000440865
-1.35938e-07
-3.39829e-05
0.000454713
-3.37678e-05
0.000454011
1.21284e-06
-8.13062e-05
9.01843e-05
0.000112233
9.16059e-05
0.000112737
-8.18407e-05
9.13573e-05
0.000112166
9.26637e-05
0.000112602
1.05113e-06
-7.41866e-05
9.65877e-05
0.000114649
9.43659e-05
0.000113901
-7.56576e-05
9.76357e-05
0.000114564
9.53207e-05
0.000113803
-7.19384e-06
-4.03315e-05
9.90389e-05
-4.06233e-05
4.28711e-08
0.00010724
-7.59347e-06
-3.88678e-05
9.63003e-05
6.88747e-09
-3.92937e-05
0.000103857
-7.15545e-06
-4.02264e-05
9.96065e-05
-4.0505e-05
0.000107349
-7.37369e-06
-3.87643e-05
9.71609e-05
-3.92046e-05
0.000104103
-7.87746e-06
3.69334e-05
-3.39158e-05
9.50802e-05
3.72079e-05
-3.66306e-08
-3.47538e-05
0.000101983
-7.7987e-06
9.61429e-05
-1.93527e-08
0.000103265
-7.4951e-06
3.69908e-05
-3.42465e-05
9.61497e-05
3.72174e-05
-3.47531e-05
0.000102295
-7.57405e-06
9.71296e-05
0.000103556
-1.99952e-06
3.63736e-05
-7.23373e-07
-3.30032e-05
-3.47257e-05
-1.21061e-08
-5.25814e-08
3.97415e-05
-9.79071e-07
-2.59886e-05
-1.83675e-08
-2.6263e-05
-1.9225e-06
3.65012e-05
-6.90884e-07
-3.30001e-05
3.9764e-05
-3.4715e-05
-9.35274e-07
-2.59865e-05
-2.62671e-05
-1.15995e-06
2.58682e-05
-2.46409e-05
2.57942e-05
-3.71612e-08
-2.45283e-05
-1.03696e-06
-1.87983e-08
-1.08391e-06
2.5859e-05
-2.48027e-05
2.57825e-05
-2.45691e-05
-1.00526e-06
-6.17979e-05
1.97845e-06
-6.08893e-08
6.50628e-05
0.000109165
-1.82496e-06
6.20151e-05
0.000102284
-6.26951e-08
0.000106481
6.62766e-05
0.000105388
3.42614e-05
1.35971e-06
3.51998e-08
-3.61226e-05
-1.08031e-06
-3.42599e-05
3.47516e-05
-1.57384e-08
3.4684e-05
-3.51326e-05
-0.001303
0.000532345
0.000158775
0.000307674
0.000307415
0.000326084
0.000325875
-1.05002e-07
-0.000218754
0.000234911
0.000394317
-0.000219211
0.000235735
0.000393176
-9.65951e-08
0.000417836
0.000417498
1.48013e-06
-0.000324414
0.000331798
9.97974e-05
0.000124962
9.36974e-05
0.000118173
-0.000324892
0.000332228
0.000101145
0.000124901
9.50411e-05
0.00011822
1.05195e-06
8.45236e-05
0.000107987
8.98825e-05
0.00011503
8.50424e-05
0.000107987
9.10659e-05
0.000114963
-8.15987e-06
-7.47271e-05
8.27553e-05
8.65379e-05
-7.44894e-05
-4.77176e-08
8.31081e-05
9.53165e-05
-7.78349e-06
-6.78046e-05
9.13105e-05
-5.85498e-08
-6.74075e-05
0.000100881
-7.95414e-06
-7.45424e-05
8.23484e-05
8.68931e-05
-7.44186e-05
8.29618e-05
9.53253e-05
-7.58647e-06
-6.76761e-05
9.14012e-05
-6.73745e-05
0.000100883
-6.42913e-06
6.38223e-05
-7.68645e-05
0.000124607
-9.97364e-06
-7.13869e-05
0.000115226
6.15981e-05
-6.70702e-08
0.000134249
-7.13302e-05
-7.40474e-06
0.000101076
-4.1332e-08
0.000111441
2.49154e-08
-6.5663e-05
0.000122572
-6.17134e-06
6.37795e-05
-7.71742e-05
0.000125284
-9.95509e-06
-7.11862e-05
0.000115845
6.16005e-05
0.000134401
-7.13453e-05
-7.26254e-06
0.000101374
0.000111518
-6.56565e-05
0.00012267
-6.18177e-05