/*--------------------------------*- C++ -*----------------------------------*\
| =========                 |                                                 |
| \\      /  F ield         | OpenFOAM: The Open Source CFD Toolbox           |
|  \\    /   O peration     | Version:  5.x                                   |
|   \\  /    A nd           | Web:      www.OpenFOAM.org                      |
|    \\/     M anipulation  |                                                 |
\*---------------------------------------------------------------------------*/
FoamFile
{
    version     2.0;
    format      ascii;
    class       volScalarField;
    location    "2.6";
    object      rAU;
}
// * * * * * * * * * * * * * * * * * * * * * * * * * * * * * * * * * * * * * //

dimensions      [-1 3 1 0 0 0 0];

internalField   nonuniform List<scalar> 
12160
(
1.16006e-06
1.16006e-06
1.16005e-06
1.16008e-06
1.16002e-06
1.16003e-06
1.16032e-06
1.16002e-06
1.15998e-06
1.16001e-06
1.16052e-06
1.16023e-06
1.15996e-06
1.15995e-06
1.16e-06
1.16058e-06
1.1604e-06
1.16014e-06
1.15991e-06
1.15991e-06
1.15998e-06
1.16058e-06
1.16048e-06
1.16029e-06
1.16005e-06
1.15985e-06
1.15987e-06
1.15995e-06
1.16058e-06
1.1605e-06
1.16048e-06
1.16017e-06
1.15996e-06
1.15981e-06
1.15982e-06
1.15994e-06
1.16058e-06
1.16053e-06
1.1605e-06
1.1604e-06
1.16006e-06
1.1599e-06
1.15973e-06
1.16718e-06
2.33083e-06
1.16058e-06
1.16053e-06
1.16053e-06
1.16046e-06
1.1604e-06
1.15995e-06
1.15981e-06
1.16552e-06
1.97133e-06
4.0723e-05
1.16053e-06
1.16053e-06
1.16053e-06
1.1605e-06
1.16046e-06
1.16036e-06
1.15989e-06
1.1628e-06
1.85329e-06
2.80295e-05
0.000574278
1.16026e-06
1.16052e-06
1.16053e-06
1.16052e-06
1.1605e-06
1.16055e-06
1.16024e-06
1.1626e-06
1.69911e-06
2.41283e-05
0.000654088
0.00114419
1.16031e-06
1.16042e-06
1.16053e-06
1.16051e-06
1.16052e-06
1.16058e-06
1.16056e-06
1.16311e-06
1.58539e-06
1.63269e-05
0.000773558
0.00115254
0.00115922
1.16056e-06
1.16046e-06
1.16051e-06
1.16051e-06
1.16051e-06
1.16058e-06
1.16058e-06
1.16316e-06
1.4886e-06
1.1813e-05
0.00104185
0.00115634
0.0011598
0.00115941
1.16056e-06
1.16056e-06
1.16056e-06
1.1605e-06
1.16051e-06
1.16058e-06
1.16058e-06
1.16317e-06
1.40617e-06
8.63605e-06
0.000880671
0.00115921
0.00115794
0.00116021
0.00115921
1.16057e-06
1.16056e-06
1.16057e-06
1.16056e-06
1.16052e-06
1.16058e-06
1.16058e-06
1.163e-06
1.34169e-06
6.58614e-06
0.000433734
0.00115869
0.00115854
0.00115815
0.00115998
1.16058e-06
1.16057e-06
1.16058e-06
1.16057e-06
1.16057e-06
1.16057e-06
1.16058e-06
1.16277e-06
1.29801e-06
5.19281e-06
0.000211737
0.00115844
0.00115876
0.0011585
0.00115818
1.16058e-06
1.16058e-06
1.16058e-06
1.16058e-06
1.16057e-06
1.16057e-06
1.16058e-06
1.16256e-06
1.2684e-06
4.22856e-06
0.00012169
0.00115317
0.00115989
0.00115869
0.00115864
1.16058e-06
1.16058e-06
1.16056e-06
1.16058e-06
1.16057e-06
1.16057e-06
1.16058e-06
1.16231e-06
1.24747e-06
3.57692e-06
7.71432e-05
0.00113711
0.00116015
0.00115916
0.00115882
1.16058e-06
1.16058e-06
1.16057e-06
1.16056e-06
1.16058e-06
1.16057e-06
1.16043e-06
1.16197e-06
1.23121e-06
3.11574e-06
5.32294e-05
0.00111342
0.00116008
0.0011597
0.00115916
1.16058e-06
1.16058e-06
1.16058e-06
1.16057e-06
1.16058e-06
1.16058e-06
1.1603e-06
1.16102e-06
1.21896e-06
2.75793e-06
3.87135e-05
0.00108882
0.00116
0.00115981
0.00115968
1.16058e-06
1.16058e-06
1.16058e-06
1.16058e-06
1.16048e-06
1.16058e-06
1.16021e-06
1.16025e-06
1.21056e-06
2.48045e-06
2.89642e-05
0.00104403
0.00116009
0.00115999
0.00115982
1.16059e-06
1.16058e-06
1.16058e-06
1.16058e-06
1.16053e-06
1.16048e-06
1.16014e-06
1.1602e-06
1.20626e-06
2.28367e-06
2.2092e-05
0.000882393
0.00115995
0.00115998
0.00115993
1.16059e-06
1.16059e-06
1.16059e-06
1.16058e-06
1.16058e-06
1.16053e-06
1.16006e-06
1.16032e-06
1.20728e-06
2.17665e-06
1.76453e-05
0.000615763
0.00115954
0.00115995
0.0011599
1.16059e-06
1.16059e-06
1.16059e-06
1.16059e-06
1.16058e-06
1.16058e-06
1.15998e-06
1.16052e-06
1.21547e-06
2.1653e-06
1.54396e-05
0.00042703
0.00115758
0.00116032
0.00115998
1.1606e-06
1.16059e-06
1.16059e-06
1.16059e-06
1.16059e-06
1.16058e-06
1.16039e-06
1.16156e-06
1.23432e-06
2.2811e-06
1.49995e-05
0.00033265
0.00115219
0.00116011
0.0011604
1.1606e-06
1.1606e-06
1.16059e-06
1.16059e-06
1.16059e-06
1.16058e-06
1.16062e-06
1.16475e-06
1.27284e-06
2.55702e-06
1.67222e-05
0.0003016
0.00114311
0.00116002
0.0011592
1.1606e-06
1.1606e-06
1.1606e-06
1.16059e-06
1.16059e-06
1.16059e-06
1.16067e-06
1.16904e-06
1.33235e-06
3.02892e-06
2.19436e-05
0.000318003
0.00113704
0.00115945
0.00115744
1.1606e-06
1.1606e-06
1.1606e-06
1.1606e-06
1.16059e-06
1.16059e-06
1.16075e-06
1.17431e-06
1.4057e-06
3.80658e-06
3.40276e-05
0.000398212
0.00113625
0.00116014
0.00115682
1.16061e-06
1.1606e-06
1.1606e-06
1.1606e-06
1.1606e-06
1.16059e-06
1.16084e-06
1.18058e-06
1.49411e-06
5.09435e-06
5.80346e-05
0.0005393
0.00113867
0.00116037
0.00115686
1.16061e-06
1.16061e-06
1.1606e-06
1.1606e-06
1.1606e-06
1.1606e-06
1.16092e-06
1.18697e-06
1.59995e-06
7.06014e-06
9.68246e-05
0.000680293
0.00114691
0.0011596
0.00115693
1.16059e-06
1.16061e-06
1.16061e-06
1.16061e-06
1.1606e-06
1.1606e-06
1.16098e-06
1.19161e-06
1.70918e-06
9.59174e-06
0.000150309
0.000802247
0.00115295
0.00115889
0.0011571
1.16028e-06
1.16059e-06
1.16061e-06
1.16061e-06
1.16061e-06
1.1606e-06
1.16098e-06
1.19506e-06
1.7985e-06
1.23721e-05
0.000213023
0.000899663
0.0011539
0.00115897
0.00115532
1.15957e-06
1.1606e-06
1.16059e-06
1.16061e-06
1.16061e-06
1.16061e-06
1.16094e-06
1.19582e-06
1.85504e-06
1.48948e-05
0.000267659
0.000975641
0.00115366
0.00115848
0.0011539
1.15956e-06
1.16054e-06
1.1606e-06
1.16059e-06
1.16057e-06
1.16061e-06
1.16088e-06
1.19394e-06
1.87128e-06
1.66104e-05
0.000306968
0.00102094
0.00115362
0.00115798
0.00115315
1.16028e-06
1.16052e-06
1.16057e-06
1.1606e-06
1.16054e-06
1.16042e-06
1.1607e-06
1.19035e-06
1.84732e-06
1.72723e-05
0.000331948
0.00103959
0.00115497
0.00115806
0.00115263
1.16061e-06
1.16057e-06
1.16057e-06
1.16058e-06
1.16059e-06
1.16032e-06
1.16024e-06
1.18607e-06
1.79702e-06
1.68728e-05
0.000342448
0.00105212
0.00115545
0.00115769
0.00115265
1.16061e-06
1.16058e-06
1.16057e-06
1.16056e-06
1.16058e-06
1.1605e-06
1.16022e-06
1.1821e-06
1.73556e-06
1.5816e-05
0.000341597
0.00106232
0.00115654
0.00115864
0.00115221
1.16061e-06
1.16059e-06
1.16058e-06
1.16055e-06
1.16056e-06
1.16059e-06
1.1605e-06
1.17946e-06
1.67996e-06
1.44857e-05
0.000334125
0.00107143
0.00115702
0.00115843
0.00115266
1.16004e-06
1.1606e-06
1.16059e-06
1.16055e-06
1.16055e-06
1.16059e-06
1.16059e-06
1.17723e-06
1.63813e-06
1.32758e-05
0.000322656
0.00108376
0.00115763
0.00115812
0.00115218
1.16003e-06
1.16036e-06
1.1606e-06
1.16055e-06
1.16055e-06
1.16058e-06
1.1604e-06
1.17482e-06
1.60632e-06
1.21568e-05
0.00030787
0.00110927
0.00115793
0.0011585
0.00115241
1.16003e-06
1.16034e-06
1.16053e-06
1.16054e-06
1.16055e-06
1.16056e-06
1.16026e-06
1.17351e-06
1.58752e-06
1.07649e-05
0.000283755
0.00113299
0.00115812
0.00115865
0.00115321
1.15995e-06
1.16034e-06
1.16049e-06
1.16055e-06
1.16054e-06
1.16052e-06
1.16031e-06
1.17309e-06
1.56536e-06
9.19256e-06
0.000236064
0.00114043
0.00115798
0.00115921
0.00115465
1.15995e-06
1.16025e-06
1.16058e-06
1.16049e-06
1.16011e-06
1.16045e-06
1.16046e-06
1.17306e-06
1.54035e-06
7.86808e-06
0.000177041
0.00113251
0.00115823
0.00115919
0.00115656
1.15979e-06
1.16025e-06
1.1605e-06
1.16056e-06
1.1601e-06
1.16005e-06
1.16051e-06
1.1731e-06
1.51654e-06
6.99299e-06
0.000132343
0.00108855
0.00115943
0.00115967
0.00115712
1.15986e-06
1.16006e-06
1.1605e-06
1.1605e-06
1.16021e-06
1.16008e-06
1.16017e-06
1.1732e-06
1.49766e-06
6.45577e-06
0.000107598
0.00103977
0.00116036
0.00116008
0.00115828
1.17276e-06
1.16013e-06
1.16034e-06
1.1605e-06
1.16054e-06
1.16011e-06
1.16008e-06
1.16017e-06
1.48502e-06
6.13477e-06
9.53518e-05
0.00100073
0.00115983
0.00116023
0.00115939
1.47917e-06
1.17333e-06
1.16066e-06
1.16038e-06
1.16053e-06
1.16057e-06
1.16021e-06
1.16005e-06
1.15945e-06
5.95177e-06
8.99332e-05
0.000980613
0.00116002
0.00115951
0.0011603
5.86758e-06
1.48349e-06
1.17547e-06
1.16103e-06
1.16047e-06
1.16058e-06
1.1605e-06
1.16031e-06
1.15942e-06
1.15741e-06
8.78973e-05
0.000978901
0.00115992
0.00115958
0.00115944
8.72369e-05
5.86658e-06
1.51676e-06
1.17909e-06
1.16184e-06
1.16059e-06
1.16058e-06
1.16054e-06
1.15933e-06
1.15737e-06
1.15687e-06
0.000984957
0.00115997
0.00115921
0.0011586
0.000988865
8.66913e-05
6.11469e-06
1.57079e-06
1.18565e-06
1.16337e-06
1.1612e-06
1.1607e-06
1.15941e-06
1.1583e-06
1.15662e-06
1.15795e-06
0.00116005
0.00115892
0.00115787
0.00116039
0.000985701
8.47913e-05
6.47938e-06
1.6443e-06
1.19477e-06
1.17179e-06
1.16402e-06
1.16029e-06
1.15933e-06
1.15791e-06
1.15755e-06
1.15924e-06
1.16011e-06
0.00115862
0.00115726
0.00115912
0.00116003
0.000886615
7.7217e-05
6.95949e-06
1.7401e-06
1.21286e-06
1.19399e-06
1.16279e-06
1.15932e-06
1.15861e-06
1.1577e-06
1.1592e-06
1.159e-06
1.15923e-06
1.16013e-06
0.00115664
0.00115655
0.00115939
0.00114756
0.000524504
7.53115e-05
7.92849e-06
1.85867e-06
1.27576e-06
1.19848e-06
1.15929e-06
1.15828e-06
1.15785e-06
1.15922e-06
1.15748e-06
1.15875e-06
1.15892e-06
1.15914e-06
1.16009e-06
0.0011561
0.0011586
0.000919411
0.000385203
8.94822e-05
9.42067e-06
1.9793e-06
1.3842e-06
1.16815e-06
1.15962e-06
1.15854e-06
1.15924e-06
1.15722e-06
1.15723e-06
1.15876e-06
1.15893e-06
1.15888e-06
1.15898e-06
1.15497e-06
0.00115402
0.00109893
0.00068292
0.000415455
0.000113874
1.03489e-05
2.17221e-06
1.37754e-06
1.15728e-06
1.15933e-06
1.15925e-06
1.15734e-06
1.15669e-06
1.15886e-06
1.15505e-06
1.15894e-06
1.15891e-06
1.15884e-06
1.15889e-06
1.152e-06
0.00114802
0.000963493
0.000711821
0.000649814
0.000136031
8.87476e-06
3.26273e-06
1.26378e-06
1.15862e-06
1.15922e-06
1.15927e-06
1.1564e-06
1.15733e-06
1.15923e-06
1.15374e-06
1.15488e-06
1.15895e-06
1.15903e-06
1.15906e-06
1.15817e-06
1.15627e-06
0.00113036
0.0009722
0.00102487
0.000967792
0.000124822
1.45049e-05
3.97126e-06
1.18015e-06
1.15904e-06
1.15927e-06
1.1579e-06
1.15695e-06
1.15834e-06
1.15448e-06
1.13596e-06
1.15848e-06
1.13597e-06
1.13594e-06
1.13595e-06
1.15898e-06
1.15947e-06
1.16031e-06
1.15929e-06
1.15724e-06
1.16003e-06
0.00112956
0.00111628
0.00112893
0.0010372
0.000125512
5.08432e-05
1.84965e-06
1.15838e-06
1.15913e-06
1.15833e-06
1.1579e-06
1.15706e-06
1.15576e-06
1.16171e-06
1.13519e-06
1.13184e-06
1.15879e-06
1.13522e-06
1.13606e-06
1.13608e-06
1.13184e-06
1.13418e-06
1.13414e-06
1.1592e-06
1.16203e-06
1.16299e-06
1.16014e-06
1.15894e-06
1.16006e-06
0.00114012
0.00114717
0.00114656
0.000967128
0.000436241
9.80937e-05
1.24286e-06
1.1586e-06
1.15865e-06
1.15835e-06
1.15776e-06
1.15541e-06
1.16212e-06
1.13394e-06
1.13383e-06
1.13468e-06
1.13462e-06
1.12935e-06
1.13841e-06
1.15916e-06
1.16487e-06
1.12945e-06
1.13093e-06
1.13103e-06
1.13836e-06
1.13358e-06
1.13354e-06
1.16081e-06
1.16355e-06
1.16341e-06
1.1606e-06
1.15892e-06
1.16025e-06
0.00114646
0.00115288
0.00115073
0.00109759
0.00101768
1.37644e-05
1.16555e-06
1.15875e-06
1.15868e-06
1.15903e-06
1.15597e-06
1.1617e-06
1.13704e-06
1.13708e-06
1.13797e-06
1.13805e-06
1.13987e-06
1.13987e-06
1.13132e-06
1.13135e-06
1.14281e-06
1.00525e-06
1.07371e-06
1.01516e-06
1.07329e-06
1.15946e-06
1.16339e-06
1.13882e-06
1.13827e-06
1.14392e-06
1.14261e-06
1.14306e-06
1.14195e-06
1.14169e-06
1.00719e-06
1.07514e-06
1.01584e-06
1.0776e-06
1.00704e-06
1.0765e-06
1.02299e-06
1.07476e-06
1.00707e-06
1.07651e-06
1.02285e-06
1.07472e-06
1.16313e-06
1.1635e-06
1.16178e-06
1.15904e-06
1.15918e-06
1.16068e-06
0.00115179
0.00115325
0.00115377
0.00115013
0.00107893
4.07279e-06
1.15871e-06
1.1588e-06
1.15913e-06
1.1564e-06
1.16119e-06
1.13917e-06
1.1392e-06
1.13946e-06
1.13958e-06
1.13815e-06
1.13821e-06
1.14331e-06
1.14335e-06
1.03829e-06
1.06172e-06
1.04525e-06
1.04976e-06
1.04024e-06
1.02134e-06
1.06394e-06
1.03855e-06
1.04374e-06
1.05051e-06
1.0402e-06
1.02115e-06
1.08929e-06
1.0274e-06
1.07522e-06
1.03565e-06
1.08568e-06
1.02698e-06
1.07666e-06
1.03561e-06
1.01941e-06
1.07171e-06
1.0182e-06
1.0658e-06
1.02048e-06
1.096e-06
1.04199e-06
1.09447e-06
1.16025e-06
1.16202e-06
1.13381e-06
1.13387e-06
1.13681e-06
1.13694e-06
1.14226e-06
1.14145e-06
1.1356e-06
1.13486e-06
1.02359e-06
1.07633e-06
1.02082e-06
1.0734e-06
1.00896e-06
1.05939e-06
9.95503e-07
1.06171e-06
1.00976e-06
1.07902e-06
9.95004e-07
1.08152e-06
1.0245e-06
1.09617e-06
1.04566e-06
1.09474e-06
1.00778e-06
1.0761e-06
1.00781e-06
1.07871e-06
1.16225e-06
1.16019e-06
1.15909e-06
1.15875e-06
1.1598e-06
1.16126e-06
0.00115827
0.00115418
0.00115318
0.00115544
0.000936117
2.40007e-06
1.15934e-06
1.15864e-06
1.1581e-06
1.16221e-06
1.13939e-06
1.13936e-06
1.13866e-06
1.13869e-06
1.14136e-06
1.14116e-06
1.14082e-06
1.14061e-06
1.08076e-06
1.03147e-06
1.08976e-06
1.03912e-06
1.08098e-06
1.03236e-06
1.09709e-06
1.04009e-06
1.09216e-06
1.02863e-06
1.08751e-06
1.03985e-06
1.09191e-06
1.02904e-06
1.09432e-06
1.04053e-06
1.06765e-06
7.74701e-07
9.02806e-07
1.03713e-06
9.6836e-07
1.00642e-06
1.06757e-06
7.75523e-07
1.03706e-06
8.98947e-07
9.71111e-07
1.00755e-06
1.08746e-06
1.02837e-06
1.04559e-06
1.01016e-06
1.08373e-06
1.02783e-06
1.04728e-06
1.01018e-06
1.03795e-06
1.08084e-06
1.03962e-06
1.07414e-06
1.03068e-06
1.07061e-06
1.02961e-06
1.01337e-06
1.16008e-06
1.16192e-06
1.13573e-06
1.13586e-06
1.13365e-06
1.13367e-06
1.13872e-06
1.13858e-06
1.14366e-06
1.14369e-06
1.08254e-06
1.02509e-06
1.07023e-06
1.02908e-06
1.08378e-06
1.02519e-06
1.07044e-06
1.02907e-06
1.11894e-06
1.04954e-06
1.03136e-06
1.07029e-06
1.04734e-06
9.82436e-07
1.11757e-06
1.05378e-06
1.03153e-06
1.07369e-06
1.04739e-06
9.81577e-07
1.03997e-06
1.08856e-06
1.0416e-06
1.0828e-06
1.01991e-06
1.07374e-06
1.02006e-06
1.07931e-06
1.04614e-06
1.08144e-06
1.04566e-06
1.02101e-06
1.02906e-06
1.10283e-06
1.0296e-06
1.10257e-06
1.15942e-06
1.15905e-06
1.15891e-06
1.1595e-06
1.16081e-06
1.16156e-06
0.00115692
0.0011529
0.00115684
0.00114588
0.000847881
2.47769e-06
1.16196e-06
1.15721e-06
1.1586e-06
1.13787e-06
1.1379e-06
1.13864e-06
1.13837e-06
1.13533e-06
1.13533e-06
1.13289e-06
1.13296e-06
1.09147e-06
1.03058e-06
1.09117e-06
1.03721e-06
1.09117e-06
1.03105e-06
1.09125e-06
1.03751e-06
1.08538e-06
1.0102e-06
1.07541e-06
1.02493e-06
1.09095e-06
1.0102e-06
1.07892e-06
1.02488e-06
1.06025e-06
1.03938e-06
1.06389e-06
1.05135e-06
1.08174e-06
1.04134e-06
1.09176e-06
1.05303e-06
1.09135e-06
1.03804e-06
1.05994e-06
1.04419e-06
1.09618e-06
1.03858e-06
1.0734e-06
1.04511e-06
1.05676e-06
1.10726e-06
1.05905e-06
1.1031e-06
1.15937e-06
1.16091e-06
1.13829e-06
1.13831e-06
1.13624e-06
1.13641e-06
1.1379e-06
1.13765e-06
1.13755e-06
1.1369e-06
1.07994e-06
1.01713e-06
1.08646e-06
1.02222e-06
1.08093e-06
1.0165e-06
1.08667e-06
1.0221e-06
1.09131e-06
1.0101e-06
1.08937e-06
1.02549e-06
1.09141e-06
1.01019e-06
1.08966e-06
1.02536e-06
1.04496e-06
1.01219e-06
1.08225e-06
1.01639e-06
1.04506e-06
1.01218e-06
1.0833e-06
1.01633e-06
1.03241e-06
1.04043e-06
9.53369e-07
9.98829e-07
1.06244e-06
1.02775e-06
1.03269e-06
1.04065e-06
9.54034e-07
9.98198e-07
1.07146e-06
1.02792e-06
1.05706e-06
1.10938e-06
1.05952e-06
1.10296e-06
1.02859e-06
1.06681e-06
1.02899e-06
1.08094e-06
1.15919e-06
1.15905e-06
1.16195e-06
1.16105e-06
1.16242e-06
1.16146e-06
0.00115575
0.00115652
0.0011546
0.00114685
0.000867193
3.70585e-06
1.21989e-06
1.16625e-06
1.16231e-06
1.12736e-06
1.12745e-06
1.12999e-06
1.12989e-06
1.14211e-06
1.14287e-06
1.13732e-06
1.13736e-06
1.0946e-06
1.03327e-06
1.09453e-06
1.04549e-06
1.09524e-06
1.03387e-06
1.09462e-06
1.04576e-06
1.05886e-06
1.01287e-06
1.06213e-06
1.02661e-06
1.06489e-06
1.0173e-06
1.06546e-06
1.02645e-06
1.0263e-06
1.01127e-06
1.02151e-06
1.01114e-06
1.15934e-06
1.15946e-06
1.13642e-06
1.13654e-06
1.13671e-06
1.13679e-06
1.13903e-06
1.13903e-06
1.13394e-06
1.13342e-06
1.06477e-06
9.69966e-07
1.05767e-06
9.86274e-07
1.03651e-06
9.69431e-07
1.03506e-06
9.86659e-07
1.07483e-06
1.01468e-06
1.07446e-06
1.01718e-06
1.07262e-06
1.01387e-06
1.07625e-06
1.01756e-06
1.08108e-06
1.00084e-06
1.08689e-06
9.92558e-07
1.07977e-06
1.01197e-06
1.08692e-06
1.0055e-06
1.07195e-06
9.97336e-07
1.08778e-06
1.01968e-06
1.07017e-06
9.97379e-07
1.08786e-06
1.01871e-06
1.15689e-06
1.16022e-06
1.17554e-06
1.16243e-06
1.16402e-06
1.16117e-06
0.0011564
0.00115565
0.00115266
0.00114381
0.00079326
9.65464e-06
1.54066e-06
1.22489e-06
1.12335e-06
1.12346e-06
1.14086e-06
1.14106e-06
1.13204e-06
1.13187e-06
1.12302e-06
1.12273e-06
1.02581e-06
1.08164e-06
1.0459e-06
1.07672e-06
1.02606e-06
1.08424e-06
1.04623e-06
1.08148e-06
1.00523e-06
1.07338e-06
1.01929e-06
1.05888e-06
1.00505e-06
1.08878e-06
1.01921e-06
1.07672e-06
1.04806e-06
1.04195e-06
1.09097e-06
1.06263e-06
1.04518e-06
1.04029e-06
1.08882e-06
1.06184e-06
1.08234e-06
1.04725e-06
1.09371e-06
1.06344e-06
1.0836e-06
1.04666e-06
1.09214e-06
1.0636e-06
1.15862e-06
1.15954e-06
1.15179e-06
1.12402e-06
1.12366e-06
1.13973e-06
1.13969e-06
1.13817e-06
1.13913e-06
1.12697e-06
1.12669e-06
1.03446e-06
9.72729e-07
1.07209e-06
1.01601e-06
1.03524e-06
9.73664e-07
1.07591e-06
1.01668e-06
1.0707e-06
1.01486e-06
1.08584e-06
1.03082e-06
1.06983e-06
1.01366e-06
1.08568e-06
1.03124e-06
9.28555e-07
9.96545e-07
9.27629e-07
9.96163e-07
1.1562e-06
1.21348e-06
1.21968e-06
1.16222e-06
1.16511e-06
1.1609e-06
0.0011548
0.00115375
0.00112665
0.000778216
0.000166084
4.05108e-05
3.06224e-06
1.50897e-06
1.14025e-06
1.14028e-06
1.15292e-06
1.15312e-06
1.08405e-06
1.01524e-06
1.01741e-06
1.08933e-06
1.08626e-06
1.01519e-06
1.01751e-06
1.08948e-06
1.14298e-06
1.14522e-06
1.01035e-06
1.04823e-06
1.02623e-06
1.0794e-06
1.0104e-06
1.05048e-06
1.02669e-06
1.07974e-06
1.03509e-06
1.09233e-06
1.03989e-06
1.10387e-06
1.035e-06
1.08991e-06
1.03977e-06
1.10387e-06
1.02887e-06
9.47862e-07
1.02916e-06
9.46597e-07
1.1596e-06
1.15891e-06
1.16017e-06
1.12919e-06
1.12892e-06
1.13049e-06
1.13073e-06
1.13513e-06
1.13573e-06
1.13536e-06
1.13595e-06
1.03143e-06
1.07579e-06
1.02984e-06
1.06401e-06
1.03199e-06
1.07917e-06
1.03052e-06
1.06249e-06
1.02891e-06
1.06199e-06
1.0237e-06
1.09309e-06
1.0291e-06
1.06113e-06
1.02407e-06
1.09299e-06
1.08744e-06
1.02646e-06
1.08528e-06
1.02711e-06
1.0879e-06
1.02768e-06
1.08499e-06
1.02845e-06
1.06393e-06
1.01846e-06
1.08209e-06
1.03197e-06
1.06539e-06
1.01755e-06
1.08197e-06
1.03167e-06
1.24675e-06
1.65416e-06
1.23602e-06
1.16019e-06
1.16277e-06
0.00115254
0.00113968
0.000695584
0.000161162
4.77674e-05
1.36261e-05
8.02686e-06
1.68691e-06
1.68714e-06
2.78688e-06
2.78912e-06
1.06278e-06
9.926e-07
1.08592e-06
1.01003e-06
1.06501e-06
9.92442e-07
1.09057e-06
1.00996e-06
1.18269e-06
1.1825e-06
1.0697e-06
1.01442e-06
1.01137e-06
1.06654e-06
1.06532e-06
1.01436e-06
1.01143e-06
1.06222e-06
1.07753e-06
9.91822e-07
1.09256e-06
1.02068e-06
1.07544e-06
1.01203e-06
1.08462e-06
1.02337e-06
9.66116e-07
1.09082e-06
1.04199e-06
1.00574e-06
9.66133e-07
1.09086e-06
1.04195e-06
1.00574e-06
1.20715e-06
1.15889e-06
1.1596e-06
1.14752e-06
1.11913e-06
1.1202e-06
1.14155e-06
1.14139e-06
1.12389e-06
1.12352e-06
1.05369e-06
9.84741e-07
9.54878e-07
1.06525e-06
1.05435e-06
9.85543e-07
9.53992e-07
1.06604e-06
1.04174e-06
1.08994e-06
1.04387e-06
1.09095e-06
1.04406e-06
1.09128e-06
1.04464e-06
1.09082e-06
1.01626e-06
1.05514e-06
9.97064e-07
1.0719e-06
1.01688e-06
1.05825e-06
9.97287e-07
1.07184e-06
1.01674e-06
9.73617e-07
1.01626e-06
9.72721e-07
2.30007e-06
1.97456e-06
1.15986e-06
1.15819e-06
0.00114826
0.000908467
0.000209005
5.891e-05
1.98204e-05
6.81031e-06
7.80407e-06
7.76839e-06
4.05638e-06
4.04905e-06
2.14907e-06
2.14669e-06
4.51753e-06
4.50108e-06
1.07686e-06
9.94396e-07
1.09088e-06
1.00712e-06
1.0779e-06
9.94194e-07
1.09514e-06
1.00698e-06
1.02267e-06
1.42264e-06
1.0804e-06
1.29644e-06
1.02323e-06
1.46947e-06
1.0792e-06
1.29719e-06
1.07078e-06
1.0173e-06
1.01926e-06
1.08132e-06
1.06764e-06
1.01734e-06
1.01905e-06
1.07876e-06
1.09586e-06
1.02012e-06
1.08799e-06
1.02331e-06
1.09821e-06
1.02542e-06
1.05222e-06
1.01398e-06
1.67726e-06
1.16159e-06
1.15937e-06
1.15118e-06
1.11631e-06
1.11684e-06
1.12197e-06
1.12145e-06
1.11635e-06
1.11593e-06
1.0785e-06
9.86754e-07
1.06017e-06
9.71888e-07
1.07782e-06
9.88181e-07
1.06056e-06
9.72237e-07
1.06846e-06
1.02831e-06
1.06621e-06
1.04026e-06
1.0259e-06
9.86261e-07
1.06894e-06
1.02888e-06
1.06667e-06
1.04033e-06
1.02606e-06
9.84984e-07
1.06635e-06
1.02323e-06
1.06489e-06
1.02343e-06
1.00229e-06
1.05864e-06
1.01717e-06
1.04415e-06
1.00247e-06
1.05894e-06
1.01787e-06
1.04441e-06
3.02292e-06
1.21181e-06
1.15517e-06
0.00112294
0.000499456
0.000138849
6.1176e-05
1.84019e-05
5.65776e-06
5.37568e-06
5.36095e-06
3.3588e-06
3.35502e-06
2.68534e-06
1.52538e-06
2.36888e-06
3.65032e-06
2.19845e-06
1.14973e-06
1.57938e-06
2.68437e-06
1.14822e-06
2.36436e-06
3.6605e-06
2.19431e-06
1.11113e-05
6.48664e-06
8.49983e-06
5.10577e-06
1.08655e-05
6.43871e-06
8.39106e-06
5.07059e-06
1.11546e-06
9.99705e-07
1.13691e-06
1.01785e-06
1.11415e-06
9.99616e-07
1.13669e-06
1.01908e-06
1.01053e-06
1.35391e-06
1.01015e-06
1.35514e-06
9.78388e-07
1.04488e-06
9.56506e-07
9.83509e-07
9.94039e-07
9.16199e-07
9.91922e-07
9.16039e-07
3.00958e-06
1.2435e-06
1.1598e-06
1.15968e-06
1.10232e-06
1.09976e-06
1.11138e-06
1.11196e-06
1.11862e-06
1.11931e-06
1.10178e-06
1.10183e-06
9.85534e-07
1.03499e-06
9.67016e-07
1.06353e-06
9.7508e-07
1.01201e-06
9.86598e-07
1.03902e-06
9.66495e-07
1.06093e-06
9.74788e-07
1.01127e-06
1.07195e-06
1.01358e-06
1.06914e-06
1.01317e-06
1.06832e-06
1.02826e-06
1.04718e-06
1.07922e-06
1.0054e-06
1.04238e-06
1.06897e-06
1.0283e-06
1.05058e-06
1.07903e-06
1.00513e-06
1.04243e-06
1.06614e-06
1.02587e-06
1.06671e-06
1.02619e-06
1.62391e-06
1.17196e-06
0.00104664
0.000492004
0.000305182
0.00018686
7.08975e-05
5.71054e-06
5.66373e-06
2.11563e-05
2.10394e-05
4.69675e-06
4.73303e-06
3.27413e-06
3.27248e-06
1.9056e-06
3.53231e-06
2.93726e-06
1.41545e-06
6.74893e-06
5.30128e-06
1.90544e-06
3.45461e-06
1.41299e-06
2.94392e-06
6.73987e-06
5.31664e-06
1.3087e-05
1.20045e-05
1.15522e-05
8.53718e-06
1.3337e-05
1.16714e-05
1.14223e-05
8.52074e-06
1.20116e-06
1.01932e-06
1.20154e-06
1.01918e-06
2.37005e-06
2.43427e-06
1.1784e-06
1.16046e-06
1.15065e-06
1.10295e-06
1.10491e-06
1.13424e-06
1.13458e-06
9.81918e-07
9.54666e-07
1.03486e-06
9.86662e-07
9.79511e-07
9.54708e-07
1.03521e-06
9.87234e-07
1.03119e-06
9.93869e-07
9.67361e-07
1.04238e-06
9.82614e-07
9.58786e-07
1.03058e-06
9.94637e-07
9.69529e-07
1.04313e-06
9.85085e-07
9.59008e-07
9.77288e-07
1.01842e-06
1.031e-06
1.06606e-06
9.78524e-07
1.01961e-06
1.03252e-06
1.06411e-06
1.01694e-06
9.87755e-07
1.01707e-06
9.87734e-07
1.05155e-06
9.01896e-07
1.01339e-06
9.4574e-07
1.05223e-06
9.02442e-07
1.01487e-06
9.46758e-07
1.20251e-06
0.00107722
0.000795843
0.000688182
0.000365136
6.78997e-05
4.73898e-06
4.69866e-06
1.47067e-05
1.46177e-05
2.27511e-06
9.88899e-06
2.89928e-06
4.81396e-06
2.27892e-06
1.07902e-05
2.97462e-06
5.12193e-06
3.10606e-06
3.1048e-06
1.32307e-05
1.11135e-05
1.11782e-05
1.27574e-05
1.35e-05
1.16077e-05
1.11614e-05
1.2765e-05
1.21719e-06
1.56514e-06
1.25115e-06
1.19674e-06
1.1621e-06
1.09815e-06
1.09972e-06
1.12188e-06
1.12259e-06
1.11486e-06
1.11973e-06
1.09937e-06
1.09904e-06
9.97204e-07
9.62333e-07
1.04067e-06
9.85156e-07
9.9227e-07
9.61576e-07
1.03992e-06
9.84899e-07
9.77211e-07
1.02172e-06
8.64938e-07
8.62934e-07
1.03537e-06
9.20222e-07
9.76625e-07
1.00372e-06
8.70439e-07
8.65491e-07
1.03479e-06
9.20231e-07
9.97294e-07
1.03523e-06
9.97541e-07
1.036e-06
0.00111756
0.00103856
0.000998645
0.000393445
5.13033e-05
5.09422e-05
0.000127653
0.000127133
4.85692e-06
4.82068e-06
1.53392e-05
1.53056e-05
2.2893e-06
4.95673e-06
2.27988e-06
3.69486e-06
2.29271e-06
5.39312e-06
2.34313e-06
3.76925e-06
4.10962e-06
2.40492e-06
3.79015e-06
2.2445e-06
4.11324e-06
2.3998e-06
3.80213e-06
2.24372e-06
8.75885e-06
3.45044e-06
9.61518e-06
4.04604e-06
1.20438e-06
1.19439e-06
1.18407e-06
1.27725e-06
1.15683e-06
1.06305e-06
1.07928e-06
1.10705e-06
1.12316e-06
1.08321e-06
1.08526e-06
9.31773e-07
1.04233e-06
9.63731e-07
9.5922e-07
9.32102e-07
1.04144e-06
9.63882e-07
9.59627e-07
1.04235e-06
9.85242e-07
9.86172e-07
8.29076e-07
1.04225e-06
9.86047e-07
9.86614e-07
8.29772e-07
0.00112417
0.0011313
0.00109668
0.000324321
4.25031e-05
4.21982e-05
0.000106379
0.000106487
3.7112e-06
2.3455e-06
5.87765e-06
4.80361e-06
2.45915e-06
7.60484e-06
3.70893e-06
2.34691e-06
5.85465e-06
4.80481e-06
2.45564e-06
7.58707e-06
1.59841e-05
1.59557e-05
2.3028e-06
4.30801e-06
2.25605e-06
3.59412e-06
2.30787e-06
4.53431e-06
2.30123e-06
3.64764e-06
3.26141e-06
2.21561e-06
3.26822e-06
2.21473e-06
1.16734e-06
1.16846e-06
1.22262e-06
1.29889e-06
1.11613e-06
1.11504e-06
1.11056e-06
1.11189e-06
1.09284e-06
1.09394e-06
1.09824e-06
1.09808e-06
9.75386e-07
9.45511e-07
1.03696e-06
9.58393e-07
9.72814e-07
9.39671e-07
9.71743e-07
9.45323e-07
1.03717e-06
9.59416e-07
9.71796e-07
9.4033e-07
1.02507e-06
9.56794e-07
1.02527e-06
9.57127e-07
1.00727e-06
9.50963e-07
1.00817e-06
9.5223e-07
0.00112158
0.00114197
0.00108473
0.00047306
0.000474914
0.00067838
0.000677867
4.0337e-05
4.0184e-05
0.000134867
0.000137174
3.61722e-06
2.10564e-06
5.62196e-06
4.45144e-06
2.70492e-06
7.0841e-06
3.62147e-06
2.10794e-06
5.62141e-06
4.44356e-06
2.70746e-06
7.06377e-06
2.78435e-05
2.84267e-05
1.46892e-05
1.10053e-05
2.71571e-05
2.77558e-05
1.45604e-05
1.08824e-05
1.15599e-06
1.16926e-06
1.30575e-06
1.25581e-06
1.07551e-06
1.09387e-06
1.10925e-06
1.12393e-06
1.07748e-06
1.07735e-06
9.81495e-07
9.43413e-07
9.45164e-07
1.02168e-06
9.39196e-07
9.53756e-07
9.45575e-07
1.02063e-06
9.39852e-07
9.5383e-07
9.73999e-07
9.43818e-07
1.04336e-06
1.01377e-06
9.78295e-07
9.52441e-07
1.04124e-06
1.01063e-06
9.77766e-07
9.53343e-07
9.93264e-07
8.70422e-07
9.9155e-07
8.64932e-07
0.00112212
0.00115719
0.000769614
0.000419768
0.000418471
0.000548262
0.000547901
2.39114e-05
1.39923e-05
0.000112101
3.65176e-05
3.15487e-05
9.65516e-05
2.35112e-05
1.36498e-05
0.000115639
3.64101e-05
3.23198e-05
9.93697e-05
0.000232755
0.000236681
4.19706e-06
7.97047e-06
4.18619e-06
7.92823e-06
1.32755e-05
6.28067e-06
1.3141e-05
6.21338e-06
1.1611e-06
1.18816e-06
1.30612e-06
1.19024e-06
1.19934e-06
1.16429e-06
1.16887e-06
1.13074e-06
1.1431e-06
1.09293e-06
1.09303e-06
9.63173e-07
9.33994e-07
1.00291e-06
9.32396e-07
9.50622e-07
9.46625e-07
9.57698e-07
9.50555e-07
9.46835e-07
9.34479e-07
1.00306e-06
9.33879e-07
1.01001e-06
9.56117e-07
9.65426e-07
9.12166e-07
9.67592e-07
1.00657e-06
9.12566e-07
9.56981e-07
0.00112202
0.00111534
0.000703776
0.000336742
0.000337163
0.000506534
0.000507545
2.41479e-05
8.19743e-06
0.000118205
4.30332e-05
3.94795e-05
0.000111953
2.36741e-05
8.1602e-06
0.000120648
4.33236e-05
4.03256e-05
0.000115029
0.000324858
0.000224474
0.000337328
0.000325747
0.000323769
0.00022326
0.000337429
0.000327064
1.97915e-05
6.08572e-06
1.93185e-05
6.07973e-06
1.16201e-06
1.19934e-06
1.2675e-06
1.17403e-06
1.18193e-06
1.17965e-06
1.18092e-06
1.12469e-06
1.13075e-06
9.69619e-07
9.36792e-07
9.38291e-07
9.58958e-07
9.27424e-07
9.26182e-07
9.60147e-07
9.38478e-07
9.3859e-07
9.59215e-07
9.26137e-07
9.27589e-07
1.00489e-06
9.93857e-07
9.17041e-07
9.37854e-07
9.92959e-07
9.40004e-07
1.00596e-06
9.12901e-07
0.00113961
0.00107169
0.00111758
0.000783181
0.000785913
0.00111835
0.00112339
0.00112278
0.000783761
0.00033269
0.000317449
0.000798279
0.000329652
0.000325762
2.3966e-05
1.00022e-05
0.000337167
0.000104622
0.000147787
0.000267499
2.36818e-05
9.99909e-06
0.000334573
0.000105467
0.000150435
0.000269775
0.000336878
0.000366128
0.000333216
0.000345351
1.16562e-06
1.19134e-06
1.19193e-06
1.1432e-06
1.15106e-06
1.14946e-06
1.1529e-06
1.04748e-06
9.42763e-07
1.04793e-06
9.34577e-07
9.79463e-07
9.46889e-07
1.05388e-06
9.79957e-07
9.47797e-07
9.43759e-07
1.05348e-06
9.37311e-07
1.00165e-06
9.3892e-07
1.01493e-06
9.55399e-07
9.99156e-07
9.38339e-07
1.01496e-06
9.55142e-07
9.93851e-07
9.18274e-07
9.94299e-07
9.0617e-07
0.00108154
0.00115413
0.00111002
0.0011373
0.00111053
0.00113739
0.00114123
0.00114109
0.00109251
0.000702653
0.000582731
0.000647624
0.000592713
0.00104677
0.00107679
0.0010332
0.000709432
0.00109321
0.000441281
0.00063087
0.000553652
0.0010454
0.00107576
0.00103347
0.000337975
0.000273287
0.000304141
0.000274999
0.000567044
0.0005001
0.000547331
0.0002917
1.16798e-06
1.17464e-06
1.16222e-06
1.12237e-06
1.13141e-06
1.16045e-06
1.15675e-06
1.15708e-06
1.12725e-06
1.09553e-06
9.58979e-07
1.13242e-06
1.09429e-06
9.60368e-07
1.07415e-06
1.12139e-06
9.69108e-07
9.57683e-07
1.0747e-06
9.71609e-07
1.12385e-06
9.59921e-07
9.68312e-07
9.23532e-07
1.03992e-06
9.77627e-07
9.6815e-07
9.22232e-07
1.04184e-06
9.79312e-07
0.0011319
0.00115221
0.00112245
0.00102753
0.00109082
0.00114174
0.00112275
0.00102856
0.00109
0.00114397
0.00114679
0.00114768
0.00102883
0.0010884
0.000549034
0.000332953
0.000947763
0.00106923
0.00100628
0.000544742
0.00108633
0.000291734
0.000983774
0.00106716
0.000275003
0.00037322
0.000275248
0.000371248
1.16619e-06
1.16606e-06
1.13762e-06
1.13001e-06
1.13806e-06
1.13526e-06
1.14079e-06
1.14067e-06
1.0601e-06
1.11574e-06
9.90757e-07
1.11909e-06
9.86103e-07
9.7634e-07
9.99064e-07
9.79425e-07
1.06447e-06
1.11804e-06
9.9143e-07
1.11953e-06
9.87359e-07
9.76972e-07
1.0047e-06
9.80016e-07
1.09327e-06
1.11821e-06
9.89445e-07
9.35198e-07
1.09212e-06
9.89889e-07
1.11745e-06
9.37373e-07
0.00114103
0.00114474
0.00114432
0.00114553
0.0011463
0.00113604
0.00114091
0.00107238
0.00104455
0.00110197
0.00105684
0.00110649
0.00106238
0.00109087
0.00106521
0.00113565
0.00109176
0.00106536
0.00107677
0.0010396
0.00110264
0.00105189
0.00110697
0.00106255
0.00109146
0.00106492
0.00113757
0.00109407
0.00106415
0.00106959
0.00105377
0.00103015
0.00107497
0.00106428
0.0010512
0.00102676
0.00107189
1.16104e-06
1.15616e-06
1.11848e-06
1.11978e-06
9.94207e-07
1.01884e-06
1.12684e-06
9.94744e-07
1.02383e-06
1.11767e-06
1.12238e-06
1.12238e-06
1.11977e-06
1.06618e-06
1.11348e-06
1.00084e-06
9.38082e-07
9.7603e-07
1.12341e-06
1.07032e-06
1.11798e-06
9.3935e-07
1.00152e-06
9.76691e-07
1.11498e-06
9.81139e-07
1.1128e-06
9.81724e-07
0.00114968
0.00113983
0.00114011
0.00114282
0.00114407
0.00114606
0.00114624
0.00104202
0.00109048
0.00104026
0.00105787
0.00108868
0.00108473