/*--------------------------------*- C++ -*----------------------------------*\
| =========                 |                                                 |
| \\      /  F ield         | OpenFOAM: The Open Source CFD Toolbox           |
|  \\    /   O peration     | Version:  5.x                                   |
|   \\  /    A nd           | Web:      www.OpenFOAM.org                      |
|    \\/     M anipulation  |                                                 |
\*---------------------------------------------------------------------------*/
FoamFile
{
    version     2.0;
    format      ascii;
    class       volVectorField;
    location    "2.6";
    object      U;
}
// * * * * * * * * * * * * * * * * * * * * * * * * * * * * * * * * * * * * * //

dimensions      [0 1 -1 0 0 0 0];

internalField   nonuniform List<vector> 
12160
(
(0.0854008 0 0.00123617)
(0.0515443 0 0.00279844)
(0.0854746 0 0.000113469)
(0.0631949 0 0.00450679)
(0.0515458 0 0.000804563)
(0.0854945 0 0.00262435)
(0.0461338 0 0.00573849)
(0.0630479 0 0.00159395)
(0.0515464 0 0.00658595)
(0.08537 0 0.00137548)
(0.0362133 0 0.00623423)
(0.0460373 0 0.00309401)
(0.0631769 0 0.0106913)
(0.0508673 0 0.00437737)
(0.0854095 0 0.00446621)
(0.0205914 0 0.00604738)
(0.0355882 0 0.00568325)
(0.0462328 0 0.01464)
(0.0614903 0 0.00752407)
(0.0506588 0 0.0111183)
(0.0846946 0 0.00287448)
(0.00512206 0 0.00555363)
(0.0202602 0 0.00732997)
(0.0363088 0 0.0178192)
(0.0441994 0 0.0119171)
(0.0615085 0 0.0174097)
(0.0481067 0 0.00858577)
(0.0850345 0 0.00801318)
(-0.00998635 0 0.00512873)
(0.00492661 0 0.00788064)
(0.0209967 0 0.0188801)
(0.0336677 0 0.0176989)
(0.0440467 0 0.0237561)
(0.056778 0 0.0137588)
(0.0481283 0 0.0175271)
(0.0787533 0 0.00503598)
(-0.0243241 0 0.0046524)
(-0.0101349 0 0.00811599)
(0.00522694 0 0.0186377)
(0.0192285 0 0.0207904)
(0.0344432 0 0.0290805)
(0.037775 0 0.0210328)
(0.0573375 0 0.0255043)
(0.0325139 0 0.0145264)
(0.0177841 0 0.0193704)
(-0.0369773 0 0.00407017)
(-0.0245513 0 0.00767634)
(-0.0100134 0 0.0182023)
(0.00391317 0 0.0216327)
(0.0204999 0 0.0313597)
(0.0297754 0 0.0290425)
(0.0384821 0 0.0321202)
(0.0439499 0 0.0211644)
(-0.0217259 0 0.0252622)
(-0.266192 0 -0.0164926)
(-0.0468994 0 0.0033067)
(-0.0373771 0 0.00647105)
(-0.0248623 0 0.0170053)
(-0.0110085 0 0.0217121)
(0.00515735 0 0.0316835)
(0.0176822 0 0.0336568)
(0.0310404 0 0.0377181)
(0.0246308 0 0.031029)
(0.00419756 0 0.0297958)
(-0.264733 0 0.0198644)
(-0.0167123 0 0.219772)
(-0.053271 0 0.00239817)
(-0.0474933 0 0.00443482)
(-0.0382185 0 0.014758)
(-0.0260947 0 0.0205516)
(-0.0105958 0 0.0315192)
(0.00357033 0 0.0356892)
(0.0192529 0 0.0413081)
(0.0206067 0 0.0398468)
(0.00179625 0 0.0367743)
(-0.317796 0 0.0155185)
(0.208326 0 0.0344937)
(0.0278166 0 -0.0700882)
(-0.0556035 0 0.0014316)
(-0.0539944 0 0.00180332)
(-0.0488215 0 0.0112449)
(-0.0400206 0 0.0176301)
(-0.0268779 0 0.0301006)
(-0.0118651 0 0.0365163)
(0.00499844 0 0.0433324)
(0.0118776 0 0.0466602)
(0.00582236 0 0.0405794)
(-0.285198 0 0.0307495)
(0.0625138 0 0.0518822)
(0.162906 0 -0.00274489)
(-0.0757514 0 0.123233)
(-0.0540915 0 0.000386339)
(-0.0564464 0 -0.00104007)
(-0.0556192 0 0.00679816)
(-0.0512421 0 0.0126857)
(-0.0419589 0 0.0263572)
(-0.0284695 0 0.0352803)
(-0.0117795 0 0.0444227)
(0.000758829 0 0.0513043)
(0.0104435 0 0.0462783)
(-0.225282 0 0.0377417)
(-0.132417 0 -0.000327793)
(0.086107 0 0.143049)
(-0.122885 0 0.010724)
(0.02065 0 0.0163967)
(-0.0488278 0 -0.000592279)
(-0.0548927 0 -0.00382719)
(-0.0581297 0 0.00181246)
(-0.0585438 0 0.00639136)
(-0.0541142 0 0.0198422)
(-0.0446042 0 0.0308122)
(-0.0306194 0 0.0434191)
(-0.013303 0 0.0545266)
(0.00910009 0 0.0515937)
(-0.170278 0 0.0459362)
(-0.313423 0 0.000556972)
(0.042429 0 0.16041)
(-0.0380765 0 0.0987827)
(0.0932282 0 -0.00794369)
(-0.0389779 0 0.0682973)
(-0.0407848 0 -0.00140502)
(-0.0496479 0 -0.00642622)
(-0.056411 0 -0.003258)
(-0.0614008 0 -0.000369485)
(-0.0618051 0 0.0113187)
(-0.0581068 0 0.0227815)
(-0.0490289 0 0.0387297)
(-0.031534 0 0.0542377)
(0.00349377 0 0.0567717)
(-0.137096 0 0.0546153)
(-0.43636 0 0.0117793)
(0.00770831 0 0.145237)
(-0.0151409 0 0.0649232)
(0.0390291 0 0.113093)
(-0.0887794 0 -0.000161593)
(-0.0303466 0 -0.00211354)
(-0.0416042 0 -0.00843398)
(-0.0510746 0 -0.00763557)
(-0.0595632 0 -0.00713224)
(-0.0646488 0 0.00179592)
(-0.0669873 0 0.0124106)
(-0.064211 0 0.0293048)
(-0.0505564 0 0.0482618)
(-0.00676157 0 0.0588847)
(-0.108472 0 0.0616971)
(-0.441608 0 0.0234063)
(-0.0287427 0 0.105189)
(0.00445232 0 0.058033)
(0.0376621 0 0.115518)
(-0.0400898 0 0.0993616)
(-0.0173664 0 -0.00281072)
(-0.0309971 0 -0.0103342)
(-0.0428933 0 -0.0112046)
(-0.0537132 0 -0.0133589)
(-0.0626898 0 -0.00768303)
(-0.0705584 0 0.000853784)
(-0.0738897 0 0.0163845)
(-0.0670463 0 0.0359258)
(-0.019418 0 0.0547544)
(-0.0946229 0 0.0643982)
(-0.409115 0 0.0394826)
(-0.0419679 0 0.0410822)
(0.0274997 0 0.0474036)
(0.0182126 0 0.104034)
(-0.0242296 0 0.092061)
(-0.00217007 0 -0.0034808)
(-0.0180748 0 -0.0122047)
(-0.0322812 0 -0.014385)
(-0.0451619 0 -0.018485)
(-0.0566737 0 -0.0157501)
(-0.0680099 0 -0.010558)
(-0.0774931 0 0.00153074)
(-0.0780717 0 0.0195906)
(-0.0323867 0 0.0432861)
(-0.0885841 0 0.0601079)
(-0.365365 0 0.0517177)
(-0.0742904 0 0.034446)
(0.0269861 0 0.0331898)
(0.0104148 0 0.0814535)
(-0.0047965 0 0.084015)
(0.0151072 0 -0.00424557)
(-0.00286527 0 -0.0140912)
(-0.0193971 0 -0.0175305)
(-0.0343434 0 -0.0230449)
(-0.0478097 0 -0.0216684)
(-0.0606384 0 -0.0205755)
(-0.0745789 0 -0.0134907)
(-0.0827806 0 0.00193313)
(-0.0418467 0 0.0254455)
(-0.086446 0 0.0474529)
(-0.313927 0 0.0509656)
(-0.0603246 0 0.0227347)
(0.0250438 0 0.0309093)
(0.00359422 0 0.0492009)
(0.00700474 0 0.0682315)
(0.0342619 0 -0.00495884)
(0.0143945 0 -0.0159642)
(-0.00418779 0 -0.0207404)
(-0.0214823 0 -0.0274356)
(-0.0368564 0 -0.0267173)
(-0.0507362 0 -0.0284597)
(-0.0663889 0 -0.0258783)
(-0.0795859 0 -0.0154255)
(-0.0461442 0 0.00262637)
(-0.0801495 0 0.0280633)
(-0.27483 0 0.0364736)
(-0.0365646 0 0.0163061)
(0.0382778 0 0.0266031)
(-0.00779069 0 0.0415461)
(0.0100284 0 0.0435681)
(0.0554305 0 -0.00556384)
(0.0335906 0 -0.017873)
(0.0130448 0 -0.0241919)
(-0.00648672 0 -0.031849)
(-0.0240043 0 -0.0319145)
(-0.0396207 0 -0.035804)
(-0.0560682 0 -0.0337976)
(-0.0702615 0 -0.0294801)
(-0.0446917 0 -0.0198251)
(-0.0672208 0 0.00476962)
(-0.233528 0 0.0133664)
(-0.0503919 0 0.0139912)
(0.0376826 0 0.0430086)
(-0.0183728 0 0.0264591)
(0.0153758 0 0.0359218)
(0.0783348 0 -0.00600709)
(0.054871 0 -0.0196579)
(0.0321978 0 -0.0275741)
(0.0106499 0 -0.0364161)
(-0.00900562 0 -0.0375541)
(-0.0270438 0 -0.0426863)
(-0.0446652 0 -0.0395887)
(-0.0595171 0 -0.0389797)
(-0.0403002 0 -0.0365049)
(-0.0509622 0 -0.0156449)
(-0.184867 0 -0.0130537)
(-0.107029 0 -0.0129049)
(0.0412746 0 0.0609127)
(-0.0190345 0 0.0202555)
(0.0222242 0 0.0270539)
(0.102024 0 -0.0062102)
(0.0779818 0 -0.0209888)
(0.0536527 0 -0.0306846)
(0.0299663 0 -0.0411264)
(0.00795634 0 -0.043952)
(-0.0128435 0 -0.0493595)
(-0.0316747 0 -0.0457696)
(-0.0480461 0 -0.0482967)
(-0.0327747 0 -0.0458975)
(-0.0356409 0 -0.0310633)
(-0.133812 0 -0.0363958)
(-0.148388 0 -0.0424734)
(0.0571434 0 0.0526647)
(-0.00224829 0 0.0159953)
(0.019409 0 0.0287859)
(0.125353 0 -0.006143)
(0.101958 0 -0.0216272)
(0.0771889 0 -0.032972)
(0.0517964 0 -0.0456589)
(0.0270178 0 -0.0503595)
(0.00362286 0 -0.0562597)
(-0.017382 0 -0.0537144)
(-0.0357477 0 -0.0580394)
(-0.0233771 0 -0.0513083)
(-0.021517 0 -0.0426378)
(-0.0946247 0 -0.0522973)
(-0.141641 0 -0.065375)
(0.0631303 0 0.000882143)
(0.0264913 0 -0.00593404)
(0.0105234 0 0.0291282)
(0.147673 0 -0.00579829)
(0.125612 0 -0.0214419)
(0.101755 0 -0.0340792)
(0.0760164 0 -0.0491247)
(0.0490835 0 -0.0566434)
(0.0228447 0 -0.0643585)
(-0.00209962 0 -0.0638063)
(-0.0221096 0 -0.0661336)
(-0.0155713 0 -0.0567554)
(-0.00675661 0 -0.0522184)
(-0.065682 0 -0.0623464)
(-0.109065 0 -0.0719265)
(0.0637556 0 -0.0611664)
(0.0563273 0 -0.0362054)
(0.00142171 0 0.0110553)
(0.16814 0 -0.00523392)
(0.148238 0 -0.0204463)
(0.126069 0 -0.0337457)
(0.101512 0 -0.0508432)
(0.0741753 0 -0.0614352)
(0.045539 0 -0.0726444)
(0.0169818 0 -0.0747695)
(-0.00574359 0 -0.074311)
(-0.00707548 0 -0.0671314)
(0.0119115 0 -0.0621825)
(-0.0441904 0 -0.0697319)
(-0.0730016 0 -0.0754907)
(0.0547967 0 -0.0933713)
(0.0589938 0 -0.0542091)
(-0.0123708 0 -0.0249967)
(0.186142 0 -0.00448015)
(0.168961 0 -0.0187556)
(0.149326 0 -0.0320555)
(0.126844 0 -0.0504552)
(0.100965 0 -0.0637573)
(0.0719361 0 -0.0791226)
(0.0407077 0 -0.0849335)
(0.0134662 0 -0.0866388)
(0.00829051 0 -0.0835017)
(0.0290681 0 -0.0746432)
(-0.0271925 0 -0.0774631)
(-0.0517438 0 -0.07732)
(0.05402 0 -0.101099)
(0.04658 0 -0.0661075)
(-0.00958286 0 -0.0596096)
(0.201337 0 -0.00359289)
(0.18716 0 -0.0165949)
(0.170549 0 -0.0291618)
(0.151059 0 -0.0479865)
(0.127774 0 -0.0632806)
(0.100424 0 -0.0824872)
(0.0685056 0 -0.0927835)
(0.0380909 0 -0.100745)
(0.0309297 0 -0.104182)
(0.0473012 0 -0.090758)
(0.0065707 0 -0.0886749)
(-0.0688762 0 -0.0915228)
(0.0605527 0 -0.0827671)
(0.0371054 0 -0.0774798)
(0.00463497 0 -0.0772329)
(0.213568 0 -0.00262469)
(0.202495 0 -0.0141508)
(0.189078 0 -0.025428)
(0.173095 0 -0.0438071)
(0.153377 0 -0.0599473)
(0.129073 0 -0.0821923)
(0.0989718 0 -0.0966832)
(0.0666723 0 -0.11213)
(0.0546801 0 -0.122882)
(0.0715731 0 -0.1082)
(0.0457509 0 -0.111038)
(-0.114226 0 -0.114918)
(0.0648289 0 -0.0563867)
(0.0342135 0 -0.0819436)
(0.0129549 0 -0.0857873)
(0.222804 0 -0.00163964)
(0.214832 0 -0.0115308)
(0.204632 0 -0.0211563)
(0.192235 0 -0.0385131)
(0.176432 0 -0.0542427)
(0.156507 0 -0.0780564)
(0.129907 0 -0.0960226)
(0.0978241 0 -0.118536)
(0.078363 0 -0.136863)
(0.0973022 0 -0.124809)
(0.0563673 0 -0.135607)
(-0.101891 0 -0.122462)
(0.0936203 0 -0.0775525)
(0.0471705 0 -0.0969251)
(0.0177181 0 -0.0827727)
(0.228979 0 -0.000629405)
(0.224165 0 -0.00878278)
(0.217147 0 -0.0165999)
(0.208197 0 -0.0325767)
(0.196191 0 -0.0470815)
(0.181034 0 -0.0707672)
(0.159607 0 -0.0907175)
(0.128823 0 -0.119686)
(0.101373 0 -0.14334)
(0.124778 0 -0.136971)
(0.0792684 0 -0.154587)
(-0.0541428 0 -0.131824)
(0.106126 0 -0.138545)
(0.0644652 0 -0.121217)
(0.015873 0 -0.0784152)
(0.232496 0 0.000553862)
(0.230516 0 -0.00596237)
(0.226605 0 -0.0118573)
(0.220971 0 -0.0263249)
(0.212493 0 -0.0392171)
(0.201836 0 -0.0612399)
(0.18609 0 -0.0814624)
(0.157856 0 -0.114014)
(0.125884 0 -0.141843)
(0.156762 0 -0.145615)
(0.110727 0 -0.170086)
(-0.0174222 0 -0.155048)
(0.0928257 0 -0.165267)
(0.0537784 0 -0.126124)
(-0.00763282 0 -0.0956803)
(0.232266 0 0.00180135)
(0.233853 0 -0.00299696)
(0.233019 0 -0.00693427)
(0.230691 0 -0.0198589)
(0.225507 0 -0.0309793)
(0.218734 0 -0.0511413)
(0.20838 0 -0.0707643)
(0.18443 0 -0.102856)
(0.150178 0 -0.133628)
(0.179875 0 -0.147332)
(0.164145 0 -0.166942)
(0.0106708 0 -0.175261)
(0.0591669 0 -0.176894)
(0.0347855 0 -0.122518)
(-0.0172973 0 -0.124303)
(0.230268 0 0.00246575)
(0.234173 0 -0.000143296)
(0.236458 0 -0.00170665)
(0.237493 0 -0.0131704)
(0.235435 0 -0.0224285)
(0.232169 0 -0.0413238)
(0.225555 0 -0.0587708)
(0.206531 0 -0.0877699)
(0.173708 0 -0.119299)
(0.204523 0 -0.142009)
(0.203858 0 -0.162641)
(0.0221265 0 -0.189954)
(0.0283609 0 -0.18673)
(0.0312841 0 -0.138756)
(-0.00518182 0 -0.139392)
(0.225278 0 0.00343778)
(0.231592 0 0.00272303)
(0.23692 0 0.0035801)
(0.241184 0 -0.00613881)
(0.2425 0 -0.0134912)
(0.242387 0 -0.0320064)
(0.238189 0 -0.0462912)
(0.223638 0 -0.072077)
(0.195239 0 -0.100745)
(0.231248 0 -0.129862)
(0.2466 0 -0.158308)
(0.0263335 0 -0.188302)
(0.0019743 0 -0.180499)
(0.018681 0 -0.157326)
(0.000858017 0 -0.15125)
(0.217781 0 0.00438508)
(0.226215 0 0.00557834)
(0.234284 0 0.00855164)
(0.241451 0 0.0011702)
(0.246489 0 -0.00386585)
(0.250477 0 -0.0217562)
(0.248431 0 -0.0337819)
(0.236413 0 -0.0584727)
(0.213532 0 -0.0808097)
(0.261715 0 -0.11302)
(0.293335 0 -0.147718)
(0.0294478 0 -0.185069)
(-0.0141561 0 -0.174172)
(0.00448381 0 -0.166605)
(0.00211394 0 -0.161951)
(0.208444 0 0.00510781)
(0.218779 0 0.00804185)
(0.228714 0 0.0131723)
(0.238535 0 0.00843972)
(0.2472 0 0.00594115)
(0.254929 0 -0.0102419)
(0.256204 0 -0.021001)
(0.246421 0 -0.0468916)
(0.226601 0 -0.0620633)
(0.297686 0 -0.0928585)
(0.340126 0 -0.135223)
(0.0294547 0 -0.176638)
(-0.0417926 0 -0.166411)
(-0.00777745 0 -0.163376)
(0.000363547 0 -0.166672)
(0.198106 0 0.00568793)
(0.209357 0 0.00994795)
(0.220882 0 0.0172975)
(0.232647 0 0.0151125)
(0.24417 0 0.0154781)
(0.255316 0 0.00246265)
(0.262439 0 -0.00630961)
(0.254417 0 -0.0340043)
(0.233148 0 -0.0454014)
(0.338948 0 -0.0731777)
(0.389611 0 -0.123633)
(0.0226927 0 -0.165858)
(-0.0722273 0 -0.150892)
(-0.0133866 0 -0.153905)
(-0.00105092 0 -0.165163)
(0.185916 0 0.00600122)
(0.199015 0 0.0114677)
(0.210991 0 0.0206601)
(0.224355 0 0.0208335)
(0.237595 0 0.0242641)
(0.251909 0 0.0151389)
(0.265083 0 0.00875956)
(0.259713 0 -0.0179741)
(0.232146 0 -0.0289465)
(0.381622 0 -0.0546164)
(0.434367 0 -0.113713)
(0.0121208 0 -0.147852)
(-0.095969 0 -0.131508)
(-0.010624 0 -0.144742)
(-0.000613327 0 -0.160909)
(0.18672 0 0.0122283)
(0.168662 0 0.00651129)
(0.200178 0 0.0234231)
(0.214016 0 0.0253613)
(0.228303 0 0.0318744)
(0.244857 0 0.0263766)
(0.261847 0 0.0235127)
(0.261081 0 0.002472)
(0.220113 0 -0.00990921)
(0.41292 0 -0.0302404)
(0.473005 0 -0.0983243)
(-0.0276897 0 -0.120926)
(-0.105201 0 -0.0974162)
(-0.0132147 0 -0.143163)
(0.0033221 0 -0.152398)
(0.187482 0 0.0251767)
(0.168785 0 0.0129532)
(0.136436 0 0.00630895)
(0.202594 0 0.028908)
(0.216855 0 0.0380635)
(0.234936 0 0.0356956)
(0.25328 0 0.0371364)
(0.254952 0 0.024287)
(0.204687 0 0.0134169)
(0.420785 0 0.00106396)
(0.492338 0 -0.0586007)
(-0.0689776 0 -0.0892964)
(-0.111644 0 -0.064845)
(-0.0214471 0 -0.129959)
(0.00946892 0 -0.136874)
(0.189391 0 0.0311718)
(0.168764 0 0.0269994)
(0.135904 0 0.0117516)
(0.120311 0 0.00503647)
(0.20434 0 0.0429867)
(0.222923 0 0.042997)
(0.241443 0 0.0486064)
(0.244148 0 0.0421786)
(0.195276 0 0.0361968)
(0.38969 0 0.0192464)
(0.502905 0 0.012282)
(-0.104046 0 -0.0388522)
(-0.120987 0 -0.0449197)
(-0.0205618 0 -0.108201)
(0.00430199 0 -0.108615)
(0.19008 0 0.0464118)
(0.169465 0 0.0332768)
(0.134679 0 0.0253595)
(0.118867 0 0.00853404)
(0.101224 0 0.00238165)
(0.209605 0 0.048496)
(0.227365 0 0.0579906)
(0.230677 0 0.055842)
(0.18784 0 0.0550178)
(0.333675 0 0.0377069)
(0.47254 0 0.0740023)
(-0.107992 0 0.0231743)
(-0.125173 0 -0.0377316)
(-0.0102146 0 -0.0833259)
(-0.0101201 0 -0.0809995)
(0.194478 0 0.0522184)
(0.168907 0 0.0497308)
(0.133298 0 0.0310167)
(0.116816 0 0.0203445)
(0.0966978 0 0.00156251)
(0.110416 0 -0.00206642)
(0.212224 0 0.0655023)
(0.215185 0 0.0659241)
(0.181241 0 0.0704323)
(0.283012 0 0.0537247)
(0.427298 0 0.106175)
(0.0174688 0 0.071102)
(-0.120927 0 -0.057983)
(0.00311083 0 -0.0496816)
(-0.0276092 0 -0.06222)
(0.195417 0 0.0712578)
(0.171081 0 0.0557192)
(0.131282 0 0.047549)
(0.112318 0 0.0243612)
(0.0925073 0 0.00858321)
(0.105626 0 -0.00981595)
(0.1274 0 -0.0112629)
(0.198344 0 0.0729955)
(0.172467 0 0.0834709)
(0.244724 0 0.0686567)
(0.378896 0 0.113941)
(0.10155 0 0.108057)
(-0.10728 0 -0.0592086)
(0.00816102 0 -0.00901153)
(-0.0403018 0 -0.0413233)
(0.178891 0 0.0776363)
(0.170277 0 0.0764317)
(0.129756 0 0.0534641)
(0.107659 0 0.0397113)
(0.0849453 0 0.00905079)
(0.0994878 0 -0.00772447)
(0.110003 0 -0.0319957)
(0.192174 0 -0.00820013)
(0.162911 0 0.0942328)
(0.214214 0 0.0819947)
(0.330485 0 0.116654)
(0.14013 0 0.126395)
(-0.0766293 0 0.0176978)
(-0.0295237 0 0.0314113)
(-0.0439606 0 -0.02291)
(0.149056 0 0.102445)
(0.147213 0 0.0830174)
(0.126583 0 0.07471)
(0.102102 0 0.0445621)
(0.0775974 0 0.0224543)
(0.0837447 0 -0.0122266)
(0.0955251 0 -0.0435814)
(0.171277 0 -0.04464)
(0.219272 0 -0.0233623)
(0.191414 0 0.0930846)
(0.279116 0 0.120634)
(0.136261 0 0.143062)
(-0.0578392 0 0.0891623)
(-0.071039 0 0.062908)
(-0.0292627 0 0.00846918)
(0.169948 0 0.101366)
(0.128954 0 0.109151)
(0.0988753 0 0.0817687)
(0.0953949 0 0.0657981)
(0.0673938 0 0.0258366)
(0.0673012 0 -0.00171419)
(0.0730308 0 -0.0539299)
(0.140479 0 -0.0690737)
(0.21149 0 -0.0742296)
(0.367711 0 -0.00327984)
(0.23565 0 0.123303)
(0.111044 0 0.15266)
(-0.0488546 0 0.132783)
(-0.0705739 0 0.101346)
(-0.0222233 0 0.0554252)
(0.19197 0 0.125743)
(0.140818 0 0.112179)
(0.0832959 0 0.105809)
(0.062624 0 0.0727004)
(0.0572405 0 0.0477003)
(0.0482314 0 -0.00123878)
(0.0533366 0 -0.0523106)
(0.107143 0 -0.111558)
(0.205018 0 -0.121352)
(0.354361 0 -0.0040899)
(0.19744 0 0.0320567)
(0.0816751 0 0.158253)
(-0.0494748 0 0.156822)
(-0.0642258 0 0.136336)
(-0.025897 0 0.0976226)
(0.0424467 0 0.165272)
(0.133228 0 0.13402)
(0.0887982 0 0.116648)
(0.0413514 0 0.0984718)
(0.0191188 0 0.0551975)
(0.0280141 0 0.0258474)
(0.0100308 0 -0.048449)
(0.0559451 0 -0.120491)
(0.16426 0 -0.161925)
(0.307306 0 -0.0243791)
(0.217381 0 0.045301)
(0.324921 0 1.60819)
(-0.0611092 0 0.174654)
(-0.060898 0 0.162699)
(-0.0267614 0 0.133942)
(-0.0843035 0 0.19852)
(-0.0501766 0 0.185156)
(0.0304529 0 0.143807)
(0.0156462 0 0.114255)
(-0.0105496 0 0.0843722)
(-0.020592 0 0.0391231)
(-0.0269249 0 -0.00137631)
(-0.0488237 0 -0.111599)
(0.0576658 0 -0.195062)
(0.220781 0 -0.0572964)
(0.252597 0 0.0630123)
(0.374946 0 1.29515)
(0.68582 3.37518e-27 2.02784)
(0.241711 0 2.08607)
(-0.0687201 0 0.188056)
(-0.0284075 0 0.165177)
(-0.0878216 0 0.22054)
(-0.152265 0 0.251652)
(-0.281424 0 0.259918)
(-0.205847 0 0.155104)
(-0.0755328 0 0.101405)
(-0.0593418 0 0.0716937)
(-0.0771265 0 0.0297762)
(-0.121092 0 -0.0339688)
(-0.150333 0 -0.175706)
(0.0849951 0 -0.142569)
(0.324292 0 0.0687616)
(0.334948 0 1.11471)
(0.760792 1.76502e-27 1.82157)
(0.85932 -9.80499e-30 2.02584)
(0.584654 5.36721e-27 2.23593)
(0.207289 0 2.34006)
(-0.0345846 0 0.19775)
(-0.0438577 0 0.240388)
(-0.143037 0 0.288034)
(-0.320685 0 0.383512)
(-0.707156 0 0.29134)
(-0.377241 0 0.140857)
(-0.148011 0 0.0833644)
(-0.105916 0 0.0682333)
(-0.15604 0 0.0408373)
(-0.297132 0 -0.118943)
(-0.188931 0 -0.171593)
(0.243008 0 0.0263977)
(0.307265 0 0.778438)
(0.766364 0 1.71337)
(0.868669 0 1.8199)
(1.03154 5.0221e-26 1.85735)
(0.886629 -1.26342e-29 2.20498)
(0.567926 6.90265e-27 2.51902)
(0.194588 0 2.77486)
(-0.0695206 0 0.326732)
(-0.275072 0 0.459104)
(-0.702428 0 0.396173)
(-0.841751 0 0.168268)
(-0.366771 0 0.107824)
(-0.177184 0 0.0663573)
(-0.135547 0 0.0865351)
(-0.294049 0 0.0137415)
(-0.475853 0 -0.122251)
(-0.159323 0 -0.0107583)
(0.212731 0 0.603475)
(0.754436 0 1.50611)
(0.866505 0 1.72082)
(1.02622 1.16942e-25 1.68793)
(1.17185 -1.4134e-29 1.44025)
(1.06605 6.34819e-26 2.00263)
(0.864054 0 2.46523)
(0.492653 0 2.81241)
(0.148576 0 3.02332)
(-0.135922 0 0.520822)
(-0.510702 0 0.537637)
(-1.00535 0 0.181513)
(-0.785023 0 0.0327602)
(-0.285038 0 0.0868414)
(-0.194483 0 0.0576913)
(-0.0996753 0 0.120273)
(-0.6009 0 -0.0528892)
(-0.514583 0 -0.108549)
(-0.00733086 0 0.455583)
(0.636188 0 1.2922)
(0.866694 -1.06696e-26 1.55428)
(0.991396 6.58811e-26 1.60038)
(1.14853 0 1.34487)
(1.33844 1.89547e-25 1.03056)
(1.26165 -1.82814e-29 1.617)
(1.07321 2.24204e-25 2.23801)
(0.795776 0 2.70632)
(0.433492 0 3.07505)
(0.12566 0 3.27856)
(-0.223691 0 0.614558)
(-0.815136 0 0.289868)
(-1.06156 0 -0.0243975)
(-0.578924 0 0.00821647)
(-0.23149 0 0.0291834)
(-0.0564035 0 0.150548)
(-0.394784 0 0.128272)
(-0.715987 0 -0.109186)
(-0.35026 0 0.178063)
(0.433061 0 1.05554)
(0.796728 -2.02873e-26 1.42114)
(1.00751 0 1.45946)
(1.14223 -1.73027e-25 1.29078)
(1.24537 -3.12563e-25 0.842761)
(1.44471 7.96194e-10 0.532621)
(1.42869 0 1.12792)
(1.2603 0 1.7985)
(0.99469 3.17261e-25 2.40193)
(0.661383 -2.87814e-26 2.93257)
(0.278363 0 3.27499)
(0.053969 0 3.37992)
(-0.366619 0 0.36578)
(-0.841277 0 -0.0325164)
(-0.881628 0 -0.101879)
(-0.417651 0 -0.0231909)
(-0.112486 0 0.0158491)
(0.00950968 0 0.337747)
(-0.764184 0 -0.0682759)
(-0.694589 0 -0.0825365)
(0.133991 0 0.732158)
(0.631617 4.24757e-42 1.20066)
(0.980732 0 1.3499)
(1.13338 2.83428e-25 1.16932)
(1.2662 -1.96067e-24 0.827537)
(1.34677 1.60083e-10 0.445484)
(1.42453 1.53655e-09 0.142964)
(1.46851 -9.39859e-10 0.507195)
(1.42196 8.61662e-10 0.142745)
(1.44226 2.36873e-09 0.147742)
(1.43982 6.2392e-10 0.148506)
(1.43272 5.12216e-25 1.17896)
(1.1836 4.55112e-25 1.90794)
(0.817953 1.44087e-25 2.5975)
(0.434576 -3.32087e-26 3.07876)
(0.12158 0 3.35409)
(-0.00904755 0 3.40443)
(-0.374283 0 -0.132724)
(-0.57459 0 -0.225503)
(-0.649759 0 -0.0927539)
(-0.353697 0 -0.00616067)
(-0.0117895 0 0.237553)
(-0.14161 0 0.188769)
(-0.762657 0 -0.18017)
(-0.238067 0 0.36833)
(0.434482 5.53243e-42 0.982266)
(0.895236 0 1.17442)
(1.12142 0 1.04859)
(1.30429 -7.6132e-26 0.784866)
(1.24827 -3.43341e-25 0.34707)
(1.44309 -5.86335e-10 0.0899504)
(1.47753 1.10815e-09 0.157768)
(1.41697 9.97295e-10 -0.0985557)
(1.3941 -1.69287e-09 0.597834)
(1.47493 8.90807e-10 0.156867)
(1.50808 6.74485e-10 0.186939)
(1.50577 8.36311e-10 0.185396)
(1.41089 4.46409e-10 -0.0980659)
(1.44691 1.33278e-09 -0.0758119)
(1.44124 2.83667e-10 -0.0734241)
(1.30949 -1.73603e-24 1.28658)
(0.973369 -1.11539e-24 2.07131)
(0.532204 0 2.71124)
(0.155356 2.99875e-27 3.15252)
(-0.112182 0 3.33255)
(-0.131163 0 3.25545)
(-0.1455 0 -0.355628)
(-0.36628 0 -0.223144)
(-0.506085 0 -0.0697019)
(-0.281271 0 0.12632)
(0.161661 0 0.554401)
(-0.86472 0 -0.355582)
(-0.454337 0 0.0527774)
(0.0365588 -6.79954e-27 0.622799)
(0.770144 1.11257e-26 1.0035)
(1.02039 7.18254e-26 0.90102)
(1.2826 0 0.745355)
(1.26568 -4.23242e-24 0.33603)
(1.33227 -2.34532e-09 0.0938328)
(1.33151 1.51666e-09 -0.223071)
(1.3295 -2.57046e-09 -0.226689)
(1.33868 7.75801e-11 -0.18035)
(1.3386 2.25083e-10 -0.182159)
(1.4508 5.13112e-10 -0.107864)
(1.39117 -2.12204e-09 -0.28625)
(1.34653 5.58086e-25 0.626966)
(1.48657 1.00938e-09 -0.0770136)
(1.44506 4.98816e-10 -0.108573)
(1.44105 -3.13906e-10 -0.154531)
(1.43504 6.28818e-10 -0.15756)
(1.38409 -2.43425e-09 -0.288236)
(1.39717 -2.03553e-09 -0.229831)
(1.3915 -2.1183e-09 -0.231394)
(1.11175 -4.11577e-24 1.39326)
(0.650815 0 2.16851)
(0.14821 0 2.76817)
(-0.213127 2.54475e-26 3.07396)
(-0.321307 0 3.15409)
(-0.165608 0 2.97027)
(-0.0713067 0 -0.269127)
(-0.28121 0 -0.159387)
(-0.397161 0 0.0745047)
(-0.136582 0 0.452165)
(-0.191345 0 0.433404)
(-0.788939 0 -0.104408)
(-0.250916 0 0.261379)
(0.531496 8.05026e-27 0.7784)
(0.903643 0 0.744221)
(1.23984 3.93748e-25 0.663115)
(1.30889 -7.76744e-25 0.326589)
(1.31978 -1.66081e-09 0.140613)
(1.24133 5.20273e-11 -0.180677)
(1.24212 1.95042e-10 -0.181422)
(1.26524 2.02415e-10 -0.167677)
(1.26564 2.11069e-10 -0.167978)
(1.30762 2.96623e-09 -0.337464)
(1.30475 -3.64288e-09 -0.338332)
(1.33675 -9.96856e-10 -0.309504)
(1.33661 -2.63294e-10 -0.308886)
(1.43368 -4.42519e-09 -0.322937)
(1.44475 1.57114e-08 -0.445051)
(1.22241 2.63827e-08 -0.45089)
(1.42259 1.23616e-08 -0.447733)
(1.27684 3.26216e-09 -0.445121)
(1.17994 -1.48621e-23 0.708567)
(1.47524 5.98708e-09 -0.0913311)
(1.37209 6.4555e-10 -0.477647)
(1.37148 4.17062e-10 -0.474432)
(1.36035 3.17886e-09 -0.43747)
(1.35762 -6.13048e-09 -0.43556)
(1.42636 -1.85102e-09 -0.324331)
(1.4322 -4.738e-09 -0.391676)
(1.42817 -6.99849e-10 -0.393495)
(1.4395 -7.72212e-09 -0.445125)
(1.23079 -1.43433e-08 -0.450667)
(1.41882 -2.30886e-09 -0.448118)
(1.27117 -3.23291e-09 -0.444371)
(1.44057 1.82012e-08 -0.41923)
(1.21499 3.1151e-08 -0.33469)
(1.41097 1.90105e-08 -0.458939)
(1.26866 3.50972e-09 -0.380819)
(1.43721 -1.03675e-08 -0.420512)
(1.23854 -1.64579e-08 -0.33688)
(1.41203 -8.6713e-09 -0.459951)
(1.26953 -3.49533e-09 -0.384074)
(0.746571 0 1.52338)
(0.175508 -8.13029e-25 2.25186)
(-0.346483 0 2.69203)
(-0.59326 4.52031e-26 2.89542)
(-0.551436 0 2.866)
(-0.279035 0 2.61335)
(-0.0533191 0 -0.152551)
(-0.252059 0 -0.00128273)
(-0.197418 0 0.325662)
(-0.103055 0 0.237967)
(-0.336962 0 -0.37575)
(-0.388024 0 0.051411)
(0.202749 0 0.424551)
(0.670979 0 0.573668)
(1.11507 4.3308e-25 0.531658)
(1.25824 8.75433e-25 0.28529)
(1.32939 -9.24471e-10 0.141141)
(1.26032 4.62774e-10 -0.135197)
(1.25985 1.17085e-10 -0.134694)
(1.2839 8.89673e-10 -0.129084)
(1.28193 1.07794e-10 -0.128066)
(1.25786 -2.67269e-09 -0.296335)
(1.25968 -1.44387e-10 -0.295182)
(1.26155 -3.40533e-09 -0.274959)
(1.26372 -5.06466e-10 -0.274046)
(1.14694 3.58656e-09 -0.494085)
(1.23109 4.77926e-09 -0.385258)
(1.31723 3.24744e-09 -0.507482)
(1.18036 3.87025e-09 -0.468546)
(1.36137 3.99707e-09 -0.470678)
(1.36226 4.89786e-09 -0.55431)
(1.24545 -3.41015e-09 -0.384001)
(1.14862 -7.62151e-10 -0.491422)
(1.31672 -2.97821e-09 -0.50685)
(1.17968 -2.37445e-09 -0.467467)
(1.36007 -4.43965e-09 -0.470383)
(1.36497 -4.72742e-09 -0.55423)
(1.1724 4.87346e-09 -0.432661)
(1.35286 6.44028e-09 -0.431857)
(1.19487 3.81797e-09 -0.457173)
(1.3796 5.58886e-09 -0.448304)
(1.17598 -3.47182e-09 -0.431992)
(1.35289 -4.60683e-09 -0.431257)
(1.19549 -3.06143e-09 -0.45561)
(1.379 -4.701e-09 -0.447616)
(1.44581 1.5038e-08 -0.492727)
(1.21107 2.74686e-08 -0.486616)
(1.4164 1.14203e-08 -0.480305)
(1.2612 3.17624e-09 -0.496914)
(1.36395 1.78044e-09 -0.535864)
(1.2495 1.63759e-09 -0.545158)
(1.34408 1.37629e-09 -0.546144)
(1.28479 8.04535e-10 -0.527189)
(0.862057 -9.9118e-24 0.789139)
(1.34381 4.98739e-09 -0.132822)
(1.32417 7.82542e-11 -0.517149)
(1.32524 2.75096e-10 -0.516805)
(1.3358 1.01499e-09 -0.498391)
(1.33638 2.32331e-10 -0.497303)
(1.32681 4.18259e-10 -0.667555)
(1.3264 -2.01897e-09 -0.667312)
(1.29037 6.45652e-09 -0.618838)
(1.29124 -6.60023e-09 -0.619923)
(1.44145 -7.53105e-09 -0.493811)
(1.22487 -1.49674e-08 -0.485793)
(1.41421 -2.88232e-09 -0.480176)
(1.26052 -3.19216e-09 -0.499838)
(1.45575 1.55458e-08 -0.541591)
(1.24497 3.36537e-08 -0.586896)
(1.44913 1.84093e-08 -0.477051)
(1.28687 3.43832e-09 -0.569446)
(1.45179 -9.47037e-09 -0.541895)
(1.25913 -1.80558e-08 -0.589561)
(1.44755 -9.86579e-09 -0.478091)
(1.28601 -3.54043e-09 -0.567394)
(1.36177 -1.84352e-09 -0.53514)
(1.25195 -1.47182e-09 -0.546307)
(1.34274 -1.13689e-09 -0.546771)
(1.27974 -1.22071e-09 -0.524725)
(1.36901 2.03943e-09 -0.523413)
(1.27811 1.23471e-09 -0.459529)
(1.36909 -2.02938e-09 -0.523499)
(1.28214 -1.34776e-09 -0.460231)
(0.247173 -3.4813e-25 1.62254)
(-0.405301 0 2.21762)
(-0.86097 0 2.53147)
(-0.964245 0 2.57299)
(-0.710823 0 2.46288)
(-0.293862 0 2.12015)
(-0.0638831 0 -0.00606273)
(-0.169676 0 0.186946)
(-0.00991517 0 0.264858)
(-0.142629 0 -0.0631158)
(-0.472366 0 -0.298222)
(0.0431961 0 0.169692)
(0.415979 0 0.32813)
(0.900833 0 0.377247)
(1.22455 2.43598e-25 0.249425)
(1.3879 -7.11332e-10 0.10646)
(1.34549 8.9186e-10 -0.104477)
(1.34439 1.21444e-11 -0.103554)
(1.36081 1.40621e-09 -0.0907221)
(1.35937 1.73792e-10 -0.089838)
(1.25335 -3.59811e-09 -0.2374)
(1.25533 -7.06051e-11 -0.23787)
(1.28902 -3.96254e-09 -0.206735)
(1.29148 7.66975e-10 -0.209685)
(1.13526 4.96392e-09 -0.420695)
(1.31023 5.56763e-09 -0.420824)
(1.13164 8.2556e-09 -0.411846)
(1.30357 7.08147e-09 -0.416022)
(1.14247 -3.29654e-09 -0.419577)
(1.31147 -4.84982e-09 -0.419846)
(1.14487 -4.24533e-09 -0.40961)
(1.30592 -5.70866e-09 -0.414859)
(1.13472 1.00353e-08 -0.374348)
(1.29924 7.64089e-09 -0.38563)
(1.13307 9.18676e-09 -0.39383)
(1.30446 7.51082e-09 -0.400363)
(1.15017 -4.85426e-09 -0.378072)
(1.30198 -4.9902e-09 -0.386067)
(1.14672 -4.68378e-09 -0.393324)
(1.30687 -5.72088e-09 -0.400181)
(1.19855 1.25498e-09 -0.489125)
(1.17065 8.03984e-11 -0.513986)
(1.30413 1.19013e-10 -0.519005)
(1.27437 1.50176e-09 -0.567659)
(1.22141 1.2007e-10 -0.516087)
(1.33599 9.82953e-11 -0.508068)
(1.2114 -8.58573e-11 -0.484535)
(1.17156 -3.14512e-11 -0.511591)
(1.27817 -9.47801e-10 -0.566574)
(1.3036 -3.45122e-11 -0.518159)
(1.22092 -2.15026e-10 -0.51568)
(1.33532 -5.02143e-10 -0.50784)
(1.18736 2.25028e-10 -0.487798)
(1.2916 4.37549e-10 -0.480778)
(1.22641 1.99868e-10 -0.509732)
(1.33132 4.25265e-10 -0.50926)
(1.18966 -1.93438e-10 -0.488591)
(1.29155 -3.40649e-10 -0.480881)
(1.22686 -1.9706e-10 -0.509696)
(1.33105 -3.65027e-10 -0.509063)
(1.35613 1.43346e-09 -0.579438)
(1.2415 1.84992e-09 -0.568959)
(1.33897 1.27363e-09 -0.564397)
(1.26853 7.94421e-10 -0.585473)
(1.31834 1.73696e-10 -0.605573)
(1.2833 2.00687e-10 -0.607918)
(1.31577 3.32209e-10 -0.608827)
(1.29228 2.09339e-10 -0.604927)
(0.344693 0 0.84621)
(0.999697 2.56724e-09 -0.116396)
(1.16823 -3.3355e-09 -0.555946)
(1.16815 1.34972e-10 -0.557357)
(1.22773 -1.63884e-09 -0.570322)
(1.22894 1.24887e-10 -0.570543)
(1.30601 6.29775e-09 -0.798442)
(1.3088 -7.35548e-09 -0.799482)
(1.31898 3.98117e-09 -0.749538)
(1.32154 -4.75251e-09 -0.750646)
(1.14836 9.75435e-09 -0.819138)
(1.34829 5.14511e-09 -0.819629)
(1.14405 6.19931e-09 -0.789744)
(1.34026 4.51267e-09 -0.79473)
(1.15292 -3.92498e-09 -0.816231)
(1.34825 -4.85499e-09 -0.818829)
(1.14668 -3.12183e-09 -0.788123)
(1.34006 -4.73504e-09 -0.79429)
(1.172 4.22874e-09 -0.775491)
(1.24086 5.83779e-09 -0.717035)
(1.33265 2.83889e-09 -0.732236)
(1.13418 5.19065e-09 -0.759086)
(1.33344 4.07097e-09 -0.74621)
(1.37899 6.61726e-09 -0.546909)
(1.17865 -2.42117e-09 -0.77744)
(1.25055 -4.24308e-09 -0.714639)
(1.33389 -3.88438e-09 -0.732511)
(1.13851 -2.53082e-09 -0.758903)
(1.33411 -4.77012e-09 -0.746551)
(1.37946 -6.41343e-09 -0.546949)
(1.35496 -1.30009e-09 -0.580204)
(1.24681 -1.52838e-09 -0.56786)
(1.33885 -1.16363e-09 -0.564101)
(1.26829 -1.04204e-09 -0.587474)
(1.3762 2.58008e-09 -0.609464)
(1.29846 1.42583e-09 -0.644158)
(1.37354 -2.54033e-09 -0.609456)
(1.29493 -1.37595e-09 -0.64301)
(1.31661 -5.85688e-10 -0.604963)
(1.27971 -1.81674e-10 -0.606952)
(1.31426 -3.80204e-10 -0.608627)
(1.28776 -5.0906e-10 -0.602481)
(1.29612 7.73562e-10 -0.568365)
(1.26437 3.91634e-10 -0.539536)
(1.29718 -7.83299e-10 -0.569612)
(1.26756 -4.19868e-10 -0.543286)
(-0.416611 -1.76913e-24 1.65846)
(-1.05945 0 2.12977)
(-1.36968 0 2.22868)
(-1.23689 0 2.166)
(-0.853979 0 2.00273)
(-0.3252 0 1.64975)
(-0.0273516 0 0.151522)
(-0.0630821 0 0.152774)
(0.0177345 0 0.0363019)
(-0.43343 0 -0.681784)
(-0.0544126 0 -0.0228753)
(0.29819 9.82543e-27 0.160949)
(0.634897 -8.94243e-26 0.182141)
(1.04251 -2.37177e-25 0.148484)
(1.30708 -7.52769e-10 -0.0146948)
(1.39905 1.38016e-09 -0.115004)
(1.39786 1.3694e-10 -0.114603)