/*--------------------------------*- C++ -*----------------------------------*\
| =========                 |                                                 |
| \\      /  F ield         | OpenFOAM: The Open Source CFD Toolbox           |
|  \\    /   O peration     | Version:  5.x                                   |
|   \\  /    A nd           | Web:      www.OpenFOAM.org                      |
|    \\/     M anipulation  |                                                 |
\*---------------------------------------------------------------------------*/
FoamFile
{
    version     2.0;
    format      ascii;
    class       surfaceVectorField;
    location    "2.6";
    object      Uf;
}
// * * * * * * * * * * * * * * * * * * * * * * * * * * * * * * * * * * * * * //

dimensions      [0 1 -1 0 0 0 0];

internalField   nonuniform List<vector> 
30582
(
(0.0647211 0 0.00202425)
(0.0854377 0 0.000682825)
(0.0601946 0 0.00366022)
(0.051545 0 0.00181063)
(0.0647621 0 0.000462088)
(0.0854846 0 0.00135513)
(0.0526979 0 0.00512811)
(0.0631214 0 0.00305263)
(0.060115 0 0.00120277)
(0.0515461 0 0.00366952)
(0.0647812 0 0.00462276)
(0.0854323 0 0.00203122)
(0.0421149 0 0.00598856)
(0.0460855 0 0.00438658)
(0.052583 0 0.00235063)
(0.0631124 0 0.00611962)
(0.0601732 0 0.00865691)
(0.0512069 0 0.00551277)
(0.0644016 0 0.00288977)
(0.0853898 0 0.00287337)
(0.028143 0 0.00613997)
(0.0359007 0 0.00589491)
(0.0417441 0 0.00440012)
(0.0461351 0 0.00887915)
(0.05275 0 0.0126832)
(0.0623336 0 0.00914235)
(0.0589467 0 0.00596472)
(0.0507631 0 0.00769484)
(0.0643412 0 0.00782181)
(0.0850521 0 0.0037618)
(0.0127087 0 0.00579832)
(0.0204258 0 0.006629)
(0.0276703 0 0.00651394)
(0.0359485 0 0.0118328)
(0.0422128 0 0.0162437)
(0.0452161 0 0.0132467)
(0.0509288 0 0.0097401)
(0.0614994 0 0.0124072)
(0.0588289 0 0.014292)
(0.0493828 0 0.00989981)
(0.0627702 0 0.00575551)
(0.0848645 0 0.00529579)
(-0.0025366 0 0.00533929)
(0.00502434 0 0.00666509)
(0.0124496 0 0.00760774)
(0.0206285 0 0.0131663)
(0.0283707 0 0.0183544)
(0.0349883 0 0.0176731)
(0.0398508 0 0.0148337)
(0.044123 0 0.0178385)
(0.0508804 0 0.020611)
(0.0591433 0 0.0156438)
(0.0550704 0 0.0111953)
(0.0481175 0 0.0129798)
(0.0629981 0 0.0128124)
(0.0818939 0 0.00677406)
(-0.017325 0 0.00488845)
(-0.0100606 0 0.00658144)
(-0.00272962 0 0.00799936)
(0.00507677 0 0.0133013)
(0.0129751 0 0.0187578)
(0.0201126 0 0.0197787)
(0.0261666 0 0.0192584)
(0.0340555 0 0.0234467)
(0.0401655 0 0.0264419)
(0.0409109 0 0.0222796)
(0.0454839 0 0.0174281)
(0.0570577 0 0.0195474)
(0.0553197 0 0.0215512)
(0.0403211 0 0.0160513)
(0.0522732 0 0.00982336)
(0.0482689 0 0.0125062)
(-0.0308559 0 0.00435871)
(-0.0244377 0 0.00612981)
(-0.0175197 0 0.00789421)
(-0.0100741 0 0.0131636)
(-0.00249459 0 0.0184181)
(0.00457005 0 0.0200645)
(0.0114334 0 0.0212153)
(0.0198642 0 0.0261066)
(0.0271658 0 0.0302303)
(0.0321093 0 0.0289314)
(0.0346443 0 0.0250732)
(0.0381285 0 0.0267726)
(0.0461483 0 0.0288416)
(0.0506436 0 0.0232821)
(0.0404884 0 0.0178749)
(0.00539421 0 0.0207654)
(-0.00280126 0 0.0223425)
(-0.124204 0 0.00135349)
(-0.04223 0 0.00368502)
(-0.0371772 0 0.00524467)
(-0.031169 0 0.00706837)
(-0.0247068 0 0.0123133)
(-0.0176118 0 0.0175985)
(-0.0105109 0 0.0198914)
(-0.00366952 0 0.0216728)
(0.00453527 0 0.0266673)
(0.0127021 0 0.0315231)
(0.0190911 0 0.0323187)
(0.0234027 0 0.0313702)
(0.0304079 0 0.0336745)
(0.0356203 0 0.034944)
(0.0315564 0 0.0311363)
(0.0328212 0 0.0261405)
(0.0240739 0 0.0264041)
(-0.00778294 0 0.0275491)
(-0.14323 0 0.0227582)
(-0.274103 0 0.00184751)
(-0.141451 0 0.108385)
(-0.0504515 0 0.0028484)
(-0.0471964 0 0.00385933)
(-0.0427265 0 0.00544384)
(-0.0377978 0 0.0105739)
(-0.0317494 0 0.0158717)
(-0.0254785 0 0.0187179)
(-0.0187433 0 0.0211267)
(-0.0108021 0 0.0265998)
(-0.00284056 0 0.0316006)
(0.00436385 0 0.0334624)
(0.0105087 0 0.034682)
(0.0184676 0 0.0378567)
(0.0248158 0 0.0395291)
(0.0258235 0 0.0382331)
(0.0233109 0 0.035477)
(0.0132136 0 0.0350782)
(0.00256671 0 0.033316)
(-0.156799 0 0.0221897)
(-0.282943 0 0.0176721)
(-0.0282019 0 0.0262946)
(0.101331 0 0.126309)
(0.00555195 0 0.068541)
(-0.0548601 0 0.0019106)
(-0.0536327 0 0.00210656)
(-0.0511173 0 0.00310739)
(-0.0481574 0 0.0077981)
(-0.043814 0 0.0129857)
(-0.0391196 0 0.0161369)
(-0.0332664 0 0.0190779)
(-0.0264863 0 0.0252973)
(-0.0189338 0 0.0308036)
(-0.0112304 0 0.0337619)
(-0.00427271 0 0.0361064)
(0.00428439 0 0.0399247)
(0.012009 0 0.0423292)
(0.0155653 0 0.0433572)
(0.0159007 0 0.0432838)
(0.0132146 0 0.0413595)
(0.00415239 0 0.0386938)
(-0.141701 0 0.0344209)
(-0.307965 0 0.0232016)
(-0.127639 0 0.0323787)
(0.131638 0 0.0432654)
(0.185616 0 0.0141713)
(0.0999088 0 -0.0361172)
(-0.0239674 0 0.0292797)
(-0.0552747 0 0.000904314)
(-0.0560249 0 0.000201647)
(-0.0556548 0 0.000369035)
(-0.0548068 0 0.0042747)
(-0.0526088 0 0.00900178)
(-0.0500318 0 0.0119266)
(-0.0459263 0 0.0151358)
(-0.0409898 0 0.0219745)
(-0.0346245 0 0.0282123)
(-0.0276737 0 0.0324054)
(-0.0203657 0 0.0358928)
(-0.0118223 0 0.0409239)
(-0.00352316 0 0.0438824)
(0.00287862 0 0.0467152)
(0.00618321 0 0.0490029)
(0.0111606 0 0.0475308)
(0.00785839 0 0.0434542)
(-0.10973 0 0.0397959)
(-0.255224 0 0.0342766)
(-0.208807 0 0.01256)
(-0.0334737 0 0.0255456)
(0.0743103 0 0.0996114)
(0.121282 0 0.0708005)
(0.0200102 0 0.00562173)
(-0.0951925 0 0.0664782)
(-0.0275503 0 0.0666873)
(-0.051764 0 -0.000107333)
(-0.0544921 0 -0.00173819)
(-0.0561225 0 -0.00244604)
(-0.057288 0 0.000429143)
(-0.0573378 0 0.00428323)
(-0.0570815 0 0.0065344)
(-0.0552827 0 0.00951058)
(-0.0526781 0 0.0163186)
(-0.0483425 0 0.0230706)
(-0.0432815 0 0.0282999)
(-0.0367269 0 0.0330265)
(-0.0295445 0 0.0398175)
(-0.0213949 0 0.0439164)
(-0.0125413 0 0.0488776)
(-0.00642788 0 0.0529298)
(0.00492943 0 0.0522285)
(0.00955857 0 0.0489596)
(-0.0799171 0 0.0468006)
(-0.19983 0 0.0418754)
(-0.269353 0 0.0164243)
(-0.217718 0 0.000118516)
(-0.0449948 0 0.0889267)
(0.0626002 0 0.151807)
(0.0240152 0 0.123507)
(-0.0830053 0 0.0551451)
(-0.0148278 0 0.000746606)
(0.0574073 0 0.00411829)
(-0.00916371 0 0.0441284)
(-0.0448383 0 -0.00100224)
(-0.0492378 0 -0.00349069)
(-0.0525813 0 -0.00513829)
(-0.0556518 0 -0.00349149)
(-0.0577233 0 -0.000745351)
(-0.0597653 0 0.000616623)
(-0.0604973 0 0.00298099)
(-0.0601745 0 0.00902611)
(-0.0583975 0 0.0155426)
(-0.0561105 0 0.0210385)
(-0.0516456 0 0.026761)
(-0.0468166 0 0.035179)
(-0.0400054 0 0.0410537)
(-0.0310767 0 0.0482485)
(-0.0225954 0 0.0543809)
(-0.0049047 0 0.0560726)
(0.00631642 0 0.0542057)
(-0.0639981 0 0.053646)
(-0.155022 0 0.0503143)
(-0.30332 0 0.0275554)
(-0.370219 0 0.00621811)
(-0.152859 0 0.0807661)
(0.0238176 0 0.152756)
(0.0136441 0 0.105002)
(-0.0281982 0 0.0817027)
(0.000476575 0 0.101189)
(0.0660525 0 0.0531132)
(0.00222508 0 -0.00271158)
(-0.0614582 0 0.0337635)
(-0.0353208 0 -0.00176243)
(-0.0411945 0 -0.00488265)
(-0.0456544 0 -0.00743898)
(-0.0503612 0 -0.00698198)
(-0.0541258 0 -0.0054663)
(-0.0579871 0 -0.00527262)
(-0.0610336 0 -0.00378098)
(-0.0630249 0 0.000877481)
(-0.0637414 0 0.00651514)
(-0.0643962 0 0.0115796)
(-0.0629776 0 0.01755)
(-0.0611589 0 0.026358)
(-0.0569196 0 0.0339751)
(-0.0497927 0 0.0429783)
(-0.0411263 0 0.0512233)
(-0.0191479 0 0.0566433)
(-0.00169718 0 0.0578376)
(-0.0524893 0 0.059639)
(-0.122095 0 0.0581877)
(-0.289353 0 0.0392509)
(-0.448758 0 0.0176444)
(-0.232553 0 0.0612872)
(-0.00955189 0 0.125034)
(0.00608032 0 0.0948453)
(-0.00488966 0 0.0614475)
(0.0112608 0 0.0953406)
(0.0386319 0 0.114316)
(-0.000530071 0 0.112355)
(-0.0661319 0 0.0500428)
(-0.0234934 0 -0.00246523)
(-0.0306718 0 -0.00617652)
(-0.0360478 0 -0.00939254)
(-0.0422487 0 -0.00981099)
(-0.0470226 0 -0.00943589)
(-0.0523939 0 -0.0105622)
(-0.0569981 0 -0.0102733)
(-0.0611265 0 -0.00727065)
(-0.0642419 0 -0.00298576)
(-0.0676036 0 0.00112092)
(-0.0694318 0 0.00658101)
(-0.0704385 0 0.0146636)
(-0.0695393 0 0.0227873)
(-0.0656286 0 0.032282)
(-0.0590412 0 0.0420387)
(-0.0349873 0 0.0512389)
(-0.0131474 0 0.0568013)
(-0.0506923 0 0.0618305)
(-0.101603 0 0.0630597)
(-0.258795 0 0.050519)
(-0.42694 0 0.031516)
(-0.24179 0 0.0297126)
(-0.0357981 0 0.072851)
(-0.000621476 0 0.0725599)
(0.0172215 0 0.052671)
(0.0113325 0 0.0855162)
(0.0269844 0 0.109725)
(0.0067165 0 0.100168)
(-0.0332591 0 0.0956789)
(-0.00946358 0 -0.00314874)
(-0.0177206 0 -0.00745813)
(-0.0241656 0 -0.0112778)
(-0.0316391 0 -0.0123816)
(-0.0373176 0 -0.012809)
(-0.0440276 0 -0.0147899)
(-0.0494267 0 -0.0159446)
(-0.0551935 0 -0.0143784)
(-0.0601968 0 -0.0117525)
(-0.0653498 0 -0.00927343)
(-0.0699974 0 -0.00490293)
(-0.0740257 0 0.00139599)
(-0.0763898 0 0.00889184)
(-0.0759807 0 0.017937)
(-0.0729845 0 0.0276856)
(-0.0497166 0 0.0388271)
(-0.0259915 0 0.0489691)
(-0.0540011 0 0.0571614)
(-0.0912745 0 0.0622341)
(-0.229995 0 0.0571516)
(-0.38932 0 0.0456545)
(-0.241704 0 0.033777)
(-0.0597172 0 0.0377346)
(-0.0074909 0 0.0401698)
(0.0278716 0 0.0402336)
(0.0189572 0 0.0679857)
(0.0151867 0 0.0926432)
(0.00670813 0 0.0904938)
(-0.0138782 0 0.0880023)
(0.00668887 0 -0.00386658)
(-0.00251767 0 -0.00874051)
(-0.0101577 0 -0.0131564)
(-0.018736 0 -0.0149045)
(-0.0254465 0 -0.0159718)
(-0.0333123 0 -0.0185811)
(-0.0394631 0 -0.0207852)
(-0.0464858 0 -0.0199014)
(-0.0523493 0 -0.0187354)
(-0.058656 0 -0.0183336)
(-0.0648519 0 -0.0156114)
(-0.0712944 0 -0.011821)
(-0.0768104 0 -0.00604686)
(-0.0801369 0 0.00160056)
(-0.0811825 0 0.0106836)
(-0.0599593 0 0.0218541)
(-0.0374035 0 0.0342866)
(-0.0594164 0 0.0441842)
(-0.0876064 0 0.0537239)
(-0.201256 0 0.05547)
(-0.340872 0 0.0513383)
(-0.212846 0 0.035204)
(-0.0662369 0 0.0285383)
(-0.0246233 0 0.0366785)
(0.0254118 0 0.0320394)
(0.0152901 0 0.0412452)
(0.00675399 0 0.0651841)
(0.0087098 0 0.0716076)
(0.00124968 0 0.076053)
(0.024969 0 -0.00460537)
(0.0147508 0 -0.0100692)
(0.00597598 0 -0.015036)
(-0.00352653 0 -0.0174708)
(-0.0114608 0 -0.0191497)
(-0.0204397 0 -0.0223392)
(-0.0274936 0 -0.0252598)
(-0.0355999 0 -0.0248318)
(-0.0420299 0 -0.0242153)
(-0.0492729 0 -0.0251954)
(-0.0557167 0 -0.0245525)
(-0.0635137 0 -0.0229379)
(-0.0711912 0 -0.0197397)
(-0.0770824 0 -0.0146031)
(-0.082228 0 -0.00682348)
(-0.0644626 0 0.00210906)
(-0.0445247 0 0.0139349)
(-0.0609981 0 0.0252569)
(-0.0838998 0 0.037672)
(-0.180639 0 0.0424442)
(-0.294916 0 0.0436549)
(-0.175247 0 0.0342793)
(-0.0487067 0 0.019492)
(-0.0110234 0 0.0272624)
(0.0314415 0 0.0287371)
(0.00862642 0 0.033995)
(-0.00229074 0 0.0453394)
(0.00681128 0 0.0451994)
(0.0088012 0 0.0557904)
(0.0452802 0 -0.00526404)
(0.0339262 0 -0.0113884)
(0.0242729 0 -0.016927)
(0.0137196 0 -0.0201476)
(0.00462769 0 -0.0224815)
(-0.00533726 0 -0.0261767)
(-0.0136282 0 -0.0296619)
(-0.0227433 0 -0.0297099)
(-0.0299603 0 -0.029339)
(-0.0382385 0 -0.0311347)
(-0.0448287 0 -0.0321645)
(-0.0534022 0 -0.0307812)
(-0.0613863 0 -0.029873)
(-0.0683253 0 -0.0278798)
(-0.0756885 0 -0.0225155)
(-0.0621389 0 -0.0178408)
(-0.0462756 0 -0.00869932)
(-0.0566825 0 0.00296064)
(-0.0746923 0 0.0163133)
(-0.156839 0 0.0208573)
(-0.255524 0 0.0248174)
(-0.162612 0 0.0239532)
(-0.0420244 0 0.0151383)
(0.000558971 0 0.0311981)
(0.0366484 0 0.0348784)
(0.00995231 0 0.0249036)
(-0.0129246 0 0.0339356)
(0.00379247 0 0.0387275)
(0.0124486 0 0.0397109)
(0.0673439 0 -0.00578743)
(0.0551508 0 -0.0125934)
(0.044664 0 -0.0187734)
(0.0328942 0 -0.0228215)
(0.0228961 0 -0.025898)
(0.0118474 0 -0.0302104)
(0.00224075 0 -0.0341528)
(-0.00774618 0 -0.0347639)
(-0.0160817 0 -0.0347594)
(-0.025524 0 -0.0370876)
(-0.0328189 0 -0.0392757)
(-0.042143 0 -0.0374065)
(-0.0500827 0 -0.0367189)
(-0.0577927 0 -0.0365802)
(-0.0651713 0 -0.0342719)
(-0.055281 0 -0.0331807)
(-0.0431536 0 -0.0282393)
(-0.0478269 0 -0.0193866)
(-0.060104 0 -0.00552854)
(-0.126044 0 -0.00413473)
(-0.211903 0 3.93255e-05)
(-0.170279 0 1.404e-05)
(-0.077945 0 0.000423755)
(-0.00455866 0 0.0408151)
(0.0390244 0 0.0520406)
(0.00932381 0 0.0301025)
(-0.0192032 0 0.0233299)
(0.00192558 0 0.0277479)
(0.0187501 0 0.0314485)
(0.0905487 0 -0.00610955)
(0.0781583 0 -0.0134814)
(0.0668948 0 -0.0203292)
(0.0542619 0 -0.0252822)
(0.0433596 0 -0.0291432)
(0.0310821 0 -0.0342953)
(0.0205794 0 -0.0387921)
(0.00930313 0 -0.0403118)
(-0.000279787 0 -0.0407815)
(-0.0109245 0 -0.0433146)
(-0.0194495 0 -0.0460525)
(-0.0293593 0 -0.0441946)
(-0.0375852 0 -0.0427067)
(-0.0463557 0 -0.043933)
(-0.0534257 0 -0.0436796)
(-0.046146 0 -0.0426058)
(-0.0369865 0 -0.0412427)
(-0.0379706 0 -0.0362891)
(-0.0440169 0 -0.0234228)
(-0.0923876 0 -0.0273515)
(-0.162084 0 -0.0248287)
(-0.166628 0 -0.0283649)
(-0.128199 0 -0.0278201)
(-0.024943 0 0.0240272)
(0.050832 0 0.0567521)
(0.019513 0 0.0352723)
(-0.0103196 0 0.0181063)
(0.000187083 0 0.0260063)
(0.0203639 0 0.0279276)
(0.114056 0 -0.0061763)
(0.101991 0 -0.0139032)
(0.0903459 0 -0.0213108)
(0.0775853 0 -0.0271058)
(0.065901 0 -0.0318384)
(0.0527245 0 -0.0381484)
(0.0413146 0 -0.0434128)
(0.028492 0 -0.0459215)
(0.0177618 0 -0.0471842)
(0.00578962 0 -0.0502495)
(-0.00417557 0 -0.0528403)
(-0.0151127 0 -0.0515798)
(-0.0239066 0 -0.0497773)
(-0.0337112 0 -0.0514661)
(-0.0411885 0 -0.0532114)
(-0.0357117 0 -0.0503235)
(-0.0278358 0 -0.0486269)
(-0.0271459 0 -0.0473003)
(-0.0291406 0 -0.0369018)
(-0.065133 0 -0.0437871)
(-0.115992 0 -0.0444174)
(-0.137727 0 -0.0501719)
(-0.148407 0 -0.0540262)
(-0.0426291 0 -0.0185367)
(0.0602835 0 0.0265441)
(0.0418172 0 0.019511)
(0.0113327 0 0.00493325)
(0.00413751 0 0.0251085)
(0.0145448 0 0.0289586)
(0.136937 0 -0.00596911)
(0.125483 0 -0.0137742)
(0.114161 0 -0.0215337)
(0.101857 0 -0.0279883)
(0.0898643 0 -0.0335306)
(0.0766026 0 -0.0410279)
(0.0644054 0 -0.0474071)
(0.0504399 0 -0.0513281)
(0.038476 0 -0.0535295)
(0.0249313 0 -0.0575357)
(0.0135172 0 -0.060345)
(0.00076162 0 -0.0599952)
(-0.0091945 0 -0.0588052)
(-0.0197458 0 -0.0595409)
(-0.0281996 0 -0.0621225)
(-0.0256596 0 -0.0583708)
(-0.0188577 0 -0.0540561)
(-0.0150669 0 -0.0550121)
(-0.0139046 0 -0.0474707)
(-0.0435997 0 -0.0551167)
(-0.0813726 0 -0.0573663)
(-0.101845 0 -0.0612358)
(-0.128218 0 -0.0686799)
(-0.0389426 0 -0.0601674)
(0.0633513 0 -0.0304185)
(0.0597288 0 -0.0200288)
(0.0430482 0 -0.0212038)
(0.0139566 0 0.00435658)
(0.0065254 0 0.0200115)
(0.158324 0 -0.00551359)
(0.147956 0 -0.0131063)
(0.13735 0 -0.0209397)
(0.12584 0 -0.027734)
(0.114297 0 -0.033911)
(0.101633 0 -0.0424385)
(0.0891839 0 -0.0499916)
(0.0750959 0 -0.0554236)
(0.0621522 0 -0.0590605)
(0.0473112 0 -0.0648418)
(0.0345935 0 -0.0685383)
(0.0199133 0 -0.0693532)
(0.00767217 0 -0.0693366)
(-0.00392162 0 -0.0692859)
(-0.013268 0 -0.0702586)
(-0.0145926 0 -0.0676207)
(-0.0107694 0 -0.0619895)
(-0.0018299 0 -0.0626704)
(0.00278773 0 -0.0572447)
(-0.0254737 0 -0.0637292)
(-0.0543862 0 -0.066072)
(-0.0693418 0 -0.068961)
(-0.0922109 0 -0.0737243)
(-0.027134 0 -0.0793843)
(0.0599503 0 -0.0774124)
(0.0613747 0 -0.0584836)
(0.0590131 0 -0.0452875)
(0.0219785 0 -0.0277936)
(-0.00605524 0 -0.00713036)
(0.177522 0 -0.00485369)
(0.168551 0 -0.0119757)
(0.15902 0 -0.0195934)
(0.148782 0 -0.0263857)
(0.138131 0 -0.0328931)
(0.126457 0 -0.0420824)
(0.11456 0 -0.0506475)
(0.101239 0 -0.0574471)
(0.0880221 0 -0.0626066)
(0.0730557 0 -0.0704532)
(0.0592769 0 -0.0759122)
(0.0431233 0 -0.0789306)
(0.0292206 0 -0.0798968)
(0.015224 0 -0.0814353)
(0.00402125 0 -0.0805296)
(0.00127341 0 -0.0788092)
(0.000714329 0 -0.0753893)
(0.0109963 0 -0.0738348)
(0.0211513 0 -0.0684683)
(-0.00764064 0 -0.0724324)
(-0.0340884 0 -0.0736319)
(-0.0479671 0 -0.074329)
(-0.0617348 0 -0.0764135)
(-0.0094908 0 -0.0845959)
(0.0550232 0 -0.0972694)
(0.0506883 0 -0.0769009)
(0.052435 0 -0.0602114)
(0.0247057 0 -0.0552267)
(-0.0112073 0 -0.0424573)
(0.19408 0 -0.00403258)
(0.186651 0 -0.010514)
(0.178439 0 -0.0176657)
(0.169755 0 -0.0240895)
(0.160358 0 -0.0305957)
(0.150192 0 -0.0400071)
(0.139392 0 -0.0492099)
(0.127309 0 -0.0570312)
(0.114775 0 -0.0635169)
(0.100695 0 -0.0732694)
(0.0866759 0 -0.0808199)
(0.0702209 0 -0.0863714)
(0.0551484 0 -0.0888932)
(0.0393993 0 -0.0937296)
(0.0261491 0 -0.0937548)
(0.0221979 0 -0.0938422)
(0.0200693 0 -0.0939334)
(0.0277958 0 -0.0894705)
(0.0390159 0 -0.0827722)
(0.0178193 0 -0.0835019)
(-0.00874715 0 -0.0831188)
(-0.0480342 0 -0.0859034)
(-0.0581206 0 -0.0844845)
(0.00440441 0 -0.0762164)
(0.0573253 0 -0.0918517)
(0.0455626 0 -0.0857769)
(0.0418107 0 -0.071844)
(0.0256076 0 -0.0715462)
(-0.00225166 0 -0.0684998)
(0.207759 0 -0.00310448)
(0.201916 0 -0.00884197)
(0.195161 0 -0.015362)
(0.188119 0 -0.0211323)
(0.180187 0 -0.0272783)
(0.171822 0 -0.0364588)
(0.162504 0 -0.0458782)
(0.152218 0 -0.0541705)
(0.141028 0 -0.0615992)
(0.128424 0 -0.072836)
(0.115171 0 -0.0823385)
(0.0996977 0 -0.0901226)
(0.0843061 0 -0.0947507)
(0.0675889 0 -0.103311)
(0.0529135 0 -0.106488)
(0.0463855 0 -0.109006)
(0.0434908 0 -0.113615)
(0.0512514 0 -0.106975)
(0.0606385 0 -0.0995566)
(0.046526 0 -0.101381)
(0.027701 0 -0.0999559)
(-0.0538273 0 -0.103225)
(-0.0884857 0 -0.103325)
(-0.00202363 0 -0.0697616)
(0.0634572 0 -0.0694596)
(0.047383 0 -0.0794187)
(0.0353868 0 -0.0797316)
(0.0250302 0 -0.0824814)
(0.00900729 0 -0.081548)
(0.21846 0 -0.0021278)
(0.2142 0 -0.0070409)
(0.208954 0 -0.0128291)
(0.203564 0 -0.0177576)
(0.197177 0 -0.0232731)
(0.190656 0 -0.0319207)
(0.183034 0 -0.0411366)
(0.174763 0 -0.0492657)
(0.165337 0 -0.0570696)
(0.154942 0 -0.0690671)
(0.143256 0 -0.080106)
(0.12949 0 -0.0897437)
(0.114868 0 -0.09635)
(0.098398 0 -0.108198)
(0.0828295 0 -0.115362)
(0.0725176 0 -0.120692)
(0.0670786 0 -0.129934)
(0.0759912 0 -0.122469)
(0.0858288 0 -0.116579)
(0.0639701 0 -0.121099)
(0.0513059 0 -0.123432)
(-0.0280695 0 -0.114383)
(-0.109981 0 -0.118724)
(-0.0103029 0 -0.0915931)
(0.0783154 0 -0.0670637)
(0.0559997 0 -0.0776601)
(0.0401515 0 -0.089501)
(0.0259658 0 -0.0819069)
(0.0153913 0 -0.0842666)
(0.226167 0 -0.00113004)
(0.223484 0 -0.00516169)
(0.219765 0 -0.0101446)
(0.21599 0 -0.0141538)
(0.211167 0 -0.0188578)
(0.206414 0 -0.0268006)
(0.200513 0 -0.0355185)
(0.194213 0 -0.0430193)
(0.186663 0 -0.0506303)
(0.178733 0 -0.0625687)
(0.169241 0 -0.0743794)
(0.158057 0 -0.0849906)
(0.14524 0 -0.0933465)
(0.129365 0 -0.108028)
(0.113769 0 -0.119116)
(0.0995985 0 -0.126497)
(0.0901789 0 -0.14013)
(0.101571 0 -0.134112)
(0.111959 0 -0.130944)
(0.0882853 0 -0.137384)
(0.0669453 0 -0.145182)
(0.00111264 0 -0.129868)
(-0.0792867 0 -0.127184)
(0.00211753 0 -0.13129)
(0.0980396 0 -0.10832)
(0.0790426 0 -0.102266)
(0.0546829 0 -0.109179)
(0.0315219 0 -0.0853848)
(0.0170264 0 -0.0805746)
(0.230924 0 -3.24913e-05)
(0.229747 0 -0.0032431)
(0.227608 0 -0.00736007)
(0.225385 0 -0.0104146)
(0.222134 0 -0.0142076)
(0.219059 0 -0.0213694)
(0.214811 0 -0.029423)
(0.210345 0 -0.0360429)
(0.204615 0 -0.0431143)
(0.199013 0 -0.0544182)
(0.191777 0 -0.0659613)
(0.183562 0 -0.0766273)
(0.173328 0 -0.0860488)
(0.158731 0 -0.102203)
(0.143749 0 -0.116825)
(0.127353 0 -0.126076)
(0.113955 0 -0.142585)
(0.129067 0 -0.140559)
(0.141217 0 -0.141331)
(0.117753 0 -0.15111)
(0.0939345 0 -0.162405)
(0.0309235 0 -0.152789)
(-0.0367212 0 -0.14354)
(0.0193415 0 -0.153734)
(0.0990787 0 -0.152025)
(0.0799521 0 -0.131863)
(0.0595899 0 -0.123693)
(0.0284165 0 -0.104922)
(0.00403428 0 -0.0871245)
(0.232633 0 0.00118314)
(0.233175 0 -0.00118578)
(0.232461 0 -0.00446643)
(0.231768 0 -0.00655184)
(0.230062 0 -0.00937398)
(0.228648 0 -0.0157246)
(0.226042 0 -0.0230632)
(0.223239 0 -0.0287588)
(0.219177 0 -0.0350616)
(0.215614 0 -0.0454553)
(0.21045 0 -0.0561457)
(0.205108 0 -0.0662749)
(0.197632 0 -0.0760659)
(0.18526 0 -0.0917889)
(0.17153 0 -0.108385)
(0.154017 0 -0.119227)
(0.138174 0 -0.137699)
(0.15288 0 -0.140656)
(0.16752 0 -0.146481)
(0.160453 0 -0.156115)
(0.135856 0 -0.1685)
(0.0606992 0 -0.175465)
(-0.00316532 0 -0.165244)
(0.0208723 0 -0.171942)
(0.0754535 0 -0.171132)
(0.0638054 0 -0.140487)
(0.0445198 0 -0.124305)
(0.0182408 0 -0.123562)
(-0.0128231 0 -0.110119)
(0.231422 0 0.00213651)
(0.233219 0 0.000855098)
(0.234245 0 -0.00155747)
(0.235156 0 -0.00242335)
(0.234971 0 -0.00429713)
(0.235256 0 -0.00989857)
(0.234353 0 -0.016485)
(0.233063 0 -0.0212909)
(0.230645 0 -0.026666)
(0.228838 0 -0.0363044)
(0.225508 0 -0.0461888)
(0.222144 0 -0.0551887)
(0.217068 0 -0.0647143)
(0.207455 0 -0.078616)
(0.195782 0 -0.0952458)
(0.179069 0 -0.106917)
(0.162239 0 -0.126399)
(0.17735 0 -0.133974)
(0.191523 0 -0.144647)
(0.191867 0 -0.155106)
(0.181583 0 -0.164773)
(0.0931362 0 -0.18316)
(0.0158616 0 -0.182673)
(0.0195159 0 -0.18652)
(0.0439701 0 -0.181856)
(0.0452254 0 -0.153971)
(0.0331842 0 -0.13071)
(0.014802 0 -0.134131)
(-0.0114476 0 -0.131914)
(0.227781 0 0.00295605)
(0.23093 0 0.00261839)
(0.233102 0 0.00130266)
(0.235546 0 0.00166253)
(0.236976 0 0.000960184)
(0.238821 0 -0.00381469)
(0.239681 0 -0.00962325)
(0.239997 0 -0.0135314)
(0.23917 0 -0.0179203)
(0.238911 0 -0.0270009)
(0.237351 0 -0.0366238)
(0.235179 0 -0.0440965)
(0.231689 0 -0.0524755)
(0.224596 0 -0.0646396)
(0.215076 0 -0.0798537)
(0.200885 0 -0.0908676)
(0.184467 0 -0.109939)
(0.202478 0 -0.120784)
(0.217748 0 -0.135882)
(0.225561 0 -0.150045)
(0.224432 0 -0.160456)
(0.115097 0 -0.180902)
(0.0237671 0 -0.189121)
(0.0120504 0 -0.187835)
(0.0149904 0 -0.183587)
(0.0235209 0 -0.169683)
(0.0243808 0 -0.148124)
(0.0160712 0 -0.148947)
(-0.00221359 0 -0.145374)
(0.221562 0 0.00391565)
(0.225746 0 0.00455237)
(0.229006 0 0.00416327)
(0.232938 0 0.00556385)
(0.235851 0 0.00608806)
(0.239185 0 0.00245695)
(0.241603 0 -0.00245187)
(0.243836 0 -0.00514856)
(0.244773 0 -0.00863559)
(0.246488 0 -0.0173504)
(0.246667 0 -0.0268359)
(0.245409 0 -0.0332402)
(0.242977 0 -0.0399811)
(0.237301 0 -0.051524)
(0.229535 0 -0.0652143)
(0.218585 0 -0.0739852)
(0.204173 0 -0.0906885)
(0.228477 0 -0.10338)
(0.246289 0 -0.121366)
(0.262292 0 -0.138588)
(0.269338 0 -0.152966)
(0.138025 0 -0.177563)
(0.0283388 0 -0.186671)
(0.00608869 0 -0.183654)
(-0.00614807 0 -0.177308)
(0.00322907 0 -0.175333)
(0.0113722 0 -0.162007)
(0.0103975 0 -0.162125)
(0.00162869 0 -0.156648)
(0.213145 0 0.00474967)
(0.21828 0 0.00627188)
(0.222537 0 0.00682108)
(0.227465 0 0.00928774)
(0.231625 0 0.0108823)
(0.23641 0 0.0086035)
(0.240206 0 0.00483741)
(0.244325 0 0.00344394)
(0.247255 0 0.00108117)
(0.250709 0 -0.00687144)
(0.253141 0 -0.0159477)
(0.25334 0 -0.0217642)
(0.252375 0 -0.0273348)
(0.247426 0 -0.0395344)
(0.240754 0 -0.0526308)
(0.231507 0 -0.058906)
(0.219491 0 -0.0713531)
(0.255609 0 -0.0838865)
(0.279329 0 -0.102849)
(0.300921 0 -0.12436)
(0.316388 0 -0.141415)
(0.161396 0 -0.167939)
(0.0295746 0 -0.180816)
(-0.00617239 0 -0.17832)
(-0.0277105 0 -0.170257)
(-0.0109668 0 -0.170673)
(-0.00164025 0 -0.164976)
(0.0024237 0 -0.167637)
(0.00126257 0 -0.164333)
(0.203139 0 0.00540044)
(0.208901 0 0.00758981)
(0.214083 0 0.00900339)
(0.219831 0 0.012571)
(0.22483 0 0.0152533)
(0.230681 0 0.0142609)
(0.235739 0 0.0118055)
(0.241353 0 0.0118165)
(0.246009 0 0.0107522)
(0.251258 0 0.00432411)
(0.255525 0 -0.00383323)
(0.258684 0 -0.00852599)
(0.259818 0 -0.0135897)
(0.255311 0 -0.0268382)
(0.250491 0 -0.0403908)
(0.239784 0 -0.0460552)
(0.229282 0 -0.0536585)
(0.282775 0 -0.0653487)
(0.31753 0 -0.0829305)
(0.343649 0 -0.108579)
(0.365547 0 -0.129377)
(0.181411 0 -0.155574)
(0.0265593 0 -0.1712)
(-0.0213863 0 -0.166058)
(-0.0570122 0 -0.158582)
(-0.0275895 0 -0.160364)
(-0.0102937 0 -0.158599)
(-0.00441421 0 -0.165464)
(-0.000375881 0 -0.165911)
(0.191941 0 0.00584598)
(0.19856 0 0.00864516)
(0.204054 0 0.0107145)
(0.210174 0 0.0151969)
(0.215934 0 0.0189938)
(0.222619 0 0.0192004)
(0.228538 0 0.0179985)
(0.235121 0 0.0195314)
(0.241023 0 0.0199098)
(0.24804 0 0.0154024)
(0.253941 0 0.00885734)
(0.2602 0 0.00544314)
(0.26447 0 0.00129184)
(0.261076 0 -0.0117548)
(0.257815 0 -0.0259177)
(0.243282 0 -0.0318314)
(0.232654 0 -0.037101)
(0.307385 0 -0.0483135)
(0.360218 0 -0.0638148)
(0.386658 0 -0.093437)
(0.413763 0 -0.118629)
(0.200867 0 -0.139744)
(0.0180522 0 -0.156775)
(-0.0366381 0 -0.150172)
(-0.0837408 0 -0.141114)
(-0.0414254 0 -0.149384)
(-0.0117486 0 -0.149283)
(-0.00700003 0 -0.159472)
(-0.000889924 0 -0.163017)
(0.186318 0 0.00918217)
(0.180259 0 0.00615681)
(0.192808 0 0.0118514)
(0.199597 0 0.0173276)
(0.205431 0 0.0220538)
(0.212503 0 0.0231632)
(0.219169 0 0.0231176)
(0.226329 0 0.0261817)
(0.232953 0 0.0281032)
(0.241226 0 0.0254383)
(0.248567 0 0.0208073)
(0.256878 0 0.0192671)
(0.263917 0 0.016202)
(0.263082 0 0.00583437)
(0.261209 0 -0.00766033)
(0.239913 0 -0.01411)
(0.227344 0 -0.0193429)
(0.322533 0 -0.0282108)
(0.400002 0 -0.0423203)
(0.427314 0 -0.0749586)
(0.454753 0 -0.105951)
(0.20334 0 -0.120408)
(-0.00771568 0 -0.134269)
(-0.0465401 0 -0.123088)
(-0.0992923 0 -0.114311)
(-0.0545915 0 -0.140297)
(-0.0121502 0 -0.143946)
(-0.00365101 0 -0.149134)
(0.00140514 0 -0.156616)
(0.187101 0 0.0185827)
(0.180848 0 0.0124494)
(0.168724 0 0.0097973)
(0.151862 0 0.00640622)
(0.193767 0 0.0243078)
(0.201386 0 0.0263329)
(0.20814 0 0.0271503)
(0.215436 0 0.0315289)
(0.222521 0 0.0349965)
(0.23162 0 0.0339543)
(0.23988 0 0.0310776)
(0.249069 0 0.0317971)
(0.257601 0 0.0303846)
(0.258399 0 0.0238092)
(0.258391 0 0.0134769)
(0.232884 0 0.00782476)
(0.212772 0 0.00185735)
(0.320449 0 -0.00399734)
(0.419956 0 -0.0144485)
(0.45263 0 -0.0418144)
(0.486655 0 -0.0782863)
(0.202016 0 -0.0963245)
(-0.0484288 0 -0.104971)
(-0.0696668 0 -0.093619)
(-0.108755 0 -0.0809856)
(-0.0633237 0 -0.116971)
(-0.0177749 0 -0.136502)
(-0.00187297 0 -0.136726)
(0.00663798 0 -0.144567)
(0.188436 0 0.0283387)
(0.181355 0 0.0257327)
(0.168775 0 0.0198566)
(0.151691 0 0.0123293)
(0.13617 0 0.00907049)
(0.127521 0 0.00564824)
(0.195938 0 0.03005)
(0.203467 0 0.035754)
(0.210384 0 0.0405469)
(0.219889 0 0.0407352)
(0.228828 0 0.0393788)
(0.23819 0 0.0421894)
(0.247217 0 0.0429225)
(0.248714 0 0.0393972)
(0.249329 0 0.0333116)
(0.225114 0 0.0303263)
(0.199717 0 0.0249085)
(0.297189 0 0.0170473)
(0.403153 0 0.0102359)
(0.461846 0 0.00766473)
(0.499947 0 -0.0228431)
(0.194148 0 -0.0508755)
(-0.0891607 0 -0.0638506)
(-0.0949822 0 -0.0690443)
(-0.116622 0 -0.054794)
(-0.0661026 0 -0.0884429)
(-0.020422 0 -0.118983)
(-0.00857266 0 -0.11526)
(0.00699834 0 -0.122619)
(0.189736 0 0.0386018)
(0.18288 0 0.0318139)
(0.169115 0 0.0302773)
(0.151151 0 0.0261478)
(0.135291 0 0.0184665)
(0.126477 0 0.010081)
(0.119589 0 0.00680013)
(0.110624 0 0.00365792)
(0.197141 0 0.0447146)
(0.206972 0 0.0459785)
(0.21603 0 0.0457708)
(0.225144 0 0.0504429)
(0.234188 0 0.0533403)
(0.23606 0 0.051898)
(0.236998 0 0.0490712)
(0.215994 0 0.0484233)
(0.190608 0 0.0456903)
(0.264476 0 0.0368772)
(0.358019 0 0.0285591)
(0.431115 0 0.0489314)
(0.482474 0 0.043416)
(0.197459 0 0.0197909)
(-0.102798 0 -0.00756219)
(-0.114609 0 -0.0415787)
(-0.12425 0 -0.0412937)
(-0.0656003 0 -0.0639352)
(-0.0154392 0 -0.0956532)
(-0.015341 0 -0.0917216)
(-0.00307242 0 -0.0946841)
(0.192279 0 0.0495653)
(0.183192 0 0.0474242)
(0.169186 0 0.0413316)
(0.15084 0 0.0321033)
(0.133988 0 0.0282843)
(0.124805 0 0.0227555)
(0.117842 0 0.0143429)
(0.107735 0 0.00491398)
(0.0989608 0 0.00203433)
(0.105945 0 7.20785e-05)
(0.202012 0 0.0503738)
(0.210915 0 0.0568008)
(0.219443 0 0.0617797)
(0.221275 0 0.0616272)
(0.222611 0 0.0609279)
(0.205959 0 0.0626175)
(0.183822 0 0.0627938)
(0.235426 0 0.0533907)
(0.305956 0 0.0457864)
(0.380487 0 0.0743196)
(0.4436 0 0.0902322)
(0.245006 0 0.0763928)
(-0.0437206 0 0.0473508)
(-0.114459 0 -0.0212094)
(-0.124988 0 -0.0479476)
(-0.0610304 0 -0.041076)
(-0.00373255 0 -0.0663545)
(-0.0189118 0 -0.0717757)
(-0.0192338 0 -0.0715265)
(0.194947 0 0.0614358)
(0.18691 0 0.0532863)
(0.169994 0 0.0529246)
(0.14959 0 0.0485979)
(0.13229 0 0.0391)
(0.121816 0 0.027561)
(0.114567 0 0.0224514)
(0.104658 0 0.0142373)
(0.0946026 0 0.00498495)
(0.100947 0 -0.00434554)
(0.108021 0 -0.00586265)
(0.118432 0 -0.00684171)
(0.203654 0 0.0684058)
(0.205284 0 0.0689909)
(0.206345 0 0.069491)
(0.193826 0 0.0739652)
(0.176528 0 0.0770097)
(0.212983 0 0.0680524)
(0.262679 0 0.0612573)
(0.330954 0 0.0850675)
(0.399362 0 0.110092)
(0.264425 0 0.106134)
(0.0582628 0 0.0897443)
(-0.0449056 0 0.00434759)
(-0.112538 0 -0.0586012)
(-0.0563824 0 -0.0298492)
(0.00601381 0 -0.0291651)
(-0.0185953 0 -0.0477202)
(-0.0335012 0 -0.051679)
(0.187154 0 0.0741894)
(0.187428 0 0.0728361)
(0.170679 0 0.0656976)
(0.149888 0 0.0545482)
(0.130519 0 0.0506866)
(0.118497 0 0.0434795)
(0.109989 0 0.0318211)
(0.0985348 0 0.0164111)
(0.0887263 0 0.00897728)
(0.0954737 0 0.000115759)
(0.102557 0 -0.00894922)
(0.107521 0 -0.0213329)
(0.118702 0 -0.0213436)
(0.160523 0 -0.00967254)
(0.18842 0 0.0753366)
(0.180628 0 0.08283)
(0.167325 0 0.0888994)
(0.193341 0 0.0809462)
(0.229341 0 0.0753851)
(0.287605 0 0.0928937)
(0.354067 0 0.11531)
(0.259514 0 0.118222)
(0.122488 0 0.117307)
(0.0124603 0 0.059945)
(-0.0898271 0 -0.0204121)
(-0.0684015 0 -0.0116964)
(-0.0104449 0 0.0113793)
(-0.0178996 0 -0.0184266)
(-0.04303 0 -0.0320345)
(0.163974 0 0.0893736)
(0.169101 0 0.0792778)
(0.158745 0 0.0793521)
(0.147851 0 0.0755377)
(0.12817 0 0.0637063)
(0.11495 0 0.048842)
(0.104881 0 0.0423556)
(0.0923208 0 0.0307504)
(0.0812713 0 0.0154704)
(0.0835982 0 -0.00199708)
(0.0916162 0 -0.00978995)
(0.0972644 0 -0.0263433)
(0.102764 0 -0.0380757)
(0.140518 0 -0.0385613)
(0.181726 0 -0.026531)
(0.208963 0 -0.0160726)
(0.156002 0 0.0983755)
(0.177162 0 0.0915715)
(0.202633 0 0.0875887)
(0.246665 0 0.101205)
(0.306005 0 0.118662)
(0.233374 0 0.128705)
(0.137759 0 0.134803)
(0.0411454 0 0.107044)
(-0.0663769 0 0.053745)
(-0.0738342 0 0.0430801)
(-0.0516359 0 0.0473002)
(-0.0293932 0 0.0174022)
(-0.0370018 0 -0.00708116)
(0.159502 0 0.099545)
(0.143061 0 0.10449)
(0.138083 0 0.0955588)
(0.122126 0 0.082369)
(0.112729 0 0.0777654)
(0.110124 0 0.0700827)
(0.0987483 0 0.0547308)
(0.0842007 0 0.0348387)
(0.0724957 0 0.0244718)
(0.0716135 0 0.0099053)
(0.0755229 0 -0.00712599)
(0.0779239 0 -0.0338811)
(0.084278 0 -0.0481765)
(0.117184 0 -0.0568184)
(0.155878 0 -0.0565531)
(0.195333 0 -0.0600034)
(0.215381 0 -0.0478625)
(0.289881 0 -0.0129344)
(0.181143 0 0.0972626)
(0.213532 0 0.108163)
(0.259127 0 0.121981)
(0.195081 0 0.136763)
(0.123192 0 0.147904)
(0.0437031 0 0.13956)
(-0.0540513 0 0.111167)
(-0.0642066 0 0.0980213)