/*--------------------------------*- C++ -*----------------------------------*\
| =========                 |                                                 |
| \\      /  F ield         | OpenFOAM: The Open Source CFD Toolbox           |
|  \\    /   O peration     | Version:  5.x                                   |
|   \\  /    A nd           | Web:      www.OpenFOAM.org                      |
|    \\/     M anipulation  |                                                 |
\*---------------------------------------------------------------------------*/
FoamFile
{
    version     2.0;
    format      ascii;
    class       volScalarField;
    location    "2.2";
    object      alpha.water;
}
// * * * * * * * * * * * * * * * * * * * * * * * * * * * * * * * * * * * * * //

dimensions      [0 0 0 0 0 0 0];

internalField   nonuniform List<scalar> 
12160
(
1
1
1
1
1
1
1
1
1
1
1
1
1
1
1
1
1
1
1
1
1
1
1
1
1
1
1
1
1
1
1
1
1
1
0.999995
1
1
1
1
1
1
1
0.999998
0.99121
0.50763
1
1
1
1
1
1
1
0.994291
0.560938
0.0194879
1
1
1
1
1
1
1
0.996702
0.580331
0.0212274
0.000887649
1
1
1
1
1
1
0.999998
0.996178
0.612595
0.0219806
0.000448379
9.03785e-06
1
1
1
1
1
1
0.999995
0.994842
0.638249
0.0268497
0.000105151
3.1769e-06
6.49875e-09
1
1
1
1
1
1
0.99999
0.993391
0.662206
0.0377674
4.0449e-05
3.13036e-07
4.1167e-10
2.41922e-12
1
1
1
1
1
1
0.999987
0.992767
0.686827
0.0508672
6.72929e-05
3.28298e-08
2.28342e-10
5.40285e-13
1.57801e-17
1
1
1
1
1
1
0.999988
0.993039
0.714265
0.06674
0.000119901
5.56578e-08
4.3411e-12
3.19665e-14
7.54781e-20
1
1
1
1
1
1
0.99999
0.993798
0.746754
0.0882928
0.000248537
1.08084e-07
1.39841e-11
2.13064e-16
2.00077e-18
1
1
1
1
1
1
0.999993
0.994879
0.78497
0.118269
0.000508479
2.56564e-07
2.88785e-11
6.47429e-16
5.91256e-21
1
1
1
1
1
1
0.999997
0.996
0.824338
0.155359
0.00127318
4.7808e-07
8.64486e-11
1.1884e-15
1.72907e-20
1
1
1
1
1
1
0.999999
0.997192
0.856403
0.196778
0.00361575
9.31393e-07
1.81806e-10
3.61851e-15
2.76316e-20
1
1
1
1
1
1
1
0.998476
0.879948
0.2387
0.00780835
2.76274e-06
4.21115e-10
7.47861e-15
9.99103e-20
1
1
1
1
1
1
1
0.999676
0.897566
0.275493
0.0131791
2.03293e-05
1.15533e-09
1.84407e-14
2.13934e-19
1
1
1
1
1
1
1
0.999991
0.911302
0.304727
0.0186192
9.73107e-05
6.94663e-09
5.0801e-14
5.81681e-19
1
1
1
1
1
1
1
1
0.921319
0.32946
0.0231514
0.000217174
7.24913e-08
3.56783e-13
1.61704e-18
0.999999
0.999999
1
1
1
1
1
1
0.931171
0.354331
0.0270029
0.00034048
2.97839e-07
3.925e-12
1.59568e-17
1
1
0.999999
1
1
1
1
0.999999
0.942527
0.385372
0.0313995
0.00044412
6.56033e-07
3.10069e-11
1.61851e-16
1
1
1
1
1
1
1
0.99993
0.953134
0.427209
0.037525
0.000537811
9.90361e-07
1.07062e-10
1.15798e-15
1
1
1
1
1
1
1
0.999865
0.960432
0.478743
0.0469653
0.000666012
1.22276e-06
1.95326e-10
4.17308e-15
1
1
1
1
1
1
1
0.999825
0.965277
0.536496
0.0610384
0.00100937
1.82391e-06
2.60954e-10
7.98629e-15
0.999999
0.999999
0.999999
1
1
1
1
0.999786
0.96868
0.590634
0.0785051
0.0018382
4.76892e-06
6.98247e-10
1.21076e-14
0.999999
0.999999
0.999999
0.999999
1
1
1
0.999739
0.97
0.631962
0.0966999
0.00324176
1.31181e-05
4.51271e-09
4.19762e-14
1
1
0.999999
0.999999
0.999999
1
1
0.999678
0.969073
0.654765
0.112539
0.00502734
2.85513e-05
1.96593e-08
4.62311e-13
1
1
1
0.999999
0.999999
1
1
0.999579
0.965743
0.656008
0.122165
0.0068731
6.01202e-05
6.44155e-08
3.20666e-12
1
1
1
1
0.999999
1
0.999999
0.999398
0.958889
0.633959
0.121845
0.00812954
0.0001129
2.09895e-07
1.8436e-11
1
1
1
1
1
1
0.999999
0.99907
0.947041
0.58876
0.109145
0.00823173
0.000163585
5.3842e-07
9.62081e-11
1
1
1
1
1
1
0.999998
0.998509
0.928965
0.523488
0.0888004
0.00709477
0.000172935
8.90988e-07
3.37631e-10
1
1
1
1
1
1
0.999996
0.997584
0.903938
0.443648
0.0664176
0.00527205
0.000145458
9.47807e-07
6.10949e-10
1
1
1
1
1
1
0.999991
0.996129
0.871816
0.3581
0.0458957
0.00339896
9.33529e-05
8.12271e-07
6.16088e-10
1
1
1
1
1
1
0.999977
0.993835
0.833702
0.275889
0.0295172
0.00194756
4.4995e-05
4.93755e-07
5.17298e-10
1
1
1
1
1
1
0.999945
0.989987
0.789185
0.205296
0.0180039
0.000960961
1.92134e-05
1.86953e-07
2.78127e-10
1
1
1
1
1
1
0.999882
0.983985
0.734112
0.15083
0.0108555
0.000384235
7.82722e-06
5.47671e-08
7.46807e-11
1
1
1
1
1
1
0.999767
0.975956
0.67108
0.111197
0.00674841
0.00013537
2.84327e-06
1.3953e-08
1.32044e-11
1
1
1
1
1
0.999999
0.999586
0.96633
0.606799
0.0816557
0.00429589
5.43118e-05
8.98302e-07
3.03553e-09
1.79229e-12
1
1
1
1
1
0.999999
0.999339
0.956198
0.548064
0.0603885
0.00275525
2.72615e-05
2.84462e-07
5.72678e-10
1.81851e-13
0.999998
1
1
1
1
1
0.999033
0.946459
0.498133
0.0464655
0.00177944
1.68557e-05
9.83621e-08
1.10624e-10
1.93365e-14
0.998709
0.999997
1
1
1
1
1
0.937402
0.457733
0.0379293
0.00116085
1.22496e-05
4.1695e-08
2.51566e-11
3.14371e-15
0.930332
0.998169
0.999993
1
1
1
1
1
0.425789
0.0328323
0.000795244
8.81128e-06
2.21003e-08
7.38819e-12
6.66506e-16
0.401438
0.922478
0.997442
0.99999
1
1
1
1
1
0.0296132
0.000593352
6.10312e-06
1.44157e-08
3.12674e-12
1.96092e-16
0.0271708
0.371574
0.914765
0.997001
0.999981
1
1
1
1
1
0.000466355
4.20755e-06
9.99524e-09
1.95853e-12
9.79119e-17
0.000348009
0.0246096
0.350096
0.912383
0.996095
0.999963
0.999999
1
1
0.999999
1
2.87674e-06
6.60815e-09
1.4345e-12
6.72849e-17
1.74413e-06
0.00025995
0.0243878
0.347094
0.908134
0.995127
0.999779
0.999989
0.999999
1
0.999999
1
4.29885e-09
1.00212e-12
5.12626e-17
2.64156e-09
8.5143e-07
0.000280493
0.0257929
0.347441
0.90731
0.990686
0.99917
0.999968
1
0.999999
1
1
1
6.89445e-13
3.86083e-17
4.99925e-13
1.01527e-09
7.71924e-07
0.000349801
0.0286882
0.357236
0.90234
0.98396
0.998722
0.999996
0.999998
1
1
1
1
1
2.89056e-17
2.38479e-17
1.97109e-13
8.43745e-10
1.06426e-06
0.000499656
0.0313375
0.37312
0.896042
0.97902
0.999766
0.999998
1
1
1
1
1
1
1
1.12815e-17
2.32597e-13
1.04645e-09
2.11176e-06
0.000675975
0.0361485
0.391364
0.849123
0.989134
0.999994
0.999999
1
1
1
0.999999
1
1
1
1
1.96015e-17
3.205e-13
3.04607e-09
1.16086e-05
0.00196184
0.0433082
0.392684
0.825398
0.998537
0.999999
1
1
1
1
0.99999
0.999995
1
1
1
1
6.17016e-17
2.87891e-11
6.20686e-07
0.000424672
0.00672385
0.0631797
0.279407
0.917264
0.999999
1
1
1
1
1
0.999947
0.999905
0.999991
1
1
1
1
1.65436e-13
3.10171e-08
8.19795e-05
0.00213004
0.00968395
0.0399053
0.250459
0.988714
0.999999
1
1
1
1
0.999998
0.999747
0.999625
0.999753
0.999928
0.999918
0.999757
0.999989
1
1
1
1
3.93211e-10
7.98434e-06
0.000728924
0.00275629
0.00728003
0.0138699
0.494686
0.999912
1
1
1
1
1
0.999998
0.999295
0.999587
0.998866
0.999283
0.998838
0.998818
0.999584
0.999891
0.999889
0.999748
0.99999
0.999999
1
1
1
1.96703e-07
0.000151513
0.00120698
0.00115523
0.00208443
0.0136105
0.701518
0.999943
1
1
1
1
0.999996
0.999936
0.999935
0.999999
0.999979
0.999021
0.999742
0.998134
0.99805
0.999038
0.998461
0.998437
0.999526
1
0.999976
0.999925
0.999979
0.999992
0.999999
1
1
9.36436e-06
0.000384595
0.000652034
0.000108731
0.000780538
0.03377
0.824286
0.999988
1
1
1
0.999997
0.999999
0.999999
0.999999
0.999999
0.999746
1
0.999761
0.999724
0.998792
1
0.999886
1
0.999571
0.999242
0.99805
0.998112
0.998092
0.998049
0.99805
0.99848
0.99805
0.99805
1
0.999723
1
0.999747
1
1
1
0.999608
1
1
1
0.999819
0.999938
0.999848
0.999935
0.999996
1
1
4.51059e-05
0.000324393
4.76778e-05
6.51269e-06
0.000710455
0.0602042
0.933484
0.999981
1
1
1
0.999999
0.999999
0.999998
1
0.999937
0.999924
0.999973
0.999983
0.999169
0.99957
1
0.999264
1
1
0.999781
0.999276
1
0.999309
1
1
0.999745
1
0.999724
1
0.999714
1
0.999698
1
1
0.99913
1
0.998336
1
0.999928
1
0.999559
0.999815
0.998918
0.998374
0.998356
0.998152
0.998096
0.998969
0.997884
0.997987
0.997886
1
0.998923
1
0.998651
0.999015
0.998401
0.999095
0.998205
0.998778
0.99818
0.998717
0.998124
1
0.999772
1
0.999715
1
0.999082
1
0.999638
0.999388
0.999293
0.999751
0.999989
1
0.999999
3.78189e-05
3.57044e-05
4.26268e-06
2.43768e-06
0.00077362
0.0992092
0.918896
0.999958
0.999999
1
1
1
1
1
0.999989
0.999999
0.999995
1
0.999941
1
0.999942
1
0.999933
1
0.999936
1
0.999974
1
0.999973
1
0.999988
1
0.999988
1
0.999208
0.999172
1
1
0.999347
1
0.999328
0.999003
1
1
0.999014
1
0.999746
1
0.999744
1
0.999716
1
0.999699
1
0.999994
0.999238
1
0.998422
1
0.999942
1
0.999469
0.999596
0.999809
0.999387
0.999393
0.999021
0.998995
0.998284
0.998333
0.997524
0.997883
0.996523
1
0.996526
1
0.997886
0.998298
0.997886
0.998284
0.998707
0.998659
1
0.997585
1
0.999922
0.998312
0.998414
0.998977
0.997945
0.998886
0.999457
0.99998
0.999113
1
0.998654
0.999794
0.998474
0.999532
0.998334
1
0.999897
1
0.999913
1
0.998851
1
0.99937
0.997763
0.998275
0.999569
0.999987
0.999999
0.999999
7.05252e-07
6.22287e-06
9.99604e-07
1.45315e-06
0.000950355
0.0719848
0.84024
0.996321
0.999912
1
1
1
1
1
1
1
1
0.999989
1
0.99999
1
0.999999
1
0.999999
1
0.999996
1
0.999996
1
1
1
1
1
0.999976
1
0.999947
1
0.999957
1
0.999966
1
0.999974
1
0.99999
1
0.999991
1
1
1
0.999998
0.999331
1
0.998455
0.998206
0.999845
0.999882
0.999859
0.999835
0.999831
0.999337
0.999386
0.998274
0.998276
0.998076
0.997973
0.997901
0.997904
0.997938
0.9981
0.997886
0.997887
0.996635
1
0.997944
1
0.997884
0.998527
0.997884
0.998357
0.996556
1
0.996549
1
0.997887
0.998725
0.997887
0.998737
0.999144
0.998288
1
1
0.997141
1
0.998895
0.998165
0.999512
0.999945
0.997948
0.999664
0.99999
0.999348
1
0.998812
0.999999
0.998728
0.99995
0.998762
0.997246
0.997596
0.999601
0.999994
0.999998
0.999998
1.44702e-08
1.03936e-06
1.58924e-07
1.45543e-06
0.00115806
0.0324426
0.657928
0.964843
1
1
1
1
1
1
1
1
1
0.999989
1
0.99999
1
1
1
1
1
0.999997
1
0.999997
1
1
1
1
1
0.999978
1
0.999992
1
0.997246
0.9993
0.999781
0.999749
0.99987
0.999833
0.999959
0.999879
0.999865
0.999828
0.999441
1
0.999405
1
0.999465
1
0.999454
1
0.998369
0.999732
0.998532
0.99976
0.99842
1
0.998573
1
0.997982
0.998122
0.997912
0.99789
0.998062
0.998165
0.997909
0.997889
0.996651
1
0.998182
1
0.997914
0.998518
0.997918
0.998242
0.997246
0.99807
0.99983
0.999994
0.999996
0.999998
8.05959e-10
4.62829e-08
8.37035e-08
1.57319e-06
0.0005823
0.0127327
0.405847
0.898306
0.999939
0.999935
0.993224
0.993
1
1
0.999999
0.999999
1
1
1
1
1
1
1
1
1
1
1
1
1
1
1
1
0.99999
1
0.999992
1
1
1
1
1
0.999998
1
0.999998
1
1
1
1
1
0.997287
0.999057
0.999714
0.999784
0.999735
0.999875
0.999822
1
0.999989
1
1
0.999452
1
0.999408
1
0.99946
1
0.999426
1
0.99838
0.99998
0.998553
0.999976
0.998455
1
0.9986
1
0.998106
0.999038
0.998124
0.999063
0.997246
0.998984
0.999904
0.999996
0.999993
0.999998
1.35518e-10
9.09735e-09
7.85594e-08
7.30001e-07
0.000352436
0.00439846
0.200885
0.742471
1
1
0.980532
0.980275
0.999998
1
1
0.999998
0.999998
1
1
0.999999
1
1
1
1
1
1
1
1
1
1
1
0.999999
1
1
1
0.999999
1
1
1
1
1
1
0.998696
0.999242
0.999697
0.999868
0.999855
0.999837
0.999849
0.999931
0.999928
0.999874
0.999848
1
1
1
0.999918
1
0.999973
1
0.999853
1
0.999643
1
0.999865
1
0.999658
1
0.999852
0.999452
1
0.999469
1
0.999493
1
0.999483
1
0.99846
1
0.998632
1
0.998506
1
0.998669
1
0.998053
0.99967
0.999978
0.999998
0.999992
2.24525e-11
8.0222e-09
4.77066e-08
2.68593e-07
0.000191878
0.00430263
0.0826206
0.707202
0.707342
0.47249
0.472256
0.997623
1
0.997394
1
0.997676
1
0.997422
1
0.995603
0.99575
0.999997
1
1
0.999999
0.999997
1
1
0.999998
0.99961
1
1
1
0.999502
1
1
1
1
0.999999
1
1
1
0.999999
1
1
0.999463
0.999631
0.99962
0.999915
0.999983
0.999983
0.999991
0.999992
0.999943
0.999956
1
1
1
0.99996
0.999984
1
1
0.999914
1
0.999923
1
0.999823
1
0.99995
1
0.999862
1
0.999655
1
0.99981
1
0.999686
1
0.999858
0.999534
1
0.999519
1
0.999564
0.999931
0.999999
0.999997
1.26605e-11
8.47552e-09
1.41994e-08
6.81811e-08
0.000304823
0.00406693
0.055094
0.0551248
0.0078459
0.00786366
0.64769
0.648181
0.311353
0.310911
0.997766
1
0.997466
1
0.997833
1
0.997519
1
0.997703
0.79446
0.971025
0.884128
0.997977
0.794211
0.971327
0.884023
1
1
1
0.999999
1
1
1
0.999998
0.999233
1
0.9999
1
0.999267
1
0.99985
1
0.999646
0.999729
0.999053
0.999537
0.999463
0.999424
0.999603
0.999635
0.999964
0.999962
0.999947
1
0.999914
1
0.99995
1
0.999922
1
0.999937
1
0.999849
1
0.999951
1
0.999939
1
0.999887
1
0.999978
1
0.999902
1
0.999953
1
1
0.999864
1
0.999791
1
0.999864
1
0.999863
0.99991
0.999996
1
4.62103e-11
4.55978e-09
1.4246e-09
7.07722e-08
0.000205362
0.0070595
0.033584
0.0333938
0.00781877
0.0077992
0.554981
0.75636
0.746386
0.42685
0.625487
0.974199
0.756607
0.554138
0.974828
0.744621
0.424762
0.627418
0.141912
0.195826
0.212018
0.290518
0.142924
0.19563
0.211771
0.290769
0.997807
1
0.995943
0.999972
0.997867
1
0.996079
0.99995
0.996885
0.810157
0.997343
0.810278
1
1
1
1
0.998313
1
0.99831
1
0.99991
0.99974
0.998355
0.998341
0.998623
0.998668
0.999128
0.999157
0.998395
0.998386
0.998536
0.998513
0.999923
0.998444
1
0.998801
1
0.999459
0.999928
0.998393
1
0.998839
1
0.999564
0.9998
1
0.999844
1
0.999823
1
0.999795
0.999905
1
1
0.999841
1
0.999853
0.999916
1
1
0.999851
1
0.99988
1
0.999991
1
2.0164e-10
1.20738e-10
6.41393e-09
3.11091e-06
0.00022452
0.0078861
0.00786629
0.00567056
0.00566721
0.0374603
0.0384139
0.0109902
0.0110108
0.682704
0.427743
0.746777
0.912543
0.270853
0.567672
0.682613
0.426709
0.911395
0.74657
0.272823
0.57421
0.0924114
0.114566
0.178724
0.253447
0.0921039
0.114113
0.180911
0.253642
0.934544
0.999837
0.934589
0.999921
0.999963
0.999721
0.999611
0.997387
0.99818
0.998106
0.99815
0.998039
0.998102
0.996705
0.999353
0.996702
0.998929
0.996725
0.999351
0.996722
0.998905
0.996702
0.996873
0.998658
0.996698
0.998783
0.999369
0.996717
0.996839
0.998615
0.996719
0.99875
0.999371
0.999584
0.99998
0.997845
0.99918
0.999602
0.999984
0.997909
0.999208
0.999382
0.999996
0.99939
0.999997
0.999621
1
0.999872
1
0.99953
1
0.999868
1
0.999996
5.66009e-12
9.00238e-11
7.08403e-08
5.91282e-05
0.000902036
0.00875994
0.00880842
0.00283105
0.00283205
0.039687
0.0610141
0.0510825
0.0336048
0.0400538
0.0605484
0.051951
0.0339395
0.0226898
0.0227011
0.0976531
0.0511384
0.123025
0.0799174
0.0965416
0.0511225
0.126022
0.0805089
0.99997
0.999825
0.999172
0.998726
0.997389
0.998238
0.998222
0.998109
0.998088
0.998038
0.998002
0.997778
0.997786
0.996709
0.99882
0.99675
0.998425
0.996728
0.99883
0.996764
0.998449
0.996866
0.996698
0.997928
0.997574
0.996695
0.99794
0.996833
0.996714
0.997574
0.997897
0.996716
0.997933
0.99987
0.998139
0.999888
0.99818
1.67263e-13
3.05964e-10
2.07883e-06
0.000266815
0.000408968
0.000423928
0.000161194
0.000188747
0.0112869
0.0112357
0.0027746
0.00281263
0.0713202
0.0896286
0.0893961
0.0513635
0.0677069
0.0873806
0.0831793
0.0501987
0.0258079
0.0234106
0.0542715
0.0660986
0.0253218
0.0229001
0.0533858
0.0632376
0.118302
0.0511033
0.116045
0.0566439
0.999875
0.999484
0.998384
0.997817
0.99751
0.998319
0.998323
0.998315
0.99827
0.99836
0.998313
0.999387
0.996784
0.999033
0.996788
0.999379
0.996765
0.998954
0.996769
0.99678
0.998491
0.996675
0.997683
0.996761
0.998504
0.996687
0.99769
2.65629e-13
5.9908e-09
3.73714e-05
0.00034604
0.000278714
0.000287455
0.000104751
0.00012958
0.0399843
0.0350327
0.00863597
0.0260239
0.0257443
0.00918257
0.0397419
0.034118
0.00868611
0.0259043
0.0257412
0.00916465
0.00284642
0.00285175
0.12426
0.104427
0.124492
0.0924466
0.118522
0.103341
0.124969
0.0917604
0.0879823
0.0912993
0.0889601
0.08846
0.999646
0.998767
0.997775
0.998418
0.997562
0.997502
0.998576
0.998558
0.999248
0.999142
0.999267
0.999197
0.998575
0.999836
0.998769
0.999627
0.996999
0.999389
0.998423
0.999838
0.998637
0.999619
0.996923
0.999389
0.997226
0.99907
0.997165
0.998988
0.996851
0.99809
0.996765
0.998071
6.8678e-13
1.10055e-06
0.000293052
0.000158153
0.000181239
0.000188298
0.000215005
0.000373391
0.000387222
7.85967e-05
7.71642e-05
0.0665682
0.0676193
0.012674
0.0498359
0.0472158
0.0151529
0.0665786
0.0671543
0.0127895
0.0496296
0.0473438
0.015064
0.00158061
0.000955031
0.0112038
0.00668335
0.00158897
0.000967351
0.0111667
0.00674619
0.999185
0.99707
0.998795
0.998568
0.998192
0.998068
0.998638
0.998601
0.999102
0.998995
0.999475
0.999839
0.999839
0.999599
0.999839
0.998932
0.999839
0.999504
0.999839
0.998799
0.99938
0.999839
0.999488
0.99848
0.999839
0.99938
0.999399
0.99835
0.999839
0.999359
0.997814
0.998856
0.997675
0.998839
2.29603e-09
4.49372e-05
0.00253019
0.00141315
0.00139327
0.00192409
0.00173875
0.00680128
0.00288232
4.04828e-05
0.00177119
0.000620249
0.000125432
0.00680575
0.00290816
4.08286e-05
0.00178079
0.000622494
0.000128761
0.00011049
0.000113248
0.028381
0.0381346
0.0286229
0.0378729
0.0214882
0.0137436
0.0213418
0.0138603
0.998325
0.995143
0.998803
0.998095
0.998098
0.998441
0.998389
0.99875
0.998706
0.99875
0.998657
0.996868
0.999839
0.997752
0.999839
0.998733
0.999839
0.996693
0.998604
0.999839
0.999839
0.997608
0.999839
0.999627
0.999839
0.999638
0.999839
0.999531
0.999511
0.999839
0.999839
3.59574e-07
0.000543781
0.0288132
0.0244946
0.0249188
0.0207912
0.021406
0.00808574
0.00413934
3.76055e-05
0.000116572
0.000457547
3.7595e-05
0.00803449
0.00416767
3.7595e-05
0.000115438
0.000456027
3.76055e-05
0.00351655
0.00598999
0.000214485
0.000346448
0.00336016
0.00591202
0.000220233
0.000359714
0.0160172
0.0141824
0.0158615
0.0142912
0.996649
0.995174
0.99915
0.998427
0.998462
0.998543
0.998569
0.998527
0.998477
0.996458
0.999839
0.999839
0.996318
0.999839
0.99565
0.996336
0.999839
0.999839
0.996207
0.999839
0.995393
0.996203
0.997909
0.999839
0.999839
0.997793
0.999839
0.996093
0.999839
3.5516e-05
0.0165644
0.028782
0.0371583
0.0410995
0.0304016
0.0166081
0.0176088
0.0527985
0.022686
0.0178833
0.0562642
0.02293
0.018126
0.00110006
0.00309449
4.47337e-05
4.57423e-05
4.79615e-05
4.80264e-05
0.0011001
0.00309362
4.54465e-05
4.43745e-05
4.64499e-05
4.76864e-05
0.0102749
0.00621865
0.0101628
0.00633136
0.993517
0.996057
0.99915
0.998516
0.99853
0.998554
0.998575
0.995104
0.999839
0.994365
0.999839
0.991935
0.999839
0.995092
0.99179
0.999839
0.999839
0.994507
0.999839
0.994481
0.999839
0.986454
0.999839
0.994278
0.999839
0.986598
0.999839
0.993848
0.999839
0.993551
0.999839
0.00340797
0.00394378
0.0251093
0.0111258
0.0285528
0.0111332
0.00913407
0.0090536
0.0117325
0.0654788
0.113465
0.0648648
0.0794923
0.0286268
0.00835527
0.0133294
0.0664562
0.0115559
0.113232
0.0661853
0.0802957
0.0282888
0.00931875
0.0122576
0.000788562
0.00057117
0.000821983
0.000602646
0.0598874
0.0511921
0.0593778
0.051226
0.992817
0.99554
0.997931
0.998469
0.998472
0.997928
0.998523
0.998595
0.997373
0.992746
0.999839
0.997347
0.992875
0.999839
0.98402
0.984128
0.999839
0.999839
0.984398
0.999839
0.984823
0.999839
0.979643
0.999839
0.97041
0.999839
0.979765
0.999839
0.971034
0.999839
0.000160634
0.000741473
0.0101101
0.00770217
0.00542992
0.00353828
0.00849018
0.00672024
0.00571246
0.00290094
0.0038559
0.0038804
0.0328908
0.00938195
0.0680947
0.069638
0.0727101
0.0173977
0.031233
0.067981
0.00904792
0.0734817
0.0768814
0.0165393
0.0158466
0.0307663
0.0153466
0.0292207
0.997486
0.993393
0.998139
0.998771
0.998713
0.998151
0.998166
0.998219
0.991413
0.966912
0.999839
0.985289
0.999839
0.999839
0.997731
0.999839
0.991335
0.967832
0.999839
0.985718
0.999839
0.999839
0.997074
0.999839
0.966945
0.968649
0.999839
0.999839
0.968143
0.999839
0.969789
0.999839
8.64533e-06
1.6115e-06
0.000487979
0.000486672
1.65742e-06
1.08772e-07
1.09265e-07
0.00325296
0.00482246
0.00600294
0.00483934
0.00542168
0.00673058
0.00456929
0.00380086
0.000270198
0.00154598
0.000874964
0.00359864
0.00486432
0.00629575
0.00781547
0.00568719
0.00296127
0.00492797
0.0043355
0.00026853
0.00145094
0.00080038
0.0183094
0.00949342
0.017509
0.00984245
0.0182311
0.00920808
0.0170082
0.00993156
0.997313
0.990703
0.997448
0.998042
0.999839
0.997192
0.99805
0.999839
0.996948
0.997414
0.99783
0.997904
0.970035
0.990618
0.940095
0.999839
0.999839
0.999839
0.970454
0.990232
0.942084
0.999839
0.999839
0.999839
0.951104
0.999839
0.952633
0.999839
3.79125e-07
5.47611e-06
3.23249e-08
5.45887e-06
3.32918e-08
1.90678e-07
2.08695e-07
0.010942
0.00514469
0.00330008
0.0126838
0.00339377
0.00245985
3.59053e-05
0.000105281
0.000152852
0.000479004
0.000448215
1.3194e-05
2.26813e-06
1.23452e-07
0.0109399
0.005522
0.0161666
0.010582
0.00340441
0.00364696
9.75492e-05
3.94811e-05
0.000162823
0.00043385
0.000552199
1.32259e-05
2.03991e-06
1.22907e-07
0.997156
0.990006
0.996511
0.996541
0.989179
0.99291
0.992938
0.99587
0.999839
0.993705
0.999839
0.996892
0.99979
0.99682
0.999797
0.995632
0.999839
0.99394
0.999839
0.99677
0.999786
0.996895
0.999793
0.997261
0.99475
0.999589
0.997317
0.99472
0.999573
0.975399
0.99431
0.999839
0.999839
0.975208
0.993914
0.999839
0.999839
2.49701e-06
1.43521e-07
1.22907e-07
1.23452e-07
1.51858e-07
1.21274e-07
1.22452e-07
1.22002e-07
1.75247e-07
1.34361e-06
1.41003e-06
0.00410032
0.00332574
0.00190107
0.00291285
1.50409e-05
2.46524e-06
0.000259469
0.000475228
1.15401e-05
1.70572e-06
0.00415023
0.00839595
0.00183751
0.00318415
1.39759e-05
0.000241405
2.41691e-06
0.000414536
9.7336e-06
1.61935e-06
0.997678
0.987591
0.995626
0.99557
0.987589
0.993739
0.993741
0.990701
0.9934
0.999839
0.999837
0.996596
0.999616
0.990859
0.993922
0.999839
0.999837
0.996613
0.999616
0.997876
0.993848
0.99848
0.993866
0.998269
0.999744
0.998983
0.999915
0.99801
0.99383
0.998478
0.993852
0.998241
0.999755
0.999015
0.999914
3.59715e-06
2.09453e-06
1.99883e-06
8.43362e-07
7.75211e-07
1.4617e-07
1.78158e-06
1.32281e-07
5.99979e-07
6.99647e-07
5.98394e-07
1.21636e-07
1.42328e-06
1.21636e-07
5.0651e-07
1.54723e-05
2.21117e-06
1.38353e-07
2.40679e-05
2.56854e-06
7.40063e-07
1.4367e-05
2.03912e-06
1.22002e-07
1.64622e-05
2.14972e-06
6.00595e-07
0.9975
0.987599
0.994912
0.999914
0.998504
0.994595
0.999915
0.998548
0.987587
0.994182
0.994273
0.99644
0.999817
0.994416
0.998318
0.996597
0.999815
0.994398
0.998267
0.995645
0.998482
0.99383
0.998369
0.997232
0.999914
0.99575
0.998605
0.993808
0.997121
0.9984
0.999914
5.82965e-15
6.33785e-06
5.46385e-06
4.92813e-06
4.38835e-06
1.26153e-06
1.26048e-05
6.5586e-07
5.29257e-06
6.57476e-07
2.48405e-07
3.39093e-06
9.39227e-06
9.32323e-07
9.98246e-06
5.36452e-07
4.68335e-06
5.28242e-07
1.85499e-07
2.94296e-06
6.22687e-06
5.00943e-07
1.06211e-06
3.50934e-07
8.88599e-07
0.998301
0.986257
0.986163
0.996338
0.999915
0.996416
0.999655
0.997488
0.996061
0.999914
0.995617
0.999656
0.99726
0.991389
0.991267
0.997928
0.994292
0.997712
0.999586
0.996369
0.999836
0.998217
0.994478
0.997807
0.996406
0.999709
0.999909
3.64799e-36
1.1733e-28
4.50879e-14
1.02545e-28
3.16895e-14
1.51348e-05
1.01373e-05
1.40283e-05
1.11529e-05
8.82464e-07
5.80621e-06
7.83206e-07
2.16088e-05
5.66308e-07
1.00829e-05
8.94799e-07
6.60036e-07
4.27415e-06
9.34684e-06
9.08101e-06
6.64399e-07
4.6168e-06
6.08211e-07
2.08143e-05
4.85603e-07
9.75335e-06
4.93214e-07
5.29728e-07
3.76855e-06
0.997861
0.986576
0.988668
0.985955
0.987725
0.997051
0.999496
0.995354
0.999508
0.997178
0.996723
0.99975
0.996933
0.999485
0.994755
0.999422
0.996749
0.996442
0.999778
0.985992
0.985985
0.997437
0.999614
0.997703
0.999828
1.54716e-16
3.72952e-17
6.88179e-18
9.62989e-18
8.00992e-18
9.92104e-08
2.15563e-10
7.63428e-08
1.08139e-10
4.64571e-05
3.47388e-05
1.32546e-05
5.16879e-06
2.71789e-06
1.30757e-05
1.78626e-05
7.84456e-07
8.14576e-06
7.83793e-07
1.85778e-05
6.67864e-07
9.78742e-06
8.32678e-07
8.76218e-06
2.45555e-06
1.93461e-06
9.05023e-06
1.57644e-05
5.2159e-07
7.34352e-06
5.05185e-07
1.89268e-05
6.92368e-07
9.93705e-06
5.6805e-07
0.996259
0.988596
0.989507
0.988426
0.989456
0.985928
0.985315
0.990573
0.999485
0.998234
0.999472
0.99794
0.999131
0.995385
0.999269
0.995499
0.996647
0.999557
0.990303
0.999473
0.998065
0.999462
0.99777
0.999003
0.994793
0.999235
0.99484
0.996641
0.999742
5.0969e-16
2.51159e-16
1.55111e-16
2.5112e-16
1.55111e-16
7.65687e-11
6.16963e-13
3.64658e-11
1.34645e-13
1.07105e-05
1.33879e-06
7.44805e-06
9.5277e-07
5.71833e-05
4.85061e-05
5.71562e-05
4.56601e-05
4.5962e-05
3.0662e-05
5.71833e-05
3.27392e-05
1.51118e-05
1.98853e-06
2.36194e-06
1.31492e-05
1.05209e-05
8.91674e-07
1.93613e-06
9.08894e-06
0.996219
0.988872
0.988872
0.988872
0.988872
0.990486
0.993257
0.98984
0.993229
0.98343
0.983447
0.99945
0.997331
0.999461
0.996017
0.998777
0.998002
0.99922
0.996973
0.998448
0.995157
0.999301
0.994145
0.999439
0.997027
0.999451
0.995723
0.99865
0.997763
0.99916
0.996517
0.998348
0.99485
0.999346
0.993791
2.50775e-11
-1.08013e-36
7.49432e-16
1.55508e-16
6.29088e-16
1.55508e-16
2.1081e-08
5.99214e-11
1.21189e-08
8.68572e-12
2.85337e-05
1.05028e-05
5.42751e-05
1.02636e-05
4.81491e-06
1.18096e-06
1.03115e-06
1.34889e-06
2.1909e-05
7.402e-06
3.12014e-05
7.16188e-06
4.32184e-06
8.20455e-07
8.95764e-07
9.26853e-07
5.71562e-05
4.76111e-05
5.71833e-05
4.17145e-05
4.48452e-05
2.57402e-05
5.71562e-05
2.79499e-05
0.996259
0.988872
0.988872
0.988872
0.988872
0.991772
0.990443
0.991748
0.990337
0.986078
0.992919
0.985492
0.992585
0.999194
0.99138
0.999021
0.994509
0.999428
0.99169
0.999417
0.994563
0.99887
0.996671
0.999309
0.994324
0.99881
0.996261
0.999282
0.993673
2.11099e-10
3.39472e-12
4.96766e-11
3.28443e-12
4.11426e-11
1.55152e-16
6.34324e-16
1.74283e-13
6.31699e-16
1.60826e-13
1.7412e-11
5.9763e-08
3.61642e-08
1.74119e-11
5.24138e-11
2.3177e-13
1.25394e-11
6.4079e-11
1.74119e-11
4.37375e-08
3.21349e-08
1.7412e-11
4.92596e-11
1.96301e-13
1.9174e-11
4.93301e-11
3.58336e-05
1.10652e-05
5.71562e-05
9.35615e-06
4.99029e-06
8.6866e-07
5.29333e-07
1.12927e-06
2.43934e-05
6.8987e-06
4.14375e-05
6.71769e-06
4.46736e-06
6.16218e-07
5.5403e-07
7.4767e-07
0.996923
0.989115
0.991022
0.992145
0.990848
0.991919
0.991805
0.992624
0.991602
0.992481
0.998864
0.983579
0.999383
0.985091
0.998225
0.992194
0.998222
0.985687
0.998761
0.983532
0.999407
0.98397
0.998102
0.991426
0.998219
0.984056
0.998586
0.990803
0.998189
0.993215
0.998547
0.990463
0.998164
0.992536
3.80908e-17
3.62567e-10
2.11652e-10
3.629e-10
2.11652e-10
2.34182e-12
1.6464e-11
2.18865e-12
1.3191e-11
1.43212e-14
4.57459e-13
2.29935e-13
4.15125e-12
1.13128e-14
6.40908e-13
2.45113e-13
5.43072e-13
1.40117e-13
2.37128e-13
1.92488e-13
3.06967e-12
3.03563e-15
4.66828e-13
1.53095e-13
4.47187e-13
1.19212e-13
1.74119e-11
3.25323e-08
4.13607e-09
1.7412e-11
5.93354e-11
3.98968e-13
2.04264e-11
6.0869e-11
1.7412e-11
3.20773e-08
2.42041e-09
1.74119e-11
5.92568e-11
3.45921e-12
2.99538e-11
4.80715e-11
0.998861
0.993249
0.997629
0.998208
0.997361
0.997881
0.995528
0.996928
0.995347
0.996649
0.997313
0.992694
0.998219
0.98781
0.998336
0.992648
0.999185
0.987787
0.997043
0.992377
0.998215
0.987338
0.99823
0.992609
0.999157
0.987331
0.990308
0.98127
0.994939
0.977136
0.992963
0.991149
0.996911
0.985487
0.989647
0.980777
0.994586
0.976177
0.992343
0.99043
0.996523
0.984311
1.64516e-06
3.81268e-17
3.30815e-09
2.45526e-07
3.31478e-09
2.58016e-07
2.43078e-12
4.44472e-13
4.68789e-12
3.23025e-12
7.67165e-12
1.39552e-12
3.26857e-12
1.16324e-11
3.24933e-12
1.63192e-11
2.26152e-12
2.28079e-13
3.87833e-12
2.90515e-12
7.95191e-12
1.00214e-12
5.53816e-12
1.47587e-11
7.98372e-12
1.94354e-11
2.41188e-14
1.34203e-12
2.91888e-13
7.35746e-12
3.74413e-14
1.12125e-12
1.38456e-13
9.48051e-13
4.19012e-13
6.82179e-12
8.22928e-15
8.31985e-13
1.01772e-13
3.70516e-11
3.58328e-13
2.35808e-11
2.81569e-11
1.37786e-11
4.94828e-12
3.37424e-11
6.16847e-12
0.998467
0.997842
0.998853
0.998299
0.998621
0.99791
0.999392
0.999514
0.999188
0.999458
1
0.995927
0.999725
0.997234
1
0.99792
1
0.998027
1
0.995897
0.999729
0.997021
1
0.9975
1
0.99783
0.996568
0.991175
0.997613
0.988231
0.996283
0.990556
0.997317
0.988338
0.996069
0.990651
0.997388
0.987468
0.995616
0.990382
0.997076
0.987744
5.16038e-07
1.49594e-06
3.86966e-06
1.48719e-06
3.88713e-06
2.11858e-10
1.31793e-09
1.29618e-07
1.13104e-09
1.19887e-07
2.9307e-13
3.13536e-12
1.86833e-12
7.74739e-12
3.67138e-12
1.18446e-11
3.28795e-12
4.91129e-12
3.26857e-12
1.79005e-11
8.85119e-14
2.87762e-12
1.30686e-12
6.38126e-12
3.58099e-12
1.10936e-11
5.49971e-12
1.01528e-11
5.46106e-12
1.93402e-11
1.11281e-13
1.43997e-12
3.53503e-13
9.09328e-12
4.4318e-14
1.72704e-12
1.29792e-13
9.17865e-13
3.00312e-13
8.78867e-12
8.26795e-15
1.28013e-12
8.78166e-14
0.991058
0.998162
0.999617
0.999648
0.99983
0.999654
0.999831
0.999146
0.997939
1
0.999525
1
1
0.999657
1
0.999641
1
0.997337
0.998948
1
0.999392
1
1
0.999589
1
0.999575
1
0.999931
0.994823
0.999127
0.99663
0.999999
0.997463
0.999931
0.994674
0.99911
0.996221
0.999999
0.997226
0.992825
0.989525
0.994432
0.987135
0.991314
0.989075
0.993924
0.986275
3.67174e-07
3.16129e-06
1.90578e-06
3.42661e-06
1.94926e-06
4.88846e-07
3.7335e-06
4.09085e-07
3.18047e-06
9.63785e-11
5.22804e-10
2.27201e-11
8.19163e-11
9.69847e-10
4.77789e-10
1.16123e-07
2.5325e-08
4.77808e-10
5.26949e-10
4.92538e-11
1.16972e-10
7.93063e-10
4.77808e-10
1.00417e-07
2.36001e-08
4.77789e-10
9.8728e-13
3.04805e-12
2.24599e-11
5.84555e-11
4.6538e-12
2.18061e-11
5.794e-13
2.25235e-12
4.87772e-11
7.16219e-11
8.629e-12
2.43876e-11
1.01646e-13
0.99177
0.995762
0.999617
0.999705
0.999687
0.999719
0.999678
0.999874
0.999833
0.99987
0.999823
0.998917
0.999356
1
1
0.999565
1
0.999585
1
0.999592
1
0.99843
0.999203
1
1
0.999482
1
0.999567
1
0.999523
1
0.99996
0.994889
0.998751
0.996631
1
0.997899
0.99996
0.9946
0.998711
0.996087
1
0.997281
9.35226e-06
1.77447e-07
7.826e-06
1.21079e-05
8.44443e-06
1.25621e-05
1.49715e-09
6.68808e-08
1.38076e-08
2.01541e-07
5.58869e-08
9.33566e-09
2.39295e-06
7.62345e-07
1.2928e-06
1.97489e-07
1.00761e-09
4.82945e-08
1.04386e-08
1.31703e-07
4.13694e-08
7.20209e-09
1.85758e-06
6.60957e-07
8.85721e-07
1.32884e-07
8.24035e-11
5.92049e-10
2.2984e-11
9.68067e-11
4.99099e-10
4.77808e-10
4.78498e-10
6.78571e-10
4.97378e-11
1.37158e-10
5.01397e-10
5.46314e-10
4.77808e-10
4.34708e-14
0.996702
0.993094
0.999483
0.999513
0.999131
0.999527
0.999125
0.999434
0.999216
0.999419
0.99921
1
0.999279
1
0.999001
1
0.998876
1
0.99888
1
0.999284
1
0.99905
1
0.998884
1
0.998888
0.999015
1
0.999565
1
0.999518
1
0.998671
1
0.999571
1
0.99948
1
7.76551e-05
2.05807e-05
4.8397e-05
2.07911e-05
4.19776e-05
4.98154e-08
3.44736e-06
1.23068e-05
3.15241e-06
1.27908e-05
3.08975e-08
1.45292e-09
3.12807e-08
3.73722e-09
3.22372e-08
1.11396e-08
1.40523e-06
1.03685e-07
2.10977e-07
7.77069e-08
1.21696e-08
9.69679e-10
2.38607e-08
2.15818e-09
1.86364e-08
7.20528e-09
1.00597e-06
6.13431e-08
1.21106e-07
4.37046e-08
4.69516e-11
1.80339e-09
4.78762e-10