/*--------------------------------*- C++ -*----------------------------------*\
| =========                 |                                                 |
| \\      /  F ield         | OpenFOAM: The Open Source CFD Toolbox           |
|  \\    /   O peration     | Version:  5.x                                   |
|   \\  /    A nd           | Web:      www.OpenFOAM.org                      |
|    \\/     M anipulation  |                                                 |
\*---------------------------------------------------------------------------*/
FoamFile
{
    version     2.0;
    format      ascii;
    class       surfaceScalarField;
    location    "2.2";
    object      alphaPhi10;
}
// * * * * * * * * * * * * * * * * * * * * * * * * * * * * * * * * * * * * * //

dimensions      [0 3 -1 0 0 0 0];

internalField   nonuniform List<scalar> 
30582
(
0.000185724
-3.46691e-06
0.000188441
-2.71693e-06
0.000185677
-6.86265e-06
0.000187127
1.31408e-06
0.000188333
-5.37293e-06
0.000185022
-9.55135e-06
0.0001807
6.42689e-06
0.000186898
2.7491e-06
0.0001879
-8.25024e-06
0.000184034
-1.11763e-05
0.00017068
1.00197e-05
0.00018016
1.3165e-05
0.000187049
3.59961e-06
0.000186034
-1.02506e-05
0.00018246
-1.11287e-05
0.000158596
1.20841e-05
0.000170144
2.00359e-05
0.000180863
1.93507e-05
0.00018395
5.68419e-06
0.000184888
-1.26787e-05
0.000178952
-7.44417e-06
0.000146012
1.25843e-05
0.000158428
2.37993e-05
0.000171207
2.9692e-05
0.000177683
2.56179e-05
0.000183657
6.91572e-06
0.000178975
-1.27015e-05
0.000176686
-1.34274e-06
0.000132376
1.36356e-05
0.000146083
2.49292e-05
0.000159373
3.56336e-05
0.000168538
3.88371e-05
0.000178428
3.08465e-05
0.000175126
1.07645e-05
0.000178096
-1.41097e-05
0.000160971
2.06477e-05
0.000117483
1.4893e-05
0.000132698
2.70206e-05
0.000146911
3.73916e-05
0.000157851
4.63198e-05
0.000170495
4.67703e-05
0.000171221
3.4751e-05
0.000176182
1.26792e-05
0.000154181
-7.07187e-06
4.087e-05
-5.44211e-06
0.000100755
1.67279e-05
0.000118013
2.95783e-05
0.000133694
4.02373e-05
0.000146355
4.88876e-05
0.00016016
5.66544e-05
0.000165653
5.23385e-05
0.000173576
3.73572e-05
0.000152624
1.46358e-05
4.86949e-05
-9.32992e-07
-5.65457e-06
1.23756e-07
8.18638e-05
1.88916e-05
0.00010143
3.33108e-05
0.000119146
4.41268e-05
0.000133952
5.26403e-05
0.000148407
6.06407e-05
0.000157673
6.4635e-05
0.00016845
5.74641e-05
0.000154262
3.54548e-05
6.40578e-05
-6.30833e-07
-7.43222e-06
4.40303e-08
1.7174e-07
8.64464e-11
6.08444e-05
2.10194e-05
8.25753e-05
3.77465e-05
0.000102682
4.97741e-05
0.000120024
5.80554e-05
0.000135742
6.53056e-05
0.000147678
7.06353e-05
0.00015989
7.31948e-05
0.000155497
5.53215e-05
8.24953e-05
4.29436e-06
-9.43673e-06
3.82176e-08
4.89214e-08
5.49972e-10
8.35645e-10
-1.7586e-12
3.83441e-05
2.25003e-05
6.14063e-05
4.21884e-05
8.38223e-05
5.66064e-05
0.000104038
6.576e-05
0.000121963
7.18339e-05
0.000136312
7.66719e-05
0.00014937
8.11531e-05
0.00015273
7.4338e-05
9.72297e-05
1.38164e-05
-1.12293e-05
-4.33313e-09
-1.28542e-09
1.35146e-10
1.63006e-10
4.5185e-13
-9.18167e-14
3.04854e-16
1.58101e-05
2.25341e-05
3.85602e-05
4.53465e-05
6.24346e-05
6.35761e-05
8.53526e-05
7.52915e-05
0.000106384
8.13387e-05
0.000123759
8.43865e-05
0.000137494
8.8545e-05
0.000146943
8.47839e-05
0.000108966
2.39732e-05
-1.03105e-05
-1.6549e-08
-6.9408e-09
4.49542e-12
4.89861e-12
2.91539e-13
-3.78264e-14
-3.27145e-17
2.21788e-16
-4.40427e-22
-4.95604e-06
2.07661e-05
1.54704e-05
4.56238e-05
3.91624e-05
6.86187e-05
6.35836e-05
8.53452e-05
8.78986e-05
9.37773e-05
0.00010919
9.59076e-05
0.000125166
9.67107e-05
0.000138894
9.41935e-05
0.000117686
3.1419e-05
-8.66504e-06
-8.54536e-09
-1.61008e-08
-4.06502e-12
2.59819e-12
2.19529e-15
-6.76892e-17
3.67393e-17
1.27525e-17
-4.77548e-24
-7.58805e-24
-2.25843e-05
1.76282e-05
-5.9899e-06
4.22264e-05
1.53665e-05
6.94198e-05
3.92177e-05
9.29845e-05
6.57717e-05
0.000107472
9.11415e-05
0.000111826
0.000111421
0.000109649
0.000130008
0.000103186
0.000127179
3.66213e-05
-5.94081e-06
4.67069e-08
-3.70866e-08
3.08337e-12
3.13789e-12
5.10401e-16
-1.24687e-17
1.56631e-19
1.0489e-19
4.52918e-21
-1.83665e-22
-3.52811e-05
1.26969e-05
-2.40026e-05
3.56409e-05
-7.08055e-06
6.46734e-05
1.38648e-05
9.47727e-05
4.04972e-05
0.000118259
6.83723e-05
0.000130241
9.39307e-05
0.000129313
0.000119387
0.000117921
0.000137963
4.1865e-05
8.31693e-07
2.23802e-08
-8.34247e-08
4.11145e-11
4.94388e-12
2.04945e-15
-1.06429e-16
1.14935e-19
7.959e-21
1.00192e-23
-2.22259e-25
-4.17823e-05
6.50119e-06
-3.68437e-05
2.55379e-05
-2.6233e-05
5.47933e-05
-1.01936e-05
8.87318e-05
1.37382e-05
0.000121532
4.12965e-05
0.000145335
7.06158e-05
0.000153553
0.00010413
0.000142297
0.000146597
5.2755e-05
1.21732e-05
3.69361e-07
-2.00745e-07
7.56372e-11
1.40011e-11
9.96375e-15
1.83634e-16
1.51933e-19
1.02681e-20
1.44122e-23
-2.15372e-25
-4.15605e-05
-2.21821e-07
-4.33622e-05
1.30197e-05
-4.01123e-05
3.94173e-05
-3.06101e-05
7.52099e-05
-1.2326e-05
0.000114796
1.18502e-05
0.000150978
4.18178e-05
0.000174132
8.08935e-05
0.00017465
0.000146049
7.54311e-05
2.64548e-05
1.6859e-06
-4.90507e-07
-9.64954e-11
2.7367e-11
1.02148e-14
2.81554e-15
8.31476e-19
-4.9742e-21
1.52552e-23
-1.13152e-25
-3.48955e-05
-6.66498e-06
-4.34448e-05
-1.39183e-07
-4.75043e-05
2.04116e-05
-4.53034e-05
5.41106e-05
-3.50731e-05
9.79569e-05
-1.71663e-05
0.000143812
9.96666e-06
0.000182829
4.95105e-05
0.000203794
0.000131518
0.000112884
3.96144e-05
4.98259e-06
-3.35121e-07
-9.32884e-10
7.16778e-11
-5.83006e-14
1.17254e-14
-2.48067e-20
-4.59631e-20
5.16499e-23
1.60436e-25
-2.23339e-05
-1.25616e-05
-3.66696e-05
-1.34402e-05
-4.72674e-05
-3.76069e-07
-5.28524e-05
2.79606e-05
-5.18756e-05
7.09131e-05
-4.25561e-05
0.000123347
-2.19287e-05
0.000175708
1.2309e-05
0.000219037
0.000103374
0.000150932
4.59401e-05
1.09786e-05
6.18793e-07
1.92833e-10
2.39118e-10
-3.84119e-13
1.74596e-14
-1.51635e-18
-1.72329e-19
2.27022e-23
2.02753e-24
-4.86825e-06
-1.74656e-05
-2.39257e-05
-2.53055e-05
-4.04245e-05
-2.02831e-05
-5.34122e-05
1.83712e-07
-6.10429e-05
3.7128e-05
-6.10468e-05
8.94038e-05
-5.08335e-05
0.000152252
-2.65901e-05
0.000214394
6.35393e-05
0.000179575
4.19561e-05
1.84856e-05
1.78271e-06
1.07455e-07
2.45126e-09
-3.34394e-13
-2.61562e-14
-9.96179e-18
-2.52965e-19
-5.82969e-23
7.21228e-24
1.62351e-05
-2.11033e-05
-6.16798e-06
-3.52234e-05
-2.72606e-05
-3.84694e-05
-4.61648e-05
-2.75305e-05
-6.12619e-05
4.02666e-07
-7.08492e-05
4.69303e-05
-7.24341e-05
0.000111004
-6.18771e-05
0.000187532
1.87826e-05
0.000188628
2.92247e-05
2.51292e-05
2.12504e-06
3.44117e-07
1.18714e-08
9.96196e-11
-9.11615e-13
3.3681e-17
-1.27384e-18
-2.98043e-22
8.28251e-24
3.97594e-05
-2.35244e-05
1.5304e-05
-4.25753e-05
-8.90243e-06
-5.35816e-05
-3.23141e-05
-5.23201e-05
-5.38597e-05
-3.49327e-05
-7.20653e-05
1.61875e-06
-8.4088e-05
5.85843e-05
-8.83163e-05
0.000137444
-2.23662e-05
0.000172553
1.27208e-05
2.86649e-05
9.89878e-07
6.32864e-07
2.42482e-08
6.98983e-10
-2.74486e-12
6.11888e-15
-1.51653e-17
2.44206e-21
-2.67488e-23
6.43664e-05
-2.4607e-05
3.92481e-05
-4.74685e-05
1.33528e-05
-6.48305e-05
-1.29328e-05
-7.29628e-05
-3.92448e-05
-6.69349e-05
-6.40095e-05
-4.29884e-05
-8.47381e-05
2.26883e-06
-0.000102617
7.28849e-05
-5.60508e-05
0.00013382
-3.84901e-06
2.84258e-05
-1.30579e-06
8.45261e-07
3.34986e-08
1.87822e-09
1.14202e-11
9.44511e-14
-2.64045e-16
2.48302e-19
-8.25954e-22
8.88131e-05
-2.44467e-05
6.42595e-05
-4.96184e-05
3.81554e-05
-7.2271e-05
1.05399e-05
-8.83033e-05
-1.86691e-05
-9.35385e-05
-4.80735e-05
-8.28709e-05
-7.61336e-05
-5.15929e-05
-0.000105378
5.03343e-06
-7.89576e-05
7.78017e-05
-1.64925e-05
2.39437e-05
-4.02081e-06
9.33532e-07
3.72567e-08
2.96615e-09
5.86896e-11
4.16037e-13
-1.0268e-15
3.59132e-18
-7.95956e-21
0.000112031
-2.32183e-05
8.91257e-05
-4.93128e-05
6.40337e-05
-7.54968e-05
3.65898e-05
-9.83208e-05
6.43202e-06
-0.000113404
-2.55664e-05
-0.000116046
-5.88637e-05
-0.000100141
-9.63423e-05
-6.04185e-05
-8.87216e-05
1.21619e-05
-2.39365e-05
1.51829e-05
-6.84092e-06
8.72564e-07
3.19358e-08
3.42082e-09
1.2996e-10
7.96054e-13
7.0276e-16
1.70066e-17
-3.23211e-20
0.000133155
-2.11237e-05
0.000112713
-4.68055e-05
8.96809e-05
-7.496e-05
6.38236e-05
-0.000102731
3.43009e-05
-0.00012619
1.78652e-06
-0.000140757
-3.44153e-05
-0.000140494
-7.74132e-05
-0.000118723
-8.50422e-05
-5.30387e-05
-2.64058e-05
2.23929e-06
-9.67366e-06
6.09354e-07
-8.95686e-09
3.71892e-09
2.20826e-10
9.09389e-13
6.01352e-15
3.39929e-17
-1.4294e-20
0.000151555
-1.84002e-05
0.000134148
-4.25592e-05
0.000113967
-7.10919e-05
9.07734e-05
-0.00010191
6.33778e-05
-0.000131808
3.17717e-05
-0.000156175
-4.75957e-06
-0.000170413
-4.97958e-05
-0.000167675
-6.96764e-05
-0.000115849
-2.47092e-05
-1.87616e-05
-1.16253e-05
-8.5312e-09
-1.45722e-07
4.85264e-09
4.69976e-10
1.36134e-12
1.40955e-14
4.1332e-17
8.81589e-20
0.000166811
-1.52563e-05
0.000152764
-3.70164e-05
0.000135989
-6.4581e-05
0.000116272
-9.6591e-05
9.19871e-05
-0.000130519
6.30508e-05
-0.000163087
2.79612e-05
-0.000188895
-1.49672e-05
-0.000204726
-4.56823e-05
-0.000170476
-1.99938e-05
-4.50728e-05
-1.19626e-05
-1.09017e-06
-4.63376e-07
4.24751e-09
1.59963e-09
4.47287e-12
7.64162e-14
8.85578e-17
2.35633e-19
0.000178767
-1.19557e-05
0.000168164
-3.06562e-05
0.000155107
-5.61348e-05
0.000139294
-8.76031e-05
0.000118859
-0.000123463
9.39249e-05
-0.000161393
6.22527e-05
-0.000197378
2.46708e-05
-0.000227927
-1.57436e-05
-0.000211916
-1.30246e-05
-7.20379e-05
-1.08253e-05
-2.91935e-06
-8.59738e-07
-7.40879e-09
4.26873e-09
7.34705e-12
7.939e-13
7.09094e-16
9.65122e-19
0.000187375
-8.60732e-06
0.000180161
-2.3952e-05
0.000170879
-4.6428e-05
0.00015907
-7.59107e-05
0.00014301
-0.000111753
0.00012301
-0.000152549
9.61446e-05
-0.000195284
6.52591e-05
-0.000237245
1.76115e-05
-0.000236517
-5.40468e-06
-9.30728e-05
-8.32509e-06
-5.28814e-06
-1.11007e-06
-3.8211e-08
7.92858e-09
-1.1484e-11
4.18054e-12
1.45733e-15
3.93949e-18
0.000192687
-5.3122e-06
0.000188795
-1.7241e-05
0.000183095
-3.61675e-05
0.000175191
-6.25483e-05
0.00016377
-9.66709e-05
0.000149068
-0.000137811
0.000127916
-0.000184319
0.000103451
-0.000232578
4.97195e-05
-0.000241109
2.16704e-06
-0.000102814
-3.98923e-06
-7.40292e-06
-1.03057e-06
-1.00386e-07
1.18541e-08
-9.84604e-11
1.33438e-11
-4.37805e-15
-4.42277e-17
0.000194826
-2.13882e-06
0.000194187
-1.07046e-05
0.000191765
-2.5911e-05
0.00018756
-4.85368e-05
0.000180609
-7.93874e-05
0.000171081
-0.000118685
0.000155753
-0.000165646
0.00013741
-0.000217095
7.92379e-05
-0.000228584
1.19915e-05
-9.80798e-05
1.2324e-06
-8.36296e-06
-4.86709e-07
-1.74577e-07
1.18261e-08
-3.76633e-10
3.59009e-11
-5.25559e-14
-3.26304e-16
0.000194042
7.83873e-07
0.000196473
-4.42475e-06
0.000196999
-1.59382e-05
0.000196357
-3.47079e-05
0.000193297
-6.12247e-05
0.000188447
-9.67531e-05
0.000179082
-0.00014201
0.000166767
-0.000193412
0.000104794
-0.000202781
2.35299e-05
-8.19362e-05
5.96995e-06
-7.63786e-06
1.91108e-07
-2.08112e-07
6.21016e-09
-8.19315e-10
5.78807e-11
-2.69529e-13
-6.79237e-17
0.000190413
3.62935e-06
0.000195486
1.77088e-06
0.000199038
-6.46377e-06
0.000201917
-2.14985e-05
0.000202104
-4.35152e-05
0.000201193
-7.39706e-05
0.000197335
-0.000115001
0.000189663
-0.000162833
0.000124143
-0.000167192
3.46708e-05
-6.06586e-05
9.10542e-06
-5.79993e-06
6.51234e-07
-1.83001e-07
-4.49636e-10
-1.02851e-09
4.05683e-11
-6.56334e-13
3.28979e-15
0.000184185
6.22782e-06
0.000191817
7.29851e-06
0.000198409
2.39928e-06
0.000204335
-8.88149e-06
0.000207465
-2.68588e-05
0.000210162
-5.24839e-05
0.000210059
-8.66869e-05
0.000205039
-0.00012789
0.000136271
-0.000127154
4.36337e-05
-3.99885e-05
1.02366e-05
-3.69884e-06
7.21775e-07
-1.16492e-07
-5.95024e-09
-9.06633e-10
5.12595e-12
-8.00306e-13
4.83348e-15
0.000175727
8.45782e-06
0.000185582
1.24621e-05
0.000194573
1.1135e-05
0.000203112
3.62222e-06
0.000209591
-1.10078e-05
0.000215826
-3.25229e-05
0.000218525
-6.09409e-05
0.000213003
-9.20414e-05
0.000139605
-8.73264e-05
4.88537e-05
-2.34573e-05
9.36815e-06
-2.00489e-06
5.28946e-07
-5.27053e-08
-6.98825e-09
-5.24448e-10
-2.031e-11
-6.95838e-13
2.12473e-15
0.000165507
1.02197e-05
0.000177152
1.68881e-05
0.000188068
1.89664e-05
0.000199158
1.50886e-05
0.000208955
4.25819e-06
0.000218658
-1.38403e-05
0.000224373
-3.83611e-05
0.00021548
-6.10656e-05
0.000132138
-5.16689e-05
5.00824e-05
-1.23385e-05
7.65949e-06
-9.34845e-07
2.63385e-07
-1.86471e-08
-4.67374e-09
-1.86197e-10
-1.6645e-11
-3.6339e-13
1.01585e-15
1.12597e-05
0.000154247
0.000166831
2.05413e-05
0.000179283
2.56734e-05
0.000192402
2.57225e-05
0.0002046
1.94434e-05
0.000217701
5.21608e-06
0.000227135
-1.65996e-05
0.000214262
-3.55554e-05
0.000117417
-2.50614e-05
4.77329e-05
-5.83729e-06
5.72441e-06
-3.35782e-07
6.39517e-08
-5.41611e-09
-2.27038e-09
-4.84885e-11
-6.47835e-12
-9.46481e-14
1.3286e-15
2.29e-05
0.00015519
3.03242e-05
0.000123923
0.000168592
3.12325e-05
0.000183185
3.48902e-05
0.000197126
3.31965e-05
0.000213402
2.3742e-05
0.000225875
6.45486e-06
0.000210371
-1.28323e-05
0.000101571
-1.02876e-05
4.24304e-05
-2.53898e-06
3.95159e-06
-8.934e-08
-3.5568e-09
-1.37701e-09
-8.49836e-10
-9.68893e-12
-1.8232e-12
-1.5305e-14
4.21971e-16
3.50432e-05
0.000156449
6.15344e-05
0.00012398
2.83647e-05
9.55585e-05
0.00017199
4.24274e-05
0.000187009
4.50076e-05
0.000205623
4.09754e-05
0.000219957
2.96074e-05
0.000203114
1.08992e-05
8.81305e-05
-2.3176e-06
3.60497e-05
-1.09619e-06
2.61538e-06
-2.21945e-08
-1.00118e-08
-2.80452e-10
-2.64303e-10
-1.53282e-12
-3.51135e-13
-1.73557e-15
6.99822e-17
4.78138e-05
0.00015922
9.39164e-05
0.000124067
5.80371e-05
9.43077e-05
2.23213e-05
7.32372e-05
0.000174872
5.45645e-05
0.000194785
5.58456e-05
0.000209867
5.09572e-05
0.000191315
3.50677e-05
7.75472e-05
4.43865e-06
2.92509e-05
-4.05995e-07
1.63041e-06
-5.11772e-09
-7.26953e-09
-5.18248e-11
-7.50259e-11
-2.0953e-13
-4.25114e-14
-1.39854e-16
5.3258e-18
6.15024e-05
0.000161183
0.000128396
0.00012474
8.90024e-05
9.31012e-05
4.70301e-05
6.95989e-05
8.14225e-06
6.5095e-05
0.000181694
6.76544e-05
0.000196542
6.89791e-05
0.00017615
5.5197e-05
6.91455e-05
1.05031e-05
2.29186e-05
-4.33203e-09
9.41713e-07
5.15883e-10
-4.69232e-09
-1.08456e-11
-2.16245e-11
-2.76273e-14
-3.89895e-15
-1.09512e-17
-1.02576e-19
7.65004e-05
0.000166696
0.000164532
0.000125047
0.000123273
9.04697e-05
7.2792e-05
6.73394e-05
2.03054e-05
5.74358e-05
-1.293e-05
7.8025e-05
0.000181063
8.28329e-05
0.000158641
7.04575e-05
6.18586e-05
1.44234e-05
1.77736e-05
1.9764e-07
4.96176e-07
4.31535e-09
-3.46807e-09
1.66765e-12
-8.01746e-12
-3.48388e-15
-3.88399e-16
-1.12214e-18
-1.12751e-19
9.30441e-05
0.000164102
0.000204401
0.000126824
0.0001602
8.81204e-05
0.00010241
6.08515e-05
3.62897e-05
5.13551e-05
-1.50202e-05
5.9526e-05
-5.34291e-05
0.000131454
0.00014
8.05089e-05
5.52261e-05
1.64788e-05
1.37675e-05
2.86394e-07
2.44809e-07
4.22559e-09
-2.40127e-09
6.08543e-12
-3.28671e-12
-1.4995e-16
-7.05526e-17
-1.16159e-19
-3.28468e-20
8.7235e-05
0.000120863
0.000246256
0.000120778
0.000201531
8.5489e-05
0.0001349
5.56302e-05
6.08854e-05
3.62557e-05
-8.79532e-06
4.51302e-05
-9.28986e-05
9.89954e-05
-7.57806e-05
0.000207235
4.88322e-05
1.72515e-05
1.07134e-05
3.14925e-07
1.21054e-07
3.10262e-09
-1.5179e-09
8.38881e-12
-1.59764e-12
1.85136e-15
-8.25258e-17
2.77416e-20
-1.0194e-20
1.71645e-05
4.32729e-05
0.00021965
7.74179e-05
0.000244408
7.59456e-05
0.000171657
4.87274e-05
9.27464e-05
2.37692e-05
8.88978e-06
1.85706e-05
-0.000109177
6.14087e-05
-0.000149312
0.000172527
-0.000131245
0.000338479
8.4906e-06
3.06189e-07
6.45467e-08
2.11038e-09
-8.91014e-10
7.36085e-12
-7.71823e-13
2.29864e-15
-7.58462e-17
9.80428e-20
-3.17938e-21
2.85011e-07
6.85301e-06
3.90366e-05
2.99597e-05
0.000212374
3.47447e-05
0.000209436
3.62465e-05
0.000132099
9.36717e-06
3.65103e-05
-3.85128e-06
-0.000105421
1.48143e-05
-0.000215333
0.000127429
-0.000249012
0.000290294
-2.498e-05
0.000363459
3.50799e-08
1.41895e-09
-5.03793e-10
4.94103e-12
-3.40883e-13
2.2036e-15
-6.34527e-17
1.08308e-19
-1.09112e-21
8.57188e-10
1.67877e-08
6.5019e-07
4.15258e-06
3.62115e-05
1.32212e-05
0.000182601
-4.09634e-06
0.000175469
-9.16746e-06
8.15732e-05
-3.57017e-05
-7.29345e-05
-3.6337e-05
-0.00024812
4.76018e-05
-0.000331369
0.000209786
-7.86706e-05
0.000343985
6.59211e-05
0.000297538
-2.51953e-10
3.03181e-12
-1.79998e-13
1.62324e-15
-4.32884e-17
1.03226e-19
-2.01282e-22
1.59831e-12
-9.96816e-11
1.24636e-09
2.23685e-09
7.01403e-07
1.96199e-06
3.1527e-05
-4.34748e-06
0.000160088
-4.84012e-05
0.000134932
-6.42526e-05
2.05541e-06
-0.000110634
-0.000222804
-6.16421e-05
-0.000414312
0.000130545
-0.000205721
0.000336836
6.65475e-05
0.000343358
0.00212749
0.0006115
-0.00244145
-1.15884e-13
1.10179e-15
-2.70672e-17
8.34984e-20
1.18999e-22
7.56645e-16
-4.95797e-14
1.30367e-12
-8.88481e-11
1.57439e-09
-1.69439e-08
7.10691e-07
-7.66285e-08
2.91023e-05
-2.55698e-05
0.000134079
-9.63581e-05
9.58041e-05
-0.000159235
-0.000104056
-0.000228932
-0.000420905
-5.50204e-05
-0.000381317
0.000306141
3.6219e-05
0.000367164
0.00172534
0.000745507
0.00236449
0.000718165
-0.00247116
0.000406648
-0.0028481
-1.83688e-17
6.36878e-20
1.24806e-22
5.21451e-20
-6.14221e-18
6.09857e-16
-6.21675e-14
1.15932e-12
-1.41797e-10
2.37307e-09
-7.29514e-08
8.2873e-07
-2.51519e-06
2.60209e-05
-4.65103e-05
0.000123253
-0.000167603
4.4601e-05
-0.000305919
-0.00031593
-0.000333286
-0.000462462
2.61265e-05
-5.55062e-06
0.00034791
0.00131368
0.000778828
0.00222444
0.000885562
0.00206934
0.000758837
-0.00211001
0.000578268
-0.00264278
0.000309193
-0.0031573
4.09251e-23
-2.34097e-23
5.68297e-20
-9.4505e-18
5.75632e-16
-1.19872e-13
2.02148e-12
-3.46461e-10
5.2155e-09
-2.13823e-07
8.27143e-07
-5.31861e-06
2.56973e-05
-6.86098e-05
0.000111673
-0.000263584
-0.000124259
-0.0004938
-0.000416501
-0.000379123
-9.74506e-05
0.000118026
0.000975203
0.000686387
0.00198302
0.00102025
0.00203645
0.000918448
0.00172585
0.00090595
-0.00187296
0.00072263
-0.00225437
0.0005274
-0.00286098
0.000248186
-0.00340548
-1.7898e-22
8.92613e-20
-2.01474e-17
7.8016e-16
-2.66912e-13
7.53143e-12
-1.21434e-09
1.16983e-08
-8.59223e-07
9.80701e-07
-9.91448e-06
2.31996e-05
-8.21261e-05
5.64285e-05
-0.000436727
-0.000265094
-0.000642436
-0.000273027
-0.000203544
0.000669609
0.000423619
0.0016595
0.00100991
0.00193523
0.00112147
0.00166763
0.000976663
0.00153313
0.00110826
-0.00173544
0.000924638
-0.00207497
0.000700053
-0.00242703
0.000437066
-0.00304986
0.00015232
-0.0035578
-7.25168e-22
1.85334e-19
-2.37197e-16
5.72444e-15
-1.18385e-11
2.65401e-10
-9.20307e-08
5.8629e-08
-6.94119e-06
8.00518e-07
-2.24094e-05
3.31395e-05
-0.00013002
-2.50679e-05
-0.000662071
-0.000282787
-0.000632163
0.000357496
0.000108569
0.00122936
0.000853755
0.00174846
0.00119668
0.00162209
0.00116702
0.00140944
0.00110036
0.00126409
0.00137277
-0.00152857
0.00117232
-0.00198313
0.00088618
-0.0022611
0.000607221
-0.00259718
0.000327737
-0.00322528
9.41217e-05
-0.00365192
-4.61825e-19
4.80277e-16
-4.05498e-13
7.68305e-11
-7.37602e-09
1.0964e-07
-2.4333e-06
2.06259e-07
-1.5248e-05
2.26247e-06
-2.34398e-05
1.75059e-05
-0.000178247
-0.000117205
-0.000811053
0.00012054
-0.000395206
0.000806287
0.000531643
0.00150352
0.00109869
0.00153366
0.00128511
0.00131589
0.00126057
0.0010938
0.00127065
0.00115157
0.000390211
-0.00133991
0.000389776
0.000390693
0.00039046
0.00143413
-0.00179038
0.00109029
-0.00218726
0.000769258
-0.00242313
0.000494372
-0.00276382
0.000199024
-0.00333018
-1.16333e-05
-0.00364029
-2.17688e-15
2.93208e-12
-3.02043e-10
2.84454e-08
-4.5393e-07
2.67644e-07
-5.24584e-06
2.10138e-07
-1.42567e-05
1.53725e-06
-9.10466e-06
-4.89029e-06
-0.000276608
-8.62733e-05
-0.000594789
0.000399536
1.15435e-05
0.00115008
0.000885089
0.00135865
0.0012737
0.00115377
0.00144723
0.00102981
0.00132456
0.000896882
0.00152534
-5.84718e-07
0.00023775
-0.000276306
0.00042935
0.000407482
-0.00156621
0.000407235
0.000422831
0.000422874
0.000238381
-0.000276386
0.0004272
-3.74227e-07
0.000211021
0.000417809
0.000212866
0.000415612
0.00134058
-0.00204133
0.000972444
-0.00239048
0.000664851
-0.00259361
0.00033676
-0.00290155
3.74216e-05
-0.00337923
-0.000110239
-0.00353005
-2.36178e-12
1.55339e-09
-3.3287e-08
2.1859e-07
-1.75963e-06
7.50796e-08
-3.86171e-06
2.19303e-07
-4.7264e-06
4.54703e-08
-1.06792e-05
-1.66045e-05
-0.000333627
8.59872e-05
-0.00028132
0.000645523
0.000516097
0.00113508
0.00110865
0.00095954
0.00146793
0.000945607
0.00153143
0.000685856
0.00153559
-0.000188375
-0.000189245
0.000693095
0.000400056
0.00039878
0.000417366
0.000417565
-7.63589e-07
-0.000306904
0.000438843
-3.26448e-07
0.000195565
-0.000218643
0.000452822
-0.00183256
0.00160677
-0.000306636
0.000436723
-6.03325e-07
-0.000326388
0.000442915
-0.000325474
0.000441097
0.000195817
-0.000218394
0.000449489
-2.24703e-07
0.000425252
0.000421987
0.00124782
-0.00231787
0.000860216
-0.00258588
0.000477768
-0.00273462
0.000130545
-0.00299467
-0.000152763
-0.00333671
-0.00021864
-0.00331141
-4.90985e-10
4.08588e-08
-2.71997e-07
1.02318e-07
-1.85642e-06
-1.96149e-07
-3.89278e-07
-6.54088e-08
-9.72109e-07
-5.54332e-07
-1.97223e-05
-1.96278e-05
-0.000247607
0.000240201
0.00012393
0.000822437
0.000828741
0.000748596
0.0013196
0.000797235
0.0016163
0.000535396
0.00168189
0.000529885
0.000416331
0.000416661
0.000432988
0.000432809
2.51713e-07
0.000108569
-0.000133624
0.000424831
0.000107947
-0.000132855
0.000423911
-2.47904e-07
9.59379e-05
0.000430244
9.56219e-05
0.000429631
-3.93691e-07
-0.000238129
0.000458752
1.34228e-06
0.000157063
-0.000165552
0.000129557
9.89498e-05
0.000126412
0.000105278
-0.00208596
0.00149933
0.00025318
0.000252385
-0.00139813
0.000467268
0.000467504
0.000457011
0.000455705
-0.000237586
0.000455543
-4.12897e-07
0.000458417
0.00045551
0.000156993
-0.000164996
0.000128725
9.99857e-05
0.000125772
0.000104634
1.10692e-06
0.000125402
9.69964e-05
0.000124177
0.000101008
0.000124601
9.86752e-05
0.000123589
0.000100408
0.00108897
-0.00254697
0.00063552
-0.00274359
0.000219319
-0.00282335
-0.000138236
-0.0030092
-0.000361068
-0.00319428
-0.000321211
-0.0029902
-8.81355e-09
4.49629e-08
-3.38989e-07
-3.63697e-07
-1.75202e-07
-7.22656e-08
-1.36491e-08
-5.36477e-09
-6.3356e-07
-8.3148e-07
-3.00894e-05
-9.23216e-06
-4.81684e-05
0.000424106
0.000522242
0.000538595
0.00103874
0.000585396
0.00153144
0.000403363
0.00174833
0.000391491
0.000447603
0.000447503
0.00046305
0.000462124
-2.07613e-07
7.26836e-05
0.000439793
7.26528e-05
0.000439422
-2.20279e-07
5.37796e-05
0.000452112
5.36521e-05
0.000451585
5.33495e-07
5.35894e-05
-2.74746e-05
-1.06385e-05
9.50625e-05
-2.2567e-05
0.000121997
9.57481e-05
0.000121537
-3.13118e-06
5.33393e-05
-2.75341e-05
-1.0394e-05
-2.25645e-05
9.54473e-05
0.000121935
9.58962e-05
0.000121437
-3.11712e-06
5.7816e-07
4.3759e-05
9.80845e-05
0.000121429
9.78695e-05
0.00012202
4.40617e-05
9.8296e-05
0.000121316
9.79194e-05
0.00012191
1.25108e-06
-0.000176869
0.000130839
0.000102468
0.000129879
0.00010607
-2.27294e-05
9.74388e-06
1.6165e-07
2.24946e-05
0.000119887
-9.86721e-06
2.08157e-05
-2.30406e-05
0.000111063
2.38685e-07
-2.47924e-05
0.000118369
2.19178e-05
0.000113913
-0.00231549
0.0013145
-0.00160931
0.000424126
0.00042425
0.000430671
0.000431485
-1.36465e-07
0.000205001
-0.000225736
0.000488155
0.00020609
-0.0002264
0.00048769
4.65804e-07
0.000189548
0.000472002
0.00019093
0.000471334
-0.000176519
0.0001302
0.000103629
0.000129247
0.000105631
1.1081e-06
0.000131339
0.000102126
0.0001288
0.000107728
0.000130752
0.000104317
0.000128401
0.000107563
-2.28217e-05
9.59263e-06
2.25161e-05
0.0001196
-9.60587e-06
2.13384e-05
-2.34615e-05
0.000111746
-2.48525e-05
0.000118435
2.19858e-05
0.0001136
1.93873e-05
1.08502e-05
1.25434e-07
0.000117534
-1.65604e-05
-2.16084e-05
0.000107691
1.78585e-07
0.000116185
0.000112155
1.92457e-05
1.07939e-05
0.000117203
-1.61608e-05
-2.15147e-05
0.000108817
0.000116458
0.000111669
0.000818262
-0.00272953
0.00028781
-0.00281157
-0.000123566
-0.00283766
-0.000433069
-0.00293716
-0.000575675
-0.00293982
-0.000435664
-0.00255453
-1.04008e-08
-9.97353e-08
-5.1798e-08
-6.28329e-08
-9.55764e-09
-5.32971e-09
-2.82733e-09
-3.55807e-09
-5.01574e-07
-1.087e-06
-3.09627e-05
4.98849e-05
0.00028896
0.000271478
0.000789334
0.000350411
0.00127373
0.000282057
0.00165274
0.000251799
0.000466791
0.000466297
0.000477767
0.000477169
-1.35164e-07
3.31399e-05
0.000468379
3.33533e-05
0.000467666
-1.19983e-07
2.21381e-05
0.000474171
2.23928e-05
0.000472965
8.85265e-07
2.97733e-05
0.000101552
0.000123912
0.000102453
0.000124939
3.01235e-05
0.000101972
0.000123886
0.00010348
0.000124895
1.12847e-06
9.94002e-06
0.000108199
0.000129437
0.00010553
0.000127656
1.01336e-05
0.000109271
0.000129386
0.000106505
0.000127567
-5.39279e-06
1.44008e-07
-1.04227e-05
0.000110728
-6.85044e-06
-1.55516e-05
0.000107469
-1.06891e-06
9.02487e-09
0.000122771
-5.0727e-06
-6.81824e-06
-1.07375e-06
0.000103795
-2.57375e-08
-3.26683e-07
0.000114019
3.02099e-08
-8.86211e-06
0.000115017
-6.86789e-06
-1.55385e-05
0.000108622
-5.28761e-06
3.658e-07
-1.08896e-05
0.000111174
-1.0582e-06
-5.14463e-06
0.000122859
-6.66373e-06
-9.49095e-07
0.000103793
-2.99275e-07
0.000113989
-8.78884e-06
0.000115293
-7.80918e-06
2.83523e-06
-3.81579e-06
0.000106872
1.64702e-06
2.4164e-08
-3.12179e-06
0.000115069
-7.40413e-06
0.000107034
6.77146e-09
0.000115963
-7.7309e-06
2.77612e-06
-3.80636e-06
0.000107054
1.62014e-06
-3.07618e-06
0.000115065
-7.30998e-06
0.000107055
0.000115928
2.58832e-05
9.91458e-06
1.59675e-07
-2.81116e-05
0.000122994
-9.89347e-06
-2.47971e-05
0.000114162
2.28184e-07
0.000120848
-2.61802e-05
0.00011738
-1.2994e-05
1.95495e-06
-6.40948e-08
1.14403e-05
0.00011955
-1.5251e-06
1.25206e-05
-1.35582e-05
0.000113634
-5.60625e-08
-1.4213e-05
0.000118101
1.23709e-05
0.000116004
-0.00247495
0.000976883
-0.00182552
0.000375981
0.000375545
0.000388471
0.000388707
-3.07701e-07
0.000254726
-0.000277913
0.00044759
0.000254887
-0.000277852
0.000446865
-2.12163e-07
0.000459858
0.000459758
8.77273e-07
0.000118915
-0.000127154
0.000110155
0.000136598
0.000111441
0.000137571
0.000118798
-0.000126586
0.000110838
0.000136288
0.000111982
0.000137278
6.20341e-07
1.95126e-05
3.99613e-05
0.00011023
8.6353e-06
0.000135827
0.000108609
0.00013675
3.12346e-05
1.95896e-05
3.9853e-05
0.000110558
8.78106e-06
0.000135571
0.000108861
0.000136395
3.11737e-05
2.59358e-05
9.85253e-06
-2.8178e-05
0.000122749
-9.66421e-06
-2.4745e-05
0.000114624
0.000120894
-2.63671e-05
0.000117128
-3.0518e-05
1.06201e-05
1.74236e-07
0.000123037
-1.71763e-05
2.568e-05
0.000113179
1.78013e-07
0.000120961
0.000117874
-3.05926e-05
1.04866e-05
0.00012291
-1.66349e-05
2.61179e-05
0.000114458
0.000121289
0.000117819
-1.2948e-05
1.72584e-06
1.13581e-05
0.0001194
-1.31158e-06
1.24021e-05
-1.35641e-05
0.000114237
-1.42295e-05
0.000118349
1.23767e-05
0.000115358
3.77587e-06
4.85972e-09
0.000116352
0.000112704
3.71036e-06
0.000116067
0.000112199
0.000356497
-0.00279526
-0.000145445
-0.0027877
-0.000499652
-0.00276996
-0.000759194
-0.00275358
-0.000809964
-0.00256552
-0.000506851
-0.00204768
-1.76555e-10
-3.50357e-09
-5.30603e-09
-6.46549e-09
-1.30654e-09
-1.47625e-09
-9.67061e-10
-2.88223e-09
-3.86724e-07
-1.29175e-06
1.53393e-05
2.60449e-05
0.000488208
0.000128835
0.00101086
0.000126463
0.00142932
0.000111948
0.000446741
0.000446242
0.000449921
0.000449689
-3.67111e-08
1.52914e-05
0.000473674
1.56154e-05
0.000473038
-5.73535e-08
6.8895e-06
0.000486226
7.17851e-06
0.000485549
1.03695e-06
-1.51267e-06
0.000109163
0.000130208
0.000109772
0.000129688
-1.58152e-06
0.00011022
0.000130078
0.000110631
0.000129481
1.07348e-06
-1.14464e-05
0.00011219
0.0001305
0.000110668
0.000129644
-1.22951e-05
0.000113329
0.00013034
0.000111582
0.000129473
-7.5958e-06
-5.45184e-06
0.000110784
-4.94395e-06
3.27576e-08
0.000118121
-8.01305e-06
-5.66327e-06
0.000110683
-8.9017e-09
-5.25043e-06
0.000117278
-7.51997e-06
-5.50141e-06
0.000111188
-4.89761e-06
0.000118221
-7.69101e-06
-5.65994e-06
0.00011133
-5.22993e-06
0.000117517
-7.92557e-06
8.49768e-06
-9.94922e-06
0.000117572
8.16756e-06
-2.63308e-08
-1.00839e-05
0.000123476
-8.02222e-06
0.000116381
1.63685e-08
0.000122515
-7.53553e-06
8.53923e-06
-1.02307e-05
0.000118499
8.17517e-06
-1.00922e-05
0.00012375
-7.76438e-06
0.000117149
0.000122774
-2.16509e-06
-2.61919e-06
-6.06692e-07
-1.87036e-05
-2.02692e-05
-8.55322e-09
-2.71068e-08
3.30706e-07
-9.03158e-07
-5.23805e-06
-2.10894e-08
-5.13432e-06
-2.09746e-06
-2.5246e-06
-5.76937e-07
-1.87284e-05
3.79739e-07
-2.02555e-05
-8.68854e-07
-5.23566e-06
-5.13278e-06
-1.16564e-06
4.62537e-06
-5.63707e-06
4.60442e-06
-2.13518e-08
-5.36913e-06
-1.08007e-06
-1.45605e-08
-1.10734e-06
4.6208e-06
-5.72064e-06
4.6012e-06
-5.39102e-06
-1.05925e-06
1.4641e-05
2.08977e-06
-4.90115e-08
-1.78569e-05
0.000124186
-1.66764e-06
-1.33875e-05
0.000115692
-5.09131e-08
0.000119676
-1.44662e-05
0.000120559
-2.28426e-06
8.04655e-07
-1.91391e-08
4.0554e-07
-8.44322e-07
2.06759e-06
-2.66862e-06
-5.56014e-08
-2.82697e-06
7.30701e-07
-0.00256643
0.000450144
-0.00196617
0.000265749
0.000264989
0.000293457
0.000293153
-2.15212e-07
0.000289896
-0.000283074
0.000369375
0.000289338
-0.000282704
0.000368686
-1.65165e-07
0.000400509
0.000399928
1.36966e-06
0.000146291
-0.000161999
0.000101455
0.000125567
0.000104919
0.000129879
0.000145406
-0.000161535
0.000102603
0.000125494
0.000106311
0.000129882
1.16761e-06
0.000107405
0.000132255
0.000106327
0.000132001
0.000108232
0.000132067
0.000107697
0.000131774
-8.86773e-06
1.31858e-05
-1.19972e-05
0.000117842
1.4137e-05
-2.11837e-08
-1.31484e-05
0.000126816
-8.40432e-06
1.19376e-05
0.000121087
-1.36487e-08
1.29298e-05
0.000130388
-8.63416e-06
1.3208e-05
-1.22804e-05
0.000118548
1.40983e-05
-1.31826e-05
0.00012675
-8.23131e-06
1.19587e-05
0.000121466
1.2888e-05
0.00013029
-5.58163e-06
-6.98017e-06
-5.60863e-06
0.00012845
-7.29619e-06
1.13326e-05
0.000117824
-1.02118e-05
-4.98672e-08
0.000139689
8.56824e-07
-7.9702e-06
0.000121511
-2.89711e-09
0.000131501
1.828e-08
2.04769e-05
0.000124422
-5.3691e-06
-6.90314e-06
-6.05277e-06
0.000128921
-7.33121e-06
1.1446e-05
0.000119173
-1.0147e-05
0.000139703
7.44083e-07
-7.84842e-06
0.000121777
0.000131439
2.04746e-05
0.000124789
1.46057e-05
1.89381e-06
-1.7787e-05
0.000123992