/*--------------------------------*- C++ -*----------------------------------*\
| =========                 |                                                 |
| \\      /  F ield         | OpenFOAM: The Open Source CFD Toolbox           |
|  \\    /   O peration     | Version:  5.x                                   |
|   \\  /    A nd           | Web:      www.OpenFOAM.org                      |
|    \\/     M anipulation  |                                                 |
\*---------------------------------------------------------------------------*/
FoamFile
{
    version     2.0;
    format      ascii;
    class       volScalarField;
    location    "2.2";
    object      k;
}
// * * * * * * * * * * * * * * * * * * * * * * * * * * * * * * * * * * * * * //

dimensions      [0 2 -2 0 0 0 0];

internalField   nonuniform List<scalar> 
12160
(
9.94577e-09
9.90838e-09
1.00189e-08
9.88344e-09
1.00518e-08
1.00087e-08
9.86941e-09
1.00817e-08
1.00181e-08
1.00081e-08
9.86272e-09
1.01264e-08
1.00287e-08
1.00155e-08
1.00081e-08
9.86004e-09
1.01464e-08
1.00395e-08
1.00215e-08
1.00155e-08
1.00091e-08
9.85928e-09
1.01466e-08
1.00453e-08
1.0026e-08
1.00208e-08
1.00178e-08
1.00095e-08
9.85927e-09
1.01395e-08
1.00459e-08
1.00282e-08
1.00241e-08
1.0023e-08
1.0021e-08
1.00161e-08
9.85947e-09
1.01308e-08
1.00438e-08
1.00285e-08
1.00257e-08
1.00256e-08
1.00271e-08
1.00386e-08
1.01325e-08
9.85962e-09
1.01227e-08
1.00419e-08
1.00279e-08
1.0026e-08
1.00265e-08
1.00294e-08
1.00425e-08
1.01335e-08
1.01403e-08
9.85962e-09
1.01153e-08
1.00405e-08
1.00273e-08
1.00258e-08
1.00265e-08
1.00295e-08
1.00393e-08
1.01234e-08
1.01387e-08
1.02143e-08
9.85942e-09
1.01086e-08
1.00396e-08
1.00268e-08
1.00255e-08
1.00265e-08
1.0029e-08
1.00374e-08
1.0108e-08
1.01445e-08
1.02053e-08
1.0227e-08
9.85905e-09
1.01024e-08
1.00388e-08
1.00264e-08
1.00251e-08
1.00263e-08
1.00286e-08
1.0038e-08
1.00967e-08
1.01459e-08
1.02219e-08
1.01744e-08
1.01218e-08
9.85869e-09
1.00968e-08
1.0038e-08
1.00261e-08
1.00248e-08
1.0026e-08
1.00284e-08
1.00405e-08
1.0088e-08
1.0145e-08
1.01784e-08
1.01485e-08
1.00676e-08
1.01105e-08
9.85854e-09
1.00958e-08
1.00372e-08
1.00257e-08
1.00244e-08
1.00257e-08
1.00282e-08
1.00429e-08
1.0082e-08
1.01406e-08
1.01754e-08
1.00872e-08
1.00839e-08
1.00612e-08
1.00686e-08
9.85851e-09
1.00955e-08
1.00368e-08
1.00254e-08
1.0024e-08
1.00252e-08
1.00278e-08
1.00445e-08
1.00792e-08
1.01324e-08
1.01786e-08
1.01012e-08
1.00444e-08
1.00478e-08
1.00203e-08
9.8585e-09
1.00951e-08
1.00367e-08
1.00251e-08
1.00236e-08
1.00247e-08
1.00273e-08
1.00449e-08
1.00782e-08
1.01211e-08
1.01826e-08
1.01105e-08
1.00392e-08
1.00332e-08
1.00316e-08
9.8585e-09
1.00949e-08
1.00369e-08
1.0025e-08
1.00233e-08
1.00242e-08
1.00266e-08
1.00444e-08
1.00773e-08
1.01082e-08
1.01813e-08
1.01245e-08
1.00385e-08
1.00277e-08
1.00179e-08
9.85851e-09
1.0095e-08
1.00371e-08
1.0025e-08
1.00231e-08
1.00238e-08
1.00257e-08
1.00433e-08
1.00754e-08
1.01009e-08
1.01762e-08
1.0134e-08
1.00416e-08
1.00251e-08
1.00156e-08
9.859e-09
1.00952e-08
1.00372e-08
1.0025e-08
1.0023e-08
1.00235e-08
1.00248e-08
1.00418e-08
1.0073e-08
1.00957e-08
1.01643e-08
1.01482e-08
1.00451e-08
1.00257e-08
1.00137e-08
9.85978e-09
1.00936e-08
1.00372e-08
1.0025e-08
1.00229e-08
1.00233e-08
1.00239e-08
1.00402e-08
1.00703e-08
1.00912e-08
1.01486e-08
1.01677e-08
1.00513e-08
1.0026e-08
1.00142e-08
9.86052e-09
1.00912e-08
1.00373e-08
1.00249e-08
1.00227e-08
1.00231e-08
1.00235e-08
1.00384e-08
1.00677e-08
1.00867e-08
1.01368e-08
1.01811e-08
1.00621e-08
1.00272e-08
1.00145e-08
9.86116e-09
1.00901e-08
1.00375e-08
1.00247e-08
1.00225e-08
1.00229e-08
1.00232e-08
1.00371e-08
1.00651e-08
1.00817e-08
1.01267e-08
1.0174e-08
1.0084e-08
1.00291e-08
1.00158e-08
9.86169e-09
1.00896e-08
1.00375e-08
1.00246e-08
1.00222e-08
1.00226e-08
1.00229e-08
1.00359e-08
1.0062e-08
1.00763e-08
1.01174e-08
1.01655e-08
1.01057e-08
1.00353e-08
1.00176e-08
9.8621e-09
1.00895e-08
1.00374e-08
1.00244e-08
1.00219e-08
1.00222e-08
1.00226e-08
1.00345e-08
1.00584e-08
1.00711e-08
1.01071e-08
1.0158e-08
1.01163e-08
1.00454e-08
1.00202e-08
9.86239e-09
1.00899e-08
1.00371e-08
1.00242e-08
1.00216e-08
1.00218e-08
1.00224e-08
1.00328e-08
1.00543e-08
1.00667e-08
1.00952e-08
1.01529e-08
1.01203e-08
1.00539e-08
1.00236e-08
9.86258e-09
1.00906e-08
1.00369e-08
1.0024e-08
1.00213e-08
1.00215e-08
1.00222e-08
1.00311e-08
1.00499e-08
1.00627e-08
1.00853e-08
1.01503e-08
1.01202e-08
1.0059e-08
1.00271e-08
9.86267e-09
1.00915e-08
1.00366e-08
1.00239e-08
1.0021e-08
1.00211e-08
1.00218e-08
1.00291e-08
1.00451e-08
1.00585e-08
1.00774e-08
1.01452e-08
1.01183e-08
1.00598e-08
1.00298e-08
9.86269e-09
1.00926e-08
1.00362e-08
1.00238e-08
1.0021e-08
1.00208e-08
1.00212e-08
1.0027e-08
1.00404e-08
1.00541e-08
1.00703e-08
1.01291e-08
1.01162e-08
1.00582e-08
1.0031e-08
9.86267e-09
1.00939e-08
1.00356e-08
1.00238e-08
1.00211e-08
1.00208e-08
1.00205e-08
1.00245e-08
1.00358e-08
1.00492e-08
1.00639e-08
1.01053e-08
1.01099e-08
1.00587e-08
1.00313e-08
9.86267e-09
1.00947e-08
1.0035e-08
1.00238e-08
1.00213e-08
1.0021e-08
1.00204e-08
1.00222e-08
1.00315e-08
1.0044e-08
1.00566e-08
1.00829e-08
1.00985e-08
1.00617e-08
1.00322e-08
9.86279e-09
1.00952e-08
1.00342e-08
1.00238e-08
1.00216e-08
1.00213e-08
1.00211e-08
1.0022e-08
1.00282e-08
1.0039e-08
1.00495e-08
1.00662e-08
1.00848e-08
1.00607e-08
1.00343e-08
9.86309e-09
1.00958e-08
1.00335e-08
1.00237e-08
1.00218e-08
1.00217e-08
1.00219e-08
1.00242e-08
1.00284e-08
1.00351e-08
1.0043e-08
1.00533e-08
1.00695e-08
1.0056e-08
1.00352e-08
9.86357e-09
1.00966e-08
1.00328e-08
1.00237e-08
1.0022e-08
1.00221e-08
1.00226e-08
1.00269e-08
1.00321e-08
1.00354e-08
1.0038e-08
1.00433e-08
1.00545e-08
1.00492e-08
1.00341e-08
9.8642e-09
1.00977e-08
1.00323e-08
1.00237e-08
1.00223e-08
1.00225e-08
1.00234e-08
1.00298e-08
1.00367e-08
1.00396e-08
1.00385e-08
1.00365e-08
1.00414e-08
1.00407e-08
1.00314e-08
9.8651e-09
1.00994e-08
1.0032e-08
1.00238e-08
1.00226e-08
1.00229e-08
1.00241e-08
1.00326e-08
1.00416e-08
1.00448e-08
1.00436e-08
1.00379e-08
1.00326e-08
1.00325e-08
1.00276e-08
9.86612e-09
1.01013e-08
1.00321e-08
1.0024e-08
1.00229e-08
1.00233e-08
1.00249e-08
1.00352e-08
1.00465e-08
1.00503e-08
1.00503e-08
1.00454e-08
1.00345e-08
1.00266e-08
1.00233e-08
9.86723e-09
1.01036e-08
1.00324e-08
1.00242e-08
1.00232e-08
1.00238e-08
1.00258e-08
1.00378e-08
1.00512e-08
1.00558e-08
1.0058e-08
1.00555e-08
1.0044e-08
1.0027e-08
1.00196e-08
9.86848e-09
1.01063e-08
1.00331e-08
1.00246e-08
1.00236e-08
1.00243e-08
1.00269e-08
1.00404e-08
1.00559e-08
1.00614e-08
1.0067e-08
1.00679e-08
1.0055e-08
1.00321e-08
1.00193e-08
9.86995e-09
1.01093e-08
1.00341e-08
1.00251e-08
1.00241e-08
1.00249e-08
1.00281e-08
1.00431e-08
1.00603e-08
1.00672e-08
1.00776e-08
1.0083e-08
1.00657e-08
1.0037e-08
1.00211e-08
1.01127e-08
9.87144e-09
1.00353e-08
1.00256e-08
1.00247e-08
1.00256e-08
1.00296e-08
1.00459e-08
1.00647e-08
1.00729e-08
1.00882e-08
1.01014e-08
1.00745e-08
1.00409e-08
1.00224e-08
1.00365e-08
1.01157e-08
9.8741e-09
1.00263e-08
1.00253e-08
1.00264e-08
1.00311e-08
1.00487e-08
1.0069e-08
1.00788e-08
1.00972e-08
1.0118e-08
1.00799e-08
1.00426e-08
1.00229e-08
1.00271e-08
1.00383e-08
1.0126e-08
9.87827e-09
1.0026e-08
1.00273e-08
1.00329e-08
1.00515e-08
1.00734e-08
1.0085e-08
1.01053e-08
1.01272e-08
1.00809e-08
1.00413e-08
1.0023e-08
1.00268e-08
1.00281e-08
1.00423e-08
1.01449e-08
9.89116e-09
1.00283e-08
1.00348e-08
1.00542e-08
1.00775e-08
1.00913e-08
1.01136e-08
1.01311e-08
1.00797e-08
1.00385e-08
1.00225e-08
1.00294e-08
1.00277e-08
1.00303e-08
1.00492e-08
1.01903e-08
9.91962e-09
1.00367e-08
1.00567e-08
1.00814e-08
1.00974e-08
1.01229e-08
1.01339e-08
1.00778e-08
1.00358e-08
1.00212e-08
1.00385e-08
1.00305e-08
1.00296e-08
1.00339e-08
1.00624e-08
1.02746e-08
1.00067e-08
1.0059e-08
1.00848e-08
1.01031e-08
1.01322e-08
1.01349e-08
1.00762e-08
1.00333e-08
1.00193e-08
1.00609e-08
1.004e-08
1.00324e-08
1.00318e-08
1.00416e-08
1.00987e-08
1.04048e-08
1.00888e-08
1.00877e-08
1.01082e-08
1.01403e-08
1.01348e-08
1.00758e-08
1.00313e-08
1.00176e-08
1.00898e-08
1.00616e-08
1.0042e-08
1.0034e-08
1.00357e-08
1.00629e-08
1.01557e-08
1.05212e-08
1.01953e-08
1.01124e-08
1.01464e-08
1.01346e-08
1.00757e-08
1.003e-08
1.00163e-08
1.0116e-08
1.00915e-08
1.00625e-08
1.0043e-08
1.00361e-08
1.00467e-08
1.01111e-08
1.03403e-08
1.09525e-08
1.01757e-08
1.01504e-08
1.01342e-08
1.00747e-08
1.00297e-08
1.00155e-08
1.01514e-08
1.012e-08
1.00932e-08
1.00618e-08
1.0047e-08
1.01592e-08
1.07769e-08
1.32108e-08
2.00392e-08
1.18063e-08
1.31096e-06
1.01369e-08
1.00724e-08
1.00297e-08
1.0015e-08
1.03195e-08
1.02009e-08
1.01256e-08
1.00977e-08
1.04121e-08
1.32177e-08
3.27313e-08
8.22932e-08
1.74546e-07
7.54008e-08
1.37594e-06
0.0041586
1.00698e-08
1.00297e-08
1.00147e-08
1.00904e-08
1.89612e-08
1.064e-07
1.08699e-08
1.44064e-08
5.96256e-08
3.3251e-07
1.1944e-06
2.06412e-06
1.40986e-06
1.14464e-06
0.00310532
0.00572624
0.0054495
1.00298e-08
1.00144e-08
1.0032e-08
1.27705e-08
8.4835e-07
1.62758e-05
7.99537e-07
4.80205e-07
2.93998e-06
1.08045e-05
2.09695e-05
1.55704e-05
6.21171e-07
0.00225383
0.00448375
0.00748906
0.00720496
0.00667041
1.00144e-08
1.00145e-08
1.04084e-08
4.16225e-07
4.76603e-05
0.000771004
7.25595e-05
2.40962e-05
8.14725e-05
0.000155363
0.0001282
7.99696e-06
0.00122314
0.00359083
0.00579667
0.0107945
0.00929202
0.00868459
0.00794489
1.00341e-08
9.51585e-08
2.76053e-05
0.00129163
0.0120442
0.00201151
0.000660263
0.00109779
0.000913514
0.000211557
0.000515479
0.00276844
0.0044357
0.00821093
0.0148276
0.0129435
0.0107365
0.0101303
0.00923423
1.78083e-08
8.58162e-06
0.000792907
0.014472
0.0573612
0.0152549
0.00936269
0.00595332
0.00172384
0.000152255
0.0018486
0.00343539
0.00601613
0.011365
0.0185556
0.0174545
0.0145289
0.0121462
0.0116532
0.0105492
1.27049e-06
0.000335386
0.0095794
0.0588225
0.0986885
0.0545899
0.039932
0.0125321
0.000184685
0.00105221
0.00270848
0.00452663
0.00821682
0.0143935
0.0296458
0.0214575
0.019604
0.0163871
0.0138293
0.0133309
0.0118794
7.92246e-05
0.00502717
0.0469143
0.0812395
0.10734
0.111335
0.0594929
0.00957998
0.000455861
0.00191613
0.00371223
0.00622554
0.0102283
0.0209405
0.58457
0.0325068
0.584996
0.504724
0.505031
0.0246167
0.02248
0.0188213
0.015894
0.0154246
0.0132394
0.00181917
0.0291929
0.079095
0.0728602
0.107407
0.124105
0.0627806
0.00251604
0.00121883
0.00284574
0.00525001
0.00750962
0.0140179
0.152431
0.668825
0.692266
0.0288015
0.66928
0.613294
0.613926
0.692503
0.602641
0.602844
0.028681
0.0259795
0.0217543
0.0184475
0.017927
0.0145413
0.0147849
0.0616287
0.0659417
0.0647955
0.0841782
0.0845036
0.0441247
0.00127023
0.00186973
0.00402286
0.00632801
0.00923774
0.0550833
0.447688
0.447651
0.456393
0.4565
0.759682
0.679172
0.0332005
0.0482246
0.759958
0.690672
0.691215
0.678904
0.600158
0.599962
0.0331638
0.0302041
0.0252214
0.0215804
0.0208308
0.015716
0.0392871
0.0623841
0.0502969
0.0510239
0.0541897
0.0781561
0.0261552
0.00180103
0.00239723
0.00521301
0.00702525
0.0259245
0.462325
0.462405
0.481031
0.48132
0.517733
0.518223
0.552096
0.552127
0.73177
0.589387
0.92786
0.59016
0.950033
0.038284
0.041666
0.603221
0.603304
0.599172
0.599413
0.73152
0.747733
0.747766
0.588498
0.932471
0.590551
0.94528
0.543124
0.823977
0.524498
0.892822
0.542103
0.831424
0.525067
0.88709
0.0385771
0.0349609
0.029177
0.025144
0.0239042
0.0166547
0.0484822
0.0467681
0.0399481
0.0397505
0.0466573
0.0796396
0.0253198
0.00355623
0.00302025
0.00560348
0.0184211
0.505111
0.50537
0.526697
0.527322
0.594618
0.594567
0.620186
0.620156
0.76102
0.844792
0.469458
0.77072
0.47683
0.484634
0.852527
0.763819
0.470013
0.771197
0.477025
0.485843
0.860045
0.522942
0.834986
0.514396
0.861112
0.52308
0.834992
0.514388
0.648745
0.997562
0.632737
1.04427
0.53599
0.956174
0.541514
0.955895
0.0443984
0.0451144
0.547903
0.548146
0.567868
0.567832
0.745098
0.745053
0.732881
0.733151
0.648022
1.00195
0.633001
1.04051
0.671869
1.02682
0.673398
1.07424
0.672002
1.03959
0.674972
1.07525
0.535241
0.963381
0.542748
0.952407
0.506027
0.916666
0.50476
0.910636
0.044757
0.0401749
0.0333628
0.0286385
0.0267989
0.0171011
0.036675
0.028396
0.0311878
0.0334021
0.0456879
0.0758052
0.0331571
0.00747669
0.003319
0.014226
0.548377
0.548769
0.57763
0.578101
0.657106
0.657058
0.682111
0.682217
0.917876
0.560648
0.920918
0.563033
0.92076
0.561108
0.92685
0.563913
0.970033
0.590591
0.954737
0.583759
0.977828
0.591799
0.961634
0.584874
0.844499
0.797096
0.464675
0.460461
0.823513
0.471649
0.852494
0.799604
0.461998
0.465171
0.823675
0.471752
0.916222
0.518052
0.899264
0.507347
0.917685
0.518308
0.899268
0.507348
0.59533
1.00532
0.573191
1.05508
0.514779
0.957059
0.52042
0.957761
0.0518567
0.0492205
0.446522
0.446872
0.50976
0.509956
0.664483
0.664451
0.693411
0.693339
1.08496
0.678173
1.10478
0.687782
1.08844
0.678671
1.10725
0.688133
1.06249
1.03707
0.666966
1.08105
0.677223
0.629777
1.06582
1.04988
0.66755
1.08275
0.677536
0.632044
0.594575
1.01019
0.573918
1.0517
0.619612
1.09279
0.61975
1.09281
0.513941
0.964238
0.521825
0.953357
0.488637
0.923078
0.487274
0.916542
0.0514559
0.045168
0.0369935
0.0316628
0.0286966
0.0169265
0.0125348
0.0167105
0.0250605
0.0286755
0.0422939
0.0693518
0.0473615
0.0154884
0.00589668
0.49759
0.497973
0.463318
0.463764
0.67498
0.674924
0.697299
0.697522
1.00336
0.616483
1.00477
0.618248
1.01009
0.617535
1.0107
0.619171
1.02039
0.641519
1.02721
0.634115
1.02775
0.642613
1.03317
0.635087
0.983339
0.552734
0.985148
0.556099
0.98756
0.553532
0.992697
0.55757
1.0266
0.573457
1.02276
0.570934
1.03588
0.575318
1.03075
0.572606
0.57173
0.990601
0.545615
1.05737
0.0602628
0.0558849
0.29997
0.300312
0.343112
0.343351
0.455168
0.454991
0.55915
0.559053
0.883573
0.566912
0.956523
0.594574
0.891752
0.567996
0.96608
0.595967
1.03773
0.639953
1.0149
0.627116
1.04289
0.640754
1.02454
0.628513
1.13604
0.65585
1.15655
0.668455
1.14091
0.656683
1.15946
0.668986
1.04094
1.1036
0.656275
0.593304
1.14147
0.663471
1.05438
1.10692
0.656894
0.595963
1.14344
0.663852
0.570775
0.993426
0.546253
1.05219
0.586509
1.061
0.58685
1.06242
0.0580473
0.0492369
0.0394724
0.0337601
0.0293042
0.0160086
0.00522983
0.0108748
0.0197157
0.025145
0.0382238
0.0643125
0.0589494
0.0283222
0.0264287
0.633909
0.634157
0.604814
0.605332
0.72492
0.725012
0.734354
0.734439
1.06314
0.594734
1.07996
0.600445
1.0712
0.596391
1.08692
0.601875
1.08503
0.626041
1.09629
0.611541
1.09328
0.627594
1.10351
0.613032
1.04486
0.572575
1.05417
0.574488
0.0701426
0.0656903
0.182521
0.182889
0.220337
0.220661
0.252081
0.252199
0.330545
0.330439
0.610928
0.378547
0.626729
0.395161
0.620337
0.379761
0.63578
0.396367
0.750986
0.483633
0.721828
0.466438
0.759476
0.484766
0.730134
0.467492
0.934938
0.525887
0.988977
0.559756
0.944818
0.52775
0.998547
0.561709
1.09611
0.621653
1.02986
0.595839
1.10244
0.622861
1.04012
0.597781
0.0638446
0.0516119
0.0406862
0.0348834
0.0286541
0.0146076
0.00281763
0.0082614
0.0169712
0.0209615
0.0336581
0.05841
0.0650082
0.041227
0.459484
0.459699
0.464839
0.465187
0.646875
0.646661
0.610309
0.61072
0.655002
1.06492
0.651187
1.07898
0.654861
1.06527
0.651307
1.07812
0.656145
1.03766
0.640296
1.07541
0.656062
1.04196
0.640944
1.07473
1.07599
0.585737
1.09648
0.589368
1.08366
0.587443
1.10241
0.590762
1.10789
0.60757
1.10798
0.596067
1.11483
0.60904
1.11326
0.5974
0.0802556
0.0826786
0.0672113
0.146551
0.146607
0.168968
0.168894
0.192835
0.192773
0.257968
0.258365
0.558801
0.325395
0.640695
0.356351
0.569318
0.327319
0.650187
0.358264
0.787018
0.445849
0.742505
0.419228
0.797029
0.447781
0.751787
0.421014
0.912514
0.505433
0.922646
0.507413
0.0677453
0.0518137
0.0409868
0.0345752
0.0267727
0.0123865
0.0018229
0.00720219
0.0135126
0.0159492
0.030142
0.0545686
0.0683458
0.0592463
0.588804
0.588621
0.573341
0.573117
0.960249
0.584427
0.587255
0.947772
0.964948
0.585041
0.587083
0.947539
0.632124
0.632067
0.632966
1.14158
0.635443
1.15374
0.632641
1.14182
0.635514
1.15171
0.624973
1.09433
0.599646
1.15357
0.624946
1.1008
0.600853
1.15304
1.12583
0.610226
1.13171
0.611392
0.0872947
0.101454
0.10475
0.111201
0.110382
0.05137
0.0505696
0.0888434
0.0874756
0.112769
0.112923
0.175543
0.235372
0.158455
0.281145
0.175271
0.233445
0.158141
0.277584
0.218192
0.417283
0.239018
0.355843
0.21829
0.420394
0.239672
0.35553
0.553926
0.298167
0.608883
0.330999
0.562406
0.300016
0.615806
0.332682
0.788515
0.43163
0.704885
0.391262
0.798049
0.433681
0.712074
0.392953
0.0677081
0.0501285
0.0402182
0.0330274
0.0221316
0.00134963
0.00561552
0.0102129
0.0134694
0.030439
0.0537334
0.0683953
0.499027
0.498802
0.459734
0.459901
0.918383
0.554976
0.904263
0.567384
0.921243
0.555397
0.907378
0.567728
0.647799
0.647787
1.02519
0.560651
0.5676
0.999646
1.02981
0.561545
0.567608
1.00003
0.929474
0.563026
0.942588
0.565781
0.933564
0.563608
0.943327
0.565881
0.60905
1.08322
0.578477
1.14274
0.609383
1.0894
0.579694
1.14483
0.0878189
0.112922
0.140017
0.186719
0.25488
0.253063
0.159524
0.156641
0.123572
0.123178
0.187509
0.120187
0.110754
0.16299
0.187936
0.11958
0.109881
0.165075
0.172801
0.283207
0.152046
0.324928
0.172422
0.280993
0.151542
0.322412
0.203317
0.424122
0.227122
0.378267
0.203361
0.427159
0.22778
0.37792
0.534978
0.286794
0.542938
0.288556
0.0634426
0.0471679
0.0391016
0.0304349
0.00101672
0.00470816
0.00841682
0.0130374
0.0353599
0.0420494
0.417717
0.417781
0.499036
0.499302
0.566269
0.566126
0.496124
0.496015
0.981816
0.543639
0.968351
0.565616
0.984814
0.544258
0.970629
0.566021
0.585792
0.89903
0.570775
0.968518
0.585949
0.901329
0.571009
0.969346
1.03711
0.54693
0.55107
1.02989
1.03875
0.547423
0.55091
1.02877
0.991105
0.540502
1.00251
0.547397
0.995153
0.541304
1.00369
0.547671
0.0813533
0.113415
0.154176
0.242134
0.539947
0.539286
0.508113
0.507101
0.469029
0.466688
0.514687
0.222382
0.505972
0.249615
0.505813
0.21996
0.496631
0.246454
0.433608
0.187456
0.395208
0.172753
0.224897
0.122824
0.429595
0.186345
0.393478
0.172183
0.224628
0.122235
0.253281
0.130727
0.252027
0.130236
0.170693
0.334524
0.159445
0.343326
0.170245
0.332181
0.158891
0.340902
0.0563277
0.0443906
0.0389586
0.00101299
0.00401951
0.00824822
0.0156454
0.0339967
0.0478884
0.389025
0.388895
0.455983
0.456226
0.779441
0.927046
0.4897
0.745109
0.466304
0.540922
0.92865
0.780329
0.54119
0.489805
0.746424
0.46644
0.571217
0.381715
0.626419
0.405407
0.572468
0.3817
0.627843
0.40559
1.00692
0.53912
1.0163
0.557307
1.00897
0.539619
1.01788
0.557641
0.559333
1.00355
0.559541
1.00448
0.54603
1.03039
0.545955
1.02978
1.00325
0.536103
1.00701
0.536848
0.0690424
0.104536
0.149839
0.238146
0.636178
0.635782
0.627815
0.626814
0.789982
0.788171
0.793746
0.793519
0.494313
1.01822
0.512482
1.03267
0.344167
0.734761
0.493458
1.01497
0.511285
1.02933
0.342894
0.730304
0.675613
0.308351
0.671256
0.30725
0.611242
0.277227
0.563979
0.368657
0.254923
0.163273
0.608063
0.276369
0.56211
0.367242
0.254376
0.16275
0.36234
0.160235
0.36017
0.159667
0.0495548
0.0473347
0.000897873
0.0037151
0.0111758
0.0230725
0.0542425
0.211578
0.211569
0.111313
0.111352
0.242862
0.242642
0.337727
0.338027
0.901522
0.753192
0.447264
0.513197
0.670081
0.399757
0.903105
0.754245
0.513457
0.447423
0.671401
0.39995
0.416968
0.286424
0.507568
0.319501
0.419475
0.286659
0.509595
0.319856
1.01878
0.553305
1.0202
0.553604
0.0560442
0.0861444
0.13549
0.209604
0.462039
0.841454
0.840558
0.837662
0.835547
1.50775
0.792627
1.55931
0.796436
1.5016
0.790714
1.55789
0.796244
1.51155
1.26789
0.780274
1.53157
0.790622
0.628922
1.51861
1.26763
0.781966
1.53563
0.791617
0.628863
0.600656
0.464609
1.22533
0.97515
0.600095
0.463547
1.22276
0.970819
0.899253
0.430157
0.896266
0.429375
0.818593
0.39078
0.4962
0.222542
0.816683
0.390201
0.494684
0.222032
0.0553371
0.000666183
0.00521662
0.0159401
0.0424961
0.17144
0.284206
0.284124
0.176047
0.175959
0.180956
0.25131
0.18277
0.249017
0.180601
0.252114
0.182963
0.247075
0.28237
0.282557
0.30467
0.217519
0.389421
0.266431
0.308237
0.218265
0.392344
0.267024
0.0626987
0.0645657
0.108691
0.17948
0.326658
1.02449
1.02456
1.0545
1.0536
1.01326
1.0122
1.11509
1.11215
1.84438
0.94274
1.84111
0.946981
1.84339
0.942396
1.84594
0.947932
1.48003
1.70176
0.760959
0.898749
1.79035
0.936103
1.48774
1.71296
0.901049
0.762586
1.79986
0.938108
0.571524
1.16912
0.570634
1.16538
0.000790938
0.00790702
0.0282272
0.113176
0.469794
0.469993
0.637633
0.63693
0.389289
0.389747
0.357164
0.357466
0.148859
0.229538
0.146666
0.2422
0.150376
0.236986
0.148071
0.249356
0.452299
0.248184
0.338808
0.197936
0.457976
0.248997
0.344919
0.199136
0.248214
0.166626
0.254131
0.168053
0.0695475
0.076064
0.13847
0.24762
0.581651
1.21584
1.21548
1.30853
1.30681
1.37701
1.37466
1.04397
2.09856
1.07408
1.99103
1.04208
2.08793
1.07174
1.98442
2.1239
1.09699
2.10013
1.11377
2.11845
1.09566
2.09908
1.1134
0.00150789
0.0140269
0.0569997
0.316529
0.693263
0.692938
0.811515
0.81008
0.518154
0.247995
0.351827
0.589445
0.3112
0.67504
0.521776
0.248569
0.351778
0.589531
0.311328
0.674696
0.465995
0.465651
0.141434
0.225004
0.131296
0.257889
0.142521
0.22888
0.132163
0.262728
0.378366
0.189533
0.381248
0.189951
0.076027
0.0918212
0.178686
0.36408
1.05654
1.05699
1.1891
1.18949
1.27347
1.27484
1.54042
1.53962
2.3441
1.22242
2.48597
1.26694
2.2959
1.17761
2.34345
1.22155
2.48941
1.26772
2.2899
1.17635
2.33134
1.19779
2.32293
1.19598
2.31652
1.21694
2.3083
1.21507
0.00298311
0.0341047
0.128379
0.798073
0.795961
0.623871
0.622028
1.07271
1.07222
1.01542
1.01431
0.48348
0.236075
0.324204
0.519883
0.270231
0.636525
0.48483
0.236352
0.324323
0.52005
0.270344
0.636861
0.94128
0.504572
0.674778
0.378301
0.944614
0.504866
0.676113
0.378643
0.0824857
0.113339
0.232676
0.571971
1.19298
1.19206
1.35991
1.35869
1.55881
1.55929
2.58197
1.34041
1.31965
2.7013
1.40966
2.44898
1.321
2.70291
1.41007
2.45607
2.58609
1.34127
2.66638
2.52603
1.37975
1.29359
2.67455
2.53062
1.38145
1.29448
2.50481
1.2921
2.50193
1.29133
0.011573
0.0854716
0.172512
0.410623
0.409879
0.268481
0.26937
1.39983
0.708248
0.898194
1.86367
0.862606
1.94267
1.40198
0.708655
0.897998
1.86416
0.862832
1.94234
0.753045
0.752223
0.306234
0.573819
0.306534
0.574912
1.06292
0.541095
1.06568
0.541678
0.0893
0.137304
0.303886
0.91159
0.91075
1.07002
1.06855
1.16487
1.16332
1.48183
1.4785
2.41052
1.30976
2.73653
1.44942
2.70512
1.44704
2.40234
2.71224
1.44862
1.30742
2.73683
1.44977
2.77671
1.4521
2.84228
1.5277
2.85226
2.77812
1.52942
1.45231
0.0467555
0.0956966
0.133556
0.120213
0.119341
0.10566
0.103836
1.60144
0.74081
0.540562
1.26461
0.581572
1.03375
1.6038
0.741383
0.541197
1.26611
0.582313
1.03638
0.135111
0.112291
0.143138
0.147472
0.135791
0.112299
0.143644
0.147649
1.26966
0.585774
1.2725
0.586458
0.0958052
0.161063
0.376359
0.893384
0.891104
1.07289
1.06884
1.32754
1.32212
2.57579
1.37252
1.16613
2.4815
1.308
2.10489
2.57746
1.37297
1.16429
2.47555
1.30696
2.09822
2.83987
2.86484
1.51068
1.56585
2.87096
1.56706
2.84517
1.51214
0.0933085
0.190476
0.481455
0.244902
0.240165
0.477414
0.461665
0.461221
0.27139
0.157744
0.0974887
0.269007
0.159876
0.0977453
1.23643
0.553798
0.202136
0.371567
0.246683
0.221384
1.23835
0.554374
0.202347
0.372265
0.24703
0.222508
0.157212
0.0958291
0.159234
0.0962984
0.100895
0.176883
0.345853
0.758547
0.75526
1.03701
1.02967
1.84441
1.03874
2.24695
1.18444
2.31744
1.24212
1.81969
2.30253
1.23871
1.03148
2.2267
1.17978
2.69358
1.42763
2.59155
1.37899
2.69659
1.42846
2.58471
1.37765
2.86628
1.53752
2.8749
1.53961
0.191442
0.354242
0.573272
0.994066
0.566349
0.994317
0.981483
0.981732
0.65804
0.328384
0.226112
0.279004
0.179338
0.485506
0.695874
0.514619
0.329249
0.653147
0.225937
0.280621
0.179236
0.484674
0.67743
0.51187
0.115055
0.14701
0.115378
0.148018
0.27228
0.142162
0.275957
0.142924
0.101833
0.170234
0.407728
0.701092
0.698035
0.406828
0.497774
0.49609
0.90725
1.82646
1.00741
0.902145
1.81758
1.00476
2.47734
2.19361
1.31195
1.15954
2.45912
1.30819
2.18721
1.15771
2.76568
1.50294
2.67034
1.45093
2.76776
1.50339
2.65935
1.44859
0.173831
0.309312
1.09632
0.714227
1.13468
0.858845
1.09612
0.712641
1.10501
0.859127
0.754075
0.753705
0.496214
1.07376
0.313582
0.18642
0.373187
0.675804
0.495736
0.315017
1.06386
0.186583
0.373136
0.674439
0.135075
0.270861
0.135886
0.274719
0.0968262
0.165717
0.380613
0.548407
0.545381
0.378658
0.44684
0.444192
1.13293
1.53815
0.897151
1.71851
0.971765
0.685907
0.899341
0.613164
1.1201
1.52563
0.893803
1.70887
0.968983
0.683399
0.881205
0.606699
2.42225
2.09365
1.29903
1.13377
2.41282
1.29667
2.08768
1.13214
0.117702
0.105821
0.22295
0.222608
0.106141
0.048816
0.0487247
1.59993
0.888511
1.76233
0.983615
1.51416
0.869693
1.74013
0.937045
0.359638
1.26218
0.700992
1.59824
0.887786
1.76732
0.984261
1.50367
0.871659
1.73933
0.93739
0.359226
1.26024
0.701118
0.814786
1.49439
0.570753
0.867153
0.808246
1.48788
0.569923
0.866488
0.088179
0.106374
0.255845
0.512109
0.532985
0.812929
0.509748
0.534031
0.81678
0.251832
0.33467
0.326039
1.32861
1.03207
1.81405
0.791642
1.03896
0.62704
1.31911
1.03337
1.80478
1.03697
0.789778
0.627418
2.33835
1.27985
2.33234
1.27806
0.0111264
0.132619
0.0541507
0.132274
0.054282
0.0351579
0.0350561
1.71657
1.80408
0.985002
0.977757
1.46242
0.788094
0.15029
0.491234
0.302067
0.92854
0.519868
0.177231
0.179641
0.202406
1.71545
1.8173
0.977519
0.986217
1.45895
0.787059
0.491833
0.146184
0.301348
0.930925
0.518977
0.17306
0.175463
0.198187
0.0644936
0.0430906
0.212874
0.210585
0.0451545
0.0912616
0.0905807
0.541628
0.488757
0.74176
0.486291
0.730454
0.436476
0.66713
0.435469
0.515368
0.490214
0.740218
0.485706
0.735244
0.425982
0.647079
0.43175
0.261494
0.447787
0.347442
0.257118
0.430347
0.33972
1.18064
0.877936
0.739242
0.549441
1.18232
0.88499
0.73955
0.550988
0.00558305
0.0745372
0.152294
0.1563
0.0349992
0.0743371
0.153027
0.15725
0.0345701
0.0243394
0.0240653
1.54048
0.839419
1.13846
0.601113
0.202194
0.153245
0.617152
0.331372
0.154183
0.12839
1.54742
0.840407
1.13725
0.600253
0.205531
0.614261
0.153183
0.330092
0.153624
0.127945
0.0471912
0.058711
0.127488
0.124682
0.058794
0.0740246
0.0735139
0.810435
0.708944
0.529927
0.455371
0.563908
0.376107
0.814618
0.69639
0.53098
0.453351
0.546106
0.372776
0.274335
0.31478
0.250865
0.370008
0.29468
0.221895
0.245908
0.307484
0.266864
0.309479
0.248474
0.356068
0.28776
0.218549
0.236324
0.297866
0.00540679
0.0182128
0.0181466
0.0482243
0.128921
0.0990913
0.129236
0.105035
0.0279638
0.0474714
0.13052
0.0973159
0.126766
0.10669
0.0276251
0.299647
0.137791
0.123996
0.185176
0.112007
0.105773
0.300052
0.137488
0.124942
0.1845
0.111475
0.106184
0.0393892
0.0434874
0.105062
0.231716
0.164206
0.102872
0.232423
0.163314
0.0442457
0.0625002
0.0627778
0.612812
0.424065
0.43638
0.301951
0.59472
0.422019
0.424632
0.299796
0.264078
0.183014
0.349786
0.186336
0.256028
0.139738
0.261191
0.17758
0.345309
0.255247
0.185676
0.138334
0.000813219
0.0132265
0.0150626
0.0131979
0.0150936
0.0392598
0.120676
0.0717856
0.12691
0.0637387
0.116335
0.0974123
0.0208695
0.038436
0.122633
0.0696097
0.123573
0.0641825
0.112396
0.0952034
0.0206393
0.122521
0.0956227
0.122926
0.0955188
0.0315186
0.0369223
0.0373235
0.0955274
0.235448
0.164741
0.253451
0.156473
0.0943586
0.23625
0.156492
0.242299
0.155104
0.0546549
0.0547646
0.183545
0.268435
0.157718
0.151759
0.210651
0.12566
0.179627
0.266619
0.150674
0.21052
0.151285
0.124021
0.00104105
0.030581
0.0410092
0.0305809
0.0411132
0.020242
0.0201363
0.0326556
0.111418
0.0583078
0.110832
0.0564993
0.064847
0.0867967
0.0797655
0.0704879
0.107028
0.0839654
0.0320986
0.113651
0.0577398
0.11035
0.0571823
0.0655284
0.0825446
0.0770396
0.0712487
0.102768
0.0823703
0.0458315
0.0276436
0.0267219
0.028313
0.0277428
0.0885543
0.218674
0.158364
0.241165
0.141829
0.140709
0.116868
0.0875608
0.223161
0.151935
0.233423
0.143726
0.135361
0.115664
0.0399854
0.0405466
0.152132
0.135607
0.14725
0.135182
0.00104881
0.0556271
0.058095
0.0557711
0.0580253
0.0376903
0.0458186
0.0376853
0.0459559
0.0296173
0.0289455
0.106134
0.055132
0.109093
0.0515256
0.0645696
0.0670127
0.0694535
0.0652334
0.0617327
0.0821087
0.0695255
0.0695796
0.107508
0.0541267
0.107683
0.0518621
0.0657989
0.0667773
0.0695132
0.0665016
0.0617437
0.0769337
0.0675158
0.0692739
0.0672519
0.0375615
0.0723269
0.0382927
0.0722388
0.0373908
0.0387784
0.0742318
0.204191
0.151027
0.211604
0.14043
0.118366
0.132303
0.115295
0.12785
0.135155
0.128043
0.0736926
0.206991
0.144768
0.204051
0.142157
0.118383
0.128382
0.114691
0.126411
0.131987
0.128014
0.000256369
0.0567698
0.0301315
0.0566281
0.0296996
0.0659529
0.0703874
0.0660735
0.0703519
0.0397167
0.041532
0.039442
0.0412703
0.104156
0.0532807
0.103181
0.0510603
0.10624
0.0541873
0.105348
0.0516596
0.0678562
0.0663975
0.0723732
0.0603153
0.0683655
0.0649833
0.0714008
0.0607489
0.0749729
0.109421
0.115286
0.108592
0.114827
0.049566
0.108945
0.0503149
0.107752
0.0687088
0.0695433
0.195029
0.142626
0.212074
0.120422
0.129401
0.140497
0.128968
0.138535
0.137106
0.127812
0.128174
0.125431
0.200119
0.137505
0.205537
0.123678
0.129363
0.137999
0.128601
0.138506
0.138382
0.125694
0.128849
0.12457
0.00564945
0.00031657
0.0655683
0.0343655
0.0653219
0.0338363
0.0554054
0.0668844
0.0556699
0.0670331
0.113842
0.0611713
0.105263
0.0592661
0.114752
0.0624878
0.111813
0.0591768
0.117609
0.0631892
0.108249
0.0615144
0.11801
0.0628417
0.112414
0.0606858
0.0697286
0.0642844
0.0696342
0.06344
0.0708738
0.0658492
0.0713127
0.0644545
0.0812443
0.133416
0.118185
0.132977
0.119118
0.15372
0.150081
0.151204
0.14822
0.0789783
0.147729
0.0791534
0.145046
0.19386
0.127245
0.199495
0.119786
0.200285
0.127716
0.200096
0.123586
0.0976857
0.118737
0.113735
0.0928553
0.0980499
0.117307
0.113237
0.0944149
0.0018406
0.0377458
0.0218284
0.0376001
0.0220492
0.000402177
0.067473
0.0441526
0.0674373
0.0434783
0.110543
0.0697582
0.108553
0.067519
0.115473
0.0834648
0.113809
0.0765594
0.113885
0.070661
0.10942
0.0700802
0.118238
0.0820109
0.111582
0.0787209
0.0740708
0.0720427
0.0740996
0.0682892
0.0721548
0.0701946
0.0731341
0.066411
0.0769791
0.0751629
0.0766669
0.071518
0.074349
0.070779
0.0739064
0.0685652
0.0923054
0.136622
0.156353
0.188122
0.154712
0.186339
0.205063
0.193649
0.199209
0.188936
0.196891
0.131657
0.202209
0.135518
0.209835
0.247248
0.220832