/*--------------------------------*- C++ -*----------------------------------*\
| =========                 |                                                 |
| \\      /  F ield         | OpenFOAM: The Open Source CFD Toolbox           |
|  \\    /   O peration     | Version:  5.x                                   |
|   \\  /    A nd           | Web:      www.OpenFOAM.org                      |
|    \\/     M anipulation  |                                                 |
\*---------------------------------------------------------------------------*/
FoamFile
{
    version     2.0;
    format      ascii;
    class       surfaceScalarField;
    location    "2.2";
    object      meshPhi;
}
// * * * * * * * * * * * * * * * * * * * * * * * * * * * * * * * * * * * * * //

dimensions      [0 3 -1 0 0 0 0];

internalField   nonuniform List<scalar> 
30582
(
0
0
0
0
0
0
0
0
0
0
0
0
0
0
0
0
0
0
0
0
0
0
0
0
0
0
0
0
0
0
0
0
0
0
0
0
0
0
0
0
0
0
0
0
0
0
0
0
0
0
0
0
0
0
0
0
0
0
0
0
0
0
0
0
0
0
0
0
0
0
0
0
0
0
0
0
0
0
0
0
0
0
0
0
0
0
0
0
0
0
0
0
0
0
0
0
0
0
0
0
0
0
0
0
0
0
0
0
0
0
0
0
0
0
0
0
0
0
0
0
0
0
0
0
0
0
0
0
0
0
0
0
0
0
0
0
0
0
0
0
0
0
0
0
0
0
0
0
0
0
0
0
0
0
0
0
0
0
0
0
0
0
0
0
0
0
0
0
0
0
0
0
0
0
0
0
0
0
0
0
0
0
0
0
0
0
0
0
0
0
0
0
0
0
0
0
0
0
0
0
0
0
0
0
0
0
0
0
0
0
0
0
0
0
0
0
0
0
0
0
0
0
0
0
0
0
0
0
0
0
0
0
0
0
0
0
0
0
0
0
0
0
0
0
0
0
0
0
0
0
0
0
0
0
0
0
0
0
0
0
0
0
0
0
0
0
0
0
0
0
0
0
0
0
0
0
0
0
0
0
0
0
0
0
0
0
0
0
0
0
0
0
0
0
0
0
0
0
0
0
0
0
0
0
0
0
0
0
0
0
0
0
0
0
0
0
0
0
0
0
0
0
0
0
0
0
0
0
0
0
0
0
0
0
0
0
0
0
0
0
0
0
0
0
0
0
0
0
0
0
0
0
0
0
0
0
0
0
0
0
0
0
0
0
0
0
0
0
0
0
0
0
0
0
0
0
0
0
0
0
0
0
0
0
0
0
0
0
0
0
0
0
0
0
0
0
0
0
0
0
0
0
0
0
0
0
0
0
0
0
0
0
0
0
0
0
0
0
0
0
0
0
0
0
0
0
0
0
0
0
0
0
0
0
0
0
0
0
0
0
0
0
0
0
0
0
0
0
0
0
0
0
0
0
0
0
0
0
0
0
0
0
0
0
0
0
0
0
0
0
0
0
0
0
0
0
0
0
0
0
0
0
0
0
0
0
0
0
0
0
0
0
0
0
0
0
0
0
0
0
0
0
0
0
0
0
0
0
0
0
0
0
0
0
0
0
0
0
0
0
0
0
0
0
0
0
0
0
0
0
0
0
0
0
0
0
0
0
0
0
0
0
0
0
0
0
0
0
0
0
0
0
0
0
0
0
0
0
0
0
0
0
0
0
0
0
0
0
0
0
0
0
0
0
0
0
0
0
0
0
0
0
0
0
0
0
0
0
0
0
0
0
0
0
0
0
0
0
0
0
0
0
0
0
0
0
0
0
0
0
0
0
0
0
0
0
0
0
0
0
0
0
0
0
0
0
0
0
0
0
0
0
0
0
0
0
0
0
0
0
0
0
0
0
0
0
0
0
0
0
0
0
0
0
0
0
0
0
0
0
0
0
0
0
0
0
0
0
0
0
0
0
0
0
0
0
0
0
0
0
0
0
0
0
0
0
0
0
0
0
0
0
0
0
0
0
0
0
0
0
0
0
0
0
0
0
0
0
0
0
0
0
0
0
0
0
0
0
0
0
0
0
0
0
0
0
0
0
0
0
0
0
0
0
0
0
0
0
0
0
0
0
0
0
0
0
0
0
0
0
0
0
0
0
0
0
0
0
0
0
0
0
0
0
0
0
0
0
0
0
0
0
0
0
0
0
0
0
0
0
0
0
0
0
0
0
0
0
0
0
0
0
0
0
0
0
0
0
0
0
0
0
0
0
0
0
0
0
0
0
0
0
0
0
0
0
0
0
0
0
0
0
0
0
0
0
0
0
0
0
0
0
0
0
0
0
0
0
0
0
0
0
0
0
0
0
0
0
0
0
0
0
0
0
0
0
0
0
0
0
0
0
0
0
0
0
0
0
0
0
0
0
0
0
0
0
0
0
0
0
0
0
0
0
0
0
0
0
0
0
0
0
0
0
0
0
0
0
0
0
0
0
0
0
0
0
0
0
0
0
0
0
0
0
0
0
0
0
0
0
0
0
0
0
0
0
0
0
0
0
0
0
0
0
0
0
0
0
0
0
0
0
0
0
0
0
0
0
0
0
0
0
0
0
0
0
0
0
0
0
0
0
0
0
0
0
0
0
0
0
0
0
0
0
0
0
0
0
0
0
0
0
0
0
0
0
0
0
0
0
0
0
0
0
0
0
0
0
0
0
0
0
0
0
0
0
0
0
0
0
0
0
0
0
0
0
0
0
0
0
0
0
0
0
0
0
0
0
0
0
0
0
0
0
0
0
0
0
0
0
0
0
0
0
0
0
0
0
0
0
0
0
0
0
0
0
0
0
0
0
0
0
0
0
0
0
0
0
0
0
0
0
0
0
0
0
0
0
0
0
0
0
0
0
0
0
0
0
0
0
0
0
0
0
0
0
0
0
0
0
0
0
0
0
0
0
0
0
0
0
0
0
0
0
0
0
0
0
0
0
0
0
0
0
0
0
0
0
0
0
0
0
0
0
0
0
0
0
0
0
0
0
0
0
0
0
0
0
0
0
0
0
0
0
0
0
0
0
0
0
0
0
0
0
0
0
0
0
0
0
0
0
0
0
0
0
0
0
0
0
0
0
0
0
0
0
0
0
0
0
0
0
0
0
0
0
0
0
0
0
0
0
0
0
0
0
0
0
0
0
0
0
0
0
0
0
0
0
0
0
0
0
0
0
0
0
0
0
0
0
0
0
0
0
0
0
0
0
0
0
0
0
0
0
0
0
0
0
0
0
0
0
0
0
0
0
0
0
0
0
0
0
0
0
0
0
0
0
0
0
0
0
0
0
0
0
0
0
0
0
0
0
0
0
0
0
0
0
0
0
0
0
0
0
0
0
0
0
0
0
0
0
0
0
0
0
0
0
0
0
0
0
0
0
0
0
0
0
0
0
0
0
0
0
0
0
0
0
0
0
0
0
0
0
0
0
0
0
0
0
0
0
0
0
0
0
0
0
0
0
0
0
0
0
0
0
0
0
0
0
0
0
0
0
0
0
0
0
0
0
0
0
0
0
0
0
0
0
0
0
0
0
0
0
0
0
0
0
0
0
0
0
0
0
0
0
0
0
0
0
0
0
0
0
0
0
0
0
0
0
0
0
0
0
0
0
0
0
0
0
0
0
0
0
0
0
0
0
0
0
0
0
0
0
0
0
0
0
0
0
0
0
0
0
0
0
0
0
0
0
0
0
0
0
0
0
0
0
0
0
0
0
0
0
0
0
0
0
0
0
0
0
0
0
0
0
0
0
0
0
0
0
0
0
0
0
0
0
0
0
0
-2.82285e-18
9.95565e-18
-4.03943e-25
2.98633e-17
1.49287e-17
1.99208e-17
0
0
0
0
0
0
0
0
0
0
0
0
0
0
0
0
0
0
0
0
0
0
0
0
0
0
0
0
0
0
0
0
0
0
0
0
0
0
4.9661e-18
1.56343e-34
-7.24404e-19
1.15098e-25
2.48634e-17
-1.99085e-17
-2.77549e-18
2.98633e-17
-4.97651e-18
2.98722e-17
-1.4407e-18
-3.15591e-25
-4.97306e-17
3.60479e-34
-2.13344e-18
2.98475e-17
7.21426e-18
-4.97459e-17
0
0
0
0
0
0
0
0
0
0
0
0
0
0
0
0
0
0
0
0
0
0
0
0
0
0
0
0
0
0
0
0
0
0
0
0
0
8.27299e-19
-4.28519e-18
3.14456e-17
-3.49537e-20
-5.95101e-17
-1.98188e-17
3.97537e-17
-1.30526e-35
-1.41966e-18
1.49181e-17
1.8124e-33
-7.32288e-19
2.01225e-25
2.48047e-17
0
8.45421e-17
-8.31995e-21
-3.97845e-17
-2.22233e-35
6.95613e-19
2.98475e-17
7.21426e-18
-2.98487e-17
-4.48884e-20
3.16648e-24
-2.9771e-17
2.77859e-34
-6.53248e-21
-3.96913e-17
0
0
0
0
0
0
0
0
0
0
0
0
0
0
0
0
0
0
0
0
0
0
0
0
0
0
0
0
0
0
0
0
0
0
0
1.56194e-17
2.97681e-17
1.98155e-17
5.01735e-18
5.08465e-20
2.34085e-34
8.95695e-20
5.36875e-20
3.47468e-17
1.14298e-17
-2.74282e-18
-1.95745e-17
-1.80346e-34
2.39288e-19
1.48335e-17
-2.67359e-18
-1.97797e-17
1.07051e-34
7.84749e-20
-4.96605e-18
0
4.25679e-19
8.64963e-24
8.64527e-18
-1.48122e-17
1.11124e-17
-1.48332e-17
0
0
2.06705e-18
-4.24747e-18
2.0308e-17
1.26616e-20
2.98249e-17
9.88033e-18
-5.95101e-17
-8.97769e-20
-3.96947e-17
-2.25993e-34
-9.92931e-18
-7.94228e-17
0
-4.02539e-24
2.22364e-17
-2.46792e-18
2.22216e-17
-4.95387e-18
0
-9.91082e-18
2.55899e-18
-9.99089e-18
9.90655e-18
-1.23908e-17
9.97649e-18
-1.25206e-17
2.48696e-18
0
0
0
0
0
0
0
0
0
0
0
0
0
0
0
0
0
0
0
0
0
0
0
0
0
0
0
0
0
0
0
0
0
-1.36995e-17
2.49062e-17
-1.98826e-17
1.49261e-17
1.00766e-17
-7.83651e-35
-4.28467e-18
2.97352e-17
2.70634e-18
-3.95587e-17
-2.93521e-34
1.00867e-17
1.49493e-17
0
-3.99549e-17
1.01876e-35
-2.1222e-11
-5.71337e-12
-2.12274e-09
8.53755e-14
-3.13625e-13
1.66534e-08
2.43014e-13
1.68552e-08
-1.47993e-10
9.01848e-19
-1.7428e-19
5.69745e-19
1.75045e-19
-5.03464e-18
1.92914e-17
1.26489e-18
1.19482e-17
2.29979e-18
3.72233e-34
-7.26255e-16
9.852e-13
1.64763e-08
-1.31516e-14
3.32525e-08
6.96245e-19
1.20805e-18
2.70496e-17
4.92911e-18
3.44967e-17
0
-3.85562e-19
1.1123e-17
-4.94135e-18
1.60466e-17
-9.87849e-18
8.08951e-19
8.2688e-20
0
-5.15711e-19
8.61746e-18
-1.5077e-31
8.33477e-19
3.76472e-23
-2.45159e-18
0
5.8659e-22
-1.30599e-15
9.65112e-19
-9.83975e-18
0
0
-4.06281e-17
5.0175e-18
1.00361e-17
-1.72061e-20
1.98155e-17
0
1.42436e-18
1.2981e-18
4.94215e-18
-7.13918e-18
-2.67348e-18
-2.1272e-33
0
1.62113e-22
1.48451e-17
-2.85063e-18
-9.86967e-18
-8.21828e-20
1.35858e-17
-4.93659e-18
8.64387e-18
-4.94736e-18
0
-9.90265e-18
5.0358e-18
-1.49433e-17
9.90048e-18
-1.4856e-17
1.24649e-17
-1.24965e-17
4.95654e-18
1.22543e-18
8.25696e-20
-1.40647e-18
8.60459e-18
0
8.22619e-20
-8.61903e-26
-8.60836e-18
-9.57906e-26
6.14896e-18
0
1.70484e-21
-1.39938e-18
0
0
1.96713e-17
-8.1861e-20
-1.33137e-18
9.85197e-13
0
1.39316e-10
-1.47055e-17
-1.00599e-18
1.64337e-19
1.71863e-17
8.16723e-20
-1.3308e-18
-9.90934e-18
3.7294e-17
-9.84168e-18
0
0
0
0
0
0
0
0
0
0
0
0
0
0
0
0
0
0
0
0
0
0
0
0
0
0
0
0
0
0
0
5.53759e-18
1.73058e-20
-9.90168e-18
1.00873e-17
-1.00401e-17
-2.50259e-35
-1.25447e-18
-1.49873e-17
1.39449e-17
-3.97684e-17
-3.52323e-35
-9.7608e-20
4.94518e-18
1.15046e-17
-1.9829e-17
1.1028e-25
4.78035e-09
-3.54675e-12
1.49377e-08
8.24008e-11
1.63848e-08
1.04516e-08
-4.86452e-18
1.98986e-17
1.56127e-12
-1.19752e-10
-3.8321e-27
-4.6581e-09
3.8954e-10
1.50309e-09
-1.38948e-10
4.79231e-10
-1.01828e-08
-1.43813e-12
-7.45074e-10
-1.26983e-12
2.4406e-10
-7.03864e-20
3.4305e-19
-1.05624e-18
-1.00491e-12
8.05336e-20
-2.29882e-13
-1.46139e-13
5.0132e-16
-1.22152e-34
-1.7742e-08
-7.25651e-16
-1.96011e-24
5.3201e-13
1.9826e-17
-3.42961e-34
-9.36754e-11
-4.92285e-18
0
2.15969e-09
1.63555e-08
8.04886e-20
-4.92338e-19
-9.98386e-18
0
6.20832e-19
-7.72615e-20
1.07814e-17
-1.31532e-18
4.10293e-18
6.26694e-19
-6.73844e-20
-1.79532e-19
1.48646e-17
-1.21489e-18
-2.35228e-17
5.10877e-19
1.73028e-17
1.2822e-25
-5.25442e-13
7.09348e-12
1.31361e-12
4.68958e-11
1.1651e-34
1.96119e-08
-2.07568e-09
-3.8402e-24
1.97887e-17
-4.35893e-35
-1.61074e-17
0
5.33632e-19
1.40404e-18
4.82692e-18
-9.94993e-19
-1.15329e-17
4.15687e-18
6.96277e-20
9.88303e-18
-1.85725e-17
6.7611e-19
8.26881e-20
0
-1.03369e-18
1.10859e-17
-8.23876e-20
7.42755e-19
-9.82847e-18
0
-1.29861e-15
5.46512e-19
-1.97222e-17
-2.24157e-09
-8.28829e-20
0
2.11231e-09
2.5446e-11
0
1.18225e-13
7.81608e-22
-3.14561e-13
0
4.16644e-21
1.65171e-08
7.88184e-14
-1.64275e-14
0
0
-1.36995e-17
1.50091e-17
-9.90892e-18
-5.02351e-18
-9.87259e-18
4.66179e-34
4.11573e-18
1.3485e-18
1.00233e-17
-2.93169e-18
1.09253e-19
0
-5.5601e-34
4.99783e-18
0
0
1.66847e-16
1.83264e-08
-3.94082e-12
1.76749e-08
-1.23234e-17
-5.06062e-15
-2.44653e-18
6.96161e-19
-9.75523e-18
1.24616e-17
-4.92896e-18
2.70994e-17
0
-2.01967e-12
-1.46427e-10
7.2238e-14
-1.28241e-12
1.73578e-08
-1.78088e-17
-7.85027e-15
-2.30848e-09
1.03476e-21
2.35054e-18
-1.22605e-18
3.28871e-20
4.22079e-17
-6.18478e-18
3.978e-17
3.94155e-18
1.00197e-18
8.257e-20
-1.42791e-18
2.58782e-17
8.22404e-20
8.22661e-20
-1.22975e-18
1.47571e-17
-2.37411e-36
-2.46761e-18
-1.00618e-18
1.6457e-19
0
2.46004e-17
0
-1.48196e-18
5.38555e-13
0
1.68221e-08
-1.71945e-17
-1.30711e-18
8.21672e-20
2.82933e-17
0
-1.44608e-18
-2.4648e-18
1.72708e-17
9.87631e-34
6.58446e-19
-1.65712e-19
-2.87607e-18
2.71542e-17
0
2.99402e-19
-2.22233e-24
-1.01589e-21
-1.02656e-23
4.89461e-17
1.00991e-19
-2.46718e-18
-8.22786e-20
0
-1.64649e-08
-1.59272e-13
-8.22507e-20
9.64602e-18
-3.63526e-18
0
0
0
0
0
0
0
0
0
0
0
0
0
0
0
0
0
0
0
0
0
0
0
0
0
0
0
0
0
-1.69885e-17
2.49277e-17
-2.32771e-20
-4.956e-18
-4.71094e-20
-8.88914e-34
-2.47656e-18
1.97818e-17
2.24428e-17
-1.97285e-17
-1.36455e-33
5.91387e-18
-1.99506e-17
5.91571e-18
-1.95517e-17
-3.9338e-26
-4.56554e-09
1.60203e-10
-1.6858e-08
-4.09282e-09
-1.68629e-08
-9.98191e-09
9.29104e-13
-3.11756e-10
-8.2101e-13
8.17531e-09
-1.1985e-26
6.75974e-11
-4.22582e-09
1.693e-08
-4.15097e-09
1.67766e-08
1.43565e-10
4.06397e-13
8.46356e-09
7.59426e-13
8.29506e-09
-7.48023e-20
6.37099e-12
-1.31359e-12
2.0398e-08
-1.11039e-34
-2.07402e-09
0
-5.20349e-09
3.18164e-17
1.53458e-26
-1.84863e-12
-2.20063e-17
0
-3.59947e-18
5.07122e-18
6.71779e-19
-1.30074e-17
-7.74075e-20
1.96357e-12
1.22293e-17
1.04057e-08
-3.54294e-17
-1.99254e-24
-7.09348e-12
4.92843e-09
1.03326e-17
-2.02743e-08
1.52263e-26
1.84152e-12
-2.57659e-15
-7.95399e-20
2.51336e-17
-1.44374e-26
-1.25102e-17
-1.56619e-19
-1.52323e-18
-1.84042e-12
8.90266e-18
7.31619e-18
-9.85539e-09
6.68548e-18
7.9463e-20
1.508e-17
-1.99929e-17
-6.01443e-20
4.59763e-13
-3.98621e-25
-2.90553e-18
-1.26067e-16
-8.00721e-35
1.31957e-34
2.80705e-09
-2.80471e-20
6.56794e-14
-4.70449e-34
-8.88289e-09
-1.46183e-33
5.39381e-20
-3.19261e-34
-8.30273e-19
-1.16855e-18
2.05199e-18
-2.80653e-20
-4.93089e-19
1.95856e-19
-3.88202e-20
9.40684e-19
6.39914e-19
-1.29183e-18
-1.40518e-35
4.1807e-16
3.6521e-20
-4.72661e-34
-4.30713e-34
1.39917e-19
-7.9533e-19
-1.26272e-18
-2.34325e-18
0
8.25469e-11
-8.28788e-20
0
2.18277e-09
-1.66693e-08
0
5.7669e-19
1.38459e-14
0
-1.65322e-08
3.28413e-14
-1.55999e-13
-1.23349e-09
-4.53587e-20
7.93882e-34
1.38795e-09
-1.76753e-24
-1.18225e-13
-4.34249e-21
3.72279e-34
-7.48614e-21
-7.88162e-14
0
0
5.77062e-18
1.00384e-17
-1.3371e-32
-9.91825e-18
-9.93576e-18
1.44161e-35
8.55327e-18
-3.92952e-19
4.92147e-18
-1.38499e-17
1.17034e-17
-5.95368e-17
1.25963e-35
4.89664e-18
-3.97017e-17
1.68045e-26
-4.78029e-09
-4.65816e-09
3.9394e-10
1.85811e-08
-1.42388e-10
1.73163e-08
-1.04517e-08
-1.01828e-08
-1.49149e-12
-7.45049e-10
-1.26708e-12
2.44085e-10
-4.83575e-25
-1.21509e-12
3.28598e-08
8.21716e-11
1.63849e-08
-3.64822e-18
1.49239e-17
1.56675e-12
-1.19702e-10
-6.1978e-24
-5.74023e-19
-7.04422e-12
-4.59763e-13
-3.63885e-16
0
-1.96115e-08
-1.6303e-08
0
1.59624e-18
1.73344e-17
0
-1.88123e-16
-1.47805e-17
7.19578e-20
3.42934e-19
7.16093e-19
3.82955e-20
5.02495e-19
-4.92994e-18
6.28281e-18
-6.96197e-20
6.97137e-19
7.40684e-18
-9.51456e-19
-2.34586e-17
-7.03861e-20
-1.42717e-18
-6.73225e-13
-1.00489e-12
-8.05324e-20
1.51064e-13
2.47933e-13
3.75182e-17
0
-1.7742e-08
-3.61878e-09
0
2.46722e-17
0
-2.09752e-17
0
-2.54385e-10
3.41435e-08
-7.03782e-20
-5.8553e-19
4.01025e-19
-2.55378e-19
8.04888e-20
-3.05501e-19
-4.98528e-18
5.2707e-19
-4.55141e-18
4.10281e-18
6.73841e-20
9.90343e-18
-1.10334e-17
4.47022e-19
3.22324e-17
1.38804e-18
-8.28552e-20
-3.41412e-18
3.45544e-17
2.08186e-33
1.63005e-19
-2.44687e-18
2.69253e-17
-2.33019e-19
-1.12839e-21
-1.69398e-24
0
1.6576e-08
4.08851e-13
-8.22519e-20
2.91239e-17
-3.64554e-18
-4.30684e-19
-4.53273e-20
-5.54019e-19
-4.29204e-20
1.06346e-19
-5.56353e-24
3.11475e-23
-5.57133e-20
1.46995e-19
1.70312e-34
-4.89812e-20
0
0
0
0
0
0
0
0
0
0
0
0
0
0
0
0
0
0
0
0
0
0
0
0
0
0
0
0
7.46709e-17
8.23618e-34
8.65554e-18
-9.99253e-18
2.79842e-17
-9.83672e-18
3.73803e-33
8.33457e-18
4.9177e-18
-1.69814e-17
-2.98244e-17
-4.89623e-25
-5.85575e-18
3.92058e-09
2.80913e-17
8.5801e-09
-6.17359e-34
-1.40862e-17
2.48106e-17
2.91259e-17
-4.96222e-17
-7.61663e-20
-2.49585e-12
-1.15402e-17
-2.64067e-10
0
-2.59581e-15
2.31877e-19
4.99605e-09
-2.47105e-17
0
2.50406e-12
9.89612e-18
1.52208e-19
-7.5138e-19
-3.7325e-18
-7.85693e-18
2.21904e-17
-7.72049e-20
-1.68306e-12
-1.64589e-20
-9.98888e-09
1.85478e-17
7.87596e-20
-3.3497e-12
-1.06605e-10
2.56151e-12
-4.5886e-10
0
4.56267e-10
1.69324e-08
7.83606e-20
-2.47322e-17
0
8.6113e-18
-7.86656e-20
-2.46212e-18
5.58286e-13
-9.93911e-18
2.8446e-18
2.26179e-10
2.72562e-17
-7.82857e-20
-1.23605e-17
1.85177e-17
8.39958e-20
3.28399e-13
4.48597e-11
-1.35099e-34
4.7461e-20
3.28398e-13
-3.83014e-34
-1.07658e-10
4.20164e-20
-8.58809e-19
1.77417e-18
-4.74876e-20
-1.04214e-18
2.75855e-18
-7.50363e-20
-4.26476e-18
2.87833e-18
1.53477e-17
-1.10351e-15
-1.25645e-34
3.52706e-16
5.86905e-15
-6.1161e-20
-5.54408e-34
7.50403e-20
1.40933e-19
-6.909e-19
1.37055e-18
6.66638e-18
-1.38178e-18
-3.82386e-17
-6.1168e-20
8.37637e-11
4.53579e-20
5.37048e-34
1.20514e-09
0
-7.06064e-14
2.45708e-34
-3.28401e-14
0
0
2.80402e-17
-4.96762e-18
-9.97915e-18
-1.48913e-17
1.99269e-17
-9.16809e-35
2.47656e-18
1.1537e-17
-9.15157e-20
-1.69053e-17
-6.6855e-32
-3.9656e-17
-6.24219e-34
9.8102e-18
-3.96181e-17
5.31897e-27
4.56576e-09
-1.58562e-17
-5.73883e-12
-1.69304e-08
-4.14276e-09
-1.67781e-08
9.98213e-09
1.97084e-17
-4.97956e-18
1.493e-17
7.22476e-13
8.29523e-09
3.9338e-26
1.6001e-10
-1.68579e-08
-4.09304e-09
-1.6863e-08
9.33198e-13
-3.11719e-10
-8.21007e-13
8.17531e-09
7.83965e-20
-9.0639e-12
4.92835e-09
1.54965e-17
-2.05999e-08
0
1.84152e-12
-2.57216e-15
-1.59075e-19
5.20329e-09
2.76838e-17
0
1.79252e-12
-5.14233e-18
0
-1.59505e-18
-1.84042e-12
9.12938e-18
1.06433e-17
-9.85539e-09
1.56006e-18
0
-1.90747e-12
1.01297e-17
-1.04057e-08
-2.01268e-17
-1.0632e-24
6.63371e-12
4.59762e-13
2.03981e-08
0
-1.63525e-08
-7.75018e-20
1.48732e-17
0
-1.10833e-17
-6.83237e-34
-2.24057e-18
-2.26729e-18
7.62125e-19
1.3237e-17
7.74081e-20
7.38866e-18
-2.32963e-17
5.08073e-24
6.56807e-14
2.15103e-12
-1.00575e-08
0
1.07437e-08
2.0586e-24
-1.51063e-13
0
7.95033e-09
-2.97007e-33
-9.39227e-20
-1.07531e-20
6.84297e-19
-1.17187e-18
0
4.93118e-19
-2.06679e-18
0
1.39571e-13
-3.98623e-25
-2.60989e-18
-1.23837e-16
0
3.01042e-34
1.45282e-09
-2.80367e-20
0
6.01214e-20
1.26174e-19
-3.22254e-34
-2.95789e-19
3.83411e-18
-8.79665e-19
0
8.13501e-19
0
-1.33095e-18
-4.29225e-20
-1.24856e-20
-5.724e-20
9.7996e-20
3.9155e-34
0
0
0
0
0
0
0
0
0
0
0
0
0
0
0
0
0
0
0
0
0
0
0
0
0
0
0
0
2.95089e-18
-1.01295e-34
-2.21739e-17
-1.99186e-17
-3.97994e-17
-7.91203e-22
-1.9905e-17
-2.93974e-33
-2.89495e-18
5.00592e-18
1.05408e-17
-2.95923e-17
-2.08025e-33
9.96853e-18
-3.97364e-17
0
-2.83652e-18
-1.05089e-12
-4.76301e-10
1.49699e-17
-1.51621e-17
-1.28085e-15
-7.36253e-18
-1.15511e-18
-2.98027e-18
1.56943e-17
1.74023e-17
-7.3944e-18
2.21398e-17
-3.35049e-20
0
1.19822e-18
3.60472e-18
-1.7453e-17
8.56039e-18
-1.9839e-17
1.40536e-17
1.11166e-17
7.50052e-18
2.10428e-17
0
-7.22191e-20
-2.13032e-19
-1.33455e-17
-3.32025e-18
0
4.93564e-17
0
7.21193e-18
-1.71389e-17
0
-6.25702e-18
1.46422e-17
0
-1.44387e-18
1.22279e-18
-1.39376e-18
1.32493e-17
-7.61672e-20
6.89717e-19
-2.36712e-18
-7.33041e-18
2.33672e-17
-1.90338e-24
-9.02542e-18
-6.46348e-18
5.51894e-18
0
-1.2331e-15
9.10564e-34
-4.82738e-18
0
3.62057e-18
-7.1009e-34
1.83421e-18
5.11517e-18
8.3034e-18
2.08261e-17
-7.9497e-20
-7.3719e-18
1.09522e-17
-1.25709e-31
-1.28471e-18
-4.34715e-35
-3.45218e-16
6.66156e-34
1.63743e-18
3.3653e-18
0
0
0
7.46865e-17
-1.59645e-33
-1.17482e-19
2.64908e-18
-5.00452e-18
-1.09083e-17
-2.25897e-17
-1.99605e-17
-9.81698e-34
-1.03761e-19
-3.97118e-17
7.47072e-36
1.97405e-19
-1.42769e-17
2.48105e-17
-1.71713e-17
2.83634e-17
-9.63098e-18
-4.02489e-35
-1.61935e-17
-2.46566e-18
7.8759e-20
3.34969e-12
-6.52698e-12
-2.56154e-12
4.58859e-10
0
-4.56822e-10
-1.69324e-08
1.78826e-24
-4.99596e-09
-2.22498e-17
0
-2.52048e-12
1.97601e-17
7.86654e-20
-2.97916e-18
2.80116e-18
-7.47631e-18
6.91567e-18
-7.4418e-18
1.85282e-17
0
1.68306e-12
-7.41681e-18
9.98861e-09
2.59764e-17
-1.52332e-19
-2.69289e-12
-1.88814e-17
-2.64569e-10
0
-2.58469e-15
7.72963e-20
-2.71939e-17
0
1.23911e-17
7.61029e-20
3.13913e-18
-1.11361e-17
-5.54563e-18
2.70011e-17
7.72023e-20
-9.88497e-18
1.73279e-17
1.50076e-19
-7.18842e-18
8.71862e-19
1.66242e-17
-1.10075e-15
0
3.45652e-16
7.24137e-15
6.11593e-20
-3.28398e-13
0
1.07658e-10
0
-1.41308e-18
-1.36213e-18
-2.65221e-18
9.06864e-18
-2.73772e-18
-3.30163e-17
1.22336e-19
1.04214e-18
-2.75855e-18
3.15328e-25
3.28399e-13
4.48597e-11
0
0
0
-3.76958e-33
-1.28156e-18
2.17676e-18
-4.74874e-20
0
0
0
0
0
0
0
0
0
0
0
0
0
0
0
0
0
0
0
0
0
0
0
0
0
0
-1.49837e-17
5.28865e-33
1.14444e-17
1.65139e-17
4.90268e-18
1.61599e-17
-1.70381e-17
-4.97564e-17
7.47608e-33
-1.99953e-17
-4.9688e-18
0
-2.98746e-17
4.07991e-25
2.80797e-18
4.1936e-09
-3.36614e-13
5.63825e-12
4.26277e-09
5.61689e-18
3.36609e-13
-8.38719e-09
-8.5008e-09
8.4153e-13
1.95786e-33
5.13448e-18
-9.65582e-18
-2.10378e-19
7.65441e-20
0
4.95638e-18
-1.48895e-17
-7.312e-20
-1.59083e-18
2.16745e-12
7.22488e-13
0
1.89427e-08
1.69023e-08
-2.83483e-18
5.001e-18
-1.75306e-18
9.21781e-35
1.06973e-17
-9.98362e-18
0
-1.49647e-18
-1.76665e-20
7.3419e-18
9.86553e-18
-1.59179e-17
-2.91122e-18
-4.93815e-18
-1.57171e-17
7.7428e-20
0
2.21409e-18
-2.00684e-24
-1.67696e-17
-9.42513e-12
-2.69291e-12
0
-7.07557e-10
-1.66392e-08
-9.93866e-18
-2.33673e-17
1.54738e-19
1.22886e-17
7.73382e-20
-4.33986e-18
7.54956e-19
2.43989e-18
-7.35287e-18
1.85835e-17
-2.45803e-18
-7.32123e-32
-2.23253e-18
9.69942e-19
0
0
1.51781e-18
0
-1.0107e-18
3.0463e-20
5.12996e-19
8.13517e-19
4.5067e-20
1.52551e-18
-2.79691e-18
7.71013e-20
-8.53849e-13
2.62734e-13
1.73024e-08
0
3.50178e-08
0
0
-2.55617e-33
3.57739e-19
9.50878e-18
7.20063e-18
-3.04425e-17
-1.19466e-19
0
0
0
0
-2.87514e-18
-5.75029e-18
-2.24881e-17
-1.00122e-17
-6.98519e-17
4.98928e-18
-2.98977e-17
1.8791e-33
2.72223e-18
-1.49689e-17
-2.21194e-17
-2.98019e-17
1.90408e-33
2.47635e-17
-4.97018e-17
0
2.5466e-18
3.02732e-18
1.2338e-17
-1.11661e-17
1.10884e-17
-9.94386e-18
0
3.39783e-17
1.8519e-17
-1.12417e-17
1.60274e-17
-2.49305e-18
0
-2.74216e-12
-1.9669e-08
6.18497e-18
-4.59764e-12
9.34865e-11
-2.39494e-18
-1.34948e-18
2.07284e-17
6.13834e-18
-4.92081e-18
1.10142e-17
-7.43259e-18
-7.97518e-20
-7.01083e-18
4.59761e-12
6.96117e-18
0
1.25526e-09
-1.59058e-19
-5.51823e-18
-1.96014e-17
0
3.30079e-18
3.65575e-18
1.59423e-19
-3.55429e-18
4.59122e-20
6.61556e-18
5.43466e-18
7.95049e-20
-2.06936e-18
2.46412e-18
6.86731e-18
1.46788e-17
7.22195e-20
3.36858e-18
-9.75641e-18
-3.8501e-18
0
1.27329e-15
-7.61982e-20
-1.2301e-17
0
2.36671e-18
1.44391e-19
5.4182e-19
-9.78108e-18
-4.57221e-18
-5.04385e-18
1.52337e-19
-9.57131e-18
8.69855e-18
-3.1054e-31
-3.27535e-19
0
-5.7321e-16
3.56542e-34
9.55252e-19
9.09625e-19
0
0
0
0
0
0
0
0
0
0
0
0
0
0
0
0
0
0
0
0
0
0
0
0
5.20902e-18
0
-2.82038e-17
1.98852e-17
-2.99288e-17
-1.48245e-17
-1.98276e-17
-1.51322e-24
4.77067e-09
-4.55053e-09
4.09661e-09
5.46029e-13
-4.48802e-09
-2.96922e-12
1.0409e-08
-9.95138e-09
-5.45974e-13
-8.19367e-09
2.96929e-12
8.9769e-09
4.76486e-24
4.02967e-09
8.79245e-09
-2.31753e-24
1.82663e-10
2.69288e-12
1.33412e-12
-1.11073e-25
-1.67459e-08
8.01296e-20
-2.37971e-25
2.06344e-08
4.47204e-10
-7.81596e-12
7.81594e-12
0
-8.41523e-13
-7.43391e-18
-3.63997e-10
2.22985e-17
1.59969e-19
-1.25514e-17
4.44895e-17
-1.21663e-19
-7.46228e-18
-3.1212e-26
-2.05951e-08
-4.99171e-12
4.02018e-09
-7.88103e-13
-1.00325e-17
-6.54194e-15
1.94312e-17
-1.65122e-18
7.84062e-13
-8.04032e-09
2.56341e-18
2.99161e-17
-1.28423e-08
5.73031e-20
0
-1.39274e-09
3.5375e-20
1.31357e-13
-1.8062e-13
0
2.01572e-08
-3.94086e-13
-6.58286e-18
0
-5.20187e-18
1.6653e-33
9.70282e-22
1.71034e-18
-5.06594e-18
-5.85168e-19
1.92461e-08
0
0
-1.80461e-08
7.45981e-20
1.37928e-12
2.21672e-12
5.2544e-13
0
1.97375e-08
-2.66984e-09
2.13464e-13
-1.91493e-17
1.52066e-19
-1.08186e-17
-7.45633e-20
-2.86405e-18
2.69855e-18
1.0925e-18
-2.2076e-17
-1.19654e-18
5.37637e-18
-2.14706e-24
0
5.93602e-34
0
0
0
0
0
-1.49837e-17
-5.91875e-33
-2.87066e-19
8.45213e-18
1.49662e-17
-1.63515e-17
0
-2.98748e-17
-1.72111e-33
2.40339e-18
5.0183e-17
-1.67759e-17
-2.97808e-17
-8.24453e-34
2.81044e-18
1.98684e-17
-1.06578e-17
-2.00599e-17
-7.45603e-25
4.21267e-09
-1.23424e-12
1.94954e-11
4.42446e-09
1.23424e-12
-8.42657e-09
-8.76487e-09
2.46849e-12
-9.23637e-18
-7.74286e-20
0
-8.05254e-18
2.56528e-18
2.35559e-24
-8.02734e-18
2.15952e-11
6.56802e-12
0
2.04449e-08
-8.99246e-11
1.16562e-17
-2.67342e-19
-1.46575e-17
-7.73719e-20
-1.14413e-17
1.44394e-18
0
-5.80621e-18
2.21544e-18
-2.49497e-18
0
9.86907e-18
4.40543e-18
7.48036e-18
-2.03598e-18
-1.08661e-33
0
-1.61343e-17
7.31117e-20
1.86573e-19
-5.91124e-12
-1.642e-12
0
-3.80178e-08
-4.95268e-10
1.98579e-17
1.6599e-18
0
-2.35791e-17
0
1.35731e-18
-7.16654e-19
-3.71743e-18
1.82953e-17
-2.43834e-17
7.46025e-18
1.54187e-19
-6.56807e-13
2.74217e-12
-1.51477e-09
0
1.96319e-08
-1.19438e-19
3.94079e-13
0
1.37744e-08
-7.70979e-20
2.34715e-19
2.7711e-18
5.33592e-18
-2.75743e-17
5.97324e-20
-5.06369e-19
3.06484e-18
-3.04327e-20
-2.40908e-18
9.69916e-19
0
0
0
0
-1.67823e-18
1.78861e-18
-4.50562e-20
0
0
0
0
0
0
0
0
0
0
0
0
0
0
0
0
0
0
0
0
1.70357e-17
-3.15996e-22
-1.00904e-17
1.00678e-17
-9.9168e-18
-1.31691e-33
-1.40542e-17
1.41738e-17
2.25264e-21
1.64912e-17
0
-1.9944e-17
-2.00234e-33
1.23108e-19
1.51462e-17
-2.46566e-19
-4.15063e-17
0
1.73134e-17
4.85471e-09
-1.04208e-17
1.53424e-15
0
9.94642e-13
-5.19914e-15
7.91234e-20
-5.32024e-09
-1.46659e-17
0
-6.46679e-12
1.72192e-17
-7.82053e-20
2.92026e-18
-9.9752e-13
1.44334e-19
-2.05502e-17
-9.70845e-09
3.29108e-17
0
5.16138e-12
-2.36353e-18
1.06342e-08
2.44963e-17
0
-6.66651e-18
6.05692e-18
4.91925e-18
1.25385e-17
-8.99541e-18
9.83879e-18
1.78862e-18
1.22568e-17
-3.68824e-18
0
-1.77134e-17
-9.83682e-18
7.92296e-20
-1.18223e-12
-4.27698e-18
-2.11306e-08
1.68277e-33
-9.0678e-17
0
3.4043e-33
-9.82647e-10
-4.00651e-12
1.59725e-33
3.37981e-18
-3.68197e-18
-2.11614e-17
8.0218e-18
-8.12038e-20
1.23029e-17
-1.08525e-18
-7.89987e-20
-6.79501e-18
-1.62429e-17
1.35056e-16
0
-5.18453e-15
7.71429e-20
5.98053e-18
4.96889e-18
0
9.15612e-17
4.84068e-18
-7.88935e-20
9.07588e-19
-7.77851e-20
9.3106e-18
4.46716e-17
-7.71162e-20
1.21693e-18
-5.0431e-18
-2.81839e-18
1.21472e-18
3.08937e-09
1.46789e-24
0
-3.56432e-20
4.92577e-14
3.54674e-12
0
2.67358e-08
-1.93632e-18
-1.14118e-33
3.56522e-20
-8.74901e-19
1.0308e-18
-8.15324e-18
0
0
0
0
0
0
1.68799e-17
0
6.23515e-17
-4.63508e-18
-1.03773e-17
-9.8426e-18
-1.99866e-17
-1.8668e-24
-4.63952e-09
7.95957e-11
-1.01316e-08
1.57096e-10
2.29968e-24
1.57064e-10
4.23821e-09
6.2018e-10
-1.7569e-10
8.13327e-10
3.3703e-10
5.18599e-13
-8.50825e-09
1.95535e-12
3.99821e-10
5.81151e-27
1.98296e-08
-5.12307e-12
4.35411e-09
1.85227e-08
3.95724e-12
1.7998e-08
-1.65844e-12
-8.59177e-10
7.50161e-18
-1.20965e-19
-9.74264e-13
-8.64488e-09
-1.33133e-18
4.48456e-18
-1.39627e-18
1.66362e-17
7.86217e-20
5.30885e-09
-6.56804e-12
4.82477e-12
-1.44036e-25
6.57626e-12
0
-7.2755e-26
1.65012e-08
-5.12307e-12
-7.85561e-20
-2.46849e-12
-7.43377e-18
-1.06103e-08
3.71181e-18
-7.99776e-20
5.9323e-18
-1.00027e-17
-1.92465e-08
0
0
1.72203e-08
1.79541e-08
6.97552e-24
-7.22489e-13
8.93253e-12
-2.71908e-18
0
4.09826e-08
9.02921e-17
-5.91119e-13
-3.11979e-13
-1.93951e-18
0
2.37663e-18
-2.73275e-18
7.45703e-20
-5.72966e-18
4.32588e-18
2.43381e-18
-2.81015e-18
4.76875e-18
6.37094e-18
-1.33594e-18
1.24888e-08
0
0
3.53732e-20
1.31356e-13
-2.01967e-12
0
-5.20234e-09
-9.03357e-18
-5.73141e-20
0
7.93354e-20
4.82629e-19
-7.27728e-18
3.37903e-24
0
4.36665e-34
0
0
0
0
0
0
0
0
0
0
0
0
0
0
0
0
0
2.00748e-17
-4.83078e-35
-1.14064e-17
-5.69479e-18
-1.7571e-19
-2.03225e-17
1.38956e-34
3.57525e-19
-1.54077e-19
1.14061e-17
-3.01906e-17
-1.02371e-24
-4.59184e-09
1.5517e-11
1.93319e-08
-2.10177e-12
2.38091e-12
-3.4675e-08
1.54503e-10
-1.70852e-08
1.90709e-08
-1.00453e-08
1.97472e-19
1.34607e-17
1.41184e-18
2.56615e-18
3.09076e-18
-1.01051e-17
-1.29993e-12
-3.30302e-10
3.01263e-24
-4.71276e-09
4.67116e-09
1.75835e-08
1.79487e-10
1.72402e-08
-1.02839e-08
-3.69042e-12
-9.30502e-09
4.83024e-13
-3.72322e-10
-7.68345e-20
1.75125e-17
-3.74378e-12
-9.85209e-13
-1.53899e-17
0
-1.96167e-08
-3.64937e-11
0
-1.4822e-17
0
1.22873e-17
-9.9663e-34
3.26129e-18
-6.88667e-19
3.69616e-18
-2.04525e-17
5.2761e-18
6.05778e-24
0
-7.46327e-18
1.11079e-17
8.44586e-18
7.59212e-20
0
-1.99091e-18
-1.72701e-17
-3.48836e-25
1.06242e-17
-1.3136e-12
0
1.63233e-08
4.08823e-18
2.94815e-17
1.15793e-17
-7.58838e-20
2.15715e-19
-2.70783e-17
-8.01881e-20
1.36218e-18
3.70237e-18
-9.31159e-18
1.07254e-19
9.69583e-18
0
1.18225e-12
-1.93697e-08
0
-1.58991e-19
0
-2.03235e-17
1.34566e-17
1.17753e-19
-1.04235e-18
-1.38242e-17
1.53706e-33
-3.93507e-17
5.40191e-18
0
-2.62727e-13
1.55991e-12
-1.09252e-09
0
1.74436e-08
0
-3.94074e-13
0
-1.11002e-08
7.56648e-20
1.61768e-19
6.62991e-18
1.62114e-17
-2.10064e-17
0
3.83434e-19
-9.69302e-18
0
0
0
0
0
0
6.24002e-17
1.00678e-17
1.99865e-17
-1.99778e-17
-1.00904e-17
6.3816e-34
1.40546e-17
1.11411e-17
2.54032e-17
-4.00374e-17
9.95798e-32
-1.95563e-17
-7.16632e-35
-3.23813e-18
-1.86178e-21
0
1.06978e-18
0
5.09763e-09
4.08997e-12
8.60503e-18
-7.61803e-22
-4.98644e-18
-9.83917e-18
8.78068e-18
-5.44753e-18
-3.31002e-12
-1.01915e-08
8.60682e-18
0
1.8943e-19
-9.83687e-18
1.04673e-17
6.15919e-18
-1.56532e-19
1.03775e-11
-1.74084e-10
-5.12784e-18
2.00994e-08
0
-1.12365e-12
1.21896e-16
-2.98763e-24
-2.22424e-17
0
2.0951e-17
5.12069e-25
7.706e-18
1.12204e-12
-1.35769e-17
-2.0133e-17
3.47384e-10
1.56807e-17
7.89936e-20
-1.25265e-17
1.96195e-17
-4.99939e-24
-9.98341e-12
-1.21249e-17
-2.05418e-08
0
1.66963e-16
0
-2.57644e-19
-5.05739e-12
0
2.77991e-18
-1.99134e-08
1.6693e-25
1.57632e-12
2.67647e-12
-7.24561e-34
-1.02293e-09
1.80961e-08
1.5778e-19
1.51859e-18
1.23206e-18
-5.20033e-18
1.8028e-17
-7.71039e-20
0
-1.4729e-18
4.03103e-18
8.31793e-18
-8.11989e-20
-1.96791e-18
1.30212e-18
6.65853e-18
-5.07632e-19
2.78968e-24
1.78978e-12
-3.47097e-34
1.58438e-08
-7.92053e-20
-1.31313e-18
4.92451e-18
-8.7167e-09
-3.68296e-25
0
-3.56368e-20
6.56797e-14
-6.40386e-13
0
1.31877e-10
3.09062e-09
2.0979e-24
0
-7.55323e-13
-9.59211e-19
2.79172e-18
0
0
0
0
0
0
0
0
0
0
0
0
0
0
2.81492e-17
1.46667e-18
6.21118e-17
-1.42092e-19
-2.97605e-17
-4.5673e-18
2.08725e-19
-3.35123e-25
-1.69909e-17
-4.17369e-09
2.33618e-17
-9.10607e-09
-6.42092e-34
1.97698e-17
-1.95794e-17
-1.90139e-19
-2.16745e-12
-1.69127e-12
1.0308e-17
-1.57123e-19
-1.31353e-13
-2.93919e-12
1.3903e-10
0
1.32278e-08
-1.54256e-08
-7.29539e-20
4.97709e-09
1.46194e-17
0
1.22604e-12
-1.59542e-17
0
1.91491e-08
-1.9751e-08
-1.57114e-19
-2.46238e-18
2.96805e-18
6.3385e-20
-1.40589e-18
-7.33493e-19
6.71676e-18
-8.69401e-18
-2.7065e-17
-4.02924e-18
-9.11465e-18
-1.66739e-17
1.4575e-19
-1.23425e-12
7.30953e-18
-9.95358e-09
-1.83745e-17
0
-5.84558e-12
5.1557e-09
-6.72211e-18
-7.43012e-10
0
3.89053e-12
1.27183e-16
-2.50463e-24
2.58101e-18
0
-6.87135e-22
-5.80867e-26
-2.65353e-18
-3.88745e-12
-3.89185e-18
2.5895e-17
-1.03096e-08
6.49455e-18
0
-5.29217e-18
6.63649e-20
0
6.02847e-18
-1.10014e-12
-8.27044e-18
0
-8.33288e-09
-7.53668e-20
2.59848e-17
0
-2.86337e-17
4.8848e-20
1.93079e-18
2.5002e-18
-1.09144e-17
-7.12736e-18
0
1.03865e-17
-3.90573e-17
4.97592e-20
0
8.78285e-16
8.23161e-18
7.62837e-34
-1.0388e-17
2.54664e-18
-5.11005e-26
0
-1.37383e-34
3.72716e-24
0
6.23346e-34
0
0
0
0
0
0
0
1.96538e-17
1.25515e-34
1.14064e-17
1.14022e-17
1.99725e-17
1.7571e-19
1.14061e-17
-2.01271e-17
-2.68125e-34
4.46674e-18
-2.03225e-17
-6.66144e-25
-5.77165e-18
-4.71268e-09
4.67071e-09
1.75828e-08
-7.32063e-12
1.72413e-08
-1.91632e-17
-1.02839e-08
-3.56726e-12
-9.30492e-09
2.69045e-18
1.95401e-17
-2.77683e-34
-8.79068e-18
-1.51449e-15
2.46304e-13
-2.62722e-12
-1.62557e-08
-1.14585e-11
-1.70862e-08
-1.90712e-08
-1.49356e-18
4.22303e-18
2.64469e-18
-2.8403e-18
-4.78755e-19
-8.67573e-18
4.95817e-18
9.99361e-18
9.12453e-18
7.59231e-20
0
-5.08603e-18
-3.15916e-18
8.04048e-20
1.29391e-17
5.15319e-18
0
-1.23828e-15
2.21597e-17
1.57836e-18
7.86832e-20
0
1.36916e-17
1.47518e-17
-2.02578e-17
-1.48573e-17
1.26648e-17
1.903e-34
-1.61102e-17
-6.72689e-18
0
4.49298e-18
-5.29807e-18
-4.9492e-18
8.42006e-20
2.14756e-19
-7.86409e-20
1.74466e-17
3.64393e-18
-5.49202e-18
-9.92777e-18
-7.68371e-20
-3.15144e-18
1.28957e-18
0
5.8768e-16
5.33299e-15
7.68103e-20
-5.00323e-18
-1.23671e-18
-8.17959e-18
-2.46445e-17
1.92691e-24
-4.59758e-13
9.19535e-13
-1.09192e-09
0
1.77539e-08
-4.93706e-20
-1.97038e-13
7.94773e-20
-3.16908e-12
-7.22471e-13
0
-1.10966e-08
0
-1.93704e-08
-1.78639e-08
-1.61906e-33
-2.70267e-18
3.87667e-18
3.89119e-18
-3.6824e-17
4.93852e-20
4.10427e-19
1.58934e-19
-1.69693e-18
4.04966e-18
-6.32887e-18
1.43365e-18
-1.48896e-17
-2.97823e-24
0
5.88793e-20
0
0
0
0
0
0
0
0
0
0
0
2.5358e-17
-2.98704e-34
1.72638e-19
5.59601e-18
2.02769e-17
6.92418e-19
-4.37716e-17
-9.31262e-18
6.11198e-34
2.89842e-17
2.04079e-17
2.23616e-17
-5.07674e-17
0
-3.40222e-17
-2.23314e-12
-4.07328e-10
9.84686e-18
-2.95563e-12
1.71459e-08
-1.4923e-17
2.32896e-17
-5.58972e-18
1.13004e-17
1.60436e-17
-3.5152e-18
2.10858e-17
-4.90973e-18
0
4.93958e-18
-2.96279e-17
6.47352e-24
-9.45595e-25
-2.37256e-18
1.37338e-16
0
0