/*--------------------------------*- C++ -*----------------------------------*\
| =========                 |                                                 |
| \\      /  F ield         | OpenFOAM: The Open Source CFD Toolbox           |
|  \\    /   O peration     | Version:  5.x                                   |
|   \\  /    A nd           | Web:      www.OpenFOAM.org                      |
|    \\/     M anipulation  |                                                 |
\*---------------------------------------------------------------------------*/
FoamFile
{
    version     2.0;
    format      ascii;
    class       volScalarField;
    location    "2.2";
    object      nut;
}
// * * * * * * * * * * * * * * * * * * * * * * * * * * * * * * * * * * * * * //

dimensions      [0 2 -1 0 0 0 0];

internalField   nonuniform List<scalar> 
12160
(
1.36113e-09
1.50667e-09
5.90142e-08
1.42611e-09
8.74827e-08
5.99439e-08
1.46446e-09
1.58902e-07
8.32279e-08
8.13366e-08
1.54615e-09
4.55872e-08
1.33641e-07
7.96175e-08
8.6825e-08
1.65513e-09
3.18089e-08
5.19593e-08
1.3713e-07
7.46509e-08
1.01481e-07
1.78521e-09
2.76454e-08
3.28304e-08
4.5795e-08
1.51634e-07
5.26865e-08
7.76574e-08
1.94572e-09
2.57786e-08
2.73829e-08
3.41283e-08
5.48645e-08
1.02528e-07
2.48424e-08
6.11663e-09
2.15799e-09
2.33339e-08
2.5486e-08
2.96155e-08
3.97439e-08
6.54045e-08
3.83897e-08
7.5501e-09
1.38636e-08
2.45419e-09
2.07328e-08
2.35273e-08
2.70077e-08
3.18785e-08
5.67317e-08
3.44538e-08
9.52953e-09
1.38238e-08
1.68824e-08
2.90254e-09
1.80113e-08
2.08284e-08
2.4518e-08
2.71082e-08
4.03364e-08
4.43215e-08
1.37147e-08
1.0578e-08
2.12075e-08
8.90443e-09
3.64449e-09
1.55589e-08
1.80546e-08
2.11953e-08
2.421e-08
3.10859e-08
3.52139e-08
2.26904e-08
8.61383e-09
7.92174e-08
7.95078e-09
8.65522e-09
5.00638e-09
1.36692e-08
1.5505e-08
1.80551e-08
2.13572e-08
2.69091e-08
2.83937e-08
1.52033e-07
8.37757e-09
3.85281e-08
5.49899e-09
6.23721e-09
5.32927e-09
7.8771e-09
1.24849e-08
1.35308e-08
1.51826e-08
1.81691e-08
2.33314e-08
2.43825e-08
3.85835e-08
8.39373e-09
2.55206e-08
3.97854e-09
1.88375e-08
6.43856e-09
9.02321e-09
1.27909e-08
1.21222e-08
1.23093e-08
1.29616e-08
1.49524e-08
1.93399e-08
2.13077e-08
1.93641e-08
7.97601e-09
2.20425e-08
4.38694e-09
9.84436e-09
5.83498e-09
5.21476e-09
5.31036e-09
1.11816e-08
1.27184e-08
1.18659e-08
1.15671e-08
1.24789e-08
1.55031e-08
1.73451e-08
1.30567e-08
1.01541e-08
1.7739e-08
5.90668e-09
4.82458e-09
6.20336e-09
1.42027e-08
1.53854e-08
7.8283e-09
1.46814e-08
1.22681e-08
1.09644e-08
1.09821e-08
1.26247e-08
1.32075e-08
9.76056e-09
2.16598e-08
1.34193e-08
9.15296e-09
4.18408e-09
1.14564e-08
7.17459e-09
4.39956e-09
6.4124e-09
1.9492e-08
1.38312e-08
1.11384e-08
1.03198e-08
1.09317e-08
1.03095e-08
7.99075e-09
2.21462e-07
9.66055e-09
2.33647e-08
3.86987e-09
1.43888e-08
9.58348e-09
4.97028e-09
6.03812e-09
3.10174e-08
1.73569e-08
1.22331e-08
1.03362e-08
1.00466e-08
8.74273e-09
7.06462e-09
2.68434e-08
1.21606e-08
3.27734e-08
3.73722e-09
8.3452e-09
1.55659e-08
1.06109e-08
6.43965e-09
4.75379e-08
2.38967e-08
1.45305e-08
1.10545e-08
9.68654e-09
8.06122e-09
6.70758e-09
1.76691e-08
2.40244e-08
3.4377e-08
4.1699e-09
7.02458e-09
1.89571e-08
2.01269e-08
7.85837e-09
3.00022e-08
2.8171e-08
1.77607e-08
1.24893e-08
9.75048e-09
7.87305e-09
6.86913e-09
1.53836e-08
8.82832e-08
5.37779e-08
1.10296e-08
8.1942e-09
1.37793e-08
1.81299e-08
1.05761e-08
1.83761e-08
2.18703e-08
1.97241e-08
1.42503e-08
1.02754e-08
8.02436e-09
7.61657e-09
1.52354e-08
4.78447e-08
1.00998e-07
5.10387e-08
5.40256e-09
1.01949e-08
1.94847e-08
1.0842e-08
1.34619e-08
1.57413e-08
1.74498e-08
1.47955e-08
1.11683e-08
8.57912e-09
9.09274e-09
1.6165e-08
3.03368e-08
1.8767e-07
3.00555e-08
1.11787e-08
7.02816e-08
2.48495e-08
6.97588e-09
1.10582e-08
1.22305e-08
1.38063e-08
1.34971e-08
1.17482e-08
8.97263e-09
1.16027e-08
1.85603e-08
2.37891e-08
6.55832e-08
4.4973e-08
1.85045e-08
8.35778e-09
1.20171e-08
4.55006e-09
9.8229e-09
1.02656e-08
1.12652e-08
1.16105e-08
1.12366e-08
8.81014e-09
1.4007e-08
2.26764e-08
1.81106e-08
4.02026e-08
1.24811e-07
1.53046e-08
7.63867e-09
1.19552e-08
3.29068e-09
9.28211e-09
9.21432e-09
9.71087e-09
1.00257e-08
9.90916e-09
8.36535e-09
1.44642e-08
3.13928e-08
1.50959e-08
3.29424e-08
2.67868e-08
1.46808e-08
1.56886e-08
1.22793e-08
2.57758e-09
9.1786e-09
8.74758e-09
8.86621e-09
8.88087e-09
8.6877e-09
7.92425e-09
1.18649e-08
6.01106e-08
1.41772e-08
3.90983e-08
1.65791e-08
1.54959e-08
1.44473e-08
1.03951e-08
2.14071e-09
9.48749e-09
8.68366e-09
8.47319e-09
8.17914e-09
7.86837e-09
7.50224e-09
9.09629e-09
1.02359e-07
1.44653e-08
4.74292e-08
1.31081e-08
1.74193e-08
7.26695e-09
1.47691e-08
1.85897e-09
1.02316e-08
8.97475e-09
8.43122e-09
7.8294e-09
7.41358e-09
7.1783e-09
7.24191e-09
3.03102e-08
1.62965e-08
1.8575e-08
1.16237e-08
2.4095e-08
4.5894e-09
2.04243e-08
1.67171e-09
1.1523e-08
9.64091e-09
8.70478e-09
7.79929e-09
7.20906e-09
6.98639e-09
6.08033e-09
1.63659e-08
1.85277e-08
1.22606e-08
1.32662e-08
1.49097e-08
3.53793e-09
1.34454e-08
1.54582e-09
1.3582e-08
1.07523e-08
9.34386e-09
8.05352e-09
7.21938e-09
6.79766e-09
5.48191e-09
1.09322e-08
1.89916e-08
1.04719e-08
1.63778e-08
7.17249e-09
3.19457e-09
7.57657e-09
1.46248e-09
1.68973e-08
1.24967e-08
1.04259e-08
8.59595e-09
7.42639e-09
6.75649e-09
5.37823e-09
8.46499e-09
1.96348e-08
1.0111e-08
1.85789e-08
4.63152e-09
3.08321e-09
4.11865e-09
1.41071e-09
2.24637e-08
1.51832e-08
1.20719e-08
9.4159e-09
7.88102e-09
6.87575e-09
5.70897e-09
8.06692e-09
2.21631e-08
1.0834e-08
1.50133e-08
3.46127e-09
2.96983e-09
2.81566e-09
1.38385e-09
3.28617e-08
1.92759e-08
1.44726e-08
1.06346e-08
8.78115e-09
7.1697e-09
6.57158e-09
9.07864e-09
2.19857e-08
1.11419e-08
1.07101e-08
3.08032e-09
2.93281e-09
2.89954e-09
1.37969e-09
5.34904e-08
2.53623e-08
1.77767e-08
1.23975e-08
1.00891e-08
7.59883e-09
8.12154e-09
1.15981e-08
1.74309e-08
9.83406e-09
6.84361e-09
3.96712e-09
3.00633e-09
3.18633e-09
1.39623e-09
6.07393e-08
3.24277e-08
2.18064e-08
1.46522e-08
1.17526e-08
8.56978e-09
1.10788e-08
1.68986e-08
1.35435e-08
8.84343e-09
7.49577e-09
7.40614e-09
3.4391e-09
3.6225e-09
1.43155e-09
3.91545e-08
3.528e-08
2.52536e-08
1.70975e-08
1.3657e-08
1.05271e-08
1.75699e-08
2.83868e-08
1.09263e-08
9.14222e-09
1.01384e-08
4.46655e-09
3.93888e-09
4.81625e-09
1.48919e-09
2.67832e-08
3.01519e-08
2.55029e-08
1.90076e-08
1.52058e-08
1.3739e-08
2.93019e-08
3.66342e-08
9.54507e-09
1.17866e-08
8.51609e-09
2.81373e-09
3.96952e-09
9.32911e-09
1.56743e-09
2.05409e-08
2.35595e-08
2.26199e-08
1.92584e-08
1.56349e-08
1.86647e-08
2.47971e-08
2.13644e-08
8.33269e-09
1.72355e-08
5.76825e-09
2.85308e-09
3.75218e-09
2.33257e-08
1.67566e-09
1.67876e-08
1.91749e-08
1.92127e-08
1.7868e-08
1.55802e-08
2.81696e-08
1.75515e-08
1.42454e-08
8.02691e-09
2.15553e-08
3.81611e-09
3.86434e-09
3.21177e-09
9.50872e-09
1.49906e-08
1.88195e-09
1.62523e-08
1.63455e-08
1.60142e-08
1.51415e-08
3.62392e-08
1.58197e-08
1.14401e-08
8.56092e-09
2.16243e-08
3.03757e-09
5.65054e-09
2.80912e-09
7.08464e-09
1.4599e-08
1.26404e-08
2.49977e-09
1.42942e-08
1.44308e-08
1.41506e-08
2.82448e-08
1.58035e-08
1.0058e-08
9.97375e-09
1.89802e-08
3.03464e-09
1.28102e-08
2.40075e-09
5.96362e-09
1.29518e-08
1.244e-08
1.26711e-08
3.10568e-09
1.33062e-08
1.28606e-08
1.97484e-08
1.62195e-08
9.57149e-09
1.22984e-08
1.37407e-08
3.15062e-09
1.66818e-08
2.21216e-09
4.92581e-09
1.25289e-08
1.10591e-08
1.24806e-08
1.31455e-08
4.94291e-09
1.17399e-08
1.51462e-08
1.65455e-08
9.90378e-09
1.70148e-08
8.72809e-09
3.31994e-09
6.85239e-09
2.29501e-09
4.55512e-09
1.07773e-08
1.11219e-08
1.07102e-08
1.2487e-08
2.0688e-08
4.25833e-09
1.26918e-08
1.65569e-08
1.1162e-08
2.64142e-08
6.37091e-09
3.58333e-09
4.95637e-09
2.72226e-09
5.11731e-09
1.12367e-08
9.33018e-09
1.06614e-08
1.03921e-08
1.55021e-08
1.4652e-08
3.11938e-09
1.6738e-08
1.35864e-08
3.62257e-08
5.2481e-09
3.93589e-09
4.1721e-09
3.12462e-09
6.38432e-09
1.68057e-08
9.13773e-09
8.61394e-09
1.00333e-08
1.04365e-08
8.84921e-09
7.54501e-09
1.62715e-09
1.67384e-08
3.78179e-08
4.8542e-09
4.42459e-09
4.04609e-09
3.24719e-09
6.98543e-09
2.06746e-08
1.71952e-08
7.98008e-09
8.13741e-09
8.99699e-09
6.82849e-09
7.27515e-09
6.02507e-09
1.04909e-09
4.14183e-08
4.93443e-09
5.01293e-09
4.09839e-09
3.58033e-09
5.83435e-09
4.9157e-08
2.56027e-08
1.54439e-08
7.18725e-09
6.90536e-09
6.04249e-09
6.99378e-09
6.23466e-09
4.73817e-09
6.17925e-10
5.18549e-09
5.97303e-09
4.42601e-09
4.65055e-09
7.39047e-09
5.44026e-09
5.01803e-08
3.34356e-08
1.27932e-08
6.16668e-09
4.93842e-09
6.1655e-09
9.40432e-09
1.60963e-08
1.36037e-08
3.48444e-08
7.57169e-09
5.2386e-09
6.75559e-09
6.29957e-09
1.03487e-08
6.09971e-09
4.51069e-08
3.54553e-08
9.82044e-09
5.9281e-09
1.01184e-08
1.95299e-08
3.70769e-08
2.8791e-08
2.16636e-07
0.000102437
6.04572e-09
9.35021e-09
6.7409e-09
6.07228e-09
2.59607e-08
7.72344e-08
3.60786e-08
2.77711e-08
2.60075e-08
8.44774e-08
1.76324e-07
2.45586e-07
1.70089e-07
3.25014e-07
0.000116261
0.000505915
6.4397e-05
9.49007e-09
7.8907e-09
8.89965e-09
6.67546e-09
5.24658e-07
2.83261e-06
2.95688e-07
2.21032e-07
9.75489e-07
1.6012e-06
2.3418e-06
2.05715e-06
4.49927e-07
0.0001626
0.000414997
0.000727078
0.000573808
7.72992e-05
8.61839e-09
9.19424e-09
7.16939e-09
1.47679e-07
1.39141e-05
8.24425e-05
2.46521e-05
1.44377e-05
1.79346e-05
1.72568e-05
1.35567e-05
1.90336e-06
0.000164068
0.000413499
0.000642356
0.000840691
0.000782804
0.000568416
8.41545e-05
7.90484e-09
3.68369e-08
5.84141e-06
0.000171768
0.000841643
0.000311679
0.00042999
0.000141145
0.000105888
2.32125e-05
0.00010931
0.000372422
0.000548926
0.000770693
0.000929223
0.000872122
0.000805146
0.00068086
9.50755e-05
9.18405e-09
1.71056e-06
9.93013e-05
0.00127849
0.00461934
0.00190233
0.00187427
0.00105978
0.00091984
4.0457e-05
0.000291489
0.000477577
0.000680625
0.000869879
0.000974985
0.000949578
0.00087836
0.000821011
0.000805642
0.000104287
3.51944e-07
3.75134e-05
0.00120811
0.00523186
0.00589085
0.00419903
0.00318552
0.00177631
5.22994e-05
0.000213213
0.000435718
0.000603822
0.000791998
0.000923126
0.000641429
0.000989548
0.000953524
0.000891227
0.000841097
0.00083401
0.000115042
1.23765e-05
0.000623104
0.00495614
0.00511745
0.00558836
0.00584521
0.00370096
0.00140992
0.000108982
0.0003861
0.000570389
0.000736472
0.000850798
0.000696583
0.00169779
0.000750528
0.00169831
0.00157519
0.0015756
0.00100388
0.000973665
0.000916384
0.000867322
0.000870314
0.000128441
0.000263764
0.00429178
0.00519784
0.00434482
0.00526165
0.00573284
0.00370404
0.000545212
0.000210515
0.000530404
0.000730622
0.000802121
0.00074239
0.00125907
0.00190584
0.00152013
0.00101391
0.00190642
0.00210306
0.00210412
0.00152005
0.00141168
0.0014116
0.00102769
0.00100325
0.000947463
0.000901139
0.000914701
0.000146391
0.0035634
0.00487363
0.00421124
0.00390345
0.00435886
0.00431771
0.00292457
0.000330885
0.000388387
0.000690971
0.000817572
0.000767525
0.000952286
0.00132286
0.00132268
0.00140968
0.00140986
0.00165671
0.00138624
0.00102956
0.000741022
0.00165662
0.00180651
0.00180684
0.00138588
0.00129737
0.0012971
0.001052
0.00103835
0.000982938
0.000943168
0.000964646
0.000167055
0.00433791
0.00430563
0.00352443
0.00344205
0.00332361
0.00403245
0.00202424
0.000416946
0.000568042
0.000822838
0.000806582
0.000612885
0.00151213
0.00151236
0.00156543
0.0015659
0.00121173
0.00121244
0.00131776
0.00131791
0.0014732
0.00126014
0.00123117
0.00126482
0.00125095
0.00104183
0.000780629
0.00172358
0.00172369
0.00169414
0.00169437
0.00147287
0.00159535
0.0015955
0.00125971
0.00123447
0.00126457
0.00124689
0.00120482
0.00117514
0.00119593
0.00121477
0.0012045
0.00118132
0.00119575
0.00121002
0.00108032
0.0010725
0.00102033
0.0009892
0.00101601
0.000196091
0.00409943
0.00355702
0.0033253
0.00316757
0.00308499
0.00400922
0.00212566
0.00071003
0.000660696
0.000823969
0.000459586
0.00164128
0.00164173
0.0016914
0.00169231
0.00139701
0.00139721
0.00143346
0.00143387
0.00112742
0.00110131
0.00112592
0.00115313
0.00114674
0.00108804
0.00110742
0.00112921
0.00112596
0.00115317
0.00114685
0.00108815
0.00123475
0.00122863
0.00121917
0.00122178
0.00123561
0.00122867
0.001219
0.00122175
0.00134319
0.00128722
0.00132394
0.00132407
0.00113013
0.00115639
0.00113841
0.00115842
0.00105514
0.000834496
0.00162934
0.00162977
0.00166722
0.00166736
0.00156986
0.00157003
0.00153355
0.00153387
0.00134295
0.00129045
0.00132372
0.00132115
0.0014147
0.00137538
0.00144404
0.00137649
0.0014146
0.00138543
0.00144412
0.00137715
0.00112965
0.00116094
0.00113821
0.00115531
0.00109562
0.00113863
0.00109535
0.00113414
0.00110692
0.0011037
0.00105582
0.00103285
0.00106362
0.000229177
0.00335804
0.00313297
0.00328014
0.00302582
0.00306605
0.00383269
0.00255467
0.00111136
0.000739725
0.000397515
0.00172833
0.00172892
0.00177757
0.00177821
0.00149226
0.00149265
0.00152567
0.00152627
0.00127814
0.00128226
0.00127712
0.00128352
0.00128061
0.00128242
0.00128145
0.00128352
0.00131668
0.00131891
0.0013001
0.00130843
0.00132247
0.00131907
0.00130542
0.00130861
0.0010691
0.00111909
0.00110512
0.00102342
0.00113299
0.00111207
0.00107493
0.00112057
0.00102359
0.00110504
0.00113282
0.00111201
0.00119135
0.00116903
0.00118578
0.00116143
0.00119221
0.00116899
0.00118568
0.00116138
0.00120233
0.00118949
0.0011785
0.00122319
0.00107383
0.00113226
0.00108362
0.00113372
0.00106848
0.00088852
0.00144814
0.00144865
0.00155547
0.00155587
0.00146892
0.00146932
0.00150344
0.00150374
0.00139595
0.00142222
0.00141499
0.0014351
0.00139853
0.00142229
0.00141669
0.00143514
0.00136607
0.0012552
0.00139522
0.00139374
0.001416
0.00130592
0.00136771
0.00126459
0.00139506
0.00139466
0.00141599
0.00130608
0.00120204
0.00119253
0.00117839
0.00122051
0.00125068
0.00126165
0.00125058
0.00126147
0.00107359
0.00113691
0.00108359
0.00113076
0.00104345
0.00111592
0.00104325
0.00111146
0.00112909
0.00112702
0.00108327
0.00107186
0.00103455
0.00027342
0.00262726
0.00285789
0.0031769
0.00285339
0.00288354
0.00351289
0.00311386
0.00174235
0.00072134
0.00165966
0.00166027
0.00164641
0.00164716
0.0015303
0.00153042
0.00156044
0.00156065
0.00134533
0.00135759
0.00134558
0.00135914
0.00135083
0.00135789
0.00134949
0.00135912
0.00137417
0.00139558
0.00136006
0.00137851
0.00137964
0.0013958
0.00136441
0.00137867
0.00123296
0.0012085
0.00122408
0.00120392
0.00123588
0.00120855
0.00122928
0.00120393
0.0012305
0.0012025
0.00123603
0.00120737
0.0012365
0.00120252
0.0012418
0.00120761
0.00113982
0.0011531
0.00111482
0.0011952
0.00107979
0.00093016
0.00112903
0.00112956
0.00122289
0.0012233
0.00121208
0.00121208
0.00134403
0.00134428
0.00124425
0.00129366
0.0012966
0.00131871
0.00125067
0.00129363
0.00130409
0.00131888
0.00135703
0.00137017
0.00133811
0.00135511
0.00136113
0.00137039
0.00134503
0.00135515
0.00133013
0.00133025
0.0013509
0.00135072
0.00133308
0.0013302
0.0013527
0.00135067
0.00120432
0.001342
0.00135539
0.00120248
0.00135297
0.00135392
0.00121313
0.00134362
0.00135516
0.00120254
0.00135404
0.00135381
0.00113968
0.00115491
0.00111481
0.00119196
0.00117033
0.00120376
0.00117028
0.00120462
0.00114727
0.00114549
0.00110114
0.00110601
0.000959681
0.000323836
0.00145029
0.0025514
0.00291511
0.00263039
0.00264506
0.00333856
0.00343413
0.00247432
0.000507937
0.00149434
0.00149458
0.00150338
0.00150389
0.00143605
0.00143632
0.00145696
0.00145714
0.00125546
0.00122919
0.00126261
0.00123024
0.001261
0.00122941
0.00126701
0.00123025
0.00129064
0.00128216
0.00127231
0.00124328
0.00129612
0.00128227
0.00127702
0.00124339
0.00122095
0.001179
0.00122646
0.00117895
0.00110175
0.000958243
0.000944441
0.000945241
0.000944944
0.000945493
0.000890508
0.000890525
0.00102032
0.00102013
0.00105367
0.00105762
0.00104867
0.00107637
0.00106368
0.00105793
0.00105787
0.00107649
0.00114511
0.00119407
0.00112414
0.00117367
0.00115308
0.00119424
0.00113139
0.00117356
0.00117035
0.00115225
0.00121259
0.00119801
0.00117703
0.00115213
0.00121948
0.00119821
0.00129968
0.0012831
0.00124815
0.0012511
0.00130385
0.00128317
0.00125511
0.00125112
0.00117378
0.00115607
0.0011141
0.00114179
0.000894265
0.000393078
0.000756401
0.00234116
0.00270551
0.00231687
0.00245555
0.00315882
0.00359042
0.00286782
0.00153461
0.0015348
0.00168442
0.00168516
0.00137177
0.00137191
0.00138163
0.00138179
0.00133311
0.00133827
0.00132791
0.00134995
0.00133321
0.00133902
0.00132818
0.00134938
0.00133998
0.00132808
0.00132704
0.00135021
0.00133994
0.00133039
0.00132694
0.00134958
0.00122963
0.00118148
0.00123182
0.00117105
0.0012344
0.00118154
0.00123532
0.00117098
0.00124773
0.00120191
0.00123304
0.00117158
0.00125181
0.00120187
0.00123632
0.00117161
0.00115493
0.00100373
0.000739488
0.000775207
0.000774768
0.000738641
0.000738087
0.00073151
0.000731174
0.000831902
0.00083274
0.000913651
0.000917366
0.000969785
0.000945105
0.000923671
0.0009175
0.000978093
0.000945276
0.00107299
0.00106186
0.00104114
0.00102807
0.00108097
0.00106204
0.00104848
0.00102807
0.00113817
0.0011096
0.00114462
0.00110942
0.00120084
0.00115608
0.00113146
0.00118336
0.000809388
0.000396801
0.000508701
0.00222426
0.00233999
0.00194893
0.00232914
0.00302791
0.00357973
0.00114133
0.00141746
0.00141782
0.00153853
0.00153859
0.00127946
0.00126801
0.00128383
0.00129835
0.00128306
0.00126819
0.00128399
0.00129852
0.00132571
0.00132592
0.00124285
0.00130843
0.00126269
0.0012982
0.00124288
0.00130843
0.00126275
0.00129709
0.00122539
0.00125669
0.0012044
0.00128952
0.00122527
0.00126077
0.00120445
0.00128907
0.00125534
0.0011989
0.0012582
0.0011987
0.00121545
0.00110127
0.000894616
0.000526965
0.00052374
0.000355182
0.000350596
0.000528005
0.000520315
0.000566159
0.000566709
0.000683573
0.000613227
0.000655318
0.000674915
0.00068357
0.00060922
0.00065489
0.000669117
0.000755191
0.00081831
0.000777573
0.000761233
0.000755386
0.000822187
0.000777903
0.000760749
0.000872469
0.000830137
0.000912217
0.000873189
0.0008797
0.000830096
0.000918071
0.000873279
0.00104896
0.00101387
0.000983102
0.000957416
0.001056
0.00101395
0.000988514
0.000957363
0.00120768
0.00114676
0.00117026
0.00103071
0.000495663
0.000411513
0.0019315
0.00196325
0.00175204
0.00232822
0.00288187
0.00195755
0.00160429
0.00160397
0.00158088
0.00158117
0.0012911
0.00128778
0.00132575
0.00133213
0.00129376
0.00128803
0.00132685
0.00133185
0.00145146
0.00145158
0.00121922
0.0011665
0.00120347
0.00124066
0.00122238
0.00116665
0.00120346
0.00124064
0.00125476
0.00123755
0.00125253
0.00122698
0.00125737
0.0012376
0.001253
0.00122699
0.00118904
0.0012199
0.00114922
0.00126351
0.00118886
0.00122346
0.00114923
0.00126423
0.00124509
0.00120884
0.00105124
0.000884902
0.000768965
0.000764962
0.000590855
0.000583466
0.000514743
0.000513514
0.000541307
0.000569251
0.000551141
0.000507298
0.000543074
0.00056817
0.0005493
0.000513802
0.000637749
0.000631777
0.00059751
0.000680093
0.000637526
0.000628347
0.000597062
0.000676544
0.000695294
0.000786274
0.00073584
0.000738138
0.000695279
0.000789442
0.000735926
0.000737713
0.000850796
0.000804496
0.00085719
0.000804363
0.00118326
0.00115474
0.00116282
0.000522792
0.000296451
0.00172281
0.00177142
0.0016218
0.0023514
0.00215301
0.00156471
0.00156489
0.00184217
0.00184259
0.00137834
0.00137846
0.00132501
0.00132526
0.00121558
0.00118039
0.00126511
0.00125715
0.00121788
0.00118055
0.00126607
0.00125688
0.00130947
0.0013162
0.00132957
0.00131553
0.00130944
0.00131694
0.0013294
0.00131596
0.0011902
0.00111034
0.00113681
0.0012073
0.00119141
0.00111044
0.00113681
0.00120654
0.00119817
0.00114436
0.00121079
0.00115325
0.00120068
0.00114437
0.0012117
0.00115328
0.00122641
0.00126804
0.00120452
0.00107264
0.0011043
0.00110315
0.00104136
0.00103999
0.000942912
0.000940121
0.000845975
0.000661457
0.000833164
0.000709803
0.000837739
0.000659967
0.000824351
0.000707835
0.000780493
0.00061176
0.000745617
0.000589762
0.00056413
0.000535138
0.000776026
0.000610873
0.000743666
0.000589358
0.000564792
0.000534629
0.00059658
0.000547935
0.000595171
0.000547627
0.000620364
0.000681371
0.000587973
0.000693469
0.000619989
0.000677808
0.000587418
0.000690023
0.0011509
0.00123856
0.000499943
0.000278416
0.00116063
0.00168617
0.00142146
0.00171365
0.00090324
0.00119847
0.00119859
0.00134303
0.00134331
0.0011978
0.00124617
0.00122
0.00116746
0.00119194
0.00123521
0.00124683
0.00119819
0.00123501
0.00121988
0.00116784
0.00119176
0.00103985
0.00110756
0.00107237
0.00112756
0.00104074
0.00110743
0.00107372
0.00112762
0.00119211
0.00113075
0.00122687
0.00118316
0.00119342
0.00113075
0.00122758
0.00118295
0.00121466
0.00124737
0.00121457
0.00124791
0.00112238
0.00119902
0.00112239
0.0011986
0.00118627
0.00112029
0.00118828
0.00112022
0.00116682
0.00126673
0.00128808
0.00123378
0.00123916
0.00123823
0.00121436
0.00121281
0.00126246
0.00126078
0.00122488
0.00122454
0.00099069
0.00116637
0.00101801
0.00116549
0.000822604
0.000992361
0.000990387
0.00116268
0.00101705
0.00116305
0.000822154
0.000988968
0.000945921
0.000774475
0.000942443
0.000774056
0.00090086
0.0007356
0.000870075
0.000715682
0.000709821
0.000577422
0.000898019
0.000735138
0.000868497
0.000713968
0.000709564
0.000577143
0.00071091
0.000576366
0.000708103
0.000575969
0.00119366
0.000486014
0.000214672
0.000746068
0.0016562
0.00105337
0.000919978
0.00094608
0.000946047
0.000730023
0.000729938
0.000855084
0.000855341
0.00102846
0.00102902
0.00119929
0.00110778
0.00112419
0.0011845
0.00101544
0.00104365
0.00119969
0.00110828
0.00118421
0.00112396
0.00101633
0.00104341
0.000789974
0.000901574
0.000865098
0.000931505
0.00079246
0.000901225
0.000867054
0.000931385
0.00121719
0.0011675
0.0012178
0.00116728
0.00115211
0.00119773
0.00130371
0.00131763
0.00135608
0.00138891
0.00138754
0.00134738
0.00134528
0.00141832
0.00128453
0.00143583
0.00128699
0.0014127
0.00128286
0.00143352
0.00128608
0.00142424
0.00129925
0.00129351
0.00142801
0.00129291
0.00113612
0.00142703
0.00129845
0.00129332
0.00142814
0.00129223
0.0011358
0.00111132
0.000959736
0.00127239
0.00112894
0.00111103
0.000959264
0.00127066
0.00112577
0.00108641
0.000927407
0.00108394
0.000926972
0.00103982
0.000886076
0.000819749
0.000665627
0.00103763
0.000885617
0.00081811
0.000665203
0.000467805
0.000147299
0.000724901
0.0014622
0.000818168
0.000939729
0.000921296
0.000920978
0.000740628
0.000740251
0.000721949
0.000618181
0.000713556
0.000632554
0.00072162
0.000619708
0.0007135
0.000629834
0.000847046
0.000846836
0.000638759
0.00075437
0.000727996
0.000831656
0.000642796
0.000754227
0.000731034
0.000831605
0.000472187
0.00112644
0.00123556
0.00133966
0.00138378
0.00156234
0.00156198
0.00154803
0.00154676
0.0014604
0.00145883
0.00144758
0.00144505
0.00156429
0.00140343
0.0015635
0.00142362
0.00156274
0.00140281
0.00156521
0.00142329
0.00141614
0.00153359
0.00128804
0.00142647
0.00156159
0.00144261
0.00141967
0.00153905
0.00142648
0.00128803
0.0015659
0.00144251
0.00108558
0.00124463
0.00108516
0.00124194
0.000138783
0.000909499
0.00115569
0.000896647
0.00108851
0.00108856
0.00127285
0.00127129
0.000960555
0.000960997
0.000957838
0.000958135
0.000613434
0.00055519
0.000605235
0.000581324
0.000613971
0.000565135
0.00060543
0.000590678
0.000852981
0.000785337
0.000704617
0.000693782
0.000857526
0.000784734
0.00071168
0.000693804
0.000564933
0.000642137
0.000572002
0.000642692
0.000480746
0.00111978
0.00127467
0.00137922
0.00151544
0.00166416
0.00166359
0.00166241
0.00166118
0.00160609
0.00160451
0.00147104
0.00166356
0.00149799
0.00162411
0.00147079
0.0016588
0.00149745
0.00162125
0.00168566
0.00154017
0.00170884
0.00159553
0.00168218
0.00153952
0.00170772
0.00159501
0.000254484
0.00144951
0.000904968
0.00113598
0.00126718
0.00126666
0.00139541
0.00139312
0.000871029
0.000745345
0.000901836
0.000943156
0.000841654
0.00102635
0.000874056
0.000744925
0.000901786
0.000943069
0.000841582
0.00102582
0.000999169
0.000998714
0.00056975
0.000549037
0.000553554
0.00059234
0.000570009
0.000554218
0.000553591
0.000598586
0.000734551
0.000652128
0.000737558
0.00065182
0.000502114
0.0011361
0.00130966
0.00143895
0.00158576
0.00158581
0.00164698
0.00164703
0.00164673
0.00164706
0.00170657
0.00170585
0.00176466
0.00159038
0.00180413
0.00161852
0.00174015
0.00156431
0.00176069
0.00158867
0.0018041
0.0016179
0.00173752
0.00156392
0.0017569
0.00159721
0.00175266
0.00159661
0.00178338
0.00165172
0.00177871
0.00165105
0.00037314
0.0012203
0.000968439
0.00139319
0.00138955
0.00126712
0.00126307
0.0014687
0.00146805
0.00150578
0.00150411
0.00082413
0.000714482
0.000836936
0.000847877
0.000767478
0.00093986
0.000824884
0.00071426
0.000836926
0.000847944
0.000767504
0.000940011
0.00113372
0.00103474
0.000955115
0.000901621
0.00113543
0.00103446
0.000956332
0.000901746
0.00053429
0.00117197
0.0013366
0.00149307
0.0016488
0.00164773
0.00170175
0.00170119
0.00172719
0.00172755
0.00184792
0.00167816
0.00167699
0.00189887
0.00173817
0.00180993
0.00167712
0.00189897
0.00173784
0.00181238
0.00184821
0.00167762
0.00187719
0.00182488
0.00171567
0.00165336
0.00187975
0.0018255
0.00171544
0.00165298
0.00183427
0.00167475
0.00183202
0.00167435
0.00120345
0.00129131
0.000945303
0.000985775
0.00098345
0.00082548
0.000825328
0.00139371
0.00123236
0.00136951
0.00163876
0.00135902
0.00164873
0.00139471
0.00123226
0.0013693
0.0016388
0.0013588
0.00164835
0.0012506
0.00124905
0.000813448
0.00088065
0.000813582
0.000881767
0.00123388
0.00109881
0.00123564
0.00109884
0.000595124
0.0011923
0.00134565
0.00147321
0.00147165
0.00155805
0.00155593
0.00156569
0.00156357
0.00167019
0.00166768
0.00179878
0.00167573
0.00191863
0.00177953
0.00191428
0.0017853
0.00179229
0.00191655
0.00178509
0.00167391
0.00191734
0.00177892
0.00193187
0.00178027
0.00197918
0.00186418
0.00198281
0.00193141
0.0018641
0.00177989
0.00177747
0.00102776
0.000915753
0.000555578
0.000552427
0.000581977
0.000574578
0.00154972
0.00128527
0.00109789
0.00138142
0.00115359
0.00119511
0.00155029
0.00128502
0.00109769
0.00138183
0.00115341
0.00119647
0.00042832
0.000528297
0.000395278
0.00059639
0.000428718
0.000527538
0.000395819
0.000596231
0.00142024
0.00117153
0.00142178
0.00117154
0.000693346
0.00118663
0.0012988
0.00142883
0.00142582
0.00150357
0.0014997
0.00157357
0.00156939
0.001844
0.00170959
0.0015668
0.00179688
0.0016544
0.0016638
0.00184336
0.00170895
0.0015664
0.00179419
0.00165381
0.00166088
0.00194828
0.00199768
0.00182418
0.00190364
0.00199889
0.00190326
0.00194993
0.00182391
0.0015963
0.00144019
0.00107756
0.000819468
0.000808913
0.00107239
0.00108607
0.00108586
0.000775052
0.000505832
0.000502994
0.000770566
0.000509469
0.000502522
0.00141674
0.00115318
0.000688867
0.000707756
0.000783383
0.000491306
0.00141706
0.00115302
0.000688342
0.000708474
0.000783252
0.0004928
0.000456555
0.00048222
0.000459971
0.000482595
0.000817421
0.00113867
0.00114117
0.0012818
0.00127741
0.00140661
0.0014002
0.00155931
0.00147908
0.00170452
0.00156517
0.00173667
0.00161353
0.00154564
0.00173035
0.00161278
0.00147637
0.00169468
0.00156402
0.00187661
0.00174945
0.00183575
0.00171693
0.00187623
0.00174875
0.00183189
0.0017162
0.0019584
0.00184834
0.00196099
0.00184801
0.00176705
0.00137532
0.00111597
0.00147348
0.00110854
0.00147389
0.00151543
0.00151579
0.000881741
0.000686484
0.000746022
0.00066403
0.000668069
0.00105677
0.000911171
0.00109433
0.000687001
0.00087748
0.000745138
0.000665789
0.000666825
0.00105601
0.000896394
0.0010945
0.000524307
0.000416005
0.000523951
0.000417594
0.000631578
0.000581518
0.000636013
0.000581255
0.00100157
0.0010253
0.000980598
0.0012196
0.00121591
0.000978239
0.0010455
0.00104226
0.0013027
0.00153925
0.00145124
0.00129764
0.00153404
0.00145024
0.0017882
0.00167384
0.0016648
0.0015523
0.00177943
0.00166385
0.0016706
0.00155188
0.00192112
0.00182922
0.00187954
0.00179104
0.00192042
0.00182862
0.00187377
0.00179031
0.0013933
0.00131436
0.00145627
0.00125241
0.00117575
0.0013376
0.00145591
0.001252
0.00115644
0.00133772
0.00130588
0.00130546
0.000771468
0.00115692
0.000662881
0.000674604
0.00094817
0.00123293
0.000770323
0.000664203
0.00114995
0.000674121
0.000947799
0.00123171
0.000559796
0.000619768
0.000559714
0.000624573
0.00118433
0.000888852
0.000938885
0.00102501
0.00102117
0.000934604
0.000975425
0.000970746
0.0012001
0.00141146
0.00139978
0.00149062
0.00143724
0.00121948
0.00108375
0.00117168
0.00119094
0.00140373
0.00139853
0.00148477
0.0014362
0.00121827
0.00106958
0.00116736
0.00177147
0.00163822
0.00166994
0.00155223
0.00176732
0.00166948
0.00163483
0.00155172
0.00124599
0.000584355
0.000706645
0.000705688
0.000587058
0.000423688
0.000424315
0.0014346
0.0013933
0.00153345
0.00148101
0.0013911
0.00134304
0.00151007
0.00141556
0.000867431
0.00126624
0.00120311
0.001432
0.0013927
0.00153548
0.00148102
0.0013849
0.00134317
0.00150942
0.00141568
0.000866545
0.00126431
0.00120282
0.00102972
0.00141879
0.0011791
0.00141656
0.00102409
0.00141475
0.00117815
0.00141603
0.0014423
0.000663077
0.000747586
0.000977862
0.00109778
0.00102622
0.000973863
0.00109756
0.00102797
0.00073886
0.000801935
0.000788822
0.00129923
0.0011416
0.00153221
0.00132625
0.00151791
0.00118063
0.00129233
0.0011416
0.0015268
0.00151737
0.00132524
0.0011799
0.00174686
0.00167319
0.00174374
0.00167267
0.000532339
0.000578227
0.000386109
0.000577615
0.000387929
0.000374478
0.000375038
0.00156494
0.00158099
0.00150125
0.00153024
0.00137701
0.00129366
0.000396935
0.000782198
0.000797295
0.00108704
0.00103463
0.000629178
0.000496114
0.000703305
0.0015636
0.00158776
0.00152981
0.00150146
0.00137511
0.0012937
0.00078331
0.000389684
0.000797364
0.00108888
0.00103481
0.000620633
0.00048756
0.00069426
0.00164956
0.000319787
0.000670261
0.000665056
0.000329643
0.000447708
0.000444033
0.000845846
0.00105772
0.000986719
0.00106292
0.000970919
0.00102249
0.000930816
0.000996153
0.000821615
0.00105796
0.000984579
0.00106222
0.000973929
0.00101516
0.000913327
0.00099578
0.000689284
0.000767853
0.000920828
0.000681696
0.000750108
0.000914579
0.00122467
0.00105493
0.00130274
0.00111754
0.0012243
0.00105958
0.00130195
0.00111728
0.000305336
0.00042856
0.000607823
0.000474288
0.000303536
0.000428352
0.000609282
0.00047602
0.000301511
0.000302407
0.000300953
0.00144147
0.00136709
0.00121823
0.00112783
0.000469941
0.000418785
0.000895466
0.000836689
0.000572134
0.000523366
0.00144511
0.00136736
0.00121798
0.00112795