/*--------------------------------*- C++ -*----------------------------------*\
| =========                 |                                                 |
| \\      /  F ield         | OpenFOAM: The Open Source CFD Toolbox           |
|  \\    /   O peration     | Version:  5.x                                   |
|   \\  /    A nd           | Web:      www.OpenFOAM.org                      |
|    \\/     M anipulation  |                                                 |
\*---------------------------------------------------------------------------*/
FoamFile
{
    version     2.0;
    format      ascii;
    class       volScalarField;
    location    "2.2";
    object      omega;
}
// * * * * * * * * * * * * * * * * * * * * * * * * * * * * * * * * * * * * * //

dimensions      [0 0 -1 0 0 0 0];

internalField   nonuniform List<scalar> 
12160
(
0.0719999
0.0719999
0.00183275
0.0719999
0.0037831
0.00115276
0.0719999
0.00672784
0.00144466
0.0011161
0.0719999
0.0103044
0.00193038
0.00130128
0.00110859
0.0719999
0.0123812
0.00260562
0.00148245
0.00132012
0.00123227
0.0719999
0.0128575
0.00305724
0.00169157
0.00146594
0.00155009
0.00127643
0.0719999
0.012534
0.00315004
0.00181751
0.00158872
0.00164279
0.00199526
0.00271587
0.0719999
0.0123403
0.00305206
0.00184137
0.00165809
0.00167975
0.00216819
0.00471554
0.0132449
0.0719999
0.012368
0.00299781
0.0018252
0.00167334
0.00169881
0.00215574
0.00449484
0.0131669
0.0127906
0.0719999
0.0125929
0.00301609
0.00182594
0.00168804
0.00171464
0.00204739
0.00348537
0.0128996
0.0125343
0.0227886
0.0719999
0.0128732
0.00308803
0.00185088
0.001712
0.00175202
0.00195545
0.0029312
0.0115126
0.0132855
0.0257506
0.0258045
0.0719999
0.0131037
0.00317165
0.00188522
0.00174317
0.0017989
0.00195114
0.00284244
0.0102116
0.0139141
0.0332147
0.0260713
0.0177148
0.0719999
0.0132656
0.00323586
0.00191592
0.00177257
0.00184665
0.00202315
0.00322626
0.00882907
0.0141682
0.0263849
0.0194966
0.00894796
0.0148118
0.0719999
0.0134589
0.00327253
0.00193294
0.00179286
0.00188495
0.00210717
0.00375293
0.00770141
0.0137398
0.0233534
0.00981674
0.0117514
0.00827034
0.0111406
0.0719999
0.0137876
0.00331328
0.00193494
0.00179673
0.00190553
0.00217452
0.00418322
0.0069653
0.0130351
0.0211374
0.0139297
0.00504874
0.00529739
0.0021616
0.0719999
0.0142888
0.00339925
0.00193715
0.00178277
0.00190365
0.00220997
0.00444476
0.00676709
0.011935
0.0202204
0.0149259
0.00379435
0.00373575
0.00402653
0.0719999
0.014818
0.00354187
0.00195717
0.0017614
0.00188039
0.00219856
0.00453129
0.00698055
0.0104407
0.0197736
0.0162375
0.00372993
0.00255972
0.002267
0.0719999
0.0153446
0.00370488
0.00199496
0.00175312
0.00184893
0.00213485
0.00448661
0.00723183
0.00942054
0.0193946
0.0168191
0.00415871
0.00225366
0.00164003
0.0719999
0.0159136
0.00387843
0.00204468
0.00176163
0.00183301
0.00203382
0.00434639
0.00730729
0.00880071
0.0176418
0.0182571
0.0047839
0.00228103
0.00150155
0.0719999
0.0166336
0.00407263
0.00210583
0.00178313
0.00183554
0.00194031
0.00413973
0.00727803
0.00852261
0.015365
0.020534
0.00598323
0.00236026
0.00153189
0.0719999
0.0174146
0.00432541
0.00217881
0.00181416
0.00184742
0.00189831
0.00389682
0.00721514
0.00841407
0.0140584
0.022905
0.00810607
0.00253141
0.00158194
0.0719999
0.0180741
0.00459851
0.00227162
0.00185623
0.00186929
0.0018892
0.00369804
0.0071396
0.00821972
0.013072
0.0222112
0.0112378
0.00282087
0.00175834
0.0719999
0.0185038
0.0048273
0.00237256
0.00190992
0.00190078
0.00190865
0.00353724
0.0069796
0.00796302
0.0122547
0.0209589
0.0149192
0.003948
0.00194306
0.0719999
0.0186482
0.00497678
0.0024603
0.00196611
0.00194044
0.00194939
0.00338129
0.00669636
0.00768446
0.0112652
0.01987
0.0170143
0.00560757
0.00203828
0.0719999
0.0185073
0.00502431
0.00252017
0.00201447
0.00198548
0.00201789
0.00321197
0.00631488
0.0073916
0.00995513
0.0198246
0.0180872
0.00691348
0.00245747
0.0719999
0.018098
0.00496975
0.00254349
0.00204939
0.00202833
0.00208213
0.00307052
0.00584985
0.00707037
0.00884078
0.0204631
0.0186585
0.00815915
0.00290053
0.0719999
0.0174516
0.00481934
0.00253116
0.0020694
0.0020621
0.00211921
0.00292494
0.00529786
0.00668875
0.00803117
0.0206644
0.0189684
0.00901267
0.00330742
0.0719999
0.0166154
0.00459027
0.00248579
0.00207535
0.00208373
0.00212508
0.00273152
0.00470446
0.00622744
0.00750006
0.018695
0.0188461
0.00933259
0.00351859
0.0719999
0.0156473
0.0043052
0.00241417
0.00206582
0.00209308
0.00211116
0.00249573
0.00406983
0.0056784
0.00713758
0.0147924
0.0177061
0.00986585
0.00354708
0.0719999
0.0146144
0.00399064
0.00232435
0.0020427
0.00209239
0.00211665
0.00228623
0.00345499
0.0050727
0.00652521
0.0111389
0.0161536
0.0109675
0.00376678
0.0719999
0.0135951
0.00367321
0.00222579
0.00201013
0.00208517
0.00215589
0.0023204
0.00305192
0.00452218
0.00581925
0.00870836
0.0143781
0.011102
0.00441893
0.0719999
0.0126823
0.00337819
0.0021287
0.0019739
0.00207368
0.00220414
0.00262173
0.00325621
0.00416008
0.00515466
0.00688605
0.0121533
0.0102196
0.00479827
0.0719999
0.0119495
0.00312943
0.0020426
0.0019387
0.00205775
0.00225067
0.00296723
0.00387532
0.00428355
0.0046294
0.00542456
0.00942382
0.00850831
0.00457299
0.0719999
0.0114271
0.00294234
0.00197486
0.0019085
0.0020411
0.00229742
0.00331085
0.00456075
0.0048237
0.00472114
0.00448294
0.00623566
0.00621445
0.00400948
0.0719999
0.0111132
0.00281928
0.00193024
0.00188769
0.00202854
0.00234228
0.00363288
0.00520818
0.00546945
0.00533962
0.00485043
0.00411107
0.0041694
0.00323723
0.0719999
0.0110431
0.00275442
0.00191004
0.00188108
0.00202465
0.00238442
0.00392976
0.00578302
0.00612918
0.00613467
0.0061514
0.00491743
0.00290239
0.0023906
0.0719999
0.0111683
0.00275202
0.0019125
0.00189033
0.00203557
0.00243661
0.00421181
0.00629151
0.00679182
0.00707718
0.00778854
0.00759759
0.00317709
0.00178528
0.0719999
0.0114222
0.00280024
0.0019371
0.001916
0.0020679
0.00251869
0.00452284
0.00676488
0.00751409
0.00828241
0.00986996
0.00998288
0.00442715
0.00183038
0.0719999
0.0117405
0.00288569
0.00198055
0.0019579
0.00211814
0.00263115
0.00487464
0.00721926
0.00826786
0.00990343
0.0127046
0.0117135
0.00571977
0.00232009
0.0120678
0.0719999
0.00299495
0.00204024
0.00201395
0.00218511
0.00276589
0.00522422
0.0076422
0.00895802
0.0115642
0.0166738
0.0129762
0.00679416
0.00266541
0.00311588
0.0126364
0.0719999
0.00211293
0.002083
0.00226726
0.00293217
0.00553459
0.00804046
0.00957271
0.0128024
0.0204068
0.01359
0.00731516
0.00282056
0.00219785
0.00330813
0.0135911
0.0719999
0.00216336
0.00236516
0.00312884
0.00578823
0.00841629
0.0101494
0.0137921
0.022189
0.0138721
0.0070232
0.00291566
0.00225452
0.00230847
0.00367283
0.0150626
0.0719999
0.00247945
0.00333902
0.00597842
0.00876682
0.0106615
0.014962
0.0226252
0.0142601
0.00617516
0.00299913
0.00260289
0.00234801
0.00253093
0.00429042
0.0186109
0.0719999
0.00355111
0.00612161
0.00907513
0.0111099
0.0166192
0.022581
0.0144341
0.00534143
0.0028664
0.00374741
0.00271652
0.00252668
0.00286169
0.00564818
0.0297716
0.0719999
0.006223
0.0093056
0.011494
0.0185409
0.0218034
0.0144857
0.00472263
0.00255639
0.00629972
0.00390965
0.00290828
0.00270177
0.00362726
0.0106809
0.0550454
0.0719999
0.00945098
0.0118452
0.0202186
0.0207047
0.014476
0.00432149
0.00231166
0.0095283
0.00618254
0.00409028
0.00302435
0.00305133
0.0066552
0.0188921
0.0699835
0.0719999
0.0121357
0.0212523
0.0197477
0.0141726
0.00404374
0.00217157
0.0124
0.00965689
0.00600258
0.00414917
0.00326149
0.00459854
0.0111082
0.0277667
0.0725174
0.0719999
0.0219476
0.0190688
0.0134737
0.00390498
0.00206866
0.0222993
0.0128444
0.00962077
0.00577227
0.00416627
0.00433453
0.00912306
0.0186785
0.0346174
0.0830834
0.151407
0.0185115
0.0123762
0.00378824
0.00202473
0.0174775
0.0224548
0.0128337
0.00929179
0.00557258
0.00476499
0.00955858
0.0206131
0.0366133
0.0517103
0.520239
9.75878
0.0111939
0.00367036
0.0019743
0.00979494
0.0163363
0.0224712
0.0124005
0.00900206
0.00590976
0.010763
0.0344191
0.0621852
0.0764901
0.362165
9.66459
9.35596
8.72716
0.00364603
0.00192399
0.00354774
0.00845168
0.0169787
0.0378646
0.0399913
0.016921
0.0167001
0.0622069
0.142299
0.148647
0.206206
8.62797
8.84585
10.3002
10.3358
9.65739
0.00192417
0.00192328
0.00345958
0.00994407
0.0482194
0.4266
0.515525
0.182537
0.188761
0.392551
0.425593
0.170567
5.97338
8.43058
9.02406
12.84
11.8702
11.74
10.5424
0.00194762
0.00465512
0.0322454
0.569879
3.61067
2.84462
1.12714
1.50325
1.33993
0.694203
3.59014
7.43361
8.08069
10.654
15.957
14.8414
13.3348
13.0613
11.369
0.00246674
0.0149157
0.405792
3.91638
11.0289
7.5959
4.99539
4.5916
1.87406
1.7032
5.89097
7.19338
8.83912
13.065
19.0317
18.3813
16.5409
14.7942
14.4644
12.1551
0.00506549
0.225724
2.88383
11.2431
16.7529
13.0006
12.5355
7.05515
1.42451
4.20828
6.21612
7.49663
10.3748
15.5921
46.2184
21.6841
20.5595
18.3871
16.4419
15.9841
12.9023
0.0779954
1.90236
9.4659
15.875
19.2078
19.0472
16.075
6.7947
2.51774
4.96278
6.50823
8.4532
12.022
30.0618
344.312
43.3119
344.457
320.421
320.532
24.5215
23.0881
20.5387
18.3253
17.723
13.6246
0.907397
6.80207
15.2169
16.7695
20.4131
21.6481
16.9492
4.61479
3.8411
5.36523
7.18567
9.36221
18.8821
121.067
350.934
455.399
28.4065
351.066
291.62
291.773
455.58
426.897
427.066
27.9082
25.8952
22.9606
20.4714
19.5987
14.2823
4.14909
12.6454
15.6585
16.5995
19.312
19.5714
15.0876
3.79249
4.14917
5.82204
7.74001
12.0357
57.8433
338.425
338.442
323.756
323.791
458.549
489.939
32.2473
65.0784
458.74
382.323
382.556
489.873
462.596
462.54
31.5245
29.0886
25.6592
22.8807
21.5942
14.8512
9.0567
14.4889
14.2709
14.8237
16.3045
19.3818
12.921
4.05328
4.21277
6.33541
8.7099
42.2992
305.745
305.75
307.283
307.377
427.267
427.421
418.965
418.941
496.722
467.714
753.642
466.597
759.448
36.7468
53.3749
349.983
350.007
353.674
353.767
496.664
468.696
468.673
467.171
755.364
466.998
758.108
450.792
701.172
438.571
734.973
450.066
703.81
439.112
733.121
35.7091
32.5975
28.5955
25.4185
23.5275
15.2917
11.8266
13.1481
12.0134
12.5492
15.124
19.8641
11.9115
5.00856
4.43229
6.80059
40.082
307.754
307.827
311.398
311.6
425.635
425.538
432.65
432.506
675.008
767.08
416.956
668.375
415.814
445.42
769.835
676.416
417.434
668.763
415.945
446.483
696.534
425.629
684.883
421.022
696.911
425.728
684.983
421.025
482.989
774.974
477.919
788.683
474.271
826.857
475.675
825.17
42.0781
54.0619
336.274
336.333
340.608
340.558
474.627
474.548
477.898
477.973
482.535
776.437
478.2
787.583
474.921
746.577
466.329
780.42
475.046
750.377
467.393
780.778
473.811
829.828
476.844
824.373
461.864
805.057
460.82
802.931
40.4338
36.4002
31.599
27.7277
25.1959
15.4989
10.9216
9.0636
9.50808
11.039
14.9012
19.7786
12.979
6.7275
4.4868
35.7873
317.287
317.406
324.955
325.103
440.342
440.197
447.09
446.983
718.133
437.234
721.087
438.664
719.001
437.539
723.283
439.348
736.729
447.788
734.357
446.154
739.397
448.648
736.649
446.943
789.914
712.269
420.476
449.924
726.852
424.117
793.069
713.567
451.351
420.954
727.103
424.234
769.063
443.148
758.374
436.829
769.738
443.382
758.444
436.849
495.147
845.169
486.373
862.569
479.385
845.262
480.258
844.795
48.5333
55.396
308.343
308.474
327.721
327.762
452.363
452.217
461.218
461.077
777.22
476.842
780.766
479.257
778.279
477.167
781.576
479.487
777.769
826.219
478.038
775.652
478.266
482.247
779.275
830.219
478.51
776.349
478.489
483.924
494.637
847.096
487.034
861.684
495.42
866.163
495.569
866.295
478.715
848.122
481.571
843.112
468.292
827.188
467.071
824.629
45.573
40.0773
34.1499
29.54
26.1796
15.4223
4.77103
5.84716
7.88833
10.0496
14.6674
19.7421
15.2099
8.88938
8.17462
299.814
299.934
281.411
281.553
441.076
441.005
446.86
446.945
745.812
454.1
746.718
454.882
747.755
454.775
748.95
455.569
742.551
459.679
755.265
460.002
744.94
460.389
757.231
460.651
797.544
457.374
804.805
461.908
799.075
458.015
807.542
463.125
834.297
476.887
827.456
472.873
837.754
478.426
830.049
474.163
501.598
859.075
489.419
884.682
55.8098
60.081
265.689
265.865
280.575
280.677
375.528
375.38
416.024
415.874
710.125
438.224
737.714
450.877
713.017
439.072
740.811
451.872
764.701
467.062
758.456
462.78
766.195
467.572
761.726
463.796
854.084
493.029
856.136
494.889
855.847
493.674
857.141
495.298
864.337
822.351
484.196
493.399
843.675
490.036
869.137
823.833
484.734
495.588
844.461
490.359
500.819
860.177
489.999
882.738
501.148
881.399
501.46
881.957
50.5961
42.9833
35.847
30.5241
26.2643
15.0001
2.45398
4.26227
6.76328
9.55943
14.451
19.2635
17.1657
11.4465
52.0315
424.206
424.304
402.304
402.512
504.802
504.77
504.03
504.027
846.81
483.842
855.334
488.072
849.485
485.103
857.857
489.229
840.694
488.272
861.649
491.877
843.498
489.442
864.128
493.032
855.775
485.643
859.522
487.287
63.6646
68.5529
193.258
193.484
233.174
233.382
283.076
283.203
323.961
323.92
579.809
357.922
597.642
367.124
583.201
358.966
601.001
368.203
655.82
405.029
642.115
397.419
658.65
405.92
645.345
398.354
798.856
456.399
815.589
467.238
802.711
458.065
818.831
468.79
843.367
484.494
825.105
476.25
845.522
485.407
828.709
477.796
54.3921
44.6444
36.5193
30.5516
25.3511
14.3282
1.64371
3.52877
6.27282
9.04732
13.7069
18.4911
18.106
14.3757
299.413
299.518
275.963
276.049
471.561
471.358
441.73
441.979
491.333
795.743
490.386
799.273
491.19
795.558
490.376
798.971
489.668
781.322
482.5
796.479
489.619
783.196
483.022
796.341
875.052
495.765
890.128
503.281
877.889
497.184
892.411
504.502
887.928
505.505
898.578
508.772
890.572
506.743
900.465
509.897
69.4895
82.3712
90.889
189.047
189.227
228.755
228.827
263.613
263.649
310.094
310.259
611.613
354.705
660.657
377.049
616.365
356.751
664.749
379.005
733.48
419.876
713.163
407.782
737.327
421.625
717.024
409.521
801.736
455.51
806.074
457.369
56.4149
44.8184
36.2246
29.2178
23.5832
14.8435
1.31126
3.23801
5.77465
8.18355
12.9413
18.0219
19.0924
51.9098
415.394
415.158
372.655
372.494
750.512
460.901
457.425
729.981
752.07
461.319
457.232
729.705
476.819
476.699
509.285
872.486
503.245
888.723
509.012
872.661
503.279
887.918
510.022
870.807
497.878
894.569
510.047
873.119
498.863
894.472
896.838
508.988
899.469
510.045
71.8209
92.1241
117.089
211.021
210.756
144.63
144.239
168.262
168.121
199.183
199.261
256.802
383.825
241.799
416.564
256.405
383.187
241.478
414.85
288.923
509.932
307.39
467.457
288.978
511.312
308.1
467.342
634.895
359.178
667.476
379.07
639.316
361.423
670.761
380.958
751.714
425.726
717.001
408.665
755.732
427.713
720.348
410.453
56.0648
43.7132
34.3669
26.8818
19.8427
1.16411
2.90734
5.20204
7.68786
13.074
18.6453
34.9392
311.059
310.98
290.809
290.861
711.319
430.955
682.078
425.923
712.066
431.199
683.856
426.271
446.309
446.263
840.855
480.629
471.634
805.735
842.468
481.332
471.647
806.057
740.76
454.953
752.547
461.118
742.475
455.405
752.854
461.193
512.222
887.959
503.363
904.415
512.579
890.426
504.419
905.558
70.5324
93.4134
133.192
211.006
331.458
330.818
269.989
268.466
240.066
239.873
346.4
211.131
200.954
321.292
346.06
210.465
200.037
321.281
270.954
448.27
254.467
477.77
270.454
447.195
253.812
476.558
292.418
539.408
308.657
512.461
292.488
541.091
309.514
512.286
628.797
356.489
633.392
358.738
53.6169
40.8473
31.0461
23.2604
1.02918
2.73284
4.75144
8.03883
15.0378
19.5305
266.961
266.971
270.896
270.978
410.834
410.694
374.43
374.279
807.69
460.558
765.429
449.919
808.629
461.019
766.644
450.339
447.352
683.048
429.291
736.219
447.481
684.413
429.524
736.608
871.371
492.577
484.751
853.051
871.861
492.977
484.611
852.659
827.182
472.316
827.983
474.657
828.824
473.015
828.333
474.88
66.3342
89.4416
127.998
225.737
488.949
488.858
487.934
487.602
497.426
496.412
608.395
336.201
607.289
351.667
603.784
333.29
602.45
348.18
555.557
306.421
530.042
292.92
398.662
229.518
553.583
305.047
529.106
292.154
397.718
228.635
424.555
238.581
423.453
237.819
275.149
490.957
271.177
495.085
274.594
490.08
270.491
494.044
48.9422
35.8405
26.3097
1.02109
2.51301
4.89169
11.0065
19.8388
53.0185
324.6
324.461
339.518
339.628
650.725
743.919
401.393
638.229
391.214
437.918
744.809
651.258
438.207
401.518
639.15
391.388
549.325
344.644
584.144
359.542
550.058
344.671
584.738
359.688
844.655
476.782
828.364
471.033
845.447
477.224
829.174
471.397
460.486
804.537
460.692
804.928
486.491
859.363
486.421
859.151
845.717
478.537
847.45
479.236
59.1713
82.5243
116.328
193.021
513.393
513.461
516.995
516.828
625.749
625.146
648.017
648.012
498.959
872.982
503.417
886.038
418.387
740.417
498.247
872.955
502.713
885.026
417.068
738.45
714.238
398.141
712.251
396.935
678.509
376.872
648.196
515.112
359.137
282.763
677.116
375.941
647.221
514.367
358.496
281.993
509.685
278.009
508.641
277.214
41.515
28.9989
0.948266
2.42201
6.74783
21.9034
58.9606
223.637
223.634
152.478
152.55
284.022
283.679
328.38
328.494
751.715
679.914
397.855
433.262
659.892
383.036
752.78
680.552
433.587
398.076
660.612
383.309
527.825
317.694
586.717
342.994
529.333
318.077
587.732
343.42
836.994
473.923
837.739
474.268
48.645
71.9233
103.927
159.077
340.717
605.839
605.791
621.697
621.094
1063.05
617.057
1086
618.835
1062.93
616.368
1086.76
619.125
1061.3
975.861
603.224
1072.52
611.504
553.572
1064.18
976.268
604.619
1075.27
612.599
553.675
540.49
484.101
963.019
863.779
540.126
483.232
962.308
862.36
827.725
463.828
826.859
463.202
787.245
441.023
605.307
334.334
787.068
440.598
604.667
333.781
31.3572
0.835377
3.38409
10.9015
51.9405
182.436
308.485
308.502
237.699
237.702
250.649
406.53
256.139
393.67
250.271
406.828
256.43
392.286
333.358
333.662
476.971
288.345
534.922
320.362
479.525
289.389
536.697
321.095
33.3823
57.3186
87.9687
133.974
236.063
655.741
655.937
681.189
681.162
693.823
693.841
770.308
769.629
1179.06
671.741
1177.56
665.193
1179.59
671.79
1179.36
666.014
1045.12
1109.66
590.786
630.05
1146.49
648.896
1047.95
1113
631.658
592.058
1149.41
650.331
526.468
939.331
525.855
938.355
1.09723
5.28359
24.4245
126.222
431.595
431.755
500.95
501.013
405.276
405.565
372.886
373.085
242.665
413.44
242.329
416.634
244.923
419.344
244.572
422.153
530.257
316.023
480.84
285.3
534.066
317.301
484.655
287.02
439.369
259.487
444.284
261.484
35.1628
67.9278
108.632
179.536
383.817
730.603
730.635
787.131
786.677
857.369
856.752
709.681
1261.49
717.013
1225.92
708.515
1258.7
715.713
1224.01
1259.98
712.251
1228.98
698.055
1259.35
711.693
1229.17
698.053
1.66318
9.677
62.9854
278.64
547.091
547.058
581.56
581.487
594.876
332.725
390.122
624.971
369.748
657.707
596.959
333.684
390.09
625.119
369.932
657.712
466.383
466.251
248.238
409.816
237.187
435.374
250.032
412.977
238.738
438.914
515.099
290.638
516.905
291.416
36.7678
80.8216
136.437
253.017
666.266
666.527
721.99
722.205
773.336
774.006
902.637
902.55
1328.36
768.637
1377.93
782.778
1319.37
752.799
1330.99
768.915
1379.87
783.561
1317.91
752.181
1326.96
749.928
1325.37
749.073
1298.95
736.77
1297.74
735.936
3.19546
27.9478
132.563
572.839
572.821
492.355
492.474
730.377
730.368
674.348
674.36
586.655
330.414
387.37
613.158
352.102
677.255
587.756
330.905
387.517
613.307
352.238
677.504
830.258
487.632
706.49
419.579
831.942
488.046
706.985
419.9
38.2982
96.7082
174.081
383.083
723.544
723.46
799.123
798.67
902.511
902.603
1397.23
798.736
786.916
1422.58
811.006
1353.08
787.662
1423.36
811.391
1355.16
1399.24
799.511
1420.41
1384.22
804.209
782.401
1422.82
1386.26
805.305
783.118
1365.56
771.52
1365.66
771.246
9.61654
66.1899
182.494
416.548
416.777
325.242
326.379
1004.39
574.706
655.848
1137.24
634.725
1178.28
1005.22
575.083
655.808
1137.51
634.997
1178.35
602.146
602.235
376.463
651.586
376.771
652
861.445
492.437
862.451
492.953
39.8445
115.159
225.828
618.779
618.865
686.77
686.764
743.999
744.018
887.221
886.561
1340.09
781.606
1426.29
814.494
1413.13
810.535
1340.37
1415.17
811.512
781.06
1427.41
814.976
1437.32
815.659
1436.09
819.505
1438.49
1438.39
820.458
815.958
26.3045
93.1118
145.843
216.375
216.03
181.554
180.716
1033.38
576.385
492.363
915.441
504.142
864.985
1034.52
576.945
493.033
916.257
504.861
866.196
315.443
212.553
362.119
247.274
316.738
212.875
362.902
247.638
893.976
500.008
895.009
500.587
41.2592
135.732
289.775
625.256
624.977
713.559
712.706
843.648
842.445
1396.85
802.833
744.274
1381.01
790.619
1265.11
1398.24
803.398
743.29
1379.75
790.273
1263.32
1457.63
1434.09
828.139
822.553
1436.28
823.355
1459.12
829.066
58.4532
132.257
446.801
298.855
296.898
445.187
425.079
424.753
350.158
311.851
193.817
349.103
313.809
194.509
872.733
480.237
293.432
524.993
314.894
450.604
873.887
480.801
293.962
525.447
315.391
451.519
344.345
198.725
346.182
199.543
42.3154
155.342
303.068
591.782
591.243
737.239
735.378
1182.84
702.292
1318.23
756.744
1334.41
769.813
1177.3
1330.67
768.06
698.659
1313.93
754.323
1435.34
816.046
1411.71
803.176
1437.24
816.844
1410.95
802.734
1463.58
831.841
1466.05
833.116
108.34
257.571
513.7
674.636
510.896
674.621
647.659
647.671
746.297
478.357
303.09
420.167
268.442
459.427
763.714
470.26
479.255
744.345
303.215
421.486
268.791
458.969
755.728
467.673
219.441
353.385
220.209
354.454
431.11
244.467
433.886
245.889
42.454
166.034
415.795
574.855
574.083
415.878
476.111
475.973
696.438
1186.59
694.173
695.218
1184.83
692.822
1385.38
1310.53
788.053
746.98
1381.97
786.242
1309.23
746.003
1439.62
821.628
1420.74
810.103
1441.23
822.148
1419.25
809.128
124.762
235.332
752.826
570.282
965.073
642.078
752.878
569.202
955.531
642.234
577.444
577.347
643.207
928.12
473.06
276.339
393.587
548.131
643.543
474.277
925.132
276.78
393.687
547.562
241.293
437.035
242.777
439.85
41.3056
186.439
405.388
535.026
534.077
405.154
458.098
457.578
944.028
1089.76
640.921
1152.88
676.134
562.46
829.845
523.322
940.522
1086.84
639.1
1150.93
674.685
560.96
823.877
519.72
1367.37
1278
777.892
730.413
1365.24
776.693
1277.01
729.604
94.4648
181.089
315.505
315.449
180.802
115.217
114.832
1115.24
637.703
1149.26
664.15
1088.46
647.558
1152.35
661.96
414.602
996.794
582.65
1116.09
637.459
1150.99
664.585
1085.76
648.958
1152.32
662.149
414.55
996.784
582.893
791.267
1053.28
484.058
612.153
789.238
1051.68
483.743
611.915
39.2934
160.425
342.228
523.703
485.51
792.162
523.429
486.563
794.555
340.839
417.329
413.323
1022.61
904.049
1183.94
596.903
684.468
531.104
1020.73
905.191
1182.07
683.404
595.952
531.753
1338.6
764.916
1337.55
764.083
20.901
229.354
140.247
229.001
139.927
93.8851
93.4735
1096.89
1141.11
656.119
638.958
1062.02
609.195
378.627
628.017
378.865
854.188
502.469
281.687
362.095
287.793
1097.12
1144.57
638.98
656.836
1060.97
608.377
627.891
375.135
377.931
854.935
501.52
278.844
359.879
285.466
33.5801
134.748
317.599
316.642
136.98
203.842
203.996
640.339
462.087
751.745
457.507
752.333
426.875
716.716
437.151
627.263
463.357
751.812
457.257
754.926
419.619
708.485
433.58
379.37
583.168
377.315
377.174
573.714
371.45
964.045
832.219
567.452
491.653
965.712
835.227
568.033
493.15
18.285
173.925
250.557
329.547
115.305
173.542
251.16
330.343
114.656
80.4856
79.9635
1068.69
614.017
934.52
532.982
430.254
365.927
689.197
396.052
269.488
245.316
1070.8
614.62
933.714
532.161
432.402
687.509
365.601
394.548
268.22
244.844
28.6881
159.074
261.106
259.313
159.462
187.635
187.723
793.482
740.935
474.191
441.02
661.555
399.809
795.928
736.554
475.16
439.167
653.717
396.537
460.421
491.147
317.891
532.847
345.415
301.31
436.257
335.511
455.466
488.103
315.927
525.087
340.139
298.585
428.703
330.204
20.9723
69.9918
69.8868
142.971
222.495
262.939
218.699
273.285
102.235
142.212
223.88
261.16
217.06
275.032
101.762
495.772
359.87
327.597
294.8
232.505
219.507
495.819
359.332
328.52
293.432
231.311
220.058
26.0259
137.64
241.961
275.273
355.086
240.129
275.203
353.701
138.575
172.522
173.214
686.954
417.085
585.752
354.54
680.081
414.891
579.86
352.303
460.188
377.496
525.453
279.702
322.52
238.424
459.117
372.23
523.114
321.72
279.029
236.309
7.69516
66.5192
63.2985
66.4635
63.3395
127.992
209.357
233.89
213.633
224.823
313.36
210.209
90.1216
127.155
210.759
231.145
211.302
225.521
309.232
207.972
89.8609
336.09
216.75
336.474
216.241
23.1654
127.041
127.501
230.658
270.769
354.534
275.446
349.088
229.845
270.658
345.492
269.146
347.148
161.433
161.686
388.149
466.114
353.12
247.046
289.757
223.382
386.397
465.525
345.811
289.627
246.375
220.729
10.8457
66.8495
77.0468
66.9029
77.2245
82.9317
82.7641
115.255
200.682
213.205
197.964
213.077
179.653
278.06
193.589
255.957
312.483
204.394
114.768
202.362
212.705
197.625
214.273
180.376
272.637
190.383
257.103
307.699
201.992
27.9235
110.169
108.379
110.992
109.584
221.425
259.967
345.351
269.48
329.368
330.946
211.616
220.499
262.158
339.167
265.014
331.769
325.749
209.756
137.948
138.726
355.011
229.552
352.242
228.838
10.7362
92.1625
95.377
92.2757
95.2983
98.0854
107.453
97.7908
107.29
105.502
104.928
187.376
204.734
192.336
198.263
176.48
243.922
176.818
245.959
179.197
278.809
188.638
259.387
188.398
203.568
191.294
198.959
178.055
243.842
177.072
247.972
179.003
271.975
185.527
259.095
33.9603
128.346
176.092
129.165
176.348
133.44
135.196
201.77
251.94
333.988
254.033
326.189
207.212
319.323
207.009
313.249
334.327
219.54
201.328
253.476
327.582
249.388
328.241
207.058
315.988
205.995
312.431
333.025
219.364
2.21579
96.2797
73.4619
96.1501
73.09
130.071
135.917
129.894
135.615
114.875
116.795
114.529
116.468
180.619
192.363
177.002
192.312
182.166
193.887
178.546
193.314
168.187
238.53
175.096
227.42
168.707
236.697
174.091
228.183
36.1186
215.207
220.45
215.239
220.703
153.434
223.922
154.399
223.604
194.128
194.976
239.942
320.793
248.888
296.007
214.974
324.342
214.63
324.346
221.616
321.735
216.104
317.489
242.706
315.989
245.106
300.247
214.874
322.31
214.14
324.122
222.761
321.542
216.692
318.139
20.1803
1.16689
133.286
97.5152
132.84
96.5946
134.404
148.993
134.359
148.801
180.758
198.184
175.639
198.142
181.663
202.566
180.755
199.392
183.103
200.863
177.716
201.107
183.786
203.115
180.902
201.526
166.202
224.956
162.488
227.842
167.437
227.292
164.278
229.343
37.6663
235.604
220.186
235.854
221.052
265.168
262.036
264.458
261.7
207.945
278.365
208.091
276.899
238.989
302.494
241.809
294.332
242.425
303.318
242.06
299.122
181.528
296.598
199.307
263.733
182.218
295.78
198.878
266.359
10.9713
91.5134
72.2459
91.371
72.7314
1.20344
151.204
124.243
150.941
123.52
182.28
211.213
180.822
209.718
187.906
225.853
188.569
220.358
184.721
212.44
181.329
213.047
190.035
224.048
186.796
223.128
163.907
231.398
163.81
228.288
163.546
231.564
164.994
226.992
166.703
235.454
166.497
232.625
165.617
232.321
165.487
230.072
40.2014
187.032
267.103
287.614
266.811
287.43
327.021
319.631
323.949
317.172
247.061
308.984
245.641
316.182
262.003
424.385
285.782
354.793
248.564
308.389
244.913
318.062
262.977
416.347
280.675
355.418
181.042
273.909
189.772
260.259
182.101
276.255
190.459
263.529
4.6721
77.8882
63.403
78.0825
63.7956
140.988
116.463
140.922
117.093
1.1454
188.844
230.818
190.29
226.446
184.431
221.709
206.566
207.878
190.222
228.675
188.394
227.956
185.738
219.21
204.428
208.97
163.334
234.141
164.307
235.755
171.152
270.151
181.651
251.851
166.445
236.032
165.323
241.188
174.029
266.132
179.269
256.967
41.4485
187.14
377.142
390.32
375.957
389.456
318.365
328.204
315.903
325.807
309.032
477.002
305.873
480.767
302.408
457.026
303.313
458.368
304.412
463.438
297.744
472.547
299.493
444.601
296.312
451.984
215.084
288.903
199.572
313.537
248.766
440.521
270.671
383.187
214.954
289.483
199.566
314.185
247.596
435.101
268.445
380.697
22.6255
4.01171
110.088
79.2648
110.052
78.9981
210.215
251.357
175.331
211.767
184.061
201.892
215.451
206.849
199.645
182.583
207.583
245.327
172.498
208.016
179.693
198.884
211.96
202.184
196.726
178.247
1.48824
182.581
277.67
185.334
272.469
177.451
252.578
183.052
273.024
182.728
272.838
177.539
252.289
170.546
268.54
176.717
254.208
171.961
262.881
173.616
257.424
42.2797
162.779
435.039
453.629
434.687
453.575
461.552
455.546
459.742
453.112
298.935
452.808
302.175
439.702
304.438
497.152
353.969
446.277
296.233
440.123
294.697
434.357
303.019
484.79
346.074
441.645
303.619
500.732
295.121
517.535
293.436
477.083
286.204
492.497
299.389
491.172
291.229
506.504
289.96
465.343
282.518
481.906
19.1458
80.9201
81.1374
81.1179
81.8282
4.76271
141.89
118.567
141.288
118.163
257.52
238.082
176.239
169.56
243.541
171.051
235.416
191.803
236.938
169.672
249.88
234.888
171.951
167.016
237.193
166.782
227.891
188.061
230.366
165.275
2.0115
174.789
274.994
179.014
268.634
170.352
257.854
174.466
269.286
175.887
268.083
170.026
257.262
42.2171
147.766
318.506
486.556
525.092
485.633
524.739
649.173
583.894
384.068
665.748
400.954
350.248
650.322
419.007
662.011
405.431
574.781
649.087
383.795
665.96
400.142
345.956
643.385
414.429
659.539
402.995
283.141
467.906
279.761
474.332
299.09
504.813
280.483
458.753
276.407
467.465
295.986
496.21
302.602
481.36
297.492
497.116
301.561
473.025
296.732
488.166
19.7742
72.4188
104.97
73.1649
104.599
138.833
140.79
139.021
140.782
4.72813
176.72
203.03
166.873
203.2
175.976
214.812
202.473
197.689
176.601
200.242
164.84
202.528
176.661
213.869
199.727
197.73
256.812
172.419
234.8
168.541
239.265
167.06
249.325
168.196
226.131
164.258
232.735
163.252
1.62354
41.5418
128.174
285.213
623.413
625.399
622.512
625.027
580.296
601.759
579.091
600.195
604.988
677.606
390.905
351.433
717.767
414.52
746.098
442.453
725.419
423.957
604.327
684.113
351.446
393.825
723.507
417.337
743.514
441.569
727.053
424.644
298.379
479.131
293.229
491.032
317.151
532.041
297.344
472.536
291.943
487.121
316.726
530.452
72.4192
11.7969
120.625
137.378
121.53
136.996
214.231
205.202
164.55
223.151
178.343
175.286
259.846
217.271
241.931
188.257
215.837
201.558
161.696
226.081
175.988
172.557
263.485
214.183
245.795
186.735
3.9825
158.451
223.864
164.543
221.133
153.342
213.547
158.074
221.398
163.334
220.273
153.233
213.522
1.27034
40.5415
108.953
219.057
650.209
654.895
650.051
654.948
713.084
703.344
711.565
701.823
520.289
840.992
494.443
883.933
541.545
922.085
554.282
922.818
518.058
838.524
492.835
880.389
539.399
916.432
550.458
919.585
630.018
366.254
772.266
456.839
751.958
444.869
634.012
368.042
770.793
456.314
754.513
445.972
40.5028