/*--------------------------------*- C++ -*----------------------------------*\
| =========                 |                                                 |
| \\      /  F ield         | OpenFOAM: The Open Source CFD Toolbox           |
|  \\    /   O peration     | Version:  5.x                                   |
|   \\  /    A nd           | Web:      www.OpenFOAM.org                      |
|    \\/     M anipulation  |                                                 |
\*---------------------------------------------------------------------------*/
FoamFile
{
    version     2.0;
    format      ascii;
    class       volScalarField;
    location    "2.2";
    object      p;
}
// * * * * * * * * * * * * * * * * * * * * * * * * * * * * * * * * * * * * * //

dimensions      [1 -1 -2 0 0 0 0];

internalField   nonuniform List<scalar> 
12160
(
5250.1
5284.6
4595.83
5303.72
4630.27
3941.55
5329.31
4649.32
3975.79
3286.74
5356.78
4674.89
3994.6
3320.77
2632.29
5386.25
4702.28
4020.07
3339.36
2665.89
1977
5418.45
4731.64
4047.25
3364.81
2683.91
2010.18
1322.62
5453.63
4763.76
4076.37
3391.73
2709.24
2027.74
1354.97
666.911
5491.6
4798.93
4108.32
3420.47
2735.71
2053.32
1371.63
701.602
173.696
5531.59
4837.01
4143.47
3452.13
2763.93
2079.23
1397.03
716.502
191.889
0.861617
5572.38
4877.2
4181.77
3487.24
2795.15
2106.73
1422.28
741.7
198.598
1.03801
-6.60156
5612.61
4918.25
4222.41
3525.86
2830.15
2137.32
1448.87
766.421
212.27
1.07917
-6.74347
-7.46241
5651.25
4958.7
4263.99
3567.18
2869.21
2172.1
1478.53
792.416
227.87
2.60523
-6.80302
-7.48521
-8.20135
5687.77
4997.47
4304.9
3609.6
2911.49
2211.71
1512.92
821.269
244.641
6.15598
-6.80841
-7.49941
-8.20891
-8.78874
5722.08
5034.03
4343.93
3651.23
2955.11
2255.29
1553.17
855.116
263.86
10.5066
-6.78535
-7.50241
-8.16616
-8.79521
-9.51318
5754.29
5068.32
4380.58
3690.66
2997.76
2300.56
1598.4
895.962
287.838
15.8381
-6.74652
-7.52292
-8.15092
-8.81027
-9.51875
5784.46
5100.56
4414.88
3727.38
3037.72
2344.63
1645.74
943.087
318.807
23.0623
-6.68344
-7.49973
-8.13904
-8.81886
-9.49167
5812.4
5130.85
4447.2
3761.58
3074.5
2385.33
1691.44
993.154
356.3
33.3629
-6.56412
-7.48382
-8.12612
-8.83341
-9.47685
5837.48
5159
4477.82
3793.91
3108.52
2422.14
1732.77
1041.08
397.492
46.9603
-6.35665
-7.48941
-8.11535
-8.82722
-9.46447
5858.02
5184.22
4506.67
3824.86
3140.86
2455.65
1769.3
1083.25
437.44
63.0563
-5.67838
-7.48271
-8.09002
-8.82018
-9.45844
5872.67
5205.66
4533.04
3854.45
3172.35
2487.6
1802.19
1119.26
472.391
80.1138
-4.36681
-7.49541
-8.12336
-8.83842
-9.45619
5879.71
5220.9
4555.15
3881.07
3203.47
2519.45
1833.85
1150.84
501.236
95.7694
-2.5664
-7.50213
-8.16777
-8.81687
-9.43701
5878.03
5228.42
4571.46
3906.15
3235.27
2551.64
1866.25
1180.94
526.216
108.545
-0.71816
-7.50866
-8.20857
-8.81914
-9.46681
5866.6
5227.07
4579.93
3924.21
3259.18
2582.15
1900.48
1212.71
550.651
119.517
0.885436
-7.48216
-8.20589
-8.81397
-9.48214
5845.59
5215.78
4579.25
3934.2
3279.36
2613.05
1936.2
1248.31
579.114
130.934
2.26883
-7.42748
-8.20128
-8.83873
-9.50169
5815.62
5194.71
4568.27
3934.57
3291.45
2636.75
1968.72
1286.47
613.895
145.411
3.81155
-7.36624
-8.18836
-8.84338
-9.48937
5777.81
5164.48
4547.06
3924.06
3293.33
2651.74
1996.39
1325.42
654.031
165.184
5.92136
-7.31415
-8.17177
-8.83681
-9.48812
5733.73
5126.25
4516.3
3902.67
3283.52
2655.68
2015.12
1358.6
696.356
190.727
9.21919
-7.26617
-8.15926
-8.82739
-9.48544
5685.13
5081.65
4477.24
3871.1
3261.87
2646.84
2021.79
1382.11
734.417
219.797
14.273
-7.16055
-8.15967
-8.82001
-9.48244
5633.76
5032.48
4431.57
3830.72
3229.16
2624.85
2014.35
1392
762.477
247.612
20.687
-6.93385
-8.17466
-8.81542
-9.48017
5581.25
4980.53
4381.22
3783.41
3186.95
2590.61
1991.93
1386.14
776.136
269.494
27.5372
-6.54447
-8.2077
-8.81527
-9.48034
5529.01
4927.47
4328.11
3731.27
3137.36
2545.97
1955.69
1363.33
772.726
281.441
33.5885
-6.0101
-8.23167
-8.82748
-9.48622
5478.18
4874.71
4273.97
3676.36
3082.72
2493.38
1907.9
1325.14
750.757
280.657
37.2273
-5.44276
-8.24987
-8.86203
-9.49692
5429.72
4823.38
4220.26
3620.54
3025.35
2435.46
1851.2
1273.61
712.157
265.91
37.0837
-5.05589
-8.26392
-8.89222
-9.49698
5384.21
4774.37
4168.14
3565.28
2967.33
2374.87
1789.14
1212.03
659.851
239.466
32.2571
-5.04182
-8.27512
-8.91827
-9.5011
5342.44
4728.69
4118.56
3511.64
2910.21
2313.93
1724.68
1144.53
598.648
205.208
24.7161
-5.42452
-8.28679
-8.93731
-9.50722
5304.71
4686.61
4071.87
3460.48
2855.02
2254.3
1660.55
1075.11
533.409
166.912
16.5364
-6.00802
-8.2911
-8.94759
-9.51402
5271.13
4648.67
4029.19
3413.08
2802.53
2196.67
1598.32
1007.34
469.227
129.257
9.12335
-6.57159
-8.28804
-8.9477
-9.51904
5241.72
4614.98
3990.78
3369.52
2753.09
2141.74
1538.26
943.029
409.715
95.5247
3.2748
-6.97771
-8.27526
-8.93583
-9.51953
5216.28
4585.53
3956.83
3330.51
2708.2
2090.73
1480.7
881.682
357.685
68.0889
-0.784783
-7.22316
-8.25266
-8.91258
-9.51577
4560.13
5180.37
3927.29
3296.2
2668.25
2044.22
1426.63
823.14
311.868
47.6481
-3.2281
-7.36363
-8.23241
-8.88053
-9.51043
3901.95
4524.37
5147.3
3266.56
2633.44
2003.15
1377.95
768.163
271.133
33.0763
-4.59417
-7.43429
-8.2096
-8.83911
-9.50759
3241.33
3866.48
4491.65
5128.69
2603.68
1967.75
1335.57
719.863
235.823
22.4748
-5.38713
-7.46145
-8.18148
-8.81483
-9.50908
2578.62
3206.38
3834.46
4473.59
5115.82
1937.85
1299.71
678.917
207.003
15.0081
-5.8604
-7.47229
-8.15576
-8.8077
-9.50597
1913.06
2544.4
3175.43
3817.42
4460.96
5108.59
1269.96
645.259
184.717
10.0894
-6.13986
-7.46991
-8.13186
-8.80961
-9.49698
1245.8
1879.92
2514.89
3159.93
3805.55
4454.47
5101.82
618.164
167.71
7.03203
-6.31907
-7.44869
-8.10831
-8.81183
-9.48431
596.832
1214.29
1852.23
2501.34
3149.15
3800.85
4447.27
5091.89
154.831
5.18392
-6.43166
-7.42073
-8.09581
-8.81354
-9.47338
145.012
570.524
1189.15
1841.06
2492.29
3145.97
3794.11
4438.81
5072.35
4.00771
-6.50576
-7.40665
-8.08651
-8.79786
-9.46254
3.1215
133.304
551.041
1180.76
1833.76
2491.62
3140.35
3785.2
4413.1
5053.38
-6.55734
-7.40162
-8.0831
-8.78851
-9.46201
-6.59501
2.20201
126.059
546.718
1176.08
1835.74
2488.98
3133.57
3759.35
4397.66
5006.52
-7.40022
-8.08477
-8.78269
-9.46123
-7.39821
-6.62768
2.15074
125.967
545.662
1180.89
1835.78
2483.79
3103.01
3729.47
4326
5088.8
-8.08626
-8.77978
-9.46164
-8.08607
-7.39545
-6.59886
2.72368
128.154
553.097
1185.68
1836.44
2452.98
3041.59
3659.88
4423.15
4578.51
5404.23
-8.77795
-9.46292
-8.77612
-8.08317
-7.37293
-6.50625
3.92172
133.645
563.853
1190.85
1806.93
2366.63
2962.46
3710.85
4023.52
4297.42
5038.33
5699.51
-9.46383
-9.46413
-8.77251
-8.06266
-7.30936
-6.29568
5.22392
143.074
576.667
1170.07
1724.82
2291
2961.15
3429.05
3830.76
4119.68
4746.56
5449.09
6068.33
-9.46358
-8.75845
-8.01044
-7.18268
-5.90836
7.97903
154.715
576.427
1099.6
1621.88
2242.09
2855.4
3373.06
3650.94
3933.3
4543.96
5184.99
5870.78
6518.28
-9.45822
-8.7244
-7.92016
-6.97723
-5.31196
12.5458
169.766
511.057
1025.1
1631.63
2322.83
2893.49
3203.88
3487.43
3750.28
4315.39
4942.78
5621.52
6342.31
7082.94
-9.44565
-8.66872
-7.80411
-7.03768
-4.37973
19.1308
124.325
472.031
1119.67
1799.92
2402.48
2793.03
3053.15
3349.11
3551.27
4072.76
4664.25
5350.21
6100.05
6908.81
7777.8
-9.42622
-8.62656
-8.04229
-7.15751
-3.50672
10.8392
94.7195
601.751
1264.02
1893.12
2379.65
2661.35
2917.61
3191.82
2638.21
3805.29
2641.88
2553.66
2556
4358.12
5011.96
5794.95
6651.3
7592.03
8616.19
-9.41783
-8.82665
-8.55801
-7.0262
-3.92411
1.48757
160.401
739.081
1382.87
1946.88
2282.86
2524.48
2798.74
3008.65
2712.34
2548.85
3991.91
2717.22
2787.44
2791.34
2550.86
2431.28
2432.67
4603.87
5387.54
6309.83
7309.98
8408.57
9599.32
-9.50979
-9.30814
-8.75966
-6.9804
-5.43649
0.289639
232.562
852.576
1459.02
1883.75
2153.33
2412.76
2669.6
2293.73
2292.06
2159.47
2161.06
2622.45
2482.74
4123.59
3659.4
2624.91
2680.76
2683.34
2474.52
2401.19
2394.37
4866.25
5833.98
6931.2
8096.77
9368.42
10708.7
-9.74512
-9.63172
-8.39297
-6.93849
-6.02407
5.55516
290.064
918.874
1444.24
1764.92
2035.51
2308.14
2021.14
2022.47
1893.13
1894.51
2218.7
2215.29
2093.6
2089.83
2542.82
2136.37
2033.69
2159.51
2012.55
4250.14
3658.45
2588.65
2589.51
2606.15
2603.08
2535.22
2592.01
2585.13
2134.16
2033.99
2156.32
2012.09
2111.58
1902.19
2111.94
1973.77
2109.83
1904.66
2109.51
1972.67
5202.05
6399.47
7678.52
9026.64
10464.3
11903
-10.0901
-9.29931
-8.0881
-7.01326
-6.16828
12.8806
345.83
914.685
1321.38
1634.34
1923.33
1760.77
1761.63
1617.78
1618.54
1976.56
1971.04
1855.69
1848.78
1858.55
1920.06
1936.63
1777.37
1881.3
2008.09
1919.42
1860.03
1936.59
1780.1
1881.68
2007.71
1679.17
1790.92
1731.97
1841.36
1679.89
1790.54
1733.12
1841.2
2196.55
2053.61
2179.77
2069.96
2065.28
2064.86
2084.21
2040.82
4427.8
3599.26
2458.82
2460.75
2532.57
2533.93
2447.37
2441.53
2477.24
2473.14
2194.29
2053.46
2176.67
2068.5
2218.15
2056.02
2278.53
2081.09
2215.72
2059.75
2275.97
2080
2066.09
2068.36
2084.93
2044.55
2047.87
2000.32
2047.78
2001.08
5681.65
7116.14
8570
10090.4
11653.5
13101.3
-9.81103
-8.97769
-7.95131
-7.13719
-6.45515
23.7879
327.827
801.272
1186.08
1514.88
1457.3
1457.53
1322.6
1322.96
1727.76
1721.19
1588.53
1581.8
1623.86
1728.31
1574.7
1681.35
1624.46
1727.84
1578.87
1681.42
1473.91
1579.48
1530.14
1634.96
1479.34
1579.83
1533.46
1634.77
1942.63
1847.73
1895.51
1979.7
1814.51
1849.6
1944.08
1850.93
1980.11
1896.19
1816.5
1850.36
1718.33
1751.04
1761.55
1792.7
1720.48
1751.63
1762.42
1793.06
2127.76
2092.64
2113.65
2101.6
2050.11
2037.99
2057.86
2032.17
4760.45
3565.99
2319.85
2321.19
2387.52
2388.55
2284.87
2276.46
2362.92
2355.64
1975.25
2103.57
2011.58
2137.43
1978.3
2103.8
2014
2137.62
2052.93
2098.47
2137.18
2036.99
2158.91
2193.61
2057.62
2097.62
2138.28
2038.83
2159.02
2193.35
2128.36
2095.59
2114.28
2104.59
2142.33
2094.41
2142.77
2096.33
2050.64
2040.94
2059.16
2032.08
2021.14
1988.55
2020.58
1987.6
6342.69
7988.49
9601.04
11252.8
12869.9
14225.3
-9.76701
-8.81278
-7.98017
-7.24281
-6.5087
16.2187
274.105
668.837
1039.01
1155.55
1156.18
979.812
979.994
1424.81
1421.6
1277.93
1277.29
1418.47
1522.38
1362.45
1467.4
1420.7
1521.78
1366.39
1466.93
1239.51
1387.47
1309.5
1416.78
1241.35
1385.91
1312.27
1415.91
1670.17
1704.48
1617.83
1646.17
1671.62
1704.92
1619.18
1646.8
1515.93
1533.33
1566.87
1588.14
1519.06
1534.45
1567.19
1588.7
2106.77
2070.3
2090.99
2085.92
5341.61
3718.32
2294.38
2295.89
2282.08
2282.9
2106.13
2097.06
2207.62
2199.29
1785.59
1905.92
1836.03
1965.3
1791.87
1906.33
1842.85
1966.38
1919.24
2037.14
1877.28
2000.25
1923.06
2037.74
1885.05
2001.36
2008.46
2037.28
2042.72
2078.18
2012.27
2038.55
2044.96
2079.09
2061.98
2068.77
2120.03
2101.04
2047.65
2092.99
2065.58
2071.8
2120.96
2102.28
2049.26
2093.51
2106.34
2071.17
2091.31
2084.11
2112.76
2081.22
2112.42
2080.23
7200.5
8996.89
10736.2
12469.8
14025.7
15244.6
-9.65625
-8.79575
-8.01791
-7.31132
-6.32651
4.20479
205.971
528.995
856.241
1105.37
1105.49
903.669
904.012
1381.61
1380.18
1248.74
1246.17
1461.68
1480.22
1402.18
1422.7
1463.75
1481.12
1404.09
1423.45
1249.58
1317.64
1340.6
1370.28
1249.95
1317.53
1341.41
1370.63
1489.77
1520.08
1495.46
1521.77
6199.8
4244.48
2458.83
2461.57
2337.28
2339.22
2035.09
2032.06
2054.97
2048.09
1580.42
1749.2
1636.31
1759.41
1578.64
1745.86
1639.05
1758.3
1750.98
1869.42
1694.15
1820.57
1753.99
1868.92
1699.57
1820.31
1819.87
1839.06
1881.61
1901.08
1825.41
1841.15
1884.61
1902.6
1956.77
1983.95
1923.36
1942.85
1960.93
1985.46
1927.45
1944.81
8217.64
10122.1
11938.9
13669.9
15079.7
16171.6
-9.60228
-8.78455
-8.03799
-7.32994
-6.31044
-2.1481
127.047
388.293
686.179
687.324
491.365
491.982
1088.78
1084.64
883.379
885.335
1207.33
1197.64
1255.97
1131.07
1206.83
1196.67
1255.81
1130.44
1144.78
999.995
1079.04
1067.62
1144.1
1002.3
1078.61
1067.12
1453.59
1476.42
1393.27
1412.21
1458.05
1478.05
1396.16
1413.33
1273.43
1293.25
1331.6
1350.91
1275.92
1294.18
1333.23
1351.74
7262.87
5143.36
3287.56
2155.3
2158.38
2078.92
2076
1839.79
1838.02
1879.4
1871.91
1593.05
1670.26
1660
1716.08
1592.08
1669.12
1661.39
1716.39
1759.41
1783.58
1724.06
1754
1763.64
1785.19
1726.45
1754.99
1784
1806.08
1792.82
1808.89
9372.93
11317.3
13169.9
14769.8
16030.3
16917.5
-9.5653
-8.77637
-8.02327
-7.30402
-6.35888
-3.99956
63.3114
278.625
666.839
664.142
439.605
437.55
917.808
995.245
937.885
824.817
920.275
994.748
936.298
825.091
870.153
867.509
1165.84
1209.43
1224.29
1156.95
1165.9
1210.94
1224.72
1156.43
1110.65
1027.37
1046.23
1098.3
1110.32
1028.04
1046.51
1097.79
1264.76
1283.63
1269.48
1285.07
8490.31
6275.08
4278.7
2503.66
2505.46
2063.54
2071.19
1907.47
1909.31
1907.31
1891.11
1641.01
1523.63
1642.4
1531.98
1641.52
1534.39
1644.74
1535.19
1644.62
1542.33
1613.19
1540.22
1643.78
1539.88
1611.86
1539.21
1593.23
1632.67
1646.73
1683.51
1596.18
1633.24
1649
1684.51
1730.94
1753.31
1708.59
1736.65
1736.44
1755.31
1712.19
1737.98
10598.5
12540.2
14320.1
15754.7
16802.6
-9.53123
-8.75472
-7.984
-7.24121
-6.38122
-2.98398
24.1083
239.386
239.099
100.286
100.29
580.534
631.653
473.674
547.123
580.626
630.512
475.262
546.412
418.747
418.317
944.756
967.33
889.511
832.958
945.43
967.566
889.483
833.918
675.902
732.46
760.51
807.148
675.783
731.174
759.265
806.005
1094.81
1008.08
1024.92
1076.1
1095.16
1011.1
1025.75
1078.25
9803.07
7580.27
5546.91
4153.48
2575.64
2570.04
2177.24
2175.24
2014.64
2005.19
1539.34
1670.11
1767.99
1569.2
1545.81
1671.55
1764.18
1563.78
1661.74
1615.94
1665.2
1621.76
1662.83
1623.01
1667.76
1625.08
1652.69
1585.88
1615.82
1617.47
1652.71
1587.21
1615.96
1617.32
1596.71
1642.34
1601.85
1643.48
11833.3
13733.8
15358.7
16562.7
-9.49932
-8.72033
-7.9195
-7.0188
-6.2239
-3.46449
14.4468
14.4459
4.50587
4.50783
223.84
223.53
82.2631
82.0015
585.412
600.281
470.148
507.542
585.804
600.437
472.078
508.125
410.213
296.573
337.456
385.386
410.642
298.155
337.465
386.588
941.181
956.015
876.777
858.41
941.683
956.321
876.669
858.253
689.185
701.429
764.842
776.119
689.039
701.193
763.737
775.706
11105.8
9009.21
6936.21
5635.51
3806.05
3807.94
3300.02
3297.52
2812.84
2812.54
1932.08
2037.74
1995.84
2245.72
1938.52
2040.16
2005.85
2247.95
1881.5
1971.94
1829.88
1904.26
1646.71
1821.76
1892.66
1974.96
1837.93
1906.72
1650.93
1821.34
1632.53
1717.66
1639.34
1720.09
1693.66
1665.11
1712.52
1645.06
1695.53
1674.98
1715.59
1651.06
13066.5
14825.4
16184
-9.47045
-8.66684
-7.7923
-6.81503
-6.17906
-3.2241
18.3913
18.3341
6.91153
6.91701
226.727
317.469
245.536
141.434
154.561
341.005
318.272
227.443
341.255
245.738
142.253
154.806
48.5649
54.6475
89.5587
96.3373
48.932
54.8043
89.9856
96.4351
575.796
586.543
483.883
497.194
577.197
587.091
485.855
498.031
415.155
402.63
415.567
403.641
855.903
837.054
855.655
836.501
664.865
677.876
666.448
678.29
12367.4
10420.5
8475.23
7050.67
4918.19
4922.89
4349.93
4349.09
4106.73
4102.48
3587.89
3588.95
2679.05
2594.33
2916.62
2537.92
2419.64
2199.18
2682.51
2613.38
2921.63
2546.34
2421.58
2205.43
2151.98
2224.09
2157.41
2226.36
2072.82
2124.85
1974.94
1783.02
2016.4
1846.61
2082.68
2127.64
1981.19
1792.88
2018.81
1849.52
1728.7
1779.85
1737.92
1783.08
14170.9
15656.2
-9.43945
-8.57805
-7.63998
-6.72909
-6.20446
1.38593
1.38108
-3.8542
-3.85891
28.0013
27.9258
10.9688
10.9563
305.719
204.712
224.424
316.811
148.135
149.023
307.026
205.275
317.235
224.783
148.4
149.279
65.9612
70.5344
107.736
109.776
66.0915
70.5605
107.832
109.798
475.09
489.902
476.954
490.637
13491.3
11751.9
9980.21
8557.69
7709.52
5215.86
5213.21
4668.29
4656.1
3672.97
4106.88
3574.47
3806.75
3694.39
4110.83
3589.2
3811.91
3183.9
2825.26
3367.52
3371.69
3576.31
3057.13
3199.77
2837.67
3373.28
3393.12
3582.81
3061.44
2808.57
2501.19
2747.97
2448.58
2810.67
2503.86
2753.17
2455.05
2332.76
2364.91
2338.91
2367.44
2196.39
2232.91
1882.12
1921.67
2206.15
2235.86
1890.21
1924.56
15032.6
-9.39981
-8.47739
-7.45451
-6.71736
-6.22674
2.8361
2.84062
-2.67329
-2.67291
30.4457
45.269
51.3878
25.943
30.3948
45.2418
51.3911
25.8794
16.1852
16.1738
78.2705
81.5863
116.68
115.184
78.1061
81.5423
116.712
115.162
14392
12910
11402.6
10050.2
9184.26
6772.37
6783.51
6125.99
6124.8
5544.58
5545.2
5029.86
5023.46
3957.48
4252.06
3858.99
3932.99
3970.07
4255.52
3867.12
3936.25
3048.97
3418.28
3160.02
3504.43
3644.83
3715.01
3063.7
3430.03
3508.07
3165.12
3653.23
3718.24
2638.64
2606.96
2641.17
2614.13
-9.35923
-8.36113
-7.22497
-6.36859
-3.52867
-3.52165
-3.89057
-3.89605
2.46926
2.50324
-2.14325
-2.12985
38.0497
56.6292
63.5475
32.1964
37.9814
56.2176
62.9943
32.1257
9.40646
10.3091
23.063
24.2791
9.50612
10.3638
22.8045
24.2002
82.7068
87.3378
82.3492
86.9301
13832.6
12610.3
11492.8
10619.1
10146.6
7023.91
7022.48
6554.4
6540.14
5962.18
5952.03
4958.78
4374.11
4605.6
4475.64
4957.11
4374.33
4606.67
4473.08
4243.91
4334.78
4051.19
4114.96
4255.43
4338.44
4058.63
4117.47
-9.29167
-8.24292
-7.0344
-5.30955
-2.37327
-2.35906
-2.92275
-2.91561
10.287
11.4996
1.12695
4.47796
4.61028
1.04959
10.1731
11.4841
1.14441
4.49731
4.62862
1.0768
-0.83022
-0.818268
44.8693
60.7411
66.9208
40.3058
44.2034
59.9545
66.1454
39.6173
23.4016
25.979
23.0059
25.6929
13537
12731.7
12026.5
11527.6
8711.25
8725.5
7950.25
7951.43
7221.03
7233.41
6897.46
6880.48
5196.24
5733.76
5147.35
5377.96
4736.5
5075.72
5230.98
5739.31
5164.07
5383.96
4737.89
5077.02
4672.79
4743.21
4678.68
4745.25
4469.96
4531.58
4480.11
4534.24
-9.31082
-8.08307
-7.06222
-3.03198
-3.03328
-4.1689
-4.17867
-0.933135
-0.926844
-1.79583
-1.78653
9.7269
10.3533
2.35655
6.27444
6.09208
2.30543
9.66445
10.3014
2.37623
6.31555
6.12641
2.34642
-0.327519
-0.405115
1.34693
1.17982
-0.319902
-0.399814
1.36677
1.18674
13655.1
13236
12891
12596.7
8942.41
8938.94
8415.52
8397.36
7760.98
7754.88
5484.08
5845.1
6590.85
5884.43
6185.22
6004.43
6586.84
5890.09
6187.13
6002.18
5500.34
5849.57
5419.4
5017.61
5519.38
5112.13
5432.08
5034.05
5524.32
5117.77
4840.56
4901.37
4853.36
4905
-9.2471
-8.3985
-7.52847
-1.82435
-1.85472
-4.87183
-4.85948
0.625865
0.565779
0.455754
0.817333
0.739981
0.445117
0.631355
0.567948
0.454918
0.817473
0.740292
0.443615
0.316879
0.308677
3.48722
3.95738
3.5073
3.99156
3.3088
3.12454
3.32364
3.13053
14186
14069.2
13921.4
10575.6
10582.7
9847.86
9846.94
9173.1
9173.19
8688.11
8675.36
6705.62
7350.7
6632.46
6934.77
6236.62
6658.45
6740.2
6243.12
6660.42
7358.04
6650.34
6941.7
5780.27
5919.05
6158.51
6312.36
6168.3
5792.68
6315.47
5922.19
-9.49857
-9.38214
-9.52451
-2.77866
-2.84374
-4.96916
-5.02816
1.80897
1.65808
1.10698
1.83706
1.79009
1.10837
1.8136
1.65915
1.10674
1.84446
1.79305
1.10973
0.564172
0.606263
1.32118
1.37825
0.578233
0.612135
1.33485
1.38453
2.58097
2.78943
2.57362
2.78376
14991.2
15047.6
14956
10837.5
10834.1
10259.1
10240.2
9535.9
9534.76
6970.81
7406.18
8167.99
7387.57
7710.48
7491.43
6990.29
7412.92
8167.49
7386.97
7711.65
7490.44
6905.57
6514.43
7032.89
6697
6531.67
6702.18
6913.51
7036.14
-9.3313
-16.9671
-0.932724
-2.18234
-2.52116
-1.05456
-6.68797
-7.02482
-0.782533
-0.223096
-0.372255
-0.772083
-0.219631
-0.370826
2.28887
2.29085
1.89237
2.34307
2.34611
1.90796
2.29347
2.29338
1.89755
2.35237
2.34986
1.91899
1.38028
1.50959
1.42343
1.52318
15952.2
15971.1
15681.1
11112.3
11114.8
10432.3
10424.9
8170.45
8911.08
8047.46
8359.83
7655.05
8111.6
8208.69
7655.85
8113.22
8920.8
8067.63
8367.59
7212.19
7350.67
7560.34
7677.41
7233.31
7358.06
7572.87
7682.13
7073.28
7183.45
7089.26
7188.7
-12.664
-8.97654
0.914588
-4.3854
1.28721
-4.39814
-6.1623
-6.13036
-4.65698
-4.02491
-3.11854
-1.49701
-1.28738
-5.64954
-1.63345
-1.51148
-3.88061
-4.13204
-2.99033
-1.46927
-1.24982
-5.22544
-1.38026
-1.32169
2.33448
2.361
2.35025
2.39384
0.413599
0.972231
0.412566
0.95357
16831.6
16620.5
12385.5
11087.8
11071.3
12398.8
11693.1
11694.7
10371.6
8257.78
8824.19
10377
8281.7
8831.78
7807.61
8214.9
7908.71
8339.62
7827.02
7915.66
8229.68
8345.34
7349.33
7435.71
7634.4
7743.05
7370.53
7442.53
7655.16
7748.67
-10.376
-9.3704
-3.64605
-1.68108
-1.64371
-7.52033
-3.51978
-1.4163
-1.17333
-7.44912
-7.86519
-7.84329
-3.93735
-5.29718
-5.12604
-3.93443
-3.6401
-6.15454
-3.62316
-5.10378
-4.87826
-3.90504
-3.26325
-5.84616
2.76978
2.61634
2.77662
2.64255
17464.5
16919.1
12300.3
11034
11027.2
12306.6
11774.6
11762.3
8684.01
8148.24
8619.74
8262.8
8777.95
8989.93
8795.22
9534.05
8708.99
8178.44
8632.71
8289.02
8787.52
9000.04
8835.97
9543.83
7935.4
8181.1
7978.79
8318.78
7942.9
7982.32
8201.41
8326.26
-9.83475
-7.08937
-7.92656
-7.9195
-7.08737
-7.13835
-7.14737
-5.06698
-3.71816
-3.83117
-4.06319
-3.37754
-5.64253
-4.74991
-5.00739
-7.19154
-5.68992
-6.05577
-5.08812
-3.61068
-3.72499
-4.00957
-3.16771
-5.64042
-4.70006
-4.98619
-7.17562
-5.67793
-6.04247
-3.48514
-4.88972
-4.13111
-5.22078
-3.19636
-4.65839
-4.02896
-5.06253
17791.1
16999
12321.6
10969.7
9352.8
8738.14
10975.2
9357.06
8748.63
12323.7
11759.8
11735.5
8397.53
8671.34
8090.18
8546.56
8293.77
8895.62
8427.78
8678.55
8115.23
8303.31
8558.01
8899.09
8023.27
8103.03
8037.44
8107.51
-9.75267
-7.13241
-6.84533
-7.11679
-6.84851
-7.04889
-7.06193
-4.26931
-4.77007
-4.85239
-4.38152
-5.25062
-5.38171
-5.64354
-5.55253
-5.83637
-5.46346
-5.83992
-5.94968
-5.87198
-6.31974
-4.17234
-4.72587
-4.23897
-4.7624
-5.22102
-5.34946
-5.55784
-5.63225
-5.83859
-5.48478
-5.84691
-5.94515
-5.85886
-6.31214
17829.8
13045.8
12200.4
12173.2
13067.8
12650.8
12635.4
9298.2
9253.42
8606.49
9146.98
8706.82
10059.6
9127.86
9511.3
9348.72
9258.19
8625.2
9154.21
8717.24
10072.1
9159.27
9522.29
11496.1
9223.61
9860.08
11489
9266.96
9874.41
8441
8623.56
8579.07
8867.37
8462.86
8628.1
8586.52
8870.37
-9.68222
-6.73344
-5.93702
-5.62766
-6.7367
-6.71262
-5.93311
-5.6195
-6.73973
-6.96887
-6.9858
-5.16038
-5.22005
-5.36426
-5.55833
-5.3364
-5.40954
-5.3739
-5.53712
-5.47284
-5.62271
-5.15919
-5.2502
-5.38424
-5.56605
-5.36097
-5.38916
-5.39931
-5.54237
-5.47904
-5.61807
17753.9
12964.7
12102
12073.2
12973.7
12532.1
12519.3
8543.7
8841
8872.53
9072.05
9141.35
9473.26
8562.38
8863.04
8877.92
9079.66
9166.84
9482.37
9587.83
9210.88
9728.3
9160.57
9704.75
9998.39
9719.12
10372.9
9609.43
9237.53
9739.15
9215.53
9722.83
10007.3
9735.17
10374.4
-9.57639
-6.88518
-6.90308
-6.49784
-5.73955
-5.41052
-5.62592
-5.50388
-6.60806
-6.4779
-5.73421
-5.39322
-5.61762
-5.49161
-6.61183
-5.18686
-5.11863
-5.3502
-5.30785
-5.27051
-5.50789
-5.21587
-5.13327
-5.33563
-5.3166
-5.27431
-5.50124
17757.8
12867.4
12004.1
10263.9
9750.74
11966.3
10257.7
9738.38
12887.3
12516.7
12504
8909.7
9162.66
9131.8
9406.37
8925.75
9166.69
9154.5
9415.84
9404.59
9768.47
9203.19
9596.57
9491.74
10129.1
9426.67
9754.86
9212.77
9496.24
9604.37
10123.7
-9.56386
-6.81033
-6.75742
-6.82768
-6.77436
-6.31149
-5.41217
-5.32586
-5.5297
-5.20515
-5.25497
-5.41629
-6.5176
-6.29502
-5.40647
-5.31371
-5.52209
-5.19713
-5.23732
-5.40933
-6.52018
-5.08582
-5.24749
-5.09345
-5.24826
17738.4
12824.4
12843.1
11970.6
10154.5
9706.43
10132.1
9731.96
11938
10151
9704.09
10130
9722.56
12473.1
12461.6
9522.43
9261.55
9761.53
9717.91
9467.34
10042.7
9552.79
9276.39
9749.24
9472.53
9726.24
10039.2
-9.53366
-6.73374
-6.70643
-6.7522
-6.72481
-6.44701
-6.45086
-6.18956
-5.31563
-5.04864
-5.23871
-5.12074
-5.30135
-5.1881
-5.37723
-5.09652
-5.00861
-5.19951
-6.17546
-5.30677
-5.0417
-5.23286
-5.10992
-5.29662
-5.17263
-5.37072
-5.08932
-5.01411
-5.19949
17884
12796.4
12811.9
12819.2
12837.9
11912.3
10059.4
9669.45
10121.7
9632.42
9722.5
10030.1
11880.5
10057.9
9681.39
10121.3
9631.49
9728.14
10032.9
12489.5
12478.5
9549.73
9744.12
9585.08
9753.29
-9.49025
-6.70595
-6.70205
-6.72046
-6.71543
-6.39643
-6.35036
-6.40067
-6.3547
-6.11451
-6.1036
-5.15237
-4.98949
-5.18654
-4.94913
-5.21842
-4.96974
-5.17118
-5.0222
-5.16419
-4.972
-5.18427
-4.92914
-5.14741
-4.98676
-5.18245
-4.94408
-5.21153
-4.95695
-5.16534
-5.0088
-5.16275
-4.97396
-5.18466
-4.92856
18025.6
12857.9
12965.2
12882
12986.4
12505.5
12499.4
11936.5
10024.9
9554.04
10028.9
9591.2
10053.6
9713.81
10046.4
9703.23
9517.3
9736.93
11906.8
10024.9
9565.68
10031.2
9591.82
10054.5
9726.35
10050.6
9715.02
9547.04
9744.27
-9.47396
-6.74575
-6.76185
-6.75512
-6.77356
-6.33568
-6.33306
-6.33922
-6.3349
-6.04184
-5.97183
-6.03004
-5.96252
-5.11179
-4.89764
-5.08591
-4.91678
-5.10704
-4.89379
-5.0817
-4.91072
-5.09011
-4.89804
-5.1033
-4.85861
-5.08672
-4.89069
-5.1002
-4.85458
17905.8
13043.5
13086.7
13060.3
13101.4
12542.8
12592.4
12538.3
12585.7
11978.5
11951.5
10092.8
9609.99
10093.6
9635.18
10034.3
9627.86
10026.1
9651.12
9861.57
9534.86
9814.12
9523.51
10093.2
9627.4
10096.1
9636.61
10030
9640.26
10029.4
9640.75
9866.66
9563.46
9821.16
9546.82
-8.63882
-9.46094
-6.34656
-6.36264
-6.34742
-6.36319
-5.94743
-5.95714
-5.93818
-5.94167
-4.99792
-4.8575
-5.04405
-4.81657
-4.95416
-4.72422
-4.91399
-4.77365
-4.99432
-4.86085
-5.04708
-4.81481
-4.95145
-4.72878
-4.91216
-4.77278
-5.03596
-4.797
-4.99377
-4.81663
-5.03369
-4.79719
-4.9915
-4.81534
17708.9
13122.2
13179.9
13134.2
13193.6
12655.4
12714.4
12644.8
12703.7
12016.6
12024.2
11990.6
12002.1
10133.6
9702.56
10182
9666.64
10127
9697.45
10176.2
9659.42
10100.2
9730.03
10130.1
9720.94
10099.1
9745.71
10134.6
9725.97
-8.69847
-6.01382
-6.08063
-6.00597
-6.07314
-9.43481
-5.97905
-5.99867
-5.95822
-5.984
-4.90279
-4.69822
-4.88508
-4.72036
-4.90667
-4.73854
-4.92796
-4.72082
-4.90041
-4.70208
-4.883
-4.71927
-4.90497
-4.73303
-4.92377
-4.72001
-4.90018
-4.76151
-4.94475
-4.70596
-4.85481
-4.60112
-4.80742
-4.65267
-4.89903
-4.76398
-4.94392
-4.71216
-4.85479
-4.60741
-4.80774
-4.65959
17330.1
16941.5
12718
12703.1
12707.1
12695.9
12137.6
12214.6
12109.2
12185.5
10219.9
9711.57
10201.1
9722.08
10209.9
9715.23
10273.7
9702.99
10213.9
9706.85
10195.4
9715.1
10208.5
9733.04
10275.9
9702.46
10118.9
9799.72
10206.4
9713.05
10119.1
9811.78
10207
9718.28
-8.74313
-6.13249
-6.19772
-6.13393
-6.20648
-5.54228
-5.65282
-5.53289
-5.62872
-9.44474
-4.9268
-4.75523
-4.93636
-4.73433
-4.98317
-4.76012
-5.07446
-4.7221
-4.92321
-4.74071
-4.93002
-4.72298
-4.97817
-4.75458
-5.06909
-4.71115
-4.77835
-4.57681
-4.77919
-4.5831
-4.74728
-4.59453
-4.75271
-4.56544
-4.77702
-4.58365
-4.7801
-4.58625
-4.74614
-4.58663
-4.7506
-4.56752
16711.4
16533.4
12323.6
12301.3
12297.1
12300.3
12252
12240.9
12213.3
12207
10331
9780.06
10323.7
9811.8
10342.5
9854.57
10373.8
9842.77
10327.4
9787.79
10323.2
9806.77
10338.5
9861.86
10371.1
9836.72
10200
9801.39
10203.4
9783.17
10184.4
9791.46
10191.2
9770.5
10198
9815.25
10205.4
9783.75
10182.5
9809.41
10195.5
9771.26
-7.94874
-8.79632
-5.68192
-5.78735
-5.67385
-5.7833
-4.39847
-4.59469
-4.53778
-4.36512
-4.57288
-4.8451
-4.46896
-4.79282
-4.38302
-4.6657
-4.40476
-4.58556
-4.54197
-4.38036
-4.58097
-4.84167
-4.47803
-4.7953
-4.38748
-4.66891
-9.45768
-4.74101
-4.59869
-4.74512
-4.58216
-4.7732
-4.54371
-4.73417
-4.5861
-4.74061
-4.56728
-4.76611
-4.52801
-4.58705
-4.36723
-4.54604
-4.36285
-4.58964
-4.38444
-4.55013
-4.37504
15913
15901.8
12186.3
12058.6
12187.5
12071.2
11724.9
11788.9
11720
11770.7
10379.2
9905.37
10389
9922.46
10516.3
9807.31
10490.5
9977.33
10376
9898.57
10383.6
9914.84
10522.4
9819.36
10489.6
9975.66
10213.5
9898.12
10224.8
9924.24
10221.6
9952.5
10269.1
9928.5
10210.9
9914.75
10229.2
9922.69
10218.5
9954.77
10268.2
9927.36
-8.03159
-5.45346
-5.60348
-5.44048
-5.59647
-8.77982
-5.25329
-5.36126
-5.24346
-5.35111
-4.34959
-4.19754
-4.45589
-4.40421
-4.18601
-4.39634
-4.25603
-4.54546
-4.14602
-4.41588
-4.35736
-4.19957
-4.45854
-4.40651
-4.19096
-4.40047
-4.25171
-4.54486
-4.149
-4.41742
-9.46984
-4.46568
-4.35505
-4.50548
-4.33499
-4.4262
-4.27682
-4.46497
-4.36593
-4.50758
-4.33552
-4.42663
-4.27892
15025.1
15074.9
14981.9
11753.2
11452.1
11744.8
11454.9
9521.82
9845.06
10027.9
9479.95
10032.3
10333.8
9342.63
10176.6
9492.19
10093.7
9857.53
9570.78
10048.4
9547.63
10055
10338.8
9383.96
10185.9
9543.36
10111.5
10291.6
9995.25
10285.3
10032.6
10363.9
10068.3
10287.7
9993.66
10284.2
10020.7
10358.5
10044.6
10065.5
9785.46
10077.4
9833.2
10060.7
9805.12
10079.3
9838.8
-8.08401
-5.68926
-5.77056
-5.68063
-5.77236
-5.05276
-5.21491
-5.04806
-5.20307
-8.80409
-4.3993
-4.14908
-4.32026
-4.17355
-4.4942
-4.29058
-4.63778
-4.20167
-4.3989
-4.14931
-4.32146
-4.17277
-4.49479
-4.2932
-4.63772
-4.20474
-4.19778
-4.36213
-4.04476
-4.23856
-3.97833
-4.24128
-4.21039
-4.36581
-4.05076
-4.24128
-3.9857
-4.24361
-9.48003
14189
14152.1
14070.6
10771.3
10564.6
10753.1
10565.3
11145.2
10922
11149.5
10921.5
9771.99
9585.32
9813.44
9984.49
9560.65
9777.16
9293.25
9846.07
9504.12
9774.66
9831.09
9632.01
10004.3
9831.27
9592.96
9791.43
9332.29
9859.91
9541.83
9789.03
10058.9
9832.13
10078.4
9855.76
10064.1
9888.26
10064.5
9846.26
10081
9883.33
10075.3
9927.89
-7.40268
-8.14935
-5.27027
-5.34252
-5.25236
-5.33611
-3.91851
-4.00795
-4.12711
-4.01469
-4.2448
-4.31065
-4.20915
-4.58934
-4.09504
-4.37403
-3.92915
-4.01087
-4.13298
-4.02705
-4.25083
-4.31379
-4.20997
-4.58853
-4.104
-4.37796
-8.8252
-4.21301
-3.91371
-4.23167
-3.96546
-4.18695
-3.90956
-4.21193
-3.90842
-4.23139
-3.96286
-4.18824
-3.91357
-9.49363
13555.3
13285.7
13060.5
10205
9888.99
10202.4
9896.64
10218.9
9993.57
10217.1
9984.67
9565.45
8972.47
9577.95
8979.23
9497.69
8679.26
9530.81
8908.65
9568.62
8991.8
9585.62
8985.36
9501.83
8719.76
9540.8
8919.43
9654.75
9852.23
9188.39
9502.5
9362.42
9534.84
9715.89
9871.87
9216.67
9513.65
9397.65
9546.86
-7.46268
-5.12969
-5.30586
-5.12811
-5.31585
-8.16904
-4.9737
-4.99171
-4.95924
-4.98548
-3.83324
-3.7012
-4.01111
-3.95687
-3.75144
-3.98054
-3.8817
-4.23401
-3.78071
-4.05002
-3.86518
-3.71487
-4.02203
-3.96266
-3.76391
-3.98594
-3.88637
-4.23655
-3.78995
-4.05465
-8.82915
-3.99023
-3.77456
-3.99686
-3.79933
-9.51077
13202.6
12624.2
12151.4
11777
9667.35
9173.24
9649.77
9172.36
8187
8611.91
8701.95
8095.21
8614.06
9113.18
7771.55
8542.74
8000.38
8538.33
8625.29
8213.41
8712.2
8118.73
8622.76
9119.15
7806.9
8551.54
8023.43
8546.33
9258.85
8983.06
9332.9
9000.66
9146.51
8910.61
9259.67
8999.25
9338.5
9000.46
9147.79
8913.16
-6.98104
-7.56421
-4.71105
-4.84126
-4.69824
-4.83975
-8.15172
-4.32959
-3.85598
-4.10334
-3.93719
-4.67918
-4.32745
-3.85495
-4.10514
-3.93099
-4.66684
-3.67253
-3.85039
-3.75527
-3.91328
-3.70165
-3.8487
-3.68839
-3.85617
-3.77277
-3.91954
-3.71611
-3.85432
-8.82556
-9.5294
13193
12286.9
11482.1