/*--------------------------------*- C++ -*----------------------------------*\
| =========                 |                                                 |
| \\      /  F ield         | OpenFOAM: The Open Source CFD Toolbox           |
|  \\    /   O peration     | Version:  5.x                                   |
|   \\  /    A nd           | Web:      www.OpenFOAM.org                      |
|    \\/     M anipulation  |                                                 |
\*---------------------------------------------------------------------------*/
FoamFile
{
    version     2.0;
    format      ascii;
    class       volScalarField;
    location    "2.2";
    object      p_rgh;
}
// * * * * * * * * * * * * * * * * * * * * * * * * * * * * * * * * * * * * * //

dimensions      [1 -1 -2 0 0 0 0];

internalField   nonuniform List<scalar> 
12160
(
5577.1
5611.6
5576.83
5630.72
5611.27
5576.54
5656.31
5630.32
5610.79
5575.74
5683.78
5655.89
5629.59
5609.77
5575.29
5713.25
5683.28
5655.07
5628.36
5608.89
5574
5745.45
5712.64
5682.25
5653.81
5626.91
5607.18
5573.62
5780.63
5744.75
5711.37
5680.73
5652.24
5624.74
5605.95
5571.91
5818.6
5779.93
5743.31
5709.47
5678.7
5650.32
5622.63
5563.53
2998.35
5858.59
5818
5778.47
5741.13
5706.93
5676.23
5648.03
5593.53
3312.58
128.032
5899.38
5858.2
5816.77
5776.24
5738.15
5703.73
5673.28
5630.54
3426.99
139.005
6.35484
5939.61
5899.24
5857.4
5814.87
5773.15
5734.31
5699.86
5652.69
3619.84
143.721
3.19947
0.126498
5978.25
5939.7
5898.98
5856.18
5812.21
5769.09
5729.51
5672.14
3777.9
175.469
0.785337
0.059655
-0.0262976
6014.77
5978.46
5939.9
5898.6
5854.49
5808.71
5763.88
5693.88
3927.72
246.783
0.336072
0.0239446
-0.0339076
0.0402624
6049.08
6015.03
5978.93
5940.23
5898.11
5852.29
5804.12
5724.68
4083.67
332.442
0.543285
0.0188353
0.00884401
0.0337938
-0.0301778
6081.29
6049.32
6015.58
5979.66
5940.76
5897.56
5849.35
5766.85
4260.03
436.292
0.943015
-0.0015041
0.0240824
0.0187321
-0.0357539
6111.46
6081.55
6049.88
6016.38
5980.72
5941.63
5896.7
5817.7
4471.42
577.29
1.88856
0.0220848
0.0359611
0.0101358
-0.00867551
6139.4
6111.85
6082.2
6050.58
6017.5
5982.33
5942.41
5873.06
4721.14
773.648
3.79111
0.0391054
0.0488853
-0.00441365
0.00614996
6164.48
6139.99
6112.82
6082.91
6051.52
6019.14
5983.76
5926.47
4980.97
1017.45
9.24455
0.0351762
0.0596496
0.00178306
0.0185272
6185.02
6165.21
6141.67
6113.87
6083.86
6052.65
6020.3
5974.49
5198.98
1290.63
25.9932
0.0452836
0.0849783
0.00882182
0.0245606
6199.67
6186.66
6168.04
6143.45
6115.35
6084.6
6053.19
6016.79
5364.69
1567.89
56.0665
0.0463499
0.0516435
-0.00941943
0.0268037
6206.71
6201.9
6190.15
6170.08
6146.47
6116.45
6084.85
6054.26
5491.37
1811.91
94.711
0.171614
0.00724074
0.0121317
0.0459912
6205.03
6209.42
6206.46
6195.15
6178.27
6148.64
6117.25
6085.9
5592.64
2006.13
133.879
0.743476
-0.0335099
0.00986022
0.0161892
6193.6
6208.07
6214.93
6213.21
6202.18
6179.15
6151.48
6117.71
5672.7
2170.62
166.574
1.67057
-0.0302965
0.0150312
0.000861025
6172.59
6196.78
6214.25
6223.2
6222.36
6210.05
6187.2
6153.31
5755.87
2336.4
194.38
2.65171
-0.0238467
-0.00972784
-0.0186909
6142.62
6175.7
6203.26
6223.57
6234.45
6233.75
6219.73
6191.46
5853.72
2543.55
226.083
3.49164
-0.00799843
-0.0143825
-0.00636666
6104.81
6145.48
6182.06
6213.06
6236.33
6248.74
6247.39
6230.08
5952.76
2823
270.215
4.24768
0.0113243
-0.00780789
-0.00511771
6060.73
6107.25
6151.3
6191.67
6226.52
6252.67
6266.12
6262.94
6035.62
3168.4
338.275
5.2589
0.0257242
0.00160998
-0.00244058
6012.13
6062.65
6112.23
6160.1
6204.87
6243.84
6272.79
6286.25
6100.59
3555.92
439.871
7.94434
0.0302257
0.0089929
0.000558601
5960.76
6013.47
6066.57
6119.72
6172.16
6221.85
6265.35
6295.95
6147.54
3919.76
566.109
14.3984
0.0392839
0.0135842
0.00282548
5908.25
5961.53
6016.22
6072.41
6129.95
6187.61
6242.93
6289.87
6168.53
4198.16
697.778
25.3334
0.0744308
0.0137733
0.00265836
5856.01
5908.47
5963.11
6020.27
6080.36
6142.96
6206.69
6266.75
6159.97
4351.64
812.49
39.2837
0.176501
0.00168893
-0.00321995
5805.18
5855.71
5908.97
5965.36
6025.71
6090.38
6158.9
6228.08
6119.51
4358.57
882.166
53.7192
0.416126
-0.0324625
-0.0139222
5756.72
5804.38
5855.26
5909.54
5968.35
6032.46
6102.2
6175.66
6042.85
4206.98
879.825
63.5462
0.833114
-0.0613681
-0.0139784
5711.21
5755.37
5803.14
5854.28
5910.33
5971.87
6040.14
6112.48
5924.75
3899.99
787.874
64.3281
1.23585
-0.084523
-0.0181003
5669.44
5709.69
5753.55
5800.65
5853.21
5910.92
5975.67
6042.22
5763.16
3460.6
640.766
55.4028
1.30054
-0.100447
-0.0242139
5631.71
5667.61
5706.87
5749.49
5798.02
5851.3
5911.53
5968.27
5558.93
2926.75
479.037
41.1244
1.07183
-0.110225
-0.0310204
5598.13
5629.67
5664.19
5702.09
5745.53
5793.67
5849.28
5893.36
5316.36
2358.12
330.841
26.4874
0.649357
-0.111532
-0.0360385
5568.72
5595.98
5625.78
5658.53
5696.09
5738.74
5789.16
5817.82
5045.19
1814.12
212.633
15.1763
0.267207
-0.10247
-0.036524
5543.28
5566.53
5591.83
5619.51
5651.2
5687.73
5731.47
5737.62
4745.93
1348.53
129.591
7.51799
0.0792573
-0.0819319
-0.0327643
5541.13
5507.37
5562.29
5585.2
5611.25
5641.22
5677.13
5649.67
4394.27
990.032
78.1093
3.04431
0.00651665
-0.0510448
-0.0274345
5536.94
5505.37
5474.3
5555.56
5576.44
5600.15
5627.96
5555.34
4003.49
729.469
48.5678
1.1038
-0.0113737
-0.00998722
-0.0245929
5530.33
5501.48
5472.65
5455.69
5546.68
5564.75
5584.82
5459.88
3611.2
535.508
30.9502
0.467621
0.00085914
0.0141969
-0.0260767
5521.62
5495.38
5469.45
5454.59
5442.82
5534.84
5547.91
5369.29
3256.2
396.04
19.908
0.253533
0.0215599
0.021308
-0.0229728
5510.05
5487.4
5464.44
5452.41
5441.96
5435.59
5516.85
5287.9
2956.63
304.704
12.9343
0.177734
0.0439428
0.0193878
-0.0139848
5491.32
5476.91
5457.89
5448.93
5440.55
5435.47
5428.82
5216.43
2715.26
248.664
8.51151
0.164346
0.0670328
0.0171683
-0.00130702
5160.45
5457.51
5449.21
5444.34
5438.15
5435.85
5428.27
5418.89
2524.98
215.18
5.89082
0.16647
0.0793728
0.0154633
0.00961399
2379.93
5095.66
5429.29
5438.02
5435.29
5434.97
5429.11
5419.81
5399.35
194.023
4.43171
0.160203
0.0886112
0.0311382
0.0204555
177.978
2202.37
5038.38
5419.02
5430.69
5434.62
5429.35
5420.2
5394.1
5380.38
3.50892
0.150996
0.091987
0.0404922
0.0209928
2.65938
161.161
2075.85
5022.39
5410.49
5432.6
5431.98
5422.57
5394.35
5378.66
5333.52
0.142392
0.0902829
0.0463135
0.0217722
0.135896
2.02261
159.733
2059.09
5000.51
5411.19
5431.98
5426.75
5392.01
5364.47
5307
5415.8
0.0887726
0.0492202
0.0213597
0.0889502
0.131943
2.19235
169.028
2063.21
5003.91
5397.13
5430.46
5395.88
5330.59
5294.87
5404.15
4905.51
5077.23
0.0510519
0.0200736
0.0528784
0.0918369
0.153871
2.76043
188.196
2123.09
4990.31
5373.74
5399.33
5309.62
5251.46
5345.85
5004.52
4624.42
4711.33
4718.51
0.0191713
0.0188636
0.0564942
0.112348
0.219638
3.99902
205.942
2220.73
4972.26
5331.97
5320.97
5234
5250.15
5064.05
4811.75
4446.66
4419.56
4468.09
4433.33
0.0194178
0.0705516
0.164571
0.354183
5.59591
238.558
2333.69
4742.11
5304.45
5218.86
5185.09
5144.4
5008.05
4631.91
4260.26
4216.97
4204
4235.78
4229.27
0.0247761
0.104598
0.254868
0.630987
15.0135
287.564
2356.07
4560.49
5269.89
5228.62
5265.83
5182.48
4838.83
4468.32
4077.16
3988.43
3961.81
3986.53
4053.31
4139.94
0.0373504
0.160277
0.375962
3.67408
48.6138
417.487
1681.55
4971.61
5370.67
5396.91
5345.46
5081.98
4687.98
4329.78
3877.96
3745.9
3683.37
3715.27
3811.06
3965.81
4180.8
0.0567794
0.202713
0.802228
16.3675
69.7935
264.736
1491.19
5451.45
5515.02
5490.11
5322.62
4950.16
4552.05
4171.99
2801.33
3478.7
2804.99
3043.36
3045.7
3377.68
3377.15
3506
3708.32
3995.04
4365.19
0.0651695
0.0727708
5.56999
21.2042
52.8848
93.7881
2913.17
5643.65
5633.87
5543.85
5225.72
4812.89
4432.19
3986.62
2549.3
2711.67
3012.85
2554.19
2298.27
2302.18
2713.67
2919.97
2921.36
2969.84
3098.76
3366.86
3712.98
4157.57
4694.32
-0.0249242
0.857224
9.27254
9.22036
15.73
90.9804
4133.96
5757.29
5710
5480.66
5095.88
4700.15
4300.75
3106.39
3104.7
3299.26
3300.84
2459.73
2645.07
2493.19
2683.33
2462.19
2192.76
2195.36
2636.82
2888.42
2881.58
2578
2891.18
3334.26
3845.78
4463.42
5149.72
-0.173412
2.58947
5.10709
1.39945
6.19753
221.371
4873.25
5823.81
5695.18
5361.62
4977.29
4593.25
3485.87
3487.19
3683.89
3685.28
3028.61
3025.43
3232.05
3228.24
2380.64
2379.3
2114.36
2240.15
2255.44
1964.49
2030.47
1451.01
1451.88
1795.01
1791.96
2373.09
2105.74
2098.86
2377.08
2114.65
2236.98
2254.98
2516.1
2469.64
2679.44
2378.1
2514.36
2472.08
2676.97
2377.1
2259.67
2803.11
3427.82
4121.66
4905.29
5690.04
-0.179819
2.39089
0.476278
0.556676
5.57254
392.768
5535.43
5819.54
5572.16
5230.47
4863.46
3879.06
3879.91
4063.98
4064.74
3437.88
3432.34
3641.09
3634.2
2584.66
2484.66
2663.33
2672.04
2776.62
2572.94
2484.14
2586.18
2663.28
2674.81
2777.01
2572.56
2896.82
3008.88
2789.38
2899.07
2897.49
3008.5
2790.51
2898.91
1953.62
1973.01
2099.13
1827.37
2307.43
2145.43
2164.79
2282.86
1486.56
1316.62
670.966
672.925
1070.54
1071.99
1309.81
1305.21
1668.74
1664.71
1951.38
1972.86
2096
1825.87
1814.02
1489.49
1711.55
1677.33
1811.68
1493.36
1709.23
1676.26
2308.24
2148.93
2165.51
2286.63
2451.14
2403.22
2451.06
2404.2
2087.16
2868.19
3666.23
4531.49
5440.46
6234.27
0.0302481
0.166232
0.2585
0.402126
5.71899
645.771
5436.39
5705.89
5436.4
5109.73
4230.96
4231.17
4423.78
4424.13
3841.9
3835.35
4030.41
4023.68
3000.73
3105.28
3111.24
3218.01
3001.33
3104.8
3115.41
3218.07
3337.21
3442.86
3228.14
3333.02
3342.67
3443.2
3231.49
3332.82
2507.88
2610.73
2659.14
2545.38
2721.41
2757.1
2509.37
2613.78
2545.79
2659.8
2723.11
2757.86
2936.01
2969.03
2821.21
2852.63
2938.13
2969.62
2822.02
2852.98
1885.61
2012.12
2033.07
1859.83
2292.62
2118.4
2138.26
2274.55
1165.78
626.424
-124.853
-123.526
271.304
272.401
502.473
493.985
905.125
897.321
761.527
885.607
957.551
1079.72
762.917
887.913
958.524
1081.73
1327.16
1534.38
1410.47
1143.82
1263.58
1628.8
1332.17
1533.67
1412.33
1145.33
1264.69
1628.81
1886.21
2015.08
2033.7
1862.77
1739.14
1691.75
1739.69
1693.73
2293.15
2121.33
2139.56
2274.57
2426.35
2393.29
2425.8
2392.56
2101.41
3092
4044.44
5039.87
6002.86
6704.31
-0.277327
0.0711057
0.202999
0.289106
6.87786
469.224
4945.77
5555.21
5287.79
4584.36
4584.98
4736.26
4736.44
4193.95
4190.73
4374.25
4373.59
3447.21
3551.15
3554.77
3659.79
3449.45
3550.54
3558.72
3659.3
3758.04
3906.06
3664.25
3771.56
3759.88
3904.47
3667.01
3770.68
3046.82
3081.17
3154.56
3182.98
3048.27
3081.62
3155.95
3183.62
3375.49
3392.94
3264.08
3285.36
3378.63
3394.04
3264.4
3285.91
1864.27
1989.94
2010.59
1843.79
1098.9
124.023
-806.434
-804.843
-491.116
-490.279
-334.148
-343.325
97.0948
88.7716
-74.176
46.3088
141.549
270.809
-67.6402
46.5032
148.388
271.912
546.922
660.174
343.803
463.592
549.005
662.802
351.657
467.23
794.667
819.293
986.451
1018.26
796.848
822.104
987.259
1020.49
1496.77
1306.44
1356.41
1535.35
1142.75
1185.49
1500.53
1309.59
1357.72
1536.64
1143.61
1186.31
1863.83
1990.82
2010.9
1841.89
1707.55
1676.53
1707.22
1675.51
2309.17
3451.27
4525.67
5602.82
6504.75
7069.57
-0.173113
0.0424205
0.158391
0.220615
8.48493
211.78
3865.01
5259.94
5101.2
4529.73
4529.83
4656.03
4656.35
4143
4141.56
4337.16
4334.56
3489.78
3508.35
3591.38
3611.93
3491.87
3509.25
3593.32
3612.69
3762.71
3830.79
3690.33
3720.03
3763.09
3830.68
3691.16
3720.39
3386.56
3416.91
3392.26
3418.59
1308.89
-1.7075
-1296.8
-1293.94
-1091.09
-1089.01
-1061.11
-1063.87
-713.798
-720.559
-936.706
-769.388
-717.038
-595.365
-938.542
-772.709
-714.403
-596.458
-274.471
-158.815
-494.971
-371.292
-271.563
-159.842
-489.636
-372.056
-35.989
-17.0579
187.934
207.438
-30.5809
-15.043
190.953
208.969
584.691
607.258
389.334
406.038
587.092
610.799
393.82
410.688
2674.07
3921.08
5073.1
6148.99
6904.73
7342.6
-0.119274
0.0448579
0.137691
0.202874
4.55116
83.0903
2385.89
4790.31
4759.51
4760.61
4863.96
4863.6
4505.57
4501.4
4628.52
4630.39
4043.5
3872.01
3930.36
3967.33
4042.98
3871.08
3930.21
3966.68
4143.95
4163.48
4242.59
4066.81
4143.27
4165.78
4242.13
4066.3
3493.84
3516.69
3584.2
3603.17
3498.34
3518.34
3587.14
3604.3
3780.57
3800.4
3678.87
3698.18
3783.05
3801.33
3680.49
3699.01
1719.37
244.824
-956.181
-1596.25
-1592.97
-1345.01
-1347.73
-1248.62
-1250.33
-881.995
-889.476
-918.708
-842.9
-688.349
-633.678
-919.71
-844.037
-687.003
-633.363
-265.424
-244.508
-461.987
-435.171
-261.361
-242.945
-459.708
-434.237
-109.237
-88.919
-100.443
-86.156
3177.09
4457.28
5649.67
6594.86
7201.34
7434.55
-0.0822965
0.0527137
0.152378
0.222457
2.9257
29.5095
1183.72
3910.99
4730.71
4727.99
4747.81
4744.6
4243.87
4321.37
4427.91
4314.97
4246.31
4320.83
4426.25
4315.12
4603.15
4600.48
4002.06
3896.6
3911.48
3993.17
4002.13
3898.17
3911.94
3992.65
4104.38
4186.27
4205.15
4092.03
4104.05
4186.95
4205.42
4091.51
3808.48
3827.36
3813.26
3828.83
2285.66
721.67
-619.615
-1898.16
-1896.31
-2009.37
-2001.75
-1837.42
-1835.48
-1509.05
-1525.14
-1358.16
-1639.86
-1521.14
-1466.96
-1357.65
-1629
-1518.77
-1463.55
-1191.54
-1131.09
-1061.2
-1295.65
-1192.37
-1133.61
-1062.53
-1296.59
-912.547
-874.475
-699.294
-663.759
-909.686
-873.904
-697.05
-662.755
-306.183
-286.962
-479.356
-454.299
-300.811
-284.973
-475.867
-452.983
3744.86
5021.7
6145.29
6925.67
7319.65
-0.0482292
0.0743488
0.191385
0.281746
1.80159
29.9232
487.758
3571.77
3572.11
2486.53
2485.35
4542.75
4603.34
4600.25
4684.56
4543.02
4602.17
4601.92
4683.8
4779.25
4779.45
4263.43
4286.03
4370.83
4314.27
4264.09
4286.25
4370.77
4315.17
4479.86
4537.96
4400.07
4446.72
4479.32
4536.64
4398.81
4445.56
4123.54
4177.24
4194.1
4104.83
4123.89
4180.3
4194.95
4106.98
2939.89
1370.35
-6.22194
-736.673
-1817.94
-1823.51
-1886.59
-1888.58
-1718.14
-1727.63
-1786.72
-1656.01
-1722.02
-1920.8
-1780.18
-1654.54
-1725.78
-1925.97
-1331.99
-1542.72
-1493.72
-1371.43
-1330.9
-1535.74
-1491.15
-1368.22
-1183.53
-1100.38
-1071.38
-1218.22
-1183.51
-1099.17
-1071.24
-1218.49
-945.849
-901.412
-940.673
-900.271
4315.58
5559.4
6529.76
7079.78
-0.0163198
0.108746
0.255598
0.502523
2.73268
27.9663
315.859
316.023
54.9723
55.0756
3268.05
3270.05
1653.18
1650.69
4541.91
4565.66
4588.53
4636.41
4542.59
4565.82
4590.69
4636.99
4683.71
3830.93
4656.39
4172.9
4685.32
3831.37
4657.68
4173.67
4256.1
4270.94
4348.52
4330.14
4256.61
4271.25
4348.41
4329.98
4485.64
4500.8
4412.13
4423.77
4485.61
4500.56
4410.84
4423.36
3587.54
2144.49
731.223
87.9132
-1235.97
-1233.88
-1408.24
-1410.83
-1566.74
-1567.02
-2039.35
-1933.96
-2141.15
-1891.71
-2032.91
-1931.5
-2131.14
-1889.44
-1923.69
-1833.56
-1809.12
-1735.31
-1834.4
-1659.55
-1912.55
-1830.51
-1801.22
-1732.84
-1830.28
-1659.96
-1685.81
-1601.04
-1679.18
-1598.61
-1335.08
-1503.63
-1456.66
-1383.06
-1333.19
-1493.77
-1453.6
-1377.23
4892.28
5996.41
6701.01
0.0125463
0.162195
0.382641
0.705931
2.09304
46.703
203.926
202.848
57.1539
57.0476
2791.3
3675.95
3693.01
2182.58
3143.38
4665.49
3677.86
2788.15
4668.53
3685.08
2173.45
3152.83
777.921
1059.17
1140.61
1534.73
783.449
1058.32
1139.82
1536.06
4539.06
4558.53
4587.68
4617.59
4540.72
4559.08
4590.22
4618.34
4690.41
3877.88
4692.79
3879.43
4360.77
4341.9
4360.54
4341.4
4491.05
4510.53
4492.65
4510.95
4193.17
2901.66
1620.71
852.851
-784.084
-779.639
-1024
-1024.99
-919.501
-923.701
-1102.8
-1101.62
-1603.95
-1846.36
-1531.06
-1740.28
-1709.22
-1927.43
-1600.52
-1827.03
-1525.98
-1732.04
-1707.29
-1921.61
-1812.58
-1741.29
-1807.34
-1739.02
-1725.87
-1674.52
-1671.96
-1688.39
-1631.25
-1625.14
-1716.08
-1671.73
-1665.93
-1678.56
-1628.84
-1622.23
-1585.72
-1535.08
-1576.6
-1531.84
5341.97
6173.16
0.0435479
0.250924
0.534846
0.813747
2.19348
54.8373
54.713
38.4951
38.4693
233.875
238.901
79.1288
79.2323
3360.11
2198.8
3702.35
4397.99
1446.99
2866.02
3361.02
2194.57
4393.29
3701.76
1456.68
2897.52
542.068
659.563
992.761
1362.77
540.633
657.279
1003.63
1363.75
4355.33
4640.96
4357.4
4642.04
4662.67
3579.27
2462.71
1711.68
1520.55
-475.608
-478.475
-691.173
-703.674
-1418.82
-998.517
-1348.28
-1127.02
-1397.48
-994.507
-1333.64
-1121.72
-1418.2
-1599.76
-1243.61
-1388.05
-1193.42
-1378.98
-1402.41
-1587.22
-1237.66
-1366.72
-1186.73
-1374.67
-1478.25
-1619.24
-1531.39
-1668.54
-1476.23
-1616.58
-1526.48
-1662.18
-1636.76
-1607.05
-1630.65
-1604.54
-1634.81
-1599.75
-1622.3
-1583.2
-1624.73
-1596.81
-1614.21
-1580.32
5549.66
0.0831879
0.351536
0.72044
1.24415
6.79503
61.3656
61.66
21.6026
21.6092
251.252
371.715
325.555
213.748
253.189
369.238
330.131
215.497
150.367
150.418
581.462
347.528
731.086
516.042
575.632
347.403
745.97
518.951
4909.31
4082.58
3234.59
2540.31
2342.74
429.468
440.676
116.856
115.832
-134.125
-133.217
-316.338
-322.731
-1127.67
-843.888
-1054.28
-988.536
-1115.2
-840.475
-1046.23
-985.396
-1408.91
-1222.07
-1302.61
-1139.97
-1121.98
-1057.73
-1394.04
-1210.36
-1136.31
-1297.38
-1113.66
-1054.46
-1512.55
-1537.04
-1510.09
-1530.06
0.123756
0.467651
0.965571
3.14842
5.86771
5.97438
4.24907
4.43658
75.8868
75.6137
21.7165
21.9696
429.984
534.315
540.01
315.979
410.333
522.056
506.689
309.594
162.864
150.046
330.226
397.167
160.178
147.176
325.043
381.188
695.658
355.039
683.707
383.098
4350.84
3785.89
3331.61
3118.06
3314.15
693.252
691.831
562.215
548.286
301.953
292.093
-470.125
-878.193
-658.578
-939.324
-471.715
-877.91
-657.098
-941.7
-845.341
-763.219
-891.155
-832.378
-833.751
-759.628
-883.777
-829.908
0.191279
0.585633
1.44301
4.79616
6.14522
6.21755
4.81649
4.99736
244.724
217.614
59.3797
163.419
161.906
62.6118
243.224
212.367
59.6993
162.736
161.907
62.5287
23.428
23.4734
723.892
620.001
732.619
546.872
692.119
613.45
734.373
542.461
519.971
541.057
525.031
524.926
4057.34
3913.75
3871.11
4025.34
1717.64
1732.3
1288.83
1290.16
900.01
913.207
921.114
904.621
-525.413
4.7803
-408.581
-182.752
-671.973
-345.733
-489.761
10.3971
-391.156
-176.71
-670.214
-344.447
-588.597
-527.924
-582.418
-525.464
-656.782
-601.542
-646.222
-598.791
0.172063
0.754629
3.50069
5.46782
5.63576
4.94839
5.14336
8.21226
8.31048
5.75674
5.75593
398.159
404.829
84.9993
306.682
291.017
99.9291
398.158
402.104
85.7166
305.506
291.808
99.4328
16.17
12.0948
77.1796
48.9254
16.2309
12.1787
76.9686
49.3227
4179.9
4433.34
4728.53
5097.8
1948.98
1946.42
1761.37
1743.49
1455.29
1449.88
-238.654
120.264
541.066
-0.366036
299.027
-40.3837
537.149
5.81521
300.921
-41.6603
-221.887
124.721
-163.788
-400.386
-65.7631
-310.766
-150.631
-383.274
-60.8285
-305.015
-457.775
-402.511
-444.277
-398.8
0.235662
0.824908
21.2821
15.8629
15.6868
17.5379
16.1303
50.549
25.4133
7.47223
19.0351
11.3942
8.03405
50.583
25.5808
7.47367
19.0984
11.4093
8.05485
8.08334
8.09434
181.918
241.619
183.406
240.063
143.763
95.21
142.863
95.9451
4719
5284.01
5760.29
2916.4
2923.54
2519.18
2518.68
2179.11
2179.58
2035.63
2023.55
328.892
954.883
426.886
716.202
194.9
610.06
364.577
202.135
612.012
962.265
445.616
723.12
28.0133
165.559
245.483
398.149
255.882
41.0535
401.248
168.689
-0.0126794
4.23737
233.457
183.74
186.777
161.803
166.448
60.1118
34.6399
8.09549
9.17887
11.3719
8.09682
59.7879
34.8228
8.09517
9.17883
11.3649
8.0982
32.477
49.9926
9.6981
10.6646
31.3859
49.447
9.75127
10.7623
109.785
98.4348
108.796
99.1144
5540.24
6263.02
6795.86
3180.63
3177.06
2935.93
2916.85
2551.79
2551.01
588.57
1002.28
1425.33
833.606
1133.32
776.884
608.787
1009.01
1424.86
833.683
1134.49
777.682
677.658
448.309
782.26
619.134
466.205
624.305
686.255
785.494
0.487076
137.846
236.534
289.438
319.216
249.324
139.665
147.645
391.907
166.973
132.924
417.214
168.696
134.637
15.8339
28.6935
8.92004
9.23975
9.2574
8.95778
15.8389
28.6905
8.92999
9.24003
9.25119
8.96647
79.0788
51.2576
78.3485
52.0475
6531.08
7180.55
7530
3463.2
3465.53
3119.88
3112.34
1133.82
1840.87
1187.62
1462.22
973.885
1377.2
1172.14
975.605
1378.81
1850.64
1206.78
1469.98
824.937
929.007
1073.35
1102.45
847.316
936.389
1084.88
1107.16
806.384
878.816
824.221
884.055
29.0961
34.5806
200.17
92.1853
226.818
92.2298
78.0121
77.3756
87.0598
463.829
802.442
462.883
566.222
207.754
67.3737
104.183
470.853
86.3131
800.931
472.217
571.922
205.743
74.7327
96.4678
14.3984
12.9594
14.6394
13.2044
420.28
360.877
416.763
361.091
7417.68
7837.51
4083.14
3449.71
3433.23
4096.5
3723.7
3724.79
3084.37
1243.41
1759.7
3089.89
1266.41
1767.3
1187.99
1426.78
1182.75
1443.21
1204.81
1189.68
1436.7
1448.89
1027.36
983.518
1234.09
1148.81
1047.73
990.322
1250.69
1154.42
0.625178
5.96937
80.9991
62.4662
45.7565
28.5665
68.7841
55.4934
48.3091
23.5705
32.4364
32.6615
235.082
69.4894
472.618
484.479
516.203
126.368
223.706
471.855
67.5026
511.085
545.999
120.494
117.07
218.138
113.685
207.678
8007.17
8159.82
4002.16
3404.5
3398.22
4008.38
3817.87
3805.24
1535.88
1336.55
1576.29
1309.12
1721.64
1781.07
1429.08
2152.27
1561.38
1360.21
1589.23
1332.25
1731.18
1791.18
1474.7
2162.11
1410.27
1494.77
1231.89
1417.35
1409.62
1235.38
1507.14
1424.79
-0.273483
1.56825
4.42188
4.41804
1.57059
1.84367
1.83464
27.6482
39.179
47.7244
38.9272
43.9345
53.8183
37.1304
31.0955
2.90282
13.8713
8.35201
30.2849
39.5947
49.9862
60.8881
46.1
24.8315
39.8769
35.1363
2.90543
13.1532
7.79239
133.379
70.8957
127.061
73.0853
133.113
69.0669
123.613
73.8872
8336.69
8268.56
4036.62
3358.97
1976.05
1380.81
3364.47
1980.32
1393.11
4039.01
3819.2
3794.45
1549.38
1528.89
1583.26
1488.18
1373.75
1686.73
1576.62
1538.84
1594.47
1383.25
1499.62
1690.19
1563.86
1312.97
1567.6
1317.42
-0.270332
1.21193
1.79608
1.22729
1.79286
1.9321
1.91921
82.325
40.5476
26.8634
94.8419
27.7442
20.6015
2.49168
2.93812
3.01941
5.89466
5.28199
2.00743
2.18132
1.71649
82.407
43.3742
120.237
80.6494
27.8536
29.5462
2.87345
2.53101
3.09369
5.52673
6.07292
2.01218
2.19255
1.724
8377.32
4154.38
3927.8
3900.4
4183.83
4068.34
4052.76
1631.77
1880.98
1284.54
1779.86
1355.97
2362.91
1625.77
1986.78
1684.21
1885.75
1301.47
1787.07
1367.29
2375.57
1656.57
1997.79
3569.05
1576.14
2175.35
3561.55
1619.7
2189.84
1520.69
1435.93
1485.52
1639.81
1543.86
1443.28
1492.95
1642.79
-0.182172
1.56556
2.0967
2.40609
1.89964
1.58611
2.10055
2.41411
1.89675
2.01886
2.00251
32.5692
26.7807
16.4503
23.8616
2.45722
2.45863
4.13454
5.59892
2.29395
2.23957
32.9396
64.2502
15.9525
25.8932
2.42449
3.98302
2.4685
5.13583
2.27389
2.24353
8297.14
4096.75
3839.38
3811.09
4105.74
3944.97
3932.26
1353.27
1508.42
1615.84
1691.98
1651.67
1960.89
1370.77
1526.56
1621.21
1699.57
1676.99
1969.98
1750.95
1575.52
2057.34
1525.65
2035.93
2146.82
1692.18
2338.39
1771.55
1602.25
2068.19
1580.64
2054.25
2155.66
1708.05
2339.92
-0.0675457
2.10533
2.08658
1.79894
2.30156
2.63003
2.42787
2.5321
2.0246
1.81761
2.30541
2.6471
2.43324
2.54417
2.01997
2.503
2.58226
2.50554
2.44706
2.43316
2.35265
2.46565
2.56635
2.52002
2.38076
2.42615
2.3582
8305.06
4002.88
3748.43
2231.9
1729.99
3713.42
2225.75
1717.39
4022.92
3931.81
3918.39
1532.59
1760.56
1649.4
1894.62
1547.44
1764.59
1672.16
1904.44
1759.75
1931.54
1698.64
1930.81
1961.5
2280.86
1781.02
1916.93
1708.34
1966.82
1938.39
2275.44
-0.0890548
2.21603
2.26082
2.18605
2.23424
1.97259
2.71459
2.71786
2.55134
2.82595
2.615
2.47844
2.18787
1.98626
2.69922
2.72903
2.55401
2.83284
2.63219
2.48188
2.15797
2.62599
2.46867
2.61723
2.46656
8279.67
3975.87
3995.42
3711.17
2120.34
1695.85
2095.42
1717.21
3680.94
2116.83
1699.94
2093.29
1709.75
3919.8
3909.39
1854.41
1731.91
1924.85
2037.14
1921.99
2189.27
1882.53
1745.35
1911.73
1926.9
2044.53
2185.18
-0.0572308
2.23556
2.26319
2.21709
2.24482
2.30877
2.26181
2.1984
2.78297
2.96025
2.80956
2.89507
2.7301
2.69176
2.57755
2.77224
2.73311
2.57017
2.17374
2.77521
2.9654
2.80586
2.90439
2.7286
2.70662
2.58146
2.77629
2.72663
2.56629
8429.48
3947.14
3944.2
3975.49
3978.57
3663.02
2037.78
1668.32
2087.13
1629.23
1880.24
2163.97
3632.24
2036.31
1685.07
2087.4
1631.8
1888.05
2166.52
3985.62
3974.7
1861.53
2039.12
1894.77
2046.63
-0.0114832
2.26587
2.2737
2.25136
2.26032
2.22982
2.27429
2.22534
2.26989
2.54715
2.46109
2.96487
3.05618
2.83955
3.16682
2.77427
2.89435
2.75069
2.83652
2.74891
2.79308
2.65152
2.84622
2.93384
3.03717
2.83733
3.13961
2.76471
2.90506
2.75022
2.84775
2.75305
2.79134
2.6523
2.84477
8584.62
3990.75
4089.55
4016.38
4111.28
4001.37
4000.59
3742.42
2019.71
1566.38
2031.29
1598.18
2198.68
1874.71
2176.68
1876.87
1806.6
2003.71
3715.01
2019.82
1579.32
2033.63
1600.19
2200.62
1891.88
2181.2
1893.79
1836.34
2009.62
0.00543498
2.2336
2.21923
2.22421
2.2075
2.29195
2.30213
2.28835
2.30024
2.32425
2.31133
2.30901
2.31738
3.36344
3.51184
3.39288
3.46631
3.27828
3.37265
3.39727
3.36882
2.90805
2.98586
2.78353
3.1241
2.87531
2.98458
2.78328
3.09619
8462.83
4171.45
4210.72
4188.25
4225.39
3999.36
4025.88
4000.54
4019.42
3838.01
3810.9
2086.08
1627.05
2093.59
1655.78
2191.3
1785.64
2174.36
1822.32
2104.71
1812.5
2059.63
1800.06
2086.53
1646.86
2096.2
1659.57
2187.99
1799.88
2178.05
1815.47
2110.57
1843.45
2066.31
1826.09
0.173405
0.0189506
2.29468
2.28112
2.29377
2.28051
2.32648
2.33297
2.33559
2.34836
3.24799
3.24733
3.4115
3.28315
3.09538
3.28974
3.0988
3.2483
3.19851
3.21909
3.22357
3.26002
3.09412
3.28226
3.0995
3.24574
3.30104
3.46927
3.34794
3.39872
3.20633
3.29665
3.35
3.29157
8264.9
4242.71
4298.69
4254.73
4312.35
4098.74
4161.68
4088.34
4151.89
3854.26
3810.64
3833.08
3791.35
2122.84
1750.86
2169.06
1693.26
2114.33
1743.25
2160.09
1685.63
2229.93
1887.96
2267.24
1886.41
2229.25
1906.83
2271.99
1896.54
0.118987
2.28768
2.22539
2.29548
2.23286
0.0462844
2.31892
2.30035
2.33966
2.31492
3.10672
3.30399
3.11696
3.28932
3.1196
3.30032
3.111
3.30558
3.10906
3.29995
3.11897
3.29034
3.12129
3.30583
3.11514
3.30633
3.26909
3.2164
3.39649
3.2547
3.06339
3.2743
3.06533
3.23514
3.18012
3.18109
3.2734
3.22773
3.0593
3.26603
3.0652
3.22524
7879.32
8225.1
4154.22
4127.18
4144.92
4121.95
3931.6
3985.53
3904.93
3957.76
2211.6
1822.51
2185.4
1823.99
2213.12
1773.18
2283.35
1806.41
2206.48
1818.15
2179.47
1826.01
2212.66
1797.1
2285.68
1818.95
2243.33
1981.31
2329.7
1879.83
2243.82
1996.01
2330.49
1890.38
0.0791786
2.18097
2.12171
2.17952
2.11296
2.40643
2.30481
2.41579
2.32882
0.0372105
3.10815
3.2844
3.10338
3.30066
3.04972
3.27507
2.96087
3.31081
3.11167
3.2989
3.10967
3.31189
3.05465
3.28055
2.96615
3.32163
3.0745
3.28106
3.07845
3.26975
3.11543
3.28131
3.1232
3.29723
3.07584
3.27421
3.07753
3.26662
3.11658
3.28927
3.12531
3.2952
7241.07
7775.38
4041.74
4010.11
4017.48
4011.86
3991.12
3967.36
3953.98
3935.87
2343.01
1836.78
2336.18
1899.67
2329.55
1874.73
2341.42
1914.3
2341.56
1847.01
2335.74
1898.47
2326.43
1882.35
2338.94
1911.96
2389.45
2058.37
2352.63
2076.37
2360.85
1992.46
2346.89
2005.82
2392.65
2076.08
2357.42
2084.49
2363.81
2016.03
2354.27
2015.8
0.222591
0.0289482
2.28924
2.19563
2.29724
2.19973
3.28444
3.25892
3.14516
3.31665
3.10897
3.00857
3.22886
2.90513
3.3045
3.02189
3.27818
3.26803
3.14097
3.30143
3.10085
3.01197
3.21968
2.90253
3.30003
3.01864
0.024801
3.11359
3.26966
3.12329
3.27238
3.076
3.30542
3.12043
3.2823
3.12781
3.28729
3.08308
3.32114
3.18207
3.39308
3.2143
3.40626
3.17949
3.37591
3.21021
3.39409
6445.57
7098.48
3882.37
3753.28
3885.47
3769.15
3781.04
3835.12
3777.77
3817.47
2344.25
1898.43
2351.47
1909.69
2483.41
1788.82
2455.18
1960.27
2341.15
1891.91
2346.08
1903.88
2489.56
1804.28
2454.39
1960.26
2387.55
2109.8
2385.97
2163.72
2388.11
2150.94
2414.25
2157.41
2388.86
2130.51
2392.11
2168.13
2390.23
2154.54
2415.26
2160.9
0.139651
2.20759
2.08653
2.22047
2.09367
0.0473159
2.37203
2.27832
2.38182
2.28833
3.32867
3.35417
3.2224
3.1475
3.33782
3.1275
3.26941
2.98
3.36885
3.099
3.32092
3.35215
3.21975
3.14521
3.33292
3.1234
3.27376
2.98061
3.3659
3.09747
0.0129052
3.24201
3.38189
3.23148
3.37268
3.25825
3.4076
3.24273
3.37105
3.22939
3.37218
3.25782
3.40554
5627.32
6265.8
6827.05
3784.82
3472.48
3776.5
3475.26
1845.5
2007.66
2344.97
1801.85
2350.41
2480.09
1647.46
2478.68
1807.44
2406.12
2024.8
1895.9
2365.45
1870.5
2373.14
2485.13
1689.41
2488.05
1859.11
2423.93
2437.52
2167.56
2423.76
2204.54
2514.7
2239.06
2433.59
2167.14
2422.79
2195.75
2509.33
2217.19
2352.09
2106.35
2360.25
2163.94
2358.97
2129.47
2366.08
2176.19
0.0898011
2.00382
1.91782
2.01447
1.91634
2.25697
2.1354
2.26111
2.14315
0.0238893
2.97373
3.21881
3.04765
3.1996
2.88332
3.0927
2.74493
3.17594
2.97414
3.21863
3.04647
3.20039
2.88272
3.08996
2.74492
3.17286
3.37563
3.21129
3.33565
3.14187
3.42443
3.16149
3.36304
3.20761
3.3297
3.13916
3.4171
3.15917
0.00284198
4784.24
5362.34
5906.73
3123.9
2906.58
3105.61
2907.35
3520.82
3284.7
3525.2
3284.33
2102.06
2038.49
2261.74
2306.21
2040.09
2253.32
1770.94
2320.61
1992.31
2259.78
2164.82
2086.29
2326.04
2279.55
2072.98
2267.57
1810.07
2334.44
2030.51
2274.13
2351.52
2134.68
2351.13
2174.03
2379.71
2220.01
2357.15
2151.03
2354
2205.75
2390.83
2264.27
0.177091
0.0243933
2.12093
2.08636
2.14335
2.09607
3.12562
3.20189
2.91715
3.04379
2.81271
2.89883
2.87908
2.48748
2.97965
2.69298
3.11506
3.19891
2.91129
3.031
2.80659
2.89569
2.87446
2.48752
2.96782
2.68858
0.00329033
3.01489
3.3435
3.02555
3.26243
3.02274
3.30011
3.01599
3.34883
3.02585
3.26509
3.02148
3.29616
-0.0106799
4103.7
4518.64
4893.9
2539.83
2221.88
2537.14
2229.58
2916.89
2676.3
2915.16
2667.5
2192.4
1609.88
2210.04
1613.42
2120.17
1305.12
2148.28
1539.28
2195.58
1629.12
2217.69
1619.21
2124.32
1345.58
2158.33
1550.02
2088.8
2278.81
1811.19
2122.08
1963.22
2132.07
2152.49
2298.44
1839.37
2133.21
1998.7
2144.07
0.634342
2.02031
2.04365
2.02333
1.98872
0.00492669
2.04499
2.09713
2.05737
2.10667
3.22556
3.21915
3.04773
2.96352
3.15092
2.9217
3.02685
2.66562
3.11851
2.84831
3.19356
3.20557
3.03677
2.95776
3.13843
2.9163
3.01945
2.66278
3.1087
2.84347
-0.000371399
3.1039
3.31953
3.09727
3.29481
-0.0277918
3728.1
3856.92
3985.97
4273.29
2341.68
1842.67
2323.87
1841.82
1154.51
1410.66
1657.78
1052.16
1556.94
1903.75
715.755
1471.29
950.3
1472.71
1423.92
1180.87
1668.02
1075.87
1565.64
1909.71
751.074
1480.16
973.313
1480.73
2030.94
1732
2075.68
1779.98
1936.81
1708.3
2031.75
1748.12
2081.27
1779.49
1938.07
1710.71
2.7929
0.275966
2.62154
5.292
2.64556
5.23119
0.0227528
2.41706
2.88177
2.63293
2.81556
2.01603
2.41887
2.88225
2.63109
2.81999
2.02946
3.11937
2.94152
2.97216
2.81419
3.04718
2.90014
3.10358
2.93578
2.95466
2.80788
3.03273
2.8945
0.00336287
-0.0463652
3711.6
3497.31
3321.82
3323.85
1336.74
1057.73
1333.57
1069.13
2054.5
1623.48
2052.68
1624.3
1435.2
1268.2
1501.12
1662.51
1205.28
1375.93
801.462