/*--------------------------------*- C++ -*----------------------------------*\
| =========                 |                                                 |
| \\      /  F ield         | OpenFOAM: The Open Source CFD Toolbox           |
|  \\    /   O peration     | Version:  5.x                                   |
|   \\  /    A nd           | Web:      www.OpenFOAM.org                      |
|    \\/     M anipulation  |                                                 |
\*---------------------------------------------------------------------------*/
FoamFile
{
    version     2.0;
    format      ascii;
    class       surfaceScalarField;
    location    "2.2";
    object      phi;
}
// * * * * * * * * * * * * * * * * * * * * * * * * * * * * * * * * * * * * * //

dimensions      [0 3 -1 0 0 0 0];

internalField   nonuniform List<scalar> 
30582
(
0.00018569
-3.37667e-06
0.000188327
-2.63718e-06
0.000185641
-6.68029e-06
0.00018695
1.37689e-06
0.000188217
-5.21287e-06
0.000184983
-9.27337e-06
0.000180478
6.47264e-06
0.00018672
2.87348e-06
0.000187779
-8.00907e-06
0.000183988
-1.07961e-05
0.000170413
1.00645e-05
0.000179937
1.32559e-05
0.000186866
3.78645e-06
0.000185907
-9.92729e-06
0.000182405
-1.06368e-05
0.000158284
1.21298e-05
0.000169876
2.01252e-05
0.000180639
1.94834e-05
0.000183766
5.92698e-06
0.000184751
-1.22739e-05
0.000178881
-6.82534e-06
0.000145653
1.26304e-05
0.000158115
2.38907e-05
0.00017094
2.98237e-05
0.000177456
2.57934e-05
0.000183463
7.2152e-06
0.000178823
-1.2216e-05
0.000176591
-5.72499e-07
0.000131975
1.3678e-05
0.000145724
2.50219e-05
0.000159061
3.57704e-05
0.00016827
3.90099e-05
0.000178197
3.10594e-05
0.000174928
1.11111e-05
0.000177929
-1.35531e-05
0.000160829
2.16172e-05
0.000117049
1.49265e-05
0.000132296
2.71065e-05
0.000146551
3.75319e-05
0.000157539
4.65012e-05
0.000170226
4.69804e-05
0.000170987
3.50001e-05
0.000175971
1.30688e-05
0.00015536
-8.08501e-06
7.93177e-05
-8.0472e-05
0.000100301
1.67477e-05
0.000117576
2.96465e-05
0.000133288
4.03691e-05
0.000145994
4.90774e-05
0.000159849
5.68789e-05
0.000165386
5.25817e-05
0.000173335
3.76356e-05
0.000153074
1.5355e-05
8.35351e-05
-1.23023e-05
-0.000277445
0.000196096
8.14048e-05
1.88961e-05
0.000100973
3.33508e-05
0.000118703
4.42318e-05
0.000133541
5.28217e-05
0.000148044
6.08816e-05
0.000157364
6.49002e-05
0.000168184
5.77328e-05
0.000154527
3.61833e-05
0.000106902
-8.0122e-06
-0.000349698
5.9951e-05
0.000192666
3.3896e-06
6.03934e-05
2.10115e-05
8.21135e-05
3.77551e-05
0.000102218
4.98355e-05
0.000119572
5.82008e-05
0.000135324
6.55418e-05
0.000147315
7.09308e-05
0.000159587
7.34969e-05
0.000155888
5.63714e-05
0.000130206
1.288e-05
-0.000404944
4.72335e-05
0.000193128
5.94892e-05
9.26323e-05
-8.92431e-05
3.79075e-05
2.24859e-05
6.09535e-05
4.21716e-05
8.33548e-05
5.66184e-05
0.000103563
6.58443e-05
0.000121499
7.20258e-05
0.000135887
7.69702e-05
0.00014901
8.15081e-05
0.00015333
7.60545e-05
0.000148034
3.8543e-05
-0.000357439
-3.4625e-05
-3.13654e-05
0.000271727
0.000131603
2.05188e-05
-0.000155632
6.63886e-05
1.53896e-05
2.25179e-05
3.8123e-05
4.53163e-05
6.19782e-05
6.35482e-05
8.4876e-05
7.53057e-05
0.000105895
8.14488e-05
0.00012328
8.46328e-05
0.000137063
8.89174e-05
0.000147625
8.72136e-05
0.000160083
6.4005e-05
-0.000239822
-7.90744e-05
-0.000140095
7.41045e-05
8.85171e-05
0.000314813
-0.000115106
-2.00074e-05
9.17464e-05
-2.53578e-05
-5.36103e-06
2.07507e-05
1.50499e-05
4.5591e-05
3.8724e-05
6.85705e-05
6.31214e-05
8.53028e-05
8.74089e-05
9.37916e-05
0.000108681
9.60477e-05
0.000124668
9.70272e-05
0.00013946
9.70828e-05
0.000166464
8.08331e-05
-0.000153513
-2.23031e-05
-0.000195135
-2.40343e-05
7.94542e-05
8.31673e-05
-1.55193e-05
0.000215226
9.27033e-05
-2.09642e-05
-0.000101175
-2.29725e-05
1.76114e-05
-6.39492e-06
4.21955e-05
1.49461e-05
6.9369e-05
3.87774e-05
9.29145e-05
6.53018e-05
0.00010741
9.06348e-05
0.000111838
0.000110886
0.00010983
0.000130364
0.000106123
0.000172433
9.1114e-05
-8.07712e-05
8.091e-06
-0.000229067
1.16287e-05
4.38066e-05
1.16133e-05
-1.50845e-06
6.91564e-05
5.74692e-05
0.00025046
-9.21548e-05
-3.56464e-05
1.26739e-05
-2.43919e-05
3.56085e-05
-7.48673e-06
6.46284e-05
1.34451e-05
9.47013e-05
4.00544e-05
0.000118162
6.78927e-05
0.000130152
9.34015e-05
0.000129322
0.000119498
0.000120697
0.00017832
0.000100236
7.32662e-06
3.01613e-06
-0.000266633
4.56567e-05
3.35591e-05
2.18762e-05
-6.25414e-06
1.6359e-05
3.76935e-05
8.89321e-05
-3.76969e-05
-4.21119e-05
6.46554e-06
-3.7211e-05
2.5493e-05
-2.66264e-05
5.47481e-05
-1.05999e-05
8.86734e-05
1.33192e-05
0.000121437
4.08521e-05
0.000145202
7.01234e-05
0.00015343
0.000104037
0.000144783
0.0001802
0.000118817
8.62733e-05
2.12893e-05
-0.000290886
2.72699e-05
4.04583e-05
3.87575e-05
4.39996e-06
1.1222e-05
1.16008e-05
4.24516e-05
-1.8172e-05
-4.18321e-05
-2.79813e-07
-4.36951e-05
1.29496e-05
-4.0489e-05
3.93556e-05
-3.10078e-05
7.5156e-05
-1.2732e-05
0.000114725
1.14339e-05
0.000150855
4.13698e-05
0.000173956
8.06517e-05
0.000176816
0.000171857
0.000153125
0.00014485
6.02403e-05
-0.000236127
-3.34705e-05
4.36458e-05
2.40824e-05
2.29968e-05
2.01606e-05
-2.27817e-06
2.5101e-05
-6.09008e-06
-3.50891e-05
-6.7429e-06
-4.37268e-05
-2.48075e-07
-4.78487e-05
2.03094e-05
-4.56887e-05
5.40366e-05
-3.5477e-05
9.7901e-05
-1.75681e-05
0.000143727
9.55112e-06
0.000182673
4.9161e-05
0.000205447
0.000150059
0.000198613
0.000175064
0.000122911
-6.41053e-05
-0.000111781
5.52471e-05
-4.50719e-05
4.70623e-05
1.68326e-08
-9.89407e-06
2.77765e-05
4.34631e-06
-2.24256e-05
-1.26635e-05
-3.68717e-05
-1.35981e-05
-4.75615e-05
-5.35243e-07
-5.32039e-05
2.78246e-05
-5.22811e-05
7.08407e-05
-4.29644e-05
0.000123297
-2.23289e-05
0.000175607
1.19077e-05
0.000219927
0.000115386
0.00024012
0.000172196
0.000201481
5.86779e-05
1.28286e-07
5.40166e-05
-0.00011055
2.93967e-05
-2.74062e-05
-1.68724e-05
6.99522e-06
1.42211e-05
-4.83852e-06
-1.75871e-05
-2.40242e-05
-2.55109e-05
-4.064e-05
-2.05196e-05
-5.37409e-05
1.71161e-09
-6.14575e-05
3.7001e-05
-6.14651e-05
8.93414e-05
-5.12482e-05
0.000152217
-2.69815e-05
0.000214496
6.96432e-05
0.000265669
0.00014013
0.000272186
0.000109774
0.000150385
7.06731e-05
-1.65281e-05
-1.541e-05
-6.57434e-05
-1.18254e-05
-3.24532e-05
2.38763e-05
1.63988e-05
-2.12373e-05
-6.14312e-06
-3.54682e-05
-2.73722e-05
-3.87788e-05
-4.64054e-05
-2.78551e-05
-6.15792e-05
1.23482e-07
-7.12505e-05
4.67864e-05
-7.28776e-05
0.000110971
-6.22916e-05
0.000187527
2.003e-05
0.000264109
8.97703e-05
0.000316029
9.91082e-05
0.000282852
8.21641e-05
0.000138894
-4.14575e-05
9.51975e-06
-1.65346e-05
-6.1034e-05
9.82342e-06
4.00617e-05
-2.36629e-05
1.54654e-05
-4.28458e-05
-8.88735e-06
-5.39531e-05
-3.24468e-05
-5.27373e-05
-5.41276e-05
-3.53067e-05
-7.24708e-05
1.34378e-06
-8.45519e-05
5.84607e-05
-8.87828e-05
0.000137462
-2.46472e-05
0.000232204
3.60824e-05
0.000317797
3.8582e-05
0.000376555
8.69217e-05
0.000278094
-1.7227e-05
0.000114664
-1.89445e-05
1.19298e-05
-8.92225e-06
6.48028e-05
-2.47411e-05
3.9551e-05
-4.77484e-05
1.35097e-05
-6.52428e-05
-1.29333e-05
-7.34667e-05
-3.94063e-05
-6.74586e-05
-6.43265e-05
-4.3451e-05
-8.51716e-05
1.96349e-06
-0.000103119
7.27968e-05
-6.04147e-05
0.00017323
-1.12721e-05
0.000279559
-4.61983e-05
0.000402577
8.38581e-05
0.000379619
2.64139e-05
0.000234454
-2.38062e-05
0.000119526
-2.32438e-05
8.93715e-05
-2.45686e-05
6.46996e-05
-4.98897e-05
3.84597e-05
-7.26984e-05
1.06893e-05
-8.88653e-05
-1.86914e-05
-9.41816e-05
-4.82754e-05
-8.35097e-05
-7.651e-05
-5.21127e-05
-0.000105888
4.73234e-06
-8.38722e-05
9.62543e-05
-4.27386e-05
0.000204696
-0.000121562
0.000354922
7.45335e-05
0.000411902
7.13312e-05
0.000334701
-1.5702e-05
0.00022635
-1.94455e-05
0.000112694
-2.33222e-05
8.96901e-05
-4.95591e-05
6.4481e-05
-7.5911e-05
3.68961e-05
-9.89052e-05
6.57079e-06
-0.000114127
-2.56186e-05
-0.000116838
-5.91244e-05
-0.000100895
-9.6784e-05
-6.12164e-05
-9.32907e-05
1.41508e-05
-5.5617e-05
0.000109133
-0.00017037
0.000253504
5.24681e-05
0.000376987
0.000116103
0.00036713
4.85871e-06
0.00031414
-1.3157e-05
0.000133899
-2.12057e-05
0.000113383
-4.70151e-05
9.02578e-05
-7.53359e-05
6.42821e-05
-0.000103297
3.461e-05
-0.000126944
1.90924e-06
-0.000141655
-3.45102e-05
-0.000141453
-7.77286e-05
-0.000119951
-8.88069e-05
-6.57002e-05
-5.44774e-05
1.30111e-05
-0.000188213
0.000126976
-1.33904e-05
0.000319362
0.000159933
0.000333156
2.63034e-05
0.000345684
-2.44061e-06
0.000152358
-1.8459e-05
0.000134902
-4.27244e-05
0.000114654
-7.14108e-05
9.13691e-05
-0.000102423
6.38522e-05
-0.000132539
3.20842e-05
-0.000157119
-4.65451e-06
-0.000171511
-4.99314e-05
-0.00016925
-7.23498e-05
-0.000136408
-4.55014e-05
-7.46762e-05
-0.000173592
-1.61031e-06
-0.00011377
0.000227356
0.000202839
0.000276455
4.50482e-05
0.000314411
8.95617e-06
0.000167651
-1.52923e-05
0.000153577
-3.71343e-05
0.00013676
-6.48313e-05
0.000116983
-9.70247e-05
9.26097e-05
-0.00013118
6.35464e-05
-0.000164001
2.8279e-05
-0.000190053
-1.48842e-05
-0.000206558
-4.7235e-05
-0.000194365
-3.35437e-05
-0.000148366
-0.00014068
-0.000107588
-0.00019318
7.77995e-05
0.000230093
0.000200101
7.07951e-05
0.000250708
1.5178e-05
0.000179622
-1.19709e-05
0.000169013
-3.07281e-05
0.000155938
-5.63122e-05
0.000140093
-8.79416e-05
0.000119605
-0.00012402
9.45827e-05
-0.000162217
6.2779e-05
-0.000198501
2.49911e-05
-0.000229928
-1.61533e-05
-0.00023764
-2.03964e-05
-0.000207512
-0.00010475
-0.000184296
-0.000213269
-8.7499e-05
0.000229431
7.84614e-05
0.000105681
0.000165215
1.40071e-05
0.000188226
-8.60406e-06
0.000181024
-2.3982e-05
0.000171745
-4.6535e-05
0.00015993
-7.61484e-05
0.000143847
-0.000112184
0.000123801
-0.000153237
9.68527e-05
-0.00019629
6.5818e-05
-0.000239328
1.84898e-05
-0.000264571
-8.21856e-06
-0.000249818
-6.93814e-05
-0.00024288
-0.000184421
-0.000213144
0.0002025
-6.05671e-05
0.00013537
4.87735e-05
4.89831e-06
0.000193518
-5.29273e-06
0.000189654
-1.72345e-05
0.000183974
-3.62108e-05
0.000176084
-6.26892e-05
0.000164668
-9.69692e-05
0.000149956
-0.00013834
0.000128774
-0.000185159
0.000104239
-0.000234711
5.21459e-05
-0.000272984
3.676e-06
-0.000276466
-3.25335e-05
-0.000286666
-0.000129458
-0.000297843
0.000147313
-0.000157956
0.000135245
-6.04413e-05
-7.51355e-06
0.000195625
-2.10661e-06
0.000195028
-1.06662e-05
0.000192638
-2.58989e-05
0.000188465
-4.85916e-05
0.000181538
-7.95595e-05
0.000172031
-0.000119044
0.000156714
-0.00016628
0.000138402
-0.000219322
8.38285e-05
-0.000266394
2.04849e-05
-0.000289793
1.09031e-05
-0.000319902
-5.88403e-05
-0.000357283
8.46873e-05
-0.000235217
0.000115357
-0.000138065
-8.52893e-06
0.000194795
8.29749e-07
0.000197276
-4.35512e-06
0.00019785
-1.58779e-05
0.000197256
-3.46903e-05
0.000194234
-6.12871e-05
0.000189423
-9.69523e-05
0.000180099
-0.000142429
0.000167949
-0.000195827
0.000112642
-0.000248135
4.44966e-05
-0.000290405
6.18621e-05
-0.000340752
2.38809e-05
-0.000402624
3.61668e-05
-0.000308761
8.15124e-05
-0.000201371
-2.12222e-07
0.000191113
3.68243e-06
0.000196246
1.86033e-06
0.00019986
-6.36463e-06
0.000202795
-2.14172e-05
0.000203031
-4.34878e-05
0.000202172
-7.40361e-05
0.000198367
-0.00011522
0.000191052
-0.000165532
0.000136724
-0.000219909
7.65271e-05
-0.000280166
0.00012274
-0.000351283
0.000104056
-0.000420928
-2.66776e-06
-0.000363788
4.30634e-05
-0.000270312
7.10623e-06
0.000184825
6.28834e-06
0.00019252
7.40807e-06
0.000199179
2.54103e-06
0.000205168
-8.73738e-06
0.000208367
-2.67527e-05
0.000211131
-5.24465e-05
0.000211082
-8.67507e-05
0.000206701
-0.000130869
0.000155207
-0.000184015
0.000118207
-0.000261588
0.000193449
-0.000350875
0.00017016
-0.000417386
-4.96783e-05
-0.000373917
5.39031e-06
-0.000326115
7.82992e-06
0.000176303
8.52152e-06
0.000186224
1.25842e-05
0.000195284
1.13025e-05
0.000203899
3.8104e-06
0.000210462
-1.0832e-05
0.000216771
-3.23924e-05
0.000219535
-6.08995e-05
0.000215066
-9.51158e-05
0.000166057
-0.000141719
0.000169747
-0.000235556
0.000267288
-0.000335428
0.000210511
-0.000391226
-0.00011156
-0.000355505
-3.11479e-05
-0.000337379
3.41953e-06
0.000166019
1.02841e-05
0.000177729
1.70167e-05
0.000188715
1.91536e-05
0.000199882
1.53195e-05
0.000209764
4.50834e-06
0.000219555
-1.3616e-05
0.000225367
-3.82247e-05
0.000218182
-6.4015e-05
0.000165841
-9.48996e-05
0.000230937
-0.000202908
0.000351562
-0.000319829
0.000198895
-0.000323813
-0.000170101
-0.000332685
-5.92459e-05
-0.000327408
2.19627e-06
1.13223e-05
0.000154697
0.000167342
2.06711e-05
0.000179862
2.587e-05
0.000193056
2.59791e-05
0.00020534
1.97431e-05
0.000218539
5.52384e-06
0.000228102
-1.63509e-05
0.000218017
-3.80601e-05
0.000157793
-5.59675e-05
0.000296898
-0.000160861
0.000437257
-0.000288603
0.000109859
-0.000230794
-0.000198627
-0.000295288
-7.48581e-05
-0.000317074
7.73429e-06
2.30261e-05
0.000155638
3.04565e-05
0.00012424
0.000169102
3.14304e-05
0.000183767
3.51593e-05
0.000197789
3.35301e-05
0.000214163
2.41192e-05
0.00022679
6.83606e-06
0.000215647
-1.3981e-05
0.000149353
-2.96204e-05
0.000355428
-0.000114498
0.000494737
-0.000218341
-1.7343e-05
-0.000161402
-0.000198143
-0.000231279
-8.03824e-05
-0.000289764
1.5228e-05
3.52349e-05
0.000156893
6.18004e-05
0.000124294
2.84655e-05
9.57745e-05
0.0001725
4.26975e-05
0.000187592
4.5356e-05
0.000206299
4.1394e-05
0.000220813
3.00958e-05
0.000210138
1.23451e-05
0.000143896
-8.52405e-06
0.000404816
-7.90087e-05
0.000515653
-0.000135413
-0.000131845
-0.00010384
-0.000191537
-0.000168009
-6.92634e-05
-0.000242398
1.96003e-05
4.80748e-05
0.00015966
9.43193e-05
0.000124375
5.82393e-05
9.45205e-05
2.23834e-05
7.33911e-05
0.000175377
5.49129e-05
0.000195374
5.62809e-05
0.000210667
5.154e-05
0.000200037
4.01966e-05
0.000140965
1.52766e-05
0.000442348
-4.60557e-05
0.000498829
-6.2185e-05
-0.000206853
-6.0406e-05
-0.000173794
-0.000121583
-4.39506e-05
-0.000193323
1.41259e-05
6.18372e-05
0.000161615
0.00012894
0.000125039
8.9308e-05
9.33061e-05
4.71557e-05
6.97484e-05
8.18107e-06
6.52101e-05
0.000182199
6.80883e-05
0.000197293
6.96552e-05
0.000186146
6.54316e-05
0.000138839
4.23221e-05
0.000457366
2.58205e-07
0.000446482
6.29155e-06
-0.000232769
-3.62694e-05
-0.000151391
-8.28095e-05
-2.11462e-05
-0.000144388
-3.08408e-06
7.69159e-05
0.00016712
0.000165221
0.000125333
0.000123684
9.0663e-05
7.29845e-05
6.74772e-05
2.03796e-05
5.75498e-05
-1.29295e-05
7.81396e-05
0.000181767
8.36147e-05
0.000169307
8.64935e-05
0.000135507
6.87643e-05
0.000443404
5.6284e-05
0.000362002
8.47382e-05
-0.000243321
1.68441e-05
-0.000141969
-4.56916e-05
-9.57407e-06
-9.43816e-05
-2.12605e-05
9.39261e-05
0.000164756
0.000205245
0.000127096
0.000160719
8.8298e-05
0.000102672
6.0975e-05
3.64006e-05
5.14562e-05
-1.50206e-05
5.9641e-05
-5.34442e-05
0.000131584
0.000150701
0.000102221
0.000130166
9.18341e-05
0.000403938
0.000108231
0.000268614
0.000149672
-0.000232032
7.34495e-05
-0.000118965
-6.15904e-06
-6.50457e-06
-4.87608e-05
-3.08893e-05
0.000113744
0.000130883
0.000248696
0.000121305
0.000202167
8.56487e-05
0.000135237
5.57331e-05
6.10338e-05
3.63419e-05
-8.79582e-06
4.52314e-05
-9.29416e-05
9.91384e-05
-7.5803e-05
0.000207387
0.000122189
0.000110197
0.000352049
0.000143723
0.00018599
0.000190854
-0.00020963
0.00012727
-9.31145e-05
4.7599e-05
-2.05722e-05
7.90873e-06
-3.66668e-05
0.000122473
0.000113461
0.000294916
8.46636e-05
0.000247161
7.63109e-05
0.00017208
4.88063e-05
9.29396e-05
2.38273e-05
8.89413e-06
1.86519e-05
-0.000109254
6.15439e-05
-0.000149385
0.000172721
-0.000131279
0.000338666
0.000304121
0.000158126
0.000128184
0.000201529
-0.000177956
0.00015918
-6.52078e-05
9.9363e-05
-3.305e-05
6.00769e-05
-2.63798e-05
0.000163139
0.000263455
0.00032324
8.51368e-05
0.000293617
3.82072e-05
0.00021196
3.64306e-05
0.000132353
9.39274e-06
3.65294e-05
-3.80797e-06
-0.000105548
1.49462e-05
-0.000215507
0.000127666
-0.000249155
0.000290596
-2.51164e-05
0.000363782
8.88585e-05
0.000197451
-0.000143924
0.000167498
-4.30496e-05
0.000137022
-3.83963e-05
0.00010471
-1.41677e-05
0.000196351
5.56462e-05
0.000416094
0.000170601
0.000340469
3.82848e-05
0.000254647
-4.47961e-06
0.00017799
-9.20637e-06
8.16495e-05
-3.57274e-05
-7.31072e-05
-3.6249e-05
-0.000248429
4.78687e-05
-0.000331641
0.000210152
-7.87742e-05
0.000344254
6.59552e-05
0.000297827
-0.000119023
0.000172551
-3.44733e-05
0.000158922
-3.69589e-05
0.000135585
-3.5419e-06
0.000184396
-0.000107069
0.000462461
9.27863e-06
0.000430951
8.01188e-05
0.000305566
-1.26342e-05
0.000226863
-5.33527e-05
0.0001372
-6.47565e-05
1.91439e-06
-0.000110749
-0.000223242
-6.14367e-05
-0.000414712
0.00013094
-0.000205648
0.000337026
6.6543e-05
0.000343666
0.00212762
0.000612088
-0.00244188
-3.58135e-05
0.000173891
-3.38557e-05
0.000155819
2.65337e-06
0.000190854
-4.22712e-05
0.000471176
-0.000115783
0.000496709
-5.64792e-05
0.000388981
-3.29661e-06
0.000287746
-7.35165e-05
0.000190434
-0.000106587
9.85901e-05
-0.000161432
-0.000104748
-0.000229242
-0.000421422
-5.47268e-05
-0.000381276
0.000306567
3.5993e-05
0.000367576
0.00172561
0.00074568
0.00236431
0.000719697
-0.00247192
0.000407469
-0.00284935
-3.12933e-05
0.000171328
3.74292e-06
0.000191048
-3.14881e-05
0.000503221
-7.43157e-05
0.000551354
-0.000170427
0.000509193
-0.00017669
0.000370778
-8.6329e-05
0.000246353
-0.000129435
0.000177691
-0.000185687
4.64452e-05
-0.000312626
-0.000317484
-0.00033318
-0.000462736
2.67334e-05
-5.89147e-06
0.000348452
0.00131408
0.000779104
0.00222445
0.00088554
0.0020691
0.000760749
-0.00211015
0.000580237
-0.00264468
0.000310199
-0.00315955
1.55458e-06
-2.15554e-06
0.000517781
-4.60479e-05
0.000616536
-0.000139497
0.000632859
-0.000294092
0.000612155
-0.000418067
0.000323366
-0.000163343
0.00022654
-0.000178285
0.000163689
-0.000302931
-0.000127919
-0.000502191
-0.00041713
-0.000378786
-9.75989e-05
0.000118441
0.000975464
0.00068707
0.00198365
0.0010199
0.00203629
0.00091835
0.00172572
0.000907804
-0.00187278
0.00072536
-0.00225528
0.000529375
-0.00286386
0.000248455
-0.00340801
-1.41609e-05
0.000656967
-8.64783e-05
0.000753369
-0.000260007
0.000860791
-0.000542729
0.000844233
-0.000938935
0.00033266
-0.000269463
0.00019047
-0.000205066
9.94309e-05
-0.000530281
-0.000274708
-0.000644613
-0.000273115
-0.00020327
0.000669644
0.000424261
0.00166058
0.00101014
0.00193538
0.00112082
0.00166708
0.000976993
0.00153286
0.00111013
-0.00173519
0.000927003
-0.00207442
0.000702459
-0.00242836
0.000438086
-0.00305349
0.00015236
-0.00356037
-3.47984e-05
0.000844347
-0.000177458
0.00104336
-0.000442582
0.00130815
-0.00100665
0.000887269
-0.00149355
0.000281023
-0.000360016
0.00029483
-0.000400465
-3.89534e-05
-0.000766036
-0.000285615
-0.000632113
0.000356994
0.00010938
0.0012302
0.000854632
0.00174878
0.00119674
0.00162182
0.00116608
0.00140884
0.00110102
0.00126318
0.00137466
-0.0015277
0.00117404
-0.00198222
0.000888294
-0.00226026
0.000609147
-0.00259942
0.000328092
-0.00322922
9.38514e-05
-0.00365422
-7.47685e-05
0.00119276
-0.000326861
0.00153436
-0.000668792
0.00148028
-0.00159966
0.000404513
-0.00161704
0.000365009
-0.000430194
0.00030373
-0.000743149
-0.000221232
-0.000830419
0.000119575
-0.000394695
0.000806583
0.000533002
0.00150409
0.00109932
0.00153382
0.00128474
0.00131518
0.00125973
0.00109266
0.00127153
0.00114985
0.000390501
-0.0013378
0.000390073
0.000391137
0.000390894
0.00143579
-0.00178946
0.00109189
-0.00218582
0.000772034
-0.00242314
0.000495981
-0.00276731
0.000198972
-0.00333434
-1.2082e-05
-0.00364214
-0.00014337
0.00166275
-0.000455249
0.00190814
-0.00109666
0.000763776
-0.00195893
0.000275222
-0.00152725
0.000457841
-0.000584305
-0.000108404
-0.000855977
-0.000115356
-0.000595487
0.00039923
1.26579e-05
0.00115082
0.000886275
0.00135913
0.00127401
0.00115344
0.00144648
0.00102865
0.00132374
0.000895192
0.00152618
-5.75701e-07
0.000237013
-0.000275704
0.000429768
0.000407942
-0.00156452
0.000407691
0.000423426
0.000423459
0.000237679
-0.000275789
0.000427608
-3.67489e-07
0.000210305
0.000418212
0.000212197
0.000416009
0.00134277
-0.00204034
0.000975553
-0.00238934
0.000667951
-0.00259511
0.000337781
-0.00290612
3.68767e-05
-0.0033833
-0.000110839
-0.0035313
-0.000214843
0.00201091
-0.000558013
0.00124207
-0.00157495
0.000253612
-0.00193732
0.000222902
-0.00129231
9.20596e-05
-0.000784769
-0.000360756
-0.000610576
8.54249e-05
-0.000281682
0.000646226
0.000517247
0.00113557
0.00110984
0.000959513
0.00146793
0.00094477
0.00153037
0.000684402
0.00153453
-0.000187701
-0.000188578
0.000691198
0.000400099
0.000398824
0.000417319
0.000417526
-7.6236e-07
-0.00030649
0.00043949
-3.22597e-07
0.000194832
-0.00021803
0.000453288
-0.00183286
0.00161111
-0.000306227
0.000437367
-6.04148e-07
-0.00032629
0.000443831
-0.000325389
0.000442017
0.000195095
-0.000217781
0.000449971
-2.22236e-07
0.000425566
0.000422304
0.0012519
-0.00231669
0.000864489
-0.00258587
0.000480188
-0.00273752
0.000130626
-0.00299987
-0.000153652
-0.00334049
-0.000219023
-0.00331227
-0.000228109
0.00144186
-0.000757798
0.000345238
-0.00166657
-0.000137444
-0.00157697
-0.00023311
-0.000967137
-0.000236848
-0.000908676
-0.000181769
-0.000343382
0.000240297
0.000124248
0.000822969
0.000829844
0.00074894
0.00132041
0.000796557
0.00161615
0.000534093
0.00168068
0.000528392
0.000415992
0.000416318
0.000432604
0.000432424
2.52287e-07
0.00010806
-0.000133031
0.000424817
0.000107442
-0.000132263
0.000423898
-2.49032e-07
9.54659e-05
0.000430162
9.51531e-05
0.000429565
-3.93708e-07
-0.000237734
0.000459587
1.34828e-06
0.000156435
-0.000164979
0.000129609
9.90052e-05
0.000126469
0.000105402
-0.00208715
0.00150619
0.000252984
0.000252193
-0.00139785
0.000468462
0.00046868
0.000458132
0.000456829
-0.000237197
0.00045639
-4.14982e-07
0.000459496
0.000456598
0.000156379
-0.000164491
0.000128776
0.000100074
0.000125828
0.000104753
1.1075e-06
0.000125459
9.70444e-05
0.000124223
0.000101135
0.000124656
9.87357e-05
0.000123633
0.000100502
0.00109374
-0.00254593
0.000638986
-0.00274467
0.000220675
-0.00282757
-0.000138829
-0.00301469
-0.000361987
-0.00319752
-0.000321679
-0.0029906
-0.000199706
0.000437516
-0.000850077
-0.000493377
-0.00131064
-0.000713251
-0.00109682
-0.000345885
-0.000858099
-0.000378739
-0.000711705
-5.03666e-05
-5.27185e-05
0.000424514
0.000522703
0.000538903
0.00103988
0.000584839
0.00153213
0.000402276
0.00174796
0.000389964
0.000447331
0.000447228
0.000462736
0.00046181
-2.0746e-07
7.22458e-05
0.000439419
7.22154e-05
0.000439049
-2.20234e-07
5.34075e-05
0.000451662
5.32807e-05
0.000451138
5.31525e-07
5.3207e-05
-2.73403e-05
-1.05248e-05
9.50998e-05
-2.23952e-05
0.000121926
9.58146e-05
0.000121467
-3.00023e-06
5.29505e-05
-2.7386e-05
-1.0285e-05
-2.2394e-05
9.54198e-05
0.000121864
9.58867e-05
0.000121362
-2.98952e-06
5.73051e-07
4.33897e-05
9.81083e-05
0.000121373
9.78846e-05
0.000121991
4.36941e-05
9.83213e-05
0.000121262
9.79294e-05
0.000121882
1.24763e-06
-0.000176389
0.000130866
0.000102639
0.000129904
0.000106342
-2.25779e-05
9.73537e-06
1.60901e-07
2.23399e-05
0.00011995
-9.88073e-06
2.06804e-05
-2.28723e-05
0.000111078
2.31616e-07
-2.45854e-05
0.000118364
2.17835e-05
0.000114034
-0.0023138
0.00132039
-0.00160799
0.00042563
0.000425738
0.000432068
0.000432886
-1.3497e-07
0.00020447
-0.000225163
0.00048929
0.000205557
-0.000225832
0.00048882
4.70487e-07
0.000188962
0.00047317
0.000190355
0.000472501
-0.00017604
0.000130212
0.000103836
0.000129267
0.00010587
1.10836e-06
0.000131554
0.000102391
0.00012903
0.000107985
0.000130969
0.000104587
0.000128645
0.00010782
-2.26683e-05
9.58223e-06
2.23615e-05
0.000119662
-9.6054e-06
2.12003e-05
-2.32906e-05
0.00011177
-2.46419e-05
0.000118428
2.18439e-05
0.000113691
1.9246e-05
1.08435e-05
1.25367e-07
0.000117584
-1.65384e-05
-2.1491e-05
0.000107733
1.78553e-07
0.000116225
0.000112271
1.91055e-05
1.07835e-05
0.000117254
-1.61307e-05
-2.13792e-05
0.00010886
0.000116501
0.00011175
0.000822405
-0.00272935
0.000290348
-0.00281435
-0.000123245
-0.00284315
-0.000434243
-0.00294243
-0.00057707
-0.00294213
-0.000435966
-0.00255463
-0.000233932
-0.000749426
-0.000594034
-0.00120674
-0.000817146
-0.000620302
-0.000822404
-0.000557589
-0.000679246
-0.000442921
-0.000319151
6.21915e-05
0.000309604
0.00027162
0.000789986
0.000349943
0.00127478
0.000280973
0.00165344
0.000250363
0.000466688
0.000466194
0.00047764
0.000477043
-1.35103e-07
3.28203e-05
0.000468054
3.30344e-05
0.000467339
-1.20757e-07
2.17626e-05
0.000473915
2.20178e-05
0.000472706
8.84869e-07
2.93219e-05
0.000101505
0.000123814
0.000102379
0.000124868
2.96648e-05
0.00010192
0.000123787
0.000103417
0.000124828
1.12947e-06
9.48103e-06
0.000108082
0.000129323
0.000105429
0.000127547
9.66785e-06
0.000109156
0.000129272
0.000106402
0.000127456
-5.36074e-06
5.93354e-08
-1.04153e-05
0.000110816
-6.83725e-06
-1.53916e-05
0.000107567
-1.2315e-06
3.11268e-09
0.00012281
-4.98186e-06
-6.79985e-06
-1.19255e-06
0.000103866
-2.36474e-08
-5.21279e-07
0.000113998
2.81149e-08
-8.68495e-06
0.000115026
-6.85004e-06
-1.53787e-05
0.000108694
-5.25755e-06
2.97186e-07
-1.09008e-05
0.000111281
-1.2171e-06
-5.06346e-06
0.00012289
-6.64582e-06
-1.06685e-06
0.000103897
-4.92757e-07
0.000113969
-8.61476e-06
0.000115304
-7.76602e-06
2.94116e-06
-3.93011e-06
0.000106863
1.78689e-06
2.41269e-08
-3.22371e-06
0.000115019
-7.38707e-06
0.00010702
9.84188e-09
0.000115893
-7.68903e-06
2.88142e-06
-3.9237e-06
0.000107053
1.75977e-06
-3.17819e-06
0.000115016
-7.30078e-06
0.000107045
0.000115858
2.56736e-05
9.90468e-06
1.61879e-07
-2.79118e-05
0.000123037
-9.88678e-06
-2.46299e-05
0.000114284
2.2779e-07
0.000120877
-2.60016e-05
0.000117618
-1.27382e-05
1.96186e-06
-6.46615e-08
1.1265e-05
0.000119526
-1.53044e-06
1.22495e-05
-1.3338e-05
0.000113697
-5.66645e-08
-1.40037e-05
0.000118136
1.21898e-05
0.000116055
-0.00247306
0.000981668
-0.00182228
0.000377521
0.000377066
0.00038993
0.000390166
-3.07818e-07
0.00025393
-0.000276871
0.000448878
0.000254103
-0.000276824
0.000448151
-2.14543e-07
0.00046105
0.000460943
8.81239e-07
0.000118168
-0.000126551
0.000110629
0.000136645
0.000111887
0.000137594
0.000118176
-0.000125939
0.00011112
0.000136561
0.000112255
0.000137528
6.39764e-07
1.93686e-05
3.97511e-05
0.000110428
8.52823e-06
0.000135811
0.000108982
0.000136779
3.10352e-05
1.94467e-05
3.96964e-05
0.000110807
8.6756e-06
0.000135797
0.000109178
0.000136673
3.10438e-05
2.5727e-05
9.83927e-06
-2.79851e-05
0.000122793
-9.65038e-06
-2.4575e-05
0.00011477
0.00012093
-2.61912e-05
0.000117326
-3.03375e-05
1.06331e-05
1.75919e-07
0.00012317
-1.71816e-05
2.55319e-05
0.00011341
1.779e-07
0.000121067
0.000118148
-3.04225e-05
1.05071e-05
0.000123076
-1.66538e-05
2.59733e-05
0.000114715
0.000121443
0.000118109
-1.26946e-05
1.73189e-06
1.11865e-05
0.000119373
-1.31454e-06
1.21423e-05
-1.33544e-05
0.000114296
-1.40226e-05
0.000118384
1.22024e-05
0.000115363
3.77467e-06
6.055e-09
0.000116404
0.000112843
3.71226e-06
0.000116119
0.000112286
0.000360229
-0.00279923
-0.000144243
-0.00279335
-0.000500855
-0.00277654
-0.000761169
-0.00275833
-0.000810987
-0.00256711
-0.000506743
-0.00204789
-0.000108888
-0.00148761
-0.000313175
-0.000956618
-0.000480831
-0.00073024
-0.000649747
-0.000678041
-0.000444119
-0.000416128
0.000159169
3.3694e-05
0.00054753
0.000128277
0.00101165
0.000125667
0.00143008
0.000110588
0.000446888
0.000446389
0.000450083
0.000449851
-3.67631e-08
1.49591e-05
0.000473528
1.52824e-05
0.000472893
-5.73177e-08
6.52696e-06
0.00048613
6.81644e-06
0.000485452
1.04397e-06
-1.9236e-06
0.000109077
0.000130119
0.000109671
0.000129585
-1.99273e-06
0.000110137
0.00012999
0.000110531
0.000129377
1.06822e-06
-1.18399e-05
0.000112122
0.000130417
0.000110619
0.000129575
-1.2691e-05
0.000113258
0.000130258
0.000111524
0.000129405
-7.54702e-06
-5.54653e-06
0.000110668
-5.0155e-06
3.31087e-08
0.000118042
-8.02034e-06
-5.73849e-06
0.000110596
-6.00247e-09
-5.31923e-06
0.000117194
-7.47068e-06
-5.60963e-06
0.000111077
-4.97199e-06
0.000118144
-7.70347e-06
-5.73101e-06
0.000111242
-5.29652e-06
0.000117433
-7.92552e-06
8.57863e-06
-1.00516e-05
0.000117476
8.23965e-06
-2.63001e-08
-1.0178e-05
0.000123384
-8.02368e-06
0.000116288
1.38179e-08
0.00012241
-7.5371e-06
8.62026e-06
-1.0331e-05
0.000118404
8.24447e-06
-1.01856e-05
0.000123658
-7.76001e-06
0.000117051
0.000122669
-2.17266e-06
-2.569e-06
-6.00007e-07
-1.87891e-05
-2.02737e-05
-7.57875e-09
-2.34864e-08
4.08076e-07
-9.06676e-07
-5.26834e-06
-1.83184e-08
-5.15861e-06
-2.11147e-06
-2.47704e-06
-5.71882e-07
-1.88222e-05
4.55722e-07
-2.02623e-05
-8.76857e-07
-5.26491e-06
-5.15746e-06
-1.18095e-06
4.69098e-06
-5.68532e-06
4.66521e-06
-2.03132e-08
-5.4399e-06
-1.06912e-06
-1.20786e-08
-1.12442e-06
4.68839e-06
-5.76554e-06
4.66224e-06
-5.4606e-06
-1.0527e-06
1.44668e-05
2.08856e-06
-4.77196e-08
-1.76435e-05
0.000124188
-1.66463e-06
-1.32301e-05
0.00011584
-4.97519e-08
0.000119742
-1.42639e-05
0.00012074
-2.17414e-06
8.04436e-07
-2.30223e-08
3.08221e-07
-8.3393e-07
1.96195e-06
-2.52612e-06
-5.34119e-08
-2.68974e-06
6.39632e-07
-0.00256771
0.000454871
-0.00196311
0.000267068
0.00026631
0.000294711
0.000294407
-2.13951e-07
0.000288786
-0.000281882
0.000370832
0.000288225
-0.000281507
0.000370134
-1.64833e-07
0.00040201
0.000401402
1.36947e-06
0.000145484
-0.000161259
0.000101815
0.000125954
0.000105269
0.000130219
0.000144593
-0.000160791
0.000102982
0.000125873
0.000106668
0.000130217
1.16335e-06
0.000107772
0.00013222
0.000106745
0.000132047
0.000108425
0.000132201
0.000108079
0.000132045
-8.86221e-06
1.30354e-05
-1.18031e-05
0.000118259
1.39292e-05
-1.73145e-08
-1.29063e-05
0.000126831
-8.37997e-06
1.17349e-05
0.000121568
-1.35325e-08
1.27508e-05
0.000130406
-8.6625e-06
1.30388e-05
-1.20658e-05
0.000118809
1.39132e-05
-1.29602e-05
0.000126929
-8.22984e-06
1.17466e-05
0.000121777
1.27304e-05
0.000130467
-5.61802e-06
-6.76388e-06
-5.84474e-06
0.000128654
-7.2768e-06
1.11789e-05
0.000118036
-1.00641e-05
-7.49476e-08
0.000139747
6.2346e-07
-7.90503e-06
0.000121858
-6.61714e-09
0.000131568
1.73906e-08
2.03236e-05
0.000124465
-5.36514e-06
-6.68272e-06
-6.28975e-06
0.000129145
-7.31862e-06
1.12957e-05
0.000119413
-1.0007e-05
0.000139851
5.12315e-07
-7.79917e-06
0.000122041
0.00013159
2.03285e-05
0.000124857
1.44315e-05
1.89649e-06
-1.75779e-05
0.000123995
-1.48036e-06
-1.32513e-05
0.000116148