/*--------------------------------*- C++ -*----------------------------------*\
| =========                 |                                                 |
| \\      /  F ield         | OpenFOAM: The Open Source CFD Toolbox           |
|  \\    /   O peration     | Version:  5.x                                   |
|   \\  /    A nd           | Web:      www.OpenFOAM.org                      |
|    \\/     M anipulation  |                                                 |
\*---------------------------------------------------------------------------*/
FoamFile
{
    version     2.0;
    format      ascii;
    class       volScalarField;
    location    "2.2";
    object      rAU;
}
// * * * * * * * * * * * * * * * * * * * * * * * * * * * * * * * * * * * * * //

dimensions      [-1 3 1 0 0 0 0];

internalField   nonuniform List<scalar> 
12160
(
1.23657e-06
1.23653e-06
1.23654e-06
1.2365e-06
1.23651e-06
1.23653e-06
1.23714e-06
1.23649e-06
1.23649e-06
1.23651e-06
1.2378e-06
1.23709e-06
1.23649e-06
1.23649e-06
1.23651e-06
1.23779e-06
1.23773e-06
1.23705e-06
1.23649e-06
1.23648e-06
1.23654e-06
1.23779e-06
1.2377e-06
1.23765e-06
1.23701e-06
1.23685e-06
1.2365e-06
1.23658e-06
1.23783e-06
1.23769e-06
1.23761e-06
1.23759e-06
1.23734e-06
1.23666e-06
1.23657e-06
1.2366e-06
1.23783e-06
1.23776e-06
1.2376e-06
1.23753e-06
1.23752e-06
1.23711e-06
1.23689e-06
1.24768e-06
2.43505e-06
1.23783e-06
1.23777e-06
1.23776e-06
1.23751e-06
1.23745e-06
1.23747e-06
1.23734e-06
1.24416e-06
2.20384e-06
6.04277e-05
1.23783e-06
1.23779e-06
1.23777e-06
1.23767e-06
1.23742e-06
1.23739e-06
1.23744e-06
1.24163e-06
2.13085e-06
5.56858e-05
0.000655357
1.23783e-06
1.23781e-06
1.23779e-06
1.23771e-06
1.23767e-06
1.23734e-06
1.23733e-06
1.24237e-06
2.01944e-06
5.38671e-05
0.000853896
0.00122612
1.23783e-06
1.23782e-06
1.23781e-06
1.23773e-06
1.23771e-06
1.23761e-06
1.23745e-06
1.2437e-06
1.93845e-06
4.4499e-05
0.00111946
0.00123338
0.00123675
1.23783e-06
1.23783e-06
1.23782e-06
1.23776e-06
1.23773e-06
1.23765e-06
1.23762e-06
1.24561e-06
1.8678e-06
3.19604e-05
0.0011894
0.00123602
0.00123685
0.00123734
1.23782e-06
1.23783e-06
1.23783e-06
1.23777e-06
1.23776e-06
1.2377e-06
1.23766e-06
1.24651e-06
1.80086e-06
2.3886e-05
0.0011594
0.00123717
0.00123556
0.0012373
0.00123713
1.23782e-06
1.23782e-06
1.23783e-06
1.23778e-06
1.23777e-06
1.23779e-06
1.23772e-06
1.24619e-06
1.73175e-06
1.82887e-05
0.0011053
0.00123762
0.00123723
0.00123578
0.00123662
1.23777e-06
1.23782e-06
1.23782e-06
1.23779e-06
1.23778e-06
1.23783e-06
1.2378e-06
1.24522e-06
1.65656e-06
1.38729e-05
0.000991706
0.00123744
0.00123771
0.00123705
0.0012359
1.23758e-06
1.23782e-06
1.23782e-06
1.23779e-06
1.23779e-06
1.23783e-06
1.23784e-06
1.24381e-06
1.57596e-06
1.03854e-05
0.000820203
0.00123691
0.0012377
0.00123761
0.00123722
1.23763e-06
1.23778e-06
1.23782e-06
1.2378e-06
1.23779e-06
1.23783e-06
1.23783e-06
1.24234e-06
1.50067e-06
7.92172e-06
0.00054483
0.00123675
0.00123759
0.00123769
0.00123756
1.23781e-06
1.2378e-06
1.2378e-06
1.23779e-06
1.2378e-06
1.23782e-06
1.23783e-06
1.24075e-06
1.44494e-06
6.26258e-06
0.000268457
0.00123639
0.00123771
0.00123764
0.00123768
1.23782e-06
1.23781e-06
1.23782e-06
1.23779e-06
1.23779e-06
1.23782e-06
1.23782e-06
1.23905e-06
1.40623e-06
5.17492e-06
0.000140629
0.00123331
0.00123759
0.00123779
0.00123765
1.23782e-06
1.23782e-06
1.23782e-06
1.23782e-06
1.23779e-06
1.23777e-06
1.23782e-06
1.23743e-06
1.37853e-06
4.48756e-06
8.73505e-05
0.00121289
0.00123698
0.00123753
0.00123771
1.23782e-06
1.23782e-06
1.23782e-06
1.23782e-06
1.23782e-06
1.23778e-06
1.23777e-06
1.237e-06
1.35758e-06
4.05934e-06
6.31295e-05
0.00112818
0.00123768
0.00123726
0.00123734
1.23783e-06
1.23782e-06
1.23782e-06
1.23782e-06
1.23782e-06
1.23782e-06
1.23778e-06
1.2372e-06
1.34274e-06
3.75539e-06
5.12895e-05
0.00101773
0.00123689
0.00123772
0.00123681
1.23783e-06
1.23783e-06
1.23782e-06
1.23782e-06
1.23782e-06
1.23782e-06
1.23782e-06
1.23748e-06
1.3287e-06
3.49169e-06
4.42452e-05
0.000922513
0.00123694
0.00123684
0.00123766
1.23783e-06
1.23783e-06
1.23783e-06
1.23782e-06
1.23782e-06
1.23782e-06
1.23757e-06
1.23779e-06
1.31293e-06
3.20987e-06
3.82428e-05
0.000855457
0.00123539
0.00123686
0.00123684
1.23783e-06
1.23783e-06
1.23783e-06
1.23783e-06
1.23782e-06
1.23782e-06
1.23734e-06
1.23766e-06
1.2986e-06
2.89495e-06
3.21632e-05
0.00080428
0.00123323
0.00123781
0.00123594
1.23784e-06
1.23783e-06
1.23783e-06
1.23783e-06
1.23783e-06
1.23782e-06
1.23771e-06
1.23751e-06
1.28843e-06
2.58293e-06
2.58344e-05
0.000742883
0.00123486
0.00123613
0.00123651
1.23784e-06
1.23784e-06
1.23783e-06
1.23783e-06
1.23783e-06
1.23783e-06
1.23782e-06
1.2374e-06
1.2816e-06
2.30378e-06
1.99743e-05
0.000616299
0.00123435
0.00123625
0.00123632
1.23784e-06
1.23784e-06
1.23784e-06
1.23783e-06
1.23783e-06
1.23783e-06
1.23783e-06
1.23706e-06
1.27623e-06
2.09166e-06
1.55704e-05
0.000436413
0.00123064
0.00123658
0.00123641
1.23784e-06
1.23784e-06
1.23784e-06
1.23784e-06
1.23783e-06
1.23783e-06
1.23783e-06
1.23698e-06
1.27373e-06
1.95417e-06
1.26586e-05
0.000291458
0.00122083
0.0012369
0.00123668
1.23783e-06
1.23784e-06
1.23784e-06
1.23784e-06
1.23784e-06
1.23783e-06
1.23783e-06
1.2372e-06
1.27464e-06
1.88555e-06
1.08844e-05
0.000204742
0.00120303
0.00123743
0.00123702
1.23782e-06
1.23783e-06
1.23781e-06
1.23784e-06
1.23784e-06
1.23784e-06
1.23773e-06
1.23835e-06
1.2791e-06
1.88146e-06
1.00278e-05
0.000156472
0.00116644
0.00123746
0.00123753
1.23783e-06
1.23782e-06
1.23779e-06
1.23781e-06
1.23779e-06
1.23784e-06
1.23693e-06
1.23847e-06
1.28934e-06
1.94634e-06
1.00526e-05
0.000134748
0.00110947
0.0012369
0.00123633
1.23663e-06
1.23783e-06
1.23779e-06
1.23779e-06
1.23771e-06
1.23779e-06
1.23705e-06
1.23807e-06
1.30553e-06
2.0951e-06
1.12052e-05
0.000133639
0.00106024
0.00123521
0.00123413
1.23653e-06
1.23783e-06
1.23782e-06
1.23779e-06
1.2377e-06
1.23771e-06
1.23719e-06
1.2384e-06
1.33104e-06
2.35548e-06
1.3742e-05
0.000151752
0.00105115
0.00123469
0.00123263
1.23776e-06
1.2378e-06
1.23782e-06
1.23782e-06
1.23773e-06
1.2374e-06
1.23735e-06
1.23944e-06
1.36746e-06
2.7773e-06
1.83054e-05
0.000195863
0.00107623
0.00123475
0.00123152
1.23784e-06
1.2378e-06
1.23776e-06
1.23781e-06
1.23781e-06
1.23754e-06
1.23719e-06
1.2416e-06
1.41835e-06
3.43928e-06
2.62398e-05
0.000279415
0.00112781
0.00123315
0.00123076
1.23784e-06
1.2378e-06
1.2378e-06
1.23774e-06
1.23781e-06
1.23773e-06
1.23764e-06
1.24478e-06
1.48342e-06
4.46843e-06
4.03366e-05
0.00041748
0.00118169
0.00123358
0.00122864
1.23743e-06
1.23781e-06
1.2378e-06
1.23775e-06
1.23774e-06
1.23782e-06
1.23783e-06
1.25008e-06
1.56731e-06
5.99961e-06
6.4845e-05
0.000629377
0.00121258
0.00123498
0.00122858
1.23739e-06
1.23766e-06
1.23781e-06
1.23773e-06
1.23775e-06
1.23774e-06
1.23794e-06
1.25789e-06
1.68506e-06
8.15593e-06
0.000104092
0.000892997
0.00122624
0.00123575
0.00122861
1.23739e-06
1.23762e-06
1.23785e-06
1.23772e-06
1.23773e-06
1.23769e-06
1.23788e-06
1.26824e-06
1.84349e-06
1.10419e-05
0.000159507
0.00108868
0.00123196
0.00123621
0.00122929
1.23727e-06
1.23762e-06
1.23782e-06
1.23777e-06
1.23772e-06
1.23759e-06
1.23787e-06
1.28067e-06
2.03873e-06
1.49938e-05
0.000233554
0.00117305
0.00123514
0.00123594
0.00123079
1.23727e-06
1.23749e-06
1.23782e-06
1.23772e-06
1.23756e-06
1.2375e-06
1.23795e-06
1.29411e-06
2.25684e-06
2.01948e-05
0.000329611
0.00120454
0.00123645
0.00123663
0.00123242
1.23698e-06
1.23749e-06
1.23768e-06
1.2378e-06
1.23755e-06
1.23755e-06
1.23814e-06
1.30739e-06
2.48296e-06
2.60939e-05
0.000445923
0.00121715
0.00123697
0.00123676
0.00123419
1.23795e-06
1.23716e-06
1.23768e-06
1.23768e-06
1.23773e-06
1.23751e-06
1.23741e-06
1.31995e-06
2.70238e-06
3.18062e-05
0.000573322
0.00122179
0.0012376
0.00123724
0.00123509
1.32953e-06
1.23877e-06
1.2374e-06
1.23768e-06
1.23773e-06
1.23768e-06
1.23737e-06
1.23741e-06
2.90516e-06
3.66363e-05
0.000689842
0.00122563
0.00123719
0.00123772
0.00123638
3.08064e-06
1.34035e-06
1.24006e-06
1.23747e-06
1.23773e-06
1.23781e-06
1.23762e-06
1.23744e-06
1.2368e-06
4.04842e-05
0.000776933
0.0012293
0.00123637
0.0012373
0.00123768
4.3966e-05
3.3241e-06
1.35192e-06
1.24083e-06
1.23762e-06
1.23783e-06
1.23781e-06
1.23771e-06
1.23673e-06
1.23468e-06
0.000844018
0.00123154
0.00123591
0.00123653
0.00123716
0.000917848
4.8372e-05
3.52769e-06
1.35581e-06
1.24232e-06
1.23776e-06
1.23782e-06
1.23784e-06
1.23679e-06
1.23472e-06
1.23395e-06
0.00123267
0.00123568
0.00123607
0.00123657
0.00123323
0.00098183
4.88505e-05
3.5602e-06
1.36296e-06
1.24377e-06
1.23807e-06
1.2377e-06
1.23741e-06
1.23675e-06
1.23352e-06
1.23376e-06
0.00123551
0.00123577
0.00123613
0.00123667
0.00123504
0.000966068
4.63985e-05
3.56037e-06
1.36435e-06
1.24942e-06
1.23871e-06
1.23736e-06
1.23688e-06
1.2358e-06
1.23517e-06
1.23067e-06
1.23284e-06
0.00123553
0.0012358
0.00123727
0.00123646
0.00123507
0.000916606
4.18601e-05
3.46276e-06
1.37182e-06
1.25788e-06
1.23735e-06
1.23738e-06
1.23594e-06
1.23537e-06
1.23057e-06
1.22851e-06
1.23297e-06
1.23384e-06
0.00123554
0.00123589
0.00123784
0.00123602
0.00123426
0.000825298
3.8418e-05
3.31338e-06
1.3813e-06
1.26324e-06
1.23605e-06
1.23749e-06
1.2359e-06
1.22782e-06
1.22704e-06
1.23679e-06
1.23688e-06
1.23478e-06
1.23428e-06
0.00123625
0.0012378
0.00123557
0.00123496
0.000738884
3.34007e-05
3.15486e-06
1.45667e-06
1.24622e-06
1.23715e-06
1.23747e-06
1.23561e-06
1.22584e-06
1.23613e-06
1.23668e-06
1.23675e-06
1.23685e-06
1.23515e-06
1.22866e-06
0.00123565
0.00123778
0.00123759
0.00122252
0.000415416
2.79179e-05
3.14264e-06
1.49199e-06
1.23375e-06
1.23755e-06
1.23747e-06
1.23219e-06
1.23297e-06
1.23261e-06
1.23591e-06
1.23666e-06
1.23674e-06
1.23682e-06
1.23488e-06
1.21933e-06
0.00123476
0.00123769
0.00123587
0.000864041
0.000159632
1.9203e-05
4.39697e-06
1.34078e-06
1.23683e-06
1.23757e-06
1.23455e-06
1.23143e-06
1.2327e-06
1.2347e-06
1.24058e-06
1.23598e-06
1.23665e-06
1.23672e-06
1.23678e-06
1.23527e-06
1.22767e-06
0.00123308
0.00123521
0.00113919
0.000391102
0.000115151
3.00314e-05
4.87875e-06
1.24961e-06
1.23759e-06
1.23737e-06
1.23264e-06
1.2369e-06
1.2341e-06
1.23672e-06
1.20826e-06
1.23997e-06
1.20827e-06
1.20483e-06
1.20839e-06
1.23687e-06
1.23663e-06
1.23669e-06
1.23675e-06
1.23685e-06
1.23754e-06
0.00122968
0.00122261
0.000712931
0.000325629
0.000147759
8.17592e-05
2.49055e-06
1.23699e-06
1.23751e-06
1.23292e-06
1.2367e-06
1.23614e-06
1.2365e-06
1.23473e-06
1.20531e-06
1.20104e-06
1.23767e-06
1.20534e-06
1.19828e-06
1.19668e-06
1.20111e-06
1.19971e-06
1.19967e-06
1.23685e-06
1.2366e-06
1.23665e-06
1.23671e-06
1.23678e-06
1.23752e-06
0.00122598
0.00107232
0.00055816
0.00056773
0.000395928
8.18032e-05
1.76003e-06
1.23713e-06
1.23508e-06
1.23332e-06
1.23567e-06
1.2367e-06
1.23937e-06
1.21366e-06
1.21294e-06
1.21244e-06
1.21251e-06
1.1991e-06
1.21387e-06
1.23883e-06
1.24218e-06
1.19915e-06
1.20945e-06
1.2092e-06
1.21435e-06
1.21458e-06
1.21528e-06
1.23661e-06
1.23657e-06
1.23662e-06
1.23599e-06
1.23674e-06
1.23749e-06
0.00121729
0.000890929
0.000743976
0.00110833
0.000683469
3.50891e-05
1.49947e-06
1.23693e-06
1.23486e-06
1.23497e-06
1.23378e-06
1.23937e-06
1.21266e-06
1.21251e-06
1.21536e-06
1.21536e-06
1.21818e-06
1.21787e-06
1.21674e-06
1.21694e-06
1.21784e-06
1.07764e-06
1.1433e-06
1.08426e-06
1.1408e-06
1.23748e-06
1.24314e-06
1.21348e-06
1.20862e-06
1.20971e-06
1.20465e-06
1.21824e-06
1.21093e-06
1.21072e-06
1.07895e-06
1.14831e-06
1.08433e-06
1.14073e-06
1.08417e-06
1.15185e-06
1.0976e-06
1.14605e-06
1.08676e-06
1.15253e-06
1.10028e-06
1.1467e-06
1.23506e-06
1.23669e-06
1.23505e-06
1.23661e-06
1.23669e-06
1.23746e-06
0.0011796
0.000928841
0.00117613
0.0012242
0.000710309
2.00936e-05
1.32407e-06
1.2367e-06
1.23646e-06
1.23379e-06
1.24e-06
1.20849e-06
1.20852e-06
1.21353e-06
1.21369e-06
1.21784e-06
1.21803e-06
1.21777e-06
1.2178e-06
1.18218e-06
1.15066e-06
1.0966e-06
1.17788e-06
1.08894e-06
1.1019e-06
1.15004e-06
1.18362e-06
1.09526e-06
1.17893e-06
1.08897e-06
1.10157e-06
1.16809e-06
1.08643e-06
1.15077e-06
1.1137e-06
1.16844e-06
1.08688e-06
1.15216e-06
1.11377e-06
1.07225e-06
1.14455e-06
1.0776e-06
1.13424e-06
1.10435e-06
1.15495e-06
1.10662e-06
1.15529e-06
1.23525e-06
1.24035e-06
1.21616e-06
1.21619e-06
1.21408e-06
1.21418e-06
1.20446e-06
1.20565e-06
1.21455e-06
1.21469e-06
1.07433e-06
1.14826e-06
1.07798e-06
1.1372e-06
1.06975e-06
1.13976e-06
1.06374e-06
1.12956e-06
1.07005e-06
1.14001e-06
1.06402e-06
1.1295e-06
1.10564e-06
1.16476e-06
1.10659e-06
1.16167e-06
1.09711e-06
1.15634e-06
1.09962e-06
1.15837e-06
1.23553e-06
1.23528e-06
1.23682e-06
1.23656e-06
1.23665e-06
1.23744e-06
0.00117079
0.00118473
0.00122476
0.00122558
0.000678576
1.23035e-05
1.34473e-06
1.23629e-06
1.23673e-06
1.24024e-06
1.20737e-06
1.20775e-06
1.21233e-06
1.2123e-06
1.21679e-06
1.21682e-06
1.21566e-06
1.21565e-06
1.15235e-06
1.10398e-06
1.16447e-06
1.10198e-06
1.15406e-06
1.10398e-06
1.16465e-06
1.102e-06
1.15243e-06
1.08435e-06
1.15288e-06
1.0952e-06
1.15137e-06
1.08596e-06
1.15676e-06
1.0951e-06
1.16572e-06
1.07521e-06
8.94481e-07
1.11038e-06
1.1489e-06
1.00329e-06
1.16282e-06
1.08682e-06
1.11396e-06
8.90681e-07
1.15154e-06
1.0031e-06
1.14349e-06
1.0289e-06
1.10759e-06
1.08765e-06
1.14266e-06
1.02919e-06
1.10976e-06
1.08767e-06
1.09359e-06
1.16319e-06
1.10256e-06
1.15616e-06
1.12729e-06
1.16813e-06
1.11449e-06
1.18056e-06
1.23512e-06
1.23882e-06
1.21103e-06
1.21093e-06
1.21627e-06
1.2163e-06
1.21552e-06
1.21525e-06
1.21372e-06
1.21322e-06
1.15373e-06
1.08733e-06
1.1545e-06
1.07858e-06
1.15151e-06
1.08897e-06
1.15297e-06
1.08041e-06
1.10055e-06
1.14667e-06
1.11321e-06
1.15059e-06
1.09605e-06
1.07204e-06
1.09306e-06
1.14656e-06
1.11426e-06
1.15188e-06
1.09709e-06
1.07219e-06
1.09535e-06
1.16331e-06
1.10256e-06
1.15609e-06
1.08869e-06
1.14622e-06
1.08919e-06
1.14643e-06
1.12723e-06
1.16834e-06
1.11317e-06
1.1814e-06
1.12888e-06
1.18181e-06
1.12912e-06
1.18183e-06
1.23806e-06
1.23855e-06
1.23701e-06
1.23652e-06
1.23666e-06
1.23741e-06
0.00119238
0.00122469
0.00123047
0.00122013
0.000611448
1.68783e-05
1.46999e-06
1.24019e-06
1.2363e-06
1.21138e-06
1.21131e-06
1.21612e-06
1.21611e-06
1.20548e-06
1.20533e-06
1.20309e-06
1.20299e-06
1.14949e-06
1.0833e-06
1.14384e-06
1.08525e-06
1.14837e-06
1.08319e-06
1.1461e-06
1.08523e-06
1.1457e-06
1.08143e-06
1.13683e-06
1.07952e-06
1.14574e-06
1.08096e-06
1.13935e-06
1.07911e-06
1.14683e-06
1.108e-06
1.1618e-06
1.09973e-06
1.15239e-06
1.1079e-06
1.16424e-06
1.09957e-06
1.1695e-06
1.10552e-06
1.15021e-06
1.09808e-06
1.16939e-06
1.10726e-06
1.15484e-06
1.09786e-06
1.10067e-06
1.19013e-06
1.13092e-06
1.15911e-06
1.23869e-06
1.23695e-06
1.21694e-06
1.21689e-06
1.21776e-06
1.21784e-06
1.22119e-06
1.22121e-06
1.21845e-06
1.21841e-06
1.14633e-06
1.06966e-06
1.16036e-06
1.09656e-06
1.14824e-06
1.06774e-06
1.16041e-06
1.09647e-06
1.16185e-06
1.09201e-06
1.1629e-06
1.08367e-06
1.15987e-06
1.09339e-06
1.16321e-06
1.08485e-06
1.13873e-06
1.07171e-06
1.15817e-06
1.06555e-06
1.13686e-06
1.0728e-06
1.15656e-06
1.06703e-06
1.16549e-06
7.71653e-07
9.38136e-07
1.10255e-06
1.11335e-06
1.07428e-06
1.1653e-06
7.55695e-07
9.38557e-07
1.10212e-06
1.11622e-06
1.07459e-06
1.10049e-06
1.18936e-06
1.12988e-06
1.15814e-06
1.12776e-06
1.18837e-06
1.12748e-06
1.18748e-06
1.23983e-06
1.23937e-06
1.23695e-06
1.23648e-06
1.23671e-06
1.23738e-06
0.00120066
0.00123325
0.00123186
0.00122675
0.000559248
3.65745e-05
1.87583e-06
1.28027e-06
1.23901e-06
1.20565e-06
1.20565e-06
1.20681e-06
1.20678e-06
1.21505e-06
1.2151e-06
1.21315e-06
1.21333e-06
1.16107e-06
1.09991e-06
1.14534e-06
1.09378e-06
1.16086e-06
1.09981e-06
1.14732e-06
1.09366e-06
1.13863e-06
1.0762e-06
1.13203e-06
1.07947e-06
1.13836e-06
1.07604e-06
1.13418e-06
1.0793e-06
1.07249e-06
1.02564e-06
1.07214e-06
1.02553e-06
1.23989e-06
1.23753e-06
1.22607e-06
1.22598e-06
1.21872e-06
1.21867e-06
1.21917e-06
1.21942e-06
1.21741e-06
1.21746e-06
1.16068e-06
1.10089e-06
1.15606e-06
1.09976e-06
1.16018e-06
1.10092e-06
1.15535e-06
1.09942e-06
1.16167e-06
1.09781e-06
1.15831e-06
1.08286e-06
1.16154e-06
1.09697e-06
1.15797e-06
1.08155e-06
1.16417e-06
1.11694e-06
1.16013e-06
1.10051e-06
1.16548e-06
1.11684e-06
1.15966e-06
1.10036e-06
1.15617e-06
1.09057e-06
1.17777e-06
1.0935e-06
1.15446e-06
1.09199e-06
1.17832e-06
1.09445e-06
1.2398e-06
1.23879e-06
1.23665e-06
1.23645e-06
1.23677e-06
1.23735e-06
0.00120577
0.00123507
0.00123365
0.00122504
0.000768657
8.73545e-05
3.03649e-06
1.37412e-06
1.20035e-06
1.20153e-06
1.21906e-06
1.21937e-06
1.21821e-06
1.21834e-06
1.20244e-06
1.20251e-06
1.08352e-06
1.12712e-06
1.09028e-06
1.14874e-06
1.08355e-06
1.13109e-06
1.09009e-06
1.15034e-06
1.08913e-06
1.12234e-06
1.07966e-06
1.14593e-06
1.08918e-06
1.12729e-06
1.07974e-06
1.14801e-06
1.14947e-06
1.10462e-06
1.16169e-06
1.12519e-06
1.14799e-06
1.10456e-06
1.1606e-06
1.12512e-06
1.15464e-06
1.10314e-06
1.15426e-06
1.11497e-06
1.15467e-06
1.10306e-06
1.15421e-06
1.11487e-06
1.23979e-06
1.23779e-06
1.23885e-06
1.22402e-06
1.22424e-06
1.22078e-06
1.22089e-06
1.22631e-06
1.22645e-06
1.22476e-06
1.22503e-06
1.16388e-06
1.11168e-06
1.16771e-06
1.119e-06
1.16357e-06
1.11175e-06
1.16743e-06
1.11868e-06
1.17361e-06
1.11669e-06
1.16906e-06
1.11522e-06
1.17324e-06
1.11648e-06
1.16884e-06
1.11499e-06
1.07319e-06
1.02544e-06
1.07265e-06
1.02533e-06
1.23977e-06
1.23766e-06
1.23654e-06
1.23645e-06
1.2369e-06
1.23747e-06
0.0012105
0.00123531
0.00123434
0.00122463
0.000904526
0.00021855
6.09714e-06
1.66794e-06
1.21142e-06
1.21014e-06
1.22733e-06
1.22785e-06
1.13772e-06
1.07308e-06
1.08654e-06
1.15252e-06
1.13352e-06
1.07314e-06
1.08668e-06
1.1485e-06
1.21559e-06
1.21518e-06
1.078e-06
1.1102e-06
1.04911e-06
1.14619e-06
1.07802e-06
1.10038e-06
1.04906e-06
1.1389e-06
1.09764e-06
1.1185e-06
1.08806e-06
1.14972e-06
1.09766e-06
1.12645e-06
1.08804e-06
1.15187e-06
1.09314e-06
9.7472e-07
1.08651e-06
9.75106e-07
1.238e-06
1.23745e-06
1.23682e-06
1.22251e-06
1.22269e-06
1.22936e-06
1.22914e-06
1.22323e-06
1.22337e-06
1.22774e-06
1.22736e-06
1.15299e-06
1.18834e-06
1.1539e-06
1.19033e-06
1.15346e-06
1.18826e-06
1.15429e-06
1.19075e-06
1.14416e-06
1.18604e-06
1.13432e-06
1.18909e-06
1.14413e-06
1.18535e-06
1.13373e-06
1.18916e-06
1.18375e-06
1.13046e-06
1.18109e-06
1.12409e-06
1.18308e-06
1.1303e-06
1.18076e-06
1.12387e-06
1.16769e-06
1.1162e-06
1.19335e-06
1.14216e-06
1.16754e-06
1.11612e-06
1.1932e-06
1.14207e-06
1.23879e-06
1.23682e-06
1.23642e-06
1.23663e-06
1.23727e-06
0.00121471
0.00123561
0.00123508
0.0012256
0.00103018
0.000225879
1.46542e-05
1.71144e-06
1.71122e-06
2.53043e-06
2.53168e-06
1.12954e-06
1.07336e-06
1.14697e-06
1.06788e-06
1.13874e-06
1.07292e-06
1.16281e-06
1.06749e-06
1.20682e-06
1.20684e-06
1.134e-06
1.07475e-06
1.08086e-06
1.13483e-06
1.13589e-06
1.07506e-06
1.08086e-06
1.13513e-06
1.14736e-06
1.08639e-06
1.16163e-06
1.10567e-06
1.14767e-06
1.0864e-06
1.15879e-06
1.10542e-06
1.0703e-06
1.10736e-06
1.07296e-06
1.11766e-06
1.06568e-06
1.12187e-06
1.07526e-06
1.12959e-06
1.23699e-06
1.23682e-06
1.23706e-06
1.2258e-06
1.21516e-06
1.21534e-06
1.22146e-06
1.22321e-06
1.21693e-06
1.21867e-06
1.19067e-06
1.14536e-06
1.13792e-06
1.18604e-06
1.19037e-06
1.14542e-06
1.13738e-06
1.18619e-06
1.16247e-06
1.19293e-06
1.16126e-06
1.19611e-06
1.16264e-06
1.19324e-06
1.16149e-06
1.19623e-06
1.13854e-06
1.17716e-06
1.11447e-06
1.17998e-06
1.13828e-06
1.17706e-06
1.11363e-06
1.17992e-06
1.13563e-06
1.09938e-06
1.13535e-06
1.09925e-06
1.23692e-06
1.23647e-06
1.23579e-06
1.2372e-06
0.00121845
0.00123566
0.00123552
0.00123009
0.000941561
0.000239041
2.03513e-05
2.03408e-05
0.000129601
0.000129359
1.84719e-06
1.84582e-06
3.77615e-06
3.78128e-06
1.13246e-06
1.06283e-06
1.13722e-06
1.07363e-06
1.13245e-06
1.0628e-06
1.1372e-06
1.07364e-06
1.10339e-06
1.40888e-06
1.07843e-06
1.29259e-06
1.10312e-06
1.41142e-06
1.07809e-06
1.29447e-06
1.15145e-06
1.07892e-06
1.09951e-06
1.1604e-06
1.15589e-06
1.0789e-06
1.0993e-06
1.15791e-06
1.1646e-06
1.09548e-06
1.16308e-06
1.11697e-06
1.1646e-06
1.09541e-06
1.15856e-06
1.11689e-06
1.23677e-06
1.23661e-06
1.23754e-06
1.22508e-06
1.19641e-06
1.1964e-06
1.2012e-06
1.20124e-06
1.19696e-06
1.19731e-06
1.16758e-06
1.09818e-06
1.14236e-06
1.08804e-06
1.16884e-06
1.09985e-06
1.14329e-06
1.08893e-06
1.18162e-06
1.14516e-06
1.18339e-06
1.15727e-06
1.15561e-06
1.12909e-06
1.18225e-06
1.14593e-06
1.18222e-06
1.15704e-06
1.15476e-06
1.12927e-06
1.19047e-06
1.15885e-06
1.1897e-06
1.15904e-06
1.13109e-06
1.17522e-06
1.14874e-06
1.15745e-06
1.13144e-06
1.17575e-06
1.14906e-06
1.15809e-06
1.23651e-06
1.23203e-06
1.23645e-06
0.00122218
0.00123622
0.00123585
0.0012307
0.00102055
0.000152928
3.35806e-05
3.37632e-05
0.000133803
0.000134111
2.03456e-06
1.48863e-06
1.37982e-06
2.68515e-06
1.66564e-06
1.13603e-06
1.48909e-06
2.03572e-06
1.13528e-06
1.38283e-06
2.69666e-06
1.661e-06
8.11469e-06
5.44967e-06
5.43748e-06
3.63359e-06
8.05792e-06
5.45404e-06
5.44278e-06
3.63047e-06
1.15023e-06
1.06714e-06
1.17294e-06
1.08923e-06
1.15077e-06
1.06662e-06
1.17277e-06
1.08928e-06
1.11931e-06
1.42023e-06
1.11884e-06
1.42137e-06
1.07816e-06
1.10291e-06
1.07809e-06
1.09428e-06
1.11315e-06
1.06987e-06
1.11449e-06
1.06863e-06
1.23649e-06
1.2366e-06
1.23829e-06
1.23852e-06
1.17438e-06
1.17652e-06
1.18936e-06
1.19203e-06
1.19857e-06
1.19864e-06
1.18374e-06
1.18374e-06
1.0511e-06
1.10596e-06
1.03303e-06
1.12873e-06
1.09559e-06
1.10376e-06
1.05208e-06
1.10683e-06
1.03548e-06
1.12888e-06
1.09579e-06
1.10264e-06
1.16496e-06
1.12777e-06
1.16389e-06
1.12725e-06
1.16275e-06
1.12758e-06
1.15179e-06
1.18312e-06
1.1194e-06
1.15548e-06
1.16326e-06
1.12779e-06
1.15186e-06
1.18198e-06
1.11944e-06
1.15525e-06
1.17322e-06
1.14621e-06
1.17386e-06
1.14649e-06
1.23241e-06
1.23272e-06
0.00122605
0.00123673
0.00123395
0.00122919
0.00100897
0.000136714
0.000137009
0.000182448
0.00018252
3.14272e-05
3.06761e-05
0.000100375
0.000100217
1.62968e-06
2.07756e-06
1.16387e-06
1.1894e-06
4.15847e-06
1.94867e-06
1.62853e-06
2.07892e-06
1.19076e-06
1.16525e-06
4.12329e-06
1.92765e-06
1.24777e-05
9.68206e-06
6.50307e-06
4.40382e-06
1.25241e-05
9.71586e-06
6.42503e-06
4.39904e-06
1.18027e-06
1.05431e-06
1.18028e-06
1.05429e-06
1.23332e-06
1.23669e-06
1.23673e-06
1.23954e-06
1.22014e-06
1.19342e-06
1.19338e-06
1.21241e-06
1.21278e-06
1.07283e-06
9.97953e-07
1.10319e-06
1.03246e-06
1.07279e-06
9.97451e-07
1.10386e-06
1.03316e-06
1.07144e-06
1.06113e-06
1.01199e-06
1.09889e-06
1.04164e-06
1.03783e-06
1.07072e-06
1.06155e-06
1.01551e-06
1.09947e-06
1.04332e-06
1.03832e-06
1.02738e-06
1.09439e-06
1.07712e-06
1.1361e-06
1.02844e-06
1.094e-06
1.07807e-06
1.13571e-06
1.12512e-06
1.0832e-06
1.12575e-06
1.08364e-06
1.12189e-06
1.09029e-06
1.14665e-06
1.1252e-06
1.12361e-06
1.0911e-06
1.1486e-06
1.12508e-06
1.23308e-06
0.00123023
0.00123648
0.00123516
0.0011665
0.000645983
0.000125064
0.000124465
0.000313857
0.000313774
2.77607e-05
1.93133e-05
2.17944e-05
3.41752e-05
2.75816e-05
1.94528e-05
2.14608e-05
3.3839e-05
5.14001e-05
5.13861e-05
1.21492e-05
2.1556e-05
9.49147e-06
1.3763e-05
1.22842e-05
2.15583e-05
9.26182e-06
1.36549e-05
1.23395e-06
1.23434e-06
1.23734e-06
1.23779e-06
1.23956e-06
1.16436e-06
1.16484e-06
1.16534e-06
1.16696e-06
1.18058e-06
1.18569e-06
1.16131e-06
1.16397e-06
1.04149e-06
1.0279e-06
1.10195e-06
1.02981e-06
1.04119e-06
1.02772e-06
1.10286e-06
1.02944e-06
1.10715e-06
1.01579e-06
1.05243e-06
1.02789e-06
1.04991e-06
1.00879e-06
1.10594e-06
1.04315e-06
1.02785e-06
1.056e-06
1.05196e-06
1.00869e-06
1.0154e-06
1.04114e-06
1.01583e-06
1.04185e-06
0.00123333
0.001236
0.00122956
0.000967998
0.000851289
0.000842373
0.000999742
0.000977107
9.87195e-05
9.91053e-05
0.000318512
0.000315353
1.60328e-05
1.31823e-05
1.26787e-05
2.26148e-05
1.68051e-05
1.35233e-05
1.33674e-05
2.31364e-05
4.41155e-05
4.61729e-05
2.15422e-05
1.69873e-05
4.49096e-05
4.71035e-05
2.1887e-05
1.77375e-05
9.89787e-06
2.02244e-05
1.00805e-05
1.84838e-05
1.22704e-06
1.23594e-06
1.23828e-06
1.23892e-06
1.22243e-06
1.14967e-06
1.15307e-06
1.17948e-06
1.18346e-06
1.15095e-06
1.15284e-06
9.43001e-07
1.07573e-06
9.49592e-07
9.95853e-07
9.43766e-07
1.07479e-06
9.52163e-07
9.96458e-07
1.0771e-06
9.66831e-07
1.04531e-06
9.89696e-07
1.07703e-06
9.70163e-07
1.04663e-06
9.90962e-07
0.00123677
0.00123185
0.00117855
0.000891739
0.000939837
0.000933135
0.00104658
0.00102373
2.81572e-05
3.01648e-05
0.00011543
4.36697e-05
4.08378e-05
0.00011524
2.83451e-05
3.09059e-05
0.000114854
4.38815e-05
4.08507e-05
0.000115438
0.000317286
0.000316845
9.13466e-06
1.08832e-05
8.74706e-06
1.2504e-05
9.55438e-06
1.09936e-05
8.43399e-06
1.26033e-05
1.3344e-05
1.22878e-05
1.31864e-05
1.26815e-05
1.19952e-06
1.23801e-06
1.23898e-06
1.23774e-06
1.17879e-06
1.17968e-06
1.1802e-06
1.18154e-06
1.16446e-06
1.16639e-06
1.13084e-06
1.13044e-06
9.94317e-07
9.32921e-07
1.04327e-06
9.32007e-07
9.94671e-07
9.80948e-07
9.93646e-07
9.32991e-07
1.04188e-06
9.30797e-07
9.93665e-07
9.86644e-07
1.06325e-06
9.78692e-07
1.06389e-06
9.79971e-07
9.78659e-07
9.21938e-07
9.7984e-07
9.22442e-07
0.0012313
0.001235
0.000947107
0.000987747
0.000969444
0.000968015
0.000949423
0.000872557
0.000864017
0.00106835
0.00106995
1.65758e-05
1.5784e-05
8.09088e-05
2.26891e-05
2.25891e-05
7.26909e-05
1.65769e-05
1.58856e-05
8.02858e-05
2.27935e-05
2.2544e-05
7.30814e-05
0.000461957
0.000568004
9.864e-05
0.000145406
0.00046045
0.000564816
9.89314e-05
0.000144335
1.2087e-06
1.24001e-06
1.23773e-06
1.22157e-06
1.15953e-06
1.16451e-06
1.19117e-06
1.19922e-06
1.14989e-06
1.15323e-06
9.71007e-07
9.65987e-07
9.27702e-07
1.01914e-06
9.33318e-07
9.87047e-07
9.27451e-07
1.01856e-06
9.33329e-07
9.87238e-07
9.67593e-07
9.62946e-07
9.98015e-07
1.01601e-06
9.16337e-07
9.16277e-07
9.98725e-07
1.01192e-06
9.1693e-07
9.13191e-07
1.05488e-06
1.01237e-06
1.05925e-06
1.01266e-06
0.00122725
0.00117868
0.000345741
0.000500319
0.000504367
0.000413535
0.000441032
0.000152755
0.000270434
0.000961677
0.000428192
0.000651282
0.000952984
0.000152578
0.00026886
0.000961461
0.000426563
0.000650339
0.000950378
0.00106239
0.00105964
3.85163e-05
3.04294e-05
3.8227e-05
3.06291e-05
5.24785e-05
7.45348e-05
5.27986e-05
7.40318e-05
1.23912e-06
1.24248e-06
1.2378e-06
1.18242e-06
1.18322e-06
1.18896e-06
1.18867e-06
1.18505e-06
1.18628e-06
1.14488e-06
1.14712e-06
9.96404e-07
9.45964e-07
1.04124e-06
9.72759e-07
9.61661e-07
9.66012e-07
9.96776e-07
9.6255e-07
9.65873e-07
9.4646e-07
1.04101e-06
9.73765e-07
9.67178e-07
9.14869e-07
1.01155e-06
9.42732e-07
1.015e-06
9.63078e-07
9.40955e-07
9.16606e-07
0.00121761
0.000790348
4.13477e-05
4.77357e-05
4.7261e-05
5.6787e-05
5.52557e-05
0.000126087
0.000203085
0.00099866
0.000947424
0.000724283
0.00104557
0.000126804
0.000202164
0.000998549
0.000947993
0.000724981
0.00104528
0.000279393
0.000165615
0.000969095
0.000850423
0.000289503
0.000167509
0.000964355
0.000842048
6.20641e-05
6.92605e-05
6.26274e-05
6.88526e-05
1.24108e-06
1.24247e-06
1.23231e-06
1.19166e-06
1.19303e-06
1.20664e-06
1.20726e-06
1.15528e-06
1.15609e-06
9.82056e-07
9.72265e-07
9.54686e-07
1.0228e-06
9.88346e-07
1.0032e-06
9.82549e-07
9.78719e-07
9.55166e-07
1.02424e-06
9.89343e-07
1.00389e-06
9.36108e-07
9.53773e-07
9.55519e-07
9.17054e-07
9.51422e-07
9.17644e-07
9.3793e-07
9.56284e-07
0.00116558
6.98667e-05
4.03395e-05
3.1778e-05
2.88414e-05
3.82414e-05
6.84822e-05
6.49315e-05
2.22771e-05
5.1436e-05
6.09081e-05
2.101e-05
5.08999e-05
6.01432e-05
0.000489915
0.000264337
0.00109032
0.00104417
0.000967676
0.00112409
0.000491693
0.00026449
0.0010896
0.00104622
0.000968808
0.00112435
0.000112298
0.000166592
0.000113272
0.000163862
1.24481e-06
1.24145e-06
1.22507e-06
1.18664e-06
1.18913e-06
1.16693e-06
1.16837e-06
1.02166e-06
9.67886e-07
1.0573e-06
1.015e-06
9.65321e-07
9.5494e-07
1.02415e-06
9.66174e-07
9.5545e-07
9.68705e-07
1.05874e-06
1.01585e-06
9.66978e-07
9.64312e-07
1.0047e-06
9.65151e-07
9.73291e-07
9.64489e-07
1.00608e-06
9.65831e-07
6.28123e-07
8.43017e-07
6.35317e-07
8.43839e-07
0.000267293
0.000245908
4.54928e-05
9.61997e-05
4.03562e-05
9.7266e-05
0.000115092
0.000115992
8.49514e-05
1.7216e-05
1.01471e-05
1.80933e-05
1.46752e-05
3.68169e-05
0.000116903
7.49303e-05
1.69743e-05
8.58436e-05
1.01738e-05
1.7751e-05
1.45323e-05
3.70504e-05
0.00010702
8.02496e-05
0.000638644
0.000720789
0.000629788
0.000710526
1.99817e-05
2.2672e-05
2.01631e-05
2.26744e-05
1.24575e-06
1.24221e-06
1.19814e-06
1.19317e-06
1.19329e-06
1.19834e-06
1.20912e-06
1.20997e-06
1.17551e-06
1.02452e-06
9.73009e-07
1.17583e-06
1.0379e-06
9.73401e-07
1.0276e-06
1.09472e-06
1.00745e-06
1.01164e-06
1.0372e-06
1.00873e-06
1.11009e-06
1.01249e-06
1.03144e-06
9.50055e-07
9.32036e-07
8.95965e-07
1.03083e-06
9.49455e-07
9.47802e-07
8.96554e-07
0.00104166
0.000703349
0.000101045
0.000118993
0.000166912
0.00025564
0.00011774
0.000135306
0.000160427
0.000294686
0.000241256
0.000239765
3.24244e-05
0.000103443
1.67192e-05
1.54923e-05
1.46871e-05
5.67662e-05
3.38655e-05
1.67204e-05
0.000106931
1.47909e-05
1.39639e-05
5.93239e-05
6.6295e-05
3.62121e-05
6.87707e-05
3.83879e-05
1.23981e-06
1.2411e-06
1.19351e-06
1.18782e-06
1.18824e-06
1.19447e-06
1.21753e-06
1.21662e-06
1.12326e-06
1.0463e-06
9.89457e-07
9.96487e-07
9.83632e-07
1.04036e-06
1.07516e-06
1.0204e-06
1.12518e-06
1.04527e-06
9.90152e-07
1.00937e-06
9.84073e-07
1.04164e-06
1.07844e-06
1.02193e-06
1.07067e-06
1.02524e-06
1.00115e-06
9.80888e-07
1.06374e-06
1.00145e-06
1.04088e-06
9.81507e-07
0.00119972
0.00120455
0.000815247
0.00081583
0.00120399
0.00120592
0.00120541
0.000238263
0.000167845
0.000143224
0.000159318
0.000166771
0.000122465
0.000182621
0.000182994
0.000938638
0.000427743
0.000526924
0.000228543
0.000166805
0.000135912
0.000114574
0.000159612
0.000230884
0.000171415
0.00018148
0.000940538
0.000444047
0.000582915
5.4757e-05
0.000100666
4.3008e-05
9.10779e-05
5.50325e-05
0.000103523
4.40351e-05
9.26399e-05
1.23987e-06
1.2381e-06
1.19368e-06
1.18959e-06
1.03351e-06
1.08088e-06
1.18959e-06
1.03403e-06
1.08053e-06
1.19654e-06
1.19587e-06
1.1996e-06
1.06146e-06
1.12147e-06
1.04768e-06
1.01616e-06
8.26083e-07
1.03683e-06
1.06415e-06
1.12092e-06
1.04371e-06
8.357e-07
1.01655e-06
1.03676e-06
8.53069e-07
8.80947e-07
9.16397e-07
8.81477e-07
0.00120217
0.00119519
0.00121876
0.00119515
0.0012184
0.00120567
0.00120481
8.0817e-05