/*--------------------------------*- C++ -*----------------------------------*\
| =========                 |                                                 |
| \\      /  F ield         | OpenFOAM: The Open Source CFD Toolbox           |
|  \\    /   O peration     | Version:  5.x                                   |
|   \\  /    A nd           | Web:      www.OpenFOAM.org                      |
|    \\/     M anipulation  |                                                 |
\*---------------------------------------------------------------------------*/
FoamFile
{
    version     2.0;
    format      ascii;
    class       volVectorField;
    location    "2.2";
    object      U;
}
// * * * * * * * * * * * * * * * * * * * * * * * * * * * * * * * * * * * * * //

dimensions      [0 1 -1 0 0 0 0];

internalField   nonuniform List<vector> 
12160
(
(0.150259 0 0.000213228)
(0.135266 0 0.00153248)
(0.150238 0 -0.00227202)
(0.142648 0 0.00347054)
(0.13521 0 -0.00316807)
(0.149842 0 -0.0015318)
(0.138988 0 0.00465024)
(0.14253 0 -0.00265358)
(0.134595 0 0.000147783)
(0.149312 0 -0.00414185)
(0.131996 0 0.00485718)
(0.138871 0 -0.000671381)
(0.142469 0 0.00445936)
(0.133608 0 -0.00512566)
(0.148396 0 -0.00195963)
(0.123119 0 0.00461863)
(0.131353 0 0.00154503)
(0.139062 0 0.00899874)
(0.140631 0 -0.0022163)
(0.132107 0 -0.00060266)
(0.146613 0 -0.0046253)
(0.113968 0 0.00424672)
(0.122884 0 0.0032188)
(0.132171 0 0.0111598)
(0.136848 0 0.00297358)
(0.140332 0 0.00595556)
(0.128541 0 -0.00706366)
(0.145097 0 0.000889462)
(0.104276 0 0.00409069)
(0.113935 0 0.00406506)
(0.123739 0 0.0122103)
(0.12938 0 0.00770172)
(0.136791 0 0.0131676)
(0.134973 0 -0.0017153)
(0.126541 0 6.50435e-05)
(0.138569 0 -0.00132515)
(0.093655 0 0.00409469)
(0.104442 0 0.00506592)
(0.114486 0 0.0123852)
(0.12227 0 0.0107837)
(0.130632 0 0.0170257)
(0.129966 0 0.00607395)
(0.135521 0 0.00873481)
(0.10969 0 -0.00853065)
(0.0739048 0 0.0144978)
(0.0818455 0 0.00431265)
(0.0939931 0 0.00604719)
(0.105182 0 0.0130682)
(0.113718 0 0.0122401)
(0.123957 0 0.019302)
(0.125755 0 0.0126483)
(0.131213 0 0.015497)
(0.11827 0 -0.00101759)
(0.05021 0 0.00329256)
(-0.189644 0 -0.0599887)
(0.0684855 0 0.00466796)
(0.0823207 0 0.00724089)
(0.0948126 0 0.0141351)
(0.105162 0 0.0138841)
(0.115496 0 0.0200677)
(0.121405 0 0.0172685)
(0.127907 0 0.0204391)
(0.114362 0 0.00821332)
(0.0710306 0 0.00980131)
(-0.226227 0 -0.0100862)
(0.00910327 0 0.163652)
(0.053439 0 0.00506949)
(0.0690226 0 0.00858429)
(0.0832437 0 0.0158621)
(0.0953033 0 0.0158613)
(0.106643 0 0.0214887)
(0.114496 0 0.0198569)
(0.12336 0 0.0244205)
(0.116093 0 0.0165631)
(0.091455 0 0.0132642)
(-0.308365 0 -0.0144719)
(0.265922 0 0.0411276)
(0.00511591 0 -0.158938)
(0.0370673 0 0.00537625)
(0.0539378 0 0.00992876)
(0.0699884 0 0.0180489)
(0.0841477 0 0.0184811)
(0.0966963 0 0.0237565)
(0.106683 0 0.0223339)
(0.115981 0 0.026682)
(0.116728 0 0.0236666)
(0.103215 0 0.0176642)
(-0.303068 0 -0.00533178)
(0.0296946 0 0.04254)
(0.128885 0 0.00270859)
(-0.10238 0 0.0939076)
(0.0199076 0 0.00536233)
(0.0373484 0 0.0109744)
(0.0548005 0 0.0203733)
(0.0711376 0 0.0216478)
(0.0858138 0 0.0270581)
(0.0977493 0 0.025175)
(0.10784 0 0.0290138)
(0.113354 0 0.0276101)
(0.11712 0 0.0232899)
(-0.22418 0 0.00611275)
(-0.0741156 0 -0.0129247)
(0.0679839 0 0.127623)
(-0.137428 0 0.00411331)
(0.0517302 0 -0.0446332)
(0.00342983 0 0.00492094)
(0.0198923 0 0.0113049)
(0.0379274 0 0.0222046)
(0.0558853 0 0.025012)
(0.0730466 0 0.0313721)
(0.0877028 0 0.029249)
(0.0987438 0 0.0321409)
(0.108393 0 0.0311098)
(0.122698 0 0.0271216)
(-0.139551 0 0.0167418)
(-0.133237 0 -0.0482566)
(0.068814 0 0.0532607)
(-0.0293561 0 0.0577463)
(0.0866894 0 -0.0105899)
(-0.0609705 0 0.0235588)
(-0.011306 0 0.0041727)
(0.00291358 0 0.0106906)
(0.0201086 0 0.0227376)
(0.0384429 0 0.027726)
(0.057738 0 0.0361746)
(0.0754677 0 0.0347969)
(0.0891768 0 0.0367192)
(0.102015 0 0.034533)
(0.127664 0 0.0310534)
(-0.0940909 0 0.0238887)
(-0.158076 0 -0.0270926)
(0.0452461 0 0.0273827)
(0.00435261 0 0.00321867)
(0.0501529 0 0.0820994)
(-0.0949724 0 -0.00768798)
(-0.0229649 0 0.00316022)
(-0.0123001 0 0.00926802)
(0.0024773 0 0.0214515)
(0.0195342 0 0.0287078)
(0.0397347 0 0.04016)
(0.0601123 0 0.0411984)
(0.0775249 0 0.043129)
(0.094884 0 0.0399508)
(0.132681 0 0.0350677)
(-0.0275581 0 0.0271981)
(-0.190284 0 -0.0166771)
(0.0240801 0 0.0310318)
(-0.00667693 0 -0.0166028)
(0.0382383 0 0.0365638)
(-0.0391358 0 0.060274)
(-0.03015 0 0.00192402)
(-0.0240752 0 0.00663518)
(-0.0135352 0 0.0184307)
(0.000692226 0 0.0272671)
(0.0199926 0 0.0418355)
(0.041132 0 0.0466878)
(0.062195 0 0.0509251)
(0.0851276 0 0.048876)
(0.136725 0 0.0415832)
(0.0387964 0 0.0306851)
(-0.213809 0 -0.0239244)
(0.0276167 0 0.040158)
(-0.00224267 0 -0.0124197)
(0.0162011 0 0.0233161)
(-0.0190937 0 0.0214993)
(-0.0324063 0 0.000754853)
(-0.0313264 0 0.00308012)
(-0.0261848 0 0.0136472)
(-0.0164126 0 0.0234475)
(-0.00010174 0 0.0401675)
(0.01966 0 0.0491222)
(0.0422621 0 0.0577803)
(0.0705572 0 0.0604695)
(0.134314 0 0.0520668)
(0.0930354 0 0.0395915)
(-0.238739 0 -0.0141125)
(0.0299981 0 0.0357576)
(0.00800643 0 -0.00864419)
(0.00228186 0 0.0166514)
(-0.00807566 0 0.0090532)
(-0.0297081 0 -0.000606502)
(-0.0337067 0 -0.00103365)
(-0.0341551 0 0.00756551)
(-0.0298317 0 0.016871)
(-0.0188788 0 0.0349183)
(-0.00272397 0 0.0471598)
(0.0191396 0 0.0612902)
(0.0495568 0 0.0710555)
(0.122681 0 0.0653394)
(0.126254 0 0.0553635)
(-0.10741 0 0.00063265)
(0.0390216 0 -0.0131061)
(0.0295966 0 -0.0130996)
(-0.00497663 0 0.0177999)
(-0.000994635 0 0.00405639)
(-0.0223247 0 -0.00191753)
(-0.0310943 0 -0.0050585)
(-0.0367758 0 0.000886635)
(-0.0381517 0 0.00824271)
(-0.0340758 0 0.0260086)
(-0.0236667 0 0.0405758)
(-0.00508384 0 0.0600367)
(0.0233585 0 0.0766872)
(0.101016 0 0.0773778)
(0.135676 0 0.0763652)
(0.0152245 0 0.0326411)
(0.0401426 0 -0.0718001)
(0.0370815 0 -0.0114759)
(-0.0120187 0 0.0103466)
(0.00678692 0 0.00520528)
(-0.0109343 0 -0.00301265)
(-0.0236135 0 -0.0088306)
(-0.0339609 0 -0.00599086)
(-0.0410835 0 -0.00145849)
(-0.0438309 0 0.0144955)
(-0.0404707 0 0.0292735)
(-0.0285667 0 0.0536287)
(-0.00583829 0 0.0751287)
(0.0703993 0 0.0845735)
(0.120826 0 0.0962622)
(0.0769983 0 0.0716681)
(0.0426254 0 -0.0314303)
(0.00590371 0 -0.011078)
(-0.0103165 0 -0.011335)
(0.0169603 0 -0.00225614)
(0.00379189 0 -0.00387138)
(-0.0120192 0 -0.0121603)
(-0.0262794 0 -0.0124669)
(-0.0384759 0 -0.0111954)
(-0.0472408 0 0.00158494)
(-0.0510069 0 0.014569)
(-0.0480362 0 0.0411762)
(-0.0349479 0 0.0656341)
(0.0328616 0 0.0846288)
(0.0865532 0 0.109921)
(0.0877765 0 0.103462)
(0.0595628 0 0.0424478)
(-0.0307072 0 0.0150536)
(-0.00915453 0 -0.0305954)
(0.015599 0 -0.0065903)
(0.0208612 0 -0.00448397)
(0.00294876 0 -0.0147734)
(-0.0143103 0 -0.0180677)
(-0.0304037 0 -0.0203872)
(-0.0443365 0 -0.0115315)
(-0.054994 0 -0.00168204)
(-0.0605115 0 0.0234185)
(-0.0585611 0 0.0470069)
(-0.00340683 0 0.0762144)
(0.045835 0 0.11135)
(0.0584647 0 0.122889)
(0.0657547 0 0.108901)
(-0.0283736 0 0.0482265)
(-0.013608 0 -0.0050034)
(0.000390788 0 -0.014559)
(0.039072 0 -0.00481809)
(0.0203043 0 -0.0166606)
(0.00118034 0 -0.0224284)
(-0.0177183 0 -0.0284212)
(-0.0359046 0 -0.0238041)
(-0.0523258 0 -0.017858)
(-0.0648747 0 0.0031349)
(-0.0735573 0 0.0230079)
(-0.0336497 0 0.0590675)
(0.00705838 0 0.0985311)
(-0.002285 0 0.12541)
(0.0679542 0 0.15894)
(0.00164339 0 0.0869647)
(-0.0172807 0 0.0399163)
(-0.0150893 0 0.00990222)
(0.0575952 0 -0.0048635)
(0.0388416 0 -0.0176839)
(0.0191337 0 -0.0255652)
(-0.00141105 0 -0.0347905)
(-0.0225133 0 -0.0344153)
(-0.0431395 0 -0.0330166)
(-0.0616429 0 -0.0177975)
(-0.079702 0 -0.0018629)
(-0.0561285 0 0.0351657)
(-0.0241148 0 0.073218)
(-0.0684352 0 0.112235)
(0.0595807 0 0.176972)
(0.0385603 0 0.125082)
(-0.0171268 0 0.0848894)
(-0.0173087 0 0.0415605)
(0.0756158 0 -0.0046685)
(0.057678 0 -0.0178724)
(0.0383303 0 -0.0272233)
(0.0174807 0 -0.0393455)
(-0.00516115 0 -0.042704)
(-0.0284451 0 -0.0461341)
(-0.051804 0 -0.0375844)
(-0.0771754 0 -0.0253739)
(-0.0682122 0 0.00606564)
(-0.0395692 0 0.0400344)
(-0.116735 0 0.0831779)
(0.0499712 0 0.161899)
(0.0702299 0 0.139599)
(-0.00568105 0 0.122125)
(-0.0130781 0 0.0802822)
(0.0923803 0 -0.00422227)
(0.0759908 0 -0.0172969)
(0.0578117 0 -0.0275389)
(0.037678 0 -0.0417585)
(0.015014 0 -0.0484402)
(-0.0095224 0 -0.0566927)
(-0.035878 0 -0.0545846)
(-0.0664365 0 -0.0469022)
(-0.0697992 0 -0.0249347)
(-0.0425397 0 0.00641898)
(-0.139803 0 0.0447215)
(0.0249254 0 0.117119)
(0.105954 0 0.13412)
(0.0132015 0 0.136439)
(-0.00637684 0 0.112667)
(0.107302 0 -0.00358609)
(0.0930196 0 -0.0161014)
(0.0766921 0 -0.0265397)
(0.0581289 0 -0.0421265)
(0.0366487 0 -0.0515339)
(0.0122756 0 -0.0641698)
(-0.0152638 0 -0.0674769)
(-0.048832 0 -0.0658321)
(-0.0616435 0 -0.0548206)
(-0.0375453 0 -0.0262482)
(-0.138728 0 0.00442652)
(-0.04542 0 0.0576105)
(0.135701 0 0.131528)
(0.0263147 0 0.122111)
(0.00276274 0 0.126365)
(0.120004 0 -0.00283927)
(0.108147 0 -0.0144169)
(0.0941818 0 -0.0244236)
(0.0779688 0 -0.0406662)
(0.0584579 0 -0.0519743)
(0.0355384 0 -0.0683338)
(0.00835485 0 -0.075983)
(-0.0252839 0 -0.0813268)
(-0.0454908 0 -0.0808355)
(-0.0293904 0 -0.0542794)
(-0.11745 0 -0.0331651)
(-0.123461 0 -0.00601498)
(0.165171 0 0.116349)
(0.0408885 0 0.0925457)
(0.0109372 0 0.118585)
(0.13026 0 -0.00208368)
(0.120977 0 -0.0123448)
(0.109713 0 -0.0214091)
(0.0963196 0 -0.0376625)
(0.0794349 0 -0.0499968)
(0.0590331 0 -0.0689829)
(0.0337349 0 -0.080539)
(0.00320634 0 -0.0920333)
(-0.0244995 0 -0.100997)
(-0.0199544 0 -0.0779058)
(-0.090245 0 -0.0658199)
(-0.161535 0 -0.0565421)
(0.173795 0 0.0634062)
(0.0669334 0 0.0537278)
(0.0124421 0 0.0987041)
(0.138008 0 -0.00128514)
(0.131305 0 -0.010035)
(0.122894 0 -0.0177882)
(0.112494 0 -0.0334636)
(0.0986956 0 -0.0459091)
(0.0817161 0 -0.0664474)
(0.0595869 0 -0.0810033)
(0.033848 0 -0.0982308)
(0.000608094 0 -0.114455)
(-0.00998809 0 -0.096953)
(-0.0641065 0 -0.093102)
(-0.152279 0 -0.0896203)
(0.169638 0 -0.0193603)
(0.0936066 0 0.0083011)
(0.00816999 0 0.0697187)
(0.143253 0 -0.000466938)
(0.139072 0 -0.00761612)
(0.133451 0 -0.0138392)
(0.126038 0 -0.0283714)
(0.115654 0 -0.0401112)
(0.102592 0 -0.0611961)
(0.0844877 0 -0.0777175)
(0.064029 0 -0.098807)
(0.0267241 0 -0.120186)
(-0.00197396 0 -0.110235)
(-0.0379738 0 -0.112652)
(-0.118702 0 -0.112758)
(0.136429 0 -0.091236)
(0.104652 0 -0.0284994)
(-0.00142891 0 0.0252336)
(0.146053 0 0.000411173)
(0.144338 0 -0.00517502)
(0.141314 0 -0.00976734)
(0.136763 0 -0.0227856)
(0.129876 0 -0.0331614)
(0.120781 0 -0.0540904)
(0.107059 0 -0.0711121)
(0.0909433 0 -0.0950819)
(0.0505921 0 -0.118667)
(0.00730267 0 -0.115921)
(-0.00959239 0 -0.125944)
(-0.0717225 0 -0.132689)
(0.0865943 0 -0.140066)
(0.0962161 0 -0.0496042)
(-0.00885257 0 -0.0244729)
(0.146547 0 0.00137647)
(0.147216 0 -0.00278753)
(0.146547 0 -0.00564213)
(0.144741 0 -0.0170295)
(0.141022 0 -0.0255959)
(0.135637 0 -0.0456119)
(0.12632 0 -0.061138)
(0.114832 0 -0.0877534)
(0.0736135 0 -0.110377)
(0.0227459 0 -0.116024)
(0.0248985 0 -0.136891)
(-0.0154284 0 -0.152763)
(0.0422643 0 -0.178836)
(0.0761909 0 -0.0743224)
(-0.00393114 0 -0.0616748)
(0.144874 0 0.00215471)
(0.147712 0 -0.000518375)
(0.149255 0 -0.0015294)
(0.15011 0 -0.0112954)
(0.14911 0 -0.0179496)
(0.146947 0 -0.0363965)
(0.142062 0 -0.0493875)
(0.135046 0 -0.0780622)
(0.0934899 0 -0.0968496)
(0.042926 0 -0.112411)
(0.0652657 0 -0.142679)
(0.0491822 0 -0.164659)
(0.0115466 0 -0.206821)
(0.0465425 0 -0.106517)
(0.00348118 0 -0.0895654)
(0.141203 0 0.00292134)
(0.145931 0 0.00178965)
(0.149764 0 0.00262318)
(0.153086 0 -0.00563359)
(0.154405 0 -0.0104214)
(0.155173 0 -0.0270744)
(0.153843 0 -0.0370889)
(0.149451 0 -0.0656777)
(0.109437 0 -0.0798631)
(0.0699272 0 -0.104906)
(0.114893 0 -0.142462)
(0.102402 0 -0.175156)
(-0.0155137 0 -0.217188)
(0.0178222 0 -0.134199)
(0.0068066 0 -0.118371)
(0.135584 0 0.00362877)
(0.142228 0 0.00399605)
(0.148075 0 0.00656911)
(0.153555 0 6.20422e-06)
(0.157168 0 -0.00307203)
(0.160578 0 -0.0181002)
(0.161667 0 -0.025753)
(0.158669 0 -0.0513565)
(0.121232 0 -0.0609022)
(0.104648 0 -0.093135)
(0.169857 0 -0.137623)
(0.146482 0 -0.182545)
(-0.0596492 0 -0.210246)
(-0.00980419 0 -0.139754)
(0.00461333 0 -0.142989)
(0.128657 0 0.00421345)
(0.136641 0 0.00594435)
(0.144207 0 0.0103292)
(0.151577 0 0.00556042)
(0.157716 0 0.00428287)
(0.163713 0 -0.00899537)
(0.167 0 -0.0149142)
(0.163033 0 -0.0376128)
(0.125647 0 -0.0423247)
(0.146218 0 -0.0767025)
(0.224314 0 -0.129412)
(0.163738 0 -0.178934)
(-0.109187 0 -0.191236)
(-0.0369546 0 -0.134774)
(0.000509604 0 -0.152077)
(0.120225 0 0.00462776)
(0.129729 0 0.00756564)
(0.138385 0 0.013707)
(0.147558 0 0.0107731)
(0.155847 0 0.0116588)
(0.164423 0 0.000450484)
(0.170157 0 -0.00490452)
(0.163808 0 -0.0255618)
(0.122363 0 -0.0269926)
(0.195389 0 -0.0555277)
(0.294487 0 -0.119434)
(0.133116 0 -0.171403)
(-0.143531 0 -0.142454)
(-0.0522667 0 -0.133765)
(0.00298759 0 -0.153319)
(0.121129 0 0.00858894)
(0.106921 0 0.00540889)
(0.131189 0 0.0166877)
(0.141518 0 0.0153899)
(0.151413 0 0.0187367)
(0.162456 0 0.00970889)
(0.170762 0 0.00562183)
(0.162612 0 -0.0123986)
(0.114899 0 -0.0155223)
(0.245172 0 -0.0330418)
(0.354805 0 -0.104178)
(0.0331611 0 -0.150333)
(-0.152838 0 -0.0705128)
(-0.0588351 0 -0.13692)
(0.00903857 0 -0.152077)
(0.122335 0 0.0188783)
(0.10721 0 0.01022)
(0.0803926 0 0.00540621)
(0.133906 0 0.0193353)
(0.144764 0 0.0251575)
(0.157928 0 0.0183708)
(0.168117 0 0.0170993)
(0.159717 0 0.00171947)
(0.108867 0 -0.00391018)
(0.28696 0 -0.0172014)
(0.390106 0 -0.0825398)
(-0.0568417 0 -0.102212)
(-0.146409 0 -0.0269976)
(-0.057847 0 -0.13619)
(0.0137333 0 -0.140054)
(0.124756 0 0.0222642)
(0.107736 0 0.0220767)
(0.0801572 0 0.0103718)
(0.0656361 0 0.00475611)
(0.136428 0 0.0307222)
(0.150925 0 0.0259666)
(0.16213 0 0.0284468)
(0.153943 0 0.0156166)
(0.105838 0 0.0100508)
(0.319979 0 -0.00618699)
(0.390043 0 -0.0625077)
(-0.13504 0 -0.0484188)
(-0.13792 0 -0.0143868)
(-0.0445867 0 -0.121286)
(0.0147778 0 -0.114348)
(0.126626 0 0.0350618)
(0.109125 0 0.0263156)
(0.0796896 0 0.0224873)
(0.0641086 0 0.00867271)
(0.0445978 0 0.00229208)
(0.141875 0 0.0322496)
(0.153311 0 0.0389044)
(0.145136 0 0.028192)
(0.104453 0 0.0251346)
(0.340621 0 0.00518523)
(0.365608 0 -0.0397694)
(-0.171392 0 -0.00529381)
(-0.12071 0 -0.0189398)
(-0.0230109 0 -0.0950532)
(0.00585634 0 -0.08621)
(0.131452 0 0.0371019)
(0.110041 0 0.0410706)
(0.0792323 0 0.0270229)
(0.0628589 0 0.0200417)
(0.0405325 0 0.0029225)
(0.0541927 0 -0.00205069)
(0.142498 0 0.0477389)
(0.133643 0 0.0387225)
(0.103231 0 0.040261)
(0.343019 0 0.0193762)
(0.310398 0 -0.00485347)
(-0.182587 0 0.0447613)
(-0.108918 0 -0.0280358)
(-0.0101284 0 -0.0596838)
(-0.0101658 0 -0.0628487)
(0.130401 0 0.0549209)
(0.112959 0 0.04359)
(0.0786111 0 0.0427693)
(0.0595694 0 0.0236889)
(0.0381742 0 0.0105967)
(0.0470202 0 -0.00729842)
(0.0640594 0 -0.0118144)
(0.120576 0 0.0468951)
(0.100171 0 0.0540998)
(0.323931 0 0.0339806)
(0.238435 0 0.039938)
(-0.17716 0 0.0902109)
(-0.0996455 0 -0.022195)
(-0.0036687 0 -0.0242783)
(-0.0207532 0 -0.0431354)
(0.105973 0 0.0532344)
(0.110085 0 0.0639855)
(0.0782379 0 0.0461597)
(0.056812 0 0.0388819)
(0.0317115 0 0.0127841)
(0.0405833 0 -0.00285235)
(0.0431098 0 -0.0296734)
(0.133347 0 -0.0096033)
(0.0961785 0 0.0653313)
(0.287131 0 0.0477901)
(0.16925 0 0.0849875)
(-0.165128 0 0.120832)
(-0.0811113 0 -0.00102213)
(-0.00719721 0 0.0127261)
(-0.0265722 0 -0.022486)
(0.088046 0 0.0744394)
(0.0830957 0 0.0620793)
(0.0723868 0 0.0682647)
(0.0534465 0 0.0419745)
(0.0265907 0 0.0276748)
(0.0245469 0 -0.00367403)
(0.0274884 0 -0.0399155)
(0.106745 0 -0.0517194)
(0.171868 0 -0.0354163)
(0.247957 0 0.0601007)
(0.113246 0 0.116883)
(-0.147077 0 0.129393)
(-0.0591387 0 0.0298457)
(-0.0211193 0 0.0457215)
(-0.0259297 0 -0.00168613)
(0.210732 0 0.0685139)
(0.0807833 0 0.0839607)
(0.0445455 0 0.0672536)
(0.0453043 0 0.0631311)
(0.0196138 0 0.0320668)
(0.01096 0 0.0102763)
(0.00379373 0 -0.0447112)
(0.0660488 0 -0.0727336)
(0.144682 0 -0.0844374)
(0.34013 0 -0.00885986)
(0.0814679 0 0.126057)
(-0.120498 0 0.119044)
(-0.0394601 0 0.058499)
(-0.0287921 0 0.0710881)
(-0.015698 0 0.0255217)
(0.0503774 0 0.127367)
(0.168012 0 0.0827863)
(0.0472158 0 0.0905512)
(0.0154247 0 0.0626494)
(0.00942789 0 0.0555756)
(-0.00383207 0 0.0149345)
(-0.015684 0 -0.0337568)
(0.0196583 0 -0.103568)
(0.12054 0 -0.132474)
(0.298909 0 -0.0136773)
(0.18797 0 0.0281384)
(-0.0974992 0 0.110397)
(-0.0266029 0 0.0787989)
(-0.0293525 0 0.0867371)
(-0.0057653 0 0.0514189)
(-0.0826204 0 0.111713)
(0.0232215 0 0.137812)
(0.0945521 0 0.0975299)
(0.0131789 0 0.0856183)
(-0.0211889 0 0.0583743)
(-0.02134 0 0.0437491)
(-0.0490182 0 -0.0229464)
(-0.0352948 0 -0.100336)
(0.0530691 0 -0.166721)
(0.200267 0 -0.0604144)
(0.194058 0 0.0350675)
(0.296763 0 1.50283)
(-0.0255459 0 0.0935952)
(-0.0266386 0 0.0955856)
(0.000539456 0 0.0721444)
(-0.0286121 0 0.107303)
(-0.0773914 0 0.108995)
(-0.00815102 0 0.150815)
(0.0298452 0 0.0960357)
(-0.0310711 0 0.0848362)
(-0.0560764 0 0.0510548)
(-0.0748888 0 0.0246358)
(-0.10961 0 -0.0799927)
(-0.0518219 0 -0.198642)
(0.137756 0 -0.144438)
(0.279315 0 0.0391895)
(0.353829 0 1.25127)
(0.545424 2.23847e-27 1.59468)
(0.195238 0 1.8462)
(-0.0246443 0 0.102944)
(0.00323214 0 0.0879221)
(-0.0227723 0 0.114307)
(-0.0395629 0 0.131062)
(-0.0991097 0 0.133471)
(-0.0778581 0 0.146646)
(-0.0320435 0 0.0996356)
(-0.0764043 0 0.0789589)
(-0.103375 0 0.0487504)
(-0.158406 0 -0.00591769)
(-0.222649 0 -0.172202)
(-0.0361553 0 -0.227754)
(0.299655 0 -0.00637717)
(0.312473 0 1.03061)
(0.687062 1.21034e-27 1.52599)
(0.564126 -5.83798e-30 1.37187)
(0.370434 3.34592e-27 1.73423)
(0.126347 0 1.99576)
(0.00236986 0 0.100413)
(-6.65605e-05 0 0.114773)
(-0.0268257 0 0.130942)
(-0.0730768 0 0.170734)
(-0.159683 0 0.166494)
(-0.189787 0 0.152571)
(-0.0990188 0 0.0904901)
(-0.116904 0 0.083033)
(-0.168488 0 0.04324)
(-0.296647 0 -0.105711)
(-0.274519 0 -0.206909)
(0.0703693 0 0.00139002)
(0.254375 0 0.687626)
(0.786282 0 1.40938)
(0.683646 0 1.39137)
(0.606287 2.54707e-26 1.16847)
(0.503637 -6.30096e-30 1.43793)
(0.309886 3.64288e-27 1.82755)
(0.110909 0 2.2278)
(-0.0052811 0 0.137071)
(-0.0433177 0 0.175866)
(-0.137132 0 0.212779)
(-0.282017 0 0.245981)
(-0.421189 0 0.153994)
(-0.146968 0 0.085479)
(-0.153136 0 0.0883733)
(-0.269307 0 -0.00734763)
(-0.459897 0 -0.182856)
(-0.314634 0 -0.11049)
(0.0911137 0 0.585276)
(0.732366 0 1.22798)
(0.803002 0 1.34473)
(0.684006 7.21787e-26 1.1096)
(0.757342 -7.19194e-30 1.04986)
(0.614336 2.97623e-26 1.32196)
(0.481184 0 1.58021)
(0.241418 0 2.01161)
(0.0471645 0 2.333)
(-0.0159513 0 0.189346)
(-0.0867921 0 0.241067)
(-0.246568 0 0.31218)
(-0.494645 0 0.415229)
(-0.986587 0 0.180677)
(-0.261605 0 0.0679128)
(-0.13833 0 0.093813)
(-0.535212 0 -0.0746505)
(-0.536517 0 -0.160513)
(-0.040696 0 0.317815)
(0.571073 0 1.00855)
(0.839225 -1.03171e-26 1.22383)
(0.839768 5.508e-26 1.11869)
(0.775412 0 0.956411)
(0.924279 1.65975e-25 0.919778)
(0.778887 -8.64511e-30 1.26821)
(0.593318 9.23899e-26 1.46907)
(0.408343 0 1.68881)
(0.167961 0 2.0918)
(0.0478552 0 2.41944)
(-0.0361186 0 0.266854)
(-0.171421 0 0.365017)
(-0.384872 0 0.506757)
(-0.989261 0 0.466005)
(-1.24447 0 0.153212)
(-0.250065 0 0.156955)
(-0.473308 0 0.0316569)
(-0.642914 0 -0.120101)
(-0.407883 0 0.179771)
(0.22223 0 0.630414)
(0.739085 -1.88492e-26 1.09745)
(0.921605 0 1.06702)
(0.905699 -1.2439e-25 0.922064)
(0.896554 -2.57121e-25 0.728466)
(1.1116 5.18353e-10 0.824747)
(0.992512 0 1.12872)
(0.744433 0 1.3958)
(0.523068 1.11928e-25 1.5706)
(0.324448 -8.53918e-27 1.80071)
(0.0834213 0 2.21786)
(-0.00534252 0 2.45067)
(-0.0725042 0 0.41115)
(-0.295623 0 0.566561)
(-0.586307 0 0.672952)
(-1.43337 0 0.206051)
(-1.16501 0 0.183325)
(-0.399958 0 0.23853)
(-0.68128 0 -0.115883)
(-0.579906 0 -0.00934498)
(-0.164939 0 0.439684)
(0.563228 2.96831e-42 0.903947)
(0.906331 0 0.979519)
(0.984619 2.34018e-25 0.846339)
(0.978721 -1.49863e-24 0.701235)
(1.01876 -2.48039e-10 0.660786)
(1.23592 2.20032e-09 0.650646)
(1.13193 -5.7094e-10 0.954036)
(1.233 7.39024e-10 0.650756)
(1.20272 2.73656e-09 0.587799)
(1.19849 4.71323e-10 0.591717)
(0.907975 5.83252e-25 1.26449)
(0.641109 3.25095e-25 1.54677)
(0.434956 4.27831e-26 1.68609)
(0.212117 -6.02223e-27 1.91084)
(-0.0161981 0 2.23901)
(-0.0515856 0 2.41114)
(-0.132689 0 0.610706)
(-0.361443 0 0.764726)
(-1.09128 0 0.393066)
(-1.50655 0 0.0823406)
(-1.09375 0 0.235659)
(-0.523158 0 -0.0156475)
(-0.570842 0 -0.148837)
(-0.29607 0 0.113918)
(0.185197 3.93933e-42 0.650897)
(0.793593 0 0.852269)
(0.983234 0 0.714003)
(1.16462 1.24763e-26 0.679854)
(1.02277 -4.2972e-25 0.505713)
(1.23253 -4.24393e-10 0.484344)
(1.28661 2.42004e-09 0.777057)
(1.32545 3.99408e-09 0.526925)
(1.06674 -1.9853e-09 1.14149)
(1.28414 9.78648e-10 0.776496)
(1.3236 1.95054e-09 0.816154)
(1.32256 7.73192e-10 0.814774)
(1.31867 4.26939e-10 0.52685)
(1.26785 3.38787e-09 0.447791)
(1.26125 2.9166e-10 0.449818)
(0.818804 3.57424e-25 1.48441)
(0.573458 -8.0957e-25 1.66728)
(0.309685 0 1.79347)
(0.0727533 4.21785e-27 1.97763)
(-0.12626 0 2.26649)
(-0.0957884 0 2.28692)
(-0.17737 0 0.770527)
(-0.505866 0 0.598898)
(-1.3053 0 0.116462)
(-1.38081 0 -0.00761786)
(-0.90893 0 0.110315)
(-0.661591 0 -0.292726)
(-0.3268 0 -0.00566813)
(-0.118943 -4.84349e-27 0.231959)
(0.604808 8.58207e-27 0.6648)
(0.845403 7.91649e-26 0.56431)
(1.18895 0 0.595307)
(1.14414 -3.52204e-24 0.405391)
(1.25251 -2.56901e-09 0.397751)
(1.2234 -2.03057e-10 0.280555)
(1.21946 -2.70577e-10 0.27936)
(1.25441 3.74587e-10 0.262248)
(1.25378 3.19703e-10 0.260313)
(1.358 4.0793e-09 0.576185)
(1.38425 1.57866e-09 0.39378)
(1.0307 1.6354e-24 1.3134)
(1.36604 8.06355e-10 0.854308)
(1.35178 5.2104e-10 0.574941)
(1.35763 3.62695e-09 0.593078)
(1.35288 5.44568e-10 0.591007)
(1.37737 -1.80011e-09 0.390958)
(1.31145 1.1964e-09 0.359592)
(1.3032 -2.05243e-09 0.359044)
(0.724673 -2.38734e-24 1.62906)
(0.420217 0 1.80173)
(0.132912 0 1.86484)
(-0.105522 1.25338e-26 2.01896)
(-0.250603 0 2.17794)
(-0.142148 0 2.10359)
(-0.161752 0 0.581323)
(-0.671715 0 0.191676)
(-1.19771 0 -0.143576)
(-0.990966 0 -0.315839)
(-0.613614 0 -0.073617)
(-0.652449 0 -0.210519)
(-0.197532 0 0.0749729)
(0.311229 5.31305e-27 0.426574)
(0.648275 0 0.452279)
(1.11104 3.42112e-25 0.481187)
(1.24801 -4.86635e-25 0.312978)
(1.34878 -1.61936e-09 0.291099)
(1.27603 4.92092e-11 0.207256)
(1.27651 2.68481e-10 0.206763)
(1.30343 3.72365e-10 0.143428)
(1.30394 2.87242e-10 0.143191)
(1.28214 -1.90572e-09 0.129766)
(1.28095 5.94905e-10 0.129539)
(1.32843 -7.72613e-10 0.133624)
(1.32745 2.15001e-10 0.133278)
(1.40041 1.20414e-09 0.409777)
(1.50916 2.07785e-08 0.212214)
(1.27614 2.50118e-08 0.186645)
(1.48152 1.54688e-08 0.206241)
(1.33334 3.54338e-09 0.202553)
(0.903219 -7.92909e-24 1.48587)
(1.25151 -8.87227e-11 0.990806)
(1.41988 9.39865e-10 0.54465)
(1.41998 1.72919e-10 0.546372)
(1.40182 -4.48886e-09 0.520295)
(1.40161 4.1843e-09 0.523749)
(1.39383 -7.57629e-10 0.408664)
(1.42484 1.83572e-09 0.441294)
(1.42048 -8.72602e-10 0.441696)
(1.50315 -8.96732e-09 0.212657)
(1.28703 -1.36111e-08 0.194861)
(1.47878 -1.09187e-09 0.208108)
(1.32624 -3.48049e-09 0.204341)
(1.47513 2.33385e-08 0.183015)
(1.2141 3.0126e-08 0.237331)
(1.43034 2.23034e-08 0.122839)
(1.30273 3.92465e-09 0.19503)
(1.46893 -1.24344e-08 0.183681)
(1.235 -1.57807e-08 0.237742)
(1.43133 -8.07245e-09 0.119437)
(1.29476 -3.894e-09 0.194265)
(0.539015 0 1.79398)
(0.207031 -5.44997e-25 1.87019)
(-0.0942542 0 1.89637)
(-0.294434 2.10405e-26 1.98988)
(-0.361969 0 2.0636)
(-0.174538 0 1.83499)
(-0.170981 0 0.209481)
(-0.584804 0 -0.323205)
(-0.743672 0 -0.480497)
(-0.698688 0 -0.334701)
(-0.623664 0 -0.323555)
(-0.41058 0 -0.132546)
(0.125342 0 0.140713)
(0.48484 0 0.261314)
(0.879207 3.94388e-25 0.301073)
(1.17072 8.68495e-25 0.227952)
(1.35036 -8.12272e-10 0.209452)
(1.35315 6.73589e-10 0.108157)
(1.35322 1.74677e-10 0.108174)
(1.38536 1.1957e-09 0.0440902)
(1.38484 1.55226e-10 0.0445989)
(1.36445 -3.33784e-09 0.0762823)
(1.36625 5.92904e-10 0.0775474)
(1.38265 -4.2942e-09 0.0214929)
(1.38404 4.24256e-10 0.0221242)
(1.20466 3.73748e-09 0.0045348)
(1.24957 3.9214e-09 0.179327)
(1.38514 3.29919e-09 -0.0210715)
(1.21039 3.8398e-09 0.0129641)
(1.39608 4.11578e-09 0.00604554)
(1.3966 4.44169e-09 -0.00547304)
(1.26384 -2.90291e-09 0.179514)
(1.20899 -1.15113e-09 0.00807529)
(1.38557 -3.57901e-09 -0.020658)
(1.21136 -2.45499e-09 0.0141339)
(1.39549 -4.60899e-09 0.00621798)
(1.39901 -3.87179e-09 -0.00561518)
(1.27928 4.68692e-09 -0.0335998)
(1.45061 6.78645e-09 -0.0274991)
(1.25616 3.5715e-09 -0.0218375)
(1.4288 5.92394e-09 -0.000254725)
(1.28199 -3.4489e-09 -0.0337169)
(1.45023 -4.74592e-09 -0.0273731)
(1.25653 -2.92713e-09 -0.0206174)
(1.42795 -4.83199e-09 0.000160102)
(1.55089 2.10525e-08 0.245644)
(1.32115 2.53219e-08 0.236999)
(1.5186 1.48772e-08 0.248978)
(1.38077 3.60369e-09 0.2349)
(1.44283 1.19316e-09 0.106525)
(1.34775 7.44232e-10 0.116156)
(1.45035 1.40709e-09 0.121247)
(1.35853 6.89735e-10 0.107493)
(0.68508 -1.45372e-23 1.62743)
(1.06708 1.09067e-09 1.17075)
(1.27207 8.28444e-10 0.690474)
(1.27241 4.01479e-10 0.690358)
(1.3085 2.82118e-10 0.639879)
(1.30959 2.77678e-10 0.64128)
(1.50813 -6.2373e-10 0.315345)
(1.50839 -1.29778e-09 0.314635)
(1.47954 -4.04017e-09 0.298883)
(1.47808 1.98053e-09 0.298782)
(1.54597 -9.00956e-09 0.246683)
(1.33421 -1.37311e-08 0.23654)
(1.51666 -1.38561e-09 0.248685)
(1.37583 -3.57594e-09 0.236028)
(1.5502 2.39233e-08 0.294185)
(1.32181 3.17841e-08 0.21021)
(1.52677 2.38177e-08 0.34434)
(1.38314 3.84647e-09 0.247508)
(1.54751 -1.23978e-08 0.295288)
(1.34724 -1.62981e-08 0.212989)
(1.52856 -8.09798e-09 0.34473)
(1.38407 -3.79485e-09 0.25137)
(1.43986 -5.98515e-11 0.10574)
(1.35884 -6.43151e-10 0.115959)
(1.45176 -5.57684e-11 0.121488)
(1.35413 -7.17456e-10 0.107022)
(1.42101 2.18659e-09 0.100095)
(1.33897 1.37565e-09 0.119154)
(1.4171 -1.59482e-09 0.0992544)
(1.3326 -1.43189e-09 0.11917)
(0.236199 -6.31172e-25 1.84662)
(-0.0803043 0 1.87221)
(-0.34598 0 1.88042)
(-0.506761 0 1.90646)
(-0.503128 0 1.82337)
(-0.194546 0 1.52041)
(-0.144166 0 -0.416848)
(-0.287761 0 -0.728832)
(-0.483635 0 -0.539418)
(-0.540315 0 -0.423132)
(-0.426026 0 -0.414659)
(-0.0385459 0 -0.0500069)
(0.326506 0 0.0880943)
(0.672126 0 0.158356)
(1.0403 2.46895e-25 0.148063)
(1.32952 -6.02047e-10 0.128123)
(1.42218 1.13415e-09 0.0361613)
(1.42164 4.70427e-11 0.0367876)
(1.46337 1.45979e-09 0.026089)
(1.46222 7.32765e-11 0.0270882)
(1.42673 -4.41383e-09 -0.011932)
(1.42746 1.1848e-09 -0.0112755)
(1.45006 -4.65192e-09 -0.0361838)
(1.45088 1.44089e-09 -0.0375921)
(1.31325 4.75679e-09 -0.0688165)
(1.47382 5.92951e-09 -0.0606188)
(1.31517 7.59039e-09 -0.0686301)
(1.47474 7.67893e-09 -0.0660856)
(1.3181 -3.27257e-09 -0.0687782)
(1.47435 -5.08743e-09 -0.0601885)
(1.32609 -4.04844e-09 -0.0690077)
(1.47622 -6.06195e-09 -0.065701)
(1.35848 9.292e-09 -0.112166)
(1.50439 8.00427e-09 -0.115701)
(1.33899 8.30339e-09 -0.100959)
(1.49162 7.99728e-09 -0.100546)
(1.37158 -4.58085e-09 -0.115231)
(1.50662 -5.05191e-09 -0.115796)
(1.35019 -4.39107e-09 -0.100291)
(1.4933 -5.98744e-09 -0.100365)
(1.30331 1.02464e-09 0.0650126)
(1.23198 4.47385e-11 -0.0375112)
(1.37155 3.03719e-11 -0.0351957)
(1.36795 1.57358e-09 -0.025182)
(1.24573 1.40696e-10 -0.056973)
(1.36918 1.10432e-10 -0.0296929)
(1.31487 -1.85299e-10 0.0660987)
(1.23568 -5.18402e-11 -0.0367798)
(1.37149 -1.051e-09 -0.0249906)
(1.37211 -1.26875e-10 -0.0345573)
(1.24574 -2.06787e-10 -0.0569124)
(1.3688 -3.12815e-10 -0.0295224)
(1.30896 1.865e-10 -0.088139)
(1.40568 4.43855e-10 -0.0790664)
(1.31186 1.88848e-10 -0.0714046)
(1.41999 5.00176e-10 -0.0744794)
(1.31106 -2.35648e-10 -0.0884945)
(1.40559 -3.5665e-10 -0.0792666)
(1.31219 -1.96182e-10 -0.0712043)
(1.41952 -4.56372e-10 -0.0742785)
(1.49789 1.15926e-09 0.150573)
(1.37687 1.02698e-09 0.127292)
(1.47352 1.4223e-09 0.136187)
(1.41727 7.88482e-10 0.133885)
(1.44604 2.96264e-10 0.0307989)
(1.40248 1.12251e-10 0.0302931)
(1.45004 5.3725e-10 0.0331378)
(1.40957 1.30249e-10 0.0303033)
(0.289767 0 1.69504)
(0.749212 1.93439e-09 1.29897)
(1.13886 1.8284e-09 0.772216)
(1.13787 2.74995e-10 0.771118)
(1.1971 5.90143e-10 0.759356)
(1.19678 2.13114e-10 0.758443)
(1.43259 -2.48187e-10 0.387561)
(1.43554 -2.26762e-09 0.384863)
(1.43291 6.33691e-11 0.371035)
(1.43504 -2.21697e-09 0.36906)
(1.41365 8.50282e-09 0.125419)
(1.60386 5.82272e-09 0.136014)
(1.4323 5.57584e-09 0.144412)
(1.61914 4.70419e-09 0.14865)
(1.41963 -3.81518e-09 0.126858)
(1.60426 -5.49036e-09 0.136086)
(1.43644 -3.16453e-09 0.143893)
(1.61951 -5.46869e-09 0.148324)
(1.41319 3.0407e-09 0.0358214)
(1.3585 3.45378e-09 0.050548)
(1.57742 2.20626e-09 0.092906)
(1.41195 4.58332e-09 0.108345)
(1.60819 4.14506e-09 0.124842)
(1.49481 4.76408e-09 0.256705)
(1.41802 -2.28072e-09 0.0330014)
(1.37517 -2.72218e-09 0.0534134)
(1.5783 -3.84036e-09 0.0919245)
(1.41439 -2.60366e-09 0.10825)
(1.60814 -5.52099e-09 0.124538)
(1.49808 -3.68373e-09 0.257052)
(1.49556 -1.22167e-10 0.149638)
(1.3854 -8.52386e-10 0.128007)
(1.47465 -3.45739e-10 0.136421)
(1.41397 -8.02921e-10 0.132747)
(1.52282 2.19886e-09 0.190736)
(1.44475 1.39783e-09 0.143232)
(1.52136 -1.25067e-09 0.190545)
(1.44344 -1.26893e-09 0.142756)
(1.44404 -3.06095e-10 0.0310409)
(1.41245 4.52292e-11 0.0307269)
(1.45357 -2.54216e-10 0.0333392)
(1.40285 -3.06113e-10 0.0309663)
(1.43674 8.17302e-10 0.0215823)
(1.39808 2.50385e-10 0.0282427)
(1.43315 -6.65781e-10 0.0206834)
(1.38958 -2.69135e-10 0.0261326)
(-0.129741 -1.65299e-24 1.87792)
(-0.383786 0 1.82321)
(-0.624504 0 1.79439)
(-0.727668 0 1.74808)
(-0.586699 0 1.54818)
(-0.219151 0 1.17816)
(-0.0379513 0 -0.798009)
(-0.178527 0 -0.707419)
(-0.2647 0 -0.581969)
(-0.446926 0 -0.536813)
(-0.232933 0 -0.428526)
(0.262514 5.82155e-26 -0.0363396)
(0.49237 -6.33398e-26 0.016619)
(0.83959 -2.39162e-25 0.017681)
(1.11096 -7.54667e-10 0.00742277)
(1.35914 1.38243e-09 -0.0196453)
(1.35797 1.25167e-10 -0.0191824)
(1.33454 1.34977e-09 -0.0468698)
(1.3339 3.64691e-11 -0.0458721)