/*--------------------------------*- C++ -*----------------------------------*\
| =========                 |                                                 |
| \\      /  F ield         | OpenFOAM: The Open Source CFD Toolbox           |
|  \\    /   O peration     | Version:  5.x                                   |
|   \\  /    A nd           | Web:      www.OpenFOAM.org                      |
|    \\/     M anipulation  |                                                 |
\*---------------------------------------------------------------------------*/
FoamFile
{
    version     2.0;
    format      ascii;
    class       surfaceVectorField;
    location    "2.2";
    object      Uf;
}
// * * * * * * * * * * * * * * * * * * * * * * * * * * * * * * * * * * * * * //

dimensions      [0 1 -1 0 0 0 0];

internalField   nonuniform List<vector> 
30582
(
(0.139268 0 0.00087872)
(0.150249 0 -0.000995186)
(0.141245 0 0.00251014)
(0.135238 0 -0.000791186)
(0.139232 0 -0.00272403)
(0.15004 0 -0.00196885)
(0.140213 0 0.00406562)
(0.142589 0 0.0004205)
(0.141163 0 -0.00290853)
(0.134902 0 -0.00156392)
(0.138737 0 -0.000684543)
(0.149577 0 -0.00273309)
(0.135358 0 0.00475463)
(0.138929 0 0.00201214)
(0.140041 0 -0.00165368)
(0.142499 0 0.00087756)
(0.140834 0 0.00232276)
(0.134101 0 -0.00240282)
(0.137991 0 -0.00463813)
(0.148854 0 -0.00318187)
(0.12781 0 0.00473684)
(0.131675 0 0.00318476)
(0.134954 0 0.00044666)
(0.138967 0 0.00412083)
(0.140149 0 0.00674919)
(0.14155 0 0.00115638)
(0.139429 0 -0.00365803)
(0.132857 0 -0.00297831)
(0.136805 0 -0.00127511)
(0.147504 0 -0.00313491)
(0.118713 0 0.00443102)
(0.123001 0 0.00390729)
(0.127408 0 0.00238937)
(0.131762 0 0.00636833)
(0.135478 0 0.0100888)
(0.137955 0 0.00605676)
(0.137824 0 0.000401667)
(0.140482 0 0.0018101)
(0.138565 0 0.00270563)
(0.130324 0 -0.00368231)
(0.13416 0 -0.00585532)
(0.145855 0 -0.00201159)
(0.10924 0 0.00416801)
(0.113952 0 0.00414138)
(0.118587 0 0.00364568)
(0.123311 0 0.00769574)
(0.128205 0 0.0116897)
(0.130776 0 0.00943729)
(0.133091 0 0.00535863)
(0.13682 0 0.00801833)
(0.137599 0 0.00959356)
(0.137653 0 0.00220352)
(0.134117 0 -0.00436569)
(0.127541 0 -0.00366494)
(0.132443 0 0.000473588)
(0.141833 0 -0.000168729)
(0.0989813 0 0.00409271)
(0.104359 0 0.00456543)
(0.109294 0 0.00456994)
(0.11421 0 0.00820444)
(0.119295 0 0.0122985)
(0.123004 0 0.0115225)
(0.126202 0 0.00925643)
(0.130006 0 0.0123441)
(0.133649 0 0.0151137)
(0.133379 0 0.00965538)
(0.131195 0 0.00221388)
(0.135247 0 0.00339331)
(0.133446 0 0.0044385)
(0.118116 0 -0.00406609)
(0.120623 0 -0.00495993)
(0.106237 0 0.00637112)
(0.0877864 0 0.00420464)
(0.093824 0 0.00507153)
(0.0992222 0 0.00556091)
(0.104812 0 0.00904756)
(0.109912 0 0.0127298)
(0.114102 0 0.0123064)
(0.118154 0 0.0115183)
(0.123113 0 0.0149791)
(0.127671 0 0.018174)
(0.128194 0 0.0148663)
(0.12824 0 0.00939028)
(0.130589 0 0.0108804)
(0.131977 0 0.0121459)
(0.126895 0 0.00399122)
(0.116522 0 -0.00474069)
(0.0799502 0 -0.0024256)
(0.059488 0 0.00884535)
(-0.0578696 0 -0.0237171)
(0.0752257 0 0.00449189)
(0.0820831 0 0.00579185)
(0.0881822 0 0.00664932)
(0.0944028 0 0.0100729)
(0.0999654 0 0.0136064)
(0.105172 0 0.0134743)
(0.109495 0 0.0130694)
(0.114607 0 0.016092)
(0.119888 0 0.0196882)
(0.122681 0 0.018322)
(0.124039 0 0.0149789)
(0.126831 0 0.0166387)
(0.130001 0 0.01799)
(0.122787 0 0.0116997)
(0.114807 0 0.00363882)
(0.0946505 0 0.00468941)
(0.062651 0 0.00657589)
(-0.0880087 0 -0.00369084)
(-0.208083 0 -0.0348156)
(-0.0902696 0 0.0577942)
(0.0610536 0 0.00487051)
(0.0687541 0 0.00665263)
(0.0757298 0 0.00791859)
(0.0827822 0 0.0115337)
(0.0890265 0 0.0150062)
(0.0950579 0 0.0150285)
(0.100155 0 0.0148815)
(0.105902 0 0.0176307)
(0.111034 0 0.0207845)
(0.114996 0 0.0199625)
(0.118023 0 0.0185742)
(0.122383 0 0.0209059)
(0.126137 0 0.0224475)
(0.122 0 0.0182687)
(0.115896 0 0.0124253)
(0.102909 0 0.0112482)
(0.0801763 0 0.0115481)
(-0.118667 0 -0.00244692)
(-0.262272 0 -0.0122986)
(0.0198491 0 0.017986)
(0.144501 0 0.101845)
(0.00710961 0 0.000998998)
(0.045295 0 0.00522423)
(0.0536884 0 0.00752991)
(0.0615855 0 0.00926249)
(0.0695055 0 0.0132922)
(0.0766631 0 0.0169653)
(0.0836957 0 0.0172346)
(0.0896787 0 0.0171828)
(0.0959998 0 0.0197747)
(0.101494 0 0.0226327)
(0.106663 0 0.0218764)
(0.110486 0 0.0211065)
(0.115238 0 0.0232575)
(0.11969 0 0.0255613)
(0.120044 0 0.0236751)
(0.116917 0 0.0201465)
(0.109654 0 0.0178379)
(0.0976537 0 0.0154837)
(-0.105807 0 0.00400397)
(-0.303706 0 -0.00986131)
(-0.139334 0 0.0144251)
(0.144848 0 0.0418401)
(0.197404 0 0.0178475)
(0.0694739 0 -0.0773961)
(-0.048632 0 -0.0263021)
(0.0284306 0 0.00536923)
(0.0372078 0 0.00820233)
(0.0457154 0 0.0104562)
(0.0543691 0 0.0151131)
(0.0625158 0 0.0192214)
(0.070563 0 0.0199333)
(0.0776721 0 0.0200786)
(0.0849808 0 0.0227709)
(0.0911254 0 0.0254219)
(0.0972228 0 0.0244719)
(0.101915 0 0.0237671)
(0.107261 0 0.025691)
(0.111757 0 0.0278582)
(0.114667 0 0.0267257)
(0.114999 0 0.0256558)
(0.116924 0 0.0244989)
(0.111025 0 0.0205021)
(-0.0604829 0 0.0121964)
(-0.268078 0 0.000441273)
(-0.188591 0 -0.0107638)
(-0.0235243 0 0.0145616)
(0.0488391 0 0.0829853)
(0.0987015 0 0.0657217)
(-0.00427152 0 0.00615589)
(-0.116723 0 0.0486113)
(-0.0253243 0 0.0195664)
(0.0115422 0 0.00513967)
(0.0199 0 0.00836165)
(0.0285924 0 0.0111411)
(0.0376379 0 0.0165304)
(0.0464834 0 0.0212971)
(0.0553429 0 0.0227739)
(0.0636567 0 0.0233448)
(0.0720921 0 0.0265124)
(0.0794219 0 0.0292344)
(0.0867583 0 0.0281674)
(0.0924594 0 0.02723)
(0.0982465 0 0.0287554)
(0.102797 0 0.0305912)
(0.108117 0 0.0296787)
(0.11072 0 0.0293755)
(0.118026 0 0.0285965)
(0.120062 0 0.0252228)
(-0.0112159 0 0.0206175)
(-0.179865 0 0.0114746)
(-0.178709 0 -0.025022)
(-0.105072 0 -0.0307474)
(-0.00265132 0 0.0230367)
(0.0663875 0 0.090112)
(0.0193139 0 0.0961436)
(-0.0863287 0 0.0311685)
(-0.0253684 0 -0.00600246)
(0.0688105 0 -0.0274602)
(-0.00461977 0 -0.00747355)
(-0.00402077 0 0.00454351)
(0.00317171 0 0.00784405)
(0.0112875 0 0.010995)
(0.0200005 0 0.0169295)
(0.0290429 0 0.0224735)
(0.0381851 0 0.0250129)
(0.0473408 0 0.026381)
(0.0568117 0 0.0305701)
(0.0655574 0 0.0337947)
(0.0742571 0 0.0330206)
(0.0815103 0 0.0320477)
(0.0884398 0 0.0332161)
(0.0935009 0 0.0344503)
(0.10038 0 0.0329666)
(0.104596 0 0.0328366)
(0.118028 0 0.0324042)
(0.124847 0 0.029105)
(0.0143034 0 0.0265044)
(-0.115134 0 0.020347)
(-0.148814 0 -0.00718436)
(-0.146353 0 -0.0375803)
(-0.0439963 0 -0.0076053)
(0.0595904 0 0.0402069)
(0.0365833 0 0.0258541)
(-0.0116394 0 0.0302406)
(0.0103987 0 0.06573)
(0.0695281 0 0.0361671)
(-0.00414085 0 -0.00628952)
(-0.0758809 0 0.00779649)
(-0.0172293 0 0.00366196)
(-0.011803 0 0.00677623)
(-0.00479621 0 0.00997302)
(0.00269544 0 0.0159505)
(0.0112095 0 0.0220888)
(0.0198214 0 0.025759)
(0.0290829 0 0.0282213)
(0.0390888 0 0.0338931)
(0.0489768 0 0.0381849)
(0.0589251 0 0.0384927)
(0.0679757 0 0.0380261)
(0.0764963 0 0.039374)
(0.0831638 0 0.0399528)
(0.0920304 0 0.0379826)
(0.0977741 0 0.0372659)
(0.117348 0 0.0360569)
(0.129324 0 0.0330784)
(0.0500528 0 0.0304119)
(-0.0605781 0 0.0255581)
(-0.142188 0 0.00265296)
(-0.171802 0 -0.0218387)
(-0.0669986 0 0.00374587)
(0.0328548 0 0.0292235)
(0.0192846 0 0.00367486)
(-0.00113133 0 -0.00678005)
(0.0212956 0 0.0214985)
(0.0431024 0 0.0591296)
(0.00550888 0 0.0764905)
(-0.0691158 0 0.0265954)
(-0.0267348 0 0.00253662)
(-0.0235201 0 0.00496393)
(-0.0182941 0 0.0079399)
(-0.0129176 0 0.0137008)
(-0.00561502 0 0.0199277)
(0.00158476 0 0.0244305)
(0.0100838 0 0.027981)
(0.0197634 0 0.0351657)
(0.0300411 0 0.0410052)
(0.0404334 0 0.0431027)
(0.0509193 0 0.0439674)
(0.0611537 0 0.0466428)
(0.0700508 0 0.0470617)
(0.0813263 0 0.0455295)
(0.0896241 0 0.0444532)
(0.115804 0 0.0417406)
(0.133739 0 0.0383543)
(0.0857385 0 0.0340568)
(0.00549494 0 0.0289571)
(-0.120684 0 0.00100672)
(-0.199976 0 -0.020333)
(-0.0813342 0 0.0149704)
(0.0251692 0 0.0356354)
(0.0109187 0 0.00704682)
(-0.00469058 0 -0.0144926)
(0.00476216 0 0.00517656)
(0.0282704 0 0.0298811)
(0.00957249 0 0.0276462)
(-0.0282726 0 0.0407146)
(-0.0315839 0 0.00133424)
(-0.0307382 0 0.00257776)
(-0.0279084 0 0.00484185)
(-0.02513 0 0.00998474)
(-0.0199697 0 0.0160177)
(-0.0149739 0 0.0210651)
(-0.00794989 0 0.0253404)
(0.00029524 0 0.0335199)
(0.0099895 0 0.0409941)
(0.0198263 0 0.0450934)
(0.0306389 0 0.0479158)
(0.0416971 0 0.0529665)
(0.0525923 0 0.0543831)
(0.0663761 0 0.054985)
(0.0780285 0 0.0547242)
(0.109721 0 0.0509726)
(0.135149 0 0.0468718)
(0.11488 0 0.0410904)
(0.0647046 0 0.0351777)
(-0.0999721 0 0.00723339)
(-0.218167 0 -0.0189749)
(-0.0919063 0 0.00910211)
(0.0303435 0 0.0379382)
(0.0178116 0 0.0127082)
(0.00329995 0 -0.0105152)
(1.96136e-05 0 0.00361488)
(0.0087007 0 0.0199541)
(0.0040628 0 0.0134332)
(-0.0136289 0 0.015221)
(-0.031374 0 6.81275e-05)
(-0.0330565 0 -0.000113561)
(-0.0327715 0 0.00100495)
(-0.0327407 0 0.00516292)
(-0.0303666 0 0.0105793)
(-0.0280082 0 0.0154142)
(-0.0232557 0 0.02013)
(-0.0176457 0 0.0289173)
(-0.00954909 0 0.0375197)
(-0.00141285 0 0.0433676)
(0.0085754 0 0.0481322)
(0.0193998 0 0.0560174)
(0.0310272 0 0.0595509)
(0.0459095 0 0.0634552)
(0.0604894 0 0.0658094)
(0.0966188 0 0.0633657)
(0.128892 0 0.058762)
(0.130284 0 0.0539097)
(0.108637 0 0.047548)
(-0.00718811 0 0.0208329)
(-0.177097 0 -0.00667472)
(-0.0998595 0 -0.0113722)
(0.0327342 0 0.0111086)
(0.0297973 0 0.00803817)
(0.0172475 0 -0.0108917)
(0.00151485 0 0.00661046)
(-0.00170865 0 0.0172307)
(0.000643625 0 0.00808561)
(-0.00456754 0 0.00653254)
(-0.0263168 0 -0.00126784)
(-0.0304012 0 -0.00278563)
(-0.0327953 0 -0.00306396)
(-0.0352412 0 -0.00010068)
(-0.0358863 0 0.00419639)
(-0.0361534 0 0.00809719)
(-0.0342663 0 0.0125185)
(-0.0319538 0 0.0211643)
(-0.026608 0 0.0304238)
(-0.0212727 0 0.0376687)
(-0.013176 0 0.0438387)
(-0.00390391 0 0.0543308)
(0.0071633 0 0.0606579)
(0.0212491 0 0.0678327)
(0.0368711 0 0.0738964)
(0.0752862 0 0.0749423)
(0.112544 0 0.0714119)
(0.129178 0 0.0711774)
(0.131297 0 0.0659576)
(0.0707387 0 0.0432726)
(-0.0480794 0 0.0167798)
(-0.0336343 0 -0.0386571)
(0.0414351 0 -0.0427126)
(0.0380515 0 -0.0153139)
(0.0352966 0 -0.0122805)
(0.00878877 0 5.61834e-06)
(-0.00742063 0 0.0140401)
(0.0009051 0 0.00910763)
(0.00325972 0 0.00463593)
(-0.0168192 0 -0.00246997)
(-0.0229691 0 -0.00532528)
(-0.0276539 0 -0.00696129)
(-0.0325276 0 -0.00561765)
(-0.035671 0 -0.00258267)
(-0.0389297 0 -0.000217225)
(-0.0399027 0 0.00334899)
(-0.0409914 0 0.0110935)
(-0.0392112 0 0.0202009)
(-0.0372732 0 0.0277458)
(-0.0322231 0 0.0348744)
(-0.0261167 0 0.0474403)
(-0.0167466 0 0.0568044)
(-0.00546107 0 0.0663819)
(0.00893087 0 0.075901)
(0.0468787 0 0.0816661)
(0.0865388 0 0.0810077)
(0.110921 0 0.0875904)
(0.129146 0 0.0864018)
(0.106337 0 0.0722052)
(0.0440089 0 0.0523279)
(0.0289249 0 4.51648e-05)
(0.0405123 0 -0.0514349)
(0.0230231 0 -0.0382316)
(0.0220474 0 -0.0112752)
(0.0133823 0 -0.0093117)
(-0.0126545 0 -0.000590569)
(0.00247066 0 0.00233485)
(0.0106657 0 0.00144137)
(-0.00362889 0 -0.00344582)
(-0.0114767 0 -0.00752874)
(-0.0180183 0 -0.0105103)
(-0.0249464 0 -0.0107279)
(-0.0304799 0 -0.00925765)
(-0.0362184 0 -0.00847706)
(-0.0403055 0 -0.00637022)
(-0.0441622 0 6.94648e-07)
(-0.0460936 0 0.00798285)
(-0.0474189 0 0.014752)
(-0.0460986 0 0.0218559)
(-0.0442535 0 0.0349919)
(-0.0384359 0 0.0473471)
(-0.0317573 0 0.0585674)
(-0.0202363 0 0.0703394)
(0.0135115 0 0.0810826)
(0.0522321 0 0.0846014)
(0.0784762 0 0.0986517)
(0.105097 0 0.103152)
(0.104301 0 0.0992872)
(0.0823314 0 0.0877057)
(0.0682806 0 0.0538938)
(0.0530046 0 0.00583678)
(0.00595911 0 -0.00581892)
(-0.0115575 0 0.00210454)
(-0.00162546 0 -0.022736)
(-0.00886911 0 -0.0210504)
(0.00264116 0 -0.0110265)
(0.0179072 0 -0.00444249)
(0.0122991 0 -0.00418041)
(0.00337032 0 -0.00925372)
(-0.00460736 0 -0.0134784)
(-0.0131648 0 -0.0151833)
(-0.0205291 0 -0.0152923)
(-0.0283415 0 -0.0163073)
(-0.0348039 0 -0.0158321)
(-0.0414062 0 -0.0115075)
(-0.0461849 0 -0.00503153)
(-0.0511174 0 5.01145e-05)
(-0.0534376 0 0.00637126)
(-0.0557592 0 0.0186534)
(-0.0546579 0 0.0322184)
(-0.0532987 0 0.0434634)
(-0.0467192 0 0.0562377)
(-0.0191775 0 0.0721534)
(0.0150224 0 0.0803844)
(0.0393483 0 0.0998371)
(0.0673274 0 0.110642)
(0.0725088 0 0.117352)
(0.0743319 0 0.113262)
(0.0767656 0 0.103178)
(0.0616228 0 0.0759686)
(0.0155946 0 0.0497758)
(-0.031093 0 0.0317874)
(-0.0221575 0 0.00335155)
(-0.0124011 0 -0.0176851)
(-0.00438191 0 -0.0211074)
(0.00736753 0 -0.0106099)
(0.0300462 0 -0.00465251)
(0.0205827 0 -0.0104963)
(0.0115991 0 -0.0157254)
(0.00206455 0 -0.0186692)
(-0.00666548 0 -0.0202674)
(-0.0160143 0 -0.0230964)
(-0.024335 0 -0.02444)
(-0.0331541 0 -0.0221772)
(-0.0405961 0 -0.0177223)
(-0.0483311 0 -0.0145859)
(-0.0543528 0 -0.0098419)
(-0.0599343 0 0.000545363)
(-0.0634136 0 0.0131865)
(-0.0670344 0 0.0233078)
(-0.0665878 0 0.0349007)
(-0.0461055 0 0.0538391)
(-0.0184853 0 0.0675648)
(0.00182578 0 0.0893436)
(0.0270617 0 0.104884)
(0.0217748 0 0.120132)
(0.0289368 0 0.124161)
(0.0632095 0 0.139827)
(0.065191 0 0.134143)
(0.033699 0 0.101442)
(-0.0129202 0 0.0677672)
(-0.0228271 0 0.0410924)
(-0.0142085 0 0.0176559)
(-0.0143486 0 0.00420006)
(-0.00669165 0 -0.00221913)
(0.0486021 0 -0.00484099)
(0.0389568 0 -0.0111708)
(0.0296634 0 -0.0171768)
(0.019719 0 -0.0211801)
(0.0101322 0 -0.0240108)
(-0.000115353 0 -0.0284282)
(-0.00969989 0 -0.031634)
(-0.0201158 0 -0.0314498)
(-0.029555 0 -0.029157)
(-0.039522 0 -0.0283678)
(-0.0482446 0 -0.0255046)
(-0.0569843 0 -0.0179505)
(-0.0638784 0 -0.00742427)
(-0.0722884 0 0.00079687)
(-0.07734 0 0.010462)
(-0.0648429 0 0.0290235)
(-0.0453108 0 0.0470104)
(-0.0288823 0 0.067848)
(-0.00845406 0 0.085762)
(-0.0306887 0 0.107564)
(-0.0346491 0 0.118764)
(0.0286476 0 0.15218)
(0.0628933 0 0.168037)
(0.0532573 0 0.140965)
(0.0198103 0 0.106193)
(-0.00774175 0 0.0855233)
(-0.0178548 0 0.062602)
(-0.0172947 0 0.0428347)
(-0.0174328 0 0.0258719)
(0.0670286 0 -0.00476513)
(0.0576366 0 -0.0112918)
(0.0485249 0 -0.017779)
(0.0385859 0 -0.0225256)
(0.0288446 0 -0.0264016)
(0.0183072 0 -0.0322474)
(0.00801695 0 -0.0370883)
(-0.00328611 0 -0.0387213)
(-0.0140187 0 -0.0385963)
(-0.0254792 0 -0.0403175)
(-0.0362063 0 -0.0396338)
(-0.0474718 0 -0.0351176)
(-0.0573822 0 -0.0277788)
(-0.0694092 0 -0.0215288)
(-0.0794167 0 -0.0137228)
(-0.0739571 0 0.00192059)
(-0.0629039 0 0.0204863)
(-0.0478488 0 0.0383758)
(-0.0320538 0 0.0564787)
(-0.070425 0 0.0801723)
(-0.0911721 0 0.0975774)
(-0.00923244 0 0.136561)
(0.0558998 0 0.169369)
(0.0649053 0 0.155705)
(0.0534982 0 0.132405)
(0.0164395 0 0.124286)
(-0.0117766 0 0.103673)
(-0.0151024 0 0.0825672)
(-0.0145841 0 0.0610928)
(0.0845202 0 -0.0044434)
(0.0758033 0 -0.0109115)
(0.0672679 0 -0.0175821)
(0.0577448 0 -0.0227774)
(0.0483605 0 -0.0273825)
(0.0380042 0 -0.0342744)
(0.0276719 0 -0.0405627)
(0.0162473 0 -0.0438721)
(0.00492814 0 -0.0455977)
(-0.00734176 0 -0.0497288)
(-0.0192139 0 -0.0514602)
(-0.0321615 0 -0.0500164)
(-0.0443431 0 -0.0461602)
(-0.0591203 0 -0.0424286)
(-0.0725888 0 -0.0362336)
(-0.0734873 0 -0.0252898)
(-0.0699676 0 -0.00957227)
(-0.0553759 0 0.00574301)
(-0.0417126 0 0.0230773)
(-0.0896865 0 0.0435104)
(-0.127779 0 0.0637788)
(-0.0459051 0 0.0992889)
(0.0393509 0 0.13931)
(0.0779626 0 0.145051)
(0.0870768 0 0.136835)
(0.0417155 0 0.13878)
(0.00364407 0 0.129346)
(-0.00602894 0 0.116651)
(-0.00986769 0 0.0966187)
(0.100424 0 -0.00390135)
(0.0927 0 -0.0100989)
(0.0850377 0 -0.0166938)
(0.0763415 0 -0.0219964)
(0.067693 0 -0.0270349)
(0.0579703 0 -0.0346245)
(0.0482113 0 -0.0419441)
(0.0371634 0 -0.0466394)
(0.0259578 0 -0.0500008)
(0.0136448 0 -0.0563096)
(0.00143192 0 -0.0604646)
(-0.0123931 0 -0.0617235)
(-0.0258825 0 -0.0610878)
(-0.0423551 0 -0.0605533)
(-0.058297 0 -0.0564515)
(-0.06404 0 -0.0504419)
(-0.0666049 0 -0.0400104)
(-0.0536722 0 -0.0271421)
(-0.0408578 0 -0.0100597)
(-0.0906341 0 0.00528048)
(-0.141161 0 0.0243949)
(-0.0926119 0 0.0506244)
(-0.0100427 0 0.0871002)
(0.0803132 0 0.125083)
(0.119949 0 0.132813)
(0.066134 0 0.128186)
(0.0197278 0 0.129212)
(0.00798217 0 0.130674)
(-0.00183045 0 0.119577)
(0.114269 0 -0.00320936)
(0.107724 0 -0.00894852)
(0.101177 0 -0.0152517)
(0.0936007 0 -0.0203469)
(0.0859897 0 -0.0254723)
(0.0773304 0 -0.0334101)
(0.0685265 0 -0.0413899)
(0.0582934 0 -0.0470737)
(0.0478897 0 -0.051756)
(0.0360936 0 -0.0598425)
(0.024063 0 -0.0662702)
(0.0103152 0 -0.0696946)
(-0.00349087 0 -0.0717679)
(-0.0202739 0 -0.0747324)
(-0.0374489 0 -0.073648)
(-0.0471614 0 -0.0724528)
(-0.0542621 0 -0.067944)
(-0.045517 0 -0.0573624)
(-0.0341259 0 -0.0403882)
(-0.0774977 0 -0.0308503)
(-0.130195 0 -0.0145363)
(-0.131095 0 -0.000653535)
(-0.0853272 0 0.0255149)
(0.0598755 0 0.090645)
(0.152129 0 0.123871)
(0.0882944 0 0.108278)
(0.0337865 0 0.107197)
(0.018626 0 0.120974)
(0.00671709 0 0.12244)
(0.125738 0 -0.00245812)
(0.12049 0 -0.00754656)
(0.115183 0 -0.0133716)
(0.10893 0 -0.0180019)
(0.10257 0 -0.022903)
(0.0952507 0 -0.030875)
(0.0877368 0 -0.039151)
(0.0787018 0 -0.0453938)
(0.0694579 0 -0.0509767)
(0.0587455 0 -0.0602906)
(0.0476596 0 -0.0686612)
(0.0346367 0 -0.074048)
(0.0212092 0 -0.0782812)
(0.00578058 0 -0.0843031)
(-0.0111632 0 -0.0867278)
(-0.0248917 0 -0.0900036)
(-0.0354261 0 -0.0910054)
(-0.0327226 0 -0.083204)
(-0.0251577 0 -0.0661979)
(-0.0598179 0 -0.0623909)
(-0.105511 0 -0.0496375)
(-0.139492 0 -0.0444468)
(-0.144884 0 -0.031503)
(0.0251669 0 0.0315745)
(0.172569 0 0.0896423)
(0.116052 0 0.0797789)
(0.0530969 0 0.0729642)
(0.0266654 0 0.0981936)
(0.0113834 0 0.108556)
(0.134716 0 -0.00168087)
(0.130783 0 -0.00601311)
(0.12676 0 -0.0111797)
(0.121936 0 -0.0151639)
(0.116953 0 -0.0195825)
(0.111104 0 -0.0272989)
(0.105069 0 -0.0355444)
(0.0975076 0 -0.0418809)
(0.0897043 0 -0.0479348)
(0.0805755 0 -0.0580235)
(0.0709367 0 -0.0677039)
(0.05931 0 -0.074555)
(0.047084 0 -0.0807732)
(0.0337914 0 -0.089625)
(0.0187435 0 -0.0951595)
(0.00190722 0 -0.101991)
(-0.0121149 0 -0.107786)
(-0.0172438 0 -0.103547)
(-0.0152972 0 -0.0875137)
(-0.0420306 0 -0.0888322)
(-0.0785633 0 -0.0795825)
(-0.121262 0 -0.0775003)
(-0.159951 0 -0.073228)
(0.00405157 0 -0.0361476)
(0.172073 0 0.0216553)
(0.133701 0 0.0318431)
(0.0792617 0 0.0308126)
(0.0375519 0 0.0658701)
(0.0105052 0 0.0840826)
(0.141169 0 -0.000872389)
(0.13854 0 -0.00439925)
(0.135769 0 -0.00881483)
(0.132378 0 -0.0120464)
(0.128808 0 -0.0157962)
(0.124466 0 -0.0229643)
(0.119947 0 -0.0308949)
(0.114074 0 -0.0369151)
(0.107887 0 -0.0429844)
(0.100644 0 -0.0534262)
(0.09285 0 -0.0637984)
(0.0831019 0 -0.0716934)
(0.0726392 0 -0.0793457)
(0.061808 0 -0.0902153)
(0.049364 0 -0.0985214)
(0.0302861 0 -0.108059)
(0.0138672 0 -0.117346)
(-0.000682935 0 -0.117358)
(-0.00616389 0 -0.103653)
(-0.0239811 0 -0.108853)
(-0.0520366 0 -0.102964)
(-0.0914042 0 -0.103973)
(-0.138315 0 -0.101292)
(-0.00792507 0 -0.0896315)
(0.151874 0 -0.0556172)
(0.137145 0 -0.0250215)
(0.101528 0 -0.0102626)
(0.0460892 0 0.0197944)
(0.00367372 0 0.0472785)
(0.145139 0 -2.39856e-05)
(0.143795 0 -0.00275491)
(0.142241 0 -0.00638467)
(0.140193 0 -0.00881202)
(0.13798 0 -0.0117852)
(0.135107 0 -0.018189)
(0.132062 0 -0.0255537)
(0.127957 0 -0.0309362)
(0.123502 0 -0.0366054)
(0.118218 0 -0.0470085)
(0.112466 0 -0.0576116)
(0.104826 0 -0.0658823)
(0.0965799 0 -0.0743855)
(0.0877156 0 -0.0866279)
(0.0781799 0 -0.0969279)
(0.0573106 0 -0.107874)
(0.0391092 0 -0.119419)
(0.0170134 0 -0.123255)
(0.00275699 0 -0.113103)
(-0.00578321 0 -0.122634)
(-0.0244004 0 -0.119358)
(-0.0548481 0 -0.124909)
(-0.0970929 0 -0.122812)
(-0.0160541 0 -0.127501)
(0.110484 0 -0.115869)
(0.116322 0 -0.0664237)
(0.101435 0 -0.0391455)
(0.0479003 0 -0.0249695)
(-0.00563513 0 0.000159553)
(0.146719 0 0.000898131)
(0.146634 0 -0.00111614)
(0.146272 0 -0.00397068)
(0.145443 0 -0.00555184)
(0.144478 0 -0.00768633)
(0.143027 0 -0.0132421)
(0.141348 0 -0.019882)
(0.138893 0 -0.0244081)
(0.136155 0 -0.0293452)
(0.132756 0 -0.0392615)
(0.129022 0 -0.0498134)
(0.12355 0 -0.0577099)
(0.117535 0 -0.0660807)
(0.110945 0 -0.0791886)
(0.103803 0 -0.0913852)
(0.0822785 0 -0.102611)
(0.062871 0 -0.114485)
(0.036669 0 -0.122435)
(0.0153636 0 -0.115973)
(0.0161006 0 -0.130844)
(0.00817743 0 -0.131466)
(-0.0125104 0 -0.141901)
(-0.04413 0 -0.142815)
(-0.0147291 0 -0.155679)
(0.0635151 0 -0.159623)
(0.0813926 0 -0.100692)
(0.0865184 0 -0.0620734)
(0.0461429 0 -0.0580594)
(-0.00639667 0 -0.0432389)
(0.146096 0 0.00176902)
(0.147129 0 0.000447545)
(0.147958 0 -0.00164282)
(0.148235 0 -0.00230747)
(0.148387 0 -0.00356751)
(0.148329 0 -0.00826456)
(0.147941 0 -0.0141369)
(0.146925 0 -0.0177371)
(0.145677 0 -0.0217389)
(0.143985 0 -0.0307852)
(0.142067 0 -0.0409634)
(0.138849 0 -0.0478446)
(0.135074 0 -0.0552105)
(0.130683 0 -0.0690463)
(0.125963 0 -0.0828647)
(0.104161 0 -0.0932598)
(0.0844812 0 -0.103553)
(0.0582697 0 -0.116092)
(0.0333723 0 -0.114201)
(0.0440059 0 -0.133471)
(0.046397 0 -0.139811)
(0.0370402 0 -0.153852)
(0.0179106 0 -0.158764)
(-0.00194089 0 -0.178595)
(0.027125 0 -0.192954)
(0.0444034 0 -0.134537)
(0.0611349 0 -0.0905623)
(0.0398363 0 -0.0862034)
(-0.000159166 0 -0.0757443)
(0.143335 0 0.00254144)
(0.145403 0 0.00202154)
(0.147185 0 0.000645812)
(0.148738 0 0.00100341)
(0.149894 0 0.000565427)
(0.15117 0 -0.00337217)
(0.152096 0 -0.00843938)
(0.152258 0 -0.0111478)
(0.152275 0 -0.0141519)
(0.152142 0 -0.0222353)
(0.151628 0 -0.0316941)
(0.150395 0 -0.0371891)
(0.148775 0 -0.0431837)
(0.145757 0 -0.0568595)
(0.143291 0 -0.0718148)
(0.122241 0 -0.0802464)
(0.102543 0 -0.0882809)
(0.0817086 0 -0.104729)
(0.057395 0 -0.108625)
(0.0789096 0 -0.131078)
(0.0920556 0 -0.142569)
(0.0838339 0 -0.16145)
(0.0780418 0 -0.169954)
(0.0168342 0 -0.190052)
(-0.00200081 0 -0.21205)
(0.0146844 0 -0.161368)
(0.0322979 0 -0.120482)
(0.0266747 0 -0.117783)
(0.00532965 0 -0.104096)
(0.138618 0 0.00327821)
(0.141716 0 0.00351422)
(0.144391 0 0.00290269)
(0.147003 0 0.00406679)
(0.149383 0 0.00461354)
(0.15166 0 0.00137057)
(0.153875 0 -0.00278852)
(0.155127 0 -0.00462932)
(0.156277 0 -0.00671408)
(0.157492 0 -0.013925)
(0.158347 0 -0.0225473)
(0.15842 0 -0.0268159)
(0.158311 0 -0.0313707)
(0.156256 0 -0.0435758)
(0.155027 0 -0.0584536)
(0.135342 0 -0.064582)
(0.116404 0 -0.0702983)
(0.107043 0 -0.0892064)
(0.0886545 0 -0.0989683)
(0.119892 0 -0.124578)
(0.145088 0 -0.140021)
(0.130687 0 -0.16416)
(0.127619 0 -0.178883)
(0.0213766 0 -0.191831)
(-0.0372585 0 -0.213686)
(-0.0126589 0 -0.168827)
(0.00404277 0 -0.137001)
(0.0112178 0 -0.144657)
(0.00587241 0 -0.13079)
(0.132227 0 0.0039237)
(0.136112 0 0.00484783)
(0.139669 0 0.00497888)
(0.143217 0 0.00703262)
(0.146463 0 0.00846591)
(0.149826 0 0.00620469)
(0.152923 0 0.00280779)
(0.155636 0 0.00205523)
(0.157848 0 0.000638248)
(0.160441 0 -0.0057391)
(0.162577 0 -0.0135074)
(0.163789 0 -0.0168605)
(0.16465 0 -0.0202852)
(0.16235 0 -0.0311379)
(0.161301 0 -0.0444237)
(0.142158 0 -0.0477777)
(0.124542 0 -0.0515312)
(0.133725 0 -0.0699362)
(0.12731 0 -0.0848456)
(0.164482 0 -0.114192)
(0.200468 0 -0.133481)
(0.166797 0 -0.159743)
(0.157882 0 -0.180724)
(0.0186473 0 -0.183038)
(-0.0836694 0 -0.200656)
(-0.0483018 0 -0.163391)
(-0.0233612 0 -0.137242)
(-0.00464733 0 -0.15233)
(0.00256463 0 -0.147573)
(0.124514 0 0.00442246)
(0.129193 0 0.00595492)
(0.133297 0 0.00676216)
(0.137513 0 0.00968066)
(0.141536 0 0.0120331)
(0.145882 0 0.0107039)
(0.14991 0 0.00819002)
(0.153712 0 0.00840992)
(0.157324 0 0.00800334)
(0.161069 0 0.00243168)
(0.164665 0 -0.00423028)
(0.166935 0 -0.00721414)
(0.169024 0 -0.00986494)
(0.165404 0 -0.0198962)
(0.163638 0 -0.0315335)
(0.142698 0 -0.0327309)
(0.12438 0 -0.0345907)
(0.160518 0 -0.0476691)
(0.173202 0 -0.0660213)
(0.220353 0 -0.100132)
(0.263674 0 -0.124378)
(0.178715 0 -0.155046)
(0.14917 0 -0.175135)
(0.0101032 0 -0.154211)
(-0.127575 0 -0.166629)
(-0.0807268 0 -0.15565)
(-0.0444349 0 -0.134265)
(-0.0169837 0 -0.150477)
(0.00164719 0 -0.152704)
(0.120677 0 0.0066743)
(0.116022 0 0.00486604)
(0.125507 0 0.00808186)
(0.130459 0 0.0119694)
(0.134896 0 0.0152105)
(0.139951 0 0.0147173)
(0.144791 0 0.0131021)
(0.149485 0 0.0145183)
(0.154007 0 0.0152293)
(0.159152 0 0.0108383)
(0.163904 0 0.00512049)
(0.167593 0 0.00297942)
(0.171076 0 0.000405643)
(0.166384 0 -0.00866318)
(0.163514 0 -0.0189218)
(0.139354 0 -0.0198106)
(0.118344 0 -0.0212062)
(0.183767 0 -0.0286161)
(0.222672 0 -0.044185)
(0.275097 0 -0.080802)
(0.327946 0 -0.111738)
(0.163825 0 -0.142422)
(0.082394 0 -0.160774)
(-0.00986107 0 -0.111884)
(-0.148969 0 -0.106164)
(-0.101183 0 -0.140627)
(-0.0561442 0 -0.135357)
(-0.0216143 0 -0.148346)
(0.00580069 0 -0.152693)
(0.121732 0 0.0135735)
(0.116729 0 0.00908651)
(0.107065 0 0.00788089)
(0.09318 0 0.0054075)
(0.126826 0 0.0177928)
(0.132548 0 0.0181994)
(0.137824 0 0.0173801)
(0.143141 0 0.0200018)
(0.148343 0 0.0219757)
(0.15467 0 0.0187382)
(0.160621 0 0.0140785)
(0.165286 0 0.0132407)
(0.170091 0 0.0114111)
(0.16524 0 0.0036872)
(0.161737 0 -0.00527654)
(0.13574 0 -0.00740757)
(0.112014 0 -0.0096647)
(0.200929 0 -0.0154177)
(0.266569 0 -0.0250509)
(0.31764 0 -0.0585426)
(0.371057 0 -0.0932629)
(0.148983 0 -0.109675)
(-0.0130072 0 -0.126059)
(-0.056624 0 -0.0796494)
(-0.148607 0 -0.0485615)
(-0.105342 0 -0.112119)
(-0.0602874 0 -0.136552)
(-0.0225512 0 -0.137996)
(0.011421 0 -0.146012)
(0.123546 0 0.0207704)
(0.11767 0 0.019854)
(0.107473 0 0.0159914)
(0.0932212 0 0.0102989)
(0.0802749 0 0.00795571)
(0.0718308 0 0.00506866)
(0.129374 0 0.0208128)
(0.135167 0 0.0247235)
(0.140696 0 0.0279645)
(0.147844 0 0.0258027)
(0.154723 0 0.0222025)
(0.160029 0 0.0231329)
(0.165609 0 0.0228236)
(0.16103 0 0.0165216)
(0.157605 0 0.00872928)
(0.132778 0 0.00665862)
(0.107922 0 0.0031326)
(0.214423 0 -0.00451629)
(0.30361 0 -0.0116453)
(0.338502 0 -0.0411247)
(0.386743 0 -0.0724344)
(0.127535 0 -0.0692366)
(-0.0988834 0 -0.0750768)
(-0.097381 0 -0.0521598)
(-0.143652 0 -0.0206363)
(-0.0954976 0 -0.08291)
(-0.0519481 0 -0.128672)
(-0.0215349 0 -0.117509)
(0.0147002 0 -0.127087)
(0.125691 0 0.0283393)
(0.119744 0 0.0235001)
(0.108431 0 0.024406)
(0.0932805 0 0.0222899)
(0.0799234 0 0.0162771)
(0.0708908 0 0.0094896)
(0.0648723 0 0.00675625)
(0.0550433 0 0.00347663)
(0.131534 0 0.0329114)
(0.139152 0 0.0317967)
(0.14653 0 0.0291359)
(0.152118 0 0.0320178)
(0.158 0 0.0337222)
(0.153633 0 0.0288029)
(0.150029 0 0.0219603)
(0.129198 0 0.0220666)
(0.105723 0 0.0176592)
(0.22323 0 0.00823981)
(0.331759 0 -0.000450118)
(0.342794 0 -0.0244017)
(0.374125 0 -0.0510377)
(0.109327 0 -0.0323678)
(-0.155139 0 -0.0266639)
(-0.127875 0 -0.0308856)
(-0.130345 0 -0.0166835)
(-0.0804652 0 -0.0610727)
(-0.0329633 0 -0.108053)
(-0.0193654 0 -0.095402)
(0.0105944 0 -0.100154)
(0.129039 0 0.036452)
(0.121212 0 0.0368948)
(0.109583 0 0.0333643)
(0.093779 0 0.0266829)
(0.079461 0 0.0249603)
(0.0699792 0 0.0212175)
(0.0634838 0 0.0142335)
(0.0523116 0 0.00568684)
(0.0425651 0 0.00266728)
(0.0489075 0 3.71783e-05)
(0.136648 0 0.0346974)
(0.142187 0 0.0394257)
(0.147969 0 0.0433607)
(0.143477 0 0.0396264)
(0.139611 0 0.0335041)
(0.124184 0 0.0365662)
(0.104129 0 0.0327653)
(0.223736 0 0.0232335)
(0.343023 0 0.0123433)
(0.325509 0 0.000139269)
(0.334865 0 -0.0221556)
(0.0915127 0 0.00333345)
(-0.174576 0 0.0199559)
(-0.140155 0 -0.0188785)
(-0.113543 0 -0.0235284)
(-0.065419 0 -0.0423405)
(-0.0158598 0 -0.0772117)
(-0.0165884 0 -0.0725278)
(-0.00231305 0 -0.0744258)
(0.130926 0 0.0453407)
(0.125339 0 0.0390811)
(0.1115 0 0.0427525)
(0.0940007 0 0.0419527)
(0.0789217 0 0.034568)
(0.0679969 0 0.0252918)
(0.0612142 0 0.0220297)
(0.0506077 0 0.0151373)
(0.0393533 0 0.00664437)
(0.0431626 0 -0.00238452)
(0.0506064 0 -0.00455263)
(0.0586046 0 -0.00712052)
(0.136324 0 0.051362)
(0.131537 0 0.0484161)
(0.126982 0 0.0428449)
(0.116907 0 0.0492055)
(0.101629 0 0.0472421)
(0.213581 0 0.0384287)
(0.332551 0 0.0267435)
(0.290727 0 0.0308981)
(0.271504 0 0.0177397)
(0.0666209 0 0.0457056)
(-0.18249 0 0.067689)
(-0.141116 0 0.00892452)
(-0.106476 0 -0.0250895)
(-0.0562928 0 -0.0237828)
(-0.00718062 0 -0.041823)
(-0.0154408 0 -0.0482573)
(-0.0159453 0 -0.0529046)
(0.118187 0 0.0553679)
(0.123567 0 0.0576861)
(0.111522 0 0.053109)
(0.0953217 0 0.0449244)
(0.0784245 0 0.0449188)
(0.0662241 0 0.0407509)
(0.0581907 0 0.0309908)
(0.045731 0 0.0180264)
(0.0349428 0 0.0118677)
(0.038592 0 0.00361355)
(0.0438018 0 -0.00528895)
(0.044731 0 -0.0189167)
(0.0535845 0 -0.0203256)
(0.0986878 0 -0.0106663)
(0.113027 0 0.0500931)
(0.108377 0 0.0591897)
(0.0976241 0 0.0597652)
(0.193651 0 0.0522438)
(0.302952 0 0.0409468)
(0.246589 0 0.0604842)
(0.201462 0 0.0626636)
(0.0366547 0 0.0821652)
(-0.174023 0 0.105656)
(-0.129135 0 0.0396168)
(-0.0892234 0 -0.0115141)
(-0.053421 0 -0.00326324)
(-0.00487848 0 -0.00561188)
(-0.0151204 0 -0.0253804)
(-0.0231668 0 -0.0327186)
(0.0970097 0 0.0670504)
(0.0981635 0 0.0559325)
(0.0965903 0 0.0643524)
(0.0909782 0 0.0662075)
(0.0753123 0 0.0565028)
(0.0642362 0 0.0439866)
(0.0551293 0 0.0408202)
(0.0418002 0 0.0330624)
(0.0291511 0 0.0198989)
(0.0272563 0 0.00423854)
(0.0325651 0 -0.00309712)
(0.0339234 0 -0.0220975)
(0.0352991 0 -0.0353471)
(0.0743542 0 -0.0411209)
(0.120046 0 -0.0311383)
(0.15554 0 -0.0230059)
(0.0916415 0 0.0699261)
(0.172068 0 0.0638086)
(0.264035 0 0.0539998)
(0.200188 0 0.081763)
(0.139494 0 0.101077)
(0.0110873 0 0.106658)
(-0.157221 0 0.125151)
(-0.112133 0 0.069867)
(-0.0698355 0 0.0145478)
(-0.0511151 0 0.0256737)
(-0.0154293 0 0.0293711)
(-0.0165634 0 0.00419028)
(-0.0274999 0 -0.0119938)
(0.149389 0 0.0721957)
(0.0850951 0 0.0773439)
(0.0819395 0 0.0763122)
(0.0634983 0 0.0647661)
(0.0584661 0 0.0690779)
(0.0572329 0 0.0655992)
(0.0493754 0 0.0519408)
(0.0366046 0 0.0368298)
(0.0231023 0 0.0303011)
(0.0178706 0 0.0186409)
(0.0177534 0 0.00313173)
(0.0139889 0 -0.0249827)
(0.0156411 0 -0.0415509)
(0.0461577 0 -0.0569564)
(0.0863971 0 -0.0613642)
(0.129541 0 -0.0687071)
(0.158275 0 -0.0582374)
(0.253999 0 -0.0216267)
(0.228089 0 0.0643449)
(0.164712 0 0.0915608)
(0.096139 0 0.121511)
(-0.00362517 0 0.114649)
(-0.133466 0 0.124173)
(-0.0932688 0 0.0889572)
(-0.0489056 0 0.0443001)
(-0.0439653 0 0.0545471)
(-0.0247878 0 0.0585166)
(-0.0184087 0 0.0324039)