/*--------------------------------*- C++ -*----------------------------------*\
| =========                 |                                                 |
| \\      /  F ield         | OpenFOAM: The Open Source CFD Toolbox           |
|  \\    /   O peration     | Version:  5.x                                   |
|   \\  /    A nd           | Web:      www.OpenFOAM.org                      |
|    \\/     M anipulation  |                                                 |
\*---------------------------------------------------------------------------*/
FoamFile
{
    version     2.0;
    format      ascii;
    class       volScalarField;
    location    "0.4";
    object      alpha.water;
}
// * * * * * * * * * * * * * * * * * * * * * * * * * * * * * * * * * * * * * //

dimensions      [0 0 0 0 0 0 0];

internalField   nonuniform List<scalar> 
12160
(
1
1
1
1
1
1
1
1
1
1
1
1
1
1
1
1
1
1
1
1
1
1
1
1
1
1
1
1
1
1
1
1
1
1
1
1
1
1
1
1
1
1
1
1
0.671575
1
1
1
1
1
1
1
1
0.686472
0.0373417
1
1
1
1
1
1
1
1
0.624582
0.0970835
0.000114124
1
1
1
1
1
1
1
1
0.508324
0.0851429
0.000970009
6.37936e-08
1
1
1
1
1
1
1
1
0.401963
0.0524261
0.00111575
4.25724e-07
2.06535e-12
1
1
1
1
1
1
1
1
0.301819
0.0250585
0.00062623
9.59863e-07
9.51154e-12
6.76814e-17
1
1
1
1
1
1
1
1
0.224876
0.010652
0.000150769
5.31662e-07
3.62475e-11
1.67827e-16
1.35997e-21
1
1
1
1
1
1
1
1
0.164819
0.00421152
2.88513e-05
5.83689e-08
1.94805e-11
6.3958e-16
2.61193e-21
1
1
1
1
1
1
1
1
0.120175
0.00163988
4.64291e-06
3.8776e-09
1.55875e-12
3.78843e-16
1.05976e-20
1
1
1
1
1
1
1
1
0.0872708
0.000622179
7.07126e-07
1.98435e-10
8.22821e-14
3.58849e-17
7.07716e-21
1
1
1
1
1
1
1
1
0.0632992
0.00023782
1.00342e-07
1.38645e-11
3.59294e-15
1.56421e-18
7.31214e-22
1
1
1
1
1
1
1
1
0.0459204
9.13219e-05
1.42667e-08
1.4164e-12
2.33513e-16
6.32004e-20
2.69938e-23
1
1
1
1
1
1
1
1
0.0333561
3.55754e-05
2.06388e-09
1.44859e-13
1.77168e-17
3.49976e-21
1.04889e-24
1
1
1
1
1
1
1
1
0.0242811
1.41379e-05
3.39826e-10
1.58029e-14
1.34878e-18
1.98247e-22
4.71475e-26
1
1
1
1
1
1
1
1
0.0177257
5.78703e-06
8.492e-11
2.25237e-15
1.1713e-19
1.15067e-23
2.04127e-27
1
1
1
1
1
1
1
1
0.0129871
2.461e-06
2.6667e-11
4.73972e-16
1.44149e-20
8.2211e-25
9.32428e-29
1
1
1
1
1
1
1
1
0.00955959
1.10401e-06
9.08196e-12
1.16057e-16
2.38851e-21
8.40298e-26
5.53888e-30
1
0.999999
1
1
1
1
1
1
0.00708106
5.24591e-07
3.43202e-12
3.2041e-17
4.59962e-22
1.07804e-26
4.5426e-31
1
1
1
1
1
1
1
1
0.00529018
2.70564e-07
1.43859e-12
1.02668e-17
1.03571e-22
1.64317e-27
4.5111e-32
1
1
1
1
1
1
1
1
0.00400583
1.47448e-07
6.93293e-13
3.79934e-18
2.81754e-23
3.02763e-28
5.46821e-33
1
1
1
1
1
1
1
1
0.00309772
8.71083e-08
3.57098e-13
1.69062e-18
9.17417e-24
6.98292e-29
8.26023e-34
1
1
1
1
1
1
1
1
0.00247298
5.43645e-08
2.09462e-13
8.11852e-19
3.72611e-24
1.99188e-29
1.61297e-34
0.999999
0.999999
1
1
1
1
1
1
0.00206924
3.65696e-08
1.31194e-13
4.61313e-19
1.64756e-24
7.31086e-30
4.01952e-35
0.999999
0.999999
0.999999
1
1
1
1
1
0.00184568
2.67183e-08
8.98677e-14
2.83258e-19
8.9187e-25
2.96065e-30
1.32591e-35
0.999999
0.999999
0.999999
0.999999
1
1
1
1
0.00177837
2.1896e-08
6.65284e-14
1.93087e-19
5.29633e-25
1.51271e-30
4.90836e-36
1
1
0.999999
0.999999
0.999999
1
1
1
0.00185547
2.03738e-08
5.51763e-14
1.42495e-19
3.54231e-25
8.63386e-31
2.35796e-36
1
1
1
0.999999
0.999999
1
1
1
0.00207788
2.1728e-08
5.11623e-14
1.18169e-19
2.57861e-25
5.62517e-31
1.28974e-36
1
1
1
1
1
1
1
1
0.0024549
2.60461e-08
5.36378e-14
1.08737e-19
2.12075e-25
4.01625e-31
8.15643e-37
1
1
1
1
1
1
1
1
0.0030058
3.42507e-08
6.23567e-14
1.12193e-19
1.93106e-25
3.25817e-31
5.69216e-37
1
1
1
1
1
1
1
1
0.00375917
4.8235e-08
7.9139e-14
1.27676e-19
1.96368e-25
2.92972e-31
4.53901e-37
1
1
1
1
1
1
1
1
0.00475391
7.14949e-08
1.07902e-13
1.58885e-19
2.20115e-25
2.93972e-31
4.02547e-37
1
1
1
1
1
1
1
1
0.00604044
1.1069e-07
1.56894e-13
2.14255e-19
2.71222e-25
3.25896e-31
3.99007e-37
1
1
1
1
1
1
1
1
0.00768028
1.78153e-07
2.42675e-13
3.12449e-19
3.66136e-25
4.00025e-31
4.38817e-37
1
1
1
1
1
1
1
1
0.00974957
2.96794e-07
3.9966e-13
4.93373e-19
5.42259e-25
5.44035e-31
5.3864e-37
1
1
1
1
1
1
1
1
0.0123398
5.11729e-07
6.99324e-13
8.45845e-19
8.86404e-25
8.2439e-31
7.40034e-37
1
1
1
1
1
1
1
1
0.0155595
9.08211e-07
1.29831e-12
1.57111e-18
1.60243e-24
1.40514e-30
1.15113e-36
1
1
1
1
1
1
1
1
0.0195356
1.64547e-06
2.54655e-12
3.1583e-18
3.19259e-24
2.69851e-30
2.05089e-36
1
1
1
1
1
1
1
1
0.0244141
3.02356e-06
5.22674e-12
6.85368e-18
7.00417e-24
5.80482e-30
4.19836e-36
1
1
1
1
1
1
1
1
0.0303649
5.56727e-06
1.11474e-11
1.58797e-17
1.68804e-23
1.39749e-29
9.78709e-36
0.0375707
1
1
1
1
1
1
1
1
1.03074e-05
2.41632e-11
3.90753e-17
4.41593e-23
3.75107e-29
2.59554e-35
2.02414e-05
0.0520018
1
1
1
1
1
1
1
1
5.39978e-11
9.89639e-17
1.25005e-22
1.10955e-28
7.77303e-35
1.31724e-10
4.88047e-05
0.0814994
1
1
1
1
1
1
1
1
2.63846e-16
3.6828e-22
3.60705e-28
2.60409e-34
7.64555e-16
5.66668e-10
0.000189597
0.122824
1
1
1
1
1
1
0.999999
0.999999
1.16194e-21
1.23281e-27
9.71099e-34
3.95723e-21
3.66632e-15
8.29093e-09
0.000645083
0.177522
1
1
1
1
1
0.999999
0.999998
0.999997
0.999999
4.57488e-27
3.84242e-33
1.81823e-26
2.32309e-20
7.18645e-14
9.62649e-08
0.00196379
0.245917
1
1
1
1
0.999999
0.999999
0.999998
0.999997
0.999997
0.999998
1.66973e-32
7.72116e-32
1.36279e-25
5.72355e-19
1.2161e-12
8.73115e-07
0.00522517
0.326153
1
1
1
1
0.999999
0.999999
0.999998
0.999997
0.999997
0.999997
0.999997
7.47036e-31
4.19356e-24
1.34881e-17
1.54688e-11
5.82821e-06
0.0120723
0.413895
1
1
1
1
0.999999
0.999999
0.999999
0.999998
0.999997
0.999998
0.999997
0.999998
2.93263e-29
1.3303e-22
2.33368e-16
2.16145e-10
2.89341e-05
0.0241768
0.502845
1
1
1
1
1
0.999999
0.999999
0.999998
0.999998
0.999999
0.999999
0.999997
0.999999
1.20665e-27
3.1167e-21
3.36935e-15
2.80091e-09
0.000109546
0.0422478
0.586377
1
1
1
1
1
0.999999
0.999999
0.999999
0.999999
0.999999
0.999999
0.999998
0.999998
0.999998
3.74358e-26
5.10937e-20
4.98e-14
2.40681e-08
0.000319192
0.0653079
0.656438
1
1
1
1
1
0.999999
0.999999
0.999997
0.999999
0.999988
0.999995
0.999994
0.999999
0.999999
0.999998
0.999997
0.999997
0.999998
7.36178e-25
8.1269e-19
5.00065e-13
1.3472e-07
0.000735669
0.0900662
0.706423
1
1
1
1
1
0.999999
0.999998
0.999999
0.999997
0.999999
0.999988
1
0.999995
0.999994
0.999995
0.999996
0.999999
0.999998
0.999997
0.999996
0.999996
0.999998
1.23155e-23
9.25716e-18
3.1577e-12
4.9822e-07
0.00136565
0.110734
0.735686
1
1
1
1
1
0.999999
1
1
1
1
0.999992
1.00001
0.999999
1
0.999992
0.999992
0.999992
1.00001
1
1
0.999999
0.999999
0.999998
0.999996
0.999996
0.999998
1.54887e-22
6.42136e-17
1.36761e-11
1.27641e-06
0.00200188
0.124847
0.751718
1
1
1
1
1
1
1
1
1
1.00001
1.00001
1.00001
1.00001
1.00001
1.00001
1.00001
1.00001
1.00001
0.999999
0.999999
0.999997
1
0.999997
1
1.00001
1
1
1.00001
1.00001
1.00001
1.00001
1.00001
1.00001
1.00001
1.00001
1.00001
1.00001
1.00001
1.00001
0.999999
0.999998
0.999997
0.999996
0.999996
0.999998
1.17727e-21
2.68828e-16
4.5166e-11
2.1606e-06
0.00250187
0.131814
0.750279
1
1
1
1
1
1
1
1
1.00001
1.00001
1.00001
1.00001
1.00001
1.00001
1.00001
1.00001
1.00001
1.00001
1.00001
1.00001
1.00001
1.00001
1.00001
1.00001
1.00001
1.00001
1.00001
1.00001
1.00001
1.00001
1.00001
1.00001
1.00001
1.00001
1.00001
1.00001
1.00001
1.00001
1.00001
1.00001
0.999998
0.999999
1
1
0.999999
1
1.00001
1.00001
1.00001
1.00001
1.00001
1.00001
1.00001
1.00001
1
1.00001
1
1.00001
1
1.00001
1
1.00001
1.00001
1.00001
1.00001
1.00001
1.00001
1.00001
1.00001
1.00001
0.999998
0.999996
0.999996
0.999996
0.999996
0.999998
5.0746e-21
7.81311e-16
8.42652e-11
2.79735e-06
0.0026768
0.128267
0.733192
1
1
1
1
1
1
1
1.00001
1.00001
1
1
1.00001
1.00001
1.00001
1.00001
1.00001
1.00001
1.00001
1.00001
1.00002
1.00001
1.00002
1.00001
1.00002
1.00001
1.00002
1.00001
1.00001
1.00001
1.00001
1.00001
1.00001
1.00001
1.00001
1.00001
1.00001
1.00001
1.00001
1.00001
1.00001
1.00001
1.00001
1.00001
1.00001
1.00001
1.00001
1.00001
1.00001
1.00001
1.00001
1.00001
1
1.00001
1
1.00001
0.999998
0.999998
1.00001
1
1
1
1.00001
1.00001
1.00001
1.00001
1.00001
1.00001
1.00001
1.00001
1.00001
1.00001
1.00002
1.00001
1.00002
1.00001
1.00001
1.00002
1.00001
1
1.00002
1.00001
1.00001
1.00002
1.00001
1
1.00001
1.00001
1.00001
1.00001
1
1.00001
1.00001
1.00001
1.00001
1.00001
1.00001
1.00001
1.00001
1.00001
1.00001
1.00001
0.999998
0.999996
0.999996
0.999996
0.999996
0.999998
1.33943e-20
1.34656e-15
1.03237e-10
2.56952e-06
0.00229057
0.112581
0.686021
1
1
1
1
1
1
1
1
1
1
1.00002
1.00001
1.00002
1.00001
1.00002
1.00001
1.00001
1.00001
1.00001
1.00001
1.00002
1.00001
1.00001
1.00001
1.00001
1.00001
1.00001
1.00001
1.00002
1.00001
1.00002
1.00001
1.00002
1.00001
1.00002
1.00001
1.00002
1.00001
1.00002
1.00001
1.00002
1.00001
1.00001
1.00001
1.00001
1.00002
0.999999
0.999997
1
0.999997
1.00001
1
1.00001
1.00001
1.00001
1.00001
1.00001
1.00001
1.00001
1.00001
1.00001
1.00001
1.00001
1.00001
1.00001
1.00001
1.00001
1.00001
1.00001
1.00001
1.00001
1.00001
1
1
1.00001
1
1.00001
1
1.00001
1
1.00002
1.00001
1.00001
1
1.00001
1.00001
1.00002
1.00001
1.00001
1.00001
1.00001
1.00001
1.00001
1.00001
1.00001
1.00002
1.00001
1.00002
1.00001
1.00002
0.999998
0.999998
0.999997
0.999996
0.999996
0.999998
2.13449e-20
1.45265e-15
7.21059e-11
1.18714e-06
0.00126003
0.0802468
0.604481
1
1
1
1
1
1
1.00001
1.00001
1.00001
1
1.00002
1.00001
1.00002
1.00001
1.00002
1.00001
1.00002
1.00001
1.00002
1.00001
1.00002
1.00001
1.00001
1.00001
1.00002
1.00001
1.00002
1.00001
1.00002
1.00002
0.999999
1
1
0.999989
0.999992
0.999989
1.00001
1.00001
1.00002
1.00001
1.00002
1.00001
1.00001
1.00001
1.00002
1.00001
1.00001
1.00001
1.00001
1.00001
1.00001
1.00001
1.00001
1.00001
1.00001
1.00001
1
1
1
1
1.00001
1.00001
1
1
1
1
1
1
1
1
1
1
0.999999
0.999998
0.999998
0.999996
0.999996
0.999998
1.98579e-20
9.75317e-16
1.4848e-11
2.67412e-07
0.00021908
0.0359778
0.443708
0.955827
0.999821
0.999797
0.985713
0.985448
1
1
1
1
1.00001
1.00001
1.00001
1.00001
1.00001
1.00001
1.00001
1.00001
1.00001
0.999997
1
1
1
0.999993
1
1
1.00002
1.00001
1.00002
1.00001
1.00002
1.00001
1.00002
1.00001
1.00002
1.00001
1.00002
1.00001
1.00002
1.00001
1.00002
1.00001
0.999999
1
1
0.999998
1
1
1.00001
1.00002
1.00002
1.00002
1.00002
1.00002
1.00002
1.00001
1.00001
1.00002
1.00002
1.00002
1.00001
1.00001
1.00001
1.00001
1.00001
1.00001
1.00001
1.00001
1.00001
1.00001
1
1.00001
1.00001
0.999998
0.999998
0.999996
0.999996
0.999996
0.999998
1.26167e-20
1.71348e-16
2.50713e-12
1.49067e-08
7.01189e-06
0.0095605
0.194042
0.653523
1
1
0.956275
0.95595
0.999936
1
1
0.999762
0.999931
1
1
0.999844
0.999765
1
1.00001
1.00001
1.00001
1
1.00001
1.00001
1.00001
1
1
0.99992
1
0.999996
1
0.999929
1
0.999997
1.00001
1.00001
1.00001
1.00001
0.999998
0.999999
1
1
1
0.999998
1
1
1.00001
1.00002
1.00002
1.00001
1.00002
1.00002
1.00001
1.00002
1.00002
1.00002
1.00002
1.00001
1.00002
1.00001
1.00001
1.00002
1.00002
1.00001
1.00002
1.00002
1.00001
1.00002
1.00001
1.00002
1.00001
1.00002
1.00001
1.00002
1
1.00002
1
1.00002
1.00001
1.00002
1.00001
0.999997
0.999996
0.999996
0.999997
0.999999
1.52137e-21
3.26325e-17
9.46623e-14
1.88595e-12
7.31046e-10
0.00093825
0.0421845
0.530209
0.529208
0.264281
0.264141
0.941682
1
0.901246
1
0.941731
1
0.90095
1
0.829742
0.829439
0.999594
1
1
0.999233
0.999593
1
1
0.999229
0.96644
1
0.982372
1
0.966076
1
0.982293
1
1
0.999964
1
1
1
0.99994
1
1
0.999997
0.999998
0.999999
1.00001
1.00001
1.00001
1.00001
1.00001
1.00001
1.00002
1.00002
1.00002
1.00001
1.00001
1.00002
1.00002
1.00002
1.00002
1.00001
1.00001
1.00001
1.00001
1.00001
1.00002
1.00002
1.00002
1
1.00001
1
1.00001
1.00001
1.00002
1.00001
1.00002
1.00001
1
1.00002
1.00001
0.999996
0.999996
0.999997
0.999999
3.62463e-22
8.57139e-19
3.89504e-16
7.43976e-10
4.27742e-06
1.90852e-06
0.0229294
0.0228962
-3.95585e-19
4.02607e-19
0.40256
0.402745
0.111611
0.112991
0.92347
1
0.878883
1
0.924417
1
0.879255
1
0.911807
0.615807
0.775745
0.724841
0.912059
0.615348
0.777359
0.72561
0.998627
1
1
0.993255
0.998508
1
1
0.993138
0.958716
1
0.980868
1
0.959634
1
0.981702
1
0.999996
0.999998
0.999999
1
1.00003
1.00003
1.00002
1.00003
1.00002
1.00002
1.00001
1.00001
1.00001
1.00001
1.00001
1.00001
1.00001
1.00001
1.00001
1.00001
1.00001
1.00001
1.00001
1.00001
1.00002
1.00001
1.00002
1.00001
1.00002
1.00002
1.00001
1.00001
1.00002
1.00002
1.00001
1.00002
1.00001
1.00001
1.00001
1.00003
1.00002
1.00002
0.999996
0.999997
0.999999
2.66392e-24
5.19684e-21
9.60296e-16
5.26362e-08
3.14555e-07
1.37297e-07
0.0100065
0.010683
-6.27289e-26
3.69056e-25
0.330344
0.546807
0.472843
0.236293
0.301415
0.819553
0.549368
0.335869
0.819579
0.471238
0.239882
0.305785
0.0156502
0.0345221
0.0553306
0.0740684
0.0175524
0.0360104
0.0539728
0.0750791
0.903157
0.998664
0.833916
0.990747
0.905668
0.998479
0.837075
0.990906
0.894034
0.645933
0.885548
0.64878
1
0.994767
1
0.995139
0.951868
0.999924
0.95292
0.999855
0.999996
0.999997
0.999999
1
1.00001
1
1.00002
1.00002
1.00002
1.00003
1.00002
1.00003
1.00001
1.00002
1.00002
1.00001
1.00001
1.00001
1.00002
1.00003
1.00002
1.00002
1.00001
1.00001
1.00001
1.00001
1.00001
1.00001
1.00001
1.00001
1.00001
1.00001
1.00001
1.00001
1.00001
1.00001
1.00002
1.00002
1.00001
1.00002
1.00002
1.00001
1.00003
1.00002
0.999997
0.999999
1.17011e-25
4.37973e-21
9.81126e-11
2.96099e-07
8.8659e-08
7.72113e-06
3.439e-06
2.19909e-07
4.71438e-07
0.00732572
0.00661258
0.000393842
0.000253897
0.448729
0.237515
0.335898
0.731945
0.149608
0.113901
0.452995
0.238881
0.715852
0.332564
0.138686
0.120186
0.0212724
0.0225672
0.0686106
0.0796936
0.0199868
0.0192262
0.0619074
0.0836156
0.751604
0.927465
0.755157
0.921004
0.999997
0.999996
0.999998
1
1
1.00001
1.00002
1.00002
1.00003
1.00002
1.00002
1.00001
1.00002
1.00003
1.00003
1.00003
1.00003
1.00001
1.00001
1
1.00001
1.00001
1.00001
1.00001
1.00002
1.00001
1.00002
1.00002
1.00002
1
1.00001
1.00001
1.00001
1.00001
1.00001
1.00001
1.00002
1.00001
1.00001
1.00002
1.00001
1.00001
1.00001
1.00001
1.00001
1.00002
1.00001
1.00002
1.00002
0.999999
2.65146e-25
4.99644e-16
8.12235e-09
5.21928e-08
2.79318e-07
8.42113e-05
5.98308e-05
9.94987e-07
1.28033e-06
0.012515
0.0223023
0.0307196
0.00966966
0.0099886
0.0163981
0.0240157
0.0071026
0.00186571
0.00142305
0.0404894
0.0403916
0.0704122
0.0402924
0.0343015
0.0398345
0.0637953
0.0456778
0.999999
0.999998
0.999998
0.999999
1
1
1
1.00001
1.00002
0.999999
1
1.00002
1.00003
1.00002
1.00002
1.00001
1.00001
1.00003
1.00003
1.00002
1.00002
1.00001
1
1
1
1.00001
1.00001
1.00001
1.00001
1.00001
1.00001
1.00002
1.00001
1
1.00001
1.00001
1.00002
1.37718e-19
9.2765e-12
5.9617e-10
1.14652e-08
5.61099e-07
1.13235e-06
1.13812e-07
2.8912e-07
5.37349e-05
4.4818e-05
1.53236e-06
2.16767e-06
0.00971443
0.0164985
0.0222502
0.00482463
0.00666029
0.0227928
0.0206749
0.00709528
0.000583281
0.000877797
0.0012411
0.00158943
0.000422729
0.000883306
0.00169713
0.00214417
0.0378831
0.0224218
0.0376459
0.0282236
0.999999
0.999998
0.999999
0.999999
1.00001
1.00002
1.00003
1.00002
1.00003
1.00002
1.00003
1.00002
1.00002
1.00002
1.00002
1.00003
1.00003
1.00003
1.00003
1.00002
1.00002
1.00002
1.00001
1.00003
1.00003
1.00002
1.00002
4.37198e-17
4.36617e-13
1.64716e-11
5.26618e-09
1.86149e-07
2.33566e-06
5.49258e-09
5.39865e-08
0.000155567
0.000311475
2.19436e-06
1.93341e-05
1.63986e-05
9.2061e-08
8.44522e-05
0.000426876
2.00781e-06
1.46785e-05
1.44171e-05
1.89417e-06
7.45639e-07
8.34438e-06
0.00245866
0.00317224
0.00424351
0.00155707
0.00242697
0.0106946
0.00339939
0.00456829
0.000576272
0.000748594
0.000665062
0.00117032
0.999999
0.999999
0.999999
1
1
1
1
0.999999
1.00001
1.00001
1.00001
1.00003
1.00001
1.00001
1.00001
1.00001
1.00001
1.00001
1.00002
1.00002
1.00002
1.00001
1.00002
1.00002
1.00002
1.00001
1.00002
1.00002
1.00002
1.00001
1.00003
1.00002
7.5842e-51
2.98676e-16
2.93588e-12
1.80576e-10
2.75727e-10
-6.26487e-28
2.27323e-28
7.99184e-07
5.61891e-06
1.50821e-08
8.02357e-08
1.282e-05
1.84282e-05
8.79573e-07
2.57037e-06
1.55495e-06
9.30747e-08
1.2313e-05
4.8963e-05
5.9228e-06
2.74851e-06
2.6253e-06
4.07031e-06
1.03469e-07
2.62704e-06
1.03388e-07
2.53827e-06
7.52068e-06
4.39888e-05
3.17821e-05
6.39858e-05
0.999999
0.999999
1
1
1
1.00001
1.00001
1.00001
1.00001
1.00001
1.00001
1.00001
1.00001
1.00001
1.00001
1.00001
1.00002
1.00002
1.00002
1.00002
1.00002
1.00002
1
1.00001
1
1.00001
1.00001
1.00002
1.00001
1.00001
1.00001
1.00001
1.00002
1.00002
1.13356e-22
1.56069e-32
4.14861e-14
5.18266e-13
1.35378e-12
-3.54212e-33
5.87491e-33
9.06044e-07
1.14992e-05
1.35598e-12
1.34459e-06
3.12618e-06
2.55499e-08
6.89878e-06
4.99196e-05
1.47226e-12
3.12299e-06
1.31517e-06
2.09214e-07
8.77529e-10
2.35539e-10
2.59049e-06
9.2061e-08
3.17005e-05
4.03055e-05
3.08053e-06
2.02703e-05
6.7343e-05
8.57789e-05
1
0.999999
1
1
0.999998
1
0.999999
1
1.00001
1.00001
1.00002
1.00001
1.00001
1
1.00001
1.00001
1.00001
1.00001
1.00002
1.00002
1.00001
1.00001
1.00001
1
1
1.00001
1.00001
1.00001
1.00001
1.00001
1.00001
5.97903e-28
-2.18253e-51
7.48819e-18
6.05509e-15
5.81913e-16
4.34236e-20
1.60652e-19
1.87228e-05
2.06831e-05
7.69433e-08
1.86246e-06
3.76437e-06
8.25973e-10
2.04461e-05
1.29893e-05
2.02188e-08
2.85183e-07
2.17139e-07
2.07513e-11
8.04799e-28
-4.32642e-33
1.03526e-10
3.16736e-11
-1.39198e-28
-4.27131e-35
1.71503e-28
1.64623e-13
3.23498e-05
4.32755e-05
3.55704e-05
4.96578e-05
1
1
1
1
1
1
1.00001
1.00001
1.00001
1.00001
1.00001
1.00001
1.00001
1.00001
1.00001
1.00001
1.00001
1.00002
1.00002
1.00002
1.00002
1
1
1.00001
1
1.00001
1.00001
1.00001
1.00001
1.30303e-33
4.93249e-51
5.93819e-38
-1.11936e-36
1.34359e-35
3.03245e-38
4.18095e-37
4.49559e-37
8.59982e-17
7.0479e-16
1.26572e-15
8.02466e-19
1.58434e-33
2.6034e-40
3.63291e-05
3.25543e-05
2.81244e-09
1.73444e-06
6.66276e-07
2.38989e-08
2.33484e-07
1.28032e-07
1.40486e-16
8.71765e-11
1.39729e-16
4.33793e-13
7.75864e-13
5.02755e-13
4.4522e-15
2.16539e-14
1
1
1
1
1.00001
1
1
1.00001
1.00001
1.00001
1.00001
1.00001
1.00001
1.00001
1.00002
1.00002
1.00001
1.00002
1.00001
1.00001
1.00001
1.00001
1.00001
1.00001
1.00001
1.00002
1.00002
1.00001
1.00001
1.00001
1.00001
5.14159e-36
9.87508e-36
1.32135e-30
-2.31339e-57
1.82913e-29
5.67302e-57
1.85359e-34
-1.91338e-49
3.41519e-34
1.92261e-16
1.8985e-17
5.79332e-16
9.59041e-16
1.36721e-51
-2.07973e-34
-9.13136e-48
2.02735e-20
4.16021e-36
2.94014e-18
3.47456e-19
4.93694e-18
4.12999e-52
2.81033e-37
-3.5527e-46
7.21396e-09
3.45069e-10
1.25081e-13
1.67831e-13
3.46068e-15
1.01977e-13
2.34402e-15
2.40229e-15
1
1
0.999999
1.00001
1.00002
0.999996
1
1
1.00001
1.00001
1
1.00002
1.00001
1.00001
1.00001
1.00001
1.00001
1.00001
1.00002
1.00002
1.00001
1.00001
1.00001
1.00001
1.00001
1.00001
1.00001
1.00002
1.00002
1.00002
5.10832e-39
1.83275e-45
1.82571e-28
1.95986e-28
9.36877e-31
9.49045e-27
1.72433e-28
2.30473e-27
1.30646e-29
1.37043e-27
3.02485e-28
4.45539e-30
2.2882e-17
1.04025e-30
-6.60163e-33
9.76808e-34
1.16986e-19
-1.04292e-45
1.94408e-20
1.67011e-16
6.33648e-30
1.06734e-33
-6.24927e-39
9.09014e-46
5.98489e-15
4.60066e-15
1.63758e-13
3.01544e-14
0.999999
0.999997
0.999995
1.00001
1.00001
0.999998
1
1
1.00001
1.00001
1.00001
1.00001
1.00001
1.00001
1.00001
1.00001
1.00002
1.00002
1.00002
1.00001
1.00001
1.00002
1.00002
1.00002
1.00001
1.00001
1.00001
1.00001
1.00002
1.00002
1.00002
1.00001
2.01628e-45
9.77674e-29
1.21935e-25
1.22131e-26
2.81935e-30
1.41797e-39
1.87687e-39
3.26951e-30
2.65169e-27
1.97805e-28
1.4556e-28
1.62384e-28
3.39142e-30
6.07619e-29
1.49872e-29
8.81539e-25
7.23453e-27
3.50072e-27
3.39142e-30
9.23266e-27
1.42155e-27
1.4084e-27
1.1209e-27
3.26951e-30
6.09221e-29
1.48035e-29
3.18333e-25
5.99224e-28
3.1469e-28
8.9493e-35
1.29608e-28
3.11708e-22
1.7648e-27
6.03694e-30
6.60876e-28
4.15445e-22
9.738e-27
0.999999
0.999993
0.999994
1
1.00001
1.00001
1.00001
1.00001
1.00001
0.999993
0.999996
0.999999
1.00001
1.00001
1.00001
1.00001
1.00001
1.00001
1.00002
1.00001
1.00002
1.00002
1.00002
1.00001
1.00001
1.00001
1.00002
1.00002
-8.66253e-77
2.38142e-24
1.86105e-28
5.93485e-25
4.03826e-30
3.18182e-39
4.61264e-39
-4.20453e-45
1.01267e-28
2.05458e-29
2.27861e-45
3.37241e-27
6.58227e-28
8.48932e-25
6.53652e-25
8.64996e-25
3.02547e-25
1.34406e-25
7.87941e-24
1.20711e-24
6.53711e-24
1.12525e-44
5.64104e-28
2.38462e-45
6.33241e-29
1.16809e-28
2.63833e-29
1.95077e-25
1.95637e-25
4.89088e-25
5.22496e-27
1.58226e-26
7.69034e-24
2.61189e-25
2.10508e-24
0.999998
0.999999
0.999988
0.999993
0.999992
0.999988
0.999987
1
1
1
1
1.00001
1
0.999995
0.999999
1
1.00001
1.00001
1.00001
1.00001
1
1
1
0.999996
0.999999
1
1
1
1
1.00001
1.00001
1.00001
1.00001
1.00001
1.00001
1.00002
1.00001
4.33817e-57
5.45768e-24
1.65354e-23
1.23337e-24
2.58699e-28
2.32625e-24
1.06287e-23
3.35659e-25
2.75583e-44
4.2384e-39
6.78959e-39
1.96872e-29
2.05868e-29
7.22357e-26
5.99758e-27
1.84004e-24
8.42271e-24
4.26576e-25
2.53552e-25
1.1875e-23
4.12342e-23
1.94967e-28
2.63633e-29
8.22165e-28
2.85494e-29
3.47241e-25
9.86704e-26
6.79365e-25
5.7009e-26
9.07879e-24
2.97535e-23
0.999999
0.999996
0.999989
0.999994
0.999987
0.999985
0.999986
1
0.999997
1
0.999998
0.999989
0.999997
1.00001
1
1.00001
1
1
1
0.999997
0.999996
1
0.999991
0.999998
1
1
1
0.999999
1
1
1
1
1
1
1
-5.10227e-77
1.52015e-57
1.67416e-56
3.45231e-24
3.22514e-23
2.55531e-24
5.97526e-23
2.87681e-24
4.35806e-38
1.00812e-24
2.17538e-23
9.78774e-25
2.27148e-23
1.05842e-24
4.09899e-44
4.05399e-25
3.04742e-22
5.38866e-22
1.37236e-24
1.33646e-22
4.42569e-22
8.98147e-26
1.35383e-23
1.61859e-23
2.14319e-24
3.45571e-23
6.96062e-23
0.999999
0.999992
0.999972
1
1
0.999973
1
1
0.999987
0.999987
0.999991
0.999994
0.999994
0.999987
0.999992
1
1
1
1
0.999999
0.999998
0.999987
1
0.999999
1
0.999999
0.999999
1
1
1
1
7.30429e-56
4.45649e-55
-1.68243e-59
6.8419e-51
6.10941e-50
5.71039e-29
5.32458e-24
1.31088e-24
6.13671e-23
1.33693e-24
4.67839e-21
2.09762e-21
-6.90421e-56
7.26968e-31
7.1703e-25
5.69366e-25
1.36775e-23
5.80355e-25
1.7949e-22
1.28584e-22
2.24504e-42
1.17757e-20
3.27061e-21
5.53482e-22
2.11281e-22
1
0.999994
0.999992
0.999972
0.999994
0.999986
0.999991
0.99999
0.99999
1
1
1
0.999998
0.999994
0.999995
1
0.999998
0.999996
1
1
0.999999
0.999997
1
0.999999
1
1
1
1.39494e-47
-8.33788e-74
1.2775e-55
1.98054e-51
2.01831e-54
-6.45647e-54
7.75156e-50
5.17032e-29
2.22467e-30
1.11327e-29
9.01296e-28
4.66084e-29
1.07516e-23
5.71816e-21
2.46711e-21
1.06863e-24
5.93423e-20
1.69726e-20
1.58637e-30
-2.01748e-48
2.11005e-31
2.05336e-29
8.49173e-31
1.01253e-23
3.30176e-22
1.42804e-22
6.97181e-24
5.11999e-21
1.06461e-21
1
0.999998
0.999999
0.999997
0.999994
0.999985
1
1
1
1
0.999996
0.999999
0.999992
1
1
1
1
1
1
0.999994
0.999994
1
1
0.999997
1
5.28163e-41
-5.99331e-66
2.76355e-49
-5.63292e-66
2.81327e-49
-6.93965e-51
-2.57674e-51
2.72798e-51
2.50173e-70
8.72816e-31
8.21479e-32
3.15713e-28
2.49423e-29
7.26962e-28
2.70082e-29
8.26275e-61
1.0357e-29
2.09464e-27
1.20106e-49
1.53513e-24
6.47573e-20
2.25157e-20
1.11944e-24
2.24021e-29
7.23357e-31
2.74451e-29
8.02653e-31
2.44112e-46
8.35486e-28
8.3995e-29
2.17182e-50
3.49481e-23
9.42695e-21
1.70343e-21
7.32221e-24
1
1
1
0.999998
1
0.999981
0.999972
0.999995
1
1
1
1
1
0.999999
1
0.999999
1
1
0.999995
1
1
1
1
1
1
1
1
1
1
8.49617e-38
7.74492e-59
1.12456e-42
1.03152e-59
1.23864e-42
-6.52931e-52
1.04103e-67
-1.3911e-53
4.50365e-68
4.11522e-33
6.69019e-36
1.92137e-34
7.33163e-38
1.78202e-29
2.99146e-48
1.0068e-47
8.08113e-31
3.14199e-30
3.64866e-32
6.65659e-33
5.22977e-32
7.43795e-28
1.33345e-29
2.16968e-27
1.13465e-29
6.40926e-29
2.60921e-29
8.66695e-29
3.4923e-31
1
1
1
1
0.999992
0.99999
0.999994
0.999985
0.999993
0.999963
0.999963
1
1
1
0.999998
1
1
1
1
1
1
1
1
1
1
1
0.999999
1
1
1
1
1
1
1
1
3.86452e-43
-1.12097e-41
-8.60448e-54
4.72139e-42
-3.43467e-55
3.8427e-43
3.64437e-40
1.68852e-36
1.70532e-40
4.915e-35
6.82256e-32
2.95836e-34
3.66302e-31
2.68837e-37
1.18274e-33
7.24841e-51
2.21714e-37
4.29898e-37
2.43412e-33
2.11594e-34
2.03075e-32
2.14699e-40
1.59317e-35
-1.50663e-55
-7.7121e-54
1.44016e-38
1.90432e-29
2.03015e-31
1.70626e-30
5.06118e-31
7.58729e-30
5.18894e-33
8.0275e-32
2.78467e-32
0.999998
0.999999
1
0.999988
0.999991
1
0.99999
0.999999
0.999982
0.999972
0.99999
0.99998
0.999991
0.999994
0.99999
0.999994
0.999987
1
1
1
0.999998
1
1
1
1
1
1
1
0.999999
2.27746e-25
5.3453e-35
8.07016e-37
2.02677e-34
1.6967e-36
-2.06265e-38
1.07308e-33
3.63217e-34
2.53255e-33
2.00736e-33
8.15315e-41
5.85029e-41
1.193e-40
5.39791e-57
-1.51189e-56
9.02969e-37
1.40246e-35
-1.44306e-54
1.92373e-38
-1.15929e-57
1.08841e-40
7.12399e-41
-1.67964e-53
2.90083e-35
4.09405e-34
2.49756e-52
8.87136e-31
7.57522e-30
6.80089e-30
6.87801e-31
1.73806e-32
2.0878e-51
1.61193e-35
5.82106e-33
3.33994e-32
2.93058e-35
2.57418e-31
2.58263e-40
3.26244e-34
2.14268e-42
5.55978e-38
3.47753e-40
0.999999
0.999975
0.99998
0.99998
0.99996
0.999981
0.999981
0.999965
0.999981
0.999979
1
1
1
1
1
1
1
1
1
1
1
1
1
0.999999
1
1
1
0.999999
1
0.999999
0.999999
0.999998
0.999999
0.999999
2.81201e-20
-1.64858e-43
1.79978e-34
5.67148e-43
-8.74236e-34
9.36392e-34
1.9354e-35
3.29684e-33
8.28558e-35
-3.85747e-35
2.27645e-31
3.63163e-34
0
1.94014e-34
1.94014e-34
1.87116e-34
2.00391e-33
2.02354e-34
2.53831e-32
2.31771e-33
1.76421e-33
1.78893e-33
1.90608e-32
1.18483e-33
1.01917e-32
1.14106e-33
3.65205e-42
7.20311e-51
1.43459e-38
1.6031e-42
2.08444e-38
7.78044e-37
3.2734e-37
1.28195e-60
7.30651e-37
9.69342e-63
1.34783e-42
1.52598e-41
4.0339e-35
4.56058e-35
2.27998e-34
6.6242e-53
1
0.999985
0.999951
0.999981
0.99995
0.999978
0.999947
0.999976
0.999947
0.999978
1
1
1
0.999999
1
0.999999
1
0.999999
1
1
1
0.999999
1
1
1
0.999999
1
1
1
1
1
0.999997
1
1
1
1
1
1
1
0.999997
1
1
1.43716e-14
3.77808e-15
6.61344e-38
3.71889e-34
8.45472e-38
4.5299e-34
2.08113e-34
1.86808e-34
2.08113e-34
4.38871e-34
1.03988e-33
5.10335e-32
1.2396e-52
1.63099e-36
6.96507e-35
1.86261e-34
2.58391e-33
8.84469e-34
3.67626e-32
2.61056e-33
7.23854e-33
2.3557e-32
-4.25355e-52
8.97682e-54
3.54922e-34
2.58167e-34
3.30603e-16
3.6211e-28
-9.79352e-52
9.79877e-52
3.17119e-28
1.59978e-29
6.94001e-31
4.87519e-31
1.6269e-33
5.01393e-34
7.74619e-34
1.08864e-31
7.77812e-34
1.05388e-37
7.1003e-37
3.24856e-37
1.21297e-37
3.3232e-35
4.23397e-35
6.32324e-35
1.95721e-36
1
0.999996
0.999964
0.999985
0.999964
0.999982
0.999997
0.999988
0.99998
0.999987
0.999984
0.999975
0.999977
0.999981
1
0.999999
1
0.999998
1
0.999999
1
0.999994
1
0.999998
1
0.999997
1
0.999998
1
0.999998
1
0.999999
1
0.999997
1
0.999997
1
0.999997
1
1
1
0.999999
9.00812e-11
1.73312e-32
1.0326e-15
1.42851e-32
1.01451e-15
4.21274e-11
-8.84899e-37
-2.23581e-34
-4.49203e-37
-1.31412e-34
1.50368e-28
2.08113e-34
5.81294e-29
2.56174e-33
3.95295e-34
8.72609e-34
-1.27495e-37
1.06155e-36
1.42961e-34
8.69813e-35
1.43061e-33
1.78458e-33
1.22965e-31
1.97275e-32
1.94604e-33
2.5587e-33
-5.023e-38
1.90087e-36
5.36473e-34
2.00787e-34
3.44886e-13
1.79813e-26
9.79257e-52
3.40251e-45
1.29503e-25
4.03797e-27
1.92136e-26
4.58643e-30
1.9537e-34
4.85736e-46
8.35826e-33
1.23493e-30
4.05091e-33
1
1
0.999978
0.999977
0.999965
0.999965
0.999965
0.999988
0.999991
0.999998
0.999985
0.999997
1
0.999999
1
0.999999
1
0.999984
0.999979
0.999996
0.999987
0.999997
1
0.999999
1
0.999998
1
0.999998
0.999995
0.999996
0.999995
1
0.999991
1
0.999999
1
0.999991
1
0.999994
1
1
1
0.999999
1
1
1
0.999999
3.66628e-08
3.4838e-30
5.17731e-26
-2.54159e-29
9.66346e-26
1.06984e-19
8.84682e-18
8.62983e-20
8.30103e-18
4.55286e-09
-4.87112e-39
-3.90258e-37
-8.80954e-38
-9.35344e-37
-1.37862e-36
-4.59919e-38
-1.06262e-36
-3.67949e-35
1.34973e-38
-1.53243e-37
3.55034e-37
-5.08207e-37
-2.02499e-36
1.04684e-37
-1.07753e-36
-2.11344e-35
-1.73814e-45
3.01555e-47
-9.93257e-38
1.39777e-37
6.65953e-35
-9.29955e-53
4.16151e-49
8.59038e-49
-3.83295e-38
9.22257e-37
-1.55854e-52
2.05753e-51
2.42772e-14
1
1
0.999992
0.999959
0.999981
0.999959
0.999973
1
0.999999
0.999997
0.999995
1
0.999971
0.999996
1
0.999971
0.999986
0.999988
0.999998
0.999982
0.999994
0.999975
0.999957
0.999999
0.999988
0.999957
0.999984
0.999975
0.999997
0.999972
0.999994
1
1
1
1
1
0.999997
1
1
1
0.999985
1
0.999975
6.32724e-07
6.41622e-07
-2.86748e-26
2.9485e-25
-2.89186e-26
8.10152e-25
-5.87663e-39
1.2006e-37
1.93616e-38
3.29038e-20
9.5721e-22
-3.68302e-38
-2.29023e-30
3.83462e-36
5.44691e-35
-3.1842e-51
6.9661e-37
-1.80425e-37
-1.65235e-46
2.58046e-20
6.85116e-22
-1.15601e-37
1.49699e-29
6.6492e-39
4.37588e-35
-1.01074e-52
1.10544e-10
3.36187e-39
-2.82115e-37
-4.23841e-38
-3.8844e-37
-2.1067e-37
-6.73433e-36
-1.86961e-38
-1.52483e-37
-6.25942e-55
-4.2072e-37
-7.64147e-37
-4.38484e-36
1.36587e-12
1
1
0.999999
0.99998
1
0.999987
1
0.999988
0.999975
0.999985
0.999962
1
0.999994
0.999999
0.999999
1
0.999999
1
0.999999
1
0.99999
0.999999
0.999999
1
0.999999
1
0.999999
1
1
0.999994
0.999996
0.999989
0.999986
0.999974
0.999996
0.999991
0.999996
0.999977
0.999987
3.66906e-06
2.28132e-07
2.11194e-06
3.03238e-07
2.40737e-06
4.11731e-08
1.88206e-12
2.28842e-09
3.94548e-12
3.78322e-09
-1.43313e-54
5.12154e-22
4.21015e-30
1.54403e-23
4.16417e-21
1.91437e-22
1.28436e-29
1.2658e-21
3.19759e-25
1.77418e-22
7.14852e-29
3.70905e-22
8.88363e-29
1.20675e-23
3.05888e-21
1.40147e-22
3.44558e-30
2.91477e-22
3.62553e-25
1.50283e-24
1.03377e-09
4.7569e-33
-2.15761e-36
1.87485e-29
2.899e-29
1.03037e-14
1
1
1
0.999999
0.999943
0.999983
0.999943
0.999984
0.999998
0.999994
1
0.999998
1
1
0.999999
1
0.999996
1
0.999993
0.999995
1
0.999996
1
1
0.999994
1
0.999995
1
1
0.999991
0.999997
0.999999
1
0.999998
1
0.999983
0.999995
1
1
0.999999
4.58263e-06
1.66442e-06
3.11759e-07
1.83517e-06
4.11137e-07
2.12578e-06
2.75257e-08
-5.3871e-33
1.02077e-30
2.10528e-16
1.30376e-26
5.33787e-09
5.39879e-32
3.51188e-30
6.05353e-16
1.69409e-27
8.2268e-09
2.15587e-23
2.25508e-23
4.50306e-23
-1.17545e-38
5.37613e-23
1.61658e-21
4.95286e-35
-7.1795e-40
-1.33811e-30
-1.01512e-40
5.63548e-25
1.04445e-21
1.70048e-12
3.64253e-19
1
1
1
1
0.999984
1
0.999981
1
0.999964
1
0.999959
1
1
0.999998
1
1
0.999996
1
0.999996
1
0.999995
1
0.999994
0.999992
0.999999
1
0.999988
1
0.999988
1
0.999988
1
1
1
1
0.999996
4.14758e-06
8.93159e-06
8.80995e-06
8.74938e-06
9.38694e-06
1.33656e-07
2.2297e-07
7.98588e-06
1.59505e-07
6.60431e-06
2.29972e-09
5.2275e-35
1.31292e-34