/*--------------------------------*- C++ -*----------------------------------*\
| =========                 |                                                 |
| \\      /  F ield         | OpenFOAM: The Open Source CFD Toolbox           |
|  \\    /   O peration     | Version:  5.x                                   |
|   \\  /    A nd           | Web:      www.OpenFOAM.org                      |
|    \\/     M anipulation  |                                                 |
\*---------------------------------------------------------------------------*/
FoamFile
{
    version     2.0;
    format      ascii;
    class       surfaceScalarField;
    location    "0.4";
    object      alphaPhi10;
}
// * * * * * * * * * * * * * * * * * * * * * * * * * * * * * * * * * * * * * //

dimensions      [0 3 -1 0 0 0 0];

internalField   nonuniform List<scalar> 
30582
(
0.000275632
8.06185e-06
0.000251614
2.40182e-05
0.000275447
1.63434e-05
0.000216001
3.56123e-05
0.000251483
4.79822e-05
0.000276524
2.36237e-05
0.000182994
3.30069e-05
0.000216241
7.08551e-05
0.000253132
7.13739e-05
0.000274423
3.3115e-05
0.000148611
3.43839e-05
0.00018283
6.64176e-05
0.000217982
0.000106006
0.000251017
9.47796e-05
0.000276457
4.07132e-05
0.000118612
2.99982e-05
0.000148166
6.9048e-05
0.000182804
0.000101595
0.000217325
0.000139698
0.000254714
0.000116523
0.00026954
5.54148e-05
9.26202e-05
2.59923e-05
0.000117927
6.02371e-05
0.000147257
0.000104595
0.00018116
0.00013776
0.000221921
0.000172491
0.000248147
0.000137916
0.00027585
6.40254e-05
7.13767e-05
2.12434e-05
9.18336e-05
5.20855e-05
0.000116483
9.1011e-05
0.000145189
0.000140567
0.000182312
0.000177369
0.000219502
0.000201136
0.000256432
0.000157334
0.000251238
9.74992e-05
5.44218e-05
1.6955e-05
7.05955e-05
4.24815e-05
9.02006e-05
7.83679e-05
0.000113903
0.000122296
0.000144257
0.000178622
0.000177939
0.000218931
0.000228566
0.000229003
0.000242839
0.000165733
0.000165631
-2.21661e-05
4.11828e-05
1.3239e-05
5.37099e-05
3.38406e-05
6.89842e-05
6.36979e-05
8.75226e-05
0.000104748
0.000111452
0.000155102
0.000139323
0.000217239
0.000180571
0.000266926
0.00022689
0.000244952
0.000204105
3.8772e-05
1.52639e-05
-1.39022e-07
3.10055e-05
1.01772e-05
4.05703e-05
2.63786e-05
5.22551e-05
5.05697e-05
6.64489e-05
8.47715e-05
8.4533e-05
0.000131667
0.000105779
0.000188646
0.000137995
0.000259814
0.000176705
0.000317111
0.000178084
6.56071e-05
4.46458e-05
-4.44867e-07
2.46486e-08
-9.1108e-11
2.32636e-05
7.74193e-06
3.04968e-05
2.02508e-05
3.93265e-05
3.93072e-05
5.00122e-05
6.70065e-05
6.34284e-05
0.000105876
7.89947e-05
0.000158451
0.000102114
0.000224527
0.000132018
0.000304501
0.000119768
6.88312e-05
4.30551e-05
1.18194e-06
3.06661e-07
-4.34807e-10
-9.67816e-12
-2.66459e-15
1.74174e-05
5.84615e-06
2.28512e-05
1.53875e-05
2.94687e-05
3.01086e-05
3.74309e-05
5.18884e-05
4.72603e-05
8.31746e-05
5.84773e-05
0.000126393
7.46876e-05
0.000185877
9.3833e-05
0.000262712
8.18527e-05
4.43693e-05
2.12007e-05
1.77096e-06
3.61831e-07
8.8643e-10
-9.71806e-11
-8.07997e-15
-1.58853e-16
-6.33357e-20
1.30245e-05
4.39291e-06
1.70891e-05
1.16082e-05
2.20215e-05
2.28347e-05
2.79136e-05
3.96259e-05
3.50674e-05
6.40814e-05
4.3034e-05
9.86179e-05
5.44172e-05
0.000146664
6.59261e-05
0.000213784
5.20979e-05
2.36369e-05
7.95481e-06
5.94515e-07
1.01007e-07
2.92637e-09
-7.04445e-11
4.47992e-14
-3.62968e-15
-1.06568e-19
-2.23866e-21
-1.47323e-24
9.73231e-06
3.29223e-06
1.27665e-05
8.71551e-06
1.64306e-05
1.71991e-05
2.07728e-05
2.99755e-05
2.59563e-05
4.8737e-05
3.15873e-05
7.55281e-05
3.94851e-05
0.00011355
4.62443e-05
0.000166346
3.54043e-05
1.0823e-05
2.56994e-06
1.45038e-07
8.47365e-09
4.37909e-10
-4.50961e-12
1.51797e-13
-2.45015e-15
7.73601e-19
-3.58342e-20
-1.52149e-24
-8.87843e-27
7.26602e-06
2.46629e-06
9.53134e-06
6.52743e-06
1.22501e-05
1.2896e-05
1.54433e-05
2.25286e-05
1.9192e-05
3.67399e-05
2.31585e-05
5.71657e-05
2.86284e-05
8.63847e-05
3.22964e-05
0.000127498
2.37537e-05
4.71358e-06
7.2706e-07
2.64531e-08
9.34171e-10
3.37205e-11
5.46282e-14
1.26331e-14
-1.37815e-16
2.86681e-18
-2.68331e-20
1.31533e-23
-1.81202e-25
5.41516e-06
1.85087e-06
7.1104e-06
4.88722e-06
9.1299e-06
9.64768e-06
1.1478e-05
1.68613e-05
1.41882e-05
2.75323e-05
1.69813e-05
4.29171e-05
2.07602e-05
6.5034e-05
2.25881e-05
9.6093e-05
1.63089e-05
1.93229e-06
1.94858e-07
4.40305e-09
9.78703e-11
1.84838e-12
1.20289e-14
7.83696e-16
-8.48876e-19
3.07835e-19
-1.84369e-21
5.47576e-23
-1.48028e-25
4.021e-06
1.39416e-06
5.29559e-06
3.66568e-06
6.8007e-06
7.21642e-06
8.53103e-06
1.25946e-05
1.04937e-05
2.05558e-05
1.24627e-05
3.20509e-05
1.5073e-05
4.86043e-05
1.58426e-05
7.17794e-05
1.12493e-05
7.80101e-07
4.85694e-08
6.63233e-10
1.1137e-11
1.02321e-13
8.3269e-16
3.4555e-17
1.16676e-19
1.59675e-20
-8.48561e-24
6.89673e-24
-1.12856e-26
2.96207e-06
1.05893e-06
3.93e-06
2.75975e-06
5.05872e-06
5.40766e-06
6.33948e-06
9.40796e-06
7.76627e-06
1.53221e-05
9.15883e-06
2.38597e-05
1.09635e-05
3.61604e-05
1.11582e-05
5.32888e-05
7.81983e-06
3.098e-07
1.20749e-08
9.75909e-11
1.23566e-12
1.10369e-14
8.5727e-17
1.96349e-18
9.06551e-21
6.1945e-22
1.19655e-24
2.99639e-25
-1.73754e-29
2.14795e-06
8.14125e-07
2.89401e-06
2.09492e-06
3.75033e-06
4.06815e-06
4.706e-06
7.04114e-06
5.74973e-06
1.14245e-05
6.74038e-06
1.77405e-05
7.99151e-06
2.68317e-05
7.89633e-06
3.94222e-05
5.46216e-06
1.2297e-07
3.03567e-09
1.41413e-11
1.42601e-13
1.15602e-15
9.35395e-18
1.56719e-19
8.254e-22
3.29957e-23
8.63738e-26
1.09948e-26
6.98273e-30
1.50774e-06
6.40208e-07
2.09784e-06
1.61029e-06
2.75933e-06
3.08592e-06
3.48253e-06
5.29161e-06
4.25454e-06
8.53634e-06
4.96566e-06
1.31992e-05
5.83774e-06
1.98943e-05
5.61563e-06
2.91124e-05
3.82897e-06
4.91221e-08
8.01583e-10
2.09402e-12
1.72771e-14
1.21532e-16
8.316e-19
1.20916e-20
6.20637e-23
1.95711e-24
5.99416e-27
5.02538e-28
4.41378e-31
9.87296e-07
5.20444e-07
1.47206e-06
1.266e-06
1.99856e-06
2.37106e-06
2.55851e-06
4.00994e-06
3.13974e-06
6.4064e-06
3.6585e-06
9.84349e-06
4.27168e-06
1.47653e-05
4.01244e-06
2.14975e-05
2.68893e-06
1.99494e-08
2.24254e-10
3.9187e-13
2.80395e-15
1.45653e-17
8.56744e-20
9.75667e-22
4.29999e-24
1.12992e-25
3.18689e-28
2.25095e-29
2.17772e-32
5.43462e-07
4.43834e-07
9.63766e-07
1.02873e-06
1.40153e-06
1.86303e-06
1.85092e-06
3.07865e-06
2.3013e-06
4.84838e-06
2.6896e-06
7.3753e-06
3.12813e-06
1.0987e-05
2.87835e-06
1.58994e-05
1.88874e-06
8.31809e-09
6.65101e-11
1.19019e-13
6.61128e-16
2.68738e-18
1.28227e-20
1.02789e-22
3.85446e-25
7.35042e-27
1.77782e-29
1.00104e-30
8.62801e-34
1.41968e-07
4.01494e-07
5.30886e-07
8.76713e-07
9.17532e-07
1.51273e-06
1.2972e-06
2.41675e-06
1.66182e-06
3.71813e-06
1.9651e-06
5.57288e-06
2.28731e-06
8.21612e-06
2.07068e-06
1.17947e-05
1.3236e-06
3.62219e-09
2.08041e-11
3.87535e-14
1.65945e-16
6.29564e-19
2.49123e-21
1.59876e-23
4.91993e-26
6.74405e-28
1.37189e-30
5.40424e-32
3.96713e-35
-2.46791e-07
3.88759e-07
1.39858e-07
7.92522e-07
5.06301e-07
1.28794e-06
8.49629e-07
1.96029e-06
1.16361e-06
2.91496e-06
1.41564e-06
4.2676e-06
1.66333e-06
6.19686e-06
1.49065e-06
8.79615e-06
9.23627e-07
1.66614e-09
6.81687e-12
1.38739e-14
4.23272e-17
1.64214e-19
4.9587e-22
2.92959e-24
7.32486e-27
8.29322e-29
1.41428e-31
4.13091e-33
2.56087e-36
-6.49275e-07
4.02484e-07
-2.3864e-07
7.67256e-07
1.35554e-07
1.16327e-06
4.70518e-07
1.66705e-06
7.62713e-07
2.36119e-06
9.90121e-07
3.34047e-06
1.19391e-06
4.73701e-06
1.06933e-06
6.61818e-06
6.38871e-07
8.32613e-10
2.29005e-12
5.5164e-15
1.15612e-17
4.93296e-20
1.08373e-22
6.19764e-25
1.16838e-27
1.19981e-29
1.62102e-32
3.94493e-34
2.05815e-37
-1.09151e-06
4.42233e-07
-6.30577e-07
7.94421e-07
-2.23013e-07
1.12582e-06
1.2945e-07
1.50434e-06
4.24721e-07
2.00505e-06
6.49695e-07
2.70162e-06
8.3374e-07
3.70065e-06
7.60277e-07
5.04607e-06
4.35944e-07
4.53845e-10
7.59841e-13
2.54289e-15
3.25867e-18
1.71935e-20
2.65009e-23
1.57518e-25
2.14955e-28
2.07316e-30
2.12081e-33
4.52806e-35
1.83613e-38
-1.59999e-06
5.0848e-07
-1.06155e-06
8.73204e-07
-5.94442e-07
1.16585e-06
-1.99962e-07
1.45524e-06
1.21648e-07
1.80741e-06
3.64511e-07
2.29023e-06
5.48203e-07
2.98716e-06
5.28742e-07
3.93218e-06
2.91538e-07
2.71421e-10
2.35347e-13
1.3077e-15
8.73585e-19
7.31033e-21
7.00201e-24
4.82579e-26
4.60259e-29
4.46815e-31
3.32954e-34
6.40852e-36
1.97444e-39
-2.20273e-06
6.02742e-07
-1.55739e-06
1.00432e-06
-1.00312e-06
1.28188e-06
-5.41148e-07
1.50704e-06
-1.70243e-07
1.74713e-06
1.09959e-07
2.06196e-06
3.11169e-07
2.52726e-06
3.49564e-07
3.16633e-06
1.89621e-07
1.74037e-10
5.73381e-14
7.79903e-16
1.309e-19
3.50543e-21
1.83761e-24
1.87746e-26
1.1066e-29
1.20102e-31
6.30339e-35
1.17042e-36
2.6309e-40
-2.92991e-06
7.27182e-07
-2.14525e-06
1.1906e-06
-1.47346e-06
1.47466e-06
-9.16634e-07
1.65737e-06
-4.72459e-07
1.80925e-06
-1.34282e-07
1.99137e-06
1.01289e-07
2.27184e-06
2.04643e-07
2.67218e-06
1.17404e-07
1.20878e-10
-9.31989e-18
5.06709e-16
-6.87861e-20
2.02909e-21
3.43561e-25
8.28267e-27
2.79445e-30
4.23505e-32
1.38111e-35
2.75269e-37
4.35022e-41
-3.81466e-06
8.84753e-07
-2.85443e-06
1.43636e-06
-2.03112e-06
1.74827e-06
-1.34905e-06
1.90708e-06
-8.05136e-07
1.99004e-06
-3.86878e-07
2.06185e-06
-9.89452e-08
2.1916e-06
7.9148e-08
2.39734e-06
6.52806e-08
9.08997e-11
-1.35923e-14
3.62259e-16
-1.01934e-19
1.29301e-21
-5.18345e-26
4.56447e-27
5.45362e-31
1.70819e-32
3.2184e-36
8.74138e-38
8.58731e-42
-4.89412e-06
1.07945e-06
-3.71738e-06
1.74771e-06
-2.70412e-06
2.10936e-06
-1.86223e-06
2.26145e-06
-1.18857e-06
2.29051e-06
-6.64934e-07
2.2681e-06
-3.05564e-07
2.26847e-06
-3.8283e-08
2.30903e-06
2.48017e-08
7.57124e-11
-1.14779e-14
2.78242e-16
-8.01157e-20
9.19898e-22
-1.36933e-25
2.80351e-27
-6.38367e-33
8.86592e-33
6.00494e-37
3.21522e-38
1.86543e-42
-6.21026e-06
1.31614e-06
-4.77074e-06
2.13281e-06
-3.52378e-06
2.56737e-06
-2.48233e-06
2.72946e-06
-1.64428e-06
2.71715e-06
-9.85844e-07
2.61142e-06
-5.33083e-07
2.49562e-06
-1.58728e-07
2.38891e-06
-1.16038e-08
7.06064e-11
-5.33849e-15
2.35558e-16
-4.90874e-20
7.03859e-22
-1.17477e-25
1.95026e-27
-1.32554e-31
5.21298e-33
3.63166e-39
1.56466e-38
3.48398e-43
-7.81139e-06
1.60112e-06
-6.05606e-06
2.60145e-06
-4.52568e-06
3.1347e-06
-3.23886e-06
3.32391e-06
-2.19607e-06
3.28126e-06
-1.36814e-06
3.09945e-06
-7.96306e-07
2.87465e-06
-2.91199e-07
2.62809e-06
-5.02406e-08
7.43777e-11
1.2445e-15
2.19248e-16
-1.76529e-20
5.957e-22
-7.6429e-26
1.46781e-27
-1.19077e-31
3.5187e-33
-1.25062e-37
8.78687e-39
2.44878e-44
-9.75202e-06
1.94063e-06
-7.62111e-06
3.16617e-06
-5.75018e-06
3.82595e-06
-4.16539e-06
4.06123e-06
-2.87109e-06
3.99893e-06
-1.83256e-06
3.74568e-06
-1.1112e-06
3.41434e-06
-4.45368e-07
3.02882e-06
-9.73192e-08
8.6726e-11
6.74624e-15
2.27104e-16
1.17955e-20
5.50424e-22
-3.27576e-26
1.23092e-27
-7.74399e-32
2.5907e-33
-1.12e-37
5.73877e-39
-4.51175e-44
-1.20943e-05
2.34224e-06
-9.51969e-06
3.83921e-06
-7.24349e-06
4.65948e-06
-5.30013e-06
4.96069e-06
-3.70028e-06
4.89041e-06
-2.40289e-06
4.56926e-06
-1.49571e-06
4.13019e-06
-6.31823e-07
3.6008e-06
-1.58564e-07
1.09628e-10
7.76813e-15
2.56361e-16
4.06722e-20
5.61969e-22
6.46098e-27
1.1256e-27
-3.02946e-32
2.14188e-33
-7.22141e-38
4.12284e-39
-4.47491e-44
-1.49061e-05
2.81184e-06
-1.18129e-05
4.63547e-06
-9.05764e-06
5.65335e-06
-6.68698e-06
6.04632e-06
-4.71902e-06
5.97943e-06
-3.10632e-06
5.59384e-06
-1.97085e-06
5.0444e-06
-8.62585e-07
4.36095e-06
-2.395e-07
1.47424e-10
-4.59576e-15
3.11534e-16
6.63699e-20
6.22492e-22
4.10392e-26
1.13397e-27
1.21952e-32
1.93448e-33
-2.91106e-38
3.35023e-39
-2.99933e-44
-1.82628e-05
3.3567e-06
-1.45678e-05
5.56669e-06
-1.1252e-05
6.82984e-06
-8.37556e-06
7.34194e-06
-5.9681e-06
7.2954e-06
-3.97414e-06
6.84725e-06
-2.5602e-06
6.18319e-06
-1.15346e-06
5.33527e-06
-3.45955e-07
2.08844e-10
-4.91688e-14
4.03299e-16
7.71316e-20
7.43788e-22
6.52142e-26
1.24048e-27
4.81424e-32
1.92406e-33
7.727e-39
2.98474e-39
-1.28062e-44
-2.22461e-05
3.98335e-06
-1.78588e-05
6.64774e-06
-1.38919e-05
8.20662e-06
-1.04227e-05
8.87694e-06
-7.49399e-06
8.86783e-06
-5.04282e-06
8.36409e-06
-3.2915e-06
7.57854e-06
-1.52114e-06
6.55087e-06
-4.84732e-07
3.11441e-10
-1.7088e-13
5.57397e-16
4.43961e-20
9.54309e-22
6.08886e-26
1.47299e-27
7.1906e-32
2.08499e-33
3.72188e-38
2.93253e-39
1.62445e-45
4.69821e-06
-2.69443e-05
-2.1767e-05
7.89158e-06
-1.70505e-05
9.80629e-06
-1.28912e-05
1.06752e-05
-9.35032e-06
1.07333e-05
-6.35433e-06
1.01793e-05
-4.19745e-06
9.27004e-06
-1.98581e-06
8.04321e-06
-6.63602e-07
4.8711e-10
-4.66974e-13
8.27552e-16
-9.63041e-20
1.32518e-21
-1.62519e-26
1.90028e-27
6.13515e-32
2.47322e-33
5.37369e-38
3.15409e-39
1.25581e-44
9.31162e-06
-2.63804e-05
1.411e-05
-4.10543e-05
-2.08074e-05
1.16485e-05
-1.58524e-05
1.27674e-05
-1.15972e-05
1.29221e-05
-7.95742e-06
1.23364e-05
-5.31606e-06
1.12979e-05
-2.57296e-06
9.85719e-06
-8.92158e-07
7.98754e-10
-1.16853e-12
1.32778e-15
-5.02818e-19
2.00815e-21
-2.69987e-25
2.68997e-27
-3.59069e-32
3.22808e-33
3.73258e-38
3.74705e-39
1.87444e-44
1.37537e-05
-2.52495e-05
2.79822e-05
-4.02526e-05
1.89573e-05
-6.00116e-05
-1.93841e-05
1.51803e-05
-1.4303e-05
1.54732e-05
-9.90752e-06
1.48722e-05
-6.69172e-06
1.3712e-05
-3.313e-06
1.2038e-05
-1.18276e-06
1.36918e-09
-2.8213e-12
2.30164e-15
-1.57926e-18
3.35424e-21
-9.8914e-25
4.22809e-27
-3.63505e-31
4.69277e-33
-5.71378e-38
4.95578e-39
1.19667e-44
1.79415e-05
-2.3572e-05
4.13673e-05
-3.86346e-05
3.76286e-05
-5.8924e-05
2.44823e-05
-8.44939e-05
-1.75442e-05
1.84215e-05
-1.22686e-05
1.78343e-05
-8.37556e-06
1.6556e-05
-4.24255e-06
1.46416e-05
-1.54999e-06
2.41645e-09
-6.67327e-12
4.28615e-15
-4.36209e-18
6.17327e-21
-2.96379e-24
7.44973e-27
-1.33068e-30
7.71269e-33
-3.74766e-37
7.41846e-39
-3.13175e-44
2.18041e-05
-2.14068e-05
5.40322e-05
-3.62368e-05
5.57045e-05
-5.67104e-05
4.86245e-05
-8.30661e-05
3.046e-05
-0.000114954
-1.51143e-05
2.12672e-05
-1.04272e-05
1.98859e-05
-5.40476e-06
1.77182e-05
-2.01129e-06
4.33957e-09
-1.56424e-11
8.47029e-15
-1.16659e-17
1.24655e-20
-8.44427e-24
1.46946e-26
-4.16841e-30
1.44492e-32
-1.34666e-36
1.27816e-38
-1.88457e-43
2.52233e-05
-1.85335e-05
6.57769e-05
-3.31515e-05
7.29076e-05
-5.344e-05
7.20322e-05
-8.01181e-05
6.05414e-05
-0.000113148
3.68069e-05
-0.000151761
-1.29167e-05
2.37567e-05
-6.85005e-06
2.13312e-05
-2.58752e-06
7.86102e-09
-3.66329e-11
1.74895e-14
-3.12087e-17
2.73603e-20
-2.42488e-23
3.2346e-26
-1.27206e-29
3.07508e-32
-4.39805e-36
2.55585e-38
-7.07109e-43
2.82427e-05
-1.59361e-05
7.62472e-05
-2.90038e-05
8.90147e-05
-4.92586e-05
9.43878e-05
-7.57956e-05
8.96624e-05
-0.000109239
7.34101e-05
-0.000149751
4.29051e-05
-0.000194666
-8.64434e-06
2.5551e-05
-3.30168e-06
1.42074e-08
-8.53067e-11
3.73187e-14
-8.476e-17
6.415e-20
-7.13226e-23
7.88385e-26
-3.98862e-29
7.41531e-32
-1.44336e-35
5.89373e-38
-2.45564e-42
3.05511e-05
-1.09528e-05
8.55601e-05
-2.5249e-05
0.000103583
-4.35726e-05
0.000115466
-7.03363e-05
0.000117448
-0.000103581
0.000108555
-0.000144384
8.7342e-05
-0.000194188
4.12288e-05
-0.000235895
-4.17914e-06
2.55866e-08
-1.95536e-10
8.06098e-14
-2.29552e-16
1.58983e-19
-2.18479e-22
2.09014e-25
-1.30037e-28
2.01003e-31
-4.98159e-35
1.56378e-37
-8.69021e-42
4.91194e-08
-5.136e-06
9.28351e-05
-1.82278e-05
0.000116728
-3.83933e-05
0.000134764
-6.28707e-05
0.000143681
-9.65693e-05
0.000141757
-0.000136783
0.000129119
-0.000186161
0.000102621
-0.00025558
2.65792e-05
-0.000262474
-4.88027e-10
1.77899e-13
-6.15947e-16
4.03813e-19
-6.75435e-22
5.97507e-25
-4.51962e-28
6.02211e-31
-1.811e-34
4.72364e-37
-3.25215e-41
4.5559e-13
-7.63829e-10
2.61575e-07
-8.63161e-06
0.000127652
-2.91519e-05
0.000152376
-5.6006e-05
0.000167855
-8.70449e-05
0.000172805
-0.000127617
0.000167635
-0.000175299
0.000154086
-0.000237626
0.000119137
-0.000348137
9.19214e-05
-0.000354395
-1.6745e-15
1.06977e-18
-2.11533e-21
1.77043e-24
-1.60305e-27
1.97798e-30
-7.1596e-34
1.60148e-36
-1.30515e-40
3.10756e-18
-1.70824e-16
5.75881e-12
-6.41284e-09
8.86887e-07
-1.41202e-05
0.000167902
-4.46781e-05
0.00019004
-7.81908e-05
0.000201293
-0.000115533
0.000202613
-0.000162595
0.000198118
-0.000219331
0.000186921
-0.00030541
0.000180038
-0.000436254
0.000161792
-0.000516187
-6.86937e-21
5.5682e-24
-5.89056e-27
6.80482e-30
-2.91437e-33
6.03452e-36
-5.80509e-40
1.90153e-23
2.95847e-21
3.97024e-17
-5.4981e-14
8.01806e-11
-3.99097e-08
2.58692e-06
-2.21373e-05
0.000210551
-6.51896e-05
0.000227291
-0.000104189
0.000233954
-0.000146874
0.000235302
-0.000199778
0.000237054
-0.000269464
0.000260089
-0.000385461
0.000251839
-0.000526302
0.000917385
-0.000290443
-0.00114313
-2.22383e-26
2.52087e-29
-1.25144e-32
2.40503e-35
-2.69123e-39
1.00482e-28
3.51711e-26
2.71271e-22
-2.862e-19
8.06378e-16
-9.76544e-13
8.16737e-10
-2.06226e-07
6.62219e-06
-3.35706e-05
0.000252155
-9.00536e-05
0.00026175
-0.000131985
0.000266705
-0.000178277
0.00027407
-0.000236795
0.000306421
-0.000315796
0.000342823
-0.000476444
0.000742834
-0.000351751
0.000870853
-0.000196288
-0.000965008
-0.00012048
-0.00102265
-5.37286e-32
1.04482e-34
-1.34525e-38
4.84311e-34
1.99401e-31
1.75401e-27
-1.34801e-24
7.16551e-21
-6.88027e-18
1.21592e-14
-1.30664e-11
6.30504e-09
-8.33711e-07
1.4622e-05
-4.88462e-05
0.000288755
-0.000117059
0.000292515
-0.000157795
0.000301389
-0.000205597
0.000331072
-0.000261445
0.000384291
-0.000357263
0.000587385
-0.000320995
0.000741983
-0.000222879
0.000842909
-0.00013175
-0.000907447
-0.000140796
-0.000944692
-8.23762e-05
-0.000940271
-6.52647e-38
4.78501e-37
1.07803e-32
-5.1253e-30
5.71163e-26
-4.32475e-23
1.53103e-19
-1.00332e-16
1.32163e-13
-1.27912e-10
3.505e-08
-2.572e-06
2.78994e-05
-6.76974e-05
0.000317435
-0.000141979
0.000320298
-0.000176703
0.000343493
-0.000218018
0.000390453
-0.000267607
0.000487299
-0.000257177
0.000618493
-0.000197504
0.000749544
-0.000129512
0.000869689
-9.15198e-05
-0.000909918
-0.000128771
-0.000919472
-0.00011548
-0.000911589
-6.44713e-05
-0.000875798
-1.04854e-35
4.34203e-31
-2.13982e-28
1.6845e-24
-9.38799e-22
2.2767e-18
-1.28326e-15
2.11453e-12
-9.54711e-10
1.43132e-07
-6.10676e-06
4.62425e-05
-8.81521e-05
0.00033755
-0.000159232
0.000348048
-0.000181259
0.000382501
-0.000210066
0.000420067
-0.000200376
0.000523245
-0.000161928
0.000660228
-0.000108188
0.000791905
-5.1727e-05
0.000876839
-2.58431e-05
-0.000942514
-0.000115301
-0.000923389
-0.000132082
-0.000902871
-0.000109536
-0.000866524
-6.21984e-05
-0.000813601
-5.62114e-34
1.70314e-29
-6.68639e-27
3.41417e-23
-1.31038e-20
3.41764e-17
-1.70171e-14
2.35594e-11
-5.65756e-09
4.43202e-07
-1.15077e-05
6.75395e-05
-0.000106299
0.000351011
-0.000162194
0.000369726
-0.000168484
0.000367669
-0.000157668
0.000452071
-0.000129202
0.000576512
-7.82126e-05
0.000697011
-1.32943e-05
0.000806392
1.87203e-05
0.00100247
-4.51489e-06
-0.0010238
-0.000101331
-0.000956486
-0.000139991
-0.000915481
-0.000142421
-0.000869987
-0.000114479
-0.000814244
-6.14758e-05
-0.000752126
-2.38818e-32
4.63239e-28
-1.16485e-25
5.30828e-22
-1.77003e-19
4.59381e-16
-1.44441e-13
1.70933e-10
-2.56043e-08
1.05387e-06
-1.76654e-05
8.8564e-05
-0.000115419
0.000355038
-0.000147506
0.000327822
-0.000128637
0.000393051
-9.86474e-05
0.000496842
-4.95325e-05
0.000601727
1.70715e-05
0.000737358
5.57399e-05
0.000913083
0.000108111
0.00092562
-5.19428e-06
-0.00104929
-7.86386e-06
6.69301e-05
6.52819e-05
-0.000109559
-0.00101557
-0.000143417
-0.000953061
-0.000166854
-0.000891047
-0.000161677
-0.000822788
-0.0001199
-0.00075582
-6.46591e-05
-0.000687467
-5.48844e-31
8.18243e-27
-1.70183e-24
8.04127e-21
-1.40739e-18
3.92949e-15
-3.27385e-13
7.97694e-10
-8.45857e-08
2.00788e-06
-2.24949e-05
0.00010485
-0.000111194
0.000294943
-0.000114628
0.000343449
-7.9035e-05
0.000422895
-2.47001e-05
0.000511058
4.11367e-05
0.00065663
9.77994e-05
0.000789641
0.000179181
0.000894693
0.000139039
-7.48421e-06
5.16359e-05
-8.3023e-05
3.36769e-05
-2.62759e-05
-0.0010527
-3.40505e-05
-2.14827e-05
-2.43398e-05
4.82162e-05
-6.78054e-05
4.2411e-06
-4.81796e-06
6.86864e-05
5.46976e-05
7.15137e-05
3.71666e-05
-0.000159237
-0.000999753
-0.000181216
-0.000938699
-0.000209643
-0.000843081
-0.000176894
-0.000765793
-0.000128094
-0.000692383
-6.82124e-05
-0.000619254
-8.96279e-30
1.31996e-25
-1.52132e-23
7.88332e-20
2.26672e-18
2.06848e-14
3.3754e-12
2.44387e-09
-1.94163e-07
3.11109e-06
-2.39966e-05
9.42969e-05
-9.27527e-05
0.0003005
-7.1679e-05
0.000356754
-1.2894e-05
0.00042678
5.9578e-05
0.000559781
0.000137985
0.000662587
0.000224854
0.000856327
0.000217548
-0.000102913
-0.000103287
0.000483515
-1.68119e-05
-2.21463e-05
1.9426e-05
2.14561e-05
-9.22133e-06
-0.000126829
2.6751e-05
4.19138e-06
2.66932e-05
4.19182e-06
-1.39955e-06
-0.00100496
-0.00020698
-0.000115291
4.21308e-06
-9.15199e-06
-0.000163781
2.4621e-05
-0.000158489
9.70631e-06
9.87009e-06
3.76805e-05
-3.91186e-05
7.47779e-06
-2.89996e-05
-4.87728e-05
-0.000182618
-0.000998351
-0.000262101
-0.000886241
-0.00023543
-0.000784545
-0.000190723
-0.000703163
-0.000136681
-0.000623915
-7.17644e-05
-0.000547489
-9.43196e-29
1.45906e-24
2.34673e-23
4.5407e-19
1.09625e-16
8.91948e-14
3.0008e-11
5.05074e-09
-2.95716e-07
3.22991e-06
-2.17357e-05
0.000100362
-6.41014e-05
0.000300108
-1.50335e-05
0.000350048
6.38375e-05
0.000453684
0.000165675
0.000536358
0.000264214
0.000790212
0.000290969
0.000603959
1.36091e-05
1.81628e-05
3.16417e-05
3.36911e-05
8.38589e-06
-0.000128523
0.000138815
-3.54894e-05
-0.000129726
0.000152119
-3.61538e-05
6.22841e-06
-0.000120454
5.12858e-06
-0.0001161
1.40594e-05
-3.268e-07
1.76002e-05
1.36694e-05
1.37657e-05
-0.000173167
0.000185126
2.87447e-05
-4.65388e-05
3.23345e-05
-4.16648e-05
-0.000962301
-0.000225274
2.41351e-06
-3.92965e-05
-0.000401329
-1.27879e-05
-2.91544e-05
-1.42494e-05
-3.48462e-05
5.74717e-05
-1.59052e-05
-5.1198e-06
4.97543e-05
2.27617e-05
-0.000188612
0.000197535
2.61804e-05
-4.65727e-05
2.9539e-05
-4.34226e-05
1.41838e-05
1.91502e-05
-4.76057e-05
-3.85521e-06
-4.52251e-05
1.8198e-05
-4.27003e-05
-3.62434e-06
-4.29552e-05
-0.000325556
-0.000934897
-0.000306043
-0.000815629
-0.000253209
-0.000722058
-0.000206083
-0.00063376
-0.000144437
-0.000551242
-7.45982e-05
-0.000472891
1.38714e-29
9.26605e-24
1.36946e-21
1.65889e-18
8.8354e-16
2.54535e-13
1.15391e-10
5.67759e-09
-3.11976e-07
3.68472e-06
-1.56952e-05
0.000100101
-2.31935e-05
0.000283544
5.14708e-05
0.000349502
0.00016802
0.000414647
0.000287386
0.000664624
0.000389803
0.000675931
4.61769e-05
4.45458e-05
6.61603e-05
6.21133e-05
4.01626e-06
-0.000100893
-9.96875e-06
-9.71367e-05
3.21544e-06
1.41624e-06
-6.69075e-05
-3.7595e-06
-6.8763e-05
6.73365e-06
2.22019e-06
-0.000262758
3.76929e-05
0.000113896
-5.44581e-05
3.06024e-05
1.50673e-05
-4.91901e-05
2.06259e-05
0.000110828
-0.000263158
3.68969e-05
0.000113841
2.8726e-05
-5.25526e-05
1.64478e-05
-4.69835e-05
2.18887e-05
0.00011096
2.07306e-06
-0.000245839
-3.3972e-05
3.02475e-05
-3.87441e-05
2.86313e-05
-0.000244088
-3.06298e-05
3.23528e-05
-3.54537e-05
3.07928e-05
1.08987e-05
0.000218167
3.67734e-05
-5.40247e-05
3.33243e-05
-4.63439e-05
8.06976e-05
2.36801e-05
1.67224e-06
-8.93457e-05
1.20403e-05
-2.33357e-05
-6.39378e-05
6.79321e-05
-2.71974e-05
9.45836e-07
7.37253e-05
1.50254e-05
-5.49101e-05
-2.70124e-05
-0.000911555
-0.0003763
-0.000494444
-2.96748e-05
-3.84178e-05
-2.60077e-05
-3.80587e-05
3.54262e-07
-0.000206551
0.000219885
-2.64765e-05
-0.000212198
0.000224494
-4.10961e-05
9.305e-07
-0.000224823
3.09107e-06
-0.000234375
-1.17393e-05
0.000229515
3.33467e-05
-5.24822e-05
2.97463e-05
-4.75978e-05
5.04578e-06
4.60332e-05
-2.49825e-05
5.22678e-05
-3.52662e-05
4.1518e-05
-2.59465e-05
4.70174e-05
-3.9642e-05
8.4951e-05
2.39031e-05
-9.21391e-05
1.11375e-05
-2.30951e-05
-6.42392e-05
6.92494e-05
-2.84878e-05
7.86375e-05
1.37031e-05
-5.51889e-05
-2.85697e-05
-9.38763e-05
1.89467e-05
1.53701e-06
3.19708e-06
-2.54368e-05
4.7966e-05
-3.2442e-05
6.83186e-07
-9.95424e-06
-3.32224e-05
-9.48358e-05
1.93676e-05
3.06407e-06
-2.4939e-05
4.79788e-05
-2.88433e-05
-8.87504e-06
-3.07977e-05
-0.000389911
-0.000851028
-0.00031531
-0.000753528
-0.000277486
-0.000650654
-0.000219356
-0.000558842
-0.000150213
-0.000475627
-7.6671e-05
-0.00039622
7.92089e-27
3.29671e-23
1.04739e-20
4.26513e-18
3.99825e-15
3.09693e-13
2.27747e-10
5.88566e-09
-1.72094e-07
3.4968e-06
-5.50503e-06
8.94333e-05
2.55342e-05
0.000259913
0.000141059
0.000301581
0.000281086
0.000494812
0.000457198
0.000645474
8.62754e-05
8.50612e-05
0.000125142
0.000123782
6.19904e-07
-3.73417e-05
1.59913e-05
-4.39252e-05
2.0328e-05
2.11422e-07
-1.92779e-05
4.78851e-05
-2.61607e-05
4.45602e-05
6.69823e-07
-0.000236898
-3.44152e-05
2.81525e-05
-3.87846e-05
2.54869e-05
-0.000234508
-3.01823e-05
3.06473e-05
-3.3883e-05
2.7728e-05
9.41651e-07
-0.000198825
-4.38179e-05
2.03933e-05
-4.23382e-05
2.29849e-05
-0.000197063
-3.93584e-05
2.23759e-05
-3.77392e-05
2.49409e-05
-2.06883e-05
-6.63429e-05
6.48152e-05
-3.22423e-05
-5.50982e-06
4.18677e-05
-3.81976e-05
-5.65937e-05
8.02965e-07
-7.41687e-06
5.75685e-05
-1.82373e-05
-7.37123e-05
-2.35834e-05
2.62449e-07
-6.28903e-05
8.41383e-06
4.0868e-07
9.55989e-05
-6.34463e-07
-5.20202e-06
4.04824e-05
-3.53977e-05
-2.04794e-05
-6.73707e-05
6.56564e-05
-3.03589e-05
-5.72649e-05
5.83073e-05
-4.27101e-06
-1.7727e-05
-7.45725e-05
-2.20547e-05
-6.30734e-05
1.02327e-05
9.63158e-05
9.7597e-07
-1.79538e-05
7.61885e-05
-7.59507e-05
-1.6256e-05
6.6165e-05
-1.74661e-07
-6.82715e-05
1.45754e-05
-1.75941e-05
-1.86738e-05
-1.25461e-07
1.442e-05
-1.75264e-05
7.67405e-05
-7.66491e-05
-1.31949e-05
6.58773e-05
-6.77185e-05
1.64929e-05
-1.71575e-05
-1.61282e-05
1.63138e-05
-6.64719e-05
2.06926e-05
7.01253e-07
6.17876e-05
2.00639e-05
-2.22286e-05
6.69238e-05
-3.07877e-05
7.97292e-07
1.75518e-05
6.9241e-05
-2.79684e-05
8.48516e-05
1.88152e-05
9.56044e-07
-9.16233e-05
-9.59261e-07
-2.14119e-05
-5.26331e-05
5.82205e-05
-1.13726e-05
6.91236e-07
7.79683e-05
-1.84746e-07
-4.43888e-05
-1.64414e-05
-0.00083724
-0.000464227
-0.000571668
-0.000100558
-8.70984e-05
-5.53146e-05
-5.61064e-05
2.54578e-06
-0.000222065
0.000214544
-2.46999e-05
-0.000227681
0.000216195
-2.43867e-05
1.79275e-06
-2.99806e-05
-3.94534e-05
3.35486e-06
-0.000243557
0.000256362
-5.28269e-05
2.93093e-05
-4.89533e-05
2.9854e-05
-0.000249273
0.000258439
-5.31547e-05
2.72616e-05
-4.95771e-05
2.85631e-05
3.62831e-06
-0.000103589
-2.64064e-05
-1.51738e-05
-0.000107
3.56066e-05
-3.79702e-05
3.56835e-05
-2.52358e-05
-0.000105303
-2.80617e-05
-1.73511e-05
-0.00010893
3.35925e-05
-3.87226e-05
3.4511e-05
-2.71181e-05
-7.12143e-05
2.12556e-05
6.59796e-05
1.80269e-05
-2.20802e-05
6.946e-05
-3.06125e-05
1.58866e-05
7.20999e-05
-2.89819e-05
5.21096e-05
2.60178e-05
5.9764e-07
2.90956e-05
-4.06765e-05
-7.84872e-05
-9.40797e-06
1.70275e-07
3.7133e-05
-1.84946e-05
5.52836e-05
2.62646e-05
2.65469e-05
-4.01176e-05
-8.05606e-05
-1.05718e-05
3.42919e-05
-2.18381e-05
8.5904e-05
1.88653e-05
-9.22158e-05
-4.60088e-07
-2.10121e-05
-5.34185e-05
5.84229e-05
-1.248e-05
7.95807e-05
-2.94436e-07
-4.47897e-05
-1.83332e-05
8.20477e-06
1.31692e-06
-2.36e-06
-2.75388e-05
8.61883e-06
-1.37827e-07
-2.64861e-05
-0.000378743
-0.000787594
-0.000354449
-0.000676563
-0.000299248
-0.000570762
-0.000228147
-0.000480909
-0.000154205
-0.000398093
-7.80916e-05
-0.000318128
6.39635e-26
7.29615e-23
4.14119e-20
4.81011e-18
7.82162e-15
2.79606e-13
3.31813e-10
3.56563e-09
8.63316e-08
2.4592e-06
6.61086e-06
6.92275e-05
8.51262e-05
0.000205989
0.000236652
0.000295867
0.00048003
0.000474941
0.00014062
0.000138426
0.0001753
0.000173385
-4.28602e-07
-5.74824e-06
7.31743e-05
-9.82502e-06
6.8297e-05
-1.07992e-06
1.45613e-05
0.000105912
1.25805e-05
0.000100297
9.58209e-07
-0.0001666
-3.70822e-05
2.55376e-05
-3.08127e-05
2.51457e-05
-0.000167843
-3.32749e-05
2.68532e-05
-2.77508e-05
2.62435e-05
8.11537e-07
-0.000128048
-1.18089e-05
1.55917e-05
-2.1988e-05
2.67423e-05
-0.000133993
-1.07953e-05
1.52149e-05
-1.9522e-05
2.6638e-05
-1.84414e-05
-7.49292e-05
-1.69953e-05
-6.92103e-05
-5.09631e-07
1.11509e-05
-1.85151e-05
-7.37008e-05
-2.15007e-05
-7.93752e-07
-6.94655e-05
8.00138e-06
-1.7691e-05
-7.53956e-05
-1.37447e-05
-6.82086e-05
1.29367e-05
-1.73419e-05
-7.36915e-05
-1.82452e-05
-6.80749e-05
9.46407e-06
-1.46477e-05
6.98964e-05
-6.59442e-05
-3.31201e-05
6.7379e-05
-1.10273e-06
-6.73686e-05
6.82653e-06
-1.67182e-05
-2.94215e-05
-9.06471e-07
5.09695e-06
-1.33151e-05
6.9484e-05
-6.54345e-05
-3.00927e-05
6.60476e-05
-6.57813e-05
7.68704e-06
-1.56988e-05
-2.62478e-05
6.3026e-06
-1.42497e-05
4.69263e-05
-5.82128e-06
-2.63474e-05
-2.49165e-05
1.70651e-07
8.68902e-07
4.47738e-05
-1.03955e-05
-3.89973e-05
4.6425e-07
-3.44097e-05
-1.43353e-05
4.89839e-05
-5.71313e-06
-2.68575e-05
4.52853e-05
-2.53909e-05
-1.01308e-05
-3.9522e-05
-3.49698e-05
-1.27363e-05
4.1984e-05
-4.32009e-05
3.83073e-05
3.54822e-07
-4.02908e-05
-1.26696e-05
5.16213e-07
-1.23516e-05
4.19842e-05
-4.27863e-05
3.86828e-05
-4.0232e-05
-1.23698e-05
-7.36837e-05
2.37914e-05
7.4428e-07
6.97158e-05
-5.11454e-07
-2.26693e-05
6.1339e-05
-1.12367e-05
6.83408e-07
-1.52508e-06
6.67594e-05
-9.59731e-06
3.31607e-05
7.31959e-06
6.08751e-07
-3.52917e-05
-7.0813e-06
-3.31282e-05
3.10447e-05
6.15866e-07
3.28296e-05
-3.68219e-05
-0.000802309
-0.000413674
-0.000600039
-0.000114701
-0.000112213
-0.000112212
-9.67311e-05
3.98153e-06
-0.000201041
0.000171849
-7.53481e-05
-0.000201848
0.000171707
-5.2976e-05
3.99843e-06
-4.581e-05
-3.77615e-05
3.25237e-06
-0.000265684
0.000258373
-5.2174e-05
4.33054e-05
-5.02057e-05
3.84472e-05
-0.000262388
0.000248967
-4.68362e-05
4.48694e-05
-4.57549e-05
3.99974e-05
3.10299e-06
-5.2673e-05
2.81489e-05
-5.08379e-05
3.29745e-05
-5.16079e-05
2.73201e-05
-4.84085e-05
3.24024e-05
-2.83257e-05
-7.11212e-05
7.02996e-05
-2.36797e-05
-5.9327e-05
-1.1048e-06
6.35626e-05
-2.17528e-06
-2.57252e-05
-7.2519e-05
-2.18303e-05
-1.75942e-06
-5.81787e-05
4.73998e-06
-2.74499e-05
-7.18578e-05
7.01332e-05
-2.39801e-05
-6.10682e-05
6.48355e-05
-5.06034e-06
-2.52566e-05
-7.2557e-05
-2.36213e-05
-5.91545e-05
-3.66548e-07
-1.68193e-05
7.39616e-05
-7.5656e-05
3.34002e-06
-4.11232e-05
-8.12103e-05
5.92573e-06
5.72908e-05
-2.85758e-07
2.47927e-05
-6.30306e-05
-2.23203e-05
-1.42072e-05
-9.7765e-07
1.3453e-05
-2.62057e-07
-5.74708e-05
2.8517e-05
-1.6957e-05
7.3308e-05
-7.6861e-05
3.15918e-06
-4.17453e-05
-8.19263e-05