/*--------------------------------*- C++ -*----------------------------------*\
| =========                 |                                                 |
| \\      /  F ield         | OpenFOAM: The Open Source CFD Toolbox           |
|  \\    /   O peration     | Version:  5.x                                   |
|   \\  /    A nd           | Web:      www.OpenFOAM.org                      |
|    \\/     M anipulation  |                                                 |
\*---------------------------------------------------------------------------*/
FoamFile
{
    version     2.0;
    format      ascii;
    class       volScalarField;
    location    "0.4";
    object      k;
}
// * * * * * * * * * * * * * * * * * * * * * * * * * * * * * * * * * * * * * //

dimensions      [0 2 -2 0 0 0 0];

internalField   nonuniform List<scalar> 
12160
(
9.97936e-09
9.97485e-09
1.00137e-08
9.97419e-09
1.00163e-08
1.00042e-08
9.97412e-09
1.00156e-08
1.00052e-08
1.00034e-08
9.97412e-09
1.00115e-08
1.00053e-08
1.00041e-08
1.00033e-08
9.97412e-09
1.00093e-08
1.00044e-08
1.00041e-08
1.00039e-08
1.00036e-08
9.97412e-09
1.00073e-08
1.0004e-08
1.00038e-08
1.00039e-08
1.00041e-08
1.00038e-08
9.97412e-09
1.00061e-08
1.00037e-08
1.00036e-08
1.00037e-08
1.0004e-08
1.00044e-08
1.00041e-08
9.97412e-09
1.00052e-08
1.00035e-08
1.00035e-08
1.00036e-08
1.00037e-08
1.00041e-08
1.00044e-08
1.00072e-08
9.97411e-09
1.00046e-08
1.00034e-08
1.00034e-08
1.00035e-08
1.00036e-08
1.00038e-08
1.00039e-08
1.00056e-08
1.00082e-08
9.97411e-09
1.00042e-08
1.00033e-08
1.00034e-08
1.00034e-08
1.00035e-08
1.00036e-08
1.00037e-08
1.00046e-08
1.00057e-08
1.00056e-08
9.97411e-09
1.00039e-08
1.00033e-08
1.00033e-08
1.00033e-08
1.00034e-08
1.00035e-08
1.00036e-08
1.00046e-08
1.00045e-08
1.00068e-08
1.00047e-08
9.97411e-09
1.00037e-08
1.00033e-08
1.00033e-08
1.00033e-08
1.00034e-08
1.00034e-08
1.00036e-08
1.00041e-08
1.00043e-08
1.00055e-08
1.00046e-08
1.00045e-08
9.97411e-09
1.00036e-08
1.00033e-08
1.00033e-08
1.00033e-08
1.00033e-08
1.00034e-08
1.00036e-08
1.00039e-08
1.00041e-08
1.00053e-08
1.00043e-08
1.00043e-08
1.00041e-08
9.97412e-09
1.00035e-08
1.00033e-08
1.00033e-08
1.00033e-08
1.00033e-08
1.00033e-08
1.00036e-08
1.00036e-08
1.00039e-08
1.00046e-08
1.00044e-08
1.00039e-08
1.00041e-08
1.00032e-08
9.97412e-09
1.00034e-08
1.00033e-08
1.00033e-08
1.00033e-08
1.00033e-08
1.00033e-08
1.00036e-08
1.00035e-08
1.00038e-08
1.00041e-08
1.0004e-08
1.00039e-08
1.00038e-08
1.00037e-08
9.97412e-09
1.00034e-08
1.00033e-08
1.00033e-08
1.00033e-08
1.00033e-08
1.00033e-08
1.00036e-08
1.00034e-08
1.00037e-08
1.00038e-08
1.00037e-08
1.00037e-08
1.00037e-08
1.00036e-08
9.97412e-09
1.00032e-08
1.00033e-08
1.00033e-08
1.00033e-08
1.00033e-08
1.00033e-08
1.00036e-08
1.00034e-08
1.00037e-08
1.00036e-08
1.00036e-08
1.00036e-08
1.00036e-08
1.00036e-08
9.97412e-09
1.00028e-08
1.00031e-08
1.00032e-08
1.00033e-08
1.00033e-08
1.00033e-08
1.00036e-08
1.00033e-08
1.00036e-08
1.00035e-08
1.00035e-08
1.00035e-08
1.00035e-08
1.00035e-08
9.97412e-09
1.00025e-08
1.00028e-08
1.00031e-08
1.00032e-08
1.00033e-08
1.00033e-08
1.00036e-08
1.00033e-08
1.00036e-08
1.00034e-08
1.00034e-08
1.00034e-08
1.00035e-08
1.00035e-08
9.97412e-09
1.00022e-08
1.00025e-08
1.00028e-08
1.0003e-08
1.00032e-08
1.00033e-08
1.00036e-08
1.00033e-08
1.00036e-08
1.00033e-08
1.00033e-08
1.00034e-08
1.00034e-08
1.00034e-08
9.97411e-09
1.00019e-08
1.00022e-08
1.00025e-08
1.00027e-08
1.00031e-08
1.00032e-08
1.00035e-08
1.00033e-08
1.00036e-08
1.00033e-08
1.00033e-08
1.00033e-08
1.00034e-08
1.00034e-08
9.97412e-09
1.00017e-08
1.00019e-08
1.00022e-08
1.00024e-08
1.00028e-08
1.00032e-08
1.00035e-08
1.00033e-08
1.00036e-08
1.00033e-08
1.00033e-08
1.00033e-08
1.00033e-08
1.00033e-08
9.97412e-09
1.00015e-08
1.00016e-08
1.00019e-08
1.00021e-08
1.00025e-08
1.00028e-08
1.00035e-08
1.00033e-08
1.00035e-08
1.00032e-08
1.00033e-08
1.00033e-08
1.00033e-08
1.00033e-08
9.97412e-09
1.00013e-08
1.00014e-08
1.00016e-08
1.00018e-08
1.00022e-08
1.00025e-08
1.00034e-08
1.00033e-08
1.00034e-08
1.00032e-08
1.00032e-08
1.00033e-08
1.00033e-08
1.00033e-08
9.97411e-09
1.00013e-08
1.00013e-08
1.00014e-08
1.00015e-08
1.00019e-08
1.00022e-08
1.00034e-08
1.00032e-08
1.00033e-08
1.00031e-08
1.00032e-08
1.00032e-08
1.00033e-08
1.00033e-08
9.97411e-09
1.00013e-08
1.00012e-08
1.00012e-08
1.00012e-08
1.00016e-08
1.00018e-08
1.00034e-08
1.00032e-08
1.00033e-08
1.00031e-08
1.00031e-08
1.00032e-08
1.00032e-08
1.00033e-08
9.97411e-09
1.00014e-08
1.00012e-08
1.00011e-08
1.0001e-08
1.00013e-08
1.00014e-08
1.00033e-08
1.00033e-08
1.00033e-08
1.00031e-08
1.00031e-08
1.00031e-08
1.00032e-08
1.00032e-08
9.97411e-09
1.00016e-08
1.00014e-08
1.00012e-08
1.00009e-08
1.00011e-08
1.00008e-08
1.00033e-08
1.00033e-08
1.00035e-08
1.00032e-08
1.00031e-08
1.00031e-08
1.00032e-08
1.00032e-08
9.97411e-09
1.00018e-08
1.00015e-08
1.00013e-08
1.0001e-08
1.0001e-08
1.00002e-08
1.00032e-08
1.00034e-08
1.00035e-08
1.00033e-08
1.00032e-08
1.00032e-08
1.00032e-08
1.00032e-08
9.97412e-09
1.0002e-08
1.00017e-08
1.00015e-08
1.00012e-08
1.00011e-08
9.99994e-09
1.00031e-08
1.00034e-08
1.00035e-08
1.00033e-08
1.00033e-08
1.00033e-08
1.00032e-08
1.00032e-08
9.97412e-09
1.00022e-08
1.00019e-08
1.00017e-08
1.00014e-08
1.00013e-08
1.00003e-08
1.00031e-08
1.00033e-08
1.00034e-08
1.00032e-08
1.00033e-08
1.00033e-08
1.00033e-08
1.00032e-08
9.97412e-09
1.00024e-08
1.00021e-08
1.00019e-08
1.00016e-08
1.00015e-08
1.00008e-08
1.00029e-08
1.00031e-08
1.00032e-08
1.00029e-08
1.00032e-08
1.00033e-08
1.00033e-08
1.00032e-08
9.97412e-09
1.00026e-08
1.00023e-08
1.00021e-08
1.00019e-08
1.00017e-08
1.00013e-08
1.00026e-08
1.0003e-08
1.0003e-08
1.00025e-08
1.0003e-08
1.00031e-08
1.00032e-08
1.00026e-08
9.97412e-09
1.00027e-08
1.00025e-08
1.00023e-08
1.00021e-08
1.00019e-08
1.00016e-08
1.00027e-08
1.00029e-08
1.00028e-08
1.00022e-08
1.00028e-08
1.00029e-08
1.0003e-08
1.00021e-08
9.97412e-09
1.00029e-08
1.00026e-08
1.00025e-08
1.00023e-08
1.00022e-08
1.00019e-08
1.00029e-08
1.00029e-08
1.00028e-08
1.0002e-08
1.00026e-08
1.00023e-08
1.00027e-08
1.0002e-08
9.97412e-09
1.0003e-08
1.00028e-08
1.00027e-08
1.00025e-08
1.00023e-08
1.00021e-08
1.0003e-08
1.0003e-08
1.00029e-08
1.00021e-08
1.00025e-08
1.00018e-08
1.00021e-08
1.00017e-08
9.97412e-09
1.00031e-08
1.00029e-08
1.00028e-08
1.00026e-08
1.00025e-08
1.00024e-08
1.00031e-08
1.00031e-08
1.0003e-08
1.00023e-08
1.00025e-08
1.00016e-08
1.00014e-08
1.00011e-08
9.97412e-09
1.00032e-08
1.0003e-08
1.00029e-08
1.00028e-08
1.00027e-08
1.00025e-08
1.00032e-08
1.00032e-08
1.00033e-08
1.00026e-08
1.00026e-08
1.00018e-08
1.00012e-08
1.00005e-08
9.97411e-09
1.00033e-08
1.0003e-08
1.0003e-08
1.00029e-08
1.00028e-08
1.00027e-08
1.00032e-08
1.00033e-08
1.00034e-08
1.0003e-08
1.00028e-08
1.00023e-08
1.00015e-08
1.00002e-08
1.00034e-08
9.97411e-09
1.00031e-08
1.0003e-08
1.0003e-08
1.00029e-08
1.00028e-08
1.00033e-08
1.00033e-08
1.00035e-08
1.00032e-08
1.0003e-08
1.00027e-08
1.0002e-08
1.00005e-08
1.00031e-08
1.00036e-08
9.97411e-09
1.00031e-08
1.0003e-08
1.0003e-08
1.00029e-08
1.00033e-08
1.00033e-08
1.00034e-08
1.00033e-08
1.00032e-08
1.00028e-08
1.00025e-08
1.00009e-08
1.00031e-08
1.00032e-08
1.00039e-08
9.97411e-09
1.00031e-08
1.0003e-08
1.0003e-08
1.00033e-08
1.00031e-08
1.00032e-08
1.00032e-08
1.00032e-08
1.00031e-08
1.00028e-08
1.00014e-08
1.00031e-08
1.00032e-08
1.00033e-08
1.00044e-08
9.97411e-09
1.00031e-08
1.0003e-08
1.00034e-08
1.00029e-08
1.00029e-08
1.00029e-08
1.00031e-08
1.00031e-08
1.0003e-08
1.00024e-08
1.00031e-08
1.00032e-08
1.00032e-08
1.00033e-08
1.00051e-08
9.97411e-09
1.00031e-08
1.00034e-08
1.00028e-08
1.00026e-08
1.00025e-08
1.00029e-08
1.0003e-08
1.0003e-08
1.00028e-08
1.00031e-08
1.00032e-08
1.00032e-08
1.00033e-08
1.00034e-08
1.00061e-08
9.97411e-09
1.00034e-08
1.00028e-08
1.00024e-08
1.00022e-08
1.00025e-08
1.00028e-08
1.00029e-08
1.00028e-08
1.00034e-08
1.00032e-08
1.00032e-08
1.00033e-08
1.00033e-08
1.00036e-08
1.00076e-08
9.97416e-09
1.0003e-08
1.00026e-08
1.00022e-08
1.00023e-08
1.00025e-08
1.00028e-08
1.00028e-08
1.00032e-08
1.00035e-08
1.00033e-08
1.00033e-08
1.00033e-08
1.00034e-08
1.00039e-08
1.00105e-08
9.97476e-09
1.00031e-08
1.00026e-08
1.00024e-08
1.00025e-08
1.00027e-08
1.00027e-08
1.00036e-08
1.00033e-08
1.00035e-08
1.00033e-08
1.00033e-08
1.00034e-08
1.00035e-08
1.00045e-08
1.0016e-08
9.97928e-09
1.00032e-08
1.00028e-08
1.00026e-08
1.00027e-08
1.00028e-08
1.00038e-08
1.00037e-08
1.00034e-08
1.00035e-08
1.00033e-08
1.00034e-08
1.00034e-08
1.00037e-08
1.00062e-08
1.00267e-08
9.99588e-09
1.00034e-08
1.00031e-08
1.00029e-08
1.00029e-08
1.00038e-08
1.00037e-08
1.00039e-08
1.00035e-08
1.00034e-08
1.00034e-08
1.00035e-08
1.00035e-08
1.00041e-08
1.0011e-08
1.00381e-08
1.00211e-08
1.00035e-08
1.00032e-08
1.00031e-08
1.00037e-08
1.00036e-08
1.00039e-08
1.00041e-08
1.00036e-08
1.00034e-08
1.00034e-08
1.00035e-08
1.00037e-08
1.00054e-08
1.00187e-08
1.00339e-08
1.00041e-08
9.98276e-09
1.00035e-08
1.00033e-08
1.00036e-08
1.00036e-08
1.00037e-08
1.00038e-08
1.00042e-08
1.00038e-08
1.00034e-08
1.00035e-08
1.00036e-08
1.00041e-08
1.00084e-08
1.00246e-08
1.00043e-08
1.00036e-08
1.00039e-08
9.98204e-09
1.00034e-08
1.00034e-08
1.00035e-08
1.00036e-08
1.00037e-08
1.00037e-08
1.0004e-08
1.00039e-08
1.00034e-08
1.00036e-08
1.00038e-08
1.00049e-08
1.00125e-08
1.00044e-08
1.00037e-08
1.00035e-08
1.00036e-08
1.00038e-08
9.98171e-09
1.00034e-08
1.00035e-08
1.00035e-08
1.00035e-08
1.00037e-08
1.0004e-08
1.00039e-08
1.00034e-08
1.00037e-08
1.0004e-08
1.00063e-08
1.00042e-08
1.00039e-08
1.00037e-08
1.00038e-08
1.00035e-08
1.00036e-08
1.00038e-08
9.98165e-09
1.00033e-08
1.00034e-08
1.00034e-08
1.00034e-08
1.00039e-08
1.0004e-08
1.00039e-08
1.00034e-08
1.00038e-08
1.00043e-08
1.0004e-08
1.00039e-08
1.00038e-08
1.00038e-08
1.00042e-08
1.00037e-08
1.00036e-08
1.00037e-08
1.00038e-08
9.98165e-09
1.00033e-08
1.00033e-08
1.00034e-08
1.00037e-08
1.00044e-08
1.00042e-08
1.00038e-08
1.00035e-08
1.00039e-08
1.00038e-08
1.00039e-08
1.00039e-08
1.00038e-08
1.00041e-08
1.00068e-08
1.00044e-08
1.00038e-08
1.00037e-08
1.00038e-08
1.00039e-08
9.98172e-09
1.00033e-08
1.00034e-08
1.00037e-08
1.00043e-08
1.00049e-08
1.00044e-08
1.00037e-08
1.00036e-08
1.00037e-08
1.00038e-08
1.00039e-08
1.00037e-08
1.00042e-08
1.00056e-08
1.00162e-08
1.00073e-08
1.0015e-08
1.00142e-08
1.00142e-08
1.00044e-08
1.00039e-08
1.00038e-08
1.00038e-08
1.00039e-08
9.9818e-09
1.00034e-08
1.00037e-08
1.00042e-08
1.00049e-08
1.00052e-08
1.00044e-08
1.00037e-08
1.00036e-08
1.00037e-08
1.00038e-08
1.00037e-08
1.00042e-08
1.00047e-08
1.00172e-08
1.00191e-08
1.0017e-08
1.00074e-08
1.00194e-08
1.00161e-08
1.00162e-08
1.00241e-08
1.00218e-08
1.00246e-08
1.00046e-08
1.0004e-08
1.00039e-08
1.00039e-08
1.00039e-08
9.98187e-09
1.00036e-08
1.0004e-08
1.00046e-08
1.00052e-08
1.00052e-08
1.00044e-08
1.00037e-08
1.00036e-08
1.00037e-08
1.00037e-08
1.00041e-08
1.00042e-08
1.00121e-08
1.00257e-08
1.00253e-08
1.00213e-08
1.00204e-08
1.00214e-08
1.00351e-08
1.00078e-08
1.00147e-08
1.00244e-08
1.00228e-08
1.00242e-08
1.00348e-08
1.0032e-08
1.00313e-08
1.0005e-08
1.00041e-08
1.00039e-08
1.00039e-08
1.00039e-08
9.98193e-09
1.00037e-08
1.00042e-08
1.00047e-08
1.00051e-08
1.00052e-08
1.00043e-08
1.00037e-08
1.00036e-08
1.00038e-08
1.0004e-08
1.0004e-08
1.00087e-08
1.00217e-08
1.00199e-08
1.00192e-08
1.0018e-08
1.00353e-08
1.00346e-08
1.00336e-08
1.00327e-08
1.00361e-08
1.0036e-08
1.00381e-08
1.00361e-08
1.00379e-08
1.00089e-08
1.00156e-08
1.00353e-08
1.00366e-08
1.00347e-08
1.00363e-08
1.00369e-08
1.00346e-08
1.00365e-08
1.00355e-08
1.00379e-08
1.00358e-08
1.00376e-08
1.00357e-08
1.00364e-08
1.00359e-08
1.00375e-08
1.00351e-08
1.00359e-08
1.00352e-08
1.0037e-08
1.0005e-08
1.00041e-08
1.0004e-08
1.00039e-08
1.00039e-08
9.98196e-09
1.00037e-08
1.00041e-08
1.00045e-08
1.0005e-08
1.00049e-08
1.00043e-08
1.00037e-08
1.00037e-08
1.00039e-08
1.00041e-08
1.00067e-08
1.00161e-08
1.00156e-08
1.00138e-08
1.00138e-08
1.0032e-08
1.00313e-08
1.00296e-08
1.00289e-08
1.00357e-08
1.00368e-08
1.00356e-08
1.00351e-08
1.00348e-08
1.00358e-08
1.00364e-08
1.00352e-08
1.00349e-08
1.00346e-08
1.0034e-08
1.00351e-08
1.00339e-08
1.00331e-08
1.00345e-08
1.00338e-08
1.00336e-08
1.00324e-08
1.00341e-08
1.0033e-08
1.00367e-08
1.00382e-08
1.00365e-08
1.00383e-08
1.00366e-08
1.00385e-08
1.00368e-08
1.00384e-08
1.00084e-08
1.00181e-08
1.00337e-08
1.00342e-08
1.0035e-08
1.00361e-08
1.00405e-08
1.00408e-08
1.00391e-08
1.00397e-08
1.00372e-08
1.00382e-08
1.00366e-08
1.00385e-08
1.00361e-08
1.00374e-08
1.00356e-08
1.00381e-08
1.00372e-08
1.00383e-08
1.00371e-08
1.00386e-08
1.00361e-08
1.00383e-08
1.00364e-08
1.00381e-08
1.00363e-08
1.00379e-08
1.00356e-08
1.00376e-08
1.00046e-08
1.00041e-08
1.0004e-08
1.0004e-08
1.0004e-08
9.98198e-09
1.00038e-08
1.0004e-08
1.00044e-08
1.00049e-08
1.0005e-08
1.00045e-08
1.00039e-08
1.00038e-08
1.00044e-08
1.00059e-08
1.00121e-08
1.00122e-08
1.00107e-08
1.00108e-08
1.00257e-08
1.00251e-08
1.00204e-08
1.00201e-08
1.00333e-08
1.0032e-08
1.00328e-08
1.0031e-08
1.00331e-08
1.00314e-08
1.00327e-08
1.00305e-08
1.00319e-08
1.00284e-08
1.00324e-08
1.00296e-08
1.0032e-08
1.0028e-08
1.00324e-08
1.00291e-08
1.00365e-08
1.0035e-08
1.0034e-08
1.00361e-08
1.00346e-08
1.00336e-08
1.00361e-08
1.00345e-08
1.00356e-08
1.00334e-08
1.00341e-08
1.0033e-08
1.00335e-08
1.00318e-08
1.00341e-08
1.00328e-08
1.00332e-08
1.00314e-08
1.00337e-08
1.00323e-08
1.0037e-08
1.00384e-08
1.00369e-08
1.00383e-08
1.00362e-08
1.00379e-08
1.00358e-08
1.00378e-08
1.00066e-08
1.00167e-08
1.00347e-08
1.00332e-08
1.00336e-08
1.00331e-08
1.00414e-08
1.00414e-08
1.00412e-08
1.00413e-08
1.00396e-08
1.00406e-08
1.00393e-08
1.00401e-08
1.00396e-08
1.00407e-08
1.00394e-08
1.00404e-08
1.00379e-08
1.0038e-08
1.00377e-08
1.00386e-08
1.00389e-08
1.00366e-08
1.00382e-08
1.00384e-08
1.00382e-08
1.00389e-08
1.00394e-08
1.00376e-08
1.0037e-08
1.00383e-08
1.00367e-08
1.00383e-08
1.00369e-08
1.00383e-08
1.00373e-08
1.00385e-08
1.00361e-08
1.00377e-08
1.00358e-08
1.00375e-08
1.00364e-08
1.00372e-08
1.00361e-08
1.00369e-08
1.00047e-08
1.00042e-08
1.0004e-08
1.0004e-08
1.0004e-08
9.98201e-09
1.00036e-08
1.00038e-08
1.00043e-08
1.00049e-08
1.00054e-08
1.00049e-08
1.0004e-08
1.00043e-08
1.00054e-08
1.00097e-08
1.00099e-08
1.00089e-08
1.0009e-08
1.00156e-08
1.00157e-08
1.00137e-08
1.00139e-08
1.00311e-08
1.00268e-08
1.00301e-08
1.00259e-08
1.00313e-08
1.00265e-08
1.00304e-08
1.00259e-08
1.00267e-08
1.00251e-08
1.00287e-08
1.00248e-08
1.00272e-08
1.00255e-08
1.00291e-08
1.0025e-08
1.00331e-08
1.00308e-08
1.00328e-08
1.00299e-08
1.00329e-08
1.00305e-08
1.00328e-08
1.00298e-08
1.0033e-08
1.00286e-08
1.00328e-08
1.00292e-08
1.00332e-08
1.00287e-08
1.0033e-08
1.00292e-08
1.00352e-08
1.00376e-08
1.00354e-08
1.00372e-08
1.00066e-08
1.00112e-08
1.00317e-08
1.00302e-08
1.00351e-08
1.00327e-08
1.00414e-08
1.00409e-08
1.00415e-08
1.00412e-08
1.00405e-08
1.00418e-08
1.00402e-08
1.00417e-08
1.00405e-08
1.00417e-08
1.00402e-08
1.00416e-08
1.00397e-08
1.00409e-08
1.00399e-08
1.00414e-08
1.00396e-08
1.00409e-08
1.00398e-08
1.00413e-08
1.00377e-08
1.00366e-08
1.00382e-08
1.00376e-08
1.00374e-08
1.00362e-08
1.00379e-08
1.00371e-08
1.00374e-08
1.0038e-08
1.00381e-08
1.00362e-08
1.00383e-08
1.00384e-08
1.00376e-08
1.00381e-08
1.00385e-08
1.00366e-08
1.00382e-08
1.00382e-08
1.00352e-08
1.00376e-08
1.00354e-08
1.00373e-08
1.00356e-08
1.00371e-08
1.00357e-08
1.00372e-08
1.00048e-08
1.00041e-08
1.0004e-08
1.0004e-08
1.00044e-08
9.98208e-09
1.00032e-08
1.00033e-08
1.0004e-08
1.00051e-08
1.00057e-08
1.00056e-08
1.00045e-08
1.00049e-08
1.00064e-08
1.00124e-08
1.00126e-08
1.00109e-08
1.0011e-08
1.00246e-08
1.00252e-08
1.00212e-08
1.00217e-08
1.00328e-08
1.00278e-08
1.00324e-08
1.00271e-08
1.00331e-08
1.00281e-08
1.00328e-08
1.00275e-08
1.00289e-08
1.00257e-08
1.00313e-08
1.00265e-08
1.00294e-08
1.00263e-08
1.00318e-08
1.0027e-08
1.00339e-08
1.00296e-08
1.00341e-08
1.00296e-08
1.0007e-08
1.00114e-08
1.00186e-08
1.00189e-08
1.00225e-08
1.00224e-08
1.00382e-08
1.00373e-08
1.00405e-08
1.00393e-08
1.00414e-08
1.00418e-08
1.00413e-08
1.00418e-08
1.00408e-08
1.00411e-08
1.00409e-08
1.00412e-08
1.00407e-08
1.00419e-08
1.00409e-08
1.00419e-08
1.00407e-08
1.00416e-08
1.00408e-08
1.00414e-08
1.00379e-08
1.00375e-08
1.00369e-08
1.00358e-08
1.0038e-08
1.00379e-08
1.0037e-08
1.00362e-08
1.00371e-08
1.00358e-08
1.00368e-08
1.00353e-08
1.00369e-08
1.00356e-08
1.00366e-08
1.00354e-08
1.00044e-08
1.0004e-08
1.0004e-08
1.00044e-08
1.00064e-08
9.98193e-09
1.0003e-08
1.00028e-08
1.0004e-08
1.00048e-08
1.00062e-08
1.00068e-08
1.00077e-08
1.00082e-08
1.00165e-08
1.00167e-08
1.00263e-08
1.00265e-08
1.00181e-08
1.00185e-08
1.00158e-08
1.00161e-08
1.00252e-08
1.00318e-08
1.00261e-08
1.00313e-08
1.00256e-08
1.0032e-08
1.00265e-08
1.00315e-08
1.00239e-08
1.00297e-08
1.00236e-08
1.00307e-08
1.00243e-08
1.00299e-08
1.0024e-08
1.00309e-08
1.00339e-08
1.0029e-08
1.00337e-08
1.00286e-08
1.00341e-08
1.00292e-08
1.0034e-08
1.00289e-08
1.00326e-08
1.00272e-08
1.00332e-08
1.0028e-08
1.00329e-08
1.00276e-08
1.00335e-08
1.00284e-08
1.00056e-08
1.0013e-08
1.00202e-08
1.00305e-08
1.00316e-08
1.00334e-08
1.00338e-08
1.00404e-08
1.00408e-08
1.00406e-08
1.00408e-08
1.0041e-08
1.00415e-08
1.00405e-08
1.00407e-08
1.00407e-08
1.00412e-08
1.00403e-08
1.00403e-08
1.00388e-08
1.00388e-08
1.00396e-08
1.00398e-08
1.0039e-08
1.00391e-08
1.00397e-08
1.00398e-08
1.0037e-08
1.00346e-08
1.00381e-08
1.00358e-08
1.00042e-08
1.00041e-08
1.00044e-08
1.00064e-08
1.00141e-08
9.97413e-09
1.00032e-08
1.00028e-08
1.00039e-08
1.00043e-08
1.00063e-08
1.00092e-08
1.00302e-08
1.00596e-08
1.00279e-08
1.0028e-08
1.00399e-08
1.00401e-08
1.00283e-08
1.00232e-08
1.00243e-08
1.00263e-08
1.00285e-08
1.00235e-08
1.00246e-08
1.00266e-08
1.00255e-08
1.00257e-08
1.00266e-08
1.00329e-08
1.00269e-08
1.00333e-08
1.00269e-08
1.00332e-08
1.00272e-08
1.00336e-08
1.00264e-08
1.00335e-08
1.00263e-08
1.00339e-08
1.00267e-08
1.00338e-08
1.00265e-08
1.00342e-08
1.00327e-08
1.00273e-08
1.0033e-08
1.00277e-08
1.00046e-08
1.00092e-08
1.00251e-08
1.00311e-08
1.00299e-08
1.00297e-08
1.0031e-08
1.00343e-08
1.00356e-08
1.00395e-08
1.00399e-08
1.00382e-08
1.00387e-08
1.00396e-08
1.00377e-08
1.00394e-08
1.00398e-08
1.00403e-08
1.00391e-08
1.00361e-08
1.00367e-08
1.00345e-08
1.00368e-08
1.00381e-08
1.00386e-08
1.00372e-08
1.00385e-08
1.00373e-08
1.00346e-08
1.00374e-08
1.00351e-08
1.0039e-08
1.00373e-08
1.00391e-08
1.00376e-08
1.00369e-08
1.00344e-08
1.00367e-08
1.00342e-08
1.00385e-08
1.00364e-08
1.00387e-08
1.00371e-08
1.00041e-08
1.00044e-08
1.00064e-08
1.00141e-08
9.97413e-09
1.00035e-08
1.00037e-08
1.00038e-08
1.00064e-08
1.00096e-08
1.00288e-08
1.00876e-08
1.009e-08
1.01006e-08
1.01154e-08
1.01266e-08
1.00416e-08
1.00373e-08
1.00449e-08
1.00454e-08
1.0044e-08
1.00395e-08
1.00488e-08
1.00493e-08
1.00608e-08
1.00678e-08
1.00327e-08
1.00262e-08
1.00262e-08
1.00304e-08
1.00331e-08
1.00264e-08
1.00263e-08
1.00308e-08
1.00416e-08
1.00332e-08
1.00418e-08
1.00311e-08
1.00436e-08
1.00347e-08
1.00439e-08
1.0032e-08
1.0029e-08
1.00392e-08
1.00295e-08
1.00381e-08
1.00294e-08
1.00405e-08
1.00299e-08
1.00392e-08
1.00041e-08
1.00065e-08
1.00173e-08
1.0043e-08
1.00427e-08
1.00418e-08
1.00393e-08
1.00401e-08
1.00386e-08
1.00397e-08
1.00394e-08
1.00397e-08
1.00395e-08
1.00395e-08
1.00402e-08
1.00402e-08
1.004e-08
1.00401e-08
1.00355e-08
1.00379e-08
1.00375e-08
1.00366e-08
1.00372e-08
1.00391e-08
1.00386e-08
1.00382e-08
1.00336e-08
1.0035e-08
1.00323e-08
1.00354e-08
1.00357e-08
1.00373e-08
1.00346e-08
1.00374e-08
1.00352e-08
1.00316e-08
1.00379e-08
1.00341e-08
1.00044e-08
1.00063e-08
1.0014e-08
9.97413e-09
1.00028e-08
1.00052e-08
1.00056e-08
1.00102e-08
1.00629e-08
1.01009e-08
1.01165e-08
1.01179e-08
1.0098e-08
1.00985e-08
1.0137e-08
1.01676e-08
1.02132e-08
1.02438e-08
1.00502e-08
1.00468e-08
1.00527e-08
1.00538e-08
1.00552e-08
1.00515e-08
1.00586e-08
1.00599e-08
1.00735e-08
1.00857e-08
1.00921e-08
1.00717e-08
1.00878e-08
1.01052e-08
1.01121e-08
1.00884e-08
1.00405e-08
1.00303e-08
1.00308e-08
1.00416e-08
1.00421e-08
1.00308e-08
1.00315e-08
1.00436e-08
1.0049e-08
1.00424e-08
1.00477e-08
1.00392e-08
1.00535e-08
1.0046e-08
1.00519e-08
1.00419e-08
1.00043e-08
1.00045e-08
1.00118e-08
1.00319e-08
1.00539e-08
1.00547e-08
1.00499e-08
1.00511e-08
1.00464e-08
1.00473e-08
1.00414e-08
1.004e-08
1.00418e-08
1.00406e-08
1.00421e-08
1.00408e-08
1.00424e-08
1.00412e-08
1.00409e-08
1.00393e-08
1.00409e-08
1.00394e-08
1.00395e-08
1.00394e-08
1.00417e-08
1.00403e-08
1.00414e-08
1.00403e-08
1.00403e-08
1.00401e-08
1.0039e-08
1.00389e-08
1.00399e-08
1.00396e-08
1.00353e-08
1.0039e-08
1.00374e-08
1.00375e-08
1.00371e-08
1.004e-08
1.00387e-08
1.00388e-08
1.00062e-08
1.00138e-08
9.97413e-09
1.00031e-08
1.00045e-08
1.0007e-08
1.00505e-08
1.00837e-08
1.02375e-08
1.02155e-08
1.02198e-08
1.01152e-08
1.01139e-08
1.01341e-08
1.01009e-08
1.01431e-08
1.01469e-08
1.01644e-08
1.01097e-08
1.01294e-08
1.01754e-08
1.01382e-08
1.01829e-08
1.0192e-08
1.02085e-08
1.02394e-08
1.02384e-08
1.02385e-08
1.02378e-08
1.02877e-08
1.02864e-08
1.02888e-08
1.02864e-08
1.00614e-08
1.00564e-08
1.00648e-08
1.00636e-08
1.00747e-08
1.00658e-08
1.00795e-08
1.00755e-08
1.0088e-08
1.0086e-08
1.01106e-08
1.01118e-08
1.00366e-08
1.00463e-08
1.00386e-08
1.00501e-08
1.00595e-08
1.00505e-08
1.00715e-08
1.00575e-08
1.00059e-08
1.00043e-08
1.00063e-08
1.00232e-08
1.00458e-08
1.00433e-08
1.00555e-08
1.00545e-08
1.00527e-08
1.0055e-08
1.00466e-08
1.00497e-08
1.00413e-08
1.00444e-08
1.00456e-08
1.00424e-08
1.00435e-08
1.00434e-08
1.00455e-08
1.00474e-08
1.00481e-08
1.00456e-08
1.00437e-08
1.00438e-08
1.00417e-08
1.00405e-08
1.00424e-08
1.00412e-08
1.00411e-08
1.00394e-08
1.00406e-08
1.00407e-08
1.00387e-08
1.00397e-08
1.00418e-08
1.00403e-08
1.00413e-08
1.00411e-08
1.00396e-08
1.00403e-08
1.004e-08
1.00389e-08
1.00406e-08
1.00396e-08
1.00134e-08
9.97414e-09
1.00022e-08
1.00051e-08
1.00177e-08
1.00446e-08
1.01209e-08
1.02562e-08
1.02771e-08
1.02882e-08
1.03649e-08
1.03464e-08
1.04078e-08
1.0224e-08
1.02373e-08
1.01111e-08
1.01329e-08
1.01458e-08
1.01205e-08
1.01424e-08
1.01595e-08
1.01473e-08
1.01794e-08
1.01549e-08
1.01905e-08
1.01969e-08
1.02118e-08
1.02371e-08
1.02422e-08
1.02176e-08
1.02341e-08
1.03132e-08
1.03193e-08
1.02918e-08
1.03092e-08
1.00766e-08
1.0074e-08
1.00986e-08
1.00915e-08
1.00128e-08
1.00057e-08
1.00049e-08
1.00116e-08
1.0043e-08
1.00545e-08
1.00538e-08
1.00571e-08
1.00578e-08
1.00553e-08
1.00577e-08
1.00488e-08
1.00495e-08
1.00572e-08
1.00592e-08
1.00519e-08
1.00526e-08
1.00405e-08
1.00407e-08
1.0038e-08
1.00429e-08
1.00419e-08
1.00401e-08
1.00442e-08
1.00445e-08
1.00424e-08
1.00466e-08
1.00461e-08
1.00446e-08
1.00356e-08
1.00392e-08
1.00389e-08
1.0042e-08
1.00392e-08
1.00427e-08
1.00421e-08
1.00445e-08
1.0041e-08
1.00381e-08
1.00431e-08
1.00409e-08
1.00403e-08
1.00373e-08
1.00408e-08
1.00388e-08
1.00423e-08
1.00397e-08
1.00413e-08
1.00396e-08
9.97412e-09
1.00028e-08
1.00062e-08
1.00196e-08
1.00321e-08
1.02443e-08
1.03171e-08
1.03729e-08
1.03376e-08
1.04429e-08
1.03299e-08
1.03323e-08
1.02822e-08
1.03962e-08
1.04902e-08
1.04245e-08
1.04382e-08
1.04756e-08
1.0337e-08
1.0403e-08
1.02407e-08
1.02276e-08
1.02133e-08
1.02255e-08
1.03369e-08
1.0357e-08
1.03062e-08
1.03249e-08
9.97412e-09
1.00121e-08
1.00056e-08
1.00072e-08
1.00241e-08
1.00456e-08
1.00454e-08
1.006e-08
1.00602e-08
1.00514e-08
1.00508e-08
1.00582e-08
1.00602e-08
1.00561e-08
1.00589e-08
1.00504e-08
1.00501e-08
1.00579e-08
1.00609e-08
1.00523e-08
1.00529e-08
1.00397e-08
1.00408e-08
1.00355e-08
1.00369e-08
1.00426e-08
1.00399e-08
1.00433e-08
1.00439e-08
1.00407e-08
1.00393e-08
1.00457e-08
1.00436e-08
1.00354e-08
1.00398e-08
1.00387e-08
1.00431e-08
1.00107e-08
1.00005e-08
1.00086e-08
1.00619e-08
1.04229e-08
1.05581e-08
1.03709e-08
1.03826e-08
1.03567e-08
1.04392e-08
1.04204e-08
1.05845e-08
1.05329e-08
1.05955e-08
1.04019e-08
1.05295e-08
1.07313e-08
1.05743e-08
1.07685e-08
1.06185e-08
1.03818e-08
1.03934e-08
1.04593e-08
1.04838e-08
1.04561e-08
1.04791e-08
1.05649e-08
1.06371e-08
1.03459e-08
1.02624e-08
1.04204e-08
1.0598e-08
9.97415e-09
1.00113e-08
1.00063e-08
1.00137e-08
1.00481e-08
1.00618e-08
1.0064e-08
1.006e-08
1.00633e-08
1.00539e-08
1.0058e-08
1.00571e-08
1.00574e-08
1.00585e-08
1.00564e-08
1.00604e-08
1.00604e-08
1.00608e-08
1.00601e-08
1.00537e-08
1.00491e-08
1.00501e-08
1.00442e-08
1.0058e-08
1.00565e-08
1.00549e-08
1.00522e-08
1.00119e-08
1.00033e-08
1.00077e-08
1.01223e-08
1.05422e-08
1.07027e-08
1.04405e-08
1.0426e-08
1.0381e-08
1.03904e-08
1.039e-08
1.0369e-08
1.03807e-08
1.037e-08
1.04527e-08
1.04682e-08
1.05447e-08
1.04805e-08
1.04871e-08
1.05179e-08
1.05544e-08
1.09398e-08
1.06259e-08
1.06545e-08
1.05278e-08
1.06262e-08
1.09977e-08
1.09155e-08
1.10275e-08
1.08654e-08
1.04396e-08
1.04555e-08
1.05366e-08
1.05655e-08
9.97414e-09
1.00105e-08
1.00093e-08
1.00277e-08
1.0053e-08
1.00528e-08
1.00532e-08
1.00533e-08
1.00596e-08
1.00622e-08
1.00596e-08
1.00628e-08
1.00497e-08
1.00511e-08
1.00443e-08
1.00409e-08
1.00481e-08
1.00459e-08
1.00541e-08
1.00554e-08
1.00492e-08
1.00457e-08
1.00543e-08
1.00524e-08
1.00488e-08
1.00457e-08
1.00547e-08
1.00521e-08
1.00503e-08
1.00433e-08
1.00567e-08
1.0051e-08
1.00007e-08
1.00074e-08
1.00137e-08
1.02831e-08
1.02506e-08
1.0127e-08
1.01017e-08
1.07287e-08
1.10157e-08
1.05516e-08
1.0672e-08
1.03781e-08
1.03809e-08
1.04347e-08
1.0397e-08
1.03976e-08
1.04269e-08
1.04542e-08
1.04503e-08
1.07524e-08
1.05831e-08
1.05304e-08
1.08623e-08
1.05985e-08
1.07264e-08
1.05836e-08
1.06637e-08
1.12716e-08
1.132e-08
1.15227e-08
1.13297e-08
9.97416e-09
1.00099e-08
1.00186e-08
1.00539e-08
1.00699e-08
1.00702e-08
1.00672e-08
1.00685e-08
1.0064e-08
1.00663e-08
1.00514e-08
1.00521e-08
1.0061e-08
1.00529e-08
1.00522e-08
1.00597e-08
1.00634e-08
1.00558e-08
1.00551e-08
1.0062e-08
1.00555e-08
1.00563e-08
1.00432e-08
1.00446e-08
1.00393e-08
1.00392e-08
1.00469e-08
1.005e-08
1.00435e-08
1.00441e-08
1.0045e-08
1.00397e-08
1.00511e-08
1.00449e-08
1.00042e-08
1.00059e-08
1.00098e-08
1.02044e-08
1.0152e-08
1.0089e-08
1.00786e-08
1.08649e-08
1.09595e-08
1.05992e-08
1.07752e-08
1.081e-08
1.05156e-08
1.13356e-08
1.14497e-08
1.07165e-08
1.111e-08
1.09867e-08
1.07116e-08
1.04381e-08
1.0448e-08
1.05449e-08
1.0482e-08
1.10626e-08
1.14288e-08
1.09107e-08
1.09763e-08
1.19189e-08
1.17225e-08
9.97425e-09
1.0011e-08
1.00395e-08
1.00746e-08
1.00735e-08
1.00773e-08
1.00773e-08
1.00719e-08
1.00721e-08
1.00741e-08
1.00748e-08
1.00658e-08
1.00664e-08
1.00621e-08
1.00632e-08
1.00646e-08
1.00648e-08
1.00668e-08
1.00663e-08
1.00671e-08
1.00679e-08
1.00629e-08
1.00641e-08
1.00474e-08
1.00424e-08
1.00578e-08
1.00578e-08
1.00594e-08
1.00514e-08
1.00597e-08
1.00457e-08
1.00067e-08
1.00056e-08
1.00093e-08
1.0164e-08
1.01413e-08
1.00716e-08
1.00677e-08
1.11846e-08
1.11304e-08
1.05411e-08
1.06819e-08
1.07719e-08
1.04459e-08
1.15628e-08
1.13273e-08
1.05344e-08
1.06879e-08
1.0688e-08
1.04857e-08
1.02363e-08
1.02648e-08
1.03287e-08
1.03432e-08
1.02375e-08
1.02614e-08
1.03415e-08
1.03503e-08
1.11349e-08
1.11747e-08
1.1685e-08
1.15411e-08
9.97455e-09
1.00175e-08
1.00739e-08
1.00908e-08
1.00902e-08
1.0086e-08
1.00863e-08
1.00831e-08
1.00851e-08
1.00682e-08
1.00705e-08
1.00769e-08
1.00711e-08
1.00737e-08
1.00758e-08
1.00684e-08
1.00711e-08
1.0078e-08
1.00718e-08
1.00743e-08
1.00768e-08
1.00629e-08
1.00571e-08
1.00624e-08
1.00542e-08
1.00579e-08
1.00545e-08
1.00627e-08
1.00621e-08
1.00042e-08
1.0002e-08
1.01213e-08
1.00684e-08
1.00669e-08
1.01216e-08
1.00842e-08
1.00866e-08
1.02328e-08
1.01884e-08
1.02648e-08
1.02213e-08
1.01723e-08
1.02437e-08
1.12802e-08
1.12266e-08
1.04464e-08
1.09043e-08
1.08217e-08
1.04183e-08
1.06927e-08
1.07043e-08
1.04629e-08
1.06736e-08
1.07136e-08
1.04085e-08
1.02476e-08
1.03162e-08
1.02443e-08
1.03053e-08
9.97554e-09
1.00353e-08
1.01035e-08
1.00994e-08
1.00993e-08
1.00952e-08
1.00959e-08
1.00885e-08
1.00868e-08
1.00869e-08
1.00858e-08
1.00798e-08
1.00821e-08
1.00908e-08
1.00814e-08
1.0084e-08
1.00893e-08
1.0089e-08
1.00878e-08
1.00662e-08
1.0066e-08
1.00741e-08
1.00744e-08
1.00666e-08
1.00663e-08
1.00748e-08
1.0075e-08
1.00603e-08
1.00571e-08
1.00606e-08
1.00575e-08
9.99997e-09
1.00348e-08
1.01838e-08
1.01938e-08
1.01815e-08
1.01946e-08
1.01163e-08
1.01176e-08
1.02419e-08
1.02526e-08
1.05974e-08
1.02422e-08
1.04019e-08
1.03268e-08
1.02148e-08
1.02636e-08
1.02416e-08
1.02354e-08
1.05679e-08
1.02298e-08
1.0379e-08
1.03187e-08
1.02109e-08
1.02599e-08
1.03765e-08
1.03143e-08
1.03797e-08
1.03134e-08
1.02617e-08
1.0393e-08
1.02518e-08
1.03668e-08
9.97854e-09
1.00706e-08
1.01289e-08
1.01061e-08
1.01074e-08
1.01261e-08
1.01172e-08
1.01205e-08
1.00978e-08
1.00911e-08
1.00929e-08
1.00997e-08
1.00933e-08
1.00946e-08
1.00835e-08
1.00853e-08
1.00838e-08
1.00829e-08
1.00855e-08
1.00857e-08
1.00884e-08
1.00869e-08
1.00689e-08
1.00674e-08
1.00775e-08
1.00754e-08
1.00693e-08
1.00677e-08
1.00787e-08
1.00774e-08
9.99962e-09
1.02244e-08
1.03691e-08
1.03586e-08
1.02132e-08
1.05891e-08
1.0362e-08
1.03289e-08
1.02102e-08
1.05393e-08
1.042e-08
1.03771e-08
1.02614e-08
1.02519e-08
1.02646e-08
1.05153e-08
1.03853e-08
1.04491e-08
1.02545e-08
1.02542e-08
1.02483e-08
1.04564e-08
1.03772e-08
1.04108e-08
1.0397e-08
1.02818e-08
1.03821e-08
1.02752e-08
9.98673e-09
1.01161e-08
1.01241e-08
1.01062e-08
1.01073e-08
1.01352e-08
1.01037e-08
1.0113e-08
1.00936e-08
1.00882e-08
1.00949e-08
1.00882e-08
1.00949e-08
1.00946e-08
1.00996e-08
1.01003e-08
1.00957e-08
1.00912e-08
1.0097e-08
1.00916e-08
1.00977e-08
1.00962e-08
1.01017e-08
1.01024e-08
1.0082e-08
1.00775e-08
1.00741e-08
1.00735e-08
1.00846e-08
1.00779e-08
1.00818e-08
1.00781e-08
1.00038e-08
1.07567e-08
1.08594e-08
1.0644e-08
1.0514e-08
1.0168e-08
1.01419e-08
1.05424e-08
1.06457e-08
1.03977e-08
1.06195e-08
1.03828e-08
1.05664e-08
1.04921e-08
1.05697e-08
1.16728e-08
1.06101e-08
1.06737e-08
1.05094e-08
1.0654e-08
1.03916e-08
1.06501e-08
1.03758e-08
1.05418e-08
1.04728e-08
1.05563e-08
1.13584e-08
1.05729e-08
1.0639e-08
1.02633e-08
1.03912e-08
1.04476e-08
1.06729e-08
1.02591e-08
1.03842e-08
1.04184e-08
1.06825e-08
9.99965e-09
1.01611e-08
1.01209e-08
1.00898e-08
1.0106e-08
1.01082e-08
1.00965e-08
1.01073e-08
1.01089e-08
1.01393e-08
1.0098e-08