/*--------------------------------*- C++ -*----------------------------------*\
| =========                 |                                                 |
| \\      /  F ield         | OpenFOAM: The Open Source CFD Toolbox           |
|  \\    /   O peration     | Version:  5.x                                   |
|   \\  /    A nd           | Web:      www.OpenFOAM.org                      |
|    \\/     M anipulation  |                                                 |
\*---------------------------------------------------------------------------*/
FoamFile
{
    version     2.0;
    format      ascii;
    class       surfaceScalarField;
    location    "0.4";
    object      meshPhi;
}
// * * * * * * * * * * * * * * * * * * * * * * * * * * * * * * * * * * * * * //

dimensions      [0 3 -1 0 0 0 0];

internalField   nonuniform List<scalar> 
30582
(
0
0
0
0
0
0
0
0
0
0
0
0
0
0
0
0
0
0
0
0
0
0
0
0
0
0
0
0
0
0
0
0
0
0
0
0
0
0
0
0
0
0
0
0
0
0
0
0
0
0
0
0
0
0
0
0
0
0
0
0
0
0
0
0
0
0
0
0
0
0
0
0
0
0
0
0
0
0
0
0
0
0
0
0
0
0
0
0
0
0
0
0
0
0
0
0
0
0
0
0
0
0
0
0
0
0
0
0
0
0
0
0
0
0
0
0
0
0
0
0
0
0
0
0
0
0
0
0
0
0
0
0
0
0
0
0
0
0
0
0
0
0
0
0
0
0
0
0
0
0
0
0
0
0
0
0
0
0
0
0
0
0
0
0
0
0
0
0
0
0
0
0
0
0
0
0
0
0
0
0
0
0
0
0
0
0
0
0
0
0
0
0
0
0
0
0
0
0
0
0
0
0
0
0
0
0
0
0
0
0
0
0
0
0
0
0
0
0
0
0
0
0
0
0
0
0
0
0
0
0
0
0
0
0
0
0
0
0
0
0
0
0
0
0
0
0
0
0
0
0
0
0
0
0
0
0
0
0
0
0
0
0
0
0
0
0
0
0
0
0
0
0
0
0
0
0
0
0
0
0
0
0
0
0
0
0
0
0
0
0
0
0
0
0
0
0
0
0
0
0
0
0
0
0
0
0
0
0
0
0
0
0
0
0
0
0
0
0
0
0
0
0
0
0
0
0
0
0
0
0
0
0
0
0
0
0
0
0
0
0
0
0
0
0
0
0
0
0
0
0
0
0
0
0
0
0
0
0
0
0
0
0
0
0
0
0
0
0
0
0
0
0
0
0
0
0
0
0
0
0
0
0
0
0
0
0
0
0
0
0
0
0
0
0
0
0
0
0
0
0
0
0
0
0
0
0
0
0
0
0
0
0
0
0
0
0
0
0
0
0
0
0
0
0
0
0
0
0
0
0
0
0
0
0
0
0
0
0
0
0
0
0
0
0
0
0
0
0
0
0
0
0
0
0
0
0
0
0
0
0
0
0
0
0
0
0
0
0
0
0
0
0
0
0
0
0
0
0
0
0
0
0
0
0
0
0
0
0
0
0
0
0
0
0
0
0
0
0
0
0
0
0
0
0
0
0
0
0
0
0
0
0
0
0
0
0
0
0
0
0
0
0
0
0
0
0
0
0
0
0
0
0
0
0
0
0
0
0
0
0
0
0
0
0
0
0
0
0
0
0
0
0
0
0
0
0
0
0
0
0
0
0
0
0
0
0
0
0
0
0
0
0
0
0
0
0
0
0
0
0
0
0
0
0
0
0
0
0
0
0
0
0
0
0
0
0
0
0
0
0
0
0
0
0
0
0
0
0
0
0
0
0
0
0
0
0
0
0
0
0
0
0
0
0
0
0
0
0
0
0
0
0
0
0
0
0
0
0
0
0
0
0
0
0
0
0
0
0
0
0
0
0
0
0
0
0
0
0
0
0
0
0
0
0
0
0
0
0
0
0
0
0
0
0
0
0
0
0
0
0
0
0
0
0
0
0
0
0
0
0
0
0
0
0
0
0
0
0
0
0
0
0
0
0
0
0
0
0
0
0
0
0
0
0
0
0
0
0
0
0
0
0
0
0
0
0
0
0
0
0
0
0
0
0
0
0
0
0
0
0
0
0
0
0
0
0
0
0
0
0
0
0
0
0
0
0
0
0
0
0
0
0
0
0
0
0
0
0
0
0
0
0
0
0
0
0
0
0
0
0
0
0
0
0
0
0
0
0
0
0
0
0
0
0
0
0
0
0
0
0
0
0
0
0
0
0
0
0
0
0
0
0
0
0
0
0
0
0
0
0
0
0
0
0
0
0
0
0
0
0
0
0
0
0
0
0
0
0
0
0
0
0
0
0
0
0
0
0
0
0
0
0
0
0
0
0
0
0
0
0
0
0
0
0
0
0
0
0
0
0
0
0
0
0
0
0
0
0
0
0
0
0
0
0
0
0
0
0
0
0
0
0
0
0
0
0
0
0
0
0
0
0
0
0
0
0
0
0
0
0
0
0
0
0
0
0
0
0
0
0
0
0
0
0
0
0
0
0
0
0
0
0
0
0
0
0
0
0
0
0
0
0
0
0
0
0
0
0
0
0
0
0
0
0
0
0
0
0
0
0
0
0
0
0
0
0
0
0
0
0
0
0
0
0
0
0
0
0
0
0
0
0
0
0
0
0
0
0
0
0
0
0
0
0
0
0
0
0
0
0
0
0
0
0
0
0
0
0
0
0
0
0
0
0
0
0
0
0
0
0
0
0
0
0
0
0
0
0
0
0
0
0
0
0
0
0
0
0
0
0
0
0
0
0
0
0
0
0
0
0
0
0
0
0
0
0
0
0
0
0
0
0
0
0
0
0
0
0
0
0
0
0
0
0
0
0
0
0
0
0
0
0
0
0
0
0
0
0
0
0
0
0
0
0
0
0
0
0
0
0
0
0
0
0
0
0
0
0
0
0
0
0
0
0
0
0
0
0
0
0
0
0
0
0
0
0
0
0
0
0
0
0
0
0
0
0
0
0
0
0
0
0
0
0
0
0
0
0
0
0
0
0
0
0
0
0
0
0
0
0
0
0
0
0
0
0
0
0
0
0
0
0
0
0
0
0
0
0
0
0
0
0
0
0
0
0
0
0
0
0
0
0
0
0
0
0
0
0
0
0
0
0
0
0
0
0
0
0
0
0
0
0
0
0
0
0
0
0
0
0
0
0
0
0
0
0
0
0
0
0
0
0
0
0
0
0
0
0
0
0
0
0
0
0
0
0
0
0
0
0
0
0
0
0
0
0
0
0
0
0
0
0
0
0
0
0
0
0
0
0
0
0
0
0
0
0
0
0
0
0
0
0
0
0
0
0
0
0
0
0
0
0
0
0
0
0
0
0
0
0
0
0
0
0
0
0
0
0
0
0
0
0
0
0
0
0
0
0
0
0
0
0
0
0
0
0
0
0
0
0
0
0
0
0
0
0
0
0
0
0
0
0
0
0
0
0
0
0
0
0
0
0
0
0
0
0
0
0
0
0
0
0
0
0
0
0
0
0
0
0
0
0
0
0
0
0
0
0
0
0
0
0
0
0
0
0
0
0
0
0
0
0
0
0
0
0
0
0
0
0
0
0
0
0
0
0
0
0
0
0
0
0
0
0
0
0
0
0
0
0
0
0
0
0
0
0
0
0
0
0
0
0
0
0
0
0
0
0
0
0
0
0
0
0
0
0
0
0
0
0
0
0
0
0
0
0
0
0
0
0
0
0
0
0
0
0
0
0
0
0
0
0
0
0
0
0
0
0
0
0
0
0
0
0
0
0
0
0
0
0
0
1.47839e-18
-5.21401e-18
2.11554e-25
-1.56402e-17
-7.81852e-18
-1.0433e-17
0
0
0
0
0
0
0
0
0
0
0
0
0
0
0
0
0
0
0
0
0
0
0
0
0
0
0
0
0
0
0
0
0
0
0
0
0
0
-2.60086e-18
-8.18808e-35
3.79388e-19
-6.02795e-26
-1.30216e-17
1.04266e-17
1.45359e-18
-1.56402e-17
2.60632e-18
-1.56448e-17
7.5453e-19
1.65282e-25
2.60451e-17
-1.88792e-34
1.11733e-18
-1.56319e-17
-3.77828e-18
2.60531e-17
0
0
0
0
0
0
0
0
0
0
0
0
0
0
0
0
0
0
0
0
0
0
0
0
0
0
0
0
0
0
0
0
0
0
0
0
0
-4.33277e-19
2.24426e-18
-1.64688e-17
1.83061e-20
3.11669e-17
1.03796e-17
-2.08199e-17
6.83598e-36
7.43512e-19
-7.81296e-18
-9.49197e-34
3.83517e-19
-1.05387e-25
-1.29908e-17
0
-4.42768e-17
4.35736e-21
2.08361e-17
1.16389e-35
-3.64309e-19
-1.56319e-17
-3.77828e-18
1.56325e-17
2.35092e-20
-1.65836e-24
1.55918e-17
-1.45521e-34
3.42122e-21
2.07873e-17
0
0
0
0
0
0
0
0
0
0
0
0
0
0
0
0
0
0
0
0
0
0
0
0
0
0
0
0
0
0
0
0
0
0
0
-8.18028e-18
-1.55903e-17
-1.03779e-17
-2.62771e-18
-2.66295e-20
-1.22596e-34
-4.69097e-20
-2.81174e-20
-1.81977e-17
-5.98604e-18
1.43648e-18
1.02517e-17
9.44516e-35
-1.25321e-19
-7.76866e-18
1.40023e-18
1.03591e-17
-5.6065e-35
-4.10992e-20
2.60084e-18
0
-2.22939e-19
-4.53002e-24
-4.52774e-18
7.7575e-18
-5.81985e-18
7.76851e-18
0
0
-1.08257e-18
2.2245e-18
-1.06358e-17
-6.63119e-21
-1.562e-17
-5.17457e-18
3.11669e-17
4.70183e-20
2.07891e-17
1.18358e-34
5.20022e-18
4.15956e-17
0
2.1082e-24
-1.16458e-17
1.29251e-18
-1.1638e-17
2.59446e-18
0
5.19054e-18
-1.34021e-18
5.23247e-18
-5.1883e-18
6.48937e-18
-5.22493e-18
6.55736e-18
-1.30248e-18
0
0
0
0
0
0
0
0
0
0
0
0
0
0
0
0
0
0
0
0
0
0
0
0
0
0
0
0
0
0
0
0
0
7.17477e-18
-1.3044e-17
1.0413e-17
-7.81716e-18
-5.27738e-18
4.10417e-35
2.24398e-18
-1.5573e-17
-1.41738e-18
2.07178e-17
1.53724e-34
-5.28264e-18
-7.82928e-18
0
2.09253e-17
-5.33551e-36
1.11143e-11
2.99223e-12
1.11173e-09
-4.47123e-14
1.64253e-13
-8.72181e-09
-1.27272e-13
-8.82749e-09
7.75073e-11
-4.72319e-19
9.12746e-20
-2.98389e-19
-9.16753e-20
2.63676e-18
-1.01034e-17
-6.62454e-19
-6.25755e-18
-1.20445e-18
-1.94947e-34
2.53157e-17
-5.15975e-13
-8.62903e-09
6.88644e-15
-1.74151e-08
-3.6464e-19
-6.32683e-19
-1.41665e-17
-2.58149e-18
-1.80667e-17
0
2.01928e-19
-5.8254e-18
2.5879e-18
-8.40398e-18
5.1736e-18
-4.23667e-19
-4.33057e-20
0
2.7009e-19
-4.51317e-18
4.31485e-20
-4.36512e-19
-6.14965e-25
1.93211e-18
0
-1.78847e-23
4.83036e-17
-5.05453e-19
5.15332e-18
0
0
2.12779e-17
-2.62778e-18
-5.25617e-18
9.01127e-21
-1.03779e-17
0
-7.4597e-19
-6.79847e-19
-2.58832e-18
3.73896e-18
1.40016e-18
4.24407e-34
0
-8.49027e-23
-7.77475e-18
1.49294e-18
5.16899e-18
4.30411e-20
-7.11519e-18
2.58541e-18
-4.527e-18
2.59105e-18
0
5.18626e-18
-2.63737e-18
7.82618e-18
-5.18512e-18
7.78043e-18
-6.52818e-18
6.54471e-18
-2.59586e-18
-6.41785e-19
-4.32437e-20
7.36602e-19
-4.50643e-18
0
-4.30825e-20
-2.95845e-26
4.5084e-18
1.15386e-24
-3.22036e-18
0
-8.92868e-22
7.32889e-19
0
0
-1.03024e-17
-4.28727e-20
6.97269e-19
-5.15973e-13
0
-7.29657e-11
7.70164e-18
5.26862e-19
-8.60671e-20
-9.00086e-18
-4.27738e-20
6.96974e-19
5.18976e-18
-1.95318e-17
5.15433e-18
0
0
0
0
0
0
0
0
0
0
0
0
0
0
0
0
0
0
0
0
0
0
0
0
0
0
0
0
0
0
0
-2.90017e-18
-9.06344e-21
5.18575e-18
-5.28299e-18
5.25823e-18
1.31067e-35
6.56996e-19
7.84923e-18
-7.3033e-18
2.08277e-17
1.8452e-35
5.11197e-20
-2.58991e-18
-6.02525e-18
1.03849e-17
-5.77562e-26
-2.50358e-09
1.85752e-12
-7.82325e-09
-4.31553e-11
-8.58111e-09
-5.47374e-09
2.54767e-18
-1.04214e-17
-8.17677e-13
6.27169e-11
2.00696e-27
2.43956e-09
-2.04012e-10
-7.87205e-10
7.27702e-11
-2.50985e-10
5.33296e-09
7.53181e-13
3.90213e-10
6.6504e-13
-1.2782e-10
3.68631e-20
-2.50864e-19
4.00273e-19
5.2629e-13
0
1.20395e-13
7.65389e-14
-1.65334e-17
6.39742e-35
9.29194e-09
2.21184e-17
3.53106e-20
-2.78627e-13
-1.03833e-17
1.79617e-34
4.90603e-11
2.57822e-18
0
-1.13108e-09
-8.56579e-09
-4.21538e-20
2.57849e-19
5.22879e-18
0
-3.25145e-19
4.04637e-20
-5.64648e-18
6.88864e-19
-2.14881e-18
-3.28215e-19
3.52908e-20
9.40254e-20
-7.78496e-18
6.36266e-19
1.23195e-17
-2.67558e-19
-9.06189e-18
3.77084e-20
2.75187e-13
-3.71503e-12
-6.87969e-13
-2.45605e-11
-6.10191e-35
-1.02712e-08
1.08708e-09
-3.64799e-20
-1.03638e-17
2.28287e-35
8.43584e-18
0
-2.79476e-19
-7.35328e-19
-2.52798e-18
5.21102e-19
6.04008e-18
-2.17705e-18
-3.64657e-20
-5.17598e-18
9.72688e-18
-3.54095e-19
-4.33058e-20
0
5.41367e-19
-5.80597e-18
-4.31484e-20
-3.88999e-19
5.79625e-18
0
3.92866e-17
-2.86222e-19
1.0329e-17
1.17396e-09
0
0
-1.10627e-09
-1.33292e-11
8.55866e-20
-6.19174e-14
-2.83628e-23
1.64742e-13
0
-1.2547e-22
-8.65042e-09
-4.12789e-14
8.60091e-15
0
0
7.17477e-18
-7.86061e-18
5.18954e-18
2.63093e-18
5.17051e-18
-2.44149e-34
-2.15551e-18
-7.06243e-19
-5.24945e-18
1.5354e-18
-5.72183e-20
0
2.91196e-34
-2.61749e-18
0
0
-4.87404e-18
-9.59795e-09
2.06391e-12
-9.25679e-09
2.58871e-18
8.65621e-17
1.28131e-18
-3.64596e-19
5.10905e-18
-6.52642e-18
2.58142e-18
-1.41926e-17
0
1.05775e-12
7.66869e-11
-3.78337e-14
6.71629e-13
-9.09068e-09
5.23061e-18
2.28476e-16
1.20901e-09
-5.41927e-22
-1.23104e-18
6.42111e-19
-1.72238e-20
-2.21053e-17
3.23912e-18
-2.08337e-17
-2.06428e-18
-5.24755e-19
-4.32439e-20
7.47832e-19
-1.3553e-17
-4.30713e-20
-4.30847e-20
6.4405e-19
-7.72863e-18
-3.10845e-37
1.29235e-18
5.26962e-19
-8.61891e-20
0
-1.28838e-17
-4.28731e-20
7.76141e-19
-2.82059e-13
0
-8.81014e-09
9.00515e-18
6.84563e-19
-4.30329e-20
-1.48179e-17
0
7.57346e-19
1.29087e-18
-9.04514e-18
-5.57034e-34
-3.44844e-19
8.67875e-20
1.50627e-18
-1.42213e-17
0
-1.56804e-19
9.1636e-25
5.32045e-22
7.60686e-24
-2.56342e-17
-5.28913e-20
1.29212e-18
4.309e-20
0
8.62305e-09
8.34176e-14
4.30767e-20
-5.05185e-18
1.90387e-18
0
0
0
0
0
0
0
0
0
0
0
0
0
0
0
0
0
0
0
0
0
0
0
0
0
0
0
0
0
8.8973e-18
-1.30552e-17
1.21908e-20
2.59558e-18
2.46723e-20
4.65546e-34
1.29703e-18
-1.03602e-17
-1.17538e-17
1.03323e-17
7.14646e-34
-3.09724e-18
1.04486e-17
-3.0982e-18
1.02397e-17
2.06023e-26
2.39108e-09
-8.39023e-11
8.82894e-09
2.14351e-09
8.8315e-09
5.22777e-09
-4.86594e-13
1.63274e-10
4.29983e-13
-4.28161e-09
6.27681e-27
-3.54024e-11
2.21317e-09
-8.86663e-09
2.17396e-09
-8.78633e-09
-7.51883e-11
-2.1284e-13
-4.43257e-09
-3.9773e-13
-4.34432e-09
0
-3.33664e-12
6.87962e-13
-1.06829e-08
5.8154e-35
1.08621e-09
0
2.72519e-09
-1.6663e-17
-8.03699e-27
9.6817e-13
1.15252e-17
0
1.88513e-18
-2.65592e-18
-3.51827e-19
6.81227e-18
4.05402e-20
-1.02837e-12
-6.40478e-18
-5.44973e-09
1.85552e-17
-4.10568e-20
3.71503e-12
-2.58114e-09
-6.33873e-18
1.06181e-08
-7.97436e-27
-9.63898e-13
8.64224e-17
-4.16585e-20
-1.31631e-17
7.5612e-27
6.55189e-18
8.20252e-20
7.97754e-19
9.63871e-13
-4.66254e-18
-3.83166e-18
5.16151e-09
-3.50135e-18
-4.16167e-20
-7.89777e-18
1.04708e-17
3.15008e-20
-2.40789e-13
2.08767e-25
1.30479e-18
3.00039e-18
4.19357e-35
-6.91091e-35
-1.47012e-09
-1.46876e-20
-3.43979e-14
2.46386e-34
4.65219e-09
7.65598e-34
-2.82487e-20
1.67204e-34
4.34834e-19
6.11999e-19
-1.07468e-18
1.46985e-20
2.58243e-19
-1.02574e-19
-2.86664e-25
-4.92659e-19
6.75191e-20
6.76565e-19
7.35929e-36
-1.76033e-17
-1.91269e-20
2.47544e-34
2.25575e-34
-7.32778e-20
4.16533e-19
6.61317e-19
1.22722e-18
0
-4.32319e-11
-8.72461e-25
0
-1.14317e-09
8.73009e-09
8.55841e-20
-3.64017e-19
-7.24755e-15
0
8.65833e-09
-1.72e-14
8.16984e-14
6.46008e-10
2.37555e-20
-4.15775e-34
-7.26901e-10
0
6.19172e-14
1.42639e-22
-1.94972e-34
2.46535e-22
4.12781e-14
0
0
-3.02221e-18
-5.25734e-18
7.63933e-33
5.19443e-18
5.2036e-18
-7.55006e-36
-4.47955e-18
2.05798e-19
-2.57749e-18
7.25353e-18
-6.12936e-18
3.11809e-17
-6.59701e-36
-2.56449e-18
2.07928e-17
-8.80094e-27
2.50355e-09
2.43959e-09
-2.06316e-10
-9.73137e-09
7.45721e-11
-9.06895e-09
5.4738e-09
5.33296e-09
7.81131e-13
3.902e-10
6.63603e-13
-1.27833e-10
2.5326e-25
6.36378e-13
-1.72094e-08
-4.30353e-11
-8.58118e-09
1.91066e-18
-7.816e-18
-8.20545e-13
6.26911e-11
3.77145e-20
-1.47591e-20
3.68923e-12
2.40787e-13
6.76643e-18
0
1.0271e-08
8.53827e-09
0
-5.32726e-19
-9.07845e-18
0
4.99915e-18
7.74093e-18
-3.7686e-20
-1.79603e-19
-3.75035e-19
-2.00563e-20
-2.63169e-19
2.58193e-18
-3.29046e-18
3.64615e-20
-3.65108e-19
-3.87914e-18
4.98301e-19
1.22858e-17
3.68606e-20
6.80271e-19
3.52584e-13
5.26287e-13
0
-7.9116e-14
-1.29851e-13
-2.29864e-19
0
9.29192e-09
1.89524e-09
-3.53117e-20
-1.29214e-17
0
1.09852e-17
0
1.33228e-10
-1.78818e-08
3.68588e-20
3.06656e-19
-2.10027e-19
1.33748e-19
-4.21539e-20
1.59998e-19
2.61091e-18
-2.76039e-19
2.38368e-18
-2.14874e-18
-3.52907e-20
-5.18667e-18
5.77847e-18
-2.34116e-19
-1.68809e-17
-7.26952e-19
4.33933e-20
1.78806e-18
-1.8097e-17
-1.09032e-33
-8.53697e-20
1.28148e-18
-1.41014e-17
1.22038e-19
5.90967e-22
-8.61787e-20
0
-8.68128e-09
-2.14129e-13
4.30773e-20
-1.52529e-17
1.90926e-18
2.2556e-19
2.3739e-20
2.90153e-19
2.24785e-20
-5.56961e-20
2.83593e-24
-1.57287e-23
2.91784e-20
0
-8.91965e-35
2.56526e-20
0
0
0
0
0
0
0
0
0
0
0
0
0
0
0
0
0
0
0
0
0
0
0
0
0
0
0
0
-3.9107e-17
-4.31348e-34
-4.53312e-18
5.23333e-18
-1.4656e-17
5.15173e-18
-1.9577e-33
-4.36501e-18
-2.57552e-18
8.89355e-18
1.56197e-17
2.56428e-25
3.0668e-18
-2.0533e-09
-1.47121e-17
-4.49361e-09
3.23326e-34
7.37727e-18
-1.29939e-17
-1.52539e-17
2.59883e-17
3.98901e-20
1.30714e-12
7.13608e-18
1.38299e-10
0
8.07029e-17
8.0959e-20
-2.61655e-09
1.29415e-17
0
-1.31144e-12
-5.18284e-18
-7.97148e-20
3.93516e-19
1.9548e-18
4.11487e-18
-1.16217e-17
4.04341e-20
8.81458e-13
8.61994e-21
5.23142e-09
-9.71391e-18
4.12483e-20
1.75432e-12
5.58318e-11
-1.34152e-12
2.40316e-10
0
-2.38957e-10
-8.86791e-09
-8.20797e-20
1.29529e-17
0
-4.50995e-18
4.11991e-20
1.28947e-18
-2.92388e-13
5.20535e-18
-1.48979e-18
-1.18455e-10
-1.42748e-17
4.10001e-20
6.47349e-18
-9.69818e-18
-2.1995e-20
-1.7199e-13
-2.34941e-11
7.07546e-35
-2.48565e-20
-1.7199e-13
2.00594e-34
5.63833e-11
-2.2005e-20
4.49779e-19
-9.29178e-19
2.48704e-20
5.45792e-19
-1.44472e-18
-3.92983e-20
2.11386e-18
-1.41312e-18
-5.10861e-18
3.36397e-17
6.58031e-35
-8.98103e-19
-2.31614e-16
3.20315e-20
2.90357e-34
-3.93004e-20
-7.38102e-20
3.61841e-19
-7.17788e-19
-3.49134e-18
7.23674e-19
2.00265e-17
3.20352e-20
-4.38691e-11
2.37561e-20
-2.81265e-34
-6.31163e-10
2.24913e-20
3.69782e-14
-1.28683e-34
1.7199e-14
0
0
-1.46854e-17
2.60166e-18
5.22632e-18
7.79895e-18
-1.04362e-17
4.80155e-35
-1.29703e-18
-6.04218e-18
4.7929e-20
8.85371e-18
3.56502e-32
2.07688e-17
3.26919e-34
-5.13784e-18
2.07489e-17
-2.78567e-27
-2.3912e-09
8.30428e-18
3.00556e-12
8.86684e-09
2.16966e-09
8.7871e-09
-5.22788e-09
-1.03218e-17
2.60791e-18
-7.8192e-18
-3.78378e-13
-4.34441e-09
-2.06023e-26
-8.38013e-11
8.82889e-09
2.14362e-09
8.83155e-09
-4.88738e-13
1.63255e-10
4.29981e-13
-4.28161e-09
-4.1056e-20
4.74698e-12
-2.58109e-09
-7.71101e-18
1.07887e-08
0
-9.63898e-13
8.65245e-17
-4.16567e-20
-2.72509e-09
-1.44987e-17
0
-9.38788e-13
2.69316e-18
0
8.35364e-19
9.63871e-13
-4.78127e-18
-5.57413e-18
5.16151e-09
-8.17039e-19
0
9.98987e-13
-5.30514e-18
5.44973e-09
1.05409e-17
-3.91755e-20
-3.47424e-12
-2.4079e-13
-1.0683e-08
0
8.56419e-09
-8.11766e-20
-7.78945e-18
0
5.80457e-18
3.57828e-34
1.17344e-18
1.18743e-18
-3.99143e-19
-6.93255e-18
-4.05405e-20
-3.86962e-18
1.22008e-17
0
-3.43985e-14
-1.12655e-12
5.26738e-09
0
-5.62673e-09
-3.82316e-20
7.91156e-14
0
-4.16378e-09
1.5555e-33
4.91896e-20
5.63167e-21
-3.58383e-19
6.13734e-19
0
-2.58258e-19
1.08243e-18
-6.2996e-20
-7.30967e-14
2.08768e-25
2.33113e-18
2.82912e-18
0
-1.57663e-34
-7.60878e-10
1.46848e-20
0
-3.1487e-20
-6.60802e-20
1.68772e-34
1.54912e-19
-2.00802e-18
4.60702e-19
0
-4.2605e-19
0
6.97049e-19
2.24796e-20
6.53902e-21
2.9978e-20
-1.15968e-24
-2.05064e-34
0
0
0
0
0
0
0
0
0
0
0
0
0
0
0
0
0
0
0
0
0
0
0
0
0
0
0
0
-1.54545e-18
0
1.1613e-17
1.04319e-17
2.08439e-17
4.14372e-22
1.04247e-17
1.53961e-33
1.51615e-18
-2.62172e-18
-5.52045e-18
1.54982e-17
1.08948e-33
-5.22076e-18
2.08109e-17
0
1.48556e-18
5.50376e-13
2.49449e-10
-7.84011e-18
8.39911e-18
3.0686e-17
3.85594e-18
6.04957e-19
1.56084e-18
-8.2195e-18
-9.11401e-18
3.87263e-18
-1.15951e-17
1.75473e-20
0
-6.27537e-19
-1.88788e-18
9.14057e-18
-4.48328e-18
1.03902e-17
-7.36023e-18
-5.82201e-18
-3.9282e-18
-1.10206e-17
0
3.78229e-20
1.1157e-19
5.74299e-18
1.7389e-18
0
-1.74929e-17
0
-3.77706e-18
8.97606e-18
0
3.27695e-18
-7.66846e-18
0
7.56188e-19
-6.40406e-19
7.29947e-19
-6.93897e-18
3.98906e-20
-3.61221e-19
1.23972e-18
3.83911e-18
-1.2238e-17
8.35407e-20
4.72683e-18
5.76158e-18
-2.8904e-18
0
3.50045e-17
-4.76884e-34
2.52822e-18
0
-1.89618e-18
3.71891e-34
-9.60619e-19
-2.67894e-18
-4.34869e-18
-1.09071e-17
4.16345e-20
3.86084e-18
-5.73595e-18
5.41025e-33
7.18781e-20
2.27671e-35
1.50944e-17
-3.48882e-34
-8.57563e-19
-1.76249e-18
0
0
0
-3.91151e-17
8.36097e-34
6.15283e-20
-1.38739e-18
2.62099e-18
5.71292e-18
1.18308e-17
1.04538e-17
5.14139e-34
5.43419e-20
2.0798e-17
-3.9126e-36
-1.03386e-19
7.47714e-18
-1.29939e-17
8.99302e-18
-1.48546e-17
5.04398e-18
2.10793e-35
8.48094e-18
1.29133e-18
0
-1.75432e-12
3.41834e-12
1.34154e-12
-2.40316e-10
0
2.39249e-10
8.86791e-09
0
2.6165e-09
1.16527e-17
0
1.32004e-12
-1.03488e-17
-4.1199e-20
1.56026e-18
-1.46703e-18
3.91552e-18
-3.6219e-18
3.89745e-18
-9.70367e-18
0
-8.81459e-13
3.88436e-18
-5.23127e-09
-1.36045e-17
-6.96687e-25
1.41033e-12
1.90124e-18
1.38561e-10
0
7.88058e-17
-4.04819e-20
1.42421e-17
0
-6.4895e-18
-3.98569e-20
-1.64404e-18
5.83226e-18
2.90438e-18
-1.41411e-17
-4.04327e-20
5.177e-18
-9.07506e-18
3.92993e-20
3.45714e-18
-6.96902e-19
-7.88808e-18
3.30936e-17
0
-1.22301e-18
-2.39496e-16
-6.40593e-20
1.7199e-13
0
-5.63833e-11
0
7.40065e-19
7.13382e-19
1.38902e-18
-4.74947e-18
1.43381e-18
1.72914e-17
-6.40701e-20
-5.45792e-19
1.44472e-18
-2.19924e-20
-1.71991e-13
-2.34941e-11
0
0
0
1.97422e-33
6.71184e-19
-1.14002e-18
2.48703e-20
0
0
0
0
0
0
0
0
0
0
0
0
0
0
0
0
0
0
0
0
0
0
0
0
0
0
7.84732e-18
-2.76979e-33
-5.9937e-18
-8.64873e-18
-2.56765e-18
-8.46333e-18
8.92324e-18
2.60586e-17
-3.9154e-33
1.0472e-17
2.60228e-18
0
1.5646e-17
-2.13675e-25
-1.4706e-18
-2.19629e-09
1.76293e-13
-2.95289e-12
-2.23251e-09
-2.9417e-18
-1.7629e-13
4.39257e-09
4.45207e-09
-4.40729e-13
-1.02538e-33
-2.68905e-18
5.05698e-18
1.1018e-19
-4.0088e-20
0
-2.59577e-18
7.79799e-18
0
8.33154e-19
-1.13515e-12
-3.78384e-13
0
-9.92073e-09
-8.85214e-09
1.48467e-18
-2.61915e-18
9.18121e-19
-4.82759e-35
-5.60244e-18
5.22866e-18
0
7.83736e-19
9.25239e-21
-3.84513e-18
-5.16682e-18
8.3366e-18
1.52468e-18
2.58623e-18
8.23141e-18
-4.05509e-20
0
-1.15957e-18
-4.05544e-20
8.78264e-18
4.93617e-12
1.41034e-12
0
3.70565e-10
8.71436e-09
5.20511e-18
1.2238e-17
-8.10398e-20
-6.43584e-18
-4.05039e-20
2.27289e-18
-3.95388e-19
-1.27783e-18
3.85088e-18
-9.7326e-18
1.28733e-18
-3.18809e-20
1.16923e-18
-5.07982e-19
0
0
-7.94913e-19
0
5.29326e-19
-1.59542e-20
-2.68668e-19
-4.26059e-19
-2.36027e-20
-7.98948e-19
1.46481e-18
-4.03798e-20
4.47181e-13
-1.37601e-13
-9.06168e-09
0
-1.83397e-08
3.12787e-20
0
1.33873e-33
-1.87357e-19
-4.97998e-18
-3.77114e-18
1.59435e-17
6.25673e-20
0
0
0
0
1.50578e-18
3.01156e-18
1.17776e-17
5.24363e-18
3.65831e-17
-2.61301e-18
1.56581e-17
-9.84131e-34
-1.4257e-18
7.83958e-18
1.15844e-17
1.5608e-17
-9.97215e-34
-1.29692e-17
2.603e-17
0
-1.33372e-18
-1.58548e-18
-6.46173e-18
5.84797e-18
-5.80728e-18
5.20784e-18
0
-1.77953e-17
-9.69882e-18
5.88753e-18
-8.39395e-18
1.30567e-18
0
1.43613e-12
1.03011e-08
-3.23922e-18
2.40789e-12
-4.89618e-11
1.25429e-18
7.06754e-19
-1.0856e-17
-3.2148e-18
2.57715e-18
-5.7684e-18
3.89263e-18
-4.17703e-20
3.67174e-18
-2.40788e-12
-3.64573e-18
0
-6.57409e-10
8.33024e-20
2.89003e-18
1.02657e-17
0
-1.7287e-18
-1.91461e-18
-8.34935e-20
1.86147e-18
-2.40453e-20
-3.46473e-18
-2.84626e-18
-4.16386e-20
1.08378e-18
-1.29052e-18
-3.59658e-18
-7.68762e-18
7.56462e-20
-1.76421e-18
5.58481e-19
2.01639e-18
0
-1.55365e-17
3.99068e-20
6.44233e-18
0
-1.2395e-18
-7.56211e-20
-2.83764e-19
5.12259e-18
2.39458e-18
2.64158e-18
-7.97824e-20
5.01273e-18
-4.55564e-18
6.26251e-33
6.91138e-19
0
1.61178e-17
-1.8673e-34
-5.00288e-19
-4.76393e-19
0
0
0
0
0
0
0
0
0
0
0
0
0
0
0
0
0
0
0
0
0
0
0
0
-2.72809e-18
0
1.4771e-17
-1.04144e-17
1.56744e-17
7.76394e-18
1.03842e-17
7.92509e-25
-2.49852e-09
2.38322e-09
-2.14549e-09
-2.85946e-13
2.35049e-09
1.55508e-12
-5.45146e-09
5.21178e-09
2.8594e-13
4.29122e-09
-1.55509e-12
-4.70142e-09
-2.49547e-24
-2.11043e-09
-4.60482e-09
-4.11735e-20
-9.56652e-11
-1.41032e-12
-6.98712e-13
5.81715e-26
8.77021e-09
0
1.24631e-25
-1.08067e-08
-2.34214e-10
4.09341e-12
-4.0934e-12
0
4.40726e-13
3.89332e-18
1.90634e-10
-1.16782e-17
-8.37798e-20
6.57346e-18
-2.33002e-17
6.37179e-20
3.90818e-18
1.63465e-26
1.07862e-08
2.61428e-12
-2.10547e-09
4.1075e-13
1.9431e-18
1.78973e-16
-1.01766e-17
8.64785e-19
-4.10632e-13
4.21091e-09
-1.34252e-18
-1.56678e-17
6.72583e-09
0
0
7.29414e-10
1.85267e-20
-6.87936e-14
9.45947e-14
0
-1.05568e-08
2.06393e-13
3.4476e-18
0
2.72435e-18
-8.72159e-34
-5.0816e-22
-8.95744e-19
2.65316e-18
3.06467e-19
-1.00797e-08
-3.98114e-20
0
9.45117e-09
0
-7.22361e-13
-1.16095e-12
-2.75185e-13
0
-1.0337e-08
1.39826e-09
-1.11798e-13
1.0029e-17
-7.96404e-20
5.66594e-18
3.90506e-20
1.49997e-18
-1.4133e-18
-5.72166e-19
1.15617e-17
6.26658e-19
-2.81573e-18
1.12446e-24
0
-3.10884e-34
0
0
0
0
0
7.84734e-18
3.09979e-33
1.50343e-19
-4.42658e-18
-7.83817e-18
8.56369e-18
0
1.56462e-17
9.01388e-34
-1.25871e-18
-2.62821e-17
8.78594e-18
1.55969e-17
4.31786e-34
-1.4719e-18
-1.04056e-17
5.58175e-18
1.05059e-17
3.9049e-25
-2.20628e-09
6.46399e-13
-1.02102e-11
-2.31719e-09
-6.46402e-13
4.4132e-09
4.59037e-09
-1.29281e-12
4.83731e-18
4.05513e-20
0
4.21731e-18
-1.3435e-18
-1.23368e-24
4.20411e-18
-1.13099e-11
-3.43983e-12
0
-1.07075e-08
4.70957e-11
-6.10465e-18
1.40014e-19
7.6765e-18
4.05215e-20
5.9921e-18
-7.56227e-19
0
3.04085e-18
-1.16028e-18
1.30668e-18
0
-5.16867e-18
-2.30723e-18
-3.91765e-18
1.06629e-18
5.69085e-34
0
8.44992e-18
-3.82904e-20
-9.77127e-20
3.09586e-12
8.59953e-13
0
1.99108e-08
2.59385e-10
-1.04001e-17
-8.69328e-19
0
1.2349e-17
0
-7.10854e-19
3.75329e-19
1.94691e-18
-9.58171e-18
1.27702e-17
-3.90711e-18
-8.07513e-20
3.43986e-13
-1.43614e-12
7.93322e-10
0
-1.02817e-08
3.12779e-20
-2.06389e-13
0
-7.21399e-09
4.0378e-20
-1.22926e-19
-1.45129e-18
-2.79455e-18
1.44413e-17
-3.12833e-20
2.65197e-19
-1.60513e-18
-1.59383e-20
1.26169e-18
-5.07968e-19
0
0
0
0
8.78928e-19
-9.36736e-19
2.3597e-20
0
0
0
0
0
0
0
0
0
0
0
0
0
0
0
0
0
0
0
0
-8.92202e-18
1.65495e-22
5.28459e-18
-5.27277e-18
5.19367e-18
6.89695e-34
7.36055e-18
-7.42318e-18
-1.17976e-21
-8.63683e-18
0
1.04451e-17
1.04868e-33
-6.44748e-20
-7.93245e-18
1.29133e-19
2.17378e-17
4.09882e-20
-7.30527e-18
-2.54253e-09
8.98178e-18
-3.04096e-17
0
-5.22358e-13
1.56607e-16
-8.28778e-20
2.78634e-09
7.6809e-18
0
3.38681e-12
-9.01811e-18
4.0958e-20
-1.52941e-18
5.22426e-13
-7.55909e-20
1.07627e-17
5.08455e-09
-1.72362e-17
0
-2.70314e-12
1.23784e-18
-5.56941e-09
-1.28293e-17
0
3.49141e-18
-3.17215e-18
-2.57633e-18
-6.56671e-18
4.71112e-18
-5.15281e-18
-9.36745e-19
-6.4192e-18
1.93162e-18
0
9.27696e-18
5.15178e-18
0
6.19163e-13
7.80618e-19
1.10666e-08
-8.81308e-34
-2.40087e-18
2.43976e-24
-1.78291e-33
5.14634e-10
2.09831e-12
-8.36519e-34
-1.77009e-18
1.92833e-18
1.10827e-17
-4.20121e-18
4.25284e-20
-6.44335e-18
5.6837e-19
5.37541e-25
4.77687e-18
1.03174e-17
-3.42763e-18
0
1.53266e-16
-4.04016e-20
-3.02634e-18
-2.60232e-18
0
-5.45409e-18
-2.53518e-18
4.13184e-20
-4.75326e-19
4.07379e-20
-4.87619e-18
-2.33956e-17
4.03876e-20
-6.37337e-19
2.64119e-18
1.47606e-18
-6.36178e-19
-1.61798e-09
-7.6877e-25
0
-1.86672e-20
-2.57978e-14
-1.85752e-12
0
-1.40022e-08
1.0141e-18
5.97664e-34
-1.86719e-20
4.58207e-19
-5.39856e-19
4.27005e-18
0
0
0
0
0
0
-8.84042e-18
0
-3.2655e-17
2.4275e-18
5.43483e-18
5.15481e-18
1.04674e-17
9.77687e-25
2.42983e-09
-4.16862e-11
5.30615e-09
-8.22751e-11
-1.2044e-24
-8.22583e-11
-2.21965e-09
-3.24805e-10
9.20132e-11
-4.2596e-10
-1.76511e-10
-2.71603e-13
4.45597e-09
-1.02406e-12
-2.09396e-10
-3.04363e-27
-1.03852e-08
2.68308e-12
-2.28035e-09
-9.7008e-09
-2.0725e-12
-9.42598e-09
8.68562e-13
4.4997e-10
-3.92877e-18
6.33525e-20
5.10246e-13
4.52753e-09
6.97248e-19
-2.34867e-18
7.31262e-19
-8.71276e-18
-4.11761e-20
-2.78037e-09
3.43984e-12
-2.52685e-12
7.54353e-26
-3.44415e-12
-7.9359e-25
3.81036e-26
-8.64209e-09
2.68308e-12
4.11417e-20
1.29281e-12
3.89324e-18
5.55689e-09
-1.94397e-18
4.18862e-20
-3.10689e-18
5.23863e-18
1.00798e-08
3.981e-20
0
-9.0187e-09
-9.40298e-09
3.90657e-20
3.78384e-13
-4.67818e-12
1.49375e-18
0
-2.14636e-08
-2.14739e-17
3.09584e-13
1.63389e-13
1.01577e-18
0
-1.2447e-18
1.43121e-18
-3.90543e-20
3.00076e-18
-2.26557e-18
-1.27464e-18
1.47174e-18
-2.49751e-18
-3.33661e-18
6.99664e-19
-6.54068e-09
3.00111e-20
0
1.85265e-20
-6.8794e-14
1.05775e-12
0
2.72459e-09
4.7311e-18
3.00168e-20
0
-4.15498e-20
-2.52764e-19
3.81129e-18
-1.76968e-24
0
-2.28692e-34
0
0
0
0
0
0
0
0
0
0
0
0
0
0
0
0
0
-1.05137e-17
2.53e-35
5.97381e-18
2.9825e-18
9.20235e-20
1.06434e-17
-7.27745e-35
-1.87244e-19
8.06938e-20
-5.97367e-18
1.58116e-17
5.36144e-25
2.40486e-09
-8.12662e-12
-1.01246e-08
1.10075e-12
-1.24694e-12
1.81602e-08
-8.09169e-11
8.94792e-09
-9.98791e-09
5.26098e-09
-1.03421e-19
-7.0497e-18
-7.39412e-19
-1.34395e-18
-1.61871e-18
5.29227e-18
6.80803e-13
1.72987e-10
-1.57778e-24
2.46818e-09
-2.4464e-09
-9.2089e-09
-9.40019e-11
-9.0291e-09
5.38591e-09
1.93276e-12
4.87326e-09
-2.52971e-13
1.94994e-10
-4.02413e-20
-9.17173e-18
1.96071e-12
5.15978e-13
8.06007e-18
0
1.02738e-08
1.91126e-11
0
7.76266e-18
0
-6.43517e-18
5.21959e-34
-1.70802e-18
3.60671e-19
-1.93577e-18
1.07115e-17
-2.76322e-18
-3.17261e-24
0
3.90869e-18
-5.81748e-18
-4.4233e-18
-3.97618e-20
0
1.04269e-18
9.04477e-18
-8.42263e-20
-5.56417e-18
6.87962e-13
0
-8.54891e-09
-2.14111e-18
-1.54402e-17
-6.06437e-18
3.97422e-20
-1.12975e-19
1.41815e-17
4.19965e-20
-7.13409e-19
-1.93902e-18
4.87671e-18
-5.61716e-20
-5.07794e-18
-3.08347e-20
-6.19173e-13
1.01444e-08
0
4.16343e-20
0
1.06439e-17
-7.04756e-18
-6.16703e-20
5.45903e-19
7.24005e-18
-8.04993e-34
2.06089e-17
-2.82911e-18
3.96335e-20
1.37598e-13
-8.16964e-13
5.72179e-10
0
-9.13563e-09
-2.58631e-20
2.06386e-13
0
5.81342e-09
-3.96275e-20
-8.4722e-20
-3.47224e-18
-8.49028e-18
1.10015e-17
0
-2.00814e-19
5.07647e-18
0
0
0
0
0
0
-3.26805e-17
-5.27277e-18
-1.04674e-17
1.04628e-17
5.28459e-18
-3.3422e-34
-7.36072e-18
-5.83488e-18
-1.33043e-17
2.09685e-17
-5.21523e-32
1.02421e-17
3.75318e-35
1.69588e-18
9.75057e-22
0
-5.6027e-19
0
-2.66975e-09
-2.14202e-12
-4.50666e-18
3.98975e-22
2.61152e-18
5.15301e-18
-4.59865e-18
2.853e-18
1.73354e-12
5.33755e-09
-4.5076e-18
0
-9.92089e-20
5.15181e-18
-5.48198e-18
-3.22572e-18
1.22969e-19
-5.43496e-12
9.11722e-11
6.32602e-18
-1.05266e-08
0
5.87706e-13
-4.27078e-17
-4.14389e-20
1.16489e-17
0
-1.09726e-17
-2.68183e-25
-4.03582e-18
-5.87639e-13
7.11054e-18
1.05441e-17
-1.81933e-10
-8.21236e-18
-4.13708e-20
6.5604e-18
-1.02752e-17
0
5.22855e-12
6.61148e-18
1.07583e-08
0
-4.68169e-17
1.05199e-24
1.34934e-19
2.64867e-12
0
-1.4559e-18
1.04291e-08
4.25456e-20
-8.25557e-13
-1.40173e-12
3.7947e-34
5.35734e-10
-9.47738e-09
-8.26331e-20
-7.95325e-19
-6.45257e-19
2.72354e-18
-9.44171e-18
4.03811e-20
0
7.71392e-19
-2.11115e-18
-4.3563e-18
4.25258e-20
1.03064e-18
-6.8195e-19
-3.48723e-18
2.65859e-19
-1.46102e-24
-9.37353e-13
1.81783e-34
-8.2978e-09
4.14817e-20
6.87719e-19
-2.57909e-18
4.56514e-09
1.92886e-25
0
-1.0224e-25
-3.43985e-14
3.35385e-13
0
-6.90676e-11
-1.61863e-09
-1.09872e-24
1.86714e-20
3.95581e-13
5.02362e-19
-1.46209e-18
0
0
0
0
0
0
0
0
0
0
0
0
0
0
-1.47424e-17
-7.6813e-19
-3.25295e-17
7.44168e-20
1.55863e-17
2.39201e-18
-1.09314e-19
1.75512e-25
8.89854e-18
2.18586e-09
-1.22351e-17
4.76907e-09
3.36279e-34
-1.03539e-17
1.02542e-17
-3.31947e-20
1.13515e-12
8.85759e-13
-1.64262e-18
-4.11423e-20
6.87921e-14
1.53933e-12
-7.28128e-11
0
-6.92772e-09
8.07878e-09
0
-2.60662e-09
-7.65654e-18
0
-6.42109e-13
8.35558e-18
0
-1.00288e-08
1.03441e-08
8.22844e-20
1.28961e-18
-1.55444e-18
-3.31963e-20
7.36299e-19
3.84148e-19
-3.51773e-18
4.55326e-18
1.41746e-17
2.11021e-18
4.77356e-18
8.73255e-18
-7.63325e-20
6.46406e-13
-3.82818e-18
5.21293e-09
9.62315e-18
8.33192e-20
3.06147e-12
-2.70016e-09
4.15832e-18
3.89132e-10
0
-2.03604e-12
6.86593e-18
4.12039e-20
-1.35173e-18
0
3.59869e-22
3.04214e-26
1.38972e-18
2.03595e-12
2.03826e-18
-1.35618e-17
5.39937e-09
-3.40135e-18
0
2.77164e-18
-3.47569e-20
-2.55775e-20
-3.15726e-18
5.76172e-13
4.33143e-18
0
4.36413e-09
3.94714e-20
-1.36088e-17
0
1.49962e-17
-2.55829e-20
-1.0112e-18
-1.30942e-18
5.71613e-18
3.73277e-18
0
-5.43964e-18
2.04552e-17
-6.78017e-25
0
-1.4039e-17
-3.40502e-18
-3.99516e-34
5.44046e-18
-1.33374e-18
2.67627e-26
0
7.19509e-35
-1.95201e-24
0
-3.26461e-34
0
0
0
0
0
0
0
-1.02932e-17
-6.57352e-35
-5.97381e-18
-5.97163e-18
-1.04601e-17
-9.20235e-20
-5.97367e-18
1.0541e-17
1.40423e-34
-2.33934e-18
1.06434e-17
3.48876e-25
3.02275e-18
2.46814e-09
-2.44616e-09
-9.20853e-09
3.83399e-12
-9.02967e-09
1.00362e-17
5.38591e-09
1.86826e-12
4.87321e-09
-1.40906e-18
-1.02336e-17
1.45429e-34
-1.22885e-18
4.95508e-17
-1.28994e-13
1.37594e-12
8.51351e-09
6.00109e-12
8.94845e-09
9.98806e-09
7.82211e-19
-2.2117e-18
-1.38509e-18
1.48753e-18
2.50736e-19
4.54369e-18
-2.59671e-18
-5.23389e-18
-4.77874e-18
-3.97627e-20
0
2.66368e-18
1.65453e-18
-4.211e-20
-6.77654e-18
-4.62343e-18
0
1.54928e-17
-1.16056e-17
-8.26624e-19
-4.12083e-20
0
-7.17063e-18
-7.7259e-18
1.06095e-17
7.78115e-18
-6.63288e-18
-9.96647e-35
8.43732e-18
3.52303e-18
0
-2.35308e-18
2.77473e-18
2.59202e-18
-4.40979e-20
-1.12473e-19
4.11861e-20
-9.13721e-18
-1.90841e-18
2.8763e-18
5.19941e-18
0
-9.81222e-19
6.47386e-19
0
-1.15956e-17
-2.31699e-16
-4.02274e-20
2.62031e-18
6.47697e-19
4.28385e-18
1.29069e-17
-1.00917e-24
2.40786e-13
-4.81585e-13
5.71865e-10
0
-9.29813e-09
2.58566e-20
1.03194e-13
8.32505e-20
1.65972e-12
3.78375e-13
0
5.81157e-09
0
1.01448e-08
9.35576e-09
8.47942e-34
1.41545e-18
-2.0303e-18
-2.03791e-18
1.92856e-17
-2.58642e-20
-2.1495e-19
-8.32377e-20
8.88721e-19
-2.12091e-18
3.31458e-18
-7.50836e-19
7.79802e-18
0
0
-3.08365e-20
0
0
0
0
0
0
0
0
0
0
0
-1.32806e-17
1.56438e-34
-9.04148e-20
-2.93076e-18
-1.06195e-17
-3.62636e-19
2.29243e-17
4.87724e-18
-3.20099e-34
-1.51797e-17
-1.06881e-17
-1.17113e-17
2.65881e-17
0
1.78182e-17
1.16955e-12
2.13326e-10
-5.15704e-18
1.54793e-12
-8.97972e-09
7.81556e-18
-1.21973e-17
2.92747e-18
-5.91829e-18
-8.40242e-18
1.84099e-18
-1.10431e-17
2.57134e-18
0
-2.58698e-18
1.55168e-17
-3.39034e-24
4.9523e-25
1.97237e-18
-1.99612e-17
0
0