/*--------------------------------*- C++ -*----------------------------------*\
| =========                 |                                                 |
| \\      /  F ield         | OpenFOAM: The Open Source CFD Toolbox           |
|  \\    /   O peration     | Version:  5.x                                   |
|   \\  /    A nd           | Web:      www.OpenFOAM.org                      |
|    \\/     M anipulation  |                                                 |
\*---------------------------------------------------------------------------*/
FoamFile
{
    version     2.0;
    format      ascii;
    class       volScalarField;
    location    "0.4";
    object      nut;
}
// * * * * * * * * * * * * * * * * * * * * * * * * * * * * * * * * * * * * * //

dimensions      [0 2 -1 0 0 0 0];

internalField   nonuniform List<scalar> 
12160
(
1.05139e-09
9.75868e-10
2.75123e-08
1.22564e-09
1.4549e-08
2.69726e-08
1.30953e-09
9.18291e-09
1.77469e-08
2.23674e-08
1.69012e-09
9.99294e-09
1.00758e-08
1.33185e-08
2.02346e-08
1.98972e-09
9.09774e-09
1.03053e-08
8.98529e-09
1.85311e-08
1.53409e-08
2.60038e-09
1.07857e-08
9.25178e-09
9.0342e-09
1.02794e-08
1.43202e-08
1.65139e-08
3.28699e-09
1.16963e-08
1.09005e-08
8.43758e-09
9.39255e-09
1.00599e-08
2.05656e-08
9.19303e-09
4.29385e-09
1.45941e-08
1.17721e-08
9.97026e-09
8.70148e-09
8.09011e-09
8.87756e-09
9.91638e-09
1.59486e-09
5.63393e-09
1.75698e-08
1.46385e-08
1.10037e-08
1.03811e-08
7.56444e-09
7.47036e-09
5.71589e-09
3.59468e-09
1.93459e-09
7.45178e-09
2.22101e-08
1.76345e-08
1.37024e-08
1.15533e-08
8.573e-09
7.86223e-09
4.3628e-09
1.87949e-09
1.52973e-09
2.39679e-09
9.89743e-09
2.83017e-08
2.2277e-08
1.67018e-08
1.44587e-08
9.59329e-09
1.00477e-08
4.78137e-09
1.32419e-09
2.56462e-09
1.07837e-09
5.52245e-09
1.31845e-08
3.65399e-08
2.83823e-08
2.12054e-08
1.77145e-08
1.18144e-08
1.16401e-08
4.87759e-09
1.34553e-09
7.57174e-09
1.08824e-09
2.21781e-09
4.13309e-09
1.75937e-08
4.75097e-08
3.66373e-08
2.71546e-08
2.25477e-08
1.45578e-08
1.45942e-08
5.06857e-09
1.4528e-09
4.40102e-09
9.07679e-10
2.00536e-09
4.03945e-09
6.48342e-09
2.34989e-08
6.20859e-08
4.76299e-08
3.51891e-08
2.89154e-08
1.85415e-08
1.78046e-08
4.88745e-09
1.86116e-09
2.77735e-09
9.74268e-10
1.5181e-09
3.73029e-09
3.95621e-09
7.3584e-09
3.1408e-08
8.13501e-08
6.22399e-08
4.58978e-08
3.74907e-08
2.38734e-08
2.22513e-08
4.71586e-09
2.58961e-09
2.51064e-09
1.11346e-09
2.44319e-09
4.56565e-09
3.25899e-09
4.39832e-09
4.20077e-08
1.06676e-07
8.15581e-08
6.01449e-08
4.8901e-08
3.10757e-08
2.80785e-08
4.56617e-09
3.91737e-09
2.73889e-09
1.43523e-09
3.53044e-09
7.41872e-09
4.30517e-09
4.76503e-09
5.62997e-08
1.39676e-07
1.06992e-07
7.90147e-08
6.40723e-08
4.07081e-08
3.58381e-08
4.46424e-09
6.16414e-09
3.11266e-09
2.01619e-09
5.54625e-09
1.26827e-08
9.20837e-09
6.03518e-09
7.57461e-08
1.82216e-07
1.40228e-07
1.03919e-07
8.41766e-08
5.35561e-08
4.61538e-08
4.4095e-09
9.78464e-09
3.60432e-09
3.04002e-09
7.83123e-09
1.22735e-08
2.01459e-08
1.61039e-08
1.02693e-07
2.36095e-07
1.83252e-07
1.36589e-07
1.10767e-07
7.06252e-08
5.98655e-08
4.39867e-09
1.46694e-08
3.98831e-09
4.8044e-09
1.04378e-08
1.13131e-08
1.47092e-08
5.30643e-08
1.3853e-07
3.0212e-07
2.38133e-07
1.79119e-07
1.4581e-07
9.3231e-08
7.80695e-08
4.4285e-09
2.03899e-08
4.19682e-09
7.7918e-09
1.29722e-08
1.20118e-08
1.20822e-08
2.21182e-08
1.3853e-07
3.78619e-07
3.06174e-07
2.33909e-07
1.91828e-07
1.23035e-07
1.02237e-07
4.49945e-09
2.60686e-08
4.29197e-09
1.22969e-08
1.58306e-08
1.34858e-08
1.24009e-08
1.67473e-08
1.3853e-07
4.59932e-07
3.86769e-07
3.02936e-07
2.52066e-07
1.62128e-07
1.3435e-07
4.61753e-09
3.06161e-08
4.36117e-09
1.86117e-08
2.00317e-08
1.62506e-08
1.37498e-08
1.68681e-08
1.3853e-07
5.33371e-07
4.75081e-07
3.87074e-07
3.30293e-07
2.13106e-07
1.77223e-07
4.79483e-09
3.27376e-08
4.44793e-09
2.70476e-08
2.62041e-08
2.05387e-08
1.64884e-08
1.85574e-08
1.3853e-07
5.82385e-07
5.58019e-07
4.83147e-07
4.30691e-07
2.78831e-07
2.35018e-07
5.05721e-09
3.21424e-08
4.5712e-09
3.82567e-08
3.48754e-08
2.69134e-08
2.07591e-08
2.21793e-08
1.3853e-07
5.92131e-07
6.15233e-07
5.78537e-07
5.55119e-07
3.61994e-07
3.14531e-07
5.45102e-09
2.90693e-08
4.74821e-09
5.36138e-08
4.66033e-08
3.62502e-08
2.71958e-08
2.7854e-08
1.38529e-07
5.60065e-07
6.26611e-07
6.48256e-07
6.94151e-07
4.62418e-07
4.27749e-07
6.06104e-09
2.5379e-08
5.00387e-09
7.63372e-08
6.15816e-08
4.99968e-08
3.66957e-08
3.64108e-08
1.38529e-07
4.97923e-07
5.88631e-07
6.63441e-07
8.10137e-07
5.70785e-07
5.96713e-07
7.05914e-09
2.11533e-08
5.3945e-09
1.11432e-07
7.97537e-08
7.13483e-08
5.05397e-08
4.90712e-08
1.35112e-07
4.23215e-07
5.17355e-07
6.17706e-07
8.38738e-07
6.57337e-07
8.60954e-07
8.8119e-09
1.76875e-08
6.01128e-09
1.57437e-07
9.81496e-08
1.06877e-07
7.13531e-08
6.78234e-08
1.01409e-07
3.49345e-07
4.34779e-07
5.34233e-07
7.59549e-07
6.78874e-07
1.23513e-06
1.23871e-08
1.50576e-08
7.01365e-09
1.6835e-07
1.14515e-07
1.72909e-07
1.03695e-07
9.70689e-08
7.77133e-08
2.83772e-07
3.5577e-07
4.41862e-07
6.29048e-07
6.21931e-07
1.37739e-06
2.24368e-08
1.32993e-08
8.75295e-09
1.28664e-07
1.20689e-07
3.00126e-07
1.53873e-07
1.46273e-07
6.04344e-08
2.28765e-07
2.87213e-07
3.5706e-07
5.01019e-07
5.23578e-07
1.04207e-06
1.38099e-07
1.22757e-08
1.22154e-08
9.18735e-08
1.19841e-07
3.6899e-07
2.33065e-07
2.40637e-07
4.75213e-08
1.84005e-07
2.30562e-07
2.85684e-07
3.94267e-07
4.22397e-07
7.20173e-07
3.2677e-08
1.19439e-08
2.11604e-08
7.21923e-08
1.18733e-07
2.90255e-07
3.28464e-07
4.80044e-07
3.77006e-08
1.48127e-07
1.849e-07
2.27892e-07
3.10125e-07
3.35124e-07
5.14302e-07
1.53654e-08
1.22254e-08
5.46165e-08
6.21003e-08
1.19081e-07
2.23988e-07
3.80953e-07
1.64903e-06
3.01352e-08
1.19566e-07
1.48539e-07
1.81937e-07
2.44803e-07
2.64752e-07
3.80909e-07
1.04862e-08
1.31792e-08
2.89362e-08
5.91627e-08
1.20827e-07
1.95254e-07
4.1382e-07
1.77824e-06
2.42507e-08
9.69025e-08
1.19735e-07
1.45676e-07
1.94223e-07
2.09372e-07
2.89661e-07
8.27861e-09
1.48374e-08
1.5051e-08
6.12577e-08
1.21605e-07
1.81807e-07
4.81372e-07
1.01919e-06
1.96362e-08
7.8899e-08
9.69558e-08
1.17131e-07
1.54962e-07
1.6617e-07
2.24476e-07
7.06886e-09
1.72131e-08
1.04177e-08
7.01271e-08
1.20189e-07
1.80937e-07
6.2225e-07
9.93859e-07
1.5998e-08
6.46104e-08
7.89032e-08
9.46566e-08
1.24366e-07
1.32503e-07
1.76425e-07
6.33402e-09
2.02601e-08
8.24165e-09
8.81168e-08
1.17339e-07
1.88529e-07
7.94278e-07
1.32955e-06
1.3106e-08
5.31625e-08
6.45913e-08
7.69061e-08
1.00419e-07
1.06215e-07
1.40156e-07
5.86058e-09
2.37813e-08
7.02799e-09
1.19534e-07
1.15826e-07
2.09701e-07
7.37267e-07
2.30758e-06
1.08116e-08
4.41824e-08
5.31398e-08
6.28587e-08
8.15743e-08
8.56263e-08
1.12349e-07
5.54405e-09
2.72899e-08
6.28389e-09
1.57088e-07
1.15802e-07
2.53012e-07
5.96685e-07
2.1022e-06
3.63756e-08
7.96764e-09
4.41441e-08
5.16477e-08
6.66847e-08
6.94331e-08
9.07992e-08
5.32705e-09
3.01804e-08
5.8078e-09
1.58311e-07
1.15891e-07
3.3243e-07
5.28245e-07
1.55456e-06
3.63707e-08
2.75924e-08
5.39053e-09
4.28212e-08
5.482e-08
5.6641e-08
7.39477e-08
5.17762e-09
3.20946e-08
5.50077e-09
1.24713e-07
1.10593e-07
4.03712e-07
4.88208e-07
1.80732e-06
3.52986e-08
2.7573e-08
1.92973e-08
3.75878e-09
4.54626e-08
4.64726e-08
6.06602e-08
5.07818e-09
3.25606e-08
5.29488e-09
9.29276e-08
9.84524e-08
2.97607e-07
3.85235e-07
4.25392e-06
3.75298e-08
2.67018e-08
1.92865e-08
1.38488e-08
2.72398e-09
3.84039e-08
5.01076e-08
5.01865e-09
3.13898e-08
5.14868e-09
6.94045e-08
8.33393e-08
1.8459e-07
2.59044e-07
1.08731e-06
3.17298e-08
2.83786e-08
1.86166e-08
1.38633e-08
1.0347e-08
2.03968e-09
4.16466e-08
4.99442e-09
2.88848e-08
5.04786e-09
5.28924e-08
6.88795e-08
1.2273e-07
1.71212e-07
4.53643e-07
3.49071e-08
2.39826e-08
1.9857e-08
1.33828e-08
1.03835e-08
7.90612e-09
1.56502e-09
5.00376e-09
2.5623e-08
4.98138e-09
4.11243e-08
5.64322e-08
8.72662e-08
1.18851e-07
2.57799e-07
5.04175e-09
2.67103e-08
1.66822e-08
1.43225e-08
1.00522e-08
7.96927e-09
6.08924e-09
1.21893e-09
2.19324e-08
4.94296e-09
3.22943e-08
4.59752e-08
6.52648e-08
8.6378e-08
1.68559e-07
1.61875e-08
5.03478e-09
1.91272e-08
1.20905e-08
1.08153e-08
7.79064e-09
6.17507e-09
4.17738e-09
1.00949e-09
4.794e-09
2.52343e-08
3.75506e-08
5.03486e-08
6.52897e-08
1.19767e-07
4.80889e-09
1.28255e-08
5.39841e-09
1.42422e-08
9.24538e-09
8.46313e-09
6.15257e-09
4.37692e-09
2.90809e-09
9.6197e-10
1.96715e-08
3.06875e-08
3.99982e-08
5.05935e-08
8.87557e-08
1.62403e-08
4.6328e-09
7.25466e-09
5.89278e-09
1.11415e-08
7.4249e-09
6.78766e-09
4.77771e-09
2.95023e-09
2.01272e-09
9.44663e-10
2.53198e-08
3.22751e-08
4.03092e-08
6.81311e-08
2.19659e-08
1.02672e-08
4.17805e-09
4.34926e-09
6.61339e-09
9.08668e-09
6.2263e-09
5.46026e-09
3.58975e-09
1.80434e-09
1.0044e-09
1.03947e-09
2.66907e-08
3.26301e-08
5.39853e-08
2.27777e-08
1.71428e-08
5.67057e-09
3.59765e-09
2.92956e-09
7.56842e-09
7.72371e-09
5.37959e-09
4.23987e-09
2.6903e-09
1.12686e-09
1.61666e-09
1.33269e-09
4.03038e-10
2.70846e-08
4.36454e-08
2.2937e-08
1.77346e-08
1.3107e-08
3.32122e-09
3.31848e-09
2.35217e-09
8.8725e-09
6.83522e-09
4.6263e-09
3.46303e-09
1.32043e-09
2.20789e-09
1.10657e-09
2.40541e-09
1.81701e-09
3.7091e-10
3.62729e-08
3.06652e-08
1.7945e-08
1.39047e-08
1.06285e-08
2.22623e-09
3.52962e-09
2.21559e-09
1.12313e-08
6.1566e-09
4.07246e-09
1.96038e-09
1.49559e-09
1.07533e-09
1.81175e-09
3.20302e-09
6.41911e-09
3.41236e-09
3.8289e-10
2.41091e-08
1.41461e-08
1.2374e-08
8.6464e-09
1.73799e-09
4.28328e-09
2.42472e-09
1.86485e-08
5.61562e-09
2.83996e-09
1.52395e-09
1.43191e-09
1.6643e-09
1.83001e-09
2.01497e-09
6.67604e-09
9.88008e-09
3.38508e-09
4.07481e-10
1.91062e-08
1.26378e-08
1.25011e-08
6.99802e-09
1.54056e-09
5.82434e-09
2.9848e-09
2.46538e-08
4.16273e-09
2.22706e-09
1.7808e-09
1.79743e-09
1.46133e-09
1.69323e-09
2.29788e-09
3.32514e-09
8.35552e-09
4.71187e-09
2.88591e-09
4.34271e-10
1.71023e-08
1.29662e-08
1.38483e-08
5.37105e-09
1.50478e-09
7.07008e-09
4.05483e-09
8.8711e-09
3.10231e-09
2.26107e-09
1.8348e-09
1.48582e-09
1.83382e-09
1.63192e-09
9.83618e-10
2.26333e-09
3.74831e-09
4.23216e-09
3.24456e-09
2.66427e-09
4.68976e-10
1.7585e-08
1.52125e-08
1.54473e-08
3.95444e-09
1.53869e-09
5.03882e-09
5.24117e-09
4.49709e-09
2.77032e-09
2.10652e-09
1.52123e-09
1.92016e-09
1.08162e-09
2.6808e-09
2.29266e-09
1.69683e-09
2.1648e-09
7.77483e-10
7.72689e-10
4.16093e-09
2.75601e-09
2.77379e-09
2.69747e-09
2.41543e-09
5.12467e-10
2.11136e-08
2.03714e-08
1.54076e-08
3.01434e-09
1.61411e-09
3.47358e-09
4.54495e-09
3.48111e-09
2.34519e-09
1.75056e-09
1.59712e-09
1.02274e-09
4.43513e-09
2.44057e-09
1.21959e-09
1.54293e-09
1.2655e-09
1.23845e-09
6.63961e-10
6.72476e-10
2.25578e-09
1.7962e-09
2.0624e-09
3.0214e-09
2.10485e-09
2.44638e-09
2.41986e-09
2.25099e-09
5.68382e-10
3.21516e-08
2.56064e-08
1.14425e-08
2.64189e-09
1.70317e-09
2.638e-09
3.71513e-09
2.78481e-09
1.9551e-09
1.50831e-09
1.07414e-09
3.02269e-09
1.87521e-09
1.76748e-09
1.74296e-09
1.58318e-09
1.5258e-09
1.7526e-09
2.07273e-09
2.00911e-09
2.10782e-09
1.91709e-09
1.70274e-09
1.73824e-09
2.06968e-09
2.04047e-09
1.98782e-09
2.40819e-09
1.9981e-09
2.28668e-09
2.19111e-09
2.11962e-09
6.41174e-10
7.0418e-08
1.50346e-08
8.42366e-09
2.7012e-09
1.68e-09
2.22011e-09
3.06162e-09
2.29865e-09
1.47782e-09
1.19732e-09
1.33507e-09
1.75417e-09
1.59916e-09
1.46315e-09
1.55416e-09
1.44871e-09
1.85487e-09
1.81184e-09
1.82254e-09
1.75511e-09
1.95545e-09
1.41104e-09
1.22182e-09
1.35145e-09
1.16026e-09
2.28749e-09
1.94758e-09
1.87267e-09
1.96022e-09
1.82357e-09
1.93298e-09
2.03572e-09
1.86059e-09
2.00808e-09
1.37336e-09
1.18529e-09
1.32773e-09
1.12485e-09
1.30484e-09
1.0567e-09
1.49212e-09
1.13528e-09
1.32333e-09
1.05902e-09
1.51515e-09
1.11296e-09
2.13161e-09
2.20812e-09
2.06309e-09
2.04424e-09
2.03905e-09
7.37307e-10
2.64209e-08
8.45812e-09
6.40322e-09
3.14405e-09
1.57051e-09
1.82442e-09
2.51493e-09
1.70541e-09
1.33921e-09
9.78786e-10
1.80467e-09
1.43037e-09
1.40078e-09
1.15232e-09
1.17107e-09
1.91505e-09
1.85327e-09
1.86582e-09
1.79642e-09
1.16905e-09
1.17778e-09
1.66422e-09
1.10464e-09
1.58152e-09
1.70769e-09
1.20633e-09
1.14805e-09
1.67324e-09
1.0816e-09
1.57239e-09
1.65319e-09
1.07602e-09
1.52756e-09
1.07474e-09
1.51813e-09
1.06227e-09
1.53888e-09
1.05764e-09
1.51969e-09
1.28573e-09
1.20433e-09
1.22907e-09
1.26592e-09
2.96004e-09
1.28392e-09
3.46388e-09
1.23236e-09
1.99378e-09
2.5381e-09
1.76306e-09
1.78524e-09
1.81598e-09
1.87881e-09
2.3144e-09
2.34312e-09
2.11259e-09
2.16372e-09
1.29026e-09
1.16722e-09
1.25407e-09
1.22436e-09
1.28961e-09
1.35947e-09
1.11116e-09
1.21975e-09
1.27365e-09
1.37562e-09
1.14182e-09
1.19596e-09
2.92731e-09
1.26768e-09
3.34896e-09
1.20882e-09
2.17341e-09
1.20608e-09
2.21188e-09
1.20219e-09
2.48232e-09
1.88161e-09
1.90429e-09
1.97293e-09
1.98868e-09
8.66899e-10
1.23062e-08
5.72756e-09
5.30062e-09
3.79742e-09
1.3857e-09
1.43568e-09
1.8585e-09
1.53524e-09
8.09987e-10
1.16189e-09
9.6394e-10
9.76137e-10
5.94642e-10
6.01589e-10
1.79927e-09
1.7296e-09
1.6161e-09
1.59107e-09
1.10289e-09
1.52657e-09
1.12757e-09
1.45545e-09
1.09478e-09
1.55317e-09
1.12317e-09
1.4803e-09
1.14785e-09
1.32394e-09
1.14286e-09
1.36711e-09
1.15568e-09
1.34603e-09
1.14409e-09
1.38641e-09
1.2414e-09
9.16342e-10
2.20013e-09
2.01485e-09
9.75425e-10
2.82771e-09
1.20605e-09
9.04526e-10
2.11137e-09
2.42613e-09
9.56593e-10
3.10625e-09
9.55231e-10
2.90713e-09
9.63442e-10
2.87329e-09
9.48813e-10
3.25558e-09
9.42905e-10
3.13315e-09
3.8168e-09
1.19773e-09
3.53908e-09
1.2067e-09
5.58989e-09
1.38596e-09
7.49356e-09
1.38613e-09
3.17468e-09
2.26735e-09
1.90728e-09
1.811e-09
1.84223e-09
1.8062e-09
2.24821e-09
2.23677e-09
2.28329e-09
2.29257e-09
1.27308e-09
1.70841e-09
1.18649e-09
1.73086e-09
1.25131e-09
1.67395e-09
1.18143e-09
1.71745e-09
1.00232e-09
1.31106e-09
2.55109e-09
1.06378e-09
1.80959e-09
1.58125e-09
1.00224e-09
1.32445e-09
2.38136e-09
1.0677e-09
1.80725e-09
1.53455e-09
3.45249e-09
1.19451e-09
3.3812e-09
1.18317e-09
3.07927e-09
1.11228e-09
2.76444e-09
1.10632e-09
5.62256e-09
1.35481e-09
7.88361e-09
1.3383e-09
3.18917e-09
1.32226e-09
3.44869e-09
1.2982e-09
1.77354e-09
1.71614e-09
1.86615e-09
1.94079e-09
1.95745e-09
1.04512e-09
8.29067e-09
4.22176e-09
4.38035e-09
4.72281e-09
1.21673e-09
9.9319e-10
1.49262e-09
1.00993e-09
9.52942e-10
4.98556e-10
5.05858e-10
4.16481e-10
4.21159e-10
1.06959e-09
1.08017e-09
1.01325e-09
1.02364e-09
1.14191e-09
1.22278e-09
1.10517e-09
1.28899e-09
1.15781e-09
1.24872e-09
1.11834e-09
1.30655e-09
1.00616e-09
1.7893e-09
1.09483e-09
1.29144e-09
1.03128e-09
1.78013e-09
1.11372e-09
1.32996e-09
9.56195e-10
3.13377e-09
9.83487e-10
3.17422e-09
9.58744e-10
3.54451e-09
9.97171e-10
3.62159e-09
1.11786e-09
3.30162e-09
1.03186e-09
3.33168e-09
1.1344e-09
3.79082e-09
1.0466e-09
3.8326e-09
6.88995e-09
1.28164e-09
7.52554e-09
1.22218e-09
1.94563e-09
1.72583e-09
2.0141e-09
1.92155e-09
2.0877e-09
1.93574e-09
2.3111e-09
2.25269e-09
2.21802e-09
2.18609e-09
1.1984e-09
1.52203e-09
1.22046e-09
1.63641e-09
1.23726e-09
1.5806e-09
1.24138e-09
1.67711e-09
1.26946e-09
1.71959e-09
1.2416e-09
1.71057e-09
1.266e-09
1.70367e-09
1.24588e-09
1.72967e-09
1.22743e-09
3.26205e-09
1.25121e-09
3.45873e-09
1.20712e-09
3.37822e-09
1.225e-09
3.41161e-09
1.12354e-09
1.15617e-09
2.90309e-09
2.93828e-09
1.24199e-09
3.82152e-09
1.10637e-09
1.17382e-09
2.93314e-09
2.83441e-09
1.24813e-09
3.38623e-09
7.81175e-09
1.25547e-09
8.92715e-09
1.1946e-09
5.41404e-09
1.11529e-09
5.89767e-09
1.09849e-09
1.43841e-09
1.72096e-09
1.87202e-09
1.92242e-09
1.94038e-09
1.29041e-09
5.90362e-09
3.70077e-09
3.3739e-09
4.16817e-09
1.08651e-09
7.53345e-10
9.50321e-10
1.00682e-09
1.17192e-09
9.29367e-10
9.38785e-10
7.19691e-10
7.29751e-10
1.61895e-09
1.64925e-09
1.37656e-09
1.40744e-09
1.12392e-09
2.51726e-09
1.16662e-09
2.30853e-09
1.15105e-09
2.65424e-09
1.18902e-09
2.37093e-09
1.02191e-09
1.83345e-09
1.15878e-09
2.05998e-09
1.05752e-09
1.79516e-09
1.19216e-09
2.0468e-09
1.21762e-09
3.95066e-09
1.21482e-09
4.54789e-09
1.27719e-09
4.80324e-09
1.14815e-09
1.18424e-09
2.15573e-09
2.24316e-09
2.49961e-09
2.41539e-09
2.70355e-09
2.56208e-09
2.78432e-09
1.26578e-09
1.40167e-09
1.39706e-09
2.43657e-09
1.25717e-09
1.43842e-09
1.42308e-09
1.23093e-09
1.40595e-09
1.3661e-09
1.41504e-09
1.27345e-09
1.47427e-09
1.42333e-09
1.45096e-09
1.26608e-09
5.18329e-09
1.34778e-09
3.32144e-09
1.25274e-09
6.25173e-09
1.34695e-09
3.40552e-09
1.27874e-09
3.10669e-09
1.30155e-09
2.93862e-09
1.27329e-09
3.15128e-09
1.29224e-09
2.93911e-09
1.50654e-09
1.78755e-09
1.87326e-09
1.91718e-09
1.93193e-09
1.60307e-09
5.41847e-09
2.9891e-09
2.62613e-09
3.68514e-09
7.90423e-10
7.92873e-10
1.14699e-09
1.95145e-09
6.0869e-10
6.13101e-10
8.50335e-10
8.55231e-10
1.22101e-09
1.2463e-09
8.25323e-10
8.3912e-10
1.32576e-09
1.13243e-09
1.31242e-09
1.09444e-09
1.3429e-09
1.13353e-09
1.33605e-09
1.09522e-09
1.20527e-09
1.08186e-09
1.18673e-09
1.12281e-09
1.2254e-09
1.07451e-09
1.22935e-09
1.11522e-09
1.2086e-09
3.19601e-09
1.20214e-09
2.89067e-09
1.21662e-09
3.42984e-09
1.21536e-09
3.04352e-09
1.13643e-09
1.74956e-09
1.21071e-09
2.24229e-09
1.1434e-09
1.8081e-09
1.21929e-09
2.34827e-09
1.29164e-09
2.9997e-09
3.22583e-09
1.33015e-09
1.37948e-09
1.75582e-09
1.77512e-09
2.87193e-09
2.90423e-09
2.44005e-09
2.42704e-09
3.54021e-09
1.55155e-09
1.38248e-09
3.15475e-09
3.51759e-09
1.59052e-09
1.34937e-09
3.38095e-09
1.34705e-09
3.96651e-09
1.61471e-09
4.2918e-09
1.31401e-09
5.21152e-09
1.54717e-09
6.34125e-09
1.9041e-09
5.40875e-09
1.8986e-09
5.05324e-09
1.67897e-09
1.81451e-09
1.88658e-09
1.91758e-09
1.92935e-09
1.92098e-09
4.21463e-09
3.38837e-09
2.36789e-09
1.37134e-09
6.73491e-10
1.15142e-09
6.50401e-09
4.04778e-08
1.23246e-09
1.23295e-09
1.58783e-09
1.59823e-09
1.04458e-09
1.18817e-09
1.60101e-09
9.13114e-10
1.03928e-09
1.21392e-09
1.54e-09
9.30702e-10
1.39054e-09
1.39046e-09
2.38631e-09
1.01285e-09
2.50408e-09
1.05878e-09
2.35696e-09
1.01668e-09
2.51117e-09
1.06065e-09
2.45718e-09
1.13856e-09
2.00528e-09
1.10539e-09
2.48365e-09
1.14373e-09
1.97979e-09
1.10485e-09
9.90183e-10
2.60776e-09
9.94691e-10
2.65337e-09
1.52711e-09
1.52013e-09
5.60461e-09
2.89072e-09
2.64625e-09
1.72707e-09
1.80752e-09
2.16099e-09
2.23992e-09
2.60329e-09
2.64663e-09
1.31977e-09
1.25078e-09
1.25529e-09
1.17205e-09
1.39129e-09
1.25275e-09
1.29855e-09
1.20171e-09
1.51181e-09
1.03109e-09
2.20551e-09
1.06723e-09
1.7607e-09
1.13976e-09
3.59416e-09
1.13137e-09
1.1377e-09
3.39483e-09
1.43933e-09
3.60574e-09
1.27229e-09
3.25985e-09
1.46566e-09
3.57702e-09
2.10461e-09
5.21642e-09
1.90145e-09
4.36228e-09
2.00806e-09
6.60242e-09
1.98876e-09
4.51071e-09
1.75629e-09
1.85254e-09
1.90085e-09
1.92073e-09
1.46936e-09
3.49224e-09
3.32016e-09
1.92123e-09
5.60083e-10
1.07588e-09
1.16106e-09
1.99089e-08
5.04873e-09
5.05204e-09
8.08425e-09
7.69752e-09
1.28303e-09
2.18688e-09
1.25304e-09
3.75075e-09
1.20812e-09
2.54557e-09
1.22188e-09
4.35676e-09
3.0083e-09
3.09496e-09
1.14051e-09
1.85268e-09
1.58849e-09
1.02046e-09
1.14144e-09
1.81968e-09
1.58509e-09
1.01555e-09
1.42208e-09
1.91892e-09
1.50513e-09
1.49269e-09
1.3317e-09
2.2208e-09
1.4728e-09
1.54984e-09
2.52848e-09
1.32006e-09
2.37751e-09
1.21886e-09
2.60225e-09
1.3185e-09
2.42824e-09
1.22468e-09
1.74266e-09
1.42553e-09
2.97756e-09
2.88744e-08
1.84582e-09
1.773e-09
2.11411e-09
2.16339e-09
2.30619e-09
2.41088e-09
1.21697e-09
1.0889e-09
8.80516e-10
2.04309e-09
1.20507e-09
1.13386e-09
9.02238e-10
1.86084e-09
3.49645e-09
1.29616e-09
4.42908e-09
1.29424e-09
3.39617e-09
1.29917e-09
4.58724e-09
1.31781e-09
2.64208e-09
1.25364e-09
2.96526e-09
1.37532e-09
2.59389e-09
1.31034e-09
2.62934e-09
1.42226e-09
1.21243e-09
2.67214e-09
1.29936e-09
2.20794e-09
1.82375e-09
1.8878e-09
1.91232e-09
1.1125e-09
3.19599e-09
3.45729e-09
2.48488e-09
1.00145e-09
2.01959e-09
2.50723e-09
4.9617e-09
4.74194e-09
1.49612e-10
1.50361e-10
8.63519e-09
8.83647e-09
1.54309e-08
1.46481e-08
1.57215e-09
3.38303e-09
1.63269e-09
4.09797e-09
1.58582e-09
3.59068e-09
1.65774e-09
4.32603e-09
6.24662e-09
2.77562e-09
1.19443e-08
2.39514e-09
6.59093e-09
2.8465e-09
1.30588e-08
2.51892e-09
1.36715e-09
2.11624e-09
1.84975e-09
1.44376e-09
1.35958e-09
2.13795e-09
1.89576e-09
1.42516e-09
1.55101e-09
3.38578e-09
1.61369e-09
3.19378e-09
1.54354e-09
3.84589e-09
1.61333e-09
3.55027e-09
1.83214e-09
1.94363e-09
1.87159e-09
4.01779e-09
2.29575e-09
2.29438e-09
2.1216e-09
2.15188e-09
1.90999e-09
1.93282e-09
1.06825e-09
9.19693e-10
1.43613e-09
8.07984e-10
1.11874e-09
9.76631e-10
1.37765e-09
8.38017e-10
1.28399e-09
9.9928e-10
1.30214e-09
1.37387e-09
2.30831e-09
1.10943e-09
1.28275e-09
1.01931e-09
1.30076e-09
1.45979e-09
2.11374e-09
1.09431e-09
1.10315e-09
2.28552e-09
1.08295e-09
2.35719e-09
2.73365e-09
2.41879e-09
6.06616e-09
1.40526e-09
2.80751e-09
2.45354e-09
5.7334e-09
1.42298e-09
1.89034e-09
1.90948e-09
8.68018e-10
3.99432e-09
1.9536e-09
1.01344e-09
3.87579e-09
1.65115e-09
8.47418e-09
9.99237e-09
8.98575e-09
2.44424e-10
2.43344e-10
5.12483e-09
3.98292e-09
2.23458e-08
5.09988e-09
3.7218e-08
1.18462e-08
4.14679e-09
5.36864e-09
1.26472e-08
2.373e-08
5.29054e-09
4.26855e-08
8.4592e-09
6.53406e-08
8.69458e-09
6.27487e-08
8.19198e-09
7.48743e-08
8.35835e-09
6.97067e-08
2.26465e-09
4.78624e-09
2.36668e-09
5.47949e-09
2.35568e-09
5.23354e-09
2.47482e-09
5.90567e-09
8.46456e-09
3.4641e-09
9.07509e-09
3.66597e-09
2.98921e-09
1.501e-09
3.14412e-09
1.50423e-09
2.0415e-09
3.8474e-09
2.08768e-09
4.41734e-09
1.93322e-09
1.89341e-09
3.00228e-09
3.12705e-09
4.14647e-09
3.91133e-09
2.05216e-09
1.99363e-09
1.8801e-09
1.93936e-09
1.68946e-09
1.77982e-09
1.34623e-09
1.34777e-09
9.74995e-10
8.96219e-10
1.15226e-09
2.11732e-09
1.95824e-09
1.49228e-09
1.12065e-09
1.05991e-09
1.1127e-09
1.83267e-09
1.03716e-09
2.27524e-09
1.00063e-09
2.40607e-09
1.35112e-09
3.22101e-09
1.34685e-09
1.87637e-09
3.12252e-09
2.385e-09
1.28445e-09
3.50038e-09
1.30523e-09
1.73958e-09
3.56841e-09
2.29781e-09
1.4604e-09
3.84821e-09
1.40647e-09
4.15007e-09
1.92043e-09
7.03487e-10
4.85445e-09
3.25855e-09
4.80277e-09
1.56486e-09
5.83445e-09
6.8578e-10
6.90161e-10
1.97845e-09
2.30734e-09
2.19217e-08
1.98007e-08
7.50456e-10
6.1976e-10
4.52258e-09
4.8932e-09
2.13644e-08
1.31242e-08
5.09637e-09
2.15795e-08
4.73705e-09
5.14877e-09
1.41155e-08
2.38042e-08
5.23126e-09
2.62931e-08
9.19589e-09
3.05616e-08
8.29559e-09
3.78189e-08
8.63552e-09
3.63385e-08
8.38488e-09
4.03291e-08
2.96303e-09
6.79375e-09
3.12241e-09
7.3373e-09
1.95408e-09
2.04359e-09
2.47748e-09
1.72768e-09
5.46665e-09
1.88626e-09
1.85053e-09
2.51878e-09
2.50721e-09
5.53369e-09
1.00308e-09
1.30987e-09
1.0957e-09
6.86049e-09
1.06505e-09
1.53122e-09
1.23296e-09
8.82404e-10
1.57512e-09
1.55977e-09
1.21158e-09
1.08151e-09
1.05677e-09
1.08231e-09
2.0468e-09
1.95929e-09
1.44903e-09
1.28114e-09
1.3496e-09
1.7054e-09
2.15164e-09
9.42683e-10
1.1484e-09
1.72253e-09
2.83206e-09
1.12622e-09
1.39772e-09
1.31047e-09
3.66963e-09
1.48731e-09
3.58726e-09
1.44997e-09
3.00108e-09
1.85003e-09
3.47575e-09
1.95543e-09
3.14804e-09
1.73399e-09
3.12263e-09
5.88942e-10
3.50769e-09
2.15388e-09
1.05846e-09
6.81763e-10
9.77238e-09
9.32216e-10
9.2889e-10
2.03404e-09
2.44091e-09
5.66684e-08
1.62945e-08
7.27304e-08
1.76502e-08
7.07783e-08
1.29536e-08
6.73974e-08
1.2083e-08
4.3434e-09
3.40434e-09
1.15839e-08
5.54465e-08
1.06015e-08
6.68688e-08
1.07952e-08
4.90091e-08
1.10919e-08
5.19458e-08
5.0645e-10
1.99953e-09
2.18037e-09
6.15075e-09
2.12148e-09
1.41588e-09
1.41512e-09
2.33443e-09
2.29671e-09
2.07252e-09
2.06299e-09
3.15942e-09
3.25779e-09
3.10807e-09
1.17695e-09
1.70362e-09
2.91078e-09
3.91349e-09
1.28265e-09
1.73443e-09
3.42835e-09
8.30301e-10
1.15569e-09
1.34816e-09
1.88963e-09
1.25852e-09
2.01349e-09
9.61137e-10
1.36565e-09
1.97717e-09
1.41094e-09
1.36976e-09
2.23684e-09
2.84561e-09
1.24597e-09
2.18572e-09
1.66753e-09
4.99485e-09
4.04381e-09
8.57226e-10
1.38071e-09
2.52361e-09
3.40928e-09
2.35556e-09
2.52624e-09
1.08095e-09
1.17652e-09
2.66672e-09
3.63039e-09
6.97836e-08
4.82234e-08
7.77942e-08
2.19825e-08
6.01232e-08
3.52235e-08
5.55436e-08
2.7203e-08
9.17121e-10
1.22656e-08
2.72135e-09
3.5757e-08
7.14979e-10
9.32154e-09
4.11175e-09
3.75161e-08
2.37722e-08
6.64571e-08
2.19361e-08
6.50685e-08
4.45004e-10
2.01824e-09
2.28735e-09
1.3508e-09
4.39339e-09
1.57894e-09
1.61625e-09
1.67269e-09
1.74078e-09
2.03217e-09
2.16606e-09
1.0539e-09
2.504e-09
1.31586e-09
7.58884e-09
1.12882e-09
2.44632e-09
1.4233e-09
7.91168e-09
1.67375e-09
2.09895e-09
2.00594e-09
2.57955e-09
1.77961e-09
2.97698e-09
1.91036e-09
2.41314e-09
6.05899e-09
1.26935e-09
6.49578e-10
3.19763e-09
5.12521e-09
6.65977e-09
4.69246e-09
3.86783e-09
5.62337e-10
2.4459e-09
1.71395e-09
5.85943e-10
2.52734e-09
5.82712e-10
4.83506e-10
2.92195e-09
2.19344e-09
7.05014e-10
3.19247e-09
8.7072e-10
3.4573e-09
6.58793e-09
5.49132e-08
1.74507e-08
6.02532e-08
6.63361e-09
3.96539e-08
4.35008e-08
3.89918e-08
3.53446e-08
1.32741e-09
8.7579e-09
1.52049e-09
1.22146e-08
3.9683e-10
2.01858e-09
2.79683e-09
1.7228e-09
1.3392e-09
1.33343e-09
2.2039e-09
2.18203e-09
1.97826e-09
2.10158e-09
2.02309e-09
2.12564e-09
2.01095e-09
8.26516e-10
6.72181e-10
1.13701e-09
1.22211e-09
9.70288e-10
2.31618e-09
9.29388e-10
7.82307e-10
1.47233e-09
1.77498e-09
1.29213e-09
1.22562e-09
1.73286e-09
1.45512e-09
1.93864e-09
3.04477e-09
2.1123e-09
4.75715e-09
1.85279e-09
2.10432e-09
1.7544e-09
6.92552e-10
2.1862e-09
1.70695e-09
1.53846e-09
1.26119e-09
5.48902e-09
7.42816e-09
5.94479e-09
6.11612e-09
4.62849e-10
1.90117e-09
1.50529e-09
7.02782e-10
2.42408e-09
1.00254e-09
4.75161e-10
2.04729e-09
2.72388e-09
9.89926e-10
4.08599e-09
2.83439e-09
3.82184e-09
2.27805e-09
2.39846e-09
3.42508e-09
5.45384e-09
6.88631e-09
6.25108e-09
1.13345e-08
3.58446e-10
2.08397e-09
1.65749e-09
5.92497e-09
1.78361e-09
1.7777e-09
2.45413e-09
2.51648e-09
2.3791e-09
2.48169e-09
3.27994e-09
1.11275e-09
8.90143e-10
9.03649e-10
1.24121e-09
2.07685e-09
9.10496e-10
9.28497e-10
1.36547e-09
2.08916e-09
3.51231e-09
1.2374e-09
9.63646e-10
7.65402e-10
9.26068e-10
1.16521e-09
1.05744e-09
9.00648e-10
1.00737e-09
1.12524e-09
7.90036e-10
1.27404e-09
9.44378e-10
1.17065e-09
3.92564e-09
1.25863e-09
8.64932e-10
1.40261e-09
1.17131e-09
7.50453e-10
6.98511e-10
6.14149e-09
4.55114e-09
1.72198e-09
4.51233e-09
3.36316e-09
3.47456e-09
1.7149e-08
7.59565e-09
1.81562e-09
5.67881e-09
3.66926e-09
3.72639e-09
7.99916e-09
7.60615e-09
2.37545e-09
1.63084e-09
8.37853e-09
6.13131e-09
4.90833e-09
9.67033e-09
1.2247e-08
2.0468e-08
3.27315e-10
2.99783e-09
2.61553e-09
1.92734e-09
1.92581e-09
1.99375e-09
1.95253e-09
3.43577e-09
3.45964e-09
2.33383e-09
2.3513e-09
1.35499e-09
7.81385e-10
1.14367e-09
1.08261e-09
1.945e-09
1.18288e-09
1.36029e-09
2.11895e-09
1.21728e-09
7.65126e-10
1.0987e-09
9.93938e-10
9.15341e-10
1.16714e-09
1.9398e-09
1.55847e-09
1.83572e-09
9.69499e-10
1.63427e-09
1.19884e-09
2.66276e-09
1.02098e-09
6.18045e-10
8.3564e-10
7.9248e-10
4.2636e-10
4.2e-10
7.53612e-09
1.24875e-08
1.79733e-09
4.63502e-09
6.55477e-09
2.57818e-09
1.28025e-08
1.17866e-08
1.4465e-09
7.37693e-09
3.77647e-09
5.57418e-09
7.95161e-10
7.3625e-10
1.14271e-09
1.036e-09
8.89184e-10
7.33918e-10
1.33728e-09
1.03611e-09
6.9532e-09
1.39818e-08
1.11068e-08
2.17644e-08
2.98684e-10
5.26791e-09
4.79302e-09
2.18983e-09
2.21597e-09
3.04222e-09
2.92044e-09
2.19615e-09
2.22958e-09
1.291e-09
1.05803e-09
8.79256e-10
1.00098e-09
1.29995e-09
1.35747e-09
1.27803e-09
1.01904e-09
8.98021e-10
1.04133e-09
1.29863e-09
1.44985e-09
8.61132e-10
1.56682e-09
1.59865e-09
1.20437e-09
1.38962e-09
1.22984e-09
8.6362e-10
1.47842e-09
1.27583e-09
8.69678e-10
5.5902e-10
2.9108e-10
2.8882e-10
5.51077e-10
4.26748e-10
4.33103e-10
8.60682e-10
5.71572e-10
7.74342e-10
8.26926e-10
5.32892e-10
7.308e-10
1.0011e-08
1.01302e-08
1.94492e-09
4.0906e-09
5.30877e-09
2.31929e-09
3.8867e-09
4.36162e-09
2.01082e-09
3.43908e-09
6.34867e-09
2.40328e-09
5.61189e-10
1.38748e-09
5.79378e-10
1.48197e-09
2.87207e-10
1.4223e-09
4.71037e-09
3.84723e-09
3.89389e-09
2.41378e-09
2.36584e-09
1.50601e-09
7.92454e-10
1.16949e-09
1.1739e-09
1.77152e-09
1.03413e-09
1.78157e-09
1.95709e-09
1.10278e-09
8.15168e-10
1.28114e-09
1.16639e-09
1.02609e-09
1.98189e-09
9.55707e-10
3.54237e-09
1.04503e-09
1.96179e-09
9.8222e-10
3.52855e-09
8.36116e-10
1.11993e-09
8.42515e-10
1.23241e-09
1.47685e-09
1.01829e-09
6.41988e-10
6.36949e-10
6.30167e-10
6.30954e-10
3.83777e-10
3.86397e-10
3.80056e-10
8.25793e-10
1.26737e-09
8.93581e-10
8.93401e-10
7.45894e-10
3.93988e-10
6.51925e-10
8.17088e-10
3.81992e-10
1.19194e-09
8.03704e-10
8.27267e-10
7.36461e-10
3.9525e-10
6.49989e-10
2.00365e-09
1.04616e-09
2.25879e-09
1.10145e-09
4.76731e-10
1.36921e-09
4.65189e-10
1.32097e-09
2.97088e-10
1.17095e-09
2.61288e-09
1.84546e-09
1.85694e-09
2.71675e-09
1.5068e-09
1.55754e-09
1.64572e-09
1.64712e-09
1.03332e-09
1.66541e-09
1.76216e-09
1.08626e-09
1.60873e-09
1.09404e-09
2.44846e-09
2.04367e-09
1.68524e-09
2.78735e-09
1.30481e-09
2.45392e-09
1.20553e-09
1.71811e-09
1.09745e-09
2.65888e-09
1.19846e-09
1.77014e-09
1.10347e-09
2.93714e-09
2.70724e-09
2.78949e-09
9.26135e-10
7.90568e-10
4.25469e-10
9.76318e-10
8.94289e-10
6.71722e-10
3.90462e-10
9.17538e-10
8.74401e-10
8.04271e-10
4.06593e-10
3.51878e-10
4.90914e-10
1.41999e-09
9.33356e-10
1.36218e-09
4.09862e-10
4.71647e-10
3.50497e-10
1.08472e-09
9.27427e-10
1.26556e-09
1.75883e-09
6.11904e-10
1.86799e-09
6.20939e-10
3.25553e-10
1.81912e-09
9.73306e-10
3.01219e-09
2.99618e-09
1.09051e-09
1.15813e-09
1.24269e-09
1.03702e-09
1.77091e-09
1.15827e-09
2.2396e-09
1.0947e-09
1.31382e-09
1.52897e-09
8.88292e-10
1.15858e-09
1.86471e-09
1.16435e-09
2.56891e-09
1.14778e-09
1.32506e-09
1.98417e-09
9.38256e-10
1.75957e-09
8.37697e-10
2.85597e-09
2.04697e-09
2.01765e-09
3.04559e-09
9.32523e-10
2.18133e-09
2.50129e-09
2.12984e-09
1.3579e-09
9.8981e-10
1.46101e-09
6.15518e-10
5.51109e-10
4.56862e-10
9.6122e-10
4.90497e-10
1.03582e-09
1.00185e-09
8.77493e-10
4.03607e-10
7.74834e-10
2.66302e-09
4.39399e-10
9.82749e-10
4.56176e-10
9.34126e-10
4.84586e-10
1.08929e-09
9.04531e-10
9.10395e-10
4.02907e-10
7.76301e-10
2.10049e-09
4.37352e-10
1.00813e-09
3.95528e-10
4.97256e-10
1.46199e-09
1.5731e-09
3.99135e-10
4.85413e-10
1.40432e-09
1.53561e-09
3.14443e-10
1.6297e-09
1.45037e-09
1.46158e-09
1.23073e-09
2.08288e-09
1.56041e-09
1.24906e-09
2.22087e-09
1.68192e-09
1.20754e-09
1.39778e-09
1.02896e-09
3.31711e-09
8.59745e-10