/*--------------------------------*- C++ -*----------------------------------*\
| =========                 |                                                 |
| \\      /  F ield         | OpenFOAM: The Open Source CFD Toolbox           |
|  \\    /   O peration     | Version:  5.x                                   |
|   \\  /    A nd           | Web:      www.OpenFOAM.org                      |
|    \\/     M anipulation  |                                                 |
\*---------------------------------------------------------------------------*/
FoamFile
{
    version     2.0;
    format      ascii;
    class       volScalarField;
    location    "0.4";
    object      omega;
}
// * * * * * * * * * * * * * * * * * * * * * * * * * * * * * * * * * * * * * //

dimensions      [0 0 -1 0 0 0 0];

internalField   nonuniform List<scalar> 
12160
(
0.0719999
0.0719999
0.00620684
0.0719999
0.00812538
0.00167663
0.0719999
0.00863543
0.00193224
0.00137254
0.0719999
0.00650095
0.00202395
0.00145506
0.00134484
0.0719999
0.00554224
0.00161235
0.00145775
0.00138287
0.00147575
0.0719999
0.00430402
0.00146073
0.00130022
0.00137179
0.00147739
0.0015635
0.0719999
0.00351138
0.00127796
0.00124128
0.00127082
0.00140622
0.0015976
0.00170323
0.0719999
0.00284781
0.00119173
0.00116004
0.00121675
0.0013039
0.00145254
0.00165497
0.00401176
0.0719999
0.0023671
0.0011227
0.00112241
0.0011489
0.00123705
0.00133563
0.00140504
0.00259549
0.00453351
0.0719999
0.00200599
0.00108346
0.00108577
0.00111344
0.00116943
0.00123287
0.00135139
0.00216705
0.00281536
0.00281514
0.0719999
0.00173967
0.0010565
0.00106342
0.00108048
0.00112785
0.00116345
0.00126775
0.00241379
0.00189917
0.0044034
0.00189125
0.0719999
0.00154414
0.00103899
0.00104599
0.00105955
0.00109238
0.00111803
0.00127992
0.00200878
0.00171632
0.00331789
0.00201577
0.00178133
0.0719999
0.00140106
0.00102722
0.00103354
0.00104327
0.00106811
0.00108587
0.0012857
0.00174449
0.00175405
0.00342016
0.00188701
0.00174155
0.0015059
0.0719999
0.00129655
0.00101924
0.00102446
0.00103159
0.0010496
0.00106329
0.00130914
0.00146551
0.00166468
0.00257666
0.0021285
0.00152184
0.0016593
0.00130374
0.0719999
0.0012203
0.00101373
0.00101787
0.00102305
0.00103619
0.00104649
0.0013251
0.0012975
0.00154992
0.00205329
0.00162776
0.00142568
0.00142257
0.00147213
0.0719999
0.00116476
0.00100989
0.00101308
0.00101685
0.0010264
0.00103419
0.00133485
0.00118928
0.00144025
0.00163437
0.00141056
0.00126652
0.00129983
0.00127176
0.0719999
0.0011244
0.00100718
0.0010096
0.00101234
0.00101929
0.00102514
0.00133741
0.00112569
0.00138611
0.00138625
0.00124723
0.00120923
0.00118618
0.00120586
0.0719999
0.00109498
0.00100518
0.00100706
0.00100905
0.00101411
0.00101849
0.0013334
0.00108909
0.00135676
0.00123699
0.00116551
0.00116362
0.0011688
0.0011239
0.0719999
0.00107426
0.00100372
0.00100515
0.00100666
0.00101035
0.00101361
0.00132332
0.00106868
0.00134373
0.00114847
0.00111584
0.00113544
0.00114775
0.00112346
0.0719999
0.00105935
0.00100268
0.00100372
0.00100482
0.0010076
0.00101002
0.00130808
0.00105754
0.00133444
0.00109585
0.0010839
0.00110476
0.00112943
0.00111188
0.0719999
0.00104926
0.00100195
0.00100268
0.00100347
0.00100554
0.00100739
0.00128867
0.00105218
0.00132296
0.00106411
0.00106086
0.00107942
0.00110198
0.00109854
0.0719999
0.00104291
0.00100143
0.00100194
0.00100248
0.00100399
0.0010054
0.00126571
0.00105014
0.00130751
0.00104407
0.00104393
0.00105859
0.00107812
0.00107742
0.0719999
0.00103945
0.00100107
0.00100141
0.00100177
0.00100288
0.00100387
0.00124036
0.00105012
0.00128809
0.00103094
0.00103164
0.00104242
0.00105794
0.00105919
0.0719999
0.00103747
0.00100084
0.00100103
0.00100124
0.00100207
0.00100275
0.0012129
0.00105104
0.00126535
0.0010225
0.00102312
0.00103027
0.00104216
0.0010438
0.0719999
0.00103698
0.00100071
0.00100078
0.00100086
0.00100148
0.00100192
0.00118416
0.00105306
0.00123995
0.00101702
0.00101746
0.00102138
0.00103013
0.00103183
0.0719999
0.00103791
0.00100068
0.00100064
0.0010006
0.00100105
0.00100128
0.0011553
0.00105385
0.00121273
0.00101335
0.00101366
0.00101514
0.00102131
0.00102273
0.0719999
0.00104041
0.00100074
0.00100061
0.00100045
0.00100076
0.00100078
0.00112576
0.00105552
0.00118415
0.00101152
0.00101116
0.00101063
0.00101517
0.00101606
0.0719999
0.00104472
0.00100089
0.00100067
0.00100041
0.00100059
0.00100035
0.00109647
0.00105704
0.00115512
0.00100989
0.00100969
0.00100755
0.00101073
0.00101138
0.0719999
0.00105116
0.00100114
0.00100083
0.00100048
0.00100055
0.0010001
0.00106763
0.00105816
0.00112593
0.00100982
0.00100873
0.0010057
0.00100773
0.00100793
0.0719999
0.00106016
0.00100148
0.00100109
0.00100065
0.00100063
0.00100004
0.00103965
0.00105869
0.00109708
0.00100993
0.00100804
0.00100445
0.00100582
0.00100553
0.0719999
0.00107218
0.00100194
0.00100144
0.00100092
0.00100081
0.00100016
0.00101286
0.0010589
0.00106885
0.0010102
0.00100755
0.00100407
0.00100447
0.00100391
0.0719999
0.00108788
0.00100254
0.00100191
0.00100128
0.0010011
0.00100047
0.00101477
0.00105842
0.00104205
0.00101011
0.0010071
0.00100393
0.00100353
0.0010027
0.0719999
0.00110803
0.00100331
0.00100251
0.00100174
0.0010015
0.00100087
0.00103801
0.00105724
0.00101957
0.00101004
0.00100668
0.00100379
0.00100289
0.00100165
0.0719999
0.00113358
0.0010043
0.00100327
0.00100232
0.00100202
0.00100134
0.00106174
0.00105533
0.00102112
0.0010097
0.00100628
0.00100346
0.00100238
0.00100119
0.0719999
0.00116566
0.00100554
0.00100423
0.00100306
0.00100268
0.00100191
0.0010843
0.00105292
0.00104095
0.00100944
0.00100601
0.00100297
0.00100183
0.001001
0.0719999
0.0012056
0.0010071
0.00100542
0.00100398
0.00100351
0.0010026
0.00110559
0.00105041
0.00106327
0.00100911
0.0010059
0.00100258
0.00100119
0.0010007
0.0719999
0.00125491
0.00100907
0.00100691
0.00100513
0.00100455
0.00100346
0.00112558
0.00104808
0.0010851
0.00100865
0.00100598
0.00100239
0.00100064
0.00100035
0.0719999
0.00131542
0.00101155
0.00100874
0.00100654
0.00100584
0.00100452
0.00114415
0.00104605
0.00110606
0.00100812
0.0010062
0.00100238
0.00100056
0.00100011
0.0719999
0.0013891
0.00101467
0.00101098
0.00100828
0.00100745
0.00100582
0.0011613
0.00104437
0.00112585
0.0010077
0.00100649
0.00100247
0.0010008
0.00100007
0.00148022
0.0719999
0.00101853
0.00101374
0.00101041
0.00100943
0.00100742
0.00117697
0.00104307
0.00114414
0.00100775
0.00100689
0.0010026
0.00100119
0.00100016
0.00102375
0.00165815
0.0719999
0.00101705
0.00101302
0.00101185
0.00100938
0.00119103
0.00104212
0.00116101
0.00100837
0.00100743
0.00100261
0.00100174
0.00100033
0.00102135
0.00103434
0.00202459
0.0719999
0.00101616
0.00101482
0.00101177
0.00120336
0.00104155
0.00117634
0.00100955
0.00100824
0.00100337
0.00100237
0.00100065
0.00102017
0.00102964
0.00105792
0.00255525
0.0719999
0.00101842
0.00101467
0.00121386
0.00104161
0.00119011
0.0010114
0.00100935
0.00100447
0.00100329
0.00100128
0.00102292
0.00102804
0.00104603
0.00109848
0.00330492
0.0719999
0.00101821
0.00122238
0.00104248
0.0012022
0.00101406
0.00101093
0.00100594
0.00100461
0.00100217
0.00102247
0.0010318
0.00104333
0.00107037
0.00116705
0.00437924
0.0719999
0.001229
0.00104436
0.00121263
0.00101758
0.00101299
0.00100788
0.00100619
0.00100319
0.00123303
0.00103114
0.00104925
0.00106572
0.00110472
0.00128797
0.00595248
0.0719999
0.00104781
0.00122125
0.00102208
0.00101568
0.00101035
0.00100816
0.00100438
0.00105692
0.00124257
0.00104757
0.00107425
0.00109635
0.00115422
0.00151426
0.00836652
0.0719999
0.00123123
0.0010281
0.001019
0.00101344
0.00101059
0.00100584
0.00123409
0.0010649
0.00123513
0.00107076
0.00110761
0.00113781
0.00122962
0.0020086
0.0128963
0.0719999
0.00103579
0.00102332
0.00101708
0.00101359
0.00100779
0.00104385
0.00124512
0.00109594
0.00122023
0.00110116
0.0011505
0.00119392
0.00136535
0.00330347
0.0257293
0.0719999
0.0010286
0.00102163
0.00101711
0.00101013
0.00103443
0.00106535
0.00125391
0.00114467
0.00119709
0.00113963
0.00120359
0.00127259
0.00169019
0.00753824
0.0436746
0.0605295
0.00102677
0.00102157
0.00101295
0.00103279
0.00104723
0.00110794
0.00127098
0.00121366
0.00116985
0.00118608
0.0012669
0.00140423
0.00271429
0.016052
0.0431141
0.00191955
0.0568889
0.0010266
0.00101639
0.00103276
0.00104514
0.00106907
0.00117895
0.00129449
0.00128745
0.00114331
0.0012389
0.00134601
0.00167167
0.00553595
0.0225097
0.00224328
0.00137622
0.00161856
0.0568889
0.00102018
0.00102486
0.001045
0.00106474
0.00109623
0.00127957
0.00130941
0.00133975
0.00112224
0.00129723
0.00144172
0.00246445
0.00939494
0.00230339
0.00154244
0.00126887
0.00125006
0.00144894
0.0568889
0.00103405
0.0010641
0.00108676
0.00112937
0.00139993
0.00130503
0.00134785
0.00111364
0.00135247
0.0016782
0.00367267
0.00201016
0.00166286
0.00146718
0.00151194
0.00120537
0.00127618
0.00146228
0.0568889
0.00104837
0.00108508
0.00110735
0.00116867
0.00151363
0.0012868
0.00131262
0.0011409
0.00144721
0.00195072
0.0017645
0.00166735
0.00165759
0.00161342
0.00175642
0.00141315
0.00127551
0.00138014
0.00151058
0.0568889
0.00106449
0.00110329
0.00112303
0.00121349
0.00158879
0.00127596
0.00126176
0.00121615
0.00152421
0.00156326
0.00164284
0.0017211
0.00157621
0.00181819
0.00400309
0.00191408
0.00144576
0.00140206
0.00147306
0.00154913
0.0568889
0.00107896
0.00111474
0.00113318
0.00126045
0.0016135
0.0012989
0.00122979
0.00129544
0.00145756
0.0015358
0.0017264
0.00151324
0.00209891
0.00279014
0.0110402
0.00406509
0.010137
0.0111823
0.0111656
0.00184639
0.00157142
0.00152548
0.00154285
0.00158971
0.0568889
0.00108805
0.00111764
0.00113912
0.00130094
0.00160723
0.00135207
0.00123563
0.00131727
0.00147284
0.00162118
0.00157017
0.00218229
0.00206169
0.0101435
0.0145806
0.0118905
0.00407826
0.0146635
0.0126789
0.0127838
0.0145808
0.0143661
0.0153961
0.00198968
0.00172594
0.00159935
0.00159526
0.0016237
0.0568889
0.00108934
0.00111297
0.00114482
0.00132287
0.00159277
0.0014218
0.00125944
0.00135799
0.00154679
0.00161089
0.00209373
0.00170584
0.00704995
0.0163367
0.0162227
0.0141439
0.013841
0.0142375
0.0210434
0.00415444
0.00858001
0.015086
0.0153609
0.015659
0.0209423
0.0195619
0.0192745
0.00229595
0.00177878
0.00164607
0.00164185
0.00165196
0.0568889
0.00108259
0.00110955
0.00114956
0.00132676
0.00160649
0.00146501
0.00129168
0.00142237
0.00166893
0.00193365
0.00176349
0.00494103
0.0141992
0.0135573
0.0126268
0.0121736
0.0218426
0.0215847
0.0209076
0.0205047
0.0216806
0.0222458
0.0243044
0.0223057
0.024424
0.00474896
0.00948227
0.0209203
0.0214243
0.0207559
0.0213809
0.0220267
0.0209954
0.0217286
0.0221453
0.0244049
0.0223016
0.0244344
0.0221694
0.023457
0.0221436
0.0242734
0.0219511
0.0232736
0.0219002
0.0241817
0.00231844
0.00175801
0.00170128
0.00167537
0.00167207
0.0568889
0.00107611
0.00111259
0.00116889
0.00130562
0.00162896
0.00154288
0.00134709
0.00156795
0.00182983
0.00203658
0.0036731
0.0107333
0.0106075
0.00952353
0.00959996
0.0200086
0.0196776
0.018856
0.0184962
0.0235574
0.0237455
0.021972
0.0234846
0.0217507
0.0220169
0.0236228
0.0234421
0.0217284
0.0233549
0.0214008
0.0218123
0.0229328
0.0208957
0.0232574
0.0212587
0.0227878
0.0205045
0.0231158
0.0208554
0.0227954
0.0242526
0.0226478
0.024219
0.0217615
0.0237351
0.0214827
0.0241686
0.00445866
0.010494
0.020569
0.0207161
0.020922
0.0212965
0.0240347
0.0241842
0.0237916
0.0240746
0.0230941
0.0244426
0.0227923
0.0244728
0.0224257
0.0239355
0.0222996
0.0242321
0.0230289
0.0243895
0.0230186
0.0245678
0.0216431
0.0238226
0.0214257
0.0241843
0.0219845
0.0243697
0.0218105
0.0243151
0.00207372
0.00184238
0.00173879
0.00169302
0.00169083
0.0568889
0.00107682
0.0011337
0.00117855
0.00132793
0.00167381
0.00166255
0.00148509
0.0016811
0.00246547
0.00325537
0.0085084
0.00856691
0.00843406
0.00848623
0.0166699
0.0163413
0.0137087
0.0135992
0.022561
0.0203692
0.0222715
0.0199611
0.0224228
0.0199975
0.0221478
0.0196168
0.0219224
0.0185826
0.0220822
0.0192768
0.0218475
0.0183158
0.0219743
0.0189552
0.0237944
0.022694
0.0200466
0.0220049
0.0224891
0.0199324
0.0237435
0.0225323
0.0218518
0.01972
0.0223409
0.0196575
0.0219279
0.0188052
0.0222481
0.0194765
0.0217308
0.0185564
0.0220831
0.0191922
0.0212016
0.0234536
0.0212688
0.0232751
0.0203754
0.0231037
0.0194112
0.0236017
0.00322793
0.00969494
0.0207884
0.0202877
0.020468
0.0202988
0.0239652
0.023904
0.0240294
0.0240796
0.0244811
0.0240252
0.0243957
0.0237164
0.0245029
0.0240294
0.0244544
0.0238402
0.0233178
0.0234684
0.0217556
0.0240232
0.0229448
0.0221117
0.023445
0.0237575
0.0219095
0.0241345
0.0231383
0.0226251
0.0212913
0.0235812
0.0212675
0.0234382
0.0213571
0.0234186
0.0216745
0.0236022
0.0203701
0.0232259
0.019383
0.0236428
0.0214725
0.0238161
0.0214054
0.0238077
0.00221797
0.00189003
0.00174219
0.00170535
0.00174405
0.0568889
0.00108773
0.00115653
0.00123706
0.00130983
0.00179033
0.00203189
0.00164115
0.00224646
0.00316548
0.00822179
0.0082834
0.0082107
0.00825623
0.01155
0.0116115
0.0105031
0.0105593
0.0215776
0.0176055
0.0209484
0.016967
0.0215253
0.0173865
0.0209589
0.0168608
0.0183325
0.0162042
0.0199197
0.0161838
0.0184447
0.0163217
0.0199711
0.0161999
0.0216382
0.0180255
0.0215277
0.0174764
0.0214481
0.0178202
0.0213798
0.0173034
0.0220552
0.0171781
0.0217083
0.0171972
0.0220021
0.0171016
0.0216049
0.0170657
0.0185254
0.0225257
0.018812
0.0220243
0.00325781
0.00639779
0.0187404
0.0182583
0.0203905
0.0196731
0.0237242
0.0234093
0.0239996
0.0238255
0.0249447
0.0245021
0.0247287
0.0244081
0.0249314
0.0243441
0.0247284
0.02432
0.0244516
0.0240745
0.0245317
0.0242623
0.0244428
0.0240496
0.0245295
0.0242512
0.0228953
0.0208449
0.0232502
0.0213947
0.0227889
0.0205763
0.0231646
0.0210089
0.022446
0.0233618
0.0218645
0.0203043
0.0234505
0.0219261
0.0225919
0.0234853
0.0219616
0.0203834
0.0234481
0.0217652
0.0184451
0.0227307
0.0187481
0.0222532
0.0190398
0.0219145
0.0189795
0.0221063
0.00234889
0.00184172
0.00173575
0.00175281
0.00204757
0.0568889
0.00110731
0.00120132
0.00128022
0.00138736
0.00194565
0.00275032
0.00231954
0.0027328
0.00355543
0.00988917
0.00994236
0.00964973
0.00971752
0.0161692
0.0163207
0.0143199
0.0144527
0.022311
0.0171648
0.0222541
0.0169883
0.0222784
0.0171863
0.0222716
0.0170861
0.0199573
0.0165548
0.0217035
0.016786
0.020068
0.0167267
0.0217655
0.0169417
0.0224991
0.0172981
0.0225098
0.017165
0.00364169
0.00573172
0.01263
0.0128216
0.0142663
0.0141833
0.0209618
0.0205385
0.0224757
0.0218428
0.0245312
0.0247517
0.0249917
0.0247096
0.0242705
0.024275
0.0247574
0.0242617
0.0250239
0.0246564
0.024943
0.0247509
0.0249986
0.0243798
0.0248627
0.0244169
0.0230488
0.021447
0.0225345
0.020937
0.0230496
0.021509
0.0225167
0.0210528
0.02253
0.0205941
0.0223678
0.0205986
0.0224162
0.0204339
0.0222957
0.020578
0.00211203
0.00178181
0.0017705
0.00205145
0.0039494
0.0568889
0.00112652
0.00126669
0.001394
0.00146828
0.00293395
0.00405829
0.00441026
0.00365297
0.0101031
0.0101368
0.0128
0.0128364
0.012644
0.0127704
0.0116331
0.0117288
0.0165539
0.0220225
0.0171124
0.0215816
0.0166567
0.0220577
0.0172152
0.0216127
0.015747
0.0202055
0.0153522
0.0210145
0.0158471
0.0202229
0.0154403
0.0210377
0.022896
0.0174945
0.0231346
0.0176353
0.0229124
0.0174398
0.0231708
0.017641
0.0226303
0.0175849
0.0230182
0.0177363
0.0226871
0.0176577
0.0230683
0.017777
0.00291977
0.00650319
0.01106
0.0192134
0.0195246
0.0193599
0.019443
0.0228847
0.0229785
0.0234436
0.0233907
0.0238187
0.0243774
0.023777
0.0230289
0.0236019
0.0241135
0.0236444
0.0226112
0.0233551
0.0219736
0.0233374
0.0223567
0.0234615
0.0219214
0.0234725
0.0221007
0.0220199
0.0205346
0.0227388
0.0210043
0.00187784
0.00178812
0.00205735
0.00394882
0.0154725
0.0719993
0.00118489
0.00128477
0.00152759
0.00194528
0.00337571
0.00498274
0.0132839
0.0237154
0.0150153
0.0150142
0.0182838
0.0183372
0.0190417
0.0147434
0.0148079
0.0172397
0.019042
0.0148439
0.0148791
0.0172488
0.0151069
0.015094
0.0160508
0.0219293
0.016399
0.021999
0.0160956
0.0219652
0.0164481
0.0220339
0.0158156
0.0217601
0.015746
0.0221267
0.0158533
0.021779
0.0157908
0.022169
0.0219881
0.0167163
0.0220257
0.0167545
0.00219371
0.00501112
0.0121359
0.0175576
0.0171461
0.0179064
0.0184178
0.0201833
0.0204959
0.0221337
0.022241
0.0224082
0.023873
0.0231952
0.0234015
0.0227169
0.0241963
0.0233478
0.0237449
0.0212598
0.0225155
0.0201591
0.022891
0.0218618
0.0229838
0.0210682
0.0233022
0.0223076
0.0200718
0.0218717
0.0202976
0.0228283
0.0211378
0.0225028
0.0211325
0.0214039
0.0200527
0.0210745
0.0197855
0.0223484
0.0206505
0.0219033
0.0206823
0.00180009
0.00205232
0.00393414
0.0154632
0.0719993
0.00120102
0.00140297
0.00173281
0.0046026
0.00497916
0.015709
0.0387992
0.0370946
0.0370741
0.048139
0.0470342
0.0221354
0.0185032
0.0225538
0.0212137
0.0220718
0.0185085
0.0226974
0.0213751
0.0267739
0.0271412
0.0210636
0.0156008
0.015489
0.0192514
0.0210617
0.0156331
0.0154845
0.0192087
0.0230322
0.0175732
0.0237348
0.0172571
0.0228914
0.017498
0.0237623
0.0171809
0.0166113
0.0238722
0.0168559
0.0235728
0.0166083
0.0240216
0.0168386
0.0237396
0.00182334
0.00327904
0.00929841
0.0212999
0.0244421
0.0239251
0.0228913
0.0231397
0.0226764
0.0231289
0.02421
0.0232891
0.023529
0.0239315
0.0245041
0.023375
0.0236306
0.0242019
0.0209911
0.023309
0.0213916
0.0229344
0.0216538
0.0237648
0.0217994
0.023463
0.0205778
0.022481
0.0199803
0.0226232
0.0214654
0.0231152
0.0210738
0.0232223
0.0223287
0.0197443
0.022955
0.0209327
0.00202508
0.00387871
0.0153945
0.0719993
0.00133135
0.00136008
0.00162777
0.00632411
0.0316997
0.048994
0.054332
0.053221
0.0619807
0.0621287
0.0529795
0.053531
0.0761249
0.074148
0.0257355
0.021796
0.025756
0.024224
0.0259614
0.0220153
0.0260751
0.0245682
0.031452
0.0370825
0.0377553
0.032931
0.03219
0.0378008
0.0385153
0.0337435
0.0241801
0.017166
0.0173455
0.0242032
0.0242899
0.0171218
0.0172698
0.0242947
0.025764
0.0202952
0.0254036
0.0192996
0.0259799
0.0203937
0.0256406
0.0193379
0.00197129
0.00201626
0.00616387
0.0169373
0.0305693
0.0305651
0.0291764
0.0293822
0.0276658
0.0277808
0.025563
0.0243623
0.0258802
0.0249489
0.0258469
0.0245005
0.0260646
0.0249705
0.0248428
0.0237328
0.0245267
0.0232972
0.0239984
0.0239613
0.0252534
0.024122
0.0248705
0.0235894
0.0243653
0.0242181
0.0239172
0.0223451
0.024288
0.0225456
0.0215797
0.0226566
0.0211475
0.0230736
0.02226
0.0230883
0.0215672
0.0235919
0.00375707
0.0151997
0.0719993
0.00128031
0.00162379
0.00282693
0.0234526
0.0445023
0.112706
0.080131
0.0759628
0.0862703
0.0860512
0.0544512
0.0434382
0.0556913
0.0581258
0.061939
0.0442477
0.0444463
0.0558189
0.0453367
0.0569506
0.0597171
0.0629903
0.0841403
0.0832782
0.0841227
0.0832595
0.0832226
0.0823345
0.083342
0.0823961
0.0303036
0.0253464
0.031242
0.0279863
0.0309688
0.0258682
0.0319706
0.0286692
0.0369128
0.0389889
0.038017
0.0400962
0.0186193
0.0250878
0.0186278
0.0253161
0.02976
0.0231957
0.0302965
0.0234981
0.00355585
0.00195102
0.00299174
0.012202
0.0250403
0.0240391
0.0307627
0.0303484
0.0314439
0.0319146
0.0292219
0.0299978
0.0249848
0.027768
0.0279664
0.0265684
0.0266575
0.0261904
0.0262605
0.0283961
0.0285092
0.0272459
0.026468
0.0263095
0.025147
0.0235616
0.0254489
0.0236219
0.0242563
0.0225304
0.0239546
0.0239524
0.0220529
0.022982
0.0247259
0.022758
0.0244253
0.0242968
0.0223752
0.0231815
0.023629
0.0218361
0.0239812
0.0220233
0.0148066
0.0719993
0.00131602
0.00139407
0.00917387
0.022781
0.0628018
0.127154
0.128115
0.150727
0.161587
0.105508
0.104384
0.106214
0.106258
0.0478995
0.0553191
0.0570725
0.0482909
0.0594346
0.0618157
0.0491175
0.0570366
0.0496541
0.0586814
0.0613175
0.0635959
0.0864664
0.0867814
0.0812941
0.0846112
0.0878484
0.0874309
0.0832087
0.0858354
0.0358955
0.0319064
0.0368597
0.032853
0.0141729
0.00331403
0.00221794
0.0063241
0.0225581
0.0303146
0.0299583
0.0314209
0.0313129
0.0322365
0.0336282
0.0308389
0.0310138
0.0324016
0.0336631
0.0315559
0.0318131
0.0276946
0.0264667
0.0248492
0.0284336
0.0270984
0.0260813
0.0287677
0.0275803
0.0267113
0.0294618
0.0286185
0.0276956
0.0228924
0.0233528
0.0256716
0.0255984
0.0246388
0.0245818
0.0265233
0.0260755
0.0247104
0.0224946
0.0250952
0.0233828
0.0242807
0.0221399
0.0235668
0.0217821
0.0242255
0.0229364
0.0241448
0.022225
0.0719993
0.00122102
0.00372031
0.0105724
0.023715
0.119939
0.146937
0.149191
0.169624
0.184244
0.109292
0.11132
0.100271
0.122501
0.118318
0.106098
0.109437
0.11461
0.128042
0.130176
0.0930991
0.0881731
0.0837069
0.0846927
0.0917456
0.0944096
0.0857624
0.0881021
0.0719993
0.0133429
0.00317324
0.00356311
0.0136768
0.0297992
0.0296829
0.0347991
0.034561
0.029948
0.0298366
0.0317144
0.0318512
0.0319272
0.0333778
0.0301258
0.0294944
0.0321028
0.033531
0.0306732
0.0302806
0.0272625
0.0275764
0.0237144
0.0241933
0.0279442
0.0252137
0.0282851
0.0284218
0.0258822
0.0255432
0.0288689
0.0267248
0.0223242
0.0254907
0.0239629
0.0259864
0.00156603
0.00310802
0.00487384
0.0371019
0.211207
0.24338
0.190012
0.197422
0.173042
0.181091
0.209486
0.241653
0.150937
0.158254
0.133711
0.155595
0.178488
0.139769
0.193874
0.145899
0.153214
0.147478
0.166547
0.164498
0.156343
0.154929
0.172144
0.191531
0.128521
0.107371
0.114161
0.162874
0.0719979
0.0124112
0.00346034
0.00808086
0.0262389
0.0373189
0.0377517
0.0362863
0.0370108
0.0336561
0.0346225
0.0345671
0.0323888
0.0333998
0.0331328
0.0350009
0.0330927
0.0335252
0.0338245
0.0305794
0.0284141
0.0293023
0.0267541
0.032085
0.0304591
0.0313147
0.0298985
0.00255119
0.00309941
0.00695333
0.0705464
0.252732
0.287593
0.218175
0.200961
0.176361
0.157112
0.199008
0.195023
0.190091
0.197054
0.179627
0.162729
0.230519
0.210941
0.207046
0.221359
0.272047
0.363625
0.193504
0.21032
0.174727
0.204964
0.277341
0.250926
0.282817
0.233095
0.172712
0.163636
0.17706
0.180356
0.0719922
0.011399
0.0050786
0.0164231
0.0331611
0.0330941
0.0330988
0.0331203
0.0364545
0.037265
0.036594
0.0373493
0.0340439
0.0343563
0.0325768
0.028699
0.0316262
0.0306758
0.0351814
0.0354353
0.0339898
0.0304861
0.03337
0.0329925
0.0302642
0.0285049
0.0323711
0.0310324
0.0284092
0.0268611
0.0310701
0.0301493
0.00206253
0.00306316
0.0112083
0.162667
0.145044
0.0977053
0.0888297
0.341236
0.390592
0.275398
0.279897
0.189893
0.160959
0.227556
0.213223
0.19978
0.228895
0.19497
0.165806
0.3013
0.250057
0.225561
0.330008
0.294519
0.339586
0.288978
0.316681
0.454235
0.470013
0.513228
0.466921
0.0719775
0.0105137
0.0104387
0.0294393
0.0404004
0.0403116
0.0375236
0.0379884
0.0382528
0.0389412
0.0337896
0.0343893
0.0383278
0.0356212
0.0338398
0.0378236
0.0389353
0.0364858
0.0346514
0.0384613
0.0350322
0.0357068
0.0313839
0.0320242
0.0281611
0.0272267
0.0325189
0.0335363
0.0299628
0.0293859
0.0311853
0.0266044
0.0328203
0.0288411
0.00205977
0.00263829
0.00662732
0.156035
0.143292
0.100095
0.0966532
0.379143
0.4027
0.321414
0.353495
0.367832
0.283837
0.469633
0.504876
0.332767
0.416723
0.39263
0.315152
0.260604
0.250755
0.274333
0.254378
0.391122
0.481947
0.386461
0.401354
0.617801
0.572725
0.0719467
0.0103618
0.0217225
0.0453919
0.0453317
0.0458351
0.0455324
0.0405788
0.0401491
0.0438408
0.0438973
0.0413751
0.0411309
0.0393738
0.0390219
0.0395176
0.0399951
0.0417228
0.0399116
0.0407132
0.0416327
0.0396153
0.0392967
0.0330657
0.0292463
0.0361338
0.0363278
0.0365958
0.0342992
0.0367537
0.0305824
0.00174958
0.00493561
0.00593635
0.165446
0.161342
0.101658
0.100883
0.464363
0.444656
0.315487
0.33339
0.359736
0.267408
0.536106
0.473863
0.299571
0.303901
0.319351
0.256079
0.202806
0.243223
0.240284
0.275677
0.20052
0.2411
0.234041
0.272456
0.450443
0.455528
0.570163
0.530274
0.0718876
0.0132863
0.0401961
0.0510069
0.0513446
0.0467071
0.0463584
0.0488075
0.0491679
0.0432499
0.0437259
0.046896
0.0454622
0.0444027
0.047454
0.0432301
0.0438386
0.0470406
0.04544
0.0444142
0.0474548
0.0406209
0.0363109
0.0387832
0.035154
0.0365054
0.034705
0.0403394
0.0384985
0.00303245
0.0039976
0.157526
0.119187
0.118661
0.156434
0.117088
0.118005
0.241162
0.192453
0.260659
0.23645
0.191147
0.255696
0.496877
0.479751
0.304441
0.411374
0.393364
0.278321
0.309766
0.320474
0.296682
0.321273
0.338461
0.256615
0.234605
0.276735
0.232306
0.269956
0.0717744
0.0252557
0.0579663
0.053562
0.0534055
0.0539499
0.053395
0.0537351
0.0527699
0.0525768
0.0510356
0.0492849
0.0501556
0.0536717
0.0494076
0.0504913
0.0531817
0.0525783
0.0514506
0.0426728
0.040844
0.0467775
0.0436905
0.0426367
0.0407778
0.0467911
0.0437093
0.0394965
0.0363598
0.0393988
0.0362219
0.00188825
0.0244606
0.219564
0.234163
0.217508
0.233017
0.149206
0.14973
0.285345
0.258772
0.491186
0.247805
0.363706
0.345291
0.2578
0.296183
0.254573
0.282059
0.475709
0.244657
0.355905
0.341238
0.255551
0.293722
0.291622
0.263413
0.283479
0.256156
0.272116
0.331146
0.269306
0.316389
0.0715405
0.0483369
0.0818223
0.0616281
0.0617169
0.08099
0.073567
0.0748028
0.0585162
0.0543147
0.0557977
0.0587288
0.0541987
0.055465
0.0502495
0.05059
0.0486992
0.0480081
0.0503706
0.0487618
0.0508116
0.0492545
0.0439002
0.0411646
0.0478105
0.0434879
0.0439017
0.0411254
0.0480487
0.0440781
0.00137626
0.133132
0.35536
0.363824
0.260824
0.401799
0.349209
0.351954
0.262046
0.389376
0.275328
0.264001
0.304885
0.317179
0.274603
0.419145
0.381714
0.40731
0.301333
0.271366
0.317581
0.387935
0.377199
0.391402
0.321593
0.277274
0.309709
0.273355
0.0711729
0.077097
0.0851879
0.0598344
0.0598773
0.0901423
0.0705973
0.0733644
0.0573713
0.0542353
0.0579408
0.0537129
0.0579191
0.0564811
0.0608459
0.0613448
0.0577842
0.0548961
0.0583735
0.0542848
0.058527
0.0567273
0.0607007
0.0614815
0.0480592
0.0485556
0.0426843
0.0435487
0.0482593
0.0439339
0.0496314
0.0452071
0.00268956
0.408443
0.418365
0.359298
0.342816
0.178712
0.168945
0.432106
0.54436
0.397213
0.526976
0.365883
0.44989
0.453463
0.493279
0.739033
0.464406
0.496452
0.423462
0.545628
0.390566
0.531903
0.362031
0.441639
0.446487
0.487624
0.663061
0.456065
0.486269
0.326127
0.391042
0.406631
0.531729
0.32548
0.387065
0.39418
0.531339
0.0706553
0.107658
0.0799832
0.0613996
0.0623792
0.0624809
0.0632659
0.0622393
0.0621756
0.0854193
0.0708717
0.0759993
0.0529406
0.0597496
0.0487305
0.0490842
0.0444632
0.0598387
0.0540278
0.0596583
0.0498665
0.0456236
0.0496176
0.0596236
0.0452976
0.0383889
0.0469457
0.0407994
0.00627548
0.929908
0.4096
0.706502
0.340575
0.167577
0.160631
0.409082
0.482053
0.518843
0.544772
0.53999
0.538385
0.945329
0.748603
1.30519
0.748458
0.846369
1.40769
0.949533
1.1742
0.40293
0.475594
0.550537
0.514695
0.532869
0.529749
0.686427
0.78452
1.23086
0.686771
0.796656
1.21713
0.748282
0.997692
0.0704379
0.193157
0.0920159
0.0970593
0.195727
0.145319
0.135726
0.059937
0.0624394
0.0553633
0.0482652
0.0612267
0.0583243
0.0559988
0.0465777
0.0631842
0.0642008
0.056275
0.0501255
0.0623351
0.0621201
0.0590724
0.0515782
0.0746755
0.0619585
0.0642476
0.0790238
0.0678454
0.0701575
0.058164
0.058225
0.0536942
0.0560778
0.0586601
0.0584358
0.0554861
0.0567117
0.0033169
1.29541
1.40911
1.03618
0.404979
0.997124
1.18663
0.81428
0.336563
0.160684
0.152928
0.542247
0.537961
0.771293
0.826769
1.06517
1.41327
0.768687
1.17639
1.44949
1.77013
0.535869
0.530231
0.719999
0.784685
0.926879
0.714326
1.12294
1.1096
1.32869
1.52639
0.0701625
0.227321
0.0933852
0.0938294
0.206724
0.0878246
0.0914743
0.0559806
0.0539106
0.0463351
0.0427471
0.0563547
0.0470925
0.0567854
0.0564791
0.0481867
0.0473594
0.059634
0.0526923
0.0743093
0.0602743
0.0548642
0.0602763
0.059163
0.0670464
0.0820974
0.0805099
0.0759093
0.0633243
0.0596399
0.0656417
0.0663443
0.071536
0.0845864
0.0851157
0.00252372
0.157591
0.152798
1.44543
1.71263
1.32737
1.9036
1.30203
0.331945
1.11799
1.47293
1.06672
1.63704
1.04672
0.310278
1.02416
1.67573
1.90954
1.39652
1.78806
2.15472
0.905412
1.45045
1.52696
1.28826
1.65841
1.87904
0.0691821
0.211699
0.103842
0.0938534
0.0913349
0.102897
0.0955078
0.0928133
0.178418
0.0491362
0.0616285
0.0551917
0.0444142
0.0581113
0.0478786
0.0586852
0.0495531
0.0612745
0.0532189
0.0646973
0.0789997
0.0597553
0.0526188
0.0486482
0.0730008
0.0661691
0.0807722
0.0625963
0.0538715
0.057238
0.0756744
0.00235628
0.160314
0.163613
0.149786
0.147692
1.30166
2.19892
1.43372
2.10293
1.50784
2.51044
2.57904
0.324956
0.913885
1.77701
1.15342
1.78347
1.12445
2.00499
2.27167
0.294653
2.51904
2.30941
2.35579
2.28816
0.0685184
0.194112
0.17522
0.0959031
0.106192
0.101149
0.110253
0.0997157
0.0958458
0.106273
0.0984524
0.109749
0.100404
0.0877666
0.0893388
0.0670517
0.0590107
0.092628
0.0562958
0.0496825
0.102076
0.0682796
0.0631191
0.0952501
0.0550225
0.0588838
0.101454
0.00160124
0.175468
0.177759
0.167272
0.171736
0.327017
0.279827
0.970984
2.83857
1.69863
2.55366
2.02971
3.75722
3.37509
3.13121
4.60657
3.4461
2.84347
0.799449
2.09514
0.958018
1.75229
0.946456
3.28413
2.69033
2.7217
3.67588
3.42325
2.86308
0.0685231
0.167473
0.153729
0.164659
0.148557
0.0884963
0.100639
0.100076
0.102334
0.098522
0.0935315
0.107676
0.0899435
0.101262
0.0978356
0.102585
0.0988876
0.0875049
0.100572
0.0844738
0.0852979
0.0683816
0.0641641
0.0681517
0.0607709
0.00290241
0.179956
0.168434
0.177341
0.166329
0.344993
0.34499
0.30774
0.317776
0.91308
0.740269
1.45491
1.11801
1.76642
1.01186
6.03472
7.09227
5.4701
8.04626
4.91171
5.25646
3.6932
7.33166
1.307
0.881156
1.39593
0.850012
5.80236
5.88486
4.72689
7.76773
4.61201
5.20474
3.68882
7.48578
0.0691927
0.154592
0.167728
0.149107
0.164345
0.060584
0.074503
0.091811
0.0941972
0.0871666
0.0916429
0.0928431
0.098205
0.100253
0.103239
0.0998671
0.0653089
0.0670492
0.096354
0.0950022
0.0905759
0.0933939
0.0943204
0.098762
0.0954104
0.103451
0.0997254
0.0609873
0.0572693
0.00179666
0.159356
0.164193
0.157533
0.15814
0.343438
0.324016
0.328007
0.311446
0.915479
0.813914
0.695624
0.693845
1.25984
0.941489
1.2242
0.935419
1.18282
0.772795
1.12544
0.777525
1.90642
2.04847
3.25207
1.18397
1.80325
1.71885
2.95966
1.01151
0.0701706
0.193516
0.215128
0.172719
0.179443
0.0608469
0.0832385
0.0751369
0.0853395
0.0931328
0.0965756
0.0858564
0.0775721
0.079559
0.0799365
0.0915828
0.0820658
0.0847956
0.0906135
0.0980074
0.0854151
0.0977734
0.0944948
0.0941454
0.084263
0.0873882
0.0876952
0.0913436
0.0846594
0.0877747
0.0916289
0.0983109
0.0820876
0.0967734
0.0920785
0.106374
0.0014364
0.314116
0.323898
0.301882
0.301464
0.697134
0.676974
0.637436
0.629043
1.27469
0.956999
1.34844
0.968555
1.21378
0.854513
1.19748
0.876462
1.10616
0.739244
1.12628
0.744071