/*--------------------------------*- C++ -*----------------------------------*\
| =========                 |                                                 |
| \\      /  F ield         | OpenFOAM: The Open Source CFD Toolbox           |
|  \\    /   O peration     | Version:  5.x                                   |
|   \\  /    A nd           | Web:      www.OpenFOAM.org                      |
|    \\/     M anipulation  |                                                 |
\*---------------------------------------------------------------------------*/
FoamFile
{
    version     2.0;
    format      ascii;
    class       volScalarField;
    location    "0.4";
    object      p;
}
// * * * * * * * * * * * * * * * * * * * * * * * * * * * * * * * * * * * * * //

dimensions      [1 -1 -2 0 0 0 0];

internalField   nonuniform List<scalar> 
12160
(
5370.29
5329.67
4716.44
5289.98
4676.45
4064.59
5243.49
4636.99
4025.51
3411.19
5192.85
4589.96
3986.03
3374.62
2759.84
5142.59
4538.68
3937.33
3335.72
2726.85
2106.13
5096.49
4487.82
3884.48
3284.74
2688.16
2080.35
1452.62
5056.12
4441.38
3832.29
3229.73
2633.49
2042.64
1437.76
793.661
5022.41
4400.86
3785.11
3175.69
2575.2
1982.76
1399.65
799.776
240.294
4994.93
4367.17
3744.32
3127.51
2518.39
1919.9
1333
762.338
275.567
6.3061
4973.07
4339.8
3710.67
3086.38
2468.82
1859.31
1264.58
684.75
250.067
25.7519
-6.75689
4955.92
4318.08
3683.51
3052.84
2427.2
1808.01
1199.83
607.74
194.218
21.9238
-6.76469
-7.44627
4942.64
4301.08
3662.09
3026.04
2393.81
1765.9
1146.99
536.149
142.589
11.0661
-6.7536
-7.66677
-8.14489
4932.43
4287.94
3645.41
3005.08
2367.49
1732.84
1104.64
480.231
100.424
2.06412
-6.8076
-7.69122
-8.27712
-8.81305
4924.65
4277.87
3632.56
2988.88
2347.15
1707.28
1072.13
436.988
70.8787
-2.63706
-6.80761
-7.6342
-8.278
-8.88706
-9.48219
4918.74
4270.19
3622.75
2976.49
2331.58
1687.83
1047.41
405.076
49.5203
-4.7278
-6.79659
-7.53239
-8.24857
-8.89227
-9.50335
4914.27
4264.38
3615.29
2967.07
2319.78
1673.17
1028.89
381.747
34.2398
-5.55125
-6.7871
-7.48108
-8.18635
-8.87009
-9.50167
4910.92
4259.99
3609.66
2959.95
2310.88
1662.19
1015.1
364.917
23.2187
-5.88527
-6.77844
-7.46109
-8.14982
-8.83668
-9.4957
4908.41
4256.69
3605.41
2954.59
2304.2
1654
1004.9
352.839
15.2699
-6.02709
-6.7775
-7.45209
-8.13421
-8.81517
-9.48571
4906.57
4254.23
3602.23
2950.56
2299.19
1647.91
997.362
344.193
9.53605
-6.0958
-6.78599
-7.4516
-8.12697
-8.80536
-9.47869
4905.23
4252.42
3599.87
2947.55
2295.46
1643.38
991.808
338.005
5.40057
-6.13468
-6.79898
-7.45834
-8.12627
-8.80071
-9.47533
4904.31
4251.11
3598.12
2945.32
2292.68
1640.03
987.719
333.57
2.41713
-6.1585
-6.81299
-7.46824
-8.13069
-8.80012
-9.47371
4903.71
4250.2
3596.86
2943.68
2290.62
1637.55
984.712
330.384
0.2633
-6.17395
-6.82553
-7.47872
-8.1374
-8.80259
-9.47346
4903.41
4249.62
3595.99
2942.5
2289.11
1635.72
982.503
328.093
-1.29315
-6.18444
-6.83564
-7.48826
-8.14464
-8.80647
-9.47424
4903.35
4249.32
3595.44
2941.68
2288.03
1634.39
980.886
326.442
-2.41851
-6.19187
-6.84338
-7.4961
-8.15132
-8.81071
-9.47549
4903.54
4249.27
3595.14
2941.16
2287.28
1633.44
979.714
325.254
-3.23169
-6.19721
-6.84913
-7.50221
-8.15687
-8.81467
-9.47688
4903.97
4249.45
3595.09
2940.88
2286.8
1632.78
978.879
324.406
-3.81858
-6.20094
-6.8533
-7.50683
-8.16123
-8.818
-9.47818
4904.65
4249.87
3595.26
2940.83
2286.55
1632.36
978.303
323.809
-4.2385
-6.20312
-6.85612
-7.51023
-8.16454
-8.82064
-9.47929
4905.62
4250.54
3595.66
2940.99
2286.5
1632.13
977.934
323.399
-4.53356
-6.20408
-6.85772
-7.51259
-8.16697
-8.82265
-9.48017
4906.89
4251.48
3596.3
2941.36
2286.64
1632.08
977.736
323.135
-4.73465
-6.20411
-6.85816
-7.514
-8.16863
-8.82415
-9.48085
4908.53
4252.73
3597.2
2941.95
2286.97
1632.2
977.688
322.989
-4.86321
-6.20342
-6.85766
-7.51458
-8.16961
-8.82517
-9.48135
4910.59
4254.33
3598.4
2942.79
2287.5
1632.48
977.78
322.945
-4.93368
-6.20256
-6.85649
-7.5145
-8.16999
-8.82578
-9.4817
4913.12
4256.35
3599.93
2943.9
2288.26
1632.93
978.014
322.995
-4.95474
-6.20185
-6.85521
-7.51397
-8.16989
-8.82602
-9.4819
4916.21
4258.83
3601.86
2945.33
2289.26
1633.58
978.398
323.141
-4.93036
-6.2016
-6.85422
-7.51334
-8.16951
-8.82598
-9.48198
4919.95
4261.86
3604.25
2947.14
2290.57
1634.46
978.95
323.389
-4.85991
-6.2018
-6.85386
-7.51285
-8.16907
-8.82577
-9.48197
4924.41
4265.53
3607.16
2949.38
2292.21
1635.59
979.695
323.751
-4.73943
-6.20229
-6.85411
-7.51267
-8.16873
-8.82552
-9.48191
4929.71
4269.91
3610.69
2952.12
2294.25
1637.02
980.665
324.248
-4.56175
-6.20275
-6.85484
-7.51277
-8.1686
-8.82533
-9.48184
4935.95
4275.13
3614.92
2955.44
2296.76
1638.81
981.905
324.905
-4.31691
-6.20292
-6.8557
-7.51308
-8.16867
-8.82525
-9.48178
4943.24
4281.27
3619.96
2959.44
2299.82
1641.02
983.463
325.759
-3.99176
-6.20261
-6.85637
-7.51339
-8.16888
-8.82528
-9.48176
4951.69
4288.45
3625.91
2964.22
2303.52
1643.73
985.401
326.852
-3.56981
-6.2017
-6.85662
-7.51355
-8.1691
-8.82538
-9.48176
4296.79
4967.68
3632.89
2969.89
2307.95
1647.03
987.791
328.236
-3.03175
-6.20006
-6.85622
-7.51343
-8.16923
-8.82549
-9.48179
3641.01
4312.6
4997.2
2976.55
2313.24
1651
990.717
329.975
-2.35229
-6.19743
-6.85507
-7.51288
-8.16918
-8.82555
-9.48182
2984.34
3656.44
4341.88
5033.52
2319.49
1655.77
994.275
332.147
-1.50112
-6.19375
-6.85309
-7.51181
-8.16882
-8.8255
-9.48184
2326.84
2999.2
3685.2
4378.03
5075.38
1661.46
998.573
334.843
-0.442739
-6.189
-6.85027
-7.51014
-8.16808
-8.82527
-9.48182
1668.19
2340.94
3027.15
3721
4419.92
5120.72
1003.73
338.17
0.864475
-6.18308
-6.84655
-7.50779
-8.1669
-8.82481
-9.48174
1009.9
1681.24
2367.83
3062.39
3762.88
4465.62
5166.27
342.255
2.46867
-6.1758
-6.84188
-7.50475
-8.16523
-8.82408
-9.48158
347.245
1021.95
1706.56
2402.29
3104.17
3809.11
4512.38
5205.25
4.42574
-6.16685
-6.83624
-7.50099
-8.16304
-8.82305
-9.48133
6.79944
357.314
1045.75
1739.8
2443.91
3151.02
3857.22
4557.14
5224.56
-6.15569
-6.82959
-7.4965
-8.16034
-8.82171
-9.48098
-6.14146
11.5512
378.22
1077.66
1780.92
2491.48
3200.69
3904.27
4599.51
5278.24
-6.82197
-7.49128
-8.15711
-8.82006
-9.48053
-6.8134
-6.11184
21.3125
407.94
1118.05
1829.11
2542.93
3250.63
3948.31
4644.36
5033.73
-7.48542
-8.1534
-8.81811
-9.47997
-7.479
-6.79893
-6.03526
35.1395
447.642
1166.49
1882.44
2595.7
3299.18
3996.52
4635.19
5368.96
-8.14926
-8.81589
-9.47932
-8.1448
-7.46807
-6.77851
-5.86536
53.9088
497.456
1221.38
1938.2
2647.76
3348.71
4011.23
4747.66
5474.5
6162.12
-8.81343
-9.47858
-8.8108
-8.13719
-7.45314
-6.7675
-5.43961
78.4691
555.849
1279.89
1993.55
2698.48
3387.54
4094.66
4781.91
5499.69
6211.15
6938.86
-9.47777
-9.47691
-8.80631
-8.12706
-7.44492
-6.77244
-4.39869
109.316
619.521
1338.61
2046.32
2741.99
3433.98
4112.28
4801.32
5490.37
6225.51
6960.33
7705.38
-9.47543
-8.80044
-8.12161
-7.44786
-6.78462
-2.17759
145.968
684.128
1394.33
2090.3
2775.86
3445.99
4122.24
4780.68
5469.9
6218.95
6967.08
7714.28
8465.96
-9.47353
-8.79735
-8.12362
-7.45873
-6.79107
1.77774
186.471
745.067
1441.04
2121.92
2785.78
3451.09
4090.93
4756.1
5384.24
6198.66
6960.63
7716.75
8469.54
9221.69
-9.47255
-8.79858
-8.13138
-7.47323
-6.78585
7.73948
227.526
796.445
1473.63
2132.82
2787.54
3418.1
4060.48
4668
5331.49
6133.25
6941.67
7712.31
8471.6
9223.78
9971.85
-9.47297
-8.80329
-8.14291
-7.4953
-6.75968
15.4043
264.03
832.39
1487.52
2133.6
2756.53
3376.23
3970.78
4616.66
4091.28
6087.25
4116.07
3774.57
3790.71
6892.2
7696.25
8470.64
9226.26
9974.2
10716.5
-9.47456
-8.81063
-8.16032
-7.53515
-6.70117
23.6951
290.298
851.283
1490.02
2106.93
2710.48
3292.21
3892.51
4347.35
4413.62
4093.68
6868.02
4444.4
4670.78
4701.51
4080.08
3770.7
3746.11
7658.95
8461.16
9228.13
9978.38
10719.8
11454.2
-9.47711
-8.82156
-8.18883
-7.58762
-6.59372
30.6416
305.881
857.697
1469.2
2062.33
2628.38
3182.81
3673.53
3527.66
3499.82
3221.76
3200.66
4443.84
4111.14
7643.14
6822.82
4444.88
4739.03
4755.65
4067.31
3844.08
3798.67
8444.69
9226.71
9983.24
10726.1
11458.5
12183.7
-9.48092
-8.8385
-8.22495
-7.64478
-6.4702
35.3795
312.294
843.708
1429.67
1983.88
2507.23
2995.76
2917.25
2903.99
2608.84
2604.31
3372.77
3364.95
3134.62
3127.28
4409.9
3442.22
3403
3552.72
3291.06
8434.58
7532.2
5278.62
5277.67
4968.84
4965.61
4374.93
4687.58
4671.03
3431.42
3398.88
3546.53
3279
3289.35
3033.7
3204.96
3169.09
3279.44
3032.81
3200.49
3156.23
9226.37
9987.91
10735
11467.3
12189
12904
-9.48648
-8.85956
-8.26456
-7.69126
-6.37991
37.6355
305.966
810.688
1358.52
1865.99
2323
2311.93
2309.99
2016.16
2015.49
2838.74
2836.57
2555.43
2552.45
2848.64
3022.33
3010.52
2693.82
2842.8
3058.46
3021.76
2842.09
3004.29
2692.21
2840.65
3055.62
2459.93
2595.06
2574.79
2713.9
2464.61
2596.49
2577.39
2714.96
3779.38
3512.91
3656.42
3642.78
3486.87
3530.89
3662.94
3371.78
9244.39
8302.49
5870.04
5861.67
5570.32
5564.28
5233.32
5221.75
4840.21
4827.84
3774.63
3508.45
3651.24
3633.74
3926.36
3744.41
4023.08
3752.95
3922.08
3745.14
4021.63
3745.61
3480.9
3529.12
3658.55
3365.17
3245.07
3193.61
3236.37
3182.41
9995.83
10746
11480.3
12199.7
12910
13614.2
-9.49329
-8.88236
-8.30008
-7.72709
-6.38532
36.1846
286.762
749.105
1253.41
1685.91
1735.88
1737.41
1495.04
1498.59
2266.35
2263.27
1995.66
1993.01
2344.25
2475.24
2227.53
2355.19
2353.23
2479.06
2241.52
2360.92
1995.7
2095.29
2114.55
2227.49
2012.83
2103.22
2128.2
2233.9
3042.77
2865.15
3087.64
3168.15
2768.16
2965.6
3034.2
2861.93
3160.38
3081.14
2763.83
2956.96
2557
2725.17
2669.99
2847.31
2556.72
2720.45
2666.46
2840.31
3938.96
3662.21
3803.39
3789.67
3475.39
3545.03
3627.36
3394.39
10010.1
9259.64
6532.75
6519.39
6194.32
6180.99
5807.51
5796.33
5507.32
5496.52
4349.91
4555.76
4224.7
4422.61
4364.7
4563.78
4241.39
4435.32
3997.3
3855.22
4123.63
4089.97
4267.46
4138.88
3999.42
3852.32
4126.16
4100.37
4274.36
4140.42
3934.16
3661.34
3799.09
3785.32
4081.92
3890.21
4077.93
3881.19
3468.62
3533.9
3620.18
3380.13
3320.75
3223.89
3315.96
3213.77
10758.6
11497.9
12215.9
12922.2
13620.8
14313.7
-9.50049
-8.90209
-8.33224
-7.75562
-6.55926
30.5771
252.179
660.169
1096.56
1260.67
1263.48
1038.14
1039.07
1728.18
1725.08
1453.63
1453.03
1892.24
1984.8
1782.88
1871.3
1905.3
1992.2
1796.13
1878.48
1608.02
1719.9
1703.06
1775.15
1614.23
1720.98
1710.39
1778.39
2438.6
2601.03
2323.6
2478.56
2441.61
2598.42
2327.31
2476.45
2105.03
2215.32
2216.63
2353.95
2112.23
2215.77
2218.89
2351.75
3911.47
3677.44
3771.41
3800.91
10766.8
10008
7226.02
7209.67
6888.2
6867.5
6490.89
6484.06
6154.17
6141.43
4792.45
4999.36
4677.18
4883.61
4818.4
5008.98
4696.43
4893.22
4459.45
4665.91
4559.74
4772.22
4475.35
4673.39
4580.42
4779.88
4476.94
4729.05
4344.75
4582.57
4484.91
4726.89
4351.21
4582.43
3970.56
4081.51
4263.87
4128.62
4211.15
4417.1
3964.82
4080.83
4264.96
4121.96
4214.88
4419.56
3904.91
3668.64
3764.52
3791.18
4057.36
3908.12
4049.93
3900.46
11519.5
12238.1
12940.7
13634.1
14320.7
15002.2
-9.50656
-8.91845
-8.35776
-7.78119
-6.86341
19.4279
205.335
537.784
874.814
1187.06
1187.55
925.232
925.265
1683.2
1679.55
1418.64
1413
1975.09
2063.7
1848.87
1912.78
1979.71
2065.53
1852.38
1914.6
1587.08
1610.11
1727.63
1749.04
1591.12
1611.09
1730.47
1750.08
2094.55
2197.87
2099.09
2196.49
11537.6
10746.7
7763.82
7784.57
7563.53
7563.22
7197.09
7174.48
6899.14
6883.46
5260.7
5625.66
5252.71
5512.11
5282.46
5631.87
5272.72
5517.35
4938.37
5127.07
5087.26
5294.95
4961.98
5137.49
5117.05
5305.03
4999.37
5159.24
4882.95
5088.13
4985.64
5149.04
4868.06
5077.69
4607.2
4858.7
4742.35
4988.8
4612.59
4857.09
4740.93
4986.11
12265.8
12965.9
13654.3
14334.8
15009.4
15679.3
-9.51148
-8.93096
-8.36566
-7.79787
-7.04824
4.91251
139.161
363.495
661.61
659.61
439.143
438.882
1160.36
1151.8
897.692
893.908
1375.25
1427.36
1485.71
1311.68
1375.33
1426.92
1486.29
1311.06
1271.84
1099.28
1158.92
1209.25
1270.93
1099.66
1157.75
1206.88
1989.16
2074.14
1869.35
1932.65
1990.96
2073.49
1871.2
1932.76
1579.67
1611.71
1735.28
1777.4
1583.48
1613.28
1736.67
1778.09
12297.1
11552
10717.7
7687.05
7687.26
7452.87
7433.28
7066.17
7058.99
6596.36
6596.22
5393.25
5736.55
5470.46
5746.23
5391.82
5725.13
5467.74
5732.15
5160.28
5322.96
5326.52
5518.13
5151.88
5315.97
5322.5
5505.06
5015.83
5186.21
5023.11
5185.5
12997.8
13681.7
14356.1
15024
15686.7
16344.9
-9.515
-8.9377
-8.36877
-7.79176
-7.07376
-4.03135
56.3054
200.481
616.642
611.047
366.915
364.985
1014.33
1056.49
979.033
915.557
1010.14
1053.44
974.193
908.1
871.384
862.436
1432.57
1441.32
1544.28
1344.89
1431.51
1441.31
1543.91
1343.4
1304.45
1108.15
1163.18
1235.11
1303.93
1109.18
1162.75
1235.34
1555.31
1662.67
1557.69
1662.59
13037.1
12338.8
11592.7
8339.26
8339.07
8175.95
8156.67
7794.03
7786.14
7509.49
7477.84
6077.94
5916.61
6178.15
5829.62
6071.98
5937.97
6180.56
5829.08
5944.34
5580.65
5812.32
5694.06
5941.81
5588.65
5814.51
5695.52
5557.32
5745.55
5489.01
5665.96
5562.51
5750.15
5485.6
5669.21
5189.82
5348.47
5351.52
5506.84
5189.2
5345.24
5352.43
5509.46
13716.6
14384.9
15045.9
15701.5
16352.3
-9.518
-8.94242
-8.35252
-7.76041
-7.29295
-5.94362
3.12872
145.881
145.924
45.8955
45.7765
522.428
552.954
407.625
446.115
522.904
552.965
409.813
446.899
312.949
311.84
1001.26
1024.21
910.972
893.691
999.267
1022.71
908.305
886.702
624.285
661.193
744.725
774.166
625.392
661.545
745.197
773.872
1299.15
1123.04
1181.6
1222.29
1297.73
1124
1180.02
1224.44
13760.3
13088.8
12414.6
11668.4
8345.32
8329.07
7980.19
7969.91
7563.86
7540.89
6050.44
6327.95
6403.03
6047.87
6059.46
6327.52
6401.28
6040.76
6145.57
6051.31
6236.42
5941.06
6149.58
6054.01
6233.7
5945.54
6055.61
5712.84
5903.51
5834.37
6059.61
5718.99
5911.22
5833.81
5585.92
5742.95
5592.68
5751.73
14421.6
15075.6
15723.9
16367.3
-9.52001
-8.9356
-8.34081
-7.90081
-7.25563
-6.43602
-1.92066
-2.02605
-5.42561
-5.43823
111.14
111.447
22.8279
23.1649
506.302
527.445
401.948
407.761
510.182
528.646
405.213
408.725
289.42
192.144
200.921
286.068
289.943
192.995
201.169
287.426
1012.9
1045.77
890.15
874.943
1009
1043.67
888.514
871.328
621.678
663.356
734.861
787.329
626.348
663.546
734.845
786.845
14467.6
13816
13167.1
12520.7
9113.35
9104.91
8677.99
8675.28
8058.11
8071.35
6520.02
6803.06
6481.02
6890.84
6543.31
6811.89
6512.23
6902.41
6382.15
6619.68
6321.58
6489.09
6107.92
6427.48
6408.62
6623.48
6325.69
6484.75
6100.11
6422.2
6168.6
6404.94
6159.49
6397.54
6076.67
6022.41
6145.19
5894.37
6078.37
6025.12
6136.67
5895.37
15113.4
15754.1
16389.8
-9.5214
-8.92891
-8.40202
-7.63747
-7.50234
-8.1447
-0.715737
-0.79172
-4.99926
-5.05613
107.642
194.169
109.057
48.66
51.1409
191.542
195.317
107.271
191.883
109.243
48.1246
51.108
7.40654
7.31046
18.9871
18.6527
7.42161
7.38716
18.9122
18.5822
500.308
525.076
392.456
397.431
502.149
526.016
394.603
398.636
276.739
267.507
276.572
267.902
904.893
851.154
903.601
849.757
611.042
656.065
613.396
657.701
15160.1
14524.4
13887.7
13299
9819.04
9817.51
9489.23
9472.03
8867.77
8865.6
8382.68
8382.66
7091.66
6686.82
7155.84
6795.88
6962.88
6575.87
7086.3
6736.51
7170.55
6807.96
6955.09
6575.96
6718.67
6998.38
6704.28
6981.59
6583.55
6787.36
6479.62
6325.06
6662.24
6469.91
6580.58
6773.17
6460.05
6317.1
6646.92
6465.65
6209.92
6364.34
6203.94
6354.96
15792.5
16420.2
-9.52056
-8.95238
-8.32908
-7.79737
-7.15707
-4.99966
-5.05576
-5.25867
-5.2951
1.17508
1.17235
-3.25009
-3.30543
169.792
89.3423
85.7582
169.853
44.5132
44.4498
170.602
87.4236
169.564
86.1282
42.6629
44.4977
7.66084
7.62565
19.4337
19.8392
7.77492
7.89749
19.0752
19.9098
357.673
383.257
359.574
383.471
15839.6
15216.4
14589.8
13978.5
13322.1
9527
9532.3
9311
9294.49
7445.38
7926.39
7421.2
7791.87
7467.69
7927.14
7436.76
7796.27
7048.49
6841.03
7381.02
7241.26
7583
7305.79
7069.98
6852.27
7387.22
7263.15
7588.47
7305.3
7353.31
7043.95
6995.55
6855.93
7359.32
7044.84
6999.03
6857.13
6764.31
6975.17
6761.18
6968.65
6619.01
6827.12
6380.61
6538.84
6629.15
6817.17
6374.1
6535.15
16458.8
-9.53432
-8.8593
-8.35193
-7.67704
-6.65577
-4.06731
-4.04099
-4.41879
-4.42574
-0.508352
2.37947
2.01566
-0.160678
-0.482201
2.23606
2.43513
-0.0981916
-3.01422
-2.92493
7.10186
6.09631
18.6281
17.7001
6.86845
7.13328
18.2186
18.6107
16506
15896
15282.3
14666.6
14060.7
10489.6
10486.1
9919.55
9929.08
9670.35
9678.11
9115.99
9105.7
7509.63
7885.11
7601.47
7933.61
7479.59
7858.63
7557.66
7890.71
6952.41
7241.16
7224.93
7498.86
7480.5
7753.18
6976.99
7228.93
7493.71
7236.2
7442.34
7730.07
7083.69
6875.57
7093.04
6889.23
-9.52189
-8.90964
-8.21306
-7.33086
-4.59002
-4.58035
-5.07313
-5.07839
-3.90049
-3.8353
-3.99627
-3.95815
-2.69236
-1.12989
-1.18616
-2.53443
-2.71031
-0.59024
-1.07119
-2.13193
-3.23518
-3.55599
-3.19502
-3.26125
-3.30452
-3.55581
-3.27348
-3.27969
2.06342
1.94757
2.38648
2.54169
16562.1
15961.9
15356.9
14752.8
14081.4
10193
10194.9
9922.13
9903.37
9551.71
9507.4
8120.5
7745.85
8110.65
7656.19
8109.61
7716.65
8085.83
7639.11
7676.98
7848.44
7578.85
7808.93
7651.16
7816.63
7555.05
7777.5
-9.52277
-8.83377
-8.05744
-7.25351
-4.39821
-4.40435
-4.89919
-4.90117
-3.30937
-3.46687
-3.39112
-3.0916
-3.20435
-3.13599
-3.33137
-3.4795
-3.35443
-2.93537
-3.13743
-3.05144
-4.10229
-4.1447
-2.86952
-2.37077
-2.56521
-2.7954
-2.81901
-2.20374
-2.46603
-2.69622
-3.21683
-3.27916
-3.25203
-3.30079
16627.5
16038.3
15440.6
14885
10859.7
10883.4
10382
10408.7
10179.3
10193.2
9876.36
9834.15
8021.49
8587.14
8022.87
8437.46
7714.3
8225.58
8038.73
8584.66
8032.43
8434.89
7706.09
8213.84
7821.88
8234.92
7806.75
8202.08
7685.08
7919.45
7687.35
7903.2
-9.48737
-8.76109
-7.98734
-5.29724
-5.28688
-5.6816
-5.68333
-4.55523
-4.54085
-4.86771
-4.85806
-3.16769
-3.26115
-3.2208
-3.01133
-3.12197
-3.04084
-3.10559
-3.24549
-3.21844
-2.88871
-3.07678
-2.99395
-3.44428
-3.74496
-3.30058
-3.43544
-3.49607
-3.77574
-3.33183
-3.46329
16702.6
16122.6
15533.9
14853.9
10702.7
10708.8
10367.9
10362.7
10058
10038.3
8203.75
8766.37
8750.05
8124.4
8466.41
8240.27
8732.62
8124.21
8465.83
8216.11
8190.81
8757.18
8193.77
7841.68
8665.59
8128.63
8181.98
7857.48
8660.38
8131.88
7766.39
8081.42
7779.14
8079.13
-9.47163
-8.72413
-7.98679
-5.27425
-5.25665
-5.66603
-5.65726
-3.45515
-3.70259
-4.18908
-3.63158
-3.87375
-3.89054
-3.47977
-3.71634
-4.17791
-3.69188
-3.88954
-3.87146
-5.04024
-5.00864
-3.22365
-3.1103
-3.23897
-3.11761
-3.18995
-3.41011
-3.19104
-3.4157
16786.8
16212.3
15602.6
11509.3
11536.2
10995.6
11040.6
10889
10886.4
10417.2
10389.7
8455.5
8918.81
8488.55
8837.41
8309.32
8786.57
8461.08
8286.32
8772.36
8924.08
8481.1
8828.4
8194.44
8458.62
8421.4
8919.7
8411.05
8195.59
8904.54
8455.5
-9.45179
-8.73156
-7.95933
-5.26101
-5.24094
-5.62627
-5.61912
-3.51763
-3.63458
-4.07889
-3.58551
-3.8058
-3.8883
-3.5712
-3.64728
-4.07566
-3.66477
-3.83018
-3.88453
-4.24616
-4.50229
-4.10796
-4.31214
-4.21901
-4.48284
-4.12084
-4.31156
-3.33352
-3.48495
-3.38796
-3.50496
16878.8
16312.5
15646
11481.1
11495.5
11080
11085.4
10565.5
10584.7
8430.82
8871.16
9150.03
8671.21
8948.81
8693.26
8449.47
8884.94
9153.47
8675.89
8957.22
8696.7
8614.96
8555.86
9105.37
8871.07
8533.02
8844.18
8593.74
9083.67
-9.45466
-8.73671
-5.88092
-5.54872
-5.54309
-5.88029
-6.24105
-6.24853
-5.0998
-4.26661
-4.44404
-5.09499
-4.24689
-4.43468
-3.46349
-3.64434
-3.93647
-3.61619
-3.7592
-3.82217
-3.48828
-3.63744
-3.94079
-3.59954
-3.76522
-3.83675
-4.09021
-4.25141
-4.08295
-4.24497
16980.2
16459.9
15844.4
11535.1
11524.6
11073.6
11077.2
8887.94
9389.04
8944.94
9208.33
8690.54
9090.31
8927.89
8691.75
9090.65
9410.04
8938.32
9208.57
8679.84
8953.06
8727.18
8975.17
8693.85
8960.25
8730.88
8979.81
8623.77
9031.27
8610.22
9015.24
-9.45975
-8.74804
-5.52761
-5.84192
-5.52365
-5.83824
-6.16998
-6.17728
-4.42858
-4.33476
-4.35803
-4.26144
-4.37554
-4.56138
-4.39847
-4.66943
-4.32847
-4.42119
-4.35551
-4.25443
-4.37038
-4.55792
-4.40012
-4.66532
-3.92461
-3.79097
-3.92051
-3.77912
-4.12884
-4.20815
-4.1058
-4.2123
17111.5
16634.8
12315.2
11541.8
11508.7
12336.1
11886.7
11906.7
10609.3
8969.32
9423.58
10641.6
8997.8
9439.01
9014.36
9152.25
9183.91
9466.09
9013.66
9172.09
9147.86
9462.91
8666.27
8921.87
8826.12
9127.2
8669.62
8923.31
8835.66
9116.78
-9.48679
-8.74392
-5.40372
-4.68913
-4.52683
-5.90119
-5.39807
-4.6858
-4.51853
-5.88609
-6.21323
-6.22036
-4.34253
-4.46814
-4.20381
-4.30481
-4.38202
-4.58596
-4.33732
-4.18592
-4.45244
-4.29352
-4.37755
-4.57252
-3.97368
-3.90274
-3.97224
-3.88326
17293.4
16767.5
12350.3
11457.5
11453.1
12358.7
11902.3
11916.5
9125.52
8908.11
9316.49
8935.68
9363.24
9411.01
9200.78
9764.99
9160.23
8933.17
9327.51
8963.94
9372.01
9436.73
9247.75
9780.81
9132.43
9120.5
9311.59
9422.18
9122.15
9299.68
9130.37
9437.49
-9.49293
-6.43117
-6.16002
-6.16694
-6.45933
-6.84841
-6.86742
-4.65646
-4.64597
-4.58251
-4.58202
-4.53644
-4.94064
-4.64194
-4.78073
-5.76432
-4.76482
-4.94082
-4.6702
-4.63749
-4.57953
-4.57908
-4.52558
-4.94231
-4.64168
-4.78148
-5.76732
-4.7716
-4.9433
-4.27324
-4.48475
-4.42399
-4.60994
-4.271
-4.46953
-4.4195
-4.59834
17497.8
16970.7
12397.4
11235
9689.72
9227.73
11259.7
9705.09
9250.21
12373.1
11838.4
11873.6
9057.27
9241.58
9046.3
9258.1
9365.64
9518.8
9076.76
9237.38
9062.65
9384.84
9262.84
9513.56
9104.14
9298.56
9102.28
9299.05
-9.50496
-6.18634
-6.415
-6.18536
-6.43645
-6.80658
-6.82086
-4.50486
-4.61065
-4.63589
-4.5925
-4.75191
-4.85085
-5.02777
-4.9122
-4.91292
-4.77823
-4.86726
-5.26326
-5.17652
-5.4667
-4.49928
-4.60854
-4.59172
-4.63577
-4.74631
-4.85023
-4.90628
-5.02186
-4.91163
-4.78727
-4.86977
-5.25644
-5.15586
-5.44981
17712
12993.1
12370.4
12329
13035.8
12689.8
12687.1
9533.47
9503.87
9188.44
9680.29
9122.91
10177.2
9519.12
9954.15
9599.98
9500.93
9202.1
9681.37
9126.21
10193.6
9553.19
9964.95
11482.6
9611.33
10143.6
11485.1
9673.08
10172.6
9202.59
9303.49
9464.86
9733.06
9229.39
9287.59
9477.83
9724.54
-9.50638
-6.19968
-5.36761
-5.17111
-6.39344
-6.17982
-5.34897
-5.13945
-6.41472
-6.76159
-6.77819
-4.57506
-4.72477
-4.82595
-4.87088
-4.84267
-4.92345
-4.928
-4.97845
-4.89954
-5.12314
-4.56993
-4.72227
-4.81723
-4.87175
-4.83333
-4.92012
-4.89986
-4.97673
-4.89247
-5.11578
17692.8
12959.5
12318
12290.1
13011.7
12659
12659
9233.39
9405.94
9620.03
9678.57
9655.63
9985.92
9234.38
9435.29
9618.86
9686.45
9641.43
9977.12
9691.04
9626.12
10117.6
9590.84
10071.8
10073.4
9838.88
10419.4
9765.67
9656.41
10136.9
9641.92
10092.3
10107.4
9883.94
10428.8
-9.51215
-6.73271
-6.75182
-6.17264
-5.34028
-5.11097
-5.31802
-5.15626
-6.37139
-6.1589
-5.32015
-5.09503
-5.30315
-5.12949
-6.39393
-4.80838
-4.78952
-4.87049
-4.88124
-4.92186
-5.04877
-4.8029
-4.75605
-4.85094
-4.87478
-4.89961
-5.03586
17821.1
12952.9
12250.7
10314.4
9884.03
12205.9
10318.3
9893.12
12985
12687.3
12679.9
9394.96
9643.07
9525.4
9885.06
9422.46
9640.83
9519.96
9868.88
9794.86
9984.83
9585.12
9983.29
9916.78
10265.3
9839.82
9976.02
9589.52
9931.32
10000.9
10265.1
-9.51491
-6.7291
-6.72031
-6.75048
-6.74032
-6.12938
-5.25983
-5.06163
-5.29113
-5.0208
-4.79482
-4.99008
-6.39731
-6.1182
-5.25327
-5.06243
-5.28316
-5.02165
-4.78609
-4.9833
-6.41218
-4.80912
-4.93147
-4.77916
-4.91457
17836.8
12893.5
12909.2
12310.9
10192.1
9858.99
10188
9868.58
12264
10195.5
9862
10189.1
9875.28
12647.3
12625
9889.24
9614.33
10030
10089.2
9800.4
10250.8
9938.18
9617.52
10039.8
9811.97
10102.4
10266.6
-9.53237
-6.72893
-6.72553
-6.74825
-6.74643
-6.39448
-6.40754
-6.11559
-5.18346
-4.89529
-5.16789
-4.91033
-4.93918
-4.73165
-4.94738
-4.70361
-4.7098
-4.86984
-6.10753
-5.17582
-4.9137
-5.17104
-4.91139
-4.9319
-4.73329
-4.94353
-4.69814
-4.70463
-4.86347
17836.4
12929.4
12885.6
12941.5
12920
12195.7
10053.9
9832.75
10146.3
9765.05
10062.3
10329.2
12149.8
10045.9
9850.72
10146.4
9774.69
10073.4
10345.6
12697.7
12677.9
9954.22
10197.1
9996.27
10211.5
-9.51217
-6.73452
-6.76723
-6.75581
-6.78452
-6.40784
-6.41282
-6.42315
-6.42435
-6.10738
-6.09509
-5.25142
-5.04687
-5.23581
-5.0652
-4.93244
-4.66975
-4.9481
-4.64979
-4.88104
-4.66198
-4.84705
-4.68778
-5.25854
-5.0602
-5.2407
-5.08349
-4.91752
-4.65744
-4.94102
-4.60293
-4.8649
-4.65478
-4.83703
-4.65701
17824.1
12884.6
12930.9
12917.9
12945.6
12705.3
12687.2
12131.9
10077.2
9759.43
10149.6
9734.34
9993.52
9976.81
10195
9849.94
9969.59
10203.1
12088.5
10049.5
9746.58
10124.7
9732.53
10016
9997.29
10208.2
9899.87
9995.41
10199.1
-9.4926
-6.82138
-6.85926
-6.83239
-6.87572
-6.41878
-6.43687
-6.43067
-6.44967
-6.12861
-6.10027
-6.11152
-6.09215
-5.27851
-5.10742
-5.31059
-5.08995
-5.28577
-5.14975
-5.31967
-5.113
-5.05697
-4.94494
-5.10909
-4.88672
-5.07159
-4.95099
-5.10975
-4.91128
17697.2
12899
12956.6
12915.7
12988
12704.2
12697.1
12686
12678.7
12140.6
12085.1
10431.6
9858.27
10325.7
9970.12
10103.7
9884.26
10217
9860.97
10016.8
9909.85
10152.5
9803.07
10414.9
9849.06
10315.6
9946.9
9966.48
9832.57
10154.7
9786.53
10013.6
9933.11
10167.3
9832.9
-8.7427
-9.48253
-6.4375
-6.45195
-6.45174
-6.47021
-6.10234
-6.14188
-6.09354
-6.13101
-5.30513
-5.04677
-5.29155
-5.08433
-5.29992
-5.11974
-5.27877
-5.11942
-5.31871
-5.14766
-5.31989
-5.13922
-5.3037
-5.12617
-5.27766
-5.13426
-5.07364
-4.83254
-5.06561
-4.90351
-5.08466
-4.93583
-5.10469
-4.92503
17723.8
12960.8
13002.5
13011.8
13033.2
12647.4
12685.4
12628.9
12680
12142.1
12140.4
12086
12097.9
10458.8
10040.3
10507.7
10012.6
10400
10005.1
10481.7
9951.59
10428.7
9965.1
10290.8
10044.9
10426
9928.17
10255.4
10034.8
-8.75494
-6.12385
-6.20503
-6.12525
-6.21214
-9.44892
-6.1766
-6.17676
-6.16244
-6.1709
-5.24814
-5.1133
-5.2639
-5.10216
-5.27469
-5.16579
-5.31654
-5.12508
-5.24427
-5.1171
-5.25727
-5.10618
-5.26913
-5.16284
-5.31023
-5.1257
-5.08081
-4.78567
-5.04822
-4.83492
-5.13584
-4.95117
-5.12102
-4.94366
-5.11885
-4.91998
-5.10904
-4.9177
-5.14101
-4.9645
-5.13051
-4.94442
17503.7
16979.4
12656.2
12693.4
12658.5
12675.7
12207.1
12321.2
12168.6
12273.3
10449.9
10040.7
10503.9
10007.4
10424.9
9848.73
10315.4
9967.72
10386.7
10003.2
10474.1
9942.85
10407.6
9844.65
10307.9
9945.11
10503.5
10115.6
10535
10085.9
10517.1
10112.9
10536.4
10077
-8.73304
-6.17639
-6.23882
-6.18277
-6.24597
-5.76406
-5.85421
-5.75974
-5.84323
-9.4398
-5.29386
-5.1555
-5.32536
-5.11006
-5.32384
-5.15396
-5.45375
-5.09679
-5.28646
-5.14655
-5.31677
-5.10485
-5.31738
-5.14303
-5.44205
-5.09027
-5.09555
-4.9623
-5.11826
-4.98336
-5.07909
-4.98267
-5.09471
-4.9924
-5.10723
-4.98477
-5.13133
-5.00781
-5.08354
-4.98906
-5.09473
-5.0051
17299.7
16770.5
12374.3
12399.8
12328.2
12377.3
12258.9
12314.2
12206.2
12294.9
10073.9
9739.12
10110.3
9735.56
10058
9834.91
10148.1
9767.31
10054.9
9732.04
10094.9
9746.71
10055.2
9847.17
10145.4
9783.82
10503
10115.5
10538.8
10084.3
10430.2
9956.53
10274.7
10047.7
10515.3
10114.4
10544.6
10074.3
10429.9
9926.09
10242.6
10038.1
-7.94662
-8.71565
-5.83847
-5.8689
-5.83404
-5.86797
-4.80083
-4.88918
-4.8484
-4.75091
-4.8459
-5.12979
-4.69265
-4.96678
-4.69949
-4.86425
-4.81432
-4.89547
-4.85184
-4.76005
-4.84998
-5.13164
-4.70309
-4.96853
-4.7089
-4.86879
-9.43816
-4.94228
-4.83221
-4.9997
-4.77273
-4.94391
-4.71051
-4.94562
-4.85201
-5.0051
-4.7806
-4.9549
-4.73763
-4.88279
-4.71265
-4.85976
-4.72315
-4.89111
-4.7415
-4.8653
-4.74999
17116.9
16641.2
12351.8
12319.7
12362.5
12343.1
11468.2
11844.6
11484.7
11879.6
10201.8
9866.24
10196
9875.28
10318.3
9832.44
10417.4
9882.92
10200
9862.94
10191.5
9879.31
10327.7
9889.06
10435.2
9899.22
10141.6
9882.4
10208
9881.47
10010.9
9987.58
10197
9868.87
10008.9
9837.12
10138.2
9833.12
10032.8
9989.06
10208.5
9900.75
-7.96677
-5.54661
-5.60463
-5.53643
-5.60351
-8.69537
-5.41628
-5.50102
-5.40953
-5.49331
-4.68391
-4.74862
-4.77574
-4.8483
-4.78477
-4.88142
-4.63084
-4.78378
-4.68686
-4.80473
-4.69678
-4.74471
-4.78095
-4.84972
-4.77477
-4.88207
-4.62746
-4.7845
-4.67728
-4.80353
-9.44243
-4.73218
-4.63779
-4.79779
-4.58015
-4.68344
-4.47747
-4.73589
-4.65779
-4.8038
-4.59232
-4.68723
-4.5047
16985.4
16464.9
15852.6
11902.9
11898.9
11917.9
11912.3
9637.96
9702.96
10145
9600.67
10079.2
10070.6
9536.11
10179.2
9615.57
10145.7
9716.14
9707.6
10166
9658.38
10103.7
10092.2
9601.9
10195.7
9681.44
10176.8
10256.3
10072.9
10343.1
10032.5
10270.3
9991.13
10273.8
10077.9
10352.9
10046.8
10269.5
9977.38
10033.9
9927.98
10149.6
9823.8
10033.9
9929.82
10165.5
9840.91
-7.95238
-5.63462
-5.64924
-5.63714
-5.65782
-5.12502
-5.23077
-5.11805
-5.22007
-8.68973
-4.61788
-4.56482
-4.57902
-4.50686
-4.69042
-4.43741
-4.69855
-4.51687
-4.6119
-4.56067
-4.57709
-4.4947
-4.68499
-4.44115
-4.69748
-4.5066
-4.58324
-4.73356
-4.55546
-4.61255
-4.49323
-4.65287
-4.58118
-4.73198
-4.54734
-4.60979
-4.47621
-4.64593
-9.46044
16884.9
16317.1
15651.3
11542
11536
11506.6
11527.9
11244.8
11483.8
11266.3
11472.4
9783.39
9618.58
9941.97
9989.01
9532.21
9896.36
9528.46
9966.55
9671.25
9998.61
9870.52
9616.95
10019.1
9956.36
9526.49
9879.83
9558.08
9976.8
9660.17
9992.22
10211.1
9991.26
10215.4
9965.03
10096.9
9896.65
10220.2
9997.57
10206.7
9996.58
10112.1
9928.17
-7.22896
-7.93548
-5.28112
-5.27731
-5.26643
-5.27725
-4.31541
-4.43847
-4.3299
-4.24475
-4.36087
-4.5991
-4.22172
-4.4704
-4.26251
-4.44073
-4.32113
-4.43282
-4.33658
-4.24713
-4.36219
-4.59869
-4.21852
-4.465
-4.25908
-4.44096
-8.77218
-4.60491
-4.47509
-4.54528
-4.46716
-4.57894
-4.43668
-4.59214
-4.4609
-4.54011
-4.44667
-4.57022
-4.41879
-9.50591
16793
16218.5
15606.8
11481.3
11508.4
11499.4
11538
10613.8
11074.5
10641.9
11080.8
9515.05
9201.07
9693.49
9138.51
9694.11
9205.59
9772.05
9234.77
9508.21
9210.41
9688.81
9137.81
9713.43
9250.74
9785.76
9264.07
9613.09
9810.3
9420.6
9695.2
9412.9
9658.21
9663.17
9831.29
9442.33
9699.64
9438.64
9657.85
-7.27493
-4.94658
-5.04986
-4.95083
-5.06007
-8.09135
-4.95687
-4.90321
-4.93483
-4.89984
-4.30998
-4.21094
-4.3582
-4.33023
-4.1628
-4.26881
-4.19517
-4.3334
-4.1697
-4.2958
-4.31255
-4.20738
-4.36126
-4.33557
-4.15297
-4.26506
-4.18189
-4.32981
-4.15287
-4.28759
-8.90254
-4.38636
-4.23085
-4.38391
-4.23029
-9.50565
16708.8
16128.8
15540.2
14855.7
11087.2
11002.9
11094
11049.9
8910.48
9114.19
9325.03
8936.39
9365.37
9390.38
8891.79
9391.6
8964.62
9415.9
9146.26
8935.31
9332.61
8960.86
9372.01
9414.86
8929.78
9411.35
8988.83
9430.11
9730.42
9234.13
9620.32
9308.15
9487.49
9223.57
9720.1
9230.85
9619.81
9286.97
9468.08
9217.65
-6.67213
-7.4476
-4.48348
-4.61577
-4.481
-4.61494
-8.37389
-4.17908
-4.0341
-4.14609
-3.93268
-4.52941
-4.17279
-4.01465
-4.13858