/*--------------------------------*- C++ -*----------------------------------*\
| =========                 |                                                 |
| \\      /  F ield         | OpenFOAM: The Open Source CFD Toolbox           |
|  \\    /   O peration     | Version:  5.x                                   |
|   \\  /    A nd           | Web:      www.OpenFOAM.org                      |
|    \\/     M anipulation  |                                                 |
\*---------------------------------------------------------------------------*/
FoamFile
{
    version     2.0;
    format      ascii;
    class       volScalarField;
    location    "0.4";
    object      p_rgh;
}
// * * * * * * * * * * * * * * * * * * * * * * * * * * * * * * * * * * * * * //

dimensions      [1 -1 -2 0 0 0 0];

internalField   nonuniform List<scalar> 
12160
(
5697.29
5656.67
5697.44
5616.98
5657.45
5699.59
5570.49
5617.99
5660.51
5700.19
5519.85
5570.96
5621.03
5663.62
5702.84
5469.59
5519.68
5572.32
5624.72
5669.85
5703.13
5423.49
5468.82
5519.48
5573.74
5631.16
5677.35
5703.62
5383.12
5422.37
5467.29
5518.73
5576.49
5639.63
5688.76
5698.66
5349.41
5381.86
5420.11
5464.69
5518.2
5579.75
5650.66
5704.78
3975.4
5321.93
5348.17
5379.32
5416.52
5461.39
5516.89
5584
5667.34
4093.41
244.291
5300.07
5320.8
5345.67
5375.39
5411.82
5456.31
5515.58
5589.75
3724.21
634.542
0.89302
5282.92
5299.07
5318.51
5341.84
5370.2
5405.01
5450.84
5512.74
3022.72
556.601
6.7567
0.0752096
5269.64
5282.08
5297.09
5315.05
5336.81
5362.89
5397.99
5441.15
2380.43
342.677
7.76758
-0.142578
0.0301142
5259.43
5268.94
5280.4
5294.08
5310.49
5329.84
5355.64
5385.23
1782.11
163.81
4.35542
-0.16301
-0.102117
0.0159541
5251.65
5258.87
5267.56
5277.88
5290.15
5304.27
5323.13
5341.99
1325.27
69.6909
1.09369
-0.109204
-0.103003
-0.0580623
0.00081254
5245.74
5251.19
5257.75
5265.49
5274.58
5284.83
5298.42
5310.08
970.391
27.6252
0.268335
-0.0109495
-0.0735698
-0.0632697
-0.020347
5241.27
5245.38
5250.29
5256.07
5262.78
5270.17
5279.89
5286.75
707.182
10.8401
0.111752
0.0399428
-0.0113518
-0.0410884
-0.0186721
5237.92
5240.98
5244.66
5248.95
5253.88
5259.19
5266.11
5269.92
513.431
4.18946
0.0934083
0.0599063
0.0251792
-0.0076814
-0.0127024
5235.41
5237.69
5240.41
5243.59
5247.2
5251
5255.9
5257.84
372.357
1.66201
0.0901932
0.0689107
0.0407916
0.01383
-0.00271392
5233.57
5235.23
5237.23
5239.56
5242.19
5244.91
5248.36
5249.19
270.111
0.684014
0.0811107
0.0694025
0.0480327
0.0236441
0.00430767
5232.23
5233.42
5234.86
5236.56
5238.46
5240.38
5242.81
5243
196.201
0.299131
0.0680344
0.0626579
0.0487287
0.0282883
0.00766772
5231.31
5232.11
5233.12
5234.32
5235.68
5237.03
5238.72
5238.57
142.82
0.142253
0.0540136
0.0527576
0.044308
0.02888
0.00928828
5230.71
5231.2
5231.86
5232.68
5233.62
5234.55
5235.71
5235.38
104.261
0.0749753
0.0414737
0.0422779
0.0375997
0.026406
0.00953419
5230.41
5230.62
5230.99
5231.5
5232.12
5232.72
5233.5
5233.09
76.3889
0.0438386
0.0313623
0.0327392
0.0303572
0.0225322
0.00875857
5230.35
5230.32
5230.43
5230.68
5231.03
5231.39
5231.89
5231.44
56.2291
0.0279884
0.0236226
0.0248941
0.0236843
0.0182852
0.0075087
5230.54
5230.26
5230.14
5230.16
5230.28
5230.44
5230.72
5230.25
41.6515
0.0190496
0.0178695
0.0187895
0.0181304
0.0143324
0.0061202
5230.97
5230.45
5230.09
5229.88
5229.8
5229.78
5229.88
5229.41
31.1191
0.0137389
0.013702
0.0141713
0.013768
0.0110044
0.00481687
5231.65
5230.87
5230.26
5229.83
5229.55
5229.36
5229.3
5228.81
23.5666
0.0107931
0.0108803
0.0107655
0.0104624
0.00836421
0.00371022
5232.62
5231.53
5230.66
5229.99
5229.5
5229.13
5228.94
5228.4
18.2285
0.00946359
0.00927609
0.00840877
0.00803358
0.006346
0.00282605
5233.89
5232.48
5231.3
5230.36
5229.64
5229.08
5228.74
5228.13
14.5579
0.00922856
0.00884042
0.00699803
0.00637139
0.00485464
0.00214652
5235.53
5233.73
5232.2
5230.95
5229.97
5229.2
5228.69
5227.99
12.1872
0.00981263
0.00934317
0.00641435
0.00538753
0.00382902
0.00164391
5237.59
5235.33
5233.39
5231.79
5230.5
5229.48
5228.78
5227.94
10.8752
0.0106072
0.0105062
0.00650316
0.00501423
0.00322051
0.00130204
5240.12
5237.34
5234.93
5232.9
5231.25
5229.93
5229.02
5227.99
10.4803
0.0112826
0.011791
0.00702494
0.00510805
0.00297766
0.00109878
5243.21
5239.83
5236.86
5234.33
5232.26
5230.58
5229.4
5228.14
10.9329
0.0115265
0.0127788
0.00765531
0.00548899
0.00302284
0.00101663
5246.95
5242.86
5239.24
5236.14
5233.56
5231.45
5229.95
5228.39
12.2385
0.011333
0.0131431
0.00814694
0.00593166
0.00322927
0.001027
5251.41
5246.53
5242.16
5238.38
5235.21
5232.58
5230.7
5228.75
14.4527
0.0108716
0.012889
0.00833232
0.00627213
0.00347663
0.0010869
5256.71
5250.91
5245.69
5241.12
5237.25
5234.02
5231.67
5229.25
17.6898
0.0104627
0.0121614
0.00822409
0.00639931
0.00366815
0.00115945
5262.95
5256.13
5249.92
5244.44
5239.76
5235.81
5232.91
5229.9
22.1184
0.0103768
0.0113005
0.00792318
0.00633025
0.00374647
0.00121626
5270.24
5262.27
5254.96
5248.45
5242.82
5238.02
5234.47
5230.76
27.9678
0.0108317
0.0106255
0.00761076
0.00612562
0.00372078
0.00124095
5278.69
5269.45
5260.91
5253.22
5246.52
5240.73
5236.4
5231.85
35.5344
0.0119909
0.0103807
0.00744961
0.0059011
0.00362319
0.00123618
5277.79
5294.68
5267.89
5258.89
5250.96
5244.02
5238.79
5233.24
45.1792
0.014047
0.0107761
0.00756577
0.00576845
0.00351327
0.00120989
5276.01
5293.6
5324.2
5265.55
5256.24
5248
5241.72
5234.98
57.3504
0.0174118
0.0119285
0.00811809
0.00581664
0.00345392
0.00117905
5273.34
5291.44
5322.87
5360.52
5262.49
5252.77
5245.28
5237.15
72.5862
0.0224275
0.0139104
0.00918594
0.00617929
0.00349764
0.00116332
5269.83
5288.2
5320.2
5359.03
5402.38
5258.46
5249.57
5239.84
91.525
0.029638
0.0167311
0.0108624
0.00691728
0.0037299
0.00118062
5265.19
5283.94
5316.15
5356
5400.92
5447.72
5254.74
5243.17
114.913
0.0401352
0.0204536
0.0132043
0.00810086
0.00418916
0.00126085
5260.9
5278.23
5310.83
5351.39
5397.88
5446.62
5493.27
5247.25
143.61
0.0559663
0.0251173
0.0162475
0.0097717
0.00491841
0.00141723
5252.24
5272.95
5303.56
5345.29
5393.17
5444.11
5493.38
5532.25
178.614
0.0807026
0.0307613
0.020008
0.0119575
0.00594622
0.00166474
221.005
5262.31
5296.75
5336.8
5386.91
5440.02
5492.22
5538.13
5551.56
0.121286
0.0374139
0.0245019
0.0146659
0.00728603
0.00201388
0.197171
305.899
5283.22
5328.66
5377.92
5434.48
5489.69
5539.27
5580.5
5605.24
0.0450304
0.0297146
0.0178937
0.00893672
0.00246814
0.0536055
0.404081
479.473
5312.94
5369.05
5426.11
5485.93
5539.63
5583.3
5625.36
5360.73
0.0355807
0.0216045
0.0108894
0.00302554
0.0420003
0.0680699
1.35453
722.793
5352.64
5417.49
5479.44
5538.69
5588.18
5631.51
5616.19
5695.96
0.025737
0.0131137
0.00367987
0.0301983
0.0529298
0.0885518
4.35154
1045.32
5402.45
5472.38
5535.2
5590.75
5637.71
5646.22
5728.66
5801.49
5835.12
0.015569
0.004418
0.0182001
0.0378069
0.0678561
0.100163
12.9622
1449.71
5460.85
5530.89
5590.54
5641.48
5676.54
5729.65
5762.9
5826.69
5884.15
5957.86
0.00522689
0.00609174
0.0226861
0.0479426
0.0760785
0.100553
34.2458
1926.15
5524.52
5589.61
5643.32
5684.99
5722.98
5747.28
5782.31
5817.35
5898.52
5979.33
6070.38
0.00756712
0.0285613
0.0533911
0.0731431
0.122366
78.9659
2450.07
5589.13
5645.34
5687.29
5718.86
5734.99
5757.22
5761.65
5796.85
5891.96
5986.09
6079.29
6176.96
0.00946986
0.0316455
0.051384
0.0622741
0.274421
158.051
2984.55
5650.07
5692.05
5718.92
5728.78
5740.07
5725.88
5736.98
5711.13
5871.7
5979.66
6081.76
6180.55
6278.7
0.0104449
0.0304215
0.0436224
0.0477915
0.832648
276.176
3489.49
5701.44
5724.63
5729.82
5730.52
5707.05
5695.3
5648.67
5658.21
5806.36
5960.78
6077.36
6182.61
6280.79
6374.86
0.0100271
0.0257072
0.0320907
0.0258802
2.29703
426.969
3915.08
5737.39
5738.52
5730.6
5699.5
5665.04
5605.22
5596.83
4254.44
5760.53
4279.22
4264.31
4280.45
5911.53
6061.42
6181.7
6283.29
6377.21
6465.53
0.00843907
0.0183712
0.0146864
-0.0131413
5.21261
588.93
4218.93
5756.28
5741.01
5703.9
5653.33
5580.62
5525.96
5325.32
4250.46
4256.56
5887.84
4281.25
4181.04
4211.77
4242.95
4259.44
4234.85
6024.51
6172.35
6285.17
6381.4
6468.8
6549.16
0.00588629
0.00744009
-0.0138303
-0.06288
9.64183
724.158
4397.03
5762.69
5720.17
5659.24
5570.93
5470.19
5304.69
4340.38
4312.52
4361.55
4340.46
4280.96
4273.52
6009.69
5844.85
4282
4250.29
4266.92
4229.69
4331.31
4285.89
6156.28
6283.85
6386.28
6475.17
6553.54
6624.68
0.00208126
-0.00949636
-0.0499509
-0.114193
14.13
816.49
4492.47
5748.7
5680.62
5580.58
5449.01
5280.87
4381.98
4368.72
4399.6
4395.08
4182.9
4175.1
4273.36
4266.01
4247.53
3685.16
3483.68
3633.37
3534.05
6147.19
5901.05
4138.83
4137.87
4156.12
4152.91
4212.55
4200.36
4183.81
3674.34
3479.57
3627.2
3521.96
3693.88
3601.15
3772.46
3573.58
3683.98
3600.24
3767.95
3560.74
6283.82
6391.01
6484.02
6562.29
6630
6690.97
-0.00348032
-0.0305567
-0.0895562
-0.154031
17.6503
861.991
4478.15
5715.64
5609.29
5462.12
5263.13
4430.22
4428.27
4462.37
4461.69
4300.16
4297.99
4340.9
4337.92
3575.36
3587.18
3737.23
3589.15
3738.14
3623.31
3586.61
3568.78
3730.99
3587.55
3735.99
3620.47
3677.91
3813.03
3632.5
3771.62
3682.58
3814.46
3635.11
3772.68
3536.45
3432.24
3575.78
3399.79
3729.02
3611.47
3743.53
3613.93
6302.61
6017.38
4079.28
4070.9
4105.59
4099.55
4094.58
4083.01
4030.08
4017.69
3531.72
3427.76
3570.57
3390.79
3521.84
3176.97
3455.59
3348.46
3517.55
3177.72
3454.16
3341.1
3723.05
3609.7
3739.14
3607.32
3648.35
3596.88
3639.64
3585.68
6399.14
6495.04
6575.33
6640.7
6697.03
6747.2
-0.0102892
-0.0533565
-0.125077
-0.185076
18.8449
838.522
4364.04
5653.93
5503.74
5280.76
4509.54
4511.06
4596.22
4599.77
4380.53
4377.44
4437.56
4434.9
3721.22
3852.21
3764.18
3891.86
3730.21
3856.03
3778.18
3897.58
3859.08
3958.69
3812.63
3925.56
3876.22
3966.61
3826.27
3931.96
3608.47
3628.8
3851.27
3733.84
3675.67
3873.1
3599.87
3625.54
3726.06
3844.76
3671.34
3864.47
3775
3943.17
3729.94
3907.25
3774.73
3938.45
3726.4
3900.24
3696.81
3581.64
3722.8
3547.52
3717.9
3625.45
3707.76
3636.9
6414
6319.52
4086.53
4073.18
4076.03
4062.71
4022.04
4010.86
4045.9
4035.1
3131.95
3337.78
3166.99
3364.9
3146.73
3345.81
3183.66
3377.59
3270.58
3290.37
3396.92
3194.63
3372.12
3574.03
3272.72
3287.47
3399.46
3205.03
3379.02
3575.58
3692.01
3580.75
3718.5
3543.16
3678.64
3486.93
3674.65
3477.92
3711.13
3614.3
3700.58
3622.64
3725.97
3629.1
3721.18
3619
6507.79
6592.99
6656.94
6709.23
6753.81
6792.75
-0.0174877
-0.0730907
-0.157236
-0.215318
16.0213
735.552
4067.43
5564.57
5345.72
4689.49
4692.29
4794.6
4795.51
4497.32
4494.22
4549.96
4549.34
3921.03
4013.59
3975.26
4063.71
3934.08
4020.98
3988.5
4070.87
4126.59
4238.52
4057.85
4129.95
4132.79
4239.57
4065.16
4133.17
3815.31
3977.73
3860.44
4015.39
3818.34
3975.14
3864.16
4013.29
3964.68
4074.95
3913.89
4051.19
3971.86
4075.39
3916.12
4048.98
3668.96
3597.03
3691
3558.4
6516.48
6413.16
4124.84
4108.51
4114.53
4093.84
4048.97
4042.14
4039.98
4027.25
2929.09
3135.96
2979.12
3185.54
2955.03
3145.6
2998.37
3195.15
3082.49
3288.93
3023.1
3235.55
3098.37
3296.41
3043.77
3243.22
3258.95
3511.06
3284.82
3522.64
3266.91
3508.9
3291.27
3522.5
3404.85
3317.87
3500.24
3562.94
3303.65
3509.59
3399.14
3317.22
3501.34
3556.28
3307.37
3512.05
3662.4
3588.23
3684.12
3548.66
3652.14
3502.91
3644.71
3495.24
6614.66
6679.17
6727.76
6767.12
6799.75
6827.21
-0.0235609
-0.0894481
-0.182762
-0.251269
8.64756
523.71
3567.58
5440.94
5119.77
4611.43
4611.9
4677.6
4677.6
4444.62
4440.96
4507.07
4501.4
4003.25
4091.85
4038.13
4102.04
4007.87
4093.68
4041.65
4103.85
4100.26
4123.29
4077.41
4098.82
4104.3
4124.27
4080.26
4099.86
3991.42
4094.72
3995.96
4093.34
6633.16
6497.57
4007.37
4028.17
4134.75
4134.45
4100.73
4078.14
4129.96
4114.29
2742.13
3107.03
2897.93
3157.31
2763.89
3113.27
2917.95
3162.56
2909.59
3098.27
2894.89
3102.54
2933.21
3108.7
2924.68
3112.64
3139.75
3299.63
3185.72
3390.91
3126.04
3289.43
3170.85
3380.47
3230.51
3482.01
3205.53
3451.98
3235.88
3480.39
3204.1
3449.29
6706.91
6752.98
6787.31
6813.8
6834.46
6850.31
-0.0284768
-0.101964
-0.190658
-0.274858
1.32163
234.423
2608.21
5047.07
4734.46
4732.33
4778.7
4777.28
4577.16
4568.57
4642.84
4638.97
4211.44
4101.77
4160.13
4147.95
4211.5
4101.36
4160.71
4147.31
4271.03
4262.77
4322.48
4208.45
4270.11
4263.11
4321.27
4206.07
4029.48
4114.45
4060.35
4123.63
4031.3
4113.8
4062.22
4123.75
4086.85
4118.89
4082.6
4124.69
4090.66
4120.45
4083.98
4125.38
6738.55
6648.81
6472.77
3934.7
3934.92
4028.5
4008.92
3977.69
3970.53
3834.91
3834.78
2880.07
3223.35
3120.69
3396.45
2878.64
3211.93
3117.96
3382.36
3132.16
3294.82
3137.28
3328.88
3123.74
3287.82
3133.25
3315.81
3118.99
3289.39
3126.27
3288.67
6784.92
6814.73
6835.09
6848.99
6857.7
6861.9
-0.0320009
-0.108699
-0.193772
-0.270661
-0.158787
61.5133
1138.73
3398.28
4680.51
4674.9
4568.65
4565.27
4340.19
4382.61
4469.06
4404.89
4335.95
4379.53
4464.15
4397.59
4603.51
4595.41
4268.8
4128.51
4231.49
4181.11
4267.75
4128.57
4231.15
4179.63
4298.19
4266.8
4322.1
4228.83
4297.67
4267.86
4321.67
4229.05
4099.05
4206.42
4101.49
4206.39
6824.36
6781.2
6692.85
3936.86
3936.67
4102.38
4083.11
4048.88
4041.04
4092.65
4061
3078.73
2753.08
3014.55
2830.39
3072.75
2774.43
3016.98
2829.84
3108.15
2906.23
3137.91
2857.77
3105.62
2914.2
3140.07
2859.25
3050.14
3238.39
3141.7
3318.68
3055.32
3242.98
3138.3
3321.91
3149.52
3308.19
3160.54
3315.88
3148.87
3304.93
3161.41
3318.47
6849.68
6863.89
6870.97
6872.51
6869.33
-0.0350044
-0.113423
-0.17752
-0.239467
-0.426358
6.08877
242.575
2645.44
2640.75
1382.83
1382.01
4262.68
4524.64
4136.8
4583.55
4263.33
4524.62
4137.73
4584.28
3947.75
3945.31
4318.6
4342.91
4392.29
4372.34
4316.59
4341.4
4389.59
4365.28
4302.14
4466.69
4320.19
4413.73
4301.86
4467.01
4320.36
4413.43
4327.88
4292.09
4350.78
4251.01
4326.47
4293
4349.21
4253.17
6893.44
6876.6
6859.32
6777.77
3951.63
3935.4
3916.3
3906.01
3830.84
3807.85
2724.33
3001.78
2912.96
2557.68
2733.34
3001.37
2911.25
2550.64
3151.82
2892.38
3077.47
2947.3
3155.81
2895.05
3074.74
2951.78
3219.37
3025.62
3216.31
2998.11
3223.36
3031.73
3223.99
2997.54
3042.14
3199.21
3048.88
3207.97
6900.65
6900.66
6894.9
6884.27
-0.03701
-0.106605
-0.16583
-0.379996
-0.360483
-0.216076
126.663
126.379
0.284521
0.271907
2004.99
2006.17
589.184
596.462
4168.48
4492.82
4031.21
4536.63
4176.13
4494.03
4036.02
4537.59
4195.36
2932.72
3652.18
3391.98
4196.98
2931.5
3659.55
3396.64
4323.27
4360.69
4361.9
4323.29
4318.99
4358.6
4360.26
4319.27
4264.34
4462.73
4312.79
4434.98
4272.49
4462.91
4315.82
4434.5
6946.68
6949.42
6956.28
6970.55
4068.5
4060.03
3967.76
3965.07
3678.28
3691.53
2548.34
2831.34
2343.64
2753.38
2571.62
2840.18
2374.86
2764.98
2576.68
2814.16
2682
2849.5
2626.59
2946.14
2603.11
2817.95
2686.05
2845.13
2618.75
2940.84
2849.89
3086.2
2840.75
3078.78
3047.9
2853.18
2975.97
2865.58
3049.61
2855.85
2967.42
2866.6
6938.47
6925.1
6906.84
-0.0384011
-0.0999215
-0.2271
-0.116652
-0.636257
-1.94361
58.335
61.8881
0.703001
0.646093
1636.03
2623.39
2294.76
1180.72
1493.89
3830.26
2635.91
1661.16
3830.71
2287.55
1197.31
1514.71
92.3859
188.606
296.931
389.054
102.109
196.276
290.157
393.969
4088.01
4491.76
3829.29
4479.85
4099.83
4491.97
3844.44
4481.71
4111.35
3039.17
4074.83
3051.77
4409.76
4337.68
4408.49
4337.64
4259.4
4488.43
4265.8
4489.81
6985.19
7003.6
7021.89
7090.93
4108.87
4107.36
4110.49
4093.3
3833.35
3831.14
3685.05
3684.98
2808.3
2239.14
2708.09
2512.49
2833.98
2446.99
2802.89
2288.84
2722.82
2524.52
2826.16
2447.06
2753.29
3032.97
2738.86
3016.16
2784.16
2987.96
2831.94
2853.28
3014.57
2998.13
2781.16
2973.76
2812.34
2845.29
2999.22
2993.85
2894.95
3049.38
2888.93
3039.96
6963.5
6937.25
-0.0375572
-0.123401
-0.154311
-0.275679
-0.297051
1.06729
0.985397
1.09681
1.06201
45.7458
41.9255
4.67845
3.82752
2178.92
1198.68
1652.68
3444.22
764.092
593.426
2198.79
1203.13
3372.05
1637.55
710.063
623.505
121.184
127.749
362.225
417.208
114.746
110.993
328.859
436.593
3479.15
4234.14
3495.81
4207.57
7010.67
7041.54
7069.4
7114.55
7121.82
3824.65
3829.98
3940.9
3924.38
2336.68
2817.58
2482.11
2852.73
2358.96
2818.34
2497.63
2857.1
2431.15
2402.11
2763.68
2465.73
2807.44
2866.86
2452.59
2413.3
2769.84
2487.57
2812.88
2866.32
3064.7
2923.42
2706.93
2735.37
3070.68
2924.27
2710.36
2736.54
2792.29
3003.16
2789.11
2996.61
2786.32
2994.43
2875.69
3033.94
2796.4
2984.45
2869.14
3030.22
6975.83
-0.0513238
-0.0303828
-0.177486
-0.159196
0.195609
2.43995
2.31999
1.92882
1.92365
72.8403
125.048
168.993
57.7489
59.1557
93.825
134.123
43.879
13.2224
10.8044
218.727
217.223
372.399
222.262
186.932
215.419
339.211
249.851
7022.99
7067.02
7107.5
7147.09
7201.25
4135.49
4132.01
3898.96
3908.49
3980.49
3988.32
3757.79
3747.51
2407.6
2783.05
2672.13
3004.26
2377.51
2756.53
2628.27
2961.32
2480.5
2585.44
2753.05
2843.17
2697.87
2970.57
2505.04
2573.19
2838
2764.28
2659.69
2947.43
2931.95
2723.81
2941.26
2737.41
-0.0389126
-0.0808559
-0.039481
0.183366
2.08464
2.09808
1.93835
1.93433
2.40131
2.41312
2.33919
2.38117
55.3783
91.1056
121.365
29.0368
38.8088
124.821
113.178
41.7444
5.83346
7.19864
9.2649
11.1344
4.84494
7.23016
11.7206
14.1987
201.841
122.289
200.947
152.692
7079.09
7132.96
7182.58
7235.34
7231.87
3851.63
3853.43
3919.73
3900.96
3882.11
3837.77
2688.17
2476.49
2841.27
2223.68
2677.26
2447.23
2816.41
2206.64
2571.19
2742.66
2619.95
2850.06
2545.32
2710.79
2596.1
2818.57
-0.0398175
-0.00527363
0.114868
0.256196
2.26625
2.27437
2.10693
2.10525
3.30625
4.04055
2.67292
2.90929
2.77924
2.91586
2.87747
4.68802
2.70838
3.03815
2.83452
3.01112
2.21378
2.21923
15.8848
19.7669
25.2551
11.0716
15.7635
59.8375
20.8765
27.4939
5.5851
6.48439
6.04539
8.81616
7144.5
7209.52
7267.06
7370.91
3849.05
3872.7
3711.04
3737.79
3853.51
3867.47
3895.54
3853.35
2291.62
2857.15
2460.07
2874.65
2289.49
2800.76
2308.84
2854.69
2469.54
2872.03
2281.18
2788.96
2545.78
2958.82
2530.58
2925.92
2542.04
2776.46
2544.26
2760.15
-0.00449241
0.0668973
0.183487
2.04286
2.05318
1.99218
1.99044
2.11089
2.15726
2.13512
2.14515
2.66042
2.59921
2.83389
2.91903
2.80239
3.00913
2.71964
2.79041
2.86673
3.04273
2.85392
3.08006
2.95318
2.66867
2.91966
2.79991
2.94871
2.90214
3.0852
3.15383
7219.62
7294.08
7361.59
7344.24
3696.56
3702.65
3704.61
3699.41
3746.58
3726.87
2477.96
3040.55
2699.22
2237.21
2579.23
2188.93
2681.82
2236.93
2578.58
2164.88
2464.92
3031.3
2607.7
2415.4
3079.54
2702.35
2595.85
2431.11
3074.28
2705.55
2456.4
2771.42
2469.05
2769.08
0.0111113
0.103014
0.180263
2.0596
2.07715
2.00286
2.01161
2.95558
2.77593
2.55467
2.95543
2.72501
2.85351
2.9693
3.00799
2.56578
2.90685
2.69731
2.87372
1.95419
1.98572
2.87093
2.96912
3.03238
3.206
3.08095
2.96813
3.48118
3.37165
7303.94
7384.29
7431.74
3835.48
3862.41
3655.52
3700.51
3886.26
3883.68
3756.31
3728.82
2058.72
2521.92
2268.98
2617.8
2259.88
2737.15
2064.24
2236.79
2722.87
2527.19
2261.45
2608.75
2440.01
2704.19
2506.2
3004.5
2495.77
2441.08
2989.28
2701.03
0.0307011
0.0937218
0.198664
2.06204
2.08203
2.03421
2.04135
3.02517
2.92082
2.65711
3.00272
2.79494
2.84718
2.9827
2.85876
2.65994
2.91311
2.74726
2.85091
2.82511
2.56906
2.79076
2.58658
2.85216
2.58842
2.7778
2.58712
3.17592
3.09331
3.14177
3.1135
7396.06
7485.32
7478.98
3812.2
3826.65
3746.15
3751.55
3571.06
3590.19
2025.87
2466.17
2406.22
2092.98
2370.53
1949.33
2044.45
2479.91
2409.65
2097.57
2378.89
1952.79
2363.32
2477.02
2853.72
2792.21
2454.1
2765.29
2342.02
2831.96
0.0272951
0.0856217
2.10027
2.10109
2.10669
2.10086
2.07849
2.07102
2.20664
2.799
2.62159
2.21144
2.81864
2.6309
3.22392
3.01876
2.79059
2.99053
2.84048
2.90506
2.96648
2.81663
2.78624
2.99575
2.83007
2.89026
2.80735
2.64613
2.81453
2.65252
7497.75
7634.65
7686.42
3874.58
3864.07
3750.57
3754.15
1816.65
2317.63
2046.19
2309.55
1955.02
2354.76
1856.59
1956.16
2355.06
2338.67
2039.51
2309.76
2257.14
2530.32
2151.13
2399.08
2271.06
2537.47
2154.74
2403.67
2318.08
2725.58
2304.49
2709.52
0.0213581
0.0694709
2.1113
2.12943
2.11519
2.13304
2.14359
2.13629
2.7814
2.70981
2.68656
2.79602
2.68192
2.64864
2.98441
2.71354
2.71613
2.78882
2.68908
2.80297
2.68704
2.6521
2.98273
2.71758
2.82344
2.95706
2.82746
2.96886
2.77373
2.6944
2.79673
2.69022
7629.53
7812.44
3995.66
3891.88
3858.78
4016.57
3905.5
3925.52
3302.77
1903.71
2357.93
3335.09
1932.16
2373.36
2287.26
2254.7
2456.79
2568.5
2286.48
2444.93
2250.2
2565.26
2213.01
2468.57
2230.76
2531.82
2216.28
2469.98
2240.22
2521.35
-0.00688513
0.0683321
2.22196
2.68881
2.85122
2.05666
2.22755
2.69212
2.85948
2.07166
2.09288
2.08574
2.71696
2.7419
2.71734
2.61634
2.67749
2.62409
2.72222
2.73524
2.75762
2.62762
2.68197
2.63753
2.81748
2.88844
2.81892
2.9079
7812.27
7949.98
4036.76
3818.57
3814.2
4045.12
3930.98
3945.19
1915.47
1863.49
2271.84
1878.23
2305.74
2200.93
1817.83
2381.94
1950.09
1888.44
2282.8
1906.39
2314.47
2226.6
1864.78
2397.78
2384.37
2217.93
2563.52
2519.59
2373.99
2551.55
2227.66
2534.81
-0.0135404
2.21253
2.14151
2.13454
2.18432
2.13264
2.11361
3.04175
2.72767
2.7858
2.7863
2.83733
2.75769
2.88408
2.74532
2.18444
2.92301
2.74707
3.02788
2.73613
2.78881
2.78925
2.84816
2.7559
2.88435
2.74456
2.1814
2.91617
2.74453
2.82145
2.74399
2.67071
2.6188
2.8237
2.75924
2.6752
2.6304
8017.9
8158.52
4091.31
3609.3
2311.72
1849.63
3634.04
2327.07
1872.1
4067.03
3880.56
3915.87
1997.72
2031.49
2125.12
2198.53
2444.43
2308.69
2017.11
2027.21
2141.33
2463.55
2203.2
2303.4
2312.91
2507.36
2310.95
2507.75
-0.02621
2.1126
2.22614
2.11347
2.20463
2.17271
2.15842
2.75301
2.77062
2.74539
2.66537
2.76335
2.66441
2.82575
2.77043
2.76972
2.90384
2.81486
2.59033
2.85858
2.56853
2.75861
2.77276
2.66616
2.74552
2.76894
2.66502
2.77633
2.83165
2.771
2.89474
2.81229
2.59712
2.87917
2.58534
8232.62
4012.04
4068.93
4027.56
4054.79
4046.22
4043.55
1835.29
2130.23
1820.13
2311.96
1749.14
2478.87
1993.16
2428.12
1901.86
2127.25
1833.69
2312.98
1752.39
2495.36
2027.14
2438.9
3533.92
1923.54
2455.72
3536.39
1985.27
2484.71
2107.84
2074.72
2370.1
2504.28
2134.56
2058.72
2383.02
2495.7
-0.029974
2.09814
2.66513
2.86166
2.24159
2.1179
2.6837
2.89319
2.22026
2.21409
2.19747
2.82839
2.67868
2.69847
2.65353
2.83557
2.92539
2.62312
2.57267
2.77873
2.72577
2.83354
2.68119
2.70718
2.65265
2.84494
2.631
2.949
2.57439
2.7858
2.73312
8214.07
3980.2
4019.14
3991.35
4032.56
4017.95
4018.08
1975.5
2024.71
2362.14
2297.3
2140.48
2470.7
1976.41
2053.97
2360.92
2305.16
2126.15
2461.85
1837.53
1943.57
2434.95
1908.92
2389.73
2219.84
1803.78
2384.12
1912.19
1973.77
2454.31
1959.85
2410.24
2253.9
1848.91
2393.66
-0.0373519
2.23903
2.21992
2.11716
2.69461
2.9284
2.72146
2.87867
2.2561
2.13081
2.71467
2.94432
2.73627
2.90531
2.2335
2.76443
2.8944
2.98417
2.69158
2.76208
2.80596
2.76993
2.92792
3.00375
2.69805
2.78435
2.81887
8344.71
3977.29
3953.1
2281.69
1851.28
3908.37
2285.63
1860.48
4009.47
4052.34
4045.02
1991.56
2239.66
2001.12
2360.72
2018.99
2237.37
1995.51
2344.46
2116.62
2136.02
2034.12
2305.02
2365.67
2416.45
2161.58
2127.16
2038.38
2380.18
2322.66
2416.23
-0.0401041
2.24047
2.24896
2.21909
2.22896
2.14427
2.76587
2.97682
2.74741
3.00503
3.0732
2.87801
2.22723
2.15537
2.77238
2.976
2.75533
3.0041
3.08197
2.88478
2.21232
2.89883
2.7765
2.92883
2.79341
8361.97
3921.78
3937.58
4021.37
2157.29
1819.73
2148.61
1833.75
3974.36
2160.66
1822.65
2149.72
1840.49
4019.86
3997.56
2205.32
2041.52
2175.39
2405.29
2227.58
2396.13
2254.26
2044.7
2185.08
2239.15
2418.41
2411.87
-0.0559375
2.24037
2.24409
2.22105
2.22319
2.23089
2.21778
2.15644
2.8259
3.10655
2.83397
3.09921
2.92256
3.14375
2.92806
3.15811
3.02682
2.8668
2.16443
2.8335
3.08809
2.83078
3.09805
2.92985
3.14214
2.93192
3.1636
3.03202
2.87318
8361.57
3959.87
3916.36
3971.93
3950.76
3922.18
2028.2
1794.31
2107.72
1739.25
2194.31
2461.15
3876.27
2020.27
1812.28
2107.95
1748.92
2205.29
2477.49
4073.18
4053.46
2246.29
2489.17
2288.29
2503.48
-0.033409
2.2373
2.20852
2.216
2.19123
2.21755
2.21182
2.20219
2.20024
2.17013
2.18234
2.75974
2.95746
2.76855
2.94611
2.92013
3.18818
2.90982
3.20279
2.88787
3.09792
2.91287
3.08112
2.75259
2.94409
2.76361
2.92776
2.93505
3.20047
2.9169
3.24966
2.90401
3.10515
2.92289
3.11191
8347.69
3915.29
3961.31
3948.62
3975.93
4080.13
4062.11
3859.93
2067.84
1757.64
2147.71
1724.83
2131.79
2101.42
2319.55
1988.23
2232.97
2466.44
3816.55
2040.14
1744.76
2122.84
1723.06
2154.26
2121.85
2332.72
2038.13
2258.74
2462.44
-0.0132072
2.15797
2.12182
2.14695
2.10535
2.20885
2.19832
2.1969
2.18546
2.14892
2.17183
2.16594
2.17988
2.73872
2.91339
2.71021
2.92742
2.73144
2.87101
2.70111
2.90433
2.82224
2.92334
2.75917
2.9925
2.80762
2.91727
2.75851
2.96795
8218.45
3927.14
3980.84
3943.85
4012.31
4078.94
4072.48
4060.77
4054.18
3863.46
3807.95
2420.48
1853.98
2321.36
1958.85
2251.14
2026.36
2359.05
2008.41
2247.88
2149.95
2392.54
2034.18
2403.72
1844.74
2311.28
1935.64
2113.89
1974.63
2296.75
1933.93
2244.72
2173.16
2407.39
2063.98
0.0695269
-0.00263933
2.20373
2.19181
2.18944
2.17349
2.1714
2.14822
2.18013
2.15903
2.71224
2.9739
2.72912
2.93318
2.71108
2.88477
2.72577
2.89173
2.69864
2.87296
2.70075
2.87824
2.70728
2.87831
2.72684
2.87683
2.81304
3.0584
2.82532
2.98317
2.80204
2.9551
2.78624
2.96167
8244.4
3981.47
4021.45
4032.54
4052.25
4019.78
4050.26
4001.38
4045.04
3864.81
3868.41
3808.67
3825.89
2441.67
2019.67
2486.93
1995.34
2382.74
1984.33
2460.9
1934.27
2549.5
2096.86
2422.55
2165.67
2546.74
2059.89
2387.11
2155.54
0.0625249
2.17765
2.10099
2.17621
2.09386
0.0321815
2.12137
2.12226
2.13544
2.12801
2.76137
2.88843
2.73785
2.90752
2.75159
2.87307
2.72241
2.90132
2.76521
2.88458
2.74444
2.90343
2.75712
2.87602
2.72868
2.90064
2.80614
3.10502
2.84247
3.05202
2.74308
2.91743
2.74757
2.93526
2.7681
2.9707
2.78164
2.96926
2.73792
2.90409
2.73808
2.93452
8023.82
8167.35
4015.15
4049.77
4017.69
4032.18
3933.52
4031.37
3895.05
3983.42
2432.51
2020.09
2483.27
1989.91
2413.86
1844.26
2310.86
1956.59
2369.32
1982.55
2453.41
1925.37
2396.65
1840.15
2303.4
1934
2616.78
2224.69
2644.03
2199.19
2630.46
2221.99
2645.43
2190.28
0.0892704
2.13707
2.08061
2.13068
2.07347
2.18466
2.10342
2.18894
2.11431
0.042145
2.74108
2.88414
2.71438
2.92493
2.70905
2.88123
2.58159
2.93613
2.74843
2.89307
2.72292
2.93001
2.71544
2.8921
2.59319
2.94252
2.7573
2.89531
2.73934
2.86949
2.78361
2.89317
2.7812
2.87027
2.74563
2.87284
2.72628
2.84506
2.77918
2.88685
2.78118
2.85762
7818.57
7953.15
4073.19
4093.9
4027.18
4071.44
3961.39
4015.42
3908.71
3996.14
2064.36
1737.44
2108.58
1725.9
2031.72
1796.04
2109.11
1740.91
2045.37
1730.33
2093.16
1737.11
2028.98
1808.32
2106.46
1757.48
2616.04
2224.79
2648.11
2197.33
2551.28
2087.98
2406.07
2168.78
2628.34
2223.7
2653.86
2187.37
2550.95
2057.51
2374.04
2159.16
0.211299
0.109619
2.13267
2.11212
2.13702
2.11301
2.88209
2.96443
2.83454
2.93087
2.83595
2.72388
3.00517
2.73116
2.98804
2.82334
2.86861
2.95812
2.83111
2.92173
2.83184
2.722
2.99462
2.7293
2.97861
2.81876
0.0443268
2.91232
3.03614
2.86872
3.08182
2.90529
3.13863
2.90899
3.01638
2.86332
3.07397
2.8943
3.11152
2.88633
3.04766
2.90057
3.04595
2.87802
3.01885
2.89504
3.01915
7634.91
7818.96
4038.61
4000.44
4049.36
4023.83
3519.5
3887.11
3536.15
3922.13
2166.94
1826.8
2156.42
1840.45
2285.45
1797.27
2382.04
1850.04
2165.1
1823.34
2151.82
1844.48
2294.9
1853.92
2399.92
1866.43
2288.72
2024.83
2350.38
2028.64
2148.16
2111.72
2321.05
2006.19
2156.06
1979.53
2280.6
1980.27
2170.09
2113.15
2332.54
2038.04
0.200265
2.103
2.05578
2.11316
2.05689
0.131767
2.20902
2.13756
2.21574
2.14522
2.99435
2.80308
2.90254
2.70341
2.73907
2.64242
2.89459
2.74168
2.82801
2.71015
2.9815
2.80702
2.89734
2.70199
2.74911
2.64179
2.89801
2.74097
2.83763
2.71137
0.0403151
2.97552
3.09915
2.93917
3.12752
3.001
3.20696
2.9718
3.07918
2.93316
3.11538
2.99722
3.17976
7502.92
7639.63
7694.85
3931.98
3918.13
3947.12
3931.62
1955.17
1849.45
2462.11
1919.02
2397.38
2216.96
1838.32
2481.3
1928.07
2458.1
1862.65
2024.8
2483.12
1976.69
2421.94
2238.51
1904.2
2497.85
1993.94
2489.21
2401.71
2204.55
2474.74
2178
2421.13
2142.1
2419.19
2209.47
2484.51
2192.25
2420.26
2128.24
2264.78
2167.66
2389.24
2054.7
2264.74
2169.47
2405.12
2071.78
0.218729
2.03424
2.02453
2.03171
2.01594
2.18115
2.09223
2.18813
2.10288
0.138292
2.75516
2.80307
2.78888
2.86629
2.68709
2.94501
2.68398
2.86074
2.76114
2.80727
2.79084
2.87846
2.69253
2.94127
2.68499
2.87101
2.99017
2.83986
2.82495
2.76788
2.90954
2.7499
2.99225
2.84144
2.83312
2.77065
2.92658
2.75686
0.022441
7402.13
7489.98
7484.36
3892.69
3875.79
3857.34
3867.7
3619.49
3845.22
3641.04
3833.93
2105.15
2067.11
2390.3
2310.72
2008.59
2372.63
2003.13
2441.1
2156.51
2483.77
2192.41
2065.54
2340.82
2404.73
2002.93
2356.09
2032.8
2451.35
2145.47
2477.37
2503.36
2254.3
2478.42
2257.36
2412.43
2212.29
2512.49
2260.6
2469.72
2288.99
2427.64
2243.87
0.285398
0.242049
2.05274
2.06279
2.06741
2.06281
2.72871
2.77089
2.71426
2.8123
2.69624
2.61032
2.8496
2.60104
2.80305
2.62489
2.72307
2.77662
2.70761
2.80999
2.69494
2.61074
2.85279
2.60638
2.80649
2.62464
0.0563123
2.62298
2.78212
2.71194
2.76072
2.63075
2.77298
2.63579
2.79635
2.71713
2.78128
2.6395
2.79094
-0.0229565
7310.14
7390.5
7436
3812.54
3834.64
3830.64
3864.2
3307.75
3751.7
3335.83
3758.12
2142.01
1833.22
2325.59
1765.35
2316.59
1823.16
2389.52
1857.15
2135.18
1842.53
2320.89
1764.66
2335.92
1868.33
2403.29
1886.48
2039.69
2236.88
2040.24
2314.81
2010.22
2255.53
2089.92
2257.89
2061.94
2319.22
2036.01
2255.15
0.266709
2.06097
1.97549
2.05721
1.96737
0.0825472
2.03773
2.09955
2.05975
2.10285
2.7486
2.70941
2.70042
2.59013
2.73934
2.63335
2.7037
2.56551
2.72807
2.602
2.7461
2.71306
2.69737
2.58484
2.74924
2.63713
2.717
2.5691
2.74494
2.61022
-0.0737531
2.70775
2.86324
2.71022
2.86385
-0.0226629
7225.82
7300.34
7367.9
7346.05
3753.81
3662.89
3760.55
3709.91
1866.35
1904.85
2280.86
1879.32
2308.25
2180.96
1820.48
2320.15
1899.07
2350.28
1936.87
1891.14
2288.42
1903.77
2314.9
2205.43
1858.52
2339.97
1923.3
2364.51
2502.53
1976.97
2363.12
2080.26
2277.79
2013.91
2492.18
1973.73
2362.61
2059.03
2258.36
2007.93
0.208618
0.0823432
2.18148
2.06716
2.18459
2.06989
-0.199296
2.56505
2.70194
2.58998
2.81156
2.13119
2.57131
2.72143
2.59751
2.82219
2.14513
2.86632
2.775
2.74407
2.68645
2.86948
2.76821
2.87551
2.77902
2.76071
2.69541
2.88317
2.77774
-0.0913408
-0.0461099
7150.77
7215.76
7273.21
7380.33
3694.55
3852.24
3696.65
3871.8
3584.93
3890.62
3596.18
3882.44
1990.49
2144.19
2458.76
2188.37
2239.89