/*--------------------------------*- C++ -*----------------------------------*\
| =========                 |                                                 |
| \\      /  F ield         | OpenFOAM: The Open Source CFD Toolbox           |
|  \\    /   O peration     | Version:  5.x                                   |
|   \\  /    A nd           | Web:      www.OpenFOAM.org                      |
|    \\/     M anipulation  |                                                 |
\*---------------------------------------------------------------------------*/
FoamFile
{
    version     2.0;
    format      ascii;
    class       surfaceScalarField;
    location    "0.4";
    object      phi;
}
// * * * * * * * * * * * * * * * * * * * * * * * * * * * * * * * * * * * * * //

dimensions      [0 3 -1 0 0 0 0];

internalField   nonuniform List<scalar> 
30582
(
0.000276181
7.93622e-06
0.000252375
2.38058e-05
0.000275985
1.61031e-05
0.000216969
3.54065e-05
0.000252242
4.75489e-05
0.000277039
2.32925e-05
0.000184045
3.29243e-05
0.000217216
7.04331e-05
0.000253895
7.06925e-05
0.000274901
3.27286e-05
0.000149662
3.43822e-05
0.000183894
6.62462e-05
0.000218987
0.000105341
0.000251774
9.38195e-05
0.000276869
4.03387e-05
0.000119589
3.00735e-05
0.00014923
6.90455e-05
0.000183903
0.00010133
0.00021836
0.000138755
0.000255465
0.000115223
0.000269874
5.51297e-05
9.34815e-05
2.61075e-05
0.000118911
6.03924e-05
0.00014835
0.000104598
0.000182304
0.000137386
0.000223012
0.000171208
0.000248909
0.000136189
0.000276015
6.39993e-05
7.21078e-05
2.13736e-05
9.26987e-05
5.23202e-05
0.000117485
9.12582e-05
0.00014632
0.000140583
0.000183533
0.000176865
0.000220664
0.000199453
0.000257221
0.000154983
0.00025119
9.79442e-05
5.50252e-05
1.70826e-05
7.1327e-05
4.27454e-05
9.10728e-05
7.8732e-05
0.000114927
0.000122651
0.00014545
0.000178666
0.000179258
0.00021827
0.000229815
0.000226859
0.000243609
0.000162564
0.000246441
-0.000178065
4.16708e-05
1.33544e-05
5.43116e-05
3.40979e-05
6.97156e-05
6.41026e-05
8.84036e-05
0.000105256
0.000112511
0.00015559
0.000140587
0.000217337
0.000182013
0.000266072
0.000228245
0.000242223
0.000303024
0.000105981
0.000205251
-0.000384967
3.13942e-05
1.02765e-05
4.10555e-05
2.66106e-05
5.28526e-05
5.09609e-05
6.71791e-05
8.53271e-05
8.54277e-05
0.000132339
0.000106876
0.000189301
0.000139341
0.00026001
0.000178348
0.000315968
0.000318358
0.000226889
0.000458689
-0.000147458
8.26149e-05
-0.000467587
2.35697e-05
7.82449e-06
3.08822e-05
2.04498e-05
3.98054e-05
3.96577e-05
5.06026e-05
6.75374e-05
6.41579e-05
0.000106597
7.98994e-05
0.000159315
0.000103249
0.000225393
0.000133514
0.000304844
0.000281362
0.000352964
0.000582787
0.000102791
0.000280434
-0.000345277
-4.35505e-05
-0.000424036
1.76565e-05
5.91319e-06
2.31542e-05
1.55525e-05
2.98473e-05
3.04079e-05
3.79001e-05
5.23603e-05
4.78418e-05
8.38534e-05
5.91997e-05
0.000127297
7.55978e-05
0.000186966
9.50524e-05
0.000263855
0.000249329
0.000336877
0.000593417
0.000342334
0.000330099
5.31265e-05
-0.000100716
-0.000288112
-4.12767e-05
-0.000382759
1.32101e-05
4.44646e-06
1.73253e-05
1.17421e-05
2.23178e-05
2.30821e-05
2.82817e-05
4.00263e-05
3.55238e-05
6.46783e-05
4.35992e-05
9.94539e-05
5.51289e-05
0.000147765
6.68676e-05
0.000215151
0.000214675
0.000298509
0.000534747
0.000395548
0.000275056
0.000397377
-9.53503e-05
4.77617e-05
-0.000100283
-0.000229105
-2.52679e-05
-0.000357491
9.87555e-06
3.33451e-06
1.29495e-05
8.82223e-06
1.66608e-05
1.7399e-05
2.1059e-05
3.03048e-05
2.63106e-05
4.92394e-05
3.20237e-05
7.62538e-05
4.00322e-05
0.000114551
4.69528e-05
0.00016768
0.000195401
0.000234425
0.000433652
0.000399603
0.000168441
0.000502163
-4.46813e-05
0.000346709
-9.02937e-05
3.77725e-05
-5.60547e-05
-0.000198318
-5.53364e-06
7.37611e-06
2.49945e-06
9.67241e-06
6.61163e-06
1.24279e-05
1.30551e-05
1.56643e-05
2.27937e-05
1.94649e-05
3.71505e-05
2.34925e-05
5.77706e-05
2.90446e-05
8.72414e-05
3.282e-05
0.000128683
0.000178469
0.000184612
0.000320185
0.000347893
0.000115402
0.000452642
5.64056e-06
0.000451841
-5.03062e-05
0.000306721
-5.28306e-05
3.45486e-05
-1.71166e-05
5.49933e-06
1.87681e-06
7.2187e-06
4.95322e-06
9.2666e-06
9.77295e-06
1.16479e-05
1.70715e-05
1.43973e-05
2.78612e-05
1.72353e-05
4.34076e-05
2.10746e-05
6.57407e-05
2.29711e-05
9.70902e-05
0.000167155
0.000139997
0.000223672
0.000281126
8.32782e-05
0.000380016
3.12755e-05
0.000427007
-6.41645e-06
0.000407951
-2.94827e-05
0.000283374
-1.64107e-05
4.0849e-06
1.41448e-06
5.37832e-06
3.71726e-06
6.9054e-06
7.31446e-06
8.66116e-06
1.27597e-05
1.06534e-05
2.08155e-05
1.26553e-05
3.24412e-05
1.53094e-05
4.91728e-05
1.61213e-05
7.25905e-05
0.000157991
0.000106254
0.000148108
0.00021556
6.57671e-05
0.000298635
4.11268e-05
0.000370163
1.74565e-05
0.000403133
-3.44088e-06
0.000381909
-8.91629e-06
3.01002e-06
1.07493e-06
3.99276e-06
2.80012e-06
5.13855e-06
5.48418e-06
6.4388e-06
9.53686e-06
7.8878e-06
1.55253e-05
9.30446e-06
2.41663e-05
1.11408e-05
3.66098e-05
1.13605e-05
5.39336e-05
0.000150715
7.98663e-05
9.59729e-05
0.000158389
5.31615e-05
0.000228163
4.2389e-05
0.000297371
2.76384e-05
0.000359981
1.09576e-05
0.000388734
-5.05047e-07
2.18318e-06
8.26887e-07
2.94107e-06
2.12669e-06
3.81079e-06
4.12795e-06
4.78149e-06
7.14154e-06
5.84201e-06
1.15827e-05
6.85034e-06
1.79794e-05
8.12435e-06
2.71828e-05
8.04325e-06
3.9927e-05
0.00014453
6.01184e-05
6.23627e-05
0.000113476
4.28547e-05
0.000168694
3.88517e-05
0.000231699
2.97775e-05
0.000295231
1.71528e-05
0.000353785
4.16919e-06
1.53262e-06
6.50588e-07
2.1324e-06
1.6356e-06
2.8046e-06
3.13293e-06
3.53957e-06
5.36993e-06
4.32438e-06
8.65922e-06
5.04856e-06
1.33845e-05
5.93718e-06
2.01666e-05
5.72253e-06
2.95035e-05
0.000138983
4.54735e-05
4.16988e-05
8.0782e-05
3.35276e-05
0.000122802
3.28329e-05
0.000174712
2.76513e-05
0.000233824
1.83718e-05
0.000294011
6.12098e-06
1.00348e-06
5.29153e-07
1.49645e-06
1.28656e-06
2.03178e-06
2.40846e-06
2.60113e-06
4.07141e-06
3.19231e-06
6.50204e-06
3.72086e-06
9.98696e-06
4.34607e-06
1.49756e-05
4.09041e-06
2.17988e-05
0.000133654
3.48332e-05
2.88014e-05
5.83717e-05
2.5233e-05
8.90779e-05
2.62091e-05
0.000129426
2.35368e-05
0.000178825
1.69652e-05
0.00023523
6.41793e-06
5.52015e-07
4.51468e-07
9.79631e-07
1.04598e-06
1.42495e-06
1.8934e-06
1.88213e-06
3.12748e-06
2.34046e-06
4.92329e-06
2.73629e-06
7.48663e-06
3.1837e-06
1.11494e-05
2.93535e-06
1.61307e-05
0.000128215
2.7237e-05
2.03506e-05
4.32859e-05
1.84838e-05
6.51235e-05
2.00988e-05
9.51894e-05
1.88909e-05
0.000134072
1.4402e-05
0.000181388
5.85249e-06
1.43466e-07
4.08556e-07
5.39283e-07
8.91824e-07
9.32773e-07
1.53818e-06
1.31919e-06
2.45636e-06
1.69042e-06
3.77753e-06
1.99973e-06
5.65986e-06
2.32867e-06
8.34167e-06
2.11239e-06
1.19723e-05
0.000122272
2.20745e-05
1.44828e-05
3.31069e-05
1.32392e-05
4.85335e-05
1.49968e-05
7.02276e-05
1.45265e-05
9.95549e-05
1.15473e-05
0.000136927
4.93487e-06
-2.52221e-07
3.9569e-07
1.41351e-07
8.06489e-07
5.14389e-07
1.31022e-06
8.63946e-07
1.99344e-06
1.18375e-06
2.96304e-06
1.44085e-06
4.33642e-06
1.69384e-06
6.2947e-06
1.52118e-06
8.93289e-06
0.000115525
1.87186e-05
1.01788e-05
2.638e-05
9.23942e-06
3.71088e-05
1.09332e-05
5.25993e-05
1.08149e-05
7.3941e-05
8.88572e-06
0.000102217
3.94226e-06
-6.61906e-07
4.09675e-07
-2.43925e-07
7.80948e-07
1.37038e-07
1.18384e-06
4.78146e-07
1.69603e-06
7.75828e-07
2.40137e-06
1.00784e-06
3.39606e-06
1.21602e-06
4.81424e-06
1.09151e-06
6.72436e-06
0.000107436
1.70226e-05
6.86227e-06
2.20352e-05
6.18862e-06
2.94308e-05
7.76086e-06
4.02825e-05
7.848e-06
5.55679e-05
6.63311e-06
7.61948e-05
3.02884e-06
-1.11199e-06
4.50059e-07
-6.4291e-07
8.08628e-07
-2.28011e-07
1.14598e-06
1.30915e-07
1.53107e-06
4.31749e-07
2.04011e-06
6.6125e-07
2.74797e-06
8.49244e-07
3.76285e-06
7.76158e-07
5.12959e-06
9.75453e-05
1.66142e-05
4.22627e-06
1.96569e-05
3.81219e-06
2.44095e-05
5.29034e-06
3.19011e-05
5.53725e-06
4.2594e-05
4.83266e-06
5.73693e-05
2.25906e-06
-1.62933e-06
5.1732e-07
-1.08157e-06
8.88685e-07
-6.0618e-07
1.18677e-06
-2.04538e-07
1.48142e-06
1.23088e-07
1.83973e-06
3.70754e-07
2.33061e-06
5.58326e-07
3.03889e-06
5.39837e-07
3.99917e-06
8.53394e-05
1.7335e-05
2.30138e-06
1.85366e-05
1.98431e-06
2.14816e-05
3.33788e-06
2.63601e-05
3.75878e-06
3.3679e-05
3.42889e-06
4.3998e-05
1.6453e-06
-2.24233e-06
6.1299e-07
-1.58609e-06
1.02184e-06
-1.02221e-06
1.30469e-06
-5.52005e-07
1.53421e-06
-1.7427e-07
1.77876e-06
1.11352e-07
2.09912e-06
3.16698e-07
2.57224e-06
3.56846e-07
3.22189e-06
7.07275e-05
1.86108e-05
9.15509e-07
1.8719e-05
5.39291e-07
1.9979e-05
1.80826e-06
2.30087e-05
2.37323e-06
2.7744e-05
2.34654e-06
3.47606e-05
1.16699e-06
-2.98156e-06
7.39245e-07
-2.184e-06
1.21093e-06
-1.50086e-06
1.50049e-06
-9.3435e-07
1.68702e-06
-4.82171e-07
1.84209e-06
-1.37621e-07
2.02772e-06
1.02652e-07
2.31316e-06
2.08735e-07
2.72036e-06
5.36308e-05
2.03188e-05
7.40417e-09
1.95188e-05
-4.60307e-07
1.97178e-05
6.46747e-07
2.11386e-05
1.33102e-06
2.4049e-05
1.49456e-06
2.85948e-05
7.96782e-07
-3.88057e-06
8.99045e-07
-2.90499e-06
1.46029e-06
-2.06817e-06
1.77826e-06
-1.37454e-06
1.94068e-06
-8.21064e-07
2.0259e-06
-3.95136e-07
2.0996e-06
-1.01627e-07
2.23199e-06
8.0399e-08
2.4415e-06
3.4486e-05
2.18658e-05
-4.67911e-07
2.07957e-05
-1.03075e-06
2.00906e-05
-1.58463e-07
2.05228e-05
5.27706e-07
2.19408e-05
8.40527e-07
2.47019e-05
5.07656e-07
-4.97694e-06
1.0964e-06
-3.78196e-06
1.77606e-06
-2.75253e-06
2.14468e-06
-1.89675e-06
2.30049e-06
-1.21157e-06
2.33118e-06
-6.78582e-07
2.30934e-06
-3.1245e-07
2.31041e-06
-3.97576e-08
2.35214e-06
1.40049e-05
2.29233e-05
-5.15391e-07
2.19154e-05
-1.14706e-06
2.09144e-05
-6.41565e-07
2.0575e-05
-1.27092e-08
2.10634e-05
3.41143e-07
2.24398e-05
2.90209e-07
-6.31309e-06
1.33618e-06
-4.85194e-06
2.16643e-06
-3.58569e-06
2.60924e-06
-2.52754e-06
2.77548e-06
-1.67552e-06
2.76445e-06
-1.00564e-06
2.65825e-06
-5.44593e-07
2.54148e-06
-1.63036e-07
2.43369e-06
-6.68365e-06
2.3041e-05
-2.70481e-07
2.26797e-05
-8.97513e-07
2.16677e-05
-7.82804e-07
2.10575e-05
-3.40798e-07
2.09042e-05
2.95067e-09
2.1402e-05
1.2617e-07
-7.93779e-06
1.62473e-06
-6.15694e-06
2.64123e-06
-4.60362e-06
3.1844e-06
-3.29679e-06
3.37852e-06
-2.23711e-06
3.33708e-06
-1.39516e-06
3.15397e-06
-8.13125e-07
2.92678e-06
-2.98643e-07
2.67709e-06
-2.65419e-05
2.22917e-05
6.53934e-08
2.27051e-05
-3.6707e-07
2.21496e-05
-6.48349e-07
2.15344e-05
-4.41352e-07
2.11593e-05
-2.01331e-07
2.11094e-05
1.58828e-08
-9.90603e-06
1.96828e-06
-7.74521e-06
3.21307e-06
-5.84717e-06
3.88483e-06
-4.2385e-06
4.12614e-06
-2.92384e-06
4.06527e-06
-1.8682e-06
3.81013e-06
-1.13429e-06
3.47514e-06
-4.56456e-07
3.08459e-06
-4.45723e-05
2.07072e-05
3.07793e-07
2.20486e-05
2.45559e-07
2.20918e-05
-3.19033e-07
2.18203e-05
-3.68027e-07
2.14617e-05
-2.65782e-07
2.12245e-05
-5.01904e-08
-1.22804e-05
2.37442e-06
-9.67105e-06
3.89418e-06
-7.36301e-06
4.72897e-06
-5.39132e-06
5.03771e-06
-3.76707e-06
4.96941e-06
-2.44891e-06
4.64601e-06
-1.52636e-06
4.2022e-06
-6.47275e-07
3.66596e-06
-6.02165e-05
1.87288e-05
2.7439e-07
2.07404e-05
7.78119e-07
2.15155e-05
6.46184e-08
2.17075e-05
-1.68212e-07
2.16203e-05
-2.23039e-07
2.1419e-05
-7.49747e-08
-1.51293e-05
2.84894e-06
-1.19961e-05
4.69945e-06
-9.20367e-06
5.73489e-06
-6.79965e-06
6.13737e-06
-4.80262e-06
6.07333e-06
-3.16486e-06
5.68539e-06
-2.01068e-06
5.13034e-06
-8.83407e-07
4.43835e-06
-7.33284e-05
1.67782e-05
-1.32412e-07
1.91364e-05
1.03413e-06
2.04851e-05
3.80491e-07
2.11996e-05
6.79495e-08
2.1471e-05
-1.0722e-07
2.15041e-05
-6.65678e-08
-1.85284e-05
3.39908e-06
-1.47877e-05
5.64053e-06
-1.14291e-05
6.92486e-06
-8.51365e-06
7.44893e-06
-6.07182e-06
7.40661e-06
-4.0478e-06
6.95631e-06
-2.61117e-06
6.28591e-06
-1.18104e-06
5.42799e-06
-8.40733e-05
1.51837e-05
-9.16384e-07
1.75636e-05
9.09652e-07
1.92627e-05
5.02233e-07
2.03644e-05
2.59575e-07
2.10082e-05
2.84798e-08
2.13351e-05
-3.43094e-08
-2.25598e-05
4.03129e-06
-1.81208e-05
6.73219e-06
-1.4105e-05
8.31644e-06
-1.05907e-05
9.00184e-06
-7.62166e-06
8.99878e-06
-5.1347e-06
8.49354e-06
-3.35603e-06
7.7012e-06
-1.55704e-06
6.66193e-06
-9.2801e-05
1.41558e-05
-2.09124e-06
1.63594e-05
3.71265e-07
1.81034e-05
3.60459e-07
1.9406e-05
3.26524e-07
2.02985e-05
1.36385e-07
2.09008e-05
4.4915e-09
4.75183e-06
-2.73116e-05
-2.20767e-05
7.98721e-06
-1.7305e-05
9.9321e-06
-1.30941e-05
1.08199e-05
-9.50636e-06
1.08865e-05
-6.4681e-06
1.03322e-05
-4.2785e-06
9.416e-06
-2.03212e-06
8.17628e-06
-9.98568e-05
1.37173e-05
-3.62e-06
1.56839e-05
-5.4396e-07
1.7274e-05
-7.12077e-08
1.85358e-05
2.16185e-07
1.95175e-05
1.66856e-07
2.0269e-05
3.44392e-08
9.41873e-06
-2.67436e-05
1.42576e-05
-4.15691e-05
-2.1109e-05
1.17913e-05
-1.60955e-05
1.29335e-05
-1.17866e-05
1.31e-05
-8.09733e-06
1.25157e-05
-5.41709e-06
1.14707e-05
-2.63225e-06
1.00161e-05
-0.000105613
1.39317e-05
-5.54914e-06
1.56442e-05
-1.7861e-06
1.69231e-05
-7.67129e-07
1.79689e-05
-8.98406e-08
1.8842e-05
9.02108e-08
1.95948e-05
4.39255e-08
1.39139e-05
-2.56041e-05
2.82775e-05
-4.07635e-05
1.91258e-05
-6.06949e-05
-1.96735e-05
1.53692e-05
-1.45312e-05
1.56782e-05
-1.00784e-05
1.50811e-05
-6.81685e-06
1.39154e-05
-3.38842e-06
1.22269e-05
-0.000110435
1.4838e-05
-7.91954e-06
1.62992e-05
-3.32434e-06
1.71786e-05
-1.72071e-06
1.78741e-05
-5.92351e-07
1.84702e-05
-9.6171e-08
1.90281e-05
2.1799e-08
1.81541e-05
-2.39137e-05
4.18103e-05
-3.91369e-05
3.79671e-05
-5.96048e-05
2.46571e-05
-8.53519e-05
-1.78174e-05
1.86554e-05
-1.24761e-05
1.80758e-05
-8.52955e-06
1.67938e-05
-4.33796e-06
1.4865e-05
-0.000114572
1.63636e-05
-1.0714e-05
1.76304e-05
-5.12643e-06
1.80984e-05
-2.91817e-06
1.8373e-05
-1.2772e-06
1.85566e-05
-3.99972e-07
1.87728e-05
-3.87382e-08
2.20682e-05
-2.17314e-05
5.46226e-05
-3.6726e-05
5.62153e-05
-5.73851e-05
4.89778e-05
-8.39256e-05
3.06189e-05
-0.000115971
-1.53646e-05
2.15439e-05
-1.06155e-05
2.01618e-05
-5.52479e-06
1.79806e-05
-0.000118204
1.84968e-05
-1.40106e-05
1.96598e-05
-7.22216e-06
1.97256e-05
-4.3522e-06
1.95304e-05
-2.13916e-06
1.92327e-05
-8.07733e-07
1.89627e-05
-1.43397e-07
2.55374e-05
-1.88337e-05
6.65145e-05
-3.36233e-05
7.35941e-05
-5.41047e-05
7.25701e-05
-8.09774e-05
6.08685e-05
-0.000114175
3.69166e-05
-0.000152887
-1.31458e-05
2.40742e-05
-7.00031e-06
2.16373e-05
-0.000121488
2.12657e-05
-1.79455e-05
2.24332e-05
-9.67925e-06
2.21191e-05
-6.04411e-06
2.14175e-05
-3.17386e-06
2.05639e-05
-1.32308e-06
1.97467e-05
-2.87626e-07
2.8605e-05
-1.62133e-05
7.71297e-05
-2.9449e-05
8.98812e-05
-4.99104e-05
9.51187e-05
-7.66534e-05
9.01686e-05
-0.000110277
7.36581e-05
-0.000150917
4.28924e-05
-0.00019578
-8.83173e-06
2.59056e-05
-0.000124468
2.46175e-05
-2.2751e-05
2.60741e-05
-1.25554e-05
2.53134e-05
-8.016e-06
2.40929e-05
-4.39327e-06
2.26371e-05
-1.94838e-06
2.11887e-05
-4.68525e-07
3.09599e-05
-1.11866e-05
8.65845e-05
-2.56681e-05
0.000104633
-4.4201e-05
0.000116401
-7.11923e-05
0.000118147
-0.000104632
0.000108959
-0.000145579
8.74468e-05
-0.000195471
4.08682e-05
-0.000236648
-0.000127229
2.86665e-05
-2.87416e-05
3.06114e-05
-1.59315e-05
2.9455e-05
-1.03032e-05
2.7604e-05
-5.80283e-06
2.55043e-05
-2.69924e-06
2.33885e-05
-6.84171e-07
3.59532e-05
-0.000132222
9.40012e-05
-1.86034e-05
0.000117962
-3.89968e-05
0.000135914
-6.37147e-05
0.000144592
-9.76371e-05
0.000142338
-0.000138011
0.000129352
-0.000187483
0.000102457
-0.00025706
2.5634e-05
-0.000262282
-3.65733e-05
3.65009e-05
-1.98691e-05
3.45527e-05
-1.29364e-05
3.20919e-05
-7.44988e-06
2.92539e-05
-3.56279e-06
2.63695e-05
-9.32797e-07
4.49039e-05
-4.55233e-05
0.000100066
-0.000138288
0.000129083
-2.97245e-05
0.000153751
-5.68333e-05
0.000168998
-8.8121e-05
0.000173586
-0.000128885
0.000168019
-0.000176678
0.000154069
-0.000239095
0.000118516
-0.000349942
9.16806e-05
-0.000353963
-2.43502e-05
4.09829e-05
-1.59346e-05
3.75533e-05
-9.33327e-06
3.39782e-05
-4.58248e-06
3.02758e-05
-1.21568e-06
4.89139e-05
-2.83627e-05
0.000134285
-7.97431e-05
0.000138691
-0.000147896
0.000169531
-4.5505e-05
0.000191432
-7.92672e-05
0.000202301
-0.000116835
0.000203169
-0.000164036
0.000198251
-0.000220861
0.000186638
-0.000307217
0.000179472
-0.000437733
0.000162543
-0.000516505
-1.92216e-05
4.42699e-05
-1.14755e-05
3.9697e-05
-5.73935e-06
3.51368e-05
-1.54977e-06
5.21224e-05
-2.24324e-05
0.000146943
-4.10249e-05
0.000192603
-0.000133658
0.000179903
-0.000158268
0.000212239
-6.63114e-05
0.000228548
-0.000105514
0.000234705
-0.000148372
0.000235582
-0.000201367
0.000236989
-0.000271212
0.000259846
-0.000387591
0.000252157
-0.000527348
0.000921957
-0.000290555
-0.00114791
-1.37982e-05
4.65919e-05
-7.0457e-06
4.10039e-05
-1.92811e-06
5.44951e-05
-1.61731e-05
0.000155915
-3.14092e-05
0.000204051
-5.24775e-05
0.000253825
-0.000207584
0.000224857
-0.000170886
0.000253714
-9.14775e-05
0.000262714
-0.000133523
0.000267133
-0.000179922
0.000274131
-0.000238508
0.000306413
-0.000317779
0.000343279
-0.000478713
0.000746864
-0.000352255
0.000874782
-0.000196257
-0.000969081
-0.000120659
-0.00102725
-8.45116e-06
4.79963e-05
-2.36328e-06
5.59605e-05
-9.91832e-06
0.0001622
-2.24607e-05
0.000210768
-3.81311e-05
0.000263785
-6.2441e-05
0.000303662
-0.00028639
0.000267182
-0.000184354
0.000289978
-0.000118741
0.00029308
-0.00015947
0.000301523
-0.000207315
0.000331111
-0.000263207
0.000384809
-0.000359309
0.000590162
-0.000322011
0.000745473
-0.000222946
0.000846748
-0.0001313
-0.000911704
-0.000140677
-0.000949063
-8.25057e-05
-0.000944742
-2.83459e-06
-3.33443e-06
0.000165994
-1.37141e-05
0.000215417
-2.71123e-05
0.000265984
-4.03333e-05
0.000314051
-7.28318e-05
0.000328616
-0.000347825
0.000302609
-0.000196985
0.000318159
-0.000143821
0.000320453
-0.0001784
0.000343464
-0.000219668
0.000390767
-0.000269165
0.000489017
-0.000258164
0.000621076
-0.000197614
0.000752752
-0.000128949
0.000873812
-9.0685e-05
-0.000914428
-0.000128455
-0.000923926
-0.000115512
-0.000916057
-6.45862e-05
-0.000880156
-4.63919e-06
0.000218307
-1.6606e-05
0.00026738
-2.851e-05
0.000311321
-3.76069e-05
0.000344574
-8.87917e-05
0.000332824
-0.000378041
0.000326743
-0.00020557
0.000337719
-0.000161086
0.000347896
-0.000182831
0.000382485
-0.000211386
0.000421008
-0.000201155
0.00052484
-0.000161929
0.000662695
-0.000107557
0.000795477
-5.06138e-05
0.000881439
-2.47953e-05
-0.000947328
-0.000114727
-0.000928155
-0.00013199
-0.000907448
-0.000109712
-0.000870931
-6.23704e-05
-0.000817786
-5.67452e-06
0.000268456
-1.76835e-05
0.000308951
-2.61415e-05
0.000338738
-3.17736e-05
0.000358644
-0.000114614
0.000326699
-0.000377997
0.00033819
-0.000206041
0.000350679
-0.000163869
0.000369374
-0.000169721
0.000367955
-0.000158332
0.000452866
-0.000129181
0.000578269
-7.75032e-05
0.000699643
-1.17229e-05
0.000810071
2.07536e-05
0.00100675
-2.39842e-06
-0.00102915
-0.000100471
-0.000961584
-0.00013974
-0.000920405
-0.000142598
-0.000874562
-0.000114792
-0.00081851
-6.16692e-05
-0.000756117
-6.13817e-06
0.000307782
-1.65166e-05
0.000333284
-2.06907e-05
0.000349337
-2.24703e-05
0.000361852
-0.000149769
0.000311019
-0.000350826
0.000338294
-0.000193656
0.000354293
-0.000148788
0.000327527
-0.000129293
0.000393165
-9.8631e-05
0.000497823
-4.87353e-05
0.000603489
1.86508e-05
0.000740229
5.812e-05
0.000917482
0.000110021
0.000931632
-4.93193e-06
-0.00105463
-7.42435e-06
6.72568e-05
6.56973e-05
-0.000108512
-0.0010211
-0.000142839
-0.000958485
-0.000167052
-0.000895951
-0.000162155
-0.000827199
-0.000120295
-0.000759884
-6.49165e-05
-0.0006912
-5.87834e-06
0.000329973
-1.32076e-05
0.000340126
-1.14831e-05
0.000345352
-5.97433e-06
0.000345219
-0.00018397
0.000291969
-0.000304502
0.000327879
-0.000167242
0.000294104
-0.000115365
0.000342931
-7.90588e-05
0.00042308
-2.38876e-05
0.000511888
4.28655e-05
0.000658557
0.000100322
0.000793349
0.000182253
0.000899543
0.000142109
-7.5104e-06
5.25217e-05
-8.36526e-05
3.37094e-05
-2.61048e-05
-0.00105743
-3.39766e-05
-2.13779e-05
-2.42516e-05
4.90418e-05
-6.82782e-05
4.30175e-06
-4.80779e-06
6.95987e-05
5.49876e-05
7.24291e-05
3.75023e-05
-0.000158386
-0.00100556
-0.000181362
-0.000944174
-0.000210399
-0.000847707
-0.000177503
-0.000769991
-0.000128608
-0.000696193
-6.85198e-05
-0.00062268
-4.87874e-06
0.000334229
-7.31294e-06
0.000330371
3.49511e-06
0.00032205
1.71915e-05
0.00030535
-0.000197353
0.000269158
-0.000245781
0.000257908
-0.000131046
0.000299355
-7.17889e-05
0.000356143
-1.21218e-05
0.000426713
6.12872e-05
0.000560797
0.000140626
0.000665039
0.000228632
0.000859875
0.000221922
-0.000103194
-0.000103465
0.00048548
-1.56116e-05
-2.09542e-05
1.98941e-05
2.19886e-05
-9.25006e-06
-0.000127272
2.67646e-05
4.23566e-06
2.70256e-05
3.90092e-06
-1.4528e-06
-0.00100955
-0.000206269
-0.000115656
4.1509e-06
-9.18872e-06
-0.000164048
2.45874e-05
-0.000158742
9.64634e-06
9.87213e-06
3.79273e-05
-3.9262e-05
7.56415e-06
-2.87451e-05
-4.85265e-05
-0.00018275
-0.00100417
-0.00026329
-0.000891283
-0.000236262
-0.000788948
-0.000191484
-0.000707115
-0.000137308
-0.000627404
-7.21197e-05
-0.000550561
-2.94318e-06
0.000321065
1.99243e-06
0.000302398
2.31447e-05
0.000279421
4.31187e-05
0.000250116
-0.000178312
0.000200438
-0.000188311
0.000254594
-8.62854e-05
0.000298732
-1.43775e-05
0.000349133
6.54592e-05
0.000453735
0.000168349
0.000537229
0.000268436
0.000792312
0.000296195
0.000606731
1.43249e-05
1.89153e-05
3.27023e-05
3.47274e-05
8.46389e-06
-0.000128719
0.000139733
-3.50894e-05
-0.000129837
0.000153003
-3.56568e-05
6.25701e-06
-0.000120303
5.2209e-06
-0.000115867
1.42764e-05
-3.26448e-07
1.73788e-05
1.36133e-05
1.38839e-05
-0.000174306
0.000186213
2.8675e-05
-4.6506e-05
3.23009e-05
-4.17136e-05
-0.000966503
-0.000225793
2.38335e-06
-3.9753e-05
-0.000400617
-1.25362e-05
-2.90138e-05
-1.43967e-05
-3.51265e-05
5.77124e-05
-1.59607e-05
-5.1309e-06
4.94805e-05
2.24748e-05
-0.000189775
0.000198681
2.61314e-05
-4.65261e-05
2.95154e-05
-4.34048e-05
1.4308e-05
1.90831e-05
-4.74191e-05
-4.16925e-06
-4.51208e-05
1.81686e-05
-4.25027e-05
-3.78396e-06
-4.28718e-05
-0.000327362
-0.000940098
-0.000307227
-0.000820318
-0.000254182
-0.00072625
-0.000207048
-0.000637375
-0.000145163
-0.000554361
-7.49876e-05
-0.000475573
2.1539e-07
0.000290139
1.42511e-05
0.000257656
4.49083e-05
0.000222243
7.09921e-05
0.000159148
-0.000137021
0.000187861
-0.000121579
0.000242885
-3.04382e-05
0.000281835
5.29204e-05
0.000348563
0.000170631
0.00041414
0.000291438
0.000665442
0.000395306
0.000678278
4.7487e-05
4.58084e-05
6.77202e-05
6.3633e-05
4.01053e-06
-0.000100275
-9.71317e-06
-9.65168e-05
3.57558e-06
1.39169e-06
-6.58175e-05
-3.14711e-06
-6.77243e-05
7.32666e-06
2.24989e-06
-0.00026399
3.82819e-05
0.000114172
-5.45491e-05
3.12406e-05
1.48922e-05
-4.92352e-05
2.05005e-05
0.000111364
-0.000264338
3.74835e-05
0.000114087
2.93637e-05
-5.25964e-05
1.63058e-05
-4.69832e-05
2.17831e-05
0.000111488
2.08327e-06
-0.000246905
-3.3951e-05
3.02001e-05
-3.87325e-05
2.85625e-05
-0.000245077
-3.05737e-05
3.23282e-05
-3.53992e-05
3.07437e-05
1.09718e-05
0.000219338
3.66913e-05
-5.40416e-05
3.32403e-05
-4.63731e-05
8.1155e-05
2.35902e-05
1.70659e-06
-8.97534e-05
1.19766e-05
-2.33244e-05
-6.4281e-05
6.82978e-05
-2.71985e-05
9.61405e-07
7.4171e-05
1.49992e-05
-5.53267e-05
-2.70776e-05
-0.000915904
-0.000377961
-0.000493429
-2.99322e-05
-3.87665e-05
-2.60161e-05
-3.82665e-05
2.82078e-07
-0.000207656
0.000220912
-2.60746e-05
-0.000213441
0.000225618
-4.09089e-05
9.38257e-07
-0.000226368
3.37664e-06
-0.000236003
-1.16261e-05
0.000230787
3.32842e-05
-5.24727e-05
2.96806e-05
-4.75873e-05
5.09483e-06
4.58596e-05
-2.51458e-05
5.2061e-05
-3.54191e-05
4.13661e-05
-2.61038e-05
4.68375e-05
-3.97465e-05
8.53773e-05
2.38703e-05
-9.25042e-05
1.10947e-05
-2.30838e-05
-6.46188e-05
6.96397e-05
-2.84632e-05
7.9085e-05
1.36853e-05
-5.56036e-05
-2.85497e-05
-9.41338e-05
1.87719e-05
1.55511e-06
3.13655e-06
-2.52919e-05
4.8495e-05
-3.23403e-05
6.32304e-07
-1.00543e-05
-3.31809e-05
-9.50614e-05
1.92524e-05
3.02825e-06
-2.47946e-05
4.85049e-05
-2.87296e-05
-8.92048e-06
-3.07181e-05
-0.000391414
-0.000855911
-0.000316465
-0.000758035
-0.000278821
-0.000654478
-0.000220485
-0.000562053
-0.000151004
-0.000478344
-7.70863e-05
-0.000398487
4.49745e-06
0.000244353
2.75542e-05
0.000199242
6.79102e-05
0.000135963
9.41781e-05
0.00011702
-6.61788e-05
0.000162581
-4.12748e-05
0.000215766
3.56306e-05
0.000257997
0.000143487
0.000300109
0.000284662
0.00049443
0.00046245
0.000646822
8.79272e-05
8.67432e-05
0.000126707
0.000125384
5.90627e-07
-3.60843e-05
1.71631e-05
-4.26418e-05
2.13166e-05
1.98517e-07
-1.76389e-05
4.90762e-05
-2.44682e-05
4.5658e-05
6.55004e-07
-0.000237719
-3.44078e-05
2.81457e-05
-3.87708e-05
2.5498e-05
-0.000235213
-3.01585e-05
3.06472e-05
-3.3861e-05
2.77441e-05
9.26719e-07
-0.000199263
-4.37276e-05
2.04295e-05
-4.22694e-05
2.30343e-05
-0.000197434
-3.92791e-05
2.24222e-05
-3.76709e-05
2.4991e-05
-2.06933e-05
-6.6701e-05
6.52836e-05
-3.24383e-05
-5.37965e-06
4.25654e-05
-3.82854e-05
-5.6891e-05
8.01391e-07
-7.76159e-06
5.80321e-05
-1.82324e-05
-7.40071e-05
-2.36967e-05
2.60294e-07
-6.31877e-05
8.29583e-06
4.22711e-07
9.62529e-05
-7.35321e-07
-5.05447e-06
4.1162e-05
-3.54734e-05
-2.04784e-05
-6.77058e-05
6.61304e-05
-3.05427e-05
-5.75419e-05
5.87698e-05
-4.59898e-06
-1.77175e-05
-7.48447e-05
-2.21268e-05
-6.33546e-05
1.01388e-05
9.69891e-05
9.46287e-07
-1.79679e-05
7.63941e-05
-7.60729e-05
-1.63042e-05
6.64656e-05
-1.81689e-07
-6.84641e-05
1.4413e-05
-1.76202e-05
-1.87251e-05
-1.29863e-07
1.43327e-05
-1.75363e-05
7.69224e-05
-7.67471e-05
-1.32127e-05
6.61555e-05
-6.78938e-05
1.63485e-05
-1.71669e-05
-1.61546e-05
1.62477e-05
-6.68623e-05
2.06721e-05
7.07621e-07
6.2141e-05
2.00329e-05
-2.2209e-05
6.72496e-05
-3.07845e-05
8.0232e-07
1.75377e-05
6.95241e-05
-2.79756e-05
8.55729e-05
1.87078e-05
9.65902e-07
-9.23568e-05
-9.13353e-07
-2.13389e-05
-5.30874e-05
5.86309e-05
-1.1403e-05
7.09999e-07
7.85903e-05
-5.72633e-08
-4.49119e-05
-1.65453e-05
-0.000841794
-0.000465524
-0.000571923
-0.000100355
-8.71667e-05
-5.54923e-05
-5.6453e-05
2.51885e-06
-0.000223126
0.000215714
-2.50388e-05
-0.000228754
0.000217471
-2.49647e-05
1.78833e-06
-3.00179e-05
-3.96137e-05
3.33054e-06
-0.000244865
0.000257892
-5.27304e-05
2.94698e-05
-4.89551e-05
2.98021e-05
-0.000250766
0.000259898
-5.30734e-05
2.73857e-05
-4.95676e-05
2.85446e-05
3.65021e-06
-0.000103783
-2.67238e-05
-1.51621e-05
-0.00010719
3.557e-05
-3.79247e-05
3.56923e-05
-2.56096e-05
-0.000105541
-2.84299e-05
-1.73245e-05
-0.000109169
3.34814e-05
-3.87001e-05
3.44797e-05
-2.7539e-05
-7.16272e-05
2.12361e-05
6.637e-05
1.80127e-05
-2.20551e-05
6.98141e-05
-3.05919e-05
1.58855e-05
7.24227e-05
-2.89599e-05
5.24745e-05
2.59781e-05
6.11751e-07
2.89362e-05
-4.06773e-05
-7.87033e-05
-9.54796e-06
1.80291e-07
3.69631e-05
-1.86201e-05
5.57043e-05
2.62339e-05
2.64098e-05
-4.01429e-05
-8.08139e-05
-1.06876e-05
3.41493e-05
-2.19037e-05
8.66485e-05
1.87636e-05
-9.29766e-05
-3.75108e-07
-2.09569e-05
-5.38699e-05
5.88544e-05
-1.24909e-05
8.02123e-05
-1.25277e-07
-4.52646e-05
-1.83913e-05
7.96122e-06
1.33111e-06
-2.27051e-06
-2.75662e-05
8.3412e-06
3.06061e-08
-2.64796e-05
-0.000380098
-0.000792278
-0.000356185
-0.00068067
-0.000300856
-0.000574107
-0.000229365
-0.000483692
-0.000155045
-0.000400386
-7.85262e-05
-0.000319961
9.03793e-06
0.000184918
4.18769e-05
0.000118313
8.55615e-05
8.87721e-05
0.000122428
6.25629e-05
3.38402e-05
0.000118027
5.64645e-05
0.000170169
0.000123458
0.000203772
0.000239824
0.000294318
0.000484774
0.00047533
0.000142224
0.000140051
0.000176769
0.000174898
-4.60364e-07
-3.8249e-06
7.45736e-05
-7.90387e-06
6.97185e-05
-1.07095e-06
1.63601e-05
0.000107593
1.44027e-05
0.000102006
9.33426e-07
-0.000166596
-3.68772e-05
2.56919e-05
-3.05677e-05
2.52949e-05
-0.0001679
-3.3093e-05
2.69858e-05
-2.75426e-05
2.63705e-05
8.05012e-07
-0.000127988
-1.14386e-05
1.58431e-05
-2.17047e-05
2.69791e-05
-0.000134019
-1.04352e-05
1.5435e-05
-1.9256e-05
2.68512e-05
-1.83834e-05
-7.50956e-05
-1.70018e-05
-6.93628e-05
-5.2011e-07
1.11725e-05
-1.84582e-05
-7.39609e-05
-2.14501e-05
-8.13345e-07
-6.96564e-05
8.12741e-06
-1.7619e-05
-7.55407e-05
-1.37461e-05
-6.83498e-05
1.2964e-05
-1.72554e-05
-7.39558e-05
-1.81905e-05
-6.82595e-05
9.59051e-06
-1.45382e-05
7.02123e-05
-6.62794e-05
-3.312e-05
6.75624e-05
-1.11771e-06
-6.75268e-05
6.96202e-06
-1.66442e-05
-2.9371e-05
-9.15298e-07
5.2217e-06
-1.32065e-05
6.97918e-05
-6.5756e-05
-3.01085e-05
6.62285e-05
-6.59536e-05
7.81833e-06
-1.56144e-05
-2.62205e-05
6.42484e-06
-1.42527e-05
4.72624e-05
-5.82177e-06
-2.64728e-05
-2.5082e-05
1.70291e-07
8.87546e-07
4.51188e-05
-1.04256e-05
-3.91274e-05
4.50736e-07
-3.45981e-05
-1.4306e-05
4.93251e-05
-5.70439e-06
-2.6985e-05
4.56146e-05
-2.55754e-05
-1.01498e-05
-3.96351e-05
-3.51535e-05
-1.27308e-05
4.20442e-05
-4.32436e-05
3.8421e-05
3.51803e-07
-4.03728e-05
-1.2696e-05
4.98511e-07
-1.23473e-05
4.20084e-05
-4.28068e-05
3.87676e-05
-4.02897e-05
-1.24003e-05
-7.41828e-05
2.3828e-05
7.58861e-07
7.00996e-05
-4.7831e-07
-2.26647e-05
6.16759e-05
-1.11648e-05
6.91529e-07
-1.41976e-06
6.70199e-05
-9.49173e-06
3.33559e-05
7.33304e-06
6.13865e-07
-3.55689e-05
-7.07321e-06
-3.34667e-05
3.13729e-05
6.16338e-07
3.30419e-05
-3.7152e-05
-0.000806831
-0.000415061
-0.000600844
-0.00011499
-0.000112449
-0.000112433
-9.67312e-05
3.95941e-06
-0.000202178
0.000172981
-7.51168e-05
-0.000203045
0.000172911
-5.30734e-05
3.95898e-06
-4.59158e-05
-3.8068e-05
3.33886e-06
-0.00026721
0.000259775
-5.22044e-05
4.32214e-05
-5.02628e-05
3.83175e-05
-0.000263902
0.000250484
-4.69087e-05
4.47046e-05
-4.5825e-05
3.98103e-05
3.20181e-06
-5.26936e-05
2.81416e-05
-5.08557e-05
3.28886e-05
-5.1602e-05
2.72839e-05
-4.84003e-05
3.2308e-05
-2.83252e-05
-7.14378e-05
7.06456e-05
-2.36129e-05
-5.96776e-05
-1.11936e-06
6.38298e-05
-1.91639e-06
-2.56565e-05
-7.28542e-05
-2.18821e-05
-1.71069e-06
-5.87202e-05
4.89877e-06
-2.74091e-05
-7.21585e-05
7.0452e-05
-2.39578e-05
-6.14184e-05
6.5107e-05
-4.83148e-06
-2.51979e-05
-7.28114e-05
-2.37169e-05
-5.96104e-05
-1.7193e-07
-1.68567e-05
7.42278e-05
-7.58476e-05
3.31436e-06
-4.11934e-05
-8.13366e-05
5.79197e-06
5.78191e-05
-3.3717e-07
2.473e-05
-6.35189e-05
-2.22905e-05
-1.42605e-05
-8.90579e-07
1.33912e-05
-2.25225e-07
-5.7824e-05
2.82196e-05
-1.69236e-05
7.3635e-05
-7.71738e-05
3.13796e-06