/*--------------------------------*- C++ -*----------------------------------*\
| =========                 |                                                 |
| \\      /  F ield         | OpenFOAM: The Open Source CFD Toolbox           |
|  \\    /   O peration     | Version:  5.x                                   |
|   \\  /    A nd           | Web:      www.OpenFOAM.org                      |
|    \\/     M anipulation  |                                                 |
\*---------------------------------------------------------------------------*/
FoamFile
{
    version     2.0;
    format      ascii;
    class       volScalarField;
    location    "0.4";
    object      rAU;
}
// * * * * * * * * * * * * * * * * * * * * * * * * * * * * * * * * * * * * * //

dimensions      [-1 3 1 0 0 0 0];

internalField   nonuniform List<scalar> 
12160
(
2.35652e-06
2.35689e-06
2.35632e-06
2.36031e-06
2.35665e-06
2.35611e-06
2.36251e-06
2.36031e-06
2.35573e-06
2.35593e-06
2.36248e-06
2.3625e-06
2.36029e-06
2.35484e-06
2.3557e-06
2.36313e-06
2.36247e-06
2.36257e-06
2.35927e-06
2.35421e-06
2.3555e-06
2.36317e-06
2.36313e-06
2.36254e-06
2.36217e-06
2.35702e-06
2.35384e-06
2.3584e-06
2.36323e-06
2.36317e-06
2.36353e-06
2.36254e-06
2.36222e-06
2.3556e-06
2.35646e-06
2.35492e-06
2.36328e-06
2.36323e-06
2.36353e-06
2.36353e-06
2.36259e-06
2.3607e-06
2.35769e-06
2.35633e-06
3.51314e-06
2.36332e-06
2.36328e-06
2.36352e-06
2.36353e-06
2.36353e-06
2.36105e-06
2.36082e-06
2.36043e-06
3.4385e-06
6.10723e-05
2.36336e-06
2.36332e-06
2.36352e-06
2.36352e-06
2.36353e-06
2.36225e-06
2.35774e-06
2.35833e-06
3.77995e-06
2.40683e-05
0.00210896
2.36339e-06
2.36336e-06
2.36351e-06
2.36352e-06
2.36352e-06
2.36244e-06
2.35923e-06
2.35497e-06
4.6376e-06
2.7539e-05
0.00119655
0.00235247
2.36342e-06
2.36339e-06
2.36351e-06
2.36351e-06
2.36352e-06
2.36264e-06
2.35989e-06
2.35697e-06
5.85981e-06
4.44868e-05
0.00111723
0.00235472
0.00235843
2.36344e-06
2.36342e-06
2.36351e-06
2.36351e-06
2.36351e-06
2.36281e-06
2.36059e-06
2.35805e-06
7.8136e-06
9.11942e-05
0.00145167
0.00236037
0.0023599
0.00235903
2.36345e-06
2.36344e-06
2.36351e-06
2.36351e-06
2.36351e-06
2.36296e-06
2.36119e-06
2.35915e-06
1.04759e-05
0.000205706
0.00204735
0.00236184
0.00236209
0.00236345
0.00234034
2.36346e-06
2.36345e-06
2.36351e-06
2.36351e-06
2.36351e-06
2.36308e-06
2.36171e-06
2.36009e-06
1.42714e-05
0.000460131
0.00229229
0.00236302
0.00236103
0.00236291
0.00235357
2.36347e-06
2.36346e-06
2.36351e-06
2.36351e-06
2.36351e-06
2.36318e-06
2.36212e-06
2.36087e-06
1.95298e-05
0.000905864
0.00234788
0.00236346
0.00236321
0.00236121
0.00236296
2.36348e-06
2.36347e-06
2.3635e-06
2.36351e-06
2.36351e-06
2.36326e-06
2.36245e-06
2.36149e-06
2.68086e-05
0.00146761
0.00235792
0.00236347
0.00236346
0.00236326
0.00235975
2.36348e-06
2.36348e-06
2.3635e-06
2.3635e-06
2.3635e-06
2.36332e-06
2.36271e-06
2.36198e-06
3.68041e-05
0.00190908
0.00236021
0.00236347
0.00236347
0.00236342
0.00235845
2.36349e-06
2.36348e-06
2.3635e-06
2.3635e-06
2.3635e-06
2.36337e-06
2.36291e-06
2.36235e-06
5.04361e-05
0.00216499
0.00236344
0.00236347
0.00236347
0.00236344
0.00235826
2.36349e-06
2.36349e-06
2.3635e-06
2.3635e-06
2.3635e-06
2.3634e-06
2.36306e-06
2.36264e-06
6.88804e-05
0.00228153
0.00236347
0.00236347
0.00236347
0.00236347
0.00235862
2.36349e-06
2.36349e-06
2.3635e-06
2.3635e-06
2.3635e-06
2.36343e-06
2.36317e-06
2.36285e-06
9.36043e-05
0.00232987
0.00236347
0.00236347
0.00236347
0.00236347
0.00235941
2.3635e-06
2.36349e-06
2.3635e-06
2.3635e-06
2.3635e-06
2.36345e-06
2.36325e-06
2.36301e-06
0.00012637
0.00234934
0.00236347
0.00236347
0.00236347
0.00236346
0.00236016
2.3635e-06
2.3635e-06
2.3635e-06
2.3635e-06
2.3635e-06
2.36346e-06
2.36331e-06
2.36313e-06
0.000169176
0.00235723
0.00236346
0.00236346
0.00236346
0.00236346
0.00236087
2.3635e-06
2.3635e-06
2.3635e-06
2.3635e-06
2.3635e-06
2.36347e-06
2.36335e-06
2.36322e-06
0.000224079
0.0023605
0.00236318
0.00236346
0.00236346
0.00236346
0.00236147
2.3635e-06
2.3635e-06
2.3635e-06
2.3635e-06
2.3635e-06
2.36347e-06
2.36339e-06
2.36329e-06
0.00029279
0.00236191
0.00236299
0.00236318
0.00236346
0.00236346
0.00236195
2.3635e-06
2.3635e-06
2.3635e-06
2.3635e-06
2.3635e-06
2.36348e-06
2.36341e-06
2.36333e-06
0.000376126
0.00236253
0.00236306
0.00236248
0.00236346
0.00236346
0.00236232
2.36349e-06
2.3635e-06
2.3635e-06
2.3635e-06
2.3635e-06
2.36348e-06
2.36342e-06
2.36337e-06
0.000472591
0.00236283
0.0023631
0.00236263
0.00236295
0.00236346
0.00236259
2.36349e-06
2.36349e-06
2.3635e-06
2.3635e-06
2.3635e-06
2.36348e-06
2.36343e-06
2.36339e-06
0.00057727
0.00236295
0.00236312
0.00236272
0.00236259
0.00236346
0.00236278
2.36349e-06
2.36349e-06
2.3635e-06
2.3635e-06
2.3635e-06
2.36348e-06
2.36343e-06
2.36341e-06
0.000681048
0.00236266
0.00236312
0.00236276
0.00236268
0.00236302
0.00236292
2.36348e-06
2.36349e-06
2.3635e-06
2.3635e-06
2.3635e-06
2.36348e-06
2.36343e-06
2.36342e-06
0.000770568
0.00236264
0.00236276
0.00236277
0.00236273
0.00236306
0.00236301
2.36348e-06
2.36348e-06
2.3635e-06
2.3635e-06
2.3635e-06
2.36348e-06
2.36343e-06
2.36342e-06
0.00083105
0.0023626
0.00236271
0.00236275
0.00236274
0.00236309
0.00236306
2.36347e-06
2.36348e-06
2.3635e-06
2.3635e-06
2.3635e-06
2.36348e-06
2.36343e-06
2.36341e-06
0.000851158
0.00236256
0.00236267
0.00236271
0.00236273
0.00236273
0.00236309
2.36346e-06
2.36347e-06
2.3635e-06
2.3635e-06
2.3635e-06
2.36347e-06
2.36342e-06
2.3634e-06
0.000828194
0.00236258
0.00236263
0.00236267
0.00236271
0.00236272
0.00236274
2.36345e-06
2.36346e-06
2.3635e-06
2.3635e-06
2.3635e-06
2.36347e-06
2.3634e-06
2.36339e-06
0.000768392
0.00236255
0.00236262
0.00236265
0.00236268
0.0023627
0.00236273
2.36344e-06
2.36345e-06
2.3635e-06
2.3635e-06
2.3635e-06
2.36346e-06
2.36338e-06
2.36336e-06
0.000684591
0.00236258
0.00236262
0.00236263
0.00236266
0.00236268
0.00236272
2.36343e-06
2.36344e-06
2.3635e-06
2.3635e-06
2.3635e-06
2.36345e-06
2.36336e-06
2.36333e-06
0.000590491
0.00236262
0.00236265
0.00236264
0.00236265
0.00236266
0.0023627
2.36341e-06
2.36343e-06
2.3635e-06
2.3635e-06
2.3635e-06
2.36344e-06
2.36332e-06
2.36328e-06
0.000497057
0.00236264
0.00236269
0.00236266
0.00236265
0.00236265
0.00236268
2.36339e-06
2.36341e-06
2.36349e-06
2.3635e-06
2.3635e-06
2.36342e-06
2.36328e-06
2.36323e-06
0.000411153
0.00236297
0.00236273
0.00236269
0.00236266
0.00236265
0.00236267
2.36364e-06
2.3634e-06
2.36349e-06
2.3635e-06
2.3635e-06
2.3634e-06
2.36322e-06
2.36316e-06
0.000336041
0.00236289
0.0023631
0.00236271
0.00236268
0.00236266
0.00236267
2.36364e-06
2.36345e-06
2.36349e-06
2.3635e-06
2.3635e-06
2.36338e-06
2.36315e-06
2.36308e-06
0.000272571
0.00236273
0.0023631
0.00236273
0.0023627
0.00236268
0.00236268
2.36374e-06
2.36345e-06
2.36323e-06
2.36349e-06
2.3635e-06
2.36335e-06
2.36307e-06
2.36297e-06
0.00022011
0.00236244
0.00236309
0.00236273
0.0023627
0.00236307
0.0023627
2.36373e-06
2.36359e-06
2.36324e-06
2.36312e-06
2.3635e-06
2.36331e-06
2.36296e-06
2.36285e-06
0.000177376
0.00236191
0.00236306
0.0023627
0.00236269
0.00236307
0.00236308
2.3637e-06
2.36359e-06
2.36346e-06
2.36312e-06
2.36298e-06
2.36327e-06
2.36284e-06
2.3627e-06
0.000142892
0.00236093
0.00236301
0.00236264
0.00236265
0.00236306
0.00236308
2.3634e-06
2.36358e-06
2.36346e-06
2.36344e-06
2.36298e-06
2.36281e-06
2.3627e-06
2.36252e-06
0.000115228
0.00235914
0.00236295
0.00236278
0.00236281
0.00236304
0.00236307
2.36268e-06
2.3632e-06
2.36347e-06
2.36344e-06
2.3634e-06
2.36281e-06
2.36329e-06
2.3623e-06
9.31094e-05
0.00235582
0.00236316
0.00236295
0.00236321
0.00236323
0.00236305
2.36216e-06
2.36226e-06
2.36292e-06
2.36345e-06
2.36341e-06
2.36336e-06
2.36329e-06
2.35932e-06
7.54447e-05
0.00234978
0.00236344
0.00236316
0.00236345
0.00236345
0.00236301
6.1383e-05
2.36161e-06
2.36156e-06
2.3627e-06
2.36342e-06
2.36337e-06
2.3633e-06
2.36321e-06
2.35428e-06
0.00233866
0.00236344
0.00236344
0.00236345
0.00236345
0.00236295
0.00231616
4.46538e-05
2.36062e-06
2.36078e-06
2.36246e-06
2.36338e-06
2.36331e-06
2.36322e-06
2.36228e-06
2.35399e-06
0.00236344
0.00236344
0.00236344
0.00236345
0.00236287
0.00236371
0.00225278
2.86814e-05
2.35942e-06
2.35988e-06
2.36224e-06
2.36333e-06
2.36324e-06
2.36232e-06
2.35093e-06
2.34434e-06
0.00236344
0.00236344
0.00236345
0.00236277
0.00236366
0.00236356
0.00198612
1.91097e-05
2.35799e-06
2.35891e-06
2.3621e-06
2.36326e-06
2.36315e-06
2.35936e-06
2.33508e-06
2.31933e-06
0.00236344
0.00236344
0.00236265
0.0023636
0.00236354
0.0023634
0.0014488
1.32535e-05
2.35636e-06
2.35795e-06
2.36214e-06
2.36319e-06
2.36305e-06
2.35063e-06
2.34449e-06
2.34694e-06
2.3268e-06
0.00236344
0.00236249
0.00236354
0.00236352
0.00236343
0.00236001
0.000808733
9.58095e-06
2.35464e-06
2.35714e-06
2.36276e-06
2.36312e-06
2.35881e-06
2.35177e-06
2.35715e-06
2.3437e-06
2.34408e-06
2.35379e-06
0.0023623
0.00236212
0.0023635
0.00236344
0.00236342
0.00235723
0.000385845
7.22939e-06
2.35288e-06
2.35686e-06
2.36318e-06
2.36156e-06
2.3578e-06
2.36094e-06
2.35887e-06
2.35809e-06
2.3276e-06
2.35896e-06
2.36351e-06
0.0023617
0.00236345
0.00236344
0.00236342
0.00234493
0.000183637
5.69812e-06
2.35113e-06
2.35626e-06
2.36275e-06
2.36128e-06
2.3635e-06
2.3635e-06
2.36043e-06
2.36258e-06
2.36019e-06
2.34448e-06
2.36351e-06
2.3635e-06
0.00236094
0.00236345
0.00236343
0.00236342
0.00229202
9.50537e-05
4.68987e-06
2.34931e-06
2.35848e-06
2.36276e-06
2.3635e-06
2.3635e-06
2.36313e-06
2.36187e-06
2.35761e-06
2.36135e-06
2.36351e-06
2.36351e-06
2.36351e-06
2.3635e-06
0.00236011
0.00236344
0.00236343
0.00236342
0.00212587
5.51881e-05
4.02053e-06
2.35091e-06
2.3622e-06
2.3635e-06
2.3635e-06
2.3635e-06
2.36158e-06
2.35885e-06
2.35029e-06
2.35305e-06
2.35951e-06
2.36351e-06
2.36351e-06
2.36351e-06
2.3635e-06
0.00235931
0.00236344
0.00236344
0.00236338
0.001787
3.59066e-05
3.58938e-06
2.35407e-06
2.36269e-06
2.3635e-06
2.3635e-06
2.3635e-06
2.3557e-06
2.3486e-06
2.35291e-06
2.32991e-06
2.35336e-06
2.31395e-06
2.3182e-06
2.35512e-06
2.35846e-06
2.36351e-06
2.36351e-06
2.36351e-06
2.3635e-06
0.00235865
0.00236345
0.00236345
0.00236316
0.00135953
2.60816e-05
3.33435e-06
2.36269e-06
2.3635e-06
2.3635e-06
2.3635e-06
2.35813e-06
2.35257e-06
2.35313e-06
2.33217e-06
2.35567e-06
2.31816e-06
2.33631e-06
2.32225e-06
2.33538e-06
2.34444e-06
2.33704e-06
2.34435e-06
2.35343e-06
2.35622e-06
2.36351e-06
2.36351e-06
2.36351e-06
2.36351e-06
0.00235816
0.00236345
0.00236347
0.00236237
0.000998353
2.12402e-05
3.21846e-06
2.3635e-06
2.3635e-06
2.3635e-06
2.35884e-06
2.35016e-06
2.35634e-06
2.32677e-06
2.3266e-06
2.30806e-06
2.3086e-06
2.35382e-06
2.29947e-06
2.345e-06
2.3548e-06
2.34026e-06
2.35478e-06
2.34078e-06
2.32648e-06
2.30512e-06
2.34126e-06
2.3541e-06
2.36205e-06
2.36351e-06
2.36351e-06
2.36351e-06
2.36351e-06
0.00235797
0.00236342
0.0023635
0.00235783
0.000786842
1.88893e-05
3.15011e-06
2.3635e-06
2.3635e-06
2.36094e-06
2.34809e-06
2.35215e-06
2.33391e-06
2.33186e-06
2.35972e-06
2.35591e-06
2.23211e-06
2.2426e-06
2.25916e-06
2.27526e-06
2.29939e-06
2.26286e-06
2.16395e-06
2.25481e-06
2.13991e-06
2.33872e-06
2.3511e-06
2.30862e-06
2.31253e-06
2.36084e-06
2.35499e-06
2.29265e-06
2.30364e-06
2.29685e-06
2.26825e-06
2.18277e-06
2.2623e-06
2.16076e-06
2.27349e-06
2.09289e-06
2.12285e-06
2.14601e-06
2.27853e-06
2.10494e-06
2.12852e-06
2.15867e-06
2.3599e-06
2.36351e-06
2.36351e-06
2.36351e-06
2.36351e-06
2.36351e-06
0.00235814
0.00236344
0.00236066
0.0023528
0.000676957
1.79202e-05
3.15503e-06
2.3635e-06
2.3635e-06
2.3609e-06
2.34373e-06
2.3579e-06
2.35748e-06
2.35598e-06
2.35512e-06
2.31626e-06
2.32404e-06
2.33627e-06
2.33797e-06
2.10213e-06
2.15677e-06
2.14011e-06
2.12806e-06
2.11139e-06
2.1618e-06
2.1741e-06
2.07215e-06
2.1179e-06
2.0522e-06
2.08494e-06
2.15792e-06
2.26044e-06
2.05297e-06
2.1923e-06
2.05465e-06
2.26708e-06
2.04854e-06
2.13725e-06
2.04897e-06
2.16001e-06
2.14292e-06
2.24547e-06
2.10659e-06
2.27841e-06
2.31349e-06
2.30545e-06
2.3029e-06
2.32052e-06
2.33495e-06
2.33626e-06
2.27061e-06
2.30525e-06
2.26524e-06
2.32276e-06
2.26644e-06
2.28398e-06
2.28116e-06
2.17904e-06
2.14546e-06
2.24525e-06
2.08173e-06
2.06899e-06
2.09217e-06
2.07424e-06
2.17804e-06
2.09482e-06
2.07219e-06
2.08338e-06
2.1289e-06
2.27642e-06
2.32178e-06
2.30846e-06
2.29414e-06
2.16876e-06
2.22268e-06
2.16657e-06
2.22232e-06
2.36351e-06
2.36351e-06
2.36351e-06
2.36351e-06
2.36351e-06
2.36351e-06
0.00235861
0.00236165
0.00235749
0.0023533
0.000646495
1.83821e-05
3.22734e-06
2.3635e-06
2.36163e-06
2.35147e-06
2.34543e-06
2.34479e-06
2.34561e-06
2.34505e-06
2.33805e-06
2.33897e-06
2.34372e-06
2.34803e-06
2.24987e-06
2.13235e-06
2.21165e-06
2.1451e-06
2.25386e-06
2.12117e-06
2.22381e-06
2.13702e-06
2.24878e-06
2.10012e-06
2.23052e-06
2.09734e-06
2.25608e-06
2.10182e-06
2.24442e-06
2.09787e-06
2.19809e-06
2.04114e-06
2.06255e-06
2.21647e-06
2.21204e-06
2.18535e-06
2.18925e-06
2.02917e-06
2.21515e-06
2.04434e-06
2.20709e-06
2.1665e-06
2.30856e-06
2.24593e-06
2.29567e-06
2.28332e-06
2.30083e-06
2.23657e-06
2.29243e-06
2.26987e-06
2.22197e-06
2.30082e-06
2.28827e-06
2.27618e-06
2.33763e-06
2.33384e-06
2.3391e-06
2.32404e-06
2.34499e-06
2.31987e-06
2.3093e-06
2.312e-06
2.3107e-06
2.28954e-06
2.23745e-06
2.22368e-06
2.2876e-06
2.21987e-06
2.20372e-06
2.26013e-06
2.09203e-06
2.255e-06
2.2063e-06
2.26266e-06
2.09273e-06
2.26643e-06
2.22025e-06
2.10044e-06
2.20831e-06
2.11655e-06
2.23454e-06
2.11128e-06
2.22052e-06
2.0999e-06
2.21099e-06
2.11572e-06
2.24369e-06
2.11622e-06
2.21665e-06
2.31293e-06
2.28745e-06
2.2944e-06
2.13941e-06
2.23383e-06
2.13974e-06
2.2451e-06
2.33531e-06
2.32898e-06
2.33411e-06
2.31812e-06
2.33585e-06
2.28851e-06
2.34056e-06
2.29525e-06
2.36351e-06
2.36351e-06
2.36351e-06
2.36351e-06
2.36351e-06
2.36351e-06
0.00235956
0.00236125
0.00235948
0.00235643
0.000722698
2.08729e-05
3.44867e-06
2.36258e-06
2.35629e-06
2.33277e-06
2.33325e-06
2.34135e-06
2.34162e-06
2.35219e-06
2.35649e-06
2.36026e-06
2.36149e-06
2.24976e-06
2.16491e-06
2.25803e-06
2.26561e-06
2.25424e-06
2.17247e-06
2.26701e-06
2.27301e-06
2.21701e-06
2.19959e-06
2.25325e-06
2.27681e-06
2.21679e-06
2.20598e-06
2.25463e-06
2.28202e-06
2.32446e-06
2.26848e-06
2.33393e-06
2.3262e-06
2.31131e-06
2.25632e-06
2.32254e-06
2.29963e-06
2.29842e-06
2.29106e-06
2.34742e-06
2.33366e-06
2.29744e-06
2.28958e-06
2.34076e-06
2.31632e-06
2.23811e-06
2.26799e-06
2.33097e-06
2.21248e-06
2.36352e-06
2.34442e-06
2.3241e-06
2.32625e-06
2.33631e-06
2.33123e-06
2.24439e-06
2.25044e-06
2.21509e-06
2.22001e-06
2.2025e-06
2.11751e-06
2.20097e-06
2.23933e-06
2.1961e-06
2.1302e-06
2.19086e-06
2.23781e-06
2.15843e-06
2.25974e-06
2.1627e-06
2.25615e-06
2.10986e-06
2.26288e-06
2.11982e-06
2.26086e-06
2.21562e-06
2.3179e-06
2.23859e-06
2.26413e-06
2.22811e-06
2.29214e-06
2.2408e-06
2.30465e-06
2.17462e-06
2.35275e-06
2.08039e-06
2.19345e-06
2.25453e-06
2.19751e-06
2.18426e-06
2.36207e-06
2.06285e-06
2.19888e-06
2.27536e-06
2.22961e-06
2.22898e-06
2.25878e-06
2.32077e-06
2.19695e-06
2.17033e-06
2.2051e-06
2.16187e-06
2.18009e-06
2.36351e-06
2.36351e-06
2.36351e-06
2.36351e-06
2.36351e-06
2.36351e-06
0.00236049
0.00236206
0.00236194
0.00235975
0.00104921
2.91164e-05
3.91457e-06
2.36203e-06
2.36042e-06
2.36015e-06
2.36054e-06
2.3571e-06
2.35771e-06
2.31132e-06
2.31137e-06
2.34379e-06
2.34506e-06
2.29656e-06
2.27667e-06
2.28976e-06
2.23935e-06
2.29493e-06
2.27407e-06
2.29518e-06
2.24481e-06
2.17864e-06
2.21306e-06
2.22156e-06
2.1436e-06
2.18284e-06
2.21317e-06
2.23006e-06
2.14974e-06
2.24974e-06
2.1431e-06
2.24895e-06
2.13477e-06
2.36353e-06
2.3491e-06
2.32427e-06
2.32863e-06
2.34303e-06
2.3456e-06
2.34579e-06
2.34393e-06
2.32494e-06
2.325e-06
2.04988e-06
2.1443e-06
2.05959e-06
2.16466e-06
2.05694e-06
2.13289e-06
2.07202e-06
2.15871e-06
2.1338e-06
2.0792e-06
2.04566e-06
2.17552e-06
2.16965e-06
2.09959e-06
2.08392e-06
2.1831e-06
2.17269e-06
2.26565e-06
2.17644e-06
2.14165e-06
2.15744e-06
2.26126e-06
2.18771e-06
2.15844e-06
2.20955e-06
2.2901e-06
2.26161e-06
2.18293e-06
2.23202e-06
2.28438e-06
2.27155e-06
2.18973e-06
2.36351e-06
2.36351e-06
2.36351e-06
2.36351e-06
2.36351e-06
2.36351e-06
0.00236171
0.00236317
0.00236267
0.00235722
0.00193164
6.40814e-05
5.32535e-06
2.47085e-06
2.34764e-06
2.3471e-06
2.37309e-06
2.37312e-06
2.34469e-06
2.3498e-06
2.34747e-06
2.35211e-06
2.17498e-06
2.16452e-06
2.22301e-06
2.28149e-06
2.17208e-06
2.17497e-06
2.21634e-06
2.29324e-06
2.16894e-06
2.30939e-06
2.16729e-06
2.30045e-06
2.08959e-06
2.31469e-06
2.09113e-06
2.30269e-06
2.33051e-06
2.27944e-06
2.3118e-06
2.32678e-06
2.32949e-06
2.27317e-06
2.31212e-06
2.32679e-06
2.20906e-06
2.27631e-06
2.31685e-06
2.34637e-06
2.21268e-06
2.27487e-06
2.31765e-06
2.34272e-06
2.36352e-06
2.3491e-06
2.33976e-06
2.28207e-06
2.2885e-06
2.32721e-06
2.32788e-06
2.25293e-06
2.2424e-06
2.24853e-06
2.25134e-06
2.1131e-06
2.20119e-06
2.15675e-06
2.19164e-06
2.08598e-06
2.18807e-06
2.13776e-06
2.1926e-06
2.23427e-06
2.26692e-06
2.2193e-06
2.22346e-06
2.17892e-06
2.24878e-06
2.1749e-06
2.20791e-06
2.33345e-06
2.18498e-06
2.37425e-06
2.2791e-06
2.36351e-06
2.36351e-06
2.36351e-06
2.36351e-06
2.36351e-06
2.3635e-06
0.0023627
0.00236344
0.00236294
0.00234494
0.00231365
0.000222103
1.21466e-05
3.60417e-06
2.36103e-06
2.36382e-06
2.4675e-06
2.46446e-06
2.3224e-06
2.19722e-06
2.32561e-06
2.30696e-06
2.32556e-06
2.1997e-06
2.32492e-06
2.31603e-06
2.34434e-06
2.34465e-06
2.28146e-06
2.2504e-06
2.17957e-06
2.37054e-06
2.29553e-06
2.23361e-06
2.18319e-06
2.3734e-06
2.25585e-06
2.31908e-06
2.28111e-06
2.30638e-06
2.27218e-06
2.3246e-06
2.28626e-06
2.31067e-06
2.03612e-06
1.98893e-06
2.05998e-06
1.99427e-06
2.36351e-06
2.36356e-06
2.34202e-06
2.34608e-06
2.33923e-06
2.32488e-06
2.32055e-06
2.28088e-06
2.28874e-06
2.27502e-06
2.26645e-06
2.23403e-06
2.00373e-06
2.20914e-06
2.01645e-06
2.23053e-06
2.08298e-06
2.21273e-06
2.19205e-06
2.26304e-06
2.17958e-06
2.17572e-06
2.09281e-06
2.25325e-06
2.17999e-06
2.16327e-06
2.20621e-06
2.21571e-06
2.08917e-06
2.23164e-06
2.10697e-06
2.22902e-06
2.13615e-06
2.25959e-06
2.16966e-06
2.23587e-06
2.1655e-06
2.21494e-06
2.1802e-06
2.25939e-06
2.23609e-06
2.22453e-06
2.23824e-06
2.36351e-06
2.36351e-06
2.36351e-06
2.36351e-06
2.3635e-06
0.00235864
0.00236302
0.00235917
0.0023382
0.00233463
0.00119821
5.35989e-05
4.4605e-06
4.46497e-06
8.95243e-06
8.96008e-06
2.47201e-06
2.20529e-06
2.63856e-06
2.24653e-06
2.47007e-06
2.27056e-06
2.64083e-06
2.32029e-06
2.854e-06
2.85663e-06
2.27847e-06
2.28564e-06
2.32762e-06
2.30142e-06
2.2919e-06
2.28792e-06
2.33178e-06
2.31309e-06
2.42532e-06
2.18126e-06
2.38022e-06
2.23176e-06
2.41653e-06
2.17715e-06
2.38562e-06
2.23212e-06
2.29911e-06
2.17341e-06
2.36923e-06
2.15068e-06
2.29913e-06
2.14609e-06
2.3637e-06
2.12121e-06
2.36351e-06
2.36352e-06
2.35327e-06
2.32365e-06
2.2917e-06
2.29019e-06
2.29496e-06
2.25503e-06
2.26087e-06
2.22953e-06
2.02936e-06
2.1415e-06
2.1095e-06
2.05221e-06
2.061e-06
2.13541e-06
2.10637e-06
2.08313e-06
2.17668e-06
2.24082e-06
2.25085e-06
2.2315e-06
2.17572e-06
2.25702e-06
2.26985e-06
2.23578e-06
2.14366e-06
2.27306e-06
2.21541e-06
2.15283e-06
2.15093e-06
2.28291e-06
2.21868e-06
2.16299e-06
2.30775e-06
2.34987e-06
2.19273e-06
2.33926e-06
2.36351e-06
2.36351e-06
2.36351e-06
2.3635e-06
0.002355
0.00236085
0.00235105
0.00233408
0.00233642
0.00224853
9.77021e-05
9.77525e-05
0.00198388
0.00198227
5.76922e-06
5.76733e-06
2.0921e-05
2.06862e-05
2.4937e-06
2.30647e-06
2.66122e-06
2.26422e-06
2.48551e-06
2.2887e-06
2.65761e-06
2.26686e-06
2.52347e-06
3.87672e-06
2.90127e-06
3.27214e-06
2.52359e-06
3.88129e-06
2.89624e-06
3.27141e-06
2.22018e-06
2.33837e-06
2.27171e-06
2.32175e-06
2.22881e-06
2.33822e-06
2.27212e-06
2.33878e-06
2.45188e-06
2.29145e-06
2.36364e-06
2.3338e-06
2.44037e-06
2.2664e-06
2.36075e-06
2.33049e-06
2.36351e-06
2.36352e-06
2.35966e-06
2.34553e-06
2.28438e-06
2.29116e-06
2.27277e-06
2.29037e-06
2.24776e-06
2.26271e-06
2.12534e-06
2.08932e-06
1.99736e-06
2.05611e-06
2.10731e-06
2.09377e-06
2.02212e-06
2.04914e-06
2.2237e-06
2.14986e-06
2.21871e-06
2.16166e-06
2.11601e-06
2.12964e-06
2.18893e-06
2.17345e-06
2.22558e-06
2.16529e-06
2.12335e-06
2.12957e-06
2.21153e-06
2.17089e-06
2.22619e-06
2.16757e-06
2.08944e-06
2.25031e-06
2.25905e-06
2.33212e-06
1.91181e-06
2.23227e-06
2.24734e-06
2.32129e-06
2.36351e-06
2.36351e-06
2.3635e-06
0.00234426
0.00235943
0.00234416
0.00235307
0.00228024
0.00234658
0.000198699
0.00018706
0.00212518
0.00212374
7.24513e-06
4.27425e-06
4.7517e-06
1.01115e-05
7.79914e-06
2.75663e-06
4.24983e-06
7.08356e-06
2.75644e-06
4.78347e-06
9.95158e-06
7.66716e-06
0.000133154
6.76725e-05
4.26052e-05
3.10848e-05
0.000121487
6.51481e-05
4.36951e-05
3.04493e-05
2.52537e-06
2.36635e-06
2.78476e-06
2.28774e-06
2.51596e-06
2.36823e-06
2.7704e-06
2.28974e-06
2.41927e-06
3.5908e-06
2.44253e-06
3.57403e-06
2.19366e-06
2.24142e-06
2.18651e-06
2.23783e-06
2.26933e-06
2.28272e-06
2.24863e-06
2.22132e-06
2.36351e-06
2.36351e-06
2.3606e-06
2.34695e-06
2.31407e-06
2.31988e-06
2.28555e-06
2.28636e-06
2.22436e-06
2.23898e-06
2.2278e-06
2.23638e-06
2.10889e-06
2.04263e-06
2.09415e-06
2.17274e-06
2.15054e-06
2.10945e-06
2.11013e-06
2.06477e-06
2.09102e-06
2.17568e-06
2.13457e-06
2.10974e-06
2.20241e-06
2.17046e-06
2.21176e-06
2.16479e-06
2.20405e-06
2.17508e-06
2.27246e-06
2.23249e-06
2.18947e-06
2.19704e-06
2.23238e-06
2.16832e-06
2.28595e-06
2.26197e-06
2.13621e-06
2.18732e-06
2.23581e-06
2.16558e-06
2.27533e-06
2.16127e-06
2.36351e-06
2.3635e-06
0.00234459
0.00234965
0.00236199
0.00233421
0.00231564
0.0021522
0.00216317
0.00226012
0.00226637
0.000281411
0.000305837
0.00159644
0.00176194
4.69425e-06
9.12246e-06
6.98856e-06
3.15416e-06
1.57213e-05
1.90648e-05
4.68862e-06
9.01684e-06
3.25782e-06
7.09632e-06
1.69239e-05
1.81915e-05
0.000103437
9.87535e-05
3.43152e-05
2.90223e-05
0.000111102
0.000114619
3.79768e-05
2.75818e-05
2.90246e-06
2.14077e-06
2.86891e-06
2.15884e-06
2.36351e-06
2.36351e-06
2.34571e-06
2.35621e-06
2.33315e-06
2.31009e-06
2.31162e-06
2.33492e-06
2.32092e-06
2.05889e-06
2.13323e-06
2.09617e-06
2.18276e-06
2.0789e-06
2.13527e-06
2.11808e-06
2.17773e-06
2.1931e-06
2.157e-06
2.16805e-06
2.07029e-06
2.21939e-06
2.17876e-06
2.19118e-06
2.15945e-06
2.16236e-06
2.09543e-06
2.21644e-06
2.17753e-06
2.06465e-06
2.13847e-06
2.13499e-06
2.25371e-06
2.14009e-06
2.13914e-06
2.21539e-06
2.23609e-06
2.19685e-06
2.11469e-06
2.26426e-06
2.18841e-06
2.18918e-06
2.1995e-06
2.29589e-06
2.19859e-06
2.2893e-06
2.24743e-06
2.34348e-06
2.22056e-06
2.3635e-06
0.00233439
0.0023601
0.00234376
0.00235222
0.00231622
0.0020571
0.00199249
0.00225392
0.00225002
0.000172649
9.75663e-05
7.46969e-05
0.000207112
0.000203695
0.000128537
9.27849e-05
0.000270939
0.000812877
0.000940987
5.57814e-05
5.60085e-05
3.34483e-05
5.48353e-05
6.50246e-05
5.62019e-05
3.41959e-05
5.08607e-05
2.3635e-06
2.36351e-06
2.36351e-06
2.31971e-06
2.34844e-06
2.33944e-06
2.33932e-06
2.32152e-06
2.32324e-06
2.33748e-06
2.34262e-06
2.27916e-06
2.2698e-06
2.12787e-06
2.17568e-06
2.25252e-06
2.24696e-06
2.12679e-06
2.16833e-06
2.20628e-06
2.18414e-06
2.17702e-06
2.13523e-06
2.05627e-06
2.16435e-06
2.18402e-06
2.10985e-06
2.21177e-06
2.18163e-06
2.23345e-06
2.15782e-06
2.19212e-06
2.07542e-06
1.88769e-06
2.16942e-06
1.98077e-06
2.23311e-06
0.00235396
0.00235326
0.00235205
0.00234844
0.00233133
0.00232748
0.00227517
0.00227498
0.00215449
0.00213893
0.00231514
0.00231463
0.000222395
0.000133543
0.000100537
0.000387898
0.000296165
9.50739e-05
0.000106879
0.000267453
0.00131947
0.00116714
0.00106027
0.000845103
0.00145416
0.00114406
0.000893531
0.000700758
6.21145e-05
0.000102478
6.10547e-05
7.59129e-05
2.3635e-06
2.36351e-06
2.36351e-06
2.33815e-06
2.3336e-06
2.25332e-06
2.25755e-06
2.28934e-06
2.29452e-06
2.27328e-06
2.28648e-06
2.13203e-06
2.10513e-06
2.16759e-06
2.03881e-06
2.12591e-06
2.11889e-06
2.1553e-06
2.12378e-06
2.25117e-06
2.27683e-06
2.23124e-06
2.12149e-06
2.23801e-06
2.25415e-06
2.26769e-06
2.17046e-06
0.00234275
0.00235804
0.00236062
0.00234679
0.00230584
0.00230548
0.00229977
0.00231779
0.00200458
0.00167419
0.00210255
0.00223775
0.00217261
0.00222761
0.00213139
0.00155958
0.00214551
0.00233355
0.00215142
0.00229907
0.00228221
0.00227065
0.000637074
0.000507664
0.000403022
0.000852389
0.000616468
0.000220864
0.000472697
0.000405261
0.00147948
0.00121492
0.00146814
0.00100111
2.3635e-06
2.36351e-06
2.36154e-06
2.34656e-06
2.29769e-06
2.30283e-06
2.29871e-06
2.30931e-06
2.29072e-06
2.30149e-06
2.28435e-06
2.28344e-06
1.94156e-06
2.13429e-06
2.05889e-06
2.13099e-06
2.06003e-06
2.16467e-06
1.98108e-06
2.13219e-06
2.06289e-06
2.12721e-06
2.06915e-06
2.15962e-06
2.22691e-06
2.09667e-06
2.26988e-06
2.20195e-06
2.23545e-06
2.02491e-06
2.23588e-06
2.17707e-06
0.0023502
0.00236096
0.00236155
0.00232549
0.00232506
0.00233819
0.00234182
0.00229229
0.00227934
0.00231219
0.00232323
0.00191629
0.00195468
0.00220071
0.00189106
0.00211317
0.00221567
0.00189637
0.00186431
0.00222788
0.00207065
0.00208416
0.00221241
0.00219846
0.0022234
0.00224261
0.00223997
0.0021335
0.00208672
0.00213918
0.00210325
2.3635e-06
2.35851e-06
2.35786e-06
2.32639e-06
2.33776e-06
2.32388e-06
2.33308e-06
2.31866e-06
2.22489e-06
2.22816e-06
2.11559e-06
2.16258e-06
2.05259e-06
2.04939e-06
2.15409e-06
2.05302e-06
2.06212e-06
2.05034e-06
2.14641e-06
2.05223e-06
2.12609e-06
2.15868e-06
2.11757e-06
2.11877e-06
2.13458e-06
1.91599e-06
2.16816e-06
2.16261e-06
2.18113e-06
1.94213e-06
2.09077e-06
1.45759e-06
2.09634e-06
1.52277e-06
0.00236156
0.00236308
0.00235834
0.00234659
0.0023476
0.00234386
0.00234473
0.00224152
0.00216726
0.00217963
0.0022098
0.00224926
0.00220636
0.0022339
0.00214968
0.00217589
0.0021759
0.00226062
0.00217545
0.00229908
0.00230132
0.00222716
0.00234624
0.00214226
0.00210427
0.00226428
0.00228432
0.00214302
0.00214238
2.3635e-06
2.33021e-06
2.34868e-06
2.30683e-06
2.31034e-06
2.3112e-06
2.31219e-06
2.32752e-06
2.3244e-06
2.26228e-06
2.25845e-06
2.01681e-06
2.01657e-06
2.10997e-06
2.0604e-06
2.07437e-06
2.09405e-06
2.02191e-06
2.06648e-06
2.11016e-06
2.02968e-06
2.11502e-06
2.06737e-06
2.06341e-06
1.95363e-06
2.07135e-06
2.16211e-06
2.08413e-06
2.09124e-06
2.18511e-06
1.97367e-06
0.00235439
0.00236126
0.00235397
0.00229891
0.00230371
0.00230951
0.00231098
0.00215147
0.0022448
0.00222098
0.00223787
0.00227025
0.00220605
0.00218824
0.00226497
0.00222794
0.00222887
0.00230394
0.00217361
0.0020489
0.00220114
0.0021274
0.00221047
0.00207838
0.0022181
0.00211981
0.00222971
0.00185714
0.00217579
0.00190415
0.00205951
2.3594e-06
2.33581e-06
2.34338e-06
2.33487e-06
2.32062e-06
2.32917e-06
2.33366e-06
2.22055e-06
2.2276e-06
2.08714e-06
2.04789e-06
2.03937e-06
2.08223e-06
2.04373e-06
2.00017e-06
2.0872e-06
2.05473e-06
2.04388e-06
2.0844e-06
2.04662e-06
2.00754e-06
2.18828e-06
2.1751e-06
2.07467e-06
2.17646e-06
2.184e-06
2.16503e-06
2.25901e-06
2.12043e-06
0.00234786
0.00235493
0.00231409
0.00234613
0.00234692
0.00232128
0.00230059
0.00230067
0.00227199
0.00205612
0.00229248
0.00227408
0.00208821
0.0022858
0.00209398
0.00220493
0.00230018
0.00227692
0.0022828
0.00226993
0.00226327
0.00227389
0.00230181
0.00229653
0.00230777
0.00224936
0.00217163
0.00228326
0.00218989
0.00228703
2.3442e-06
2.36168e-06
2.33471e-06
2.31784e-06
2.31207e-06
2.28076e-06
2.28984e-06
1.97892e-06
2.04521e-06
2.10413e-06
2.085e-06
2.08529e-06
2.08521e-06
2.01388e-06
2.09569e-06
2.09301e-06
2.05358e-06
2.11776e-06
2.09443e-06
2.20458e-06
2.06511e-06
2.21943e-06
2.20545e-06
2.20281e-06
2.07107e-06
2.21963e-06
2.20049e-06
2.23646e-06
2.04766e-06
2.22042e-06
2.0288e-06
0.00232509
0.00234454
0.00228764
0.00228928
0.0022942
0.00229499
0.00232105
0.00232106
0.00203859
0.00202009
0.00228754
0.00204395
0.00227782
0.00215377
0.0020566
0.0021807
0.00202374
0.00203895
0.00228052
0.00205275
0.00228014
0.0021556
0.00205777
0.00218026
0.00227347
0.00220382
0.00228773
0.00220005
0.00209835
0.00228384
0.00213094
0.00227162
2.34726e-06
2.3636e-06
2.31767e-06
2.26392e-06
2.27791e-06
2.3268e-06
2.29966e-06
2.30221e-06
2.21318e-06
2.06239e-06
2.13581e-06
2.21628e-06
2.08829e-06
2.12725e-06
2.20687e-06
2.25154e-06
2.20661e-06
2.18322e-06
2.2342e-06
2.21124e-06
2.25536e-06
2.13909e-06
2.18449e-06
2.13867e-06
2.18152e-06
2.21026e-06
2.18595e-06
2.14461e-06
2.22163e-06
2.21617e-06
0.00230882
0.00234671
0.00224428
0.00227446
0.00214326
0.00228185
0.00224882
0.00225355
0.00213745
0.00228735
0.00233514
0.00233792
0.00204072
0.00234163
0.00177308
0.00229273
0.00213903
0.00222059
0.00206894
0.00185146
0.00233308
0.00223339
0.00218104
0.00221373
0.00201466
0.00171902
0.00201183
0.00177794
2.36353e-06
2.35309e-06
2.31152e-06
2.29997e-06
2.30473e-06
2.31598e-06
2.28716e-06
2.29018e-06
2.06278e-06
1.9994e-06
2.17045e-06
2.01619e-06
2.17008e-06
2.09131e-06
1.97618e-06
2.07552e-06
2.07688e-06
2.00813e-06
2.17777e-06
2.02854e-06
2.17599e-06
2.09874e-06
2.0129e-06
2.07902e-06
2.23925e-06
2.26609e-06
2.19518e-06
2.20187e-06
2.29763e-06
2.24556e-06
2.24953e-06
2.13028e-06
0.00230579
0.00233111
0.00234458
0.0023398
0.00229747
0.00229656
0.00228648
0.00206014
0.00228453
0.00198921
0.00225563
0.0020155
0.00209953
0.00204031
0.00213436
0.00228733
0.00213837
0.00216562
0.0020739
0.00228677
0.00198447
0.00226296
0.0020109
0.00210494
0.0020476
0.00213977
0.00229364
0.0021456
0.00216899
0.0019692
0.00197112
0.00188607
0.00224892
0.00198654
0.00196674
0.00188081
0.00224871
2.34971e-06
2.3332e-06
2.28013e-06
2.22171e-06
2.10086e-06
2.12184e-06
2.22757e-06
2.0908e-06
2.13214e-06
2.30876e-06
2.26734e-06
2.29704e-06
2.15228e-06
2.26723e-06
2.13187e-06
2.1267e-06
2.10858e-06
2.20427e-06
2.16621e-06
2.26706e-06
2.13411e-06
2.06618e-06
2.13817e-06
2.193e-06
2.18381e-06
2.25654e-06
2.19605e-06
2.25984e-06
0.00230397
0.00230205
0.00235302
0.00229999
0.00231624
0.0023404
0.00234161
0.0015213
0.00191394
0.00213949
0.00210097
0.00236781
0.00227027
0.0021167
0.00211998
0.00225411
0.00201636
0.00224169
0.00224278
0.00211978
0.00214692
0.00151396
0.00194206
0.00211839
0.0021479
0.00236288
0.00226729
0.00214495
0.00210687
0.00225539
0.00202321
0.00224831
0.00223625
0.0021076
0.00216093
2.35142e-06
2.31687e-06
2.23645e-06
2.25679e-06
2.32523e-06
2.3227e-06
2.32234e-06
1.88052e-06
2.20483e-06
2.00365e-06
2.09916e-06
2.18773e-06