/*--------------------------------*- C++ -*----------------------------------*\
| =========                 |                                                 |
| \\      /  F ield         | OpenFOAM: The Open Source CFD Toolbox           |
|  \\    /   O peration     | Version:  5.x                                   |
|   \\  /    A nd           | Web:      www.OpenFOAM.org                      |
|    \\/     M anipulation  |                                                 |
\*---------------------------------------------------------------------------*/
FoamFile
{
    version     2.0;
    format      ascii;
    class       volVectorField;
    location    "0.4";
    object      U;
}
// * * * * * * * * * * * * * * * * * * * * * * * * * * * * * * * * * * * * * //

dimensions      [0 1 -1 0 0 0 0];

internalField   nonuniform List<vector> 
12160
(
(0.194653 0 0.00294252)
(0.210251 0 0.00501029)
(0.194443 0 0.00132717)
(0.166679 0 0.00621497)
(0.210183 0 0.00864244)
(0.194506 0 0.00896177)
(0.156247 0 0.00549472)
(0.166752 0 0.0148095)
(0.211557 0 0.0209806)
(0.193177 0 0.0038018)
(0.120144 0 0.00569699)
(0.156286 0 0.0146746)
(0.168231 0 0.0292759)
(0.209893 0 0.0198619)
(0.193392 0 0.0167295)
(0.10239 0 0.00501153)
(0.119925 0 0.0159829)
(0.156914 0 0.0273191)
(0.167342 0 0.0334499)
(0.212787 0 0.0378684)
(0.189567 0 0.00596498)
(0.0778977 0 0.00438351)
(0.101935 0 0.0143787)
(0.119503 0 0.0283012)
(0.156099 0 0.0345009)
(0.170921 0 0.0526646)
(0.207334 0 0.0295903)
(0.194135 0 0.0283806)
(0.061752 0 0.00362815)
(0.0773612 0 0.0127646)
(0.100983 0 0.0249211)
(0.118214 0 0.0369949)
(0.158484 0 0.0523016)
(0.168727 0 0.0507367)
(0.2138 0 0.0507199)
(0.18266 0 0.0075085)
(0.047144 0 0.00293825)
(0.0611548 0 0.0106573)
(0.0762424 0 0.0217926)
(0.0991452 0 0.0332933)
(0.118212 0 0.0533016)
(0.155931 0 0.0565734)
(0.176166 0 0.0693889)
(0.194918 0 0.041406)
(0.160623 0 0.0506258)
(0.0359106 0 0.0023306)
(0.0465843 0 0.00867564)
(0.0599169 0 0.0180289)
(0.0743366 0 0.0294204)
(0.0976846 0 0.0468868)
(0.114892 0 0.0584161)
(0.160647 0 0.0803973)
(0.17323 0 0.0727063)
(0.223902 0 0.0648643)
(0.0639359 0 -0.162735)
(0.0271219 0 0.00182178)
(0.0354132 0 0.00690314)
(0.0454348 0 0.0145785)
(0.0579402 0 0.0244595)
(0.0723602 0 0.0405706)
(0.093529 0 0.0518201)
(0.115041 0 0.0814271)
(0.159292 0 0.0857243)
(0.225178 0 0.0821573)
(0.281594 0 0.00530122)
(-0.0649367 0 -0.0853293)
(0.0204037 0 0.00140984)
(0.0267005 0 0.00540668)
(0.0343993 0 0.0115434)
(0.0436442 0 0.0198247)
(0.0556383 0 0.0332734)
(0.0682816 0 0.0446386)
(0.091349 0 0.0730904)
(0.111622 0 0.0810528)
(0.237382 0 0.105344)
(0.376857 0 0.0641039)
(0.189886 0 -0.0968536)
(-0.021762 0 -0.159434)
(0.0153047 0 0.00108344)
(0.0200576 0 0.00418894)
(0.0258465 0 0.00900866)
(0.0328449 0 0.0157154)
(0.0414701 0 0.0266663)
(0.0516921 0 0.0364129)
(0.0653152 0 0.0629422)
(0.0857086 0 0.0681279)
(0.190333 0 0.103322)
(0.462689 0 0.113844)
(0.224647 0 0.000512469)
(-0.0576613 0 -0.113941)
(-0.00893584 0 -0.107856)
(0.0114602 0 0.000828881)
(0.0150263 0 0.00322109)
(0.0193593 0 0.00696023)
(0.0245499 0 0.012273)
(0.0309167 0 0.0209514)
(0.038028 0 0.0290247)
(0.0485055 0 0.0515036)
(0.0589697 0 0.0549108)
(0.176295 0 0.0921814)
(0.419096 0 0.113901)
(0.264981 0 0.112261)
(-0.0822422 0 0.0269725)
(-0.0635953 0 -0.0676193)
(-0.00759331 0 -0.107581)
(0.00857299 0 0.000632714)
(0.0112398 0 0.00246489)
(0.0144668 0 0.00534022)
(0.0183057 0 0.00948545)
(0.022923 0 0.016246)
(0.0280221 0 0.0227052)
(0.0351489 0 0.0411652)
(0.042078 0 0.0423454)
(0.150852 0 0.077336)
(0.375369 0 0.106123)
(0.154153 0 0.151106)
(-0.0530594 0 0.119437)
(-0.076241 0 0.00605224)
(-0.0364723 0 -0.066121)
(0.000645227 0 -0.103682)
(0.00640755 0 0.000482824)
(0.00840041 0 0.00188137)
(0.0107979 0 0.00407909)
(0.0136263 0 0.00727865)
(0.0169744 0 0.0124815)
(0.0205656 0 0.0175516)
(0.025563 0 0.0322372)
(0.0293551 0 0.0322875)
(0.139707 0 0.0621456)
(0.288988 0 0.0849954)
(0.102521 0 0.157211)
(-0.0093854 0 0.152708)
(-0.0555116 0 0.101682)
(-0.0423728 0 0.0126971)
(-0.0104861 0 -0.0560254)
(0.00478401 0 0.00036903)
(0.0062734 0 0.00143522)
(0.00805505 0 0.00310867)
(0.0101364 0 0.00555981)
(0.0125593 0 0.00952981)
(0.0150933 0 0.0134553)
(0.0185458 0 0.0249222)
(0.020568 0 0.0243242)
(0.129168 0 0.0490951)
(0.208649 0 0.070525)
(0.0698721 0 0.137294)
(0.0164861 0 0.138837)
(-0.0165811 0 0.136115)
(-0.0337012 0 0.0908253)
(-0.013417 0 0.010207)
(0.00356157 0 0.000282911)
(0.00468032 0 0.00109676)
(0.00600569 0 0.00236835)
(0.00753927 0 0.00423692)
(0.00929371 0 0.00724847)
(0.0110805 0 0.0102589)
(0.0134708 0 0.0190875)
(0.0144174 0 0.0182375)
(0.121688 0 0.0380455)
(0.140049 0 0.0552084)
(0.0544979 0 0.108624)
(0.0280129 0 0.120066)
(0.00655973 0 0.133708)
(-0.00946953 0 0.124742)
(-0.0104723 0 0.0857092)
(0.00263704 0 0.000218549)
(0.00348222 0 0.000841078)
(0.00447436 0 0.00180781)
(0.00560673 0 0.00322756)
(0.00688089 0 0.00550362)
(0.00814343 0 0.00779641)
(0.0097971 0 0.0145297)
(0.0101446 0 0.0136347)
(0.115725 0 0.0291611)
(0.0907073 0 0.0431252)
(0.0431164 0 0.0827174)
(0.032294 0 0.0981064)
(0.0180592 0 0.119765)
(0.00425107 0 0.127649)
(-0.00261146 0 0.118196)
(0.0019314 0 0.000170906)
(0.00257715 0 0.000650441)
(0.00332531 0 0.00138534)
(0.00416782 0 0.00246311)
(0.00509669 0 0.00417914)
(0.00599307 0 0.00591704)
(0.00713908 0 0.0110196)
(0.00716872 0 0.0101842)
(0.110855 0 0.0221746)
(0.057817 0 0.0330877)
(0.0352626 0 0.0599531)
(0.0303788 0 0.0775808)
(0.0224291 0 0.0989402)
(0.0112652 0 0.117145)
(0.00184492 0 0.123731)
(0.00138216 0 0.000136699)
(0.00188687 0 0.000509327)
(0.00245873 0 0.00107051)
(0.00309155 0 0.00188706)
(0.00377549 0 0.0031802)
(0.00441566 0 0.00449223)
(0.00521326 0 0.00834427)
(0.00509001 0 0.00760954)
(0.106607 0 0.0167791)
(0.0379738 0 0.0253828)
(0.0283041 0 0.0426164)
(0.0267917 0 0.059343)
(0.0215365 0 0.0791499)
(0.0138835 0 0.0984272)
(0.00410075 0 0.115374)
(0.000943842 0 0.000113089)
(0.00134982 0 0.000407989)
(0.00179859 0 0.00083786)
(0.0022821 0 0.00145769)
(0.00279223 0 0.00243059)
(0.00325589 0 0.00341837)
(0.00381404 0 0.00631997)
(0.00363136 0 0.005694)
(0.102666 0 0.0126625)
(0.0258323 0 0.0197309)
(0.0217902 0 0.0303347)
(0.0219536 0 0.044519)
(0.0191491 0 0.0612084)
(0.0132443 0 0.0797522)
(0.00489394 0 0.0980428)
(0.00057915 0 9.81651e-05)
(0.00092145 0 0.000337797)
(0.00128571 0 0.000670702)
(0.0016671 0 0.00114054)
(0.00205589 0 0.00187322)
(0.00239808 0 0.00261288)
(0.00279425 0 0.00479753)
(0.00260168 0 0.00427126)
(0.0987562 0 0.00955005)
(0.0180885 0 0.0157499)
(0.0161969 0 0.0219293)
(0.0172003 0 0.0332822)
(0.0157783 0 0.0464492)
(0.0117267 0 0.0623421)
(0.0045933 0 0.08012)
(0.000259053 0 9.05108e-05)
(0.000565477 0 0.000293281)
(0.000877306 0 0.000554876)
(0.0011906 0 0.000912478)
(0.00149864 0 0.00146291)
(0.00175943 0 0.00201417)
(0.00204636 0 0.00365875)
(0.0018708 0 0.00321638)
(0.0946106 0 0.00721408)
(0.0128675 0 0.0130162)
(0.011738 0 0.0161562)
(0.0130221 0 0.0251125)
(0.0124169 0 0.0349424)
(0.00964197 0 0.0477504)
(0.00402878 0 0.063049)
(-4.03951e-05 0 8.93195e-05)
(0.000253502 0 0.000270036)
(0.000538698 0 0.000481253)
(0.000812257 0 0.000754384)
(0.00106877 0 0.00116799)
(0.00127896 0 0.00157328)
(0.0014938 0 0.00281371)
(0.00134726 0 0.0024361)
(0.0899747 0 0.00547712)
(0.00911977 0 0.0113153)
(0.00831882 0 0.012149)
(0.00961355 0 0.019368)
(0.00940368 0 0.0262982)
(0.00758645 0 0.036191)
(0.00329458 0 0.0485567)
(-0.000340016 0 9.42003e-05)
(-3.8089e-05 0 0.000266078)
(0.000242574 0 0.00044272)
(0.000499527 0 0.00065384)
(0.000728969 0 0.000963572)
(0.000910364 0 0.00125621)
(0.00108123 0 0.00219294)
(0.000969084 0 0.00186182)
(0.0845185 0 0.00420376)
(0.00629115 0 0.0103477)
(0.00570133 0 0.00937418)
(0.00693577 0 0.0153633)
(0.00691143 0 0.0199896)
(0.00575521 0 0.027414)
(0.0025855 0 0.0369581)
(-0.00066065 0 0.000105427)
(-0.000329827 0 0.000280388)
(-3.37543e-05 0 0.000436143)
(0.000226828 0 0.000601353)
(0.000449395 0 0.000833252)
(0.000620818 0 0.00103638)
(0.000767548 0 0.00174693)
(0.000693408 0 0.00144272)
(0.077878 0 0.00331626)
(0.00409476 0 0.0100813)
(0.00366345 0 0.00752519)
(0.0048273 0 0.0126807)
(0.00496139 0 0.0154591)
(0.00424609 0 0.0210097)
(0.00195939 0 0.0280731)
(-0.00102115 0 0.00012351)
(-0.000642197 0 0.000313614)
(-0.00031019 0 0.000459609)
(-2.72568e-05 0 0.000592648)
(0.000206636 0 0.000764798)
(0.00038398 0 0.000896181)
(0.000523348 0 0.0014381)
(0.00048865 0 0.00114218)
(0.0696887 0 0.00279149)
(0.00237567 0 0.0101072)
(0.00212604 0 0.00640772)
(0.00318072 0 0.0109396)
(0.00343562 0 0.0123019)
(0.00306077 0 0.0164368)
(0.001445 0 0.0215289)
(-0.0014428 0 0.000149086)
(-0.000993698 0 0.000366996)
(-0.000606395 0 0.000514194)
(-0.00028132 0 0.000624952)
(-1.88723e-05 0 0.000752537)
(0.000179518 0 0.000822809)
(0.000325478 0 0.00124062)
(0.000333118 0 0.000934059)
(0.059616 0 0.00242336)
(0.00115463 0 0.0109113)
(0.000897382 0 0.00588987)
(0.00188977 0 0.00998704)
(0.00225289 0 0.0101957)
(0.00213565 0 0.0132755)
(0.00104175 0 0.0168107)
(-0.00194741 0 0.000183092)
(-0.00140498 0 0.000442719)
(-0.000939856 0 0.000601839)
(-0.000553483 0 0.000699643)
(-0.000244089 0 0.000793041)
(-9.60831e-06 0 0.000809931)
(0.000156106 0 0.00113691)
(0.00021018 0 0.000800575)
(0.0476277 0 0.00216063)
(0.00026821 0 0.0120884)
(-4.14311e-05 0 0.00574739)
(0.000875932 0 0.0095112)
(0.00136073 0 0.00890093)
(0.00141562 0 0.0111746)
(0.000725639 0 0.0135152)
(-0.00255904 0 0.000226628)
(-0.00189716 0 0.000543484)
(-0.00133007 0 0.000726028)
(-0.000860072 0 0.00081929)
(-0.000485277 0 0.00088766)
(-0.000198103 0 0.000854133)
(5.2273e-07 0 0.00111718)
(0.00010755 0 0.000729829)
(0.0338047 0 0.00199893)
(-0.000247088 0 0.0135582)
(-0.000612051 0 0.00586157)
(0.000132522 0 0.00957321)
(0.000668306 0 0.00823827)
(0.000858078 0 0.00988662)
(0.000480217 0 0.0113112)
(-0.00330422 0 0.000281245)
(-0.00249373 0 0.000672826)
(-0.00179716 0 0.000891336)
(-0.0012191 0 0.000988533)
(-0.000757179 0 0.00103961)
(-0.000399801 0 0.000956548)
(-0.000153947 0 0.001177)
(1.52131e-05 0 0.000715241)
(0.0186001 0 0.00192015)
(-0.000410454 0 0.0148837)
(-0.000862069 0 0.00616589)
(-0.00034635 0 0.00987905)
(0.000155228 0 0.00805752)
(0.00042522 0 0.00917173)
(0.000293305 0 0.00993356)
(-0.00421279 0 0.000348774)
(-0.00322079 0 0.00083534)
(-0.00236363 0 0.0011037)
(-0.00164934 0 0.00121384)
(-0.00107592 0 0.00125496)
(-0.000627375 0 0.00112066)
(-0.00031908 0 0.00131723)
(-7.53326e-05 0 0.000753745)
(0.00275631 0 0.00191215)
(-0.000317321 0 0.0158897)
(-0.000795127 0 0.00649262)
(-0.000570479 0 0.0103777)
(-0.000166968 0 0.00818426)
(0.000105255 0 0.00892865)
(0.000149335 0 0.00917229)
(-0.00531894 0 0.000431595)
(-0.00410786 0 0.00103661)
(-0.00305483 0 0.00137086)
(-0.00217194 0 0.00150346)
(-0.00145857 0 0.00154221)
(-0.00089465 0 0.0013529)
(-0.000505697 0 0.00154286)
(-0.000171846 0 0.000845799)
(-0.0128355 0 0.00197405)
(-7.70692e-05 0 0.0162418)
(-0.000496768 0 0.00676474)
(-0.000560502 0 0.0108421)
(-0.000317594 0 0.00850045)
(-9.66711e-05 0 0.00897334)
(4.6528e-05 0 0.00888609)
(-0.00666158 0 0.000532313)
(-0.00518871 0 0.0012834)
(-0.00389945 0 0.00170215)
(-0.00281078 0 0.00186812)
(-0.00192449 0 0.00191245)
(-0.00121646 0 0.00166247)
(-0.000725596 0 0.00186321)
(-0.000281175 0 0.000994634)
(-0.0273534 0 0.00210121)
(0.000163353 0 0.0159713)
(-4.59307e-05 0 0.00688931)
(-0.000376542 0 0.0112047)
(-0.000318606 0 0.00885002)
(-0.000190228 0 0.00919142)
(-1.93086e-05 0 0.00890395)
(-0.00828427 0 0.000653644)
(-0.0065019 0 0.00158316)
(-0.0049303 0 0.00210871)
(-0.00359303 0 0.00232064)
(-0.00249571 0 0.0023798)
(-0.00160972 0 0.00206131)
(-0.000991642 0 0.00229164)
(-0.000411096 0 0.00120649)
(-0.0401473 0 0.00230159)
(0.000261008 0 0.0150567)
(0.000399534 0 0.00685732)
(-9.47491e-05 0 0.0113302)
(-0.000211345 0 0.00913416)
(-0.000192648 0 0.00943943)
(-5.17508e-05 0 0.00909597)
(-0.0102376 0 0.000798596)
(-0.00809035 0 0.00194418)
(-0.0061846 0 0.00260286)
(-0.00454977 0 0.00287619)
(-0.00319735 0 0.00296109)
(-0.0020938 0 0.00256451)
(-0.00131866 0 0.00284563)
(-0.000570279 0 0.00149042)
(-0.0509775 0 0.00258471)
(0.000117147 0 0.0137735)
(0.000712624 0 0.00668849)
(0.000182477 0 0.0112224)
(-3.73097e-05 0 0.00926966)
(-0.000129123 0 0.00964408)
(-5.60375e-05 0 0.00932915)
(-0.0125712 0 0.000970377)
(-0.0100038 0 0.00237504)
(-0.00770396 0 0.00319833)
(-0.00571654 0 0.0035517)
(-0.00405831 0 0.00367619)
(-0.00269087 0 0.0031902)
(-0.00172358 0 0.00354647)
(-0.000769311 0 0.0018585)
(-0.0599025 0 0.00295174)
(-0.000331679 0 0.0124126)
(0.000775217 0 0.00647209)
(0.000357788 0 0.0108959)
(0.000132482 0 0.00924414)
(-2.92963e-05 0 0.0097306)
(-3.98863e-05 0 0.00952467)
(-0.0153581 0 0.00117213)
(-0.0122914 0 0.00288497)
(-0.00953694 0 0.00390958)
(-0.00713312 0 0.00436588)
(-0.00511169 0 0.00454744)
(-0.00342667 0 0.00395973)
(-0.00222591 0 0.00441975)
(-0.0010206 0 0.00232633)
(-0.0671489 0 0.00340465)
(-0.00108175 0 0.011249)
(0.000534228 0 0.00628804)
(0.00036035 0 0.0104578)
(0.000236536 0 0.00908441)
(6.84141e-05 0 0.00968943)
(-1.07714e-05 0 0.00961591)
(-0.018602 0 0.00140761)
(-0.0150252 0 0.00348292)
(-0.0117315 0 0.00475227)
(-0.00884602 0 0.00533867)
(-0.00639504 0 0.00559994)
(-0.004331 0 0.00489716)
(-0.00284864 0 0.00549575)
(-0.00133821 0 0.00291291)
(-0.0729869 0 0.00407299)
(-0.0020983 0 0.0104797)
(-9.41452e-06 0 0.00625004)
(0.000153665 0 0.0100328)
(0.00022983 0 0.0088712)
(0.000125061 0 0.00954264)
(1.66828e-05 0 0.00959268)
(-0.0182097 0 0.00417985)
(-0.025284 0 0.00185718)
(-0.0143583 0 0.00574156)
(-0.010902 0 0.0064919)
(-0.00795243 0 0.00686063)
(-0.00543795 0 0.00602954)
(-0.00361862 0 0.00680868)
(-0.00173955 0 0.00364092)
(-0.0777095 0 0.00499918)
(-0.00339938 0 0.0102134)
(-0.000831786 0 0.00639639)
(-0.000270496 0 0.00974479)
(7.79861e-05 0 0.00869351)
(0.000112463 0 0.00936159)
(3.18358e-05 0 0.00947869)
(-0.0174233 0 0.00689619)
(-0.024778 0 0.00550539)
(-0.0374284 0 0.0026994)
(-0.0133695 0 0.00784625)
(-0.00982919 0 0.00835923)
(-0.00678784 0 0.00738623)
(-0.00456697 0 0.00839682)
(-0.0022459 0 0.0045368)
(-0.0816023 0 0.00617641)
(-0.00500604 0 0.0103777)
(-0.00188515 0 0.00678788)
(-0.000900314 0 0.00969701)
(-0.000224626 0 0.00865564)
(1.49192e-05 0 0.00922766)
(3.03381e-05 0 0.00934194)
(-0.0162565 0 0.00942774)
(-0.02376 0 0.00909536)
(-0.0367334 0 0.00797613)
(-0.0537295 0 0.00377673)
(-0.0120906 0 0.0101247)
(-0.0084232 0 0.00899997)
(-0.00573045 0 0.0103019)
(-0.00288274 0 0.00563119)
(-0.0848909 0 0.00763821)
(-0.00693684 0 0.0108335)
(-0.00313764 0 0.00749095)
(-0.00171429 0 0.00996723)
(-0.000676843 0 0.00884681)
(-0.000169362 0 0.00923861)
(1.35945e-07 0 0.00925294)
(-0.0147492 0 0.0121928)
(-0.022249 0 0.0124376)
(-0.0353253 0 0.0132077)
(-0.0528082 0 0.0110996)
(-0.074237 0 0.00510266)
(-0.0104048 0 0.0109028)
(-0.00714919 0 0.01257)
(-0.00368082 0 0.00695929)
(-0.0877362 0 0.00942293)
(-0.00920778 0 0.0116425)
(-0.0045969 0 0.00857987)
(-0.00270162 0 0.010599)
(-0.00126382 0 0.00934542)
(-0.000438744 0 0.00947036)
(-6.19823e-05 0 0.00931454)
(-0.012752 0 0.0131354)
(-0.0202998 0 0.0161352)
(-0.0332374 0 0.0180644)
(-0.0509209 0 0.0184236)
(-0.0730559 0 0.0148777)
(-0.0992304 0 0.00671784)
(-0.00887883 0 0.0152475)
(-0.0046754 0 0.00856204)
(-0.0902616 0 0.0115752)
(-0.011923 0 0.0128668)
(-0.00628977 0 0.0101133)
(-0.00386527 0 0.0116342)
(-0.00197476 0 0.0102073)
(-0.000787969 0 0.0100097)
(-0.000155801 0 0.00959623)
(-0.0109453 0 0.0183993)
(-0.0176927 0 0.0173921)
(-0.0305541 0 0.0235531)
(-0.048133 0 0.0251731)
(-0.0705756 0 0.0247591)
(-0.0978215 0 0.0193912)
(-0.128054 0 0.00847926)
(-0.00590859 0 0.0104849)
(-0.0925478 0 0.0141462)
(-0.0151458 0 0.0145784)
(-0.00830447 0 0.0121168)
(-0.0052357 0 0.0131203)
(-0.00281451 0 0.0114861)
(-0.00121588 0 0.0109035)
(-0.000280623 0 0.0101875)
(-0.00745466 0 0.0127946)
(-0.0153312 0 0.0243507)
(-0.026917 0 0.0254349)
(-0.0445803 0 0.03296)
(-0.0669422 0 0.0337414)
(-0.0945515 0 0.0323978)
(-0.127814 0 0.0246396)
(-0.160426 0 0.00760657)
(-0.0946801 0 0.0171944)
(-0.0191724 0 0.0167235)
(-0.010612 0 0.0146829)
(-0.00684338 0 0.0151012)
(-0.00379419 0 0.0132412)
(-0.00171791 0 0.0122266)
(-0.000429078 0 0.0111397)
(-0.096723 0 0.020888)
(-0.0108409 0 0.017261)
(-0.0236085 0 0.0355503)
(-0.0397131 0 0.0356671)
(-0.0623801 0 0.0442834)
(-0.0898092 0 0.0439293)
(-0.123258 0 0.0416925)
(-0.164739 0 0.0283928)
(-0.204261 0 0.0015806)
(-0.0242697 0 0.0194746)
(-0.0133646 0 0.0178601)
(-0.00866483 0 0.0177035)
(-0.00494851 0 0.0155196)
(-0.00232609 0 0.0140189)
(-0.000599009 0 0.0125223)
(-0.0304023 0 0.0256806)
(-0.10244 0 0.0276769)
(-0.0175148 0 0.0261231)
(-0.0352508 0 0.0495528)
(-0.0561176 0 0.047988)
(-0.0839685 0 0.0575862)
(-0.116756 0 0.056154)
(-0.15691 0 0.0539331)
(-0.222763 0 0.0259904)
(-0.153245 0 0.0406553)
(-0.0165124 0 0.0219163)
(-0.0107858 0 0.0209485)
(-0.00625427 0 0.0184191)
(-0.00303919 0 0.0163661)
(-0.00079749 0 0.0143741)
(-0.0195974 0 0.0270238)
(-0.0449906 0 0.0297452)
(-0.107128 0 0.0406707)
(-0.0275137 0 0.0380389)
(-0.0503183 0 0.0659164)
(-0.076056 0 0.0623375)
(-0.108921 0 0.0731909)
(-0.147371 0 0.0719797)
(-0.203898 0 0.0723427)
(-0.284052 0 0.0543363)
(-0.441236 0 0.152956)
(-0.0131044 0 0.0250646)
(-0.00777005 0 0.0219679)
(-0.00384739 0 0.0193348)
(-0.00103304 0 0.0168021)
(-0.0155194 0 0.0301067)
(-0.0256873 0 0.0367035)
(-0.0784829 0 0.0449513)
(-0.114205 0 0.0569763)
(-0.0411729 0 0.0531158)
(-0.0686572 0 0.0841056)
(-0.0987712 0 0.0787829)
(-0.13617 0 0.0925402)
(-0.184689 0 0.0937678)
(-0.243469 0 0.11135)
(-0.402253 0 0.0520024)
(-0.273205 0 0.735789)
(-0.00941238 0 0.0263293)
(-0.00477444 0 0.0229762)
(-0.00129515 0 0.0198453)
(-0.0111743 0 0.0314589)
(-0.0200386 0 0.0393849)
(-0.0342862 0 0.0571849)
(-0.130152 0 0.0619396)
(-0.122576 0 0.0759038)
(-0.0584925 0 0.0711344)
(-0.0892152 0 0.103636)
(-0.122596 0 0.0982043)
(-0.165407 0 0.117906)
(-0.215021 0 0.136396)
(-0.358547 0 0.178185)
(-0.354169 0 0.55012)
(-0.186983 -1.76536e-27 0.62463)
(-0.0564299 0 0.736879)
(-0.00576758 0 0.0274045)
(-0.00160102 0 0.0235718)
(-0.00685331 0 0.0325759)
(-0.0143897 0 0.0411956)
(-0.0259572 0 0.0581336)
(-0.0421514 0 0.0832774)
(-0.193217 0 0.0814304)
(-0.132135 0 0.0963793)
(-0.0783868 0 0.0913399)
(-0.109806 0 0.12467)
(-0.145864 0 0.122019)
(-0.18756 0 0.158217)
(-0.269547 0 0.18602)
(-0.330182 0 0.429444)
(-0.193149 -7.9288e-28 0.557666)
(-0.120217 3.30017e-30 0.593663)
(-0.110488 -2.58617e-27 0.64601)
(-0.0376964 0 0.644695)
(-0.0019332 0 0.0280621)
(-0.00229819 0 0.0332806)
(-0.00879638 0 0.0425011)
(-0.018518 0 0.0595634)
(-0.0296604 0 0.0800373)
(-0.0498969 0 0.109422)
(-0.247731 0 0.101562)
(-0.141912 0 0.116965)
(-0.0984099 0 0.11275)
(-0.127552 0 0.148075)
(-0.160788 0 0.155333)
(-0.208458 0 0.204472)
(-0.253963 0 0.350049)
(-0.170115 0 0.45029)
(-0.130874 0 0.540274)
(-0.0846415 -1.52514e-26 0.59843)
(-0.104009 4.49579e-30 0.612683)
(-0.078116 -2.85579e-27 0.61646)
(-0.0245195 0 0.614377)
(-0.00296078 0 0.0432895)
(-0.011305 0 0.0606835)
(-0.0210707 0 0.0804357)
(-0.0297117 0 0.10177)
(-0.0596041 0 0.128791)
(-0.279675 0 0.122071)
(-0.150144 0 0.136352)
(-0.115165 0 0.134617)
(-0.13656 0 0.175516)
(-0.167849 0 0.193181)
(-0.187676 0 0.305241)
(-0.143476 0 0.374828)
(-0.114914 0 0.472865)
(-0.0730165 -3.2152e-26 0.56322)
(-0.0408609 3.85711e-30 0.61702)
(-0.0917807 -1.90126e-26 0.614033)
(-0.0940737 0 0.611255)
(-0.0677262 0 0.599072)
(-0.0241529 0 0.563318)
(-0.00384101 0 0.0613057)
(-0.0129631 0 0.0809732)
(-0.0209105 0 0.100986)
(-0.0264849 0 0.119922)
(-0.0747649 0 0.140916)
(-0.284354 0 0.14026)
(-0.154329 0 0.153882)
(-0.123356 0 0.157402)
(-0.135524 0 0.2041)
(-0.144626 0 0.252802)
(-0.120233 0 0.328175)
(-0.0891831 1.56639e-27 0.410104)
(-0.0567737 -1.28109e-26 0.501119)
(0.00621793 0 0.564645)
(-0.00402146 1.14897e-25 0.676449)
(-0.0719088 4.69107e-30 0.635938)
(-0.102633 -6.5247e-26 0.617356)
(-0.0955469 0 0.593408)
(-0.066845 0 0.561439)
(-0.023011 0 0.5263)
(-0.00446081 0 0.0811762)
(-0.0130829 0 0.10065)
(-0.0180406 0 0.118182)
(-0.020912 0 0.134453)
(-0.0982396 0 0.14414)
(-0.270506 0 0.154734)
(-0.150158 0 0.16982)
(-0.120229 0 0.178059)
(-0.115979 0 0.239861)
(-0.0964737 0 0.273138)
(-0.0654713 1.11226e-27 0.362794)
(-0.0346812 0 0.431669)
(0.0437241 -1.00379e-25 0.514969)
(0.0189038 -2.32302e-25 0.647869)
(0.00458274 -1.84741e-10 0.677835)
(-0.0906485 0 0.682563)
(-0.10083 0 0.63796)
(-0.115214 -9.48006e-26 0.605281)
(-0.103793 1.18194e-26 0.567061)
(-0.0681474 0 0.52664)
(-0.0242944 0 0.48213)
(-0.00458778 0 0.100267)
(-0.0114824 0 0.116846)
(-0.0127204 0 0.131014)
(-0.0114768 0 0.145441)
(-0.127835 0 0.138877)
(-0.241921 0 0.164858)
(-0.136928 0 0.182815)
(-0.101321 0 0.196381)
(-0.0793049 0 0.25287)
(-0.0456473 -1.00008e-42 0.298291)
(-0.0124645 0 0.376201)
(0.0658051 2.10656e-25 0.462896)
(0.0339979 -4.45979e-25 0.581554)
(0.172133 -1.30999e-09 0.585944)
(-0.020461 1.04774e-08 0.0928453)
(-0.0560882 3.31785e-10 0.702147)
(-0.0265808 9.64197e-09 0.0651962)
(0.254542 8.82677e-09 0.162622)
(0.252788 6.16278e-09 0.172498)
(-0.12685 1.20886e-25 0.671408)
(-0.130013 4.3765e-26 0.635943)
(-0.136073 -4.87511e-26 0.581311)
(-0.111241 2.33174e-26 0.531937)
(-0.0724321 0 0.485041)
(-0.0256146 0 0.438035)
(-0.00414957 0 0.115843)
(-0.0081386 0 0.128269)
(-0.00388902 0 0.138803)
(0.00264977 0 0.14988)
(-0.147868 0 0.131274)
(-0.204271 0 0.170124)
(-0.112729 0 0.192813)
(-0.0713073 0 0.204356)
(-0.0350993 -7.08014e-43 0.267554)
(0.00735918 0 0.30412)
(0.0807605 0 0.413457)
(0.0772733 1.74659e-24 0.477139)
(0.263134 -9.84838e-25 0.576798)
(-0.00245029 1.13029e-10 0.281137)
(-0.0929776 1.22138e-08 0.309485)
(0.230929 -4.23225e-09 -0.0366614)
(-0.099943 9.55918e-11 0.677066)
(-0.114419 1.18848e-08 0.259243)
(-0.0944819 1.32998e-08 0.434596)
(-0.10702 1.18008e-08 0.419757)
(0.0481355 -5.5921e-09 -0.137468)
(0.0993112 -1.09648e-08 0.198285)
(-0.0200513 -9.9428e-09 0.202151)
(-0.154454 1.12669e-24 0.673191)
(-0.177895 -4.17294e-26 0.61317)
(-0.152661 0 0.544429)
(-0.119629 1.1254e-26 0.492189)
(-0.0769478 0 0.441117)
(-0.026989 0 0.390935)
(-0.00310154 0 0.126389)
(-0.00251934 0 0.133769)
(0.0087021 0 0.138683)
(0.0219935 0 0.142072)
(-0.146423 0 0.122868)
(-0.160646 0 0.16854)
(-0.0819714 0 0.194921)
(-0.0332167 -2.88414e-27 0.208293)
(0.0157337 2.62706e-27 0.266764)
(0.0887098 1.02802e-25 0.331442)
(0.126016 0 0.403314)
(0.27971 3.14568e-24 0.549374)
(0.0242066 -1.48008e-09 0.371417)
(-0.0357145 -8.66499e-09 -0.362063)
(-0.0568343 -1.56819e-08 -0.379375)
(0.11415 -7.88115e-09 -0.289189)
(0.120525 -8.03333e-09 -0.285443)
(0.282943 2.70307e-09 0.00923276)
(-0.241432 -1.35769e-08 -0.432055)
(-0.0967459 3.99775e-25 0.666771)
(-0.231124 -1.75608e-10 0.216458)
(0.151425 4.3077e-10 -0.0756207)
(0.285029 7.34991e-09 -0.0915124)
(0.192651 6.71373e-09 -0.226213)
(-0.264029 -1.87354e-08 -0.461351)
(-0.23915 -1.43612e-08 -0.368333)
(-0.222867 -1.98635e-08 -0.411037)
(-0.224915 9.28485e-25 0.645777)
(-0.202355 0 0.567512)
(-0.166162 0 0.504984)
(-0.12859 1.06097e-26 0.448013)
(-0.0812628 0 0.393735)
(-0.0280772 0 0.341927)
(-0.00121762 0 0.130609)
(0.00526504 0 0.13131)
(0.0253453 0 0.128921)
(0.0400842 0 0.118549)
(-0.119646 0 0.110983)
(-0.115173 0 0.16467)
(-0.0444797 0 0.193428)
(0.0117536 3.70746e-27 0.20095)
(0.0862622 0 0.277394)
(0.162577 1.99775e-25 0.308789)
(0.286909 4.13178e-24 0.495329)
(0.131346 -8.64269e-10 0.423147)
(0.0721705 -5.30002e-09 -0.315982)
(0.0936269 -5.18821e-09 -0.295757)
(0.15247 -1.60613e-09 -0.211076)
(0.159008 -1.81365e-09 -0.208375)
(-0.144626 -8.65695e-09 -0.709861)
(-0.119405 1.93358e-09 -0.713674)
(-0.0908257 -2.34555e-09 -0.679318)
(-0.0402606 -8.73293e-10 -0.675968)
(-0.214336 -6.17678e-09 -0.501512)
(0.491928 5.70974e-08 -0.799811)
(-0.51979 8.23169e-08 -0.609907)
(0.485986 3.85613e-08 -0.692452)
(-0.431641 8.11514e-09 -0.58774)
(-0.234388 4.34164e-24 0.609911)
(-0.279955 -7.03396e-10 0.334247)
(0.0636321 -1.39254e-10 -0.550799)
(-0.00944862 -3.62421e-10 -0.56334)
(0.057393 -1.46313e-09 -0.553638)
(-0.0272702 -1.55025e-09 -0.569927)
(-0.259266 -1.35952e-08 -0.532539)
(0.00944603 5.25811e-09 -0.548894)
(-0.0686302 -6.79672e-09 -0.582093)
(0.4704 -2.46087e-08 -0.839021)
(-0.519543 -4.42716e-08 -0.616746)
(0.461825 -3.58221e-09 -0.736481)
(-0.442789 -8.23061e-09 -0.595368)
(0.342514 6.72418e-08 -0.956425)
(-0.487153 7.32711e-08 -0.351073)
(0.0768598 5.58473e-08 -1.00407)
(-0.512264 6.41994e-09 -0.438976)
(0.327598 -3.13918e-08 -0.972902)
(-0.428285 -3.61776e-08 -0.341295)
(0.0782478 -7.70067e-09 -1.00377)
(-0.474209 -6.58749e-09 -0.442972)
(-0.267699 0 0.594934)
(-0.216922 1.08253e-26 0.526806)
(-0.181589 0 0.460217)
(-0.136611 9.70889e-27 0.399568)
(-0.0845797 0 0.34408)
(-0.0288776 0 0.29125)
(0.00145577 0 0.126826)
(0.0156493 0 0.120073)
(0.0403216 0 0.109715)
(0.0627815 0 0.0862824)
(-0.0800936 0 0.0972494)
(-0.0616908 0 0.153094)
(-0.000259577 0 0.182028)
(0.070609 0 0.191348)
(0.170247 3.63423e-25 0.245949)
(0.285517 1.99094e-24 0.387732)
(0.288251 3.15381e-11 0.452463)
(0.163999 -1.29404e-10 -0.123262)
(0.154223 -7.63557e-10 -0.137794)
(0.209338 1.43132e-09 -0.0764207)
(0.191235 -2.55118e-10 -0.0980317)
(-0.158428 -3.51595e-09 -0.59979)
(-0.089535 1.41167e-09 -0.593472)
(-0.159974 -4.5681e-09 -0.558624)
(-0.0985122 1.40118e-09 -0.555785)
(-0.460033 1.17293e-08 -0.753109)
(-0.362655 4.939e-09 -0.27496)
(0.408167 1.17561e-08 -0.682207)
(-0.502355 1.12467e-08 -0.827718)
(0.391275 1.09952e-08 -0.68994)
(-0.0989206 3.13453e-09 -1.02733)
(-0.324643 -2.44545e-09 -0.243539)
(-0.445922 -5.84239e-09 -0.759754)
(0.418366 -1.37399e-08 -0.688334)
(-0.485748 -6.39859e-09 -0.83942)
(0.401233 -1.19081e-08 -0.695324)
(-0.0807705 -3.27782e-09 -1.02884)
(-0.518453 1.46721e-08 -0.809395)
(0.355442 1.42573e-08 -0.708389)
(-0.526903 1.11431e-08 -0.835305)
(0.368482 1.29497e-08 -0.706801)
(-0.488796 -9.19999e-09 -0.817006)
(0.366101 -1.04285e-08 -0.704658)
(-0.501311 -7.57364e-09 -0.845143)
(0.380177 -1.07819e-08 -0.706404)
(0.514333 5.09436e-08 -0.591642)
(-0.628646 8.30451e-08 -0.646918)
(0.514567 3.78863e-08 -0.662335)
(-0.594635 7.22403e-09 -0.647324)
(-0.0591032 1.26862e-08 -0.833788)
(-0.24318 1.06064e-08 -0.500885)
(0.0107485 1.40014e-08 -0.726624)
(-0.289168 6.4794e-09 -0.480346)
(-0.306109 2.45707e-24 0.579103)
(-0.386985 -1.4253e-09 0.341672)
(0.0304126 -3.35059e-09 -0.564007)
(-0.0102449 -3.23842e-09 -0.576984)
(0.0482194 -2.31612e-09 -0.567114)
(-0.00748733 -2.29423e-09 -0.580514)
(-0.222342 -4.90267e-09 -0.632789)
(-0.23717 -3.41488e-09 -0.645824)
(-0.121605 -6.75175e-09 -0.709295)
(-0.139069 -2.96879e-09 -0.731376)
(0.488955 -2.14375e-08 -0.635695)
(-0.599123 -4.39153e-08 -0.664335)
(0.490531 -2.46514e-09 -0.708057)
(-0.592128 -7.33309e-09 -0.672436)
(0.56438 5.99015e-08 -0.594584)
(-0.384392 1.02678e-07 -0.88943)
(0.629775 6.25381e-08 -0.205776)
(-0.501365 9.38362e-09 -0.697289)
(0.53461 -3.174e-08 -0.633107)
(-0.378717 -4.93032e-08 -0.905087)
(0.593471 -1.90532e-08 -0.224541)
(-0.537589 -9.29993e-09 -0.724478)
(-0.0643295 -1.48899e-08 -0.840571)
(-0.268776 -1.00532e-08 -0.505037)
(-0.00575779 -1.60551e-08 -0.740679)
(-0.32099 -7.62097e-09 -0.49316)
(-0.120904 5.06881e-09 -0.950807)
(-0.360761 2.94993e-09 -0.380196)
(-0.110013 -8.06005e-09 -0.959276)
(-0.339759 -3.32185e-09 -0.381516)
(-0.260989 -1.90839e-25 0.549517)
(-0.237043 0 0.479873)
(-0.194602 0 0.409153)
(-0.142294 0 0.348354)
(-0.086942 0 0.292794)
(-0.0294292 0 0.239411)
(0.00511254 0 0.114913)
(0.0246722 0 0.0989779)
(0.0593551 0 0.0858325)
(0.076119 0 0.0476202)
(-0.0145981 0 0.071852)
(0.00236282 0 0.130079)
(0.0552548 0 0.163914)
(0.146041 0 0.159901)
(0.265928 4.3805e-25 0.277888)
(0.392313 -4.73979e-10 0.391421)
(0.222024 2.22454e-09 -0.0289072)
(0.217827 5.88915e-10 -0.0432397)
(0.380817 4.12906e-09 0.0104761)
(0.376703 1.36899e-09 0.0052898)
(-0.0540854 -3.96754e-09 -0.478142)
(-0.0143433 1.57206e-09 -0.472383)
(0.102508 -2.63906e-09 -0.347897)
(0.109675 6.5231e-10 -0.360688)
(-0.504207 1.5811e-08 -0.761296)
(0.341525 1.36458e-08 -0.692056)
(-0.493916 2.42695e-08 -0.724674)
(0.379749 1.65212e-08 -0.686399)
(-0.468543 -8.94394e-09 -0.766323)
(0.351863 -1.11975e-08 -0.684058)
(-0.45317 -1.10472e-08 -0.727587)
(0.383528 -1.23615e-08 -0.674759)
(-0.461886 2.67617e-08 -0.683722)
(0.396614 1.47063e-08 -0.693597)
(-0.496454 2.49837e-08 -0.700493)
(0.385483 1.54707e-08 -0.684886)
(-0.424381 -1.12181e-08 -0.679895)
(0.397536 -8.09802e-09 -0.678665)
(-0.457533 -1.1439e-08 -0.700031)
(0.387907 -1.09517e-08 -0.671827)
(-0.339468 3.99714e-09 -0.699899)
(-0.079792 2.94076e-10 -0.900594)
(0.0808154 1.03597e-09 -0.835191)
(0.317149 6.71575e-09 -0.663851)
(-0.134877 1.15895e-09 -0.863878)
(0.0962439 2.63084e-09 -0.75697)
(-0.326152 -4.00402e-09 -0.718458)
(-0.0573982 -2.4024e-10 -0.898849)
(0.343421 -7.86079e-09 -0.67721)
(0.111905 -3.26933e-10 -0.831404)
(-0.117773 -1.30767e-09 -0.870496)
(0.126397 -1.47115e-09 -0.761031)
(-0.204681 2.36166e-09 -0.838328)
(0.0181985 3.79894e-09 -0.775096)
(-0.176999 1.89788e-09 -0.859262)
(0.0744628 3.45916e-09 -0.768266)
(-0.168416 -1.99027e-09 -0.828142)
(0.0510235 -3.99744e-09 -0.773667)
(-0.151834 -2.00076e-09 -0.864476)
(0.103385 -3.48998e-09 -0.777886)
(0.100269 1.70041e-08 -0.655882)
(-0.2145 1.18138e-08 -0.573289)
(0.0655242 1.47803e-08 -0.719031)
(-0.181601 8.61791e-09 -0.612881)
(0.0131759 2.32464e-09 -0.591844)
(-0.113631 1.35545e-09 -0.557708)
(-0.0242036 2.51165e-09 -0.580112)
(-0.16314 1.3413e-09 -0.599528)
(-0.295639 0 0.555145)
(-0.422913 -1.10957e-09 0.345643)
(-0.198805 -5.86039e-09 -0.5089)
(-0.148318 -5.09231e-09 -0.512026)
(-0.0200884 -5.35576e-09 -0.540825)
(-0.0307494 -5.09496e-09 -0.541255)
(-0.242438 -6.95695e-09 -0.669597)
(-0.189515 -2.07232e-09 -0.652195)
(-0.244031 -5.56958e-09 -0.645594)
(-0.238088 -2.95903e-09 -0.647051)
(-0.523954 2.89261e-08 -0.731622)
(0.486133 2.01132e-08 -0.656081)
(-0.525285 1.78404e-08 -0.805657)
(0.430588 1.65219e-08 -0.666021)
(-0.527395 -1.2295e-08 -0.737416)
(0.471404 -1.75802e-08 -0.676289)
(-0.532258 -9.38875e-09 -0.806352)