/*--------------------------------*- C++ -*----------------------------------*\
| =========                 |                                                 |
| \\      /  F ield         | OpenFOAM: The Open Source CFD Toolbox           |
|  \\    /   O peration     | Version:  5.x                                   |
|   \\  /    A nd           | Web:      www.OpenFOAM.org                      |
|    \\/     M anipulation  |                                                 |
\*---------------------------------------------------------------------------*/
FoamFile
{
    version     2.0;
    format      ascii;
    class       surfaceVectorField;
    location    "0.4";
    object      Uf;
}
// * * * * * * * * * * * * * * * * * * * * * * * * * * * * * * * * * * * * * //

dimensions      [0 1 -1 0 0 0 0];

internalField   nonuniform List<vector> 
30582
(
(0.207136 0 0.0039856)
(0.194548 0 0.002339)
(0.189281 0 0.00561799)
(0.210217 0 0.00714202)
(0.20699 0 0.00501732)
(0.194475 0 0.00474597)
(0.162727 0 0.00585165)
(0.166715 0 0.0108131)
(0.189183 0 0.0117534)
(0.21087 0 0.0142653)
(0.207778 0 0.0150246)
(0.193841 0 0.00686488)
(0.138033 0 0.00559675)
(0.156267 0 0.0102351)
(0.162913 0 0.0147415)
(0.167491 0 0.0215102)
(0.19042 0 0.0251652)
(0.210725 0 0.0212086)
(0.206175 0 0.0119032)
(0.193285 0 0.00964592)
(0.112247 0 0.00535121)
(0.120034 0 0.0108797)
(0.137921 0 0.0153346)
(0.1566 0 0.0205938)
(0.16424 0 0.0282888)
(0.167786 0 0.032171)
(0.18883 0 0.0267164)
(0.21134 0 0.028147)
(0.207654 0 0.0273929)
(0.19148 0 0.0118888)
(0.0896916 0 0.00469473)
(0.102162 0 0.00968738)
(0.111923 0 0.0151737)
(0.119714 0 0.0218484)
(0.137927 0 0.0278145)
(0.156506 0 0.0315003)
(0.163769 0 0.0339801)
(0.169132 0 0.0423756)
(0.191601 0 0.0453323)
(0.210061 0 0.0345683)
(0.202405 0 0.0178827)
(0.191851 0 0.0162481)
(0.0701111 0 0.00400247)
(0.0776295 0 0.00856038)
(0.0891841 0 0.0135645)
(0.101459 0 0.0194538)
(0.111262 0 0.0265961)
(0.118859 0 0.0330986)
(0.136727 0 0.035759)
(0.157292 0 0.042709)
(0.167261 0 0.0524815)
(0.169824 0 0.0522869)
(0.186681 0 0.0402576)
(0.210567 0 0.0408583)
(0.20701 0 0.0396495)
(0.188398 0 0.0188621)
(0.0540808 0 0.00328013)
(0.0614534 0 0.00713405)
(0.0695244 0 0.0117015)
(0.0768018 0 0.0171553)
(0.0881131 0 0.023343)
(0.100064 0 0.0293964)
(0.109739 0 0.0351276)
(0.118213 0 0.0444854)
(0.137651 0 0.052806)
(0.157208 0 0.0549817)
(0.165497 0 0.053681)
(0.172447 0 0.0609129)
(0.192915 0 0.0601375)
(0.204359 0 0.0464967)
(0.188395 0 0.024608)
(0.171642 0 0.0288666)
(0.0412689 0 0.00263174)
(0.0468641 0 0.00580408)
(0.0534955 0 0.00965764)
(0.0605358 0 0.0142675)
(0.0683043 0 0.019894)
(0.0752895 0 0.0258155)
(0.0861951 0 0.0313397)
(0.0984149 0 0.0395086)
(0.109088 0 0.0500656)
(0.116552 0 0.0565364)
(0.134443 0 0.0575029)
(0.158289 0 0.0678533)
(0.17236 0 0.0749419)
(0.174698 0 0.0692826)
(0.182709 0 0.0571954)
(0.20941 0 0.048771)
(0.18483 0 0.0578083)
(0.112279 0 -0.0524801)
(0.0312531 0 0.00207392)
(0.0356619 0 0.00461836)
(0.0407339 0 0.00778156)
(0.0460096 0 0.0115853)
(0.0522864 0 0.0162883)
(0.0589285 0 0.0213961)
(0.0663024 0 0.0269179)
(0.0733484 0 0.0345123)
(0.0843839 0 0.0437007)
(0.0956068 0 0.050119)
(0.10544 0 0.0550887)
(0.114967 0 0.0687732)
(0.136509 0 0.0809168)
(0.15997 0 0.0827132)
(0.171185 0 0.079273)
(0.199204 0 0.0739749)
(0.227267 0 0.0735877)
(0.252748 0 0.0317955)
(0.153937 0 -0.0779697)
(-0.000500843 0 -0.113459)
(0.0235457 0 0.00161399)
(0.0269112 0 0.00361799)
(0.0307918 0 0.00614823)
(0.0349063 0 0.00920272)
(0.0396392 0 0.0130475)
(0.0445395 0 0.0173148)
(0.0503841 0 0.0221215)
(0.0567892 0 0.0284803)
(0.0640714 0 0.0368895)
(0.0703209 0 0.0433926)
(0.0801565 0 0.0481975)
(0.092439 0 0.0609783)
(0.104505 0 0.0772217)
(0.113331 0 0.0822763)
(0.133763 0 0.0833678)
(0.198337 0 0.0982244)
(0.238767 0 0.0938536)
(0.301017 0 0.0692918)
(0.344015 0 0.0349642)
(0.23574 0 -0.0442391)
(0.0619618 0 -0.0911427)
(-0.0433495 0 -0.137809)
(0.0176773 0 0.00124519)
(0.0202306 0 0.00280407)
(0.0231618 0 0.0047924)
(0.0262735 0 0.00719961)
(0.0298539 0 0.0102647)
(0.0336221 0 0.0137148)
(0.0379518 0 0.0177519)
(0.0425572 0 0.0229469)
(0.0481189 0 0.0299405)
(0.0536652 0 0.0355797)
(0.0599242 0 0.0404892)
(0.0667984 0 0.052238)
(0.0774362 0 0.0679713)
(0.0885287 0 0.0726044)
(0.100137 0 0.0745328)
(0.150977 0 0.0964634)
(0.211021 0 0.104324)
(0.350035 0 0.109725)
(0.437088 0 0.0891947)
(0.300751 0 0.0313922)
(0.210328 0 -0.0477373)
(0.0661133 0 -0.103587)
(-0.0326627 0 -0.136485)
(-0.0153489 0 -0.124974)
(0.0132424 0 0.000955025)
(0.0151655 0 0.002157)
(0.0173657 0 0.00370073)
(0.0197084 0 0.00557359)
(0.0223854 0 0.00797535)
(0.0251982 0 0.0107055)
(0.0284249 0 0.0139789)
(0.0318808 0 0.0181077)
(0.0358817 0 0.0237836)
(0.0397491 0 0.0284905)
(0.0443996 0 0.032686)
(0.0500988 0 0.0424888)
(0.056698 0 0.057172)
(0.0621424 0 0.0613045)
(0.07129 0 0.0614607)
(0.131001 0 0.0849939)
(0.186996 0 0.0977022)
(0.304714 0 0.1066)
(0.445061 0 0.113873)
(0.363834 0 0.106421)
(0.247576 0 0.0568826)
(0.0712033 0 0.0162248)
(-0.0755363 0 -0.0428572)
(-0.0606283 0 -0.0864369)
(-0.0309574 0 -0.0875589)
(-0.00826457 0 -0.112809)
(0.00990755 0 0.000729923)
(0.01135 0 0.00165112)
(0.012994 0 0.00283962)
(0.0147465 0 0.00428323)
(0.0167382 0 0.00614305)
(0.0188325 0 0.00827196)
(0.0212112 0 0.0108669)
(0.0237364 0 0.0140918)
(0.0266431 0 0.0185777)
(0.0294695 0 0.0223677)
(0.0326992 0 0.025837)
(0.0365884 0 0.0337911)
(0.0413465 0 0.0462884)
(0.0452917 0 0.0493209)
(0.0501512 0 0.0485722)
(0.104911 0 0.070546)
(0.161005 0 0.0846928)
(0.275832 0 0.0961567)
(0.401058 0 0.109977)
(0.286623 0 0.125165)
(0.206294 0 0.131856)
(0.105962 0 0.123532)
(-0.0715124 0 0.0736152)
(-0.0792416 0 0.0145864)
(-0.075212 0 -0.0304557)
(-0.0500337 0 -0.0687341)
(-0.0189511 0 -0.0866669)
(-0.00347407 0 -0.105361)
(0.00740666 0 0.000557106)
(0.0084867 0 0.00126049)
(0.00971218 0 0.00217053)
(0.0110189 0 0.00327599)
(0.0124955 0 0.00470404)
(0.0140465 0 0.00634676)
(0.0157942 0 0.00837228)
(0.01764 0 0.0108604)
(0.0197332 0 0.0143471)
(0.0217443 0 0.0173354)
(0.0240177 0 0.0201054)
(0.0267926 0 0.0263708)
(0.030024 0 0.0366617)
(0.0322519 0 0.0389204)
(0.0352149 0 0.0372718)
(0.0908921 0 0.055968)
(0.14655 0 0.0696732)
(0.21992 0 0.0768658)
(0.325238 0 0.0954653)
(0.238944 0 0.128722)
(0.126332 0 0.154186)
(0.0723846 0 0.158902)
(-0.0335108 0 0.136221)
(-0.0542855 0 0.107781)
(-0.0677199 0 0.0542916)
(-0.0593068 0 0.0115357)
(-0.0420414 0 -0.0263613)
(-0.0234793 0 -0.0594977)
(-0.00415021 0 -0.0796418)
(0.00553208 0 0.000425421)
(0.00634048 0 0.000961698)
(0.00725435 0 0.00165632)
(0.00822773 0 0.00249929)
(0.00932088 0 0.00358956)
(0.0104671 0 0.00484779)
(0.0117482 0 0.00641158)
(0.0130928 0 0.00831461)
(0.0145988 0 0.0109926)
(0.0160338 0 0.0133137)
(0.0176193 0 0.0154853)
(0.0195557 0 0.0203389)
(0.0217834 0 0.028547)
(0.0230655 0 0.0301706)
(0.0246152 0 0.0282706)
(0.0792611 0 0.0437223)
(0.133851 0 0.0555623)
(0.174178 0 0.0616196)
(0.240138 0 0.0776958)
(0.179429 0 0.114071)
(0.0865525 0 0.147164)
(0.0595038 0 0.145807)
(0.0042304 0 0.145711)
(-0.0129833 0 0.142979)
(-0.0377295 0 0.119051)
(-0.0446063 0 0.0953498)
(-0.0396233 0 0.0521078)
(-0.027895 0 0.0105511)
(-0.0128374 0 -0.0226145)
(0.00412449 0 0.000325588)
(0.00473217 0 0.00073508)
(0.00541405 0 0.00126449)
(0.00613955 0 0.00190582)
(0.00694991 0 0.00273524)
(0.00779716 0 0.00369432)
(0.00873587 0 0.00489247)
(0.00971503 0 0.00633923)
(0.0107981 0 0.00837898)
(0.0118199 0 0.0101631)
(0.0129264 0 0.0118429)
(0.014282 0 0.0155561)
(0.0158058 0 0.0219789)
(0.0164816 0 0.0231449)
(0.0172285 0 0.0212537)
(0.0711277 0 0.0335766)
(0.125365 0 0.0435214)
(0.134608 0 0.0475663)
(0.167753 0 0.0627986)
(0.131573 0 0.0938336)
(0.0624593 0 0.122832)
(0.0489427 0 0.124604)
(0.0234565 0 0.129368)
(0.0115229 0 0.137549)
(-0.00481231 0 0.134901)
(-0.0130253 0 0.12909)
(-0.0221122 0 0.107934)
(-0.0220869 0 0.0880917)
(-0.0123079 0 0.0482931)
(0.00306367 0 0.000250444)
(0.0035219 0 0.000563941)
(0.00403376 0 0.000967782)
(0.00457734 0 0.00145592)
(0.00517903 0 0.00208559)
(0.00580621 0 0.00281434)
(0.00649584 0 0.00372777)
(0.00721008 0 0.00482335)
(0.00799012 0 0.00636826)
(0.00871857 0 0.00772948)
(0.00949143 0 0.00901667)
(0.0104388 0 0.0118338)
(0.011482 0 0.0167884)
(0.0118077 0 0.0176221)
(0.0120911 0 0.0159157)
(0.0650711 0 0.0255564)
(0.118492 0 0.0335636)
(0.106198 0 0.0367458)
(0.111081 0 0.0491134)
(0.0915824 0 0.0732399)
(0.0493258 0 0.0955558)
(0.043396 0 0.099678)
(0.0308449 0 0.108988)
(0.023036 0 0.121373)
(0.0130923 0 0.126675)
(0.00540539 0 0.129859)
(-0.00258068 0 0.126209)
(-0.00604052 0 0.12085)
(-0.00668719 0 0.102097)
(0.00225752 0 0.000194516)
(0.00260709 0 0.000436255)
(0.00299459 0 0.000744912)
(0.00340377 0 0.00111639)
(0.00385389 0 0.0015947)
(0.00432109 0 0.00214796)
(0.00482908 0 0.00284194)
(0.00535171 0 0.00366943)
(0.00591591 0 0.00483552)
(0.00643698 0 0.00586879)
(0.00697831 0 0.00684834)
(0.00764126 0 0.00897376)
(0.00835556 0 0.012759)
(0.0084829 0 0.0133544)
(0.00852045 0 0.0118942)
(0.0604995 0 0.0193283)
(0.113035 0 0.0256368)
(0.0867712 0 0.028118)
(0.0719793 0 0.0380616)
(0.0629847 0 0.0547755)
(0.0398715 0 0.0712346)
(0.0367477 0 0.0775222)
(0.0317916 0 0.0877524)
(0.0273616 0 0.0992561)
(0.0207287 0 0.10926)
(0.0146622 0 0.118034)
(0.00821825 0 0.122351)
(0.00304801 0 0.12522)
(-0.000378783 0 0.120988)
(0.00163738 0 0.000153651)
(0.00190914 0 0.000341604)
(0.00220582 0 0.000579257)
(0.00251794 0 0.000863105)
(0.00285808 0 0.00122653)
(0.00320843 0 0.00164578)
(0.0035861 0 0.00217252)
(0.00397166 0 0.00279709)
(0.00438155 0 0.00367523)
(0.00475618 0 0.00445659)
(0.00513773 0 0.00519833)
(0.00560316 0 0.00679649)
(0.00609323 0 0.00967003)
(0.00611454 0 0.0100939)
(0.0060325 0 0.00888541)
(0.0568876 0 0.0145645)
(0.108397 0 0.0194529)
(0.0744145 0 0.0215447)
(0.0467718 0 0.029201)
(0.0430605 0 0.0399506)
(0.0321413 0 0.0512073)
(0.0310272 0 0.0583393)
(0.0291386 0 0.0683813)
(0.0259577 0 0.0787235)
(0.022333 0 0.0889571)
(0.0181562 0 0.0985417)
(0.0128647 0 0.107703)
(0.00768302 0 0.116003)
(0.00312688 0 0.119515)
(0.00114946 0 0.000124789)
(0.00136599 0 0.000273586)
(0.00159931 0 0.000458208)
(0.00184273 0 0.0006757)
(0.00210344 0 0.000953153)
(0.00237042 0 0.00127148)
(0.00265467 0 0.00167047)
(0.00294189 0 0.00214095)
(0.00324332 0 0.00280207)
(0.0035157 0 0.00339152)
(0.0037864 0 0.00395053)
(0.00411485 0 0.00514986)
(0.00445286 0 0.00732316)
(0.00442231 0 0.00762328)
(0.00429194 0 0.00664323)
(0.0538774 0 0.0109556)
(0.104237 0 0.0147025)
(0.0662198 0 0.0165877)
(0.031274 0 0.0225318)
(0.0298819 0 0.02895)
(0.025146 0 0.036421)
(0.0251289 0 0.0432342)
(0.0246246 0 0.0518648)
(0.0229704 0 0.0604204)
(0.0207384 0 0.0700998)
(0.0173904 0 0.0794455)
(0.013779 0 0.0890067)
(0.00938873 0 0.0981346)
(0.00459071 0 0.106631)
(0.000752607 0 0.000105561)
(0.000932646 0 0.000226521)
(0.00112234 0 0.00037258)
(0.00131776 0 0.000541028)
(0.00152382 0 0.000753539)
(0.00173285 0 0.000994985)
(0.00195084 0 0.00129771)
(0.00216899 0 0.00165236)
(0.00239426 0 0.00214943)
(0.00259516 0 0.00259231)
(0.00279063 0 0.00301204)
(0.00302507 0 0.00391154)
(0.00325954 0 0.00555198)
(0.00320786 0 0.00576207)
(0.00306784 0 0.00497634)
(0.0511934 0 0.00824025)
(0.10024 0 0.0110924)
(0.060377 0 0.0129347)
(0.021601 0 0.0177227)
(0.0210146 0 0.0212927)
(0.0189249 0 0.0260948)
(0.0194953 0 0.031923)
(0.0196567 0 0.0388507)
(0.018866 0 0.0455662)
(0.0176525 0 0.0537629)
(0.0154379 0 0.061843)
(0.012724 0 0.0709702)
(0.00891885 0 0.0799231)
(0.00481342 0 0.0890018)
(0.000414011 0 9.43038e-05)
(0.000572313 0 0.000196718)
(0.000734727 0 0.000315342)
(0.000899378 0 0.000447767)
(0.00106871 0 0.000612273)
(0.00123816 0 0.000796217)
(0.00141159 0 0.0010255)
(0.00158287 0 0.00129203)
(0.00175536 0 0.00166624)
(0.00190766 0 0.00199809)
(0.00205221 0 0.00231086)
(0.00222222 0 0.00298486)
(0.00238776 0 0.00422308)
(0.00233252 0 0.00436681)
(0.00220153 0 0.00373913)
(0.0486058 0 0.0062065)
(0.0961611 0 0.00837174)
(0.0558118 0 0.010296)
(0.0152628 0 0.0143709)
(0.0149132 0 0.0160735)
(0.013863 0 0.019017)
(0.0146095 0 0.0237556)
(0.015074 0 0.0291612)
(0.0148086 0 0.0341132)
(0.0141681 0 0.0406447)
(0.0127101 0 0.0472019)
(0.0108016 0 0.0549811)
(0.00787777 0 0.0627294)
(0.00438935 0 0.071509)
(0.000107599 0 8.99099e-05)
(0.000256278 0 0.000181226)
(0.000404465 0 0.000281555)
(0.000552088 0 0.000388594)
(0.000699576 0 0.000517739)
(0.000844781 0 0.000658467)
(0.000989391 0 0.000832726)
(0.00112969 0 0.00103295)
(0.00126783 0 0.00131414)
(0.0013888 0 0.00156058)
(0.00149979 0 0.00179177)
(0.00162662 0 0.00229702)
(0.00174649 0 0.00323247)
(0.00169681 0 0.00332576)
(0.00158431 0 0.00282277)
(0.0459224 0 0.00468914)
(0.0917034 0 0.00633788)
(0.0518652 0 0.00849347)
(0.0108621 0 0.0121583)
(0.0105931 0 0.0125149)
(0.00992953 0 0.0141347)
(0.0106758 0 0.0180221)
(0.0112476 0 0.0222147)
(0.0112129 0 0.0256174)
(0.0108948 0 0.030582)
(0.0100017 0 0.0356776)
(0.00866058 0 0.0419194)
(0.00646829 0 0.048207)
(0.00370113 0 0.0557381)
(-0.000189166 0 9.17816e-05)
(-3.92421e-05 0 0.000178657)
(0.000106014 0 0.00026804)
(0.000248038 0 0.00035774)
(0.00038579 0 0.000461814)
(0.000519113 0 0.000570901)
(0.000647957 0 0.000703667)
(0.000770613 0 0.000853355)
(0.00088782 0 0.00106487)
(0.000989567 0 0.00124602)
(0.00108063 0 0.00141334)
(0.0011801 0 0.00179147)
(0.00127037 0 0.00250057)
(0.00123144 0 0.00255467)
(0.00114089 0 0.0021464)
(0.0429325 0 0.00356147)
(0.0866437 0 0.00483478)
(0.0481329 0 0.00733145)
(0.00763409 0 0.0108272)
(0.00741054 0 0.0101501)
(0.00692963 0 0.0107493)
(0.0076273 0 0.0140277)
(0.00819989 0 0.0173478)
(0.00826249 0 0.0195319)
(0.00811112 0 0.0231158)
(0.00757943 0 0.026972)
(0.00666436 0 0.0317637)
(0.00508599 0 0.0366318)
(0.00295668 0 0.0427059)
(-0.000496429 0 9.98638e-05)
(-0.000334922 0 0.000188287)
(-0.000182944 0 0.000273297)
(-3.59217e-05 0 0.000352604)
(0.000102778 0 0.000439402)
(0.000234701 0 0.000525124)
(0.000358608 0 0.000627363)
(0.000474461 0 0.00073901)
(0.000581877 0 0.000897835)
(0.000674894 0 0.00102798)
(0.000755876 0 0.00114531)
(0.000838956 0 0.00142812)
(0.000912013 0 0.00196796)
(0.000887319 0 0.00198886)
(0.000818641 0 0.00165041)
(0.0394233 0 0.00272904)
(0.0805763 0 0.00375607)
(0.0443066 0 0.00678676)
(0.00514668 0 0.0102134)
(0.00497729 0 0.00863042)
(0.00464151 0 0.00844147)
(0.00526432 0 0.0113239)
(0.00582061 0 0.0140101)
(0.00594858 0 0.0152274)
(0.00588597 0 0.0177042)
(0.00557875 0 0.0206342)
(0.00497488 0 0.0241834)
(0.00385732 0 0.0277941)
(0.00227162 0 0.0324762)
(-0.000833991 0 0.000114549)
(-0.000651423 0 0.000210564)
(-0.000482185 0 0.000297149)
(-0.000320009 0 0.000371647)
(-0.000171007 0 0.00044798)
(-3.05056e-05 0 0.000517419)
(9.81859e-05 0 0.000596962)
(0.000216732 0 0.000679147)
(0.000323815 0 0.00079872)
(0.000416688 0 0.000888938)
(0.000495935 0 0.00096566)
(0.000572083 0 0.00117636)
(0.00063693 0 0.00159114)
(0.000628098 0 0.00158236)
(0.000582124 0 0.00129112)
(0.0351908 0 0.00211914)
(0.0731586 0 0.00305154)
(0.0401269 0 0.00674278)
(0.00316969 0 0.0100944)
(0.00311039 0 0.00783705)
(0.00285917 0 0.00696149)
(0.00342209 0 0.00956037)
(0.00396774 0 0.0118024)
(0.00413146 0 0.0122744)
(0.00415292 0 0.0138665)
(0.00401107 0 0.0161012)
(0.00362453 0 0.0187029)
(0.00284556 0 0.0213031)
(0.00169428 0 0.0247719)
(-0.001222 0 0.000136412)
(-0.00100742 0 0.000246366)
(-0.000811178 0 0.000340542)
(-0.000624296 0 0.000415779)
(-0.000454632 0 0.000487144)
(-0.000295755 0 0.00054544)
(-0.000153403 0 0.000608944)
(-2.30645e-05 0 0.000668871)
(9.23168e-05 0 0.000758613)
(0.000193077 0 0.00081606)
(0.000278064 0 0.000859167)
(0.000354729 0 0.00101552)
(0.000418743 0 0.00133848)
(0.000428232 0 0.0013009)
(0.000404882 0 0.00103719)
(0.0300521 0 0.00168174)
(0.0640042 0 0.00260579)
(0.0354217 0 0.00716144)
(0.00172602 0 0.0105128)
(0.00163652 0 0.00752298)
(0.00148825 0 0.00614649)
(0.00200791 0 0.00856453)
(0.0025034 0 0.0104591)
(0.00271681 0 0.0103243)
(0.00281907 0 0.0112395)
(0.00278563 0 0.0129584)
(0.00257169 0 0.0148422)
(0.00205127 0 0.0166319)
(0.00123397 0 0.0191488)
(-0.00168175 0 0.00016624)
(-0.00142389 0 0.000297164)
(-0.00118957 0 0.000405194)
(-0.000966777 0 0.000486636)
(-0.000766652 0 0.000558405)
(-0.000579939 0 0.00061041)
(-0.000414002 0 0.00066263)
(-0.000262704 0 0.000705126)
(-0.000130704 0 0.000772969)
(-1.42404e-05 0 0.000803123)
(8.35135e-05 0 0.000816313)
(0.000167812 0 0.000931122)
(0.000237522 0 0.0011883)
(0.000267828 0 0.0011208)
(0.000267637 0 0.000866726)
(0.0239802 0 0.00137923)
(0.0530453 0 0.00229082)
(0.0299421 0 0.00782623)
(0.000686628 0 0.0115051)
(0.000556593 0 0.0077332)
(0.000404472 0 0.005818)
(0.000886657 0 0.00810836)
(0.00135618 0 0.00974701)
(0.00162525 0 0.00917337)
(0.00177991 0 0.00954257)
(0.00183425 0 0.0108664)
(0.00175993 0 0.0122157)
(0.00143065 0 0.0133746)
(0.000875238 0 0.0151483)
(-0.00223617 0 0.000205053)
(-0.00192228 0 0.000364807)
(-0.00163801 0 0.00049355)
(-0.00136752 0 0.000587032)
(-0.00112564 0 0.000664486)
(-0.000899964 0 0.000714588)
(-0.000700759 0 0.000759998)
(-0.000519379 0 0.000789286)
(-0.000361632 0 0.000840772)
(-0.000221096 0 0.000846628)
(-0.000103215 0 0.000832228)
(-4.54279e-06 0 0.000915531)
(7.69888e-05 0 0.00112696)
(0.000131828 0 0.00102607)
(0.000156553 0 0.000764886)
(0.0170073 0 0.00118534)
(0.0402229 0 0.00207907)
(0.0236903 0 0.00869812)
(5.5531e-06 0 0.0128299)
(-0.000171924 0 0.00820806)
(-0.000345234 0 0.00580499)
(4.55449e-05 0 0.00814584)
(0.000485058 0 0.00954248)
(0.000772119 0 0.008579)
(0.000998264 0 0.00856665)
(0.0011094 0 0.00958814)
(0.00112093 0 0.0105249)
(0.000947924 0 0.0111996)
(0.000597584 0 0.0124034)
(-0.00291043 0 0.000254179)
(-0.00252638 0 0.0004516)
(-0.00217876 0 0.000608728)
(-0.00184716 0 0.000720631)
(-0.00155112 0 0.000809418)
(-0.00127459 0 0.000862063)
(-0.0010309 0 0.000904664)
(-0.000808625 0 0.000924222)
(-0.000615804 0 0.000964308)
(-0.000442539 0 0.000947835)
(-0.000296351 0 0.000905796)
(-0.000176025 0 0.000964976)
(-7.622e-05 0 0.00114736)
(7.86796e-06 0 0.00100776)
(6.02999e-05 0 0.00072247)
(0.00935375 0 0.00108299)
(0.0258644 0 0.00195919)
(0.0166971 0 0.00952759)
(-0.000350932 0 0.0142268)
(-0.000554581 0 0.00890227)
(-0.000773071 0 0.00601509)
(-0.000479201 0 0.00844851)
(-0.000118847 0 0.00972748)
(0.000143875 0 0.00847839)
(0.000395777 0 0.00814709)
(0.000546762 0 0.00890456)
(0.000630401 0 0.009526)
(0.000575693 0 0.00984844)
(0.00038074 0 0.0106162)
(-0.0037327 0 0.000315311)
(-0.0032625 0 0.000560588)
(-0.00283648 0 0.000754804)
(-0.00242868 0 0.000892132)
(-0.00206439 0 0.000998459)
(-0.00172325 0 0.00105837)
(-0.00142256 0 0.00110219)
(-0.00114751 0 0.00111523)
(-0.000908684 0 0.00114824)
(-0.000692277 0 0.00111019)
(-0.000508934 0 0.00103933)
(-0.00035944 0 0.00108044)
(-0.000234336 0 0.00124774)
(-0.00011464 0 0.00106187)
(-2.98185e-05 0 0.000734664)
(0.00138575 0 0.00106201)
(0.0105036 0 0.00191611)
(0.00914138 0 0.0101683)
(-0.000386541 0 0.0153912)
(-0.000602792 0 0.00954919)
(-0.000860304 0 0.0063307)
(-0.000716275 0 0.00895309)
(-0.000481171 0 0.0101306)
(-0.000256659 0 0.00865222)
(-9.53185e-06 0 0.00812145)
(0.000130241 0 0.00870172)
(0.00025586 0 0.00904911)
(0.000287279 0 0.00910707)
(0.000217655 0 0.00954954)
(-0.00473482 0 0.000390552)
(-0.00416033 0 0.000695491)
(-0.00363898 0 0.000936874)
(-0.00313781 0 0.00110769)
(-0.00268925 0 0.00123846)
(-0.00226778 0 0.00131065)
(-0.00189564 0 0.00135993)
(-0.00155395 0 0.00136966)
(-0.00125665 0 0.00139986)
(-0.000985284 0 0.00134014)
(-0.000754228 0 0.00123781)
(-0.000566536 0 0.00126595)
(-0.000408443 0 0.00143104)
(-0.000245462 0 0.00118905)
(-0.000122278 0 0.000800182)
(-0.00645538 0 0.00111853)
(-0.00501271 0 0.00194337)
(0.00133962 0 0.0104032)
(-0.00020286 0 0.0160673)
(-0.000407045 0 0.0100602)
(-0.000673141 0 0.0066299)
(-0.000677815 0 0.00944127)
(-0.0005871 0 0.010612)
(-0.000444036 0 0.00901433)
(-0.000255597 0 0.00834377)
(-0.000131819 0 0.00879068)
(2.21303e-06 0 0.00895119)
(7.58916e-05 0 0.00884162)
(9.46273e-05 0 0.00902792)
(-0.00595334 0 0.000482404)
(-0.00525383 0 0.000860829)
(-0.00461773 0 0.0011611)
(-0.00400365 0 0.00137478)
(-0.0034527 0 0.00153798)
(-0.00293281 0 0.00162818)
(-0.00247258 0 0.0016874)
(-0.00204821 0 0.00169707)
(-0.00167785 0 0.00172897)
(-0.00133752 0 0.0016468)
(-0.00104637 0 0.00150906)
(-0.000810123 0 0.00152898)
(-0.000609841 0 0.00170446)
(-0.000393435 0 0.00139384)
(-0.000223985 0 0.000920877)
(-0.0137625 0 0.0012525)
(-0.0199063 0 0.00203819)
(-0.00633609 0 0.0102453)
(4.90448e-05 0 0.0161054)
(-6.14998e-05 0 0.0102515)
(-0.000275306 0 0.00682758)
(-0.000436656 0 0.00982507)
(-0.000486259 0 0.011025)
(-0.000439554 0 0.00938319)
(-0.000331012 0 0.00867678)
(-0.00025391 0 0.00905793)
(-0.000150999 0 0.00908335)
(-5.79901e-05 0 0.00887697)
(1.1912e-05 0 0.00889509)
(-0.00742952 0 0.000593513)
(-0.00658174 0 0.00106164)
(-0.00580894 0 0.00143462)
(-0.00505951 0 0.00170238)
(-0.00438536 0 0.00190723)
(-0.00374624 0 0.00202209)
(-0.00317886 0 0.0020964)
(-0.00265325 0 0.00210969)
(-0.0021929 0 0.0021482)
(-0.00176711 0 0.00204203)
(-0.00140114 0 0.00186366)
(-0.00110405 0 0.00188024)
(-0.000850713 0 0.00207933)
(-0.000568345 0 0.00168467)
(-0.000342345 0 0.00110151)
(-0.0202141 0 0.00146899)
(-0.0334291 0 0.00220229)
(-0.0135462 0 0.00968803)
(0.000230843 0 0.01551)
(0.000281444 0 0.0101336)
(0.000184171 0 0.00687317)
(-7.03397e-05 0 0.00997461)
(-0.000239274 0 0.011268)
(-0.000293944 0 0.009679)
(-0.000276019 0 0.00899336)
(-0.000255626 0 0.00935149)
(-0.000199338 0 0.00931652)
(-0.00012099 0 0.00908582)
(-3.76426e-05 0 0.00900082)
(-0.0092103 0 0.000726767)
(-0.00818731 0 0.00130348)
(-0.00725333 0 0.00176526)
(-0.00634325 0 0.00210042)
(-0.00552223 0 0.00235799)
(-0.00474004 0 0.00250555)
(-0.00404347 0 0.00260088)
(-0.00339519 0 0.00262217)
(-0.00282533 0 0.00267304)
(-0.00229476 0 0.00254086)
(-0.00183668 0 0.00231514)
(-0.00146419 0 0.00233374)
(-0.00114476 0 0.00257109)
(-0.000780959 0 0.00207373)
(-0.000485461 0 0.00134972)
(-0.0256941 0 0.00177718)
(-0.0451622 0 0.00244441)
(-0.0200151 0 0.00891931)
(0.000205791 0 0.0144094)
(0.000486818 0 0.00970355)
(0.000583595 0 0.00677215)
(0.000291006 0 0.00988856)
(4.84636e-05 0 0.0112758)
(-6.60294e-05 0 0.00980113)
(-0.000126158 0 0.00920251)
(-0.000170234 0 0.00959026)
(-0.000167281 0 0.00954267)
(-0.000124343 0 0.0093329)
(-5.62307e-05 0 0.0092136)
(-0.011347 0 0.000885252)
(-0.0101207 0 0.00159212)
(-0.0089971 0 0.00216153)
(-0.00789716 0 0.00257985)
(-0.00690272 0 0.00290322)
(-0.00595057 0 0.00309325)
(-0.00509971 0 0.00321696)
(-0.00430404 0 0.00325176)
(-0.003602 0 0.00332182)
(-0.00294411 0 0.00316122)
(-0.00237363 0 0.00288015)
(-0.00190869 0 0.00290694)
(-0.001508 0 0.00319916)
(-0.00104398 0 0.00257703)
(-0.000662562 0 0.00167609)
(-0.0302362 0 0.00219026)
(-0.054996 0 0.00276986)
(-0.0256546 0 0.0081337)
(-9.93088e-05 0 0.013087)
(0.000446185 0 0.00911344)
(0.000775605 0 0.00657933)
(0.000535208 0 0.00958413)
(0.000285367 0 0.0110577)
(0.000157479 0 0.00974335)
(5.09618e-05 0 0.00925679)
(-3.3303e-05 0 0.00969432)
(-8.04157e-05 0 0.00968772)
(-8.45048e-05 0 0.00953874)
(-4.99256e-05 0 0.00942779)
(-0.0138963 0 0.00107215)
(-0.0124313 0 0.00193372)
(-0.0110908 0 0.00263228)
(-0.00977039 0 0.00315219)
(-0.00857177 0 0.00355713)
(-0.00741854 0 0.00380153)
(-0.00638521 0 0.00396237)
(-0.00541411 0 0.00401776)
(-0.00455391 0 0.0041157)
(-0.00374249 0 0.00392424)
(-0.00303583 0 0.00357838)
(-0.00245839 0 0.00362082)
(-0.00195837 0 0.003987)
(-0.00137209 0 0.00321398)
(-0.000885789 0 0.00209449)
(-0.0339589 0 0.00272654)
(-0.0630547 0 0.0031802)
(-0.0304921 0 0.00749294)
(-0.000687284 0 0.0118256)
(0.000101278 0 0.00851445)
(0.000682246 0 0.00637925)
(0.000567785 0 0.00917357)
(0.000376673 0 0.0106749)
(0.000297162 0 0.00952765)
(0.000194681 0 0.00916356)
(0.000100448 0 0.0096554)
(2.13601e-05 0 0.00970983)
(-2.00339e-05 0 0.00963299)
(-2.57319e-05 0 0.0095707)
(-0.0169198 0 0.00129092)
(-0.0151916 0 0.00233427)
(-0.0135907 0 0.00318659)
(-0.0120115 0 0.00382989)
(-0.0105787 0 0.00433468)
(-0.00919148 0 0.00464761)
(-0.00794295 0 0.00485661)
(-0.00676408 0 0.00494172)
(-0.0057163 0 0.00507833)
(-0.00472135 0 0.00485371)
(-0.00385101 0 0.00443263)
(-0.00313765 0 0.00450013)
(-0.00251701 0 0.00496252)
(-0.00178206 0 0.00400854)
(-0.00116779 0 0.00262224)
(-0.0370035 0 0.00340624)
(-0.0696004 0 0.00374178)
(-0.0346236 0 0.00711061)
(-0.00156842 0 0.0108609)
(-0.000545576 0 0.00807315)
(0.000278451 0 0.00626887)
(0.000343948 0 0.00877611)
(0.000270343 0 0.0102434)
(0.00029509 0 0.00924184)
(0.000244891 0 0.00897686)
(0.000180798 0 0.00949683)
(0.00010229 0 0.00961538)
(4.25487e-05 0 0.00960602)
(3.36861e-06 0 0.00960419)
(-0.0184058 0 0.00280113)
(-0.0204837 0 0.00154475)
(-0.0165576 0 0.0038345)
(-0.0146918 0 0.0046249)
(-0.0129787 0 0.00525129)
(-0.0113168 0 0.0056503)
(-0.00982053 0 0.00592042)
(-0.00839922 0 0.00604664)
(-0.00712984 0 0.0062359)
(-0.0059165 0 0.00597635)
(-0.00485105 0 0.00546834)
(-0.00397481 0 0.0055729)
(-0.00320886 0 0.00615807)
(-0.00229409 0 0.00498887)
(-0.0015241 0 0.00328015)
(-0.0395236 0 0.00425582)
(-0.0748922 0 0.00454022)
(-0.0381932 0 0.00701367)
(-0.00271499 0 0.0103454)
(-0.00146504 0 0.00787818)
(-0.000407974 0 0.00632386)
(-0.000139954 0 0.0085245)
(-5.34055e-05 0 0.00988749)
(0.000115825 0 0.00898575)
(0.000162138 0 0.00878157)
(0.000171146 0 0.00929494)
(0.000125143 0 0.00945131)
(7.84488e-05 0 0.00948299)
(2.58293e-05 0 0.00953518)
(-0.0178165 0 0.00555219)
(-0.0200578 0 0.00458421)
(-0.025031 0 0.00368928)
(-0.0311768 0 0.00229451)
(-0.0158317 0 0.00632404)
(-0.0138639 0 0.0068276)
(-0.0120716 0 0.00717506)
(-0.0103656 0 0.00735778)
(-0.00884 0 0.0076166)
(-0.00737014 0 0.00732089)
(-0.00607297 0 0.00671394)
(-0.00500246 0 0.00687072)
(-0.0040628 0 0.00760975)
(-0.00293226 0 0.00618702)
(-0.00197421 0 0.00409286)
(-0.0416706 0 0.00530684)
(-0.0792092 0 0.00559302)
(-0.0413578 0 0.00725156)
(-0.00416184 0 0.0102963)
(-0.00264226 0 0.00799888)
(-0.00133958 0 0.00659387)
(-0.00086605 0 0.00850067)
(-0.000575344 0 0.00972069)
(-0.000247561 0 0.00886742)
(-6.73801e-05 0 0.00867441)
(4.64524e-05 0 0.0091342)
(6.76588e-05 0 0.00929403)
(7.14006e-05 0 0.00933174)
(3.2944e-05 0 0.00940971)
(-0.0168399 0 0.008202)
(-0.019203 0 0.00756706)
(-0.024269 0 0.00731705)
(-0.0305728 0 0.00678833)
(-0.0370809 0 0.00534538)
(-0.0455211 0 0.00325878)
(-0.014755 0 0.00864406)
(-0.01273 0 0.00889938)
(-0.0108985 0 0.00924976)
(-0.0091262 0 0.00891919)
(-0.0075588 0 0.00820029)
(-0.00625915 0 0.00842802)
(-0.00511261 0 0.00935784)
(-0.00372485 0 0.00763913)
(-0.00254134 0 0.00508882)
(-0.0435681 0 0.00659487)
(-0.0828259 0 0.00691384)
(-0.0442696 0 0.00786162)
(-0.00593962 0 0.0106076)
(-0.00407183 0 0.00848389)
(-0.00249328 0 0.00714255)
(-0.00179972 0 0.0087834)
(-0.00129052 0 0.00983332)
(-0.000788579 0 0.00897833)
(-0.000444261 0 0.00875207)
(-0.000196994 0 0.00911478)
(-7.2129e-05 0 0.00923319)
(7.52763e-06 0 0.00922442)
(1.63491e-05 0 0.00929704)
(-0.0155029 0 0.0107015)
(-0.0179352 0 0.0103459)
(-0.0230045 0 0.0108188)
(-0.0293525 0 0.0112307)
(-0.0360294 0 0.0106113)
(-0.0447038 0 0.00959794)
(-0.0532688 0 0.00744252)
(-0.0640139 0 0.00446523)
(-0.0133632 0 0.011168)
(-0.0112477 0 0.0108022)
(-0.00935703 0 0.00995977)
(-0.0077862 0 0.0102832)
(-0.00639713 0 0.011446)
(-0.00470563 0 0.00938515)
(-0.0032535 0 0.00630116)
(-0.0453091 0 0.00816039)
(-0.0859285 0 0.00853844)
(-0.0470493 0 0.0088261)
(-0.00803545 0 0.0112416)
(-0.00576686 0 0.00934111)
(-0.00384486 0 0.00804024)
(-0.00291963 0 0.00942037)
(-0.00218861 0 0.0102859)
(-0.00148906 0 0.0093941)
(-0.000957897 0 0.00909832)
(-0.000557793 0 0.00932118)
(-0.000299982 0 0.00935551)
(-0.000115673 0 0.0092641)
(-2.90535e-05 0 0.00928401)
(-0.0137506 0 0.0130089)
(-0.0162987 0 0.0133954)
(-0.0212744 0 0.0141341)
(-0.0275443 0 0.0153593)
(-0.0342814 0 0.0157114)
(-0.0430386 0 0.0159159)
(-0.0518645 0 0.0147835)
(-0.0629445 0 0.0130614)
(-0.0736465 0 0.0099827)
(-0.0869781 0 0.00594131)
(-0.0115234 0 0.012029)
(-0.00964184 0 0.0124748)
(-0.00796159 0 0.0139206)
(-0.00591228 0 0.0114699)
(-0.00414364 0 0.0077678)
(-0.0469709 0 0.0100484)
(-0.0886523 0 0.0105087)
(-0.0498296 0 0.0101541)
(-0.0105079 0 0.0122601)
(-0.00774876 0 0.010604)
(-0.00541667 0 0.00935341)
(-0.00423109 0 0.0104512)
(-0.00326413 0 0.0111212)
(-0.00233819 0 0.0101658)
(-0.00160436 0 0.00978022)
(-0.0010259 0 0.00983366)
(-0.000605806 0 0.00974241)
(-0.000297274 0 0.00952518)
(-0.000107548 0 0.00945663)
(-0.0118486 0 0.0150539)
(-0.0141252 0 0.0144339)
(-0.0189963 0 0.0172112)
(-0.0252177 0 0.019987)
(-0.0318957 0 0.0205685)
(-0.0405784 0 0.0217554)
(-0.0495269 0 0.0219047)
(-0.0607327 0 0.0217134)
(-0.0718157 0 0.019845)
(-0.0856318 0 0.0172212)
(-0.098526 0 0.0129988)
(-0.114666 0 0.00763246)
(-0.00985929 0 0.0168375)
(-0.0073937 0 0.0139399)
(-0.00525029 0 0.00953197)
(-0.0486113 0 0.0123093)
(-0.0911159 0 0.0128721)
(-0.0527037 0 0.0118843)
(-0.013459 0 0.0137302)
(-0.0101137 0 0.0123151)
(-0.00725951 0 0.0111239)
(-0.00576274 0 0.0119305)
(-0.00453306 0 0.0123839)
(-0.00333989 0 0.0113476)
(-0.00238038 0 0.0108524)
(-0.00159532 0 0.0107037)
(-0.000992318 0 0.0104606)
(-0.000534298 0 0.0100965)
(-0.000215718 0 0.0098945)
(-0.00919996 0 0.0168621)
(-0.0121599 0 0.0202148)
(-0.016512 0 0.019958)
(-0.0220866 0 0.0215683)
(-0.0287355 0 0.0251205)
(-0.0374332 0 0.0284374)
(-0.0463566 0 0.0287108)
(-0.0574897 0 0.0296223)
(-0.0687589 0 0.0293977)
(-0.0827077 0 0.0287253)
(-0.0961865 0 0.0259359)
(-0.113188 0 0.0221164)
(-0.127934 0 0.0163126)
(-0.146835 0 0.00802611)
(-0.00662386 0 0.0116501)
(-0.050294 0 0.0150004)
(-0.0933508 0 0.0156838)
(-0.0558601 0 0.0140047)
(-0.0170632 0 0.0156605)
(-0.0128789 0 0.0145714)
(-0.00941664 0 0.0134113)
(-0.00757393 0 0.0138963)
(-0.00601197 0 0.0141195)
(-0.00451495 0 0.0129951)
(-0.00329493 0 0.0123715)
(-0.0022662 0 0.0119938)
(-0.0014613 0 0.0115709)
(-0.000822484 0 0.0110289)
(-0.000351392 0 0.0106679)
(-0.0520885 0 0.0182503)
(-0.00839007 0 0.0141571)