/*--------------------------------*- C++ -*----------------------------------*\
| =========                 |                                                 |
| \\      /  F ield         | OpenFOAM: The Open Source CFD Toolbox           |
|  \\    /   O peration     | Version:  5.x                                   |
|   \\  /    A nd           | Web:      www.OpenFOAM.org                      |
|    \\/     M anipulation  |                                                 |
\*---------------------------------------------------------------------------*/
FoamFile
{
    version     2.0;
    format      ascii;
    class       surfaceScalarField;
    location    "0.1";
    object      alphaPhi10;
}
// * * * * * * * * * * * * * * * * * * * * * * * * * * * * * * * * * * * * * //

dimensions      [0 3 -1 0 0 0 0];

internalField   nonuniform List<scalar> 
30582
(
0.000221512
7.4805e-05
0.000163048
5.8475e-05
0.000219282
0.000151883
0.000107247
5.58053e-05
0.000160769
0.000117007
0.000214385
0.000233927
7.47653e-05
3.24904e-05
0.000104975
0.000111609
0.000155736
0.000175671
0.00020543
0.000325033
4.97942e-05
2.49787e-05
7.29565e-05
6.45251e-05
0.000100135
0.000167221
0.000146864
0.000234251
0.00019701
0.000424695
3.36292e-05
1.61741e-05
4.83965e-05
4.95543e-05
6.91822e-05
9.54935e-05
9.24985e-05
0.000221593
0.000137641
0.000293633
0.000172779
0.000548768
2.26925e-05
1.09456e-05
3.26524e-05
3.19315e-05
4.55487e-05
7.31981e-05
6.34403e-05
0.000124563
8.37391e-05
0.0002755
0.00011391
0.000352512
0.000167741
0.000678089
1.53493e-05
7.34953e-06
2.19999e-05
2.16109e-05
3.06804e-05
4.68095e-05
4.13268e-05
9.53224e-05
5.66308e-05
0.00015168
6.643e-05
0.000322985
0.000103447
0.000416813
0.000115291
0.000860103
1.04193e-05
4.93648e-06
1.48664e-05
1.44934e-05
2.06151e-05
3.1689e-05
2.7754e-05
6.03923e-05
3.6257e-05
0.000115707
4.46562e-05
0.000173461
5.81185e-05
0.000368318
5.32705e-05
0.000478836
8.08877e-05
0.000182558
7.10321e-06
3.32117e-06
1.00846e-05
9.72591e-06
1.39058e-05
2.12125e-05
1.8571e-05
4.08825e-05
2.41684e-05
7.24901e-05
2.8171e-05
0.000132201
3.80497e-05
0.000193534
2.85524e-05
0.000393038
2.006e-05
3.14563e-05
1.77631e-05
2.05716e-06
4.86556e-06
2.23938e-06
6.87147e-06
6.5377e-06
9.42097e-06
1.42157e-05
1.24918e-05
2.72988e-05
1.60562e-05
4.90022e-05
1.86787e-05
8.19888e-05
2.35898e-05
0.000146665
1.63174e-05
0.000205771
1.42005e-05
1.60141e-05
8.60013e-07
1.44022e-07
1.4997e-08
1.11227e-09
3.34981e-06
1.51547e-06
4.70518e-06
4.40538e-06
6.41316e-06
9.54718e-06
8.44615e-06
1.82645e-05
1.07469e-05
3.26127e-05
1.23313e-05
5.5354e-05
1.53201e-05
9.02615e-05
9.48756e-06
0.000153497
6.22118e-06
2.56551e-06
2.10644e-07
2.07852e-08
1.45237e-10
1.43538e-11
-4.84345e-14
2.76505e-14
2.31866e-06
1.03019e-06
3.23876e-06
2.97939e-06
4.38833e-06
6.43008e-06
5.74112e-06
1.22533e-05
7.24098e-06
2.17725e-05
8.2216e-06
3.67248e-05
9.97317e-06
6.07025e-05
5.78766e-06
9.39627e-05
4.18204e-06
8.90333e-07
2.06623e-08
5.32307e-10
1.85637e-11
5.17228e-13
5.46693e-16
2.31145e-16
-2.34252e-19
5.83439e-19
1.61336e-06
7.02829e-07
2.24139e-06
2.02251e-06
3.019e-06
4.34682e-06
3.92409e-06
8.24705e-06
4.90886e-06
1.45862e-05
5.52383e-06
2.44714e-05
6.59529e-06
4.01035e-05
3.57243e-06
6.29183e-05
2.45503e-06
2.17329e-07
4.69011e-09
5.52945e-11
3.38091e-13
6.34894e-15
6.67439e-17
7.10692e-18
6.43494e-21
4.06826e-21
-3.52576e-25
1.10633e-23
1.12813e-06
4.80582e-07
1.55928e-06
1.37684e-06
2.08815e-06
2.94896e-06
2.69711e-06
5.57201e-06
3.34805e-06
9.80771e-06
3.73692e-06
1.63736e-05
4.3964e-06
2.66708e-05
2.26989e-06
4.14063e-05
1.57205e-06
6.18771e-08
7.47329e-10
3.29625e-12
3.49142e-14
4.64643e-16
1.68205e-18
6.44618e-20
4.13597e-22
9.27876e-23
5.45458e-26
7.09227e-26
9.94115e-28
7.92402e-07
3.29999e-07
1.0902e-06
9.39648e-07
1.45194e-06
2.00646e-06
1.86393e-06
3.77819e-06
2.29694e-06
6.6214e-06
2.54452e-06
1.09998e-05
2.95352e-06
1.78166e-05
1.46205e-06
2.74788e-05
9.9654e-07
1.77483e-08
1.49586e-10
3.97087e-13
2.42447e-15
2.07992e-17
1.50157e-19
3.52183e-21
7.72893e-24
5.82401e-25
1.79717e-27
1.11612e-27
2.19316e-31
5.57522e-07
2.29179e-07
7.65697e-07
6.43499e-07
1.01497e-06
1.36909e-06
1.29516e-06
2.56988e-06
1.5848e-06
4.487e-06
1.74322e-06
7.42113e-06
1.99816e-06
1.19546e-05
9.54087e-07
1.83245e-05
6.33722e-07
5.29867e-09
3.01214e-11
7.57658e-14
3.91582e-16
2.22075e-18
8.81823e-21
1.337e-22
5.8737e-25
2.45029e-26
2.90631e-29
4.96565e-30
3.86689e-33
3.91184e-07
1.5961e-07
5.38474e-07
4.43086e-07
7.1296e-07
9.37098e-07
9.05044e-07
1.75335e-06
1.09973e-06
3.05087e-06
1.20143e-06
5.02631e-06
1.36065e-06
8.05741e-06
6.2941e-07
1.22788e-05
4.00997e-07
1.6623e-09
6.35021e-12
1.54592e-14
5.78019e-17
2.87944e-19
1.02928e-21
1.08258e-23
2.76324e-26
7.99902e-28
1.84885e-30
1.65829e-31
5.94781e-35
2.67237e-07
1.14029e-07
3.76065e-07
3.04404e-07
5.0143e-07
6.43562e-07
6.35601e-07
1.19963e-06
7.67699e-07
2.081e-06
8.33027e-07
3.41658e-06
9.32503e-07
5.45303e-06
4.19183e-07
8.26693e-06
2.51478e-07
5.5503e-10
1.40964e-12
3.41447e-15
8.60565e-18
4.04628e-20
1.01529e-22
9.62282e-25
2.16855e-27
4.61231e-29
6.55289e-32
4.47095e-33
3.104e-36
1.75958e-07
7.80586e-08
2.56411e-07
2.128e-07
3.49688e-07
4.41062e-07
4.46722e-07
8.22705e-07
5.38663e-07
1.42305e-06
5.8124e-07
2.32984e-06
6.43236e-07
3.70453e-06
2.82162e-07
5.58934e-06
1.55346e-07
2.00598e-10
3.34246e-13
8.33878e-16
1.39077e-18
6.2916e-21
1.06796e-23
9.34633e-26
1.4657e-28
2.82953e-30
3.38862e-33
1.80271e-34
7.86294e-38
1.10213e-07
5.26923e-08
1.68124e-07
1.47592e-07
2.38135e-07
3.06934e-07
3.1092e-07
5.63559e-07
3.78137e-07
9.74887e-07
4.077e-07
1.59234e-06
4.46614e-07
2.52486e-06
1.91547e-07
3.79453e-06
9.42182e-08
7.75952e-11
8.64516e-14
2.30805e-16
2.49845e-19
1.11136e-21
1.2499e-24
1.02078e-26
1.08643e-29
1.90655e-31
1.58313e-34
7.65648e-36
2.6997e-39
6.60497e-08
3.65161e-08
1.05133e-07
1.06124e-07
1.56023e-07
2.14932e-07
2.11499e-07
3.91627e-07
2.62915e-07
6.67609e-07
2.86053e-07
1.09e-06
3.11816e-07
1.72439e-06
1.31036e-07
2.5845e-06
5.60043e-08
3.1536e-11
2.46472e-14
7.1024e-17
5.06393e-20
2.30169e-22
1.67964e-25
1.29299e-27
9.1493e-31
1.46217e-32
8.25268e-36
3.5856e-37
8.76017e-41
3.85169e-08
2.8865e-08
6.35927e-08
8.2006e-08
9.78447e-08
1.5774e-07
1.38739e-07
2.76066e-07
1.78784e-07
4.64084e-07
1.99162e-07
7.46134e-07
2.18091e-07
1.17949e-06
9.03809e-08
1.76346e-06
3.26334e-08
1.30772e-11
7.56121e-15
2.40845e-17
1.15462e-20
5.44467e-23
2.63369e-26
1.97127e-28
9.08407e-32
1.323e-33
4.97973e-37
1.93076e-38
3.21576e-42
2.15123e-08
2.70204e-08
3.81541e-08
7.06733e-08
5.98236e-08
1.24469e-07
8.76541e-08
2.04685e-07
1.17689e-07
3.28801e-07
1.35577e-07
5.19643e-07
1.51363e-07
8.07967e-07
6.28152e-08
1.20467e-06
1.86352e-08
5.46391e-12
2.48394e-15
8.41399e-18
3.00117e-21
1.48683e-23
4.81217e-27
3.51295e-29
1.08146e-32
1.47221e-34
3.62871e-38
1.24572e-39
1.39032e-43
7.72021e-09
2.86744e-08
2.25094e-08
6.56433e-08
3.65406e-08
1.07851e-07
5.44594e-08
1.62695e-07
7.50946e-08
2.45376e-07
8.98593e-08
3.69624e-07
1.0421e-07
5.62888e-07
4.34169e-08
8.24702e-07
1.04443e-08
2.26084e-12
9.00502e-16
3.05623e-18
8.52293e-22
4.25819e-24
1.03962e-27
7.58258e-30
1.55131e-33
1.95661e-35
3.2502e-39
1.00786e-40
7.42599e-45
-9.19328e-09
3.14961e-08
9.29894e-09
6.39641e-08
2.19825e-08
9.85994e-08
3.40453e-08
1.40592e-07
4.74675e-08
1.95586e-07
5.81981e-08
2.771e-07
7.04098e-08
4.02019e-07
3.06985e-08
5.73573e-07
5.72727e-09
1.12586e-12
3.79285e-16
1.19077e-18
2.82859e-22
1.32961e-24
2.47209e-28
1.75655e-30
2.74198e-34
3.30302e-36
3.63257e-40
9.94858e-42
4.99294e-46
-3.37578e-08
3.4697e-08
-7.50906e-09
6.35357e-08
9.34048e-09
9.36375e-08
2.08834e-08
1.27039e-07
3.03424e-08
1.68144e-07
3.73101e-08
2.21394e-07
4.69938e-08
3.02136e-07
2.17132e-08
4.10369e-07
3.15168e-09
6.30608e-13
1.8932e-16
5.60451e-19
1.07074e-22
4.6606e-25
7.02724e-29
4.63668e-31
5.3729e-35
6.13378e-37
5.20324e-41
1.30658e-42
4.33087e-47
-6.81478e-08
3.82906e-08
-3.19086e-08
6.49614e-08
-6.86244e-09
9.10272e-08
9.11326e-09
1.18908e-07
1.88569e-08
1.50504e-07
2.42092e-08
1.89152e-07
3.10159e-08
2.41327e-07
1.53514e-08
3.09474e-07
1.71181e-09
3.62472e-13
8.60677e-17
2.48626e-19
4.43576e-23
1.81886e-25
2.19706e-29
1.38646e-31
1.27663e-35
1.34095e-37
8.30599e-42
1.9321e-43
4.98383e-48
-1.13198e-07
4.33496e-08
-6.57194e-08
6.95629e-08
-2.99918e-08
9.20136e-08
-5.84003e-09
1.14433e-07
8.43366e-09
1.393e-07
1.48832e-08
1.68063e-07
2.048e-08
2.04511e-07
1.07341e-08
2.48115e-07
9.325e-10
2.09284e-13
4.09118e-17
1.15312e-19
1.55754e-23
6.49599e-26
6.87848e-30
4.34987e-32
3.20451e-36
3.30721e-38
1.61327e-42
3.43451e-44
6.40423e-49
-1.69566e-07
5.12239e-08
-1.09491e-07
7.93661e-08
-6.1524e-08
9.86656e-08
-2.65993e-08
1.15209e-07
-4.64008e-09
1.33252e-07
6.40796e-09
1.54034e-07
1.26709e-08
1.80035e-07
7.33552e-09
2.10477e-07
5.09978e-10
1.24694e-13
1.97642e-17
5.34737e-20
5.94675e-24
2.42759e-26
1.92911e-30
1.25332e-32
7.79977e-37
8.25563e-39
3.21721e-43
6.85967e-45
1.00447e-49
-2.38805e-07
6.31561e-08
-1.63825e-07
9.62947e-08
-1.01855e-07
1.13502e-07
-5.44672e-08
1.24036e-07
-2.22782e-08
1.3397e-07
-3.83812e-09
1.46598e-07
5.56487e-09
1.63647e-07
4.69686e-09
1.84837e-07
2.80605e-10
7.75842e-14
9.94159e-18
2.56362e-20
2.30191e-24
9.05172e-27
5.93927e-31
3.77064e-33
1.74637e-37
1.92016e-39
6.1033e-44
1.35615e-45
1.59321e-50
-3.2433e-07
8.04134e-08
-2.30357e-07
1.21787e-07
-1.51622e-07
1.38937e-07
-8.98383e-08
1.43635e-07
-4.543e-08
1.44762e-07
-1.71641e-08
1.47306e-07
-2.31578e-09
1.55099e-07
2.47396e-09
1.67131e-07
1.51543e-10
5.17872e-14
5.0452e-18
1.28164e-20
9.43612e-25
3.50003e-27
1.86386e-31
1.13137e-33
4.28091e-38
4.64741e-40
1.09941e-44
2.54306e-46
2.35609e-51
-4.3142e-07
1.03854e-07
-3.1248e-07
1.57413e-07
-2.12519e-07
1.76717e-07
-1.33414e-07
1.7677e-07
-7.44679e-08
1.68454e-07
-3.42782e-08
1.59744e-07
-1.18094e-08
1.5594e-07
5.60662e-10
1.57286e-07
7.44474e-11
3.7723e-14
2.52644e-18
6.93188e-21
3.98866e-25
1.41746e-27
6.15603e-32
3.54605e-34
1.08179e-38
1.12179e-40
2.1491e-45
4.94587e-47
3.48544e-52
-5.6726e-07
1.34497e-07
-4.15313e-07
2.04452e-07
-2.8789e-07
2.28943e-07
-1.86795e-07
2.25403e-07
-1.10099e-07
2.08029e-07
-5.55729e-08
1.8671e-07
-2.33801e-08
1.69683e-07
-1.24287e-09
1.57272e-07
1.96123e-11
3.10823e-14
1.11219e-18
4.21295e-21
1.71844e-25
6.32977e-28
2.10275e-32
1.17055e-34
2.98623e-39
2.85354e-41
4.371e-46
9.58944e-48
5.79923e-53
-7.40744e-07
1.73568e-07
-5.459e-07
2.65093e-07
-3.8264e-07
2.97517e-07
-2.5293e-07
2.92098e-07
-1.53829e-07
2.6567e-07
-8.16716e-08
2.31213e-07
-3.75278e-08
1.99122e-07
-3.08324e-09
1.70683e-07
-3.31981e-11
2.99792e-14
1.70311e-19
3.03456e-21
7.139e-26
3.26507e-28
7.48795e-33
4.36554e-35
8.56085e-40
7.71599e-42
9.90091e-47
1.97836e-48
9.83198e-54
-9.62765e-07
2.22955e-07
-7.12834e-07
3.41908e-07
-5.03137e-07
3.85586e-07
-3.36105e-07
3.79411e-07
-2.08178e-07
3.44307e-07
-1.13795e-07
2.95602e-07
-5.48115e-08
2.47091e-07
-5.07726e-09
2.00242e-07
-1.01099e-10
3.38821e-14
-6.91488e-19
2.73258e-21
1.97597e-26
2.11933e-28
2.54561e-33
1.92919e-35
2.62648e-40
2.4204e-42
2.4098e-47
4.38857e-49
1.81595e-54
-1.24624e-06
2.84784e-07
-9.265e-07
4.38683e-07
-6.5721e-07
4.97043e-07
-4.41972e-07
4.91501e-07
-2.76718e-07
4.47086e-07
-1.53847e-07
3.83088e-07
-7.62575e-08
3.16152e-07
-7.46635e-09
2.4878e-07
-2.04847e-10
4.37441e-14
-1.87137e-18
3.13123e-21
-1.99084e-26
1.80336e-28
3.77409e-34
1.14445e-35
8.04104e-41
9.22462e-43
6.43378e-48
1.16243e-49
3.5593e-55
-1.60677e-06
3.61869e-07
-1.19923e-06
5.597e-07
-8.54493e-07
6.37541e-07
-5.77437e-07
6.33404e-07
-3.64029e-07
5.78939e-07
-2.04499e-07
4.97318e-07
-1.03164e-07
4.09609e-07
-1.04108e-08
3.18654e-07
-3.75453e-10
6.30577e-14
-3.98784e-18
4.3741e-21
-7.77984e-26
2.11379e-28
-1.2691e-33
9.30822e-36
1.52462e-41
5.03227e-43
1.82419e-48
3.83821e-50
7.57208e-56
-2.06319e-06
4.5762e-07
-1.54612e-06
7.10754e-07
-1.10635e-06
8.13235e-07
-7.50854e-07
8.12255e-07
-4.75741e-07
7.45863e-07
-2.69117e-07
6.43772e-07
-1.37351e-07
5.3153e-07
-1.41717e-08
4.13187e-07
-6.55799e-10
9.42566e-14
-7.91098e-18
7.10282e-21
-2.0187e-25
3.19492e-28
-3.7354e-33
1.11755e-35
-2.81802e-41
3.92714e-43
4.08798e-49
1.93069e-50
1.636e-56
5.76435e-07
-2.6386e-06
-1.98494e-06
8.98147e-07
-1.4267e-06
1.03266e-06
-9.7211e-07
1.03586e-06
-6.18764e-07
9.56296e-07
-3.51903e-07
8.2923e-07
-1.81022e-07
6.87725e-07
-1.90511e-08
5.36437e-07
-1.11347e-09
1.44977e-13
-1.55282e-17
1.25155e-20
-4.90494e-25
5.82317e-28
-9.67697e-33
1.8194e-35
-9.83866e-41
4.83576e-43
-5.69526e-49
1.45319e-50
-5.88661e-58
1.13108e-06
-2.5385e-06
1.90721e-06
-4.54522e-06
-1.83183e-06
1.30464e-06
-1.2535e-06
1.31533e-06
-8.01278e-07
1.21943e-06
-4.57859e-07
1.06296e-06
-2.37006e-07
8.85599e-07
-2.53798e-08
6.94215e-07
-1.84738e-09
2.24005e-13
-2.98359e-17
2.31617e-20
-1.19613e-24
1.20233e-27
-2.5435e-32
3.7123e-35
-2.89684e-40
8.47183e-43
-2.30886e-48
1.84247e-50
-1.05848e-56
1.64293e-06
-2.3428e-06
3.74116e-06
-4.37211e-06
2.9866e-06
-7.53146e-06
-1.60916e-06
1.66142e-06
-1.03332e-06
1.54835e-06
-5.93108e-07
1.35538e-06
-3.08625e-07
1.13497e-06
-3.34782e-08
8.93916e-07
-3.00301e-09
3.45007e-13
-5.64781e-17
4.33505e-20
-2.85377e-24
2.65684e-27
-7.00115e-32
8.9113e-35
-9.18192e-40
1.94497e-42
-7.56333e-48
3.46886e-50
-2.71541e-56
2.09232e-06
-2.05782e-06
5.43189e-06
-4.03324e-06
5.85599e-06
-7.24193e-06
4.53927e-06
-1.20708e-05
-1.3266e-06
1.9556e-06
-7.64971e-07
1.72089e-06
-4.00119e-07
1.44725e-06
-4.3868e-08
1.14559e-06
-4.77534e-09
5.2229e-13
-1.04201e-16
8.08308e-20
-6.63164e-24
5.9764e-27
-1.93957e-31
2.33855e-34
-3.13305e-39
5.42015e-42
-2.60334e-47
8.93915e-50
-8.50311e-56
2.46282e-06
-1.69653e-06
6.91607e-06
-3.54178e-06
8.49804e-06
-6.67569e-06
8.8917e-06
-1.15959e-05
6.69221e-06
-1.87638e-05
-9.8223e-07
2.17348e-06
-5.16231e-07
1.83737e-06
-5.71351e-08
1.46075e-06
-7.43965e-09
7.82884e-13
-1.90301e-16
1.46254e-19
-1.4563e-23
1.33886e-26
-5.37733e-31
6.30959e-34
-1.07864e-38
1.68284e-41
-9.78123e-47
2.88184e-49
-3.38188e-55
2.73714e-06
-1.25619e-06
8.13889e-06
-2.91919e-06
1.0814e-05
-5.85803e-06
1.2887e-05
-1.06723e-05
1.30824e-05
-1.79889e-05
9.66083e-06
-2.84262e-05
-6.63453e-07
2.32103e-06
-7.4043e-08
1.85449e-06
-1.13532e-08
1.29757e-12
-3.38721e-16
2.62467e-19
-3.15975e-23
2.89623e-26
-1.43547e-30
1.69898e-33
-3.65729e-38
5.42137e-41
-3.87866e-46
1.05778e-48
-1.62051e-54
2.92228e-06
-8.48464e-07
9.04457e-06
-2.16179e-06
1.272e-05
-4.82551e-06
1.63765e-05
-9.34854e-06
1.89097e-05
-1.65017e-05
1.87941e-05
-2.71259e-05
1.37641e-05
-4.21924e-05
-9.61192e-08
2.34329e-06
-1.6948e-08
2.44983e-12
-6.42054e-16
4.64539e-19
-6.64415e-23
6.25473e-26
-3.88084e-30
4.41243e-33
-1.15447e-37
1.74582e-40
-1.55364e-45
4.06782e-48
-8.05701e-54
2.94932e-06
-1.2311e-07
9.65792e-06
-1.46184e-06
1.41311e-05
-3.57309e-06
1.92396e-05
-7.68944e-06
2.39619e-05
-1.44025e-05
2.70088e-05
-2.47194e-05
2.65338e-05
-3.99002e-05
1.99939e-05
-6.21889e-05
-2.48901e-08
4.59039e-12
-1.3461e-15
8.90781e-19
-1.41008e-22
1.30884e-25
-1.01719e-29
1.15011e-32
-3.6759e-37
5.44693e-40
-5.98673e-45
1.56788e-47
-3.85809e-53
8.20438e-12
-3.34499e-08
9.75216e-06
-2.17386e-07
1.50865e-05
-2.41747e-06
2.13553e-05
-5.68935e-06
2.808e-05
-1.18089e-05
3.40288e-05
-2.14247e-05
3.77316e-05
-3.59207e-05
3.75436e-05
-5.74548e-05
2.85218e-05
-9.07137e-05
-2.78028e-15
1.82005e-18
-3.26264e-22
2.79264e-25
-2.6183e-29
2.88318e-32
-1.13422e-36
1.71451e-39
-2.37865e-44
5.89167e-47
-1.72404e-52
3.59353e-18
-4.08157e-15
4.8071e-11
-7.16371e-08
1.52403e-05
-3.71336e-07
2.27858e-05
-3.84841e-06
3.11103e-05
-8.72065e-06
3.96784e-05
-1.74604e-05
4.70494e-05
-3.07455e-05
5.21147e-05
-5.04958e-05
5.24998e-05
-8.14376e-05
5.02782e-05
-0.000140995
-7.29362e-22
6.28085e-25
-6.95914e-29
7.19681e-32
-3.45826e-36
5.16369e-39
-9.13269e-44
2.24031e-46
-7.92432e-52
1.38544e-24
-8.96603e-22
2.62719e-17
-3.33529e-14
1.79932e-10
-1.37448e-07
2.30311e-05
-6.16912e-07
3.315e-05
-5.88867e-06
4.38007e-05
-1.28443e-05
5.43748e-05
-2.47882e-05
6.36763e-05
-4.23103e-05
7.0928e-05
-6.89277e-05
8.16092e-05
-0.000112772
6.2938e-05
-0.000203935
-1.72129e-28
1.83921e-31
-1.08673e-35
1.53964e-38
-3.44803e-43
8.10984e-46
-3.48629e-51
4.5981e-31
-1.28694e-28
1.26229e-23
-1.29328e-20
1.39734e-16
-2.08117e-13
6.49021e-10
-2.41918e-07
3.35286e-05
-9.95958e-07
4.65511e-05
-8.64e-06
5.96359e-05
-1.81071e-05
7.24266e-05
-3.3541e-05
8.4357e-05
-5.57422e-05
9.97135e-05
-8.70347e-05
0.000104049
-0.000153884
0.000234827
-0.000124775
-0.000313989
-3.07453e-35
4.59055e-38
-1.30675e-42
2.90444e-45
-1.52011e-50
1.3242e-37
1.42705e-36
5.2259e-30
-4.33656e-27
9.55178e-23
-1.13643e-19
7.26287e-16
-1.19161e-12
2.22051e-09
-3.96916e-07
4.71148e-05
-1.56014e-06
6.30918e-05
-1.20969e-05
7.85553e-05
-2.42376e-05
9.37476e-05
-4.29338e-05
0.000110867
-6.68979e-05
0.000125736
-0.000108723
0.000187021
-0.000106077
0.000228352
-7.8212e-05
-0.000274914
-3.35298e-05
-0.000280459
-4.26694e-42
1.02528e-44
-6.76397e-50
3.45861e-44
5.9578e-42
1.88892e-36
-1.20319e-33
5.62397e-29
-5.41094e-26
7.12051e-22
-9.19804e-19
3.58835e-15
-6.09092e-12
7.06446e-09
-6.14105e-07
6.38878e-05
-2.35674e-06
8.24877e-05
-1.60303e-05
9.99838e-05
-3.04752e-05
0.000118062
-5.01301e-05
0.000136605
-7.77678e-05
0.000161042
-8.27442e-05
0.000196364
-7.40859e-05
0.000229009
-5.78509e-05
-0.000249369
-4.8674e-05
-0.000259767
-2.62899e-05
-0.000254168
-2.52965e-49
9.30652e-49
6.24052e-43
-2.55139e-40
2.88286e-35
-2.14009e-32
6.00787e-28
-6.32595e-25
5.00589e-21
-6.63579e-18
1.62939e-14
-2.70689e-11
2.051e-08
-8.99341e-07
8.35213e-05
-3.39102e-06
0.000103812
-1.98592e-05
0.000122617
-3.50314e-05
0.000141457
-5.49826e-05
0.000146873
-6.35982e-05
0.00017745
-6.38284e-05
0.000209736
-5.48083e-05
0.00023273
-4.54903e-05
-0.000245088
-5.05264e-05
-0.000247512
-4.09565e-05
-0.000245097
-2.0957e-05
-0.000233209
-2.63317e-47
1.34943e-41
-6.39208e-39
4.39354e-34
-3.51834e-31
5.965e-27
-6.50869e-24
3.18126e-20
-4.15643e-17
6.60938e-14
-1.02241e-10
5.34562e-08
-1.2331e-06
0.00010499
-4.56936e-06
0.000125299
-2.25409e-05
0.00014351
-3.70842e-05
0.000139126
-4.72345e-05
0.00016517
-5.13167e-05
0.000193558
-4.76478e-05
0.000217682
-3.97544e-05
0.000235119
-3.01922e-05
-0.000250414
-5.03282e-05
-0.00024528
-4.89398e-05
-0.000239525
-3.65774e-05
-0.000229473
-1.89247e-05
-0.000214283
-9.61759e-46
2.92517e-40
-1.49102e-37
6.12533e-33
-5.01613e-30
5.23185e-26
-5.63364e-23
1.7617e-19
-2.17678e-16
2.33325e-13
-3.2525e-10
1.24254e-07
-1.56711e-06
0.000126341
-5.61143e-06
0.000144395
-2.34254e-05
0.00013466
-3.26178e-05
0.000156764
-3.88261e-05
0.000181002
-3.8758e-05
0.000204022
-3.39841e-05
0.000224786
-2.94136e-05
0.000264624
-1.82727e-05
-0.00027654
-4.81869e-05
-0.000252548
-5.51341e-05
-0.000239082
-4.85021e-05
-0.000227597
-3.52846e-05
-0.000213109
-1.83127e-05
-0.000195968
-3.17686e-44
5.70618e-39
-2.95165e-36
7.35363e-32
-5.9348e-29
3.88939e-25
-3.93133e-22
8.21642e-19
-9.05716e-16
7.09372e-13
-8.54489e-10
2.53992e-07
-1.82321e-06
0.000144945
-6.16137e-06
0.000132208
-2.09728e-05
0.000150943
-2.67953e-05
0.000171446
-2.92673e-05
0.000192568
-2.72997e-05
0.000214418
-2.36115e-05
0.000234302
9.18168e-07
0.000219393
-4.18252e-06
-0.00028423
-1.05321e-05
3.26367e-05
2.8647e-05
-6.04479e-05
-0.00026427
-6.33961e-05
-0.000244281
-5.858e-05
-0.000229
-4.96622e-05
-0.000213215
-3.54687e-05
-0.000195949
-1.84e-05
-0.000177565
-8.72676e-43
9.32361e-38
-4.68215e-35
7.25979e-31
-5.51937e-28
2.35477e-24
-2.14585e-21
3.18243e-18
-2.97331e-15
2.43623e-12
-1.80247e-09
4.50451e-07
-1.91748e-06
0.000131838
-5.79054e-06
0.000147153
-1.7182e-05
0.000164385
-1.97316e-05
0.000182877
-1.95737e-05
0.000204234
-1.71116e-05
0.000215836
-5.14042e-06
0.000236939
-1.6615e-05
-1.93737e-06
-1.04573e-05
-8.50711e-06
1.67223e-05
-1.26947e-05
-0.000308276
-1.86173e-05
-1.60357e-07
-4.91709e-06
-7.83871e-06
-8.29619e-06
3.68971e-06
-1.76541e-06
-6.36786e-06
3.03259e-05
-2.8678e-06
2.19243e-05
-7.71388e-05
-0.000250522
-6.81615e-05
-0.000234696
-6.29495e-05
-0.000215709
-5.17021e-05
-0.000196978
-3.63348e-05
-0.000178009
-1.877e-05
-0.000158792
-1.89825e-41
1.2146e-36
-5.64053e-34
5.63159e-30
-3.8906e-27
1.14246e-23
-8.65495e-21
1.07648e-17
-9.82146e-15
8.0997e-12
-2.95395e-09
5.59683e-07
-1.75248e-06
0.000146312
-4.94915e-06
0.000159373
-1.21689e-05
0.000174623
-1.14751e-05
0.000193578
-8.9137e-06
0.000205774
-7.04488e-06
0.000241398
-9.59493e-06
-4.75562e-05
-4.93784e-05
0.00016777
-4.55243e-05
-4.95887e-05
3.5368e-07
-1.91799e-06
-1.89665e-06
-4.05888e-05
2.12956e-05
1.06141e-06
1.85196e-05
-3.06866e-06
2.17589e-07
-0.000277631
-0.000107777
-3.74866e-05
8.69271e-06
-2.16112e-06
-6.9573e-05
3.09957e-05
-6.55186e-05
2.0963e-05
1.90089e-05
-1.11082e-06
-1.31295e-05
9.15481e-07
3.88857e-07
-7.52506e-06
-7.5204e-05
-0.000243475
-7.59703e-05
-0.000221671
-6.75381e-05
-0.000199869
-5.39262e-05
-0.000179382
-3.74364e-05
-0.000159337
-1.91994e-05
-0.00013959
-3.03946e-40
1.19906e-35
-5.0267e-33
3.37928e-29
-1.98514e-26
4.40819e-23
-2.94462e-20
3.66649e-17
-2.71341e-14
1.56974e-11
-3.50195e-09
7.75093e-07
-1.47701e-06
0.000158083
-3.65822e-06
0.000168203
-5.74706e-06
0.000182595
-4.89633e-07
0.000196563
3.00388e-07
0.000239138
-4.78113e-06
0.000192133
-1.26718e-05
-1.24913e-05
-4.40939e-06
-4.38111e-06
1.59279e-06
-2.67009e-05
3.04766e-05
-5.08915e-05
-2.97612e-05
3.63273e-05
-5.45607e-05
8.25267e-07
-3.38182e-05
6.647e-06
-3.36131e-05
2.75998e-06
1.10302e-06
1.08925e-05
6.24606e-06
2.75767e-06
-3.39302e-05
3.79422e-05
3.48699e-05
-4.59967e-05
3.46322e-05
-3.00513e-05
-0.000264774
-8.80568e-05
-1.10517e-05
-1.4537e-05
-0.000158109
-1.56124e-07
-2.82045e-06
-2.55048e-05
-3.06831e-05
1.41012e-05
-5.40662e-06
1.0481e-06
2.98012e-05
2.1578e-05
-3.6915e-05
3.87405e-05
3.26978e-05
-4.39662e-05
3.21372e-05
-3.30606e-05
2.59258e-06
3.40432e-05
-3.73201e-05
1.88061e-05
-2.11793e-05
3.24118e-05
-3.2174e-05
1.72847e-05
-2.30442e-05
-8.76742e-05
-0.000231767
-8.4186e-05
-0.000205019
-7.15717e-05
-0.000182219
-5.61763e-05
-0.000160637
-3.8475e-05
-0.000140056
-1.9568e-05
-0.000120018
-3.41329e-39
8.83962e-35
-3.18693e-32
1.53714e-28
-7.52326e-26
1.49919e-22
-8.24471e-20
7.71874e-17
-4.77148e-14
2.97141e-11
-2.98168e-09
9.8764e-07
-1.10199e-06
0.00016639
-1.84482e-06
0.00017303
3.81965e-06
0.00018412
1.19556e-05
0.000224311
1.51313e-05
0.000210485
-9.20019e-06
-9.67027e-06
-1.65941e-06
-2.60002e-06
1.40157e-06
-3.90407e-05
-8.85013e-06
-3.80088e-05
-6.69255e-06
1.29115e-06
-3.36575e-05
-1.10824e-05
-3.33923e-05
-7.70302e-06
5.98313e-07
-6.89735e-05
-1.82991e-05
5.4049e-05
-4.52462e-05
-2.11913e-05
1.67758e-05
-3.97563e-05
2.17373e-05
4.93721e-05
-6.66281e-05
-1.98014e-05
5.37363e-05
-2.29103e-05
-4.51405e-05
1.66473e-05
-3.98926e-05
2.14544e-05
4.85654e-05
3.0539e-07
-6.32323e-05
-2.90426e-05
2.94667e-05
-3.00677e-05
3.01726e-05
-6.25811e-05
-2.88728e-05
2.88267e-05
-3.04706e-05
2.95322e-05
3.07682e-06
5.29755e-05
3.85082e-05
-4.8776e-05
3.58408e-05
-3.74296e-05
2.35478e-05
1.75524e-05
8.68422e-09
-3.36166e-05
2.73781e-05
-1.70829e-05
-1.95677e-05
2.00658e-05
-2.94116e-05
3.23702e-08
1.6059e-05
2.50036e-05
-1.46929e-05
-1.73796e-05
-0.000247454
-0.000104991
-0.000217232
-1.54854e-05
-1.46272e-05
5.70834e-07
6.1198e-07
1.26857e-06
-6.02938e-05
5.35731e-05
5.2969e-06
-5.9012e-05
5.49653e-05
2.49417e-06
1.92877e-06
-4.99109e-05
-3.78159e-05
-4.72378e-05
-4.05284e-05
5.178e-05
3.61675e-05
-4.56803e-05
3.31636e-05
-3.90172e-05
2.30707e-06
4.43816e-05
-2.96388e-05
3.6147e-05
-2.03252e-05
4.26728e-05
-2.58416e-05
3.41333e-05
-2.25387e-05
2.42402e-05
1.73463e-05
-3.47988e-05
2.59126e-05
-1.67395e-05
-1.84588e-05
2.0006e-05
-2.87736e-05
1.63454e-05
2.33217e-05
-1.39383e-05
-2.02371e-05
-4.41441e-05
2.32004e-05
1.50001e-07
2.12194e-05
-2.18476e-05
-3.33788e-06
-3.04347e-05
4.84299e-07
6.37261e-06
-1.60168e-05
-4.4962e-05
2.29404e-05
1.97776e-05
-2.13128e-05
-3.83343e-06
-2.68296e-05
5.22718e-06
-1.78784e-05
-0.000104559
-0.000211391
-8.94156e-05
-0.000187171
-7.53981e-05
-0.000162992
-5.80466e-05
-0.000141061
-3.92728e-05
-0.000120347
-1.9825e-05
-0.000100191
-2.60579e-38
4.74734e-34
-1.39957e-31
5.50612e-28
-2.1753e-25
3.2579e-22
-1.4455e-19
1.57404e-16
-6.62362e-14
4.72031e-11
-5.56061e-10
1.16312e-06
-6.46689e-07
0.000170156
1.03046e-06
0.000172706
1.52356e-05
0.000194905
4.13645e-05
0.000220333
-5.5236e-06
-6.49142e-06
9.31291e-06
7.98861e-06
1.23434e-06
-2.84178e-05
-1.56717e-05
-2.86029e-05
-1.32195e-05
1.01744e-06
-2.84189e-05
-2.672e-06
-3.06951e-05
5.16907e-07
7.82757e-07
-5.95234e-05
-3.12567e-05
2.55313e-05
-3.31168e-05
2.54493e-05
-5.99216e-05
-2.97171e-05
2.58539e-05
-3.03792e-05
2.56587e-05
1.08602e-06
-4.88771e-05
-3.57392e-05
2.4106e-05
-3.61789e-05
2.50079e-05
-5.01781e-05
-3.27937e-05
2.43618e-05
-3.32269e-05
2.5329e-05
-1.87112e-05
-1.40022e-05
5.87507e-06
-1.84092e-05
-1.88618e-05
-9.16778e-06
-2.35983e-05
-1.27702e-05
1.28023e-07
-3.92042e-06
1.46697e-05
-1.5479e-05
-2.33451e-05
-1.49368e-05
-4.17736e-08
-1.67309e-05
1.02801e-05
3.21626e-07
4.29935e-05
-6.46158e-06
-1.83874e-05
-9.97519e-06
-2.13785e-05
-1.82448e-05
-1.40208e-05
5.52477e-06
-1.84006e-05
-1.25976e-05
1.4874e-05
-3.75405e-06
-1.51118e-05
-2.37121e-05
-1.50915e-05
-1.65255e-05
1.02242e-05
4.27306e-05
-7.00844e-06
-1.59236e-05
2.56153e-05
-2.54045e-05
-1.33303e-05
1.85289e-05
-6.34459e-08
-1.762e-05
1.26943e-05
-1.58041e-05
-1.19958e-05
-5.56482e-08
1.62654e-05
-1.5543e-05
2.6546e-05
-2.72643e-05
-1.26116e-05
1.85291e-05
-1.78722e-05
1.25607e-05
-1.54628e-05
-1.2176e-05
1.60155e-05
-9.37363e-06
1.78721e-05
-9.94738e-08
1.54159e-07
2.99555e-05
-1.69223e-05
1.98176e-05
-3.16055e-05
3.72143e-08
2.55663e-05
2.35754e-05
-2.33138e-05
2.62044e-05
2.20501e-05
1.78361e-07
-3.44961e-05
1.34409e-05
-2.24223e-05
-1.89138e-05
2.00735e-05
-8.14971e-06
1.53601e-07
1.87468e-05
9.85352e-06
-1.04948e-05
-3.76165e-06
-0.000225195
-0.000126813
-0.000225192
-3.22642e-05
-3.24939e-05
-1.63071e-05
-1.5964e-05
2.33013e-06
-4.72945e-05
4.72412e-05
-1.77616e-05
-5.00993e-05
4.827e-05
-1.04661e-05
1.84103e-06
5.0095e-06
7.31843e-06
1.54717e-07
-5.27997e-05
5.25811e-05
-3.83826e-05
4.02433e-05
-3.69244e-05
4.03745e-05
-5.50094e-05
5.19644e-05
-3.75359e-05
3.99267e-05
-3.67666e-05
4.00637e-05
9.47466e-07
-5.39577e-05
2.74215e-05
-3.83402e-05
-5.70388e-05
1.88261e-05
-4.67697e-05
2.85673e-05
2.97056e-05
-5.54496e-05
2.73289e-05
-3.78522e-05
-5.86973e-05
1.8807e-05
-4.63647e-05
2.85991e-05
2.90317e-05
-9.26355e-06
1.77205e-05
-7.65979e-07
2.83778e-05
-1.66092e-05
2.07745e-05
-2.984e-05
2.36722e-05
2.41571e-05
-2.46802e-05
-1.65573e-05
2.53521e-05
2.12716e-08
3.57202e-05
-2.599e-05
-3.7935e-05
-1.96725e-05
4.11777e-07
2.05837e-05
-9.33507e-06
-1.73854e-05
2.50963e-05
3.42152e-05
-2.5289e-05
-3.83299e-05
-1.76727e-05
1.91967e-05
-1.16177e-05
2.64753e-05
2.16114e-05
-3.45564e-05
1.25491e-05
-2.20322e-05
-1.75772e-05
1.98229e-05
-8.98775e-06
1.88139e-05
9.09713e-06
-9.35412e-06
-6.85377e-06
2.34897e-05
2.6851e-07
5.98355e-06
-1.22004e-05
2.33138e-05
4.89637e-06
-1.38968e-05
-0.000103419
-0.000197383
-9.57574e-05
-0.000166807
-7.8337e-05
-0.000142697
-5.93305e-05
-0.000120999
-3.97868e-05
-0.000100381
-1.99753e-05
-8.02134e-05
-1.32048e-37
1.86922e-33
-4.28648e-31
1.21818e-27
-3.90634e-25
6.91747e-22
-1.71954e-19
2.65108e-16
-8.35226e-14
6.4256e-11
3.97064e-09
1.2471e-06
-1.12799e-08
0.000168465
5.27312e-06
0.000164971
4.51716e-05
0.000183309
9.26223e-06
8.28747e-06
3.13085e-05
2.95355e-05
2.82876e-07
-3.32458e-05
-9.74772e-07
-3.43582e-05
-2.53686e-06
-9.23531e-08
-3.32401e-05
9.40518e-06
-3.3026e-05
6.57319e-06
1.01692e-06
-4.6208e-05
-3.44599e-05
2.31691e-05
-3.07559e-05
2.27435e-05
-4.8061e-05
-3.15891e-05
2.31611e-05
-2.86328e-05
2.27332e-05
1.42304e-06
-3.86766e-05
-2.54221e-05
1.46222e-05
-2.33546e-05
2.2491e-05
-4.17212e-05
-2.15079e-05
1.5063e-05
-2.07248e-05
2.27372e-05
-1.60981e-05
-2.5264e-05
-1.52996e-05
-1.7027e-05
-2.1195e-07
9.07335e-06
-1.57079e-05
-2.51268e-05
-1.75393e-05
-2.98677e-07
-1.72203e-05
1.02829e-05
-1.55586e-05
-2.73943e-05
-1.4029e-05
-1.72132e-05
9.42245e-06
-1.4926e-05
-2.69108e-05
-1.59371e-05
-1.73579e-05
1.0562e-05
-1.33211e-05
2.40317e-05
-2.03143e-05
-2.61416e-05
1.86186e-05
-3.79399e-07
-1.92338e-05
1.1809e-05
-1.43619e-05
-2.29201e-05
-3.63046e-07
1.23786e-05
-1.27437e-05
2.51211e-05
-2.1457e-05
-2.37141e-05
1.86604e-05
-1.91634e-05
1.17529e-05
-1.38267e-05
-2.11905e-05
1.24546e-05
-1.23864e-05
2.33344e-06
-4.92739e-06
-7.90472e-06
-9.08789e-06
9.26303e-09
1.93485e-07
6.76476e-06
-8.71021e-06
-1.27724e-05
1.5846e-08
-1.03069e-05
-1.20164e-05
3.58626e-06
-4.85799e-06
-8.01253e-06
7.02735e-06
-9.06172e-06
-8.58579e-06
-1.29149e-05
-1.02565e-05
-1.17072e-05
1.34273e-05
-1.3529e-05
1.04473e-05
5.23281e-08
-9.67886e-06
-1.12937e-05
3.45274e-08
-1.14843e-05
1.36306e-05
-1.38144e-05
1.04159e-05
-9.69981e-06
-1.11178e-05
-1.10325e-05
2.45237e-05
8.48579e-08
1.41884e-06
1.49806e-05
-2.31074e-05
2.09586e-05
-9.38501e-06
1.31209e-07
1.00594e-05
2.81025e-05
-5.94657e-06
9.20218e-06
1.02276e-05
2.35586e-07
-6.62237e-06
-9.90843e-06
-8.5681e-06
1.04379e-05
2.16332e-07
9.60365e-06
-4.29736e-06
-0.000195405
-0.000133203
-0.000194893
-3.79478e-05
-4.21828e-05
-3.78041e-05
-3.91729e-05
2.1238e-06
-5.72962e-05
5.21632e-05
-2.92536e-05
-5.7323e-05
4.68151e-05
-1.98528e-05
2.42573e-06
-2.87819e-05
-2.25888e-05
1.97912e-06
-6.45585e-05
6.67993e-05
-5.35517e-05
4.20097e-05
-4.9707e-05
3.92313e-05
-6.19625e-05
6.30703e-05
-4.87506e-05
4.34564e-05
-4.50637e-05
4.07887e-05
1.08494e-06
-4.03174e-05
3.7455e-05
-4.38277e-05
3.85837e-05
-3.83666e-05
3.81446e-05
-4.04874e-05
3.90973e-05
-2.03455e-05
-2.11822e-05
2.02419e-05
-1.70975e-05
-1.62244e-05
-2.59088e-07
1.74933e-05
1.89589e-05
-1.94249e-05
-2.47645e-05
-1.3919e-05
-2.23234e-07
-1.66102e-05
2.15547e-05
-1.96977e-05
-1.99318e-05
1.79452e-05
-1.58522e-05
-1.61174e-05
1.70146e-05
1.90677e-05
-1.88742e-05
-2.42148e-05
-1.36109e-05
-1.69013e-05
2.17451e-05
-1.82704e-05
3.70549e-05
-4.77124e-05
-9.41302e-06
-2.70147e-05
-4.54387e-05
-4.25979e-06
2.06951e-05
-7.99533e-08
8.87543e-06
-2.88867e-05
-1.85885e-05
-1.58946e-05
-1.67479e-07
1.42265e-05
1.57912e-07
1.85541e-05
4.53118e-06
-1.77492e-05
3.69331e-05
-4.76543e-05
-9.38236e-06
-2.61481e-05
-4.56494e-05
-4.57349e-06