/*--------------------------------*- C++ -*----------------------------------*\
| =========                 |                                                 |
| \\      /  F ield         | OpenFOAM: The Open Source CFD Toolbox           |
|  \\    /   O peration     | Version:  5.x                                   |
|   \\  /    A nd           | Web:      www.OpenFOAM.org                      |
|    \\/     M anipulation  |                                                 |
\*---------------------------------------------------------------------------*/
FoamFile
{
    version     2.0;
    format      ascii;
    class       volScalarField;
    location    "0.1";
    object      alpha.water;
}
// * * * * * * * * * * * * * * * * * * * * * * * * * * * * * * * * * * * * * //

dimensions      [0 0 0 0 0 0 0];

internalField   nonuniform List<scalar> 
12160
(
1
1
1
1
1
1
1
1
1
1
1
1
1
1
1
1
1
1
1
1
1
1
1
1
1
1
1
1
1
1
1
1
1
1
1
1
1
1
1
1
1
1
1
1
0.576767
1
1
1
1
1
1
1
1
0.260719
0.0566265
1
1
1
1
1
1
1
1
0.204406
0.00820723
0.000428097
1
1
1
1
1
1
1
1
0.110192
0.00293362
1.50527e-05
1.49978e-07
1
1
1
1
1
1
1
1
0.0755832
0.000468972
1.77186e-06
9.73877e-10
3.12059e-12
1
1
1
1
1
1
1
1
0.0474461
0.000146411
4.50765e-08
3.20441e-11
1.76391e-14
5.65057e-17
1
1
1
1
1
1
1
1
0.0309552
3.64162e-05
4.37939e-09
4.52086e-13
4.35469e-16
3.09487e-19
9.1085e-22
1
1
1
1
1
1
1
1
0.0202403
1.00855e-05
3.06779e-10
3.20937e-14
4.1006e-18
5.24318e-21
4.64716e-24
1
1
1
1
1
1
1
1
0.0133414
2.86564e-06
4.80595e-11
1.83549e-15
2.21904e-19
3.38373e-23
5.67828e-26
1
1
1
1
1
1
1
1
0.00885431
8.49317e-07
9.17613e-12
2.16387e-16
1.0644e-20
1.44031e-24
2.63973e-28
1
1
1
1
1
1
1
1
0.00591577
2.64984e-07
1.86681e-12
2.81226e-17
8.86027e-22
5.63162e-26
9.0403e-30
1
1
1
1
1
1
1
1
0.0039782
8.79843e-08
4.10709e-13
3.94662e-18
7.89108e-23
3.26097e-27
2.7672e-31
1
1
1
1
1
1
1
1
0.00269199
3.14874e-08
9.94532e-14
6.11061e-19
7.6586e-24
2.00271e-28
1.11551e-32
1
1
1
1
1
1
1
1
0.0018333
1.19659e-08
2.70905e-14
1.06784e-19
8.32599e-25
1.34853e-29
4.74854e-34
1
1
1
1
1
1
1
1
0.00125632
4.77843e-09
8.11216e-15
2.16663e-20
1.04249e-25
1.02928e-30
2.22513e-35
1
1
1
1
1
1
1
1
0.000866276
1.94795e-09
2.68543e-15
4.96837e-21
1.55468e-26
9.20491e-32
1.19356e-36
1
1
1
1
1
1
1
1
0.000601167
8.23769e-10
9.20253e-16
1.32527e-21
2.68552e-27
1.00206e-32
7.61869e-38
1
1
1
1
1
1
1
1
0.000419178
3.77767e-10
3.41035e-16
3.73658e-22
5.67472e-28
1.2929e-33
6.03911e-39
1
1
1
1
1
1
1
1
0.000296644
2.10266e-10
1.41855e-16
1.18688e-22
1.29692e-28
2.14175e-34
5.80184e-40
1
1
1
1
1
1
1
1
0.00021099
1.15926e-10
6.62395e-17
4.24213e-23
3.44648e-29
3.92363e-35
7.49168e-41
1
1
1
1
1
1
1
1
0.000152151
6.54876e-11
2.87303e-17
1.59925e-23
1.02089e-29
8.53132e-36
1.09096e-41
1
1
1
1
1
1
1
1
0.000111766
3.69745e-11
1.29224e-17
5.54048e-24
3.07017e-30
2.05159e-36
1.90772e-42
1
0.999999
1
1
1
1
1
1
8.47044e-05
2.13341e-11
5.77493e-18
1.9892e-24
8.52782e-31
4.89022e-37
3.68366e-43
0.999999
0.999999
0.999999
1
1
1
1
1
6.70641e-05
1.27441e-11
2.65568e-18
7.08364e-25
2.44846e-31
1.09068e-37
6.9334e-44
1
0.999999
0.999999
0.999999
1
1
1
1
5.67033e-05
8.11857e-12
1.27446e-18
2.61559e-25
6.97879e-32
2.50752e-38
1.24141e-44
1
1
0.999999
0.999999
1
1
1
1
5.26044e-05
5.69045e-12
6.66475e-19
1.01723e-25
2.08719e-32
5.73218e-39
2.28672e-45
1
1
1
1
1
1
1
1
5.3762e-05
4.56171e-12
3.94158e-19
4.42828e-26
6.62536e-33
1.3918e-39
4.19419e-46
1
1
1
1
1
1
1
1
6.01255e-05
4.32751e-12
2.81999e-19
2.22958e-26
2.41935e-33
3.62652e-40
8.2696e-47
1
1
1
1
1
1
1
1
7.1862e-05
4.90375e-12
2.51619e-19
1.44434e-26
1.0451e-33
1.11622e-40
1.77165e-47
1
1
1
1
1
1
1
1
8.96845e-05
6.38563e-12
2.89521e-19
1.22442e-26
6.20371e-34
4.16366e-41
4.60684e-48
1
1
1
1
1
1
1
1
0.000114716
9.2041e-12
4.07978e-19
1.44754e-26
5.03773e-34
2.27406e-41
1.49043e-48
1
1
1
1
1
1
1
1
0.000148803
1.40529e-11
6.68258e-19
2.20687e-26
6.10434e-34
1.77237e-41
7.49777e-49
1
1
1
1
1
1
1
1
0.000194341
2.21783e-11
1.20382e-18
4.09393e-26
1.00374e-33
2.20558e-41
5.63591e-49
1
1
1
1
1
1
1
1
0.000254519
3.52792e-11
2.29014e-18
8.63418e-26
2.09472e-33
3.90562e-41
7.23474e-49
1
1
1
1
1
1
1
1
0.000333371
5.61179e-11
4.42281e-18
1.9621e-25
5.13182e-33
9.19848e-41
1.37749e-48
1
1
1
1
1
1
1
1
0.000435719
8.79784e-11
8.54673e-18
4.55553e-25
1.3855e-32
2.617e-40
3.64597e-48
1
1
1
1
1
1
1
1
0.000567689
1.37669e-10
1.61058e-17
1.05877e-24
3.86188e-32
8.36239e-40
1.20046e-47
1
1
1
1
1
1
1
1
0.000736875
2.1552e-10
3.03537e-17
2.38985e-24
1.08085e-31
2.78583e-39
4.53805e-47
1
1
1
1
1
1
1
1
0.000951793
3.68105e-10
5.58046e-17
5.43044e-24
2.93306e-31
9.33164e-39
1.80683e-46
0.0012258
1
1
1
1
1
1
1
1
6.68611e-10
1.05002e-16
1.19368e-23
8.04428e-31
3.04316e-38
7.24783e-46
1.19785e-09
0.00178906
1
1
1
1
1
1
1
1
2.08985e-16
2.62217e-23
2.11992e-30
1.00723e-37
2.84538e-45
4.09794e-16
3.09686e-09
0.00305532
1
1
1
1
1
1
1
1
5.90456e-23
5.53688e-30
3.18845e-37
1.13675e-44
1.3007e-22
1.3045e-15
1.25683e-08
0.00503184
1
1
1
1
1
1
1
1
1.4474e-29
9.99418e-37
4.32464e-44
3.65578e-29
5.12157e-22
7.46693e-15
4.88944e-08
0.00798253
1
1
1
1
1
1
1
1
1
3.08508e-36
1.6297e-43
9.08918e-36
1.79589e-28
4.13905e-21
4.1757e-14
1.8019e-07
0.0122156
1
1
1
1
1
1
1
1
1
1
5.99056e-43
2.08e-42
5.63188e-35
2.05254e-27
3.31275e-20
2.21468e-13
6.19382e-07
0.0180364
1
1
1
1
1
1
1
1
1
1
1
1.64085e-41
9.10317e-34
2.3489e-26
2.49842e-19
1.0827e-12
1.95029e-06
0.0256676
0.999999
1
1
1
1
1
1
1
1
1
1
1
3.75709e-40
1.48281e-32
2.50142e-25
1.70787e-18
4.74896e-12
5.52678e-06
0.0351101
0.999999
1
1
1
1
1
1
1
1
1
1
1
1
8.68382e-39
2.2172e-31
2.35951e-24
1.02144e-17
1.81957e-11
1.39749e-05
0.0459672
0.999999
1
1
1
1
1
1
1
1
1
1
1
1
1
1.81565e-37
2.86321e-30
1.89353e-23
5.16572e-17
6.00978e-11
3.1105e-05
0.0573828
0.999999
1
1
1
1
1
1
1
1
0.999998
0.999999
0.999999
1
1
1
1
1
1
3.19019e-36
3.05146e-29
1.24246e-22
2.17286e-16
1.81818e-10
6.01038e-05
0.0674941
0.999999
1
1
1
1
1
1
0.999999
1
1
0.999999
0.999999
0.999999
0.999998
0.999998
0.999999
1
1
1
1
1
1
4.48439e-35
2.56482e-28
6.54542e-22
7.57661e-16
5.75292e-10
9.68221e-05
0.0752446
0.999999
1
1
1
1
1
0.999999
0.999997
0.999999
0.999998
0.999999
0.999997
1
1
0.999999
0.999999
0.999999
0.999996
0.999996
0.999998
1
1
1
1
1
1
4.79301e-34
1.67116e-27
2.71921e-21
2.43319e-15
1.40048e-09
0.000134761
0.0816318
1
1
1
1
1
0.999999
0.999999
0.999999
0.999999
0.999996
0.999996
0.999998
0.999999
0.999998
0.999998
0.999989
1
0.999993
1
1
1
0.999999
0.999999
0.999999
0.999998
0.999998
0.999999
1
0.999988
1
0.999988
1
0.99999
1
0.999995
1.00001
0.999994
1
0.999992
1
1
1
1
1
1
3.83453e-33
8.25561e-27
9.2726e-21
6.20924e-15
2.63901e-09
0.000172591
0.0863043
1
1
1
1
0.999999
0.999999
0.999999
0.999999
0.999999
0.999999
0.999999
1
0.999985
0.999992
1
0.999989
1
1
0.999995
0.999986
1
0.999991
1
1
0.999999
1
0.999992
1
0.999997
1
0.999997
1
0.999999
0.999992
0.999999
0.999993
0.999999
0.999994
1
1
1
1
1
1
0.999999
0.999999
0.999999
0.999999
0.999998
0.999999
0.999998
0.999995
1
0.999994
0.999999
0.999996
1
0.999999
1
0.999998
1
0.999996
1.00001
0.999989
1
0.99999
1
1
1.00001
0.999995
1
1
1
1
1
1
2.23869e-32
3.10811e-26
2.43175e-20
1.23841e-14
4.20671e-09
0.000204357
0.088743
1
1
1
0.999999
0.999999
0.999999
0.999999
1
1
1
1
0.999995
1
0.999998
1
0.999996
1
0.999999
1
1
1
0.999999
1
1
1
0.999999
1
0.999992
1
1.00001
1
0.999995
1.00001
0.999992
1.00001
0.999999
1.00001
0.999998
1
0.999995
1
0.999996
1
0.999994
1
1
1
0.999999
0.999995
1
1.00001
1
0.999987
1
0.999997
1
1
1
1
1
1
0.999999
0.999999
0.999999
0.999999
0.999996
1
0.999997
1
0.999996
1.00001
0.999997
1
0.999996
0.999997
1
0.999999
1
1
0.999994
0.999997
1
0.999999
1
1
1.00001
0.999995
1
0.999997
1
1.00001
1.00001
0.999997
1
0.999989
0.999996
0.999991
1
0.999997
1.00001
0.999992
1
1
1
1
1
1
9.47453e-32
8.46262e-26
4.99357e-20
2.07675e-14
5.73289e-09
0.00022128
0.0888344
1
1
0.999999
0.999999
0.999999
0.999999
0.999999
1
0.999999
0.999999
1
1
1
1
1
1
1
1
1
1
1
1
1
1
1
1
0.999995
1
0.999995
1
0.999996
1
0.999994
1
0.999999
1
0.999999
1
0.999997
1
1
1
1
0.999989
1
0.999999
1
1
1
1
1
1
1
1
1
1
0.999997
1
0.999988
1
0.999995
1.00001
0.999991
1.00001
0.999997
1
0.999998
1
0.999996
1
0.999999
1
1
1.00001
1
1.00001
1
1.00001
1
1.00001
0.999994
1.00001
1.00001
1
1.00001
1.00001
0.999996
1.00001
1.00001
1
1.00001
1
1.00001
0.999992
0.999999
0.999993
1
0.999996
1.00001
0.999992
1
1
1
1
1
1
2.72758e-31
1.77997e-25
8.62017e-20
2.92789e-14
6.02475e-09
0.000222676
0.0835399
1
1
0.999999
0.999999
0.999999
1
1
1
1
1
1
1
1
1
1
1
1
1
1
1
1
1
1
1
1
1
1.00001
1.00001
1.00001
1.00001
1
1
1
0.999999
1
1
1
1
1
1
1
1
1
1
1
1
1
1
0.999999
1
1
1
0.999997
1
1
1
0.999982
1.00001
0.999984
1.00001
0.99998
1.00001
0.999992
1.00001
1
1.00001
0.999999
1.00001
1
1
0.999999
1
1
1
1
1
1
1
5.90483e-31
3.16089e-25
1.22447e-19
3.19356e-14
5.88228e-09
0.00020757
0.0762769
0.999997
1
0.999999
1
1
1
1
0.999999
1
1
1.00001
1.00001
1.00001
1.00001
1.00001
1.00001
1.00001
1
1
1
1.00001
1.00001
1
1
1.00001
1
1.00001
1.00001
1.00001
1
1.00001
1.00001
1.00001
1.00001
1.00001
1.00001
1.00001
1.00001
1.00002
1.00001
1.00001
1
1
1
1
0.999999
1
1
0.999999
0.999999
0.999998
0.999998
0.999998
1
0.999996
1
0.999994
1
0.999997
1
0.99999
1
0.999996
1
0.999994
1
0.999996
1
1
1.00002
0.999995
1.00001
1
1
1
1
1
1
1.07817e-30
4.48453e-25
1.38604e-19
2.85902e-14
3.63351e-09
0.00020179
0.0268078
0.966296
1
1
1
1
1
1
1
1
1
1
1
1
1
1
1.00001
1.00002
1.00002
1.00002
1.00002
1.00002
1.00002
1.00001
1
1
1.00001
1.00001
1.00001
1
1.00001
1.00001
1.00005
1.00004
1.00005
1.00004
1
1
1
1
0.999998
0.999999
0.999999
0.999999
1
0.999999
1
1
0.999998
1
0.999993
1.00001
0.999997
1
0.999989
1
0.999985
1
0.999992
1
0.999988
1
0.999991
0.999985
1
0.999988
1
0.999985
1
0.999996
1
0.999986
1
0.999995
1
0.999982
1
0.999994
1
1
1
1
1
1
1.51949e-30
5.63423e-25
1.15583e-19
2.25082e-14
7.22404e-09
0.000184975
-1.14546e-21
0.992807
0.992853
0.716243
0.71639
1
1
1
1
1
1
1
1
0.999991
0.999991
1
1
1
1.00001
1
1.00001
1.00001
1
1
1
1
1
1
1
1
1
1.00003
1.00001
1.00001
1.00003
1.00003
1.00001
1.00001
1.00002
1
1
1
1
0.999999
1
1
1
0.999999
1
0.999999
0.999999
0.999999
0.999987
0.999999
0.999998
0.999997
0.999998
1
0.999997
1
1
1.00001
0.999995
1
0.999991
1
0.99999
1.00001
1
1.00001
0.999985
1.00001
0.999994
1.00001
1.00002
1.00001
1.00001
1
1
1
1
2.03894e-30
4.2517e-25
1.34767e-19
2.63691e-14
1.4997e-07
6.9339e-06
0.00108964
0.000312797
-2.67574e-26
5.14343e-09
0.99224
0.992604
0.705147
0.709669
1
1
1
1
1
1.00001
1.00001
1
1
0.999456
1
0.999999
1.00001
0.999437
1
0.999997
1
1
1
1.00001
1
1
1.00001
1
1.00001
1.00001
1.00001
1.00001
1
1.00001
1.00001
1.00001
1
1
1
1
1
0.999998
1
1
1
1
1
1
1
1
1
1
1
1
1
1
0.999995
1
0.999994
0.999999
1
1
0.999989
1
0.999997
1
0.999989
1
0.999994
1
1.00002
0.999994
1.00001
1.00001
1.00002
0.999992
1
1
1
1
1
1.37791e-30
7.43036e-25
9.18772e-20
1.03841e-12
4.28504e-07
1.86797e-08
0.00175034
0.000492519
1.16788e-26
-1.45084e-26
1
0.999337
1
0.998206
0.999462
1
0.999382
1
1
1
0.998133
0.999308
0.50647
0.521656
0.920355
0.946786
0.494393
0.504596
0.918628
0.943275
1.00001
1.00001
1.00001
1
1
1.00001
1.00001
1.00001
0.999992
1
1.00003
0.999983
1.00001
1.00001
1.00001
1.00001
1.00002
1.00002
1.00002
1.00001
1
1
1
1
1
0.999997
0.999998
0.999998
1
1
1
1
1
1
1.00001
1.00001
1
1.00001
1.00001
1.00001
1.00001
1.00001
1.00001
1.00001
1
1.00001
1
1.00001
1
1
0.999994
0.999984
1
0.999998
1
1.00001
0.999993
0.999984
1
1
0.99999
1
0.999995
1
1
1
3.16309e-30
2.58544e-25
2.21091e-18
2.42959e-10
3.87619e-08
4.71303e-10
1.45959e-08
2.58961e-11
2.67904e-11
0.00574772
0.00169135
2.4105e-27
2.05076e-27
1.00002
0.999999
0.999963
1.00005
0.999589
1
1.00004
0.999963
1.00006
0.999889
0.999939
1
0.473117
0.588831
0.910552
0.961484
0.488966
0.565117
0.925116
0.96082
1.00001
0.999998
1.00001
1.00004
1
1
1
1
1
0.999998
0.999998
0.999999
1
1
1
1
1
1
1
1
1
1
1
1.00001
1
1
1.00001
1
1
1.00001
1
1
1.00001
1.00001
1.00001
1.00002
1.00002
1.00002
1.00002
1.00001
1.00001
1.00001
1.00001
1.00001
1.00001
1.00002
1.00002
1
1.00001
1.00002
1.00001
1
1.00001
1
5.84254e-30
4.06066e-22
4.22013e-30
5.81471e-12
1.25777e-10
6.02625e-09
1.47228e-06
9.36799e-10
4.52565e-29
5.55479e-21
0.0147099
0.0215269
-4.24584e-21
-1.39081e-21
0.00354489
0.00951465
1.4812e-21
1.0029e-06
5.70971e-06
0.678893
0.766513
0.981073
0.993901
0.614166
0.754211
0.974492
0.992515
1
1
1
1
1
1
0.999997
0.999998
0.999998
0.999998
0.999999
1
1
1
1
1
1
1
1
1
1.00001
1.00002
1.00002
1.00002
1.00002
1.00001
1.00001
1.00002
1.00003
1.00002
1.00002
1.00001
1.00001
1.00003
1.00003
1.00004
1.00002
3.1733e-25
1.30663e-23
2.20228e-34
5.03232e-31
-8.09993e-30
-1.57894e-30
-5.99336e-31
2.95137e-30
8.7384e-08
9.75549e-06
9.52755e-09
-2.20003e-28
1.00018e-06
0.0221494
0.0106844
1.64736e-06
4.00514e-06
0.0172835
0.00597987
4.72913e-06
3.6184e-07
1.29942e-05
4.39841e-07
1.38855e-05
6.93061e-06
6.70946e-05
8.30988e-06
6.64715e-05
0.687803
0.861477
0.713873
0.822956
1
1
1
1
1
0.999998
0.999998
0.999998
1
1
1
1
1
1
0.999997
1
1
1
1
1.00001
1.00001
1.00002
1.00002
1
1.00001
1.00002
1.00002
1.64386e-27
5.22101e-27
2.2038e-34
6.10485e-41
-4.53854e-29
9.1526e-13
1.58818e-14
9.87517e-18
1.03986e-06
4.22121e-05
5.27902e-07
1.30117e-08
2.2087e-06
1.744e-08
7.90411e-06
6.87764e-05
-1.13482e-24
2.74665e-27
2.75589e-06
2.77865e-27
1.81024e-08
9.21321e-10
7.21781e-06
2.81219e-07
2.82838e-07
2.80898e-07
3.02015e-05
3.01277e-07
2.9191e-07
5.23851e-06
4.6402e-07
3.18231e-06
7.90347e-06
3.31986e-05
1
1
1
1
1
0.999997
0.999998
0.999998
0.999998
0.999999
0.999999
1
0.999997
1
1
1
1
1
0.999999
1
1
1.00001
1
1
1
1.00001
1
1.00001
1.00003
1.00002
1.00003
1.00002
5.96336e-32
2.1474e-32
2.85625e-36
-8.63993e-34
2.02378e-22
4.38424e-35
6.92754e-39
1.18905e-10
1.43321e-11
2.13058e-13
1.71654e-14
1.21002e-08
1.39165e-05
5.26374e-07
1.36051e-08
1.11116e-06
1.59578e-08
2.81664e-08
9.31354e-06
2.12526e-08
4.1026e-11
1.07774e-06
2.67151e-10
3.94242e-11
9.83109e-11
1.17174e-10
3.85296e-08
1.37993e-12
6.53311e-11
-7.69151e-31
1.7127e-11
1
1
1
0.999999
0.999998
0.999998
1
1
1
1
0.999998
1
1
0.999999
1
0.999998
1
1
1
1
0.999999
1
1.00001
1.00001
1.00001
1.00001
1.00001
1.00001
1.00001
1.00001
1.00003
1.00003
1.00003
1.00002
3.16326e-37
3.99069e-38
9.1266e-38
1.70427e-19
3.95718e-39
9.24062e-54
4.08643e-39
5.387e-11
5.37007e-09
7.9149e-12
1.13574e-11
6.24167e-10
1.73229e-13
8.46665e-13
7.52854e-11
1.38277e-12
2.91022e-12
6.41241e-12
1.9883e-13
5.55728e-14
3.15695e-14
2.82513e-07
3.23628e-09
-8.96667e-29
-2.0019e-37
2.92566e-09
3.84208e-08
1.3582e-12
3.34304e-11
1
1
1
0.999999
0.999996
0.999998
0.999998
0.999998
1
1
1.00001
1.00001
1
1.00001
1.00001
1
1
1.00001
1
1.00001
1.00001
1.00001
1.00001
1.00001
1.00001
1.00001
1.00001
1.00001
1.00001
1.00001
1.00001
9.52073e-43
1.15195e-43
1.12928e-40
3.28559e-23
1.12425e-22
2.26179e-59
1.10322e-58
7.36814e-11
2.39825e-09
7.01493e-13
8.33504e-14
2.27092e-12
4.80275e-15
3.0658e-12
8.60231e-12
2.23833e-13
9.08299e-14
3.87758e-12
5.72483e-15
-6.78228e-34
2.53785e-35
4.67542e-15
2.96437e-16
5.5637e-33
-5.18805e-34
5.12967e-15
8.13103e-16
7.76104e-11
4.64713e-10
7.73021e-12
7.34669e-12
1
1
1
0.999997
0.999997
0.999999
1
1
1
1.00001
1.00001
1
1.00001
1.00001
1
1.00001
1.00001
1.00001
1.00001
1.00001
1.00001
1.00001
1.00002
1.00001
1.00002
1.00002
1.00002
1.00001
1.00001
2.16103e-48
2.68113e-54
3.31957e-60
-1.07741e-58
2.94452e-58
-2.02758e-60
-1.6785e-60
8.9175e-60
1.14001e-23
7.15379e-41
1.15516e-20
9.71844e-24
1.65679e-23
1.6784e-19
-5.10498e-32
1.95679e-31
-1.23455e-34
-8.73637e-27
6.30114e-34
3.13646e-16
8.94082e-14
1.34419e-11
2.12393e-14
3.04094e-16
3.41774e-13
5.29243e-16
5.71688e-17
6.25751e-18
1.23627e-16
1.17894e-17
1
1
1
0.999998
0.999998
1
1
1
1
1.00001
1
1.00001
1
1
1.00001
1.00001
1
1.00001
1.00001
1.00001
1.00001
1.00001
1.00001
1.00001
1.00001
1.00001
1.00001
1.00003
1.00003
1.00003
1.00002
2.86895e-54
1.45032e-46
2.00832e-31
-1.59548e-66
7.32765e-32
-7.06002e-66
7.55547e-48
7.55359e-48
3.06142e-24
4.58807e-24
9.81662e-24
4.825e-24
9.14019e-22
4.40401e-25
-4.75368e-42
2.05064e-44
1.66997e-24
9.9682e-25
3.30307e-24
1.9959e-24
4.49806e-21
5.97706e-26
1.47506e-41
1.63018e-44
8.11393e-17
6.06789e-18
-1.13413e-35
2.46118e-17
2.25367e-35
-1.02575e-36
1.33226e-35
3.04618e-36
1
0.999999
0.999999
1
1
0.999995
0.999997
0.999997
1.00001
1
1
1.00001
1
1
1.00001
1.00001
1.00001
1
1.00001
1.00001
1.00001
1.00001
1.00003
1.00002
1.00002
1.00002
1.00003
1.00002
1.00003
1.00001
3.38904e-74
3.10086e-41
1.54217e-32
1.35737e-28
-6.82492e-49
-1.59771e-47
2.897e-33
1.6002e-29
4.39056e-42
-3.72245e-46
2.0146e-60
4.14659e-60
1.7598e-24
1.71589e-25
-4.15232e-41
4.41629e-43
1.12694e-25
2.106e-26
2.27169e-25
8.04374e-26
1.56673e-26
-3.43963e-43
8.36893e-27
1.53681e-27
8.08901e-18
1.17085e-36
7.65799e-20
3.37614e-35
1
0.999999
0.999996
1
1
0.999996
0.999998
1
1.00001
1.00001
1.00001
1.00001
1.00001
1.00001
1
1
1.00001
1.00001
1.00001
1.00001
1.00001
1.00001
1.00001
1
1.00002
1.00001
1.00001
1.00001
1.00002
1.00001
1.00001
1.00001
1.00098e-53
6.74909e-40
-2.80073e-59
-8.45529e-60
1.74859e-38
2.98e-61
6.79764e-61
-4.20195e-51
5.91434e-30
2.62399e-33
6.24544e-33
2.4173e-33
-1.55996e-45
1.38696e-33
4.86721e-35
5.96269e-37
-1.40461e-47
-5.33281e-47
-3.82941e-51
8.20859e-31
6.07559e-34
1.22335e-33
6.62577e-34
-2.56487e-44
1.13719e-34
8.24354e-37
1.38486e-35
-3.2915e-46
-9.18558e-46
2.41666e-25
1.81493e-44
1.94162e-26
2.02094e-44
8.57204e-27
5.3639e-45
1.13618e-27
-7.36869e-46
1
1
0.999998
1
1
0.999994
1.00001
0.999997
1
0.999997
1
1
1.00002
1
1.00003
1.00001
1.00003
1
1.00002
1
1.00003
1.00002
1.00002
1.00001
1.00004
1.00003
1.00004
1.00002
2.55231e-52
5.90676e-36
1.14523e-38
3.5483e-35
2.74203e-37
2.73798e-53
3.6446e-53
2.78651e-35
3.89012e-34
1.71022e-37
9.79202e-35
1.26039e-35
5.73852e-37
2.51449e-37
1.9684e-37
6.05798e-39
-1.30559e-54
-2.1013e-47
2.14993e-34
1.76459e-36
3.36605e-35
6.76723e-51
3.47541e-35
1.94208e-51
4.78672e-37
8.25365e-38
3.18641e-40
4.05948e-36
3.59476e-36
1.12887e-37
3.50445e-53
-2.53764e-46
5.5256e-33
8.89082e-36
5.38178e-34
1
1
0.999999
1
0.999996
0.999997
0.999996
1
1
1.00001
1
0.999999
1
1.00001
1
1.00001
1
1.00001
1.00001
1.00001
1
1.00001
1.00001
1
1
1
1.00001
1
1
1.00003
1.00001
1.00002
1.00001
1.00003
1.00001
1.00002
1.00001
1.99302e-76
1.01898e-35
6.37723e-34
1.55285e-36
5.70905e-39
3.14368e-34
3.55837e-33
8.46161e-36
3.56598e-37
3.01537e-58
-2.40002e-58
6.6989e-36
2.1517e-37
-3.41363e-55
1.70771e-55
1.61871e-38
8.30996e-38
3.35844e-38
1.76524e-39
1.17907e-34
5.47579e-33
-3.61885e-53
2.29316e-53
-2.39071e-56
4.89777e-59
2.99114e-36
3.48252e-37
9.52255e-35
9.58225e-39
9.25731e-34
1.96598e-31
1
0.999998
0.999999
1
0.999996
0.999997
0.999999
1.00002
1.00001
1.00002
1.00001
1.00001
1
1.00002
1.00001
1.00001
1.00001
1.00001
1.00001
1.00001
1.00001
1.00001
1.00001
1
1
1
1
1.00001
1.00001
1.00001
1.00001
1.00001
1.00001
1
1
1.18739e-56
2.14066e-65
-4.888e-61
2.77277e-36
3.27045e-34
1.35504e-36
2.63954e-34
1.30891e-36
1.20142e-42
2.10255e-34
5.25618e-33
4.95577e-35
1.13104e-32
4.14235e-35
-1.27174e-63
-3.74737e-55
4.48289e-34
7.54307e-38
-1.18611e-52
5.75375e-33
3.4039e-33
-2.06959e-53
1.86602e-30
2.35321e-33
-1.42035e-57
1.96188e-30
1.78633e-31
1
0.999998
1
0.999999
0.999995
1
0.999998
1
0.999998
0.999998
1
1.00003
1.00002
1.00001
1.00001
1.00003
1.00002
1.00001
1.00001
1.00001
1
1.00001
1.00001
1.00001
1
1.00001
1
1.00001
1.00001
1.00001
1
-1.49426e-59
1.39386e-66
-1.32205e-59
4.84142e-60
1.38808e-52
3.21815e-38
1.17056e-35
2.48914e-39
9.55376e-35
2.84135e-41
1.08267e-34
1.38784e-33
7.01478e-46
4.07606e-36
9.81303e-34
3.05516e-35
7.33964e-33
3.14704e-35
1.56782e-32
1.20813e-31
5.48628e-46
1.55977e-33
7.22219e-33
1.44045e-30
1.35524e-30
1
0.999999
1
1
1
1
1
1
1
1
1
1
1
0.999999
1
1.00001
1.00004
1
1.00001
1.00002
1
1.00001
1.00004
1
1.00002
1.00001
1
-2.78581e-61
-7.14876e-56
-1.3916e-57
8.66287e-55
6.27844e-60
4.66956e-66
3.03063e-48
7.56555e-42
3.26617e-37
6.593e-57
6.35585e-56
-4.19887e-56
9.31094e-36
7.32623e-36
1.53562e-34
1.40459e-37
8.32424e-34
2.45591e-33
1.54556e-39
2.12133e-35
-8.71829e-54
1.45222e-53
1.88645e-36
1.29039e-33
1.36141e-33
2.67516e-32
2.0894e-35
1.46223e-31
4.28952e-31
1
1
1
1
1
1
1
1
1.00001
1.00001
1.00001
1
1
1.00001
1.00001
1.00001
1.00001
1.00001
1
1
1
1.00001
1.00001
1.00001
1.00001
1.7159e-54
-8.68405e-60
-6.26776e-62
-5.21265e-62
-1.31179e-62
-2.02177e-53
-5.12303e-55
9.05765e-53
9.93804e-58
-3.6626e-61
-3.5948e-59
9.72576e-46
1.12384e-42
6.71634e-44
-2.08884e-60
1.17803e-38
-2.73953e-46
-1.27438e-57
7.64449e-56
7.13954e-36
1.42825e-71
1.25411e-34
0
5.1361e-59
2.24934e-40
5.35131e-42
-7.26343e-58
-5.62865e-52
3.64225e-56
-4.17188e-47
6.67591e-38
4.81724e-34
6.7366e-38
3.36027e-32
4.92538e-36
1
1
1
1
1
1
1
1.00001
1
1
1.00001
1.00001
1
1.00001
1.00001
1.00001
1.00001
1.00001
1.00001
1.00001
1.00001
1.00001
1
1.00001
1.00001
1.00001
1.00001
1.00001
1.00001
6.52457e-56
2.32433e-55
2.60695e-65
2.55312e-55
4.30796e-68
-1.00609e-56
4.8479e-44
-1.16944e-57
-5.39935e-64
-6.25152e-52
3.09213e-66
6.31144e-51
3.51257e-52
6.37568e-47
-2.63542e-51
2.65328e-48
-1.19151e-52
9.78595e-48
-1.13389e-52
2.15015e-47
-7.49779e-52
3.11086e-45
8.62196e-45
3.98854e-45
1.28184e-46
6.0778e-46
7.6674e-43
2.33749e-44
4.0994e-45
1
1
1
1
1
1
1
1
1
1
1
1.00001
1.00001
1.00001
1.00001
1.00001
1.00001
1.00001
1.00001
1.00001
1.00001
1.00001
1.00001
1.00001
1.00001
1.00001
1.00001
1.00001
1.00001
1.00001
1
1.00001
1.00001
1.00001
1.00001
1.1171e-46
1.54817e-76
2.10062e-43
2.96622e-44
1.07766e-44
8.35637e-46
3.97404e-44
2.41971e-41
1.60137e-47
6.6714e-43
-4.63497e-51
-4.79238e-52
5.49166e-51
-2.45939e-52
-1.91478e-52
-4.09933e-54
-3.03754e-65
-1.48771e-53
2.55524e-52
6.45684e-52
1.08664e-48
7.37296e-52
4.46705e-52
1.73329e-53
1.32339e-49
1.48319e-69
9.73477e-46
-6.5433e-47
9.60709e-47
-8.44318e-49
6.952e-65
-5.25508e-48
7.33056e-46
-3.117e-47
1
1
1
1
1
1
1
1
0.999999
1.00001
1
1.00001
1
1
1
1
1
1
1
1
1
1
1.00001
1
1
1.00001
1.00001
1
1.00001
1.78379e-45
6.15722e-43
2.48756e-62
6.27869e-43
6.51926e-62
-1.64658e-59
7.26668e-41
2.54463e-40
1.10886e-40
2.54284e-40
2.51295e-42
4.68163e-62
2.39441e-46
9.73632e-45
7.52533e-41
7.81359e-42
3.08793e-40
7.99912e-42
7.08533e-46
3.29077e-66
2.26236e-48
5.31728e-48
2.33022e-43
2.24539e-43
2.39298e-41
5.21672e-48
-5.2764e-50
-7.69143e-48
5.0472e-49
-3.84227e-49
-2.11449e-51
1.19126e-50
1.0059e-61
-1.53758e-50
7.80394e-51
-4.44534e-49
2.81222e-47
-7.34123e-50
2.91609e-50
-3.13776e-51
2.6684e-47
-6.06374e-51
1
1
1
1
1
1
0.999994
0.999994
0.999994
0.999995
1.00001
1.00001
1.00001
1.00001
1
1
1
1.00001
1.00001
1
1.00001
1.00001
1.00001
1
1
1.00001
1
1
1
1
1
1
1
1
5.77664e-42
-6.67181e-66
2.51139e-56
-6.26015e-66
7.38952e-56
1.80542e-39
2.98845e-43
1.1466e-37
2.70647e-41
7.30597e-49
1.73654e-39
1.64982e-41
4.90043e-40
1.48199e-41
9.1682e-39
2.30728e-40
2.15859e-38
5.72923e-41
8.39799e-39
1.64638e-41
9.75326e-40
1.58951e-41
2.39414e-40
1.50637e-38
8.00035e-38
2.52226e-40
1.73463e-41
6.37245e-62
2.15178e-43
2.31756e-45
1.66588e-40
4.81851e-41
3.99823e-40
4.93903e-44
3.55361e-45
-5.62112e-50
4.80368e-46
-1.11685e-48
4.20159e-47
1.38845e-44
4.41441e-41
4.4534e-47
1
1
0.999998
1
0.999998
1
0.999994
0.999994
0.999993
0.999995
1
0.999992
0.999999
0.999983
1
0.999997
0.999998
0.999985
0.999995
0.999995
0.999998
0.999977
0.999998
0.999996
0.999997
0.999977
1.00001
1.00001
1.00001
1.00001
1
0.999999
1
1.00001
1.00001
1
1
1.00001
1.00001
0.999998
0.999999
1.00001
4.02338e-36
-5.84959e-64
-4.70668e-64
-1.12121e-49
6.12707e-61
-4.20134e-48
1.50251e-40
2.77653e-40
2.54841e-38
-7.39087e-58
6.48031e-40
2.42727e-37
-4.42025e-43
-8.81483e-44
5.55507e-44
6.3658e-43
4.21978e-38
1.73735e-38
8.41611e-36
3.44778e-38
2.24902e-38
1.56241e-35
-1.43244e-41
-4.57129e-42
3.16424e-41
6.09562e-42
6.21791e-42
6.34654e-39
2.25476e-40
7.58574e-40
5.69474e-42
8.5114e-38
9.71402e-42
5.48223e-37
1.05923e-43
4.22047e-39
1.59701e-43
4.24105e-36
1.62458e-40
2.39553e-40
1.14941e-41
3.68619e-40
4.88259e-42
1.47155e-40
-6.85449e-45
1.27419e-39
-2.27078e-46
1
1
1
1
1
1
0.999988
0.999998
0.999987
0.999998
0.999999
0.999995
0.999998
0.999987
0.999999
0.999986
0.999998
0.999983
0.999996
0.999995
0.999998
0.999985
0.999993
0.999991
0.999998
0.999985
0.999997
0.999989
0.999996
0.999987
0.999999
0.999998
0.999998
0.999995
0.999993
0.999988
0.999997
0.999986
0.999996
0.999998
0.999999
0.999997
6.91102e-31
-2.21134e-54
4.25379e-38
-9.82804e-55
4.22188e-38
-1.29287e-62
-4.55948e-42
-3.20703e-40
-1.56446e-40
-1.0938e-38
5.51391e-41
5.24137e-59
1.15038e-37
2.13279e-39
-5.36051e-58
1.38652e-41
-1.23903e-42
-2.68668e-43
-1.48769e-43
2.13394e-44
1.91275e-35
5.79413e-54
3.09955e-34
2.81968e-38
1.87335e-39
6.03826e-41
-5.11208e-41
-1.39026e-41
-1.5683e-42
-1.47876e-42
1.45112e-35
3.80671e-39
7.91494e-41
6.7077e-40
8.55893e-41
2.78501e-37
2.82607e-41
7.45373e-36
-1.15278e-45
-8.03031e-56
8.31402e-35
1.73435e-33
9.55554e-33
1
1
1
1
1
1
1
0.999982
0.999986
0.999999
0.999991
1
0.999998
0.999998
1
0.999992
1
0.999991
0.999976
0.999999
0.999992
1
0.999997
0.999994
1
0.999996
1
0.999999
0.999997
0.999998
0.999993
0.999998
0.999983
0.999994
0.999997
0.999999
0.999991
0.99999
0.999989
0.999997
1
1
1
0.999997
1
1
1
1.06605e-25
-9.32908e-50
2.87579e-39
-1.73368e-49
-1.07516e-38
-1.24829e-39
2.13868e-56
-3.57855e-38
-7.89986e-57
5.34998e-42
-7.33379e-41
-2.74384e-42
-7.87549e-42
-4.3827e-42
-4.193e-40
-3.96633e-40
-5.10449e-39
-2.16945e-40
-2.07725e-39
-1.09956e-40
-4.94063e-40
-2.56081e-40
-1.08886e-38
-1.56411e-38
-1.30893e-37
-9.59061e-39
2.15608e-58
-1.28716e-55
-9.64701e-43
-3.19237e-43
-2.93973e-43
1.58954e-44
5.68008e-54
-2.70523e-52
-4.22918e-41
-1.17755e-41
-1.29139e-41
1.13886e-44
2.04969e-29
1
1
1
0.999998
1
0.999999
1
0.999997
1
0.999996
1
0.999982
0.999989
0.999999
0.999996
0.999993
0.999999
0.999989
1
0.999996
1
0.999976
0.999987
0.999996
0.999998
0.999996
0.999999
0.999994
1
0.999997
0.999999
1
1
1
1
0.999995
0.999981
0.999999
1
1
0.999994
0.999989
0.999982
8.72563e-20
9.70178e-20
-1.62137e-40
-4.74003e-39
3.37252e-40
6.30419e-39
-7.31167e-40
-5.07558e-40
-1.07047e-38
-3.68743e-40
4.18642e-56
-4.22261e-38
2.14815e-51
1.97215e-34
1.16407e-39
1.8631e-36
-1.05155e-37
-2.09476e-38
-4.21677e-37
3.68925e-51
5.71072e-52
-4.8684e-37
1.09847e-30
3.93881e-31
1.84633e-32
3.42179e-33
1.01694e-22
-4.11036e-39
-3.81932e-45
-1.18695e-39
-1.26247e-41
-1.04219e-38
-1.8299e-40
-7.07079e-38
-2.2855e-45
-2.3275e-38
-1.49221e-39
-1.58668e-37
-1.10056e-38
3.70228e-25
1
1
1
1
1
1
1
0.999985
0.999998
0.999983
0.999997
1
0.999982
0.999996
0.999988
1
1
1
1
0.999997
0.999981
0.999994
0.999992
1
0.999999
1
0.999999
0.999987
0.999994
0.999982
0.999995
0.99998
0.999993
0.999976
0.999996
0.999981
0.999994
0.999982
0.999992
3.19205e-14
2.8443e-38
-3.21304e-29
5.75967e-39
-1.64603e-29
2.59302e-15
1.03094e-31
7.81535e-33
6.12835e-30
1.14638e-30
-3.89832e-38
1.82205e-35
-6.5602e-37
4.9057e-35
2.01907e-37
1.41213e-37
7.54924e-50
1.05683e-33
5.00498e-37
2.55928e-53
-1.11902e-36
2.43537e-35
-3.795e-36
4.90396e-35
1.14925e-34
3.70709e-35
2.33177e-30
3.76803e-31
1.13466e-31
1.0547e-32
2.54005e-19
2.3752e-55
2.53252e-54
-7.78682e-37
-1.23724e-37
5.72502e-27
1
1
1
1
1
1
1
1
0.999962
0.999976
0.999993
0.999984
1
0.999999
0.999996
1
0.99999
1
0.999988
0.999956
0.999992
0.999984
1
0.999998
0.99999
1
0.999992
1
0.999994
0.999974
0.99998
0.99998
0.999999
0.999986
0.999985
0.999974
0.999983
0.999988
0.999993
0.999996
1.56462e-10
8.87285e-11
5.71539e-38
7.25604e-30
5.27025e-36
1.178e-29
2.65642e-13
5.94415e-36
-2.55964e-50
-3.54764e-33
-2.27876e-34
1.09458e-14
1.29137e-34
9.16872e-48
1.6928e-50
1.11815e-32
3.89726e-13
3.67746e-37
3.60709e-37
-3.27727e-33
-6.17569e-33
-5.36312e-33
-1.33445e-32
1.19642e-49
2.90559e-50
4.15551e-31
2.68669e-32
3.55092e-32
2.85153e-33
2.35371e-22
2.19165e-29
1
1
1
1
1
1
1
1
0.999986
1
0.999984
1
0.999961
0.999962
0.999985
0.999989
0.999969
0.999997
0.999971
1
0.999985
0.999999
0.999954
0.999966
0.999989
0.999985
0.99998
0.999995
0.99999
0.999999
0.999989
0.999998
0.99998
0.999962
0.999975
0.999949
3.21123e-08
1.10754e-29
5.72004e-29
3.07696e-29
7.13241e-30
2.54525e-09
7.21929e-10
6.94066e-13
2.89819e-09
3.91e-11
5.0836e-17
1.20802e-16
1.22889e-17
5.41962e-19
1.41608e-15
1.8884e-15
4.52598e-13
1.98822e-15
1.98715e-12
4.6745e-15
7.04317e-16
3.07146e-17
6.62996e-14
7.1532e-14
1.16726e-11
7.48625e-14
5.41722e-11
1.34062e-37
0
4.19063e-43
-1.88605e-44
3.10717e-24
1.42327e-29
1
1
1
1
1
0.999996
1
0.999995
1
0.999998
0.999981
0.999998
0.999965
0.99998
0.999993
0.99999
0.999997
0.999963
0.999978
0.999946
0.999965
0.999971
0.999991
0.999964
0.999992
0.999949
0.99997
0.999969
0.999988
0.999972
0.999993
5.39783e-09
2.53651e-07
5.11055e-08
3.53315e-09
3.30339e-08
3.03137e-09
1.10685e-11
1.80812e-07
1.17601e-07
2.58021e-08
6.60813e-10
4.00486e-11
4.58759e-12
1.3465e-06
2.89923e-10
7.23395e-11
2.98438e-07
1.61784e-07
5.12326e-08
2.77501e-09
1.27423e-06
5.79514e-19
-2.82366e-34
1.34664e-17
7.33725e-19
4.22812e-16
6.64716e-12
2.90662e-11
-4.56464e-33
1.71155e-15
1.08837e-16
2.08369e-14
7.58144e-10
1.13342e-09
2.74159e-24
2.47575e-30
1
1
1
1
1
1
1
1
1
0.999977
1
0.999973
1
0.999998
0.999982
0.999994
0.99996
0.999982
0.999997
0.999976
0.999996
0.999989
0.999973
0.999994
0.999962
0.999986
0.999995
0.99998
0.999995
0.999959
0.999983
0.999959
0.999985
8.90436e-07
1.02657e-27
1.31801e-09
-4.81026e-27
1.33587e-09
3.01322e-07
3.30108e-05
3.3533e-07
3.12929e-05
1.77698e-07
9.98341e-14
1.89721e-05
2.20488e-07
-3.55895e-29
6.71155e-22
2.87157e-26
5.09885e-06
1.00437e-05
3.60211e-05
4.69272e-05
8.65208e-05
1.49686e-26
6.34918e-28
2.09983e-05
3.52712e-07
1.62472e-22
2.71204e-06
1.96798e-06
3.84004e-05
2.59304e-05
0.00010959
4.22235e-19
-5.93036e-30
-2.10958e-29
-4.53465e-28
-7.27018e-28
7.36755e-25
9.39302e-31
1
1
1
1
1
1
0.999995
1
0.999994
1
0.999955
0.999993
0.999999
0.999971
0.999995
0.999963
0.99997
0.999958
0.999992
0.999993
0.999971
0.999993
0.999956
0.999971
0.999993
0.999954
0.999982
0.999957
0.999974
0.99999
0.999986
0.999953
0.999985
0.999958
0.99998
0.999992
-1.96517e-25
0.000236682
-2.95514e-22
1.28491e-27
-9.85057e-24
2.51782e-27
1.74861e-08
0.000224406
0.00020386
2.15797e-05
2.53835e-05
3.12461e-05
2.03703e-05
1.22603e-21
0.000208003
0.000340289