/*--------------------------------*- C++ -*----------------------------------*\
| =========                 |                                                 |
| \\      /  F ield         | OpenFOAM: The Open Source CFD Toolbox           |
|  \\    /   O peration     | Version:  5.x                                   |
|   \\  /    A nd           | Web:      www.OpenFOAM.org                      |
|    \\/     M anipulation  |                                                 |
\*---------------------------------------------------------------------------*/
FoamFile
{
    version     2.0;
    format      ascii;
    class       surfaceScalarField;
    location    "0.1";
    object      meshPhi;
}
// * * * * * * * * * * * * * * * * * * * * * * * * * * * * * * * * * * * * * //

dimensions      [0 3 -1 0 0 0 0];

internalField   nonuniform List<scalar> 
30582
(
0
0
0
0
0
0
0
0
0
0
0
0
0
0
0
0
0
0
0
0
0
0
0
0
0
0
0
0
0
0
0
0
0
0
0
0
0
0
0
0
0
0
0
0
0
0
0
0
0
0
0
0
0
0
0
0
0
0
0
0
0
0
0
0
0
0
0
0
0
0
0
0
0
0
0
0
0
0
0
0
0
0
0
0
0
0
0
0
0
0
0
0
0
0
0
0
0
0
0
0
0
0
0
0
0
0
0
0
0
0
0
0
0
0
0
0
0
0
0
0
0
0
0
0
0
0
0
0
0
0
0
0
0
0
0
0
0
0
0
0
0
0
0
0
0
0
0
0
0
0
0
0
0
0
0
0
0
0
0
0
0
0
0
0
0
0
0
0
0
0
0
0
0
0
0
0
0
0
0
0
0
0
0
0
0
0
0
0
0
0
0
0
0
0
0
0
0
0
0
0
0
0
0
0
0
0
0
0
0
0
0
0
0
0
0
0
0
0
0
0
0
0
0
0
0
0
0
0
0
0
0
0
0
0
0
0
0
0
0
0
0
0
0
0
0
0
0
0
0
0
0
0
0
0
0
0
0
0
0
0
0
0
0
0
0
0
0
0
0
0
0
0
0
0
0
0
0
0
0
0
0
0
0
0
0
0
0
0
0
0
0
0
0
0
0
0
0
0
0
0
0
0
0
0
0
0
0
0
0
0
0
0
0
0
0
0
0
0
0
0
0
0
0
0
0
0
0
0
0
0
0
0
0
0
0
0
0
0
0
0
0
0
0
0
0
0
0
0
0
0
0
0
0
0
0
0
0
0
0
0
0
0
0
0
0
0
0
0
0
0
0
0
0
0
0
0
0
0
0
0
0
0
0
0
0
0
0
0
0
0
0
0
0
0
0
0
0
0
0
0
0
0
0
0
0
0
0
0
0
0
0
0
0
0
0
0
0
0
0
0
0
0
0
0
0
0
0
0
0
0
0
0
0
0
0
0
0
0
0
0
0
0
0
0
0
0
0
0
0
0
0
0
0
0
0
0
0
0
0
0
0
0
0
0
0
0
0
0
0
0
0
0
0
0
0
0
0
0
0
0
0
0
0
0
0
0
0
0
0
0
0
0
0
0
0
0
0
0
0
0
0
0
0
0
0
0
0
0
0
0
0
0
0
0
0
0
0
0
0
0
0
0
0
0
0
0
0
0
0
0
0
0
0
0
0
0
0
0
0
0
0
0
0
0
0
0
0
0
0
0
0
0
0
0
0
0
0
0
0
0
0
0
0
0
0
0
0
0
0
0
0
0
0
0
0
0
0
0
0
0
0
0
0
0
0
0
0
0
0
0
0
0
0
0
0
0
0
0
0
0
0
0
0
0
0
0
0
0
0
0
0
0
0
0
0
0
0
0
0
0
0
0
0
0
0
0
0
0
0
0
0
0
0
0
0
0
0
0
0
0
0
0
0
0
0
0
0
0
0
0
0
0
0
0
0
0
0
0
0
0
0
0
0
0
0
0
0
0
0
0
0
0
0
0
0
0
0
0
0
0
0
0
0
0
0
0
0
0
0
0
0
0
0
0
0
0
0
0
0
0
0
0
0
0
0
0
0
0
0
0
0
0
0
0
0
0
0
0
0
0
0
0
0
0
0
0
0
0
0
0
0
0
0
0
0
0
0
0
0
0
0
0
0
0
0
0
0
0
0
0
0
0
0
0
0
0
0
0
0
0
0
0
0
0
0
0
0
0
0
0
0
0
0
0
0
0
0
0
0
0
0
0
0
0
0
0
0
0
0
0
0
0
0
0
0
0
0
0
0
0
0
0
0
0
0
0
0
0
0
0
0
0
0
0
0
0
0
0
0
0
0
0
0
0
0
0
0
0
0
0
0
0
0
0
0
0
0
0
0
0
0
0
0
0
0
0
0
0
0
0
0
0
0
0
0
0
0
0
0
0
0
0
0
0
0
0
0
0
0
0
0
0
0
0
0
0
0
0
0
0
0
0
0
0
0
0
0
0
0
0
0
0
0
0
0
0
0
0
0
0
0
0
0
0
0
0
0
0
0
0
0
0
0
0
0
0
0
0
0
0
0
0
0
0
0
0
0
0
0
0
0
0
0
0
0
0
0
0
0
0
0
0
0
0
0
0
0
0
0
0
0
0
0
0
0
0
0
0
0
0
0
0
0
0
0
0
0
0
0
0
0
0
0
0
0
0
0
0
0
0
0
0
0
0
0
0
0
0
0
0
0
0
0
0
0
0
0
0
0
0
0
0
0
0
0
0
0
0
0
0
0
0
0
0
0
0
0
0
0
0
0
0
0
0
0
0
0
0
0
0
0
0
0
0
0
0
0
0
0
0
0
0
0
0
0
0
0
0
0
0
0
0
0
0
0
0
0
0
0
0
0
0
0
0
0
0
0
0
0
0
0
0
0
0
0
0
0
0
0
0
0
0
0
0
0
0
0
0
0
0
0
0
0
0
0
0
0
0
0
0
0
0
0
0
0
0
0
0
0
0
0
0
0
0
0
0
0
0
0
0
0
0
0
0
0
0
0
0
0
0
0
0
0
0
0
0
0
0
0
0
0
0
0
0
0
0
0
0
0
0
0
0
0
0
0
0
0
0
0
0
0
0
0
0
0
0
0
0
0
0
0
0
0
0
0
0
0
0
0
0
0
0
0
0
0
0
0
0
0
0
0
0
0
0
0
0
0
0
0
0
0
0
0
0
0
0
0
0
0
0
0
0
0
0
0
0
0
0
0
0
0
0
0
0
0
0
0
0
0
0
0
0
0
0
0
0
0
0
0
0
0
0
0
0
0
0
0
0
0
0
0
0
0
0
0
0
0
0
0
0
0
0
0
0
0
0
0
0
0
0
0
0
0
0
0
0
0
0
0
0
0
0
0
0
0
0
0
0
0
0
0
0
0
0
0
0
0
0
0
0
0
0
0
0
0
0
0
0
0
0
0
0
0
0
0
0
0
0
0
0
0
0
0
0
0
0
0
0
0
0
0
0
0
0
0
0
0
0
0
0
0
0
0
0
0
0
0
0
0
0
0
0
0
0
0
0
0
0
0
0
0
0
0
0
0
0
0
0
0
0
0
0
0
0
0
0
0
0
0
0
0
0
0
0
0
0
0
0
0
0
0
0
0
0
0
0
0
0
0
0
0
0
0
0
0
0
0
0
0
0
0
0
0
0
0
0
0
0
0
0
0
0
0
0
0
0
0
0
0
0
0
0
0
0
0
0
0
0
0
0
0
0
0
0
0
0
0
0
0
0
0
0
0
0
0
0
0
0
0
0
0
0
0
0
0
0
0
0
0
0
0
0
0
0
0
0
0
0
0
0
0
0
0
0
0
0
0
0
0
0
0
-3.90974e-18
1.37889e-17
-5.59474e-25
4.13617e-17
2.06767e-17
2.7591e-17
0
0
0
0
0
0
0
0
0
0
0
0
0
0
0
0
0
0
0
0
0
0
0
0
0
0
0
0
0
0
0
0
0
0
0
0
0
0
6.87821e-18
2.16541e-34
-1.00332e-18
1.59414e-25
3.44367e-17
-2.7574e-17
-3.84415e-18
4.13617e-17
-6.89263e-18
4.1374e-17
-1.99542e-18
-4.37103e-25
-6.88786e-17
4.99276e-34
-2.95488e-18
4.13398e-17
9.99199e-18
-6.88997e-17
0
0
0
0
0
0
0
0
0
0
0
0
0
0
0
0
0
0
0
0
0
0
0
0
0
0
0
0
0
0
0
0
0
0
0
0
0
1.14584e-18
-5.93514e-18
4.35531e-17
-4.84121e-20
-8.24235e-17
-2.74497e-17
5.50601e-17
-1.80783e-35
-1.96628e-18
2.0662e-17
2.51023e-33
-1.01424e-18
2.78704e-25
3.43554e-17
0
1.17094e-16
-1.15234e-20
-5.51029e-17
-3.07801e-35
9.63447e-19
4.13398e-17
9.99199e-18
-4.13414e-17
-6.2172e-20
4.38568e-24
-4.12339e-17
3.84844e-34
-9.0477e-21
-5.49737e-17
0
0
0
0
0
0
0
0
0
0
0
0
0
0
0
0
0
0
0
0
0
0
0
0
0
0
0
0
0
0
0
0
0
0
0
2.16334e-17
4.12299e-17
2.74452e-17
6.94919e-18
7.04241e-20
3.24215e-34
1.24057e-19
7.43589e-20
4.81255e-17
1.58306e-17
-3.7989e-18
-2.71114e-17
-2.49785e-34
3.31422e-19
2.05449e-17
-3.70302e-18
-2.73955e-17
1.48269e-34
1.0869e-19
-6.87815e-18
0
5.8958e-19
1.198e-23
5.8737e-13
-7.24921e-13
5.86459e-13
-7.26209e-13
0
0
2.86294e-18
-5.88288e-18
2.81273e-17
1.75368e-20
4.13085e-17
1.36846e-17
-8.24235e-17
-1.24344e-19
-5.49785e-17
-3.13007e-34
-1.37524e-17
-1.10003e-16
0
-5.5753e-24
8.38234e-13
-2.24001e-13
8.36904e-13
-2.24386e-13
0
-6.40843e-15
9.05702e-15
-7.35757e-15
7.74611e-15
-9.12911e-15
2.79446e-15
-1.04898e-14
2.4251e-15
0
0
0
0
0
0
0
0
0
0
0
0
0
0
0
0
0
0
0
0
0
0
0
0
0
0
0
0
0
0
0
0
0
-1.89743e-17
3.44959e-17
-2.7538e-17
2.06732e-17
1.39565e-17
-1.08538e-34
-5.9344e-18
4.11842e-17
3.74837e-18
-5.47901e-17
-4.06537e-34
1.39704e-17
2.07052e-17
0
-5.53388e-17
7.96739e-30
-2.93565e-11
-7.92501e-12
-2.94e-09
3.54524e-14
-4.46713e-13
2.3066e-08
2.13465e-13
2.33457e-08
-2.04906e-10
-2.0969e-14
-3.65101e-15
3.10273e-14
-3.81239e-15
-2.55913e-14
2.16793e-13
-3.80483e-14
3.22369e-13
3.22909e-14
8.40909e-30
1.10283e-13
1.12188e-12
2.28215e-08
-1.6156e-13
4.60566e-08
-6.38085e-14
-7.49773e-14
6.35287e-13
-4.43167e-14
3.7536e-13
0
-5.34016e-19
5.94837e-13
-7.34129e-13
5.93922e-13
-7.35427e-13
1.943e-14
0
0
-1.90466e-14
1.56113e-12
-1.1411e-19
2.4006e-14
1.60374e-16
-1.37061e-12
0
-9.00406e-16
2.23935e-12
2.34697e-14
-1.92964e-12
0
0
-5.62712e-17
6.9494e-18
1.39004e-17
-2.38311e-20
2.74452e-17
0
1.97278e-18
1.79791e-18
6.84504e-18
-9.88801e-18
-3.70286e-18
-2.94625e-33
0
2.24533e-22
2.0561e-17
-3.94821e-18
-1.36698e-17
-1.13826e-19
8.48871e-13
-2.26846e-13
8.47557e-13
-2.27241e-13
0
-6.41471e-15
9.04876e-15
-7.35388e-15
7.73719e-15
-9.13492e-15
2.78778e-15
-1.04863e-14
2.42168e-15
2.77261e-14
-1.14362e-19
-2.71715e-14
2.22782e-12
0
7.41864e-15
4.97113e-17
-4.2354e-13
-4.24243e-16
1.93173e-12
7.25788e-15
-5.96285e-13
-5.88264e-14
1.13965e-19
0
1.36255e-12
0
-7.27798e-14
2.51313e-13
0
1.94877e-10
-1.68416e-12
-8.39578e-14
1.13806e-19
1.94443e-12
-1.13119e-19
-2.24855e-14
-3.44008e-13
1.59798e-12
-5.20423e-13
0
0
0
0
0
0
0
0
0
0
0
0
0
0
0
0
0
0
0
0
0
0
0
0
0
0
0
0
0
0
0
7.66975e-18
2.39691e-20
-1.37142e-17
1.39713e-17
-1.39058e-17
-3.46617e-35
-1.73748e-18
-2.0758e-17
1.93142e-17
-5.50806e-17
-4.8798e-35
-1.3519e-19
6.84924e-18
1.59343e-17
-2.74638e-17
1.52735e-25
6.62094e-09
-5.18129e-12
2.06907e-08
1.14038e-10
2.2694e-08
1.44758e-08
-8.31079e-14
7.04181e-13
2.13458e-12
-1.65624e-10
-5.31051e-27
-6.45163e-09
5.39389e-10
2.08259e-09
-1.92584e-10
6.64513e-10
-1.41035e-08
-2.03417e-12
-1.03159e-09
-1.80117e-12
3.38391e-10
-9.74876e-20
-1.58621e-14
-2.99719e-14
-1.21004e-12
-1.11536e-19
-3.58822e-13
-2.81966e-13
-6.87203e-15
-2.0868e-30
-2.45735e-08
1.66237e-13
0
7.34305e-13
2.62978e-13
-4.27598e-30
-1.29798e-10
-2.1275e-13
0
2.99127e-09
2.26534e-08
2.22959e-19
-1.24948e-14
-2.45837e-14
-6.22742e-30
-4.90116e-15
-9.24698e-15
5.62202e-14
1.22248e-14
7.84504e-14
-2.14221e-13
1.86659e-19
-7.8734e-16
8.1278e-14
-1.42924e-14
-3.03608e-13
4.72926e-14
2.08273e-13
1.99447e-19
-7.33438e-13
9.86917e-12
1.90997e-12
6.50096e-11
1.3959e-30
2.71629e-08
-2.87492e-09
-9.64688e-20
1.95248e-13
-1.96367e-30
-1.57955e-13
9.96778e-20
-1.7549e-15
1.374e-14
2.7995e-14
2.28691e-14
-1.16453e-13
-9.17083e-14
0
6.03399e-14
-2.2541e-13
2.03505e-14
6.87834e-29
0
-1.95745e-14
1.55652e-12
-1.1411e-19
2.51432e-14
-1.37521e-12
0
2.24306e-12
2.41297e-14
-1.92393e-12
-3.10463e-09
1.63891e-26
0
2.92559e-09
3.56424e-11
0
1.80014e-13
4.09323e-16
-5.1669e-13
0
-2.27509e-15
2.28772e-08
1.35895e-13
-9.3371e-14
0
0
-1.89743e-17
2.07881e-17
-1.37242e-17
-6.95773e-18
-1.36739e-17
6.45674e-34
5.70042e-18
1.86772e-18
1.38826e-17
-4.06049e-18
1.51319e-19
0
-7.70093e-34
6.92217e-18
0
0
-3.64553e-14
2.53827e-08
-5.69685e-12
2.44817e-08
-1.49353e-13
8.28355e-13
2.10985e-14
-5.31985e-14
-7.37617e-14
6.24914e-13
-4.61542e-14
3.9104e-13
0
-2.8085e-12
-2.02743e-10
1.81084e-14
-1.78965e-12
2.40415e-08
-1.23809e-13
6.86604e-13
-3.19724e-09
-3.46401e-15
2.94327e-14
-2.53271e-14
-4.16135e-15
2.14559e-13
-3.82585e-14
3.24158e-13
3.52697e-14
2.90396e-14
-1.14362e-19
-2.79264e-14
2.22122e-12
-2.27811e-19
7.77027e-15
-4.24966e-13
1.93702e-12
7.46194e-15
-5.94525e-13
-5.87929e-14
9.46932e-29
0
1.35794e-12
-1.13379e-19
-7.27399e-14
-3.6677e-13
0
2.33011e-08
-1.67848e-12
-8.39092e-14
0
1.93784e-12
-1.13119e-19
-2.24726e-14
-3.43852e-13
1.58985e-12
-5.1868e-13
2.01658e-14
2.29517e-19
-3.35848e-14
1.84908e-13
-3.5753e-30
5.02531e-15
1.26414e-16
-2.50467e-14
-1.07346e-15
2.12136e-13
8.2611e-15
-2.18242e-14
1.13959e-19
0
-2.28039e-08
-2.99523e-13
0
2.06619e-13
-2.43868e-14
0
0
0
0
0
0
0
0
0
0
0
0
0
0
0
0
0
0
0
0
0
0
0
0
0
0
0
0
0
-2.35297e-17
3.45257e-17
-3.22395e-20
-6.86423e-18
-6.5248e-20
-1.23118e-33
-3.43012e-18
2.73984e-17
3.1084e-17
-2.73247e-17
-1.88994e-33
8.19091e-18
-2.76322e-17
8.19345e-18
-2.70797e-17
-5.4485e-26
-6.32343e-09
2.21684e-10
-2.33478e-08
-5.66889e-09
-2.33545e-08
-1.38253e-08
1.22423e-12
-4.31262e-10
-1.19986e-12
1.13236e-08
-1.66001e-26
9.36247e-11
-5.85313e-09
2.34498e-08
-5.74946e-09
2.32374e-08
1.98842e-10
4.94552e-13
1.17229e-08
9.83625e-13
1.14895e-08
-1.03601e-19
8.84082e-12
-1.73365e-12
2.82518e-08
5.32978e-31
-2.87261e-09
1.07338e-19
-7.20707e-09
3.28298e-13
2.12498e-26
-2.51128e-12
-2.65597e-13
1.0354e-19
5.18409e-15
2.64986e-14
-6.05045e-14
-8.60629e-14
-1.07212e-19
2.70084e-12
1.01453e-13
1.44124e-08
-3.79011e-13
-2.17154e-19
-9.87587e-12
6.82606e-09
-3.89093e-14
-2.80803e-08
2.10905e-26
2.41189e-12
4.19491e-13
-1.10161e-19
2.79503e-13
-2e-26
-2.26134e-13
0
-1.58048e-14
-2.5414e-12
-1.20237e-14
1.24577e-13
-1.36501e-08
1.64858e-13
-2.20119e-19
8.63757e-14
-3.22695e-13
0
6.37131e-13
-5.52109e-25
-3.8365e-14
4.50152e-14
-2.52216e-30
2.0998e-30
3.88786e-09
0
7.5865e-14
-7.09529e-30
-1.23031e-08
-8.327e-20
1.06493e-16
-1.7085e-30
-1.18657e-14
-9.06416e-16
4.86347e-14
0
-4.67174e-15
2.55823e-14
-5.37673e-20
1.1839e-14
-2.20803e-15
-9.56775e-15
-2.12799e-30
1.22515e-14
5.05828e-20
-7.81537e-30
5.37688e-20
3.65528e-15
-6.83216e-16
-2.59352e-14
5.78415e-15
-5.05766e-20
1.14349e-10
0
0
3.02317e-09
-2.30869e-08
0
1.69937e-14
-9.20722e-14
0
-2.28971e-08
7.31776e-14
-3.14329e-13
-1.70842e-09
-6.28233e-20
3.85987e-30
1.92235e-09
5.948e-20
-1.64708e-13
1.30941e-16
1.3568e-30
-7.25398e-16
-1.09159e-13
0
0
7.9925e-18
1.39035e-17
-1.85193e-32
-1.37371e-17
-1.37614e-17
1.99668e-35
1.18466e-17
-5.44251e-19
6.8164e-18
-1.91826e-17
1.62096e-17
-8.24605e-17
1.74464e-35
6.78201e-18
-5.49882e-17
2.32872e-26
-6.62086e-09
-6.45171e-09
5.45488e-10
2.57362e-08
-1.97344e-10
2.39843e-08
-1.44759e-08
-1.41035e-08
-2.10645e-12
-1.03157e-09
-1.79578e-12
3.38411e-10
-6.6974e-25
-1.94476e-12
4.55133e-08
1.13721e-10
2.26942e-08
-8.09216e-14
6.85478e-13
2.14232e-12
-1.65557e-10
0
3.26506e-15
-9.7241e-12
-5.60279e-13
6.24284e-14
0
-2.71627e-08
-2.25802e-08
1.9297e-19
3.24736e-15
1.96849e-13
0
5.35669e-14
-1.59265e-13
0
1.00818e-15
1.00057e-14
2.36449e-14
1.63347e-14
-8.47577e-14
-6.80379e-14
9.64255e-20
1.00269e-15
6.08186e-14
1.36157e-14
-2.27271e-13
0
-1.52845e-14
-9.63816e-13
-1.23623e-12
0
1.68498e-13
2.67031e-13
-6.97043e-15
0
-2.45734e-08
-5.01196e-09
9.33847e-20
2.50125e-13
0
-2.02358e-13
0
-3.52295e-10
4.72903e-08
0
-4.72418e-15
-9.68122e-15
4.81204e-14
-3.34439e-19
-1.25896e-14
-2.36028e-14
1.16702e-14
-1.83982e-13
8.21424e-14
9.33292e-20
7.72939e-14
-2.88787e-13
4.8197e-14
1.99948e-13
2.12115e-14
0
-3.51535e-14
2.57289e-13
0
5.24786e-15
-3.43858e-14
2.91264e-13
8.55806e-15
-3.038e-14
-2.34635e-24
0
2.29588e-08
4.95291e-13
-1.13922e-19
1.85872e-13
-2.19467e-14
-2.52015e-15
0
-1.04783e-17
0
-2.9713e-16
4.03911e-17
-3.42423e-16
1.88167e-18
-1.97919e-24
4.13557e-30
6.78406e-20
0
0
0
0
0
0
0
0
0
0
0
0
0
0
0
0
0
0
0
0
0
0
0
0
0
0
0
0
1.03422e-16
1.14074e-33
1.19882e-17
-1.384e-17
3.87591e-17
-1.36242e-17
5.1773e-33
1.15437e-17
6.81119e-18
-2.35198e-17
-4.13077e-17
-6.78145e-25
-8.11041e-18
5.43013e-09
3.89074e-17
1.18837e-08
-8.55063e-34
-1.95098e-17
3.43635e-17
4.03403e-17
-6.87284e-17
1.05493e-19
-3.2187e-12
-6.17212e-13
-3.66226e-10
0
8.87889e-13
1.07054e-19
6.91985e-09
-1.06489e-12
0
3.34445e-12
8.61504e-13
1.05406e-19
7.35881e-14
-1.9073e-13
-3.64833e-13
8.32662e-13
-1.06933e-19
-2.28381e-12
-3.29069e-13
-1.38351e-08
1.22943e-12
0
-4.99097e-12
-1.47594e-10
2.63621e-12
-6.34866e-10
0
6.31618e-10
2.34534e-08
1.08532e-19
-1.27828e-12
0
1.0342e-12
-1.08955e-19
-1.08632e-13
7.91327e-13
-2.81679e-13
5.24807e-13
3.13112e-10
1.28334e-12
-1.08428e-19
-3.95012e-13
1.47586e-12
0
4.45093e-13
6.21511e-11
-5.06908e-31
0
4.08697e-13
-5.57077e-30
-1.49059e-10
0
-3.01972e-15
1.46916e-14
-6.57718e-20
-1.42755e-14
5.75156e-14
-5.05221e-29
-3.70279e-14
1.80612e-14
2.5996e-14
1.66912e-13
8.39321e-31
-1.00157e-13
-1.44284e-13
-2.52523e-24
-5.92531e-30
-2.07867e-19
-1.14515e-14
5.5835e-15
8.05065e-15
8.51042e-14
-4.72809e-14
-6.81239e-14
8.47197e-20
1.16017e-10
0
5.34616e-30
1.66916e-09
0
-9.74896e-14
2.13497e-30
-4.55509e-14
0
0
3.88367e-17
-6.88031e-18
-1.38215e-17
-2.0625e-17
2.75994e-17
-1.26981e-34
3.43012e-18
1.59791e-17
-1.26752e-19
-2.34144e-17
-9.25964e-32
-5.49249e-17
-8.64564e-34
1.35875e-17
-5.48723e-17
7.36751e-27
6.32373e-09
-2.19614e-17
-8.18415e-12
-2.34478e-08
-5.73809e-09
-2.32369e-08
1.38256e-08
2.72968e-17
-7.28297e-14
6.16997e-13
9.27992e-13
1.14898e-08
5.4485e-26
2.21415e-10
-2.33476e-08
-5.6692e-09
-2.33547e-08
1.22922e-12
-4.31205e-10
-1.20054e-12
1.13236e-08
-5.5478e-24
-1.26106e-11
6.82595e-09
-3.83428e-14
-2.85313e-08
0
2.41189e-12
4.19044e-13
-1.10162e-19
7.20679e-09
2.79764e-13
0
2.43358e-12
-2.26358e-13
-1.08462e-19
-1.75667e-14
-2.5414e-12
-1.18424e-14
1.31298e-13
-1.36501e-08
1.64204e-13
-1.1006e-19
-2.62314e-12
8.64599e-14
-1.44124e-08
-3.23029e-13
-1.47269e-24
9.20465e-12
7.1294e-13
2.82518e-08
0
-2.26487e-08
-6.73702e-24
3.23793e-13
0
-2.61933e-13
-2.07075e-19
5.17219e-15
2.35304e-14
-6.0456e-14
-6.75745e-14
0
1.00045e-13
-3.73801e-13
-5.37443e-20
9.95683e-14
2.98296e-12
-1.393e-08
0
1.48803e-08
0
-1.94234e-13
0
1.10114e-08
-5.15094e-30
2.66121e-15
1.14797e-15
-8.41273e-15
-9.71663e-15
-4.1034e-30
4.63867e-15
-2.43332e-14
-8.32956e-20
1.93476e-13
-5.52109e-25
-3.41338e-14
4.1593e-14
0
2.11358e-30
2.01221e-09
-3.32363e-24
0
0
5.09977e-17
-1.16436e-30
-1.05572e-14
4.37512e-14
-4.38938e-16
3.8875e-20
-1.24684e-15
0
1.73517e-16
0
-2.95348e-16
-1.97295e-17
3.06692e-24
3.89394e-30
6.78406e-20
0
0
0
0
0
0
0
0
0
0
0
0
0
0
0
0
0
0
0
0
0
0
0
0
0
0
0
4.08708e-18
-1.40298e-34
-3.07116e-17
-2.7588e-17
-5.51235e-17
-1.09584e-21
-2.75691e-17
-4.07163e-33
-4.0096e-18
6.93336e-18
1.45993e-17
-4.09863e-17
-2.88122e-33
1.38067e-17
-5.50362e-17
0
-3.92868e-18
-1.53739e-12
-6.59234e-10
6.65421e-14
-1.39915e-13
3.90143e-13
-8.23975e-14
-1.59986e-18
-2.53003e-14
2.1442e-13
9.49867e-14
-4.32335e-14
2.47112e-13
-2.54581e-14
0
1.65958e-18
8.82917e-14
-1.09267e-13
8.84032e-14
-1.09107e-13
1.94648e-17
1.25981e-13
-3.37567e-14
1.26152e-13
-3.37102e-14
1.73264e-30
1.69364e-13
1.32138e-14
-1.37025e-13
0
-8.35796e-14
5.87681e-29
1.68999e-13
-4.81933e-14
0
-1.36731e-13
3.89921e-14
0
5.23487e-14
4.07675e-15
-1.9555e-13
-3.77783e-14
1.05494e-19
5.22273e-14
-1.49079e-14
-1.95122e-13
5.56309e-14
-1.10467e-19
-3.05549e-13
-1.58815e-13
2.47194e-13
0
4.06182e-13
0
-1.45026e-13
0
1.1732e-13
-1.10401e-19
-9.44192e-14
-4.90732e-14
3.52755e-13
2.69148e-13
-1.10106e-19
-4.48245e-14
1.67416e-13
1.77415e-29
-8.82225e-15
2.53559e-32
4.89354e-14
5.48462e-30
-2.73257e-15
2.31226e-14
0
0
0
1.03443e-16
-2.21113e-33
-1.62717e-19
3.66907e-18
-6.93142e-18
-1.51083e-17
-3.12875e-17
-2.7646e-17
-1.35968e-33
-1.43712e-19
-5.50022e-17
1.03472e-35
2.73413e-19
-1.97739e-17
3.43634e-17
-2.37828e-17
3.92843e-17
-1.33392e-17
-5.5746e-35
-2.24286e-17
-3.41502e-18
1.09084e-19
4.28885e-12
-8.98201e-12
-4.49668e-12
6.36202e-10
0
-6.33038e-10
-2.34503e-08
-2.47657e-24
-6.91974e-09
-1.30224e-12
0
-3.34797e-12
1.05357e-12
2.17908e-19
-1.08348e-13
1.79467e-14
-2.93211e-13
5.2318e-13
-1.5207e-13
1.35194e-12
-1.08434e-19
2.27648e-12
-4.02433e-13
1.38348e-08
1.5035e-12
1.05492e-19
-3.48353e-12
-6.21685e-13
-3.66939e-10
0
8.91499e-13
1.07058e-19
-1.0743e-12
0
8.69117e-13
1.05407e-19
7.60857e-14
-1.92119e-13
-3.78106e-13
8.37843e-13
2.13856e-19
-3.31986e-13
1.24027e-12
0
-4.21484e-14
2.05983e-14
2.37586e-14
1.71056e-13
0
-1.14239e-13
-1.31939e-13
-2.54121e-19
-4.08697e-13
0
1.49059e-10
-2.07867e-19
-1.3039e-14
6.3662e-15
7.36457e-15
9.10148e-14
-5.39404e-14
-6.2258e-14
1.69439e-19
1.42755e-14
-5.75156e-14
-5.81604e-20
4.45106e-13
6.21511e-11
0
-6.57382e-20
0
-5.81937e-20
-3.01521e-15
1.46758e-14
6.57716e-20
0
0
0
0
0
0
0
0
0
0
0
0
0
0
0
0
0
0
0
0
0
0
0
0
0
0
-2.07529e-17
7.32495e-33
1.58508e-17
2.28723e-17
6.79038e-18
2.2382e-17
-2.35983e-17
-6.89143e-17
1.03546e-32
-2.76941e-17
-6.88195e-18
0
-4.13772e-17
5.65081e-25
3.88914e-18
5.80827e-09
-4.66221e-13
7.80916e-12
5.90408e-09
7.77958e-18
4.66215e-13
-1.16165e-08
-1.17739e-08
1.16555e-12
2.7117e-33
7.11143e-18
-1.33736e-17
-2.50756e-14
2.12032e-19
0
5.89112e-14
-1.90848e-13
-2.02553e-19
-3.09929e-14
2.99987e-12
1.12766e-12
0
2.62362e-08
2.34099e-08
-7.28049e-14
2.35904e-13
-3.57767e-14
1.05879e-19
8.40672e-14
-2.7234e-13
1.01236e-19
-9.576e-15
-6.51143e-16
3.92428e-14
5.55134e-15
-2.20483e-13
-2.25016e-14
7.28916e-14
-1.56148e-13
0
0
1.27401e-13
1.07247e-19
-1.9299e-13
-1.29901e-11
-4.17621e-12
0
-9.80347e-10
-2.30449e-08
-1.57485e-13
-2.2283e-13
0
1.81808e-13
-1.07116e-19
-5.9642e-14
1.98017e-14
-1.37974e-13
-1.67712e-13
7.06832e-13
-4.86744e-14
0
-4.75685e-14
3.8501e-14
0
6.23785e-20
-3.40929e-14
0
2.75954e-14
4.21923e-20
-1.47086e-14
5.49481e-14
6.24193e-20
-1.05403e-14
3.93817e-14
1.06788e-19
-1.22703e-12
4.34531e-13
2.39645e-08
0
4.85005e-08
4.16555e-25
0
-1.06786e-19
-1.37147e-14
2.187e-14
7.45073e-14
-1.85124e-13
0
0
0
0
0
-3.98217e-18
-7.96434e-18
-3.11468e-17
-1.38672e-17
-9.67472e-17
6.91032e-18
-4.14092e-17
2.60262e-33
3.77037e-18
-2.07325e-17
-3.0636e-17
-4.12766e-17
2.63722e-33
3.42983e-17
-6.88387e-17
0
3.52713e-18
4.19293e-18
8.82757e-14
-1.09255e-13
8.83988e-14
-1.09107e-13
0
4.70611e-17
1.25972e-13
-3.37683e-14
1.26138e-13
-3.37148e-14
0
-3.88799e-12
-2.72417e-08
7.46929e-14
-6.53106e-12
1.29955e-10
-9.23931e-14
-2.78141e-14
2.35733e-13
1.06593e-13
-5.04346e-14
2.93142e-13
-2.85426e-14
1.10465e-19
-3.03992e-13
6.17609e-12
2.45926e-13
0
1.73907e-09
7.27819e-29
-1.87587e-13
-1.59978e-13
0
1.51751e-13
1.29423e-13
0
-9.39386e-14
-5.92666e-14
3.50949e-13
3.2615e-13
-1.10117e-19
-5.79649e-14
-4.94363e-14
2.16556e-13
1.84695e-13
1.00026e-19
1.74439e-13
-1.30679e-14
-1.41114e-13
0
-5.119e-14
-1.05537e-19
-6.69391e-14
0
5.4147e-14
1.99986e-19
5.39042e-14
-4.02305e-15
-2.01374e-13
-3.97854e-15
1.82354e-29
-2.06772e-14
7.72781e-14
1.59511e-29
-7.37919e-15
0
4.09576e-14
4.92699e-30
-2.28716e-15
1.93441e-14
0
0
0
0
0
0
0
0
0
0
0
0
0
0
0
0
0
0
0
0
0
0
0
0
7.21466e-18
0
-3.90632e-17
2.75416e-17
-4.14524e-17
-2.05324e-17
-2.74619e-17
-2.09577e-24
6.60754e-09
-6.30263e-09
5.67372e-09
2.00545e-12
-6.21629e-09
-2.86016e-12
1.44169e-08
-1.3783e-08
-8.25787e-13
-1.13479e-08
4.04279e-12
1.24339e-08
6.59949e-24
5.58122e-09
1.21778e-08
0
2.5339e-10
2.86113e-12
1.52804e-12
-1.53773e-25
-2.31922e-08
-2.21962e-19
-3.29483e-25
2.85787e-08
6.21068e-10
-1.07204e-11
9.89499e-12
1.08802e-19
-1.0434e-12
-2.68409e-13
-5.04604e-10
1.19495e-12
-2.21563e-19
-2.74527e-13
1.35698e-12
3.24193e-14
-2.87513e-13
-4.31701e-26
-2.85241e-08
-7.06643e-12
5.56797e-09
-4.12066e-13
-2.0462e-13
1.13461e-12
3.9999e-13
-4.72006e-14
1.04839e-12
-1.11358e-08
-6.32262e-14
5.35692e-13
-1.77871e-08
-7.93723e-20
0
-1.92906e-09
-4.8993e-20
1.51426e-13
-1.839e-13
0
2.79181e-08
-5.85159e-13
-3.75341e-14
-1.5878e-19
1.73154e-14
-4.9027e-20
-9.43975e-15
2.05495e-14
-1.05627e-13
-1.21342e-14
2.66564e-08
1.05285e-19
0
-2.49945e-08
-1.03321e-19
1.76467e-12
3.14753e-12
7.16888e-13
0
2.73366e-08
-3.69776e-09
3.02982e-13
-1.74264e-13
-1.05308e-19
-1.92505e-14
-1.03273e-19
-4.50192e-14
2.38863e-14
-3.36312e-15
-2.02376e-13
2.84734e-14
2.27565e-15
-2.97368e-24
0
1.11624e-29
0
0
0
0
0
-2.0753e-17
-8.19767e-33
-3.97596e-19
1.17065e-17
2.07287e-17
-2.26474e-17
0
-4.13776e-17
-2.3838e-33
3.32878e-18
6.95052e-17
-2.32352e-17
-4.12474e-17
-1.14189e-33
3.89256e-18
2.75185e-17
-1.47614e-17
-2.77837e-17
-1.03268e-24
5.83469e-09
-1.70946e-12
2.70018e-11
6.12802e-09
1.70946e-12
-1.16711e-08
-1.21396e-08
3.41894e-12
-1.51499e-13
2.14483e-19
0
-4.47167e-14
1.47792e-13
0
-1.87262e-13
2.99826e-11
8.64357e-12
0
2.83164e-08
-1.23578e-10
5.52234e-14
-1.82683e-13
-2.16205e-13
-2.14325e-19
-6.38053e-14
2.109e-13
1.0712e-19
-5.7869e-14
2.24445e-14
-1.40098e-13
-1.90245e-13
7.09935e-13
1.70667e-14
-5.64529e-14
-1.64495e-15
-1.06011e-19
0
-1.58207e-13
-1.01268e-19
-2.04439e-15
-8.22373e-12
-2.2169e-12
0
-5.26557e-08
-6.86041e-10
1.95544e-13
-2.35733e-15
1.0588e-19
-2.25762e-13
0
-6.24094e-16
-1.12691e-14
1.7725e-14
9.5522e-14
-7.48308e-14
6.04366e-14
-1.06772e-19
-9.57543e-13
3.82075e-12
-2.09787e-09
0
2.71908e-08
8.2717e-20
5.47187e-13
0
1.9078e-08
2.13566e-19
-1.47712e-14
7.04874e-15
8.60623e-14
-5.96636e-14
-3.49516e-30
4.19919e-16
-1.47019e-14
1.30674e-30
-4.40455e-14
3.56512e-14
0
6.23739e-20
0
3.9833e-31
-1.36177e-14
5.088e-14
-6.24044e-20
0
0
0
0
0
0
0
0
0
0
0
0
0
0
0
0
0
0
0
0
2.35951e-17
-4.37666e-22
-1.39756e-17
1.39443e-17
-1.37351e-17
-1.82396e-33
-1.94656e-17
1.96312e-17
3.11998e-21
2.28408e-17
0
-2.76231e-17
-2.77331e-33
1.70509e-19
2.0978e-17
-3.41502e-19
-5.74876e-17
1.21413e-25
5.42526e-13
6.72388e-09
-6.90375e-13
-1.10017e-12
0
1.68763e-12
9.73499e-13
0
-7.36834e-09
-1.08835e-12
0
-9.25026e-12
8.8052e-13
0
1.67656e-13
-1.39865e-12
-2.13356e-13
-8.30728e-13
-1.34464e-08
9.25311e-13
0
7.2608e-12
-3.36313e-13
1.47284e-08
1.25652e-12
0
-5.72462e-13
4.63125e-13
-3.14613e-14
3.51746e-13
-2.84579e-13
3.88855e-14
-1.76911e-13
6.60902e-13
-4.48773e-14
1.08696e-13
-4.06095e-13
1.20151e-14
-1.0974e-19
-1.23743e-12
-3.44769e-14
-2.92669e-08
5.03972e-29
1.91205e-13
0
1.05834e-28
-1.36043e-09
-5.65134e-12
-2.19378e-19
1.23612e-13
-1.06585e-14
-4.6843e-13
9.02783e-14
-1.1247e-19
2.67607e-13
-3.15794e-14
-1.09416e-19
-8.04155e-14
-1.01004e-13
3.96008e-13
0
4.95438e-13
2.13691e-19
5.01582e-15
1.07106e-13
0
2.25089e-13
-8.66504e-14
-2.1854e-19
-2.48505e-14
-3.12057e-14
1.95116e-13
2.44452e-13
1.06808e-19
1.55411e-15
3.30985e-14
6.5022e-14
-1.23657e-13
4.27892e-09
2.03307e-24
0
4.9367e-20
7.55316e-14
4.91816e-12
0
3.703e-08
1.9154e-14
-3.92157e-30
-4.93794e-20
2.26406e-15
1.79415e-15
-1.52185e-14
0
0
0
0
0
0
2.33792e-17
0
8.63589e-17
-6.41973e-18
-1.43729e-17
-1.36323e-17
-2.76821e-17
-2.58558e-24
-6.4259e-09
1.10243e-10
-1.40326e-08
2.17584e-10
3.18506e-24
2.17539e-10
5.86984e-09
8.60206e-10
-2.4356e-10
1.12772e-09
4.66798e-10
6.49623e-13
-1.17836e-08
2.6394e-12
5.54349e-10
8.03115e-27
2.74651e-08
-7.1875e-12
6.03048e-09
2.56552e-08
5.2804e-12
2.49289e-08
-2.44323e-12
-1.18917e-09
2.40434e-13
-2.83853e-14
-1.38537e-12
-1.19731e-08
-6.1963e-14
5.24935e-13
-4.51966e-14
3.83001e-13
0
7.35333e-09
-9.97384e-12
6.35962e-12
-1.99532e-25
1.04234e-11
-1.10988e-19
-1.0083e-25
2.28564e-08
-8.03003e-12
-3.26408e-19
-3.29562e-12
-2.70974e-13
-1.46961e-08
1.19952e-12
1.1077e-19
1.35032e-12
-2.88745e-13
-2.66571e-08
-1.05281e-19
0
2.38508e-08
2.48669e-08
1.03322e-19
-1.13347e-12
1.24634e-11
-1.89879e-14
0
5.67618e-08
1.05265e-13
-7.90637e-13
-4.19079e-13
-1.48491e-13
2.10604e-19
-1.03734e-14
-3.41212e-14
-2.73811e-29
-4.10403e-14
2.82775e-14
-5.86784e-15
-2.39615e-13
4.96926e-14
8.65377e-15
4.03416e-15
1.72973e-08
-7.93669e-20
0
-1.97239e-24
1.51072e-13
-2.79035e-12
0
-7.20545e-09
-5.08493e-14
0
-4.9028e-20
-9.54122e-15
2.16112e-15
-1.8257e-14
4.68007e-24
0
1.77958e-30
0
0
0
0
0
0
0
0
0
0
0
0
0
0
0
0
0
2.78043e-17
-6.69079e-35
-1.57982e-17
-7.88747e-18
-2.43364e-19
-2.81474e-17
1.92458e-34
4.95184e-19
-2.13402e-19
1.57979e-17
-4.18151e-17
-1.4179e-24
-6.35986e-09
2.14513e-11
2.67755e-08
-2.94645e-12
3.26347e-12
-4.80259e-08
2.13955e-10
-2.36633e-08
2.64141e-08
-1.39131e-08
-1.24336e-14
1.0541e-13
-1.05623e-14
-1.09532e-14
8.94743e-14
9.27708e-14
-1.81178e-12
-4.57384e-10
4.17256e-24
-6.52733e-09
6.46958e-09
2.43545e-08
2.48456e-10
2.3879e-08
-1.42435e-08
-5.15469e-12
-1.28874e-08
6.25864e-13
-5.15312e-10
0
4.55153e-13
-5.23833e-12
-1.42453e-12
-3.68207e-13
0
-2.71695e-08
-5.05445e-11
1.08981e-19
-3.79353e-13
0
3.06901e-13
-1.08846e-29
1.40632e-13
-1.63973e-14
-1.85237e-14
-5.25435e-13
1.38935e-13
5.43882e-14
-2.17841e-19
-1.17232e-13
4.37971e-13
2.52045e-13
-1.05153e-19
0
9.42406e-14
-2.13034e-13
-1.11372e-19
3.11536e-13
-1.73415e-12
0
2.26085e-08
-1.16491e-13
2.63327e-13
3.59688e-13
0
1.34483e-13
-3.04003e-13
1.11063e-19
9.62724e-14
2.63506e-14
-1.84284e-14
-3.59969e-14
8.13624e-14
0
1.70451e-12
-2.68277e-08
0
-2.20211e-19
0
-1.31716e-13
1.62902e-13
8.15462e-20
2.06993e-14
-1.75514e-13
1.10049e-19
-2.34385e-13
5.03057e-14
-1.04814e-19
-3.86382e-13
2.18516e-12
-1.51309e-09
0
2.41598e-08
-6.83985e-20
-4.86714e-13
0
-1.53742e-08
-2.28914e-29
-6.95376e-15
7.61882e-15
4.54837e-14
-6.45371e-14
-6.83863e-20
1.82866e-14
-7.65772e-14
0
0
0
0
0
0
8.64263e-17
1.39443e-17
2.7682e-17
-2.76699e-17
-1.39756e-17
8.83873e-34
1.94661e-17
1.54308e-17
3.51843e-17
-5.54531e-17
1.37921e-31
-2.70862e-17
-9.9256e-35
-4.48491e-18
-2.57862e-21
0
1.48168e-18
0
7.06002e-09
5.9583e-12
-2.31628e-14
3.40753e-13
-2.75681e-13
2.86088e-14
4.63124e-13
-5.72456e-13
-4.69659e-12
-1.41152e-08
-3.30511e-14
1.05294e-13
-3.9341e-13
8.84149e-15
6.60904e-13
-1.76909e-13
-1.08402e-19
1.49212e-11
-2.41164e-10
-6.97015e-13
2.78372e-08
0
-1.26764e-12
9.87908e-13
2.19182e-19
-1.09301e-12
0
8.84306e-13
-1.08321e-19
1.69342e-13
1.5381e-12
-2.154e-13
-8.45331e-13
4.81273e-10
9.35755e-13
7.84456e-25
-3.37763e-13
1.26192e-12
-1.09422e-19
-1.39036e-11
-9.1907e-14
-2.84507e-08
0
4.97509e-13
1.06861e-19
8.76618e-14
-6.99676e-12
0
-7.09084e-14
-2.75804e-08
-2.25031e-19
1.7626e-12
3.59177e-12
-5.76052e-29
-1.41635e-09
2.50644e-08
6.64533e-25
-2.35643e-14
-2.8405e-14
2.01682e-13
2.36859e-13
-3.1176e-29
2.70779e-14
2.43131e-15
-1.01204e-13
7.0881e-14
-1.12463e-19
-1.29998e-13
-3.561e-14
5.16988e-13
3.01703e-13
-3.86374e-24
2.42915e-12
-2.81002e-29
2.19445e-08
1.09702e-19
-1.53798e-14
1.3028e-13
-1.20729e-08
-5.10107e-25
0
2.70373e-25
9.34004e-14
-8.84799e-13
0
1.82643e-10
4.28064e-09
2.90566e-24
4.93754e-20
-1.04195e-12
6.67662e-16
-5.62928e-15
0
0
0
0
0
0
0
0
0
0
0
0
0
0
3.89876e-17
2.03138e-18
8.60269e-17
-1.96802e-19
-4.12193e-17
-6.32587e-18
2.89091e-19
-4.64156e-25
-2.3533e-17
-5.7807e-09
3.23568e-17
-1.26122e-08
-8.89319e-34
2.73818e-17
-2.71182e-17
-8.77811e-20
-3.11283e-12
-2.34353e-12
1.80022e-13
2.17608e-19
-1.13904e-13
-4.06293e-12
1.92514e-10
0
1.83208e-08
-2.1365e-08
0
6.89327e-09
3.33838e-13
0
1.83811e-12
-2.70062e-13
0
2.65221e-08
-2.73558e-08
1.08804e-19
2.10114e-14
2.4558e-15
-8.77903e-20
-3.42619e-14
-3.34686e-16
5.56395e-14
-7.11403e-14
-2.08378e-14
8.62288e-14
2.82073e-15
-2.16499e-13
1.00934e-19
-1.76295e-12
1.03152e-13
-1.37858e-08
-3.85405e-13
1.10174e-19
-8.42332e-12
7.14093e-09
-3.60406e-13
-1.02821e-09
0
4.75422e-12
8.8639e-13
1.08967e-19
-7.22066e-14
0
5.8433e-14
0
-1.01066e-13
-5.34914e-12
-1.11357e-13
5.68541e-13
-1.42794e-08
5.99903e-13
-1.08889e-19
-2.23176e-14
8.3385e-14
-6.76412e-20
1.67043e-13
-1.51159e-12
-1.35188e-13
0
-1.15414e-08
1.04385e-19
1.91689e-13
0
-1.55114e-13
0
5.163e-14
3.7665e-15
-1.92919e-13
-3.1849e-14
0
5.9277e-14
-2.21379e-13
2.06751e-19
0
-1.12839e-13
8.80475e-14
-6.89393e-20
-1.14564e-13
2.7238e-14
-7.07675e-26
0
-2.3202e-30
5.16226e-24
0
3.48838e-30
0
0
0
0
0
0
0
2.72212e-17
1.73842e-34
1.57982e-17
1.57925e-17
2.76626e-17
2.43364e-19
1.57979e-17
-2.78767e-17
-3.71362e-34
6.18659e-18
-2.81474e-17
-9.22619e-25
-7.99393e-18
-6.52722e-09
6.46895e-09
2.43535e-08
-1.02794e-11
2.38805e-08
-2.65416e-17
-1.42435e-08
-4.98429e-12
-1.28873e-08
-4.33016e-14
3.66876e-13
6.90292e-30
-4.32872e-14
2.40002e-13
3.11071e-13
-3.68532e-12
-2.25145e-08
-1.59088e-11
-2.36647e-08
-2.6414e-08
-1.33798e-14
1.13318e-13
-9.2887e-15
-1.43834e-14
7.87178e-14
-1.18777e-14
1.00661e-13
1.21869e-13
2.66297e-13
1.05156e-19
0
-1.96499e-13
1.08083e-13
2.22727e-19
3.29172e-13
7.05591e-14
0
2.40353e-13
2.42896e-13
-1.33598e-13
0
0
3.68002e-13
3.06898e-13
-4.54897e-13
-3.79346e-13
3.80021e-13
4.44056e-30
-2.80431e-13
1.54236e-13
1.11062e-19
1.01715e-13
2.18078e-14
1.04391e-14
7.50492e-14
-4.12867e-14
-2.1784e-19
5.25157e-13
4.37971e-13
-1.40554e-13
-1.17232e-13
1.06422e-19
-4.09934e-14
-5.71254e-14
0
2.27236e-13
-1.52944e-14
-1.06385e-19
-1.26636e-14
-1.7644e-14
1.0732e-13
4.69073e-14
2.66875e-24
-6.46235e-13
1.30141e-12
-1.51229e-09
0
2.45896e-08
-6.83799e-20
-2.16915e-13
-5.67289e-24
-4.42993e-12
-9.01055e-13
0
-1.53693e-08
0
-2.68285e-08
-2.47422e-08
-1.04805e-19
-2.91868e-15
8.61005e-15
2.67415e-14
-7.29466e-14
0
1.73174e-14
-1.91908e-29
-1.25599e-14
3.07897e-14
-6.96151e-14
1.06445e-13
-1.17521e-13
0
0
-8.15498e-20
0
0
0
0
0
0
0
0
0
0
0
3.51217e-17
-4.13714e-34
2.3911e-19
7.75065e-18
2.80841e-17
9.59022e-19
-6.06252e-17
-1.28983e-17
8.4653e-34
4.01441e-17
2.82657e-17
3.09716e-17
-7.03145e-17
0
-4.71218e-17
-3.25736e-12
-5.63247e-10
1.62004e-13
-4.34255e-12
2.37481e-08
-2.00182e-13
3.22568e-17
-5.07922e-14
4.30361e-13
2.31188e-13
-7.69076e-14
3.60008e-13
-6.1853e-14
0
6.84149e-18
-4.10356e-17
8.96604e-24