/*--------------------------------*- C++ -*----------------------------------*\
| =========                 |                                                 |
| \\      /  F ield         | OpenFOAM: The Open Source CFD Toolbox           |
|  \\    /   O peration     | Version:  5.x                                   |
|   \\  /    A nd           | Web:      www.OpenFOAM.org                      |
|    \\/     M anipulation  |                                                 |
\*---------------------------------------------------------------------------*/
FoamFile
{
    version     2.0;
    format      ascii;
    class       volScalarField;
    location    "0.1";
    object      nut;
}
// * * * * * * * * * * * * * * * * * * * * * * * * * * * * * * * * * * * * * //

dimensions      [0 2 -1 0 0 0 0];

internalField   nonuniform List<scalar> 
12160
(
1.10419e-09
1.21129e-09
4.71357e-09
2.467e-09
5.33857e-09
4.66703e-09
2.66148e-09
5.80626e-09
5.50794e-09
3.46323e-09
4.89645e-09
1.10243e-08
5.90786e-09
4.77245e-09
3.64093e-09
6.31749e-09
1.1868e-08
1.07652e-08
5.34332e-09
5.11177e-09
2.65221e-09
9.96028e-09
2.14542e-08
1.21477e-08
9.28911e-09
5.96155e-09
4.3444e-09
2.17532e-09
1.45412e-08
2.70856e-08
2.13691e-08
1.15798e-08
9.09973e-09
5.30158e-09
3.32552e-09
1.81166e-09
2.13833e-08
4.27987e-08
2.7553e-08
1.92417e-08
1.28809e-08
8.33551e-09
5.33329e-09
5.97204e-09
1.78652e-09
3.13724e-08
6.12793e-08
4.31801e-08
2.61941e-08
1.9848e-08
1.23757e-08
6.66933e-09
1.21367e-08
2.01381e-09
9.26664e-10
4.58351e-08
8.95183e-08
6.19136e-08
4.03685e-08
2.83572e-08
1.83292e-08
1.24036e-08
4.04789e-08
5.61527e-09
5.0676e-09
8.21167e-09
6.6661e-08
1.30207e-07
9.04081e-08
5.84189e-08
4.30089e-08
2.73033e-08
1.59899e-08
2.10406e-08
4.88823e-09
3.28587e-09
1.39041e-09
3.32693e-09
9.64814e-08
1.8872e-07
1.31446e-07
8.55641e-08
6.2368e-08
4.05899e-08
2.56269e-08
1.42591e-08
9.75071e-09
6.96031e-09
3.74632e-09
6.98526e-09
3.57861e-09
1.38799e-07
2.72409e-07
1.90418e-07
1.2474e-07
9.1285e-08
5.92611e-08
3.71121e-08
1.17261e-08
1.3098e-08
7.04122e-09
3.3361e-09
5.55139e-09
8.82568e-09
3.98205e-09
1.38799e-07
3.91521e-07
2.74695e-07
1.81111e-07
1.32972e-07
8.67362e-08
5.45307e-08
1.07104e-08
1.94908e-08
1.0971e-08
7.41859e-09
6.34241e-09
8.00011e-09
1.92847e-08
4.25093e-09
1.38799e-07
5.59989e-07
3.94514e-07
2.61769e-07
1.92883e-07
1.26284e-07
7.98341e-08
1.02894e-08
2.73338e-08
1.08102e-08
9.92198e-09
1.05383e-08
7.7822e-09
9.97084e-09
3.98687e-08
1.38799e-07
7.97568e-07
5.63838e-07
3.76532e-07
2.78524e-07
1.83018e-07
1.16325e-07
1.02545e-08
3.71168e-08
1.08125e-08
1.48899e-08
1.20238e-08
1.13894e-08
8.39136e-09
1.48365e-08
1.38799e-07
1.12454e-06
8.02582e-07
5.38794e-07
4.00318e-07
2.63996e-07
1.68692e-07
1.05308e-08
4.75132e-08
1.05964e-08
2.18862e-08
1.74381e-08
1.24903e-08
1.1703e-08
1.16333e-08
1.38799e-07
1.57541e-06
1.13255e-06
7.67532e-07
5.72513e-07
3.78903e-07
2.4352e-07
1.11273e-08
5.46624e-08
1.05808e-08
3.19288e-08
2.4796e-08
1.77682e-08
1.27068e-08
1.58482e-08
1.38799e-07
2.20144e-06
1.59009e-06
1.08496e-06
8.15439e-07
5.41109e-07
3.49945e-07
1.21225e-08
5.66109e-08
1.07975e-08
4.76468e-08
3.53197e-08
2.47757e-08
1.80102e-08
1.71132e-08
1.38799e-07
3.02467e-06
2.23461e-06
1.52748e-06
1.1536e-06
7.69459e-07
5.00303e-07
1.36184e-08
5.44942e-08
1.13452e-08
7.29629e-08
5.06447e-08
3.52291e-08
2.4944e-08
2.41558e-08
1.38799e-07
4.02891e-06
3.08386e-06
2.1543e-06
1.62921e-06
1.08694e-06
7.12317e-07
1.57514e-08
5.16003e-08
1.23431e-08
1.11034e-07
7.31324e-08
5.07394e-08
3.54255e-08
3.33207e-08
1.38799e-07
5.30133e-06
4.16873e-06
2.98645e-06
2.30345e-06
1.53512e-06
1.00822e-06
1.87741e-08
5.05231e-08
1.38341e-08
1.68537e-07
1.05596e-07
7.37805e-08
5.09811e-08
4.7265e-08
1.38799e-07
6.76079e-06
5.58331e-06
4.09109e-06
3.22355e-06
2.16048e-06
1.43038e-06
2.29485e-08
5.17934e-08
1.59581e-08
2.39092e-07
1.51697e-07
1.07319e-07
7.39781e-08
6.79641e-08
1.38799e-07
8.12314e-06
7.26153e-06
5.57533e-06
4.50187e-06
3.01661e-06
2.02889e-06
2.8795e-08
5.56755e-08
1.89445e-08
2.76325e-07
2.07678e-07
1.56366e-07
1.07028e-07
9.84657e-08
1.38799e-07
8.94389e-06
8.85524e-06
7.40546e-06
6.35585e-06
4.21206e-06
2.86282e-06
3.69169e-08
6.1728e-08
2.31317e-08
2.90796e-07
2.6053e-07
2.24277e-07
1.5442e-07
1.42062e-07
1.38799e-07
8.9779e-06
9.79542e-06
9.28781e-06
8.91073e-06
5.8838e-06
4.11544e-06
4.76736e-08
7.35932e-08
2.89488e-08
3.16802e-07
3.10238e-07
2.97126e-07
2.17482e-07
2.04185e-07
1.38799e-07
8.10955e-06
9.74522e-06
1e-05
1e-05
8.15421e-06
6.06624e-06
6.28242e-08
8.83704e-08
3.70759e-08
3.36577e-07
3.50895e-07
3.76504e-07
2.85115e-07
2.8609e-07
1.38799e-07
6.756e-06
8.66372e-06
1e-05
1e-05
1e-05
9.29497e-06
8.44595e-08
1.06465e-07
4.82746e-08
4.29219e-07
3.81682e-07
4.41891e-07
3.63057e-07
3.7463e-07
1.38799e-07
5.35329e-06
7.07894e-06
9.27774e-06
9.99999e-06
1e-05
1e-05
1.17895e-07
1.28937e-07
6.38368e-08
5.0947e-07
4.19204e-07
4.87751e-07
4.30782e-07
4.78323e-07
1.38799e-07
4.14381e-06
5.52838e-06
7.44134e-06
9.99999e-06
9.99999e-06
9.99999e-06
1.761e-07
1.55254e-07
8.59203e-08
6.10503e-07
4.8054e-07
5.38934e-07
4.8084e-07
5.69464e-07
1.38799e-07
3.17645e-06
4.22529e-06
5.7008e-06
8.94148e-06
1e-05
9.99999e-06
3.04754e-07
1.83861e-07
1.1877e-07
7.29555e-07
5.61059e-07
5.90224e-07
5.33483e-07
6.37016e-07
1.38799e-07
2.42866e-06
3.20949e-06
4.2911e-06
6.45886e-06
7.89908e-06
9.99999e-06
8.25058e-07
2.12168e-07
1.70995e-07
8.76249e-07
6.65365e-07
6.54109e-07
5.92119e-07
7.08442e-07
1.38799e-07
1.85367e-06
2.43791e-06
3.22305e-06
4.67855e-06
5.78302e-06
8.949e-06
1.54542e-06
2.38022e-07
2.65552e-07
1.0714e-06
8.01286e-07
7.71388e-07
6.80241e-07
7.82766e-07
1.38799e-07
1.41337e-06
1.85469e-06
2.42961e-06
3.42887e-06
4.21422e-06
5.93868e-06
4.28772e-07
2.51881e-07
4.55771e-07
1.41732e-06
1.00672e-06
1.00388e-06
8.16893e-07
9.02738e-07
1.38799e-07
1.07935e-06
1.41404e-06
1.84049e-06
2.54972e-06
3.10065e-06
4.12494e-06
2.47706e-07
2.4802e-07
5.78939e-07
1.84226e-06
1.24553e-06
1.48153e-06
1.07335e-06
1.11309e-06
1.38799e-07
8.25928e-07
1.08111e-06
1.39964e-06
1.91939e-06
2.31206e-06
2.9655e-06
1.7113e-07
2.31643e-07
3.79514e-07
1.81435e-06
1.35906e-06
2.31588e-06
1.64851e-06
1.53349e-06
1.38799e-07
6.36254e-07
8.28372e-07
1.06883e-06
1.45714e-06
1.74484e-06
2.1855e-06
1.26793e-07
2.05052e-07
2.41396e-07
1.58128e-06
1.25567e-06
2.33484e-06
2.80229e-06
2.62256e-06
1.38799e-07
4.91322e-07
6.38274e-07
8.18729e-07
1.11205e-06
1.32723e-06
1.63924e-06
9.73469e-08
1.75631e-07
1.67875e-07
1.34435e-06
1.06721e-06
1.60481e-06
2.86265e-06
7.59473e-06
1.12121e-07
3.84308e-07
4.92847e-07
6.30215e-07
8.51503e-07
1.01389e-06
1.24187e-06
7.61014e-08
1.46646e-07
1.23398e-07
1.13017e-06
8.8733e-07
1.19376e-06
1.96995e-06
6.82876e-06
2.96315e-07
7.58805e-08
3.84755e-07
4.86627e-07
6.54842e-07
7.76771e-07
9.45946e-07
6.02436e-08
1.21261e-07
9.39186e-08
9.62659e-07
7.77619e-07
1.03737e-06
1.47771e-06
3.01622e-06
2.97271e-07
2.02506e-07
4.5455e-08
3.79194e-07
5.05837e-07
5.96768e-07
7.23132e-07
4.84108e-08
1.01401e-07
7.38046e-08
8.16393e-07
7.00032e-07
9.4439e-07
1.24525e-06
1.93024e-06
2.94006e-07
2.02789e-07
1.21502e-07
2.77848e-08
3.93592e-07
4.60943e-07
5.54865e-07
3.96986e-08
8.76302e-08
5.97216e-08
6.58529e-07
6.86951e-07
9.27067e-07
1.15546e-06
1.58406e-06
3.06411e-07
2.00273e-07
1.21723e-07
7.39987e-08
1.75927e-08
3.57951e-07
4.28775e-07
3.33814e-08
7.85735e-08
4.93296e-08
5.00555e-07
6.51989e-07
9.51518e-07
1.14528e-06
1.50332e-06
2.79561e-07
2.08123e-07
1.20246e-07
7.42923e-08
4.66651e-08
1.14644e-08
3.32755e-07
2.88201e-08
7.3285e-08
4.13534e-08
3.97382e-07
5.3071e-07
8.64674e-07
1.13563e-06
1.6029e-06
2.60939e-07
1.90514e-07
1.25201e-07
7.35793e-08
4.70133e-08
3.00983e-08
7.6591e-09
2.54432e-08
7.01222e-08
3.51276e-08
3.47272e-07
4.05819e-07
6.34871e-07
9.21014e-07
1.78383e-06
2.3114e-08
1.76869e-07
1.14255e-07
7.67887e-08
4.67592e-08
3.05811e-08
1.98316e-08
5.19966e-09
6.92029e-08
3.01391e-08
3.16863e-07
3.24808e-07
4.4072e-07
6.19187e-07
1.46269e-06
6.62626e-08
1.96252e-08
1.06429e-07
7.02439e-08
4.89769e-08
3.06867e-08
2.03805e-08
1.29358e-08
3.61424e-09
2.63664e-08
2.81217e-07
2.68492e-07
3.2557e-07
4.16319e-07
8.93024e-07
2.36075e-08
6.25119e-08
1.7488e-08
6.56058e-08
4.497e-08
3.23521e-08
2.07577e-08
1.38654e-08
8.74388e-09
2.43513e-09
2.43267e-07
2.25424e-07
2.56307e-07
3.03611e-07
5.45856e-07
2.03105e-07
1.98688e-08
5.76781e-08
1.67002e-08
4.21617e-08
2.99304e-08
2.21369e-08
1.45403e-08
9.47007e-09
5.40565e-09
2.47127e-09
1.96987e-07
2.17183e-07
2.43095e-07
3.84975e-07
1.75622e-07
1.42551e-07
1.77827e-08
4.8612e-08
1.71347e-08
2.82004e-08
2.07667e-08
1.57725e-08
1.0332e-08
7.11202e-09
2.51834e-09
2.69021e-09
1.99674e-07
2.13551e-07
3.06481e-07
1.86198e-07
1.30695e-07
8.82049e-08
1.69099e-08
3.84941e-08
1.90007e-08
1.96912e-08
1.51185e-08
1.16272e-08
8.28724e-09
3.6268e-09
2.24524e-09
3.06283e-09
1.74506e-09
2.01491e-07
2.75403e-07
1.89326e-07
1.4055e-07
8.49564e-08
5.58304e-08
1.67717e-08
3.01376e-08
2.34148e-08
1.44332e-08
1.16313e-08
9.39979e-09
5.24052e-09
3.51074e-09
3.97759e-09
8.49826e-09
5.10013e-09
1.32822e-09
2.687e-07
2.53323e-07
1.4061e-07
9.01183e-08
5.6262e-08
3.78222e-08
1.7129e-08
2.46444e-08
3.44842e-08
1.1192e-08
9.77734e-09
7.01128e-09
5.06944e-09
6.13109e-09
7.9705e-09
1.22883e-08
1.16934e-08
8.09197e-09
1.43075e-09
1.87495e-07
8.85881e-08
5.82711e-08
3.9506e-08
2.76322e-08
1.78893e-08
2.13111e-08
7.80005e-08
9.28699e-09
8.36835e-09
6.59342e-09
7.62494e-09
8.24713e-09
8.81059e-09
7.84542e-09
1.06475e-07
1.66409e-08
9.5522e-09
1.53277e-09
1.18842e-07
5.75227e-08
3.97436e-08
2.94714e-08
2.17871e-08
1.8732e-08
1.8919e-08
1.72854e-07
8.12726e-09
8.91164e-09
8.29397e-09
9.14883e-09
8.84258e-09
1.10744e-08
1.30004e-08
1.27813e-08
2.23436e-08
1.29075e-08
9.30376e-09
1.65589e-09
7.69155e-08
4.01765e-08
2.92786e-08
2.33962e-08
1.83063e-08
1.87811e-08
1.68798e-08
5.05784e-08
7.72935e-09
1.08498e-08
9.24038e-09
9.65839e-09
1.5789e-08
4.97408e-09
2.06137e-09
5.3759e-09
1.67008e-08
1.47534e-08
1.06976e-08
8.94414e-09
1.80403e-09
5.3384e-08
3.02198e-08
2.34969e-08
1.96892e-08
1.62641e-08
1.69766e-08
1.51791e-08
3.55467e-08
8.15642e-09
1.28822e-08
9.52081e-09
1.60544e-08
6.47077e-09
7.2587e-09
8.70911e-10
4.8181e-09
1.02105e-09
2.18735e-10
2.18708e-10
6.26915e-09
1.29938e-08
1.13389e-08
9.44171e-09
8.5536e-09
1.98695e-09
4.02307e-08
2.45612e-08
2.03146e-08
1.74781e-08
1.50811e-08
1.39277e-08
1.43832e-08
3.48294e-08
8.50964e-09
1.40707e-08
1.15982e-08
8.46767e-09
7.05028e-09
9.22339e-10
4.33442e-10
3.86684e-10
3.61312e-09
4.63831e-10
1.73566e-10
1.74312e-10
3.86069e-10
2.49504e-10
2.50824e-10
1.11739e-08
9.7397e-09
9.55808e-09
8.68525e-09
8.21733e-09
2.21747e-09
3.30464e-08
2.13467e-08
1.87527e-08
1.64713e-08
1.44972e-08
1.09222e-08
1.27654e-08
3.72731e-08
8.67846e-09
1.68766e-08
8.03345e-09
1.92415e-08
1.67586e-09
2.23413e-10
2.23758e-10
4.02473e-10
4.05733e-10
2.83725e-10
3.19607e-10
5.6513e-09
1.99155e-09
2.82949e-10
2.20294e-10
2.19303e-10
3.10244e-10
4.02189e-10
3.9445e-10
1.01289e-08
8.21214e-09
8.67684e-09
8.15788e-09
7.96106e-09
2.5138e-09
2.90317e-08
1.9752e-08
1.84091e-08
1.64739e-08
1.46434e-08
8.80313e-09
1.16416e-08
4.26051e-08
7.97572e-09
1.05468e-08
9.31944e-09
1.89402e-09
2.96268e-10
2.97207e-10
3.14895e-10
3.1541e-10
3.74545e-10
3.7378e-10
2.90484e-10
2.92525e-10
3.111e-10
2.45183e-10
4.5239e-10
2.36154e-10
4.3818e-10
5.8702e-09
1.15819e-09
2.01084e-10
2.01043e-10
2.48152e-10
2.48893e-10
3.03395e-10
2.9754e-10
2.91395e-10
2.45543e-10
4.42776e-10
2.44618e-10
4.44646e-10
2.47791e-10
4.72862e-10
1.71771e-10
3.76244e-10
2.44816e-10
4.90895e-10
1.75423e-10
3.76907e-10
8.68e-09
7.44509e-09
7.8987e-09
7.82497e-09
7.79037e-09
2.9027e-09
2.72252e-08
1.96357e-08
1.92377e-08
1.72176e-08
1.39093e-08
7.44827e-09
1.09378e-08
3.65748e-08
7.57915e-09
6.0427e-09
1.92372e-09
3.59619e-10
3.60253e-10
4.04821e-10
4.02675e-10
3.0824e-10
3.02758e-10
2.95373e-10
2.86853e-10
5.58071e-10
4.35676e-10
3.49197e-10
4.91067e-10
3.14952e-10
2.51995e-10
4.43678e-10
5.55834e-10
3.50059e-10
4.87414e-10
3.16171e-10
2.50386e-10
4.22658e-10
2.68923e-10
4.18108e-10
2.62432e-10
4.13368e-10
2.71092e-10
4.16433e-10
2.64657e-10
2.29568e-10
5.05758e-10
2.35944e-10
5.90213e-10
6.37263e-10
3.82253e-10
6.44731e-10
3.97857e-10
5.16182e-09
1.23623e-09
2.60522e-10
2.60684e-10
2.27775e-10
2.27352e-10
5.10742e-10
5.01624e-10
4.56594e-10
4.54131e-10
2.34128e-10
4.94441e-10
2.44402e-10
5.91222e-10
2.23614e-10
1.03103e-09
1.85058e-10
4.86218e-10
2.23238e-10
9.13309e-10
1.88625e-10
5.18892e-10
6.01212e-10
3.78944e-10
6.1846e-10
4.07211e-10
5.76153e-10
3.78153e-10
5.64251e-10
3.78059e-10
1.07948e-08
7.14941e-09
7.51947e-09
7.64572e-09
7.69281e-09
3.42459e-09
2.76953e-08
2.12258e-08
2.15098e-08
1.64641e-08
1.53707e-08
5.78244e-09
9.38242e-09
2.20515e-08
3.83668e-09
1.95929e-09
3.41142e-10
3.40775e-10
3.30764e-10
3.31026e-10
2.91012e-10
2.84121e-10
3.38366e-10
3.29303e-10
4.24699e-10
2.81245e-10
4.27538e-10
2.84575e-10
4.11455e-10
2.79922e-10
4.10211e-10
2.84564e-10
4.04791e-10
2.88147e-10
4.12938e-10
2.82552e-10
3.9217e-10
2.88134e-10
3.99403e-10
2.81695e-10
4.18391e-10
3.14107e-10
5.14944e-10
6.01011e-10
3.93917e-10
6.42828e-10
4.18086e-10
3.12455e-10
6.22038e-10
5.17735e-10
3.92398e-10
6.47444e-10
3.82702e-10
6.18728e-10
3.76453e-10
6.30592e-10
3.77564e-10
6.2705e-10
3.74366e-10
6.33138e-10
5.67262e-10
4.24317e-10
6.4485e-10
4.48772e-10
5.73625e-10
2.9972e-10
5.3924e-10
3.29754e-10
3.81696e-09
1.93007e-09
2.05934e-10
2.02811e-10
2.29944e-10
2.29779e-10
3.76683e-10
3.46719e-10
3.63234e-10
3.4048e-10
5.26808e-10
2.09621e-10
5.41046e-10
2.15796e-10
5.32296e-10
2.10819e-10
5.43276e-10
2.16563e-10
3.34195e-10
9.56216e-10
3.36959e-10
4.42952e-10
3.06337e-10
3.11057e-10
3.30618e-10
9.43796e-10
3.3348e-10
4.35842e-10
3.05066e-10
3.11576e-10
5.52713e-10
4.19108e-10
6.15974e-10
4.61191e-10
5.59354e-10
4.32968e-10
5.55242e-10
4.53562e-10
5.55812e-10
2.9963e-10
5.25563e-10
3.42483e-10
6.40315e-10
4.20311e-10
6.08003e-10
4.06918e-10
7.04389e-09
6.96421e-09
7.37852e-09
7.57322e-09
7.64915e-09
4.13986e-09
3.10006e-08
2.52418e-08
2.21338e-08
2.05458e-08
1.17043e-08
4.56978e-09
8.6315e-09
1.17012e-08
2.6116e-09
3.53571e-10
3.52849e-10
2.67644e-10
2.67651e-10
2.99354e-10
2.98683e-10
3.99596e-10
3.9996e-10
3.97384e-10
2.83106e-10
4.09057e-10
2.8112e-10
3.88485e-10
2.84553e-10
4.02502e-10
2.80875e-10
4.18729e-10
1.87111e-10
3.62267e-10
2.72975e-10
4.27867e-10
1.88489e-10
3.60307e-10
2.7393e-10
3.72342e-10
6.03258e-10
3.75592e-10
6.08884e-10
3.65717e-10
6.12117e-10
3.66448e-10
6.15128e-10
3.00597e-10
5.9576e-10
3.2218e-10
6.45202e-10
2.96127e-10
6.16765e-10
3.16539e-10
6.50811e-10
5.23391e-10
2.9566e-10
5.40955e-10
3.01191e-10
4.31434e-09
2.61618e-09
2.64225e-10
2.71548e-10
2.07822e-10
2.07618e-10
3.98986e-10
3.7339e-10
3.63145e-10
3.37995e-10
5.09505e-10
2.25136e-10
4.84472e-10
2.35228e-10
5.22887e-10
2.19757e-10
4.95715e-10
2.30029e-10
5.19915e-10
2.32103e-10
4.7574e-10
2.31774e-10
5.33831e-10
2.28444e-10
4.89076e-10
2.28932e-10
4.9869e-10
6.50463e-10
5.07942e-10
6.42754e-10
4.95165e-10
6.62721e-10
5.04831e-10
6.55835e-10
2.9437e-10
4.42318e-10
7.18116e-10
6.16353e-10
5.06552e-10
8.07755e-10
2.88083e-10
4.3703e-10
7.2424e-10
6.02794e-10
4.97446e-10
8.18784e-10
5.14521e-10
2.92045e-10
5.28436e-10
3.02758e-10
5.8968e-10
3.02984e-10
5.74696e-10
3.07614e-10
6.33906e-09
6.96919e-09
7.37615e-09
7.56572e-09
7.64062e-09
5.12133e-09
3.74309e-08
2.72299e-08
3.53997e-08
1.10217e-08
7.88792e-09
2.76582e-09
5.06619e-09
3.60822e-09
1.4427e-09
4.92769e-10
4.96354e-10
1.25905e-09
1.18483e-09
2.83681e-10
2.84151e-10
2.67315e-10
2.67564e-10
3.12662e-10
5.6469e-10
3.36482e-10
5.82345e-10
3.08552e-10
5.68302e-10
3.34997e-10
5.78925e-10
3.90137e-10
2.50524e-10
3.20878e-10
5.44515e-10
3.98595e-10
2.50766e-10
3.19688e-10
5.5129e-10
2.6814e-10
3.24223e-10
2.59938e-10
3.18743e-10
4.92435e-09
5.24419e-09
2.0328e-10
2.05739e-10
2.52952e-10
2.5648e-10
1.9063e-10
1.91621e-10
3.15083e-10
3.21668e-10
1.15357e-09
1.78649e-10
1.10902e-09
2.26695e-10
1.30892e-09
1.77214e-10
9.04876e-10
2.22071e-10
5.55564e-10
2.38043e-10
7.34526e-10
2.37401e-10
5.75388e-10
2.33583e-10
7.56986e-10
2.32574e-10
4.93847e-10
7.26955e-10
4.7327e-10
7.2035e-10
4.75036e-10
7.71464e-10
4.6126e-10
7.49484e-10
5.24651e-10
6.64706e-10
4.67173e-10
6.37791e-10
5.17568e-10
6.82435e-10
4.62647e-10
6.52453e-10
6.45714e-09
7.10064e-09
7.44028e-09
7.59213e-09
7.64747e-09
6.37093e-09
4.23609e-08
5.8749e-08
1.80933e-08
2.24073e-08
4.60902e-09
2.07728e-09
4.05847e-09
2.76162e-09
2.76571e-10
2.77273e-10
3.10692e-10
3.10689e-10
2.85936e-10
2.82162e-10
2.496e-10
2.4971e-10
3.19321e-10
4.0056e-10
3.21467e-10
3.59484e-10
3.20494e-10
3.99927e-10
3.23266e-10
3.62194e-10
3.10446e-10
3.65693e-10
3.11849e-10
3.45731e-10
3.1154e-10
3.60394e-10
3.16189e-10
3.46585e-10
2.77273e-10
3.57793e-10
3.00065e-10
3.91479e-10
2.72582e-10
3.57185e-10
2.95667e-10
3.93743e-10
3.34261e-10
5.06295e-10
3.28884e-10
4.29047e-10
3.34847e-10
5.30907e-10
3.23708e-10
4.32873e-10
5.43051e-09
3.54877e-09
1.57383e-09
2.23719e-10
2.23492e-10
2.27989e-10
2.26294e-10
6.29122e-10
6.06466e-10
5.30854e-10
5.28414e-10
8.38802e-10
2.60616e-10
7.3183e-10
5.80432e-10
1.00982e-09
2.62174e-10
6.92264e-10
5.74944e-10
6.34902e-10
6.91475e-10
6.23877e-10
6.54615e-10
6.14545e-10
7.08832e-10
5.93343e-10
6.54442e-10
5.13222e-10
7.98233e-10
4.74734e-10
8.33177e-10
6.76478e-09
7.28492e-09
7.53001e-09
7.629e-09
7.65809e-09
7.64417e-09
1.59998e-07
2.49898e-08
1.16079e-08
4.65029e-09
1.89352e-09
4.12674e-10
1.2615e-08
6.64902e-10
2.79828e-10
2.78164e-10
3.87743e-10
3.86912e-10
3.43321e-10
2.99962e-10
2.10506e-10
3.74972e-10
3.38979e-10
3.06897e-10
2.11924e-10
3.76628e-10
2.5738e-10
2.58375e-10
4.74593e-10
2.94628e-10
4.67268e-10
2.86434e-10
4.76126e-10
2.9506e-10
4.7187e-10
2.87397e-10
5.50693e-10
2.93054e-10
4.9897e-10
2.78252e-10
5.49308e-10
2.90525e-10
5.058e-10
2.75919e-10
2.85064e-10
4.5573e-10
2.88197e-10
4.37211e-10
6.31715e-09
5.0546e-09
1.74508e-09
2.04825e-10
2.03457e-10
3.24915e-10
3.15329e-10
2.2664e-10
2.33469e-10
7.11354e-10
6.68438e-10
1.91818e-10
8.12432e-10
1.85807e-10
6.0909e-10
1.94415e-10
8.09892e-10
1.88499e-10
6.06049e-10
2.7482e-10
3.89258e-10
3.05497e-10
5.18802e-10
2.72329e-10
3.73807e-10
3.05339e-10
5.07092e-10
3.01084e-10
6.86413e-10
3.59236e-10
6.6041e-10
3.00955e-10
6.87527e-10
3.51708e-10
6.59053e-10
5.31502e-10
6.87376e-10
4.03066e-10
6.16136e-10
5.22381e-10
6.93933e-10
3.91307e-10
6.15324e-10
7.12602e-09
7.47173e-09
7.61679e-09
7.6611e-09
5.85249e-09
7.74406e-08
2.23448e-08
1.05511e-08
4.60235e-09
1.30194e-09
7.78351e-10
4.63848e-09
5.88723e-10
6.01206e-10
2.91055e-09
2.67025e-09
3.13318e-10
3.33365e-10
2.92852e-10
2.65016e-10
3.09179e-10
3.35634e-10
2.90616e-10
2.66218e-10
2.55861e-10
2.55697e-10
2.97602e-10
5.21975e-10
2.75898e-10
3.36726e-10
2.97086e-10
5.10515e-10
2.72859e-10
3.38444e-10
3.29419e-10
3.3053e-10
3.31892e-10
3.30538e-10
3.24091e-10
3.33546e-10
3.30318e-10
3.31369e-10
2.94175e-10
2.69597e-10
2.84038e-10
2.47413e-10
2.93799e-10
2.69742e-10
2.84415e-10
2.45817e-10
6.99655e-09
5.64005e-09
2.92373e-09
1.82608e-09
2.43173e-10
2.29049e-10
4.85264e-10
4.40193e-10
5.39265e-10
5.52407e-10
1.02435e-09
1.8608e-10
1.5438e-10
9.3842e-10
7.45191e-10
1.82493e-10
1.51634e-10
8.43923e-10
7.72911e-10
4.93041e-10
6.3119e-10
4.05121e-10
7.68315e-10
4.80225e-10
6.28835e-10
4.05314e-10
7.07272e-10
5.76971e-10
7.30913e-10
5.12812e-10
7.15803e-10
5.66128e-10
7.26764e-10
5.00783e-10
3.80439e-10
7.36094e-10
3.84144e-10
7.07818e-10
7.44979e-09
7.63029e-09
7.68197e-09
4.43901e-09
2.38496e-08
1.15859e-08
4.39572e-09
1.01179e-09
2.35574e-10
7.60574e-10
5.39932e-10
3.06285e-10
1.55056e-10
1.56489e-10
4.54284e-10
4.875e-10
3.07954e-09
3.1213e-09
2.7328e-10
4.33011e-10
2.66844e-10
3.06959e-10
2.72288e-10
4.38717e-10
2.68757e-10
3.03214e-10
3.38247e-10
2.87515e-10
3.22785e-10
2.93875e-10
3.38844e-10
2.87522e-10
3.30638e-10
2.94159e-10
2.79659e-10
3.30291e-10
4.10071e-10
2.92221e-10
2.80296e-10
3.27344e-10
4.04145e-10
2.92526e-10
2.6521e-10
4.13298e-10
2.58372e-10
3.91832e-10
2.64217e-10
4.15154e-10
2.5679e-10
3.82753e-10
7.52344e-09
6.95187e-09
8.21513e-09
1.08947e-09
1.73365e-10
1.68485e-10
3.16062e-10
3.13375e-10
5.40968e-10
5.25455e-10
6.64238e-10
2.13524e-10
1.09285e-09
1.77285e-10
6.90294e-10
2.09866e-10
1.04352e-09
1.73807e-10
5.27368e-10
2.31864e-10
3.7566e-10
2.71453e-10
1.39246e-09
2.4723e-10
5.49774e-10
2.35446e-10
3.73007e-10
2.70874e-10
1.54043e-09
2.46921e-10
6.12271e-10
5.31207e-10
5.83751e-10
5.29392e-10
5.97192e-10
3.65852e-10
6.97248e-10
3.83929e-10
5.99567e-10
3.55696e-10
6.82213e-10
3.87414e-10
7.70388e-09
7.74233e-09
3.47199e-09
2.70115e-08
8.79985e-09
3.12034e-09
4.88008e-10
3.42053e-10
2.37271e-10
1.17375e-09
5.20328e-10
1.98562e-10
1.9949e-10
3.08488e-10
2.61e-10
2.84909e-10
3.62023e-10
4.31549e-10
4.11366e-10
2.636e-10
3.18906e-10
4.16125e-10
3.03307e-10
3.88972e-10
4.93916e-10
3.92015e-09
5.71188e-09
6.72772e-10
2.10105e-09
4.86648e-09
6.20282e-09
8.18066e-10
2.49692e-09
2.64743e-10
3.29888e-10
2.71096e-10
3.83848e-10
2.65115e-10
3.2912e-10
2.7202e-10
3.8174e-10
4.41345e-10
2.58111e-10
4.61691e-10
2.58131e-10
3.27132e-10
2.57743e-10
3.3164e-10
2.56798e-10
2.60977e-10
2.52408e-10
2.61329e-10
2.55507e-10
7.89072e-09
7.83944e-09
8.51884e-09
2.98063e-09
1.71732e-10
1.72946e-10
1.9515e-10
1.93218e-10
4.71197e-10
4.29695e-10
4.87423e-10
4.74257e-10
3.06457e-10
1.12215e-09
2.2383e-10
5.18692e-10
2.6821e-10
1.30508e-09
2.99732e-10
1.14863e-09
2.22191e-10
5.17295e-10
2.65711e-10
1.53238e-09
6.19808e-10
5.65e-10
5.64879e-10
5.85198e-10
4.87227e-10
6.80383e-10
5.48067e-10
3.13974e-10
7.70416e-10
6.57141e-10
4.61149e-10
7.22853e-10
5.2351e-10
3.13016e-10
8.28344e-10
6.57954e-10
5.24648e-10
6.38893e-10
4.84779e-10
6.4659e-10
7.87329e-09
2.82291e-09
6.35967e-09
8.07211e-09
8.08065e-10
4.83427e-10
4.76342e-10
4.55339e-10
4.43698e-10
2.31752e-10
2.24181e-10
6.56306e-09
1.87082e-09
3.13254e-10
3.08059e-10
2.94681e-10
2.75043e-10
2.87329e-10
3.0187e-10
3.59268e-10
4.16916e-10
3.00063e-10
2.95261e-10
3.11103e-10
3.02669e-10
3.918e-10
5.10059e-10
4.45505e-09
4.05751e-09
6.71222e-10
9.97655e-10
5.20483e-09
4.7707e-09
7.83533e-10
1.46382e-09
2.57863e-10
3.58881e-10
2.58039e-10
3.67329e-10
8.12089e-09
8.2866e-09
8.88219e-09
9.18311e-09
9.94607e-10
1.72499e-10
1.72294e-10
1.99047e-10
1.86119e-10
1.11111e-09
1.61699e-10
1.03766e-09
2.19059e-10
1.36333e-09
1.59725e-10
8.82925e-10
2.12333e-10
5.1918e-10
8.36013e-10
3.42539e-10
7.36871e-10
3.16541e-10
3.31297e-10
5.18536e-10
8.77623e-10
3.42517e-10
8.0015e-10
3.15254e-10
3.2979e-10
6.31459e-10
8.14892e-10
5.1121e-10
3.09207e-10
6.44471e-10
8.25078e-10
5.00066e-10
3.08039e-10
4.2826e-10
7.38225e-10
4.23322e-10
7.39601e-10
4.4948e-10
5.92179e-10
3.84023e-10
7.04172e-10
4.14201e-10
6.1933e-10
3.84757e-10
6.78253e-10
2.37225e-09
8.89873e-09
2.0332e-09
5.74173e-10
3.72518e-10
3.20301e-10
5.97473e-10
5.93729e-10
3.24274e-10
3.05524e-10
5.9822e-10
1.26326e-08
1.63883e-08
2.04492e-10
6.2255e-10
4.9737e-09
1.3875e-08
1.97939e-10
5.97178e-10
5.89196e-10
2.93177e-09
4.8898e-09
7.52108e-10
2.03105e-09
5.74949e-09
2.55105e-09
1.09387e-09
2.0489e-09
2.04857e-09
8.5402e-09
9.05729e-09
9.68063e-09
4.59717e-09
1.4972e-10
1.49719e-10
1.66e-10
1.65641e-10
1.84282e-10
1.8485e-10
6.50341e-10
6.55086e-10
7.92985e-10
2.29732e-10
6.2282e-10
5.82252e-10
9.50545e-10
2.29792e-10
5.78342e-10
5.85209e-10
3.59718e-10
3.94367e-10
5.34484e-10
5.1785e-10
6.47911e-10
6.09541e-10
3.67578e-10
4.18951e-10
5.18562e-10
5.31487e-10
6.54321e-10
6.2446e-10
5.90256e-10
9.71296e-10
6.27811e-10
1.06654e-09
2.80936e-09
1.05532e-09
1.23403e-09
6.8432e-10
3.10223e-10
2.79371e-10
1.35485e-10
1.31854e-10
9.08275e-10
9.55206e-10
6.17596e-10
6.14808e-10
8.48174e-10
2.0115e-08
1.29026e-08
1.89174e-10
6.63682e-10
1.46741e-08
1.04053e-08
2.0085e-10
3.56468e-10
7.00354e-10
3.17679e-10
5.39543e-10
4.30746e-10
1.1113e-09
3.75411e-10
6.38131e-10
1.01283e-09
2.09181e-09
7.74901e-10
1.44428e-09
1.81009e-09
9.15889e-09
1.00062e-08
2.54624e-08
6.65409e-10
1.90427e-10
1.89469e-10
2.57205e-10
2.49719e-10
5.13303e-10
5.1289e-10
1.9041e-10
9.2595e-10
2.56818e-10
1.0323e-09
1.89481e-10
8.23291e-10
2.57179e-10
1.01287e-09
4.4818e-10
8.88364e-10
4.45401e-10
5.88675e-10
4.43157e-10
8.86443e-10
4.18192e-10
5.97961e-10
1.17936e-09
1.09671e-09
1.46056e-09
9.05538e-10
5.20687e-10
4.85785e-10
2.81086e-10
2.21464e-10
6.18569e-10
4.84825e-10
6.28508e-10
6.3009e-10
7.14948e-10
5.32412e-10
6.42527e-10
4.5927e-10
8.32824e-10
9.67889e-10
8.91198e-10
5.8452e-10
7.4652e-10
7.38172e-10
5.83567e-10
1.88337e-10
3.01249e-10
1.31031e-10
1.27529e-09
2.22003e-10
2.68564e-10
1.62054e-10
4.27327e-10
4.22761e-10
3.59257e-10
3.06319e-10
1.63085e-09
9.7954e-09
1.13882e-08
6.93672e-09
1.40327e-10
1.40638e-10
1.67698e-10
1.66073e-10
2.276e-10
2.37218e-10
6.71363e-10
6.95215e-10
1.47524e-09
1.82145e-10
7.59505e-10
3.06003e-10
9.99896e-10
2.65288e-10
1.43101e-09
1.86369e-10
7.7502e-10
3.06805e-10
1.0697e-09
2.66837e-10
7.54679e-10
5.56435e-10
7.35626e-10
5.80358e-10
5.95958e-10
7.11529e-10
5.88317e-10
6.94556e-10
1.7645e-09
1.47945e-09
2.32033e-09
2.66587e-10
1.89366e-10
1.62267e-10
1.68231e-10
1.42923e-09
1.31533e-09
9.45448e-10
5.74315e-10
5.74081e-10
6.84997e-10
6.84006e-10
4.88329e-10
8.92508e-10
4.96942e-10
6.80422e-10
4.77654e-10
1.15834e-09
6.7148e-10
9.59313e-10
5.63385e-10
8.88774e-10
5.34458e-10
9.45734e-10
6.64425e-10
8.45959e-10
5.94895e-10
7.39366e-10
1.12297e-09
1.49262e-09
1.03624e-08
6.92255e-09
1.15084e-09
1.31694e-10
1.30918e-10
2.28671e-10
2.1846e-10
5.6166e-10
5.73053e-10
9.22561e-10
2.48357e-10
1.74418e-10
7.94338e-10
2.53024e-10
6.81978e-10
1.74551e-10
7.49993e-10
2.53388e-10
7.75414e-10
9.28854e-10
2.48707e-10
5.37944e-10
3.55029e-10
4.58978e-10
7.55732e-10
5.35789e-10
3.67276e-10
4.60455e-10
7.7494e-10
4.02124e-10
4.66806e-10
4.19286e-10
4.80202e-10
1.90075e-09
6.77279e-09
1.66996e-09
2.58758e-10
1.83384e-10
3.24172e-10
3.2959e-10
6.85182e-10
6.38676e-10
5.04569e-10
1.4957e-09
7.29875e-10
9.38362e-10
6.56797e-10
1.82779e-09
4.77778e-10
8.83811e-10
6.08999e-10
1.20194e-09
1.59809e-09
1.52625e-09
7.29186e-10
8.23198e-10
8.0729e-10
5.14311e-10
7.35143e-10
9.2966e-10
4.70664e-10
9.69528e-10
1.38251e-09
7.73454e-09
7.03309e-09
1.24915e-10
1.24743e-10
1.21581e-10
1.21345e-10
1.35186e-10
1.34603e-10
6.52958e-10
6.60762e-10
6.52139e-10
1.63569e-10
5.35245e-10
2.46801e-10
9.74736e-10
2.46623e-10
6.81928e-10
1.06289e-09
2.49805e-10
1.66603e-10
5.53004e-10
2.46917e-10
3.61726e-10
6.15246e-10
4.60983e-10
4.10281e-10
4.78317e-10
3.61233e-10
4.07505e-10
6.3072e-10
7.42478e-09
1.33465e-09
1.52158e-09
3.57636e-10
3.55311e-10
1.54887e-10
1.54664e-10
7.20631e-10
9.59845e-10
6.02204e-10
8.9544e-10
1.18831e-09
5.25612e-10
1.03904e-09
1.09268e-09
5.52516e-10
8.49122e-10
7.58898e-10
6.05593e-10
4.0317e-10
3.84407e-10
5.80152e-10
4.52383e-10
4.15523e-10
3.83783e-10
5.47797e-10
4.30063e-10
6.86736e-10
1.2619e-09
6.50736e-10
1.27147e-09
1.29328e-09
5.33879e-09
3.36798e-09
1.77063e-10
1.75956e-10
1.71057e-10
1.67819e-10
5.09584e-10
5.10799e-10
6.10298e-10
2.34706e-10
1.66075e-10
6.20619e-10
2.22971e-10
8.39801e-10
6.07329e-10
2.31277e-10
1.64791e-10
6.48812e-10
2.21802e-10
9.01882e-10
4.45624e-10
4.57859e-10
4.97911e-10
4.8579e-10
4.58406e-10
4.89451e-10
4.58574e-10
5.03518e-10
1.52664e-09
1.5512e-09
1.26567e-10
1.82685e-10
1.8397e-10
1.26658e-10
8.75566e-11
8.76057e-11
3.97898e-10
3.07906e-10
4.18391e-10
4.02738e-10
2.87582e-10
4.13659e-10
6.02548e-10
1.19697e-09
9.89353e-10
7.7938e-10
1.10256e-09
6.29044e-10
6.95923e-10
9.5216e-10
6.95185e-10
1.26523e-09
1.19748e-09
7.92459e-10
3.40511e-10
5.94038e-10
3.28279e-10
5.79108e-10
1.12192e-09
4.01494e-09
1.17447e-09
1.55642e-10
1.56144e-10
5.68996e-10
5.15272e-10
7.5758e-10
1.39401e-10
5.19247e-10
2.22286e-10
1.31918e-09
2.28244e-10
8.12648e-10
1.22928e-09
2.28371e-10
1.369e-10
6.09124e-10
2.23784e-10
4.74803e-10
6.62054e-10
5.0795e-10
5.98415e-10
4.73067e-10
6.76351e-10
5.10238e-10
6.12968e-10
3.80792e-10
6.59629e-10
3.91147e-10
6.37569e-10
2.60273e-09
1.3325e-09
3.43784e-10
1.61156e-10
3.44526e-10
1.59383e-10
7.20164e-11
7.19845e-11
2.14564e-10
4.39568e-10
4.34971e-10
3.90279e-10
4.21951e-10
4.66722e-10
2.9798e-10
3.67579e-10
4.33007e-10
2.31799e-10
4.34021e-10
3.91056e-10
4.24969e-10
4.78356e-10
3.22074e-10
3.66667e-10
7.86361e-10
6.24477e-10
4.92748e-10
5.17672e-10
2.6939e-10
6.44015e-10
2.67032e-10
5.93153e-10
1.09748e-09
1.9495e-09
1.44603e-10
2.00027e-10
1.868e-10
1.45515e-10
9.16563e-11
9.18943e-11
4.48327e-10
5.7473e-10
1.72038e-10
4.3596e-10
5.51908e-10
1.64343e-10
3.41804e-10
4.25872e-10
7.79882e-10
4.76932e-10
3.36378e-10
7.63635e-10
4.3015e-10
4.86029e-10
5.09603e-10
6.93848e-10
5.26171e-10
7.18587e-10
4.87596e-10
7.0967e-10
5.53869e-10
6.9507e-10
4.16035e-09
6.5713e-10
4.75478e-10
4.04583e-10
2.31096e-10
2.47403e-10
4.31141e-10
4.05401e-10
2.36277e-10
2.66163e-10
1.28659e-10
1.32818e-10
3.5022e-10
2.33249e-10
2.30998e-10
4.94951e-10
5.09914e-10
7.33209e-10
4.34126e-10
2.30575e-10
2.36873e-10
5.01315e-10
5.71142e-10
7.53221e-10
7.53186e-10
3.7629e-10
6.06268e-10
3.37923e-10
1.60194e-09
6.75907e-09
1.31224e-10
1.09938e-09
1.09989e-09
1.32259e-10
1.82114e-10
1.81104e-10
7.80506e-10
5.2262e-10
3.22048e-10
8.84555e-10
2.73073e-10
2.73102e-10
1.25973e-09
1.42389e-10
8.77575e-10
5.24207e-10
3.19144e-10
8.80354e-10
2.68047e-10
2.70695e-10
1.1644e-09
1.43494e-10
5.8763e-10
5.55523e-10
5.96985e-10
7.62892e-10
6.11557e-10
6.10184e-10
5.7226e-10
7.8862e-10
1.24951e-09
5.26928e-10
1.72677e-10
1.73551e-10
4.89396e-10
1.62289e-10
1.60147e-10
2.36403e-10
4.10867e-10
4.20215e-10
4.10022e-10
3.83412e-10
3.70577e-10
1.9196e-10
4.933e-10
3.33077e-10
1.85087e-10
3.98128e-10
2.6632e-10
4.01759e-10
3.65914e-10
3.97124e-10
3.41297e-10
3.87807e-10
1.93776e-10
4.79904e-10
3.36242e-10
2.16075e-10
4.50102e-10
2.93104e-10
2.59838e-10
6.61362e-10
6.84487e-10
3.22462e-10
2.48074e-10
7.36988e-10
6.58389e-10
2.11212e-09
1.2531e-09
1.68307e-10
4.53428e-10
1.39014e-10
5.00643e-10
4.49167e-10
1.37784e-10
5.10161e-10
1.70872e-10
3.93378e-10
3.37313e-10
3.61334e-10
4.90408e-10
3.56352e-10
6.95749e-10
7.9976e-10
5.12791e-10
3.62786e-10
4.76661e-10
3.73757e-10