/*--------------------------------*- C++ -*----------------------------------*\
| =========                 |                                                 |
| \\      /  F ield         | OpenFOAM: The Open Source CFD Toolbox           |
|  \\    /   O peration     | Version:  5.x                                   |
|   \\  /    A nd           | Web:      www.OpenFOAM.org                      |
|    \\/     M anipulation  |                                                 |
\*---------------------------------------------------------------------------*/
FoamFile
{
    version     2.0;
    format      ascii;
    class       volScalarField;
    location    "0.1";
    object      omega;
}
// * * * * * * * * * * * * * * * * * * * * * * * * * * * * * * * * * * * * * //

dimensions      [0 0 -1 0 0 0 0];

internalField   nonuniform List<scalar> 
12160
(
0.0719999
0.0719999
0.00485421
0.0719999
0.00392352
0.00138926
0.0719999
0.00344985
0.00123905
0.00125162
0.0719999
0.00246867
0.00119411
0.00115402
0.00123618
0.0719999
0.00202792
0.00108869
0.00112802
0.00115338
0.001358
0.0719999
0.00166164
0.00106188
0.0010683
0.00111558
0.00119072
0.001392
0.0719999
0.00143695
0.00103332
0.00104986
0.00106916
0.00113143
0.00126479
0.00144834
0.0719999
0.00128801
0.00102184
0.0010294
0.00104583
0.00107913
0.00112684
0.0011959
0.00147653
0.0719999
0.00119124
0.00101351
0.00102005
0.00102831
0.0010492
0.0010967
0.00106848
0.00118483
0.00172762
0.0719999
0.00112782
0.00100873
0.0010129
0.00101887
0.00103146
0.00105077
0.00103673
0.00109561
0.00112565
0.00137379
0.0719999
0.00108613
0.0010057
0.00100854
0.00101221
0.00102041
0.00103526
0.00101611
0.00108343
0.00109888
0.00125272
0.0012814
0.0719999
0.00105859
0.00100377
0.00100567
0.00100808
0.00101327
0.00102216
0.00101508
0.00105532
0.00104749
0.00110365
0.00116703
0.0012367
0.0719999
0.0010403
0.00100252
0.00100379
0.00100536
0.00100875
0.00101453
0.00101895
0.00104105
0.00105166
0.00110953
0.00110474
0.00112104
0.0012032
0.0719999
0.0010281
0.00100169
0.00100255
0.00100358
0.00100581
0.00100957
0.00102258
0.00102915
0.00103319
0.00106784
0.00109951
0.00109241
0.00109952
0.00120538
0.0719999
0.00101993
0.00100115
0.00100172
0.00100241
0.00100388
0.00100635
0.00102437
0.00102069
0.0010291
0.0010492
0.00106256
0.00109118
0.00108521
0.00107114
0.0719999
0.00101445
0.00100078
0.00100117
0.00100163
0.00100261
0.00100424
0.00102457
0.00101484
0.00102592
0.00103451
0.0010462
0.00105991
0.00108713
0.00106342
0.0719999
0.00101074
0.00100054
0.0010008
0.00100111
0.00100177
0.00100285
0.0010236
0.00101098
0.00102459
0.00102376
0.00103197
0.00104534
0.00105875
0.00106486
0.0719999
0.00100827
0.0010003
0.00100055
0.00100076
0.0010012
0.00100193
0.00102179
0.00100864
0.00102368
0.00101625
0.00102202
0.00103164
0.00104491
0.00104421
0.0719999
0.00100695
0.00100014
0.00100032
0.00100052
0.00100082
0.00100131
0.00101932
0.00100737
0.00102254
0.00101094
0.00101515
0.00102198
0.00103141
0.00103379
0.0719999
0.00100614
0.00100007
0.00100015
0.00100028
0.00100057
0.0010009
0.00101658
0.0010066
0.00102088
0.00100728
0.0010104
0.00101517
0.00102189
0.00102363
0.0719999
0.00100584
0.00100003
0.00100007
0.00100013
0.00100033
0.00100062
0.00101385
0.00100609
0.00101858
0.00100489
0.00100713
0.00101042
0.00101512
0.00101648
0.0719999
0.00100602
0.00100001
0.00100003
0.00100006
0.00100015
0.00100038
0.00101118
0.00100557
0.00101602
0.00100332
0.00100493
0.00100715
0.00101041
0.00101138
0.0719999
0.00100649
0.001
0.00100001
0.00100003
0.00100007
0.00100018
0.00100887
0.00100499
0.00101343
0.00100227
0.00100342
0.00100495
0.00100716
0.00100783
0.0719999
0.00100649
0.000999999
0.001
0.00100001
0.00100003
0.00100008
0.0010069
0.00100431
0.0010109
0.00100175
0.00100241
0.00100343
0.00100497
0.00100539
0.0719999
0.00100641
0.000999996
0.000999998
0.001
0.00100001
0.00100004
0.00100526
0.00100368
0.00100865
0.00100141
0.0010018
0.00100241
0.00100345
0.00100375
0.0719999
0.00100635
0.000999995
0.000999996
0.000999997
0.001
0.00100002
0.001004
0.00100297
0.00100672
0.00100115
0.00100136
0.00100179
0.00100244
0.00100261
0.0719999
0.00100632
0.000999995
0.000999995
0.000999995
0.000999997
0.001
0.00100297
0.00100239
0.00100514
0.00100096
0.00100107
0.00100134
0.00100182
0.00100184
0.0719999
0.00100629
0.000999995
0.000999994
0.000999994
0.000999995
0.000999997
0.00100218
0.00100191
0.00100388
0.00100075
0.0010009
0.00100105
0.00100135
0.00100137
0.0719999
0.00100622
0.000999996
0.000999995
0.000999993
0.000999994
0.000999995
0.00100157
0.0010015
0.0010029
0.00100058
0.00100075
0.00100087
0.00100106
0.00100102
0.0719999
0.00100617
0.000999998
0.000999996
0.000999994
0.000999994
0.000999993
0.00100107
0.00100118
0.00100213
0.00100042
0.00100059
0.0010007
0.00100087
0.0010008
0.0719999
0.00100616
0.001
0.000999998
0.000999995
0.000999994
0.000999993
0.00100067
0.00100094
0.00100153
0.00100026
0.00100044
0.00100056
0.0010007
0.00100066
0.0719999
0.00100629
0.00100001
0.001
0.000999996
0.000999995
0.000999993
0.00100033
0.00100077
0.00100107
0.00100014
0.00100032
0.00100043
0.00100054
0.00100051
0.0719999
0.00100661
0.00100002
0.00100001
0.001
0.000999997
0.000999994
0.00100004
0.00100065
0.0010007
0.00100008
0.00100023
0.0010003
0.00100038
0.00100036
0.0719999
0.00100718
0.00100004
0.00100002
0.00100001
0.001
0.000999997
0.00100018
0.0010006
0.00100043
0.00100005
0.00100016
0.00100018
0.00100026
0.00100023
0.0719999
0.00100808
0.00100007
0.00100004
0.00100002
0.00100001
0.001
0.00100045
0.00100062
0.00100028
0.00100004
0.00100011
0.00100009
0.00100017
0.00100014
0.0719999
0.00100938
0.00100013
0.00100007
0.00100004
0.00100002
0.00100001
0.00100075
0.00100068
0.00100033
0.00100005
0.00100008
0.00100005
0.0010001
0.00100008
0.0719999
0.00101117
0.00100022
0.00100013
0.00100007
0.00100004
0.00100002
0.00100111
0.00100078
0.00100052
0.00100006
0.00100008
0.00100002
0.00100006
0.00100005
0.0719999
0.00101353
0.00100032
0.00100022
0.00100012
0.00100008
0.00100005
0.00100152
0.00100093
0.00100077
0.00100009
0.00100008
0.00100003
0.00100003
0.00100002
0.0719999
0.00101663
0.00100044
0.00100032
0.00100021
0.00100015
0.00100009
0.001002
0.00100112
0.00100107
0.00100014
0.00100011
0.00100007
0.00100002
0.00100001
0.00102062
0.0719999
0.00100059
0.00100044
0.00100031
0.00100024
0.00100017
0.00100256
0.00100135
0.00100144
0.0010002
0.00100017
0.0010001
0.00100003
0.00100001
0.00100078
0.00102897
0.0719999
0.00100059
0.00100043
0.00100034
0.00100026
0.00100321
0.00100162
0.0010019
0.00100028
0.00100024
0.00100016
0.00100006
0.00100002
0.00100078
0.00100119
0.00104795
0.0719999
0.00100057
0.00100047
0.00100037
0.00100396
0.00100193
0.00100243
0.00100036
0.00100031
0.00100023
0.00100011
0.00100004
0.00100076
0.00100118
0.00100203
0.00107814
0.0719999
0.00100063
0.00100051
0.00100478
0.00100227
0.00100307
0.00100045
0.00100041
0.00100029
0.00100018
0.00100008
0.00100083
0.00100115
0.00100202
0.00100341
0.00112452
0.0719999
0.00100069
0.0010057
0.00100263
0.00100378
0.00100058
0.00100052
0.00100036
0.00100027
0.00100012
0.0010009
0.00100126
0.00100195
0.00100334
0.00100552
0.00119494
0.0719999
0.0010067
0.001003
0.00100457
0.00100071
0.00100064
0.00100044
0.00100037
0.00100017
0.00100767
0.00100136
0.00100214
0.00100323
0.00100533
0.00100877
0.0013023
0.0719999
0.00100331
0.00100545
0.00100085
0.00100076
0.00100058
0.00100048
0.00100022
0.00100369
0.00100962
0.00100232
0.00100354
0.00100514
0.00100821
0.00101372
0.00147688
0.0719999
0.00100634
0.00100101
0.00100089
0.00100073
0.00100061
0.0010003
0.00100726
0.00100425
0.00101175
0.00100383
0.0010056
0.00100787
0.00101228
0.00102148
0.00175903
0.0719999
0.00100117
0.00100105
0.00100091
0.00100074
0.00100042
0.00100144
0.00100913
0.00100504
0.00101325
0.00100604
0.00100851
0.00101162
0.00101778
0.00103439
0.00241445
0.0719999
0.00100126
0.00100109
0.00100089
0.00100053
0.00100155
0.00100202
0.00101113
0.00100622
0.00101378
0.00100915
0.0010124
0.00101651
0.00102517
0.00105913
0.00307021
0.00959065
0.00100127
0.00100106
0.00100068
0.00100152
0.00100217
0.00100313
0.00101275
0.0010078
0.00101326
0.00101331
0.00101724
0.00102253
0.00103278
0.0011155
0.00163604
0.00108496
0.0568889
0.00100129
0.00100084
0.00100157
0.00100208
0.00100332
0.00100482
0.00101386
0.00100982
0.00101161
0.00101845
0.00102262
0.00102847
0.0010503
0.00109152
0.00106408
0.0010294
0.00105135
0.0568889
0.00100101
0.00100124
0.00100217
0.00100313
0.00100487
0.00100706
0.00101438
0.00101199
0.0010089
0.00102421
0.00102734
0.00103725
0.00105141
0.00104261
0.00103212
0.00101915
0.00102093
0.0010329
0.0568889
0.00100168
0.00100329
0.00100466
0.00100671
0.00100969
0.00101435
0.00101415
0.00100545
0.00102976
0.00103157
0.00103897
0.00103467
0.00103113
0.00102703
0.00103028
0.00100337
0.00101609
0.00102856
0.0568889
0.00100247
0.00100481
0.00100671
0.00100883
0.00101233
0.00101396
0.00101637
0.00100265
0.00103444
0.00102987
0.00103128
0.00102839
0.00102722
0.00102275
0.0010233
0.00101978
0.00101205
0.00102052
0.00102904
0.0568889
0.00100358
0.00100661
0.00100911
0.00101119
0.00101467
0.00101373
0.00101885
0.00100523
0.00103666
0.00102492
0.00102744
0.00102528
0.00101731
0.00104733
0.00113092
0.0010487
0.00101564
0.00101808
0.00102446
0.00103011
0.0568889
0.00100499
0.00100867
0.00101149
0.00101362
0.00101663
0.00101469
0.00102163
0.00100735
0.00103564
0.00102104
0.00102534
0.00101697
0.00103571
0.00104349
0.00136995
0.00106293
0.00132212
0.002594
0.0026234
0.00104147
0.00101975
0.0010232
0.00102753
0.00103136
0.0568889
0.00100655
0.00101077
0.00101356
0.00101582
0.00101805
0.00101756
0.00102392
0.00100775
0.00103468
0.00101845
0.00102148
0.00102726
0.00103362
0.0014
0.00180369
0.00171293
0.00107238
0.00174302
0.00342133
0.00343373
0.0017724
0.00238319
0.00237812
0.00102368
0.00102574
0.00102728
0.00102986
0.00103255
0.0568889
0.001008
0.00101269
0.00101498
0.00101721
0.00101895
0.00102212
0.00102695
0.00100751
0.00103418
0.00101586
0.00102882
0.00101198
0.00118424
0.00346942
0.00347169
0.00172968
0.00172369
0.00210671
0.00400675
0.00104855
0.00117131
0.00213535
0.00285261
0.00284237
0.00389047
0.00322017
0.00313495
0.00102637
0.00103033
0.0010301
0.00103175
0.00103351
0.0568889
0.00100931
0.00101418
0.00101553
0.00101757
0.00101924
0.00102689
0.0010297
0.00100698
0.00103616
0.00102254
0.00102585
0.00116167
0.00203359
0.00202086
0.00199085
0.00197764
0.00562877
0.00562519
0.00429171
0.00430793
0.00404657
0.00918701
0.00839628
0.0100517
0.00833388
0.00104848
0.00124938
0.00296666
0.00298171
0.00321273
0.00322236
0.0039501
0.00382246
0.00374542
0.00949676
0.0082417
0.010196
0.00810924
0.00869869
0.00828738
0.00870905
0.00928804
0.00887002
0.00809268
0.00868563
0.00925975
0.00103042
0.00103358
0.00103285
0.00103305
0.00103419
0.0568889
0.00101037
0.00101486
0.00101539
0.0010173
0.0010197
0.00103132
0.00103207
0.00100846
0.00103871
0.00103856
0.00115038
0.00191159
0.00190266
0.00175565
0.00175445
0.00370979
0.00364687
0.00362168
0.00353812
0.0087734
0.00809134
0.0100733
0.00833615
0.00938177
0.00880314
0.00794991
0.00875646
0.010098
0.00833927
0.0094242
0.00885206
0.00799938
0.00866212
0.00822983
0.00859326
0.00806486
0.00869425
0.00826387
0.00866496
0.00973679
0.00812233
0.0103286
0.00770827
0.00894033
0.00789876
0.00894769
0.00778886
0.00105304
0.00125462
0.00232583
0.00226685
0.00251216
0.0025181
0.00394424
0.00392593
0.00725502
0.00723206
0.0100021
0.00798201
0.0104145
0.00762222
0.00899894
0.00829562
0.0096988
0.00868756
0.00920782
0.00826048
0.00972448
0.00851052
0.00923568
0.00775587
0.00907589
0.00756987
0.00921763
0.00822093
0.00934896
0.00820511
0.00102723
0.00103584
0.00103439
0.00103379
0.00103458
0.0568889
0.00101084
0.00101463
0.00101483
0.0010175
0.00101886
0.00104183
0.00103794
0.00101695
0.00106683
0.00114428
0.00187569
0.00187764
0.00188948
0.00189138
0.00332719
0.003255
0.002732
0.0026286
0.00778357
0.00868453
0.00756822
0.00878001
0.00781507
0.00860521
0.00754376
0.00863684
0.00730413
0.00866573
0.0074491
0.00882311
0.00725254
0.00851705
0.00739572
0.00866775
0.00763215
0.00877572
0.00844305
0.00816077
0.00835295
0.00836737
0.00751606
0.00875482
0.00803929
0.00842506
0.0083273
0.00836617
0.00772267
0.00763758
0.00810633
0.00797071
0.00769712
0.00758001
0.00809146
0.00797104
0.00934679
0.00775364
0.0091936
0.00766212
0.00642574
0.00599916
0.00592549
0.00547438
0.00106924
0.00118739
0.00302843
0.00296024
0.00264084
0.00255563
0.00498907
0.00474796
0.00445223
0.0042684
0.00855247
0.00889268
0.00879389
0.00887782
0.00841584
0.00887022
0.00871784
0.00888506
0.0103015
0.0088132
0.00972152
0.0100252
0.0103989
0.0109534
0.0102588
0.0087303
0.00968164
0.0100055
0.010382
0.011036
0.0096026
0.00762471
0.00919322
0.00759736
0.0102057
0.00900297
0.0104062
0.00887898
0.0066044
0.00594515
0.00591345
0.00557799
0.00693926
0.0051004
0.0069561
0.00547136
0.00103828
0.00103707
0.001035
0.00103409
0.00103476
0.0568889
0.0010105
0.00101345
0.00101428
0.00101706
0.00102036
0.00105216
0.00105152
0.00103652
0.00110947
0.00181799
0.0018209
0.00213917
0.00214756
0.00194159
0.00194446
0.00167655
0.00168236
0.00716417
0.00844642
0.00701872
0.00811594
0.00711551
0.00832548
0.00698846
0.00802958
0.00667824
0.00675801
0.00774699
0.00746189
0.00648293
0.0066964
0.00770968
0.00735649
0.00743176
0.00716267
0.00721768
0.00690542
0.00736188
0.0070633
0.00709736
0.00675446
0.00728639
0.00638869
0.0073519
0.00645893
0.00715972
0.00614017
0.00721979
0.00625659
0.00684363
0.00638991
0.00611406
0.00671965
0.00105993
0.00113553
0.00229329
0.00225846
0.0027498
0.00272916
0.00498522
0.00479277
0.00550144
0.00528115
0.00862581
0.0100597
0.00900257
0.00997246
0.0082465
0.00973921
0.00861869
0.00967048
0.0086906
0.00929827
0.00908165
0.00954204
0.00844399
0.00914808
0.00874615
0.00933253
0.00892189
0.00915005
0.00895557
0.00920699
0.00883852
0.00908145
0.00888809
0.00917919
0.00945224
0.00923255
0.00987712
0.00801952
0.00920584
0.0097873
0.00938951
0.00903499
0.00982901
0.00792615
0.0091145
0.00975509
0.00689314
0.00629384
0.00595145
0.0067024
0.00847705
0.00834218
0.00859364
0.00823865
0.00104132
0.00103707
0.00103501
0.00103411
0.00103486
0.0568889
0.00100954
0.00101265
0.00101233
0.00102626
0.00104306
0.00109821
0.00114422
0.00114941
0.00121083
0.0015368
0.00153044
0.00122057
0.00123059
0.00374941
0.00375689
0.00323206
0.00322615
0.00710494
0.00675308
0.00693075
0.00694864
0.00697383
0.00659804
0.00679079
0.00689093
0.00671963
0.00685486
0.00739424
0.00719133
0.0064835
0.00690274
0.00729399
0.00717477
0.00671956
0.004586
0.00655728
0.00435521
0.0010528
0.00106522
0.00416917
0.00419971
0.0027105
0.00267247
0.00284967
0.00287473
0.00249482
0.00237384
0.00828464
0.0095495
0.00836407
0.00979684
0.00810198
0.00940213
0.0083062
0.00952784
0.00835215
0.0104048
0.0082575
0.0103536
0.00795836
0.0100942
0.00792376
0.0100958
0.00807883
0.00932812
0.00872155
0.0093381
0.00792908
0.00898723
0.00857133
0.00911248
0.00876242
0.00909881
0.00905951
0.00926261
0.00864504
0.008992
0.0089047
0.00915589
0.00104019
0.0010364
0.00103469
0.00103404
0.0010424
0.0568889
0.00100855
0.00100967
0.00101626
0.00103006
0.00105018
0.00118204
0.00208059
0.00127256
0.0022975
0.00229165
0.00232604
0.00232335
0.00279197
0.00275276
0.00231894
0.00233498
0.00797739
0.00708575
0.00827246
0.00692215
0.00803403
0.00706415
0.00823071
0.00695216
0.00778745
0.00659754
0.00779701
0.00675403
0.0078256
0.00668708
0.00770247
0.00682456
0.0063222
0.00461403
0.00605705
0.00478076
0.00614843
0.00441861
0.0058758
0.00465274
0.00704291
0.00639522
0.00632272
0.00531459
0.00688461
0.0062207
0.00614547
0.00514939
0.00104668
0.00107563
0.00128524
0.00327038
0.00319068
0.00246485
0.00246688
0.00396287
0.00402605
0.00674224
0.00671402
0.00872426
0.0100382
0.00888079
0.0104714
0.00856203
0.0101164
0.00884575
0.0104196
0.00764325
0.0097405
0.00809419
0.0102872
0.00744497
0.00941793
0.00799781
0.0101282
0.00650899
0.00822622
0.00622552
0.00794772
0.00103833
0.00103545
0.00103431
0.00104141
0.00177177
0.0719993
0.00100581
0.00101271
0.00102166
0.00108543
0.00120473
0.00259657
0.0283181
0.00590389
0.00261123
0.00257205
0.00194857
0.00196269
0.00714082
0.00732443
0.0063768
0.00619612
0.00717259
0.00725602
0.00643755
0.00614195
0.00299691
0.00299622
0.00529793
0.0072183
0.0058018
0.00678301
0.00524271
0.00718085
0.00576272
0.00678124
0.00488744
0.00661536
0.00563457
0.00660937
0.0047751
0.00660319
0.00545283
0.00664734
0.0073157
0.005201
0.00721694
0.00530823
0.00104099
0.00105192
0.00116182
0.00390338
0.00390701
0.00245806
0.00242969
0.00513676
0.0052272
0.00405204
0.00369376
0.0091242
0.00861585
0.0095263
0.00868992
0.00933934
0.00845349
0.00953343
0.00870556
0.0103417
0.00962717
0.00976168
0.00950214
0.0103472
0.00964667
0.00966841
0.0095346
0.00906974
0.00803066
0.00777529
0.00855578
0.00906441
0.00799005
0.00783689
0.00855255
0.00598455
0.00754704
0.00651564
0.00804055
0.00576024
0.00730954
0.0065144
0.00793922
0.0010363
0.00103457
0.00104136
0.00176922
0.0719993
0.00100692
0.00101279
0.00103644
0.00108704
0.00151896
0.0126665
0.0572046
0.00619122
0.00626138
0.0218778
0.0230481
0.00680142
0.00697119
0.00622636
0.00619417
0.00686631
0.00682982
0.00620051
0.00611383
0.00374989
0.00374917
0.00692425
0.00612251
0.0061963
0.00614415
0.00692099
0.0061248
0.00630793
0.00613181
0.00654904
0.00744082
0.0067606
0.00769048
0.00666194
0.00733166
0.00684744
0.00772987
0.00401405
0.00643035
0.0040982
0.0067415
0.00397651
0.00639704
0.00396003
0.00679169
0.00103702
0.00104445
0.00109755
0.00145381
0.00533301
0.00510551
0.00630868
0.00601177
0.00760769
0.00758791
0.00899141
0.00981493
0.00982252
0.00905649
0.0090683
0.00935844
0.00961406
0.00906431
0.00915261
0.00970749
0.0105647
0.00931382
0.00926348
0.00963882
0.0104168
0.00936582
0.00998914
0.00874508
0.00928096
0.00928851
0.00996493
0.00862477
0.00922445
0.00929887
0.00856089
0.00850024
0.00836409
0.00851576
0.00103466
0.00104109
0.00176465
0.0719993
0.00100858
0.00102926
0.00108152
0.00142743
0.00795466
0.0195142
0.0639366
0.0729478
0.057687
0.0581617
0.00582521
0.00605675
0.0183021
0.0203201
0.00667559
0.0045584
0.00612915
0.00527473
0.00668835
0.00448508
0.00608378
0.00534086
0.00629315
0.00641963
0.00639232
0.00683492
0.00628192
0.00647019
0.00633125
0.00686213
0.00649127
0.00420248
0.00527685
0.00670346
0.00652207
0.00419114
0.00530877
0.00678471
0.00667854
0.0037906
0.00681474
0.00348384
0.00670573
0.0036293
0.00684295
0.00334804
0.00103429
0.00103715
0.00103702
0.0012866
0.00415066
0.00400125
0.0053923
0.00529929
0.00919153
0.00906055
0.0111662
0.0118303
0.0108063
0.0120331
0.0108115
0.0113063
0.0105138
0.0116602
0.0111831
0.0120048
0.011155
0.0112765
0.00970314
0.011215
0.0109742
0.0120083
0.0111107
0.0112867
0.00962895
0.011222
0.0103113
0.0113821
0.010381
0.0111661
0.00917625
0.00877937
0.0099968
0.00905586
0.00921841
0.00869037
0.00979348
0.00902401
0.0010404
0.00175538
0.0719993
0.00101255
0.00104117
0.00113526
0.00259063
0.00619352
0.0197787
0.0629779
0.0715674
0.0569851
0.0573263
0.00831899
0.0069607
0.00537192
0.00892198
0.00491893
0.00477382
0.0069703
0.00848655
0.00476862
0.00564509
0.00924439
0.00540198
0.0250264
0.0245029
0.0116718
0.00905199
0.0290818
0.0286222
0.0127589
0.0104742
0.00661967
0.00305248
0.00670673
0.00409191
0.00663823
0.00304775
0.00674178
0.00410733
0.00365659
0.00711474
0.0035902
0.00714218
0.00330059
0.00676012
0.0031943
0.00680765
0.00654156
0.00295174
0.00657451
0.00289973
0.00103899
0.00103286
0.00103283
0.00110404
0.00379977
0.00376911
0.00307796
0.00308467
0.00798946
0.00759198
0.0117591
0.0115868
0.0133645
0.0125432
0.0144193
0.0125389
0.0129838
0.0112304
0.0132405
0.0123095
0.0142308
0.012438
0.0128823
0.0110728
0.0117895
0.0129984
0.0118058
0.0126338
0.0110215
0.0121213
0.0100562
0.0105195
0.0108009
0.00978634
0.0110251
0.0118987
0.0100696
0.0104548
0.0107236
0.0096866
0.00879071
0.0103644
0.00875882
0.0101878
0.0017382
0.0719993
0.0010436
0.00106191
0.00158314
0.00203028
0.00314878
0.0689651
0.0680748
0.0510895
0.050273
0.0736924
0.0798947
0.0851072
0.0845439
0.00812333
0.00767485
0.00308995
0.00454809
0.00849859
0.00369586
0.00818917
0.00807019
0.00461188
0.00366301
0.008904
0.00448477
0.0255174
0.0208613
0.0113109
0.00683444
0.0284728
0.025038
0.011933
0.00804995
0.00692379
0.0030688
0.00697014
0.00301169
0.00170995
0.00103657
0.00102926
0.0010327
0.00163462
0.00612529
0.00609892
0.00504851
0.00472941
0.0129951
0.0140652
0.0131506
0.0140457
0.0125643
0.0137136
0.0129615
0.0134523
0.0146214
0.0134072
0.0149762
0.0140894
0.016036
0.0150537
0.0144758
0.0132299
0.0148215
0.0136758
0.0158149
0.0148921
0.0142862
0.0110148
0.0133884
0.0119317
0.0141498
0.0108403
0.0133204
0.0118663
0.0105005
0.0117297
0.0104674
0.0115376
0.00979752
0.011956
0.0102235
0.0104145
0.0097877
0.0116427
0.0100982
0.0106369
0.0719993
0.0010588
0.00118403
0.0016823
0.00253302
0.00411647
0.0923054
0.0917494
0.0649251
0.063189
0.0945502
0.089549
0.0796755
0.10537
0.0987941
0.102533
0.087235
0.112397
0.0991589
0.0990417
0.0218007
0.0212817
0.0132891
0.0103855
0.0305756
0.0185666
0.0145385
0.0093532
0.0719993
0.00166859
0.00103291
0.00102499
0.00108072
0.00682463
0.0068548
0.00585389
0.00585731
0.00668462
0.00668783
0.0097166
0.00966457
0.0138854
0.0146205
0.014291
0.0149163
0.0135721
0.0146447
0.0142218
0.0146647
0.0137015
0.0144717
0.0123644
0.0145189
0.0139662
0.014883
0.0136467
0.0143278
0.0147775
0.0124086
0.013836
0.0148727
0.0136218
0.0110339
0.0137588
0.010938
0.00114756
0.00131719
0.00134963
0.00182734
0.0565911
0.053699
0.0195912
0.0169523
0.125184
0.127237
0.10401
0.10427
0.0970259
0.100019
0.0871753
0.11838
0.102159
0.10456
0.0897531
0.118745
0.134291
0.133193
0.138482
0.140541
0.136381
0.123055
0.143471
0.125868
0.0177597
0.0197594
0.0158903
0.0221655
0.0719979
0.00161448
0.00102863
0.00101197
0.00197684
0.00841923
0.00836697
0.00843364
0.00828294
0.0121858
0.0121127
0.0154207
0.0143935
0.0154405
0.0142756
0.0154007
0.0143758
0.0152941
0.014242
0.0143949
0.0139263
0.0141243
0.0149571
0.0142247
0.0136405
0.0142696
0.0147365
0.00127836
0.00136162
0.00137176
0.00258759
0.0981074
0.0946362
0.0632605
0.0556826
0.130894
0.156395
0.176322
0.150751
0.168835
0.142191
0.135562
0.125878
0.17288
0.159075
0.146097
0.154604
0.130845
0.132394
0.123271
0.138871
0.120914
0.142821
0.114418
0.143949
0.103921
0.147542
0.138495
0.156305
0.143732
0.122594
0.0719922
0.00155112
0.00102463
0.00105295
0.0091866
0.00921545
0.00672364
0.00667575
0.0112063
0.0114583
0.0119276
0.0118462
0.0159138
0.0171143
0.016996
0.0174109
0.0157469
0.0166998
0.0156941
0.0170316
0.0167713
0.0173186
0.0155843
0.0166234
0.0160555
0.0165867
0.0159933
0.0164849
0.0143869
0.015778
0.014352
0.0159165
0.00119578
0.00130319
0.00130182
0.038362
0.0245806
0.0103619
0.00902288
0.157577
0.154237
0.0977569
0.0758391
0.15501
0.17307
0.175242
0.155078
0.172482
0.147553
0.160261
0.13492
0.180758
0.177334
0.166745
0.175826
0.162698
0.187311
0.182998
0.186761
0.155313
0.180087
0.198653
0.18818
0.0719775
0.00147633
0.00103549
0.00167003
0.00691339
0.00684809
0.00625197
0.0058697
0.0132236
0.0132397
0.01707
0.0171556
0.0174751
0.017328
0.0176938
0.0172547
0.0177643
0.0175232
0.0178703
0.0172256
0.0170777
0.017296
0.0187875
0.0179763
0.0181001
0.0153891
0.0187981
0.0178549
0.018138
0.0155148
0.0171667
0.0149848
0.0171004
0.0153138
0.00119843
0.00108204
0.00137952
0.0601565
0.0488799
0.00482823
0.0051458
0.191848
0.19376
0.192112
0.159291
0.184734
0.157616
0.203879
0.189342
0.194877
0.154722
0.187801
0.149182
0.162414
0.157675
0.181615
0.186685
0.193521
0.199249
0.205572
0.189372
0.213667
0.1962
0.0719467
0.00139081
0.00104258
0.0055318
0.00560676
0.00723527
0.00722396
0.00646842
0.00638723
0.0142242
0.0140329
0.0193559
0.0195101
0.0197015
0.0193007
0.0183482
0.0187498
0.0190786
0.0183069
0.0189557
0.0193786
0.0196051
0.0194665
0.0181526
0.0175607
0.0201389
0.0190817
0.019912
0.0181056
0.0193227
0.0175283
0.0010416
0.0014105
0.00163088
0.112797
0.112345
0.066402
0.0662539
0.204274
0.192933
0.186325
0.163385
0.172486
0.178734
0.213411
0.195333
0.190327
0.160363
0.183961
0.170785
0.12872
0.198014
0.144459
0.182797
0.128053
0.199227
0.144636
0.186137
0.204301
0.19237
0.208378
0.195889
0.0718876
0.00126402
0.00117374
0.00347701
0.00348251
0.00616479
0.00562217
0.0163361
0.0163349
0.0209598
0.0207205
0.0217344
0.0211942
0.0214054
0.0203905
0.0208142
0.0205794
0.0216981
0.0209393
0.0212778
0.0201843
0.0220194
0.0197004
0.0207414
0.0195226
0.0195883
0.0194214
0.0219075
0.0207889
0.00131208
0.00124382
0.027918
0.101092
0.101453
0.0272295
0.0276635
0.0276924
0.160973
0.131022
0.203975
0.161842
0.132429
0.206976
0.18541
0.188561
0.17159
0.197438
0.178378
0.182404
0.173232
0.188417
0.172258
0.166582
0.171516
0.174613
0.157027
0.178163
0.158802
0.181916
0.0717744
0.00106514
0.00188303
0.00429283
0.00410206
0.0128462
0.0120335
0.0225284
0.0231039
0.0234722
0.0241607
0.0210656
0.0235871
0.0218423
0.0209993
0.0234602
0.022509
0.0228467
0.0240903
0.0218998
0.0205185
0.0227808
0.0230698
0.0215918
0.0203482
0.0228162
0.0228969
0.0235523
0.0212025
0.0233976
0.0213213
0.00110485
0.00161516
0.131901
0.109111
0.131936
0.108317
0.0397938
0.0399428
0.192614
0.166495
0.280944
0.16664
0.247165
0.257896
0.157518
0.268051
0.168582
0.190745
0.281773
0.168034
0.250467
0.249715
0.156116
0.26289
0.169586
0.177983
0.173083
0.173823
0.192217
0.194357
0.19404
0.198119
0.0715405
0.0011447
0.00466933
0.00996427
0.00903618
0.00461306
0.011668
0.0117436
0.0237024
0.0235912
0.0231347
0.0233518
0.0233229
0.0223411
0.0225161
0.0245014
0.021282
0.0254234
0.0222878
0.0212211
0.0243363
0.0249863
0.0201658
0.0219766
0.0209665
0.022158
0.0202909
0.0217803
0.0203537
0.022264
0.00109541
0.0193369
0.205184
0.281778
0.172821
0.203846
0.195414
0.279309
0.173277
0.211357
0.115948
0.117918
0.209038
0.232757
0.188601
0.21044
0.257236
0.261885
0.215019
0.190569
0.232638
0.214675
0.245828
0.255173
0.190305
0.197208
0.19407
0.197158
0.0711729
0.00114943
0.00474319
0.00967147
0.00971702
0.00462429
0.00847221
0.00833279
0.0271977
0.0281381
0.0306613
0.0247672
0.0302632
0.0290169
0.0246069
0.0256322
0.0266793
0.0277418
0.0301862
0.024151
0.029758
0.0286804
0.02427
0.0252533
0.018842
0.0240462
0.0232545
0.027369
0.0186854
0.0232842
0.0235667
0.0269157
0.00146374
0.211782
0.175632
0.176005
0.203757
0.046675
0.039455
0.234634
0.329135
0.205832
0.372691
0.219628
0.389926
0.277491
0.378478
0.309897
0.264774
0.424288
0.233587
0.328838
0.204006
0.372536
0.213646
0.38579
0.271167
0.369915
0.311467
0.264655
0.421808
0.241228
0.262514
0.2636
0.28184
0.243912
0.258994
0.254048
0.275872
0.0706553
0.00184248
0.0052464
0.0262944
0.0228265
0.0257674
0.0261375
0.0229223
0.0257273
0.00383853
0.0195939
0.0176416
0.0276002
0.028386
0.0264061
0.0241161
0.0277293
0.0270244
0.0275607
0.0284895
0.0260427
0.0274526
0.0241934
0.0268729
0.021158
0.0240235
0.0208915
0.0239835
0.0022285
0.277705
0.221595
0.273412
0.20196
0.0228296
0.0119709
0.233352
0.297801
0.403904
0.294706
0.348074
0.407068
0.353011
0.360701
0.608175
0.344524
0.533833
0.541255
0.29913
0.525408
0.232916
0.290843
0.293685
0.390779
0.345175
0.38007
0.361515
0.349411
0.588151
0.343214
0.516893
0.526606
0.294797
0.515073
0.0704379
0.0493854
0.0126818
0.0105519
0.0468103
0.0140515
0.0121023
0.0317776
0.0329756
0.0315622
0.0329691
0.0291812
0.0334947
0.0319841
0.0323093
0.0302126
0.0329639
0.0314507
0.0327394
0.0293706
0.0321871
0.0312357
0.0323686
0.0351606
0.0316448
0.0330489
0.0344148
0.0311821
0.0308527
0.0272563
0.0291344
0.027641
0.0308703
0.0274837
0.0291548
0.0274833
0.0307411
0.00183295
0.420725
0.512834
0.324724
0.209792
0.412862
0.497954
0.321309
0.195995
0.0516598
0.0384005
0.355555
0.409422
0.410273
0.456598
0.415907
0.409558
0.418379
0.524703
0.546624
0.509276
0.351403
0.38505
0.407956
0.427703
0.42219
0.418932
0.405869
0.499667
0.533725
0.484347
0.0701625
0.00917617
0.0177871
0.0173657
0.00808503
0.00394386
0.00439421
0.0301533
0.0314676
0.028161
0.0271414
0.0324153
0.0330988
0.0302804
0.0313145
0.0287916
0.0273485
0.032102
0.0318998
0.0395264
0.0369534
0.0409722
0.0357755
0.042401
0.0431794
0.0402733
0.0431243
0.0385521
0.0363559
0.0402865
0.0344443
0.0409021
0.0425922
0.0394823
0.0421386
0.0018684
0.00641585
0.00648901
0.531341
0.535174
0.456934
0.621362
0.388966
0.0513003
0.519632
0.534082
0.460088
0.610478
0.393689
0.0255508
0.442692
0.478638
0.456595
0.530651
0.515349
0.506279
0.449237
0.532135
0.479604
0.510154
0.505324
0.504792
0.0691821
0.00254581
0.0286572
0.0405246
0.0432012
0.0278913
0.0404555
0.043556
0.00241451
0.00213968
0.0027258
0.0303222
0.0338734
0.0321986
0.033775
0.0306377
0.0326515
0.032099
0.0344356
0.0330761
0.0407311
0.0353367
0.0287607
0.0315652
0.0444207
0.0327351
0.0413749
0.0354099
0.0329711
0.0287888
0.0437743
0.00157275
0.0164401
0.0203615
0.0127955
0.0134143
0.466879
0.779789
0.565504
0.72612
0.595684
0.743152
0.627064
0.0699598
0.45254
0.762765
0.561566
0.703145
0.588634
0.732525
0.609662
0.0433466
0.587878
0.561906
0.664771
0.567629
0.0685184
0.00180159
0.00177346
0.0228903
0.0465335
0.0378357
0.0480166
0.0386866
0.0224372
0.0466188
0.0367091
0.0473454
0.0390702
0.00157313
0.00177269
0.0273644
0.03151
0.0383285
0.0344875
0.0283947
0.0466084
0.0260168
0.0316523
0.0396631
0.0291799
0.0339893
0.0464286
0.00131753
0.0144717
0.00692711
0.00916143
0.00599926
0.0978476
0.061176
0.452577
0.783477
0.516762
0.7915
0.537196
0.807482
0.955759
0.773012
0.831441
0.798164
0.669396
0.445092
0.775234
0.516277
0.792543
0.53024
0.771732
0.892329
0.726317
0.788483
0.80918
0.665186
0.0685231
0.00194419
0.00187864
0.00194121
0.00188479
0.0186509
0.0428597
0.0378972
0.044131
0.0382781
0.0366022
0.0475798
0.017901
0.0433866
0.0370859
0.044059
0.0387237
0.0361744
0.0470733
0.00187809
0.00210978
0.0260245
0.0388449
0.0249396
0.0378353
0.00159
0.00340548
0.00906608
0.00343209
0.00613955
0.11075
0.0489885
0.0629978
0.0277244
0.430095
0.425
0.752903
0.483255
0.787995
0.449009
0.788202
0.730089
0.799846
0.73543
0.921996
0.99843
0.829868
1.00263
0.748017
0.485293
0.791561
0.422072
0.777004
0.734546
0.785831
0.74579
0.842113
0.949222
0.787799
0.846042
0.0691927
0.0018813
0.00195063
0.00188729
0.00194817
0.00156209
0.00212476
0.0221125