/*--------------------------------*- C++ -*----------------------------------*\
| =========                 |                                                 |
| \\      /  F ield         | OpenFOAM: The Open Source CFD Toolbox           |
|  \\    /   O peration     | Version:  5.x                                   |
|   \\  /    A nd           | Web:      www.OpenFOAM.org                      |
|    \\/     M anipulation  |                                                 |
\*---------------------------------------------------------------------------*/
FoamFile
{
    version     2.0;
    format      ascii;
    class       volScalarField;
    location    "0.1";
    object      p;
}
// * * * * * * * * * * * * * * * * * * * * * * * * * * * * * * * * * * * * * //

dimensions      [1 -1 -2 0 0 0 0];

internalField   nonuniform List<scalar> 
12160
(
4768.15
4911.36
4125.24
4945.97
4263.16
3494.88
4936.78
4295.37
3621.1
2869.7
4948.8
4284.65
3648.05
2981.02
2272.55
4932.26
4295.25
3634.24
3002.11
2356.58
1677.17
4928.83
4278.47
3642.03
2984.54
2365.31
1723.22
1103.44
4921.84
4274.68
3624.82
2988.66
2339.77
1720.99
1100.97
575.809
4916.43
4267.62
3620.34
2971
2337.33
1688.52
1087.98
487.869
172.244
4912.15
4262.2
3613.15
2965.63
2318.41
1681.28
1043.71
454.371
84.2078
11.4212
4908.86
4257.94
3607.72
2958.33
2311.39
1662.66
1029.59
395.086
62.8423
-3.77158
-7.48843
4906.38
4254.69
3603.52
2952.94
2303.71
1654.87
1009.87
373.137
30.7307
-5.33645
-7.09337
-8.11763
4904.52
4252.24
3600.34
2948.85
2298.2
1647.51
1000.3
353.626
19.271
-6.0471
-6.99228
-7.71597
-8.52843
4903.14
4250.42
3597.97
2945.8
2294.16
1642.39
992.644
342.532
9.98526
-6.11289
-6.88987
-7.63802
-8.3159
-9.04963
4902.12
4249.07
3596.21
2943.55
2291.22
1638.72
987.483
335.268
4.58084
-6.17977
-6.84439
-7.5504
-8.26554
-8.91495
-9.55511
4901.34
4248.06
3594.92
2941.9
2289.09
1636.12
983.917
330.63
1.07148
-6.19133
-6.8567
-7.51076
-8.20223
-8.88658
-9.51147
4900.75
4247.3
3593.96
2940.69
2287.55
1634.27
981.453
327.633
-1.1844
-6.19843
-6.85557
-7.516
-8.17176
-8.84791
-9.50304
4900.31
4246.72
3593.23
2939.8
2286.44
1632.95
979.745
325.683
-2.64863
-6.19973
-6.85744
-7.51363
-8.17328
-8.82876
-9.49002
4899.99
4246.29
3592.68
2939.13
2285.62
1632.01
978.554
324.403
-3.60511
-6.19776
-6.85666
-7.51416
-8.17073
-8.82877
-9.48338
4899.82
4245.98
3592.27
2938.62
2285.01
1631.32
977.718
323.557
-4.23475
-6.19446
-6.85379
-7.51294
-8.1705
-8.82686
-9.48313
4899.78
4245.81
3591.98
2938.24
2284.56
1630.82
977.126
322.99
-4.65295
-6.19137
-6.84995
-7.51012
-8.16919
-8.82644
-9.48238
4899.88
4245.78
3591.82
2937.98
2284.22
1630.45
976.7
322.608
-4.93351
-6.19002
-6.84674
-7.50668
-8.16682
-8.82544
-9.48215
4900.09
4245.88
3591.79
2937.83
2283.99
1630.18
976.393
322.348
-5.1239
-6.19115
-6.84537
-7.504
-8.16412
-8.82385
-9.48176
4900.38
4246.1
3591.89
2937.8
2283.86
1629.99
976.173
322.171
-5.25437
-6.19414
-6.84629
-7.50312
-8.16213
-8.82214
-9.48118
4900.67
4246.38
3592.09
2937.89
2283.83
1629.88
976.021
322.049
-5.34419
-6.1977
-6.84889
-7.50431
-8.16162
-8.82094
-9.48059
4900.91
4246.68
3592.36
2938.06
2283.89
1629.85
975.925
321.965
-5.40663
-6.20074
-6.85194
-7.50681
-8.16267
-8.82072
-9.48021
4901.04
4246.91
3592.63
2938.29
2284.03
1629.88
975.878
321.903
-5.45101
-6.20322
-6.85448
-7.50942
-8.16461
-8.82147
-9.48018
4901.04
4247.02
3592.83
2938.53
2284.21
1629.97
975.874
321.856
-5.48535
-6.20655
-6.85663
-7.51138
-8.16649
-8.8227
-9.48047
4900.93
4247
3592.93
2938.7
2284.39
1630.09
975.906
321.82
-5.51369
-6.21249
-6.85997
-7.51299
-8.16779
-8.8238
-9.48089
4900.79
4246.87
3592.89
2938.78
2284.53
1630.22
975.965
321.797
-5.53682
-6.22154
-6.86604
-7.51577
-8.1689
-8.82449
-9.48123
4900.72
4246.72
3592.76
2938.74
2284.59
1630.32
976.035
321.789
-5.55202
-6.23146
-6.87515
-7.52118
-8.17112
-8.82513
-9.48142
4900.82
4246.66
3592.62
2938.62
2284.56
1630.37
976.095
321.797
-5.55519
-6.23738
-6.8848
-7.52923
-8.17555
-8.8266
-9.48161
4901.11
4246.78
3592.59
2938.51
2284.47
1630.35
976.132
321.821
-5.54369
-6.23378
-6.89012
-7.53749
-8.18202
-8.8296
-9.48215
4901.57
4247.09
3592.72
2938.5
2284.39
1630.29
976.138
321.853
-5.51882
-6.21751
-6.88601
-7.54158
-8.1884
-8.83387
-9.48326
4902.13
4247.55
3593.03
2938.63
2284.39
1630.24
976.126
321.886
-5.48656
-6.19015
-6.86999
-7.53721
-8.19119
-8.83791
-9.48481
4902.73
4248.06
3593.45
2938.92
2284.52
1630.26
976.12
321.91
-5.45595
-6.15797
-6.84405
-7.52268
-8.18721
-8.83943
-9.48622
4903.42
4248.6
3593.9
2939.27
2284.75
1630.36
976.144
321.92
-5.43572
-6.13023
-6.81429
-7.50008
-8.17546
-8.83652
-9.48668
4904.37
4249.22
3594.35
2939.64
2285.03
1630.53
976.21
321.914
-5.43195
-6.11531
-6.78959
-7.4749
-8.15785
-8.82876
-9.48557
4905.74
4250.13
3594.91
2940
2285.31
1630.71
976.309
321.897
-5.44605
-6.11943
-6.77699
-7.45441
-8.13871
-8.81749
-9.48281
4907.68
4251.5
3595.76
2940.48
2285.59
1630.89
976.423
321.88
-5.47378
-6.14407
-6.78234
-7.44481
-8.12352
-8.80551
-9.4789
4253.47
4911.78
3597.09
2941.26
2285.99
1631.1
976.551
321.878
-5.50544
-6.1853
-6.80698
-7.4508
-8.11695
-8.79619
-9.47477
3598.95
4257.44
4919.72
2942.49
2286.68
1631.42
976.725
321.906
-5.52713
-6.23332
-6.84687
-7.4735
-8.12264
-8.7925
-9.47157
2944.18
3602.66
4265.09
4930.94
2287.75
1631.97
977.008
321.978
-5.52385
-6.2739
-6.8921
-7.50905
-8.14138
-8.79677
-9.47034
2289.19
2947.46
3609.72
4275.84
4946.65
1632.82
977.459
322.097
-5.485
-6.29252
-6.92834
-7.54807
-8.16978
-8.80947
-9.47194
1633.92
2291.92
2953.7
3619.67
4290.96
4968.8
978.091
322.255
-5.40985
-6.28102
-6.94156
-7.5773
-8.1998
-8.82812
-9.47658
978.869
1635.95
2297.13
2962.52
3633.72
4312.34
4999.36
322.434
-5.30971
-6.24356
-6.92514
-7.58458
-8.22053
-8.84706
-9.48332
322.625
980.302
1639.87
2304.56
2975.06
3653.61
4341.81
5041.04
-5.20357
-6.19741
-6.88551
-7.5656
-8.22273
-8.85894
-9.48998
-5.10728
322.956
983.192
1645.53
2315.2
2992.8
3680.89
4381.51
5092.65
-6.16608
-6.84159
-7.52828
-8.20436
-8.8581
-9.49386
-6.16737
-4.96882
323.735
987.503
1653.73
2330.24
3016.96
3717.05
4431.04
5173.76
-6.81656
-7.49094
-8.17349
-8.84419
-9.49296
-6.82523
-6.21658
-4.62983
325.048
993.816
1665.31
2350.59
3048.52
3762.17
4502.78
5217.49
-7.47358
-8.14559
-8.82352
-9.48738
-7.48628
-6.87732
-6.28966
-4.03196
327.136
1002.74
1680.95
2376.91
3087.68
3822.13
4562
5439.48
-8.13574
-8.80668
-9.47969
-8.14955
-7.53528
-6.94877
-6.33348
-3.06076
330.279
1014.76
1701.12
2409.35
3136.36
3877.39
4702.77
5494.78
6264.33
-8.80289
-9.47389
-8.81423
-8.18966
-7.5977
-6.98823
-6.32483
-1.6218
334.785
1030.2
1725.96
2447.87
3184.77
3969.69
4746.23
5545.59
6285.09
7037.62
-9.47325
-9.47818
-8.84044
-8.23769
-7.62852
-6.97569
-6.2719
0.351615
340.969
1049.01
1754.9
2487.55
3246.04
4009.09
4791.49
5576.59
6313.38
7055.4
7808.52
-9.48751
-8.87052
-8.25858
-7.61383
-6.92398
-6.2067
2.89874
349.035
1070.41
1784.74
2529.29
3279.85
4046.87
4819.63
5602.07
6341.07
7078.96
7821.44
8568.9
-9.49796
-8.88182
-8.24453
-7.569
-6.86746
-6.16119
6.00834
358.814
1092.28
1813.69
2556.25
3309.56
4071.16
4848.32
5615.19
6367.41
7105.77
7841.6
8579.89
9320.41
-9.50145
-8.87137
-8.21041
-7.52504
-6.83541
-6.14688
9.56009
369.542
1112.13
1833.77
2578.68
3329.6
4097.2
4840.05
5620.46
6395.43
7134.9
7867.69
8598.9
9330.56
10063.1
-9.49741
-8.85018
-8.17982
-7.50371
-6.83396
-6.15439
13.2897
379.518
1126.63
1850.08
2594.32
3349.88
4084.27
4905.15
4433.82
6404.72
4450.53
4100
4115.45
7167.33
7898.72
8625.53
9349.37
10072.9
10797.1
-9.49006
-8.83224
-8.1661
-7.50657
-6.85186
-6.16846
16.597
387.471
1138.17
1861.38
2607.61
3338.47
4138.52
4772.33
4772.26
4395.27
7206.69
4788.78
5083.89
5103.04
4386.26
4090.05
4082.25
7931.85
8659.05
9377.32
10092.1
10806.9
11522.2
-9.48383
-8.82399
-8.16997
-7.52605
-6.87788
-6.18057
19.1474
394.018
1145.7
1868.74
2599.28
3375.78
4040.66
3897.06
3883.24
3575.36
3568.11
4739.24
4436.17
7984.74
7265.07
4730.02
5052.58
5043.89
4413.39
4168.03
4146.27
8695.81
9413.5
10121.4
10827.1
11532.5
12238.6
-9.48048
-8.82775
-8.1911
-7.55815
-6.90568
-6.19099
21.2452
398.415
1148.75
1861.86
2612.83
3312.3
3289.62
3277.33
2999.49
2988.35
3728.57
3723.39
3506.83
3504.1
4759.6
3777.42
3597.25
3873.49
3495.09
8760.78
7984.3
5652.7
5641.59
5400.65
5383.87
4733.98
5045.35
5026.09
3777.15
3601.76
3872.73
3497.57
3687.55
3234.24
3592.68
3311.37
3684.97
3234.12
3584.39
3312.03
9456.05
10160.4
10857.5
11553.6
12249.3
12946.1
-9.48219
-8.84855
-8.23014
-7.59644
-6.93171
-6.20557
22.7262
400.643
1144.68
1855.65
2577.86
2704.33
2693.65
2396.94
2388.05
3197.75
3191
2930.44
2921.33
3113.5
3226.92
3468.42
2975.05
3282.58
3540.41
3229.5
3119.6
3465.94
2982.77
3283.41
3535.03
2744.27
3038.33
2862.46
3165.49
2752.37
3039.53
2869.76
3166.47
4138.46
3730.68
4005.05
3850.49
3964.59
3728.59
4093.59
3611.62
9530.65
8756.74
6240.08
6219.99
5944.3
5927.53
5626.19
5624.78
5194.34
5186.12
4139.76
3734.7
4004.3
3853.64
4373.46
4028.69
4458.24
3960.85
4373.33
4032.53
4451.25
3963.53
3961.81
3732.76
4091.11
3615.59
3783.2
3403.78
3778.87
3401.66
10205.4
10899.1
11585.1
12271.2
12957.2
13644.4
-9.49295
-8.88555
-8.27238
-7.62756
-6.95238
-6.26195
23.497
399.713
1128.65
1824.4
2089.07
2086.56
1790.79
1791.59
2643.84
2635.08
2389.19
2376.93
2623.55
2909.4
2510.16
2780.04
2635.75
2913.19
2527.45
2785.21
2300.85
2526.27
2408.87
2649.38
2316.97
2532.79
2423.93
2655.49
3313.42
3098.9
3542.86
3586.07
2993.06
3409.11
3316.95
3104.58
3581.63
3541.75
2998.02
3408.14
2791.83
3193.14
2893.88
3306.03
2797.71
3191.27
2898.78
3304.61
4366.99
3861.14
4236.46
3973.96
3940.86
3776.48
4081.66
3643.12
10287.2
9565.49
6843.08
6824.3
6555.72
6534.72
6175.08
6158.53
5868.83
5859.55
4516.95
4895.48
4439.89
4813.17
4534.47
4900.26
4455.79
4817.48
4191.44
3995.98
4538.34
4317.81
4685.62
4447.43
4202.24
4007.89
4539.69
4330.66
4688.91
4444.89
4365.72
3865.1
4234.32
3978.34
4498.35
4030.26
4496.71
4032.09
3933.94
3768.29
4074.89
3632.35
3770.62
3479.72
3764.61
3472.53
10952
11628.9
12303.5
12979.4
13655.5
14333.6
-9.51055
-8.91507
-8.29269
-7.64168
-7.01299
-6.32055
23.3383
393.071
1115.1
1495.76
1497.12
1198.66
1201.42
2108.1
2097.24
1805.29
1798.44
2185.52
2401.09
2073.78
2295.1
2199.53
2407.07
2089.24
2300.28
1841.04
2068.62
1916.31
2182.39
1843.81
2069.94
1925.22
2185.88
2688.17
3070.47
2577.95
2932.93
2692.67
3067.94
2582.92
2929.92
2366
2659.21
2464.57
2779.25
2379.02
2659.5
2471.53
2778.83
4350.12
3903.82
4219.1
4016.65
11022.7
10278.2
7457.67
7466.23
7142.81
7134.37
6830.92
6797.87
6502.55
6480.57
4994.28
5346.63
4849.34
5205.04
5030.65
5361.09
4881.78
5218.55
4617.81
5010.23
4722.61
5119.8
4637.05
5017.86
4751.85
5128.77
4613.02
5153.13
4486.64
5009.46
4626.25
5153.24
4498.48
5010.14
4151.48
4251.98
4728.11
4451.74
4356.65
4859.36
4154.1
4264.23
4727.86
4448.33
4366.42
4860.44
4344.28
3898.16
4212.57
4011.45
4456.84
4109.52
4451.4
4108.72
11685.5
12348.5
13012.1
13677.8
14344.6
15013.8
-9.51938
-8.91429
-8.28648
-7.6906
-7.0197
-6.49534
21.473
382.292
1011.52
1488.52
1482.58
1180.1
1182.77
2057.32
2055.87
1778.07
1773.77
2248.95
2531.35
2139.61
2412.14
2257.83
2531.62
2147.96
2412.09
1849.12
2065.47
1972.42
2259.33
1851.75
2064.05
1974.74
2258.64
2365.51
2640.58
2376.84
2640.41
11755.9
11082.7
8133.8
8155.38
7813.1
7823.38
7424.83
7410.61
7207.99
7175.95
5489.59
6042.71
5400.37
5938.77
5511.83
6049.74
5429.65
5950.49
5146.64
5504.45
5275.48
5689.58
5177.72
5517.93
5313.59
5701.37
5187.51
5625.88
5042.62
5506.78
5208.91
5627.45
5050.11
5503.23
4755.5
5305.08
4904.98
5451.76
4764.89
5303.51
4911.9
5449.5
12406.3
13057.8
13710.9
14367.3
15025.1
15685.4
-9.51241
-8.89683
-8.3131
-7.71055
-7.2094
-6.67351
18.4226
341.444
931.307
928.788
632.317
632.783
1514.56
1507.46
1222.89
1221.69
1808.68
1741.5
1943.74
1617.1
1808.47
1742.57
1942.75
1618.66
1677.67
1377.04
1553.08
1497.69
1677.85
1380.42
1553.35
1499.76
2272.33
2522.29
2168.18
2395.74
2279.17
2521.91
2171.94
2395.46
1897.61
2092.43
2036.39
2248.16
1903.22
2091.52
2038.41
2247.5
12477
11828.1
11179
7975.88
7988.58
7716.23
7682.17
7439.74
7426.56
7026.05
7015.12
5509.26
6047.93
5503.91
6068.42
5519.74
6047.74
5517.67
6071.04
5335.33
5801.24
5462.99
5963.25
5351.92
5802.12
5477.76
5963.05
5245
5663.92
5267.87
5664.55
13115.2
13756.9
14401
15048.1
15697.1
16348.5
-9.50718
-8.91799
-8.30206
-7.8468
-7.17763
-7.01284
5.54998
313.675
902.076
898.023
623.901
620.71
1229.28
1421.83
1290.4
1141
1232.68
1423.02
1291.38
1142.32
1192.93
1187.91
1892.74
1741.38
2011.71
1633.61
1890.77
1741.78
2008.86
1632.1
1755.24
1409
1630.17
1529.78
1753.81
1410.81
1628.48
1529.86
1869.81
2106.5
1875.07
2104.46
13185.5
12556.4
11960.4
8728.36
8734.95
8448.95
8423.63
8139.14
8126.91
7821.1
7775.23
6371.82
6036.72
6486.24
5956.66
6371.99
6067.83
6492.47
5967.14
6270.76
5731.53
6134.15
5835.3
6271.4
5742.1
6132.58
5850.34
5711.29
6037.07
5652.6
6035.69
5718.88
6038.17
5660.76
6038.95
5408.69
5814.73
5546.21
5965.72
5425.5
5816.42
5559.43
5967.23
13814.7
14446.9
15082.4
15719.8
16359.6
-9.52878
-8.94749
-8.42334
-7.84964
-7.60127
-7.49301
-6.37721
346.905
346.494
116.494
116.147
787.925
926.667
664.587
780.196
789.654
927.02
668.929
781.139
637.691
636.925
1262.88
1485.91
1310.29
1148.21
1267.41
1484.37
1309.94
1154.43
923.134
1068.29
1050.07
1201.63
925.755
1067.38
1051.99
1200.55
1721.79
1408.3
1607.91
1506.65
1720.07
1411.31
1606.33
1510.39
13883.7
13268
12682.6
12002.7
8822.3
8787.2
8271.44
8243.08
7975.11
7942.52
6163.92
6712.42
6809.22
6256.39
6185.71
6728.36
6815.72
6252.21
6504.92
6179.73
6693.7
6039.76
6504.72
6193.89
6695.38
6045.32
6479.65
5830.27
6343.23
5923.12
6475.12
5835.3
6338.42
5921.34
5768.19
6167.24
5785.35
6166.24
14504.4
15127.8
15753.8
16382.6
-9.54278
-9.0352
-8.41328
-8.08591
-7.51812
-7.75722
-11.0027
-10.9251
-8.07657
-8.16875
333.434
334.228
116.968
117.768
800.411
961.409
674.199
798.615
802.703
960.514
679.504
798.602
679.834
444.029
534.181
567.263
679.732
447.363
534.291
570.529
1306.97
1484.29
1343.2
1188.19
1307.19
1483.05
1341.91
1188.51
938.269
1107
1042.11
1229.23
942.141
1105.96
1042.42
1227.73
14573
13965.5
13369.1
12735.1
9348.51
9332.11
9110.45
9089.14
8483.29
8477.5
6704.22
7321.65
6699
7347.71
6720.03
7332.21
6722.64
7351.7
6579.7
7063.62
6481.06
6911.28
6253
6840.96
6619.68
7072.39
6505.48
6913.03
6245.84
6835.62
6235.51
6841.1
6246.25
6844.76
6590.25
6244.59
6690.07
6116.66
6589.92
6266.19
6694.67
6130.51
15184.3
15798.8
16416.9
-9.5565
-9.05
-8.58105
-7.9431
-7.74022
-7.93733
-5.7251
-6.07076
-4.11056
-4.22659
341.689
471.77
429.656
230.403
291.137
557.029
476.123
342.616
558.847
429.369
229.9
290.985
36.065
46.0977
122.525
152.43
33.7477
43.5914
119.878
151.469
819.168
952.469
706.686
823.81
821.509
951.797
708.923
823.604
702.129
562.762
702.703
564.633
1341.81
1161.24
1339.94
1161.03
922.493
1075.24
926.754
1074.24
15252.5
14653.1
14059.3
13466.9
9998.69
10014.6
9731.26
9713.54
9195.21
9170.65
8627.66
8630.75
7485.42
6839.83
7541.88
6864.05
7372.58
6726.86
7494.41
6896.87
7559.82
6887.52
7375.55
6739.8
6750.75
7417.99
6762.53
7418.53
6682.72
7208.8
6577.57
6446.23
7076.7
6815.43
6701.64
7210.11
6577.94
6467.57
7068.11
6816.56
6387.05
6816.3
6400.28
6818
15855
16461.9
-9.51061
-9.16669
-8.52114
-8.42903
-8.20006
-7.01332
-6.96037
-7.79537
-7.80243
-5.668
-6.10707
-5.299
-5.28653
457.186
310.888
420.738
545.339
225.252
311.141
460.162
311.814
545.42
418.23
225.023
306.878
30.8392
59.7875
125.377
187.031
30.8854
55.7197
125.595
183.676
678.367
816.845
680.79
817.19
15923.5
15331.1
14744.3
14157.6
13557.5
9795.8
9792.53
9567.4
9528.59
7493.41
8231.63
7416.73
8157.34
7521.25
8240.04
7446.82
8165.94
7177.36
6915.13
7820.28
7265.69
7964.09
7611.35
7201.25
6938.67
7822.85
7311.12
7975.12
7620.69
7819.48
7309.47
7020.63
6920.72
7806.19
7306.8
7013.87
6934.88
6899.99
7360.08
6915.01
7361.56
6788.76
7284.89
6516.46
6934.42
6811.7
7280.2
6533.05
6933.36
16518
-9.53858
-9.08657
-8.86633
-8.86728
-8.73121
-6.89138
-6.81094
-7.92266
-7.88061
-5.32764
-4.18266
-4.87678
-4.71912
-5.4922
-5.95183
-5.97985
-5.27395
-4.86441
-4.8403
47.4954
66.9043
129.859
156.596
43.0493
64.0798
124.483
161.16
16585.8
16002.7
15421.5
14842.9
14270.1
10601.3
10641.4
10171
10176.4
9968.17
9966.89
9512.87
9489.54
7590.61
8290.77
7517.91
8245.02
7601.77
8294.3
7529.39
8245.5
7153.72
7314.66
7539.58
8041.79
7500.41
8286.21
7189.91
7316
8045.1
7547.42
7492.07
8267.53
7585.13
7014.97
7583.95
7031.83
-9.54761
-9.25878
-9.19219
-9.38399
-9.36485
-9.27898
-9.67251
-9.67034
-8.19533
-7.98187
-9.0206
-8.85638
-2.86899
1.79945
-0.780551
-2.74667
-2.78203
-1.34257
-1.61132
-2.57295
-7.28384
-7.44425
-6.90591
-7.35196
-7.30969
-7.41854
-6.99374
-7.47139
39.5089
53.3924
36.8821
50.418
16664.8
16091.4
15521.2
14953.6
14316.1
10382.4
10390.9
10163.2
10143
9730.86
9693.86
8417.4
7731.32
8455.73
7682.16
8412.11
7716.44
8447.7
7665.58
7718.01
8167.37
7698.82
8257.12
7720.7
8154.67
7695.95
8252.5
-9.58244
-9.52642
-9.64478
-10.4026
-10.2425
-10.1043
-10.1273
-10.107
-8.00657
-7.94269
-10.461
-9.72399
-9.9783
-10.3226
-7.886
-7.94229
-10.2834
-9.52684
-9.81018
-9.94949
-10.4493
-10.2257
-5.30449
-4.40757
-6.19724
-4.755
-5.59464
-6.24244
-4.69436
-5.50389
-7.31101
-7.6195
-7.09906
-7.56969
16753.6
16190.5
15629.3
15087.3
11173.8
11211.5
10670.9
10685.2
10374.8
10412
10136.1
10092.4
8057.55
8910.37
7999.75
8820
7780.85
8636.67
8070.43
8903.9
8009.17
8814.06
7761.46
8627.12
7802.96
8769.48
7799.57
8749.67
7829.71
8417.74
7830.49
8403.64
-9.69701
-9.74854
-10.288
-10.4328
-10.434
-10.4543
-10.4759
-11.2055
-10.9747
-10.6556
-10.5788
-8.74228
-8.94961
-11.4406
-10.9558
-11.2998
-11.3241
-8.77294
-9.03486
-11.1406
-10.5979
-11.0785
-10.7361
-11.7015
-12.0945
-11.7076
-12.1379
-11.319
-11.8969
-10.9094
-11.7814
16851.8
16300
15744.6
15123.1
11047.1
11043
10717.4
10690
10340.4
10317.3
8006.19
8818.87
9052.37
8220.65
9043.53
8245.42
9046.39
8206.58
9032.18
8230
8007.13
8809.19
8095.11
7937.44
9134.26
8458.05
8082.69
7954.26
9120.17
8448.4
7886.46
8634.87
7895.41
8617.88
-9.8248
-10.1307
-10.9619
-10.7979
-10.7832
-10.7106
-10.6919
-11.7607
-12.1933
-11.9956
-11.4874
-11.9798
-11.6669
-11.468
-12.0367
-11.9184
-11.3096
-11.8635
-11.5267
-11.0677
-10.9936
-12.0369
-11.8274
-11.7821
-11.3013
-11.8608
-12.4254
-11.4259
-12.1602
16960.6
16418.9
15872.4
11836.4
11853.3
11346.4
11347.3
11239.4
11231.8
10700.5
10665
8577.87
9415.87
8496.83
9328.14
8290.08
9145.26
8602.22
8287.25
9136.91
9415.5
8500.52
9322.84
8252.93
8768.59
8287.23
9335.47
8278.2
8255.47
9326.56
8755.08
-9.94929
-10.5421
-11.4604
-11.1267
-11.1242
-11.0013
-11.0016
-11.784
-12.2009
-11.4892
-11.1139
-11.6608
-11.1036
-11.7586
-12.1513
-11.4739
-11.2108
-11.6737
-11.1412
-11.045
-11.4154
-10.8812
-11.3353
-11.0516
-11.411
-10.9599
-11.3611
-11.9443
-12.4286
-11.8516
-12.306
17076.7
16540.6
15965.1
11835.5
11820.8
11412.5
11373.9
10983.3
10970.2
8458.43
9269.65
9504.11
8754.04
9409.24
8761.11
8475.03
9271.8
9503.84
8745.76
9408.68
8751.41
8516.79
8589.25
9562.59
9205.11
8592.88
9195.26
8516.93
9557.98
-10.0644
-10.9053
-10.9827
-11.0762
-11.0851
-10.9774
-10.8525
-10.8677
-11.3079
-11.1777
-11.529
-11.3156
-11.1843
-11.5302
-11.2689
-11.856
-11.1133
-10.8581
-11.345
-10.7036
-11.4857
-11.8168
-11.1665
-11.0525
-11.4049
-10.8953
-10.9813
-11.5008
-11.0836
-11.5511
17199
16710.7
16076.2
11858.6
11830.5
11405.5
11377.7
9003.06
9837.61
9002.54
9733.78
8795.5
9506.56
9037.76
8800.31
9508.15
9850.3
9024.35
9742.32
8757.63
9247.63
8770.79
9501.93
8775.09
9252.39
8780.15
9502.04
8666.54
9410.93
8675.11
9407.55
-10.2293
-11.2922
-11.2769
-11.1458
-11.2496
-11.1412
-10.9298
-10.9331
-11.5954
-11.8633
-12.0566
-11.5498
-11.7452
-11.9731
-11.4189
-11.78
-11.8945
-11.5802
-12.077
-11.5697
-11.755
-11.9707
-11.3994
-11.765
-11.2357
-10.7952
-11.275
-10.8977
-11.3731
-11.8048
-11.4504
-11.8362
17328.2
16846.9
12442.6
11855.6
11823.2
12449.4
12048.6
12038.8
11021.8
8990.38
9794.19
11034
9026.59
9807.81
9029.29
9111.61
9493.17
9891.36
9035.91
9491.74
9122.88
9893.85
8767.7
9354.09
8985.79
9581.12
8783.27
9353.99
8999.76
9571.43
-10.373
-11.5186
-11.0706
-11.7367
-11.3023
-11.3829
-11.0444
-11.7207
-11.303
-11.3545
-11.1858
-11.1739
-11.7866
-11.3445
-11.7204
-12.2304
-12.0687
-11.8292
-11.8101
-11.7684
-11.3289
-12.2383
-12.0667
-11.8144
-11.6397
-11.2275
-11.682
-11.3317
17459.5
16892.7
12511.1
11679.4
11665.6
12516.5
12153.1
12116.6
9151.03
8979.13
9574.09
8969.65
9618.63
9974.88
9171.33
10071.3
9177.89
9029.29
9590.86
9017.83
9632.28
9986.78
9202.21
10074.5
9154.85
9140.62
9755.72
9839.38
9156.99
9762.84
9157.74
9845.59
-10.4365
-11.0049
-11.404
-11.4
-11.0011
-10.4613
-10.4869
-11.0881
-11.4342
-11.1437
-11.3217
-11.1868
-11.4592
-11.0223
-11.3648
-11.6247
-11.3444
-11.6709
-11.0763
-11.415
-11.128
-11.318
-11.1268
-11.4544
-10.9949
-11.3525
-11.6168
-11.3023
-11.6606
-11.389
-11.0703
-11.8546
-11.5588
-11.4272
-11.0538
-11.8545
-11.5456
17585.2
16957.3
12509.5
11516.1
10071.4
9266.78
11505.5
10079.1
9278.88
12456.5
12098.8
12059.2
9152.18
9242.23
9063.97
9514.21
9840.17
9983.75
9189.99
9250.5
9088.74
9846.34
9532.21
9987.99
9156.95
9789.45
9166.91
9798.46
-10.5714
-11.9008
-11.0166
-11.867
-11.016
-10.3977
-10.413
-10.9136
-10.8444
-11.1154
-11.4277
-11.0571
-11.5021
-12.2273
-11.9191
-12.0179
-11.599
-11.7428
-12.5608
-12.2223
-12.548
-10.895
-10.8338
-11.4212
-11.1027
-11.0179
-11.4844
-11.8757
-12.1708
-12.0179
-11.552
-11.7355
-12.5352
-12.1711
-12.5201
17726.3
13041.2
12570.3
12520.4
13082.2
12725.4
12716
9417.96
9912.82
9362.41
10203.7
9183.25
10326.3
9465.23
10326
9475.77
9921.26
9372.8
10184.8
9198.01
10351.9
9486.12
10326.5
11707.4
9460.46
10299.4
11706
9517.06
10318.1
9206.75
9354.85
9769.76
10282.2
9229.12
9341.18
9777.73
10270.1
-10.4965
-11.9022
-12.7324
-12.3374
-10.973
-11.8679
-12.7112
-12.2755
-10.9764
-10.4195
-10.4461
-10.8682
-11.3342
-11.2849
-11.6765
-12.2609
-12.1811
-11.7304
-12.1291
-12.463
-12.7251
-10.8554
-11.3168
-11.2391
-11.662
-12.1978
-11.6879
-12.0986
-12.1128
-12.4565
-12.6751
17737.2
13049.9
12412.3
12367.2
13085.4
12727.2
12713.6
9366.49
9472.57
10315.1
9944.78
9496.56
10267
9364.12
9486.46
10307.8
9933.02
9510.47
10263.9
9722.39
9547.97
10221.4
9408.99
10195.6
10479.6
9807.5
10682.3
9741.8
9560.34
10215.6
9464.72
10210
10484.6
9817.35
10672
-10.4901
-10.3572
-10.3871
-11.692
-12.7693
-12.2202
-12.6127
-12.4635
-10.9247
-11.6538
-12.7497
-12.1847
-12.5895
-12.3789
-10.9418
-12.2699
-12.1131
-12.1352
-12.6533
-12.5826
-12.6408
-12.2388
-12.1359
-12.0664
-12.6322
-12.5825
-12.6129
17874.7
13014.5
12406.2
10564.7
9796.19
12354.4
10559.2
9785.47
13048.4
12749.3
12744.2
9528.17
10191.1
9642.47
10630.6
9525.81
10163.7
9629
10601.5
9832.26
9869.19
9657.56
10241.9
10555.9
10590
9839.09
9856.72
9637.42
10556
10243.2
10589.1
-10.5523
-10.4391
-10.5288
-10.4634
-10.5546
-11.3866
-12.4416
-12.2188
-12.5963
-12.1213
-11.9935
-12.5559
-11.0194
-11.3462
-12.4045
-12.2047
-12.5761
-12.1107
-11.9642
-12.5423
-11.0245
-12.2434
-12.7057
-12.2555
-12.6994
17874.2
12964.4
12997
12414.3
10388.9
9779.01
10348.4
9816.79
12365.4
10391.1
9778.3
10347.9
9810.45
12709.7
12700.7
9927.74
9727.83
10035.6
10467.1
10278.3
10671.7
9959.88
9732.17
10027.3
10289.3
10472.9
10674.3
-10.5556
-10.5531
-10.5519
-10.5784
-10.5773
-11.12
-11.1543
-11.3475
-12.3182
-11.9771
-12.2878
-11.9709
-12.4516
-11.9148
-12.4843
-11.958
-12.1977
-12.5914
-11.3267
-12.2831
-11.9472
-12.2656
-11.9486
-12.4357
-11.9106
-12.4758
-11.9832
-12.1863
-12.5871
17874.7
12951.5
12946.6
12986.8
12984.3
12325.4
10245.4
9785.04
10341.7
9697.43
10005.9
10693.7
12277.4
10246
9796.24
10340.4
9701.42
10011.4
10696.8
12745
12734.5
9983.51
10567.7
10025
10574.9
-10.4792
-10.4431
-10.3757
-10.4596
-10.3912
-11.2246
-11.244
-11.2575
-11.2551
-11.5705
-11.5264
-12.2496
-11.9717
-12.2822
-11.8922
-12.3215
-11.7757
-12.4196
-11.6818
-12.5669
-12.081
-12.4613
-12.1125
-12.1996
-11.9443
-12.2598
-11.8847
-12.3009
-11.8113
-12.426
-11.6348
-12.5679
-12.1196
-12.471
-12.1536
17875
12944.5
12947.3
12982.6
12983.7
12723.9
12723.9
12310.7
10340.4
9668.51
10360.9
9691.82
10465.8
9986.49
10643.6
9895.17
9991.12
10586.6
12268.6
10342.8
9678.14
10361.4
9687.8
10469.9
10010.4
10649.7
9909.87
10025.1
10587.2
-10.3832
-10.2915
-10.3546
-10.3043
-10.3753
-11.1289
-10.9937
-11.1412
-10.9947
-11.7715
-11.8262
-11.7269
-11.7898
-12.4444
-12.2041
-12.5983
-12.0921
-12.4016
-12.2293
-12.5927
-12.0257
-12.3752
-11.8638
-12.4382
-11.8331
-12.3708
-11.9327
-12.4446
-11.8584
17739
12955
13003.6
12988.8
13037
12721.2
12739.3
12722.1
12730.9
12340.4
12301.2
10423.6
9698.9
10432.2
9712.06
10731.5
9879.77
10803.1
9906.24
10428.5
9941.17
10593.4
9847.43
10421.9
9710.05
10429.6
9705.59
10728
9887.16
10800
9895.02
10431.6
9981.36
10601.4
9871.94
-11.3987
-10.3863
-10.8072
-10.7277
-10.8178
-10.7257
-11.7056
-11.5732
-11.6765
-11.5457
-12.7538
-12.2823
-12.6738
-12.3648
-12.8372
-12.5928
-12.9012
-12.493
-12.7051
-12.3017
-12.6605
-12.3464
-12.8042
-12.5741
-12.8875
-12.4549
-12.564
-12.1153
-12.6869
-12.0176
-12.5644
-12.1559
-12.7007
-11.994
17729.6
13035.1
13028.7
13069.7
13065.1
12698.6
12738.2
12693.8
12731
12337.7
12303.9
12299.2
12264.9
10421.5
9732.53
10457.7
9720.37
10415.3
9720.85
10447.1
9710.74
10884.5
9911.28
10905.2
9909.65
10873.7
9918.58
10895.1
9900.38
-11.3487
-11.3762
-11.6513
-11.3562
-11.6231
-10.2513
-11.3801
-11.3344
-11.3322
-11.3001
-12.6461
-12.4726
-12.7966
-12.3151
-12.6137
-12.0559
-12.296
-12.3893
-12.6178
-12.4661
-12.7881
-12.2857
-12.5945
-11.9781
-12.2463
-12.3187
-12.9567
-12.2156
-12.789
-12.4185
-13.1844
-12.6995
-13.2259
-12.6864
-12.9505
-12.2793
-12.8133
-12.3946
-13.1927
-12.7214
-13.225
-12.6564
17587.6
16962.5
12709.5
12715.6
12697.8
12694
12313.2
12403
12269
12349.1
10416.5
9730.07
10454.4
9714.39
10415.5
9686.4
10421.6
9703.55
10409.9
9718.63
10444.1
9704.91
10413.8
9700.67
10419.6
9698.36
10867.5
9917.71
10876.3
9917.4
10857.4
9916.04
10865.2
9908.32
-11.009
-11.6084
-11.7164
-11.606
-11.7195
-11.7021
-12.0747
-11.7046
-12.026
-10.0843
-12.1208
-11.7936
-12.1046
-11.8316
-12.0758
-12.0001
-12.2795
-11.702
-12.1091
-11.7369
-12.0657
-11.7619
-12.061
-11.9471
-12.2492
-11.652
-12.8622
-12.5153
-13.1026
-12.2826
-12.7589
-11.7212
-12.2406
-12.3448
-12.8656
-12.5705
-13.12
-12.2524
-12.7567
-11.7522
-12.2353
-12.3121
17464.1
16894.2
12548.7
12485.3
12493.5
12433.2
12386.3
12395.6
12331.4
12340.7
10321.9
9653.91
10345.9
9670.53
10227
9758.88
10316.8
9678.62
10324.8
9664.94
10345.3
9674.11
10226.5
9769.75
10313.5
9679.58
10862.5
9915.63
10873.5
9911.71
10875.9
9896.15
10892.9
9900.55
10852
9914.07
10862.5
9902.53
10864.9
9910.13
10884.4
9892.66
-11.7814
-10.5919
-12.1437
-12.1673
-12.1271
-12.1378
-12.4246
-11.8259
-12.5594
-12.6201
-12.7212
-12.2169
-12.7449
-12.9926
-12.7518
-12.9659
-12.3746
-11.7496
-12.5463
-12.5731
-12.7237
-12.1792
-12.7153
-12.9842
-12.7068
-12.9563
-9.97407
-11.9377
-11.4718
-11.9754
-11.4536
-11.9672
-11.3829
-11.9319
-11.4377
-11.9529
-11.3687
-11.9447
-11.3816
-12.8434
-11.7628
-12.2154
-12.4193
-12.8241
-11.7929
-12.219
-12.4064
17335.4
16851.3
12483.7
12411.9
12492.5
12417
11678.7
12073
11680.4
12036.6
10357.5
9748.68
10319.6
9782.78
10529.6
9776.17
10650.2
9757.7
10358
9745.38
10316
9776.69
10526.7
9781.07
10642.8
9750.63
10710
9860.66
10786
9874.55
10442.7
9963.63
10614
9874.71
10709.5
9874.12
10782.5
9883.25
10445.3
9969.79
10616.3
9879.95
-11.0722
-12.4379
-12.0926
-12.4106
-12.0737
-10.1083
-12.5629
-12.8556
-12.5212
-12.8145
-11.9695
-12.437
-12.313
-12.8748
-12.7076
-13.046
-12.7851
-13.0855
-12.7246
-13.1318
-11.9303
-12.4577
-12.3064
-12.8711
-12.6495
-13.0164
-12.7573
-13.0874
-12.6623
-13.1068
-9.82409
-11.7713
-11.405
-11.8292
-11.3063
-11.8958
-11.3868
-11.7515
-11.4221
-11.833
-11.3258
-11.8958
-11.4379
17207.6
16716.8
16077.6
12119.3
12016.7
12088.2
12005.6
9474.55
9694.69
10162.2
9343.69
10135.2
10444.2
9364.48
10276.3
9404.41
10246.5
9689.44
9526.89
10165.4
9426.2
10161.3
10447
9425.31
10302.2
9469.67
10267.5
10633.7
9971.55
10659.3
9994.62
10549.6
9832.79
10636.7
9975.56
10661
9992.86
10548.3
9809.45
10408.5
9921.41
10564.7
9828.83
10408.7
9939.51
10568.4
9841.37
-10.2837
-11.3885
-11.0357
-11.3601
-11.0514
-13.0519
-12.4431
-13.0518
-12.4022
-9.72483
-13.8735
-13.4305
-13.4434
-13.6758
-14.3592
-13.9721
-14.2153
-14.0845
-13.8288
-13.3844
-13.4422
-13.5982
-14.3392
-13.9234
-14.1928
-13.9811
-12.1773
-12.6765
-12.8134
-13.0533
-12.7421
-13.1571
-12.197
-12.664
-12.7829
-13.0353
-12.6786
-13.1051
-9.72172
17088.6
16549
15967.9
11817.2
11819.2
11783.3
11793.2
11480.9
11645.9
11467.7
11629.4
9767.43
9592.8
10505.4
10192.9
9593.17
10583.6
9416.88
10280.2
9443.5
10214.4
9808.64
9594.84
10201.5
10513.3
9582.45
10557.5
9436.65
10279.6
9460.06
10212
10525.9
9962.53
10554.3
9948.88
10422.3
9888.51
10532.8
9980.55
10552.6
9978.24
10431.1
9909.9
-10.3631
-9.68416
-11.6159
-10.9756
-11.5899
-10.9962
-14.3751
-14.271
-14.4332
-13.8778
-13.967
-14.5809
-12.9298
-13.1504
-13.3277
-13.5754
-14.3441
-14.2033
-14.4362
-13.8307
-13.9652
-14.5597
-12.8961
-13.1433
-13.2665
-13.5574
-9.56852
-14.4351
-13.4071
-13.8356
-14.0369
-14.873
-14.4201
-14.4277
-13.3477
-13.8331
-13.946
-14.8536
-14.3179
-9.5924
16976.5
16431.1
15877.1
11794.2
11792.8
11781.8
11812.6
10973.7
11362.3
10985
11335.6
9857.83
9305.74
10148.1
9126.79
10013.5
9115.04
10017.1
9208.97
9865.35
9314.79
10129.1
9141.04
10021.7
9141.21
10018.4
9221.23
9657.27
10232.4
9419.31
9890.96
9474.11
10134.3
9704.85
10249.2
9435.36
9880.67
9477.47
10107.1
-9.49546
-10.5988
-10.3351
-10.6035
-10.3763
-9.20888
-11.8168
-11.1185
-11.7994
-11.1065
-14.5799
-14.5312
-14.824
-15.0082
-13.9518
-14.3081
-12.9178
-13.2585
-13.3382
-13.7866
-14.5159
-14.4807
-14.791
-14.9799
-13.8993
-14.2902
-12.8862
-13.2693
-13.3061
-13.7714
-9.30046
-15.1261
-14.6754
-15.1066
-14.6179
-9.49135
16873.2
16315.6
15752.9
15124.5
11366.7
11302.5
11329.1
11304.7
8911.93
9094.93
9509.45
8901.27
9554.05
9914.64
8933.82
9772.1
8918.29
9724.49
9115.05
8957.04
9525.95
8945.39
9567.74
9925.66
8966.6
9783.62
8952.91
9737.01
10230.8
9311.31
10266.5
9301.13
9922.89
9183.5
10221
9311.08
10253.7
9291.13
9927.41
9191.17
-8.96306
-9.11818
-10.3906
-10.0364
-10.3918
-10.0623
-8.89115
-12.4632
-12.4879
-12.6756
-12.2353