/*--------------------------------*- C++ -*----------------------------------*\
| =========                 |                                                 |
| \\      /  F ield         | OpenFOAM: The Open Source CFD Toolbox           |
|  \\    /   O peration     | Version:  5.x                                   |
|   \\  /    A nd           | Web:      www.OpenFOAM.org                      |
|    \\/     M anipulation  |                                                 |
\*---------------------------------------------------------------------------*/
FoamFile
{
    version     2.0;
    format      ascii;
    class       volScalarField;
    location    "0.1";
    object      p_rgh;
}
// * * * * * * * * * * * * * * * * * * * * * * * * * * * * * * * * * * * * * //

dimensions      [1 -1 -2 0 0 0 0];

internalField   nonuniform List<scalar> 
12160
(
5095.15
5238.36
5106.24
5272.97
5244.15
5129.88
5263.78
5276.37
5256.1
5158.71
5275.8
5265.65
5283.05
5270.02
5215.55
5259.26
5276.25
5269.24
5291.11
5299.58
5274.17
5255.83
5259.47
5277.03
5273.55
5308.31
5320.22
5354.44
5248.84
5255.68
5259.81
5277.66
5282.77
5317.99
5351.97
5480.81
5243.43
5248.62
5255.34
5260
5280.33
5285.52
5338.98
5392.87
3380.84
5239.15
5243.2
5248.15
5254.63
5261.41
5278.28
5294.72
5359.37
1537.65
369.103
5235.86
5238.94
5242.72
5247.34
5254.39
5259.65
5280.59
5300.09
1203.56
53.382
2.31537
5233.38
5235.68
5238.52
5241.94
5246.71
5251.87
5260.87
5278.14
648.233
19.0849
-0.123107
-0.595508
5231.52
5233.24
5235.34
5237.85
5241.2
5244.51
5251.3
5258.63
444.576
3.07671
-0.113128
-0.194959
-0.353432
5230.14
5231.42
5232.97
5234.8
5237.16
5239.38
5243.65
5247.53
279.034
1.00885
-0.0225565
-0.117021
-0.140894
-0.22063
5229.12
5230.07
5231.21
5232.55
5234.22
5235.72
5238.48
5240.27
182.048
0.259261
0.0226385
-0.0294057
-0.0905344
-0.0859485
-0.0721083
5228.34
5229.06
5229.92
5230.9
5232.09
5233.12
5234.92
5235.63
119.034
0.0842682
0.0103025
0.0102362
-0.0272328
-0.0575801
-0.0284765
5227.75
5228.3
5228.96
5229.7
5230.55
5231.27
5232.45
5232.63
78.4652
0.0323577
0.0114278
0.0050025
0.00324492
-0.0189095
-0.0200434
5227.31
5227.72
5228.23
5228.8
5229.44
5229.95
5230.75
5230.68
52.0822
0.0185474
0.00956433
0.00736556
0.00172352
0.000242719
-0.00702121
5226.99
5227.28
5227.68
5228.13
5228.62
5229
5229.56
5229.4
34.8067
0.0168842
0.0103394
0.00683398
0.00426847
0.000234499
-0.000386582
5226.82
5226.98
5227.26
5227.62
5228.01
5228.32
5228.72
5228.56
23.4169
0.0190867
0.0132121
0.00806179
0.00449778
0.00214174
-0.000129202
5226.78
5226.81
5226.98
5227.24
5227.56
5227.82
5228.13
5227.99
15.8558
0.0218283
0.0170543
0.0108831
0.00580755
0.00256498
0.000620546
5226.88
5226.78
5226.82
5226.98
5227.22
5227.45
5227.7
5227.61
10.8066
0.0230559
0.0202638
0.0143215
0.00818406
0.00355925
0.000847503
5227.09
5226.88
5226.79
5226.83
5226.99
5227.17
5227.39
5227.35
7.41201
0.0218792
0.021632
0.0169964
0.0108844
0.00515024
0.00123986
5227.38
5227.1
5226.89
5226.81
5226.86
5226.99
5227.17
5227.17
5.11544
0.0188696
0.0207071
0.0178751
0.0128703
0.00686499
0.00181392
5227.67
5227.38
5227.09
5226.89
5226.83
5226.88
5227.02
5227.05
3.55335
0.0153038
0.0181079
0.0166911
0.0133855
0.00805594
0.00240347
5227.91
5227.68
5227.35
5227.06
5226.89
5226.84
5226.93
5226.96
2.48024
0.0122678
0.0150586
0.0141925
0.0123362
0.00827557
0.00278634
5228.04
5227.91
5227.62
5227.29
5227.03
5226.88
5226.88
5226.9
1.75538
0.00978766
0.0125154
0.0115748
0.0103901
0.00752987
0.00281954
5228.04
5228.02
5227.83
5227.53
5227.21
5226.97
5226.88
5226.86
1.24537
0.00644735
0.0103745
0.00962134
0.00850752
0.00629599
0.00252982
5227.93
5228
5227.93
5227.71
5227.39
5227.09
5226.91
5226.82
0.890268
0.000508228
0.00703211
0.00800513
0.00721061
0.00519712
0.00210434
5227.79
5227.87
5227.89
5227.78
5227.53
5227.22
5226.97
5226.8
0.642861
-0.00853706
0.000958994
0.00523021
0.00609671
0.00450792
0.00176396
5227.72
5227.71
5227.76
5227.74
5227.59
5227.32
5227.04
5226.79
0.477376
-0.0184587
-0.00814661
-0.00017938
0.0038848
0.00387006
0.00158018
5227.82
5227.66
5227.62
5227.62
5227.56
5227.37
5227.1
5226.8
0.376242
-0.0243831
-0.0177974
-0.00823638
-0.000546331
0.00239943
0.00138752
5228.11
5227.77
5227.58
5227.51
5227.46
5227.34
5227.13
5226.82
0.330202
-0.0207758
-0.0231237
-0.0164929
-0.00702179
-0.000597068
0.000851184
5228.57
5228.09
5227.72
5227.5
5227.39
5227.29
5227.14
5226.85
0.332313
-0.00450558
-0.0190081
-0.0205803
-0.0134001
-0.00487143
-0.000260056
5229.13
5228.55
5228.03
5227.63
5227.39
5227.24
5227.13
5226.89
0.370999
0.0228536
-0.00298823
-0.0162165
-0.0161847
-0.00890762
-0.00180983
5229.73
5229.06
5228.45
5227.92
5227.52
5227.26
5227.12
5226.91
0.436952
0.0550322
0.0229455
-0.00167866
-0.012206
-0.0104266
-0.00321743
5230.42
5229.6
5228.9
5228.28
5227.75
5227.36
5227.15
5226.92
0.522363
0.0827762
0.0527103
0.020921
-0.000457204
-0.00752221
-0.00367883
5231.37
5230.22
5229.35
5228.64
5228.03
5227.52
5227.21
5226.91
0.625108
0.0976892
0.0774078
0.0461014
0.0171493
0.000244585
-0.00257525
5232.74
5231.12
5229.91
5229.01
5228.31
5227.71
5227.31
5226.9
0.750013
0.0935751
0.0900148
0.0665838
0.0362885
0.0115081
0.000186925
5234.68
5232.5
5230.76
5229.49
5228.59
5227.89
5227.42
5226.88
0.911591
0.0689285
0.0846567
0.0761886
0.0514816
0.0234934
0.00410147
5234.47
5238.78
5232.09
5230.26
5228.99
5228.1
5227.55
5226.88
1.13281
0.0277066
0.060016
0.0702013
0.0580467
0.0328086
0.00822435
5233.95
5238.44
5246.72
5231.49
5229.68
5228.42
5227.73
5226.91
1.44533
-0.0203138
0.0201279
0.0475006
0.0523568
0.0364999
0.0114303
5233.18
5237.65
5246.09
5257.94
5230.75
5228.97
5228.01
5226.98
1.88651
-0.0608974
-0.0250985
0.0119467
0.0336234
0.0322278
0.0126586
5232.19
5236.46
5244.72
5256.84
5273.65
5229.82
5228.46
5227.1
2.49373
-0.0795216
-0.0613428
-0.0270707
0.00522297
0.0195302
0.0110535
5230.91
5234.92
5242.7
5254.67
5271.96
5295.8
5229.09
5227.25
3.30177
-0.0680204
-0.0745622
-0.0563052
-0.0248006
0.000877376
0.0064147
5229.87
5232.95
5240.13
5251.52
5268.72
5293.34
5326.36
5227.43
4.34148
-0.0305566
-0.0581444
-0.0635855
-0.0455332
-0.0180551
-0.00031836
5227.62
5231.3
5236.87
5247.56
5264.06
5288.61
5322.81
5368.04
5.64115
0.0155929
-0.018507
-0.0446012
-0.0477234
-0.0299388
-0.00698366
7.25915
5227.95
5234.19
5242.53
5258.2
5281.8
5315.89
5362.5
5419.66
0.0469264
0.025411
-0.0072774
-0.0293598
-0.0290975
-0.0108596
0.0456432
10.5256
5228.73
5238.5
5250.73
5273.24
5305.96
5352.05
5412.04
5500.76
0.0504432
0.0300587
0.00151558
-0.0151855
-0.00996156
0.0417708
-0.00355686
17.8967
5230.05
5244.82
5262.31
5293.59
5337.52
5397.17
5483.78
5544.49
0.0474194
0.0294133
0.00547818
-0.00438403
0.0347159
-0.010321
-0.0765825
29.471
5232.13
5253.75
5277.94
5319.91
5376.69
5457.13
5542.99
5766.48
0.0392618
0.022316
0.00331123
0.0254527
-0.0142821
-0.0817711
-0.120175
46.8287
5235.28
5265.76
5298.12
5352.35
5425.36
5512.39
5683.77
5821.78
5937.33
0.0261122
0.00911215
0.0147695
-0.0146605
-0.0766985
-0.121226
-0.110712
71.7758
5239.78
5281.2
5322.96
5390.87
5473.77
5604.69
5727.23
5872.58
5958.09
6056.63
0.00974561
0.00481463
-0.0114433
-0.0626899
-0.107525
-0.108686
-0.0550537
106.075
5245.97
5300.02
5351.9
5430.55
5535.04
5644.09
5772.48
5903.58
5986.38
6074.4
6173.52
-0.00451183
-0.0415182
-0.0835747
-0.0928322
-0.0569818
0.0184109
151.001
5254.03
5321.41
5381.74
5472.29
5568.85
5681.86
5800.6
5929.03
6014.08
6097.97
6186.44
6279.9
-0.0149658
-0.0528182
-0.0695252
-0.0480017
-0.000461577
0.0861123
206.549
5263.81
5343.28
5410.69
5499.25
5598.55
5706.1
5829.2
5942.08
6040.45
6124.8
6206.61
6290.89
6377.41
-0.0184509
-0.0423729
-0.0354084
-0.00404392
0.0315879
0.152858
270.395
5274.54
5363.13
5430.76
5521.67
5618.55
5732.03
5820.72
5947.18
6068.54
6154.01
6232.74
6309.91
6387.56
6466.09
-0.0144114
-0.0211802
-0.00481485
0.0172868
0.0330383
0.251669
337.521
5284.51
5377.63
5447.07
5537.29
5638.69
5718.71
5885.32
4596.98
6078.01
4613.68
4589.74
4605.19
6186.65
6263.9
6336.58
6406.38
6475.92
6546.06
-0.00706001
-0.00324095
0.0089044
0.0144247
0.015137
0.417589
396.98
5292.47
5389.16
5458.34
5550.47
5626.89
5771.97
5750.31
4609.11
4558.15
6226.51
4625.64
4594.15
4613.3
4549.14
4578.8
4571
6297.41
6370.24
6434.35
6495.15
6555.94
6617.24
-0.000832856
0.00500643
0.0050268
-0.00505232
-0.0108762
0.633383
442.573
5299.01
5396.67
5465.65
5541.83
5663.17
5671.81
4709.78
4695.94
4715.14
4707.91
4576.35
4598.54
6351.29
6287.1
4567.14
4563.84
4555.14
4575.77
4655.26
4633.49
6407.39
6470.64
6524.43
6576.09
6627.46
6679.59
0.0025228
0.00124589
-0.0161013
-0.0371483
-0.0386749
0.858442
480.141
5303.4
5399.7
5458.56
5554.61
5597.41
4754.35
4742.06
4790.25
4779.11
4538.69
4533.53
4645.56
4642.82
4597.22
4020.35
3677.93
3954.14
3738.08
6473.39
6353.14
4512.91
4501.79
4587.93
4571.17
4571.6
4558.13
4538.87
4020.06
3682.44
3953.39
3740.52
4092.08
3801.68
4160.17
3715.85
4089.51
3801.54
4151.85
3716.53
6513.5
6563.47
6606.51
6648.6
6690.33
6733.07
0.000808118
-0.0195507
-0.0551353
-0.0754367
-0.0646907
1.07867
507.571
5305.59
5395.46
5451.78
5517.99
4822.62
4811.93
4843.14
4834.25
4659.16
4652.41
4715.89
4706.79
3840.2
3791.76
4195.12
3870.37
4177.91
4105.25
3794.34
3846.27
4192.64
3878.09
4178.74
4099.88
3962.23
4256.3
3920.16
4223.19
3970.31
4257.48
3927.47
4224.18
3895.53
3650.01
3924.41
3607.5
4206.74
3809.16
4174.17
3853.77
6588.87
6471.63
4449.33
4429.23
4479.57
4462.8
4487.46
4486.05
4384.22
4375.98
3896.85
3654.02
3923.64
3610.69
3968.93
3461.25
3890.75
3556.36
3968.8
3465.11
3883.78
3559.03
4203.96
3813.34
4171.7
3857.73
4186.48
3807.06
4182.15
3804.92
6608.69
6648.17
6680.12
6712.18
6744.15
6777.43
-0.00994786
-0.056552
-0.097376
-0.106561
-0.085354
1.21945
521.882
5304.54
5378.98
5419.26
4862.73
4860.2
4891.97
4892.76
4758.01
4749.24
4831.08
4818.81
4000.49
4286.36
4046.78
4316.7
4012.71
4290.15
4064.09
4321.86
4164.2
4389.65
4106.92
4347.43
4180.33
4396.16
4121.98
4353.54
3879.11
3862.54
4306.49
4151.76
3900.55
4316.62
3882.61
3868.19
4147.3
4305.37
3905.52
4315.65
4009.81
4411.13
3953.81
4365.97
4015.7
4409.27
3958.71
4364.53
4124.84
3780.56
4155.88
3731.81
4183.37
3856.89
4162.07
3885.63
6691.08
6625.36
4396.87
4378.1
4437.43
4416.44
4389.62
4373.08
4407.42
4398.14
3299
3677.52
3382.19
3755.46
3316.53
3682.3
3398.08
3759.77
3464.73
3431.13
3811.64
3422.48
3790.29
3882.58
3475.56
3443.05
3813
3435.33
3793.58
3880.04
4123.57
3784.52
4153.74
3736.19
4095.07
3626.98
4093.44
3628.82
4176.45
3848.69
4155.3
3874.86
4175.84
3884.93
4169.83
3877.75
6701.23
6723.97
6744.46
6766.35
6788.52
6812.57
-0.0275564
-0.0860718
-0.117686
-0.120679
-0.145952
1.26586
522.222
5297.47
5364.26
4924.57
4925.92
4955.11
4957.86
4877.24
4866.36
4901.61
4894.74
4214.28
4429.86
4266.12
4487.48
4228.29
4435.84
4281.58
4492.64
4359.57
4587.21
4271.07
4537.17
4362.34
4588.5
4279.96
4540.64
4064.85
4447.17
4114.76
4469.75
4069.37
4444.64
4119.74
4466.74
4225.61
4518.83
4161.79
4476.48
4238.6
4519.11
4168.74
4476.04
4107.61
3823.41
4138.69
3774.14
6772.38
6683.4
4356.49
4365.05
4369.15
4360.73
4389.03
4355.99
4388.39
4366.41
3130.94
3483.24
3151.31
3506.98
3167.3
3497.71
3183.74
3520.49
3240.86
3633.27
3185.98
3583.13
3260.09
3640.89
3215.21
3592.11
3395.04
3935.14
3426.72
3949.53
3408.25
3935.24
3438.54
3950.2
3585.79
3488.33
3964.47
3886.06
3449.15
3951.86
3588.44
3500.62
3964.24
3882.66
3458.91
3952.94
4101.77
3817.76
4132.17
3768.95
4051.62
3704.32
4046.18
3703.51
6780.64
6789.57
6799.11
6810.84
6823.63
6838.75
-0.0363847
-0.0852874
-0.111476
-0.169597
-0.152662
1.09968
490.929
5285.45
5256.48
4912.87
4906.92
4932.46
4935.1
4818.72
4817.26
4866.49
4862.16
4277.07
4559.48
4328.83
4601.37
4285.96
4559.76
4337.19
4601.33
4362.26
4578.63
4322.17
4609.1
4364.9
4577.21
4324.49
4608.41
4262.35
4537.43
4273.67
4537.25
6851.48
6833.56
4377.35
4398.94
4384.29
4394.58
4328.51
4314.31
4438.84
4406.82
2971.05
3524.11
3045.62
3583.99
2993.31
3531.17
3074.91
3595.73
3117.88
3475.67
3083.14
3497.19
3148.98
3489.16
3121.25
3509
3327.94
3766.26
3345.42
3809.55
3349.36
3767.84
3352.92
3806.01
3378.81
3928.38
3368.17
3914.94
3388.19
3926.81
3375.07
3912.68
6847.43
6844.87
6843.89
6846.28
6850.11
6856.37
-0.0294097
-0.0678309
-0.138101
-0.189554
-0.3424
0.827523
447.474
5241.23
5004.89
5002.34
5034.71
5035.18
4931.36
4924.22
4968.03
4966.75
4644.85
4415.89
4618.14
4453.4
4644.65
4417
4617.17
4454.92
4676.84
4540.53
4716.63
4496.9
4677.03
4543.91
4716.88
4498.95
4312.61
4562.58
4359.14
4586.71
4319.47
4562.21
4362.93
4586.45
4404.78
4599.61
4383.69
4595.46
4410.38
4598.71
4385.7
4594.79
6918.44
6924.92
6934.07
4223.53
4236.25
4291.87
4257.83
4351.32
4338.19
4264.66
4253.74
2996.13
3534.77
3154.19
3718.66
3006.61
3534.58
3167.93
3721.27
3307.24
3773.1
3273.79
3774.01
3323.81
3773.98
3288.55
3773.81
3348.17
3767.07
3371.06
3767.71
6902.28
6889.95
6879.97
6873.13
6868.07
6865.5
-0.0241812
-0.0889894
-0.127061
-0.325814
-0.310728
0.451672
159.88
5039.58
4965.94
4961.88
5017.56
5014.34
4555.36
4747.95
4780.42
4631.18
4558.73
4749.11
4781.34
4632.36
4925.94
4920.89
4728.97
4428.61
4698.94
4469.88
4727.05
4429.06
4696.15
4468.36
4748.98
4567.91
4789.1
4523.54
4747.57
4569.73
4787.42
4523.61
4413.67
4650.34
4418.98
4648.33
6972.74
6998.83
7060.63
4325.97
4332.56
4375.38
4350.08
4394
4381.85
4404.32
4358.47
3372.65
2873.24
3322.7
2957.5
3372.8
2904.36
3328.96
2968
3434.59
3057.2
3459.76
2999.07
3435.24
3067.73
3458.18
3014.14
3204.18
3529.92
3305.36
3688.41
3211.79
3531.02
3313.51
3691.68
3368.45
3774.45
3355.28
3774.76
3385.24
3776.13
3368.48
3776.27
6947.73
6925.88
6907.41
6890.81
6876.63
-0.0457831
-0.118487
-0.248343
-0.328697
-0.734634
-0.134433
-0.827044
5023.18
5022.94
3731.17
3731.57
4759.57
4898.36
4801.94
4917.63
4761.28
4898.69
4806.25
4918.53
5017.4
5016.61
4581.57
4804.62
4791.61
4629.55
4586.09
4803.08
4791.26
4635.7
4728.58
4873.8
4689.64
4841.21
4731.2
4872.86
4691.54
4840.12
4750.59
4577.49
4777.12
4535.46
4748.89
4580.54
4775.55
4539.19
7016.78
7055.81
7127.32
7112.13
4428.65
4393.58
4207.57
4179.22
4242.12
4209.54
2837.86
3386.3
3319.2
2766.29
2859.66
3402.28
3325.77
2762.17
3511.19
3020.84
3534.78
3046.02
3510.96
3035
3536.46
3051.63
3643.42
3143.11
3656.02
3086.9
3638.87
3148.12
3651.19
3085.13
3224.42
3623.44
3241.59
3622.46
6983.45
6952.84
6924.79
6899.57
-0.0597829
-0.206202
-0.238298
-0.5651
-0.65128
-1.50611
0.230871
-3.86576
-2.36644
-2.45858
4994.57
4997.07
3668.37
3691.91
4765.77
4926.81
4803.05
4927.49
4768.08
4925.92
4808.37
4927.48
4963.16
4889.21
4981.86
4850.59
4963.11
4892.42
4981.91
4853.87
4621.89
4799.23
4814.96
4659.95
4622.14
4798
4813.68
4660.26
4737.65
4906.4
4689.78
4876.91
4741.52
4905.35
4690.1
4875.4
7052.08
7098.96
7158.19
7184.89
4303.79
4287.39
4400.33
4379.07
4103.53
4097.76
2732.57
3349.95
2561.65
3210.27
2748.4
3360.53
2585.31
3214.3
2774.27
3258.12
2841.53
3271.72
2771.74
3359.65
2814.24
3266.91
2865.96
3273.46
2764.57
3354.32
2916.88
3522.4
2927.6
3526.06
3561.45
3075.43
3520.86
3087.87
3561.13
3097.03
3525.47
3101.79
7009.3
6969.77
6933.85
-0.0735024
-0.221011
-0.406129
-0.422671
-0.873361
-1.73697
9.03478
1.94136
1.5917
1.47564
4959
4907.72
5046.98
4997.32
5064.1
4995.93
4912.28
4959.95
4997.75
5046.7
4996.5
5063.2
2625.94
2713.53
4668.56
4828.92
2561.98
2623.93
4657.4
4810.62
4791.17
4924.48
4827.22
4944.33
4793.51
4923.82
4829.46
4944.17
4990.69
4851.36
4991.42
4853.17
4846.73
4666.13
4844.88
4665.97
4755.23
4907.97
4759.49
4906.95
7077.49
7132.24
7193.54
7258.78
4288.56
4304.49
4352.66
4334.94
4160.9
4136.36
3930.09
3933.18
3202.08
2392.2
3094.17
2580.67
3243.7
2597.99
3211.04
2449.29
3112.17
2604.14
3246.65
2610.93
2785.4
3452.6
2797.14
3453.11
2883.36
3409.42
2929.94
2974.55
3429.03
3343.69
2902.28
3410.73
2930.31
2995.89
3420.44
3344.81
3072.16
3501.37
3085.37
3503.07
7026.04
6978.93
-0.0276078
-0.337717
-0.346369
-0.909559
-1.34039
-0.992811
-0.93981
-1.44128
-1.44832
30.4561
8.30425
0.390871
0.403244
4929.15
4966.54
5076.24
5017.43
5005.86
5093.71
4932.23
4967.34
5017.58
5073.4
5007.33
5089.46
2447.34
3066.08
4614.17
4926.64
2528.17
2941.14
4686.13
4920.03
4830.15
4968.57
4832.58
4969.11
7094.53
7156.22
7223.93
7293.72
7357.3
4093.54
4090.32
4197.42
4158.64
2384.8
3122.92
2477.7
3218.28
2412.66
3131.39
2507.8
3226.89
2560.02
2476.22
3202.92
2490.18
3188.54
3172.42
2583.9
2499.75
3205.48
2535.61
3199.6
3181.75
3530.85
3188.93
2731.95
2800.17
3517.5
3186.22
2725.2
2814.34
2927.97
3388.06
2942.98
3389.53
2956.02
3452.15
3011.59
3429.5
2978.96
3447.48
3028.15
3428.45
7035.02
-0.0555879
-0.257653
-0.691958
-1.34983
-1.88174
-0.889046
-0.799892
-1.58134
-1.53933
0.104613
78.519
113.71
0.713303
-0.0600124
17.9777
49.3746
0.158352
0.810808
0.861515
3515.34
3981.68
4994.92
5085.2
3180.77
3916.11
4956.95
5082.9
7102.77
7173.74
7246.72
7323.39
7410.64
4247.26
4287.26
4150.48
4155.93
4278.32
4277.12
4154.77
4131.49
2488.67
3188.8
2588.62
3315.72
2499.81
3192.32
2600.1
3316.18
2681.75
2658.84
3067.6
3385.99
2717.76
3503.59
2717.92
2660.22
3389.32
3075.46
2709.44
3484.93
3433.28
2863.11
3432.06
2879.99
-0.0646235
-0.43
-1.01862
-1.86985
-2.69393
-2.6081
-2.66183
-2.65964
-2.21406
-1.94293
-2.69477
-2.53076
2.56121
123.819
60.8106
2.68705
2.66443
95.0309
35.1832
2.87743
-1.55191
-1.63993
-1.34065
-1.712
-1.54028
-1.30465
-1.38478
-1.53921
3578.43
4484.63
3709.77
4283.74
7181.85
7262.44
7346.83
7436.11
7466.66
4041.08
4049.67
4160.94
4140.76
4061.35
4024.37
2985.16
2462.08
3186.45
2249.78
2979.9
2447.16
3178.41
2233.25
2612.32
3061.65
2739.89
3298.21
2614.97
3048.93
2737.01
3293.59
-0.0994954
-0.697927
-1.47248
-2.89292
-3.57929
-3.44115
-3.1212
-3.10095
-2.27486
-1.97547
-4.40703
-3.83674
-4.07816
-4.27124
-2.11502
-1.82312
-4.23277
-3.63964
-3.90682
-3.89839
-4.13785
-3.91437
0.160902
0.903903
-0.885767
0.672806
-0.00466634
-0.930889
0.617148
-0.0492385
-1.72236
-2.01569
-1.4689
-1.79838
7270.63
7361.73
7455.72
7573.13
4163.08
4200.86
4000.02
4014.34
4049.06
4086.39
4155.38
4111.77
2327.76
3180.44
2436.99
3257.2
2356.11
3211.89
2340.67
3174.04
2446.37
3251.24
2336.68
3202.32
2526.94
3493.41
2523.51
3473.58
2686.64
3274.69
2687.4
3260.59
-0.214127
-0.920555
-2.11716
-3.09271
-3.09399
-2.78054
-2.80209
-4.54468
-4.31395
-3.65284
-3.5762
-2.98781
-3.11518
-5.38808
-5.04053
-5.37807
-5.27459
-3.01834
-3.22689
-5.09106
-4.68274
-5.15697
-4.68673
-5.30468
-5.69765
-5.48805
-5.91807
-4.92223
-5.50012
-4.68981
-5.56183
7368.8
7471.51
7572.34
7613.47
4040.98
4036.93
4054.22
4026.76
4029.05
4005.92
2280.47
3093.09
3001.61
2333.5
3156.38
2194.16
2995.7
2319.39
3145.01
2178.88
2281.36
3083.4
2509.01
2511.17
3548.15
3031.75
2496.55
2527.95
3534.06
3022.09
2576.36
3324.78
2585.27
3307.81
-0.342051
-1.30356
-2.79482
-3.46405
-3.44943
-3.04168
-3.02307
-5.35575
-5.78835
-5.25181
-4.90922
-5.40162
-4.92299
-5.06308
-5.63176
-5.17472
-4.73144
-5.28529
-4.78297
-4.07324
-3.99921
-5.95629
-5.74854
-5.70322
-5.22246
-5.60913
-6.17356
-5.17429
-5.90853
7477.71
7590.92
7701.53
4162.61
4179.59
4006.35
4007.29
4236.7
4229.09
4039.7
4004.23
2181.09
3018.99
2277.24
3108.53
2240.67
3095.87
2205.42
2237.81
3087.48
3018.66
2280.89
3103.21
2498.48
3014.11
2371.99
3420.23
2362.92
2500.98
3411.31
3000.6
-0.466801
-1.71684
-3.30242
-3.8037
-3.80118
-3.34083
-3.34117
-5.3613
-5.77822
-4.75372
-4.53793
-5.08477
-4.3681
-5.3359
-5.72861
-4.73839
-4.6348
-5.09773
-4.40573
-3.97374
-4.3441
-3.98252
-4.43661
-3.98047
-4.33977
-4.06129
-4.46241
-5.6386
-6.12291
-5.54592
-6.00037
7593.95
7713.42
7798.03
4166.61
4152
4078.7
4040.12
3988.88
3975.73
2053.49
2864.69
2760.35
2175.83
2830.99
2017.23
2070.04
2866.81
2760.07
2167.5
2830.4
2007.56
2265.1
2510.29
3310.91
3126.17
2513.88
3116.3
2265.19
3306.27
-0.582422
-2.083
-3.00149
-3.4264
-3.43535
-2.99621
-2.53301
-2.54817
-4.00149
-4.11208
-4.46336
-4.0092
-4.11879
-4.46467
-4.81565
-5.4028
-4.38624
-4.26276
-4.74975
-3.97658
-5.03249
-5.36352
-4.43947
-4.45725
-4.80956
-4.16832
-4.08378
-4.60326
-4.18608
-4.65358
7716.53
7885.44
7918.26
4198.08
4170.03
4082.41
4054.73
1931.81
2766.25
2103.83
2835.03
2060.03
2771.05
1966.51
2064.78
2772.61
2778.98
2125.6
2843.56
2334.89
2824.88
2194.77
2925.88
2352.31
2829.61
2204.07
2925.95
2360.67
3105.12
2369.23
3101.76
-0.748233
-2.47471
-3.63796
-3.17444
-3.61074
-3.1699
-2.61623
-2.61951
-4.38541
-4.81875
-5.01202
-4.49239
-4.68772
-4.76311
-4.03598
-4.39706
-4.84995
-4.37017
-5.03246
-4.51234
-4.69753
-4.76071
-4.01653
-4.38207
-4.48767
-4.04713
-4.527
-4.14974
-4.47055
-4.90223
-4.54792
-4.93366
7846.29
8024.55
4123.03
4205.74
4173.4
4129.84
4067.43
4057.66
3715.26
1924.79
2728.55
3727.53
1960.97
2742.16
2302.21
2214.09
2766.07
2993.81
2308.78
2764.61
2225.27
2996.25
2314.3
2900.72
2390.36
2985.72
2329.82
2900.63
2404.27
2976.03
-0.893089
-2.70639
-3.44489
-4.35877
-3.92425
-3.42501
-3.41874
-4.34278
-3.92498
-3.39677
-2.87973
-2.86777
-4.72716
-4.13443
-4.79921
-5.30928
-5.00922
-4.61915
-4.75055
-4.84722
-4.11888
-5.31714
-5.00721
-4.60436
-4.84854
-4.43629
-4.89081
-4.54056
7978.36
8075.18
4197.6
4040.49
4026.78
4202.97
4181.72
4145.34
1941
1934.49
2529.44
1912.18
2561.13
2764.81
1788.43
2688.35
1967.82
1984.58
2546.15
1960.29
2574.76
2776.7
1819.32
2691.57
2406.76
2238.04
3007.66
2936.81
2408.84
3014.75
2255.06
2942.95
-0.95715
-2.36122
-3.10244
-3.09852
-2.35748
-1.48024
-1.50589
-3.38992
-4.06054
-3.77541
-3.95342
-3.81306
-3.76089
-3.49627
-3.83877
-3.67596
-3.65654
-3.98303
-3.37825
-4.04134
-3.75964
-3.94972
-3.75302
-3.75623
-3.46889
-3.82645
-3.66805
-3.61449
-3.97273
-4.29426
-3.84159
-4.75987
-4.33003
-4.33245
-3.82503
-4.75982
-4.31684
8105.27
8145.09
4203.38
3890.39
2693.44
1888.79
3879.77
2701.17
1900.85
4150.42
4140.99
4101.41
2092.55
2032.19
2142.64
2454.61
2918.86
2773.68
2130.3
2040.41
2167.31
2925.01
2472.57
2777.89
2365.55
2998.08
2375.47
3007.1
-1.09263
-3.60184
-2.37546
-3.56819
-2.37495
-1.41837
-1.43371
-3.65575
-3.46312
-3.73416
-4.16983
-3.54187
-3.98686
-4.37373
-4.23647
-4.33521
-3.91693
-4.06065
-4.70719
-4.18715
-4.51276
-3.6371
-3.4525
-4.16334
-3.72136
-3.50261
-3.96911
-4.19309
-4.31731
-4.33533
-3.86995
-4.05341
-4.68164
-4.1361
-4.4849
8246.94
4060.17
4268.82
4218.9
4101.22
4081.74
4072.39
1719.74
2539.17
1994.08
2835.4
1809.51
2627.99
1939.18
2799.98
1777.62
2547.62
2004.41
2816.42
1824.23
2653.63
1960.02
2800.42
3758.64
1772.64
2611.52
3757.28
1829.21
2630.23
2111.86
2126.1
2674.93
3053.45
2134.21
2112.36
2682.9
3041.27
-1.02014
-3.60437
-4.69963
-4.30463
-2.33796
-3.57017
-4.67855
-4.24286
-2.34145
-1.44379
-1.47044
-3.46471
-3.93075
-3.76047
-4.15206
-4.58263
-4.33231
-4.17931
-4.57797
-4.78469
-4.87617
-3.45197
-3.91332
-3.7147
-4.13764
-4.51954
-4.13682
-4.24971
-4.56171
-4.77824
-4.82622
8258.48
4070.65
4113.37
4068.33
4106.12
4086.08
4072.53
2108.52
2091.25
3057.17
2563.46
1981.28
2751.72
2106.11
2105.06
3049.8
2551.67
1995.15
2748.55
1868.8
1865.32
2538.73
1726.96
2513.48
2625.99
1772.38
2647.05
1888.25
1877.64
2532.91
1782.6
2527.91
2631.06
1782.29
2636.85
-1.01535
-1.38546
-1.41533
-3.40225
-4.7344
-4.18081
-4.57323
-4.42859
-2.29725
-3.36413
-4.71488
-4.14539
-4.55007
-4.34409
-2.31432
-4.69706
-4.42923
-4.28058
-5.08049
-4.89869
-4.78604
-4.66597
-4.45194
-4.21171
-5.05939
-4.89857
-4.75814
8398.3
4038.84
4108.43
2531.96
1763.47
4056.61
2526.53
1752.83
4072.76
4114.31
4109.25
2124.51
2787.56
2118.04
3106.13
2122.11
2760.09
2104.49
3076.97
2153.91
2020.34
2106.37
2563.57
3004.68
2741.1
2160.74
2007.83
2086.19
3004.82
2564.83
2740.2
-1.07746
-1.46957
-1.55951
-1.49385
-1.5853
-3.11295
-4.41586
-4.18032
-4.55772
-4.0955
-4.12543
-4.68781
-2.39484
-3.07264
-4.37886
-4.16624
-4.53763
-4.08498
-4.09615
-4.67423
-2.40002
-4.53546
-4.99769
-4.54755
-4.99143
8399.41
3992.71
4025.23
4124.51
2354.07
1739.63
2308.95
1781.88
4075.67
2356.3
1738.91
2308.42
1775.62
4082.23
4073.28
2243.7
2154.72
2180.95
2783.06
2705.28
2816.93
2275.82
2159.07
2172.59
2716.28
2788.84
2819.59
-1.07913
-1.58376
-1.5823
-1.60914
-1.60772
-2.49463
-2.52902
-3.07542
-4.30886
-3.97526
-4.28593
-3.96136
-4.58981
-4.03939
-4.60889
-4.0963
-4.46109
-4.85479
-3.05474
-4.27377
-3.94544
-4.26375
-3.9392
-4.57391
-4.0352
-4.60035
-4.12146
-4.4496
-4.85042
8399.88
3981.93
3977.34
4017.26
4015.05
4051.75
2219.67
1746.56
2303.11
1671.52
2137.81
2825.61
4003.77
2220.26
1757.76
2301.85
1675.6
2143.3
2828.69
4120.41
4109.98
2275.47
2859.67
2316.92
2866.83
-1.00044
-1.47133
-1.39993
-1.48782
-1.41541
-2.59917
-2.61932
-2.63216
-2.63052
-3.29296
-3.24892
-4.23848
-3.96735
-4.27782
-3.88093
-4.4689
-3.9178
-4.56169
-3.82926
-4.798
-4.32113
-4.7014
-4.34361
-4.18843
-3.93997
-4.25548
-3.87348
-4.44835
-3.95342
-4.56806
-3.78224
-4.79896
-4.35964
-4.71106
-4.3847
8398.56
3975.18
3977.65
4013.33
4014.11
4098.51
4098.6
4038.66
2331
1666.68
2358.98
1682.23
2604
2111.03
2768.15
2033.36
2254.39
2849.93
3996.54
2333.33
1676.28
2359.53
1678.3
2608.03
2134.91
2774.23
2048.08
2288.36
2850.46
-0.903774
-1.31215
-1.3735
-1.32501
-1.39423
-2.50127
-2.35849
-2.51358
-2.35959
-3.49395
-3.55406
-3.44942
-3.51781
-4.42717
-4.1833
-4.5775
-4.07473
-4.3844
-4.20858
-4.57195
-4.00837
-4.49599
-3.99552
-4.56992
-3.95384
-4.49156
-4.06448
-4.57631
-3.9792
8260.23
3983.18
4027.86
4016.98
4061.25
4095.81
4114.65
4096.7
4106.32
4062.89
4023.7
2412.41
1694.54
2427.82
1700.73
2878.85
2021.82
2945.17
2053.62
2659.48
2181.15
2833.45
2078.43
2410.73
1705.66
2425.23
1694.23
2875.33
2029.17
2942.07
2042.39
2662.56
2221.32
2841.43
2102.91
-2.58645
-0.906433
-2.16597
-2.08393
-2.17664
-2.08203
-3.43181
-3.2831
-3.40283
-3.25566
-4.73638
-4.26167
-4.65317
-4.34727
-4.82618
-4.58826
-4.89662
-4.48182
-4.68778
-4.28103
-4.63988
-4.32895
-4.79322
-4.5696
-4.88301
-4.44377
-4.67737
-4.2244
-4.79595
-4.13091
-4.67769
-4.26498
-4.80977
-4.10733
8250.24
4055.75
4047.66
4090.4
4083.98
4070.99
4103.04
4066.18
4095.85
4060.15
4031.73
4021.71
3992.79
2404.21
1711.74
2436.91
1703
2398.09
1700.04
2426.25
1693.37
3005.26
2042.98
3036.94
2030.41
2994.46
2050.25
3026.81
2021.06
-2.53124
-3.07467
-3.34531
-3.05474
-3.31711
-0.770211
-3.08211
-3.0354
-3.03432
-3.00121
-4.63655
-4.47089
-4.79488
-4.3054
-4.58742
-4.01704
-4.25701
-4.36288
-4.60828
-4.4644
-4.78639
-4.27606
-4.56823
-3.93923
-4.20736
-4.29233
-5.06978
-4.32492
-4.89831
-4.53155
-5.30544
-4.83088
-5.35727
-4.80752
-5.0635
-4.38859
-4.92264
-4.50761
-5.31381
-4.85284
-5.35638
-4.7775
8107.72
8150.27
4068.2
4071.82
4056.64
4050.28
4039.56
4112.9
3995.37
4059.1
2399.05
1709.39
2433.72
1696.83
2404.46
1681.91
2417.05
1692.37
2392.52
1697.95
2423.45
1687.36
2402.78
1696.16
2415.02
1687.2
2980.76
2026.78
2985.4
2030.71
2970.72
2025.08
2974.27
2021.59
-2.18668
-3.2949
-3.39702
-3.29255
-3.40005
-3.75334
-4.11706
-3.75595
-4.06849
-0.602327
-4.08583
-3.75398
-4.06484
-3.79663
-4.04288
-3.96494
-4.2442
-3.66912
-4.07418
-3.69728
-4.02598
-3.72706
-4.02821
-3.912
-4.21394
-3.61926
-5.00933
-4.65767
-5.24501
-4.42971
-4.89622
-3.84531
-4.36469
-4.48215
-5.01276
-4.71285
-5.26235
-4.39952
-4.894
-3.87634
-4.3594
-4.44936
7983.04
8076.69
4247.17
4179.26
4192.05
4127.15
4088.41
4096.63
4033.6
4041.85
2312.38
1652.29
2344.21
1661
2200.67
1720.03
2277.85
1652.33
2315.38
1663.27
2343.64
1664.68
2200.28
1730.92
2274.63
1653.42
2975.51
2024.91
2982.72
2024.69
2996.91
2027.59
3024.28
2021.59
2964.93
2023.33
2971.79
2015.48
2985.87
2041.54
3015.77
2013.67
-3.62351
-1.76666
-4.17255
-4.18626
-4.156
-4.15686
-4.74167
-3.97231
-4.87649
-4.93834
-5.03938
-4.36325
-5.04706
-5.29461
-5.06428
-5.27828
-4.69167
-3.89596
-4.86337
-4.89126
-5.04189
-4.32552
-5.01763
-5.28637
-5.01928
-5.2687
-0.491584
-4.08307
-3.60348
-4.10694
-3.59904
-4.11801
-3.53376
-4.07726
-3.56934
-4.08443
-3.51414
-4.09547
-3.53242
-5.07429
-4.00246
-4.45502
-4.65016
-5.055
-4.03253
-4.4587
-4.63727
7853.48
8029.01
4170.27
4092.47
4179.03
4097.49
3730.07
4115.35
3731.86
4079.03
2322.61
1709.08
2279.89
1747.91
2496.69
1741.11
2614.91
1724.94
2323.13
1705.8
2276.27
1741.93
2493.89
1745.99
2607.51
1717.94
2857.18
2003.16
2928.44
2021.8
2579.95
2087.77
2738.06
2012.06
2856.68
2016.59
2924.95
2030.49
2582.65
2093.9
2740.43
2017.25
-2.90519
-4.78831
-4.43216
-4.76096
-4.41331
-1.28117
-4.9376
-5.21697
-4.89595
-5.17594
-4.29119
-4.8853
-4.63473
-5.32312
-5.18374
-5.52212
-5.25966
-5.56003
-5.20972
-5.61689
-4.25201
-4.90595
-4.62807
-5.31936
-5.12559
-5.49252
-5.23187
-5.56192
-5.14737
-5.59187
-0.34135
-4.06364
-3.66805
-4.09224
-3.59863
-4.21139
-3.70237
-4.04384
-3.6851
-4.09606
-3.61806
-4.21135
-3.75346
7725.08
7891.5
7919.68
4148.18
4035.7
4117.13
4024.64
1791.8
1841.23
2479.29
1662.01
2453.36
2590.52
1666.69
2578.31
1716.96
2558.9
1835.89
1844.12
2482.47
1744.47
2479.48
2593.36
1727.65
2604.3
1782.19
2579.99
2779.06
2103.19
2790.89
2140.15
2700.46
1983.82
2782.08
2107.19
2792.56
2138.34
2699.15
1960.35
2639.35
2161.07
2804.33
2059.72
2639.61
2179.13
2808.04
2072.23
-2.11289
-3.71967
-3.36189
-3.69122
-3.3776
-5.74573
-5.1201
-5.74559
-5.07921
-0.896849
-6.50043
-6.06259
-6.0755
-6.30267
-6.98172
-6.5897
-6.83282
-6.70691
-6.45579
-6.01642
-6.07429
-6.22507
-6.96173
-6.54103
-6.8103
-6.60346
-4.60385
-5.10313
-5.43301
-5.67284
-5.33937
-5.75432
-4.62359
-5.09055
-5.40249
-5.65488
-5.27585
-5.70227
-0.238841
7605.85
7721.88
7800.88
4167.62
4158.75
4133.76
4132.8
3855.57
4007.25
3842.48
3990.9
2089.33
2041.2
2953.69
2514.6
2069.39
3059.73
1891.53
2754.76
1928.66
2699.52
2130.52
2043.21
2523.19
2961.55
2058.6
3033.63
1911.22
2754.1
1945.18
2697.13
2818.24
2225.55
2817.27
2241.21
2737.9
2204.27
2825.13
2243.56
2815.61
2270.58
2746.76
2225.55
-2.85351
-1.51187
-4.28206
-3.63554
-4.25602
-3.65612
-7.33094
-7.06163
-7.38904
-6.82071
-6.90993
-7.37148
-5.85851
-6.07893
-6.26214
-6.50982
-7.29987
-6.99383
-7.39206
-6.77353
-6.90809
-7.35023
-5.82483
-6.07193
-6.20089
-6.49184
-0.740028
-7.20716
-6.14993
-6.5784
-6.80902
-7.66333
-7.21044
-7.19981
-6.09049
-6.57585
-6.71805
-7.64385
-7.10818
-0.109453
7493.64
7603.15
7706.26
4125.36
4118.97
4112.93
4138.77
3667.66
4039.29
3678.96
4012.63
2484.78
1937.98
2780.23
1753.71
2635.94
1732.61
2634.59
1831.32
2492.34
1946.98
2761.24
1767.95
2644.18
1758.79
2635.97
1843.63
2083.98
2659.07
2039.04
2510.57
2071.49
2731.59
2131.59
2675.79
2055.04
2500.27
2074.81
2704.39
-1.98136
-3.59285
-3.32455
-3.59753
-3.3657
-1.03532