/*--------------------------------*- C++ -*----------------------------------*\
| =========                 |                                                 |
| \\      /  F ield         | OpenFOAM: The Open Source CFD Toolbox           |
|  \\    /   O peration     | Version:  5.x                                   |
|   \\  /    A nd           | Web:      www.OpenFOAM.org                      |
|    \\/     M anipulation  |                                                 |
\*---------------------------------------------------------------------------*/
FoamFile
{
    version     2.0;
    format      ascii;
    class       surfaceScalarField;
    location    "0.1";
    object      phi;
}
// * * * * * * * * * * * * * * * * * * * * * * * * * * * * * * * * * * * * * //

dimensions      [0 3 -1 0 0 0 0];

internalField   nonuniform List<scalar> 
30582
(
0.000220994
7.41741e-05
0.000162808
5.81863e-05
0.000218789
0.000150586
0.000107177
5.56307e-05
0.000160548
0.000116429
0.000213951
0.00023191
7.47801e-05
3.23976e-05
0.000104921
0.000111258
0.000155558
0.000174822
0.000205068
0.000322223
4.98314e-05
2.49491e-05
7.29797e-05
6.43394e-05
0.000100112
0.000166706
0.000146731
0.00023316
0.000196769
0.000420972
3.36767e-05
1.61553e-05
4.84383e-05
4.94914e-05
6.92216e-05
9.52302e-05
9.25115e-05
0.000220926
0.000137598
0.000292331
0.000172733
0.000543937
2.27336e-05
1.09436e-05
3.27025e-05
3.1892e-05
4.55995e-05
7.31141e-05
6.35003e-05
0.000124242
8.38233e-05
0.000274701
0.000113965
0.000351099
0.000167906
0.000671941
1.53818e-05
7.35225e-06
2.20421e-05
2.16048e-05
3.07353e-05
4.67569e-05
4.13893e-05
9.52258e-05
5.67311e-05
0.000151335
6.65759e-05
0.000322091
0.000103606
0.0004154
0.000115855
0.000852238
1.04427e-05
4.9396e-06
1.48991e-05
1.44958e-05
2.06592e-05
3.16814e-05
2.78144e-05
6.03324e-05
3.63414e-05
0.000115616
4.47827e-05
0.000173128
5.83413e-05
0.000367355
5.37382e-05
0.000477517
0.000149738
0.000689634
7.11874e-06
3.32417e-06
1.0108e-05
9.7311e-06
1.39391e-05
2.12165e-05
1.86177e-05
4.08786e-05
2.42396e-05
7.24346e-05
2.82669e-05
0.000132132
3.82214e-05
0.000193248
2.89167e-05
0.000392177
0.000104395
0.000522861
0.000315649
0.000372715
4.8755e-06
2.24334e-06
6.88724e-06
6.54512e-06
9.4449e-06
1.42257e-05
1.25262e-05
2.73083e-05
1.61086e-05
4.901e-05
1.87527e-05
8.19491e-05
2.37105e-05
0.000146643
1.65511e-05
0.000205614
8.842e-05
0.000408154
0.000269133
0.000569376
3.48416e-05
0.000337858
3.35553e-06
1.51993e-06
4.71526e-06
4.41524e-06
6.4295e-06
9.56063e-06
8.47076e-06
1.82813e-05
1.07843e-05
3.26329e-05
1.23836e-05
5.53793e-05
1.54053e-05
9.02544e-05
9.63492e-06
0.000153559
7.7066e-05
0.000216971
0.000173221
0.000504061
7.19983e-05
0.000532204
-2.76642e-05
0.00036551
2.32109e-06
1.03426e-06
3.2444e-06
2.99047e-06
4.39873e-06
6.44592e-06
5.75797e-06
1.22735e-05
7.26726e-06
2.17986e-05
8.25818e-06
3.67586e-05
1.00312e-05
6.07535e-05
5.88204e-06
9.40073e-05
7.18666e-05
0.000158762
0.000116718
0.00027346
8.11254e-05
0.000494909
1.78685e-05
0.000486644
-7.91967e-06
0.000373415
1.61387e-06
7.06962e-07
2.24385e-06
2.03432e-06
3.02486e-06
4.36409e-06
3.93483e-06
8.26898e-06
4.92674e-06
1.4614e-05
5.54917e-06
2.45077e-05
6.63505e-06
4.01548e-05
3.63213e-06
6.30033e-05
6.80531e-05
9.78225e-05
7.46425e-05
0.000200818
6.95609e-05
0.000284994
5.58443e-05
0.000456907
1.67813e-05
0.000461924
-1.22925e-06
0.000374634
1.12795e-06
4.8557e-07
1.56002e-06
1.3901e-06
2.09101e-06
2.96779e-06
2.70338e-06
5.59536e-06
3.35956e-06
9.8361e-06
3.75407e-06
1.64092e-05
4.42355e-06
2.67192e-05
2.30867e-06
4.14782e-05
6.56795e-05
6.53779e-05
5.04174e-05
0.000122026
5.50456e-05
0.000215301
5.06784e-05
0.000290133
3.83369e-05
0.000435332
1.29926e-05
0.000447691
9.72014e-07
7.9221e-07
3.35248e-07
1.09011e-06
9.54528e-07
1.45315e-06
2.02744e-06
1.86738e-06
3.80351e-06
2.30398e-06
6.65081e-06
2.55571e-06
1.10344e-05
2.97192e-06
1.78608e-05
1.48739e-06
2.75404e-05
6.33056e-05
4.38525e-05
3.45425e-05
8.12336e-05
4.00397e-05
0.000137005
4.22183e-05
0.000223736
3.56397e-05
0.00029281
2.40218e-05
0.00042429
5.64513e-06
5.58353e-07
2.3316e-07
7.65187e-07
6.58852e-07
1.01507e-06
1.39186e-06
1.29689e-06
2.59751e-06
1.58905e-06
4.51826e-06
1.75037e-06
7.45609e-06
2.01048e-06
1.19959e-05
9.70834e-07
1.83773e-05
6.0703e-05
3.01437e-05
2.38037e-05
5.45789e-05
2.83021e-05
9.29551e-05
3.13882e-05
0.000147814
3.02688e-05
0.000229088
2.20572e-05
0.000294763
8.62835e-06
3.9544e-07
1.61941e-07
5.38863e-07
4.57742e-07
7.12332e-07
9.60518e-07
9.05406e-07
1.78273e-06
1.10211e-06
3.08414e-06
1.20599e-06
5.06252e-06
1.3689e-06
8.09767e-06
6.40584e-07
1.23261e-05
5.75956e-05
2.14866e-05
1.63217e-05
3.76257e-05
1.96714e-05
6.3212e-05
2.25459e-05
0.000101786
2.27546e-05
0.000155314
1.86553e-05
0.000232479
7.73177e-06
2.779e-07
1.16308e-07
3.80324e-07
3.18399e-07
5.01706e-07
6.66933e-07
6.35062e-07
1.22995e-06
7.68498e-07
2.11584e-06
8.35738e-07
3.45418e-06
9.38034e-07
5.49335e-06
4.26697e-07
8.31158e-06
5.38352e-05
1.60917e-05
1.11297e-05
2.66972e-05
1.35584e-05
4.37657e-05
1.58182e-05
6.99436e-05
1.64629e-05
0.000108071
1.40115e-05
0.000159949
6.45163e-06
1.94149e-07
8.23986e-08
2.67709e-07
2.26781e-07
3.54018e-07
4.64374e-07
4.47093e-07
8.53672e-07
5.38482e-07
1.4592e-06
5.82389e-07
2.36881e-06
6.46795e-07
3.74531e-06
2.87242e-07
5.63282e-06
4.92741e-05
1.28829e-05
7.55976e-06
1.97014e-05
9.27535e-06
3.10329e-05
1.09561e-05
4.86511e-05
1.16016e-05
7.48097e-05
1.01311e-05
0.000111949
4.82189e-06
1.33332e-07
5.96172e-08
1.87143e-07
1.61221e-07
2.49404e-07
3.2965e-07
3.15196e-07
5.9482e-07
3.78769e-07
1.01238e-06
4.07946e-07
1.63308e-06
4.48647e-07
2.56674e-06
1.94993e-07
3.83752e-06
4.40147e-05
1.0908e-05
5.2061e-06
1.52931e-05
6.31837e-06
2.27304e-05
7.52488e-06
3.45072e-05
8.05813e-06
5.22143e-05
7.13682e-06
7.78094e-05
3.47435e-06
8.83244e-08
4.43121e-08
1.28571e-07
1.17389e-07
1.74378e-07
2.34855e-07
2.22047e-07
4.21352e-07
2.66925e-07
7.05499e-07
2.86908e-07
1.13267e-06
3.12952e-07
1.76844e-06
1.33386e-07
2.62824e-06
3.82899e-05
9.58078e-06
3.74514e-06
1.24299e-05
4.32913e-06
1.73599e-05
5.1537e-06
2.51587e-05
5.54947e-06
3.70503e-05
4.95561e-06
5.44111e-05
2.44266e-06
5.37085e-08
3.47542e-08
8.5273e-08
8.82249e-08
1.19715e-07
1.71455e-07
1.55265e-07
3.00528e-07
1.87918e-07
4.99235e-07
2.02516e-07
7.89066e-07
2.19355e-07
1.22585e-06
9.20144e-08
1.80963e-06
3.24543e-05
8.47937e-06
2.78615e-06
1.05891e-05
3.04505e-06
1.37801e-05
3.55863e-06
1.90147e-05
3.81199e-06
2.694e-05
3.41393e-06
3.86165e-05
1.69401e-06
2.59345e-08
2.89453e-08
5.20066e-08
7.02811e-08
7.93277e-08
1.29177e-07
1.06692e-07
2.1962e-07
1.31386e-07
3.56251e-07
1.42544e-07
5.58456e-07
1.53848e-07
8.54139e-07
6.4005e-08
1.25363e-06
2.68042e-05
7.46743e-06
2.18534e-06
9.1087e-06
2.25444e-06
1.14226e-05
2.52109e-06
1.48665e-05
2.64183e-06
2.02284e-05
2.34742e-06
2.80354e-05
1.16657e-06
1.73131e-09
2.63908e-08
2.54331e-08
5.92918e-08
4.8326e-08
1.0318e-07
7.08532e-08
1.656e-07
9.03378e-08
2.60453e-07
9.98218e-08
3.98491e-07
1.08462e-07
6.03502e-07
4.43413e-08
8.73588e-07
2.16268e-05
6.43264e-06
1.80831e-06
7.85787e-06
1.7779e-06
9.60562e-06
1.86748e-06
1.21061e-05
1.87228e-06
1.56695e-05
1.63012e-06
2.0972e-05
8.02425e-07
-2.18315e-08
2.64836e-08
2.27986e-09
5.42778e-08
2.36704e-08
8.70574e-08
4.34205e-08
1.32314e-07
6.01404e-08
1.96389e-07
6.88976e-08
2.9135e-07
7.60242e-08
4.3079e-07
3.14713e-08
6.16233e-07
1.69901e-05
5.51527e-06
1.55281e-06
6.70525e-06
1.49694e-06
8.15065e-06
1.45821e-06
1.00282e-05
1.38443e-06
1.26125e-05
1.15502e-06
1.61623e-05
5.58206e-07
-4.79574e-08
2.92198e-08
-2.03597e-08
5.38776e-08
2.26922e-09
7.95361e-08
2.15806e-08
1.11591e-07
3.71845e-08
1.56742e-07
4.58921e-08
2.19947e-07
5.27426e-08
3.14773e-07
2.23645e-08
4.3988e-07
1.32343e-05
4.39213e-06
1.41132e-06
5.69572e-06
1.30906e-06
6.91575e-06
1.20683e-06
8.41151e-06
1.07053e-06
1.03496e-05
8.52489e-07
1.29227e-05
3.94667e-07
-7.97472e-08
3.42936e-08
-4.55555e-08
5.80295e-08
-1.87261e-08
7.86818e-08
2.60406e-09
1.01775e-07
1.88545e-08
1.32147e-07
2.85645e-08
1.75226e-07
3.54415e-08
2.37705e-07
1.58617e-08
3.21397e-07
1.01404e-05
3.57176e-06
1.26076e-06
4.6037e-06
1.232e-06
5.81768e-06
1.04177e-06
7.10224e-06
8.77925e-07
8.61196e-06
6.55245e-07
1.05494e-05
2.90005e-07
-1.20312e-07
4.17224e-08
-7.63684e-08
6.65389e-08
-4.21264e-08
8.42164e-08
-1.60319e-08
1.00442e-07
2.98501e-09
1.20249e-07
1.45149e-08
1.47834e-07
2.25782e-08
1.88839e-07
1.10678e-08
2.42742e-07
7.63507e-06
2.86785e-06
1.12492e-06
3.76554e-06
1.10494e-06
4.79037e-06
9.4964e-07
5.95039e-06
7.50574e-07
7.24947e-06
5.33947e-07
8.73943e-06
2.21709e-07
-1.72622e-07
5.16941e-08
-1.15719e-07
7.98509e-08
-7.07429e-08
9.60799e-08
-3.6706e-08
1.07034e-07
-1.26818e-08
1.18491e-07
2.43668e-09
1.34144e-07
1.22966e-08
1.59049e-07
7.47372e-09
1.92763e-07
5.58479e-06
2.31087e-06
9.65335e-07
3.04323e-06
9.89161e-07
3.92884e-06
8.61206e-07
4.92881e-06
6.81262e-07
6.05448e-06
4.54164e-07
7.3459e-06
1.80467e-07
-2.39569e-07
6.47506e-08
-1.66377e-07
9.89058e-08
-1.07167e-07
1.15026e-07
-6.20036e-08
1.21864e-07
-3.00415e-08
1.25873e-07
-9.40282e-09
1.31871e-07
3.3795e-09
1.43976e-07
4.6521e-09
1.62236e-07
3.88836e-06
1.86163e-06
7.66443e-07
2.45558e-06
8.50254e-07
3.18556e-06
7.76951e-07
4.04806e-06
6.18131e-07
5.03048e-06
4.10647e-07
6.12378e-06
1.53832e-07
-3.24676e-07
8.21848e-08
-2.31025e-07
1.25032e-07
-1.5387e-07
1.42672e-07
-9.41885e-08
1.45882e-07
-5.11513e-08
1.43063e-07
-2.24165e-08
1.39678e-07
-5.26109e-09
1.41144e-07
2.29003e-09
1.46662e-07
2.44866e-06
1.52855e-06
5.25594e-07
1.9834e-06
6.76863e-07
2.57179e-06
6.70178e-07
3.28688e-06
5.54824e-07
4.13298e-06
3.72985e-07
5.09218e-06
1.38481e-07
-4.32595e-07
1.05454e-07
-3.12889e-07
1.60402e-07
-2.13274e-07
1.81e-07
-1.35386e-07
1.81281e-07
-7.78276e-08
1.71251e-07
-3.81351e-08
1.58551e-07
-1.45736e-08
1.49114e-07
2.94613e-10
1.43331e-07
1.21031e-06
1.29058e-06
2.69056e-07
1.64063e-06
4.70787e-07
2.08398e-06
5.2471e-07
2.66221e-06
4.74664e-07
3.35409e-06
3.32591e-07
4.18103e-06
1.27628e-07
-5.69987e-07
1.36276e-07
-4.1638e-07
2.07142e-07
-2.88411e-07
2.32965e-07
-1.8763e-07
2.3051e-07
-1.11767e-07
2.13108e-07
-5.79116e-08
1.89902e-07
-2.54727e-08
1.69016e-07
-1.54026e-09
1.50935e-07
1.3107e-07
1.14316e-06
1.97084e-08
1.42349e-06
2.51291e-07
1.74285e-06
3.50958e-07
2.16819e-06
3.73468e-07
2.71372e-06
2.81346e-07
3.38783e-06
1.18416e-07
-7.45904e-07
1.76164e-07
-5.48185e-07
2.68022e-07
-3.83559e-07
3.0135e-07
-2.53498e-07
2.97085e-07
-1.54672e-07
2.7147e-07
-8.29515e-08
2.36681e-07
-3.89235e-08
2.02579e-07
-3.37481e-09
1.7064e-07
-8.50567e-07
1.09525e-06
-2.06397e-07
1.32117e-06
4.26019e-08
1.5443e-06
1.71229e-07
1.83023e-06
2.48929e-07
2.22238e-06
2.18425e-07
2.73766e-06
1.01936e-07
-9.71965e-07
2.26694e-07
-7.17358e-07
3.45659e-07
-5.04967e-07
3.89754e-07
-3.36814e-07
3.84353e-07
-2.08719e-07
3.50187e-07
-1.14516e-07
3.01959e-07
-5.57294e-08
2.52798e-07
-5.32805e-09
2.04259e-07
-1.79693e-06
1.12973e-06
-3.92207e-07
1.31563e-06
-1.42674e-07
1.47453e-06
3.23583e-10
1.65082e-06
1.19728e-07
1.89331e-06
1.45605e-07
2.24891e-06
7.86286e-08
-1.26167e-06
2.89328e-07
-9.35215e-07
4.43489e-07
-6.61131e-07
5.02023e-07
-4.43337e-07
4.96781e-07
-2.77209e-07
4.5302e-07
-1.54262e-07
3.8972e-07
-7.69003e-08
3.22927e-07
-7.64888e-09
2.55009e-07
-2.76764e-06
1.23368e-06
-5.42589e-07
1.39364e-06
-2.98613e-07
1.50329e-06
-1.53468e-07
1.60873e-06
-3.05475e-09
1.73174e-06
6.94926e-08
1.93161e-06
5.06903e-08
-1.63027e-06
3.66451e-07
-1.21459e-06
5.65457e-07
-8.62629e-07
6.43567e-07
-5.80743e-07
6.39344e-07
-3.64998e-07
5.85071e-07
-2.04774e-07
5.04003e-07
-1.03632e-07
4.16812e-07
-1.05127e-08
3.26026e-07
-3.84589e-06
1.43521e-06
-6.51978e-07
1.52872e-06
-4.20178e-07
1.61044e-06
-2.82183e-07
1.66169e-06
-1.08393e-07
1.70525e-06
-2.23136e-09
1.7834e-06
2.12487e-08
-2.09522e-06
4.61738e-07
-1.56984e-06
7.17456e-07
-1.1211e-06
8.20518e-07
-7.58222e-07
8.19143e-07
-4.78477e-07
7.5235e-07
-2.69762e-07
6.50368e-07
-1.37791e-07
5.38683e-07
-1.42241e-08
4.21065e-07
-5.07832e-06
1.70348e-06
-7.05692e-07
1.73704e-06
-5.14593e-07
1.7838e-06
-3.80794e-07
1.79125e-06
-1.93584e-07
1.77416e-06
-6.35112e-08
1.76686e-06
-6.01546e-09
5.80537e-07
-2.67794e-06
-2.01694e-06
9.06406e-07
-1.44942e-06
1.04185e-06
-9.85679e-07
1.04431e-06
-6.25192e-07
9.63564e-07
-3.54051e-07
8.35779e-07
-1.81867e-07
6.94415e-07
-1.91566e-08
5.44119e-07
-6.5457e-06
2.06212e-06
-7.31227e-07
2.00721e-06
-5.61118e-07
2.00498e-06
-4.39203e-07
1.98285e-06
-2.56984e-07
1.92407e-06
-1.19587e-07
1.8538e-06
-3.12292e-08
1.14236e-06
-2.57637e-06
1.92535e-06
-4.60259e-06
-1.86187e-06
1.31708e-06
-1.27418e-06
1.32665e-06
-8.13114e-07
1.22859e-06
-4.63029e-07
1.07015e-06
-2.39066e-07
8.91866e-07
-2.57143e-08
7.00927e-07
-8.32213e-06
2.47671e-06
-7.76662e-07
2.34203e-06
-5.86375e-07
2.27865e-06
-4.43582e-07
2.20241e-06
-2.88109e-07
2.13216e-06
-1.64538e-07
2.02279e-06
-4.95976e-08
1.66041e-06
-2.37781e-06
3.78385e-06
-4.42729e-06
3.01891e-06
-7.61685e-06
-1.63596e-06
1.67756e-06
-1.05102e-06
1.56139e-06
-6.02459e-07
1.3649e-06
-3.12843e-07
1.1419e-06
-3.42456e-08
8.9947e-07
-1.04598e-05
2.90786e-06
-9.26629e-07
2.71638e-06
-6.38347e-07
2.5834e-06
-4.2262e-07
2.46201e-06
-2.89116e-07
2.3603e-06
-1.85237e-07
2.24066e-06
-5.85363e-08
2.11527e-06
-2.08864e-06
5.49674e-06
-4.08419e-06
5.92558e-06
-7.324e-06
4.58963e-06
-1.21993e-05
-1.34905e-06
1.97492e-06
-7.7857e-07
1.73533e-06
-4.07089e-07
1.45718e-06
-4.52169e-08
1.15126e-06
-1.29227e-05
3.29325e-06
-1.25189e-06
3.10442e-06
-7.9084e-07
2.89903e-06
-4.32745e-07
2.72858e-06
-2.83372e-07
2.60804e-06
-1.74102e-07
2.45665e-06
-5.82829e-08
2.49051e-06
-1.72201e-06
7.00031e-06
-3.5867e-06
8.6008e-06
-6.75164e-06
8.99362e-06
-1.17197e-05
6.76289e-06
-1.89566e-05
-9.99031e-07
2.19555e-06
-5.25842e-07
1.85334e-06
-5.90879e-08
1.46951e-06
-1.56269e-05
3.661e-06
-1.759e-06
3.47001e-06
-1.09413e-06
3.21857e-06
-5.54557e-07
3.00082e-06
-3.13325e-07
2.8341e-06
-1.51932e-07
2.67339e-06
-5.20117e-08
2.76873e-06
-1.27505e-06
8.23938e-06
-2.95661e-06
1.09453e-05
-5.92536e-06
1.3035e-05
-1.07873e-05
1.32226e-05
-1.8175e-05
9.75595e-06
-2.87106e-05
-6.75044e-07
2.34572e-06
-7.64951e-08
1.87013e-06
-1.84223e-05
4.03201e-06
-2.36601e-06
3.86316e-06
-1.54589e-06
3.55811e-06
-8.37286e-07
3.29512e-06
-4.32043e-07
3.05815e-06
-1.6039e-07
2.85956e-06
-4.98827e-08
2.95712e-06
-8.61613e-07
9.15748e-06
-2.18986e-06
1.2875e-05
-4.88209e-06
1.65645e-05
-9.45091e-06
1.91127e-05
-1.66744e-05
1.89834e-05
-2.73992e-05
1.3892e-05
-4.26019e-05
-9.89264e-08
2.36879e-06
-2.11792e-05
4.47348e-06
-2.92949e-06
4.30419e-06
-2.05791e-06
3.99589e-06
-1.26424e-06
3.66055e-06
-6.57531e-07
3.32026e-06
-2.36126e-07
3.05125e-06
-6.06543e-08
2.98573e-06
-1.26235e-07
9.78007e-06
-1.48227e-06
1.43037e-05
-3.61607e-06
1.94607e-05
-7.77594e-06
2.42199e-05
-1.45559e-05
2.72832e-05
-2.49711e-05
2.67889e-05
-4.02903e-05
2.01763e-05
-6.27751e-05
-2.38822e-05
5.07547e-06
-3.33895e-06
4.85749e-06
-2.50447e-06
4.56191e-06
-1.72928e-06
4.1733e-06
-9.73646e-07
3.71705e-06
-3.93785e-07
3.31686e-06
-9.26039e-08
5.58318e-06
-2.63297e-05
9.87786e-06
-2.22862e-07
1.52719e-05
-2.4496e-06
2.16012e-05
-5.75554e-06
2.83837e-05
-1.19384e-05
3.43767e-05
-2.16468e-05
3.80985e-05
-3.62757e-05
3.78948e-05
-5.80013e-05
2.87568e-05
-9.15262e-05
-3.56808e-06
5.5724e-06
-2.79738e-06
5.28915e-06
-2.10298e-06
4.85454e-06
-1.29492e-06
4.31106e-06
-6.12708e-07
3.77063e-06
-1.4864e-07
6.28734e-06
-3.90523e-06
1.55495e-05
-3.18677e-05
1.54302e-05
-3.80935e-07
2.305e-05
-3.89852e-06
3.14485e-05
-8.81995e-06
4.00867e-05
-1.76469e-05
4.75101e-05
-3.10551e-05
5.26046e-05
-5.0981e-05
5.29569e-05
-8.21975e-05
5.07192e-05
-0.000142242
-2.93175e-06
6.13881e-06
-2.29756e-06
5.69371e-06
-1.52599e-06
5.10154e-06
-8.27306e-07
4.45233e-06
-2.21349e-07
7.01979e-06
-3.25794e-06
1.80236e-05
-6.17487e-06
1.99311e-05
-3.63084e-05
2.33018e-05
-6.33308e-07
3.35135e-05
-5.96415e-06
4.4254e-05
-1.29873e-05
5.49102e-05
-2.50464e-05
6.42761e-05
-4.27256e-05
7.15599e-05
-6.95844e-05
8.23496e-05
-0.000113832
6.33711e-05
-0.000205614
-2.3661e-06
6.63485e-06
-1.62664e-06
6.04429e-06
-9.71458e-07
5.33151e-06
-2.84268e-07
7.59377e-06
-2.59479e-06
2.00588e-05
-5.2272e-06
2.35547e-05
-9.76797e-06
2.64094e-05
-3.94527e-05
3.39017e-05
-1.02285e-06
4.70374e-05
-8.74888e-06
6.02264e-05
-1.83051e-05
7.31112e-05
-3.38835e-05
8.51182e-05
-5.62873e-05
0.000100615
-8.78559e-05
0.000104868
-0.000155337
0.000237014
-0.000125837
-0.000316797
-1.65118e-06
7.0459e-06
-1.0194e-06
6.32709e-06
-3.14549e-07
8.03422e-06
-1.83669e-06
2.15937e-05
-4.11566e-06
2.61388e-05
-8.20773e-06
3.12468e-05
-1.49104e-05
3.5828e-05
-4.14693e-05
4.76147e-05
-1.60235e-06
6.37226e-05
-1.22472e-05
7.93028e-05
-2.44994e-05
9.46008e-05
-4.33692e-05
0.000111863
-6.75387e-05
0.000126777
-0.000109772
0.000188768
-0.0001071
0.000230476
-7.8905e-05
-0.000277414
-3.38113e-05
-0.000282996
-1.02582e-06
7.33412e-06
-3.09325e-07
8.28959e-06
-1.15436e-06
2.27094e-05
-2.99623e-06
2.81168e-05
-6.481e-06
3.44817e-05
-1.23092e-05
4.16525e-05
-2.13586e-05
4.86614e-05
-4.26029e-05
6.45385e-05
-2.42003e-06
8.32824e-05
-1.62271e-05
0.000100905
-3.08022e-05
0.000119119
-5.06246e-05
0.000137767
-7.85291e-05
0.000162523
-8.35306e-05
0.000198135
-7.47688e-05
0.000231093
-5.83806e-05
-0.000251624
-4.91037e-05
-0.000262129
-2.65278e-05
-0.00025647
-2.91954e-07
-3.36971e-07
2.33068e-05
-1.84842e-06
2.95015e-05
-4.74105e-06
3.71119e-05
-9.83151e-06
4.56263e-05
-1.73023e-05
5.49274e-05
-2.83481e-05
6.48358e-05
-4.2951e-05
8.43448e-05
-3.48091e-06
0.000104782
-2.00998e-05
0.000123724
-3.53987e-05
0.000142687
-5.55365e-05
0.000148204
-6.4206e-05
0.000179025
-6.44259e-05
0.000211629
-5.53215e-05
0.000234857
-4.59293e-05
-0.000247321
-5.09818e-05
-0.00024976
-4.13296e-05
-0.000247323
-2.11466e-05
-0.00023532
-5.82591e-07
3.02591e-05
-2.90839e-06
3.89067e-05
-7.09756e-06
4.89126e-05
-1.38707e-05
5.95809e-05
-2.27232e-05
7.08898e-05
-3.49244e-05
8.34962e-05
-4.21165e-05
0.000105993
-4.68833e-06
0.00012644
-2.28084e-05
0.000144776
-3.74755e-05
0.000140371
-4.76941e-05
0.00016663
-5.18058e-05
0.000195292
-4.80928e-05
0.000219642
-4.01202e-05
0.000237205
-3.04615e-05
-0.000252684
-5.08006e-05
-0.000247515
-4.93884e-05
-0.0002417
-3.69072e-05
-0.00023155
-1.90979e-05
-0.000216214
-9.50712e-07
3.99852e-05
-4.36037e-06
5.11744e-05
-9.8755e-06
6.32121e-05
-1.80037e-05
7.56854e-05
-2.78671e-05
8.85711e-05
-4.01888e-05
0.000103799
-3.99184e-05
0.000127505
-5.75421e-06
0.000145675
-2.3704e-05
0.000135851
-3.29501e-05
0.000158144
-3.92025e-05
0.00018261
-3.91179e-05
0.000205841
-3.42891e-05
0.000226798
-2.97175e-05
0.000267109
-1.85105e-05
-0.000279064
-4.86443e-05
-0.000254845
-5.56499e-05
-0.000241253
-4.89456e-05
-0.000229657
-3.56042e-05
-0.000215028
-1.84796e-05
-0.000197722
-1.43545e-06
5.2575e-05
-6.04266e-06
6.57677e-05
-1.27379e-05
7.90999e-05
-2.16352e-05
9.25079e-05
-3.19298e-05
0.00010669
-4.30902e-05
0.000123882
-3.62988e-05
0.000146226
-6.31638e-06
0.000133365
-2.12189e-05
0.000152257
-2.70649e-05
0.000172952
-2.95416e-05
0.000194265
-2.75408e-05
0.000216353
-2.38378e-05
0.000236492
9.03975e-07
0.000221321
-4.18861e-06
-0.000286752
-1.05758e-05
3.28371e-05
2.88415e-05
-6.10233e-05
-0.000266687
-6.39935e-05
-0.000246501
-5.91265e-05
-0.000231079
-5.01219e-05
-0.000215136
-3.57911e-05
-0.000197701
-1.85664e-05
-0.000179147
-1.9992e-06
6.72733e-05
-7.68567e-06
8.1516e-05
-1.52855e-05
9.49688e-05
-2.4223e-05
0.000108619
-3.40796e-05
0.000123365
-4.26577e-05
0.000141128
-3.12204e-05
0.000132982
-5.93532e-06
0.000148421
-1.73786e-05
0.000165807
-1.99226e-05
0.000184472
-1.97456e-05
0.000206072
-1.72618e-05
0.000217772
-5.12191e-06
0.000239049
-1.6826e-05
-1.92259e-06
-1.04329e-05
-8.64936e-06
1.68216e-05
-1.27762e-05
-0.000311048
-1.87261e-05
-2.43608e-07
-4.99514e-06
-7.79814e-06
-8.43134e-06
3.71024e-06
-1.7717e-06
-6.28245e-06
3.0452e-05
-2.7544e-06
2.20258e-05
-7.78948e-05
-0.000252797
-6.87947e-05
-0.000236835
-6.3542e-05
-0.000217661
-5.21882e-05
-0.000198743
-3.66677e-05
-0.000179595
-1.89396e-05
-0.000160202
-2.59067e-06
8.28808e-05
-9.08959e-06
9.66605e-05
-1.70465e-05
0.000109505
-2.52924e-05
0.000122447
-3.3552e-05
0.000136437
-3.82103e-05
0.000126928
-2.51801e-05
0.000147572
-5.06844e-06
0.00016073
-1.22999e-05
0.000176126
-1.15763e-05
0.000195294
-8.97227e-06
0.000207565
-7.04754e-06
0.000243642
-9.7147e-06
-4.78859e-05
-4.97251e-05
0.000169221
-4.58756e-05
-4.99606e-05
3.1839e-07
-1.97346e-06
-1.90119e-06
-4.0929e-05
2.13907e-05
1.06596e-06
1.86463e-05
-3.10374e-06
2.00209e-07
-0.00028019
-0.000108762
-3.77983e-05
8.7238e-06
-2.18992e-06
-7.01135e-05
3.1112e-05
-6.60249e-05
2.10433e-05
1.91271e-05
-1.10704e-06
-1.3243e-05
9.133e-07
2.9704e-07
-7.66116e-06
-7.59103e-05
-0.000245702
-7.67071e-05
-0.000223686
-6.81793e-05
-0.000201664
-5.44354e-05
-0.000180988
-3.77854e-05
-0.000160754
-1.93748e-05
-0.000140824
-3.1296e-06
9.76724e-05
-1.00541e-05
0.000110108
-1.7662e-05
0.000121347
-2.43548e-05
0.000132642
-3.01092e-05
0.000119519
-3.10885e-05
0.000141655
-1.92464e-05
0.000159414
-3.7406e-06
0.000169622
-5.80527e-06
0.000184186
-4.59376e-07
0.000198245
3.50556e-07
0.000241396
-4.80375e-06
0.000193744
-1.27718e-05
-1.25895e-05
-4.45786e-06
-4.42139e-06
1.5976e-06
-2.68896e-05
3.06803e-05
-5.1263e-05
-2.9974e-05
3.65888e-05
-5.49699e-05
8.28758e-07
-3.40848e-05
6.67247e-06
-3.38781e-05
2.76207e-06
1.08962e-06
1.09395e-05
6.23757e-06
2.75189e-06
-3.42874e-05
3.83209e-05
3.48231e-05
-4.59695e-05
3.45812e-05
-3.0029e-05
-0.000267208
-8.88969e-05
-1.10089e-05
-1.45532e-05
-0.000159484
-3.31838e-07
-2.99496e-06
-2.56692e-05
-3.08707e-05
1.41991e-05
-5.49227e-06
1.01763e-06
2.99914e-05
2.17124e-05
-3.73133e-05
3.91348e-05
3.26395e-05
-4.39655e-05
3.2077e-05
-3.30501e-05
2.60772e-06
3.39957e-05
-3.73945e-05
1.86479e-05
-2.11568e-05
3.23636e-05
-3.22428e-05
1.71213e-05
-2.30282e-05
-8.85244e-05
-0.00023389
-8.50193e-05
-0.000206874
-7.22571e-05
-0.00018385
-5.6706e-05
-0.000162071
-3.88378e-05
-0.000141298
-1.97495e-05
-0.000121073
-3.44925e-06
0.000110546
-1.0335e-05
0.00012055
-1.67687e-05
0.000129507
-2.12228e-05
0.000114991
-2.56464e-05
0.000130067
-1.96294e-05
0.000153525
-1.33345e-05
0.000167743
-1.88509e-06
0.000174489
3.8942e-06
0.000185661
1.21239e-05
0.000226387
1.53666e-05
0.000212236
-9.25164e-06
-9.72218e-06
-1.6892e-06
-2.6327e-06
1.41903e-06
-3.9326e-05
-8.94591e-06
-3.82926e-05
-6.76505e-06
1.29571e-06
-3.38758e-05
-1.12071e-05
-3.36143e-05
-7.80246e-06
5.84288e-07
-6.9592e-05
-1.81802e-05
5.42203e-05
-4.5263e-05
-2.10638e-05
1.6682e-05
-3.97782e-05
2.16501e-05
4.94121e-05
-6.72426e-05
-1.96859e-05
5.39096e-05
-2.27906e-05
-4.51649e-05
1.65513e-05
-3.99206e-05
2.13645e-05
4.86036e-05
3.00732e-07
-6.37699e-05
-2.90333e-05
2.94337e-05
-3.00583e-05
3.0128e-05
-6.31258e-05
-2.88648e-05
2.87906e-05
-3.04695e-05
2.9486e-05
3.09367e-06
5.349e-05
3.84548e-05
-4.87798e-05
3.57884e-05
-3.74876e-05
2.37649e-05
1.75188e-05
1.33166e-08
-3.38633e-05
2.73975e-05
-1.70522e-05
-1.97578e-05
2.02371e-05
-2.93848e-05
4.05685e-08
1.62205e-05
2.50351e-05
-1.49091e-05
-1.7352e-05
-0.000249718
-0.000106018
-0.000219085
-1.5665e-05
-1.47847e-05
6.60844e-07
4.81619e-07
1.27193e-06
-6.08797e-05
5.40787e-05
5.20166e-06
-5.95943e-05
5.54797e-05
2.36677e-06
1.93113e-06
-5.04182e-05
-3.80669e-05
-4.77366e-05
-4.08027e-05
5.22844e-05
3.61016e-05
-4.57016e-05
3.31016e-05
-3.90647e-05
2.29246e-06
4.44006e-05
-2.95696e-05
3.61911e-05
-2.02841e-05
4.26798e-05
-2.57909e-05
3.41694e-05
-2.25129e-05
2.44694e-05
1.73247e-05
-3.50575e-05
2.59257e-05
-1.67179e-05
-1.86498e-05
2.01754e-05
-2.87698e-05
1.65125e-05
2.33486e-05
-1.41513e-05
-2.02221e-05
-4.43451e-05
2.32009e-05
1.51538e-07
2.11256e-05
-2.18099e-05
-3.19593e-06
-3.05613e-05
4.9232e-07
6.21944e-06
-1.60567e-05
-4.51655e-05
2.29534e-05
1.96795e-05
-2.12783e-05
-3.69596e-06
-2.69476e-05
5.06888e-06
-1.79284e-05
-0.000105614
-0.000213309
-9.02952e-05
-0.000188852
-7.61212e-05
-0.000164446
-5.85925e-05
-0.000142312
-3.96433e-05
-0.000121405
-2.00089e-05
-0.000101063
-3.45297e-06
0.000120001
-9.6643e-06
0.000127179
-1.43774e-05
0.000110821
-1.70081e-05
0.00012463
-2.00366e-05
0.000136552
-2.62405e-06
0.000161825
-7.42713e-06
0.00017153
1.06096e-06
0.000174121
1.54363e-05
0.00019665
4.18601e-05
0.000222188
-5.55225e-06
-6.52071e-06
9.40791e-06
8.08086e-06
1.23134e-06
-2.85734e-05
-1.57954e-05
-2.87775e-05
-1.33195e-05
1.0186e-06
-2.85837e-05
-2.69595e-06
-3.08989e-05
5.12901e-07
7.88077e-07
-6.0047e-05
-3.12775e-05
2.54837e-05
-3.31388e-05
2.54222e-05
-6.0457e-05
-2.97289e-05
2.58142e-05
-3.03984e-05
2.56397e-05
1.0849e-06
-4.93512e-05
-3.57676e-05
2.40515e-05
-3.6223e-05
2.49545e-05
-5.06638e-05
-3.28154e-05
2.43126e-05
-3.32645e-05
2.52825e-05
-1.86844e-05
-1.41388e-05
6.01641e-06
-1.84534e-05
-1.88053e-05
-9.06113e-06
-2.37578e-05
-1.28506e-05
1.31493e-07
-4.02449e-06
1.47914e-05
-1.54522e-05
-2.35079e-05
-1.4954e-05
-4.18771e-08
-1.68396e-05
1.02525e-05
3.20884e-07
4.30966e-05
-6.61803e-06
-1.83293e-05
-9.86941e-06
-2.15398e-05
-1.82312e-05
-1.41656e-05
5.67508e-06
-1.84407e-05
-1.26784e-05
1.49994e-05
-3.86157e-06
-1.50943e-05
-2.38825e-05
-1.51074e-05
-1.66348e-05
1.01946e-05
4.28305e-05
-7.16317e-06
-1.5901e-05
2.57921e-05
-2.55633e-05
-1.33557e-05
1.86668e-05
-6.41558e-08
-1.77381e-05
1.2656e-05
-1.57772e-05
-1.19971e-05
-5.13152e-08
1.62766e-05
-1.55244e-05
2.67321e-05
-2.74395e-05
-1.26297e-05
1.86687e-05
-1.7995e-05
1.2526e-05
-1.54447e-05
-1.21742e-05
1.60258e-05
-9.49456e-06
1.78357e-05
-8.6334e-08
2.31004e-07
2.99708e-05
-1.68987e-05
1.99697e-05
-3.1614e-05
4.16859e-08
2.55734e-05
2.36793e-05
-2.33577e-05
2.6413e-05
2.203e-05
1.74738e-07
-3.47039e-05
1.34845e-05
-2.24339e-05
-1.90647e-05
2.02281e-05
-8.11781e-06
1.53771e-07
1.89183e-05
9.91732e-06
-1.06392e-05
-3.73292e-06
-0.000227191
-0.000128136
-0.000227029
-3.2566e-05
-3.27643e-05
-1.65579e-05
-1.6182e-05
2.33579e-06
-4.77433e-05
4.76601e-05
-1.79071e-05
-5.05608e-05
4.86948e-05
-1.05866e-05
1.93729e-06
5.04477e-06
7.34747e-06
1.53064e-07
-5.32669e-05
5.30968e-05
-3.83804e-05
4.01703e-05
-3.69384e-05
4.03015e-05
-5.5485e-05
5.248e-05
-3.75485e-05
3.98502e-05
-3.67773e-05
3.99896e-05
9.35735e-07
-5.40263e-05
2.72648e-05
-3.82554e-05
-5.71015e-05
1.86344e-05
-4.68211e-05
2.8411e-05
2.95787e-05
-5.55197e-05
2.71748e-05
-3.77905e-05
-5.87593e-05
1.86076e-05
-4.64161e-05
2.84433e-05
2.89043e-05
-9.38765e-06
1.76793e-05
-6.5483e-07
2.83847e-05
-1.65907e-05
2.0925e-05
-2.98597e-05
2.36721e-05
2.42581e-05
-2.47173e-05
-1.64688e-05
2.53111e-05
2.80614e-09
3.57846e-05
-2.59532e-05
-3.80205e-05
-1.96203e-05
4.0877e-07
2.06006e-05
-9.2994e-06
-1.72999e-05
2.50746e-05
3.42747e-05
-2.52436e-05
-3.84159e-05
-1.7644e-05
1.9207e-05
-1.1596e-05
2.66901e-05
2.16137e-05
-3.47653e-05
1.25851e-05
-2.20421e-05
-1.77259e-05
1.99735e-05
-8.97662e-06
1.89891e-05
9.15793e-06
-9.4999e-06
-6.83684e-06
2.34578e-05
2.67745e-07
5.8286e-06
-1.22821e-05
2.33069e-05
4.73283e-06
-1.39878e-05
-0.000104423
-0.000199187
-9.66853e-05
-0.0001683
-7.90892e-05
-0.000143959
-5.98846e-05
-0.00012206
-4.0159e-05
-0.000101251
-2.01574e-05
-8.09027e-05
-3.1298e-06
0.000125383
-8.17036e-06
0.00010765
-1.15467e-05
0.000118126
-1.06767e-05
0.000131632
-1.48921e-05
0.000139915
1.94882e-05
0.000164122
-2.20144e-08
0.000169791
5.3998e-06
0.000166354
4.57273e-05
0.00018486
9.38926e-06
8.40803e-06
3.15874e-05
2.98031e-05
2.86745e-07
-3.34564e-05
-9.6412e-07
-3.45932e-05
-2.54055e-06
-9.18101e-08
-3.34584e-05
9.50327e-06
-3.32514e-05
6.65302e-06
1.01729e-06
-4.66584e-05
-3.44945e-05
2.31109e-05
-3.07723e-05
2.27006e-05
-4.85228e-05
-3.16192e-05
2.31106e-05
-2.86437e-05
2.2697e-05
1.4256e-06
-3.89818e-05
-2.54699e-05
1.4545e-05
-2.33778e-05
2.24639e-05
-4.20535e-05
-2.15444e-05
1.49948e-05
-2.07378e-05
2.27153e-05
-1.60761e-05
-2.54374e-05
-1.53311e-05
-1.71508e-05
-2.12788e-07
9.05076e-06
-1.56814e-05
-2.53244e-05
-1.75648e-05
-3.0029e-07
-1.73631e-05
1.03017e-05
-1.55398e-05
-2.75789e-05
-1.4051e-05
-1.7341e-05
9.40953e-06
-1.49084e-05
-2.71107e-05
-1.59576e-05
-1.75029e-05
1.05883e-05
-1.33065e-05
2.42345e-05
-2.04944e-05
-2.62037e-05
1.87704e-05
-3.85577e-07
-1.93771e-05
1.17642e-05
-1.4349e-05
-2.29696e-05
-3.65529e-07
1.23572e-05
-1.2734e-05
2.53287e-05
-2.16353e-05
-2.3772e-05
1.88137e-05
-1.93069e-05
1.17126e-05
-1.38058e-05
-2.12322e-05
1.2438e-05
-1.23732e-05
2.38566e-06
-4.91914e-06
-7.96876e-06
-9.14289e-06
1.24273e-08
2.01506e-07
6.81719e-06
-8.69905e-06
-1.28638e-05
2.00662e-08
-1.03749e-05
-1.20144e-05
3.64932e-06
-4.85189e-06
-8.07751e-06
7.07983e-06
-9.11641e-06
-8.58067e-06
-1.30044e-05
-1.03246e-05
-1.17022e-05
1.35187e-05
-1.362e-05
1.05148e-05
5.44839e-08
-9.73219e-06
-1.12848e-05
3.90873e-08
-1.14789e-05
1.37224e-05
-1.39036e-05
1.04833e-05
-9.75433e-06
-1.11134e-05
-1.11623e-05
2.45341e-05
8.11046e-08
1.50292e-06
1.50349e-05
-2.31212e-05
2.1116e-05
-9.38277e-06
1.34244e-07
1.00943e-05
2.82459e-05
-5.95436e-06
9.24417e-06
1.02382e-05
2.37726e-07
-6.64165e-06
-9.92098e-06
-8.61453e-06
1.05056e-05
2.20204e-07
9.6685e-06
-4.32365e-06
-0.000197106
-0.000134503
-0.000196593
-3.82711e-05
-4.25118e-05
-3.82061e-05
-3.95784e-05
2.14711e-06
-5.77641e-05
5.25904e-05
-2.95298e-05
-5.77893e-05
4.7181e-05
-2.00313e-05
2.41287e-06
-2.90879e-05
-2.28567e-05
1.96613e-06
-6.51661e-05
6.74021e-05
-5.35671e-05
4.1943e-05
-4.96994e-05
3.91584e-05
-6.25516e-05
6.36458e-05
-4.8764e-05
4.33991e-05
-4.50538e-05
4.073e-05
1.07972e-06
-4.0287e-05
3.7402e-05
-4.37948e-05
3.85217e-05
-3.83474e-05
3.80966e-05
-4.04615e-05
3.90424e-05
-2.02953e-05
-2.14044e-05
2.04049e-05
-1.70794e-05
-1.63868e-05
-2.56305e-07
1.76204e-05
1.89674e-05
-1.94005e-05
-2.5039e-05
-1.39037e-05
-2.24068e-07
-1.68107e-05
2.15548e-05
-1.96693e-05
-2.01571e-05
1.81121e-05
-1.58298e-05
-1.62791e-05
1.71378e-05
1.90759e-05
-1.88506e-05
-2.44909e-05
-1.35881e-05
-1.71052e-05
2.17473e-05
-1.8266e-05
3.73742e-05
-4.79583e-05
-9.4053e-06
-2.70022e-05
-4.55606e-05
-4.15834e-06
2.09354e-05
-7.16602e-08
8.62507e-06
-2.90692e-05
-1.85772e-05
-1.59064e-05
-1.66118e-07
1.41217e-05
1.52429e-07
1.84802e-05
4.51156e-06
-1.77634e-05
3.72488e-05
-4.78994e-05