/*--------------------------------*- C++ -*----------------------------------*\
| =========                 |                                                 |
| \\      /  F ield         | OpenFOAM: The Open Source CFD Toolbox           |
|  \\    /   O peration     | Version:  5.x                                   |
|   \\  /    A nd           | Web:      www.OpenFOAM.org                      |
|    \\/     M anipulation  |                                                 |
\*---------------------------------------------------------------------------*/
FoamFile
{
    version     2.0;
    format      ascii;
    class       volScalarField;
    location    "0.1";
    object      rAU;
}
// * * * * * * * * * * * * * * * * * * * * * * * * * * * * * * * * * * * * * //

dimensions      [-1 3 1 0 0 0 0];

internalField   nonuniform List<scalar> 
12160
(
8.93063e-07
8.93395e-07
8.93063e-07
8.9343e-07
8.934e-07
8.92814e-07
8.93519e-07
8.93387e-07
8.9313e-07
8.92638e-07
8.93529e-07
8.9348e-07
8.93438e-07
8.93112e-07
8.91905e-07
8.93685e-07
8.93539e-07
8.93536e-07
8.93416e-07
8.92636e-07
8.91174e-07
8.93694e-07
8.93685e-07
8.93609e-07
8.93517e-07
8.93217e-07
8.9215e-07
8.91929e-07
8.937e-07
8.93694e-07
8.93716e-07
8.93636e-07
8.93534e-07
8.92641e-07
8.92055e-07
8.92061e-07
8.93705e-07
8.93701e-07
8.93715e-07
8.93716e-07
8.93654e-07
8.9323e-07
8.92407e-07
8.91927e-07
1.54737e-06
8.93708e-07
8.93705e-07
8.93715e-07
8.93715e-07
8.93704e-07
8.93434e-07
8.93025e-07
8.92316e-07
3.41644e-06
1.55132e-05
8.9371e-07
8.93708e-07
8.93715e-07
8.93715e-07
8.93713e-07
8.93571e-07
8.93201e-07
8.92963e-07
4.35422e-06
9.78349e-05
0.00062745
8.93711e-07
8.9371e-07
8.93715e-07
8.93715e-07
8.93715e-07
8.93619e-07
8.93409e-07
8.93147e-07
8.04453e-06
0.000228892
0.0008795
0.000892256
8.93712e-07
8.93712e-07
8.93715e-07
8.93715e-07
8.93715e-07
8.93655e-07
8.93502e-07
8.9336e-07
1.16817e-05
0.000610284
0.000891066
0.000892749
0.000892365
8.93713e-07
8.93712e-07
8.93715e-07
8.93715e-07
8.93715e-07
8.93675e-07
8.93575e-07
8.93472e-07
1.84666e-05
0.000780506
0.000893013
0.000893636
0.000892787
0.000892363
8.93713e-07
8.93713e-07
8.93715e-07
8.93715e-07
8.93715e-07
8.93689e-07
8.93621e-07
8.93552e-07
2.79961e-05
0.000862058
0.000893328
0.000893671
0.000893635
0.000893684
0.000892367
8.93714e-07
8.93713e-07
8.93715e-07
8.93715e-07
8.93715e-07
8.93697e-07
8.93652e-07
8.93605e-07
4.21185e-05
0.000884668
0.000893593
0.00089371
0.000893667
0.000893654
0.0008929
8.93714e-07
8.93714e-07
8.93714e-07
8.93714e-07
8.93715e-07
8.93703e-07
8.93672e-07
8.9364e-07
6.23777e-05
0.00089107
0.00089371
0.00089371
0.00089371
0.000893678
0.000892915
8.93714e-07
8.93714e-07
8.93714e-07
8.93714e-07
8.93714e-07
8.93707e-07
8.93686e-07
8.93664e-07
9.07777e-05
0.00089289
0.00089371
0.00089371
0.00089371
0.000893709
0.000893148
8.93714e-07
8.93714e-07
8.93714e-07
8.93714e-07
8.93714e-07
8.93709e-07
8.93695e-07
8.9368e-07
0.000129343
0.000893428
0.000893709
0.000893709
0.000893709
0.000893709
0.000893269
8.93714e-07
8.93713e-07
8.93714e-07
8.93714e-07
8.93714e-07
8.93711e-07
8.93701e-07
8.93691e-07
0.000179672
0.000893596
0.000893709
0.000893709
0.000893709
0.000893709
0.0008934
8.93714e-07
8.93713e-07
8.93713e-07
8.93714e-07
8.93714e-07
8.93712e-07
8.93705e-07
8.93698e-07
0.000242246
0.000893653
0.000893709
0.000893709
0.000893709
0.000893709
0.00089349
8.93713e-07
8.93712e-07
8.93713e-07
8.93713e-07
8.93714e-07
8.93712e-07
8.93708e-07
8.93703e-07
0.000315632
0.000893674
0.000893709
0.000893709
0.000893709
0.000893709
0.000893555
8.93714e-07
8.93712e-07
8.93712e-07
8.93713e-07
8.93713e-07
8.93713e-07
8.9371e-07
8.93707e-07
0.000396301
0.000893683
0.000893681
0.000893709
0.000893709
0.000893709
0.0008936
8.93714e-07
8.93712e-07
8.93712e-07
8.93712e-07
8.93713e-07
8.93713e-07
8.93711e-07
8.93709e-07
0.000479074
0.000893688
0.000893684
0.000893681
0.000893709
0.000893709
0.000893631
8.93714e-07
8.93711e-07
8.93711e-07
8.93712e-07
8.93712e-07
8.93712e-07
8.93712e-07
8.93711e-07
0.000558337
0.000893691
0.000893687
0.000893684
0.000893708
0.000893709
0.000893652
8.93713e-07
8.93711e-07
8.9371e-07
8.93711e-07
8.93712e-07
8.93712e-07
8.93712e-07
8.93712e-07
0.000629878
0.000893678
0.00089369
0.000893687
0.000893708
0.000893708
0.000893667
8.93713e-07
8.9371e-07
8.9371e-07
8.9371e-07
8.93711e-07
8.93711e-07
8.93712e-07
8.93712e-07
0.000689349
0.000893682
0.000893678
0.00089369
0.000893708
0.000893708
0.000893676
8.93713e-07
8.93711e-07
8.93709e-07
8.93709e-07
8.9371e-07
8.9371e-07
8.93711e-07
8.93713e-07
0.00073806
0.000893687
0.000893682
0.000893693
0.000893708
0.000893708
0.000893683
8.93714e-07
8.93712e-07
8.9371e-07
8.93709e-07
8.93709e-07
8.93709e-07
8.9371e-07
8.93713e-07
0.000775714
0.00089369
0.000893686
0.000893694
0.000893708
0.000893708
0.000893688
8.93714e-07
8.93712e-07
8.93711e-07
8.9371e-07
8.93709e-07
8.93709e-07
8.9371e-07
8.93713e-07
0.000803863
0.000893693
0.00089369
0.000893697
0.000893707
0.000893708
0.000893692
8.93714e-07
8.93713e-07
8.93712e-07
8.93711e-07
8.9371e-07
8.93709e-07
8.9371e-07
8.93713e-07
0.000823895
0.000893695
0.000893692
0.000893698
0.000893708
0.000893708
0.000893695
8.93714e-07
8.93714e-07
8.93713e-07
8.93712e-07
8.9371e-07
8.93709e-07
8.9371e-07
8.93713e-07
0.000837497
0.000893697
0.000893694
0.0008937
0.000893708
0.000893708
0.000893697
8.93714e-07
8.93714e-07
8.93713e-07
8.93713e-07
8.93712e-07
8.9371e-07
8.93709e-07
8.93713e-07
0.000845692
0.000893699
0.000893696
0.000893698
0.000893708
0.000893708
0.000893699
8.93714e-07
8.93714e-07
8.93714e-07
8.93713e-07
8.93713e-07
8.93712e-07
8.9371e-07
8.93712e-07
0.000848958
0.0008937
0.000893697
0.000893698
0.000893705
0.000893708
0.0008937
8.93714e-07
8.93713e-07
8.93714e-07
8.93714e-07
8.93713e-07
8.93712e-07
8.93711e-07
8.93713e-07
0.000847749
0.0008937
0.000893698
0.000893697
0.000893703
0.000893707
0.000893702
8.93713e-07
8.93713e-07
8.93714e-07
8.93714e-07
8.93713e-07
8.93713e-07
8.93712e-07
8.93713e-07
0.000842943
0.000893702
0.000893699
0.000893698
0.0008937
0.000893707
0.000893703
8.93713e-07
8.93713e-07
8.93714e-07
8.93714e-07
8.93714e-07
8.93713e-07
8.93712e-07
8.93713e-07
0.000833745
0.0008937
0.000893699
0.000893698
0.000893699
0.000893705
0.000893703
8.93713e-07
8.93713e-07
8.93714e-07
8.93714e-07
8.93714e-07
8.93713e-07
8.93712e-07
8.93712e-07
0.000820129
0.0008937
0.000893699
0.000893698
0.000893698
0.000893704
0.000893704
8.93712e-07
8.93713e-07
8.93714e-07
8.93714e-07
8.93714e-07
8.93713e-07
8.93712e-07
8.93712e-07
0.000801734
0.000893703
0.000893698
0.000893703
0.000893697
0.000893703
0.000893705
8.93716e-07
8.93712e-07
8.93714e-07
8.93714e-07
8.93714e-07
8.93713e-07
8.93711e-07
8.93711e-07
0.00077797
0.000893702
0.000893702
0.000893702
0.000893707
0.000893698
0.000893704
8.93716e-07
8.93713e-07
8.93714e-07
8.93714e-07
8.93714e-07
8.93713e-07
8.9371e-07
8.9371e-07
0.000748336
0.000893701
0.000893701
0.000893702
0.000893707
0.000893706
0.0008937
8.93717e-07
8.93713e-07
8.93709e-07
8.93714e-07
8.93714e-07
8.93713e-07
8.93709e-07
8.93709e-07
0.000712471
0.0008937
0.0008937
0.000893701
0.000893707
0.000893707
0.000893704
8.93717e-07
8.93716e-07
8.93709e-07
8.93705e-07
8.93714e-07
8.93713e-07
8.93708e-07
8.93707e-07
0.000670374
0.000893698
0.000893698
0.0008937
0.000893707
0.000893707
0.000893704
8.93717e-07
8.93716e-07
8.93714e-07
8.93705e-07
8.93699e-07
8.93712e-07
8.93707e-07
8.93705e-07
0.000622622
0.000893696
0.000893697
0.000893698
0.000893707
0.000893707
0.000893704
8.93714e-07
8.93715e-07
8.93714e-07
8.93713e-07
8.93699e-07
8.9369e-07
8.93704e-07
8.93702e-07
0.000570247
0.000893695
0.000893695
0.000893697
0.000893707
0.000893707
0.000893703
8.93703e-07
8.93712e-07
8.93714e-07
8.93714e-07
8.93713e-07
8.9369e-07
8.93677e-07
8.93699e-07
0.000514737
0.000893693
0.000893693
0.000893695
0.000893707
0.000893707
0.000893701
8.93694e-07
8.93697e-07
8.93709e-07
8.93714e-07
8.93713e-07
8.93711e-07
8.93677e-07
8.93655e-07
0.000458091
0.00089369
0.00089369
0.000893693
0.000893707
0.000893707
0.0008937
0.000401742
8.93685e-07
8.93683e-07
8.93705e-07
8.93713e-07
8.93712e-07
8.93709e-07
8.93656e-07
8.93623e-07
0.000893688
0.000893688
0.00089369
0.000893707
0.000893707
0.000893698
0.000893692
0.000320636
8.93664e-07
8.93664e-07
8.93699e-07
8.93712e-07
8.9371e-07
8.93706e-07
8.93624e-07
8.93228e-07
0.000893686
0.000893688
0.000893706
0.000893707
0.000893696
0.000893705
0.000893684
0.000220543
8.93632e-07
8.93634e-07
8.9369e-07
8.93711e-07
8.93708e-07
8.93702e-07
8.93549e-07
8.92529e-07
0.000893686
0.000893706
0.000893707
0.000893694
0.000893704
0.000893706
0.000893664
0.000148289
8.93585e-07
8.93592e-07
8.93678e-07
8.93709e-07
8.93704e-07
8.93697e-07
8.93097e-07
8.9042e-07
0.000893706
0.000893706
0.000893691
0.00089371
0.000893706
0.000893708
0.000893616
9.95834e-05
8.93517e-07
8.93536e-07
8.93662e-07
8.93707e-07
8.93701e-07
8.93494e-07
8.92047e-07
8.91916e-07
8.92079e-07
0.000893706
0.000893688
0.000893709
0.00089371
0.000893708
0.000893707
0.000893475
6.76886e-05
8.93425e-07
8.9346e-07
8.93639e-07
8.93704e-07
8.93642e-07
8.93444e-07
8.93055e-07
8.9247e-07
8.92535e-07
8.93332e-07
0.000893685
0.000893682
0.00089371
0.000893708
0.000893708
0.000893707
0.000893049
4.69923e-05
8.93306e-07
8.93365e-07
8.9358e-07
8.93687e-07
8.93631e-07
8.93714e-07
8.93247e-07
8.92549e-07
8.92604e-07
8.93714e-07
8.93714e-07
0.000893676
0.000893709
0.000893708
0.000893707
0.000893705
0.000891818
3.35452e-05
8.9316e-07
8.93223e-07
8.93519e-07
8.93687e-07
8.93714e-07
8.93714e-07
8.93367e-07
8.9315e-07
8.92536e-07
8.93714e-07
8.93714e-07
8.93714e-07
0.000893659
0.000893708
0.000893708
0.000893706
0.000893704
0.000888549
2.47733e-05
8.92992e-07
8.93079e-07
8.93183e-07
8.93714e-07
8.93714e-07
8.93579e-07
8.93439e-07
8.92543e-07
8.93078e-07
8.93714e-07
8.93714e-07
8.93714e-07
8.93714e-07
0.000893636
0.000893708
0.000893707
0.000893705
0.000893661
0.000880854
1.90463e-05
8.92816e-07
8.92663e-07
8.93112e-07
8.93714e-07
8.93605e-07
8.93485e-07
8.92542e-07
8.9229e-07
8.93111e-07
8.93715e-07
8.93714e-07
8.93714e-07
8.93714e-07
8.93714e-07
0.000893605
0.000893708
0.000893706
0.000893704
0.00089342
0.000866102
1.53216e-05
8.92659e-07
8.92525e-07
8.93058e-07
8.93674e-07
8.93537e-07
8.936e-07
8.92774e-07
8.92799e-07
8.92305e-07
8.92985e-07
8.91227e-07
8.91801e-07
8.93236e-07
8.93443e-07
8.93714e-07
8.93714e-07
8.93714e-07
8.93714e-07
0.000893566
0.000893707
0.000893705
0.000893703
0.000893349
0.000842474
1.30594e-05
8.92545e-07
8.92423e-07
8.93018e-07
8.93655e-07
8.93618e-07
8.92758e-07
8.92276e-07
8.92085e-07
8.92637e-07
8.92315e-07
8.9221e-07
8.89524e-07
8.89948e-07
8.92586e-07
8.90746e-07
8.90946e-07
8.93145e-07
8.93411e-07
8.93714e-07
8.93714e-07
8.93714e-07
8.93714e-07
0.00089352
0.000893706
0.000893704
0.000893702
0.00089346
0.000814448
1.17318e-05
8.92449e-07
8.92347e-07
8.92967e-07
8.93714e-07
8.93687e-07
8.92927e-07
8.89053e-07
8.88554e-07
8.91794e-07
8.91694e-07
8.92894e-07
8.87435e-07
8.92323e-07
8.92868e-07
8.92968e-07
8.92244e-07
8.92291e-07
8.87067e-07
8.88567e-07
8.88514e-07
8.93063e-07
8.93539e-07
8.93714e-07
8.93714e-07
8.93714e-07
8.93714e-07
0.000893469
0.000893706
0.000893704
0.000893696
0.000893689
0.000787223
1.08248e-05
8.9238e-07
8.92297e-07
8.92965e-07
8.93005e-07
8.93625e-07
8.91038e-07
8.91081e-07
8.90977e-07
8.91283e-07
8.81963e-07
8.81866e-07
8.8736e-07
8.86752e-07
8.86497e-07
8.75953e-07
8.73561e-07
8.76587e-07
8.75457e-07
8.92365e-07
8.92747e-07
8.89973e-07
8.9167e-07
8.88453e-07
8.88512e-07
8.86674e-07
8.87037e-07
8.8726e-07
8.76931e-07
8.75437e-07
8.7773e-07
8.75549e-07
8.71761e-07
8.69252e-07
8.66727e-07
8.77189e-07
8.72527e-07
8.70626e-07
8.67414e-07
8.76113e-07
8.93123e-07
8.93357e-07
8.93714e-07
8.93714e-07
8.93714e-07
8.93714e-07
0.000893416
0.000893705
0.000893699
0.000893695
0.000893622
0.000761822
1.02453e-05
8.92346e-07
8.92293e-07
8.92995e-07
8.93541e-07
8.91083e-07
8.91467e-07
8.91894e-07
8.91789e-07
8.88299e-07
8.88271e-07
8.88285e-07
8.87761e-07
8.69141e-07
8.7402e-07
8.77967e-07
8.66444e-07
8.74246e-07
8.65738e-07
8.74618e-07
8.69406e-07
8.77537e-07
8.66411e-07
8.73911e-07
8.66262e-07
8.79555e-07
8.74451e-07
8.72931e-07
8.72972e-07
8.79847e-07
8.74712e-07
8.72826e-07
8.7339e-07
8.74535e-07
8.69746e-07
8.76226e-07
8.7293e-07
8.77742e-07
8.79024e-07
8.77766e-07
8.81249e-07
8.91619e-07
8.91385e-07
8.89813e-07
8.90056e-07
8.90439e-07
8.9192e-07
8.85319e-07
8.85406e-07
8.8183e-07
8.81769e-07
8.75558e-07
8.71048e-07
8.77455e-07
8.71431e-07
8.66747e-07
8.58588e-07
8.65554e-07
8.73096e-07
8.67474e-07
8.58869e-07
8.66338e-07
8.71196e-07
8.78454e-07
8.80361e-07
8.78744e-07
8.81446e-07
8.73717e-07
8.81528e-07
8.74529e-07
8.80146e-07
8.92946e-07
8.93714e-07
8.93714e-07
8.93714e-07
8.93714e-07
8.93714e-07
0.000893366
0.000893703
0.000893698
0.000893682
0.000893037
0.00074144
9.96674e-06
8.92341e-07
8.93081e-07
8.93415e-07
8.91585e-07
8.91402e-07
8.91062e-07
8.91161e-07
8.89915e-07
8.88074e-07
8.90501e-07
8.90391e-07
8.79093e-07
8.76943e-07
8.7337e-07
8.77426e-07
8.73196e-07
8.76867e-07
8.6769e-07
8.77494e-07
8.76474e-07
8.82025e-07
8.74059e-07
8.77763e-07
8.7771e-07
8.8215e-07
8.74771e-07
8.77778e-07
8.83467e-07
8.6439e-07
8.73317e-07
8.78919e-07
8.72691e-07
8.68687e-07
8.84664e-07
8.64442e-07
8.78722e-07
8.7293e-07
8.72564e-07
8.68615e-07
8.76843e-07
8.77556e-07
8.76591e-07
8.74466e-07
8.77084e-07
8.77774e-07
8.76718e-07
8.74858e-07
8.82146e-07
8.77997e-07
8.82943e-07
8.77187e-07
8.85633e-07
8.84604e-07
8.8341e-07
8.85004e-07
8.91723e-07
8.91649e-07
8.90019e-07
8.909e-07
8.89161e-07
8.89311e-07
8.86817e-07
8.86397e-07
8.86241e-07
8.8537e-07
8.7011e-07
8.69159e-07
8.70302e-07
8.72363e-07
8.75924e-07
8.69518e-07
8.75944e-07
8.72547e-07
8.73111e-07
8.63635e-07
8.74336e-07
8.72604e-07
8.77094e-07
8.71034e-07
8.72521e-07
8.6328e-07
8.7453e-07
8.72394e-07
8.77184e-07
8.71885e-07
8.82874e-07
8.79314e-07
8.84086e-07
8.76914e-07
8.73242e-07
8.74639e-07
8.73851e-07
8.7456e-07
8.85389e-07
8.85893e-07
8.86685e-07
8.86792e-07
8.84083e-07
8.84274e-07
8.84092e-07
8.83705e-07
8.93715e-07
8.93714e-07
8.93714e-07
8.93714e-07
8.93714e-07
8.93714e-07
0.000893321
0.000893701
0.000893673
0.000892672
0.00089266
0.000731092
9.95652e-06
8.92577e-07
8.92702e-07
8.91356e-07
8.91473e-07
8.91067e-07
8.91346e-07
8.91919e-07
8.92762e-07
8.92479e-07
8.92864e-07
8.74833e-07
8.81409e-07
8.72734e-07
8.81173e-07
8.75077e-07
8.81621e-07
8.72783e-07
8.8141e-07
8.7715e-07
8.69816e-07
8.74999e-07
8.75451e-07
8.78708e-07
8.69892e-07
8.76133e-07
8.75437e-07
8.77563e-07
8.76561e-07
8.77117e-07
8.79987e-07
8.71213e-07
8.76105e-07
8.71893e-07
8.80066e-07
8.75647e-07
8.83069e-07
8.74114e-07
8.78393e-07
8.76304e-07
8.82797e-07
8.74552e-07
8.77943e-07
8.85221e-07
8.87275e-07
8.84722e-07
8.85729e-07
8.93007e-07
8.91315e-07
8.92996e-07
8.92972e-07
8.91804e-07
8.91989e-07
8.85715e-07
8.87211e-07
8.85101e-07
8.85624e-07
8.72656e-07
8.72599e-07
8.73752e-07
8.68132e-07
8.73643e-07
8.72413e-07
8.75255e-07
8.68042e-07
8.741e-07
8.71864e-07
8.7301e-07
8.70332e-07
8.75031e-07
8.7181e-07
8.74492e-07
8.70511e-07
8.72295e-07
8.71993e-07
8.75871e-07
8.69053e-07
8.72099e-07
8.72131e-07
8.76072e-07
8.68959e-07
8.79075e-07
8.86006e-07
8.71627e-07
8.69862e-07
8.78242e-07
8.71596e-07
8.79197e-07
8.86195e-07
8.71743e-07
8.70561e-07
8.78147e-07
8.71479e-07
8.85095e-07
8.87633e-07
8.8787e-07
8.85742e-07
8.73547e-07
8.80859e-07
8.74039e-07
8.82846e-07
8.93715e-07
8.93714e-07
8.93714e-07
8.93714e-07
8.93714e-07
8.93714e-07
0.000893287
0.000893688
0.000893165
0.000892636
0.000892486
0.00073016
1.05806e-05
8.92474e-07
8.93298e-07
8.93415e-07
8.93376e-07
8.92888e-07
8.92954e-07
8.87611e-07
8.87963e-07
8.90709e-07
8.91204e-07
8.77517e-07
8.79304e-07
8.79623e-07
8.79874e-07
8.78135e-07
8.79582e-07
8.76096e-07
8.80155e-07
8.81042e-07
8.70785e-07
8.80663e-07
8.77921e-07
8.81718e-07
8.71188e-07
8.77716e-07
8.78155e-07
8.80446e-07
8.88378e-07
8.80852e-07
8.88203e-07
8.93456e-07
8.9138e-07
8.88575e-07
8.88999e-07
8.91572e-07
8.91686e-07
8.91928e-07
8.89586e-07
8.92065e-07
8.90643e-07
8.54756e-07
8.59739e-07
8.64149e-07
8.63089e-07
8.55755e-07
8.60179e-07
8.65116e-07
8.63048e-07
8.65554e-07
8.729e-07
8.63296e-07
8.7086e-07
8.67073e-07
8.72744e-07
8.64693e-07
8.70871e-07
8.81203e-07
8.78251e-07
8.76235e-07
8.68774e-07
8.81536e-07
8.78257e-07
8.76267e-07
8.68846e-07
8.74066e-07
8.80255e-07
8.72502e-07
8.74189e-07
8.71672e-07
8.77849e-07
8.71156e-07
8.71889e-07
8.93715e-07
8.93714e-07
8.93714e-07
8.93714e-07
8.93714e-07
8.93714e-07
0.000893258
0.000893682
0.000893015
0.000892509
0.000892474
0.000739418
1.15756e-05
8.93478e-07
8.90734e-07
8.90882e-07
8.92789e-07
8.92789e-07
8.90037e-07
8.90243e-07
8.9055e-07
8.90573e-07
8.84401e-07
8.72329e-07
8.8177e-07
8.78601e-07
8.84515e-07
8.72756e-07
8.81674e-07
8.78461e-07
8.84014e-07
8.73772e-07
8.84333e-07
8.78686e-07
8.84279e-07
8.73996e-07
8.84699e-07
8.78534e-07
8.80572e-07
8.87626e-07
8.84073e-07
8.84326e-07
8.80322e-07
8.87863e-07
8.83766e-07
8.8451e-07
8.83443e-07
8.85305e-07
8.85589e-07
8.87364e-07
8.83983e-07
8.85427e-07
8.85496e-07
8.8739e-07
8.93305e-07
8.93358e-07
8.9198e-07
8.88706e-07
8.8958e-07
8.90291e-07
8.89853e-07
8.86897e-07
8.86704e-07
8.81773e-07
8.81445e-07
8.62488e-07
8.64091e-07
8.74689e-07
8.66368e-07
8.61504e-07
8.64827e-07
8.74796e-07
8.66362e-07
8.78078e-07
8.81556e-07
8.77986e-07
8.80212e-07
8.7816e-07
8.81481e-07
8.7811e-07
8.80225e-07
8.83762e-07
8.86975e-07
8.84285e-07
8.85992e-07
8.93714e-07
8.93714e-07
8.93714e-07
8.93714e-07
8.93714e-07
8.93714e-07
0.000893234
0.000893508
0.000892678
0.000892479
0.000892352
0.000742334
3.22296e-05
9.2441e-07
8.92194e-07
8.92436e-07
8.92624e-07
8.92637e-07
8.77014e-07
8.77747e-07
8.72994e-07
8.82795e-07
8.77476e-07
8.78227e-07
8.73521e-07
8.82432e-07
8.89745e-07
8.8973e-07
8.78405e-07
8.73315e-07
8.75737e-07
8.84453e-07
8.78234e-07
8.73031e-07
8.74676e-07
8.76327e-07
8.83635e-07
8.83148e-07
8.87836e-07
8.85862e-07
8.83683e-07
8.85422e-07
8.88177e-07
8.8115e-07
8.71923e-07
8.67226e-07
8.71783e-07
8.68534e-07
8.93715e-07
8.93307e-07
8.92633e-07
8.91047e-07
8.90855e-07
8.91856e-07
8.92294e-07
8.89962e-07
8.91406e-07
8.87734e-07
8.88325e-07
8.66766e-07
8.62349e-07
8.66405e-07
8.71128e-07
8.6763e-07
8.64788e-07
8.67475e-07
8.71119e-07
8.73481e-07
8.62697e-07
8.73387e-07
8.65574e-07
8.73848e-07
8.70198e-07
8.73354e-07
8.72386e-07
8.80751e-07
8.70056e-07
8.80875e-07
8.71025e-07
8.81366e-07
8.70188e-07
8.81253e-07
8.70498e-07
8.81114e-07
8.86549e-07
8.84631e-07
8.86951e-07
8.8302e-07
8.8653e-07
8.85343e-07
8.86901e-07
8.93714e-07
8.93714e-07
8.93714e-07
8.93714e-07
8.93714e-07
0.00089325
0.000892655
0.000892824
0.000892278
0.000892205
0.000745876
0.000864843
8.97605e-07
8.97554e-07
1.24353e-06
1.24325e-06
8.81415e-07
8.82704e-07
8.8194e-07
8.77759e-07
8.81919e-07
8.82904e-07
8.81722e-07
8.77935e-07
8.88223e-07
8.88351e-07
8.81657e-07
8.81419e-07
8.75901e-07
8.83478e-07
8.82344e-07
8.81968e-07
8.76277e-07
8.83245e-07
8.83066e-07
8.87839e-07
8.8054e-07
8.83864e-07
8.83764e-07
8.8826e-07
8.80386e-07
8.8411e-07
8.76156e-07
8.87256e-07
8.83049e-07
8.84975e-07
8.76174e-07
8.87301e-07
8.83099e-07
8.81866e-07
8.93715e-07
8.93531e-07
8.92708e-07
8.91008e-07
8.88103e-07
8.89235e-07
8.82828e-07
8.84513e-07
8.77948e-07
8.78984e-07
8.58859e-07
8.58907e-07
8.54406e-07
8.52254e-07
8.63525e-07
8.58894e-07
8.55058e-07
8.55264e-07
8.69588e-07
8.80156e-07
8.68734e-07
8.7969e-07
8.70607e-07
8.80883e-07
8.69643e-07
8.7979e-07
8.74184e-07
8.78857e-07
8.75668e-07
8.7606e-07
8.7376e-07
8.80098e-07
8.76198e-07
8.75001e-07
8.89134e-07
8.26654e-07
8.89819e-07
8.2862e-07
8.93714e-07
8.93714e-07
8.93714e-07
8.93714e-07
0.000892733
0.000892772
0.000892549
0.000892753
0.000885917
0.000884825
0.000402719
0.000632637
0.000851703
0.000851576
8.96562e-07
8.96223e-07
1.25947e-06
1.25145e-06
8.82272e-07
8.83839e-07
8.82527e-07
8.78498e-07
8.82683e-07
8.83925e-07
8.82391e-07
8.7864e-07
8.7993e-07
8.84216e-07
8.80433e-07
8.82715e-07
8.80018e-07
8.84294e-07
8.80538e-07
8.81452e-07
8.80602e-07
8.87761e-07
8.85465e-07
8.7848e-07
8.80302e-07
8.87832e-07
8.85305e-07
8.78242e-07
8.8599e-07
8.8484e-07
8.86371e-07
8.77333e-07
8.86839e-07
8.85196e-07
8.87093e-07
8.78197e-07
8.93714e-07
8.93715e-07
8.9278e-07
8.92268e-07
8.88911e-07
8.89373e-07
8.8602e-07
8.85717e-07
8.80984e-07
8.81192e-07
8.5052e-07
8.60513e-07
8.44369e-07
8.58435e-07
8.55605e-07
8.59751e-07
8.48378e-07
8.57848e-07
8.62131e-07
8.65381e-07
8.73185e-07
8.68126e-07
8.59946e-07
8.59986e-07
8.64907e-07
8.66612e-07
8.73727e-07
8.68786e-07
8.60732e-07
8.60907e-07
8.73594e-07
8.62215e-07
8.75348e-07
8.62945e-07
8.30994e-07
8.87729e-07
8.59129e-07
8.72306e-07
8.33096e-07
8.88324e-07
8.60218e-07
8.72287e-07
8.93714e-07
8.93714e-07
8.93714e-07
0.000892901
0.000892405
0.000893136
0.00089187
0.000890941
0.000884868
0.000317565
0.000581554
0.000865313
0.000864489
8.81931e-07
8.83128e-07
8.90609e-07
8.92236e-07
8.87957e-07
8.87745e-07
8.83159e-07
8.82052e-07
8.8758e-07
8.90848e-07
8.923e-07
8.88116e-07
1.7401e-06
1.70255e-06
9.64253e-07
9.3736e-07
1.7826e-06
1.76011e-06
9.66106e-07
9.41101e-07
8.77322e-07
8.8815e-07
8.81477e-07
8.85381e-07
8.77252e-07
8.87993e-07
8.80308e-07
8.8542e-07
8.77206e-07
8.81546e-07
8.76828e-07
8.81204e-07
8.76455e-07
8.7417e-07
8.76244e-07
8.73627e-07
8.78575e-07
8.79793e-07
8.78551e-07
8.79509e-07
8.93714e-07
8.93715e-07
8.93357e-07
8.91835e-07
8.91115e-07
8.91166e-07
8.91302e-07
8.91288e-07
8.85406e-07
8.86312e-07
8.77577e-07
8.77983e-07
8.63403e-07
8.50171e-07
8.61506e-07
8.68144e-07
8.6192e-07
8.56434e-07
8.63144e-07
8.49593e-07
8.62023e-07
8.65524e-07
8.61828e-07
8.5715e-07
8.71775e-07
8.62659e-07
8.6798e-07
8.61849e-07
8.81959e-07
8.79187e-07
8.79004e-07
8.865e-07
8.75875e-07
8.70458e-07
8.78963e-07
8.79704e-07
8.79274e-07
8.8778e-07
8.75277e-07
8.71159e-07
8.8391e-07
8.70871e-07
8.85712e-07
8.70875e-07
8.93714e-07
8.93714e-07
0.000892713
0.000892932
0.000892833
0.000889655
0.000885859
0.000868504
0.000868384
0.000873079
0.000875241
0.000129658
0.000320798
0.000863224
0.000863072
8.7124e-07
8.81084e-07
8.81616e-07
8.85703e-07
8.90611e-07
8.80898e-07
8.71786e-07
8.8127e-07
8.84481e-07
8.85521e-07
8.90516e-07
8.82798e-07
1.86229e-06
1.51029e-06
9.74731e-07
9.2206e-07
1.80332e-06
1.56611e-06
9.59359e-07
9.21508e-07
8.7555e-07
8.73928e-07
8.75492e-07
8.73436e-07
8.93714e-07
8.93715e-07
8.93715e-07
8.9336e-07
8.91152e-07
8.86327e-07
8.86978e-07
8.90501e-07
8.90784e-07
8.48649e-07
8.54283e-07
8.61038e-07
8.57837e-07
8.51438e-07
8.54399e-07
8.64903e-07
8.57212e-07
8.52819e-07
8.57073e-07
8.71485e-07
8.5505e-07
8.73629e-07
8.67717e-07
8.54352e-07
8.57448e-07
8.71919e-07
8.58119e-07
8.73513e-07
8.67391e-07
8.61329e-07
8.75526e-07
8.59058e-07
8.84727e-07
8.59721e-07
8.76587e-07
8.59293e-07
8.8497e-07
8.80894e-07
8.65368e-07
8.79587e-07
8.65015e-07
8.8232e-07
8.8149e-07
8.82638e-07
8.19499e-07
8.78469e-07
8.80795e-07
8.83498e-07
8.21683e-07
8.93714e-07
0.000893284
0.000892789
0.000892609
0.000888411
0.000887843
0.000878209
0.000876698
0.000884884
0.000887028
0.000862561
5.52361e-05
3.8468e-05
0.000855073
0.000866801
0.000188948
8.27173e-05
0.000824422
0.000876378
0.00087079
1.30037e-06
1.15628e-06
8.95452e-07
8.92876e-07
1.43949e-06
1.18003e-06
9.07963e-07
9.00303e-07
8.93714e-07
8.93714e-07
8.93715e-07
8.92947e-07
8.92853e-07
8.88817e-07
8.88962e-07
8.88412e-07
8.88457e-07
8.89847e-07
8.91471e-07
8.81114e-07
8.82033e-07
8.62193e-07
8.57742e-07
8.78569e-07
8.60095e-07
8.61251e-07
8.58329e-07
8.78086e-07
8.58979e-07
8.80843e-07
8.46008e-07
8.5677e-07
8.53658e-07
8.84146e-07
8.85336e-07
8.81456e-07
8.4932e-07
8.60238e-07
8.58121e-07
8.83789e-07
8.85037e-07
8.56043e-07
8.56116e-07
8.59115e-07
8.56676e-07
0.000893002
0.000893119
0.000890613
0.000889978
0.000884933
0.000884069
0.000886306
0.000886134
0.000873093
0.000870529
0.00087395
0.00088528
0.000844799
3.71758e-05
7.3669e-05
0.000826
0.000843498
4.7455e-05
0.000123691
0.000807549
0.000850648
0.00085438
0.00083032
0.00082573
0.000817829
0.000813447
0.000794727
0.000788177
1.2983e-06
1.023e-06
1.25077e-06
1.0776e-06
8.93714e-07
8.93715e-07
8.93715e-07
8.92078e-07
8.91196e-07
8.84481e-07
8.85075e-07
8.85933e-07
8.85811e-07
8.78334e-07
8.79065e-07
8.54852e-07
8.60197e-07
8.60462e-07
8.4809e-07
8.55211e-07
8.61172e-07
8.60769e-07
8.48562e-07
8.8176e-07
8.78353e-07
8.76379e-07
8.63116e-07
8.83211e-07
8.79836e-07
8.73474e-07
8.58922e-07
0.000892764
0.000892689
0.000890272
0.000890161
0.000884661
0.00088165
0.000884102
0.000886026
0.000839033
0.000829382
0.000863081
0.00084896
0.000880107
0.000841944
0.000830616
0.000792313
0.000852865
0.000844216
0.000859752
0.000848791
0.000878463
0.000880828
0.000717292
0.000208654
0.000326068
0.000704554
0.000720124
0.000324942
0.000396374
0.000716461
0.000818751
0.000810022
0.000805754
0.000757212
8.93714e-07
8.93715e-07
8.93102e-07
8.9204e-07
8.87114e-07
8.87349e-07
8.85436e-07
8.86355e-07
8.85118e-07
8.8744e-07
8.80713e-07
8.81225e-07
8.44977e-07
8.53573e-07
8.60323e-07
8.66829e-07
8.56421e-07
8.59819e-07
8.48385e-07
8.55201e-07
8.61791e-07
8.67323e-07
8.57116e-07
8.59532e-07
8.73425e-07
8.609e-07
8.73521e-07
8.59107e-07
8.77475e-07
8.53667e-07
8.77429e-07
8.55786e-07
0.000890432
0.000892987
0.000890186
0.000891033
0.000890559
0.000891782
0.000890223
0.000882417
0.000883341
0.000890146
0.000890824
0.000796089
0.000868208
0.000869975
0.000853019
0.000868471
0.000858091
0.000832921
0.000835405
0.000859102
0.000872246
0.000863416
0.000869307
0.000857134
0.000862537
0.000857423
0.000866619
0.00087148
0.000860406
0.000874381
0.000851644
8.93714e-07
8.93715e-07
8.92151e-07
8.90873e-07
8.88737e-07
8.88656e-07
8.86906e-07
8.87378e-07
8.77283e-07
8.78067e-07
8.54816e-07
8.55453e-07
8.49963e-07
8.59053e-07
8.56332e-07
8.52514e-07
8.5206e-07
8.58584e-07
8.5729e-07
8.50972e-07
8.55376e-07
8.57438e-07
8.62643e-07
8.78624e-07
8.54732e-07
8.54552e-07
8.63284e-07
8.81438e-07
8.56586e-07
8.57463e-07
8.69345e-07
7.82805e-07
8.83319e-07
7.8892e-07
0.000889609
0.000890588
0.000891673
0.000890991
0.000890426
0.000890988
0.000889688
0.000859985
0.000871095
0.000860556
0.000868431
0.000865038
0.000865888
0.000869318
0.000868422
0.000861556
0.000867318
0.000856879
0.0008676
0.000881098
0.000881888
0.000875406
0.00084996
0.000824484
0.000857021
0.000852859
0.000869376
0.000826229
0.000832189
8.93715e-07
8.93135e-07
8.92528e-07
8.90212e-07
8.90746e-07
8.86061e-07
8.86859e-07
8.906e-07
8.92032e-07
8.79623e-07
8.80443e-07
8.52272e-07
8.487e-07
8.65562e-07
8.53609e-07
8.56301e-07
8.54646e-07
8.52339e-07
8.55314e-07
8.5602e-07
8.5005e-07
8.63128e-07
8.54827e-07
8.68849e-07
8.56789e-07
8.60775e-07
8.29599e-07
8.59629e-07
8.70415e-07
8.31609e-07
8.54693e-07
0.000885846
0.000893114
0.000889605
0.0008874
0.000887551
0.000888002
0.000888059
0.000859329
0.00087642
0.000873993
0.000873093
0.000877716
0.000863467
0.000880529
0.000872217
0.000876977
0.000873855
0.000882987
0.000864456
0.000849979
0.000865934
0.000857541
0.000868008
0.000849525
0.000867606
0.000854411
0.000870072
0.00079166
0.000873594
0.000810116
0.000800699
8.93715e-07
8.91961e-07
8.91925e-07
8.90328e-07
8.90622e-07
8.90276e-07
8.90593e-07
8.79038e-07
8.79754e-07
8.58577e-07
8.5043e-07
8.49579e-07
8.61932e-07
8.54321e-07
8.47218e-07
8.59879e-07
8.50823e-07
8.49723e-07
8.6235e-07
8.54001e-07
8.47644e-07
8.67266e-07
8.78822e-07
8.43605e-07
8.58017e-07
8.76305e-07
8.55063e-07
8.68496e-07
8.44542e-07
0.000888702
0.00089076
0.000886595
0.000880416
0.000880551
0.000886227
0.000889277
0.000889276
0.000877354
0.000847019
0.000880176
0.000877602
0.000846443
0.000881502
0.000847993
0.000854131
0.000881586
0.000877887
0.000881446
0.000874141
0.000868317
0.000883559
0.000882964
0.000881312
0.000883636
0.000876759
0.000861603
0.000879761
0.000854925
0.000882866
8.93299e-07
8.92551e-07
8.91249e-07
8.90342e-07
8.90543e-07
8.85434e-07
8.8575e-07
8.43935e-07
8.47807e-07
8.59524e-07
8.53142e-07
8.57846e-07
8.5478e-07
8.4745e-07
8.58125e-07
8.5527e-07
8.47826e-07
8.60003e-07
8.53622e-07
8.80879e-07
8.7107e-07
8.73814e-07
8.50557e-07
8.81764e-07
8.70896e-07
8.74393e-07
8.50458e-07
8.66726e-07
8.36324e-07
8.68133e-07
8.37539e-07
0.000881375
0.000891401
0.000884008
0.000888943
0.000883933
0.000888495
0.000887345
0.000889299
0.000840842
0.000843644
0.000881834
0.000843354
0.000879996
0.00088102
0.000844082
0.000879065
0.000845258
0.000842894
0.000881647
0.000843702
0.000880611
0.00088084
0.000845392
0.000878187
0.000880333
0.000878208
0.000883091
0.000870182
0.000868657
0.0008761
0.000872876
0.000876396
8.92435e-07
8.93385e-07
8.89974e-07
8.87891e-07
8.87788e-07
8.90391e-07
8.87731e-07
8.88091e-07
8.76309e-07
8.55105e-07
8.51458e-07
8.76941e-07
8.56649e-07
8.50907e-07
8.81823e-07
8.66412e-07
8.74641e-07
8.58459e-07
8.83149e-07
8.7601e-07
8.66839e-07
8.57366e-07
8.84777e-07
8.4554e-07
8.74809e-07
8.5755e-07
8.85096e-07
8.43737e-07
8.76488e-07
8.59128e-07
0.000884697
0.000888591
0.000879779
0.000878941
0.000848552
0.000878879
0.000879273
0.000878667
0.00084902
0.000880164
0.000888074
0.000888713
0.000857678
0.000850515
0.000840534
0.000861703
0.000885648
0.000873617
0.000862369
0.000839451
0.000849362
0.000860718
0.000886926
0.000874158
0.000849517
0.000872559
0.000842487
0.000871112
8.92836e-07
8.92362e-07
8.89489e-07
8.85413e-07
8.85646e-07
8.90083e-07
8.91399e-07
8.91146e-07
8.57712e-07
8.53804e-07
8.73288e-07
8.52137e-07
8.67617e-07
8.55337e-07
8.47613e-07
8.4908e-07
8.58356e-07
8.55376e-07
8.7285e-07
8.5346e-07
8.67419e-07
8.54954e-07
8.50114e-07
8.4882e-07
8.72453e-07
8.65527e-07
8.74611e-07
8.70076e-07
8.71761e-07
8.72088e-07
8.65011e-07
8.69606e-07
0.000879728
0.000888298
0.00088445
0.000883712
0.000887823
0.00088977
0.000888964
0.000835385
0.000876795
0.000853179
0.000880624
0.00085481
0.000876036
0.000835096
0.000877053
0.000881311
0.000834815
0.000877806
0.000840601
0.000876946
0.000850316
0.000880765
0.000852552
0.000878298
0.000839309
0.000879047
0.000881235
0.000838937
0.000880399
0.000811464
0.000847749
0.000846653
0.000863329
0.000805803
0.000869457
0.000851809
0.000863079
8.92904e-07
8.91392e-07
8.89343e-07
8.78964e-07
8.46879e-07
8.64869e-07
8.78658e-07
8.4679e-07
8.64751e-07
8.90997e-07
8.84761e-07
8.86266e-07
8.80203e-07
8.76884e-07
8.51934e-07