/*--------------------------------*- C++ -*----------------------------------*\
| =========                 |                                                 |
| \\      /  F ield         | OpenFOAM: The Open Source CFD Toolbox           |
|  \\    /   O peration     | Version:  5.x                                   |
|   \\  /    A nd           | Web:      www.OpenFOAM.org                      |
|    \\/     M anipulation  |                                                 |
\*---------------------------------------------------------------------------*/
FoamFile
{
    version     2.0;
    format      ascii;
    class       volVectorField;
    location    "0.1";
    object      U;
}
// * * * * * * * * * * * * * * * * * * * * * * * * * * * * * * * * * * * * * //

dimensions      [0 1 -1 0 0 0 0];

internalField   nonuniform List<vector> 
12160
(
(0.179502 0 0.0114408)
(0.167683 0 0.0091628)
(0.177813 0 0.0322754)
(0.0774991 0 0.00880304)
(0.165752 0 0.0257311)
(0.174114 0 0.0581962)
(0.0772945 0 0.00517635)
(0.0759606 0 0.0252755)
(0.161468 0 0.0448757)
(0.167747 0 0.0737621)
(0.0394945 0 0.0040251)
(0.0755726 0 0.0149851)
(0.0726378 0 0.0429642)
(0.153496 0 0.0570181)
(0.161421 0 0.122666)
(0.0322174 0 0.0026399)
(0.0384021 0 0.0117822)
(0.0719387 0 0.0250967)
(0.0672513 0 0.0569065)
(0.145629 0 0.0880131)
(0.143841 0 0.118443)
(0.0198933 0 0.00181392)
(0.0313127 0 0.0077565)
(0.0361678 0 0.0195735)
(0.0662975 0 0.0330331)
(0.0614884 0 0.0821174)
(0.124033 0 0.0817839)
(0.140796 0 0.199299)
(0.0137974 0 0.00123795)
(0.0192957 0 0.00535388)
(0.0294731 0 0.0127818)
(0.0328743 0 0.0260754)
(0.0595115 0 0.0467201)
(0.048488 0 0.0805365)
(0.115322 0 0.133055)
(0.104402 0 0.212251)
(0.00935483 0 0.000845483)
(0.0133737 0 0.00366069)
(0.0180992 0 0.00880727)
(0.0267242 0 0.0169361)
(0.0290718 0 0.0358592)
(0.0473686 0 0.0442559)
(0.0434689 0 0.121147)
(0.0620292 0 0.124979)
(0.0912143 0 0.304262)
(0.00637575 0 0.000578603)
(0.00905964 0 0.00250307)
(0.0125285 0 0.00600608)
(0.0163358 0 0.0117166)
(0.0233338 0 0.023006)
(0.0226801 0 0.0350526)
(0.0402673 0 0.0665055)
(0.0228909 0 0.10677)
(0.117422 0 0.156275)
(0.0962608 0 0.147773)
(0.00436287 0 0.000397303)
(0.00617086 0 0.00171419)
(0.00847358 0 0.00409983)
(0.0112816 0 0.00799336)
(0.0141928 0 0.015787)
(0.0181013 0 0.0221866)
(0.0195664 0 0.0510219)
(0.0179624 0 0.0552225)
(0.0511454 0 0.127866)
(0.32668 0 0.16836)
(0.0183756 0 0.0394409)
(0.00299919 0 0.000273973)
(0.00422081 0 0.00117747)
(0.0057652 0 0.00280454)
(0.00761144 0 0.00545946)
(0.0097478 0 0.0106895)
(0.0109474 0 0.0153555)
(0.0148091 0 0.032224)
(0.00836222 0 0.0402175)
(0.0721383 0 0.0689348)
(0.11751 0 0.132146)
(0.0429256 0 0.157771)
(-0.0161438 0 0.138422)
(0.00207172 0 0.000189854)
(0.00290058 0 0.000811952)
(0.00393998 0 0.00192483)
(0.00516949 0 0.00373709)
(0.00654836 0 0.00725947)
(0.00748828 0 0.0104234)
(0.00901339 0 0.0221126)
(0.00571653 0 0.0248049)
(0.0504263 0 0.0530502)
(0.129824 0 0.0723708)
(0.0550674 0 0.159395)
(-0.0169869 0 0.156454)
(-0.00363195 0 0.0954575)
(0.00143815 0 0.000132357)
(0.00200314 0 0.000562349)
(0.00270574 0 0.00132639)
(0.00352806 0 0.00256663)
(0.00443336 0 0.0049468)
(0.00501226 0 0.00709929)
(0.00606168 0 0.0149155)
(0.00340187 0 0.0165906)
(0.0537223 0 0.0332922)
(0.0599349 0 0.0533641)
(0.0656439 0 0.0894049)
(0.0378861 0 0.146289)
(-0.00518373 0 0.141649)
(-0.000781854 0 0.111004)
(0.00100345 0 9.29705e-05)
(0.00139038 0 0.000391375)
(0.00186753 0 0.000918004)
(0.00242025 0 0.00176987)
(0.00301803 0 0.00338471)
(0.00338484 0 0.00485311)
(0.00402112 0 0.0101147)
(0.00216176 0 0.010998)
(0.0502059 0 0.022886)
(0.0480139 0 0.0329569)
(0.0416648 0 0.0680255)
(0.0463236 0 0.0896999)
(0.0261991 0 0.136241)
(-0.000257376 0 0.136162)
(0.000874005 0 0.110097)
(0.000703291 0 6.57657e-05)
(0.000970017 0 0.000273903)
(0.00129564 0 0.00063826)
(0.00166901 0 0.00122578)
(0.00206609 0 0.0023264)
(0.00229969 0 0.00333132)
(0.00269514 0 0.00688777)
(0.00138383 0 0.00736291)
(0.0487279 0 0.0154282)
(0.0305691 0 0.0222991)
(0.0369269 0 0.0431511)
(0.0317161 0 0.0697169)
(0.0322107 0 0.0908267)
(0.0168033 0 0.131219)
(0.00118732 0 0.132905)
(0.000496268 0 4.67248e-05)
(0.00067963 0 0.000192751)
(0.000903544 0 0.000445917)
(0.00115707 0 0.00085289)
(0.00142228 0 0.00160656)
(0.00157186 0 0.00229693)
(0.00181851 0 0.00471206)
(0.000898881 0 0.00496263)
(0.0469125 0 0.0104875)
(0.0212916 0 0.0154043)
(0.0246918 0 0.0296027)
(0.0285813 0 0.0460026)
(0.0227125 0 0.0718226)
(0.0199097 0 0.0914382)
(0.00617956 0 0.128682)
(0.000348584 0 3.2885e-05)
(0.000479126 0 0.000136438)
(0.000632866 0 0.000313099)
(0.000806388 0 0.000596354)
(0.00098453 0 0.00111493)
(0.0010807 0 0.00159099)
(0.00123515 0 0.00323906)
(0.000590521 0 0.00336665)
(0.04484 0 0.00717229)
(0.0146204 0 0.0110714)
(0.0174772 0 0.0203258)
(0.0195735 0 0.0319818)
(0.0205519 0 0.0489777)
(0.0140884 0 0.0731363)
(0.00699685 0 0.0919235)
(0.000245086 0 2.35715e-05)
(0.000336329 0 9.63815e-05)
(0.000446014 0 0.00022126)
(0.000564514 0 0.000419083)
(0.00068523 0 0.000777722)
(0.00074734 0 0.00110722)
(0.000844244 0 0.00223723)
(0.000391736 0 0.00229801)
(0.0423173 0 0.00495555)
(0.00999327 0 0.0084134)
(0.0120963 0 0.0141875)
(0.0139925 0 0.0222564)
(0.0142633 0 0.0345285)
(0.0126106 0 0.0508774)
(0.00491857 0 0.0739773)
(0.000173909 0 1.67013e-05)
(0.000236412 0 6.98924e-05)
(0.000313358 0 0.000156732)
(0.000397607 0 0.000296304)
(0.000479146 0 0.000545348)
(0.00051974 0 0.000774349)
(0.000580683 0 0.00155331)
(0.000262444 0 0.00157781)
(0.0392348 0 0.00349603)
(0.0067896 0 0.00677797)
(0.0083095 0 0.010136)
(0.00975406 0 0.0157333)
(0.0102388 0 0.0242509)
(0.0087818 0 0.0361524)
(0.00433064 0 0.0520514)
(0.000120521 0 1.2073e-05)
(0.000167652 0 5.05514e-05)
(0.000220471 0 0.000113594)
(0.000279311 0 0.000210148)
(0.00033711 0 0.000384763)
(0.000363222 0 0.000544244)
(0.000401845 0 0.00108412)
(0.000177564 0 0.00108918)
(0.0355252 0 0.00263913)
(0.00465077 0 0.00563446)
(0.00566712 0 0.00747758)
(0.00672922 0 0.0113621)
(0.00716367 0 0.0172026)
(0.00629595 0 0.0255323)
(0.00301552 0 0.0371506)
(8.10268e-05 0 8.96605e-06)
(0.000116198 0 3.75359e-05)
(0.000156215 0 8.25371e-05)
(0.00019646 0 0.000151727)
(0.000236743 0 0.000272752)
(0.000255525 0 0.000384804)
(0.000279587 0 0.000760648)
(0.00012104 0 0.000756064)
(0.0313349 0 0.0019554)
(0.00323806 0 0.00497046)
(0.00388087 0 0.00575998)
(0.00461084 0 0.00845128)
(0.00495568 0 0.0124205)
(0.0044044 0 0.0181592)
(0.00215526 0 0.0263172)
(5.16287e-05 0 7.06412e-06)
(7.81267e-05 0 2.87018e-05)
(0.000108259 0 6.15667e-05)
(0.000139085 0 0.000110028)
(0.000166469 0 0.000196209)
(0.000179335 0 0.000273186)
(0.000195813 0 0.000537015)
(8.31378e-05 0 0.00052774)
(0.0269219 0 0.00146079)
(0.0023403 0 0.00465098)
(0.00266403 0 0.00459208)
(0.00317662 0 0.0065372)
(0.00340581 0 0.00920346)
(0.00304724 0 0.0131162)
(0.00150565 0 0.0187438)
(2.93637e-05 0 6.06348e-06)
(4.99043e-05 0 2.31895e-05)
(7.27476e-05 0 4.73883e-05)
(9.64453e-05 0 8.17378e-05)
(0.000117731 0 0.000142443)
(0.000126113 0 0.000197124)
(0.000137195 0 0.000380935)
(5.76832e-05 0 0.000370769)
(0.0224896 0 0.00109799)
(0.00181616 0 0.00433336)
(0.00189768 0 0.0037758)
(0.00219986 0 0.00524909)
(0.00235336 0 0.00705345)
(0.00209607 0 0.00969995)
(0.00104101 0 0.0135402)
(1.01382e-05 0 5.7825e-06)
(2.8621e-05 0 1.98121e-05)
(4.64184e-05 0 3.85272e-05)
(6.49026e-05 0 6.2623e-05)
(8.16473e-05 0 0.000105908)
(8.94091e-05 0 0.000143347)
(9.63352e-05 0 0.000274323)
(4.00273e-05 0 0.000261992)
(0.0183424 0 0.000828358)
(0.0014535 0 0.00398306)
(0.00147402 0 0.00315388)
(0.00157281 0 0.00441454)
(0.00163388 0 0.00558379)
(0.00144996 0 0.00739786)
(0.000716256 0 0.0100017)
(-7.44318e-06 0 6.01352e-06)
(1.01661e-05 0 1.83587e-05)
(2.65777e-05 0 3.30273e-05)
(4.15694e-05 0 5.08202e-05)
(5.50733e-05 0 8.12591e-05)
(6.21353e-05 0 0.000106916)
(6.8095e-05 0 0.000199228)
(2.7981e-05 0 0.000187568)
(0.0145856 0 0.00062788)
(0.00123687 0 0.00354935)
(0.00118859 0 0.00266107)
(0.00121409 0 0.00377212)
(0.00116756 0 0.00459876)
(0.00100781 0 0.00581609)
(0.000495658 0 0.00760586)
(-2.5844e-05 0 6.93616e-06)
(-6.69326e-06 0 1.85426e-05)
(9.50005e-06 0 3.05872e-05)
(2.40392e-05 0 4.36945e-05)
(3.54667e-05 0 6.60055e-05)
(4.21435e-05 0 8.23004e-05)
(4.7434e-05 0 0.000148055)
(1.99768e-05 0 0.000135759)
(0.0113582 0 0.000472014)
(0.00111015 0 0.00313743)
(0.00103087 0 0.0022614)
(0.000967215 0 0.00326641)
(0.000896073 0 0.00385936)
(0.000719765 0 0.0047476)
(0.000344563 0 0.00595661)
(-4.73126e-05 0 8.41537e-06)
(-2.43746e-05 0 2.05099e-05)
(-6.0724e-06 0 3.06695e-05)
(8.86592e-06 0 4.07321e-05)
(2.07252e-05 0 5.64164e-05)
(2.72031e-05 0 6.70902e-05)
(3.23838e-05 0 0.000113534)
(1.41726e-05 0 0.000100381)
(0.00878378 0 0.000360566)
(0.000993425 0 0.00255417)
(0.000953176 0 0.00191075)
(0.000825728 0 0.00283239)
(0.000706871 0 0.00328074)
(0.000550274 0 0.00395386)
(0.000245454 0 0.00483767)
(-7.42666e-05 0 1.04551e-05)
(-4.51835e-05 0 2.4056e-05)
(-2.25151e-05 0 3.33672e-05)
(-4.98501e-06 0 4.10925e-05)
(8.0224e-06 0 5.20292e-05)
(1.58764e-05 0 5.79028e-05)
(2.13646e-05 0 9.15687e-05)
(9.99954e-06 0 7.66467e-05)
(0.00665754 0 0.000280811)
(0.000890279 0 0.00212436)
(0.000872384 0 0.00159949)
(0.000745799 0 0.00243692)
(0.000597912 0 0.00281424)
(0.00043136 0 0.00333945)
(0.00018644 0 0.00401362)
(-0.000108778 0 1.32033e-05)
(-7.13059e-05 0 2.94927e-05)
(-4.18547e-05 0 3.87339e-05)
(-1.95013e-05 0 4.47979e-05)
(-3.60064e-06 0 5.19366e-05)
(6.23004e-06 0 5.3823e-05)
(1.29577e-05 0 7.83722e-05)
(6.876e-06 0 6.13493e-05)
(0.00494633 0 0.000224224)
(0.000783032 0 0.00173648)
(0.000783798 0 0.00133262)
(0.000673195 0 0.00204911)
(0.000536827 0 0.00239366)
(0.000362556 0 0.00285979)
(0.000145787 0 0.00337957)
(-0.000153157 0 1.6724e-05)
(-0.00010475 0 3.71661e-05)
(-6.60569e-05 0 4.72752e-05)
(-3.66058e-05 0 5.21066e-05)
(-1.57881e-05 0 5.59509e-05)
(-2.61543e-06 0 5.41342e-05)
(5.7858e-06 0 7.21931e-05)
(4.50257e-06 0 5.18749e-05)
(0.00353952 0 0.00018349)
(0.000648417 0 0.00142107)
(0.000684129 0 0.00110249)
(0.000611951 0 0.00171683)
(0.000482983 0 0.002021)
(0.000324236 0 0.00242945)
(0.00012269 0 0.00289052)
(-0.00020978 0 2.14266e-05)
(-0.00014766 0 4.76853e-05)
(-9.69561e-05 0 5.9699e-05)
(-5.79757e-05 0 6.35777e-05)
(-3.01295e-05 0 6.45096e-05)
(-1.17783e-05 0 5.85856e-05)
(-7.2113e-07 0 7.22298e-05)
(2.57478e-06 0 4.71796e-05)
(0.00236617 0 0.00015408)
(0.000479404 0 0.00116028)
(0.000567831 0 0.000905893)
(0.000541045 0 0.00142213)
(0.000438622 0 0.00168812)
(0.000291526 0 0.00205609)
(0.000109738 0 0.00245187)
(-0.000281597 0 2.76845e-05)
(-0.000202229 0 6.20929e-05)
(-0.000136419 0 7.70165e-05)
(-8.52541e-05 0 8.04403e-05)
(-4.78907e-05 0 7.84356e-05)
(-2.24705e-05 0 6.78423e-05)
(-7.32354e-06 0 7.80147e-05)
(9.48728e-07 0 4.66677e-05)
(0.00136237 0 0.000134803)
(0.000289165 0 0.000967793)
(0.000428662 0 0.000750544)
(0.000445971 0 0.00118031)
(0.000383568 0 0.00138893)
(0.000263898 0 0.00171794)
(9.80959e-05 0 0.00207473)
(-0.000373027 0 3.61797e-05)
(-0.000271223 0 8.14945e-05)
(-0.000186513 0 0.000100783)
(-0.000120026 0 0.000103941)
(-7.0414e-05 0 9.91559e-05)
(-3.56626e-05 0 8.27368e-05)
(-1.4876e-05 0 9.03897e-05)
(-4.72267e-07 0 5.00293e-05)
(0.00049223 0 0.000128122)
(9.66144e-05 0 0.000836918)
(0.000262411 0 0.000641796)
(0.000325134 0 0.000980123)
(0.000315775 0 0.00113103)
(0.000228845 0 0.00142608)
(9.1807e-05 0 0.00173214)
(-0.00048981 0 4.75145e-05)
(-0.000358879 0 0.000107363)
(-0.00024987 0 0.000132666)
(-0.000164022 0 0.000136088)
(-9.90097e-05 0 0.000128417)
(-5.23351e-05 0 0.000104944)
(-2.39303e-05 0 0.000110523)
(-1.83838e-06 0 5.77595e-05)
(-0.000268935 0 0.000135778)
(-7.1033e-05 0 0.000758886)
(9.8653e-05 0 0.000581598)
(0.000188872 0 0.000839957)
(0.00023123 0 0.000931545)
(0.000185194 0 0.00118092)
(8.26692e-05 0 0.00142904)
(-0.000639496 0 6.21088e-05)
(-0.000471063 0 0.000141134)
(-0.000330595 0 0.000174777)
(-0.000219544 0 0.000178961)
(-0.000135117 0 0.000168567)
(-7.33853e-05 0 0.000136211)
(-3.51642e-05 0 0.000140489)
(-3.24574e-06 0 7.06285e-05)
(-0.000987109 0 0.00015895)
(-0.000219036 0 0.000739648)
(-4.10445e-05 0 0.000573474)
(5.54111e-05 0 0.000760547)
(0.000132865 0 0.000800818)
(0.00013364 0 0.000991122)
(6.77742e-05 0 0.0011765)
(-0.000832201 0 8.06249e-05)
(-0.000615215 0 0.000184592)
(-0.000434057 0 0.000229375)
(-0.000290259 0 0.000235302)
(-0.000180724 0 0.000222073)
(-9.99398e-05 0 0.000178939)
(-4.93044e-05 0 0.000182576)
(-4.84027e-06 0 8.97452e-05)
(-0.00170915 0 0.000194153)
(-0.000345091 0 0.000768812)
(-0.00015618 0 0.000603328)
(-5.76643e-05 0 0.00073736)
(3.71846e-05 0 0.000741331)
(7.67599e-05 0 0.000864712)
(4.78404e-05 0 0.000985558)
(-0.00107665 0 0.000103989)
(-0.000801003 0 0.000239739)
(-0.000567208 0 0.000299445)
(-0.000381191 0 0.00030829)
(-0.000238961 0 0.000292139)
(-0.000133527 0 0.000235633)
(-6.71396e-05 0 0.000239763)
(-6.76572e-06 0 0.000116637)
(-0.00247618 0 0.000247301)
(-0.000429186 0 0.000843463)
(-0.000259329 0 0.000669069)
(-0.000159212 0 0.000756045)
(-4.35754e-05 0 0.000743638)
(2.1324e-05 0 0.000808897)
(2.54658e-05 0 0.000863703)
(-0.00139022 0 0.000133486)
(-0.0010366 0 0.000309459)
(-0.000739131 0 0.00038869)
(-0.000498461 0 0.000401976)
(-0.000313982 0 0.000382661)
(-0.000176567 0 0.000309634)
(-8.98096e-05 0 0.000315419)
(-9.21676e-06 0 0.000153111)
(-0.00334619 0 0.00031875)
(-0.000496827 0 0.000976526)
(-0.000335368 0 0.000758852)
(-0.000246073 0 0.000809667)
(-0.000110876 0 0.000793807)
(-2.52431e-05 0 0.000810495)
(4.85451e-06 0 0.000812201)
(-0.00177324 0 0.000170954)
(-0.00133857 0 0.000397571)
(-0.000956942 0 0.000502229)
(-0.000649813 0 0.000521615)
(-0.000410888 0 0.000499006)
(-0.000232213 0 0.000405163)
(-0.000118984 0 0.000414011)
(-1.24324e-05 0 0.000201404)
(-0.00436412 0 0.00041342)
(-0.00053785 0 0.00115611)
(-0.000389133 0 0.000877625)
(-0.000293938 0 0.000904626)
(-0.00016475 0 0.000892305)
(-6.62016e-05 0 0.00085687)
(-1.39355e-05 0 0.000819754)
(-0.00170644 0 0.000509536)
(-0.00262532 0 0.000249646)
(-0.00123572 0 0.000646057)
(-0.000841295 0 0.000674432)
(-0.00053596 0 0.000647771)
(-0.000304203 0 0.000528016)
(-0.000156728 0 0.000541447)
(-1.67207e-05 0 0.000264415)
(-0.00559032 0 0.000530404)
(-0.000565472 0 0.00139537)
(-0.000429381 0 0.00102281)
(-0.000322516 0 0.00102615)
(-0.000195295 0 0.00101736)
(-0.000103969 0 0.000938898)
(-3.05894e-05 0 0.000875718)
(-0.00157522 0 0.000828992)
(-0.00252561 0 0.000740843)
(-0.00438395 0 0.000423037)
(-0.00108612 0 0.000868016)
(-0.000694014 0 0.000837938)
(-0.000397047 0 0.000685371)
(-0.000205548 0 0.000705573)
(-2.23665e-05 0 0.000346073)
(-0.00707337 0 0.000668015)
(-0.000629712 0 0.00167511)
(-0.000458213 0 0.00119275)
(-0.000325878 0 0.00117866)
(-0.000208653 0 0.00115274)
(-0.000125536 0 0.0010525)
(-4.03576e-05 0 0.000974519)
(-0.00138385 0 0.00111435)
(-0.00233072 0 0.00120472)
(-0.00421685 0 0.00125362)
(-0.00716972 0 0.000695118)
(-0.000895795 0 0.00107874)
(-0.000514137 0 0.000886851)
(-0.000268293 0 0.000916239)
(-2.96437e-05 0 0.000451379)
(-0.00882034 0 0.000827526)
(-0.000799203 0 0.00197622)
(-0.000529128 0 0.00138303)
(-0.000318553 0 0.00134871)
(-0.000213241 0 0.00130722)
(-0.000131685 0 0.00117719)
(-4.12068e-05 0 0.00110271)
(-0.00114114 0 0.00138475)
(-0.00204735 0 0.00161956)
(-0.00388957 0 0.0020367)
(-0.00689278 0 0.00205635)
(-0.0113266 0 0.0011076)
(-0.000663558 0 0.00114173)
(-0.00034749 0 0.00118579)
(-3.89442e-05 0 0.000586759)
(-0.0107851 0 0.00101656)
(-0.00112416 0 0.00225163)
(-0.000698728 0 0.00158128)
(-0.000358138 0 0.00152529)
(-0.000221855 0 0.00145506)
(-0.000123439 0 0.00131041)
(-3.8924e-05 0 0.00123249)
(-0.000844988 0 0.0014658)
(-0.00168828 0 0.0020115)
(-0.00341589 0 0.00273647)
(-0.00635195 0 0.00333608)
(-0.0108754 0 0.00326928)
(-0.0173785 0 0.00172925)
(-0.000448245 0 0.00152694)
(-5.05645e-05 0 0.000759932)
(-0.0128723 0 0.00125213)
(-0.00153917 0 0.00252935)
(-0.000985326 0 0.00179493)
(-0.000505231 0 0.00172033)
(-0.00027111 0 0.00160856)
(-0.000113068 0 0.00144001)
(-3.72812e-05 0 0.0013623)
(-0.000571039 0 0.00195968)
(-0.00125057 0 0.00212789)
(-0.00281625 0 0.00339653)
(-0.00557271 0 0.00447589)
(-0.0100008 0 0.00529112)
(-0.016643 0 0.00508196)
(-0.0261136 0 0.00267137)
(-6.55452e-05 0 0.000979428)
(-0.014979 0 0.00155614)
(-0.0019823 0 0.00281266)
(-0.00134711 0 0.00204922)
(-0.000783101 0 0.00194594)
(-0.00040139 0 0.00177065)
(-0.000139034 0 0.00157642)
(-4.04858e-05 0 0.00147311)
(-8.36663e-05 0 0.00125754)
(-0.000846766 0 0.00284467)
(-0.00208677 0 0.0035892)
(-0.0045909 0 0.00554872)
(-0.00875311 0 0.00707872)
(-0.0152406 0 0.00818171)
(-0.0248367 0 0.00778535)
(-0.0381036 0 0.00424534)
(-0.0170684 0 0.00194778)
(-0.00235 0 0.00314266)
(-0.00169899 0 0.00236474)
(-0.00111546 0 0.00224339)
(-0.000608763 0 0.0020005)
(-0.000227861 0 0.00175182)
(-5.44515e-05 0 0.00158779)
(-0.0189332 0 0.00241492)
(-0.000126287 0 0.00182798)
(-0.00141457 0 0.00479859)
(-0.00340083 0 0.00585507)
(-0.00719632 0 0.00875231)
(-0.0132768 0 0.0108811)
(-0.0225348 0 0.0124083)
(-0.0359378 0 0.0120698)
(-0.0578908 0 0.00665566)
(-0.00257791 0 0.00359068)
(-0.00197845 0 0.00277545)
(-0.00143177 0 0.00262955)
(-0.000846192 0 0.00233656)
(-0.000375413 0 0.00201693)
(-8.95394e-05 0 0.00175133)
(-0.00277508 0 0.00395737)
(-0.0226242 0 0.00332982)
(-0.000217089 0 0.00309019)
(-0.00230619 0 0.00782188)
(-0.00532497 0 0.0092155)
(-0.01087 0 0.0133799)
(-0.0194463 0 0.0163244)
(-0.0321914 0 0.0187281)
(-0.0523833 0 0.0184821)
(-0.0734486 0 0.0137336)
(-0.00213888 0 0.00327361)
(-0.00164805 0 0.00311451)
(-0.00104931 0 0.00279361)
(-0.000534064 0 0.00240523)
(-0.00013796 0 0.00203535)
(-0.0022971 0 0.00383775)
(-0.00366457 0 0.00490096)
(-0.0262569 0 0.00516103)
(-0.000366995 0 0.00505119)
(-0.00360808 0 0.0122832)
(-0.00802247 0 0.0140346)
(-0.0157925 0 0.0198713)
(-0.027385 0 0.024087)
(-0.0450514 0 0.0279082)
(-0.0670669 0 0.0333547)
(-0.151623 0 0.0236496)
(-0.00174093 0 0.00368678)
(-0.00117601 0 0.00335745)
(-0.000670327 0 0.00291384)
(-0.000188724 0 0.00246288)
(-0.00184264 0 0.00429902)
(-0.00308998 0 0.00482298)
(-0.00578078 0 0.00669488)
(-0.0290273 0 0.0081377)
(-0.000602149 0 0.0079585)
(-0.00542132 0 0.0186182)
(-0.0115954 0 0.0207095)
(-0.0219525 0 0.028768)
(-0.0370492 0 0.0349006)
(-0.0569194 0 0.0443465)
(-0.11077 0 0.0442777)
(-0.136425 0 0.192645)
(-0.00122412 0 0.00398448)
(-0.000744317 0 0.00351499)
(-0.000221602 0 0.00302027)
(-0.00129327 0 0.0046243)
(-0.00244586 0 0.00539793)
(-0.0049043 0 0.00681973)
(-0.00905986 0 0.00915843)
(-0.0308127 0 0.0126551)
(-0.000959398 0 0.0121088)
(-0.00779384 0 0.0272459)
(-0.0159753 0 0.0296444)
(-0.0289545 0 0.0405883)
(-0.0460289 0 0.0510958)
(-0.0790812 0 0.0610302)
(-0.108449 0 0.135379)
(-0.063983 -1.27745e-27 0.173551)
(-0.014909 0 0.211447)
(-0.000762671 0 0.00415651)
(-0.000232915 0 0.00365764)
(-0.00081138 0 0.0048091)
(-0.00175974 0 0.00573553)
(-0.00385375 0 0.00763983)
(-0.00758741 0 0.00982322)
(-0.0134524 0 0.0128361)
(-0.0318032 0 0.0190945)
(-0.00147943 0 0.0177931)
(-0.0106406 0 0.0384784)
(-0.0207525 0 0.0411315)
(-0.0352923 0 0.0561712)
(-0.057306 0 0.0686903)
(-0.0774356 0 0.115623)
(-0.0604555 -9.84474e-28 0.140648)
(-0.051594 2.3131e-30 0.162106)
(-0.0338965 -1.39884e-27 0.18514)
(-0.0112925 0 0.175691)
(-0.000224508 0 0.00430679)
(-0.000230743 0 0.00493418)
(-0.00109728 0 0.0059637)
(-0.00282736 0 0.00801216)
(-0.00600604 0 0.010931)
(-0.0109949 0 0.014173)
(-0.0186132 0 0.0183356)
(-0.0320956 0 0.0278395)
(-0.00218761 0 0.0252342)
(-0.0136368 0 0.0523336)
(-0.0249146 0 0.0552452)
(-0.0410214 0 0.0735284)
(-0.0559664 0 0.102924)
(-0.0527814 0 0.12513)
(-0.0488123 0 0.147703)
(-0.0382735 -9.45696e-27 0.161266)
(-0.0381136 2.43768e-30 0.168372)
(-0.0269224 -1.26607e-27 0.169031)
(-0.00841813 0 0.164125)
(-0.000333256 0 0.00608323)
(-0.001735 0 0.00839674)
(-0.00438257 0 0.0113795)
(-0.00881517 0 0.0155517)
(-0.0149464 0 0.0201917)
(-0.0237611 0 0.026032)
(-0.0316879 0 0.039141)
(-0.00304991 0 0.0344488)
(-0.0161719 0 0.0683243)
(-0.0279509 0 0.0707576)
(-0.039881 0 0.0965272)
(-0.0428325 0 0.114912)
(-0.0420507 0 0.13545)
(-0.0365789 -2.62678e-26 0.151498)
(-0.0299303 2.28648e-30 0.163594)
(-0.0377435 -9.79981e-27 0.165363)
(-0.0342438 0 0.16388)
(-0.0223852 0 0.159717)
(-0.00733933 0 0.150472)
(-0.000560378 0 0.00852642)
(-0.00268572 0 0.0119954)
(-0.00630963 0 0.016206)
(-0.0119515 0 0.021653)
(-0.0189393 0 0.0280088)
(-0.0282737 0 0.0357959)
(-0.0304533 0 0.0529011)
(-0.00392301 0 0.0450996)
(-0.0177137 0 0.0851474)
(-0.0269452 0 0.0874264)
(-0.0325338 0 0.108794)
(-0.0340235 3.55279e-27 0.125767)
(-0.032086 -1.61477e-26 0.141741)
(-0.0201966 0 0.154361)
(-0.0155818 -5.69474e-27 0.18289)
(-0.0397298 2.43484e-30 0.169644)
(-0.0393231 -2.90982e-26 0.163029)
(-0.0323627 0 0.157165)
(-0.0207501 0 0.148857)
(-0.00698269 0 0.137988)
(-0.000883856 0 0.012173)
(-0.00387659 0 0.0170208)
(-0.00846085 0 0.022677)
(-0.0148748 0 0.0293063)
(-0.022452 0 0.0373179)
(-0.0314497 0 0.0476241)
(-0.0282534 0 0.0684249)
(-0.0045874 0 0.0563818)
(-0.0171396 0 0.100707)
(-0.022547 0 0.0984894)
(-0.0258033 6.7189e-27 0.119146)
(-0.0259111 0 0.133219)
(-0.0161205 3.936e-27 0.147479)
(-0.0295926 3.51333e-26 0.167748)
(-0.0110693 -9.74682e-11 0.16322)
(-0.0303399 0 0.182792)
(-0.0450605 0 0.167072)
(-0.0405616 -3.75761e-26 0.157438)
(-0.0322262 4.43054e-27 0.148269)
(-0.0204227 0 0.137581)
(-0.00697481 0 0.125626)
(-0.00127431 0 0.017293)
(-0.00515465 0 0.0234971)
(-0.0105099 0 0.0306255)
(-0.0172469 0 0.0382264)
(-0.0249232 0 0.0477091)
(-0.0325182 0 0.0609717)
(-0.0251066 0 0.0843392)
(-0.00466317 0 0.0666385)
(-0.014551 0 0.112108)
(-0.0176895 4.0207e-43 0.107668)
(-0.0189891 0 0.126982)
(-0.0128689 -5.13117e-27 0.140583)
(-0.0243561 3.36875e-25 0.149858)
(0.0329459 -1.81208e-10 0.143737)
(-0.0067565 2.46936e-09 0.00343366)
(-0.0680968 1.37034e-10 0.205653)
(-0.0311867 2.46827e-09 0.00738082)
(0.138634 2.92194e-09 -0.0643563)
(0.122989 2.26967e-09 -0.0533451)
(-0.0503361 -4.54371e-26 0.172306)
(-0.0478787 -2.03998e-26 0.160887)
(-0.0426018 -1.78854e-26 0.14958)
(-0.0330019 8.2166e-27 0.137967)
(-0.0207268 0 0.125769)
(-0.00710712 0 0.113117)
(-0.00171163 0 0.0238826)
(-0.00629348 0 0.0313008)
(-0.012171 0 0.0395611)
(-0.0186959 0 0.0480168)
(-0.0256227 0 0.0584779)
(-0.0307086 0 0.074585)
(-0.0209267 0 0.0983291)
(-0.00415875 0 0.0744418)
(-0.0112558 2.7743e-43 0.121465)
(-0.012054 0 0.114825)
(-0.00901022 0 0.134639)
(-0.0166671 1.76098e-25 0.141071)
(0.0196418 -5.82751e-26 0.162069)
(-0.0675594 6.40718e-11 0.0937539)
(-0.0127034 2.37333e-09 0.0372799)
(0.0949163 -5.78906e-10 -0.00614437)
(-0.0700304 2.723e-10 0.19602)
(-0.0364285 2.44071e-09 0.0325293)
(0.034587 3.24059e-09 0.197954)
(0.0162133 2.80521e-09 0.184524)
(0.0471411 -1.41065e-09 -0.00981227)
(0.0361679 -1.53774e-09 0.113911)
(-0.00119148 -1.19876e-09 0.12042)
(-0.0573516 1.75592e-25 0.165357)
(-0.0520588 4.47527e-26 0.153442)
(-0.0450907 0 0.139763)
(-0.0341624 3.76385e-27 0.126586)
(-0.0212727 0 0.113451)
(-0.00727009 0 0.10034)
(-0.00214506 0 0.0317309)
(-0.00718949 0 0.0398936)
(-0.0131076 0 0.0489693)
(-0.0187939 0 0.0580576)
(-0.0241101 0 0.068649)
(-0.0262735 0 0.0855991)
(-0.0164377 0 0.108733)
(-0.00334795 2.41231e-27 0.0808429)
(-0.00689251 -3.43085e-27 0.128344)
(-0.00449457 -4.43323e-29 0.121254)
(-0.00644382 0 0.136222)
(0.00854595 1.31079e-24 0.160991)
(-0.0414144 5.27551e-10 0.121506)
(-0.1413 -7.27972e-10 -0.084904)
(-0.158732 -4.46001e-09 -0.0962521)
(0.0373515 -1.04136e-09 -0.0657831)
(0.0287798 -1.06385e-09 -0.0703362)
(0.128107 -3.82445e-10 0.017933)
(-0.0943418 -1.2111e-09 -0.0975227)
(-0.0497052 -7.05706e-26 0.179521)
(-0.0961439 -6.59038e-11 0.0873245)
(0.0797794 -1.44205e-09 0.0130541)
(0.142846 -3.81322e-10 -0.0765514)
(0.0995106 -1.33557e-09 -0.088839)
(-0.114642 -3.5358e-09 -0.0968432)
(-0.0333076 -1.08597e-09 -0.0581161)
(-0.0332349 -3.66441e-09 -0.0740995)
(-0.0661847 3.71762e-25 0.159654)
(-0.0567089 0 0.143433)
(-0.0474319 0 0.128498)
(-0.0354243 3.40325e-27 0.114357)
(-0.021827 0 0.100683)
(-0.00741049 0 0.0872974)
(-0.00249066 0 0.0402888)
(-0.00769512 0 0.0488647)
(-0.0130413 0 0.0581649)
(-0.0172672 0 0.0675653)
(-0.0210208 0 0.0765058)
(-0.0198299 0 0.0959406)
(-0.0120998 0 0.117142)
(-0.0021661 -2.51194e-27 0.0854128)
(-0.00170608 0 0.132698)
(0.00347532 -4.74836e-26 0.122975)
(0.00687847 7.25546e-25 0.15701)
(-0.0209682 3.08209e-10 0.133435)
(-0.0226857 -1.84383e-09 -0.100292)
(-0.0229612 -1.83657e-09 -0.0964015)
(0.00823321 -1.67664e-09 -0.0960083)
(0.00777971 -1.69023e-09 -0.0943475)
(-0.186636 -1.93278e-09 -0.157793)
(-0.191069 1.51419e-10 -0.145239)
(-0.00410728 -2.55588e-10 -0.198527)
(-0.0157956 1.56962e-10 -0.196616)
(-0.0859395 -7.1187e-10 -0.101359)
(0.55133 2.58393e-08 -0.246609)
(-0.653615 3.55096e-08 -0.203713)
(0.531075 1.96816e-08 -0.189054)
(-0.396221 6.19798e-09 -0.135927)
(-0.0576324 1.34769e-24 0.171232)
(-0.0945657 9.73822e-11 0.128236)
(0.0461171 -1.55235e-09 -0.163478)
(0.0316648 -1.63439e-09 -0.16331)
(-0.0515027 -2.52892e-09 -0.128909)
(-0.073657 -2.94515e-09 -0.123415)
(-0.107812 -3.74998e-09 -0.105113)
(0.0493706 6.02294e-10 -0.142569)
(0.0435355 -3.12804e-09 -0.133832)
(0.529503 -1.42801e-08 -0.254781)
(-0.619461 -1.9901e-08 -0.198785)
(0.505029 -7.17537e-09 -0.192786)
(-0.436296 -6.11746e-09 -0.121274)
(0.51441 3.33021e-08 -0.382637)
(-0.555086 3.42597e-08 0.267897)
(0.309088 2.88475e-08 -0.562789)
(-0.291323 8.19581e-09 -0.17002)
(0.492368 -2.13146e-08 -0.396967)
(-0.480673 -1.83285e-08 0.279698)
(0.287704 -1.14786e-08 -0.565777)
(-0.320303 -8.08852e-09 -0.170313)
(-0.0743477 0 0.148818)
(-0.0600852 2.65832e-26 0.131931)
(-0.0497642 0 0.116106)
(-0.0365199 3.01804e-27 0.101461)
(-0.0222667 0 0.0875654)
(-0.00750715 0 0.0740433)
(-0.00261045 0 0.0491111)
(-0.0075879 0 0.0575341)
(-0.0118107 0 0.0665383)
(-0.0144561 0 0.0751505)
(-0.0177445 0 0.0820502)
(-0.00751675 0 0.103955)
(-0.00774407 0 0.123043)
(-0.000564593 0 0.0875066)
(0.00790396 -4.14377e-26 0.13283)
(0.0160604 1.00408e-25 0.137873)
(0.0117083 2.13932e-10 0.149844)
(-0.0206931 -1.57365e-09 -0.0794092)
(-0.0233037 -1.59235e-09 -0.0786294)
(0.00513732 -1.25793e-09 -0.0712178)
(0.000990783 -1.30919e-09 -0.0752074)
(-0.047216 -1.89001e-09 -0.14474)
(-0.0308349 -3.26829e-10 -0.144514)
(-0.0824389 -2.54532e-09 -0.13733)
(-0.0580127 -6.3594e-10 -0.139891)
(-0.533747 7.80402e-09 -0.0873646)
(-0.31928 8.43753e-09 0.31408)
(0.345076 1.11663e-08 -0.184747)
(-0.463324 6.42887e-09 -0.241359)
(0.388946 9.17672e-09 -0.145709)
(-0.0265326 1.25782e-08 -0.53085)
(-0.297133 -6.95668e-09 0.329782)
(-0.533743 -5.38026e-09 -0.0800385)
(0.343446 -1.13886e-08 -0.183073)
(-0.464469 -4.84485e-09 -0.245984)
(0.385854 -9.26242e-09 -0.142621)
(-0.038421 -1.27274e-08 -0.525826)
(-0.465228 7.88158e-09 -0.274951)
(0.406203 1.1108e-08 -0.187317)
(-0.448678 6.36467e-09 -0.285788)
(0.421337 1.0381e-08 -0.202542)
(-0.458546 -6.05823e-09 -0.291689)
(0.401686 -9.59968e-09 -0.189191)
(-0.450596 -5.4621e-09 -0.291806)
(0.416568 -9.50286e-09 -0.201785)
(0.581299 2.70196e-08 -0.0314341)
(-0.695777 3.5672e-08 -0.189429)
(0.550862 1.99307e-08 -0.124977)
(-0.540549 6.3061e-09 -0.193319)
(0.243067 1.58158e-08 -0.252583)
(-0.134076 9.23972e-09 -0.200714)
(0.195401 1.51149e-08 -0.21848)
(-0.0628713 7.72538e-09 -0.126411)
(-0.0760437 1.1849e-24 0.15809)
(-0.113932 -1.92271e-10 0.154986)
(-0.0098345 -3.05696e-09 -0.116794)
(-0.00829035 -3.04689e-09 -0.120571)
(0.0530303 -2.49663e-09 -0.124894)
(0.0521192 -2.50937e-09 -0.132027)
(-0.00632821 -6.10767e-10 -0.086497)
(-0.0102995 2.87668e-10 -0.0857181)
(-0.221827 -3.73807e-09 -0.216671)
(-0.21675 7.86551e-10 -0.233028)
(0.558087 -1.46348e-08 -0.0284932)
(-0.643841 -1.9909e-08 -0.193633)
(0.522177 -6.82298e-09 -0.126935)
(-0.554519 -6.23285e-09 -0.205799)
(0.624501 3.59965e-08 0.0257901)
(-0.483118 4.10526e-08 -0.537393)
(0.510286 3.42634e-08 0.38226)
(-0.317203 8.94624e-09 -0.264139)
(0.603324 -2.30658e-08 0.036183)
(-0.430005 -2.16215e-08 -0.548561)
(0.485253 -1.36173e-08 0.389807)
(-0.350252 -8.83667e-09 -0.262388)
(0.224216 -1.69647e-08 -0.254805)
(-0.14656 -8.97996e-09 -0.194047)
(0.174425 -1.66505e-08 -0.220834)
(-0.098715 -8.13714e-09 -0.107849)
(0.131662 1.65306e-08 -0.38228)
(-0.131513 8.48845e-09 -0.0935037)
(0.114321 -1.72916e-08 -0.382148)
(-0.151835 -8.56163e-09 -0.0911388)
(-0.0796531 -2.63743e-26 0.137517)
(-0.064644 0 0.119044)
(-0.0515902 0 0.102801)
(-0.0373059 0 0.0881211)
(-0.0225577 0 0.0742161)
(-0.00756311 0 0.0606533)
(-0.00249749 0 0.0573761)
(-0.00678047 0 0.0652752)
(-0.00978271 0 0.072882)
(-0.0114947 0 0.0811281)
(-0.00986012 0 0.084831)
(0.00255215 0 0.109359)
(-0.0030791 0 0.12575)
(0.00226994 0 0.0869916)
(0.0138393 1.97748e-26 0.131637)
(0.0479603 1.06672e-10 0.134074)
(-0.0275036 -4.03375e-10 -0.0815639)
(-0.0314542 -3.66828e-10 -0.086956)
(0.0315491 3.28664e-10 -0.0886595)
(0.0262352 1.1738e-10 -0.0896883)
(-0.0840109 -2.29112e-09 -0.123315)
(-0.0637517 -4.77036e-10 -0.127144)
(-0.0175516 -3.09018e-09 -0.101099)
(0.00674631 -6.53685e-10 -0.108467)
(-0.483499 8.67394e-09 -0.256734)
(0.363511 1.10238e-08 -0.170818)
(-0.488449 1.20769e-08 -0.241856)
(0.383405 1.19381e-08 -0.170295)
(-0.468254 -6.16039e-09 -0.277245)
(0.362169 -1.00198e-08 -0.173936)
(-0.455566 -6.92053e-09 -0.262976)
(0.380503 -1.0309e-08 -0.171922)
(-0.469405 1.3084e-08 -0.223017)
(0.394829 1.10234e-08 -0.202443)
(-0.500468 1.21638e-08 -0.233164)
(0.401838 1.16599e-08 -0.188895)
(-0.434709 -6.94247e-09 -0.235135)
(0.389327 -8.4147e-09 -0.201954)
(-0.466861 -6.9484e-09 -0.246852)
(0.397505 -9.68707e-09 -0.189964)
(-0.248671 3.59983e-09 -0.0230911)
(-0.0739275 4.03518e-10 -0.262824)
(-0.0200157 6.87462e-10 -0.384278)
(-0.028468 6.22588e-09 -0.135419)
(-0.0633222 1.06985e-09 -0.27476)
(0.0641747 2.15354e-09 -0.218469)
(-0.224087 -3.23657e-09 -0.0250243)
(-0.0728989 -2.60301e-10 -0.266853)
(-0.0321177 -6.26467e-09 -0.141173)
(-0.017766 -4.88414e-10 -0.383449)
(-0.0658392 -1.05701e-09 -0.276453)
(0.0637953 -1.58202e-09 -0.216248)