/*--------------------------------*- C++ -*----------------------------------*\
| =========                 |                                                 |
| \\      /  F ield         | OpenFOAM: The Open Source CFD Toolbox           |
|  \\    /   O peration     | Version:  5.x                                   |
|   \\  /    A nd           | Web:      www.OpenFOAM.org                      |
|    \\/     M anipulation  |                                                 |
\*---------------------------------------------------------------------------*/
FoamFile
{
    version     2.0;
    format      ascii;
    class       surfaceVectorField;
    location    "0.1";
    object      Uf;
}
// * * * * * * * * * * * * * * * * * * * * * * * * * * * * * * * * * * * * * //

dimensions      [0 1 -1 0 0 0 0];

internalField   nonuniform List<vector> 
30582
(
(0.165745 0 0.0102917)
(0.178657 0 0.0218609)
(0.122106 0 0.00898132)
(0.166717 0 0.0174566)
(0.164093 0 0.0289741)
(0.175963 0 0.0443815)
(0.0803829 0 0.00697361)
(0.0767298 0 0.0169896)
(0.120411 0 0.0255012)
(0.16361 0 0.0349301)
(0.160463 0 0.0514768)
(0.17093 0 0.0683496)
(0.056085 0 0.00459562)
(0.0764335 0 0.0100714)
(0.0786909 0 0.0200846)
(0.0742992 0 0.0339783)
(0.116668 0 0.0439115)
(0.157482 0 0.0524488)
(0.1538 0 0.0653157)
(0.164584 0 0.094967)
(0.0373736 0 0.00332633)
(0.0389483 0 0.00789478)
(0.0547351 0 0.0133694)
(0.0737556 0 0.020001)
(0.0750834 0 0.0339512)
(0.0699446 0 0.0509119)
(0.110048 0 0.0569618)
(0.149563 0 0.0699507)
(0.147578 0 0.105186)
(0.152631 0 0.124071)
(0.0252575 0 0.00222325)
(0.031765 0 0.005204)
(0.0363289 0 0.00975141)
(0.0372849 0 0.0156608)
(0.0519159 0 0.0223106)
(0.0691181 0 0.029604)
(0.0693833 0 0.0448639)
(0.0643699 0 0.0674707)
(0.103199 0 0.085039)
(0.134831 0 0.0877029)
(0.129549 0 0.0999504)
(0.142318 0 0.160312)
(0.0170502 0 0.00152337)
(0.0195945 0 0.00358829)
(0.024527 0 0.00654453)
(0.0303929 0 0.0102732)
(0.0341994 0 0.0161474)
(0.034521 0 0.0231359)
(0.047625 0 0.0295234)
(0.0629045 0 0.0386228)
(0.0628681 0 0.0642617)
(0.0549883 0 0.0838936)
(0.0854737 0 0.0811547)
(0.119677 0 0.105334)
(0.125929 0 0.165882)
(0.122599 0 0.198037)
(0.0115364 0 0.00103997)
(0.0135856 0 0.00245402)
(0.0165317 0 0.00449975)
(0.0186975 0 0.00708399)
(0.0230513 0 0.0107769)
(0.0280987 0 0.0150615)
(0.0310418 0 0.0214651)
(0.030973 0 0.0301328)
(0.0425487 0 0.0412414)
(0.0534401 0 0.0470451)
(0.0499316 0 0.0622352)
(0.0459784 0 0.0983664)
(0.0777037 0 0.127048)
(0.0886755 0 0.124625)
(0.0868923 0 0.168227)
(0.0978083 0 0.251175)
(0.00783199 0 0.000710863)
(0.00920724 0 0.00167831)
(0.0111744 0 0.00307674)
(0.0129511 0 0.0048384)
(0.0154944 0 0.00739421)
(0.0172175 0 0.010388)
(0.0208607 0 0.0143032)
(0.025029 0 0.0194345)
(0.0272563 0 0.0293753)
(0.025876 0 0.036585)
(0.0335868 0 0.0396134)
(0.0438179 0 0.05382)
(0.0437557 0 0.0935836)
(0.0331798 0 0.11219)
(0.0403041 0 0.115794)
(0.0897255 0 0.143261)
(0.112303 0 0.229611)
(0.0937375 0 0.203252)
(0.00533905 0 0.000487143)
(0.0062733 0 0.0011496)
(0.00758106 0 0.00210514)
(0.00876662 0 0.0033063)
(0.0104543 0 0.00504448)
(0.0119051 0 0.0070816)
(0.0139632 0 0.00983842)
(0.0152643 0 0.0134037)
(0.0181799 0 0.0193644)
(0.0207176 0 0.0233329)
(0.0212 0 0.0285623)
(0.0211232 0 0.0418113)
(0.0286659 0 0.058695)
(0.0291147 0 0.0600747)
(0.0216877 0 0.0807678)
(0.0370181 0 0.119771)
(0.0782958 0 0.141944)
(0.222051 0 0.156865)
(0.236736 0 0.158158)
(0.0573179 0 0.109848)
(0.00365663 0 0.00033509)
(0.00429184 0 0.000789797)
(0.00516546 0 0.00144344)
(0.00596803 0 0.00226349)
(0.00708364 0 0.00344646)
(0.00804251 0 0.0048334)
(0.00939461 0 0.00671515)
(0.0105147 0 0.00911492)
(0.0120816 0 0.0132155)
(0.0125701 0 0.0160699)
(0.0140644 0 0.0187408)
(0.0164552 0 0.0263977)
(0.0177828 0 0.0415392)
(0.0139642 0 0.0464031)
(0.0124135 0 0.0476534)
(0.0450501 0 0.0639187)
(0.0663146 0 0.0981387)
(0.0843275 0 0.12465)
(0.201849 0 0.150092)
(0.184802 0 0.17082)
(0.0261314 0 0.0991318)
(0.00111602 0 0.099575)
(0.00251665 0 0.000231541)
(0.00294988 0 0.000544698)
(0.00353646 0 0.00099309)
(0.00408039 0 0.00155444)
(0.0048221 0 0.00236076)
(0.00546734 0 0.00330635)
(0.00635304 0 0.00459066)
(0.0070799 0 0.00621138)
(0.00808832 0 0.00895922)
(0.00861805 0 0.0108922)
(0.00928768 0 0.0128675)
(0.00998041 0 0.0181583)
(0.0115539 0 0.0271234)
(0.0102628 0 0.0290731)
(0.00722626 0 0.0324426)
(0.0293941 0 0.0485916)
(0.0577992 0 0.060922)
(0.100981 0 0.0674493)
(0.129915 0 0.101993)
(0.0862883 0 0.15394)
(0.0539992 0 0.15859)
(0.0129696 0 0.159667)
(-0.0207481 0 0.147518)
(-0.0098879 0 0.107725)
(0.00174082 0 0.000160849)
(0.00203743 0 0.000377276)
(0.00243332 0 0.000686045)
(0.00280316 0 0.0010717)
(0.00329903 0 0.00162296)
(0.00373402 0 0.00226937)
(0.00431846 0 0.00314663)
(0.00480142 0 0.00424453)
(0.0054505 0 0.00609291)
(0.00578032 0 0.00740641)
(0.0061936 0 0.00874658)
(0.00677498 0 0.0122692)
(0.00752337 0 0.018482)
(0.00620761 0 0.0199205)
(0.00441158 0 0.0206613)
(0.0297192 0 0.0302819)
(0.0538997 0 0.0430832)
(0.0551806 0 0.0502378)
(0.0875382 0 0.0627831)
(0.0977336 0 0.0850101)
(0.0608447 0 0.124089)
(0.0464768 0 0.151145)
(0.0134013 0 0.151326)
(-0.0110853 0 0.145999)
(-0.00593973 0 0.118759)
(-0.00220689 0 0.110055)
(0.0012104 0 0.000112488)
(0.00141427 0 0.000262519)
(0.0016829 0 0.000476101)
(0.00193534 0 0.000742072)
(0.00226864 0 0.00112039)
(0.002563 0 0.00156397)
(0.00295111 0 0.00216471)
(0.00327305 0 0.0029112)
(0.00369509 0 0.00415878)
(0.0039091 0 0.00505396)
(0.00416185 0 0.00596627)
(0.00451669 0 0.00832688)
(0.00497626 0 0.0124938)
(0.0041117 0 0.0134028)
(0.00272413 0 0.0137694)
(0.0268037 0 0.0206582)
(0.0510396 0 0.0280429)
(0.0508681 0 0.0315109)
(0.0559816 0 0.0430696)
(0.0507998 0 0.0635459)
(0.0521712 0 0.0786203)
(0.0559838 0 0.0885954)
(0.041883 0 0.117743)
(0.0320426 0 0.139539)
(0.0125859 0 0.138921)
(-0.00272053 0 0.138583)
(-0.000921948 0 0.123695)
(4.6069e-05 0 0.110414)
(0.000845958 0 7.92477e-05)
(0.000986732 0 0.000183552)
(0.00117002 0 0.000332116)
(0.00134301 0 0.000516189)
(0.00156825 0 0.000776886)
(0.00176827 0 0.00108258)
(0.00202752 0 0.00149542)
(0.00224317 0 0.00200522)
(0.00251969 0 0.00285086)
(0.00265887 0 0.00346293)
(0.00281554 0 0.00408542)
(0.00303999 0 0.00567477)
(0.00331764 0 0.00848696)
(0.00270246 0 0.00907828)
(0.00173152 0 0.00916432)
(0.0254447 0 0.0138445)
(0.0492594 0 0.0191239)
(0.0403875 0 0.0214368)
(0.0378128 0 0.0275807)
(0.0424703 0 0.0393076)
(0.0412846 0 0.0554776)
(0.0366905 0 0.0681288)
(0.0380086 0 0.0796197)
(0.0392671 0 0.090193)
(0.0287525 0 0.113332)
(0.0215011 0 0.13295)
(0.00974455 0 0.133668)
(0.000464966 0 0.134313)
(0.000729007 0 0.121602)
(0.000594157 0 5.61606e-05)
(0.000691461 0 0.000128991)
(0.000817588 0 0.000232968)
(0.000936781 0 0.000360826)
(0.00108986 0 0.000541231)
(0.00122636 0 0.000752854)
(0.00140052 0 0.00103768)
(0.00154565 0 0.00138743)
(0.00172801 0 0.00196329)
(0.00181897 0 0.00238346)
(0.00191677 0 0.00280953)
(0.0020591 0 0.00388482)
(0.00222893 0 0.0057902)
(0.001797 0 0.00617679)
(0.00111555 0 0.00615216)
(0.024148 0 0.00935731)
(0.047479 0 0.0129359)
(0.0350098 0 0.014637)
(0.0259068 0 0.018821)
(0.0276304 0 0.0266357)
(0.0300301 0 0.0363168)
(0.0327541 0 0.0441325)
(0.0316636 0 0.0577541)
(0.0272143 0 0.0707979)
(0.0267297 0 0.0812403)
(0.0260602 0 0.0910253)
(0.0180166 0 0.111152)
(0.0114914 0 0.129578)
(0.00423383 0 0.130775)
(0.000418764 0 3.97434e-05)
(0.000487697 0 9.13207e-05)
(0.000573893 0 0.000164344)
(0.000656248 0 0.000253502)
(0.000761298 0 0.00037892)
(0.000854966 0 0.000526144)
(0.000972666 0 0.000723479)
(0.0010708 0 0.000964541)
(0.0011918 0 0.00135856)
(0.00125149 0 0.00164816)
(0.00131277 0 0.00194083)
(0.0014035 0 0.00267205)
(0.00150786 0 0.00396902)
(0.00120451 0 0.00422331)
(0.000728133 0 0.00415751)
(0.0228693 0 0.00635542)
(0.045527 0 0.00881525)
(0.0307664 0 0.0102418)
(0.0178527 0 0.0132186)
(0.0193844 0 0.0182173)
(0.0212268 0 0.024923)
(0.0221327 0 0.0304791)
(0.0235411 0 0.03893)
(0.0245666 0 0.0476145)
(0.0227015 0 0.0602984)
(0.0184004 0 0.0724916)
(0.0165431 0 0.082206)
(0.0134533 0 0.0916323)
(0.00647123 0 0.11014)
(0.000296579 0 2.81869e-05)
(0.000342456 0 6.45647e-05)
(0.000404149 0 0.000116232)
(0.00046257 0 0.000179282)
(0.000534246 0 0.000266771)
(0.00059869 0 0.000369572)
(0.000679051 0 0.000506935)
(0.000745809 0 0.000673897)
(0.000826592 0 0.000944823)
(0.000865936 0 0.00114524)
(0.000904492 0 0.00134695)
(0.00096247 0 0.00184669)
(0.00102667 0 0.00273371)
(0.000813442 0 0.00290197)
(0.000480443 0 0.00282759)
(0.0214537 0 0.00433958)
(0.0431965 0 0.00605402)
(0.0274166 0 0.00743069)
(0.0122412 0 0.00973065)
(0.0133583 0 0.0127839)
(0.0147537 0 0.0172294)
(0.0157348 0 0.0210988)
(0.0169093 0 0.0270758)
(0.0169184 0 0.0333748)
(0.0170659 0 0.041689)
(0.0165812 0 0.0500303)
(0.0139916 0 0.0619077)
(0.00950353 0 0.0735646)
(0.0057988 0 0.0828708)
(0.000208425 0 2.01059e-05)
(0.000240749 0 4.72028e-05)
(0.000285244 0 8.30192e-05)
(0.000324844 0 0.000126943)
(0.000376278 0 0.000188709)
(0.000421811 0 0.000261214)
(0.000476294 0 0.000357148)
(0.000521829 0 0.000473238)
(0.000576379 0 0.000660507)
(0.000602486 0 0.000799817)
(0.0006268 0 0.000939301)
(0.000664012 0 0.00128265)
(0.000703522 0 0.00189223)
(0.000553342 0 0.00200385)
(0.000320026 0 0.00193472)
(0.0198131 0 0.00297863)
(0.0403762 0 0.00421931)
(0.0245534 0 0.00566529)
(0.00834723 0 0.00758838)
(0.00915138 0 0.00923268)
(0.0101689 0 0.0121438)
(0.0109252 0 0.0148701)
(0.0118636 0 0.0189658)
(0.0121157 0 0.0233457)
(0.0123471 0 0.029344)
(0.0115225 0 0.0354355)
(0.0105087 0 0.0434496)
(0.00847063 0 0.0515234)
(0.0048387 0 0.0629167)
(0.000145612 0 1.43666e-05)
(0.00017078 0 3.40406e-05)
(0.000200783 0 6.0136e-05)
(0.000228442 0 9.20376e-05)
(0.000265512 0 0.000134971)
(0.000296335 0 0.000185142)
(0.000335318 0 0.000252843)
(0.000367358 0 0.000334354)
(0.000403866 0 0.000464342)
(0.000421184 0 0.000561448)
(0.00043679 0 0.000658278)
(0.000460793 0 0.000895445)
(0.000485094 0 0.00131662)
(0.000379122 0 0.00139076)
(0.000215433 0 0.00133132)
(0.0178937 0 0.00205472)
(0.0369554 0 0.00306378)
(0.0219428 0 0.00461686)
(0.00566979 0 0.00620114)
(0.00622835 0 0.00693613)
(0.00695658 0 0.0087949)
(0.00751937 0 0.0107321)
(0.00821703 0 0.0135284)
(0.00845886 0 0.01653)
(0.00870115 0 0.0206954)
(0.00826738 0 0.0249699)
(0.00759837 0 0.0307951)
(0.00589868 0 0.036707)
(0.0036164 0 0.0445349)
(9.99993e-05 0 1.05057e-05)
(0.000118359 0 2.50703e-05)
(0.000140358 0 4.39858e-05)
(0.000161934 0 6.66039e-05)
(0.000187052 0 9.79274e-05)
(0.000208465 0 0.000133786)
(0.000236395 0 0.000180677)
(0.000258027 0 0.00023715)
(0.00028408 0 0.00032826)
(0.000296318 0 0.000396512)
(0.000305958 0 0.000463815)
(0.000321404 0 0.000628349)
(0.000336483 0 0.000920953)
(0.000261442 0 0.000970265)
(0.000146246 0 0.000921138)
(0.0157561 0 0.001425)
(0.0330109 0 0.00229422)
(0.0193816 0 0.00397898)
(0.00390456 0 0.00529952)
(0.00426582 0 0.00548062)
(0.00473882 0 0.00661115)
(0.00513898 0 0.00800252)
(0.00564363 0 0.00989371)
(0.00584245 0 0.0119336)
(0.00604356 0 0.0147904)
(0.00578402 0 0.0177407)
(0.00535267 0 0.0218129)
(0.00422562 0 0.0259711)
(0.00260575 0 0.0316857)
(6.62432e-05 0 8.00667e-06)
(7.95767e-05 0 1.89692e-05)
(9.64287e-05 0 3.30795e-05)
(0.000112229 0 4.93648e-05)
(0.000130783 0 7.19588e-05)
(0.00014765 0 9.70235e-05)
(0.000166534 0 0.000130692)
(0.000181465 0 0.000171003)
(0.000200196 0 0.00023414)
(0.000208039 0 0.000281277)
(0.00021518 0 0.000328499)
(0.000225669 0 0.000443629)
(0.000234713 0 0.000647838)
(0.000181362 0 0.00068043)
(0.00010004 0 0.000640892)
(0.0135214 0 0.000993514)
(0.0287173 0 0.00170589)
(0.0168376 0 0.00355766)
(0.00280884 0 0.00480929)
(0.00295104 0 0.00453414)
(0.00324688 0 0.00517086)
(0.00352875 0 0.0062213)
(0.00386526 0 0.00748574)
(0.00400832 0 0.00885746)
(0.00416208 0 0.0107976)
(0.00400145 0 0.0128131)
(0.00371675 0 0.0156154)
(0.00295504 0 0.0184871)
(0.00183198 0 0.0224968)
(4.02813e-05 0 6.55934e-06)
(5.07665e-05 0 1.51434e-05)
(6.39551e-05 0 2.59213e-05)
(7.54371e-05 0 3.77675e-05)
(8.97858e-05 0 5.44144e-05)
(0.000102352 0 7.21003e-05)
(0.000116448 0 9.57573e-05)
(0.000128408 0 0.000124154)
(0.00014094 0 0.000169087)
(0.000146291 0 0.000202611)
(0.000151886 0 0.000234817)
(0.000158265 0 0.000314595)
(0.000164516 0 0.000458281)
(0.000126748 0 0.000480122)
(6.90115e-05 0 0.000448557)
(0.0112863 0 0.000696279)
(0.0243406 0 0.00127779)
(0.014369 0 0.00320533)
(0.0020896 0 0.00449075)
(0.00211899 0 0.00393209)
(0.00228381 0 0.00418031)
(0.00243195 0 0.00502666)
(0.00266896 0 0.00588744)
(0.00276499 0 0.00681432)
(0.00285898 0 0.00811891)
(0.00275093 0 0.00948458)
(0.00256048 0 0.0113928)
(0.00204413 0 0.0133547)
(0.0012705 0 0.016119)
(1.94509e-05 0 5.92175e-06)
(2.89923e-05 0 1.28395e-05)
(3.90052e-05 0 2.14857e-05)
(4.81614e-05 0 3.06236e-05)
(5.94955e-05 0 4.29185e-05)
(6.88251e-05 0 5.52982e-05)
(8.00184e-05 0 7.20952e-05)
(8.90463e-05 0 9.23548e-05)
(9.85406e-05 0 0.000124014)
(0.00010357 0 0.000147175)
(0.000106907 0 0.000169997)
(0.000111224 0 0.000226646)
(0.000115385 0 0.000327155)
(8.86109e-05 0 0.000340539)
(4.80042e-05 0 0.000315897)
(0.00919998 0 0.000491004)
(0.0201031 0 0.000961976)
(0.0119716 0 0.00287319)
(0.001639 0 0.00415666)
(0.00164509 0 0.00344322)
(0.00169085 0 0.00346207)
(0.00173525 0 0.00424159)
(0.00189081 0 0.0048281)
(0.00191687 0 0.00542295)
(0.00198136 0 0.00631211)
(0.00190166 0 0.00724929)
(0.00176058 0 0.00853868)
(0.00140617 0 0.00987024)
(0.00087492 0 0.0117552)
(1.29848e-06 0 5.89903e-06)
(1.01521e-05 0 1.19157e-05)
(1.90749e-05 0 1.9079e-05)
(2.75994e-05 0 2.63005e-05)
(3.62443e-05 0 3.57527e-05)
(4.39939e-05 0 4.49586e-05)
(5.31396e-05 0 5.66693e-05)
(5.99879e-05 0 7.08904e-05)
(6.77541e-05 0 9.34737e-05)
(7.18914e-05 0 0.000109526)
(7.4866e-05 0 0.00012497)
(7.8752e-05 0 0.000164625)
(8.13458e-05 0 0.000236442)
(6.21579e-05 0 0.000244928)
(3.32563e-05 0 0.000224449)
(0.00731277 0 0.000348293)
(0.01622 0 0.000727228)
(0.00978964 0 0.00251944)
(0.00135622 0 0.00376428)
(0.00132104 0 0.00302342)
(0.00133344 0 0.0029053)
(0.00134405 0 0.00363107)
(0.0014006 0 0.00409047)
(0.00137019 0 0.00449539)
(0.00140421 0 0.00508689)
(0.00132084 0 0.00571588)
(0.00122261 0 0.00659997)
(0.000972814 0 0.00751578)
(0.000601816 0 0.00879314)
(-1.63736e-05 0 6.47894e-06)
(-7.06822e-06 0 1.21719e-05)
(1.70991e-06 0 1.84515e-05)
(9.83307e-06 0 2.45069e-05)
(1.77527e-05 0 3.17964e-05)
(2.53084e-05 0 3.86167e-05)
(3.25652e-05 0 4.72255e-05)
(3.8518e-05 0 5.76531e-05)
(4.51057e-05 0 7.35648e-05)
(4.86085e-05 0 8.40707e-05)
(5.16729e-05 0 9.44985e-05)
(5.47846e-05 0 0.000122519)
(5.70179e-05 0 0.000173415)
(4.40357e-05 0 0.000177968)
(2.36037e-05 0 0.000161433)
(0.00569306 0 0.000250095)
(0.0127425 0 0.000549254)
(0.00784788 0 0.00219889)
(0.0011646 0 0.00334156)
(0.00113387 0 0.00262621)
(0.00112272 0 0.00245946)
(0.0010779 0 0.00313607)
(0.00109365 0 0.00351703)
(0.00105508 0 0.0037908)
(0.00103832 0 0.00422576)
(0.000943663 0 0.00468344)
(0.000866272 0 0.00527709)
(0.00067619 0 0.00589564)
(0.000418653 0 0.00677393)
(-3.5968e-05 0 7.68233e-06)
(-2.51093e-05 0 1.36707e-05)
(-1.52698e-05 0 1.9535e-05)
(-6.38283e-06 0 2.47622e-05)
(1.70191e-06 0 3.06287e-05)
(9.18299e-06 0 3.59112e-05)
(1.61854e-05 0 4.22002e-05)
(2.23822e-05 0 4.94992e-05)
(2.78887e-05 0 6.11682e-05)
(3.1335e-05 0 6.82972e-05)
(3.44189e-05 0 7.4628e-05)
(3.72636e-05 0 9.41553e-05)
(3.95567e-05 0 0.000130641)
(3.08032e-05 0 0.000132369)
(1.67735e-05 0 0.000117913)
(0.00440184 0 0.000181724)
(0.00992571 0 0.000415795)
(0.00617582 0 0.00178252)
(0.00105849 0 0.00284321)
(0.00103166 0 0.00227084)
(0.000981804 0 0.00208452)
(0.000928301 0 0.00270866)
(0.000905117 0 0.00304747)
(0.000837043 0 0.00323644)
(0.000802896 0 0.00356749)
(0.000723172 0 0.00391231)
(0.000639373 0 0.00434719)
(0.000482611 0 0.00479863)
(0.000295999 0 0.00539216)
(-5.98104e-05 0 9.44432e-06)
(-4.6248e-05 0 1.63318e-05)
(-3.41668e-05 0 2.22987e-05)
(-2.34449e-05 0 2.71496e-05)
(-1.40445e-05 0 3.20304e-05)
(-5.52871e-06 0 3.61622e-05)
(1.95303e-06 0 4.09139e-05)
(8.44416e-06 0 4.59523e-05)
(1.4141e-05 0 5.42033e-05)
(1.83008e-05 0 5.86172e-05)
(2.14233e-05 0 6.24555e-05)
(2.42838e-05 0 7.63513e-05)
(2.6581e-05 0 0.000102454)
(2.11916e-05 0 0.000101757)
(1.18964e-05 0 8.84082e-05)
(0.00333583 0 0.000135154)
(0.00760522 0 0.000320335)
(0.00483703 0 0.00147557)
(0.000945565 0 0.00233736)
(0.000932904 0 0.00186838)
(0.000924009 0 0.00175374)
(0.000849488 0 0.00231947)
(0.000781324 0 0.0026329)
(0.00071182 0 0.0027817)
(0.00065844 0 0.00304542)
(0.000569114 0 0.00331357)
(0.000491439 0 0.00364394)
(0.000368358 0 0.00398782)
(0.000217503 0 0.00442197)
(-9.02341e-05 0 1.18414e-05)
(-7.27863e-05 0 2.02261e-05)
(-5.72766e-05 0 2.67985e-05)
(-4.35191e-05 0 3.16882e-05)
(-3.15946e-05 0 3.60744e-05)
(-2.10082e-05 0 3.94013e-05)
(-1.20239e-05 0 4.29617e-05)
(-4.29282e-06 0 4.61632e-05)
(2.23878e-06 0 5.19824e-05)
(7.12623e-06 0 5.42933e-05)
(1.08861e-05 0 5.58448e-05)
(1.44171e-05 0 6.55758e-05)
(1.69336e-05 0 8.49116e-05)
(1.41202e-05 0 8.22826e-05)
(8.30097e-06 0 6.89302e-05)
(0.00247815 0 0.000103914)
(0.00572628 0 0.000252266)
(0.00372028 0 0.00120599)
(0.000843689 0 0.0019287)
(0.000837038 0 0.00155562)
(0.000828711 0 0.00146487)
(0.000772791 0 0.00194414)
(0.000712226 0 0.0022413)
(0.000641313 0 0.00237238)
(0.000562928 0 0.00260208)
(0.000480233 0 0.00283937)
(0.000400464 0 0.00309749)
(0.000288574 0 0.00336261)
(0.000166281 0 0.00369379)
(-0.000129466 0 1.49792e-05)
(-0.000106764 0 2.55103e-05)
(-8.67899e-05 0 3.33635e-05)
(-6.86814e-05 0 3.87099e-05)
(-5.30569e-05 0 4.30425e-05)
(-3.92302e-05 0 4.57567e-05)
(-2.75293e-05 0 4.84847e-05)
(-1.76447e-05 0 5.00768e-05)
(-9.51148e-06 0 5.39616e-05)
(-3.10804e-06 0 5.44584e-05)
(1.8275e-06 0 5.398e-05)
(6.00792e-06 0 6.05669e-05)
(9.22242e-06 0 7.52553e-05)
(8.7301e-06 0 7.05506e-05)
(5.60535e-06 0 5.65698e-05)
(0.00177318 0 8.39926e-05)
(0.00418857 0 0.000203677)
(0.00279738 0 0.000989242)
(0.000723998 0 0.00157737)
(0.00073358 0 0.00127975)
(0.000741878 0 0.00121653)
(0.000697875 0 0.00162308)
(0.000645901 0 0.00188149)
(0.000578089 0 0.00200033)
(0.000510944 0 0.00220567)
(0.00043053 0 0.00241388)
(0.000340626 0 0.0026427)
(0.000242624 0 0.00287714)
(0.00013535 0 0.00313287)
(-0.000179676 0 1.90961e-05)
(-0.000150408 0 3.25249e-05)
(-0.000124783 0 4.24723e-05)
(-0.000100853 0 4.88086e-05)
(-8.03745e-05 0 5.35424e-05)
(-6.20163e-05 0 5.57621e-05)
(-4.65025e-05 0 5.78932e-05)
(-3.33676e-05 0 5.80362e-05)
(-2.25313e-05 0 6.02682e-05)
(-1.37832e-05 0 5.88908e-05)
(-7.05208e-06 0 5.63797e-05)
(-1.66828e-06 0 6.0608e-05)
(2.53462e-06 0 7.22116e-05)
(4.18028e-06 0 6.50065e-05)
(3.48911e-06 0 4.95064e-05)
(0.00118533 0 7.19641e-05)
(0.00291625 0 0.000168653)
(0.00200946 0 0.000811166)
(0.000574829 0 0.00128952)
(0.000608124 0 0.00105119)
(0.000637697 0 0.00100332)
(0.000612587 0 0.0013396)
(0.000582711 0 0.00156817)
(0.000525286 0 0.00167234)
(0.000463596 0 0.00185308)
(0.000387254 0 0.00204159)
(0.000307988 0 0.00224111)
(0.000216988 0 0.0024415)
(0.000115373 0 0.00266924)
(-0.000243507 0 2.45834e-05)
(-0.000206005 0 4.20211e-05)
(-0.00017327 0 5.4953e-05)
(-0.00014204 0 6.28049e-05)
(-0.000115402 0 6.84345e-05)
(-9.11051e-05 0 7.04067e-05)
(-7.0641e-05 0 7.20841e-05)
(-5.29331e-05 0 7.07204e-05)
(-3.83638e-05 0 7.15345e-05)
(-2.63001e-05 0 6.81318e-05)
(-1.68123e-05 0 6.3255e-05)
(-9.55094e-06 0 6.53497e-05)
(-3.9458e-06 0 7.5148e-05)
(1.13805e-07 0 6.487e-05)
(1.71754e-06 0 4.69214e-05)
(0.000682466 0 6.62193e-05)
(0.00183649 0 0.000144356)
(0.00132767 0 0.000678032)
(0.000394194 0 0.00106318)
(0.000454033 0 0.000864225)
(0.000507652 0 0.000827531)
(0.000506901 0 0.00110094)
(0.000502631 0 0.00130014)
(0.000462307 0 0.0013822)
(0.000416116 0 0.0015372)
(0.000351259 0 0.00170742)
(0.000279742 0 0.00188551)
(0.000194812 0 0.00206663)
(0.00010386 0 0.00226162)
(-0.000324446 0 3.19698e-05)
(-0.00027641 0 5.48894e-05)
(-0.000234668 0 7.18803e-05)
(-0.000194371 0 8.20135e-05)
(-0.000159954 0 8.90053e-05)
(-0.000128222 0 9.09181e-05)
(-0.000101539 0 9.22948e-05)
(-7.7834e-05 0 8.94598e-05)
(-5.83713e-05 0 8.8888e-05)
(-4.17767e-05 0 8.30187e-05)
(-2.86012e-05 0 7.53557e-05)
(-1.86733e-05 0 7.55079e-05)
(-1.09302e-05 0 8.42571e-05)
(-3.89788e-06 0 6.97643e-05)
(2.20962e-07 0 4.83635e-05)
(0.000246588 0 6.5875e-05)
(0.000907727 0 0.000131433)
(0.000729491 0 0.000582709)
(0.000201791 0 0.000901775)
(0.000275787 0 0.000727744)
(0.000353094 0 0.000695685)
(0.000376899 0 0.000908054)
(0.000393531 0 0.00107933)
(0.000380873 0 0.00113964)
(0.000355996 0 0.00125883)
(0.000306206 0 0.00141047)
(0.000249445 0 0.00157072)
(0.000177853 0 0.00172727)
(9.57204e-05 0 0.00190191)
(-0.00042749 0 4.18977e-05)
(-0.000365953 0 7.22028e-05)
(-0.000312287 0 9.45437e-05)
(-0.000260546 0 0.000107819)
(-0.000216307 0 0.000116867)
(-0.000175268 0 0.000119115)
(-0.000140721 0 0.000120157)
(-0.000109518 0 0.000115788)
(-8.38262e-05 0 0.000113916)
(-6.13746e-05 0 0.000105166)
(-4.34335e-05 0 9.39392e-05)
(-2.97964e-05 0 9.20604e-05)
(-1.91045e-05 0 0.000100546)
(-8.35714e-06 0 8.04915e-05)
(-1.1552e-06 0 5.39287e-05)
(-0.000134702 0 7.06162e-05)
(9.83021e-05 0 0.000131984)
(0.000210599 0 0.000525397)
(1.47812e-05 0 0.000797556)
(9.76338e-05 0 0.000642715)
(0.00018847 0 0.00061143)
(0.000225642 0 0.000773087)
(0.000263217 0 0.000909415)
(0.000278182 0 0.000944746)
(0.0002801 0 0.0010304)
(0.000250484 0 0.0011617)
(0.000211012 0 0.00130241)
(0.000155758 0 0.00142466)
(8.88114e-05 0 0.00157924)
(-0.000559428 0 5.4876e-05)
(-0.000480436 0 9.50184e-05)
(-0.000411141 0 0.0001244)
(-0.000344737 0 0.000142006)
(-0.000287668 0 0.000153908)
(-0.000234707 0 0.000156855)
(-0.000190123 0 0.000157716)
(-0.00014957 0 0.000151899)
(-0.000116005 0 0.00014867)
(-8.61976e-05 0 0.000136362)
(-6.22134e-05 0 0.000120716)
(-4.37497e-05 0 0.000116799)
(-2.91925e-05 0 0.000125639)
(-1.35879e-05 0 9.82058e-05)
(-2.53113e-06 0 6.42512e-05)
(-0.00049447 0 8.1265e-05)
(-0.000637922 0 0.000147467)
(-0.000243986 0 0.000512422)
(-0.000154797 0 0.000749181)
(-5.60387e-05 0 0.000607212)
(3.19517e-05 0 0.0005775)
(7.70322e-05 0 0.000697266)
(0.000128421 0 0.0007999)
(0.000160869 0 0.000811846)
(0.000186696 0 0.000865599)
(0.000182434 0 0.000968355)
(0.00016382 0 0.00108518)
(0.000126484 0 0.00117194)
(7.64517e-05 0 0.00130165)
(-0.000728974 0 7.14494e-05)
(-0.000627356 0 0.000124447)
(-0.000538021 0 0.000163055)
(-0.00045256 0 0.00018644)
(-0.000378723 0 0.00020232)
(-0.000310427 0 0.000206503)
(-0.00025261 0 0.000207381)
(-0.000200134 0 0.000200059)
(-0.000156541 0 0.000195559)
(-0.000117529 0 0.00017905)
(-8.58866e-05 0 0.000157765)
(-6.13448e-05 0 0.000151677)
(-4.17968e-05 0 0.000161719)
(-2.00021e-05 0 0.000124752)
(-3.99608e-06 0 8.0272e-05)
(-0.000856191 0 9.90205e-05)
(-0.00134769 0 0.000176708)
(-0.0006661 0 0.000538017)
(-0.000294154 0 0.000754359)
(-0.000187608 0 0.00061553)
(-0.000107007 0 0.000588534)
(-4.93544e-05 0 0.000677693)
(2.42686e-07 0 0.00074885)
(4.62978e-05 0 0.000745359)
(8.97954e-05 0 0.000770811)
(0.000104812 0 0.000839829)
(0.000109205 0 0.000927353)
(9.07404e-05 0 0.000979916)
(5.89711e-05 0 0.00108018)
(-0.000946252 0 9.24108e-05)
(-0.000816602 0 0.00016169)
(-0.000701415 0 0.000212411)
(-0.000591212 0 0.000243461)
(-0.000495845 0 0.000264719)
(-0.000407624 0 0.000270779)
(-0.000332501 0 0.000272122)
(-0.00026461 0 0.000263209)
(-0.000207909 0 0.000257417)
(-0.000157126 0 0.0002358)
(-0.000115696 0 0.000207539)
(-8.35397e-05 0 0.000199264)
(-5.7675e-05 0 0.000211423)
(-2.80349e-05 0 0.00016221)
(-5.73672e-06 0 0.00010331)
(-0.0012405 0 0.000125843)
(-0.00207572 0 0.000220964)
(-0.00106917 0 0.000598059)
(-0.000406939 0 0.000806469)
(-0.000302209 0 0.000663703)
(-0.000223962 0 0.00063649)
(-0.000157696 0 0.000703327)
(-0.000115101 0 0.000746785)
(-5.06198e-05 0 0.000739374)
(-2.29105e-06 0 0.000742495)
(2.92542e-05 0 0.000781897)
(5.212e-05 0 0.000836557)
(5.1113e-05 0 0.000856818)
(3.80175e-05 0 0.000924087)
(-0.0012227 0 0.000118868)
(-0.00105663 0 0.000208471)
(-0.000910945 0 0.000274909)
(-0.000770067 0 0.000316004)
(-0.000646968 0 0.000344466)
(-0.000532834 0 0.000353297)
(-0.000435555 0 0.000355546)
(-0.000347587 0 0.000344846)
(-0.000273751 0 0.000337804)
(-0.000207764 0 0.000309988)
(-0.00015358 0 0.000272962)
(-0.000111668 0 0.000262337)
(-7.77235e-05 0 0.000277928)
(-3.8178e-05 0 0.000213116)
(-7.88464e-06 0 0.000135036)
(-0.00167647 0 0.000163766)
(-0.0028844 0 0.000283342)
(-0.00148651 0 0.000708254)
(-0.000488981 0 0.000910587)
(-0.000382276 0 0.000741089)
(-0.000315137 0 0.00071436)
(-0.000252701 0 0.000766949)
(-0.000211636 0 0.000783094)
(-0.000135044 0 0.000777435)
(-8.12944e-05 0 0.000768946)
(-3.44092e-05 0 0.000783733)
(-1.67354e-06 0 0.000809703)
(1.30893e-05 0 0.000805219)
(1.59365e-05 0 0.000837724)
(-0.00157142 0 0.000152388)
(-0.00136439 0 0.000267364)
(-0.00117739 0 0.000353904)
(-0.000996771 0 0.000408155)
(-0.000840818 0 0.000445965)
(-0.000694472 0 0.000458544)
(-0.000568664 0 0.000462329)
(-0.000454674 0 0.000449683)
(-0.000358861 0 0.000441346)
(-0.000273098 0 0.000405798)
(-0.00020232 0 0.000357825)
(-0.000147776 0 0.000344584)
(-0.000103343 0 0.000365153)
(-5.11207e-05 0 0.000280389)
(-1.06682e-05 0 0.000177473)
(-0.00218665 0 0.00021529)
(-0.00380872 0 0.000366505)
(-0.00194202 0 0.000855678)
(-0.000529266 0 0.00106711)
(-0.00044298 0 0.000857205)
(-0.000385948 0 0.000818767)
(-0.000314653 0 0.000864745)
(-0.000285594 0 0.000857569)
(-0.000205411 0 0.000853057)
(-0.000145187 0 0.000843493)
(-8.85385e-05 0 0.000830056)
(-4.76339e-05 0 0.000833889)
(-1.95893e-05 0 0.000812051)
(-4.51158e-06 0 0.000816011)
(-0.00173984 0 0.000342217)
(-0.00200845 0 0.000194959)
(-0.00151271 0 0.000454054)
(-0.00128715 0 0.000524844)
(-0.00108706 0 0.000574778)
(-0.000899118 0 0.000592699)
(-0.000739255 0 0.000598704)
(-0.000592886 0 0.00058361)
(-0.000468899 0 0.000574052)
(-0.000357546 0 0.000528966)
(-0.000265537 0 0.000467131)
(-0.00019447 0 0.000450798)
(-0.0001364 0 0.000478298)
(-6.78522e-05 0 0.000367922)
(-1.43676e-05 0 0.00023319)
(-0.00280136 0 0.000283218)
(-0.00490925 0 0.000472434)
(-0.0024648 0 0.00105436)
(-0.000548418 0 0.0012768)
(-0.000483615 0 0.00100824)
(-0.000420843 0 0.000950863)
(-0.000355825 0 0.000989429)
(-0.0003294 0 0.00096593)
(-0.000244617 0 0.000961241)
(-0.000192737 0 0.000955387)
(-0.000134359 0 0.000916313)
(-8.96909e-05 0 0.000898248)
(-4.83956e-05 0 0.000867314)
(-2.34218e-05 0 0.000847985)
(-0.00164083 0 0.000673403)
(-0.00193229 0 0.000580097)
(-0.00257546 0 0.000498202)
(-0.00345194 0 0.00033968)
(-0.0013964 0 0.000738342)
(-0.00116092 0 0.000762639)
(-0.000955627 0 0.00077208)
(-0.000767654 0 0.00075472)
(-0.000609841 0 0.000743702)
(-0.000466504 0 0.000686594)
(-0.00034727 0 0.000607395)
(-0.000254875 0 0.000587477)
(-0.000179298 0 0.000624234)
(-8.95466e-05 0 0.00048105)
(-1.92859e-05 0 0.000305609)
(-0.00354502 0 0.000371372)
(-0.00624157 0 0.00059982)
(-0.00311002 0 0.00128915)
(-0.000582493 0 0.00153649)
(-0.000511842 0 0.00119748)
(-0.000439786 0 0.00110854)
(-0.00037763 0 0.00114459)
(-0.000332685 0 0.00110308)
(-0.000265585 0 0.00108686)
(-0.00021608 0 0.00108565)
(-0.000160415 0 0.00103363)
(-0.000123405 0 0.000996202)
(-7.21635e-05 0 0.000963324)
(-3.7198e-05 0 0.000925557)
(-0.00147954 0 0.000978784)
(-0.00178335 0 0.000943608)
(-0.00242816 0 0.000979104)
(-0.00332049 0 0.0010071)
(-0.0043004 0 0.000843742)
(-0.00571263 0 0.000564309)
(-0.00122697 0 0.000992283)
(-0.000990959 0 0.000971371)
(-0.00078827 0 0.000959404)
(-0.000604077 0 0.000888261)
(-0.000451842 0 0.000787009)
(-0.00033267 0 0.00076277)
(-0.000234631 0 0.000811845)
(-0.000117595 0 0.000626866)
(-2.56845e-05 0 0.00039919)
(-0.00442132 0 0.000485151)
(-0.00784483 0 0.000748482)
(-0.00393629 0 0.00154067)
(-0.000694968 0 0.001827)
(-0.00057942 0 0.0014139)
(-0.000478765 0 0.00128874)
(-0.000388383 0 0.00132089)
(-0.000316964 0 0.00126444)
(-0.000269559 0 0.00123669)
(-0.000216836 0 0.00123066)
(-0.000170169 0 0.00116477)
(-0.000138929 0 0.0011154)
(-8.33716e-05 0 0.00108622)
(-4.3902e-05 0 0.00103918)
(-0.00126249 0 0.00124692)
(-0.00156647 0 0.00126847)
(-0.00218903 0 0.00142233)
(-0.00306313 0 0.00163673)
(-0.00405321 0 0.00165612)
(-0.00549303 0 0.00167042)
(-0.00703125 0 0.00138534)
(-0.00914943 0 0.000909302)
(-0.00101179 0 0.00123311)
(-0.000779678 0 0.00114356)
(-0.000583925 0 0.00101542)
(-0.000430814 0 0.000987216)
(-0.000305315 0 0.00105222)
(-0.000153618 0 0.000814338)
(-3.3913e-05 0 0.000519672)
(-0.00540735 0 0.000632006)
(-0.00969197 0 0.000922877)
(-0.00497225 0 0.0017763)
(-0.000938916 0 0.00211515)
(-0.000748965 0 0.00164481)
(-0.000593136 0 0.00148304)
(-0.000443634 0 0.00150897)
(-0.000324557 0 0.00143779)
(-0.000270204 0 0.00139512)
(-0.000212528 0 0.0013818)
(-0.00016834 0 0.00131004)
(-0.000130578 0 0.00124439)
(-8.53047e-05 0 0.00121232)
(-4.37119e-05 0 0.00116818)
(-0.000993064 0 0.00146811)
(-0.00129152 0 0.00157594)
(-0.00186781 0 0.00181139)
(-0.00269001 0 0.00219952)
(-0.00365273 0 0.0024038)
(-0.00506371 0 0.00271137)
(-0.00662237 0 0.00271464)
(-0.00878984 0 0.00268618)
(-0.011101 0 0.00220491)
(-0.0142175 0 0.00143038)
(-0.000749269 0 0.00130521)
(-0.000555902 0 0.00127131)
(-0.00039438 0 0.00135787)
(-0.000199026 0 0.00105435)
(-4.43164e-05 0 0.000674117)
(-0.00645559 0 0.000821228)
(-0.0117201 0 0.00113539)
(-0.00616215 0 0.00200977)
(-0.00131925 0 0.00239171)
(-0.00105474 0 0.00187164)
(-0.000820609 0 0.00168906)
(-0.00060198 0 0.00170529)
(-0.000415916 0 0.00162368)
(-0.000314624 0 0.00156195)
(-0.000234992 0 0.0015325)
(-0.000167461 0 0.00144907)
(-0.00011395 0 0.00137578)
(-8.03606e-05 0 0.00134287)
(-3.90085e-05 0 0.00129797)
(-0.000708013 0 0.00163212)
(-0.00095628 0 0.00166777)
(-0.00146943 0 0.00213201)
(-0.00221748 0 0.00273068)
(-0.00311606 0 0.00305907)
(-0.004444 0 0.00363962)
(-0.00596233 0 0.0039345)
(-0.0080904 0 0.00435126)
(-0.0104381 0 0.00431096)
(-0.0136313 0 0.00421048)
(-0.0170107 0 0.00343519)
(-0.021533 0 0.00221845)
(-0.000506281 0 0.00174524)