/*--------------------------------*- C++ -*----------------------------------*\
| =========                 |                                                 |
| \\      /  F ield         | OpenFOAM: The Open Source CFD Toolbox           |
|  \\    /   O peration     | Version:  5.x                                   |
|   \\  /    A nd           | Web:      www.OpenFOAM.org                      |
|    \\/     M anipulation  |                                                 |
\*---------------------------------------------------------------------------*/
FoamFile
{
    version     2.0;
    format      ascii;
    class       volScalarField;
    location    "0.5";
    object      alpha.water;
}
// * * * * * * * * * * * * * * * * * * * * * * * * * * * * * * * * * * * * * //

dimensions      [0 0 0 0 0 0 0];

internalField   nonuniform List<scalar> 
12160
(
1
1
1
1
1
1
1
1
1
1
1
1
1
1
1
1
1
1
1
1
1
1
1
1
1
1
1
1
1
1
1
1
1
1
1
1
1
1
1
1
1
1
1
1
0.654857
1
1
1
1
1
1
1
1
0.702646
0.0272919
1
1
1
1
1
1
1
1
0.688413
0.0876771
7.2848e-05
1
1
1
1
1
1
1
1
0.628275
0.102572
0.000567135
4.07898e-08
1
1
1
1
1
1
1
1
0.538765
0.0923852
0.00113907
2.48171e-07
1.33556e-12
1
1
1
1
1
1
1
1
0.437957
0.0611915
0.00165882
8.88693e-07
6.31498e-12
4.86637e-17
1
1
1
1
1
1
1
1
0.344975
0.0330618
0.000933125
2.39415e-06
3.63781e-11
1.19238e-16
9.01059e-22
1
1
1
1
1
1
1
1
0.265589
0.015746
0.000277055
1.19275e-06
1.81533e-10
6.38826e-16
1.82307e-21
1
1
1
1
1
1
1
1
0.201727
0.00708096
6.21155e-05
1.71092e-07
7.689e-11
3.93749e-15
1.03121e-20
1
1
1
1
1
1
1
1
0.151741
0.00303066
1.27914e-05
1.44783e-08
5.51491e-12
1.67804e-15
7.83437e-20
1
1
1
1
1
1
1
1
0.113455
0.00127067
2.40394e-06
1.04217e-09
3.69663e-13
1.38682e-16
3.5209e-20
1
1
1
1
1
1
1
1
0.0845352
0.000525522
4.26259e-07
7.08381e-11
2.12184e-14
8.47643e-18
3.21697e-21
1
1
1
1
1
1
1
1
0.0628921
0.000217101
7.20634e-08
7.78071e-12
1.31015e-15
4.08165e-19
1.74384e-22
1
1
1
1
1
1
1
1
0.0467895
9.01978e-05
1.20162e-08
9.708e-13
1.23864e-16
2.35864e-20
7.38692e-24
1
1
1
1
1
1
1
1
0.0348532
3.79854e-05
2.04085e-09
1.19619e-13
1.16713e-17
1.76768e-21
3.90541e-25
1
1
1
1
1
1
1
1
0.0260256
1.63338e-05
3.88389e-10
1.57253e-14
1.09693e-18
1.2608e-22
2.28586e-26
1
1
1
1
1
1
1
1
0.0195093
7.26731e-06
1.04765e-10
2.6195e-15
1.17384e-19
9.26113e-24
1.26116e-27
1
0.999999
1
1
1
1
1
1
0.0147109
3.38758e-06
3.69123e-11
6.23966e-16
1.72128e-20
8.31448e-25
7.45607e-29
1
1
1
1
1
1
1
1
0.011192
1.6992e-06
1.42929e-11
1.77376e-16
3.3675e-21
1.03843e-25
5.66258e-30
1
1
1
1
1
1
1
1
0.00863376
9.29231e-07
6.36223e-12
5.79454e-17
7.80643e-22
1.63312e-26
5.83666e-31
1
1
1
1
1
1
1
1
0.00680315
5.67039e-07
3.24641e-12
2.30759e-17
2.16913e-22
3.11109e-27
7.36749e-32
1
1
1
1
1
1
1
1
0.00553772
3.77999e-07
1.9688e-12
1.09327e-17
7.73804e-23
7.3877e-28
1.15992e-32
0.999999
0.999999
1
1
1
1
1
1
0.00472385
2.76596e-07
1.35452e-12
6.48285e-18
3.37383e-23
2.35609e-28
2.36101e-33
0.999999
0.999999
0.999999
1
1
1
1
1
0.00428666
2.20331e-07
1.05245e-12
4.46827e-18
1.92452e-23
9.40115e-29
6.72024e-34
0.999999
0.999999
0.999999
0.999999
1
1
1
1
0.00418263
1.92984e-07
8.88046e-13
3.55553e-18
1.30317e-23
5.10136e-29
2.44589e-34
1
1
0.999999
0.999999
0.999999
1
1
1
0.00439153
1.8641e-07
8.11239e-13
3.0739e-18
1.03806e-23
3.35403e-29
1.25463e-34
1
1
1
0.999999
0.999999
1
1
1
0.00491436
1.99407e-07
7.91425e-13
2.8655e-18
9.02259e-24
2.6385e-29
7.9626e-35
1
1
1
1
1
1
1
1
0.00576964
2.3256e-07
8.2947e-13
2.80474e-18
8.47615e-24
2.28005e-29
6.14573e-35
1
1
1
1
1
1
1
1
0.00699464
2.9196e-07
9.21063e-13
2.90315e-18
8.29398e-24
2.1412e-29
5.25281e-35
1
1
1
1
1
1
1
1
0.0086434
3.91071e-07
1.08624e-12
3.13967e-18
8.51611e-24
2.08937e-29
4.91161e-35
1
1
1
1
1
1
1
1
0.0107867
5.57943e-07
1.37244e-12
3.59107e-18
9.08238e-24
2.13304e-29
4.77316e-35
1
1
1
1
1
1
1
1
0.0135172
8.47275e-07
1.89048e-12
4.43009e-18
1.02562e-23
2.25999e-29
4.84879e-35
1
1
1
1
1
1
1
1
0.0169469
1.37015e-06
2.87598e-12
6.05567e-18
1.25945e-23
2.54713e-29
5.1205e-35
1
1
1
1
1
1
1
1
0.0212088
2.3346e-06
4.84816e-12
9.37752e-18
1.74057e-23
3.15154e-29
5.78847e-35
1
1
1
1
1
1
1
1
0.0264581
4.12419e-06
8.95451e-12
1.65735e-17
2.78218e-23
4.45512e-29
7.25486e-35
1
1
1
1
1
1
1
1
0.0328738
7.44772e-06
1.77796e-11
3.31117e-17
5.20128e-23
7.42053e-29
1.05502e-34
1
1
1
1
1
1
1
1
0.0406584
1.35884e-05
3.72071e-11
7.33195e-17
1.12726e-22
1.47696e-28
1.84036e-34
1
1
1
1
1
1
1
1
0.0500379
2.48548e-05
8.04957e-11
1.75858e-16
2.77786e-22
3.4817e-28
3.9152e-34
1
1
1
1
1
1
1
1
0.0612656
4.51891e-05
1.84368e-10
4.45229e-16
7.59424e-22
9.54124e-28
1.0061e-33
0.0745919
1
1
1
1
1
1
1
1
8.17147e-05
5.16536e-10
1.17705e-15
2.23363e-21
2.96142e-27
3.06695e-33
0.000153204
0.100652
1
1
1
1
1
1
1
1
1.6253e-09
3.45786e-15
6.9416e-21
1.00648e-26
1.07781e-32
5.85739e-09
0.000357321
0.15138
1
1
1
1
1
1
1
1
1.19589e-14
2.27395e-20
3.66518e-26
4.21716e-32
4.9957e-14
3.12979e-08
0.00124362
0.217779
1
1
1
1
1
1
0.999999
0.999999
8.54521e-20
1.38388e-25
1.79038e-31
3.94533e-19
3.5104e-13
3.82945e-07
0.00373073
0.299041
1
1
1
1
1
0.999999
0.999997
0.999997
0.999999
5.77123e-25
7.86914e-31
2.8948e-24
3.53481e-18
6.43572e-12
3.30769e-06
0.00971135
0.391931
1
1
1
1
0.999999
0.999998
0.999997
0.999997
0.999997
0.999997
3.72588e-30
2.0448e-29
3.20744e-23
9.36374e-17
1.01805e-10
2.09456e-05
0.0216403
0.490679
1
1
1
1
0.999999
0.999998
0.999997
0.999997
0.999998
0.999997
0.999996
2.72215e-28
1.21318e-21
1.72529e-15
1.94549e-09
9.78513e-05
0.0415974
0.588212
1
1
1
1
0.999999
0.999998
0.999997
0.999998
0.999999
0.999999
0.999997
0.999999
1.42333e-26
2.85882e-20
3.74879e-14
2.39708e-08
0.000349666
0.0698943
0.677889
1
1
1
1
0.999999
0.999999
0.999998
0.999999
0.999999
0.999999
0.999999
0.999999
0.999999
4.41042e-25
6.73227e-19
5.65114e-13
1.93311e-07
0.00096296
0.104558
0.754238
1
1
1
1
1
0.999999
0.999998
0.999999
0.999999
0.999999
0.999999
0.999996
0.999997
0.999998
1.12868e-23
1.20151e-17
5.44762e-12
9.902e-07
0.00207537
0.141778
0.811525
1
1
1
1
1
0.999999
0.999999
0.999999
0.999999
0.999989
0.999995
0.999992
0.999999
0.999999
0.999998
0.999996
0.999996
0.999998
2.30712e-22
1.30636e-16
4.76012e-11
3.20466e-06
0.00361754
0.175556
0.84669
1
1
1
1
1
0.999999
0.999997
1
0.999997
0.999999
0.999991
1
0.999998
0.999996
0.999995
0.999996
0.999999
0.999999
0.999997
0.999996
0.999996
0.999997
2.8549e-21
1.01541e-15
2.3892e-10
6.8871e-06
0.00518307
0.198956
0.861265
1
1
1
1
0.999999
0.999999
1
1
1
1
0.999993
1.00001
0.999999
1
0.999994
0.999993
0.999992
1.00001
1.00001
1
0.999999
0.999998
0.999996
0.999996
0.999996
0.999998
2.14265e-20
4.9543e-15
6.13775e-10
1.00147e-05
0.00604075
0.208801
0.865087
1
1
1
1
0.999999
1
1
1
1
1.00001
1.00001
1.00001
1.00001
1.00001
1.00001
1.00001
1.00001
1.00001
0.999998
1
1
1.00001
1
1.00001
1.00001
1
1.00001
1.00001
1.00001
1.00001
1.00001
1.00001
1.00001
1.00001
1.00001
1.00001
1.00001
1.00001
1.00001
0.999998
0.999996
0.999996
0.999996
0.999996
0.999998
9.76621e-20
1.1998e-14
8.01928e-10
9.10088e-06
0.00608077
0.206748
0.851677
1
1
1
1
1
1
1
1
1.00001
1.00001
1.00001
1.00001
1.00001
1.00001
1.00001
1.00001
1.00001
1.00001
1.00001
1.00001
1.00001
1.00001
1.00001
1.00001
1.00001
1.00001
1.00001
1.00001
1.00001
1.00001
1.00001
1.00001
1.00001
1.00001
1.00001
1.00001
1.00001
1.00001
1.00001
1.00001
0.999998
1
1
1.00001
1
1.00001
1.00001
1.00001
1.00001
1.00001
1.00001
1.00001
1.00001
1.00001
1.00001
1.00001
1.00001
1.00001
1.00001
1.00001
1.00001
1.00001
1.00001
1.00001
1.00001
1.00001
1.00001
1.00001
1.00001
1.00001
0.999998
0.999996
0.999996
0.999996
0.999996
0.999998
2.20181e-19
1.32248e-14
4.84733e-10
5.89744e-06
0.00510457
0.185905
0.822861
1
1
1
1
1
1
1
1
1
1
1
1.00001
1.00001
1.00001
1.00001
1.00001
1.00001
1.00001
1.00001
1.00001
1.00001
1.00001
1.00001
1.00001
1.00001
1.00001
1.00001
1.00001
1.00001
1.00001
1.00001
1.00001
1.00001
1.00001
1.00001
1.00001
1.00001
1.00001
1.00001
1.00001
1.00001
1.00001
1.00001
1.00001
1.00001
1.00001
1.00001
1.00001
1.00001
1.00001
1.00001
1.00001
1.00001
1.00001
1.00001
0.999999
1
1
1.00001
1
1
1.00001
1.00001
1.00001
1.00001
1.00001
1.00001
1.00001
1.00001
1.00001
1.00001
1.00001
1.00001
1.00001
1.00001
1
1.00001
1.00001
1.00001
1.00001
1.00001
1.00001
1.00001
1.00001
1.00001
1.00001
1.00001
1.00001
1.00001
1.00001
1.00001
1.00001
1.00001
1.00001
1.00001
1.00001
1.00001
1.00001
1.00001
1.00001
1.00001
0.999999
0.999997
0.999996
0.999996
0.999996
0.999997
2.09886e-19
6.854e-15
2.15772e-10
3.03641e-06
0.00320088
0.146984
0.76317
1
1
1
1
1
1
1
1
1
1
1.00001
1
1.00001
1
1.00001
1
1.00001
1
1
1
1.00001
1
1
1
1.00001
1
1.00001
1.00001
1.00001
1.00001
1.00001
1.00001
1.00001
1.00001
1.00001
1.00001
1.00001
1.00001
1.00001
1.00001
1.00001
1.00001
1
1.00001
1.00001
1.00001
1
0.999998
1.00001
1.00001
1.00001
1.00001
1.00001
1.00001
1.00001
1.00001
1.00001
1.00001
1.00001
1.00001
1.00001
1.00001
1.00001
1.00001
1.00001
1.00001
1.00001
1.00001
1.00001
1.00001
1.00001
1.00001
1
1
1
1
1
1
1.00001
1
1.00001
1
1
1
1
1
1.00001
1.00001
1.00001
1.00001
1.00001
1.00001
1.00001
1.00001
1.00001
1.00001
1
1.00001
1.00001
1.00001
1
0.999999
0.999998
0.999996
0.999996
0.999998
9.70598e-20
2.66282e-15
7.60114e-11
1.00894e-06
0.00131372
0.090065
0.651122
0.998485
1
1
1
1
1
1
1
1
1
1.00001
1.00001
1.00001
1
1.00001
1.00001
1.00001
1
1
1
1
1
1
1
1
1
1.00001
1.00001
1.00001
1.00001
1
1
1
0.999993
0.999999
0.999995
1.00001
1.00001
1.00001
1.00001
1.00001
1.00001
1.00001
1.00001
1.00001
1.00001
1.00001
1.00001
1.00001
1.00001
1.00001
1.00001
1.00001
1.00001
1.00001
1.00001
1
1
1
1
1
1
1
1
1
1
1
1
1
1
1
1
0.999999
0.999998
0.999997
0.999996
0.999996
0.999998
3.16362e-20
9.77209e-16
1.26687e-11
2.10962e-07
0.000236467
0.0383717
0.464679
0.940479
0.999003
0.998977
0.977084
0.976971
1
1
0.999988
0.999986
1
0.999912
1
0.999918
1
0.999943
1
0.999919
1
1
1
0.999933
1
1
1
0.999963
1
1.00001
1
1.00001
1
1.00001
1
1
0.999966
1
0.999989
1
0.999943
1
0.999994
1
0.999999
1
1
1.00001
1.00001
1.00001
1.00001
1.00001
1.00002
1.00001
1.00001
1.00001
1.00001
1.00001
1.00001
1.00001
1.00001
1.00001
1.00001
1
1
1
1
1
1
1
1.00001
1
0.999999
1
1
0.999997
0.999997
0.999996
0.999996
0.999997
0.999998
1.15132e-20
1.43816e-16
1.65989e-12
1.42548e-08
8.34129e-06
0.0107574
0.214019
0.621483
1
1
0.934588
0.93411
1
1
1
0.999985
1
1
1
0.999992
1
1
1
0.999452
1
0.999173
1
0.999514
1
0.999303
1
0.999696
1
0.998716
1
0.999858
1
0.99894
0.999799
1
0.999656
1
0.999998
1
1.00001
1
1
1
1.00001
1.00001
1.00002
1.00001
1.00002
1.00001
1.00001
1.00001
1.00001
1.00001
1.00001
1.00002
1.00001
1
1
1
1.00001
1.00001
1.00001
1.00001
1.00001
1
1
1
1
1.00001
1
1.00001
1
1
1
1
1
1
1
1
1
0.999996
0.999996
0.999996
0.999997
0.999999
1.10507e-21
2.25295e-17
6.87197e-14
3.59691e-16
2.45546e-09
0.00177922
0.0405684
0.461246
0.460441
0.218566
0.217201
0.942056
1
0.89165
1
0.943261
1
0.891465
1
0.79152
0.791265
0.999702
1
1
0.999895
0.999766
1
1
0.999915
0.976552
1
0.987042
1
0.976951
1
0.988856
1
1
0.987175
1
0.990257
1
0.989386
1
0.990879
0.999996
0.999999
1
1.00001
1.00001
1.00001
1.00001
1.00002
1.00001
1.00002
1.00001
1.00001
1.00001
1.00001
1.00002
1.00002
1.00002
1.00002
1
1.00001
1
1
1.00001
1.00001
1.00001
1.00001
1
1
1
1
1.00001
1.00001
1
1.00001
1
1
1.00001
1
0.999996
0.999996
0.999998
0.999999
2.25307e-22
7.74481e-19
3.59802e-16
2.47803e-09
1.38633e-06
4.49832e-05
0.0198492
0.019702
6.43619e-20
-8.43036e-20
0.313075
0.311715
0.089001
0.0889639
0.894099
1
0.844501
0.993508
0.895018
1
0.844768
0.993387
0.81868
0.522542
0.710818
0.627273
0.818758
0.518643
0.710936
0.624305
0.985182
0.999999
0.999998
0.983969
0.987883
1
0.999999
0.986494
0.939984
1
0.96197
1
0.940546
1
0.964103
1
0.999996
0.999999
1
1.00001
1.00001
1.00002
1.00001
1.00002
1.00001
1.00002
1.00001
1.00001
1.00001
1.00001
1.00002
1.00002
1.00002
1.00002
1.00001
1.00001
1.00001
1.00001
1.00001
1.00001
1.00002
1.00002
1.00002
1.00002
1.00002
1.00002
1.00001
1.00001
1.00001
1.00001
1
1.00001
1
1
1.00001
1.00001
1.00001
1.00001
0.999996
0.999998
0.999999
1.88312e-24
3.24189e-21
3.94761e-13
5.06477e-08
1.22349e-07
7.16626e-07
0.0092767
0.00918098
-6.95229e-26
-7.81367e-25
0.271955
0.484335
0.200282
0.169579
0.199038
0.59831
0.483051
0.270071
0.598436
0.200302
0.166267
0.198786
0.0139003
0.0288097
0.0399893
0.0662307
0.0137583
0.0284659
0.0395953
0.0663834
0.840401
0.996096
0.775901
0.956344
0.840825
0.996131
0.777331
0.956624
0.759741
0.555433
0.759153
0.553565
0.999999
0.970595
1
0.973903
0.894051
1
0.893897
1
0.999996
0.999997
1
1
1.00002
1.00002
1.00002
1.00003
1.00001
1.00002
1.00001
1.00001
1.00001
1.00001
1.00001
1.00001
1.00001
1.00001
1.00001
1.00001
1.00001
1.00001
1.00001
1.00001
1.00001
1.00001
1.00002
1.00001
1.00001
1.00001
1.00001
1.00001
1.00001
1.00001
1.00002
1.00001
1.00002
1.00002
1.00001
1.00002
1.00001
1.00001
1.00001
1.00001
0.999997
0.999999
5.78608e-26
2.19246e-17
3.39335e-10
6.64403e-08
3.44919e-06
4.57168e-06
4.82301e-07
4.82301e-07
4.80614e-07
0.00428086
0.0046784
7.25514e-05
5.14232e-05
0.396958
0.185943
0.0909707
0.255195
0.0930877
0.0546834
0.397051
0.183559
0.254088
0.0910194
0.0904101
0.0547203
0.0147247
0.0143356
0.0518787
0.0565255
0.0137146
0.0135284
0.0502817
0.0557679
0.657106
0.899861
0.65773
0.899626
0.999997
0.999996
0.999999
1
1.00001
1.00002
1.00002
1.00001
1.00002
1.00001
1.00001
1
1.00001
1.00002
1.00002
1.00001
1.00001
1
1
1
1
1
1
1.00001
1.00001
1.00001
1.00001
1.00001
1.00001
1
1.00001
1
1.00001
1.00001
1.00001
1.00001
1.00001
1.00001
1.00001
1.00001
1.00001
1.00001
1
1.00001
1
1.00001
1.00001
1.00002
1.00001
0.999999
1.31765e-22
8.75606e-14
2.73514e-09
4.03823e-08
3.1319e-05
0.00133838
0.000824951
0.000431683
0.000325935
0.00441972
0.00745953
0.00555398
0.00456803
0.00443614
0.00665534
0.00743609
0.00442232
0.0031776
0.00227093
0.0204073
0.0068353
0.0333616
0.0173029
0.0180675
0.00685571
0.0301561
0.015895
0.999999
0.999998
0.999999
1
1
1
1
1.00001
1.00002
1.00001
1.00001
1.00001
1.00002
1.00001
1.00001
1.00001
1.00001
1.00002
1.00002
1.00001
1.00001
1
1
1
1
1
1
1.00001
1.00001
1.00001
1.00001
1.00001
1.00001
1
1.00001
1.00001
1.00001
3.06697e-19
4.25287e-12
2.46899e-10
2.80933e-07
0.000127751
0.00016481
1.54078e-07
3.67744e-07
0.00647185
0.0064495
0.00151025
0.00178224
0.00870121
0.0130208
0.0327639
0.0089639
0.00793972
0.0085659
0.0120114
0.00560962
0.00862889
0.0143931
0.0127632
0.0286005
0.00523346
0.00880422
0.00680908
0.0127114
0.0170066
0.00885309
0.0141955
0.0069109
0.999999
0.999998
0.999999
1
1.00001
1.00001
1.00002
1.00001
1.00002
1.00001
1.00002
1.00001
1.00001
1.00001
1.00001
1.00002
1.00002
1.00002
1.00002
1.00001
1.00001
1.00001
1
1.00002
1.00002
1.00001
1.00001
3.44083e-18
2.57762e-13
1.83155e-10
1.6349e-07
0.000131781
0.000175993
2.39387e-06
7.04469e-06
0.00954375
0.0224878
0.00563656
0.00586153
0.00796428
0.00379365
0.00795173
0.0216845
0.00608251
0.00718188
0.00927345
0.00498882
0.00139849
0.00169433
0.0329221
0.0142199
0.0307361
0.0148759
0.0171022
0.0081617
0.0155836
0.00789433
0.0134817
0.0255317
0.00946434
0.0237124
0.999999
0.999999
1
1
1
1
1
1
1.00001
1.00001
1.00001
1.00001
1
1.00001
1
1
1.00001
1
1.00001
1.00001
1.00001
1.00001
1.00002
1.00001
1.00001
1
1.00002
1.00002
1.00001
1
1.00002
1.00001
1.12674e-39
2.61216e-14
1.26568e-09
3.66261e-07
3.4386e-06
1.02511e-08
1.88917e-07
2.18788e-05
5.18476e-05
2.31585e-06
1.35037e-05
0.0079196
0.0133204
0.00272934
0.00257264
0.00230365
0.00203736
0.00864542
0.0134953
0.00314579
0.00521459
0.00314829
0.00341413
0.000277078
0.000236203
0.000582531
0.000420944
0.000399247
0.000414382
0.000935872
0.000681468
1
1
1
1
1.00001
1.00001
1.00001
1.00001
1.00001
1.00001
1
1
1.00001
1
1
1
1.00001
1.00001
1.00001
1.00001
1.00001
1.00001
1
1
1
1
1.00001
1.00001
1.00001
1.00001
1.00001
1
1.00002
1.00001
7.24372e-20
6.23333e-13
8.36819e-10
1.12278e-08
8.5022e-08
1.56115e-11
1.36745e-09
2.41202e-05
2.09429e-05
1.56848e-05
1.15565e-05
5.05809e-05
9.776e-07
5.62914e-05
6.71881e-05
1.05481e-05
1.01023e-05
3.32485e-05
6.8973e-06
9.82377e-07
1.01739e-06
0.000322766
0.000453687
0.000575499
0.00104785
0.000102758
6.24499e-05
0.000207394
0.000176497
1
1
1
1
1
1
1
1.00001
1.00001
1.00001
1.00001
1.00001
1.00001
1
1
1
1.00001
1.00001
1.00001
1.00001
1.00001
1.00001
1.00001
1
1
1
1
1.00001
1.00001
1
1
-1.28018e-31
6.89268e-14
6.61602e-12
1.00284e-11
1.93972e-10
1.02354e-13
1.55756e-12
2.30382e-05
6.52563e-05
1.05647e-05
2.97504e-05
5.22861e-05
2.84236e-06
2.14128e-05
6.89512e-05
1.81636e-06
9.18118e-06
1.70823e-05
1.21309e-06
4.29503e-26
-1.38617e-24
9.33912e-07
5.9574e-07
-4.61013e-25
-1.22658e-25
3.48928e-09
2.08117e-08
1.98942e-05
6.5527e-05
3.31166e-05
0.000114182
1
1
1
1
1.00001
1.00001
1.00001
1.00001
1.00001
1.00001
1.00001
1.00001
1.00001
1.00001
1.00001
1.00001
1.00001
1.00001
1.00001
1.00001
1.00001
1
1
1
1
1.00001
1
1.00001
1.00001
-2.12664e-34
1.41084e-17
-5.45402e-31
8.81608e-31
1.09087e-30
-1.71941e-30
1.79444e-23
1.28052e-23
3.09751e-13
2.36634e-13
4.53937e-10
7.91725e-14
5.41342e-28
2.22359e-11
5.14301e-05
9.45936e-05
1.75812e-05
8.19433e-05
6.85059e-05
2.94162e-05
3.07432e-05
6.46432e-05
1.63659e-06
2.01895e-05
1.27296e-05
2.79221e-06
4.96221e-08
2.20412e-07
5.21983e-09
1.09004e-08
1
1
1.00001
1
1.00001
1.00001
1.00001
1.00001
1.00001
1.00001
1.00001
1.00001
1.00001
1.00001
1.00001
1.00001
1.00001
1.00001
1.00001
1
1
1.00001
1.00001
1.00001
1.00001
1.00001
1.00001
1
1
1.00001
1
-7.05344e-37
3.82838e-22
1.61008e-30
2.7156e-44
6.83132e-30
1.32089e-29
3.97394e-40
-3.2219e-41
7.52646e-31
3.47469e-14
6.51857e-11
3.45537e-14
2.13296e-11
-3.58044e-48
-6.8126e-32
-9.13148e-48
2.1063e-14
-9.0068e-32
6.64998e-13
2.95383e-14
1.50727e-12
1.4674e-49
3.53802e-32
1.21264e-46
7.53888e-06
1.99327e-05
5.29654e-07
1.45173e-06
1.38176e-10
4.39362e-09
3.28402e-09
6.07385e-10
0.999999
1
1
1.00001
1.00001
0.999999
1
1.00001
1.00001
1.00001
1.00001
1.00001
1.00001
1.00001
1.00001
1.00001
1.00001
1.00001
1.00001
1.00001
1.00001
1.00001
1.00001
1.00001
1.00001
1.00001
1.00001
1.00001
1.00001
1.00001
-2.63092e-39
1.13754e-41
6.25452e-28
6.50441e-29
7.57578e-31
1.27725e-24
1.72391e-28
3.47978e-28
3.45125e-30
1.44418e-25
4.8278e-27
1.42779e-27
2.02711e-15
7.37866e-32
2.47763e-14
5.73469e-09
1.86945e-17
1.76852e-29
2.72808e-12
2.88733e-09
6.71951e-31
9.57895e-11
1.6559e-14
4.91022e-29
1.27142e-06
6.21812e-06
5.27795e-08
2.93785e-07
0.999998
0.999996
0.999999
1.00001
1.00001
1
1
1.00001
1.00001
1.00001
1.00001
1.00001
1.00001
1.00001
1.00001
1.00001
1.00001
1.00001
1.00001
1.00001
1.00001
1.00001
1.00001
1.00001
1.00001
1.00001
1.00001
1
1.00001
1.00001
1.00001
1.00001
1.06675e-41
9.08151e-29
3.49587e-24
2.33951e-25
1.91222e-30
1.07032e-39
1.3242e-39
-1.24851e-41
1.26707e-27
3.78049e-28
4.12064e-28
8.02033e-29
-1.11169e-42
1.2116e-28
2.81169e-26
3.05444e-22
1.00398e-24
2.60813e-25
-3.20929e-43
2.85012e-27
4.18549e-28
4.59854e-28
1.03481e-28
-1.91267e-44
2.76544e-29
1.08409e-26
1.04442e-23
1.35214e-25
1.00251e-25
-4.88066e-33
1.70785e-45
1.66852e-45
1.21092e-27
1.45688e-29
6.8802e-29
-3.33584e-33
2.8018e-27
0.999997
0.999993
0.999997
1
1.00001
1.00001
1.00001
1.00001
1.00001
0.999997
0.999999
1
1.00001
1.00001
1.00001
1
1
1.00001
1.00001
1.00001
1.00001
1.00001
1.00001
1.00001
1.00001
1
1.00001
1.00001
6.24702e-62
2.81193e-22
7.4183e-29
9.66215e-24
9.33895e-31
1.24995e-39
1.71126e-39
1.55586e-44
1.1641e-28
1.27752e-26
-1.83784e-45
1.23274e-24
3.85577e-25
4.04555e-22
2.3431e-22
4.55306e-21
5.60906e-23
9.80375e-25
1.77825e-20
7.64553e-23
5.40638e-22
2.40032e-28
2.55189e-29
7.32154e-45
2.33828e-28
3.31093e-25
2.52788e-25
1.48798e-23
1.55597e-24
2.20483e-22
1.22808e-24
1.12905e-24
4.38354e-22
1.55552e-24
1.85483e-23
0.999997
0.999998
0.999993
0.999998
0.999993
0.999988
0.999987
1
1
1
1
1.00001
1
0.999992
0.999999
1
1.00001
1.00001
1.00001
1.00001
1
1
1
0.999997
0.999999
1
1
1
1
1.00001
1.00001
1
1.00001
1.00001
1.00001
1.00001
1.00001
-7.95748e-65
1.93376e-21
1.07913e-20
6.96789e-23
5.00932e-58
6.24806e-23
2.34499e-22
3.49726e-24
2.22081e-57
1.52509e-39
2.24546e-39
1.15988e-25
1.94725e-25
8.6772e-24
8.31141e-25
1.10441e-19
1.50257e-19
2.27523e-25
6.98402e-25
2.11787e-19
3.09007e-19
1.35267e-25
1.0006e-25
1.17521e-24
8.48308e-25
1.7716e-21
2.26313e-25
4.22629e-22
3.71037e-24
7.95472e-21
8.66235e-21
0.999998
0.999997
0.999994
0.999998
0.999986
0.999984
0.999984
1
0.999995
1
0.999998
0.999987
0.999997
1.00001
1
1.00001
0.999999
0.999998
0.999998
1
0.999997
1
0.999987
0.999998
1
1
1
1
0.999999
1
0.999999
0.999999
1
1
1
-4.42144e-67
3.06369e-57
9.9819e-56
3.72582e-22
5.92761e-20
4.58541e-22
7.45614e-20
3.9285e-22
-1.74335e-75
1.80004e-23
1.62389e-21
2.33928e-23
2.55824e-21
1.99325e-23
2.63024e-43
2.26313e-25
2.79746e-18
2.01049e-18
9.22893e-22
1.81283e-18
1.45476e-18
2.27523e-25
8.73511e-20
2.74875e-20
2.26313e-25
7.72385e-20
6.13583e-20
0.999998
0.999993
0.999972
1
1
0.999979
1
1
0.999986
0.999986
0.999992
0.999995
0.999994
0.999987
0.999994
0.999998
0.999995
0.999994
0.999994
1
1
0.99999
1
0.999999
1
1
1
0.999996
0.999998
1
1
-2.59952e-69
1.71657e-55
2.35805e-75
3.2446e-51
2.6874e-50
1.68737e-28
2.30566e-40
1.04537e-22
2.12478e-20
1.12829e-22
3.31887e-18
1.98353e-18
-1.10711e-57
3.73468e-29
4.65879e-41
7.13501e-24
9.56736e-22
7.56762e-24
2.35175e-19
1.17852e-19
1.08414e-42
1.90687e-17
7.53482e-18
1.64415e-18
5.48762e-19
1
0.999993
0.999989
0.999972
0.999996
0.999991
0.999994
0.999994
0.999993
1
1
1
1
0.999994
0.999994
1
1
0.999999
1
1
1
1
1
1
1
1
1
8.52475e-43
-1.58666e-61
4.14904e-56
2.37193e-51
1.75138e-54
-5.7647e-54
1.6841e-44
2.01975e-28
1.87164e-28
1.43432e-28
1.50586e-26
2.71813e-27
2.48215e-24
1.23787e-18
7.32729e-19
5.11236e-24
3.17278e-17
1.11512e-17
1.98725e-29
-8.28624e-61
1.29949e-47
1.51395e-27
-1.89794e-47
2.44474e-24
2.5086e-19
6.69304e-20
4.21415e-26
8.64528e-18
1.46497e-18
1
0.999997
0.999998
0.999994
0.999984
0.999985
1
1
1
1
0.999998
0.999999
0.999992
1
1
1
1
1
1
0.999989
0.99999
1
1
1
1
3.17891e-37
2.61773e-61
5.22533e-44
5.56777e-61
5.30139e-44
-5.60659e-51
-2.83601e-51
4.20979e-46
2.30252e-50
1.52472e-29
2.26004e-30
1.05302e-27
9.97491e-29
5.51815e-27
1.0166e-28
3.00377e-27
1.31566e-25
7.95038e-26
9.68972e-27
4.96943e-25
1.24033e-17
5.56862e-18
4.97863e-25
3.28832e-28
7.63073e-30
6.75531e-28
8.32796e-30
-7.24318e-45
1.432e-26
1.1266e-26
3.47133e-27
1.87842e-27
1.48755e-17
1.64086e-18
2.04223e-27
1
1
1
0.999993
0.999998
0.999973
0.999973
0.999998
1
1
1
1
1
0.999999
1
1
1
1
0.999998
1
1
1
1
1
1
1
1
1
1
1.77496e-31
1.22992e-55
-5.669e-56
5.83951e-55
-5.40901e-57
-6.25329e-52
-1.12416e-61
3.78611e-69
-1.23415e-62
1.02327e-30
3.42891e-32
1.45661e-31
1.30475e-33
1.09892e-28
6.32674e-30
1.54241e-30
1.04952e-29
5.04448e-29
1.6133e-30
1.58259e-30
1.41465e-30
4.33949e-27
2.18116e-26
4.00619e-26
2.62736e-28
2.21101e-27
2.59041e-27
8.39412e-27
3.13635e-29
1
1
1
0.999999
0.999985
0.999982
0.999992
0.999983
0.999991
0.999979
0.99998
1
1
1
1
1
1
1
1
1
1
1
1
1
1
1
1
1
1
1
1
1
1
1
1
2.24646e-25
7.10695e-25
-5.01423e-54
3.051e-42
-3.91092e-55
1.47892e-42
2.9969e-35
2.84778e-31
2.70185e-37
9.35943e-34
8.66064e-30
4.12676e-31
1.66889e-29
4.08948e-31
1.4622e-30
1.86228e-32
3.30912e-32
4.03273e-32
1.41154e-30
1.09195e-31
3.99264e-30
7.50324e-32
8.01557e-32
1.1475e-50
8.40843e-35
2.40656e-33
6.08852e-29
2.89537e-30
1.58379e-29
5.0831e-30
1.03593e-28
9.67079e-31
2.63143e-30
7.31079e-31
0.999993
1
1
0.999979
0.999986
1
0.999988
0.999998
0.999983
0.999984
0.999997
0.99999
0.999998
1
0.999999
1
0.999999
1
1
1
1
1
1
1
1
1
1
1
0.999999
1.01076e-18
4.75121e-37
7.28765e-27
4.71859e-36
7.27802e-27
2.1501e-19
3.27484e-28
5.10749e-29
1.51696e-29
1.76794e-30
2.37966e-35
3.44874e-34
9.23658e-35
1.46603e-35
3.23956e-31
6.60631e-32
3.02493e-29
9.96594e-49
3.80367e-37
1.26221e-37
1.67758e-37
1.92332e-53
8.41744e-34
3.99356e-52
1.49845e-31
3.00447e-53
2.03111e-29
2.79192e-30
5.56782e-29
5.79211e-31
3.61535e-30
6.15117e-33
1.61484e-31
3.58858e-32
4.70768e-30
7.97834e-32
1.27837e-29
2.94615e-32
3.73838e-31
4.32625e-50
4.3411e-33
1.43108e-33
0.999994
0.999975
0.999975
0.999983
0.999958
0.999976
0.999983
0.999965
0.999981
0.999981
1
1
1
1
1
0.999999
1
1
1
1
1
1
1
0.999999
1
0.999999
0.999999
1
1
0.999999
0.999998
0.999996
0.999999
0.999997
6.82246e-14
-4.16119e-37
2.18767e-20
-6.9401e-37
2.01835e-20
1.39714e-27
3.28267e-29
3.82941e-29
1.99541e-29
5.95688e-14
2.34048e-26
1.14578e-28
1.75058e-27
1.00807e-28
3.98715e-27
8.03096e-30
1.0913e-32
1.55636e-29
1.21212e-27
5.23806e-30
1.19139e-28
4.91509e-30
1.77564e-28
1.48751e-31
1.08404e-32
6.46627e-31
-1.36034e-49
9.6892e-35
1.08543e-33
2.22873e-36
2.93025e-30
1.43104e-32
1.07603e-27
2.48519e-54
-7.21371e-51
2.98661e-38
1.61145e-35
0
1.45032e-31
-2.79739e-52
1.23785e-29
1.58874e-58
0.999997
0.999977
0.99998
0.999994
0.999975
0.999985
0.999962
0.999993
0.999962
0.999991
1
1
1
1
1
1
1
1
1
1
1
1
1
1
1
1
1
1
1
1
0.999998
0.999994
0.999999
0.999997
1
1
1
1
0.999997
0.999993
0.999998
0.999995
4.78076e-11
3.74087e-10
-2.54127e-32
-2.39199e-30
-1.50128e-31
1.53951e-29
2.21775e-27
6.90395e-29
1.31346e-25
5.10487e-28
5.46917e-27
1.84471e-26
-1.9465e-46
1.37304e-47
1.08463e-30
2.36058e-29
1.32783e-29
4.29198e-30
3.37851e-27
1.29914e-29
1.60108e-28
1.23228e-27
-1.63872e-47
1.2542e-48
4.42415e-47
8.00496e-31
5.10564e-11
4.98613e-25
1.24536e-29
6.24866e-26
1.47859e-30
1.77388e-25
1.0716e-30
6.893e-27
6.26857e-31
8.38346e-28
3.94285e-31
6.23595e-27
7.12982e-32
-5.06657e-47
-1.50632e-44
3.17657e-27
-1.26693e-46
2.96846e-30
2.59655e-36
7.15202e-29
-6.91768e-54
0.999999
0.999983
0.999986
0.999981
0.999979
0.999976
1
0.999998
0.999988
0.999996
0.99998
0.999967
0.999977
0.999975
1
1
1
1
1
1
1
0.999999
1
1
1
1
1
1
1
1
1
0.999995
1
0.999997
1
0.999998
1
0.999998
1
1
1
1
1.6795e-08
-1.70643e-29
2.91658e-12
2.38879e-29
2.89783e-12
2.34477e-08
-1.22445e-33
-1.65188e-31
-1.05355e-32
-7.62052e-31
1.50445e-25
3.9275e-42
7.33208e-25
2.8205e-25
6.54391e-29
7.30811e-27
-1.64827e-34
1.87558e-46
3.78571e-31
7.5836e-29
6.60148e-31
2.53266e-30
1.69912e-26
2.00196e-27
2.16272e-30
1.37489e-28
-1.14551e-33
2.86152e-33
1.57294e-31
3.60948e-30
1.32836e-09
2.09203e-24
6.61505e-26
2.78556e-25
1.67487e-24
2.1277e-24
2.27992e-24
1.30076e-27
6.50555e-39
1.73047e-28
6.73717e-39
4.03725e-26
6.98225e-39
1
0.999994
0.999977
0.999993
0.999989
0.999989
0.999984
0.999997
0.999998
1
0.999986
0.999998
1
0.999998
1
0.999998
1
0.999995
0.99999
1
0.999989
0.999998
1
0.999998
1
0.999997
1
0.999995
0.999988
0.999993
0.999994
1
0.999998
1
1
1
0.999998
1
0.999999
1
1
1
1
1
1
1
1
3.4217e-07
1.13175e-11
1.51987e-08
1.4305e-11
1.6313e-08
1.19571e-15
3.72368e-12
1.22974e-15
4.87542e-12
7.98469e-08
-1.92539e-34
-4.52413e-34
-6.34363e-35
-1.1462e-33
-8.93123e-33
9.41661e-34
-7.90145e-34
-3.82656e-32
-5.26783e-34
-2.93235e-33
-1.96343e-34
-4.40385e-33
-1.64437e-32
-2.45486e-33
-1.20642e-33
-1.39117e-31
-1.91531e-43
2.11362e-24
-1.0898e-34
-1.59436e-36
-1.60302e-47
-3.65682e-46
3.05698e-31
7.38663e-27
-5.92287e-34
2.89108e-51
-1.1967e-48
-8.99931e-49
1.49502e-11
1
1
0.999979
0.999988
0.999984
0.999984
0.999971
1
1
1
1
1
0.999994
1
1
0.999984
0.999992
0.999986
0.999999
0.999984
0.999997
0.999978
0.999973
0.999997
0.999999
0.999973
0.999992
0.999984
0.999998
0.999978
0.999996
1
1
1
1
1
1
1
1
1
0.999999
1
0.999994
4.4221e-07
7.35355e-07
8.08525e-10
2.47136e-08
1.09947e-09
3.03414e-08
5.84855e-33
-4.5518e-33
1.0757e-36
6.06255e-16
2.93469e-17
-2.7234e-34
4.91995e-14
1.02208e-15
1.4295e-29
7.65849e-36
1.34056e-34
-6.1151e-33
-1.56309e-36
6.14279e-16
2.67935e-17
-9.16829e-35
-1.26124e-28
5.40725e-16
-5.80261e-30
1.71038e-36
1.04896e-08
-1.7977e-34
-3.68964e-34
-6.5119e-35
-7.92043e-34
-2.87948e-33
-1.59173e-32
-4.10625e-34
-1.76101e-33
-2.30536e-34
-2.51523e-33
-4.91698e-33
-2.97173e-32
8.16413e-13
1
1
0.999992
0.999962
0.999994
0.999966
0.999989
1
0.999989
1
0.999979
1
0.999997
1
1
1
1
1
1
1
0.999997
0.999999
1
1
0.999999
1
1
1
1
0.999997
0.999998
0.999997
0.999994
0.999973
0.999995
0.999995
0.999998
0.999988
0.999993
1.12009e-05
2.57468e-07
2.07226e-07
1.994e-07
2.03204e-07
4.08334e-07
2.10503e-11
4.82052e-09
5.4172e-11
8.81724e-09
2.47547e-27
3.81336e-17
1.82363e-30
2.95994e-18
1.82066e-16
1.66001e-17
-7.02702e-29
-2.90073e-36
7.48865e-28
5.31393e-19
1.27935e-27
3.28954e-17
3.47997e-29
2.41566e-18
1.7061e-16
1.57134e-17
-8.7869e-30
2.67218e-37
2.48923e-27
5.69718e-19
5.95036e-10
-1.32145e-33
3.17456e-48
-1.96329e-33
1.90224e-47
2.78252e-14
1
1
0.999999
0.999994
0.999952
0.999969
0.999951
0.999971
1
1
1
1
1
1
1
1
1
1
0.999998
0.999998
1
1
1
1
1
1
1
1
1
0.999997
0.999999
1
1
1
1
0.999999
0.999997
1
1
1
0.000209383
5.67967e-06
2.72379e-06
0.000112427
1.53704e-06
9.58649e-05
3.90118e-08
-1.62064e-29
4.26093e-29
2.13088e-14
1.58987e-26
7.34472e-09
2.65071e-31
-8.82434e-29
1.8012e-14
-7.86659e-29
5.38058e-09
5.88076e-18
1.05199e-18
-3.70587e-30
1.1466e-34
7.5324e-44
2.4164e-21
1.85409e-18
7.72899e-19
-2.47893e-30
1.06501e-38
2.92982e-44
5.11281e-21
1.62776e-11
1.56004e-17
1
1
1
0.999999
0.999977
1
0.999977
0.999997
1
1
0.999999
1
1
1
1
1
1
1
1
1
1
1
0.999998
0.999998
1
1
0.999998
1
0.999998
1
0.999998
1
1
1
1
0.999999
4.84593e-05
0.00132482
0.000282306
0.00138067
0.000263886
7.51623e-07
7.45871e-05
0.00113799
6.51238e-05
0.00110202
2.11317e-09
1.0067e-11
1.12432e-11
3.63895e-12
1.55894e-10
1.19746e-22
1.75771e-07
1.30927e-08
4.41925e-08
6.85164e-29
8.22995e-13
2.57718e-13
1.0832e-26
5.60809e-23
3.7703e-08
3.77004e-09
6.27881e-09
-7.33166e-30
1.3318e-34
-3.67635e-31
-5.5136e-34
1.64153e-14
2.14851e-23
1
1
1
1
0.99999
0.999991
1
0.999988
1
1
1
1
0.999999
0.999974
0.999999
1
1
0.999997
0.999974
1
1
1
1
1
1
1
1
1
1
1
1
1.22178e-06
1.23216e-06
0.00460608
0.000212991
0.00454108
0.000180907
9.35697e-08
0.000893369
2.8312e-05
8.22178e-07
0.00114605
3.11652e-22
7.38709e-07
0.00532627
1.99046e-22
4.84993e-07
0.000862822
2.88477e-05
8.05127e-07
0.0011498
0.00538648
1.39483e-11
3.27945e-10
4.12904e-10
4.71433e-11
5.9362e-09
5.79227e-08
2.6479e-07
8.36244e-11
5.53986e-11
6.73338e-12
1.23801e-09
1.40606e-08
7.30966e-08
1.103e-19
9.09805e-24
1
1
1
1
0.999997
0.999977
0.999997
0.999977
0.999997
1
1
1
0.999998
1
1
1
1
1
1
1
1
1
1
1
1
1
1
1
1
1
1
1
1
0.000106636
3.08695e-24
6.75007e-20
-1.50715e-24
-1.39964e-19
5.31359e-07
0.010357
0.000551666
0.00969849
0.000501434
1.43068e-08