/*--------------------------------*- C++ -*----------------------------------*\
| =========                 |                                                 |
| \\      /  F ield         | OpenFOAM: The Open Source CFD Toolbox           |
|  \\    /   O peration     | Version:  5.x                                   |
|   \\  /    A nd           | Web:      www.OpenFOAM.org                      |
|    \\/     M anipulation  |                                                 |
\*---------------------------------------------------------------------------*/
FoamFile
{
    version     2.0;
    format      ascii;
    class       surfaceScalarField;
    location    "0.5";
    object      alphaPhi10;
}
// * * * * * * * * * * * * * * * * * * * * * * * * * * * * * * * * * * * * * //

dimensions      [0 3 -1 0 0 0 0];

internalField   nonuniform List<scalar> 
30582
(
0.000292789
4.71646e-06
0.000277299
1.54898e-05
0.000292099
1.01582e-05
0.000251376
2.59228e-05
0.000276872
3.07158e-05
0.000292031
1.57442e-05
0.000224072
2.73042e-05
0.000251734
5.10611e-05
0.000278176
4.45707e-05
0.000288254
2.52169e-05
0.000192308
3.17643e-05
0.000224406
5.46321e-05
0.000254286
7.49506e-05
0.000275185
5.76398e-05
0.000287194
3.58914e-05
0.000161218
3.10893e-05
0.000192463
6.37074e-05
0.000225763
8.31555e-05
0.000254206
9.59298e-05
0.00027777
6.7064e-05
0.000276382
5.75657e-05
0.000131742
2.94762e-05
0.000161004
6.25489e-05
0.000192913
9.65576e-05
0.000225823
0.000111538
0.000260018
0.000113682
0.000270334
7.31123e-05
0.000274351
8.14916e-05
0.000105719
2.60229e-05
0.000131241
5.9239e-05
0.00016055
9.49115e-05
0.00019265
0.000129731
0.000229945
0.000141611
0.000259075
0.00012494
0.000276962
7.05007e-05
0.000243086
0.000136934
8.35869e-05
2.21324e-05
0.000105055
5.22092e-05
0.000130174
8.9615e-05
0.00015932
0.000128242
0.000194683
0.000164993
0.000229454
0.000171232
0.000269572
0.00013233
0.00026019
5.33968e-05
0.000142829
-9.14957e-06
6.53501e-05
1.82369e-05
8.28709e-05
4.43161e-05
0.000103646
7.87374e-05
0.000128255
0.00012068
0.000158942
0.000163983
0.000193384
0.000201063
0.000237057
0.000203748
0.000268993
0.000123527
0.000211002
-8.7124e-06
2.10534e-06
-3.10826e-08
5.06691e-05
1.4681e-05
6.46602e-05
3.64476e-05
8.13771e-05
6.65849e-05
0.000101361
0.000105631
0.000126398
0.000153224
0.000155735
0.000201632
0.000196448
0.000241671
0.000241061
0.00023168
0.000227618
2.86745e-05
3.84024e-05
-6.86361e-07
1.3434e-08
-2.58333e-11
3.90437e-05
1.16254e-05
5.00456e-05
2.92955e-05
6.32365e-05
5.45882e-05
7.90406e-05
8.89053e-05
9.87262e-05
0.000133303
0.000122041
0.000186918
0.000154763
0.000243317
0.000197569
0.000285164
0.000191946
6.72915e-05
5.63052e-05
-3.51541e-07
1.96707e-07
-4.01442e-10
4.19521e-12
-1.01447e-15
2.99487e-05
9.09498e-06
3.85037e-05
2.31673e-05
4.87695e-05
4.37625e-05
6.10483e-05
7.25805e-05
7.61884e-05
0.000111443
9.4011e-05
0.000161333
0.000118792
0.000222889
0.000151386
0.0002895
0.000142877
6.78478e-05
5.18816e-05
2.03161e-06
5.38047e-07
-6.45847e-10
-1.90361e-11
-8.57873e-15
1.00405e-17
-2.88765e-20
2.2895e-05
7.05372e-06
2.94948e-05
1.81039e-05
3.74057e-05
3.45311e-05
4.6828e-05
5.79829e-05
5.83087e-05
9.04602e-05
7.16064e-05
0.000133848
9.00266e-05
0.000190099
0.000112642
0.000261633
9.73593e-05
5.02511e-05
2.74596e-05
2.14751e-06
7.36646e-07
2.74882e-09
-1.76933e-10
-2.2919e-14
-7.47242e-16
-1.25616e-19
3.72825e-22
-7.0481e-25
1.74552e-05
5.43981e-06
2.25217e-05
1.40268e-05
2.85766e-05
2.6933e-05
3.5746e-05
4.5613e-05
4.43661e-05
7.19255e-05
5.41619e-05
0.000107905
6.7592e-05
0.000156282
8.27344e-05
0.000220006
6.73291e-05
2.9368e-05
1.19927e-05
9.29149e-07
2.03419e-07
5.85264e-09
-1.14309e-10
2.94493e-13
-1.59953e-14
-3.43689e-19
-6.61594e-21
-1.89516e-24
4.51717e-27
1.32716e-05
4.18358e-06
1.7153e-05
1.08085e-05
2.17694e-05
2.08341e-05
2.71946e-05
3.54844e-05
3.36264e-05
5.63527e-05
4.07776e-05
8.53097e-05
5.04987e-05
0.000124998
6.01245e-05
0.000178892
4.62909e-05
1.54306e-05
4.55914e-06
2.61269e-07
2.59826e-08
1.14448e-09
-7.63239e-12
5.59184e-13
-1.0365e-14
7.68332e-18
-2.15145e-19
-5.0705e-24
-3.21301e-26
1.00544e-05
3.2172e-06
1.303e-05
8.30658e-06
1.6546e-05
1.60319e-05
2.06405e-05
2.73882e-05
2.5422e-05
4.36888e-05
3.06171e-05
6.65133e-05
3.76069e-05
9.82014e-05
4.34944e-05
0.000141628
3.23754e-05
7.41588e-06
1.59603e-06
6.17532e-08
3.10875e-09
1.0923e-10
5.3852e-13
4.68936e-14
-4.51119e-16
1.22997e-17
-1.42784e-19
1.81232e-22
-1.3193e-24
7.57351e-06
2.48093e-06
9.86371e-06
6.3835e-06
1.25465e-05
1.2306e-05
1.56375e-05
2.10349e-05
1.91887e-05
3.36215e-05
2.29542e-05
5.13518e-05
2.79611e-05
7.61592e-05
3.13924e-05
0.000110303
2.27399e-05
3.40343e-06
4.99567e-07
1.28911e-08
4.03457e-10
8.53332e-12
6.89322e-14
3.07154e-15
-2.73287e-18
1.12359e-18
-6.93754e-21
2.62346e-22
-9.02875e-25
5.64613e-06
1.92739e-06
7.4251e-06
4.91954e-06
9.48352e-06
9.4465e-06
1.18243e-05
1.61192e-05
1.44671e-05
2.57565e-05
1.71983e-05
3.93774e-05
2.07769e-05
5.85359e-05
2.26579e-05
8.48937e-05
1.60931e-05
1.50209e-06
1.46395e-07
2.45982e-09
5.24108e-11
5.82598e-13
5.02175e-15
1.88366e-16
7.31215e-19
7.58519e-20
-3.74587e-23
2.81774e-23
-4.80592e-26
4.12977e-06
1.51636e-06
5.53286e-06
3.81963e-06
7.12996e-06
7.2731e-06
8.91609e-06
1.23547e-05
1.08931e-05
1.96932e-05
1.28821e-05
3.00727e-05
1.54408e-05
4.47135e-05
1.63776e-05
6.48161e-05
1.14549e-05
6.49344e-07
4.08408e-08
4.36493e-10
6.95445e-12
5.3113e-14
4.41429e-16
1.07095e-17
5.73136e-20
3.82206e-21
9.1387e-24
1.7252e-24
-4.18493e-29
2.91023e-06
1.21954e-06
4.04525e-06
3.00397e-06
5.30741e-06
5.64218e-06
6.68948e-06
9.49971e-06
8.1839e-06
1.50639e-05
9.64428e-06
2.29311e-05
1.148e-05
3.40334e-05
1.18673e-05
4.92238e-05
8.19346e-06
2.77733e-07
1.11789e-08
7.49142e-11
9.22193e-13
6.92133e-15
6.01311e-17
9.62177e-19
5.03892e-21
2.00742e-22
6.16403e-25
7.42569e-26
6.31995e-29
1.89708e-06
1.01314e-06
2.84972e-06
2.41508e-06
3.87699e-06
4.43439e-06
4.97109e-06
7.36058e-06
6.12105e-06
1.15626e-05
7.20967e-06
1.74985e-05
8.53671e-06
2.58744e-05
8.62323e-06
3.72775e-05
5.88092e-06
1.18769e-07
3.10274e-09
1.26835e-11
1.24897e-13
8.6794e-16
6.98827e-18
9.45031e-20
5.50963e-22
1.54044e-23
4.81025e-26
3.68886e-27
3.63474e-30
1.01654e-06
8.80544e-07
1.85746e-06
2.0054e-06
2.72959e-06
3.56248e-06
3.62655e-06
5.77893e-06
4.53699e-06
8.94464e-06
5.36937e-06
1.34029e-05
6.34309e-06
1.96922e-05
6.28209e-06
2.82155e-05
4.23045e-06
5.12513e-08
8.9699e-10
2.19775e-12
1.77324e-14
1.09514e-16
7.41925e-19
8.91725e-21
4.61019e-23
1.13799e-24
3.77163e-27
2.25149e-28
2.35972e-31
2.08132e-07
8.08406e-07
9.96093e-07
1.7419e-06
1.77925e-06
2.95573e-06
2.55148e-06
4.63754e-06
3.30334e-06
7.01258e-06
3.96585e-06
1.03482e-05
4.69885e-06
1.50471e-05
4.58368e-06
2.13906e-05
3.04422e-06
2.26188e-08
2.72877e-10
4.35694e-13
3.18613e-15
1.55275e-17
9.08251e-20
8.83788e-22
3.89217e-24
8.22354e-26
2.35709e-28
1.26868e-29
1.31351e-32
-5.81006e-07
7.89138e-07
2.06142e-07
1.59836e-06
9.56024e-07
2.56514e-06
1.66385e-06
3.84336e-06
2.3217e-06
5.61918e-06
2.87985e-06
8.09858e-06
3.45504e-06
1.1592e-05
3.34283e-06
1.62879e-05
2.18732e-06
1.03636e-08
8.7651e-11
1.48333e-13
8.05151e-16
3.17606e-18
1.54128e-20
1.11262e-22
4.18737e-25
6.7071e-27
1.64103e-29
7.22327e-31
6.38005e-34
-1.39849e-06
8.17483e-07
-5.64698e-07
1.55998e-06
2.02247e-07
2.35213e-06
8.97197e-07
3.33179e-06
1.51505e-06
4.65001e-06
2.02138e-06
6.47765e-06
2.50025e-06
9.05337e-06
2.42596e-06
1.25089e-05
1.56374e-06
5.06565e-09
2.96844e-11
5.49863e-14
2.25734e-16
8.61588e-19
3.36745e-21
2.01423e-23
6.22514e-26
7.49063e-28
1.54857e-30
4.97795e-32
3.74002e-35
-2.29046e-06
8.91971e-07
-1.3634e-06
1.61618e-06
-5.32811e-07
2.29504e-06
1.96631e-07
3.0527e-06
8.21364e-07
4.02548e-06
1.32047e-06
5.35091e-06
1.75165e-06
7.22625e-06
1.73818e-06
9.74114e-06
1.10718e-06
2.70873e-09
1.04976e-11
2.32436e-14
6.27882e-17
2.66014e-19
7.73526e-22
4.42486e-24
1.09296e-26
1.11743e-28
1.92589e-31
4.74841e-33
3.00952e-36
-3.30317e-06
1.01271e-06
-2.23547e-06
1.76404e-06
-1.2947e-06
2.37807e-06
-4.85804e-07
2.97747e-06
1.89428e-07
3.68464e-06
7.2124e-07
4.62471e-06
1.14607e-06
5.95649e-06
1.21176e-06
7.75267e-06
7.69269e-07
1.63222e-09
3.75427e-12
1.1449e-14
1.78055e-17
9.94838e-20
1.9427e-22
1.15411e-24
2.09344e-27
2.00955e-29
2.71851e-32
5.70921e-34
3.02512e-37
-4.48435e-06
1.18118e-06
-3.22627e-06
2.00351e-06
-2.12723e-06
2.59657e-06
-1.19326e-06
3.08553e-06
-4.24942e-07
3.59184e-06
1.77618e-07
4.22826e-06
6.32592e-07
5.13819e-06
7.97051e-07
6.37119e-06
5.1792e-07
1.09502e-09
1.31733e-12
6.79735e-15
4.09123e-18
4.5304e-20
5.34529e-23
3.85078e-25
4.6654e-28
4.46645e-30
4.45097e-33
8.45754e-35
3.46109e-38
-5.88402e-06
1.39967e-06
-4.38242e-06
2.33733e-06
-3.07385e-06
2.95014e-06
-1.9669e-06
3.37021e-06
-1.06187e-06
3.72245e-06
-3.49459e-07
4.11892e-06
1.69826e-07
4.69102e-06
4.5207e-07
5.48317e-06
3.28538e-07
8.12589e-10
3.93253e-13
4.70668e-15
-4.51624e-19
2.62792e-20
1.4032e-23
1.61354e-25
1.19783e-28
1.33219e-30
8.91584e-34
1.60851e-35
4.84343e-39
-7.5554e-06
1.67138e-06
-5.75284e-06
2.77009e-06
-4.17929e-06
3.44276e-06
-2.84771e-06
3.83095e-06
-1.75911e-06
4.06745e-06
-8.95761e-07
4.26876e-06
-2.77101e-07
4.56585e-06
1.45972e-07
4.99712e-06
1.81431e-07
6.57738e-10
5.72274e-14
3.7339e-15
-1.8964e-18
1.82531e-20
1.75046e-24
9.01497e-26
3.01343e-29
5.11379e-31
2.12396e-34
4.28607e-36
8.63625e-40
-9.55581e-06
2.00042e-06
-7.39004e-06
3.30858e-06
-5.49085e-06
4.08166e-06
-3.87797e-06
4.47302e-06
-2.5544e-06
4.62624e-06
-1.49448e-06
4.66617e-06
-7.40029e-07
4.73169e-06
-1.46245e-07
4.85806e-06
5.85909e-08
5.80574e-10
-3.50278e-14
3.22907e-15
-2.00461e-18
1.48621e-20
-2.48142e-24
6.15326e-26
4.135e-30
2.7217e-31
5.14775e-35
1.50171e-36
1.90065e-40
-1.19473e-05
2.39149e-06
-9.35096e-06
3.96134e-06
-7.05982e-06
4.87756e-06
-5.10275e-06
5.30644e-06
-3.48703e-06
5.40565e-06
-2.17915e-06
5.31091e-06
-1.2484e-06
5.17454e-06
-4.4834e-07
5.03378e-06
-5.71396e-08
5.58401e-10
-3.05599e-14
2.98751e-15
-1.4459e-18
1.31977e-20
-3.38492e-24
5.01687e-26
-4.60156e-30
1.80238e-31
7.99576e-36
7.56006e-37
4.46843e-41
-1.47981e-05
2.85075e-06
-1.16976e-05
4.73809e-06
-8.94232e-06
5.84383e-06
-6.57135e-06
6.34616e-06
-4.59914e-06
6.41856e-06
-2.9851e-06
6.2116e-06
-1.83214e-06
5.89466e-06
-7.8092e-07
5.50712e-06
-1.79728e-07
5.86196e-10
-8.72388e-15
2.90542e-15
-5.63454e-19
1.24731e-20
-2.72694e-24
4.47729e-26
-6.53285e-30
1.44928e-31
-5.98324e-36
4.82485e-37
8.24496e-42
-1.81811e-05
3.38303e-06
-1.4498e-05
5.65114e-06
-1.11996e-05
6.99535e-06
-8.33806e-06
7.61053e-06
-5.93735e-06
7.68437e-06
-3.95042e-06
7.38387e-06
-2.52332e-06
6.90278e-06
-1.16589e-06
6.27963e-06
-3.23418e-07
6.63634e-10
-2.99037e-14
2.98048e-15
4.10003e-19
1.21754e-20
-1.27612e-24
4.26406e-26
-5.32515e-30
1.2834e-31
-9.1723e-36
3.79825e-37
-3.16972e-42
-2.21754e-05
3.99424e-06
-1.78251e-05
6.71011e-06
-1.38988e-05
8.35039e-06
-1.04625e-05
9.11979e-06
-7.55355e-06
9.22673e-06
-5.11768e-06
8.85164e-06
-3.35575e-06
8.2163e-06
-1.63015e-06
7.36704e-06
-5.00489e-07
8.04295e-10
-1.74363e-13
3.19537e-15
1.2424e-18
1.23407e-20
3.37525e-25
4.16202e-26
-2.36456e-30
1.22074e-31
-7.66982e-36
3.31861e-37
-5.99599e-42
-2.68614e-05
4.68601e-06
-2.17575e-05
7.92669e-06
-1.71122e-05
9.9235e-06
-1.30106e-05
1.08984e-05
-9.50517e-06
1.10714e-05
-6.53496e-06
1.0644e-05
-4.36853e-06
9.8644e-06
-2.19928e-06
8.78543e-06
-7.22527e-07
1.04208e-09
-5.88859e-13
3.61841e-15
1.65734e-18
1.2886e-20
1.5317e-24
4.19023e-26
9.4912e-31
1.18826e-31
-3.63844e-36
3.13919e-37
-5.26455e-42
-3.23221e-05
5.46073e-06
-2.63758e-05
9.30437e-06
-2.09181e-05
1.17326e-05
-1.60534e-05
1.29664e-05
-1.18562e-05
1.32494e-05
-8.25602e-06
1.27925e-05
-5.60631e-06
1.18818e-05
-2.90449e-06
1.05696e-05
-1.00147e-06
1.44724e-09
-1.56549e-12
4.40729e-15
1.31915e-18
1.41483e-20
1.67579e-24
4.32227e-26
3.3905e-30
1.19143e-31
8.18658e-37
3.04302e-37
-2.61498e-42
-3.86403e-05
6.31824e-06
-3.17637e-05
1.08486e-05
-2.53975e-05
1.37837e-05
-1.96691e-05
1.53483e-05
-1.46766e-05
1.57868e-05
-1.03415e-05
1.53349e-05
-7.11949e-06
1.43056e-05
-3.78445e-06
1.27617e-05
-1.35143e-06
2.16013e-09
-3.79095e-12
5.9248e-15
-3.78977e-19
1.68248e-20
5.07108e-26
4.69281e-26
3.68052e-30
1.224e-31
3.93579e-36
3.04062e-37
3.21405e-43
7.25516e-06
-4.58955e-05
-3.80046e-05
1.25592e-05
-3.06349e-05
1.60861e-05
-2.39392e-05
1.80538e-05
-1.8044e-05
1.87158e-05
-1.2859e-05
1.83043e-05
-8.96558e-06
1.7181e-05
-4.88332e-06
1.54045e-05
-1.79131e-06
3.4696e-09
-8.95209e-12
8.94178e-15
-4.80224e-18
2.24481e-20
-4.67526e-24
5.55958e-26
4.27021e-31
1.3299e-31
3.83994e-36
3.12122e-37
2.25329e-42
1.44303e-05
-4.51798e-05
2.08962e-05
-6.67916e-05
-3.67161e-05
1.86404e-05
-2.89503e-05
2.10972e-05
-2.20414e-05
2.20512e-05
-1.58845e-05
2.17412e-05
-1.12094e-05
2.05481e-05
-6.25395e-06
1.85517e-05
-2.34271e-06
5.86265e-09
-2.08631e-11
1.51345e-14
-1.57872e-17
3.4533e-20
-1.64606e-23
7.50084e-26
-9.14681e-30
1.59033e-31
-1.53629e-36
3.41102e-37
2.00164e-42
2.14386e-05
-4.37244e-05
4.15998e-05
-6.58834e-05
2.61826e-05
-9.29742e-05
-3.47914e-05
2.44814e-05
-2.67582e-05
2.58139e-05
-1.95007e-05
2.56674e-05
-1.39248e-05
2.44566e-05
-7.95832e-06
2.22525e-05
-3.03161e-06
1.02276e-08
-4.86038e-11
2.81732e-14
-4.4077e-17
6.14886e-20
-4.66823e-23
1.19057e-25
-3.37305e-29
2.19663e-31
-1.65752e-35
4.14162e-37
-2.00934e-42
2.81969e-05
-4.15497e-05
6.18885e-05
-6.40131e-05
5.22019e-05
-9.19027e-05
3.12417e-05
-0.000124216
-3.2288e-05
3.00113e-05
-2.37996e-05
3.01129e-05
-1.71937e-05
2.89363e-05
-1.00694e-05
2.65676e-05
-3.88893e-06
1.81309e-08
-1.13786e-10
5.62593e-14
-1.19715e-16
1.24624e-19
-1.30223e-22
2.24245e-25
-1.00331e-28
3.6304e-31
-5.6263e-35
5.89288e-37
-1.37796e-41
3.46374e-05
-3.87284e-05
8.1557e-05
-6.12182e-05
7.7838e-05
-8.96492e-05
6.23973e-05
-0.000123058
3.54933e-05
-0.000159709
-2.88818e-05
3.50934e-05
-2.11086e-05
3.40279e-05
-1.26711e-05
3.1538e-05
-4.9516e-06
3.22821e-08
-2.67751e-10
1.17745e-13
-3.2642e-16
2.79878e-19
-3.75936e-22
4.93879e-25
-2.98762e-28
7.27125e-31
-1.69359e-34
1.01974e-36
-4.6597e-41
4.06167e-05
-3.48612e-05
0.00010044
-5.76118e-05
0.000102904
-8.62844e-05
9.32264e-05
-0.000120478
7.12256e-05
-0.000158791
3.81421e-05
-0.000197851
-2.57725e-05
3.97572e-05
-1.5862e-05
3.72188e-05
-6.26346e-06
5.7277e-08
-6.3305e-10
2.53098e-13
-8.85497e-16
6.77146e-19
-1.13527e-21
1.23861e-24
-9.41689e-28
1.74108e-30
-5.30765e-34
2.18083e-36
-1.46975e-40
4.61603e-05
-3.1316e-05
0.000118138
-5.25589e-05
0.000127277
-8.1985e-05
0.000123573
-0.000116631
0.000106666
-0.000155918
7.82692e-05
-0.000198918
3.68856e-05
-0.000234737
-1.97687e-05
4.36639e-05
-7.87478e-06
1.00601e-07
-1.49526e-09
6.66127e-13
-2.33658e-15
1.71708e-18
-3.53804e-21
3.4307e-24
-3.18331e-27
4.85956e-30
-1.81539e-33
5.68796e-36
-4.93814e-40
5.10434e-05
-2.46518e-05
0.000134699
-4.78771e-05
0.00015053
-7.58114e-05
0.000153389
-0.000111801
0.000141637
-0.000151603
0.000117804
-0.000195454
8.334e-05
-0.000245372
1.91937e-05
-0.000253931
-9.83597e-06
1.74347e-07
-3.48495e-09
2.15525e-12
-7.05932e-15
4.62854e-18
-1.10251e-20
1.01514e-23
-1.13471e-26
1.531e-29
-6.84682e-33
1.76612e-35
-1.84075e-39
3.1415e-07
-1.20336e-05
0.000149596
-3.95485e-05
0.000172661
-7.00085e-05
0.000182272
-0.000104694
0.000176139
-0.000146303
0.000156563
-0.000190361
0.000127267
-0.00023938
8.31411e-05
-0.000309319
-2.92272e-05
-0.000224703
-8.57573e-09
6.96845e-12
-2.41191e-14
1.52888e-17
-3.54553e-20
3.15638e-23
-4.19392e-26
5.24657e-29
-2.7769e-32
6.30814e-35
-7.67902e-39
2.47894e-11
-1.44318e-08
1.57532e-06
-1.97752e-05
0.000193589
-6.04767e-05
0.000210207
-9.79432e-05
0.000209824
-0.000138379
0.000194462
-0.000184202
0.000169458
-0.000232553
0.000136745
-0.000292984
7.00757e-05
-0.000408622
8.2003e-05
-0.000306706
-9.56992e-14
5.70794e-17
-1.25893e-19
1.08574e-22
-1.54392e-25
1.9098e-28
-1.2007e-31
2.49363e-34
-3.5138e-38
2.44297e-16
3.94823e-14
2.91163e-10
-1.07948e-07
4.57639e-06
-3.16548e-05
0.000237793
-8.80636e-05
0.000242719
-0.000130838
0.00023123
-0.000175146
0.00020933
-0.000224074
0.00018445
-0.000280258
0.000151136
-0.000374044
0.000144736
-0.000471355
0.000196136
-0.000502843
-5.32559e-19
4.39505e-22
-5.96466e-25
7.3039e-28
-5.18623e-31
1.06041e-33
-1.75181e-37
2.13897e-21
1.29777e-18
3.83622e-15
-4.29293e-12
3.02382e-09
-5.47095e-07
1.12091e-05
-4.85847e-05
0.000276143
-0.000121488
0.00026695
-0.000166558
0.00024673
-0.000212546
0.000225359
-0.000264983
0.000210528
-0.00033965
0.000227173
-0.000456482
0.000265065
-0.000540283
0.00108653
-0.000279287
-0.00131009
-2.62982e-24
3.18761e-27
-2.27288e-30
4.66553e-33
-8.85077e-37
1.69548e-26
1.40977e-23
4.37196e-20
-3.38711e-17
6.01814e-14
-6.08195e-11
2.16477e-08
-2.10055e-06
2.34316e-05
-7.18712e-05
0.000303741
-0.000158279
0.00028158
-0.000201408
0.000260414
-0.0002476
0.000251421
-0.000305877
0.000283656
-0.000396132
0.000351999
-0.000543415
0.000897933
-0.000351684
0.00101567
-0.000178489
-0.00111647
-0.000117865
-0.00119222
-1.05603e-29
2.25263e-32
-4.50458e-36
1.29425e-31
9.71537e-29
4.39163e-25
-2.94627e-22
9.9829e-19
-5.40756e-16
1.04927e-12
-6.51247e-10
1.1021e-07
-6.02018e-06
4.16347e-05
-0.000101414
0.000317223
-0.000193921
0.000289228
-0.000230223
0.000279371
-0.00027555
0.000307978
-0.000330199
0.000388117
-0.00043225
0.00069758
-0.000343061
0.000870761
-0.000206776
0.000986465
-9.59688e-05
-0.00106899
-0.000123837
-0.0011105
-8.16715e-05
-0.00111055
-2.26944e-35
3.17622e-34
4.11629e-30
-1.95392e-27
1.45228e-23
-5.86429e-21
1.79115e-17
-1.06281e-14
1.74636e-11
-5.43332e-09
4.08644e-07
-1.33982e-05
6.35152e-05
-0.000134681
0.000317726
-0.000222419
0.000296161
-0.000247014
0.000314509
-0.000282081
0.000382379
-0.000324461
0.000548914
-0.000283583
0.000712469
-0.000184768
0.00086714
-8.74513e-05
0.00102392
-3.41842e-05
-0.00108571
-0.000100711
-0.00109211
-0.000106656
-0.00108551
-6.48746e-05
-0.00104567
-6.66992e-33
1.92351e-28
-5.46041e-26
3.06087e-22
-1.21185e-19
3.68799e-16
-1.59422e-13
1.79275e-10
-3.49077e-08
1.13414e-06
-2.41832e-05
8.48289e-05
-0.000166143
0.000310207
-0.000236465
0.000310492
-0.000242997
0.00035691
-0.000256612
0.000445006
-0.000220552
0.000574543
-0.000145657
0.000746306
-6.39322e-05
0.000921363
1.51098e-05
0.00105639
4.43583e-05
-0.00113494
-7.07584e-05
-0.00111566
-0.000115187
-0.00108358
-0.000110051
-0.00104034
-6.60487e-05
-0.000979626
-2.66415e-31
5.17797e-27
-1.27651e-24
7.08804e-21
-1.79062e-18
4.68852e-15
-1.16073e-12
1.18387e-09
-1.59736e-07
2.38659e-06
-3.65895e-05
0.000101654
-0.000187636
0.000301603
-0.000227576
0.000325818
-0.000211906
0.000361876
-0.000173482
0.000467165
-0.000113174
0.000631829
-3.11799e-05
0.000792982
6.44493e-05
0.00094821
0.000123296
0.00117443
9.42849e-05
-0.00122436
-4.17191e-05
-0.00116398
-0.000114988
-0.00111586
-0.000140805
-0.00105283
-0.000121572
-0.000984812
-6.67725e-05
-0.000912854
-7.25087e-30
1.28858e-25
-2.20908e-23
1.08125e-19
-4.50184e-18
3.99777e-14
-3.14674e-14
4.73869e-09
-4.88091e-07
3.91366e-06
-4.75447e-05
0.000112478
-0.000189047
0.000289778
-0.000191536
0.000294322
-0.000144351
0.000377745
-8.40624e-05
0.00052031
-1.65441e-06
0.000657532
0.00010427
0.000832363
0.000180297
0.00107428
0.000223451
0.00116393
1.35164e-05
-0.00127439
1.59209e-05
8.6127e-05
8.91852e-05
-2.0342e-05
-0.00124574
-0.000102305
-0.00117666
-0.000167502
-0.00108916
-0.000173872
-0.00100053
-0.000131169
-0.000920414
-7.36112e-05
-0.000839242
-1.46618e-28
2.31195e-24
-7.52495e-23
9.69366e-19
1.75021e-16
3.37204e-13
3.20341e-11
1.14166e-08
-1.02792e-06
5.2327e-06
-5.30294e-05
0.000115432
-0.000166669
0.000235072
-0.000132287
0.000299904
-6.65103e-05
0.000412559
2.36887e-05
0.000525123
0.000130754
0.000710935
0.000225698
0.000922984
0.000331595
0.00108248
0.000304901
-6.90046e-06
9.33422e-05
-0.000111797
3.88712e-05
-1.24777e-05
-0.00123614
-2.18861e-05
-1.02086e-05
-1.4025e-05
8.95327e-05
-9.42751e-05
1.37625e-05
-3.71717e-06
0.000108074
7.51121e-05
0.000111718
6.32831e-05
-0.000110325
-0.00123772
-0.000184226
-0.00115994
-0.00023235
-0.00103069
-0.000194388
-0.000937307
-0.000145959
-0.000848066
-7.97071e-05
-0.000759534
-8.81751e-28
2.36218e-23
2.60645e-21
7.16364e-18
3.57213e-15
1.26459e-12
1.81425e-10
1.70816e-08
-1.54096e-06
5.82969e-06
-5.05885e-05
9.71349e-05
-0.000124846
0.000229847
-6.22291e-05
0.000312638
3.34101e-05
0.000403229
0.000145583
0.000578144
0.000263545
0.000742084
0.000406598
0.000979807
0.000434266
-0.000118465
-0.000112856
0.000598107
2.59996e-05
2.37548e-05
5.16685e-05
5.64842e-05
-1.04028e-05
-0.000144508
3.06365e-05
6.71369e-06
4.9787e-05
-1.78756e-05
2.46211e-07
-0.00117491
-0.000171548
-0.000130921
4.3567e-06
-9.93356e-06
-0.000170595
2.58115e-05
-0.000164499
9.61909e-06
1.70006e-05
4.09804e-05
-3.7505e-05
8.56169e-06
-2.12747e-06
-2.40108e-05
-0.000194938
-0.00122701
-0.000299862
-0.00109243
-0.000258216
-0.000966856
-0.00021697
-0.000866296
-0.000160513
-0.00076726
-8.57125e-05
-0.000673821
1.63595e-26
1.54405e-22
4.81785e-20
2.70479e-17
2.54325e-14
2.1465e-12
5.22459e-10
1.44425e-08
-1.57295e-06
4.31921e-06
-4.04036e-05
9.44333e-05
-6.93421e-05
0.000223472
2.69369e-05
0.000292602
0.000144037
0.000435965
0.000287761
0.000548006
0.000457624
0.000842309
0.000544096
0.000717761
5.85015e-05
6.25178e-05
9.60701e-05
9.75239e-05
1.03462e-05
-0.000116118
0.000155594
-2.38228e-05
-0.000116298
0.000170957
-2.05577e-05
5.11952e-06
-8.85519e-05
1.89834e-05
-8.40881e-05
2.93943e-05
-1.16532e-06
4.74276e-06
9.18331e-06
1.64519e-05
-0.000212053
0.00023228
2.44089e-05
-4.68858e-05
3.03851e-05
-4.43406e-05
-0.00112307
-0.000246776
-1.60918e-06
-5.30871e-05
-0.000334345
-7.15663e-06
-2.83408e-05
-3.17807e-05
-5.03224e-05
6.25757e-05
-1.84042e-05
-6.44581e-06
3.53907e-05
1.26616e-05
-0.000229142
0.000243828
2.32004e-05
-4.46657e-05
2.84204e-05
-4.26948e-05
1.70121e-05
1.4847e-05
-4.14347e-05
-6.22154e-06
-4.27895e-05
1.56615e-05
-3.63558e-05
-4.33857e-06
-4.01507e-05
-0.000378441
-0.00114843
-0.00033789
-0.00101275
-0.000285993
-0.00089783
-0.000243464
-0.000783345
-0.000173124
-0.000679849
-9.01522e-05
-0.000583669
3.17762e-25
5.55281e-22
3.35177e-19
4.22547e-17
7.039e-14
1.26834e-12
9.05473e-10
1.62015e-09
-1.03279e-06
3.32901e-06
-2.24533e-05
8.39012e-05
2.43273e-07
0.000194467
0.000125072
0.000293855
0.000286148
0.0003677
0.000468067
0.000657083
0.000642849
0.000734314
0.000120981
0.000117679
0.000147226
0.000141657
2.60133e-06
-4.8021e-05
1.53694e-05
-4.56382e-05
2.66694e-05
-1.0186e-07
2.98279e-06
4.51683e-05
3.0137e-07
5.14824e-05
2.83742e-06
-0.000299472
5.57889e-05
0.000122739
-5.69773e-05
5.28506e-05
5.94465e-06
-5.11966e-05
1.64521e-05
0.000127194
-0.000296604
5.39477e-05
0.000121431
5.13027e-05
-5.41673e-05
8.88789e-06
-4.82953e-05
1.84932e-05
0.000127284
2.33501e-06
-0.000272297
-3.28105e-05
3.10285e-05
-3.73606e-05
2.85895e-05
-0.000266633
-2.91712e-05
3.36214e-05
-3.40403e-05
3.13493e-05
1.31428e-05
0.000265311
3.3828e-05
-5.44528e-05
3.03409e-05
-4.67072e-05
9.70481e-05
1.98326e-05
2.04675e-06
-0.000103687
9.16846e-06
-2.25813e-05
-7.91751e-05
8.42821e-05
-2.94116e-05
1.90228e-06
9.13618e-05
1.15878e-05
-7.4192e-05
-2.94911e-05
-0.0010863
-0.000415211
-0.000433967
-3.07676e-05
-4.8411e-05
-2.40236e-05
-4.39535e-05
5.37151e-07
-0.000256589
0.000267754
-1.88595e-05
-0.000265233
0.000277085
-3.96563e-05
2.1e-06
-0.000280295
-1.01746e-05
-0.000292307
-2.11485e-05
0.000278535
3.14008e-05
-5.22471e-05
2.77155e-05
-4.68374e-05
7.17845e-06
3.95134e-05
-3.06382e-05
4.46664e-05
-4.03136e-05
3.64177e-05
-2.99217e-05
4.15137e-05
-4.19415e-05
9.90139e-05
2.069e-05
-0.000104532
1.00753e-05
-2.28519e-05
-7.90406e-05
8.57437e-05
-2.85169e-05
9.44914e-05
1.19933e-05
-7.32471e-05
-2.77984e-05
-0.000104157
1.4046e-05
1.4731e-06
-2.02672e-07
-2.52933e-05
6.99213e-05
-3.02738e-05
5.78532e-07
-1.35123e-05
-3.30143e-05
-0.000103559
1.46987e-05
1.46272e-06
-2.47977e-05
6.86032e-05
-2.62135e-05
-1.06861e-05
-3.00959e-05
-0.000429741
-0.00105658
-0.000353792
-0.000944951
-0.0003308
-0.000810494
-0.000264606
-0.000691863
-0.000181893
-0.000588108
-9.35227e-05
-0.000490146
2.10545e-24
8.01379e-22
7.68438e-19
1.74379e-17
9.4039e-14
-3.13382e-14
1.03836e-09
-1.05917e-09
-2.15954e-07
1.30742e-06
1.24647e-06
5.80019e-05
7.49848e-05
0.000165546
0.000253381
0.000220471
0.000433377
0.000434184
0.000690967
0.00064768
0.000168965
0.00016755
0.000195815
0.000197154
-5.97238e-07
3.83984e-05
8.61629e-05
3.4161e-05
8.3222e-05
-2.55222e-07
6.7319e-05
0.000118561
6.38217e-05
0.000111741
6.9578e-07
-0.000249425
-3.17043e-05
3.04075e-05
-3.54722e-05
2.85526e-05
-0.000244043
-2.78633e-05
3.2897e-05
-3.106e-05
3.07959e-05
2.84989e-07
-0.000190888
-3.49563e-05
2.74082e-05
-3.54295e-05
2.93281e-05
-0.000189125
-3.12236e-05
2.88986e-05
-3.16253e-05
3.08119e-05
-2.19848e-05
-7.40372e-05
7.78719e-05
-3.88272e-05
-4.40868e-06
6.94573e-05
-4.24718e-05
-6.48989e-05
1.61398e-06
-2.62466e-05
7.35096e-05
-1.72711e-05
-8.05733e-05
-2.73893e-05
3.86302e-07
-7.06769e-05
4.5817e-06
1.10209e-06
0.000116142
-7.98142e-06
-4.07358e-06
6.77635e-05
-3.86007e-05
-2.14783e-05
-7.46174e-05
7.8201e-05
-3.62726e-05
-6.52861e-05
7.55655e-05
-2.12558e-05
-1.71264e-05
-8.11092e-05
-2.4677e-05
-7.04183e-05
6.88528e-06
0.000117058
-3.43157e-06
-1.53578e-05
8.22936e-05
-8.3936e-05
-1.58103e-05
7.23261e-05
-4.8976e-07
-7.31489e-05
1.69827e-05
-1.64561e-05
-1.91842e-05
-1.24807e-07
1.39251e-05
-1.46729e-05
8.27303e-05
-8.43626e-05
-1.2866e-05
7.14677e-05
-7.1876e-05
1.88671e-05
-1.61233e-05
-1.62958e-05
1.61506e-05
-8.35685e-05
2.00154e-05
1.54146e-06
7.90455e-05
1.67941e-05
-2.13129e-05
8.3492e-05
-3.23498e-05
1.64802e-06
1.51732e-05
8.57863e-05
-2.89861e-05
0.000114508
1.38849e-05
1.12275e-06
-0.000117696
-2.65103e-06
-1.91686e-05
-7.28779e-05
7.83367e-05
-1.57019e-05
9.16796e-07
0.000107356
-1.35593e-06
-6.8635e-05
-1.98491e-05
-0.00101626
-0.000499786
-0.000533744
-9.40743e-05
-9.33096e-05
-5.96336e-05
-6.84168e-05
1.48645e-06
-0.000266965
0.00025984
-2.51295e-05
-0.000276642
0.000266586
-3.68692e-05
9.95338e-07
-2.423e-05
-4.25153e-05
4.73694e-06
-0.000287946
0.000313507
-5.24837e-05
2.74424e-05
-4.96572e-05
2.55217e-05
-0.000299544
0.000321025
-5.37527e-05
2.47587e-05
-5.0954e-05
2.35482e-05
3.81198e-06
-0.000114385
-4.02139e-05
-1.0569e-05
-0.000117622
3.04208e-05
-3.71486e-05
3.02221e-05
-4.26435e-05
-0.000117598
-4.38631e-05
-1.02539e-05
-0.000120913
2.98246e-05
-3.73977e-05
2.94637e-05
-4.61425e-05
-8.75454e-05
2.12988e-05
8.32528e-05
1.59361e-05
-2.17947e-05
8.57591e-05
-3.04678e-05
1.45147e-05
8.84358e-05
-2.82152e-05
6.83683e-05
2.48798e-05
9.91911e-07
2.43189e-05
-4.08801e-05
-9.12343e-05
-1.29092e-05
2.24149e-07
3.17075e-05
-2.08818e-05
7.27086e-05
2.52282e-05
2.27256e-05
-4.03225e-05
-9.40362e-05
-1.31608e-05
3.02608e-05
-2.23137e-05
0.000115801
1.37503e-05
-0.000118916
5.63323e-07
-1.8801e-05
-7.32302e-05
7.90317e-05
-1.55174e-05
0.000108665
1.24441e-06
-6.73784e-05
-1.98999e-05
2.61503e-06
1.50173e-06
-5.86185e-06
-2.9577e-05
2.4273e-06
-1.3213e-06
-2.72836e-05
-0.000425191
-0.000985181
-0.000426311
-0.00084944
-0.000365101
-0.000709999
-0.00027711
-0.000596645
-0.000188329
-0.000493302
-9.59212e-05
-0.000394225
4.27485e-24
2.54311e-22
8.80195e-19
-5.29119e-19
4.31777e-14
-5.78942e-14
6.68305e-10
-1.36143e-09
6.18161e-07
-3.66075e-07
2.33094e-05
2.56577e-05
0.000160545
9.92567e-05
0.000374595
0.000197685
0.000669875
0.000454426
0.000208345
0.000207129
0.000234661
0.000234085
-1.26943e-07
7.92228e-05
0.000157188
7.81612e-05
0.000153083
-1.02465e-06
8.53719e-05
0.000190691
8.56454e-05
0.000188645
1.01277e-06
-0.000135623
-2.47875e-05
3.53379e-05
-1.69134e-05
3.62688e-05
-0.000140437
-2.21085e-05
3.5912e-05
-1.47147e-05
3.64541e-05
1.20584e-06
-8.97429e-05
4.67964e-06
3.24559e-05
-6.62139e-06
4.09449e-05
-9.91351e-05
4.8681e-06
3.11055e-05
-4.61008e-06
4.02674e-05
-1.46392e-05
-8.57404e-05
-1.52606e-05
-7.419e-05
-8.52388e-07
1.76703e-05
-1.4465e-05
-8.72306e-05
-1.9514e-05
-1.25527e-06
-7.51334e-05
1.63059e-05
-1.36952e-05
-8.6013e-05
-1.25176e-05
-7.26982e-05
1.91717e-05
-1.29805e-05
-8.70455e-05
-1.70469e-05
-7.36404e-05
1.74967e-05
-1.08148e-05
8.21617e-05
-7.51887e-05
-3.11168e-05
7.03622e-05
-1.38109e-06
-6.78798e-05
1.55037e-05
-1.27214e-05
-2.77797e-05
-1.32303e-06
1.31481e-05
-9.73216e-06
8.16287e-05
-7.46505e-05
-2.84695e-05
6.97227e-05
-6.78887e-05
1.59563e-05
-1.15755e-05
-2.54665e-05
1.40014e-05
-1.42352e-05
5.79967e-05
-5.43528e-06
-2.81142e-05
-2.65748e-05
1.87266e-07
2.84988e-06
5.79768e-05
-9.99751e-06
-4.17297e-05
4.07045e-07
-3.60676e-05
-1.30229e-05
5.89411e-05
-5.24578e-06
-2.7967e-05
5.83954e-05
-2.69851e-05
-9.6841e-06
-4.09965e-05
-3.57989e-05
-1.04187e-05
4.52575e-05
-4.85409e-05
3.94921e-05
3.96748e-07
-4.30544e-05
-1.12449e-05
7.16753e-07
-9.90077e-06
4.44875e-05
-4.77786e-05
3.90806e-05
-4.24181e-05
-1.0726e-05
-0.000101328
2.25641e-05
1.16857e-06
9.38958e-05
5.00867e-07
-2.10424e-05
8.08195e-05
-1.37902e-05
9.82672e-07
-8.14909e-07
8.40003e-05
-9.60281e-06
4.46059e-05
7.93132e-06
1.85397e-06
-4.78595e-05
-7.48845e-06
-4.58224e-05
4.38174e-05
1.25837e-06
4.24145e-05
-4.81315e-05
-0.000969467
-0.000471985
-0.000586066
-0.000124629
-0.000116936
-0.000111371
-9.45315e-05
2.70293e-06
-0.000249257
0.000227371
-7.48907e-05
-0.000253042
0.00022929
-6.68555e-05
2.96732e-06
-5.20183e-05
-5.19048e-05
4.85208e-06
-0.000324159
0.000315069
-5.00876e-05
4.13614e-05
-4.91533e-05
3.69744e-05
-0.000325768
0.00030999
-4.72197e-05
4.10986e-05
-4.66116e-05
3.65046e-05
4.01193e-06
-5.15186e-05
2.74767e-05
-4.82566e-05
3.33863e-05
-5.22276e-05
2.54059e-05
-4.79892e-05
3.15595e-05
-2.64818e-05
-8.7856e-05
8.82488e-05
-2.63946e-05
-7.86437e-05
-1.23426e-06
8.21835e-05
-1.31635e-06
-2.45972e-05
-8.76717e-05
-2.52442e-05
-4.41482e-07
-7.60323e-05
-1.24542e-06
-2.60509e-05
-8.87821e-05
8.81305e-05
-2.70501e-05
-7.98768e-05
8.3423e-05
-6.0725e-06
-2.39328e-05
-8.93847e-05
-2.64185e-05
-7.82482e-05
-2.45466e-06
-1.77724e-05
8.69632e-05
-8.66668e-05
6.9071e-06
-4.29577e-05
-9.3246e-05
5.67202e-06
7.28954e-05
-1.69356e-07
1.93264e-05
-7.93834e-05
-2.25203e-05
-1.53368e-05
-4.13891e-07
4.97883e-06
6.76943e-07
-7.85316e-05
2.39507e-05
-1.71651e-05
8.87057e-05
-8.85258e-05
6.73138e-06
-4.38191e-05
-9.53303e-05