/*--------------------------------*- C++ -*----------------------------------*\
| =========                 |                                                 |
| \\      /  F ield         | OpenFOAM: The Open Source CFD Toolbox           |
|  \\    /   O peration     | Version:  5.x                                   |
|   \\  /    A nd           | Web:      www.OpenFOAM.org                      |
|    \\/     M anipulation  |                                                 |
\*---------------------------------------------------------------------------*/
FoamFile
{
    version     2.0;
    format      ascii;
    class       volScalarField;
    location    "0.5";
    object      k;
}
// * * * * * * * * * * * * * * * * * * * * * * * * * * * * * * * * * * * * * //

dimensions      [0 2 -2 0 0 0 0];

internalField   nonuniform List<scalar> 
12160
(
9.9758e-09
9.96911e-09
1.00165e-08
9.96784e-09
1.00222e-08
1.0005e-08
9.96767e-09
1.00225e-08
1.00069e-08
1.0004e-08
9.96766e-09
1.00173e-08
1.00074e-08
1.00052e-08
1.00039e-08
9.96766e-09
1.00141e-08
1.00062e-08
1.00054e-08
1.0005e-08
1.00043e-08
9.96766e-09
1.0011e-08
1.00056e-08
1.00049e-08
1.00051e-08
1.00052e-08
1.00045e-08
9.96766e-09
1.0009e-08
1.0005e-08
1.00047e-08
1.00048e-08
1.00052e-08
1.00056e-08
1.00049e-08
9.96765e-09
1.00075e-08
1.00047e-08
1.00045e-08
1.00046e-08
1.00049e-08
1.00053e-08
1.00057e-08
1.00107e-08
9.96765e-09
1.00065e-08
1.00044e-08
1.00044e-08
1.00044e-08
1.00046e-08
1.0005e-08
1.00052e-08
1.0008e-08
1.00117e-08
9.96765e-09
1.00058e-08
1.00043e-08
1.00043e-08
1.00043e-08
1.00045e-08
1.00047e-08
1.00049e-08
1.00066e-08
1.00088e-08
1.00078e-08
9.96765e-09
1.00053e-08
1.00042e-08
1.00042e-08
1.00042e-08
1.00044e-08
1.00045e-08
1.00047e-08
1.00067e-08
1.00067e-08
1.00102e-08
1.00063e-08
9.96765e-09
1.00049e-08
1.00042e-08
1.00042e-08
1.00042e-08
1.00043e-08
1.00043e-08
1.00046e-08
1.0006e-08
1.0006e-08
1.00089e-08
1.00063e-08
1.00059e-08
9.96765e-09
1.00047e-08
1.00041e-08
1.00041e-08
1.00041e-08
1.00042e-08
1.00043e-08
1.00046e-08
1.00055e-08
1.00057e-08
1.00087e-08
1.0006e-08
1.00057e-08
1.00052e-08
9.96766e-09
1.00045e-08
1.00041e-08
1.00041e-08
1.00041e-08
1.00042e-08
1.00042e-08
1.00047e-08
1.0005e-08
1.00055e-08
1.00073e-08
1.00068e-08
1.00052e-08
1.00054e-08
1.00038e-08
9.96766e-09
1.00044e-08
1.00041e-08
1.00041e-08
1.00041e-08
1.00041e-08
1.00042e-08
1.00047e-08
1.00047e-08
1.00052e-08
1.00063e-08
1.00058e-08
1.00052e-08
1.0005e-08
1.00044e-08
9.96766e-09
1.00043e-08
1.00041e-08
1.00041e-08
1.00041e-08
1.00041e-08
1.00041e-08
1.00047e-08
1.00045e-08
1.0005e-08
1.00055e-08
1.00052e-08
1.00049e-08
1.00048e-08
1.00046e-08
9.96766e-09
1.00041e-08
1.00041e-08
1.00041e-08
1.00041e-08
1.00041e-08
1.00041e-08
1.00047e-08
1.00044e-08
1.00049e-08
1.0005e-08
1.00048e-08
1.00047e-08
1.00046e-08
1.00046e-08
9.96766e-09
1.00037e-08
1.00039e-08
1.00041e-08
1.00041e-08
1.00041e-08
1.00041e-08
1.00047e-08
1.00043e-08
1.00048e-08
1.00046e-08
1.00045e-08
1.00045e-08
1.00045e-08
1.00044e-08
9.96766e-09
1.00034e-08
1.00036e-08
1.00039e-08
1.00041e-08
1.00041e-08
1.00041e-08
1.00047e-08
1.00042e-08
1.00048e-08
1.00044e-08
1.00044e-08
1.00044e-08
1.00044e-08
1.00044e-08
9.96765e-09
1.00031e-08
1.00033e-08
1.00036e-08
1.00039e-08
1.00041e-08
1.00041e-08
1.00047e-08
1.00042e-08
1.00048e-08
1.00043e-08
1.00043e-08
1.00043e-08
1.00044e-08
1.00043e-08
9.96765e-09
1.00028e-08
1.0003e-08
1.00033e-08
1.00036e-08
1.00039e-08
1.00041e-08
1.00046e-08
1.00042e-08
1.00047e-08
1.00042e-08
1.00042e-08
1.00042e-08
1.00043e-08
1.00043e-08
9.96766e-09
1.00025e-08
1.00027e-08
1.0003e-08
1.00032e-08
1.00036e-08
1.0004e-08
1.00046e-08
1.00042e-08
1.00047e-08
1.00042e-08
1.00042e-08
1.00042e-08
1.00042e-08
1.00042e-08
9.96766e-09
1.00023e-08
1.00024e-08
1.00027e-08
1.00029e-08
1.00033e-08
1.00037e-08
1.00045e-08
1.00042e-08
1.00046e-08
1.00041e-08
1.00041e-08
1.00042e-08
1.00042e-08
1.00042e-08
9.96766e-09
1.00022e-08
1.00022e-08
1.00024e-08
1.00026e-08
1.0003e-08
1.00033e-08
1.00045e-08
1.00041e-08
1.00045e-08
1.0004e-08
1.00041e-08
1.00041e-08
1.00042e-08
1.00042e-08
9.96765e-09
1.00021e-08
1.00021e-08
1.00022e-08
1.00023e-08
1.00027e-08
1.0003e-08
1.00044e-08
1.00041e-08
1.00044e-08
1.00039e-08
1.0004e-08
1.00041e-08
1.00041e-08
1.00041e-08
9.96765e-09
1.00022e-08
1.0002e-08
1.0002e-08
1.0002e-08
1.00024e-08
1.00026e-08
1.00043e-08
1.00041e-08
1.00043e-08
1.00039e-08
1.00039e-08
1.0004e-08
1.00041e-08
1.00041e-08
9.96765e-09
1.00023e-08
1.00021e-08
1.00019e-08
1.00018e-08
1.00021e-08
1.00022e-08
1.00043e-08
1.00041e-08
1.00043e-08
1.00039e-08
1.00039e-08
1.0004e-08
1.0004e-08
1.00041e-08
9.96765e-09
1.00024e-08
1.00022e-08
1.0002e-08
1.00017e-08
1.00019e-08
1.00016e-08
1.00042e-08
1.00042e-08
1.00044e-08
1.0004e-08
1.0004e-08
1.00039e-08
1.0004e-08
1.0004e-08
9.96765e-09
1.00026e-08
1.00024e-08
1.00021e-08
1.00018e-08
1.00018e-08
1.00007e-08
1.00041e-08
1.00043e-08
1.00045e-08
1.00042e-08
1.00041e-08
1.0004e-08
1.0004e-08
1.0004e-08
9.96766e-09
1.00028e-08
1.00026e-08
1.00023e-08
1.0002e-08
1.00019e-08
1.00003e-08
1.0004e-08
1.00043e-08
1.00044e-08
1.00042e-08
1.00041e-08
1.00041e-08
1.0004e-08
1.0004e-08
9.96766e-09
1.00031e-08
1.00028e-08
1.00025e-08
1.00022e-08
1.00021e-08
1.0001e-08
1.00039e-08
1.00042e-08
1.00043e-08
1.0004e-08
1.00041e-08
1.00041e-08
1.00041e-08
1.00041e-08
9.96766e-09
1.00033e-08
1.0003e-08
1.00028e-08
1.00025e-08
1.00023e-08
1.00016e-08
1.00037e-08
1.0004e-08
1.00041e-08
1.00037e-08
1.0004e-08
1.00041e-08
1.00041e-08
1.00041e-08
9.96766e-09
1.00035e-08
1.00031e-08
1.0003e-08
1.00027e-08
1.00025e-08
1.00021e-08
1.00034e-08
1.00039e-08
1.00038e-08
1.00034e-08
1.00039e-08
1.0004e-08
1.0004e-08
1.00034e-08
9.96766e-09
1.00036e-08
1.00033e-08
1.00031e-08
1.00029e-08
1.00028e-08
1.00024e-08
1.00036e-08
1.00038e-08
1.00037e-08
1.0003e-08
1.00036e-08
1.00037e-08
1.00038e-08
1.00024e-08
9.96766e-09
1.00038e-08
1.00035e-08
1.00033e-08
1.00031e-08
1.0003e-08
1.00027e-08
1.00038e-08
1.00038e-08
1.00036e-08
1.00029e-08
1.00034e-08
1.00032e-08
1.00035e-08
1.00029e-08
9.96766e-09
1.0004e-08
1.00036e-08
1.00035e-08
1.00033e-08
1.00032e-08
1.0003e-08
1.00039e-08
1.00039e-08
1.00037e-08
1.00029e-08
1.00033e-08
1.00026e-08
1.00029e-08
1.00025e-08
9.96766e-09
1.00041e-08
1.00037e-08
1.00036e-08
1.00035e-08
1.00033e-08
1.00032e-08
1.0004e-08
1.0004e-08
1.0004e-08
1.00032e-08
1.00033e-08
1.00024e-08
1.00021e-08
1.00019e-08
9.96766e-09
1.00043e-08
1.00038e-08
1.00037e-08
1.00036e-08
1.00035e-08
1.00034e-08
1.00041e-08
1.00041e-08
1.00042e-08
1.00035e-08
1.00034e-08
1.00027e-08
1.0002e-08
1.0001e-08
9.96765e-09
1.00044e-08
1.00039e-08
1.00038e-08
1.00037e-08
1.00036e-08
1.00035e-08
1.00042e-08
1.00042e-08
1.00044e-08
1.00038e-08
1.00036e-08
1.00031e-08
1.00023e-08
1.00008e-08
1.00046e-08
9.96765e-09
1.00039e-08
1.00039e-08
1.00038e-08
1.00037e-08
1.00036e-08
1.00043e-08
1.00042e-08
1.00045e-08
1.0004e-08
1.00038e-08
1.00035e-08
1.00028e-08
1.00012e-08
1.0004e-08
1.00049e-08
9.96765e-09
1.00039e-08
1.00039e-08
1.00038e-08
1.00037e-08
1.00043e-08
1.00041e-08
1.00044e-08
1.00041e-08
1.0004e-08
1.00036e-08
1.00033e-08
1.00014e-08
1.0004e-08
1.00041e-08
1.00056e-08
9.96765e-09
1.00039e-08
1.00039e-08
1.00038e-08
1.00044e-08
1.00039e-08
1.00042e-08
1.0004e-08
1.00041e-08
1.00039e-08
1.00036e-08
1.00018e-08
1.0004e-08
1.0004e-08
1.00042e-08
1.00065e-08
9.96765e-09
1.00039e-08
1.00039e-08
1.00044e-08
1.00038e-08
1.00039e-08
1.00037e-08
1.0004e-08
1.0004e-08
1.00038e-08
1.00032e-08
1.0004e-08
1.0004e-08
1.00041e-08
1.00043e-08
1.00078e-08
9.96765e-09
1.00039e-08
1.00044e-08
1.00037e-08
1.00036e-08
1.00033e-08
1.00037e-08
1.00038e-08
1.00038e-08
1.00036e-08
1.0004e-08
1.0004e-08
1.00041e-08
1.00042e-08
1.00045e-08
1.00098e-08
9.96767e-09
1.00044e-08
1.00037e-08
1.00035e-08
1.0003e-08
1.00033e-08
1.00036e-08
1.00037e-08
1.00036e-08
1.00045e-08
1.0004e-08
1.00041e-08
1.00042e-08
1.00043e-08
1.00049e-08
1.00131e-08
9.96787e-09
1.00039e-08
1.00037e-08
1.0003e-08
1.00031e-08
1.00033e-08
1.00036e-08
1.00036e-08
1.00041e-08
1.00045e-08
1.00041e-08
1.00042e-08
1.00042e-08
1.00044e-08
1.00057e-08
1.00196e-08
9.96962e-09
1.00042e-08
1.00035e-08
1.00032e-08
1.00033e-08
1.00035e-08
1.00035e-08
1.00047e-08
1.00042e-08
1.00045e-08
1.00042e-08
1.00043e-08
1.00043e-08
1.00046e-08
1.00076e-08
1.00334e-08
9.9774e-09
1.00041e-08
1.00036e-08
1.00035e-08
1.00035e-08
1.00036e-08
1.00047e-08
1.00048e-08
1.00043e-08
1.00045e-08
1.00043e-08
1.00044e-08
1.00045e-08
1.00052e-08
1.00131e-08
1.00553e-08
9.99858e-09
1.00042e-08
1.00039e-08
1.00037e-08
1.00037e-08
1.00047e-08
1.00046e-08
1.0005e-08
1.00045e-08
1.00044e-08
1.00043e-08
1.00045e-08
1.00047e-08
1.00069e-08
1.00271e-08
1.00686e-08
1.00193e-08
1.00043e-08
1.00041e-08
1.00039e-08
1.00046e-08
1.00045e-08
1.00048e-08
1.00052e-08
1.00047e-08
1.00044e-08
1.00045e-08
1.00046e-08
1.00053e-08
1.00122e-08
1.00437e-08
1.00423e-08
1.00054e-08
9.97951e-09
1.00044e-08
1.00041e-08
1.00045e-08
1.00044e-08
1.00046e-08
1.0005e-08
1.00052e-08
1.00049e-08
1.00044e-08
1.00046e-08
1.00049e-08
1.00069e-08
1.00221e-08
1.00422e-08
1.00059e-08
1.00048e-08
1.00051e-08
9.97855e-09
1.00043e-08
1.00043e-08
1.00043e-08
1.00045e-08
1.00046e-08
1.0005e-08
1.00051e-08
1.0005e-08
1.00044e-08
1.00047e-08
1.00054e-08
1.00109e-08
1.00285e-08
1.00063e-08
1.0005e-08
1.00047e-08
1.00047e-08
1.00051e-08
9.97817e-09
1.00042e-08
1.00044e-08
1.00044e-08
1.00045e-08
1.00051e-08
1.00051e-08
1.0005e-08
1.00044e-08
1.00049e-08
1.00066e-08
1.00152e-08
1.00063e-08
1.00052e-08
1.00048e-08
1.00052e-08
1.00048e-08
1.00049e-08
1.00051e-08
9.97817e-09
1.00042e-08
1.00043e-08
1.00043e-08
1.00046e-08
1.00054e-08
1.00051e-08
1.00049e-08
1.00045e-08
1.00053e-08
1.00082e-08
1.00059e-08
1.00054e-08
1.00051e-08
1.00052e-08
1.00063e-08
1.00053e-08
1.0005e-08
1.00051e-08
1.00052e-08
9.97824e-09
1.00042e-08
1.00043e-08
1.00044e-08
1.00049e-08
1.00059e-08
1.00053e-08
1.00048e-08
1.00047e-08
1.00058e-08
1.00054e-08
1.00054e-08
1.00054e-08
1.00053e-08
1.0006e-08
1.00118e-08
1.00069e-08
1.00056e-08
1.00052e-08
1.00052e-08
1.00053e-08
9.97843e-09
1.00042e-08
1.00043e-08
1.00047e-08
1.00055e-08
1.00063e-08
1.00054e-08
1.00047e-08
1.00049e-08
1.00051e-08
1.00053e-08
1.00055e-08
1.00053e-08
1.0006e-08
1.00098e-08
1.00276e-08
1.00133e-08
1.00264e-08
1.00214e-08
1.00208e-08
1.00076e-08
1.0006e-08
1.00055e-08
1.00053e-08
1.00054e-08
9.9786e-09
1.00043e-08
1.00046e-08
1.00052e-08
1.00061e-08
1.00066e-08
1.00055e-08
1.00048e-08
1.00048e-08
1.00051e-08
1.00054e-08
1.00053e-08
1.00062e-08
1.00079e-08
1.00243e-08
1.00289e-08
1.00282e-08
1.00147e-08
1.00293e-08
1.00264e-08
1.00265e-08
1.00395e-08
1.00303e-08
1.00352e-08
1.00086e-08
1.00064e-08
1.00056e-08
1.00054e-08
1.00054e-08
9.97876e-09
1.00045e-08
1.00049e-08
1.00056e-08
1.00064e-08
1.00066e-08
1.00055e-08
1.00048e-08
1.00049e-08
1.00053e-08
1.00053e-08
1.00062e-08
1.00067e-08
1.00184e-08
1.00368e-08
1.00358e-08
1.00313e-08
1.00298e-08
1.00335e-08
1.00504e-08
1.00163e-08
1.00269e-08
1.00397e-08
1.00347e-08
1.00378e-08
1.00491e-08
1.00453e-08
1.00438e-08
1.00095e-08
1.00064e-08
1.00056e-08
1.00055e-08
1.00055e-08
9.97888e-09
1.00046e-08
1.00052e-08
1.00057e-08
1.00063e-08
1.00066e-08
1.00055e-08
1.00048e-08
1.0005e-08
1.00054e-08
1.0006e-08
1.00061e-08
1.00135e-08
1.0029e-08
1.00272e-08
1.00253e-08
1.00243e-08
1.00497e-08
1.00485e-08
1.00465e-08
1.0045e-08
1.00532e-08
1.00516e-08
1.00548e-08
1.0052e-08
1.00541e-08
1.00178e-08
1.00296e-08
1.00538e-08
1.00561e-08
1.00532e-08
1.00553e-08
1.0053e-08
1.00528e-08
1.00544e-08
1.00505e-08
1.0054e-08
1.0051e-08
1.00532e-08
1.00509e-08
1.00513e-08
1.00507e-08
1.00529e-08
1.00497e-08
1.00503e-08
1.00495e-08
1.00519e-08
1.00091e-08
1.00063e-08
1.00058e-08
1.00056e-08
1.00055e-08
9.97897e-09
1.00047e-08
1.00051e-08
1.00056e-08
1.00062e-08
1.00064e-08
1.00056e-08
1.0005e-08
1.00053e-08
1.00058e-08
1.00061e-08
1.00102e-08
1.00201e-08
1.00199e-08
1.00179e-08
1.0018e-08
1.00433e-08
1.00419e-08
1.00381e-08
1.00372e-08
1.00502e-08
1.00516e-08
1.00495e-08
1.00494e-08
1.00487e-08
1.00507e-08
1.00507e-08
1.00496e-08
1.00486e-08
1.00489e-08
1.00476e-08
1.00495e-08
1.00476e-08
1.00456e-08
1.00485e-08
1.0047e-08
1.00475e-08
1.00445e-08
1.00482e-08
1.00458e-08
1.00538e-08
1.00555e-08
1.0053e-08
1.00561e-08
1.00523e-08
1.00554e-08
1.0053e-08
1.00546e-08
1.00163e-08
1.00333e-08
1.00547e-08
1.00565e-08
1.00544e-08
1.00566e-08
1.00581e-08
1.00586e-08
1.00569e-08
1.00574e-08
1.00533e-08
1.00548e-08
1.00523e-08
1.00556e-08
1.0054e-08
1.00559e-08
1.0054e-08
1.00563e-08
1.00544e-08
1.00562e-08
1.00551e-08
1.00561e-08
1.00512e-08
1.00548e-08
1.00519e-08
1.00539e-08
1.00516e-08
1.00533e-08
1.00504e-08
1.00526e-08
1.00085e-08
1.00066e-08
1.00058e-08
1.00056e-08
1.00057e-08
9.97906e-09
1.00047e-08
1.0005e-08
1.00054e-08
1.0006e-08
1.00066e-08
1.00059e-08
1.00053e-08
1.00055e-08
1.00064e-08
1.00085e-08
1.00148e-08
1.00148e-08
1.00135e-08
1.00136e-08
1.00311e-08
1.00307e-08
1.00246e-08
1.00246e-08
1.00467e-08
1.00434e-08
1.00458e-08
1.00415e-08
1.00468e-08
1.00425e-08
1.0046e-08
1.00408e-08
1.00434e-08
1.00365e-08
1.00448e-08
1.00388e-08
1.00438e-08
1.00362e-08
1.00451e-08
1.00382e-08
1.00515e-08
1.00498e-08
1.00479e-08
1.00508e-08
1.00489e-08
1.00467e-08
1.00508e-08
1.00491e-08
1.00497e-08
1.00468e-08
1.00485e-08
1.00462e-08
1.00474e-08
1.0044e-08
1.00482e-08
1.00456e-08
1.00474e-08
1.00436e-08
1.0048e-08
1.00451e-08
1.00541e-08
1.00559e-08
1.00536e-08
1.00563e-08
1.00525e-08
1.00547e-08
1.0053e-08
1.00539e-08
1.00137e-08
1.00309e-08
1.00559e-08
1.00558e-08
1.00551e-08
1.00561e-08
1.00603e-08
1.00606e-08
1.00593e-08
1.00597e-08
1.0057e-08
1.00576e-08
1.00564e-08
1.00567e-08
1.00573e-08
1.0058e-08
1.00568e-08
1.00571e-08
1.00556e-08
1.00563e-08
1.00546e-08
1.00559e-08
1.00556e-08
1.00547e-08
1.00558e-08
1.00562e-08
1.0055e-08
1.00562e-08
1.00561e-08
1.0055e-08
1.00534e-08
1.00554e-08
1.00527e-08
1.00559e-08
1.00545e-08
1.00565e-08
1.00542e-08
1.00562e-08
1.00519e-08
1.00543e-08
1.00527e-08
1.00534e-08
1.00518e-08
1.00527e-08
1.00508e-08
1.00521e-08
1.00091e-08
1.00066e-08
1.00057e-08
1.00057e-08
1.00061e-08
9.97921e-09
1.00045e-08
1.00048e-08
1.00053e-08
1.0006e-08
1.0007e-08
1.00068e-08
1.00055e-08
1.00063e-08
1.00079e-08
1.0012e-08
1.00121e-08
1.00112e-08
1.00112e-08
1.002e-08
1.00202e-08
1.00178e-08
1.0018e-08
1.00411e-08
1.00333e-08
1.00386e-08
1.00317e-08
1.00415e-08
1.00332e-08
1.0039e-08
1.00318e-08
1.00322e-08
1.00293e-08
1.00358e-08
1.00294e-08
1.00327e-08
1.00298e-08
1.00363e-08
1.00297e-08
1.00468e-08
1.00421e-08
1.00464e-08
1.00403e-08
1.00471e-08
1.00419e-08
1.00468e-08
1.00403e-08
1.0046e-08
1.00369e-08
1.00461e-08
1.00385e-08
1.00465e-08
1.00372e-08
1.00466e-08
1.00387e-08
1.0053e-08
1.00553e-08
1.00531e-08
1.00555e-08
1.00149e-08
1.00228e-08
1.00552e-08
1.00528e-08
1.00566e-08
1.0055e-08
1.00617e-08
1.00618e-08
1.0061e-08
1.00612e-08
1.0059e-08
1.00608e-08
1.00587e-08
1.00603e-08
1.00592e-08
1.0061e-08
1.00588e-08
1.00605e-08
1.00576e-08
1.00587e-08
1.00581e-08
1.00595e-08
1.00578e-08
1.00589e-08
1.00583e-08
1.00597e-08
1.00563e-08
1.00554e-08
1.00562e-08
1.00553e-08
1.00567e-08
1.00558e-08
1.00566e-08
1.00557e-08
1.00555e-08
1.00557e-08
1.00546e-08
1.00535e-08
1.0056e-08
1.0055e-08
1.00557e-08
1.00563e-08
1.00551e-08
1.00539e-08
1.00565e-08
1.00555e-08
1.00532e-08
1.0055e-08
1.00531e-08
1.00554e-08
1.00531e-08
1.00555e-08
1.00534e-08
1.00555e-08
1.00093e-08
1.00062e-08
1.00058e-08
1.00061e-08
1.00076e-08
9.97955e-09
1.00042e-08
1.00044e-08
1.00051e-08
1.00061e-08
1.00073e-08
1.00081e-08
1.00068e-08
1.00073e-08
1.00093e-08
1.0016e-08
1.00162e-08
1.00144e-08
1.00145e-08
1.00286e-08
1.00291e-08
1.00238e-08
1.00243e-08
1.00449e-08
1.0035e-08
1.00435e-08
1.00335e-08
1.00454e-08
1.00353e-08
1.0044e-08
1.0034e-08
1.00366e-08
1.00306e-08
1.00412e-08
1.0032e-08
1.00371e-08
1.00312e-08
1.00418e-08
1.00326e-08
1.00474e-08
1.00375e-08
1.0048e-08
1.0038e-08
1.0016e-08
1.00252e-08
1.00328e-08
1.0033e-08
1.00446e-08
1.00429e-08
1.00605e-08
1.006e-08
1.00616e-08
1.00614e-08
1.0061e-08
1.00625e-08
1.006e-08
1.00622e-08
1.00611e-08
1.00624e-08
1.00604e-08
1.00622e-08
1.00592e-08
1.00614e-08
1.00594e-08
1.00618e-08
1.00594e-08
1.00615e-08
1.00597e-08
1.00618e-08
1.00559e-08
1.00557e-08
1.00557e-08
1.00549e-08
1.00562e-08
1.00563e-08
1.0056e-08
1.00554e-08
1.00563e-08
1.00553e-08
1.0056e-08
1.00549e-08
1.00565e-08
1.00556e-08
1.00562e-08
1.00553e-08
1.00079e-08
1.0006e-08
1.00061e-08
1.00077e-08
1.00131e-08
9.9795e-09
1.00038e-08
1.0004e-08
1.00051e-08
1.0006e-08
1.00083e-08
1.00098e-08
1.00105e-08
1.00125e-08
1.00172e-08
1.00173e-08
1.00257e-08
1.00258e-08
1.00209e-08
1.00213e-08
1.00186e-08
1.00188e-08
1.00295e-08
1.00428e-08
1.00311e-08
1.00405e-08
1.00301e-08
1.00429e-08
1.00316e-08
1.00405e-08
1.0027e-08
1.00334e-08
1.00264e-08
1.00374e-08
1.00275e-08
1.00334e-08
1.00269e-08
1.00373e-08
1.00474e-08
1.00365e-08
1.00472e-08
1.00355e-08
1.00478e-08
1.0037e-08
1.00476e-08
1.00361e-08
1.00453e-08
1.00331e-08
1.00465e-08
1.00345e-08
1.00456e-08
1.00337e-08
1.00469e-08
1.00351e-08
1.00126e-08
1.00288e-08
1.00385e-08
1.00538e-08
1.00545e-08
1.00579e-08
1.00575e-08
1.00586e-08
1.006e-08
1.00592e-08
1.00603e-08
1.00591e-08
1.00604e-08
1.00575e-08
1.00577e-08
1.00595e-08
1.00607e-08
1.00583e-08
1.00587e-08
1.00561e-08
1.0056e-08
1.00564e-08
1.00561e-08
1.00566e-08
1.00567e-08
1.00571e-08
1.00572e-08
1.00552e-08
1.00531e-08
1.00558e-08
1.00543e-08
1.00067e-08
1.00062e-08
1.00076e-08
1.00131e-08
1.00263e-08
9.96767e-09
1.0004e-08
1.0004e-08
1.00052e-08
1.00061e-08
1.00104e-08
1.00126e-08
1.00257e-08
1.00538e-08
1.00306e-08
1.00307e-08
1.00408e-08
1.00409e-08
1.00296e-08
1.00253e-08
1.00264e-08
1.00278e-08
1.00298e-08
1.00257e-08
1.00267e-08
1.00282e-08
1.0028e-08
1.00283e-08
1.00319e-08
1.00462e-08
1.00327e-08
1.00456e-08
1.00324e-08
1.00465e-08
1.00333e-08
1.00458e-08
1.00308e-08
1.00407e-08
1.003e-08
1.00442e-08
1.00313e-08
1.00408e-08
1.00305e-08
1.00443e-08
1.00465e-08
1.00337e-08
1.00469e-08
1.00343e-08
1.00092e-08
1.00229e-08
1.00464e-08
1.00471e-08
1.00476e-08
1.00517e-08
1.00538e-08
1.00565e-08
1.00579e-08
1.00589e-08
1.00601e-08
1.00545e-08
1.00542e-08
1.00565e-08
1.0053e-08
1.00576e-08
1.00572e-08
1.00589e-08
1.00565e-08
1.00518e-08
1.0052e-08
1.00499e-08
1.00521e-08
1.00558e-08
1.00555e-08
1.0054e-08
1.00558e-08
1.00526e-08
1.00502e-08
1.00528e-08
1.00502e-08
1.00555e-08
1.00535e-08
1.00551e-08
1.00526e-08
1.00544e-08
1.00523e-08
1.00535e-08
1.00513e-08
1.00554e-08
1.00537e-08
1.0055e-08
1.0053e-08
1.00063e-08
1.00076e-08
1.0013e-08
1.00262e-08
9.96767e-09
1.0004e-08
1.00047e-08
1.00055e-08
1.00103e-08
1.00163e-08
1.00319e-08
1.00765e-08
1.00739e-08
1.00747e-08
1.008e-08
1.00804e-08
1.00427e-08
1.00405e-08
1.00476e-08
1.00478e-08
1.00431e-08
1.00411e-08
1.00485e-08
1.00488e-08
1.00631e-08
1.00644e-08
1.00369e-08
1.00294e-08
1.00293e-08
1.00326e-08
1.00371e-08
1.00299e-08
1.00296e-08
1.00329e-08
1.00407e-08
1.0036e-08
1.00416e-08
1.0034e-08
1.00409e-08
1.00366e-08
1.00416e-08
1.00345e-08
1.00327e-08
1.00519e-08
1.00332e-08
1.00535e-08
1.00332e-08
1.00518e-08
1.00337e-08
1.00538e-08
1.0007e-08
1.00157e-08
1.00394e-08
1.00638e-08
1.00577e-08
1.00585e-08
1.00574e-08
1.00592e-08
1.00579e-08
1.00595e-08
1.00557e-08
1.00581e-08
1.00591e-08
1.00572e-08
1.00582e-08
1.00597e-08
1.00603e-08
1.00591e-08
1.00487e-08
1.00517e-08
1.00506e-08
1.00506e-08
1.00523e-08
1.00548e-08
1.00539e-08
1.00539e-08
1.00473e-08
1.00507e-08
1.0047e-08
1.00502e-08
1.00508e-08
1.00538e-08
1.00503e-08
1.00534e-08
1.00515e-08
1.00473e-08
1.00545e-08
1.00503e-08
1.00074e-08
1.00127e-08
1.00259e-08
9.96767e-09
1.00034e-08
1.00058e-08
1.00066e-08
1.00208e-08
1.00905e-08
1.01018e-08
1.00938e-08
1.00939e-08
1.01101e-08
1.01101e-08
1.01052e-08
1.0109e-08
1.0107e-08
1.01081e-08
1.00551e-08
1.00521e-08
1.00583e-08
1.00587e-08
1.00563e-08
1.00535e-08
1.00599e-08
1.00603e-08
1.00779e-08
1.00865e-08
1.00868e-08
1.00797e-08
1.00811e-08
1.00903e-08
1.00904e-08
1.00835e-08
1.005e-08
1.00339e-08
1.00343e-08
1.00467e-08
1.00499e-08
1.00344e-08
1.00348e-08
1.00466e-08
1.0054e-08
1.00468e-08
1.0054e-08
1.00421e-08
1.0055e-08
1.00481e-08
1.00546e-08
1.00431e-08
1.00075e-08
1.00096e-08
1.00284e-08
1.00606e-08
1.00693e-08
1.00723e-08
1.00647e-08
1.00669e-08
1.00618e-08
1.0063e-08
1.00587e-08
1.00581e-08
1.00588e-08
1.00581e-08
1.00602e-08
1.00597e-08
1.00603e-08
1.00597e-08
1.00583e-08
1.00582e-08
1.00576e-08
1.00576e-08
1.00559e-08
1.00576e-08
1.00598e-08
1.00597e-08
1.00591e-08
1.00592e-08
1.00578e-08
1.0059e-08
1.00537e-08
1.00538e-08
1.00562e-08
1.00563e-08
1.00476e-08
1.00518e-08
1.00488e-08
1.00508e-08
1.00516e-08
1.0055e-08
1.00527e-08
1.00541e-08
1.00123e-08
1.00254e-08
9.96767e-09
1.00034e-08
1.00054e-08
1.0009e-08
1.00655e-08
1.01478e-08
1.02774e-08
1.0112e-08
1.01127e-08
1.01506e-08
1.01516e-08
1.01234e-08
1.01035e-08
1.01196e-08
1.01237e-08
1.01219e-08
1.01029e-08
1.01098e-08
1.01308e-08
1.01084e-08
1.01254e-08
1.01298e-08
1.01266e-08
1.01244e-08
1.01237e-08
1.01246e-08
1.01229e-08
1.01263e-08
1.01251e-08
1.01269e-08
1.01246e-08
1.00686e-08
1.00637e-08
1.0074e-08
1.0072e-08
1.00719e-08
1.00664e-08
1.00779e-08
1.00753e-08
1.00924e-08
1.0094e-08
1.00976e-08
1.01005e-08
1.00386e-08
1.00548e-08
1.00394e-08
1.00551e-08
1.00628e-08
1.0055e-08
1.00651e-08
1.0057e-08
1.00117e-08
1.00085e-08
1.00161e-08
1.00488e-08
1.00751e-08
1.00737e-08
1.00753e-08
1.00778e-08
1.00654e-08
1.00705e-08
1.00599e-08
1.00647e-08
1.00584e-08
1.00599e-08
1.00613e-08
1.00582e-08
1.00587e-08
1.0059e-08
1.00618e-08
1.00632e-08
1.00636e-08
1.00616e-08
1.00601e-08
1.00604e-08
1.00579e-08
1.00571e-08
1.00596e-08
1.00588e-08
1.00564e-08
1.00548e-08
1.00547e-08
1.00564e-08
1.00516e-08
1.00555e-08
1.00585e-08
1.00571e-08
1.00573e-08
1.00581e-08
1.00547e-08
1.00577e-08
1.00539e-08
1.00511e-08
1.00565e-08
1.00545e-08
1.00244e-08
9.96767e-09
1.00027e-08
1.00058e-08
1.00244e-08
1.00584e-08
1.02729e-08
1.02276e-08
1.02337e-08
1.02706e-08
1.02909e-08
1.01285e-08
1.01288e-08
1.01544e-08
1.01569e-08
1.01158e-08
1.01317e-08
1.01283e-08
1.01133e-08
1.01375e-08
1.01371e-08
1.01237e-08
1.01409e-08
1.01199e-08
1.0135e-08
1.0147e-08
1.01438e-08
1.01514e-08
1.01437e-08
1.01493e-08
1.01463e-08
1.01547e-08
1.01453e-08
1.01549e-08
1.01498e-08
1.00839e-08
1.00816e-08
1.00893e-08
1.00861e-08
1.00231e-08
1.00115e-08
1.00121e-08
1.00284e-08
1.00729e-08
1.0079e-08
1.00811e-08
1.00744e-08
1.00787e-08
1.00675e-08
1.00692e-08
1.00597e-08
1.00603e-08
1.00727e-08
1.00742e-08
1.00653e-08
1.00662e-08
1.00534e-08
1.00543e-08
1.00504e-08
1.00552e-08
1.00537e-08
1.00534e-08
1.00585e-08
1.0059e-08
1.00563e-08
1.00606e-08
1.00598e-08
1.00588e-08
1.00494e-08
1.00554e-08
1.00534e-08
1.00575e-08
1.0054e-08
1.00587e-08
1.00573e-08
1.00603e-08
1.00561e-08
1.0053e-08
1.0059e-08
1.00563e-08
1.00548e-08
1.00505e-08
1.00543e-08
1.00497e-08
1.00578e-08
1.00537e-08
1.00572e-08
1.00533e-08
9.96766e-09
1.0003e-08
1.00097e-08
1.00222e-08
1.01255e-08
1.0439e-08
1.02336e-08
1.02377e-08
1.02956e-08
1.03084e-08
1.01431e-08
1.01579e-08
1.01427e-08
1.01531e-08
1.01428e-08
1.01593e-08
1.01424e-08
1.01522e-08
1.0184e-08
1.01861e-08
1.01775e-08
1.01682e-08
1.01622e-08
1.01592e-08
1.01855e-08
1.01716e-08
1.01697e-08
1.01641e-08
9.96767e-09
1.00216e-08
1.00131e-08
1.00205e-08
1.00502e-08
1.00733e-08
1.00731e-08
1.00844e-08
1.00866e-08
1.0079e-08
1.0079e-08
1.00769e-08
1.0082e-08
1.0071e-08
1.00758e-08
1.00603e-08
1.00581e-08
1.0077e-08
1.00824e-08
1.00656e-08
1.00641e-08
1.00533e-08
1.00541e-08
1.00485e-08
1.00495e-08
1.00555e-08
1.00522e-08
1.00578e-08
1.00586e-08
1.00546e-08
1.00534e-08
1.00604e-08
1.00576e-08
1.00495e-08
1.00547e-08
1.00536e-08
1.00586e-08
1.00106e-08
1.00053e-08
1.0022e-08
1.02972e-08
1.0507e-08
1.05577e-08
1.06284e-08
1.07336e-08
1.03117e-08
1.03218e-08
1.03896e-08
1.04103e-08
1.01644e-08
1.01875e-08
1.01629e-08
1.0194e-08
1.01645e-08
1.01897e-08
1.01607e-08
1.01906e-08
1.02331e-08
1.02275e-08
1.02404e-08
1.02254e-08
1.02316e-08
1.02349e-08
1.02337e-08
1.02317e-08
1.01923e-08
1.0178e-08
1.02011e-08
1.01847e-08
9.9677e-09
1.00204e-08
1.0019e-08
1.00359e-08
1.00786e-08
1.0083e-08
1.00879e-08
1.0077e-08
1.00835e-08
1.00711e-08
1.00783e-08
1.00772e-08
1.00702e-08
1.00723e-08
1.00738e-08
1.00825e-08
1.00797e-08
1.00817e-08
1.00816e-08
1.00634e-08
1.00582e-08
1.00607e-08
1.00556e-08
1.00733e-08
1.0072e-08
1.00682e-08
1.00651e-08
1.00111e-08
1.00071e-08
1.00785e-08
1.04931e-08
1.06788e-08
1.08337e-08
1.07699e-08
1.09571e-08
1.02942e-08
1.02883e-08
1.03912e-08
1.03651e-08
1.03846e-08
1.03696e-08
1.02887e-08
1.03095e-08
1.04261e-08
1.03766e-08
1.04235e-08
1.03844e-08
1.051e-08
1.05865e-08
1.01904e-08
1.01991e-08
1.0174e-08
1.02321e-08
1.01918e-08
1.02019e-08
1.01711e-08
1.02241e-08
1.02766e-08
1.02603e-08
1.02679e-08
1.02778e-08
9.96776e-09
1.00206e-08
1.00334e-08
1.00599e-08
1.00879e-08
1.00874e-08
1.00845e-08
1.0084e-08
1.00856e-08
1.00887e-08
1.00728e-08
1.00785e-08
1.00629e-08
1.00642e-08
1.00585e-08
1.00543e-08
1.00619e-08
1.00592e-08
1.007e-08
1.00712e-08
1.00661e-08
1.00615e-08
1.00731e-08
1.00711e-08
1.0062e-08
1.00581e-08
1.00731e-08
1.00693e-08
1.00626e-08
1.00559e-08
1.00732e-08
1.00665e-08
1.00025e-08
1.0016e-08
1.01505e-08
1.0791e-08
1.10126e-08
1.05318e-08
1.06036e-08
1.09688e-08
1.13326e-08
1.09312e-08
1.12596e-08
1.03362e-08
1.03426e-08
1.04911e-08
1.04241e-08
1.05031e-08
1.04351e-08
1.03301e-08
1.03811e-08
1.05744e-08
1.04193e-08
1.0603e-08
1.04457e-08
1.05651e-08
1.06406e-08
1.05359e-08
1.0611e-08
1.07089e-08
1.08164e-08
1.06382e-08
1.07546e-08
9.96801e-09
1.0025e-08
1.00597e-08
1.00937e-08
1.00999e-08
1.01002e-08
1.0092e-08
1.00939e-08
1.00854e-08
1.00884e-08
1.00619e-08
1.00612e-08
1.0072e-08
1.00628e-08
1.00613e-08
1.00705e-08
1.00766e-08
1.00688e-08
1.00674e-08
1.00753e-08
1.00685e-08
1.00683e-08
1.00571e-08
1.00593e-08
1.00521e-08
1.00529e-08
1.00629e-08
1.00678e-08
1.00586e-08
1.00602e-08
1.00597e-08
1.00534e-08
1.00697e-08
1.00611e-08
1.00066e-08
1.00225e-08
1.00786e-08
1.05081e-08
1.05456e-08
1.02442e-08
1.02462e-08
1.07391e-08
1.08541e-08
1.11944e-08
1.12296e-08
1.13424e-08
1.11297e-08
1.11199e-08
1.12646e-08
1.15271e-08
1.17204e-08
1.17219e-08
1.16048e-08
1.08021e-08
1.09222e-08
1.06376e-08
1.04973e-08
1.08051e-08
1.04974e-08
1.06723e-08
1.07604e-08
1.10141e-08
1.10678e-08
9.96885e-09
1.0039e-08
1.0097e-08
1.01242e-08
1.01245e-08
1.01192e-08
1.01162e-08
1.01049e-08
1.01046e-08
1.00965e-08
1.00974e-08
1.00852e-08
1.00873e-08
1.00785e-08
1.00813e-08
1.00779e-08
1.00816e-08
1.0087e-08
1.00809e-08
1.00845e-08
1.00892e-08
1.00805e-08
1.00827e-08
1.00596e-08
1.00536e-08
1.00615e-08
1.00577e-08
1.00663e-08
1.00662e-08
1.00627e-08
1.00594e-08
1.00085e-08
1.00123e-08
1.00219e-08
1.03077e-08
1.03133e-08
1.01314e-08
1.01286e-08
1.11124e-08
1.12789e-08
1.10617e-08
1.13189e-08
1.13804e-08
1.08944e-08
1.16804e-08
1.17755e-08
1.11295e-08
1.16804e-08
1.15156e-08
1.11042e-08
1.04011e-08
1.04827e-08
1.06846e-08
1.07298e-08
1.04638e-08
1.05253e-08
1.0789e-08
1.07739e-08
1.09259e-08
1.10827e-08
1.15697e-08
1.16352e-08
9.97127e-09
1.00691e-08
1.01373e-08
1.01308e-08
1.0134e-08
1.01183e-08
1.01203e-08
1.01089e-08
1.01105e-08
1.00882e-08
1.00909e-08
1.00986e-08
1.009e-08
1.00939e-08
1.00964e-08
1.00882e-08
1.00911e-08
1.00994e-08
1.00905e-08
1.00945e-08
1.00971e-08
1.00804e-08
1.00693e-08
1.00787e-08
1.0064e-08
1.00726e-08
1.0067e-08
1.00802e-08
1.00786e-08
1.00071e-08
1.00061e-08
1.01689e-08
1.01039e-08
1.01028e-08
1.01667e-08
1.01356e-08
1.01363e-08
1.03603e-08
1.03199e-08
1.04118e-08
1.03489e-08
1.03305e-08
1.04285e-08
1.12477e-08
1.14188e-08
1.11434e-08
1.1528e-08
1.14676e-08
1.12863e-08
1.18247e-08
1.17879e-08
1.11436e-08
1.19094e-08
1.165e-08
1.13895e-08
1.04422e-08
1.05459e-08
1.05119e-08
1.06251e-08
9.97742e-09
1.01158e-08
1.01579e-08
1.01372e-08
1.0141e-08
1.01261e-08
1.01299e-08
1.01133e-08
1.01123e-08
1.01091e-08
1.011e-08
1.01003e-08
1.01037e-08
1.01164e-08
1.01012e-08
1.01048e-08
1.01148e-08
1.01119e-08
1.0112e-08
1.00833e-08
1.00821e-08
1.00924e-08
1.00919e-08
1.00837e-08
1.00827e-08
1.00927e-08
1.00921e-08
1.00742e-08
1.00684e-08
1.00749e-08
1.00697e-08
1.00018e-08
1.00564e-08
1.02461e-08
1.03039e-08
1.02363e-08
1.02888e-08
1.02161e-08
1.01974e-08
1.03368e-08
1.03687e-08
1.06473e-08
1.03594e-08
1.05071e-08
1.04128e-08
1.02931e-08
1.03468e-08
1.03567e-08
1.03288e-08
1.06014e-08
1.03492e-08
1.0468e-08
1.04007e-08
1.02855e-08
1.03395e-08
1.08765e-08
1.09941e-08
1.10817e-08
1.12217e-08
1.03901e-08
1.05251e-08
1.03966e-08
1.05013e-08
9.99081e-09
1.01658e-08
1.01807e-08
1.01364e-08
1.01415e-08
1.01928e-08
1.0155e-08
1.01612e-08
1.01227e-08
1.01158e-08
1.01192e-08
1.01283e-08
1.01209e-08
1.0124e-08
1.01024e-08
1.01059e-08
1.01002e-08
1.01019e-08
1.01045e-08
1.01022e-08
1.01108e-08
1.01069e-08
1.00856e-08
1.00804e-08
1.00939e-08
1.00864e-08
1.00858e-08
1.00809e-08
1.0095e-08
1.00885e-08
1.00008e-08
1.03013e-08
1.06474e-08
1.04243e-08
1.0274e-08
1.22937e-08
1.05965e-08
1.04032e-08
1.02658e-08
1.15701e-08
1.09569e-08
1.06739e-08
1.0359e-08
1.03215e-08
1.03804e-08
1.06219e-08
1.04705e-08
1.05205e-08
1.03508e-08
1.03728e-08
1.03148e-08
1.05301e-08
1.04627e-08
1.04721e-08
1.06265e-08
1.05335e-08
1.06256e-08
1.05777e-08
1.00166e-08
1.02052e-08
1.01529e-08
1.01446e-08
1.01486e-08
1.01786e-08
1.01305e-08
1.01436e-08
1.01158e-08
1.01065e-08
1.01121e-08
1.0108e-08
1.01142e-08
1.0114e-08
1.01235e-08
1.01234e-08
1.01225e-08
1.01131e-08
1.01173e-08
1.01153e-08
1.01205e-08
1.0121e-08
1.01297e-08
1.01295e-08
1.01e-08
1.00943e-08
1.00874e-08
1.00867e-08
1.01043e-08
1.00932e-08
1.01028e-08
1.00952e-08
1.00047e-08
1.07936e-08
1.29369e-08
1.15196e-08
1.05497e-08
1.01877e-08
1.01609e-08
1.16849e-08
1.07982e-08
1.06315e-08
1.09766e-08
1.06063e-08
1.17237e-08
1.1175e-08
1.15406e-08
2.17322e-08
1.22333e-08
1.33731e-08
1.12282e-08
1.07732e-08
1.05919e-08
1.09591e-08
1.0566e-08
1.14065e-08
1.09307e-08
1.13274e-08
1.72314e-08
1.15988e-08
1.30139e-08
1.03419e-08
1.05792e-08
1.05163e-08
1.08169e-08
1.03352e-08
1.05443e-08
1.04788e-08
1.0799e-08
1.00398e-08
1.02288e-08
1.01463e-08
1.01163e-08
1.01396e-08
1.01426e-08
1.01255e-08
1.01443e-08
1.0147e-08
1.01837e-08
1.01194e-08
1.01429e-08
1.01041e-08
1.01314e-08
1.00923e-08