/*--------------------------------*- C++ -*----------------------------------*\
| =========                 |                                                 |
| \\      /  F ield         | OpenFOAM: The Open Source CFD Toolbox           |
|  \\    /   O peration     | Version:  5.x                                   |
|   \\  /    A nd           | Web:      www.OpenFOAM.org                      |
|    \\/     M anipulation  |                                                 |
\*---------------------------------------------------------------------------*/
FoamFile
{
    version     2.0;
    format      ascii;
    class       surfaceScalarField;
    location    "0.5";
    object      meshPhi;
}
// * * * * * * * * * * * * * * * * * * * * * * * * * * * * * * * * * * * * * //

dimensions      [0 3 -1 0 0 0 0];

internalField   nonuniform List<scalar> 
30582
(
0
0
0
0
0
0
0
0
0
0
0
0
0
0
0
0
0
0
0
0
0
0
0
0
0
0
0
0
0
0
0
0
0
0
0
0
0
0
0
0
0
0
0
0
0
0
0
0
0
0
0
0
0
0
0
0
0
0
0
0
0
0
0
0
0
0
0
0
0
0
0
0
0
0
0
0
0
0
0
0
0
0
0
0
0
0
0
0
0
0
0
0
0
0
0
0
0
0
0
0
0
0
0
0
0
0
0
0
0
0
0
0
0
0
0
0
0
0
0
0
0
0
0
0
0
0
0
0
0
0
0
0
0
0
0
0
0
0
0
0
0
0
0
0
0
0
0
0
0
0
0
0
0
0
0
0
0
0
0
0
0
0
0
0
0
0
0
0
0
0
0
0
0
0
0
0
0
0
0
0
0
0
0
0
0
0
0
0
0
0
0
0
0
0
0
0
0
0
0
0
0
0
0
0
0
0
0
0
0
0
0
0
0
0
0
0
0
0
0
0
0
0
0
0
0
0
0
0
0
0
0
0
0
0
0
0
0
0
0
0
0
0
0
0
0
0
0
0
0
0
0
0
0
0
0
0
0
0
0
0
0
0
0
0
0
0
0
0
0
0
0
0
0
0
0
0
0
0
0
0
0
0
0
0
0
0
0
0
0
0
0
0
0
0
0
0
0
0
0
0
0
0
0
0
0
0
0
0
0
0
0
0
0
0
0
0
0
0
0
0
0
0
0
0
0
0
0
0
0
0
0
0
0
0
0
0
0
0
0
0
0
0
0
0
0
0
0
0
0
0
0
0
0
0
0
0
0
0
0
0
0
0
0
0
0
0
0
0
0
0
0
0
0
0
0
0
0
0
0
0
0
0
0
0
0
0
0
0
0
0
0
0
0
0
0
0
0
0
0
0
0
0
0
0
0
0
0
0
0
0
0
0
0
0
0
0
0
0
0
0
0
0
0
0
0
0
0
0
0
0
0
0
0
0
0
0
0
0
0
0
0
0
0
0
0
0
0
0
0
0
0
0
0
0
0
0
0
0
0
0
0
0
0
0
0
0
0
0
0
0
0
0
0
0
0
0
0
0
0
0
0
0
0
0
0
0
0
0
0
0
0
0
0
0
0
0
0
0
0
0
0
0
0
0
0
0
0
0
0
0
0
0
0
0
0
0
0
0
0
0
0
0
0
0
0
0
0
0
0
0
0
0
0
0
0
0
0
0
0
0
0
0
0
0
0
0
0
0
0
0
0
0
0
0
0
0
0
0
0
0
0
0
0
0
0
0
0
0
0
0
0
0
0
0
0
0
0
0
0
0
0
0
0
0
0
0
0
0
0
0
0
0
0
0
0
0
0
0
0
0
0
0
0
0
0
0
0
0
0
0
0
0
0
0
0
0
0
0
0
0
0
0
0
0
0
0
0
0
0
0
0
0
0
0
0
0
0
0
0
0
0
0
0
0
0
0
0
0
0
0
0
0
0
0
0
0
0
0
0
0
0
0
0
0
0
0
0
0
0
0
0
0
0
0
0
0
0
0
0
0
0
0
0
0
0
0
0
0
0
0
0
0
0
0
0
0
0
0
0
0
0
0
0
0
0
0
0
0
0
0
0
0
0
0
0
0
0
0
0
0
0
0
0
0
0
0
0
0
0
0
0
0
0
0
0
0
0
0
0
0
0
0
0
0
0
0
0
0
0
0
0
0
0
0
0
0
0
0
0
0
0
0
0
0
0
0
0
0
0
0
0
0
0
0
0
0
0
0
0
0
0
0
0
0
0
0
0
0
0
0
0
0
0
0
0
0
0
0
0
0
0
0
0
0
0
0
0
0
0
0
0
0
0
0
0
0
0
0
0
0
0
0
0
0
0
0
0
0
0
0
0
0
0
0
0
0
0
0
0
0
0
0
0
0
0
0
0
0
0
0
0
0
0
0
0
0
0
0
0
0
0
0
0
0
0
0
0
0
0
0
0
0
0
0
0
0
0
0
0
0
0
0
0
0
0
0
0
0
0
0
0
0
0
0
0
0
0
0
0
0
0
0
0
0
0
0
0
0
0
0
0
0
0
0
0
0
0
0
0
0
0
0
0
0
0
0
0
0
0
0
0
0
0
0
0
0
0
0
0
0
0
0
0
0
0
0
0
0
0
0
0
0
0
0
0
0
0
0
0
0
0
0
0
0
0
0
0
0
0
0
0
0
0
0
0
0
0
0
0
0
0
0
0
0
0
0
0
0
0
0
0
0
0
0
0
0
0
0
0
0
0
0
0
0
0
0
0
0
0
0
0
0
0
0
0
0
0
0
0
0
0
0
0
0
0
0
0
0
0
0
0
0
0
0
0
0
0
0
0
0
0
0
0
0
0
0
0
0
0
0
0
0
0
0
0
0
0
0
0
0
0
0
0
0
0
0
0
0
0
0
0
0
0
0
0
0
0
0
0
0
0
0
0
0
0
0
0
0
0
0
0
0
0
0
0
0
0
0
0
0
0
0
0
0
0
0
0
0
0
0
0
0
0
0
0
0
0
0
0
0
0
0
0
0
0
0
0
0
0
0
0
0
0
0
0
0
0
0
0
0
0
0
0
0
0
0
0
0
0
0
0
0
0
0
0
0
0
0
0
0
0
0
0
0
0
0
0
0
0
0
0
0
0
0
0
0
0
0
0
0
0
0
0
0
0
0
0
0
0
0
0
0
0
0
0
0
0
0
0
0
0
0
0
0
0
0
0
0
0
0
0
0
0
0
0
0
0
0
0
0
0
0
0
0
0
0
0
0
0
0
0
0
0
0
0
0
0
0
0
0
0
0
0
0
0
0
0
0
0
0
0
0
0
0
0
0
0
0
0
0
0
0
0
0
0
0
0
0
0
0
0
0
0
0
0
0
0
0
0
0
0
0
0
0
0
0
0
0
0
0
0
0
0
0
0
0
0
0
0
0
0
0
0
0
0
0
0
0
0
0
0
0
0
0
0
0
0
0
0
0
0
0
0
0
0
0
0
0
0
0
0
0
0
0
0
0
0
0
0
0
0
0
0
0
0
0
0
0
0
0
0
0
0
0
0
0
0
0
0
0
0
0
0
0
0
0
0
0
0
0
0
0
0
0
0
0
0
0
0
0
0
0
0
0
0
0
0
0
0
0
0
0
0
0
0
0
0
0
0
0
0
0
0
0
0
0
0
0
0
0
0
0
0
0
0
0
0
0
0
0
0
0
0
0
0
0
0
0
0
0
0
0
0
0
0
0
0
0
0
0
0
0
0
0
0
0
0
0
0
0
0
0
0
0
0
0
0
0
0
0
0
0
0
0
0
0
0
0
0
0
0
0
0
0
0
0
0
0
0
0
0
0
0
0
0
0
0
0
0
0
0
-1.5025e-18
5.29904e-18
-2.15004e-25
1.58952e-17
7.94602e-18
1.06031e-17
0
0
0
0
0
0
0
0
0
0
0
0
0
0
0
0
0
0
0
0
0
0
0
0
0
0
0
0
0
0
0
0
0
0
0
0
0
0
2.64328e-18
8.32161e-35
-3.85575e-19
6.12625e-26
1.32339e-17
-1.05966e-17
-1.4773e-18
1.58952e-17
-2.64882e-18
1.58999e-17
-7.66834e-19
-1.67978e-25
-2.64699e-17
1.91871e-34
-1.13555e-18
1.58868e-17
3.8399e-18
-2.6478e-17
0
0
0
0
0
0
0
0
0
0
0
0
0
0
0
0
0
0
0
0
0
0
0
0
0
0
0
0
0
0
0
0
0
0
0
0
0
4.40342e-19
-2.28086e-18
1.67374e-17
-1.86046e-20
-3.16751e-17
-1.05488e-17
2.11595e-17
-6.94746e-36
-7.55637e-19
7.94037e-18
9.64676e-34
-3.89771e-19
1.07105e-25
1.32027e-17
0
4.49988e-17
-4.42842e-21
-2.11759e-17
-1.18287e-35
3.7025e-19
1.58868e-17
3.8399e-18
-1.58874e-17
-2.38925e-20
1.6854e-24
-1.58461e-17
1.47894e-34
-3.47701e-21
-2.11263e-17
0
0
0
0
0
0
0
0
0
0
0
0
0
0
0
0
0
0
0
0
0
0
0
0
0
0
0
0
0
0
0
0
0
0
0
8.31368e-18
1.58445e-17
1.05471e-17
2.67056e-18
2.70638e-20
1.24595e-34
4.76747e-20
2.85759e-20
1.84945e-17
6.08366e-18
-1.45991e-18
-1.04188e-17
-9.59919e-35
1.27364e-19
7.89535e-18
-1.42306e-18
-1.0528e-17
5.69793e-35
4.17694e-20
-2.64326e-18
0
2.26574e-19
4.6039e-24
4.60157e-18
-7.88401e-18
5.91476e-18
-7.8952e-18
0
0
1.10022e-18
-2.26078e-18
1.08093e-17
6.73933e-21
1.58748e-17
5.25895e-18
-3.16751e-17
-4.77851e-20
-2.11281e-17
-1.20288e-34
-5.28502e-18
-4.22739e-17
0
-2.14258e-24
1.18357e-17
-1.31359e-18
1.18278e-17
-2.63677e-18
0
-5.27518e-18
1.36206e-18
-5.3178e-18
5.27291e-18
-6.59519e-18
5.31014e-18
-6.6643e-18
1.32372e-18
0
0
0
0
0
0
0
0
0
0
0
0
0
0
0
0
0
0
0
0
0
0
0
0
0
0
0
0
0
0
0
0
0
-7.29177e-18
1.32567e-17
-1.05828e-17
7.94464e-18
5.36344e-18
-4.1711e-35
-2.28058e-18
1.5827e-17
1.44049e-18
-2.10557e-17
-1.56231e-34
5.36879e-18
7.95696e-18
0
-2.12666e-17
5.42252e-36
-1.12956e-11
-3.04103e-12
-1.12986e-09
4.54401e-14
-1.66931e-13
8.86404e-09
1.29349e-13
8.97144e-09
-7.87713e-11
4.80022e-19
-9.27631e-20
3.03255e-19
9.31703e-20
-2.67976e-18
1.02681e-17
6.73257e-19
6.35959e-18
1.2241e-18
1.98126e-34
-3.5672e-17
5.24384e-13
8.76974e-09
-7.00268e-15
1.76991e-08
3.70587e-19
6.43001e-19
1.43976e-17
2.62359e-18
1.83614e-17
0
-2.05221e-19
5.9204e-18
-2.6301e-18
8.54103e-18
-5.25797e-18
4.30576e-19
4.40119e-20
0
-2.74495e-19
4.58677e-18
4.38521e-20
4.4363e-19
1.47207e-24
-2.61806e-18
0
3.04255e-23
-6.80733e-17
5.13695e-19
-5.23735e-18
0
0
-2.16249e-17
2.67064e-18
5.34188e-18
-9.15822e-21
1.05471e-17
0
7.58135e-19
6.90934e-19
2.63053e-18
-3.79994e-18
-1.423e-18
-1.13224e-33
0
8.62873e-23
7.90153e-18
-1.51729e-18
-5.25328e-18
-4.3743e-20
7.23122e-18
-2.62757e-18
4.60083e-18
-2.6333e-18
0
-5.27083e-18
2.68038e-18
-7.9538e-18
5.26968e-18
-7.90731e-18
6.63464e-18
-6.65144e-18
2.63819e-18
6.52251e-19
4.39489e-20
-7.48614e-19
4.57992e-18
0
4.37851e-20
-4.58761e-26
-4.58192e-18
-5.09859e-26
3.27287e-18
0
9.07428e-22
-7.44841e-19
0
0
1.04704e-17
1.39481e-25
-7.0864e-19
5.24386e-13
0
7.41556e-11
-7.82723e-18
-5.35454e-19
8.74707e-20
9.14764e-18
4.34713e-20
-7.0834e-19
-5.27439e-18
1.98503e-17
-5.23838e-18
0
0
0
0
0
0
0
0
0
0
0
0
0
0
0
0
0
0
0
0
0
0
0
0
0
0
0
0
0
0
0
2.94747e-18
9.21125e-21
-5.27031e-18
5.36914e-18
-5.34398e-18
-1.33204e-35
-6.6771e-19
-7.97723e-18
7.4224e-18
-2.11673e-17
-1.87529e-35
-5.19533e-20
2.63215e-18
6.12351e-18
-1.05543e-17
5.8698e-26
2.54441e-09
-1.88781e-12
7.95083e-09
4.38591e-11
8.72105e-09
5.563e-09
-2.58921e-18
1.05913e-17
8.31011e-13
-6.37396e-11
-2.03969e-27
-2.47934e-09
2.07338e-10
8.00043e-10
-7.39569e-11
2.55078e-10
-5.41993e-09
-7.65464e-13
-3.96577e-10
-6.75885e-13
1.29905e-10
-3.74621e-20
-2.03346e-19
-5.81152e-19
-5.34871e-13
0
-1.22358e-13
-7.77824e-14
2.51933e-17
-6.50175e-35
-9.44347e-09
-3.45532e-17
-1.0433e-24
2.83171e-13
1.05527e-17
-1.82546e-34
-4.98603e-11
-2.62026e-18
0
1.14953e-09
8.70548e-09
4.28413e-20
-2.62054e-19
-5.31405e-18
0
3.30447e-19
-4.11236e-20
5.73856e-18
-7.00098e-19
2.18385e-18
3.33567e-19
-3.58664e-20
-9.55587e-20
7.91192e-18
-6.46642e-19
-1.25204e-17
2.71922e-19
9.20967e-18
0
-2.79674e-13
3.77561e-12
6.99186e-13
2.4961e-11
6.20141e-35
1.04387e-08
-1.10481e-09
7.41455e-20
1.05328e-17
-2.3201e-35
-8.57341e-18
0
2.84034e-19
7.47319e-19
2.5692e-18
-5.296e-19
-6.13858e-18
2.21255e-18
3.70604e-20
5.26039e-18
-9.8855e-18
3.5987e-19
4.4012e-20
0
-5.50196e-19
5.90065e-18
8.77041e-20
3.95342e-19
-2.61788e-18
0
-6.28364e-17
2.90889e-19
-1.04974e-17
-1.19311e-09
4.41156e-20
0
1.12431e-09
1.35465e-11
-4.34906e-20
6.29271e-14
3.92792e-23
-1.67429e-13
0
1.96545e-22
8.79149e-09
4.19521e-14
-8.74642e-15
0
0
-7.29177e-18
7.9888e-18
-5.27417e-18
-2.67384e-18
-5.25483e-18
2.48131e-34
2.19066e-18
7.1776e-19
5.33506e-18
-1.56044e-18
5.81514e-20
0
-2.95945e-34
2.66017e-18
0
0
6.45405e-18
9.75447e-09
-2.09756e-12
9.40774e-09
-5.24927e-18
-1.74607e-16
-1.3022e-18
3.70542e-19
-5.19236e-18
6.63285e-18
-2.62351e-18
1.44241e-17
0
-1.075e-12
-7.79375e-11
3.84494e-14
-6.82582e-13
9.23893e-09
-9.31065e-18
-3.58739e-16
-1.22872e-09
5.50764e-22
1.25111e-18
-6.52582e-19
1.75047e-20
2.24658e-17
-3.29194e-18
2.11735e-17
2.09795e-18
5.33313e-19
4.39491e-20
-7.60027e-19
1.3774e-17
4.37737e-20
4.37873e-20
-6.54553e-19
7.85466e-18
-1.26366e-36
-1.31342e-18
-5.35556e-19
8.75947e-20
0
1.30939e-17
-4.35701e-20
-7.88798e-19
2.8666e-13
0
8.95382e-09
-9.152e-18
-6.95726e-19
4.37347e-20
1.50595e-17
0
-7.69696e-19
-1.31192e-18
9.19264e-18
5.25681e-34
3.50468e-19
-8.82028e-20
-1.53083e-18
1.44532e-17
0
1.59361e-19
-1.18287e-24
-5.40722e-22
-5.46403e-24
2.60523e-17
5.37538e-20
-1.31319e-18
8.75867e-20
0
-8.76367e-09
-8.4776e-14
-4.37791e-20
5.13424e-18
-1.93492e-18
0
0
0
0
0
0
0
0
0
0
0
0
0
0
0
0
0
0
0
0
0
0
0
0
0
0
0
0
0
-9.0424e-18
1.32681e-17
-1.23896e-20
-2.6379e-18
-2.50747e-20
-4.73138e-34
-1.31819e-18
1.05292e-17
1.19455e-17
-1.05008e-17
-7.263e-34
3.14775e-18
-1.0619e-17
3.14872e-18
-1.04067e-17
-2.09382e-26
-2.43008e-09
8.52706e-11
-8.97292e-09
-2.17846e-09
-8.97552e-09
-5.31302e-09
4.94529e-13
-1.65937e-10
-4.36995e-13
4.35143e-09
-6.37917e-27
3.59797e-11
-2.24926e-09
9.01122e-09
-2.20942e-09
8.92961e-09
7.64145e-11
2.16311e-13
4.50485e-09
4.04216e-13
4.41517e-09
-3.98146e-20
3.39106e-12
-6.99177e-13
1.08572e-08
-5.91024e-35
-1.10392e-09
1.23751e-19
-2.76963e-09
1.69348e-17
8.16805e-27
-9.83958e-13
-1.17132e-17
0
-1.91587e-18
2.69923e-18
3.57564e-19
-6.92336e-18
-4.12013e-20
1.04514e-12
6.50923e-18
5.5386e-09
-1.88578e-17
0
-3.77561e-12
2.62323e-09
1.03276e-17
-1.07913e-08
8.1044e-27
9.79635e-13
-1.28484e-16
-4.23378e-20
1.33777e-17
-7.68451e-27
-6.65873e-18
-8.33629e-20
-8.10764e-19
-9.79589e-13
4.73857e-18
3.89415e-18
-5.24568e-09
3.55844e-18
4.22954e-20
8.02656e-18
-1.06415e-17
-3.20127e-20
2.44716e-13
-2.12172e-25
-1.32605e-18
-5.33246e-18
-4.26195e-35
7.02361e-35
1.49409e-09
1.49271e-20
3.49588e-14
-2.50403e-34
-4.72805e-09
-7.78083e-34
2.87094e-20
-1.69931e-34
-4.41925e-19
-6.21979e-19
1.0922e-18
-1.49381e-20
-2.62454e-19
1.04247e-19
2.91339e-25
5.00693e-19
5.54699e-19
-6.87598e-19
-7.4793e-36
2.47955e-17
1.94388e-20
-2.51581e-34
-2.29253e-34
7.44728e-20
-4.23326e-19
-6.72102e-19
-1.24723e-18
0
4.39369e-11
0
0
1.16181e-09
-8.87246e-09
8.69798e-20
3.10219e-19
7.37225e-15
0
-8.79953e-09
1.74803e-14
-8.3034e-14
-6.56543e-10
-7.95011e-27
4.22555e-34
7.38755e-10
-2.2859e-20
-6.2927e-14
-2.15347e-22
1.98151e-34
-3.69934e-22
-4.19511e-14
0
0
3.0715e-18
5.34307e-18
-7.11691e-33
-5.27913e-18
-5.28846e-18
7.67318e-36
4.55261e-18
-2.09154e-19
2.61952e-18
-7.37182e-18
6.22931e-18
-3.16894e-17
6.70459e-36
2.60631e-18
-2.11318e-17
8.94446e-27
-2.54438e-09
-2.47938e-09
2.0968e-10
9.89006e-09
-7.57882e-11
9.21684e-09
-5.56306e-09
-5.41993e-09
-7.93869e-13
-3.96564e-10
-6.74425e-13
1.29918e-10
-2.5739e-25
-6.46748e-13
1.74901e-08
4.37371e-11
8.72112e-09
-1.94182e-18
7.94346e-18
8.33926e-13
-6.37134e-11
3.83262e-20
-1.7166e-19
-3.74939e-12
-2.44715e-13
-1.33771e-17
0
-1.04385e-08
-8.67751e-09
7.41577e-20
4.401e-19
9.22649e-18
0
-7.87667e-18
-7.86716e-18
3.83006e-20
1.82532e-19
3.81151e-19
2.03833e-20
2.67461e-19
-2.62403e-18
3.34412e-18
-3.70561e-20
3.71062e-19
3.9424e-18
-5.06427e-19
-1.24862e-17
-2.38319e-24
-6.93582e-19
-3.58334e-13
-5.3487e-13
1.19271e-24
8.04062e-14
1.3197e-13
8.50361e-19
0
-9.44345e-09
-1.92615e-09
3.58875e-20
1.31321e-17
0
-1.11644e-17
0
-1.354e-10
1.81734e-08
-3.74598e-20
-3.11657e-19
2.13452e-19
-1.35929e-19
4.28413e-20
-1.62607e-19
-2.65349e-18
2.80541e-19
-2.42256e-18
2.18378e-18
3.58662e-20
5.27125e-18
-5.8727e-18
2.37934e-19
1.71562e-17
7.38807e-19
-4.41009e-20
-1.81721e-18
1.83921e-17
1.1081e-33
8.67619e-20
-1.30238e-18
1.43314e-17
-1.24028e-19
-6.00604e-22
-4.37916e-20
0
8.82285e-09
2.17616e-13
-4.37798e-20
1.55016e-17
-1.94039e-18
-2.29238e-19
-2.41261e-20
-2.94885e-19
-2.2845e-20
5.66043e-20
-2.96127e-24
1.65787e-23
-2.96542e-20
0
9.06511e-35
-2.6071e-20
0
0
0
0
0
0
0
0
0
0
0
0
0
0
0
0
0
0
0
0
0
0
0
0
0
0
0
0
3.97447e-17
4.38383e-34
4.60704e-18
-5.31867e-18
1.4895e-17
-5.23574e-18
1.98962e-33
4.4362e-18
2.61752e-18
-9.03858e-18
-1.58745e-17
-2.60609e-25
-3.11681e-18
2.08679e-09
1.4952e-17
4.56689e-09
-3.28599e-34
-7.49757e-18
1.32058e-17
1.55027e-17
-2.64121e-17
-4.05406e-20
-1.32845e-12
-3.29948e-18
-1.40554e-10
0
-1.23222e-16
1.61383e-24
2.65922e-09
-1.31525e-17
0
1.33282e-12
5.26735e-18
8.10147e-20
-3.99933e-19
-1.98668e-18
-4.18197e-18
1.18112e-17
-4.10935e-20
-8.95832e-13
-8.76051e-21
-5.31673e-09
9.87232e-18
4.19207e-20
-1.78293e-12
-5.67423e-11
1.3634e-12
-2.44235e-10
0
2.42854e-10
9.01252e-09
0
-1.31641e-17
0
4.58349e-18
-4.18709e-20
-1.3105e-18
2.97156e-13
-5.29024e-18
1.51408e-18
1.20387e-10
1.45075e-17
-4.16687e-20
-6.57906e-18
9.85634e-18
2.23537e-20
1.74795e-13
2.38772e-11
-7.19084e-35
2.52618e-20
1.74795e-13
-2.03865e-34
-5.73027e-11
2.23639e-20
-4.57114e-19
9.4433e-19
-2.5276e-20
-5.54692e-19
1.46828e-18
3.99392e-20
-2.24785e-18
1.25933e-18
3.8271e-18
-5.32873e-17
-6.68761e-35
7.98361e-18
3.30073e-16
-3.25529e-20
-2.95092e-34
3.99413e-20
7.50139e-20
-3.67742e-19
7.29493e-19
3.54828e-18
-7.35475e-19
-2.03531e-17
-3.25576e-20
4.45845e-11
0
2.85852e-34
6.41456e-10
2.28581e-20
-3.75812e-14
1.30782e-34
-1.74796e-14
0
0
1.49248e-17
-2.64409e-18
-5.31155e-18
-7.92613e-18
1.06064e-17
-4.87985e-35
1.31819e-18
6.14071e-18
-4.87106e-20
-8.99809e-18
-3.55846e-32
-2.11075e-17
-3.3225e-34
5.22162e-18
-2.10873e-17
2.8311e-27
2.43019e-09
-8.4397e-18
-3.05457e-12
-9.01144e-09
-2.20504e-09
-8.9304e-09
5.31314e-09
1.04901e-17
-2.65044e-18
7.94672e-18
3.84548e-13
4.41526e-09
2.09382e-26
8.51679e-11
-8.97286e-09
-2.17858e-09
-8.97557e-09
4.96709e-13
-1.65917e-10
-4.36993e-13
4.35143e-09
0
-4.82439e-12
2.62318e-09
9.17543e-18
-1.09646e-08
0
9.79635e-13
-1.23335e-16
-4.23349e-20
2.76953e-09
1.47351e-17
0
9.54098e-13
-2.73708e-18
0
-8.48987e-19
-9.7959e-13
4.85925e-18
5.66503e-18
-5.24568e-09
8.30363e-19
0
-1.01528e-12
5.39166e-18
-5.5386e-09
-1.07128e-17
3.98138e-20
3.53089e-12
2.44715e-13
1.08572e-08
0
-8.70385e-09
-2.58902e-24
7.91648e-18
0
-5.89923e-18
-3.63663e-34
-1.19258e-18
-1.2068e-18
4.05652e-19
7.04561e-18
4.12016e-20
3.93272e-18
-1.23998e-17
0
3.49595e-14
1.14492e-12
-5.35328e-09
0
5.71848e-09
-1.94264e-20
-8.0406e-14
0
4.23168e-09
-1.58087e-33
-4.99918e-20
-5.7235e-21
3.64227e-19
-6.23743e-19
0
2.62469e-19
-1.10008e-18
-9.60363e-20
7.42886e-14
-2.12173e-25
-2.11537e-18
-4.2113e-18
0
1.60234e-34
7.73286e-10
0
0
3.20005e-20
6.71579e-20
-1.71524e-34
-1.57438e-19
2.04076e-18
-4.68215e-19
0
4.32998e-19
0
-7.08416e-19
-2.28462e-20
-6.64566e-21
-3.04668e-20
2.60793e-20
2.08408e-34
0
0
0
0
0
0
0
0
0
0
0
0
0
0
0
0
0
0
0
0
0
0
0
0
0
0
0
0
1.57065e-18
-5.3916e-35
-1.18024e-17
-1.0602e-17
-2.11838e-17
-4.21129e-22
-1.05947e-17
-1.56472e-33
-1.54088e-18
2.66447e-18
5.61047e-18
-1.57509e-17
-1.10725e-33
5.3059e-18
-2.11503e-17
0
-1.50978e-18
-5.59351e-13
-2.53517e-10
7.96796e-18
-6.56948e-18
-5.40335e-17
-3.91882e-18
-6.14822e-19
-1.58629e-18
8.35354e-18
9.26264e-18
-3.93578e-18
1.17842e-17
-1.78335e-20
0
6.37771e-19
1.91867e-18
-9.28964e-18
4.55639e-18
-1.05596e-17
7.48026e-18
5.91695e-18
3.99226e-18
1.12004e-17
0
1.53352e-32
-1.13389e-19
-3.2078e-18
-1.76725e-18
0
1.81728e-17
0
3.83865e-18
-9.12243e-18
0
-3.33039e-18
7.79351e-18
0
-7.6852e-19
6.50849e-19
-7.41851e-19
7.05212e-18
-4.05411e-20
3.67112e-19
-1.25993e-18
-3.90172e-18
1.24376e-17
4.2452e-20
-4.80391e-18
-2.52584e-18
2.93754e-18
0
-5.35322e-17
4.84661e-34
-2.56944e-18
0
1.9271e-18
-3.77956e-34
9.76284e-19
2.72263e-18
4.41961e-18
1.1085e-17
-4.23135e-20
-3.9238e-18
5.82949e-18
-7.5556e-33
-2.90963e-19
-2.31384e-35
-2.06154e-17
3.54571e-34
8.71548e-19
1.79123e-18
0
0
0
3.9753e-17
-8.49732e-34
-6.25317e-20
1.41001e-18
-2.66373e-18
-5.80609e-18
-1.20237e-17
-1.06243e-17
-5.22523e-34
-5.52281e-20
-2.11372e-17
3.9764e-36
1.05072e-19
-7.59907e-18
1.32058e-17
-9.13968e-18
1.50969e-17
-5.12623e-18
-2.14231e-35
-8.61924e-18
-1.31238e-18
3.09605e-32
1.78292e-12
-3.47409e-12
-1.36342e-12
2.44235e-10
0
-2.43151e-10
-9.01252e-09
9.51826e-25
-2.65917e-09
-1.18428e-17
0
-1.34156e-12
1.05176e-17
4.18708e-20
-1.5857e-18
1.49096e-18
-3.97938e-18
3.68097e-18
-3.96101e-18
9.86191e-18
0
8.95833e-13
-3.94771e-18
5.31658e-09
1.38263e-17
4.05409e-20
-1.43333e-12
-9.85617e-18
-1.40821e-10
0
-1.19958e-16
1.23425e-19
-1.44744e-17
0
6.59533e-18
4.05069e-20
1.67085e-18
-5.92737e-18
-2.95174e-18
1.43717e-17
4.10921e-20
-5.26142e-18
9.22306e-18
0
-3.61296e-18
5.35584e-19
8.74821e-18
-5.11723e-17
0
8.2058e-18
3.59931e-16
3.2552e-20
-1.74795e-13
0
5.73027e-11
0
-7.52134e-19
-7.25015e-19
-1.41168e-18
4.82692e-18
-1.45719e-18
-1.75734e-17
6.51149e-20
5.54692e-19
-1.46828e-18
4.47019e-20
1.74795e-13
2.38772e-11
0
0
0
-2.00642e-33
-6.8213e-19
1.15861e-18
-2.52759e-20
0
0
0
0
0
0
0
0
0
0
0
0
0
0
0
0
0
0
0
0
0
0
0
0
0
0
-7.97529e-18
2.81496e-33
6.09144e-18
8.78977e-18
2.60953e-18
8.60134e-18
-9.06876e-18
-2.64836e-17
3.97925e-33
-1.06428e-17
-2.64472e-18
0
-1.59012e-17
2.17159e-25
1.49459e-18
2.2321e-09
-1.79168e-13
3.00104e-12
2.26892e-09
2.98967e-18
1.79165e-13
-4.46421e-09
-4.52468e-09
4.47917e-13
1.0421e-33
2.7329e-18
-5.13945e-18
-1.11977e-19
4.07417e-20
0
2.6381e-18
-7.92516e-18
2.20653e-24
-8.4674e-19
1.15366e-12
3.84555e-13
0
1.00825e-08
8.9965e-09
-1.50888e-18
2.66186e-18
-9.33093e-19
4.90632e-35
5.6938e-18
-5.31393e-18
0
-7.96517e-19
-9.40328e-21
3.90783e-18
5.25108e-18
-8.47255e-18
-1.54954e-18
-2.6284e-18
-8.36564e-18
4.12122e-20
0
1.17848e-18
0
-8.92587e-18
-5.01667e-12
-1.43334e-12
0
-3.76608e-10
-8.85647e-09
-5.29e-18
-1.24376e-17
8.23614e-20
6.54079e-18
4.11644e-20
-2.30996e-18
4.01836e-19
1.29867e-18
-3.91368e-18
9.89132e-18
-1.30832e-18
1.62004e-20
-1.1883e-18
5.16266e-19
0
0
8.07876e-19
0
-5.37958e-19
1.62144e-20
2.7305e-19
4.33007e-19
2.39876e-20
8.11977e-19
-1.48869e-18
8.20746e-20
-4.54474e-13
1.39844e-13
9.20945e-09
0
1.86388e-08
0
0
-1.36056e-33
1.90412e-19
5.06119e-18
3.83264e-18
-1.62035e-17
-6.35876e-20
0
0
0
0
-1.53034e-18
-3.06068e-18
-1.19696e-17
-5.32914e-18
-3.71797e-17
2.65562e-18
-1.59135e-17
1.00018e-33
1.44894e-18
-7.96743e-18
-1.17734e-17
-1.58625e-17
1.01348e-33
1.31807e-17
-2.64545e-17
0
1.35547e-18
1.61133e-18
6.5671e-18
-5.94334e-18
5.90198e-18
-5.29277e-18
0
1.80855e-17
9.85699e-18
-5.98354e-18
8.53083e-18
-1.32696e-18
0
-1.45956e-12
-1.04691e-08
3.29204e-18
-2.44716e-12
4.97602e-11
-1.27474e-18
-7.1828e-19
1.1033e-17
3.26722e-18
-2.61917e-18
5.86247e-18
-3.95611e-18
-4.24491e-20
-3.73162e-18
2.44715e-12
3.70519e-18
0
6.6813e-10
-8.46609e-20
-2.93716e-18
-1.04331e-17
0
1.75689e-18
1.94583e-18
8.48551e-20
-1.89182e-18
2.44375e-20
3.52123e-18
2.89268e-18
4.23177e-20
-1.10145e-18
1.31156e-18
3.65523e-18
7.81298e-18
3.84399e-20
1.79298e-18
-2.59463e-18
-2.04927e-18
0
3.83491e-17
-4.05576e-20
-6.54739e-18
0
1.25972e-18
7.68543e-20
2.88392e-19
-5.20612e-18
-2.43363e-18
-2.68466e-18
8.10835e-20
-5.09447e-18
4.62993e-18
-1.16624e-32
-5.57446e-19
0
-2.62047e-17
1.89775e-34
5.08447e-19
4.84161e-19
0
0
0
0
0
0
0
0
0
0
0
0
0
0
0
0
0
0
0
0
0
0
0
0
2.77258e-18
0
-1.50119e-17
1.05842e-17
-1.593e-17
-7.89056e-18
-1.05536e-17
-8.05433e-25
2.53926e-09
-2.42208e-09
2.18048e-09
2.9061e-13
-2.38882e-09
-1.58044e-12
5.54036e-09
-5.29677e-09
-2.90603e-13
-4.3612e-09
1.58045e-12
4.77809e-09
2.53617e-24
2.14485e-09
4.67991e-09
0
9.72252e-11
1.43332e-12
7.10106e-13
-5.91201e-26
-8.91323e-09
0
-1.26664e-25
1.0983e-08
2.38034e-10
-4.16016e-12
4.16015e-12
0
-4.47913e-13
-3.95681e-18
-1.93743e-10
1.18687e-17
8.51461e-20
-6.68066e-18
2.36802e-17
-6.4757e-20
-3.97191e-18
-1.66131e-26
-1.09621e-08
-2.65691e-12
2.1398e-09
-4.17516e-13
-6.60018e-18
-2.85855e-16
1.03426e-17
-8.78888e-19
4.17329e-13
-4.27958e-09
1.36441e-18
1.59233e-17
-6.83551e-09
-3.05026e-20
0
-7.41309e-10
9.89901e-25
6.9916e-14
-9.61371e-14
0
1.0729e-08
-2.09759e-13
-3.50383e-18
0
-2.76877e-18
8.86382e-34
5.16447e-22
9.10351e-19
-2.69642e-18
-3.11464e-19
1.0244e-08
0
0
-9.60529e-09
0
7.34141e-13
1.17988e-12
2.79674e-13
0
1.05056e-08
-1.42106e-09
1.1362e-13
-1.01925e-17
8.09391e-20
-5.75833e-18
-3.96874e-20
-1.52443e-18
1.43635e-18
5.81497e-19
-1.17503e-17
-6.36877e-19
2.86165e-18
-1.1428e-24
0
3.15953e-34
0
0
0
0
0
-7.97531e-18
-3.15034e-33
-1.52795e-19
4.49877e-18
7.96599e-18
-8.70335e-18
0
-1.59013e-17
-9.16088e-34
1.27924e-18
2.67107e-17
-8.92921e-18
-1.58513e-17
-4.38827e-34
1.4959e-18
1.05753e-17
-5.67278e-18
-1.06772e-17
-3.96858e-25
2.24226e-09
-6.56941e-13
1.03767e-11
2.35498e-09
6.56943e-13
-4.48517e-09
-4.66523e-09
1.31389e-12
-4.91619e-18
-4.12125e-20
0
-4.28609e-18
1.36541e-18
1.2538e-24
-4.27267e-18
1.14943e-11
3.49593e-12
0
1.08821e-08
-4.78637e-11
6.2042e-18
-1.42297e-19
-7.80168e-18
-4.11824e-20
-6.08982e-18
7.6856e-19
0
-3.09044e-18
1.1792e-18
-1.32799e-18
0
5.25296e-18
2.34486e-18
3.98153e-18
-1.08368e-18
-5.78366e-34
0
-8.58772e-18
-3.89172e-20
9.93061e-20
-3.14634e-12
-8.73975e-13
0
-2.02355e-08
-2.63615e-10
1.05697e-17
8.83504e-19
0
-1.25503e-17
0
7.22447e-19
-3.8145e-19
-1.97866e-18
9.73796e-18
-1.29784e-17
3.97083e-18
-4.10358e-20
-3.49595e-13
1.45956e-12
-8.06259e-10
0
1.04494e-08
3.17879e-20
2.09755e-13
0
7.33163e-09
-4.10365e-20
1.24931e-19
1.47496e-18
2.84012e-18
-1.46768e-17
3.17934e-20
-2.69522e-19
1.6313e-18
1.61982e-20
-1.28227e-18
5.16252e-19
0
-2.39697e-20
0
0
-8.93262e-19
9.52011e-19
-2.39818e-20
0
0
0
0
0
0
0
0
0
0
0
0
0
0
0
0
0
0
0
0
9.06752e-18
-1.68194e-22
-5.37077e-18
5.35875e-18
-5.27836e-18
-7.00942e-34
-7.48058e-18
7.54423e-18
1.199e-21
8.77767e-18
0
-1.06155e-17
-1.06578e-33
6.55263e-20
8.06181e-18
-1.31238e-19
-2.20923e-17
0
8.16849e-18
2.58399e-09
-9.11013e-18
5.65801e-17
0
5.30827e-13
-2.44513e-16
4.21146e-20
-2.83178e-09
-7.80616e-18
0
-3.44204e-12
9.16517e-18
-4.16259e-20
1.55435e-18
-5.30945e-13
7.68236e-20
-1.09382e-17
-5.16747e-09
1.75173e-17
0
2.74722e-12
-1.25802e-18
5.66024e-09
1.30385e-17
0
-3.54835e-18
3.22388e-18
2.61834e-18
6.6738e-18
-4.78794e-18
5.23684e-18
9.52022e-19
6.52388e-18
-1.96312e-18
0
-9.42824e-18
-5.23579e-18
1.48477e-24
-6.2926e-13
-3.37315e-18
-1.12471e-08
8.9568e-34
3.49391e-18
0
1.81199e-33
-5.23027e-10
-2.13252e-12
8.50161e-34
1.79895e-18
-1.95978e-18
-1.12634e-17
4.26972e-18
-4.32219e-20
6.54843e-18
-5.77639e-19
4.20477e-20
-4.03185e-18
-1.04365e-17
5.79937e-18
0
-2.42384e-16
3.42539e-32
3.81937e-18
2.64476e-18
0
5.55256e-18
2.57652e-18
-4.19922e-20
4.83077e-19
-4.14023e-20
4.95571e-18
2.37771e-17
-4.10462e-20
6.47731e-19
-2.68426e-18
-1.50013e-18
6.46552e-19
1.64436e-09
7.81307e-25
0
-1.89708e-20
2.62181e-14
1.88781e-12
0
1.42305e-08
-1.03064e-18
-6.0741e-34
1.89764e-20
-4.65679e-19
5.4866e-19
-4.33968e-18
0
0
0
0
0
0
8.98458e-18
0
3.31875e-17
-2.46709e-18
-5.52346e-18
-5.23887e-18
-1.06381e-17
-9.93631e-25
-2.46946e-09
4.2366e-11
-5.39268e-09
8.36168e-11
1.22404e-24
8.35998e-11
2.25585e-09
3.30101e-10
-9.35137e-11
4.32907e-10
1.79389e-10
2.76032e-13
-4.52864e-09
1.04076e-12
2.12811e-10
3.09326e-27
1.05546e-08
-2.72683e-12
2.31754e-09
9.859e-09
2.1063e-12
9.57969e-09
-8.82728e-13
-4.57308e-10
3.99284e-18
-6.43856e-20
-5.18567e-13
-4.60137e-09
-7.08619e-19
2.38697e-18
-7.43187e-19
8.85484e-18
4.18476e-20
2.82571e-09
-3.49594e-12
2.56805e-12
-7.66655e-26
3.50031e-12
-4.26507e-20
-3.87249e-26
8.78302e-09
-2.72683e-12
-4.18126e-20
-1.31389e-12
-3.95673e-18
-5.64751e-09
1.97567e-18
-4.25693e-20
3.15755e-18
-5.32406e-18
-1.02442e-08
0
0
9.16577e-09
9.55632e-09
0
-3.84556e-13
4.75447e-12
-1.43937e-18
0
2.18136e-08
2.40397e-17
-3.14632e-13
-1.66052e-13
-1.03233e-18
0
1.265e-18
-1.45454e-18
3.96911e-20
-3.0497e-18
2.30251e-18
1.29543e-18
-1.49574e-18
2.53824e-18
3.39103e-18
-7.11074e-19
6.64734e-09
-4.36596e-25
0
0
6.99175e-14
-1.075e-12
0
-2.76902e-09
-4.80825e-18
-3.05063e-20
0
4.22274e-20
2.56886e-19
-3.87344e-18
1.79854e-24
0
2.32422e-34
0
0
0
0
0
0
0
0
0
0
0
0
0
0
0
0
0
1.06851e-17
-2.57125e-35
-6.07123e-18
-3.03113e-18
-9.35241e-20
-1.0817e-17
7.39612e-35
1.90298e-19
-8.20097e-20
6.07109e-18
-1.60694e-17
-5.44887e-25
-2.44408e-09
8.25914e-12
1.02897e-08
-1.1187e-12
1.26728e-12
-1.84563e-08
8.22364e-11
-9.09384e-09
1.01508e-08
-5.34677e-09
1.05107e-19
7.16466e-18
7.5147e-19
1.36587e-18
1.6451e-18
-5.37857e-18
-6.91905e-13
-1.75808e-10
1.60351e-24
-2.50843e-09
2.4863e-09
9.35908e-09
9.55348e-11
9.17635e-09
-5.47374e-09
-1.96428e-12
-4.95273e-09
2.57097e-13
-1.98174e-10
-4.08975e-20
9.3213e-18
-1.99269e-12
-5.24388e-13
-8.19152e-18
0
-1.04413e-08
-1.94243e-11
0
-7.88925e-18
0
6.54011e-18
-5.30471e-34
1.73587e-18
-3.66553e-19
1.96734e-18
-1.08862e-17
2.80828e-18
3.22435e-24
0
-3.97243e-18
5.91235e-18
4.49543e-18
4.04102e-20
0
-1.05969e-18
-9.19226e-18
-8.55998e-20
5.65491e-18
-6.99183e-13
0
8.68832e-09
2.17602e-18
1.5692e-17
6.16326e-18
-4.03903e-20
1.14817e-19
-1.44128e-17
-4.26813e-20
7.25043e-19
1.97064e-18
-4.95623e-18
5.70876e-20
5.16075e-18
-3.13408e-20
6.2927e-13
-1.03098e-08
0
-4.23133e-20
0
-1.08175e-17
7.16249e-18
6.2676e-20
-5.54805e-19
-7.35811e-18
8.18121e-34
-2.0945e-17
2.87525e-18
0
-1.39842e-13
8.30287e-13
-5.8151e-10
0
9.28461e-09
-2.34065e-25
-2.09752e-13
0
-5.90822e-09
4.02737e-20
8.61036e-20
3.52887e-18
8.62873e-18
-1.11809e-17
0
2.04089e-19
-5.15925e-18
0
0
0
0
0
0
3.32134e-17
5.35875e-18
1.06381e-17
-1.06335e-17
-5.37077e-18
3.3967e-34
7.48076e-18
5.93003e-18
1.35212e-17
-2.13105e-17
5.30028e-32
-1.04091e-17
-3.81438e-35
-1.72354e-18
-9.90958e-22
0
5.69406e-19
0
2.71329e-09
2.17695e-12
4.58016e-18
-4.05481e-22
-2.6541e-18
-5.23704e-18
4.67365e-18
-2.89953e-18
-1.76181e-12
-5.42459e-09
4.58111e-18
0
1.00827e-19
-5.23582e-18
5.57137e-18
3.27832e-18
4.16587e-20
5.52358e-12
-9.2659e-11
-6.48908e-18
1.06982e-08
0
-5.97315e-13
4.55754e-17
-1.59021e-24
-1.18389e-17
0
1.11515e-17
2.72556e-25
4.10163e-18
5.97222e-13
-7.2265e-18
-1.07161e-17
1.849e-10
8.34628e-18
4.20455e-20
-6.66739e-18
1.04427e-17
8.40984e-20
-5.31382e-12
-6.71065e-18
-1.09337e-08
0
4.49971e-17
-4.10687e-20
-1.37135e-19
-2.69187e-12
0
1.47965e-18
-1.05992e-08
4.32395e-20
8.3902e-13
1.42459e-12
-3.85658e-34
-5.4447e-10
9.63193e-09
8.39806e-20
8.08294e-19
6.5578e-19
-2.76795e-18
9.59568e-18
-4.10397e-20
0
-7.83971e-19
2.14557e-18
4.42734e-18
-4.32193e-20
-1.04745e-18
6.93071e-19
3.5441e-18
-2.70194e-19
1.48485e-24
9.52639e-13
-1.84748e-34
8.43311e-09
-4.21582e-20
-6.98934e-19
2.62114e-18
-4.63959e-09
-1.96031e-25
0
1.03907e-25
3.49593e-14
-3.40854e-13
0
7.01939e-11
1.64503e-09
1.11664e-24
-9.99672e-25
-4.02031e-13
-5.10554e-19
1.48593e-18
0
0
0
0
0
0
0
0
0
0
0
0
0
0
1.49829e-17
7.80656e-19
3.30599e-17
-7.56304e-20
-1.58405e-17
-2.43101e-18
1.11097e-19
-1.78374e-25
-9.04366e-18
-2.22151e-09
1.24346e-17
-4.84684e-09
-3.41763e-34
1.05228e-17
-1.04214e-17
0
-1.15365e-12
-9.00202e-13
1.54749e-18
-4.18154e-20
-6.99151e-14
-1.56443e-12
7.40003e-11
0
7.0407e-09
-8.21053e-09
0
2.64913e-09
7.7814e-18
0
6.5258e-13
-8.49184e-18
0
1.01924e-08
-1.05128e-08
-8.36263e-20
-1.31064e-18
1.57979e-18
3.37376e-20
-7.48306e-19
-3.90412e-19
3.57509e-18
-4.62751e-18
-1.44057e-17
-2.14462e-18
-4.85141e-18
-8.87495e-18
7.75773e-20
-6.56947e-13
3.8906e-18
-5.29794e-09
-9.78008e-18
-1.09759e-24
-3.11139e-12
2.7442e-09
-4.28153e-18
-3.95478e-10
0
2.06929e-12
-7.32115e-18
-1.33313e-24
1.37378e-18
0
-3.65738e-22
-3.09175e-26
-1.41238e-18
-2.06915e-12
-2.0715e-18
1.3783e-17
-5.48742e-09
3.45682e-18
0
-2.81684e-18
3.53237e-20
0
3.20874e-18
-5.85569e-13
-4.40206e-18
0
-4.4353e-09
-4.01151e-20
1.38308e-17
0
-1.52407e-17
2.60001e-20
1.02769e-18
1.33077e-18
-5.80934e-18
-3.79364e-18
0
5.52834e-18
-2.07888e-17
-2.64844e-20
0
3.06695e-17
3.70199e-18
4.06031e-34
-5.52918e-18
1.35549e-18
-2.71992e-26
0
-7.31243e-35
1.98384e-24
0
3.31785e-34
0
0
0
0
0
0
0
1.0461e-17
6.68072e-35
6.07123e-18
6.06901e-18
1.06307e-17
9.35241e-20
6.07109e-18
-1.07129e-17
-1.42713e-34
2.37749e-18
-1.0817e-17
-3.54565e-25
-3.07205e-18
-2.50839e-09
2.48605e-09
9.3587e-09
-3.89651e-12
9.17692e-09
-1.01999e-17
-5.47374e-09
-1.89873e-12
-4.95268e-09
1.43203e-18
1.04005e-17
-1.47801e-34
-1.11935e-18
-7.41138e-17
1.31098e-13
-1.39838e-12
-8.65234e-09
-6.09895e-12
-9.09438e-09
-1.01509e-08
-7.94967e-19
2.24777e-18
1.40767e-18
-1.51179e-18
-2.54825e-19
-4.61779e-18
2.63906e-18
5.31925e-18
4.85667e-18
4.04112e-20
0
-2.70712e-18
-1.68151e-18
0
6.88705e-18
6.59155e-18
0
-4.29828e-17
1.17948e-17
8.40104e-19
4.18803e-20
0
7.28757e-18
7.85189e-18
-1.07825e-17
-7.90804e-18
6.74105e-18
1.0129e-34
-8.57491e-18
-3.58049e-18
0
2.39145e-18
-2.81998e-18
-2.63429e-18
4.4817e-20
1.14307e-19
-4.18578e-20
9.28622e-18
1.93953e-18
-2.92321e-18
-5.2842e-18
4.08977e-20
-1.66116e-19
-6.56131e-19
0
2.11695e-17
3.19449e-16
4.08834e-20
-2.66304e-18
-6.5826e-19
-4.35371e-18
-1.31174e-17
4.02798e-20
-2.44713e-13
4.89436e-13
-5.81191e-10
0
9.44976e-09
0
-1.04877e-13
-2.18005e-24
-1.68679e-12
-3.84546e-13
0
-5.90635e-09
0
-1.03102e-08
-9.50833e-09
-8.6177e-34
-1.43854e-18
2.06341e-18
2.07114e-18
-1.96001e-17
2.6286e-20
2.18456e-19
8.45951e-20
-9.03214e-19
2.15549e-18
-3.36863e-18
7.6308e-19
-7.92518e-18
-3.13444e-20
0
3.13394e-20
0
0
0
0
0
0
0
0
0
0
0
1.34972e-17
-1.58989e-34
9.18893e-20
2.97856e-18
1.07927e-17
3.6855e-19
-2.32981e-17
-4.95678e-18
3.25319e-34
1.54273e-17
1.08624e-17
1.19023e-17
-2.70217e-17
0
-1.81088e-17
-1.18862e-12
-2.16805e-10
5.24114e-18
-1.57318e-12
9.12616e-09
-7.94301e-18
1.23962e-17
-2.97521e-18
6.0148e-18
8.53945e-18
-1.87102e-18
1.12232e-17
-2.61328e-18
0
2.62917e-18
-1.57699e-17
3.44563e-24
-5.03306e-25
-2.1168e-19
2.17359e-17
0
0
2.47354e-20
1.04872e-13
0
-9.22025e-09
7.0475e-34
7.13055e-34