/*--------------------------------*- C++ -*----------------------------------*\
| =========                 |                                                 |
| \\      /  F ield         | OpenFOAM: The Open Source CFD Toolbox           |
|  \\    /   O peration     | Version:  5.x                                   |
|   \\  /    A nd           | Web:      www.OpenFOAM.org                      |
|    \\/     M anipulation  |                                                 |
\*---------------------------------------------------------------------------*/
FoamFile
{
    version     2.0;
    format      ascii;
    class       volScalarField;
    location    "0.5";
    object      nut;
}
// * * * * * * * * * * * * * * * * * * * * * * * * * * * * * * * * * * * * * //

dimensions      [0 2 -1 0 0 0 0];

internalField   nonuniform List<scalar> 
12160
(
9.96874e-10
9.12479e-10
3.92107e-08
1.06651e-09
2.4334e-08
3.84384e-08
1.11629e-09
1.232e-08
3.61659e-08
2.65695e-08
1.3344e-09
1.19598e-08
1.42614e-08
2.50423e-08
2.66425e-08
1.51503e-09
9.91695e-09
1.2626e-08
1.31667e-08
7.5238e-08
1.40741e-08
1.86995e-09
1.03631e-08
1.0166e-08
1.10869e-08
1.68537e-08
5.24686e-08
1.60787e-08
2.27578e-09
1.03955e-08
1.04813e-08
9.16674e-09
1.19125e-08
1.70241e-08
2.33956e-08
5.50237e-09
2.85772e-09
1.19196e-08
1.04192e-08
9.48041e-09
9.46964e-09
1.05206e-08
1.90562e-08
3.54461e-08
1.83012e-09
3.62373e-09
1.35305e-08
1.19037e-08
9.62765e-09
9.84226e-09
8.26639e-09
8.82652e-09
6.83392e-09
4.52608e-09
3.4866e-09
4.64615e-09
1.61802e-08
1.35222e-08
1.10556e-08
1.00673e-08
8.12691e-09
7.65165e-09
4.47661e-09
2.30021e-09
1.59632e-09
3.43347e-09
5.99991e-09
1.96951e-08
1.61714e-08
1.27091e-08
1.16742e-08
8.28373e-09
8.56301e-09
4.28377e-09
1.56048e-09
1.88039e-09
1.36004e-09
3.49512e-09
7.79113e-09
2.44212e-08
1.96907e-08
1.5295e-08
1.35205e-08
9.43209e-09
9.51244e-09
4.42191e-09
1.36297e-09
2.57594e-09
1.14343e-09
2.22081e-09
3.86208e-09
1.01577e-08
3.06435e-08
2.44217e-08
1.8729e-08
1.63605e-08
1.09261e-08
1.1601e-08
4.72036e-09
1.32256e-09
4.06336e-09
1.04485e-09
1.99811e-09
4.67606e-09
4.08731e-09
1.32823e-08
3.87928e-08
3.06507e-08
2.33321e-08
2.00986e-08
1.31885e-08
1.37502e-08
4.78246e-09
1.40491e-09
5.10453e-09
9.09321e-10
1.21288e-09
4.38433e-09
8.60575e-09
4.58158e-09
1.74122e-08
4.93909e-08
3.88125e-08
2.93929e-08
2.50824e-08
1.62206e-08
1.66485e-08
4.69577e-09
1.64783e-09
3.3045e-09
9.31214e-10
1.31586e-09
5.15915e-09
3.59687e-09
1.39464e-08
2.2885e-08
6.30829e-08
4.94355e-08
3.73413e-08
3.16212e-08
2.02881e-08
2.02545e-08
4.5575e-09
2.08339e-09
2.80033e-09
1.04741e-09
1.72976e-09
4.85283e-09
3.38638e-09
4.07875e-09
3.0191e-08
8.0601e-08
6.31845e-08
4.77055e-08
4.01826e-08
2.56651e-08
2.4903e-08
4.42106e-09
2.89442e-09
2.68155e-09
1.27514e-09
2.82819e-09
7.43649e-09
4.38823e-09
4.43633e-09
4.00668e-08
1.02727e-07
8.08331e-08
6.11593e-08
5.13479e-08
3.27418e-08
3.0927e-08
4.31329e-09
4.27374e-09
2.83617e-09
1.64045e-09
4.5044e-09
1.11721e-08
9.40295e-09
6.29584e-09
5.37264e-08
1.30094e-07
1.03231e-07
7.8507e-08
6.58754e-08
4.20081e-08
3.878e-08
4.24173e-09
6.60123e-09
3.15298e-09
2.27053e-09
6.72312e-09
1.20258e-08
1.89513e-08
1.57664e-08
7.34213e-08
1.62742e-07
1.31146e-07
1.00671e-07
8.47093e-08
5.40946e-08
4.90361e-08
4.20757e-09
1.02251e-08
3.52324e-09
3.3201e-09
9.22811e-09
1.21928e-08
1.49573e-08
4.8099e-08
1.03723e-07
1.99434e-07
1.64861e-07
1.28599e-07
1.09024e-07
6.97776e-08
6.24585e-08
4.21046e-09
1.50625e-08
3.81678e-09
5.10027e-09
1.19613e-08
1.22589e-08
1.30151e-08
2.23791e-08
1.3844e-07
2.36939e-07
2.0355e-07
1.62917e-07
1.40242e-07
8.99991e-08
8.00727e-08
4.25238e-09
2.0567e-08
3.98198e-09
7.99036e-09
1.4606e-08
1.31388e-08
1.25482e-08
1.79146e-08
1.3844e-07
2.69273e-07
2.44232e-07
2.03417e-07
1.79876e-07
1.15836e-07
1.03341e-07
4.34034e-09
2.54986e-08
4.07323e-09
1.22954e-08
1.76296e-08
1.49507e-08
1.33432e-08
1.69598e-08
1.3844e-07
2.89297e-07
2.8051e-07
2.47684e-07
2.2922e-07
1.48331e-07
1.34438e-07
4.49118e-09
2.81906e-08
4.15223e-09
1.82925e-08
2.19236e-08
1.79293e-08
1.5148e-08
1.79697e-08
1.3844e-07
2.91508e-07
3.03617e-07
2.89123e-07
2.87733e-07
1.88122e-07
1.76775e-07
4.73874e-09
2.72951e-08
4.25628e-09
2.63019e-08
2.81511e-08
2.24771e-08
1.81971e-08
2.0365e-08
1.28234e-07
2.7569e-07
3.06215e-07
3.16825e-07
3.4876e-07
2.34016e-07
2.36343e-07
5.15131e-09
2.37653e-08
4.41525e-09
3.70495e-08
3.68655e-08
2.93094e-08
2.28767e-08
2.44241e-08
8.99675e-08
2.47062e-07
2.87926e-07
3.20389e-07
3.94307e-07
2.8007e-07
3.23981e-07
5.87294e-09
1.94237e-08
4.65817e-09
5.23061e-08
4.88681e-08
3.9714e-08
2.98298e-08
3.06527e-08
6.62717e-08
2.12827e-07
2.55603e-07
2.9887e-07
4.00889e-07
3.13115e-07
4.55e-07
7.22964e-09
1.53505e-08
5.06569e-09
7.6019e-08
6.32611e-08
5.62014e-08
4.02627e-08
3.99905e-08
5.03927e-08
1.78632e-07
2.18081e-07
2.61755e-07
3.64973e-07
3.18107e-07
6.15684e-07
1.02048e-08
1.22055e-08
5.80241e-09
1.07181e-07
7.76644e-08
8.50619e-08
5.63658e-08
5.43184e-08
3.91414e-08
1.47757e-07
1.81637e-07
2.20301e-07
3.08251e-07
2.92783e-07
6.48579e-07
1.96536e-08
1.01508e-08
7.17873e-09
1.16876e-07
8.6519e-08
1.42455e-07
8.21933e-08
7.7378e-08
3.08677e-08
1.21383e-07
1.49398e-07
1.81441e-07
2.51114e-07
2.50985e-07
5.03181e-07
2.6893e-07
9.03521e-09
1.01046e-08
8.15101e-08
8.52665e-08
2.57017e-07
1.26296e-07
1.18479e-07
2.4628e-08
9.95367e-08
1.2224e-07
1.4799e-07
2.01958e-07
2.06918e-07
3.61349e-07
2.03945e-08
8.72446e-09
1.84947e-08
5.60746e-08
8.16542e-08
2.66201e-07
1.93574e-07
2.08583e-07
1.98369e-08
8.17306e-08
9.99492e-08
1.20342e-07
1.62157e-07
1.67659e-07
2.65067e-07
1.07753e-08
9.13302e-09
4.83076e-08
4.47344e-08
8.10708e-08
1.74341e-07
2.40974e-07
5.12273e-07
1.61086e-08
6.73321e-08
8.18971e-08
9.79415e-08
1.30557e-07
1.35143e-07
2.00592e-07
7.75955e-09
1.03008e-08
1.92217e-08
4.19334e-08
8.39234e-08
1.30472e-07
2.45672e-07
1.8658e-06
1.31781e-08
5.57333e-08
6.73701e-08
7.99654e-08
1.0561e-07
1.0896e-07
1.55651e-07
6.37622e-09
1.22969e-08
1.06956e-08
4.5671e-08
8.56954e-08
1.11563e-07
2.61307e-07
7.137e-07
1.0855e-08
4.63883e-08
5.57081e-08
6.55926e-08
8.59195e-08
8.81158e-08
1.22969e-07
5.63176e-09
1.51379e-08
7.72415e-09
5.79607e-08
8.32948e-08
1.07754e-07
3.10206e-07
5.89013e-07
9.00238e-09
3.88653e-08
4.63356e-08
5.41079e-08
7.03409e-08
7.15931e-08
9.85123e-08
5.19629e-09
1.86354e-08
6.31607e-09
8.32512e-08
7.98455e-08
1.1586e-07
3.60445e-07
7.07158e-07
7.51334e-09
3.27625e-08
3.88012e-08
4.49104e-08
5.79716e-08
5.84966e-08
7.98437e-08
4.92788e-09
2.2112e-08
5.5501e-09
1.11662e-07
7.95036e-08
1.41151e-07
3.3704e-07
1.01764e-06
6.31836e-09
2.79144e-08
3.2697e-08
3.75321e-08
4.81033e-08
4.80945e-08
6.53743e-08
4.75725e-09
2.50605e-08
5.11642e-09
1.00507e-07
8.07663e-08
1.96885e-07
2.97608e-07
1.05457e-06
2.36427e-08
4.80938e-09
2.78456e-08
3.15691e-08
4.02012e-08
3.98041e-08
5.40309e-08
4.64997e-09
2.65888e-08
4.8588e-09
7.4852e-08
7.93206e-08
2.68338e-07
2.81224e-07
1.06376e-06
2.35857e-08
1.87454e-08
3.40872e-09
2.68233e-08
3.38224e-08
3.31721e-08
4.50537e-08
4.58745e-09
2.61337e-08
4.68876e-09
5.5126e-08
7.12221e-08
2.07557e-07
2.51083e-07
2.13683e-06
2.27057e-08
1.86918e-08
1.4036e-08
2.50265e-09
2.87461e-08
2.78343e-08
3.78878e-08
4.55941e-09
2.39261e-08
4.57471e-09
4.15562e-08
6.01671e-08
1.25488e-07
1.80098e-07
9.99749e-07
2.4333e-08
1.79474e-08
1.39918e-08
1.0893e-08
1.91525e-09
2.35608e-08
3.21243e-08
4.56057e-09
2.06566e-08
4.49689e-09
3.1995e-08
4.92941e-08
8.28049e-08
1.19293e-07
3.39692e-07
1.99544e-08
1.92361e-08
1.33733e-08
1.08619e-08
8.8601e-09
1.51747e-09
2.74684e-08
4.58879e-09
1.70548e-08
4.43939e-09
2.47721e-08
3.98234e-08
5.90748e-08
8.19444e-08
1.81652e-07
2.36474e-08
1.57681e-08
1.43604e-08
1.03603e-08
8.83648e-09
7.38024e-09
1.23419e-09
4.64503e-09
1.35941e-08
4.38161e-09
1.91083e-08
3.22623e-08
4.43778e-08
5.93332e-08
1.16316e-07
4.72104e-09
1.90366e-08
1.17438e-08
1.11298e-08
8.43166e-09
7.37924e-09
5.97689e-09
1.0245e-09
1.05602e-08
4.30309e-09
1.45868e-08
2.63953e-08
3.46827e-08
4.48798e-08
8.18728e-08
7.69197e-09
4.77675e-09
1.45343e-08
9.18768e-09
9.08734e-09
7.08803e-09
6.10354e-09
3.80441e-09
8.94494e-10
4.07293e-09
1.0955e-08
2.19508e-08
2.78354e-08
3.51306e-08
6.11646e-08
3.87036e-09
5.05386e-09
5.17071e-09
1.14597e-08
7.63996e-09
7.71695e-09
6.01724e-09
4.20401e-09
2.79689e-09
1.13445e-09
8.21383e-09
1.85462e-08
2.29505e-08
2.82348e-08
4.74409e-08
6.31488e-09
3.44789e-09
3.0271e-09
5.56644e-09
9.43915e-09
6.70661e-09
6.69309e-09
4.82844e-09
2.63994e-09
2.00349e-09
9.13659e-10
1.5964e-08
1.93567e-08
2.33392e-08
3.7986e-08
1.46686e-08
3.90262e-09
3.05525e-09
2.13345e-09
5.96055e-09
8.13285e-09
6.16537e-09
5.62148e-09
3.54346e-09
2.07258e-09
1.48448e-09
1.05344e-09
1.68092e-08
1.97474e-08
3.13529e-08
1.52775e-08
1.26304e-08
2.36449e-09
3.00156e-09
1.80315e-09
6.33421e-09
7.48287e-09
5.75273e-09
4.28894e-09
2.45743e-09
2.64837e-09
2.16363e-09
1.25848e-09
3.37633e-10
1.72177e-08
2.65442e-08
1.5501e-08
1.35015e-08
9.39801e-09
1.65668e-09
3.55234e-09
1.77403e-09
6.97697e-09
7.45411e-09
5.10204e-09
3.23398e-09
2.32558e-09
4.05488e-09
9.98673e-10
1.94607e-09
1.88256e-09
3.15325e-10
2.31862e-08
2.08217e-08
1.36518e-08
1.24982e-08
6.88683e-09
1.35619e-09
5.5313e-09
1.94816e-09
8.8766e-09
7.62287e-09
4.11706e-09
1.67125e-09
3.50968e-09
8.57649e-10
1.39089e-09
2.18446e-09
5.96165e-09
4.24582e-09
3.21626e-10
1.83564e-08
1.2686e-08
1.29866e-08
4.77081e-09
1.23108e-09
2.21604e-08
2.31228e-09
1.99156e-08
6.37643e-09
2.37393e-09
1.89372e-09
1.03271e-09
1.24907e-09
1.43487e-09
1.63479e-09
3.51201e-09
1.32875e-08
3.40917e-09
3.40286e-10
1.71048e-08
1.3574e-08
1.37912e-08
3.08846e-09
1.18796e-09
7.05192e-09
3.00374e-09
2.16129e-08
3.47783e-09
1.64664e-09
1.28127e-09
1.33463e-09
1.10087e-09
1.22378e-09
1.45079e-09
2.32358e-09
4.44372e-09
4.41477e-09
2.726e-09
3.59006e-10
1.84374e-08
1.66986e-08
1.35423e-08
2.05936e-09
1.21376e-09
3.73654e-09
4.00261e-09
5.35802e-09
2.16606e-09
1.58819e-09
1.35001e-09
1.06779e-09
1.16542e-09
1.25045e-09
1.53297e-09
1.98767e-09
2.30353e-09
2.8797e-09
2.84941e-09
2.42242e-09
3.85629e-10
2.38834e-08
2.32928e-08
1.04072e-08
1.58589e-09
1.30448e-09
2.76975e-09
3.99794e-09
2.81232e-09
1.87486e-09
1.46369e-09
1.09865e-09
1.24796e-09
8.99765e-10
2.27694e-09
2.44688e-09
2.49284e-09
2.25278e-09
8.16539e-10
7.83788e-10
3.28764e-09
1.85752e-09
2.15689e-09
2.38825e-09
2.10255e-09
4.191e-10
4.75725e-08
1.65867e-08
7.69429e-09
1.46848e-09
1.37007e-09
2.2514e-09
2.85368e-09
2.25748e-09
1.57694e-09
1.23287e-09
1.15571e-09
8.05681e-10
2.02336e-09
3.29757e-09
1.47941e-09
2.3968e-09
2.01148e-09
1.51222e-09
8.82056e-10
8.88702e-10
3.56258e-09
1.95723e-09
2.31116e-09
2.44632e-09
1.68679e-09
2.09804e-09
2.07411e-09
1.90872e-09
4.63211e-10
3.24613e-08
8.20185e-09
7.03641e-09
1.51059e-09
1.37787e-09
1.83051e-09
2.32693e-09
1.8318e-09
1.36219e-09
1.10447e-09
8.2172e-10
1.37208e-09
3.03882e-09
2.31732e-09
2.25567e-09
1.95279e-09
1.8691e-09
2.44437e-09
2.44381e-09
3.06168e-09
3.51263e-09
2.80981e-09
2.31972e-09
2.40631e-09
2.38413e-09
2.3721e-09
2.28022e-09
2.19502e-09
1.7825e-09
1.9296e-09
1.80881e-09
1.76196e-09
5.21042e-10
1.19769e-08
5.20676e-09
6.93129e-09
1.71094e-09
1.2732e-09
1.56527e-09
1.94631e-09
1.57844e-09
1.07903e-09
9.12499e-10
9.03701e-10
4.22939e-09
1.93596e-09
1.81565e-09
1.33796e-09
1.29197e-09
2.17509e-09
2.09913e-09
2.10989e-09
1.9981e-09
2.34747e-09
1.86575e-09
1.37966e-09
1.82284e-09
1.3117e-09
4.09336e-09
3.42015e-09
2.27572e-09
2.40818e-09
2.21746e-09
2.34503e-09
2.37097e-09
2.28511e-09
2.41713e-09
1.86493e-09
1.33166e-09
1.80221e-09
1.28133e-09
1.90386e-09
1.14802e-09
2.48988e-09
1.23687e-09
1.929e-09
1.14923e-09
2.51007e-09
1.22323e-09
2.12722e-09
1.8717e-09
1.64429e-09
1.66932e-09
1.68232e-09
5.97641e-10
7.13027e-09
3.82553e-09
5.7272e-09
2.28861e-09
1.13038e-09
1.27861e-09
1.70132e-09
1.22048e-09
1.06835e-09
8.24301e-10
3.52891e-09
8.65032e-10
8.66195e-10
6.87568e-10
7.00128e-10
2.21623e-09
2.1001e-09
2.11406e-09
2.02997e-09
1.26972e-09
1.16089e-09
2.16529e-09
1.28421e-09
2.05928e-09
2.62554e-09
1.15905e-09
1.24977e-09
2.20311e-09
1.2637e-09
2.05447e-09
2.59152e-09
1.29639e-09
1.88576e-09
1.26725e-09
1.9506e-09
1.29548e-09
1.90133e-09
1.25703e-09
1.95266e-09
1.77596e-09
1.37994e-09
1.67589e-09
1.43062e-09
3.48329e-09
1.33945e-09
4.21838e-09
1.30492e-09
2.83655e-09
4.17383e-09
2.31057e-09
2.39956e-09
2.29454e-09
2.41209e-09
2.60754e-09
2.65307e-09
2.45684e-09
2.5068e-09
1.7652e-09
1.33412e-09
1.68275e-09
1.37494e-09
1.81832e-09
1.57974e-09
1.65296e-09
1.41827e-09
1.79161e-09
1.5394e-09
1.65856e-09
1.37044e-09
3.60894e-09
1.31757e-09
4.58433e-09
1.2931e-09
2.99766e-09
1.26725e-09
3.00952e-09
1.27003e-09
2.16528e-09
1.46833e-09
1.51931e-09
1.61371e-09
1.62824e-09
7.01277e-10
5.20636e-09
3.12932e-09
4.47173e-09
3.81788e-09
9.9476e-10
1.06907e-09
1.34383e-09
1.22965e-09
8.83156e-10
1.45014e-09
5.02605e-10
5.05123e-10
4.39149e-10
4.39583e-10
1.88636e-09
1.85322e-09
1.62567e-09
1.63251e-09
1.30881e-09
1.822e-09
1.30973e-09
1.70801e-09
1.31506e-09
1.84498e-09
1.32258e-09
1.73321e-09
1.3134e-09
1.50515e-09
1.32933e-09
1.56278e-09
1.32387e-09
1.53852e-09
1.34249e-09
1.58627e-09
1.31728e-09
1.05572e-09
2.54511e-09
2.49103e-09
1.16788e-09
3.22492e-09
1.28784e-09
1.06303e-09
2.76448e-09
2.77809e-09
1.17933e-09
3.60192e-09
1.20299e-09
3.65219e-09
1.20598e-09
3.55432e-09
1.21896e-09
4.26182e-09
1.21347e-09
4.18174e-09
5.75103e-09
1.31393e-09
4.68779e-09
1.35589e-09
5.77394e-09
1.46237e-09
7.59466e-09
1.4083e-09
3.49556e-09
3.74238e-09
2.44946e-09
2.42823e-09
2.42353e-09
2.46461e-09
2.61808e-09
2.63626e-09
2.63747e-09
2.66823e-09
1.30659e-09
2.23072e-09
1.22659e-09
2.28398e-09
1.30838e-09
2.17526e-09
1.21507e-09
2.24706e-09
1.17134e-09
1.47582e-09
4.17481e-09
1.15052e-09
2.50701e-09
2.52346e-09
1.16534e-09
1.43231e-09
3.99333e-09
1.13826e-09
2.44747e-09
2.32614e-09
5.84837e-09
1.30282e-09
4.88319e-09
1.32591e-09
4.81931e-09
1.30918e-09
4.53391e-09
1.28058e-09
6.55687e-09
1.44812e-09
8.74644e-09
1.39538e-09
3.78908e-09
1.36479e-09
4.22968e-09
1.35161e-09
1.49349e-09
1.33601e-09
1.51665e-09
1.58154e-09
1.59257e-09
8.44143e-10
4.59476e-09
2.70619e-09
3.55725e-09
4.42456e-09
8.34626e-10
9.14485e-10
1.19881e-09
1.10235e-09
1.15404e-09
4.03461e-10
4.05783e-10
3.67527e-10
3.6891e-10
9.78342e-10
9.89187e-10
8.54521e-10
8.61749e-10
1.30222e-09
1.31292e-09
1.21037e-09
1.3843e-09
1.30086e-09
1.35786e-09
1.20228e-09
1.42354e-09
1.04277e-09
1.82254e-09
1.17413e-09
1.30538e-09
1.051e-09
1.83024e-09
1.16665e-09
1.34993e-09
1.18799e-09
3.69234e-09
1.20292e-09
3.35796e-09
1.21142e-09
4.25924e-09
1.22918e-09
3.77441e-09
1.28504e-09
2.66003e-09
1.22763e-09
3.13821e-09
1.30593e-09
2.84968e-09
1.25157e-09
3.42178e-09
9.79606e-09
1.4683e-09
8.47217e-09
1.43445e-09
3.52102e-09
2.67026e-09
2.82642e-09
2.67432e-09
2.61245e-09
2.50824e-09
2.69144e-09
2.68269e-09
2.59992e-09
2.60846e-09
1.40363e-09
2.19092e-09
1.41972e-09
2.29585e-09
1.42517e-09
2.24696e-09
1.42075e-09
2.31898e-09
1.37045e-09
2.30444e-09
1.39915e-09
2.33e-09
1.37082e-09
2.26023e-09
1.39816e-09
2.313e-09
1.43844e-09
4.71921e-09
1.40372e-09
5.10462e-09
1.438e-09
4.95098e-09
1.40448e-09
5.03087e-09
1.2626e-09
1.27844e-09
4.2974e-09
5.05543e-09
1.34169e-09
5.51526e-09
1.24462e-09
1.27079e-09
4.19249e-09
5.10351e-09
1.33825e-09
5.36946e-09
1.10121e-08
1.46076e-09
1.07853e-08
1.4183e-09
8.73791e-09
1.33172e-09
9.47819e-09
1.31998e-09
1.2086e-09
1.3889e-09
1.52016e-09
1.55686e-09
1.57207e-09
1.04101e-09
2.89134e-09
2.73877e-09
2.55888e-09
2.69614e-09
9.18278e-10
1.06947e-09
1.21679e-09
1.23584e-09
1.46664e-09
7.66478e-10
7.73365e-10
6.7385e-10
6.78958e-10
1.56844e-09
1.59263e-09
1.23451e-09
1.25868e-09
1.31524e-09
2.33859e-09
1.30591e-09
2.26074e-09
1.33737e-09
2.44237e-09
1.32527e-09
2.30902e-09
1.10262e-09
1.69427e-09
1.28124e-09
1.92354e-09
1.12242e-09
1.69157e-09
1.31328e-09
1.91965e-09
1.26596e-09
2.84173e-09
1.28169e-09
3.04583e-09
2.50263e-09
5.73914e-09
2.70421e-09
2.82083e-09
2.33007e-09
2.23053e-09
3.19188e-09
3.11522e-09
3.04069e-09
2.99678e-09
2.0965e-09
1.88219e-09
1.51868e-09
2.00086e-09
2.10486e-09
1.94514e-09
1.56239e-09
2.05615e-09
1.4119e-09
2.01616e-09
1.49034e-09
2.00999e-09
1.44225e-09
2.09179e-09
1.53411e-09
2.06951e-09
1.46039e-09
7.57808e-09
1.52337e-09
4.6883e-09
1.45335e-09
8.23326e-09
1.5159e-09
5.01473e-09
1.47133e-09
4.32992e-09
1.49828e-09
4.15592e-09
1.45326e-09
4.69742e-09
1.48134e-09
4.62109e-09
1.23647e-09
1.44733e-09
1.50804e-09
1.54794e-09
1.56062e-09
1.29211e-09
2.97365e-09
2.62923e-09
2.1243e-09
2.18225e-09
6.9233e-10
1.43662e-09
1.49111e-09
2.72174e-09
4.14822e-10
4.1605e-10
5.34689e-10
5.34835e-10
1.0334e-09
1.0471e-09
7.15009e-10
7.21459e-10
1.31792e-09
1.30709e-09
1.28739e-09
1.18197e-09
1.3478e-09
1.2989e-09
1.30639e-09
1.17071e-09
1.09465e-09
9.36484e-10
1.22995e-09
1.09394e-09
1.12801e-09
9.1118e-10
1.30888e-09
1.07302e-09
1.33374e-09
2.57877e-09
1.37227e-09
2.2437e-09
1.34757e-09
2.67018e-09
1.38458e-09
2.30375e-09
1.3296e-09
1.6636e-09
1.39544e-09
2.02488e-09
1.33041e-09
1.71047e-09
1.4071e-09
2.08055e-09
1.49712e-09
9.42073e-09
6.21596e-09
1.90943e-09
1.9354e-09
2.81571e-09
2.76105e-09
3.22885e-09
3.29343e-09
3.10183e-09
3.14694e-09
2.55351e-09
2.41288e-09
1.60782e-09
4.94223e-09
2.47618e-09
2.4562e-09
1.61124e-09
5.63575e-09
1.53164e-09
6.84104e-09
1.70383e-09
6.79418e-09
1.51732e-09
7.84115e-09
1.71036e-09
8.33386e-09
1.66311e-09
6.38939e-09
1.75086e-09
6.16316e-09
1.352e-09
1.45033e-09
1.51569e-09
1.54453e-09
1.55765e-09
1.54708e-09
2.70919e-09
3.47936e-09
2.19263e-09
1.2365e-09
5.27341e-10
1.79539e-09
4.14579e-09
2.23346e-08
8.16828e-10
8.18511e-10
9.70843e-10
9.72566e-10
7.4911e-10
1.39798e-09
2.06169e-09
6.19318e-10
7.46679e-10
1.41219e-09
1.93276e-09
6.34217e-10
1.00151e-09
1.00949e-09
1.88602e-09
1.27048e-09
2.08811e-09
1.19134e-09
1.87857e-09
1.26674e-09
2.08613e-09
1.18614e-09
1.82138e-09
1.05497e-09
1.60896e-09
1.14464e-09
1.81823e-09
1.05635e-09
1.59232e-09
1.14109e-09
1.27385e-09
2.38887e-09
1.27624e-09
2.41991e-09
1.27064e-09
3.54559e-09
8.56856e-09
6.02225e-09
5.88126e-09
2.4907e-09
2.59717e-09
3.20008e-09
3.2881e-09
3.14819e-09
3.20761e-09
1.77132e-09
1.37721e-09
1.66924e-09
1.31094e-09
2.00999e-09
1.47351e-09
1.82085e-09
1.41441e-09
2.01063e-09
1.28992e-09
3.05434e-09
1.25643e-09
2.55554e-09
1.47044e-09
4.94161e-09
1.37194e-09
1.44487e-09
4.81355e-09
1.63756e-09
5.73725e-09
1.63607e-09
4.73046e-09
1.72155e-09
5.30487e-09
1.87967e-09
7.55709e-09
1.82754e-09
6.70271e-09
2.01188e-09
6.26394e-09
1.9635e-09
5.60663e-09
1.40085e-09
1.47775e-09
1.52458e-09
1.54601e-09
1.18264e-09
3.25162e-09
4.0643e-09
2.00987e-09
6.95174e-10
8.81682e-10
1.9738e-09
1.24812e-08
1.8875e-09
1.885e-09
2.50509e-09
2.51354e-09
6.7342e-10
3.08826e-09
6.9347e-10
5.22284e-09
6.48776e-10
3.61097e-09
6.87524e-10
5.44694e-09
1.69395e-09
1.69475e-09
9.44907e-10
1.53259e-09
1.51838e-09
8.01327e-10
9.46013e-10
1.51939e-09
1.496e-09
8.09332e-10
7.26045e-10
2.35468e-09
8.4966e-10
1.79297e-09
6.9398e-10
2.73865e-09
8.05669e-10
1.97587e-09
1.68222e-09
1.32312e-09
1.72956e-09
1.31348e-09
1.71585e-09
1.29001e-09
1.78365e-09
1.29115e-09
1.42497e-09
1.78933e-09
6.88658e-09
3.48732e-08
2.03915e-09
2.07077e-09
2.33983e-09
2.43326e-09
2.65377e-09
2.75033e-09
1.33308e-09
1.52246e-09
1.32562e-09
1.93823e-09
1.39287e-09
1.65198e-09
1.35486e-09
1.80834e-09
4.58797e-09
1.53274e-09
6.11023e-09
1.48373e-09
4.41063e-09
1.57681e-09
6.08071e-09
1.55628e-09
3.47713e-09
1.50674e-09
3.86197e-09
1.6511e-09
3.2896e-09
1.56083e-09
3.44597e-09
1.71297e-09
1.49901e-09
3.83259e-09
1.59692e-09
3.25713e-09
1.44493e-09
1.50667e-09
1.53201e-09
8.94413e-10
3.37381e-09
4.55907e-09
1.89389e-09
1.08824e-09
2.98081e-09
1.81559e-09
2.31521e-09
2.32239e-09
1.46868e-10
1.46959e-10
3.04028e-09
3.01412e-09
3.405e-09
3.39862e-09
9.63873e-10
3.2081e-09
9.25986e-10
4.83829e-09
9.38657e-10
3.43297e-09
9.15951e-10
5.12949e-09
8.12434e-09
1.3171e-09
1.10697e-08
1.21119e-09
8.23753e-09
1.29731e-09
1.1737e-08
1.208e-09
1.27655e-09
1.85259e-09
1.62621e-09
1.08386e-09
1.23805e-09
1.90756e-09
1.72406e-09
1.03698e-09
1.00476e-09
2.92148e-09
1.12776e-09
2.22806e-09
9.71712e-10
3.22448e-09
1.07721e-09
2.38601e-09
1.41795e-09
1.71841e-09
3.60971e-09
8.57803e-09
2.39898e-09
2.46694e-09
2.35633e-09
2.4065e-09
2.16946e-09
2.19449e-09
1.19316e-09
1.22599e-09
1.41417e-09
1.08298e-09
1.23831e-09
1.31513e-09
1.40809e-09
1.13803e-09
1.35307e-09
1.43283e-09
1.4493e-09
1.99052e-09
2.27158e-09
1.60694e-09
1.36758e-09
1.50456e-09
1.47583e-09
2.23533e-09
2.06892e-09
1.57436e-09
1.33261e-09
3.64064e-09
1.34651e-09
4.23668e-09
3.05091e-09
2.06914e-09
5.75298e-09
1.47907e-09
3.01888e-09
2.2001e-09
5.33063e-09
1.57301e-09
1.50307e-09
1.5197e-09
6.96763e-10
5.49141e-09
1.9054e-09
1.25065e-09
4.4218e-09
2.93069e-09
8.51622e-09
3.2413e-09
3.28953e-09
2.80229e-10
2.81811e-10
1.98532e-09
1.78815e-09
1.30695e-08
1.88432e-09
2.25892e-08
7.61326e-09
1.73563e-09
1.95731e-09
8.1658e-09
1.33288e-08
1.85355e-09
2.39157e-08
2.13586e-09
1.63417e-08
2.02657e-09
2.54228e-08
2.06103e-09
2.00313e-08
1.95585e-09
3.30278e-08
1.32616e-09
3.90462e-09
1.29707e-09
5.24281e-09
1.31347e-09
3.96362e-09
1.29192e-09
5.23541e-09
7.05044e-09
1.61764e-09
7.01431e-09
1.61482e-09
1.93754e-09
1.23247e-09
2.07314e-09
1.16544e-09
1.18901e-09
3.50493e-09
1.16976e-09
3.63861e-09
1.53345e-09
1.58149e-09
2.81775e-09
5.92572e-09
4.27348e-09
4.07615e-09
2.37117e-09
2.40831e-09
1.97217e-09
2.10342e-09
1.85403e-09
1.98231e-09
1.76119e-09
1.37206e-09
1.23007e-09
1.1577e-09
1.44944e-09
1.73784e-09
2.15392e-09
1.43495e-09
1.35332e-09
1.27156e-09
1.40917e-09
1.62355e-09
1.15918e-09
2.83828e-09
1.15542e-09
3.23683e-09
1.43568e-09
4.75572e-09
1.47132e-09
2.08093e-09
3.64053e-09
3.16867e-09
1.46321e-09
5.85927e-09
1.54446e-09
2.03077e-09
3.79207e-09
3.5187e-09
1.90687e-09
6.02201e-09
1.99485e-09
6.74107e-09
1.51548e-09
5.63507e-10
4.14671e-09
2.22755e-09
2.17082e-09
2.30839e-09
2.46404e-08
6.48587e-10
6.67946e-10
2.32446e-09
2.49911e-09
1.91872e-09
2.1386e-09
3.35419e-10
3.39963e-10
2.07087e-09
2.12023e-09
1.23448e-08
7.96499e-09
2.15462e-09
1.63342e-08
2.00857e-09
2.10742e-09
8.39156e-09
1.21351e-08
2.09569e-09
1.88068e-08
2.66231e-09
1.06784e-08
2.47422e-09
2.08999e-08
2.43047e-09
1.38594e-08
2.37096e-09
2.2858e-08
1.45243e-09
5.95087e-09
1.44862e-09
5.84933e-09
1.52073e-09
1.60392e-09
2.82788e-09
2.32181e-09
9.16736e-09
2.14655e-09
2.1829e-09
2.32966e-09
2.4291e-09
2.83563e-09
1.13054e-09
1.16331e-09
1.18296e-09
3.09176e-09
1.25638e-09
1.35684e-09
1.38329e-09
9.22264e-10
1.45595e-09
2.02964e-09
1.15502e-09
1.26482e-09
1.273e-09
1.08793e-09
1.78758e-09
2.89573e-09
1.35704e-09
1.5898e-09
1.66474e-09
2.18944e-09
2.56301e-09
1.10762e-09
1.5802e-09
2.15096e-09
3.3448e-09
1.27479e-09
1.70524e-09
1.59827e-09
4.90812e-09
1.78224e-09
5.55446e-09
1.7537e-09
3.90255e-09
1.80079e-09
3.18363e-09
2.14343e-09
3.77353e-09
1.93258e-09
3.29529e-09
4.70568e-10
3.44766e-09
3.13647e-09
9.56783e-10
3.08256e-09
2.82756e-08
2.11946e-09
1.42448e-09
1.84776e-09
1.62947e-09
3.42699e-09
2.51014e-09
3.9364e-09
1.37459e-09
4.96151e-09
1.99528e-09
6.9179e-09
1.22399e-09
3.38719e-09
2.35855e-09
3.3626e-09
1.21036e-08
3.0222e-09
1.66992e-08
3.01766e-09
1.35677e-08
2.80451e-09
1.9604e-08
4.03413e-10
1.51763e-09
1.69774e-09
4.87909e-09
4.04817e-09
1.91011e-09
1.92209e-09
2.96469e-09
2.96744e-09
3.02266e-09
3.01093e-09
2.93229e-09
3.10836e-09
3.48821e-09
1.43143e-09
1.42837e-09
2.83405e-09
5.4862e-09
1.73854e-09
1.53724e-09
3.63326e-09
9.05157e-10
1.22376e-09
1.67712e-09
2.10948e-09
1.44143e-09
2.49551e-09
1.04671e-09
1.42583e-09
2.10408e-09
1.63619e-09
1.67927e-09
2.61518e-09
3.12591e-09
1.53278e-09
2.87274e-09
1.91765e-09
3.01898e-09
1.67682e-09
5.91949e-10
1.1228e-08
2.88577e-09
3.00698e-09
3.02029e-09
3.26451e-09
1.37133e-08
1.3336e-08
5.89438e-09
6.71306e-09
7.14555e-09
3.23893e-09
8.03864e-09
3.18816e-09
6.65844e-09
2.75257e-09
7.7654e-09
1.74365e-09
6.20197e-09
3.75908e-08
6.52965e-09
2.88862e-08
2.84179e-09
4.89453e-08
3.51077e-09
2.345e-08
3.52222e-09
1.60107e-08
3.11464e-09
1.10693e-08
3.52711e-10
1.52235e-09
2.07398e-09
2.28187e-09
6.91224e-09
1.79914e-09
1.87755e-09
1.8695e-09
2.00091e-09
2.28163e-09
2.50337e-09
1.27637e-09
1.60706e-09
1.42649e-09
6.10638e-09
1.39126e-09
2.0131e-09
2.10157e-09
6.53046e-09
1.48777e-09
1.83847e-09
1.60518e-09
3.44391e-09
2.20887e-09
2.86494e-09
1.98901e-09
2.30647e-09
3.63898e-09
7.1168e-10
1.70201e-09
1.59723e-08
3.53462e-09
4.33258e-09
3.90641e-09
4.60933e-09
9.05837e-09
5.6416e-08
4.52848e-08
7.81037e-09
8.20683e-08
4.78736e-09
5.62488e-09
5.9519e-08
4.82673e-08
7.85517e-09
7.87856e-08
5.26235e-09
6.86674e-09
8.61339e-09
9.64541e-09
3.4368e-09
9.38512e-09
4.13592e-09
1.0319e-08
2.45743e-09
9.28591e-09
2.6861e-09
8.21642e-09
1.01345e-07
6.10916e-09
3.70397e-08
3.12852e-10
1.61641e-09
3.88185e-09
3.22081e-09
1.84571e-09
1.82948e-09
3.38322e-09
3.27337e-09
2.99545e-09
3.21946e-09
1.98618e-09
2.12759e-09
1.81877e-09
9.31363e-10
7.46072e-10
1.34723e-09
1.41366e-09
1.03569e-09
2.03546e-09
1.07171e-09
8.75471e-10
1.84851e-09
2.52479e-09
1.55489e-09
1.26908e-09
1.91636e-09
1.68843e-09
2.16653e-09
1.89303e-09
2.65845e-09
4.82041e-09
1.66086e-09
1.0121e-09
8.03972e-10
3.07641e-09
3.59518e-09
4.34943e-09
2.70913e-09
2.80637e-09
3.41248e-09
4.91917e-09
3.89367e-09
5.22046e-09
8.38343e-09
6.03043e-08
2.30311e-08
3.75128e-09
2.02709e-08
3.12319e-09
6.94481e-09
5.70331e-08
1.88034e-08
6.09519e-09
2.37389e-08
4.35167e-09
1.3023e-09
3.01307e-09
1.70236e-09
7.9513e-09
1.65899e-09
3.4602e-09
2.38253e-09
7.14694e-09
2.82035e-10
2.01401e-09
2.22151e-09
8.80708e-09
2.2273e-09
2.21155e-09
2.62678e-09
2.70041e-09
2.47621e-09
2.59303e-09
3.18583e-09
1.17839e-09
9.94875e-10
8.55885e-10
1.39731e-09
1.76982e-09
1.04843e-09
9.17772e-10
1.74806e-09
1.76908e-09
3.50106e-09
1.36754e-09
9.75743e-10
8.78938e-10
1.05223e-09
1.34648e-09
1.0523e-09
1.04586e-09
1.16944e-09
1.28113e-09
8.95889e-10
1.53834e-09
1.08884e-09
1.3504e-09
1.42926e-09
1.00818e-09
1.23015e-09
3.53792e-09
3.65509e-09
2.87221e-09
2.82939e-09
1.91013e-09
2.57319e-09
3.23055e-09
2.73304e-09
6.60391e-09
2.67077e-09
2.41212e-09
5.28094e-09
4.22408e-09
3.72411e-09
7.23385e-09
3.42956e-09
3.59003e-09
3.88263e-09
6.29126e-09
1.06807e-09
6.38812e-09
1.51624e-09
1.31753e-09
4.87501e-09
2.17576e-09
6.60812e-09
2.58367e-10
2.65046e-09
5.37875e-09
3.78444e-09
3.87475e-09
3.16505e-09
2.96317e-09
3.31604e-09
3.4112e-09
2.34487e-09
2.36447e-09
1.36305e-09
9.37705e-10
1.15751e-09
1.30353e-09
2.2814e-09
1.35949e-09
1.33108e-09
2.36129e-09
1.39545e-09
8.93823e-10
1.10751e-09
1.23241e-09
9.68472e-10
1.19945e-09
1.4639e-09
1.21607e-09
1.45988e-09
1.04449e-09
1.33064e-09
1.21881e-09
5.88795e-09
1.71096e-09
8.01007e-10
4.31442e-09
4.34065e-09
1.5458e-09
1.52877e-09
2.54651e-09
9.91023e-09
3.1122e-09
3.10199e-09
1.0162e-08
2.54774e-09
3.75246e-09
1.34266e-08
2.80335e-09
3.86167e-09
1.02128e-08
3.83882e-09
2.02927e-09
9.0715e-10
2.26863e-09
1.74518e-09
2.24115e-09
9.7415e-10
2.06892e-09
1.88378e-09
2.10037e-09
7.56433e-09
3.36767e-09
1.31438e-08
2.40649e-10
4.4952e-09
6.75848e-09
2.746e-09
2.81705e-09
2.56743e-09
2.5827e-09
2.23959e-09
2.27693e-09
1.32181e-09
1.2209e-09
1.01497e-09
1.02328e-09
1.52358e-09
1.29999e-09
1.28169e-09
1.15931e-09
1.02038e-09
1.03484e-09
1.54755e-09
1.31034e-09
9.85779e-10
1.49378e-09
1.66413e-09
1.17417e-09
1.41647e-09
1.25206e-09
9.57786e-10
1.66212e-09
2.49074e-09
1.10272e-09
1.15496e-09
5.35709e-10
5.34463e-10
1.12278e-09
9.21047e-10
9.25703e-10
2.43582e-09
2.95837e-09
8.38572e-10
2.36534e-09
2.34235e-09
8.63672e-10
3.1572e-09
1.02569e-08
7.47952e-09
3.72213e-09
9.58859e-09
3.0301e-09
4.88511e-09
1.30148e-08
6.98063e-09
4.06895e-09
8.2862e-09
3.29268e-09
1.49789e-09
1.85293e-09
1.42087e-09
2.55553e-09
2.29883e-10
1.83469e-09
6.17602e-09
3.87582e-09
3.95865e-09
2.51383e-09
2.55054e-09
1.43766e-09
9.15647e-10
1.19702e-09
1.34142e-09
1.65473e-09
1.17818e-09
1.61615e-09
1.69339e-09
1.21012e-09
9.58909e-10
1.3082e-09
1.37836e-09
1.11747e-09
1.97727e-09
1.03789e-09
3.98555e-09
1.10677e-09
1.96655e-09
1.04018e-09
3.86811e-09
9.71591e-10
1.08778e-09
9.57219e-10
1.22788e-09
1.75702e-09
1.34045e-09
1.10862e-09
1.17338e-09
1.05497e-09
1.13931e-09
7.75403e-10
7.49939e-10
6.18971e-10
3.02962e-09
1.23733e-09
2.09752e-09
1.0044e-09
8.86938e-10
6.58635e-10
7.07472e-10
3.27498e-09
6.4153e-10
1.13606e-09
1.77558e-09
9.07477e-10
8.74306e-10
6.70832e-10
7.03207e-10
7.09519e-09
2.81776e-09
9.9873e-09
3.00815e-09
8.75768e-10
1.63243e-09
8.72981e-10
1.61775e-09
2.34695e-10
2.0007e-09
2.52655e-09
1.87785e-09
1.93981e-09
2.80267e-09
1.69505e-09
1.77594e-09
1.69085e-09
1.62742e-09
1.1757e-09
1.75613e-09
1.81267e-09
1.29859e-09
1.72655e-09
1.09735e-09
2.53745e-09
2.33641e-09
1.74428e-09
3.05762e-09
1.22193e-09
2.77163e-09
1.39046e-09
1.68236e-09
1.18506e-09
2.33746e-09
1.35651e-09
1.71295e-09
1.17265e-09
2.3673e-09
2.66957e-09
4.109e-09
1.73792e-09
7.84406e-10
6.85262e-10
2.88966e-09
1.63289e-09
7.44391e-10
6.2111e-10
2.15394e-09
2.15742e-09
1.66711e-09
7.02115e-10
4.60831e-10
9.62691e-10
1.68565e-09
1.06809e-09
1.70574e-09
7.52914e-10
8.67365e-10
4.5549e-10
1.22168e-09
1.0859e-09
1.62266e-09
2.64203e-09
1.28759e-09
3.69027e-09
1.5701e-09
2.49472e-10
2.46252e-09
9.48325e-10
3.25095e-09
3.27106e-09
1.12188e-09
1.22316e-09
1.3279e-09
9.90973e-10
1.87309e-09
1.1998e-09
1.9294e-09
1.13575e-09
1.40401e-09
1.24737e-09
9.55025e-10
1.15691e-09
2.00059e-09
1.20821e-09
2.08261e-09
1.21107e-09
1.5877e-09
1.52034e-09
1.08297e-09
1.62803e-09
8.49708e-10
2.62952e-09
2.29222e-09
1.79432e-09
2.63986e-09
9.45e-10
2.39901e-09
6.03453e-09
2.57064e-09
4.00449e-09
2.02592e-09
1.8453e-09
7.75794e-10
6.82398e-10
1.04965e-09
1.07247e-09
8.8838e-10
1.28161e-09
2.01628e-09
1.43174e-09
7.46586e-10
1.34942e-09
1.44628e-08
1.38023e-09
2.16258e-09
9.17747e-10
1.02672e-09
9.14307e-10
1.36127e-09
1.74585e-09
1.32638e-09
6.84975e-10
1.23625e-09
7.37609e-09
1.16176e-09
2.01451e-09
5.86899e-10
7.16825e-10
1.85371e-09
1.95642e-09
6.02315e-10
6.79053e-10
1.85406e-09
1.82072e-09
2.63738e-10
1.94968e-09
1.2248e-09
1.57154e-09
1.51818e-09
2.25482e-09
1.68337e-09
1.55361e-09
2.36611e-09
1.52747e-09
1.18802e-09
1.39124e-09
1.07146e-09
2.90118e-09
9.65425e-10