/*--------------------------------*- C++ -*----------------------------------*\
| =========                 |                                                 |
| \\      /  F ield         | OpenFOAM: The Open Source CFD Toolbox           |
|  \\    /   O peration     | Version:  5.x                                   |
|   \\  /    A nd           | Web:      www.OpenFOAM.org                      |
|    \\/     M anipulation  |                                                 |
\*---------------------------------------------------------------------------*/
FoamFile
{
    version     2.0;
    format      ascii;
    class       volScalarField;
    location    "0.5";
    object      omega;
}
// * * * * * * * * * * * * * * * * * * * * * * * * * * * * * * * * * * * * * //

dimensions      [0 0 -1 0 0 0 0];

internalField   nonuniform List<scalar> 
12160
(
0.0719999
0.0719999
0.0058316
0.0719999
0.00860371
0.00164225
0.0719999
0.00984946
0.00204175
0.00135573
0.0719999
0.00797696
0.00229185
0.00149536
0.00132988
0.0719999
0.00701564
0.00189233
0.00155167
0.00140102
0.00146197
0.0719999
0.00565561
0.00171004
0.00140334
0.0014311
0.0015021
0.00153437
0.0719999
0.00470102
0.00146965
0.00133598
0.00134701
0.00146683
0.00160838
0.00172942
0.0719999
0.00384409
0.00133628
0.00123783
0.00129435
0.00138599
0.00152389
0.00169418
0.00489916
0.0719999
0.00318358
0.0012252
0.00118672
0.00121528
0.00132356
0.0014319
0.00154897
0.00299166
0.00505522
0.0719999
0.00266068
0.00115618
0.00113614
0.00117045
0.00124668
0.00132715
0.00151496
0.00265687
0.00401175
0.00302371
0.0719999
0.00225735
0.00110751
0.00110341
0.00112595
0.00119553
0.0012363
0.00141939
0.00300634
0.00262402
0.00585325
0.00208698
0.0719999
0.00194947
0.00107492
0.00107716
0.00109615
0.00114735
0.00117757
0.00140809
0.00269786
0.00215799
0.00520462
0.00244561
0.0019672
0.0719999
0.00171635
0.00105273
0.00105776
0.00107201
0.00111258
0.00113156
0.00140259
0.00238811
0.0020045
0.00541833
0.00243918
0.00191889
0.00163166
0.0719999
0.00154077
0.00103753
0.00104317
0.00105403
0.00108464
0.00109975
0.00142685
0.00199902
0.00195869
0.00430072
0.00332081
0.0017206
0.00177958
0.00137987
0.0719999
0.0014091
0.00102699
0.00103228
0.00104044
0.00106355
0.00107528
0.00145028
0.00168539
0.00188168
0.00330239
0.00253735
0.00169222
0.00164318
0.00151778
0.0719999
0.00131072
0.00101961
0.00102415
0.00103026
0.00104757
0.00105693
0.00146917
0.00145432
0.00174919
0.00248
0.0019924
0.00151911
0.00150098
0.00143374
0.0719999
0.00123753
0.00101438
0.00101809
0.00102265
0.00103558
0.00104301
0.00148011
0.00129884
0.00164929
0.00193247
0.0015631
0.00136067
0.00131574
0.00134485
0.0719999
0.00118311
0.00101056
0.00101357
0.00101697
0.0010266
0.00103247
0.00148239
0.00120071
0.00157713
0.00159236
0.00134229
0.0012509
0.00122753
0.00120192
0.0719999
0.00114357
0.00100779
0.00101014
0.00101273
0.0010199
0.00102448
0.00147594
0.00114109
0.00153269
0.00137653
0.00122085
0.00119916
0.00118887
0.00115408
0.0719999
0.00111463
0.00100579
0.00100756
0.00100948
0.00101491
0.00101844
0.00146163
0.00110643
0.00150527
0.00124157
0.00115111
0.00115723
0.00117539
0.00113846
0.0719999
0.00109441
0.00100436
0.00100565
0.00100703
0.00101112
0.00101388
0.00144061
0.00108707
0.00148544
0.00115726
0.00110788
0.00112505
0.00114807
0.00113435
0.0719999
0.00108104
0.00100335
0.00100426
0.00100522
0.00100827
0.0010104
0.00141367
0.00107671
0.00146595
0.00110495
0.001079
0.00109717
0.00112136
0.00111386
0.0719999
0.00107314
0.00100264
0.00100324
0.00100388
0.00100616
0.00100769
0.00138213
0.00107201
0.00144291
0.00107204
0.00105818
0.00107381
0.00109536
0.00109298
0.0719999
0.0010689
0.00100219
0.00100252
0.00100288
0.0010046
0.00100565
0.00134617
0.00107092
0.00141532
0.00105115
0.00104306
0.0010549
0.00107288
0.00107265
0.0719999
0.00106813
0.00100195
0.00100204
0.00100215
0.00100345
0.0010041
0.00130645
0.00107324
0.00138321
0.00103752
0.00103233
0.00104011
0.00105427
0.0010553
0.0719999
0.00107066
0.0010019
0.00100178
0.00100164
0.00100262
0.0010029
0.00126383
0.00107636
0.00134718
0.0010282
0.00102476
0.001029
0.00103963
0.00104106
0.0719999
0.00107669
0.00100204
0.00100173
0.00100136
0.00100205
0.00100195
0.00121734
0.00108225
0.00130742
0.00102232
0.00101951
0.00102057
0.00102872
0.00102993
0.0719999
0.00108657
0.00100237
0.00100187
0.00100129
0.00100173
0.00100117
0.00116808
0.00108987
0.0012642
0.00101783
0.00101626
0.00101439
0.00102048
0.00102159
0.0719999
0.00110085
0.00100288
0.00100221
0.00100146
0.00100166
0.0010005
0.00111674
0.00109831
0.00121756
0.00101619
0.00101418
0.0010101
0.00101453
0.0010152
0.0719999
0.00112019
0.00100361
0.00100274
0.00100183
0.00100184
0.00100034
0.00106495
0.00110591
0.00116865
0.0010163
0.00101307
0.00100703
0.00101042
0.00101049
0.0719999
0.00114538
0.00100458
0.00100347
0.00100237
0.00100224
0.00100081
0.0010154
0.00111131
0.00111856
0.00101803
0.00101267
0.00100572
0.00100745
0.00100704
0.0719999
0.00117748
0.00100583
0.00100442
0.00100311
0.00100286
0.00100148
0.00103534
0.00111253
0.00106962
0.00101966
0.00101242
0.00100585
0.00100555
0.00100438
0.0719999
0.00121775
0.00100743
0.00100563
0.00100404
0.00100369
0.00100227
0.00108014
0.0011093
0.0010307
0.00102072
0.00101204
0.00100648
0.00100461
0.00100221
0.0719999
0.00126772
0.00100945
0.00100715
0.00100522
0.00100475
0.00100321
0.0011234
0.00110218
0.00104462
0.00102041
0.00101153
0.0010068
0.00100405
0.00100136
0.0719999
0.00132916
0.00101201
0.00100903
0.00100667
0.0010061
0.00100434
0.00116266
0.00109294
0.00108415
0.00101967
0.00101119
0.00100673
0.00100336
0.00100167
0.0719999
0.00140409
0.00101521
0.00101135
0.00100847
0.00100779
0.00100572
0.00119769
0.00108363
0.00112522
0.00101813
0.00101117
0.00100642
0.00100243
0.00100143
0.0719999
0.00149474
0.00101924
0.00101418
0.00101067
0.00100987
0.00100738
0.00122865
0.0010756
0.00116367
0.00101599
0.00101141
0.00100603
0.0010016
0.0010009
0.0719999
0.0016037
0.00102429
0.00101762
0.00101335
0.00101243
0.00100941
0.00125578
0.0010695
0.00119868
0.00101411
0.00101164
0.00100551
0.00100166
0.00100035
0.0719999
0.00173364
0.00103064
0.00102177
0.0010166
0.00101556
0.00101187
0.0012795
0.00106535
0.00122976
0.00101362
0.00101184
0.0010049
0.0010021
0.00100033
0.00189298
0.0719999
0.00103851
0.00102678
0.00102051
0.00101935
0.00101484
0.00130008
0.00106295
0.00125669
0.0010149
0.00101224
0.00100437
0.00100259
0.00100054
0.00104922
0.00219302
0.0719999
0.00103269
0.00102521
0.00102392
0.0010184
0.00131758
0.00106221
0.00128011
0.00101758
0.00101321
0.00100441
0.00100324
0.00100053
0.00104034
0.00107064
0.00278777
0.0719999
0.00103076
0.00102941
0.00102267
0.00133201
0.00106317
0.00130045
0.00102152
0.00101494
0.00100617
0.00100433
0.00100081
0.00103786
0.00105451
0.00111869
0.00360863
0.0719999
0.00103594
0.00102776
0.00134334
0.00106614
0.00131793
0.00102681
0.00101745
0.00100883
0.00100625
0.00100219
0.0010441
0.00105112
0.00108191
0.00120005
0.0047191
0.0719999
0.00103381
0.00135144
0.00107141
0.00133258
0.00103377
0.0010209
0.00101221
0.00100901
0.00100404
0.00104105
0.00105942
0.00107617
0.00112151
0.00133536
0.00625027
0.0719999
0.00135637
0.00107953
0.00134478
0.00104271
0.00102534
0.00101641
0.00101242
0.00100625
0.00135779
0.00105504
0.00108854
0.00111139
0.00117683
0.00157118
0.00843048
0.0719999
0.00109214
0.0013549
0.00105427
0.00103098
0.0010215
0.00101657
0.00100888
0.00111647
0.00136457
0.00108079
0.00112816
0.00115785
0.00125876
0.00202367
0.0119444
0.0719999
0.00137033
0.00106977
0.00103781
0.00102764
0.00102155
0.00101203
0.00137604
0.00114986
0.00134315
0.00111578
0.00117819
0.00121959
0.00139723
0.00312463
0.0206814
0.0719999
0.0010902
0.00104632
0.00103469
0.00102753
0.00101596
0.00111372
0.00140003
0.00124331
0.00131547
0.00116007
0.0012395
0.00130558
0.00171385
0.00657725
0.0434377
0.0719999
0.00105643
0.00104311
0.00103438
0.0010206
0.00106654
0.00117564
0.00143556
0.00137528
0.00128255
0.00121431
0.00131318
0.00144798
0.00272969
0.0169312
0.0636399
0.0651938
0.00105233
0.00104257
0.00102597
0.00106215
0.00108839
0.00130252
0.00147862
0.0015196
0.00125117
0.00127696
0.0014055
0.00178307
0.00623576
0.030212
0.0523224
0.00224536
0.0568889
0.00105147
0.00103226
0.0010615
0.00108103
0.00113012
0.00149337
0.00150127
0.00162444
0.00122497
0.00134561
0.00154848
0.00281741
0.0134161
0.033822
0.00283439
0.00156225
0.00185627
0.0568889
0.001039
0.00104673
0.00108002
0.00110847
0.00119061
0.00172284
0.00148213
0.00164719
0.00120398
0.00142562
0.00185587
0.00571667
0.0181913
0.00338031
0.00185778
0.00150305
0.0014066
0.00168274
0.0568889
0.00106091
0.00110588
0.00113547
0.00127495
0.00194858
0.00142172
0.00158848
0.00119239
0.00154329
0.00274273
0.00866321
0.00317244
0.00216094
0.00175153
0.0018989
0.00147719
0.00148833
0.00176287
0.0568889
0.00108092
0.00112877
0.00116088
0.00138847
0.00211522
0.00138219
0.00148132
0.00124177
0.00183532
0.00393708
0.00267359
0.00227504
0.00215992
0.00210874
0.00253354
0.00185989
0.00161657
0.00168496
0.00186421
0.0568889
0.00109931
0.00114374
0.00118609
0.00153128
0.00219007
0.00141606
0.00138878
0.00141506
0.00221954
0.00220631
0.00228165
0.0024337
0.00221318
0.00251219
0.00576947
0.00270223
0.00205142
0.00185352
0.00185393
0.00194853
0.0568889
0.00111141
0.00114887
0.00121591
0.0016791
0.00218185
0.00149269
0.00137813
0.00162477
0.00190677
0.00213051
0.0025223
0.00217628
0.00287228
0.00450035
0.0148994
0.00618237
0.0142341
0.0134174
0.0131667
0.00294556
0.00236584
0.00205455
0.00197559
0.0020368
0.0568889
0.00111322
0.00115102
0.00125123
0.00177687
0.00215117
0.0016016
0.00145984
0.00165271
0.00197028
0.00236023
0.00224513
0.00320011
0.00337939
0.011464
0.01715
0.0147708
0.00663663
0.0173346
0.0151954
0.0153009
0.0182923
0.0162077
0.0177144
0.00349232
0.00261337
0.0021484
0.00208095
0.00211186
0.0568889
0.00110811
0.00116467
0.00128017
0.00179254
0.00214886
0.00174245
0.00153097
0.00176039
0.00216145
0.00232271
0.00323394
0.0028217
0.00832377
0.0183534
0.0181117
0.0158896
0.0154904
0.0172645
0.02473
0.00706208
0.0121146
0.0187431
0.0180699
0.0186654
0.02432
0.0224647
0.0219658
0.00397958
0.0026236
0.00224157
0.00218267
0.00217586
0.0568889
0.00111327
0.00119361
0.00128647
0.00174435
0.00223021
0.00185797
0.00162372
0.00191445
0.00238003
0.0029863
0.00282351
0.0059071
0.0147058
0.0142057
0.0130893
0.0128485
0.0251424
0.0246948
0.0236855
0.0230448
0.0259665
0.0256291
0.0286815
0.0257827
0.0284929
0.00763321
0.0134205
0.0256837
0.0264203
0.0256877
0.0263947
0.0259874
0.0257293
0.0263615
0.0252319
0.0285162
0.0254449
0.0282473
0.0253902
0.0267757
0.0253553
0.0279243
0.0249449
0.026408
0.0249228
0.0276214
0.00383134
0.00262761
0.00238087
0.00225155
0.00222899
0.0568889
0.00113212
0.00123117
0.00130329
0.00163494
0.00234733
0.00203073
0.00174937
0.00220539
0.00269109
0.00304314
0.00436807
0.0109655
0.0109766
0.0103395
0.0104352
0.0222092
0.0216219
0.0199315
0.0195332
0.026588
0.0271066
0.0244144
0.026526
0.0245424
0.0252791
0.0268605
0.0264208
0.0240748
0.0263675
0.0240512
0.0248828
0.0260836
0.0233062
0.0263428
0.0238677
0.0260001
0.0228097
0.0262132
0.0233312
0.0265661
0.0288313
0.0262689
0.0288832
0.025379
0.0286512
0.0253187
0.0286314
0.00704451
0.0147644
0.0258501
0.0263617
0.0257841
0.0264492
0.0278791
0.0281111
0.0276902
0.0279624
0.0264825
0.0287476
0.0260529
0.0288821
0.0265846
0.0284253
0.0266088
0.0288196
0.0268313
0.028738
0.0271036
0.0289439
0.0250519
0.0285712
0.0250034
0.0285203
0.0253596
0.0281848
0.0250115
0.0280417
0.00356641
0.00288735
0.00245126
0.00228946
0.00231471
0.0568889
0.00116091
0.00128745
0.00131741
0.0015437
0.00252958
0.00231234
0.00202084
0.00237222
0.00344276
0.00398519
0.00931414
0.00933757
0.00928723
0.00929099
0.0166889
0.0165331
0.0139022
0.0139245
0.0257833
0.0224262
0.025467
0.0216729
0.0257443
0.0219746
0.0254733
0.0212927
0.024522
0.0195011
0.025092
0.0204961
0.024572
0.0192714
0.0251245
0.0201883
0.0270272
0.0257661
0.0225797
0.0246226
0.0254913
0.0223249
0.0269314
0.0255463
0.0243582
0.0221728
0.0253229
0.0220979
0.0253316
0.0213949
0.0254044
0.0220333
0.0252522
0.0211223
0.0252707
0.0217342
0.0252035
0.0285564
0.0252711
0.0283503
0.0242281
0.0276747
0.0237464
0.0276203
0.00567945
0.0137621
0.0262133
0.0261437
0.025974
0.0262206
0.0283824
0.0284757
0.0281257
0.0282864
0.0281223
0.0270351
0.0278782
0.0263586
0.028271
0.0270808
0.028076
0.0264714
0.0272268
0.0277658
0.0244354
0.0275788
0.0255238
0.0257425
0.0274016
0.0279067
0.0245296
0.0277829
0.025652
0.0259353
0.0249902
0.0285133
0.024995
0.0283477
0.0252699
0.0281547
0.0252093
0.0281815
0.0242322
0.0276932
0.023839
0.027625
0.0245716
0.0273962
0.0244238
0.0273627
0.00402543
0.00298191
0.0024262
0.00235624
0.00259172
0.0568889
0.00119253
0.00135106
0.00139813
0.00147015
0.00283805
0.00300218
0.0022694
0.00316126
0.00412718
0.00909032
0.00911651
0.00893174
0.00894847
0.0126628
0.0127351
0.0121306
0.0121842
0.0234755
0.0180403
0.0222381
0.0172942
0.0235294
0.0179072
0.0223379
0.0172502
0.0187201
0.0163097
0.0207483
0.0162824
0.0188314
0.0164418
0.0208567
0.016363
0.0253125
0.0206291
0.025349
0.0199279
0.0252886
0.0204046
0.0253734
0.0197732
0.0255507
0.0188775
0.0254578
0.0193076
0.025644
0.0188449
0.0255177
0.01922
0.0227281
0.0275631
0.0231919
0.0273184
0.00611812
0.0100007
0.0250093
0.0243523
0.0260595
0.0255768
0.0286557
0.0286087
0.0285926
0.0286343
0.0289313
0.028526
0.0287537
0.0282913
0.0290076
0.0285376
0.0288193
0.0283058
0.0283376
0.0275819
0.0285334
0.0279669
0.028429
0.0275536
0.0285963
0.0279685
0.0270475
0.0248235
0.0272036
0.0247162
0.0272274
0.024912
0.0274337
0.0248559
0.0269554
0.0274431
0.0244292
0.0233824
0.0273732
0.024619
0.0270981
0.0277433
0.0246032
0.0234386
0.0276506
0.0247799
0.0228236
0.0275995
0.0233037
0.0273877
0.0228142
0.0269953
0.0228433
0.0271062
0.00427549
0.00276235
0.00243257
0.0026213
0.00371289
0.0568889
0.00124779
0.00140944
0.00151137
0.00160237
0.0029759
0.00406977
0.00334221
0.00374627
0.00474368
0.0117982
0.0118505
0.0116527
0.0116954
0.016381
0.0165056
0.0147712
0.0148863
0.0251908
0.0183076
0.0246182
0.0178258
0.0252687
0.0183404
0.0247159
0.0179251
0.0211597
0.017022
0.0235412
0.0174047
0.0212476
0.0171719
0.0236406
0.0175539
0.0262756
0.0190088
0.0263932
0.0190456
0.00670131
0.00993293
0.0159349
0.0160904
0.0208052
0.0202943
0.0268771
0.0265318
0.0279205
0.0277217
0.0290745
0.0293099
0.0289913
0.029169
0.02908
0.0291106
0.0290739
0.0290347
0.02895
0.028814
0.0288682
0.029015
0.0290447
0.0287831
0.0289853
0.0289503
0.0268326
0.025166
0.0267198
0.0250564
0.0269253
0.0252643
0.0268209
0.0251488
0.0268664
0.0248694
0.0267062
0.0248986
0.0270061
0.0249171
0.0268076
0.0249164
0.00365361
0.00258105
0.00266319
0.00373538
0.00832884
0.0568889
0.00128203
0.00150342
0.00168784
0.00174566
0.00455731
0.00554287
0.00527266
0.00515454
0.0102019
0.0102158
0.0118849
0.0118866
0.0139775
0.0140656
0.013279
0.0133398
0.0169892
0.0245055
0.0175885
0.0235016
0.0170965
0.0244696
0.0177084
0.0234353
0.0160805
0.020376
0.0156911
0.0221176
0.0161831
0.0202846
0.0157787
0.0220046
0.0263477
0.018803
0.0263679
0.0186493
0.0264418
0.0188748
0.026452
0.0187563
0.025593
0.0182124
0.0261458
0.0185105
0.0256164
0.0183353
0.026201
0.0186347
0.00570127
0.0110622
0.0162521
0.0249209
0.0250771
0.0257004
0.0254226
0.0270366
0.027286
0.0274787
0.0276679
0.0273104
0.0274979
0.0268674
0.0256719
0.0273956
0.0274548
0.0270742
0.0258478
0.0268637
0.025124
0.026656
0.0250399
0.0270001
0.0252829
0.0268877
0.0252822
0.0267091
0.024975
0.0267692
0.0253546
0.00300103
0.00270394
0.00374858
0.00835051
0.0260825
0.0719993
0.00137892
0.00147251
0.00185324
0.00260516
0.00800244
0.00667382
0.0106927
0.0189053
0.0152488
0.0152611
0.0169868
0.0169967
0.0186136
0.0151731
0.0153347
0.017411
0.0186052
0.015285
0.0154524
0.0174411
0.0159747
0.0160319
0.0173003
0.0251717
0.0177014
0.0249763
0.0174171
0.0251547
0.0178181
0.0249211
0.0168669
0.0232101
0.0165696
0.0244725
0.0169871
0.0231122
0.0166885
0.0243792
0.0253402
0.0180864
0.0253586
0.0181997
0.00419462
0.00953218
0.0177854
0.0204106
0.0208221
0.0238754
0.0243822
0.0254981
0.0257824
0.026959
0.0271273
0.0256662
0.0268825
0.0266135
0.0263625
0.0263919
0.0275539
0.0270662
0.027126
0.0244729
0.0254817
0.0234308
0.0258412
0.0255488
0.026245
0.0246628
0.0266571
0.0253728
0.0234317
0.0254131
0.0235092
0.0260567
0.0244998
0.0258774
0.0243259
0.0261091
0.0245137
0.0256232
0.023996
0.0262404
0.0249897
0.0258343
0.0246092
0.00277598
0.00371804
0.00831942
0.0261042
0.0719993
0.00135455
0.00158138
0.00206998
0.00762282
0.00952171
0.0144322
0.0307225
0.0270948
0.0270751
0.0321478
0.0322166
0.0205929
0.017702
0.0212568
0.0196428
0.0204779
0.0176583
0.0212188
0.019652
0.0240091
0.0240163
0.021632
0.0163291
0.0162682
0.0194102
0.021565
0.0164401
0.016346
0.0194093
0.0210548
0.0172957
0.0218765
0.017186
0.0209221
0.0172443
0.0216604
0.0171302
0.017304
0.0262957
0.0173556
0.0268555
0.0173918
0.0259423
0.0174061
0.0266113
0.00307637
0.00680308
0.0157901
0.0261215
0.0270095
0.027187
0.0270357
0.0275559
0.0272366
0.0276944
0.0275239
0.0273024
0.0279197
0.0279009
0.0280637
0.0275078
0.0280074
0.0283429
0.0235961
0.0257836
0.0238501
0.0255637
0.0247915
0.0266439
0.0248921
0.0264383
0.0233327
0.0257777
0.0231374
0.0255347
0.0245759
0.0264185
0.0243682
0.0263096
0.025973
0.0232446
0.0264141
0.0243761
0.00363158
0.00815856
0.0259965
0.0719993
0.00147301
0.00151313
0.00205941
0.010564
0.0370361
0.042963
0.0436401
0.0436979
0.0603115
0.0603144
0.0375699
0.0374227
0.0433711
0.0433481
0.0250613
0.0207797
0.0248475
0.0225149
0.0249123
0.0207558
0.024817
0.022518
0.0278733
0.0319452
0.03079
0.0301033
0.0278584
0.0318576
0.0307181
0.0300854
0.0255418
0.0174558
0.0175373
0.0241616
0.0251911
0.017452
0.0174691
0.0238769
0.0255426
0.0197158
0.0258895
0.0188972
0.0253835
0.019649
0.0256393
0.0188122
0.00358338
0.0041573
0.0116286
0.0245864
0.0333843
0.0338527
0.0315351
0.0318683
0.0301354
0.0302615
0.0289653
0.0280124
0.0292427
0.028301
0.0294528
0.028383
0.0297191
0.0286922
0.0282365
0.0276896
0.0275051
0.0269342
0.0270948
0.0273594
0.0287746
0.0280467
0.0280483
0.0272821
0.0276357
0.0276108
0.0264022
0.0249166
0.0271025
0.0255389
0.0239986
0.0258058
0.0239955
0.0259372
0.0252522
0.0266494
0.0251878
0.0267641
0.00780779
0.0256105
0.0719993
0.00134585
0.00196686
0.00380126
0.0243043
0.0595461
0.100607
0.0545692
0.0548889
0.0862744
0.0864434
0.0429523
0.0371995
0.0408742
0.0438125
0.0422407
0.0354292
0.0370252
0.0427739
0.035295
0.0406051
0.0436359
0.0419357
0.0486132
0.0479297
0.0478036
0.0463664
0.0484993
0.0478801
0.0475021
0.0460769
0.0290142
0.0238501
0.0296975
0.026124
0.0289045
0.023883
0.0296434
0.0261616
0.0319345
0.0346579
0.0318862
0.0346127
0.0183787
0.0263971
0.0182896
0.0260736
0.0279551
0.0217163
0.0278095
0.0216875
0.00730725
0.00390985
0.00692246
0.0195986
0.0326193
0.0317641
0.0351175
0.0354356
0.0334618
0.0345194
0.0312453
0.032293
0.0283676
0.0303564
0.030391
0.0292383
0.0286065
0.0288629
0.0291228
0.0309581
0.0307287
0.0298634
0.0288928
0.0292967
0.0281627
0.0266764
0.0286651
0.0270241
0.0271429
0.0253961
0.0265107
0.0265591
0.0244857
0.0256382
0.0277948
0.025988
0.0272441
0.0271818
0.0253627
0.0261753
0.0258974
0.0239854
0.026634
0.0248472
0.024811
0.0719993
0.00138403
0.00178486
0.0104511
0.0272799
0.101293
0.115025
0.117263
0.129004
0.134173
0.0575534
0.0575507
0.0977585
0.100098
0.0407201
0.0453418
0.043137
0.0383941
0.0475048
0.0459766
0.0404659
0.045188
0.0381938
0.0427866
0.0473918
0.0455087
0.0545788
0.0525022
0.0534087
0.0510376
0.0540154
0.0520034
0.0527984
0.0503152
0.0324731
0.028789
0.0323881
0.0288101
0.0235877
0.00694952
0.00531127
0.0125505
0.0300168
0.0364128
0.0365955
0.0353457
0.0360835
0.0344821
0.0356108
0.0323304
0.0319971
0.0354705
0.0364195
0.0336522
0.0334412
0.0299699
0.0286964
0.0268074
0.0305573
0.0286223
0.02786
0.0312422
0.029792
0.0288099
0.0319101
0.0304578
0.029362
0.0253154
0.0264995
0.0281433
0.028153
0.0270455
0.0273328
0.029081
0.0287032
0.0273377
0.0251552
0.0278769
0.0260371
0.0269165
0.0245415
0.0259987
0.0240083
0.0273378
0.0255519
0.0268472
0.0250367
0.0719993
0.00133479
0.00418823
0.0132929
0.0552078
0.16155
0.106898
0.108703
0.128026
0.128894
0.0596508
0.0614023
0.0594393
0.0619906
0.0592107
0.0609271
0.0589906
0.0614634
0.0900688
0.0913885
0.0601107
0.0570038
0.0562361
0.0536293
0.0590732
0.0558826
0.0554457
0.0526492
0.0719993
0.0221317
0.00738618
0.00911677
0.021353
0.0360807
0.035972
0.0398475
0.0399433
0.0354788
0.0354316
0.0356582
0.0364882
0.0344118
0.0364856
0.0311505
0.0292184
0.0355981
0.0378241
0.032585
0.0310395
0.0295718
0.0301499
0.0260113
0.026437
0.0302536
0.0272402
0.0306263
0.0313101
0.0283665
0.027878
0.0314906
0.0291686
0.0248556
0.0278962
0.0263435
0.0285438
0.00172142
0.00370718
0.015333
0.111214
0.1941
0.191261
0.240496
0.248502
0.115324
0.113794
0.145488
0.142045
0.0627245
0.0660565
0.0622412
0.0684809
0.061756
0.0643592
0.0611729
0.0663519
0.093965
0.092342
0.0897828
0.087633
0.0919061
0.0927171
0.0856223
0.087486
0.0632911
0.0597543
0.061752
0.0582247
0.0719979
0.0206837
0.00970429
0.0167298
0.0336635
0.0416735
0.0426043
0.0392848
0.0406456
0.0363278
0.0379166
0.0381246
0.0344965
0.0348591
0.0360827
0.038882
0.0365001
0.036817
0.0375987
0.0321
0.0294359
0.0311723
0.028283
0.034462
0.0333897
0.0333501
0.0319413
0.00246831
0.00543035
0.0390813
0.178512
0.250411
0.265022
0.285366
0.305909
0.10429
0.100523
0.131237
0.12703
0.126537
0.130791
0.0981207
0.101709
0.13135
0.122039
0.128219
0.126354
0.183958
0.185702
0.0668499
0.068397
0.0640249
0.0753739
0.0654291
0.066296
0.0625458
0.0706931
0.0964299
0.0923846
0.0901694
0.0934731
0.0719922
0.0197103
0.0155594
0.0261794
0.0403546
0.0402069
0.0391633
0.0390732
0.0408807
0.0417533
0.0390511
0.0403176
0.0358516
0.0357025
0.03475
0.030748
0.0333702
0.0324661
0.0375239
0.0373232
0.0365973
0.0329721
0.03615
0.0360206
0.0321469
0.0300985
0.0353329
0.0338615
0.0312628
0.0287999
0.0340571
0.0331316
0.00278774
0.00839118
0.0647658
0.302033
0.328755
0.223347
0.227309
0.34576
0.39609
0.345329
0.389596
0.113637
0.110556
0.158399
0.148337
0.15764
0.156277
0.104736
0.11355
0.163909
0.132018
0.166503
0.143871
0.225953
0.242628
0.211091
0.217844
0.235847
0.259642
0.211788
0.23071
0.0719775
0.0205693
0.0269487
0.0388988
0.0460096
0.045924
0.0426703
0.0433146
0.0420601
0.0428758
0.0349123
0.0347329
0.0395286
0.0368286
0.0342946
0.0393284
0.0405851
0.0384166
0.0360096
0.0405188
0.0367476
0.0368381
0.0339777
0.0342393
0.0301356
0.0295534
0.0355496
0.0362211
0.0324348
0.0321693
0.033456
0.0289759
0.0356451
0.0316436
0.00284972
0.011218
0.0397823
0.235935
0.239619
0.147412
0.146907
0.28904
0.312244
0.411552
0.420026
0.431631
0.39965
0.343711
0.369238
0.456351
0.489574
0.485459
0.469169
0.334694
0.34579
0.211507
0.191999
0.227059
0.167392
0.270691
0.276065
0.31302
0.314884
0.0719467
0.0260278
0.040518
0.054878
0.055182
0.0535402
0.0520174
0.0469926
0.0469735
0.047427
0.047626
0.0445226
0.0442674
0.0418853
0.041582
0.0408191
0.0425002
0.0451072
0.041554
0.0432276
0.0448741
0.0425046
0.0419489
0.0352798
0.0307155
0.034764
0.0326521
0.036208
0.0369456
0.0342055
0.0328055
0.00223934
0.00800023
0.0132805
0.197935
0.200659
0.111512
0.111328
0.390973
0.412415
0.390187
0.439564
0.443689
0.355551
0.475954
0.488408
0.385298
0.485703
0.449037
0.373011
0.228857
0.286428
0.305841
0.336838
0.240473
0.289454
0.318597
0.334153
0.350373
0.36774
0.448132
0.454152
0.0718876
0.0397744
0.0572052
0.0575563
0.0583896
0.0542844
0.054514
0.0528457
0.0532804
0.046273
0.0464139
0.0497248
0.0479921
0.0470571
0.0504312
0.0462197
0.0464192
0.0498502
0.0480183
0.0470944
0.0504853
0.0431347
0.0379294
0.0408668
0.0355958
0.0388509
0.0361687
0.0428723
0.0405998
0.00404449
0.00626045
0.156776
0.128055
0.127874
0.154821
0.128568
0.129017
0.272907
0.206866
0.279936
0.2691
0.211759
0.279986
0.422663
0.451636
0.411843
0.482928
0.47208
0.440645
0.510969
0.502266
0.393785
0.538988
0.488588
0.440209
0.257011
0.303925
0.270022
0.309446
0.0717744
0.0632703
0.0697937
0.0601735
0.0606622
0.0597176
0.060107
0.0572412
0.0561951
0.0551115
0.0539707
0.0517058
0.0523717
0.0576835
0.0517417
0.0524831
0.0567461
0.0555916
0.0544089
0.0447324
0.0425714
0.0486156
0.0452401
0.0447619
0.0426132
0.0485656
0.0451637
0.0408577
0.0369904
0.0409516
0.0372037
0.00243005
0.0335448
0.225749
0.247442
0.220166
0.243665
0.164834
0.162087
0.294286
0.274808
0.455376
0.266168
0.360916
0.361319
0.263752
0.318886
0.270641
0.290203
0.43606
0.263692
0.345717
0.356695
0.259781
0.315416
0.365638
0.386748
0.391777
0.416542
0.2828
0.339092
0.283796
0.322416
0.0715405
0.0845705
0.0910444
0.0667254
0.0677141
0.0951133
0.078253
0.080258
0.0615618
0.0576369
0.0591486
0.0626021
0.0585377
0.0600709
0.051625
0.0529604
0.0490158
0.049435
0.0521065
0.0493226
0.053931
0.0507624
0.0454301
0.0415599
0.0486435
0.0426869
0.0454219
0.041567
0.0490222
0.0434209
0.00157072
0.143985
0.404965
0.374905
0.259292
0.554024
0.39329
0.373249
0.257606
0.490461
0.341079
0.302086
0.31029
0.318613
0.286096
0.405758
0.395082
0.405174
0.305251
0.284669
0.317184
0.365293
0.391515
0.389634
0.341143
0.311893
0.330883
0.31656
0.0711729
0.105647
0.091002
0.0673319
0.0679956
0.0989182
0.0747813
0.0781015
0.0595055
0.0553215
0.0579221
0.0554009
0.0580076
0.0572767
0.0635583
0.0631004
0.0609843
0.0568476
0.0590182
0.0570498
0.0595361
0.0591208
0.0645819
0.0643292
0.049963
0.0501585
0.0434412
0.0438699
0.050999
0.0453344
0.0522679
0.0465246
0.00250052
0.382207
0.56469
0.423196
0.32857
0.173762
0.162734
0.544867
0.551796
0.42892
0.605696
0.400079
0.603505
0.524412
0.635421
1.08016
0.603835
0.78386
0.497699
0.547553
0.417051
0.606183
0.390852
0.56716
0.49396
0.60818
0.862156
0.544186
0.7385
0.32822
0.417457
0.402804
0.529842
0.325889
0.408653
0.390396
0.525494
0.0706553
0.121686
0.088108
0.0649915
0.0679265
0.0678888
0.0671473
0.0686828
0.0685906
0.0979328
0.0747483
0.0804885
0.0546793
0.0608192
0.0496386
0.048909
0.0446862
0.058916
0.056725
0.0620134
0.0520606
0.0472062
0.0514692
0.060203
0.0468874
0.0391132
0.0495599
0.0424399
0.00529165
1.20441
0.368209
0.802312
0.326495
0.162448
0.156217
0.437084
0.536359
0.630949
0.58225
0.672388
0.842478
1.32626
1.09257
2.11984
1.03463
1.45019
2.2105
1.19319
1.61238
0.426352
0.511933
0.577593
0.611507
0.617076
0.788831
0.893731
0.934126
1.87734
0.850414
1.32357
1.6773
0.832439
1.19256
0.0704379
0.209273
0.0961071
0.101366
0.211761
0.152443
0.142191
0.0625519
0.0666205
0.0583833
0.0503757
0.0658269
0.0607447
0.0587499
0.0490616
0.065764
0.0684026
0.060176
0.0534046
0.0673248
0.0646687
0.0619669
0.0543534
0.0773831
0.0635656
0.0651033
0.0818591
0.0693141
0.0720638
0.0556592
0.0618321
0.0502074
0.0584693
0.056941
0.0634356
0.0522296
0.0611297
0.00288062
1.72828
2.10888
1.29731
0.370432
1.14459
1.53101
0.902383
0.330941
0.165168
0.158588
0.6499
0.782659
1.02401
1.37338
1.86941
2.36304
1.08066
1.88118
2.77558
3.15088
0.604567
0.736513
0.866948
1.24649
1.46328
0.906814
1.46436
1.69337
2.43457
2.35429
0.0701625
0.254792
0.101124
0.102792
0.231012
0.108308
0.108319
0.058919
0.0567924
0.0484029
0.0454034
0.0593467
0.049988
0.0607742
0.0596922
0.0517134
0.0505269
0.0626648
0.055524
0.0772922
0.0642485
0.0572198
0.0622879
0.0599916
0.0689581
0.0847329
0.0824781
0.0803553
0.0668695
0.0622142
0.0673256
0.067266
0.0745829
0.0880406
0.0869842
0.00226511
0.171179
0.16774
2.17934
2.85807
1.67571
3.48056
1.61272
0.358103
1.41555
2.1162
1.16205
2.61664
1.13512
0.338531
1.74661
3.87418
4.22978
2.49281
4.13684
4.59401
1.3799
3.33379
2.5207
2.20426
3.82969
3.54937
0.0691821
0.256647
0.113974
0.0996093
0.0956688
0.112802
0.101658
0.0980411
0.209017
0.0707444
0.0854194
0.0579291
0.0473795
0.061151
0.051036
0.061363
0.0526229
0.0643985
0.0563751
0.06842
0.0817809
0.0643401
0.0564038
0.052083
0.0759941
0.0711937
0.0836295
0.0668825
0.0578676
0.0627682
0.0776059
0.00230192
0.179097
0.180237
0.172014
0.171703
2.50755
4.98124
1.98274
4.12518
2.27271
6.67815
6.25641
0.357365
1.47623
3.59346
1.32388
3.05696
1.32874
4.54819
5.03078
0.330566
8.0745
6.49086
8.52114
6.81578
0.0685184
0.253013
0.230178
0.107523
0.115735
0.112351
0.120046
0.107321
0.108402
0.115122
0.109145
0.119379
0.10712
0.124094
0.121403
0.0692467
0.0643544
0.0972657
0.0588059
0.0537542
0.110211
0.0698763
0.0685402
0.0968365
0.0610401
0.0626194
0.105945
0.00158315
0.186179
0.188735
0.181557
0.18527
0.355301
0.319809
1.20024
8.39262
2.24748
5.87741
4.83449
10.8362
9.61364
8.08639
15.1343
13.5342
9.22655
0.904412
6.22574
1.34046
3.81588
1.35855
8.95169
6.52994
6.35901
10.7826
14.314
9.77712
0.0685231
0.201724
0.196472
0.201372
0.186346
0.10264
0.11215
0.11254
0.113515
0.110827
0.106557
0.118522
0.105152
0.113409
0.110109
0.114305
0.111413
0.0994162
0.113319
0.105888
0.108602
0.0706196
0.0644982
0.0683545
0.0628958
0.00241966
0.182949
0.170505
0.181798
0.169088
0.366159
0.363627
0.34013
0.341919
0.957542
0.79901
2.05062
1.33561
3.06415
1.18474
21.1941
23.5366
17.7874
28.0867
17.235
20.8871
12.9188
27.4117
1.70089
0.989155
2.0736
0.925951
22.5838
19.8612
15.9477
29.5195
17.3934
22.7296
13.8186
31.2542
0.0691927
0.198904
0.203188
0.188127
0.200563
0.0855284
0.0961206
0.0995351
0.107109
0.0983887
0.103329
0.104829
0.110497
0.112799
0.114689
0.112863
0.0792967
0.0859174
0.107391
0.109077
0.102894
0.106605
0.107399
0.11145
0.107991
0.115135
0.11237
0.0694999
0.0674315
0.00177756
0.156134
0.159941
0.154628
0.15347
0.353996
0.333025
0.339695
0.320856
0.908174
0.850262
0.732022
0.731267
1.4169
0.972621
1.26606
0.975449
1.38265
0.820341
1.22056
0.829191
4.05156
4.62233
9.3514
1.54096
4.0347
3.87946
8.98117
1.24764
0.0701706
0.254407
0.262092
0.226558
0.209444
0.0859388
0.105039
0.0968518
0.108383
0.0991552
0.10718
0.0902369
0.0855347
0.0879128
0.0846117
0.10421
0.0976317
0.0993998
0.103224
0.110553
0.101526
0.111008
0.108035
0.101382
0.0945212
0.0979726
0.0955756
0.105343
0.0986405
0.102234
0.105093
0.111384
0.0962338
0.111264
0.104943
0.111677
0.00168015
0.314397
0.318692
0.303188
0.294782
0.748458
0.700769
0.678787
0.646239
1.2954
0.946233
1.35896
0.959337
1.26321
0.892376
1.26124
0.905359
1.17561
0.772223
1.20522
0.773451
1.1703
0.777069
1.20036
0.776082
1.64209
1.0747
1.30987
1.06878