/*--------------------------------*- C++ -*----------------------------------*\
| =========                 |                                                 |
| \\      /  F ield         | OpenFOAM: The Open Source CFD Toolbox           |
|  \\    /   O peration     | Version:  5.x                                   |
|   \\  /    A nd           | Web:      www.OpenFOAM.org                      |
|    \\/     M anipulation  |                                                 |
\*---------------------------------------------------------------------------*/
FoamFile
{
    version     2.0;
    format      ascii;
    class       volScalarField;
    location    "0.5";
    object      p;
}
// * * * * * * * * * * * * * * * * * * * * * * * * * * * * * * * * * * * * * //

dimensions      [1 -1 -2 0 0 0 0];

internalField   nonuniform List<scalar> 
12160
(
5360.85
5342.78
4706.97
5323.22
4689.8
4054.52
5293.5
4670.73
4039.2
3400.76
5253.98
4640.88
4020.88
3388.76
2748.41
5208.47
4600.91
3990.24
3372.19
2741.44
2093.71
5161.74
4554.68
3949.03
3340.74
2726.62
2094.95
1438.68
5116.96
4507.31
3901.16
3297.82
2693.81
2083.38
1452.08
778.535
5076.7
4462.11
3852.44
3247.59
2648.24
2049.03
1442.85
810.02
227.659
5041.86
4421.62
3806.36
3196.91
2594.49
1999.65
1407.09
806.264
278.662
3.04725
5012.65
4386.72
3765.42
3149.57
2541.01
1940.91
1352.62
769.859
280.57
22.6008
-6.77702
4988.7
4357.54
3730.39
3108
2491.92
1883.69
1287.82
707.383
255.51
27.7504
-6.78201
-7.40698
4969.42
4333.69
3701.3
3072.83
2449.52
1832.36
1226.4
633.977
209.784
24.5337
-6.69424
-7.60117
-8.14494
4954.1
4314.53
3677.65
3043.9
2414.15
1788.98
1172.8
566.081
159.558
14.1678
-6.63242
-7.65907
-8.2307
-8.80346
4942.06
4299.34
3658.75
3020.58
2385.43
1753.5
1128.63
508.579
117.837
4.73622
-6.71639
-7.72461
-8.2699
-8.86284
-9.48004
4932.68
4287.42
3643.82
3002.06
2362.54
1725.19
1093.22
462.648
86.1027
-0.972213
-6.78054
-7.6463
-8.31041
-8.88362
-9.49787
4925.42
4278.15
3632.15
2987.53
2344.55
1702.97
1065.43
426.975
62.4944
-3.8078
-6.79408
-7.54464
-8.25461
-8.90478
-9.50063
4919.86
4270.99
3623.09
2976.23
2330.55
1685.74
1043.91
399.859
44.9779
-5.11774
-6.79584
-7.49055
-8.19467
-8.87419
-9.50684
4915.64
4265.5
3616.12
2967.51
2319.74
1672.5
1027.43
379.537
31.965
-5.68292
-6.79083
-7.47142
-8.15702
-8.84155
-9.49707
4912.48
4261.35
3610.79
2960.82
2311.45
1662.39
1014.89
364.456
22.2978
-5.93015
-6.7861
-7.46142
-8.14136
-8.81966
-9.48724
4910.18
4258.24
3606.76
2955.72
2305.13
1654.71
1005.4
353.33
15.1269
-6.04491
-6.7874
-7.45728
-8.13339
-8.80959
-9.48029
4908.58
4255.98
3603.75
2951.88
2300.34
1648.9
998.261
345.152
9.81571
-6.10392
-6.79474
-7.45878
-8.13021
-8.80446
-9.47673
4907.56
4254.4
3601.56
2949.02
2296.74
1644.52
992.899
339.15
5.88786
-6.13856
-6.80554
-7.46483
-8.13111
-8.80244
-9.47493
4907.05
4253.39
3600.03
2946.94
2294.07
1641.25
988.891
334.749
2.98668
-6.16028
-6.81728
-7.47323
-8.13518
-8.80289
-9.47422
4906.99
4252.89
3599.06
2945.49
2292.13
1638.84
985.914
331.527
0.846694
-6.1745
-6.82796
-7.48208
-8.14092
-8.80522
-9.47435
4907.37
4252.83
3598.57
2944.57
2290.79
1637.1
983.728
329.175
-0.728086
-6.18409
-6.83669
-7.49021
-8.14704
-8.80856
-9.4751
4908.19
4253.2
3598.51
2944.1
2289.93
1635.89
982.152
327.472
-1.88175
-6.1907
-6.84341
-7.49699
-8.15273
-8.81217
-9.47618
4909.46
4254
3598.87
2944.04
2289.49
1635.12
981.062
326.257
-2.71957
-6.1953
-6.84828
-7.50229
-8.15752
-8.81555
-9.47737
4911.22
4255.25
3599.63
2944.37
2289.43
1634.72
980.366
325.422
-3.31824
-6.19822
-6.85149
-7.50623
-8.1613
-8.81842
-9.47848
4913.52
4256.98
3600.83
2945.09
2289.73
1634.65
980.002
324.886
-3.73031
-6.19977
-6.85341
-7.50897
-8.16408
-8.8207
-9.47944
4916.44
4259.24
3602.5
2946.21
2290.38
1634.91
979.936
324.599
-3.99391
-6.20054
-6.85413
-7.51074
-8.166
-8.8224
-9.4802
4920.03
4262.1
3604.68
2947.78
2291.41
1635.48
980.15
324.531
-4.13474
-6.20077
-6.85394
-7.51171
-8.1672
-8.82358
-9.48076
4924.4
4265.64
3607.44
2949.84
2292.85
1636.38
980.646
324.669
-4.16818
-6.20074
-6.85327
-7.51211
-8.16782
-8.82434
-9.48116
4929.64
4269.94
3610.86
2952.45
2294.75
1637.66
981.439
325.014
-4.10094
-6.20071
-6.8526
-7.51217
-8.16799
-8.82475
-9.48141
4935.85
4275.1
3615.02
2955.69
2297.16
1639.34
982.561
325.578
-3.93202
-6.20066
-6.85236
-7.5121
-8.16792
-8.8249
-9.48155
4943.14
4281.22
3620.02
2959.64
2300.17
1641.49
984.054
326.389
-3.65417
-6.20043
-6.85258
-7.51204
-8.16778
-8.82491
-9.48161
4951.61
4288.42
3625.97
2964.41
2303.85
1644.19
985.973
327.487
-3.25434
-6.19975
-6.853
-7.512
-8.1677
-8.82486
-9.48162
4961.38
4296.8
3632.98
2970.1
2308.31
1647.5
988.388
328.919
-2.71427
-6.19847
-6.85321
-7.51186
-8.16769
-8.82481
-9.48161
4972.52
4306.46
3641.16
2976.82
2313.66
1651.55
991.381
330.748
-2.01151
-6.19642
-6.85285
-7.51143
-8.16767
-8.82478
-9.48159
4985.12
4317.5
3650.61
2984.7
2320.01
1656.42
995.05
333.057
-1.11591
-6.19339
-6.85163
-7.51072
-8.16747
-8.82472
-9.48158
4330
5008.38
3661.45
2993.84
2327.48
1662.25
999.505
335.938
0.0100078
-6.18921
-6.84952
-7.50936
-8.16705
-8.82455
-9.48156
3673.77
4353.13
5048.88
3004.37
2336.22
1669.17
1004.87
339.507
1.40984
-6.1839
-6.8466
-7.50746
-8.16617
-8.82423
-9.4815
3016.39
3696.61
4393.56
5095.06
2346.33
1677.32
1011.28
343.894
3.13485
-6.17717
-6.84273
-7.50496
-8.16488
-8.82367
-9.48138
2357.95
3038.8
3736.85
4439.89
5143.83
1686.83
1018.89
349.25
5.24436
-6.16854
-6.83779
-7.50179
-8.16314
-8.82288
-9.48119
1697.87
2379.77
3078.71
3783.44
4489.18
5191.15
1027.85
355.748
7.806
-6.1573
-6.83166
-7.49784
-8.16091
-8.82182
-9.48093
1038.32
1718.8
2419.24
3125.62
3833.64
4537.72
5232.5
363.579
10.896
-6.14254
-6.82434
-7.49301
-8.15809
-8.82046
-9.48057
372.954
1058.35
1757.45
2466.53
3177.06
3884
4581.67
5262.25
14.6011
-6.12299
-6.81592
-7.4873
-8.15465
-8.81875
-9.48012
19.0169
391.384
1096.03
1804.96
2519.54
3229.81
3930.71
4616.72
5250.3
-6.09663
-6.8067
-7.48084
-8.1506
-8.81666
-9.47954
-6.05981
27.6823
427.676
1143.48
1859.67
2575.27
3280.28
3969.31
4636.07
5298.98
-6.7973
-7.4739
-8.14605
-8.81423
-9.47884
-6.78846
-5.97429
44.8632
475.598
1199.6
1918.83
2630.18
3325.07
3995.21
4666.48
4959.25
-7.46694
-8.14124
-8.81153
-9.47804
-7.46049
-6.77761
-5.67785
68.2428
534.594
1262.08
1978.83
2681.04
3363.28
4031.48
4605.83
5287.87
-8.13646
-8.80869
-9.47714
-8.13209
-7.4519
-6.77452
-4.88021
98.8453
602.34
1327.32
2036.14
2726.74
3403.2
4015
4700.78
5388.6
6050.74
-8.8059
-9.47621
-8.80337
-8.12624
-7.44864
-6.78157
-2.93985
137.156
674.729
1391.23
2088.38
2769.75
3426.68
4086.35
4725.2
5395.46
6098.32
6810.11
-9.4753
-9.47448
-8.79998
-8.12392
-7.4545
-6.78526
0.969755
182.333
746.917
1450.18
2135.31
2802.64
3455.66
4087.64
4729.14
5359.78
6095.05
6827.15
7564.69
-9.47338
-8.79862
-8.12806
-7.46527
-6.77168
7.58911
231.467
814.584
1502.18
2170.43
2823.47
3452.6
4083.92
4682.47
5303.03
6063.53
6819.15
7568.42
8319.05
-9.47294
-8.80115
-8.13661
-7.48204
-6.72639
17.0851
280.447
873.184
1541.31
2191.69
2818.75
3444.11
4026.09
4615.82
5176.54
6014.55
6790.32
7558.59
8317.02
9071.99
-9.4738
-8.80663
-8.15086
-7.52093
-6.61834
28.8756
324.418
917.106
1564.1
2189.01
2809.32
3384.42
3953.83
4486.32
5034.41
5895.19
6742.81
7534.14
8307.6
9068.78
9822.94
-9.47573
-8.81591
-8.17861
-7.58798
-6.36816
41.7061
358.431
942.921
1565.24
2177.88
2752.36
3309.74
3827.3
4343.3
3823.32
5787.3
3846.47
3515.94
3528.57
6645.51
7488.99
8288.65
9060.53
9820.48
10571.2
-9.47901
-8.83255
-8.22284
-7.65491
-5.95768
53.5152
379.136
948.711
1555.51
2132.07
2681.15
3191.9
3672.03
4023.57
4132.37
3816.14
6557.58
4167.69
4383.05
4416.79
3794.02
3456.44
3428.51
7408.91
8251.04
9045.51
9815
10570.3
11313.8
-9.48456
-8.85804
-8.27048
-7.71298
-5.50671
61.47
386.695
941.515
1517.76
2066.19
2572.74
3017.37
3393.86
3238.7
3204.47
2935.2
2918.07
4155.22
3836.39
7340.36
6489.48
4159.11
4478.25
4499.51
3784.04
3549.83
3496.51
8196.07
9019.38
9804.35
10568.1
11314.6
12049.2
-9.49267
-8.88532
-8.31377
-7.75256
-5.27116
64.5815
383.937
910.46
1460.04
1965.82
2402.12
2774.35
2636.98
2628.34
2334.42
2333.87
3108.88
3098.88
2878.62
2870.59
4139.65
3205.5
3184.81
3330.39
3077.1
8145.45
7198.32
5013.8
5011.65
4699.91
4692.76
4096.93
4420.16
4396.36
3192.55
3172.09
3318.07
3059.7
3050.24
2791.45
2963.16
2960.29
3040.79
2787.82
2955.59
2946.24
8988.94
9787.33
10563.7
11316.1
12051.4
12775.6
-9.50124
-8.9091
-8.35287
-7.78125
-5.32263
63.3251
364.853
859.885
1370.37
1814.76
2179.31
2074.57
2077.65
1817.99
1818.99
2577.45
2575.21
2288.72
2287.62
2643.76
2784.19
2819.9
2479.87
2621.28
2814.68
2779.01
2634.69
2806.95
2477.88
2618.04
2807.12
2240.9
2355.41
2361.95
2489.24
2250.07
2359.31
2365.5
2490.21
3559.56
3295.64
3436.12
3426.36
3225.62
3287.54
3407.2
3138.25
8972.1
7979.96
5609.23
5604.2
5303.59
5300.02
4975.56
4958.93
4565.2
4552.18
3549.3
3284.93
3425.26
3409.93
3700.25
3535.56
3822.45
3533.35
3693.39
3535.74
3820.72
3522.3
3218.54
3284.03
3401.59
3131.38
2994.17
2976.72
2983.82
2967.58
9769.06
10556.4
11318
12055.6
12778.8
13491.6
-9.50892
-8.92623
-8.36983
-7.7938
-5.67961
55.52
332.376
779.917
1243.44
1609.35
1570.88
1571.27
1361.29
1364.7
2007.32
2003.82
1745.11
1741.17
2116.04
2220.36
1992.62
2089.54
2129.27
2226.76
2010.85
2098.18
1778.93
1852.54
1888.01
1970.76
1795.85
1862.25
1904.23
1979.69
2828.66
2654.03
2860.96
2958.12
2551.13
2747.71
2814.39
2653.33
2933.71
2854.27
2548.88
2739.57
2323.18
2465.58
2447.63
2611.32
2325.06
2460.53
2444.84
2600.61
3702.71
3429.01
3561.41
3560.95
3252.95
3313.78
3402.72
3163.35
9752.45
8956.23
6279.93
6270.87
5941.73
5931.77
5568.67
5552.5
5262.48
5249.09
4152.31
4347.69
4030.84
4218.57
4163.82
4356.37
4039.29
4221.76
3816.65
3660.05
3951.63
3901.3
4077.57
3963.35
3821.63
3648.74
3952.54
3908.56
4080.63
3958.52
3695.08
3426.69
3555.34
3554.96
3847.59
3664.07
3840.69
3652.85
3232.31
3293.15
3387.38
3140.69
3097.1
2999
3075.64
2982.06
10545.7
11320.5
12062.2
12785.3
13495.6
14196.1
-9.51554
-8.93896
-8.38566
-7.80514
-6.28134
41.7552
285.644
672.941
1064.57
1154.47
1156.1
972.659
972.905
1499.55
1495.84
1253.38
1253.77
1679.59
1751.08
1580.69
1650.44
1689.75
1758.23
1589.81
1655.23
1419.9
1513.81
1509.7
1568
1419.25
1512.01
1514.35
1569.34
2200.39
2332.49
2086.27
2208.4
2206.11
2331.99
2092.79
2209.76
1863.67
1949.43
1976.93
2083.53
1873.27
1953.24
1982.32
2085.84
3676.57
3451.09
3543.23
3575.15
10520.2
9723.78
6972.87
6954.65
6639.5
6625.95
6250.73
6241.58
5912.04
5896.4
4593.96
4798.1
4479.56
4682.26
4617.72
4806.67
4497.81
4690.31
4261.46
4463.03
4360.78
4569.74
4275.27
4471.83
4381.07
4578.47
4269.83
4524.87
4142.53
4384.19
4278.32
4521.05
4151.14
4384.31
3765.3
3879.76
4052.49
3907.1
4012.71
4218.56
3756.51
3882
4051.03
3900.54
4016.35
4220.13
3668.61
3434.98
3531.46
3562.32
3813.37
3684.65
3804.25
3672.84
11320.7
12071.2
12795.2
13503.7
14200.7
14888.6
-9.52117
-8.9481
-8.39592
-7.80606
-6.79467
22.6267
220.74
549.816
835.171
1029.29
1029.25
821.905
822.619
1451.95
1446.32
1193.39
1188.32
1739.23
1807.41
1628.05
1676.58
1745.53
1811.73
1632.06
1679.19
1383.92
1400.41
1518.48
1534.32
1389.74
1401.24
1522.35
1535.55
1865.53
1960.62
1872.74
1961.63
11309.7
10452.7
7611.45
7615.63
7346.08
7326.55
6982.67
6955.13
6660.64
6646.45
5085.23
5467.05
5051.58
5299.3
5105.64
5472.67
5072.8
5307.73
4741.25
4935.08
4894.34
5102.31
4762.25
4945.08
4921.35
5112.13
4807.84
4990.02
4685.24
4904.21
4806.55
4987.99
4678.6
4902.19
4406.18
4667.45
4548.5
4801.64
4408.68
4663.32
4544.73
4799.6
12081.1
12808.8
13516.2
14210
14893.5
15568.4
-9.52565
-8.95537
-8.39584
-7.81406
-7.04757
5.60663
145.379
369.557
573.636
572.064
396.021
395.959
976.297
971.001
758.402
756.501
1162.16
1228.48
1257.47
1122.55
1161.97
1227.83
1257.41
1122.33
1064.69
927.496
965.852
1022.79
1063.98
927.477
963.696
1022.33
1768.21
1843.85
1657.9
1711.12
1772.13
1844.8
1661.75
1711.61
1368.09
1374.95
1524.91
1550.2
1372.32
1376.62
1528.36
1551.05
12089.5
11293.2
10424.8
7491.15
7498.62
7256.21
7231.17
6823.56
6826.68
6437.61
6434.99
5220.67
5594.95
5269.97
5537.28
5223.25
5587.77
5273.74
5535.66
4977.58
5150.22
5143.09
5333.78
4974.05
5147.67
5144.49
5331.46
4811.32
4974.29
4822.32
4975.01
12825.6
13533.1
14224.1
14903.5
15573.6
16235.4
-9.53
-8.95998
-8.39012
-7.83876
-7.08543
-3.57526
61.8147
179.199
508.626
504.798
300.778
298.528
848.324
881.035
812.465
745.487
842.774
877.225
807.939
737.902
714.55
708.455
1200.89
1233.78
1301.37
1140.09
1200.42
1234.34
1301.64
1137.83
1092.27
937.345
975.316
1036.17
1090.56
936.146
973.068
1032.85
1348.45
1417.36
1351.53
1417.87
12847
12109.4
11351.1
8181.65
8189.64
7966.07
7933.77
7616.14
7594.28
7279.3
7254.86
5867.58
5740.75
6008.56
5625.9
5872.24
5767.01
6012.18
5638.39
5743.06
5405.84
5642.81
5499.72
5744.26
5413.71
5643.88
5505.24
5380.92
5575.95
5280.57
5444.54
5388.27
5577.34
5275.11
5443.83
4975.1
5127.09
5134.95
5283.35
4979.84
5125.61
5135.7
5279
13554.6
14243.2
14918.7
15584.1
16240.7
-9.53459
-8.96301
-8.38548
-7.82507
-7.28548
-6.09908
2.4386
109.467
109.108
35.0604
34.7039
428.973
455.446
320.394
370.561
423.78
454.143
318.427
369.886
237.936
236.334
845.599
849.921
739.881
746.197
840.209
846.876
736.134
736.786
524.158
546.72
630.177
631.649
520.861
544.963
625.92
629.68
1112.13
953.538
995.351
1054.51
1111.21
949.094
993.595
1056.63
13582.6
12880.6
12173.2
11360.9
8152.74
8129.39
7812.79
7783.13
7376.38
7351.71
5892.21
6175.07
6249.92
5882.56
5898.49
6170.23
6244.89
5873.57
5991.09
5895.52
6097.26
5761.66
5990.6
5892.43
6091.16
5764.48
5885.89
5521.13
5716.65
5653.97
5890.4
5520.02
5719.46
5650.16
5385.67
5551.6
5393.93
5556.88
14268
14939.4
15599.9
16251.3
-9.53756
-8.9668
-8.3736
-7.90639
-7.4356
-6.44144
-2.81194
-2.81959
-4.7211
-4.72317
74.8607
75.0827
18.2156
18.0637
433.978
429.342
328.02
327.067
435.32
429.322
326.849
327.19
221.848
143.036
153.29
232.211
222.083
141.787
152.918
232.329
849.31
865.355
730.579
743.996
843.052
863.099
728.752
739.578
531.056
547.339
632.196
648.021
537.017
547.65
634.579
647.831
14300.1
13621.3
12948.3
12265.8
8915.71
8915
8477.93
8479.75
7931.44
7942.69
6354.97
6625.23
6326.76
6742.6
6363.18
6626.39
6352.59
6751.64
6212.17
6454.47
6155.54
6345.28
5939.82
6288.46
6237.91
6456.17
6165.35
6340.68
5932.49
6281.13
6034.02
6296.69
6017.69
6284.09
5887.84
5851.07
6028.41
5690.7
5891.6
5862.07
6027.22
5701.06
14966
15621.5
16267.5
-9.54334
-8.95902
-8.42428
-7.85854
-7.64537
-8.01389
-2.25719
-2.31539
-5.51457
-5.55349
80.8763
152.523
75.9069
33.5717
36.5165
142.972
151.642
82.1707
142.725
76.2572
34.124
36.7722
8.17411
7.88863
14.6186
15.8128
7.97585
7.71605
14.9468
15.9789
417.688
417.535
330.229
309.427
423.777
418.566
332.804
310.173
209.561
226.937
210.144
226.835
740.978
725.087
739.772
724.396
508.028
526.403
514.405
527.002
14999.8
14338.3
13682.4
13081.2
9668
9666.56
9296.25
9287.28
8668.66
8669.92
8222.26
8221.87
6942.96
6576.82
7055.9
6667.76
6781.78
6393.83
6940.21
6625.13
7066.4
6669.22
6776.55
6393.21
6513.49
6785.72
6501.19
6773.66
6389.49
6598.5
6305.42
6163.92
6521.26
6336.79
6390.74
6588.05
6292.72
6156.66
6503.99
6324.04
6045.11
6227.41
6034.07
6211.31
15649.4
16289.5
-9.54101
-8.98538
-8.42145
-7.8804
-8.00694
-6.03049
-6.05692
-6.11359
-6.16478
-0.250341
-0.298393
-4.85783
-4.92116
136.4
66.9095
57.6187
122.135
33.1619
30.6139
138.138
66.8975
122.048
57.7513
32.7572
30.5934
8.75756
8.14699
14.321
15.0775
8.43788
8.02196
14.5665
15.1343
302.725
286.993
306.828
287.895
15684.3
15041.6
14389.8
13771.7
13111.5
9326.5
9339.83
9121.51
9105.72
7267.47
7750.5
7252.91
7612.75
7295.92
7753.89
7274.52
7619.63
6901.96
6673.2
7233.95
7101.77
7435.19
7156.08
6928.23
6684.33
7241.72
7127.98
7443.31
7160.54
7180.21
6914.67
6825.69
6719.89
7169.96
6900.86
6815.89
6700.54
6590.1
6806.49
6578.82
6789.16
6424.53
6628.1
6191.86
6391.49
6436.22
6623.87
6186.25
6382.05
16317.7
-9.55388
-8.9613
-8.42268
-7.94945
-7.67379
-4.8493
-4.90644
-5.3119
-5.37887
-0.960775
4.02047
4.6047
-0.152432
-1.12836
3.9467
4.5085
-0.389526
-3.54072
-3.76333
7.9504
8.32436
14.6757
13.9845
7.94023
8.49582
14.6584
14.2074
16352.8
15727.1
15093.1
14456.3
13857.7
10318.2
10296.7
9740.63
9756.43
9447.62
9461.01
9019.77
8994.75
7390.5
7807.31
7464.62
7834
7358.83
7772.51
7429.25
7787.1
6783.23
7067.7
7071.92
7326.26
7321.74
7598.2
6813.1
7069.65
7327.16
7089.54
7293.52
7579.41
6947.15
6721.07
6938.9
6718.93
-9.54144
-8.95883
-8.36566
-7.76052
-5.35186
-5.35899
-5.60187
-5.60815
-3.86132
-3.71
-4.88504
-4.86086
-0.788153
3.72472
6.00042
-0.503169
-0.914403
3.22241
4.67348
-0.497624
-2.03891
-2.74251
-1.59374
-2.00123
-2.09809
-2.77413
-1.76751
-2.21903
7.29104
8.69803
6.64974
8.18722
16395.7
15779.2
15152.8
14534.6
13829.4
10015.9
10017.8
9730.72
9714.57
9343.84
9284.29
8008.37
7612.64
7987.36
7539.18
7985.58
7566.33
7938.74
7511.66
7510.78
7703.95
7389.13
7615.06
7492.16
7669.19
7392.26
7607.25
-9.53778
-8.90794
-8.24431
-7.50742
-4.85089
-4.82336
-5.17612
-5.16494
-2.29039
-2.43558
-3.58514
-2.95493
-3.05272
-3.11147
-2.06479
-2.42476
-3.49852
-2.8045
-2.93007
-3.02505
-4.38163
-4.34295
1.24212
2.36659
4.69107
-0.606651
-0.0705172
1.72197
3.52099
-0.939698
-2.00633
-1.82987
-1.79765
-1.63014
16447.5
15841.5
15222.7
14666.4
10634.7
10651.7
10227.1
10264.1
10048.1
10062.3
9696.35
9639.01
7886.94
8462.28
7879.86
8298.54
7590.81
8127.44
7895.77
8453.25
7881.88
8290.65
7567.33
8096.87
7686.92
8119.77
7673.46
8067.64
7501.16
7744.68
7530.63
7744.2
-9.50823
-8.84447
-8.09092
-5.27763
-5.26937
-5.69391
-5.68917
-4.47241
-4.44561
-4.85974
-4.85036
-2.77013
-2.66574
-3.01887
-2.52375
-2.63924
-2.8258
-2.60142
-2.58273
-2.97019
-2.65077
-2.65395
-2.79598
-3.41648
-3.71494
-3.05469
-3.16958
-3.38385
-3.70176
-3.0183
-3.1579
16509.4
15912.4
15294.5
14578.7
10501.3
10533.6
10207.8
10206.5
9914.43
9875.7
8057.47
8642.23
8590.45
8021.51
8397.28
8080.84
8577.63
8015.46
8390.98
8058.67
8041.11
8632.32
8016.45
7691.5
8466.32
7989.97
7992.69
7705.09
8454.56
7993.78
7598.24
7914.92
7625.42
7919.75
-9.48729
-8.7665
-7.95093
-5.11536
-5.09115
-5.5556
-5.53413
-3.2255
-3.47805
-3.99095
-3.4402
-3.62146
-3.67755
-3.20388
-3.47425
-3.97802
-3.42919
-3.60835
-3.65954
-4.73958
-4.71587
-2.88301
-2.75464
-2.85569
-2.67181
-2.9345
-3.08657
-2.89021
-3.07532
16581.4
15980.9
15314.5
11296.5
11345.8
10882
10928.2
10673.6
10664.2
10183.9
10157.2
8280.75
8752.3
8330.78
8688.75
8213.69
8715.88
8279.33
8177.82
8693.94
8751.35
8309.98
8667.59
8045.6
8334.58
8275.64
8789.34
8256.7
8039.31
8773.73
8330.05
-9.45802
-8.70222
-7.79139
-5.065
-5.03536
-5.46315
-5.44953
-3.15329
-3.27829
-3.73462
-3.15276
-3.35109
-3.47669
-3.13582
-3.27339
-3.72876
-3.14699
-3.34837
-3.48513
-4.02379
-4.31192
-3.62943
-3.86698
-4.00883
-4.30025
-3.64467
-3.8691
-2.96567
-3.09937
-2.9386
-3.08892
16654.8
16062.6
15361.6
11269.5
11293.1
10894.7
10915.4
10388.9
10395.5
8305.45
8758.22
8974.2
8513.26
8792.55
8519.12
8308.14
8761.49
8974.57
8515.19
8796.94
8516.82
8479.23
8379.33
8979.1
8714.36
8352.74
8685.88
8442.73
8941.22
-9.44014
-8.65781
-5.6634
-5.28966
-5.28031
-5.66311
-6.09013
-6.097
-4.78628
-3.89661
-4.12155
-4.77896
-3.88038
-4.11413
-3.06955
-3.19396
-3.51968
-3.24649
-3.36431
-3.39036
-3.05968
-3.18886
-3.51629
-3.24358
-3.36399
-3.38753
-3.49648
-3.69044
-3.50164
-3.69589
16734.9
16234.6
15612.5
11402.3
11389.5
10942.1
10943.2
8740.65
9242.17
8813.48
9083.2
8527.07
8928.4
8780.84
8520.83
8925.73
9260.98
8805.68
9077.96
8555.23
8871.28
8589.01
8849.24
8558.38
8874.4
8579.19
8844.24
8472.93
8889.44
8447.91
8864.63
-9.40195
-8.61763
-5.22726
-5.58248
-5.2196
-5.5818
-6.0047
-6.01329
-4.06269
-3.90684
-3.9518
-3.88873
-4.00637
-4.21485
-4.12493
-4.37914
-3.89195
-4.05279
-3.94642
-3.87275
-4.00564
-4.20905
-4.11914
-4.37044
-3.41135
-3.25047
-3.43052
-3.27397
-3.55712
-3.65875
-3.52954
-3.66351
16879.3
16420.2
12164.2
11330.6
11303.7
12193.5
11723.4
11741.7
10453.9
8813.7
9274.95
10477.3
8849.08
9292.77
8887.98
9014.51
9094.5
9333.19
8881.59
9084.29
9004.26
9327.96
8515.77
8790.36
8672.62
8981.76
8510.1
8787.59
8670.37
8969.57
-9.42568
-8.58334
-5.06243
-4.40058
-4.21096
-5.60288
-5.05473
-4.39443
-4.20061
-5.59244
-6.00827
-6.01582
-3.87224
-4.01562
-3.63884
-3.7224
-3.93475
-4.17366
-3.86605
-3.61048
-4.00098
-3.70447
-3.92804
-4.16447
-3.47238
-3.38639
-3.46667
-3.35339
17099.5
16583.9
12189.7
11318.7
11315.3
12192.8
11748.7
11755.1
9016.3
8780.21
9215.54
8803.06
9249.16
9308.75
9028.44
9594.1
9050.23
8802.31
9224.64
8839.29
9262.65
9328.96
9084.33
9613.63
8994.08
9003.72
9201.35
9312.58
8977.01
9188.29
9002.83
9315.01
-9.43093
-6.27701
-5.94764
-5.95563
-6.3054
-6.75637
-6.77189
-4.41633
-4.30739
-4.25114
-4.26378
-4.17501
-4.68293
-4.33667
-4.49591
-5.49476
-4.44862
-4.61227
-4.4264
-4.303
-4.25313
-4.26665
-4.167
-4.68285
-4.33895
-4.49907
-5.4981
-4.45751
-4.61641
-3.80143
-4.02355
-3.95265
-4.15617
-3.80119
-4.00765
-3.95089
-4.14508
17340.3
16836.6
12276.2
11092.6
9544.15
9064.06
11103.6
9568.64
9097.65
12251.6
11673.5
11708.1
8946.1
9172.84
8920.16
9179.07
9294.25
9519.68
8964.59
9179.45
8927.2
9295.67
9194.96
9529.26
8968.87
9188.7
8959.54
9182.33
-9.43382
-5.97136
-6.24761
-5.96835
-6.27065
-6.70778
-6.71975
-4.10213
-4.2346
-4.27967
-4.2287
-4.38365
-4.51109
-4.69544
-4.5891
-4.61185
-4.49789
-4.59423
-4.94194
-4.95063
-5.25012
-4.09679
-4.23442
-4.23569
-4.28033
-4.37754
-4.51055
-4.58732
-4.69922
-4.60697
-4.50526
-4.59598
-4.94556
-4.93372
-5.23465
17600.1
12863.1
12219.5
12186
12914.4
12547.8
12558.5
9444.76
9438.47
9118.22
9623.82
9041.97
10100.3
9407.7
9839.58
9502.77
9423.55
9115.76
9618.86
9032.21
10104.7
9441.11
9852.39
11381.1
9492
10018.3
11381.5
9534.95
10036.8
9061.66
9201.04
9308.18
9661.53
9079.65
9186.94
9322.71
9652.89
-9.44084
-5.97982
-5.12101
-4.91096
-6.23178
-5.95722
-5.1056
-4.88653
-6.25242
-6.65529
-6.66966
-4.18418
-4.33588
-4.48733
-4.58398
-4.50437
-4.56334
-4.52586
-4.60366
-4.57921
-4.77098
-4.17946
-4.33212
-4.47477
-4.58019
-4.49769
-4.51949
-4.54669
-4.59347
-4.57253
-4.76395
17547.4
12830.3
12165.5
12150.9
12894.8
12519.2
12528.1
9150.83
9291.26
9553.08
9570.26
9527.33
9857.24
9147.71
9306.85
9552.02
9577.81
9533.94
9853.14
9601.59
9534.77
10012.7
9483.09
9956.82
9992.04
9722.2
10301.3
9630.87
9545.99
10020.1
9517.92
9966.91
10006.7
9750.79
10303.5
-9.44829
-6.62481
-6.64174
-5.94825
-5.08864
-4.87638
-5.07943
-4.89476
-6.20491
-5.93407
-5.07086
-4.85944
-5.06456
-4.87092
-6.22828
-4.4212
-4.39969
-4.52812
-4.53
-4.54879
-4.71407
-4.41428
-4.37493
-4.5088
-4.52336
-4.53505
-4.7028
17670.2
12832.1
12132.2
10192.4
9762.96
12080.7
10194.6
9769.42
12867.2
12563.1
12555.1
9268.63
9518.64
9402.08
9763.82
9303.48
9522.61
9411.91
9755.35
9674.63
9908.94
9473.93
9875.4
9780.38
10214.6
9719.53
9889.35
9465.22
9789.42
9887.17
10208.2
-9.45074
-6.62147
-6.612
-6.64141
-6.6322
-5.90667
-5.03224
-4.84193
-5.06078
-4.79797
-4.48634
-4.68563
-6.24215
-5.89392
-5.02662
-4.84218
-5.05188
-4.80291
-4.48147
-4.67989
-6.25531
-4.4171
-4.55113
-4.39091
-4.5409
17682.2
12804.1
12807.6
12187.9
10098.5
9749.73
10073
9766.53
12149.7
10102.7
9750.5
10074.8
9768.45
12524
12497.7
9782.9
9497.6
9934.75
10002
9679.44
10165.4
9819.02
9514.88
9936.45
9689.31
10001.9
10173.8
-9.46316
-6.62015
-6.61593
-6.6399
-6.63683
-6.23463
-6.24865
-5.89285
-4.96659
-4.68957
-4.95301
-4.69586
-4.67227
-4.45745
-4.67409
-4.43439
-4.35928
-4.52787
-5.88502
-4.96241
-4.717
-4.9621
-4.70709
-4.66336
-4.45849
-4.66803
-4.43024
-4.35212
-4.52313
17679.5
12824.2
12801.2
12824.7
12821.2
12071.3
9952.4
9725.87
10033.2
9667.39
9926.44
10189.7
12031.9
9947.77
9741.03
10033
9684.68
9944.99
10213.1
12574.5
12552.6
9830.8
10066.8
9872.61
10077.9
-9.44648
-6.62697
-6.65845
-6.64805
-6.67656
-6.2527
-6.25131
-6.26696
-6.26199
-5.8846
-5.87595
-5.03237
-4.83146
-5.01646
-4.85028
-4.6824
-4.42856
-4.70676
-4.40404
-4.59473
-4.35807
-4.54906
-4.3973
-5.04567
-4.84857
-5.02455
-4.87671
-4.66491
-4.41671
-4.70006
-4.34499
-4.57574
-4.34907
-4.54005
-4.35892
17669.9
12798.5
12822.2
12816.4
12824.2
12588.2
12570.3
11989.8
9976.06
9627.12
10007.4
9635.46
9859.35
9815
10023.7
9726.11
9844.87
10082.8
11952.4
9947.49
9617.06
9984.25
9638.56
9881.89
9847.09
10040.7
9775.76
9858.88
10077.7
-9.43734
-6.71483
-6.75954
-6.72678
-6.77572
-6.2573
-6.28103
-6.26944
-6.29373
-5.90296
-5.87417
-5.88726
-5.86735
-5.05613
-4.90081
-5.09461
-4.86981
-5.06925
-4.93847
-5.09944
-4.90402
-4.81666
-4.71171
-4.86997
-4.65494
-4.83531
-4.71261
-4.86485
-4.68037
17552.1
12806.5
12829.7
12809
12866.2
12586.3
12570.4
12568.8
12550.2
12002.8
11952.3
10346.7
9746.24
10219.4
9872.78
10010.3
9752.06
10085.4
9769.93
9921.6
9781
10010
9698.66
10336
9741.4
10213
9855.02
9863.9
9676.61
10001.9
9682.05
9904.59
9788.18
10011.7
9713.69
-8.59207
-9.4286
-6.28713
-6.31792
-6.30048
-6.33477
-5.87797
-5.9207
-5.87331
-5.91225
-5.08749
-4.86202
-5.08193
-4.87858
-5.07373
-4.88918
-5.04886
-4.89545
-5.09525
-4.94285
-5.10105
-4.92969
-5.0751
-4.90409
-5.05083
-4.91544
-4.8229
-4.59748
-4.8257
-4.65128
-4.84458
-4.71567
-4.87011
-4.6939
17613.6
12827.4
12865.9
12891.3
12907.5
12518.9
12559.7
12499.8
12553.2
12005.2
11992
11954.5
11954
10409.9
9951.48
10447.9
9920.55
10395.4
9926.12
10430.7
9897.35
10317.5
9819.61
10136.9
9941.29
10308.6
9778.57
10095.7
9917.01
-8.63081
-5.93984
-6.01384
-5.94217
-6.01574
-9.39804
-5.96607
-5.98428
-5.95304
-5.97732
-5.02507
-4.88363
-5.03358
-4.88267
-5.04588
-4.9407
-5.08219
-4.90596
-5.02226
-4.8947
-5.03341
-4.88847
-5.04437
-4.93913
-5.07693
-4.91068
-4.83576
-4.52599
-4.80143
-4.58648
-4.87662
-4.69159
-4.86273
-4.6807
-4.888
-4.72275
-4.88654
-4.711
-4.88704
-4.71312
-4.87313
-4.70794
17350.2
16849.5
12510.5
12545.6
12526.7
12545.4
12073.3
12183.6
12041.1
12146.7
10406
9953.11
10448.6
9913.09
10335.8
9733.1
10207.2
9865.51
10393.6
9928.3
10432.1
9893.43
10326.1
9734.13
10204.2
9849.8
10355.6
9993.48
10395.6
9963.57
10348.8
9985.04
10387.5
9945.66
-8.67162
-6.02593
-6.08967
-6.03046
-6.09636
-5.52961
-5.56815
-5.53066
-5.55436
-9.43816
-5.07816
-4.95273
-5.10233
-4.9089
-5.09257
-4.91103
-5.20932
-4.85473
-5.0695
-4.93805
-5.09109
-4.89763
-5.08334
-4.89566
-5.19571
-4.84377
-4.83998
-4.70501
-4.85317
-4.73406
-4.82366
-4.7406
-4.83645
-4.74293
-4.85022
-4.72639
-4.86591
-4.7564
-4.83081
-4.74881
-4.83757
-4.76235
17110.9
16591.1
12224.7
12284.6
12187.9
12261.4
12129.7
12157.3
12072.6
12150.5
9966.85
9594.69
9964.96
9630.65
9947.45
9723.52
10027.6
9661.72
9946.43
9611.95
9963.57
9645.63
9946.79
9733.62
10025.1
9684.53
10346
9995.06
10397.1
9955.35
10318.1
9796.31
10107.5
9940.3
10339.2
9985.29
10389.4
9937.2
10307.1
9772.71
10081
9914.1
-7.78229
-8.7133
-5.58839
-5.65551
-5.58347
-5.65401
-4.52086
-4.61569
-4.61894
-4.46481
-4.60441
-4.8486
-4.45238
-4.71357
-4.43845
-4.63339
-4.54155
-4.63432
-4.62342
-4.47617
-4.60802
-4.85723
-4.46232
-4.71661
-4.44734
-4.63899
-9.46042
-4.71038
-4.64922
-4.78305
-4.54557
-4.69876
-4.46901
-4.72014
-4.67092
-4.78815
-4.57057
-4.72152
-4.52284
-4.6233
-4.43565
-4.57248
-4.45911
-4.63693
-4.45939
-4.57851
-4.49285
16892.7
16434.2
12196.8
12171.7
12199
12200.5
11370.8
11683.3
11380.4
11722.3
10095
9745.11
10069.3
9761.46
10184.4
9709.65
10292.6
9751.02
10092.5
9741.15
10067.7
9759.95
10192.5
9751.35
10302.9
9766.07
10031.3
9735.01
10073.6
9768.41
9855.99
9814.99
10005.2
9722.26
9879.67
9675.91
9971.25
9705.55
9879.76
9828.76
10023.1
9760.85
-7.95611
-5.3003
-5.45614
-5.29026
-5.45071
-8.76782
-5.10346
-5.20277
-5.09359
-5.19686
-4.33494
-4.30616
-4.46439
-4.49255
-4.34758
-4.48982
-4.34209
-4.52505
-4.28831
-4.44813
-4.35214
-4.31986
-4.4693
-4.49634
-4.34171
-4.4886
-4.34057
-4.52869
-4.28083
-4.4471
-9.47736
-4.46144
-4.36722
-4.52011
-4.30688
-4.37368
-4.15807
-4.45451
-4.3801
-4.5194
-4.29694
-4.3865
-4.20768
16747.9
16248
15625.5
11756.4
11742.4
11761.7
11752.8
9509.29
9590.86
10005.4
9481.54
9953.81
9974.42
9449.43
10105.4
9497.69
10024.6
9600.24
9578.36
10029.5
9528.45
9969.6
9987.87
9508.16
10110.8
9547.43
10046.3
10156.9
9918.23
10184
9923.26
10205.1
9899.86
10167
9934.07
10204.8
9931.46
10201.3
9879.39
9913.83
9774.49
9982.55
9697.12
9902.8
9764.92
9988.91
9703.17
-8.08619
-5.5635
-5.70111
-5.5616
-5.70743
-4.80486
-4.99592
-4.80011
-4.98237
-8.82808
-4.30122
-4.24595
-4.25759
-4.16309
-4.39148
-4.16276
-4.42808
-4.19782
-4.29851
-4.24749
-4.26024
-4.15639
-4.3872
-4.16943
-4.42876
-4.19037
-4.17552
-4.37081
-4.17805
-4.23819
-4.06701
-4.23914
-4.19419
-4.37286
-4.17567
-4.23343
-4.05728
-4.23033
-9.48836
16669
16073.7
15371.2
11332.2
11410.7
11303.2
11399.7
11110.3
11347.4
11116.4
11341
9643.27
9482.17
9785.13
9857.72
9400.08
9765.4
9416.88
9851.61
9540.81
9867.98
9727.33
9478.22
9877.45
9798.18
9402.53
9755.01
9445.11
9863.68
9543.95
9864.32
10058.7
9844.19
10080.7
9822.39
9991.19
9775.69
10069
9841.83
10066
9856.07
9991.3
9795.6
-7.46772
-8.25258
-5.09796
-5.28545
-5.07712
-5.28529
-3.9326
-4.07367
-3.98701
-3.89965
-4.0265
-4.24606
-4.0113
-4.28367
-3.94426
-4.14477
-3.93766
-4.07328
-3.99203
-3.9037
-4.0292
-4.24876
-4.01081
-4.28172
-3.93933
-4.14122
-8.87463
-4.16833
-4.08543
-4.20317
-4.03025
-4.15238
-3.98779
-4.15964
-4.07606
-4.20884
-4.01234
-4.14779
-3.97601
-9.52467
16596.7
15995.7
15324.2
11275.6
11301.7
11299.8
11353.3
10462.4
10952.3
10482.1
10950.9
9442.02
9128.42
9635.37
9048.91
9539.69
9031.49
9599.6
9062.5
9423.4
9122.84
9628.62
9035.81
9566.12
9088.78
9619.12
9100.17
9478.34
9669.88
9305.98
9585.17
9284.24
9531.29
9535.58
9687.13
9317.26
9593.04
9315.16
9536.6
-7.81267
-4.99411
-5.4249
-4.99932
-5.43309
-8.35485
-4.71807
-4.79933
-4.71
-4.79873
-3.86434
-3.68397
-3.92971
-3.81009
-3.62772
-3.7376
-3.76901
-3.93302
-3.64668
-3.78014
-3.86952
-3.67907
-3.93341
-3.80619
-3.62113
-3.73482
-3.7546
-3.92592
-3.63298
-3.77304
-8.94844
-3.93053
-3.77493
-3.93082
-3.78053
-9.5374
16524.6
15928.5
15311.5
14585.4
10905.8
10891.4
10924
10935.8
8788.98
9016.96
9229.41
8806.24
9259.55
9306.94
8751.88
9251.6
8819.96
9281.63
9043.59
8808.62
9233.18
8840.71
9268.72
9323.38
8786.08
9268.14
8847.94
9293.45
9670.68
9160.81
9561.77
9214.19
9532.28
9185.4
9659.18
9153.96
9557.9
9198.63
9534.74
9184
-7.57361
-7.99573
-4.52328
-5.04759
-4.51158
-5.0348
-8.45089
-3.93078
-3.54435
-3.72337
-3.64831
-4.36927
-3.93127
-3.54041