/*--------------------------------*- C++ -*----------------------------------*\
| =========                 |                                                 |
| \\      /  F ield         | OpenFOAM: The Open Source CFD Toolbox           |
|  \\    /   O peration     | Version:  5.x                                   |
|   \\  /    A nd           | Web:      www.OpenFOAM.org                      |
|    \\/     M anipulation  |                                                 |
\*---------------------------------------------------------------------------*/
FoamFile
{
    version     2.0;
    format      ascii;
    class       volScalarField;
    location    "0.5";
    object      p_rgh;
}
// * * * * * * * * * * * * * * * * * * * * * * * * * * * * * * * * * * * * * //

dimensions      [1 -1 -2 0 0 0 0];

internalField   nonuniform List<scalar> 
12160
(
5687.85
5669.78
5687.96
5650.22
5670.8
5689.52
5620.5
5651.73
5674.19
5689.76
5580.98
5621.87
5655.88
5677.76
5691.41
5535.47
5581.91
5625.24
5661.2
5684.44
5690.71
5488.74
5535.67
5584.03
5629.75
5669.62
5691.95
5689.68
5443.96
5488.31
5536.16
5586.82
5636.81
5680.38
5703.08
5683.54
5403.7
5443.11
5487.44
5536.59
5591.24
5646.02
5693.85
5715.02
3869.92
5368.86
5402.62
5441.36
5485.91
5537.49
5596.65
5658.09
5711.26
4186.32
178.655
5339.65
5367.72
5400.42
5438.57
5484.01
5537.91
5603.62
5674.86
4109.19
573.007
0.589729
5315.7
5338.54
5365.39
5397.01
5434.92
5480.69
5538.82
5612.38
3750.16
670.604
3.97561
0.11432
5296.42
5314.69
5336.3
5361.83
5392.52
5429.36
5477.4
5538.98
3207.34
604.162
7.98692
-0.0783061
0.0300612
5281.1
5295.53
5312.65
5332.9
5357.15
5385.97
5423.8
5471.08
2597.28
400.184
11.6143
-0.131396
-0.0556987
0.0255417
5269.06
5280.34
5293.75
5309.58
5328.43
5350.5
5379.63
5413.58
2039.2
216.157
6.55196
-0.185626
-0.0948946
-0.0338361
0.00295558
5259.68
5268.42
5278.82
5291.06
5305.54
5322.19
5344.22
5367.65
1566.59
102.973
1.98709
-0.116338
-0.135406
-0.0546188
-0.0148749
5252.42
5259.15
5267.14
5276.53
5287.55
5299.97
5316.43
5331.98
1188.33
46.3552
0.499036
-0.0223514
-0.0796106
-0.0757846
-0.0176316
5246.86
5251.99
5258.09
5265.24
5273.55
5282.74
5294.92
5304.86
893.221
19.9059
0.158915
0.0305576
-0.0196635
-0.0451903
-0.0238449
5242.64
5246.5
5251.12
5256.51
5262.74
5269.5
5278.43
5284.54
667.588
8.41687
0.0926603
0.0495881
0.017981
-0.0125468
-0.0140693
5239.49
5242.34
5245.79
5249.82
5254.45
5259.39
5265.89
5269.46
497.318
3.54466
0.0838197
0.0595768
0.033637
0.00933952
-0.00423697
5237.18
5239.24
5241.76
5244.73
5248.13
5251.71
5256.41
5258.33
369.953
1.51559
0.080098
0.0637202
0.0416126
0.019414
0.00270876
5235.58
5236.97
5238.75
5240.88
5243.34
5245.89
5249.26
5250.15
275.218
0.668917
0.0723426
0.0622149
0.0447883
0.0245441
0.00626915
5234.56
5235.4
5236.56
5238.02
5239.74
5241.52
5243.9
5244.15
205.002
0.310205
0.0614753
0.0561724
0.0438876
0.0265593
0.0080731
5234.05
5234.39
5235.03
5235.94
5237.07
5238.25
5239.89
5239.75
153.077
0.1541
0.0497186
0.0477647
0.0398261
0.0261072
0.00877539
5233.99
5233.89
5234.06
5234.49
5235.14
5235.84
5236.92
5236.53
114.749
0.0836035
0.0390376
0.0389179
0.0340848
0.0237806
0.00864797
5234.37
5233.83
5233.57
5233.57
5233.79
5234.1
5234.73
5234.18
86.5272
0.0499425
0.0303095
0.030786
0.027959
0.0204413
0.00790067
5235.19
5234.2
5233.51
5233.1
5232.93
5232.89
5233.15
5232.47
65.8315
0.0328511
0.0235893
0.0240086
0.0222704
0.0168331
0.00681527
5236.46
5235
5233.87
5233.04
5232.49
5232.11
5232.06
5231.26
50.7865
0.023473
0.018719
0.0187086
0.0174784
0.0134515
0.0056323
5238.22
5236.25
5234.63
5233.37
5232.43
5231.71
5231.37
5230.42
40.0217
0.0183021
0.0155087
0.0147706
0.013706
0.0105768
0.0045164
5240.52
5237.98
5235.83
5234.09
5232.73
5231.65
5231
5229.89
32.5821
0.015576
0.0135853
0.0120312
0.0109234
0.00829637
0.00356133
5243.44
5240.24
5237.49
5235.21
5233.38
5231.9
5230.94
5229.6
27.7987
0.0141831
0.0128729
0.010263
0.00899895
0.0066011
0.00280143
5247.03
5243.1
5239.67
5236.78
5234.41
5232.48
5231.15
5229.53
25.2299
0.0136019
0.0130564
0.00928507
0.00779797
0.00541911
0.00223452
5251.4
5246.64
5242.44
5238.84
5235.85
5233.38
5231.65
5229.67
24.6188
0.0134609
0.0137318
0.00889191
0.00718083
0.00466287
0.00183949
5256.64
5250.94
5245.85
5241.45
5237.75
5234.65
5232.44
5230.01
25.8461
0.0134495
0.0143952
0.00882735
0.00701135
0.00424887
0.00158669
5262.85
5256.1
5250.02
5244.69
5240.16
5236.34
5233.56
5230.58
28.9186
0.0135754
0.0146422
0.00889661
0.00707988
0.00409867
0.00144508
5270.14
5262.22
5255.02
5248.64
5243.17
5238.49
5235.06
5231.39
33.9462
0.0140169
0.0144189
0.0089563
0.00721891
0.00409319
0.00138945
5278.61
5269.42
5260.97
5253.41
5246.85
5241.18
5236.97
5232.49
41.149
0.0150638
0.0139951
0.00899773
0.00729824
0.00414462
0.00138003
5288.38
5277.8
5267.98
5259.1
5251.31
5244.5
5239.39
5233.92
50.8453
0.0169602
0.0137919
0.00913997
0.00730856
0.00418813
0.00139133
5299.52
5287.46
5276.16
5265.83
5256.66
5248.55
5242.38
5235.75
63.4505
0.0200473
0.0141489
0.0095717
0.00733547
0.00421797
0.00140343
5312.12
5298.5
5285.61
5273.7
5263.01
5253.42
5246.05
5238.06
79.51
0.0248749
0.0153676
0.0102786
0.00753336
0.00427981
0.00141508
5311
5335.38
5296.45
5282.85
5270.48
5259.25
5250.51
5240.94
99.6828
0.0322921
0.0174776
0.011643
0.00795528
0.00444694
0.00144009
5308.77
5334.13
5375.88
5293.37
5279.22
5266.17
5255.87
5244.51
124.75
0.0435908
0.0204011
0.0135403
0.00883264
0.00476619
0.00150044
5305.39
5331.61
5374.56
5422.06
5289.33
5274.32
5262.28
5248.89
155.628
0.0614308
0.0242671
0.0160338
0.0101244
0.00532559
0.00161455
5300.95
5327.8
5371.85
5420.88
5470.83
5283.83
5269.89
5254.25
193.366
0.090686
0.0292086
0.0192088
0.0118575
0.00612487
0.00180348
5294.87
5322.77
5367.71
5418.44
5470.18
5518.15
5278.85
5260.75
239.159
0.140044
0.0353382
0.0231632
0.0140934
0.00718288
0.00207131
5289.32
5315.8
5362.24
5414.62
5468.64
5518.72
5559.5
5268.58
294.338
0.224734
0.0426586
0.0279928
0.0169111
0.00854303
0.00242629
5277.95
5309.35
5354.44
5409.53
5466.06
5519
5562.67
5589.25
360.395
0.370495
0.0510825
0.033698
0.0203563
0.010254
0.00288292
438.817
5296.38
5347.04
5401.95
5462.54
5518.81
5565.71
5597.71
5577.3
0.623556
0.0603049
0.0401632
0.0244053
0.0123372
0.00345653
1.1041
592.205
5332.67
5394.48
5456.66
5518.27
5569.29
5604.31
5617.07
5625.98
0.0697131
0.0471005
0.0289489
0.0147686
0.00415344
0.0785757
2.45652
891.104
5380.6
5450.6
5515.82
5573.18
5614.07
5630.2
5647.48
5286.25
0.0540549
0.0337644
0.0174725
0.00496309
0.060506
0.0896065
8.25401
1283.22
5439.59
5513.08
5575.83
5624.04
5652.28
5666.48
5586.83
5614.87
0.0385381
0.0203107
0.00585779
0.0429099
0.0691006
0.0951096
24.4886
1765.11
5507.34
5578.33
5633.14
5669.74
5692.2
5649.99
5681.77
5715.6
5723.74
0.0231003
0.00678983
0.0256318
0.0487627
0.0723596
0.108123
63.5495
2319.28
5579.73
5642.24
5685.37
5712.74
5715.68
5721.35
5706.19
5722.45
5771.32
5829.11
0.00769875
0.00851802
0.0290211
0.0510865
0.0664982
0.225427
141.5
2912.85
5651.92
5701.19
5732.31
5745.63
5744.66
5722.64
5710.13
5686.76
5768.05
5846.16
5929.7
0.00961594
0.0303767
0.046939
0.0557408
0.766594
271.988
3503.63
5719.58
5753.18
5767.42
5766.47
5741.59
5718.9
5663.44
5629.99
5736.54
5838.16
5933.43
6030.05
0.0100554
0.0278502
0.0383956
0.0391371
2.53937
457.117
4050.62
5778.18
5792.32
5788.69
5761.75
5733.1
5661.03
5596.7
5503.43
5687.59
5809.35
5923.61
6028.03
6128.99
0.00919794
0.022369
0.0241367
0.00152215
6.8547
684.06
4518.59
5822.1
5815.1
5786.01
5752.3
5673.37
5588.65
5466.99
5361.12
5568.29
5761.93
5899.2
6018.62
6125.79
6225.95
0.00726838
0.013088
-0.00360687
-0.059543
14.7362
927.904
4870.75
5847.92
5816.24
5774.87
5695.33
5598.55
5461.74
5323.48
3986.48
5460.58
4009.62
4005.68
4018.31
5664.84
5854.17
5999.7
6117.56
6223.5
6320.18
0.0039933
-0.0035538
-0.0478388
-0.109834
25.7261
1149.37
5086.73
5853.71
5806.5
5729.04
5624.01
5480.32
5305.48
5001.55
3969.21
3979.02
5577.4
4004.54
3893.31
3927.05
3956.9
3945.19
3917.26
5774.48
5962.23
6102.56
6218.02
6319.28
6408.83
-0.00156052
-0.0290375
-0.0954757
-0.14024
36.9168
1302.56
5175.24
5846.51
5768.74
5663.1
5515.29
5304.76
5025.01
4051.43
4017.16
4075
4057.87
3992.34
3998.77
5706.91
5511.51
3996.24
3989.5
4010.77
3946.42
4037.05
3983.73
5907.65
6076.53
6207.39
6317.15
6409.63
6490.26
-0.00967493
-0.0563164
-0.138764
-0.15632
43.0362
1366.78
5193.7
5815.45
5710.98
5562.51
5343.9
5059.46
4101.72
4093.06
4125.18
4124.64
3919.01
3909.03
4017.36
4009.32
3977.28
3448.43
3265.49
3411.04
3320.09
5858.07
5567.17
3874.01
3871.85
3887.18
3880.06
3934.55
3932.93
3909.14
3435.46
3252.78
3398.73
3302.66
3454.77
3358.91
3530.66
3364.78
3445.33
3355.24
3523.05
3350.75
6046.39
6190.43
6312.71
6411.1
6492.4
6562.6
-0.018244
-0.0801039
-0.177857
-0.191868
43.2593
1352.78
5100.14
5764.84
5621.15
5410.89
5119.44
4192.86
4195.93
4264.2
4265.19
4038.88
4036.63
4074.19
4073.09
3370.48
3349.04
3546.61
3375.21
3516.62
3379.54
3343.86
3361.38
3533.65
3373.22
3513.38
3371.97
3458.87
3573.39
3419.67
3546.95
3468.03
3577.27
3423.22
3547.93
3316.62
3214.96
3355.47
3183.37
3467.77
3368.12
3487.78
3380.41
6030.33
5694.85
3818.47
3813.42
3838.86
3835.29
3836.83
3820.19
3755.07
3742.03
3306.38
3204.24
3344.59
3166.98
3295.73
2968.11
3254.96
3128.86
3288.85
2968.31
3253.26
3117.8
3460.69
3364.61
3482.18
3373.53
3397.45
3380
3387.1
3370.85
6172.37
6305.44
6413.03
6496.67
6565.84
6624.58
-0.0259223
-0.0972338
-0.194827
-0.228487
36.2054
1215.6
4907.62
5684.74
5493.76
5204.2
4344.53
4344.91
4462.47
4465.88
4121.49
4117.99
4187.01
4183.06
3493.02
3597.34
3529.27
3626.21
3506.24
3603.73
3547.5
3634.84
3642.3
3715.93
3586.08
3668.82
3659.22
3725.63
3602.3
3677.75
3394.37
3417.68
3624.59
3523.81
3458.63
3655.21
3380.06
3416.94
3499.39
3617.89
3456.4
3647.08
3541.18
3683.58
3507.58
3671.26
3543.07
3678.54
3504.77
3660.54
3460.56
3348.43
3480.82
3318.8
3495.46
3394.2
3483.13
3405.86
6156.32
6016.1
3833.72
3824.66
3823.44
3813.48
3783.2
3767.03
3801.06
3787.67
2934.35
3129.73
2973.13
3160.86
2945.86
3138.4
2981.57
3164.04
3089.94
3095.2
3224.92
3005.97
3182.23
3398.5
3094.94
3083.89
3225.85
3013.22
3185.29
3393.67
3452.93
3346.1
3474.75
3312.81
3444.32
3260.79
3437.41
3249.58
3474.82
3373.55
3467.78
3383.2
3502.32
3404.21
3480.86
3387.29
6294.91
6415.57
6503.21
6572.33
6628.63
6675.13
-0.0325422
-0.109965
-0.21066
-0.261331
22.5441
960.264
4529.32
5577.34
5313.73
4583.28
4584.91
4729.11
4729.35
4268.69
4264.97
4349.71
4350.08
3708.37
3779.87
3773.05
3842.84
3718.52
3787.01
3782.16
3847.61
3938.45
4032.4
3864.46
3922.78
3937.78
4030.58
3869.1
3924.1
3577.1
3709.2
3623.1
3745.23
3582.83
3708.7
3629.64
3746.59
3723.3
3809.06
3674.18
3780.76
3732.88
3812.85
3679.54
3783.07
3434.07
3370.68
3462.82
3332.64
6269.88
6128.93
3871.67
3853.45
3865.82
3852.28
3808.81
3799.67
3797.85
3782.22
2730.6
2934.7
2781.5
2984.2
2754.35
2943.29
2799.74
2992.24
2884.5
3086.05
2824.14
3033.06
2898.3
3094.85
2844.42
3041.8
3051.85
3306.87
3082.61
3324.27
3060.32
3303.05
3091.2
3324.37
3199.61
3116.12
3288.87
3341.41
3105.21
3311.06
3190.84
3118.39
3287.41
3334.86
3108.84
3312.63
3426.1
3354.58
3451.06
3319.81
3408.16
3279.45
3399.03
3267.62
6415.92
6512.27
6582.26
6636.77
6679.74
6713.57
-0.0381682
-0.119102
-0.220919
-0.27748
9.08463
587.848
3841.98
5445.55
5080.13
4453.65
4453.59
4574.27
4574.96
4213.34
4207.71
4281.81
4276.7
3767.36
3835.56
3817.28
3865.82
3773.68
3839.88
3821.3
3868.43
3897.06
3913.57
3868.23
3884.09
3902.88
3914.39
3872.11
3885.32
3762.37
3857.46
3769.58
3858.47
6405.35
6203.53
3855
3859.21
3917.27
3897.76
3886.31
3858.78
3891.46
3877.28
2566.67
2948.44
2696.81
2944.5
2587.09
2954.08
2718.04
2952.94
2712.47
2906.28
2701.99
2909.91
2733.48
2916.29
2729
2919.74
2948.22
3130.41
2988.02
3206.99
2946.96
3128.38
2981.39
3204.97
3029.49
3290.76
3011.68
3264.83
3031.97
3286.61
3007.89
3262.77
6522.2
6595.82
6649.22
6689.01
6718.55
6739.42
-0.0426564
-0.126375
-0.220838
-0.291475
1.44157
249.975
2730.86
4978
4643.16
4641.45
4697.63
4697.08
4393.09
4387.76
4503.5
4501.51
3998.33
3902.62
3931.86
3958.57
3998.13
3902.08
3931.81
3958.34
4063.86
4090.99
4129.4
4021.78
4063.15
4090.95
4127.21
4021.4
3808.49
3884.14
3848.84
3902.09
3812.43
3885.1
3852.72
3902.59
3875.15
3882.11
3872.15
3897.48
3879.32
3883.77
3875.61
3898.33
6530.96
6390.04
6179.83
3738.76
3746.25
3831.81
3806.78
3735.1
3738.25
3676.18
3673.57
2707.51
3081.77
2920.22
3187.51
2710.09
3074.59
2923.98
3185.88
2949.47
3122.09
2953.87
3144.54
2945.92
3119.53
2955.26
3142.22
2914.49
3077.46
2925.5
3078.19
6612.68
6666.12
6703.11
6728.57
6744.63
6752.4
-0.0470023
-0.130982
-0.215116
-0.317664
-0.161334
69.3973
1255.11
3220.46
4572.49
4568.65
4407.32
4402.95
4174.4
4207.16
4302.49
4235.59
4168.82
4203.31
4297.89
4227.91
4447.55
4441.43
4037.11
3919.48
3988.56
3973.97
4036.64
3920.27
3988.87
3972.08
4086.01
4095.28
4134.24
4026.06
4084.29
4094.61
4131.98
4023.4
3891.65
3961.09
3894.44
3961.64
6634.3
6551.75
6451.25
3779.25
3787.23
3892.47
3860.18
3870.95
3849.15
3862.46
3838.03
2868.39
2577.24
2844.99
2626.69
2873.04
2603.5
2848.62
2639.18
2906.88
2731.45
2968.42
2663.45
2908.08
2739.29
2969.46
2668.98
2873.77
3068.8
2933.3
3097.27
2881.12
3070.19
2927.84
3096.56
2934.83
3086.82
2944.01
3092.4
2939.54
3085.32
2944.72
3088.04
6687.71
6722.25
6743.77
6755.08
6757.7
-0.0515915
-0.134011
-0.210483
-0.304127
-0.418882
11.1512
232.925
2284.53
2280.36
1141.61
1134.37
4170.71
4427.13
4009.9
4507.99
4170.28
4425.8
4007.15
4507.27
3705.5
3702.77
4163.3
4168.62
4221.2
4227.15
4158.1
4165.57
4217.42
4217.75
4240.46
4352.22
4222.63
4271.22
4238.67
4350.43
4224.95
4269.23
4140.86
4082.1
4164.54
4053.76
4139.95
4084.69
4162.79
4057.77
6715.72
6668.45
6617.92
6470.3
3759.05
3735.71
3748.88
3719.22
3643.35
3618.66
2566.12
2848.91
2759.85
2392.37
2572.38
2844.08
2754.86
2383.46
2997.36
2736.61
2938.33
2767.92
2996.85
2733.5
2932.22
2770.74
3049.66
2833.93
3029.45
2817.73
3054.17
2832.78
3032.25
2813.92
2841.92
3007.85
2850.16
3013.12
6747.08
6764.4
6770.95
6768.36
-0.0545573
-0.137807
-0.198618
-0.385566
-0.560282
0.045644
109.221
108.422
0.989028
0.986959
1548.77
1542.62
470.86
470.521
3979.81
4394.72
3815.47
4429.16
3984.81
4394.7
3815.4
4428.78
3729.3
2469.22
3316.07
2920.62
3729.88
2450.62
3316.17
2908.05
4115.15
4180.28
4202.32
4160.14
4117.86
4178.03
4200.49
4164.47
4102.62
4346.71
4141.26
4295.67
4110.71
4347.02
4151.42
4295.48
6779.16
6754.73
6737.45
6715.58
3870.92
3870.17
3767.76
3769.6
3551.65
3562.9
2383.29
2653.5
2189.38
2605.13
2391.49
2654.67
2215.21
2614.19
2406.7
2648.94
2515.95
2705.68
2458.5
2807.1
2432.4
2650.64
2525.72
2701.06
2451.15
2799.77
2715.33
2977.97
2698.97
2965.35
2859.1
2681.87
2859.22
2661.93
2862.85
2692.84
2858
2672.32
6791.06
6792.53
6784.53
-0.0603382
-0.130027
-0.249361
-0.337739
-0.780605
-1.80921
52.8787
52.3067
0.187693
0.148739
1339.94
2304.72
1004.37
847.359
990.852
2800.59
2298.15
1332.55
2800.9
1004.81
832.115
989.906
84.2227
160.03
216.868
347.541
83.2994
158.102
215.252
348.46
3756.37
4374.03
3528.25
4250.23
3764.15
4375.2
3536.72
4252.13
3468.81
2610.87
3466.89
2602.77
4245.84
4126.98
4244.66
4137.92
3935.02
4359.06
3940.82
4359.67
6824.81
6817.51
6816.58
6873.04
3957.78
3956.33
3917.53
3908.53
3634.31
3635.53
3524.67
3524.26
2659.6
2129.18
2608.18
2384.39
2652.88
2264.96
2656.82
2177.51
2618.72
2385.81
2647.62
2264.3
2548.11
2820.31
2535.76
2808.22
2590.1
2799.1
2657.74
2692.15
2873.59
2865
2591.32
2788.63
2645
2684.86
2856.29
2852.24
2730.16
2912.46
2719.1
2896.34
6820.4
6806.48
-0.0580136
-0.156408
-0.246679
-0.36043
-1.12389
0.0175145
-0.0335434
0.243561
0.192387
28.0221
30.1016
1.24443
1.0609
1914.25
936.387
485.381
1266.67
482.698
296.662
1916.4
925.293
1261.64
485.741
469.503
296.818
88.909
86.3153
274.719
298.358
83.4411
82.0763
267.101
294.685
3032.27
4023.39
3038.97
4023.32
6855.34
6866.75
6869.42
6907.78
6911.15
3624.14
3637.46
3751.45
3735.63
2158.82
2641.74
2313.87
2673.67
2187.24
2645.13
2335.45
2680.52
2284.63
2234.29
2616.62
2326.26
2659.65
2717.16
2310.86
2245.38
2624.36
2352.44
2667.76
2721.59
2891.6
2794.13
2537.08
2599.36
2881.32
2780.3
2527.24
2579.99
2618.1
2834.48
2606.78
2817.13
2591.85
2795.43
2686.96
2886.61
2603.5
2791.17
2681.32
2877.13
6834.69
-0.0708886
-0.132383
-0.248283
-0.431691
-0.61001
9.17833
6.04237
3.76411
3.02719
28.4565
48.5565
39.1101
30.0706
28.3777
44.2496
48.9214
29.0421
20.1263
14.7683
117.145
48.2941
184.903
104.66
105.201
48.5697
169.007
97.908
6869.82
6898.15
6918.37
6936.81
6998.3
3964.11
3942.53
3720.05
3735.85
3757.73
3771.19
3661.6
3636.58
2288.51
2705.27
2535.32
2904.7
2256.78
2670.43
2499.91
2857.75
2311.33
2412
2600.02
2670.58
2539.13
2815.61
2341.17
2413.94
2671.46
2617.62
2510.9
2796.8
2795.41
2569.33
2787.13
2567.14
-0.0584568
-0.130052
-0.19209
-0.244279
2.17043
2.41022
1.40989
1.40513
40.7872
40.8043
10.9847
12.7272
51.7915
77.6299
183.967
53.5002
47.5384
53.6473
73.2587
35.3275
53.0838
85.3763
74.8975
162.501
33.5881
53.352
41.6348
73.9836
99.8103
59.3263
84.7262
48.837
6912.7
6950.24
6978.45
7017.11
6979.84
3674.5
3676.37
3728.37
3712.22
3674.28
3614.7
2576.06
2343.34
2718.02
2106.72
2553.26
2296.95
2669.35
2079.23
2405.07
2598.23
2430.28
2656.22
2386.37
2563.41
2433.37
2648.36
-0.0548354
-0.0794475
-0.072009
0.00346807
2.68953
3.01131
1.84671
1.89041
58.026
131.921
36.537
37.4056
49.6744
25.8733
49.1453
127.337
39.3186
45.3215
57.4967
33.1837
10.7473
12.6512
185.134
83.1085
173.046
85.4598
98.0642
50.3268
91.4963
47.2803
78.8142
146.235
56.6039
136.282
6964.52
7012.74
7049.18
7152.22
3623.97
3641.03
3556.19
3593.19
3722.33
3736.61
3715.58
3658.27
2157.11
2732.33
2317.08
2735.75
2166.04
2702.65
2165.93
2723.33
2319.02
2727.81
2142.46
2672.02
2410.87
2843.71
2397.32
2791.51
2358.19
2601.72
2387.58
2601.19
-0.0253545
-0.0164834
0.0799186
2.06516
2.09591
1.97995
1.98605
2.33398
2.56012
2.1592
2.24675
48.5113
79.6635
19.5248
18.5938
16.8888
15.5361
52.8528
80.7517
22.0902
34.0789
21.8653
23.8863
4.75095
4.19135
6.78438
5.66548
5.56419
5.34307
9.01615
7.29585
7026.5
7083.95
7122.2
7068.99
3495.18
3527.47
3544.58
3543.19
3603.04
3564.28
2331.72
2916.46
2539.67
2134.33
2510.13
2029.55
2526.89
2128.21
2503.78
2007.5
2315.27
2906.49
2430.4
2265.23
2880.28
2563.71
2406.58
2278.74
2868.47
2567.47
2288.27
2604.95
2315.36
2609.73
-0.00454722
0.0606376
0.216134
2.21856
2.24328
2.11329
2.13475
3.33377
3.06088
2.85847
3.21393
3.28915
3.07291
3.56123
3.36058
2.83674
3.2154
3.18836
3.1307
2.2617
2.28561
5.15593
6.07935
6.71802
9.77039
3.95893
3.55509
4.65669
4.2786
7098.53
7152.92
7143.67
3622.75
3671.98
3541.93
3588.07
3670.78
3661.43
3523.03
3496.35
1883.98
2355.42
2111.22
2469.16
2164.28
2666.47
1882.5
2128.34
2644.48
2354.47
2090.34
2447.95
2291.19
2580.16
2360.47
2874.18
2341.48
2284.82
2858.53
2575.59
0.0244655
0.123066
0.366606
2.25804
2.28761
2.19733
2.21094
3.41721
3.5631
3.07194
3.61868
3.56841
3.27791
3.42428
3.59172
3.01892
3.48934
3.33987
3.25847
3.04748
2.75943
3.27573
3.03585
3.06234
2.77101
3.25399
3.02972
3.4653
3.61906
3.57567
3.93601
7172.02
7235.5
7194.48
3600.58
3624.22
3560.82
3581.47
3394.44
3401.02
1900.51
2353.26
2230.41
1935.06
2214.3
1775.23
1903.13
2356.48
2230.78
1936.91
2218.64
1772.95
2227.59
2300.5
2727.45
2635.51
2273.84
2607.01
2191.03
2689.53
0.041809
0.164529
2.3178
2.36015
2.36947
2.31804
2.22941
2.22255
2.52016
3.16901
2.94409
2.52747
3.18515
2.95145
3.71521
3.86909
3.32551
3.88871
3.68235
3.53439
3.59176
3.68112
3.22173
3.48473
3.31517
3.35824
3.40142
3.20861
3.39587
3.20168
7252.38
7409.29
7454.45
3741.74
3728.99
3619.03
3620.08
1669.36
2170.77
1914.75
2184.43
1791.58
2192.87
1709.52
1785.26
2190.15
2189.6
1906.88
2179.15
2132.53
2448.56
2012.99
2273.19
2135.62
2451.64
2003.09
2268.14
2167.26
2583.78
2142.21
2558.95
0.0791528
0.19988
2.41164
2.38888
2.41923
2.38948
2.30888
2.30027
3.14729
3.13774
3.09279
3.16872
3.05109
2.99517
3.25795
3.00383
3.15264
3.15722
3.09816
3.18466
3.05178
3.00096
3.26371
3.01247
3.38748
3.63193
3.32102
3.48379
3.34545
3.24383
3.37301
3.23902
7397.39
7597.89
3844.67
3680.69
3653.77
3873.96
3742.14
3760.48
3147.45
1748.07
2209.26
3170.82
1783.4
2227.07
2160.91
2116.97
2367.41
2435.62
2154.44
2357.15
2106.6
2430.31
2062.53
2337.1
2077.31
2386.43
2056.79
2334.29
2074.97
2374.19
0.0542247
0.228908
2.56325
2.97736
3.1671
2.35497
2.57089
2.98349
3.1774
2.36531
2.29784
2.29028
3.18724
3.19441
3.28232
3.19879
3.12476
3.03639
3.19348
3.31071
3.20908
3.21668
3.13148
3.04559
3.32741
3.44696
3.32484
3.43977
7618.41
7766.47
3876.12
3679.74
3676.32
3879.22
3777.36
3783.76
1806.27
1735.61
2170.91
1745.61
2191.66
2098.69
1645.51
2211.08
1840.11
1757.59
2179.95
1781.73
2205.1
2118.85
1701.37
2230.63
2246.06
2101.17
2453.33
2410.02
2228.89
2440.19
2100.14
2412.36
0.0484621
2.3667
2.35389
2.34585
2.33825
2.22467
2.20914
3.28188
3.06625
3.11717
3.10454
3.19876
3.01541
3.18936
3.03014
2.45401
3.23921
3.07562
3.27168
3.07062
3.11521
3.10168
3.20674
3.01536
3.18708
3.02696
2.45062
3.23027
3.07142
3.29326
3.20519
3.14204
3.07256
3.29352
3.22112
3.14381
3.08367
7860.42
8024.39
3970.07
3466.93
2166.16
1685.97
3477.96
2190.62
1719.54
3945.47
3715.66
3750.31
1886.57
1962.77
1999
2119.52
2373.09
2309.59
1904.96
1969.28
2005.9
2374.41
2135.35
2319.11
2177.69
2397.53
2168.26
2391.08
0.0449252
2.32758
2.39352
2.33048
2.37042
2.27151
2.25953
3.15574
3.14667
3.10161
3.02917
3.13161
3.00417
3.15808
3.09352
3.07079
3.18418
3.08788
2.91165
3.08447
2.78511
3.1611
3.14687
3.02219
3.10096
3.13771
3.0047
3.09529
3.15429
3.07565
3.17675
3.08607
2.908
3.10131
2.8005
8120.69
3882.06
3918
3884.55
3933.4
3904.22
3914.97
1746.58
2064.82
1749.91
2255.5
1668.19
2401.93
1881.76
2313.55
1804.65
2049.87
1747.36
2250.48
1658.39
2406.44
1915.06
2326.34
3432.35
1804.22
2330.44
3432.79
1847.13
2348.95
1966.94
1972.28
2213.45
2432.77
1984.84
1958.08
2227.91
2424.06
0.035571
2.31799
2.91173
3.12181
2.40325
2.34051
2.92708
3.1461
2.38255
2.32039
2.306
3.21927
3.06757
3.03708
2.94042
3.17387
3.2855
3.02526
2.94747
3.09906
3.07793
3.22401
3.07134
3.04964
2.94421
3.18057
3.03163
3.30216
2.95765
3.10573
3.08496
8068.67
3851.04
3866.57
3852.04
3915.61
3878.24
3887.14
1892.95
1910.05
2295.21
2189
2012.19
2342.01
1889.75
1925.53
2294.09
2196.52
2018.67
2337.88
1748.05
1852.21
2330.05
1801.19
2274.74
2138.46
1687.11
2266.08
1777.38
1863.37
2337.46
1835.86
2284.82
2153.17
1715.77
2268.37
0.0265006
2.34693
2.33
2.34155
2.94624
3.16299
2.96004
3.14017
2.42257
2.35564
2.96396
3.1799
2.97487
3.16388
2.39916
3.15161
3.28423
3.32655
3.04282
3.13516
3.14066
3.15855
3.30904
3.3459
3.04946
3.1489
3.15193
8193.78
3856.44
3834.66
2159.7
1730.2
3783.14
2161.88
1736.78
3891.67
3928.22
3920.19
1865.22
2115.23
1877.81
2239.48
1900.02
2119.18
1887.5
2230.97
1996.39
2060.11
1922.91
2197.14
2229.27
2365.72
2041.29
2040.48
1914.11
2238.31
2208.91
2359.26
0.0240695
2.3481
2.35727
2.32816
2.33707
2.36698
2.99346
3.19653
2.97775
3.22787
3.38168
3.18245
2.3824
2.37965
2.99904
3.19625
2.98661
3.22283
3.38659
3.18819
2.36919
3.29085
3.15685
3.31707
3.16708
8207.41
3832.41
3835.92
3898.35
2063.68
1710.44
2033.55
1731.67
3860.09
2067.83
1711.15
2035.41
1733.64
3896.6
3870.28
2098.98
1924.78
2080.13
2318.05
2106.61
2310.69
2135.07
1942.07
2081.73
2116.49
2317.99
2319.02
0.0132698
2.34914
2.3537
2.3294
2.33279
2.39074
2.37667
2.37918
3.04278
3.31226
3.04885
3.31369
3.18947
3.41796
3.20135
3.42734
3.37733
3.20878
2.38694
3.04691
3.28478
3.03971
3.30236
3.19839
3.41694
3.20742
3.4315
3.38453
3.21352
8204.73
3854.69
3831.95
3855.23
3852.09
3797.81
1926.71
1687.43
1994.71
1641.58
2058.44
2321.61
3758.38
1922.1
1702.59
1994.52
1658.92
2076.92
2345.03
3950
3928.2
2122.86
2358.88
2164.61
2369.9
0.0322893
2.34485
2.31731
2.32377
2.29918
2.3727
2.37333
2.35838
2.3626
2.3929
2.40149
2.97879
3.17287
2.98789
3.16103
3.17017
3.42937
3.15116
3.44853
3.17418
3.40183
3.21086
3.3716
2.96546
3.15572
2.97977
3.13454
3.18767
3.4412
3.15785
3.5076
3.19317
3.41086
3.21988
3.41
8193.47
3829.16
3852.55
3847.2
3854.63
3963.06
3945.25
3717.84
1966.71
1625.33
2005.6
1625.95
1997.61
1939.6
2148.24
1864.4
2108.25
2346.16
3680.41
1938.16
1615.24
1982.42
1629.09
2020.14
1971.65
2165.25
1914.01
2122.22
2341.06
0.0420492
2.26452
2.22154
2.25256
2.20534
2.37032
2.35416
2.35814
2.3414
2.37457
2.39793
2.3902
2.40467
2.9611
3.12
2.92619
3.14757
2.94796
3.08229
2.92134
3.1133
3.06255
3.15656
2.9983
3.22427
3.04391
3.15565
3.00341
3.19885
8073.37
3834.63
3853.93
3837.15
3890.57
3961.05
3945.86
3943.6
3925.69
3725.51
3675.02
2335.52
1741.95
2215.02
1861.5
2157.7
1894.16
2227.45
1917.38
2152.69
2021.1
2250.04
1929.77
2324.88
1737.08
2208.69
1843.76
2011.31
1818.67
2143.94
1829.45
2135.67
2028.25
2251.81
1944.77
0.220159
0.0512945
2.35411
2.32584
2.3407
2.30893
2.39577
2.36941
2.40036
2.37779
2.92989
3.15865
2.93874
3.13894
2.93727
3.11533
2.95568
3.1157
2.9221
3.07777
2.91959
3.08777
2.93588
3.10039
2.95368
3.09566
3.06379
3.29346
3.06523
3.23541
3.04211
3.17527
3.02082
3.19281
8134.3
3848.05
3884.77
3912.11
3926.6
3891.25
3924.66
3872.22
3918.22
3727.79
3719.97
3677.17
3682.02
2392.71
1930.73
2427.1
1903.21
2378.2
1905.34
2409.9
1880.02
2438.27
1951.36
2268.59
2062.09
2429.39
1910.3
2227.39
2037.78
0.186649
2.36166
2.29218
2.35928
2.29027
0.0830568
2.33189
2.31475
2.34484
2.32159
2.98444
3.1181
2.96817
3.12701
2.98039
3.09816
2.95677
3.12043
2.98721
3.10698
2.9683
3.12113
2.98188
3.09973
2.96199
3.11567
3.05119
3.3647
3.08926
3.30047
3.0023
3.177
3.00586
3.19822
2.99895
3.16793
3.00414
3.17596
2.99189
3.15547
2.99546
3.171
7870.34
8037.51
3869.44
3901.95
3885.83
3901.9
3799.72
3893.83
3767.55
3856.86
2388.67
1932.48
2427.97
1895.59
2324.8
1728.64
2202.62
1854.38
2376.22
1907.64
2411.43
1875.95
2315.14
1729.63
2199.7
1838.7
2468.97
2102.56
2504.63
2076.91
2462.07
2094.12
2496.6
2058.98
0.150688
2.28753
2.22976
2.28299
2.22308
2.41911
2.38948
2.41802
2.40318
0.0437859
2.95679
3.0869
2.93741
3.12609
2.94032
3.12416
2.82601
3.17819
2.96539
3.10156
2.9486
3.13723
2.94948
3.13947
2.83954
3.18902
3.01287
3.1526
3.00444
3.11879
3.03905
3.13525
3.03945
3.11975
3.00264
3.13121
2.9917
3.09648
3.03191
3.12709
3.03834
3.10037
7629.79
7773.82
3923.34
3978.64
3886.62
3955.55
3832.01
3858.34
3775.01
3851.67
1957.34
1593.01
1963.22
1620.99
1921.16
1684.65
1988.63
1635.32
1936.95
1610.24
1961.85
1636.02
1920.54
1694.76
1986.15
1658.19
2459.05
2104.39
2506.38
2068.41
2439.24
1927.79
2238.96
2061.42
2452.2
2094.59
2498.72
2050.23
2428.23
1904.16
2212.38
2035.2
0.375632
0.111973
2.38275
2.32551
2.38759
2.32697
3.16206
3.23792
3.064
3.21697
3.07744
3.00507
3.24543
2.98438
3.24907
3.0542
3.14139
3.21927
3.05952
3.20562
3.0738
2.99641
3.23539
2.98122
3.24017
3.04856
0.0220662
3.14423
3.21914
3.08537
3.30898
3.15045
3.38013
3.13447
3.19747
3.08027
3.284
3.12768
3.32631
3.14582
3.32466
3.18785
3.30999
3.1322
3.30096
3.18183
3.27628
7410.71
7612
3883.47
3852.38
3885.76
3881.26
3422.09
3725.74
3431.81
3764.76
2060.25
1705.73
2029.7
1726.68
2151.51
1674.48
2257.28
1718.13
2057.65
1701.54
2028
1725.08
2159.68
1716.2
2267.65
1733.26
2178.49
1877.42
2216.04
1915.56
1993.28
1939.16
2129.28
1859.59
2026.81
1818.3
2113.64
1852.69
2017.04
1952.86
2147.21
1898.13
0.211059
2.34931
2.20426
2.35933
2.20968
0.059521
2.52185
2.43582
2.53168
2.44167
3.34332
3.24554
3.2139
3.05916
3.17625
3.03402
3.18334
3.00042
3.22656
3.06676
3.32615
3.23187
3.20898
3.05538
3.18217
3.03526
3.18489
2.99678
3.23408
3.06779
0.00539519
3.24625
3.36972
3.21685
3.40079
3.31076
3.52635
3.25319
3.35687
3.21757
3.41076
3.29796
3.47678
7265.46
7422.77
7467.81
3785.27
3761.46
3790.74
3771.97
1826.43
1737.3
2322.49
1799.9
2271.98
2120.76
1751.64
2407.43
1810.19
2337.04
1746.65
1895.49
2346.52
1846.74
2287.79
2134.21
1810.46
2412.93
1859.94
2358.78
2302.35
2049.94
2315.6
2068.78
2355.95
2050.79
2312.37
2065.68
2336.36
2076.88
2352.05
2030.2
2144.7
2014.17
2222.22
1928.01
2133.68
2004.57
2228.56
1934.04
0.0874143
2.10536
1.97278
2.10725
1.96646
2.5013
2.32708
2.50606
2.34058
0.000608698
3.07181
3.12194
3.11032
3.21006
2.98603
3.21966
2.95444
3.17979
3.07453
3.12045
3.10769
3.21676
2.99031
3.21299
2.95371
3.18723
3.39789
3.20261
3.20235
3.14224
3.33575
3.16363
3.37924
3.20057
3.20479
3.14701
3.34552
3.17246
-0.00547964
7186.29
7246.54
7204.3
3682.72
3750.38
3653.73
3739.53
3484.98
3708.83
3491.14
3702.43
1965.04
1930.53
2233.42
2179.44
1876.37
2241.62
1891.55
2326.15
2026.05
2353.12
2049.2
1926.69
2199.18
2246.47
1878.85
2231.2
1919.76
2338.22
2029.21
2349.45
2351.02
2107.24
2343.77
2114.73
2306.75
2091.3
2361.26
2104.86
2329.06
2148.37
2306.84
2111.16
0.0452154
-0.0742806
2.23591
2.05484
2.25672
2.055
3.11152
3.13569
3.05715
3.15741
3.03061
2.96335
3.06002
2.78777
3.1213
2.92085
3.10654
3.13616
3.05216
3.15343
3.02793
2.96067
3.0605
2.78966
3.12624
2.92438
-0.0460477
3.05956
3.17179
3.05405
3.19764
3.05731
3.22187
3.06828
3.18119
3.0484
3.21561
3.06192
3.23371
-0.0417215
7113.78
7167.74
7153.49
3606.98
3627.97
3631.22
3679.57
3156.27
3629.4
3175.97
3628.11
2068.97
1760.55
2267.46
1675.74
2162.16
1649.07
2217.07
1684.88
2050.37
1754.92
2260.7
1662.66
2188.61
1706.36
2236.65
1722.57
1904.95
2096.46
1925.6
2204.76
1881.49
2128.56
1962.34
2113.74
1936.84
2212.61
1912.45
2133.87
-0.214484
2.01365
1.58711
2.008
1.57891
-0.17795
2.27654
2.20345
2.28458
2.204
3.19424
3.23637
3.12891
3.11028
3.27442
3.16456
3.12986
2.96589
3.25109
3.11765
3.18913
3.24136
3.12523
3.11421
3.28108
3.16737
3.14429
2.97299
3.26484
3.12477
-0.119653
3.16359
3.31916
3.16331
3.31361
-0.054416
7041.67
7100.04
7139.22
7075.85
3572.25
3551.57
3590.55
3595.9
1744.84
1807.58
2185.24
1749.16
2202.43
2097.51
1680.55
2180.16
1754.39
2216.01
1834.17
1764.44
2188.99
1783.6
2211.6
2113.94
1714.78
2196.76
1782.38
2227.84
2442.78
1903.61
2304.55
1986.3
2322.58
1975.72
2431.26
1896.72
2300.68
1970.69
2325.03
1974.28
0.708496
-0.435635
2.15773
2.37232
2.1615
2.27471
-0.276203
2.81335
3.19169
3.01271
3.09593
2.29134
2.81283
3.19567
3.013
3.09586
2.30232
3.39397
3.30166
3.29925
3.20128
3.38738
3.27057
3.39334
3.30268
3.30121
3.20338
3.38269
3.2704
-0.156325
-0.067618
6979.45
7028.14
7065.25
7177.97
3505.06
3628.7
3530.27
3642.86
3409.67
3678.21
3408.12
3660.9
1894.94
2020.26
2389.15
2123.94
2122.25
2432.7
1920.3
2189.52
2132.13
2453.95
1905.65
2013.63
2140.37