/*--------------------------------*- C++ -*----------------------------------*\
| =========                 |                                                 |
| \\      /  F ield         | OpenFOAM: The Open Source CFD Toolbox           |
|  \\    /   O peration     | Version:  5.x                                   |
|   \\  /    A nd           | Web:      www.OpenFOAM.org                      |
|    \\/     M anipulation  |                                                 |
\*---------------------------------------------------------------------------*/
FoamFile
{
    version     2.0;
    format      ascii;
    class       surfaceScalarField;
    location    "0.5";
    object      phi;
}
// * * * * * * * * * * * * * * * * * * * * * * * * * * * * * * * * * * * * * //

dimensions      [0 3 -1 0 0 0 0];

internalField   nonuniform List<scalar> 
30582
(
0.00029296
4.6333e-06
0.000277678
1.52822e-05
0.000292259
1.0002e-05
0.000252012
2.56653e-05
0.000277242
3.02992e-05
0.000292167
1.55395e-05
0.000224898
2.7114e-05
0.000252369
5.05382e-05
0.000278532
4.39344e-05
0.000288357
2.4997e-05
0.000193264
3.16342e-05
0.000225241
5.42417e-05
0.000254931
7.41391e-05
0.000275513
5.67777e-05
0.000287232
3.57217e-05
0.00016221
3.10542e-05
0.000193434
6.34415e-05
0.000226626
8.25463e-05
0.00025485
9.48024e-05
0.000278062
6.59471e-05
0.000276337
5.75291e-05
0.000132696
2.95137e-05
0.000162009
6.24795e-05
0.000193918
9.61498e-05
0.000226719
0.000110678
0.000260668
0.000112197
0.000270584
7.17e-05
0.000274116
8.17769e-05
0.000106589
2.61077e-05
0.000132205
5.93179e-05
0.000161585
9.48126e-05
0.0001937
0.000129168
0.000230899
0.000140446
0.000259728
0.000123053
0.00027714
6.86761e-05
0.000242842
0.000137551
8.43477e-05
2.22409e-05
0.000105929
5.2383e-05
0.000131158
8.97444e-05
0.000160395
0.000128118
0.000195809
0.000164259
0.000230485
0.00016969
0.000270217
0.000129975
0.000260246
5.12726e-05
0.000216123
-9.97378e-05
6.59964e-05
1.83512e-05
8.36337e-05
4.45365e-05
0.000104531
7.901e-05
0.000129266
0.000120873
0.00016008
0.000163847
0.000194604
0.000200139
0.000238183
0.000201724
0.000269594
0.000120627
0.000300801
-3.34052e-05
3.23103e-05
-0.000132933
5.12063e-05
1.47901e-05
6.53062e-05
3.66787e-05
8.21431e-05
6.69246e-05
0.000102261
0.000106016
0.000127451
0.000153502
0.000156951
0.0002015
0.000197786
0.000240535
0.000242338
0.000228981
0.000342718
7.87089e-05
0.000375561
-0.000376656
7.14672e-05
-0.000204403
3.94828e-05
1.17235e-05
5.0581e-05
2.95153e-05
6.3881e-05
5.49409e-05
7.98106e-05
8.93744e-05
9.96466e-05
0.00013382
0.000123142
0.000187311
0.000156069
0.000243217
0.000199081
0.000283792
0.000336487
0.000235212
0.000553788
-9.95179e-05
0.000232481
-0.000537669
4.38965e-05
-0.000248299
3.03031e-05
9.17977e-06
3.89402e-05
2.33643e-05
4.93006e-05
4.40956e-05
6.169e-05
7.30615e-05
7.69645e-05
0.000112057
9.49523e-05
0.000162009
0.000119942
0.000223439
0.000152835
0.000289464
0.000306314
0.000313966
0.000633338
0.000155662
0.00038009
-0.000247127
-4.12628e-05
-0.00045251
4.4484e-06
-0.000252748
2.3178e-05
7.12501e-06
2.98463e-05
1.82737e-05
3.78367e-05
3.48282e-05
4.73524e-05
5.84332e-05
5.8947e-05
9.10789e-05
7.23846e-05
0.000134624
9.09858e-05
0.000190965
0.000113883
0.000262391
0.000265248
0.000330529
0.000620264
0.00032704
0.000450938
8.48142e-05
-7.35254e-05
-0.000214865
-6.27835e-05
-0.000385278
4.93628e-06
-0.000257684
1.76794e-05
5.49864e-06
2.28019e-05
1.41694e-05
2.89223e-05
2.71882e-05
3.61685e-05
4.60121e-05
4.48819e-05
7.24984e-05
5.4791e-05
0.000108673
6.83692e-05
0.000157241
8.37411e-05
0.000221107
0.000236407
0.000291232
0.000562459
0.000388335
0.000360425
0.000417552
-6.68545e-05
7.81434e-05
-8.84347e-05
-0.000189213
-3.33841e-05
-0.000346957
3.18059e-06
1.34479e-05
4.23153e-06
1.73747e-05
1.09259e-05
2.2044e-05
2.10477e-05
2.75312e-05
3.58254e-05
3.40377e-05
5.68563e-05
4.12781e-05
8.60112e-05
5.11167e-05
0.000125925
6.09158e-05
0.000180066
0.000212301
0.000245213
0.000477366
0.000376325
0.00023856
0.000510199
-2.63293e-05
0.000377027
-9.02822e-05
7.99909e-05
-5.49251e-05
-0.000167672
-1.11017e-05
1.01919e-05
3.256e-06
1.32041e-05
8.40217e-06
1.67625e-05
1.62074e-05
2.09065e-05
2.76724e-05
2.57468e-05
4.41163e-05
3.10108e-05
6.71236e-05
3.8092e-05
9.90359e-05
4.4104e-05
0.000142737
0.000195402
0.000196965
0.000384637
0.000337942
0.000149946
0.000464939
1.58681e-05
0.000468002
-4.68175e-05
0.000333562
-5.73604e-05
8.24262e-05
-1.69896e-05
7.67963e-06
2.51228e-06
9.99928e-06
6.46077e-06
1.2716e-05
1.24486e-05
1.58462e-05
2.12677e-05
1.94434e-05
3.39758e-05
2.32614e-05
5.18658e-05
2.83381e-05
7.68774e-05
3.18554e-05
0.000111285
0.000181964
0.000156174
0.000288354
0.000293248
0.000101627
0.000386262
3.59055e-05
0.000444902
-4.82545e-06
0.000426009
-2.86901e-05
0.000304892
-1.75679e-05
5.72683e-06
1.9528e-06
7.52967e-06
4.98189e-06
9.61528e-06
9.56154e-06
1.19871e-05
1.63077e-05
1.46656e-05
2.60455e-05
1.74366e-05
3.98007e-05
2.1068e-05
5.91358e-05
2.30063e-05
8.57266e-05
0.00017158
0.000121669
0.000204141
0.000240388
7.4935e-05
0.00031994
4.08511e-05
0.000381316
1.85512e-05
0.000421525
-2.9041e-06
0.000400223
-8.61303e-06
4.18964e-06
1.53718e-06
5.61232e-06
3.87012e-06
7.2314e-06
7.36577e-06
9.04214e-06
1.25065e-05
1.1047e-05
1.99264e-05
1.30662e-05
3.0416e-05
1.56645e-05
4.52042e-05
1.66383e-05
6.55038e-05
0.000163258
9.40483e-05
0.000138573
0.000187237
5.87562e-05
0.000256567
4.13744e-05
0.000319417
2.69048e-05
0.000372962
1.16221e-05
0.000406999
-2.85115e-07
2.95269e-06
1.23694e-06
4.10417e-06
3.04531e-06
5.38438e-06
5.71713e-06
6.78623e-06
9.62167e-06
8.30247e-06
1.5251e-05
9.7858e-06
2.32068e-05
1.16513e-05
3.44292e-05
1.20618e-05
4.97808e-05
0.000156366
7.23964e-05
9.17275e-05
0.000140894
4.74059e-05
0.000198587
3.94299e-05
0.000258511
2.90301e-05
0.000317291
1.7018e-05
0.000367566
4.47696e-06
1.92457e-06
1.0281e-06
2.89149e-06
2.44959e-06
3.93399e-06
4.49568e-06
5.04433e-06
7.45902e-06
6.21168e-06
1.17125e-05
7.31797e-06
1.77188e-05
8.66734e-06
2.61907e-05
8.76814e-06
3.77228e-05
0.000150318
5.58283e-05
6.08365e-05
0.000103287
3.8486e-05
0.000149814
3.52072e-05
0.00020281
2.8117e-05
0.000259424
1.82277e-05
0.000316082
6.22353e-06
1.03064e-06
8.93919e-07
1.8845e-06
2.03507e-06
2.76998e-06
3.61359e-06
3.6807e-06
5.85929e-06
4.60536e-06
9.06532e-06
5.45167e-06
1.35787e-05
6.44236e-06
1.99438e-05
6.39e-06
2.85688e-05
0.000144664
4.33769e-05
4.12157e-05
7.54491e-05
3.03266e-05
0.000111447
2.96709e-05
0.00015535
2.52122e-05
0.000205715
1.74516e-05
0.0002602
6.50017e-06
2.09683e-07
8.20947e-07
1.00998e-06
1.76843e-06
1.80541e-06
2.99962e-06
2.58981e-06
4.70445e-06
3.35377e-06
7.11087e-06
4.02765e-06
1.04893e-05
4.77384e-06
1.52473e-05
4.66395e-06
2.16698e-05
0.000138921
3.43121e-05
2.8568e-05
5.60247e-05
2.2971e-05
8.28048e-05
2.38472e-05
0.000117271
2.1278e-05
0.000159284
1.55168e-05
0.000207649
6.10806e-06
-5.91825e-07
8.01513e-07
2.07711e-07
1.62322e-06
9.69491e-07
2.60434e-06
1.68869e-06
3.90073e-06
2.35735e-06
5.70086e-06
2.92528e-06
8.21323e-06
3.51107e-06
1.17521e-05
3.40236e-06
1.65089e-05
0.000132629
2.79619e-05
2.00351e-05
4.28452e-05
1.68154e-05
6.21803e-05
1.84024e-05
8.82497e-05
1.70887e-05
0.00012146
1.30398e-05
0.000161761
5.36202e-06
-1.42211e-06
8.30298e-07
-5.7527e-07
1.58451e-06
2.03852e-07
2.38887e-06
9.10041e-07
3.38299e-06
1.53816e-06
4.71991e-06
2.05344e-06
6.57269e-06
2.54131e-06
9.18298e-06
2.46978e-06
1.26847e-05
0.000125118
2.40194e-05
1.39584e-05
3.40387e-05
1.1834e-05
4.78267e-05
1.36925e-05
6.68903e-05
1.31737e-05
9.21647e-05
1.04677e-05
0.000124032
4.47167e-06
-2.3279e-06
9.05795e-07
-1.38654e-06
1.64158e-06
-5.42893e-07
2.33126e-06
1.98286e-07
3.10063e-06
8.33394e-07
4.08776e-06
1.34129e-06
5.43206e-06
1.78057e-06
7.33343e-06
1.77e-06
9.88276e-06
0.000115632
2.21705e-05
9.3335e-06
2.86443e-05
7.79663e-06
3.80761e-05
9.7939e-06
5.17253e-05
9.78746e-06
7.02766e-05
8.08599e-06
9.45465e-05
3.57382e-06
-3.356e-06
1.02809e-06
-2.27219e-06
1.79144e-06
-1.31689e-06
2.41558e-06
-4.95165e-07
3.02472e-06
1.91147e-07
3.74288e-06
7.32171e-07
4.69688e-06
1.16487e-06
6.04776e-06
1.23397e-06
7.86945e-06
0.000103087
2.24283e-05
5.73534e-06
2.57686e-05
4.51722e-06
3.19237e-05
6.59698e-06
4.1273e-05
6.98923e-06
5.45235e-05
6.02883e-06
7.23337e-05
2.75467e-06
-4.55467e-06
1.19866e-06
-3.27812e-06
2.034e-06
-2.16251e-06
2.63704e-06
-1.21404e-06
3.13445e-06
-4.33364e-07
3.64924e-06
1.7939e-07
4.29567e-06
6.42569e-07
5.21918e-06
8.11561e-07
6.47017e-06
8.67219e-05
2.42342e-05
3.1195e-06
2.50441e-05
1.84443e-06
2.84414e-05
3.99345e-06
3.45273e-05
4.69733e-06
4.35649e-05
4.32848e-06
5.62239e-05
2.05152e-06
-5.97445e-06
1.41977e-06
-4.45148e-06
2.37199e-06
-3.12375e-06
2.99522e-06
-2.00005e-06
3.42304e-06
-1.08081e-06
3.7819e-06
-3.56677e-07
4.18531e-06
1.71678e-07
4.76656e-06
4.59989e-07
5.57076e-06
6.60404e-05
2.71517e-05
1.3434e-06
2.60103e-05
-2.76841e-07
2.71654e-05
1.93096e-06
3.05039e-05
2.86709e-06
3.63575e-05
2.93261e-06
4.49608e-05
1.46872e-06
-7.66909e-06
1.69463e-06
-5.84173e-06
2.81e-06
-4.24584e-06
3.49406e-06
-2.89469e-06
3.88985e-06
-1.78946e-06
4.13169e-06
-9.12312e-07
4.33753e-06
-2.83207e-07
4.64019e-06
1.47878e-07
5.07867e-06
4.13884e-05
3.02228e-05
2.78962e-07
2.82162e-05
-1.6823e-06
2.74159e-05
3.79159e-07
2.87172e-05
1.39786e-06
3.19732e-05
1.80346e-06
3.74866e-05
9.92137e-07
-9.69642e-06
2.02733e-06
-7.50187e-06
3.35479e-06
-5.57661e-06
4.14077e-06
-3.94077e-06
4.54013e-06
-2.59758e-06
4.69795e-06
-1.52119e-06
4.74055e-06
-7.54402e-07
4.80872e-06
-1.50194e-07
4.93826e-06
1.40539e-05
3.24133e-05
-1.59654e-07
3.06615e-05
-2.20585e-06
2.87399e-05
-6.50541e-07
2.84457e-05
3.03528e-07
2.98116e-05
8.98867e-07
3.28777e-05
6.13604e-07
-1.2119e-05
2.42255e-06
-9.48937e-06
4.01486e-06
-7.16789e-06
4.94608e-06
-5.18387e-06
5.38387e-06
-3.54492e-06
5.48747e-06
-2.21731e-06
5.39407e-06
-1.2718e-06
5.25794e-06
-4.58372e-07
5.11689e-06
-1.3761e-05
3.27531e-05
-1.61128e-07
3.24148e-05
-1.81467e-06
3.02705e-05
-1.08439e-06
2.9174e-05
-4.17982e-07
2.91674e-05
2.26448e-07
3.04841e-05
3.15859e-07
-1.50053e-05
2.88638e-06
-1.18667e-05
4.79989e-06
-9.07629e-06
5.92328e-06
-6.6738e-06
6.43602e-06
-4.67416e-06
6.51311e-06
-3.03651e-06
6.30666e-06
-1.8658e-06
5.98807e-06
-7.97619e-07
5.59718e-06
-3.98283e-05
3.11842e-05
-5.51995e-08
3.2647e-05
-7.39205e-07
3.13392e-05
-9.70373e-07
3.01565e-05
-7.22384e-07
2.94785e-05
-2.12527e-07
2.96064e-05
9.7064e-08
-1.84289e-05
3.4236e-06
-1.47024e-05
5.7221e-06
-1.13636e-05
7.0872e-06
-8.46541e-06
7.71491e-06
-6.03244e-06
7.79431e-06
-4.01731e-06
7.49392e-06
-2.56891e-06
7.00977e-06
-1.19031e-06
6.38076e-06
-6.24117e-05
2.81805e-05
-1.70595e-07
3.12991e-05
5.39122e-07
3.13681e-05
-4.72605e-07
3.08413e-05
-6.46577e-07
3.00808e-05
-4.02155e-07
2.96682e-05
-4.78055e-08
-2.24689e-05
4.04001e-06
-1.80698e-05
6.79096e-06
-1.40975e-05
8.45601e-06
-1.06189e-05
9.24067e-06
-7.67222e-06
9.3547e-06
-5.20289e-06
8.9799e-06
-3.4154e-06
8.34041e-06
-1.66383e-06
7.48329e-06
-8.08015e-05
2.47704e-05
-7.46979e-07
2.87561e-05
1.50403e-06
3.03332e-05
1.23737e-07
3.07713e-05
-2.9885e-07
3.04934e-05
-3.69421e-07
3.0048e-05
-1.14356e-07
-2.7206e-05
4.7371e-06
-2.20478e-05
8.01801e-06
-1.73506e-05
1.0044e-05
-1.32006e-05
1.10377e-05
-9.6515e-06
1.122e-05
-6.64187e-06
1.07937e-05
-4.44493e-06
1.00094e-05
-2.24396e-06
8.92055e-06
-9.51557e-05
2.18374e-05
-1.90176e-06
2.59244e-05
1.74401e-06
2.85151e-05
5.29752e-07
2.99264e-05
1.1909e-07
3.03529e-05
-1.83381e-07
3.03072e-05
-1.10911e-07
-3.27231e-05
5.51708e-06
-2.67171e-05
9.40643e-06
-2.12016e-05
1.1869e-05
-1.62822e-05
1.31257e-05
-1.20348e-05
1.3421e-05
-8.38865e-06
1.29667e-05
-5.70276e-06
1.20515e-05
-2.96268e-06
1.07282e-05
-0.000106103
1.98682e-05
-3.63887e-06
2.35741e-05
1.12656e-06
2.65413e-05
5.14185e-07
2.85298e-05
4.06121e-07
2.96387e-05
4.0402e-08
3.01287e-05
-5.80274e-08
-3.91027e-05
6.37957e-06
-3.21613e-05
1.09613e-05
-2.57316e-05
1.39365e-05
-1.99422e-05
1.5529e-05
-1.48928e-05
1.59836e-05
-1.05045e-05
1.55369e-05
-7.23989e-06
1.45039e-05
-3.85922e-06
1.29481e-05
-0.000114437
1.90615e-05
-5.99591e-06
2.22256e-05
-2.88664e-07
2.49899e-05
-1.41861e-08
2.70694e-05
3.98816e-07
2.85365e-05
1.88696e-07
2.94899e-05
6.8658e-09
7.32088e-06
-4.64236e-05
-3.84638e-05
1.2682e-05
-3.10254e-05
1.62551e-05
-2.42625e-05
1.82567e-05
-1.83036e-05
1.89398e-05
-1.30576e-05
1.85367e-05
-9.1145e-06
1.74115e-05
-4.97844e-06
1.56231e-05
-0.000121006
1.95181e-05
-9.05088e-06
2.21177e-05
-2.28905e-06
2.42279e-05
-1.01339e-06
2.59898e-05
2.56227e-08
2.74425e-05
1.66361e-07
2.85585e-05
4.77794e-08
1.45622e-05
-4.57051e-05
2.1064e-05
-6.74876e-05
-3.71685e-05
1.8825e-05
-2.93298e-05
2.13224e-05
-2.23504e-05
2.23035e-05
-1.61245e-05
2.20067e-05
-1.13921e-05
2.08143e-05
-6.374e-06
1.8807e-05
-0.000126382
2.09989e-05
-1.27123e-05
2.31814e-05
-4.70625e-06
2.45376e-05
-2.45021e-06
2.56664e-05
-6.99417e-07
2.67156e-05
-6.78911e-08
2.76768e-05
3.79893e-08
2.16373e-05
-4.42436e-05
4.19375e-05
-6.65786e-05
2.63474e-05
-9.3835e-05
-3.52331e-05
2.47283e-05
-2.71231e-05
2.60951e-05
-1.97887e-05
2.59677e-05
-1.41473e-05
2.47618e-05
-8.10876e-06
2.25491e-05
-0.000130979
2.34043e-05
-1.70711e-05
2.53594e-05
-7.48847e-06
2.5966e-05
-4.24824e-06
2.63379e-05
-1.74424e-06
2.67127e-05
-5.04461e-07
2.71529e-05
-3.70778e-08
2.84635e-05
-4.20593e-05
6.23997e-05
-6.47059e-05
5.2536e-05
-9.27672e-05
3.13758e-05
-0.000125211
-3.27156e-05
3.03208e-05
-2.41428e-05
3.04492e-05
-1.74627e-05
2.92831e-05
-1.02567e-05
2.69098e-05
-0.000135102
2.66718e-05
-2.23637e-05
2.86975e-05
-1.06739e-05
2.85455e-05
-6.3895e-06
2.8109e-05
-3.05433e-06
2.76497e-05
-1.131e-06
2.73404e-05
-1.81497e-07
3.49732e-05
-3.92253e-05
8.22471e-05
-6.19067e-05
7.8349e-05
-9.05189e-05
6.26735e-05
-0.000124065
3.55597e-05
-0.00016077
-2.92876e-05
3.54655e-05
-2.14315e-05
3.44181e-05
-1.29029e-05
3.19293e-05
-0.000138967
3.07744e-05
-2.8979e-05
3.3286e-05
-1.43155e-05
3.23373e-05
-8.87347e-06
3.10296e-05
-4.61039e-06
2.9666e-05
-1.91489e-06
2.84346e-05
-3.93044e-07
4.1023e-05
-3.53373e-05
0.000101316
-5.82946e-05
0.000103603
-8.71608e-05
9.36581e-05
-0.000121503
7.13789e-05
-0.000159884
3.80852e-05
-0.000198856
-2.61574e-05
4.01913e-05
-1.6147e-05
3.76622e-05
-0.000142751
3.57135e-05
-3.74408e-05
3.92337e-05
-1.84639e-05
3.74308e-05
-1.1718e-05
3.51801e-05
-6.4089e-06
3.28278e-05
-2.84737e-06
3.05989e-05
-6.63247e-07
4.66373e-05
-3.17717e-05
0.000119207
-5.32281e-05
0.000128179
-8.28707e-05
0.000124179
-0.000117681
0.000106926
-0.000157051
7.82289e-05
-0.000200028
3.66115e-05
-0.000235467
-2.01169e-05
4.41613e-05
-0.000146538
4.14486e-05
-4.84978e-05
4.67677e-05
-2.31412e-05
4.3907e-05
-1.49323e-05
4.0642e-05
-8.46217e-06
3.72316e-05
-3.93385e-06
3.39136e-05
-9.86748e-07
5.15956e-05
-2.50753e-05
0.000135966
-4.85307e-05
0.000151651
-7.67003e-05
0.000154192
-0.000112884
0.000142031
-0.000152786
0.000117802
-0.000196624
8.30276e-05
-0.000246444
1.8548e-05
-0.000254015
-0.000150355
4.79785e-05
-6.31529e-05
5.61019e-05
-2.83405e-05
5.19644e-05
-1.85118e-05
4.74836e-05
-1.07624e-05
4.29397e-05
-5.19091e-06
3.84872e-05
-1.35887e-06
5.84373e-05
-0.000157197
0.000151079
-4.01882e-05
0.000174017
-7.0896e-05
0.0001833
-0.000105808
0.000176697
-0.000147551
0.000156633
-0.000191617
0.000126918
-0.000240514
8.23661e-05
-0.000310262
-3.08614e-05
-0.000223154
-8.28744e-05
6.76999e-05
-3.39098e-05
6.1671e-05
-2.2387e-05
5.58381e-05
-1.33134e-05
5.00327e-05
-6.5931e-06
4.43403e-05
-1.77975e-06
8.30763e-05
-0.000107512
0.000161825
-0.000167943
0.000195213
-6.13849e-05
0.000211488
-9.90837e-05
0.000210584
-0.000139695
0.000194641
-0.000185558
0.000169121
-0.00023382
0.000135916
-0.000294063
6.84086e-05
-0.000409532
8.17615e-05
-0.000304915
-3.95206e-05
7.33127e-05
-2.63872e-05
6.56717e-05
-1.60389e-05
5.8563e-05
-8.15608e-06
5.15948e-05
-2.24599e-06
8.69781e-05
-4.34203e-05
0.000241213
-0.000186898
0.000211246
-0.000183976
0.000239377
-8.92734e-05
0.00024372
-0.00013222
0.000231555
-0.00017661
0.00020904
-0.000225477
0.000183646
-0.000281551
0.000149734
-0.000375389
0.000143703
-0.000471474
0.000197
-0.000501915
-3.01966e-05
7.71241e-05
-1.88345e-05
6.84682e-05
-9.81587e-06
6.0223e-05
-2.76553e-06
8.9864e-05
-3.30806e-05
0.000255168
-5.73741e-05
0.000308942
-0.000284594
0.000257545
-0.000202144
0.000277439
-0.000122992
0.000267465
-0.00016813
0.000246514
-0.000214084
0.000224578
-0.000266409
0.000209338
-0.000341155
0.000225902
-0.000457588
0.00026547
-0.000539945
0.00108984
-0.000278619
-0.00131313
-2.14742e-05
7.97655e-05
-1.1515e-05
7.01684e-05
-3.31647e-06
9.20404e-05
-2.36493e-05
0.000261031
-3.89416e-05
0.000325104
-7.35348e-05
0.000351712
-0.000378761
0.000298725
-0.00022343
0.000304493
-0.00016002
0.000281463
-0.000203079
0.000259647
-0.000249153
0.000250289
-0.000307359
0.000282618
-0.00039787
0.00035207
-0.000544187
0.00090108
-0.00035119
0.00101852
-0.000177649
-0.00111949
-0.00011756
-0.00119557
-1.31252e-05
8.13768e-05
-3.88952e-06
9.34381e-05
-1.45222e-05
0.00026515
-2.77677e-05
0.000326058
-3.98935e-05
0.00037674
-9.85607e-05
0.000361893
-0.000441929
0.000326488
-0.000245425
0.000317234
-0.000195791
0.000288453
-0.000231885
0.000278193
-0.000277057
0.00030688
-0.000331622
0.000387835
-0.000433636
0.000699946
-0.000343053
0.000873286
-0.000205952
0.000989349
-9.4687e-05
-0.00107231
-0.000123148
-0.00111391
-8.14966e-05
-0.00111407
-4.44102e-06
-4.94149e-06
0.000267829
-1.72005e-05
0.000326421
-2.81289e-05
0.000374242
-3.73929e-05
0.000405903
-0.00014257
0.000355085
-0.000470526
0.000335865
-0.000264056
0.00031695
-0.000224288
0.000294857
-0.000248549
0.000313204
-0.000283381
0.000381739
-0.000325525
0.000550105
-0.000283795
0.000714258
-0.000184025
0.000869422
-8.60249e-05
0.00102695
-3.2202e-05
-0.00108944
-9.96815e-05
-0.00109578
-0.000106184
-0.00108922
-6.477e-05
-0.0010493
-5.95292e-06
0.000326948
-1.77267e-05
0.000371049
-2.49333e-05
0.000401551
-3.30352e-05
0.000423803
-0.000211284
0.000336747
-0.000471408
0.000327055
-0.000274161
0.000308723
-0.000238154
0.000308905
-0.00024425
0.00035579
-0.000257432
0.000445275
-0.000220695
0.000575353
-0.000144891
0.000747827
-6.24297e-05
0.000923937
1.69908e-05
0.0010602
4.68456e-05
-0.00113925
-6.9189e-05
-0.00111993
-0.000114462
-0.0010875
-0.000109888
-0.0010441
-6.60463e-05
-0.000983258
-6.29403e-06
0.000369356
-1.60311e-05
0.000394539
-1.79179e-05
0.00041163
-2.08568e-05
0.000418352
-0.000292886
0.000305263
-0.000449616
0.00030441
-0.000269848
0.000299629
-0.000228877
0.000324186
-0.000212646
0.000361377
-0.000173534
0.000467116
-0.000112458
0.000632602
-2.96664e-05
0.00079481
6.66974e-05
0.000950965
0.000126224
0.00117802
9.75076e-05
-0.00122869
-3.97851e-05
-0.00116865
-0.000114064
-0.00112033
-0.00014054
-0.00105685
-0.000121567
-0.00098858
-6.68212e-05
-0.000916437
-5.86887e-06
0.000390091
-1.15808e-05
0.000396986
-3.26858e-06
0.000397206
2.94734e-07
0.000367527
-0.000355146
0.000262296
-0.000407502
0.000275611
-0.000245831
0.000287571
-0.000192263
0.00029313
-0.000144399
0.000376968
-8.33865e-05
0.000520527
-3.8304e-07
0.000658415
0.000106729
0.000833905
0.000183758
0.0010773
0.000226952
0.00116919
1.42055e-05
-0.00127928
1.66215e-05
8.68365e-05
8.99323e-05
-1.73184e-05
-0.00125115
-0.000100994
-0.00118172
-0.000167314
-0.00109355
-0.000173927
-0.00100449
-0.000131289
-0.000924112
-7.37722e-05
-0.000842664
-4.43017e-06
0.000387714
-2.30634e-06
0.000373925
2.00179e-05
0.000346503
2.13243e-05
0.000282005
-0.000374852
0.000215534
-0.000347425
0.000243881
-0.00020214
0.000233229
-0.000132361
0.000298473
-6.59029e-05
0.000411939
2.52016e-05
0.000524871
0.000133161
0.0007115
0.000229133
0.000925343
0.000335712
0.00108634
0.000309796
-6.87106e-06
9.44999e-05
-0.000112589
3.91661e-05
-1.19647e-05
-0.00123986
-2.13207e-05
-9.80757e-06
-1.36403e-05
9.07147e-05
-9.51237e-05
1.41593e-05
-3.67553e-06
0.000109131
7.58809e-05
0.000112788
6.41834e-05
-0.000109086
-0.00124306
-0.000184198
-0.00116484
-0.000232579
-0.0010349
-0.000194569
-0.000941208
-0.000146281
-0.000851603
-7.99391e-05
-0.000762725
-1.36498e-06
0.000359154
1.2469e-05
0.000319123
4.7406e-05
0.000262675
4.06614e-05
0.000185542
-0.000344858
0.000169828
-0.000273373
0.000177577
-0.000146489
0.000227804
-6.16918e-05
0.000311249
3.47875e-05
0.000402209
0.000147864
0.000577937
0.000266723
0.000743187
0.000411289
0.000981893
0.000440163
-0.000118932
-0.000113218
0.000601698
2.69075e-05
2.4724e-05
5.28372e-05
5.76987e-05
-1.04269e-05
-0.00014492
3.07925e-05
6.76766e-06
5.05686e-05
-1.85632e-05
3.93046e-07
-0.00117834
-0.000170606
-0.000131309
4.43771e-06
-9.93641e-06
-0.000170663
2.58728e-05
-0.000164547
9.66157e-06
1.74077e-05
4.08083e-05
-3.72892e-05
8.43614e-06
-9.19141e-07
-2.31908e-05
-0.000195278
-0.00123198
-0.000300308
-0.00109711
-0.000258397
-0.000971076
-0.00021744
-0.000870049
-0.000161007
-0.000770536
-8.60136e-05
-0.000676712
3.61431e-06
0.000301325
3.02733e-05
0.000236321
7.37695e-05
0.00016423
6.19811e-05
9.16697e-05
-0.000266698
0.000101442
-0.000197237
0.000161206
-7.98918e-05
0.00022135
2.82065e-05
0.000290878
0.000146118
0.000435088
0.000290713
0.000547629
0.000462281
0.000842608
0.000550574
0.000720305
5.99495e-05
6.39336e-05
9.8084e-05
9.95893e-05
1.03409e-05
-0.000115214
0.000155255
-2.34751e-05
-0.000115418
0.000170605
-2.01215e-05
5.09746e-06
-8.71635e-05
1.96894e-05
-8.27704e-05
3.0148e-05
-1.19409e-06
4.35967e-06
9.06365e-06
1.6481e-05
-0.000212665
0.000233256
2.42817e-05
-4.6901e-05
3.03134e-05
-4.43732e-05
-0.00112655
-0.00024707
-1.67048e-06
-5.32747e-05
-0.000332179
-7.24177e-06
-2.85391e-05
-3.23731e-05
-5.05381e-05
6.24911e-05
-1.84394e-05
-6.45539e-06
3.50175e-05
1.24225e-05
-0.00022978
0.000244806
2.31152e-05
-4.46331e-05
2.83678e-05
-4.26837e-05
1.66944e-05
1.47911e-05
-4.12423e-05
-5.86753e-06
-4.27046e-05
1.56824e-05
-3.62191e-05
-5.07332e-06
-4.00617e-05
-0.000378969
-0.00115332
-0.000338111
-0.00101739
-0.000286571
-0.000901945
-0.000244264
-0.000786792
-0.000173748
-0.000682801
-9.04949e-05
-0.000586217
9.54621e-06
0.000219011
4.75888e-05
0.000139769
9.82396e-05
6.14618e-05
9.21957e-05
4.7129e-06
-0.000169967
7.06664e-05
-0.000106696
0.00014021
1.24794e-06
0.000192083
0.000127002
0.00029222
0.000288986
0.000366063
0.00047228
0.000655917
0.000648972
0.000734718
0.000123107
0.000119801
0.00014943
0.000143823
2.60304e-06
-4.6258e-05
1.64409e-05
-4.38694e-05
2.76353e-05
1.62639e-07
4.74164e-06
4.69216e-05
2.77042e-06
5.3112e-05
2.87337e-06
-0.000299912
5.60709e-05
0.00012285
-5.69873e-05
5.31671e-05
5.79483e-06
-5.11998e-05
1.64307e-05
0.000127421
-0.000296959
5.42168e-05
0.000121535
5.16376e-05
-5.4175e-05
8.78705e-06
-4.832e-05
1.84863e-05
0.000127544
2.27755e-06
-0.000272328
-3.2723e-05
3.11174e-05
-3.72679e-05
2.86747e-05
-0.000266593
-2.9111e-05
3.37096e-05
-3.39848e-05
3.14453e-05
1.31687e-05
0.000266353
3.37623e-05
-5.44837e-05
3.0256e-05
-4.67367e-05
9.73448e-05
1.97746e-05
2.02892e-06
-0.000103961
9.09444e-06
-2.2558e-05
-7.95117e-05
8.46408e-05
-2.94721e-05
1.91174e-06
9.16918e-05
1.14966e-05
-7.45813e-05
-2.9529e-05
-0.00109016
-0.000415358
-0.000431916
-3.05997e-05
-4.85045e-05
-2.40797e-05
-4.41492e-05
6.32408e-07
-0.00025769
0.000268905
-1.90894e-05
-0.000266347
0.000278345
-3.99047e-05
2.10608e-06
-0.000281428
-1.07413e-05
-0.000293401
-2.13782e-05
0.000279564
3.13647e-05
-5.22283e-05
2.76573e-05
-4.68231e-05
7.22093e-06
3.93676e-05
-3.07417e-05
4.45231e-05
-4.04273e-05
3.63204e-05
-2.99645e-05
4.14299e-05
-4.19791e-05
9.92866e-05
2.06422e-05
-0.000104803
1.00186e-05
-2.28283e-05
-7.93444e-05
8.6069e-05
-2.85293e-05
9.47796e-05
1.1958e-05
-7.3569e-05
-2.78169e-05
-0.000104307
1.39764e-05
1.47552e-06
-3.15277e-07
-2.51855e-05
7.02573e-05
-3.02432e-05
1.07395e-06
-1.3585e-05
-3.30524e-05
-0.000103673
1.46518e-05
1.37545e-06
-2.4635e-05
6.88581e-05
-2.62255e-05
-1.07725e-05
-3.01208e-05
-0.000430045
-0.00106138
-0.000354476
-0.000949488
-0.000331995
-0.000814214
-0.000265606
-0.000694934
-0.000182592
-0.000590704
-9.3902e-05
-0.000492315
1.546e-05
0.000127025
6.0337e-05
4.02601e-05
0.000119448
-2.55607e-05
0.000122474
-6.4065e-05
-3.52351e-05
2.56552e-05
7.85863e-06
0.000101816
9.15153e-05
0.000163083
0.000256139
0.000218211
0.000436837
0.000431703
0.000696494
0.000646403
0.00017114
0.000169668
0.000197536
0.000198944
-9.232e-07
4.04295e-05
8.83421e-05
3.63797e-05
8.52687e-05
-2.99772e-07
6.92448e-05
0.000120915
6.58583e-05
0.000114045
6.71825e-07
-0.000248903
-3.15678e-05
3.05092e-05
-3.5308e-05
2.86906e-05
-0.000243567
-2.77522e-05
3.29934e-05
-3.09179e-05
3.09516e-05
3.29342e-07
-0.000189867
-3.46287e-05
2.77361e-05
-3.51453e-05
2.95979e-05
-0.000188141
-3.09231e-05
2.92362e-05
-3.13723e-05
3.10864e-05
-2.19627e-05
-7.41219e-05
7.79939e-05
-3.88966e-05
-4.41953e-06
6.98691e-05
-4.25257e-05
-6.49509e-05
1.59448e-06
-2.63979e-05
7.36049e-05
-1.71889e-05
-8.07443e-05
-2.73886e-05
3.81544e-07
-7.07845e-05
4.70284e-06
1.12338e-06
0.000116396
-8.112e-06
-4.08855e-06
6.81908e-05
-3.86902e-05
-2.14503e-05
-7.46838e-05
7.82447e-05
-3.62857e-05
-6.53217e-05
7.55495e-05
-2.12964e-05
-1.70371e-05
-8.12892e-05
-2.46775e-05
-7.05117e-05
7.0206e-06
0.000117343
-3.53644e-06
-1.52715e-05
8.25086e-05
-8.4181e-05
-1.57791e-05
7.2399e-05
-5.05659e-07
-7.31906e-05
1.71425e-05
-1.63554e-05
-1.91482e-05
-1.2292e-07
1.40743e-05
-1.45885e-05
8.2957e-05
-8.46078e-05
-1.28717e-05
7.15303e-05
-7.19045e-05
1.89895e-05
-1.60388e-05
-1.62782e-05
1.6302e-05
-8.39084e-05
1.99968e-05
1.55835e-06
7.94343e-05
1.66812e-05
-2.12926e-05
8.38706e-05
-3.24209e-05
1.66304e-06
1.50836e-05
8.61986e-05
-2.90681e-05
0.000114958
1.38468e-05
1.12685e-06
-0.000118011
-2.82635e-06
-1.91457e-05
-7.3357e-05
7.88291e-05
-1.57986e-05
8.9569e-07
0.000107921
-1.51711e-06
-6.90903e-05
-1.9949e-05
-0.00101997
-0.000500242
-0.000531601
-9.40414e-05
-9.35563e-05
-5.95117e-05
-6.85628e-05
1.48122e-06
-0.000268
0.000260848
-2.4929e-05
-0.000277826
0.00026778
-3.69776e-05
1.03381e-06
-2.42085e-05
-4.25969e-05
4.77755e-06
-0.000289018
0.000314747
-5.25162e-05
2.72597e-05
-4.96867e-05
2.53288e-05
-0.000300753
0.000322423
-5.37888e-05
2.45696e-05
-5.09595e-05
2.33809e-05
3.77737e-06
-0.000114725
-4.05825e-05
-1.03871e-05
-0.000118002
3.03658e-05
-3.70955e-05
3.00679e-05
-4.31872e-05
-0.000117946
-4.42524e-05
-1.0055e-05
-0.000121288
2.98128e-05
-3.72913e-05
2.93613e-05
-4.66955e-05
-8.78419e-05
2.12932e-05
8.35934e-05
1.58782e-05
-2.17768e-05
8.61016e-05
-3.04842e-05
1.44811e-05
8.88074e-05
-2.82359e-05
6.8768e-05
2.4864e-05
1.00116e-06
2.41687e-05
-4.08926e-05
-9.1601e-05
-1.29728e-05
2.20101e-07
3.15868e-05
-2.09659e-05
7.30903e-05
2.52163e-05
2.26082e-05
-4.0317e-05
-9.43856e-05
-1.32081e-05
3.01708e-05
-2.23409e-05
0.000116271
1.37082e-05
-0.000119265
4.30918e-07
-1.87753e-05
-7.36768e-05
7.9528e-05
-1.56052e-05
0.000109233
1.11679e-06
-6.78109e-05
-1.99747e-05
2.58926e-06
1.5374e-06
-6.04662e-06
-2.96844e-05
2.40315e-06
-1.41255e-06
-2.73377e-05
-0.000426056
-0.000989805
-0.000428001
-0.000853482
-0.000366589
-0.000713231
-0.000278195
-0.000599332
-0.000189099
-0.000495507
-9.63277e-05
-0.000395987
2.02166e-05
3.27853e-05
6.78156e-05
-2.98985e-05
0.000123791
-9.38104e-05
0.000152223
-0.000153456
0.000143878
-3.76556e-05
0.00014733
4.7405e-05
0.000207193
9.65141e-05
0.000377836
0.000194632
0.000673909
0.000452952
0.000209826
0.000208638
0.00023602
0.00023546
-1.17211e-07
8.081e-05
0.000159692
7.98095e-05
0.0001556
-1.00808e-06
8.64325e-05
0.000192921
8.67553e-05
0.00019099
1.04674e-06
-0.000133997
-2.44602e-05
3.57328e-05
-1.65356e-05
3.67088e-05
-0.000138852
-2.17946e-05
3.63262e-05
-1.43622e-05
3.68528e-05
1.18947e-06
-8.77946e-05
5.1613e-06
3.30714e-05
-6.1208e-06
4.1395e-05
-9.72044e-05
5.23468e-06
3.17164e-05
-4.09953e-06
4.07205e-05
-1.45595e-05
-8.59761e-05
-1.52132e-05
-7.42194e-05
-8.65552e-07
1.78526e-05
-1.43571e-05
-8.74789e-05
-1.94454e-05
-1.26888e-06
-7.51157e-05
1.65182e-05
-1.36081e-05
-8.62559e-05
-1.2496e-05
-7.27294e-05
1.93445e-05
-1.29028e-05
-8.72831e-05
-1.69879e-05
-7.36462e-05
1.7691e-05
-1.07527e-05
8.23167e-05
-7.5237e-05
-3.09582e-05
7.01944e-05
-1.39607e-06
-6.76258e-05
1.58223e-05
-1.26218e-05
-2.76885e-05
-1.35297e-06
1.3397e-05
-9.70352e-06
8.17957e-05
-7.47094e-05
-2.83058e-05
6.9634e-05
-6.77911e-05
1.62983e-05
-1.14867e-05
-2.5373e-05
1.42402e-05
-1.42819e-05
5.8164e-05
-5.42822e-06
-2.81473e-05
-2.65227e-05
1.80272e-07
2.68866e-06
5.81592e-05
-9.9445e-06
-4.18173e-05
4.15725e-07
-3.60165e-05
-1.31542e-05
5.91016e-05
-5.24375e-06
-2.79786e-05
5.86183e-05
-2.69235e-05
-9.6395e-06
-4.10719e-05
-3.57348e-05
-1.03494e-05
4.53897e-05
-4.87136e-05
3.94831e-05
3.75738e-07
-4.30948e-05
-1.11696e-05
7.30859e-07
-9.8398e-06
4.46148e-05
-4.79526e-05
3.90808e-05
-4.24519e-05
-1.0669e-05
-0.00010199
2.25111e-05
1.19409e-06
9.46112e-05
3.62663e-07
-2.10035e-05
8.13437e-05
-1.3932e-05
9.5797e-07
-9.38833e-07
8.4522e-05
-9.73571e-06
4.48922e-05
7.93779e-06
1.843e-06
-4.80809e-05
-7.50428e-06
-4.60342e-05
4.40841e-05
1.29943e-06
4.2693e-05
-4.83046e-05
-0.000972784
-0.000473237
-0.000584408
-0.000124755
-0.000116905
-0.000111205
-9.45707e-05
2.65247e-06
-0.000250377
0.000228751
-7.50677e-05
-0.000254275
0.000230622
-6.7251e-05
2.93707e-06
-5.19777e-05
-5.21199e-05
4.86002e-06
-0.000325385
0.000316238
-4.99714e-05
4.13585e-05
-4.9025e-05
3.69819e-05
-0.000327194
0.000311308
-4.71579e-05
4.10436e-05
-4.65734e-05
3.64673e-05
4.03308e-06
-5.14913e-05
2.74099e-05
-4.81718e-05
3.33536e-05
-5.22143e-05
2.5299e-05
-4.79325e-05
3.15075e-05
-2.64875e-05
-8.81481e-05
8.8594e-05
-2.64747e-05
-7.89091e-05
-1.1944e-06
8.25591e-05
-1.65492e-06
-2.46353e-05
-8.79346e-05
-2.5265e-05
-4.24446e-07
-7.62399e-05
-1.55139e-06
-2.61019e-05
-8.91396e-05
8.85305e-05
-2.70778e-05
-8.01885e-05
8.38161e-05
-6.35451e-06
-2.39822e-05
-8.96838e-05
-2.64331e-05
-7.84857e-05
-2.72871e-06
-1.77106e-05
8.7234e-05
-8.69047e-05
6.99414e-06
-4.29963e-05
-9.3679e-05
5.70063e-06
7.32087e-05
-1.19906e-07
1.93513e-05
-7.97644e-05
-2.25061e-05
-1.529e-05
-3.92659e-07
4.92318e-06
6.8864e-07
-7.92117e-05
2.3916e-05
-1.71716e-05
8.89593e-05
-8.87385e-05
6.89586e-06
-4.38324e-05
-9.57631e-05
5.09951e-06
7.50988e-05
1.86231e-05
-8.12008e-05
-2.2036e-05
-1.59799e-05