/*--------------------------------*- C++ -*----------------------------------*\
| =========                 |                                                 |
| \\      /  F ield         | OpenFOAM: The Open Source CFD Toolbox           |
|  \\    /   O peration     | Version:  5.x                                   |
|   \\  /    A nd           | Web:      www.OpenFOAM.org                      |
|    \\/     M anipulation  |                                                 |
\*---------------------------------------------------------------------------*/
FoamFile
{
    version     2.0;
    format      ascii;
    class       volScalarField;
    location    "0.5";
    object      rAU;
}
// * * * * * * * * * * * * * * * * * * * * * * * * * * * * * * * * * * * * * //

dimensions      [-1 3 1 0 0 0 0];

internalField   nonuniform List<scalar> 
12160
(
2.31849e-06
2.31847e-06
2.31837e-06
2.32217e-06
2.31816e-06
2.31824e-06
2.32438e-06
2.32208e-06
2.31779e-06
2.31811e-06
2.32435e-06
2.32434e-06
2.32207e-06
2.31751e-06
2.31788e-06
2.32562e-06
2.32431e-06
2.3243e-06
2.32106e-06
2.31722e-06
2.31762e-06
2.32555e-06
2.32562e-06
2.32427e-06
2.32365e-06
2.31963e-06
2.31725e-06
2.3171e-06
2.32525e-06
2.32555e-06
2.32562e-06
2.32408e-06
2.32348e-06
2.31932e-06
2.31715e-06
2.31668e-06
2.3253e-06
2.32525e-06
2.32561e-06
2.32562e-06
2.32391e-06
2.32222e-06
2.31901e-06
2.31797e-06
3.54583e-06
2.32534e-06
2.3253e-06
2.32561e-06
2.32561e-06
2.32562e-06
2.32245e-06
2.32237e-06
2.31923e-06
3.30696e-06
8.19389e-05
2.32538e-06
2.32534e-06
2.3256e-06
2.32561e-06
2.32561e-06
2.32432e-06
2.32261e-06
2.321e-06
3.37529e-06
2.61788e-05
0.00216248
2.32542e-06
2.32538e-06
2.3256e-06
2.3256e-06
2.32561e-06
2.32444e-06
2.32432e-06
2.32025e-06
3.69239e-06
2.24778e-05
0.00147282
0.00231993
2.32545e-06
2.32542e-06
2.32559e-06
2.3256e-06
2.3256e-06
2.32457e-06
2.32148e-06
2.32184e-06
4.30372e-06
2.49948e-05
0.00108409
0.00231649
0.00231948
2.32548e-06
2.32545e-06
2.32559e-06
2.32559e-06
2.3256e-06
2.32469e-06
2.322e-06
2.31918e-06
5.30218e-06
3.76474e-05
0.000874016
0.0023205
0.00232007
0.00232249
2.3255e-06
2.32548e-06
2.32559e-06
2.32559e-06
2.32559e-06
2.32483e-06
2.32254e-06
2.32006e-06
6.72819e-06
6.88657e-05
0.0012031
0.00231899
0.00232552
0.00232297
0.002312
2.32552e-06
2.3255e-06
2.32558e-06
2.32559e-06
2.32559e-06
2.32496e-06
2.32308e-06
2.32099e-06
8.73338e-06
0.000140284
0.00181974
0.0023213
0.00232436
0.00232553
0.00230571
2.32553e-06
2.32552e-06
2.32558e-06
2.32558e-06
2.32559e-06
2.32508e-06
2.32356e-06
2.32186e-06
1.14853e-05
0.000291798
0.00218554
0.00232501
0.00232094
0.0023244
0.00231709
2.32554e-06
2.32553e-06
2.32558e-06
2.32558e-06
2.32558e-06
2.32519e-06
2.32397e-06
2.32261e-06
1.52447e-05
0.000584417
0.00229181
0.00232551
0.00232533
0.00232101
0.00232443
2.32555e-06
2.32554e-06
2.32558e-06
2.32558e-06
2.32558e-06
2.32527e-06
2.32432e-06
2.32325e-06
2.0343e-05
0.00103434
0.00231599
0.00232555
0.00232554
0.00232536
0.00232165
2.32555e-06
2.32555e-06
2.32558e-06
2.32558e-06
2.32558e-06
2.32534e-06
2.3246e-06
2.32376e-06
2.72221e-05
0.00152386
0.00232122
0.00232555
0.00232554
0.00232547
0.00232037
2.32556e-06
2.32555e-06
2.32558e-06
2.32558e-06
2.32558e-06
2.3254e-06
2.32482e-06
2.32417e-06
3.64442e-05
0.00191043
0.00232308
0.00232555
0.00232554
0.00232548
0.00232017
2.32557e-06
2.32556e-06
2.32558e-06
2.32558e-06
2.32558e-06
2.32544e-06
2.32499e-06
2.32449e-06
4.87242e-05
0.00213251
0.00232552
0.00232555
0.00232554
0.00232554
0.00232057
2.32558e-06
2.32557e-06
2.32558e-06
2.32558e-06
2.32558e-06
2.32547e-06
2.32512e-06
2.32474e-06
6.49452e-05
0.00223976
0.00232554
0.00232555
0.00232554
0.00232554
0.00232124
2.32558e-06
2.32558e-06
2.32558e-06
2.32558e-06
2.32558e-06
2.32549e-06
2.32523e-06
2.32493e-06
8.61574e-05
0.00228756
0.00232554
0.00232554
0.00232554
0.00232554
0.00232193
2.32558e-06
2.32558e-06
2.32558e-06
2.32558e-06
2.32558e-06
2.32551e-06
2.3253e-06
2.32507e-06
0.00011353
0.00230825
0.00232554
0.00232554
0.00232554
0.00232554
0.00232261
2.32558e-06
2.32558e-06
2.32558e-06
2.32558e-06
2.32558e-06
2.32552e-06
2.32536e-06
2.32518e-06
0.000148199
0.00231725
0.00232554
0.00232554
0.00232554
0.00232554
0.00232322
2.32558e-06
2.32558e-06
2.32558e-06
2.32558e-06
2.32558e-06
2.32552e-06
2.32539e-06
2.32526e-06
0.000190966
0.00232121
0.00232499
0.00232554
0.00232554
0.00232554
0.00232373
2.32556e-06
2.32558e-06
2.32558e-06
2.32558e-06
2.32558e-06
2.32553e-06
2.32542e-06
2.32532e-06
0.000241666
0.00232301
0.00232503
0.00232454
0.00232554
0.00232554
0.00232414
2.32555e-06
2.32556e-06
2.32558e-06
2.32558e-06
2.32558e-06
2.32553e-06
2.32544e-06
2.32537e-06
0.000298344
0.00232384
0.00232507
0.00232447
0.00232509
0.00232554
0.00232445
2.32555e-06
2.32555e-06
2.32558e-06
2.32558e-06
2.32558e-06
2.32553e-06
2.32544e-06
2.32539e-06
0.00035607
0.00232424
0.00232508
0.00232457
0.00232441
0.00232554
0.00232468
2.32554e-06
2.32555e-06
2.32558e-06
2.32558e-06
2.32558e-06
2.32553e-06
2.32544e-06
2.3254e-06
0.000406674
0.00232393
0.00232505
0.00232461
0.00232452
0.00232496
0.00232484
2.32553e-06
2.32554e-06
2.32558e-06
2.32558e-06
2.32558e-06
2.32553e-06
2.32544e-06
2.32541e-06
0.000440285
0.00232395
0.00232454
0.00232459
0.00232456
0.00232501
0.00232495
2.32552e-06
2.32554e-06
2.32558e-06
2.32558e-06
2.32558e-06
2.32552e-06
2.32543e-06
2.3254e-06
0.000449114
0.00232392
0.00232446
0.00232454
0.00232456
0.00232497
0.00232501
2.32551e-06
2.32552e-06
2.32558e-06
2.32558e-06
2.32558e-06
2.32552e-06
2.32541e-06
2.32538e-06
0.000431721
0.00232402
0.00232439
0.00232447
0.00232452
0.00232454
0.00232497
2.3255e-06
2.32551e-06
2.32557e-06
2.32558e-06
2.32558e-06
2.32551e-06
2.32538e-06
2.32534e-06
0.000393573
0.00232391
0.00232437
0.00232442
0.00232448
0.00232451
0.00232455
2.32548e-06
2.32549e-06
2.32557e-06
2.32557e-06
2.32558e-06
2.32549e-06
2.32534e-06
2.3253e-06
0.000343867
0.00232392
0.00232439
0.0023244
0.00232444
0.00232448
0.00232453
2.32546e-06
2.32548e-06
2.32557e-06
2.32557e-06
2.32557e-06
2.32547e-06
2.32529e-06
2.32524e-06
0.000291191
0.00232388
0.00232442
0.00232442
0.00232442
0.00232444
0.0023245
2.32544e-06
2.32546e-06
2.32557e-06
2.32557e-06
2.32557e-06
2.32545e-06
2.32523e-06
2.32516e-06
0.000241416
0.00232419
0.00232448
0.00232446
0.00232443
0.00232443
0.00232447
2.32541e-06
2.32544e-06
2.32557e-06
2.32557e-06
2.32557e-06
2.32542e-06
2.32515e-06
2.32507e-06
0.000197525
0.00232383
0.00232503
0.0023245
0.00232446
0.00232444
0.00232445
2.32582e-06
2.32541e-06
2.32557e-06
2.32557e-06
2.32557e-06
2.32538e-06
2.32505e-06
2.32495e-06
0.000160377
0.00232317
0.00232505
0.00232454
0.00232449
0.00232445
0.00232446
2.32582e-06
2.32552e-06
2.32556e-06
2.32557e-06
2.32557e-06
2.32534e-06
2.32493e-06
2.32481e-06
0.000129732
0.00232194
0.00232503
0.00232454
0.0023245
0.00232447
0.00232447
2.32598e-06
2.32552e-06
2.32521e-06
2.32556e-06
2.32557e-06
2.32529e-06
2.3248e-06
2.32464e-06
0.000104838
0.00231967
0.00232499
0.0023245
0.00232449
0.00232501
0.00232448
2.32596e-06
2.32573e-06
2.32521e-06
2.32509e-06
2.32557e-06
2.32523e-06
2.32463e-06
2.32444e-06
8.47967e-05
0.00231547
0.00232493
0.00232442
0.00232444
0.002325
0.00232501
2.32593e-06
2.32572e-06
2.32551e-06
2.3251e-06
2.32496e-06
2.32516e-06
2.32445e-06
2.3242e-06
6.87369e-05
0.00230776
0.00232531
0.00232493
0.00232471
0.00232497
0.002325
2.32542e-06
2.32571e-06
2.32551e-06
2.32548e-06
2.32497e-06
2.32538e-06
2.32423e-06
2.32393e-06
5.58925e-05
0.0022937
0.00232552
0.00232531
0.00232553
0.00232529
0.00232497
2.32429e-06
2.3251e-06
2.32552e-06
2.32548e-06
2.32544e-06
2.32538e-06
2.32532e-06
2.32361e-06
4.56208e-05
0.0022684
0.00232552
0.00232552
0.00232552
0.00232553
0.00232491
2.32348e-06
2.32368e-06
2.32472e-06
2.32549e-06
2.32544e-06
2.32539e-06
2.32531e-06
2.3212e-06
3.73942e-05
0.00222421
0.00232551
0.00232552
0.00232552
0.00232553
0.00232483
3.08208e-05
2.32268e-06
2.32277e-06
2.3245e-06
2.32545e-06
2.32539e-06
2.32532e-06
2.32507e-06
2.31647e-06
0.00214911
0.00232551
0.00232552
0.00232552
0.00232552
0.00232472
0.00201671
2.29089e-05
2.32139e-06
2.32194e-06
2.3243e-06
2.3254e-06
2.32533e-06
2.32508e-06
2.3233e-06
2.31815e-06
0.00232551
0.00232551
0.00232552
0.00232552
0.00232458
0.00232591
0.00171272
1.52793e-05
2.32004e-06
2.3211e-06
2.32412e-06
2.32534e-06
2.32525e-06
2.32386e-06
2.31653e-06
2.30771e-06
0.00232551
0.00232552
0.00232552
0.0023244
0.00232583
0.00232406
0.00104761
1.0641e-05
2.31863e-06
2.32033e-06
2.32398e-06
2.32527e-06
2.32515e-06
2.32215e-06
2.29867e-06
2.27982e-06
0.00232552
0.00232552
0.00232418
0.00232574
0.00232566
0.00232113
0.000498722
7.75785e-06
2.3173e-06
2.31966e-06
2.324e-06
2.32518e-06
2.32503e-06
2.30392e-06
2.30707e-06
2.30965e-06
2.28689e-06
0.00232552
0.00232393
0.00232566
0.00232563
0.00232551
0.00231356
0.000220139
5.92198e-06
2.31617e-06
2.31921e-06
2.32482e-06
2.3251e-06
2.31257e-06
2.31257e-06
2.32535e-06
2.30461e-06
2.30026e-06
2.31534e-06
0.00232364
0.00232337
0.00232559
0.00232552
0.0023255
0.00227324
0.00010359
4.73078e-06
2.31524e-06
2.31954e-06
2.32516e-06
2.32301e-06
2.31801e-06
2.32351e-06
2.32096e-06
2.32558e-06
2.2784e-06
2.31564e-06
2.32559e-06
0.00232278
0.00232553
0.00232551
0.0023255
0.00211441
5.50102e-05
3.93881e-06
2.3144e-06
2.31919e-06
2.32467e-06
2.32261e-06
2.32491e-06
2.32558e-06
2.32558e-06
2.32558e-06
2.32542e-06
2.29386e-06
2.32558e-06
2.32558e-06
0.00232188
0.00232552
0.00232552
0.00232545
0.00172144
3.30292e-05
3.41745e-06
2.3134e-06
2.32374e-06
2.3247e-06
2.32558e-06
2.32558e-06
2.32558e-06
2.32558e-06
2.32482e-06
2.32429e-06
2.32558e-06
2.32558e-06
2.32558e-06
2.32558e-06
0.00232107
0.00232551
0.00232553
0.00232509
0.00118202
2.21367e-05
3.0756e-06
2.31775e-06
2.32486e-06
2.32558e-06
2.32558e-06
2.32558e-06
2.32557e-06
2.32315e-06
2.31405e-06
2.32316e-06
2.32282e-06
2.32558e-06
2.32559e-06
2.32559e-06
2.32558e-06
0.00232039
0.00232552
0.0023255
0.00232121
0.000755448
1.6334e-05
2.85697e-06
2.32493e-06
2.32558e-06
2.32558e-06
2.32558e-06
2.32557e-06
2.31896e-06
2.30808e-06
2.30277e-06
2.31942e-06
2.30758e-06
2.26227e-06
2.26075e-06
2.32284e-06
2.32062e-06
2.32558e-06
2.32559e-06
2.32559e-06
2.32558e-06
0.00232002
0.00232546
0.00232375
0.00231415
0.000504182
1.31924e-05
2.74712e-06
2.32558e-06
2.32558e-06
2.32558e-06
2.32557e-06
2.31899e-06
2.30748e-06
2.30789e-06
2.28986e-06
2.31026e-06
2.32054e-06
2.29623e-06
2.28841e-06
2.30003e-06
2.3083e-06
2.2971e-06
2.2999e-06
2.32064e-06
2.31751e-06
2.32559e-06
2.32559e-06
2.32559e-06
2.32558e-06
0.00232006
0.00232369
0.00232132
0.00230631
0.000379432
1.16594e-05
2.70161e-06
2.32558e-06
2.32558e-06
2.32558e-06
2.32012e-06
2.3046e-06
2.30994e-06
2.31019e-06
2.30941e-06
2.31695e-06
2.31571e-06
2.31644e-06
2.29707e-06
2.31718e-06
2.32064e-06
2.30095e-06
2.3185e-06
2.29972e-06
2.29462e-06
2.305e-06
2.30766e-06
2.31754e-06
2.32202e-06
2.32559e-06
2.32559e-06
2.32559e-06
2.32558e-06
0.00232056
0.00232129
0.00232286
0.00230093
0.000332519
1.11228e-05
2.68977e-06
2.32558e-06
2.32558e-06
2.32355e-06
2.32011e-06
2.3051e-06
2.3201e-06
2.32076e-06
2.32253e-06
2.32314e-06
2.22466e-06
2.23055e-06
2.26353e-06
2.26565e-06
2.25385e-06
2.24319e-06
2.16749e-06
2.22757e-06
2.10137e-06
2.29043e-06
2.31829e-06
2.26553e-06
2.29429e-06
2.31947e-06
2.2988e-06
2.2486e-06
2.25538e-06
2.25286e-06
2.24271e-06
2.21568e-06
2.23044e-06
2.15162e-06
2.2608e-06
2.10692e-06
2.07979e-06
2.13638e-06
2.26791e-06
2.11243e-06
2.09093e-06
2.13196e-06
2.32203e-06
2.32559e-06
2.32559e-06
2.32559e-06
2.32559e-06
2.32558e-06
0.00232168
0.00232282
0.00232498
0.00230412
0.000330035
1.12316e-05
2.73151e-06
2.32558e-06
2.32557e-06
2.32354e-06
2.3132e-06
2.31101e-06
2.31202e-06
2.3132e-06
2.31134e-06
2.29556e-06
2.29528e-06
2.29877e-06
2.30044e-06
2.09732e-06
2.04978e-06
2.04101e-06
2.17104e-06
2.03989e-06
2.15305e-06
2.06353e-06
2.09239e-06
2.04002e-06
2.17722e-06
2.03623e-06
2.15637e-06
2.21769e-06
2.10818e-06
2.19628e-06
2.11244e-06
2.23078e-06
2.1037e-06
2.20939e-06
2.10494e-06
2.18393e-06
2.0993e-06
2.19877e-06
2.04898e-06
2.24886e-06
2.29148e-06
2.28146e-06
2.21806e-06
2.29862e-06
2.31423e-06
2.26536e-06
2.23928e-06
2.21838e-06
2.25205e-06
2.28896e-06
2.28508e-06
2.24242e-06
2.24032e-06
2.17867e-06
2.21637e-06
2.1947e-06
2.14037e-06
2.10555e-06
2.02927e-06
2.03859e-06
2.11789e-06
2.10643e-06
2.00895e-06
2.03961e-06
2.08133e-06
2.22839e-06
2.28975e-06
2.27735e-06
2.20499e-06
2.11221e-06
2.09868e-06
2.09723e-06
2.10142e-06
2.32559e-06
2.32559e-06
2.32559e-06
2.32559e-06
2.32559e-06
2.32558e-06
0.00232313
0.00232481
0.00232534
0.00230788
0.000381385
1.24642e-05
2.82708e-06
2.32557e-06
2.32555e-06
2.31102e-06
2.27485e-06
2.27739e-06
2.29785e-06
2.30315e-06
2.30088e-06
2.30775e-06
2.31862e-06
2.32191e-06
2.24306e-06
2.11499e-06
2.24158e-06
2.22214e-06
2.25016e-06
2.11111e-06
2.25012e-06
2.20751e-06
2.20986e-06
2.14268e-06
2.24832e-06
2.23143e-06
2.21747e-06
2.14131e-06
2.25583e-06
2.21896e-06
2.14965e-06
1.98573e-06
2.12837e-06
2.13477e-06
2.06709e-06
2.14615e-06
2.13885e-06
1.99429e-06
2.14363e-06
2.09074e-06
2.09086e-06
2.11613e-06
2.12466e-06
2.24792e-06
2.17122e-06
2.19301e-06
2.13332e-06
2.23683e-06
2.20867e-06
2.17203e-06
2.21332e-06
2.28018e-06
2.25453e-06
2.262e-06
2.29738e-06
2.28139e-06
2.30794e-06
2.26481e-06
2.32559e-06
2.3009e-06
2.28831e-06
2.27964e-06
2.29602e-06
2.27369e-06
2.25703e-06
2.22448e-06
2.28733e-06
2.28438e-06
2.16567e-06
2.23249e-06
2.16355e-06
2.23676e-06
2.16516e-06
2.23523e-06
2.16764e-06
2.2417e-06
2.18301e-06
2.04432e-06
2.17206e-06
2.19901e-06
2.2245e-06
2.06687e-06
2.18639e-06
2.04158e-06
2.16684e-06
2.20826e-06
2.23072e-06
2.06424e-06
2.18242e-06
2.28615e-06
2.24543e-06
2.26386e-06
2.13066e-06
2.20448e-06
2.10973e-06
2.20556e-06
2.30306e-06
2.27515e-06
2.2999e-06
2.26129e-06
2.28399e-06
2.23845e-06
2.29878e-06
2.23734e-06
2.32558e-06
2.32559e-06
2.32559e-06
2.32559e-06
2.32559e-06
2.32558e-06
0.00232494
0.00232575
0.0023231
0.00231007
0.000552726
1.57189e-05
3.04819e-06
2.32316e-06
2.32361e-06
2.27001e-06
2.2686e-06
2.3072e-06
2.3065e-06
2.31491e-06
2.31563e-06
2.32483e-06
2.32485e-06
2.23494e-06
2.11325e-06
2.26331e-06
2.10411e-06
2.2429e-06
2.07704e-06
2.26998e-06
2.06681e-06
2.25441e-06
2.19041e-06
2.26508e-06
2.14876e-06
2.25717e-06
2.2123e-06
2.26892e-06
2.16043e-06
2.15267e-06
2.25435e-06
2.29583e-06
2.27249e-06
2.15175e-06
2.24432e-06
2.29364e-06
2.26544e-06
2.21743e-06
2.26818e-06
2.3142e-06
2.30792e-06
2.22211e-06
2.26051e-06
2.31484e-06
2.30403e-06
2.09854e-06
2.2856e-06
2.18857e-06
2.27931e-06
2.31891e-06
2.30954e-06
2.26736e-06
2.27033e-06
2.28871e-06
2.29174e-06
2.17996e-06
2.19096e-06
2.18837e-06
2.16123e-06
2.16862e-06
2.07815e-06
2.155e-06
2.20874e-06
2.16924e-06
2.08155e-06
2.15393e-06
2.21292e-06
2.04998e-06
2.11156e-06
2.06413e-06
2.1043e-06
2.11156e-06
2.11117e-06
2.12671e-06
2.10943e-06
2.23076e-06
2.17258e-06
2.20836e-06
2.1483e-06
2.20988e-06
2.25785e-06
2.21244e-06
2.27491e-06
2.15098e-06
2.29764e-06
2.07613e-06
2.20285e-06
2.22549e-06
2.21291e-06
2.15675e-06
2.30349e-06
2.11076e-06
2.20688e-06
2.23428e-06
2.24873e-06
2.11585e-06
2.28095e-06
2.20475e-06
2.26237e-06
2.20047e-06
2.23457e-06
2.19899e-06
2.2115e-06
2.32559e-06
2.32558e-06
2.32558e-06
2.32559e-06
2.32559e-06
2.32558e-06
0.00232183
0.00232552
0.0023211
0.00230539
0.000999507
2.55324e-05
3.56867e-06
2.32634e-06
2.3265e-06
2.31149e-06
2.31124e-06
2.32249e-06
2.32249e-06
2.29507e-06
2.29647e-06
2.32568e-06
2.32604e-06
2.24619e-06
2.25859e-06
2.27928e-06
2.13581e-06
2.25256e-06
2.25117e-06
2.28362e-06
2.12131e-06
2.266e-06
2.17842e-06
2.24608e-06
2.07832e-06
2.25172e-06
2.1806e-06
2.23344e-06
2.06318e-06
2.07216e-06
2.21674e-06
2.09169e-06
2.21784e-06
2.31893e-06
2.30916e-06
2.30651e-06
2.30922e-06
2.2911e-06
2.29475e-06
2.29242e-06
2.30438e-06
2.27626e-06
2.27894e-06
1.96368e-06
2.04584e-06
1.98757e-06
2.11815e-06
1.97546e-06
2.0462e-06
1.99976e-06
2.1179e-06
2.14647e-06
2.06414e-06
2.03074e-06
2.17713e-06
2.16735e-06
2.07102e-06
2.04844e-06
2.18407e-06
2.23666e-06
2.11787e-06
2.19239e-06
2.17181e-06
2.16551e-06
2.11967e-06
2.17127e-06
2.09298e-06
2.25353e-06
2.20868e-06
2.25192e-06
2.18866e-06
2.21599e-06
2.20878e-06
2.22657e-06
2.09226e-06
2.32559e-06
2.32558e-06
2.32558e-06
2.32559e-06
2.32559e-06
2.32558e-06
0.00231428
0.00232552
0.00231884
0.00231134
0.00186336
5.86847e-05
4.99266e-06
2.47028e-06
2.30292e-06
2.30362e-06
2.3502e-06
2.35063e-06
2.31781e-06
2.32013e-06
2.3054e-06
2.30768e-06
2.14115e-06
2.16373e-06
2.15097e-06
2.29513e-06
2.14573e-06
2.17178e-06
2.15265e-06
2.30591e-06
2.21954e-06
2.28522e-06
2.19847e-06
2.30567e-06
2.22271e-06
2.28168e-06
2.19851e-06
2.30672e-06
2.22329e-06
2.34037e-06
2.27268e-06
2.23991e-06
2.24565e-06
2.34074e-06
2.26834e-06
2.24249e-06
2.17887e-06
2.20219e-06
2.28401e-06
2.3198e-06
2.18141e-06
2.20447e-06
2.27707e-06
2.32156e-06
2.3256e-06
2.31096e-06
2.30878e-06
2.26345e-06
2.23822e-06
2.30769e-06
2.28564e-06
2.22707e-06
2.19087e-06
2.20458e-06
2.19767e-06
2.07025e-06
2.11346e-06
2.16497e-06
2.10204e-06
2.06996e-06
2.10653e-06
2.13991e-06
2.08216e-06
2.2624e-06
2.10629e-06
2.18857e-06
2.13217e-06
2.20079e-06
2.08604e-06
2.16585e-06
2.10753e-06
2.31917e-06
2.2779e-06
2.33781e-06
2.29263e-06
2.32559e-06
2.32558e-06
2.32559e-06
2.32559e-06
2.32558e-06
2.32558e-06
0.00230863
0.00232487
0.00232087
0.00230183
0.00227239
0.000194324
1.08128e-05
3.71593e-06
2.30528e-06
2.30054e-06
2.42749e-06
2.42768e-06
2.32813e-06
2.25247e-06
2.33541e-06
2.33193e-06
2.33019e-06
2.2518e-06
2.32848e-06
2.33737e-06
2.33453e-06
2.32883e-06
2.25239e-06
2.31698e-06
2.18903e-06
2.28179e-06
2.25262e-06
2.31882e-06
2.18742e-06
2.28249e-06
2.23282e-06
2.28844e-06
2.18678e-06
2.31346e-06
2.24212e-06
2.28294e-06
2.22017e-06
2.31782e-06
2.12367e-06
1.98642e-06
2.12319e-06
1.99826e-06
2.32559e-06
2.32452e-06
2.31004e-06
2.29161e-06
2.28e-06
2.27605e-06
2.2591e-06
2.24305e-06
2.24338e-06
2.25021e-06
2.21347e-06
2.20711e-06
1.98506e-06
2.19025e-06
2.09576e-06
2.19756e-06
2.07623e-06
2.18686e-06
2.18969e-06
2.22774e-06
2.14917e-06
2.15302e-06
2.17338e-06
2.21682e-06
2.14397e-06
2.14778e-06
2.18597e-06
2.15393e-06
2.14552e-06
2.13134e-06
2.1429e-06
2.18128e-06
2.18976e-06
2.15583e-06
2.13887e-06
2.26657e-06
2.09612e-06
2.18169e-06
2.05631e-06
2.28037e-06
2.12554e-06
2.19892e-06
2.07282e-06
2.32559e-06
2.32559e-06
2.32559e-06
2.32558e-06
2.32558e-06
0.00229977
0.00232485
0.00230849
0.0022967
0.00228089
0.000811276
5.55476e-05
5.05714e-06
5.05767e-06
1.06922e-05
1.07503e-05
2.49001e-06
2.18937e-06
2.55286e-06
2.29436e-06
2.46198e-06
2.18695e-06
2.54762e-06
2.29333e-06
2.96947e-06
2.96982e-06
2.28993e-06
2.24166e-06
2.25663e-06
2.28803e-06
2.2872e-06
2.27713e-06
2.25772e-06
2.28812e-06
2.39992e-06
2.24558e-06
2.3692e-06
2.23468e-06
2.391e-06
2.25088e-06
2.37022e-06
2.23463e-06
2.24974e-06
2.24569e-06
2.32703e-06
2.1073e-06
2.22945e-06
2.25169e-06
2.3129e-06
2.09869e-06
2.32559e-06
2.32448e-06
2.31834e-06
2.28934e-06
2.26251e-06
2.26382e-06
2.23289e-06
2.23284e-06
2.18839e-06
2.18539e-06
1.97883e-06
2.1054e-06
2.05038e-06
1.9761e-06
2.01029e-06
2.09428e-06
2.03553e-06
1.99294e-06
2.11802e-06
2.13439e-06
2.13973e-06
2.14539e-06
2.11538e-06
2.22064e-06
2.15581e-06
2.19358e-06
2.09443e-06
2.23908e-06
2.17026e-06
2.11478e-06
2.10569e-06
2.24018e-06
2.15702e-06
2.13689e-06
2.28071e-06
2.31312e-06
2.18289e-06
2.25102e-06
2.32559e-06
2.32559e-06
2.32558e-06
2.32558e-06
0.00229666
0.0023127
0.00230626
0.00228636
0.00229908
0.00209857
0.000109307
0.000109945
0.00193633
0.00193623
7.34362e-06
7.37505e-06
2.55909e-05
2.55264e-05
2.59956e-06
2.27905e-06
2.64442e-06
2.37547e-06
2.56963e-06
2.27558e-06
2.63259e-06
2.37569e-06
2.71746e-06
4.45379e-06
3.2447e-06
3.69058e-06
2.71754e-06
4.50367e-06
3.2438e-06
3.73167e-06
2.32102e-06
2.21689e-06
2.25725e-06
2.35496e-06
2.33124e-06
2.21879e-06
2.25883e-06
2.34686e-06
2.45547e-06
2.25063e-06
2.35028e-06
2.17348e-06
2.47908e-06
2.26086e-06
2.34266e-06
2.17104e-06
2.32559e-06
2.32559e-06
2.3162e-06
2.31202e-06
2.27307e-06
2.28261e-06
2.28011e-06
2.28447e-06
2.24334e-06
2.23922e-06
2.10231e-06
2.04613e-06
1.96276e-06
1.98115e-06
2.12095e-06
2.04357e-06
1.98424e-06
1.97958e-06
2.20001e-06
2.14708e-06
2.18139e-06
2.13458e-06
2.08308e-06
2.10668e-06
2.2091e-06
2.15124e-06
2.18994e-06
2.13204e-06
2.07815e-06
2.09478e-06
2.17456e-06
2.13148e-06
2.18213e-06
2.11174e-06
2.24093e-06
2.1686e-06
2.17011e-06
2.27342e-06
2.24719e-06
2.25736e-06
2.18434e-06
2.28841e-06
2.32559e-06
2.32558e-06
2.32558e-06
0.00228471
0.00231921
0.00229838
0.00230665
0.00224461
0.00227224
0.000198462
0.000199471
0.00205699
0.00205397
8.85315e-06
4.701e-06
1.2063e-05
1.37584e-05
1.18191e-05
3.70145e-06
4.78049e-06
8.89519e-06
3.71079e-06
1.2066e-05
1.40264e-05
1.18175e-05
0.000147977
6.8733e-05
5.6633e-05
3.2435e-05
0.000148309
6.87011e-05
5.66684e-05
3.21668e-05
2.62635e-06
2.18697e-06
2.99749e-06
2.47369e-06
2.59939e-06
2.17694e-06
2.85306e-06
2.47277e-06
2.57046e-06
4.12084e-06
2.57621e-06
4.12584e-06
2.34756e-06
2.38581e-06
2.34553e-06
2.37985e-06
2.35788e-06
2.3475e-06
2.40071e-06
2.34841e-06
2.32559e-06
2.31514e-06
2.31631e-06
2.30992e-06
2.24889e-06
2.2675e-06
2.23193e-06
2.2497e-06
2.2253e-06
2.23633e-06
2.23513e-06
2.24009e-06
2.06699e-06
2.01764e-06
2.0254e-06
2.15016e-06
2.07494e-06
2.06992e-06
2.05321e-06
2.01752e-06
2.01761e-06
2.12767e-06
2.06453e-06
2.06738e-06
2.19995e-06
2.12675e-06
2.21183e-06
2.11635e-06
2.23283e-06
2.16712e-06
2.17137e-06
2.22627e-06
2.05428e-06
2.17384e-06
2.2194e-06
2.13586e-06
2.21974e-06
2.21068e-06
2.0701e-06
2.16397e-06
2.20665e-06
2.20468e-06
2.28619e-06
2.23217e-06
2.32558e-06
2.32558e-06
0.00228901
0.00230474
0.00231081
0.0022845
0.00225666
0.00218237
0.00218825
0.00230897
0.0023097
0.000419931
0.000394585
0.00198641
0.00205793
5.2278e-06
1.19889e-05
1.74873e-05
5.37286e-06
2.4089e-05
4.12208e-05
5.20446e-06
1.23871e-05
5.43369e-06
1.79371e-05
2.50432e-05
4.16324e-05
0.000145918
0.000145587
4.37556e-05
3.99889e-05
0.00015603
0.000152134
4.50918e-05
4.06256e-05
3.47245e-06
2.56733e-06
2.93569e-06
2.57571e-06
2.32558e-06
2.32559e-06
2.29224e-06
2.31925e-06
2.29184e-06
2.24573e-06
2.25719e-06
2.23884e-06
2.25566e-06
1.9909e-06
2.09318e-06
2.02514e-06
2.13595e-06
2.00737e-06
2.08898e-06
2.03927e-06
2.12848e-06
2.17615e-06
2.08496e-06
2.13041e-06
2.02813e-06
2.18556e-06
2.111e-06
2.17159e-06
2.09294e-06
2.11654e-06
2.05037e-06
2.18114e-06
2.10304e-06
2.04309e-06
2.16336e-06
2.09718e-06
2.18618e-06
2.08621e-06
2.13231e-06
2.17582e-06
2.17384e-06
2.13157e-06
2.19162e-06
2.18152e-06
2.17513e-06
2.13977e-06
2.16174e-06
2.2039e-06
2.15697e-06
2.21807e-06
2.21289e-06
2.25995e-06
2.18988e-06
2.32558e-06
0.00227124
0.00231484
0.00229799
0.00232019
0.00222133
0.000927993
0.00117892
0.00158393
0.00169752
0.000435951
0.000255702
0.00030579
0.000412415
0.00043419
0.000301019
0.000277434
0.000416788
0.000514248
0.000671931
0.000108334
0.000262909
5.75149e-05
0.000100288
0.000122202
0.00028358
6.30359e-05
0.000108437
2.32558e-06
2.32558e-06
2.32559e-06
2.29625e-06
2.3154e-06
2.30357e-06
2.3016e-06
2.28399e-06
2.28924e-06
2.30449e-06
2.30407e-06
2.24955e-06
2.2484e-06
2.10997e-06
2.15578e-06
2.19061e-06
2.15479e-06
2.12101e-06
2.1364e-06
2.28429e-06
2.23533e-06
2.16507e-06
2.11329e-06
2.06602e-06
2.18357e-06
2.12855e-06
2.01995e-06
2.21534e-06
2.18664e-06
2.29808e-06
2.1021e-06
2.15474e-06
2.09243e-06
2.05194e-06
2.15314e-06
2.09624e-06
2.21186e-06
0.00229726
0.00230542
0.00231716
0.00231624
0.00206692
0.00201069
0.00222386
0.002226
0.0003034
0.000301874
0.000926216
0.000844639
0.000209104
0.000145874
6.5892e-05
0.000201728
0.000229741
0.000244634
0.000183403
0.0003167
0.000227104
0.000139163
0.000164829
7.60559e-05
0.000327148
0.000206256
0.000274171
0.000154574
0.000113848
0.000164887
0.000134191
0.000234996
2.32558e-06
2.32558e-06
2.32559e-06
2.31448e-06
2.29419e-06
2.21201e-06
2.21765e-06
2.24857e-06
2.25866e-06
2.24794e-06
2.25327e-06
2.11945e-06
2.06595e-06
2.16213e-06
2.06307e-06
2.10309e-06
2.07425e-06
2.13481e-06
2.09845e-06
2.23425e-06
2.20199e-06
2.24904e-06
2.00227e-06
2.18575e-06
2.23176e-06
2.21071e-06
2.19288e-06
0.00228367
0.00232094
0.00231112
0.00229548
0.00205791
0.00198986
0.00223971
0.00223788
0.00021559
9.82821e-05
0.000333805
0.000337122
0.000246574
0.000477347
0.000242835
9.92475e-05
0.000309983
0.000292568
0.000217171
0.000389277
0.000951784
0.000850717
6.42371e-05
0.000125309
6.87716e-05
0.000129397
0.000110423
0.000215243
0.000122778
0.000216001
0.000164424
8.50932e-05
0.000210181
8.86451e-05
2.32558e-06
2.32558e-06
2.29888e-06
2.31264e-06
2.26537e-06
2.26783e-06
2.2638e-06
2.27787e-06
2.25912e-06
2.26779e-06
2.24536e-06
2.23951e-06
1.90437e-06
2.10065e-06
2.03265e-06
2.11751e-06
2.03149e-06
2.13924e-06
1.92537e-06
2.09286e-06
2.03377e-06
2.09691e-06
2.05198e-06
2.1251e-06
2.17611e-06
2.06318e-06
2.2549e-06
2.19322e-06
2.20229e-06
1.8931e-06
2.1924e-06
2.13167e-06
0.00230607
0.00232303
0.00232499
0.00224232
0.0022373
0.00228557
0.00228156
0.00216211
0.00214699
0.00219311
0.00221828
0.000249688
0.000162074
0.000580583
0.000555548
0.000615181
0.000713857
0.000220311
0.000160627
0.000526753
0.000371136
0.000525883
0.000511805
0.00160363
0.00173332
0.00129713
0.00156894
0.0014511
0.00151501
0.00105756
0.00131049
2.32558e-06
2.31823e-06
2.30206e-06
2.30331e-06
2.27945e-06
2.25773e-06
2.27234e-06
2.25225e-06
2.19227e-06
2.19077e-06
2.09582e-06
2.14062e-06
2.05392e-06
2.01051e-06
2.11624e-06
1.98417e-06
2.04864e-06
2.0104e-06
2.10486e-06
1.98183e-06
2.10748e-06
2.13452e-06
2.05726e-06
2.08713e-06
2.12472e-06
1.90341e-06
2.1254e-06
2.1354e-06
2.16214e-06
1.92262e-06
2.08198e-06
1.67861e-06
2.04103e-06
1.64466e-06
0.00232327
0.00232553
0.00231555
0.00229946
0.00229632
0.00231965
0.00232092
0.00208142
0.00216133
0.00208261
0.00209003
0.00207983
0.0021396
0.00200263
0.00207501
0.00205446
0.00207629
0.00210465
0.0020864
0.00224527
0.00223792
0.00161831
0.00149956
0.00134034
0.00108652
0.0019129
0.00214725
0.00170156
0.00193453
2.32558e-06
2.28909e-06
2.32112e-06
2.29004e-06
2.29663e-06
2.27541e-06
2.28994e-06
2.2679e-06
2.25399e-06
2.22154e-06
2.21646e-06
1.97615e-06
1.99055e-06
2.07395e-06
2.03523e-06
2.03907e-06
2.09787e-06
1.98031e-06
2.03309e-06
2.10185e-06
1.99242e-06
2.07698e-06
2.0355e-06
2.03678e-06
1.87734e-06
2.02275e-06
2.1334e-06
2.07873e-06
2.08064e-06
2.18717e-06
1.91277e-06
0.00232252
0.00231947
0.00232232
0.00229043
0.00229755
0.0023108
0.0023155
0.00208373
0.00210135
0.0021401
0.00214423
0.00213553
0.00221224
0.00206012
0.00209283
0.00215948
0.00220114
0.00220955
0.00222435
0.0021235
0.00211807
0.00216742
0.00215925
0.0021351
0.00214759
0.00216029
0.00219308
0.00181785
0.00213236
0.00177936
0.00205068
2.31792e-06
2.29005e-06
2.30665e-06
2.29407e-06
2.29353e-06
2.27498e-06
2.28373e-06
2.1773e-06
2.1848e-06
2.03951e-06
2.01868e-06
1.9917e-06
2.03653e-06
1.99015e-06
1.95936e-06
2.03551e-06
2.02566e-06
1.99136e-06
2.03604e-06
1.98721e-06
1.96205e-06
2.15979e-06
2.16049e-06
2.04464e-06
2.13494e-06
2.17455e-06
2.12029e-06
2.22966e-06
2.09072e-06
0.00232253
0.00232022
0.00229532
0.00229763
0.00230043
0.00230027
0.00229156
0.00229217
0.0022372
0.0021076
0.00217265
0.00223888
0.00211594
0.00217394
0.00186741
0.00192635
0.00219831
0.00180697
0.00202446
0.00212484
0.00196169
0.00199273
0.0022689
0.0019578
0.00215392
0.00220855
0.00219693
0.00221691
0.00220038
0.00219798
2.28344e-06
2.32275e-06
2.28392e-06
2.26832e-06
2.27772e-06
2.23694e-06
2.24191e-06
1.94104e-06
2.00411e-06
2.06666e-06
2.03039e-06
2.04305e-06
2.05141e-06
1.96733e-06
2.04799e-06
2.05115e-06
2.01611e-06
2.07976e-06
2.03573e-06
2.13887e-06
2.05479e-06
2.18202e-06
2.15124e-06
2.1291e-06
2.0593e-06
2.19577e-06
2.16141e-06
2.18409e-06
2.05107e-06
2.18643e-06
2.05518e-06
0.00231573
0.0023192
0.00226534
0.00227179
0.00227074
0.0022728
0.00228889
0.00228935
0.00202021
0.00207602
0.00220822
0.00208806
0.00218454
0.00217041
0.00202435
0.00219424
0.00208303
0.00202296
0.00219446
0.0020935
0.00218613
0.00217745
0.00202657
0.00219461
0.0022404
0.00217123
0.00222275
0.00219788
0.00218623
0.00224881
0.00221381
0.00222374
2.29256e-06
2.32275e-06
2.25677e-06
2.21663e-06
2.22789e-06
2.27218e-06
2.27989e-06
2.25924e-06
2.18969e-06
2.03127e-06
2.09954e-06
2.17679e-06
2.048e-06
2.09902e-06
2.16105e-06
2.22066e-06
2.15778e-06
2.12028e-06
2.17377e-06
2.15591e-06
2.20511e-06
2.1195e-06
2.14766e-06
2.15471e-06
2.14506e-06
2.15272e-06
2.15369e-06
2.16913e-06
2.18047e-06
2.15127e-06
0.00230511
0.00231432
0.00223179
0.00223164
0.00205979
0.00226302
0.00223099
0.0022349
0.00205917
0.00226915
0.00229131
0.00230356
0.00209113
0.00219708
0.00202615
0.00226726
0.00220635
0.0022175
0.00210272
0.0020495
0.00219395
0.00220882
0.00221386
0.00221973
0.00221597
0.00198114
0.00223524
0.00205525
2.32502e-06
2.30811e-06
2.21759e-06
2.26474e-06
2.27442e-06
2.27383e-06
2.2229e-06
2.2466e-06
2.0321e-06
2.05989e-06
2.17449e-06
1.9754e-06
2.16771e-06
2.06927e-06
1.92698e-06
2.03192e-06
2.04671e-06
1.97853e-06
2.14064e-06
1.98686e-06
2.13823e-06
2.05742e-06
1.95454e-06
2.03835e-06
2.18508e-06
2.18109e-06
2.12881e-06
2.13393e-06
2.21539e-06
2.17826e-06
2.24489e-06
2.17654e-06
0.00229939
0.00227218
0.00230988
0.00229058
0.00226895
0.00227329
0.00226901
0.00205888
0.00223194
0.00202576
0.0022703
0.00204699
0.00213262
0.00203869
0.0021488
0.00226424
0.00214006
0.00219893
0.00207239
0.00223661
0.00201067
0.0022775
0.00203254
0.00214122
0.00204701
0.00215775
0.00226655
0.00214639
0.00220358
0.00207878
0.00201292
0.00200018
0.00222602
0.00209239
0.00200885
0.00200511
0.00223577
2.30904e-06
2.28963e-06
2.2019e-06
2.19045e-06
2.10155e-06
2.06672e-06
2.19656e-06
2.09318e-06
2.07514e-06
2.25468e-06
2.22378e-06
2.24534e-06
2.10446e-06
2.23372e-06
2.08301e-06
2.0633e-06
2.02875e-06
2.19399e-06
2.12984e-06
2.21306e-06
2.10627e-06
2.01869e-06
2.07624e-06
2.15961e-06
1.94214e-06
2.18609e-06
1.98027e-06
2.16626e-06
0.00227488
0.00226324
0.00229766
0.002245
0.00229039
0.00229787
0.00229835
0.00164907
0.00197412
0.00220459
0.00218378
0.0023043
0.00224867
0.0020975
0.0020237
0.00221696
0.00202369
0.00223353
0.00219721
0.00207039
0.00212432
0.00166503
0.00199761
0.00220884
0.0022158
0.00230364
0.0022511
0.00202869
0.00208344
0.0022129
0.00203071
0.00223408
0.00219754
0.00206691