/*--------------------------------*- C++ -*----------------------------------*\
| =========                 |                                                 |
| \\      /  F ield         | OpenFOAM: The Open Source CFD Toolbox           |
|  \\    /   O peration     | Version:  5.x                                   |
|   \\  /    A nd           | Web:      www.OpenFOAM.org                      |
|    \\/     M anipulation  |                                                 |
\*---------------------------------------------------------------------------*/
FoamFile
{
    version     2.0;
    format      ascii;
    class       volVectorField;
    location    "0.5";
    object      U;
}
// * * * * * * * * * * * * * * * * * * * * * * * * * * * * * * * * * * * * * //

dimensions      [0 1 -1 0 0 0 0];

internalField   nonuniform List<vector> 
12160
(
(0.205707 0 0.00253747)
(0.225382 0 0.00406877)
(0.205296 0 -6.78618e-05)
(0.192358 0 0.00506957)
(0.224952 0 0.00461658)
(0.204919 0 0.00651229)
(0.183603 0 0.00471904)
(0.19236 0 0.0100387)
(0.22557 0 0.0144226)
(0.20287 0 0.00196719)
(0.152832 0 0.00530206)
(0.183903 0 0.0117378)
(0.194094 0 0.0217481)
(0.22274 0 0.0107384)
(0.201747 0 0.0137643)
(0.134654 0 0.00520502)
(0.153056 0 0.0145241)
(0.185458 0 0.0227265)
(0.193074 0 0.0222142)
(0.223485 0 0.0244946)
(0.196146 0 0.00641042)
(0.108696 0 0.00499243)
(0.13461 0 0.0147846)
(0.153691 0 0.026234)
(0.185653 0 0.0274429)
(0.196778 0 0.0366763)
(0.215525 0 0.0136589)
(0.196563 0 0.0291488)
(0.0893619 0 0.00446823)
(0.108442 0 0.0144011)
(0.134557 0 0.0259141)
(0.153782 0 0.0336599)
(0.189861 0 0.0423631)
(0.194534 0 0.0310223)
(0.217434 0 0.0293014)
(0.181454 0 0.0179211)
(0.0710215 0 0.00384954)
(0.0889152 0 0.0130024)
(0.107902 0 0.0248058)
(0.13394 0 0.0345242)
(0.156163 0 0.0492263)
(0.189777 0 0.0439437)
(0.201941 0 0.0424729)
(0.194101 0 0.00882333)
(0.139264 0 0.0585783)
(0.0559624 0 0.00321792)
(0.0705033 0 0.0112921)
(0.0879613 0 0.0221696)
(0.106785 0 0.0335901)
(0.134406 0 0.0492098)
(0.155744 0 0.0535714)
(0.197352 0 0.0615725)
(0.197594 0 0.0371611)
(0.202915 0 0.027197)
(-0.12552 0 -0.122223)
(0.0436007 0 0.00263128)
(0.0554336 0 0.00948793)
(0.0694129 0 0.0190953)
(0.0863615 0 0.0302411)
(0.106001 0 0.0467975)
(0.132641 0 0.0548858)
(0.159585 0 0.0745252)
(0.200077 0 0.0664696)
(0.238848 0 0.0438814)
(0.18947 0 -0.046872)
(-0.051577 0 0.0257286)
(0.0337322 0 0.00211791)
(0.0431063 0 0.00778491)
(0.0543355 0 0.0159493)
(0.0676775 0 0.0261256)
(0.0846225 0 0.0415247)
(0.103276 0 0.0522278)
(0.133193 0 0.0772101)
(0.162271 0 0.0789543)
(0.265805 0 0.0809281)
(0.352143 0 0.00972866)
(0.15029 0 -0.179842)
(0.0422609 0 -0.117118)
(0.0259537 0 0.00168511)
(0.0332944 0 0.00628011)
(0.0420898 0 0.0130295)
(0.0526328 0 0.0218494)
(0.0656015 0 0.0354447)
(0.0812008 0 0.0461223)
(0.101678 0 0.0734076)
(0.132119 0 0.0782522)
(0.236081 0 0.0974248)
(0.460459 0 0.0735399)
(0.209157 0 -0.076759)
(0.01237 0 -0.158537)
(0.0253609 0 -0.0520399)
(0.0198891 0 0.00132987)
(0.0255797 0 0.00500393)
(0.032401 0 0.0104756)
(0.0405355 0 0.01786)
(0.0505194 0 0.0293667)
(0.0620967 0 0.0390876)
(0.0784257 0 0.0650407)
(0.0981005 0 0.0700548)
(0.21523 0 0.100786)
(0.462322 0 0.10454)
(0.3539 0 0.0262909)
(-0.0653856 0 -0.0701643)
(-0.0202714 0 -0.116404)
(0.0139892 0 -0.0817995)
(0.0151952 0 0.00104403)
(0.0195778 0 0.00395263)
(0.024821 0 0.00832455)
(0.0310461 0 0.0143611)
(0.0385732 0 0.0238259)
(0.0472297 0 0.0321698)
(0.0590457 0 0.0553686)
(0.0732865 0 0.0583171)
(0.185017 0 0.093262)
(0.443456 0 0.114867)
(0.318891 0 0.109799)
(-0.0553078 0 0.0219444)
(-0.067143 0 -0.065949)
(-0.00831416 0 -0.11155)
(0.00651327 0 -0.076696)
(0.0115772 0 0.000817467)
(0.014941 0 0.00310462)
(0.0189493 0 0.00656127)
(0.0236767 0 0.0114111)
(0.0293198 0 0.0190384)
(0.0356606 0 0.0259593)
(0.044318 0 0.045743)
(0.053444 0 0.0470085)
(0.167364 0 0.0808054)
(0.396189 0 0.103214)
(0.22434 0 0.150323)
(-0.0356817 0 0.140087)
(-0.0738934 0 0.0239152)
(-0.0375 0 -0.0514141)
(-0.00262948 0 -0.0997922)
(0.00879416 0 0.000640034)
(0.0113726 0 0.0024314)
(0.0144294 0 0.00514427)
(0.0180046 0 0.00899176)
(0.0222109 0 0.0150471)
(0.0268369 0 0.0206557)
(0.0330784 0 0.0370231)
(0.0388321 0 0.0370061)
(0.152132 0 0.0677688)
(0.330798 0 0.0896041)
(0.136425 0 0.153656)
(-6.31498e-05 0 0.162361)
(-0.0525503 0 0.11022)
(-0.0487102 0 0.0244654)
(-0.0124059 0 -0.0494815)
(0.00664907 0 0.000502377)
(0.0086313 0 0.00190395)
(0.010962 0 0.0040226)
(0.0136627 0 0.00704755)
(0.0167907 0 0.0118025)
(0.0201501 0 0.0162745)
(0.0246389 0 0.0295086)
(0.028083 0 0.0287638)
(0.140916 0 0.0552902)
(0.25896 0 0.0742953)
(0.0900068 0 0.136598)
(0.0216294 0 0.14877)
(-0.0156264 0 0.144022)
(-0.0322315 0 0.100471)
(-0.0148021 0 0.0257293)
(0.00498868 0 0.000397141)
(0.0065213 0 0.00149491)
(0.00830595 0 0.00314587)
(0.0103482 0 0.00550875)
(0.0126755 0 0.00921349)
(0.0151132 0 0.0127371)
(0.0183286 0 0.0232617)
(0.0202914 0 0.0221728)
(0.132185 0 0.0443117)
(0.187623 0 0.0615352)
(0.0636102 0 0.118375)
(0.0296857 0 0.126427)
(0.00803453 0 0.142055)
(-0.00959384 0 0.132973)
(-0.00995877 0 0.0935931)
(0.00369139 0 0.000317964)
(0.00489014 0 0.00118254)
(0.00626693 0 0.00246751)
(0.00782034 0 0.00430613)
(0.00955688 0 0.00717624)
(0.0113299 0 0.00992822)
(0.0136309 0 0.018197)
(0.0146698 0 0.0170116)
(0.125374 0 0.0350189)
(0.12919 0 0.0495636)
(0.0485973 0 0.0962311)
(0.0308005 0 0.1067)
(0.0183657 0 0.125845)
(0.00507072 0 0.13596)
(-0.00264256 0 0.126242)
(0.00265926 0 0.000260246)
(0.00361689 0 0.000947451)
(0.00469404 0 0.00195009)
(0.0058873 0 0.003376)
(0.00719378 0 0.00559167)
(0.00849013 0 0.00772543)
(0.0101398 0 0.0141668)
(0.0106259 0 0.0130209)
(0.119862 0 0.0274071)
(0.085422 0 0.0394755)
(0.0385896 0 0.0743671)
(0.0304131 0 0.0879634)
(0.0212485 0 0.108154)
(0.0116255 0 0.123709)
(0.00217726 0 0.131911)
(0.00181672 0 0.000220061)
(0.00260461 0 0.000776028)
(0.00346844 0 0.0015613)
(0.00440135 0 0.00266677)
(0.00539734 0 0.00437157)
(0.00635666 0 0.0060161)
(0.00754478 0 0.0110044)
(0.00771668 0 0.00996165)
(0.11518 0 0.0213075)
(0.0558702 0 0.0310371)
(0.0316615 0 0.0551645)
(0.0279212 0 0.0702717)
(0.0216215 0 0.089576)
(0.0134124 0 0.107688)
(0.00433217 0 0.122113)
(0.00110128 0 0.000194693)
(0.0017789 0 0.000656541)
(0.0024958 0 0.00127783)
(0.0032472 0 0.00213414)
(0.00402357 0 0.00344418)
(0.00474714 0 0.00470207)
(0.00561277 0 0.00855148)
(0.00561867 0 0.00762993)
(0.110947 0 0.0164998)
(0.0373338 0 0.0244324)
(0.025529 0 0.0400167)
(0.0242066 0 0.0548361)
(0.0199773 0 0.0719539)
(0.0134944 0 0.0899132)
(0.0048389 0 0.107306)
(0.000462481 0 0.000182107)
(0.00107855 0 0.00058093)
(0.001704 0 0.00108015)
(0.00233416 0 0.00174564)
(0.00296161 0 0.00274993)
(0.00352499 0 0.00370442)
(0.00416787 0 0.0066684)
(0.0041 0 0.00586171)
(0.106823 0 0.0127569)
(0.0256218 0 0.0195472)
(0.0197772 0 0.0290571)
(0.0199256 0 0.0421495)
(0.0173549 0 0.0564261)
(0.012336 0 0.0728138)
(0.00476372 0 0.0901246)
(-0.000142068 0 0.000181071)
(0.000454006 0 0.000542928)
(0.00103387 0 0.000954861)
(0.00159324 0 0.00147462)
(0.00212556 0 0.00224411)
(0.00258656 0 0.00295802)
(0.00307966 0 0.00524069)
(0.00299339 0 0.00452772)
(0.102466 0 0.00987502)
(0.0179129 0 0.0161708)
(0.0147703 0 0.0214526)
(0.0157162 0 0.0323719)
(0.0142847 0 0.0435571)
(0.0106489 0 0.057567)
(0.0042858 0 0.0733712)
(-0.000749947 0 0.000190997)
(-0.000136628 0 0.000539415)
(0.000437405 0 0.000891781)
(0.000968111 0 0.00130275)
(0.00145037 0 0.00189141)
(0.0018525 0 0.00241421)
(0.00225067 0 0.00417432)
(0.00218021 0 0.00352937)
(0.097457 0 0.00768176)
(0.0125545 0 0.0140321)
(0.0106302 0 0.0162324)
(0.0119392 0 0.0251643)
(0.0112485 0 0.0334146)
(0.00874388 0 0.0448133)
(0.00366237 0 0.058291)
(-0.00139765 0 0.000212181)
(-0.000730481 0 0.000568797)
(-0.000125979 0 0.000885805)
(0.000413168 0 0.0012163)
(0.000883335 0 0.00166741)
(0.00126364 0 0.00203478)
(0.0016075 0 0.00339754)
(0.00157496 0 0.00279103)
(0.0912664 0 0.0060518)
(0.00861272 0 0.0130596)
(0.00725529 0 0.012683)
(0.0087246 0 0.0200657)
(0.00853578 0 0.0257255)
(0.00689295 0 0.0347213)
(0.00298914 0 0.0455715)
(-0.00211902 0 0.000245352)
(-0.00136355 0 0.000631764)
(-0.000692396 0 0.000934116)
(-0.000110234 0 0.00120827)
(0.000381897 0 0.00155411)
(0.00077212 0 0.00179371)
(0.00109599 0 0.00285601)
(0.00111613 0 0.00225659)
(0.0832136 0 0.00486906)
(0.0055227 0 0.0130249)
(0.00455514 0 0.0103111)
(0.00607482 0 0.0165769)
(0.00622695 0 0.0201226)
(0.00524465 0 0.0270487)
(0.00234876 0 0.0354113)
(-0.00295028 0 0.000291333)
(-0.00206917 0 0.000729977)
(-0.00129664 0 0.00103784)
(-0.000636296 0 0.00127469)
(-8.98504e-05 0 0.00154212)
(0.000339712 0 0.00167206)
(0.000672835 0 0.00251192)
(0.000760506 0 0.00188503)
(0.0725129 0 0.00414275)
(0.00322796 0 0.0137202)
(0.00232102 0 0.00890849)
(0.0039156 0 0.0144524)
(0.00432694 0 0.0162003)
(0.00384371 0 0.0214518)
(0.00178481 0 0.0276073)
(-0.00392815 0 0.000351382)
(-0.00288276 0 0.000866458)
(-0.00197069 0 0.00119969)
(-0.00119769 0 0.00141696)
(-0.000563636 0 0.00162645)
(-6.56798e-05 0 0.00165965)
(0.000303338 0 0.00233762)
(0.000472995 0 0.0016479)
(0.0586215 0 0.00377055)
(0.00157355 0 0.0153804)
(0.000482938 0 0.00830456)
(0.00216071 0 0.0132935)
(0.00279467 0 0.0136142)
(0.00269068 0 0.017524)
(0.00130575 0 0.0218553)
(-0.00509177 0 0.000426954)
(-0.00384017 0 0.00104481)
(-0.00274844 0 0.00142443)
(-0.00182466 0 0.00163872)
(-0.00106948 0 0.00180846)
(-0.000472307 0 0.00175134)
(-4.12235e-05 0 0.00231723)
(0.000226279 0 0.00152643)
(0.0413742 0 0.00350723)
(0.000493415 0 0.0179232)
(-0.000849096 0 0.00821525)
(0.000788642 0 0.013065)
(0.00155812 0 0.0120988)
(0.00175245 0 0.0149444)
(0.000910639 0 0.0177944)
(-0.00648279 0 0.000519938)
(-0.00497981 0 0.00126953)
(-0.00366445 0 0.00171817)
(-0.00254913 0 0.0019464)
(-0.00163531 0 0.00209286)
(-0.000906627 0 0.00194829)
(-0.000386087 0 0.00244385)
(-6.18236e-07 0 0.00151001)
(0.0213686 0 0.00337537)
(-4.77874e-05 0 0.0206318)
(-0.00157581 0 0.0084982)
(-0.000190206 0 0.0134919)
(0.000582239 0 0.0114233)
(0.000987515 0 0.0133942)
(0.000593252 0 0.0150948)
(-0.0081462 0 0.000632476)
(-0.00634299 0 0.00154622)
(-0.00475604 0 0.00208865)
(-0.00340394 0 0.00234867)
(-0.00229056 0 0.00248828)
(-0.0013934 0 0.00225549)
(-0.000754715 0 0.00271828)
(-0.000226245 0 0.00159381)
(3.29437e-05 0 0.0033666)
(-0.000160346 0 0.0227165)
(-0.00160906 0 0.00890469)
(-0.000731994 0 0.0144108)
(-0.000104367 0 0.0113629)
(0.000387279 0 0.0126972)
(0.000338658 0 0.0134624)
(-0.0101311 0 0.000767171)
(-0.00797454 0 0.00188138)
(-0.0060638 0 0.00254544)
(-0.00442483 0 0.00285636)
(-0.0030659 0 0.0030064)
(-0.00195891 0 0.00268204)
(-0.00116918 0 0.00314833)
(-0.000467613 0 0.00177819)
(-0.020768 0 0.00348234)
(-7.06354e-05 0 0.023415)
(-0.00101905 0 0.00926458)
(-0.000834206 0 0.0154335)
(-0.000484175 0 0.0117025)
(-3.27723e-05 0 0.012597)
(0.000144788 0 0.0126823)
(-0.012491 0 0.000926667)
(-0.00992355 0 0.00228234)
(-0.00763202 0 0.00309959)
(-0.00565097 0 0.00348298)
(-0.00399497 0 0.00366216)
(-0.00263088 0 0.00324044)
(-0.00165314 0 0.00374808)
(-0.000740365 0 0.00206812)
(-0.0393951 0 0.00371366)
(-2.16237e-05 0 0.0226077)
(-6.91277e-05 0 0.0094174)
(-0.000575708 0 0.0162454)
(-0.000556577 0 0.0121844)
(-0.000264549 0 0.0128916)
(6.34654e-06 0 0.0125096)
(-0.0152823 0 0.00111345)
(-0.0122434 0 0.00275658)
(-0.00950928 0 0.00376339)
(-0.00712542 0 0.00424384)
(-0.00511506 0 0.0044739)
(-0.00343987 0 0.00394713)
(-0.0022315 0 0.00453552)
(-0.00106321 0 0.00247327)
(-0.0548799 0 0.00405522)
(-0.000251258 0 0.0205786)
(0.000829348 0 0.00933902)
(-0.000123759 0 0.0165324)
(-0.000379427 0 0.012601)
(-0.000314746 0 0.0133179)
(-7.19043e-05 0 0.0127277)
(-0.0185668 0 0.00132987)
(-0.0149905 0 0.00331145)
(-0.0117482 0 0.00454943)
(-0.00889558 0 0.00515588)
(-0.00646752 0 0.00546242)
(-0.00442025 0 0.00482226)
(-0.00293192 0 0.00553462)
(-0.00145616 0 0.00300802)
(-0.0670981 0 0.00449668)
(-0.000898144 0 0.0180832)
(0.00132478 0 0.0090959)
(0.000290411 0 0.0162639)
(-6.30188e-05 0 0.0127891)
(-0.000220757 0 0.0136902)
(-9.25905e-05 0 0.0130905)
(-0.022401 0 0.00157798)
(-0.0182265 0 0.00395335)
(-0.014405 0 0.00547022)
(-0.0110134 0 0.00623652)
(-0.00809828 0 0.00665069)
(-0.00561059 0 0.00588855)
(-0.00378615 0 0.00677479)
(-0.00194074 0 0.00369123)
(-0.0764442 0 0.00524184)
(-0.00199814 0 0.0158605)
(0.00118894 0 0.00886802)
(0.00046077 0 0.015548)
(0.000226945 0 0.0127247)
(-5.07593e-05 0 0.0138459)
(-6.80521e-05 0 0.0134195)
(-0.0268633 0 0.00185914)
(-0.022008 0 0.00468771)
(-0.0175412 0 0.00653701)
(-0.0135345 0 0.00750303)
(-0.010058 0 0.0080627)
(-0.0070542 0 0.00717122)
(-0.00483023 0 0.00828863)
(-0.00254344 0 0.00454652)
(-0.0835245 0 0.00633015)
(-0.00353756 0 0.0143773)
(0.000433296 0 0.00879424)
(0.000275269 0 0.0146883)
(0.000349062 0 0.0124853)
(0.000104421 0 0.0137671)
(-1.79287e-05 0 0.0135735)
(-0.0319352 0 0.00217464)
(-0.026414 0 0.00551779)
(-0.0212144 0 0.00775965)
(-0.0165205 0 0.00897115)
(-0.0124021 0 0.00972288)
(-0.00879965 0 0.00869693)
(-0.00610504 0 0.0101121)
(-0.00329578 0 0.00560131)
(-0.0889797 0 0.00771841)
(-0.00556214 0 0.0138206)
(-0.000869487 0 0.00902645)
(-0.000300095 0 0.0140022)
(0.000220626 0 0.0122428)
(0.000161924 0 0.0135207)
(2.65157e-05 0 0.0135342)
(-0.0314276 0 0.0064466)
(-0.0420205 0 0.0027539)
(-0.025504 0 0.00914445)
(-0.0200303 0 0.0106549)
(-0.0151922 0 0.0116542)
(-0.0109008 0 0.0104932)
(-0.00765693 0 0.0122831)
(-0.00423457 0 0.0068874)
(-0.0933462 0 0.00944377)
(-0.00808328 0 0.0137958)
(-0.00256841 0 0.00964808)
(-0.0012382 0 0.0137042)
(-0.000193065 0 0.0121631)
(7.33841e-05 0 0.0132729)
(4.04401e-05 0 0.0133652)
(-0.0303967 0 0.0106974)
(-0.0414148 0 0.00814191)
(-0.0593855 0 0.00373989)
(-0.0241449 0 0.012563)
(-0.0184894 0 0.0138778)
(-0.0134186 0 0.0125868)
(-0.00953813 0 0.0148401)
(-0.00540344 0 0.00844081)
(-0.0969918 0 0.0115436)
(-0.0110815 0 0.014371)
(-0.00453049 0 0.0108098)
(-0.00246732 0 0.0139831)
(-0.000871543 0 0.0124248)
(-0.000179876 0 0.0131911)
(1.24341e-05 0 0.0132156)
(-0.0288558 0 0.014704)
(-0.0401763 0 0.0135395)
(-0.0586521 0 0.0109977)
(-0.080982 0 0.00484681)
(-0.0223764 0 0.0164085)
(-0.0164156 0 0.0150033)
(-0.0118081 0 0.01782)
(-0.00685347 0 0.0103017)
(-0.100179 0 0.0140594)
(-0.0146785 0 0.0156119)
(-0.00676619 0 0.012564)
(-0.00395066 0 0.0148823)
(-0.00176613 0 0.0131517)
(-0.000587896 0 0.0134574)
(-7.02598e-05 0 0.013232)
(-0.026854 0 0.0192603)
(-0.0383224 0 0.0186172)
(-0.0571282 0 0.0183589)
(-0.080163 0 0.014137)
(-0.105905 0 0.00599815)
(-0.0199765 0 0.017762)
(-0.0145304 0 0.0212577)
(-0.00864449 0 0.012514)
(-0.103101 0 0.0170373)
(-0.0191009 0 0.017528)
(-0.00932097 0 0.0149447)
(-0.00568602 0 0.0164329)
(-0.00284662 0 0.0144369)
(-0.00112277 0 0.0141914)
(-0.000206214 0 0.0135954)
(-0.0241171 0 0.020884)
(-0.0359204 0 0.0244851)
(-0.0548451 0 0.0252507)
(-0.0783988 0 0.0237108)
(-0.105125 0 0.0173195)
(-0.133429 0 0.00698886)
(-0.0177882 0 0.0251784)
(-0.0108451 0 0.015126)
(-0.105898 0 0.0205241)
(-0.0247139 0 0.0201346)
(-0.0122272 0 0.0180381)
(-0.00768204 0 0.0187021)
(-0.00410853 0 0.0163527)
(-0.00177004 0 0.015499)
(-0.00038834 0 0.0144174)
(-0.0216115 0 0.029618)
(-0.0325861 0 0.026618)
(-0.0519044 0 0.0334333)
(-0.0757527 0 0.0325844)
(-0.103184 0 0.0292664)
(-0.133202 0 0.0202693)
(-0.160818 0 0.00681612)
(-0.013536 0 0.0181865)
(-0.108675 0 0.0245677)
(-0.0319325 0 0.0234895)
(-0.01555 0 0.0219866)
(-0.00994706 0 0.0217769)
(-0.00554552 0 0.0189802)
(-0.00252612 0 0.0174475)
(-0.000613535 0 0.0158089)
(-0.0168389 0 0.0217698)
(-0.0295072 0 0.0376404)
(-0.0477182 0 0.0365366)
(-0.0723868 0 0.0434193)
(-0.10025 0 0.0401413)
(-0.131085 0 0.0348547)
(-0.164643 0 0.0222002)
(-0.182814 0 -0.000512281)
(-0.111519 0 0.0292179)
(-0.0415044 0 0.0275727)
(-0.0192145 0 0.0270329)
(-0.0125039 0 0.0257174)
(-0.00717306 0 0.0224012)
(-0.00339352 0 0.0201238)
(-0.000874632 0 0.0178439)
(-0.114522 0 0.0346409)
(-0.0238547 0 0.0284899)
(-0.0438001 0 0.0513671)
(-0.0674566 0 0.0477074)
(-0.0965873 0 0.0537827)
(-0.12783 0 0.0477057)
(-0.161809 0 0.0405912)
(-0.202768 0 0.0175443)
(-0.215149 0 -0.0176453)
(-0.054292 0 0.0324191)
(-0.0232582 0 0.033421)
(-0.0152783 0 0.0306726)
(-0.0090002 0 0.0266832)
(-0.00439294 0 0.0235906)
(-0.00116842 0 0.0206122)
(-0.0708222 0 0.0414101)
(-0.122507 0 0.0441656)
(-0.0370295 0 0.040951)
(-0.0627812 0 0.0664374)
(-0.0910763 0 0.059316)
(-0.12382 0 0.064166)
(-0.157996 0 0.0555332)
(-0.196304 0 0.0475502)
(-0.267074 0 -0.00450703)
(-0.0831952 0 0.0490614)
(-0.0275072 0 0.0416207)
(-0.0182434 0 0.0366905)
(-0.0109619 0 0.0319347)
(-0.00551072 0 0.0279387)
(-0.00149973 0 0.024165)
(-0.0308866 0 0.0512384)
(-0.110665 0 0.0482311)
(-0.131188 0 0.0608066)
(-0.0554251 0 0.0561208)
(-0.0858215 0 0.0815237)
(-0.117711 0 0.0707352)
(-0.153052 0 0.0748839)
(-0.191097 0 0.0648261)
(-0.249953 0 0.0587454)
(-0.321399 0 0.035056)
(-0.43679 0 0.195947)
(-0.0211664 0 0.0439573)
(-0.0130409 0 0.0381644)
(-0.0067114 0 0.0332279)
(-0.00187308 0 0.0286069)
(-0.0236491 0 0.0524615)
(-0.0364809 0 0.0689252)
(-0.181205 0 0.06699)
(-0.143679 0 0.0792762)
(-0.0785837 0 0.0729232)
(-0.111915 0 0.0955766)
(-0.145759 0 0.0819512)
(-0.183469 0 0.0877986)
(-0.233294 0 0.0789175)
(-0.293484 0 0.0976695)
(-0.4242 0 0.0504785)
(-0.254733 0 0.848526)
(-0.0150611 0 0.0454586)
(-0.00797595 0 0.0394669)
(-0.00226938 0 0.0339618)
(-0.0168661 0 0.0536572)
(-0.0271071 0 0.0667944)
(-0.0474283 0 0.097369)
(-0.25906 0 0.0851517)
(-0.158272 0 0.097678)
(-0.105373 0 0.0897797)
(-0.138856 0 0.108262)
(-0.173185 0 0.0944602)
(-0.215839 0 0.107359)
(-0.268552 0 0.12229)
(-0.419833 0 0.191918)
(-0.351593 0 0.666367)
(-0.185413 -9.33223e-28 0.72254)
(-0.0565376 0 0.842541)
(-0.00919899 0 0.0466814)
(-0.00269235 0 0.0402437)
(-0.0103348 0 0.0546917)
(-0.0193757 0 0.0681045)
(-0.0298955 0 0.0905863)
(-0.0623922 0 0.122251)
(-0.317825 0 0.10467)
(-0.174387 0 0.114175)
(-0.133147 0 0.104892)
(-0.16339 0 0.120741)
(-0.19853 0 0.111724)
(-0.239122 0 0.147821)
(-0.337098 0 0.186115)
(-0.365511 0 0.519949)
(-0.192713 1.01516e-28 0.653901)
(-0.0947602 1.61743e-30 0.697)
(-0.104553 -1.86308e-27 0.748474)
(-0.0385301 0 0.75836)
(-0.00310821 0 0.0474401)
(-0.00350363 0 0.0553767)
(-0.0119332 0 0.0689989)
(-0.0212932 0 0.0911273)
(-0.0293065 0 0.112379)
(-0.0869914 0 0.13708)
(-0.346814 0 0.121988)
(-0.189991 0 0.127196)
(-0.158 0 0.117526)
(-0.18185 0 0.135719)
(-0.211599 0 0.14277)
(-0.258613 0 0.203081)
(-0.299558 0 0.40238)
(-0.169006 0 0.529379)
(-0.104266 0 0.631331)
(-0.0543174 -8.43714e-27 0.707291)
(-0.0867015 3.19426e-30 0.723619)
(-0.075041 -2.32884e-27 0.730518)
(-0.0234536 0 0.72971)
(-0.00408612 0 0.0695681)
(-0.0132716 0 0.0913752)
(-0.0203902 0 0.112294)
(-0.0266931 0 0.131295)
(-0.128728 0 0.1425)
(-0.351741 0 0.133741)
(-0.20153 0 0.13636)
(-0.175306 0 0.128735)
(-0.186575 0 0.156937)
(-0.211763 0 0.183968)
(-0.222589 0 0.332107)
(-0.13791 0 0.419746)
(-0.0929255 0 0.541646)
(-0.0334104 -8.91076e-27 0.658833)
(0.0127552 2.56119e-30 0.741896)
(-0.0669302 -1.41485e-26 0.736955)
(-0.085324 0 0.730077)
(-0.0686192 0 0.714588)
(-0.0260867 0 0.672982)
(-0.00464439 0 0.0914767)
(-0.01297 0 0.111847)
(-0.0167356 0 0.129507)
(-0.0209852 0 0.14834)
(-0.190936 0 0.138906)
(-0.342105 0 0.139325)
(-0.204926 0 0.142468)
(-0.17802 0 0.14182)
(-0.17699 0 0.184131)
(-0.170279 0 0.257475)
(-0.116995 0 0.348562)
(-0.0672758 -1.92713e-27 0.454943)
(-0.00875211 2.28759e-27 0.580716)
(0.0625053 0 0.675052)
(0.0507426 2.19576e-25 0.800478)
(-0.0274146 3.71651e-30 0.766728)
(-0.0865479 -5.63247e-26 0.748183)
(-0.0949108 0 0.713927)
(-0.0701587 0 0.674444)
(-0.0245192 0 0.636797)
(-0.00467098 0 0.111363)
(-0.0108341 0 0.128021)
(-0.00918993 0 0.142217)
(-0.0088499 0 0.16089)
(-0.254084 0 0.125556)
(-0.318946 0 0.137949)
(-0.19483 0 0.147748)
(-0.162786 0 0.153297)
(-0.139474 0 0.224874)
(-0.0961515 0 0.271481)
(-0.041697 -4.82118e-27 0.388975)
(0.0174251 0 0.481617)
(0.115759 -1.63228e-25 0.594561)
(0.115398 -4.4583e-25 0.756316)
(0.109352 -1.24295e-10 0.836299)
(-0.0414834 0 0.822898)
(-0.0759524 0 0.78338)
(-0.111886 -8.78786e-26 0.737964)
(-0.110205 1.11927e-26 0.686874)
(-0.0741417 0 0.638712)
(-0.0276431 0 0.585218)
(-0.00403775 0 0.126723)
(-0.00602607 0 0.138218)
(0.00448349 0 0.146742)
(0.00840327 0 0.156784)
(-0.283169 0 0.106196)
(-0.280713 0 0.131067)
(-0.170785 0 0.151036)
(-0.124646 0 0.167232)
(-0.0808357 0 0.231787)
(-0.0218718 -2.16298e-42 0.301955)
(0.0399122 0 0.398956)
(0.149885 3.16328e-25 0.509807)
(0.149278 -1.20072e-24 0.68376)
(0.254597 -1.68013e-09 0.740698)
(0.0068787 1.03067e-08 0.180369)
(0.0240824 3.35799e-10 0.828861)
(0.0298502 8.82954e-09 0.14634)
(0.288463 8.45352e-09 0.284781)
(0.307413 4.70553e-09 0.298576)
(-0.0877933 3.01248e-25 0.829858)
(-0.132208 1.0181e-25 0.786843)
(-0.145543 -4.69398e-26 0.708739)
(-0.121224 2.30152e-26 0.647365)
(-0.0822208 0 0.591057)
(-0.0297878 0 0.53545)
(-0.00245017 0 0.135459)
(0.00267742 0 0.139356)
(0.0241884 0 0.136596)
(0.0212709 0 0.127177)
(-0.273921 0 0.0852158)
(-0.23191 0 0.119887)
(-0.132416 0 0.153015)
(-0.0747002 0 0.167664)
(-0.0129095 -1.80333e-42 0.248266)
(0.0575603 0 0.299698)
(0.166658 0 0.438242)
(0.192059 2.1988e-24 0.552062)
(0.378856 -1.40338e-24 0.676897)
(0.152052 -3.29059e-11 0.355773)
(-0.0793242 1.45446e-08 0.369919)
(0.244478 -7.50512e-09 0.0312617)
(-0.0740513 -2.10628e-10 0.79394)
(-0.108003 1.34035e-08 0.312381)
(-0.0769506 1.45899e-08 0.474742)
(-0.096502 1.27574e-08 0.457195)
(0.0464395 -8.95252e-09 -0.125014)
(0.172721 -1.10342e-08 0.235642)
(0.0523209 -1.10785e-08 0.21932)
(-0.157258 1.49257e-24 0.832518)
(-0.202935 -1.49873e-25 0.752904)
(-0.167111 0 0.66648)
(-0.135586 1.15184e-26 0.603737)
(-0.0897813 0 0.540618)
(-0.0321342 0 0.479375)
(0.000452205 0 0.134719)
(0.0152012 0 0.127209)
(0.0444357 0 0.110394)
(0.0365072 0 0.0780524)
(-0.231648 0 0.0620553)
(-0.176027 0 0.104608)
(-0.0857401 0 0.147593)
(-0.0139534 -5.33025e-27 0.16816)
(0.0632186 4.98629e-27 0.238192)
(0.170578 1.36566e-25 0.332106)
(0.23875 0 0.432874)
(0.434509 2.18165e-24 0.602804)
(0.22726 -3.3682e-09 0.442161)
(0.0813833 -1.17498e-08 -0.341213)
(0.0674877 -1.71676e-08 -0.349066)
(0.190155 -6.38172e-09 -0.243335)
(0.206055 -6.54208e-09 -0.237846)
(0.297111 3.32735e-09 0.0581163)
(-0.246 -1.82718e-08 -0.537458)
(-0.114583 6.6619e-25 0.774143)
(-0.196111 -2.15819e-10 0.172585)
(0.147776 1.57494e-09 -0.0931276)
(0.282271 8.43474e-09 -0.0858323)
(0.186085 8.4376e-09 -0.24872)
(-0.248688 -2.23083e-08 -0.56446)
(-0.169883 -1.98807e-08 -0.459112)
(-0.152056 -2.29471e-08 -0.51789)
(-0.256967 8.31202e-25 0.785076)
(-0.22413 0 0.7001)
(-0.188835 0 0.625058)
(-0.150818 1.11423e-26 0.551922)
(-0.096926 0 0.483968)
(-0.0338434 0 0.420738)
(0.00468112 0 0.121343)
(0.0286206 0 0.10086)
(0.0645744 0 0.0730903)
(0.0538144 0 0.0228109)
(-0.164928 0 0.0336548)
(-0.114785 0 0.0883397)
(-0.0306287 0 0.140458)
(0.0552111 6.15494e-27 0.151054)
(0.161702 0 0.252334)
(0.270529 3.03866e-25 0.294165)
(0.459137 4.38194e-24 0.514008)
(0.357472 -1.8925e-09 0.487059)
(0.187887 -3.5524e-09 -0.198319)
(0.203218 -3.36936e-09 -0.182328)
(0.326861 1.14627e-10 -0.0603977)
(0.325399 -2.12152e-10 -0.0624305)
(-0.17664 -7.16253e-09 -0.809274)
(-0.133848 -1.26001e-09 -0.802509)
(-0.0682588 -2.47784e-09 -0.764648)
(-0.00747526 -1.27685e-09 -0.751087)
(-0.251478 -1.08662e-08 -0.619505)
(0.444275 5.21463e-08 -0.958238)
(-0.528789 7.6456e-08 -0.761624)
(0.462722 3.62622e-08 -0.85087)
(-0.469033 6.76952e-09 -0.720819)
(-0.278495 4.69082e-24 0.715565)
(-0.295151 -1.1746e-09 0.292036)
(0.064418 -5.8475e-10 -0.68068)
(-0.0313457 -8.1697e-10 -0.703407)
(-0.0416729 -4.00921e-09 -0.695775)
(-0.117415 -1.60276e-09 -0.714754)
(-0.2723 -1.6839e-08 -0.647109)
(-0.107621 1.3665e-09 -0.662514)
(-0.15009 -9.70546e-09 -0.70745)
(0.433658 -2.20955e-08 -0.973747)
(-0.50015 -4.2238e-08 -0.77347)
(0.443118 -4.57369e-09 -0.877913)
(-0.434552 -7.14338e-09 -0.716116)
(0.256441 5.98996e-08 -1.06644)
(-0.406893 6.89548e-08 -0.57626)
(0.00461407 5.19207e-08 -1.08378)
(-0.503395 4.78261e-09 -0.632387)
(0.267715 -2.68134e-08 -1.06694)
(-0.348794 -3.43796e-08 -0.556482)
(0.0310596 -8.59545e-09 -1.07184)
(-0.462254 -4.9933e-09 -0.620421)
(-0.293767 0 0.734392)
(-0.244851 -2.86232e-26 0.657812)
(-0.214956 0 0.571925)
(-0.163728 1.03602e-26 0.493321)
(-0.102085 0 0.424179)
(-0.0351494 0 0.359273)
(0.00916826 0 0.0945075)
(0.0411966 0 0.0637982)
(0.0798165 0 0.0307903)
(0.081945 0 -0.0310919)
(-0.0820418 0 0.00607703)
(-0.0401441 0 0.066888)
(0.032382 0 0.119795)
(0.139976 0 0.138536)
(0.274457 4.68767e-25 0.198856)
(0.447303 2.33959e-24 0.361998)
(0.509316 -3.98385e-10 0.468299)
(0.380466 2.29912e-09 0.0812241)
(0.363419 1.19387e-09 0.0712486)
(0.44576 3.193e-09 0.117075)
(0.421708 3.85159e-10 0.104737)
(-0.101108 -3.60072e-09 -0.656232)
(-0.0352932 1.49698e-09 -0.638994)
(-0.0141451 -3.84098e-09 -0.567899)
(0.031731 2.22682e-09 -0.561088)
(-0.450333 1.19731e-08 -0.879253)
(-0.340622 4.63591e-09 -0.579945)
(0.355493 1.1726e-08 -0.817088)
(-0.506222 1.02926e-08 -0.899319)
(0.370526 9.80036e-09 -0.771186)
(-0.099232 2.04581e-09 -1.20588)
(-0.292521 -2.19872e-09 -0.561673)
(-0.4317 -6.2465e-09 -0.879185)
(0.372414 -1.44688e-08 -0.824498)
(-0.481356 -6.40866e-09 -0.906361)
(0.380394 -1.0882e-08 -0.773309)
(-0.0678849 -3.44567e-09 -1.21106)
(-0.525506 1.19564e-08 -0.874733)
(0.352743 1.29607e-08 -0.758372)
(-0.519915 9.22342e-09 -0.899746)
(0.357531 1.19328e-08 -0.78286)
(-0.495337 -7.65802e-09 -0.880513)
(0.367571 -8.69964e-09 -0.74697)
(-0.494908 -7.09211e-09 -0.905681)
(0.374058 -1.00756e-08 -0.77722)
(0.48503 4.83165e-08 -0.758359)
(-0.625194 7.62834e-08 -0.802369)
(0.503848 3.50424e-08 -0.819112)
(-0.602408 6.85099e-09 -0.804085)
(-0.0949741 9.38029e-09 -1.10238)
(-0.301485 9.40155e-09 -0.706447)
(-0.077742 1.23228e-08 -1.0126)
(-0.307112 4.72249e-09 -0.666879)
(-0.337783 1.81167e-24 0.698217)
(-0.402742 -1.70997e-09 0.306023)
(0.0303528 -1.98282e-09 -0.68046)
(-0.0474045 -1.9207e-09 -0.70423)
(0.0605431 -1.2971e-09 -0.680303)
(-0.0277446 -1.34806e-09 -0.706849)
(-0.168082 -6.54558e-09 -0.778639)
(-0.19576 -5.36967e-09 -0.80386)
(-0.134641 -2.62719e-09 -0.823988)
(-0.136621 -7.14718e-09 -0.863183)
(0.465349 -2.14885e-08 -0.797559)
(-0.582164 -4.2977e-08 -0.81652)
(0.481155 -3.579e-09 -0.851978)
(-0.581143 -7.45797e-09 -0.830052)
(0.52046 5.7213e-08 -0.739264)
(-0.433451 9.66966e-08 -0.992521)
(0.563847 5.80195e-08 -0.369459)
(-0.537441 8.78185e-09 -0.840294)
(0.498086 -3.07211e-08 -0.78037)
(-0.419198 -4.73104e-08 -1.01946)
(0.54315 -2.06174e-08 -0.409769)
(-0.546373 -8.81447e-09 -0.869755)
(-0.059057 -1.17429e-08 -1.11555)
(-0.298119 -9.02116e-09 -0.720579)
(-0.0472335 -1.47013e-08 -1.02619)
(-0.302502 -5.57139e-09 -0.665188)
(-0.125269 1.31349e-09 -1.15549)
(-0.339023 1.03336e-09 -0.60136)
(-0.0901594 -4.05734e-09 -1.16563)
(-0.307975 -1.06337e-09 -0.585335)
(-0.290941 -2.57177e-25 0.687184)
(-0.283122 0 0.601777)
(-0.235315 0 0.508085)
(-0.172235 0 0.430934)
(-0.105922 0 0.36182)
(-0.0360781 0 0.295939)
(0.0136278 0 0.0585457)
(0.0471935 0 0.0169015)
(0.0943715 0 -0.00824275)
(0.100118 0 -0.0933906)
(0.0314449 0 -0.0363351)
(0.0520304 0 0.0341209)
(0.106975 0 0.0948652)
(0.244331 0 0.092803)
(0.392009 5.02984e-25 0.222908)
(0.586613 -7.6793e-10 0.377406)
(0.475539 2.90069e-09 0.222179)
(0.469732 1.50045e-10 0.217761)
(0.583803 5.2706e-09 0.208414)
(0.591628 1.29026e-09 0.209357)
(0.14945 -4.62848e-09 -0.42148)
(0.164349 1.93215e-09 -0.422465)
(0.266908 -4.20862e-09 -0.25201)
(0.269411 1.19378e-09 -0.275146)
(-0.505385 1.27249e-08 -0.865186)
(0.349561 1.14e-08 -0.741208)
(-0.475973 2.00567e-08 -0.854088)
(0.397324 1.41418e-08 -0.742997)
(-0.473368 -7.21875e-09 -0.869791)
(0.362548 -8.45372e-09 -0.727333)
(-0.441029 -8.84914e-09 -0.854399)
(0.404213 -9.30493e-09 -0.727864)
(-0.384392 2.13149e-08 -0.801262)
(0.443077 1.27176e-08 -0.712506)
(-0.454945 2.06841e-08 -0.826646)
(0.412618 1.35557e-08 -0.722178)
(-0.351324 -8.78909e-09 -0.796775)
(0.446093 -5.75814e-09 -0.708064)
(-0.421993 -9.01614e-09 -0.82417)
(0.417483 -8.16747e-09 -0.712785)
(-0.369348 4.2069e-09 -0.848852)
(-0.141771 4.88963e-10 -0.987712)
(-0.105114 7.57854e-10 -0.958049)
(0.24491 5.87704e-09 -0.831799)
(-0.188445 1.24561e-09 -0.929825)
(0.0331836 2.47826e-09 -0.812481)
(-0.35703 -3.63933e-09 -0.855658)
(-0.117384 -2.09026e-10 -0.967155)
(0.304116 -8.16211e-09 -0.855165)
(-0.0504704 -4.07975e-10 -0.938337)
(-0.159228 -1.21363e-09 -0.906295)
(0.074929 -1.39439e-09 -0.800044)
(-0.21702 1.9072e-09 -0.916959)
(0.0604998 3.05431e-09 -0.798834)
(-0.199226 1.81261e-09 -0.908391)
(0.0637491 2.79899e-09 -0.789395)
(-0.180985 -1.49042e-09 -0.900507)
(0.0885577 -3.26297e-09 -0.785602)
(-0.16748 -1.72784e-09 -0.89197)
(0.0962942 -2.98975e-09 -0.780304)
(0.0242256 1.56337e-08 -0.895729)
(-0.258434 1.1282e-08 -0.766237)
(-0.00220953 1.33735e-08 -0.988201)
(-0.206152 8.2816e-09 -0.783152)
(0.00189616 1.63189e-09 -0.810209)
(-0.168196 1.46228e-09 -0.797306)
(-0.0101939 2.10402e-09 -0.767364)
(-0.214397 1.41871e-09 -0.812932)
(-0.334307 0 0.678026)
(-0.444013 -1.21501e-09 0.325801)
(-0.167963 -4.20069e-09 -0.645456)
(-0.170687 -3.40295e-09 -0.650853)
(-0.0306743 -4.029e-09 -0.655817)
(-0.0752754 -3.77874e-09 -0.671474)
(-0.244401 -8.60517e-09 -0.810094)
(-0.230665 -4.39381e-09 -0.802497)
(-0.209107 -6.30968e-09 -0.78105)
(-0.224859 -4.35159e-09 -0.801219)
(-0.535911 2.71087e-08 -0.925704)
(0.453208 1.8897e-08 -0.867831)
(-0.551592 1.77058e-08 -0.976528)
(0.353228 1.48586e-08 -0.883766)
(-0.543403 -1.1673e-08 -0.927873)
(0.434316 -1.66567e-08 -0.879624)
(-0.560266 -9.23981e-09 -0.994359)
(0.342459 -1.65195e-08 -0.907511)
(-0.284742 1.29318e-08 -1.00694)
(-0.12007 2.23834e-08 -1.05326)
(0.133309 8.73561e-09 -0.873549)
(-0.540898 1.65627e-08 -1.02883)
(0.232029 1.26223e-08 -0.899077)
(0.313031 2.9126e-08 -0.421959)
(-0.287514 -5.26398e-09 -1.02634)
(-0.13712 -1.72606e-08 -1.08232)
(0.122404 -1.15651e-08 -0.887288)
(-0.547601 -7.68793e-09 -1.05043)