/*--------------------------------*- C++ -*----------------------------------*\
| =========                 |                                                 |
| \\      /  F ield         | OpenFOAM: The Open Source CFD Toolbox           |
|  \\    /   O peration     | Version:  5.x                                   |
|   \\  /    A nd           | Web:      www.OpenFOAM.org                      |
|    \\/     M anipulation  |                                                 |
\*---------------------------------------------------------------------------*/
FoamFile
{
    version     2.0;
    format      ascii;
    class       surfaceVectorField;
    location    "0.5";
    object      Uf;
}
// * * * * * * * * * * * * * * * * * * * * * * * * * * * * * * * * * * * * * //

dimensions      [0 1 -1 0 0 0 0];

internalField   nonuniform List<vector> 
30582
(
(0.21972 0 0.00330992)
(0.205501 0 0.00136555)
(0.208258 0 0.00457362)
(0.225167 0 0.00458483)
(0.219196 0 0.00229518)
(0.205108 0 0.00294783)
(0.189009 0 0.00489275)
(0.192359 0 0.00783817)
(0.207933 0 0.00735179)
(0.225261 0 0.00909012)
(0.219124 0 0.0105026)
(0.203894 0 0.00457987)
(0.168674 0 0.00501314)
(0.183753 0 0.00842886)
(0.189278 0 0.0108958)
(0.193227 0 0.0154344)
(0.208898 0 0.018118)
(0.224155 0 0.0131809)
(0.216266 0 0.00639178)
(0.202308 0 0.00736724)
(0.144948 0 0.00525311)
(0.152944 0 0.0100102)
(0.168932 0 0.0131433)
(0.18468 0 0.016862)
(0.191197 0 0.0222416)
(0.193584 0 0.022642)
(0.206634 0 0.0165274)
(0.223113 0 0.017034)
(0.215426 0 0.0191771)
(0.198946 0 0.010528)
(0.121657 0 0.00509778)
(0.134632 0 0.0100033)
(0.145076 0 0.0146555)
(0.153373 0 0.0200752)
(0.169969 0 0.0244958)
(0.185555 0 0.025661)
(0.191137 0 0.0248517)
(0.194926 0 0.0289526)
(0.208549 0 0.0306397)
(0.219505 0 0.0197849)
(0.207251 0 0.0100669)
(0.196354 0 0.0169552)
(0.0995221 0 0.00472799)
(0.108569 0 0.00967725)
(0.121507 0 0.0145912)
(0.134584 0 0.0201261)
(0.145438 0 0.0260726)
(0.153737 0 0.0304252)
(0.170038 0 0.030579)
(0.187757 0 0.0344061)
(0.195503 0 0.039545)
(0.195656 0 0.034265)
(0.202937 0 0.0224179)
(0.21648 0 0.0215109)
(0.205586 0 0.0292257)
(0.189008 0 0.0241017)
(0.0799414 0 0.00415613)
(0.0891386 0 0.00871419)
(0.099154 0 0.0136955)
(0.108172 0 0.0194498)
(0.121188 0 0.0253551)
(0.134249 0 0.0305414)
(0.145275 0 0.0340959)
(0.154973 0 0.0408734)
(0.173176 0 0.0458252)
(0.189819 0 0.0436601)
(0.194795 0 0.0375403)
(0.198238 0 0.0375802)
(0.207854 0 0.0359457)
(0.205768 0 0.0206037)
(0.182134 0 0.0133318)
(0.160359 0 0.0405396)
(0.0632607 0 0.00353094)
(0.0707624 0 0.00755669)
(0.0794475 0 0.0121397)
(0.0884383 0 0.0174843)
(0.0983681 0 0.023476)
(0.107343 0 0.0294263)
(0.120296 0 0.034053)
(0.134173 0 0.0412698)
(0.146858 0 0.049218)
(0.155954 0 0.0519773)
(0.172863 0 0.0488003)
(0.193564 0 0.0527511)
(0.202662 0 0.0521074)
(0.199767 0 0.0396944)
(0.195186 0 0.0231183)
(0.198508 0 0.0153824)
(0.162091 0 0.0427482)
(0.00687192 0 -0.0293952)
(0.0494973 0 0.00292198)
(0.055698 0 0.0063464)
(0.0627256 0 0.010382)
(0.0699581 0 0.015132)
(0.078398 0 0.0206188)
(0.0871614 0 0.0263718)
(0.0969493 0 0.0319007)
(0.106393 0 0.0396331)
(0.120061 0 0.0479929)
(0.133524 0 0.052779)
(0.145952 0 0.0542345)
(0.157664 0 0.0633312)
(0.178636 0 0.0681063)
(0.198715 0 0.0627097)
(0.202198 0 0.0519454)
(0.218221 0 0.0368394)
(0.225599 0 0.0356135)
(0.196193 0 -0.010022)
(0.0242326 0 -0.0842123)
(-0.0885482 0 -0.0391787)
(0.0384047 0 0.00237232)
(0.0433535 0 0.00520706)
(0.0489799 0 0.00862882)
(0.0548845 0 0.0126846)
(0.061607 0 0.0175084)
(0.0685452 0 0.0227387)
(0.076695 0 0.0281651)
(0.085492 0 0.0353858)
(0.0955889 0 0.0441376)
(0.104639 0 0.0503319)
(0.117713 0 0.053545)
(0.132917 0 0.064908)
(0.148339 0 0.0758796)
(0.160928 0 0.076114)
(0.181755 0 0.0727673)
(0.23294 0 0.0711828)
(0.257038 0 0.0625691)
(0.295495 0 0.0240377)
(0.281669 0 -0.0183199)
(0.16988 0 -0.113001)
(0.053601 0 -0.0779707)
(-0.0046584 0 -0.0602425)
(0.0296121 0 0.00189959)
(0.0335133 0 0.00420137)
(0.037936 0 0.00702583)
(0.0425981 0 0.0103912)
(0.0479105 0 0.0144764)
(0.0534842 0 0.0190002)
(0.0598577 0 0.0239686)
(0.0666395 0 0.0303664)
(0.0747357 0 0.0384577)
(0.0829117 0 0.0446662)
(0.0923558 0 0.0491479)
(0.102477 0 0.0614176)
(0.117051 0 0.075292)
(0.132656 0 0.078346)
(0.149312 0 0.0786001)
(0.199175 0 0.089802)
(0.252364 0 0.0892497)
(0.363132 0 0.07312)
(0.415339 0 0.0419174)
(0.280649 0 -0.0303927)
(0.174362 0 -0.127842)
(0.0813307 0 -0.161307)
(0.0329222 0 -0.138012)
(0.0338109 0 -0.0731799)
(0.0227273 0 0.00150591)
(0.0257667 0 0.00334857)
(0.0292053 0 0.00563637)
(0.0328477 0 0.00837309)
(0.0369753 0 0.0117412)
(0.0413127 0 0.0155244)
(0.0462673 0 0.0198369)
(0.0515761 0 0.0252668)
(0.0577239 0 0.0323788)
(0.0638491 0 0.038073)
(0.0712138 0 0.0425737)
(0.0798133 0 0.0540752)
(0.0899557 0 0.0691869)
(0.0998892 0 0.0732635)
(0.114627 0 0.0741171)
(0.173674 0 0.093243)
(0.229734 0 0.0991206)
(0.349201 0 0.0993499)
(0.475001 0 0.0891773)
(0.407179 0 0.0483902)
(0.28507 0 -0.0247768)
(0.0718866 0 -0.0754725)
(-0.030947 0 -0.113958)
(-0.00395073 0 -0.135758)
(0.00333628 0 -0.084508)
(0.019675 0 -0.0744909)
(0.0173835 0 0.00118568)
(0.0197334 0 0.00264575)
(0.0223848 0 0.0044736)
(0.0252004 0 0.00666584)
(0.0283774 0 0.00939054)
(0.0317236 0 0.0124814)
(0.0355141 0 0.016095)
(0.0395543 0 0.0205722)
(0.0442107 0 0.0265715)
(0.0488746 0 0.0314978)
(0.0542882 0 0.0355981)
(0.0605712 0 0.0457408)
(0.068239 0 0.0601616)
(0.0758561 0 0.06374)
(0.0854131 0 0.0641337)
(0.141558 0 0.0860354)
(0.198935 0 0.0969908)
(0.329343 0 0.106471)
(0.465196 0 0.109749)
(0.390606 0 0.103487)
(0.338207 0 0.0684154)
(0.149298 0 0.026366)
(-0.0551438 0 -0.0237013)
(-0.0662643 0 -0.0656196)
(-0.0470874 0 -0.090952)
(-0.0142928 0 -0.115588)
(0.00370225 0 -0.0968072)
(0.0102513 0 -0.0759458)
(0.0132596 0 0.000929747)
(0.0150681 0 0.00207857)
(0.0171015 0 0.00352484)
(0.0192636 0 0.00526155)
(0.0216916 0 0.00743506)
(0.0242489 0 0.00991763)
(0.0271262 0 0.012873)
(0.030183 0 0.0164894)
(0.0336617 0 0.0214109)
(0.0371169 0 0.025524)
(0.041093 0 0.0290368)
(0.0457738 0 0.0375822)
(0.0512766 0 0.0505132)
(0.0562448 0 0.0534251)
(0.0628065 0 0.0526125)
(0.120325 0 0.0738007)
(0.177304 0 0.0869783)
(0.290603 0 0.095492)
(0.421842 0 0.108989)
(0.333897 0 0.125092)
(0.270321 0 0.130241)
(0.141606 0 0.132128)
(-0.0501406 0 0.08154)
(-0.0646006 0 0.0242923)
(-0.0663257 0 -0.0206182)
(-0.0523214 0 -0.0577857)
(-0.0250384 0 -0.0812147)
(-0.00547184 0 -0.104091)
(0.00238543 0 -0.0883468)
(0.0100859 0 0.000727962)
(0.0114749 0 0.00162814)
(0.0130311 0 0.00276503)
(0.0146852 0 0.00413015)
(0.0165329 0 0.00584645)
(0.018477 0 0.00781569)
(0.0206483 0 0.0101906)
(0.0229438 0 0.0130683)
(0.0255286 0 0.0170251)
(0.0280784 0 0.0203757)
(0.0309584 0 0.023284)
(0.0343695 0 0.0302814)
(0.0383373 0 0.0413441)
(0.0415751 0 0.0435486)
(0.0456873 0 0.041963)
(0.102788 0 0.0611804)
(0.159225 0 0.0742292)
(0.249081 0 0.0818468)
(0.358023 0 0.0963487)
(0.266306 0 0.123393)
(0.178922 0 0.152004)
(0.112139 0 0.164347)
(-0.0197469 0 0.151323)
(-0.044116 0 0.119305)
(-0.0677113 0 0.0674505)
(-0.0613017 0 0.0248666)
(-0.0411943 0 -0.0131377)
(-0.0249531 0 -0.0512071)
(-0.00832624 0 -0.074413)
(0.00764392 0 0.000570594)
(0.00871273 0 0.00127526)
(0.00990309 0 0.00216533)
(0.0111673 0 0.00323285)
(0.0125718 0 0.00457847)
(0.0140461 0 0.00612664)
(0.0156798 0 0.00801099)
(0.0173976 0 0.0102757)
(0.0193103 0 0.0134103)
(0.0211805 0 0.0160926)
(0.023258 0 0.0184457)
(0.0257379 0 0.0240552)
(0.0285688 0 0.0332325)
(0.0305807 0 0.0348669)
(0.0330783 0 0.0328481)
(0.0898737 0 0.0493626)
(0.14655 0 0.0614743)
(0.205546 0 0.0669222)
(0.288476 0 0.0818816)
(0.210402 0 0.112798)
(0.112461 0 0.145052)
(0.0790275 0 0.152449)
(0.011901 0 0.155505)
(-0.00784475 0 0.150754)
(-0.035113 0 0.127271)
(-0.0423908 0 0.105551)
(-0.0430208 0 0.0628055)
(-0.0317563 0 0.0256237)
(-0.0127421 0 -0.0115424)
(0.00575972 0 0.000449291)
(0.00658518 0 0.00100163)
(0.0074995 0 0.00169761)
(0.00846863 0 0.00253046)
(0.00953699 0 0.00358033)
(0.0106551 0 0.00478978)
(0.0118846 0 0.00627134)
(0.0131691 0 0.00803952)
(0.0145827 0 0.0104964)
(0.0159519 0 0.0126164)
(0.017446 0 0.01449)
(0.0192394 0 0.0189194)
(0.0212535 0 0.0263575)
(0.0224651 0 0.0275507)
(0.0238918 0 0.0254391)
(0.0801334 0 0.0391792)
(0.136472 0 0.0497519)
(0.164269 0 0.0540097)
(0.216265 0 0.0678588)
(0.161285 0 0.0996358)
(0.0762209 0 0.127406)
(0.0598465 0 0.128926)
(0.026929 0 0.137499)
(0.0148319 0 0.145879)
(-0.00361907 0 0.14303)
(-0.0126101 0 0.137228)
(-0.0215178 0 0.116867)
(-0.0210952 0 0.0964787)
(-0.0131759 0 0.0599624)
(0.00429512 0 0.000357201)
(0.00493941 0 0.000792531)
(0.00564728 0 0.00133734)
(0.00639412 0 0.00198624)
(0.00721143 0 0.00280367)
(0.00806314 0 0.00374492)
(0.00899027 0 0.0049021)
(0.00995253 0 0.00627462)
(0.0109993 0 0.00818585)
(0.0120027 0 0.00984559)
(0.0130774 0 0.0113201)
(0.0143721 0 0.0147793)
(0.015801 0 0.0207068)
(0.0164992 0 0.0215714)
(0.0172549 0 0.0195694)
(0.0728325 0 0.030722)
(0.128684 0 0.0396241)
(0.130687 0 0.042835)
(0.153105 0 0.0554959)
(0.118109 0 0.0831331)
(0.0562018 0 0.107205)
(0.0472054 0 0.108705)
(0.0306382 0 0.116475)
(0.0240257 0 0.127275)
(0.0139133 0 0.133878)
(0.00655261 0 0.138214)
(-0.0021781 0 0.13448)
(-0.00611823 0 0.128921)
(-0.00645974 0 0.110063)
(0.00314223 0 0.000288849)
(0.00365414 0 0.000635043)
(0.00420927 0 0.00106395)
(0.00479209 0 0.00157067)
(0.00542352 0 0.0022065)
(0.00607712 0 0.00293667)
(0.00678157 0 0.00383693)
(0.00750705 0 0.00489836)
(0.0082853 0 0.00637691)
(0.00902351 0 0.00766695)
(0.00979957 0 0.00881708)
(0.0107349 0 0.0114977)
(0.0117483 0 0.0161639)
(0.0121284 0 0.0167858)
(0.0124789 0 0.0149985)
(0.0672655 0 0.0238943)
(0.122443 0 0.0311793)
(0.105398 0 0.0337042)
(0.103929 0 0.0444747)
(0.0838893 0 0.0659191)
(0.0440676 0 0.0852014)
(0.0395053 0 0.0887282)
(0.0310307 0 0.0972487)
(0.0260245 0 0.108527)
(0.0201785 0 0.116921)
(0.0149955 0 0.124487)
(0.00871663 0 0.12978)
(0.003624 0 0.133451)
(-0.000213835 0 0.129101)
(0.00221451 0 0.000239975)
(0.00263193 0 0.000520158)
(0.00307814 0 0.000860979)
(0.00354266 0 0.00125808)
(0.00403826 0 0.00175397)
(0.0045477 0 0.00232026)
(0.00508965 0 0.00301824)
(0.00564232 0 0.00383609)
(0.00622691 0 0.0049762)
(0.00677522 0 0.00597328)
(0.00733931 0 0.00686317)
(0.00801746 0 0.00892911)
(0.0087384 0 0.0125716)
(0.00892823 0 0.0130147)
(0.00904642 0 0.0114776)
(0.0629025 0 0.0184853)
(0.117274 0 0.0243301)
(0.0878661 0 0.0264085)
(0.0687953 0 0.0352189)
(0.0585416 0 0.0504923)
(0.0355548 0 0.0646806)
(0.0332555 0 0.0699152)
(0.0295723 0 0.0790386)
(0.0260173 0 0.0894007)
(0.0217725 0 0.0987831)
(0.0173304 0 0.107805)
(0.0127637 0 0.115628)
(0.00797885 0 0.122686)
(0.0033577 0 0.126968)
(0.00144343 0 0.000207265)
(0.00179781 0 0.000440111)
(0.00216863 0 0.000715752)
(0.0025502 0 0.00103011)
(0.00295048 0 0.00141831)
(0.00335782 0 0.00185726)
(0.00378323 0 0.00239809)
(0.00421246 0 0.0030272)
(0.00465881 0 0.00390376)
(0.00507224 0 0.00466967)
(0.00548845 0 0.00535324)
(0.00598472 0 0.00693984)
(0.00650048 0 0.00976703)
(0.00658172 0 0.0100772)
(0.00657617 0 0.00878547)
(0.0593315 0 0.0142598)
(0.112738 0 0.0188822)
(0.0762568 0 0.0207309)
(0.0456271 0 0.0277053)
(0.0406995 0 0.0376769)
(0.0288648 0 0.0475235)
(0.0279341 0 0.0536889)
(0.0264053 0 0.0624853)
(0.0239492 0 0.0714018)
(0.0210876 0 0.0806862)
(0.0175579 0 0.0897165)
(0.0136709 0 0.0987222)
(0.00912567 0 0.107394)
(0.00466762 0 0.114644)
(0.000772976 0 0.000188344)
(0.00108992 0 0.000389507)
(0.00141338 0 0.000618401)
(0.00174145 0 0.000871176)
(0.00207747 0 0.00117811)
(0.00241498 0 0.00151959)
(0.00276051 0 0.00193816)
(0.0031044 0 0.00242059)
(0.00345405 0 0.00309397)
(0.00377428 0 0.00367911)
(0.00408873 0 0.00419881)
(0.0044575 0 0.00541374)
(0.00483175 0 0.00760157)
(0.00485638 0 0.00781129)
(0.00479254 0 0.00673796)
(0.0562207 0 0.0109922)
(0.108497 0 0.0146118)
(0.0682845 0 0.0163971)
(0.0309116 0 0.021968)
(0.0285554 0 0.0280168)
(0.0227452 0 0.0344881)
(0.0227273 0 0.0406533)
(0.0222531 0 0.0484366)
(0.0207808 0 0.055673)
(0.0189091 0 0.064121)
(0.0161566 0 0.0724245)
(0.0130888 0 0.0812871)
(0.0091291 0 0.0899849)
(0.0048751 0 0.0986391)
(0.000157262 0 0.000181584)
(0.000458244 0 0.000364153)
(0.000757488 0 0.00056176)
(0.00105621 0 0.000770557)
(0.00135405 0 0.00101695)
(0.00164862 0 0.00128408)
(0.00194235 0 0.00160892)
(0.00222986 0 0.00197832)
(0.00251535 0 0.00249477)
(0.00277409 0 0.00293765)
(0.00302072 0 0.0033279)
(0.00330232 0 0.00425704)
(0.00358036 0 0.0059482)
(0.00358063 0 0.00607897)
(0.003498 0 0.00518879)
(0.0532828 0 0.00848732)
(0.10419 0 0.0113032)
(0.0623682 0 0.0132021)
(0.0214259 0 0.0178441)
(0.020196 0 0.0211782)
(0.0172284 0 0.0252209)
(0.0177467 0 0.0307482)
(0.0178853 0 0.0372171)
(0.0171051 0 0.0427777)
(0.0159584 0 0.0499346)
(0.0140019 0 0.0570829)
(0.0116377 0 0.0651227)
(0.00831093 0 0.0731057)
(0.00458102 0 0.081673)
(-0.000443868 0 0.000186078)
(-0.000139348 0 0.00036189)
(0.000155784 0 0.000541156)
(0.000445706 0 0.000720023)
(0.000727115 0 0.00092304)
(0.00100099 0 0.00113479)
(0.00126651 0 0.00138792)
(0.0015218 0 0.00166983)
(0.00176803 0 0.00206619)
(0.00198903 0 0.00239733)
(0.00219395 0 0.0026837)
(0.00241862 0 0.00339305)
(0.00263329 0 0.00470277)
(0.00262993 0 0.00476952)
(0.0025518 0 0.00402411)
(0.0502248 0 0.00658195)
(0.0994709 0 0.00876864)
(0.0575104 0 0.0109517)
(0.0150262 0 0.0150919)
(0.0142715 0 0.0164852)
(0.0126117 0 0.0188194)
(0.0133548 0 0.0235051)
(0.0138017 0 0.0287359)
(0.0134823 0 0.03277)
(0.0128165 0 0.0384407)
(0.0115143 0 0.0443058)
(0.00977995 0 0.0511337)
(0.00715566 0 0.0579706)
(0.00402149 0 0.0657641)
(-0.00106658 0 0.000201684)
(-0.000740214 0 0.000381606)
(-0.000431455 0 0.000554236)
(-0.000131303 0 0.000715417)
(0.000152888 0 0.000888767)
(0.000425286 0 0.00105965)
(0.000682527 0 0.00125914)
(0.000925723 0 0.00147407)
(0.00115363 0 0.00177842)
(0.00135701 0 0.00202051)
(0.00154007 0 0.00222281)
(0.00173 0 0.00276396)
(0.00190597 0 0.00378248)
(0.00191281 0 0.00379368)
(0.00185236 0 0.00315692)
(0.046723 0 0.005148)
(0.093838 0 0.00685954)
(0.0530348 0 0.00957635)
(0.0104687 0 0.0135416)
(0.00990486 0 0.0133318)
(0.0088756 0 0.0144419)
(0.0096774 0 0.0184019)
(0.0102693 0 0.0225924)
(0.0102375 0 0.0252855)
(0.00988022 0 0.0295358)
(0.0090707 0 0.0342238)
(0.00785089 0 0.0397224)
(0.00586653 0 0.0452441)
(0.00335373 0 0.0518749)
(-0.00174593 0 0.000228914)
(-0.0013806 0 0.000423783)
(-0.00103991 0 0.000600561)
(-0.000711439 0 0.00075447)
(-0.000407168 0 0.000910175)
(-0.000118106 0 0.00105258)
(0.000148714 0 0.00121225)
(0.000397533 0 0.00137537)
(0.000625052 0 0.00161025)
(0.000827728 0 0.00178116)
(0.00100596 0 0.00191318)
(0.00117981 0 0.00232537)
(0.00133542 0 0.00312436)
(0.00136182 0 0.00308386)
(0.00132751 0 0.00252144)
(0.042394 0 0.00408277)
(0.0867237 0 0.00545517)
(0.0483946 0 0.00899776)
(0.00700009 0 0.0130421)
(0.00658391 0 0.0114203)
(0.00584753 0 0.0114865)
(0.00666506 0 0.0149131)
(0.00734539 0 0.0183058)
(0.00747577 0 0.019902)
(0.00734056 0 0.0228993)
(0.0068902 0 0.0265656)
(0.00606455 0 0.0308508)
(0.00462087 0 0.0351082)
(0.00268035 0 0.0404462)
(-0.002517 0 0.000268547)
(-0.0020941 0 0.000489614)
(-0.00170415 0 0.000681306)
(-0.00133009 0 0.000838138)
(-0.000987665 0 0.000986438)
(-0.000664346 0 0.0011102)
(-0.000371372 0 0.00124177)
(-0.000100042 0 0.00136569)
(0.000143362 0 0.00154806)
(0.000360805 0 0.00166026)
(0.000549125 0 0.00173234)
(0.000722477 0 0.00204657)
(0.000873645 0 0.00268244)
(0.000928246 0 0.00258894)
(0.00092549 0 0.00206915)
(0.0368143 0 0.00330927)
(0.0773146 0 0.00450268)
(0.0432208 0 0.00926558)
(0.00430148 0 0.0133756)
(0.00392185 0 0.0104581)
(0.00338795 0 0.00960355)
(0.00423537 0 0.0127277)
(0.00494771 0 0.0155052)
(0.00520088 0 0.0161652)
(0.0052419 0 0.018144)
(0.00503532 0 0.0209787)
(0.00452167 0 0.0242255)
(0.00351474 0 0.0273432)
(0.00206599 0 0.0314745)
(-0.003416 0 0.000321625)
(-0.00291652 0 0.000581082)
(-0.0024586 0 0.000798824)
(-0.00201993 0 0.000968664)
(-0.00162187 0 0.00111948)
(-0.00124716 0 0.00123376)
(-0.000910524 0 0.00134646)
(-0.000599966 0 0.0014406)
(-0.000325026 0 0.00158466)
(-7.77652e-05 0 0.00164766)
(0.000134542 0 0.0016658)
(0.000321525 0 0.00190546)
(0.000481924 0 0.00242399)
(0.000572914 0 0.00227415)
(0.000608677 0 0.00176541)
(0.0296908 0 0.00276977)
(0.0650411 0 0.00395499)
(0.0370432 0 0.010191)
(0.00233961 0 0.0145576)
(0.00185544 0 0.0103462)
(0.00138333 0 0.00860384)
(0.00224087 0 0.0115428)
(0.00299508 0 0.0138678)
(0.00335514 0 0.0137658)
(0.00352298 0 0.0148958)
(0.0035088 0 0.0170629)
(0.00324639 0 0.0194704)
(0.00257474 0 0.0216329)
(0.00153863 0 0.0247059)
(-0.00448084 0 0.000389503)
(-0.00388416 0 0.000700636)
(-0.00333863 0 0.000956426)
(-0.0028156 0 0.00114989)
(-0.0023428 0 0.00131306)
(-0.00189767 0 0.00142643)
(-0.00150003 0 0.00152883)
(-0.00113359 0 0.0016015)
(-0.000810615 0 0.00171826)
(-0.000517972 0 0.00173816)
(-0.000267506 0 0.0017059)
(-5.34517e-05 0 0.0018897)
(0.000128758 0 0.00232733)
(0.000264808 0 0.00211434)
(0.000344995 0 0.00158662)
(0.0209234 0 0.00242734)
(0.0495301 0 0.00363772)
(0.0295575 0 0.0116232)
(0.00100754 0 0.0166631)
(0.000362217 0 0.0109379)
(-0.000207633 0 0.00825951)
(0.000635789 0 0.0112226)
(0.00144821 0 0.0131783)
(0.00185942 0 0.0123798)
(0.00215031 0 0.0128498)
(0.00227356 0 0.0144954)
(0.00219948 0 0.0162227)
(0.00180067 0 0.0176096)
(0.00110154 0 0.0198068)
(-0.00575182 0 0.000473858)
(-0.00503579 0 0.000851233)
(-0.00438132 0 0.00115816)
(-0.00375231 0 0.0013867)
(-0.00318436 0 0.00157261)
(-0.00264879 0 0.00169385)
(-0.00217101 0 0.00179393)
(-0.00172998 0 0.00185249)
(-0.00134211 0 0.00195192)
(-0.000988057 0 0.00193304)
(-0.00068423 0 0.00185069)
(-0.000429197 0 0.00199353)
(-0.000212404 0 0.0023811)
(-2.09207e-05 0 0.00209508)
(0.00011091 0 0.00151815)
(0.0107974 0 0.00225278)
(0.0310412 0 0.00344071)
(0.0206632 0 0.013169)
(0.000209221 0 0.0192895)
(-0.000541206 0 0.0120789)
(-0.00126174 0 0.00835799)
(-0.000519653 0 0.011529)
(0.000284368 0 0.0132804)
(0.000685441 0 0.0118637)
(0.00104839 0 0.011758)
(0.00127282 0 0.0129761)
(0.00135261 0 0.0141624)
(0.00117286 0 0.0149456)
(0.000744099 0 0.0164326)
(-0.00727231 0 0.000576709)
(-0.00641289 0 0.00103658)
(-0.00562643 0 0.0014091)
(-0.00486793 0 0.00168514)
(-0.00418244 0 0.00190505)
(-0.00353419 0 0.00204341)
(-0.00295556 0 0.00214932)
(-0.00241984 0 0.00220095)
(-0.0019482 0 0.00229233)
(-0.00151435 0 0.00223733)
(-0.00114088 0 0.00210325)
(-0.000830671 0 0.00221791)
(-0.000565798 0 0.00258229)
(-0.000306165 0 0.00221009)
(-0.000112647 0 0.00155228)
(1.61626e-05 0 0.00222966)
(0.0105403 0 0.00337095)
(0.0106041 0 0.0143778)
(-0.00011974 0 0.0216834)
(-0.000828429 0 0.0133601)
(-0.0016544 0 0.00870325)
(-0.00115391 0 0.0123031)
(-0.000487903 0 0.0139554)
(-0.000147286 0 0.011962)
(0.000227645 0 0.0113929)
(0.000484759 0 0.0123158)
(0.000674157 0 0.0130426)
(0.000663089 0 0.0133432)
(0.000460201 0 0.0142713)
(-0.00908921 0 0.000700421)
(-0.00806037 0 0.00126096)
(-0.00711706 0 0.0017153)
(-0.00620339 0 0.0020528)
(-0.00537589 0 0.00231907)
(-0.00459043 0 0.00248447)
(-0.00388788 0 0.00260476)
(-0.00323492 0 0.00265686)
(-0.00265872 0 0.00274965)
(-0.00212474 0 0.0026602)
(-0.00166298 0 0.00247066)
(-0.00128129 0 0.00256885)
(-0.000953844 0 0.00293521)
(-0.000611163 0 0.00245997)
(-0.000343782 0 0.00168682)
(-0.0104971 0 0.00235173)
(-0.0103207 0 0.00342498)
(-1.88459e-05 0 0.0147883)
(-0.000120845 0 0.0230689)
(-0.000589699 0 0.0143785)
(-0.00136102 0 0.00908624)
(-0.00122164 0 0.0131897)
(-0.00081329 0 0.0149267)
(-0.000608085 0 0.0124889)
(-0.000313485 0 0.0115343)
(-6.85694e-05 0 0.0122655)
(0.000169838 0 0.0126467)
(0.000266035 0 0.0125936)
(0.000236893 0 0.0130689)
(-0.011254 0 0.000847631)
(-0.0100273 0 0.00152929)
(-0.00890006 0 0.00208364)
(-0.00780328 0 0.00249838)
(-0.00680719 0 0.00282498)
(-0.00585738 0 0.00302857)
(-0.00500532 0 0.00317245)
(-0.0042099 0 0.00323288)
(-0.00350565 0 0.00333719)
(-0.00284839 0 0.00321413)
(-0.00227737 0 0.00296372)
(-0.00180602 0 0.00305733)
(-0.00139935 0 0.00345087)
(-0.000954772 0 0.00285173)
(-0.00059822 0 0.00192444)
(-0.0199312 0 0.00261869)
(-0.0298711 0 0.00359903)
(-0.0103948 0 0.0143323)
(-4.13994e-05 0 0.0230078)
(-6.98815e-05 0 0.0147404)
(-0.00055441 0 0.00934167)
(-0.000797379 0 0.0139014)
(-0.000727776 0 0.0158431)
(-0.000695391 0 0.0131401)
(-0.000541785 0 0.0119456)
(-0.000374361 0 0.0126192)
(-0.000159397 0 0.0127456)
(-1.3213e-05 0 0.0124501)
(7.27977e-05 0 0.0125952)
(-0.0138217 0 0.00102088)
(-0.0123672 0 0.0018466)
(-0.0110268 0 0.00252158)
(-0.00971641 0 0.00303173)
(-0.00852265 0 0.00343443)
(-0.00737872 0 0.00368894)
(-0.00634903 0 0.00386681)
(-0.00538301 0 0.00394463)
(-0.00452438 0 0.00407163)
(-0.00371742 0 0.00391517)
(-0.00301297 0 0.00359692)
(-0.00243119 0 0.00369814)
(-0.00192668 0 0.0041453)
(-0.00135817 0 0.00339818)
(-0.000892738 0 0.00227249)
(-0.0278099 0 0.00303874)
(-0.0468086 0 0.00388595)
(-0.0198232 0 0.0131845)
(-0.000127945 0 0.0215841)
(0.000403865 0 0.0143851)
(0.000404345 0 0.00937786)
(-9.64432e-05 0 0.014163)
(-0.000354452 0 0.0163901)
(-0.000477567 0 0.0136805)
(-0.00048493 0 0.0123946)
(-0.00043566 0 0.0131071)
(-0.000301619 0 0.0131066)
(-0.000168228 0 0.0127004)
(-3.58539e-05 0 0.0126196)
(-0.0168517 0 0.00122263)
(-0.0151364 0 0.00221784)
(-0.0135524 0 0.00303646)
(-0.0119958 0 0.00366287)
(-0.0105731 0 0.00415992)
(-0.00920243 0 0.00448024)
(-0.00796411 0 0.00470391)
(-0.00679647 0 0.00480984)
(-0.00575422 0 0.00497257)
(-0.00476766 0 0.00478306)
(-0.00390215 0 0.00438858)
(-0.00318589 0 0.0045107)
(-0.00256154 0 0.00503949)
(-0.00184383 0 0.00411588)
(-0.00124788 0 0.00274303)
(-0.0340804 0 0.00362774)
(-0.0606008 0 0.00427791)
(-0.027889 0 0.0117965)
(-0.000560231 0 0.0193198)
(0.000536768 0 0.0134538)
(0.00112804 0 0.00921638)
(0.000559882 0 0.0139412)
(9.28023e-05 0 0.0163969)
(-9.3389e-05 0 0.0138935)
(-0.000224136 0 0.0126959)
(-0.000300091 0 0.0135262)
(-0.000277069 0 0.0135057)
(-0.000203669 0 0.0130928)
(-8.57666e-05 0 0.0129107)
(-0.0204045 0 0.00145503)
(-0.0183967 0 0.00264731)
(-0.0165359 0 0.00363526)
(-0.0146978 0 0.00440163)
(-0.0130129 0 0.00501388)
(-0.0113808 0 0.0054175)
(-0.00990039 0 0.00570102)
(-0.00849693 0 0.0058481)
(-0.0072387 0 0.00606183)
(-0.00603906 0 0.00584008)
(-0.00498138 0 0.00536016)
(-0.0041032 0 0.00551881)
(-0.00333368 0 0.0061602)
(-0.00243633 0 0.00502785)
(-0.00168298 0 0.00335266)
(-0.0389499 0 0.00440216)
(-0.0713664 0 0.00487257)
(-0.0345481 0 0.0105863)
(-0.00142632 0 0.016962)
(0.000145406 0 0.0123461)
(0.00130802 0 0.00898095)
(0.000892779 0 0.013341)
(0.000397312 0 0.0159028)
(0.000258678 0 0.0137542)
(8.93169e-05 0 0.0127566)
(-5.6889e-05 0 0.0137046)
(-0.000137537 0 0.0137687)
(-0.000144405 0 0.0134436)
(-8.31827e-05 0 0.0132565)
(-0.0245423 0 0.0017198)
(-0.0222045 0 0.00313863)
(-0.0200379 0 0.0043238)
(-0.0178839 0 0.00525675)
(-0.0159011 0 0.00600837)
(-0.0139698 0 0.0065157)
(-0.0122116 0 0.00687535)
(-0.0105357 0 0.00707966)
(-0.00902622 0 0.007363)
(-0.00757624 0 0.00711086)
(-0.00629145 0 0.00653557)
(-0.00522041 0 0.00674929)
(-0.00427705 0 0.00753846)
(-0.00316479 0 0.00616194)
(-0.00222203 0 0.00412267)
(-0.0427323 0 0.00538887)
(-0.0795771 0 0.00579082)
(-0.0399909 0 0.00980467)
(-0.00272914 0 0.0151123)
(-0.000782412 0 0.0114282)
(0.000844929 0 0.0088308)
(0.000732109 0 0.0126399)
(0.000385637 0 0.0151143)
(0.000404916 0 0.0133479)
(0.000304589 0 0.0126039)
(0.000165682 0 0.013622)
(3.03018e-05 0 0.0138062)
(-3.43442e-05 0 0.0136033)
(-4.35203e-05 0 0.0134972)
(-0.029327 0 0.0020183)
(-0.0266387 0 0.00369402)
(-0.0241211 0 0.00510642)
(-0.0216112 0 0.0062358)
(-0.0192986 0 0.00715378)
(-0.0170309 0 0.00778835)
(-0.0149566 0 0.00824363)
(-0.0129683 0 0.00852491)
(-0.0111697 0 0.00890011)
(-0.00942884 0 0.00862116)
(-0.00787834 0 0.00794088)
(-0.00657962 0 0.0082319)
(-0.00542989 0 0.00920848)
(-0.004063 0 0.00754937)
(-0.00289444 0 0.00507862)
(-0.0457612 0 0.00662034)
(-0.085827 0 0.00703044)
(-0.0445433 0 0.00957477)
(-0.00449691 0 0.0140965)
(-0.00220351 0 0.010968)
(-0.0002165 0 0.00891138)
(6.66035e-05 0 0.0121146)
(-1.06395e-05 0 0.0143422)
(0.000247948 0 0.0128914)
(0.00029911 0 0.0123629)
(0.000255492 0 0.013351)
(0.000141523 0 0.0136428)
(6.54686e-05 0 0.0135536)
(5.14932e-06 0 0.0135537)
(-0.0316814 0 0.00431554)
(-0.0348177 0 0.00235134)
(-0.028848 0 0.00598635)
(-0.025959 0 0.00734338)
(-0.023269 0 0.00845817)
(-0.0206223 0 0.00924741)
(-0.0181968 0 0.00982054)
(-0.0158563 0 0.0102027)
(-0.0137278 0 0.0106971)
(-0.0116514 0 0.0103973)
(-0.00979316 0 0.009603)
(-0.00822829 0 0.00999823)
(-0.00683584 0 0.0112073)
(-0.0051698 0 0.00922512)
(-0.00373387 0 0.00625006)
(-0.0483207 0 0.00813194)
(-0.0907543 0 0.00858879)
(-0.0485315 0 0.00997958)
(-0.00678812 0 0.0138081)
(-0.00406526 0 0.01111)
(-0.0017168 0 0.00934002)
(-0.00105384 0 0.0119561)
(-0.00076004 0 0.0138518)
(-0.00024658 0 0.0125993)
(1.92169e-05 0 0.0122026)
(0.000147004 0 0.0130691)
(0.000124772 0 0.0133957)
(0.000101182 0 0.0133613)
(3.58343e-05 0 0.0134489)
(-0.0309121 0 0.00858417)
(-0.034279 0 0.00696376)
(-0.0417176 0 0.00545049)
(-0.0506157 0 0.00326588)
(-0.0278762 0 0.00992789)
(-0.0248245 0 0.0109004)
(-0.0219972 0 0.0116174)
(-0.0192598 0 0.0121302)
(-0.016763 0 0.0127759)
(-0.0143054 0 0.0124643)
(-0.0120933 0 0.0115493)
(-0.0102195 0 0.012081)
(-0.00854404 0 0.0135729)
(-0.00653018 0 0.0112267)
(-0.00478055 0 0.00767104)
(-0.0506128 0 0.00996453)
(-0.094786 0 0.010503)
(-0.0522138 0 0.0109301)
(-0.0095342 0 0.014086)
(-0.00630687 0 0.0118527)
(-0.00352972 0 0.0102341)
(-0.00251786 0 0.0123255)
(-0.00183764 0 0.0138448)
(-0.00105487 0 0.012666)
(-0.00052456 0 0.0122951)
(-0.00018647 0 0.0129511)
(-5.09188e-05 0 0.0132316)
(4.29093e-05 0 0.0131807)
(2.84918e-05 0 0.0132897)
(-0.0296262 0 0.0127548)
(-0.0331825 0 0.0115644)
(-0.0407956 0 0.0108517)
(-0.0499343 0 0.00962479)
(-0.0590188 0 0.00736373)
(-0.0703762 0 0.00431463)
(-0.0264247 0 0.0136431)
(-0.0232606 0 0.0143186)
(-0.0203426 0 0.0151543)
(-0.0174525 0 0.0148453)
(-0.0148415 0 0.0138058)
(-0.0126134 0 0.014512)
(-0.0106104 0 0.0163433)
(-0.00819579 0 0.0135935)
(-0.00608163 0 0.00937945)
(-0.052791 0 0.0121624)
(-0.0982338 0 0.0128127)
(-0.0558351 0 0.0124003)
(-0.0128033 0 0.014997)
(-0.00892382 0 0.0131998)
(-0.00561641 0 0.0116947)
(-0.00424057 0 0.0132764)
(-0.00318616 0 0.0144367)
(-0.00211672 0 0.0132298)
(-0.00130817 0 0.0127915)
(-0.000729719 0 0.0131824)
(-0.00037835 0 0.0133254)
(-0.000125068 0 0.0131631)
(-2.78082e-05 0 0.0132239)
(-0.0278549 0 0.0167788)
(-0.0315443 0 0.0158977)
(-0.0392493 0 0.0161465)
(-0.0485292 0 0.016042)
(-0.0578902 0 0.0146831)
(-0.0695758 0 0.0126277)
(-0.0805725 0 0.0094705)
(-0.093908 0 0.00544466)
(-0.0245369 0 0.0178471)
(-0.0211765 0 0.0175569)
(-0.018107 0 0.0163948)
(-0.015473 0 0.0173223)
(-0.0130969 0 0.0195542)
(-0.0102263 0 0.0163648)
(-0.00769261 0 0.0114177)
(-0.0549767 0 0.0147726)
(-0.101326 0 0.0155615)
(-0.0596401 0 0.0143861)
(-0.0167727 0 0.0165785)
(-0.0119997 0 0.0152048)
(-0.0080055 0 0.0137649)
(-0.00622611 0 0.0148582)
(-0.0047921 0 0.0156645)
(-0.00339864 0 0.0143721)
(-0.00229073 0 0.0138)
(-0.00144444 0 0.0138887)
(-0.000848257 0 0.0138276)
(-0.000397057 0 0.0134921)
(-0.000136122 0 0.0134153)
(-0.0254856 0 0.0206161)
(-0.0294193 0 0.0208541)
(-0.0371214 0 0.0212822)
(-0.0464298 0 0.0220617)
(-0.0559867 0 0.0218974)
(-0.0678888 0 0.0211377)
(-0.0792809 0 0.0189175)
(-0.0930492 0 0.0157895)
(-0.105515 0 0.0115935)
(-0.120578 0 0.00651256)
(-0.0219656 0 0.0193369)
(-0.0188824 0 0.0205359)
(-0.0160736 0 0.0232354)
(-0.0126878 0 0.0195802)
(-0.00967725 0 0.0138316)
(-0.057271 0 0.0178436)
(-0.104224 0 0.0187963)
(-0.0639072 0 0.0168942)
(-0.0217342 0 0.0188428)
(-0.015664 0 0.0179536)
(-0.0107367 0 0.0165052)
(-0.00850151 0 0.0171333)
(-0.00665507 0 0.0175776)
(-0.00489727 0 0.0161512)
(-0.00345777 0 0.0154033)
(-0.00230832 0 0.0151682)
(-0.00143618 0 0.014851)
(-0.000755556 0 0.014283)
(-0.000294781 0 0.0140101)
(-0.0228643 0 0.0241824)
(-0.0265029 0 0.0226332)
(-0.0342533 0 0.0262165)
(-0.0437214 0 0.0291315)
(-0.0533747 0 0.0289556)
(-0.0653703 0 0.0290586)
(-0.0770757 0 0.0282699)
(-0.0911271 0 0.0265956)
(-0.104155 0 0.0232717)
(-0.119914 0 0.0188511)
(-0.133315 0 0.0134103)
(-0.149142 0 0.00689916)
(-0.0196179 0 0.0274181)
(-0.0156621 0 0.0232723)
(-0.0121103 0 0.0166698)
(-0.0597598 0 0.0214257)
(-0.107063 0 0.0225639)
(-0.0689154 0 0.0199584)
(-0.0280804 0 0.021827)
(-0.0201319 0 0.0215381)
(-0.0138481 0 0.0200298)
(-0.0110871 0 0.0201892)
(-0.00878847 0 0.0202532)
(-0.00661378 0 0.0186395)
(-0.00480665 0 0.0176781)
(-0.00331732 0 0.0170871)
(-0.00213555 0 0.0164819)
(-0.00119179 0 0.0156452)
(-0.000497433 0 0.0151194)
(-0.0192251 0 0.0274919)
(-0.0238286 0 0.0320653)
(-0.0310466 0 0.0308459)
(-0.0399209 0 0.0317683)
(-0.0498113 0 0.0358243)
(-0.0621536 0 0.0386183)
(-0.0740697 0 0.0374822)
(-0.0882606 0 0.0365084)
(-0.101717 0 0.0348612)
(-0.117787 0 0.032168)
(-0.132143 0 0.0275454)
(-0.150022 0 0.0212719)
(-0.162731 0 0.0139239)
(-0.1766 0 0.00301081)
(-0.0150878 0 0.0199942)
(-0.0625274 0 0.0255711)
(-0.109903 0 0.0269133)
(-0.0750898 0 0.0235798)
(-0.0363732 0 0.0255493)
(-0.0255734 0 0.026136)
(-0.0173561 0 0.0245323)
(-0.014027 0 0.0241035)
(-0.0111992 0 0.0237646)
(-0.00856006 0 0.0219212)
(-0.00634659 0 0.020706)
(-0.00446951 0 0.0197264)
(-0.00295042 0 0.0187975)
(-0.00170038 0 0.0176523)
(-0.000740057 0 0.0168355)
(-0.0656802 0 0.0304148)
(-0.0188066 0 0.0238198)
(-0.0266809 0 0.0351825)
(-0.0363978 0 0.0447681)
(-0.0457591 0 0.0423844)
(-0.057525 0 0.0423368)
(-0.0699217 0 0.0465416)
(-0.084664 0 0.0488006)
(-0.0984186 0 0.0463063)
(-0.114589 0 0.044069)
(-0.129458 0 0.0414795)
(-0.147467 0 0.0378334)
(-0.163226 0 0.0315766)
(-0.184834 0 0.0197826)
(-0.192791 0 0.00761913)
(-0.190511 0 -0.00940805)
(-0.112766 0 0.0319536)
(-0.0829057 0 0.0277814)
(-0.0473644 0 0.0300173)
(-0.0323812 0 0.031916)
(-0.0212556 0 0.0302554)
(-0.0172464 0 0.0290401)
(-0.0138838 0 0.0282171)