/*--------------------------------*- C++ -*----------------------------------*\
| =========                 |                                                 |
| \\      /  F ield         | OpenFOAM: The Open Source CFD Toolbox           |
|  \\    /   O peration     | Version:  5.x                                   |
|   \\  /    A nd           | Web:      www.OpenFOAM.org                      |
|    \\/     M anipulation  |                                                 |
\*---------------------------------------------------------------------------*/
FoamFile
{
    version     2.0;
    format      ascii;
    class       surfaceScalarField;
    location    "2.8";
    object      alphaPhi10;
}
// * * * * * * * * * * * * * * * * * * * * * * * * * * * * * * * * * * * * * //

dimensions      [0 3 -1 0 0 0 0];

internalField   nonuniform List<scalar> 
30582
(
1.00372e-05
4.36366e-06
-1.02135e-06
1.10586e-05
1.01586e-05
8.62163e-06
-1.19531e-05
1.09318e-05
-1.28529e-06
2.25025e-05
1.03471e-05
1.27227e-05
-2.89168e-05
1.69637e-05
-1.22756e-05
2.19221e-05
-1.36531e-06
3.42149e-05
1.01406e-05
1.70774e-05
-4.69343e-05
1.80174e-05
-2.97153e-05
3.44034e-05
-1.22316e-05
3.27884e-05
-2.91451e-06
4.727e-05
1.04613e-05
2.11742e-05
-6.53169e-05
1.83826e-05
-4.79909e-05
3.6293e-05
-2.96893e-05
5.18612e-05
-1.51429e-05
4.50168e-05
-3.46691e-06
6.11983e-05
9.10214e-06
2.67091e-05
-8.05505e-05
1.52336e-05
-6.61697e-05
3.65615e-05
-4.78106e-05
5.44142e-05
-3.35574e-05
7.02757e-05
-1.57576e-05
5.73075e-05
-8.10751e-06
7.84079e-05
1.03027e-05
3.1138e-05
-9.22493e-05
1.16988e-05
-8.13433e-05
3.04071e-05
-6.64981e-05
5.52491e-05
-5.20309e-05
7.28876e-05
-3.43843e-05
8.89023e-05
-2.37038e-05
7.29038e-05
-8.42751e-06
9.71372e-05
-1.13368e-06
4.71184e-05
-9.96532e-05
7.40388e-06
-9.30351e-05
2.33906e-05
-8.21997e-05
4.61087e-05
-7.01763e-05
7.33945e-05
-5.23008e-05
9.08041e-05
-4.26679e-05
0.000107866
-2.38927e-05
8.83685e-05
-2.5228e-05
0.00011938
-4.56521e-05
1.21527e-05
-0.000102043
2.3898e-06
-0.000100532
1.49008e-05
-9.42591e-05
3.545e-05
-8.556e-05
6.14924e-05
-7.06236e-05
9.17174e-05
-5.94376e-05
0.000107574
-4.33535e-05
0.000127327
-4.04963e-05
0.000102305
-5.01962e-05
4.09936e-05
-2.40563e-05
1.79079e-06
-9.85845e-05
-3.45845e-06
-0.000103141
4.99898e-06
-0.000102246
2.28872e-05
-9.74814e-05
4.73714e-05
-8.68634e-05
7.77323e-05
-7.64335e-05
0.000108713
-6.00051e-05
0.000124225
-5.87127e-05
0.000144779
-5.48946e-05
3.71466e-05
-2.83787e-05
7.84914e-07
4.91731e-08
2.74255e-08
-8.86319e-05
-9.95258e-06
-9.98977e-05
-6.70192e-06
-0.000105374
8.12697e-06
-0.00010578
3.11857e-05
-0.000100004
6.05118e-05
-9.1999e-05
9.32979e-05
-7.76738e-05
0.000126382
-7.3978e-05
0.000138889
-6.07619e-05
6.32953e-05
-4.19689e-05
1.20276e-06
4.89629e-08
1.75024e-09
3.29255e-09
9.82074e-11
-7.2011e-05
-1.6621e-05
-9.00885e-05
-1.97618e-05
-0.000102601
-9.47488e-06
-0.000109592
1.19388e-05
-0.000109416
4.05978e-05
-0.000104912
7.34243e-05
-9.47795e-05
0.000110403
-8.95951e-05
0.000141367
-6.72189e-05
6.72773e-05
-4.66964e-05
1.67198e-06
-2.89652e-07
8.18305e-09
1.01549e-09
4.37241e-12
-3.24465e-13
4.31179e-14
-4.89903e-05
-2.30207e-05
-7.3437e-05
-3.32725e-05
-9.30438e-05
-2.93186e-05
-0.000107408
-1.16589e-05
-0.000114048
1.65702e-05
-0.000114708
5.03941e-05
-0.00011002
8.8664e-05
-0.000103329
0.000123493
-7.30515e-05
8.11398e-05
-5.46909e-05
3.06496e-06
-1.09972e-06
5.10808e-09
2.39088e-10
1.53382e-11
-7.36616e-13
1.10021e-16
9.2256e-16
2.45146e-18
-2.07833e-05
-2.8207e-05
-5.02755e-05
-4.61822e-05
-7.63285e-05
-4.99878e-05
-9.83058e-05
-3.84205e-05
-0.000112883
-1.28235e-05
-0.000120706
2.25684e-05
-0.000122124
6.24974e-05
-0.00011599
0.00010078
-7.96156e-05
8.37512e-05
-6.15145e-05
4.60156e-06
-3.73187e-06
1.93407e-08
-1.60771e-10
8.96967e-13
-2.36667e-15
6.03752e-15
7.94169e-17
3.75258e-20
-1.37988e-21
1.03899e-05
-3.11732e-05
-2.18159e-05
-5.66666e-05
-5.27738e-05
-6.97369e-05
-8.15494e-05
-6.67441e-05
-0.000104291
-4.70123e-05
-0.000120872
-1.26578e-05
-0.000129979
3.04233e-05
-0.000126888
7.30193e-05
-8.48246e-05
7.60902e-05
-6.79189e-05
6.17457e-06
-7.05922e-06
1.91296e-08
-1.0728e-09
3.61888e-12
5.53277e-15
4.59937e-17
1.16332e-16
9.0727e-19
-2.2734e-20
4.27764e-05
-3.23865e-05
9.8709e-06
-6.28599e-05
-2.36025e-05
-8.58379e-05
-5.7277e-05
-9.40094e-05
-8.75737e-05
-8.34614e-05
-0.000113534
-5.43497e-05
-0.000131884
-1.07525e-05
-0.00013468
3.80266e-05
-8.77751e-05
5.83481e-05
-7.17854e-05
6.70107e-06
-1.03658e-05
4.09901e-09
-1.84838e-09
2.34508e-12
5.82667e-14
1.00576e-16
1.17777e-18
2.35049e-20
-4.32764e-22
7.45228e-05
-3.17464e-05
4.27858e-05
-6.53014e-05
9.00911e-06
-9.54716e-05
-2.6792e-05
-0.000116323
-6.26567e-05
-0.000118926
-9.68868e-05
-0.000100109
-0.000125219
-6.10122e-05
-0.000138207
-7.18659e-06
-8.88355e-05
3.10847e-05
-7.29358e-05
5.86299e-06
-1.34372e-05
-1.95828e-09
-4.24934e-09
4.42669e-13
9.40846e-14
6.18142e-17
9.69992e-19
4.19685e-21
7.78772e-25
0.00010404
-2.95174e-05
7.49557e-05
-6.39164e-05
4.28644e-05
-9.91567e-05
7.40916e-06
-0.000129673
-3.07699e-05
-0.00014821
-7.04471e-05
-0.000145366
-0.000108602
-0.000116722
-0.000131498
-6.73912e-05
-8.90317e-05
-5.0845e-06
-7.18189e-05
2.79637e-06
-1.56151e-05
-8.33665e-09
-9.91167e-09
-2.78169e-13
1.01855e-13
2.11655e-17
5.74906e-19
2.87079e-21
2.43057e-23
0.000130426
-2.63862e-05
0.000104816
-5.93772e-05
7.59528e-05
-9.70048e-05
4.28585e-05
-0.000134606
5.53149e-06
-0.000165974
-3.59006e-05
-0.000182756
-8.09791e-05
-0.000172984
-0.000112719
-0.000134592
-8.39408e-05
-5.2987e-05
-6.71946e-05
-2.78277e-06
-1.65001e-05
-2.01264e-08
-1.65484e-08
-1.33698e-12
3.80518e-13
-2.17162e-18
-1.46267e-18
1.52857e-21
5.81197e-23
0.000153378
-2.29515e-05
0.000131373
-5.29437e-05
0.000106502
-8.99264e-05
7.72628e-05
-0.000131409
4.31438e-05
-0.000172218
3.37954e-06
-0.000205254
-4.4033e-05
-0.000219696
-8.24433e-05
-0.000201359
-7.05899e-05
-0.00010869
-5.92418e-05
-1.17167e-05
-1.4703e-05
-4.61703e-08
-2.32263e-08
-2.48318e-12
7.53079e-13
-2.50509e-17
-2.00752e-18
-6.95768e-24
1.14987e-22
0.000173033
-1.96554e-05
0.000154376
-4.59544e-05
0.000133324
-7.97653e-05
0.000108737
-0.0001214
7.96524e-05
-0.000167918
4.36874e-05
-0.000212526
-1.47083e-06
-0.000247806
-4.40031e-05
-0.000255054
-4.76223e-05
-0.000164957
-4.53746e-05
-2.12874e-05
-1.19918e-05
-1.60265e-07
-4.90707e-08
-2.91448e-12
2.40382e-12
-4.79807e-17
-3.566e-18
-6.27708e-22
1.57966e-22
0.000189615
-1.65813e-05
0.00017401
-3.929e-05
0.000156308
-6.89382e-05
0.000136087
-0.000107116
0.00011263
-0.000154378
8.24102e-05
-0.00020664
4.28512e-05
-0.000256831
9.75565e-07
-0.000288484
-1.36786e-05
-0.000210373
-2.66118e-05
-2.91176e-05
-8.41971e-06
-4.66657e-07
-1.32031e-07
-8.51178e-11
9.0456e-12
-1.66455e-16
-3.38839e-18
-1.20461e-21
1.28571e-22
0.000203437
-1.38226e-05
0.000190525
-3.30962e-05
0.00017585
-5.88327e-05
0.000159257
-9.21076e-05
0.000140388
-0.000134873
0.000116782
-0.00018875
8.56077e-05
-0.000249367
4.84304e-05
-0.000298661
2.92317e-05
-0.000235954
-5.05246e-06
-3.33642e-05
-5.19073e-06
-7.8775e-07
-1.72977e-07
-9.10392e-10
5.18165e-11
-1.03642e-14
1.14449e-16
-1.27286e-20
2.09465e-22
0.000214867
-1.14297e-05
0.000204254
-2.75512e-05
0.000192235
-4.94809e-05
0.000178757
-7.83331e-05
0.000163342
-0.000115062
0.000145239
-0.000163331
0.000122363
-0.000225447
9.33936e-05
-0.000287163
7.19619e-05
-0.000234006
1.68104e-05
-3.31928e-05
-2.28707e-06
-1.03347e-06
-1.35159e-07
-2.87476e-09
1.65101e-10
-2.09522e-13
4.55075e-15
-5.03925e-19
9.22178e-22
0.000224286
-9.41946e-06
0.00021557
-2.27463e-05
0.000205766
-4.10821e-05
0.000194969
-6.56929e-05
0.000182566
-9.7557e-05
0.000168437
-0.000138259
0.000151494
-0.000192353
0.000131999
-0.000255226
0.000106821
-0.00020898
3.66123e-05
-2.87359e-05
2.97774e-07
-1.13379e-06
-6.56458e-08
-5.69722e-09
2.93597e-10
-1.37978e-12
3.45017e-14
-1.08222e-17
-1.57525e-20
0.000232047
-7.76091e-06
0.000224877
-1.87264e-05
0.000216878
-3.38583e-05
0.000208171
-5.42842e-05
0.000198457
-8.15845e-05
0.00018764
-0.00011676
0.000174854
-0.00016144
0.00016165
-0.000211491
0.000133373
-0.000171183
4.96796e-05
-2.11526e-05
2.19705e-06
-1.07107e-06
-1.02677e-08
-7.68548e-09
3.61725e-10
-4.18211e-12
1.16996e-13
-7.0929e-17
-1.71547e-19
0.000238483
-6.43523e-06
0.000232538
-1.54215e-05
0.000225948
-2.77967e-05
0.000218921
-4.46086e-05
0.000211228
-6.7055e-05
0.000203234
-9.71775e-05
0.000193813
-0.000135445
0.000182637
-0.00016992
0.000150696
-0.000118115
5.24696e-05
-1.31396e-05
2.996e-06
-7.65476e-07
9.54448e-09
-8.49474e-09
3.32934e-10
-5.86504e-12
1.86048e-13
-2.17583e-16
1.18349e-19
0.000243854
-5.37165e-06
0.000238912
-1.28096e-05
0.00023337
-2.28431e-05
0.000227602
-3.64778e-05
0.00022151
-5.48904e-05
0.000215334
-7.91549e-05
0.000208406
-0.000111403
0.000197212
-0.000135696
0.000153179
-7.11051e-05
4.47551e-05
-6.99758e-06
2.71651e-06
-4.17535e-07
-4.88095e-09
-7.48943e-09
2.20091e-10
-6.27027e-12
1.41733e-13
-2.55263e-16
9.34024e-19
0.000248286
-4.43166e-06
0.000244273
-1.0733e-05
0.000239541
-1.89805e-05
0.000234712
-2.99533e-05
0.000229624
-4.45917e-05
0.00022484
-6.43951e-05
0.000218844
-8.91625e-05
0.000206068
-0.000105116
0.000143071
-4.01306e-05
3.43873e-05
-3.42674e-06
1.9775e-06
-2.15642e-07
-1.51447e-08
-4.12367e-09
1.29734e-10
-5.9716e-12
8.38921e-14
-2.53958e-16
1.15568e-18
0.000251763
-3.47692e-06
0.000248778
-8.93639e-06
0.000244826
-1.60182e-05
0.000240683
-2.49513e-05
0.000236195
-3.65246e-05
0.000232156
-5.19058e-05
0.000226994
-7.20925e-05
0.000210615
-7.90373e-05
0.000128382
-2.21891e-05
2.53951e-05
-1.60299e-06
1.24622e-06
-1.03358e-07
-1.29564e-08
-1.73074e-09
5.18135e-11
-4.30358e-12
4.2401e-14
-4.41769e-16
7.02635e-19
0.000254317
-2.55426e-06
0.00025244
-7.13927e-06
0.000249353
-1.34636e-05
0.00024594
-2.12756e-05
0.000241723
-3.04793e-05
0.000238059
-4.24273e-05
0.000232928
-5.74246e-05
0.00021125
-5.9166e-05
0.00011498
-1.24513e-05
1.86423e-05
-6.79346e-07
7.46566e-07
-4.547e-08
-7.13592e-09
-9.74849e-10
2.2221e-11
-3.453e-12
-1.365e-14
-5.35142e-16
-2.80071e-18
0.000255625
-1.30839e-06
0.000255101
-5.21422e-06
0.000253037
-1.08236e-05
0.000250668
-1.81915e-05
0.000246767
-2.63192e-05
0.000243223
-3.56423e-05
0.00023854
-4.7677e-05
0.000211413
-4.55668e-05
0.000106012
-7.54796e-06
1.41839e-05
-2.81711e-07
4.97052e-07
-1.8485e-08
-2.949e-09
-6.3323e-10
3.24723e-12
-4.02162e-12
-7.3242e-14
-7.29827e-16
-1.15362e-17
0.000255535
9.08556e-08
0.000256551
-2.75872e-06
0.000255745
-7.92164e-06
0.000254846
-1.50009e-05
0.000251535
-2.29594e-05
0.000248472
-3.15679e-05
0.000243209
-4.00213e-05
0.000214861
-3.9884e-05
0.00010146
-5.12901e-06
1.15347e-05
-1.25732e-07
4.02421e-07
-9.24678e-09
-7.98955e-10
-3.58107e-10
-1.01635e-11
-4.06164e-12
-1.38965e-13
-1.15414e-15
-2.80052e-17
0.000254565
9.70036e-07
0.000256658
-1.64275e-08
0.000257488
-4.50175e-06
0.00025814
-1.12158e-05
0.000255817
-1.92834e-05
0.00025388
-2.8367e-05
0.000247732
-3.58705e-05
0.000219862
-3.48823e-05
0.000102935
-5.11391e-06
1.03919e-05
-7.15683e-08
3.78006e-07
-6.43205e-09
1.18602e-10
-1.90525e-10
-1.25487e-11
-2.66664e-12
-1.12899e-13
-1.20162e-15
-3.70269e-17
0.00025224
2.32473e-06
0.000255284
2.34413e-06
0.000258103
-6.31505e-07
0.000260022
-6.38423e-06
0.00025936
-1.47588e-05
0.000259155
-2.45585e-05
0.000252734
-3.32135e-05
0.000226806
-3.37016e-05
0.000110697
-5.2217e-06
1.00206e-05
-1.13638e-07
3.89104e-07
-6.03315e-09
6.9519e-10
-1.27988e-10
-1.34419e-11
-1.38421e-12
-8.63699e-14
-6.88792e-16
-1.73446e-17
0.000248358
3.88199e-06
0.000252576
5.03313e-06
0.000256712
3.73524e-06
0.000260032
-6.4096e-07
0.000261929
-8.95279e-06
0.000263736
-1.93394e-05
0.000257908
-2.96291e-05
0.000234637
-3.32689e-05
0.00012372
-6.21591e-06
1.085e-05
-1.37323e-07
4.24107e-07
-7.58939e-09
9.4636e-10
-9.14069e-11
-1.63342e-11
-8.75003e-13
-6.21779e-14
-3.0445e-16
-4.95156e-18
0.000243439
4.91938e-06
0.000248799
7.6589e-06
0.000253887
7.85835e-06
0.000258826
4.94122e-06
0.000263144
-1.85616e-06
0.000266542
-1.17593e-05
0.000262974
-2.43401e-05
0.00024144
-3.04107e-05
0.000138507
-6.90019e-06
1.30037e-05
-2.23402e-07
4.80414e-07
-8.51009e-09
7.87195e-10
-6.97725e-11
-1.74304e-11
-5.51271e-13
-3.58902e-14
-1.93029e-16
-2.62369e-18
0.000237618
5.82084e-06
0.000244061
9.65781e-06
0.000249874
1.16717e-05
0.000256074
1.06101e-05
0.000261691
6.39471e-06
0.000266752
-2.06568e-06
0.000268634
-1.73805e-05
0.000246323
-2.50119e-05
0.00014914
-5.98066e-06
1.67331e-05
-2.81633e-07
5.36191e-07
-9.11321e-09
5.7433e-10
-6.40653e-11
-1.77402e-11
-3.25779e-13
1.71595e-15
-1.23309e-16
1.34555e-20
6.13321e-06
0.000231484
0.000238421
1.14605e-05
0.000244853
1.46784e-05
0.000252033
1.57131e-05
0.000258387
1.39136e-05
0.000265742
7.40425e-06
0.000272444
-5.86169e-06
0.000252621
-2.06877e-05
0.000149813
-2.79284e-06
2.17312e-05
-2.05976e-07
6.01112e-07
-5.74768e-09
-9.73302e-11
-5.93975e-11
-2.08668e-11
-1.92556e-13
1.0111e-14
-5.83972e-17
2.93631e-18
1.23955e-05
0.000232159
1.53022e-05
0.000216182
0.000239016
1.72975e-05
0.000246911
1.98005e-05
0.000253673
2.04277e-05
0.000262735
1.69209e-05
0.000271426
8.42126e-06
0.000254122
-5.75017e-06
0.000139255
1.61907e-06
2.76757e-05
4.66007e-08
7.40949e-07
-1.35144e-09
-5.45086e-10
-3.12497e-11
-2.21641e-11
-9.73602e-14
2.97546e-15
-2.34506e-17
2.19131e-18
1.8889e-05
0.000232523
3.12754e-05
0.000216185
1.31057e-05
0.000203076
0.000240951
2.32576e-05
0.000247836
2.56373e-05
0.000258273
2.48893e-05
0.000267463
2.08786e-05
0.000251723
1.10389e-05
0.000131096
4.86428e-06
3.39837e-05
4.99794e-07
1.01453e-06
3.49878e-09
-8.285e-10
-4.28106e-12
-1.74484e-11
-2.64869e-14
5.76001e-17
-7.34022e-18
6.27979e-19
2.56845e-05
0.000234155
4.79497e-05
0.000215848
2.69653e-05
0.000202326
7.90414e-06
0.000195172
0.000241212
2.9881e-05
0.000252664
3.12467e-05
0.000261802
3.05389e-05
0.000247833
2.43461e-05
0.000134378
5.60024e-06
4.02487e-05
9.58287e-07
1.49287e-06
1.53797e-08
-7.71117e-10
4.04932e-12
-1.04518e-11
-2.90718e-15
1.69425e-15
-1.37036e-18
-5.00459e-20
3.29822e-05
0.000233914
6.60127e-05
0.000216092
4.17609e-05
0.000201053
1.77303e-05
0.0001925
-2.83284e-06
0.000198005
0.000246173
3.63717e-05
0.000255025
3.80056e-05
0.000242944
3.47318e-05
0.00014376
8.54141e-06
4.47169e-05
1.23369e-06
2.272e-06
2.72172e-08
3.25019e-09
1.10113e-11
-5.01313e-12
8.71288e-16
1.78194e-15
-2.02849e-19
-8.80554e-20
4.07585e-05
0.000238397
8.48398e-05
0.000215087
5.91433e-05
0.00019871
2.89403e-05
0.000189843
-3.50252e-06
0.000193169
-1.71295e-05
0.000215135
0.000247382
4.39916e-05
0.000236663
4.34516e-05
0.000153025
1.47003e-05
4.83674e-05
1.43218e-06
3.38827e-06
2.7995e-08
2.21141e-08
-3.83729e-12
-2.58246e-12
-9.80273e-16
9.10912e-16
-1.93069e-20
-4.70787e-20
4.88713e-05
0.000239239
0.000106567
0.000216669
7.80697e-05
0.000196161
4.32524e-05
0.000184398
-1.56775e-06
0.000187908
-2.90044e-05
0.000205044
-5.30456e-05
0.00026818
0.00022859
5.11204e-05
0.000159408
2.24123e-05
5.1567e-05
1.98206e-06
4.55783e-06
3.16038e-08
5.05387e-08
-6.2339e-12
-3.95782e-12
-1.88834e-15
1.92518e-16
3.94144e-20
-2.12086e-20
5.77946e-05
0.000218619
0.000129592
0.000216116
0.000100845
0.000193894
6.01314e-05
0.000179282
7.42356e-06
0.000175406
-3.65807e-05
0.000195484
-9.20046e-05
0.000244003
-4.96704e-05
0.000317851
0.000161811
3.07691e-05
5.45525e-05
2.77755e-06
5.49183e-06
5.98348e-08
7.88636e-08
1.55166e-10
-5.12638e-12
-6.63157e-15
-1.31978e-15
5.59566e-20
-1.5028e-20
3.87191e-05
0.000160056
0.000158015
0.000187418
0.000125539
0.000191284
8.1293e-05
0.000172731
2.25862e-05
0.000164119
-3.63013e-05
0.000175127
-0.000115849
0.000219328
-0.000109104
0.000303437
-8.85224e-05
0.000406373
5.68546e-05
3.82825e-06
5.92514e-06
1.08933e-07
9.80108e-08
5.8838e-10
-2.43116e-11
2.00356e-13
-2.79254e-14
1.02294e-18
-3.4976e-20
5.08243e-06
5.7667e-05
0.000119229
0.000139664
0.000152661
0.000157076
0.000105204
0.000167195
4.54951e-05
0.000149821
-2.77228e-05
0.000155541
-0.000132159
0.000191438
-0.000183144
0.000293368
-0.000174519
0.000389434
2.19322e-05
0.000384441
5.82957e-06
1.64913e-07
9.83525e-08
1.2255e-09
-8.62637e-11
9.82544e-13
-1.06749e-13
2.41526e-17
-5.40555e-19
2.22828e-07
5.34054e-06
1.76511e-05
5.04843e-05
0.000118899
0.000108097
0.000132405
0.000126069
7.56393e-05
0.00013677
3.2356e-06
0.000118858
-0.000130105
0.000153491
-0.000250093
0.000258388
-0.00026014
0.000378989
5.13583e-05
0.000360007
2.24636e-05
0.000361977
7.53722e-08
2.00683e-09
-2.08552e-10
2.09337e-12
-2.00088e-13
1.46728e-16
-4.10365e-18
3.19538e-09
1.99762e-08
8.03276e-07
2.93395e-06
1.93995e-05
3.24539e-05
9.82866e-05
7.27687e-05
0.000114715
8.2059e-05
5.76941e-05
8.1869e-05
-6.38178e-05
5.2682e-05
-0.000253952
0.000157498
-0.000320962
0.00031922
3.37426e-05
0.000396605
6.83081e-05
0.000314163
0.00326971
0.000998603
-0.00390633
-3.89689e-10
3.64859e-12
-3.36536e-13
3.59822e-16
-1.10956e-17
9.10141e-11
2.26759e-10
1.71719e-08
-4.74508e-07
1.1381e-06
-1.87907e-06
1.63839e-05
1.04658e-05
8.16596e-05
2.83852e-05
0.00012394
8.92714e-06
5.06177e-05
-3.2985e-05
-0.000137411
-6.22349e-05
-0.000348975
0.000185748
-5.96702e-05
0.000412638
0.000164979
0.000299933
0.00245365
0.00113022
0.00388931
0.00132507
-0.00421578
0.000589374
-0.0044957
5.62761e-14
6.2993e-16
-2.34176e-17
2.88068e-19
9.10703e-11
3.96829e-10
-7.16082e-08
4.69704e-08
-1.34049e-06
8.9998e-07
-4.12236e-06
1.31633e-05
-6.16306e-06
8.13439e-05
-2.6407e-05
0.000154625
-0.000105135
6.69741e-05
-0.000237054
-0.000280674
-0.000129188
-0.000200804
0.000326972
0.000210719
0.000366898
0.00170439
0.0010492
0.00339905
0.00162048
0.00372781
0.00167182
-0.0040746
0.000901043
-0.00452745
0.000251136
-0.00474658
8.32799e-18
7.57888e-18
2.27734e-10
-1.17558e-08
2.9356e-08
-5.69489e-07
3.19677e-08
-1.25113e-06
4.45747e-07
-2.82462e-06
1.16667e-05
-1.74833e-05
9.29985e-05
-8.56738e-05
0.000208356
-0.000264677
-8.15527e-05
-0.000437101
-0.000274851
-5.51222e-05
0.000121865
0.000415833
0.00114487
0.00092642
0.00281553
0.00163271
0.00336726
0.00198099
0.0032391
0.00202052
-0.00358804
0.00126314
-0.00443669
0.000469423
-0.00474549
-3.48504e-05
-0.0047059
-4.31641e-10
1.91163e-08
-1.61825e-07
4.26038e-08
-6.98297e-07
9.66728e-09
-6.36287e-07
3.65842e-07
-2.20325e-06
1.19968e-05
-2.93809e-05
0.000113781
-0.000124402
0.000129234
-0.000503778
-0.000184948
-0.000528527
-5.9683e-05
0.000126428
0.00079845
0.000762251
0.00228216
0.00145979
0.00297467
0.00202528
0.00296338
0.0022565
0.00250509
0.00227087
-0.00275809
0.00168732
-0.00401234
0.000839898
-0.00480223
1.62867e-05
-0.00477558
-0.000314566
-0.00434203
-1.28084e-08
3.71848e-08
-2.21195e-07
4.03212e-09
-2.35031e-07
7.19781e-09
-2.18905e-07
4.21481e-07
-2.42245e-06
1.19796e-05
-2.99343e-05
0.000116861
-0.000209342
3.19328e-05
-0.000744157
-0.000211732
-0.000376905
0.000481796
0.000443082
0.00186147
0.00118294
0.00259569
0.00183877
0.00270383
0.00228473
0.0023343
0.00242629
0.00158224
0.00236966
-0.00168219
0.00201129
-0.0030843
0.00129107
-0.00446314
0.000455614
-0.00496956
-0.000187351
-0.00457232
-0.000328589
-0.00385814
-1.90499e-08
-4.72264e-09
-4.80174e-08
-8.38423e-09
-3.03735e-08
5.19096e-09
-7.25024e-08
3.35082e-07
-3.28906e-06
1.72205e-05
-1.51768e-05
6.61646e-05
-0.000370789
-0.000167585
-0.000812393
0.000101924
2.96665e-06
0.00150632
0.000798234
0.00222409
0.00155454
0.00244829
0.00209436
0.00219633
0.00242308
0.0015795
0.00243071
0.000638279
0.00056742
-0.000522829
0.00056726
0.000561165
0.000561037
0.00213885
-0.00181762
0.00163882
-0.00343218
0.000923667
-0.00489388
0.000267034
-0.0026155
-3.88829e-05
-0.00349543
-0.000155407
-0.00353175
-1.17928e-09
-1.90511e-09
-6.18205e-09
4.36777e-11
-5.77095e-09
1.66136e-09
-6.28026e-08
4.00744e-07
-1.87491e-06
1.81144e-05
-2.20117e-05
2.00798e-06
-0.000701961
-0.000190216
-0.00052485
0.00109444
0.000414852
0.0018502
0.00117213
0.00219869
0.00180415
0.00202388
0.00226689
0.00161821
0.0023849
0.000736327
0.00233454
-4.58332e-07
-3.67568e-05
5.75602e-05
0.000547566
0.000530547
-0.000551266
0.000530364
0.000553836
0.000553729
-3.67725e-05
5.7706e-05
0.000546366
-3.80308e-07
-3.46793e-05
0.000559944
-3.44688e-05
0.000558831
0.00180081
-0.00198491
0.00124836
-0.0037535
0.000649752
-0.00478692
0.000183732
-0.00265632
4.09705e-05
-0.00249358
-6.07401e-05
-0.00341529
-4.80835e-11
-6.17585e-11
-1.50341e-09
1.82393e-11
-2.38128e-09
1.46623e-09
-2.01624e-07
1.64341e-06
1.26982e-06
2.77775e-06
-5.01226e-05
-0.000122866
-0.000859729
0.000597838
-2.82513e-05
0.00144995
0.000815096
0.00192792
0.0014429
0.00183701
0.00199102
0.00162849
0.00225664
0.000868304
0.00225314
0.000111451
0.000110792
-2.21069e-05
0.000512426
0.000511652
0.000520674
0.000520981
-4.18339e-07
6.55431e-05
0.000523311
-2.79328e-07
-0.000151104
0.000179273
0.000520054
-0.000620903
0.00186926
6.58068e-05
0.00052218
-2.5276e-07
0.000102215
0.000517651
0.000102912
0.00051661
-0.000150991
0.000179565
0.000517886
-2.17253e-07
0.000520737
0.000518646
0.0014107
-0.00214753
0.000790409
-0.00388107
0.000382182
-0.00384356
0.000129091
-0.00274501
-1.12654e-05
-0.00254363
-0.000111269
-0.00338395
-6.26899e-12
3.49817e-11
-7.22734e-10
7.82093e-12
-4.39139e-09
3.0603e-08
-4.78754e-08
6.13792e-07
-4.36823e-08
-8.29472e-08
-0.000295037
0.000185903
-0.000450126
0.000973161
0.000448541
0.00163516
0.00110786
0.00160064
0.00167927
0.00155531
0.0020642
0.000959803
0.00216513
0.000243029
0.000492072
0.000492372
0.000501998
0.000501566
1.16517e-07
-0.000165282
0.00020725
0.000470341
-0.000165991
0.000208653
0.000469106
-1.88767e-07
-0.000128258
0.000483832
-0.000128866
0.000483658
-2.9505e-07
0.000195896
0.000507643
9.50156e-07
-0.000259799
0.000305289
0.000125679
0.000109964
0.000129352
0.000108604
-0.000627284
0.00141262
-0.000216369
-0.000217097
0.000789363
0.000422461
0.00042237
0.00043776
0.000437084
0.000196487
0.000505621
-2.9977e-07
0.000498105
0.00049634
-0.000260021
0.000305902
0.000125269
0.000110644
0.000128682
0.00010835
8.64573e-07
0.000127336
0.000105676
0.000123726
0.00011056
0.000127
0.000107031
0.00012354
0.000110532
0.000876817
-0.00223393
0.000244441
-0.00372409
-0.000114518
-0.00318498
-0.00017131
-0.0025844
-0.000356379
-0.00437871
-0.000287514
-0.00315201
-4.98964e-12
7.14849e-11
-4.606e-10
7.30389e-11
-5.82403e-09
4.23021e-08
-3.10184e-10
4.05361e-11
-1.63696e-07
-1.87868e-06
-0.000427827
0.000493931
2.88967e-05
0.00124903
0.000834668
0.00132722
0.00138128
0.00137752
0.00185705
0.000964903
0.00205906
0.000421774
0.000492569
0.000492297
0.000501327
0.000500149
-1.79418e-07
-9.72197e-05
0.000461207
-9.73502e-05
0.000460667
-1.56091e-07
-6.56552e-05
0.000470584
-6.58048e-05
0.000469856
3.48436e-07
-0.000245351
6.83596e-05
8.61873e-05
8.63067e-05
6.86449e-05
0.000107643
9.36959e-05
0.000115234
8.92435e-05
-0.00024507
6.80564e-05
8.61784e-05
6.84184e-05
8.63803e-05
0.000107523
9.36934e-05
0.000115102
8.9174e-05
6.45409e-07
-0.000212999
0.000102009
0.000123527
0.000101428
0.000123823
-0.000211988
0.000102344
0.000123462
0.000101634
0.000123775
8.7735e-07
0.000345412
0.000127936
0.00010453
0.000122477
0.000111857
9.11588e-05
7.05e-06
1.02544e-07
-8.89981e-05
0.000116366
-7.04136e-06
-9.12583e-05
9.64459e-05
0.000111821
1.1689e-07
9.71201e-05
0.000116233
-8.80538e-05
0.00011245
-0.000656745
0.000904066
0.000876667
0.000323172
0.000323195
0.000339011
0.000338945
-7.74128e-08
-0.000354203
0.00038449
0.000392519
-0.000353688
0.000384278
0.000391968
1.81352e-07
-0.000366368
0.000450084
-0.00036634
0.000450238
0.000345948
0.000127421
0.000105469
0.000122253
0.00011147
5.46834e-07
0.000123655
0.00011425
0.000129868
0.000109285
0.000123368
0.000115094
0.000129243
0.0001092
9.11432e-05
6.93848e-06
-8.8925e-05
0.000116215
-6.70426e-06
-9.10344e-05
9.64334e-05
0.000111951
9.70133e-05
0.000116224
-8.79548e-05
0.000112209
-8.36321e-05
7.47122e-06
1.77748e-07
0.000114321
-1.32495e-05
7.97422e-05
0.000107543
2.77447e-07
0.000112752
0.00010972
-8.37181e-05
7.60404e-06
0.000114366
-1.33479e-05
8.00771e-05
0.00010836
0.00011293
0.000110259
0.000253964
-0.00224343
-0.000477236
-0.0033678
-0.000932295
-0.00386504
-0.00122093
-0.00479242
-0.00114076
-0.00404774
-0.000541054
-0.00264103
-1.31621e-11
2.78835e-11
-2.24104e-10
6.82808e-10
-7.80436e-11
1.64564e-10
-7.35622e-10
-8.09742e-09
-8.08987e-06
1.90183e-05
-0.000185962
0.000781212
0.000496699
0.00102214
0.00113975
0.00108721
0.00167158
0.000874198
0.00194774
0.000459933
0.000503885
0.00050313
0.000507249
0.000506634
-7.64166e-08
-4.26308e-05
0.000469616
-4.23096e-05
0.000468723
-8.97938e-08
-2.14067e-05
0.000480187
-2.0902e-05
0.000478651
1.00458e-06
-0.00018661
9.92862e-05
0.000120702
9.61381e-05
0.00011765
-0.000186015
9.99257e-05
0.00012068
9.73887e-05
0.0001177
1.32357e-06
-0.000146295
9.57326e-05
0.00011703
9.69785e-05
0.000119212
-0.000146073
9.68464e-05
0.000117012
9.82216e-05
0.000119184
-3.93328e-06
-7.2614e-05
7.32476e-05
8.96064e-05
-6.4722e-06
8.99778e-05
9.26838e-05
-7.30086e-05
-2.99146e-08
0.00010012
7.66601e-05
-6.17285e-06
-7.22275e-05
9.94821e-05
4.99272e-08
-7.19646e-05
0.000107983
2.01188e-09
9.55598e-05
9.9944e-05
-6.46914e-06
8.98788e-05
9.33682e-05
-3.78628e-06
-7.246e-05
7.28102e-05
8.98152e-05
-7.29486e-05
7.65447e-05
0.00010011
-6.14986e-06
-7.21629e-05
9.95454e-05
-7.19207e-05
0.000107975
9.55348e-05
0.000100102
-7.25189e-06
7.08804e-05
-6.81445e-05
0.000106525
7.06117e-05
1.00046e-08
-6.84662e-05
0.000114119
-7.23022e-06
0.000107311
3.2862e-08
0.000115238
-7.14599e-06
7.08475e-05
-6.82919e-05
0.000106935
7.05626e-05
-6.84284e-05
0.000114192
-7.17475e-06
0.000107493
0.000115275
-0.000100462
5.81633e-06
2.20561e-07
0.00010759
0.000114772
-6.33778e-06
9.98106e-05
0.000107513
2.24473e-07
0.000112573
0.000107179
0.000110318
0.000106182
1.83445e-06
-1.0021e-08
-0.00010341
0.00011177
-1.29953e-06
-0.000105573
0.000108782
0.000109914
-6.27068e-08
0.000108897
0.000112264
-0.000100914
0.000109625
-0.000723229
0.000320296
0.000893137
0.00020854
0.000208413
0.000235682
0.000235574
-4.60208e-08
-0.000392826
0.000404831
0.000311567
-0.000392858
0.000405085
0.000311309
-9.11244e-08
0.000331067
0.000330615
4.41392e-07
-0.000448471
0.000502582
7.26574e-05
8.82172e-05
8.07412e-05
9.64016e-05
-0.00044863
0.000502872
7.28791e-05
8.8155e-05
8.09135e-05
9.63633e-05
3.64232e-07
-0.000118786
-0.00010785
0.000114917
-0.000126125
0.000130503
0.000101353
0.000118612
-0.00011134
-0.000118762
-0.000107764
0.000115536
-0.000126356
0.000130518
0.000101671
0.000118616
-0.000111387
-0.000100496
5.94719e-06
0.000107457
0.000114734
-6.26925e-06
0.000100019
0.000108161
0.000112725
0.000106906
0.00011054
0.000108551
5.7265e-06
1.31218e-07
0.000116836
-1.00875e-05
-0.000109076
0.000114638
1.67692e-07
0.000120299
0.000113139
0.00010854
5.7003e-06
0.000116716
-9.8755e-06
-0.000108839
0.00011507
0.000120311
0.000112994
0.000106156
1.68678e-06
-0.000103377
0.000111739
-1.14091e-06
-0.000105592
0.000108815
0.000109867
0.000108894
0.000112282
-0.000100872
0.000109177
2.17236e-06
1.14235e-08
0.000104305
0.000100956
2.10435e-06
0.000104432
0.000101369
-0.000487138
-0.00223351
-0.00130562
-0.00299933
-0.00186467
-0.00363057
-0.00211252
-0.00434344
-0.00154857
-0.0031542
-0.000671118
-0.00197991
-9.58969e-12
5.72347e-11
2.2118e-11
1.49658e-10
-1.66263e-10
2.10432e-10
-1.62384e-07
-1.04646e-06
-5.99372e-05
0.000249453
0.00021945
0.000689559
0.000829255
0.000782575
0.00144438
0.000719776
0.00182601
0.00038894
0.000504231
0.000503703
0.000505486
0.000505325
-4.61564e-08
-4.90382e-06
0.000487428
-4.47318e-06
0.000486657
-1.50524e-07
3.99519e-06
0.000498503
4.21144e-06
0.000497803
1.32196e-06
-0.000111465
9.71195e-05
0.000119129
9.81026e-05
0.000119155
-0.000111414
9.82153e-05
0.00011901
9.91477e-05
0.000119013
1.22893e-06
-8.36252e-05
0.000104326
0.000122917
0.000101944
0.000121912
-8.4796e-05
0.000105539
0.000122804
0.000103089
0.00012181
-7.21744e-06
-6.61708e-05
0.000104531
-6.67983e-05
-7.56836e-09
0.00011184
-7.37634e-06
-6.26521e-05
0.000100001
5.14523e-09
-6.33674e-05
0.000106871
-7.04924e-06
-6.65778e-05
0.000105261
-6.68386e-05
0.000112033
-7.06549e-06
-6.30382e-05
0.000100915
-6.34029e-05
0.000107194
-7.67389e-06
5.60827e-05
-4.91644e-05
9.64847e-05
5.6406e-05
2.13997e-08
-4.98867e-05
0.000102836
-7.71051e-06
9.81146e-05
8.56742e-09
0.000104513
-7.36673e-06
5.62759e-05
-4.95339e-05
9.7472e-05
5.64426e-05
-4.99098e-05
0.000103143
-7.43899e-06
9.88993e-05
0.000104803
-1.60942e-06
6.43369e-05
-5.77937e-07
-4.5805e-05
-4.7498e-05
-1.10777e-08
-5.69242e-08
6.73097e-05
-8.49564e-07
-4.23091e-05
-1.35622e-08
-4.26298e-05
-1.53092e-06
6.43339e-05
-5.51882e-07
-4.58622e-05
6.72598e-05
-4.75044e-05
-8.25266e-07
-4.23655e-05
-4.26515e-05
-1.30855e-06
4.20977e-05
-4.10253e-05
4.2111e-05
-2.35538e-08
-4.11415e-05
-9.63821e-07
-2.04169e-08
-1.25544e-06
4.21425e-05
-4.11818e-05
4.21286e-05
-4.12005e-05
-9.42109e-07
-0.000113463
1.07603e-06
-2.48323e-08
0.000119803
0.000107394
-1.18301e-06
0.000113114
0.00010437
-7.07533e-08
0.00010691
0.000119434
0.000105079
5.99255e-05
9.23774e-07
6.31877e-09
-6.18349e-05
-8.67982e-07
-5.96702e-05
6.1383e-05
-1.40764e-08
6.15138e-05
-6.0662e-05
-0.000804668
-0.000405722
0.000856753
7.1567e-05
7.13371e-05
0.000107184
0.000107004
7.85937e-08
-0.00039826
0.000417166
0.000189723
-0.000398601
0.000417717
0.000189546
6.74553e-08
0.000242408
0.000242351
7.21359e-07
-0.000544293
0.000549512
7.15405e-05
8.69259e-05
6.68346e-05
8.03976e-05
-0.00054462
0.000549692
7.23034e-05
8.68756e-05
6.74063e-05
8.04466e-05
5.79961e-07
6.30644e-05
7.59655e-05
6.71978e-05
8.26244e-05
6.33554e-05
7.59901e-05
6.77103e-05
8.25228e-05
-4.919e-06
-0.000124172
0.000134755
6.6999e-05
-0.00012504
-1.51348e-08
0.000136367
7.2036e-05
-5.11388e-06
-0.000115923
7.76088e-05
-3.22288e-09
-0.000116889
8.31403e-05
-4.82553e-06
-0.000124119
0.000134585
6.7239e-05
-0.000125013
0.00013628
7.20479e-05
-5.05591e-06
-0.000115848
7.77003e-05
-0.000116874
8.31651e-05
-3.99777e-06
0.000108254
-0.000122174
0.000132831
-6.65401e-06
-0.000124603
0.000119758
0.000108475
-3.42074e-08
0.000138058
-0.000119957
-5.23384e-06
9.89168e-05
-1.6713e-08
0.000104981
1.82431e-09
-0.000122739
0.000125025
-3.80304e-06
0.000108252
-0.000122317
0.000133388
-6.66944e-06
-0.000124581
0.000119967
0.000108486
0.000138195
-0.00012
-5.13636e-06