/*--------------------------------*- C++ -*----------------------------------*\
| =========                 |                                                 |
| \\      /  F ield         | OpenFOAM: The Open Source CFD Toolbox           |
|  \\    /   O peration     | Version:  5.x                                   |
|   \\  /    A nd           | Web:      www.OpenFOAM.org                      |
|    \\/     M anipulation  |                                                 |
\*---------------------------------------------------------------------------*/
FoamFile
{
    version     2.0;
    format      ascii;
    class       volScalarField;
    location    "2.8";
    object      alpha.water;
}
// * * * * * * * * * * * * * * * * * * * * * * * * * * * * * * * * * * * * * //

dimensions      [0 0 0 0 0 0 0];

internalField   nonuniform List<scalar> 
12160
(
1
1
1
1
1
1
1
1
1
1
1
1
1
1
1
1
1
1
1
1
1
1
1
1
1
1
1
1
1
1
1
1
1
1
0.999997
1
1
1
1
1
1
1
0.999998
0.995451
0.528451
1
1
1
1
1
1
1
0.99646
0.646685
0.0486402
1
1
1
1
1
1
1
0.998479
0.683069
0.0704144
0.00179321
1
1
1
1
1
1
1
0.998692
0.757909
0.0846832
0.00115563
2.45533e-05
1
1
1
1
1
1
0.999998
0.998573
0.805863
0.123483
0.0013174
8.40761e-06
5.28046e-08
1
1
1
1
1
1
0.999997
0.998326
0.853689
0.158295
0.00121358
6.30518e-06
3.62987e-09
1.43246e-11
1
1
1
1
1
1
0.999996
0.998261
0.888636
0.205994
0.00321428
1.43551e-06
9.2766e-09
1.19669e-12
7.59989e-16
1
1
1
1
1
1
0.999996
0.998301
0.914544
0.260227
0.00712169
5.75309e-06
1.82622e-10
3.15671e-12
2.26016e-17
1
1
1
1
1
1
0.999996
0.99831
0.931299
0.316342
0.0125728
1.32674e-05
6.42391e-10
7.82915e-14
3.51308e-16
1
1
1
1
1
1
0.999996
0.998309
0.940473
0.366714
0.0195377
1.99319e-05
1.28075e-09
2.25218e-14
9.66907e-18
1
1
1
1
1
1
0.999997
0.998355
0.943978
0.403017
0.0273188
5.04664e-05
1.66745e-09
3.96775e-14
1.41974e-18
1
1
1
1
1
1
0.999998
0.998463
0.941949
0.421682
0.0341604
0.000101163
6.84477e-09
5.99535e-14
2.01113e-18
1
1
1
1
1
1
0.999998
0.998521
0.933027
0.424225
0.0379507
0.000160716
1.1696e-08
1.80698e-13
3.1502e-18
1
1
1
1
1
1
0.999998
0.998407
0.921371
0.415136
0.0376904
0.000207635
2.82102e-08
1.80778e-13
6.49284e-18
1
1
1
1
1
1
0.999996
0.99793
0.910106
0.399159
0.0348935
0.00034054
7.9433e-08
4.03388e-13
5.00804e-18
1
1
1
1
1
1
0.999991
0.997121
0.897355
0.378111
0.0315372
0.0005916
3.47917e-07
2.0493e-12
7.44322e-18
1
1
1
1
1
1
0.999975
0.995731
0.87999
0.349788
0.0279639
0.000733712
1.11039e-06
3.37472e-11
5.58164e-17
1
1
1
1
1
1
0.999926
0.992864
0.854825
0.311303
0.0238475
0.000778601
2.25169e-06
2.46344e-10
9.15367e-16
1
1
1
1
1
1
0.999826
0.987758
0.817371
0.262598
0.0193504
0.000733974
3.6262e-06
1.08916e-09
9.43328e-15
1
1
1
1
1
0.999999
0.999651
0.980243
0.765315
0.206622
0.0144976
0.00064112
4.4134e-06
2.73626e-09
4.35874e-14
1
1
1
1
1
0.999999
0.999401
0.969907
0.700478
0.151321
0.00989217
0.000462266
4.84629e-06
3.46396e-09
1.10193e-13
1
1
1
1
1
0.999998
0.999123
0.957856
0.629822
0.107027
0.00657446
0.000282254
4.80592e-06
3.73386e-09
1.17261e-13
0.999999
0.999999
0.999999
1
1
0.999998
0.998897
0.946489
0.56395
0.0750158
0.00435954
0.000199138
3.11069e-06
3.95889e-09
1.17228e-13
0.999999
0.999999
0.999999
0.999999
1
0.999998
0.998823
0.938354
0.51213
0.0542677
0.00286264
0.0001517
1.63026e-06
3.27146e-09
2.25133e-13
1
1
0.999999
0.999999
1
0.999999
0.998912
0.935261
0.479226
0.0418634
0.0019607
0.000106681
1.32107e-06
3.30246e-09
3.17422e-13
1
1
1
0.999999
0.999999
0.999999
0.999101
0.937503
0.465904
0.0350279
0.00149397
7.13244e-05
1.28772e-06
5.75659e-09
5.49071e-13
1
1
1
1
1
0.999999
0.999331
0.943519
0.471124
0.0318249
0.00127518
5.27627e-05
1.1047e-06
8.81278e-09
1.25106e-12
1
1
1
1
1
0.999999
0.999536
0.951975
0.490523
0.0317847
0.00116133
4.5909e-05
8.47771e-07
8.57653e-09
1.94406e-12
1
1
1
1
1
1
0.999692
0.960753
0.522038
0.0336234
0.00111429
4.10912e-05
7.02949e-07
6.45928e-09
1.67722e-12
1
1
1
1
1
1
0.999803
0.968621
0.560962
0.0373809
0.00112329
3.72818e-05
5.30435e-07
5.63051e-09
1.05703e-12
1
1
1
1
1
1
0.999886
0.975282
0.604531
0.0430553
0.00114097
3.39014e-05
3.50956e-07
4.42736e-09
8.99e-13
1
1
1
1
1
1
0.999949
0.980888
0.652856
0.0521088
0.00119893
3.00315e-05
2.66781e-07
2.34039e-09
6.51995e-13
1
1
1
1
1
1
0.99996
0.986437
0.700481
0.0674683
0.00141169
2.07905e-05
2.4739e-07
1.01392e-09
2.91611e-13
1
1
1
1
1
1
0.999954
0.989835
0.73717
0.0923826
0.00199308
1.34026e-05
1.85884e-07
5.50679e-10
1.02063e-13
1
1
1
1
1
1
0.999937
0.991437
0.768557
0.127506
0.00341518
1.51914e-05
1.11615e-07
2.78446e-10
3.5898e-14
1
1
1
1
1
1
0.99991
0.992327
0.798835
0.165546
0.00608088
3.71117e-05
6.86865e-08
1.08832e-10
9.00611e-15
1
1
1
1
1
1
0.999879
0.992985
0.826083
0.200164
0.00978146
9.29661e-05
5.20355e-08
4.19088e-11
1.99557e-15
0.999845
0.999999
1
1
1
1
1
0.993476
0.848206
0.230665
0.0137385
0.000173616
8.22109e-08
1.53845e-11
7.29795e-16
0.993787
0.999787
0.999999
1
1
1
1
1
0.864869
0.257562
0.0176053
0.000276489
4.81951e-07
1.39094e-11
4.36228e-16
0.87621
0.994017
0.999679
0.999998
1
1
1
1
1
0.28032
0.0210963
0.000394999
1.24109e-06
1.3733e-10
1.32408e-15
0.298152
0.885691
0.993314
0.999517
0.999994
1
1
1
1
1
0.0239627
0.000501465
2.10534e-06
7.93256e-10
8.49308e-15
0.026299
0.318381
0.878869
0.991301
0.999102
0.999977
0.999991
0.999998
1
1
1
0.000581485
2.77452e-06
1.75662e-09
5.18344e-14
0.000659437
0.0298845
0.316028
0.855297
0.986876
0.998059
0.999269
0.999738
0.999985
1
1
1
3.32346e-06
2.49802e-09
1.52359e-13
3.78885e-06
0.000905463
0.0329214
0.292245
0.815548
0.980536
0.989695
0.994573
0.999489
0.999994
1
1
0.999999
0.999999
2.99002e-09
2.47073e-13
2.81046e-15
2.07055e-05
0.00187426
0.0317809
0.254353
0.773785
0.967527
0.967588
0.994182
0.999885
0.999999
1
0.999999
0.999995
0.999999
0.999972
3.22433e-13
2.81046e-15
1.89008e-06
0.000293775
0.00245051
0.0251288
0.216308
0.741413
0.924247
0.96492
0.999417
0.999992
1
0.999999
0.999993
0.999969
0.999997
0.999986
0.999338
6.96146e-08
6.90281e-05
0.000640043
0.00201279
0.0188435
0.193546
0.715796
0.870571
0.990248
0.999986
1
0.999999
0.999995
0.99996
0.999558
0.999986
0.999816
0.998593
0.993316
6.53763e-06
0.000199094
0.000525348
0.00111474
0.0157566
0.190333
0.646324
0.871103
0.998564
1
1
0.999998
0.999963
0.999618
0.997508
0.999766
0.999969
0.983548
0.967102
0.970906
2.71994e-05
0.000159523
0.000122036
0.000538584
0.0142532
0.206041
0.489739
0.94468
1
1
1
0.999987
0.999872
0.999055
0.997922
0.99748
0.999958
0.998237
0.783222
0.786474
0.938178
2.29615e-05
2.40177e-05
2.20443e-05
0.000290378
0.0187099
0.137516
0.485302
0.994675
1
1
0.999999
0.99999
0.999891
0.999441
0.998567
0.996721
0.998566
0.999093
0.999094
0.999234
0.999703
0.961892
0.419673
0.47638
0.927121
1.07861e-06
4.67535e-06
7.95372e-06
0.000368758
0.0207807
0.0552329
0.845773
1
1
1
1
0.999996
0.99996
0.999878
0.997215
0.999437
0.996728
0.997208
0.996962
0.996945
0.999452
0.999733
0.99973
0.999864
0.998137
0.80761
0.419677
0.419677
0.946488
9.51428e-08
2.20586e-06
5.8351e-06
0.001167
0.00615321
0.112489
0.999124
1
1
1
0.999999
0.999994
0.999961
0.999845
0.999845
0.999969
0.999968
0.998591
0.999818
0.99758
0.997611
0.998603
0.997862
0.997894
0.999794
0.999952
0.999982
0.999932
0.996504
0.676289
0.419673
0.674351
0.978363
4.04611e-08
1.62476e-06
1.48704e-05
0.000491153
0.000125469
0.498167
0.999921
1
1
0.999998
0.99999
0.99997
0.99997
0.999965
0.99997
0.999967
0.999999
0.999999
0.999906
0.999915
0.999398
1
0.999608
1
0.999609
0.999323
0.99713
0.99864
0.998532
0.998708
0.998629
0.999409
0.999167
0.999118
1
0.999776
1
0.999563
1
0.99961
1
0.99961
1
0.999616
1
0.999563
0.999932
0.998119
0.777521
0.660772
0.949876
0.991157
4.86943e-08
1.0091e-06
1.80789e-05
1.39012e-06
0.00185279
0.811303
0.999995
1
0.999998
0.99999
0.999978
0.99997
0.999969
0.999969
0.999974
0.999907
0.999926
0.999916
0.999946
1
0.999617
1
0.999997
0.999977
1
0.999667
0.999935
1
0.999929
0.999978
1
0.999912
0.999959
0.999906
0.999906
0.999933
1
0.999915
0.999928
1
0.999586
1
0.999534
1
0.999632
1
0.99961
0.999895
0.997474
0.998078
0.99808
0.99823
0.998168
0.999084
0.999194
0.999464
0.99952
1
0.99968
1
0.999586
1
0.999349
1
0.999437
1
0.999359
1
0.999433
1
0.999624
1
0.999563
1
0.99961
1
0.999563
0.999934
0.999214
0.969721
0.961617
0.978914
0.995699
8.47589e-08
4.31632e-07
3.27317e-07
2.01365e-05
0.0360695
0.918237
0.99999
0.999999
0.999998
0.999992
0.999983
0.999983
0.999984
0.999984
0.999949
0.999965
0.999957
0.999974
0.999915
0.99997
0.999925
0.999981
0.999941
1
0.99995
1
0.999944
1
0.999933
1
0.999965
1
0.999959
1
0.999821
0.999979
0.999988
1
0.999915
0.999944
0.999797
0.999927
1
0.999986
0.999919
0.999961
0.999922
0.999986
0.999908
0.999926
0.999937
1
0.999925
0.999961
1
0.999637
1
0.999619
1
0.99961
1
0.99961
0.999934
0.998874
0.998229
0.998227
0.998187
0.998199
0.998397
0.998525
0.99879
0.998933
0.999298
1
0.999347
1
0.999321
1
0.999342
1
0.999386
0.999383
1
0.99945
1
1
0.999479
0.999432
1
0.999425
1
1
1
0.999675
1
0.999601
1
0.999537
1
0.999524
1
0.999595
1
0.999585
1
0.999663
1
0.999654
0.999929
0.999623
0.99268
0.983447
0.988293
0.997695
5.42845e-08
1.86561e-07
2.74773e-05
0.00121512
0.159926
0.914107
0.99996
0.999999
0.999998
0.999995
0.999997
0.999997
0.999999
0.999978
0.999983
0.999988
0.999994
0.999962
1
0.999965
1
0.999975
1
0.999978
1
0.999969
1
0.999969
1
0.999982
1
0.999983
1
0.99992
0.999993
0.999921
0.999997
0.999938
1
0.999956
1
0.999961
1
0.999922
1
0.999976
1
0.999975
1
1
0.999677
1
0.999678
0.999934
0.999656
0.998991
0.998974
0.9986
0.998588
0.99797
0.998015
0.998011
0.998041
0.998823
1
0.998901
1
0.998801
1
0.998901
1
0.999121
1
0.999099
1
0.999174
1
0.999091
1
0.999346
1
0.999361
1
0.9993
1
0.99935
1
0.999479
0.999383
1
1
0.999399
1
0.999547
0.999372
1
1
0.999352
1
1
0.999646
1
0.999719
1
0.99964
1
0.999686
0.999907
0.999647
0.992405
0.988074
0.992116
0.998384
6.79385e-08
1.43322e-05
0.00129048
0.00846793
0.186639
0.866992
0.999713
0.999986
0.99997
0.999998
1
1
1
1
1
1
1
0.999972
1
0.999973
1
0.999985
1
0.999981
1
0.999977
1
0.999977
1
0.99999
1
0.999983
1
0.999979
1
0.999976
1
0.999555
0.999933
0.999489
0.999386
0.999239
0.999215
0.998458
0.998536
0.998116
0.998198
0.997969
1
0.998461
1
0.997813
1
0.998417
1
0.998577
1
0.998528
1
0.998596
1
0.998475
1
0.998949
1
0.999012
1
0.998939
1
0.998966
1
0.999232
1
0.999148
1
0.999156
1
0.999026
1
0.999705
0.995575
0.975679
0.990105
0.99358
0.99877
7.99293e-07
0.000753774
0.00626967
0.0158225
0.107928
0.754846
0.997286
0.999018
0.999979
0.999979
1
1
0.999999
0.999999
1
1
1
1
1
1
1
1
1
1
1
1
1
1
1
1
1
1
0.999976
1
0.999975
1
0.999992
1
0.999988
1
0.999988
1
0.999976
1
0.999995
1
1
1
0.998577
0.99917
0.999636
0.99901
0.998976
0.998934
0.999053
0.998947
0.998842
0.998955
0.998867
0.997973
1
0.998618
0.999999
0.997825
1
0.998669
0.999999
0.998841
1
0.998737
1
0.998895
1
0.998786
1
0.999016
1
0.998824
1
0.996511
0.963896
0.976039
0.98872
0.995113
0.998965
7.60482e-05
0.00328999
0.00846232
0.0153912
0.108969
0.452358
0.95949
0.95892
0.999987
0.999999
1
1
0.999999
1
1
0.999997
0.999999
1
1
0.999999
0.999996
0.999999
1
1
1
1
1
1
1
1
1
1
1
1
1
1
1
1
0.999994
1
0.999995
1
0.998825
0.997563
0.998399
0.998466
0.998471
0.998808
0.998901
0.998886
0.998945
0.998539
0.998622
1
0.99793
1
0.998012
1
0.997808
1
0.997936
1
0.99839
1
0.998256
1
0.998333
1
0.99817
0.998564
1
0.998774
0.999999
0.998497
0.999999
0.998745
0.999999
0.998961
1
0.998901
1
0.998833
1
0.998778
1
0.963838
0.921579
0.984355
0.983941
0.996485
0.000587557
0.00332708
0.00275195
0.011239
0.0782545
0.312743
0.61564
0.919003
0.918896
0.759769
0.759344
1
1
0.999963
1
1
1
0.999931
1
1
1
0.999999
1
1
0.999999
0.999999
1
1
0.999999
1
1
1
1
1
1
1
1
1
1
1
1
1
1
1
1
0.994514
0.999037
0.997563
0.997707
0.998187
0.998212
0.998562
0.998575
0.998662
0.998684
0.997999
1
1
0.996426
0.997814
1
1
0.996376
1
0.997977
0.999999
0.998099
1
0.997839
1
0.997989
1
0.998451
1
0.998314
1
0.998307
1
0.998214
0.998625
1
0.998442
1
0.896988
0.957932
0.97929
0.986927
0.000738407
0.000273914
0.000674154
0.00822625
0.0595205
0.180461
0.27507
0.274842
0.302429
0.302503
0.840474
0.840876
0.542896
0.543456
0.99997
1
0.999963
1
0.999959
1
0.999931
1
1
0.912226
1
0.97349
1
0.912163
1
0.973369
1
1
1
0.999999
1
1
1
1
0.999987
1
0.999994
1
0.999996
1
0.999999
1
0.962093
0.999192
0.998498
0.997705
0.998465
0.998524
0.998655
0.998621
0.999062
0.998908
0.998027
0.999999
0.997837
0.999999
0.997778
0.999999
0.997675
0.999999
0.99812
0.999984
0.998041
0.999996
0.996433
1
0.997866
0.999992
0.997888
0.999996
0.996378
1
0.99783
0.999998
0.997754
0.999999
1
0.998077
0.999999
0.998138
1
0.997976
1
0.998046
0.896993
0.996482
0.976433
7.41415e-05
1.19057e-05
0.000347103
0.00466881
0.0359133
0.0949572
0.276008
0.270894
0.312381
0.312381
0.680527
0.885669
0.854689
0.528735
0.755223
1
0.885947
0.682109
1
0.857748
0.530742
0.755504
0.189016
0.3205
0.245577
0.391062
0.193177
0.32014
0.25057
0.392361
0.99995
1
1
1
0.999921
1
1
1
0.999848
0.933723
0.999857
0.933737
1
1
1
1
1
1
1
1
0.896988
0.994497
0.999193
0.998736
0.998395
0.998678
0.998399
0.998575
0.999209
0.999225
0.999282
0.999174
1
0.998316
1
0.998703
0.999999
0.997845
1
0.998032
1
0.998588
0.999999
0.997693
0.998493
0.99997
0.99843
0.999986
0.99846
0.999953
0.998435
0.998046
0.99997
0.999992
0.998368
0.99998
0.998404
0.997971
0.999986
0.999996
0.998099
0.999999
0.998022
1
0.970832
0.997736
2.68947e-07
5.99143e-06
0.000117502
0.00123443
0.00627204
0.0370734
0.0374153
0.010988
0.0109025
0.309928
0.30169
0.199265
0.203799
0.817687
0.483321
0.668298
0.956965
0.242735
0.33381
0.818383
0.487775
0.957758
0.664824
0.247579
0.329745
0.0949834
0.345415
0.0955391
0.199959
0.0940725
0.334325
0.0947048
0.196771
0.984554
1
0.984469
1
0.91329
0.920552
0.999085
0.999192
0.999051
0.999274
0.999275
0.999085
0.999133
0.998607
1
0.998899
1
0.998851
1
0.999021
1
0.999123
0.998331
1
0.999111
1
1
0.99891
0.99805
1
0.998918
1
1
1
0.999995
0.998885
0.998704
0.999986
0.999987
0.998821
0.998656
0.998666
0.999971
0.998655
0.999985
0.998625
0.999951
0.99847
1
0.998499
0.999974
0.998418
1
0.997212
1.82719e-08
5.24674e-06
3.41104e-05
0.000305707
0.00291629
0.00839072
0.00830431
0.00374792
0.00371426
0.174452
0.262718
0.434671
0.18969
0.179334
0.24292
0.443272
0.196738
0.0502378
0.0513072
0.195372
0.512284
0.117494
0.342337
0.164282
0.512284
0.104034
0.33983
0.99009
0.919692
0.992044
0.999169
0.999193
0.998783
0.998647
0.999397
0.999181
0.999535
0.999397
0.999509
0.999304
0.998616
1
0.999046
1
0.998858
1
0.999069
0.999986
0.999232
0.99922
1
1
0.999163
1
0.998988
0.998941
1
0.999999
0.998979
1
1
0.998782
0.999991
0.998743
1.79006e-08
2.31864e-06
8.81025e-06
0.000109259
0.000619924
0.000620994
0.000173163
0.000172974
0.00516237
0.00512612
0.00123749
0.00121634
0.115018
0.247965
0.405136
0.124483
0.119307
0.245498
0.431553
0.134612
0.00903624
0.011018
0.0272666
0.024817
0.00902982
0.0112209
0.02835
0.0253563
0.277984
0.512284
0.245139
0.512284
0.987333
0.990759
0.997935
0.998419
0.999192
0.998947
0.998649
0.999187
0.998825
0.999536
0.999074
1
0.999176
1
0.999044
1
0.998914
0.999931
0.998709
0.999182
1
0.999221
1
0.999054
0.999965
0.999102
1
1.10046e-08
3.06829e-07
1.48726e-06
9.72683e-05
0.000252892
0.000252286
0.000184141
0.000182697
0.00932226
0.0145332
0.00114533
0.00262582
0.00265196
0.00106695
0.00943836
0.0146948
0.00113857
0.00258643
0.00260121
0.00105299
0.00057234
0.000570546
0.0521416
0.190165
0.186321
0.0731138
0.0549471
0.199394
0.20086
0.0801407
0.0121738
0.01484
0.0125493
0.0149495
0.990745
0.997589
0.993486
0.997778
0.999171
0.999111
0.998983
0.998983
0.999164
0.999196
0.998851
0.998808
0.998078
0.999702
0.998494
0.999839
0.999048
1
0.998014
0.999705
0.998363
0.999854
0.998714
1
0.999259
0.999998
0.998874
0.999973
0.999255
1
0.998942
0.999994
4.65289e-10
6.37477e-08
1.25972e-05
0.000210855
0.000208506
0.000159875
0.000158788
0.000480009
0.000478454
0.000299977
0.0002983
0.00650263
0.0124191
0.00115298
0.0018143
0.00398191
0.000832718
0.00648219
0.012728
0.00115632
0.00178576
0.00394186
0.000825788
0.000415518
0.000409728
0.000417905
0.000427135
0.000417019
0.000411525
0.000419522
0.000424104
0.998546
0.996455
0.978276
0.996268
0.99939
0.999375
0.998991
0.99904
0.9992
0.999203
0.998081
0.999201
0.999816
0.998114
0.999124
0.998279
0.999864
0.998124
0.999189
0.998404
0.998015
0.999281
0.998376
0.999088
0.999929
1
0.998316
0.998729
0.999931
0.999994
0.999321
0.999999
0.998845
0.999989
2.7388e-10
1.5587e-06
8.98477e-05
0.000121344
0.000119753
0.000117073
0.000114553
0.000425981
0.000405092
0.000226402
0.000202795
0.000620044
0.000150145
0.000421077
0.00040808
0.000248761
0.000215589
0.000627313
0.000154314
0.000125414
0.000125489
0.00067304
0.000543065
0.000716935
0.000536756
0.000439044
0.00040808
0.000434283
0.000411525
0.999413
0.986073
0.973002
0.989559
0.988196
0.999526
0.999478
0.999732
0.999678
0.999054
0.999065
0.998027
1
0.998654
1
0.998569
0.999897
0.998027
0.998617
0.999885
1
0.998734
1
0.998096
0.999222
0.998363
0.999449
0.998317
0.998031
0.999352
0.999095
6.55417e-30
1.2191e-05
2.60157e-05
4.10922e-05
4.29155e-05
4.08467e-05
4.10554e-05
0.000280387
0.000401865
0.000144234
0.000143905
0.000155449
0.000127024
0.000289681
0.000454376
0.000147253
0.000148068
0.000211191
0.000129391
2.89185e-05
4.7034e-05
2.50361e-05
2.61567e-05
3.04975e-05
4.82007e-05
2.61757e-05
2.64009e-05
0.000409188
0.000405092
0.000408797
0.00040808
0.99848
0.979703
0.973112
0.992749
0.991819
0.999184
0.999164
0.99975
0.999728
0.998044
1
1
0.99827
1
0.998269
0.998046
1
1
0.998223
1
0.998222
0.998606
0.99877
1
0.999894
0.998804
0.999888
0.998737
1
1.06118e-05
7.76416e-06
8.91368e-07
1.96397e-05
2.07922e-05
1.00049e-06
3.91556e-07
3.91555e-07
2.22396e-05
1.86579e-05
2.4917e-05
2.40969e-05
2.06832e-05
2.5455e-05
0.000225256
0.000214561
2.45121e-06
5.38636e-05
1.21787e-05
9.71484e-06
0.000232421
0.000287748
1.96051e-06
5.60801e-05
1.8101e-05
1.04002e-05
9.7188e-06
8.45018e-06
1.08739e-05
8.63227e-06
0.997498
0.983342
0.984934
0.990225
0.989291
0.998976
0.998922
0.999754
1
0.999631
1
0.998617
1
0.999767
0.998558
1
1
0.99959
1
0.998353
1
0.998357
1
0.998332
1
0.998302
1
0.998528
1
0.998615
1
2.13825e-05
4.63748e-07
1.12527e-05
3.85362e-06
1.34837e-05
5.64754e-06
6.4276e-07
6.70152e-07
1.98835e-06
8.77172e-06
3.19059e-05
1.37458e-05
1.5351e-05
4.86828e-05
5.89831e-06
3.82156e-05
1.07313e-05
3.58656e-06
3.90781e-05
1.59147e-05
1.6023e-05
5.41482e-05
7.17944e-06
4.15049e-05
1.73691e-06
5.15249e-06
1.74176e-06
6.01328e-06
6.23343e-06
5.05961e-06
7.61547e-06
5.54286e-06
0.99746
0.990212
0.980528
0.988517
0.987628
0.98053
0.982542
0.981062
0.998225
0.999777
1
0.998146
0.999775
1
0.998921
0.999751
1
1
0.998828
1
0.999734
1
0.998298
1
0.998425
1
0.998298
1
0.998346
1
5.02602e-09
1.05267e-06
1.629e-05
4.31676e-05
9.9772e-06
9.1326e-06
2.09634e-05
5.18048e-05
1.24289e-05
1.29331e-05
2.62873e-06
2.24704e-06
1.40048e-06
7.65496e-06
4.14957e-06
2.288e-05
4.63562e-05
4.64762e-05
2.93e-06
5.45483e-06
1.08828e-05
2.6362e-05
5.4127e-05
5.4127e-05
1.9529e-06
1.94014e-06
1.9899e-06
2.5221e-06
0.997856
0.991336
0.982923
0.987266
0.986231
0.981492
0.984434
0.983581
0.996974
0.999413
1
0.999683
1
1
0.990176
1
0.997614
0.999465
1
0.999681
1
1
0.989733
1
0.999262
0.999846
1
1
0.999231
1
0.999822
1
5.17264e-11
8.56003e-06
5.13808e-06
3.68004e-06
4.55913e-06
1.72327e-07
8.72078e-08
3.64203e-06
2.89203e-05
9.08011e-06
1.01163e-05
1.34982e-05
2.05216e-05
1.19933e-06
1.13476e-05
9.95594e-06
5.43409e-06
1.3656e-05
8.94902e-06
4.19072e-05
1.12296e-05
1.07713e-05
1.69985e-05
2.57845e-05
1.33767e-06
1.41181e-05
1.20821e-05
7.89008e-06
2.25716e-05
3.92345e-06
9.15452e-06
3.94815e-05
1.63313e-05
6.93307e-06
1.17023e-05
5.14541e-05
2.46231e-05
0.997577
0.99327
0.984784
0.987844
1
0.988845
0.986435
1
0.98858
0.984432
0.984896
0.983966
0.998892
0.994615
0.999875
1
1
1
0.999135
0.995199
0.999855
1
1
1
0.999589
1
0.999556
1
3.56315e-29
1.09724e-05
9.91279e-06
6.82283e-06
5.54667e-06
4.29885e-07
3.18848e-07
6.49551e-06
1.19933e-06
2.66114e-06
5.66437e-06
6.95244e-06
1.36651e-05
3.14944e-06
6.508e-05
9.69623e-05
1.02936e-05
1.92367e-05
3.51029e-05
3.16836e-06
7.35523e-06
7.4471e-06
1.19933e-06
6.0881e-06
2.71221e-06
8.61457e-06
1.67988e-05
7.90202e-05
2.4227e-06
0.000101088
1.3194e-05
2.37437e-05
3.6761e-05
2.42167e-06
4.08873e-06
0.995062
0.991104
0.987405
0.98708
0.991219
0.994733
0.995244
0.978043
1
0.98141
1
0.983062
1
0.979336
1
0.97509
1
0.980375
1
0.982554
1
0.977427
1
0.984878
0.978174
1
0.983751
0.975224
1
0.997448
0.989955
1
1
0.998072
0.990386
1
1
6.05061e-09
1.57457e-05
1.06038e-05
5.13809e-06
1.08798e-05
1.02569e-05
7.59288e-06
2.80787e-06
6.28365e-06
6.26249e-07
4.77778e-07
1.19933e-06
2.455e-06
0.000127465
8.95006e-05
0.00018203
5.87183e-06
0.000546675
0.000299198
0.00022203
5.42884e-05
1.19933e-06
2.05547e-06
0.000139235
9.27843e-05
0.000215944
0.000588918
7.78443e-06
0.000302206
0.000226184
5.65951e-05
0.991516
0.994024
0.99271
0.992877
0.994727
0.99449
0.995227
0.986705
0.980855
1
1
0.979215
1
0.986425
0.979368
1
1
0.977304
1
0.977248
0.974533
1
0.974658
1
1
0.984476
1
0.975516
0.971344
1
0.971462
1
1
0.98306
1
8.67849e-08
4.04027e-07
4.01013e-07
1.86723e-05
8.60188e-06
9.1088e-06
3.50106e-06
7.14496e-06
5.68742e-06
1.2842e-05
7.75875e-06
5.30726e-06
3.62075e-06
3.69798e-06
3.5649e-06
0.00093017
0.000167852
3.20576e-06
0.000441235
0.000262261
1.78484e-05
0.00100251
0.000190904
3.55602e-06
0.000438828
0.000264876
1.85837e-05
0.99268
0.993513
0.991627
1
0.985834
0.991512
1
0.9844
0.993981
0.995415
0.996217
0.979089
1
0.976783
1
0.977172
1
0.97496
1
0.974946
0.978166
0.975382
1
1
1
0.972741
0.97669
0.973376
1
1
0.999997
1.21124e-08
3.99764e-07
2.79146e-07
4.0263e-07
2.88052e-07
1.8676e-05
4.57271e-06
9.92235e-06
3.74981e-06
1.03026e-05
1.84728e-06
1.35e-06
2.3359e-06
1.29221e-05
4.08663e-06
6.12582e-06
3.51817e-06
6.79135e-06
8.85456e-07
1.22444e-06
1.68765e-06
1.07771e-05
2.36976e-05
1.26252e-05
2.43339e-05
0.993534
0.993088
0.99326
0.992526
1
0.980015
1
0.979662
0.992915
1
0.977562
1
0.977477
0.995792
0.996267
0.974054
0.974053
0.976641
1
1
1
0.97165
0.972007
0.975333
1
1
0.999994
3.9418e-11
1.93358e-08
4.61095e-09
2.07747e-08
4.75687e-09
4.92711e-07
4.46378e-07
1.18118e-05
8.69417e-06
1.20741e-05
1.25557e-05
1.27845e-05
1.67614e-06
2.36238e-06
1.20434e-06
2.38585e-06
7.23646e-07
7.23256e-07
6.68039e-06
6.43398e-06
7.33573e-06
7.66535e-06
8.54374e-06
1.06735e-06
1.09409e-06
8.32041e-07
1.52792e-06
7.23994e-07
7.23646e-07
0.995642
0.991789
0.989555
0.992085
0.990503
0.992949
1
0.980422
1
0.981312
0.977031
1
0.993946
1
0.976814
1
0.978057
0.975468
0.999992
0.996078
0.996261
0.973686
1
0.971285
1
9.02992e-15
3.95391e-11
3.84272e-28
3.72845e-11
1.37573e-28
1.77389e-08
7.02097e-10
1.89652e-08
6.32227e-10
2.00297e-06
1.5041e-06
6.75415e-06
7.82492e-06
1.17723e-05
7.69046e-06
2.71259e-06
6.22784e-06
3.46677e-06
4.73177e-06
1.27848e-06
7.23229e-07
7.23167e-07
8.76819e-07
4.40915e-06
4.21702e-06
8.20685e-06
3.29221e-06
1.71948e-06
3.11243e-06
2.14237e-06
2.93266e-06
8.797e-07
7.23502e-07
7.23242e-07
7.76574e-07
0.992699
0.989394
0.989384
0.989926
0.990166
0.99587
0.996079
0.993507
1
0.979886
1
0.980523
0.999999
0.97742
0.999999
0.976836
0.973578
1
0.993741
1
0.975831
1
0.976947
0.99999
0.976093
0.999989
0.975415
0.971414
1
1.43633e-11
3.79434e-15
5.5392e-32
3.81955e-15
3.9427e-32
1.00763e-11
1.18481e-14
9.48224e-12
7.41282e-15
2.28845e-07
3.97863e-08
1.70047e-07
2.71227e-08
3.08017e-06
8.00087e-07
7.72609e-07
1.16865e-06
2.29855e-06
7.20022e-07
8.50045e-07
9.2083e-07
3.31036e-06
4.32065e-06
3.27774e-06
3.80351e-06
1.99492e-06
2.24171e-06
2.46343e-06
1.12769e-06
0.987605
0.991168
0.993933
0.991855
0.994292
0.995597
0.995317
0.996075
0.99595
0.994555
0.994407
0.999901
0.979257
1
0.980145
0.999994
0.974739
0.999966
0.976004
1
0.973562
1
0.972875
0.999617
0.975493
0.999865
0.976628
0.999965
0.97248
0.999839
0.974548
1
0.971725
1
0.971335
9.03793e-10
6.50666e-10
1.14166e-14
5.49011e-15
5.85196e-15
1.80049e-15
3.64541e-09
2.65553e-10
2.84479e-09
1.57921e-10
1.85383e-07
1.45365e-07
4.68999e-07
8.7793e-08
1.06121e-07
3.00722e-08
1.06295e-07
3.12248e-08
1.39819e-07
1.22174e-07
4.11323e-07
6.99127e-08
7.19548e-08
1.72887e-08
6.49463e-08
2.25791e-08
1.65648e-06
2.32864e-07
1.00049e-06
3.9704e-07
1.36201e-06
2.43925e-07
8.20178e-07
3.44082e-07
0.992344
0.99612
0.995402
0.996131
0.995907
0.994571
0.994045
0.995317
0.994912
0.995194
0.99495
0.995378
0.995336
0.999753
0.981885
0.999564
0.981042
0.999523
0.980094
0.999388
0.978259
0.999383
0.973462
0.999835
0.971918
0.998598
0.970276
0.99945
0.968307
5.33848e-08
5.11894e-14
3.54085e-10
5.1194e-14
3.45955e-10
2.75584e-09
1.81669e-11
5.94963e-13
8.64125e-12
1.15181e-13
1.90595e-08
1.03164e-08
5.74683e-08
5.48122e-09
3.35724e-09
3.84526e-10
4.81897e-10
1.13814e-09
1.29304e-08
5.45125e-09
3.39092e-08
2.82833e-09
2.32908e-09
1.85534e-10
2.38214e-10
6.54502e-10
6.64885e-08
7.81912e-08
2.79072e-07
2.62159e-08
3.72473e-08
1.7114e-08
6.39253e-08
1.6977e-08
5.11744e-08
6.29487e-08
2.22438e-07
2.26093e-08
2.96359e-08
9.61764e-09
4.33303e-08
1.1498e-08
0.997605
0.994445
0.993971
0.994823
0.995164
0.995576
0.993445
0.98946
0.993993
0.990441
0.999691
0.983281
0.99953
0.985984
0.999908
0.985303
0.999831
0.986938
0.999597
0.982611
0.999403
0.986531
0.999939
0.987833
0.999992
0.988528
0.99855
0.970552
0.9974
0.971062
0.997568
0.966996
0.996326
0.967377
1.58645e-07
3.26968e-08
3.27833e-08
3.24239e-08
3.23351e-08
7.628e-13
5.465e-11
2.69498e-13
4.97812e-11
2.15668e-09
7.868e-12
6.86199e-11
6.04139e-11
5.25881e-12
2.6924e-12
7.33971e-14
9.4687e-13
4.4775e-13
1.55572e-12
2.44988e-11
1.92624e-11
2.87042e-13
7.45106e-13
9.2172e-15
2.412e-13
6.66699e-14
1.61738e-08
8.46195e-09
4.27548e-08
4.66883e-09
5.85397e-09
7.33354e-10
9.48998e-10
2.43909e-09
1.1019e-08
4.31176e-09
2.79521e-08
2.39221e-09
4.0113e-09
3.24615e-10
5.39356e-10
1.29318e-09
0.998988
0.987958
0.973928
0.969733
0.98064
0.976883
0.977985
0.978689
0.983174
0.984387
0.999938
0.984891
0.999725
0.986855
0.999992
0.977402
0.999992
0.9864
0.999992
0.987852
0.999992
0.987957
0.999992
0.97744
0.999992
0.985721
0.998173
0.971203
0.997106
0.973801
0.999662
0.973332
0.999592
0.974984
0.997644
0.968219
0.996196
0.97285
0.999631
0.977051
0.999983
0.976932
4.80982e-07
1.70421e-07
8.95261e-09
1.17588e-08
8.67e-09
1.17485e-08
7.09941e-14
7.29506e-14
1.678e-12
6.41294e-13
1.70244e-12
2.04892e-12
3.44528e-11
1.42988e-11
2.258e-14
2.16712e-14
9.2172e-15
9.2172e-15
4.40539e-13
2.20406e-13
4.71653e-13
5.39719e-13
3.00739e-11
1.25615e-11
2.16712e-14
2.258e-14
4.09677e-08
1.00127e-11
1.19128e-10
9.67539e-11
6.24553e-12
3.55095e-12
2.89331e-13
2.60038e-12
3.86506e-11
3.51963e-11
1.03461e-12
7.95817e-13
3.71403e-14
3.10936e-09
7.69787e-10
8.1732e-10
2.26129e-09
2.18779e-09
3.31772e-10
4.27587e-10
1.18512e-09
0.99841
0.990278
0.958972
0.925351
0.968271
0.930635
0.927639
0.932117
0.933431
0.936623
0.996726
0.951305
0.999314
0.905982
0.996608
0.919131
0.999992
0.904396
0.997526
0.960632
0.999553
0.927615
0.997332
0.938396
0.999992
0.925165
0.998885
0.967997
0.99882
0.967357
0.99947
0.970372
0.998715
0.975176
0.999979
0.974667
0.999981
0.973988
0.999938
0.9765
0.999563
0.980106
1.8976e-06
2.42727e-07
4.18318e-07
2.43072e-07
4.02372e-07
3.5616e-06
5.55887e-10
2.46437e-09
5.16086e-10
2.60019e-09
7.25112e-14
7.02116e-14
2.68062e-12
1.40263e-12
5.10224e-13
1.6965e-12
1.46009e-11
1.56475e-13
2.16712e-14
9.04715e-13
9.2172e-15
9.2172e-15
6.40917e-13
3.25995e-13
1.52054e-13
4.66056e-13
1.17304e-11
1.54971e-13
5.48692e-14
1.87034e-13
2.37934e-07
8.13471e-12
1.36429e-10
9.00993e-11
5.79726e-12
3.16732e-12
1.45137e-13
1.95435e-12
4.37755e-11
2.81275e-11
1.25829e-12
6.89074e-13
1.92241e-14
0.994364
0.991409
0.94281
0.938418
0.925365
0.93918
0.925398
0.855704
0.867194
0.961022
0.855894
0.968751
0.980229
0.857689
0.993063
0.8575
0.980386
0.875666
0.855849
0.959592
0.856055
0.967766
0.980848
0.856657
0.993055
0.85641
0.979799
0.974788
0.945718
0.991425
0.903941
0.970379
0.884417
0.98005
0.954764
0.99466
0.914633
0.973457
0.894236
0.999429
0.952489
0.997017
0.956086
0.999966
0.959603
0.998897
0.962433
6.07271e-05
2.67888e-07
2.34431e-07
2.06012e-07
2.25328e-07
9.13366e-08
1.96996e-07
9.67375e-08
1.83205e-07
6.90279e-06
1.64992e-13
1.64992e-13
1.6499e-13
1.6499e-13
1.6499e-13
1.45499e-09
7.54228e-11
1.64992e-13
1.6499e-13
1.6499e-13
1.64992e-13
1.64992e-13
1.64992e-13
1.50581e-09
8.00688e-11
1.6499e-13
7.63034e-14
8.91024e-13
1.18272e-11
2.37607e-12
2.42526e-13
8.87238e-13
9.2172e-15
9.2172e-15
8.43793e-12
1.24058e-12
9.2172e-15
1.27229e-13
1.13822e-07
0.983923
0.971231
0.975852
0.923951
0.922825
0.922846
0.922576
0.91928
0.932087
0.918473
0.930659
0.860743
0.855488
0.923338
0.940371
0.855933
0.923032
0.857864
0.966694
0.867228
0.947563
0.861143
0.855665
0.938374
0.92272
0.856021
0.922099
0.856892
0.966507
0.867055
0.947114
0.925603
0.922442
0.978283
0.876266
0.914095
0.858533
0.935348
0.932746
0.985055
0.885544
0.916227
0.861609
0.000289095
6.11322e-05
1.24565e-07
1.5134e-06
1.04028e-07
9.80785e-07
6.37892e-09
7.86577e-10
3.23571e-09
2.3238e-08
1.20958e-08
4.2999e-13
4.32325e-08
1.41145e-08
4.6104e-08
1.86314e-08
9.62718e-09
7.82579e-10
3.98468e-09
3.0571e-08
1.47427e-08
4.3069e-13
3.24544e-08
1.06824e-08
4.01153e-08
1.68503e-08
4.90858e-06
7.6416e-13
1.6499e-13
1.82015e-13
3.30096e-13
6.96856e-13
1.6499e-13
8.6133e-13
1.64992e-13
1.6499e-13
3.64449e-13
6.95574e-13
1.64994e-13
7.32819e-09
0.980407
0.906996
0.955458
0.937806
0.94302
0.934927
0.939875
0.955373
0.960114
0.951083
0.953825
0.963303
0.862425
0.955457
0.863533
0.976284
0.916891
0.992198
0.877956
0.961516
0.863183
0.955506
0.863948
0.973436
0.913872
0.991713
0.876123
0.854945
0.902308
0.861592
0.919522
0.855519
0.905443
0.855554
0.901744
0.862411
0.920505
0.855984
0.90196
0.000768881
0.000145213
0.000864078
0.000154643
0.000866783
9.30655e-05
8.14944e-09
7.30108e-06
5.35272e-09
6.25431e-06
3.2544e-10
8.05931e-11
4.3069e-13
1.03853e-10
3.51426e-09
9.12398e-10
4.57849e-09
4.27024e-10
6.26936e-09
1.92998e-09
7.8625e-11
1.1855e-10
4.2999e-13
1.57564e-10
5.87025e-09
1.33937e-09
2.2141e-09
4.07831e-10
5.77931e-09
1.7523e-09
1.7005e-06
5.76321e-13
1.64992e-13
5.19671e-13
1.6499e-13
5.37922e-11