/*--------------------------------*- C++ -*----------------------------------*\
| =========                 |                                                 |
| \\      /  F ield         | OpenFOAM: The Open Source CFD Toolbox           |
|  \\    /   O peration     | Version:  5.x                                   |
|   \\  /    A nd           | Web:      www.OpenFOAM.org                      |
|    \\/     M anipulation  |                                                 |
\*---------------------------------------------------------------------------*/
FoamFile
{
    version     2.0;
    format      ascii;
    class       volScalarField;
    location    "2.8";
    object      k;
}
// * * * * * * * * * * * * * * * * * * * * * * * * * * * * * * * * * * * * * //

dimensions      [0 2 -2 0 0 0 0];

internalField   nonuniform List<scalar> 
12160
(
9.92505e-09
9.88195e-09
1.00215e-08
9.85296e-09
1.0058e-08
1.00116e-08
9.83545e-09
1.00973e-08
1.0023e-08
1.0011e-08
9.8264e-09
1.01571e-08
1.00371e-08
1.00197e-08
1.0011e-08
9.82249e-09
1.01943e-08
1.00562e-08
1.00274e-08
1.00197e-08
1.00121e-08
9.82124e-09
1.02035e-08
1.00712e-08
1.0035e-08
1.00264e-08
1.00225e-08
1.00126e-08
9.82108e-09
1.0198e-08
1.00766e-08
1.00405e-08
1.00315e-08
1.00293e-08
1.00268e-08
1.00243e-08
9.82124e-09
1.01893e-08
1.00748e-08
1.00425e-08
1.00345e-08
1.0033e-08
1.00352e-08
1.00544e-08
1.01881e-08
9.82139e-09
1.01823e-08
1.00719e-08
1.00421e-08
1.00357e-08
1.00348e-08
1.00386e-08
1.00615e-08
1.01845e-08
1.02078e-08
9.82154e-09
1.01772e-08
1.00694e-08
1.00412e-08
1.00357e-08
1.00353e-08
1.00389e-08
1.00553e-08
1.01726e-08
1.0208e-08
1.02673e-08
9.82234e-09
1.01728e-08
1.00673e-08
1.00405e-08
1.00355e-08
1.00356e-08
1.00383e-08
1.005e-08
1.01472e-08
1.02093e-08
1.03137e-08
1.03359e-08
9.82386e-09
1.01689e-08
1.0065e-08
1.00399e-08
1.00352e-08
1.00357e-08
1.00381e-08
1.00485e-08
1.01278e-08
1.02043e-08
1.03483e-08
1.03347e-08
1.0225e-08
9.82593e-09
1.01637e-08
1.00627e-08
1.00391e-08
1.0035e-08
1.00357e-08
1.00383e-08
1.0051e-08
1.01119e-08
1.0195e-08
1.03176e-08
1.03297e-08
1.01544e-08
1.02006e-08
9.82817e-09
1.01615e-08
1.00606e-08
1.00382e-08
1.00346e-08
1.00355e-08
1.00386e-08
1.00547e-08
1.01022e-08
1.01802e-08
1.02867e-08
1.02508e-08
1.02507e-08
1.01262e-08
1.01331e-08
9.83009e-09
1.01613e-08
1.00592e-08
1.00375e-08
1.00341e-08
1.00352e-08
1.00386e-08
1.00578e-08
1.00968e-08
1.01664e-08
1.02642e-08
1.02332e-08
1.01512e-08
1.01552e-08
1.00415e-08
9.83203e-09
1.01625e-08
1.00583e-08
1.00369e-08
1.00336e-08
1.00348e-08
1.00384e-08
1.00599e-08
1.00952e-08
1.01528e-08
1.02469e-08
1.02389e-08
1.0128e-08
1.00903e-08
1.00953e-08
9.83432e-09
1.01645e-08
1.00576e-08
1.00366e-08
1.00332e-08
1.00344e-08
1.00382e-08
1.0061e-08
1.00958e-08
1.0141e-08
1.02314e-08
1.02513e-08
1.01177e-08
1.00668e-08
1.00539e-08
9.83772e-09
1.01654e-08
1.00566e-08
1.00364e-08
1.00329e-08
1.0034e-08
1.00383e-08
1.00616e-08
1.00975e-08
1.01342e-08
1.02165e-08
1.02597e-08
1.0113e-08
1.00563e-08
1.00378e-08
9.84207e-09
1.01665e-08
1.00556e-08
1.00361e-08
1.00328e-08
1.00338e-08
1.00385e-08
1.00623e-08
1.00988e-08
1.01303e-08
1.0203e-08
1.02673e-08
1.01193e-08
1.00522e-08
1.00306e-08
9.84636e-09
1.01675e-08
1.00555e-08
1.00359e-08
1.00328e-08
1.00339e-08
1.00388e-08
1.00631e-08
1.00993e-08
1.01283e-08
1.01925e-08
1.02763e-08
1.01111e-08
1.00522e-08
1.00286e-08
9.85021e-09
1.01686e-08
1.00563e-08
1.00359e-08
1.00328e-08
1.00339e-08
1.00391e-08
1.00631e-08
1.00992e-08
1.01283e-08
1.01881e-08
1.02927e-08
1.01241e-08
1.00495e-08
1.00284e-08
9.85316e-09
1.01705e-08
1.00574e-08
1.00363e-08
1.0033e-08
1.00341e-08
1.00394e-08
1.00627e-08
1.0098e-08
1.01274e-08
1.01842e-08
1.02719e-08
1.01658e-08
1.00527e-08
1.00281e-08
9.85499e-09
1.01723e-08
1.00582e-08
1.00368e-08
1.00334e-08
1.00346e-08
1.004e-08
1.00622e-08
1.00957e-08
1.01241e-08
1.01769e-08
1.02409e-08
1.01965e-08
1.00733e-08
1.00299e-08
9.85562e-09
1.01732e-08
1.00588e-08
1.00372e-08
1.00339e-08
1.00354e-08
1.00412e-08
1.00617e-08
1.0093e-08
1.01195e-08
1.01688e-08
1.02224e-08
1.01995e-08
1.00951e-08
1.00347e-08
9.85508e-09
1.01733e-08
1.00589e-08
1.00375e-08
1.00343e-08
1.00363e-08
1.00429e-08
1.00613e-08
1.00899e-08
1.01153e-08
1.0162e-08
1.02136e-08
1.01937e-08
1.01036e-08
1.00422e-08
9.85348e-09
1.01728e-08
1.00587e-08
1.00375e-08
1.00345e-08
1.00368e-08
1.0044e-08
1.0061e-08
1.00862e-08
1.01112e-08
1.01566e-08
1.02094e-08
1.01894e-08
1.01117e-08
1.00461e-08
9.851e-09
1.01716e-08
1.00582e-08
1.00375e-08
1.00345e-08
1.00367e-08
1.0044e-08
1.00599e-08
1.00827e-08
1.01073e-08
1.0149e-08
1.0207e-08
1.01852e-08
1.01149e-08
1.00477e-08
9.84785e-09
1.01698e-08
1.00574e-08
1.00374e-08
1.00345e-08
1.00361e-08
1.00428e-08
1.00574e-08
1.00782e-08
1.01026e-08
1.01386e-08
1.01935e-08
1.0185e-08
1.01123e-08
1.00479e-08
9.84417e-09
1.01676e-08
1.00563e-08
1.00372e-08
1.00346e-08
1.0036e-08
1.00409e-08
1.00535e-08
1.00722e-08
1.00954e-08
1.01264e-08
1.01684e-08
1.01809e-08
1.01125e-08
1.00456e-08
9.84012e-09
1.01651e-08
1.00549e-08
1.00368e-08
1.00347e-08
1.00366e-08
1.00406e-08
1.00495e-08
1.00651e-08
1.00859e-08
1.01125e-08
1.01435e-08
1.0164e-08
1.01125e-08
1.00457e-08
9.83587e-09
1.01623e-08
1.00534e-08
1.00363e-08
1.00346e-08
1.00372e-08
1.00421e-08
1.0049e-08
1.00586e-08
1.00748e-08
1.00965e-08
1.01212e-08
1.01379e-08
1.01004e-08
1.0048e-08
9.83144e-09
1.01598e-08
1.00518e-08
1.00358e-08
1.00344e-08
1.00376e-08
1.00441e-08
1.00521e-08
1.00578e-08
1.00648e-08
1.00783e-08
1.00966e-08
1.01132e-08
1.00818e-08
1.00425e-08
9.82779e-09
1.01568e-08
1.00502e-08
1.00352e-08
1.0034e-08
1.00376e-08
1.00457e-08
1.00564e-08
1.00624e-08
1.00628e-08
1.00638e-08
1.00701e-08
1.00851e-08
1.00651e-08
1.00299e-08
9.82633e-09
1.01552e-08
1.00489e-08
1.00347e-08
1.00337e-08
1.00372e-08
1.00465e-08
1.00604e-08
1.00694e-08
1.00687e-08
1.00631e-08
1.0052e-08
1.00557e-08
1.00478e-08
1.00219e-08
9.82619e-09
1.0155e-08
1.00485e-08
1.00343e-08
1.00334e-08
1.00367e-08
1.00466e-08
1.00637e-08
1.00767e-08
1.00785e-08
1.00738e-08
1.00587e-08
1.00365e-08
1.00314e-08
1.00158e-08
9.82673e-09
1.01543e-08
1.00498e-08
1.00342e-08
1.00332e-08
1.00361e-08
1.00462e-08
1.00662e-08
1.00837e-08
1.00893e-08
1.00881e-08
1.00801e-08
1.00404e-08
1.00213e-08
1.00109e-08
9.82762e-09
1.01549e-08
1.00525e-08
1.00347e-08
1.00332e-08
1.00356e-08
1.00453e-08
1.00679e-08
1.009e-08
1.01006e-08
1.01031e-08
1.01006e-08
1.00587e-08
1.00213e-08
1.0008e-08
9.82871e-09
1.01571e-08
1.00559e-08
1.00356e-08
1.00335e-08
1.00354e-08
1.00439e-08
1.00689e-08
1.00953e-08
1.01123e-08
1.01198e-08
1.012e-08
1.00753e-08
1.00279e-08
1.00078e-08
9.82999e-09
1.01607e-08
1.00598e-08
1.0037e-08
1.00341e-08
1.00357e-08
1.00423e-08
1.00693e-08
1.00992e-08
1.0122e-08
1.01403e-08
1.01446e-08
1.00889e-08
1.00365e-08
1.00095e-08
1.01655e-08
9.8322e-09
1.0064e-08
1.00386e-08
1.00349e-08
1.00362e-08
1.00419e-08
1.00691e-08
1.01022e-08
1.01264e-08
1.01602e-08
1.01847e-08
1.01036e-08
1.00462e-08
1.00112e-08
1.00681e-08
1.01744e-08
9.83467e-09
1.00405e-08
1.0036e-08
1.0037e-08
1.00426e-08
1.00692e-08
1.01057e-08
1.01276e-08
1.01706e-08
1.02292e-08
1.01166e-08
1.00567e-08
1.00135e-08
1.00426e-08
1.00748e-08
1.01872e-08
9.83837e-09
1.00372e-08
1.00381e-08
1.0044e-08
1.00696e-08
1.01066e-08
1.01286e-08
1.01721e-08
1.02568e-08
1.01296e-08
1.00638e-08
1.00183e-08
1.00386e-08
1.00461e-08
1.00808e-08
1.02109e-08
9.84873e-09
1.00395e-08
1.00458e-08
1.00702e-08
1.01064e-08
1.01306e-08
1.01696e-08
1.02588e-08
1.01444e-08
1.00656e-08
1.00237e-08
1.0041e-08
1.00412e-08
1.00497e-08
1.00884e-08
1.02661e-08
9.88803e-09
1.00479e-08
1.00712e-08
1.01061e-08
1.0133e-08
1.01687e-08
1.02438e-08
1.01562e-08
1.0066e-08
1.0026e-08
1.00501e-08
1.00437e-08
1.0044e-08
1.00544e-08
1.00983e-08
1.03777e-08
1.00502e-08
1.00725e-08
1.01062e-08
1.01357e-08
1.01713e-08
1.02337e-08
1.01736e-08
1.00689e-08
1.00271e-08
1.00741e-08
1.00536e-08
1.00467e-08
1.00476e-08
1.00624e-08
1.01412e-08
1.25057e-08
2.522e-08
1.01067e-08
1.01382e-08
1.01768e-08
1.02288e-08
1.02039e-08
1.00809e-08
1.00294e-08
1.01074e-08
1.00759e-08
1.00571e-08
1.00499e-08
1.00534e-08
1.01139e-08
5.42098e-08
5.64679e-07
1.08345e-06
1.01404e-08
1.01839e-08
1.02318e-08
1.05459e-08
1.01712e-08
1.00373e-08
1.01423e-08
1.01081e-08
1.00777e-08
1.00604e-08
1.00553e-08
1.12621e-08
6.76607e-07
8.72741e-06
1.90684e-05
2.77052e-07
1.01922e-08
1.04584e-08
3.77412e-08
1.27519e-08
1.00567e-08
1.09082e-08
1.18365e-08
1.84243e-08
1.73861e-08
1.06305e-08
6.54327e-08
7.16294e-06
7.73733e-05
0.000158873
5.48739e-06
0.000315705
2.10535e-08
1.51118e-06
1.03751e-07
1.0334e-08
3.58554e-06
1.23777e-05
2.80741e-05
2.98978e-05
5.17113e-06
3.12604e-06
5.76796e-05
0.000448433
0.000812941
7.21846e-05
0.000542922
0.0614462
4.61586e-05
2.80104e-06
2.6157e-08
0.000766797
0.00391047
0.00437153
0.00337155
0.0010027
0.000178961
0.000547012
0.00202829
0.0030454
0.000812477
0.000538957
0.0557183
0.0622697
0.0651381
6.04542e-05
6.98928e-07
0.000818883
0.00666703
0.0291363
0.0374087
0.0177298
0.00426099
0.0029567
0.00661217
0.00849788
0.0041844
0.00090157
0.0482728
0.0602947
0.0577945
0.0632583
0.0684307
1.97334e-05
0.000346038
0.00624756
0.0341294
0.0702629
0.0621468
0.0286593
0.00932668
0.01451
0.0171164
0.0111996
0.0019485
0.03813
0.0567678
0.055863
0.054261
0.0589995
0.0644116
0.0704703
0.00343138
0.0325148
0.0624142
0.0933472
0.0657769
0.0321329
0.0199319
0.0314514
0.0216013
0.00879851
0.0257501
0.049842
0.0525357
0.0523243
0.0513743
0.0557739
0.060126
0.0668575
0.0715601
0.0234243
0.0565419
0.0708561
0.0905715
0.0593704
0.0352402
0.0472099
0.0378866
0.0237678
0.0220195
0.0399552
0.046978
0.0493537
0.0494471
0.0489727
0.0531165
0.0573506
0.0628056
0.0709759
0.0721364
0.0463317
0.0593514
0.0690156
0.0732989
0.0552622
0.04616
0.0765898
0.0426205
0.0288677
0.0327742
0.0400751
0.0448332
0.0468039
0.0469575
0.0556201
0.0502788
0.0551168
0.0596803
0.0675058
0.0770213
0.0721321
0.0587184
0.0660786
0.0637066
0.0617464
0.0554527
0.0836686
0.0700447
0.0481483
0.0339703
0.0343494
0.0392462
0.0428755
0.0445469
0.0462235
0.773557
0.054963
0.773939
0.755458
0.755904
0.0509204
0.0571185
0.0623846
0.0728504
0.0844224
0.0713314
0.0524776
0.057654
0.0554427
0.0566475
0.0681414
0.138369
0.0693713
0.044109
0.032702
0.0342755
0.0380914
0.0412008
0.0427478
0.0625352
0.732731
0.908387
0.04735
0.733098
0.742407
0.742725
0.908649
0.876912
0.877425
0.051873
0.0590578
0.0664774
0.0788511
0.0920744
0.0700707
0.0339912
0.0475369
0.0516246
0.0607665
0.11514
0.0974988
0.0624085
0.0383682
0.0315052
0.0338646
0.0367648
0.0383807
0.0446486
0.621235
0.621217
0.613284
0.613408
0.873141
0.892785
0.0469742
0.175445
0.873382
0.862655
0.86283
0.892471
0.871116
0.87085
0.0526376
0.061696
0.0720634
0.0871707
0.10019
0.0687882
0.0260164
0.0442415
0.0548351
0.0825698
0.114479
0.10494
0.0589513
0.0345288
0.031012
0.0329593
0.03382
0.0395601
0.572451
0.572595
0.577095
0.577559
0.758551
0.758717
0.739477
0.739464
0.887575
0.769462
1.25891
0.768025
1.26795
0.0464617
0.0743461
0.657728
0.657885
0.708552
0.708419
0.887312
0.89321
0.892938
0.769104
1.26115
0.767992
1.26626
0.762925
1.17459
0.754619
1.2408
0.763555
1.1818
0.755513
1.24561
0.0540128
0.0657263
0.0774562
0.0974923
0.1064
0.0676912
0.0241416
0.0467282
0.0630561
0.083427
0.0931615
0.109527
0.0510768
0.0328697
0.0309639
0.0300993
0.0362273
0.55723
0.557585
0.572098
0.572818
0.688769
0.688752
0.685991
0.685982
1.13156
1.20881
0.682926
1.11513
0.682022
0.716412
1.21451
1.132
0.682984
1.11542
0.682112
0.7175
1.04922
0.652356
1.08869
0.669583
1.05214
0.652879
1.08998
0.669812
0.767547
1.25358
0.762452
1.2738
0.717152
1.32255
0.713197
1.32861
0.0456913
0.0522918
0.542411
0.542616
0.601519
0.601708
0.803907
0.803962
0.848612
0.849091
0.767642
1.25865
0.762928
1.2756
0.777249
1.29157
0.780586
1.3066
0.776902
1.29463
0.780672
1.30524
0.71714
1.32445
0.713432
1.32812
0.71462
1.29139
0.715682
1.29661
0.0581347
0.0709723
0.0801978
0.102898
0.107696
0.0652637
0.0286663
0.0467163
0.0557082
0.0973782
0.139694
0.09068
0.0462475
0.033026
0.0284733
0.0341675
0.603899
0.604413
0.608592
0.609069
0.666542
0.666519
0.689223
0.689322
0.993147
0.618588
0.980695
0.611576
0.999583
0.619676
0.990531
0.613128
0.944961
0.599011
0.964496
0.605261
0.953518
0.600363
0.97367
0.606721
1.20743
1.17401
0.668041
0.676051
1.16889
0.660363
1.20991
1.1747
0.676668
0.668153
1.16964
0.660553
1.0784
0.618568
1.1348
0.643118
1.08322
0.619528
1.13692
0.643582
0.708351
1.30473
0.70536
1.31894
0.686838
1.32895
0.689568
1.30571
0.0504194
0.0441748
0.441083
0.441306
0.497378
0.497585
0.751282
0.751062
0.783378
0.783281
1.30259
0.732344
1.29554
0.735776
1.30437
0.732655
1.29728
0.73612
1.30096
1.35978
0.73726
1.29042
0.745827
0.730457
1.30293
1.36259
0.737681
1.29282
0.74632
0.730866
0.708883
1.30972
0.706176
1.32189
0.722384
1.36434
0.722341
1.36412
0.686897
1.32834
0.689565
1.30505
0.67825
1.25192
0.67923
1.25643
0.0685916
0.0771976
0.0803151
0.101978
0.104595
0.0604979
0.0305882
0.0352095
0.114074
0.134054
0.169995
0.0870909
0.0490014
0.0327062
0.0265255
0.612901
0.613264
0.605208
0.605689
0.70326
0.703238
0.729421
0.72963
0.92538
0.589832
0.933923
0.59374
0.933192
0.59105
0.941882
0.594973
0.96174
0.626002
0.961804
0.611471
0.969271
0.62707
0.969826
0.61274
1.02522
0.588724
1.00356
0.574022
1.03296
0.590319
1.01326
0.576033
0.951302
0.544522
0.973999
0.556903
0.961332
0.546558
0.982667
0.558809
0.684516
1.3201
0.684303
1.32228
0.0727194
0.0578652
0.380768
0.381016
0.425067
0.42529
0.679522
0.679252
0.713404
0.713148
1.25315
0.697969
1.26603
0.704401
1.25521
0.698177
1.2674
0.70454
1.3026
0.723526
1.29709
0.719468
1.30372
0.723728
1.29868
0.719628
1.40753
0.724747
1.39566
0.727052
1.40946
0.725114
1.39737
0.727449
1.38588
1.35513
0.727758
0.707307
1.38489
0.731374
1.38686
1.35764
0.728233
0.707548
1.3875
0.731915
0.684957
1.32292
0.684876
1.32406
0.696406
1.36227
0.696355
1.36166
0.0831575
0.0824588
0.0788618
0.100333
0.0978076
0.0544486
0.0184047
0.0679081
0.177275
0.151417
0.199814
0.113005
0.0580558
0.0387484
0.0488718
0.753379
0.753591
0.765041
0.765718
0.702658
0.70274
0.727545
0.727508
0.943857
0.542812
0.9619
0.55037
0.953304
0.544717
0.970082
0.55209
0.986826
0.596094
0.991225
0.568574
0.994095
0.597441
0.999284
0.570269
0.940764
0.528804
0.950207
0.530824
0.0957832
0.106086
0.32986
0.330423
0.390073
0.390286
0.627627
0.627634
0.653365
0.653098
1.13496
0.630569
1.20263
0.651002
1.13561
0.630436
1.20264
0.650892
1.23842
0.681798
1.21172
0.667622
1.2398
0.681945
1.21295
0.667689
1.35712
0.691582
1.37503
0.700452
1.35869
0.691853
1.37558
0.700592
1.39865
0.717587
1.38966
0.710771
1.39969
0.717808
1.3909
0.710982
0.095675
0.0822861
0.0766376
0.0987568
0.0854994
0.0475186
0.030548
0.132578
0.120201
0.161295
0.250466
0.149609
0.090536
0.0695748
0.652368
0.652881
0.658249
0.658738
0.753973
0.753677
0.77101
0.771491
0.612138
0.95192
0.601643
0.98686
0.61203
0.952215
0.601732
0.985995
0.627914
1.01593
0.633549
1.01078
0.628071
1.02247
0.634519
1.01165
0.932334
0.521802
0.943039
0.523459
0.940133
0.523601
0.949264
0.524982
0.961693
0.553023
0.952378
0.532384
0.967707
0.55423
0.958524
0.533853
0.117642
0.127424
0.294954
0.611012
0.611189
0.612807
0.612825
0.719511
0.719592
0.776012
0.775988
1.27268
0.643216
1.31955
0.657892
1.27308
0.643232
1.31986
0.657987
1.34513
0.680668
1.32348
0.667788
1.34676
0.680983
1.32467
0.66803
1.38963
0.690946
1.39214
0.691329
0.0970221
0.0773116
0.0748152
0.0923354
0.0658073
0.0429463
0.090663
0.136971
0.0973309
0.16309
0.184915
0.226699
0.143099
0.100412
0.809809
0.809682
0.777106
0.776936
1.05717
0.657807
0.684032
1.07722
1.06284
0.658558
0.683787
1.07713
0.805157
0.805031
0.568248
0.979929
0.567172
1.00937
0.568051
0.979496
0.567147
1.00775
0.572985
1.05099
0.587687
1.02284
0.573446
1.05954
0.589344
1.02453
0.959737
0.545414
0.964211
0.546285
0.119847
0.155329
0.229526
0.738544
0.738339
0.789848
0.789592
0.751175
0.750955
0.747962
0.74671
0.679744
1.38601
0.681473
1.37714
0.679522
1.38398
0.680915
1.37595
0.679934
1.3699
0.677634
1.35991
0.679826
1.36962
0.677686
1.35927
1.3952
0.671061
1.40487
0.676436
1.39612
0.671219
1.4053
0.676586
1.40385
0.686761
1.39788
0.680158
1.406
0.687161
1.39949
0.680478
0.0893682
0.0706437
0.0732949
0.0744065
0.0530129
0.17488
0.0922715
0.0841768
0.133096
0.159484
0.155045
0.152506
0.552535
0.552219
0.438879
0.438925
1.19929
0.73405
1.17814
0.745278
1.2044
0.734886
1.18345
0.745987
0.817409
0.817432
1.11443
0.618905
0.662991
1.1414
1.12094
0.620059
0.662593
1.13979
1.17749
0.713951
1.16357
0.703649
1.1815
0.714514
1.16323
0.703518
0.561569
1.05157
0.569962
1.02349
0.562379
1.05917
0.571498
1.02758
0.107161
0.154826
0.233651
0.47263
0.933861
0.931632
0.909682
0.906301
0.917384
0.915004
1.42275
0.687351
0.681169
1.36173
1.41791
0.686053
0.679254
1.35533
0.712699
1.52308
0.719819
1.5078
0.713046
1.52362
0.719908
1.50961
0.708096
1.47632
0.700225
1.49424
0.708496
1.47844
0.7006
1.49626
1.44491
0.687176
1.44743
0.687502
0.0788685
0.0637346
0.0695319
0.0555317
0.147423
0.0494787
0.0630157
0.10893
0.077142
0.0761413
0.102129
0.102114
0.0581288
0.0579959
0.585461
0.585235
0.359605
0.359023
1.2506
0.69516
1.23286
0.720224
1.25646
0.696433
1.23736
0.721124
0.72301
1.09139
0.685494
1.20014
0.723229
1.09534
0.685968
1.20111
1.10762
0.594173
0.634333
1.15754
1.10943
0.594682
0.633627
1.15379
1.22673
0.671722
1.2137
0.666892
1.23215
0.672814
1.21504
0.667141
0.0920931
0.132537
0.209133
0.422464
1.01662
1.01556
1.04886
1.04694
1.10286
1.09991
1.68564
0.813171
1.65059
0.820646
1.67523
0.810456
1.64062
0.817311
1.65951
0.798066
1.64094
0.784555
1.52074
0.732208
1.6567
0.796958
1.64047
0.784262
1.51806
0.731507
1.54495
0.729058
1.54323
0.728719
0.742185
1.58513
0.753189
1.56266
0.742782
1.58766
0.753608
1.56592
0.0664995
0.0603995
0.0554249
0.0533385
0.0428711
0.0540127
0.0462085
0.054128
0.0307243
0.0420657
0.0420482
0.0272133
0.0271389
0.857856
1.10288
0.513142
0.747306
0.450567
0.628672
1.1064
0.858818
0.629293
0.513255
0.748759
0.450704
0.254983
0.205248
0.362457
0.250839
0.262523
0.205868
0.367366
0.251379
1.24766
0.67101
1.25988
0.690088
1.25275
0.672194
1.26287
0.6908
0.679144
1.23623
0.679469
1.23751
0.632582
1.17519
0.632131
1.17296
1.23121
0.660573
1.23711
0.661771
0.075333
0.109956
0.167712
0.309058
0.991375
0.990987
1.05538
1.05474
1.00714
1.0043
1.08032
1.0786
0.885127
1.7042
0.864453
1.78725
0.85919
1.75755
0.884311
1.70066
0.862923
1.78413
0.858117
1.75354
1.73995
0.846809
1.73742
0.846209
1.69648
0.831921
1.66479
1.62634
0.819961
0.772845
1.69778
0.832074
1.66722
1.62722
0.820449
0.772875
1.60184
0.764037
1.60279
0.764174
0.0557154
0.0547292
0.0146798
0.0389545
0.0278518
0.0253171
0.0317294
0.0446317
0.0447087
0.0742861
0.0743038
0.0301348
0.0302207
0.033302
0.0333451
1.06287
0.814212
0.456498
0.582729
0.642343
0.363831
1.06602
0.816323
0.583301
0.456897
0.646002
0.364597
0.114496
0.102122
0.238889
0.16371
0.121195
0.10406
0.246862
0.165619
1.2595
0.678396
1.26186
0.678972
0.0572056
0.0872887
0.132943
0.218358
0.497865
0.947065
0.945856
1.00177
0.999793
1.50225
0.786411
1.5902
0.803943
1.49146
0.782822
1.5807
0.801707
1.64342
1.71988
0.835153
1.60315
0.815589
0.869088
1.64431
1.71799
0.835326
1.60015
0.814731
0.868604
0.898024
0.893713
1.76536
1.8011
0.897518
0.893074
1.76262
1.79832
1.78518
0.895311
1.78484
0.895212
1.73327
0.873939
1.64758
0.805984
1.7376
0.874617
1.6496
0.806373
0.0549324
0.0103598
0.0252158
0.0226856
0.0264059
0.0372289
0.0777587
0.0777348
0.0629545
0.0629373
0.0478717
0.0518784
0.0382847
0.0665412
0.0479217
0.0491093
0.0383193
0.0641146
0.0707767
0.070923
0.0701475
0.0492459
0.156255
0.0967891
0.0717639
0.0506403
0.163243
0.0990903
0.0560114
0.0625179
0.103425
0.161125
0.293458
0.774393
0.774103
0.837392
0.836343
0.840838
0.83935
0.981365
0.97788
1.54511
0.782256
1.5805
0.795917
1.54304
0.781525
1.57996
0.795722
1.68808
1.6127
0.862634
0.827094
1.58746
0.810125
1.69
1.61582
0.82781
0.863018
1.58904
0.810459
0.914301
1.7796
0.913889
1.77744
0.011186
0.0165487
0.0215967
0.0269378
0.081581
0.08155
0.0669282
0.0669481
0.0673489
0.067386
0.0832247
0.08319
0.0533796
0.0652503
0.0432456
0.080605
0.0533161
0.0610982
0.0431225
0.0770138
0.0882871
0.0586135
0.0979651
0.05597
0.0889685
0.0587191
0.0983623
0.0560457
0.0698705
0.0463213
0.0680565
0.0467721
0.0579719
0.0711707
0.120874
0.20069
0.398243
0.750228
0.74931
0.803718
0.801936
0.854125
0.85102
0.71336
1.4827
0.753426
1.32342
0.711434
1.47375
0.751288
1.31683
1.5344
0.776527
1.5583
0.798247
1.52994
0.775473
1.55617
0.797792
0.00596883
0.00992782
0.0161573
0.0407985
0.11873
0.118533
0.0955853
0.0952005
0.0785521
0.0567137
0.097937
0.127834
0.0852619
0.127276
0.0791576
0.0568487
0.0980146
0.128306
0.0853412
0.127654
0.120262
0.120099
0.051837
0.0804827
0.0484303
0.0948676
0.0517697
0.0780422
0.0483135
0.0934925
0.092769
0.054601
0.0933997
0.054737
0.0605241
0.0819689
0.142018
0.257498
0.62903
0.628865
0.676643
0.676023
0.663614
0.66316
0.774837
0.772174
1.17883
0.649411
1.31694
0.68298
1.36493
0.71179
1.16898
0.64587
1.31147
0.681805
1.358
0.710172
1.45742
0.743679
1.45132
0.742279
1.50515
0.773503
1.50084
0.772483
0.00312752
0.00980664
0.020596
0.12043
0.120369
0.0968213
0.0968071
0.15528
0.155092
0.146723
0.146468
0.111956
0.0742885
0.111559
0.162696
0.102793
0.160163
0.112401
0.0743709
0.111517
0.162694
0.102752
0.160257
0.200497
0.143255
0.200608
0.132151
0.20109
0.143353
0.200828
0.132296
0.0633508
0.0913939
0.169494
0.368196
0.649787
0.648854
0.692458
0.691046
0.726063
0.724185
1.209
0.647695
0.591231
1.15734
0.623051
1.01436
0.591272
1.15474
0.622316
1.01536
1.20848
0.64765
1.29894
1.37017
0.683225
0.714175
1.29803
1.36528
0.683279
0.713186
1.42712
0.742852
1.42151
0.741638
0.00355974
0.0150323
0.0388741
0.145469
0.145312
0.116173
0.116136
0.225073
0.148961
0.180222
0.294337
0.189204
0.258787
0.226875
0.149514
0.180876
0.296188
0.189838
0.260375
0.170169
0.169982
0.12273
0.190756
0.122888
0.191123
0.233302
0.143242
0.235219
0.143779
0.0652332
0.101153
0.207634
0.643072
0.642496
0.645969
0.644777
0.592259
0.590704
0.680984
0.677634
1.00174
0.573721
1.12937
0.600874
1.1238
0.608597
0.989959
1.11958
0.607712
0.569667
1.12204
0.599692
1.20766
0.646266
1.15475
0.628775
1.1528
1.20848
0.628627
0.646616
0.00481368
0.0329271
0.0520081
0.129664
0.129427
0.117823
0.117641
0.334569
0.18991
0.181426
0.340152
0.194327
0.282171
0.336296
0.190251
0.182134
0.343589
0.195129
0.284631
0.191258
0.150821
0.219772
0.159331
0.189471
0.149387
0.2172
0.158328
0.313826
0.17846
0.315557
0.178824
0.0662392
0.110981
0.259208
0.620355
0.619469
0.608111
0.606408
0.623257
0.620197
1.05846
0.566502
0.513355
1.01261
0.539305
0.858268
1.05611
0.565992
0.511503
1.00698
0.537992
0.852631
1.1201
1.13849
0.595565
0.620082
1.13372
0.619589
1.11809
0.595628
0.038675
0.0203628
0.0986354
0.111974
0.111675
0.0986711
0.116561
0.116848
0.138535
0.180387
0.137018
0.13803
0.180138
0.136633
0.35623
0.196679
0.151101
0.275025
0.157454
0.240519
0.359504
0.197227
0.150456
0.27514
0.157234
0.23866
0.210242
0.133663
0.209449
0.133166
0.0660737
0.118842
0.263216
0.557651
0.55626
0.586229
0.583333
0.799538
0.488943
0.931318
0.498557
0.949541
0.513915
0.789211
0.940268
0.511512
0.484771
0.925892
0.497625
1.06767
0.562378
1.00852
0.533137
1.06772
0.562584
1.006
0.532709
1.11242
0.59657
1.11441
0.597305
0.0216991
0.0164889
0.122704
0.108408
0.122127
0.108078
0.100228
0.100205
0.236774
0.199446
0.134038
0.183929
0.135585
0.163882
0.20454
0.165248
0.196517
0.232328
0.132575
0.182504
0.134543
0.162269
0.203775
0.163713
0.134668
0.231354
0.134364
0.23134
0.210435
0.129959
0.208073
0.128861
0.0639326
0.117528
0.343817
0.547962
0.54615
0.343174
0.445356
0.444125
0.602372
0.82845
0.476941
0.600344
0.826116
0.476083
0.960012
0.906683
0.511698
0.490504
0.954946
0.510906
0.908451
0.491115
1.05242
0.560978
0.99625
0.539863
1.05551
0.561719
0.995083
0.539867
0.0046625
0.0229189
0.140421
0.153134
0.216247
0.0943965
0.139222
0.152788
0.214991
0.0940457
0.0772591
0.0773392
0.22944
0.275136
0.217264
0.132338
0.144508
0.156851
0.224954
0.213742
0.271851
0.130865
0.14293
0.155778
0.127982
0.213903
0.127037
0.211703
0.0600354
0.125088
0.340174
0.496349
0.494062
0.338454
0.414922
0.412577
0.843537
0.85363
0.487627
0.84412
0.483056
0.471332
0.709726
0.460855
0.840833
0.855421
0.487989
0.843213
0.482623
0.470881
0.700919
0.456683
0.941863
0.904873
0.518392
0.501884
0.94264
0.518807
0.908697
0.502955
0.00476462
0.0399086
0.0643608
0.0641362
0.0405084
0.0510674
0.0508971
0.195551
0.152154
0.23681
0.142917
0.232767
0.168473
0.205954
0.14684
0.0898782
0.167035
0.139344
0.195807
0.150598
0.230861
0.140661
0.229157
0.164607
0.199034
0.144415
0.0889191
0.168195
0.136451
0.271602
0.278342
0.154847
0.156384
0.27007
0.273399
0.153864
0.15474
0.0564413
0.10123
0.266209
0.508415
0.439765
0.736168
0.506042
0.43975
0.736146
0.262868
0.351172
0.345297
0.849469
0.815044
0.896994
0.485565
0.517025
0.455773
0.856356
0.816583
0.90357
0.51848
0.486807
0.455917
0.927495
0.525713
0.930868
0.526609
0.00320588
0.0543535
0.0299493
0.0538577
0.0300573
0.0297784
0.0295099
0.271231
0.214538
0.135542
0.152643
0.189188
0.123128
0.059025
0.11149
0.107655
0.135452
0.126258
0.0834028
0.0817096
0.130294
0.264584
0.207934
0.150452
0.133614
0.186244
0.121629
0.111956
0.0629368
0.106802
0.13709
0.124226
0.0795591
0.0809075
0.127114
0.0448956
0.0361563
0.251357
0.248351
0.0422182
0.113104
0.111905
0.543831
0.437922
0.762818
0.43337
0.739541
0.404399
0.72529
0.403918
0.529339
0.437087
0.758148
0.43186
0.737854
0.397395
0.715565
0.402471
0.347682
0.542906
0.355708
0.343877
0.532438
0.35088
0.829547
0.806144
0.488261
0.455619
0.838811
0.80583
0.489299
0.455333
0.00135392
0.0479153
0.101231
0.07055
0.0141823
0.047152
0.103578
0.0706691
0.0138147
0.0112493
0.0110371
0.184909
0.133756
0.150301
0.116414
0.0900004
0.0660765
0.1265
0.108888
0.0817687
0.057381
0.181454
0.133202
0.150926
0.116415
0.0920867
0.12727
0.0683675
0.109089
0.082056
0.058049
0.0336891
0.0710818
0.16353
0.1598
0.0713486
0.100659
0.0999359
0.802028
0.755053
0.45429
0.416018
0.669542
0.373639
0.799237
0.74897
0.453699
0.415112
0.665414
0.373065
0.448497
0.522175
0.325078
0.537101
0.344283
0.286696
0.323427
0.352489
0.44088
0.522578
0.325174
0.528926
0.340759
0.284037
0.312335
0.343336
0.000776233
0.00810546
0.00804428
0.0386363
0.102325
0.0538158
0.102944
0.0585018
0.0107521
0.0379641
0.10314
0.0525601
0.0990599
0.058146
0.0105084
0.108763
0.0720862
0.0559007
0.100331
0.0697628
0.0515979
0.109757
0.0734504
0.058558
0.100567
0.07006
0.0521445
0.0276697
0.0517635
0.161359
0.255501
0.234329
0.157286
0.256263
0.231011
0.053191
0.0893708
0.0899267
0.726216
0.411813
0.632983
0.364528
0.722103
0.41154
0.631987
0.364802
0.478756
0.339773
0.589745
0.296853
0.354441
0.227181
0.480618
0.33192
0.593591
0.355411
0.297245
0.225516
0.000501574
0.00606511
0.00902534
0.00597292
0.00896561
0.031979
0.0872941
0.0446668
0.0957997
0.0413678
0.0433917
0.0443714
0.00861572
0.0313716
0.0904958
0.0437883
0.0932145
0.0416963
0.0463324
0.0441627
0.00832154
0.0661407
0.0625643
0.0672143
0.0628443
0.0218081
0.0470742
0.0476682
0.147628
0.252819
0.269097
0.257871
0.25326
0.14611
0.251339
0.254802
0.248669
0.246849
0.0825827
0.082901
0.400381
0.549808
0.343135
0.284668
0.350226
0.22543
0.400275
0.556352
0.328563
0.351282
0.284596
0.222893
0.000952294
0.0189224
0.0260867
0.0188947
0.0261331
0.012789
0.0124657
0.029353
0.0839327
0.0386977
0.0880459
0.0371651
0.0322689
0.0332106
0.0371011
0.0293437
0.0533369
0.0522622
0.0286576
0.0863231
0.0380691
0.0869755
0.0374253
0.0327059
0.0347193
0.0369335
0.0295507
0.0543923
0.05252
0.0273631
0.0419498
0.0420188
0.0426381
0.0437561
0.143242
0.244674
0.26204
0.254867
0.238275
0.325718
0.216189
0.142971
0.248185
0.250852
0.24754
0.241057
0.313723
0.21411
0.0780468
0.0780717
0.381782
0.280959
0.377011
0.280437
0.00112602
0.0505565
0.0567302
0.0508246
0.0566522
0.0240355
0.0324465
0.0238416
0.0324084
0.030047
0.0290986
0.088597
0.0388315
0.0911572
0.03836
0.0289148
0.0265767
0.0303753
0.0250121
0.040122
0.0423854
0.043641
0.0377858
0.0907978
0.0382837
0.0902807
0.0387377
0.0292998
0.0260766
0.0301131
0.0251435
0.0402491
0.0437407
0.0439839
0.0385336
0.0417989
0.0482944
0.0621339
0.0501622
0.0635671
0.0741876
0.0755869
0.139605
0.235836
0.260062
0.239749
0.247343
0.217787
0.318047
0.211778
0.315966
0.360662
0.268954
0.138925
0.239549
0.256602
0.236434
0.251562
0.217343
0.308773
0.210281
0.312056
0.352917
0.268325
0.000345106
0.0713618
0.0479703
0.0712716
0.0475611
0.0632902
0.0749289
0.0634757
0.0749213
0.034053
0.036767
0.0329044
0.0359435
0.0936867
0.0416229
0.0955361
0.0404077
0.0973709
0.0423
0.0987919
0.041103
0.0326551
0.0292258
0.0330859
0.0281537
0.0332359
0.0286862
0.0327569
0.0287411
0.0492218
0.0821142
0.104344
0.0826688
0.104875
0.0790494
0.0924371
0.0804596
0.0932788
0.131064
0.132161
0.234867
0.255692
0.240582
0.235024
0.221619
0.328134
0.21829
0.331339
0.262913
0.34587
0.25835
0.34708
0.237361
0.25251
0.236535
0.240053
0.221749
0.330468
0.218846
0.331433
0.263179
0.339123
0.258021
0.343312
0.00956433
0.000564701
0.0842647
0.0558548
0.0843104
0.0554706
0.0545881
0.0696245
0.0547126
0.0698838
0.103743
0.0463724
0.101791
0.0471515
0.107042
0.0540181
0.109121
0.0503681
0.107836
0.0471527
0.105336
0.048161
0.110423
0.0539013
0.109578
0.0514002
0.0356331
0.0340307
0.037588
0.0314751
0.0370426
0.0355888
0.0392804
0.0328744
0.04937
0.12555
0.101881
0.126016
0.104897
0.112394
0.135952
0.112253
0.135922
0.136322
0.152872
0.13671
0.151983
0.235501
0.237924
0.238752
0.227337
0.240509
0.241219
0.240434
0.234177
0.200117
0.318811
0.209831
0.301274
0.201274
0.323081
0.2106
0.308028
0.00156964
0.06031
0.0373811
0.0599764
0.0375398
0.00106569
0.0851685
0.0697369
0.0853302
0.0692297
0.111914
0.0676101
0.110358
0.0675355
0.11894
0.0880199
0.118922
0.0788189
0.114732
0.0679611
0.110782
0.0692248
0.121979
0.087315
0.117587
0.0808991
0.0441534
0.0406774
0.0417662
0.0427021
0.0497453
0.0569362
0.0610089
0.0484076
0.0461248
0.0426056
0.0437458
0.0447497
0.0515226
0.057206
0.0616419
0.0502473
0.0558244
0.113139
0.164965
0.208151
0.164202
0.20659
0.172069
0.187308
0.169761
0.185726
0.239398
0.244323