/*--------------------------------*- C++ -*----------------------------------*\
| =========                 |                                                 |
| \\      /  F ield         | OpenFOAM: The Open Source CFD Toolbox           |
|  \\    /   O peration     | Version:  5.x                                   |
|   \\  /    A nd           | Web:      www.OpenFOAM.org                      |
|    \\/     M anipulation  |                                                 |
\*---------------------------------------------------------------------------*/
FoamFile
{
    version     2.0;
    format      ascii;
    class       surfaceScalarField;
    location    "2.8";
    object      meshPhi;
}
// * * * * * * * * * * * * * * * * * * * * * * * * * * * * * * * * * * * * * //

dimensions      [0 3 -1 0 0 0 0];

internalField   nonuniform List<scalar> 
30582
(
0
0
0
0
0
0
0
0
0
0
0
0
0
0
0
0
0
0
0
0
0
0
0
0
0
0
0
0
0
0
0
0
0
0
0
0
0
0
0
0
0
0
0
0
0
0
0
0
0
0
0
0
0
0
0
0
0
0
0
0
0
0
0
0
0
0
0
0
0
0
0
0
0
0
0
0
0
0
0
0
0
0
0
0
0
0
0
0
0
0
0
0
0
0
0
0
0
0
0
0
0
0
0
0
0
0
0
0
0
0
0
0
0
0
0
0
0
0
0
0
0
0
0
0
0
0
0
0
0
0
0
0
0
0
0
0
0
0
0
0
0
0
0
0
0
0
0
0
0
0
0
0
0
0
0
0
0
0
0
0
0
0
0
0
0
0
0
0
0
0
0
0
0
0
0
0
0
0
0
0
0
0
0
0
0
0
0
0
0
0
0
0
0
0
0
0
0
0
0
0
0
0
0
0
0
0
0
0
0
0
0
0
0
0
0
0
0
0
0
0
0
0
0
0
0
0
0
0
0
0
0
0
0
0
0
0
0
0
0
0
0
0
0
0
0
0
0
0
0
0
0
0
0
0
0
0
0
0
0
0
0
0
0
0
0
0
0
0
0
0
0
0
0
0
0
0
0
0
0
0
0
0
0
0
0
0
0
0
0
0
0
0
0
0
0
0
0
0
0
0
0
0
0
0
0
0
0
0
0
0
0
0
0
0
0
0
0
0
0
0
0
0
0
0
0
0
0
0
0
0
0
0
0
0
0
0
0
0
0
0
0
0
0
0
0
0
0
0
0
0
0
0
0
0
0
0
0
0
0
0
0
0
0
0
0
0
0
0
0
0
0
0
0
0
0
0
0
0
0
0
0
0
0
0
0
0
0
0
0
0
0
0
0
0
0
0
0
0
0
0
0
0
0
0
0
0
0
0
0
0
0
0
0
0
0
0
0
0
0
0
0
0
0
0
0
0
0
0
0
0
0
0
0
0
0
0
0
0
0
0
0
0
0
0
0
0
0
0
0
0
0
0
0
0
0
0
0
0
0
0
0
0
0
0
0
0
0
0
0
0
0
0
0
0
0
0
0
0
0
0
0
0
0
0
0
0
0
0
0
0
0
0
0
0
0
0
0
0
0
0
0
0
0
0
0
0
0
0
0
0
0
0
0
0
0
0
0
0
0
0
0
0
0
0
0
0
0
0
0
0
0
0
0
0
0
0
0
0
0
0
0
0
0
0
0
0
0
0
0
0
0
0
0
0
0
0
0
0
0
0
0
0
0
0
0
0
0
0
0
0
0
0
0
0
0
0
0
0
0
0
0
0
0
0
0
0
0
0
0
0
0
0
0
0
0
0
0
0
0
0
0
0
0
0
0
0
0
0
0
0
0
0
0
0
0
0
0
0
0
0
0
0
0
0
0
0
0
0
0
0
0
0
0
0
0
0
0
0
0
0
0
0
0
0
0
0
0
0
0
0
0
0
0
0
0
0
0
0
0
0
0
0
0
0
0
0
0
0
0
0
0
0
0
0
0
0
0
0
0
0
0
0
0
0
0
0
0
0
0
0
0
0
0
0
0
0
0
0
0
0
0
0
0
0
0
0
0
0
0
0
0
0
0
0
0
0
0
0
0
0
0
0
0
0
0
0
0
0
0
0
0
0
0
0
0
0
0
0
0
0
0
0
0
0
0
0
0
0
0
0
0
0
0
0
0
0
0
0
0
0
0
0
0
0
0
0
0
0
0
0
0
0
0
0
0
0
0
0
0
0
0
0
0
0
0
0
0
0
0
0
0
0
0
0
0
0
0
0
0
0
0
0
0
0
0
0
0
0
0
0
0
0
0
0
0
0
0
0
0
0
0
0
0
0
0
0
0
0
0
0
0
0
0
0
0
0
0
0
0
0
0
0
0
0
0
0
0
0
0
0
0
0
0
0
0
0
0
0
0
0
0
0
0
0
0
0
0
0
0
0
0
0
0
0
0
0
0
0
0
0
0
0
0
0
0
0
0
0
0
0
0
0
0
0
0
0
0
0
0
0
0
0
0
0
0
0
0
0
0
0
0
0
0
0
0
0
0
0
0
0
0
0
0
0
0
0
0
0
0
0
0
0
0
0
0
0
0
0
0
0
0
0
0
0
0
0
0
0
0
0
0
0
0
0
0
0
0
0
0
0
0
0
0
0
0
0
0
0
0
0
0
0
0
0
0
0
0
0
0
0
0
0
0
0
0
0
0
0
0
0
0
0
0
0
0
0
0
0
0
0
0
0
0
0
0
0
0
0
0
0
0
0
0
0
0
0
0
0
0
0
0
0
0
0
0
0
0
0
0
0
0
0
0
0
0
0
0
0
0
0
0
0
0
0
0
0
0
0
0
0
0
0
0
0
0
0
0
0
0
0
0
0
0
0
0
0
0
0
0
0
0
0
0
0
0
0
0
0
0
0
0
0
0
0
0
0
0
0
0
0
0
0
0
0
0
0
0
0
0
0
0
0
0
0
0
0
0
0
0
0
0
0
0
0
0
0
0
0
0
0
0
0
0
0
0
0
0
0
0
0
0
0
0
0
0
0
0
0
0
0
0
0
0
0
0
0
0
0
0
0
0
0
0
0
0
0
0
0
0
0
0
0
0
0
0
0
0
0
0
0
0
0
0
0
0
0
0
0
0
0
0
0
0
0
0
0
0
0
0
0
0
0
0
0
0
0
0
0
0
0
0
0
0
0
0
0
0
0
0
0
0
0
0
0
0
0
0
0
0
0
0
0
0
0
0
0
0
0
0
0
0
0
0
0
0
0
0
0
0
0
0
0
0
0
0
0
0
0
0
0
0
0
0
0
0
0
0
0
0
0
0
0
0
0
0
0
0
0
0
0
0
0
0
0
0
0
0
0
0
0
0
0
0
0
0
0
0
0
0
0
0
0
0
0
0
0
0
0
0
0
0
0
0
0
0
0
0
0
0
0
0
0
0
0
0
0
0
0
0
0
0
0
0
0
0
0
0
0
0
0
0
0
0
0
0
0
0
0
0
0
0
0
0
0
0
0
0
0
0
0
0
0
0
0
0
0
0
0
0
0
0
0
0
0
0
0
0
0
0
0
0
0
0
0
0
0
0
0
0
0
0
0
0
0
0
0
0
0
0
0
0
0
0
0
0
0
0
0
0
0
0
0
0
0
0
0
0
0
0
0
0
0
0
0
0
0
0
0
0
0
0
0
0
0
0
0
0
0
0
0
0
0
0
0
0
0
0
0
0
0
0
0
0
0
0
0
0
0
0
0
0
0
0
0
0
0
0
0
0
0
0
0
0
0
0
0
0
0
0
0
0
0
0
0
0
0
0
0
0
0
0
0
0
0
0
0
0
0
0
0
0
-2.62455e-18
9.25629e-18
-3.75567e-25
2.77655e-17
1.388e-17
1.85214e-17
0
0
0
0
0
0
0
0
0
0
0
0
0
0
0
0
0
0
0
0
0
0
0
0
0
0
0
0
0
0
0
0
0
0
0
0
0
0
4.61724e-18
1.45361e-34
-6.73516e-19
1.07012e-25
2.31168e-17
-1.851e-17
-2.58052e-18
2.77655e-17
-4.62692e-18
2.77737e-17
-1.33949e-18
-2.93421e-25
-4.62372e-17
3.35157e-34
-1.98357e-18
2.77508e-17
6.70748e-18
-4.62514e-17
0
0
0
0
0
0
0
0
0
0
0
0
0
0
0
0
0
0
0
0
0
0
0
0
0
0
0
0
0
0
0
0
0
0
0
0
0
7.69184e-19
-3.98417e-18
2.92366e-17
-3.24983e-20
-5.53297e-17
-1.84265e-17
3.69611e-17
-1.21357e-35
-1.31994e-18
1.38701e-17
1.68508e-33
-6.80847e-19
1.8709e-25
2.30623e-17
0
7.86032e-17
-7.73549e-21
-3.69897e-17
-2.06622e-35
6.46747e-19
2.77508e-17
6.70748e-18
-2.77519e-17
-4.17351e-20
2.94404e-24
-2.76797e-17
2.5834e-34
-6.07359e-21
-3.69031e-17
0
0
0
0
0
0
0
0
0
0
0
0
0
0
0
0
0
0
0
0
0
0
0
0
0
0
0
0
0
0
0
0
0
0
0
1.45222e-17
2.7677e-17
1.84235e-17
4.66489e-18
4.72747e-20
2.17641e-34
8.32775e-20
4.9916e-20
3.23059e-17
1.06269e-17
-2.55015e-18
-1.81995e-17
-1.67677e-34
2.22478e-19
1.37915e-17
-2.48578e-18
-1.83902e-17
9.95306e-35
7.29622e-20
-4.6172e-18
0
3.95776e-19
8.04202e-24
8.03796e-18
-1.37717e-17
1.03318e-17
-1.37912e-17
0
0
1.92185e-18
-3.94909e-18
1.88814e-17
1.17722e-20
2.77298e-17
9.18626e-18
-5.53297e-17
-8.34702e-20
-3.69063e-17
-2.10117e-34
-9.2318e-18
-7.38435e-17
0
-3.74262e-24
2.06744e-17
-2.29456e-18
2.06606e-17
-4.60588e-18
0
-9.21461e-18
2.37923e-18
-9.28905e-18
9.21064e-18
-1.15204e-17
9.27567e-18
-1.16411e-17
2.31226e-18
0
0
0
0
0
0
0
0
0
0
0
0
0
0
0
0
0
0
0
0
0
0
0
0
0
0
0
0
0
0
0
0
0
-1.27372e-17
2.31566e-17
-1.84859e-17
1.38776e-17
9.36878e-18
-7.28601e-35
-3.98368e-18
2.76463e-17
2.51623e-18
-3.67798e-17
-2.72902e-34
9.37812e-18
1.38991e-17
0
-3.71481e-17
9.47198e-36
-1.97314e-11
-5.31202e-12
-1.97362e-09
7.93801e-14
-2.91594e-13
1.54836e-08
2.25943e-13
1.56712e-08
-1.37597e-10
8.38495e-19
-1.62037e-19
5.29722e-19
1.62749e-19
-4.68097e-18
1.79362e-17
1.17604e-18
1.11088e-17
2.13823e-18
3.46084e-34
-9.29942e-16
9.1599e-13
1.53189e-08
-1.22277e-14
3.09166e-08
6.47335e-19
1.12318e-18
2.51494e-17
4.58285e-18
3.20734e-17
0
-3.58477e-19
1.03417e-17
-4.59423e-18
1.49193e-17
-9.18455e-18
7.52124e-19
7.68794e-20
0
-4.79483e-19
8.0121e-18
7.66003e-20
7.74927e-19
4.68094e-23
-4.56353e-18
0
7.51826e-22
-1.66931e-15
8.97315e-19
-9.14853e-18
0
0
-3.77741e-17
4.66503e-18
9.33113e-18
-1.59974e-20
1.84235e-17
0
1.3243e-18
1.20691e-18
4.59497e-18
-6.63767e-18
-2.48567e-18
-1.97777e-33
0
1.50725e-22
1.38023e-17
-2.65038e-18
-9.17635e-18
-7.64096e-20
1.26314e-17
-4.5898e-18
8.03666e-18
-4.59982e-18
0
-9.20701e-18
4.68204e-18
-1.38936e-17
9.205e-18
-1.38124e-17
1.15893e-17
-1.16186e-17
4.60836e-18
1.13934e-18
7.67693e-20
-1.30767e-18
8.00013e-18
0
7.64832e-20
-8.01357e-26
-8.00364e-18
-8.90615e-26
5.71701e-18
0
1.58508e-21
-1.30108e-18
0
0
1.82895e-17
0
-1.23784e-18
9.15978e-13
0
1.29528e-10
-1.36725e-17
-9.35324e-19
1.52792e-19
1.5979e-17
7.5935e-20
-1.23732e-18
-9.21323e-18
3.46742e-17
-9.15033e-18
0
0
0
0
0
0
0
0
0
0
0
0
0
0
0
0
0
0
0
0
0
0
0
0
0
0
0
0
0
0
0
5.14859e-18
1.60901e-20
-9.20611e-18
9.37874e-18
-9.33479e-18
-2.32679e-35
-1.16635e-18
-1.39345e-17
1.29653e-17
-3.69748e-17
-3.27574e-35
-9.07513e-20
4.5978e-18
1.06965e-17
-1.84361e-17
1.02533e-25
4.44454e-09
-3.29759e-12
1.38884e-08
7.66123e-11
1.52338e-08
9.71737e-09
-4.5228e-18
1.85008e-17
1.4516e-12
-1.11339e-10
-3.5629e-27
-4.33088e-09
3.62176e-10
1.3975e-09
-1.29187e-10
4.45566e-10
-9.46745e-09
-1.3371e-12
-6.92734e-10
-1.18063e-12
2.26915e-10
0
3.0579e-20
-2.58899e-19
-9.34305e-13
-2.24625e-19
-2.13733e-13
-1.35885e-13
6.41408e-16
-1.13572e-34
-1.64957e-08
-9.29831e-16
6.26859e-20
4.94638e-13
1.84333e-17
-3.18869e-34
-8.70948e-11
-4.57703e-18
0
2.00798e-09
1.52066e-08
7.48345e-20
-4.57753e-19
-9.28251e-18
0
5.7722e-19
-7.18341e-20
1.0024e-17
-1.22292e-18
3.81471e-18
5.8267e-19
-6.26508e-20
-1.66921e-19
1.38204e-17
-1.12954e-18
-2.18704e-17
4.74989e-19
1.60873e-17
-6.69427e-20
-4.88531e-13
6.59518e-12
1.22133e-12
4.36014e-11
1.08325e-34
1.82342e-08
-1.92987e-09
6.47581e-20
1.83986e-17
-4.05272e-35
-1.49759e-17
0
4.96146e-19
1.30541e-18
4.48784e-18
-9.25097e-19
-1.07228e-17
3.86486e-18
6.47365e-20
9.18877e-18
-1.72679e-17
6.28615e-19
7.68795e-20
0
-9.61074e-19
1.03072e-17
0
6.90578e-19
-9.13458e-18
0
-1.66472e-15
5.08121e-19
-1.83368e-17
-2.0841e-09
-1.54121e-19
0
1.96393e-09
2.36566e-11
-7.59707e-20
1.0992e-13
9.95712e-22
-2.92459e-13
0
5.33804e-21
1.53568e-08
7.32814e-14
-1.52735e-14
0
0
-1.27372e-17
1.39547e-17
-9.21284e-18
-4.67062e-18
-9.17907e-18
4.33431e-34
3.82661e-18
1.25377e-18
9.3192e-18
-2.72575e-18
1.01578e-19
0
-5.16952e-34
4.64675e-18
0
0
2.16936e-16
1.7039e-08
-3.66399e-12
1.64333e-08
-1.14539e-17
-6.53488e-15
-2.27466e-18
6.47257e-19
-9.06994e-18
1.15862e-17
-4.58272e-18
2.51957e-17
0
-1.8778e-12
-1.36141e-10
6.71684e-14
-1.19232e-12
1.61384e-08
-9.69096e-18
-1.00621e-14
-2.14631e-09
9.62067e-22
2.18542e-18
-1.13992e-18
3.05769e-20
3.92429e-17
-5.75032e-18
3.69855e-17
3.66466e-18
9.31583e-19
7.67696e-20
-1.3276e-18
2.40603e-17
7.64632e-20
7.64871e-20
-1.14336e-18
1.37204e-17
-2.20734e-36
-2.29427e-18
-9.35501e-19
1.53009e-19
0
2.28723e-17
7.61113e-20
-1.37786e-18
5.00727e-13
0
1.56404e-08
-1.59866e-17
-1.21528e-18
7.63951e-20
2.63058e-17
0
-1.34449e-18
-2.29165e-18
1.60576e-17
9.18252e-34
6.12192e-19
-1.54071e-19
-2.67403e-18
2.52467e-17
0
2.7837e-19
-2.06622e-24
-9.44525e-22
-9.54449e-24
4.55077e-17
9.38964e-20
-2.29387e-18
7.64987e-20
0
-1.53082e-08
-1.4809e-13
-7.64728e-20
8.96841e-18
-3.37989e-18
0
0
0
0
0
0
0
0
0
0
0
0
0
0
0
0
0
0
0
0
0
0
0
0
0
0
0
0
0
-1.57951e-17
2.31766e-17
-2.16419e-20
-4.60785e-18
-4.38e-20
-8.2647e-34
-2.30259e-18
1.83922e-17
2.08662e-17
-1.83426e-17
-1.26869e-33
5.49844e-18
-1.85491e-17
5.50014e-18
-1.81782e-17
-3.65746e-26
-4.24482e-09
1.48949e-10
-1.56738e-08
-3.80531e-09
-1.56783e-08
-9.2807e-09
8.63837e-13
-2.89856e-10
-7.63336e-13
7.60101e-09
-1.1143e-26
6.28489e-11
-3.92897e-09
1.57407e-08
-3.85938e-09
1.55981e-08
1.3348e-10
3.77849e-13
7.86901e-09
7.06079e-13
7.71235e-09
-1.39094e-19
5.92345e-12
-1.22132e-12
1.89651e-08
-1.03239e-34
-1.92832e-09
7.20542e-20
-4.83796e-09
2.95814e-17
1.42678e-26
-1.71876e-12
-2.04604e-17
0
-3.34662e-18
4.71498e-18
6.24588e-19
-1.20936e-17
-7.19698e-20
1.82563e-12
1.13702e-17
9.67475e-09
-3.29406e-17
0
-6.59518e-12
4.58222e-09
1.2288e-17
-1.88501e-08
1.41567e-26
1.71256e-12
-3.29489e-15
-2.7024e-24
2.3368e-17
-1.34232e-26
-1.16314e-17
-1.45617e-19
-1.41623e-18
-1.71113e-12
8.27727e-18
6.80224e-18
-9.16308e-09
6.21584e-18
7.38809e-20
1.40207e-17
-1.85884e-17
-5.59193e-20
4.27466e-13
-3.70619e-25
-2.53713e-18
-1.60058e-16
-7.44472e-35
1.22687e-34
2.60986e-09
0
6.10656e-14
-4.37401e-34
-8.25889e-09
-1.35914e-33
5.01491e-20
-2.96833e-34
-7.71948e-19
-1.08646e-18
1.90784e-18
-2.60937e-20
-4.58451e-19
1.82097e-19
-3.60937e-20
8.74604e-19
2.33475e-19
-1.20109e-18
-1.30647e-35
5.31852e-16
3.39555e-20
-4.39458e-34
-4.00456e-34
1.30088e-19
-7.3946e-19
-1.17402e-18
-2.17864e-18
0
7.67481e-11
0
0
2.02943e-09
-1.54983e-08
-7.59666e-20
6.26623e-19
1.28801e-14
0
-1.53709e-08
3.05341e-14
-1.45043e-13
-1.14684e-09
-4.21724e-20
7.38114e-34
1.29045e-09
7.98578e-20
-1.0992e-13
-5.56037e-21
3.46127e-34
-9.58783e-21
-7.32797e-14
0
0
5.36525e-18
9.3332e-18
-1.24317e-32
-9.22151e-18
-9.2378e-18
1.34034e-35
7.95242e-18
-3.65348e-19
4.57575e-18
-1.2877e-17
1.08813e-17
-5.53545e-17
1.17115e-35
4.55266e-18
-3.69128e-17
1.56241e-26
-4.44449e-09
-4.33094e-09
3.66267e-10
1.72758e-08
-1.32386e-10
1.60998e-08
-9.71747e-09
-9.46745e-09
-1.38672e-12
-6.92711e-10
-1.17807e-12
2.26938e-10
-4.49605e-25
-1.12974e-12
3.05514e-08
7.63993e-11
1.52339e-08
-3.39194e-18
1.38755e-17
1.45669e-12
-1.11294e-10
6.69477e-20
4.73718e-19
-6.54938e-12
-4.27464e-13
-4.7012e-16
0
-1.82338e-08
-1.51577e-08
0
1.53304e-18
1.61167e-17
0
-2.4101e-16
-1.37422e-17
6.69029e-20
3.18843e-19
6.6579e-19
3.56053e-20
4.67196e-19
-4.58362e-18
5.84145e-18
-6.4729e-20
6.48165e-19
6.88652e-18
-8.84619e-19
-2.18107e-17
6.54375e-20
-1.09925e-18
-6.25932e-13
-9.34303e-13
7.48752e-20
1.40453e-13
2.30523e-13
4.90594e-17
0
-1.64957e-08
-3.36457e-09
-6.26878e-20
2.2939e-17
0
-1.95018e-17
0
-2.36515e-10
3.1745e-08
-6.54343e-20
-5.44398e-19
3.72854e-19
-2.37438e-19
7.48346e-20
-2.8404e-19
-4.63507e-18
4.90045e-19
-4.23168e-18
3.8146e-18
6.26505e-20
9.20774e-18
-1.02583e-17
4.1562e-19
2.99682e-17
1.29054e-18
-7.70348e-20
-3.17428e-18
3.2127e-17
1.93562e-33
1.51554e-19
-2.27498e-18
2.50339e-17
-2.1665e-19
-1.04913e-21
7.64961e-20
0
1.54116e-08
3.80124e-13
-7.64739e-20
2.7078e-17
-3.38945e-18
-4.00429e-19
-4.21431e-20
-5.15101e-19
-3.99054e-20
9.88756e-20
-5.1727e-24
2.89595e-23
-5.17995e-20
0
1.58348e-34
-4.55404e-20
0
0
0
0
0
0
0
0
0
0
0
0
0
0
0
0
0
0
0
0
0
0
0
0
0
0
0
0
6.94255e-17
7.6576e-34
8.04751e-18
-9.29057e-18
2.60184e-17
-9.14571e-18
3.47545e-33
7.74908e-18
4.57225e-18
-1.57885e-17
-2.77293e-17
-4.55228e-25
-5.4444e-18
3.64517e-09
2.6118e-17
7.97737e-09
-5.73991e-34
-1.30967e-17
2.30677e-17
2.70799e-17
-4.61363e-17
0
-2.32052e-12
-1.78211e-17
-2.45517e-10
0
-3.31831e-15
-7.18607e-20
4.64509e-09
-2.29746e-17
0
2.32816e-12
9.20094e-18
1.41515e-19
-6.98597e-19
-3.4703e-18
-7.305e-18
2.06316e-17
-7.17814e-20
-1.56483e-12
-1.53027e-20
-9.28718e-09
1.72448e-17
7.32274e-20
-3.11439e-12
-9.91166e-11
2.38157e-12
-4.26626e-10
0
4.24216e-10
1.57429e-08
0
-2.29948e-17
0
8.00638e-18
-7.31395e-20
-2.28916e-18
5.19068e-13
-9.24091e-18
2.64478e-18
2.1029e-10
2.53416e-17
-7.27863e-20
-1.14922e-17
1.72169e-17
7.80953e-20
3.0533e-13
4.17084e-11
-1.25609e-34
4.4127e-20
3.05329e-13
-3.56109e-34
-1.00096e-10
3.90648e-20
-7.9848e-19
1.64954e-18
-4.41517e-20
-9.68928e-19
2.56477e-18
-6.97652e-20
-5.15997e-18
1.3582e-18
6.83949e-18
-1.41524e-15
-1.16818e-34
4.56847e-16
7.49454e-15
-5.68646e-20
-5.15463e-34
6.97689e-20
1.31033e-19
-6.42366e-19
1.27427e-18
6.19808e-18
-1.28472e-18
-3.55525e-17
-5.68711e-20
7.78795e-11
-4.21716e-20
4.99321e-34
1.12049e-09
-3.99282e-20
-6.56464e-14
2.28448e-34
-3.05329e-14
0
0
2.60705e-17
-4.61865e-18
-9.27814e-18
-1.38453e-17
1.85271e-17
-8.52405e-35
2.30259e-18
1.07265e-17
-8.5087e-20
-1.57177e-17
-6.21586e-32
-3.68703e-17
-5.80369e-34
9.12106e-18
-3.6835e-17
4.94532e-27
4.24502e-09
-1.47423e-17
-5.33568e-12
-1.57411e-08
-3.85174e-09
-1.55995e-08
9.28091e-09
1.83239e-17
-4.62976e-18
1.38812e-17
6.71723e-13
7.71251e-09
3.65746e-26
1.4877e-10
-1.56737e-08
-3.80551e-09
-1.56784e-08
8.67643e-13
-2.89822e-10
-7.63333e-13
7.60101e-09
3.72415e-24
-8.42718e-12
4.58214e-09
1.69485e-17
-1.91528e-08
0
1.71256e-12
-3.29761e-15
-1.47901e-19
4.83777e-09
2.57391e-17
0
1.6666e-12
-4.78109e-18
0
-1.483e-18
-1.71113e-12
8.48806e-18
9.8956e-18
-9.16308e-09
1.45047e-18
0
-1.77347e-12
9.41807e-18
-9.67475e-09
-1.87129e-17
-9.88516e-25
6.16771e-12
4.27463e-13
1.89651e-08
0
-1.52038e-08
-7.20575e-20
1.38284e-17
0
-1.03047e-17
-6.35241e-34
-2.08318e-18
-2.10801e-18
7.08587e-19
1.23072e-17
7.19704e-20
6.86962e-18
-2.16598e-17
-4.72382e-24
6.1066e-14
1.99993e-12
-9.35103e-09
0
9.98897e-09
0
-1.40452e-13
0
7.39184e-09
-2.76143e-33
-8.73249e-20
-9.99773e-21
6.36227e-19
-1.08955e-18
0
4.58478e-19
-1.9216e-18
5.59151e-20
1.29766e-13
-3.7062e-25
-3.53017e-18
-1.57872e-16
0
2.79894e-34
1.35077e-09
2.60672e-20
0
5.5898e-20
1.1731e-19
-2.99616e-34
-2.7501e-19
3.56478e-18
-8.17871e-19
0
7.56355e-19
0
-1.23745e-18
-3.99073e-20
-1.16085e-20
-5.3219e-20
9.1114e-20
3.64044e-34
0
0
0
0
0
0
0
0
0
0
0
0
0
0
0
0
0
0
0
0
0
0
0
0
0
0
0
0
2.74359e-18
-9.41797e-35
-2.06162e-17
-1.85194e-17
-3.70036e-17
-7.35623e-22
-1.85067e-17
-2.73323e-33
-2.69158e-18
4.65426e-18
9.80029e-18
-2.75135e-17
-1.93412e-33
9.26827e-18
-3.6945e-17
0
-2.63726e-18
-9.77066e-13
-4.42843e-10
1.39183e-17
-1.19447e-17
-1.63992e-15
-6.84533e-18
-1.07396e-18
-2.77091e-18
1.45918e-17
1.61798e-17
-6.87497e-18
2.05845e-17
-3.11512e-20
0
1.11405e-18
3.3515e-18
-1.6227e-17
7.95904e-18
-1.84454e-17
1.30664e-17
1.03356e-17
6.97363e-18
1.95646e-17
0
3.37979e-31
-1.98067e-19
-3.21087e-18
-3.08701e-18
0
5.23259e-17
0
6.70531e-18
-1.59349e-17
0
-5.81747e-18
1.36136e-17
0
-1.34244e-18
1.13689e-18
-1.29585e-18
1.23185e-17
-7.08166e-20
6.41266e-19
-2.20083e-18
-6.81547e-18
2.17257e-17
7.41528e-20
-8.39141e-18
-6.04476e-18
5.13125e-18
0
-1.57648e-15
8.46599e-34
-4.48827e-18
0
3.36623e-18
-6.60207e-34
1.70536e-18
4.75584e-18
7.7201e-18
1.93631e-17
-7.39126e-20
-6.85404e-18
1.01829e-17
-1.59971e-31
-7.76205e-19
-4.04178e-35
-4.38467e-16
6.1936e-34
1.52241e-18
3.12889e-18
0
0
0
6.944e-17
-1.4843e-33
-1.09229e-19
2.46299e-18
-4.65296e-18
-1.0142e-17
-2.10028e-17
-1.85583e-17
-9.12736e-34
-9.64716e-20
-3.69221e-17
6.94592e-36
1.83538e-19
-1.32739e-17
2.30676e-17
-1.59651e-17
2.6371e-17
-8.95443e-18
-3.74215e-35
-1.5056e-17
-2.29245e-18
0
3.11439e-12
-6.06848e-12
-2.3816e-12
4.26625e-10
0
-4.24731e-10
-1.57429e-08
-7.28595e-20
-4.645e-09
-2.06868e-17
0
-2.34342e-12
1.8372e-17
7.31394e-20
-2.76988e-18
2.60438e-18
-6.95112e-18
6.42986e-18
-6.91903e-18
1.72266e-17
0
1.56483e-12
-6.8958e-18
9.28693e-09
2.41516e-17
7.08163e-20
-2.50372e-12
-1.543e-17
-2.45983e-10
0
-3.32174e-15
7.18664e-20
-2.52836e-17
0
1.15206e-17
7.07568e-20
2.91861e-18
-1.03538e-17
-5.15606e-18
2.51043e-17
7.1779e-20
-9.19057e-18
1.61107e-17
6.9767e-20
-5.49265e-18
3.29232e-18
8.13191e-18
-1.41166e-15
0
4.49833e-16
9.27709e-15
5.6863e-20
-3.05329e-13
0
1.00096e-10
0
-1.31382e-18
-1.26645e-18
-2.4659e-18
8.43159e-18
-2.5454e-18
-3.0697e-17
1.13742e-19
9.68928e-19
-2.56477e-18
7.8085e-20
3.0533e-13
4.17084e-11
0
0
0
-3.50478e-33
-1.19153e-18
2.02384e-18
-4.41515e-20
0
0
0
0
0
0
0
0
0
0
0
0
0
0
0
0
0
0
0
0
0
0
0
0
0
0
-1.39311e-17
4.91713e-33
1.06404e-17
1.53538e-17
4.55828e-18
1.50247e-17
-1.58412e-17
-4.62611e-17
6.9509e-33
-1.85906e-17
-4.61975e-18
0
-2.77759e-17
3.79331e-25
2.61072e-18
3.89901e-09
-3.12967e-13
5.24217e-12
3.96332e-09
5.22232e-18
3.12963e-13
-7.79801e-09
-7.90364e-09
7.82414e-13
1.82033e-33
4.7738e-18
-8.97752e-18
-1.956e-19
7.11671e-20
0
4.6082e-18
-1.38436e-17
-1.35971e-19
-1.47907e-18
2.01519e-12
6.71732e-13
0
1.7612e-08
1.5715e-08
-2.63569e-18
4.6497e-18
-1.62991e-18
8.57028e-35
9.94585e-18
-9.28229e-18
0
-1.39134e-18
-1.64255e-20
6.82615e-18
9.1725e-18
-1.47997e-17
-2.70672e-18
-4.59125e-18
-1.4613e-17
7.19889e-20
0
2.05856e-18
1.43988e-19
-1.55916e-17
-8.76304e-12
-2.50374e-12
0
-6.57852e-10
-1.54704e-08
-9.24049e-18
-2.17258e-17
1.43868e-19
1.14254e-17
7.19054e-20
-4.035e-18
7.01922e-19
2.26849e-18
-6.83635e-18
1.7278e-17
-2.28536e-18
-9.31615e-32
-2.0757e-18
9.01806e-19
0
0
1.41119e-18
0
-9.39697e-19
2.83231e-20
4.76959e-19
7.5637e-19
4.19011e-20
1.41835e-18
-2.60043e-18
-7.16816e-20
-7.93868e-13
2.44272e-13
1.60869e-08
0
3.25579e-08
-1.11057e-19
0
-2.37661e-33
3.32609e-19
8.84081e-18
6.6948e-18
-2.8304e-17
-1.11074e-19
0
0
0
0
-2.67317e-18
-5.34634e-18
-2.09084e-17
-9.30886e-18
-6.4945e-17
4.63879e-18
-2.77974e-17
1.7471e-33
2.531e-18
-1.39174e-17
-2.05655e-17
-2.77084e-17
1.77033e-33
2.30239e-17
-4.62104e-17
0
2.36771e-18
2.81465e-18
1.14713e-17
-1.03817e-17
1.03095e-17
-9.24533e-18
0
3.15914e-17
1.7218e-17
-1.0452e-17
1.49015e-17
-2.31792e-18
0
-2.54953e-12
-1.82873e-08
5.75049e-18
-4.27466e-12
8.69189e-11
-2.2267e-18
-1.25468e-18
1.92723e-17
5.70713e-18
-4.57513e-18
1.02405e-17
-6.91047e-18
7.41535e-20
-6.51834e-18
4.27464e-12
6.47216e-18
0
1.16708e-09
-1.47884e-19
-5.13059e-18
-1.82244e-17
0
3.06892e-18
3.39895e-18
1.48224e-19
-3.30461e-18
4.2687e-20
6.15084e-18
5.05289e-18
7.39199e-20
-1.924e-18
2.29102e-18
6.3849e-18
1.36476e-17
0
3.13195e-18
-4.46751e-18
-3.57964e-18
0
1.64505e-15
-7.08455e-20
-1.14369e-17
0
2.20045e-18
1.34248e-19
5.03759e-19
-9.09398e-18
-4.25102e-18
-4.68953e-18
1.41635e-19
-8.89895e-18
8.0875e-18
-4.00259e-31
-1.65939e-18
0
-7.35571e-16
3.31496e-34
8.88147e-19
8.45726e-19
0
0
0
0
0
0
0
0
0
0
0
0
0
0
0
0
0
0
0
0
0
0
0
0
4.8431e-18
0
-2.62225e-17
1.84883e-17
-2.78264e-17
-1.37831e-17
-1.84348e-17
-1.40692e-24
4.43554e-09
-4.23086e-09
3.80883e-09
5.07691e-13
-4.17275e-09
-2.76062e-12
9.67783e-09
-9.25232e-09
-5.07621e-13
-7.61809e-09
2.76071e-12
8.34629e-09
4.43014e-24
3.74659e-09
8.17481e-09
7.30941e-20
1.69832e-10
2.50371e-12
1.2404e-12
-1.0327e-25
-1.55695e-08
1.49e-19
-2.21254e-25
1.91849e-08
4.15787e-10
-7.26691e-12
7.26689e-12
0
-7.82408e-13
-6.9117e-18
-3.38427e-10
2.07321e-17
1.48732e-19
-1.16697e-17
4.13642e-17
-1.13117e-19
-6.93808e-18
-2.90195e-26
-1.91484e-08
-4.64106e-12
3.73777e-09
-7.34167e-13
-9.36757e-18
-8.40491e-15
1.80662e-17
-1.53523e-18
7.28984e-13
-7.47551e-09
2.38334e-18
2.78146e-17
-1.19402e-08
-5.32815e-20
0
-1.2949e-09
0
1.2213e-13
-1.67933e-13
0
1.87412e-08
-3.66401e-13
-6.12043e-18
0
-4.83646e-18
1.54832e-33
9.02122e-22
1.59019e-18
-4.71007e-18
-5.44061e-19
1.78941e-08
-7.06763e-20
0
-1.67784e-08
-6.93577e-20
1.28239e-12
2.061e-12
4.88531e-13
0
1.8351e-08
-2.48229e-09
1.98472e-13
-1.78041e-17
1.41383e-19
-1.00586e-17
-6.93254e-20
-2.66285e-18
2.50899e-18
1.01575e-18
-2.05252e-17
-1.11249e-18
4.99869e-18
-1.99623e-24
0
5.51903e-34
0
0
0
0
0
-1.39312e-17
-5.50297e-33
-2.669e-19
7.85839e-18
1.39149e-17
-1.52029e-17
0
-2.77762e-17
-1.60021e-33
2.23456e-18
4.66578e-17
-1.55974e-17
-2.76888e-17
-7.66537e-34
2.61302e-18
1.84727e-17
-9.90913e-18
-1.86508e-17
-6.93226e-25
3.91674e-09
-1.14753e-12
1.81259e-11
4.11365e-09
1.14754e-12
-7.83463e-09
-8.14916e-09
2.29508e-12
-8.58754e-18
-7.19895e-20
0
-7.48687e-18
2.38507e-18
2.19012e-24
-7.46344e-18
2.00781e-11
6.10663e-12
0
1.90087e-08
-8.36076e-11
1.08374e-17
-2.48562e-19
-1.36279e-17
-7.19367e-20
-1.06376e-17
1.34251e-18
0
-5.39834e-18
2.05981e-18
-2.31971e-18
0
9.17579e-18
4.09596e-18
6.95489e-18
-1.89296e-18
-1.01028e-33
0
-1.50009e-17
-6.79758e-20
1.73466e-19
-5.49599e-12
-1.52665e-12
0
-3.53471e-08
-4.60476e-10
1.8463e-17
1.54329e-18
0
-2.19227e-17
0
1.26196e-18
-6.66311e-19
-3.45629e-18
1.70101e-17
-2.26705e-17
6.93618e-18
7.16807e-20
-6.10667e-13
2.54954e-12
-1.40836e-09
0
1.82528e-08
0
3.66397e-13
0
1.28068e-08
-7.1682e-20
2.18227e-19
2.57643e-18
4.96109e-18
-2.56373e-17
5.55363e-20
-4.70797e-19
2.84954e-18
0
-2.23985e-18
9.01782e-19
0
-8.37399e-20
0
0
-1.56034e-18
1.66296e-18
-4.18911e-20
0
0
0
0
0
0
0
0
0
0
0
0
0
0
0
0
0
0
0
0
1.5839e-17
-2.93798e-22
-9.38159e-18
9.36059e-18
-9.22017e-18
-1.2244e-33
-1.3067e-17
1.31782e-17
2.09439e-21
1.53327e-17
0
-1.8543e-17
-1.86168e-33
1.1446e-19
1.40822e-17
-2.29245e-19
-3.85906e-17
-7.27651e-20
1.3419e-17
4.51368e-09
-1.46654e-17
1.97974e-15
0
9.2374e-13
-6.66307e-15
0
-4.9465e-09
-1.36357e-17
0
-6.01251e-12
1.60096e-17
-7.27116e-20
2.71511e-18
-9.27447e-13
1.34194e-19
-1.91066e-17
-9.02645e-09
3.05989e-17
0
4.7988e-12
-2.1975e-18
9.88722e-09
2.27755e-17
0
-6.1982e-18
5.63143e-18
4.57368e-18
1.16577e-17
-8.36351e-18
9.14764e-18
1.66298e-18
1.13958e-17
-3.42915e-18
0
-1.64691e-17
-9.1458e-18
7.36639e-20
-1.09918e-12
3.95203e-19
-1.96462e-08
1.56456e-33
-1.18899e-16
7.55198e-20
3.16516e-33
-9.13619e-10
-3.72506e-12
1.48505e-33
3.14239e-18
-3.42332e-18
-1.96748e-17
7.45829e-18
-7.54994e-20
1.14387e-17
-1.00901e-18
-7.34492e-20
-5.93649e-18
-2.63189e-17
1.74848e-16
0
-6.649e-15
1.93575e-30
7.03797e-18
4.61983e-18
0
1.18386e-16
4.50063e-18
-7.33514e-20
8.43832e-19
-7.23209e-20
8.65656e-18
4.15336e-17
-7.16989e-20
1.13145e-18
-4.68883e-18
-2.62041e-18
1.12939e-18
2.87235e-09
1.36478e-24
0
3.31393e-20
4.57978e-14
3.29759e-12
0
2.48577e-08
-1.8003e-18
-1.06102e-33
3.31477e-20
-8.13441e-19
9.58391e-19
-7.5805e-18
0
0
0
0
0
0
1.56941e-17
0
5.79715e-17
-4.30947e-18
-9.6483e-18
-9.15118e-18
-1.85826e-17
-1.73566e-24
-4.31361e-09
7.40043e-11
-9.41985e-09
1.46061e-10
2.13814e-24
1.46031e-10
3.94048e-09
5.76613e-10
-1.63348e-10
7.56192e-10
3.13354e-10
4.82169e-13
-7.91056e-09
1.81799e-12
3.71735e-10
5.40326e-27
1.84366e-08
-4.76319e-12
4.04825e-09
1.72216e-08
3.67925e-12
1.67337e-08
-1.54194e-12
-7.98823e-10
6.97464e-18
-1.12468e-19
-9.05825e-13
-8.0376e-09
-1.2378e-18
4.16953e-18
-1.29819e-18
1.54675e-17
7.30987e-20
4.93591e-09
-6.10665e-12
4.48584e-12
-1.33918e-25
6.11429e-12
-7.4503e-20
-6.76442e-26
1.53421e-08
-4.76319e-12
-7.30377e-20
-2.29508e-12
-6.91157e-18
-9.86499e-09
3.45107e-18
-7.43594e-20
5.51557e-18
-9.29999e-18
-1.78945e-08
-1.41345e-19
0
1.60106e-08
1.66928e-08
0
-6.71736e-13
8.30504e-12
-2.62584e-18
0
3.81037e-08
1.00008e-16
-5.49595e-13
-2.90063e-13
-1.80326e-18
0
2.20968e-18
-2.54078e-18
6.93319e-20
-5.32717e-18
4.02199e-18
2.26284e-18
-2.61274e-18
4.43375e-18
5.92339e-18
-1.24209e-18
1.16115e-08
-5.32778e-20
0
3.28896e-20
1.22129e-13
-1.87779e-12
0
-4.83688e-09
-8.39898e-18
-5.32879e-20
0
7.37622e-20
4.48726e-19
-6.76607e-18
3.14166e-24
0
4.05991e-34
0
0
0
0
0
0
0
0
0
0
0
0
0
0
0
0
0
1.86646e-17
-4.49143e-35
-1.06051e-17
-5.29474e-18
-1.63367e-19
-1.88949e-17
1.29194e-34
3.3241e-19
-1.43253e-19
1.06049e-17
-2.80698e-17
-9.51801e-25
-4.26928e-09
1.44269e-11
1.79739e-08
-1.95412e-12
2.21366e-12
-3.22392e-08
1.43649e-10
-1.5885e-08
1.77313e-08
-9.33966e-09
1.836e-19
1.25151e-17
1.31266e-18
2.38588e-18
2.87364e-18
-9.39521e-18
-1.20861e-12
-3.071e-10
2.801e-24
-4.3817e-09
4.34303e-09
1.63483e-08
1.66879e-10
1.60291e-08
-9.56145e-09
-3.43118e-12
-8.65136e-09
4.49093e-13
-3.46167e-10
-1.42876e-19
1.62823e-17
-3.48079e-12
-9.15999e-13
-1.43088e-17
0
-1.82387e-08
-3.39301e-11
0
-1.37808e-17
0
1.14242e-17
-9.26619e-34
3.03219e-18
-6.4029e-19
3.43652e-18
-1.90158e-17
4.90547e-18
5.63224e-24
0
-6.93899e-18
1.03276e-17
7.85256e-18
7.05879e-20
0
-1.85105e-18
-1.60569e-17
7.47624e-20
9.87791e-18
-1.22132e-12
0
1.51766e-08
3.80105e-18
2.74105e-17
1.07659e-17
-7.05531e-20
2.00561e-19
-2.51761e-17
-7.45551e-20
1.26649e-18
3.44229e-18
-8.65748e-18
9.97198e-20
9.01472e-18
0
1.0992e-12
-1.8009e-08
0
0
0
-1.88959e-17
1.25113e-17
1.09482e-19
-9.69126e-19
-1.2853e-17
1.42908e-33
-3.65864e-17
5.02244e-18
0
-2.44271e-13
1.45033e-12
-1.01577e-09
0
1.62182e-08
4.59145e-20
-3.66392e-13
0
-1.03204e-08
7.03496e-20
1.50405e-19
6.16417e-18
1.50725e-17
-1.95307e-17
0
3.56499e-19
-9.01211e-18
0
0
0
0
0
0
5.80167e-17
9.36059e-18
1.85825e-17
-1.85744e-17
-9.38159e-18
5.93331e-34
1.30673e-17
1.03585e-17
2.36187e-17
-3.72248e-17
9.25845e-32
-1.81825e-17
-6.66291e-35
-3.01066e-18
-1.73099e-21
0
9.9463e-19
0
4.73953e-09
3.80266e-12
8.00055e-18
-7.08288e-22
-4.63615e-18
-9.14799e-18
8.16386e-18
-5.06485e-18
-3.0775e-12
-9.47559e-09
8.00221e-18
0
1.76123e-19
-9.14586e-18
9.732e-18
5.72652e-18
0
9.64852e-12
-1.61855e-10
-4.95556e-18
1.86875e-08
0
-1.04526e-12
1.3112e-16
0
-2.06799e-17
0
1.94793e-17
4.76097e-25
7.16467e-18
1.04322e-12
-1.26231e-17
-1.87187e-17
3.22981e-10
1.45792e-17
7.34444e-20
-1.16465e-17
1.82412e-17
0
-9.2821e-12
-1.33778e-17
-1.90988e-08
0
1.79573e-16
0
-2.39545e-19
-4.70212e-12
0
2.58463e-18
-1.85145e-08
0
1.46559e-12
2.48845e-12
-6.73662e-34
-9.51072e-10
1.68249e-08
1.46696e-19
1.41192e-18
1.14551e-18
-4.83502e-18
1.67616e-17
-7.16875e-20
0
-1.36943e-18
3.74786e-18
7.73362e-18
-7.54948e-20
-1.82967e-18
1.21065e-18
6.19078e-18
-4.71972e-19
2.59371e-24
1.66406e-12
-3.22714e-34
1.47308e-08
-7.36413e-20
-1.22089e-18
4.57858e-18
-8.10437e-09
-3.42424e-25
0
1.81503e-25
6.10689e-14
-5.954e-13
0
1.22613e-10
2.87351e-09
1.95053e-24
-1.74621e-24
-7.02262e-13
-8.91828e-19
2.59561e-18
0
0
0
0
0
0
0
0
0
0
0
0
0
0
2.61718e-17
1.36364e-18
5.77486e-17
-1.3211e-19
-2.76699e-17
-4.24646e-18
1.94062e-19
-3.11581e-25
-1.57973e-17
-3.8805e-09
2.17206e-17
-8.46639e-09
-5.96987e-34
1.8381e-17
-1.8204e-17
5.89262e-20
-2.01519e-12
-1.57246e-12
2.84462e-18
-7.30387e-20
-1.22124e-13
-2.73272e-12
1.29264e-10
0
1.22986e-08
-1.4342e-08
2.34014e-24
4.62746e-09
1.35924e-17
0
1.13992e-12
-1.48334e-17
0
1.78039e-08
-1.83635e-08
-1.46077e-19
-2.2894e-18
2.75955e-18
5.89324e-20
-1.30713e-18
-6.81967e-19
6.24492e-18
-8.08327e-18
-2.51637e-17
-3.7462e-18
-8.47437e-18
-1.55026e-17
1.35511e-19
-1.14755e-12
6.79605e-18
-9.25437e-09
-1.70837e-17
-1.91725e-24
-5.43494e-12
4.79352e-09
-9.702e-19
-6.90819e-10
0
3.61832e-12
1.76856e-16
0
2.3997e-18
0
-6.38865e-22
-5.40062e-26
-2.46713e-18
-3.61437e-12
-3.61846e-18
2.40759e-17
-9.58534e-09
6.03832e-18
0
-4.92041e-18
6.17029e-20
0
5.60499e-18
-1.02286e-12
-7.68946e-18
0
-7.74751e-09
-7.00724e-20
2.41594e-17
0
-2.66223e-17
4.54165e-20
1.79516e-18
2.32457e-18
-1.01477e-17
-6.62668e-18
0
9.65683e-18
-3.63136e-17
4.62625e-20
0
1.13321e-15
6.0673e-18
7.09249e-34
-9.65829e-18
2.36775e-18
-4.75107e-26
0
-1.27732e-34
3.46534e-24
0
5.79557e-34
0
0
0
0
0
0
0
1.82732e-17
1.16698e-34
1.06051e-17
1.06013e-17
1.85695e-17
1.63367e-19
1.06049e-17
-1.87132e-17
-2.4929e-34
4.15296e-18
-1.88949e-17
-6.19349e-25
-5.36621e-18
-4.38162e-09
4.3426e-09
1.63476e-08
-6.80637e-12
1.60301e-08
-1.7817e-17
-9.56145e-09
-3.31667e-12
-8.65127e-09
2.50146e-18
1.81675e-17
-2.58176e-34
-5.2088e-19
-1.9417e-15
2.29e-13
-2.44266e-12
-1.51138e-08
-1.06536e-11
-1.58859e-08
-1.77315e-08
-1.38864e-18
3.92637e-18
2.45891e-18
-2.64078e-18
-4.45124e-19
-8.06628e-18
4.60987e-18
9.29158e-18
8.48356e-18
7.05897e-20
0
-4.72875e-18
-2.93724e-18
4.09346e-32
1.20302e-17
7.35175e-18
0
-1.60279e-15
2.0603e-17
1.46748e-18
7.31559e-20
0
1.27298e-17
1.37156e-17
-1.88347e-17
-1.38137e-17
1.17752e-17
1.76932e-34
-1.49785e-17
-6.25434e-18
0
4.17736e-18
-4.9259e-18
-4.60153e-18
7.82857e-20
1.9967e-19
-7.31165e-20
1.6221e-17
3.38795e-18
-5.10622e-18
-9.23036e-18
7.14395e-20
9.56272e-19
1.22045e-18
0
7.61242e-16
6.78037e-15
7.14146e-20
-4.65176e-18
-1.14984e-18
-7.60499e-18
-2.29133e-17
1.40719e-19
-4.27462e-13
8.54937e-13
-1.01522e-09
0
1.65067e-08
-4.59024e-20
-1.83194e-13
7.3898e-20
-2.94646e-12
-6.71719e-13
0
-1.03171e-08
0
-1.80097e-08
-1.6609e-08
-1.50533e-33
-2.51281e-18
3.60434e-18
3.61784e-18
-3.42372e-17
4.5916e-20
3.81595e-19
1.47769e-19
-1.57772e-18
3.76518e-18
-5.88428e-18
1.33294e-18
-1.38436e-17
-5.47519e-20
0
5.47432e-20
0
0
0
0
0
0
0
0
0
0
0
2.35767e-17
-2.7772e-34
1.60511e-19
5.2029e-18
1.88525e-17
6.43777e-19
-4.06968e-17
-8.65843e-18
5.68263e-34
2.69482e-17
1.89743e-17
2.07908e-17
-4.72011e-17
0
-3.16322e-17
-2.07626e-12
-3.78715e-10
9.15514e-18
-2.748e-12
1.59414e-08
-1.38747e-17
2.16535e-17
-5.19705e-18
1.05066e-17
1.49166e-17
-3.26826e-18
1.96046e-17
-4.56483e-18
0
4.59259e-18
-2.75466e-17
6.01877e-24
-8.79169e-25
-2.13744e-18
1.64181e-16
0
0
0
1.8319e-13
0
-1.61058e-08
1.23105e-33
1.24555e-33
-8.7463e-19
-2.15778e-18
-4.3221e-20