/*--------------------------------*- C++ -*----------------------------------*\
| =========                 |                                                 |
| \\      /  F ield         | OpenFOAM: The Open Source CFD Toolbox           |
|  \\    /   O peration     | Version:  5.x                                   |
|   \\  /    A nd           | Web:      www.OpenFOAM.org                      |
|    \\/     M anipulation  |                                                 |
\*---------------------------------------------------------------------------*/
FoamFile
{
    version     2.0;
    format      ascii;
    class       volScalarField;
    location    "2.8";
    object      nut;
}
// * * * * * * * * * * * * * * * * * * * * * * * * * * * * * * * * * * * * * //

dimensions      [0 2 -1 0 0 0 0];

internalField   nonuniform List<scalar> 
12160
(
6.49784e-09
1.56896e-08
6.43598e-08
1.9916e-08
2.61837e-08
3.52118e-08
7.78351e-09
3.4539e-08
2.54885e-08
2.982e-08
7.73154e-09
1.74941e-08
3.42465e-08
2.28254e-08
2.0779e-08
4.29527e-09
2.05335e-08
1.70823e-08
3.09968e-08
2.18375e-08
1.80753e-08
3.59145e-09
1.70168e-08
1.91502e-08
1.64982e-08
3.02471e-08
1.76732e-08
1.65027e-08
3.04865e-09
2.24785e-08
1.58381e-08
1.99037e-08
1.58906e-08
2.44274e-08
1.56127e-08
1.05525e-08
2.7584e-09
2.68425e-08
2.00942e-08
1.67278e-08
1.84176e-08
1.62671e-08
2.10584e-08
1.11489e-08
1.77923e-08
2.62423e-09
3.94618e-08
2.39699e-08
2.09301e-08
1.57007e-08
2.23139e-08
1.40785e-08
1.42735e-08
2.09206e-08
1.59989e-08
2.62924e-09
7.21426e-08
3.20389e-08
2.40195e-08
1.81929e-08
1.82638e-08
1.66663e-08
1.47961e-08
1.68227e-08
3.25163e-08
1.23915e-08
2.79476e-09
5.54151e-08
4.27087e-08
2.87502e-08
1.99597e-08
2.01941e-08
1.45753e-08
1.61961e-08
1.64477e-08
2.83559e-07
1.49971e-08
1.23828e-08
3.19914e-09
2.65821e-08
3.69368e-08
3.24966e-08
2.29805e-08
2.06825e-08
1.51105e-08
1.92643e-08
1.40535e-08
2.78847e-08
1.9151e-08
1.75752e-08
1.62834e-08
4.04235e-09
1.64418e-08
2.2916e-08
2.78934e-08
2.48372e-08
2.09523e-08
1.6085e-08
2.25575e-08
1.32086e-08
1.41622e-08
1.84597e-08
1.36726e-08
1.18087e-08
2.18799e-08
5.83736e-09
1.19141e-08
1.52217e-08
1.94332e-08
2.18907e-08
1.9306e-08
1.74465e-08
2.42667e-08
1.27724e-08
1.18961e-08
5.27121e-08
5.46476e-09
2.66018e-08
1.79966e-08
1.9296e-08
8.30001e-09
9.68853e-09
1.1335e-08
1.36247e-08
1.6489e-08
1.65418e-08
1.80399e-08
2.66388e-08
1.42328e-08
1.15864e-08
1.38413e-07
3.88363e-09
1.00062e-08
1.86509e-08
2.81698e-09
6.30557e-09
8.60291e-09
9.28819e-09
1.03265e-08
1.22841e-08
1.34476e-08
1.59942e-08
3.14862e-08
1.77957e-08
1.16335e-08
9.14197e-08
4.06666e-09
8.0054e-09
1.80269e-08
1.75546e-08
3.96922e-09
8.16225e-09
8.22551e-09
8.58992e-09
9.72117e-09
1.04604e-08
1.26327e-08
4.73815e-08
2.43717e-08
1.16166e-08
8.97341e-08
4.6134e-09
7.47938e-09
5.04112e-09
6.33007e-09
2.8293e-09
8.22456e-09
7.78735e-09
7.77132e-09
8.22531e-09
8.31368e-09
1.00728e-08
5.3436e-08
3.2678e-08
1.19247e-08
8.65331e-08
5.46554e-09
6.64984e-09
4.48837e-09
5.28885e-09
2.22332e-09
8.71179e-09
7.83395e-09
7.47508e-09
7.40227e-09
7.15575e-09
8.21937e-09
2.37156e-08
3.96576e-08
1.21906e-08
9.52989e-08
6.50775e-09
6.98103e-09
8.70746e-09
9.47272e-09
1.86543e-09
9.60034e-09
8.31256e-09
7.59531e-09
7.01824e-09
6.59335e-09
7.00715e-09
1.4352e-08
4.18124e-08
1.30328e-08
1.18294e-07
7.50706e-09
6.77652e-09
1.73781e-08
3.4472e-08
1.6367e-09
1.08903e-08
9.235e-09
8.09905e-09
7.07049e-09
6.49587e-09
6.39188e-09
1.08893e-08
3.95619e-08
1.59905e-08
5.67919e-08
8.51316e-09
7.66999e-09
1.63014e-08
2.09497e-08
1.48042e-09
1.25339e-08
1.05229e-08
9.04115e-09
7.59068e-09
6.69641e-09
6.06442e-09
8.88909e-09
3.04702e-08
1.94156e-08
4.01883e-08
8.98128e-09
8.37454e-09
1.07384e-08
2.17037e-08
1.36967e-09
1.46082e-08
1.21085e-08
1.04069e-08
8.67844e-09
7.24451e-09
6.00793e-09
8.00171e-09
2.19641e-08
2.26592e-08
3.98566e-08
1.07457e-08
7.57921e-09
5.34712e-09
2.57848e-08
1.29009e-09
1.72985e-08
1.40757e-08
1.20463e-08
1.01302e-08
8.23853e-09
6.64435e-09
8.00601e-09
1.71061e-08
2.31357e-08
4.08645e-08
1.16647e-08
7.52598e-09
5.0135e-09
9.9705e-09
1.2304e-09
2.06772e-08
1.66495e-08
1.4065e-08
1.17273e-08
9.52495e-09
8.05213e-09
8.32295e-09
1.32349e-08
2.06722e-08
3.81638e-08
1.43681e-08
8.67848e-09
5.31368e-09
4.53625e-09
1.18487e-09
2.46739e-08
1.98684e-08
1.68169e-08
1.36426e-08
1.0957e-08
9.93408e-09
8.58877e-09
9.72751e-09
1.68319e-08
3.45942e-08
1.9804e-08
1.19062e-08
6.33848e-09
3.79262e-09
1.1495e-09
2.95116e-08
2.37692e-08
2.02693e-08
1.62995e-08
1.27933e-08
1.20114e-08
8.61155e-09
7.78085e-09
1.3999e-08
3.02437e-08
3.72516e-08
1.94341e-08
7.78226e-09
4.37427e-09
1.12147e-09
3.50626e-08
2.84158e-08
2.45866e-08
1.95958e-08
1.57343e-08
1.4715e-08
9.36707e-09
7.32117e-09
1.35037e-08
2.43054e-08
1.62737e-08
2.44199e-08
9.52786e-09
5.21861e-09
1.09903e-09
4.12446e-08
3.35276e-08
2.99101e-08
2.38668e-08
2.03017e-08
1.86088e-08
1.06887e-08
6.51612e-09
1.57585e-08
2.0283e-08
7.51618e-09
2.26881e-08
1.52547e-08
7.71568e-09
1.08118e-09
4.8445e-08
3.86106e-08
3.57218e-08
2.92158e-08
2.62532e-08
2.51901e-08
1.43954e-08
5.95498e-09
1.92028e-08
1.32813e-08
5.24618e-09
1.82629e-08
6.08465e-08
2.59184e-08
1.06782e-09
5.8801e-08
4.38435e-08
4.04541e-08
3.57503e-08
3.31068e-08
4.08295e-08
2.70364e-08
5.84232e-09
2.17167e-08
6.55776e-09
3.8462e-09
1.4734e-08
4.58419e-08
1.35572e-08
1.05712e-09
7.68017e-08
5.03228e-08
4.43172e-08
4.01679e-08
3.77821e-08
4.71541e-08
5.46298e-08
7.25086e-09
1.64903e-08
3.59881e-09
2.85813e-09
1.16248e-08
3.12137e-08
8.02838e-09
1.05611e-09
1.23899e-07
5.85615e-08
4.92468e-08
4.08732e-08
3.91781e-08
4.62918e-08
3.79098e-08
1.08708e-08
1.52541e-08
2.55363e-09
2.15165e-09
9.74223e-09
2.01383e-08
5.80911e-09
1.05834e-09
1.3838e-07
6.59963e-08
5.54999e-08
3.94103e-08
4.05292e-08
4.36656e-08
3.27187e-08
1.6354e-08
1.79106e-08
2.78197e-09
1.78588e-09
1.11475e-08
1.55022e-08
5.51033e-09
1.0642e-09
9.19749e-08
7.81164e-08
6.27788e-08
3.86277e-08
4.23157e-08
4.08937e-08
3.06466e-08
2.3915e-08
2.04252e-08
3.68402e-09
2.02147e-09
2.28482e-08
1.62629e-08
7.26811e-09
1.07761e-09
6.24529e-08
7.38206e-08
5.85794e-08
3.83879e-08
4.38186e-08
3.95075e-08
3.33509e-08
2.76886e-08
2.13812e-08
4.81696e-09
2.69792e-09
2.50328e-08
2.11618e-08
1.05403e-08
1.09795e-09
4.59425e-08
5.36198e-08
4.93575e-08
4.11272e-08
4.32985e-08
3.6971e-08
3.65401e-08
2.51262e-08
2.16839e-08
5.99374e-09
3.12754e-09
1.15787e-08
2.04789e-08
1.67903e-08
1.11927e-09
3.81904e-08
4.18586e-08
4.20029e-08
4.03678e-08
3.23177e-08
3.23238e-08
3.02725e-08
2.23069e-08
2.29169e-08
7.26593e-09
3.43232e-09
1.12693e-08
1.38014e-08
2.70424e-08
1.15396e-09
3.08731e-08
3.57532e-08
3.59372e-08
3.44798e-08
2.7512e-08
4.83385e-08
1.7712e-08
2.3824e-08
2.48858e-08
9.04225e-09
3.93832e-09
1.41451e-08
1.02922e-08
3.37192e-08
2.92503e-08
1.18875e-09
3.01653e-08
3.16516e-08
3.02435e-08
2.68955e-08
6.09062e-07
1.22806e-08
2.68323e-08
2.69742e-08
1.18254e-08
5.10429e-09
1.60902e-08
7.97148e-09
2.24579e-08
2.88648e-08
2.47233e-08
1.31955e-09
2.73674e-08
2.75314e-08
2.61973e-08
5.44672e-08
1.13144e-08
4.53452e-08
2.97749e-08
1.62734e-08
7.14724e-09
1.56775e-08
7.46653e-09
2.9057e-08
2.58561e-08
2.41548e-08
2.73649e-08
1.35563e-09
2.47306e-08
2.49464e-08
3.54102e-08
1.17965e-08
3.58306e-07
3.61285e-08
2.86407e-08
9.29235e-09
1.51357e-08
7.1457e-09
1.26603e-08
2.4406e-08
2.13307e-08
2.60399e-08
3.2205e-08
1.46181e-09
2.25285e-08
2.9823e-08
1.3159e-08
1.13454e-07
4.20598e-08
7.61303e-08
8.87982e-09
1.29765e-08
6.84384e-09
8.38448e-09
2.08742e-08
2.12724e-08
2.13815e-08
2.62054e-08
3.4761e-08
1.36645e-09
2.56493e-08
1.46239e-08
7.81952e-08
4.41804e-08
2.55406e-07
8.12683e-09
1.2325e-08
8.20047e-09
1.10885e-08
2.41268e-08
1.72867e-08
2.05643e-08
1.92313e-08
2.42882e-08
1.68928e-08
1.22953e-09
1.5954e-08
7.49419e-08
4.55186e-08
6.78407e-07
1.03361e-08
1.35568e-08
9.58432e-09
3.63278e-08
1.65827e-08
1.74555e-08
1.62595e-08
1.77128e-08
1.75524e-08
1.18644e-08
1.04664e-08
2.35019e-09
8.48636e-08
5.36639e-08
3.40074e-07
1.33114e-08
1.31077e-08
6.92472e-09
9.0238e-09
8.18174e-08
1.58263e-08
1.43807e-08
1.43655e-08
1.44339e-08
1.02618e-08
3.49393e-08
2.14784e-07
8.8594e-08
7.05643e-08
2.36089e-07
1.47539e-08
1.13453e-08
1.47695e-08
8.74181e-09
1.15949e-07
5.51927e-08
1.4631e-08
1.21495e-08
1.13732e-08
9.4394e-09
3.56563e-07
2.56875e-06
4.13087e-06
1.41411e-08
1.56626e-07
1.50247e-08
3.66239e-08
5.79399e-08
7.6496e-09
1.08495e-07
2.17788e-07
1.02015e-07
4.21675e-08
1.28351e-08
4.20526e-08
2.81836e-06
2.15142e-05
3.73597e-05
1.85251e-06
6.13242e-06
2.8622e-08
3.36721e-07
3.51409e-07
8.96913e-09
2.90069e-06
1.5931e-05
6.27055e-05
6.55554e-05
8.67867e-06
1.46672e-06
1.54011e-05
8.89054e-05
0.000243932
5.93995e-05
3.34602e-05
0.000864872
9.42748e-06
1.67552e-06
2.29159e-08
0.000136267
0.000438174
0.000768151
0.00105097
0.000486023
0.000122063
0.000122396
0.000320086
0.000469345
0.000202886
5.0949e-05
0.000941686
0.00189338
0.000462389
2.06907e-05
2.88413e-07
0.000185406
0.00088932
0.00308692
0.00484037
0.0026848
0.00105234
0.000906683
0.000984312
0.00105903
0.000557055
0.000109914
0.00121681
0.00184383
0.00191162
0.00201771
0.000484178
6.03765e-06
7.91738e-05
0.0010368
0.00549207
0.00715199
0.00627019
0.00348723
0.00172547
0.00236888
0.00221992
0.00141766
0.000434966
0.00148169
0.00202015
0.0019612
0.00179493
0.00182548
0.00195369
0.00048639
0.000751451
0.00490485
0.00679528
0.00805286
0.00624059
0.00370993
0.00281787
0.003194
0.00227724
0.00126894
0.00165108
0.00198669
0.0019726
0.00187776
0.00173703
0.00168793
0.00173453
0.0019178
0.000503429
0.00512346
0.00658575
0.00693284
0.00765601
0.00571546
0.00396358
0.00440792
0.00331654
0.00209948
0.00159871
0.00190179
0.0019398
0.00191672
0.00182762
0.00173221
0.00162858
0.00158815
0.00169079
0.00192553
0.000543203
0.00617209
0.00642677
0.00672097
0.00661932
0.00540141
0.00458058
0.00562388
0.00330074
0.00196311
0.00180494
0.00187179
0.00190528
0.00187897
0.00181331
0.00109561
0.00163107
0.00152778
0.00152283
0.00170829
0.00198956
0.000550156
0.00612713
0.00672921
0.00636047
0.00590549
0.00530893
0.00624851
0.00513975
0.00310075
0.00191676
0.00180033
0.00185164
0.00187851
0.00186271
0.00155559
0.00209245
0.00109624
0.00209285
0.00210396
0.00210445
0.00151882
0.001442
0.00148969
0.00175148
0.00208647
0.000537081
0.00579338
0.00623843
0.0058314
0.00552516
0.00571598
0.00747964
0.00473398
0.00241958
0.00182406
0.001788
0.00183544
0.0018667
0.00176766
0.000897087
0.00201119
0.00180052
0.00151096
0.00201157
0.00205732
0.00205764
0.00180052
0.00185018
0.00185041
0.00141465
0.0013741
0.0014915
0.00180374
0.00217725
0.00054095
0.00423397
0.00555841
0.00550681
0.00553906
0.00775598
0.00677993
0.00365688
0.00212056
0.00176965
0.00178445
0.00182148
0.00179384
0.00102669
0.0017722
0.00177206
0.00180479
0.00180498
0.00174538
0.00162154
0.0014522
0.00148551
0.00174538
0.00174474
0.00174468
0.00162132
0.0016733
0.00167329
0.00131441
0.00132828
0.0015073
0.0018659
0.00198346
0.000581149
0.00338932
0.005266
0.0054478
0.00653925
0.00671571
0.00663073
0.00324949
0.00196506
0.00176037
0.00177443
0.0017491
0.000945837
0.00179423
0.00179456
0.0018095
0.0018102
0.00157866
0.00157875
0.00159077
0.0015909
0.00159827
0.00145645
0.0014429
0.00144653
0.00145549
0.001351
0.00116569
0.00165161
0.00165173
0.00162084
0.00162061
0.0015981
0.00160364
0.0016035
0.0014563
0.00144382
0.0014462
0.00145431
0.00149018
0.00150195
0.00152703
0.00147314
0.00149025
0.00150681
0.0015271
0.00147658
0.0012227
0.00129865
0.00150255
0.00193041
0.00163793
0.000642734
0.00341244
0.00523376
0.00571732
0.00627741
0.0064019
0.00618196
0.00282744
0.00192165
0.00177582
0.00169718
0.000848115
0.00177957
0.00178014
0.00181062
0.00181157
0.0015392
0.00153944
0.00153933
0.00153974
0.00139279
0.0014281
0.00139952
0.00140494
0.00141667
0.00142647
0.00143167
0.00139239
0.00139922
0.00140482
0.00141656
0.00142648
0.00137173
0.00140063
0.00140064
0.0014185
0.00137389
0.00140064
0.00140155
0.0014185
0.00143228
0.00142971
0.00143083
0.0014425
0.001314
0.00136664
0.00129757
0.00138031
0.0012136
0.000957445
0.00153014
0.00153041
0.00160503
0.00160526
0.00150554
0.00150578
0.00145028
0.0014508
0.00143208
0.00143271
0.00143067
0.00144348
0.00143781
0.00146582
0.0014488
0.00146083
0.00143772
0.00146733
0.0014486
0.00146002
0.00131371
0.00136718
0.00129729
0.00137945
0.00134923
0.00138875
0.00134921
0.00139179
0.00115713
0.00127549
0.00147311
0.00195797
0.00166583
0.000764497
0.00414532
0.0050379
0.00513859
0.00573787
0.00713601
0.00505624
0.00272171
0.00196137
0.00172076
0.000800696
0.00184759
0.00184829
0.00185917
0.00185978
0.0015222
0.00152257
0.00155212
0.0015526
0.00132723
0.00136047
0.00131305
0.00134958
0.0013322
0.00136056
0.00132036
0.00134964
0.00129006
0.00134132
0.00130087
0.00134422
0.00129659
0.00134141
0.00130802
0.00134437
0.00134477
0.00136031
0.00134362
0.00131833
0.00135349
0.0013333
0.00134595
0.00136016
0.00131818
0.00134329
0.00135374
0.00133313
0.00129125
0.00128866
0.00133068
0.00131616
0.00129427
0.00128857
0.00133201
0.0013161
0.00128189
0.00134993
0.00128312
0.00135612
0.00124774
0.00134101
0.00123689
0.00133642
0.00104663
0.000814811
0.00131742
0.00131771
0.00142513
0.00142542
0.00148552
0.00148576
0.00151117
0.00151139
0.00143419
0.0013616
0.00143475
0.00136267
0.00143509
0.00136159
0.00143556
0.00136268
0.00140313
0.00139024
0.00131521
0.00142176
0.00134669
0.00130744
0.00140409
0.00139185
0.00131528
0.00142302
0.00134682
0.00130742
0.00128169
0.00135249
0.001283
0.0013574
0.00129154
0.00138208
0.00129135
0.00138169
0.00124766
0.00134061
0.00123677
0.00133616
0.00127021
0.00132646
0.00127018
0.00132906
0.00114012
0.00126941
0.00144504
0.00196228
0.00175304
0.000954981
0.00435776
0.00419648
0.00597942
0.00558451
0.00753773
0.00495839
0.00293795
0.00202904
0.00138396
0.00186177
0.00186222
0.00188558
0.00188628
0.00157579
0.00157593
0.00160812
0.00160828
0.00128235
0.0013369
0.00129023
0.00134178
0.00128882
0.00133706
0.00129604
0.00134175
0.00134943
0.00139358
0.00131596
0.00136662
0.00135533
0.00139383
0.00132227
0.0013668
0.00125027
0.00124981
0.00122499
0.00122227
0.00125549
0.00124981
0.00123165
0.00122234
0.00117301
0.00117218
0.00119361
0.00119139
0.00117969
0.00117215
0.00119973
0.0011915
0.00122064
0.00133098
0.00122508
0.00132942
0.00104746
0.000795015
0.0011177
0.00111807
0.00122726
0.0012276
0.00138354
0.0013838
0.001434
0.00143426
0.00140128
0.00132828
0.00140254
0.00133073
0.00140228
0.00132819
0.00140297
0.00133061
0.00142491
0.00134962
0.00142161
0.00134516
0.00142555
0.00134965
0.001422
0.00134501
0.00141222
0.00128845
0.001414
0.00129776
0.00141279
0.00128824
0.00141473
0.00129765
0.00136661
0.0014039
0.00129593
0.00123928
0.00141621
0.00130362
0.00136698
0.00140501
0.0012959
0.00123923
0.00141751
0.00130359
0.00122062
0.00133248
0.00122507
0.00133046
0.00122738
0.00135031
0.00122726
0.00134984
0.00118449
0.00128898
0.00144535
0.00200351
0.00181237
0.00119774
0.0034285
0.00473633
0.00606121
0.00532638
0.00810552
0.00555473
0.00343673
0.00241635
0.000794035
0.00163846
0.00163856
0.00170395
0.00170453
0.00141968
0.00141992
0.00145421
0.00145416
0.00117263
0.00117604
0.00118493
0.0011838
0.00117938
0.00117617
0.0011905
0.00118384
0.00125244
0.00127568
0.00121148
0.00121197
0.00125757
0.00127581
0.00121709
0.00121212
0.0011453
0.00112953
0.00115114
0.00112945
0.00113132
0.00101666
0.000949682
0.000950813
0.00106537
0.00106577
0.00129709
0.00129711
0.0013399
0.0013399
0.00129539
0.00122885
0.00133472
0.0012494
0.00129601
0.00122888
0.00133469
0.00124941
0.00138029
0.00130237
0.00135541
0.00128104
0.00138132
0.00130243
0.001356
0.00128101
0.00136424
0.00123425
0.00137612
0.00124582
0.00136477
0.0012341
0.00137637
0.00124572
0.00139814
0.00127307
0.00138818
0.00126095
0.00139825
0.00127284
0.00138851
0.00126073
0.00125207
0.00130222
0.0014769
0.00208578
0.00196453
0.00163448
0.00383399
0.00534202
0.00425072
0.00515783
0.00780151
0.00641601
0.00455445
0.00367491
0.001849
0.00184947
0.00202248
0.00202329
0.00148702
0.00148708
0.00156748
0.00156774
0.00129215
0.0012554
0.00128115
0.00128373
0.00129219
0.00125606
0.00128135
0.00128303
0.0013136
0.00130858
0.00132179
0.00130301
0.00131351
0.00131275
0.0013217
0.00130351
0.00113397
0.00111427
0.00113562
0.00110822
0.00113911
0.00111428
0.00113961
0.00110818
0.00117046
0.00116935
0.00114278
0.00112099
0.00117427
0.0011693
0.00114687
0.00112104
0.0012454
0.00111561
0.00114875
0.00125359
0.00125381
0.00126466
0.00126473
0.00127644
0.00127677
0.00126486
0.00126522
0.00130329
0.00116176
0.00132474
0.00117546
0.00130342
0.00116171
0.00132484
0.00117546
0.00135076
0.00121518
0.00133134
0.00119366
0.00135163
0.00121518
0.00133195
0.00119368
0.00136642
0.00121309
0.00136678
0.00121275
0.00127969
0.00130615
0.00154929
0.0021363
0.0020436
0.00154996
0.00511307
0.00477959
0.00346702
0.00481964
0.00554498
0.0075254
0.00555986
0.00171172
0.00167214
0.00167246
0.00179752
0.00179762
0.0013406
0.00135222
0.00139489
0.00138781
0.00134479
0.00135236
0.00139494
0.00138799
0.00150739
0.00150742
0.0011796
0.00119978
0.00119526
0.00120519
0.00117956
0.00119928
0.00119525
0.0012042
0.00117736
0.00122562
0.00119503
0.00120579
0.00117724
0.00123116
0.0011951
0.00120675
0.00115959
0.0011494
0.00116179
0.00114918
0.00128433
0.00125558
0.00119828
0.00134524
0.00134482
0.00138813
0.0013878
0.00134461
0.00134447
0.00132356
0.00132336
0.00117469
0.00135477
0.00117604
0.00135132
0.00117482
0.00135262
0.00117566
0.00135083
0.00117277
0.00134545
0.00116584
0.00134407
0.00117294
0.00134555
0.00116592
0.00134404
0.00134688
0.00115482
0.00135275
0.00116318
0.00134698
0.00115464
0.00135289
0.00116306
0.00136384
0.00119334
0.00135297
0.001175
0.0013644
0.00119307
0.00135344
0.00117481
0.00127417
0.00131815
0.00166854
0.00188339
0.00156695
0.00626562
0.00358387
0.00298551
0.00387523
0.0045515
0.00414771
0.00363734
0.00171585
0.00171532
0.00160855
0.00160845
0.00147784
0.00148926
0.00151482
0.00153257
0.00148155
0.00148944
0.00151762
0.0015325
0.00163194
0.00163219
0.00127057
0.00123276
0.00131351
0.00133277
0.00127486
0.0012329
0.00131326
0.0013312
0.00141614
0.00140057
0.00139447
0.00137586
0.00141782
0.00140034
0.0013938
0.00137561
0.00114392
0.00119712
0.00114307
0.00118708
0.00114376
0.00120161
0.00114308
0.00118915
0.00127333
0.00129979
0.00130753
0.00135974
0.00144439
0.00144243
0.00137446
0.00137193
0.00131626
0.00131437
0.00136807
0.00117454
0.00117345
0.00134069
0.00136425
0.00117372
0.0011726
0.00133683
0.00117627
0.0014008
0.00118034
0.00139482
0.00117612
0.00140057
0.00118007
0.00139548
0.00117423
0.00138368
0.00117005
0.00138978
0.00117405
0.00138401
0.00116965
0.00139062
0.00136935
0.00116184
0.0013694
0.00116134
0.00125454
0.00136522
0.00138063
0.00139666
0.00525804
0.00252435
0.00237836
0.00318258
0.00201887
0.00166361
0.00077667
0.000776439
0.000576197
0.0005743
0.00141828
0.00141824
0.00116189
0.00116111
0.00137278
0.00133917
0.00142631
0.00141997
0.0013766
0.00133934
0.00142906
0.00141999
0.00145614
0.00145387
0.00145917
0.00146726
0.00145618
0.00145574
0.00145908
0.00146778
0.00122906
0.00116454
0.00123143
0.00128231
0.00123034
0.0011646
0.00123122
0.00127977
0.00133414
0.00128032
0.00133262
0.00127789
0.0013369
0.00128012
0.0013333
0.00127772
0.00124126
0.00128153
0.00132452
0.00141852
0.00151907
0.00151767
0.00149127
0.00148932
0.00143936
0.00143669
0.00148251
0.00126326
0.00147785
0.00127902
0.00147587
0.0012616
0.0014709
0.00127714
0.00146849
0.00124905
0.0014571
0.00123621
0.00140784
0.00119463
0.00146466
0.00124761
0.00145544
0.00123533
0.00140614
0.00119423
0.00141098
0.00118649
0.00140978
0.00118618
0.00120405
0.00143099
0.00121256
0.00142109
0.00120371
0.00143109
0.00121203
0.00142203
0.00123351
0.00135663
0.00078687
0.00347724
0.0025171
0.00207965
0.00148006
0.0012304
0.000566158
0.000330719
0.000330728
0.000263107
0.000262274
0.00127892
0.00136188
0.00125696
0.00119898
0.00119106
0.00132902
0.00136381
0.0012795
0.00132886
0.00125688
0.0011999
0.00119092
0.000701672
0.000864027
0.000821462
0.000915482
0.000714308
0.000863293
0.000829197
0.000915542
0.0013262
0.00126368
0.00136488
0.00131648
0.00132918
0.00126371
0.00136653
0.00131642
0.00133688
0.00138767
0.00133683
0.00138842
0.00121687
0.00128168
0.00121671
0.00128013
0.00131368
0.0012461
0.0013165
0.0012459
0.00118782
0.00124371
0.00128935
0.00136986
0.00155265
0.00155187
0.00158096
0.00158016
0.0014312
0.00142891
0.00142777
0.0014261
0.00134346
0.00150805
0.00132875
0.00153525
0.00130914
0.00151943
0.00134295
0.00150403
0.00132743
0.00153314
0.00130855
0.00151691
0.00150333
0.00129991
0.00150135
0.00129928
0.00148505
0.00129316
0.00147496
0.00144801
0.00129048
0.00122581
0.00148455
0.00129254
0.00147564
0.00144706
0.00129008
0.00122506
0.00143797
0.00122202
0.00143736
0.00122143
0.00128232
0.000516016
0.000949657
0.00237515
0.00132825
0.0010025
0.000837783
0.0003659
0.00036611
0.00055437
0.000554783
0.000253509
0.000253779
0.0002884
0.000288532
0.00131134
0.00118077
0.00114935
0.00125953
0.0010289
0.0010197
0.00131277
0.00118228
0.0012593
0.00114915
0.00103226
0.00101954
0.000422148
0.000585723
0.000595351
0.000688646
0.00043652
0.000587893
0.00060816
0.000690164
0.00135366
0.0012914
0.00135484
0.00129126
0.00114549
0.00117654
0.00124373
0.00130049
0.0013998
0.00147935
0.00147774
0.00148022
0.00147861
0.00141622
0.00127261
0.00144692
0.00127979
0.00140814
0.00127037
0.00144053
0.00127843
0.00147991
0.00151641
0.00132202
0.00145582
0.00129626
0.00134603
0.00147927
0.00151464
0.00132146
0.00145223
0.00129513
0.00134545
0.00139219
0.00136148
0.00154586
0.00154453
0.0013917
0.00136091
0.00154399
0.00154244
0.001552
0.00138251
0.00155072
0.00138191
0.00152814
0.0013672
0.00146908
0.00127913
0.00152872
0.00136658
0.00146927
0.0012787
0.000437108
0.00094321
0.00173618
0.00124228
0.00102503
0.000735824
0.000470966
0.000470953
0.000473421
0.000473504
0.000355067
0.000260763
0.000309711
0.000326132
0.000355211
0.000250773
0.000310486
0.000317047
0.000431951
0.000432499
0.000304324
0.000364901
0.000477255
0.000521765
0.000309046
0.000370132
0.000490028
0.000525472
0.000411298
0.00108404
0.00118047
0.00123736
0.00129626
0.00136044
0.00135953
0.00138109
0.00137941
0.00132895
0.00132671
0.00135313
0.00134992
0.00142592
0.00126182
0.00143487
0.00127736
0.00142375
0.0012612
0.00143402
0.00127704
0.00150951
0.00147276
0.00136264
0.00133642
0.00144887
0.00130795
0.00150932
0.00147382
0.00133621
0.00136211
0.00144918
0.0013077
0.00142701
0.0015716
0.00142645
0.00156959
0.00177665
0.00132294
0.00130961
0.000943166
0.000518302
0.000518382
0.000518874
0.000518779
0.000411417
0.000411716
0.000477467
0.000477393
0.000375007
0.000294863
0.000330709
0.000358106
0.000375121
0.000281831
0.000331151
0.000346963
0.000387279
0.000395144
0.000392258
0.000378283
0.000388722
0.000395329
0.000392819
0.000378331
0.000299066
0.000341254
0.000293392
0.000343626
0.00040852
0.00106663
0.00117424
0.0012283
0.0012516
0.00131009
0.00130859
0.00130457
0.00130273
0.00126395
0.00126121
0.00121878
0.00139483
0.00124166
0.00132702
0.00121851
0.00139012
0.00124105
0.00132392
0.001417
0.00126694
0.00143769
0.00130251
0.00141361
0.00126637
0.00143606
0.00130222
0.001118
0.00112172
0.00113925
0.000736137
0.00059624
0.000595986
0.000617285
0.000616874
0.000348558
0.000387077
0.000509216
0.000433232
0.000463307
0.000456779
0.000350168
0.000387329
0.000509642
0.000434492
0.000463607
0.000457995
0.000562799
0.000562445
0.000357701
0.000329582
0.000345097
0.00036886
0.000357543
0.000322885
0.000345082
0.000365063
0.000367629
0.000371631
0.000368878
0.000371847
0.000424591
0.0010699
0.00116335
0.001207
0.00122506
0.00122435
0.00124306
0.00124181
0.00118796
0.00118643
0.0012107
0.0012079
0.00126556
0.00118045
0.00132376
0.00120067
0.00134466
0.00121853
0.00125682
0.00117762
0.00131932
0.0011997
0.00134062
0.00121793
0.00138351
0.00124706
0.00137943
0.00124646
0.00141605
0.0012868
0.0014127
0.00128636
0.000950077
0.00115418
0.000949243
0.000596208
0.00059625
0.000613518
0.000613539
0.000628217
0.000627937
0.000628569
0.000628019
0.000395853
0.000432745
0.000539998
0.000489652
0.000509259
0.000514018
0.000396866
0.000432996
0.000539992
0.000489807
0.000509275
0.000514375
0.000582521
0.000606893
0.00054361
0.000566529
0.000582894
0.000606915
0.000543923
0.000566706
0.00046638
0.00105758
0.00114703
0.00119913
0.00121644
0.00121489
0.00121011
0.00120872
0.00117148
0.00116958
0.00127781
0.00118329
0.00114101
0.00124897
0.00116557
0.00117358
0.00114115
0.00124682
0.0011649
0.00117394
0.00127632
0.00118273
0.00132067
0.00134874
0.00122203
0.00123803
0.0013196
0.00134476
0.00122167
0.00123735
0.00138105
0.00126901
0.00137672
0.00126848
0.0009937
0.00116792
0.00068389
0.000643403
0.000643185
0.000656385
0.000656282
0.000611727
0.000617039
0.000676675
0.000662099
0.000677992
0.000661591
0.000614795
0.000617915
0.000677964
0.000664859
0.000678925
0.000664325
0.000658059
0.000657684
0.000540762
0.00051661
0.000541092
0.000517373
0.000579183
0.000586009
0.000582084
0.000586761
0.00052046
0.00103524
0.00112719
0.00124649
0.00124528
0.00121711
0.00121506
0.00111423
0.00111155
0.00112629
0.00112263
0.00116895
0.00111725
0.00123373
0.00113735
0.00123652
0.00115535
0.00115909
0.00123351
0.00115489
0.00111396
0.00122819
0.00113655
0.00127713
0.00119775
0.00125339
0.00119196
0.0012514
0.00127651
0.00119167
0.00119734
0.000985343
0.000991979
0.000561526
0.00057258
0.000572106
0.000607707
0.000607153
0.000684865
0.000660825
0.000674585
0.000702606
0.000671628
0.000690816
0.000687057
0.000661343
0.000675995
0.000707185
0.000672921
0.000694818
0.000551361
0.000608861
0.000539705
0.000601797
0.000547579
0.000606364
0.000535985
0.000600868
0.000658383
0.000637476
0.000660638
0.000637974
0.000569944
0.00100123
0.00110052
0.00120266
0.00120121
0.00113884
0.00113679
0.00107665
0.00107298
0.00119107
0.00109822
0.00105963
0.00115846
0.00106769
0.00107427
0.00118823
0.00109717
0.00105863
0.00115425
0.0010666
0.00107021
0.00122087
0.0012414
0.00113601
0.00117777
0.00123738
0.00117746
0.00121936
0.00113566
0.00185484
0.00057591
0.000517644
0.00056936
0.000568443
0.000517636
0.000649677
0.000649625
0.000558753
0.000534668
0.000578869
0.000557174
0.000534172
0.000578515
0.000703494
0.000663701
0.000565791
0.000591986
0.000573428
0.000548669
0.000707424
0.000664617
0.000565754
0.000592873
0.000574118
0.000546453
0.00053024
0.000541004
0.000529334
0.00054086
0.000645372
0.000949613
0.000998022
0.00111385
0.00111157
0.00107074
0.00106726
0.00104415
0.00104437
0.00111514
0.00103217
0.00112484
0.0010466
0.00103459
0.00111799
0.00104498
0.00104045
0.00110975
0.001031
0.00118504
0.00109472
0.00114975
0.00106674
0.00118347
0.0010939
0.00114651
0.00106583
0.00121824
0.00114525
0.00121901
0.00114499
0.0013033
0.00044263
0.000538331
0.000540017
0.000536545
0.000538276
0.000610398
0.000609613
0.000542145
0.000538673
0.000541839
0.00052827
0.000561205
0.000577095
0.000546584
0.000613607
0.000534005
0.000535921
0.000539882
0.00052574
0.000559714
0.000575133
0.000544454
0.000610871
0.000526446
0.000542823
0.00052673
0.000543217
0.000530177
0.000530933
0.000526967
0.00052996
0.00072513
0.000857612
0.00090445
0.00108062
0.00107814
0.000902641
0.000994695
0.000992262
0.00106163
0.00105574
0.00102378
0.00105879
0.00105228
0.00102214
0.00112201
0.00109248
0.00104937
0.00103231
0.00111681
0.00104832
0.00109278
0.00103175
0.0011796
0.00110548
0.00115076
0.00109414
0.00117994
0.00110486
0.00114787
0.00109342
0.00067557
0.000409674
0.000553389
0.000590641
0.000568042
0.000480695
0.000549843
0.00059077
0.000566418
0.000478174
0.000500292
0.000500264
0.000523359
0.000600333
0.000541655
0.000531276
0.000532791
0.000565062
0.000517543
0.000536671
0.000596533
0.000529657
0.000531447
0.000564422
0.00051836
0.00052493
0.000517834
0.000522194
0.000808261
0.000772229
0.000888204
0.000982024
0.000978876
0.000884461
0.000937997
0.00093428
0.00106763
0.00108014
0.00104931
0.00106936
0.00103594
0.00101749
0.000985181
0.00102506
0.00106435
0.00107967
0.00104828
0.00106682
0.00103442
0.00101682
0.000976466
0.00102119
0.00111792
0.0010976
0.00107869
0.00106056
0.00111786
0.00107828
0.00109943
0.00106013
0.00046065
0.000336839
0.000444457
0.000443795
0.000341983
0.00046646
0.000465921
0.000526567
0.000579644
0.000582575
0.000546221
0.000588346
0.000616266
0.0004963
0.000532756
0.000452835
0.000481103
0.000558397
0.000524019
0.00057766
0.00057428
0.000543402
0.000583096
0.000607557
0.0004853
0.000528799
0.000447412
0.000480825
0.000551897
0.000584837
0.000611416
0.000552174
0.000567824
0.000583177
0.000605298
0.000551772
0.000566136
0.000951525
0.000638094
0.000765956
0.000970278
0.000986756
0.00099366
0.000966912
0.000986729
0.000992814
0.000758686
0.000823665
0.000814864
0.00106737
0.00103679
0.00110543
0.00105162
0.00109868
0.000999948
0.00107115
0.00103712
0.00110941
0.00109851
0.00105128
0.000999684
0.00111875
0.00110397
0.0011207
0.00110371
0.000207838
0.000367781
0.000299846
0.000365386
0.000301806
0.000382984
0.000381661
0.00060702
0.000505626
0.000512929
0.000558179
0.000479588
0.000492235
0.000235319
0.000364279
0.00048693
0.000414526
0.000526561
0.000405622
0.000308595
0.000551049
0.000598385
0.000497277
0.000555608
0.000511612
0.000474779
0.00049006
0.000364132
0.000246042
0.000485739
0.000415671
0.000522316
0.000393122
0.000304937
0.000540934
0.00097255
0.000298232
0.000731528
0.000725011
0.000330612
0.000501797
0.000496437
0.000861712
0.000984793
0.00101404
0.00097741
0.000995976
0.000989074
0.000989346
0.000941729
0.000847156
0.000984195
0.00100955
0.000976119
0.000994287
0.000982305
0.000980053
0.000940601
0.000800452
0.000854789
0.000908903
0.000794233
0.000843801
0.000903679
0.00105398
0.00103173
0.00106341
0.00100597
0.00106026
0.00103121
0.00106299
0.00100568
0.000166835
0.000352421
0.000485566
0.000286752
0.00019629
0.000348319
0.000491033
0.000286302
0.000192992
0.000223899
0.000221892
0.000477796
0.000532599
0.000424939
0.000507296
0.000314827
0.000262019
0.000389017
0.000508077
0.000425622
0.00032787
0.000474049
0.000534063
0.000426296
0.000508345
0.000320029
0.00039084
0.000267731
0.000509686
0.000428371
0.000329588
0.00128232
0.000409038
0.000559019