/*--------------------------------*- C++ -*----------------------------------*\
| =========                 |                                                 |
| \\      /  F ield         | OpenFOAM: The Open Source CFD Toolbox           |
|  \\    /   O peration     | Version:  5.x                                   |
|   \\  /    A nd           | Web:      www.OpenFOAM.org                      |
|    \\/     M anipulation  |                                                 |
\*---------------------------------------------------------------------------*/
FoamFile
{
    version     2.0;
    format      ascii;
    class       volScalarField;
    location    "2.8";
    object      omega;
}
// * * * * * * * * * * * * * * * * * * * * * * * * * * * * * * * * * * * * * //

dimensions      [0 0 -1 0 0 0 0];

internalField   nonuniform List<scalar> 
12160
(
0.0719999
0.0719999
0.00195382
0.0719999
0.004256
0.00117939
0.0719999
0.00754176
0.00152712
0.00114463
0.0719999
0.0126399
0.00209222
0.00136446
0.00116664
0.0719999
0.0163948
0.003301
0.00154806
0.00137508
0.0012674
0.0719999
0.0181927
0.00439399
0.001961
0.00150518
0.00161439
0.00131512
0.0719999
0.0181272
0.00497342
0.00227759
0.00176849
0.00171776
0.00203403
0.00308005
0.0719999
0.0179493
0.00494694
0.00246278
0.00191511
0.00185255
0.00224353
0.00522381
0.0142779
0.0719999
0.0177605
0.00487577
0.0024707
0.00202075
0.00187883
0.00236136
0.00505821
0.0139358
0.0146302
0.0719999
0.0175501
0.00482218
0.00247379
0.00206677
0.00195797
0.00223786
0.00396185
0.0137838
0.0142999
0.02163
0.0719999
0.017221
0.00476014
0.00249186
0.00211234
0.00203711
0.00221819
0.00314913
0.0119605
0.0143972
0.027557
0.0288035
0.0719999
0.0169633
0.00464764
0.00249547
0.00215303
0.00212246
0.00227842
0.00284015
0.010294
0.0147657
0.0341919
0.0326937
0.0225854
0.0719999
0.0168656
0.00454363
0.00247267
0.00217383
0.00219904
0.00240786
0.00315492
0.00867595
0.0146088
0.0334427
0.0316492
0.0158364
0.0194218
0.0719999
0.0169047
0.00448246
0.00244722
0.00217795
0.00225402
0.00252674
0.00369491
0.0076481
0.0136771
0.0256528
0.0271724
0.0236804
0.0129048
0.0140377
0.0719999
0.0170287
0.00446261
0.00243905
0.00217802
0.00228094
0.00259717
0.00416655
0.00692527
0.0127637
0.0205291
0.0275437
0.0158672
0.0147538
0.00468791
0.0719999
0.0171782
0.00447919
0.0024526
0.00218045
0.0022917
0.00262957
0.00447929
0.00658773
0.0117811
0.0181827
0.0289956
0.0138986
0.00889739
0.00948908
0.0719999
0.0171941
0.00451102
0.00248123
0.00218592
0.00230521
0.00267161
0.00463993
0.00656796
0.0108376
0.0167612
0.0300754
0.0123046
0.00659913
0.00589951
0.0719999
0.0172934
0.00450987
0.00251052
0.00220412
0.00233095
0.00274174
0.00469598
0.00679405
0.0101089
0.0155721
0.0298963
0.011408
0.00535097
0.00352815
0.0719999
0.0179026
0.00454368
0.00253978
0.00223717
0.00236974
0.00281695
0.00477472
0.00704601
0.00965837
0.0144212
0.0294375
0.0123666
0.00438486
0.00258472
0.0719999
0.0190469
0.0047392
0.00259601
0.00229036
0.00242205
0.00287813
0.00489102
0.00721976
0.00941798
0.0135479
0.028308
0.0110372
0.0042952
0.00217209
0.0719999
0.020358
0.00509593
0.00271503
0.00236938
0.00248403
0.00293715
0.00492779
0.00735147
0.00939036
0.013531
0.0278173
0.0125245
0.00409914
0.00227215
0.0719999
0.0215808
0.00550536
0.00290193
0.00249319
0.00257315
0.00300906
0.00491329
0.00742457
0.00938322
0.0136182
0.024506
0.0158637
0.00450417
0.00240031
0.0719999
0.0225092
0.00589063
0.00312089
0.00266062
0.00271628
0.00314486
0.0048739
0.00740244
0.0092791
0.0133504
0.020688
0.0186465
0.0074713
0.00265942
0.0719999
0.0229771
0.0061873
0.00333664
0.00286128
0.00293473
0.00335097
0.004867
0.00731666
0.00913001
0.0130378
0.0190406
0.0193999
0.0104523
0.0028935
0.0719999
0.0229786
0.00633571
0.00351053
0.00306422
0.00318711
0.00361763
0.00492397
0.00719753
0.00902091
0.0128508
0.018531
0.0188177
0.0109533
0.00411114
0.0719999
0.0225605
0.0063343
0.00360642
0.00322546
0.00340475
0.00387458
0.00507739
0.00703475
0.00896471
0.0127745
0.0185675
0.0183449
0.0113556
0.00503715
0.0719999
0.0217594
0.0061942
0.00362544
0.00331502
0.0035385
0.00404327
0.00521736
0.00696801
0.00897693
0.012628
0.0187604
0.0180968
0.0115897
0.00529675
0.0719999
0.0206553
0.0059338
0.00357115
0.00334774
0.00357785
0.00407128
0.00519567
0.00681463
0.00890254
0.0124609
0.0183214
0.0184736
0.0115404
0.00536038
0.0719999
0.0193425
0.00558302
0.00345126
0.00332591
0.00360181
0.00400611
0.00500419
0.00650008
0.00851681
0.0120286
0.0173825
0.0189435
0.0118774
0.00507305
0.0719999
0.0179172
0.0051758
0.00328255
0.00324525
0.00362172
0.00404228
0.00475927
0.00602632
0.00787077
0.0112785
0.0163109
0.0186999
0.0126553
0.00506749
0.0719999
0.0164669
0.00474419
0.00308592
0.00311327
0.00359611
0.00416121
0.00475914
0.005606
0.00697783
0.0103429
0.0151791
0.0167807
0.0126494
0.00601865
0.0719999
0.015086
0.00431807
0.00287958
0.00295198
0.00351476
0.00425996
0.00501198
0.00561334
0.00624694
0.00910349
0.0135521
0.0144396
0.011
0.00627407
0.0719999
0.0138807
0.00392869
0.00267996
0.00278385
0.00337232
0.00426066
0.00532161
0.00604288
0.00631341
0.00828548
0.0108836
0.0113484
0.00913928
0.00464401
0.0719999
0.0132328
0.00360789
0.00250301
0.00262705
0.00318384
0.00417121
0.00553454
0.00662224
0.00714585
0.00891944
0.0087597
0.00694088
0.00680661
0.00351876
0.0719999
0.013391
0.00342563
0.0023633
0.00249343
0.00299111
0.00402806
0.00564531
0.00718415
0.0082342
0.010697
0.0113582
0.00387923
0.00401228
0.00252348
0.0719999
0.0142245
0.00348267
0.00228721
0.00238891
0.00282191
0.00384772
0.00567202
0.00772832
0.00927855
0.0124821
0.0155474
0.00481442
0.0023015
0.0017241
0.0719999
0.0154755
0.00374427
0.00229716
0.00232248
0.00269791
0.0036466
0.00563022
0.00825984
0.0103402
0.0140718
0.018428
0.00820678
0.0023213
0.00127698
0.0719999
0.0168666
0.00415141
0.00238083
0.00231615
0.00264434
0.00343128
0.00555096
0.00871442
0.0113979
0.0156957
0.0206602
0.010333
0.00352533
0.00126346
0.0719999
0.0183175
0.00464057
0.00252517
0.00236735
0.00264764
0.00320119
0.00552498
0.00900193
0.0121108
0.0175991
0.0232741
0.0113954
0.00531762
0.00153124
0.0195248
0.0719999
0.00518269
0.00271407
0.00246144
0.00268997
0.00311121
0.00553902
0.00918758
0.0121388
0.0190967
0.0274902
0.012445
0.00748457
0.00175974
0.00567945
0.021454
0.0719999
0.00293879
0.00258633
0.00277181
0.00318718
0.00562456
0.00927777
0.0118919
0.019061
0.0321888
0.0134922
0.00926682
0.00201852
0.00316581
0.00651886
0.0222606
0.0719999
0.00273645
0.00289189
0.00334945
0.0057057
0.00900171
0.0116849
0.0177955
0.0348076
0.0152216
0.0102008
0.00277156
0.00288991
0.00358378
0.00695628
0.0224506
0.0719999
0.00305146
0.00355556
0.00576371
0.00865808
0.0115324
0.0162506
0.0341216
0.0173658
0.0103646
0.00353163
0.00323133
0.00317707
0.00388986
0.00725441
0.0224335
0.0719999
0.00378977
0.00582382
0.00838623
0.0113564
0.0152888
0.0311476
0.0189245
0.0101586
0.00358051
0.00402358
0.00355552
0.00343494
0.00424093
0.00748348
0.0313701
0.0719999
0.0059002
0.00820716
0.0111507
0.0149929
0.028379
0.0202959
0.0105346
0.00334236
0.00599501
0.00443998
0.00384231
0.00374156
0.00485598
0.0126081
0.053421
0.0719999
0.00810973
0.0109296
0.0151902
0.0262988
0.0226707
0.0123334
0.00363818
0.00806348
0.00609612
0.0048112
0.00414224
0.00428343
0.00845179
0.020827
0.0794685
0.138322
0.0107359
0.0155953
0.0249054
0.0233764
0.0135945
0.00467718
0.010583
0.0080429
0.00618177
0.00517345
0.00457362
0.00667665
0.0232501
0.0865698
0.185547
0.0719999
0.0159698
0.0240599
0.0232886
0.0150875
0.00752573
0.0164582
0.0120469
0.0132593
0.011887
0.00657623
0.0127168
0.0772078
0.307972
0.464473
0.199698
2.36314
0.0238979
0.0262378
0.0159318
0.00907063
0.13664
0.297527
0.447714
0.413739
0.189384
0.0842215
0.306415
1.00591
1.29821
0.349923
7.40372
31.6846
0.0703362
0.0195884
0.00988224
0.41972
1.72474
2.9447
3.20804
2.06308
0.833504
1.03164
2.49859
3.13527
1.55286
5.11892
30.871
30.5008
30.2721
0.0698801
0.0114332
0.414414
2.01746
5.94812
7.72848
6.60376
4.04905
2.52713
4.48171
5.5808
4.06268
4.30065
27.7201
29.7366
30.2333
31.3516
31.0449
0.0339365
0.226019
1.84441
6.12277
9.74931
9.91148
8.21836
5.40529
6.12524
7.71037
6.78484
3.60878
22.1931
28.1008
28.4842
30.2301
32.32
32.9691
31.5189
1.2135
5.82391
9.18494
11.5918
10.5402
8.66133
7.07338
9.84701
9.48571
6.93374
15.5959
25.088
26.6327
27.8653
29.576
33.0428
34.6642
34.8616
31.7718
4.57198
8.58548
10.2204
11.8301
10.3877
8.891
10.7102
11.4235
11.3208
13.7733
21.0093
24.218
25.7491
27.0555
28.2718
32.6153
36.1117
37.1458
36.8604
31.906
7.50665
9.23504
10.2687
11.0735
10.2311
10.0773
13.6187
12.9124
14.7051
18.1581
21.4101
23.531
24.9094
25.8959
50.7663
30.8258
36.0764
39.1904
39.5165
38.7127
31.9132
9.55852
9.81968
10.016
10.4558
10.4452
13.3902
13.628
15.528
17.7228
19.0794
21.1954
22.8242
23.9151
29.7144
369.69
50.1377
369.802
359.065
359.194
33.5262
39.6106
41.8776
41.5937
40.4618
31.7427
9.0582
9.24174
9.5076
10.2527
11.9212
16.5109
14.6539
18.23
17.9281
19.1697
20.7533
22.0715
24.1833
69.7092
364.327
504.514
31.3376
364.44
360.861
360.959
504.659
473.961
474.179
36.6683
42.9794
44.5707
43.7153
42.2894
31.454
8.0282
8.55224
9.37467
10.9706
14.8454
14.3805
17.066
18.0934
17.8031
18.9776
20.184
21.3958
43.488
350.545
350.562
339.809
339.842
500.258
550.578
32.347
118.104
500.396
494.431
494.55
550.458
520.598
520.441
40.0465
46.4479
47.8096
46.7177
44.6942
31.1416
7.67599
8.40135
10.0656
12.6268
15.0999
15.8263
18.1417
17.5713
17.6168
18.5746
19.3356
41.8255
319.05
319.073
318.924
319.059
480.503
480.582
464.856
464.809
555.335
528.314
872.486
530.942
871.15
34.3907
63.7788
398.233
398.302
437.151
437.131
555.23
556.988
556.868
528.123
873.481
531.043
870.692
511.969
782.048
494.176
842.287
512.368
784.307
494.736
843.577
44.1752
50.6111
51.5499
50.5033
46.9687
30.8714
7.07459
8.92823
11.029
13.29
14.5522
17.7173
18.0647
17.105
17.4364
17.7349
42.715
313.126
313.225
315.968
316.199
447.486
447.404
445.644
445.518
812.442
846.441
487.973
793.719
481.425
502.228
848.312
812.992
488.116
793.998
481.527
502.985
764.886
465.759
777.278
472.035
765.812
466.129
777.696
472.199
535.892
876.802
532.872
883.054
545.777
967.736
549.639
962.548
37.6493
54.616
354.484
354.556
374.77
374.835
533.965
533.918
585.136
585.256
536.032
878.51
533.266
883.701
540.577
881.128
538.78
894.427
540.373
882.298
538.913
893.989
545.891
968.743
549.94
962.785
529.648
929.891
530.445
931.613
50.2406
55.6431
54.4411
52.5532
47.2926
30.3116
6.91534
9.27296
10.8411
16.9712
19.5759
17.9343
16.9921
16.8383
16.547
42.6722
326.857
327.012
327.346
327.495
437.879
437.76
444.053
443.98
748.287
454.687
746.885
453.16
750.326
455.456
750.199
454.289
732.495
446.582
741.427
450.27
735.404
447.562
744.383
451.306
897.871
863.048
497.195
512.809
863.612
495.285
898.922
863.647
513.337
497.399
864.005
495.49
835.159
480.01
852.795
488.634
836.931
480.789
853.54
489.007
552.582
966.515
549.721
972.584
550.466
991.01
557.503
977.018
48.1729
54.2148
334.809
334.903
349.005
349.081
505.737
505.506
518.39
518.251
908.239
537.856
902.972
539.952
908.912
538.089
903.672
540.198
927.185
978.093
560.563
907.624
553.822
558.692
927.952
978.977
560.855
908.502
554.136
559.013
553.085
968.379
550.41
973.837
559.321
987.167
559.37
987.28
550.547
990.847
557.553
976.713
533.968
943.805
534.751
945.356
60.1617
60.8136
55.5797
51.9693
45.5791
29.1914
7.01926
8.39026
19.0778
24.0047
22.5526
17.5643
16.6788
16.119
19.1664
329.203
329.319
320.966
321.103
446.291
446.236
453.585
453.67
721.629
441.193
723.843
442.502
724.069
442.053
726.74
443.431
712.699
449.204
730.875
447.432
715.155
449.891
733.457
448.305
819.997
471.05
819.24
469.635
822.753
472.326
822.687
471.253
810.993
464.536
816.014
467.441
814.903
466.288
819.072
468.997
560.785
991.825
558.577
994.628
69.4245
72.785
340.671
340.779
346.355
346.441
491.149
490.858
497.494
497.225
894.288
525.468
902.667
529.336
895.125
525.661
903.369
529.485
914.168
536.095
912.408
534.855
914.534
536.233
913.275
535.036
996.679
562.497
987.03
560.235
997.646
562.872
987.732
560.59
1014.1
965.26
561.571
570.739
977.887
561.032
1014.54
966.281
561.951
570.959
978.827
561.459
561.153
992.822
559.051
995.19
567.394
1008.86
567.407
1008.75
70.2055
63.9719
54.5623
50.0788
42.3669
27.7032
5.36813
14.3377
29.2475
28.4277
24.6516
20.3439
16.8928
16.036
61.5487
459.81
459.911
448.981
449.226
494.942
494.916
500.304
500.294
804.902
461.558
811.775
464.919
808.312
463.126
814.851
466.356
787.924
467.275
818.194
469.131
790.492
468.285
821.044
470.473
821.413
468.162
825.447
469.986
84.6651
104.348
347.337
347.516
366.137
366.201
483.875
483.87
487.622
487.422
876.151
513.136
901.035
521.053
876.237
513.017
901.069
520.962
897.217
523.507
893.985
521.157
897.549
523.594
894.506
521.222
994.779
560.327
999.205
562.24
995.544
560.612
999.427
562.399
1000.37
563.669
1001.07
563.68
1001.03
563.942
1001.72
563.945
76.4132
63.1889
51.8909
47.3477
37.781
25.8976
7.96766
24.818
28.2778
31.2719
32.1049
23.3181
19.8786
18.9324
352.821
353.009
325.466
325.578
507.036
506.816
491.878
492.105
473.735
758.257
469.611
768.744
473.637
758.1
469.607
768.491
478.008
776.36
479.311
775.729
478.161
778.881
480.079
776.093
822.187
468.292
830.417
472.344
825.323
469.899
832.97
473.734
821.64
472.934
833.384
474.923
824.09
473.985
835.771
476.212
94.4614
114.219
256.761
487.412
487.464
484.564
484.549
563.684
563.603
613.515
613.321
976.507
553.657
996.078
559.69
976.719
553.692
996.242
559.768
995.831
560.14
994.096
559.443
996.403
560.397
994.535
559.637
1016.99
569.573
1018.55
570.05
75.8167
59.1906
48.2898
43.2221
32.2017
27.708
17.7316
28.6574
28.0734
33.8387
33.3482
30.1245
25.7378
58.6615
484.296
484.127
432.32
432.203
788.583
486.465
490.386
776.205
790.341
486.969
490.193
776.037
534.139
534.045
481.729
816.755
474.517
837.515
481.579
816.738
474.502
836.858
486.67
857.524
491.777
848.279
487.111
860.601
493.133
848.995
827.651
474.52
829.936
475.37
93.3147
123.711
191.546
549.006
549.025
569.003
568.951
558.655
558.552
565.115
564.254
578.656
1023.06
579.464
1019.11
578.406
1023.18
579.178
1018.6
579.765
1018.17
581.239
1011.78
579.594
1017.89
581.243
1011.33
1035.87
581.096
1038.53
581.542
1036.48
581.322
1038.74
581.73
1029.33
575.493
1033.2
578.856
1030.48
575.959
1034.03
579.227
70.1384
53.5931
43.9275
37.0007
30.7983
27.9111
25.7464
28.1952
34.3453
35.0398
37.3809
41.9279
322.019
321.933
272.842
272.888
811.519
492.895
777.747
486.294
812.931
493.396
779.809
486.778
500.882
500.82
877.113
502.049
504.749
856.411
879.266
502.928
504.54
856.213
831.477
509.758
834.419
511.425
833.322
510.245
834.576
511.423
490.914
878.419
498.622
862.186
491.694
881.459
499.962
864.13
84.1577
119.116
178.697
347.59
646.544
645.878
661.846
660.602
696.963
696.153
1039.97
585.209
580.486
1015.69
1039.33
584.512
579.273
1013.84
605.898
1087.29
609.84
1081
606.271
1087.86
610.057
1081.79
603.029
1066.95
598.458
1075.16
603.463
1068.23
598.983
1075.96
1055.18
591.454
1056.98
591.988
62.8665
46.6845
39.1561
31.5271
28.0376
19.6005
26.4955
34.2271
38.2105
45.7687
131.496
131.516
100.883
100.985
412.797
412.649
309.501
309.206
910.995
519.097
864.367
507.211
912.727
519.984
865.857
507.837
496.525
750.681
469.784
817.945
496.663
752.424
470.136
818.315
901.195
510.221
515.118
902.702
901.727
510.634
514.631
901.555
919.495
524.65
910.761
521.87
921.65
525.585
911.299
522.133
74.1933
103.421
157.893
297.82
669.236
669.159
703.331
702.963
766.216
765.588
1137.01
643.707
1116.88
641.623
1135.08
642.405
1115.38
639.954
1130.08
638.939
1126.17
634.647
1080.19
612.917
1131.12
638.788
1127.13
634.861
1079.59
612.535
1094.95
614.468
1094.67
614.343
616.41
1107.71
621.156
1099.62
617.076
1109.41
621.774
1101.19
53.9107
39.9471
31.4954
15.3393
17.0319
25.972
31.2206
43.9922
54.2681
127.195
127.138
103.43
103.476
670.764
809.825
408.241
623.283
378.291
473.032
811.258
671.212
473.559
408.357
624.017
378.45
363.394
237.548
441.234
273.997
367.52
238.468
443.039
274.568
940.779
530.999
923.068
524.191
942.494
531.922
924.145
524.756
508.006
890.863
508.271
891.304
519.845
916.915
519.541
916.282
937.219
530.112
939.694
531.161
63.421
88.4089
130.075
225.614
638.506
638.577
667.558
667.492
703.702
702.84
756.653
756.33
658.841
1130.06
650.575
1164.14
656.301
1156.72
658.483
1130.73
650.071
1163.71
655.775
1155.99
1157.39
651.437
1157.24
651.289
1142.37
643.323
1128.7
1123.15
635.393
630.479
1143.63
643.751
1129.82
1124.5
635.967
630.889
1113.96
625.224
1115.09
625.641
43.4489
31.2784
6.58814
16.4009
20.9688
25.2539
37.8731
121.978
122.118
134.001
133.933
118.871
119.083
115.472
115.568
810.521
689.563
397.18
462.656
624.299
356.802
812.035
690.464
463.196
397.596
625.813
357.609
271.222
174.352
401.258
237.727
277.64
177.005
405.917
239.97
930.44
525.317
931.372
525.822
49.9398
74.1909
106.89
167.904
355.668
640.189
640.069
676.772
676.173
1060.75
617.951
1099.03
628.183
1059.17
616.218
1097.31
627.103
1110.49
1134.18
631.724
1101.2
629.186
645.667
1111.57
1134.25
632.122
1101.86
629.07
645.586
645.045
656.426
1141.99
1166.12
644.907
656.232
1141.61
1165.89
1150.25
647.596
1150.97
647.807
1134.23
639.221
1121.51
630.103
1136.64
640.006
1122.73
630.618
31.3131
5.71541
14.5237
18.2612
25.7611
50.5948
165.105
165.059
132.978
132.918
134.824
198.948
123.614
204.032
134.911
195.832
123.417
202.224
163.853
163.984
230.503
134.957
327.403
185.503
232.211
136.817
333.129
188.574
31.6011
57.6713
87.6137
130.217
226.388
569.223
569.39
606.329
606.303
632.709
632.658
725.256
724.396
1083.59
619.944
1101.49
623.096
1083.78
619.667
1101.77
623.1
1118.29
1095.02
633.061
618.887
1095.66
619.383
1119.71
1096.35
619.52
633.59
1096.5
619.76
640.713
1132.35
640.675
1132.43
6.2961
12.509
16.491
28.561
157.401
157.316
128.987
129.049
163.7
163.671
174.305
174.259
142.343
221.29
130.766
225.087
142.13
216.79
130.22
221.966
227.968
148.334
249.747
147.958
228.874
148.532
250.401
148.139
233.629
135.739
231.965
136.113
32.1387
66.725
102.938
163.388
318.188
572.654
572.608
616.08
615.58
675.757
674.766
585.305
1062.99
606.789
997.288
583.857
1060.16
605.366
994.647
1082.85
612.914
1083.89
612.855
1082.29
612.359
1083.64
612.642
5.33885
8.85055
14.1824
55.4224
199.13
198.885
154.848
154.327
225.363
146.518
192.329
295.071
184.029
278.638
226.056
146.771
192.32
295.301
184.081
278.723
213.685
213.531
144.917
244.196
140.338
257.191
144.793
241.703
140.006
256.1
252.344
146.922
253.2
147.203
32.8348
76.6135
122.077
213.338
513.47
513.631
544.338
544.383
558.616
558.953
639.992
639.273
931.464
550.138
994.848
568.835
1015.08
584.14
930.11
548.456
994.052
568.314
1012.96
583.095
1053.42
596.347
1052.12
595.512
1062.92
601.107
1062.39
600.519
3.29186
8.49662
21.6973
201.993
201.877
157.813
157.785
247.176
246.986
233.424
233.223
282.823
171.668
206.592
332.269
201.847
311.59
283.223
171.759
206.516
332.16
201.761
311.557
344.189
236.046
369.03
233.265
344.985
236.199
369.221
233.447
33.5942
86.418
147.768
307.052
534.171
534.085
572.225
571.718
619.782
619.183
946.151
547.366
518.163
926.631
534.544
864.335
518.139
926.148
534.224
864.923
946.853
547.589
983.544
1015.89
559.089
576.867
983.655
1015.26
559.3
576.38
1033.36
585.378
1032.53
584.665
3.58231
12.871
56.8426
226.093
225.926
176.989
176.96
367.931
241.412
266.335
444.551
279.065
391.158
369.025
241.966
266.793
445.49
279.616
391.94
258.593
258.455
226.958
369.245
227.11
369.41
402.813
244.437
404.097
245.039
34.0901
97.7096
184.206
515.906
515.945
530.739
530.655
531.541
531.423
604.628
603.613
856.961
513.513
915.411
528.308
908.84
526.766
854.086
907.637
526.208
511.389
913.576
527.643
945.605
539.568
921.297
527.513
921.207
946.708
527.518
540.044
4.88528
33.1933
92.6191
226.455
226.229
193.881
193.759
488.518
287.384
268.945
484.129
289.338
408.46
489.474
287.674
269.43
485.855
289.972
409.649
346.884
247.711
407.208
264.758
346.016
246.366
405.235
263.499
476.661
279.948
477.654
280.3
34.3394
110.845
235.533
515.82
515.703
533.973
533.437
578.887
578.012
888.663
515.834
484.464
874.093
505.112
798.932
888.811
515.865
483.173
872.414
504.399
796.696
917.459
917.107
524.258
526.488
916.228
526.209
916.949
524.477
20.8508
35.3576
190.547
196.667
196.457
190.619
179.414
179.869
247.936
337.381
236.699
247.732
337.228
236.179
506.373
296.336
267.062
464.58
274.584
438.369
508.188
296.753
265.939
464.079
273.87
436.745
396.504
247.065
395.685
246.212
34.269
125.148
263.738
500.654
500.425
547.5
546.57
765.732
468.169
835.159
483.02
844.153
491.031
762.827
841.032
489.496
465.924
834.325
482.661
900.959
513.718
877.163
499.78
902.19
514.291
877.439
499.809
913.13
520.909
914.195
521.668
16.6493
37.2522
227.933
200.749
227.617
200.787
164.201
164.374
436.736
370.255
247.377
348.172
241.595
283.978
374.216
269.306
368.006
433.512
245.562
347.138
240.378
282.142
374.274
267.999
255.805
426.206
255.091
425.871
396.915
244.775
394.85
243.151
33.6487
137.04
380.139
507.08
506.569
380.189
447.731
447.588
567.402
784.712
465.864
567.007
785.072
465.771
855.616
829.928
487.623
475.151
855.064
487.356
831.321
476.001
892.188
507.453
865.732
493.413
894.551
508.406
866.896
493.743
6.90157
55.9443
253.748
259.268
380.689
196.375
253.203
258.625
379.563
196.677
154.428
154.597
438.398
458.305
401.112
249.095
271.229
277.581
434.657
398.273
455.719
247.075
268.945
275.995
246.897
407.488
245.324
405.411
32.5101
161.983
382.991
505.435
504.724
382.667
442.349
441.599
790.105
790.296
464.713
789.369
466.299
463.228
720.402
449.587
789.998
792.302
465.516
790.399
466.564
463.093
717.812
447.208
842.514
824.41
480.576
473.224
843.253
481.142
826.518
474.429
10.3432
118.48
144.808
144.518
118.451
109.479
109.24
371.37
262.495
406.488
261.648
395.63
273.377
414.979
275.623
198.479
347.192
249.543
373.664
260.704
402.001
258.852
393.001
270.933
410.126
273.1
198.741
349.805
247.239
464.407
455.242
280.431
275.409
463.102
451.676
278.854
273.326
31.3973
158.645
347.551
523.989
445.668
740.865
523.359
445.665
741.474
346.478
426.353
423.748
795.851
786.125
811.443
461.729
470.586
455.797
799.473
787.357
814.459
471.987
463.059
456.061
829.045
476.204
830.616
477.128
15.4249
147.788
99.8822
147.4
99.5917
77.7536
77.3197
446.824
424.301
264.251
273.466
394.481
250.142
250.83
306.058
221.09
326.763
239.778
205.617
264.779
236.447
442.164
418.146
270.789
261.162
392.274
248.192
307.459
255.797
219.876
329.805
237.837
202.378
265.325
234.99
27.9575
121.235
343.605
342.548
127.697
225.398
225.416
631.105
444.684
752.258
443.387
742.529
408.867
733.101
428.911
624.842
444.106
750.974
442.426
742.093
404.553
730.129
427.887
434.357
635.135
391.359
432.968
630.999
388.279
787.065
781.351
459.148
452.913
791.137
781.444
460.306
452.762
8.11536
135.96
208.481
246.032
72.2519
135.37
210.939
246.834
71.582
50.2425
49.7408
387.005
251.137
353.7
229.481
285.873
252.182
325.178
214.314
192.116
175.011
382.776
249.413
354.04
229.008
287.745
325.633
255.358
214.033
191.554
176.126
24.1827
173.778
292.531
290.456
174.434
217.044
217.177
777.255
756.137
449.543
434.543
713.258
411.899
776.849
754.537
449.183
433.963
712.497
411.777
575.952
622.233
372.813
631.135
384.398
347.484
489.977
354.228
572.229
623.736
373.375
628.675
382.378
345.223
482.118
349.083
5.94621
40.4742
40.4662
120.601
200.623
212.41
195.008
225.708
61.3576
119.759
201.977
211.352
193.022
225.747
60.8996
299.541
254.791
231.492
200.006
173.409
161.112
300.383
256.442
235.833
199.787
173.497
162.513
21.7575
148.991
295.391
296.344
418.471
292.72
296.022
415.501
150.594
204.86
205.796
741.448
426.961
693.521
400.708
740.485
426.899
693.88
401.342
606.381
509.394
669.046
355.48
389.261
307.298
608.585
504.283
671.592
390.578
356.241
305.139
6.71533
34.6
39.7085
34.4471
39.5755
107.201
177.744
193.523
185.49
187.609
206.461
149.205
54.1359
106.297
180.115
192.476
183.934
188.342
211.889
149.614
53.4865
242.602
164.973
243.932
164.93
19.2202
141.488
142.349
282.904
301.4
451.762
305.874
440.573
281.974
299.353
439.886
298.817
435.145
196.094
196.689
559.278
647.055
514.218
339.789
380.928
306.815
561.131
650.797
504.811
382.313
340.039
303.417
10.7823
53.3573
62.9955
53.3373
63.0502
61.9487
61.2649
99.1952
171.526
179.104
172.612
177.503
128.86
182.93
137.107
172.457
220.247
152.645
98.2138
173.298
178.078
171.798
178.003
129.456
186.304
137.191
172.909
221.481
152.439
21.5469
132.598
132.567
133.538
134.287
277.084
293.343
443.855
302.179
424.137
499.855
299.67
276.908
295.721
435.282
296.829
427.287
492.747
297.032
189.831
190.243
546.211
335.192
545.627
334.788
11.774
88.2727
94.2745
88.4759
94.1764
79.2253
91.2462
78.7248
90.8869
97.9966
96.708
169.94
175.442
172.035
174.848
122.218
160.95
124.33
158.802
134.662
198.642
141.08
185.608
171.5
174.634
171.331
175.5
123.059
159.809
123.839
159.217
134.645
200.686
141.116
186.995
26.7612
141.883
159.675
143.536
160.855
184.905
186.359
273.009
291.981
438.928
294.783
430.059
298.545
492.431
296.007
490.946
531.579
327.436
272.686
294.789
436.547
292.832
433.998
298.08
487.392
294.21
489.026
529.033
326.726
3.25556
105.967
89.1231
105.875
88.8806
126.069
138.884
125.919
138.584
103.655
108.556
102.546
107.825
171.294
175.349
170.62
175.528
173.773
176.497
172.786
176.583
128.081
165.428
128.946
162.883
129.194
164.227
128.31
164.268
29.22
182.805
205.455
183.332
206.018
190.326
204.107
191.701
205.065
265.172
266.105
285.914
434.748
293.099
417.879
302.187
495.696
299.459
499.894
324.909
520.662
321.655
521.226
288.037
432.781
290.711
422.622
302.449
497.7
300.455
499.648
324.969
518.508
321.202
520.13
28.0445
1.83115
147.838
121.896
147.594
121.416
131.423
149.353
131.275
149.233
174.607
181.052
173.463
182.867
176.53
191.638
177.727
187.64
177.228
182.512
175.755
184.562
178.729
191.833
177.925
189.401
131.91
172.744
133.735
168.928
134.463
176.205
136.757
172.059
29.3179
225.493
202.037
226.019
203.888
223.885
245.065
224.161
245.668
269.447
283.285
269.785
282.913
283.768
418.253
286.145
410.723
287.427
421.368
287.618
417.057
285.369
488.365
292.595
475.758
287.155
492.049
294.014
480.987
9.5215
117.589
92.4179
117.371
92.6996
2.85267
165.918
151.947
165.727
151.403
181.744
207.813
180.548
208.554
188.46
230.528
190.662
221.988
183.781
208.349
180.762
210.738
190.679
229.761
189.609
224.51
141.414
184.555
139.41
188.72
146.449
212.504
154.963
199.005
144.534
188.548
142.776
192.715
148.854
213.167
155.559
202.376
31.2306
168.122
269.655
297.589
269.857
297.586
299.524
312.828
298.161
312.265
289.633
423.157
288.209
425.738
293.433
465.134
303.833
438.703
291.265
424.776
288.601
429.087
295.415
462.836
302.079
441.42
281.946
469.268
282.02
469.02
283.659
473.52
283.458
473.909
8.92639
76.8781
59.851
77.1766
60.2347
172.368
152.58
172.151
152.588
4.2943
197.438
251.78
196.504
254.513
195.934
264.696
214.891
250.264
198.142
249.987
194.978
255.06
197.061
262.898
213.442
251.229
165.668
235.174
164.788
239.978
170.126
272.062
180.387
252.489
167.6
235.841
165.315
242.904
172.587
270.16
179.213
256.406
31.8173
159.824
353.419
366.058
351.513
364.757
332.163
334.761
330.62
332.85
313.88
482.853
311.362
485.559
318.195
496.371
323.316
487.58
311.606
476.788
306.876
482.3
318.87
492.417
321.562
487.151
287.999
469.227
283.641
473.041
294.073
501.146
299.392
484.198
289.23
473.937
284.979
478.246
294.784
501.591
299.084
488.144
29.3191
13.4108
125.307
84.8132
125.458
84.9265
265.594
312.627
193.149
261.394
197.64
223.322
267.408
213.508
256.208
197.207
263.61
307.938
190.854
258.981
194.229
220.742
263.296
208.876
253.53
193.47
16.3497
196.119
299.121
192.868
304.922
199.641
305.4
195.738
295.055
190.499
304.036
200.104
306.056
167.482
274.015
176.192
254.092
169.177
270.807
173.905
257.757
32.8935
135.022
400.815
410.308
400.355
410.24
434.979
435.173
430.272
431.318
322.782
501.785
326.657
490.566
322.431
483.477
343.295
486.463
320.413
494.838
322.003
486.584
321.45
472.199
335.853
482.997
298.627
509.477
299.55
510.173
300.394
527.608
303.206
517.877
297.331
507.887
298.424
508.256
298.99
521.803
300.778
515.24
32.8985
105.241
86.3391
105.302
86.6023
38.3908
173.936
140.125
173.291
139.589
311.394
303.405
200.723
196.79
309.394
200.128
318.485
223.008
312.494
203.222
306.75
300.858
197.552
194.385
305.293
196.764
310.023
218.129
307.378
199.362
25.786
190.559
297.582
187.331
302.51
194.802
309.577
188.856
292.45
183.978
300.486
194.197
309.379
34.047
123.814
276.893
448.732
472.228
447.515
471.948
621.441
562.706
365.983
640.147
384.58
340.449
625.388
403.669
649.311
396.554
549.429
612.488
359.83
628.681
376.185
333.472
615.601
396.143
637.49
387.909
303.7
529.894
303.287
526.519
309.306
530.95
301.664
525.083
301.004
522.699
305.564
522.598
314.243
550.034
318.313
537.192
313.088
546.103
316.74
534.4
62.6355
68.1811
107.41
68.4763
107.246
164.813
144.403
164.933
144.826
49.5569
195.33
270.205
194.42
259.626
194.322
251.968
211.637
244.954
193.729
265.543
190.989
257.548
194.255
251.479
209.635
244.287
313.571
198.268
325.823
211.345
325.237
205.456
308.913
194.898
315.545
205.556
320
201.595
20.6678
35.302
111.692
247.5
544.119
552.296
543.405
552.043
522.889
530.072
521.374
529.164
597.014
636.438
368.92
343.831
660.283
381.342
713.644
418.791
689.408
399.671
592.238
632.287
341.052
366.887
654.062
378.438
707.25
415.806
682.826
396.487
317.473
552.99
317.391
555.011
324.194
562.618
316.03
549.862
315.824
552.959
322.672
560.405
88.4356
72.9631
108.092
107.595
108.694
106.958
254.862
289.726
186.281
250.154
193.774
211.416
264.589
217.177
251.091
197.669
253.927
286.236
183.486
250.584
191.264
208.963
265.964
214.043
252.57
195.665
45.6221
196.965
297.665
196.71
302.875
197.395
300.366
195.326
292.965
193.727
300.113
196.272
298.663
8.70841
36.5747
100.887
199.041
578.324
589.334
578.23
589.382
633.435
621.416
632.63
620.566
454.529
755.47
440.863
770.866
472.564
800.772
486.009
801.825
453.407
752.263
438.878
769.315
472.412
798.011
483.745
802.08
618.971
359.435
736.966
426.095
702.698
411.487
616.399
358.317
732.162
424.328
697.201
409.815
97.0629
165.269
190.12
165.102
190.237
79.837
184.138
162.196
184.274
161.938
288.604
292.716
191.689
195.212
293.573
190.802
288.841
205.882
297.012
192.455
285.792
292.414