/*--------------------------------*- C++ -*----------------------------------*\
| =========                 |                                                 |
| \\      /  F ield         | OpenFOAM: The Open Source CFD Toolbox           |
|  \\    /   O peration     | Version:  5.x                                   |
|   \\  /    A nd           | Web:      www.OpenFOAM.org                      |
|    \\/     M anipulation  |                                                 |
\*---------------------------------------------------------------------------*/
FoamFile
{
    version     2.0;
    format      ascii;
    class       volScalarField;
    location    "2.8";
    object      p;
}
// * * * * * * * * * * * * * * * * * * * * * * * * * * * * * * * * * * * * * //

dimensions      [1 -1 -2 0 0 0 0];

internalField   nonuniform List<scalar> 
12160
(
5265.42
5383.11
4612.13
5407.54
4728.22
3959.5
5483.28
4754.01
4073.68
3307.25
5522.57
4828.97
4099.59
3418.81
2655.21
5575.6
4868.94
4174.17
3445.01
2763.24
2003.13
5618.29
4922.2
4215.42
3519.22
2790.51
2107.17
1351.67
5656.4
4965.29
4269.22
3562.32
2864.15
2135.66
1450.14
700.083
5686.79
5003.75
4313.18
3616.84
2909.35
2209.22
1480.5
793.525
200.59
5708.64
5034.45
4352.38
3662.07
2964.94
2256.76
1554.05
826.066
252.711
11.2547
5721.48
5056.53
4383.74
3702.38
3011.87
2313.66
1603.96
899.893
274.209
17.5721
-6.19054
5725.19
5069.44
4406.27
3734.73
3053.7
2362.74
1662.56
952.347
323.615
22.4142
-6.44763
-7.44621
5720.27
5073.15
4419.36
3757.97
3087.36
2406.6
1714.16
1013.08
362.972
34.9198
-6.31941
-7.49692
-8.12503
5707.31
5068.14
4423.05
3771.37
3111.4
2442.08
1760.48
1067.55
411.043
47.5608
-6.35135
-7.4701
-8.15987
-8.80158
5686.85
5055.08
4417.87
3774.96
3125.34
2467.46
1798.09
1116.68
458.467
65.6143
-5.86055
-7.50806
-8.14286
-8.81647
-9.46764
5659.21
5034.51
4404.59
3769.49
3128.84
2481.7
1824.9
1156.96
503.715
86.7372
-4.62532
-7.56581
-8.13916
-8.80142
-9.4829
5625.12
5006.73
4383.83
3755.87
3122.93
2484.87
1840.31
1185.42
542.057
109.29
-2.84133
-7.57421
-8.19727
-8.81673
-9.48643
5585.7
4972.4
4355.79
3734.81
3108.83
2478.3
1842.96
1201.94
569.345
130.341
-0.551278
-7.53758
-8.22482
-8.84696
-9.47913
5542.44
4932.63
4321.02
3706.4
3087.41
2463.55
1835.31
1203.46
585.699
146.258
2.01194
-7.53987
-8.24062
-8.85645
-9.48681
5497.32
4888.86
4280.53
3670.96
3058.61
2441.69
1819.69
1194.38
587.202
154.602
4.2597
-7.54509
-8.24862
-8.82592
-9.49319
5452.87
4843.1
4235.75
3629.43
3022.38
2412.47
1797.45
1177.7
578.965
155.623
5.48854
-7.53921
-8.24101
-8.81728
-9.51344
5411.57
4797.92
4188.68
3583.12
2979.51
2375.34
1767.9
1155.09
563.936
151.291
5.50781
-7.52675
-8.24682
-8.84533
-9.5317
5375.71
4755.9
4142.05
3534.09
2931.17
2330.85
1729.92
1125.84
543.924
144.192
4.78271
-7.50089
-8.25678
-8.85373
-9.51063
5347.16
4719.38
4098.57
3485.22
2879.44
2279.96
1683.65
1087.43
518.822
135.053
3.79408
-7.43465
-8.25761
-8.85482
-9.50834
5327.02
4690.33
4060.75
3439.46
2827.51
2224.79
1629.74
1039.56
486.399
123.282
2.65934
-7.38305
-8.25198
-8.86192
-9.51122
5315.71
4669.9
4030.7
3399.58
2778.62
2168.89
1570.33
982.94
446.263
107.779
1.26093
-7.36574
-8.24852
-8.87097
-9.50791
5313
4658.51
4009.68
3367.94
2735.89
2115.87
1509.41
920.242
398.856
88.6386
-0.308809
-7.38404
-8.25101
-8.87701
-9.5061
5318.14
4655.92
3998.14
3346.01
2702.07
2069.35
1451.1
856.358
347.316
67.4674
-1.99447
-7.42172
-8.255
-8.88254
-9.50694
5330.07
4661.34
3995.79
3334.24
2678.9
2032.62
1399.69
795.996
298.095
47.6073
-3.55416
-7.45822
-8.25822
-8.88613
-9.50978
5347.48
4673.66
4001.77
3332.28
2666.87
2007.78
1359.28
743.326
254.573
31.8469
-4.61397
-7.4793
-8.24697
-8.88774
-9.51415
5368.98
4691.53
4014.89
3339.15
2665.51
1995.37
1332.57
702.317
219.205
20.4859
-5.29881
-7.47005
-8.22444
-8.8789
-9.51605
5393.15
4713.54
4033.73
3353.51
2673.59
1994.85
1319.95
675.144
193.712
13.1742
-5.74028
-7.44852
-8.18917
-8.85944
-9.51181
5418.67
4738.26
4056.83
3373.81
2689.63
2004.68
1320.67
662.59
178.049
8.84648
-6.00384
-7.41921
-8.15332
-8.8417
-9.50403
5444.22
4764.32
4082.75
3398.46
2711.9
2023.02
1332.59
663.811
171.22
6.48726
-6.13909
-7.38655
-8.11497
-8.82335
-9.49309
5468.6
4790.41
4110.07
3425.99
2738.81
2047.78
1353.73
676.238
172.494
5.35278
-6.2085
-7.36168
-8.08627
-8.80357
-9.48128
5490.84
4815.44
4137.42
3455.03
2768.83
2077.18
1381.6
697.784
179.801
5.26388
-6.25194
-7.34543
-8.07126
-8.78541
-9.47103
5510.01
4838.23
4163.49
3484.22
2800.39
2109.93
1414.36
726.049
192.309
5.83257
-6.28393
-7.34276
-8.06373
-8.77027
-9.46454
5525.3
4857.9
4187.26
3512.01
2831.86
2144.54
1450.86
759.634
208.772
7.02761
-6.30472
-7.35309
-8.06281
-8.76376
-9.46259
5536.17
4873.65
4207.88
3537.51
2862.08
2179.37
1489.46
798.046
229.301
8.90885
-6.31531
-7.36662
-8.06978
-8.76244
-9.46085
5542.09
4884.94
4224.51
3559.65
2889.63
2212.5
1528.05
839.101
255.471
12.0356
-6.30491
-7.38618
-8.07779
-8.76486
-9.46044
4891.25
5543.19
4236.64
3577.65
2913.71
2243.05
1564.97
880.642
286.931
17.4168
-6.23299
-7.40861
-8.08471
-8.76801
-9.46208
4243.7
4892.98
5513.56
3591.02
2933.5
2269.68
1598.5
920.275
321.226
26.3196
-6.05299
-7.44056
-8.0856
-8.77435
-9.46484
3599.22
4246.62
4864.27
5453.35
2948.47
2291.72
1628.09
957.446
355.446
39.2242
-5.63396
-7.46163
-8.08122
-8.78501
-9.46531
2958.13
3603.94
4219.63
4805.24
5362.61
2308.69
1652.8
990.31
387.188
53.7584
-4.8492
-7.48114
-8.10395
-8.80871
-9.46302
2320.15
2965.08
3579.48
4162.93
4716.02
5238
1672.18
1017.92
415.293
67.4006
-3.69602
-7.50031
-8.12872
-8.82087
-9.45269
1685.78
2329.82
2943.77
3526.07
4077.17
4594.86
5077.05
1039.82
439.169
79.7056
-2.38363
-7.51451
-8.17614
-8.83005
-9.44782
1055.74
1698.53
2312.2
2894.49
3444.89
3962.25
4438.15
4868.58
458.482
90.55
-1.06074
-7.50974
-8.21921
-8.84002
-9.46141
473.03
1071.96
1684.95
2267.45
2819.98
3338.46
3813.89
4237.51
4581.92
99.6725
0.138865
-7.4939
-8.24711
-8.85492
-9.47514
106.919
488.909
1063.14
1645.06
2199.36
2723.13
3202.36
3626.82
3966.36
4286.86
1.13799
-7.46823
-8.25774
-8.86841
-9.48498
1.97575
115.693
486.078
1028.82
1584.04
2114.04
2603.08
3032.33
3378.58
3708.66
3671.04
-7.43382
-8.25869
-8.87517
-9.49057
-7.38189
3.30453
117.277
462.881
975.262
1510.44
2012.79
2453.79
2813.4
3140.49
3158.13
3103.9
-8.25156
-8.87589
-9.49384
-8.23748
-7.27893
4.92729
109.167
424.623
914.615
1430.3
1889.51
2257.37
2577.41
2721.35
3109.79
1772.2
2204.4
-8.87058
-9.494
-8.86088
-8.21129
-6.95828
4.9333
92.6526
383.956
858.984
1339.07
1722.93
2015.7
2280.24
2700.42
1925.33
823.219
1334.88
1520.1
-9.49169
-9.48885
-8.84785
-8.2017
-6.70087
2.38703
75.9878
353.786
807.044
1213.56
1485.01
1774.45
2175.74
1830.22
1145.78
-39.2829
459.373
906.063
1164.81
-9.48657
-8.92959
-8.17929
-6.82671
-0.270698
66.3381
333.361
731.847
1029.38
1266.59
1586.49
1633.41
1332.82
431.839
-853
-484.256
182.386
612.545
940.788
-9.55982
-9.07196
-8.15953
-7.20956
-1.62162
62.6649
318.941
606.035
848.496
1052.33
1327.52
1351.61
811.566
-241.984
-1535
-1478.49
-833.382
75.4457
514.957
1035.54
-9.73952
-8.93205
-8.19134
-7.46615
-2.39143
65.8427
240.246
498.71
656.651
962.653
1233.3
1002.89
262.551
-801.349
-1947.6
-2318.18
-2020.26
-1112.7
170.218
647.135
1372.28
-9.59818
-8.86517
-8.24704
-7.63966
-1.36132
48.5682
197.875
382.362
689.397
1053.73
1054.14
588.209
-212.53
-1185.9
-1733.22
-2798.18
-1731.01
-1399.57
-1397.74
-2970.37
-2427.25
-1098.8
179.731
1051.07
2215.61
-9.55408
-8.85547
-8.32069
-7.80173
-1.38805
16.8147
203.224
503.699
879.474
1009.85
788.547
222.266
-543.565
-1394.31
-2084.13
-1818.76
-3545.97
-2082.15
-2465.81
-2464.84
-1817.47
-1483.02
-1481.95
-3477.07
-2630.49
-802.877
404.755
1705.9
3627.74
-9.49443
-8.90936
-8.44906
-7.94076
-5.57628
34.6249
348.97
701.63
906.029
868.671
513.095
-48.6539
-752.562
-1289.55
-1290.09
-1007.91
-1007.23
-2148.14
-1919.06
-4119.87
-3812.28
-2146.75
-2450.92
-2449.35
-1922.93
-1595.7
-1599.2
-3788.03
-2560.32
-607.377
957.203
3011.04
5371.68
-9.50794
-8.98825
-8.64318
-8.03317
-7.01161
135.512
477.257
761.416
858.454
680.011
283.402
-258.405
-746.595
-745.866
-527.691
-527.16
-1404.94
-1406.38
-1089.72
-1093.09
-2230.35
-1610.6
-1783.46
-1732.74
-1665.22
-4462.5
-4302.25
-2905.97
-2906.11
-2729.4
-2730.01
-2233.86
-2497.12
-2498.69
-1611.59
-1785.11
-1734.93
-1665.41
-1472.71
-1421.41
-1330.37
-1534.93
-1475.04
-1429.76
-1334.63
-1539.15
-3783.14
-2180.7
-65.0602
2069.53
4909.67
7120.52
-9.52779
-9.08751
-8.60772
-8.34244
-6.75065
210.181
566.137
775.793
738.544
493.969
95.4349
-328.986
-328.795
-156.135
-155.882
-820.703
-825.703
-576.836
-583.218
-1387.92
-1479.21
-1362.33
-1255.52
-1200.37
-1438.17
-1479.71
-1387.34
-1362.49
-1256.37
-1201.16
-1438.4
-960.287
-891.441
-1103.46
-1035.17
-959.944
-891.812
-1103.86
-1035.82
-1975.48
-1899.3
-1857.26
-2013.95
-1706.08
-1841.9
-1828.28
-1725.54
-4490.93
-4514.34
-3134.82
-3135.2
-3049.22
-3049.16
-2871.82
-2873.47
-2720.26
-2721.78
-1977.61
-1903.84
-1860.17
-2017.62
-2082.39
-2246.77
-2207.46
-2118.77
-2083.77
-2251.09
-2210.25
-2120.45
-1706.44
-1841.23
-1828.21
-1725.24
-1587.09
-1609.38
-1587.45
-1609.37
-3366.3
-1388.52
1062.48
3995.75
6809.63
8542.9
-9.55761
-9.09081
-8.5733
-8.34769
0.90336
286.382
601.502
704.426
593.396
343.241
-31.954
-31.9564
90.1097
90.9399
-356.811
-363.466
-164.927
-171.187
-850.876
-782.551
-732.517
-665.433
-849.933
-782.844
-731.8
-666.324
-481.582
-408.821
-607.343
-536.274
-480.623
-409.761
-606.645
-537.068
-1543.02
-1419.65
-1386.28
-1522.3
-1258.8
-1231.92
-1541.29
-1417.82
-1521.54
-1385.89
-1257.82
-1231.6
-967.651
-935.518
-1108.65
-1084.26
-966.723
-935.301
-1107.81
-1083.88
-2035.37
-1954.23
-1942.22
-2047.04
-1766.57
-1913.84
-1895.26
-1785.38
-4047.61
-4411.7
-3157.04
-3158.09
-3188.18
-3189.01
-3031.73
-3033.85
-2975.55
-2977.48
-2458.99
-2434.98
-2431.44
-2403.37
-2459.03
-2435.16
-2432.43
-2403.86
-2300.1
-2223.21
-2284.13
-2387.43
-2357.57
-2187.41
-2299.62
-2223.7
-2284.45
-2388.54
-2358.19
-2187.62
-2035.64
-1953.02
-1941.98
-2046.5
-2122.49
-2144.08
-2122.8
-2144.05
-1766.68
-1913.31
-1894.89
-1785.72
-1678.43
-1701.1
-1678.43
-1700.45
-2432.63
-33.2034
2807.25
5988.38
8307.25
9654.19
-9.61594
-9.10133
-8.65027
-8.4471
31.9933
300.479
540.913
589.231
463.422
178.892
179.83
264.554
264.719
-28.6853
-32.1193
87.1726
86.843
-378.928
-302.876
-281.606
-201.024
-379.03
-304.076
-280.787
-202.368
-142.352
-21.7828
-196.508
-110.72
-143.569
-24.0559
-196.693
-112.307
-881.133
-847.057
-733.761
-706.686
-878.771
-846.313
-730.727
-705.468
-438.783
-419.467
-592.273
-571.079
-434.892
-418.095
-589.032
-569.423
-2091.73
-2030.99
-2010.25
-2115.51
-3091.69
-3912.83
-2927.02
-2927.7
-3095.34
-3096.53
-2986.27
-2988.69
-3054.23
-3056.98
-2510.16
-2485.25
-2495.64
-2473.92
-2511.14
-2486.01
-2496.39
-2474.4
-2494.6
-2478.15
-2493.37
-2469.01
-2494.11
-2478.05
-2495.01
-2469.87
-2455.03
-2425.74
-2446.46
-2417.03
-2453.22
-2424.98
-2446.11
-2416.83
-2255.26
-2339
-2306.48
-2225.82
-2395.68
-2363.68
-2253.13
-2337.36
-2305.94
-2225.14
-2394.69
-2363.28
-2091.63
-2029.57
-2009.6
-2115
-2171.72
-2195.46
-2171.75
-2194.94
-1001.53
1760.57
4743.11
7591.94
9484.6
10567.2
-9.72896
-9.12505
-9.01497
-7.72807
36.8816
266.227
450.366
484.455
388.868
173.483
173.78
233.594
233.932
28.104
26.3492
141.699
139.421
-333.79
-314.87
-222.726
-201.971
-331.063
-313.687
-220.241
-200.881
-75.776
-20.7248
-133.348
-108.11
-75.7637
-20.9788
-132.039
-107.315
-390.22
-357.214
-385.356
-355.606
-1668.74
-2949.91
-2437.28
-2436.73
-2725.82
-2726.41
-2664.11
-2666.95
-2863.17
-2866.87
-2414.68
-2366.7
-2444.34
-2420.4
-2418.26
-2367.91
-2447.51
-2421.5
-2517.94
-2502.28
-2475.98
-2456.64
-2519.45
-2502.91
-2479.34
-2458.17
-2441.91
-2427.09
-2480.58
-2467.1
-2438.51
-2425.79
-2477.05
-2465.44
-2472.76
-2450.89
-2491.07
-2471.42
-2470.46
-2449.96
-2487.96
-2470.12
803.009
3669.08
6513.06
8911.19
10415
11320.3
-10.0087
-9.46231
-9.67022
-4.52252
24.5917
221.12
362.143
398.515
285.864
286.381
299.055
300.235
223.563
220.199
261.02
262.36
171.505
57.1079
107.509
106.805
171.136
57.2884
107.717
106.414
221.292
177.889
247.985
152.492
220.292
177.485
246.324
151.533
-313.246
-287.039
-178.669
-153.009
-308.895
-285.329
-175.497
-151.768
0.164785
22.4344
-73.7776
-47.4188
2.8789
23.2992
-71.0582
-46.1985
110.359
-1579.76
-2277.56
-2079.65
-2082.23
-2425.99
-2429.57
-2342.11
-2343.9
-2567.22
-2568.38
-2282.97
-2221.62
-2340.85
-2312.98
-2279.97
-2220.7
-2337.48
-2311.64
-2425.31
-2411.29
-2384.45
-2370.68
-2421.22
-2409.53
-2380.86
-2369.24
-2413.36
-2395.76
-2410.23
-2394.53
2757.76
5513.44
8022.46
9961.93
11151.7
11948.5
-10.4839
-11.5119
-9.22394
-4.16062
23.8214
151.182
268.556
315.403
331.008
327.651
308.113
306.572
203.131
272.837
308.26
206.525
200.781
270.559
305.975
205.603
335.617
332.273
230.517
143.264
165.904
214.136
230.312
145.395
166.391
213.34
263.465
265.775
281.819
249.121
263.518
267.181
282.276
249.64
63.1208
91.9209
68.3649
93.3848
2094.52
106.058
-933.178
-896.133
-895.286
-1357.79
-1359.67
-1743.14
-1745.85
-2102.71
-2107.01
-1873.43
-1776.02
-1770.11
-1884.83
-1872.49
-1773.64
-1769.46
-1882.58
-1945.76
-2065.86
-2050.33
-1968.47
-1944.27
-2063.08
-2048.43
-1966.22
-2162.49
-2120.3
-2264.69
-2232.36
-2158.66
-2118.94
-2261.11
-2230.79
-2374.99
-2359.43
-2317.71
-2289.35
-2369.95
-2357.51
-2313.07
-2287.61
4643.92
7152.43
9318.82
10838
11795.8
-12.3248
-12.2694
-8.95014
-5.98799
15.8526
96.5641
165.137
306.277
305.545
224.015
223.785
315.701
368.137
289.159
367.615
316.154
367.44
290.478
366.832
357.191
355.928
283.867
302.324
329.252
279.79
283.744
302.141
328.208
279.088
331.793
386.015
353.858
397.076
334.824
385.727
355.318
396.724
319.676
329.778
351.99
293.177
319.996
333.485
353.252
295.201
4001.14
2029.59
668.801
-35.4915
-530.671
-538.511
-994.762
-1001.89
-1399.45
-1402.26
-1660.99
-1642.11
-1471.09
-1572.51
-1660.45
-1640.72
-1471.55
-1575.39
-1701.43
-1622.06
-1584.88
-1732.92
-1700.28
-1618.38
-1583.6
-1729.83
-1791.29
-1985.78
-1946.57
-1826.91
-1789.58
-1981.78
-1944.91
-1823.12
-2096.41
-2047.67
-2092.62
-2046.25
6326
8580.2
10430.1
11574.9
-13.1054
-10.1022
-8.6039
-6.25448
12.3658
40.612
153.028
152.751
88.4841
89.0924
319.12
317.934
216.857
215.125
377.399
392.959
330.968
370.412
377.515
393.064
331.121
370.469
367.806
304.667
358.997
339.608
367.796
306.015
358.507
340.016
356.581
377.641
383.737
366.667
355.942
377.481
383.368
366.42
414.961
426.9
433.068
445.67
416.427
427.327
434.477
446.137
5739.91
3843.2
2454.16
1543.62
829.207
830.946
305.089
302.554
-163.724
-163.701
-667.043
-572.795
-552.109
-338.649
-660.801
-569.983
-548.035
-337.703
-821.223
-772.975
-1001.55
-968.805
-1376.52
-1227.14
-810.55
-769.805
-992.969
-965.386
-1371.64
-1226.3
-1485.33
-1430.63
-1479.9
-1428.69
-1601.71
-1515.49
-1479.06
-1642.92
-1600.62
-1511.15
-1477.68
-1640.12
7793.32
9806.88
11309
-10.8126
-9.50521
-8.22186
-6.48092
3.76739
20.4929
141.058
140.33
54.1775
54.4814
265.455
330.031
291.198
215.798
243.962
367.875
330.689
265.01
367.98
290.922
215.073
243.264
153.279
174.796
178.305
200.566
150.982
173.336
176.66
199.399
422.265
433.599
386.036
399.205
423.653
434.19
386.89
399.596
377.925
364.625
378.002
364.854
446.265
425.562
446.165
426.013
443.599
456.44
446.147
457.203
7186.85
5483.37
4142.07
3142.2
2074.84
2079.44
1417.38
1415.44
1231.03
1225.19
717.414
719.012
138.072
122.114
399.233
9.51342
-196.805
-388.213
142.12
135.839
403.104
17.2679
-194.481
-382.18
-505.718
-440.58
-499.035
-437.663
-665.564
-622.073
-870.85
-1167.52
-825.403
-1125.55
-656.814
-619.025
-864.751
-1159.34
-822.913
-1122.63
-1306.83
-1272.87
-1300.73
-1270.47
9049.88
10814.8
-10.1459
-8.97437
-8.10186
-6.94434
-3.74825
3.00746
3.01342
0.0963044
0.0783775
94.9895
94.9079
30.1223
30.8776
336.992
237.772
263.152
364.212
223.335
239.81
338.05
235.879
364.546
262.473
220.578
238.464
158.578
170.176
185.298
199.814
155.933
168.587
183.051
198.687
406.132
419.391
406.641
419.542
8381.35
6906.74
5600.38
4634.65
3945.4
2353.95
2350.07
1770.24
1757.29
1234.25
1618.01
1091.59
1291.47
1251.25
1621.35
1104.31
1296.74
634.396
268.779
799.067
863.955
1037.61
496.979
645.79
277.456
803.761
881.454
1043.41
500.294
262.976
-106.503
168.121
-179.833
264.235
-104.562
170.921
-175.29
-389.1
-333.738
-381.977
-330.874
-571.643
-518.949
-1036.76
-991.688
-563.753
-516.297
-1029.73
-989.031
10054
-9.57099
-8.78464
-8.06836
-6.78077
-3.41537
1.09448
1.08099
-1.02539
-1.03667
33.5162
77.1119
75.8647
33.4927
34.0975
79.4714
76.9437
35.4615
10.6323
10.7714
139.218
144.008
167.904
174.318
138.031
143.33
165.2
172.875
9332.59
8058.56
6898.52
5975.83
5271.85
3778.44
3790.32
3160.66
3157.28
2583.08
2581.87
2077.13
2069.98
1397.08
1673.69
1281.43
1368.65
1410.47
1677.76
1290.49
1372.33
420.15
822.65
571.486
914.705
1060.28
1137.17
428.999
831.591
918.34
574.497
1067.06
1140.4
40.5558
-27.4675
41.2072
-25.5413
-9.48684
-8.68921
-7.49254
-5.99361
-2.1932
-2.19746
-3.12073
-3.1278
1.1297
1.1281
-0.960158
-0.967017
16.9324
51.2395
49.7505
19.6729
17.0997
54.0893
51.5098
20.5842
3.79104
4.0214
7.30091
7.73929
3.81979
4.02952
7.32904
7.74251
98.333
98.2964
100.649
98.9778
8909.36
8022.69
7183.17
6501.55
5983.38
3948.92
3948.25
3415.02
3398.34
2863.14
2850.92
2352.01
1784.75
2001.59
1923.97
2350.83
1785.83
2002.51
1918.53
1594.16
1693.49
1376.8
1456.82
1605.55
1697.23
1384.83
1460.08
-9.49146
-8.48228
-7.21263
-5.2733
-1.81479
-1.81111
-2.82241
-2.82649
3.10652
3.39921
0.237341
1.2496
1.09196
0.408663
3.09582
3.40123
0.23831
1.24192
1.08567
0.408124
-0.600343
-0.593912
14.5226
34.8476
29.8416
15.5136
14.5657
36.5478
30.4156
15.8692
5.81896
6.29016
5.82845
6.296
8900.95
8245.22
7650.4
7114.67
5211.59
5223.67
4615.47
4613.81
4050.78
4060.8
3605.01
3587.48
2515.71
3014.51
2430.79
2672.08
2060.08
2382.04
2539.81
3017.99
2444.74
2677
2061.01
2382.85
1939.89
2051.61
1947.54
2054.39
1740.29
1820.52
1751.06
1823.64
-9.37758
-8.24739
-6.73581
-3.5309
-3.53517
-4.31782
-4.32493
-1.63008
-1.6197
-2.66183
-2.66385
2.40933
2.38281
0.180223
1.08664
1.00391
0.312819
2.39198
2.38468
0.183427
1.08672
1.00457
0.31645
-0.774998
-0.960742
-0.270135
-0.372843
-0.768173
-0.955458
-0.265355
-0.369992
9117.15
8673.56
8215.02
7785.97
5371.17
5368.31
4823.32
4800.14
4311.84
4300.83
2662.9
3048.44
3685.84
3021.39
3317.6
3167.37
3683.49
3024.12
3318.78
3165.36
2674.18
3051.61
2577.73
2249.32
2750.93
2367.88
2583.17
2260.61
2753.4
2371.28
2067.23
2146.44
2078.36
2149.15
-9.33758
-7.95575
-6.62139
-3.40749
-3.40116
-4.19231
-4.1945
-0.774765
-0.880136
-1.79564
-1.22412
-1.32992
-1.57269
-0.771688
-0.877891
-1.79281
-1.22251
-1.32816
-1.56882
-2.50918
-2.50564
0.164367
0.271782
0.1682
0.275586
-0.37021
-0.490669
-0.369554
-0.487718
9502.16
9208.9
8834.43
6597.5
6605.39
6000.24
5996.06
5478.99
5477.39
4980.18
4971.37
3757.71
4335.74
3606.41
3947.69
3253.64
3657.79
3782.3
3253.84
3657.79
4340.8
3614.88
3950.47
2886.59
3065.73
3158.85
3344.99
3165.23
2895
3344.52
3068.23
-9.27214
-7.99354
-6.53408
-3.30947
-3.30224
-4.145
-4.14722
-0.798186
-0.855939
-1.76467
-1.22741
-1.33251
-1.61524
-0.800718
-0.854946
-1.76533
-1.23076
-1.33419
-1.61706
-2.30232
-2.56803
-1.97769
-2.12604
-2.30733
-2.56759
-1.98161
-2.1271
-0.429503
-0.532271
-0.431696
-0.530115
10034
9809.59
9477.4
6772.6
6769.4
6253.27
6233.94
5673.71
5671.77
3913.72
4338.52
4948.32
4282.49
4611.32
4384.95
3929.84
4344.36
4949.58
4285.38
4614.02
4386.41
3800.57
3434.21
4017.25
3647.84
3442.06
3649.85
3801.34
4018.22
-9.28083
-8.037
-4.75906
-4.10399
-4.09488
-4.7588
-5.45017
-5.46043
-3.27235
-2.3148
-2.50899
-3.26682
-2.31914
-2.51018
-0.843121
-0.971077
-1.64721
-1.19575
-1.3082
-1.54508
-0.849045
-0.970934
-1.65036
-1.20596
-1.31299
-1.55283
-1.93717
-2.08739
-1.94298
-2.08967
10623.5
10412.3
10059.1
6971.49
6972.95
6411.66
6407.12
4882.16
5504.55
4830.49
5178.75
4522.09
4914.79
4912.2
4529.48
4918.92
5513.26
4852.66
5186.87
4136
4299.76
4427.86
4569.3
4151.71
4304.64
4443.56
4575.5
3966.11
4118.95
3973.05
4121.55
-9.37431
-8.04314
-4.06547
-4.83415
-4.05832
-4.82545
-5.46628
-5.46736
-2.70079
-2.36997
-2.46628
-2.33407
-2.48176
-2.95059
-3.01979
-3.35374
-2.37624
-2.7027
-2.46845
-2.34048
-2.48395
-2.95107
-3.02304
-3.35233
-1.67345
-1.54308
-1.67592
-1.54821
-2.01675
-2.11695
-2.02437
-2.12039
11218.4
10962.6
8210.35
7088.58
7072.49
8222.73
7668.58
7670.04
6522.34
5036.69
5510.51
6525.05
5063.66
5520.59
4701.19
5005.12
4820.86
5190.34
4725.09
4829.46
5019.43
5196.23
4253.31
4356.63
4539.04
4625.61
4272.74
4362.73
4567.94
4634.27
-9.34262
-8.10321
-4.18169
-3.31778
-3.09981
-4.89552
-4.17515
-3.31848
-3.10256
-4.88034
-5.47818
-5.47521
-2.37505
-2.77279
-2.06504
-2.19412
-2.52905
-2.95394
-2.38429
-2.07203
-2.77678
-2.19783
-2.53229
-2.95586
-1.81927
-1.69303
-1.82235
-1.69954
11772.6
11444.9
8328.22
7128.63
7129.83
8329.15
7851.63
7839.59
5481.65
5110.88
5575.34
5072.01
5524.25
5913.06
5560.57
6233.24
5505.31
5142.11
5587.64
5102.23
5535.91
5922.53
5594.59
6242.19
4829.29
5052.97
4899.07
5242.52
4839.85
4903.6
5069.26
5249.23
-9.24315
-5.90921
-5.46648
-5.45077
-5.91169
-6.50912
-6.52391
-3.81384
-3.35565
-3.27078
-3.42329
-3.17928
-4.19213
-3.4941
-3.8305
-4.96568
-3.80624
-4.03772
-3.81891
-3.35661
-3.27723
-3.42579
-3.18151
-4.19039
-3.50037
-3.83332
-4.95472
-3.81955
-4.04251
-2.46626
-2.88727
-2.67351
-3.06417
-2.47503
-2.88707
-2.67601
-3.06553
12270.4
11775.4
8427.7
7225.71
6244.97
5741.62
7229.94
6252.3
5759.97
8427.82
7917.01
7901.96
5315.61
5694.05
5065.8
5563.03
5343.46
5945.78
5345.18
5713.31
5089.25
5351.59
5573.67
5953.54
4912.04
5019.86
4922.3
5023.87
-9.266
-5.51331
-5.88008
-5.49396
-5.88175
-6.46323
-6.47821
-2.9255
-3.25366
-3.45543
-3.20386
-3.56138
-3.80963
-4.11756
-3.89952
-4.12858
-3.81801
-4.05186
-4.43414
-4.43363
-4.80915
-2.92689
-3.27174
-3.2048
-3.46184
-3.57315
-3.81637
-3.92197
-4.10593
-4.13919
-3.84542
-4.06285
-4.43135
-4.41543
-4.80072
12576.3
9257.76
8479.03
8457.01
9271.21
8925.97
8897.75
6232.53
6253.73
5844.82
6303.51
5778.68
6885.16
6199.64
6612.54
6274.19
6260.96
5863.78
6311.22
5793.88
6897.16
6225.8
6621.7
7937.98
6397.27
6906.82
7936.08
6437.84
6921.31
5483.09
5756.55
5682.08
5990.91
5510.76
5768.3
5691.86
5996.91
-9.28326
-5.49196
-4.68789
-4.40324
-5.86099
-5.46665
-4.67917
-4.38501
-5.86254
-6.41424
-6.42985
-3.31364
-3.54392
-3.66205
-3.86796
-3.93341
-4.03113
-3.72759
-3.95397
-4.10178
-4.3138
-3.33432
-3.55079
-3.67619
-3.87419
-3.96289
-3.74935
-4.03428
-3.96207
-4.11024
-4.31396
12743.9
9323.95
8418.87
8392.15
9320.63
8893.05
8877.63
5796.81
6076.42
6062.35
6274.79
6394.62
6623.54
5815.78
6098.49
6069.05
6282.8
6418.5
6631.89
6849.62
6453.52
6875.3
6386.79
6846.17
7243.23
6850.94
7409.58
6870.69
6487.33
6889.56
6437.08
6863.17
7250.42
6860.18
7410.04
-9.29017
-6.36561
-6.38028
-5.42187
-4.63975
-4.41521
-4.62722
-4.41397
-5.8113
-5.4027
-4.62933
-4.39062
-4.61581
-4.39211
-5.81454
-3.8597
-3.94741
-4.09364
-4.00591
-4.08286
-4.29335
-3.88965
-3.96696
-4.08973
-4.01563
-4.08993
-4.29143
12905.2
9310.14
8406.9
7478.52
6994.08
8364.06
7474.26
6985.46
9323.66
8925.16
8912.76
6229.44
6384.26
6435
6623.45
6250.63
6390.56
6455.46
6631.89
6708.06
7067.81
6471.13
6885.92
6672.58
7372.04
6734.46
7063.84
6489.5
6680.14
6896.27
7371.48
-9.3122
-6.34267
-6.34415
-6.35949
-6.3607
-5.30928
-4.51452
-4.36869
-4.59219
-4.2916
-4.07379
-4.27216
-5.79559
-5.29218
-4.50956
-4.35697
-4.5845
-4.28652
-4.07405
-4.27187
-5.79831
-3.97512
-4.08971
-3.9897
-4.09362
12923
9312.19
9330.32
8412.43
7385.82
7009.78
7431.88
6988.31
8378.28
7381.9
7007.58
7428.65
6977.57
8920.53
8911.77
6825.77
6558.79
7072.04
6995.85
6711.4
7308.97
6866.16
6580.84
7069.48
6719.87
7008.07
7309.78
-9.34683
-6.3513
-6.36532
-6.36747
-6.38207
-5.7978
-5.80322
-5.25353
-4.42812
-4.15071
-4.36632
-4.20817
-4.17371
-4.04506
-4.24653
-3.96882
-3.93596
-4.07942
-5.23962
-4.42229
-4.14332
-4.36023
-4.20157
-4.17279
-4.04705
-4.24624
-3.97064
-3.95118
-4.08375
12920.8
9315.97
9304.8
9338.26
9333.44
8406.17
7436.59
6994.26
7432.42
7012.66
7057.59
7315.54
8376.46
7434.51
7004.02
7431.79
7009.47
7072.9
7321.78
8949.24
8938.72
6880.57
7081.92
6936.11
7098.64
-9.37791
-6.39684
-6.4618
-6.41218
-6.47435
-5.81587
-5.83923
-5.82152
-5.84296
-5.27127
-5.259
-4.34137
-4.10826
-4.33337
-4.11306
-4.08712
-3.81149
-4.03391
-3.86921
-4.03929
-3.90174
-4.05564
-3.85817
-4.33549
-4.10412
-4.32846
-4.10575
-4.08488
-3.80792
-4.03123
-3.86428
-4.03953
-3.91655
-4.05903
-3.86646
12914.9
9300.45
9288.85
9329.11
9314.45
8965.13
8959.93
8406.06
7435.16
6972.84
7427.08
7000.46
7368.61
7054.88
7337.37
7064.11
6872.53
7051.76
8380.62
7433.84
6982.8
7428.32
6998.32
7368.71
7074.23
7343.75
7071.73
6909.78
7063.48
-9.38339
-6.53494
-6.61429
-6.5452
-6.62759
-5.88817
-5.96035
-5.8918
-5.96367
-5.28804
-5.29787
-5.27763
-5.28799
-4.33793
-4.12863
-4.34108
-4.11794
-4.33
-4.12163
-4.33351
-4.10857
-4.05931
-3.69873
-4.00094
-3.79598
-4.05717
-3.69913
-4.00155
-3.79324
12854
9294.44
9315.46
9315.73
9334.65
8958.69
8948.77
8955.77
8944.6
8466.42
8442.16
7415.42
6978.43
7435.27
6989.57
7366.49
7030.5
7352.9
7063.33
7136.96
6887.21
7098.51
6901.38
7418.1
6997.18
7438.33
6998.12
7361.45
7039.8
7354.61
7049.67
7141.29
6925.37
7110.57
6921.44
-8.42375
-9.40066
-6.03913
-6.11657
-6.04069
-6.12149
-5.35815
-5.45576
-5.34678
-5.4423
-4.33452
-4.13368
-4.33691
-4.13813
-4.31301
-4.12682
-4.30006
-4.13047
-4.32741
-4.12718
-4.3295
-4.13213
-4.30747
-4.12656
-4.29582
-4.12679
-4.07062
-3.82334
-4.07352
-3.83606
-4.06819
-3.82362
-4.07199
-3.83296
12744.6
9363.37
9375.83
9375.1
9391.43
8956.79
8969.67
8949.23
8961.79
8455.7
8412.5
8432.22
8391.99
7362.64
6914.25
7330.66
6954.88
7360.18
6912.13
7327.17
6953.33
7384.85
7039.65
7363.17
7082.94
7386.83
7058.86
7367.91
7095.47
-8.54718
-5.74085
-5.8484
-5.73179
-5.84475
-9.39601
-5.56772
-5.65708
-5.54717
-5.64399
-4.33329
-4.13716
-4.29575
-4.17746
-4.38964
-4.29704
-4.46945
-4.22826
-4.33101
-4.13663
-4.29289
-4.17558
-4.38827
-4.29343
-4.46451
-4.22721
-4.11028
-3.87699
-4.092
-3.91416
-4.11782
-3.90971
-4.09903
-3.92461
-4.10952
-3.87437
-4.09
-3.91406
-4.11772
-3.91175
-4.09885
-3.92631
12650.3
11932.7
8975.81
8969.34
8966.56
8959.48
8464.92
8504.6
8438.58
8476.12
7291.21
6892.05
7315.31
6868.45
7244.92
6773.98
7198.29
6826.66
7290.03
6889.09
7311.31
6869.39
7247.21
6790.62
7201.37
6834.5
7361.67
7026
7343.08
7065.3
7361.72
7037.1
7343.66
7071.8
-8.59019
-5.92089
-6.02645
-5.92435
-6.03842
-5.21868
-5.37649
-5.21213
-5.35849
-9.42603
-4.53935
-4.34167
-4.50842
-4.35938
-4.62118
-4.46905
-4.79131
-4.38432
-4.53543
-4.32898
-4.50288
-4.3494
-4.61797
-4.46721
-4.78754
-4.37675
-4.15744
-3.95033
-4.12649
-3.9973
-4.18872
-4.11264
-4.24335
-4.04487
-4.15619
-3.9531
-4.12589
-4.00035
-4.18767
-4.10907
-4.24137
-4.04789
12407.1
11858.4
8590.77
8631.26
8564.66
8624.94
8520.33
8494.75
8480.01
8464.75
7200.76
6830.96
7218.41
6849.53
7209.75
6877.03
7231.3
6864.78
7199.19
6838.56
7219.11
6849.45
7206.99
6879.76
7228.04
6862.93
7313.01
6978.1
7327.06
6961.4
7232.69
6726.68
7139.65
6870.12
7314.9
6989.89
7327.71
6974.95
7239.16
6756.56
7150.71
6892.26
-7.7093
-8.75229
-5.45556
-5.54519
-5.44669
-5.54542
-4.05011
-4.26292
-4.1777
-4.04951
-4.22795
-4.48354
-4.18295
-4.51341
-4.09198
-4.32669
-4.06008
-4.25952
-4.18175
-4.06695
-4.23286
-4.48184
-4.18886
-4.51232
-4.10205
-4.32937
-9.45561
-4.28711
-4.14073
-4.26059
-4.15763
-4.34369
-4.15435
-4.28328
-4.13297
-4.25728
-4.14886
-4.33973
-4.14498
-3.98945
-3.86684
-4.00237
-3.837
-3.99228
-3.88471
-4.00739
-3.8509
12084.9
11668
8657.15
8668.58
8653.79
8677.57
7989.13
8095.93
7979.51
8077.72
7269.95
6922.07
7252.67
6950.46
7350.92
6754.74
7305.86
6967.64
7265.46
6911.55
7247.81
6937.24
7348.48
6761.83
7307.7
6956.69
7273.86
6933.8
7261.83
6981.85
7226.42
6949.9
7213.95
6950.16
7276.11
6955.64
7268.06
6992.56
7225.57
6953.85
7212.67
6952.35
-7.86863
-5.18967
-5.31747
-5.17842
-5.31231
-8.77055
-4.93837
-5.06756
-4.93126
-5.05793
-3.96595
-3.88428
-4.07347
-4.00788
-3.89542
-4.0304
-3.99837
-4.21663
-3.89451
-4.07182
-3.98079
-3.89429
-4.0786
-4.01293
-3.90577
-4.03573
-4.00201
-4.21868
-3.90031
-4.07518
-9.5769
-3.99883
-3.86129
-3.99319
-3.85916
-4.01764
-3.87189
-4.00495
-3.87704
-3.99763
-3.87953
-4.02172
-3.88348
11698
11368.5
10916.7
8224.1
8178.42
8212.63
8178.97
6539.28
6807.98
6911.73
6548.71
6952.65
7268.62
6547.28
7186.19
6643.62
7084.04
6813.66
6580.28
6929.41
6601.18
6971.23
7272.19
6585.59
7196.83
6678.77
7096.34
7225.34
6998.57
7237.07
7004.66
7245.11
6980.37
7224.02
7001.03
7236.25
7000.18
7242.83
6967.79
7048.32
6820.75
6994.05
6836.72
7048.07
6832.24
6996.13
6844.77
-8.06804
-5.4609
-5.44911
-5.45266
-5.45512
-4.64236
-4.76916
-4.63832
-4.75867
-8.98806
-4.01417
-3.85412
-3.95611
-3.85307
-4.11292
-3.9402
-4.2555
-3.89035
-4.01539
-3.85972
-3.95817
-3.85605
-4.11341
-3.94349
-4.25442
-3.89315
-3.83462
-3.96123
-3.77388
-3.89964
-3.72403
-3.88944
-3.85346
-3.96774
-3.78615
-3.90412
-3.7346
-3.89379
-9.54797
11281.8
10981.2
10590.7
7814.02
7796.27
7797.56
7796.6
7744.29
7736.76
7745.2
7734.71
6685.18
6548.01
6773.49
6870.25
6600.21
6808.83
6527.55
7015.88
6632.63
6890.88
6726.95
6584.48
6884.57
6786.9
6621.9
6819.33
6542.31
7019.95
6651.24
6896.44
6946.03
6871.77
7044.33
6828.69
6892.61
6766.92
6953.45
6880.67
7046.57
6853.11
6904.33
6800.21
-6.93253
-8.9852
-4.82296
-4.90569
-4.80284
-4.90116
-3.55343
-3.73569
-3.68559
-3.61442
-3.79418
-3.99723
-3.73956
-4.07235
-3.67466
-3.91068
-3.57145
-3.73845
-3.6935
-3.63001
-3.80164
-3.99972
-3.74408
-4.07392
-3.68606
-3.91615
-9.04753
-3.84876
-3.71873
-3.83136
-3.71682
-3.86366
-3.66254
-3.85076
-3.72365
-3.83511
-3.71885
-3.86708
-3.67257
-9.49286
10909.4
10553
10144.7
7691.48
7586.65
7690.31
7592.29
7399.28
7365.51
7399.21
7361.92
6779.3
6325.19
6741.06
6334.99
6806.43
6223.33
6888.95
6352.09
6782.86
6337.61
6745.29
6342.8
6811.78
6253.14
6897.02
6365.81
6547.61
6705.85
6440.61
6624.78
6492.96
6657.75
6588.56
6719.34
6446.87
6624.97
6506.93
6661.6
-7.85221
-4.53587
-4.81474
-4.5407
-4.83172
-8.58835
-4.38213
-4.39581
-4.37562
-4.39167
-3.48334
-3.36939
-3.62198
-3.56471
-3.39749
-3.57918
-3.46219
-3.74263
-3.39493
-3.6103
-3.50869
-3.39053
-3.63104