/*--------------------------------*- C++ -*----------------------------------*\
| =========                 |                                                 |
| \\      /  F ield         | OpenFOAM: The Open Source CFD Toolbox           |
|  \\    /   O peration     | Version:  5.x                                   |
|   \\  /    A nd           | Web:      www.OpenFOAM.org                      |
|    \\/     M anipulation  |                                                 |
\*---------------------------------------------------------------------------*/
FoamFile
{
    version     2.0;
    format      ascii;
    class       volScalarField;
    location    "2.8";
    object      p_rgh;
}
// * * * * * * * * * * * * * * * * * * * * * * * * * * * * * * * * * * * * * //

dimensions      [1 -1 -2 0 0 0 0];

internalField   nonuniform List<scalar> 
12160
(
5592.42
5710.11
5593.13
5734.54
5709.22
5594.5
5810.28
5735
5708.67
5596.25
5849.57
5809.97
5734.59
5707.81
5598.21
5902.6
5849.94
5809.16
5734.01
5706.24
5600.13
5945.29
5903.2
5850.42
5808.22
5733.51
5704.17
5602.67
5983.4
5946.29
5904.22
5851.32
5807.15
5732.66
5701.12
5605.08
6013.79
5984.74
5948.18
5905.84
5852.35
5806.22
5731.5
5676.23
3140.87
6035.64
6015.45
5987.38
5951.07
5907.94
5853.76
5805.05
5713.72
3849.6
319.367
6048.48
6037.53
6018.74
5991.38
5954.87
5910.66
5854.96
5797.44
4073.15
460.833
12.9781
6052.19
6050.44
6041.26
6023.73
5996.7
5959.74
5913.56
5850.94
4538.17
554.238
8.34717
0.259268
6047.27
6054.14
6054.36
6046.97
6030.36
6003.6
5965.15
5911.08
4843.84
807.567
9.58509
0.0872513
0.0504036
6034.31
6049.14
6058.04
6060.37
6054.4
6039.08
6011.46
5964.35
5157.51
1036.28
8.84096
0.0982719
0.0151633
0.0274159
6013.85
6036.08
6052.87
6063.96
6068.34
6064.46
6049.08
6013.17
5399.01
1350.39
23.0569
0.0237231
0.0322124
0.0125252
0.0153607
5986.21
6015.51
6039.59
6058.49
6071.84
6078.7
6075.88
6053.64
5588.14
1708.13
51.0974
-0.00158348
0.0358439
0.0275836
9.49456e-05
5952.12
5987.73
6018.82
6044.87
6065.93
6081.87
6091.3
6082.14
5719.53
2078.97
90.2765
0.0464779
-0.0222667
0.0122734
-0.00342804
5912.7
5953.4
5990.79
6023.81
6051.83
6075.3
6093.94
6098.65
5797.76
2412.67
140.347
0.133181
-0.0498081
-0.0179584
0.00386571
5869.44
5913.63
5956.01
5995.41
6030.41
6060.55
6086.29
6100.4
5833.59
2653.91
196.289
0.360303
-0.0656052
-0.0274463
-0.00381444
5824.32
5869.86
5915.53
5959.97
6001.61
6038.68
6070.68
6091.85
5823.82
2778.11
245.471
0.735994
-0.0735674
0.00308367
-0.0101877
5779.87
5824.1
5870.75
5918.43
5965.38
6009.47
6048.45
6075.46
5766.03
2794.91
272.702
1.18933
-0.0659103
0.011723
-0.0304445
5738.57
5778.92
5823.68
5872.13
5922.51
5972.34
6018.89
6052.28
5686.27
2734.17
270.936
1.5543
-0.0715928
-0.0163336
-0.0487065
5702.71
5736.9
5777.05
5823.09
5874.17
5927.85
5980.9
6020.69
5603.7
2627.9
251.024
2.57875
-0.0811305
-0.0247336
-0.0276351
5674.16
5700.38
5733.57
5774.22
5822.44
5876.96
5934.62
5978.32
5507.79
2488.12
227.01
4.53133
-0.0797699
-0.025825
-0.0253465
5654.02
5671.33
5695.75
5728.46
5770.51
5821.79
5880.63
5923.64
5378.93
2300.56
201.362
5.65068
-0.0679139
-0.0329211
-0.028219
5642.71
5650.9
5665.69
5688.58
5721.62
5765.89
5821.02
5852.97
5199.04
2046.18
171.725
6.00526
-0.0551293
-0.0419674
-0.0249142
5640
5639.51
5644.68
5656.94
5678.89
5712.87
5759.67
5765.25
4943.64
1724.74
139.304
5.65165
-0.046393
-0.0480034
-0.023097
5645.15
5636.91
5633.14
5635.01
5645.07
5666.35
5700.62
5664.54
4603.01
1356.14
104.328
4.91632
-0.0439541
-0.0535177
-0.0239416
5657.07
5642.33
5630.79
5623.24
5621.9
5629.62
5648.15
5553.54
4193.72
993.036
71.1744
3.53601
-0.0436358
-0.0571019
-0.0267839
5674.48
5654.65
5636.76
5621.28
5609.87
5604.77
5606.56
5441.82
3757.81
702.353
47.3547
2.1624
-0.0327218
-0.058708
-0.0311485
5695.98
5672.53
5649.88
5628.15
5608.51
5592.36
5578.89
5345.11
3356.62
492.306
31.4752
1.54717
-0.0240378
-0.04987
-0.0330564
5720.15
5694.54
5668.73
5642.51
5616.59
5591.84
5565.95
5278.07
3043.36
356.216
20.7648
1.21228
-0.000857514
-0.030407
-0.0288114
5745.67
5719.26
5691.83
5662.81
5632.63
5601.68
5567.05
5250.36
2844.96
274.897
14.3138
0.903326
0.0324656
-0.0126713
-0.0210324
5771.22
5745.32
5717.75
5687.46
5654.9
5620.02
5579.77
5262.57
2764.15
230.111
10.9768
0.670342
0.0705469
0.00569662
-0.010094
5795.6
5771.41
5745.07
5714.99
5681.81
5644.77
5601.89
5304.48
2794.41
209.096
9.4064
0.555754
0.0977521
0.0255084
0.00172218
5817.84
5796.44
5772.42
5744.03
5711.83
5674.18
5630.63
5367.46
2909.45
208.758
8.58191
0.520505
0.110669
0.0436696
0.0119718
5837.01
5819.23
5798.49
5773.22
5743.39
5706.93
5664.06
5438.73
3096.97
220.739
8.22723
0.486974
0.117011
0.058788
0.0184598
5852.3
5838.9
5822.26
5801.01
5774.86
5741.54
5701.02
5510.88
3329.6
245.256
8.26818
0.448028
0.116524
0.0652939
0.020405
5863.17
5854.65
5842.87
5826.51
5805.08
5776.37
5739.98
5581.92
3592.09
282.357
8.37888
0.409096
0.108089
0.066599
0.0221496
5869.09
5865.94
5859.51
5848.65
5832.63
5809.5
5778.83
5650.45
3886.62
341.677
8.78694
0.36046
0.0993892
0.0641597
0.022559
5872.25
5870.19
5871.63
5866.66
5856.71
5840.05
5815.8
5719.18
4182.57
442.392
10.3184
0.2686
0.0923092
0.0610004
0.020915
5878.7
5873.98
5840.56
5880.02
5876.5
5866.68
5849.3
5775.46
4420.62
605.932
14.4868
0.181137
0.090922
0.0546581
0.0181556
5888.23
5881.62
5845.27
5780.35
5891.47
5888.72
5878.82
5820.49
4629.14
836.842
24.6616
0.173508
0.0946937
0.0439894
0.0176901
5901.13
5892.94
5854.63
5786.24
5689.61
5905.69
5903.42
5857.71
4829.03
1087.48
43.7334
0.318701
0.0716118
0.0202939
0.0199772
5917.15
5908.07
5868.48
5797.93
5697.01
5565
5922.67
5888.54
5008.45
1315.99
70.2731
0.719187
0.0467057
0.00812625
0.0303077
5936.12
5926.81
5886.77
5815.07
5712.17
5575.86
5404.05
5912.85
5155.19
1517.61
98.7312
1.31095
-0.00046576
-0.00105306
0.0351824
5930.3
5948.63
5909.2
5837.49
5733.89
5597.25
5419.15
5195.58
5267.04
1695.39
126.581
2.08865
-0.0402689
-0.0110197
0.021592
5344.57
5947.64
5934.59
5864.44
5762.98
5627.46
5448.89
5218.51
4908.92
1845.78
151.729
2.99491
-0.0619704
-0.0259194
0.00786304
1963.7
5413.1
5935.38
5894.01
5796.33
5666.13
5491.36
5261.82
4947.36
4613.86
172.392
3.82052
-0.0655447
-0.0394068
-0.00197739
189.257
2098.03
5372.38
5891.19
5831.22
5710.96
5546.05
5321.33
5013.58
4689.66
3998.04
4.45615
-0.0610265
-0.046157
-0.00756917
5.09377
215.183
2085.01
5218.28
5815.95
5753.2
5607.16
5396.02
5102.37
4775.49
4139.13
3430.9
-0.0494155
-0.0468677
-0.010837
-0.0315374
7.04524
237.639
1929.28
4959.28
5724.24
5637.54
5467
5198.87
4866.39
4356.35
4090.79
2099.2
1877.4
-0.0415576
-0.0110064
-0.0318781
0.132815
14.645
229.821
1677.58
4686.68
5604.87
5452.42
5299.02
4958.36
4569.24
4335.42
2906.32
1150.21
1007.88
539.13
-0.00869121
-0.00585229
-0.00218084
2.37251
19.232
181.641
1424.78
4476.74
5340.85
5315.59
5079.92
4717.42
4464.74
3465.22
2126.77
287.695
132.377
-74.9205
-469.11
-0.00290784
0.508253
5.22284
15.8173
135.865
1273.85
4314.05
5002.63
5238.97
4863.54
4529.49
3922.41
2967.8
1412.77
-526.184
-811.24
-798.424
-1020.16
-1332.93
-0.0148873
1.51308
4.30589
8.68703
113.337
1250.23
3913.82
4879.43
5093.4
4649.33
4270.52
3640.6
2446.45
738.524
-1208.92
-1805.37
-1814.32
-1532.67
-1698.81
-1821.93
0.00115364
1.30397
0.980311
4.10149
102.254
1350.91
2965.54
5132.64
4907.65
4559.65
4176.28
3291.8
1897.17
178.398
-1621.57
-2644.25
-3001.1
-2744.77
-1623.07
-1668.08
-2002.57
0.102349
0.175667
0.107989
2.06308
133.858
908.314
2898.53
5261.27
4940.4
4650.73
3997.1
2877
1421.73
-206.273
-1570.3
-3123.83
-1568.09
-910.275
-908.441
-3950.29
-4061.59
-3300.6
-1057.07
-664.352
-1725.89
-0.0608643
0.0147675
-0.0807319
2.48992
148.037
365.847
4905.73
5408.7
5130.47
4606.81
3731.4
2510.67
1089.82
-416.452
-2246.83
-1655.98
-4522.94
-2244.85
-2954.06
-2953.08
-1654.68
-994.401
-993.34
-5111.29
-4915.04
-3180.21
-1106.91
-80.6195
-1015.05
-0.0105307
-0.0609038
-0.226404
8.34849
43.5026
739.033
5903.1
5606.63
5157.01
4465.58
3455.65
2238.72
878.533
-476.954
-477.519
131.846
132.54
-2310.79
-1756.72
-5749.37
-4787.92
-2309.4
-2938.62
-2937.07
-1760.59
-1108.5
-1111.99
-6076.3
-5492.9
-3041.13
-829.294
-298.249
-67.1546
-0.0245607
-0.14492
-0.34673
3.17809
0.716127
3233.74
6035.82
5666.41
5109.4
4276.7
3225.16
2026.64
718.092
718.808
1263.01
1263.55
-594.816
-596.245
48.9033
45.5377
-2392.63
-1367.67
-1702.82
-1652.1
-1422.33
-6748.34
-5928.73
-4044.21
-4044.24
-3541.08
-3541.59
-2396.14
-2983.94
-2985.48
-1368.67
-1704.44
-1654.27
-1422.56
-1068.18
-854.183
-762.882
-1130.61
-1070.51
-862.557
-767.166
-1134.83
-6725.49
-5770.85
-3371.23
-1173.22
-370.972
962.4
-0.0443309
-0.249613
-0.28507
-0.810994
12.8267
5251.98
6125.1
5680.74
4989.31
4090.06
3035.5
1789.24
1789.42
2289.99
2290.26
640.572
635.596
1208.47
1202.14
-661.211
-914.581
-635.622
-360.2
-305.064
-873.323
-915.049
-660.705
-635.795
-361.103
-305.849
-873.557
257.562
326.471
-45.8527
22.4402
257.923
326.142
-46.2453
21.816
-2218.41
-1979.94
-1937.9
-2256.82
-1463.93
-1761.35
-1747.69
-1483.48
-7432.4
-6793.68
-4922.14
-4922.53
-4511.36
-4511.21
-4009.5
-4011.29
-3529.94
-3531.53
-2220.53
-1984.51
-1940.83
-2260.48
-2486.91
-2813.84
-2774.96
-2523.03
-2488.3
-2818.14
-2777.71
-2524.73
-1464.3
-1760.68
-1747.62
-1483.2
-1183.81
-1206.27
-1184.18
-1206.28
-6962.76
-5636.13
-3694.14
-1350.09
727.503
1705.4
-0.0738038
-0.258006
-0.395621
-0.675393
255.212
5991.89
6160.42
5609.25
4843.71
3938.06
2741.66
2741.64
3191.24
3192.07
1757.25
1750.62
2276.86
2270.63
525.959
594.371
803.999
871.199
526.946
594.118
804.763
870.326
1381.66
1454.56
1090.59
1161.78
1382.67
1453.61
1091.34
1160.98
-977.43
-656.034
-622.671
-956.617
-351.379
-324.47
-975.737
-654.274
-955.865
-622.284
-350.389
-324.132
250.236
282.454
-48.8082
-24.4126
251.192
282.691
-47.9724
-23.9995
-2277.52
-2034.78
-2022.8
-2289.1
-1524.06
-1833.46
-1814.86
-1542.96
-7643.5
-7348.52
-5598.92
-5599.95
-5302.63
-5303.48
-4814.33
-4816.67
-4435.19
-4437.33
-3676.08
-3652.94
-3488.45
-3461.08
-3676.16
-3653.11
-3489.44
-3461.57
-3026.37
-2787.71
-3010.84
-3282.26
-3252.9
-2752.26
-3025.92
-2788.23
-3011.14
-3283.36
-3253.52
-2752.46
-2277.79
-2033.58
-2022.57
-2288.56
-2525.77
-2547.16
-2526.07
-2547.12
-1524.18
-1832.95
-1814.49
-1543.32
-1273.22
-1296.03
-1273.21
-1295.37
-6683.1
-4936.31
-2711.09
-121.884
1520.56
2150.51
-0.132427
-0.270688
-0.250866
8.20365
1135.97
5980.33
6099.56
5493.62
4712.57
3607.69
3608.62
4021
4021.16
2740.39
2736.96
3183.46
3183.13
1649.76
1725.9
1910.66
1991.36
1649.67
1724.69
1911.5
1990
2376.1
2496.81
2158.17
2244.06
2374.91
2494.51
2158.01
2242.46
495.445
529.624
802.93
830.125
497.85
530.387
806.033
831.353
1420.76
1440.14
1104.82
1126.14
1424.65
1441.5
1108.13
1127.79
-2334.23
-2111.38
-2090.65
-2357.94
-7341.73
-7506.45
-6025.07
-6025.7
-5865.12
-5866.26
-5423.2
-5425.73
-5164.2
-5167
-4371.32
-4348.63
-4191.82
-4171.97
-4372.26
-4349.38
-4192.57
-4172.45
-3870.34
-3855.11
-4028.62
-4005.67
-3869.93
-3855.01
-4030.25
-4006.52
-3672.21
-3643.73
-3505.71
-3476.96
-3670.37
-3642.98
-3505.35
-3476.76
-2820.66
-3102.17
-3070.1
-2791.51
-3302.63
-3271.18
-2818.54
-3100.49
-3069.55
-2790.81
-3301.6
-3270.78
-2334.13
-2109.95
-2090.01
-2357.44
-2576.93
-2600.52
-2576.97
-2600.04
-5905.9
-3796.44
-1422.75
806.753
2022.84
2405.43
-0.245321
-0.169635
9.69917
63.4165
1324.12
5653.62
6007.34
5387.54
4633.7
3597.84
3598.12
3985.95
3986.27
2789.5
2787.73
3230.12
3227.8
1694.27
1713.26
1966.43
1987.26
1697.03
1714.45
1968.94
1988.35
2437.3
2492.43
2216.34
2241.65
2437.35
2492.17
2217.67
2242.45
1506.57
1539.61
1511.42
1541.22
-6570.96
-7198.78
-6191.82
-6190.87
-6152.03
-6152.52
-5755.66
-5758.72
-5627.1
-5631.01
-4928.1
-4885.29
-4795.47
-4775.18
-4931.28
-4886.47
-4798.53
-4776.27
-4543.82
-4531.05
-4665.1
-4649.02
-4545.36
-4531.68
-4668.33
-4650.54
-4299.56
-4286.7
-4176.12
-4164.31
-4296.12
-4285.39
-4172.5
-4162.65
-3848.39
-3827.58
-4026.57
-4008.24
-3846
-3826.66
-4023.3
-4006.94
-4754.22
-2516.43
-187.091
1464.54
2292.45
2502.19
-0.518114
6.0151
49.7081
121.88
771.857
4912.31
5904.7
5293.51
4359.36
4359.85
4701.45
4702.63
3640.35
3636.96
4006.16
4007.42
3007.67
2731.48
2781.89
2943.06
3007.29
2731.7
2782.11
2942.65
3220.46
3341.38
3411.53
3151.68
3219.46
3340.96
3409.84
3150.72
1726.97
1753.24
2012.22
2037.94
1731.38
1754.96
2015.45
2039.2
2507.28
2529.58
2273.44
2299.85
2510
2530.44
2276.2
2301.07
-5440.3
-6478.85
-6520.98
-5828.3
-5830.73
-5846.7
-5850.67
-5427.28
-5428.71
-5325.73
-5326.64
-4791.01
-4734.78
-4687.34
-4662.73
-4787.65
-4733.86
-4684.1
-4661.4
-4451.08
-4439.42
-4570.9
-4559.91
-4447.11
-4437.67
-4567.43
-4558.47
-4308.32
-4292.59
-4304.82
-4291.35
-3433.51
-1105.88
681.492
1879.05
2365.78
2475.3
-0.280484
26.3354
68.0614
119.002
778.214
2964.73
5598.98
5005.27
4394.82
4391.5
4701.77
4700.2
3529.2
3598.96
3798.28
3696.68
3526.82
3596.64
3795.93
3695.64
4068.6
4065.24
3066.74
2830.44
2853.09
3050.36
3066.53
2832.63
2853.61
3049.56
3257.2
3424.67
3440.74
3242.85
3257.25
3426.09
3441.19
3243.36
2606.82
2635.65
2612.13
2637.15
-4110.93
-5438.03
-5825.14
-5291.78
-5290.96
-5426.51
-5428.75
-5484.11
-5486.97
-5514.51
-5519.08
-4872.6
-4932.96
-4933.65
-4878.06
-4871.66
-4930.18
-4932.97
-4875.57
-4781.93
-4735.93
-4724.72
-4799.78
-4780.42
-4733.02
-4722.83
-4797.26
-4666.04
-4627.45
-4609.08
-4579.62
-4662.03
-4626.08
-4605.42
-4578.05
-4413.14
-4399.7
-4506.25
-4480.3
-4407.86
-4397.79
-4501.36
-4478.57
-1974.97
220.65
1271.59
2150.6
2346.14
2.72439
25.905
21.6995
85.9763
559.523
2043.24
3584.17
4635.27
4633.99
4058.05
4055.68
4287.34
4339.82
4426.35
4505.05
4287.77
4339.1
4427.51
4504.22
4736.94
4735.66
3602.55
3621.02
3810.57
3761.1
3602.41
3620.83
3809.5
3760.35
4137.23
4191.51
3993.42
4036.64
4140.25
4191.19
3994.86
4036.28
3348.41
3498.95
3521.17
3321.9
3348.73
3502.68
3522.44
3323.93
-2828.1
-4176.64
-4872.91
-4914.86
-4916.37
-4924.29
-5052.79
-5059.96
-5127.46
-5130.33
-4980.4
-4968.22
-4961.11
-5050.19
-4979.24
-4966.81
-4961.51
-5052.8
-4695.16
-4774.57
-4743.79
-4720.96
-4694.01
-4770.46
-4742.51
-4717.53
-4627.51
-4668.81
-4633.76
-4658.37
-4625.8
-4664.45
-4632.11
-4654.28
-4636.66
-4591.42
-4632.41
-4590
-421.017
748.759
1783.78
2215.71
3.3729
1.14279
5.07676
63.0725
427.479
1166.02
1636.42
1634.92
1819.38
1820.41
4268.04
4268.74
2952.26
2953.34
4342.63
4358.34
4459.65
4499.28
4342.72
4358.45
4459.68
4499.34
4651.13
4362.27
4806.68
4509.5
4651.13
4363.3
4806.12
4509.41
3671.5
3692.56
3855.48
3838.4
3670.87
3692.41
3855.11
3838.16
4214.27
4226.27
4080.69
4093.32
4215.77
4226.69
4082.13
4093.79
-1496.22
-3017.84
-3747.39
-3993.82
-4207.78
-4206.34
-4398.7
-4401.02
-4539.37
-4538.65
-4630.86
-4544.48
-4680.51
-4476.08
-4623.61
-4541.64
-4675.74
-4475.08
-4619.51
-4578.41
-4633.97
-4608.35
-4845.4
-4708.45
-4607.88
-4575.24
-4624.85
-4604.94
-4840.33
-4707.6
-4796.8
-4749.33
-4791.13
-4747.38
-4630.44
-4678.58
-4648.24
-4666.04
-4629.34
-4673.94
-4646.87
-4662.92
459.566
1008.91
2049.26
-0.627199
-0.571208
2.78777
36.1158
256.891
614.862
1627.1
1598.93
1839.38
1839.67
3409.13
4261.92
4238.25
2743.01
3851.72
4806.77
4263.83
3416.01
4806.88
4252.08
2751.88
3852.36
1123.03
1815.6
1394.94
2135.05
1141.97
1812.29
1417.93
2140.29
4394.04
4405.58
4506.53
4519.71
4395.32
4406.18
4507.39
4520.11
4665.87
4369.27
4666
4369.57
3951.13
3930.41
3951.05
3930.91
4276.25
4289.1
4278.82
4289.87
-146.851
-1996.09
-2718.2
-3058.07
-3626.13
-3623.15
-3952.64
-3955.51
-3799.3
-3805.2
-3976.77
-3974.66
-4145.25
-4318.01
-4048.45
-4268.27
-4325.66
-4508.16
-4141.21
-4302.97
-4044.51
-4260.04
-4323.34
-4501.51
-4465.09
-4405.84
-4458.19
-4402.99
-4459.08
-4421.26
-4512.79
-4632.49
-4472.94
-4597.27
-4449.98
-4418.32
-4506.59
-4624.04
-4470.52
-4594.37
-4615.46
-4587.79
-4609.1
-4585.39
478.153
1353.2
-0.660397
-0.0925458
1.03251
9.84813
46.0906
232.006
234.067
76.1996
75.6392
1759.31
1715.12
1168.47
1194.98
3994.41
2490.36
3376.07
4643.84
1387.85
1839.47
3998.58
2509.2
4647.72
3359.25
1408.25
1818.7
647.794
1935.81
660.695
1189.41
640.509
1877.7
654.34
1172.59
4493.79
4571.12
4493.97
4571.28
317.15
-619.346
-1913.16
-2223.74
-2248.96
-3344.18
-3348.02
-3594.83
-3608
-3867.25
-3490.69
-3841.99
-3647.58
-3851.47
-3487.3
-3829.88
-3642.29
-3978.88
-4162.71
-3818.26
-3907.3
-3737.92
-3941.92
-3966.51
-4152.8
-3813.57
-3888.88
-3732.1
-3938.61
-4025.62
-4226.99
-4115.7
-4294.99
-4024.31
-4225.02
-4112.64
-4290.26
-4355.78
-4305.61
-4348.63
-4302.8
-4399.03
-4351.42
-4536.27
-4496.56
-4390.68
-4348.86
-4529.08
-4493.91
597.433
-0.0878228
0.0905605
0.384563
3.03253
23.3892
57.4101
56.8777
29.0589
28.8342
985.668
1465.32
2369.25
1068.37
1012.73
1363.47
2415.6
1108.57
300.842
307.035
1140.83
2762.07
754.914
1875.17
981.072
2761.39
685.53
1861.3
-56.5295
-62.0944
-1211.28
-1537.4
-1582.03
-2567.92
-2555.2
-2856.22
-2858.26
-3104.14
-3104.48
-3278.34
-3284.34
-3697.8
-3428.28
-3643.15
-3560.63
-3685.66
-3424.2
-3634.21
-3556.89
-4048.3
-3829.43
-3900.4
-3740.98
-3718.32
-3645.41
-4038.37
-3819.15
-3737.33
-3897.39
-3710.63
-3642.17
-4111.17
-4174.14
-4110.49
-4172.07
-0.00368453
0.160025
0.752973
2.34069
8.60905
8.61186
5.10273
5.09435
37.9544
37.7357
13.1859
13.045
645.682
1363.48
2190.4
699.716
669.091
1353.33
2331.4
755.513
61.2455
72.8205
164.391
151.216
61.2364
73.9889
170.439
154.216
1531.7
2735.45
1365.27
2736.14
-453.642
-724.726
-974.343
-1004.03
-860.56
-2385.71
-2384.47
-2582.39
-2596.85
-2803.74
-2813.32
-3080.23
-3480.15
-3267.68
-3503.24
-3081.36
-3477.72
-3266.4
-3506.78
-3507.34
-3412.2
-3578.16
-3501.99
-3495.33
-3408.28
-3569.55
-3498.74
-0.00840261
0.348919
0.971818
2.96608
6.53181
6.5314
5.47249
5.45826
62.156
92.2557
13.2113
22.58
22.5759
12.91
62.8095
93.1817
13.1712
22.3407
22.2712
12.8246
9.31967
9.31471
302.6
1048.92
1023.52
417.28
317.851
1099.57
1101.22
455.724
79.3406
94.6901
81.4456
95.3069
-494.352
-562.299
-469.983
-382.782
-1793.29
-1780.8
-2048.67
-2050.3
-2269.71
-2259.73
-2368.86
-2386.05
-3203.1
-2713.71
-3123.61
-2889.81
-3359.49
-3042.72
-3178.58
-2710.16
-3108.96
-2884.97
-3356.8
-3041.93
-3332.22
-3224.41
-3322.57
-3221.51
-3398.8
-3322.41
-3386.46
-3319.27
0.105299
0.581156
1.53784
5.35536
5.33381
4.58159
4.56613
8.22477
8.22469
6.43947
6.4256
45.5451
79.5305
13.1974
17.723
30.4492
11.3946
45.4105
81.3081
13.2208
17.5545
30.2132
11.3564
8.27713
8.05445
8.54606
8.50067
8.29344
8.07112
8.56083
8.48467
-352.022
-123.678
220.08
304.299
-1630.64
-1633.37
-1833.17
-1856.65
-1994.47
-2005.48
-3051.86
-2672.75
-2363.8
-2854.68
-2564.39
-2873.5
-2366.34
-2852.03
-2563.6
-2876.09
-3040.25
-2670.04
-2999.26
-3171.97
-2834.72
-3058.37
-2993.5
-3158.77
-2832.26
-3054.95
-3239.1
-3163.51
-3225.49
-3160.76
0.145164
0.885136
2.27872
4.81538
4.81001
4.3735
4.35199
8.35583
8.11679
6.47338
6.68676
9.32299
6.18273
8.32751
8.13814
6.62677
6.77246
9.37252
6.21456
5.36157
5.36556
10.3304
9.64855
10.6008
9.61402
8.62346
8.30959
8.59435
8.33404
24.8474
503.741
883.978
-996.238
-977.89
-1336.39
-1340.18
-1521.86
-1523.02
-1674.32
-1683.16
-2626.42
-2061.1
-2604.77
-2271.88
-2787.09
-2390.95
-2601.85
-2787.22
-2390.89
-2056
-2596.84
-2269.11
-2856.87
-2684.22
-2746.64
-2566.92
-2740.02
-2848.11
-2566.82
-2680.99
0.210345
0.939227
1.83594
4.3142
4.33469
3.82808
3.82744
7.42352
8.14522
5.94132
6.29395
6.2647
5.97495
7.48067
8.48315
5.96095
6.31798
6.62923
5.98901
4.97323
4.83558
5.09358
4.95295
4.97928
4.84417
5.09742
4.95353
8.45377
8.3252
8.44912
8.34618
565.621
1161.44
1529.72
-840.728
-836.799
-1074.6
-1093.75
-1318.95
-1320.72
-2478.66
-2066.41
-1795.42
-2284.31
-1966.89
-2347.24
-2462.6
-2060.58
-1794.13
-2281.16
-1964.2
-2345.41
-2442.35
-2637.14
-2234.38
-2430.36
-2629.54
-2428.32
-2442.44
-2233.42
0.301645
0.853761
3.22924
3.69591
3.71379
3.23033
2.87262
2.86237
4.19642
4.88252
4.73252
4.21549
4.89238
4.73507
7.06226
6.86537
5.0963
5.75444
5.36733
5.24727
7.10257
7.33736
5.08984
5.75882
5.40156
5.24408
5.02735
4.86837
5.02943
4.86731
1164.67
1733.88
2023.86
-614.19
-605.571
-903.888
-907.985
-2187.33
-1566.8
-2065.64
-1719.97
-2204.04
-1820.69
-2157.37
-2196.3
-1816.57
-1558.03
-2043.22
-1711.85
-2276.09
-2122.93
-2137.32
-2006.71
-2260.29
-2118.06
-2121.32
-2000.53
-2330.27
-2186.7
-2323.89
-2184.11
0.309319
0.77845
3.65931
3.16789
3.68341
3.19079
2.85263
2.85177
4.52352
4.73633
4.80285
4.8203
4.68392
4.61008
4.40659
4.31109
4.74388
4.53314
4.85115
4.82913
4.68644
4.64896
4.41276
4.33669
5.08626
5.23968
5.08379
5.2403
4.9288
4.82048
4.93068
4.82036
1760.5
2226.55
52.6509
-473.476
-482.737
64.9992
-173.425
-160.124
-771.129
-2027.3
-1555.12
-767.853
-2000.34
-1545.03
-2018.57
-1890.64
-1906.18
-1707.18
-1994.09
-1897.59
-1876.3
-1701.33
-2188.92
-2096.6
-2045.84
-1969.69
-2169.54
-2090.51
-2016.48
-1961.03
0.137335
0.71831
3.56809
4.37833
4.35178
3.13493
3.61018
4.44127
4.36705
3.18023
2.84974
2.84954
4.69432
4.49239
4.88481
4.88522
4.85739
4.59086
4.6959
4.88684
4.51167
4.90559
4.90896
4.64406
4.98514
5.1113
4.98231
5.10874
2311.84
2703.74
156.473
-413.088
-403.932
169.291
4.24071
-0.939924
-1706.53
-1929.53
-1469.24
-1983.15
-1533.2
-1296.96
-1749.83
-1149.73
-1687.52
-1898.74
-1456.97
-1952.98
-1521.55
-1287.49
-1712.53
-1140.72
-1913.69
-1848.47
-1848.92
-1660
-1902.99
-1844.42
-1832.1
-1653.35
0.236241
2.80841
2.87766
2.88123
2.77133
2.47347
2.4579
3.91239
4.23102
4.16437
4.01949
4.29393
3.66403
4.04094
3.78086
3.06214
3.92333
3.75505
3.94799
4.32572
4.17377
4.02183
4.31745
3.70612
4.03571
3.79886
3.08993
3.92883
3.81867
4.65624
4.40757
4.70101
4.2825
4.66882
4.42621
4.78338
4.34103
2813.48
3022.4
247.845
-307.351
-1132.96
-1554.19
-292.354
-1125.62
-1533.87
250.898
79.2486
71.6699
-1736.06
-1477.18
-1854.45
-1496.48
-1577.67
-1264.26
-1708.25
-1462.18
-1830.95
-1569.59
-1485.85
-1256.52
-1876.32
-1771.3
-1865.88
-1767.31
0.212745
2.8766
2.84662
2.86144
2.8072
2.51992
2.50392
4.37946
4.13645
3.94547
4.09508
4.00608
3.80822
3.76067
4.28259
4.29824
3.94305
3.77789
3.69486
3.6269
3.28513
4.38499
4.1184
4.09722
3.93945
4.00678
3.82501
4.36711
3.76659
4.31928
3.93785
3.80142
3.71063
3.63904
3.26725
3143.68
356.538
281.962
262.679
368.959
327.745
295.167
-1296.8
-1119.89
-1386.63
-1064.8
-1470.28
-813.17
-1171
-913.492
-1232.34
-1112.67
-1360.1
-1057.1
-1451.35
-801.062
-1130.53
-904.347
109.322
-1122.9
-781.064
116.382
-1059.69
-766.54
-1593.49
-1399.62
-1412.61
-1237.81
-1570.29
-1391.04
-1402.84
-1231.84
0.193206
2.93638
3.42994
3.67076
2.86789
2.9161
3.41443
3.67016
2.82664
2.56705
2.5501
4.09867
3.87769
4.8205
4.32921
5.14111
3.86374
7.94741
5.85417
5.27959
3.96078
4.07802
3.86787
4.89484
4.34765
5.37178
8.24432
3.87561
5.86876
5.30299
3.97871
3345.48
398.276
180.372
152.381
388.657
299.484
277.759
-1364.65
-1163.66
-1195.51
-1106.48
-964.565
-891.708
-1343.68
-1130.69
-1188.82
-1098.49
-926.379
-883.381
-825.411
-1033.61
-807.323
-1100.73
-835.927
-610.357
-1059.55
-625.645
-790.71
-975.369
-793.079
-1025.97
-818.921
-603.129
-1038.87
-625.104
0.185446
2.60975
2.59505
3.02256
3.46418
3.69732
3.44037
3.67831
2.8652
2.99336
3.46777
3.69135
3.4527
3.67237
2.84362
10.7501
5.02498
3.78618
6.90497
5.61428
3.70143
11.2675
5.18243
3.79287
6.87705
5.62729
3.70913
3498.07
392.632
178.496
-554.204
-924.999
136.7
-558.411
-922.005
401.958
329.678
310.414
-1019.35
-1019.2
-914.851
-900.943
-984.011
-1012.91
-880.766
-892.536
-778.017
-609.809
-894.274
-792.346
-878.534
-476.858
-734.691
-602.253
-860.801
-870.989
-781.979
-477.396
0.162717
2.63048
2.62762
2.61368
2.61116
3.11873
3.54784
3.74944
3.47646
3.81684
3.80875
3.60654
2.84908
3.08819
3.54886
3.73065
3.48224
3.79367
3.80096
3.60583
2.84072
3.81582
3.80074
3.8155
3.80173
3509.4
402.399
418.991
184.532
-649.056
-869.072
-607.586
-883.353
147.238
-652.926
-851.565
-610.779
-876.455
329.31
316.51
-658.99
-817.736
-599.3
-688.095
-861.418
-545.74
-600.163
-780.203
-591.678
-852.95
-675.873
-544.92
0.129605
2.61816
2.60435
2.60201
2.5876
2.83181
2.82594
3.11611
3.65081
3.94764
3.73591
3.90367
3.70119
3.84893
3.63839
3.91164
3.80626
3.66281
3.08754
3.6385
3.91711
3.70285
3.87623
3.69733
3.83699
3.63575
3.9031
3.79107
3.65849
3487.21
419.978
429.117
439.612
449.255
190.81
-589.101
-886.962
-606.113
-863.314
-629.883
-552.531
152.907
-591.163
-848.224
-606.706
-840.363
-602.338
-546.234
358.481
346.427
-624.74
-626.044
-550.771
-609.341
0.100856
2.57497
2.51396
2.55963
2.5014
2.80967
2.78541
2.80399
2.78163
3.02279
3.03087
3.72384
3.95864
3.76513
3.95979
3.78673
4.09533
3.85123
4.02048
3.73954
3.86376
3.70988
3.91753
3.71093
3.93389
3.74148
3.93185
3.78119
4.07443
3.84351
4.01131
3.73621
3.84899
3.7065
3.90848
3507.6
426.185
414.359
450.079
432.948
375.354
368.393
187.696
-574.188
-868.167
-574.767
-853.202
-493.114
-642.867
-538.069
-615.683
-659.875
-684.882
160.378
-575.493
-825.82
-573.513
-826.696
-492.958
-613.119
-531.605
-596.927
-605.944
-673.163
0.0960049
2.44441
2.36679
2.43413
2.35348
2.73946
2.67484
2.73577
2.67146
2.99138
2.97456
3.00123
2.98427
3.70397
3.89859
3.68592
3.9088
3.70561
3.90489
3.69408
3.91613
3.84595
4.20351
3.89309
4.11316
3.83775
4.18675
3.88608
4.09487
3492.62
401.785
394.104
416.915
410.083
371.233
364.477
364.249
354.908
233.953
210.97
-594.939
-859.992
-569.085
-862.808
-486.028
-629.105
-504.755
-600.986
-631.944
-667.743
-661.406
-656.997
-589.971
-811.175
-564.92
-826.086
-490.862
-602.103
-502.048
-603.269
-627.622
-615.363
-649.355
-625.012
0.388487
0.0792346
2.60211
2.52719
2.60049
2.52221
2.91562
2.83435
2.92692
2.84773
3.68434
3.88816
3.68752
3.88009
3.69885
3.87794
3.70533
3.88093
3.69106
3.89442
3.69443
3.88589
3.70408
3.87805
3.7092
3.88448
3.82911
4.06943
3.8253
4.05375
3.82923
4.06923
3.82541
4.05645
3337.7
418.827
435.998
430.466
447.08
375.969
385.851
362.015
370.543
217.934
182.152
192.979
158.495
-652.606
-961.358
-686.645
-910.626
-653.21
-949.149
-688.709
-889.875
-489.501
-619.995
-503.797
-575.22
-481.356
-575.77
-496.035
-534.293
0.270755
2.56065
2.45762
2.56966
2.46126
0.0851172
2.73025
2.64194
2.75071
2.65493
3.67637
3.86465
3.70645
3.83226
3.63666
3.74183
3.56951
3.79814
3.67857
3.8651
3.70909
3.83405
3.638
3.74543
3.57441
3.79913
3.77718
4.01432
3.80089
3.97299
3.76139
3.95901
3.77007
3.95444
3.77783
4.01681
3.80244
3.97308
3.76145
3.95692
3.77008
3.95272
3193.09
3169.42
386.61
370.276
367.119
353.977
245.369
301.775
214.557
265.251
-723.682
-994.623
-701.592
-1036.79
-765.344
-1112.97
-804.898
-1079.94
-724.099
-992.229
-704.556
-1040.21
-763.28
-1116.59
-803.085
-1084.8
-513.578
-632.769
-527.355
-593.384
-505.814
-593.673
-518.319
-557.879
0.233515
2.39283
2.29325
2.38937
2.28129
2.73004
2.58114
2.73655
2.59905
0.0559424
3.4956
3.69796
3.53132
3.6756
3.4117
3.56615
3.24402
3.6486
3.49946
3.71063
3.53681
3.68546
3.41485
3.56792
3.24771
3.65603
3.69554
3.90735
3.73146
3.85558
3.67403
3.76321
3.63256
3.81782
3.69676
3.90454
3.73193
3.85254
3.67508
3.76683
3.63454
3.81484
2935.57
3147.05
505.49
576.385
423.753
510.747
404.853
372.411
321.6
295.263
-808.249
-1049.95
-781.141
-1054.95
-816.474
-980.371
-807.597
-1052.57
-810.227
-1066.05
-782.547
-1063.8
-819.204
-977.919
-810.821
-1048.92
-559.536
-685.565
-540.804
-719.109
-643.568
-932.262
-725.727
-811.895
-553.499
-650.289
-532.999
-698.099
-636.866
-931.645
-717.75
-805.11
0.452545
0.0744763
2.51565
2.43592
2.52445
2.43565
3.6328
3.59069
3.50524
3.63227
3.4539
3.37013
3.51487
3.18454
3.59554
3.3609
3.62286
3.59406
3.50119
3.61484
3.44896
3.3718
3.50885
3.18551
3.58545
3.35818
0.0272669
3.5675
3.72763
3.60783
3.69691
3.50551
3.69478
3.57133
3.73543
3.61114
3.70571
3.50946
3.70417
3.77969
3.89348
3.75797
3.93212
3.77686
3.87565
3.75295
3.91825
2618.01
2931.33
684.432
969.565
603.845
934.632
615.019
677.946
559.423
623.995
-738.712
-726.474
-781.568
-329.838
-654.731
-631.285
-729.398
-298.05
-749.575
-811.872
-788.295
-516.611
-662.945
-778.815
-727.497
-475.577
-570.248
-672.573
-586.508
-614.908
-632.127
-692.859
-651.853
-717.538
-576.586
-703.115
-589.402
-656.245
-636.662
-737.156
-659.809
-754.11
0.313884
2.46181
2.34614
2.47303
2.35116
0.0879863
2.68694
2.57105
2.69401
2.58062
3.71231
3.66743
3.60482
3.54383
3.62841
3.49344
3.52706
3.30883
3.62036
3.44306
3.69749
3.65743
3.59968
3.53879
3.61811
3.48814
3.52346
3.30679
3.61459
3.43971
-0.0919016
3.70887
3.87565
3.74377
3.84851
3.6668
3.81253
3.70275
3.85993
3.73934
3.82817
3.66273
3.80098
2268.88
2618.98
3224.84
743.346
792.468
725.885
792.798
-36.1009
-3.6362
-472.039
-27.1668
-489.39
-429.918
-56.1364
-458.411
50.4881
-452.914
-64.4674
3.72485
-443.394
24.0299
-463.226
-431.199
-9.81428
-447.591
94.0058
-436.075
-431.427
-443.125
-563.949
-96.1249
-371.812
37.5928
-474.057
-511.778
-590.193
-184.554
-398.255
-52.0747
-716.37
-571.241
-743.165
-591.56
-720.795
-614.926
-755.667
-632.79
0.598467
2.21002
2.22646
2.21777
2.22037
2.66447
2.55528
2.66856
2.56562
-0.099203
3.35886
3.51377
3.4118
3.52008
3.26459
3.44223
3.12702
3.48726
3.35764
3.50823
3.40976
3.51711
3.2641
3.43894
3.12806
3.48446
3.73879
3.61219
3.60652
3.48078
3.67874
3.51333
3.71997
3.60568
3.59431
3.47632
3.6682
3.509
-0.0640168
1951.36
2407.75
2620.66
745.56
726.471
737.576
728.705
733.88
616.41
740.974
625.313
75.1258
86.5443
-199.865
-350.643
159.232
-136.492
70.6897
-259.191
114.523
-230.333
113.758
121.636
-321.02
-181.81
180.217
-119.007
92.7164
-253.731
134.407
-221.423
-188.801
-265.72
-524.772
73.7669
-132.36
168.533
-256.428
-336.479
-574.879
26.7097
-137.03
178.116
2.74591
-0.313816
2.51182
2.44551
2.53175
2.4461
3.49074
3.47367
3.3586
3.44281
3.26301
3.21219
3.33207
2.99919
3.39123
3.15507
3.47283
3.47099
3.35072
3.42733
3.25559
3.20971
3.32746
2.99754
3.3798
3.14957
-0.175751
3.37914
3.53849
3.42586
3.51107
3.34603
3.54712
3.37716
3.5336
3.42213
3.5091
3.34263
3.53715
-0.00984312
1612.12
2545.26
2337.43
499.098
349.693
519.991
379.451
418.836
334.302
450.076
376.763
-323.448
-30.0839
-298.992
-32.9862
-396.305
-546.168
-436.047
-126.036
-306.722
-23.2897
-295.134
-28.2192
-369.949
-494.085
-424.335
-98.7855
71.6724
-128.45
80.6935
-162.281
158.684
-45.7402
107.979
-110.698
80.867
-169.347
169.181
-16.1475
5.43356
3.48643
8.24743
3.54756
8.24942
0.345128
2.61254
2.65801
2.619
2.65475
3.57524
3.55095
3.43664
3.35566
3.50468
3.32299
3.43671
3.15629
3.50288
3.28751
3.54996
3.5299
3.42759