/*--------------------------------*- C++ -*----------------------------------*\
| =========                 |                                                 |
| \\      /  F ield         | OpenFOAM: The Open Source CFD Toolbox           |
|  \\    /   O peration     | Version:  5.x                                   |
|   \\  /    A nd           | Web:      www.OpenFOAM.org                      |
|    \\/     M anipulation  |                                                 |
\*---------------------------------------------------------------------------*/
FoamFile
{
    version     2.0;
    format      ascii;
    class       surfaceScalarField;
    location    "2.8";
    object      phi;
}
// * * * * * * * * * * * * * * * * * * * * * * * * * * * * * * * * * * * * * //

dimensions      [0 3 -1 0 0 0 0];

internalField   nonuniform List<scalar> 
30582
(
9.78123e-06
4.42324e-06
-1.42188e-06
1.12031e-05
9.89555e-06
8.7478e-06
-1.23836e-05
1.09617e-05
-1.60904e-06
2.27077e-05
1.00595e-05
1.294e-05
-2.9409e-05
1.70254e-05
-1.2713e-05
2.20657e-05
-1.75991e-06
3.45271e-05
9.82396e-06
1.7415e-05
-4.74328e-05
1.80238e-05
-3.02147e-05
3.45271e-05
-1.26959e-05
3.30017e-05
-3.36404e-06
4.77151e-05
1.01229e-05
2.16538e-05
-6.57962e-05
1.83634e-05
-4.84953e-05
3.63044e-05
-3.02013e-05
5.20325e-05
-1.56389e-05
4.52766e-05
-3.92324e-06
6.17612e-05
8.74659e-06
2.73479e-05
-8.0979e-05
1.51828e-05
-6.66542e-05
3.65223e-05
-4.83267e-05
5.44298e-05
-3.40886e-05
7.04822e-05
-1.62878e-05
5.76411e-05
-8.60647e-06
7.91143e-05
9.92136e-06
3.19616e-05
-9.26027e-05
1.16237e-05
-8.17764e-05
3.0305e-05
-6.69931e-05
5.51888e-05
-5.25638e-05
7.29049e-05
-3.49371e-05
8.91316e-05
-2.42604e-05
7.32951e-05
-8.95084e-06
9.79865e-05
-1.84486e-06
4.84517e-05
-9.99107e-05
7.30797e-06
-9.33921e-05
2.32393e-05
-8.26426e-05
4.59546e-05
-7.0687e-05
7.3312e-05
-5.28557e-05
9.08234e-05
-4.32467e-05
0.000108118
-2.44914e-05
8.88356e-05
-2.59078e-05
0.000122049
-7.60196e-05
5.70875e-05
-0.000102192
2.28176e-06
-0.000100793
1.47088e-05
-9.46244e-05
3.52211e-05
-8.6018e-05
6.12856e-05
-7.11548e-05
9.16111e-05
-6.00201e-05
0.000107597
-4.39609e-05
0.000127587
-4.11833e-05
0.000104111
-7.82709e-05
0.000124301
-0.000406956
0.000457775
-9.86204e-05
-3.57206e-06
-0.000103293
4.78146e-06
-0.000102513
2.2597e-05
-9.78598e-05
4.7063e-05
-8.73411e-05
7.74719e-05
-7.69914e-05
0.000108582
-6.06192e-05
0.000124255
-5.94174e-05
0.000145822
-7.70747e-05
0.000102915
-0.000392615
0.00010996
2.63721e-05
0.000431174
-8.85553e-05
-1.00651e-05
-9.99337e-05
-6.93084e-06
-0.000105528
7.7972e-06
-0.000106057
3.07942e-05
-0.000100399
6.01211e-05
-9.25027e-05
9.29832e-05
-7.82629e-05
0.000126226
-7.47241e-05
0.000139562
-7.92197e-05
0.000147967
-0.000412062
0.000122362
4.11856e-05
9.51465e-05
0.000134288
0.000296883
-7.1827e-05
-1.67283e-05
-9.0011e-05
-1.99878e-05
-0.000102637
-9.82203e-06
-0.000109751
1.14912e-05
-0.000109704
4.00992e-05
-0.00010533
7.29484e-05
-9.53146e-05
0.000110035
-9.03668e-05
0.000141869
-8.19136e-05
0.000142256
-0.000350921
8.68253e-05
-0.000243299
0.000406846
0.00015662
7.28143e-05
-8.95458e-05
0.000386429
-4.87053e-05
-2.31217e-05
-7.32518e-05
-3.34875e-05
-9.29648e-05
-2.96602e-05
-0.000107444
-1.21288e-05
-0.000114216
1.60031e-05
-0.000115015
4.97838e-05
-0.000110467
8.81008e-05
-0.00010408
0.000123748
-8.46681e-05
0.000144623
-0.00031558
0.000106914
-0.000590932
0.000434458
4.95794e-05
0.000513887
-7.93458e-05
6.26143e-05
6.48742e-05
0.000321555
-2.04035e-05
-2.83018e-05
-4.99891e-05
-4.63844e-05
-7.6141e-05
-5.03114e-05
-9.82237e-05
-3.88807e-05
-0.000112919
-1.34253e-05
-0.00012088
2.18684e-05
-0.000122452
6.17687e-05
-0.000116669
0.00010069
-8.88979e-05
0.000127978
-0.000276347
0.000105391
-0.000783641
0.000299624
-5.49078e-05
0.000538945
-1.2761e-05
0.000447302
6.64226e-05
6.10659e-05
-6.14085e-05
1.08565e-05
-3.126e-05
-2.14342e-05
-5.68567e-05
-5.24849e-05
-7.00405e-05
-8.13578e-05
-6.71773e-05
-0.000104205
-4.75954e-05
-0.000120907
-1.3398e-05
-0.000130172
2.95881e-05
-0.000127454
7.25538e-05
-9.23303e-05
0.000104122
-0.000244385
9.60156e-05
-0.000756079
7.78288e-05
-0.000112098
0.000356814
3.11455e-05
0.000495039
3.71723e-05
0.000476552
-6.49787e-05
4.33171e-05
-3.24607e-05
1.03406e-05
-6.30348e-05
-2.32174e-05
-8.61241e-05
-5.69839e-05
-9.44145e-05
-8.73772e-05
-8.4005e-05
-0.000113442
-5.50609e-05
-0.000131915
-1.16544e-05
-0.000135115
3.72496e-05
-9.40363e-05
7.42598e-05
-0.000215054
7.47916e-05
-0.000666339
6.27503e-06
-0.000128664
9.43957e-05
6.51943e-05
0.000322765
5.20369e-05
0.000480174
-2.4204e-05
7.5119e-05
-3.18018e-05
4.33315e-05
-6.54516e-05
9.48467e-06
-9.57368e-05
-2.64019e-05
-0.000116706
-6.2359e-05
-0.000119433
-9.66834e-05
-0.000100763
-0.000125115
-6.18608e-05
-0.000138442
-8.32772e-06
-9.43593e-05
3.75727e-05
-0.000191281
5.04861e-05
-0.000577994
-1.35532e-05
-0.000135349
1.296e-05
6.21262e-05
9.74638e-05
4.37179e-05
0.000331084
7.24016e-07
0.000104666
-2.95472e-05
7.55591e-05
-6.40295e-05
4.34198e-05
-9.93867e-05
7.89376e-06
-0.000130033
-3.03732e-05
-0.000148692
-7.01442e-05
-0.000145972
-0.000108386
-0.000117493
-0.000131544
-6.87584e-05
-9.43546e-05
-8.33241e-06
-0.00017343
1.97215e-05
-0.000499525
-2.79826e-05
-0.000134386
-1.45171e-05
5.01444e-05
2.49417e-05
1.1468e-05
0.000129714
1.73632e-05
0.00013105
-2.6384e-05
0.000105451
-5.94388e-05
7.65704e-05
-9.718e-05
4.34285e-05
-0.000134921
6.02638e-06
-0.000166432
-3.54985e-05
-0.000183338
-8.06636e-05
-0.000173694
-0.000112599
-0.000136438
-8.92979e-05
-7.38152e-05
-0.00015873
-2.30316e-05
-0.000437831
-4.19725e-05
-0.000123144
-3.92244e-05
4.07731e-05
-5.14583e-06
-8.17643e-06
4.45861e-05
2.43148e-05
0.000153965
-2.29144e-05
0.000132007
-5.29406e-05
0.000107156
-9.0024e-05
7.79021e-05
-0.000131654
4.37322e-05
-0.000172627
3.88475e-06
-0.000205815
-4.36171e-05
-0.000220384
-8.21852e-05
-0.000204108
-7.58231e-05
-0.000149913
-0.000139906
-9.26395e-05
-0.000387404
-7.34585e-05
-0.000134426
-3.06908e-05
4.88791e-05
-4.73304e-05
-1.08847e-05
-2.43759e-06
2.87046e-05
0.000173549
-1.95844e-05
0.000154973
-4.58806e-05
0.000133979
-7.97642e-05
0.000109419
-0.000121541
8.03202e-05
-0.000168242
4.42973e-05
-0.00021304
-9.44451e-07
-0.000248488
-4.3611e-05
-0.000258958
-5.15907e-05
-0.00022834
-0.000109756
-0.000180063
-0.000326614
-0.000153429
-0.000194076
-1.38082e-05
5.91885e-05
-4.10002e-05
-1.68963e-05
-4.13187e-05
2.4448e-05
0.00019003
-1.64807e-05
0.000174536
-3.9147e-05
0.000156927
-6.88284e-05
0.000136776
-0.000107121
0.000113351
-0.000154571
8.31138e-05
-0.000207058
4.3491e-05
-0.000257475
1.55245e-06
-0.000293651
-1.46684e-05
-0.000295881
-6.68255e-05
-0.000271271
-0.000249999
-0.000256678
-0.00026433
-8.31756e-05
7.40065e-05
-2.86261e-05
-6.70829e-06
-5.11882e-05
2.56814e-05
0.00020373
-1.37003e-05
0.000190948
-3.2893e-05
0.000176396
-5.86161e-05
0.00015991
-9.19631e-05
0.000141121
-0.000134891
0.000117551
-0.000189009
8.63587e-05
-0.000249926
4.92974e-05
-0.00030522
3.34784e-05
-0.000341798
-1.30487e-05
-0.000349657
-0.000171062
-0.000350207
-0.000247071
-0.000273936
9.46665e-05
-0.000103836
3.18492e-05
-6.71836e-05
2.14957e-05
0.000215026
-1.12955e-05
0.000204552
-2.73036e-05
0.000192674
-4.9171e-05
0.000179334
-7.80401e-05
0.000164043
-0.000114885
0.000146031
-0.000163371
0.000123202
-0.000225852
9.47093e-05
-0.000295338
8.38228e-05
-0.000355564
5.25036e-05
-0.000407351
-8.60823e-05
-0.000434637
-0.000172383
-0.000424896
0.000104818
-0.000284088
7.42765e-05
-0.000146263
9.13198e-06
0.000224309
-9.28322e-06
0.000215731
-2.24746e-05
0.000206074
-4.07033e-05
0.000195433
-6.52697e-05
0.000183187
-9.71842e-05
0.0001692
-0.000138053
0.000152379
-0.000192548
0.000134127
-0.000265269
0.000129104
-0.000340619
0.000132415
-0.000435475
1.45468e-05
-0.00050798
-8.47204e-05
-0.0005223
0.00010146
-0.000421538
8.26249e-05
-0.000292436
-5.86535e-06
0.00023194
-7.63115e-06
0.000224898
-1.84507e-05
0.000217042
-3.34425e-05
0.000208494
-5.37644e-05
0.000198956
-8.10386e-05
0.000188319
-0.000116304
0.000175742
-0.000161416
0.000165168
-0.00022359
0.000170966
-0.000307132
0.000222302
-0.000430506
0.000131313
-0.000552241
-1.3962e-05
-0.000578738
8.69665e-05
-0.000507806
7.05839e-05
-0.000409497
-8.0243e-06
0.000238258
-6.31848e-06
0.000232426
-1.51592e-05
0.000225966
-2.73753e-05
0.00021909
-4.4038e-05
0.000211573
-6.63809e-05
0.000203778
-9.64977e-05
0.000194657
-0.000135219
0.000188195
-0.000184443
0.000210092
-0.000262716
0.000312126
-0.000396956
0.000250818
-0.000550011
1.68415e-05
-0.000583045
7.03293e-05
-0.000562101
5.68898e-05
-0.000494112
1.81117e-06
0.000243531
-5.27254e-06
0.000238682
-1.2574e-05
0.00023325
-2.24432e-05
0.000227615
-3.59005e-05
0.000221685
-5.41503e-05
0.000215707
-7.83097e-05
0.000209163
-0.000111004
0.000205527
-0.000152551
0.000237548
-0.000211899
0.000374601
-0.00032519
0.000346785
-0.000492924
-1.38722e-05
-0.000519297
4.49036e-05
-0.000557619
3.83403e-05
-0.000543551
7.90101e-06
0.000247884
-4.35292e-06
0.000243943
-1.05333e-05
0.000239298
-1.86218e-05
0.000234579
-2.94071e-05
0.000229629
-4.38447e-05
0.000225023
-6.34662e-05
0.00021947
-8.86161e-05
0.000217362
-0.000122839
0.000249144
-0.000164147
0.000408791
-0.000246089
0.000383603
-0.000362008
-6.47796e-05
-0.000442017
2.6756e-05
-0.00050115
2.14187e-05
-0.000540698
9.68792e-06
0.000251304
-3.41972e-06
0.000248368
-8.77791e-06
0.000244479
-1.57147e-05
0.00024042
-2.44634e-05
0.000236044
-3.58222e-05
0.000232149
-5.09704e-05
0.000227445
-7.14419e-05
0.000224302
-9.55563e-05
0.000248201
-0.000121895
0.000423197
-0.000178553
0.000366041
-0.000228527
-7.31684e-05
-0.000353619
2.18195e-05
-0.00043708
1.03448e-05
-0.000490076
5.83079e-06
0.000253823
-2.51967e-06
0.000251972
-7.02432e-06
0.000248924
-1.32228e-05
0.00024557
-2.08642e-05
0.000241435
-2.9854e-05
0.000237881
-4.15547e-05
0.000233174
-5.66997e-05
0.000225964
-7.31037e-05
0.000239378
-8.67341e-05
0.000412532
-0.00011123
0.000330173
-0.000142685
-5.59142e-05
-0.000245782
1.56282e-05
-0.000347428
-4.50551e-06
-0.00042223
-1.11334e-05
0.000255119
-1.29626e-06
0.000254597
-5.14453e-06
0.000252549
-1.06488e-05
0.000250213
-1.78658e-05
0.000246364
-2.57939e-05
0.000242898
-3.48707e-05
0.000238571
-4.69507e-05
0.000225943
-5.66792e-05
0.000228055
-6.17805e-05
0.000385826
-6.00287e-05
0.000304767
-8.58236e-05
-3.51654e-05
-0.000163434
1.98481e-06
-0.000232138
-1.69321e-05
-0.000335001
-3.05559e-05
0.000255036
8.31918e-08
0.000256035
-2.7344e-06
0.00025522
-7.81542e-06
0.000254328
-1.4764e-05
0.000251041
-2.25428e-05
0.000248028
-3.09241e-05
0.000243031
-3.9331e-05
0.00022836
-4.9367e-05
0.000216994
-4.56179e-05
0.000354505
-3.04589e-05
0.000301835
-5.70966e-05
-1.4013e-05
-0.000106976
-8.79659e-06
-0.000152652
-1.60446e-05
-0.000233026
-3.09534e-05
0.000254093
9.43045e-07
0.000256149
-3.09633e-08
0.00025695
-4.46471e-06
0.000257584
-1.10712e-05
0.000255257
-1.89799e-05
0.000253342
-2.78568e-05
0.000247375
-3.52685e-05
0.000231515
-4.24866e-05
0.000213324
-4.56972e-05
0.000327172
-1.82855e-05
0.000316455
-4.50787e-05
2.25451e-06
-7.33642e-05
-1.3542e-05
-0.000102231
-1.30978e-05
-0.000155599
-1.90916e-05
0.000251813
2.28006e-06
0.000254804
2.28818e-06
0.000257576
-6.57075e-07
0.000259452
-6.33292e-06
0.00025876
-1.4574e-05
0.000258544
-2.41823e-05
0.000252234
-3.2716e-05
0.000236409
-4.01622e-05
0.000215211
-4.43731e-05
0.00031337
-3.18947e-05
0.000345537
-4.73674e-05
1.61237e-05
-5.89479e-05
-1.72436e-05
-6.96626e-05
-1.24422e-05
-0.000102886
-9.37911e-06
0.000247989
3.82431e-06
0.000252141
4.94338e-06
0.000256216
3.64828e-06
0.000259476
-6.81327e-07
0.000261318
-8.89064e-06
0.00026308
-1.91096e-05
0.000257294
-2.92423e-05
0.000242337
-3.86438e-05
0.000223127
-4.80786e-05
0.000307745
-3.87484e-05
0.000380345
-6.67029e-05
2.4424e-05
-5.56677e-05
-2.63043e-05
-4.98871e-05
-1.02538e-05
-7.18511e-05
-4.2413e-06
0.000243137
4.85179e-06
0.000248422
7.54304e-06
0.000253437
7.72229e-06
0.0002583
4.82424e-06
0.000262545
-1.90829e-06
0.000265872
-1.16828e-05
0.000262282
-2.40974e-05
0.000247446
-3.43519e-05
0.000231366
-4.68832e-05
0.000322544
-6.28772e-05
0.000424435
-8.28382e-05
2.23636e-05
-6.46424e-05
-4.23652e-05
-3.96068e-05
-6.92155e-06
-5.32193e-05
-2.66303e-06
0.000237392
5.74557e-06
0.000243753
9.52098e-06
0.000249485
1.14952e-05
0.0002556
1.04232e-05
0.000261132
6.2373e-06
0.000266104
-2.14001e-06
0.00026791
-1.73107e-05
0.000250862
-2.75127e-05
0.000230936
-3.39214e-05
0.000350786
-7.51255e-05
0.000462108
-0.000100551
1.81403e-05
-7.86148e-05
-6.23517e-05
-4.46559e-05
5.02444e-07
-4.70307e-05
1.18422e-08
6.053e-06
0.000231338
0.00023819
1.13082e-05
0.000244536
1.44701e-05
0.000251623
1.54718e-05
0.000257883
1.36719e-05
0.000265131
7.21039e-06
0.000271734
-5.96378e-06
0.000255909
-2.23584e-05
0.000215716
-1.22929e-05
0.000362725
-4.58609e-05
0.000478129
-9.11465e-05
-3.62119e-06
-7.87893e-05
-7.9247e-05
-6.17195e-05
6.7028e-06
-5.08563e-05
5.81495e-06
1.22333e-05
0.00023201
1.51018e-05
0.000216237
0.000238778
1.7066e-05
0.000246576
1.95167e-05
0.000253238
2.01169e-05
0.000262187
1.66153e-05
0.000270777
8.16754e-06
0.000256245
-6.29903e-06
0.000189021
4.3368e-06
0.000342204
8.22875e-06
0.000464447
-3.21789e-05
-3.99226e-05
-5.48451e-05
-0.000100554
-5.74824e-05
4.59389e-06
-5.96107e-05
1.31233e-05
1.86424e-05
0.000232369
3.08722e-05
0.00021624
1.29188e-05
0.000203318
0.0002407
2.29426e-05
0.000247482
2.52729e-05
0.000257802
2.4502e-05
0.000266884
2.05079e-05
0.000253284
1.11281e-05
0.000170722
1.2e-05
0.000299169
4.73718e-05
0.000410813
6.18625e-05
-6.0823e-05
-1.12785e-05
-0.000125013
-3.03857e-05
4.16963e-07
-5.33055e-05
1.19013e-05
2.53494e-05
0.000233993
4.73391e-05
0.000215902
2.65896e-05
0.000202569
7.73937e-06
0.000195579
0.000240947
2.94776e-05
0.00025228
3.07947e-05
0.000261312
3.00738e-05
0.000249174
2.46179e-05
0.000168716
1.31341e-05
0.000259521
5.1648e-05
0.000332798
0.000125387
-3.5651e-05
3.66906e-05
-0.000128439
-7.85286e-06
1.0198e-05
-4.01668e-05
-3.41307e-06
3.25538e-05
0.000233742
6.51864e-05
0.000216145
4.11937e-05
0.000201298
1.73982e-05
0.00019291
-2.9686e-06
0.000198547
0.000245885
3.58726e-05
0.000254638
3.74688e-05
0.000244173
3.50744e-05
0.000174491
1.88431e-05
0.000230205
4.245e-05
0.000287674
9.67726e-05
6.15583e-05
2.81774e-05
-9.58454e-05
4.09718e-06
2.95989e-05
-2.72537e-05
-2.86258e-05
4.02292e-05
0.00023821
8.37884e-05
0.00021514
5.83778e-05
0.000198961
2.8441e-05
0.000190255
-3.77672e-06
0.000193718
-1.72488e-05
0.000215796
0.000247106
4.34048e-05
0.000237823
4.38195e-05
0.000180719
2.88456e-05
0.000213091
3.59571e-05
0.000280551
4.95728e-05
0.000173978
-1.56473e-05
-4.69035e-05
-2.07645e-05
4.00204e-05
-6.3243e-06
-4.84943e-05
4.82557e-05
0.000239079
0.000105275
0.000216723
7.70987e-05
0.000196419
4.25869e-05
0.000184815
-1.97775e-06
0.000188456
-2.92509e-05
0.00020572
-5.31991e-05
0.000268995
0.000229721
5.15063e-05
0.00018451
4.00291e-05
0.000202229
3.97072e-05
0.0002824
3.41076e-05
0.000228557
-5.0063e-06
-1.72764e-05
-4.52744e-05
1.39011e-05
5.3547e-06
-4.84592e-05
5.82118e-05
0.000219765
0.000128127
0.000216228
9.96572e-05
0.000194165
5.92979e-05
0.000179708
6.88237e-06
0.000175955
-3.69523e-05
0.000196158
-9.22826e-05
0.000244804
-4.98798e-05
0.000318875
0.000184752
5.12647e-05
0.000195644
4.66139e-05
0.000276124
4.59837e-05
0.000235667
2.69981e-05
-5.62144e-06
-1.66611e-05
-3.85432e-05
7.16998e-06
-2.77528e-05
6.15869e-05
0.000181377
0.000159257
0.000188636
0.000124239
0.000191646
8.0285e-05
0.000173177
2.19154e-05
0.000164675
-3.679e-05
0.000175793
-0.00011623
0.000220105
-0.000109427
0.000304351
-8.89317e-05
0.000407807
0.000191041
5.58685e-05
0.000256755
6.59828e-05
0.000215727
6.59235e-05
-1.38043e-05
3.51809e-05
-6.90633e-05
1.38591e-05
-1.45801e-05
6.69297e-05
0.000185698
0.000182737
0.000157896
0.000154316
0.000158559
0.000104158
0.000167773
4.4706e-05
0.000150387
-2.83084e-05
0.000156194
-0.000132638
0.000192201
-0.000183567
0.000294244
-0.000175182
0.000390601
2.09165e-05
0.00038689
0.000227647
8.49772e-05
0.000178818
0.000102892
-3.48388e-05
8.69579e-05
-7.99313e-05
4.60489e-05
-2.49111e-05
0.0001021
0.000192477
0.000209641
0.000158794
0.000187733
0.000124479
0.000134816
0.000127901
7.4948e-05
0.000137531
2.57451e-06
0.000119504
-0.000130703
0.000154259
-0.000250622
0.000259257
-0.000260874
0.000379936
5.04817e-05
0.000361036
2.14311e-05
0.000365459
0.000120654
0.000143141
-6.81993e-05
0.000136252
-9.12981e-05
9.83245e-05
-3.97419e-05
0.000195351
2.74022e-05
0.000310448
9.16693e-05
0.000241214
0.000105313
0.000171612
8.76827e-05
0.000118864
8.39856e-05
5.73537e-05
8.27518e-05
-6.46549e-05
5.34558e-05
-0.000254768
0.000158405
-0.000321609
0.000319992
3.32172e-05
0.0003972
6.57053e-05
0.000316762
0.00327432
0.000994611
-0.00390348
-0.00011787
0.000192813
-0.000113393
0.000158347
-5.45243e-05
0.000271715
-0.000194235
0.000656976
-0.000319126
0.000389561
-5.66778e-05
0.000237561
3.93637e-05
0.000169945
3.66017e-05
0.000131698
9.64136e-06
5.14496e-05
-3.33527e-05
-0.000139504
-6.18086e-05
-0.000349859
0.000186654
-5.99639e-05
0.000413173
0.000162476
0.00030043
0.00245966
0.00113142
0.00389238
0.00131664
-0.0042144
0.000580654
-0.00448413
-0.000153372
0.000232792
-7.34692e-05
0.000333308
-0.000214964
0.000982062
-0.000519321
0.000619799
-0.000549364
0.000322853
-0.00014197
0.000234493
-2.51845e-05
0.000202509
-3.42092e-05
0.000170991
-0.0001099
7.24001e-05
-0.000245257
-0.000283295
-0.000128372
-0.000201118
0.000327808
0.000209315
0.000366334
0.00170895
0.00105115
0.00340486
0.00161894
0.00373234
0.00166365
-0.00407935
0.000887614
-0.00452136
0.000243443
-0.00472757
-0.000100142
-0.000135411
0.00124832
-0.000481224
0.00102343
-0.00092295
0.000308736
-0.000535247
0.00022352
-0.000130997
0.000263907
-8.65824e-05
0.00025168
-0.000114899
0.000262529
-0.000300029
-8.44004e-05
-0.000444151
-0.00027604
-5.34505e-05
0.000121207
0.000415916
0.00114715
0.000928136
0.00282011
0.0016359
0.0033725
0.00197877
0.00324572
0.00201603
-0.00359811
0.00125209
-0.00444382
0.000455394
-0.00473331
-4.5552e-05
-0.00468202
-0.000258236
0.00139146
-0.000849258
0.000487436
-0.00110165
0.000108254
-0.00041998
0.000261603
-0.000128693
0.00031907
-0.000153972
0.000319937
-0.000172306
0.000196101
-0.00058053
-0.000191416
-0.000528775
-6.07234e-05
0.00012848
0.000798621
0.000764442
0.00228375
0.00146449
0.00297939
0.002029
0.00296788
0.00225662
0.00251042
0.00227208
-0.00276647
0.00168098
-0.004027
0.000831885
-0.00482032
9.21666e-06
-0.00478808
-0.000315669
-0.00436635
-0.000481807
0.000765199
-0.00112702
5.13162e-05
-0.00104471
0.000138529
-0.000296906
0.000360409
-0.000170032
0.000309163
-0.000143198
0.000416403
-0.000392609
4.97202e-05
-0.000821667
-0.000214569
-0.000374929
0.000481258
0.000445843
0.00186079
0.0011874
0.00259852
0.00184537
0.00270715
0.00228973
0.002336
0.00243104
0.00158427
0.00237658
-0.00168876
0.00200958
-0.00309507
0.00128724
-0.00448235
0.000467504
-0.0052786
-0.000215043
-0.00488871
-0.000337542
-0.00402881
-0.000713308
-6.53481e-05
-0.00101036
-0.000125053
-0.000781131
0.000308706
-0.000245204
0.000332532
-0.000193401
0.000353786
-8.05807e-05
0.000472408
-0.000815296
-0.000215911
-0.000820324
0.000101001
5.32728e-06
0.00150508
0.000801558
0.002225
0.00156091
0.00245008
0.00210244
0.00219646
0.00242927
0.00157786
0.00243745
0.000634496
0.000569103
-0.000520939
0.00056895
0.000562549
0.000562419
0.00214598
-0.00182517
0.00163738
-0.00344521
0.00092729
-0.00494213
0.000355067
-0.00584871
-4.7516e-05
-0.00517873
-0.000228112
-0.0038007
-0.000536769
-0.00047091
-0.0006645
7.48209e-05
-0.000547246
0.000300183
-0.000212854
0.000249794
-8.94088e-05
0.000751001
-0.000359174
7.72012e-06
-0.00103893
-0.000195959
-0.000523364
0.00109384
0.000416564
0.00184997
0.00117659
0.00219937
0.00181163
0.0020232
0.0022757
0.00161491
0.00239222
0.00073217
0.00233977
-3.68416e-07
-3.76715e-05
5.85673e-05
0.000548576
0.000533327
-0.000551463
0.000533148
0.00055507
0.00055496
-3.76969e-05
5.87147e-05
0.000547564
-3.01318e-07
-3.52651e-05
0.000560444
-3.50754e-05
0.000559497
0.00180248
-0.00199027
0.00124933
-0.00376725
0.000669489
-0.00525655
0.000459736
-0.00635596
0.000118153
-0.005525
-0.000105292
-0.0036954
-0.000263881
-0.000164783
-0.000424896
0.000157844
-0.000404908
0.000211234
-0.000174294
0.000598993
6.25998e-05
0.000652777
-0.00100423
-0.000373482
-0.000861405
0.000597666
-2.71877e-05
0.00144957
0.000816966
0.00192801
0.00144795
0.00183608
0.00199875
0.00162532
0.00226529
0.000864398
0.00225999
0.000113361
0.00011273
-2.81701e-05
0.000513627
0.000512967
0.000522335
0.000522581
-3.23198e-07
6.75803e-05
0.000524637
-2.25688e-07
-0.00015264
0.000180807
0.000520634
-0.000622803
0.00187382
6.78373e-05
0.000523703
-1.59774e-07
0.000104376
0.000518435
0.000105046
0.000517591
-0.000152544
0.000181094
0.000518788
-1.85701e-07
0.000521351
0.000519497
0.00141004
-0.00215098
0.000793262
-0.00389102
0.000420841
-0.00521766
0.000318805
-0.00655662
-1.57983e-05
-0.00561449
-0.000147322
-0.00354808
-0.000145002
6.16598e-05
-0.000328712
0.000162393
-0.000356067
0.000484048
-5.93503e-05
0.00103711
-0.000321731
-0.000213217
-0.0011645
0.000185901
-0.00044964
0.000973031
0.000449351
0.00163509
0.00110989
0.0016
0.00168402
0.00155313
0.00207094
0.000957647
0.00217204
0.000238566
0.000492827
0.000493061
0.000503921
0.000503447
8.58731e-08
-0.000166365
0.000208669
0.000471237
-0.000167069
0.000210063
0.000470059
-1.1238e-07
-0.000128551
0.000484634
-0.000129142
0.000484542
-2.4084e-07
0.000197637
0.000508049
7.09511e-07
-0.000261397
0.000306897
0.000123166
0.000113308
0.000126692
0.000111259
-0.00062696
0.0014142
-0.00021785
-0.000218551
0.000795236
0.000422833
0.000422704
0.00043969
0.000439176
0.000198211
0.000506345
-2.63167e-07
0.000498485
0.000496988
-0.000261632
0.000307521
0.000122868
0.000113568
0.000126149
0.000111023
6.29123e-07
0.000124739
0.00010893
0.000121382
0.000112943
0.000124501
0.000109826
0.000121328
0.000112901
0.000874986
-0.0022327
0.000244927
-0.00371511
-0.00011896
-0.00477989
-0.000343169
-0.00622925
-0.000579171
-0.00518264
-0.000311079
-0.003237
-0.000119461
0.000167222
-0.000333541
0.000451755
-0.000323774
0.0011642
-0.000186444
0.000289419
-0.000824366
-0.000308375
-0.00067022
0.000493817
2.95745e-05
0.00124923
0.000835214
0.00132696
0.00138293
0.00137682
0.00186034
0.000964674
0.00206391
0.000419821
0.000493068
0.000492769
0.000503066
0.000501884
-1.2327e-07
-9.76214e-05
0.000462021
-9.7761e-05
0.000461557
-8.93339e-08
-6.51685e-05
0.000471558
-6.53126e-05
0.000470909
2.49339e-07
-0.000245791
7.19976e-05
8.30475e-05
8.91564e-05
7.22649e-05
0.000104776
9.6679e-05
0.000112865
8.59626e-05
-0.000245513
7.16804e-05
8.30417e-05
7.20303e-05
8.91339e-05
0.000104664
9.66269e-05
0.000112747
8.58977e-05
5.54386e-07
-0.000213256
0.00010481
0.000121558
0.000103848
0.000121281
-0.000212259
0.000105084
0.000121504
0.000104013
0.000121241
6.50255e-07
0.000346889
0.00012499
0.000108105
0.000119849
0.000114463
9.14085e-05
4.51293e-06
8.2592e-08
-8.91889e-05
0.000116351
-4.22235e-06
-9.14422e-05
9.67176e-05
0.000112255
1.77697e-07
9.74375e-05
0.000116263
-8.83206e-05
0.00011265
-0.000654006
0.000902032
0.000882224
0.000323656
0.000323611
0.000340053
0.000339888
2.25935e-08
-0.000355686
0.000385742
0.000392754
-0.000355214
0.000385606
0.000392335
1.25252e-07
-0.000367445
0.000451324
-0.000367453
0.00045154
0.000347403
0.000124587
0.000108675
0.000119761
0.000114089
3.01235e-07
0.000120796
0.000117838
0.000126866
0.000112128
0.000120625
0.00011815
0.000126388
0.000112076
9.14076e-05
4.44841e-06
-8.91146e-05
0.000116209
-4.16392e-06
-9.12667e-05
9.67008e-05
0.000112298
9.73295e-05
0.000116241
-8.82232e-05
0.000112428
-8.38915e-05
4.986e-06
1.76796e-07
0.000114279
-7.40774e-06
8.03534e-05
0.000107982
3.37632e-07
0.000112791
0.000109961
-8.39532e-05
5.18367e-06
0.000114333
-7.80036e-06
8.06336e-05
0.000108673
0.000112954
0.000110496
0.000250418
-0.00223819
-0.000483951
-0.00335012
-0.000959534
-0.00416353
-0.00138741
-0.00542101
-0.00122923
-0.00426449
-0.000564135
-0.00267287
-0.00015675
0.000473448
-0.000355235
0.00109449
-0.000254064
0.000728401
-0.000625426
-0.000213383
-0.000919359
3.12515e-05
-0.000207655
0.000781549
0.000497254
0.00102212
0.00114005
0.0010873
0.00167244
0.000875185
0.00194982
0.000459674
0.000504111
0.000503354
0.000508602
0.00050799
-3.36649e-08
-4.2507e-05
0.00047044
-4.22086e-05
0.000469631
-4.14776e-08
-2.05856e-05
0.000481186
-2.00874e-05
0.000479721
8.6129e-07
-0.000186796
0.000101403
0.000118607
9.86877e-05
0.000115967
-0.00018618
0.000101955
0.000118596
9.97316e-05
0.000116046
1.12332e-06
-0.000146084
9.81003e-05
0.000115471
9.89556e-05
0.000117202
-0.000145841
9.90303e-05
0.000115485
9.99962e-05
0.000117202
-1.80824e-06
-7.28872e-05
7.36838e-05
9.01681e-05
-3.34298e-06
9.05501e-05
9.30397e-05
-7.33218e-05
1.05953e-08
9.96026e-05
7.67087e-05
-3.83787e-06
-7.21823e-05
9.9812e-05
5.27644e-08
-7.20433e-05
0.000107712
1.66736e-08
9.56032e-05
9.97734e-05
-3.36526e-06
9.04481e-05
9.36208e-05
-1.75951e-06
-7.27312e-05
7.32925e-05
9.03321e-05
-7.32642e-05
7.65915e-05
9.95873e-05
-3.83889e-06
-7.21156e-05
9.98502e-05
-7.1998e-05
0.000107695
9.55767e-05
9.99261e-05
-5.06343e-06
7.09294e-05
-6.79558e-05
0.0001069
7.07254e-05
2.67531e-08
-6.83575e-05
0.000114099
-4.90005e-06
0.000107495
4.50046e-08
0.000115049
-5.00311e-06
7.08887e-05
-6.80794e-05
0.000107278
7.06728e-05
-6.83172e-05
0.000114172
-4.88096e-06
0.000107667
0.000115079
-0.00010096
3.18362e-06
1.75334e-07
0.00010792
0.000114671
-3.50599e-06
0.000100354
0.000107975
2.41556e-07
0.000112579
0.000107499
0.000110501
0.000106473
1.64188e-06
2.76863e-08
-0.000103528
0.000111737
-1.13826e-06
-0.000105816
0.000109186
0.000110022
-7.75238e-09
0.000109304
0.000112283
-0.000101132
0.000109608
-0.000719418
0.000315831
0.000896802
0.000208075
0.00020795
0.000235799
0.00023563
6.5338e-08
-0.000394465
0.000406294
0.000311761
-0.000394493
0.00040656
0.000311609
-1.03417e-08
0.000331341
0.000330991
2.73914e-07
-0.000450307
0.000504673
7.59511e-05
8.47418e-05
8.4273e-05
9.31153e-05
-0.000450432
0.000504888
7.60254e-05
8.46994e-05
8.43363e-05
9.3092e-05
2.57828e-07
-0.000115078
-0.0001123
0.000118817
-0.000122406
0.000127441
0.000104933
0.000115186
-0.000115847
-0.000115031
-0.000112181
0.000119284
-0.000122607
0.000127457
0.000105142
0.000115197
-0.000115895
-0.000100979
3.31479e-06
0.000107785
0.000114641
-3.63429e-06
0.000100497
0.000108513
0.000112719
0.000107205
0.000110697
0.000109031
2.88307e-06
1.14242e-07
0.000116687
-3.11984e-06
-0.000109247
0.000115127
2.22255e-07
0.000120239
0.000113263
0.000109036
2.91565e-06
0.000116573
-3.23242e-06
-0.00010907
0.000115421
0.000120233
0.000113126
0.000106449
1.58396e-06
-0.000103497
0.000111701
-1.0862e-06
-0.000105841
0.000109213
0.000110013
0.0001093
0.000112296
-0.000101101
0.000109272
1.85557e-06
2.73621e-08
0.00010449
0.000101235
1.82452e-06
0.000104615
0.000101667
-0.000492473
-0.00222967
-0.00131668
-0.00299297
-0.00188894
-0.003662
-0.00216319
-0.00448705
-0.00159489
-0.00323374
-0.000684526
-0.00198834
-0.000176843
0.0010076
-0.000268343
0.000793448
-0.000319112
8.27441e-05
-0.000921553
-0.000426762
-0.000461345
0.000335017
0.000238877
0.000689782
0.000829595
0.000782691
0.00144466
0.000720678
0.00182695
0.000389781
0.00050411
0.00050358
0.000506098
0.00050593
-1.22582e-09
-4.53732e-06
0.000488064
-4.0892e-06
0.000487355
-1.3783e-07
4.98185e-06
0.00049922
5.18869e-06
0.000498574
1.14144e-06
-0.000111179
9.89306e-05
0.000117302
0.000100306
0.00011789
-0.000111114
9.98502e-05
0.000117212
0.000101191
0.000117785
1.07183e-06
-8.3109e-05
0.000106179
0.000121863
0.000103532
0.000120442
-8.42537e-05
0.000107228
0.000121785
0.000104522
0.000120372
-5.23662e-06
-6.61976e-05
0.000104882
-6.68634e-05
2.15231e-08
0.00011187
-5.36158e-06
-6.24454e-05
0.000100302
6.89822e-08
-6.31853e-05
0.000106893
-5.13373e-06
-6.65626e-05
0.000105572
-6.68946e-05
0.000112061
-5.22574e-06
-6.27842e-05
0.000101179
-6.32209e-05
0.000107206
-5.8074e-06
5.60511e-05
-4.8901e-05
9.67534e-05
5.64133e-05
7.31845e-08
-4.96373e-05
0.000102835
-5.81058e-06
9.83669e-05
6.27367e-08
0.000104538
-5.64809e-06
5.62212e-05
-4.92166e-05
9.76738e-05
5.64458e-05
-4.96604e-05
0.000103133
-5.6818e-06
9.91151e-05
0.000104818
-1.2562e-06
6.47917e-05
-4.21776e-07
-4.61791e-05
-4.76923e-05
-4.9919e-09
-4.61758e-08
6.76238e-05
-7.58418e-07
-4.2527e-05
-8.52924e-09
-4.28004e-05
-1.19698e-06
6.47827e-05
-4.09522e-07
-4.62328e-05
6.75731e-05
-4.77005e-05
-7.4069e-07
-4.25721e-05
-4.28214e-05
-1.27667e-06
4.2179e-05
-4.09072e-05
4.22446e-05
-8.34645e-09
-4.10864e-05
-8.96317e-07
-1.3853e-08
-1.25078e-06
4.22171e-05
-4.10521e-05
4.22564e-05
-4.114e-05
-8.7945e-07
-0.000113867
9.80374e-07
2.04924e-08
0.000120192
0.000107358
-1.00446e-06
0.000113539
0.000104627
-2.12851e-08
0.000107049
0.000119869
0.000105151
6.00926e-05
8.73976e-07
4.60033e-09
-6.18335e-05
-8.10752e-07
-5.98515e-05
6.15458e-05
-1.62259e-08
6.16522e-05
-6.06546e-05
-0.0008003
-0.000411592
0.000859757
7.03088e-05
7.01016e-05
0.000106324
0.000106142
1.81236e-07
-0.000399667
0.000418456
0.000189105
-0.000399958
0.000418989
0.0001891
1.44831e-07
0.000242281
0.000242377
3.79812e-07
-0.00054638
0.000551507
7.5262e-05
8.34476e-05
7.04463e-05
7.70742e-05
-0.000546639
0.000551666
7.56807e-05
8.34527e-05
7.06734e-05
7.7175e-05
3.35545e-07
6.63964e-05
7.27939e-05
7.0717e-05
7.93571e-05
6.65242e-05
7.28388e-05
7.09039e-05
7.92989e-05
-1.76539e-06
-0.000124625
0.000135167
6.71748e-05
-0.000125446
1.29764e-08
0.000136782
7.16778e-05
-1.99834e-06
-0.000116237
7.78832e-05
3.27874e-08
-0.000117186
8.28245e-05
-1.75164e-06
-0.000124579
0.00013503
6.73258e-05
-0.000125417
0.000136697
7.16814e-05
-2.02876e-06
-0.000116179
7.79644e-05
-0.000117169
8.28478e-05
-1.15681e-06
0.000108567
-0.00012208
0.000133487
-2.75982e-06
-0.000124756
0.000120236
0.00010884
2.25045e-08
0.000137725
-0.000120267
-2.08078e-06
9.93437e-05
4.08709e-08
0.000104717
1.53205e-08
-0.000123373
0.000124972
-1.09157e-06
0.000108536
-0.000122147
0.000133987
-2.78121e-06
-0.000124744
0.000120339
0.000108846
0.000137855
-0.000120314
-2.11194e-06
9.96111e-05
0.000104803
-0.000123425