/*--------------------------------*- C++ -*----------------------------------*\
| =========                 |                                                 |
| \\      /  F ield         | OpenFOAM: The Open Source CFD Toolbox           |
|  \\    /   O peration     | Version:  5.x                                   |
|   \\  /    A nd           | Web:      www.OpenFOAM.org                      |
|    \\/     M anipulation  |                                                 |
\*---------------------------------------------------------------------------*/
FoamFile
{
    version     2.0;
    format      ascii;
    class       volScalarField;
    location    "2.8";
    object      rAU;
}
// * * * * * * * * * * * * * * * * * * * * * * * * * * * * * * * * * * * * * //

dimensions      [-1 3 1 0 0 0 0];

internalField   nonuniform List<scalar> 
12160
(
1.33125e-06
1.33126e-06
1.33122e-06
1.33125e-06
1.33117e-06
1.33117e-06
1.33123e-06
1.33116e-06
1.33108e-06
1.33114e-06
1.33134e-06
1.33109e-06
1.33107e-06
1.33097e-06
1.3311e-06
1.33134e-06
1.33119e-06
1.33094e-06
1.33097e-06
1.33092e-06
1.33107e-06
1.33134e-06
1.3312e-06
1.3311e-06
1.33079e-06
1.33086e-06
1.33078e-06
1.33102e-06
1.33134e-06
1.33123e-06
1.33121e-06
1.33097e-06
1.33064e-06
1.33071e-06
1.33061e-06
1.331e-06
1.3309e-06
1.33125e-06
1.33123e-06
1.33114e-06
1.33103e-06
1.33046e-06
1.33058e-06
1.3368e-06
2.51691e-06
1.33089e-06
1.33112e-06
1.33125e-06
1.33119e-06
1.33114e-06
1.33107e-06
1.33049e-06
1.33531e-06
2.05684e-06
2.68472e-05
1.33132e-06
1.33116e-06
1.33125e-06
1.33122e-06
1.33119e-06
1.3313e-06
1.33091e-06
1.33291e-06
1.94729e-06
1.86353e-05
0.000476406
1.33131e-06
1.33131e-06
1.33128e-06
1.33123e-06
1.33122e-06
1.33134e-06
1.33113e-06
1.33288e-06
1.75546e-06
1.55487e-05
0.0006177
0.00129654
1.33133e-06
1.33131e-06
1.33131e-06
1.33126e-06
1.33125e-06
1.33134e-06
1.33129e-06
1.33307e-06
1.65104e-06
1.07089e-05
0.000574907
0.00131914
0.00132826
1.33134e-06
1.33133e-06
1.33134e-06
1.33133e-06
1.3313e-06
1.33134e-06
1.33134e-06
1.33298e-06
1.55882e-06
8.36813e-06
0.000602335
0.00132036
0.00133015
0.00132833
1.33134e-06
1.33134e-06
1.33134e-06
1.33134e-06
1.33134e-06
1.33134e-06
1.33134e-06
1.33321e-06
1.49711e-06
6.43826e-06
0.00031603
0.00132544
0.00132714
0.00133033
0.00132836
1.33135e-06
1.33134e-06
1.33134e-06
1.33134e-06
1.33134e-06
1.33134e-06
1.33134e-06
1.33327e-06
1.45483e-06
5.10143e-06
0.000164228
0.00132238
0.00132703
0.00132734
0.0013304
1.33135e-06
1.33135e-06
1.33134e-06
1.33134e-06
1.33134e-06
1.33134e-06
1.33129e-06
1.33341e-06
1.42886e-06
4.19922e-06
9.83659e-05
0.00131318
0.00132992
0.00132712
0.00132735
1.33135e-06
1.33135e-06
1.33135e-06
1.33134e-06
1.33134e-06
1.33134e-06
1.33105e-06
1.33351e-06
1.4152e-06
3.62395e-06
6.49652e-05
0.00130443
0.00133092
0.00132837
0.00132739
1.33136e-06
1.33135e-06
1.33135e-06
1.33135e-06
1.33134e-06
1.33134e-06
1.33078e-06
1.33291e-06
1.41022e-06
3.29839e-06
4.70904e-05
0.00126681
0.00133122
0.00133092
0.00132863
1.33136e-06
1.33136e-06
1.33135e-06
1.33135e-06
1.33135e-06
1.33134e-06
1.33117e-06
1.33216e-06
1.41284e-06
3.15262e-06
3.79105e-05
0.00120844
0.00133122
0.00133102
0.00133081
1.33136e-06
1.33136e-06
1.33136e-06
1.33135e-06
1.33135e-06
1.33135e-06
1.33134e-06
1.33213e-06
1.42584e-06
3.13241e-06
3.41901e-05
0.00114651
0.00133069
0.0013313
0.00133096
1.33136e-06
1.33136e-06
1.33136e-06
1.33136e-06
1.33135e-06
1.33135e-06
1.33135e-06
1.33224e-06
1.44332e-06
3.19904e-06
3.43602e-05
0.0011025
0.00133073
0.00133093
0.00133132
1.33137e-06
1.33136e-06
1.33136e-06
1.33136e-06
1.33136e-06
1.33135e-06
1.33136e-06
1.33389e-06
1.46077e-06
3.32498e-06
3.69548e-05
0.000992537
0.00133067
0.00133091
0.00133034
1.33137e-06
1.33137e-06
1.33136e-06
1.33136e-06
1.33136e-06
1.33136e-06
1.33137e-06
1.33516e-06
1.48263e-06
3.5077e-06
4.07143e-05
0.000835141
0.00132942
0.00133087
0.00133017
1.33137e-06
1.33137e-06
1.33137e-06
1.33136e-06
1.33136e-06
1.33136e-06
1.33139e-06
1.33702e-06
1.51199e-06
3.78967e-06
4.56935e-05
0.000764321
0.00132811
0.00133021
0.00132989
1.33136e-06
1.33137e-06
1.33136e-06
1.33137e-06
1.33137e-06
1.33136e-06
1.33146e-06
1.34087e-06
1.55638e-06
4.25529e-06
5.33203e-05
0.000746276
0.00132625
0.00132973
0.00132802
1.33136e-06
1.33136e-06
1.33133e-06
1.33136e-06
1.33137e-06
1.33137e-06
1.33159e-06
1.34779e-06
1.62745e-06
5.03975e-06
6.50925e-05
0.000763923
0.00132355
0.00132933
0.00132389
1.33136e-06
1.33136e-06
1.3313e-06
1.33133e-06
1.33137e-06
1.33137e-06
1.33183e-06
1.3581e-06
1.7375e-06
6.39502e-06
8.52826e-05
0.000805179
0.00132142
0.00132962
0.00132046
1.33135e-06
1.33136e-06
1.33129e-06
1.3313e-06
1.33125e-06
1.33137e-06
1.33216e-06
1.37255e-06
1.89788e-06
8.70892e-06
0.000121128
0.000904379
0.00132037
0.00132974
0.00131919
1.33135e-06
1.33135e-06
1.33128e-06
1.33129e-06
1.33116e-06
1.33125e-06
1.33254e-06
1.38979e-06
2.11084e-06
1.22754e-05
0.000174597
0.00103276
0.00131943
0.00133
0.00131886
1.33136e-06
1.33135e-06
1.33128e-06
1.33128e-06
1.33115e-06
1.33084e-06
1.33284e-06
1.40647e-06
2.35733e-06
1.74633e-05
0.000248047
0.00110605
0.00132248
0.00132647
0.00131933
1.33136e-06
1.33131e-06
1.33129e-06
1.33128e-06
1.33119e-06
1.33089e-06
1.33262e-06
1.41865e-06
2.59573e-06
2.40433e-05
0.000344461
0.00115323
0.00132719
0.0013267
0.00131838
1.33137e-06
1.33133e-06
1.33126e-06
1.33126e-06
1.33124e-06
1.33096e-06
1.33256e-06
1.42303e-06
2.77385e-06
3.10266e-05
0.000449638
0.00120119
0.00132687
0.00132949
0.00131976
1.33015e-06
1.33135e-06
1.33129e-06
1.33121e-06
1.3312e-06
1.33109e-06
1.33234e-06
1.41967e-06
2.85191e-06
3.6933e-05
0.000533926
0.00124154
0.00132781
0.00132872
0.0013216
1.32894e-06
1.3313e-06
1.33133e-06
1.33125e-06
1.33115e-06
1.33123e-06
1.33212e-06
1.41067e-06
2.82062e-06
4.05479e-05
0.000585106
0.00126388
0.00132863
0.00132955
0.00132412
1.32972e-06
1.33098e-06
1.33138e-06
1.3313e-06
1.3312e-06
1.33109e-06
1.33199e-06
1.39817e-06
2.70679e-06
4.0615e-05
0.000615918
0.00127234
0.00132934
0.00133051
0.00132635
1.33093e-06
1.33104e-06
1.33134e-06
1.33137e-06
1.33127e-06
1.33115e-06
1.33162e-06
1.38542e-06
2.54385e-06
3.83991e-05
0.000629575
0.00127827
0.00133003
0.0013309
0.00132839
1.33138e-06
1.33132e-06
1.33129e-06
1.33132e-06
1.33136e-06
1.33124e-06
1.33151e-06
1.3742e-06
2.36997e-06
3.45975e-05
0.000626789
0.00128285
0.00133012
0.0013312
0.0013294
1.33138e-06
1.33131e-06
1.33124e-06
1.33125e-06
1.3313e-06
1.33135e-06
1.33145e-06
1.36488e-06
2.19774e-06
3.0184e-05
0.000621327
0.0012869
0.0013302
0.00133088
0.0013297
1.33066e-06
1.33131e-06
1.3312e-06
1.33118e-06
1.3312e-06
1.33128e-06
1.33144e-06
1.35664e-06
2.035e-06
2.50396e-05
0.000603299
0.00129165
0.00133013
0.00133075
0.00132957
1.33058e-06
1.33092e-06
1.3312e-06
1.33112e-06
1.33111e-06
1.33116e-06
1.33132e-06
1.34912e-06
1.89869e-06
1.94295e-05
0.000549798
0.00130346
0.00133011
0.0013306
0.00132938
1.33058e-06
1.33086e-06
1.3312e-06
1.3311e-06
1.33104e-06
1.33106e-06
1.33117e-06
1.34492e-06
1.80524e-06
1.42632e-05
0.000444481
0.00131348
0.00132968
0.00133061
0.00132923
1.33046e-06
1.33087e-06
1.33114e-06
1.33118e-06
1.33097e-06
1.33097e-06
1.33107e-06
1.34261e-06
1.73165e-06
1.03676e-05
0.000301734
0.00131103
0.0013302
0.00133082
0.0013298
1.3302e-06
1.33076e-06
1.3312e-06
1.33101e-06
1.3303e-06
1.33087e-06
1.33099e-06
1.3413e-06
1.66603e-06
8.00054e-06
0.00018819
0.00128272
0.00133121
0.00133105
0.00133059
1.33006e-06
1.33051e-06
1.3311e-06
1.33089e-06
1.3302e-06
1.33038e-06
1.33093e-06
1.34033e-06
1.61109e-06
6.62394e-06
0.000123416
0.00121727
0.00133076
0.00133126
0.00133055
1.33014e-06
1.33038e-06
1.33115e-06
1.33087e-06
1.33019e-06
1.33037e-06
1.33077e-06
1.3396e-06
1.56905e-06
5.75182e-06
9.03072e-05
0.00113415
0.00133046
0.00133106
0.00133072
1.33841e-06
1.33053e-06
1.33102e-06
1.33106e-06
1.33062e-06
1.33016e-06
1.33054e-06
1.32895e-06
1.53878e-06
5.15336e-06
7.15264e-05
0.00104142
0.00133056
0.00133062
0.00133069
1.51814e-06
1.33846e-06
1.331e-06
1.33102e-06
1.33119e-06
1.33066e-06
1.33047e-06
1.33054e-06
1.32709e-06
4.73633e-06
6.02388e-05
0.000952823
0.00132954
0.00133086
0.00133097
4.45194e-06
1.50198e-06
1.33987e-06
1.33138e-06
1.33116e-06
1.33119e-06
1.33092e-06
1.33081e-06
1.32928e-06
1.32619e-06
5.33814e-05
0.000886423
0.00132822
0.00133098
0.00133105
4.87926e-05
4.17101e-06
1.5141e-06
1.34272e-06
1.33223e-06
1.33128e-06
1.33117e-06
1.33114e-06
1.3292e-06
1.32661e-06
1.32596e-06
0.00084182
0.00132726
0.00133058
0.00133054
0.00080237
4.31424e-05
4.20276e-06
1.55661e-06
1.3488e-06
1.3338e-06
1.33216e-06
1.33162e-06
1.3293e-06
1.32636e-06
1.32596e-06
1.31636e-06
0.00132659
0.00133011
0.00132975
0.00132671
0.000698625
3.92706e-05
4.54654e-06
1.63208e-06
1.35749e-06
1.3448e-06
1.33786e-06
1.33041e-06
1.32908e-06
1.32596e-06
1.32721e-06
1.32881e-06
1.31086e-06
0.00132947
0.00132878
0.00132949
0.00130391
0.000461485
4.05183e-05
5.21712e-06
1.71975e-06
1.37512e-06
1.37462e-06
1.33681e-06
1.32899e-06
1.32785e-06
1.32712e-06
1.32881e-06
1.32788e-06
1.32879e-06
1.32148e-06
0.00132752
0.00132648
0.00132715
0.00102259
0.000381867
5.06914e-05
6.12752e-06
1.79375e-06
1.43809e-06
1.37396e-06
1.33038e-06
1.32636e-06
1.32629e-06
1.32865e-06
1.32729e-06
1.32804e-06
1.32874e-06
1.32884e-06
1.33098e-06
0.00132516
0.00123637
0.00080321
0.000436805
6.66899e-05
6.83969e-06
1.85524e-06
1.52373e-06
1.3378e-06
1.32884e-06
1.32637e-06
1.32782e-06
1.32769e-06
1.32741e-06
1.32945e-06
1.32894e-06
1.32756e-06
1.29797e-06
1.33896e-06
0.00131313
0.00109818
0.000863745
0.000621145
7.89444e-05
6.93406e-06
2.05268e-06
1.51503e-06
1.32996e-06
1.32871e-06
1.32749e-06
1.3279e-06
1.3278e-06
1.32923e-06
1.33223e-06
1.32932e-06
1.3276e-06
1.34697e-06
1.33563e-06
1.36842e-06
0.00128585
0.00113821
0.00117846
0.000852815
8.66924e-05
6.41551e-06
2.70042e-06
1.39758e-06
1.32805e-06
1.32857e-06
1.32869e-06
1.32796e-06
1.32257e-06
1.3162e-06
1.33276e-06
1.33246e-06
1.32919e-06
1.31284e-06
1.65738e-06
1.66978e-06
1.41593e-06
0.00129118
0.00129319
0.00129435
0.00101588
6.69087e-05
9.56735e-06
2.70165e-06
1.33265e-06
1.32854e-06
1.32877e-06
1.32868e-06
1.32243e-06
1.30205e-06
1.3236e-06
1.29372e-06
1.33984e-06
1.29375e-06
1.29463e-06
1.29464e-06
1.3302e-06
1.32805e-06
1.35372e-06
2.97796e-06
2.64813e-06
1.43443e-06
0.00130936
0.00131836
0.00130996
0.000958986
6.07921e-05
2.33528e-05
1.55861e-06
1.32693e-06
1.32869e-06
1.32785e-06
1.32869e-06
1.31352e-06
1.32828e-06
1.335e-06
1.29439e-06
1.28735e-06
1.33348e-06
1.2944e-06
1.29176e-06
1.29172e-06
1.28741e-06
1.29265e-06
1.29264e-06
1.32946e-06
1.32953e-06
1.62291e-06
3.02786e-06
3.03964e-06
1.40584e-06
0.00132189
0.0013218
0.00131355
0.000606335
0.000184035
1.15605e-05
1.32765e-06
1.32814e-06
1.32821e-06
1.32785e-06
1.32682e-06
1.32885e-06
1.33512e-06
1.30187e-06
1.30205e-06
1.29931e-06
1.29945e-06
1.2896e-06
1.3036e-06
1.3325e-06
1.33117e-06
1.28966e-06
1.281e-06
1.28092e-06
1.30365e-06
1.30061e-06
1.3008e-06
1.32952e-06
1.33397e-06
1.95367e-06
3.1601e-06
2.00167e-06
1.36023e-06
0.00132837
0.00132231
0.00129999
0.000880544
0.00105638
2.66505e-06
1.32671e-06
1.3284e-06
1.32823e-06
1.32757e-06
1.32896e-06
1.33521e-06
1.29819e-06
1.29833e-06
1.29921e-06
1.29928e-06
1.31064e-06
1.31062e-06
1.30293e-06
1.30276e-06
1.30457e-06
1.11208e-06
1.22164e-06
1.13554e-06
1.22315e-06
1.33038e-06
1.33697e-06
1.30019e-06
1.30026e-06
1.29689e-06
1.29654e-06
1.30458e-06
1.29571e-06
1.29538e-06
1.11228e-06
1.21902e-06
1.13579e-06
1.22422e-06
1.0799e-06
1.20221e-06
1.11672e-06
1.19464e-06
1.0797e-06
1.2262e-06
1.11647e-06
1.21879e-06
1.32967e-06
1.33212e-06
1.73015e-06
2.0634e-06
1.4042e-06
1.34247e-06
0.00132685
0.00131706
0.00129434
0.0013135
0.000395057
1.63537e-06
1.32709e-06
1.32847e-06
1.32879e-06
1.32779e-06
1.33546e-06
1.29975e-06
1.29981e-06
1.30141e-06
1.30138e-06
1.30331e-06
1.30317e-06
1.30515e-06
1.30517e-06
1.16912e-06
1.21495e-06
1.17372e-06
1.24339e-06
1.16675e-06
1.14893e-06
1.21715e-06
1.177e-06
1.17379e-06
1.24354e-06
1.16677e-06
1.14879e-06
1.23316e-06
1.15226e-06
1.24172e-06
1.16442e-06
1.23128e-06
1.15171e-06
1.24178e-06
1.16442e-06
1.1353e-06
1.22208e-06
1.13663e-06
1.20672e-06
1.14827e-06
1.23214e-06
1.15903e-06
1.2299e-06
1.32982e-06
1.3356e-06
1.30361e-06
1.30361e-06
1.2992e-06
1.29921e-06
1.30157e-06
1.30155e-06
1.28086e-06
1.27896e-06
1.13579e-06
1.21927e-06
1.13667e-06
1.20939e-06
1.09521e-06
1.16579e-06
1.0893e-06
1.1619e-06
1.09581e-06
1.1662e-06
1.0883e-06
1.16468e-06
1.15012e-06
1.23221e-06
1.1592e-06
1.23004e-06
1.14189e-06
1.22303e-06
1.14356e-06
1.22512e-06
1.32977e-06
1.33065e-06
1.36938e-06
1.38219e-06
1.35509e-06
1.33604e-06
0.00132131
0.00131443
0.00131011
0.00128576
3.53628e-05
1.44444e-06
1.32723e-06
1.32839e-06
1.32887e-06
1.33197e-06
1.30068e-06
1.30066e-06
1.30111e-06
1.30109e-06
1.30441e-06
1.30426e-06
1.30389e-06
1.30374e-06
1.2363e-06
1.15713e-06
1.24208e-06
1.16568e-06
1.23439e-06
1.15651e-06
1.24208e-06
1.16604e-06
1.22932e-06
1.14726e-06
1.23762e-06
1.16277e-06
1.22924e-06
1.14754e-06
1.23755e-06
1.16271e-06
1.18643e-06
9.4779e-07
1.03446e-06
1.1684e-06
1.21007e-06
1.14014e-06
1.18685e-06
9.71817e-07
1.16844e-06
1.03463e-06
1.21006e-06
1.14015e-06
1.2308e-06
1.16e-06
1.21051e-06
1.13959e-06
1.2341e-06
1.16072e-06
1.21042e-06
1.13954e-06
1.15097e-06
1.2322e-06
1.15984e-06
1.21911e-06
1.15612e-06
1.21964e-06
1.15236e-06
1.23579e-06
1.32994e-06
1.33246e-06
1.30502e-06
1.30511e-06
1.30412e-06
1.3041e-06
1.29857e-06
1.29836e-06
1.2945e-06
1.29443e-06
1.23027e-06
1.15029e-06
1.23475e-06
1.1486e-06
1.23033e-06
1.15033e-06
1.2348e-06
1.14828e-06
1.20804e-06
1.1696e-06
1.19336e-06
1.24935e-06
1.16273e-06
1.06675e-06
1.19561e-06
1.17088e-06
1.19342e-06
1.24948e-06
1.16239e-06
1.06644e-06
1.15154e-06
1.23215e-06
1.15996e-06
1.22087e-06
1.10362e-06
1.21432e-06
1.10414e-06
1.21773e-06
1.15899e-06
1.22324e-06
1.15345e-06
1.23566e-06
1.18027e-06
1.26354e-06
1.183e-06
1.26318e-06
1.3298e-06
1.33004e-06
1.33072e-06
1.34806e-06
1.34215e-06
1.33311e-06
0.00131379
0.00130869
0.00128645
0.000589912
8.26009e-06
1.45108e-06
1.32699e-06
1.32817e-06
1.32579e-06
1.30087e-06
1.30085e-06
1.302e-06
1.30198e-06
1.29505e-06
1.29504e-06
1.2944e-06
1.2944e-06
1.22888e-06
1.15335e-06
1.23272e-06
1.14416e-06
1.22877e-06
1.15321e-06
1.23277e-06
1.14437e-06
1.2342e-06
1.14192e-06
1.23067e-06
1.12477e-06
1.23423e-06
1.14174e-06
1.2306e-06
1.12489e-06
1.26026e-06
1.18871e-06
1.24316e-06
1.16969e-06
1.26345e-06
1.18938e-06
1.24005e-06
1.16925e-06
1.25253e-06
1.17561e-06
1.24488e-06
1.17446e-06
1.25229e-06
1.17592e-06
1.24233e-06
1.17359e-06
1.18321e-06
1.23591e-06
1.16814e-06
1.24661e-06
1.32993e-06
1.32771e-06
1.30501e-06
1.30509e-06
1.30431e-06
1.30441e-06
1.29957e-06
1.29929e-06
1.29766e-06
1.29718e-06
1.21858e-06
1.15042e-06
1.19008e-06
1.15496e-06
1.21851e-06
1.14999e-06
1.18995e-06
1.15504e-06
1.18764e-06
1.13336e-06
1.22852e-06
1.15522e-06
1.18699e-06
1.13354e-06
1.22879e-06
1.15531e-06
1.19183e-06
1.12789e-06
1.21081e-06
1.1478e-06
1.18947e-06
1.12724e-06
1.20938e-06
1.1478e-06
1.22383e-06
1.14176e-06
1.08995e-06
1.17063e-06
1.20738e-06
1.13913e-06
1.22428e-06
1.14199e-06
1.09003e-06
1.17068e-06
1.20741e-06
1.13838e-06
1.18594e-06
1.23955e-06
1.16908e-06
1.25252e-06
1.1588e-06
1.20279e-06
1.16144e-06
1.21035e-06
1.32978e-06
1.32997e-06
1.33945e-06
1.34208e-06
1.3396e-06
1.33103e-06
0.00131398
0.0012986
0.000579678
0.000138206
7.08862e-06
1.5301e-06
1.32674e-06
1.32752e-06
1.33432e-06
1.29123e-06
1.29147e-06
1.2901e-06
1.29046e-06
1.30925e-06
1.30986e-06
1.30024e-06
1.30023e-06
1.24335e-06
1.1736e-06
1.24007e-06
1.16924e-06
1.2429e-06
1.17339e-06
1.23981e-06
1.16807e-06
1.21398e-06
1.14616e-06
1.2286e-06
1.16064e-06
1.21496e-06
1.14972e-06
1.2292e-06
1.15949e-06
1.13637e-06
1.08335e-06
1.133e-06
1.08229e-06
1.33034e-06
1.33006e-06
1.28377e-06
1.28406e-06
1.28952e-06
1.28984e-06
1.30384e-06
1.30374e-06
1.30327e-06
1.30316e-06
1.18272e-06
1.09901e-06
1.1928e-06
1.12413e-06
1.18107e-06
1.10015e-06
1.1922e-06
1.12634e-06
1.19501e-06
1.15009e-06
1.19026e-06
1.14545e-06
1.19463e-06
1.14959e-06
1.18668e-06
1.14541e-06
1.22984e-06
1.15812e-06
1.21564e-06
1.14838e-06
1.22984e-06
1.15816e-06
1.21575e-06
1.14843e-06
1.20109e-06
1.11394e-06
1.21679e-06
1.15016e-06
1.19807e-06
1.11364e-06
1.21709e-06
1.15025e-06
1.32923e-06
1.33516e-06
1.36161e-06
1.33889e-06
1.33594e-06
1.33023e-06
0.00131109
0.000760471
0.000182857
7.7362e-05
1.21706e-05
1.758e-06
1.3281e-06
1.32804e-06
1.2854e-06
1.28543e-06
1.29351e-06
1.29355e-06
1.2927e-06
1.29268e-06
1.2807e-06
1.28074e-06
1.15372e-06
1.25344e-06
1.17683e-06
1.22928e-06
1.15498e-06
1.25336e-06
1.17641e-06
1.23189e-06
1.14859e-06
1.23549e-06
1.16215e-06
1.22323e-06
1.14897e-06
1.23554e-06
1.16206e-06
1.22579e-06
1.24478e-06
1.18079e-06
1.24816e-06
1.16717e-06
1.2426e-06
1.18005e-06
1.24862e-06
1.16739e-06
1.23849e-06
1.18318e-06
1.24509e-06
1.17229e-06
1.2426e-06
1.18281e-06
1.25026e-06
1.17244e-06
1.33149e-06
1.33091e-06
1.31408e-06
1.27833e-06
1.27814e-06
1.30379e-06
1.30367e-06
1.30285e-06
1.30297e-06
1.27717e-06
1.27688e-06
1.14824e-06
1.11616e-06
1.2203e-06
1.15904e-06
1.14884e-06
1.11536e-06
1.22165e-06
1.15887e-06
1.22222e-06
1.15181e-06
1.22447e-06
1.15797e-06
1.22204e-06
1.15179e-06
1.22447e-06
1.158e-06
1.15719e-06
1.10989e-06
1.15781e-06
1.11002e-06
1.33334e-06
1.37802e-06
1.35791e-06
1.33942e-06
1.33378e-06
1.33121e-06
0.00122176
0.000309315
0.000139842
7.96707e-05
1.20066e-05
2.92886e-06
1.37181e-06
1.38925e-06
1.30333e-06
1.30335e-06
1.29092e-06
1.29127e-06
1.226e-06
1.14919e-06
1.12741e-06
1.2358e-06
1.23255e-06
1.14699e-06
1.12574e-06
1.23606e-06
1.30222e-06
1.30226e-06
1.16983e-06
1.23119e-06
1.15426e-06
1.24178e-06
1.17187e-06
1.23777e-06
1.15609e-06
1.24577e-06
1.18369e-06
1.24158e-06
1.17297e-06
1.25676e-06
1.18358e-06
1.24064e-06
1.17281e-06
1.25675e-06
1.15083e-06
1.06901e-06
1.15114e-06
1.06938e-06
1.33081e-06
1.33289e-06
1.33089e-06
1.26428e-06
1.26443e-06
1.27564e-06
1.27609e-06
1.29768e-06
1.29894e-06
1.30131e-06
1.30135e-06
1.16141e-06
1.22049e-06
1.15785e-06
1.21766e-06
1.16149e-06
1.22083e-06
1.15914e-06
1.21757e-06
1.15963e-06
1.20613e-06
1.16239e-06
1.21001e-06
1.16004e-06
1.20572e-06
1.16285e-06
1.21015e-06
1.21792e-06
1.16363e-06
1.20597e-06
1.14414e-06
1.21787e-06
1.1637e-06
1.20629e-06
1.14438e-06
1.17539e-06
1.11545e-06
1.20029e-06
1.13999e-06
1.1754e-06
1.11535e-06
1.20159e-06
1.14095e-06
1.37894e-06
1.44024e-06
1.34616e-06
1.34995e-06
1.33403e-06
0.000818325
0.000301901
0.000347711
0.000107069
1.6706e-05
4.20721e-06
2.13861e-06
1.40886e-06
1.40896e-06
1.71374e-06
1.71499e-06
1.20159e-06
1.1074e-06
1.20897e-06
1.12746e-06
1.20444e-06
1.10723e-06
1.20908e-06
1.12739e-06
1.29387e-06
1.29424e-06
1.22343e-06
1.14855e-06
1.11847e-06
1.21678e-06
1.22901e-06
1.1471e-06
1.11748e-06
1.21627e-06
1.22516e-06
1.12218e-06
1.22407e-06
1.13582e-06
1.21655e-06
1.11937e-06
1.21712e-06
1.1332e-06
1.10835e-06
1.12985e-06
1.08637e-06
1.16129e-06
1.10831e-06
1.12585e-06
1.08613e-06
1.16117e-06
1.33065e-06
1.33083e-06
1.33286e-06
1.30698e-06
1.24202e-06
1.24249e-06
1.29241e-06
1.29222e-06
1.27406e-06
1.27325e-06
1.21597e-06
1.10893e-06
1.08248e-06
1.18981e-06
1.21747e-06
1.11069e-06
1.0807e-06
1.19054e-06
1.1525e-06
1.21534e-06
1.15137e-06
1.21442e-06
1.15246e-06
1.2156e-06
1.15144e-06
1.21434e-06
1.11206e-06
1.18015e-06
1.12092e-06
1.17877e-06
1.11236e-06
1.18008e-06
1.12169e-06
1.17892e-06
1.12855e-06
1.05446e-06
1.12773e-06
1.05504e-06
1.48203e-06
1.3871e-06
1.35766e-06
1.34732e-06
0.000739328
0.00100674
0.000782827
0.000142512
2.18989e-05
7.32994e-06
4.69775e-06
4.70139e-06
4.33462e-06
4.33352e-06
1.54365e-06
1.54291e-06
2.37859e-06
2.37567e-06
1.20205e-06
1.10932e-06
1.19904e-06
1.12302e-06
1.20173e-06
1.10913e-06
1.19882e-06
1.12287e-06
1.13412e-06
1.32502e-06
1.09707e-06
1.26889e-06
1.13409e-06
1.32523e-06
1.09707e-06
1.26899e-06
1.24046e-06
1.20022e-06
1.16437e-06
1.21224e-06
1.23078e-06
1.2002e-06
1.16477e-06
1.21158e-06
1.24614e-06
1.1343e-06
1.19381e-06
1.10163e-06
1.2461e-06
1.13104e-06
1.19751e-06
1.09704e-06
1.37625e-06
1.33063e-06
1.33153e-06
1.32257e-06
1.2815e-06
1.28148e-06
1.28272e-06
1.28225e-06
1.24047e-06
1.23821e-06
1.18892e-06
1.08962e-06
1.09831e-06
1.06306e-06
1.19042e-06
1.09345e-06
1.10037e-06
1.06464e-06
1.19955e-06
1.13633e-06
1.20327e-06
1.14058e-06
1.13463e-06
1.12311e-06
1.20074e-06
1.13756e-06
1.20155e-06
1.14092e-06
1.13528e-06
1.12045e-06
1.21341e-06
1.14635e-06
1.2147e-06
1.1472e-06
9.57765e-07
1.15048e-06
1.0609e-06
1.09707e-06
9.58172e-07
1.1513e-06
1.06125e-06
1.09752e-06
1.48209e-06
1.33421e-06
1.36242e-06
0.00117714
0.00130708
0.000974704
0.000233115
3.58531e-05
1.38631e-05
4.74507e-06
4.83639e-06
4.22069e-06
4.22077e-06
1.83712e-06
1.34272e-06
1.36915e-06
2.3439e-06
1.48544e-06
1.17216e-06
1.34279e-06
1.83068e-06
1.17209e-06
1.36494e-06
2.33446e-06
1.48493e-06
6.66298e-06
3.69922e-06
5.09037e-06
2.96529e-06
6.52038e-06
3.69167e-06
4.97934e-06
2.95386e-06
1.21036e-06
1.1459e-06
1.24318e-06
1.13082e-06
1.21011e-06
1.1378e-06
1.24308e-06
1.12843e-06
1.1524e-06
1.30744e-06
1.15236e-06
1.30733e-06
1.0213e-06
1.07245e-06
1.02133e-06
1.07879e-06
1.08744e-06
1.10507e-06
1.08723e-06
1.0949e-06
1.4814e-06
1.33206e-06
1.33064e-06
1.33132e-06
1.26106e-06
1.26179e-06
1.27042e-06
1.26935e-06
1.2852e-06
1.28537e-06
1.24918e-06
1.24919e-06
1.00066e-06
1.10363e-06
1.02982e-06
1.19357e-06
1.05626e-06
1.1083e-06
1.00159e-06
1.10504e-06
1.02974e-06
1.1787e-06
1.05549e-06
1.10797e-06
1.19939e-06
1.12983e-06
1.19945e-06
1.12977e-06
1.18723e-06
1.1183e-06
1.15049e-06
1.20181e-06
1.05583e-06
1.14015e-06
1.18795e-06
1.11889e-06
1.15063e-06
1.2005e-06
1.05596e-06
1.1407e-06
1.17311e-06
1.11295e-06
1.17389e-06
1.11333e-06
1.36834e-06
1.33091e-06
0.00125105
0.00131952
0.0011836
0.000587909
0.000181616
3.43864e-05
3.40773e-05
0.000108903
0.000109648
4.23674e-06
4.35217e-06
6.58136e-06
6.4366e-06
1.22541e-06
2.05314e-06
1.32643e-06
1.03938e-06
4.94315e-06
3.34399e-06
1.2246e-06
2.03183e-06
1.0381e-06
1.33024e-06
4.85462e-06
3.38189e-06
1.26443e-05
3.59163e-06
1.2839e-05
6.10776e-06
1.27753e-05
3.70647e-06
1.29438e-05
6.20173e-06
1.21945e-06
1.11619e-06
1.21958e-06
1.11026e-06
1.45097e-06
1.44386e-06
1.32841e-06
1.33068e-06
1.31682e-06
1.24616e-06
1.25553e-06
1.29272e-06
1.29696e-06
1.09958e-06
1.05033e-06
1.16415e-06
1.07684e-06
1.09533e-06
1.05e-06
1.16374e-06
1.07808e-06
1.15045e-06
1.10561e-06
1.07713e-06
1.1889e-06
1.09965e-06
1.03893e-06
1.15164e-06
1.10644e-06
1.07772e-06
1.18998e-06
1.10042e-06
1.03941e-06
1.03555e-06
1.03356e-06
1.12695e-06
1.18211e-06
1.03634e-06
1.03346e-06
1.12844e-06
1.1811e-06
1.15195e-06
1.07922e-06
1.15256e-06
1.08012e-06
1.10686e-06
9.65092e-07
1.10954e-06
9.33342e-07
1.10783e-06
9.5868e-07
1.11046e-06
9.33773e-07
1.33158e-06
0.00128388
0.00132005
0.00127821
0.0010143
0.000338004
0.000137187
0.00013842
0.000274316
0.000276234
6.90184e-06
4.90456e-06
2.86167e-06
6.77126e-06
6.71709e-06
5.30285e-06
2.80909e-06
6.53765e-06
2.51523e-05
2.46402e-05
6.38209e-06
2.41168e-06
1.0187e-05
3.2597e-06
7.54724e-06
2.41438e-06
1.15279e-05
3.2889e-06
1.32648e-06
1.44869e-06
1.34102e-06
1.33076e-06
1.3308e-06
1.25893e-06
1.25795e-06
1.27411e-06
1.27407e-06
1.26572e-06
1.27164e-06
1.23763e-06
1.24198e-06
1.11696e-06
1.04835e-06
1.17134e-06
1.08299e-06
1.11069e-06
1.04962e-06
1.17107e-06
1.08476e-06
1.0612e-06
1.14246e-06
1.02331e-06
1.04025e-06
1.13556e-06
1.01164e-06
1.06305e-06
1.14286e-06
1.04137e-06
1.02422e-06
1.13596e-06
1.01276e-06
9.72895e-07
1.01852e-06
9.50041e-07
1.00783e-06
0.00130365
0.00132258
0.00131034
0.00119529
0.000801806
0.000801117
0.00111695
0.00111708
0.0002108
0.000211911
0.000579509
0.000584406
1.01707e-05
5.12753e-06
3.02238e-06
1.0323e-05
9.79918e-06
5.19885e-06
2.84853e-06
9.55969e-06
0.000124573
0.000102589
4.40706e-05
4.76981e-05
0.000124423
0.000100882
4.23725e-05
4.65782e-05
4.46787e-06
2.27352e-06
5.06015e-06
2.27253e-06
1.30036e-06
1.34312e-06
1.33258e-06
1.3318e-06
1.31886e-06
1.22974e-06
1.23749e-06
1.27466e-06
1.2842e-06
1.24101e-06
1.24226e-06
1.05127e-06
1.09489e-06
1.05222e-06
1.05149e-06
1.05161e-06
1.1149e-06
1.05242e-06
1.05287e-06
1.16628e-06
1.06562e-06
1.09542e-06
9.9521e-07
1.16567e-06
1.07148e-06
1.09617e-06
1.01704e-06
0.00131085
0.0013239
0.00132278
0.00120721
0.00103363
0.00103497
0.00110658
0.00110792
0.000121137
8.12639e-05
0.000556954
0.000346424
0.000323287
0.000601132
0.000119598
8.03922e-05
0.000558657
0.000350201
0.000327514
0.000604871
0.00081792
0.000818468
2.18814e-05
6.13099e-06
6.16841e-06
1.62352e-05
2.0633e-05
5.89696e-06
5.74925e-06
1.49429e-05
8.68871e-05
7.59726e-05
8.41469e-05
7.51232e-05
1.31002e-06
1.33327e-06
1.33817e-06
1.33279e-06
1.24424e-06
1.24404e-06
1.25521e-06
1.26057e-06
1.25971e-06
1.26254e-06
1.25517e-06
1.25683e-06
1.11235e-06
1.06791e-06
1.1576e-06
1.07188e-06
1.06333e-06
1.06127e-06
1.1119e-06
1.06844e-06
1.1565e-06
1.07315e-06
1.06445e-06
1.06153e-06
1.13178e-06
1.04395e-06
1.13176e-06
1.04519e-06
1.14514e-06
1.04686e-06
1.14649e-06
1.05924e-06
0.00131085
0.00132423
0.00130995
0.00107619
0.00107886
0.00112738
0.00112913
0.000876336
0.000877177
0.00101144
0.00101265
0.000159648
8.88897e-05
0.000551863
0.000425052
0.000229032
0.000668847
0.000160234
8.69737e-05
0.000550087
0.000429165
0.000230925
0.000670765
0.000851559
0.000835122
0.0008585
0.000825123
0.000851739
0.000833728
0.000857648
0.000826505
1.33264e-06
1.33447e-06
1.35902e-06
1.32403e-06
1.22405e-06
1.22346e-06
1.26959e-06
1.27331e-06
1.24481e-06
1.24461e-06
1.11213e-06
1.07109e-06
1.08088e-06
1.1388e-06
1.07866e-06
1.09986e-06
1.08091e-06
1.13819e-06
1.07867e-06
1.09992e-06
1.10862e-06
1.07148e-06
1.12054e-06
1.12575e-06
1.05245e-06
1.03371e-06
1.11976e-06
1.12726e-06
1.05323e-06
1.03318e-06
1.07758e-06
9.78155e-07
1.08141e-06
9.7885e-07
0.00131539
0.00132171
0.00121833
0.00116731
0.00116862
0.00117204
0.00117455
0.000835739
0.000831255
0.00094143
0.000993787
0.000737365
0.00105231
0.00083918
0.000828845
0.000925714
0.000983784
0.000733714
0.00104799
0.00114391
0.00114319
0.000689131
0.00072848
0.000669847
0.000729928
0.000810269
0.000831418
0.000843908
0.000829
1.33136e-06
1.34846e-06
1.36688e-06
1.27614e-06
1.27915e-06
1.28443e-06
1.28624e-06
1.251e-06
1.26019e-06
1.24751e-06
1.25165e-06
1.10539e-06
1.08394e-06
1.16259e-06
1.08982e-06
1.08659e-06
1.07182e-06
1.10024e-06
1.08725e-06
1.07229e-06
1.08561e-06
1.16291e-06
1.0909e-06
1.08821e-06
1.0703e-06
1.11961e-06
8.92643e-07
1.12216e-06
1.086e-06
9.42734e-07
1.07119e-06
0.00131629
0.00130864
0.001289
0.00125169
0.00124923
0.00124871
0.00124841
0.000896493
0.000871177
0.00101594
0.00110227
0.00102686
0.00108176
0.000891069
0.000842091
0.00101162
0.00109653
0.000982322
0.00107927
0.00118626
0.00111729
0.00120051
0.00115293
0.00118522
0.00111634
0.00119896
0.00115317
0.000683836
0.000804779
0.000686025
0.00080294
1.3325e-06
1.35731e-06
1.36264e-06
1.27843e-06
1.28115e-06
1.30678e-06
1.30616e-06
1.24861e-06
1.25236e-06
1.11339e-06
1.08978e-06
1.09093e-06
1.10263e-06
1.08208e-06
1.05949e-06
1.10417e-06
1.09096e-06
1.0914e-06
1.10349e-06
1.08291e-06
1.06017e-06
1.15492e-06
1.15904e-06
1.0531e-06
1.07981e-06
1.15921e-06
1.08045e-06
1.15494e-06
1.05372e-06
0.00131148
0.001308
0.00128599
0.00128084
0.00127956
0.00128538
0.001284
0.00128363
0.00126511
0.00117226
0.0011456
0.00126234
0.00116945
0.00114512
0.000902091
0.000871071
0.00122824
0.00113399
0.00112776
0.00122777
0.00089489
0.000831657
0.0012291
0.00112595
0.00112082
0.00122865
0.00122634
0.00119414
0.00122534
0.00119404
1.33379e-06
1.35267e-06
1.34035e-06
1.28979e-06
1.29366e-06
1.26568e-06
1.26874e-06
1.1165e-06
1.07625e-06
1.15804e-06
1.07463e-06
1.09906e-06
1.09651e-06
1.11816e-06
1.09525e-06
1.09746e-06
1.07716e-06
1.16092e-06
1.07603e-06
1.14345e-06
1.09026e-06
1.15011e-06
1.08809e-06
1.14024e-06
1.09103e-06
1.14688e-06
1.08816e-06
1.18495e-06
1.05896e-06
1.18489e-06
1.05922e-06
0.00129789
0.00132503
0.00126947
0.0012821
0.00126671
0.0012798
0.00128824
0.00128813
0.00119438
0.00117908
0.00116437
0.00117704
0.00117435
0.00111372
0.00118472
0.00112321
0.00117839
0.00119667
0.00115758
0.00117459
0.00117422
0.00110836
0.00118737
0.00111908
0.00122872
0.00126819
0.00122901
0.00125639
0.00122063
0.00121369
0.00122004
0.00121345
1.33381e-06
1.34341e-06
1.29758e-06
1.27768e-06
1.27914e-06
1.29669e-06
1.29763e-06
1.29913e-06
1.25301e-06
1.12066e-06
1.09185e-06
1.25379e-06
1.11841e-06
1.09295e-06
1.17449e-06
1.19232e-06
1.11284e-06
1.11479e-06
1.18369e-06
1.11541e-06
1.19293e-06
1.1157e-06
1.09962e-06
1.04913e-06
1.13699e-06
1.09309e-06
1.10035e-06
1.04958e-06
1.152e-06
1.09597e-06
0.00129759
0.00132583
0.00124848
0.00113399
0.00117976
0.00129234
0.00124445
0.00112537
0.00117922
0.00128951
0.00129492
0.00129925
0.00120417
0.00120132
0.00116776
0.00113781
0.00117697
0.0011404
0.00120336
0.00116818
0.00119845
0.00113497
0.00116911
0.00112267
0.00115885
0.00120078
0.00115386
0.00120129
1.33324e-06
1.33786e-06
1.29764e-06
1.2678e-06
1.26717e-06
1.30004e-06
1.30584e-06
1.30136e-06
1.16321e-06
1.14359e-06
1.10934e-06
1.12636e-06
1.10574e-06
1.10516e-06
1.13495e-06
1.09351e-06
1.16323e-06
1.14388e-06
1.1103e-06
1.12538e-06
1.10693e-06
1.10638e-06
1.1355e-06
1.09459e-06
1.20678e-06
1.12592e-06
1.07125e-06
1.07726e-06
1.20706e-06
1.08007e-06
1.12596e-06
1.07805e-06
0.00130939
0.00129833
0.00129229
0.00129754
0.0013045
0.00130302
0.00130268
0.00117277
0.00114771
0.00119503
0.00116489
0.00118055
0.00117172
0.00120912
0.00118805
0.00129164
0.00120146
0.00121982
0.00117712
0.00113475
0.0011945
0.00116504
0.00117892
0.00116635
0.0012181
0.00118745
0.00128944
0.00120196
0.00121055
0.00123477
0.00115477
0.00116134
0.00114501
0.0012296
0.00115422
0.00114891
0.00112122
1.33355e-06
1.32791e-06
1.28253e-06
1.26038e-06
1.11e-06
1.15908e-06
1.25939e-06
1.11104e-06
1.15517e-06
1.28235e-06
1.28427e-06
1.28011e-06
1.1738e-06
1.20358e-06
1.06708e-06
1.10748e-06
1.042e-06
1.10033e-06
1.16953e-06
1.2038e-06
1.06678e-06
1.04291e-06
1.10843e-06
1.1009e-06
1.0483e-06
1.0575e-06
1.0478e-06
1.05781e-06
0.00131163
0.0012976
0.0013007
0.00130307
0.00130732
0.0013165
0.00131667
0.00111197
0.00123936
0.00122991
0.0010814
0.00122842
0.00122149
0.00126281
0.00117956
0.00111995
0.00124287
0.00120687
0.00120831
0.00122133
0.00120883
0.00111612