/*--------------------------------*- C++ -*----------------------------------*\
| =========                 |                                                 |
| \\      /  F ield         | OpenFOAM: The Open Source CFD Toolbox           |
|  \\    /   O peration     | Version:  5.x                                   |
|   \\  /    A nd           | Web:      www.OpenFOAM.org                      |
|    \\/     M anipulation  |                                                 |
\*---------------------------------------------------------------------------*/
FoamFile
{
    version     2.0;
    format      ascii;
    class       volVectorField;
    location    "2.8";
    object      U;
}
// * * * * * * * * * * * * * * * * * * * * * * * * * * * * * * * * * * * * * //

dimensions      [0 1 -1 0 0 0 0];

internalField   nonuniform List<vector> 
12160
(
(0.029928 0 0.00151038)
(-0.0110423 0 0.00352701)
(0.0301656 0 0.00108034)
(0.00785677 0 0.00460354)
(-0.0111282 0 0.00321622)
(0.0305307 0 0.00409752)
(-0.0234557 0 0.00613624)
(0.00757747 0 0.00214595)
(-0.0112776 0 0.0104697)
(0.0309557 0 0.0034463)
(-0.0235171 0 0.00606375)
(-0.0236898 0 0.00456774)
(0.00747152 0 0.0113076)
(-0.0121746 0 0.0102365)
(0.0318019 0 0.00693871)
(-0.0448903 0 0.00563457)
(-0.0244858 0 0.00552119)
(-0.0236619 0 0.0167943)
(0.00551096 0 0.008925)
(-0.0126043 0 0.0185328)
(0.032174 0 0.00556412)
(-0.0549859 0 0.00466672)
(-0.0455263 0 0.00634382)
(-0.0244175 0 0.0172105)
(-0.0259424 0 0.0157147)
(0.0050132 0 0.0187856)
(-0.0153499 0 0.0185143)
(0.0340708 0 0.0109278)
(-0.0654107 0 0.00374701)
(-0.0555988 0 0.00540489)
(-0.0454082 0 0.017015)
(-0.0280275 0 0.0175511)
(-0.0265107 0 0.0279981)
(-4.09042e-05 0 0.0165647)
(-0.0153875 0 0.0291699)
(0.0291456 0 0.00734455)
(-0.0726767 0 0.00280257)
(-0.0659841 0 0.00409187)
(-0.0561433 0 0.0143365)
(-0.0481531 0 0.0187405)
(-0.0286251 0 0.0283452)
(-0.0329052 0 0.0277325)
(-0.000457168 0 0.0282187)
(-0.0303839 0 0.0301046)
(-0.029592 0 0.0220068)
(-0.0764922 0 0.00181588)
(-0.0732732 0 0.00221399)
(-0.0667221 0 0.0113414)
(-0.0588185 0 0.0159719)
(-0.0481225 0 0.0283349)
(-0.0348638 0 0.0296677)
(-0.0329895 0 0.0389206)
(-0.0125806 0 0.0267524)
(-0.0760598 0 0.0402442)
(-0.305851 0 0.0125877)
(-0.0761626 0 0.00073277)
(-0.0772135 0 -0.000208985)
(-0.0743537 0 0.00775763)
(-0.0690708 0 0.0122913)
(-0.059361 0 0.0240727)
(-0.0526416 0 0.0312093)
(-0.035688 0 0.0376595)
(-0.0450876 0 0.041511)
(-0.0479235 0 0.0352773)
(-0.285501 0 0.0337713)
(-0.0982603 0 0.239868)
(-0.0711514 0 -0.000477054)
(-0.0770798 0 -0.00322813)
(-0.0786925 0 0.00351127)
(-0.0768075 0 0.00769329)
(-0.0704612 0 0.0189422)
(-0.0633438 0 0.0272537)
(-0.0528885 0 0.0379256)
(-0.0470778 0 0.0422703)
(-0.0627687 0 0.0471544)
(-0.319683 0 0.0278158)
(0.129025 0 0.0357286)
(0.0235468 0 0.031258)
(-0.0610933 0 -0.00177335)
(-0.0722029 0 -0.00670809)
(-0.0789661 0 -0.00171957)
(-0.0815733 0 0.00199753)
(-0.0791492 0 0.0129984)
(-0.0741238 0 0.0217099)
(-0.0646068 0 0.0329341)
(-0.0625997 0 0.0446029)
(-0.0592261 0 0.044831)
(-0.283729 0 0.044083)
(-0.0574595 0 0.0522203)
(0.167062 0 0.0182104)
(-0.0441204 0 0.140521)
(-0.046118 0 -0.0030739)
(-0.0622101 0 -0.010388)
(-0.0743679 0 -0.00770075)
(-0.0823736 0 -0.00509041)
(-0.0846531 0 0.0056762)
(-0.0827889 0 0.0147479)
(-0.0769655 0 0.0262545)
(-0.0724923 0 0.0400812)
(-0.0616605 0 0.0464807)
(-0.251029 0 0.0443754)
(-0.325855 0 0.0174455)
(0.0794762 0 0.182592)
(-0.0963417 0 0.0255451)
(0.0077636 0 0.0835604)
(-0.0265681 0 -0.00422254)
(-0.047124 0 -0.0140586)
(-0.0644647 0 -0.0141412)
(-0.0782024 0 -0.0134269)
(-0.086175 0 -0.00362134)
(-0.0890304 0 0.00581971)
(-0.0875211 0 0.0183989)
(-0.0821421 0 0.0328453)
(-0.0644499 0 0.0427911)
(-0.217048 0 0.0472286)
(-0.564725 0 0.0247071)
(-0.00645026 0 0.227634)
(-0.0182604 0 0.13897)
(0.0848406 0 0.0143079)
(-0.0225296 0 0.112683)
(-0.00407081 0 -0.00498874)
(-0.0274574 0 -0.017224)
(-0.0491684 0 -0.0205078)
(-0.0684949 0 -0.0223908)
(-0.0825521 0 -0.0146492)
(-0.0917006 0 -0.00567653)
(-0.0954446 0 0.00877754)
(-0.0915001 0 0.0233982)
(-0.0673665 0 0.036671)
(-0.194023 0 0.0439513)
(-0.587549 0 0.0183738)
(-0.0796183 0 0.156888)
(0.0010655 0 0.131132)
(0.0200571 0 0.144321)
(-0.0723055 0 0.0195137)
(0.0199901 0 -0.00538609)
(-0.00470766 0 -0.0191649)
(-0.0290898 0 -0.0258802)
(-0.052916 0 -0.0313208)
(-0.0730991 0 -0.0268472)
(-0.0891456 0 -0.0192552)
(-0.0994705 0 -0.00374876)
(-0.0990442 0 0.0112921)
(-0.069613 0 0.0279539)
(-0.169025 0 0.0366126)
(-0.530459 0 0.01726)
(-0.0916828 0 0.0356873)
(0.0413025 0 0.0799024)
(0.0345844 0 0.163435)
(-0.0248541 0 0.133463)
(0.0443508 0 -0.00542539)
(0.0198495 0 -0.0201632)
(-0.00568947 0 -0.0294367)
(-0.0320075 0 -0.0391331)
(-0.0572957 0 -0.0390848)
(-0.0803369 0 -0.0340884)
(-0.0977681 0 -0.0202398)
(-0.103951 0 -0.00472505)
(-0.0707146 0 0.0158553)
(-0.150187 0 0.026484)
(-0.458898 0 0.0136958)
(-0.0935977 0 -0.0109953)
(0.054948 0 0.0199711)
(0.0403994 0 0.116034)
(-0.00953708 0 0.141528)
(0.0673112 0 -0.00511117)
(0.0445162 0 -0.0200613)
(0.0195583 0 -0.0311449)
(-0.00748856 0 -0.0444399)
(-0.0355774 0 -0.0494509)
(-0.0639274 0 -0.0491405)
(-0.0893029 0 -0.0395878)
(-0.103148 0 -0.0249101)
(-0.0714875 0 -0.000755405)
(-0.13528 0 0.0133727)
(-0.39796 0 0.00912079)
(-0.109679 0 -0.020275)
(0.0414344 0 0.01497)
(0.0228865 0 0.0447223)
(0.0102555 0 0.0994366)
(0.0882462 0 -0.00467049)
(0.0678018 0 -0.0189884)
(0.0449445 0 -0.0310134)
(0.0190022 0 -0.0470705)
(-0.00969948 0 -0.0560236)
(-0.0404831 0 -0.0625886)
(-0.0725229 0 -0.0596663)
(-0.0936948 0 -0.0471405)
(-0.0699371 0 -0.0226802)
(-0.125196 0 -0.00404614)
(-0.344374 0 0.00113084)
(-0.0963995 0 -0.0261598)
(0.0305445 0 0.00611058)
(-0.0034024 0 0.00741194)
(0.0166422 0 0.0395756)
(0.106666 0 -0.00409895)
(0.08891 0 -0.017213)
(0.0688708 0 -0.0292341)
(0.0455194 0 -0.0468675)
(0.0184061 0 -0.0589051)
(-0.0123393 0 -0.0719129)
(-0.0474493 0 -0.0764749)
(-0.0744844 0 -0.0699926)
(-0.0637667 0 -0.0500352)
(-0.113828 0 -0.0264342)
(-0.310052 0 -0.0124542)
(-0.0887205 0 -0.0279066)
(0.0339941 0 -0.00591248)
(-0.00751019 0 -0.00684198)
(0.0199759 0 0.0141224)
(0.122522 0 -0.00348148)
(0.107408 0 -0.0152288)
(0.0903425 0 -0.0264434)
(0.07027 0 -0.044185)
(0.0465715 0 -0.0582908)
(0.0178574 0 -0.0767258)
(-0.0172987 0 -0.0872001)
(-0.0477429 0 -0.0902689)
(-0.0493601 0 -0.0792144)
(-0.0960052 0 -0.0541012)
(-0.273605 0 -0.0393761)
(-0.113909 0 -0.0338776)
(0.0385805 0 0.0021291)
(-0.0110388 0 -0.0201512)
(0.0200482 0 0.00218321)
(0.1361 0 -0.00288094)
(0.123264 0 -0.0133063)
(0.108871 0 -0.0231927)
(0.0922646 0 -0.0397019)
(0.0728015 0 -0.0545705)
(0.0479924 0 -0.0764118)
(0.0157011 0 -0.0910442)
(-0.0167382 0 -0.10361)
(-0.0272958 0 -0.103766)
(-0.0676132 0 -0.083714)
(-0.215526 0 -0.0757987)
(-0.183724 0 -0.0671295)
(0.0476215 0 0.0205246)
(-0.0134472 0 -0.025438)
(0.0197872 0 -0.0137955)
(0.147562 0 -0.00232127)
(0.136804 0 -0.0114876)
(0.124666 0 -0.019981)
(0.111051 0 -0.0348262)
(0.0955159 0 -0.0487002)
(0.0755322 0 -0.0713339)
(0.0490327 0 -0.0893479)
(0.0188409 0 -0.110901)
(0.00576155 0 -0.12084)
(-0.0315751 0 -0.111618)
(-0.157626 0 -0.115617)
(-0.20404 0 -0.118579)
(0.0655876 0 0.000553859)
(0.00414537 0 -0.0359335)
(0.0183215 0 -0.0157454)
(0.156983 0 -0.00182978)
(0.148207 0 -0.00982976)
(0.138124 0 -0.0168966)
(0.126863 0 -0.0301944)
(0.114204 0 -0.0422176)
(0.0989467 0 -0.0627584)
(0.0792927 0 -0.0825612)
(0.0545095 0 -0.111454)
(0.0444463 0 -0.125451)
(0.0124447 0 -0.132611)
(-0.0969838 0 -0.149939)
(-0.161431 0 -0.153095)
(0.0765506 0 -0.0852616)
(0.0423012 0 -0.0672593)
(0.0130453 0 -0.0187168)
(0.164821 0 -0.00140091)
(0.157557 0 -0.00837743)
(0.149407 0 -0.0140843)
(0.140229 0 -0.0258566)
(0.129784 0 -0.0362209)
(0.117973 0 -0.0541297)
(0.103504 0 -0.0725833)
(0.086146 0 -0.102328)
(0.0804053 0 -0.119905)
(0.0663134 0 -0.143349)
(-0.0314468 0 -0.179382)
(-0.0954188 0 -0.188104)
(0.0806631 0 -0.163533)
(0.0671169 0 -0.115465)
(0.00143917 0 -0.046647)
(0.171302 0 -0.00105382)
(0.165317 0 -0.0071403)
(0.158616 0 -0.0116085)
(0.151334 0 -0.0218976)
(0.142941 0 -0.0305646)
(0.133589 0 -0.0465447)
(0.122716 0 -0.0627011)
(0.112698 0 -0.0861968)
(0.11143 0 -0.108806)
(0.130117 0 -0.143222)
(0.0524533 0 -0.196351)
(-0.0333862 0 -0.218403)
(0.0701714 0 -0.210161)
(0.0575078 0 -0.150611)
(-0.00995407 0 -0.105726)
(0.176642 0 -0.000755334)
(0.17172 0 -0.00611178)
(0.166229 0 -0.00953281)
(0.160301 0 -0.0184534)
(0.153774 0 -0.0252849)
(0.146641 0 -0.0395236)
(0.138475 0 -0.0538127)
(0.132371 0 -0.0711038)
(0.141634 0 -0.0972714)
(0.19863 0 -0.134624)
(0.140435 0 -0.19686)
(0.0110214 0 -0.235392)
(0.0585789 0 -0.234299)
(0.04791 0 -0.179034)
(-0.00242317 0 -0.155716)
(0.18106 0 -0.000481152)
(0.177001 0 -0.00530446)
(0.172468 0 -0.00782024)
(0.167641 0 -0.0155216)
(0.162431 0 -0.0207742)
(0.15712 0 -0.0330445)
(0.151023 0 -0.0453387)
(0.147418 0 -0.0590685)
(0.16999 0 -0.0884769)
(0.262681 0 -0.116699)
(0.227199 0 -0.181182)
(0.0131726 0 -0.236492)
(0.0445176 0 -0.231683)
(0.0366705 0 -0.203227)
(0.0049934 0 -0.189173)
(0.1847 0 -0.000203426)
(0.181391 0 -0.00468606)
(0.177576 0 -0.00645839)
(0.173629 0 -0.0131604)
(0.169446 0 -0.0169444)
(0.165215 0 -0.0277203)
(0.160531 0 -0.0370009)
(0.158316 0 -0.0482091)
(0.183606 0 -0.0780858)
(0.292188 0 -0.0924153)
(0.2873 0 -0.149413)
(-0.0349304 0 -0.213923)
(0.0226402 0 -0.19067)
(0.0193875 0 -0.210295)
(0.00639263 0 -0.209903)
(0.187676 0 8.23542e-05)
(0.185055 0 -0.00415694)
(0.181839 0 -0.00534977)
(0.178552 0 -0.0113575)
(0.175038 0 -0.0138718)
(0.171691 0 -0.0230866)
(0.167537 0 -0.0293315)
(0.165645 0 -0.0386641)
(0.18758 0 -0.0664886)
(0.315544 0 -0.0673376)
(0.288231 0 -0.112915)
(-0.0594405 0 -0.150121)
(0.0176753 0 -0.159052)
(0.0123711 0 -0.205541)
(0.00765238 0 -0.210299)
(0.189779 0 0.000359988)
(0.188071 0 -0.00359801)
(0.185478 0 -0.00435178)
(0.182732 0 -0.00999923)
(0.179567 0 -0.0115664)
(0.176739 0 -0.0194954)
(0.172988 0 -0.0232787)
(0.169251 0 -0.0329426)
(0.183439 0 -0.0539212)
(0.317531 0 -0.0444823)
(0.263836 0 -0.0805964)
(-0.048213 0 -0.0828853)
(0.0167545 0 -0.147887)
(0.00432236 0 -0.186098)
(0.0013087 0 -0.188617)
(0.191605 0 0.000810933)
(0.190414 0 -0.00302482)
(0.18852 0 -0.00329074)
(0.186412 0 -0.00884109)
(0.183454 0 -0.00999118)
(0.180938 0 -0.0165572)
(0.177396 0 -0.0189411)
(0.169523 0 -0.0272386)
(0.175514 0 -0.0403681)
(0.304752 0 -0.0270408)
(0.235358 0 -0.0471825)
(-0.0348505 0 -0.0468418)
(0.00752983 0 -0.115553)
(-0.0111055 0 -0.138737)
(-0.0177107 0 -0.163418)
(0.191578 0 0.00153789)
(0.191974 0 -0.00223953)
(0.190889 0 -0.00205162)
(0.189644 0 -0.00761381)
(0.187053 0 -0.00861847)
(0.184719 0 -0.0147259)
(0.181424 0 -0.0163982)
(0.170722 0 -0.0238546)
(0.16683 0 -0.0313809)
(0.279108 0 -0.0185798)
(0.228413 0 -0.0219103)
(-0.016418 0 -0.0270196)
(-0.00384768 0 -0.0830018)
(-0.0140704 0 -0.0867476)
(-0.0274037 0 -0.138247)
(0.191405 0 0.00153245)
(0.192552 0 -0.00147532)
(0.192516 0 -0.000447481)
(0.192384 0 -0.00620517)
(0.190329 0 -0.00691094)
(0.188637 0 -0.0135308)
(0.184849 0 -0.0150939)
(0.173079 0 -0.020154)
(0.160866 0 -0.0282016)
(0.254672 0 -0.0130955)
(0.230682 0 -0.0062504)
(-0.00437944 0 -0.0249918)
(-0.00885312 0 -0.0582786)
(-0.0096689 0 -0.0555585)
(-0.0183798 0 -0.103081)
(0.190446 0 0.00179201)
(0.192171 0 -0.000578868)
(0.193429 0 0.00145273)
(0.19441 0 -0.00444333)
(0.193253 0 -0.00472523)
(0.192266 0 -0.0125587)
(0.187984 0 -0.0136304)
(0.176229 0 -0.0185157)
(0.160478 0 -0.025405)
(0.241112 0 -0.0167045)
(0.247498 0 -0.00172277)
(0.00801372 0 -0.0291655)
(-0.0122025 0 -0.0353425)
(-0.00954772 0 -0.0370362)
(-0.00989275 0 -0.0709214)
(0.187896 0 0.00233994)
(0.190576 0 0.000632056)
(0.193248 0 0.0031836)
(0.195148 0 -0.00222331)
(0.195461 0 -0.00181396)
(0.196037 0 -0.0106759)
(0.191676 0 -0.0111773)
(0.180352 0 -0.0183956)
(0.164641 0 -0.0248903)
(0.230579 0 -0.0188453)
(0.272278 0 -0.0105994)
(0.0163667 0 -0.0358407)
(-0.0139599 0 -0.0227801)
(-0.00850165 0 -0.0287788)
(-0.00425681 0 -0.0472089)
(0.184434 0 0.00272773)
(0.188227 0 0.00183059)
(0.191626 0 0.00493643)
(0.194744 0 0.000531264)
(0.196982 0 0.00157074)
(0.198964 0 -0.00788383)
(0.194897 0 -0.0082366)
(0.184337 0 -0.0181351)
(0.171705 0 -0.023646)
(0.232976 0 -0.0237053)
(0.300189 0 -0.0160122)
(0.0188122 0 -0.0451786)
(-0.0252121 0 -0.0176646)
(-0.00741417 0 -0.0211859)
(-0.00246888 0 -0.032607)
(0.180898 0 0.00307566)
(0.184824 0 0.00268205)
(0.18915 0 0.00674915)
(0.19324 0 0.00329346)
(0.19707 0 0.00493507)
(0.200103 0 -0.00374011)
(0.198925 0 -0.00372951)
(0.18715 0 -0.0166995)
(0.17516 0 -0.0195757)
(0.249803 0 -0.0249691)
(0.333317 0 -0.0341757)
(0.0153924 0 -0.0554151)
(-0.0397882 0 -0.0187225)
(-0.00325319 0 -0.0173701)
(-0.00139983 0 -0.025255)
(0.17545 0 0.00323139)
(0.181425 0 0.00346195)
(0.185536 0 0.00830147)
(0.190762 0 0.00582272)
(0.195275 0 0.00839328)
(0.199878 0 0.00143703)
(0.203195 0 0.00163985)
(0.189707 0 -0.0149695)
(0.17039 0 -0.013607)
(0.270305 0 -0.0169569)
(0.352226 0 -0.0455043)
(0.0111106 0 -0.057178)
(-0.054459 0 -0.0236985)
(0.00384239 0 -0.0208183)
(0.00140288 0 -0.0242995)
(0.17609 0 0.00379042)
(0.170555 0 0.00358888)
(0.181926 0 0.00979217)
(0.187156 0 0.00786296)
(0.192296 0 0.011707)
(0.198405 0 0.00626859)
(0.204625 0 0.00677658)
(0.193516 0 -0.00835624)
(0.153208 0 -0.00872898)
(0.266832 0 -0.00052937)
(0.356074 0 -0.0268654)
(-0.0162469 0 -0.0432469)
(-0.0664485 0 -0.0186622)
(0.00651762 0 -0.0318992)
(0.00706267 0 -0.0272063)
(0.176464 0 0.0107851)
(0.170752 0 0.00412238)
(0.154136 0 0.00363762)
(0.183383 0 0.00965426)
(0.188138 0 0.0145804)
(0.195625 0 0.0103872)
(0.202575 0 0.012048)
(0.192285 0 0.00133051)
(0.13236 0 0.0022479)
(0.244898 0 0.0126422)
(0.32925 0 0.00999638)
(-0.0429599 0 -0.0107281)
(-0.0847973 0 -0.00501574)
(0.000413007 0 -0.0353817)
(0.012027 0 -0.0277494)
(0.177851 0 0.0108852)
(0.170776 0 0.0119892)
(0.153872 0 0.00352611)
(0.150761 0 0.00286413)
(0.183841 0 0.0171532)
(0.191721 0 0.0137428)
(0.19882 0 0.0169506)
(0.189327 0 0.00946293)
(0.126379 0 0.0119022)
(0.214043 0 0.0105618)
(0.280229 0 0.0398449)
(-0.0489224 0 0.0455669)
(-0.0986601 0 0.00445264)
(0.000341633 0 -0.0288902)
(0.00557072 0 -0.0184049)
(0.177784 0 0.0192199)
(0.171595 0 0.0122476)
(0.153137 0 0.0114005)
(0.150104 0 0.0017629)
(0.142136 0 0.00108241)
(0.187482 0 0.0165201)
(0.193947 0 0.0213289)
(0.18583 0 0.0154541)
(0.12876 0 0.0195963)
(0.183497 0 0.0037266)
(0.229985 0 0.04741)
(-0.0065289 0 0.079831)
(-0.0907411 0 0.000298526)
(0.0136517 0 -0.0162937)
(-0.010912 0 -0.0075393)
(0.181435 0 0.0186855)
(0.171009 0 0.0216458)
(0.152615 0 0.0114317)
(0.149039 0 0.00884188)
(0.138404 0 -0.0031084)
(0.153125 0 -0.00188633)
(0.188908 0 0.0253504)
(0.181341 0 0.0199451)
(0.134189 0 0.0263577)
(0.165212 0 0.00332889)
(0.213712 0 0.0444826)
(0.0985509 0 0.0509134)
(-0.0506016 0 -0.0440738)
(0.0290521 0 0.00152314)
(-0.030704 0 -0.00441471)
(0.182096 0 0.0292065)
(0.17352 0 0.0212869)
(0.151588 0 0.0213434)
(0.146371 0 0.00809794)
(0.135295 0 0.000783526)
(0.150495 0 -0.0104122)
(0.171254 0 -0.0107568)
(0.176272 0 0.0234422)
(0.137528 0 0.0329347)
(0.155013 0 0.00903171)
(0.214811 0 0.0383062)
(0.158856 0 0.0137973)
(-0.0237622 0 -0.06619)
(0.0315288 0 0.0168796)
(-0.0398057 0 -0.00422402)
(0.168745 0 0.02621)
(0.173593 0 0.0337949)
(0.151482 0 0.0213605)
(0.143481 0 0.017864)
(0.12942 0 -0.00212896)
(0.146991 0 -0.00977155)
(0.158418 0 -0.0301397)
(0.231489 0 -0.00592574)
(0.139799 0 0.0395204)
(0.147973 0 0.0166626)
(0.213118 0 0.0372269)
(0.181576 0 0.00305447)
(-0.00424324 0 -0.021092)
(-0.00941906 0 0.0133414)
(-0.0325417 0 -0.00864839)
(0.137184 0 0.0459134)
(0.155293 0 0.0312529)
(0.150663 0 0.0348909)
(0.140385 0 0.0174615)
(0.125072 0 0.00703888)
(0.135231 0 -0.0167104)
(0.147134 0 -0.039723)
(0.210009 0 -0.0349776)
(0.231839 0 -0.0175361)
(0.145117 0 0.0247288)
(0.199494 0 0.0382187)
(0.175112 0 0.0164421)
(-0.00424523 0 0.0208318)
(-0.0498008 0 0.00423958)
(-0.0110186 0 -0.00352598)
(0.140546 0 0.0322508)
(0.131882 0 0.0548239)
(0.127967 0 0.0337178)
(0.137487 0 0.0315166)
(0.118295 0 0.00672329)
(0.122269 0 -0.0087922)
(0.129109 0 -0.04989)
(0.185646 0 -0.0551879)
(0.230932 0 -0.0598363)
(0.406305 0 0.00425446)
(0.182137 0 0.0416526)
(0.15016 0 0.0347068)
(-0.0153921 0 0.0497231)
(-0.0559404 0 0.020641)
(-0.0113932 0 0.0128479)
(0.155664 0 0.0465192)
(0.133343 0 0.0461627)
(0.105299 0 0.0561977)
(0.110237 0 0.0309047)
(0.113403 0 0.0230971)
(0.107539 0 -0.0112124)
(0.114098 0 -0.0498085)
(0.161853 0 -0.0977984)
(0.240982 0 -0.0976386)
(0.381034 0 0.0191804)
(0.141176 0 0.00807799)
(0.115394 0 0.0532522)
(-0.0357042 0 0.0741308)
(-0.062932 0 0.0508933)
(-0.0251845 0 0.0332543)
(0.0646666 0 0.0708669)
(0.114461 0 0.0606259)
(0.104605 0 0.0553408)
(0.0827354 0 0.0537561)
(0.0809565 0 0.0261489)
(0.0919301 0 0.0132886)
(0.0745987 0 -0.0484717)
(0.121658 0 -0.107768)
(0.218536 0 -0.130878)
(0.349026 0 0.0280971)
(0.117151 0 0.0161461)
(0.444796 0 2.40855)
(-0.0660293 0 0.103226)
(-0.0735549 0 0.0841907)
(-0.0350016 0 0.0630732)
(-0.110528 0 0.147289)
(-0.08381 0 0.101061)
(0.0294182 0 0.0763728)
(0.0576259 0 0.055971)
(0.0486987 0 0.0536327)
(0.0439147 0 0.0281201)
(0.0354218 0 8.30128e-05)
(0.0110668 0 -0.0981346)
(0.119523 0 -0.161143)
(0.26596 0 0.00271055)
(0.205843 0 0.0572945)
(0.404954 0 1.83447)
(0.911472 1.56502e-26 2.71352)
(0.258451 0 2.9672)
(-0.0960256 0 0.124967)
(-0.0461655 0 0.100722)
(-0.132117 0 0.18126)
(-0.2161 0 0.225649)
(-0.379252 0 0.130911)
(-0.104897 0 0.0832993)
(0.00156926 0 0.0616106)
(0.00591644 0 0.0637171)
(-0.0269278 0 0.0404317)
(-0.0781346 0 -0.015153)
(-0.0950785 0 -0.146898)
(0.150815 0 -0.0646426)
(0.322806 0 0.119341)
(0.302534 0 1.36414)
(1.13902 1.12611e-26 2.41501)
(1.12178 -3.20897e-29 2.624)
(0.534372 1.79227e-26 2.98549)
(0.0891487 0 3.12384)
(-0.0630595 0 0.150086)
(-0.085702 0 0.217127)
(-0.214923 0 0.291323)
(-0.559174 0 0.227739)
(-0.424079 0 0.101747)
(-0.113749 0 0.0857836)
(-0.0405215 0 0.0781428)
(-0.0563602 0 0.0858714)
(-0.128608 0 0.0765706)
(-0.273813 0 -0.0982777)
(-0.107431 0 -0.136749)
(0.330976 0 0.0851193)
(0.28619 0 0.907178)
(1.14577 0 2.05644)
(1.36736 0 2.37171)
(1.39641 1.46592e-25 2.28924)
(0.771657 -3.13757e-29 2.87128)
(0.237365 1.67341e-26 3.15783)
(0.023102 0 3.18711)
(-0.130505 0 0.354696)
(-0.489758 0 0.330245)
(-0.813072 0 0.0979725)
(-0.377216 0 0.0624069)
(-0.0920182 0 0.100762)
(-0.090331 0 0.101209)
(-0.115899 0 0.131047)
(-0.3025 0 0.0242162)
(-0.403671 0 -0.11454)
(0.027227 0 0.030179)
(0.311218 0 0.586783)
(1.01651 0 1.6994)
(1.39461 0 2.09425)
(1.59357 4.26663e-25 2.07229)
(1.59642 -4.09842e-29 1.76744)
(1.11597 1.38648e-25 2.55754)
(0.431397 0 3.12843)
(-0.105 0 3.21454)
(-0.207381 0 3.05525)
(-0.24319 0 0.451195)
(-0.805619 0 0.179198)
(-0.844299 0 0.0106604)
(-0.273239 0 0.0924811)
(-0.101482 0 0.130794)
(-0.144017 0 0.130054)
(-0.127786 0 0.144527)
(-0.579449 0 -0.0594192)
(-0.394594 0 -0.0882101)
(0.137692 0 0.451493)
(0.789967 0 1.31365)
(1.25454 -3.98217e-26 1.84097)
(1.63264 2.47643e-25 1.86955)
(1.75492 0 1.59456)
(1.75932 5.12695e-25 1.09189)
(1.3487 -3.98659e-29 1.97164)
(0.790191 3.82673e-25 2.86194)
(0.129587 0 3.38017)
(-0.305195 0 3.21212)
(-0.215852 0 2.76941)
(-0.500792 0 0.300241)
(-0.875103 0 0.0256285)
(-0.716372 0 0.00725673)
(-0.18332 0 0.153441)
(-0.162284 0 0.122554)
(-0.0606366 0 0.20894)
(-0.470759 0 0.100719)
(-0.663388 0 -0.119028)
(-0.223537 0 0.20646)
(0.529194 0 1.11802)
(1.05145 -6.66104e-26 1.5851)
(1.49742 0 1.699)
(1.7531 -4.7668e-25 1.4926)
(1.86631 -8.74574e-25 1.0314)
(1.81582 2.26054e-09 0.403794)
(1.60164 0 1.21082)
(1.05961 0 2.20776)
(0.527458 4.06611e-25 3.18403)
(0.0415044 -3.56802e-26 3.69585)
(-0.325695 0 3.32443)
(-0.193299 0 2.56701)
(-0.554386 0 -0.0770036)
(-0.627066 0 -0.0931672)
(-0.469558 0 0.0854902)
(-0.176567 0 0.152743)
(-0.114869 0 0.128674)
(-0.0541638 0 0.329726)
(-0.773396 0 -0.108717)
(-0.620586 0 -0.0635831)
(0.231928 0 0.905217)
(0.729962 1.02377e-42 1.3567)
(1.27277 0 1.54119)
(1.61112 7.25976e-25 1.39997)
(1.869 -6.65546e-24 1.0461)
(1.7791 8.46997e-10 0.434159)
(1.68362 2.60663e-09 -0.106211)
(1.6735 -2.15068e-09 0.320015)
(1.6826 4.72938e-10 -0.106442)
(1.68134 2.94299e-09 -0.0839944)
(1.68039 3.85888e-10 -0.083719)
(1.35112 1.42509e-24 1.24823)
(0.792794 1.10672e-24 2.4269)
(0.438104 1.22338e-25 3.46966)
(0.292799 -6.41949e-26 4.14361)
(-0.159332 0 3.60547)
(-0.114913 0 2.48103)
(-0.25444 0 -0.260903)
(-0.374365 0 -0.0242397)
(-0.34249 0 0.0997623)
(-0.149879 0 0.0881108)
(-0.0112677 0 0.391493)
(-0.524446 0 0.107582)
(-0.807297 0 -0.175743)
(-0.12965 0 0.579984)
(0.434851 4.69919e-42 1.12848)
(1.00979 0 1.38037)
(1.4096 0 1.2871)
(1.77585 -1.32267e-24 1.07521)
(1.72837 -9.90728e-25 0.524515)
(1.75321 -1.79673e-09 -0.0996361)
(1.60651 1.35319e-09 -0.201269)
(1.60231 3.66874e-09 -0.406168)
(1.38162 -3.66597e-09 0.434148)
(1.60545 4.1489e-10 -0.201755)
(1.63366 -1.02434e-09 -0.148114)
(1.63273 2.04613e-10 -0.14895)
(1.59967 2.98683e-10 -0.406221)
(1.63199 4.33119e-09 -0.379694)
(1.62891 2.43716e-10 -0.378703)
(1.04882 -5.31016e-25 1.42748)
(0.505066 -2.52169e-24 2.65445)
(0.372619 0 3.54751)
(0.342476 1.71107e-26 4.34772)
(-0.0407368 0 3.79262)
(-0.098175 0 2.40711)
(-0.135163 0 -0.107934)
(-0.271877 0 0.0343254)
(-0.273662 0 0.0859622)
(-0.118735 0 0.229571)
(0.0835748 0 0.534854)
(-0.985735 0 -0.265414)
(-0.433812 0 0.252392)
(0.0982898 -2.98524e-26 0.829198)
(0.761744 3.49235e-26 1.19658)
(1.13838 1.54257e-25 1.15644)
(1.55668 0 1.0685)
(1.62423 -1.62455e-23 0.589888)
(1.64026 -8.85877e-09 0.0511878)
(1.47859 -3.59075e-09 -0.474902)
(1.47804 6.86055e-09 -0.477304)
(1.50058 -1.17092e-10 -0.388676)
(1.50109 1.44275e-10 -0.390529)
(1.53528 2.19706e-09 -0.489909)
(1.53463 4.82784e-09 -0.678632)
(1.0364 1.54615e-24 0.415213)
(1.40292 1.7385e-09 -0.496897)
(1.5332 3.18732e-10 -0.491035)
(1.49877 -4.68764e-10 -0.52931)
(1.49686 3.45367e-10 -0.531373)
(1.53043 -1.13348e-09 -0.679523)
(1.5505 6.03391e-09 -0.587733)
(1.54814 -2.34896e-09 -0.588494)
(0.658102 -5.13004e-24 1.48837)
(0.181445 0 2.59341)
(0.118662 0 3.40902)
(0.0248121 8.12859e-26 4.4376)
(-0.139497 0 3.68451)
(-0.0361471 0 2.25371)
(-0.0919732 0 0.0147665)
(-0.230099 0 0.0614756)
(-0.290896 0 0.20794)
(0.0358365 0 0.611239)
(-0.545594 0 -0.117711)
(-0.652752 0 0.00917048)
(-0.228017 0 0.483678)
(0.555441 3.19137e-26 1.00035)
(0.90482 0 0.978056)
(1.36242 9.831e-25 1.0035)
(1.53179 -4.76093e-24 0.653886)
(1.58986 -6.04119e-09 0.233477)
(1.42617 -4.47344e-10 -0.294613)
(1.42687 1.59546e-10 -0.295642)
(1.44756 1.49598e-10 -0.236066)
(1.44773 1.16517e-10 -0.236545)
(1.41051 -8.18222e-09 -0.682643)
(1.40724 7.53808e-09 -0.683705)
(1.42204 -1.15167e-09 -0.594543)
(1.42198 1.6573e-09 -0.592704)
(1.49447 5.1533e-10 -0.792689)
(1.46276 -3.18453e-09 -0.855086)
(1.35752 -2.4533e-08 -0.869909)
(1.45269 -6.73319e-10 -0.874606)
(1.37876 1.67308e-09 -0.851529)
(0.618547 -1.42051e-23 0.444192)
(1.11281 5.93165e-09 -0.540477)
(1.23238 4.94833e-10 -0.931195)
(1.2312 -2.90051e-11 -0.930283)
(1.31912 -2.75677e-09 -0.919976)
(1.31708 2.91751e-09 -0.918462)
(1.4897 6.9065e-10 -0.792889)
(1.46809 -3.77952e-10 -0.875826)
(1.46442 9.79819e-10 -0.876627)
(1.46018 -2.34479e-09 -0.854968)
(1.36082 1.10185e-08 -0.871106)
(1.45122 -5.09068e-09 -0.875077)
(1.37472 -1.64733e-09 -0.850578)
(1.46475 -9.04185e-10 -0.817737)
(1.35198 -2.2909e-08 -0.753344)
(1.45234 1.69612e-10 -0.812631)
(1.36939 1.84448e-09 -0.776581)
(1.46515 -2.57094e-09 -0.818659)
(1.36369 8.55477e-09 -0.751962)
(1.45349 -6.4941e-09 -0.813533)
(1.37658 -1.93327e-09 -0.779743)
(0.181115 0 1.5382)
(-0.339529 -1.29636e-24 2.39623)
(-0.568506 0 2.98584)
(-0.7287 1.10328e-25 3.94288)
(-0.45468 0 3.11202)
(-0.141543 0 1.96471)
(-0.0895473 0 0.0904623)
(-0.285864 0 0.218833)
(-0.171352 0 0.611249)
(-0.301477 0 0.583649)
(-0.747127 0 -0.274024)
(-0.348456 0 0.167253)
(0.275254 0 0.688012)
(0.717273 0 0.812841)
(1.14972 9.50604e-25 0.839112)
(1.40074 1.24042e-24 0.627295)
(1.53044 -3.28171e-09 0.293448)
(1.43319 1.21466e-09 -0.129516)
(1.43308 4.35265e-11 -0.129361)
(1.45527 1.92649e-09 -0.106871)
(1.45426 5.33129e-11 -0.105826)
(1.35649 -7.11785e-09 -0.529601)
(1.35705 3.32245e-09 -0.527269)
(1.38112 -8.94057e-09 -0.445816)
(1.38257 3.01378e-09 -0.444782)
(1.22333 -7.57042e-10 -0.89148)
(1.3174 -5.0911e-10 -0.817148)
(1.34429 2.74095e-09 -0.895649)
(1.25087 -8.62157e-10 -0.826631)
(1.37632 2.0282e-09 -0.82964)
(1.40533 2.11377e-09 -0.907487)
(1.32561 -7.65455e-10 -0.814122)
(1.22413 7.83819e-10 -0.889927)
(1.34382 -8.48073e-10 -0.895358)
(1.25086 -6.26858e-10 -0.825376)
(1.37562 -2.04582e-09 -0.829393)
(1.40702 -1.29678e-09 -0.906781)
(1.23863 -2.92856e-09 -0.73831)
(1.36756 3.41589e-09 -0.737297)
(1.25685 -7.08918e-10 -0.775549)
(1.38859 3.02627e-09 -0.773633)
(1.24221 1.74244e-10 -0.738321)
(1.36793 -2.98036e-09 -0.736859)
(1.25889 -4.55819e-10 -0.774921)
(1.38852 -2.89859e-09 -0.773009)
(1.4159 -7.19973e-09 -0.962753)
(1.31675 -2.47029e-08 -0.932532)
(1.41158 -3.06541e-09 -0.934919)
(1.33171 1.16103e-09 -0.958152)
(1.40797 6.83062e-10 -0.987278)
(1.33259 -9.66502e-10 -1.00608)
(1.3881 1.33931e-09 -1.00951)
(1.35825 7.10815e-10 -0.977764)
(0.167823 -8.51379e-24 0.463252)
(0.785777 4.07656e-09 -0.581668)
(0.911615 -2.22292e-10 -0.990315)
(0.911874 -8.52176e-11 -0.990376)
(1.02888 7.65754e-10 -1.01219)
(1.02891 1.33845e-11 -1.01162)
(1.1543 8.75545e-10 -1.22082)
(1.15426 -1.37072e-09 -1.22116)
(1.2311 -4.89175e-09 -1.19263)
(1.23162 3.2121e-09 -1.19415)
(1.41488 -6.90173e-10 -0.963078)
(1.32586 1.10618e-08 -0.93179)
(1.41238 -6.12817e-09 -0.934982)
(1.33399 -1.20817e-09 -0.959474)
(1.39228 -1.1586e-08 -1.02925)
(1.32608 -3.13189e-08 -1.00774)
(1.40358 -7.40465e-09 -1.0142)
(1.32215 1.04533e-09 -1.03534)
(1.39018 2.35109e-09 -1.02938)
(1.33114 1.25652e-08 -1.00771)
(1.40274 -5.14451e-09 -1.01479)
(1.31943 -1.05657e-09 -1.0357)
(1.40666 1.13239e-09 -0.986923)
(1.33493 1.02724e-09 -1.00741)
(1.38798 7.23196e-10 -1.00992)
(1.35573 5.15822e-11 -0.976763)
(1.40896 2.66735e-10 -0.941222)
(1.34784 3.92435e-10 -0.884408)
(1.41011 1.13138e-09 -0.941445)
(1.35336 -3.34584e-10 -0.885554)
(-0.401972 -8.96317e-25 1.49842)
(-0.968243 0 2.05428)
(-1.38859 0 2.56331)
(-1.36865 0 3.19147)
(-0.712524 0 2.4358)
(-0.223463 0 1.54792)
(-0.138701 0 0.236121)
(-0.231054 0 0.537031)
(-0.197389 0 0.491915)
(-0.606055 0 -0.144827)
(-0.538271 0 -0.0992549)
(0.0550892 0 0.341693)
(0.485062 0 0.565939)
(0.969402 0 0.63164)
(1.32992 2.56709e-25 0.539976)
(1.52725 -2.23136e-09 0.314488)
(1.50178 2.05054e-09 -0.0353247)
(1.50056 1.56832e-12 -0.0338694)
(1.50664 2.45223e-09 -0.0116751)
(1.50538 1.76207e-10 -0.0109578)
(1.37934 -9.02494e-09 -0.336161)
(1.38022 3.77054e-09 -0.3354)
(1.42347 -9.40909e-09 -0.260236)
(1.42406 4.3767e-09 -0.261791)
(1.2058 -3.83397e-09 -0.689982)
(1.33714 3.73569e-09 -0.693065)
(1.20528 -6.70425e-09 -0.665436)
(1.33507 4.16837e-09 -0.673388)
(1.21423 9.53334e-11 -0.69308)
(1.33897 -3.36649e-09 -0.693516)
(1.21989 7.90778e-10 -0.669144)
(1.33829 -3.74682e-09 -0.674147)
(1.21472 -3.70388e-09 -0.550639)
(1.34439 4.06238e-09 -0.561318)
(1.21575 -4.65804e-09 -0.597357)
(1.35026 4.63846e-09 -0.605918)
(1.22748 -1.80452e-10 -0.553334)
(1.34685 -3.59187e-09 -0.561683)
(1.2296 1.21352e-10 -0.600389)
(1.35308 -3.83231e-09 -0.606543)
(1.24108 3.99017e-10 -0.907982)
(1.2301 -1.40673e-10 -0.917403)
(1.34028 -1.65885e-10 -0.925633)
(1.31469 2.18454e-09 -0.962849)
(1.24995 1.21644e-10 -0.890866)
(1.3407 -1.58469e-10 -0.888642)
(1.24489 1.21453e-09 -0.903753)
(1.23117 -1.53761e-10 -0.91717)
(1.31579 -5.87316e-10 -0.961272)
(1.34008 -4.36464e-10 -0.925236)
(1.25018 -3.78185e-10 -0.891172)
(1.3405 -5.36934e-10 -0.888498)
(1.20815 -1.59841e-11 -0.80342)
(1.29236 6.63333e-10 -0.80265)
(1.24026 1.86601e-10 -0.84785)
(1.32912 6.55692e-10 -0.84497)
(1.21318 -4.12311e-10 -0.8056)
(1.29335 -4.6532e-10 -0.803476)
(1.24221 -2.26769e-10 -0.848086)
(1.32932 -5.38707e-10 -0.845083)
(1.3317 1.92501e-10 -1.07504)
(1.27989 -1.38016e-09 -1.04819)
(1.33918 1.18229e-09 -1.04765)
(1.27907 3.02469e-10 -1.07706)
(1.3361 1.04945e-09 -1.04231)
(1.32993 -7.22265e-12 -1.07911)
(1.34732 8.56412e-10 -1.08322)
(1.31809 3.39632e-10 -1.03486)
(-0.372915 0 0.517968)
(0.347234 1.1806e-09 -0.564774)
(0.55747 -3.38165e-09 -1.02511)
(0.557426 -2.32964e-10 -1.02587)
(0.685152 -1.72073e-09 -1.06057)
(0.685638 -1.87249e-10 -1.06102)
(0.876628 5.86715e-09 -1.34567)
(0.878135 -5.01138e-09 -1.34627)
(0.991542 4.14178e-09 -1.3207)
(0.992315 -3.44679e-09 -1.32099)
(1.01154 -3.34006e-09 -1.35968)
(1.09002 1.26155e-10 -1.3707)
(1.05209 -2.16793e-09 -1.34005)
(1.12745 1.26922e-09 -1.3469)
(1.01378 2.33925e-10 -1.35944)
(1.09037 -3.95868e-10 -1.37074)
(1.05373 -6.95975e-11 -1.33987)
(1.12782 6.84598e-11 -1.34702)
(1.17894 -3.34954e-09 -1.28501)
(1.24442 -5.83207e-10 -1.17921)
(1.21189 2.06119e-11 -1.28906)
(1.12546 -2.34834e-09 -1.30222)
(1.19451 1.48552e-09 -1.30867)
(1.31952 2.02598e-09 -1.14347)
(1.18257 -1.76505e-09 -1.28365)
(1.2482 -5.26109e-10 -1.18133)
(1.21241 -1.69387e-10 -1.28921)
(1.12872 -2.39493e-10 -1.3029)
(1.19524 5.38486e-11 -1.30915)
(1.31976 -1.62791e-09 -1.14417)
(1.33187 1.05317e-09 -1.0756)
(1.28774 9.76364e-10 -1.0486)
(1.34096 6.08494e-10 -1.04792)
(1.28145 1.0571e-10 -1.07859)
(1.32825 8.37262e-10 -1.13545)
(1.29013 5.88535e-10 -1.14306)
(1.32716 6.57158e-12 -1.13606)
(1.28848 -3.51835e-10 -1.14328)
(1.33555 -3.33964e-10 -1.04284)
(1.32833 5.411e-10 -1.07726)
(1.34666 -2.80786e-10 -1.08257)
(1.3153 6.32019e-10 -1.03485)
(1.31765 9.77225e-10 -0.986894)
(1.2817 -1.14356e-10 -0.952129)
(1.31951 -4.57979e-10 -0.986717)
(1.28773 2.51212e-10 -0.95319)
(-1.05094 -2.15331e-24 1.48191)
(-1.54888 0 1.87226)
(-1.89745 0 2.26681)
(-1.64838 0 2.61454)
(-0.778618 0 1.80157)
(-0.238885 0 1.125)
(-0.119155 0 0.472848)
(-0.177275 0 0.563186)
(-0.254805 0 0.287538)
(-0.849661 0 -0.511825)
(-0.0835806 0 0.126801)
(0.298912 5.15522e-27 0.329695)
(0.732211 -7.06915e-26 0.403203)
(1.16895 -2.04983e-25 0.4337)
(1.41624 -1.29676e-09 0.18758)
(1.51035 2.61283e-09 0.00732883)