/*--------------------------------*- C++ -*----------------------------------*\
| =========                 |                                                 |
| \\      /  F ield         | OpenFOAM: The Open Source CFD Toolbox           |
|  \\    /   O peration     | Version:  5.x                                   |
|   \\  /    A nd           | Web:      www.OpenFOAM.org                      |
|    \\/     M anipulation  |                                                 |
\*---------------------------------------------------------------------------*/
FoamFile
{
    version     2.0;
    format      ascii;
    class       surfaceVectorField;
    location    "2.8";
    object      Uf;
}
// * * * * * * * * * * * * * * * * * * * * * * * * * * * * * * * * * * * * * //

dimensions      [0 1 -1 0 0 0 0];

internalField   nonuniform List<vector> 
30582
(
(0.00733592 0 0.00252766)
(0.0300468 0 0.00130364)
(-0.00106641 0 0.00407007)
(-0.0110852 0 0.00336107)
(0.00742171 0 0.00215777)
(0.0303482 0 0.00257819)
(-0.00928771 0 0.00537669)
(0.00771712 0 0.00334771)
(-0.00120679 0 0.00267632)
(-0.0112029 0 0.00681258)
(0.00754461 0 0.00731192)
(0.0307432 0 0.00381374)
(-0.0220567 0 0.00609968)
(-0.0235728 0 0.00529264)
(-0.00953478 0 0.00336759)
(0.0075245 0 0.00673884)
(-0.00131992 0 0.0108923)
(-0.0117261 0 0.0103586)
(0.00736793 0 0.00687158)
(0.0313788 0 0.00513263)
(-0.0355746 0 0.00584725)
(-0.0240014 0 0.00570338)
(-0.0226612 0 0.0050487)
(-0.0236759 0 0.0107334)
(-0.0095219 0 0.0140753)
(0.00649124 0 0.0100787)
(-0.00252301 0 0.00957491)
(-0.0123895 0 0.0143151)
(0.00759223 0 0.0127873)
(0.0319879 0 0.00638191)
(-0.0493472 0 0.00514635)
(-0.0452083 0 0.00591529)
(-0.0363717 0 0.00593617)
(-0.0244516 0 0.011488)
(-0.0226508 0 0.0170042)
(-0.0248021 0 0.0161752)
(-0.0117291 0 0.01235)
(0.00526207 0 0.0138274)
(-0.00294246 0 0.0186603)
(-0.0139771 0 0.0185291)
(0.00655991 0 0.0120968)
(0.0331224 0 0.00806009)
(-0.0607342 0 0.00420277)
(-0.0552923 0 0.00497829)
(-0.0499909 0 0.00587019)
(-0.0454672 0 0.0117647)
(-0.0362448 0 0.0171119)
(-0.0262225 0 0.0172235)
(-0.0255664 0 0.0166411)
(-0.0262265 0 0.0219107)
(-0.012216 0 0.0234327)
(0.00248617 0 0.0176036)
(-0.00645482 0 0.0175308)
(-0.0153687 0 0.0237352)
(0.00744098 0 0.0201299)
(0.0316082 0 0.00941988)
(-0.069452 0 0.00327059)
(-0.0656974 0 0.00387974)
(-0.0613327 0 0.00474254)
(-0.0558711 0 0.00993673)
(-0.0502446 0 0.0156639)
(-0.0467806 0 0.0177776)
(-0.0394226 0 0.0181511)
(-0.0283263 0 0.0230697)
(-0.0262031 0 0.0281732)
(-0.0297079 0 0.0277082)
(-0.0181952 0 0.0221982)
(-0.000249036 0 0.0223843)
(-0.0067131 0 0.0286901)
(-0.0228857 0 0.0293971)
(-0.00138366 0 0.0188257)
(-0.000222996 0 0.0142799)
(-0.074933 0 0.00230486)
(-0.072975 0 0.002483)
(-0.0700445 0 0.00314458)
(-0.0663531 0 0.00775679)
(-0.0619817 0 0.0128256)
(-0.0574809 0 0.0150681)
(-0.053015 0 0.0173439)
(-0.0481378 0 0.0236155)
(-0.0396421 0 0.02834)
(-0.0317444 0 0.0287398)
(-0.0324349 0 0.0287087)
(-0.0329474 0 0.0336104)
(-0.0183684 0 0.0336172)
(-0.00651895 0 0.0271303)
(-0.0194311 0 0.0284136)
(-0.0532217 0 0.0366163)
(-0.0570144 0 0.0312066)
(-0.167722 0 0.0168251)
(-0.0766443 0 0.00126949)
(-0.0768528 0 0.000789101)
(-0.0755951 0 0.00099179)
(-0.0738135 0 0.00499754)
(-0.070968 0 0.00953358)
(-0.0678964 0 0.0117561)
(-0.0645132 0 0.0141152)
(-0.0590897 0 0.020095)
(-0.0533666 0 0.0261849)
(-0.0503821 0 0.0295101)
(-0.0450149 0 0.0304454)
(-0.0352759 0 0.0340475)
(-0.0329705 0 0.0382845)
(-0.0390386 0 0.0396628)
(-0.0308878 0 0.0341972)
(-0.0302519 0 0.0317955)
(-0.0587029 0 0.0377387)
(-0.180781 0 0.0372917)
(-0.305216 0 0.0232737)
(-0.202055 0 0.134917)
(-0.0739652 0 0.000122487)
(-0.0766212 0 -0.00125759)
(-0.0774698 0 -0.00173204)
(-0.077953 0 0.00165357)
(-0.0768841 0 0.00561567)
(-0.0755806 0 0.00767769)
(-0.0733945 0 0.00997187)
(-0.069766 0 0.0157086)
(-0.0655065 0 0.0214846)
(-0.0613524 0 0.0254023)
(-0.0577432 0 0.029214)
(-0.0527651 0 0.0349769)
(-0.0454642 0 0.0377937)
(-0.0413829 0 0.0393188)
(-0.0445635 0 0.041894)
(-0.0539281 0 0.0453313)
(-0.0578058 0 0.0412685)
(-0.183803 0 0.0314302)
(-0.29446 0 0.0307671)
(-0.0782364 0 0.0329893)
(0.0197793 0 0.136891)
(-0.0373572 0 0.127077)
(-0.0664164 0 -0.00113094)
(-0.0716772 0 -0.00360703)
(-0.0749507 0 -0.00498356)
(-0.078023 0 -0.00244009)
(-0.0791459 0 0.000872489)
(-0.0801329 0 0.0026965)
(-0.0795424 0 0.00482023)
(-0.0779783 0 0.0104628)
(-0.0753001 0 0.0159439)
(-0.0722925 0 0.0200671)
(-0.0693766 0 0.0244571)
(-0.0639753 0 0.0304883)
(-0.0586969 0 0.0354077)
(-0.0577441 0 0.0406604)
(-0.0560436 0 0.043447)
(-0.0531519 0 0.0441623)
(-0.0594145 0 0.0459824)
(-0.173249 0 0.0459981)
(-0.309045 0 0.0360216)
(-0.18857 0 0.0373693)
(0.0308895 0 0.0440478)
(0.148043 0 0.0285451)
(0.100715 0 0.0246762)
(-0.0102868 0 0.0874987)
(-0.0538702 0 -0.00242942)
(-0.0616517 0 -0.00610212)
(-0.0675086 0 -0.00856435)
(-0.0732854 0 -0.00716306)
(-0.0769775 0 -0.00473671)
(-0.0806699 0 -0.00345798)
(-0.0823129 0 -0.0015781)
(-0.0831132 0 0.003974)
(-0.0822789 0 0.00930492)
(-0.080969 0 0.0136244)
(-0.0789971 0 0.0181979)
(-0.0755447 0 0.0243486)
(-0.0714856 0 0.0295645)
(-0.0685496 0 0.0360794)
(-0.0677758 0 0.042322)
(-0.0621301 0 0.0456992)
(-0.0614349 0 0.0456632)
(-0.155128 0 0.0450148)
(-0.26319 0 0.0442305)
(-0.304793 0 0.0269912)
(-0.182476 0 0.0346786)
(0.0110078 0 0.124251)
(0.117464 0 0.101133)
(0.0353601 0 0.0218452)
(-0.067159 0 0.0825219)
(-0.0181782 0 0.11389)
(-0.036529 0 -0.00365334)
(-0.046621 0 -0.00858584)
(-0.0549392 0 -0.0122396)
(-0.0633374 0 -0.0122155)
(-0.0697233 0 -0.0109495)
(-0.0762852 0 -0.0106294)
(-0.0805828 0 -0.00929566)
(-0.0842743 0 -0.00427011)
(-0.0856628 0 0.000985902)
(-0.0868417 0 0.00553434)
(-0.0862605 0 0.0102443)
(-0.085155 0 0.0169149)
(-0.0828498 0 0.0222918)
(-0.0795538 0 0.0294061)
(-0.0780608 0 0.0364311)
(-0.0684711 0 0.0405758)
(-0.0635008 0 0.0446196)
(-0.139354 0 0.0465865)
(-0.236683 0 0.0458147)
(-0.407878 0 0.0338314)
(-0.443203 0 0.0211085)
(-0.166154 0 0.135059)
(0.0371844 0 0.205313)
(0.0306079 0 0.156941)
(-0.0595091 0 0.0827622)
(-0.0057499 0 0.018785)
(0.0486561 0 0.0486263)
(-0.00738288 0 0.09477)
(-0.0153026 0 -0.00460903)
(-0.0270127 0 -0.0106985)
(-0.037492 0 -0.0156554)
(-0.0481462 0 -0.0172241)
(-0.0571055 0 -0.0173528)
(-0.0664798 0 -0.0183524)
(-0.0736674 0 -0.0179485)
(-0.0803773 0 -0.0139337)
(-0.0846905 0 -0.00918425)
(-0.0889378 0 -0.00472656)
(-0.0906594 0 2.02415e-05)
(-0.0922375 0 0.00756272)
(-0.0918384 0 0.0135457)
(-0.0895106 0 0.0209869)
(-0.0875024 0 0.0280797)
(-0.0747543 0 0.033608)
(-0.0666731 0 0.0397038)
(-0.129236 0 0.0419627)
(-0.207259 0 0.0455754)
(-0.4023 0 0.0339488)
(-0.587737 0 0.0215122)
(-0.322173 0 0.0948116)
(-0.0411806 0 0.191947)
(-0.00269238 0 0.167541)
(-0.00957068 0 0.135016)
(0.00089848 0 0.136606)
(0.0498175 0 0.0798928)
(0.00626813 0 0.0183205)
(-0.0460562 0 0.065684)
(0.00814235 0 -0.00518918)
(-0.00438923 0 -0.0120277)
(-0.0160758 0 -0.018203)
(-0.0282736 0 -0.0214927)
(-0.0393635 0 -0.023218)
(-0.0510422 0 -0.0260084)
(-0.0610181 0 -0.0268956)
(-0.070797 0 -0.0245047)
(-0.0781544 0 -0.0208022)
(-0.0858488 0 -0.0170568)
(-0.0906799 0 -0.0125262)
(-0.0955856 0 -0.00471695)
(-0.0976282 0 0.00245845)
(-0.0972444 0 0.0102324)
(-0.0955913 0 0.0172916)
(-0.0805566 0 0.0246513)
(-0.0692474 0 0.0322737)
(-0.118196 0 0.0347536)
(-0.183288 0 0.0402493)
(-0.362242 0 0.0314826)
(-0.567065 0 0.0178119)
(-0.339618 0 0.0250705)
(-0.0840728 0 0.0957481)
(-0.0191579 0 0.112909)
(0.023359 0 0.10529)
(0.0178251 0 0.153892)
(0.0278795 0 0.153962)
(-0.00239835 0 0.145539)
(-0.0487337 0 0.0769955)
(0.0324878 0 -0.00540591)
(0.0199198 0 -0.0127137)
(0.00775546 0 -0.0196685)
(-0.00519856 0 -0.0242535)
(-0.017413 0 -0.0276742)
(-0.0305487 0 -0.0325562)
(-0.0427377 0 -0.0352618)
(-0.0551059 0 -0.0350592)
(-0.0655335 0 -0.0330205)
(-0.076718 0 -0.0306431)
(-0.0850808 0 -0.0267375)
(-0.0934568 0 -0.0197323)
(-0.0989359 0 -0.0120675)
(-0.101711 0 -0.0041031)
(-0.101337 0 0.00321198)
(-0.0848795 0 0.012882)
(-0.0705269 0 0.0218511)
(-0.1099 0 0.025231)
(-0.16129 0 0.0315033)
(-0.313963 0 0.0249638)
(-0.499759 0 0.015462)
(-0.31203 0 0.00205752)
(-0.0964979 0 0.0121389)
(-0.0183674 0 0.0304071)
(0.0488955 0 0.0496698)
(0.0408509 0 0.102134)
(0.0390281 0 0.139524)
(0.0125238 0 0.149271)
(-0.0181529 0 0.137532)
(0.0563392 0 -0.00526688)
(0.0444335 0 -0.0126791)
(0.0324988 0 -0.0201118)
(0.0197039 0 -0.0256351)
(0.00711347 0 -0.0302984)
(-0.00658902 0 -0.036836)
(-0.0198013 0 -0.04181)
(-0.0337925 0 -0.0441166)
(-0.0467697 0 -0.0443141)
(-0.0606115 0 -0.0443493)
(-0.0725122 0 -0.0416815)
(-0.0848199 0 -0.0367561)
(-0.093836 0 -0.0299995)
(-0.100458 0 -0.0221692)
(-0.103833 0 -0.0149072)
(-0.0877194 0 -0.00293188)
(-0.0707691 0 0.00747577)
(-0.102997 0 0.0129937)
(-0.14346 0 0.0198704)
(-0.274075 0 0.0171535)
(-0.4335 0 0.011388)
(-0.28429 0 -0.00452376)
(-0.101512 0 -0.0156765)
(-0.0260816 0 0.00424945)
(0.0465944 0 0.0174484)
(0.0389171 0 0.0313954)
(0.0327887 0 0.0800608)
(0.0253275 0 0.104767)
(0.00054301 0 0.120296)
(0.0784996 0 -0.00488887)
(0.0675565 0 -0.0119915)
(0.0566696 0 -0.0195201)
(0.0447303 0 -0.025528)
(0.0325647 0 -0.0310786)
(0.0192803 0 -0.0389263)
(0.00592029 0 -0.0457669)
(-0.00859403 0 -0.0500317)
(-0.0227801 0 -0.0527664)
(-0.0380302 0 -0.0562077)
(-0.0526079 0 -0.0559245)
(-0.0682252 0 -0.0542042)
(-0.0812889 0 -0.0497164)
(-0.0914988 0 -0.0428587)
(-0.0986593 0 -0.0361237)
(-0.0865426 0 -0.0246411)
(-0.0707656 0 -0.0118152)
(-0.098342 0 -0.00293353)
(-0.130072 0 0.0045855)
(-0.239828 0 0.00682029)
(-0.374648 0 0.00509049)
(-0.247181 0 -0.00950755)
(-0.100789 0 -0.0232436)
(-0.0395671 0 -0.00484548)
(0.0376081 0 0.0105009)
(0.0190159 0 0.00817815)
(0.00860107 0 0.0259016)
(0.0197644 0 0.0417838)
(0.0130223 0 0.0692395)
(0.0982876 0 -0.00438218)
(0.0885781 0 -0.0108998)
(0.0790885 0 -0.0180928)
(0.0683363 0 -0.0241229)
(0.0574275 0 -0.0301159)
(0.0452319 0 -0.0387449)
(0.0325712 0 -0.0469681)
(0.0187042 0 -0.0528441)
(0.00451983 0 -0.0574772)
(-0.0110194 0 -0.064037)
(-0.0266238 0 -0.067292)
(-0.0439662 0 -0.0693043)
(-0.0604974 0 -0.0681455)
(-0.0735037 0 -0.0644983)
(-0.0844503 0 -0.0586683)
(-0.0787309 0 -0.0497694)
(-0.0669731 0 -0.0364789)
(-0.0918825 0 -0.0264533)
(-0.119047 0 -0.0153396)
(-0.217625 0 -0.00810857)
(-0.328377 0 -0.00572233)
(-0.216548 0 -0.0145153)
(-0.0923574 0 -0.0270409)
(-0.0312027 0 -0.0133271)
(0.0305797 0 4.56063e-05)
(0.011517 0 -0.00171757)
(-0.00613238 0 0.000221562)
(0.00828669 0 0.0146193)
(0.018236 0 0.0267361)
(0.115473 0 -0.00378746)
(0.107037 0 -0.00963602)
(0.099006 0 -0.0162121)
(0.0896262 0 -0.0218709)
(0.0803663 0 -0.0278264)
(0.0695704 0 -0.0365357)
(0.0584263 0 -0.0455143)
(0.0460455 0 -0.0524893)
(0.0327995 0 -0.0585952)
(0.0181318 0 -0.0676121)
(0.00291355 0 -0.0743407)
(-0.014819 0 -0.0791902)
(-0.0327127 0 -0.081885)
(-0.0475961 0 -0.0833084)
(-0.0616395 0 -0.0802212)
(-0.0619224 0 -0.0757921)
(-0.0568671 0 -0.0647547)
(-0.079886 0 -0.0546847)
(-0.104929 0 -0.0403903)
(-0.193717 0 -0.0331994)
(-0.290556 0 -0.0260346)
(-0.211981 0 -0.025862)
(-0.100819 0 -0.0309188)
(-0.02507 0 -0.0106138)
(0.0366591 0 -0.00185613)
(0.0114774 0 -0.0160813)
(-0.0081636 0 -0.0135558)
(0.0062689 0 -0.000813614)
(0.0215284 0 0.0080997)
(0.130162 0 -0.00317855)
(0.122893 0 -0.00838373)
(0.116231 0 -0.0142589)
(0.10814 0 -0.0192938)
(0.100484 0 -0.0248036)
(0.0913035 0 -0.0329522)
(0.0820637 0 -0.0419236)
(0.0715358 0 -0.0493266)
(0.0602408 0 -0.0564141)
(0.0472819 0 -0.0670766)
(0.0332228 0 -0.0765674)
(0.0167792 0 -0.0834403)
(-0.000708335 0 -0.0891393)
(-0.0170185 0 -0.0956091)
(-0.0327085 0 -0.0969983)
(-0.0375194 0 -0.09789)
(-0.0386928 0 -0.0915996)
(-0.0584866 0 -0.0847903)
(-0.0823163 0 -0.0690395)
(-0.155766 0 -0.0656829)
(-0.244963 0 -0.0577487)
(-0.228665 0 -0.0549847)
(-0.145556 0 -0.0506512)
(-0.0331436 0 -0.00486135)
(0.0443911 0 0.011409)
(0.0125664 0 -0.0141791)
(-0.0126724 0 -0.022818)
(0.00437406 0 -0.0140387)
(0.0183359 0 -0.00587715)
(0.142522 0 -0.00259861)
(0.136452 0 -0.00718115)
(0.130903 0 -0.0123889)
(0.123965 0 -0.0167581)
(0.117695 0 -0.0215725)
(0.109961 0 -0.0289438)
(0.102581 0 -0.0372424)
(0.0938903 0 -0.0442539)
(0.085014 0 -0.0516093)
(0.0741668 0 -0.0627319)
(0.062335 0 -0.0738502)
(0.0485125 0 -0.0825525)
(0.0326181 0 -0.0901885)
(0.017271 0 -0.100844)
(0.00116435 0 -0.107288)
(-0.00548842 0 -0.112986)
(-0.0110012 0 -0.112379)
(-0.0294355 0 -0.111847)
(-0.0501189 0 -0.0977905)
(-0.11262 0 -0.100732)
(-0.187501 0 -0.0958853)
(-0.209783 0 -0.0936304)
(-0.198246 0 -0.0930821)
(-0.0590684 0 -0.0298078)
(0.0555046 0 0.0104506)
(0.0258833 0 -0.0100782)
(-0.00503127 0 -0.0307326)
(0.00243701 0 -0.0177024)
(0.019261 0 -0.0147791)
(0.152797 0 -0.00207335)
(0.147884 0 -0.00607712)
(0.143212 0 -0.0106513)
(0.137464 0 -0.0143325)
(0.132296 0 -0.0184251)
(0.125764 0 -0.0250925)
(0.119932 0 -0.0324896)
(0.112628 0 -0.0386724)
(0.105842 0 -0.0454301)
(0.0972313 0 -0.0557264)
(0.0881631 0 -0.067008)
(0.0774124 0 -0.0767081)
(0.0647687 0 -0.0859243)
(0.0517711 0 -0.0996435)
(0.0369734 0 -0.11118)
(0.0316435 0 -0.119544)
(0.0251087 0 -0.123166)
(0.00910313 0 -0.131511)
(-0.0097865 0 -0.122207)
(-0.0642797 0 -0.132176)
(-0.128298 0 -0.132931)
(-0.159528 0 -0.130044)
(-0.185303 0 -0.135991)
(-0.0637447 0 -0.0999257)
(0.0709995 0 -0.0427339)
(0.0539443 0 -0.0372117)
(0.0238871 0 -0.0517355)
(0.0085953 0 -0.0236529)
(0.0161217 0 -0.0172444)
(0.161269 0 -0.00161344)
(0.15727 0 -0.00510003)
(0.153415 0 -0.00909716)
(0.148807 0 -0.0121113)
(0.144505 0 -0.0154779)
(0.139176 0 -0.0214253)
(0.1345 0 -0.0280063)
(0.128323 0 -0.0334076)
(0.123033 0 -0.0391925)
(0.116089 0 -0.0483115)
(0.109523 0 -0.0584058)
(0.101225 0 -0.0674919)
(0.092401 0 -0.0775279)
(0.0827193 0 -0.0916607)
(0.0710327 0 -0.10685)
(0.0674573 0 -0.117749)
(0.0628668 0 -0.122653)
(0.0553799 0 -0.139262)
(0.0393775 0 -0.138028)
(-0.0095012 0 -0.156734)
(-0.0645624 0 -0.164791)
(-0.0962013 0 -0.164299)
(-0.129287 0 -0.170756)
(-0.0403839 0 -0.157778)
(0.0786128 0 -0.124746)
(0.0718337 0 -0.103629)
(0.0557079 0 -0.0915757)
(0.0218703 0 -0.0524165)
(0.00684895 0 -0.0328059)
(0.168231 0 -0.00122582)
(0.165069 0 -0.00426658)
(0.161799 0 -0.00775337)
(0.158086 0 -0.0101475)
(0.154554 0 -0.0128355)
(0.150371 0 -0.018055)
(0.146574 0 -0.0238594)
(0.141585 0 -0.02844)
(0.137392 0 -0.0333677)
(0.131687 0 -0.0416028)
(0.126899 0 -0.0503034)
(0.120344 0 -0.0580544)
(0.114284 0 -0.0675984)
(0.108101 0 -0.0795456)
(0.100596 0 -0.0941907)
(0.0987881 0 -0.107658)
(0.0968274 0 -0.114306)
(0.105261 0 -0.135802)
(0.0993104 0 -0.143285)
(0.0593833 0 -0.170561)
(0.0109102 0 -0.187942)
(-0.0324165 0 -0.195452)
(-0.06354 0 -0.203387)
(-0.0126237 0 -0.197437)
(0.0760946 0 -0.187055)
(0.0690854 0 -0.156531)
(0.0619693 0 -0.133195)
(0.0285817 0 -0.106674)
(-0.00439899 0 -0.0764482)
(0.173955 0 -0.000903255)
(0.171511 0 -0.00357029)
(0.168675 0 -0.00662146)
(0.165773 0 -0.00847996)
(0.16278 0 -0.0105615)
(0.159458 0 -0.0150996)
(0.15637 0 -0.0201602)
(0.152554 0 -0.0238487)
(0.149219 0 -0.0279012)
(0.144791 0 -0.0353109)
(0.141239 0 -0.043003)
(0.136032 0 -0.0497876)
(0.131806 0 -0.0582173)
(0.127543 0 -0.0678789)
(0.123877 0 -0.0785833)
(0.127166 0 -0.0923695)
(0.128224 0 -0.102987)
(0.15503 0 -0.124648)
(0.166725 0 -0.138885)
(0.135276 0 -0.171639)
(0.0984854 0 -0.196608)
(0.0317375 0 -0.216294)
(-0.0104715 0 -0.226973)
(0.0125963 0 -0.222677)
(0.0652245 0 -0.222337)
(0.0590406 0 -0.191958)
(0.0529384 0 -0.164949)
(0.0275426 0 -0.15206)
(-0.00601819 0 -0.130944)
(0.178694 0 -0.000617025)
(0.176822 0 -0.00300909)
(0.174321 0 -0.00570454)
(0.172094 0 -0.00709237)
(0.169474 0 -0.0086689)
(0.166935 0 -0.0125817)
(0.164316 0 -0.0169745)
(0.161366 0 -0.0198835)
(0.158681 0 -0.0230096)
(0.155447 0 -0.0294451)
(0.152833 0 -0.0362551)
(0.148832 0 -0.0420469)
(0.145992 0 -0.0495382)
(0.142947 0 -0.0578849)
(0.141148 0 -0.0650326)
(0.15118 0 -0.0775623)
(0.157568 0 -0.0928351)
(0.202157 0 -0.108533)
(0.234094 0 -0.125582)
(0.212915 0 -0.161102)
(0.188115 0 -0.188951)
(0.0768041 0 -0.219285)
(0.0126311 0 -0.235947)
(0.0277695 0 -0.228358)
(0.0527467 0 -0.23298)
(0.0476246 0 -0.216276)
(0.0426678 0 -0.191238)
(0.0264518 0 -0.186782)
(0.00135837 0 -0.172594)
(0.182648 0 -0.000341053)
(0.181226 0 -0.00255601)
(0.179012 0 -0.00499251)
(0.177289 0 -0.00598817)
(0.174937 0 -0.00713327)
(0.173049 0 -0.0105002)
(0.17071 0 -0.0143305)
(0.168543 0 -0.0164999)
(0.166265 0 -0.0188423)
(0.163823 0 -0.0244493)
(0.161779 0 -0.0303588)
(0.158825 0 -0.0347364)
(0.156872 0 -0.0411326)
(0.15467 0 -0.0483677)
(0.154147 0 -0.0535907)
(0.165512 0 -0.0653043)
(0.17816 0 -0.083235)
(0.231089 0 -0.0891082)
(0.280949 0 -0.104449)
(0.27499 0 -0.134343)
(0.260092 0 -0.165157)
(0.0961355 0 -0.20005)
(-0.0104041 0 -0.225107)
(0.0179064 0 -0.20704)
(0.0336776 0 -0.210994)
(0.0319525 0 -0.2184)
(0.0287555 0 -0.206793)
(0.0215317 0 -0.209139)
(0.00592572 0 -0.199629)
(0.185913 0 -5.92696e-05)
(0.184878 0 -0.0021481)
(0.182958 0 -0.00441914)
(0.181615 0 -0.00510632)
(0.179473 0 -0.00589915)
(0.178064 0 -0.00886838)
(0.175933 0 -0.0122509)
(0.174334 0 -0.0137584)
(0.172224 0 -0.0153944)
(0.170568 0 -0.020151)
(0.168766 0 -0.0253829)
(0.166376 0 -0.0286555)
(0.164601 0 -0.0331322)
(0.163088 0 -0.0393081)
(0.163023 0 -0.043394)
(0.172948 0 -0.0535245)
(0.186857 0 -0.0722358)
(0.249575 0 -0.0702682)
(0.306591 0 -0.0797647)
(0.29021 0 -0.103486)
(0.287705 0 -0.131002)
(0.113931 0 -0.149553)
(-0.0485845 0 -0.181739)
(-0.00862753 0 -0.17939)
(0.0200669 0 -0.17472)
(0.0175056 0 -0.199805)
(0.0160642 0 -0.207897)
(0.01352 0 -0.211773)
(0.00726591 0 -0.210103)
(0.188478 0 0.000222402)
(0.187873 0 -0.00171776)
(0.186277 0 -0.003875)
(0.185266 0 -0.00433178)
(0.183359 0 -0.00484633)
(0.182286 0 -0.00761816)
(0.180314 0 -0.0106723)
(0.179059 0 -0.0116503)
(0.177035 0 -0.0127089)
(0.175888 0 -0.0167597)
(0.174111 0 -0.021275)
(0.172339 0 -0.0234261)
(0.170583 0 -0.0262782)
(0.168394 0 -0.0322566)
(0.168228 0 -0.035778)
(0.174542 0 -0.0423866)
(0.186149 0 -0.0601488)
(0.252555 0 -0.0531133)
(0.317396 0 -0.0558088)
(0.28969 0 -0.0764353)
(0.274534 0 -0.0966118)
(0.12001 0 -0.0961006)
(-0.0548761 0 -0.116205)
(-0.021343 0 -0.146087)
(0.0163646 0 -0.15342)
(0.0109988 0 -0.177386)
(0.00775865 0 -0.195733)
(0.00683995 0 -0.195389)
(0.00437307 0 -0.199362)
(0.190367 0 0.000587472)
(0.190096 0 -0.00128831)
(0.18898 0 -0.00330888)
(0.188296 0 -0.00352839)
(0.186692 0 -0.00381656)
(0.185945 0 -0.00652525)
(0.184176 0 -0.009415)
(0.183093 0 -0.0101145)
(0.181078 0 -0.0107718)
(0.180252 0 -0.0142175)
(0.17841 0 -0.0180133)
(0.177067 0 -0.0194417)
(0.17488 0 -0.0210906)
(0.171255 0 -0.0260593)
(0.169475 0 -0.0300653)
(0.172383 0 -0.0330069)
(0.179533 0 -0.0470846)
(0.244096 0 -0.0384733)
(0.309397 0 -0.0356837)
(0.276444 0 -0.0484662)
(0.247633 0 -0.0637415)
(0.114494 0 -0.0610809)
(-0.0419354 0 -0.064703)
(-0.0203416 0 -0.103356)
(0.0117211 0 -0.131576)
(0.00282443 0 -0.14353)
(-0.00337916 0 -0.162207)
(-0.0066941 0 -0.171359)
(-0.00835002 0 -0.175905)
(0.19134 0 0.00117763)
(0.191789 0 -0.000674712)
(0.190949 0 -0.00262867)
(0.190651 0 -0.0026304)
(0.189411 0 -0.00266569)
(0.189082 0 -0.00534899)
(0.187659 0 -0.00822201)
(0.186732 0 -0.00881655)
(0.184775 0 -0.00929872)
(0.184087 0 -0.0125043)
(0.182173 0 -0.0156334)
(0.181181 0 -0.0166067)
(0.178927 0 -0.0176584)
(0.174059 0 -0.0219663)
(0.169459 0 -0.0255316)
(0.168177 0 -0.0260498)
(0.17104 0 -0.0358346)
(0.227311 0 -0.0278944)
(0.289368 0 -0.0227728)
(0.266583 0 -0.0266274)
(0.228578 0 -0.0344336)
(0.109471 0 -0.0373959)
(-0.0263739 0 -0.0368429)
(-0.0193491 0 -0.0699631)
(0.0014886 0 -0.0991324)
(-0.00327035 0 -0.0976191)
(-0.0126992 0 -0.112512)
(-0.0192545 0 -0.138396)
(-0.0229168 0 -0.150721)
(0.191277 0 0.00153514)
(0.192065 0 4.40775e-05)
(0.192027 0 -0.00185403)
(0.192245 0 -0.00142328)
(0.191414 0 -0.00124239)
(0.191637 0 -0.00399602)
(0.190745 0 -0.00690325)
(0.189986 0 -0.00741614)
(0.188283 0 -0.00775714)
(0.187845 0 -0.0111245)
(0.18602 0 -0.014123)
(0.184784 0 -0.0149913)
(0.182272 0 -0.0157402)
(0.177251 0 -0.0187308)
(0.171271 0 -0.0219879)
(0.165794 0 -0.0230967)
(0.162745 0 -0.0297771)
(0.210751 0 -0.020966)
(0.265877 0 -0.0158133)
(0.254895 0 -0.0137524)
(0.226379 0 -0.014011)
(0.112018 0 -0.0253268)
(-0.0105097 0 -0.0259967)
(-0.0126355 0 -0.0466126)
(-0.00659741 0 -0.0705307)
(-0.00675831 0 -0.0653478)
(-0.0120335 0 -0.0710141)
(-0.0162251 0 -0.0979923)
(-0.0232149 0 -0.120508)
(0.19057 0 0.00166337)
(0.191788 0 0.000508654)
(0.192113 0 -0.00102309)
(0.192991 0 -1.64053e-05)
(0.192711 0 0.000511055)
(0.193463 0 -0.00232392)
(0.193187 0 -0.00531639)
(0.192818 0 -0.00566073)
(0.191445 0 -0.00580839)
(0.191298 0 -0.00953383)
(0.190006 0 -0.0130405)
(0.18831 0 -0.0137469)
(0.18553 0 -0.0143556)
(0.180539 0 -0.0170974)
(0.173638 0 -0.0193275)
(0.166778 0 -0.0202336)
(0.159992 0 -0.0267909)
(0.200989 0 -0.0213798)
(0.245378 0 -0.0149161)
(0.251085 0 -0.00840403)
(0.237344 0 -0.00396647)
(0.119349 0 -0.0203534)
(0.00169087 0 -0.0270972)
(-0.00829097 0 -0.0325427)
(-0.0101564 0 -0.0467082)
(-0.00920042 0 -0.0445449)
(-0.00982343 0 -0.0462154)
(-0.00978083 0 -0.0666093)
(-0.0143186 0 -0.086858)
(0.18886 0 0.00206842)
(0.190511 0 0.00125168)
(0.191104 0 3.19308e-05)
(0.19271 0 0.00123418)
(0.193181 0 0.00232589)
(0.194289 0 -0.000348138)
(0.194588 0 -0.00332347)
(0.194935 0 -0.00329634)
(0.194072 0 -0.00325661)
(0.194645 0 -0.00745168)
(0.193907 0 -0.011609)
(0.191971 0 -0.012147)
(0.189175 0 -0.012393)
(0.184168 0 -0.0161449)
(0.177308 0 -0.0184551)
(0.170435 0 -0.0194697)
(0.161407 0 -0.0251454)
(0.195528 0 -0.021132)
(0.235026 0 -0.0177844)
(0.256695 0 -0.0149222)
(0.259155 0 -0.00620059)
(0.131933 0 -0.0217701)
(0.0120927 0 -0.0325328)
(-0.00297311 0 -0.0266155)
(-0.0129326 0 -0.0290057)
(-0.0103521 0 -0.0309007)
(-0.00933178 0 -0.0328707)
(-0.00690228 0 -0.0448306)
(-0.0070343 0 -0.0589602)
(0.185992 0 0.00253556)
(0.188061 0 0.0021372)
(0.189107 0 0.00123667)
(0.191101 0 0.00271376)
(0.192161 0 0.00406774)
(0.193996 0 0.00196779)
(0.194606 0 -0.000833727)
(0.196065 0 -0.000360987)
(0.19599 0 -0.00010659)
(0.197212 0 -0.00462765)
(0.197309 0 -0.00926743)
(0.195467 0 -0.00977071)
(0.19297 0 -0.00969391)
(0.188007 0 -0.0146887)
(0.181754 0 -0.0182642)
(0.176029 0 -0.0190702)
(0.167344 0 -0.0242626)
(0.198809 0 -0.0233074)
(0.230808 0 -0.0212969)
(0.265384 0 -0.0184534)
(0.285262 0 -0.0133298)
(0.145546 0 -0.0312075)
(0.0183179 0 -0.0405512)
(-0.00442269 0 -0.0255849)
(-0.0197282 0 -0.0201996)
(-0.010687 0 -0.0225244)
(-0.00769039 0 -0.0249487)
(-0.00548528 0 -0.0318715)
(-0.00318096 0 -0.0398428)
(0.182353 0 0.00290323)
(0.184629 0 0.00276015)
(0.186318 0 0.00226011)
(0.188689 0 0.0042154)
(0.190077 0 0.00585087)
(0.192433 0 0.00423929)
(0.193724 0 0.00192454)
(0.195907 0 0.00260207)
(0.196911 0 0.00326792)
(0.198543 0 -0.00101107)
(0.199403 0 -0.00579358)
(0.198944 0 -0.00608099)
(0.196711 0 -0.00596295)
(0.191023 0 -0.012321)
(0.185587 0 -0.0174109)
(0.179749 0 -0.0172553)
(0.173524 0 -0.0215928)
(0.210754 0 -0.0231362)
(0.241907 0 -0.0243428)
(0.283147 0 -0.0304815)
(0.318329 0 -0.0251747)
(0.157792 0 -0.0394505)
(0.0167727 0 -0.0503423)
(-0.010488 0 -0.0302435)
(-0.0317738 0 -0.0181982)
(-0.0142326 0 -0.0182033)
(-0.00519122 0 -0.0192611)
(-0.00440702 0 -0.0240289)
(-0.00199727 0 -0.0288984)
(0.178044 0 0.00315422)
(0.181162 0 0.00332691)
(0.182816 0 0.00307544)
(0.18518 0 0.00541642)
(0.187113 0 0.00753223)
(0.189956 0 0.00642408)
(0.191699 0 0.00456937)
(0.194257 0 0.00572202)
(0.195851 0 0.00667942)
(0.198474 0 0.00336424)
(0.199577 0 -0.00112843)
(0.201649 0 -0.00113384)
(0.200932 0 -0.00102101)
(0.194316 0 -0.00901035)
(0.188148 0 -0.0158268)
(0.17877 0 -0.0140672)
(0.173201 0 -0.0165648)
(0.222732 0 -0.0170391)
(0.263088 0 -0.0209275)
(0.301015 0 -0.0370734)
(0.346585 0 -0.0398904)
(0.172215 0 -0.0487447)
(0.0136051 0 -0.0563044)
(-0.0195333 0 -0.0374392)
(-0.0467635 0 -0.0212325)
(-0.0179727 0 -0.0208926)
(0.000376837 0 -0.0191095)
(-0.000925173 0 -0.0216154)
(8.88164e-06 0 -0.024773)
(0.17577 0 0.00356815)
(0.173504 0 0.00334044)
(0.178644 0 0.00362765)
(0.181676 0 0.0065479)
(0.183401 0 0.00905341)
(0.186346 0 0.00823192)
(0.188716 0 0.00685193)
(0.191529 0 0.00864634)
(0.193414 0 0.0100649)
(0.19684 0 0.00750545)
(0.198847 0 0.00387411)
(0.202252 0 0.0038891)
(0.203799 0 0.00423114)
(0.198355 0 -0.00315978)
(0.191934 0 -0.0116335)
(0.171458 0 -0.0116377)
(0.161786 0 -0.0111462)
(0.218611 0 -0.00628538)
(0.272043 0 -0.00867031)
(0.31319 0 -0.0230364)
(0.3586 0 -0.0361023)
(0.167991 0 -0.0449795)
(-0.00271588 0 -0.0501505)
(-0.0276689 0 -0.0381953)
(-0.059435 0 -0.0211579)
(-0.0239704 0 -0.029393)
(0.00502715 0 -0.0264079)
(0.00545252 0 -0.0237935)
(0.00436119 0 -0.0257659)
(0.176277 0 0.00721133)
(0.174008 0 0.00389169)
(0.170654 0 0.00390772)
(0.162177 0 0.00361419)
(0.179083 0 0.0102931)
(0.182654 0 0.00988185)
(0.184931 0 0.00876653)
(0.187647 0 0.0111029)
(0.18993 0 0.0131565)
(0.193961 0 0.0112423)
(0.19664 0 0.00834628)
(0.20049 0 0.00912127)
(0.203082 0 0.00943551)
(0.198455 0 0.00440536)
(0.192185 0 -0.00346963)
(0.162938 0 -0.00333741)
(0.141765 0 -0.00319183)
(0.199053 0 0.00225734)
(0.256652 0 0.00611519)
(0.298041 0 0.00420736)
(0.348339 0 -0.00827104)
(0.156558 0 -0.0161638)
(-0.0299418 0 -0.0268434)
(-0.0505221 0 -0.0270653)
(-0.0754151 0 -0.0117782)
(-0.0330175 0 -0.0278662)
(0.00344545 0 -0.0336559)
(0.00927227 0 -0.0283887)
(0.00984244 0 -0.0274803)
(0.177158 0 0.0109894)
(0.174276 0 0.0111524)
(0.170764 0 0.00798847)
(0.162181 0 0.00381276)
(0.154004 0 0.00361061)
(0.152488 0 0.003236)
(0.180524 0 0.0102752)
(0.183612 0 0.0132847)
(0.185613 0 0.0158782)
(0.18993 0 0.0143776)
(0.193351 0 0.01208)
(0.197222 0 0.0136929)
(0.200162 0 0.0145211)
(0.195951 0 0.0112582)
(0.189965 0 0.00543256)
(0.159332 0 0.00600221)
(0.128041 0 0.00711816)
(0.173202 0 0.00635795)
(0.224375 0 0.0115928)
(0.262564 0 0.0246574)
(0.308113 0 0.0250538)
(0.140165 0 0.0316303)
(-0.0456171 0 0.017669)
(-0.07081 0 -0.00566529)
(-0.0937596 0 -0.000239598)
(-0.0422275 0 -0.0149949)
(0.000312726 0 -0.0321071)
(0.00299184 0 -0.0258414)
(0.00892591 0 -0.0230356)
(0.177818 0 0.014943)
(0.175494 0 0.0113008)
(0.171186 0 0.0122494)
(0.161926 0 0.0116835)
(0.153504 0 0.00743142)
(0.151927 0 0.0026106)
(0.150432 0 0.00233606)
(0.146684 0 0.00193895)
(0.180712 0 0.0181958)
(0.185661 0 0.0170687)
(0.189209 0 0.0151437)
(0.192834 0 0.0175189)
(0.195983 0 0.0191593)
(0.192325 0 0.0168067)
(0.186882 0 0.0124852)
(0.159044 0 0.0135144)
(0.126536 0 0.0157832)
(0.154938 0 0.00708422)
(0.19464 0 0.0071137)
(0.222014 0 0.0273646)
(0.249601 0 0.043661)
(0.136851 0 0.0652648)
(-0.0267381 0 0.0628518)
(-0.0698317 0 0.0187599)
(-0.0963287 0 0.00235716)
(-0.0425038 0 -0.00394458)
(0.0076486 0 -0.0225361)
(-0.00528512 0 -0.0198217)
(-0.00255979 0 -0.0129237)
(0.17961 0 0.0191899)
(0.175308 0 0.0199599)
(0.171302 0 0.0168676)
(0.162108 0 0.0118239)
(0.152876 0 0.0115131)
(0.150973 0 0.010072)
(0.149572 0 0.00525151)
(0.144683 0 -0.000766584)
(0.14027 0 -0.000967855)
(0.14891 0 -0.000459053)
(0.184413 0 0.0176125)
(0.188195 0 0.0207716)
(0.190978 0 0.0233575)
(0.187644 0 0.0213157)
(0.183132 0 0.0177196)
(0.16001 0 0.0196012)
(0.130867 0 0.0230071)
(0.146986 0 0.0103442)
(0.172653 0 0.00352599)
(0.198605 0 0.0228965)
(0.215758 0 0.0459332)
(0.164269 0 0.051273)
(0.0461685 0 0.0652439)
(-0.0285652 0 0.0146666)
(-0.0718837 0 -0.0220856)
(-0.030844 0 0.00209489)
(0.0221994 0 -0.00730626)
(-0.00852599 0 -0.0136898)
(-0.0214692 0 -0.00596316)
(0.181765 0 0.0237144)
(0.178657 0 0.019479)
(0.172264 0 0.021681)
(0.161357 0 0.0214888)
(0.152101 0 0.0163158)
(0.14922 0 0.00970071)
(0.147705 0 0.00858468)
(0.142691 0 0.00465747)
(0.136849 0 -0.00123133)
(0.145289 0 -0.00690078)
(0.15181 0 -0.00607351)
(0.161847 0 -0.00649234)
(0.185329 0 0.0272957)
(0.18259 0 0.0251331)
(0.178369 0 0.0217091)
(0.159434 0 0.0249286)
(0.135539 0 0.0296755)
(0.144601 0 0.0161203)
(0.159817 0 0.00620572)
(0.190012 0 0.0197393)
(0.210415 0 0.0413672)
(0.186284 0 0.0267383)
(0.130483 0 0.0321897)
(0.0373944 0 -0.00829038)
(-0.0351775 0 -0.05523)
(-0.00953605 0 -0.0108081)
(0.0300156 0 0.00926987)
(-0.00537653 0 -0.00323361)
(-0.0363705 0 -0.00431852)
(0.17542 0 0.028446)
(0.179309 0 0.0306062)
(0.173556 0 0.027241)
(0.162541 0 0.0213251)
(0.151535 0 0.021548)
(0.147316 0 0.0195368)
(0.144926 0 0.0128545)
(0.138611 0 0.00278749)
(0.132357 0 -0.000644807)
(0.141341 0 -0.004697)
(0.148743 0 -0.0102996)
(0.154291 0 -0.0206558)
(0.164836 0 -0.0202324)
(0.201746 0 -0.00824824)
(0.172293 0 0.0248385)
(0.158036 0 0.0298242)
(0.138382 0 0.0362567)
(0.14275 0 0.0227723)
(0.151671 0 0.0128811)
(0.184066 0 0.0221902)
(0.211802 0 0.0377618)
(0.198193 0 0.018724)
(0.171417 0 0.00837855)
(0.0773066 0 -0.00270027)
(-0.0129572 0 -0.0434397)
(-0.0165906 0 -0.0239877)
(0.0104259 0 0.0150948)
(-0.000506182 0 0.00278716)
(-0.0363442 0 -0.00645595)
(0.152964 0 0.0343149)
(0.164826 0 0.0277484)
(0.164443 0 0.033154)
(0.16217 0 0.034364)
(0.151073 0 0.0278528)
(0.145623 0 0.019336)
(0.141933 0 0.0178985)
(0.134783 0 0.0122429)
(0.127246 0 0.00224386)
(0.131966 0 -0.00970009)
(0.141111 0 -0.0130114)
(0.147117 0 -0.0253239)
(0.152776 0 -0.0350964)
(0.183604 0 -0.0326518)
(0.220749 0 -0.0204896)
(0.239156 0 -0.011954)
(0.138563 0 0.0427455)
(0.142458 0 0.0296842)
(0.146733 0 0.0207314)
(0.173733 0 0.0265183)
(0.207095 0 0.0377272)
(0.194115 0 0.0256978)
(0.176749 0 0.00980799)
(0.0886652 0 0.0148211)
(-0.00421606 0 5.46856e-05)
(-0.0270222 0 -0.00898655)
(-0.0289077 0 0.00874987)
(-0.0102188 0 0.00379887)
(-0.0208145 0 -0.00606445)
(0.138865 0 0.0363044)
(0.136032 0 0.0486316)
(0.143587 0 0.0412091)
(0.141478 0 0.0325328)
(0.139315 0 0.034723)
(0.143734 0 0.0331389)
(0.138936 0 0.0242333)
(0.129882 0 0.0118855)
(0.121683 0 0.00714508)
(0.123508 0 -0.0011811)
(0.12875 0 -0.0129542)
(0.131844 0 -0.033939)
(0.138122 0 -0.044204)
(0.165078 0 -0.0477532)
(0.197828 0 -0.0449503)
(0.228264 0 -0.0478846)
(0.231386 0 -0.0394515)
(0.305855 0 -0.00622118)
(0.14328 0 0.0285234)