/*--------------------------------*- C++ -*----------------------------------*\
| =========                 |                                                 |
| \\      /  F ield         | OpenFOAM: The Open Source CFD Toolbox           |
|  \\    /   O peration     | Version:  5.x                                   |
|   \\  /    A nd           | Web:      www.OpenFOAM.org                      |
|    \\/     M anipulation  |                                                 |
\*---------------------------------------------------------------------------*/
FoamFile
{
    version     2.0;
    format      ascii;
    class       volScalarField;
    location    "1.5";
    object      alpha.water;
}
// * * * * * * * * * * * * * * * * * * * * * * * * * * * * * * * * * * * * * //

dimensions      [0 0 0 0 0 0 0];

internalField   nonuniform List<scalar> 
12160
(
1
1
1
1
1
1
1
1
1
1
1
1
1
1
1
1
1
1
1
1
1
1
1
1
1
1
1
1
1
1
1
1
1
1
1
1
1
1
1
1
1
1
1
0.998948
0.609175
1
1
1
1
1
1
1
0.998341
0.643899
0.0260589
1
1
1
1
1
1
0.999998
0.996991
0.643634
0.0246434
0.000949818
1
1
1
1
1
1
0.999994
0.994099
0.654527
0.0300361
2.29841e-05
9.56729e-06
1
1
1
1
1
1
0.999986
0.990672
0.655585
0.0375654
5.60969e-05
5.95234e-07
1.00033e-08
1
1
1
1
1
1
0.999978
0.987094
0.642278
0.0499743
9.0206e-05
7.47594e-08
8.55526e-13
9.7136e-13
1
1
1
1
1
1
0.999973
0.984179
0.620898
0.0568421
0.00020654
6.10366e-08
5.27766e-12
3.95074e-14
1.54607e-17
1
1
1
1
1
1
0.999979
0.982963
0.603218
0.0558025
0.000331751
1.98854e-07
6.36579e-12
1.12702e-16
8.78404e-23
1
1
1
1
1
1
0.999991
0.98466
0.600477
0.0525975
0.000479523
4.24829e-07
3.80434e-11
2.18535e-16
1.59003e-21
1
1
1
1
1
1
0.999998
0.989174
0.615925
0.0542418
0.000597298
8.35776e-07
1.00958e-10
1.34245e-15
3.65053e-21
1
1
1
1
1
1
1
0.994354
0.647969
0.0623444
0.000777983
1.41798e-06
2.64425e-10
3.414e-15
2.91425e-20
1
1
1
1
1
1
1
0.998341
0.686573
0.0782132
0.00109681
2.39412e-06
5.33601e-10
9.73338e-15
8.31657e-20
1
1
1
1
1
1
1
0.999973
0.72204
0.102958
0.00169835
4.20963e-06
1.06665e-09
2.02023e-14
2.77772e-19
1
1
1
1
1
1
1
1
0.749412
0.133406
0.00281559
7.78686e-06
2.10016e-09
4.28892e-14
6.10286e-19
1
1
1
1
1
1
1
1
0.766749
0.159674
0.00464783
1.48039e-05
4.22028e-09
8.69561e-14
1.40056e-18
1
1
1
1
1
1
1
1
0.771825
0.173668
0.00693119
2.75104e-05
8.60842e-09
1.78164e-13
2.96365e-18
1
1
1
1
1
1
1
1
0.767058
0.177382
0.00871994
4.72317e-05
1.73799e-08
3.6897e-13
6.32624e-18
1
1
1
1
1
1
1
1
0.754382
0.173556
0.00930762
7.1663e-05
3.38292e-08
7.83364e-13
1.3504e-17
1
1
1
1
1
1
1
1
0.737282
0.163947
0.00896132
8.35052e-05
6.27411e-08
1.71853e-12
2.90736e-17
1
1
1
1
1
1
1
1
0.719107
0.152058
0.007984
7.91647e-05
8.32845e-08
3.99961e-12
6.38804e-17
1
1
1
1
1
1
1
1
0.702578
0.14045
0.00687444
6.57987e-05
7.89901e-08
6.24093e-12
1.47909e-16
1
1
1
1
1
1
1
1
0.689826
0.130688
0.00589527
5.18372e-05
6.16003e-08
6.0976e-12
2.31712e-16
0.999999
0.999999
0.999999
1
1
1
1
1
0.682311
0.123627
0.00514195
4.06602e-05
4.41491e-08
4.53552e-12
2.32224e-16
0.999999
0.999999
0.999999
0.999999
1
1
1
1
0.680742
0.119685
0.00463227
3.28134e-05
3.12971e-08
2.97819e-12
1.77426e-16
1
1
0.999999
0.999999
0.999999
1
1
1
0.685168
0.118956
0.00436475
2.78575e-05
2.30464e-08
1.92126e-12
1.19599e-16
1
1
1
0.999999
0.999999
0.999999
1
1
0.695203
0.121296
0.00432302
2.54333e-05
1.81893e-08
1.30318e-12
7.91647e-17
1
1
1
1
1
0.999999
1
1
0.709923
0.126662
0.00448623
2.50553e-05
1.59116e-08
9.67498e-13
5.4917e-17
1
1
1
1
1
1
1
1
0.72802
0.134994
0.00486661
2.66379e-05
1.54886e-08
8.17985e-13
4.14465e-17
1
1
1
1
1
1
1
1
0.747901
0.145915
0.00549757
3.04098e-05
1.70559e-08
7.90488e-13
3.53445e-17
1
1
1
1
1
1
1
1
0.767856
0.158845
0.00638507
3.69961e-05
2.09396e-08
8.95061e-13
3.43516e-17
1
1
1
1
1
1
1
1
0.786166
0.172961
0.0075236
4.71417e-05
2.80049e-08
1.1693e-12
3.86933e-17
1
1
1
1
1
1
1
1
0.801102
0.187116
0.00888769
6.14938e-05
4.0078e-08
1.70954e-12
4.98144e-17
1
1
1
1
1
1
1
1
0.811188
0.199777
0.0103994
8.07078e-05
5.92491e-08
2.75344e-12
7.14824e-17
1
1
1
1
1
1
1
1
0.815424
0.209517
0.0119125
0.000104685
8.83148e-08
4.65244e-12
1.12852e-16
1
1
1
1
1
1
1
0.999989
0.813389
0.214467
0.0132351
0.000131697
1.29307e-07
7.96201e-12
1.87538e-16
1
1
1
1
1
1
1
0.999359
0.804138
0.213537
0.0139517
0.000157565
1.80495e-07
1.32687e-11
3.1679e-16
1
1
1
1
1
1
0.999998
0.997651
0.788792
0.205715
0.0137832
0.000172237
2.31508e-07
2.0573e-11
5.2152e-16
0.999992
1
1
1
1
1
1
0.994905
0.768094
0.188276
0.0123925
0.000164879
2.58287e-07
2.79654e-11
7.96241e-16
0.991348
0.999949
1
1
1
1
1
1
0.742697
0.162347
0.00982869
0.000131438
2.30589e-07
3.07619e-11
1.05887e-15
0.71351
0.982559
0.999712
0.999999
1
1
1
1
1
0.133968
0.00711581
9.28477e-05
1.60979e-07
2.45142e-11
1.12876e-15
0.107294
0.650364
0.961176
0.999109
0.999997
1
1
1
0.999999
1
0.00503166
6.09552e-05
1.04782e-07
1.43797e-11
8.71839e-16
0.00351414
0.0718823
0.530491
0.932389
0.998062
0.999991
1
1
0.999999
0.999999
1
3.86207e-05
6.47541e-08
8.34789e-12
4.94763e-16
2.44391e-05
0.00190693
0.0354884
0.420399
0.901571
0.996579
0.999974
1
0.999999
0.999997
1
1
3.80488e-08
4.73714e-12
2.76124e-16
2.12462e-08
1.17484e-05
0.000697194
0.0186153
0.338172
0.873461
0.994403
0.999954
0.999999
0.999998
0.999999
1
0.999993
0.999996
2.6345e-12
1.52672e-16
1.40456e-12
7.40848e-09
3.77333e-06
0.000291335
0.0114787
0.283278
0.84751
0.992793
0.999941
0.999999
0.999997
0.999999
0.999995
0.999993
0.999994
0.999987
8.39347e-17
4.61998e-17
3.42839e-13
2.37772e-09
1.28649e-06
0.000158244
0.00832818
0.247274
0.832235
0.992045
0.999991
0.999998
0.999997
0.999997
0.999993
0.999998
0.999998
0.999998
0.999986
1.06519e-17
1.04825e-13
7.38435e-10
5.54175e-07
0.000106868
0.00681843
0.230362
0.821927
0.996803
0.999998
0.999998
0.999998
0.999996
0.999996
1
1
1
0.999999
0.999999
3.38178e-18
3.04543e-14
2.59694e-10
2.87352e-07
8.19847e-05
0.00612879
0.215323
0.852288
0.999994
0.999999
0.999999
0.999998
0.999998
1
0.999993
1
1
1
1
1
9.24613e-19
9.97411e-15
1.02608e-10
1.63556e-07
6.19551e-05
0.00513092
0.217908
0.925049
0.999999
0.999999
0.999996
0.999997
1
0.999999
0.999777
0.999976
1
1
1
1
1
2.77225e-19
3.62913e-15
4.19334e-11
9.01191e-08
4.19203e-05
0.00375816
0.233854
0.987942
0.999999
0.999998
0.999996
0.999999
1
0.999986
0.999013
0.999106
0.999018
0.999562
0.99955
0.99996
1
1
1
1
1
8.83041e-20
1.33855e-15
1.64896e-11
4.43103e-08
1.93705e-05
0.00237647
0.289909
0.964857
0.999999
0.999998
0.999996
1
1
0.999942
0.997797
0.998234
0.998566
0.997793
0.997048
0.997036
0.998213
0.999322
0.999322
0.99996
1
1
1
1
1
2.71841e-20
4.81964e-16
5.83307e-12
1.584e-08
7.60237e-06
0.0012914
0.282514
0.96598
0.999998
0.999996
0.999997
1
0.999999
0.999648
0.999551
0.999981
0.99995
0.996928
0.996394
0.999113
0.996248
0.996892
0.996368
0.99635
0.996394
0.997894
0.997679
0.999993
1
1
1
1
1
7.87671e-21
1.62825e-16
1.67988e-12
4.84926e-09
2.32101e-06
0.00102314
0.279304
0.968297
0.999979
0.999996
0.999999
1
1
1
1
1
0.999789
0.999688
0.999989
0.999945
0.996435
0.999197
0.996578
0.998129
0.996569
0.999867
0.996252
0.99703
0.996932
0.996671
0.996683
0.99643
0.996351
0.99635
0.999176
0.996532
0.998106
0.996582
1
0.99816
1
0.9972
1
0.998065
1
0.997758
1
1
1
1
1
1
1.9989e-21
5.37929e-17
3.9289e-13
1.42213e-09
7.73397e-07
0.000825682
0.244551
0.942629
0.999908
0.999997
0.999999
1
1
1
1
1
0.999997
1
1
0.999605
0.998302
1
0.999867
1
1
0.998294
0.999493
1
0.999774
1
1
0.999995
1
0.999994
1
0.999964
1
0.999964
1
0.996352
0.996353
0.996353
0.996352
0.999838
0.996732
0.998961
0.996855
0.999974
0.997728
0.99566
0.995376
0.997034
0.996877
0.997334
0.997344
0.996353
0.996358
0.996351
0.996352
0.996352
0.996351
0.996351
0.996351
0.997566
0.996351
0.996351
0.996383
0.997591
0.996351
0.99983
0.996616
0.998936
0.996726
0.999999
0.997387
0.999999
0.997844
1
1
1
1
1
0.999999
4.65452e-22
1.58262e-17
9.76239e-14
3.28627e-10
2.2014e-07
0.000457196
0.152903
0.88235
0.998782
0.999952
1
1
0.999997
0.999997
0.999999
0.999999
0.999999
0.999999
1
1
1
1
0.999998
1
0.999998
1
1
1
1
1
1
1
1
1
0.998652
0.999798
1
1
0.999901
1
0.998637
0.999688
1
1
0.999849
1
0.999999
1
1
1
0.999972
1
0.999971
1
0.996353
0.996402
0.996474
0.99637
0.999996
0.99692
0.999502
0.997086
0.999991
0.998663
0.993594
0.993594
0.994095
0.993996
0.998237
0.998212
0.998016
0.998021
0.998244
1
0.998124
1
0.998059
1
0.998016
1
0.996719
0.996448
0.998011
0.997363
0.99926
0.997969
0.99679
0.996533
0.998217
0.99732
0.9992
0.998199
0.996352
0.996364
0.996454
0.996352
0.99739
0.996404
0.99773
0.996467
0.999994
0.996862
0.999474
0.997064
1
0.997694
1
0.998181
1
1
1
1
1
0.999999
8.86144e-23
5.35377e-18
2.2418e-14
5.93807e-11
3.53295e-08
0.000164654
0.0851291
0.765308
0.987101
1
1
1
1
0.999999
0.999999
0.999997
0.999997
0.999998
1
0.999999
1
0.999999
1
1
1
0.999999
1
0.999999
1
0.999999
1
0.999999
1
1
1
1
1
1
1
1
1
1
1
1
1
1
1
1
1
0.996591
0.996543
0.997721
0.996477
0.99999
0.999351
0.993594
0.993594
0.993594
0.993594
0.995787
0.995758
0.997698
0.99748
0.998831
1
0.99823
1
0.998764
1
0.998067
1
0.998357
1
0.998151
1
0.997971
1
0.997912
1
0.998866
1
0.998715
1
0.998445
1
0.99853
1
0.996804
0.997217
0.999141
0.998385
0.998133
0.99994
0.99687
0.997301
0.999312
0.998814
0.998128
0.999944
0.996815
0.996564
0.997728
0.996565
0.998337
0.9967
0.998899
0.996813
1
1
1
1
1
1
5.16377e-23
1.77365e-18
5.31351e-15
7.0183e-12
6.55901e-09
4.59181e-05
0.0409536
0.57407
0.939667
1
1
1
1
1
1
1
1
0.999998
1
0.999999
1
0.999999
1
0.999999
1
0.999999
1
1
1
0.999999
1
0.999999
1
1
1
1
1
0.999999
0.999498
0.995955
0.995284
0.995254
0.99439
0.995606
0.995481
0.994631
0.994669
0.998231
1
0.998615
1
0.998013
1
0.998302
1
0.999177
1
0.999149
1
0.998969
1
0.998746
1
0.998938
0.999999
0.998249
1
0.999005
1
0.998377
1
0.998421
1
0.998158
1
0.998133
1
0.998128
1
1
1
1
1
1
1
4.05512e-23
6.51967e-19
8.3877e-16
5.7558e-12
2.92355e-08
6.66826e-06
0.0160278
0.308854
0.910845
0.910855
0.728791
0.728764
0.999874
0.999875
0.992793
0.992784
1
0.999999
1
0.999998
1
1
1
0.999993
1
0.999887
1
0.999993
1
0.999812
1
0.999959
1
1
1
1
0.999999
1
0.999999
1
0.999998
1
0.999998
1
1
1
0.999999
1
0.999999
0.999978
0.996501
0.995523
0.99527
0.995802
0.995637
0.998322
0.998351
0.997836
0.99777
0.999086
1
0.999514
1
0.998966
1
0.999358
1
0.999473
0.999997
0.999608
0.999997
0.999453
1
0.999533
1
0.99855
0.999988
0.998637
1
1
1
1
1
1
1
3.24865e-23
2.57666e-19
7.89102e-13
6.11201e-08
9.1138e-06
7.27799e-05
0.00449485
0.11747
0.885778
0.885898
0.567325
0.567256
0.998878
1
1
0.99888
0.998916
1
1
0.998919
1
1
1
1
1
1
1
1
1
1
1
0.999631
1
0.999944
1
0.999683
1
1
1
1
0.999999
1
1
0.999996
0.99972
0.9949
0.994244
0.994244
0.994244
0.995726
0.995509
0.997687
0.997676
1
0.999338
1
0.999531
1
0.999324
1
0.99955
1
0.999787
1
0.999712
1
0.999777
1
0.999736
0.999946
1
0.99995
0.999993
0.999855
1
0.999912
1
0.999515
0.999961
0.999855
0.999963
0.999573
1
0.999816
1
1
1
1
1
1
5.10154e-23
1.81398e-14
2.62248e-08
3.07282e-05
0.000479397
0.0024483
0.0219386
0.088123
0.0895056
0.0258306
0.0255235
0.762328
0.900095
0.677115
0.840005
0.761241
0.903106
0.675632
0.840143
0.401026
0.402122
0.998878
1
1
0.998955
0.998916
1
1
0.998954
0.887145
0.984377
0.974867
0.999877
0.886415
0.984955
0.974843
0.999873
1
0.999299
1
0.999837
1
0.999343
1
0.999798
1
0.999999
0.999992
0.998311
0.995096
0.994835
0.994998
0.994801
0.997456
0.99748
0.998929
1
1
0.998179
0.998934
1
1
0.998245
0.999999
0.999824
0.999997
0.999988
0.999999
0.999876
0.999997
0.99998
1
1
1
0.999993
1
0.999983
1
1
1
1
0.999945
1
1
1
1
1
2.20617e-17
1.68673e-09
1.99201e-05
0.00116008
0.00719375
0.0302285
0.0395528
0.0445319
0.0672992
0.0727387
0.0829272
0.0873354
0.115467
0.115579
0.708938
0.903125
0.572572
0.761329
0.707631
0.90512
0.571454
0.761436
0.344972
0.176941
0.264562
0.273969
0.347095
0.179052
0.26716
0.275488
0.999089
1
1
1
0.999136
1
1
1
0.88235
0.990163
0.950329
0.999065
0.882063
0.990729
0.950351
0.999126
1
1
0.999998
0.999976
0.998708
0.998075
0.995122
0.995122
0.995278
0.995148
0.994081
0.999713
0.9924
0.997737
0.993829
0.999749
0.992536
0.997795
0.995985
1
0.99815
1
0.998575
1
0.995488
1
0.998288
1
0.998666
1
0.999425
0.999997
0.999557
0.999997
1
0.999996
1
1
1
0.999967
1
0.999996
1
1
1
5.16974e-12
2.57579e-06
0.000765678
0.00777157
0.0304833
0.09584
0.122977
0.13163
0.116375
0.119228
0.0890344
0.0776288
0.0688835
0.10462
0.069119
0.110037
0.0768612
0.0889092
0.111512
0.069119
0.10775
0.0842623
0.168566
0.290091
0.132179
0.19947
0.171273
0.290092
0.138753
0.255018
0.619097
0.851629
0.534095
0.777685
0.618171
0.852303
0.533848
0.777829
0.12275
0.136302
0.124508
0.13817
0.999749
0.990361
0.999753
0.990357
0.775272
0.940286
0.77441
0.941558
1
1
0.999999
0.999999
0.999998
0.999993
0.999895
0.999783
0.997671
0.997242
0.995483
0.995125
0.998029
0.992814
0.998028
0.99281
0.997248
0.992413
0.998028
0.992534
0.998029
0.992538
0.997436
0.992552
0.994945
0.998982
0.995033
0.999018
0.996895
1
0.99838
0.99905
1
1
0.99695
1
0.998562
0.999079
1
1
0.999808
1
0.999779
1
1
1
2.75566e-08
0.000129142
0.00337227
0.014797
0.0370906
0.0562881
0.0562339
0.0145843
0.0152216
0.194005
0.194489
0.107942
0.11314
0.078319
0.171609
0.194022
0.0799427
0.203592
0.144616
0.0775956
0.17526
0.0755589
0.18809
0.208064
0.141252
0.213537
0.287446
0.220845
0.136734
0.217444
0.279537
0.225303
0.138697
0.35711
0.439511
0.358391
0.439901
1
1
1
0.999999
0.999998
0.999978
0.99996
0.99961
0.999488
0.995933
0.999728
0.992607
0.998657
0.995171
0.999728
0.992457
0.998764
0.992033
0.992892
0.99745
0.992036
0.998064
0.997763
0.992011
0.992759
0.997403
0.992001
0.998004
0.997483
0.997847
0.997002
0.993564
0.992816
0.997917
0.997132
0.993661
0.992912
0.995403
0.999217
0.995434
0.999242
0.997295
1
0.999315
1
0.997245
1
0.99938
1
1
2.85866e-06
0.000498014
0.00358098
0.00678295
0.00598794
0.00807868
0.00802143
0.0046164
0.00536312
0.19929
0.182217
0.276511
0.106731
0.179596
0.18321
0.272022
0.104677
0.0414416
0.0387331
0.217804
0.182282
0.258224
0.273098
0.221498
0.18372
0.26298
0.250412
1
1
1
0.999999
0.999999
0.999999
0.999996
0.999992
0.999978
0.999944
0.9999
0.999293
0.999076
0.996753
0.99932
0.995422
0.998066
0.996062
0.999216
0.994816
0.997806
0.993463
0.992036
0.996635
0.995159
0.993361
0.996107
0.993496
0.992013
0.995198
0.996676
0.99323
0.996053
0.997347
0.992547
0.997415
0.99257
1.47983e-05
0.000417635
0.00119547
0.00127835
0.00287489
0.00298762
0.00192264
0.00161304
0.00243092
0.00247365
0.00174775
0.00233456
0.16017
0.121419
0.142708
0.0613684
0.13316
0.121392
0.101928
0.0596239
0.00559421
0.0171142
0.0185828
0.0348548
0.00506505
0.0164674
0.0172231
0.0312027
0.177306
0.186714
0.179663
0.186284
1
1
1
0.999999
0.999999
0.999998
0.999998
0.999944
0.999923
0.999629
0.999554
1
0.997042
0.999979
0.99764
1
0.996245
0.999948
0.997185
0.996654
0.999181
0.995147
0.997588
0.995496
0.998863
0.994389
0.997175
1.14664e-05
0.00012715
8.79326e-05
0.000496081
0.00178032
0.00181603
0.00102895
0.000935592
0.0051986
0.00441144
0.00103707
0.00244359
0.001705
0.00095994
0.00525373
0.00428595
0.00119336
0.00263214
0.00174338
0.000914152
0.000755412
0.00134018
0.0158009
0.0754203
0.0552793
0.0399393
0.0158565
0.0747714
0.086377
0.0387442
0.00544393
0.00275007
0.00543568
0.00283853
1
1
1
0.999999
1
0.999999
1
1
1
1
0.999984
0.99999
0.999702
1
0.998322
1
0.997681
1
0.999593
1
0.998108
0.999999
0.997195
0.999996
0.996923
0.99988
0.996155
0.99977
0.996003
0.999427
0.995153
0.998967
2.16866e-06
5.37417e-06
9.07887e-06
0.000182759
0.000147565
7.12004e-05
6.3457e-05
0.00114679
0.00118511
0.000798442
0.000636578
0.00294939
0.00106188
0.000558874
0.000685954
0.000563824
0.000553726
0.00312776
0.00106284
0.000549874
0.000721712
0.000568571
0.000618477
0.000228826
0.000807375
0.000228826
0.000529798
0.00026107
0.0018684
0.00026064
0.000789711
1
1
0.999999
0.999999
1
0.999999
0.999999
0.999999
1
1
0.99961
1
1
0.999974
1
0.999999
1
0.999957
1
0.999998
0.999533
0.999993
0.998635
0.997106
0.999999
0.999999
0.998453
0.996631
0.999758
0.999734
0.996057
0.999998
0.995364
0.999797
2.71526e-08
3.84392e-07
4.74827e-05
0.000123566
9.89651e-05
7.2937e-05
6.94482e-05
0.000283658
0.000988708
0.00107526
0.000388633
0.00112467
0.000471394
0.000457992
0.00203851
0.000828895
0.000467771
0.00111598
0.000387397
0.000637255
0.000458115
0.000615171
0.000360233
0.000436449
0.000434822
0.000228826
0.000983603
0.000253443
0.00107717
0.999999
0.999999
0.999999
1
0.999998
1
0.999998
1
1
1
1
1
1
1
1
1
1
1
0.999999
1
1
0.999999
1
0.999865
1
0.999999
1
0.999997
0.999781
1
1
2.46496e-09
3.22324e-06
1.52162e-05
0.000148472
0.000119882
7.3995e-05
6.56017e-05
0.000228826
0.00102756
0.00129793
0.000369284
0.00155708
0.000498141
0.000398419
0.00204062
0.000738776
0.000300864
0.000915527
0.000370218
0.000199121
0.000361066
0.000343344
0.000469171
0.000133293
0.000314114
0.000195152
0.000442744
0.000228826
0.000933017
0.00025295
0.00184895
0.999996
0.999998
0.999999
1
0.999998
1
0.999999
1
1
1
1
1
1
1
1
1
1
1
1
1
1
1
0.999999
1
1
0.999997
1
1
1
2.10546e-08
6.15363e-07
1.43951e-06
5.05487e-05
4.58609e-05
1.56696e-06
1.38658e-08
1.3872e-08
0.000141259
0.000122294
0.000185102
0.000126041
9.00647e-05
0.000231024
0.000245524
0.001354
0.00132912
0.000438785
0.00155421
0.00044922
0.000311867
0.00152642
0.000577987
0.000300642
0.000756874
0.00030106
0.000157953
0.000250868
9.02455e-05
0.000331887
0.999991
0.999997
0.999998
1
0.999999
0.999999
1
1
1
1
1
1
1
1
1
1
1
1
1
1
1
1
1
1
1
1
1
1
1
0.999999
1
3.70192e-09
1.46072e-08
1.61085e-05
6.34072e-08
1.34854e-05
6.38845e-08
1.3872e-08
1.38658e-08
5.57845e-05
0.000123178
0.000195461
0.000120116
0.000109517
0.000122355
3.72591e-05
4.754e-05
0.000106296
4.98929e-05
0.000109525
9.95282e-05
0.000136885
9.55377e-05
3.20832e-05
5.88307e-05
0.00100875
0.000307563
0.000493862
0.000166084
0.000109422
0.000109349
9.00647e-05
0.000140856
0.999991
0.999997
0.999999
0.999999
0.999999
0.999996
1
0.999996
1
0.999999
1
0.999999
1
1
1
0.999999
1
1
1
1
1
1
1
1
1
1
1
1
1
1
5.58659e-11
5.71223e-08
1.05344e-06
2.87675e-05
1.39631e-05
8.70957e-08
1.34411e-06
3.6158e-05
1.06045e-05
7.67868e-08
9.755e-08
9.80111e-08
9.7562e-05
1.11935e-05
0.000118326
0.000195819
0.000195819
3.77718e-05
8.39668e-05
0.000100998
8.45508e-06
0.000101057
0.000122669
3.02646e-05
0.000364345
0.00014458
0.000286641
9.30876e-05
0.999997
0.999997
0.999997
1
1
0.999998
0.999997
0.999996
0.999999
0.999999
1
0.999999
1
1
0.999999
1
0.999999
0.999998
1
0.999999
1
1
0.999998
1
1
0.999999
1
1
1
1
1
1
9.76399e-12
6.67844e-08
1.1318e-07
1.18295e-07
6.329e-08
5.95176e-09
5.83745e-09
5.53841e-08
4.15381e-06
1.4459e-06
1.09889e-06
3.58234e-06
5.53815e-08
5.53815e-08
5.53841e-08
3.62359e-07
6.22391e-08
5.53841e-08
5.53815e-08
6.4062e-06
1.61288e-06
1.44824e-06
2.47106e-06
5.53841e-08
5.53841e-08
5.53815e-08
3.16852e-07
5.53842e-08
5.57706e-08
3.86505e-05
4.28515e-06
0.000100144
1.68866e-05
3.72286e-05
2.71867e-06
7.56248e-05
1.37068e-05
0.999998
0.999996
1
1
1
0.999999
1
1
0.999997
0.999998
1
1
0.999999
0.999999
0.999998
1
1
1
0.999999
0.999997
0.999998
1
1
1
1
1
1
1
3.24713e-32
7.66002e-07
8.95872e-08
6.98546e-07
7.62444e-08
2.44838e-09
2.13729e-09
2.8647e-06
1.6607e-07
5.65495e-07
3.89799e-06
5.53841e-08
5.90187e-08
5.46839e-07
3.15894e-07
5.55385e-07
1.45581e-07
2.43754e-07
3.09201e-06
6.63701e-07
1.63687e-06
2.33841e-06
3.35622e-07
4.62661e-06
2.28687e-07
5.53815e-08
6.83447e-08
2.67392e-07
4.8283e-07
3.24933e-07
7.98034e-08
1.77868e-07
2.49463e-06
5.85266e-07
1.64145e-06
0.999995
0.999997
0.999987
0.999985
0.999994
0.999997
0.999994
0.999999
1
0.999999
1
0.999998
1
1
1
0.999997
1
0.999997
1
0.999997
1
1
1
1
0.999998
1
1
0.999996
1
1
0.999998
1
1
0.999997
1
1
1
1.22746e-30
2.27275e-06
2.55504e-06
6.94194e-07
2.54971e-08
2.03089e-06
2.33634e-06
6.27363e-07
2.17587e-08
6.32923e-10
5.17868e-10
5.53815e-08
2.27678e-07
5.76368e-08
8.38123e-08
5.98219e-07
7.21113e-07
2.12854e-07
2.70587e-07
3.8918e-06
4.3876e-06
7.24901e-08
1.06253e-07
5.53842e-08
7.56535e-08
4.67241e-07
1.85175e-07
6.43166e-07
1.46149e-07
2.69723e-06
3.53876e-06
0.999994
0.999998
0.999984
0.999985
0.999995
0.999996
0.999993
0.999998
1
1
1
0.999998
1
0.999997
1
1
1
0.999996
1
0.999999
0.999999
1
1
1
1
1
1
1
0.999996
0.999999
0.999997
0.999999
1
1
1
6.35158e-05
8.03093e-29
-1.18326e-28
7.73025e-07
7.66364e-06
2.82326e-06
8.20192e-06
2.368e-06
2.41001e-08
6.76758e-07
6.66531e-06
2.4781e-06
7.06266e-06
2.07812e-06
2.21356e-08
4.71923e-07
6.4328e-07
2.83553e-06
3.17742e-06
3.89302e-06
1.47938e-05
3.43856e-07
5.66013e-07
2.35703e-06
1.72243e-06
2.93246e-06
1.32817e-05
0.999994
0.999996
0.999974
1
0.999996
0.999974
1
0.999997
0.999993
0.999997
0.999993
1
1
0.999998
1
0.999999
1
0.999998
0.999999
0.999999
0.999998
0.999998
1
1
1
1
1
0.999995
0.999998
0.999999
1
6.94756e-07
2.78072e-06
9.01795e-05
1.32465e-06
8.66038e-05
2.52999e-06
3.10561e-06
1.34072e-06
3.44524e-06
1.28993e-06
3.75846e-06
1.52615e-05
1.96759e-05
2.43607e-06
2.94134e-06
1.20403e-06
3.2207e-06
1.28482e-06
3.23587e-06
1.44613e-05
1.6016e-05
2.54786e-06
1.56226e-05
2.11146e-06
1.36605e-05
0.999994
0.999994
0.999994
0.999979
0.999997
0.999997
0.999998
0.999994
0.999985
0.999998
0.999997
1
0.999994
0.999996
0.999997
1
0.999998
0.999999
1
0.999999
1
0.999999
0.999995
1
0.999998
1
1
5.24401e-34
6.06675e-06
1.17941e-06
6.11863e-06
1.19243e-06
0.000123139
0.000116596
0.000105112
2.02881e-06
3.7886e-06
3.69572e-06
1.30339e-06
6.68647e-06
1.65424e-06
8.97647e-06
1.30489e-06
7.05349e-06
1.56283e-05
9.18721e-05
1.79343e-06
3.39207e-06
3.2679e-06
1.11826e-06
6.26545e-06
1.56428e-06
8.39839e-06
1.23523e-06
5.98789e-06
1.56268e-05
0.999997
0.999997
0.999993
0.999995
0.999992
0.999979
1
1
1
1
0.999999
1
0.999985
1
1
1
1
0.999999
1
0.999998
0.999999
1
1
1
1
2.11977e-15
-6.3637e-34
1.28159e-14
-9.54989e-34
1.08829e-14
8.50778e-06
1.13739e-06
8.54173e-06
1.16888e-06
0.000227589
0.000211837
0.000200453
8.83764e-05
9.71857e-05
0.000102115
3.12018e-06
2.2996e-06
2.6149e-06
1.31596e-06
1.11434e-05
2.54861e-06
1.45212e-05
1.31596e-06
0.000199801
7.57011e-05
8.75152e-05
8.8837e-05
2.7225e-06
2.1431e-06
2.29619e-06
1.1184e-06
1.00845e-05
2.41822e-06
1.39254e-05
1.31753e-06
0.999996
0.999998
0.999999
0.999996
0.999996
0.999994
0.999992
1
0.999998
0.999999
0.999998
0.999999
1
1
1
1
1
1
1
1
1
1
1
1
1
1
1
1
1
7.88067e-14
-3.29737e-33
4.62781e-30
5.49065e-34
8.62735e-30
1.07751e-31
3.55091e-11
-1.66566e-30
2.38292e-11
2.52385e-05
3.5167e-07
2.39707e-05
3.67755e-07
0.00022933
0.000197004
0.000304491
0.000231985
0.000248708
0.000187842
0.000304468
0.00021483
0.000202532
7.28561e-05
6.96751e-05
9.94747e-05
0.000197112
6.18127e-05
6.34756e-05
8.80534e-05
0.999996
0.999995
0.999996
0.999993
0.999992
0.999998
0.999999
0.999994
0.999997
1
0.999997
1
1
1
1
1
1
1
1
1
1
1
1
1
1
1
1
1
1
1
1
1
1
1
0.999999
3.61738e-11
1.92337e-12
9.43506e-11
1.31172e-11
7.04058e-11
9.14834e-12
-9.01249e-27
2.60315e-08
-2.04343e-27
2.14479e-08
1.81096e-05
2.44614e-05
3.74718e-05
9.84935e-06
2.89112e-06
1.80659e-07
4.41232e-07
1.14306e-06
1.75672e-05
2.2896e-05
3.6986e-05
9.07956e-06
2.71255e-06
1.41327e-07
4.01919e-07
1.07355e-06
0.000251524
0.000199209
0.000220563
0.000251243
0.00034213
0.000191862
0.000219541
0.000236201
0.999997
0.999998
0.999998
0.999994
0.999996
0.999993
0.999993
0.999993
0.999992
0.999998
1
0.999994
1
1
0.999998
1
1
1
0.999996
1
1
1
1
1
1
1
1
1
1
1.00037e-08
1.83709e-11
9.54867e-10
1.87016e-11
1.12771e-09
5.21563e-11
4.40782e-08
3.89687e-09
4.25075e-08
5.59086e-09
4.1008e-08
7.94247e-09
3.62698e-08
6.58454e-09
9.09523e-08
7.31677e-08
9.53017e-08
6.56761e-08
5.19585e-08
6.10687e-09
3.34806e-08
5.87576e-09
1.0911e-07
6.97105e-08
9.63046e-08
5.95742e-08
1.02272e-05
2.47811e-05
4.51361e-05
5.86002e-06
1.77632e-06
2.00929e-07
3.9493e-07
1.39205e-06
1.02145e-05
2.29658e-05
4.4029e-05
5.0572e-06
1.64544e-06
1.63018e-07
3.61305e-07
1.12469e-06
0.999996
0.999997
0.999999
0.999999
0.999996
0.999997
0.999999
0.999998
0.999996
0.999995
1
0.999998
1
0.999998
1
1
1
0.999998
1
0.99999
0.999999
0.999996
1
0.999998
1
0.999997
1
0.999998
1
1
1
0.999996
1
1
5.55593e-08
1.1469e-08
1.00275e-08
1.12293e-08
1.00275e-08
2.02469e-07
5.48128e-07
2.15265e-07
5.58877e-07
1.99871e-10
1.85165e-07
1.16336e-07
1.68098e-07
1.02703e-07
3.7595e-08
1.02235e-08
1.09103e-08
1.3896e-08
1.82768e-07
1.12855e-07
1.69661e-07
1.00633e-07
4.05279e-08
1.30018e-08
1.43066e-08
1.66951e-08
2.57467e-07
1.1758e-08
6.25767e-08
2.49784e-08
4.05434e-07
1.83205e-07
3.29165e-07
1.32108e-07
2.34411e-07
8.69605e-09
5.92579e-08
2.0443e-08
2.81615e-07
1.76838e-07
4.00396e-07
1.22198e-07
0.999998
0.999998
0.999966
0.999994
0.999966
0.999994
0.999966
0.999966
0.999966
0.999966
1
0.999997
1
0.999999
1
1
1
1
1
0.999997
1
0.999997
1
1
1
0.999998
1
0.999998
1
0.999997
1
0.999999
1
0.999998
0.999999
0.99999
0.999999
0.999992
1
0.999998
1
0.999996
6.1118e-06
2.81811e-08
1.29757e-06
9.91472e-06
1.12909e-06
8.34576e-06
3.73509e-07
5.70375e-08
5.55355e-07
4.26376e-07
8.05379e-07
4.37925e-08
1.18818e-06
1.35853e-06
4.98759e-07
1.83874e-06
3.88085e-07
6.09623e-08
5.37043e-07
4.65659e-07
7.93899e-07
5.03268e-08
1.22068e-06
1.4254e-06
7.25054e-07
1.82076e-06
4.58215e-10
6.41066e-07
2.70849e-07
5.93386e-07
2.32149e-07
8.92166e-08
7.47441e-08
5.99755e-07
2.57653e-07
6.39483e-07
2.2301e-07
9.73058e-08
7.619e-08
4.24695e-07
3.76586e-07
7.98643e-07
2.38992e-07
3.96441e-07
3.61297e-07
9.53201e-07
2.22587e-07
0.999999
0.999998
1
1
0.999998
0.999998
1
0.999999
0.999999
1
1
1
1
0.999996
0.999999
0.999999
0.999999
0.999982
1
1
1
0.999996
0.999992
0.999975
0.99999
0.999974
1
0.999995
1
0.999998
1
1
1
1
1
0.999995
1
0.999996
1
0.999999
1
0.999998
4.31355e-06
2.85175e-05
0.000133965
3.40465e-05
0.000145534
4.94717e-08
1.83379e-05
4.19588e-05
1.83603e-05
4.5427e-05
9.27066e-08
6.51222e-07
1.41536e-06
6.95351e-07
6.87034e-07
1.71118e-06
3.11833e-06
2.28377e-06
5.08033e-07
2.46409e-06
9.08132e-08
6.98129e-07
1.19584e-06
7.26375e-07
7.9876e-07
1.68966e-06
3.07873e-06
2.41957e-06
7.39299e-07
2.57537e-06
8.17095e-08
1.31515e-06
4.82533e-07
1.60231e-06
5.51235e-07
2.50849e-07
7.68902e-08
1.27175e-06
4.62166e-07
1.7319e-06
5.3068e-07
2.31776e-07
7.83028e-08
1
0.999998
0.999999
0.999998
1
0.999998
0.999999
0.999994
0.999993
1
0.999997
1
1
0.999998
1
0.999997
1
0.999999
0.999983
0.999999
0.999992
1
0.999998
0.999998
1
0.999993
1
0.999999
1
1
1
0.999999
0.999982
0.999999
1
1
0.999995
0.999998
0.999999
1
1
1
1
1
0.999997
1
0.999997
2.59626e-06
8.61277e-05
5.51327e-05
9.16915e-05
5.59715e-05
0.000173835
0.000316579
0.000188589
0.000326103
9.41043e-06
6.7739e-05
2.81726e-05
4.58602e-05
1.74419e-05
6.623e-05
2.91288e-05
7.2534e-05
2.3001e-05
6.5861e-05
2.69079e-05
4.0778e-05
1.83537e-05
8.15726e-05
3.3077e-05
8.99179e-05
2.38896e-05
2.95804e-07
1.46411e-06
1.32763e-05
1.1419e-05
2.38313e-06
2.9188e-06
2.95711e-07
1.15606e-06
1.29111e-05
1.12859e-05
2.68373e-06
3.20826e-06
7.32164e-06
1
0.999998
0.999999
0.999998
0.999999
0.999998
0.999998
0.999999
1
1
1
0.999994
0.999999
1
0.999999
0.999997
1
0.999999
1
0.999997
1
0.999989
0.999983
0.999999
0.999999
0.999997
1
1
1
0.999997
1
0.999999
1
1
0.999999
0.999999
0.999991
0.999999
1
1
0.999983
0.999998
0.999983
4.27994e-05
0.000202215
0.00026887
0.00017379
0.000267545
0.000159199
0.000128428
3.40022e-05
0.000146554
0.000119625
0.00030354
6.108e-05
0.000511243
0.00102238
0.000233946
0.000656763
0.000138954
3.96734e-05
0.000143739
0.000127339
0.000305452
8.09322e-05
0.000531728
0.00104845
0.000242702
0.000672779
0.000381192
7.43517e-05
2.70327e-05
7.1755e-05
1.62156e-05
4.48893e-05
1.6342e-05
9.09505e-05
2.64816e-05
6.33732e-05
1.83145e-05
7.8304e-05
1.83537e-05
2.17693e-05
0.999998
0.999999
1
1
1
0.999998
0.999998
0.999998
0.999996
0.999999
0.999998
0.999998
0.999998
0.999999
0.999993
0.999999
0.999996
1
0.999993
0.999999
0.999996
0.999999
0.999997
1
0.999999
1
0.999994
1
1
0.999999
1
1
1
0.999984
0.999999
1
1
1
1
0.00239222
0.000465132
0.000109723
0.000463763
0.000115162
0.00314182
0.00102661
0.000735848
0.00102598
0.000715382
7.65839e-05
8.69498e-05
0.000104202
0.000276058
8.66758e-05
0.000284979
0.000769508
0.00112527
0.000355345
0.000722229
8.49259e-05
9.20603e-05
0.000121923
0.000276954
9.17094e-05
0.000284529
0.000789535
0.00114462
0.000381436
0.000731262
0.000892815
5.3312e-05
2.51142e-05
0.000101671
2.70585e-05
1.51935e-05
0.999988
0.999999
1
1
0.999997
1
0.999999
1
0.999993
0.999996
0.999997
0.999992
0.999998
0.999999
0.999996
1
0.999992
0.999999
0.999998
0.999992
0.999999
0.999992
0.999998
1
0.999996
1
0.999992
0.999999
0.999996
0.999997
0.999996
0.999993
0.999998
0.999996
0.999998
0.999994
0.999997
0.999997
0.999999
0.999994
0.0165839
0.0120431
0.00342185
0.0025232
0.00344261
0.00245754
0.00647069
0.00125257
0.000586838
0.00185738
0.000587307
0.00177744
0.00123991
0.000567928
0.00180118
0.000568291
0.00181954
0.000221143
0.000919172
0.000599871
0.0020969
0.00051361
0.00190355
0.000240803
0.000984693
0.000596215
0.00209696
0.000527023
0.00197078
0.000564271
1.52951e-06
0.999986
0.999999
1
1
1
1
1
1
1
1
1
1
0.999997
0.999992
0.999994
0.999999
0.999992
0.999994
0.999995
0.999999
0.999992
0.999996
0.999995
0.999993
1
0.999995
0.999993
0.999997
0.999995
0.999998
0.999992
0.999996
0.999999
0.999999
0.999999
0.999994
0.0289474
0.0231182
0.0422274
0.021318
0.0460415
0.0120384
0.0061767
0.00979858
0.00630073
0.00930368
0.00343787
0.00101826
0.000492696
0.00154506
0.000701266
0.00214106
0.00666153
0.000942894
0.00310458
0.00103224
0.000512433
0.00140114
0.000717403
0.00231459
0.00668537
0.00107056
0.00324525
0.000547949
0.00209696
0.000546158
0.0020969
8.08999e-05
6.73158e-09
0.999994
0.999998
1
1
1
1
1
1
1
1
0.999997
1
1
1
1
0.999997
0.999998
0.999999
1
0.999992
0.999992
0.999996
0.999997
0.999992
0.999993
0.999992
0.999995
0.999992
0.999995
0.999992
0.999995
0.0404814
0.0104927
0.0506371
0.0759431
0.0500928
0.0804109
0.00605831
0.00472248
0.00215654
0.00204536
0.00327529
0.00214792
0.00525104
0.0132384
0.00227682
0.00531631
0.00493078
0.0021402
0.00204106
0.00328518
0.0131434
0.000488397
0.000921046
0.000491561
0.00116527
0.000520563
0.00107101
0.00216472
0.000903179
0.000511358
0.00102934
0.000585118
0.00118061
0.00216869
9.68952e-07
4.59631e-13
0.999999
0.999998
1
1
1
1
1
1
1
1
1
0.999999
1
1
1
0.999999
1
1
1
1
1
0.999999
0.999997
0.999996
1
1
1
1
1