/*--------------------------------*- C++ -*----------------------------------*\
| =========                 |                                                 |
| \\      /  F ield         | OpenFOAM: The Open Source CFD Toolbox           |
|  \\    /   O peration     | Version:  5.x                                   |
|   \\  /    A nd           | Web:      www.OpenFOAM.org                      |
|    \\/     M anipulation  |                                                 |
\*---------------------------------------------------------------------------*/
FoamFile
{
    version     2.0;
    format      ascii;
    class       surfaceScalarField;
    location    "1.5";
    object      alphaPhi10;
}
// * * * * * * * * * * * * * * * * * * * * * * * * * * * * * * * * * * * * * //

dimensions      [0 3 -1 0 0 0 0];

internalField   nonuniform List<scalar> 
30582
(
0.000264325
-2.8222e-06
0.000267007
-2.68188e-06
0.000263929
-5.21684e-06
0.000266485
5.21811e-07
0.00026644
-5.19222e-06
0.000262507
-6.12071e-06
0.000261191
5.29447e-06
0.000265723
1.23852e-06
0.000265718
-8.40269e-06
0.000260013
-4.43074e-06
0.000255145
6.04552e-06
0.000260689
1.03282e-05
0.000266025
9.31878e-07
0.000262249
-1.06388e-05
0.000256649
7.52046e-07
0.000249025
6.12025e-06
0.000254641
1.20938e-05
0.000261309
1.5044e-05
0.000261817
1.36439e-06
0.000260397
-1.43869e-05
0.000249686
1.30672e-05
0.000244527
4.49829e-06
0.000248655
1.21064e-05
0.000255275
1.81276e-05
0.000258417
1.84435e-05
0.000261849
-8.79113e-08
0.000251241
-1.59419e-05
0.000244322
3.09455e-05
0.000242146
2.3803e-06
0.000243968
9.18459e-06
0.000248709
1.86722e-05
0.000253061
2.34832e-05
0.000259484
2.08087e-05
0.000251806
-6.5278e-07
0.000249014
-2.0634e-05
0.000226407
6.69669e-05
0.000242892
-7.45545e-07
0.000241412
4.93651e-06
0.000243476
1.44174e-05
0.000246874
2.48592e-05
0.000254986
2.7981e-05
0.000253061
1.95536e-05
0.000253158
-4.79681e-06
0.000222132
-1.45311e-05
8.80622e-05
-8.62293e-06
0.000246366
-3.47419e-06
0.000242298
-1.63159e-06
0.000240908
7.50523e-06
0.000241351
1.99413e-05
0.000247845
3.20006e-05
0.000251342
2.97e-05
0.000255546
1.71651e-05
0.000228815
-1.01372e-05
0.000103564
-2.71981e-06
-6.41636e-06
1.59702e-07
0.000251241
-4.87519e-06
0.000246147
-7.32259e-06
0.00024171
-2.43379e-06
0.000238139
1.0717e-05
0.000240531
2.7255e-05
0.000245185
3.81572e-05
0.000253998
3.1248e-05
0.000241543
3.91427e-06
0.000130209
-5.32467e-06
-6.39886e-06
-4.12193e-09
4.5739e-08
3.9501e-09
0.00025548
-4.23858e-06
0.000251477
-1.02057e-05
0.000245756
-1.13692e-05
0.000239112
-3.40653e-06
0.000236563
1.46854e-05
0.000237135
3.53056e-05
0.000245588
4.65641e-05
0.000247922
2.34485e-05
0.000161225
-4.9927e-06
-4.83718e-06
-2.49022e-08
1.30681e-09
-1.21934e-10
5.84829e-10
5.31697e-12
0.000257101
-1.6207e-06
0.000256188
-8.94988e-06
0.000251802
-1.62513e-05
0.000244308
-1.65652e-05
0.000237447
-4.29079e-06
0.000231912
1.99082e-05
0.000234397
4.64933e-05
0.000243352
4.86179e-05
0.000179688
-8.58905e-07
5.31274e-07
-5.63248e-08
-6.12771e-09
1.04255e-12
7.88931e-12
-2.27278e-16
-5.70457e-17
1.26552e-15
0.000254321
2.78e-06
0.000257907
-3.3392e-06
0.000257513
-1.46606e-05
0.000251846
-2.37893e-05
0.000243196
-2.23143e-05
0.000232854
-5.23333e-06
0.000227296
2.7006e-05
0.000232171
5.44031e-05
0.000181615
1.27778e-05
7.88296e-06
-8.85368e-08
-1.54787e-08
-3.50042e-11
3.36732e-12
3.73537e-15
-1.57093e-16
-1.3471e-17
8.51321e-17
1.72204e-20
0.000245966
8.35418e-06
0.00025538
5.30656e-06
0.000260714
-6.54076e-06
0.000259096
-2.19112e-05
0.000252347
-3.29398e-05
0.000240322
-2.97823e-05
0.000228164
-6.09773e-06
0.0002239
3.2982e-05
0.000175405
1.81244e-05
1.29814e-05
-4.95797e-08
-2.27826e-08
-9.32285e-11
2.14844e-12
-3.27083e-15
1.06298e-16
-4.25111e-21
6.5555e-20
-2.12224e-26
-5.12425e-27
0.000231823
1.41438e-05
0.000247339
1.63954e-05
0.000258617
7.40412e-06
0.000262908
-1.03528e-05
0.000261785
-3.13495e-05
0.000252128
-4.47454e-05
0.000236921
-3.85143e-05
0.000225044
-6.23884e-06
0.000173235
1.06056e-05
1.46724e-05
8.52853e-08
-9.14566e-09
-1.42408e-10
7.64142e-12
-1.68851e-14
9.7851e-17
-8.79286e-20
1.72995e-21
9.58622e-25
-2.45824e-26
0.000212215
1.96082e-05
0.000233362
2.81212e-05
0.000250627
2.43855e-05
0.000262057
8.25568e-06
0.000268447
-1.70153e-05
0.000264542
-4.37637e-05
0.000251573
-5.9374e-05
0.000235078
-4.13357e-05
0.00017853
-2.58734e-06
1.55961e-05
2.94965e-08
3.22049e-08
-1.59394e-10
2.61167e-11
-3.95724e-14
-5.9491e-17
-4.82986e-19
-1.01647e-22
-1.66068e-24
4.69783e-27
0.000187707
2.45078e-05
0.00021371
3.92597e-05
0.000236601
4.21475e-05
0.000254938
3.15039e-05
0.000268696
8.00666e-06
0.000273006
-2.54793e-05
0.000267808
-5.99915e-05
0.000252755
-6.66116e-05
0.000196807
-1.29895e-05
1.91314e-05
-1.41846e-07
1.00506e-07
-3.5822e-10
8.5523e-11
-7.71206e-14
2.88224e-16
-1.29039e-18
-9.89275e-21
-1.12414e-23
2.73887e-26
0.000159122
2.85852e-05
0.000189052
4.91656e-05
0.000216745
5.91151e-05
0.000241121
5.59643e-05
0.000261746
3.84548e-05
0.000275234
5.77908e-06
0.000280392
-3.80631e-05
0.000272727
-7.0642e-05
0.000222714
-2.42593e-05
2.78229e-05
-4.33054e-07
2.2007e-07
-1.10205e-09
2.06016e-10
-1.92559e-13
5.24546e-15
-3.09768e-18
-1.83485e-20
-3.39125e-23
8.5184e-26
0.000127371
3.17502e-05
0.000160262
5.73757e-05
0.000191744
7.41672e-05
0.000221067
7.9169e-05
0.000247843
6.98668e-05
0.000269742
4.39471e-05
0.000285014
1.15713e-06
0.000288424
-4.8358e-05
0.000249845
-3.21303e-05
4.32911e-05
-9.27687e-07
4.54596e-07
-2.85374e-09
4.27926e-10
-5.7285e-13
2.13143e-14
-8.07494e-18
4.92191e-20
-9.70709e-23
1.60627e-25
9.33532e-05
3.40182e-05
0.000128282
6.37305e-05
0.000162526
8.6593e-05
0.000195598
9.96362e-05
0.000227361
9.9651e-05
0.000256047
8.3561e-05
0.000279392
4.95685e-05
0.000293612
-3.59968e-06
0.000271919
-2.77511e-05
6.66037e-05
-1.5794e-06
9.54503e-07
-6.50443e-09
8.71269e-10
-1.54634e-12
5.35132e-14
-2.37536e-17
3.03775e-19
-2.63109e-22
1.04183e-24
5.7901e-05
3.54523e-05
9.40286e-05
6.82713e-05
0.000130088
9.61688e-05
0.000165771
0.000116421
0.000201151
0.000125846
0.000235087
0.000120611
0.000265581
9.73723e-05
0.000290679
5.25016e-05
0.000283721
-4.56916e-06
9.1577e-05
-1.82917e-06
1.9878e-06
-1.25205e-08
1.80713e-09
-3.737e-12
1.00334e-13
-6.31088e-17
7.67625e-19
-7.97261e-22
3.51415e-24
2.1759e-05
3.6142e-05
5.83482e-05
7.11326e-05
9.53769e-05
0.000102982
0.000132668
0.000129271
0.000170413
0.000147159
0.000207923
0.000153011
0.00024399
0.000142202
0.000277251
0.0001108
0.000282211
2.33915e-05
0.000106386
-5.99822e-07
3.74693e-06
-1.77906e-08
3.80829e-09
-7.76328e-12
1.27281e-13
-1.50039e-16
1.09324e-18
-2.14742e-21
8.02931e-24
-1.43958e-05
3.61548e-05
2.19865e-05
7.25036e-05
5.92487e-05
0.000107261
9.72931e-05
0.000138358
0.000136346
0.000163338
0.000176027
0.000179055
0.000215617
0.000181385
0.000255077
0.000164376
0.000269104
5.16973e-05
0.000108255
2.23013e-06
5.70355e-06
-1.22378e-08
7.82431e-09
-1.25132e-11
3.50033e-15
-3.07502e-16
-2.83812e-19
-5.2246e-21
7.73754e-24
-4.99559e-05
3.55601e-05
-1.43848e-05
7.25261e-05
2.24487e-05
0.000109303
6.05265e-05
0.000144027
0.000100018
0.000174686
0.000140764
0.000198601
0.000182299
0.000212372
0.000225068
0.000211394
0.000245803
7.63692e-05
0.000103059
5.16652e-06
6.64964e-06
2.42331e-08
1.46202e-08
-1.17462e-11
-4.87039e-13
-5.13727e-16
-7.87191e-18
-1.09977e-20
-2.21888e-23
-8.43435e-05
3.43876e-05
-5.01669e-05
7.13421e-05
-1.43582e-05
0.000109333
2.31136e-05
0.000146716
6.2337e-05
0.000181708
0.000103284
0.000212165
0.000145609
0.000235291
0.000189927
0.000247513
0.00021475
9.54058e-05
9.16709e-05
7.47899e-06
6.45024e-06
8.69775e-08
2.13269e-08
2.30471e-11
-1.65151e-12
-5.35863e-16
-3.31611e-17
-1.86999e-20
-1.60982e-22
-0.000117005
3.26615e-05
-8.47888e-05
6.90095e-05
-5.05878e-05
0.000107572
-1.42974e-05
0.000146744
2.40448e-05
0.000185008
6.45277e-05
0.000220465
0.000106801
0.000250974
0.00015145
0.000273768
0.000179785
0.000107292
7.63857e-05
8.87739e-06
5.50124e-06
1.30117e-07
2.2031e-08
1.38158e-10
-2.61103e-12
2.08039e-15
-1.17522e-16
-1.97526e-20
-5.87274e-22
-0.000147409
3.04037e-05
-0.000117702
6.55742e-05
-8.56785e-05
0.0001041
-5.11502e-05
0.000144425
-1.42326e-05
0.000185022
2.52249e-05
0.000224311
6.68408e-05
0.000260425
0.000110949
0.000291474
0.000142795
0.000113773
6.089e-05
9.34926e-06
4.14539e-06
1.41866e-07
1.83094e-08
2.14607e-10
-2.13298e-12
1.47414e-14
-2.77097e-16
8.91043e-20
-2.10868e-21
-0.000175043
2.76347e-05
-0.00014837
6.10725e-05
-0.000119083
9.89786e-05
-8.69039e-05
0.000139854
-5.1978e-05
0.00018217
-1.40377e-05
0.000224284
2.64396e-05
0.000264712
6.94569e-05
0.000301917
0.000104943
0.000116646
4.62625e-05
9.25659e-06
2.98064e-06
1.33302e-07
1.22443e-08
2.18338e-10
-1.42121e-12
2.35023e-14
-2.64407e-16
5.81406e-19
-4.8603e-21
-0.000199436
2.43925e-05
-0.000176272
5.55361e-05
-0.000150263
9.22526e-05
-0.00012102
0.000133094
-8.86747e-05
0.000176551
-5.28059e-05
0.000220938
-1.38494e-05
0.000264573
2.78308e-05
0.000306338
6.67377e-05
0.000117459
3.28236e-05
8.93806e-06
2.05387e-06
1.18247e-07
7.64615e-09
1.84864e-10
-7.94444e-13
2.26645e-14
-1.94694e-16
9.48742e-19
-4.61848e-21
-0.000220174
2.07383e-05
-0.000200918
4.90393e-05
-0.000178689
8.39624e-05
-0.000152952
0.000124185
-0.000123796
0.000168216
-9.06063e-05
0.000214351
-5.37034e-05
0.000260792
-1.34292e-05
0.000305833
2.82373e-05
0.000117343
2.0454e-05
8.60589e-06
1.34228e-06
1.03837e-07
4.5416e-09
1.46639e-10
-4.44094e-13
1.74085e-14
-1.07928e-16
9.3729e-19
-3.56031e-21
-0.000236932
1.67577e-05
-0.000221882
4.17021e-05
-0.000203854
7.42039e-05
-0.000182147
0.000113157
-0.000156792
0.000157181
-0.000126936
0.000204545
-9.27092e-05
0.000253357
-5.43567e-05
0.00030172
-1.03654e-05
0.00011683
8.62592e-06
8.40617e-06
7.87529e-07
9.31124e-08
2.54753e-09
1.16536e-10
-2.65569e-13
1.23394e-14
-5.44754e-17
7.33178e-19
-2.04167e-21
-0.000249503
1.25706e-05
-0.000238814
3.36897e-05
-0.0002253
6.31486e-05
-0.000208061
0.000100118
-0.000187084
0.00014345
-0.000161239
0.000191485
-0.000130384
0.00024222
-9.47871e-05
0.000293787
-4.89297e-05
0.000116621
-3.215e-06
8.36549e-06
3.14691e-07
8.77433e-08
1.25249e-09
9.65896e-11
-1.6778e-13
8.81545e-15
-2.73685e-17
5.28996e-19
-1.06085e-21
-0.00025781
8.30671e-06
-0.000251469
2.52248e-05
-0.00024266
5.10492e-05
-0.000230191
8.52784e-05
-0.000214085
0.000127119
-0.000192907
0.000175118
-0.00016618
0.00022728
-0.000134167
0.0002816
-8.69841e-05
0.000116154
-1.50328e-05
8.46384e-06
-1.34787e-07
8.67983e-08
3.98507e-10
8.67064e-11
-1.07454e-13
6.6886e-15
-1.4142e-17
3.85009e-19
-5.45358e-22
-0.000261835
4.02574e-06
-0.000259714
1.6552e-05
-0.000255694
3.82587e-05
-0.000248109
6.89672e-05
-0.00023723
0.000108423
-0.000221297
0.000155508
-0.000199459
0.000208397
-0.000171822
0.000264935
-0.000124475
0.000115128
-2.72527e-05
8.69857e-06
-6.12757e-07
9.00168e-08
-2.64705e-10
8.43101e-11
-6.74994e-14
5.68035e-15
-7.54059e-18
2.97563e-19
-2.86978e-22
-0.000261662
-1.7335e-07
-0.000263585
7.89639e-06
-0.000264333
2.51916e-05
-0.000261507
5.16559e-05
-0.000256028
8.77642e-05
-0.000245746
0.000132872
-0.000229514
0.000185563
-0.000207075
0.00024365
-0.00016122
0.000112988
-4.04505e-05
9.08563e-06
-1.18315e-06
9.76772e-08
-1.12988e-09
9.08644e-11
-7.18603e-14
5.44265e-15
-4.16993e-18
2.55977e-19
-1.57722e-22
-0.000257859
-3.80235e-06
-0.000263748
-9.61753e-09
-0.000268707
1.22699e-05
-0.00027017
3.38552e-05
-0.000270162
6.57907e-05
-0.000265625
0.000107644
-0.000255562
0.00015892
-0.000239191
0.000217679
-0.000196737
0.000108988
-5.47947e-05
9.51121e-06
-1.91085e-06
1.10913e-07
-2.56672e-09
1.0683e-10
-7.41974e-14
6.1384e-15
-2.11121e-18
2.47098e-19
-9.51119e-23
-0.00025074
-7.11953e-06
-0.000259818
-7.7323e-06
-0.000268089
-6.27051e-07
-0.000273911
1.60106e-05
-0.000279538
4.32307e-05
-0.000280523
8.06889e-05
-0.000276772
0.000128854
-0.000267274
0.000187004
-0.000230212
0.000102313
-7.01472e-05
9.84268e-06
-2.86001e-06
1.29162e-07
-4.89444e-09
1.3429e-10
-5.34055e-14
7.92186e-15
5.34845e-19
2.75814e-19
-5.45626e-23
-0.000240626
-1.01138e-05
-0.000252419
-1.45184e-05
-0.000263801
-1.20207e-05
-0.000274131
-4.07195e-07
-0.000284346
2.08184e-05
-0.000290132
5.28395e-05
-0.000292752
9.66685e-05
-0.000289945
0.000151524
-0.000260512
9.21821e-05
-8.61096e-05
9.92675e-06
-4.07284e-06
1.50427e-07
-8.64199e-09
1.7727e-10
-4.49671e-14
1.12081e-14
5.90644e-18
3.49949e-19
-3.95073e-24
-1.27864e-05
-0.00022784
-0.000242061
-2.04723e-05
-0.000255955
-2.23642e-05
-0.000269654
-1.64972e-05
-0.000283117
-1.63597e-06
-0.000293848
2.45338e-05
-0.000303425
6.35125e-05
-0.000306848
0.000113572
-0.000286316
7.7914e-05
-0.000101879
9.58599e-06
-5.5541e-06
1.71691e-07
-1.45013e-08
2.36866e-10
-3.82964e-14
1.70507e-14
1.80086e-17
4.88411e-19
9.5305e-23
-2.56367e-05
-0.000229211
-3.76677e-05
-0.000190172
-0.000245061
-3.13664e-05
-0.00026142
-3.05981e-05
-0.000278002
-2.16116e-05
-0.00029378
-1.70387e-06
-0.000309188
3.02975e-05
-0.000317615
7.42794e-05
-0.000305912
6.15057e-05
-0.000116585
8.63877e-06
-7.24297e-06
1.87785e-07
-2.31215e-08
3.11553e-10
3.90798e-15
2.64662e-14
4.69225e-17
7.37166e-19
3.19031e-22
-3.89336e-05
-0.000231764
-7.55814e-05
-0.000191297
-4.1383e-05
-0.000148789
-0.000249969
-4.28176e-05
-0.000269009
-3.95917e-05
-0.000288092
-2.72993e-05
-0.000307073
-3.81883e-06
-0.000321561
3.42433e-05
-0.000317935
4.1474e-05
-0.00012886
7.08262e-06
-9.06368e-06
1.91502e-07
-3.45901e-08
3.90505e-10
2.12291e-13
4.03825e-14
1.13773e-16
1.14096e-18
8.60282e-22
-5.29888e-05
-0.000235914
-0.000114429
-0.000192916
-8.2606e-05
-0.000150074
-4.18289e-05
-0.00010696
-0.000256689
-5.51368e-05
-0.000278183
-4.95002e-05
-0.000300334
-3.40387e-05
-0.000322072
-3.09334e-06
-0.00032296
1.94951e-05
-0.000134904
4.96958e-06
-1.06614e-05
1.74401e-07
-4.80544e-08
4.46736e-10
9.25383e-13
5.79277e-14
2.5991e-16
1.73835e-18
2.1226e-21
-6.80361e-05
-0.000241642
-0.000154768
-0.000195575
-0.000124752
-0.000150771
-8.18273e-05
-0.000110076
-4.92927e-05
-5.76673e-05
-0.000264692
-6.86282e-05
-0.000289239
-6.05934e-05
-0.000314598
-3.89324e-05
-0.000319099
-1.68286e-06
-0.000137415
2.49235e-06
-1.11433e-05
1.25442e-07
-5.93192e-08
4.3542e-10
2.6961e-12
7.35552e-14
5.47973e-16
2.48124e-18
4.8835e-21
-8.46093e-05
-0.000248119
-0.000197705
-0.000198705
-0.000167446
-0.00015288
-0.000121764
-0.000110834
-9.19674e-05
-6.74009e-05
-5.5839e-05
-1.82835e-06
-0.000274574
-8.32841e-05
-0.000302844
-6.72566e-05
-0.000308119
-2.50382e-05
-0.000131311
-9.12357e-08
-1.07621e-05
5.08823e-08
-5.92821e-08
3.05071e-10
5.78725e-12
7.50381e-14
1.01899e-15
3.10916e-18
1.0234e-20
-0.00010286
-0.000256297
-0.000244224
-0.0002016
-0.000212014
-0.000154137
-0.000160074
-0.000114569
-0.000130015
-7.27862e-05
-9.92115e-05
-2.40284e-05
-0.000106153
0.000104324
-0.000288027
-9.03847e-05
-0.000292649
-3.85979e-05
-0.000114707
-2.09733e-06
-8.69741e-06
-1.49971e-08
-4.94965e-08
8.21044e-11
8.92895e-12
5.09515e-14
1.51935e-15
3.09012e-18
1.85763e-20
-0.000110998
-0.000269231
-0.000294631
-0.000205615
-0.000259271
-0.000154342
-0.000198251
-0.000115961
-0.000160025
-8.45598e-05
-0.000131576
-4.0422e-05
-0.000185607
5.54262e-05
-0.000125163
0.000229488
-0.00027541
-4.41401e-05
-9.18871e-05
-2.70714e-06
-5.93939e-06
-3.66705e-08
-3.33875e-08
-3.25649e-11
9.03437e-12
1.08069e-14
1.73859e-15
2.01051e-18
2.65442e-20
-4.60907e-05
-0.000254793
-0.000304952
-0.000217522
-0.00030821
-0.00015566
-0.000237249
-0.000115341
-0.000185286
-9.06997e-05
-0.000153698
-6.24371e-05
-0.000229685
3.65563e-06
-0.000227646
0.000157909
-0.000187998
0.000417485
-6.90506e-05
-2.47178e-06
-3.80845e-06
-3.41488e-08
-1.99728e-08
-5.16309e-11
5.24516e-12
-2.80062e-15
1.20564e-15
4.11046e-19
3.0302e-20
-2.09492e-06
-4.91715e-05
-9.37628e-05
-0.00018228
-0.000290643
-0.000168609
-0.000274674
-0.000116091
-0.000208486
-9.21328e-05
-0.000169373
-7.50252e-05
-0.000234013
-5.8109e-05
-0.000274503
5.05125e-05
-0.000328197
0.000298109
-8.33234e-05
0.000500809
-2.39193e-06
-2.44792e-08
-1.09129e-08
-4.36584e-11
2.21298e-12
-3.78102e-15
5.8249e-16
-1.10963e-19
2.00566e-20
-1.7725e-08
-1.41847e-06
-3.50193e-06
-1.59439e-05
-5.08449e-05
-0.000114441
-0.000234043
-0.000127783
-0.000227289
-9.40841e-05
-0.000177815
-8.3673e-05
-0.000215799
-9.32398e-05
-0.000275808
-5.68041e-05
-0.000415078
0.000137393
-0.000215583
0.000430369
0.000170588
0.00033022
-5.50121e-09
-2.90306e-11
7.51937e-13
-3.02516e-15
2.80602e-16
-1.39001e-19
8.91027e-21
-1.80694e-11
-2.51609e-09
-2.71639e-08
-3.34209e-07
-1.32145e-06
-3.24736e-06
-2.46719e-05
-6.56011e-05
-0.000173709
-0.000100644
-0.000177857
-9.02173e-05
-0.000188476
-0.000110954
-0.000240699
-0.000128349
-0.000405863
-6.60191e-05
-0.000327122
0.000248932
0.00023274
0.000368217
0.00140239
0.000485484
-0.00155765
3.40312e-13
-1.98385e-15
1.26955e-16
-1.06669e-19
4.17268e-21
-1.1899e-15
1.79579e-13
-1.77686e-11
-6.612e-10
-8.53711e-09
-7.55071e-08
-4.74144e-07
2.71201e-07
-1.22803e-05
-3.76996e-05
-0.000120134
-8.98003e-05
-0.000154733
-0.000119342
-0.000185328
-0.000166263
-0.00033278
-0.000201431
-0.00032523
-6.79118e-05
0.000209265
0.000272406
0.00127865
0.000491963
0.00178687
0.000598596
-0.00189998
0.000309591
-0.00186723
6.03311e-17
-6.82783e-20
1.83907e-21
-4.12674e-20
2.88691e-17
-7.95615e-16
-4.51574e-14
-5.39503e-12
-2.13003e-10
-2.34939e-09
-2.30743e-08
-1.91754e-07
1.05111e-06
-6.40592e-06
-2.32828e-05
-8.34573e-05
-0.000104882
-0.000124398
-0.000175713
-0.000228209
-0.000270761
-0.000265038
-0.000261623
0.000109749
3.16045e-05
0.00117436
0.000376692
0.0016197
0.000659134
0.0018261
0.00076928
-0.00199678
0.000457335
-0.00204773
0.00023023
-0.00209745
8.59354e-22
3.86175e-22
-2.46956e-20
9.56162e-19
-2.29061e-16
-3.8769e-14
-1.34811e-12
-8.64609e-11
-7.27277e-10
-1.00452e-08
-8.92519e-08
1.23094e-06
-3.35888e-06
-2.01295e-05
-5.30939e-05
-0.000133731
-0.000128489
-0.000270959
-0.000180108
-0.000355682
5.82312e-05
-0.000210105
0.00100435
0.000201617
0.00140513
0.00059127
0.00165551
0.000829724
0.00184429
0.00102277
-0.00209778
0.000645381
-0.00218484
0.000382812
-0.00220032
0.000152333
-0.00224981
1.1503e-23
-7.32079e-21
-5.30072e-19
-5.36637e-17
-1.6346e-14
-3.48063e-13
-3.93882e-11
-2.61733e-10
-5.08564e-09
-4.53965e-08
1.32772e-06
-1.62009e-06
-2.09078e-05
-4.33145e-05
-0.000181346
-0.000106235
-0.00034345
8.00563e-05
-0.000377508
0.000808766
-1.45243e-05
0.00118696
0.00041978
0.00142811
0.000818681
0.00157594
0.00109808
0.00186695
0.00125773
-0.00210192
0.000825683
-0.00227808
0.000506163
-0.00230819
0.000258359
-0.00230635
9.48435e-05
-0.00234466
-6.13328e-24
-1.6426e-21
-3.13255e-19
-1.28096e-17
-6.03439e-15
-9.86649e-14
-1.86282e-11
-1.02777e-10
-2.09988e-09
-2.84633e-08
1.62726e-06
-7.3636e-07
-2.79038e-05
-4.29547e-05
-0.000221716
5.63535e-05
-0.000319751
0.00057391
-0.000142652
0.000940851
0.000231586
0.00116409
0.000683795
0.00133256
0.00106206
0.00157492
0.00139011
0.00176181
0.00145636
-0.00196043
0.000951245
-0.00222748
0.000584069
-0.00235599
0.000352674
-0.00240251
0.000192773
-0.00240428
5.03759e-05
-0.00239504
-3.70378e-24
-3.72177e-22
-1.21251e-19
-3.27653e-18
-2.09913e-15
-2.8929e-14
-8.08213e-12
-4.56825e-11
-6.7924e-10
-1.58424e-08
1.67136e-06
-7.01229e-07
-3.28233e-05
-1.85421e-05
-0.000156253
0.000315958
-6.18002e-05
0.000585038
0.00021316
0.000852073
0.000543601
0.00106546
0.000950895
0.00123016
0.00140682
0.00146651
0.00168541
0.00163674
0.000389788
-0.00178844
0.000389915
0.000414184
0.000414388
0.000982228
-0.00199144
0.00059537
-0.00223878
0.000404978
-0.00240829
0.000236541
-0.00244627
8.58144e-05
-0.00243972
9.10203e-06
-0.00240414
-1.3294e-24
-8.70009e-23
-4.16453e-20
-8.35454e-19
-7.03683e-16
-8.82204e-15
-3.64371e-12
-1.74703e-11
-1.96004e-10
-8.54099e-09
1.40744e-06
-9.47375e-07
-2.0909e-05
6.32981e-05
9.0706e-05
0.000270587
0.000252651
0.000535711
0.000529522
0.000822155
0.000786902
0.000887271
0.00129379
0.00119407
0.00167927
0.00131298
0.00200921
-2.05831e-07
0.000378199
-0.000399372
0.000411236
0.000280213
-0.00187606
0.000280061
0.000254909
0.000254634
0.000380537
-0.000399342
0.000408585
-1.68645e-07
0.000336107
0.000456519
0.000340167
0.000454663
0.00057351
-0.00196965
0.000367222
-0.00220103
0.000206917
-0.00237867
8.56813e-05
-0.00244614
-4.55361e-06
-0.00242606
-4.51204e-05
-0.00235902
-4.00685e-25
-1.94031e-23
-1.36406e-20
-2.12451e-19
-2.78958e-16
-2.2746e-15
-1.43719e-12
-6.04866e-12
-3.06902e-10
-3.80185e-09
8.8837e-07
-7.48933e-07
4.55914e-05
7.37734e-05
0.000269196
0.000267052
0.000521311
0.000593642
0.000758036
0.000556096
0.00111808
0.000913943
0.00157391
0.000993352
0.00199889
-0.000300093
-0.000300644
0.00097542
0.000569203
0.00056678
0.000587859
0.000587117
-5.44129e-07
-0.000442179
0.000323608
-3.50923e-08
0.000333174
-0.000371226
0.000449469
-0.00191812
0.000614692
-0.000441593
0.000321817
-3.94985e-07
-0.000464598
0.000277727
-0.000463684
0.000276334
0.00033188
-0.00037023
0.000447045
1.82162e-07
0.000489555
0.000486219
0.000241442
-0.00184395
0.000104538
-0.00209865
4.9083e-06
-0.0022979
-6.98049e-05
-0.00238089
-0.000102265
-0.00236892
-7.41319e-05
-0.00228489
-1.09593e-25
-4.12496e-24
-5.04694e-21
-4.64379e-20
-1.05093e-16
-4.86842e-16
-6.96333e-13
-1.70323e-12
-2.65204e-10
-9.06435e-10
5.16257e-07
-3.14937e-07
8.98672e-05
8.71103e-05
0.000433214
0.000355512
0.000759441
0.000329201
0.000984931
0.000601893
0.00143012
0.000709987
0.00185728
0.000720817
0.000572536
0.000570461
0.000557486
0.000553015
2.16353e-07
0.00016809
-0.000196632
0.000597672
0.000168637
-0.000197245
0.000595751
-3.38192e-07
0.00015511
0.0006012
0.000154793
0.000600642
-1.8757e-07
-0.000417726
0.000370388
9.96625e-07
0.000252263
-0.000296212
0.000136294
0.000109656
0.000124793
0.000121677
-0.00183008
0.000150903
0.000446621
0.000445464
-0.00200549
0.000178984
0.000178939
0.000220882
0.000220379
-0.000416826
0.00036831
-9.71839e-08
0.000306741
0.000304885
0.000252634
-0.000296208
0.000135572
0.000110606
0.000124398
0.000121041
8.99969e-07
0.000146433
0.000124292
0.000147136
0.000126861
0.000145572
0.000125031
0.000146135
0.000126222
6.18936e-06
-0.00174563
-0.000103195
-0.00199054
-0.000211434
-0.00215627
-0.000216137
-0.00226702
-0.000163922
-0.00227913
-0.000110003
-0.00217488
-2.97742e-26
-6.99913e-25
-2.15395e-21
-9.13689e-21
-3.72827e-17
-7.19157e-17
-3.25794e-13
-2.02618e-13
-1.8767e-10
-2.69982e-10
4.6009e-07
-2.14276e-07
0.000130161
0.000102113
0.000667035
0.000177649
0.000910958
0.000335953
0.00125087
0.000433673
0.00170644
0.000545242
0.000502031
0.000500106
0.000516014
0.000514699
-2.90434e-07
0.000129182
0.000598754
0.000127736
0.000597227
-2.52891e-07
0.000104389
0.000582532
0.000101429
0.000579068
4.55188e-07
8.2254e-05
-4.35849e-05
-2.8233e-05
0.00013511
-3.18577e-05
0.00018007
0.000137046
0.000181261
-1.46967e-05
8.17222e-05
-4.35801e-05
-2.80836e-05
-3.15308e-05
0.000135801
0.000179325
0.000136689
0.000180535
-1.45151e-05
7.92315e-07
5.38427e-05
0.000133838
0.000173911
0.000138252
0.000182877
5.4364e-05
0.000133992
0.000173575
0.000138599
0.000182653
7.27054e-07
-0.000339421
0.000109011
9.71729e-05
0.000112847
9.3799e-05
-5.20688e-05
7.38323e-06
2.40905e-07
4.63881e-05
0.000134426
-6.18007e-06
4.90497e-05
-5.17215e-05
0.000118538
1.13549e-07
-5.52666e-05
0.000121902
4.68912e-05
0.000131239
-0.0016674
-0.000156824
-0.00191653
-1.71197e-05
-1.50917e-05
4.61484e-05
4.73565e-05
-3.85167e-07
0.000358252
-0.000345388
0.000166609
0.000358766
-0.000346207
0.000166122
-1.03299e-07
0.000359177
0.000220084
0.000360008
0.000219077
-0.000338972
0.000108505
9.76005e-05
0.000112242
9.34149e-05
4.63865e-07
9.49327e-05
6.67217e-05
8.45172e-05
7.98777e-05
9.44755e-05
6.79828e-05
8.42375e-05
7.97019e-05
-5.20021e-05
7.38719e-06
4.63674e-05
0.000134135
-5.85635e-06
4.91714e-05
-5.15498e-05
0.000118867
-5.50733e-05
0.000121927
4.69172e-05
0.000130704
4.14289e-05
7.70943e-06
2.56514e-07
0.000143426
-1.28186e-05
-4.44254e-05
0.000138022
1.70881e-07
0.000147345
0.000137099
4.14756e-05
7.72396e-06
0.000142996
-1.24632e-05
-4.44245e-05
0.000138411
0.000147235
0.000136498
-0.00022789
-0.00162093
-0.000387655
-0.00181432
-0.000429836
-0.00194257
-0.000318906
-0.00211203
-0.000233905
-0.00215523
-0.000143589
-0.00203129
-8.16082e-27
-8.82797e-26
-1.03557e-21
-1.03948e-21
-1.34218e-17
-2.42078e-18
-1.01179e-13
-4.5964e-14
-8.20079e-11
-8.71635e-11
3.93224e-07
-3.26502e-07
0.00016262
2.81391e-06
0.00079205
0.000112303
0.00113446
0.000193323
0.00149122
0.000341402
0.00047066
0.000470691
0.000485348
0.000483574
9.47917e-08
6.97899e-05
0.000536535
6.82482e-05
0.000533382
1.11855e-07
5.70529e-05
0.000528639
5.78652e-05
0.000525193
9.29923e-07
4.11436e-05
0.000133751
0.000171993
0.000131597
0.000173218
4.1182e-05
0.000134222
0.000171582
0.000132884
0.000172662
1.27802e-06
2.04694e-05
0.000128907
0.000171348
0.000128414
0.000173253
1.89299e-05
0.000129948
0.000170518
0.0001296
0.000172512
-4.52244e-06
2.89742e-06
-1.75306e-05
0.000154303
-5.46201e-06
-2.83752e-05
0.000140079
-2.54377e-06
6.37554e-08
0.000183827
-5.83365e-06
-4.89688e-06
-4.85793e-08
0.000144899
-1.14387e-08
1.85732e-06
0.000171958
7.0266e-08
-2.39173e-05
0.000151051
-5.68978e-06
-2.79466e-05
0.000140593
-4.71593e-06
3.23289e-06
-1.78642e-05
0.000155189
-2.81409e-06
-5.77672e-06
0.000183264
-4.63427e-06
3.8829e-07
0.000144183
1.55576e-06
0.000171519
-2.37566e-05
0.000150857
-8.01296e-06
3.94452e-06
-4.51405e-06
0.000142421
-1.26926e-06
1.69545e-07
-5.80687e-07
0.000167579
-5.66308e-06
0.000147812
7.98016e-08
0.00017769
-7.93476e-06
3.85628e-06
-4.56313e-06
0.000142636
-1.17785e-06
-4.40274e-07
0.000167428
-5.50957e-06
0.000148356
0.000177601
6.04172e-05
6.86015e-06
6.53111e-08
-6.60255e-05
0.000107697
-5.46572e-06
-5.86706e-05
0.000109591
3.08824e-08
0.000112504
-6.32205e-05
0.000105212
-3.65848e-05
1.49189e-06
-6.69035e-08
2.979e-05
0.000139844
-7.78455e-07
3.53471e-05
-3.91135e-05
0.000123122
-8.84151e-08
-4.04126e-05
0.000125218
3.08244e-05
0.000137298
-0.00149286
-0.00040241
-0.00164195
-0.000128656
-0.000129499
-8.81745e-05
-8.70485e-05
8.85238e-08
0.00034318
-0.000324432
-3.53739e-05
0.000344242
-0.000325089
-3.36091e-05
-5.27604e-08
4.42614e-05
4.56669e-05
-3.43009e-07
0.000261842
-0.000277698
3.38727e-05
5.3842e-05
3.8523e-05
5.67387e-05
0.000262089
-0.000278234
3.37031e-05
5.35989e-05
3.82759e-05
5.64866e-05
-2.54291e-07
5.74749e-05
7.80141e-05
5.5073e-05
4.46958e-05
7.17087e-05
4.68605e-05
6.42029e-05
6.42665e-05
5.73643e-05
7.78547e-05
5.48222e-05
4.46928e-05
7.14616e-05
4.66165e-05
6.39534e-05
6.4249e-05
6.03246e-05
6.69757e-06
-6.59515e-05
0.000107502
-5.08799e-06
-5.84204e-05
0.000109562
0.000112442
-6.31377e-05
0.000104832
-7.1027e-05
7.96351e-06
7.52428e-08
9.18979e-05
-1.32267e-05
6.42515e-05
7.31769e-05
6.44932e-08
7.82224e-05
8.88746e-05
-7.10191e-05
7.79063e-06
9.18299e-05
-1.28058e-05
6.44714e-05
7.36991e-05
7.83262e-05
8.88284e-05
-3.64039e-05
1.30921e-06
2.95724e-05
0.000139641
-5.64101e-07
3.49206e-05
-3.88711e-05
0.000123416
-4.02909e-05
0.000125323
3.03079e-05
0.00013667
2.7378e-06
-3.51455e-09
0.000146545
0.000142353
2.66708e-06
0.000146142
0.000141594
-0.000535763
-0.00147282
-0.000708116
-0.00153604
-0.00057788
-0.00168359
-0.000426083
-0.00191986
-0.000300438
-0.00199838
-0.000196547
-0.00183474
-1.78935e-27
-3.21624e-28
-5.55846e-22
1.65921e-21
-4.55777e-18
7.15238e-18
-2.84575e-14
-7.18815e-15
-2.05138e-11
-1.50497e-11
1.4751e-07
-1.79983e-07
0.000116464
-1.30155e-05
0.000836178
-7.47663e-07
0.00132572
0.000108091
0.000422557
0.000420654
0.000440682
0.00044059
1.24039e-07
4.669e-05
0.000480899
4.78378e-05
0.000480843
2.00256e-08
3.23215e-05
0.000499697
3.27386e-05
0.000498693
1.65302e-06
1.3718e-05
0.000114302
0.000153694
0.000118579
0.000155022
1.24868e-05
0.000115068
0.000152694
0.000119299
0.000154425
1.7878e-06
9.31266e-06
0.000121093
0.000143261
0.000117823
0.000149109
6.67407e-06
0.000122357
0.000142906
0.000118803
0.000148754
-8.41728e-06
-6.96213e-06
0.000144617
-3.47954e-06
5.18655e-08
0.000166407
-7.78764e-06
-8.55837e-06
0.000140976
-6.29019e-08
-1.70368e-06
0.000163681
-8.34311e-06
-7.20596e-06
0.000145208
-3.3579e-06
0.000166208
-7.51847e-06
-8.97853e-06
0.000142175
-1.81439e-06
0.000163548
-9.72144e-06
9.28879e-06
-9.56592e-06
0.00013891
9.53096e-07
9.4389e-08
-2.65496e-06
0.000163212
-7.81902e-06
0.000136968
-1.00603e-07
0.000164803
-9.60903e-06
9.87111e-06
-9.96065e-06
0.000139646
1.45042e-06
-3.17367e-06
0.000162718
-7.59407e-06
0.000138087
0.000164443
-1.99632e-06
-8.93927e-06
2.49315e-08
-2.52671e-05
-3.13976e-05
-3.49568e-09
-1.7609e-08
-3.44443e-06
2.28798e-07
-8.70446e-06
-3.01761e-08
-8.43613e-06
-2.10738e-06
-8.86662e-06
2.37524e-08
-2.52441e-05
-3.43985e-06
-3.14674e-05
2.63698e-07
-8.83296e-06
-8.62048e-06
2.23907e-08
6.53651e-06
-8.84255e-06
4.20347e-06
3.30297e-08
-6.16559e-06
-1.66948e-07
-7.32202e-09
5.11383e-08
6.41879e-06
-8.95204e-06
4.26546e-06
-6.1238e-06
-1.14801e-07
4.49802e-05
1.38016e-06
-8.58872e-08
-5.12485e-05
0.00011266
-8.27107e-07
-4.36647e-05
0.000114982
-9.0765e-08
0.0001165
-4.82983e-05
0.000111236
-1.0751e-05
3.83993e-07
-4.94124e-08
6.6226e-06
-7.93991e-08
1.04182e-05
-1.234e-05
-5.21699e-08
-1.25895e-05
7.26083e-06
-0.00128411
-0.00074446
-0.00135181
-0.000192495
-0.000195575
-0.000150718
-0.000152865
1.14649e-07
0.000301247
-0.000271945
-0.000158068
0.000301027
-0.000271994
-0.000158422
3.22879e-07
-0.000111434
-0.00011057
9.39694e-07
0.000309998
-0.000321533
-2.7012e-05
8.9356e-07
-1.23187e-05
1.37049e-05
0.000311325
-0.000323245
-2.52027e-05
1.18709e-06
-1.0655e-05
1.3952e-05
3.44127e-08
1.20266e-05
3.31204e-05
4.08412e-06
2.73744e-05
1.27486e-05
3.32966e-05
5.19776e-06
2.76207e-05
-6.66151e-06
4.16179e-05
-3.53169e-05
3.42557e-05
4.93579e-05
-3.25976e-07
-4.45198e-05
4.2616e-05
-6.62638e-06
3.85925e-05
4.82011e-05
-2.77038e-07
4.51529e-05
5.45944e-05
-6.07292e-06
4.22363e-05
-3.65003e-05
3.40616e-05
4.95686e-05
-4.48734e-05
4.25048e-05
-6.13834e-06
3.89631e-05
4.77115e-05
4.52795e-05
5.43603e-05
-4.86332e-06
-3.44215e-05
2.62332e-05
6.81521e-05
-6.98949e-06
4.89303e-05
7.59557e-05
-3.86597e-05
-1.66766e-07
7.50435e-05
3.06574e-05
-6.46829e-06
5.75233e-05
-2.08144e-07
6.44556e-05
-8.9842e-08
5.53909e-05
8.02317e-05
-4.50302e-06