/*--------------------------------*- C++ -*----------------------------------*\
| =========                 |                                                 |
| \\      /  F ield         | OpenFOAM: The Open Source CFD Toolbox           |
|  \\    /   O peration     | Version:  5.x                                   |
|   \\  /    A nd           | Web:      www.OpenFOAM.org                      |
|    \\/     M anipulation  |                                                 |
\*---------------------------------------------------------------------------*/
FoamFile
{
    version     2.0;
    format      ascii;
    class       volScalarField;
    location    "1.5";
    object      k;
}
// * * * * * * * * * * * * * * * * * * * * * * * * * * * * * * * * * * * * * //

dimensions      [0 2 -2 0 0 0 0];

internalField   nonuniform List<scalar> 
12160
(
9.95603e-09
9.92772e-09
1.00212e-08
9.91282e-09
1.00496e-08
1.00078e-08
9.90647e-09
1.00799e-08
1.00159e-08
1.00069e-08
9.90424e-09
1.00945e-08
1.00238e-08
1.00126e-08
1.00069e-08
9.90373e-09
1.00883e-08
1.0028e-08
1.00165e-08
1.00123e-08
1.00077e-08
9.90392e-09
1.0082e-08
1.00274e-08
1.00182e-08
1.00155e-08
1.00137e-08
1.00081e-08
9.90418e-09
1.00772e-08
1.00254e-08
1.00182e-08
1.00167e-08
1.00166e-08
1.00153e-08
1.00113e-08
9.90442e-09
1.00711e-08
1.00234e-08
1.00175e-08
1.00169e-08
1.00173e-08
1.00184e-08
1.00207e-08
1.007e-08
9.90439e-09
1.00672e-08
1.00219e-08
1.00169e-08
1.00166e-08
1.00174e-08
1.00189e-08
1.00222e-08
1.00654e-08
1.00753e-08
9.90409e-09
1.00626e-08
1.00209e-08
1.00164e-08
1.00162e-08
1.00171e-08
1.00186e-08
1.00219e-08
1.00551e-08
1.00707e-08
1.01167e-08
9.90368e-09
1.00578e-08
1.00201e-08
1.0016e-08
1.00158e-08
1.00167e-08
1.00181e-08
1.00224e-08
1.00485e-08
1.00693e-08
1.00735e-08
1.01102e-08
9.90336e-09
1.00532e-08
1.00195e-08
1.00156e-08
1.00155e-08
1.00163e-08
1.00176e-08
1.00237e-08
1.00462e-08
1.00718e-08
1.00819e-08
1.00496e-08
1.00552e-08
9.90329e-09
1.00488e-08
1.00189e-08
1.00153e-08
1.00151e-08
1.0016e-08
1.00173e-08
1.00248e-08
1.00462e-08
1.00671e-08
1.00829e-08
1.00375e-08
1.00292e-08
1.0042e-08
9.90329e-09
1.00443e-08
1.00185e-08
1.0015e-08
1.00148e-08
1.00156e-08
1.0017e-08
1.00255e-08
1.00468e-08
1.00627e-08
1.00892e-08
1.00408e-08
1.00232e-08
1.00225e-08
1.00278e-08
9.90329e-09
1.00399e-08
1.00181e-08
1.00148e-08
1.00146e-08
1.00153e-08
1.00165e-08
1.00257e-08
1.00468e-08
1.00596e-08
1.00912e-08
1.00532e-08
1.00226e-08
1.00199e-08
1.00107e-08
9.90329e-09
1.00358e-08
1.00176e-08
1.00146e-08
1.00143e-08
1.00149e-08
1.00159e-08
1.00252e-08
1.00455e-08
1.0057e-08
1.0089e-08
1.00629e-08
1.00227e-08
1.00173e-08
1.00124e-08
9.90329e-09
1.00322e-08
1.0017e-08
1.00143e-08
1.00141e-08
1.00146e-08
1.00153e-08
1.00242e-08
1.00432e-08
1.0054e-08
1.00849e-08
1.00692e-08
1.00227e-08
1.00169e-08
1.00096e-08
9.90329e-09
1.00288e-08
1.00164e-08
1.00141e-08
1.00139e-08
1.00143e-08
1.00147e-08
1.0023e-08
1.00404e-08
1.00503e-08
1.00802e-08
1.00712e-08
1.00235e-08
1.00164e-08
1.00099e-08
9.90329e-09
1.0026e-08
1.00156e-08
1.00138e-08
1.00137e-08
1.00141e-08
1.00143e-08
1.00219e-08
1.00374e-08
1.00458e-08
1.0075e-08
1.00715e-08
1.00243e-08
1.00164e-08
1.00094e-08
9.90329e-09
1.00236e-08
1.00148e-08
1.00134e-08
1.00134e-08
1.00139e-08
1.0014e-08
1.00211e-08
1.00345e-08
1.0041e-08
1.00693e-08
1.00711e-08
1.00252e-08
1.00163e-08
1.00095e-08
9.90329e-09
1.00217e-08
1.00141e-08
1.00129e-08
1.0013e-08
1.00136e-08
1.00138e-08
1.00206e-08
1.00317e-08
1.00365e-08
1.00629e-08
1.00701e-08
1.00261e-08
1.00163e-08
1.00096e-08
9.90329e-09
1.00202e-08
1.00135e-08
1.00124e-08
1.00126e-08
1.00132e-08
1.00135e-08
1.00201e-08
1.00292e-08
1.0033e-08
1.00564e-08
1.00683e-08
1.00269e-08
1.00165e-08
1.00099e-08
9.90329e-09
1.00193e-08
1.0013e-08
1.0012e-08
1.00121e-08
1.00127e-08
1.00131e-08
1.00196e-08
1.0027e-08
1.00307e-08
1.00503e-08
1.00646e-08
1.00277e-08
1.00168e-08
1.00104e-08
9.90329e-09
1.00188e-08
1.00126e-08
1.00116e-08
1.00117e-08
1.00122e-08
1.00126e-08
1.0019e-08
1.00251e-08
1.00287e-08
1.00451e-08
1.00584e-08
1.00281e-08
1.00171e-08
1.00113e-08
9.90329e-09
1.00189e-08
1.00123e-08
1.00113e-08
1.00113e-08
1.00118e-08
1.00121e-08
1.00184e-08
1.00234e-08
1.0027e-08
1.00406e-08
1.00499e-08
1.00279e-08
1.00172e-08
1.00125e-08
9.90329e-09
1.00194e-08
1.00123e-08
1.00111e-08
1.00109e-08
1.00114e-08
1.00117e-08
1.00175e-08
1.00217e-08
1.00255e-08
1.00365e-08
1.00419e-08
1.00269e-08
1.00172e-08
1.00136e-08
9.90329e-09
1.00204e-08
1.00125e-08
1.0011e-08
1.00107e-08
1.0011e-08
1.00112e-08
1.00164e-08
1.00201e-08
1.00241e-08
1.00326e-08
1.0035e-08
1.00248e-08
1.00171e-08
1.00143e-08
9.90329e-09
1.00217e-08
1.00128e-08
1.00111e-08
1.00106e-08
1.00107e-08
1.00106e-08
1.00151e-08
1.00187e-08
1.00227e-08
1.00289e-08
1.00292e-08
1.00222e-08
1.00166e-08
1.00143e-08
9.90329e-09
1.00234e-08
1.00133e-08
1.00114e-08
1.00107e-08
1.00107e-08
1.001e-08
1.00136e-08
1.00175e-08
1.00213e-08
1.00254e-08
1.00247e-08
1.00198e-08
1.00158e-08
1.0014e-08
9.90329e-09
1.00255e-08
1.00139e-08
1.00117e-08
1.0011e-08
1.00108e-08
1.00097e-08
1.0012e-08
1.00165e-08
1.00199e-08
1.00224e-08
1.00214e-08
1.00179e-08
1.00151e-08
1.00137e-08
9.90329e-09
1.00279e-08
1.00145e-08
1.0012e-08
1.00113e-08
1.00111e-08
1.00102e-08
1.00113e-08
1.00156e-08
1.00184e-08
1.00197e-08
1.00188e-08
1.00164e-08
1.00144e-08
1.00134e-08
9.90329e-09
1.00305e-08
1.00151e-08
1.00124e-08
1.00117e-08
1.00114e-08
1.00108e-08
1.00123e-08
1.00151e-08
1.0017e-08
1.00175e-08
1.00168e-08
1.00152e-08
1.00139e-08
1.00132e-08
9.90329e-09
1.00335e-08
1.00158e-08
1.00128e-08
1.0012e-08
1.00118e-08
1.00112e-08
1.00135e-08
1.00156e-08
1.00163e-08
1.00157e-08
1.00152e-08
1.00143e-08
1.00134e-08
1.00128e-08
9.9033e-09
1.00366e-08
1.00164e-08
1.00132e-08
1.00124e-08
1.00121e-08
1.00117e-08
1.00147e-08
1.00164e-08
1.00171e-08
1.00151e-08
1.00139e-08
1.00134e-08
1.0013e-08
1.00123e-08
9.90331e-09
1.00399e-08
1.0017e-08
1.00135e-08
1.00127e-08
1.00125e-08
1.00121e-08
1.00157e-08
1.00175e-08
1.00184e-08
1.00163e-08
1.00135e-08
1.00127e-08
1.00125e-08
1.00121e-08
9.90348e-09
1.00433e-08
1.00176e-08
1.00138e-08
1.0013e-08
1.00129e-08
1.00124e-08
1.00165e-08
1.00187e-08
1.00197e-08
1.00183e-08
1.00143e-08
1.00123e-08
1.00119e-08
1.00118e-08
9.9039e-09
1.00468e-08
1.0018e-08
1.00141e-08
1.00133e-08
1.00132e-08
1.00128e-08
1.00171e-08
1.002e-08
1.0021e-08
1.00207e-08
1.00157e-08
1.00126e-08
1.00115e-08
1.00112e-08
9.90457e-09
1.00504e-08
1.00185e-08
1.00144e-08
1.00136e-08
1.00135e-08
1.00132e-08
1.00176e-08
1.00212e-08
1.00222e-08
1.00233e-08
1.00177e-08
1.00133e-08
1.00115e-08
1.00106e-08
9.90559e-09
1.00541e-08
1.0019e-08
1.00147e-08
1.00139e-08
1.00138e-08
1.00135e-08
1.0018e-08
1.00224e-08
1.00232e-08
1.00259e-08
1.00201e-08
1.00144e-08
1.00119e-08
1.00105e-08
1.00578e-08
9.90712e-09
1.00196e-08
1.00149e-08
1.00141e-08
1.00141e-08
1.00138e-08
1.00184e-08
1.00236e-08
1.00243e-08
1.00284e-08
1.00231e-08
1.00157e-08
1.00126e-08
1.00109e-08
1.00202e-08
1.0061e-08
9.91021e-09
1.00152e-08
1.00144e-08
1.00144e-08
1.00141e-08
1.00188e-08
1.00249e-08
1.00254e-08
1.00307e-08
1.00266e-08
1.00173e-08
1.00133e-08
1.00113e-08
1.00156e-08
1.00207e-08
1.00692e-08
9.91485e-09
1.00147e-08
1.00147e-08
1.00145e-08
1.00193e-08
1.00263e-08
1.00268e-08
1.00331e-08
1.00306e-08
1.00191e-08
1.00141e-08
1.0012e-08
1.0015e-08
1.00159e-08
1.00225e-08
1.00808e-08
9.92363e-09
1.00151e-08
1.00149e-08
1.00198e-08
1.0028e-08
1.00285e-08
1.00357e-08
1.00351e-08
1.00211e-08
1.00149e-08
1.00127e-08
1.00155e-08
1.00154e-08
1.0017e-08
1.00259e-08
1.01015e-08
9.93961e-09
1.00155e-08
1.00205e-08
1.00299e-08
1.00303e-08
1.00386e-08
1.00401e-08
1.00232e-08
1.00157e-08
1.00133e-08
1.00162e-08
1.00159e-08
1.00163e-08
1.00189e-08
1.00338e-08
1.01421e-08
9.98298e-09
1.00215e-08
1.00319e-08
1.00325e-08
1.00419e-08
1.00459e-08
1.00253e-08
1.00163e-08
1.00136e-08
1.00227e-08
1.00171e-08
1.00169e-08
1.00177e-08
1.00232e-08
1.00523e-08
1.02091e-08
1.00318e-08
1.00338e-08
1.00349e-08
1.00458e-08
1.00524e-08
1.00271e-08
1.00168e-08
1.00138e-08
1.00355e-08
1.00241e-08
1.00189e-08
1.00182e-08
1.002e-08
1.00336e-08
1.00878e-08
1.0326e-08
1.01275e-08
1.00375e-08
1.005e-08
1.0058e-08
1.00285e-08
1.00171e-08
1.00139e-08
1.00404e-08
1.00369e-08
1.00267e-08
1.00205e-08
1.00196e-08
1.00251e-08
1.00571e-08
1.01534e-08
1.03577e-08
1.01363e-08
1.00542e-08
1.00625e-08
1.00296e-08
1.00172e-08
1.0014e-08
1.00582e-08
1.00435e-08
1.00398e-08
1.00286e-08
1.00217e-08
1.00218e-08
1.00383e-08
1.01061e-08
1.02251e-08
1.05331e-08
1.00614e-08
1.0066e-08
1.00305e-08
1.00175e-08
1.0014e-08
1.00673e-08
1.00612e-08
1.00497e-08
1.00419e-08
1.00295e-08
1.00225e-08
1.00275e-08
1.00726e-08
1.01882e-08
1.03701e-08
1.04771e-08
1.01162e-08
1.00311e-08
1.00179e-08
1.00138e-08
1.00309e-08
1.00638e-08
1.00654e-08
1.00542e-08
1.00429e-08
1.00293e-08
1.00242e-08
1.00459e-08
1.01449e-08
1.03232e-08
1.04918e-08
1.02128e-08
1.31398e-08
1.01821e-08
1.00182e-08
1.00134e-08
1.00179e-08
1.00274e-08
1.00589e-08
1.00659e-08
1.00563e-08
1.00429e-08
1.0029e-08
1.00311e-08
1.00944e-08
1.02629e-08
1.04612e-08
1.02856e-08
1.09013e-08
1.35961e-07
2.19802e-08
1.06615e-08
1.00127e-08
1.00117e-08
1.00162e-08
1.00246e-08
1.00526e-08
1.00647e-08
1.00567e-08
1.00424e-08
1.00304e-08
1.00528e-08
1.01889e-08
1.03781e-08
1.03168e-08
1.03894e-08
4.04851e-08
3.19516e-06
4.75851e-07
5.24219e-08
1.22106e-08
1.00097e-08
1.00147e-08
1.00216e-08
1.00475e-08
1.00628e-08
1.00559e-08
1.00423e-08
1.00361e-08
1.01038e-08
1.03104e-08
1.0341e-08
1.02802e-08
1.67538e-08
8.42536e-07
4.88241e-05
1.04781e-05
1.53458e-06
1.47338e-07
1.69541e-08
1.00078e-08
1.00133e-08
1.00194e-08
1.00428e-08
1.00602e-08
1.00541e-08
1.00437e-08
1.00471e-08
1.02061e-08
1.03385e-08
1.02346e-08
1.14408e-08
1.93217e-07
1.42156e-05
0.000608304
0.000143464
3.05246e-05
4.58423e-06
4.20546e-07
3.07137e-08
1.00066e-08
1.00124e-08
1.0018e-08
1.00378e-08
1.00556e-08
1.00515e-08
1.00457e-08
1.00764e-08
1.03125e-08
1.01887e-08
1.03827e-08
4.39559e-08
3.42684e-06
0.000182044
0.00437207
0.00165931
0.000369396
8.17209e-05
1.26285e-05
1.14639e-06
6.86819e-08
1.00059e-08
1.00119e-08
1.0017e-08
1.0032e-08
1.00494e-08
1.00483e-08
1.00494e-08
1.01886e-08
1.01448e-08
1.01796e-08
1.50889e-08
6.46524e-07
4.33333e-05
0.0013346
0.0388342
0.0108765
0.0387997
0.0142532
0.0142781
0.0037619
0.000849269
0.000201806
3.266e-05
2.9726e-06
1.68916e-07
1.00056e-08
1.00116e-08
1.00164e-08
1.00264e-08
1.0047e-08
1.00835e-08
1.01981e-08
1.01e-08
1.01254e-08
1.06733e-08
9.48542e-08
8.16219e-06
0.000301978
0.00432924
0.0932274
0.174338
0.0203314
0.0932247
0.114975
0.115079
0.17471
0.0434453
0.0434075
0.00697611
0.00181529
0.000472627
7.95053e-05
7.23339e-06
2.90658e-07
1.00055e-08
1.00113e-08
1.00156e-08
1.00331e-08
1.22329e-08
1.53867e-08
1.40924e-08
1.00845e-08
1.01525e-08
1.69185e-08
1.15688e-06
4.93973e-05
0.000593973
0.018268
0.0184079
0.00338624
0.00340148
0.417888
0.638716
0.0316617
0.0564621
0.418784
0.376304
0.377217
0.6401
0.159623
0.160289
0.0110465
0.00364898
0.0010466
0.000156334
1.11043e-05
3.8766e-07
1.00053e-08
1.00107e-08
1.00151e-08
1.13365e-08
2.70183e-07
2.30466e-07
1.43848e-07
1.02258e-08
1.04114e-08
1.13226e-07
5.56023e-06
6.7621e-05
0.000575449
0.000575893
0.000298524
0.000297232
0.0109667
0.0109822
0.00183371
0.00183482
0.662528
0.553115
1.25511
0.647739
1.20514
0.0407098
0.0752218
0.272195
0.272802
0.361219
0.362099
0.663956
0.546361
0.547734
0.553082
1.25976
0.648582
1.20255
0.162789
0.110502
0.0869556
0.310898
0.163256
0.111021
0.0871304
0.31146
0.0151603
0.0062689
0.00171789
0.000207659
1.27714e-05
3.94186e-07
1.0005e-08
1.00102e-08
1.00262e-08
9.1724e-08
9.75313e-06
6.7291e-06
6.53721e-06
4.40073e-07
1.55687e-08
3.78376e-07
6.01427e-06
4.98962e-05
4.91815e-05
3.03866e-05
3.02455e-05
0.000304517
0.000304786
0.000139038
0.00013805
0.00710471
0.0665579
0.00666303
0.00549198
0.00611305
0.049256
0.0663343
0.00712182
0.00664927
0.00548536
0.00610477
0.049153
0.00101541
0.00113045
0.00106498
0.00121252
0.00101556
0.0011302
0.00106817
0.00120796
0.641974
1.14359
0.675829
1.08613
0.451419
1.38326
0.645604
1.2024
0.0431971
0.0898303
0.22266
0.222779
0.205835
0.206028
0.229246
0.230089
0.317328
0.318664
0.641353
1.14289
0.675694
1.08154
0.521914
0.689058
0.438738
0.85636
0.522472
0.694766
0.440003
0.857668
0.450561
1.38583
0.645938
1.19813
0.118199
0.25939
0.117935
0.25697
0.0196814
0.00904219
0.00201005
0.000206521
1.08525e-05
3.71702e-07
1.00048e-08
1.00105e-08
1.16393e-08
2.73959e-06
0.000215868
0.00011704
8.4792e-05
1.23629e-05
5.4058e-06
1.13126e-06
1.43333e-05
1.44954e-05
4.21334e-05
4.27435e-05
2.29908e-05
2.24332e-05
0.000384009
0.000330507
0.000178392
0.000196596
0.0001727
0.000192515
0.000178773
0.000196575
0.000173362
0.000192408
0.000127278
9.36431e-05
8.73179e-05
9.06378e-05
0.000129325
9.29248e-05
8.719e-05
8.98733e-05
0.037506
0.0056337
0.00554514
0.0292328
0.0038354
0.00443105
0.037331
0.00564234
0.0291613
0.00552755
0.00381696
0.00441624
0.000728133
0.000831652
0.000789065
0.000936007
0.000728935
0.000831143
0.000790478
0.000932434
0.636657
1.27992
0.696556
1.13415
0.360821
1.38664
0.617178
1.06392
0.0470218
0.0917323
0.219552
0.219248
0.208985
0.208823
0.189116
0.189492
0.163196
0.163783
0.205899
0.147975
0.278322
0.179851
0.206368
0.148157
0.278141
0.180013
0.474874
0.655784
0.290969
0.376013
0.24352
0.396197
0.474365
0.659484
0.29127
0.37577
0.243797
0.397214
0.635433
1.27785
0.695746
1.12948
0.505005
0.880355
0.504899
0.879393
0.35963
1.38866
0.617408
1.05709
0.078855
0.170043
0.0786433
0.168069
0.0246428
0.00952962
0.00176892
0.000151721
7.57258e-06
4.32158e-07
1.00047e-08
1.01598e-08
1.20168e-07
5.48558e-05
0.00277966
0.000879703
0.000554499
0.00075581
0.000679571
0.000112964
0.000114205
0.000792599
0.00078362
0.0124281
0.0125313
0.0247035
0.024923
0.000520897
6.85679e-05
0.00539009
0.000913709
0.000551696
7.10005e-05
0.00569355
0.000935938
0.204043
0.0990448
0.0413858
0.0129637
0.207295
0.0995453
0.0427302
0.0130696
0.000341997
0.000163751
0.00179549
0.000282468
0.000348744
0.000163784
0.00180976
0.000282748
0.013301
0.00251124
0.00636076
0.000753089
0.0136242
0.00256762
0.00638112
0.000758703
0.638839
1.298
0.690407
1.1699
0.0506792
0.0971654
0.21938
0.219129
0.213874
0.213724
0.235215
0.23439
0.209881
0.209703
0.118435
0.100518
0.0946671
0.0930627
0.120358
0.0997096
0.097042
0.0924869
0.111202
0.09788
0.0958311
0.0926735
0.114814
0.0981509
0.0994843
0.0924867
0.159505
0.108537
0.258462
0.155475
0.159331
0.108443
0.256741
0.155175
0.672856
0.464805
0.273598
0.385038
0.367965
0.220019
0.674728
0.463712
0.273591
0.385488
0.366495
0.219838
0.636934
1.29432
0.689213
1.16242
0.494476
0.863735
0.494055
0.862358
0.0229558
0.00756114
0.00120054
8.25856e-05
5.83409e-06
6.94293e-07
1.00064e-08
2.22706e-08
4.32432e-06
0.000647242
0.0170091
0.00476666
0.00913304
0.00806971
0.0138234
0.0416078
0.0420067
0.0605442
0.0610095
0.651171
0.65141
0.648595
0.649716
0.0751395
0.0156047
0.43842
0.0962658
0.077519
0.0160908
0.452044
0.0987726
1.16643
0.492336
1.18002
0.374843
1.17661
0.494782
1.19328
0.378312
0.23103
0.0558624
0.233188
0.0563215
0.042473
0.0926237
0.226142
0.226656
0.235318
0.234975
0.278049
0.277195
0.250955
0.250428
0.286524
0.198407
0.250127
0.16688
0.282842
0.197613
0.24784
0.165799
0.156078
0.118666
0.205851
0.141235
0.157677
0.117954
0.205716
0.140412
0.0906329
0.0672286
0.071265
0.0560333
0.0911259
0.0673097
0.0717644
0.0561038
0.078788
0.0620122
0.0662213
0.0541402
0.0812799
0.0624207
0.0679823
0.0544059
0.0176216
0.00507298
0.00054644
4.31911e-05
6.80415e-06
1.1851e-06
1.02908e-08
6.03558e-07
9.74219e-05
0.00490097
0.0479376
0.0472458
0.0275202
0.0317667
0.497627
0.497836
0.50553
0.506027
0.54391
0.544263
0.521412
0.522101
0.704321
1.20828
0.7062
1.20113
0.704345
1.20919
0.706569
1.20073
0.697171
1.12569
0.673817
1.18012
0.697342
1.12884
0.674576
1.17949
0.77857
0.185127
1.19626
0.398009
0.784461
0.186466
1.20454
0.400235
1.43621
0.692033
1.47287
0.598229
1.44663
0.694694
1.48434
0.601497
0.0326951
0.0696872
0.181449
0.277882
0.278154
0.298927
0.297525
0.300409
0.299206
0.241628
0.24123
0.256196
0.178639
0.217984
0.139368
0.25513
0.178344
0.218614
0.139422
0.127908
0.0877195
0.167153
0.110543
0.128445
0.0878656
0.168064
0.11075
0.0734096
0.057693
0.0740457
0.0579118
0.0122547
0.0022174
0.000219747
3.50678e-05
1.07796e-05
5.87165e-07
3.56597e-08
1.68065e-05
0.00128508
0.0215596
0.0883463
0.11607
0.111853
0.0853601
0.669873
0.669655
0.66132
0.66108
1.01122
0.596523
0.603336
1.00067
1.01404
0.597081
0.603254
1.00009
0.704513
0.704529
0.716477
1.29971
0.724261
1.28896
0.716327
1.30131
0.724663
1.28774
0.700538
1.1974
0.669936
1.25781
0.700447
1.20129
0.670753
1.25683
1.42628
0.721416
1.43535
0.723636
0.0234533
0.0537718
0.114955
0.429425
0.428158
0.421796
0.418899
0.36385
0.362815
0.350538
0.347003
0.248152
0.473796
0.275129
0.414989
0.248372
0.469597
0.273483
0.416671
0.223595
0.301277
0.189953
0.36373
0.223605
0.300813
0.189775
0.364099
0.235107
0.152035
0.175549
0.120072
0.236495
0.152358
0.177226
0.120508
0.0976652
0.0731882
0.134341
0.0955284
0.0984389
0.0734835
0.135725
0.0959429
0.0061171
0.000826747
0.000133582
5.2348e-05
5.69482e-06
1.24762e-06
0.000286318
0.00929856
0.0624236
0.129806
0.207656
0.448005
0.443945
0.445783
0.63578
0.640599
1.01086
0.626394
0.988863
0.634447
1.01346
0.626766
0.992074
0.634835
0.712695
0.71298
1.10799
0.615924
0.626397
1.08761
1.11132
0.616592
0.626272
1.0872
1.04338
0.644893
1.05051
0.647522
1.0461
0.645264
1.05054
0.647505
0.686005
1.18096
0.651995
1.2407
0.686146
1.18507
0.6528
1.24167
0.0129449
0.0395402
0.0872213
0.211351
0.513961
0.511396
0.499911
0.494154
0.44701
0.444308
0.521286
0.301134
0.34483
0.561454
0.511135
0.297954
0.342332
0.552583
0.26728
0.509475
0.288467
0.462458
0.267011
0.509728
0.288541
0.461279
0.238786
0.314045
0.19539
0.402953
0.238153
0.314154
0.195366
0.400208
0.235271
0.157281
0.239185
0.158073
0.00246562
0.000449158
0.000186815
2.68779e-05
3.40043e-05
0.00282147
0.0353879
0.112143
0.182663
0.323162
0.93429
0.934435
0.961432
0.961123
0.523497
0.521068
0.84459
0.842016
1.06439
0.604804
1.0447
0.621978
1.06673
0.605301
1.04652
0.62236
0.605413
0.785231
0.586221
0.920318
0.605546
0.788708
0.586698
0.920658
1.10777
0.607342
0.614425
1.09745
1.10848
0.607615
0.614158
1.09598
1.09877
0.61615
1.11106
0.626991
1.10175
0.616711
1.11135
0.627073
0.00600743
0.0235502
0.0623709
0.160145
0.400003
0.398116
0.520027
0.517872
0.601642
0.59749
0.791957
0.429085
0.830141
0.469309
0.775669
0.424523
0.817596
0.465205
0.77221
0.417167
0.682245
0.379612
0.616858
0.346818
0.762355
0.414295
0.682399
0.379567
0.6092
0.345165
0.563331
0.313431
0.559521
0.312667
0.293195
0.525838
0.310981
0.488859
0.292844
0.52859
0.311398
0.487644
0.00134545
0.000549201
8.77233e-05
0.000516076
0.0151175
0.0777084
0.14899
0.232784
0.421707
0.90274
0.901281
0.818638
0.817621
0.909702
0.508705
0.501765
1.21301
0.596018
0.454745
0.509705
0.885486
0.454539
0.49742
1.19504
0.592265
1.36559
0.677711
1.37835
0.664937
1.35673
0.675409
1.36265
0.661582
1.06362
0.587125
1.04894
0.592425
1.06526
0.587517
1.04994
0.592661
0.538623
0.821673
0.538466
0.821025
0.612705
1.10535
0.612517
1.10445
1.09035
0.601639
1.0932
0.602183
0.00345061
0.0122369
0.0376262
0.10191
0.337374
0.336679
0.391233
0.389821
0.452469
0.449185
0.575287
0.572015
0.516957
0.936777
0.511366
0.978154
0.491909
0.947439
0.514599
0.925143
0.507265
0.969841
0.489346
0.936752
0.871809
0.457009
0.862214
0.454885
0.84414
0.444168
0.754125
0.627964
0.410033
0.35551
0.839024
0.44314
0.756167
0.625109
0.410659
0.35503
0.586895
0.33982
0.58734
0.339926
0.00137711
0.000236466
0.00427301
0.0418561
0.111246
0.173298
0.242386
0.398901
0.398443
0.267573
0.267491
0.71988
0.717514
0.52608
0.525152
0.560234
1.03987
0.540383
0.434039
1.24829
0.6058
0.554134
1.02902
0.432349
0.538617
1.23831
0.603679
1.1712
0.600576
1.29487
0.630582
1.16516
0.598756
1.28597
0.628435
0.987311
0.566143
0.987667
0.566243
0.00301461
0.00743267
0.0214565
0.0563104
0.185336
0.403873
0.402142
0.438426
0.436135
0.696166
0.406546
0.711338
0.392622
0.688075
0.403404
0.707725
0.391542
0.900247
1.05011
0.479075
0.787724
0.429704
0.529658
0.895306
1.04148
0.477896
0.782044
0.428161
0.52765
0.546054
0.514861
1.05305
0.986089
0.543609
0.512399
1.04188
0.975545
0.912837
0.486286
0.905501
0.484771
0.87369
0.469729
0.661622
0.387082
0.871473
0.469296
0.662575
0.387353
0.000560272
0.0165688
0.0707093
0.128308
0.163066
0.14204
0.269804
0.269024
0.239888
0.239142
0.378386
0.828275
0.452246
0.64104
0.377351
0.822821
0.451073
0.636247
0.340818
0.340264
0.95959
0.508224
1.04889
0.541623
0.95554
0.507006
1.04343
0.540351
0.00119292
0.00579307
0.013449
0.0330294
0.0845793
0.3008
0.300274
0.448872
0.446701
0.462726
0.459223
0.510219
0.506937
0.821656
0.427024
0.788135
0.417764
0.820645
0.427085
0.794972
0.419365
1.02951
0.885146
0.528153
0.480096
0.821254
0.445886
1.02665
0.882165
0.479581
0.527444
0.821775
0.446193
0.54623
1.02531
0.543891
1.01395
0.0358592
0.0867356
0.116309
0.0915068
0.184185
0.182862
0.120691
0.119064
0.269277
0.265461
0.224486
0.221449
0.334478
0.690817
0.391489
0.578721
0.334146
0.686308
0.390479
0.57749
0.413646
0.243871
0.468659
0.269951
0.412074
0.243159
0.466631
0.269507
0.819091
0.446594
0.815727
0.445659
0.00231169
0.00985225
0.0213471
0.0464889
0.129622
0.307682
0.306783
0.451465
0.448062
0.550754
0.542475
0.442632
0.826659
0.443422
0.749299
0.439678
0.81956
0.441624
0.739456
0.850909
0.446305
0.831935
0.451349
0.854838
0.447315
0.842843
0.453636
0.0493578
0.0798624
0.0569113
0.050825
0.0833042
0.0784725
0.0672486
0.0665579
0.44419
0.241229
0.194444
0.374726
0.21123
0.322857
0.434542
0.239229
0.189646
0.352794
0.207084
0.291666
0.149274
0.139373
0.315566
0.623689
0.357775
0.541334
0.314728
0.621076
0.357073
0.537338
0.481596
0.261092
0.476648
0.26013
0.00410597
0.0150435
0.0301455
0.0647128
0.193506
0.193269
0.276857
0.275958
0.283652
0.284222
0.434327
0.430496
0.753404
0.43583
0.896521
0.471048
0.89925
0.47593
0.731832
0.42764
0.87286
0.46523
0.880997
0.471796
0.886339
0.471209
0.878098
0.469803
0.892238
0.474269
0.897309
0.475401
0.0465026
0.0394662
0.0284378
0.0846651
0.0841785
0.0445278
0.0444639
0.0640308
0.0633314
0.0743403
0.074083
0.430492
0.235524
0.173031
0.319868
0.195524
0.279689
0.416278
0.233095
0.168234
0.302319
0.191894
0.253712
0.106999
0.0942198
0.180107
0.120919
0.0846137
0.0876496
0.151393
0.111689
0.00667522
0.0210204
0.0403107
0.100489
0.232985
0.231315
0.301601
0.29908
0.36241
0.359665
0.797778
0.429375
0.330811
0.629209
0.360958
0.48105
0.331464
0.62671
0.360216
0.48284
0.78761
0.426505
0.891848
0.922019
0.476218
0.492289
0.86858
0.900711
0.472488
0.48863
0.900709
0.497544
0.888858
0.496038
0.0182444
0.0168056
0.0267259
0.0875176
0.087014
0.0467455
0.0466451
0.0559181
0.0545588
0.0805055
0.0850316
0.0714913
0.095026
0.0524006
0.0550712
0.0810198
0.0884128
0.0723623
0.0956348
0.094616
0.0941846
0.141156
0.208686
0.136186
0.19021
0.0816372
0.0715924
0.0701232
0.0660388
0.00992318
0.0276428
0.0554699
0.164206
0.163184
0.212081
0.210174
0.219469
0.217254
0.305149
0.301011
0.450046
0.305951
0.562294
0.310515
0.591615
0.329002
0.438953
0.588645
0.327921
0.300341
0.554505
0.308694
0.741157
0.414529
0.611856
0.347662
0.613032
0.732505
0.347642
0.412841
0.00706243
0.0180806
0.0218066
0.075775
0.075275
0.0368101
0.0366351
0.0610108
0.0552009
0.0922697
0.121713
0.0803983
0.12896
0.0627237
0.0556066
0.0918341
0.122994
0.0809163
0.127234
0.116847
0.103245
0.142372
0.106734
0.112645
0.100423
0.138168
0.105141
0.0580189
0.0560253
0.0558865
0.054753
0.0137833
0.0354292
0.0807174
0.198374
0.196616
0.215791
0.212588
0.261356
0.256457
0.515802
0.284421
0.271976
0.431095
0.254328
0.329936
0.507455
0.282059
0.269247
0.423017
0.252242
0.323776
0.558538
0.601489
0.301753
0.330517
0.595954
0.329534
0.551528
0.300439
0.00816794
0.0113019
0.04228
0.0427282
0.042654
0.0424001
0.0418651
0.0420802
0.0686049
0.119863
0.10367
0.0684341
0.116258
0.101545
0.0947875
0.0675345
0.10036
0.153127
0.0918733
0.164678
0.0962544
0.0681605
0.0988546
0.149026
0.0912212
0.157837
0.150159
0.103636
0.145064
0.101652
0.0179302
0.0451665
0.114912
0.207584
0.205627
0.238317
0.234259
0.307667
0.291008
0.388145
0.230516
0.405876
0.240032
0.294788
0.395351
0.236347
0.281687
0.377077
0.22754
0.499632
0.273422
0.424063
0.243766
0.492644
0.27205
0.416713
0.24241
0.544169
0.300514
0.538149
0.299541
0.0053082
0.00731524
0.0412951
0.0954964
0.041243
0.0953844
0.0884418
0.0884856
0.0905235
0.108265
0.0968424
0.109642
0.101418
0.101721
0.0665363
0.108052
0.104785
0.0863394
0.0945518
0.106815
0.0995184
0.0989589
0.0641262
0.103828
0.101342
0.166127
0.0993842
0.157785
0.141024
0.100394
0.136438
0.0984143
0.0214632
0.0564422
0.183617
0.233215
0.231303
0.181657
0.245594
0.242987
0.265284
0.346355
0.249647
0.262521
0.336798
0.245333
0.4079
0.37722
0.233145
0.216286
0.398714
0.231542
0.369393
0.214708
0.478482
0.275706
0.432743
0.26301
0.472335
0.274935
0.426381
0.262403
0.00297715
0.00807443
0.0897153
0.0873923
0.0625447
0.110463
0.0892337
0.0863925
0.0614447
0.110314
0.087955
0.0881416
0.110088
0.0893526
0.128159
0.0971209
0.091845
0.0761133
0.104497
0.123805
0.086496
0.0950859
0.0892042
0.0746202
0.100229
0.154344
0.0982162
0.147963
0.0226787
0.071159
0.204805
0.245546
0.243306
0.201164
0.257012
0.251845
0.34338
0.387711
0.226057
0.37214
0.239515
0.211278
0.281483
0.292707
0.341038
0.384792
0.224652
0.364146
0.236147
0.210723
0.276124
0.287317
0.414997
0.392619
0.247967
0.227774
0.407232
0.247093
0.386045
0.226849
0.00239454
0.124194
0.117765
0.117361
0.123736
0.104151
0.103794
0.146881
0.103657
0.118743
0.10287
0.0963745
0.141172
0.160445
0.140114
0.149699
0.158448
0.133144
0.141011
0.104093
0.118785
0.102789
0.0966794
0.136763
0.152635
0.136613
0.149291
0.152515
0.129274
0.100766
0.110636
0.0794597
0.0909206
0.0964973
0.110512
0.0775745
0.0908703
0.019985
0.0563681
0.162072
0.299777
0.245392
0.320655
0.294019
0.246283
0.321255
0.155859
0.244678
0.233844
0.365651
0.328629
0.404811
0.207873
0.234273
0.192532
0.368193
0.33048
0.402059
0.234267
0.208397
0.192832
0.416472
0.256048
0.409457
0.255769
0.00380511
0.133198
0.157955
0.132976
0.157788
0.14081
0.140562
0.124647
0.166975
0.126702
0.0993224
0.185264
0.128674
0.205539
0.203272
0.156354
0.197574
0.157399
0.165511
0.182814
0.163122
0.124713
0.159225
0.099248
0.123922
0.17675
0.125062
0.1997
0.198238
0.154423
0.192173
0.154107
0.162412
0.178614
0.160564
0.01003
0.0341726
0.135122
0.129484
0.0339529
0.0330657
0.0302538
0.356736
0.241037
0.421034
0.244797
0.360615
0.319822
0.461847
0.261759
0.334152
0.240021
0.411928
0.24181
0.358486
0.305873
0.442267
0.257195
0.223669
0.388439
0.271394
0.212928
0.358793
0.257793
0.34726
0.361692
0.210066
0.2149
0.351644
0.362537
0.210689
0.214802
0.00526611
0.136609
0.142937
0.171636
0.187443
0.136868
0.143873
0.172985
0.187325
0.168366
0.168205
0.182939
0.125495
0.220309
0.148741
0.209674
0.189533
0.221105
0.152022
0.145674
0.132184
0.174464
0.122227
0.212053
0.14535
0.200936
0.216236
0.189001
0.149906
0.142449
0.132256
0.00463578
0.0165471
0.072287
0.0691855
0.0162619
0.0157396
0.013988
0.399294
0.447252
0.233795
0.249095
0.445739
0.240555
0.394763
0.429666
0.233076
0.246225
0.420911
0.235348
0.197273
0.309338
0.195872
0.373249
0.243303
0.187715
0.194308
0.296457
0.182346
0.284302
0.188095
0.341185
0.230752
0.180881
0.184539
0.283017
0.0373536
0.15631
0.156463
0.145735
0.137499
0.163153
0.141884
0.154283
0.171794
0.146188
0.139481
0.161381
0.140562
0.157149
0.171876
0.213172
0.186302
0.167542
0.142649
0.122321
0.119541
0.205109
0.183994
0.169771
0.139686
0.121556
0.120679
0.0124254
0.0194213
0.0673557
0.195427
0.140666
0.0639366
0.195193
0.137871
0.0187974
0.00478784
0.0101564
0.465699
0.258773
0.437812
0.233132
0.441161
0.255262
0.40574
0.227307
0.222602
0.121677
0.360523
0.151891
0.207857
0.106171
0.205285
0.113143
0.32923
0.20328
0.149697
0.103884
0.0101159
0.107075
0.0635212
0.107236
0.0635857
0.121267
0.138508
0.164627
0.143766
0.151844
0.176198
0.123916
0.0899477
0.122171
0.140822
0.163412
0.142715
0.155047
0.17236
0.122353
0.0904396
0.162559
0.10988
0.164105
0.110404
0.0301839
0.0403274
0.0396223
0.0495141
0.223116
0.147874
0.246511
0.135383
0.0486414
0.219719
0.139428
0.233242
0.132101
0.0189691
0.021183
0.145737
0.269848
0.104378
0.141021
0.192211
0.089642
0.136467
0.246498
0.0961578
0.191734
0.141958
0.0877986
0.00467271
0.093644
0.139991
0.0936783
0.14018
0.0561793
0.0564508
0.0720048
0.124109
0.118311
0.120821
0.11975
0.110289
0.173265
0.123164
0.147692
0.164081
0.112167
0.0727442
0.127574
0.120401
0.122205
0.12389
0.112277
0.170341
0.121836
0.152352
0.159586
0.110683
0.0413515
0.0542438
0.0788644
0.0542871
0.0789709
0.0493928
0.20873
0.139996
0.228796
0.12635
0.0879098
0.0803807
0.048976
0.217702
0.136401
0.224558
0.131615
0.0821609
0.0788529
0.0522238
0.0526647
0.116255
0.118585
0.106932
0.118792
0.00437669
0.185604
0.194734
0.186172
0.194863
0.0988216
0.143892
0.0989141
0.144083
0.0857305
0.0855973
0.0896877
0.0873614
0.100279
0.087725
0.0912847
0.112323
0.0919735
0.110203
0.105285
0.165256
0.113108
0.145956
0.0909088
0.0880822
0.100434
0.0894324
0.0941982
0.115069
0.0933789
0.116023
0.106381
0.161381
0.111665
0.148904
0.024833
0.0802537
0.0856206
0.0803788
0.0850199
0.0977973
0.0977733
0.0765152
0.200272
0.133863
0.206864
0.123579
0.0881967
0.0819171
0.0852306
0.082932
0.0958335
0.0956248
0.0758697
0.20659
0.129296
0.200253
0.128174
0.0883103
0.078713
0.0838017
0.0848698
0.0889085
0.0951299
0.00151472
0.15735
0.124828
0.157403
0.124605
0.224382
0.250444
0.224592
0.250351
0.0912993
0.124946
0.0915887
0.12528
0.10959
0.142377
0.108676
0.147577
0.110294
0.144005
0.109525
0.149065
0.0845459
0.0929397
0.0814715
0.102436
0.0855844
0.0938165
0.0818829
0.104688
0.00987248
0.0751258
0.0510088
0.0737544
0.0495982
0.112211
0.115072
0.11172
0.114036
0.124781
0.124124
0.190517
0.141453
0.218815
0.131939
0.0937051
0.101113
0.0983293
0.0966674
0.0967531
0.0909646
0.0861011
0.0988305
0.193477
0.13629
0.211674
0.134194
0.094382
0.101375
0.0981816
0.10008
0.0964585
0.0877124
0.0854702
0.098276
0.00726423
0.00242387