/*--------------------------------*- C++ -*----------------------------------*\
| =========                 |                                                 |
| \\      /  F ield         | OpenFOAM: The Open Source CFD Toolbox           |
|  \\    /   O peration     | Version:  5.x                                   |
|   \\  /    A nd           | Web:      www.OpenFOAM.org                      |
|    \\/     M anipulation  |                                                 |
\*---------------------------------------------------------------------------*/
FoamFile
{
    version     2.0;
    format      ascii;
    class       surfaceScalarField;
    location    "1.5";
    object      meshPhi;
}
// * * * * * * * * * * * * * * * * * * * * * * * * * * * * * * * * * * * * * //

dimensions      [0 3 -1 0 0 0 0];

internalField   nonuniform List<scalar> 
30582
(
0
0
0
0
0
0
0
0
0
0
0
0
0
0
0
0
0
0
0
0
0
0
0
0
0
0
0
0
0
0
0
0
0
0
0
0
0
0
0
0
0
0
0
0
0
0
0
0
0
0
0
0
0
0
0
0
0
0
0
0
0
0
0
0
0
0
0
0
0
0
0
0
0
0
0
0
0
0
0
0
0
0
0
0
0
0
0
0
0
0
0
0
0
0
0
0
0
0
0
0
0
0
0
0
0
0
0
0
0
0
0
0
0
0
0
0
0
0
0
0
0
0
0
0
0
0
0
0
0
0
0
0
0
0
0
0
0
0
0
0
0
0
0
0
0
0
0
0
0
0
0
0
0
0
0
0
0
0
0
0
0
0
0
0
0
0
0
0
0
0
0
0
0
0
0
0
0
0
0
0
0
0
0
0
0
0
0
0
0
0
0
0
0
0
0
0
0
0
0
0
0
0
0
0
0
0
0
0
0
0
0
0
0
0
0
0
0
0
0
0
0
0
0
0
0
0
0
0
0
0
0
0
0
0
0
0
0
0
0
0
0
0
0
0
0
0
0
0
0
0
0
0
0
0
0
0
0
0
0
0
0
0
0
0
0
0
0
0
0
0
0
0
0
0
0
0
0
0
0
0
0
0
0
0
0
0
0
0
0
0
0
0
0
0
0
0
0
0
0
0
0
0
0
0
0
0
0
0
0
0
0
0
0
0
0
0
0
0
0
0
0
0
0
0
0
0
0
0
0
0
0
0
0
0
0
0
0
0
0
0
0
0
0
0
0
0
0
0
0
0
0
0
0
0
0
0
0
0
0
0
0
0
0
0
0
0
0
0
0
0
0
0
0
0
0
0
0
0
0
0
0
0
0
0
0
0
0
0
0
0
0
0
0
0
0
0
0
0
0
0
0
0
0
0
0
0
0
0
0
0
0
0
0
0
0
0
0
0
0
0
0
0
0
0
0
0
0
0
0
0
0
0
0
0
0
0
0
0
0
0
0
0
0
0
0
0
0
0
0
0
0
0
0
0
0
0
0
0
0
0
0
0
0
0
0
0
0
0
0
0
0
0
0
0
0
0
0
0
0
0
0
0
0
0
0
0
0
0
0
0
0
0
0
0
0
0
0
0
0
0
0
0
0
0
0
0
0
0
0
0
0
0
0
0
0
0
0
0
0
0
0
0
0
0
0
0
0
0
0
0
0
0
0
0
0
0
0
0
0
0
0
0
0
0
0
0
0
0
0
0
0
0
0
0
0
0
0
0
0
0
0
0
0
0
0
0
0
0
0
0
0
0
0
0
0
0
0
0
0
0
0
0
0
0
0
0
0
0
0
0
0
0
0
0
0
0
0
0
0
0
0
0
0
0
0
0
0
0
0
0
0
0
0
0
0
0
0
0
0
0
0
0
0
0
0
0
0
0
0
0
0
0
0
0
0
0
0
0
0
0
0
0
0
0
0
0
0
0
0
0
0
0
0
0
0
0
0
0
0
0
0
0
0
0
0
0
0
0
0
0
0
0
0
0
0
0
0
0
0
0
0
0
0
0
0
0
0
0
0
0
0
0
0
0
0
0
0
0
0
0
0
0
0
0
0
0
0
0
0
0
0
0
0
0
0
0
0
0
0
0
0
0
0
0
0
0
0
0
0
0
0
0
0
0
0
0
0
0
0
0
0
0
0
0
0
0
0
0
0
0
0
0
0
0
0
0
0
0
0
0
0
0
0
0
0
0
0
0
0
0
0
0
0
0
0
0
0
0
0
0
0
0
0
0
0
0
0
0
0
0
0
0
0
0
0
0
0
0
0
0
0
0
0
0
0
0
0
0
0
0
0
0
0
0
0
0
0
0
0
0
0
0
0
0
0
0
0
0
0
0
0
0
0
0
0
0
0
0
0
0
0
0
0
0
0
0
0
0
0
0
0
0
0
0
0
0
0
0
0
0
0
0
0
0
0
0
0
0
0
0
0
0
0
0
0
0
0
0
0
0
0
0
0
0
0
0
0
0
0
0
0
0
0
0
0
0
0
0
0
0
0
0
0
0
0
0
0
0
0
0
0
0
0
0
0
0
0
0
0
0
0
0
0
0
0
0
0
0
0
0
0
0
0
0
0
0
0
0
0
0
0
0
0
0
0
0
0
0
0
0
0
0
0
0
0
0
0
0
0
0
0
0
0
0
0
0
0
0
0
0
0
0
0
0
0
0
0
0
0
0
0
0
0
0
0
0
0
0
0
0
0
0
0
0
0
0
0
0
0
0
0
0
0
0
0
0
0
0
0
0
0
0
0
0
0
0
0
0
0
0
0
0
0
0
0
0
0
0
0
0
0
0
0
0
0
0
0
0
0
0
0
0
0
0
0
0
0
0
0
0
0
0
0
0
0
0
0
0
0
0
0
0
0
0
0
0
0
0
0
0
0
0
0
0
0
0
0
0
0
0
0
0
0
0
0
0
0
0
0
0
0
0
0
0
0
0
0
0
0
0
0
0
0
0
0
0
0
0
0
0
0
0
0
0
0
0
0
0
0
0
0
0
0
0
0
0
0
0
0
0
0
0
0
0
0
0
0
0
0
0
0
0
0
0
0
0
0
0
0
0
0
0
0
0
0
0
0
0
0
0
0
0
0
0
0
0
0
0
0
0
0
0
0
0
0
0
0
0
0
0
0
0
0
0
0
0
0
0
0
0
0
0
0
0
0
0
0
0
0
0
0
0
0
0
0
0
0
0
0
0
0
0
0
0
0
0
0
0
0
0
0
0
0
0
0
0
0
0
0
0
0
0
0
0
0
0
0
0
0
0
0
0
0
0
0
0
0
0
0
0
0
0
0
0
0
0
0
0
0
0
0
0
0
0
0
0
0
0
0
0
0
0
0
0
0
0
0
0
0
0
0
0
0
0
0
0
0
0
0
0
0
0
0
0
0
0
0
0
0
0
0
0
0
0
0
0
0
0
0
0
0
0
0
0
0
0
0
0
0
0
0
0
0
0
0
0
0
0
0
0
0
0
0
0
0
0
0
0
0
0
0
0
0
0
0
0
0
0
0
0
0
0
0
0
0
0
0
0
0
0
0
0
0
0
0
0
0
0
0
0
0
0
0
0
0
0
0
0
0
0
0
0
0
0
0
0
0
0
0
0
0
0
0
0
0
0
0
0
0
0
0
0
0
0
0
0
0
0
0
0
0
0
0
0
0
0
0
0
0
0
0
0
0
0
0
0
0
0
0
0
0
0
0
0
0
0
0
0
0
0
0
0
0
0
0
0
0
0
0
0
0
0
0
0
0
0
0
0
0
0
0
0
0
0
0
0
0
0
0
0
0
0
0
0
0
0
0
0
0
0
0
0
0
0
0
0
0
0
0
0
0
2.75808e-18
-9.72723e-18
3.94675e-25
-2.91782e-17
-1.45862e-17
-1.94637e-17
0
0
0
0
0
0
0
0
0
0
0
0
0
0
0
0
0
0
0
0
0
0
0
0
0
0
0
0
0
0
0
0
0
0
0
0
0
0
-4.85216e-18
-1.52756e-34
7.07784e-19
-1.12457e-25
-2.4293e-17
1.94518e-17
2.71181e-18
-2.91782e-17
4.86233e-18
-2.91868e-17
1.40765e-18
3.0835e-25
4.85896e-17
-3.52209e-34
2.08449e-18
-2.91627e-17
-7.04874e-18
4.86046e-17
0
0
0
0
0
0
0
0
0
0
0
0
0
0
0
0
0
0
0
0
0
0
0
0
0
0
0
0
0
0
0
0
0
0
0
0
0
-8.08318e-19
4.18688e-18
-3.07241e-17
3.41518e-20
5.81447e-17
1.93641e-17
-3.88416e-17
1.27532e-35
1.38709e-18
-1.45758e-17
-1.77082e-33
7.15487e-19
-1.96608e-25
-2.42356e-17
0
-8.26024e-17
8.12906e-21
3.88717e-17
2.17135e-35
-6.79653e-19
-2.91627e-17
-7.04874e-18
2.91639e-17
4.38585e-20
-3.09383e-24
2.9088e-17
-2.71484e-34
6.3826e-21
3.87806e-17
0
0
0
0
0
0
0
0
0
0
0
0
0
0
0
0
0
0
0
0
0
0
0
0
0
0
0
0
0
0
0
0
0
0
0
-1.52611e-17
-2.90851e-17
-1.93609e-17
-4.90223e-18
-4.96799e-20
-2.28714e-34
-8.75145e-20
-5.24557e-20
-3.39496e-17
-1.11675e-17
2.67989e-18
1.91254e-17
1.76208e-34
-2.33798e-19
-1.44932e-17
2.61225e-18
1.93259e-17
-1.04595e-34
-7.66744e-20
4.85212e-18
0
-4.15913e-19
-8.45118e-24
-8.44692e-18
1.44724e-17
-1.08575e-17
1.44929e-17
0
0
-2.01963e-18
4.15002e-18
-1.98421e-17
-1.23711e-20
-2.91406e-17
-9.65364e-18
5.81447e-17
8.77171e-20
3.8784e-17
2.20808e-34
9.7015e-18
7.76005e-17
0
3.93304e-24
-2.17263e-17
2.4113e-18
-2.17118e-17
4.84022e-18
0
9.68343e-18
-2.50028e-18
9.76166e-18
-9.67926e-18
1.21065e-17
-9.7476e-18
1.22334e-17
-2.4299e-18
0
0
0
0
0
0
0
0
0
0
0
0
0
0
0
0
0
0
0
0
0
0
0
0
0
0
0
0
0
0
0
0
0
1.33852e-17
-2.43347e-17
1.94264e-17
-1.45836e-17
-9.84545e-18
7.65671e-35
4.18636e-18
-2.90529e-17
-2.64425e-18
3.86511e-17
2.86787e-34
-9.85527e-18
-1.46063e-17
0
3.90382e-17
-9.95389e-36
2.0735e-11
5.58229e-12
2.07403e-09
-8.34195e-14
3.06429e-13
-1.62714e-08
-2.37436e-13
-1.64685e-08
1.44597e-10
-8.81156e-19
1.70281e-19
-5.56673e-19
-1.71029e-19
4.91913e-18
-1.88488e-17
-1.23587e-18
-1.1674e-17
-2.24702e-18
-3.63693e-34
4.34222e-16
-9.62593e-13
-1.60983e-08
1.28474e-14
-3.24896e-08
-6.80271e-19
-1.18033e-18
-2.6429e-17
-4.81602e-18
-3.37052e-17
0
3.76716e-19
-1.08678e-17
4.82797e-18
-1.56784e-17
9.65184e-18
-7.90391e-19
-8.07909e-20
0
5.03879e-19
-8.41974e-18
8.97841e-32
-8.14354e-19
-2.1564e-23
6.0032e-18
0
-3.50286e-22
7.7619e-16
-9.42969e-19
9.614e-18
0
0
3.96959e-17
-4.90238e-18
-9.80588e-18
1.68114e-20
-1.93609e-17
0
-1.39168e-18
-1.26832e-18
-4.82876e-18
6.97539e-18
2.61214e-18
7.91771e-34
0
-1.58394e-22
-1.45045e-17
2.78522e-18
9.64323e-18
8.02972e-20
-1.32741e-17
4.82333e-18
-8.44555e-18
4.83385e-18
0
9.67545e-18
-4.92026e-18
1.46005e-17
-9.67333e-18
1.45151e-17
-1.21789e-17
1.22098e-17
-4.84282e-18
-1.19731e-18
-8.06752e-20
1.3742e-18
-8.40717e-18
0
-8.03745e-20
8.42128e-26
8.41085e-18
9.35928e-26
-6.00788e-18
0
-1.66573e-21
1.36727e-18
0
0
-1.922e-17
7.99828e-20
1.30082e-18
-9.62595e-13
0
-1.36122e-10
1.43681e-17
9.82912e-19
-1.60566e-19
-1.67919e-17
-7.97985e-20
1.30027e-18
9.68199e-18
-3.64384e-17
9.61588e-18
0
0
0
0
0
0
0
0
0
0
0
0
0
0
0
0
0
0
0
0
0
0
0
0
0
0
0
0
0
0
0
-5.41054e-18
-1.69087e-20
9.6745e-18
-9.85591e-18
9.80973e-18
2.44517e-35
1.22569e-18
1.46435e-17
-1.3625e-17
3.8856e-17
3.4424e-35
9.53685e-20
-4.83172e-18
-1.12407e-17
1.93741e-17
-1.0775e-25
-4.67067e-09
3.46537e-12
-1.4595e-08
-8.05103e-11
-1.60089e-08
-1.02118e-08
4.75291e-18
-1.9442e-17
-1.52545e-12
1.17004e-10
3.74418e-27
4.55123e-09
-3.80603e-10
-1.46861e-09
1.3576e-10
-4.68236e-10
9.94914e-09
1.40513e-12
7.2798e-10
1.24069e-12
-2.3846e-10
6.87715e-20
4.95505e-19
1.10246e-18
9.81844e-13
-1.5737e-19
2.24607e-13
1.42797e-13
-2.97948e-16
1.1935e-34
1.7335e-08
4.29616e-16
6.58733e-20
-5.19804e-13
-1.93711e-17
3.35093e-34
9.15264e-11
4.80991e-18
0
-2.11014e-09
-1.59803e-08
-7.86419e-20
4.81042e-19
9.75479e-18
0
-6.06588e-19
7.54889e-20
-1.0534e-17
1.28514e-18
-4.0088e-18
-6.12316e-19
6.58384e-20
1.75413e-19
-1.45236e-17
1.18701e-18
2.29831e-17
-4.99156e-19
-1.69058e-17
-7.03488e-20
5.13387e-13
-6.93074e-12
-1.28347e-12
-4.58198e-11
-1.13837e-34
-1.91619e-08
2.02806e-09
6.80566e-20
-1.93347e-17
4.25892e-35
1.57378e-17
0
-5.21389e-19
-1.37182e-18
-4.71618e-18
9.72164e-19
1.12683e-17
-4.06149e-18
-6.80302e-20
-9.65628e-18
1.81464e-17
-6.60598e-19
-8.0791e-20
0
1.00997e-18
-1.08316e-17
0
-7.25714e-19
6.00211e-18
0
7.68976e-16
-5.33973e-19
1.92697e-17
2.19014e-09
-1.16651e-26
0
-2.06385e-09
-2.48641e-11
0
-1.15513e-13
-4.67446e-22
3.07342e-13
0
-2.46852e-21
-1.61382e-08
-7.701e-14
1.60506e-14
0
0
1.33852e-17
-1.46647e-17
9.68157e-18
4.90825e-18
9.64608e-18
-4.55484e-34
-4.0213e-18
-1.31756e-18
-9.79334e-18
2.86443e-18
-1.06746e-19
0
5.43254e-34
-4.88317e-18
0
0
-9.67242e-17
-1.79059e-08
3.85041e-12
-1.72694e-08
9.6297e-18
2.93974e-15
2.3904e-18
-6.80189e-19
9.53141e-18
-1.21756e-17
4.81588e-18
-2.64776e-17
0
1.97333e-12
1.43067e-10
-7.05779e-14
1.25299e-12
-1.69595e-08
1.96196e-17
4.64351e-15
2.25551e-09
-1.01102e-21
-2.29661e-18
1.19792e-18
-3.21326e-20
-4.12395e-17
6.04288e-18
-3.88673e-17
-3.85111e-18
-9.7898e-19
-8.06755e-20
1.39515e-18
-2.52845e-17
-8.03535e-20
-8.03786e-20
1.20154e-18
-1.44185e-17
-5.79911e-37
2.41099e-18
9.83098e-19
-1.60794e-19
0
-2.4036e-17
-7.99837e-20
1.44796e-18
-5.26208e-13
0
-1.64362e-08
1.68e-17
1.27712e-18
-8.0282e-20
-2.76442e-17
0
1.4129e-18
2.40825e-18
-1.68746e-17
-1.0392e-33
-6.43339e-19
1.6191e-19
2.81008e-18
-2.65312e-17
0
-2.92533e-19
2.17134e-24
9.92581e-22
1.00301e-23
-4.78231e-17
-9.86737e-20
2.41058e-18
-1.60779e-19
0
1.60871e-08
1.55626e-13
8.03636e-20
-9.42471e-18
3.55185e-18
0
0
0
0
0
0
0
0
0
0
0
0
0
0
0
0
0
0
0
0
0
0
0
0
0
0
0
0
0
1.65988e-17
-2.43558e-17
2.2743e-20
4.84229e-18
4.60285e-20
8.68519e-34
2.41974e-18
-1.93279e-17
-2.19278e-17
1.92759e-17
1.33324e-33
-5.77819e-18
1.94928e-17
-5.77998e-18
1.91031e-17
3.84354e-26
4.46079e-09
-1.56528e-10
1.64712e-08
3.99891e-09
1.6476e-08
9.75289e-09
-9.07787e-13
3.04603e-10
8.02173e-13
-7.98774e-09
1.171e-26
-6.60465e-11
4.12887e-09
-1.65415e-08
4.05573e-09
-1.63917e-08
-1.40271e-10
-3.97073e-13
-8.26937e-09
-7.42003e-13
-8.10474e-09
7.30861e-20
-6.22482e-12
1.28345e-12
-1.993e-08
1.08492e-34
2.02643e-09
4.75255e-24
5.0841e-09
-3.10864e-17
-1.49938e-26
1.80621e-12
2.15014e-17
0
3.51689e-18
-4.95487e-18
-6.56366e-19
1.27089e-17
7.56315e-20
-1.91852e-12
-1.19487e-17
-1.0167e-08
3.46165e-17
7.65934e-20
6.93074e-12
-4.81536e-09
-1.46188e-17
1.98091e-08
-1.48769e-26
-1.79884e-12
1.52383e-15
-7.77207e-20
-2.45569e-17
1.41061e-26
1.22232e-17
1.53026e-19
1.48829e-18
1.79819e-12
-8.6984e-18
-7.14833e-18
9.62928e-09
-6.53209e-18
-7.76398e-20
-1.4734e-17
1.95342e-17
0
-4.49214e-13
3.89475e-25
2.55029e-18
7.25174e-17
7.82349e-35
-1.28929e-34
-2.74265e-09
-2.74036e-20
-6.41725e-14
4.59655e-34
8.67909e-09
1.42829e-33
-5.27006e-20
3.11936e-34
8.11224e-19
1.14174e-18
-2.00491e-18
2.74213e-20
4.81776e-19
-1.91362e-19
-1.1379e-19
-9.19102e-19
1.39171e-19
1.2622e-18
1.37294e-35
-2.50987e-16
-3.56831e-20
4.61817e-34
4.20831e-34
-1.36707e-19
7.77082e-19
1.23375e-18
2.28949e-18
0
-8.06531e-11
0
0
-2.13269e-09
1.62868e-08
0
-6.755e-19
-1.35306e-14
0
1.61529e-08
-3.20878e-14
1.52423e-13
1.20519e-09
4.4318e-20
-7.75668e-34
-1.3561e-09
-8.39208e-20
1.15512e-13
2.58154e-21
-3.63738e-34
4.44543e-21
7.70079e-14
0
0
-5.63822e-18
-9.80806e-18
1.42519e-32
9.69069e-18
9.7078e-18
-1.40853e-35
-8.35703e-18
3.83936e-19
-4.80855e-18
1.35321e-17
-1.14349e-17
5.81709e-17
-1.23073e-35
-4.7843e-18
3.87908e-17
-1.6419e-26
4.67062e-09
4.55129e-09
-3.84902e-10
-1.81548e-08
1.39121e-10
-1.6919e-08
1.02119e-08
9.94914e-09
1.45727e-12
7.27955e-10
1.23801e-12
-2.38485e-10
4.7248e-25
1.18721e-12
-3.21058e-08
-8.02863e-11
-1.6009e-08
3.56452e-18
-1.45815e-17
-1.5308e-12
1.16956e-10
6.0556e-24
-7.24605e-20
6.8826e-12
4.49214e-13
2.11964e-16
0
1.91615e-08
1.59289e-08
0
-1.02133e-18
-1.69367e-17
0
1.09721e-16
1.44414e-17
-7.03068e-20
-3.35066e-19
-6.99664e-19
-3.74169e-20
-4.90966e-19
4.81683e-18
-6.13866e-18
6.80223e-20
-6.81142e-19
-7.2369e-18
9.29627e-19
2.29204e-17
0
1.68665e-18
6.57778e-13
9.81842e-13
-7.86869e-20
-1.47598e-13
-2.42249e-13
-2.15196e-17
0
1.7335e-08
3.53575e-09
0
-2.41061e-17
0
2.0494e-17
0
2.48549e-10
-3.33601e-08
6.87635e-20
5.72096e-19
-3.91824e-19
2.49519e-19
-7.86421e-20
2.98492e-19
4.8709e-18
-5.14977e-19
4.44698e-18
-4.00868e-18
-6.58381e-20
-9.67621e-18
1.07803e-17
-4.36766e-19
-3.14929e-17
-1.3562e-18
8.09543e-20
3.33579e-18
-3.37616e-17
-2.0341e-33
-1.59265e-19
2.39073e-18
-2.63076e-17
2.27673e-19
1.1025e-21
0
0
-1.61957e-08
-3.99476e-13
8.03648e-20
-2.84557e-17
3.5619e-18
4.20803e-19
4.42873e-20
5.41308e-19
4.19357e-20
-1.03906e-19
5.43588e-24
-3.04329e-23
5.4435e-20
-4.78736e-20
-1.66404e-34
4.78574e-20
0
0
0
0
0
0
0
0
0
0
0
0
0
0
0
0
0
0
0
0
0
0
0
0
0
0
0
0
-7.29577e-17
-8.04721e-34
-8.45695e-18
9.76326e-18
-2.73422e-17
9.61103e-18
-3.65227e-33
-8.14334e-18
-4.80488e-18
1.65918e-17
2.91401e-17
4.7839e-25
5.7214e-18
-3.83063e-09
-2.74468e-17
-8.38325e-09
6.03195e-34
1.3763e-17
-2.42413e-17
-2.84577e-17
4.84837e-17
7.44188e-20
2.43859e-12
1.3535e-17
2.58009e-10
0
1.5361e-15
0
-4.88143e-09
2.41435e-17
0
-2.44661e-12
-9.66907e-18
-1.48715e-19
7.3414e-19
3.64687e-18
7.67667e-18
-2.16813e-17
7.54336e-20
1.64444e-12
1.60813e-20
9.7597e-09
-1.81222e-17
0
3.27285e-12
1.0416e-10
-2.50274e-12
4.48332e-10
0
-4.45798e-10
-1.65439e-08
1.9395e-24
2.41648e-17
0
-8.41373e-18
7.68608e-20
2.40563e-18
-5.45477e-13
9.71107e-18
-2.77934e-18
-2.20989e-10
-2.66309e-17
7.64896e-20
1.20769e-17
-1.80929e-17
0
-3.20864e-13
-4.38305e-11
1.31999e-34
-4.63721e-20
-3.20864e-13
3.74227e-34
1.05188e-10
-4.10524e-20
8.39105e-19
-1.73347e-18
4.6398e-20
1.01823e-18
-2.69526e-18
-7.33147e-20
4.74418e-18
-5.56367e-19
-9.68157e-18
6.54646e-16
1.22762e-34
-2.02637e-16
-3.51257e-15
-5.97578e-20
5.41688e-34
-7.33186e-20
-1.377e-19
6.75048e-19
-1.3391e-18
-6.51343e-18
1.35008e-18
3.73613e-17
5.97646e-20
-8.18419e-11
0
-5.24726e-34
-1.17749e-09
-4.19615e-20
6.89864e-14
-2.40071e-34
3.20864e-14
0
0
-2.73969e-17
4.85364e-18
9.7502e-18
1.45497e-17
-1.94697e-17
8.95774e-35
-2.41974e-18
-1.12723e-17
8.94161e-20
1.65174e-17
6.65088e-32
3.87462e-17
6.09897e-34
-9.58512e-18
3.87091e-17
-5.19693e-27
-4.461e-09
1.54924e-17
5.60716e-12
1.65419e-08
4.04771e-09
1.63932e-08
-9.75311e-09
-1.92562e-17
4.86531e-18
-1.45875e-17
-7.059e-13
-8.10491e-09
-3.84355e-26
-1.56339e-10
1.64711e-08
3.99913e-09
1.64761e-08
-9.11788e-13
3.04567e-10
8.02171e-13
-7.98774e-09
7.65978e-20
8.85594e-12
-4.81527e-09
-1.46194e-17
2.01273e-08
0
-1.79884e-12
1.53153e-15
1.55425e-19
-5.08391e-09
-2.70486e-17
0
-1.7514e-12
5.02434e-18
0
1.55845e-18
1.79819e-12
-8.91992e-18
-1.03991e-17
9.62928e-09
-1.52426e-18
0
1.86371e-12
-9.89724e-18
1.0167e-08
1.9665e-17
7.30856e-20
-6.48152e-12
-4.49216e-13
-1.99301e-08
0
1.59773e-08
-1.51438e-19
-1.4532e-17
0
1.0829e-17
6.67561e-34
2.18917e-18
2.21527e-18
-7.44639e-19
-1.29333e-17
-7.56321e-20
-7.21914e-18
2.27618e-17
0
-6.41738e-14
-2.10168e-12
9.82679e-09
0
-1.04972e-08
0
1.47598e-13
0
-7.76793e-09
2.90193e-33
9.17678e-20
1.05064e-20
-6.68597e-19
1.14498e-18
0
-4.81804e-19
2.01937e-18
-1.17525e-19
-1.36369e-13
3.89477e-25
4.23211e-18
7.16732e-17
0
-2.94135e-34
-1.41949e-09
0
0
-5.8742e-20
-1.23279e-19
3.1486e-34
2.89002e-19
-3.74615e-18
8.59482e-19
0
-7.94837e-19
0
1.30041e-18
4.19377e-20
1.21992e-20
5.59267e-20
-2.1635e-24
-3.82566e-34
0
0
0
0
0
0
0
0
0
0
0
0
0
0
0
0
0
0
0
0
0
0
0
0
0
0
0
0
-2.88318e-18
0
2.16651e-17
1.94616e-17
3.88862e-17
7.7305e-22
1.94483e-17
2.87229e-33
2.82853e-18
-4.89106e-18
-1.02989e-17
2.89133e-17
2.03253e-33
-9.73982e-18
3.88247e-17
0
2.77144e-18
1.02678e-12
4.65372e-10
-1.46265e-17
3.8254e-18
7.51968e-16
7.19361e-18
1.1286e-18
2.91189e-18
-1.53342e-17
-1.7003e-17
7.22475e-18
-2.16318e-17
3.27361e-20
0
-1.17073e-18
-3.52202e-18
1.70526e-17
-8.36398e-18
1.93838e-17
-1.37312e-17
-1.08615e-17
-7.32844e-18
-2.056e-17
0
-7.05621e-20
2.08144e-19
1.06443e-17
3.24408e-18
0
-4.83169e-17
0
-7.04646e-18
1.67457e-17
0
6.11346e-18
-1.43062e-17
0
1.41074e-18
-1.19474e-18
1.36179e-18
-1.29453e-17
7.44196e-20
-6.73893e-19
2.31281e-18
7.16223e-18
-2.28311e-17
0
8.81835e-18
8.06433e-18
-5.39232e-18
0
7.2127e-16
-8.89673e-34
4.71662e-18
0
-3.5375e-18
6.93798e-34
-1.79213e-18
-4.99781e-18
-8.11289e-18
-2.03482e-17
7.76731e-20
7.20276e-18
-1.0701e-17
7.58688e-32
-5.69803e-19
4.24741e-35
2.07158e-16
-6.50872e-34
-1.59986e-18
-3.28808e-18
0
0
0
-7.2973e-17
1.55982e-33
1.14787e-19
-2.5883e-18
4.8897e-18
1.0658e-17
2.20714e-17
1.95026e-17
9.59175e-34
1.0138e-19
3.88007e-17
-7.29932e-36
-1.92876e-19
1.39493e-17
-2.42413e-17
1.67773e-17
-2.77127e-17
9.41001e-18
3.93254e-35
1.5822e-17
2.40909e-18
-3.66179e-31
-3.27284e-12
6.37723e-12
2.50278e-12
-4.48332e-10
0
4.46341e-10
1.65439e-08
0
4.88133e-09
2.17393e-17
0
2.46265e-12
-1.93067e-17
-7.68606e-20
2.91081e-18
-2.73689e-18
7.30478e-18
-6.757e-18
7.27106e-18
-1.81031e-17
0
-1.64444e-12
7.24664e-18
-9.75943e-09
-2.53804e-17
7.44193e-20
2.63111e-12
1.58651e-17
2.58499e-10
0
1.53014e-15
-1.51043e-19
2.657e-17
0
-1.21068e-17
-7.43568e-20
-3.06711e-18
1.08806e-17
5.41839e-18
-2.63816e-17
-7.5431e-20
9.65817e-18
-1.69304e-17
7.33166e-20
5.58897e-18
1.42895e-18
-9.56222e-18
6.50674e-16
0
-1.98329e-16
-4.30393e-15
5.97561e-20
3.20864e-13
0
-1.05188e-10
0
1.38066e-18
1.33088e-18
2.59136e-18
-8.86058e-18
2.67491e-18
3.22588e-17
-1.19529e-19
-1.01823e-18
2.69526e-18
0
-3.20865e-13
-4.38305e-11
0
0
0
3.6831e-33
1.25216e-18
-2.12681e-18
4.63979e-20
0
0
0
0
0
0
0
0
0
0
0
0
0
0
0
0
0
0
0
0
0
0
0
0
0
0
1.46399e-17
-5.16731e-33
-1.11818e-17
-1.6135e-17
-4.7902e-18
-1.57891e-17
1.66472e-17
4.86148e-17
-7.30455e-33
1.95365e-17
4.8548e-18
0
2.91891e-17
-3.9863e-25
-2.74355e-18
-4.09738e-09
3.28891e-13
-5.50889e-12
-4.16497e-09
-5.48802e-18
-3.28886e-13
8.19476e-09
8.30576e-09
-8.22222e-13
-1.91294e-33
-5.01668e-18
9.43428e-18
2.05552e-19
-7.47879e-20
0
-4.84266e-18
1.45479e-17
7.14424e-20
1.55433e-18
-2.11772e-12
-7.05911e-13
0
-1.85081e-08
-1.65145e-08
2.76979e-18
-4.88626e-18
1.71284e-18
-9.00632e-35
-1.04519e-17
9.75456e-18
0
1.46213e-18
1.72612e-20
-7.17345e-18
-9.63919e-18
1.55527e-17
2.84443e-18
4.82485e-18
1.53565e-17
-7.56516e-20
0
-2.1633e-18
1.51314e-19
1.63848e-17
9.20888e-12
2.63113e-12
0
6.91323e-10
1.62575e-08
9.71063e-18
2.28311e-17
-1.51187e-19
-1.20067e-17
-7.55638e-20
4.24029e-18
-7.37634e-19
-2.38391e-18
7.18417e-18
-1.81571e-17
2.40164e-18
-2.97384e-20
2.1813e-18
-9.47688e-19
0
0
-1.48299e-18
0
9.87507e-19
-2.97641e-20
-5.01226e-19
-7.94853e-19
-4.4033e-20
-1.49051e-18
2.73273e-18
-3.77132e-24
8.3426e-13
-2.56703e-13
-1.69054e-08
0
-3.42144e-08
-5.8354e-20
0
2.49752e-33
-3.49531e-19
-9.29062e-18
-7.03542e-18
2.97441e-17
1.16725e-19
0
0
0
0
2.80918e-18
5.61836e-18
2.19722e-17
9.78248e-18
6.82493e-17
-4.87481e-18
2.92117e-17
-1.83599e-33
-2.65977e-18
1.46255e-17
2.16119e-17
2.91181e-17
-1.8604e-33
-2.41953e-17
4.85615e-17
0
-2.48817e-18
-2.95786e-18
-1.2055e-17
1.09099e-17
-1.0834e-17
9.71572e-18
0
-3.31987e-17
-1.80941e-17
1.09837e-17
-1.56597e-17
2.43585e-18
0
2.67925e-12
1.92177e-08
-6.04307e-18
4.49215e-12
-9.13421e-11
2.33999e-18
1.31852e-18
-2.02528e-17
-5.9975e-18
4.80791e-18
-1.07615e-17
7.26206e-18
7.79221e-20
6.84998e-18
-4.49213e-12
-6.80146e-18
0
-1.22646e-09
1.55408e-19
5.39163e-18
1.91516e-17
0
-3.22506e-18
-3.57188e-18
-1.55765e-19
3.47275e-18
-4.48588e-20
-6.46378e-18
-5.30997e-18
-7.76808e-20
2.02189e-18
-2.40758e-18
-6.70975e-18
-1.4342e-17
-7.05625e-20
-3.2913e-18
1.09184e-18
3.76177e-18
0
-7.43574e-16
7.445e-20
1.20188e-17
0
-2.31241e-18
-1.41078e-19
-5.29389e-19
9.55667e-18
4.46731e-18
4.92812e-18
-1.48842e-19
9.35171e-18
-8.49897e-18
1.8156e-31
1.39212e-19
0
3.39615e-16
-3.48361e-34
-9.33335e-19
-8.88755e-19
0
0
0
0
0
0
0
0
0
0
0
0
0
0
0
0
0
0
0
0
0
0
0
0
-5.0895e-18
0
2.75567e-17
-1.9429e-17
2.92421e-17
1.44844e-17
1.93727e-17
1.4785e-24
-4.66122e-09
4.44612e-09
-4.00262e-09
-5.33482e-13
4.38505e-09
2.90112e-12
-1.01702e-08
9.72306e-09
5.33448e-13
8.00568e-09
-2.90117e-12
-8.77094e-09
-4.65554e-24
-3.93721e-09
-8.59073e-09
-2.30441e-19
-1.78472e-10
-2.63109e-12
-1.30351e-12
1.08524e-25
1.63616e-08
7.82912e-20
2.32511e-25
-2.0161e-08
-4.36946e-10
7.63664e-12
-7.63661e-12
0
8.22216e-13
7.26335e-18
3.55645e-10
-2.17869e-17
-1.56299e-19
1.22634e-17
-4.34688e-17
1.18872e-19
7.29107e-18
3.04959e-26
2.01226e-08
4.87719e-12
-3.92795e-09
7.68469e-13
1.34631e-17
3.8581e-15
-1.89854e-17
1.61334e-18
-7.66073e-13
7.85585e-09
-2.5046e-18
-2.92298e-17
1.25477e-08
-5.59923e-20
0
1.36079e-09
3.45616e-20
-1.28343e-13
1.76475e-13
0
-1.96948e-08
3.85043e-13
6.43183e-18
0
5.08253e-18
-1.62709e-33
-9.4802e-22
-1.67109e-18
4.94971e-18
5.71742e-19
-1.88046e-08
-7.42719e-20
0
1.7632e-08
-7.28865e-20
-1.34763e-12
-2.16586e-12
-5.13387e-13
0
-1.92846e-08
2.60859e-09
-2.08572e-13
1.871e-17
-1.48577e-19
1.05703e-17
7.28526e-20
2.79834e-18
-2.63664e-18
-1.06743e-18
2.15695e-17
1.16909e-18
-5.25302e-18
2.09779e-24
0
-5.79983e-34
0
0
0
0
0
1.464e-17
5.78296e-33
2.8048e-19
-8.25821e-18
-1.46228e-17
1.59764e-17
0
2.91894e-17
1.68162e-33
-2.34825e-18
-4.90317e-17
1.6391e-17
2.90975e-17
8.05537e-34
-2.74596e-18
-1.94126e-17
1.04133e-17
1.95997e-17
7.28496e-25
-4.11602e-09
1.20592e-12
-1.90481e-11
-4.32294e-09
-1.20592e-12
8.23324e-09
8.56377e-09
-2.41185e-12
9.02445e-18
7.56522e-20
0
7.86779e-18
-2.50642e-18
-2.30155e-24
7.84317e-18
-2.10997e-11
-6.41733e-12
0
-1.99758e-08
8.78614e-11
-1.13888e-17
2.61209e-19
1.43212e-17
7.55967e-20
1.11788e-17
-1.41081e-18
0
5.673e-18
-2.16461e-18
2.43773e-18
0
-9.64264e-18
-4.30436e-18
-7.30874e-18
1.98927e-18
1.06168e-33
0
1.57641e-17
4.36263e-24
-1.82292e-19
5.77561e-12
1.60432e-12
0
3.71455e-08
4.83906e-10
-1.94023e-17
-1.62181e-18
0
2.30381e-17
0
-1.32617e-18
7.00212e-19
3.63214e-18
-1.78756e-17
2.38239e-17
-7.28908e-18
0
6.41738e-13
-2.67926e-12
1.48002e-09
0
-1.91815e-08
5.83461e-20
-3.85037e-13
0
-1.34584e-08
7.5329e-20
-2.2933e-19
-2.70752e-18
-5.2135e-18
2.69417e-17
-5.83619e-20
4.94751e-19
-2.99452e-18
2.97345e-20
2.35381e-18
-9.47663e-19
0
-4.4001e-20
0
0
1.63972e-18
-1.74757e-18
4.40225e-20
0
0
0
0
0
0
0
0
0
0
0
0
0
0
0
0
0
0
0
0
-1.66449e-17
3.08746e-22
9.85891e-18
-9.83685e-18
9.68927e-18
1.28669e-33
1.37318e-17
-1.38486e-17
-2.20095e-21
-1.61128e-17
0
1.94864e-17
1.9564e-33
-1.20284e-19
-1.47987e-17
2.40909e-19
4.0554e-17
-8.57337e-26
-1.24574e-17
-4.74333e-09
1.47333e-17
-8.96643e-16
0
-9.72941e-13
3.07785e-15
7.73082e-20
5.19817e-09
1.43294e-17
0
6.31842e-12
-1.68241e-17
7.6411e-20
-2.85326e-18
9.74634e-13
-1.41022e-19
2.00787e-17
9.48571e-09
-3.21558e-17
0
-5.04296e-12
2.3093e-18
-1.03903e-08
-2.39343e-17
0
6.51356e-18
-5.91795e-18
-4.80639e-18
-1.22508e-17
8.78903e-18
-9.61305e-18
-1.74759e-18
-1.19756e-17
3.60362e-18
0
1.7307e-17
9.61113e-18
-7.74118e-20
1.15511e-12
3.99935e-18
2.06458e-08
-1.64416e-33
5.05572e-17
0
-3.3262e-33
9.601e-10
3.91458e-12
-1.56061e-33
-3.30227e-18
3.59749e-18
2.06759e-17
-7.83776e-18
7.93407e-20
-1.20207e-17
1.06035e-18
7.71852e-20
6.75869e-18
2.10972e-17
-8.09951e-17
0
3.07202e-15
7.5373e-20
-5.80953e-18
-4.85488e-18
0
-5.31257e-17
-4.72962e-18
7.70834e-20
-8.86765e-19
7.60004e-20
-9.09699e-18
-4.36467e-17
7.53469e-20
-1.18901e-18
4.92739e-18
2.75373e-18
-1.18685e-18
-3.01849e-09
-1.43421e-24
0
0
-4.81278e-14
-3.46537e-12
0
-2.61224e-08
1.8919e-18
1.115e-33
-3.48342e-20
8.54828e-19
-1.00715e-18
7.96618e-18
0
0
0
0
0
0
-1.64926e-17
0
-6.0921e-17
4.52873e-18
1.01392e-17
9.61678e-18
1.9528e-17
1.82397e-24
4.53308e-09
-7.77695e-11
9.89912e-09
-1.53492e-10
-2.24692e-24
-1.53461e-10
-4.14097e-09
-6.05952e-10
1.71659e-10
-7.94668e-10
-3.29297e-10
-5.06701e-13
8.31304e-09
-1.91049e-12
-3.90648e-10
-5.67817e-27
-1.93746e-08
5.00553e-12
-4.25422e-09
-1.80978e-08
-3.86645e-12
-1.7585e-08
1.62039e-12
8.39463e-10
-7.3295e-18
1.1819e-19
9.51911e-13
8.44654e-09
1.30078e-18
-4.38167e-18
1.36424e-18
-1.62545e-17
-7.68179e-20
-5.18704e-09
6.41735e-12
-4.71407e-12
1.40732e-25
-6.42538e-12
0
7.10858e-26
-1.61226e-08
5.00553e-12
7.67537e-20
2.41185e-12
7.26321e-18
1.03669e-08
-3.62665e-18
7.81427e-20
-5.79619e-18
9.77316e-18
1.88049e-08
1.80012e-24
0
-1.68252e-08
-1.75421e-08
-7.28875e-20
7.0591e-13
-8.72759e-12
2.40869e-18
0
-4.00423e-08
-6.83394e-17
5.77556e-13
3.04823e-13
1.89501e-18
0
-2.32211e-18
2.67005e-18
-7.28594e-20
5.59821e-18
-4.22662e-18
-2.37797e-18
2.74567e-18
-4.65934e-18
-6.22477e-18
1.30529e-18
-1.22023e-08
0
0
0
-1.28341e-13
1.97333e-12
0
5.08298e-09
8.82631e-18
5.59991e-20
0
-7.75151e-20
-4.71556e-19
7.11031e-18
-3.3015e-24
0
-4.26647e-34
0
0
0
0
0
0
0
0
0
0
0
0
0
0
0
0
0
-1.96142e-17
4.71994e-35
1.11447e-17
5.56413e-18
1.71678e-19
1.98563e-17
-1.35768e-34
-3.49322e-19
1.50542e-19
-1.11444e-17
2.9498e-17
1.00023e-24
4.48649e-09
-1.5161e-11
-1.88883e-08
2.05355e-12
-2.32628e-12
3.38795e-08
-1.50958e-10
1.66932e-08
-1.86334e-08
9.81485e-09
-1.92941e-19
-1.31519e-17
-1.37944e-18
-2.50727e-18
-3.01985e-18
9.87322e-18
1.2701e-12
3.22724e-10
-2.94351e-24
4.60463e-09
-4.56399e-09
-1.71801e-08
-1.75369e-10
-1.68446e-08
1.00479e-08
3.60575e-12
9.09153e-09
-4.71942e-13
3.63779e-10
0
-1.71107e-17
3.65789e-12
9.62601e-13
1.50368e-17
0
1.91667e-08
3.56564e-11
0
1.4482e-17
0
-1.20054e-17
9.73764e-34
-3.18646e-18
6.72867e-19
-3.61136e-18
1.99833e-17
-5.15505e-18
-5.9188e-24
0
7.29203e-18
-1.08531e-17
-8.25208e-18
-7.41793e-20
0
1.94523e-18
1.68739e-17
-1.57132e-19
-1.03805e-17
1.28346e-12
0
-1.59488e-08
-3.99444e-18
-2.88051e-17
-1.13136e-17
7.41427e-20
-2.10766e-19
2.6457e-17
7.83483e-20
-1.33093e-18
-3.61743e-18
9.09795e-18
-1.04793e-19
-9.47337e-18
5.75309e-20
-1.15512e-12
1.89253e-08
0
-7.76727e-20
0
1.98572e-17
-1.31479e-17
-1.15052e-19
1.01843e-18
1.3507e-17
-1.50179e-33
3.84479e-17
-5.27798e-18
0
2.56698e-13
-1.52412e-12
1.06745e-09
0
-1.70434e-08
0
3.85035e-13
0
1.08455e-08
-7.39288e-20
-1.58057e-19
-6.47779e-18
-1.58394e-17
2.05244e-17
0
-3.74637e-19
9.47063e-18
0
0
0
0
0
0
-6.09685e-17
-9.83685e-18
-1.95279e-17
1.95194e-17
9.85891e-18
-6.23518e-34
-1.37321e-17
-1.08855e-17
-2.48204e-17
3.91188e-17
-9.72951e-32
1.91076e-17
7.0019e-35
3.16383e-18
1.81906e-21
0
-1.04524e-18
0
-4.98067e-09
-3.99613e-12
-8.40761e-18
7.44325e-22
4.87203e-18
9.61342e-18
-8.57922e-18
5.32254e-18
3.23408e-12
9.95769e-09
-8.40935e-18
0
-1.85083e-19
9.61118e-18
-1.02271e-17
-6.01788e-18
7.64694e-20
-1.01394e-11
1.7009e-10
9.62875e-18
-1.96383e-08
0
1.09726e-12
-1.04456e-16
7.73112e-20
2.17321e-17
0
-2.04703e-17
-5.0032e-25
-7.5292e-18
-1.0963e-12
1.32654e-17
1.96711e-17
-3.39413e-10
-1.53209e-17
-7.71812e-20
1.22391e-17
-1.91693e-17
7.71806e-20
9.75436e-12
9.56659e-18
2.00705e-08
0
-1.28995e-16
0
2.51733e-19
4.94136e-12
0
-2.71613e-18
1.94565e-08
-1.631e-25
-1.54015e-12
-2.61506e-12
7.07937e-34
9.99461e-10
-1.76809e-08
-1.5416e-19
-1.48375e-18
-1.20379e-18
5.08102e-18
-1.76144e-17
7.53348e-20
0
1.4391e-18
-3.93854e-18
-8.12709e-18
7.93359e-20
1.92276e-18
-1.27224e-18
-6.50576e-18
4.95985e-19
-2.72568e-24
-1.74872e-12
3.39134e-34
-1.54803e-08
7.73881e-20
1.283e-18
-4.81153e-18
8.51671e-09
3.59847e-25
0
3.48192e-20
-6.4175e-14
6.25693e-13
0
-1.28852e-10
-3.01971e-09
-2.04977e-24
-3.48314e-20
7.37994e-13
9.37203e-19
-2.72767e-18
0
0
0
0
0
0
0
0
0
0
0
0
0
0
-2.75034e-17
-1.43302e-18
-6.06868e-17
1.38832e-19
2.90777e-17
4.46251e-18
-2.03936e-19
3.27434e-25
1.66011e-17
4.07793e-09
-2.28258e-17
8.89714e-09
6.2736e-34
-1.93162e-17
1.91302e-17
-6.19279e-20
2.11773e-12
1.65246e-12
-1.01462e-17
7.67588e-20
1.28337e-13
2.87176e-12
-1.3584e-10
0
-1.29243e-08
1.50717e-08
0
-4.8629e-09
-1.4284e-17
0
-1.19791e-12
1.55881e-17
0
-1.87098e-08
1.92978e-08
1.53509e-19
2.40588e-18
-2.89995e-18
-6.19307e-20
1.37363e-18
7.16664e-19
-6.56265e-18
8.49454e-18
2.6444e-17
3.9368e-18
8.90553e-18
1.62914e-17
-1.42406e-19
1.20593e-12
-7.14182e-18
9.72521e-09
1.79529e-17
-7.7721e-20
5.71145e-12
-5.03741e-09
9.45981e-18
7.25964e-10
0
-3.80008e-12
-6.83772e-17
0
-2.52179e-18
0
6.7137e-22
5.67539e-26
2.59265e-18
3.79826e-12
3.80256e-18
-2.53008e-17
1.0073e-08
-6.34554e-18
0
5.17075e-18
-6.48423e-20
-4.77172e-20
-5.89016e-18
1.0749e-12
8.08069e-18
0
8.14169e-09
7.36376e-20
-2.53886e-17
0
2.79768e-17
-4.77273e-20
-1.88649e-18
-2.44284e-18
1.0664e-17
6.96383e-18
0
-1.01482e-17
3.81612e-17
-4.86175e-20
0
-5.11202e-16
-6.80484e-18
-7.45335e-34
1.01497e-17
-2.48821e-18
4.99282e-26
0
1.34231e-34
-3.64165e-24
0
-6.09044e-34
0
0
0
0
0
0
0
-1.92029e-17
-1.22635e-34
-1.11447e-17
-1.11406e-17
-1.95143e-17
-1.71678e-19
-1.11444e-17
1.96653e-17
2.61973e-34
-4.36426e-18
1.98563e-17
6.50861e-25
5.63923e-18
4.60455e-09
-4.56355e-09
-1.71794e-08
7.15267e-12
-1.68457e-08
1.87235e-17
1.00479e-08
3.48542e-12
9.09144e-09
-2.62872e-18
-1.90918e-17
2.71312e-34
7.09636e-18
8.98891e-16
-2.40651e-13
2.56694e-12
1.58827e-08
1.11956e-11
1.66942e-08
1.86337e-08
1.45929e-18
-4.12614e-18
-2.58401e-18
2.77514e-18
4.67771e-19
8.47668e-18
-4.84441e-18
-9.76432e-18
-8.91518e-18
-7.41811e-20
0
4.96934e-18
3.08668e-18
0
-1.26423e-17
-8.69777e-18
0
7.17269e-16
-2.16513e-17
-1.54214e-18
-7.6878e-20
0
-1.33775e-17
-1.44134e-17
1.9793e-17
1.45165e-17
-1.23743e-17
-1.85934e-34
1.57406e-17
6.57255e-18
0
-4.38989e-18
5.17652e-18
4.83565e-18
-8.22687e-20
-2.09829e-19
7.68366e-20
-1.70463e-17
-3.56032e-18
5.36601e-18
9.69999e-18
-7.50742e-20
2.41719e-18
3.57792e-18
0
-3.44269e-16
-3.21161e-15
-7.5048e-20
4.88844e-18
1.20834e-18
7.99192e-18
2.40791e-17
0
4.4921e-13
-8.98438e-13
1.06687e-09
0
-1.73465e-08
-4.82379e-20
1.92518e-13
7.76578e-20
3.09637e-12
7.05895e-13
0
1.0842e-08
0
1.8926e-08
1.74541e-08
1.58192e-33
2.64066e-18
-3.78772e-18
-3.80191e-18
3.59791e-17
-4.82522e-20
-4.0101e-19
-1.55288e-19
1.65799e-18
-3.95675e-18
6.18366e-18
-1.40076e-18
1.45479e-17
-5.75376e-20
0
-5.75284e-20
0
0
0
0
0
0
0
0
0
0
0
-2.47762e-17
2.9185e-34
-1.68677e-19
-5.46761e-18
-1.98117e-17
-6.76531e-19
4.27674e-17
9.09896e-18
-5.97175e-34
-2.83192e-17
-1.99397e-17
-2.18486e-17
4.96026e-17
0
3.32416e-17
2.1819e-12
3.97981e-10
-9.62094e-18
2.88782e-12
-1.67525e-08
1.45807e-17
-2.27552e-17
5.46147e-18
-1.10411e-17
-1.56755e-17
3.43455e-18
-2.0602e-17
4.79708e-18
0
-4.82625e-18
2.89481e-17
-6.32499e-24
9.23899e-25
1.93289e-18
-9.48642e-17
0
0
4.54055e-20
-1.92508e-13
0
1.69252e-08
-1.29368e-33
-1.30893e-33
9.1913e-19
2.26757e-18
4.542e-20
1.3859e-18
-2.00955e-17
7.69515e-20
2.74763e-18
-2.88781e-12