/*--------------------------------*- C++ -*----------------------------------*\
| =========                 |                                                 |
| \\      /  F ield         | OpenFOAM: The Open Source CFD Toolbox           |
|  \\    /   O peration     | Version:  5.x                                   |
|   \\  /    A nd           | Web:      www.OpenFOAM.org                      |
|    \\/     M anipulation  |                                                 |
\*---------------------------------------------------------------------------*/
FoamFile
{
    version     2.0;
    format      ascii;
    class       volScalarField;
    location    "1.5";
    object      nut;
}
// * * * * * * * * * * * * * * * * * * * * * * * * * * * * * * * * * * * * * //

dimensions      [0 2 -1 0 0 0 0];

internalField   nonuniform List<scalar> 
12160
(
1.01844e-09
1.02459e-09
7.81859e-08
1.02252e-09
1.44518e-07
1.15685e-07
1.03262e-09
3.19671e-07
1.14017e-07
9.46432e-08
1.06264e-09
6.41765e-08
3.8231e-07
6.75396e-08
9.75177e-08
1.0855e-09
5.22344e-08
7.80049e-08
3.97257e-07
4.58299e-08
2.84454e-08
1.11019e-09
5.51775e-08
5.37869e-08
8.53642e-08
8.21112e-08
3.06478e-08
2.35332e-08
1.12625e-09
6.57517e-08
5.12843e-08
5.79748e-08
1.04719e-07
1.2139e-07
1.56495e-08
5.04455e-09
1.12969e-09
1.11859e-07
5.74075e-08
5.13884e-08
6.8989e-08
8.16955e-07
2.32536e-08
5.17693e-09
7.33254e-09
1.1176e-09
1.79311e-07
7.77373e-08
5.16842e-08
4.79729e-08
1.50672e-07
4.48844e-08
7.90606e-09
7.96953e-09
9.59436e-09
1.09574e-09
8.13893e-08
7.68942e-08
5.85365e-08
4.13796e-08
5.4229e-08
1.33694e-07
2.26759e-08
5.68016e-09
3.04425e-08
8.53916e-09
1.07357e-09
6.00438e-08
5.74826e-08
5.99856e-08
4.35189e-08
3.47802e-08
3.67356e-08
3.18859e-08
6.19634e-09
1.50373e-08
3.58242e-09
1.07508e-08
1.06003e-09
6.52732e-08
4.68884e-08
5.05921e-08
4.0726e-08
3.07939e-08
2.80432e-08
1.41276e-08
9.09603e-09
1.27836e-08
2.59918e-09
2.39922e-09
3.83061e-09
1.06078e-09
8.76502e-08
4.69787e-08
4.30244e-08
3.40566e-08
2.91192e-08
3.3001e-08
1.20859e-08
2.8688e-08
1.10112e-08
7.40078e-09
4.60866e-09
5.14352e-09
3.85558e-09
1.08204e-09
5.63939e-08
5.426e-08
4.158e-08
2.9608e-08
2.82551e-08
3.47662e-08
1.26524e-08
2.40365e-07
1.14046e-08
1.57377e-08
6.50497e-09
5.33213e-09
9.87756e-09
3.17701e-09
1.13077e-09
2.86456e-08
4.45893e-08
3.93611e-08
2.76937e-08
2.68205e-08
2.44869e-08
1.2701e-08
4.91017e-08
1.32828e-08
7.26172e-09
4.79721e-09
9.7778e-09
9.52215e-09
1.52814e-08
1.21316e-09
1.78884e-08
2.6498e-08
2.99061e-08
2.65627e-08
2.50871e-08
1.8201e-08
1.03413e-08
2.74299e-08
1.70334e-08
7.05537e-09
1.03257e-08
2.53548e-08
8.59314e-09
8.20027e-09
1.34141e-09
1.29513e-08
1.74665e-08
2.06464e-08
2.31128e-08
2.25594e-08
1.59631e-08
7.99553e-09
1.61501e-08
2.34633e-08
6.90868e-09
1.23849e-08
1.98503e-08
2.6984e-08
1.59592e-08
1.53609e-09
1.02932e-08
1.28784e-08
1.47557e-08
1.78439e-08
1.84495e-08
1.52099e-08
6.51118e-09
1.02649e-08
2.69283e-08
7.05426e-09
8.02621e-09
8.82907e-09
8.1757e-08
6.78737e-08
1.83591e-09
8.72623e-09
1.03116e-08
1.1336e-08
1.37078e-08
1.47621e-08
1.48102e-08
5.67054e-09
7.12737e-09
1.81778e-08
7.53796e-09
5.93247e-09
5.07842e-09
2.86316e-08
1.04331e-07
2.31983e-09
7.74799e-09
8.77716e-09
9.30302e-09
1.09902e-08
1.193e-08
1.29842e-08
5.20038e-09
5.43132e-09
1.09543e-08
8.68235e-09
4.65453e-09
3.92543e-09
1.26517e-08
1.40216e-07
3.16148e-09
7.12168e-09
7.8147e-09
8.04515e-09
9.2323e-09
9.74858e-09
1.0405e-08
4.91408e-09
4.48543e-09
7.05855e-09
1.10571e-08
3.88056e-09
3.44663e-09
9.86589e-09
1.95499e-08
4.69834e-09
6.72388e-09
7.19665e-09
7.23919e-09
8.10891e-09
8.26911e-09
8.62574e-09
4.76216e-09
3.90143e-09
5.0784e-09
1.49202e-08
3.40246e-09
3.17809e-09
9.62393e-09
1.4193e-08
6.37006e-09
6.48612e-09
6.80227e-09
6.71458e-09
7.37835e-09
7.31725e-09
7.53439e-09
4.73621e-09
3.52657e-09
4.16551e-09
1.53026e-08
3.05518e-09
2.9739e-09
1.30019e-08
1.5109e-08
5.09564e-09
6.37103e-09
6.56552e-09
6.37698e-09
6.89966e-09
6.68981e-09
6.86078e-09
4.7954e-09
3.24867e-09
3.67728e-09
1.49331e-08
2.68513e-09
2.7979e-09
2.59158e-08
2.82599e-08
3.43006e-09
6.36174e-09
6.44994e-09
6.17223e-09
6.59056e-09
6.27239e-09
6.42491e-09
4.91261e-09
3.0215e-09
3.41664e-09
1.45369e-08
2.20305e-09
2.59719e-09
1.23526e-08
1.68571e-08
2.49934e-09
6.45721e-09
6.43819e-09
6.06942e-09
6.40218e-09
5.99846e-09
6.14607e-09
5.10808e-09
2.83937e-09
3.28182e-09
1.31055e-08
1.755e-09
2.37782e-09
7.32502e-09
7.22013e-09
1.96881e-09
6.668e-09
6.52946e-09
6.05326e-09
6.30505e-09
5.82597e-09
5.97372e-09
5.38666e-09
2.7443e-09
3.21972e-09
1.09617e-08
1.39455e-09
2.26512e-09
6.56003e-09
4.82993e-09
1.64081e-09
7.02078e-09
6.73388e-09
6.12313e-09
6.28171e-09
5.73044e-09
5.88081e-09
5.73136e-09
2.80992e-09
3.17219e-09
8.70301e-09
1.1444e-09
2.32627e-09
6.97095e-09
6.05665e-09
1.42543e-09
7.5641e-09
7.07554e-09
6.28705e-09
6.33386e-09
5.70794e-09
5.8437e-09
6.08047e-09
3.11825e-09
3.0725e-09
6.59169e-09
1.12323e-09
2.58027e-09
8.00077e-09
6.01016e-09
1.27892e-09
8.37815e-09
7.59755e-09
6.56382e-09
6.47011e-09
5.75619e-09
5.7908e-09
6.27513e-09
3.64083e-09
2.89219e-09
4.45472e-09
1.31711e-09
3.05901e-09
9.72999e-09
6.6318e-09
1.17806e-09
9.60588e-09
8.37283e-09
6.98561e-09
6.70601e-09
5.8728e-09
5.75525e-09
6.20853e-09
4.08304e-09
2.64593e-09
2.93976e-09
1.66746e-09
3.88596e-09
1.22269e-08
7.82735e-09
1.10968e-09
1.15189e-08
9.52325e-09
7.60178e-09
7.06682e-09
6.07081e-09
5.77596e-09
5.91522e-09
3.90311e-09
2.45462e-09
2.28314e-09
2.31018e-09
5.31976e-09
1.54637e-08
9.65766e-09
1.06588e-09
1.46818e-08
1.12537e-08
8.48854e-09
7.58791e-09
6.36974e-09
5.8623e-09
5.56651e-09
3.40326e-09
2.4329e-09
2.16481e-09
3.75558e-09
8.09195e-09
1.98779e-08
1.23538e-08
1.04213e-09
2.03709e-08
1.39028e-08
9.75825e-09
8.31708e-09
6.79354e-09
6.02485e-09
5.24605e-09
2.94937e-09
2.53973e-09
2.12971e-09
8.07835e-09
1.38429e-08
2.68159e-08
1.65129e-08
1.03515e-09
3.07553e-08
1.79276e-08
1.15538e-08
9.30681e-09
7.37446e-09
6.27839e-09
4.98517e-09
2.68491e-09
2.65556e-09
2.31853e-09
5.20387e-09
2.26891e-08
4.04594e-08
2.36615e-08
1.04258e-09
4.18641e-08
2.35564e-08
1.39688e-08
1.05618e-08
8.14888e-09
6.64141e-09
4.78495e-09
2.60191e-09
2.7339e-09
3.14241e-09
2.77313e-09
1.7393e-08
6.89086e-08
3.84499e-08
1.06497e-09
3.3341e-08
2.64083e-08
1.64599e-08
1.19524e-08
9.08441e-09
7.15569e-09
4.63633e-09
2.63888e-09
2.77734e-09
4.16944e-09
1.92621e-09
8.98684e-09
7.81722e-08
8.18053e-08
1.10161e-09
2.24615e-08
2.24273e-08
1.79593e-08
1.33031e-08
1.00612e-08
7.86258e-09
4.51714e-09
2.74049e-09
2.8021e-09
5.47386e-09
1.48709e-09
5.73942e-09
6.25322e-08
1.52628e-07
1.15436e-09
1.679e-08
1.76863e-08
1.74221e-08
1.38337e-08
1.07003e-08
8.66884e-09
4.42901e-09
2.86806e-09
2.8372e-09
6.97553e-09
1.22753e-09
4.04956e-09
4.09393e-08
5.54305e-08
1.34885e-08
1.28062e-09
1.4292e-08
1.52544e-08
1.31602e-08
1.10431e-08
9.38483e-09
4.38029e-09
3.00605e-09
2.90259e-09
8.63132e-09
1.07024e-09
3.09504e-09
2.81524e-08
2.89614e-08
1.20958e-08
1.07749e-08
1.55554e-09
1.31007e-08
1.20257e-08
1.11086e-08
9.4327e-09
4.38338e-09
3.16897e-09
3.00904e-09
1.03704e-08
1.05039e-09
2.4988e-09
2.0448e-08
1.87422e-08
1.14424e-08
1.0067e-08
9.04413e-09
2.06182e-09
1.0797e-08
1.06483e-08
8.98566e-09
4.39841e-09
3.37691e-09
3.19266e-09
1.20994e-08
1.20889e-09
2.12081e-09
1.52286e-08
1.33875e-08
9.75537e-09
9.87086e-09
8.6344e-09
8.90503e-09
2.58031e-09
9.94684e-09
8.48551e-09
4.43574e-09
3.70499e-09
3.50975e-09
1.37526e-08
1.47206e-09
1.89361e-09
1.14195e-08
1.01494e-08
9.281e-09
8.71578e-09
8.78421e-09
8.62102e-09
7.09661e-09
4.50252e-09
7.81105e-09
4.5039e-09
4.1714e-09
4.03749e-09
1.43262e-08
1.78693e-09
1.79562e-09
8.70027e-09
7.98912e-09
7.1582e-09
8.63407e-09
8.06551e-09
9.14918e-09
7.73774e-09
6.22289e-09
2.51054e-09
4.51717e-09
4.77581e-09
4.9713e-09
1.33387e-08
2.14206e-09
1.83354e-09
6.81647e-09
6.46951e-09
4.61186e-09
6.66062e-09
8.27823e-09
8.77243e-09
9.72035e-09
6.68676e-09
3.58299e-09
1.37559e-09
5.48757e-09
6.42314e-09
1.3207e-08
2.49502e-09
1.99079e-09
5.59555e-09
5.39552e-09
6.28696e-09
5.05102e-09
6.52856e-09
9.40216e-09
1.12753e-08
8.11971e-09
4.81005e-09
3.93664e-09
8.5779e-10
8.1273e-09
1.51107e-08
2.69653e-09
2.19371e-09
4.91627e-09
4.7152e-09
1.00405e-08
8.14911e-09
6.43239e-09
7.44302e-09
1.38563e-08
1.25664e-08
7.37366e-09
4.69183e-09
3.18095e-09
5.3493e-10
1.70935e-08
2.81178e-09
2.34027e-09
4.79186e-09
4.4264e-09
1.42706e-08
1.12676e-08
1.64546e-08
9.12814e-09
1.09421e-08
2.6193e-08
8.52402e-09
7.01628e-09
5.66101e-09
5.4191e-09
2.92518e-10
2.97701e-09
2.56585e-09
5.64081e-09
3.1205e-09
3.18727e-09
8.20565e-09
1.38492e-08
1.13682e-08
1.44148e-08
2.11938e-08
8.54899e-09
7.04165e-09
1.678e-08
1.65748e-08
3.58824e-09
3.95414e-10
3.02264e-09
8.43027e-09
3.54441e-09
3.80801e-09
3.29724e-09
5.94779e-09
1.88384e-08
8.20949e-09
4.11442e-08
1.11855e-08
5.20508e-09
1.95258e-08
7.78472e-08
3.58805e-08
1.35796e-08
8.24922e-09
1.66252e-10
1.21864e-08
4.3938e-09
1.23429e-08
4.46715e-09
4.26201e-09
7.65643e-09
2.92075e-08
6.8491e-09
1.31387e-08
5.01948e-09
1.15073e-08
8.87465e-08
1.08448e-07
5.81486e-08
3.22354e-08
3.14566e-08
6.04798e-09
1.70991e-10
5.50094e-09
6.36553e-09
2.01132e-08
4.63134e-09
5.47611e-09
4.89577e-09
4.18993e-08
5.98455e-09
6.62646e-09
6.67315e-09
5.77752e-08
1.24439e-07
8.12626e-08
7.93324e-08
5.19727e-08
1.84344e-07
4.18403e-08
1.41788e-08
1.83804e-10
1.08482e-08
1.36941e-08
4.28564e-09
6.51908e-09
3.29631e-09
4.15941e-08
5.14653e-09
6.20389e-09
2.19793e-08
1.03885e-07
8.95682e-08
8.96688e-08
5.28885e-08
6.21725e-08
3.07321e-06
8.14983e-07
1.4574e-07
2.57656e-08
2.48678e-10
2.60391e-08
8.38145e-09
4.32032e-09
7.54424e-09
2.64424e-09
2.2234e-08
4.42261e-09
7.6365e-09
5.32493e-08
1.09531e-07
7.56279e-08
5.01933e-08
4.78433e-08
7.20839e-07
5.10075e-05
1.58466e-05
4.10931e-06
5.73502e-07
6.26762e-08
4.41834e-10
9.96716e-09
7.59438e-09
4.9442e-09
9.67401e-09
2.14276e-09
1.31846e-08
4.23098e-09
1.14598e-08
1.02372e-07
3.81134e-08
4.0431e-08
3.82709e-08
1.64174e-07
9.6166e-06
0.000835769
0.000282399
8.26055e-05
1.69272e-05
2.29915e-06
2.65261e-07
9.74969e-10
8.02802e-09
8.45929e-09
6.53764e-09
2.13275e-08
1.61364e-09
8.28883e-09
3.96389e-09
3.68704e-08
2.16951e-08
2.90592e-08
3.59428e-08
5.32721e-08
2.24998e-06
0.000100932
0.000980103
0.000867355
0.000979188
0.0004702
0.000471391
0.000759094
0.000293301
8.78555e-05
1.05813e-05
1.02384e-06
2.42754e-09
8.25686e-09
1.04762e-08
8.64037e-09
1.45633e-08
1.26459e-09
8.80289e-09
4.6693e-09
1.48765e-08
1.95224e-08
3.20123e-08
2.94543e-08
3.95592e-07
1.46634e-05
0.000657916
0.00120811
0.00155338
0.000912749
0.00120758
0.00124558
0.0012459
0.00155446
0.00101309
0.0010122
0.000806942
0.000394394
8.74866e-05
1.68807e-05
1.89708e-06
4.31137e-09
9.37991e-09
1.14198e-08
9.70558e-09
4.98599e-09
1.33466e-09
7.52229e-09
6.38875e-09
1.34938e-08
1.91274e-08
2.63712e-08
6.98336e-08
2.50213e-06
5.45695e-05
0.000563987
0.000568336
7.54435e-05
7.57354e-05
0.00197761
0.00222133
0.000882762
0.000830117
0.00197955
0.00188768
0.0018902
0.00222542
0.00162717
0.00163161
0.000826054
0.000760614
0.000109475
2.07052e-05
1.88928e-06
5.97889e-09
9.64978e-09
9.26922e-09
7.59573e-09
4.04224e-09
2.95157e-08
3.28163e-08
1.63415e-08
9.81296e-09
2.09366e-08
2.72413e-08
2.80391e-07
3.84982e-06
8.46066e-06
8.47307e-06
3.88989e-06
3.88116e-06
0.000435474
0.000434997
5.30707e-05
5.30547e-05
0.00181311
0.00194228
0.00201575
0.00183619
0.00231805
0.000828407
0.000788848
0.000960765
0.000962819
0.001196
0.00119891
0.00181661
0.0015366
0.00154007
0.00194248
0.00201947
0.00183686
0.00231481
0.00147642
0.00116168
0.00131443
0.00160596
0.00147828
0.00116431
0.00131615
0.00160692
0.000825021
0.000824502
0.000126654
1.90887e-05
1.56753e-06
6.38225e-09
8.31311e-09
6.47375e-09
3.594e-09
3.52167e-08
6.60433e-07
4.44195e-07
3.45979e-07
4.52774e-08
1.68784e-08
3.66141e-08
3.5562e-07
5.38473e-07
5.30072e-07
2.97564e-07
2.89773e-07
6.91871e-06
6.93212e-06
2.84335e-06
2.82993e-06
0.00021455
0.000904032
0.000534017
0.000142535
0.000521243
0.001067
0.000903727
0.000213622
0.000534409
0.000142152
0.000521738
0.00106712
2.19496e-05
0.000192258
2.25978e-05
0.000193851
2.19191e-05
0.000192637
2.25882e-05
0.000195519
0.00155558
0.0016347
0.00164165
0.00154249
0.00168649
0.00193003
0.00164995
0.00225115
0.0007863
0.000744269
0.000741496
0.000741777
0.000737626
0.000738602
0.000812888
0.000815941
0.00101195
0.00101609
0.00155549
0.00163283
0.00164143
0.00153798
0.00136311
0.00123442
0.00126713
0.00132814
0.00136337
0.00123985
0.00126823
0.00132866
0.00168618
0.00193064
0.00164916
0.00224663
0.00125059
0.00142205
0.00125125
0.0014159
0.000836548
0.00086829
0.000122156
1.47078e-05
1.03091e-06
6.42535e-09
6.17399e-09
4.05456e-09
2.96546e-09
4.68554e-07
1.54596e-05
5.83006e-06
4.64455e-06
1.41614e-06
8.09999e-07
1.0326e-06
5.03956e-06
5.08748e-06
1.56084e-05
1.57321e-05
5.4095e-07
5.26996e-07
5.07275e-05
4.33025e-05
3.10243e-06
3.01795e-05
3.26678e-06
2.46615e-05
3.10828e-06
3.03001e-05
3.27303e-06
2.53796e-05
6.75997e-06
1.26188e-05
3.43565e-06
9.36053e-06
6.91162e-06
1.27262e-05
3.43328e-06
9.41126e-06
0.000706409
0.000174201
0.000498823
0.000890704
0.000109574
0.000460746
0.000705975
0.000173549
0.000891024
0.000499
0.00010917
0.000460866
2.05167e-05
0.000133328
1.98485e-05
0.000144919
2.06286e-05
0.00013385
1.98501e-05
0.000143944
0.00140908
0.00158661
0.001527
0.00142506
0.00155615
0.00193348
0.0015902
0.00221247
0.000788746
0.000723532
0.000721426
0.000720483
0.000705185
0.000704685
0.000650273
0.000651542
0.000630858
0.000632936
0.000600646
0.000680339
0.000706616
0.000741913
0.000598712
0.000679515
0.000704527
0.00074181
0.000946907
0.00110772
0.000960557
0.000839891
0.000884932
0.00113011
0.000944719
0.00111071
0.000960803
0.000838216
0.000885329
0.00113054
0.00140764
0.00158339
0.00152539
0.00142015
0.00123775
0.0012291
0.00123691
0.00122719
0.00155532
0.00193401
0.00158922
0.00220515
0.00108412
0.00120124
0.00108493
0.00119497
0.000868944
0.00087337
9.62456e-05
9.48197e-06
5.50318e-07
8.01645e-09
4.97338e-09
2.89629e-09
2.50532e-08
6.18831e-06
0.0004507
7.95533e-05
6.33622e-05
0.000130873
0.000229401
2.74259e-05
2.75364e-05
0.000104374
0.000104521
0.000270119
0.000271576
0.000412048
0.00041429
6.15913e-05
2.99452e-05
0.00017425
9.60833e-05
6.40066e-05
3.02693e-05
0.000180289
9.63137e-05
0.00107665
0.000997085
0.000443234
0.000337296
0.00108935
0.00099783
0.000452649
0.000336363
4.50253e-05
5.16437e-05
8.8134e-05
4.87777e-05
4.52905e-05
5.28286e-05
8.86406e-05
4.86034e-05
0.000341532
0.000187599
0.000176778
7.03342e-05
0.000347099
0.000189222
0.000177656
7.05356e-05
0.00136991
0.00158434
0.00149179
0.00141873
0.000840825
0.000750165
0.000723988
0.00072285
0.000715145
0.000714365
0.000705715
0.000704529
0.000667125
0.000667174
0.000381717
0.000498862
0.000342193
0.000496537
0.000384132
0.000495548
0.000345378
0.000493127
0.000406095
0.000537615
0.000357338
0.000512769
0.000411125
0.000535588
0.000363212
0.000509717
0.000527014
0.000600865
0.00066593
0.000692625
0.00052232
0.000597577
0.000661165
0.000691118
0.00106573
0.000912039
0.000923567
0.00106809
0.000802139
0.000828811
0.00106577
0.00090907
0.00092302
0.00106705
0.000798709
0.000828045
0.00136807
0.00158027
0.00148983
0.0014123
0.00118992
0.00118567
0.00118834
0.00118301
0.000867558
0.000821826
6.15223e-05
4.68723e-06
3.03867e-07
1.38599e-08
3.37167e-09
4.48179e-09
5.72585e-07
0.00012282
0.00146151
0.000785189
0.0013121
0.00138916
0.000399866
0.000579921
0.000582925
0.000767245
0.000771011
0.00188553
0.00188661
0.00180381
0.00180549
0.000716559
0.00039161
0.00157169
0.000822101
0.000731453
0.000396046
0.00159846
0.000826992
0.00192706
0.0015468
0.00220768
0.00142663
0.00193701
0.00154756
0.00221862
0.00142643
0.00146958
0.000873719
0.00147686
0.000873956
0.000835938
0.000845946
0.00078482
0.000785126
0.000758337
0.000756905
0.000787682
0.000785488
0.00075094
0.000749585
0.000625065
0.000662406
0.000567502
0.000613678
0.000619173
0.000661329
0.000563662
0.000611916
0.000439767
0.000528256
0.000510764
0.0005678
0.000441665
0.000525869
0.000509613
0.000565862
0.000335985
0.000403998
0.000303803
0.000382192
0.000335306
0.000402711
0.000302304
0.00037969
0.000358378
0.000453701
0.000309046
0.000401659
0.00035804
0.00044861
0.000308164
0.000397106
0.00082726
0.000608699
3.0376e-05
2.40668e-06
2.55345e-07
2.72087e-08
2.46517e-09
9.41216e-08
8.51536e-06
0.00114175
0.00157186
0.00169199
0.00166648
0.00163715
0.00164505
0.00164524
0.00180312
0.00180408
0.0015994
0.00160001
0.00160194
0.00160254
0.00162779
0.00163935
0.00163922
0.00162302
0.00162809
0.00164092
0.00163979
0.00162283
0.00158711
0.0015396
0.001561
0.0015782
0.00158723
0.00154074
0.00156082
0.00157737
0.00216483
0.00119797
0.00204681
0.00139117
0.00217128
0.0011969
0.00205151
0.00138923
0.00172984
0.0015206
0.00194767
0.00149318
0.00173637
0.00152062
0.00195494
0.00149279
0.000796142
0.000833596
0.000899822
0.000827452
0.000826763
0.000820999
0.000817768
0.000765751
0.0007635
0.000687133
0.000686192
0.000577207
0.000628059
0.000521744
0.000556945
0.000575102
0.000627319
0.000521991
0.000556435
0.000396253
0.000448555
0.000453682
0.000498584
0.000396316
0.000447993
0.000454387
0.000498181
0.000306382
0.000389791
0.000305599
0.000388251
0.000800865
0.000222168
1.70537e-05
1.74464e-06
3.27768e-07
1.72285e-08
6.15055e-09
1.99126e-06
0.000232931
0.00139902
0.00162407
0.00175997
0.00200593
0.00139311
0.00152106
0.00152132
0.00166034
0.00166042
0.00143889
0.00143983
0.00145947
0.00145836
0.00144089
0.00143988
0.00145971
0.00145814
0.00151643
0.00151657
0.00145427
0.00153322
0.0015136
0.00147538
0.00145438
0.00153414
0.00151371
0.00147484
0.00139745
0.00138149
0.00136626
0.00141767
0.0013973
0.0013837
0.00136606
0.00141683
0.00164122
0.00149708
0.00164577
0.00149679
0.000779569
0.000782031
0.000868018
0.0010068
0.00100401
0.000967097
0.000961851
0.000892334
0.000889572
0.000831088
0.00082609
0.000736279
0.000784855
0.000771503
0.000730107
0.000736033
0.00077946
0.000769597
0.000731046
0.000702094
0.000618252
0.000651762
0.000681021
0.000702062
0.000617374
0.000651418
0.000681056
0.000541189
0.000588401
0.000463608
0.00052791
0.000542197
0.000587987
0.000465699
0.000527715
0.000348233
0.000426619
0.000406683
0.000478305
0.000348624
0.000426065
0.000408359
0.000478068
0.000738419
0.000122171
1.5822e-05
2.2567e-06
1.1701e-07
1.62184e-07
3.38072e-05
0.00128528
0.00160929
0.00165831
0.00175718
0.00166829
0.00146718
0.00147322
0.00132515
0.00132843
0.00135092
0.00137457
0.00137547
0.00140893
0.001353
0.00137473
0.00137689
0.00140884
0.00150455
0.00150538
0.00131988
0.00129643
0.00134119
0.00134569
0.00132212
0.00129649
0.00134114
0.0013451
0.00135965
0.00137559
0.0013571
0.00137153
0.00136059
0.00137534
0.00135677
0.00137138
0.0013395
0.0013132
0.00128252
0.00136778
0.00133921
0.00131529
0.00128232
0.00136762
0.000734563
0.000768706
0.000795742
0.000931583
0.00105789
0.00105405
0.00098802
0.00098094
0.000927639
0.000923701
0.000825381
0.000805584
0.000858984
0.000854096
0.000815496
0.000803241
0.000857422
0.000846337
0.000769983
0.000810421
0.000795464
0.000770037
0.000769554
0.000809533
0.000794872
0.000768254
0.000732781
0.00063239
0.000671817
0.000718338
0.000732455
0.000631826
0.000671373
0.000715224
0.000548697
0.000618685
0.000553071
0.000618255
0.000376725
4.74353e-05
1.35764e-05
4.1407e-07
3.60378e-06
0.000925001
0.00150103
0.00165956
0.00166798
0.00157712
0.00155083
0.00155004
0.00156185
0.00156096
0.00107902
0.001076
0.00135714
0.00135485
0.00125745
0.00124744
0.00129567
0.00131119
0.00125919
0.00124759
0.00129672
0.0013112
0.00132805
0.00115067
0.00132979
0.00125347
0.00132826
0.00115264
0.00132982
0.00125371
0.00125343
0.00121465
0.00124361
0.00126513
0.00125405
0.00121473
0.0012436
0.00126418
0.00126903
0.0012444
0.00128921
0.00126831
0.00127049
0.00124421
0.00128932
0.0012682
0.000675908
0.000721673
0.000775142
0.000848979
0.00094315
0.000939604
0.00106063
0.00105728
0.00107311
0.00106817
0.00102241
0.000949031
0.00105141
0.000996843
0.00101035
0.000947088
0.00104127
0.000994724
0.00100875
0.000937117
0.00094662
0.000903849
0.000894318
0.000859248
0.000999447
0.000935054
0.000945475
0.000903133
0.000887174
0.000858132
0.000854652
0.000824947
0.000850587
0.000824353
0.00083094
0.000835804
0.000853009
0.000804881
0.000830557
0.000837325
0.000852541
0.000803128
0.000106674
4.15208e-05
1.24045e-06
9.12853e-05
0.00135375
0.00159339
0.00163779
0.00154964
0.00136843
0.00143495
0.00143361
0.00139988
0.00139853
0.00111827
0.000831001
0.00107748
0.00129811
0.00113736
0.00114549
0.000831693
0.00110001
0.00114488
0.00107594
0.00128505
0.00113609
0.00135069
0.00118077
0.00136834
0.00117782
0.00134444
0.00117988
0.00135851
0.00117676
0.00121488
0.00118134
0.00122795
0.00121449
0.00121594
0.00118137
0.00122844
0.00121442
0.00119812
0.00108981
0.00119809
0.00108941
0.00122408
0.00125429
0.00122405
0.00125361
0.00123675
0.00120082
0.00123797
0.00120062
0.000283363
0.000673798
0.000709434
0.000811505
0.000902778
0.000900508
0.000953761
0.000950852
0.000943498
0.000938937
0.00104839
0.00104426
0.00104488
0.00112819
0.00104423
0.00114182
0.00101172
0.00111769
0.00104435
0.00111858
0.00104169
0.0011363
0.00101125
0.00111036
0.00106648
0.000980176
0.00105931
0.000979567
0.00105239
0.000972505
0.000999564
0.000907457
0.000950996
0.000888796
0.00104742
0.00097171
0.0010005
0.000903513
0.000950654
0.000887959
0.000884117
0.000885034
0.000883248
0.000884437
9.25644e-05
3.34774e-06
0.00114347
0.0014749
0.0015998
0.00157123
0.00135596
0.000964982
0.000964136
0.000801499
0.000801161
0.00118025
0.00117801
0.0010704
0.00106898
0.000852314
0.00123187
0.00113062
0.00105402
0.00134643
0.00117219
0.000846579
0.00122387
0.00105336
0.00113023
0.00134012
0.00117178
0.00124776
0.00112442
0.00133744
0.00116566
0.00124393
0.00112417
0.00133224
0.00116535
0.00117467
0.00117805
0.00117471
0.00117792
0.000208416
0.000650194
0.000662871
0.000707745
0.000876325
0.00096666
0.000962524
0.000972233
0.000968568
0.000974102
0.000944784
0.000976851
0.000919948
0.00096587
0.000941573
0.000972645
0.000918235
0.00111095
0.00119315
0.00102488
0.00103251
0.000967234
0.00105775
0.00110661
0.00118676
0.00102415
0.00102649
0.000965701
0.00105683
0.00108531
0.00104851
0.00118826
0.00114165
0.00108484
0.00104796
0.00118091
0.00113436
0.0011037
0.00103294
0.00109787
0.00103229
0.00108624
0.00102462
0.000956798
0.000958619
0.00108343
0.00102398
0.000956763
0.000958153
7.57691e-06
0.00131822
0.00151106
0.00157844
0.00144804
0.00087806
0.000757784
0.000756193
0.000743754
0.000742284
0.000900291
0.0010384
0.000984752
0.000899937
0.000900151
0.00103466
0.00098466
0.000896183
0.000805431
0.000804583
0.00113799
0.00105799
0.00122597
0.0011186
0.00113496
0.00105768
0.00122203
0.00111822
1.53096e-05
0.000471954
0.000642745
0.000647526
0.000720293
0.00085348
0.000851443
0.0010224
0.00101785
0.0010011
0.000994439
0.000985524
0.000981296
0.00105394
0.000954018
0.00102051
0.000948457
0.00105138
0.000952973
0.00102438
0.000948013
0.00118581
0.00110586
0.00107478
0.00104636
0.00104964
0.00099655
0.00118305
0.00110318
0.0010461
0.00107441
0.00104941
0.000996198
0.00110869
0.00118568
0.00110805
0.00117743
0.00138546
0.00151509
0.00150467
0.00118095
0.00065897
0.00065598
0.000542345
0.000537072
0.00072021
0.000713235
0.00070461
0.000698707
0.0008532
0.000953469
0.000934662
0.000858969
0.000853169
0.000949949
0.000934235
0.000857925
0.000720277
0.000717854
0.000773575
0.000766686
0.000717835
0.000717205
0.000771672
0.000766496
0.0010675
0.00101659
0.00106471
0.00101621
2.86263e-05
0.000634138
0.000625231
0.000632048
0.000724117
0.000845259
0.000842479
0.000990126
0.000984443
0.0010337
0.00102329
0.000997212
0.00106578
0.000986046
0.00101905
0.000996501
0.00106027
0.000984912
0.00101192
0.00107173
0.000988146
0.00105897
0.00100697
0.00107278
0.000987388
0.00106619
0.00100679
0.00140759
0.00145782
0.001239
0.000732619
0.000431044
0.000415473
0.000435086
0.00043552
0.000760209
0.000721279
0.000633286
0.000696385
0.000677695
0.000632532
0.000750303
0.000720357
0.000630115
0.000671733
0.000674885
0.000594848
0.00054643
0.000524097
0.000844451
0.00092038
0.000910305
0.000842816
0.000843993
0.000918387
0.000910011
0.000839616
0.000804248
0.000765643
0.00079921
0.000765159
4.99129e-05
0.000627254
0.000604086
0.000620985
0.000680885
0.00067937
0.000797878
0.000795289
0.000781625
0.00078119
0.00091666
0.000911073
0.00103878
0.00099902
0.00113064
0.00103148
0.00112161
0.00102952
0.00101947
0.000993229
0.00111252
0.00102928
0.00110839
0.00102825
0.00110875
0.00103332
0.00110143
0.00103234
0.0011155
0.00104244
0.00111747
0.00104184
0.00136287
0.00118553
0.000809041
0.000562661
0.000560385
0.000425759
0.000425712
0.000379082
0.000379415
0.000444901
0.000444792
0.000761102
0.000728966
0.000613091
0.000655077
0.000675898
0.000595141
0.000745453
0.000727418
0.000609352
0.000633077
0.000672131
0.000561544
0.000345405
0.000440383
0.000467478
0.000507659
0.000301543
0.000434799
0.000424682
0.000498716
8.33722e-05
0.000612373
0.000586896
0.000628129
0.000729662
0.000724979
0.000800326
0.000795621
0.000830179
0.00082606
0.00106912
0.00099316
0.000890481
0.000942862
0.000915351
0.000820485
0.000891278
0.000940433
0.000914826
0.000821651
0.00106025
0.000991768
0.00113876
0.00114568
0.00106254
0.0010713
0.00112008
0.00112803
0.00106167
0.00107002
0.00114696
0.00109652
0.00113576
0.00109558
0.00101147
0.000713723
0.000608609
0.000516578
0.000514191
0.000421408
0.000420969
0.000255881
0.000340224
0.000447524
0.00034715
0.000411826
0.000390114
0.000250252
0.000348344
0.000449471
0.000356162
0.000414266
0.000393088
0.000495958
0.000494025
0.00057655
0.000521398
0.000570819
0.000493847
0.000303158
0.00039068
0.000279048
0.000379414
0.000130099
0.000597418
0.000587419
0.000629019
0.000625096
0.000697606
0.000691865
0.000680119
0.000674155
0.000757069
0.000750396
0.000794486
0.000853622
0.000888248
0.000836871
0.000910393
0.000864767
0.000783144
0.000907615
0.000863968
0.0008483
0.000880678
0.000836008
0.00102975
0.000994153
0.000922803
0.00090349
0.00092347
0.00102146
0.000903158
0.000993294
0.000598545
0.000599187
0.000519477
0.000454919
0.000452515
0.000350863
0.000349828
0.000261774
0.00034893
0.000479267
0.000402858
0.000427399
0.000449175
0.000268021
0.000352077
0.000477634
0.000405689
0.000427223
0.000446727
0.000451006
0.000526318
0.000476083
0.000523003
0.000441094
0.000518495
0.000468114
0.00051908
0.000249717
0.000350141
0.000244785
0.000348335
0.000186724
0.000588923
0.000611548
0.000678993
0.000673926
0.000677664
0.000670231
0.000698367
0.000689533
0.000849133
0.000799738
0.000834522
0.000773827
0.000764994
0.000674902
0.000840472
0.000798094
0.000832834
0.00076563
0.000763879
0.000668498
0.000879874
0.000912205
0.000829473
0.000872149
0.000906278
0.000871666
0.000872954
0.000828975
0.000545943
0.00049976
0.000398416
0.000399344
0.000399109
0.000399711
0.000515048
0.000515964
0.000429871
0.000434737
0.000518796
0.000428728
0.000426687
0.000513572
0.000340657
0.000385282
0.000484022
0.000450373
0.000453288
0.000479375
0.000344193
0.000386109
0.000480651
0.000442887
0.000450564
0.000467677
0.000454166
0.000492209
0.000445028
0.000488313
0.000261976
0.000591963
0.000654202
0.000680183
0.000675104
0.000682038
0.00067425
0.00065227
0.000894639
0.000735147
0.000730354
0.000749436
0.000743926
0.000637123
0.000738701
0.000741092
0.000883637
0.000722683
0.000728569
0.00082644
0.000787868
0.0007605
0.000751502
0.000818203
0.00078694
0.000751584
0.000750677
0.000868345
0.000837566
0.000861676
0.000837088
0.000510388
0.000441694
0.000341428
0.000598394
0.000341458
0.000598436
0.000739784
0.000739618
0.000362239
0.000410743
0.000508842
0.00041191
0.000515054
0.000526531
0.000323146
0.000568732
0.000402955
0.000352742
0.000503293
0.000405325
0.000510596
0.000519783
0.000316057
0.000556282
0.000473144
0.000466706
0.000469319
0.000452683
0.000432242
0.000478695
0.000423816
0.000474927
0.000364761
0.000603305
0.000664849
0.000705863
0.000701443
0.000658189
0.00074507
0.000737885
0.000703712
0.000690511
0.000786364
0.000698356
0.00067927
0.000782167
0.000741079
0.000716619
0.000732676
0.00070343
0.000729973
0.000731976
0.000707404
0.000702763
0.000810473
0.000807817
0.000770589
0.000798811
0.000802643
0.000807311
0.000761827
0.000798434
0.000557752
0.000346786
0.000512655
0.00048829
0.000301656
0.000625065
0.000511284
0.000485594
0.000298764
0.000624611
0.000704013
0.000704502
0.000383652
0.000336824
0.000417915
0.000480143
0.000480638
0.000414489
0.000372328
0.000409319
0.000330673
0.00047548
0.000475372
0.000410993
0.000468659
0.000446071
0.000465098
0.00043499
0.000467884
0.000605505
0.000695532
0.000695646
0.000690481
0.000684952
0.000744093
0.000732493
0.000695032
0.000736645
0.000723424
0.000718638
0.00075381
0.000707174
0.000626134
0.000918742
0.000691081
0.000731922
0.000720959
0.000708829
0.000749976
0.000705868
0.000618126
0.000910436
0.000745396
0.000730189
0.000767604
0.0007261
0.000736179
0.000767559
0.000722072
0.000725616
0.000521972
0.000713073
0.000812083
0.000811117
0.000712705
0.00081686
0.000815563
0.000531094
0.000546763
0.000454607
0.000546659
0.000398205
0.00066296
0.000498573
0.00062339
0.000714314
0.000544044
0.000631867
0.000517923
0.000548238
0.000455027
0.000546834
0.000399186
0.0006534
0.000484675
0.00061792
0.000712901
0.000531782
0.000623988
0.000355602
0.000390417
0.000424647
0.000474962
0.000346735
0.000390422
0.000420822
0.00047496
0.000569649
0.000532964
0.000609308
0.000751082
0.000790892
0.000663958
0.000740978
0.0007921
0.000663546
0.000591185
0.00069726
0.000676371
0.000705664
0.000670829
0.000744089
0.000694108
0.000740822
0.000668948
0.000706978
0.000671936
0.000739806
0.000740516
0.000693436
0.000668401
0.000748998
0.000785905
0.000740368
0.000786192
0.000229486
0.000656954
0.000777475
0.000657051
0.00077784
0.00094674
0.000945596
0.000436286
0.000482298
0.000568847
0.000514263
0.000520296
0.000568017
0.000564851
0.000621177
0.000695054
0.00060898
0.000691174
0.000670872
0.000585096
0.000699831
0.000436631
0.000469806
0.000514294
0.000565808
0.000506598
0.000562892
0.000614996
0.000553228
0.000692157
0.0005989
0.000685783