/*--------------------------------*- C++ -*----------------------------------*\
| =========                 |                                                 |
| \\      /  F ield         | OpenFOAM: The Open Source CFD Toolbox           |
|  \\    /   O peration     | Version:  5.x                                   |
|   \\  /    A nd           | Web:      www.OpenFOAM.org                      |
|    \\/     M anipulation  |                                                 |
\*---------------------------------------------------------------------------*/
FoamFile
{
    version     2.0;
    format      ascii;
    class       volScalarField;
    location    "1.5";
    object      omega;
}
// * * * * * * * * * * * * * * * * * * * * * * * * * * * * * * * * * * * * * //

dimensions      [0 0 -1 0 0 0 0];

internalField   nonuniform List<scalar> 
12160
(
0.0719999
0.0719999
0.0025085
0.0719999
0.00545882
0.00121876
0.0719999
0.00911992
0.0016529
0.00116259
0.0719999
0.0112435
0.00229604
0.00138632
0.00117048
0.0719999
0.0112211
0.00271829
0.00159522
0.0013724
0.00133586
0.0719999
0.0104518
0.00269309
0.00171144
0.00150669
0.0015846
0.00138839
0.0719999
0.00972684
0.00249681
0.00170509
0.00158165
0.00163267
0.00188761
0.00237287
0.0719999
0.00929017
0.00232334
0.00164907
0.00160172
0.00165088
0.00197004
0.00325289
0.0111747
0.0719999
0.00908798
0.00222137
0.00160577
0.00158132
0.00166688
0.00190579
0.00280083
0.00999233
0.0108424
0.0719999
0.00900636
0.00217301
0.00157814
0.00156166
0.00167049
0.0018569
0.00235401
0.00861539
0.0099586
0.0210198
0.0719999
0.00898079
0.00215091
0.00156199
0.00154575
0.0016671
0.00184025
0.00241698
0.00710042
0.0103576
0.0152288
0.0210736
0.0719999
0.00902354
0.00213975
0.0015505
0.00153351
0.00165487
0.0018408
0.00276601
0.00627036
0.0106967
0.0175102
0.0104174
0.0105956
0.0719999
0.00917382
0.00214127
0.0015391
0.00151921
0.00163951
0.00184966
0.00311966
0.00605882
0.0101418
0.0135378
0.00644151
0.00487414
0.00844432
0.0719999
0.00944106
0.00216496
0.00153033
0.00150067
0.00161966
0.00186302
0.00342848
0.00632139
0.00949238
0.0154583
0.00620132
0.00303339
0.00336839
0.00569512
0.0719999
0.00966205
0.00221755
0.00152851
0.00148151
0.00159545
0.00184777
0.00365108
0.00683098
0.00909735
0.0170843
0.00909796
0.00302501
0.00245723
0.00174577
0.0719999
0.00976421
0.00226459
0.001534
0.00146614
0.00157139
0.00178427
0.00374158
0.00717842
0.00889153
0.0171731
0.0112861
0.00297216
0.00235804
0.00175268
0.0719999
0.00974894
0.00228581
0.00153877
0.00145707
0.00155128
0.00169341
0.00368456
0.00732137
0.00868855
0.0168792
0.0136869
0.00327746
0.00208408
0.00158059
0.0719999
0.00963907
0.00227975
0.00153749
0.00145047
0.0015343
0.00160715
0.00352325
0.00730652
0.0083813
0.0163454
0.0156281
0.00369075
0.00212059
0.0015065
0.0719999
0.00946878
0.00225131
0.00152846
0.00144165
0.00151809
0.00155374
0.0033278
0.00716062
0.00792289
0.0155894
0.017254
0.00410912
0.00215969
0.00152544
0.0719999
0.00927535
0.00220903
0.00151289
0.00142923
0.00150149
0.00152804
0.0031664
0.0068937
0.00733547
0.0145128
0.0187043
0.00456007
0.00218849
0.00155019
0.0719999
0.00909405
0.00216218
0.00149353
0.00141338
0.00148283
0.00150378
0.00305578
0.00650808
0.00675377
0.0130471
0.0200486
0.0050134
0.00218285
0.00157629
0.0719999
0.00895245
0.00211905
0.00147344
0.00139552
0.00146174
0.00147579
0.00295471
0.00605321
0.00629628
0.0113245
0.0211518
0.00553623
0.00218069
0.00158772
0.0719999
0.0088698
0.00208578
0.00145532
0.00137758
0.00143952
0.00144486
0.00285664
0.0056153
0.005949
0.00981512
0.0216714
0.00611406
0.00221038
0.00160352
0.0719999
0.00885677
0.00206632
0.00144123
0.00136138
0.00141813
0.00141355
0.00275298
0.00519234
0.00557647
0.00902531
0.0210517
0.00667484
0.00229125
0.00165123
0.0719999
0.00892602
0.00206289
0.00143256
0.00134847
0.00139924
0.00138404
0.00262874
0.00476278
0.00519261
0.00860004
0.0188896
0.00709582
0.0023992
0.0017228
0.0719999
0.00906376
0.00207841
0.00143032
0.00134008
0.00138433
0.00135804
0.00246652
0.00430104
0.00482741
0.00817385
0.0163125
0.00721007
0.0024856
0.00175934
0.0719999
0.00925573
0.00210997
0.00143575
0.00133727
0.00137461
0.00133709
0.00225109
0.00379943
0.00448593
0.00762454
0.0136406
0.00664374
0.00257373
0.00173038
0.0719999
0.00948524
0.00215478
0.00144771
0.0013413
0.00137115
0.00132253
0.0019801
0.003284
0.00415531
0.00689612
0.0106802
0.00561477
0.00251414
0.00166222
0.0719999
0.00973095
0.00220951
0.001465
0.00135116
0.00137539
0.00131602
0.00168505
0.00281318
0.00381537
0.00598842
0.00779008
0.00447092
0.00229358
0.0015974
0.0719999
0.00996926
0.0022695
0.00148637
0.0013656
0.00138623
0.00132093
0.00143086
0.00244609
0.00345956
0.00496703
0.00557617
0.00346362
0.00201645
0.0015036
0.0719999
0.0101754
0.00232911
0.00151016
0.00138346
0.00140228
0.00133559
0.00134552
0.00221566
0.00311552
0.00394967
0.00399629
0.00268965
0.00175634
0.00140267
0.0719999
0.0103264
0.00238213
0.00153454
0.00140338
0.0014223
0.00135694
0.00154608
0.00218691
0.00283183
0.00310021
0.00288623
0.0021241
0.00154302
0.00130872
0.0719999
0.0104041
0.0024226
0.00155755
0.00142409
0.00144496
0.00138327
0.00179762
0.00241308
0.00275254
0.00251559
0.00214472
0.00172239
0.00137882
0.00122853
0.0719999
0.0103972
0.00244571
0.00157735
0.00144438
0.00146907
0.00141308
0.00203545
0.00274209
0.0029884
0.00249855
0.00166833
0.00145046
0.00125847
0.00116404
0.0719999
0.0103032
0.00244865
0.00159255
0.00146324
0.00149353
0.0014451
0.00222939
0.00313515
0.00329825
0.00306217
0.00171876
0.00127272
0.00117586
0.00111545
0.0719999
0.0101427
0.00243155
0.00160257
0.0014801
0.00151742
0.00147822
0.00237745
0.00354941
0.00361952
0.00380985
0.00222727
0.00129623
0.00112407
0.00108224
0.0719999
0.0100173
0.00240074
0.00160837
0.00149516
0.00154027
0.00151135
0.00249112
0.00394676
0.00393123
0.00461493
0.00296782
0.00149979
0.00113187
0.00106444
0.0719999
0.00999137
0.00238154
0.00161287
0.00150937
0.00156252
0.00154337
0.00258381
0.00431029
0.0042362
0.00536387
0.00401447
0.00178948
0.00119253
0.00106951
0.0719999
0.0100409
0.0023894
0.00162243
0.00152469
0.00158561
0.00157398
0.00266676
0.00464319
0.00454562
0.00599909
0.00540564
0.00220301
0.00128233
0.0010934
0.0101181
0.0719999
0.00241955
0.00164231
0.00154553
0.00161153
0.00160409
0.00274763
0.00496016
0.00486898
0.00650204
0.00723394
0.00275579
0.00140813
0.00113044
0.00246227
0.0102476
0.0719999
0.00167434
0.00157545
0.00164175
0.00163772
0.00283112
0.00527725
0.00521198
0.0068861
0.00953359
0.00348037
0.00157192
0.00118025
0.00171896
0.00252609
0.0109115
0.0719999
0.0016163
0.00167917
0.00169134
0.00292226
0.00560879
0.00557078
0.00718427
0.011965
0.00440082
0.00177902
0.00124322
0.00167057
0.0017811
0.00278394
0.0123454
0.0719999
0.00172731
0.00177208
0.00304917
0.00595928
0.00592506
0.00743524
0.0141288
0.00549314
0.00203044
0.00132046
0.00178982
0.00174236
0.00196388
0.00333521
0.0161587
0.0719999
0.00188168
0.00322373
0.00629347
0.00624579
0.00769432
0.0160591
0.00664818
0.00231656
0.00141163
0.00202688
0.00187243
0.00191834
0.00228597
0.0047312
0.0248195
0.0719999
0.00343879
0.00657912
0.00654576
0.00813283
0.0179398
0.00769767
0.00260797
0.00151406
0.00368735
0.00222076
0.00207159
0.00214297
0.00299088
0.00815669
0.0451439
0.0719999
0.00678875
0.00686122
0.00910163
0.0197522
0.00842988
0.00284982
0.00162183
0.00690798
0.0039701
0.00260249
0.00227164
0.00247849
0.00473289
0.0151476
0.0675568
0.0719999
0.00722484
0.0103038
0.0208295
0.00870777
0.00296782
0.00172371
0.00770014
0.00696072
0.00441569
0.00288449
0.00243939
0.0031918
0.00832037
0.0258978
0.0704081
0.0719999
0.011482
0.021339
0.00869965
0.00295373
0.0018032
0.0126897
0.00832255
0.00707982
0.00459637
0.00298253
0.00263642
0.00505089
0.0154714
0.0333147
0.0909977
0.0719999
0.021439
0.00849211
0.00292586
0.0018891
0.0207769
0.0138148
0.00953387
0.00718419
0.00451835
0.00291616
0.00343066
0.0102799
0.0263798
0.0536577
0.109984
0.162193
0.00802048
0.00285203
0.00195472
0.00739861
0.0187562
0.0149541
0.0103163
0.00726824
0.00424033
0.00301347
0.00645895
0.0209767
0.0499157
0.0921364
0.147775
0.0927392
0.0568889
0.00279293
0.00197432
0.00263367
0.00580367
0.015589
0.0146469
0.0104485
0.00727125
0.00404931
0.00432539
0.0139772
0.0429686
0.0855391
0.13408
0.099556
0.0678156
0.0775993
0.0568889
0.00195606
0.00189287
0.00231993
0.0045844
0.0125695
0.0139313
0.0102145
0.00728131
0.00446812
0.00804649
0.0305548
0.0777911
0.126956
0.0987392
0.0688054
0.081943
0.0718687
0.0803226
0.0568889
0.0017228
0.00213126
0.0037161
0.0103897
0.0135952
0.0098396
0.00746129
0.00580827
0.0163272
0.0613433
0.115454
0.0906312
0.0694496
0.0680673
0.213787
0.100737
0.0801646
0.0865821
0.0568889
0.00155003
0.00203622
0.00321795
0.00852203
0.0134769
0.00945952
0.00801151
0.00812348
0.0358825
0.0943889
0.0729771
0.0646577
0.0577327
0.121451
1.12985
0.415264
0.146369
0.0923371
0.0961445
0.0568889
0.00146389
0.00197856
0.00287044
0.0067758
0.0132328
0.00900992
0.0085809
0.0134411
0.0694831
0.0523509
0.0533608
0.0507283
0.0791747
0.466054
5.23119
2.48347
0.815508
0.254791
0.117542
0.106668
0.0568889
0.00142961
0.00193055
0.00257099
0.00508632
0.0129357
0.00867076
0.00937074
0.034897
0.0326041
0.0394126
0.0422035
0.0530261
0.181497
1.89987
39.6226
12.5398
39.6244
19.9468
19.9732
4.95578
1.52947
0.478802
0.170818
0.121621
0.0568889
0.00140956
0.00185901
0.00231719
0.0038996
0.0120633
0.00865334
0.0112394
0.018307
0.0262342
0.0322709
0.0373707
0.0824646
0.588565
6.58024
77.1677
112.231
22.2749
77.1994
92.3062
92.3661
112.392
42.8838
42.8845
8.64511
2.75769
0.938333
0.280503
0.144697
0.0568889
0.00137486
0.00177841
0.00209574
0.00327786
0.012242
0.0096391
0.0105604
0.0153216
0.0228523
0.0270282
0.044235
0.163509
1.30868
20.202
20.2743
7.3501
7.3649
211.309
287.538
35.8667
68.0171
211.555
199.347
199.564
287.631
98.0985
98.2395
13.3726
4.79741
1.77863
0.440738
0.16876
0.0722509
0.00132881
0.0017027
0.00201152
0.00311461
0.0168738
0.0132255
0.0127978
0.0146984
0.019146
0.0261153
0.0564526
0.249172
2.41198
2.41393
1.56815
1.56662
17.1542
17.1468
5.9324
5.93073
365.409
284.775
622.648
352.762
519.893
49.1423
95.3566
283.311
283.337
302.022
302.024
365.493
355.564
355.655
284.73
623.806
353.092
519.505
110.259
95.1223
66.1546
193.591
110.436
95.3537
66.2008
193.825
18.3756
7.60326
2.70463
0.56049
0.189122
0.0727869
0.0012822
0.00168936
0.00214696
0.00351015
0.0451336
0.0396545
0.047691
0.0218011
0.0177385
0.0260392
0.0605974
0.550621
0.546336
0.39927
0.394195
2.07358
2.07523
1.30358
1.3002
16.2363
73.6234
12.4772
13.3817
11.7278
46.1632
73.4008
16.2287
12.4423
13.3559
11.7009
46.0612
5.1298
4.45734
5.34507
4.65967
5.12689
4.45463
5.34779
4.64827
412.69
699.571
411.678
704.137
267.667
716.701
391.287
534.128
54.9372
120.696
300.285
300.331
279.05
278.943
282.014
281.992
313.581
313.619
412.315
699.942
411.65
703.223
382.885
558.205
346.244
644.783
383.222
560.361
346.944
645.513
267.209
717.81
391.676
533.299
94.5144
182.406
94.2537
181.489
23.5269
10.4138
3.16857
0.594037
0.203497
0.0704839
0.00127935
0.00173003
0.00236234
0.0112323
0.368972
0.301988
0.277139
0.104816
0.111446
0.140881
1.5401
1.54752
2.6994
2.71696
0.537597
0.531976
7.57005
7.6325
1.91935
1.61574
1.94804
1.58974
1.92163
1.616
1.95338
1.58871
2.72843
1.17491
1.99418
1.05719
2.7604
1.17805
1.99539
1.05403
53.0938
14.5982
11.1165
32.8199
11.5834
9.61711
52.8786
14.5808
32.7279
11.0773
11.534
9.58249
5.04517
3.76016
4.96089
4.03673
5.06514
3.7582
4.96009
4.02683
451.824
806.7
456.161
795.867
231.867
717.176
388.113
480.875
59.6159
126.784
304.331
304.307
296.355
296.335
290.825
290.836
258.689
258.767
342.795
217.502
393.879
242.415
344.686
218.034
394.791
242.667
501.5
592.014
302.917
447.693
275.185
350.583
502.123
593.749
303.153
448.298
275.375
351.35
451.417
807.038
456.111
795.322
408.004
716.259
408.195
716.591
231.225
718.023
388.498
479.375
72.7364
141.556
72.487
140.647
28.3595
10.9113
2.99139
0.520232
0.221607
0.0757924
0.00131805
0.00186615
0.00275564
0.105565
2.6682
1.55753
1.23089
1.21114
1.898
4.11889
4.14742
6.36155
6.36678
46.0098
46.1429
59.9529
60.1584
8.45731
2.28978
30.9331
9.50955
8.61936
2.34563
31.5801
9.7176
189.516
99.3344
93.3724
38.4342
190.293
99.7618
94.4004
38.8555
7.59567
2.33436
20.3723
5.79092
7.70015
2.34948
20.4168
5.81746
38.9452
13.3863
35.9816
10.7073
39.2517
13.5694
35.9184
10.7563
466.335
819.268
462.804
824.615
60.2732
129.525
303.016
303.146
299.064
299.18
333.3
332.69
314.605
314.315
310.269
201.494
276.649
187.424
313.324
201.211
280.973
187.552
273.832
182.063
268.18
180.731
279.268
183.258
273.901
181.447
302.659
180.635
388.121
224.473
305.044
181.471
388.315
224.528
631.358
509.632
296.241
360.493
458.729
265.463
633.09
510.095
296.409
361.266
458.859
265.49
465.572
819.051
462.612
823.071
415.553
728.476
415.754
728.95
26.4602
9.20042
2.25298
0.408593
0.260786
0.0960023
0.0013725
0.0020215
0.0142871
0.808582
11.6381
6.07072
6.96061
5.80905
34.57
71.7474
72.0619
78.9112
79.1293
345.353
345.28
359.569
359.857
104.862
39.8476
278.949
117.097
105.98
40.6285
282.8
119.436
605.29
318.294
534.508
262.746
607.437
319.718
537.847
265.216
157.208
63.9364
157.894
64.4443
50.8087
109.491
288.145
288.687
310.308
310.442
352.997
352.895
334.188
334.088
458.392
299.525
440.751
271.935
456.806
298.812
439.697
270.95
354.911
224.636
403.026
248.742
357.007
224.303
403.67
248.138
269.753
166.408
234.577
146.61
271.769
167.142
237.391
147.762
219.846
136.681
214.276
134.792
227.013
139.142
220.604
137.006
21.3011
6.72065
1.22282
0.360469
0.337428
0.125528
0.00146492
0.00393178
0.172749
4.29252
30.4974
27.9232
16.514
19.4037
302.499
302.592
280.363
280.49
340.071
340.162
325.487
325.797
432.686
737.051
430.815
740.056
432.619
736.896
430.891
739.9
439.27
731.158
431.656
747.765
439.345
732.666
432.192
747.757
359.645
154.534
584.453
286.097
361.29
155.791
587.149
288.099
830.261
455.104
756.222
400.64
833.135
456.85
759.278
402.935
41.067
83.5984
201.65
335.829
336.438
364.101
363.825
392.306
391.887
351.647
351.549
443.856
284.43
417.798
250.236
443.626
284.295
418.808
250.563
322.792
195.56
368.435
221.714
324.098
196.132
369.871
222.309
239.602
148.01
242.297
149.161
15.3019
3.43373
0.619755
0.452282
0.43564
0.0993358
0.00177955
0.0383157
1.4156
15.4105
54.3982
65.9497
55.7614
61.273
440.4
440.181
398.303
398.141
702.782
414.301
413.393
686.162
703.763
414.674
413.268
685.872
464.585
464.555
492.673
847.701
478.502
873.647
492.532
848.237
478.733
873.133
501.297
866.74
490.343
887.236
501.285
868.167
491.014
887.074
869.035
481.884
872.145
483.459
30.0849
68.7592
132.434
426.523
426.449
436.146
435.513
407.752
407.853
421.782
420.055
337.035
603.673
356.614
568.394
337.447
602.464
355.358
569.966
318.469
487.305
291.445
534.095
318.497
487.245
291.325
534.609
434.427
258.387
378.657
227.448
436.178
259.118
380.559
228.358
280.459
171.554
330.335
199.723
282.364
172.47
332.367
200.689
8.28405
1.47371
0.587409
0.707706
0.310187
0.00551835
0.407489
7.23463
38.7895
78.2761
118.176
268.541
302.583
302.591
479.78
482.222
748.279
455.702
718.926
450.306
749.048
455.918
720.519
450.609
473.694
473.619
839.461
475.093
467.045
808.218
840.561
475.585
466.969
808.267
767.388
468.81
774.087
472.115
768.858
469.167
774.295
472.156
512.134
899.297
508.37
907.09
512.35
900.995
509.075
907.905
17.6226
51.4374
109.61
226.873
485.834
485.174
505.973
503.755
481.88
481.009
631.57
373.808
401.439
657.366
626.777
370.94
399.258
652.911
347.125
628.655
362.64
600.566
346.968
629.657
363.004
600.425
325.863
496.6
290.839
560.952
325.144
497.215
290.994
559.556
428.781
254.219
432.467
255.677
3.79604
1.15159
1.09526
0.675785
0.0697459
2.66416
23.5757
67.5735
109.511
204.906
602.444
602.847
615.572
615.726
485.16
484.262
622.328
621.482
846.469
484.836
806.301
474.36
847.155
485.176
807.058
474.65
455.866
682.41
440.838
734.219
455.895
684.263
441.185
734.346
883.794
500.015
494.067
867.46
883.919
500.207
493.857
866.956
865.839
495.139
861.816
494.351
867.188
495.663
861.964
494.457
8.88793
32.6328
80.4638
188.633
424.113
423.706
490.302
489.815
560.652
559.358
774.598
452.129
789.552
470.796
767.726
448.24
785.193
467.673
765.515
445.16
720.716
419.995
689.752
403.63
762.777
443.071
721.752
420.278
686.675
402.229
659.135
379.941
657.806
379.288
352.847
629.14
364.57
607.368
352.587
631.284
365.259
607.181
2.62117
1.93375
1.22386
0.656006
11.1672
48.7691
90.9699
150.218
308.168
629.108
628.678
584.793
584.63
813.49
612.16
465.682
934.439
524.035
396.986
612.852
804.977
397.019
462.313
929.95
521.32
1011.04
573.955
1007.32
564.547
1009.14
572.437
1003.05
562.205
875.493
496.999
854.221
487.797
876.087
497.319
854.697
488.02
449.557
753.962
449.438
753.64
500.542
881.251
500.401
881.009
881.629
501.024
883.06
501.559
5.65502
18.1611
53.0369
125.582
373.706
373.877
410.201
409.971
479.566
478.398
548.734
547.769
494.754
830.337
489.705
856.658
486.211
847.675
492.746
827.065
486.964
853.511
483.901
843.651
817.465
466.252
813.939
464.373
802.114
456.725
754.453
692.005
431.162
399.991
801.042
456.042
755.792
691.865
431.975
399.827
663.82
383.963
664.977
384.342
3.37525
2.01412
3.73688
28.379
69.5377
110.295
178.757
413.377
413.264
333.84
333.879
609.937
609.089
491.479
491.263
657.309
844.144
477.951
411.793
927.108
516.809
654.557
840.797
410.447
476.554
924.026
515.182
938.641
534.121
968.17
540.967
936.673
532.619
965.267
539.266
840.499
480.575
840.776
480.716
5.67714
11.4315
32.3691
79.5632
211.493
417.802
417.799
450.948
450.288
714.675
430.306
728.195
426.788
712.389
428.436
727.63
426.407
810.336
880.113
467.446
762.918
444.26
500.74
809.053
877.582
466.626
761.862
443.368
499.277
503.132
491.038
886.214
863.742
501.098
488.948
882.27
859.997
827.067
470.776
824.779
469.605
804.324
458.441
691.496
403.791
804.364
458.305
692.518
404.271
3.10817
12.5691
46.7946
81.2881
112.611
161.765
356.044
355.761
322.537
322.171
420.293
797.648
459.249
712.317
419.209
795.26
458.101
709.952
423.15
422.908
843.232
480.368
855.559
484.198
841.916
479.355
853.845
483.224
4.54618
9.49389
20.9244
51.0086
117.424
352.439
352.665
439.036
438.865
462.217
461.791
517.714
516.599
779.603
447.606
772.293
440.467
780.538
448.16
776.051
442.362
868.192
800.415
491.405
458.824
782.416
447.429
867.8
799.659
458.448
490.916
783.08
447.895
492.683
864.752
490.855
861.157
25.8825
57.2477
77.2984
77.4858
279.505
278.762
222.535
221.691
373.887
372.193
318.597
316.942
392.028
724.53
418.856
673.738
391.653
722.468
417.967
673.124
574.288
339.722
605.835
352.101
574.051
339.037
604.701
351.609
767.298
439.306
766.148
438.55
6.34334
15.5365
34.1428
73.5528
179.007
364.009
364.143
455.967
455.142
532.798
530.129
443.869
775.636
449.697
735.289
441.222
772.97
448.389
730.746
793.955
451.659
785.605
448.225
796.845
453.028
790.516
450.576
35.0655
54.7819
45.9331
69.3743
193.261
188.875
154.564
152.824
584.3
334.446
307.04
538.102
311.688
510.421
579.155
332.098
300.97
525.2
306.843
490.32
273.181
265.93
373.694
677.643
393.027
642.292
372.903
676.269
392.383
639.981
598.815
341.01
596.4
339.969
8.47292
23.9831
49.9027
104.21
284.198
284.483
346.991
346.99
362.9
363.832
473.815
472.515
725.278
436.258
792.934
456.672
801.75
462.283
717.856
430.555
784.576
451.994
794.847
458.836
799.402
456.014
797.236
455.086
799.854
454.959
802.984
456.308
34.1212
33.29
35.15
150.473
150.216
104.584
104.446
168.91
166.919
167.094
166.556
565.617
323.094
282.227
488.29
289.281
469.954
558.424
320.442
276.086
477.539
285.501
451.811
309.778
213.949
385.274
238.189
280.602
201.586
356.486
223.953
10.8253
34.3261
68.6846
159.982
319.306
319.064
376.848
375.908
436.544
435.398
746.204
432.332
371.497
667.34
394.338
586.299
371.897
666.405
393.753
587.645
742.853
430.046
783.172
804.78
448.191
459.525
775.461
798.484
445.045
456.656
785.3
453.746
782.61
452.762
18.0376
23.5463
43.913
169.418
169.225
110.927
110.804
218.532
160.362
179.891
244.942
173.596
243.585
209.391
158.094
180.256
248.238
174.676
243.291
190.774
190.647
244.829
400.243
238.58
385.161
269.289
183.251
251.295
174.055
13.2194
46.2704
94.4298
261.051
261.055
304.012
303.779
322.692
322.261
403.066
401.136
566.462
358.415
633.037
371.043
649.846
380.452
560.501
648.562
379.552
354.05
629.635
369.247
719.742
416.967
663.04
384.798
663.835
717.116
384.918
415.629
11.7993
30.1752
41.978
166.568
166.348
104.913
104.723
233.067
158.2
192.522
302.123
188.111
287.103
234.025
157.939
192.269
303.173
189.401
284.813
259.08
196.166
299.049
204.079
255.377
193.682
295.158
202.553
232.339
160.008
228.308
157.185
15.5966
60.1592
131.989
292.159
291.747
318.434
317.186
374.239
371.929
607.446
355.642
325.907
557.094
332.457
488.864
603.773
353.416
323.29
552.508
330.212
484.335
634.793
659.38
363.789
378.968
657.584
378.051
631.795
362.422
14.9612
22.6146
106.12
106.996
106.873
106.077
81.284
81.5564
159.594
275.713
199.827
159.621
272.467
197.724
278.249
175.286
207.346
340
202.682
343.526
279.652
176.532
205.668
336.488
202.46
337.491
330.625
210.554
325.965
208.17
17.7986
76.2996
175.653
305.189
304.586
349.42
347.437
471.687
325.28
527.983
315.623
541.575
322.656
462.686
535.198
318.917
318.781
521.774
312.311
604.559
347.04
557.611
324.372
602.105
345.706
554.446
322.921
626.674
358.794
624.538
357.837
10.4003
16.5618
120.948
159.588
120.785
159.39
119.551
119.637
249.9
263.583
190.319
266.18
196.908
193.191
205.901
189.988
260.042
244.767
187.866
263.529
194.906
190.385
202.894
186.646
214.187
355.955
211.762
348.554
326.262
209.723
321.927
207.22
19.4632
93.555
276.179
330.397
329.754
275.996
329.625
329.302
376.978
501.593
317.47
375.913
495.823
313.658
550.414
526.389
318.21
307.474
546.203
316.324
522.181
305.519
590.373
341.298
561.575
329.252
588.475
340.556
559.683
328.648
5.33777
23.2837
175.001
178.976
207.338
176.723
174.528
177.911
205.663
176.613
124.934
125.112
286.947
265.28
306.663
202.275
191.09
183.632
280.659
302.466
261.575
199.979
187.651
181.561
213.862
346.007
211.173
340.153
19.971
117.52
294.458
352.975
352.372
293.691
345.403
343.819
494.048
526.32
312.482
517.841
317.739
298.764
449.557
318.595
493.485
525.728
311.602
513.729
314.872
298.53
446.712
315.582
556.746
537.695
323.04
313.696
553.17
321.92
534.635
312.629
3.75174
174.167
145.016
144.69
173.615
127.501
127.267
276.564
189.584
261.199
188.18
242.022
212.941
321.809
224.762
209.57
291.241
210.715
272.263
189.868
261.051
187.972
242.192
209.31
314.922
221.085
209.413
286.8
207.174
283.366
283.378
187.119
191.427
278.303
283.059
184.34
191.322
18.6895
105.764
265.993
399.126
310.272
482.945
396.798
310.924
484.148
263.638
350.914
345.734
518.167
489.885
544.037
299.482
316.233
287.813
520.798
491.832
543.465
316.357
300.528
288.497
556.039
325.8
553.045
325.326
16.581
202.751
203.164
202.384
202.854
148.731
148.649
285.7
346.208
222.735
193.135
356.073
226.532
363.881
327.237
224.953
324.434
227.728
246.711
312.45
233.088
285.626
338.917
192.979
219.017
348.895
222.178
324.718
358.329
223.104
320.877
224.717
243.841
309.716
231.049
13.218
85.6271
242.459
240.02
85.8923
90.4941
88.0452
504.162
316.124
545.522
323.799
509.625
345.278
567.868
337.379
488.759
315.072
540.873
320.748
508.579
334.835
557.201
331.773
339.856
525.697
331.648
334.514
506.419
319.164
506.709
513.582
296.573
301.336
510.076
514.474
297.761
301.443
21.9041
210.744
222.198
310.072
225.005
210.552
222.99
311.097
224.753
167.572
167.532
363.551
228.4
380.316
237.074
390.349
365.568
371.514
233.275
242.87
231.396
356.066
224.054
374.022
233.138
383.067
367.822
365.204
230.814
238.577
231.61
8.89035
64.5313
179.24
177.422
64.1392
58.5685
55.2821
536.366
565.791
311.9
326.681
562.334
326.042
534.781
557.487
311.164
323.026
548.889
319.277
362.729
463.91
280.812
511.209
315.683
245.336
351.369
271.705
348.134
447.444
271.869
491.222
303.29
238.353
342.306
265.287
59.4163
166.383
166.514
219.145
216.807
302.743
219.362
297.566
220.49
219.065
218.629
301.449
218.312
300.083
220.314
393.998
379.184
345.884
241.654
233.862
218.473
387.205
377.129
348.072
237.474
232.574
220.039
14.4979
64.8241
172.314
227.277
301.972
168.713
226.575
297.793
63.9279
27.9536
38.3516
574.201
331.615
553.365
317.773
562.889
327.12
536.49
310.17
400.514
285.683
504.1
240.131
293.068
183.59
388.275
273.604
487.201
286.757
236.222
179.421
22.7528
178.585
141.264
178.675
141.327
202.421
216.674
304.47
221.329
295.27
350.792
221.092
174.258
202.549
218.618
303.499
220.323
298.019
347.621
219.402
174.313
354.571
219.681
356.299
220.353
22.5737
110.648
110.512
134.292
229.944
300.229
232.33
296.213
132.796
227.497
290.164
225.516
290.793
73.7073
77.1192
329.339
443.917
264.81
218.703
270.975
167.094
322.264
431.04
252.483
268.801
218.463
163.03
22.1847
138.569
159.204
138.585
159.317
143.167
143.23
162.909
204.465
266.49
201.814
269.478
208.882
347.404
220.216
325.063
353.116
220.554
163.076
207.563
268.757
203.057
273.65
211.172
344.849
218.58
329.529
349.163
218.383
26.4346
144.454
181.741
144.99
182.248
138.688
197.615
275.874
207.12
262.286
238.895
151.801
138.14
201.557
271.648
204.616
267.695
229.666
148.467
150.42
151.18
293.425
197.808
284.501
196.868
19.1604
175.945
182.191
176.228
182.256
176.278
204.19
176.077
204.067
180.919
180.694
178.874
236.722
184.93
235.666
190.902
284.544
190.282
285.91
210.268
351.724
219.862
330.916
180.063
237.488
184.977
237.278
194.636
287.77
192.024
292.63
211.467
348.172
217.631
333.866
20.515
183.667
188.947
184.203
189.235
210.629
210.948
195.927
201.323
281.025
211.092
266.586
150.538
225.944
146.869
228.424
264.333
175.888
195.629
204.613
276.635
207.585
271.953
150.973
220.795
144.625
231.127
256.878
174.48
2.77887
162.621
138.696
162.666
138.565
248.975
261.711
248.882
261.537
183.44
209.772
183.385
209.702
203.504
289.448
201.459
294.681
204.171
290.84
202.346
295.649
183.08
262.464
179.27
271.987
184.227
263.429
179.689
274.254
12.9782
171.57
125.446
171.672
125.741
225.567
227.868
225.661
227.752
252.548
252.127
229.844
304.229
235.886
297.148
164.211
258.429
170.173
252.285
176.439
256.939
166.884
268.598
231.585
299.598
232.121
299.835
165.569
259.58
170.395
256.943
176.219
253.945
165.846
268.89
24.642
4.29429
234.657
193.621
234.384
193.153
270.51
290.182
270.395
289.955
199.62
260.035
197.641
258.23
211.834
316.566
227.683
283.011
202.106
263.03
199.878
261.294
213.294
316.794
227.459
284.904
219.018
340.506
213.623
353.062
219.414
342.295
214.714
354.169
10.0062
66.1889
79.891
66.603
80.3028
200.632
129.047
200.201
131.402
277.512
281.54
276.227
280.3
239.314
368.523
254.367
320.243
240.926
363.372
251.609
322.541
200.961
268.712
180.015
288.256
201.498
270.244
180.647
289.966
14.165
160.156
134.982
159.966
135.201
7.26841
260.568
231.044
260.257
230.727
269.99
388.203
265.716
394.738
288.619
428.463
289.853
426.559
271.542
389.592
266.198
397.396
289.221
426.902
288.617
427.656
197.204
293.565
197.916
288.332
209.518
361.975
233.599
311.686
199.409
297.627
200.292
292.181
210.54
361.996
233.508
313.472
18.1939
76.095
79.3964
100.723
81.3925
100.626
267.795
220.866
265.207
220.191
261.149
387.753
260.973
385.054
259.653
399.996
266.032
383.407
260.149
380.3
257.114
382.456
259.961
392.814
261.726
383.239
212.43
383.558
238.111
320.155
212.318
379.864
237.493
320.299
19.0337
119.873
68.3116
120.083
68.7088
231.449
190.204
231.355
190.145
9.93251
261.667
390.455
267.297
380.355
250.719
355.355
256.144
362.766
262.795
389.161
266.406
382.06
251.047
352.551
253.982
363.151
270.93
430.066
266.684
440.121
290.796
489.673
295.168
480.434
273.147
431.892
267.532
444.435
291.904
485.862
293.199
482.567
21.6101
110.337
172.746
197.007
170.223
194.505
195.904
163.089
195.815
162.927
256.263
404.385
267.24
374.801
250.503
345.001
258.412
345.84
253.81
393.22
260.732
369.692
251.962
340.991
255.439
345.934
253.679
410.662
249.351
418.294
253.326
419.3
253.072
415.675
252.855
404.624
248.442
413.417
252.751
415.448
252.118
413.288
40.0686
21.6954
152.987
74.842
152.841
74.9356
371.337
413.607
248.157
363.363
248.067
272.03
296.28
220.63
319.456
223.147
368.042
407.602
246.048
359.198
244.888
268.862
290.988
216.448
313.977
219.161
10.2537
267.118
453.417
274.844
438.687
263.502
426.559
268.47
450.171
273.352
440.261
263.485
425.601
293.362
500.152
296.96
490.856
293.456
495.149
294.056
491.707
21.6076
100.265
254.798
271.425
254.098
271.235
269.543
281.318
266.357
277.706
240.943
344.112
252.614
327.347
223.765
331.775
241.266
321.238
239.955
339.034
247.225
326.342
224.964
328.755
236.099
320.045
236.203
419.749
251.481
393.547
216.81
304.466
193.233
353.961
235.154
412.875
250.082
386.042
215.553
298.013
191.391
348.526
37.3846
84.2797
100.77
84.5093
100.903
20.9219
164.369
93.9662
163.851
93.9138
453.015
421.82
275.087
258.864
425.972
260.29
339.475
231.507
386.946
241.321
444.739
417.012
270.529
256.075
418.765
255.975
330.721
226.681
377.951
236.096
21.5864
269.804
464.391
277.693
449.556
268.081
443.137
270.198
460.525
275.444
450.562
266.756
440.408
19.8655
83.3994
197.826
320.807
350.429
319.432
349.796
367.59
334.622
244.75
403.321
275.437
246.188
435.165
319.611
427.484
293.368
331.857
361.04
239.297
394.298
268.381
241.9
427.489
313.437
418.862
286.554
192.785
300.708
193.444
291.564
203.958
325.659
192.091
297.795
191.784
291.514
203.094
324.756
224.97
282.99
192.844
353.373
225.803
278.322
192.601
349.741
31.9531
84.8122
93.9794
84.854
93.5931
125.079
139.15
125.544
139.199
39.554
179.504
242.711
177.243
221.064
168.462
181.694
187.389
172.777
180.375
242.085
176.776
221.874
168.478
180.273
184.571
173.065
456.871
274.491
362.243
229.755
391.68
242.375
448.983
270.057
352.071
224.502
382.127
237.079
37.5295
17.4636
64.9009
147.78
406.078
371.235
404.639
370.584
395.123
413.572
392.633
410.893
314.419
366.449
220.494
201.323
407.678
242.992
480.482
294.135
433.973
257.314
316.053
364.427
200.009
219.311
405.5
241.918
476.525
292.663
432.557
256.237
163.631
239.81
174.53
235.442
182.099
287.63
164.212
239.814
175.142
238.95
182.911
293.866
59.0065
58.087
125.423
109.53
125.123
108.708
217.694
204.483
177.325
230.568
186.818
174.568
243.6
187.397
252.296
190.138
216.593
200.256
175.441
229.899
185.181