/*--------------------------------*- C++ -*----------------------------------*\
| =========                 |                                                 |
| \\      /  F ield         | OpenFOAM: The Open Source CFD Toolbox           |
|  \\    /   O peration     | Version:  5.x                                   |
|   \\  /    A nd           | Web:      www.OpenFOAM.org                      |
|    \\/     M anipulation  |                                                 |
\*---------------------------------------------------------------------------*/
FoamFile
{
    version     2.0;
    format      ascii;
    class       volScalarField;
    location    "1.5";
    object      p;
}
// * * * * * * * * * * * * * * * * * * * * * * * * * * * * * * * * * * * * * //

dimensions      [1 -1 -2 0 0 0 0];

internalField   nonuniform List<scalar> 
12160
(
5313.13
5325.59
4659.18
5333.04
4671.76
4005.55
5338.53
4679
4018.34
3351.62
5342.85
4684.67
4026.08
3364.79
2698.45
5346.13
4688.98
4031.21
3371.59
2712.21
2044.05
5349.77
4692.02
4035.32
3377.76
2719.88
2059.08
1391.24
5355.63
4695.31
4037.92
3381.85
2724.95
2065.22
1407.28
736.223
5365.59
4700.81
4040.5
3383.69
2728.81
2072.08
1413.08
755.31
210.807
5379.79
4710.25
4045.36
3385.11
2729.65
2076.19
1420.13
759.895
221.008
3.00639
5397.79
4724.82
4055.06
3388.8
2729.42
2075.73
1424.21
768.72
224.38
1.90356
-6.6608
5417.76
4743.19
4069.35
3396.99
2731.57
2073.18
1422.27
775.077
232.612
3.66495
-6.84409
-7.46934
5437.47
4763.64
4088.28
3412.13
2740.14
2072.94
1416.59
772.807
240.672
6.10126
-6.8156
-7.48804
-8.23842
5454.82
4783.86
4109.7
3432.31
2754.77
2079.04
1413.19
764.13
240.79
10.1959
-6.82965
-7.50736
-8.17641
-8.79034
5468.4
4801.38
4130.91
3455.3
2776.16
2094.65
1418.77
756.906
234.348
12.5133
-6.80488
-7.52562
-8.16115
-8.81248
-9.52384
5477.65
4815.22
4149.7
3478.12
2801.33
2118.21
1434.4
760.866
227.678
12.3465
-6.76841
-7.53792
-8.17106
-8.82369
-9.49239
5482.69
4824.51
4163.58
3497.51
2826.43
2146.49
1460.25
775.485
228.497
11.4869
-6.68749
-7.53228
-8.17707
-8.8303
-9.481
5484.32
4829.41
4172.66
3512.33
2848.53
2174.69
1492.47
802.511
239.355
12.1956
-6.59972
-7.49928
-8.17986
-8.83374
-9.48244
5483.58
4830.76
4177.13
3521.44
2863.24
2197.59
1524.9
838.466
260.163
15.0686
-6.50992
-7.46005
-8.16046
-8.83118
-9.48353
5481.58
4829.67
4177.84
3525.37
2871.94
2214.72
1554.25
874.614
288.346
20.619
-6.39866
-7.4415
-8.13697
-8.81909
-9.48452
5479.39
4827.31
4175.99
3525.14
2874.97
2223.35
1568.62
903.429
318.975
29.314
-6.22468
-7.44283
-8.12355
-8.80511
-9.48114
5477.85
4824.79
4172.87
3522.15
2873.38
2225.34
1576.49
922.807
344.48
40.2266
-5.92446
-7.46745
-8.12478
-8.79818
-9.47759
5477.56
4822.99
4169.67
3517.87
2868.78
2221.94
1577
931.313
359.578
50.1032
-5.41155
-7.51504
-8.14378
-8.79991
-9.47605
5478.83
4822.54
4167.35
3513.65
2862.89
2215.18
1571.23
930.621
364.552
55.9164
-4.73355
-7.57241
-8.17943
-8.81102
-9.47753
5481.68
4823.75
4166.57
3510.53
2857.26
2207.14
1561.69
921.969
361.64
57.5988
-4.14827
-7.6178
-8.22348
-8.83155
-9.48182
5485.89
4826.66
4167.67
3509.23
2853.04
2199.61
1550.96
908.912
352.441
56.207
-3.9253
-7.63195
-8.25726
-8.85577
-9.48866
5490.99
4831.02
4170.68
3510.15
2851.06
2193.94
1541.1
894.801
340.274
52.5905
-4.0033
-7.61872
-8.27104
-8.8747
-9.49491
5496.38
4836.37
4175.36
3513.32
2851.73
2191.02
1533.66
882.009
327.579
48.1151
-4.27504
-7.59152
-8.26438
-8.88182
-9.49898
5501.36
4842.1
4181.22
3518.47
2855.1
2191.33
1529.63
872.269
316.315
43.7763
-4.59144
-7.55599
-8.24476
-8.87982
-9.50091
5505.14
4847.45
4187.61
3525.1
2860.89
2194.95
1529.53
866.675
307.804
40.1619
-4.87345
-7.52151
-8.2171
-8.86911
-9.49926
5507.01
4851.65
4193.75
3532.5
2868.55
2201.57
1533.43
865.833
302.84
37.5675
-5.08833
-7.49126
-8.18918
-8.85366
-9.4958
5506.28
4853.92
4198.8
3539.82
2877.32
2210.58
1540.98
870.098
301.923
36.1366
-5.2315
-7.46597
-8.16449
-8.83757
-9.49101
5502.41
4853.56
4201.93
3546.15
2886.26
2221.13
1551.57
879.036
305.059
35.9028
-5.30549
-7.44706
-8.1441
-8.823
-9.48595
5494.94
4849.98
4202.37
3550.56
2894.35
2232.2
1564.26
891.737
312.074
36.7654
-5.31114
-7.43723
-8.12876
-8.81094
-9.48129
5483.69
4842.71
4199.52
3552.19
2900.55
2242.62
1577.91
907.151
322.339
38.7498
-5.25933
-7.43605
-8.11947
-8.80184
-9.47738
5468.64
4831.45
4192.94
3550.31
2903.86
2251.18
1591.2
924.015
335.186
41.8574
-5.1416
-7.43416
-8.11651
-8.7962
-9.47442
5449.87
4815.97
4182.52
3544.38
2903.45
2256.67
1602.75
940.872
349.653
45.9588
-4.94897
-7.43643
-8.11671
-8.79386
-9.47255
5427.66
4797.78
4168.32
3533.97
2898.77
2258.06
1611.07
956.142
364.588
50.8551
-4.68077
-7.44898
-8.12251
-8.79415
-9.47173
5402.45
4775.51
4148.42
3519.22
2889.61
2254.67
1614.82
967.885
378.655
56.2553
-4.33525
-7.46766
-8.13388
-8.79814
-9.47186
5374.75
4750.08
4125.53
3500.36
2875.28
2245.99
1613.36
974.004
390.552
61.7268
-3.92017
-7.49035
-8.1503
-8.80504
-9.47323
4722.1
5325.75
4099.55
3477.2
2855.44
2231.58
1606.67
974.26
398.696
66.6733
-3.46195
-7.51688
-8.17095
-8.81485
-9.47555
4070.95
4672.54
5251.36
3450.56
2831.38
2212.08
1593.45
967.591
401.874
70.5395
-3.00336
-7.54707
-8.19548
-8.82722
-9.47879
3421.1
4020.25
4597.21
5181.96
2803.64
2187.24
1572.83
956.175
399.385
72.4821
-2.61388
-7.58141
-8.22366
-8.84181
-9.48283
2772.92
3368.72
3942.98
4526.77
5116.67
2158.24
1546.44
934.773
390.026
71.9218
-2.42783
-7.61987
-8.2544
-8.85814
-9.48756
2126.03
2718.18
3288.53
3870.56
4460.97
5074.08
1515.67
907.179
373.37
68.1758
-2.53899
-7.65718
-8.28534
-8.87547
-9.49279
1481.62
2068.42
2633.87
3213.2
3803.9
4417.58
5027.63
875.092
350.26
60.9252
-3.05153
-7.68718
-8.31212
-8.89247
-9.49827
840.035
1420.53
1978.77
2554.68
3145.48
3759.28
4369.18
4992.5
324.118
50.9161
-3.8639
-7.6961
-8.32908
-8.90672
-9.50361
297.333
777.743
1324.14
1894.87
2485.56
3098.82
3709.19
4335.17
4961.34
40.4904
-4.68338
-7.67737
-8.32978
-8.91435
-9.50839
30.9763
253.639
679.919
1234.96
1824.03
2436.68
3048.18
3675.8
4291.77
4914.85
-5.32177
-7.64586
-8.31456
-8.91678
-9.51228
-5.7794
18.4342
191.863
592.998
1162.12
1772.9
2387.9
3017.28
3621.63
4232.97
4886.5
-7.6164
-8.28657
-8.90904
-9.51252
-7.5893
-6.28708
5.91287
144.785
526.623
1109.09
1726.55
2358.57
2959.87
3542.46
4178.76
5006.36
-8.25941
-8.89609
-9.51202
-8.2376
-7.56498
-6.59443
0.211983
113.199
480.82
1065.88
1700.31
2313.04
2895.88
3459.79
4178.73
4715.21
5536.43
-8.88296
-9.51054
-8.87165
-8.21672
-7.4972
-6.66596
-2.18848
93.0811
447.359
1043.29
1669.39
2272.86
2776.74
3432.34
4087.28
4582.74
5302.79
6038.8
-9.50833
-9.50681
-8.8596
-8.16532
-7.44744
-6.69363
-3.25593
80.2437
430.135
1023.29
1652.08
2172.35
2794.1
3476.33
4031.93
4376.37
5119.72
5880.23
6595.56
-9.50667
-8.82974
-8.1289
-7.43049
-6.71055
-3.77423
74.2083
416.218
1027.49
1631.81
2261.7
2907.99
3475.29
3890.88
4082.01
4866.78
5686.18
6479.54
7204.76
-9.49709
-8.80794
-8.11333
-7.42604
-6.71681
-4.0415
68.6243
424.914
1065.4
1717.66
2353.79
2933.73
3390.65
3669.81
3708.72
4532.95
5417.86
6289.44
7114.33
7880.91
-9.48744
-8.79642
-8.10848
-7.42415
-6.71839
-4.39942
68.527
455.681
1132.3
1777.31
2378.56
2873.16
3240.05
3392.18
3285.77
4115.79
5070.88
6026.37
6940.64
7806.87
8620.28
-9.48005
-8.79161
-8.10544
-7.42699
-6.70297
-4.82953
72.6485
507.225
1164.6
1792.95
2333.1
2778.82
3027.77
3024.72
2270.86
3650.09
2272.08
2204.82
2205.84
4636.46
5682.64
6694.32
7646.63
8553.05
9408.16
-9.47556
-8.78836
-8.10252
-7.41842
-6.67595
-5.21165
90.1488
509.031
1161.63
1741.34
2250.42
2605.23
2794.47
2637.42
2387.14
2000.23
4171.43
2390.46
2571.07
2573.52
2000.32
1934.32
1933.14
5290.74
6380.44
7420.52
8413.05
9348.2
10234
-9.47252
-8.78547
-8.08873
-7.38843
-6.64558
-5.41724
87.8479
506.675
1116.53
1654.29
2113.34
2433.44
2519.08
1759.32
1757.9
1788.24
1790.31
2076.84
1727.66
4858.55
3483.47
2077.9
2201.12
2201.64
1721.57
1726.51
1720.99
6038.46
7132.92
8216.03
9229.56
10179.1
11097.3
-9.4702
-8.77713
-8.0648
-7.33604
-6.61888
-5.41873
86.748
475.531
1033.42
1550.68
1970.51
2231.59
1783.39
1785.16
1747.53
1749.01
1570.53
1567.8
1659.19
1654.23
1720.54
1322.57
1214.53
1297.46
1227.91
5676.5
4118.11
2115.02
2117.39
1915.36
1915.78
1716.03
1786.58
1783.51
1319.2
1216.94
1295.65
1224.31
1359.37
1262.27
1421.83
1260.66
1355.89
1263.78
1419.45
1256.57
6847.02
7972.22
9069.12
10075.3
11040.1
11989.1
-9.4663
-8.7623
-8.03401
-7.25207
-6.55365
-5.44131
74.8901
405.693
939.982
1419.32
1786.39
1661.57
1660.97
1525.62
1524.96
1701.37
1695.91
1685.04
1677.59
1189.47
1202.37
1248.3
1228.18
1294.69
1270.95
1199.09
1186.73
1247.6
1232.95
1295.18
1270.05
1322.15
1422.94
1282.53
1355.12
1321.1
1420.86
1282.97
1354.04
1296.68
1186.91
1258.03
1209.76
1164.04
1117.99
1128.55
1145.15
6558.6
5035.13
2779.84
2779.3
2409.78
2410.05
1757.72
1759.77
1523.92
1525.34
1295.6
1190.99
1257.38
1210.43
1324.24
1236.25
1406.09
1224.47
1323.09
1239.88
1404.94
1225.15
1164.87
1121.69
1129.63
1148.14
1211.37
1178.07
1211.43
1179.21
7735.94
8880.83
9946.05
10934.9
11922.2
12916.3
-9.46081
-8.73636
-8.00122
-7.1909
-6.47558
-5.47723
45.0179
337.854
816.429
1265.19
1346.68
1345.91
1185.2
1185.07
1602.98
1592.97
1469.93
1459.19
1335.4
1435.97
1342.68
1433.2
1335.48
1435.3
1346.13
1433.81
1361.25
1474.81
1344.07
1433.54
1361.77
1473.82
1347.91
1434.74
1162.55
1194.88
1194.2
1195.63
1237.08
1230.86
1161.21
1195.25
1195.92
1194.56
1240
1232.1
1323.34
1324.29
1302.25
1306.74
1323.45
1323.53
1304.03
1307.01
1106.91
1097.33
1108.33
1089.24
1070.84
1022.36
1025.04
1061.68
7491.82
6076.08
3651.79
3651.04
3197.43
3195.38
2390.13
2384.44
2035.96
2035.58
1259.46
1351.67
1182.85
1276.86
1272.27
1356.34
1193.68
1280.87
1027.19
1088.19
1095.54
1136.71
1232.24
1176.2
1034.64
1090.84
1097.91
1145.22
1235.37
1177.26
1107.92
1100.38
1109.42
1092.19
1118.85
1086.37
1119.89
1089.36
1071.99
1025.15
1026.31
1063.57
1147.7
1113.82
1147.81
1114.52
8689.07
9802.96
10815.8
11798
12827.4
13881.6
-9.45605
-8.70894
-7.94889
-7.12292
-6.40126
-5.46296
22.8736
265.293
671.165
974.566
975.34
740.911
741.803
1297.47
1292.74
1129.36
1126.37
1330.86
1449.46
1212.16
1347.96
1326.61
1445.85
1211.65
1345.87
1150.41
1301.03
1154.21
1291.91
1151.35
1299.21
1155.2
1291.07
1359.44
1360.66
1366
1362.84
1361.41
1362.27
1367.59
1364.82
1349.98
1382.5
1360.35
1367.1
1353.38
1383.54
1362.03
1368.59
1002.3
1016.73
1024.61
988.599
8486.42
7130.42
4570.63
4570.37
4095.62
4095.02
3361.95
3347.56
2840.71
2830.16
1821.82
1920.59
1641.63
1732.67
1833.36
1924.2
1653.87
1737.25
1351.15
1435.07
1486.12
1581.19
1364.07
1440.3
1499.15
1586
1176.84
1226.62
1107.5
1152.13
1190.2
1231.82
1117.93
1156.28
968.454
992.975
1035
997.641
1054.33
1095.38
973.794
1000.29
1037.76
999.758
1062.61
1098.71
1003.46
1019.21
1025.72
990.926
979.999
961.384
981.679
965.427
9648.32
10697.1
11666.3
12659
13756.2
14872.3
-9.44386
-8.67721
-7.89021
-7.0371
-6.33173
-5.5367
8.36255
189.403
497.629
917.615
916.491
665.149
665.585
1246.68
1243.05
1087.29
1082.5
1285.31
1336.31
1238.67
1293.85
1287.41
1335.78
1240.02
1292.5
1159.23
1231.73
1204.56
1260.52
1157.58
1230.77
1203.4
1259.05
1287.73
1383.23
1294.04
1383.26
9494.98
8260.07
5571.31
5578.19
5035.01
5036.44
4350.77
4340.87
3855.36
3842.4
2634.65
2917.04
2419.01
2604.87
2644.11
2918.37
2426.52
2606.83
2011.48
2138.18
2206.27
2373.38
2018.97
2140.56
2216.42
2375.78
1742.42
1826.68
1572.18
1646.33
1752.99
1829.81
1580.83
1649.51
1296.67
1353.87
1431.7
1496.97
1309.72
1358.95
1442.62
1501.03
10564.2
11561.7
12494.8
13521.8
14706.4
15842.6
-9.43052
-8.63916
-7.8215
-6.92013
-6.26835
-5.58446
1.67959
102.861
400.641
401.176
192.764
193.159
878.077
873.847
633.261
633.953
1049.83
1073.35
1129.04
988.721
1049.26
1071.35
1128.24
987.621
977.572
864.312
930.708
918.623
977.951
865.379
930.174
918.794
1244.31
1325.83
1246.35
1304.95
1248.1
1325.27
1247.75
1303.81
1170.21
1196.77
1201.95
1235.11
1171.53
1197.06
1202.47
1234.85
10446.1
9365.4
8112.77
5433.28
5434.63
4889.78
4882.06
4099.01
4093.57
3536.55
3535.22
2541.91
2687.11
2333.92
2421.83
2549.52
2689.2
2341.45
2424.31
1936.93
2020.56
2125.11
2210.47
1943.99
2023.05
2132.77
2213.02
1713.61
1786.22
1724.5
1789.81
11448.6
12389.9
13324.7
14397.5
15678
16630.3
-9.41455
-8.59302
-7.73922
-6.78208
-6.35386
-5.70023
5.67866
47.473
367.918
366.191
163.144
162.758
771.981
837.137
730.217
645.085
770.449
834.635
728.327
643.784
619.618
617.054
1038.71
1095.46
1110
1029.98
1038.53
1096.28
1110.1
1029.14
966.887
878.568
893.452
959.138
966.987
878.484
893.085
959.197
1159.24
1180.95
1162.45
1181.73
11353.6
10367.6
9319.42
6431.08
6435.67
5787.21
5784.48
5252.52
5251.3
4719.24
4699.32
3371.54
3395.39
3652.7
3152.96
3375.27
3416.06
3658.02
3162.7
3104.71
2662.8
2831.86
2910.07
3106.69
2668.25
2834.21
2915.09
2462.38
2533.27
2254.36
2296.77
2472.64
2536.76
2257.76
2298.34
1869.11
1933.95
2046.99
2100.21
1875.3
1936.17
2051.98
2101.85
12294.1
13196.1
14134.5
15357.5
16480.6
-9.39841
-8.54678
-7.65162
-6.71178
-6.28397
-5.83361
7.58499
69.363
69.2671
35.675
35.5483
352.823
383.093
238.472
273.892
353.051
382.721
239.411
273.545
180.554
180.371
784.812
802.035
697.358
653.813
783.908
801.369
696.696
653.144
465.767
506.088
567.973
602.687
467.486
505.951
568.596
602.498
958.919
869.111
881.499
947.525
959.206
870.884
881.917
949.119
12213.8
11301.7
10352.5
9325.99
6363.56
6350.42
5712.28
5696.08
5158.87
5141.8
3638.63
3937.78
4279.03
3923.71
3653.11
3940.7
4276.54
3921.57
3229.47
3415.34
3499.72
3164.26
3233.2
3430.04
3505.31
3173.98
2979.31
2669.6
2750.52
2909.69
2981.65
2679.3
2753.9
2914.81
2462.69
2528.41
2476.28
2532.46
13102.8
13973.1
14988.8
16150.4
-9.38357
-8.51394
-7.59946
-6.44511
-5.46098
-2.83644
14.9199
14.2948
13.5334
13.4501
131.566
130.701
63.0197
62.6119
362.06
371.989
249.718
267.161
362.218
372.093
249.972
267.169
219.079
133.211
140.813
205.869
219.022
133.773
140.848
205.855
787.3
798.929
700.011
685.963
787.391
798.977
699.948
685.929
485.101
497.362
585.784
594.086
485.993
497.639
586.203
594.236
13024.3
12177.8
11312.8
10414.7
7248.25
7251.26
6770.41
6765.32
6198.62
6198.68
4560.53
4923.75
4751.45
5185.3
4573.97
4927.48
4775.61
5191.12
4290.38
4583.73
4063.92
4312.65
3937.27
4101.46
4318.06
4590.77
4082.4
4318.61
3943.72
4104.02
3664.92
3783.92
3676.34
3788.62
3237.29
3395.68
3451.58
3189.48
3241.38
3414.37
3457.84
3201.07
13868.8
14771.8
15787.5
-9.37621
-8.52863
-7.65502
-6.52691
-4.71023
0.814254
28.847
27.7526
11.2259
10.7525
147.092
200.096
156.023
129.548
140.125
217.206
199.959
147.546
216.888
156.455
130.686
140.807
69.3754
81.4499
95.0979
104.427
69.4256
81.4362
94.6813
105.047
372.652
384.175
273.096
281.703
373.41
384.493
273.671
281.896
258.062
239.48
257.706
239.007
689.578
680.215
689.811
681.129
465.242
478.554
466.402
478.912
13784.8
12991.2
12209.5
11407.6
8236.21
8246.95
7744.68
7742.55
7266.67
7256.91
6714.93
6713.84
5383.48
5166.41
5648.44
5049.3
5042.89
4826.97
5387.81
5198.29
5656.69
5059.05
5047.69
4837.96
4655.12
4769.93
4666.89
4775.15
4386.13
4479.5
4132.74
3863.35
4234.59
3956.38
4403.92
4485.91
4141.33
3885.23
4238.34
3963.71
3633.2
3701.37
3652.33
3708.03
14634.8
15540.7
-9.39973
-8.75746
-8.39076
-7.17967
-1.89025
5.2178
5.14444
-3.69962
-3.67255
48.3559
48.0269
19.764
19.5491
203.08
153.986
157.459
214.504
125.45
129.487
203.421
154.438
214.665
158.553
125.064
129.297
64.6614
72.6604
98.4134
103.85
64.558
72.4905
98.4485
103.775
261.269
270.274
261.664
270.386
14528.2
13749.2
13025.5
12316.6
11569.6
8223.32
8220.5
7772.93
7753.57
6078.23
6622.63
5948.74
6366.46
6103.9
6627.32
5971.55
6374.27
5499.95
5264.96
5880.36
5674.59
6063.16
5540.37
5519.89
5282.91
5888.1
5706.82
6073.29
5547.55
5283.81
4975.33
5146.53
4876.25
5285.36
4978.42
5149.93
4883.09
4670.1
4729.63
4679.95
4734.01
4446.66
4514.99
3882.32
3981.14
4464.36
4520.98
3894.72
3985.86
15359.5
-9.51662
-9.36313
-9.19857
-7.46744
-5.16234
-0.891453
-0.762065
-2.42606
-2.35817
19.8917
35.5097
40.8223
15.8298
18.8249
34.9692
40.283
15.1848
4.2059
4.09577
63.4445
68.5775
94.483
100.869
63.3502
68.6105
93.7188
99.6218
15244.9
14485.8
13777
13134.9
12470.5
9135.66
9153.68
8636.69
8633.46
8166.5
8161.71
7732.04
7721.57
6215.76
6541.09
6103.74
6249.77
6235.15
6547.81
6119.85
6256.02
5429.21
5689.4
5597.99
5868.04
5895.29
6034.29
5449.34
5701.37
5872.72
5604.68
5906.38
6038.62
5046.04
4950.09
5047.39
4955.04
-9.74
-9.72378
-9.15076
-7.2991
-3.96565
-4.04545
-4.67876
-4.73121
-2.03113
-1.90791
-2.94707
-2.92622
8.04953
24.4133
25.9634
8.86039
7.55972
24.3219
26.084
8.65539
-0.471179
-0.872781
1.18747
1.64648
-0.390651
-0.782166
1.12849
1.48628
47.6826
54.5395
47.3602
54.6356
15202.6
14519.8
13886.1
13295.2
12660.6
9064.77
9066.68
8740.86
8717.15
8274.02
8251.37
7183.1
6468.19
6911.31
6571.39
7180.02
6467.06
6911.12
6565.48
6338.87
6511.94
6167.13
6286.57
6359.41
6518.94
6182.8
6292.15
-9.83748
-9.64262
-8.57012
-7.18988
-3.90037
-4.00087
-4.70648
-4.75562
-0.84069
-1.03316
-2.17362
-1.59073
-1.69141
-1.89553
-0.783649
-0.993711
-2.10238
-1.48807
-1.64568
-1.77215
-3.02664
-2.98654
4.14662
11.9401
9.39557
4.23204
3.8259
12.0368
9.43862
3.99433
0.0322746
-0.0294311
0.0949033
0.00731113
15237
14634
14068.7
13499.1
10009.4
10023
9473.41
9474.6
8952.33
8960.76
8732.15
8707.63
6898.9
7592.63
6846.45
7316.68
6663.08
7077.9
6961.94
7607.52
6865.29
7323.19
6657.41
7076.27
6593.71
6802.73
6601.38
6805.53
6428.41
6587.64
6450.63
6594.44
-9.78028
-9.13491
-8.27524
-5.28106
-5.28814
-5.71484
-5.72038
-4.10161
-4.14546
-4.71
-4.74664
-1.15492
-1.22105
-2.29188
-1.88957
-1.9745
-2.10397
-1.07162
-1.18766
-2.23172
-1.80234
-1.93332
-2.00596
-2.82055
-3.11771
-2.65203
-2.80796
-2.79706
-3.0865
-2.59634
-2.76664
15354.5
14819
14297.9
13748.4
10004.8
10000.3
9604.97
9576.54
9163.46
9143.37
7046.64
7547.12
8054.93
7295.66
7857.69
7371.04
8052.68
7294.45
7855.91
7370
7057.13
7550.11
6993.72
6778.58
7310.92
6991.78
6993.53
6792.24
7310.2
6995.46
6658.4
6821.06
6673.99
6824.38
-9.62136
-8.95027
-8.15367
-5.23323
-5.22201
-5.62231
-5.62052
-2.98513
-3.278
-3.86465
-3.35732
-3.61706
-3.48712
-2.9696
-3.2559
-3.88262
-3.38138
-3.64529
-3.52743
-4.71858
-4.72434
-2.52965
-2.43894
-2.47673
-2.36162
-2.72876
-2.93792
-2.66496
-2.89254
15540
15060.8
14565.7
10849.2
10855.4
10389.3
10385.9
10003.4
9996.36
9554.78
9537.44
7712.6
8402.68
7661.69
8171.68
7477.31
7974.52
7736.46
7477.1
7974.22
8406.09
7674.12
8174.77
7232.82
7556.78
7418.83
7760.69
7424.12
7237.16
7761.79
7556.31
-9.55254
-8.88814
-8.03491
-5.17132
-5.16017
-5.58287
-5.57797
-3.15339
-3.32939
-3.8445
-3.42419
-3.60054
-3.60385
-3.15339
-3.32362
-3.84858
-3.44233
-3.61886
-3.62418
-3.93294
-4.27615
-3.85318
-4.07082
-3.93589
-4.27266
-3.84287
-4.05707
-2.95435
-3.12232
-2.91094
-3.06536
15781.9
15361.4
14882.1
10917.1
10909.1
10517.1
10495.6
9961.88
9959.32
7871.79
8359.9
8733.11
8081.94
8591.78
8078.37
7890.51
8365.64
8728.17
8079.21
8592.04
8073.84
7861.67
7628.24
8152.94
7901.63
7642.92
7905.22
7867.67
8154.64
-9.55066
-8.81766
-5.82163
-5.48991
-5.482
-5.81941
-6.25999
-6.27065
-5.00178
-3.94255
-4.18154
-4.9959
-3.93793
-4.17977
-3.24752
-3.42689
-3.75801
-3.44098
-3.56513
-3.65092
-3.26183
-3.44801
-3.75802
-3.44312
-3.58401
-3.65001
-3.83049
-3.99723
-3.81703
-3.98477
16086.1
15702.2
15221.6
11006.7
11004.3
10488.8
10483.2
8355.27
9023.6
8406.34
8913.43
8236.58
8706.43
8386.12
8238.81
8708.63
9027.74
8429.47
8921.5
8039.17
8271.78
8221.56
8498.9
8061.56
8278.53
8236.91
8504.61
7946.45
8159.34
7961.3
8163.95
-9.52476
-8.81813
-5.42929
-5.79494
-5.41726
-5.78869
-6.20315
-6.20898
-4.10605
-3.91316
-4.03857
-3.90425
-4.10566
-4.32
-4.21024
-4.52579
-3.91876
-4.10647
-4.04099
-3.90607
-4.10565
-4.31982
-4.21596
-4.52547
-3.74875
-3.61029
-3.74789
-3.60942
-3.78445
-3.94524
-3.77855
-3.94057
16421
16016.1
11938
11003.9
10987.7
11954.3
11419.6
11423.1
10406.5
8500.17
9023.35
10408.2
8530.94
9034.63
8364.99
8544.09
8576.59
8873.53
8384.66
8583.16
8559.54
8879.19
8098.81
8315.97
8241.63
8458.23
8124.27
8323.38
8267.91
8465.73
-9.56182
-8.77892
-5.30159
-4.49856
-4.23672
-5.7581
-5.29431
-4.49729
-4.23466
-5.73809
-6.16569
-6.16654
-3.93131
-4.08584
-3.76896
-3.94475
-4.04348
-4.30345
-3.9404
-3.76946
-4.08064
-3.94477
-4.04654
-4.2992
-3.80684
-3.63012
-3.79598
-3.6265
16728.2
16288.3
11956.1
10913.9
10904.1
11952.8
11554.4
11540.4
8762.11
8498.49
8965.14
8470.21
8958.85
9305.88
8676.61
9356.33
8787.33
8532.36
8978.28
8504.73
8971.45
9315.8
8718.85
9368.85
8408.74
8548.35
8614.67
8841.31
8413.03
8616.73
8563.39
8847.25
-9.58656
-6.43973
-6.09895
-6.08906
-6.44262
-6.85509
-6.86671
-4.47803
-4.37227
-4.2346
-4.34964
-4.1826
-4.81784
-4.37325
-4.56162
-5.65241
-4.47308
-4.74406
-4.48721
-4.37195
-4.23459
-4.3491
-4.18256
-4.81743
-4.37631
-4.56254
-5.64512
-4.48068
-4.74526
-3.92857
-4.08136
-4.1099
-4.25487
-3.93451
-4.07534
-4.10935
-4.25103
17028.7
16494.8
12009.7
10942.3
9400.03
8891.35
10944
9421.73
8921.18
12007.2
11515
11497.9
8711.61
8964.53
8552.13
8966.85
8870.02
9290.54
8741.02
8982.21
8576.5
8878.5
8978.5
9296.48
8435.08
8671.18
8442.52
8673.67
-9.66673
-6.0735
-6.45002
-6.06114
-6.45276
-6.86795
-6.87844
-4.09799
-4.22937
-4.33729
-4.29067
-4.32381
-4.48522
-4.69731
-4.48436
-4.61204
-4.43279
-4.64089
-4.87356
-4.82468
-5.16378
-4.09759
-4.23591
-4.28958
-4.33953
-4.32809
-4.48733
-4.49184
-4.69097
-4.61483
-4.44762
-4.64478
-4.87084
-4.82262
-5.1594
17260
12539.4
11974.4
11953.9
12569.7
12358
12362.3
9123.96
9386.39
8893.32
9379.05
8901.48
9862.36
9128.13
9711.76
9165.19
9393.06
8911.2
9386.3
8914.92
9865.95
9152.02
9719.89
11404.6
9283.91
9847.08
11398.9
9330.62
9863.66
8834.83
9002.45
9074.04
9305.6
8859.61
9005.94
9083.23
9308.63
-9.65851
-6.05121
-5.07745
-4.81294
-6.41481
-6.03487
-5.07399
-4.80586
-6.41799
-6.8457
-6.85709
-4.19013
-4.35611
-4.33276
-4.43572
-4.50217
-4.6716
-4.36734
-4.45235
-4.57281
-4.81709
-4.19925
-4.35919
-4.34086
-4.43977
-4.51538
-4.37549
-4.6603
-4.45596
-4.57673
-4.81296
17280.8
12674.4
11945.8
11911.5
12698.5
12379.2
12380
8948.93
9054.52
9276.42
9350.83
9337.83
9703.66
8963.51
9071.27
9282
9357.18
9362
9712.37
9611.81
9323.82
9777.88
9265.82
9780.96
10151.3
9559.15
10175.1
9610
9349.57
9786.94
9322.64
9798.72
10148.5
9579.76
10179.7
-10.0363
-6.78894
-6.80179
-6.00755
-5.02275
-4.83049
-5.03199
-4.81549
-6.3486
-5.99472
-5.01922
-4.82086
-5.02681
-4.80799
-6.35281
-4.35807
-4.43693
-4.69168
-4.44896
-4.57134
-4.79755
-4.37553
-4.44663
-4.68303
-4.45483
-4.57395
-4.7941
17449.2
12637.4
12057
10296.4
9797.59
12013.1
10293.3
9788.51
12676.7
12393.5
12390.9
9169.55
9470.9
9396.72
9701.47
9186.22
9475.91
9408.96
9706.32
9583.09
9864.94
9406.07
9834.86
9695.57
10247.9
9591.29
9833.39
9409.52
9695.19
9836.44
10238
-9.64213
-6.77938
-6.72128
-6.79123
-6.73333
-5.93819
-4.96854
-4.80295
-5.00951
-4.77585
-4.70232
-4.80513
-6.31346
-5.92769
-4.96772
-4.80227
-5.00693
-4.77505
-4.69478
-4.80216
-6.31602
-4.47063
-4.59939
-4.47791
-4.60051
17627.3
12655
12681.9
12063.6
10185.4
9803.78
10187.6
9796.6
12020.9
10181.8
9800.25
10186
9786.53
12397.4
12376
9693.72
9480.86
9910.04
9985.26
9720.2
10212.8
9723.53
9483.51
9885.22
9717.7
9988.11
10204.5
-9.8018
-6.6875
-6.83178
-6.70171
-6.84455
-6.32097
-6.32302
-5.93076
-4.91834
-4.70506
-4.88226
-4.74218
-4.79695
-4.69571
-4.80793
-4.67335
-4.47741
-4.63317
-5.91993
-4.91754
-4.70797
-4.88134
-4.74102
-4.79598
-4.69553
-4.80704
-4.67568
-4.48946
-4.63625
17692.3
12697.1
12769.7
12720
12793.7
12037.4
10172
9790.88
10190.2
9788.81
9909.49
10197.1
11992.3
10166
9797.17
10185.9
9784.31
9904.33
10195.7
12387.9
12376
9773.61
10032.7
9802.81
10036.3
-9.64822
-6.8706
-6.82128
-6.88436
-6.8323
-6.29131
-6.40814
-6.29492
-6.41152
-5.94727
-5.93755
-4.84307
-4.71803
-4.89368
-4.65503
-4.80592
-4.61414
-4.78106
-4.65478
-4.66693
-4.49191
-4.65754
-4.48107
-4.84371
-4.72433
-4.89357
-4.65605
-4.80257
-4.61581
-4.77992
-4.65125
-4.66975
-4.50848
-4.66194
-4.49371
17499.7
12801.3
12785
12824.6
12805.2
12446.6
12438.1
11969.3
10173
9745.37
10193.6
9766.9
10195
9905.21
10199.8
9896.3
9825.29
10051.7
11933.8
10170.3
9754.45
10193.5
9763.11
10196.6
9916.96
10202.7
9904.71
9848.8
10056
-9.65217
-6.83802
-6.93384
-6.84946
-6.94474
-6.44714
-6.45643
-6.45052
-6.45901
-5.96216
-6.00856
-5.95392
-5.99942
-4.86228
-4.71614
-4.92314
-4.65398
-4.86038
-4.71378
-4.92058
-4.6492
-4.80755
-4.63867
-4.81892
-4.62858
-4.80528
-4.64544
-4.81993
-4.63241
17260.2
12726.5
12642.5
12745.9
12667.4
12470.7
12455.2
12462
12444.7
11994.8
11966.7
10238.2
9677.58
10132.3
9736.67
10207.8
9877.93
10217.5
9913.34
10080.5
9836.16
10061
9835.37
10233.9
9695.15
10134.8
9732.12
10205.2
9893.37
10221.8
9908.88
10085.1
9864.81
10068
9855.21
-8.86355
-9.57698
-6.49827
-6.54155
-6.50004
-6.54394
-6.04104
-6.10604
-6.03197
-6.09232
-4.9712
-4.73117
-4.92584
-4.7855
-4.97354
-4.79392
-4.98308
-4.78758
-4.97035
-4.73106
-4.92404
-4.78555
-4.97271
-4.79901
-4.98265
-4.78761
-4.75914
-4.65537
-4.79746
-4.62042
-4.75084
-4.65259
-4.7954
-4.61589
17113.3
12597.8
12574.4
12622.1
12602.8
12419.3
12391.7
12405.3
12380.8
12000.1
11961
11972.5
11935.1
10236.6
9764.87
10341.4
9720.96
10231.7
9757.75
10335.3
9714.16
10320.3
9829.09
10202.2
9840.37
10317.2
9848.95
10207.8
9840.71
-8.9108
-6.21979
-6.25182
-6.20865
-6.25259
-9.55012
-6.15622
-6.1902
-6.13774
-6.17766
-5.02352
-4.78334
-4.97698
-4.82702
-5.07241
-4.87803
-5.10572
-4.85737
-5.02268
-4.78862
-4.97676
-4.82728
-5.07085
-4.87629
-5.10227
-4.85557
-4.88334
-4.66809
-4.84525
-4.69546
-4.86014
-4.71336
-4.83946
-4.68908
-4.88236
-4.66887
-4.84373
-4.69882
-4.86008
-4.7166
-4.8404
-4.69202
16973.6
16326.6
12338.2
12257.3
12324.1
12258.7
11967.5
12001.1
11937.1
11960.4
10370.9
9767.35
10364.7
9781.17
10336.1
9693.35
10281.5
9755.86
10364.9
9758.7
10358.2
9770.51
10333.1
9708.71
10282.4
9751.93
10322.6
9853.95
10289.2
9848.62
10319.1
9860.02
10288.2
9847.46
-8.89612
-6.30633
-6.37425
-6.31103
-6.38577
-5.80495
-5.87621
-5.79493
-5.85796
-9.5616
-5.12964
-4.91346
-5.13202
-4.90795
-5.20458
-4.92185
-5.26432
-4.93231
-5.12542
-4.90221
-5.12588
-4.89961
-5.20056
-4.92054
-5.26026
-4.92456
-4.81582
-4.69903
-4.79001
-4.74686
-4.84235
-4.81275
-4.87
-4.78678
-4.8162
-4.7041
-4.79155
-4.7498
-4.84109
-4.80472
-4.8673
-4.7844
16730.7
16191.9
11935.6
11931.2
11911.3
11918.2
12000.8
11917.4
11953.5
11887.6
10177.5
9695.06
10249.4
9680.75
10163.1
9668.04
10108.3
9706.96
10164
9701.48
10248
9666.12
10154.3
9669.99
10102.7
9693.88
10282.4
9854.34
10278.2
9865.96
10254.8
9795.73
10199.6
9842.93
10277.3
9856.42
10276.1
9857.99
10251.4
9810.55
10201.6
9840.52
-8.21346
-8.99486
-5.93728
-5.93432
-5.92806
-5.9324
-4.62479
-4.83
-4.75713
-4.57443
-4.78832
-4.99573
-4.60489
-4.95084
-4.61103
-4.88882
-4.62691
-4.82216
-4.75821
-4.5856
-4.79075
-4.99262
-4.61251
-4.94988
-4.61586
-4.88892
-9.57062
-4.89097
-4.83039
-4.89384
-4.81521
-4.94762
-4.81699
-4.88661
-4.81883
-4.88972
-4.80261
-4.94258
-4.80298
-4.73102
-4.6376
-4.72588
-4.63523
-4.73257
-4.65046
-4.72828
-4.64648
16412.9
16012.7
11895.6
11897.9
11888.5
11909.1
11337.6
11444.3
11326.1
11421.4
10085.2
9718.43
10115.3
9721.52
10173.7
9545.02
10119.2
9747.82
10076.3
9704.82
10105.6
9705.88
10165.5
9562.59
10122.3
9726.79
10174.3
9800.7
10186.2
9800.26
10155.9
9716.71
10063.5
9790.75
10169.9
9810.1
10187.1
9796.14
10148.9
9713.06
10059.6
9781.95
-8.34767
-5.65353
-5.77466
-5.64335
-5.77091
-8.95088
-5.47946
-5.5605
-5.47045
-5.5493
-4.65708
-4.53329
-4.72444
-4.6099
-4.48904
-4.57724
-4.52028
-4.70095
-4.47853
-4.64022
-4.66071
-4.53187
-4.72503
-4.61018
-4.49172
-4.57933
-4.51826
-4.70027
-4.47702
-4.64034
-9.66323
-4.72211
-4.63643
-4.73488
-4.61126
-4.73081
-4.59791
-4.72219
-4.64275
-4.73513
-4.61738
-4.73089
-4.59898
16047
15685.8
15173.5
11485.6
11387
11467.9
11383.8
9257.93
9426.39
9638.7
9221.54
9666.05
9887.64
9064.94
9752.42
9239.63
9742.39
9439.42
9311.66
9664.81
9290.21
9695.21
9892.1
9117.72
9774.64
9291.9
9766.86
9951.79
9672.66
9985.23
9680.59
9995.74
9650.49
9947.69
9666.37
9981.11
9670.04
9989.53
9625.74
10002.5
9626.11
9931.45
9655.91
9998.11
9640.8
9931.32
9662.17
-8.34818
-5.86149
-5.89605
-5.8619
-5.90442
-5.14461
-5.41759
-5.13951
-5.40917
-9.27825
-4.51789
-4.37932
-4.49372
-4.31231
-4.66438
-4.36349
-4.69742
-4.3861
-4.51926
-4.3808
-4.49398
-4.31495
-4.66542
-4.37013
-4.69936
-4.38589
-4.53057
-4.629
-4.36874
-4.48829
-4.32494
-4.51539
-4.53475
-4.62998
-4.37284
-4.49017
-4.32712
-4.51661
-9.82399
15725.4
15308
14824.6
10941
10963.4
10923.5
10961.3
10857.1
10887.6
10856.5
10883.7
9545.3
9382.06
9672.12
9760.32
9389.38
9698.24
9138.04
9732.55
9358.28
9725.11
9589.85
9421.34
9775.48
9687.95
9411.78
9709.05
9162.04
9740.26
9386.99
9735.04
9824.12
9583.31
9874.24
9585.49
9831.84
9608.96
9825.95
9591.9
9873.4
9601.11
9839.07
9632.81
-7.28647
-8.85741
-5.46296
-5.50422
-5.45541
-5.50472
-4.07461
-4.23538
-4.19772
-4.05154
-4.27395
-4.4815
-4.12855
-4.50973
-4.10392
-4.38687
-4.09003
-4.23813
-4.20535
-4.06762
-4.28376
-4.48335
-4.14041
-4.5133
-4.11315
-4.39143
-9.48588
-4.35928
-4.23273
-4.4064
-4.18586
-4.39999
-4.16541
-4.3579
-4.23664
-4.40689
-4.1825
-4.40021
-4.16377
-9.81252
15478.5
14992.6
14486.1
10878.9
10792
10871.4
10800.4
10441.1
10457.4
10439.9
10444.5
9434.44
8900.46
9446.82
8912.54
9462.14
8744.79
9519.64
8915.21
9436.21
8916.12
9450.98
8917.26
9466.24
8783
9529.22
8926.64
9482.5
9707.22
9093.26
9413.21
9210.6
9482.42
9539.01
9724.44
9111.89
9419.78
9235.75
9491.75
-7.8776
-5.14154
-5.45411
-5.14054
-5.45878
-8.7312
-4.96943
-5.03819
-4.96092
-5.03549
-4.06141
-3.89736
-4.15339
-4.10854
-3.90293
-4.11387
-4.03528
-4.29553
-3.9588
-4.16352
-4.08093
-3.91092
-4.1603
-4.1149
-3.91426
-4.12009
-4.04464
-4.29811
-3.96697
-4.16778
-9.40178
-4.19707
-4.02956
-4.20177
-4.04789
-9.67768
15299.6
14751.5
14220.1
13661.6
10467.5
10323.3
10447.3
10321.8
8444.39
8739.93
8957.21
8449.02
8937.39
9283.86
8298.26
8969.31
8468.88
8983.01
8753.41
8474.05
8968.31
8480.15
8948.78
9289.24
8339.6
8987.23
8496.65
8993.37
9271.58
8879.86
9291.05
8979.4
9244.49
8980.34
9265.9
8885.38
9289.07
8969.41
9243.45
8979.95
-5.90737
-7.11432
-4.06601
-4.66074
-4.03848
-4.65015
-7.99404
-4.18059
-3.82234
-4.05858
-3.82436
-4.71472
-4.17768
-3.82228
-4.0602
-3.81876
-4.69218
-3.78769