/*--------------------------------*- C++ -*----------------------------------*\
| =========                 |                                                 |
| \\      /  F ield         | OpenFOAM: The Open Source CFD Toolbox           |
|  \\    /   O peration     | Version:  5.x                                   |
|   \\  /    A nd           | Web:      www.OpenFOAM.org                      |
|    \\/     M anipulation  |                                                 |
\*---------------------------------------------------------------------------*/
FoamFile
{
    version     2.0;
    format      ascii;
    class       volScalarField;
    location    "1.5";
    object      p_rgh;
}
// * * * * * * * * * * * * * * * * * * * * * * * * * * * * * * * * * * * * * //

dimensions      [1 -1 -2 0 0 0 0];

internalField   nonuniform List<scalar> 
12160
(
5640.13
5652.59
5640.18
5660.04
5652.76
5640.55
5665.53
5660
5653.34
5640.62
5669.85
5665.66
5661.08
5653.79
5641.45
5673.13
5669.97
5666.2
5660.59
5655.21
5641.04
5676.77
5673.02
5670.32
5666.76
5662.88
5656.08
5642.24
5682.63
5676.31
5672.92
5670.85
5667.95
5662.22
5658.28
5641.22
5692.59
5681.81
5675.5
5672.69
5671.81
5669.08
5664.08
5655.15
3599.38
5706.79
5691.25
5680.36
5674.11
5672.65
5673.18
5671.13
5656.77
3802.42
170.961
5724.79
5705.82
5690.06
5677.8
5672.42
5672.73
5675.2
5658.98
3804.32
161.073
6.72208
5744.76
5724.19
5704.34
5685.99
5674.57
5670.18
5673.25
5651.16
3873.05
196.306
0.180581
0.12354
5764.47
5744.64
5723.28
5701.13
5683.14
5669.94
5667.54
5632.1
3886.98
245.475
0.436228
0.0374274
-0.0633354
5781.82
5764.86
5744.7
5721.31
5697.77
5676.04
5664.1
5605.89
3813.2
326.589
0.656179
0.014201
-0.00140513
0.0386589
5795.4
5782.38
5765.91
5744.31
5719.16
5691.65
5669.66
5584.38
3688.03
371.533
1.47901
-0.00415891
0.013853
0.0165183
-0.0408414
5804.65
5796.22
5784.7
5767.13
5744.33
5715.21
5685.31
5582.38
3583.17
364.914
2.37444
-0.0154312
0.00393958
0.00530635
-0.00938909
5809.69
5805.51
5798.57
5786.51
5769.43
5743.49
5711.21
5605.32
3568.77
344.162
3.46911
-0.00808557
-0.00207112
-0.00129652
0.00199567
5811.32
5810.41
5807.66
5801.33
5791.53
5771.69
5743.46
5654.46
3665.42
355.076
4.36482
0.0279938
-0.00485286
-0.00473557
0.000555747
5810.58
5811.76
5812.13
5810.44
5806.24
5794.59
5775.9
5715.8
3864.18
408.24
5.69415
0.0716057
0.0145479
-0.00218374
-0.00053116
5808.58
5810.67
5812.84
5814.37
5814.94
5811.72
5805.25
5771.49
4106.75
512.285
7.99258
0.097482
0.0380321
0.00990834
-0.00151972
5806.39
5808.31
5810.99
5814.15
5817.97
5820.35
5819.62
5808.3
4334.34
674.564
12.2932
0.109793
0.0514643
0.0238861
0.00186021
5804.85
5805.79
5807.87
5811.15
5816.38
5822.33
5827.49
5827.81
4511.86
874.463
20.2578
0.112058
0.0502393
0.0308175
0.00541151
5804.56
5803.99
5804.67
5806.88
5811.78
5818.94
5828
5836.31
4623.23
1047.38
33.3402
0.117191
0.0312553
0.0290859
0.00695084
5805.83
5803.54
5802.35
5802.65
5805.9
5812.17
5822.23
5835.62
4656.39
1140.05
49.6823
0.155282
-0.00436248
0.0179808
0.00546795
5808.68
5804.75
5801.57
5799.53
5800.26
5804.14
5812.69
5826.97
4627.01
1164.79
62.5387
0.258071
-0.0483349
-0.00254612
0.0011784
5812.89
5807.66
5802.66
5798.24
5796.04
5796.61
5801.96
5813.91
4547.41
1139.64
66.7932
0.427483
-0.0819869
-0.0267693
-0.00566194
5817.99
5812.02
5805.68
5799.15
5794.06
5790.93
5792.11
5799.8
4440.28
1076.39
64.3395
0.529697
-0.0955273
-0.045702
-0.0119136
5823.38
5817.37
5810.36
5802.32
5794.73
5788.02
5784.66
5787.01
4326.66
998.121
57.3633
0.524276
-0.0886985
-0.0528189
-0.0159806
5828.36
5823.09
5816.22
5807.47
5798.1
5788.33
5780.63
5777.27
4223.6
921.732
49.4351
0.459384
-0.0691155
-0.050823
-0.0179124
5832.14
5828.45
5822.61
5814.1
5803.89
5791.95
5780.53
5771.67
4144.27
857.531
42.4359
0.388962
-0.041597
-0.0401141
-0.0162571
5834.01
5832.65
5828.75
5821.5
5811.55
5798.57
5784.43
5770.83
4097.57
811.107
37.0531
0.335239
-0.0138227
-0.0246639
-0.0127993
5833.28
5834.92
5833.8
5828.82
5820.32
5807.58
5791.98
5775.1
4087.94
785.207
33.4135
0.301569
0.0107626
-0.00856806
-0.0080147
5829.41
5834.56
5836.92
5835.15
5829.26
5818.13
5802.57
5784.04
4115.66
780.449
31.5043
0.283248
0.0310923
0.00599539
-0.00295129
5821.94
5830.98
5837.37
5839.56
5837.35
5829.19
5815.26
5796.74
4178.4
795.836
31.2124
0.27486
0.0463878
0.0180648
0.0017084
5810.69
5823.71
5834.52
5841.19
5843.55
5839.61
5828.91
5812.15
4270.41
831.129
32.3838
0.273205
0.0556618
0.0271592
0.00561478
5795.64
5812.45
5827.94
5839.31
5846.86
5848.17
5842.21
5829.01
4383.76
885.95
35.111
0.286981
0.0586209
0.0327969
0.00858015
5776.87
5796.97
5817.52
5833.38
5846.45
5853.67
5853.76
5845.87
4508.63
957.837
39.6321
0.313048
0.0584291
0.0351387
0.0104522
5754.66
5778.78
5803.32
5822.97
5841.78
5855.06
5862.07
5861.14
4634.39
1042.98
45.9887
0.34999
0.0526613
0.0348474
0.0112666
5729.45
5756.51
5783.42
5808.22
5832.61
5851.67
5865.82
5872.89
4750.14
1136
54.1446
0.407534
0.0413466
0.0308564
0.0111386
5701.75
5731.08
5760.53
5789.36
5818.28
5842.99
5864.36
5879
4844.98
1229.33
63.9176
0.492682
0.025032
0.0239582
0.00976552
5703.09
5652.75
5734.55
5766.2
5798.44
5828.58
5857.67
5879.26
4909.14
1312.86
74.7461
0.610518
0.0045355
0.0141453
0.00744514
5705.95
5653.54
5578.36
5739.56
5774.38
5809.08
5844.45
5872.59
4935.84
1377.18
85.5851
0.760478
-0.0197612
0.00178403
0.00420719
5710.1
5655.25
5578.2
5508.96
5746.64
5784.24
5823.84
5861.12
4922.05
1409.85
95.0479
0.929096
-0.0476042
-0.0128064
0.000163971
5715.92
5657.72
5577.98
5507.77
5443.67
5755.24
5797.44
5836.63
4861.32
1403.51
100.15
1.08499
-0.0779249
-0.0291404
-0.00456028
5723.03
5661.18
5577.53
5505.56
5441.97
5401.08
5766.66
5800.67
4759.44
1351.22
98.8828
1.15792
-0.108445
-0.0464661
-0.00979272
5732.58
5665.42
5576.87
5502.21
5438.9
5398.58
5354.63
5755.13
4621.38
1235.73
88.8296
1.07263
-0.135007
-0.0634663
-0.0152687
5702.64
5671.32
5575.76
5497.68
5434.48
5394.28
5350.17
5319.5
4454.2
1064.78
70.4292
0.81246
-0.152199
-0.0777157
-0.0206103
4265.33
5597.28
5573.92
5491.87
5428.56
5387.82
5344.19
5316.17
5288.34
878.214
50.999
0.541242
-0.153464
-0.0853516
-0.0253888
703.14
3870.96
5394.68
5482.18
5421.02
5379.68
5337.18
5310.8
5272.76
5241.85
36.0631
0.333128
-0.138699
-0.0877771
-0.0292847
25.1951
470.806
3143.47
5166.7
5404.89
5369.86
5330.9
5306.28
5256.63
5213.97
5213.5
0.194775
-0.111041
-0.0800422
-0.0295221
0.115323
13.6617
232.395
2485
4949.31
5345.56
5323.45
5301.56
5248.87
5177.46
5159.76
5333.36
-0.0840988
-0.0670873
-0.0290186
-0.0624273
0.044293
5.05542
121.966
1996.78
4765.77
5293.11
5297.14
5256.04
5184.87
5094.79
5159.72
5042.2
5209.43
-0.0539627
-0.0275439
-0.0426549
-0.0416612
0.0521542
2.19964
75.2703
1671.8
4605.14
5263.69
5266.17
5215.86
5065.74
5067.33
5068.27
4909.73
4975.79
5057.81
-0.0253268
-0.0238119
-0.0306004
0.00969661
0.0832293
1.25894
54.6483
1459.02
4513.07
5240.51
5249.05
5115.34
5083.09
5111.32
5012.92
4703.36
4792.72
4899.24
4960.58
-0.0236674
-0.000737343
0.0461046
0.0946735
0.889578
44.7593
1359.07
4448.64
5264.91
5228.8
5204.7
5196.99
5110.28
4871.85
4408.97
4539.79
4705.19
4844.55
4915.76
-0.0140938
0.0210622
0.0616748
0.0971156
0.712615
40.2116
1269.97
4606.11
5316.38
5314.66
5296.78
5222.72
5025.59
4650.69
4035.61
4205.99
4436.89
4654.45
4825.33
4937.91
-0.00444089
0.0325751
0.0665206
0.0980759
0.573628
33.6601
1284.23
4993.41
5383.29
5374.3
5321.53
5162.1
4874.88
4372.85
3612.41
3788.91
4090
4391.43
4651.65
4863.88
5023.28
0.00294801
0.0373898
0.0695583
0.0946819
0.451612
24.7096
1376.9
5353.14
5415.6
5389.94
5276.05
5067.63
4662.21
4004.88
2433.85
3323.66
2435.07
2694.35
2695.36
3655.83
4047.81
4405.36
4703.64
4956.05
5157.16
0.0074347
0.0406356
0.0724813
0.102911
0.323934
15.7516
1705.7
5241.82
5412.62
5338.3
5193.27
4893.65
4427.92
3615.33
2224.35
2162.82
3192.66
2227.67
2082.77
2085.23
2162.91
2422.74
2421.55
3656.37
4091.63
4477.55
4816.05
5097.2
5329.04
0.0104759
0.043528
0.0862765
0.132683
0.273574
8.81122
1662.33
5244.97
5367.5
5251.19
5055.88
4720.83
4150.24
2571.75
2570.23
2928.01
2930.05
1914.46
1889.45
3226.55
2509.16
1915.52
1714.14
1714.67
1883.36
2212.71
2207.08
3750.06
4190.05
4619.05
4978.56
5274.07
5538.27
0.0127969
0.051867
0.110203
0.184993
0.26404
7.14466
1643.4
5225.17
5284.27
5147.36
4912.29
4516.7
3248.13
3249.89
3538.29
3539.78
2380.48
2377.69
2797.91
2792.9
1558.74
1565.31
1294.93
1377.95
1470.07
3389.42
2493.06
978.615
981.087
1105.35
1105.77
1554.23
1301.13
1298.07
1561.92
1297.35
1376.16
1466.44
1763.89
1828.67
1989.32
1664.01
1760.42
1830.1
1986.91
1660.17
3904.47
4375.3
4818.13
5170.34
5481.09
5776.13
0.0166947
0.0667031
0.140995
0.268937
0.318651
5.89652
1438.55
5029.52
5190.37
5015.44
4726.52
3779.86
3779.25
3971.82
3971.16
3162.78
3157.31
3470.5
3463.05
1915.89
1766.26
1975
2123.39
2190.02
1835.8
1762.97
1913.04
1974.29
2128.08
2190.51
1834.9
2540.11
2640.9
2340.23
2412.83
2539
2638.81
2340.64
2411.75
1054.64
1106.53
1177.68
967.655
1406.15
1198.31
1209.05
1386.54
3616.9
2755.21
996.843
996.804
949.39
949.892
622.023
624.066
716.747
718.154
1053.58
1110.59
1177.01
968.365
921.189
670.874
839.981
821.464
920.035
674.505
838.848
822.123
1406.98
1202
1210.14
1389.5
1614.64
1580.29
1614.7
1581.61
4139.24
4629.88
5041.05
5375.9
5709.2
6049.3
0.0221852
0.0926383
0.173783
0.330101
0.392932
3.57348
899.709
4666.21
5061.58
4859.87
4120.33
4119.56
4286.37
4286.23
3717.14
3707.12
3911.82
3901.08
2712.35
2812.93
2879.31
2969.86
2712.44
2812.26
2882.77
2970.46
3224.6
3338.19
3042.12
3131.59
3225.12
3337.19
3045.96
3132.79
1727.48
1958.36
1957.83
1761.31
2144.48
2138.36
1726.11
1958.61
1761.6
1958.18
2147.36
2139.6
2541.32
2542.28
2362.18
2366.67
2541.41
2541.52
2363.92
2366.93
865.647
1017.05
1028.03
847.97
1313.34
1102.53
1105.4
1303.48
3895.73
3139.87
1221.24
1220.49
1091.64
1089.81
607.821
602.182
577.447
577.062
43.6427
133.709
127.134
219.157
56.6818
138.382
138.067
223.164
302.854
525.348
370.278
243.746
337.575
612.499
310.29
527.947
372.51
252.29
340.755
613.435
866.652
1020.09
1029.12
850.926
716.626
684.545
717.531
687.511
1314.49
1105.3
1106.67
1305.37
1552.91
1518.09
1553.03
1519.01
4438.29
4898
5256.81
5585.03
5960.39
6360.57
0.0269453
0.12006
0.226116
0.398081
0.465981
1.77198
501.181
4019.82
4865.57
4403.38
4404.14
4497.36
4498.25
4066.61
4061.86
4225.67
4222.66
3359.61
3478.23
3404.5
3540.35
3355.36
3474.61
3403.99
3538.24
3668.94
3819.62
3508.96
3646.68
3669.88
3817.78
3509.94
3645.83
2736.13
2737.35
2902.81
2899.65
2738.11
2738.97
2904.42
2901.64
3209.59
3242.11
3057.57
3064.31
3212.97
3243.14
3059.23
3065.8
760.617
936.594
944.385
746.943
4236.14
3537.9
1489.3
1489.04
1339.71
1339.12
930.335
916.029
731.408
721.325
-39.3477
57.2109
-53.4147
34.6161
-27.6902
60.8331
-40.9
39.2001
-23.5436
58.1098
-47.6706
44.5292
-10.0993
63.3345
-34.2808
49.3551
-39.7539
8.62627
48.9359
92.2093
-25.9053
13.8277
59.5518
96.3496
404.565
231.462
272.037
432.869
148.531
187.936
409.895
238.743
274.667
434.752
156.801
191.264
761.724
939.082
945.5
749.252
575.459
557.515
576.908
561.498
4743.49
5138.08
5453.3
5791.94
6235.22
6697.34
0.0391399
0.151792
0.284787
0.4839
0.535304
0.961235
241.336
3006.25
4486.73
4341.98
4340.83
4417.51
4417.92
4008.07
4004.44
4175.71
4170.89
3313.42
3364.44
3427.88
3483.08
3315.53
3363.92
3429.24
3481.73
3672.37
3744.89
3554.3
3610.28
3670.72
3743.92
3553.14
3608.81
3184.56
3280.06
3190.86
3280.09
4590.58
4013.04
1830.04
1839.45
1622.45
1626.86
1268.04
1258.55
1101.07
1088.02
120.567
398.449
67.513
250.091
130.586
399.802
75.776
252.064
-15.6109
109.406
15.7916
181
-7.69506
111.799
26.8296
183.417
-115.217
-32.9279
-122.072
-50.8833
-104.749
-29.7867
-113.622
-47.6958
-77.847
-22.8205
-102.286
-39.8423
-64.4168
-17.7496
-91.335
-35.7914
5005.32
5348.66
5627.78
6000.81
6531.36
7013.55
0.0524762
0.18984
0.353502
0.600872
0.598814
0.669669
96.2246
1619.57
4111.4
4111.96
3402.38
3402.66
4294.44
4290.18
4351.44
4352.02
3885.99
3747.72
3803.42
3824.97
3885.41
3745.76
3802.63
3823.83
3976.74
4027.44
4094.25
3917.79
3977.12
4028.26
4093.69
3917.86
3284.57
3366.11
3437.3
3495.9
3288.39
3365.56
3438.72
3494.78
3677.35
3703.92
3549.22
3582.38
3678.67
3704.2
3549.73
3582.12
4887.51
4462.36
3882.65
1697.7
1700.02
1479.78
1472.65
1015.77
1010.28
781.12
779.988
31.0658
173.953
-14.672
72.0781
38.9704
176.052
-6.78739
74.5495
-90.1167
-7.56312
-63.2496
21.2544
-83.0288
-5.08775
-55.4295
23.7905
-180.469
-110.584
-169.733
-107.01
5235.66
5522.84
5803.69
6222.47
6849
7147.34
0.0684511
0.235978
0.435786
0.739371
0.575535
0.963646
36.1789
626.284
3968.07
3966.81
2657.67
2656.97
4094.32
4163.26
4220.24
4131.34
4092.89
4160.72
4218.28
4130.05
4352.62
4350.03
3874.93
3782.63
3797.19
3866.2
3874.75
3783.51
3797.32
3865.37
3960.62
4036.3
4052.37
3952.7
3960.72
4036.4
4052
3952.92
3702.96
3724.69
3706.23
3725.5
5140.9
4809.96
4421
2051.12
2058.58
1737.06
1734.36
1523.37
1523.04
1310.35
1290.49
372.367
233.994
489.158
155.177
376.11
254.722
494.508
164.87
268.542
-11.0106
157.471
74.6318
270.537
-5.55676
159.819
79.6146
-44.6242
26.1208
-92.7899
-50.4827
-34.1357
29.6225
-89.2964
-48.9278
-170.161
-106.24
-143.631
-90.6629
-164.124
-104.113
-138.583
-89.1143
5427.09
5675.04
5959.44
6528.48
6997.56
0.0845915
0.282222
0.523593
1.04003
3.87114
15.5681
134.776
488.728
495.133
170.898
169.223
3381.46
3958.39
3041.27
3750.02
3377.36
3969.93
3036.06
3750.2
1939.57
1944.17
4099.78
4120.74
4178.67
4131.49
4098.98
4120.06
4177.99
4130.77
3842.17
4252.19
4116.15
4241.81
3841.11
4254.22
4116.67
4241.59
3987.65
4036.06
4050.68
3975.76
3987.94
4038
4051.11
3977.24
5346.91
5089.54
4797.26
4443.67
1991.43
1979.46
1668.72
1653.34
1435.36
1418.22
316.13
611.662
789.008
439.922
330.604
614.614
786.581
437.641
235.738
256.999
340.818
170.568
239.473
271.53
346.409
180.322
143.093
-17.587
63.3192
73.4818
145.433
-7.86815
66.6933
78.5854
-81.051
-15.3364
-67.332
-11.2862
5581.75
5798.06
6159.77
6667.4
0.0994333
0.315071
0.738205
9.79174
50.7463
190.846
232.825
258.953
403.147
434.093
525.429
545.251
648.769
648.923
3174.4
3953.61
2615.54
3411.57
3169.4
3961.61
2611.18
3412.02
1699.51
923.836
1320.77
1382.48
1708.54
933.771
1332.33
1388.97
4099.2
4113.85
4171.76
4157.7
4099.46
4113.91
4171.69
4157.67
3837.91
4259.4
4052.43
4238.33
3837.72
4261.81
4052.94
4238.71
5503.37
5311.18
5101.94
4864.7
2210.04
2216.24
2083.24
2078.2
1839.54
1840.19
612.38
953.196
645.516
1057.22
626.831
956.818
669.143
1062.85
500.217
778.233
431.108
673.088
460.941
620.15
529.775
785.304
449.067
679.043
467.073
622.719
348.164
465.236
359.138
469.934
208.55
226.518
282.396
160.732
212.654
245.281
288.655
172.373
5693.78
5942.75
6304.51
0.106789
0.323082
6.773
59.3806
211.179
600.651
693.942
739.263
679.865
695.638
562.397
548.776
478.38
633.432
474.65
709.601
545.236
562.277
715.822
479.899
649.507
547.576
934.758
1567.06
752.215
1093.58
948.625
1567.04
784.238
1368.27
2833.2
3767.42
2475.75
3487.08
2830.29
3770.42
2475.31
3487.86
788.25
827.727
795.426
835.261
4193.57
4151.31
4193.84
4152.27
3437.45
4082.58
3435.33
4087.81
5609.82
5470.34
5343.65
5199.45
2526.09
2536.86
2366.62
2365.11
2244.08
2236.48
2038.58
2039.16
1108.59
750.739
1209.52
796.733
925.378
729.424
1112.91
783.908
1217.83
807.628
929.4
739.839
709.804
808.586
721.195
813.655
598.554
680.127
490.996
394.901
586.94
484.636
616.13
686.539
498.917
416.686
590.68
491.97
318.919
386.439
338.141
393.106
5805.8
6057.74
0.0835339
1.21057
27.324
111.494
259.134
349.782
349.381
95.2315
99.3046
1092.17
1094.42
639.013
668.334
557.435
956.796
1064.52
576.113
1102.95
825.213
554.545
974.235
556.69
1038.02
1123.94
808.954
1158.13
1542.84
1190.86
782.104
1177.94
1502.35
1212.85
791.699
1746.56
2097.33
1752.28
2099.06
5699.16
5574.27
5505.11
5452.67
5369.41
2521.19
2518.5
2405.04
2386.36
990.38
1515.32
1046.2
1434.03
1019.96
1520.06
1069.75
1441.33
919.385
857.593
1274.8
937.088
1296.87
1111.39
939.405
876.126
1282.75
969.488
1307.31
1119.82
1004.43
867.158
885.505
785.327
1005.68
869.716
888.474
791.767
716.371
760.749
726.084
765.03
624.37
682.33
379.846
476.264
642.24
688.318
392.006
480.978
5876.48
-0.00654629
3.85832
28.2188
50.9895
42.6604
53.553
53.3384
33.16
37.9581
1106.83
999.963
1501.65
600.49
998.88
1004.65
1477.47
588.687
244.595
229.142
1179.47
1003.43
1378.65
1458.72
1198.23
1010.8
1401.45
1345.09
5761.86
5656.8
5602.21
5615.45
5611.09
2781.57
2799.59
2616.24
2613.12
2476.95
2472.51
2377.73
2368.47
1130.38
1442.6
1197
1330.01
1153.27
1449.85
1216.1
1337.54
986.529
1070.73
1141.13
1234.87
1144.41
1270.31
1006.5
1082.85
1239.38
1147.64
1156.15
1274.9
905.319
829.285
906.38
834.116
-0.116827
2.78853
8.78432
9.81111
21.8642
22.5356
15.7975
13.5767
18.4738
18.852
14.4235
18.1522
881.49
669.657
783.418
346.862
734.621
669.425
568.599
337.202
37.2807
102.823
110.02
200.905
34.3315
99.2086
102.404
180.449
963.785
1018.98
975.576
1016.87
5719.64
5690.91
5711.74
5777.78
5811.11
2723.48
2725.41
2738.9
2715.38
2606.61
2584.41
1750.86
1214.53
1642.15
1151.8
1747.82
1217.56
1642.12
1148.44
1250.26
1410.42
1232.35
1339.7
1276.69
1419.04
1251.77
1347.32
-0.245908
0.307298
0.320074
4.04146
14.6137
14.7507
9.50131
8.79866
34.6213
29.9263
10.1459
18.6679
14.2233
9.95884
34.9937
29.2479
11.1617
19.8796
14.4948
9.80505
8.04766
11.7746
95.2273
417.33
307.943
226.164
95.2076
413.983
472.948
219.446
35.9981
20.9033
36.0146
21.4336
5754.06
5805.26
5895.12
5984.93
2998.74
3012.31
2802.49
2803.72
2626.57
2635.14
2751.51
2727.03
1170.79
1862.71
1293.01
1753.89
1250.91
1653.14
1234.51
1877.68
1313.01
1760.41
1247.83
1651.51
1333.91
1527.33
1345.61
1530.69
1306.03
1447.65
1332.58
1456.8
-0.276861
-0.259527
-0.0303008
3.39918
3.13398
2.50477
2.43986
10.1901
10.401
7.87842
6.70928
21.5545
10.6378
7.13495
8.07908
7.27244
7.2918
22.6633
10.6767
7.14073
8.37765
7.34169
7.78114
5.03854
8.43863
4.98934
6.70343
5.26799
15.2501
5.24266
8.35966
5871.5
5990.51
6125.64
6238.76
2998.76
2994.26
2941.76
2913.36
2852.11
2832.04
1323.14
1821.36
2004.18
1408.66
1970.55
1319.77
2002.02
1407.51
1968.76
1318.91
1334.02
1824.38
1415.3
1368.03
1724.89
1565.53
1416.09
1384.23
1725.5
1570.64
1369.38
1511.12
1388.61
1515.49
-0.138357
-0.119738
0.400783
3.00593
2.83685
2.60536
2.5804
5.23481
9.45322
10.1231
5.7748
10.352
6.43261
6.36579
16.1924
8.44529
6.27084
10.2668
5.82624
6.72861
5.47104
7.28499
5.82753
6.25255
6.3578
4.95201
9.4567
5.16953
10.0864
6057.17
6232.85
6394.9
3175.45
3181.63
3049.16
3045.89
3000.64
2993.7
2893.99
2876.7
1315.86
2005.84
1442.15
1952.12
1427.93
1925.15
1339.7
1427.69
1924.84
2009.29
1454.54
1955.19
1479.2
1802.37
1503.67
1845.53
1508.94
1483.98
1846.61
1801.88
-0.070034
-0.0344353
0.247094
3.23791
3.03982
2.64388
2.58454
4.73748
9.68637
11.6244
5.57778
13.2046
6.48349
5.82568
16.1922
7.8579
5.11019
8.97165
5.60234
4.54496
5.34586
5.41182
6.06134
4.07687
5.01756
4.4007
5.8929
4.79276
9.06073
4.98814
14.8875
6299.19
6534.29
6715.01
3248.2
3240.2
3183.27
3161.81
2967.47
2964.92
1466.88
1954.97
1989.37
1503.77
2013.57
1334.51
1485.56
1960.7
1984.46
1500.99
2013.81
1330.05
1610.05
1549.43
1901.31
1822.79
1564.08
1826.37
1616.01
1902.99
-0.0685079
0.0100952
2.17105
2.5462
2.51825
2.17424
2.05966
2.04902
3.33573
3.98629
4.19065
3.23051
3.76332
4.5165
4.78852
11.7553
11.9012
6.04534
13.2704
6.09505
5.20197
12.8457
6.85324
5.13301
7.99808
5.10021
4.15546
4.62895
3.70229
5.19963
6603.66
6876.95
7063.57
3346.22
3343.81
3165.75
3160.16
1284.05
1952.25
1507.67
2014.71
1501.15
1970.95
1314.9
1503.33
1973.14
1956.45
1530.77
2022.78
1616.5
1849.09
1645.59
1922.89
1638.85
1855.83
1660.88
1928.58
1640.8
1853.69
1655.64
1858.29
-0.0436232
-0.000490245
2.33255
2.17692
2.32448
2.18309
2.11054
2.1047
3.50573
3.99828
4.38159
4.00007
3.72394
3.77132
3.44744
3.20782
3.8739
3.46291
3.77438
3.85304
3.91686
3.57834
3.40352
3.29134
9.79947
5.21111
6.32931
4.25817
3.87265
3.71133
3.74503
3.93325
6939.12
7193.77
3618.43
3354.13
3337.9
3634.81
3438.41
3441.95
3100.09
1434.61
1957.72
3101.79
1465.35
1969.01
1637.98
1646.61
1849.55
1976.01
1657.6
1856.1
1661.98
1981.63
1645.6
1862.74
1646.36
1862.94
1671.02
1870.14
1672.59
1870.43
-0.0819129
0.03384
2.33212
3.09141
3.24425
2.20044
2.34156
3.14713
3.22151
2.22027
2.14123
2.14037
3.81623
3.20482
3.97033
4.33033
4.39703
3.17866
3.7113
3.85003
3.19032
3.67511
3.8781
3.12885
5.45617
4.14194
4.93985
3.79621
7247.09
7470.84
3642.57
3275.04
3265.26
3639.27
3583.08
3569.15
1552.14
1453.95
1920.56
1412.82
1901.4
2095.87
1293.75
1973.36
1577.32
1487.75
1933.68
1447.27
1913.99
2105.78
1336.01
1985.95
1660.77
1645.85
1866.68
1938.78
1665
1868.71
1660.79
1944.67
-0.107166
2.20455
2.20351
2.2134
2.20158
2.12601
2.11437
3.22061
3.03196
3.14435
3.02676
3.21756
2.88093
3.1532
2.96484
2.29923
3.21523
2.94426
3.21129
3.04887
3.14563
3.02989
3.20939
2.88121
3.15012
2.96392
2.30611
3.20752
2.943
3.44006
3.17832
3.69458
3.09581
3.42406
3.17306
3.52135
3.07671
7548.82
7682.53
3703.6
3316.65
2022.1
1513.33
3318.35
2043.81
1543.19
3701.13
3557.12
3540.14
1652.13
1754.51
1631.03
1907.34
1948.88
2080.5
1681.49
1772.17
1655.31
1957.32
1918.98
2086.43
1643.94
1880.02
1651.32
1882.48
-0.187981
2.23179
2.19189
2.24348
2.18898
2.11136
2.10086
3.18065
3.15312
3.04816
2.99546
3.19186
3.03048
3.1605
3.20069
3.07487
3.25039
3.0431
3.00429
3.21575
2.88459
3.17725
3.14786
3.00185
3.04344
3.18758
3.02843
3.19282
3.16633
3.07028
3.235
3.03864
3.0023
3.21711
2.88893
7780.62
3558.35
3672.96
3652.54
3588.68
3714.3
3718.67
1425.78
2012.76
1525.04
2010.75
1527.76
2164.03
1602.13
2185.72
1467.11
2019.43
1542.88
2017.97
1541.2
2167.73
1625.98
2193.84
3455.89
1596.13
2159.2
3450.13
1642.84
2175.82
1740.15
1773.75
1979.35
2076.88
1764.92
1777.17
1988.53
2079.88
-0.1821
2.26545
2.97579
3.22539
2.22044
2.27969
2.97743
3.23181
2.21717
2.12998
2.11858
3.21373
3.04902
3.19209
3.08931
3.18066
3.18289
3.18539
3.10081
3.13531
3.06622
3.20475
3.04505
3.18397
3.0852
3.16646
3.17704
3.19361
3.09627
3.12223
3.06369
7802.16
3695.13
3646.99
3612.84
3719.3
3738.09
3738.96
1691.09
1673.27
2018.56
1969.56
1822.61
2188.41
1705.65
1689.97
2024.13
1975.89
1846.76
2197.11
1758.28
1641.24
2095.25
1583.82
2098.86
2297.73
1524.05
2139.92
1756.51
1666.96
2104.32
1640.6
2116.63
2294.95
1544.74
2144.57
0.0396678
2.1828
2.16995
2.28865
3.07365
3.23156
3.07336
3.23844
2.2791
2.3006
3.0691
3.23839
3.06934
3.24349
2.27481
3.21831
3.25193
3.18523
3.1479
3.14249
3.17326
3.19991
3.24168
3.19016
3.13103
3.13252
3.16485
7972.81
3661.77
3759.36
2263.67
1764.88
3715.64
2260.64
1755.89
3701.08
3758.53
3755.96
1766.11
2067.45
1872.36
2177.08
1782.76
2072.45
1884.53
2181.9
1904.84
2016.13
1854.98
2156.6
2144.46
2398.97
1913.05
1984.53
1858.42
2144.07
2158.19
2389.1
-0.160746
2.21511
3.05603
2.19021
3.01195
2.35637
3.08206
3.24628
3.0567
3.26033
3.19525
3.18291
2.48061
2.36601
3.08152
3.24582
3.05742
3.26099
3.1987
3.17959
2.44647
3.25694
3.22888
3.24633
3.21266
8152.54
3683.29
3710.17
3774.03
2150.57
1764.44
2148.12
1761.75
3731.34
2147
1760.93
2146.59
1751.77
3770
3748.56
2009.79
1908.05
2055.42
2301.32
2147.38
2358.13
2039.58
1910.73
2030.5
2144.89
2304.16
2349.75
-0.325366
2.33616
2.14841
2.32241
2.13576
3.36545
3.30697
3.20989
3.10726
3.32706
3.14914
3.2778
3.11731
3.19271
3.13814
3.19862
3.31373
3.22426
3.11123
3.10612
3.32093
3.1466
3.27737
3.11497
3.19221
3.13448
3.19576
3.29347
3.22117
8217.53
3727.53
3800.44
3750.43
3824.45
3763.97
2146.28
1752.43
2151.65
1763
2041.48
2329.02
3718.86
2140.29
1758.73
2147.4
1758.54
2036.27
2327.59
3763.37
3751.53
2065.67
2324.73
2094.81
2328.31
-0.16945
2.10122
2.15447
2.08746
2.14345
2.4074
2.22629
2.40403
2.22314
4.21221
4.0916
4.77235
3.99299
3.88781
4.17353
3.07113
3.26184
3.09739
3.20812
3.18847
3.28774
3.21494
3.29804
4.76645
3.88528
3.81054
4.06619
3.07136
3.25892
3.09603
3.21011
3.17743
3.2702
3.20594
3.28543
8023.31
3832.06
3815.44
3855.37
3835.61
3821.28
3812.86
3697.31
2163.63
1743.59
2191.72
1757.4
2333.29
2029.81
2324.34
2034.59
2088.68
2315.02
3661.84
2160.95
1752.63
2191.67
1753.64
2334.81
2041.53
2327.22
2042.96
2112.14
2319.32
-0.172784
2.14133
2.04724
2.12988
2.03632
2.18049
2.17875
2.17705
2.17613
2.52406
2.26644
2.52176
2.27565
4.99171
4.88321
5.53748
5.22144
5.14878
4.81211
5.53982
5.08876
4.66586
3.80228
3.59701
4.03363
4.62547
3.70869
3.54727
3.93992
7781.42
3754.78
3666.82
3774.18
3691.75
3845.31
3830.59
3836.73
3820.13
3717.32
3689.27
2227.05
1673.3
2127.93
1725.39
2355.25
2020.03
2359.61
2060.79
2311.62
2076.26
2301.08
2066.48
2222.71
1690.83
2130.46
1720.85
2352.66
2035.44
2363.92
2056.27
2316.21
2104.89
2308.09
2086.29
-0.0513219
-0.0970834
2.14297
2.1022
2.14114
2.09976
2.2327
2.18428
2.2417
2.19789
3.19123
3.4855
3.39508
3.3109
3.0606
3.21204
3.02499
3.23272
3.1877
3.47302
3.39296
3.30463
3.05997
3.20659
3.02506
3.23207
5.10925
4.80594
4.83217
5.24575
5.83143
4.7508
4.82618
5.13179
7633.9
3618.46
3593.38
3642.84
3621.78
3791.77
3756.56
3777.81
3745.76
3722.62
3688.86
3695.1
3663.09
2219.36
1744.13
2320.64
1703.61
2214.5
1736.99
2314.54
1696.83
2441.05
1960.85
2333.9
1961.17
2438.01
1980.68
2339.56
1961.48
-0.0932532
2.08171
2.05421
2.09281
2.05342
-0.0690197
2.14212
2.10886
2.16049
2.1213
2.98632
3.21845
3.02506
3.18271
2.95459
3.16142
2.934
3.16955
2.98721
3.21311
3.02522
3.18238
2.95628
3.16313
2.93742
3.17125
3.08418
3.41795
3.40124
3.23766
3.03276
3.15682
3.03223
3.20079
3.08507
3.40285
3.39402
3.22799
3.0318
3.15327
3.03103
3.19577
7493.76
7514.44
3696.95
3613.56
3682.95
3615.05
3693.76
3711.01
3663.45
3670.39
2353.55
1746.74
2344.07
1763.69
2325.09
1688.88
2276.97
1744.75
2347.5
1738.13
2337.51
1753.07
2322.16
1704.22
2277.86
1740.84
2435.93
1963.05
2398.31
1961.94
2432.38
1969.1
2397.31
1960.75
-0.0733248
2.00722
1.94526
2.00251
1.93375
2.14537
2.08578
2.15546
2.10403
-0.079653
2.90679
3.12711
2.90907
3.12787
2.82861
3.11343
2.77109
3.10072
2.91093
3.1383
2.91518
3.13606
2.83259
3.11469
2.77511
3.10836
3.03905
3.15867
3.06808
3.10618
3.02354
3.06454
3.00849
3.07693
3.0385
3.15358
3.06652
3.10323
3.02384
3.07257
3.01176
3.07927
7249.65
7374.41
3634.37
3625.25
3610.08
3612.27
3703.12
3618.7
3655.92
3589
2168.04
1693.4
2247.66
1671.1
2136.78
1629.17
2069.36
1680.56
2154.56
1699.79
2246.31
1656.53
2128.06
1631.13
2063.8
1667.56
2395.44
1963.68
2387.49
1979.04
2375.91
1927.16
2331.05
1964.04
2390.39
1965.8
2385.42
1971.08
2372.43
1941.96
2333.05
1961.61
-0.00572904
-0.169339
2.04419
2.12575
2.05199
2.11512
3.06099
3.02406
2.93007
3.11062
2.89971
2.85828
3.10207
2.75756
3.08032
2.8129
3.059
3.03191
2.92885
3.09976
2.89716
2.86141
3.09459
2.75891
3.07722
2.81262
-0.0881312
2.96866
3.0401
2.97924
3.04115
2.90228
3.03273
2.9727
3.05159
2.98373
3.05371
2.90738
3.04676
3.0414
3.12563
3.04065
3.13573
3.03963
3.11269
3.03945
3.12438
6930.99
7190.36
3582.13
3578.45
3575.04
3589.66
3388.94
3486.65
3377.38
3463.83
2050.24
1678.78
2075.54
1686.57
2140.8
1509.86
2083.92
1715.07
2041.42
1665.21
2065.89
1671.04
2132.69
1527.64
2087.14
1694.2
2321.45
1943.15
2328.6
1947.43
2293.22
1840.84
2187.58
1928.06
2317.02
1952.52
2329.48
1943.29
2286.16
1837.16
2183.7
1919.25
-0.145438
2.21402
2.91094
2.26643
3.00321
-0.123316
2.28554
2.39827
2.29468
2.43587
3.0219
3.02332
2.96471
2.94706
3.03996
2.95946
3.02859
2.84168
3.04016
2.89316
3.01827
3.02511
2.96243
2.94702
3.03817
2.95723
3.03036
2.84339
3.04344
2.89389
-0.17971
2.99571
3.10424
3.01447
3.10066
2.95556
3.0871
2.9953
3.09779
3.01522
3.09441
2.95535
3.08608
6564.51
6860.52
7015.6
3514.46
3405.98
3496.88
3402.8
1575.09
1572.87
1955.76
1539.8
1984.21
2033.98
1367.15
2054.48
1552.14
2054.8
1585.81
1628.84
1981.87
1608.47
2013.39
2038.46
1420.02
2076.81
1604.44
2079.31
2097.2
1804.28
2116.81
1826.05
2146.56
1801.53
2093.08
1797.98
2112.69
1815.49
2140.33
1776.55
2233.33
1865.79
2171.11
1886.8
2228.98
1880.47
2170.98
1893.06
-0.15617
2.46722
2.20037
2.50942
2.19843
3.43035
4.22139
3.54316
4.29943
-0.367273
3.35408
3.19594
3.21175
3.18932
3.20126
3.23376
3.22005
3.16103
3.33889
3.1852
3.1741
3.1934
3.31329
3.25623
3.34626
3.16778
3.04508
2.9555
3.10955
2.97632
3.09544
2.90896
3.04092
2.95219
3.10281
2.97348
3.09552
2.90991
-0.271753
6242.69
6480.9
6657.6
3291.41
3302.99
3273.88
3300.88
3231.77
3249.05
3231.22
3245.2
1867.11
1830.38
2120.41
2082.04
1865.57
2174.4
1612.61
2207.08
1843.43
2210.23
1911.62
1869.74
2097.2
2136.23
1887.92
2185.19
1636.57
2214.79
1872.11
2220.14
2116.43
1846.36
2137.27
1877.83
2147.41
1924.64
2118.26
1854.93
2136.44
1893.54
2154.61
1948.45
0.544226
0.96579
3.84079
3.11025
3.83859
3.00271
3.87328
3.21887
3.87776
3.84888
4.92313
3.16783
6.55432
9.7842
4.61295
7.31454
3.93202
3.25704
3.85035
3.88725
4.92682
3.30897
6.68714
9.96466
4.66554
7.42301
2.7046
3.40549
3.22047
3.37104
3.15912
3.13301
3.16195
3.52675
3.2126
3.3098
3.17769
3.37349
3.17815
-0.123339
5995.64
6164.59
6315.31
3210.01
3118.22
3202.58
3126.68
3134.93
3134.45
3133.77
3121.58
2061.41
1532.57
2078.92
1539.43
2084.62
1362.39
2137.11
1537.63
2063.18
1548.2
2083.05
1544.13
2088.73
1400.59
2146.75
1549.07
1909.11
2133.8
1712.86
2032.79
1807.83
2079.64
1965.68
2151.02
1731.43
2039.34
1832.96
2088.96
17.5939
5.11985
2.3249
5.11122
2.35834
25.0965
9.1987
7.11236
9.20281
6.97175
3.5372
3.62411
3.64001
4.72033
3.59686
4.7533
8.16702
10.3588
5.3876
7.71108
3.57658
3.64597
3.75808
4.72022
3.62032
4.74401
8.29572
10.4896
5.55928
7.7691
7.30159
3.27487
3.24252
3.6129
3.23802
-0.0507663
5816.8
5923
6047.8
6152.02
3133.62
2983.17
3113.44
2981.7
1400.3
1530.58
1913.06
1391.99
1880.28
2074.44
1226.96
1897.87
1403.36
1917.39
1543.99
1429.91
1924.14
1423.09
1891.67
2079.81
1268.32
1915.85
1431.14
1927.78
2043.71
1622.66
2033.86
1751.56
2034.81
1770.69
2038
1628.17
2031.85
1741.48
2033.74
1770.27
114.418
90.8458
25.3735
18.8246
25.539
18.3975
53.0213
11.0026
6.86271
15.1765
6.87686
13.7728
10.9202
6.73558
14.7966
6.75425
14.0753
4.50461
9.04445
6.92859
16.8596
6.41187
15.6443
4.62596
9.4837
6.89111
16.8542
6.49144
16.0942
4.79221
0.0247008
5709.1
5749.08
5828.11
5900.07
2938.04
2931.61
2934.99
2946.27
2905.3
2939.09
2901.36
2931.33
1627.11
1549.16
1861.77
1905.08
1613.17
1855.18
1461.99
1959.09
1623.72
1920.18
1650.11
1568.29
1912.27
1869.09
1630.27
1862.27
1485.23
1967.02
1639.35
1926.72
1978.23
1745.24
1979.6
1760.53
199.311
149.592
270.396
138.163
294.628
92.0698
41.9497