/*--------------------------------*- C++ -*----------------------------------*\
| =========                 |                                                 |
| \\      /  F ield         | OpenFOAM: The Open Source CFD Toolbox           |
|  \\    /   O peration     | Version:  5.x                                   |
|   \\  /    A nd           | Web:      www.OpenFOAM.org                      |
|    \\/     M anipulation  |                                                 |
\*---------------------------------------------------------------------------*/
FoamFile
{
    version     2.0;
    format      ascii;
    class       surfaceScalarField;
    location    "1.5";
    object      phi;
}
// * * * * * * * * * * * * * * * * * * * * * * * * * * * * * * * * * * * * * //

dimensions      [0 3 -1 0 0 0 0];

internalField   nonuniform List<scalar> 
30582
(
0.000264348
-2.78285e-06
0.000267007
-2.65938e-06
0.000263951
-5.13729e-06
0.000266479
5.28142e-07
0.00026644
-5.14848e-06
0.000262527
-5.99854e-06
0.000261186
5.2927e-06
0.000265714
1.25428e-06
0.000265709
-8.33082e-06
0.000260029
-4.26262e-06
0.000255139
6.0469e-06
0.000260683
1.03233e-05
0.000266015
9.48139e-07
0.000262243
-1.05448e-05
0.000256657
9.73499e-07
0.000249006
6.13336e-06
0.000254636
1.20937e-05
0.000261302
1.50369e-05
0.000261794
1.39677e-06
0.000260368
-1.42554e-05
0.000249686
1.33507e-05
0.000244475
4.53088e-06
0.000248639
1.21305e-05
0.000255275
1.81204e-05
0.000258405
1.84258e-05
0.000261827
-6.245e-08
0.000251211
-1.57809e-05
0.000244304
3.13091e-05
0.000242043
2.43218e-06
0.000243921
9.24942e-06
0.000248701
1.87041e-05
0.000253065
2.34611e-05
0.000259469
2.07838e-05
0.000251759
-6.103e-07
0.000248964
-2.04417e-05
0.000226366
6.74334e-05
0.000242731
-6.88345e-07
0.000241315
5.03826e-06
0.000243436
1.45149e-05
0.000246878
2.48911e-05
0.000254996
2.79338e-05
0.000253035
1.95084e-05
0.000253094
-4.73984e-06
0.000222384
-1.64604e-05
0.000143691
-9.8631e-05
0.000246152
-3.42048e-06
0.000242133
-1.50673e-06
0.000240806
7.66825e-06
0.000241322
2.00701e-05
0.000247866
3.2022e-05
0.000251355
2.96134e-05
0.000255514
1.70885e-05
0.000229202
-1.15575e-05
0.000160154
-3.29234e-05
-0.000264819
0.000165227
0.000250997
-4.8453e-06
0.000245927
-7.21485e-06
0.000241547
-2.24829e-06
0.000238055
1.09362e-05
0.000240521
2.74146e-05
0.000245227
3.815e-05
0.000254021
3.11057e-05
0.000242428
3.86286e-06
0.000201741
-5.31446e-05
-0.000239306
-5.84367e-05
4.87398e-05
0.000116453
0.000255236
-4.23863e-06
0.000251226
-1.01444e-05
0.000245531
-1.11985e-05
0.000238939
-3.13292e-06
0.000236474
1.49832e-05
0.000237152
3.54892e-05
0.000245664
4.65073e-05
0.000249809
2.37241e-05
0.0002458
-4.01956e-05
-0.000149031
-0.000143419
5.84191e-05
-6.81159e-05
6.13312e-05
5.5121e-05
0.000256884
-1.6486e-06
0.000255938
-8.94971e-06
0.000251539
-1.6152e-05
0.000244066
-1.63253e-05
0.00023728
-3.93855e-06
0.000231851
2.02844e-05
0.000234455
4.6698e-05
0.000246193
5.01238e-05
0.00027507
-5.54646e-06
1.16815e-05
-0.000200908
-9.56333e-05
1.06333e-05
8.27937e-05
-8.95784e-05
-6.68048e-05
0.000121926
0.000254157
2.72685e-06
0.00025769
-3.40101e-06
0.000257248
-1.46591e-05
0.000251561
-2.3647e-05
0.00024294
-2.19858e-05
0.000232676
-4.76341e-06
0.000227247
2.74923e-05
0.000235708
5.7183e-05
0.000288356
3.68382e-05
0.00014334
-0.000137205
-0.000105773
-0.000190768
5.51781e-05
3.82489e-05
-3.56799e-05
-0.000120703
8.81818e-05
3.37439e-05
0.000245867
8.29093e-06
0.000255214
5.20307e-06
0.00026048
-6.63287e-06
0.00025881
-2.19077e-05
0.000252034
-3.27407e-05
0.000240039
-2.93491e-05
0.000227991
-5.50717e-06
0.000227671
3.55297e-05
0.000288689
5.68501e-05
0.000228342
-4.81639e-05
-8.65725e-05
-0.000156405
3.52445e-05
-0.000170835
1.73509e-05
-1.47819e-05
4.73068e-05
-7.98283e-05
-5.8252e-05
0.000231782
1.40846e-05
0.000247237
1.62679e-05
0.000258449
7.2342e-06
0.000262665
-1.04886e-05
0.000261467
-3.13405e-05
0.000251775
-4.44761e-05
0.000236617
-3.79747e-05
0.000228763
-6.59947e-06
0.000288474
3.57446e-05
0.000267572
1.76202e-05
-2.26242e-05
-0.000112112
2.67678e-05
-0.000147929
1.32459e-05
-0.00016673
1.55021e-05
1.70227e-05
-3.41589e-05
0.000212224
1.95583e-05
0.000233322
2.79994e-05
0.000250527
2.41902e-05
0.000261875
8.02486e-06
0.000268167
-1.71885e-05
0.000264182
-4.37476e-05
0.000251172
-5.90309e-05
0.000238095
-4.73072e-05
0.000295312
-1.34382e-05
0.000295561
7.75534e-06
5.83539e-05
-6.3358e-05
4.54059e-05
-0.00013075
-1.07327e-06
-0.000133609
-1.12726e-07
-0.000151115
1.91959e-06
0.000187751
2.4473e-05
0.000213723
3.91577e-05
0.000236566
4.19596e-05
0.000254835
3.12296e-05
0.000268513
7.67814e-06
0.000272713
-2.57194e-05
0.000267389
-5.99655e-05
0.000254438
-7.53732e-05
0.000310274
-6.22692e-05
0.000338936
-5.68131e-05
0.000149065
-8.29561e-05
7.88858e-05
-9.68378e-05
1.82011e-06
-0.000133644
-5.33366e-06
-0.000128389
4.94628e-06
0.000159183
2.8568e-05
0.000189101
4.90947e-05
0.000216766
5.89579e-05
0.000241093
5.57019e-05
0.000261647
3.80961e-05
0.000275018
5.37308e-06
0.000280012
-3.83416e-05
0.000273188
-7.8716e-05
0.000329906
-9.50045e-05
0.000400657
-0.00012399
0.000243921
-0.000151669
0.000115037
-0.000119107
1.40823e-05
-0.0001091
-3.26908e-06
-0.000135708
1.82632e-06
0.000127432
3.17503e-05
0.000160328
5.7341e-05
0.000191802
7.40585e-05
0.0002211
7.89507e-05
0.000247826
6.95232e-05
0.000269641
4.34724e-05
0.000284826
5.59022e-07
0.000288192
-5.33451e-05
0.000349912
-9.87224e-05
0.000476283
-0.00017063
0.000343828
-0.000223897
0.000140662
-0.000177294
2.97202e-05
-0.000134745
3.46733e-06
-0.000115836
1.25184e-06
9.33991e-05
3.40332e-05
0.000128347
6.37312e-05
0.000162603
8.65405e-05
0.000195672
9.94864e-05
0.000227411
9.93649e-05
0.000256043
8.31215e-05
0.0002793
4.89978e-05
0.000293361
-4.61061e-06
0.000365292
-6.8725e-05
0.00055107
-0.000173509
0.000449609
-0.000276412
0.00016016
-0.000243395
3.76301e-05
-0.000185204
1.10161e-05
-0.000142294
2.55652e-06
5.79207e-05
3.54784e-05
9.40781e-05
6.83024e-05
0.000130163
9.61711e-05
0.000165863
0.00011635
0.000201246
0.000125651
0.000235162
0.000120246
0.000265593
9.68287e-05
0.00029057
5.17891e-05
0.000371266
-1.05844e-05
0.000603206
-0.000120861
0.000556636
-0.000280536
0.000177013
-0.000293265
3.59595e-05
-0.000241724
1.32582e-05
-0.000187446
4.13505e-06
2.1746e-05
3.61747e-05
5.83703e-05
7.11862e-05
9.54339e-05
0.000103031
0.000132757
0.000129276
0.000170528
0.000147069
0.000208048
0.000152765
0.000244093
0.000141746
0.000277271
0.000110127
0.00036558
5.74749e-05
0.000620054
-2.74329e-05
0.000651196
-0.000215421
0.000196027
-0.000299549
2.28045e-05
-0.00028011
9.47283e-06
-0.000237939
4.17004e-06
-1.44432e-05
3.61892e-05
2.19744e-05
7.25706e-05
5.92755e-05
0.000107345
9.73614e-05
0.000138428
0.000136455
0.000163349
0.000176172
0.000178945
0.000215778
0.000181081
0.000255208
0.00016381
0.000349208
0.000126499
0.00061034
6.71887e-05
0.000711415
-8.7652e-05
0.000221047
-0.000240441
7.66038e-07
-0.000277511
-9.67172e-07
-0.00026967
1.96054e-06
-5.00349e-05
3.55917e-05
-1.44331e-05
7.25967e-05
2.24383e-05
0.000109408
6.05606e-05
0.000144145
0.000100102
0.000174781
0.0001409
0.00019862
0.00018248
0.000212243
0.000225266
0.000211022
0.000323344
0.000189673
0.000583711
0.000153129
0.000723777
5.48273e-05
0.00025092
-0.000117525
-2.04125e-05
-0.000219263
-1.55204e-05
-0.000262958
-2.49437e-06
-8.44468e-05
3.4412e-05
-5.02483e-05
7.14069e-05
-1.44081e-05
0.000109443
2.31057e-05
0.000146863
6.23811e-05
0.000181866
0.00010339
0.000212291
0.000145778
0.000235322
0.000190143
0.000247366
0.000289318
0.000245049
0.000543131
0.000230253
0.000695611
0.000181294
0.000268572
3.71759e-05
-3.23194e-05
-0.000105618
-3.1031e-05
-0.000203752
-8.64866e-06
-0.000117122
3.26751e-05
-8.48962e-05
6.90598e-05
-5.06742e-05
0.000107673
-1.43498e-05
0.000146899
2.40404e-05
0.000185203
6.45858e-05
0.00022067
0.000106931
0.000251138
0.000151646
0.000273819
0.000248676
0.000288008
0.000489395
0.000298785
0.000638098
0.000287766
0.000265859
0.000184007
-3.14783e-05
3.63349e-05
-4.07799e-05
-9.58692e-05
-1.48092e-05
-0.000147526
3.04038e-05
-0.000117824
6.56028e-05
-8.5794e-05
0.00010418
-5.12441e-05
0.000144567
-1.42883e-05
0.000185227
2.52258e-05
0.000224563
6.69148e-05
0.000260686
0.000111098
0.000291687
0.00020253
0.000319965
0.000423855
0.000353548
0.000562585
0.000374298
0.000244675
0.00030895
-2.60233e-05
0.000178552
-4.47945e-05
4.03496e-05
-1.98285e-05
-0.000175145
2.76195e-05
-0.000148494
6.10737e-05
-0.000119216
9.90249e-05
-8.70315e-05
0.000139967
-5.20821e-05
0.000182361
-1.40974e-05
0.000224551
2.64464e-05
0.000265032
6.95387e-05
0.000302245
0.000151916
0.0003423
0.00034797
0.000395849
0.000475816
0.000440318
0.00021136
0.000407613
-2.04239e-05
0.00030335
-4.29784e-05
0.000176736
-2.11889e-05
-0.000199507
2.43612e-05
-0.000176381
5.55062e-05
-0.000150399
9.2257e-05
-0.000121169
0.000133162
-8.88189e-05
0.000176704
-5.29232e-05
0.000221187
-1.39136e-05
0.000264911
2.7838e-05
0.000306733
9.78693e-05
0.000356293
0.00026286
0.000427411
0.00038099
0.000490676
0.000171102
0.000480575
-1.56045e-05
0.000402794
-3.74389e-05
0.00029781
-2.01869e-05
-0.000220198
2.06915e-05
-0.000200996
4.89769e-05
-0.000178812
8.39192e-05
-0.000153108
0.000124196
-0.000123968
0.000168311
-9.07726e-05
0.000214553
-5.38359e-05
0.000261109
-1.34971e-05
0.000306246
4.15323e-05
0.00036307
0.000170564
0.000448588
0.000281323
0.000527078
0.000128962
0.000532816
-1.23961e-05
0.000477367
-3.07453e-05
0.0003961
-1.77298e-05
-0.000236895
1.66971e-05
-0.000221913
4.16079e-05
-0.000203946
7.41106e-05
-0.000182292
0.000113103
-0.000156975
0.000157203
-0.000127137
0.000204676
-9.29009e-05
0.000253618
-5.44974e-05
0.000302109
-1.53108e-05
0.000363089
7.27897e-05
0.000460843
0.000178941
0.00055097
8.77502e-05
0.00056829
-1.03379e-05
0.000530758
-2.43244e-05
0.000470946
-1.46577e-05
-0.000249394
1.2499e-05
-0.000238783
3.3567e-05
-0.000225345
6.30065e-05
-0.000208175
9.99943e-05
-0.000187259
0.000143387
-0.000161458
0.000191524
-0.00013062
0.000242396
-9.49959e-05
0.000294117
-7.15071e-05
0.000358306
-2.71589e-05
0.000463038
7.34618e-05
0.000566323
4.90394e-05
0.000589682
-8.66094e-06
0.000566613
-1.86305e-05
0.000525064
-1.16271e-05
-0.00025762
8.22573e-06
-0.000251362
2.50785e-05
-0.000242641
5.08634e-05
-0.000230256
8.5087e-05
-0.00021423
0.000126966
-0.000193122
0.000175051
-0.000166441
0.000227344
-0.000134431
0.000281831
-0.000125028
0.000347638
-0.00012346
0.000454606
-3.12986e-05
0.000567798
1.6317e-05
0.000599046
-6.74694e-06
0.000587768
-1.36957e-05
0.000561679
-8.8948e-06
-0.000261559
3.93884e-06
-0.000259523
1.63869e-05
-0.0002556
3.80375e-05
-0.000248107
6.87148e-05
-0.000237324
0.000108181
-0.000221483
0.000155327
-0.000199722
0.000208331
-0.000172121
0.000265034
-0.000174912
0.000331714
-0.00021284
0.000437018
-0.000134363
0.000557671
-1.06056e-05
0.000594721
-4.45524e-06
0.000596755
-9.30154e-06
0.000583375
-6.53181e-06
-0.000261301
-2.57398e-07
-0.000263303
7.7188e-06
-0.000264159
2.49455e-05
-0.000261424
5.13539e-05
-0.000256052
8.74422e-05
-0.000245879
0.000132577
-0.000229751
0.000185357
-0.000207383
0.000243593
-0.000220633
0.000310755
-0.000294922
0.000413796
-0.000234432
0.000537087
-4.13779e-05
0.000588443
-4.63581e-06
0.000594902
-5.46646e-06
0.00059292
-4.52934e-06
-0.000257419
-3.88195e-06
-0.0002634
-1.60717e-07
-0.000268447
1.20072e-05
-0.000269994
3.35163e-05
-0.000270103
6.54049e-05
-0.000265683
0.000107246
-0.000255743
0.000158569
-0.000239479
0.000217452
-0.000261855
0.000284815
-0.000368515
0.000384348
-0.000330212
0.000509577
-7.97882e-05
0.000575497
-4.15002e-06
0.000587957
-2.65098e-06
0.000592087
-2.87343e-06
-0.000250226
-7.19361e-06
-0.000259377
-7.90525e-06
-0.000267709
-8.99226e-07
-0.000273643
1.56559e-05
-0.000279386
4.27992e-05
-0.000280487
8.02095e-05
-0.00027687
0.000128372
-0.000267504
0.000186594
-0.000298308
0.000253906
-0.000432859
0.00034916
-0.00042167
0.000475805
-0.000121755
0.000551543
-2.34944e-06
0.000573695
6.16998e-07
0.000584688
-1.57999e-06
-0.000240047
-1.01788e-05
-0.000251901
-1.46697e-05
-0.000263346
-1.22674e-05
-0.000273769
-7.73564e-07
-0.000284082
2.03518e-05
-0.000289987
5.22992e-05
-0.00029275
9.60899e-05
-0.000290076
0.000150945
-0.000329718
0.000218004
-0.000488063
0.00030911
-0.00050731
0.0004348
-0.000165986
0.000520035
-1.45786e-06
0.00055065
4.59699e-06
0.000569714
-7.10351e-08
-1.28402e-05
-0.000227207
-0.000241476
-2.06034e-05
-0.000255425
-2.25915e-05
-0.000269194
-1.68416e-05
-0.000282736
-2.11919e-06
-0.000293586
2.39503e-05
-0.000303319
6.28676e-05
-0.000306871
0.000112885
-0.000355739
0.000176965
-0.000534753
0.000264694
-0.00058573
0.00038753
-0.000211484
0.000480297
-8.93024e-07
0.00051947
9.11283e-06
0.000546134
1.76648e-06
-2.57452e-05
-0.000228571
-3.77471e-05
-0.00018946
-0.000244463
-3.15649e-05
-0.000260876
-3.09096e-05
-0.000277524
-2.20535e-05
-0.000293403
-2.30157e-06
-0.000308941
2.9573e-05
-0.000317503
7.35001e-05
-0.000375801
0.000132946
-0.000573662
0.000215874
-0.000656198
0.000335162
-0.000256217
0.000432263
-2.41583e-08
0.000479428
1.42513e-05
0.000514331
3.90742e-06
-3.90984e-05
-0.00023111
-7.5742e-05
-0.000190576
-4.13906e-05
-0.000148069
-0.000249353
-4.3088e-05
-0.000268443
-3.99909e-05
-0.000287597
-2.78594e-05
-0.000306675
-4.56783e-06
-0.000321354
3.34241e-05
-0.000389793
8.74922e-05
-0.000605233
0.000164517
-0.000718497
0.000278173
-0.000296817
0.000375762
1.98413e-06
0.000430256
2.01318e-05
0.000473547
6.44297e-06
-5.32131e-05
-0.000235239
-0.000114674
-0.000192178
-8.26207e-05
-0.000149346
-4.17762e-05
-0.000106293
-0.000256048
-5.54828e-05
-0.00027759
-4.99986e-05
-0.000299807
-3.47272e-05
-0.00032172
-4.20213e-06
-0.00039732
4.09516e-05
-0.000628692
0.000110951
-0.000768907
0.000214928
-0.000328657
0.000310013
6.14453e-06
0.000371603
2.68319e-05
0.000423556
9.39957e-06
-6.83237e-05
-0.000240937
-0.000155102
-0.00019481
-0.000124772
-0.000150027
-8.17215e-05
-0.000109401
-4.92235e-05
-5.70693e-05
-0.000264017
-6.90557e-05
-0.00028861
-6.11955e-05
-0.000314468
-4.19788e-05
-0.000397433
-4.08908e-06
-0.000642934
5.51938e-05
-0.000799622
0.000141666
-0.000347003
0.000233274
1.32565e-05
0.000302902
3.44545e-05
0.000363981
1.27667e-05
-8.49654e-05
-0.000247375
-0.000198136
-0.000197903
-0.000167467
-0.000152114
-0.000121602
-0.000110147
-9.18333e-05
-6.67908e-05
-5.57403e-05
-1.32901e-06
-0.000273863
-8.38031e-05
-0.000303273
-7.23913e-05
-0.000391474
-4.79383e-05
-0.000643427
-3.59536e-06
-0.000801685
5.72561e-05
-0.000348081
0.000142744
2.3474e-05
0.000223057
4.29438e-05
0.000294413
1.64987e-05
-0.000103314
-0.000255514
-0.000244761
-0.00020075
-0.000212031
-0.00015334
-0.000159852
-0.000113864
-0.000129813
-7.21672e-05
-9.90336e-05
-2.34975e-05
-0.000106046
0.000104717
-0.000289176
-9.78997e-05
-0.000382044
-8.18207e-05
-0.000625981
-6.53847e-05
-0.000765448
-3.98317e-05
-0.000330347
3.95223e-05
3.48601e-05
0.000131358
5.13816e-05
0.000214619
2.04335e-05
-0.000121501
-0.000270989
-0.000295534
-0.000204742
-0.000259274
-0.000153506
-0.00019796
-0.000115232
-0.000159743
-8.39334e-05
-0.000131305
-3.98962e-05
-0.000185422
5.58785e-05
-0.000125063
0.00022978
-0.000370988
-0.000108956
-0.000591829
-0.000115973
-0.000698457
-0.000132376
-0.000300365
-6.98141e-05
4.27839e-05
3.15987e-05
5.71036e-05
0.000125636
2.41892e-05
-0.000137474
-0.000355015
-0.000344074
-0.000222449
-0.00030914
-0.000154876
-0.000236876
-0.000114591
-0.000184905
-9.00701e-05
-0.00015334
-6.18982e-05
-0.000229432
4.11413e-06
-0.000227494
0.00015831
-0.000187764
0.000417544
-0.000550017
-0.000150768
-0.000627879
-0.000186551
-0.000266831
-0.000165909
4.00722e-05
-6.71021e-05
5.83214e-05
3.03811e-05
2.71521e-05
-0.000184789
-0.000502701
-0.000400977
-0.000298112
-0.000354736
-0.000176854
-0.000276259
-0.000115492
-0.000207988
-9.1508e-05
-0.000168909
-7.45011e-05
-0.000233747
-5.75832e-05
-0.000274433
5.10535e-05
-0.000327894
0.000298439
-8.31156e-05
0.000500659
-0.000567834
-0.000210814
-0.000228048
-0.000225334
2.67178e-05
-0.000152555
5.47206e-05
-6.35011e-05
2.78391e-05
-0.000240989
-0.000511634
-0.000580319
-0.000323359
-0.000420537
-0.000232311
-0.000314826
-0.000138287
-0.000229757
-9.37232e-05
-0.000177243
-8.31733e-05
-0.000215462
-9.27861e-05
-0.000275735
-5.62817e-05
-0.000414906
0.000138066
-0.000215463
0.000430787
0.000170359
0.0003303
-0.000184654
-0.000254208
1.50122e-05
-0.000213629
4.57235e-05
-0.000143558
2.49111e-05
-0.000282799
-0.000142845
-0.000767425
-0.000324527
-0.00061311
-0.000130786
-0.000379736
-0.000167401
-0.000255639
-0.000112405
-0.000180799
-9.01679e-05
-0.000188048
-0.000110587
-0.00024056
-0.000127961
-0.000405954
-6.52341e-05
-0.000327519
0.000250122
0.000232343
0.000368803
0.00140218
0.000486072
-0.00155795
1.19409e-05
-0.000251137
3.68824e-05
-0.000204788
2.10136e-05
-0.000282035
1.11759e-05
-0.000795639
-0.000114632
-0.000749734
-0.000187903
-0.000532516
2.19941e-05
-0.000305282
-0.000117758
-0.00018937
-0.000103834
-0.000158378
-0.000119838
-0.000185071
-0.000166076
-0.000332982
-0.000200933
-0.000325933
-6.68201e-05
0.000208749
0.000273716
0.00127801
0.000492964
0.00178742
0.000599297
-0.00190065
0.000310246
-0.00186819
3.21136e-05
-0.000246369
1.6792e-05
-0.00027897
2.90481e-05
-0.000771859
-1.26047e-05
-0.000751064
-0.000113303
-0.000604404
-0.000116015
-0.000398638
0.00011535
-0.000220586
-8.65414e-05
-0.000137876
-0.000124336
-0.000127867
-0.000177042
-0.000228283
-0.000270775
-0.000265713
-0.000261153
0.000109153
3.27754e-05
0.00117392
0.000377813
0.00162044
0.000659942
0.00182693
0.000769894
-0.00199753
0.000458248
-0.00204865
0.000230837
-0.00209903
1.42737e-05
1.17421e-05
-0.000749838
7.02715e-06
-0.000728955
-3.47143e-05
-0.000603747
-0.00011396
-0.000434291
-8.03619e-05
-0.000275287
0.000170051
-0.000142153
-8.22644e-05
-8.96387e-05
-0.000162564
-0.0001327
-0.000272625
-0.000180588
-0.0003559
5.73212e-05
-0.000209321
0.00100395
0.000202744
0.00140591
0.000592347
0.00165658
0.000830292
0.00184525
0.0010229
-0.00209825
0.000646248
-0.00218553
0.000383857
-0.00220167
0.000152809
-0.00225184
2.69941e-06
-0.000710495
-1.14325e-05
-0.000595619
-4.28416e-05
-0.00044328
-0.000104971
-0.000301346
-5.43028e-05
-0.000182609
0.000210507
-7.63103e-05
-9.55928e-05
-7.51332e-05
-0.000220131
-0.000109149
-0.000344064
7.91884e-05
-0.000377768
0.000808534
-1.39057e-05
0.00118762
0.000421033
0.00142949
0.000819442
0.00157696
0.00109858
0.00186708
0.00125712
-0.0021013
0.000825905
-0.00227791
0.000507536
-0.00230921
0.000259503
-0.00230836
9.53218e-05
-0.00234716
-4.27806e-06
-0.000586059
-2.09924e-05
-0.000445255
-4.0866e-05
-0.000318056
-8.82612e-05
-0.000207783
-2.91284e-05
-0.000151729
0.000285926
-4.12096e-05
-0.000129516
-7.71745e-05
-0.000252106
5.60396e-05
-0.000320916
0.000574084
-0.000143318
0.000942042
0.000231674
0.00116579
0.000684735
0.00133385
0.00106256
0.00157576
0.00138989
0.00176061
0.00145483
-0.00195832
0.0009512
-0.0022266
0.000585663
-0.00235604
0.00035433
-0.00240404
0.000193831
-0.00240687
5.08121e-05
-0.00239797
-8.67552e-06
-0.0004436
-2.2647e-05
-0.000324125
-3.47966e-05
-0.000228145
-6.78998e-05
-0.000167725
-1.31331e-05
-0.000125023
0.000369739
-5.36423e-05
-0.000153048
-3.68646e-05
-0.000159201
0.000316213
-6.30446e-05
0.000586506
0.000212218
0.000853704
0.000543758
0.00106718
0.000951406
0.00123116
0.00140716
0.00146621
0.0016843
0.00163603
0.000389281
-0.00178742
0.000389402
0.000413675
0.000413859
0.000982074
-0.00198919
0.000597217
-0.00223815
0.000407041
-0.00240875
0.000237968
-0.00244818
8.63428e-05
-0.0024424
9.22223e-06
-0.0024072
-9.79408e-06
-0.000325702
-2.10698e-05
-0.000233795
-2.91468e-05
-0.000176944
-5.86812e-05
-0.000130532
-7.62517e-06
-0.000145835
0.000461932
-0.000114726
-7.51872e-05
6.60043e-05
9.1007e-05
0.000271655
0.000251806
0.000536841
0.000529081
0.000823988
0.000786945
0.000888329
0.00129424
0.0011941
0.00167926
0.00131315
0.00200718
-2.0426e-07
0.000378079
-0.000399741
0.000411146
0.000280459
-0.00187657
0.000280304
0.000255374
0.000255092
0.000380384
-0.000399721
0.000408535
-1.70029e-07
0.000336025
0.0004559
0.000340038
0.000454034
0.000576407
-0.00196838
0.00037
-0.00220111
0.000208367
-0.00237915
8.61815e-05
-0.00244801
-4.37262e-06
-0.00242881
-4.50836e-05
-0.00236211
-9.486e-06
-0.000235883
-1.89822e-05
-0.000174538
-3.15538e-05
-0.000128784
-6.04303e-05
-0.000126316
-2.71455e-05
-0.000165458
0.000512664
-0.000164278
0.000155095
8.39257e-05
0.000278736
0.000267679
0.000520969
0.00059519
0.000757879
0.000557328
0.00111795
0.000914231
0.00157411
0.000994105
0.00199831
-0.000300264
-0.000300826
0.00097586
0.000568423
0.000566071
0.000587347
0.000586631
-5.39458e-07
-0.000443039
0.000324297
-2.53869e-08
0.00033377
-0.000372332
0.000449734
-0.00192043
0.000620259
-0.000442464
0.000322508
-3.94988e-07
-0.000466198
0.000278928
-0.000465301
0.000277534
0.000332538
-0.000371373
0.000447344
1.85293e-07
0.000489221
0.000485932
0.000246171
-0.00184455
0.000106407
-0.00209915
5.32696e-06
-0.00229829
-7.00223e-05
-0.00238236
-0.000102233
-0.00237166
-7.39811e-05
-0.00228813
-8.77854e-06
-0.000172901
-2.06201e-05
-0.000120872
-3.94675e-05
-9.53583e-05
-9.13878e-05
-0.000115929
-7.66739e-05
-0.00012908
0.000477466
-8.68332e-05
0.000325854
9.84616e-05
0.000447953
0.000356664
0.000759495
0.000330371
0.000984836
0.000602348
0.00142983
0.000710583
0.00185763
0.000721494
0.0005723
0.000570232
0.000557316
0.000552825
2.1491e-07
0.000168462
-0.000197246
0.000596992
0.000168977
-0.000197844
0.000595153
-3.37553e-07
0.000155403
0.000600744
0.000155078
0.000600192
-1.8474e-07
-0.000419295
0.000371445
9.8743e-07
0.000253382
-0.000297575
0.000136021
0.000109991
0.000124878
0.00012205
-0.00183197
0.000157718
0.000448437
0.000447298
-0.00201329
0.000180769
0.000180727
0.000222661
0.000222159
-0.000418429
0.00036938
-9.73572e-08
0.000308167
0.000306305
0.000253717
-0.000297572
0.000135316
0.000110951
0.000124487
0.000121431
8.98463e-07
0.000145955
0.000124545
0.000146738
0.000127219
0.00014512
0.000125306
0.000145763
0.000126514
9.64467e-06
-0.00174779
-0.000102552
-0.00199127
-0.000212424
-0.00215589
-0.000216691
-0.00226791
-0.000163924
-0.00228172
-0.000109926
-0.0021782
-9.2032e-06
-0.00011517
-2.63225e-05
-7.7488e-05
-5.73385e-05
-5.96963e-05
-0.000147621
-4.61945e-05
-0.000159559
-0.000114975
0.000505609
-7.27797e-05
0.000497096
0.000114451
0.000690166
0.000178732
0.000911134
0.000336518
0.00125067
0.000434065
0.00170635
0.000546439
0.000502064
0.000500142
0.0005159
0.000514581
-2.90528e-07
0.000129519
0.000598475
0.000128082
0.000596937
-2.46987e-07
0.000104817
0.000582265
0.000101864
0.000578796
4.42217e-07
8.23896e-05
-4.35907e-05
-2.83936e-05
0.000135404
-3.18715e-05
0.000179439
0.000137155
0.000180977
-1.49289e-05
8.18541e-05
-4.36228e-05
-2.825e-05
-3.15655e-05
0.00013608
0.000178727
0.00013686
0.000180257
-1.47456e-05
7.92565e-07
5.41788e-05
0.000133731
0.000173778
0.000138203
0.000182498
5.46804e-05
0.000133899
0.000173427
0.000138561
0.000182272
7.26856e-07
-0.000341242
0.000109479
9.74816e-05
0.000113327
9.40971e-05
-5.2202e-05
7.29435e-06
2.37342e-07
4.65053e-05
0.000134186
-6.20509e-06
4.93449e-05
-5.20811e-05
0.000118932
1.11514e-07
-5.56233e-05
0.000121983
4.7147e-05
0.000131542
-0.00167065
-0.000151681
-0.00192433
-1.52096e-05
-1.31802e-05
4.79686e-05
4.91748e-05
-3.76624e-07
0.000360047
-0.000347172
0.00016827
0.000360572
-0.000348028
0.000167806
-9.76707e-08
0.000360981
0.000221825
0.000361818
0.000220815
-0.000340811
0.000108972
9.79312e-05
0.000112722
9.37203e-05
4.70394e-07
9.53878e-05
6.70362e-05
8.48547e-05
8.01571e-05
9.49262e-05
6.83133e-05
8.456e-05
7.99829e-05
-5.2146e-05
7.2922e-06
4.64986e-05
0.000133908
-5.8781e-06
4.94848e-05
-5.19264e-05
0.000119271
-5.5438e-05
0.000122013
4.7176e-05
0.000131032
4.15567e-05
7.58752e-06
2.53402e-07
0.000143063
-1.27221e-05
-4.45656e-05
0.000138242
1.73591e-07
0.000147007
0.000137388
4.16185e-05
7.60911e-06
0.000142644
-1.23903e-05
-4.45815e-05
0.000138655
0.000146915
0.000136718
-0.000226146
-0.0016242
-0.000389439
-0.00181426
-0.000431517
-0.00194106
-0.000319769
-0.00211206
-0.000234141
-0.0021575
-0.000143549
-0.00203466
-1.05909e-05
-6.15508e-05
-4.2261e-05
-3.03107e-05
-8.67248e-05
-7.09891e-06
-0.000186717
-4.49759e-05
-0.000229557
-0.000130123
0.000562953
-0.000204139
0.000815686
4.31566e-06
0.000864582
0.000113059
0.00113459
0.000193873
0.00149086
0.000342668
0.000470691
0.000470748
0.000485224
0.000483456
9.76319e-08
7.02257e-05
0.000536559
6.86859e-05
0.000533418
1.05895e-07
5.73912e-05
0.000528629
5.8192e-05
0.00052518
9.1654e-07
4.16379e-05
0.000133565
0.000172036
0.000131358
0.000173176
4.16643e-05
0.000134031
0.000171624
0.000132604
0.00017262
1.27758e-06
2.07865e-05
0.000128834
0.000171332
0.000128411
0.000173254
1.92207e-05
0.000129881
0.000170502
0.0001296
0.000172514
-4.58811e-06
3.02277e-06
-1.76299e-05
0.000154599
-5.50077e-06
-2.85636e-05
0.000140435
-2.24806e-06
5.49124e-08
0.000183352
-6.34212e-06
-4.95214e-06
1.0201e-07
0.000145028
-3.60681e-08
2.02182e-06
0.000171775
6.91777e-08
-2.42246e-05
0.000150751
-5.72175e-06
-2.81485e-05
0.00014096
-4.74732e-06
3.35835e-06
-1.79962e-05
0.000155466
-2.49679e-06
-6.29885e-06
0.00018283
-4.63231e-06
4.89889e-07
0.000144361
1.75525e-06
0.000171336
-2.40693e-05
0.000150586
-8.06539e-06
3.94487e-06
-4.48161e-06
0.000142333
-1.2372e-06
1.65402e-07
-5.70454e-07
0.000167356
-5.65758e-06
0.000147907
8.37696e-08
0.000177509
-7.97981e-06
3.86544e-06
-4.51822e-06
0.000142531
-1.15629e-06
-4.3228e-07
0.000167201
-5.53683e-06
0.000148453
0.000177418
6.07817e-05
6.94552e-06
6.8493e-08
-6.64035e-05
0.000108087
-5.54792e-06
-5.90215e-05
0.00010997
3.57206e-08
0.000112902
-6.35457e-05
0.000105567
-3.67302e-05
1.47539e-06
-6.59567e-08
3.00102e-05
0.000139497
-8.16435e-07
3.56427e-05
-3.93803e-05
0.000123486
-8.40882e-08
-4.06184e-05
0.000125157
3.10772e-05
0.000137583
-0.0014964
-0.000400392
-0.00164756
-0.000127642
-0.000128498
-8.67055e-05
-8.55993e-05
8.96355e-08
0.000345024
-0.000326621
-3.37023e-05
0.000346168
-0.000327316
-3.19426e-05
-4.29141e-08
4.58632e-05
4.72723e-05
-3.27353e-07
0.000263107
-0.000279011
3.42894e-05
5.42279e-05
3.88933e-05
5.71255e-05
0.000263344
-0.000279525
3.41349e-05
5.399e-05
3.86554e-05
5.68787e-05
-2.41686e-07
5.77601e-05
7.84202e-05
5.54185e-05
4.48685e-05
7.2178e-05
4.72728e-05
6.46719e-05
6.45984e-05
5.76507e-05
7.82611e-05
5.51757e-05
4.48677e-05
7.19237e-05
4.70338e-05
6.4433e-05
6.45721e-05
6.06926e-05
6.78331e-06
-6.63272e-05
0.000107892
-5.17019e-06
-5.8776e-05
0.000109951
0.000112842
-6.34606e-05
0.000105188
-7.13869e-05
8.03841e-06
7.77196e-08
9.22549e-05
-1.33478e-05
6.45933e-05
7.35507e-05
6.86623e-08
7.84881e-05
8.92429e-05
-7.13757e-05
7.8689e-06
9.21834e-05
-1.29359e-05
6.48138e-05
7.40861e-05
7.85782e-05
8.9205e-05
-3.6565e-05
1.30381e-06
2.98021e-05
0.000139301
-6.11272e-07
3.52603e-05
-3.91619e-05
0.000123784
-4.05103e-05
0.000125263
3.06086e-05
0.000136988
2.68469e-06
-6.16871e-09
0.00014615
0.000142586
2.60505e-06
0.000145765
0.000141783
-0.00053859
-0.00147505
-0.000711015
-0.00153476
-0.000579838
-0.00168099
-0.000427262
-0.00191894
-0.000300785
-0.00200027
-0.000196779
-0.00183788
-1.42029e-05
-1.84574e-06
-7.07264e-05
3.28569e-05
-0.00012668
4.4851e-05
-0.000276543
-3.85401e-05
-0.000321138
-0.00013995
0.000498765
-0.000321068
0.00114107
-4.99087e-05
0.00102755
-8.95738e-08
0.00132856
0.000109261
0.000422626
0.000420731
0.000440501
0.000440408
1.22978e-07
4.70272e-05
0.000480932
4.8167e-05
0.000480896
1.99729e-08
3.2613e-05
0.000499618
3.30283e-05
0.000498615
1.67149e-06
1.41729e-05
0.000114395
0.000153692
0.000118691
0.000154686
1.29058e-05
0.000115216
0.000152689
0.000119391
0.000154116
1.78874e-06
9.7493e-06
0.000121146
0.00014322
0.00011796
0.000148966
7.10202e-06
0.0001224
0.000142865
0.000118905
0.000148629
-8.42516e-06
-6.99927e-06
0.000144507
-3.39091e-06
5.58127e-08
0.000166359
-7.80351e-06
-8.49101e-06
0.000140648
-5.43852e-08
-1.63178e-06
0.000163632
-8.35884e-06
-7.21585e-06
0.000145087
-3.26498e-06
0.000166154
-7.56494e-06
-8.91066e-06
0.000141864
-1.74821e-06
0.000163494
-9.77797e-06
9.17926e-06
-9.65878e-06
0.000139096
8.89376e-07
8.38911e-08
-2.64589e-06
0.000163205
-7.861e-06
0.000136966
-1.08184e-07
0.000164778
-9.637e-06
9.76797e-06
-1.00781e-05
0.000139828
1.4021e-06
-3.17281e-06
0.000162711
-7.62486e-06
0.000138082
0.000164424
-2.02217e-06
-9.02554e-06
9.91612e-09
-2.52854e-05
-3.12562e-05
-4.63567e-09
-1.74628e-08
-3.74332e-06
1.87598e-07
-8.67601e-06
-3.62669e-08
-8.31722e-06
-2.1225e-06
-8.95509e-06
9.77333e-09
-2.52515e-05
-3.73462e-06
-3.13221e-05
2.38192e-07
-8.76779e-06
-8.50201e-06
-4.13108e-08
6.4721e-06
-8.77143e-06
4.14002e-06
3.25561e-08
-6.09771e-06
-1.8943e-07
-1.13718e-08
-3.74565e-09
6.33857e-06
-8.87123e-06
4.20715e-06
-6.05763e-06
-1.25563e-07
4.52262e-05
1.42378e-06
-8.16263e-08
-5.15063e-05
0.000113011
-8.63881e-07
-4.39286e-05
0.000115382
-8.56439e-08
0.000116715
-4.8555e-05
0.000111617
-1.09398e-05
3.92313e-07
-4.80267e-08
6.78385e-06
-1.08456e-07
1.06605e-05
-1.25608e-05
-5.03003e-08
-1.2765e-05
7.4374e-06
-0.00128741
-0.000747579
-0.00135504
-0.000193139
-0.000196368
-0.00015062
-0.000152789
1.1397e-07
0.000303596
-0.000274029
-0.000157323
0.000303358
-0.000274056
-0.000157686
3.2453e-07
-0.000110055
-0.000109232
9.49356e-07
0.000311263
-0.000322808
-2.66294e-05
1.35715e-06
-1.19314e-05
1.41233e-05
0.000312576
-0.000324539
-2.48104e-05
1.64613e-06
-1.0255e-05
1.43684e-05
5.54845e-08
1.23647e-05
3.35173e-05
4.41385e-06
2.77989e-05
1.31058e-05
3.36942e-05
5.54654e-06
2.80427e-05
-6.68579e-06
4.18114e-05
-3.54811e-05
3.46449e-05
4.94866e-05
-3.26218e-07
-4.4693e-05
4.30223e-05
-6.65975e-06
3.87684e-05
4.8596e-05
-2.75018e-07
4.52456e-05
5.49817e-05
-6.0948e-06
4.2431e-05
-3.6677e-05
3.44756e-05
4.96944e-05
-4.50427e-05
4.29172e-05
-6.1755e-06
3.91404e-05
4.81214e-05
4.53692e-05
5.47533e-05
-4.90456e-06
-3.46116e-05
2.63449e-05
6.85898e-05
-7.04589e-06
4.91614e-05
7.63037e-05
-3.88109e-05
-1.65877e-07
7.54106e-05
3.08017e-05
-6.50236e-06
5.7932e-05
-2.06079e-07
6.48102e-05
-8.56589e-08
5.56488e-05
8.04963e-05
-4.53911e-06
-3.47936e-05
2.62028e-05
6.83056e-05