/*--------------------------------*- C++ -*----------------------------------*\
| =========                 |                                                 |
| \\      /  F ield         | OpenFOAM: The Open Source CFD Toolbox           |
|  \\    /   O peration     | Version:  5.x                                   |
|   \\  /    A nd           | Web:      www.OpenFOAM.org                      |
|    \\/     M anipulation  |                                                 |
\*---------------------------------------------------------------------------*/
FoamFile
{
    version     2.0;
    format      ascii;
    class       volScalarField;
    location    "1.5";
    object      rAU;
}
// * * * * * * * * * * * * * * * * * * * * * * * * * * * * * * * * * * * * * //

dimensions      [-1 3 1 0 0 0 0];

internalField   nonuniform List<scalar> 
12160
(
1.26502e-06
1.26594e-06
1.265e-06
1.26592e-06
1.26495e-06
1.26499e-06
1.26551e-06
1.2651e-06
1.26551e-06
1.26501e-06
1.26651e-06
1.2658e-06
1.2665e-06
1.26494e-06
1.26504e-06
1.26688e-06
1.26662e-06
1.2663e-06
1.26569e-06
1.26494e-06
1.26503e-06
1.26689e-06
1.26684e-06
1.26627e-06
1.26654e-06
1.26594e-06
1.26498e-06
1.26505e-06
1.2669e-06
1.26685e-06
1.26679e-06
1.26675e-06
1.26646e-06
1.26597e-06
1.26505e-06
1.26496e-06
1.2659e-06
1.26688e-06
1.26682e-06
1.26674e-06
1.26641e-06
1.26676e-06
1.26598e-06
1.2666e-06
2.07676e-06
1.26588e-06
1.26611e-06
1.26686e-06
1.26677e-06
1.26669e-06
1.26669e-06
1.26677e-06
1.26818e-06
1.96452e-06
4.67772e-05
1.26689e-06
1.26606e-06
1.26689e-06
1.26683e-06
1.26672e-06
1.26624e-06
1.26662e-06
1.27066e-06
1.96602e-06
4.93481e-05
0.000649661
1.26689e-06
1.26685e-06
1.26683e-06
1.26688e-06
1.26681e-06
1.26626e-06
1.26625e-06
1.27422e-06
1.93436e-06
4.07871e-05
0.00123783
0.00125407
1.26577e-06
1.26685e-06
1.2668e-06
1.26679e-06
1.26688e-06
1.26677e-06
1.2665e-06
1.27749e-06
1.93132e-06
3.28466e-05
0.00119905
0.00126551
0.001266
1.26483e-06
1.26681e-06
1.26681e-06
1.26674e-06
1.26675e-06
1.26687e-06
1.26675e-06
1.28205e-06
1.97117e-06
2.48657e-05
0.00115989
0.00126636
0.00126579
0.00126601
1.26593e-06
1.26648e-06
1.26687e-06
1.26675e-06
1.26667e-06
1.26669e-06
1.2669e-06
1.2868e-06
2.03712e-06
2.19183e-05
0.00104866
0.00126525
0.00126658
0.00126572
0.00126623
1.26687e-06
1.26658e-06
1.26674e-06
1.26684e-06
1.26668e-06
1.26658e-06
1.26669e-06
1.2888e-06
2.09647e-06
2.23233e-05
0.000950925
0.00126537
0.00126555
0.00126659
0.00126462
1.26691e-06
1.26691e-06
1.26678e-06
1.26686e-06
1.26679e-06
1.26659e-06
1.26665e-06
1.28647e-06
2.10803e-06
2.36592e-05
0.000856394
0.00126538
0.00126576
0.00126563
0.00126637
1.26691e-06
1.26691e-06
1.26691e-06
1.26686e-06
1.26686e-06
1.26673e-06
1.26672e-06
1.28064e-06
2.05499e-06
2.2945e-05
0.000793195
0.00126522
0.00126596
0.00126586
0.00126379
1.26691e-06
1.26691e-06
1.26691e-06
1.26689e-06
1.26687e-06
1.26686e-06
1.2668e-06
1.27406e-06
1.95322e-06
1.99846e-05
0.000712521
0.00126443
0.00126607
0.0012658
0.0012643
1.2669e-06
1.26691e-06
1.26691e-06
1.26691e-06
1.26689e-06
1.26683e-06
1.26689e-06
1.26899e-06
1.84354e-06
1.5967e-05
0.000603892
0.00126343
0.00126603
0.00126596
0.00126407
1.2669e-06
1.2669e-06
1.26691e-06
1.26691e-06
1.26691e-06
1.2668e-06
1.26678e-06
1.26694e-06
1.75344e-06
1.21647e-05
0.000468982
0.00126098
0.00126595
0.00126639
0.0012644
1.2669e-06
1.2669e-06
1.2669e-06
1.26691e-06
1.26691e-06
1.26679e-06
1.2668e-06
1.26668e-06
1.68989e-06
9.41786e-06
0.000331509
0.00125625
0.00126562
0.00126638
0.00126435
1.26689e-06
1.2669e-06
1.2669e-06
1.2669e-06
1.26691e-06
1.26679e-06
1.26679e-06
1.26656e-06
1.65168e-06
7.88935e-06
0.000223747
0.00124651
0.00126493
0.00126621
0.00126354
1.26689e-06
1.26689e-06
1.2669e-06
1.2669e-06
1.2669e-06
1.26678e-06
1.26679e-06
1.26641e-06
1.64079e-06
7.26218e-06
0.000159656
0.00123105
0.00126464
0.00126466
0.00126261
1.26689e-06
1.26689e-06
1.26689e-06
1.2669e-06
1.2669e-06
1.26678e-06
1.26678e-06
1.26627e-06
1.65097e-06
7.11407e-06
0.000130519
0.00120912
0.00126496
0.001265
0.0012609
1.26688e-06
1.26689e-06
1.26689e-06
1.26689e-06
1.2669e-06
1.26677e-06
1.26678e-06
1.26614e-06
1.67868e-06
7.27323e-06
0.000123243
0.00118201
0.00126588
0.00126592
0.00126141
1.26688e-06
1.26688e-06
1.26689e-06
1.26689e-06
1.2669e-06
1.26676e-06
1.26677e-06
1.26605e-06
1.71758e-06
7.70037e-06
0.000127676
0.00116863
0.0012668
0.00126641
0.00126314
1.26688e-06
1.26688e-06
1.26688e-06
1.26689e-06
1.26689e-06
1.26675e-06
1.26676e-06
1.26601e-06
1.76099e-06
8.30178e-06
0.000141718
0.00117289
0.00126677
0.00126668
0.00126515
1.26687e-06
1.26688e-06
1.26688e-06
1.26688e-06
1.26689e-06
1.26674e-06
1.26675e-06
1.26608e-06
1.80253e-06
8.98667e-06
0.000161808
0.0011872
0.00126678
0.00126605
0.00126649
1.26687e-06
1.26687e-06
1.26688e-06
1.26688e-06
1.26688e-06
1.26674e-06
1.26674e-06
1.26634e-06
1.83618e-06
9.65681e-06
0.000184888
0.00120259
0.0012668
0.00126547
0.00126524
1.26687e-06
1.26687e-06
1.26687e-06
1.26688e-06
1.26688e-06
1.26674e-06
1.26674e-06
1.2667e-06
1.85721e-06
1.02088e-05
0.000207646
0.0012152
0.00126682
0.00126497
0.00126408
1.26687e-06
1.26687e-06
1.26687e-06
1.26687e-06
1.26688e-06
1.26674e-06
1.26674e-06
1.26662e-06
1.86238e-06
1.05496e-05
0.000226512
0.00122419
0.00126684
0.00126458
0.0012631
1.26686e-06
1.26687e-06
1.26687e-06
1.26687e-06
1.26687e-06
1.26674e-06
1.26674e-06
1.26625e-06
1.85017e-06
1.06164e-05
0.000237912
0.00123041
0.00126685
0.00126427
0.00126231
1.26628e-06
1.26686e-06
1.26687e-06
1.26687e-06
1.26687e-06
1.26675e-06
1.26674e-06
1.26606e-06
1.82243e-06
1.04126e-05
0.000239747
0.00123483
0.00126685
0.00126404
0.0012617
1.26459e-06
1.26686e-06
1.26686e-06
1.26686e-06
1.26687e-06
1.26674e-06
1.26674e-06
1.26601e-06
1.78411e-06
9.96674e-06
0.000232714
0.00123337
0.00126684
0.00126388
0.00126124
1.26515e-06
1.26685e-06
1.26686e-06
1.26686e-06
1.26686e-06
1.26675e-06
1.26674e-06
1.26605e-06
1.73955e-06
9.35211e-06
0.000217531
0.00123148
0.00126366
0.00126378
0.00126092
1.26685e-06
1.26686e-06
1.26684e-06
1.26683e-06
1.26686e-06
1.26675e-06
1.26674e-06
1.26613e-06
1.69325e-06
8.65386e-06
0.000196355
0.00122765
0.00126365
0.00126372
0.00126071
1.26686e-06
1.26685e-06
1.26686e-06
1.26683e-06
1.26683e-06
1.26677e-06
1.26675e-06
1.26624e-06
1.64925e-06
7.95122e-06
0.000172716
0.00121906
0.00126685
0.00126585
0.0012606
1.26686e-06
1.26686e-06
1.26686e-06
1.26686e-06
1.26683e-06
1.26679e-06
1.26677e-06
1.26635e-06
1.61087e-06
7.30363e-06
0.00014959
0.00120742
0.00126684
0.00126373
0.0012627
1.26751e-06
1.26686e-06
1.26686e-06
1.26686e-06
1.26686e-06
1.26682e-06
1.26679e-06
1.26645e-06
1.58085e-06
6.75188e-06
0.000128888
0.00119132
0.00126683
0.00126381
0.00126063
1.26751e-06
1.26714e-06
1.26686e-06
1.26686e-06
1.26683e-06
1.26685e-06
1.26681e-06
1.26656e-06
1.56119e-06
6.32413e-06
0.000111726
0.0011704
0.0012668
0.00126394
0.00126078
1.26752e-06
1.26715e-06
1.26685e-06
1.26686e-06
1.26678e-06
1.26683e-06
1.26685e-06
1.2667e-06
1.55308e-06
6.02966e-06
9.85607e-05
0.0011453
0.00126677
0.00126412
0.00126103
1.26753e-06
1.26715e-06
1.26685e-06
1.26685e-06
1.26673e-06
1.26677e-06
1.26685e-06
1.26687e-06
1.55702e-06
5.88885e-06
8.9326e-05
0.00111827
0.00126672
0.00126437
0.0012614
1.26739e-06
1.26715e-06
1.26685e-06
1.26685e-06
1.26687e-06
1.26673e-06
1.26686e-06
1.26765e-06
1.57497e-06
5.91245e-06
8.49498e-05
0.00109359
0.00126665
0.00126468
0.00126189
1.2674e-06
1.26698e-06
1.26685e-06
1.26685e-06
1.26681e-06
1.26688e-06
1.26686e-06
1.2698e-06
1.60531e-06
6.13323e-06
8.58297e-05
0.00108019
0.00126659
0.00126506
0.00126251
1.26759e-06
1.26698e-06
1.26662e-06
1.26685e-06
1.26664e-06
1.26682e-06
1.2666e-06
1.27328e-06
1.6481e-06
6.69099e-06
9.45956e-05
0.00108735
0.00126655
0.00126553
0.00126328
1.2786e-06
1.26724e-06
1.26662e-06
1.2665e-06
1.26653e-06
1.26668e-06
1.26672e-06
1.26662e-06
1.70395e-06
7.74227e-06
0.000116692
0.00111932
0.00126659
0.00126607
0.0012642
1.77454e-06
1.28953e-06
1.26721e-06
1.2665e-06
1.26582e-06
1.26657e-06
1.26649e-06
1.26674e-06
1.26583e-06
9.35786e-06
0.000155437
0.00115818
0.00126583
0.00126667
0.00126528
1.16607e-05
1.94519e-06
1.31666e-06
1.26786e-06
1.26582e-06
1.26578e-06
1.26648e-06
1.26682e-06
1.26615e-06
1.26282e-06
0.000208964
0.0011927
0.00126473
0.00126645
0.00126647
0.000279256
1.7312e-05
2.37878e-06
1.35717e-06
1.26837e-06
1.2651e-06
1.26686e-06
1.2666e-06
1.26609e-06
1.26543e-06
1.26208e-06
0.00121827
0.00126404
0.00126587
0.0012652
0.00123381
0.000434594
3.45941e-05
2.99869e-06
1.40278e-06
1.26936e-06
1.26616e-06
1.2664e-06
1.26657e-06
1.2653e-06
1.26351e-06
1.26231e-06
0.00126366
0.00126543
0.00126287
0.00126322
0.00124887
0.000744364
6.41416e-05
3.72604e-06
1.44847e-06
1.27251e-06
1.26642e-06
1.26634e-06
1.26686e-06
1.26403e-06
1.26052e-06
1.26588e-06
1.2645e-06
0.00126514
0.00126099
0.0012648
0.0012624
0.00126056
0.000977917
0.000100969
4.45378e-06
1.49318e-06
1.27552e-06
1.26632e-06
1.266e-06
1.26675e-06
1.26061e-06
1.2669e-06
1.2651e-06
1.26588e-06
1.26542e-06
0.00125958
0.00125842
0.00126445
0.00126289
0.00126419
0.00109075
0.000135289
5.10131e-06
1.5216e-06
1.27635e-06
1.26494e-06
1.26614e-06
1.2659e-06
1.26604e-06
1.2669e-06
1.26509e-06
1.26689e-06
1.26689e-06
1.26542e-06
0.00125695
0.00126217
0.00126488
0.00126367
0.00114223
0.00016166
5.47628e-06
1.54064e-06
1.26976e-06
1.26515e-06
1.266e-06
1.26603e-06
1.26672e-06
1.26562e-06
1.26686e-06
1.26688e-06
1.26689e-06
1.26689e-06
1.26195e-06
0.00125446
0.00126591
0.00126587
0.00126456
0.00116917
0.000177518
5.85794e-06
1.4859e-06
1.2647e-06
1.2654e-06
1.26649e-06
1.26689e-06
1.26672e-06
1.2656e-06
1.26666e-06
1.26509e-06
1.26227e-06
1.26689e-06
1.26551e-06
1.25604e-06
0.00125776
0.00126664
0.00126623
0.00126515
0.00119155
0.000206599
5.78439e-06
1.36904e-06
1.26508e-06
1.26689e-06
1.26649e-06
1.26689e-06
1.26687e-06
1.26681e-06
1.2686e-06
1.26472e-06
1.26071e-06
1.26358e-06
1.26498e-06
1.26551e-06
1.26094e-06
0.00125937
0.00126687
0.00126633
0.00126554
0.0012146
0.00026617
5.39228e-06
1.28222e-06
1.26688e-06
1.26689e-06
1.26689e-06
1.26688e-06
1.26683e-06
1.26642e-06
1.24397e-06
1.26416e-06
1.24301e-06
1.25892e-06
1.25886e-06
1.26473e-06
1.26244e-06
1.26338e-06
1.26618e-06
1.26689e-06
1.26689e-06
0.00126089
0.00126687
0.00126651
0.00126587
0.00124134
0.000374542
4.35872e-06
1.31315e-06
1.26689e-06
1.26606e-06
1.26689e-06
1.26685e-06
1.26587e-06
1.26638e-06
1.24497e-06
1.23417e-06
1.2627e-06
1.2452e-06
1.23148e-06
1.23149e-06
1.23371e-06
1.2412e-06
1.24119e-06
1.26513e-06
1.26484e-06
1.26599e-06
1.26686e-06
1.26689e-06
1.26689e-06
0.00126217
0.00126687
0.00126664
0.00126576
0.00125551
0.000549298
4.47593e-06
1.31134e-06
1.26611e-06
1.26517e-06
1.26688e-06
1.26681e-06
1.27099e-06
1.26165e-06
1.2621e-06
1.27144e-06
1.27187e-06
1.23015e-06
1.22292e-06
1.26681e-06
1.26596e-06
1.2302e-06
1.2279e-06
1.22785e-06
1.22248e-06
1.2379e-06
1.23819e-06
1.2659e-06
1.26576e-06
1.26666e-06
1.26685e-06
1.26689e-06
1.26689e-06
0.00126316
0.00126687
0.00126653
0.00126596
0.00126224
0.000621196
4.529e-06
1.30823e-06
1.26609e-06
1.26599e-06
1.26685e-06
1.2715e-06
1.26895e-06
1.27018e-06
1.27583e-06
1.27598e-06
1.27086e-06
1.27099e-06
1.27796e-06
1.27766e-06
1.2398e-06
1.04244e-06
1.12965e-06
9.94953e-07
1.12958e-06
1.26601e-06
1.26963e-06
1.23745e-06
1.23759e-06
1.24179e-06
1.24192e-06
1.23981e-06
1.23205e-06
1.23206e-06
1.04271e-06
1.13164e-06
9.95534e-07
1.12986e-06
1.08375e-06
1.16824e-06
1.10725e-06
1.09259e-06
1.08476e-06
1.1706e-06
1.1074e-06
1.09139e-06
1.26556e-06
1.26593e-06
1.26664e-06
1.26685e-06
1.26689e-06
1.26689e-06
0.00126421
0.00126686
0.00126675
0.00126632
0.00126503
0.000688579
5.17379e-06
1.3443e-06
1.267e-06
1.26687e-06
1.27161e-06
1.27681e-06
1.27678e-06
1.27243e-06
1.27231e-06
1.27634e-06
1.27664e-06
1.2775e-06
1.27764e-06
1.30248e-06
1.18534e-06
1.28583e-06
1.302e-06
1.27774e-06
1.14183e-06
1.1989e-06
1.3028e-06
1.28544e-06
1.30245e-06
1.27769e-06
1.14174e-06
1.29754e-06
1.29843e-06
1.30664e-06
1.30678e-06
1.29777e-06
1.2985e-06
1.30701e-06
1.30683e-06
1.08647e-06
1.14797e-06
1.0668e-06
1.16393e-06
1.06396e-06
1.14578e-06
1.0684e-06
1.13912e-06
1.26591e-06
1.26763e-06
1.25674e-06
1.25732e-06
1.24985e-06
1.24999e-06
1.24883e-06
1.24879e-06
1.25291e-06
1.25296e-06
1.08681e-06
1.15016e-06
1.06753e-06
1.16435e-06
1.10591e-06
1.15893e-06
1.08507e-06
1.17568e-06
1.10599e-06
1.15914e-06
1.08505e-06
1.17579e-06
1.06416e-06
1.14606e-06
1.06854e-06
1.13951e-06
1.11791e-06
1.17034e-06
1.11977e-06
1.18009e-06
1.26582e-06
1.26588e-06
1.26664e-06
1.26686e-06
1.26689e-06
1.26689e-06
0.00126538
0.00126679
0.00126677
0.00126676
0.00126542
0.000863441
8.25638e-06
1.4363e-06
1.26838e-06
1.27136e-06
1.26898e-06
1.27035e-06
1.27108e-06
1.27095e-06
1.27558e-06
1.27577e-06
1.27408e-06
1.27438e-06
1.30402e-06
1.31211e-06
1.29168e-06
1.30658e-06
1.30437e-06
1.31226e-06
1.29669e-06
1.30679e-06
1.27528e-06
1.29033e-06
1.28202e-06
1.29904e-06
1.27531e-06
1.29025e-06
1.28228e-06
1.29922e-06
1.21546e-06
1.22991e-06
1.04479e-06
1.15899e-06
1.28568e-06
1.22407e-06
1.21448e-06
1.23332e-06
1.16069e-06
1.04712e-06
1.28757e-06
1.22359e-06
1.30895e-06
1.29355e-06
1.34616e-06
1.3484e-06
1.30715e-06
1.28944e-06
1.34636e-06
1.34653e-06
1.09996e-06
1.16262e-06
1.08672e-06
1.17256e-06
1.0701e-06
1.13608e-06
1.06709e-06
1.13254e-06
1.26365e-06
1.26575e-06
1.257e-06
1.25721e-06
1.25102e-06
1.25141e-06
1.25404e-06
1.2541e-06
1.25251e-06
1.25256e-06
1.22118e-06
1.13201e-06
1.22089e-06
1.15526e-06
1.22121e-06
1.13229e-06
1.22132e-06
1.15468e-06
1.21799e-06
1.19196e-06
1.16369e-06
1.20951e-06
1.14933e-06
1.13127e-06
1.21811e-06
1.19176e-06
1.16302e-06
1.20992e-06
1.14974e-06
1.13091e-06
1.10022e-06
1.16295e-06
1.08695e-06
1.1729e-06
1.11524e-06
1.18207e-06
1.11505e-06
1.18216e-06
1.07033e-06
1.13669e-06
1.06732e-06
1.13282e-06
1.14164e-06
1.19501e-06
1.14301e-06
1.19478e-06
1.26578e-06
1.26588e-06
1.26668e-06
1.26687e-06
1.26689e-06
1.26689e-06
0.00126681
0.00126675
0.00126676
0.00126567
0.00126538
0.00108611
1.47345e-05
1.65556e-06
1.28265e-06
1.27232e-06
1.2717e-06
1.27373e-06
1.27335e-06
1.25914e-06
1.2592e-06
1.25592e-06
1.25582e-06
1.20745e-06
1.27887e-06
1.21157e-06
1.19895e-06
1.20693e-06
1.27856e-06
1.21891e-06
1.207e-06
1.19845e-06
1.15252e-06
1.21664e-06
1.2018e-06
1.19681e-06
1.15223e-06
1.22392e-06
1.20664e-06
1.27587e-06
1.26452e-06
1.27172e-06
1.24307e-06
1.27412e-06
1.26447e-06
1.27867e-06
1.24483e-06
1.26347e-06
1.24153e-06
1.27684e-06
1.22987e-06
1.26327e-06
1.24248e-06
1.2769e-06
1.23209e-06
1.10916e-06
1.16744e-06
1.08843e-06
1.17981e-06
1.26349e-06
1.26152e-06
1.25302e-06
1.25147e-06
1.25034e-06
1.24927e-06
1.25253e-06
1.25309e-06
1.24581e-06
1.2463e-06
1.22458e-06
1.19646e-06
1.23112e-06
1.19014e-06
1.22562e-06
1.1967e-06
1.23184e-06
1.19029e-06
1.22906e-06
1.15369e-06
1.23224e-06
1.17716e-06
1.22923e-06
1.15358e-06
1.23412e-06
1.17712e-06
1.22113e-06
1.16688e-06
1.22011e-06
1.17993e-06
1.22278e-06
1.16793e-06
1.22078e-06
1.18036e-06
1.19622e-06
1.11587e-06
1.06025e-06
1.1335e-06
1.18658e-06
1.14924e-06
1.1963e-06
1.1164e-06
1.05797e-06
1.13354e-06
1.18735e-06
1.14901e-06
1.10938e-06
1.16475e-06
1.0876e-06
1.18005e-06
1.1201e-06
1.18943e-06
1.12029e-06
1.18952e-06
1.26578e-06
1.26596e-06
1.26649e-06
1.26688e-06
1.26689e-06
1.26689e-06
0.00126626
0.00126672
0.00126602
0.0012652
0.00126323
0.00120793
3.01342e-05
2.20415e-06
1.35205e-06
1.25156e-06
1.25159e-06
1.24552e-06
1.24578e-06
1.23555e-06
1.23511e-06
1.22712e-06
1.23007e-06
1.15381e-06
1.20609e-06
1.13283e-06
1.09821e-06
1.15528e-06
1.20659e-06
1.13886e-06
1.10445e-06
1.12882e-06
1.06834e-06
1.10703e-06
1.05508e-06
1.12593e-06
1.06797e-06
1.11241e-06
1.05852e-06
1.0373e-06
8.60601e-07
1.03665e-06
8.66183e-07
1.26571e-06
1.26153e-06
1.24856e-06
1.25046e-06
1.25237e-06
1.25236e-06
1.25174e-06
1.25193e-06
1.25152e-06
1.25046e-06
1.14876e-06
1.13428e-06
1.18858e-06
1.16908e-06
1.14981e-06
1.13555e-06
1.18974e-06
1.17e-06
1.21693e-06
1.18725e-06
1.20845e-06
1.17495e-06
1.21654e-06
1.18772e-06
1.20985e-06
1.17593e-06
1.23205e-06
1.20558e-06
1.23946e-06
1.20399e-06
1.23332e-06
1.20637e-06
1.2399e-06
1.20475e-06
1.22999e-06
1.17331e-06
1.23461e-06
1.19247e-06
1.23101e-06
1.17373e-06
1.23771e-06
1.19295e-06
1.26583e-06
1.26595e-06
1.26524e-06
1.26671e-06
1.26689e-06
1.26689e-06
0.0012656
0.00126598
0.00126546
0.00126204
0.00126206
0.00124546
7.31321e-05
4.09731e-06
1.35908e-06
1.3591e-06
1.70262e-06
1.70271e-06
1.24088e-06
1.2409e-06
1.23329e-06
1.23397e-06
1.07563e-06
1.15191e-06
1.07237e-06
1.14996e-06
1.0756e-06
1.15162e-06
1.07225e-06
1.14899e-06
1.08505e-06
1.15619e-06
1.03588e-06
1.15877e-06
1.0851e-06
1.15644e-06
1.05274e-06
1.15798e-06
1.04752e-06
1.0395e-06
1.11964e-06
1.09376e-06
1.05086e-06
1.0411e-06
1.11925e-06
1.09403e-06
1.15819e-06
1.08532e-06
1.15468e-06
1.09953e-06
1.15785e-06
1.08513e-06
1.15424e-06
1.0995e-06
1.26587e-06
1.26337e-06
1.25499e-06
1.24581e-06
1.24852e-06
1.24532e-06
1.24616e-06
1.23052e-06
1.23365e-06
1.23208e-06
1.23206e-06
1.18346e-06
1.1376e-06
1.20239e-06
1.16925e-06
1.18184e-06
1.13829e-06
1.20264e-06
1.16956e-06
1.22642e-06
1.19608e-06
1.22147e-06
1.19026e-06
1.22651e-06
1.19621e-06
1.22232e-06
1.1897e-06
1.2006e-06
1.17046e-06
1.20133e-06
1.17136e-06
1.2659e-06
1.26493e-06
1.26419e-06
1.26518e-06
1.26689e-06
1.26689e-06
0.00126403
0.00126556
0.00126404
0.00126044
0.00125021
0.00116953
0.000224617
1.06056e-05
1.39735e-06
1.39717e-06
2.16999e-06
2.17023e-06
1.15116e-06
1.08132e-06
1.07848e-06
1.17547e-06
1.15732e-06
1.08127e-06
1.07855e-06
1.17558e-06
1.23628e-06
1.2367e-06
1.09916e-06
1.10726e-06
1.03885e-06
1.17322e-06
1.09908e-06
1.10702e-06
1.03875e-06
1.17304e-06
1.11209e-06
1.16526e-06
1.0942e-06
1.18573e-06
1.1125e-06
1.1672e-06
1.09473e-06
1.18567e-06
9.80623e-07
9.32677e-07
9.80545e-07
9.32568e-07
1.26589e-06
1.26569e-06
1.26186e-06
1.21836e-06
1.22305e-06
1.21774e-06
1.22023e-06
1.24742e-06
1.24851e-06
1.22927e-06
1.2326e-06
1.12482e-06
1.1509e-06
1.11874e-06
1.16171e-06
1.12622e-06
1.15209e-06
1.12055e-06
1.16031e-06
1.14108e-06
1.16733e-06
1.12817e-06
1.16647e-06
1.14168e-06
1.16794e-06
1.12828e-06
1.16655e-06
1.20397e-06
1.14512e-06
1.21164e-06
1.16446e-06
1.2046e-06
1.1454e-06
1.21189e-06
1.16452e-06
1.22048e-06
1.19126e-06
1.216e-06
1.18455e-06
1.22092e-06
1.19157e-06
1.21633e-06
1.18481e-06
1.26534e-06
1.26423e-06
1.2637e-06
1.26241e-06
1.26689e-06
0.00126257
0.00126654
0.0012625
0.00122016
0.000839062
0.000356497
5.48242e-05
1.36094e-05
1.34024e-05
4.50749e-05
4.55553e-05
1.50398e-06
1.20846e-06
1.70992e-06
1.29322e-06
1.50507e-06
1.2048e-06
1.71367e-06
1.29302e-06
3.04941e-06
3.04126e-06
1.14057e-06
1.08421e-06
1.08994e-06
1.15514e-06
1.14825e-06
1.08428e-06
1.08996e-06
1.15479e-06
1.30882e-06
1.12051e-06
1.21084e-06
1.10247e-06
1.29873e-06
1.11987e-06
1.20153e-06
1.1027e-06
1.02174e-06
1.19465e-06
1.12018e-06
1.07826e-06
1.02179e-06
1.19353e-06
1.11987e-06
1.07851e-06
1.26521e-06
1.2657e-06
1.26268e-06
1.25642e-06
1.23116e-06
1.23397e-06
1.21769e-06
1.2203e-06
1.22045e-06
1.22093e-06
1.14317e-06
1.10883e-06
1.09227e-06
1.10765e-06
1.14567e-06
1.10895e-06
1.09286e-06
1.10923e-06
1.12805e-06
1.18358e-06
1.13401e-06
1.18072e-06
1.12882e-06
1.1833e-06
1.1341e-06
1.17958e-06
1.12863e-06
1.18369e-06
1.13898e-06
1.18477e-06
1.12935e-06
1.18393e-06
1.13913e-06
1.18546e-06
1.18117e-06
1.14676e-06
1.18111e-06
1.1468e-06
1.26566e-06
1.26506e-06
1.26438e-06
1.26151e-06
0.00126228
0.00126587
0.00123425
0.000575803
0.000155498
4.04861e-05
2.93691e-05
2.61597e-05
1.70716e-05
1.58304e-05
1.455e-05
1.38391e-05
1.05691e-05
1.0563e-05
1.61569e-06
1.20433e-06
1.98613e-06
1.41855e-06
1.6172e-06
1.20188e-06
1.98753e-06
1.41836e-06
3.07825e-06
6.56409e-06
4.05185e-06
4.30744e-06
3.06114e-06
6.48874e-06
4.01531e-06
4.2838e-06
1.16864e-06
1.0965e-06
1.10105e-06
1.18014e-06
1.16473e-06
1.09628e-06
1.10126e-06
1.17742e-06
1.34175e-06
1.12484e-06
1.20415e-06
1.08588e-06
1.34232e-06
1.12419e-06
1.20401e-06
1.08579e-06
1.26538e-06
1.26494e-06
1.26445e-06
1.25552e-06
1.20974e-06
1.21052e-06
1.21501e-06
1.21655e-06
1.20838e-06
1.21042e-06
1.12178e-06
1.08286e-06
1.07621e-06
1.0813e-06
1.12422e-06
1.08341e-06
1.07826e-06
1.0821e-06
1.13363e-06
1.0824e-06
1.12303e-06
1.09239e-06
1.12226e-06
1.1295e-06
1.13582e-06
1.08367e-06
1.12307e-06
1.09321e-06
1.12077e-06
1.1302e-06
1.1896e-06
1.13427e-06
1.19057e-06
1.13466e-06
1.01075e-06
1.16707e-06
1.12278e-06
1.08078e-06
1.01097e-06
1.16746e-06
1.12278e-06
1.08105e-06
1.26669e-06
1.26552e-06
1.26321e-06
0.00126046
0.00125821
0.00071122
0.000145258
4.0082e-05
1.29463e-05
9.9175e-06
9.2581e-06
1.01203e-05
9.89402e-06
1.22493e-05
1.46287e-05
1.50439e-05
1.08923e-05
1.47268e-05
1.00109e-05
1.47294e-05
1.22578e-05
9.89222e-06
1.49986e-05
1.01834e-05
1.16671e-05
6.17804e-06
3.79004e-06
8.12668e-06
5.24939e-06
6.12402e-06
3.78761e-06
7.71699e-06
4.24912e-06
1.72307e-06
1.2188e-06
2.14983e-06
1.44513e-06
1.72313e-06
1.21785e-06
2.14954e-06
1.44477e-06
8.33817e-06
8.35837e-06
8.23434e-06
8.25206e-06
1.04313e-06
1.10854e-06
1.04304e-06
1.1083e-06
1.42056e-06
1.11822e-06
1.42221e-06
1.11691e-06
1.26642e-06
1.265e-06
1.26537e-06
1.26066e-06
1.2211e-06
1.22142e-06
1.20977e-06
1.21062e-06
1.19503e-06
1.19586e-06
1.21167e-06
1.21395e-06
1.05881e-06
1.05989e-06
1.07127e-06
1.09763e-06
1.10753e-06
1.07808e-06
1.05944e-06
1.0595e-06
1.07276e-06
1.09522e-06
1.10789e-06
1.07901e-06
1.16467e-06
1.10489e-06
1.16716e-06
1.1062e-06
1.16208e-06
1.0939e-06
1.09938e-06
1.13853e-06
1.10755e-06
1.11482e-06
1.16299e-06
1.09515e-06
1.09889e-06
1.13684e-06
1.10808e-06
1.11604e-06
1.17068e-06
1.12137e-06
1.17133e-06
1.12186e-06
1.26587e-06
1.26556e-06
0.00125662
0.00112171
0.00029025
8.03024e-05
3.32792e-05
2.13514e-05
2.13907e-05
7.62522e-05
7.33507e-05
6.31394e-06
6.30171e-06
1.14136e-05
1.09055e-05
1.36069e-05
4.83017e-06
4.64409e-06
1.30011e-05
5.2254e-06
6.8382e-06
1.37696e-05
4.7565e-06
1.36438e-05
4.75644e-06
5.08462e-06
7.03989e-06
5.10246e-06
3.75149e-06
5.00696e-06
7.05793e-06
5.02428e-06
3.80255e-06
4.96568e-06
6.97441e-06
2.60406e-06
2.04949e-06
2.60421e-06
2.04673e-06
1.26598e-06
1.26609e-06
1.26542e-06
1.26467e-06
1.24901e-06
1.22473e-06
1.2197e-06
1.21118e-06
1.21146e-06
1.06211e-06
1.07988e-06
1.09946e-06
1.08194e-06
1.06637e-06
1.08104e-06
1.10165e-06
1.08304e-06
1.07129e-06
1.086e-06
1.0484e-06
1.09241e-06
1.07491e-06
1.07876e-06
1.07301e-06
1.08648e-06
1.0489e-06
1.09453e-06
1.0762e-06
1.08025e-06
1.03726e-06
1.08076e-06
1.10012e-06
1.11301e-06
1.03884e-06
1.08186e-06
1.10214e-06
1.11444e-06
1.13461e-06
1.0598e-06
1.13477e-06
1.0585e-06
1.07471e-06
1.00786e-06
1.08177e-06
1.00147e-06
1.07587e-06
1.00631e-06
1.08201e-06
1.00416e-06
1.26595e-06
0.00125162
0.000849138
0.000277379
0.000162029
0.000177253
0.000133714
0.000134628
0.000214521
0.000189848
5.71096e-06
6.33186e-06
4.02735e-06
1.04693e-05
6.43658e-06
6.30885e-06
4.09022e-06
1.07491e-05
2.87107e-05
3.05531e-05
5.32862e-06
5.66555e-06
4.03098e-06
3.68454e-06
5.24378e-06
5.88634e-06
3.96683e-06
3.80769e-06
1.2622e-06
1.26602e-06
1.26603e-06
1.26516e-06
1.26259e-06
1.21435e-06
1.2139e-06
1.18143e-06
1.18457e-06
1.20553e-06
1.20512e-06
1.18751e-06
1.18642e-06
1.07229e-06
1.08557e-06
1.13438e-06
1.09257e-06
1.07215e-06
1.08671e-06
1.13525e-06
1.09293e-06
1.10237e-06
1.09871e-06
1.0495e-06
1.02297e-06
1.10487e-06
1.05198e-06
1.1041e-06
1.09769e-06
1.02392e-06
1.0502e-06
1.10877e-06
1.05347e-06
1.00304e-06
1.09581e-06
1.00378e-06
1.09715e-06
0.00123918
0.000894012
0.000574164
0.000551368
0.000316085
0.000307598
0.0004284
0.000479441
0.000357112
0.000352333
0.000440581
0.00036506
6.72536e-06
9.43304e-06
7.37184e-06
1.80935e-05
8.15726e-06
9.51064e-06
9.97346e-06
1.86847e-05
0.000167915
6.23951e-05
5.89296e-05
3.0462e-05
0.000182096
6.3997e-05
6.35942e-05
3.34314e-05
6.0412e-06
5.70898e-06
5.96968e-06
5.50638e-06
1.25939e-06
1.26617e-06
1.26513e-06
1.26439e-06
1.25576e-06
1.19739e-06
1.19603e-06
1.2037e-06
1.20715e-06
1.17783e-06
1.1785e-06
1.07048e-06
1.0953e-06
1.06565e-06
1.0418e-06
1.07063e-06
1.09575e-06
1.0655e-06
1.04298e-06
1.12383e-06
1.07618e-06
1.09634e-06
1.04336e-06
1.12082e-06
1.08029e-06
1.09851e-06
1.04883e-06
0.00124684
0.00112227
0.00115659
0.000844229
0.000450342
0.000445134
0.000620828
0.00065049
0.000179766
0.000199126
0.000568839
0.000346588
0.000411752
0.0006105
0.000178363
0.000204148
0.00053214
0.000329454
0.00040632
0.000626538
0.000702151
0.000528328
5.54819e-05
1.16786e-05
1.51992e-05
2.87474e-05
5.9663e-05
1.16888e-05
1.12796e-05
2.9429e-05
0.000148926
0.00023372
0.000151061
0.000253326
1.26359e-06
1.26614e-06
1.2644e-06
1.26132e-06
1.22352e-06
1.22314e-06
1.20083e-06
1.20132e-06
1.20817e-06
1.20567e-06
1.21902e-06
1.21664e-06
1.0867e-06
1.06877e-06
1.10584e-06
1.06578e-06
1.07216e-06
1.07362e-06
1.05641e-06
1.07082e-06
1.08736e-06
1.06669e-06
1.07241e-06
1.07432e-06
1.11611e-06
1.06933e-06
1.11741e-06
1.06968e-06
1.07306e-06
1.08319e-06
1.06742e-06
1.08404e-06
0.00126267
0.00125307
0.00124902
0.00104854
0.00108
0.00116485
0.00117319
0.000584733
0.000573884
0.000694678
0.000761781
0.000261986
0.00046479
0.000730377
0.000683243
0.000720067
0.000754915
0.000251748
0.000468862
0.000727319
0.000667918
0.000711446
0.000723113
0.00098784
0.000656475
0.000973648
0.000762646
0.000958463
0.000420647
0.000945753
0.00065182
1.26667e-06
1.2662e-06
1.2644e-06
1.25301e-06
1.20229e-06
1.20344e-06
1.21298e-06
1.21635e-06
1.19203e-06
1.19203e-06
1.10817e-06
1.08052e-06
1.09816e-06
1.07839e-06
1.08308e-06
1.08206e-06
1.09826e-06
1.07887e-06
1.08326e-06
1.07295e-06
1.08942e-06
1.08093e-06
1.09414e-06
1.09786e-06
1.0368e-06
1.05395e-06
1.10023e-06
1.09966e-06
1.03875e-06
1.0559e-06
1.01184e-06
9.67461e-07
1.01547e-06
9.68317e-07
0.00124794
0.00126212
0.00120446
0.00110254
0.00112743
0.00116156
0.00116484
0.000936803
0.000606779
0.000570507
0.000849385
0.000561723
0.00080326
0.000821137
0.00040214
0.00063808
0.000803592
0.000561392
0.000851373
0.000755441
0.000847504
0.000698746
0.000861565
0.000774668
0.000804262
0.000981429
0.000602148
0.000964123
0.000576789
1.26663e-06
1.26621e-06
1.26528e-06
1.22491e-06
1.2248e-06
1.21272e-06
1.21187e-06
1.2034e-06
1.2027e-06
1.21076e-06
1.21109e-06
1.05811e-06
1.09677e-06
1.09451e-06
1.09534e-06
1.08638e-06
1.09581e-06
1.06201e-06
1.08605e-06
1.0961e-06
1.09807e-06
1.09636e-06
1.09594e-06
1.11239e-06
1.08262e-06
1.07851e-06
1.05608e-06
1.07979e-06
1.11262e-06
1.05627e-06
1.08349e-06
0.00124979
0.00125812
0.00124163
0.00107606
0.00110381
0.00116375
0.00117291
0.000972245
0.000599309
0.000511018
0.000873762
0.000468976
0.000774281
0.000855077
0.000403557
0.000667862
0.000922486
0.000618832
0.000849121
0.000956478
0.000847036
0.00085556
0.000788537
0.00101795
0.000879779
0.000963991
0.000806541
0.00096281
0.000606746
0.00092846
0.000420377
1.26659e-06
1.26621e-06
1.26349e-06
1.21969e-06
1.21987e-06
1.2359e-06
1.23617e-06
1.20065e-06
1.2015e-06
1.08684e-06
1.09206e-06
1.11081e-06
1.09503e-06
1.10447e-06
1.07343e-06
1.08817e-06
1.09293e-06
1.11169e-06
1.0953e-06
1.10457e-06
1.07478e-06
1.11536e-06
1.09686e-06
1.04816e-06
1.07236e-06
1.09673e-06
1.07366e-06
1.11795e-06
1.04922e-06
0.00124408
0.00125969
0.00124845
0.00118709
0.00119212
0.00124823
0.00123713
0.00123718
0.00108398
0.00103465
0.000973406
0.0010987
0.0010673
0.00094079
0.000948346
0.000508085
0.000517014
0.000803671
0.000474805
0.000792183
0.000907111
0.000474352
0.00074963
0.000893179
0.000680706
0.000888326
0.00100279
0.000928327
0.00106668
0.000876662
1.26654e-06
1.2662e-06
1.26085e-06
1.20871e-06
1.2093e-06
1.21458e-06
1.21564e-06
1.08721e-06
1.1034e-06
1.10788e-06
1.10065e-06
1.10393e-06
1.1106e-06
1.09125e-06
1.10325e-06
1.11133e-06
1.10582e-06
1.11012e-06
1.10246e-06
1.13125e-06
1.09953e-06
1.15037e-06
1.11858e-06
1.13175e-06
1.10167e-06
1.15316e-06
1.11983e-06
1.09245e-06
9.89075e-07
1.09448e-06
9.90154e-07
0.0012432
0.0012579
0.00123214
0.00123566
0.00123551
0.00123649
0.00124176
0.00124097
0.0011026
0.00103912
0.000975282
0.00104743
0.00104031
0.00104812
0.00112564
0.00111989
0.00105714
0.00111299
0.00104811
0.00106789
0.00101844
0.00107389
0.00113541
0.00110963
0.000598119
0.000892093
0.00079091
0.000999757
0.00108689
0.00105746
0.00110656
0.00103067
1.26646e-06
1.26522e-06
1.22273e-06
1.20568e-06
1.20664e-06
1.22326e-06
1.2182e-06
1.21527e-06
1.19791e-06
1.11607e-06
1.11673e-06
1.19886e-06
1.11722e-06
1.11854e-06
1.17246e-06
1.14672e-06
1.12414e-06
1.10062e-06
1.1723e-06
1.12653e-06
1.1507e-06
1.10637e-06
1.10423e-06
1.07047e-06
1.15653e-06
1.11171e-06
1.10753e-06
1.07172e-06
1.1586e-06
1.1129e-06
0.0012354
0.001253
0.00123186
0.00115207
0.00116098
0.00123013
0.00123231
0.00114451
0.00116566
0.00123068
0.0012275
0.00122779
0.00106802
0.0011908
0.00103662
0.000965128
0.00098123
0.00115286
0.00108044
0.00105542
0.0011947
0.00104557
0.0010416
0.00115707
0.000845965
0.00101458
0.000882345
0.00106444
1.26483e-06
1.26044e-06
1.21742e-06
1.20213e-06
1.20187e-06
1.21682e-06
1.22203e-06
1.21888e-06
1.10333e-06
1.13402e-06
1.1272e-06
1.1249e-06
1.12899e-06
1.09967e-06
1.097e-06
1.1077e-06
1.1052e-06
1.1344e-06
1.1283e-06
1.12721e-06
1.13037e-06
1.10148e-06
1.09756e-06
1.10948e-06
1.16652e-06
1.14996e-06
1.11676e-06
1.07584e-06
1.1679e-06
1.11827e-06
1.15214e-06
1.07883e-06
0.00123253
0.00122473
0.00123348
0.00122974
0.00122593
0.00122392
0.00122346
0.00113884
0.00116512
0.00115621
0.00116011
0.00116402
0.00113466
0.00114619
0.00113566
0.00123194
0.00114696
0.00114394
0.00114286
0.00116232
0.00115565
0.00115966
0.00116491
0.00113634
0.00114901
0.00113728
0.00122863
0.00115024
0.00114546
0.00114453
0.00116282
0.000996191
0.00114547
0.00113827
0.00116585
0.00102365
0.00114883
1.25736e-06
1.25885e-06
1.22725e-06
1.19416e-06
1.11865e-06
1.126e-06
1.19457e-06
1.11836e-06
1.12156e-06
1.21902e-06
1.22479e-06
1.2249e-06
1.11433e-06
1.146e-06
1.06947e-06
1.10555e-06
1.04405e-06
1.10328e-06
1.10635e-06
1.14508e-06
1.07216e-06
1.04605e-06
1.10632e-06
1.10531e-06
1.11935e-06
1.07566e-06
1.12147e-06
1.07657e-06
0.00122861
0.0012254
0.0012369
0.00122525
0.00123543
0.00124014
0.0012387
0.00109549
0.00115733
0.00114983
0.0010803
0.00119334
0.00116781
0.00114271
0.00113562
0.00113374
0.00114102
0.00113561
0.00112626
0.00113427
0.00112624
0.00109608
0.00115939
0.00107939