/*--------------------------------*- C++ -*----------------------------------*\
| =========                 |                                                 |
| \\      /  F ield         | OpenFOAM: The Open Source CFD Toolbox           |
|  \\    /   O peration     | Version:  5.x                                   |
|   \\  /    A nd           | Web:      www.OpenFOAM.org                      |
|    \\/     M anipulation  |                                                 |
\*---------------------------------------------------------------------------*/
FoamFile
{
    version     2.0;
    format      ascii;
    class       volVectorField;
    location    "1.5";
    object      U;
}
// * * * * * * * * * * * * * * * * * * * * * * * * * * * * * * * * * * * * * //

dimensions      [0 1 -1 0 0 0 0];

internalField   nonuniform List<vector> 
12160
(
(0.201199 0 0.000669052)
(0.199871 0 0.00253996)
(0.201119 0 -0.00237236)
(0.200301 0 0.00385954)
(0.199344 0 -0.00418859)
(0.200172 0 -0.00052711)
(0.198528 0 0.00412162)
(0.199763 0 -0.00359844)
(0.198314 0 0.00121109)
(0.199282 0 -0.00318849)
(0.192977 0 0.00369239)
(0.198028 0 -0.00091764)
(0.199482 0 0.00450655)
(0.195571 0 -0.00642123)
(0.19715 0 0.000883423)
(0.188926 0 0.00322744)
(0.192563 0 7.40817e-05)
(0.198335 0 0.00747878)
(0.19638 0 -0.00408917)
(0.192863 0 0.000376407)
(0.194194 0 -0.000440908)
(0.184814 0 0.00257884)
(0.188592 0 0.000659592)
(0.193179 0 0.0076526)
(0.195591 0 0.00164424)
(0.195733 0 0.00517049)
(0.185819 0 -0.00930695)
(0.190529 0 0.00884573)
(0.182312 0 0.0019469)
(0.18443 0 0.000333622)
(0.188891 0 0.00726621)
(0.191167 0 0.00364221)
(0.196013 0 0.0100597)
(0.188029 0 -0.0052608)
(0.181686 0 0.000234934)
(0.184656 0 0.00876288)
(0.1818 0 0.00110494)
(0.181818 0 -0.000370506)
(0.184152 0 0.00585137)
(0.187326 0 0.00459791)
(0.192446 0 0.0112902)
(0.189864 0 0.00253118)
(0.188418 0 0.00499469)
(0.16139 0 -0.0129507)
(0.115032 0 0.0319523)
(0.183527 0 0.000423331)
(0.181274 0 -0.00165926)
(0.181535 0 0.00384039)
(0.182575 0 0.00351504)
(0.188633 0 0.0115983)
(0.188603 0 0.00618502)
(0.191628 0 0.00992497)
(0.167723 0 -0.00816971)
(0.105183 0 0.00382046)
(-0.247901 0 -0.0868204)
(0.186844 0 8.28848e-05)
(0.183216 0 -0.00288836)
(0.180845 0 0.000819571)
(0.179658 0 0.00116495)
(0.182503 0 0.00984094)
(0.186376 0 0.00880267)
(0.1909 0 0.0122893)
(0.178388 0 0.000136114)
(0.131145 0 0.00160146)
(-0.164976 0 -0.0245709)
(-0.123595 0 0.170673)
(0.190349 0 0.000138361)
(0.186828 0 -0.00359156)
(0.182846 0 -0.00186354)
(0.178711 0 -0.00260909)
(0.178625 0 0.00632461)
(0.180185 0 0.00797878)
(0.187677 0 0.0155919)
(0.184929 0 0.00726632)
(0.173832 0 0.00273228)
(-0.183148 0 -0.0347706)
(0.185029 0 -0.0146332)
(0.0105669 0 -0.0849081)
(0.192573 0 0.000551711)
(0.190681 0 -0.00327403)
(0.1868 0 -0.00333167)
(0.181303 0 -0.00621492)
(0.17737 0 0.000841726)
(0.17538 0 0.00355484)
(0.178947 0 0.015373)
(0.186917 0 0.0147392)
(0.195741 0 0.00891005)
(-0.0430297 0 -0.0273529)
(-0.0860843 0 -0.0482285)
(0.0783577 0 -0.0198674)
(-0.0355583 0 0.105129)
(0.192269 0 0.00102561)
(0.193145 0 -0.00180291)
(0.191325 0 -0.00294431)
(0.186283 0 -0.00834551)
(0.180192 0 -0.00454817)
(0.173693 0 -0.00391344)
(0.172358 0 0.010216)
(0.179928 0 0.0157768)
(0.213422 0 0.0174913)
(0.0622194 0 -0.0120655)
(-0.064223 0 -0.0917459)
(0.0449854 0 0.0531856)
(-0.0581997 0 -0.0411085)
(0.0752446 0 -0.0168425)
(0.188134 0 0.00186661)
(0.192939 0 0.000839047)
(0.194752 0 -0.00058471)
(0.191965 0 -0.00786288)
(0.186073 0 -0.00781524)
(0.177284 0 -0.0112793)
(0.169931 0 0.00108643)
(0.17275 0 0.00826727)
(0.215534 0 0.0200838)
(0.149221 0 0.00772491)
(-0.0901591 0 -0.0696026)
(0.0364295 0 -0.034757)
(0.00220263 0 -0.0272886)
(0.0533054 0 -0.0233486)
(-0.0341619 0 0.0286441)
(0.179566 0 0.00292332)
(0.189001 0 0.00419201)
(0.195217 0 0.00332788)
(0.196189 0 -0.00444364)
(0.193245 0 -0.00741691)
(0.184905 0 -0.0158592)
(0.174067 0 -0.00813887)
(0.170215 0 -0.0047722)
(0.215743 0 0.0135949)
(0.186013 0 0.0165128)
(-0.0431437 0 -0.0361387)
(0.0150002 0 -0.0375887)
(0.0219167 0 -0.0654852)
(0.0188041 0 0.0170588)
(-0.0490936 0 -0.0307628)
(0.166902 0 0.00398842)
(0.180702 0 0.00770901)
(0.191449 0 0.00847577)
(0.197372 0 0.00159308)
(0.199395 0 -0.00295896)
(0.194263 0 -0.0156406)
(0.183399 0 -0.0144806)
(0.174843 0 -0.0188916)
(0.218248 0 -0.000881725)
(0.208514 0 0.00894997)
(0.0104684 0 -0.00398199)
(0.0251633 0 -0.0414646)
(-0.00152873 0 -0.0498889)
(0.00482994 0 -0.0427295)
(-0.00358177 0 -0.00582642)
(0.150298 0 0.00499863)
(0.168051 0 0.0111499)
(0.183165 0 0.0142029)
(0.194412 0 0.00925186)
(0.202029 0 0.00491333)
(0.2022 0 -0.0100124)
(0.195396 0 -0.0148734)
(0.185255 0 -0.0282824)
(0.227329 0 -0.0163237)
(0.234813 0 -0.00933185)
(0.0753608 0 -0.00410396)
(0.0454394 0 -0.0360422)
(-0.000436932 0 -0.0404301)
(-0.00496784 0 -0.0389642)
(0.00598937 0 -0.0479676)
(0.130322 0 0.00588389)
(0.151369 0 0.0143565)
(0.170413 0 0.0198932)
(0.186521 0 0.0175002)
(0.19949 0 0.0149445)
(0.206275 0 5.92652e-05)
(0.206394 0 -0.00815821)
(0.198938 0 -0.0292706)
(0.241417 0 -0.0255529)
(0.275343 0 -0.0292497)
(0.143667 0 -0.028866)
(0.075471 0 -0.0464101)
(0.00363665 0 -0.0297764)
(-0.00336313 0 -0.0453533)
(0.00157677 0 -0.0396842)
(0.107634 0 0.0066143)
(0.131257 0 0.0171661)
(0.153521 0 0.0251754)
(0.173752 0 0.0256817)
(0.191629 0 0.0259479)
(0.205064 0 0.0131699)
(0.212885 0 0.00473226)
(0.211658 0 -0.0208484)
(0.256754 0 -0.0255904)
(0.33011 0 -0.0434601)
(0.217425 0 -0.0567658)
(0.0973672 0 -0.0681897)
(0.0184585 0 -0.0368175)
(-0.00120199 0 -0.0397398)
(0.000963303 0 -0.0435252)
(0.0829149 0 0.00718836)
(0.108404 0 0.0194974)
(0.133116 0 0.0297784)
(0.156599 0 0.0332568)
(0.17866 0 0.0368074)
(0.197788 0 0.0269043)
(0.21241 0 0.0199138)
(0.219171 0 -0.00469639)
(0.269563 0 -0.0159467)
(0.391021 0 -0.0449779)
(0.297131 0 -0.0778637)
(0.112877 0 -0.0925069)
(0.0270014 0 -0.0553443)
(0.0067913 0 -0.0499302)
(0.00110082 0 -0.0383824)
(0.0568161 0 0.00761602)
(0.0835092 0 0.0213267)
(0.109929 0 0.0335755)
(0.135782 0 0.0398363)
(0.161058 0 0.0468135)
(0.184683 0 0.0403595)
(0.205023 0 0.0368192)
(0.22003 0 0.0158448)
(0.277154 0 0.00199143)
(0.440116 0 -0.0329881)
(0.381756 0 -0.0782711)
(0.124727 0 -0.115434)
(0.0296176 0 -0.0766484)
(0.0101087 0 -0.0670747)
(0.00287105 0 -0.0479707)
(0.0299266 0 0.00790044)
(0.0572362 0 0.0226626)
(0.08469 0 0.0365438)
(0.112112 0 0.0452472)
(0.139612 0 0.0554455)
(0.166517 0 0.0526675)
(0.191637 0 0.0536803)
(0.213783 0 0.0379494)
(0.277097 0 0.0261809)
(0.462445 0 -0.00967201)
(0.46195 0 -0.0530593)
(0.136447 0 -0.125025)
(0.0236659 0 -0.0921114)
(0.00983781 0 -0.0867599)
(0.00345365 0 -0.0636438)
(0.00278015 0 0.00804473)
(0.0301789 0 0.0235363)
(0.0580777 0 0.0387149)
(0.0863735 0 0.0494633)
(0.115234 0 0.0625)
(0.144263 0 0.0631379)
(0.172762 0 0.0693241)
(0.200265 0 0.058709)
(0.268577 0 0.0504034)
(0.462047 0 0.0194902)
(0.519938 0 -0.0104115)
(0.152935 0 -0.106576)
(0.00975184 0 -0.0932995)
(0.00429325 0 -0.100615)
(0.00275611 0 -0.081465)
(-0.0241501 0 0.00805351)
(0.0028693 0 0.0239771)
(0.0306886 0 0.0401396)
(0.0592723 0 0.052535)
(0.0887731 0 0.0679715)
(0.118994 0 0.0715775)
(0.149502 0 0.0825591)
(0.180505 0 0.0766686)
(0.252538 0 0.0724274)
(0.447501 0 0.0499952)
(0.54272 0 0.0287962)
(0.178222 0 -0.0550888)
(-0.00861813 0 -0.0747539)
(-0.00589997 0 -0.100765)
(0.000159795 0 -0.0933182)
(-0.0504161 0 0.00792757)
(-0.024225 0 0.0240028)
(0.00305229 0 0.0408641)
(0.0314146 0 0.0545437)
(0.0609708 0 0.071949)
(0.09165 0 0.07804)
(0.123156 0 0.0932084)
(0.155918 0 0.091356)
(0.229954 0 0.0911258)
(0.422233 0 0.0777311)
(0.534454 0 0.0639761)
(0.200591 0 0.0102687)
(-0.0227409 0 -0.0362761)
(-0.0183978 0 -0.0802192)
(-0.00410597 0 -0.0919744)
(-0.0755895 0 0.00766623)
(-0.0506619 0 0.0236162)
(-0.0243722 0 0.0409199)
(0.0033237 0 0.0555629)
(0.0324406 0 0.0745558)
(0.0630124 0 0.0826847)
(0.0947767 0 0.101378)
(0.128212 0 0.10278)
(0.201934 0 0.106705)
(0.387782 0 0.102163)
(0.501747 0 0.0982928)
(0.206218 0 0.0708553)
(-0.0249755 0 0.0164256)
(-0.0281464 0 -0.0394116)
(-0.00896397 0 -0.0720411)
(-0.0992689 0 0.00727372)
(-0.0760174 0 0.0228127)
(-0.0511527 0 0.0403098)
(-0.0245594 0 0.0556421)
(0.00369673 0 0.075898)
(0.0337004 0 0.0857016)
(0.0651908 0 0.107282)
(0.0985216 0 0.111223)
(0.169421 0 0.119077)
(0.344407 0 0.122846)
(0.452413 0 0.131019)
(0.195599 0 0.122308)
(-0.0211815 0 0.0728317)
(-0.0330197 0 0.0130833)
(-0.0135098 0 -0.0337251)
(-0.121059 0 0.00675523)
(-0.0998913 0 0.0215797)
(-0.0768687 0 0.0390229)
(-0.0518219 0 0.0547831)
(-0.0248452 0 0.0760487)
(0.00421167 0 0.0872494)
(0.0350175 0 0.111182)
(0.0677085 0 0.117075)
(0.133171 0 0.128412)
(0.29217 0 0.139647)
(0.392164 0 0.159073)
(0.17323 0 0.166392)
(-0.0168031 0 0.123208)
(-0.0333546 0 0.0675227)
(-0.0158783 0 0.0157757)
(-0.140589 0 0.00610322)
(-0.121883 0 0.0199083)
(-0.101119 0 0.0370417)
(-0.0780538 0 0.0529682)
(-0.0527968 0 0.0750051)
(-0.0250791 0 0.0874591)
(0.00473816 0 0.113266)
(0.0364337 0 0.120664)
(0.0939299 0 0.135046)
(0.231797 0 0.1529)
(0.324089 0 0.182597)
(0.14434 0 0.201676)
(-0.012872 0 0.164107)
(-0.0300941 0 0.117275)
(-0.0157239 0 0.0675965)
(-0.157525 0 0.00531954)
(-0.141609 0 0.0178128)
(-0.123499 0 0.0343536)
(-0.102854 0 0.0501652)
(-0.0797605 0 0.0727339)
(-0.0538282 0 0.0863035)
(-0.0253447 0 0.113548)
(0.00534851 0 0.122305)
(0.0524756 0 0.139365)
(0.164788 0 0.162877)
(0.250672 0 0.20191)
(0.112735 0 0.228849)
(-0.0100643 0 0.195642)
(-0.0253249 0 0.159041)
(-0.0142767 0 0.115663)
(-0.171586 0 0.00442159)
(-0.158726 0 0.0153219)
(-0.143619 0 0.0309619)
(-0.125807 0 0.0463499)
(-0.105339 0 0.0691816)
(-0.0816601 0 0.0837093)
(-0.0549515 0 0.112044)
(-0.0253171 0 0.122966)
(0.00996762 0 0.141889)
(0.0929864 0 0.169701)
(0.17427 0 0.217086)
(0.0813362 0 0.249309)
(-0.00831079 0 0.219794)
(-0.0204128 0 0.192224)
(-0.0120895 0 0.156691)
(-0.182563 0 0.00344113)
(-0.172937 0 0.0124844)
(-0.161112 0 0.0269016)
(-0.146498 0 0.0415267)
(-0.129105 0 0.0643028)
(-0.108185 0 0.079585)
(-0.0837386 0 0.108783)
(-0.0559162 0 0.12224)
(-0.032679 0 0.14242)
(0.0175688 0 0.172743)
(0.096129 0 0.230003)
(0.0510853 0 0.263871)
(-0.00702695 0 0.237967)
(-0.0159161 0 0.217824)
(-0.00976766 0 0.189903)
(-0.19036 0 0.00241717)
(-0.184019 0 0.00937437)
(-0.175665 0 0.0222524)
(-0.164532 0 0.0357434)
(-0.150619 0 0.0580858)
(-0.132961 0 0.0738442)
(-0.111328 0 0.103641)
(-0.0859269 0 0.119548)
(-0.073953 0 0.141117)
(-0.0580068 0 0.173547)
(0.0142785 0 0.237216)
(0.0230359 0 0.273633)
(-0.00574244 0 0.250993)
(-0.0119434 0 0.236984)
(-0.00761723 0 0.215794)
(-0.195033 0 0.00137537)
(-0.191828 0 0.00607269)
(-0.18705 0 0.0171405)
(-0.179555 0 0.0291127)
(-0.169444 0 0.0505773)
(-0.155516 0 0.066438)
(-0.137271 0 0.0964919)
(-0.114866 0 0.114674)
(-0.112669 0 0.137868)
(-0.127778 0 0.17081)
(-0.0609299 0 0.236145)
(0.000759267 0 0.275909)
(-0.00426683 0 0.259262)
(-0.00848317 0 0.250431)
(-0.00569281 0 0.235216)
(-0.196354 0 0.000546723)
(-0.196323 0 0.00262687)
(-0.19515 0 0.0117181)
(-0.191289 0 0.0218157)
(-0.18518 0 0.0419153)
(-0.175358 0 0.0573846)
(-0.161061 0 0.0872687)
(-0.142252 0 0.107438)
(-0.148447 0 0.132465)
(-0.192546 0 0.165261)
(-0.139878 0 0.229213)
(-0.0159994 0 0.277653)
(-0.00274297 0 0.263172)
(-0.00547068 0 0.25901)
(-0.00407409 0 0.248889)
(-0.194811 0 -0.000399017)
(-0.197783 0 -0.000910297)
(-0.199996 0 0.00617182)
(-0.199538 0 0.0140669)
(-0.197522 0 0.0323446)
(-0.191997 0 0.0468222)
(-0.182135 0 0.0759712)
(-0.167559 0 0.0976679)
(-0.180974 0 0.124723)
(-0.251202 0 0.15692)
(-0.213373 0 0.218247)
(-0.0449672 0 0.2751)
(-0.00391613 0 0.264521)
(-0.00288137 0 0.263018)
(-0.00271105 0 0.257645)
(-0.190638 0 -0.00134034)
(-0.196311 0 -0.00408608)
(-0.201352 0 0.000795346)
(-0.204146 0 0.00607614)
(-0.206312 0 0.0221405)
(-0.20504 0 0.0350747)
(-0.199878 0 0.0627398)
(-0.190182 0 0.0852753)
(-0.210037 0 0.114515)
(-0.302834 0 0.145833)
(-0.284171 0 0.204815)
(-0.0749799 0 0.267833)
(-0.00218812 0 0.263381)
(-0.000989791 0 0.264668)
(-0.0016436 0 0.262075)
(-0.184211 0 -0.00226563)
(-0.191983 0 -0.00699555)
(-0.199436 0 -0.00449727)
(-0.205566 0 -0.00199751)
(-0.211594 0 0.0116117)
(-0.214215 0 0.0225003)
(-0.213821 0 0.0481632)
(-0.209255 0 0.0702909)
(-0.23545 0 0.101812)
(-0.347231 0 0.131938)
(-0.350849 0 0.188067)
(-0.107527 0 0.256125)
(-0.00134511 0 0.257468)
(0.0018622 0 0.262627)
(-0.000696793 0 0.263324)
(-0.175606 0 -0.00312191)
(-0.185294 0 -0.00967921)
(-0.194807 0 -0.00943769)
(-0.203902 0 -0.00963302)
(-0.212892 0 0.00128388)
(-0.219169 0 0.00942952)
(-0.223791 0 0.0327893)
(-0.22411 0 0.0528628)
(-0.256995 0 0.0866822)
(-0.3847 0 0.115119)
(-0.4123 0 0.168299)
(-0.141237 0 0.239303)
(-0.000901894 0 0.247809)
(0.00501786 0 0.256385)
(0.000581719 0 0.261011)
(-0.17657 0 -0.0121833)
(-0.157772 0 -0.00420458)
(-0.187759 0 -0.0139207)
(-0.199066 0 -0.0167)
(-0.210431 0 -0.00871234)
(-0.220459 0 -0.00394316)
(-0.229931 0 0.0171326)
(-0.234476 0 0.0335012)
(-0.274307 0 0.0689293)
(-0.415941 0 0.0954969)
(-0.467738 0 0.145782)
(-0.175493 0 0.217261)
(-0.000453779 0 0.233988)
(0.00859785 0 0.245934)
(0.00205339 0 0.254527)
(-0.178586 0 -0.0179034)
(-0.158757 0 -0.0154894)
(-0.128899 0 -0.00525696)
(-0.191657 0 -0.0230761)
(-0.20505 0 -0.0179697)
(-0.218231 0 -0.0166525)
(-0.231268 0 0.00168843)
(-0.239962 0 0.0129907)
(-0.287117 0 0.0486612)
(-0.44172 0 0.0733591)
(-0.516958 0 0.120577)
(-0.208121 0 0.189764)
(0.000422644 0 0.215727)
(0.0127285 0 0.230739)
(0.00378408 0 0.24375)
(-0.181957 0 -0.0286424)
(-0.160312 0 -0.0234665)
(-0.129565 0 -0.0180425)
(-0.0948826 0 -0.00602344)
(-0.197024 0 -0.0263129)
(-0.212317 0 -0.0283171)
(-0.227854 0 -0.0136379)
(-0.241514 0 -0.00723402)
(-0.295269 0 0.0265159)
(-0.462041 0 0.0481594)
(-0.558853 0 0.0936679)
(-0.236171 0 0.157567)
(0.00248392 0 0.19225)
(0.0173991 0 0.210495)
(0.00585124 0 0.228144)
(-0.186612 0 -0.0335864)
(-0.16282 0 -0.036299)
(-0.130451 0 -0.0278924)
(-0.0964339 0 -0.0194093)
(-0.0693763 0 -0.00828045)
(-0.203481 0 -0.0387863)
(-0.221083 0 -0.0275427)
(-0.238947 0 -0.0266763)
(-0.298175 0 0.00341861)
(-0.476356 0 0.0207304)
(-0.589521 0 0.0654903)
(-0.256472 0 0.121816)
(0.00642826 0 0.162359)
(0.0227074 0 0.18454)
(0.00821255 0 0.207366)
(-0.191992 0 -0.0478897)
(-0.166202 0 -0.0435323)
(-0.132006 0 -0.0421938)
(-0.0971395 0 -0.0297058)
(-0.0724185 0 -0.0241317)
(-0.0151721 0 -0.0108004)
(-0.211353 0 -0.039953)
(-0.232125 0 -0.0438868)
(-0.295939 0 -0.0168573)
(-0.482629 0 -0.00728613)
(-0.602932 0 0.0357735)
(-0.265786 0 0.0772341)
(0.012784 0 0.124453)
(0.0286907 0 0.152144)
(0.0108698 0 0.180959)
(-0.198687 0 -0.0508669)
(-0.169778 0 -0.0600103)
(-0.133512 0 -0.0509533)
(-0.0992864 0 -0.0439797)
(-0.0727121 0 -0.0355547)
(-0.0260496 0 -0.028876)
(0.0116114 0 -0.0235743)
(-0.222624 0 -0.059157)
(-0.290451 0 -0.0340758)
(-0.477988 0 -0.0340606)
(-0.592229 0 0.00320804)
(-0.260668 0 0.0212753)
(0.0211762 0 0.0772942)
(0.0350984 0 0.112697)
(0.013761 0 0.148515)
(-0.210198 0 -0.0733454)
(-0.174386 0 -0.0650542)
(-0.134607 0 -0.0685719)
(-0.100204 0 -0.0521381)
(-0.0758742 0 -0.0490538)
(-0.0333794 0 -0.0405412)
(-0.0117622 0 -0.0587147)
(0.142459 0 -0.0226021)
(-0.283017 0 -0.0491877)
(-0.459906 0 -0.0560604)
(-0.553668 0 -0.0372814)
(-0.239757 0 -0.0473611)
(0.0295227 0 0.0225215)
(0.0407909 0 0.0661338)
(0.0167052 0 0.109741)
(-0.272883 0 -0.064295)
(-0.186432 0 -0.0906344)
(-0.136626 0 -0.0745043)
(-0.0999116 0 -0.0683713)
(-0.0766594 0 -0.0547106)
(-0.0474227 0 -0.0525547)
(-0.0294459 0 -0.0830387)
(0.0946191 0 -0.0811511)
(0.206294 0 -0.0583875)
(-0.43113 0 -0.0744623)
(-0.499567 0 -0.0722493)
(-0.212742 0 -0.113856)
(0.0333883 0 -0.0331687)
(0.0437779 0 0.0142749)
(0.0193484 0 0.0649812)
(-0.396755 0 -0.0949599)
(-0.249488 0 -0.0817287)
(-0.151986 0 -0.101081)
(-0.100424 0 -0.0724995)
(-0.0756677 0 -0.0665576)
(-0.0559986 0 -0.0556334)
(-0.0488992 0 -0.0914315)
(0.0340886 0 -0.105823)
(0.144172 0 -0.113317)
(0.400872 0 -0.007442)
(-0.449635 0 -0.096268)
(-0.184933 0 -0.14819)
(0.0270779 0 -0.0797868)
(0.0432409 0 -0.0383093)
(0.0209534 0 0.0160401)
(-0.406472 0 -0.121406)
(-0.327876 0 -0.12201)
(-0.204859 0 -0.0935435)
(-0.118374 0 -0.0977285)
(-0.0763112 0 -0.0667857)
(-0.059896 0 -0.0634035)
(-0.0591186 0 -0.084617)
(-0.0332905 0 -0.120903)
(0.043125 0 -0.181935)
(0.29032 0 -0.0762007)
(0.327287 0 0.0607769)
(-0.153705 0 -0.157526)
(0.0148767 0 -0.11477)
(0.0384022 0 -0.0857176)
(0.0203249 0 -0.0332557)
(-0.119929 0 -0.172113)
(-0.325146 0 -0.178302)
(-0.176972 0 -0.142971)
(-0.149968 0 -0.092027)
(-0.0926455 0 -0.0871415)
(-0.0644352 0 -0.059149)
(-0.0678443 0 -0.07834)
(-0.074342 0 -0.106161)
(-0.0534194 0 -0.189264)
(0.157019 0 -0.140118)
(0.340143 0 0.10706)
(0.227744 0 0.93296)
(0.00889092 0 -0.13929)
(0.031234 0 -0.122555)
(0.0175219 0 -0.0780399)
(0.00980951 0 -0.15955)
(-0.0876132 0 -0.225894)
(-0.176216 0 -0.201949)
(-0.029314 0 -0.141189)
(-0.105107 0 -0.0830011)
(-0.0770634 0 -0.0722684)
(-0.0734668 0 -0.0618522)
(-0.0927001 0 -0.0894829)
(-0.120652 0 -0.16433)
(-0.0389483 0 -0.16604)
(0.204619 0 0.123427)
(0.247839 0 0.8586)
(0.444319 7.26222e-28 1.2244)
(0.14309 0 1.21382)
(0.0253998 0 -0.14695)
(0.0141483 0 -0.114077)
(0.0236767 0 -0.168604)
(0.00250733 0 -0.192125)
(-0.0799534 0 -0.221635)
(-0.100118 0 -0.17779)
(0.060277 0 -0.121079)
(-0.073572 0 -0.0662511)
(-0.0809965 0 -0.0628939)
(-0.101761 0 -0.0588455)
(-0.159063 0 -0.126659)
(-0.167527 0 -0.138422)
(-0.0717677 0 0.0834633)
(0.195643 0 0.831929)
(0.46651 5.43229e-28 1.12202)
(0.495622 -3.37542e-30 1.27954)
(0.289554 1.12276e-27 1.3346)
(0.0817864 0 1.31934)
(0.0115627 0 -0.14118)
(0.00991889 0 -0.162935)
(0.0146723 0 -0.200858)
(-0.0192076 0 -0.198149)
(-0.0860662 0 -0.188239)
(-0.0702953 0 -0.133095)
(0.11462 0 -0.0930853)
(-0.0589035 0 -0.0471032)
(-0.101939 0 -0.0507996)
(-0.167208 0 -0.0708471)
(-0.243372 0 -0.113187)
(-0.247266 0 0.0337579)
(0.0981512 0 0.751364)
(0.393896 0 1.03716)
(0.554461 0 1.14911)
(0.672504 2.08496e-26 1.33948)
(0.423797 -3.13986e-30 1.41565)
(0.245915 1.03153e-27 1.42628)
(0.0659106 0 1.47187)
(0.00510815 0 -0.191653)
(-0.00256923 0 -0.204709)
(-0.0311261 0 -0.17442)
(-0.0854509 0 -0.145966)
(-0.0503068 0 -0.0942562)
(0.143224 0 -0.064072)
(-0.0609137 0 -0.0271113)
(-0.146167 0 -0.0523152)
(-0.244286 0 -0.0542691)
(-0.307465 0 0.0329405)
(-0.0704555 0 0.625112)
(0.227216 0 0.862224)
(0.508541 0 1.0503)
(0.680231 6.07223e-26 1.13629)
(0.869499 -6.82748e-30 1.36523)
(0.559191 1.67556e-26 1.49529)
(0.34408 0 1.51056)
(0.154612 0 1.51803)
(0.0251663 0 1.53789)
(-0.000521375 0 -0.196596)
(-0.0137016 0 -0.181601)
(-0.0333588 0 -0.140134)
(-0.0748117 0 -0.112212)
(-0.0305347 0 -0.0680622)
(0.178972 0 -0.0385411)
(-0.0861225 0 -0.0187826)
(-0.180479 0 -0.0543405)
(-0.26883 0 0.0542891)
(-0.246027 0 0.456871)
(0.0535212 0 0.73963)
(0.402509 -6.64153e-27 0.87806)
(0.70593 3.64923e-26 0.975718)
(0.970968 0 1.15597)
(0.993282 3.54392e-25 1.30811)
(0.680712 -4.88974e-30 1.47248)
(0.424817 2.78861e-26 1.55077)
(0.23932 0 1.57834)
(0.115699 0 1.57556)
(0.0256578 0 1.58628)
(-0.00549306 0 -0.175536)
(-0.0176164 0 -0.147963)
(-0.0294592 0 -0.109909)
(-0.0585369 0 -0.0863249)
(-0.0154078 0 -0.07645)
(0.245205 0 -0.0210487)
(-0.104538 0 -0.0247289)
(-0.201309 0 -0.00108624)
(-0.206057 0 0.30307)
(0.0366328 0 0.526252)
(0.299179 -1.05103e-26 0.688746)
(0.605021 0 0.815763)
(0.888386 -1.62013e-25 0.953632)
(1.13577 -5.74731e-25 1.08645)
(1.16925 5.60835e-10 1.17963)
(0.728863 0 1.32582)
(0.45989 0 1.48303)
(0.297114 7.92458e-27 1.5864)
(0.1741 1.54402e-27 1.61972)
(0.0530855 0 1.62381)
(0.0085782 0 1.6043)
(-0.00723418 0 -0.144235)
(-0.0171024 0 -0.11703)
(-0.0236009 0 -0.0855777)
(-0.0466306 0 -0.0687615)
(-0.0043193 0 -0.0774296)
(0.304324 0 -0.0313258)
(-0.132181 0 -0.0409537)
(-0.0454434 0 0.110536)
(0.112592 0 0.262151)
(0.290097 -7.44353e-43 0.452842)
(0.502333 0 0.6238)
(0.839607 2.39306e-25 0.705519)
(1.20005 -2.03867e-24 0.859088)
(1.35318 -8.53596e-10 1.02404)
(1.19734 4.35855e-09 1.01289)
(0.733416 -2.25281e-10 1.22685)
(1.19513 2.62106e-10 1.01075)
(1.26145 4.69485e-09 0.967478)
(1.25906 2.17744e-10 0.981959)
(0.415732 7.98392e-25 1.33497)
(0.303788 3.26912e-25 1.49044)
(0.181798 -1.07883e-26 1.60576)
(0.072164 1.03294e-26 1.63751)
(0.00605254 0 1.62287)
(-0.0174103 0 1.59154)
(-0.00748927 0 -0.114774)
(-0.0149986 0 -0.0914601)
(-0.0217704 0 -0.071753)
(-0.0427835 0 -0.0495494)
(-0.00664799 0 -0.0938958)
(0.374284 0 -0.0748921)
(0.0113892 0 -0.0266503)
(0.174643 0 0.0866521)
(0.270067 -9.94803e-43 0.253644)
(0.488807 0 0.459513)
(0.677903 0 0.47487)
(1.0681 7.48092e-25 0.718454)
(1.33171 -8.98599e-25 0.75479)
(1.64076 -7.27341e-10 0.760203)
(0.910195 5.16897e-09 1.07267)
(1.23792 1.07095e-08 0.871681)
(0.483458 -2.245e-09 1.25278)
(0.907633 6.92564e-10 1.07192)
(0.820401 4.63601e-09 1.20412)
(0.81823 5.05846e-10 1.20239)
(1.23039 3.35907e-11 0.867606)
(1.42016 8.36477e-09 0.792163)
(1.4152 -2.43173e-10 0.793959)
(0.241428 2.01465e-24 1.24497)
(0.121961 -5.8406e-25 1.40975)
(0.0575217 0 1.55557)
(-0.0136026 8.64218e-27 1.61258)
(-0.0503437 0 1.59783)
(-0.0302768 0 1.55071)
(-0.00687415 0 -0.0899682)
(-0.0144375 0 -0.072906)
(-0.0259738 0 -0.0576171)
(-0.0494126 0 -0.0389165)
(-0.0322213 0 -0.0880134)
(0.377798 0 -0.175455)
(0.209458 0 0.0185873)
(0.253789 7.98056e-28 0.0929752)
(0.508249 1.00051e-27 0.331211)
(0.637195 8.51873e-26 0.251693)
(0.984544 0 0.48959)
(1.30569 -2.55588e-24 0.532229)
(1.60812 -4.63572e-09 0.528358)
(1.70664 -5.11793e-09 0.439618)
(1.70105 7.65814e-09 0.440825)
(1.77462 6.36021e-10 0.430277)
(1.77135 4.33406e-10 0.427323)
(1.03859 1.28239e-08 1.01541)
(1.46398 1.23874e-08 0.669274)
(0.158317 2.06215e-24 1.24443)
(0.46684 1.98824e-10 1.26262)
(1.03389 2.44487e-10 1.01381)
(0.836628 1.28734e-08 1.1037)
(0.832618 1.27769e-10 1.10138)
(1.45681 4.11308e-10 0.666388)
(1.53618 9.75059e-09 0.546032)
(1.52571 -1.95488e-09 0.550183)
(0.0316151 -1.28585e-25 1.17764)
(-0.0510468 0 1.38336)
(-0.0941171 0 1.49751)
(-0.10716 1.11379e-26 1.54415)
(-0.0827933 0 1.55242)
(-0.0382069 0 1.48893)
(-0.00666717 0 -0.0708488)
(-0.0168042 0 -0.0530241)
(-0.0330503 0 -0.0457895)
(-0.0901256 0 -0.0374392)
(-0.0827009 0 -0.0184155)
(0.35797 0 -0.122746)
(0.293608 0 0.0310442)
(0.416423 -3.53533e-29 0.135276)
(0.614924 0 0.186208)
(0.855012 1.72797e-25 0.300671)
(1.16172 1.15049e-24 0.392653)
(1.42585 -1.96469e-09 0.391682)
(1.7777 -4.71293e-11 0.353517)
(1.77066 3.76187e-10 0.353738)
(1.69377 4.90264e-10 0.293059)
(1.68519 3.22154e-10 0.285883)
(1.84989 -8.26812e-09 0.239463)
(1.83942 7.08288e-09 0.235093)
(1.89043 -1.21727e-09 0.184726)
(1.8879 9.64411e-10 0.184306)
(1.18638 1.37111e-08 0.799035)
(1.61254 2.10526e-08 0.452159)
(1.38474 4.08609e-09 0.472824)
(1.48315 1.38321e-08 0.519702)
(1.53021 2.68501e-09 0.437152)
(-0.0078552 3.11299e-24 1.13602)
(0.068808 -7.75049e-09 1.33653)
(0.543234 1.55633e-09 0.951649)
(0.543172 4.83516e-10 0.952998)
(0.738127 -1.59426e-08 0.936581)
(0.736948 2.30289e-08 0.93734)
(1.18165 2.24295e-09 0.798299)
(1.0272 1.55195e-08 0.869193)
(1.02373 -2.27671e-11 0.868898)
(1.60751 -7.7913e-09 0.452167)
(1.39454 -2.23097e-09 0.471945)
(1.48196 2.45969e-09 0.518506)
(1.52311 -2.68035e-09 0.438599)
(1.75257 2.33213e-08 0.39457)
(1.55312 1.28096e-08 0.414607)
(1.71933 2.01043e-08 0.331871)
(1.61145 2.68288e-09 0.436726)
(1.74544 -1.12858e-08 0.395677)
(1.55984 -7.06978e-09 0.417008)
(1.71454 -5.28359e-09 0.332826)
(1.6016 -2.68403e-09 0.438388)
(-0.102425 0 1.12647)
(-0.236641 -2.14159e-25 1.26541)
(-0.224072 0 1.35335)
(-0.169418 1.24915e-26 1.46105)
(-0.129984 0 1.47861)
(-0.0564416 0 1.40792)
(-0.00724724 0 -0.0504835)
(-0.0234204 0 -0.0322319)
(-0.0525666 0 -0.0239088)
(-0.119868 0 -0.0304524)
(-0.149343 0 -0.0492334)
(0.397055 0 -0.118407)
(0.454054 0 0.0114736)
(0.600814 0 0.0467297)
(0.768503 2.22935e-25 0.13855)
(1.00619 1.02243e-24 0.169348)
(1.34911 -5.48863e-10 0.295645)
(1.58066 6.00913e-10 0.200202)
(1.57279 -1.26226e-10 0.191542)
(1.56492 1.24001e-09 0.14154)
(1.56333 -1.36105e-10 0.141473)
(1.82676 -5.05293e-09 0.0764629)
(1.82725 1.7433e-09 0.0798587)
(1.8013 -5.79921e-09 0.0756791)
(1.80215 1.06174e-09 0.0724199)
(1.66803 3.03173e-09 0.0552411)
(1.634 1.73393e-09 0.267193)
(2.01189 3.4339e-09 -0.0608179)
(1.72145 2.36975e-09 0.0340901)
(2.06357 3.3558e-09 0.0227032)
(1.81373 3.54227e-09 0.13515)
(1.64248 -1.89738e-09 0.26518)
(1.68286 -3.47316e-10 0.0555343)
(2.00681 -3.4925e-09 -0.064779)
(1.7207 -1.55052e-09 0.0451519)
(2.05804 -3.80936e-09 0.0203309)
(1.81236 -2.58227e-09 0.134622)
(1.72183 3.29961e-09 -0.0554796)
(2.02144 8.00916e-09 -0.00368602)
(1.78539 2.47049e-09 -0.0122636)
(2.10593 5.4867e-09 0.0499224)
(1.72534 -2.74111e-09 -0.0528279)
(2.01841 -5.24813e-09 -0.00147419)
(1.79221 -2.00843e-09 -0.0138314)
(2.10504 -4.01275e-09 0.0454389)
(1.34415 2.25751e-08 0.605074)
(1.25902 3.0415e-09 0.515484)
(1.36144 1.36711e-08 0.528894)
(1.24721 2.54259e-09 0.583156)
(1.65813 3.50267e-10 0.308159)
(1.46557 -1.2404e-09 0.356141)
(1.50787 1.50113e-09 0.369815)
(1.6081 7.56839e-10 0.301187)
(-0.20822 -3.41702e-24 1.05887)
(-0.233431 -3.8035e-09 1.12103)
(-0.0692218 5.9636e-10 0.911646)
(-0.0637053 -1.16934e-10 0.914638)
(0.154767 -9.95581e-10 0.816516)
(0.158344 5.55427e-11 0.819817)
(0.520208 -1.03503e-09 0.74224)
(0.518643 2.08006e-09 0.742516)
(0.736161 -1.91374e-08 0.632363)
(0.73314 1.73608e-08 0.631757)
(1.33963 -7.4395e-09 0.604895)
(1.26162 -1.46522e-09 0.51426)
(1.35884 3.06977e-09 0.528022)
(1.2405 -2.47972e-09 0.582914)
(1.15896 2.68955e-08 0.654448)
(0.875922 4.21411e-09 0.599303)
(1.03547 2.48155e-08 0.742995)
(1.04858 2.91745e-09 0.604277)
(1.15718 -1.20999e-08 0.654562)
(0.888691 -2.84102e-09 0.600579)
(1.03459 -4.56053e-09 0.742943)
(1.0498 -2.85188e-09 0.605647)
(1.65589 2.45829e-09 0.306478)
(1.46971 1.29496e-09 0.35377)
(1.5083 1.80949e-09 0.368596)
(1.60461 1.9326e-10 0.297983)
(1.72559 8.97446e-10 0.239497)
(1.6369 8.02679e-10 0.270655)
(1.72103 5.69335e-10 0.237242)
(1.62989 -6.70874e-10 0.264821)
(-0.343609 -4.81781e-25 1.05209)
(-0.436785 0 1.1307)
(-0.318206 0 1.21009)
(-0.230775 0 1.34171)
(-0.162565 0 1.39087)
(-0.0741932 0 1.29948)
(-0.00862956 0 -0.0277679)
(-0.0402692 0 -0.00614153)
(-0.0778638 0 0.0167611)
(-0.163002 0 0.00247242)
(-0.190136 0 -0.0718383)
(0.435687 0 -0.254942)
(0.733666 0 -0.041862)
(0.70599 0 0.00691079)
(0.920253 2.41629e-25 0.0790735)
(1.21599 -3.56929e-10 0.151093)
(1.43231 1.06509e-09 0.112488)
(1.43401 -1.57424e-10 0.116466)
(1.4847 1.42603e-09 0.125707)
(1.48126 -2.55317e-11 0.127726)
(1.5864 -6.11164e-09 -0.0220769)
(1.58403 1.22544e-09 -0.0265304)
(1.57781 -6.32228e-09 0.0508831)
(1.57848 1.23534e-09 0.0463509)
(1.74918 4.08972e-09 -0.0657287)
(2.00906 6.93538e-09 -0.0374423)
(1.67868 5.6217e-09 -0.115769)
(1.99937 8.63007e-09 -0.0804533)
(1.75517 -2.99905e-09 -0.0665429)
(2.0042 -5.96564e-09 -0.0353837)
(1.69481 -3.31284e-09 -0.118756)
(1.99358 -6.48146e-09 -0.0791245)
(1.58788 8.15627e-09 -0.0723841)
(1.92457 1.01491e-08 -0.0246532)
(1.60355 6.49563e-09 -0.137295)
(1.97379 9.00071e-09 -0.0470797)
(1.59981 -4.52425e-09 -0.0803394)
(1.91603 -6.74873e-09 -0.0290921)
(1.61752 -3.70578e-09 -0.142228)
(1.96614 -6.23318e-09 -0.0501593)
(1.6675 8.95294e-10 0.140809)
(1.72161 1.73752e-11 -0.0354592)
(2.06686 -1.84025e-10 -0.0957054)
(1.79643 1.95325e-09 -0.0169287)
(1.77888 -1.29243e-10 -0.0848594)
(2.05442 -2.84791e-10 -0.0489626)
(1.67424 3.26832e-10 0.14185)
(1.72952 -3.6882e-11 -0.0354419)
(1.79461 -1.05838e-09 -0.0153742)
(2.06121 -1.97651e-10 -0.100087)
(1.76477 -1.70802e-10 -0.093007)
(2.04827 -4.31625e-10 -0.0529177)
(1.77818 -1.97017e-10 -0.134154)
(2.09606 2.9401e-10 -0.0672276)
(1.79809 -5.32781e-11 -0.118433)
(2.15514 3.76233e-10 -0.081037)
(1.78076 -1.62808e-10 -0.132316)
(2.09491 -1.17191e-10 -0.0657884)
(1.80026 -8.80229e-11 -0.116053)
(2.15197 -2.14832e-10 -0.0858585)
(1.32742 -5.54892e-11 0.459825)
(1.37823 -1.15794e-09 0.385914)
(1.416 1.2725e-09 0.394456)
(1.29282 4.64469e-10 0.443859)
(1.69538 8.37358e-10 0.167329)
(1.52077 -2.09485e-10 0.189833)
(1.53854 6.81574e-10 0.198022)
(1.67341 2.75485e-10 0.170307)
(-0.437278 0 0.95106)
(-0.420867 -1.24216e-09 1.00904)
(-0.409124 3.39826e-09 0.766408)
(-0.413097 -1.46504e-10 0.766436)
(-0.271079 1.6562e-09 0.777288)
(-0.269059 -4.19644e-10 0.776765)
(-0.0928296 -1.05561e-08 0.839122)
(-0.0812185 5.34496e-09 0.843958)
(0.12698 -6.24147e-09 0.689099)
(0.134109 4.05246e-09 0.692302)
(0.39235 2.03176e-09 0.413279)
(0.580437 4.96618e-09 0.500444)
(0.507912 1.78764e-09 0.471397)
(0.666469 3.84415e-09 0.549558)
(0.38861 -1.87003e-09 0.42172)
(0.577841 -3.96333e-09 0.502985)
(0.5037 -1.83761e-09 0.476268)
(0.663758 -4.60365e-09 0.55178)
(0.839386 8.24771e-10 0.343055)
(0.915748 -4.37285e-10 0.446052)
(0.967712 1.94549e-09 0.388961)
(0.662844 1.6317e-09 0.434644)
(0.811009 3.38065e-09 0.493006)
(0.989759 4.96351e-09 0.590029)
(0.836486 -2.00219e-09 0.343437)
(0.922379 -1.39978e-09 0.446987)
(0.965611 -3.34461e-09 0.38899)
(0.659662 -1.77185e-09 0.438119)
(0.808885 -4.76669e-09 0.493799)
(0.990369 -1.95086e-09 0.590226)
(1.32567 3.17096e-09 0.459378)
(1.37931 1.03167e-09 0.38456)
(1.4155 1.36926e-09 0.393872)
(1.28935 3.67961e-10 0.44282)
(1.17471 4.14656e-10 0.507515)
(1.13244 4.61665e-10 0.460939)
(1.17343 2.49642e-09 0.507302)
(1.13094 -2.61234e-10 0.460397)
(1.69219 -1.16814e-10 0.16776)
(1.52454 5.89001e-10 0.18602)
(1.54023 1.89525e-12 0.196123)
(1.66479 5.96352e-10 0.171535)
(1.83652 9.09608e-10 0.127267)
(1.78268 1.94467e-10 0.137425)
(1.83093 -6.6635e-10 0.125887)
(1.76903 -1.45875e-10 0.135727)
(-0.628325 -6.54532e-25 0.890182)
(-0.562099 0 0.889148)
(-0.420365 0 1.01249)
(-0.301463 0 1.21214)
(-0.223505 0 1.26887)
(-0.103687 0 1.13644)
(-0.0131834 0 0.00305933)
(-0.0618664 0 0.0315788)
(-0.110059 0 0.048895)
(-0.258121 0 0.0317386)
(-0.297838 0 0.0402359)
(0.333512 1.0334e-26 -0.35053)
(0.957958 -1.90107e-25 -0.0713758)
(0.836856 -1.74624e-25 -0.0807102)
(1.08281 -6.26967e-10 -0.0183336)
(1.31888 1.30964e-09 0.0116319)