/*--------------------------------*- C++ -*----------------------------------*\
| =========                 |                                                 |
| \\      /  F ield         | OpenFOAM: The Open Source CFD Toolbox           |
|  \\    /   O peration     | Version:  5.x                                   |
|   \\  /    A nd           | Web:      www.OpenFOAM.org                      |
|    \\/     M anipulation  |                                                 |
\*---------------------------------------------------------------------------*/
FoamFile
{
    version     2.0;
    format      ascii;
    class       surfaceVectorField;
    location    "1.5";
    object      Uf;
}
// * * * * * * * * * * * * * * * * * * * * * * * * * * * * * * * * * * * * * //

dimensions      [0 1 -1 0 0 0 0];

internalField   nonuniform List<vector> 
30582
(
(0.198261 0 0.00161282)
(0.201159 0 -0.000820173)
(0.200255 0 0.00320562)
(0.199607 0 -0.000797845)
(0.197964 0 -0.00328855)
(0.200645 0 -0.00151408)
(0.199859 0 0.00399174)
(0.200032 0 0.000161294)
(0.199831 0 -0.00389089)
(0.198829 0 -0.00154461)
(0.196894 0 0.000349718)
(0.199727 0 -0.00176792)
(0.19589 0 0.0039051)
(0.198278 0 0.00164533)
(0.199286 0 -0.00224614)
(0.199622 0 0.000383057)
(0.199281 0 0.00287349)
(0.196943 0 -0.00249935)
(0.195021 0 -0.00481923)
(0.198216 0 -0.0012563)
(0.191354 0 0.00345785)
(0.19277 0 0.00191345)
(0.195514 0 -0.000417378)
(0.198182 0 0.00320918)
(0.19951 0 0.00600585)
(0.197931 0 0.000289561)
(0.196681 0 -0.00524482)
(0.194217 0 -0.00316356)
(0.192495 0 0.000627661)
(0.195672 0 0.000286914)
(0.186754 0 0.00290027)
(0.188759 0 0.0019757)
(0.190978 0 0.000369445)
(0.192871 0 0.00382689)
(0.195975 0 0.00756646)
(0.196963 0 0.00467448)
(0.196345 0 -0.00119702)
(0.196056 0 0.000426572)
(0.195278 0 0.00279478)
(0.189341 0 -0.0042768)
(0.187263 0 -0.00491334)
(0.192362 0 0.00393479)
(0.183356 0 0.00226006)
(0.184622 0 0.00148563)
(0.18648 0 0.000495161)
(0.188742 0 0.00390752)
(0.191455 0 0.00745768)
(0.192173 0 0.00573394)
(0.193803 0 0.0026521)
(0.195802 0 0.00572798)
(0.196372 0 0.0076368)
(0.191881 0 -1.90722e-05)
(0.188408 0 -0.00726587)
(0.183753 0 -0.00473447)
(0.183227 0 0.00450205)
(0.187592 0 0.00922755)
(0.181532 0 0.00152218)
(0.182065 0 0.000811809)
(0.182942 0 -2.15748e-05)
(0.184291 0 0.0030328)
(0.186525 0 0.00655251)
(0.188108 0 0.00602502)
(0.189798 0 0.00412432)
(0.191806 0 0.00742392)
(0.194604 0 0.0106804)
(0.192939 0 0.00646103)
(0.188818 0 -0.00133024)
(0.188223 0 -0.000186385)
(0.186722 0 0.00263599)
(0.171538 0 -0.00613276)
(0.169776 0 -0.00219044)
(0.149844 0 0.0198743)
(0.182048 0 0.00076112)
(0.181537 0 -0.000233877)
(0.180987 0 -0.00102061)
(0.181676 0 0.00168166)
(0.182576 0 0.00483693)
(0.183364 0 0.0047593)
(0.185157 0 0.00405167)
(0.18798 0 0.00801801)
(0.191249 0 0.0114456)
(0.190524 0 0.00883925)
(0.189775 0 0.00437431)
(0.190746 0 0.00606455)
(0.189819 0 0.00748171)
(0.178071 0 -0.00144754)
(0.16679 0 -0.0105389)
(0.133287 0 -0.00493831)
(0.107768 0 0.0177613)
(-0.0664348 0 -0.029069)
(0.184614 0 0.000251587)
(0.183372 0 -0.0011829)
(0.181601 0 -0.00227925)
(0.181059 0 -0.000511936)
(0.180603 0 0.00231656)
(0.180596 0 0.0025595)
(0.180991 0 0.00232954)
(0.182539 0 0.00658078)
(0.185901 0 0.0107118)
(0.187505 0 0.010315)
(0.188515 0 0.0075055)
(0.189751 0 0.00937072)
(0.191634 0 0.0111176)
(0.185008 0 0.00531228)
(0.171903 0 -0.00397994)
(0.149434 0 -0.00352965)
(0.120115 0 0.00270109)
(-0.0298968 0 -0.0098774)
(-0.198613 0 -0.0554189)
(-0.185748 0 0.0486965)
(0.188248 0 0.000110869)
(0.186836 0 -0.00170585)
(0.184447 0 -0.0032431)
(0.183031 0 -0.00249511)
(0.18116 0 -0.000533848)
(0.179778 0 -0.000763894)
(0.17854 0 -0.000738844)
(0.179141 0 0.00365026)
(0.180393 0 0.00806713)
(0.181344 0 0.00898897)
(0.183919 0 0.00838707)
(0.187026 0 0.012289)
(0.190515 0 0.0139553)
(0.187915 0 0.00984296)
(0.181823 0 0.00373286)
(0.17611 0 0.00120084)
(0.151305 0 0.00217189)
(-0.0260013 0 -0.0162303)
(-0.179478 0 -0.0297161)
(0.0100275 0 -0.0175317)
(0.0365552 0 0.0771959)
(-0.0565148 0 0.0343214)
(0.191427 0 0.000346866)
(0.190515 0 -0.001519)
(0.188421 0 -0.00343139)
(0.186814 0 -0.00357146)
(0.184147 0 -0.00260416)
(0.182075 0 -0.00387275)
(0.179203 0 -0.00442795)
(0.17804 0 -0.00106446)
(0.177357 0 0.00355879)
(0.177003 0 0.00500105)
(0.177863 0 0.00574713)
(0.179566 0 0.0116366)
(0.184247 0 0.0154815)
(0.187297 0 0.0149811)
(0.187359 0 0.011036)
(0.190335 0 0.00750715)
(0.184349 0 0.00584858)
(0.0654014 0 -0.0124955)
(-0.111773 0 -0.0310288)
(-0.134616 0 -0.0438001)
(0.0438147 0 -0.0315803)
(0.131694 0 -0.0204356)
(0.0459982 0 -0.0520986)
(-0.0124957 0 0.0162455)
(0.192663 0 0.000790769)
(0.192859 0 -0.000601371)
(0.191954 0 -0.00253196)
(0.191003 0 -0.00320732)
(0.188653 0 -0.00313627)
(0.186542 0 -0.00568651)
(0.183049 0 -0.00728973)
(0.180748 0 -0.00564577)
(0.177962 0 -0.00187705)
(0.175531 0 -0.00133819)
(0.173887 0 -0.000212494)
(0.173869 0 0.0067705)
(0.175841 0 0.0127716)
(0.179437 0 0.0153118)
(0.184647 0 0.0152626)
(0.200169 0 0.0161461)
(0.206302 0 0.0132389)
(0.12898 0 -0.0017551)
(0.0087611 0 -0.0196413)
(-0.0536264 0 -0.0624559)
(-0.0717257 0 -0.0701802)
(-0.02055 0 0.00324741)
(0.0620949 0 0.0169841)
(0.010079 0 -0.0268746)
(-0.0501034 0 0.0313603)
(0.0198435 0 0.0359345)
(0.190618 0 0.00144986)
(0.192604 0 0.00101257)
(0.193269 0 -0.000470167)
(0.193949 0 -0.00124061)
(0.192935 0 -0.00175406)
(0.191645 0 -0.00525342)
(0.18867 0 -0.00810205)
(0.186178 0 -0.00832524)
(0.182207 0 -0.0061963)
(0.178738 0 -0.00760334)
(0.174506 0 -0.00762893)
(0.171812 0 -0.00161845)
(0.170435 0 0.00561066)
(0.172554 0 0.00917634)
(0.176783 0 0.0119886)
(0.197731 0 0.0187497)
(0.216266 0 0.0187991)
(0.181322 0 0.0118664)
(0.107504 0 -0.00208216)
(-0.0139704 0 -0.0434165)
(-0.0793307 0 -0.080576)
(-0.0138972 0 -0.0593038)
(0.0413834 0 0.00882411)
(0.023594 0 0.0116812)
(-0.0267598 0 -0.0341371)
(-0.00244674 0 -0.0362125)
(0.066137 0 -0.0201245)
(0.0205417 0 0.00994515)
(0.1844 0 0.00239964)
(0.188568 0 0.00313409)
(0.191411 0 0.00253048)
(0.194078 0 0.00193207)
(0.195359 0 0.00138901)
(0.19547 0 -0.00241952)
(0.194106 0 -0.00613811)
(0.192605 0 -0.00785109)
(0.189027 0 -0.00761431)
(0.185489 0 -0.0115268)
(0.180029 0 -0.0135897)
(0.175676 0 -0.0101498)
(0.170993 0 -0.00356701)
(0.170073 0 -0.00187115)
(0.170755 0 0.00168958)
(0.194246 0 0.011859)
(0.216515 0 0.0168105)
(0.200773 0 0.0186406)
(0.171256 0 0.0121579)
(0.0530381 0 -0.0155147)
(-0.06493 0 -0.0527216)
(-0.0375799 0 -0.0494923)
(0.0264332 0 -0.0361854)
(0.0291731 0 -0.053107)
(0.0130131 0 -0.0465564)
(0.0105034 0 -0.0045144)
(0.0354804 0 -0.00296512)
(0.00210629 0 -0.0239494)
(-0.0436887 0 -0.00132341)
(0.173836 0 0.0034606)
(0.180134 0 0.00541925)
(0.185429 0 0.00596607)
(0.190225 0 0.0061495)
(0.193836 0 0.00592478)
(0.196295 0 0.0026863)
(0.196998 0 -0.00139839)
(0.197792 0 -0.00382601)
(0.196102 0 -0.00516819)
(0.193754 0 -0.0112316)
(0.18883 0 -0.0157489)
(0.184152 0 -0.0156584)
(0.177462 0 -0.011338)
(0.174455 0 -0.0131328)
(0.171574 0 -0.0118943)
(0.194232 0 -0.00224228)
(0.216354 0 0.00629222)
(0.212128 0 0.0119308)
(0.200678 0 0.0126978)
(0.0982399 0 0.00577748)
(-0.0169683 0 -0.0199177)
(-0.00899043 0 -0.036114)
(0.0200757 0 -0.0395439)
(0.00673574 0 -0.0468099)
(0.0099344 0 -0.0576178)
(0.0133732 0 -0.0518309)
(0.0116267 0 -0.0131006)
(0.00761127 0 0.00519873)
(-0.0256191 0 -0.0181837)
(0.159168 0 0.00449801)
(0.167477 0 0.00766032)
(0.174993 0 0.00944473)
(0.181934 0 0.0107731)
(0.187894 0 0.0113647)
(0.19293 0 0.00914424)
(0.196405 0 0.00545662)
(0.1997 0 0.0029799)
(0.201127 0 0.00101224)
(0.200798 0 -0.00626996)
(0.198135 0 -0.0128016)
(0.19483 0 -0.0156779)
(0.188378 0 -0.0146787)
(0.184327 0 -0.0207826)
(0.178573 0 -0.0236289)
(0.201086 0 -0.0163602)
(0.221483 0 -0.00867098)
(0.226531 0 -0.00456585)
(0.22167 0 -0.000272207)
(0.141937 0 0.00258857)
(0.0437659 0 -0.00404352)
(0.0279538 0 -0.0207745)
(0.0340543 0 -0.0387293)
(0.0123632 0 -0.0421178)
(-0.000804946 0 -0.0451174)
(-0.0032483 0 -0.0422788)
(-8.45453e-05 0 -0.0408301)
(0.00540965 0 -0.0469768)
(0.00143968 0 -0.027084)
(0.140813 0 0.0054452)
(0.150834 0 0.00975719)
(0.160293 0 0.0127675)
(0.169232 0 0.0153367)
(0.177424 0 0.0170733)
(0.184843 0 0.0161445)
(0.191126 0 0.0134125)
(0.196951 0 0.0118052)
(0.201387 0 0.00997365)
(0.204152 0 0.00285115)
(0.204533 0 -0.00493173)
(0.204297 0 -0.00938184)
(0.200541 0 -0.0114861)
(0.197167 0 -0.0214899)
(0.19083 0 -0.0287809)
(0.213336 0 -0.0265361)
(0.232705 0 -0.0209795)
(0.251336 0 -0.0215345)
(0.254201 0 -0.0193789)
(0.189239 0 -0.0193032)
(0.1118 0 -0.016595)
(0.0754159 0 -0.027689)
(0.059164 0 -0.0412723)
(0.024538 0 -0.0317522)
(0.00136507 0 -0.035056)
(-0.00190004 0 -0.0430498)
(-0.00400028 0 -0.0421872)
(-0.00169556 0 -0.0406267)
(0.00370969 0 -0.0437891)
(0.119387 0 0.00625234)
(0.13079 0 0.0115941)
(0.141827 0 0.0157738)
(0.152445 0 0.0195737)
(0.162574 0 0.0225578)
(0.172082 0 0.0230918)
(0.180819 0 0.0216274)
(0.189075 0 0.0214321)
(0.196237 0 0.0204949)
(0.202277 0 0.0144009)
(0.206262 0 0.00667305)
(0.20958 0 0.0019952)
(0.210008 0 -0.00165558)
(0.209026 0 -0.0139861)
(0.204893 0 -0.0250222)
(0.227846 0 -0.0282096)
(0.247428 0 -0.0255718)
(0.285764 0 -0.0334476)
(0.300491 0 -0.0364184)
(0.246384 0 -0.0428794)
(0.182943 0 -0.0429393)
(0.120517 0 -0.0515319)
(0.0862771 0 -0.0573967)
(0.0469647 0 -0.0397554)
(0.0105617 0 -0.0333283)
(0.00121731 0 -0.0357729)
(-0.00245183 0 -0.0425217)
(-0.00119993 0 -0.0437148)
(0.00136974 0 -0.0416218)
(0.0955742 0 0.00690388)
(0.108019 0 0.0131167)
(0.120247 0 0.0183421)
(0.132187 0 0.0232715)
(0.143851 0 0.0274974)
(0.15506 0 0.0295265)
(0.165824 0 0.0295029)
(0.176206 0 0.0309222)
(0.185871 0 0.0314259)
(0.194709 0 0.02675)
(0.20223 0 0.0200979)
(0.208737 0 0.0164332)
(0.213618 0 0.0123907)
(0.216028 0 0.000207583)
(0.216146 0 -0.0127005)
(0.240611 0 -0.0194591)
(0.262433 0 -0.0207258)
(0.323888 0 -0.0353793)
(0.35721 0 -0.0442257)
(0.313621 0 -0.0600727)
(0.257874 0 -0.067409)
(0.165151 0 -0.0774302)
(0.105496 0 -0.0804559)
(0.0621843 0 -0.0602386)
(0.0222901 0 -0.0461633)
(0.0126248 0 -0.044975)
(0.00260052 0 -0.0448803)
(-5.05933e-05 0 -0.0379817)
(0.000938878 0 -0.040931)
(0.0700493 0 0.00740409)
(0.0832121 0 0.0143117)
(0.096261 0 0.0204202)
(0.109166 0 0.0263287)
(0.121952 0 0.0316938)
(0.134449 0 0.035122)
(0.146753 0 0.0365758)
(0.158829 0 0.0396645)
(0.17056 0 0.0418549)
(0.181671 0 0.0389178)
(0.192031 0 0.0336917)
(0.201406 0 0.0319821)
(0.209474 0 0.0284413)
(0.21622 0 0.0185219)
(0.220023 0 0.00566577)
(0.248162 0 -0.00171207)
(0.273968 0 -0.00689776)
(0.35484 0 -0.0250693)
(0.4133 0 -0.0389299)
(0.386389 0 -0.0621808)
(0.33721 0 -0.0780692)
(0.210929 0 -0.0973144)
(0.12012 0 -0.104073)
(0.0712472 0 -0.0841731)
(0.0282224 0 -0.0660905)
(0.018555 0 -0.0629261)
(0.00826212 0 -0.0585787)
(0.00483119 0 -0.0474946)
(0.00191738 0 -0.0432192)
(0.0434405 0 0.00775949)
(0.0570261 0 0.0151877)
(0.070559 0 0.0220006)
(0.0840996 0 0.0287226)
(0.0976218 0 0.0350728)
(0.11102 0 0.0397303)
(0.124397 0 0.0425658)
(0.137697 0 0.0472199)
(0.150936 0 0.0511678)
(0.163788 0 0.0500962)
(0.17637 0 0.0465682)
(0.18816 0 0.0470963)
(0.199194 0 0.0453247)
(0.209403 0 0.0372561)
(0.21793 0 0.0269949)
(0.248563 0 0.019577)
(0.278448 0 0.014194)
(0.369799 0 -0.00393033)
(0.452402 0 -0.0212262)
(0.451033 0 -0.0440873)
(0.417481 0 -0.0655535)
(0.259103 0 -0.100536)
(0.132759 0 -0.120272)
(0.0741962 0 -0.103248)
(0.0269695 0 -0.084449)
(0.0197276 0 -0.0835954)
(0.00994375 0 -0.0770043)
(0.00678121 0 -0.063688)
(0.00310127 0 -0.0558769)
(0.0163095 0 0.00797323)
(0.0300527 0 0.0157624)
(0.043778 0 0.0231033)
(0.0576569 0 0.0304735)
(0.0715751 0 0.037639)
(0.0855317 0 0.0433269)
(0.0995676 0 0.047374)
(0.113673 0 0.0534068)
(0.127897 0 0.0590041)
(0.141937 0 0.059687)
(0.156035 0 0.0579492)
(0.16964 0 0.0609063)
(0.183069 0 0.0615717)
(0.195951 0 0.0555171)
(0.207956 0 0.0484215)
(0.24118 0 0.042373)
(0.274184 0 0.0383993)
(0.369572 0 0.0217263)
(0.465038 0 0.00503911)
(0.491192 0 -0.0101867)
(0.488402 0 -0.0315454)
(0.307444 0 -0.0785808)
(0.14702 0 -0.115719)
(0.0730997 0 -0.10735)
(0.0171033 0 -0.0927107)
(0.0139795 0 -0.0986164)
(0.00710469 0 -0.0937495)
(0.00629699 0 -0.0822863)
(0.00312751 0 -0.0726332)
(-0.0108324 0 0.00804916)
(0.00282473 0 0.0160527)
(0.0164809 0 0.0237586)
(0.0304337 0 0.0316212)
(0.0444564 0 0.0394335)
(0.058675 0 0.0459523)
(0.0730207 0 0.0510128)
(0.0875733 0 0.0582118)
(0.102343 0 0.06526)
(0.117114 0 0.0674828)
(0.132128 0 0.0673952)
(0.146882 0 0.0726238)
(0.161833 0 0.0760004)
(0.176633 0 0.0721954)
(0.191408 0 0.0677686)
(0.226401 0 0.0641586)
(0.261905 0 0.0615133)
(0.358039 0 0.0486723)
(0.457753 0 0.0348776)
(0.502384 0 0.0253983)
(0.533567 0 0.00936716)
(0.349081 0 -0.0325481)
(0.165785 0 -0.0806031)
(0.0721584 0 -0.0877075)
(0.000574526 0 -0.0839446)
(0.00192588 0 -0.099452)
(-0.000725386 0 -0.100691)
(0.00222654 0 -0.0949408)
(0.00147039 0 -0.0874445)
(-0.0375261 0 0.00798998)
(-0.0241875 0 0.0160699)
(-0.0108249 0 0.02399)
(0.00296079 0 0.0322022)
(0.0168286 0 0.0405051)
(0.0310516 0 0.0476723)
(0.0454202 0 0.0535482)
(0.0601216 0 0.0617061)
(0.0750772 0 0.0699779)
(0.0902116 0 0.0734992)
(0.105675 0 0.0748374)
(0.121075 0 0.0820541)
(0.136859 0 0.087931)
(0.15271 0 0.0861376)
(0.168951 0 0.0840775)
(0.205229 0 0.084133)
(0.242507 0 0.0818598)
(0.337386 0 0.0742885)
(0.437781 0 0.0639864)
(0.490978 0 0.0589184)
(0.542838 0 0.0465418)
(0.371657 0 0.0207255)
(0.188189 0 -0.0221186)
(0.0777406 0 -0.043641)
(-0.0153093 0 -0.0553437)
(-0.013508 0 -0.0799821)
(-0.0116404 0 -0.0904011)
(-0.00500298 0 -0.0942365)
(-0.00187077 0 -0.0926403)
(-0.0633351 0 0.00779574)
(-0.050539 0 0.0158158)
(-0.0376865 0 0.0238077)
(-0.0242986 0 0.0322408)
(-0.010806 0 0.0408922)
(0.003188 0 0.0485465)
(0.0173292 0 0.0550579)
(0.0319276 0 0.0639925)
(0.0467863 0 0.0732639)
(0.0619916 0 0.0778537)
(0.077542 0 0.080383)
(0.0932134 0 0.089273)
(0.109333 0 0.0973294)
(0.125684 0 0.0972165)
(0.142609 0 0.0971188)
(0.178926 0 0.100392)
(0.216988 0 0.0989849)
(0.308868 0 0.097699)
(0.407346 0 0.0900557)
(0.461991 0 0.090182)
(0.521714 0 0.081287)
(0.370338 0 0.0697554)
(0.201428 0 0.04083)
(0.0878079 0 0.014053)
(-0.0242394 0 -0.00969033)
(-0.0254437 0 -0.0392195)
(-0.0232735 0 -0.0596337)
(-0.0136809 0 -0.0743241)
(-0.00648646 0 -0.0819194)
(-0.0878414 0 0.00746824)
(-0.0758035 0 0.0152873)
(-0.0636725 0 0.0232108)
(-0.0509073 0 0.03174)
(-0.0380055 0 0.0406121)
(-0.0244658 0 0.0486152)
(-0.0107623 0 0.0556028)
(0.00351022 0 0.0651609)
(0.0180305 0 0.0752329)
(0.0330705 0 0.0806986)
(0.0484391 0 0.0842065)
(0.0641016 0 0.094465)
(0.0801979 0 0.104356)
(0.0966491 0 0.105609)
(0.113736 0 0.107039)
(0.148816 0 0.11312)
(0.186506 0 0.112946)
(0.273171 0 0.116886)
(0.367044 0 0.112597)
(0.420098 0 0.119123)
(0.478578 0 0.114801)
(0.348674 0 0.112708)
(0.199393 0 0.0968103)
(0.0925184 0 0.0707992)
(-0.0236086 0 0.0448781)
(-0.0289976 0 0.0137351)
(-0.0305852 0 -0.0129301)
(-0.0208282 0 -0.0355994)
(-0.0111069 0 -0.0527125)
(-0.110644 0 0.00701217)
(-0.0995801 0 0.0144794)
(-0.0883684 0 0.0221907)
(-0.0764431 0 0.0306928)
(-0.0643452 0 0.0396606)
(-0.0514873 0 0.047881)
(-0.0384329 0 0.0552088)
(-0.0247023 0 0.0652733)
(-0.0107164 0 0.075974)
(0.0039542 0 0.0821626)
(0.0189193 0 0.0864824)
(0.034359 0 0.097849)
(0.0501859 0 0.109249)
(0.0664497 0 0.111595)
(0.0833241 0 0.114175)
(0.115846 0 0.12266)
(0.151897 0 0.123786)
(0.230795 0 0.132184)
(0.317889 0 0.131321)
(0.368286 0 0.143485)
(0.421943 0 0.145171)
(0.312822 0 0.14923)
(0.183505 0 0.144546)
(0.0893979 0 0.121005)
(-0.0195174 0 0.0982435)
(-0.0272681 0 0.0687003)
(-0.0335962 0 0.0405438)
(-0.0244491 0 0.0152527)
(-0.0148713 0 -0.00875403)
(-0.131359 0 0.00642632)
(-0.121471 0 0.0133893)
(-0.111371 0 0.0207366)
(-0.100505 0 0.0290855)
(-0.0894116 0 0.0380235)
(-0.0774613 0 0.0463296)
(-0.0652733 0 0.0538675)
(-0.0523094 0 0.064329)
(-0.0390619 0 0.0755222)
(-0.0249622 0 0.0823375)
(-0.010573 0 0.0873552)
(0.00447491 0 0.0996055)
(0.0198347 0 0.112233)
(0.0357256 0 0.115482)
(0.0521546 0 0.118886)
(0.0808191 0 0.129386)
(0.113937 0 0.131759)
(0.182484 0 0.143945)
(0.260976 0 0.146332)
(0.30813 0 0.163534)
(0.356865 0 0.170939)
(0.268253 0 0.1787)
(0.158519 0 0.184191)
(0.0801789 0 0.162512)
(-0.0153178 0 0.143839)
(-0.0234486 0 0.118812)
(-0.0322341 0 0.09262)
(-0.0245393 0 0.0680015)
(-0.0158916 0 0.0419153)
(-0.14963 0 0.00570791)
(-0.141099 0 0.0120219)
(-0.132286 0 0.0188512)
(-0.122691 0 0.0269082)
(-0.112799 0 0.0356857)
(-0.101987 0 0.0439361)
(-0.0908763 0 0.0515543)
(-0.0789071 0 0.0623011)
(-0.0666149 0 0.0738594)
(-0.0533125 0 0.0812133)
(-0.0396922 0 0.0868761)
(-0.0252119 0 0.0998677)
(-0.0104352 0 0.113408)
(0.00504334 0 0.117508)
(0.0208787 0 0.121492)
(0.0444546 0 0.133653)
(0.0734016 0 0.137225)
(0.129359 0 0.152523)
(0.197144 0 0.157933)
(0.241234 0 0.179735)
(0.285745 0 0.192339)
(0.218413 0 0.202708)
(0.128326 0 0.215383)
(0.0671381 0 0.195039)
(-0.0117033 0 0.180015)
(-0.0190985 0 0.160591)
(-0.0280795 0 0.138343)
(-0.0221855 0 0.116642)
(-0.0151401 0 0.0918436)
(-0.165148 0 0.00486658)
(-0.158125 0 0.0103936)
(-0.150748 0 0.0165563)
(-0.142614 0 0.0241694)
(-0.134109 0 0.0326427)
(-0.124653 0 0.0406822)
(-0.11483 0 0.0482406)
(-0.104097 0 0.0591466)
(-0.0929769 0 0.070942)
(-0.0807103 0 0.0787459)
(-0.0680791 0 0.0849948)
(-0.0543899 0 0.0986089)
(-0.0403767 0 0.112789)
(-0.0253309 0 0.117893)
(-0.0101229 0 0.122639)
(0.00765805 0 0.135844)
(0.031149 0 0.140638)
(0.072731 0 0.1582)
(0.127922 0 0.16632)
(0.169529 0 0.192033)
(0.210994 0 0.209566)
(0.166005 0 0.221648)
(0.0967211 0 0.23917)
(0.0522123 0 0.220117)
(-0.009297 0 0.207825)
(-0.0152385 0 0.193737)
(-0.0230592 0 0.17578)
(-0.0187073 0 0.157922)
(-0.0132973 0 0.13636)
(-0.177671 0 0.00392699)
(-0.172262 0 0.00853721)
(-0.166435 0 0.0138906)
(-0.159919 0 0.0209001)
(-0.152959 0 0.0289138)
(-0.145058 0 0.0365726)
(-0.136718 0 0.0439168)
(-0.127456 0 0.0548298)
(-0.117732 0 0.0667205)
(-0.106762 0 0.0748657)
(-0.0953526 0 0.0816289)
(-0.0826994 0 0.0957594)
(-0.0696753 0 0.110399)
(-0.0554338 0 0.116563)
(-0.0408734 0 0.1226)
(-0.028998 0 0.136405)
(-0.0114831 0 0.142157)
(0.0137682 0 0.161058)
(0.054592 0 0.171236)
(0.0945577 0 0.200803)
(0.134207 0 0.223602)
(0.112678 0 0.235861)
(0.0658123 0 0.256655)
(0.0371546 0 0.238978)
(-0.00775335 0 0.228961)
(-0.0121135 0 0.219267)
(-0.0182435 0 0.205137)
(-0.0150903 0 0.191131)
(-0.0109933 0 0.173445)
(-0.187046 0 0.00292461)
(-0.183291 0 0.00650582)
(-0.179088 0 0.0109155)
(-0.174301 0 0.0171628)
(-0.169008 0 0.0245564)
(-0.162822 0 0.0316488)
(-0.156131 0 0.0386094)
(-0.148559 0 0.0493458)
(-0.140446 0 0.0611666)
(-0.131033 0 0.0695107)
(-0.121093 0 0.0766891)
(-0.109756 0 0.0912104)
(-0.0979647 0 0.106189)
(-0.0848327 0 0.113407)
(-0.0712477 0 0.120882)
(-0.0649345 0 0.135176)
(-0.05363 0 0.141763)
(-0.0453429 0 0.161778)
(-0.0203691 0 0.173148)
(0.0159236 0 0.205393)
(0.0550969 0 0.233641)
(0.0595827 0 0.246764)
(0.0367794 0 0.268795)
(0.0226714 0 0.252432)
(-0.00649568 0 0.244538)
(-0.0094852 0 0.238273)
(-0.013973 0 0.227489)
(-0.0117667 0 0.216915)
(-0.00872031 0 0.202964)
(-0.193215 0 0.00189162)
(-0.191094 0 0.00435823)
(-0.188523 0 0.00770888)
(-0.185534 0 0.0130536)
(-0.18198 0 0.0196736)
(-0.17761 0 0.0260064)
(-0.172691 0 0.0323986)
(-0.166988 0 0.0427401)
(-0.160674 0 0.0542983)
(-0.153067 0 0.0626559)
(-0.144841 0 0.0701081)
(-0.135116 0 0.0848607)
(-0.12483 0 0.100035)
(-0.113097 0 0.108269)
(-0.100824 0 0.117089)
(-0.0992979 0 0.131857)
(-0.0937705 0 0.139478)
(-0.100866 0 0.159775)
(-0.0925942 0 0.172166)
(-0.0594683 0 0.205258)
(-0.0234742 0 0.236676)
(0.00751893 0 0.251862)
(0.0122377 0 0.274781)
(0.00938451 0 0.261022)
(-0.00506018 0 0.255164)
(-0.00711282 0 0.251613)
(-0.0102719 0 0.243767)
(-0.00881813 0 0.236198)
(-0.00667107 0 0.225591)
(-0.196169 0 0.000957394)
(-0.195678 0 0.00212451)
(-0.194644 0 0.0043344)
(-0.193489 0 0.00868228)
(-0.191699 0 0.0144052)
(-0.189169 0 0.0197988)
(-0.186079 0 0.0254317)
(-0.182368 0 0.0351339)
(-0.177995 0 0.0462079)
(-0.172401 0 0.0543405)
(-0.166112 0 0.0618712)
(-0.158288 0 0.0766517)
(-0.14979 0 0.0918392)
(-0.139762 0 0.100994)
(-0.129092 0 0.111024)
(-0.131656 0 0.126219)
(-0.131183 0 0.135143)
(-0.152608 0 0.155195)
(-0.159629 0 0.168011)
(-0.133828 0 0.200854)
(-0.100773 0 0.232648)
(-0.0384648 0 0.251793)
(-0.00795419 0 0.276789)
(-0.00099185 0 0.263805)
(-0.00334141 0 0.261234)
(-0.00486876 0 0.260024)
(-0.00697623 0 0.254759)
(-0.00627865 0 0.249732)
(-0.00489883 0 0.242113)
(-0.195976 0 6.96361e-05)
(-0.197068 0 -0.000141303)
(-0.197479 0 0.000842697)
(-0.198159 0 0.00416332)
(-0.198118 0 0.00892018)
(-0.197344 0 0.0132169)
(-0.196067 0 0.0179069)
(-0.194405 0 0.0267301)
(-0.192041 0 0.0370872)
(-0.188589 0 0.0447092)
(-0.184408 0 0.0520566)
(-0.178746 0 0.0665947)
(-0.172312 0 0.0815699)
(-0.16431 0 0.0914708)
(-0.155539 0 0.102509)
(-0.161612 0 0.118089)
(-0.165474 0 0.12856)
(-0.199824 0 0.147993)
(-0.22119 0 0.161054)
(-0.20296 0 0.193598)
(-0.175826 0 0.223681)
(-0.0924227 0 0.246846)
(-0.0310333 0 0.276365)
(-0.00995776 0 0.265687)
(-0.00347684 0 0.263852)
(-0.00281217 0 0.263885)
(-0.00409989 0 0.261032)
(-0.00409088 0 0.258353)
(-0.00339699 0 0.253306)
(-0.193064 0 -0.000873873)
(-0.195561 0 -0.00216941)
(-0.197551 0 -0.00251235)
(-0.199567 0 -8.82282e-05)
(-0.201334 0 0.00345988)
(-0.202071 0 0.0064764)
(-0.202495 0 0.0100358)
(-0.202925 0 0.0177579)
(-0.202579 0 0.0271973)
(-0.201281 0 0.0340438)
(-0.199261 0 0.040896)
(-0.195938 0 0.0548347)
(-0.191806 0 0.0692968)
(-0.186158 0 0.0796508)
(-0.179611 0 0.0914167)
(-0.188798 0 0.10731)
(-0.19639 0 0.119574)
(-0.241904 0 0.138072)
(-0.276385 0 0.151327)
(-0.267687 0 0.18304)
(-0.247662 0 0.211472)
(-0.144177 0 0.23841)
(-0.0598408 0 0.271434)
(-0.0235776 0 0.264499)
(-0.0031125 0 0.263946)
(-0.00245295 0 0.265467)
(-0.00198826 0 0.263851)
(-0.00226249 0 0.262636)
(-0.00215506 0 0.25988)
(-0.187669 0 -0.00180707)
(-0.191311 0 -0.00409239)
(-0.194534 0 -0.00555377)
(-0.197874 0 -0.00441782)
(-0.20078 0 -0.00187456)
(-0.203459 0 -0.000493647)
(-0.205231 0 0.00200373)
(-0.20787 0 0.00844441)
(-0.209541 0 0.0168291)
(-0.210263 0 0.0226763)
(-0.210364 0 0.0287317)
(-0.209431 0 0.0417497)
(-0.207651 0 0.0553864)
(-0.204567 0 0.0656368)
(-0.20063 0 0.0777167)
(-0.212816 0 0.0937282)
(-0.22373 0 0.108107)
(-0.278634 0 0.125299)
(-0.324642 0 0.138824)
(-0.326842 0 0.169265)
(-0.316256 0 0.196366)
(-0.19585 0 0.226595)
(-0.0913159 0 0.261927)
(-0.0381625 0 0.258044)
(-0.00176207 0 0.260398)
(-0.000162947 0 0.263671)
(0.000462753 0 0.263639)
(-0.000843293 0 0.263992)
(-0.00118498 0 0.262705)
(-0.180035 0 -0.0026976)
(-0.184752 0 -0.00589391)
(-0.188926 0 -0.00834924)
(-0.193395 0 -0.00834546)
(-0.197509 0 -0.00698949)
(-0.201669 0 -0.00685558)
(-0.205325 0 -0.00584931)
(-0.209229 0 -0.000424662)
(-0.213063 0 0.00640226)
(-0.215381 0 0.0109772)
(-0.217489 0 0.0159065)
(-0.219003 0 0.0277097)
(-0.219562 0 0.040408)
(-0.218966 0 0.0500156)
(-0.217559 0 0.0614991)
(-0.233125 0 0.0771781)
(-0.247287 0 0.09418)
(-0.310075 0 0.109506)
(-0.366046 0 0.123454)
(-0.379766 0 0.152542)
(-0.380487 0 0.178095)
(-0.246043 0 0.210781)
(-0.124489 0 0.247639)
(-0.0542144 0 0.247659)
(-0.00109339 0 0.252595)
(0.0018364 0 0.257626)
(0.00344778 0 0.259478)
(0.00122196 0 0.261841)
(-5.32761e-05 0 0.262157)
(-0.176088 0 -0.0075691)
(-0.170405 0 -0.00345218)
(-0.181108 0 -0.0109425)
(-0.186526 0 -0.0119301)
(-0.191567 0 -0.011699)
(-0.196936 0 -0.0128521)
(-0.201895 0 -0.013198)
(-0.207167 0 -0.00941189)
(-0.212054 0 -0.0037588)
(-0.216675 0 -0.00116337)
(-0.220188 0 0.00268424)
(-0.22455 0 0.0129182)
(-0.227488 0 0.0248911)
(-0.229134 0 0.0333091)
(-0.230155 0 0.0430961)
(-0.249208 0 0.0587573)
(-0.266803 0 0.0777266)
(-0.336468 0 0.0904823)
(-0.401063 0 0.105221)
(-0.42622 0 0.132958)
(-0.439302 0 0.156941)
(-0.293898 0 0.191241)
(-0.158612 0 0.228183)
(-0.0708452 0 0.232837)
(-0.000669764 0 0.240837)
(0.00384801 0 0.24739)
(0.00683469 0 0.251113)
(0.00353563 0 0.255513)
(0.00132486 0 0.25774)
(-0.177578 0 -0.0151764)
(-0.171429 0 -0.0131918)
(-0.158264 0 -0.0097674)
(-0.142095 0 -0.00475104)
(-0.183346 0 -0.0159299)
(-0.189708 0 -0.0182773)
(-0.195656 0 -0.0199162)
(-0.202058 0 -0.0175843)
(-0.208145 0 -0.0133822)
(-0.214331 0 -0.0123245)
(-0.220051 0 -0.0103545)
(-0.225864 0 -0.00126349)
(-0.231705 0 0.00934245)
(-0.234947 0 0.0159509)
(-0.23813 0 0.0231544)
(-0.260796 0 0.0389425)
(-0.281849 0 0.0587053)
(-0.358013 0 0.0691997)
(-0.430244 0 0.0843292)
(-0.46645 0 0.110376)
(-0.492153 0 0.133068)
(-0.337931 0 0.168355)
(-0.192162 0 0.20339)
(-0.0875354 0 0.213316)
(-1.81186e-05 0 0.224776)
(0.00613739 0 0.232416)
(0.0106885 0 0.238269)
(0.00619098 0 0.244943)
(0.00293055 0 0.24909)
(-0.180271 0 -0.0230479)
(-0.173331 0 -0.0196004)
(-0.159535 0 -0.0195989)
(-0.142933 0 -0.0168151)
(-0.129232 0 -0.0115681)
(-0.111052 0 -0.00565494)
(-0.187014 0 -0.0258841)
(-0.19434 0 -0.0249496)
(-0.201334 0 -0.0221781)
(-0.208684 0 -0.0227506)
(-0.215697 0 -0.0225367)
(-0.223042 0 -0.0155691)
(-0.230005 0 -0.00604309)
(-0.236391 0 -0.00250759)
(-0.241018 0 0.00278919)
(-0.267615 0 0.0180281)
(-0.292343 0 0.0374897)
(-0.374579 0 0.0463559)
(-0.453922 0 0.0606474)
(-0.500287 0 0.0856326)
(-0.538878 0 0.107002)
(-0.376565 0 0.14223)
(-0.222612 0 0.173522)
(-0.102819 0 0.188749)
(0.00148809 0 0.203885)
(0.00891093 0 0.212325)
(0.015099 0 0.220527)
(0.00928987 0 0.229565)
(0.0048322 0 0.235878)
(-0.184285 0 -0.0313682)
(-0.176428 0 -0.0309781)
(-0.161566 0 -0.0296729)
(-0.144133 0 -0.0257647)
(-0.130008 0 -0.0230913)
(-0.11201 0 -0.0187522)
(-0.0956582 0 -0.0126098)
(-0.0797196 0 -0.00719543)
(-0.192038 0 -0.0299821)
(-0.200252 0 -0.0321267)
(-0.208191 0 -0.0335979)
(-0.2167 0 -0.0284439)
(-0.224854 0 -0.0206523)
(-0.233401 0 -0.0194072)
(-0.241292 0 -0.0170418)
(-0.269844 0 -0.00230684)
(-0.297989 0 0.0148655)
(-0.385812 0 0.0220882)
(-0.471516 0 0.0343225)
(-0.525782 0 0.0587851)
(-0.576686 0 0.0794541)
(-0.407663 0 0.111872)
(-0.246492 0 0.139532)
(-0.114871 0 0.15851)
(0.00460837 0 0.177172)
(0.0125957 0 0.18666)
(0.0201241 0 0.197403)
(0.0128059 0 0.209019)
(0.00704964 0 0.217663)
(-0.189302 0 -0.0402757)
(-0.180705 0 -0.0366204)
(-0.164511 0 -0.0401342)
(-0.146107 0 -0.0393599)
(-0.131228 0 -0.0348719)
(-0.11252 0 -0.028834)
(-0.0967867 0 -0.0246669)
(-0.082051 0 -0.0218615)
(-0.0708974 0 -0.0160483)
(-0.042802 0 -0.00958887)
(-0.198012 0 -0.0433787)
(-0.207417 0 -0.0399859)
(-0.216457 0 -0.0338027)
(-0.226604 0 -0.0348137)
(-0.235854 0 -0.0353582)
(-0.267443 0 -0.0234597)
(-0.298073 0 -0.00680975)
(-0.390402 0 -0.00224477)
(-0.482198 0 0.00659864)
(-0.539644 0 0.0297701)
(-0.599723 0 0.0504992)
(-0.427655 0 0.0750588)
(-0.260251 0 0.0993274)
(-0.121844 0 0.121421)
(0.00994233 0 0.143237)
(0.0175596 0 0.154874)
(0.0258411 0 0.168198)
(0.0167886 0 0.182831)
(0.009575 0 0.194045)
(-0.195339 0 -0.0500857)
(-0.18553 0 -0.0515871)
(-0.16799 0 -0.0512695)
(-0.148429 0 -0.0473857)
(-0.132759 0 -0.0468047)
(-0.114085 0 -0.0431211)
(-0.0982129 0 -0.0367044)
(-0.0826096 0 -0.0327429)
(-0.0725653 0 -0.0299404)
(-0.0500934 0 -0.0265951)
(-0.0206109 0 -0.0196269)
(-0.00099676 0 -0.0174333)
(-0.205396 0 -0.0454587)
(-0.216989 0 -0.0485253)
(-0.227457 0 -0.0515894)
(-0.261288 0 -0.0411829)
(-0.293604 0 -0.0255432)
(-0.386964 0 -0.0267902)
(-0.482568 0 -0.0207927)
(-0.53743 0 -0.00197374)
(-0.601269 0 0.0193472)
(-0.431802 0 0.0308825)
(-0.261059 0 0.0490049)
(-0.122305 0 0.0756301)
(0.0176054 0 0.100665)
(0.0239413 0 0.116103)
(0.0322081 0 0.132244)
(0.0212259 0 0.150533)
(0.012374 0 0.164593)
(-0.204442 0 -0.0609021)
(-0.191635 0 -0.0551948)
(-0.172082 0 -0.0633342)
(-0.150562 0 -0.0644559)
(-0.13406 0 -0.0592596)
(-0.115006 0 -0.0515685)
(-0.0997452 0 -0.0482499)
(-0.0853976 0 -0.0466145)
(-0.0742932 0 -0.0423229)
(-0.0541251 0 -0.0381439)
(-0.0297145 0 -0.034871)
(-0.0176232 0 -0.0443698)
(-7.54387e-05 0 -0.0403309)
(0.0785377 0 -0.0230695)
(-0.216884 0 -0.0663146)
(-0.252821 0 -0.0566877)
(-0.286532 0 -0.0416985)
(-0.375178 0 -0.0465472)
(-0.469484 0 -0.0451585)
(-0.515828 0 -0.03654)
(-0.574092 0 -0.0172172)
(-0.415994 0 -0.0218663)
(-0.247759 0 -0.0133454)
(-0.115573 0 0.0213173)
(0.026145 0 0.0496634)
(0.0309836 0 0.0695974)
(0.0385366 0 0.0892088)
(0.0259019 0 0.111711)
(0.015325 0 0.128955)
(-0.24154 0 -0.0716229)
(-0.203244 0 -0.0786194)
(-0.180409 0 -0.076472)
(-0.153555 0 -0.0699612)
(-0.135616 0 -0.0724634)
(-0.115129 0 -0.0684677)
(-0.100058 0 -0.0597525)
(-0.0864248 0 -0.0534739)
(-0.0762668 0 -0.0520812)
(-0.0629498 0 -0.0508716)
(-0.0404011 0 -0.046234)
(-0.029922 0 -0.0626082)
(-0.020604 0 -0.0705187)
(0.0419091 0 -0.0703649)
(0.118539 0 -0.0513732)
(0.172335 0 -0.0411825)
(-0.278239 0 -0.0568088)
(-0.357074 0 -0.06309)
(-0.443869 0 -0.0653426)
(-0.479737 0 -0.0659761)
(-0.523848 0 -0.0549211)
(-0.383206 0 -0.0739778)
(-0.225272 0 -0.0809048)
(-0.103184 0 -0.0383257)
(0.0320877 0 -0.00556906)
(0.0366503 0 0.0170435)
(0.0428282 0 0.0399728)
(0.0300697 0 0.0665657)
(0.0181418 0 0.0871623)
(-0.334819 0 -0.0810384)
(-0.26626 0 -0.0696132)
(-0.21796 0 -0.0890321)
(-0.166839 0 -0.0960589)
(-0.144306 0 -0.0864003)
(-0.116156 0 -0.0734633)
(-0.100168 0 -0.0714989)
(-0.0859425 0 -0.0674295)
(-0.0761636 0 -0.0602847)
(-0.0675533 0 -0.0551898)
(-0.0517107 0 -0.0539929)
(-0.0464234 0 -0.0727416)
(-0.0391726 0 -0.0872565)
(0.00308558 0 -0.0948696)
(0.064354 0 -0.0934497)
(0.118733 0 -0.0978523)
(0.175233 0 -0.0832951)
(0.313158 0 -0.0319337)
(-0.412511 0 -0.0848027)
(-0.440383 0 -0.0873008)
(-0.470914 0 -0.0843648)
(-0.342251 0 -0.106128)
(-0.200122 0 -0.131176)
(-0.092832 0 -0.0927177)
(0.030054 0 -0.0566856)
(0.0383146 0 -0.0368369)
(0.0437415 0 -0.012249)
(0.0323657 0 0.0163868)
(0.020364 0 0.0402922)
(-0.401613 0 -0.10893)
(-0.377024 0 -0.103212)
(-0.288682 0 -0.103756)
(-0.223583 0 -0.0878636)
(-0.178422 0 -0.0991436)
(-0.132642 0 -0.0993404)
(-0.109399 0 -0.0833864)
(-0.0866189 0 -0.0695325)
(-0.0759894 0 -0.0678103)
(-0.0686306 0 -0.0649199)