/*--------------------------------*- C++ -*----------------------------------*\
| =========                 |                                                 |
| \\      /  F ield         | OpenFOAM: The Open Source CFD Toolbox           |
|  \\    /   O peration     | Version:  5.x                                   |
|   \\  /    A nd           | Web:      www.OpenFOAM.org                      |
|    \\/     M anipulation  |                                                 |
\*---------------------------------------------------------------------------*/
FoamFile
{
    version     2.0;
    format      ascii;
    class       surfaceScalarField;
    location    "1.4";
    object      alphaPhi10;
}
// * * * * * * * * * * * * * * * * * * * * * * * * * * * * * * * * * * * * * //

dimensions      [0 3 -1 0 0 0 0];

internalField   nonuniform List<scalar> 
30582
(
0.00027104
-2.08212e-06
0.000272374
-1.33413e-06
0.000270634
-3.72579e-06
0.000270011
2.36306e-06
0.000271633
-2.33281e-06
0.000269169
-3.83401e-06
0.000263256
6.75556e-06
0.000269286
4.71012e-06
0.00027128
-4.44364e-06
0.000266598
-1.26903e-06
0.000256839
6.41682e-06
0.000262684
1.33569e-05
0.000269479
6.51079e-06
0.000267412
-5.25807e-06
0.000263081
4.9446e-06
0.000251888
4.95042e-06
0.00025609
1.3011e-05
0.000263112
1.97242e-05
0.00026556
8.36333e-06
0.000266412
-8.58958e-06
0.00025598
1.84323e-05
0.000250334
1.5541e-06
0.000251198
9.8423e-06
0.000256132
1.99912e-05
0.000260095
2.51891e-05
0.000265479
9.29692e-06
0.000256502
-9.11153e-06
0.000250699
3.74043e-05
0.000251839
-1.50431e-06
0.00024934
3.41248e-06
0.000250603
1.53715e-05
0.000253241
2.68448e-05
0.000260868
2.97994e-05
0.000256453
9.34576e-06
0.000255373
-1.37854e-05
0.000232393
7.49162e-05
0.000256589
-4.75051e-06
0.000251183
-3.34742e-06
0.00024876
5.25492e-06
0.000247753
2.08592e-05
0.00025406
3.36532e-05
0.000254501
3.17513e-05
0.000257849
6.87043e-06
0.000228644
-8.95341e-06
9.37284e-05
-8.80552e-06
0.000262669
-6.07995e-06
0.000256342
-9.90954e-06
0.000250624
-5.21148e-06
0.000245394
7.61413e-06
0.000247191
2.77285e-05
0.000249372
3.87821e-05
0.000256609
3.29911e-05
0.000235425
-2.1003e-07
0.000113051
-2.71805e-06
-6.94962e-06
1.78913e-07
0.000267851
-5.18221e-06
0.000262918
-1.26558e-05
0.000256022
-1.53069e-05
0.00024782
-7.63701e-06
0.000244024
1.07808e-05
0.000242495
3.46061e-05
0.000250232
4.51584e-05
0.000244432
2.30489e-05
0.000142311
-4.98488e-06
-5.97039e-06
-3.65305e-09
1.06687e-08
4.6028e-09
0.00027005
-2.19852e-06
0.000268581
-1.08458e-05
0.000263375
-2.00096e-05
0.000254489
-2.19759e-05
0.00024609
-9.7028e-06
0.000238367
1.49088e-05
0.000239949
4.48864e-05
0.000243791
4.37589e-05
0.000168646
-2.30058e-06
-3.44176e-06
-3.19114e-08
4.00948e-10
-1.48963e-10
4.91525e-10
6.84841e-12
0.000267528
2.52129e-06
0.000270861
-4.47841e-06
0.000270051
-1.75216e-05
0.000263488
-2.9009e-05
0.00025349
-2.93758e-05
0.000241071
-1.24068e-05
0.000233705
2.11491e-05
0.000235026
5.0779e-05
0.000174931
9.09034e-06
2.9679e-06
-6.08394e-08
-8.00481e-09
-4.85092e-12
6.07485e-12
-3.70293e-16
-4.27822e-17
9.30876e-16
0.000259383
8.14533e-06
0.000268582
4.8006e-06
0.000273736
-8.1633e-06
0.000271759
-2.57929e-05
0.000264291
-3.98101e-05
0.000250547
-3.88518e-05
0.000236351
-1.50433e-05
0.000228744
2.54944e-05
0.000171776
1.53074e-05
8.5611e-06
-5.84131e-08
-1.77468e-08
-4.13001e-11
3.17157e-12
6.74551e-16
-7.21335e-17
-6.61306e-18
4.17698e-17
1.5507e-20
0.000245645
1.37378e-05
0.000260683
1.60442e-05
0.000271745
6.79137e-06
0.000276001
-1.24046e-05
0.000274792
-3.62944e-05
0.000264324
-5.35872e-05
0.000247254
-4.97263e-05
0.000231987
-1.57203e-05
0.000172083
6.91098e-06
1.16281e-05
-1.48233e-08
-1.71696e-08
-8.65492e-11
2.8037e-12
-4.02378e-15
8.77289e-17
-7.99498e-21
1.879e-20
-2.9469e-26
-4.43357e-27
0.000226875
1.87705e-05
0.000247031
2.73893e-05
0.00026375
2.40396e-05
0.000275113
7.67909e-06
0.000281744
-1.93561e-05
0.000277903
-4.98735e-05
0.000264245
-7.05551e-05
0.000244673
-5.33336e-05
0.000180579
-5.42733e-06
1.37217e-05
-3.91211e-08
9.69991e-09
-1.44065e-10
1.4872e-11
-1.75208e-14
1.29224e-16
-1.05969e-19
1.05721e-21
-1.46576e-26
-1.41691e-26
0.000203824
2.30509e-05
0.000228159
3.76427e-05
0.00024992
4.12189e-05
0.000267781
3.13711e-05
0.000281602
7.82084e-06
0.00028647
-2.79233e-05
0.000281785
-6.74074e-05
0.000265522
-7.9227e-05
0.000202479
-1.69113e-05
1.88974e-05
-1.99689e-07
6.59611e-08
-3.49012e-10
5.09455e-11
-4.69102e-14
4.15383e-16
-5.20972e-19
-2.15851e-22
-2.06955e-24
5.63801e-27
0.000177401
2.64229e-05
0.000204927
4.62828e-05
0.000230742
5.68207e-05
0.000253942
5.50582e-05
0.000274154
3.88186e-05
0.000288104
6.18726e-06
0.000294379
-4.05174e-05
0.000287189
-7.87407e-05
0.000231638
-2.95531e-05
2.90009e-05
-5.13169e-07
1.76623e-07
-1.07462e-09
1.40991e-10
-1.45227e-13
3.08827e-15
-1.63911e-18
-3.72504e-22
-1.26351e-23
3.02553e-26
0.000148498
2.89028e-05
0.0001783
5.30505e-05
0.000207113
6.9912e-05
0.000234389
7.6374e-05
0.000259954
6.92583e-05
0.000281612
4.53101e-05
0.000297464
3.10238e-06
0.000302692
-5.02746e-05
0.000260024
-3.67084e-05
4.63184e-05
-1.06464e-06
4.18918e-07
-2.8911e-09
3.18073e-10
-4.60935e-13
1.36604e-14
-5.67968e-18
3.70526e-20
-4.46981e-23
1.5384e-25
0.0001179
3.05981e-05
0.000149199
5.80036e-05
0.000180063
8.01005e-05
0.000210197
9.41041e-05
0.000239748
9.65806e-05
0.000267186
8.36852e-05
0.000290596
5.21781e-05
0.00030636
-4.14965e-07
0.000280223
-2.89222e-05
7.09204e-05
-1.75121e-06
9.60858e-07
-6.7926e-09
6.95417e-10
-1.36073e-12
3.54536e-14
-1.77438e-17
2.00501e-19
-1.74933e-22
5.69833e-25
8.62477e-05
3.16523e-05
0.000118424
6.1373e-05
0.000150565
8.75019e-05
0.000182535
0.000107762
0.000214699
0.000119153
0.000246147
0.000117619
0.000275628
9.86535e-05
0.000301554
5.69844e-05
0.000287644
-2.56502e-06
9.37681e-05
-1.86184e-06
2.06853e-06
-1.28679e-08
1.49826e-09
-3.43099e-12
6.83003e-14
-5.27833e-17
4.79857e-19
-5.53163e-22
2.45362e-24
5.40454e-05
3.22023e-05
8.66225e-05
6.34542e-05
0.000119446
9.24921e-05
0.000152463
0.000117574
0.000186142
0.000136319
0.000219954
0.000145346
0.000253554
0.000139693
0.000286415
0.000113792
0.000282499
2.37585e-05
0.000102969
-4.73003e-07
3.77281e-06
-1.68115e-08
3.1463e-09
-6.97128e-12
6.85755e-14
-1.31025e-16
5.96634e-19
-1.71105e-21
5.23584e-24
2.16753e-05
3.23701e-05
5.42983e-05
6.45264e-05
8.73605e-05
9.55396e-05
0.000120849
0.000124106
0.000155238
0.000148478
0.000190235
0.000166038
0.000225962
0.000172938
0.000263228
0.00016288
0.000264682
4.80045e-05
0.000101357
1.98766e-06
5.19236e-06
-9.39072e-09
6.06095e-09
-1.00635e-11
-8.92735e-14
-2.62196e-16
-1.0452e-18
-4.33784e-21
5.10011e-24
-1.05537e-05
3.2229e-05
2.18268e-05
6.48415e-05
5.4803e-05
9.70839e-05
8.83607e-05
0.000128028
0.000122908
0.000156436
0.000158296
0.000180417
0.00019484
0.00019716
0.000233768
0.000202398
0.000237161
6.58705e-05
9.18954e-05
4.10657e-06
5.42073e-06
2.01812e-08
9.83393e-09
-7.2235e-12
-5.56982e-13
-3.77915e-16
-8.31849e-18
-8.99861e-21
-2.09867e-23
-4.23879e-05
3.18342e-05
-1.04947e-05
6.45505e-05
2.21329e-05
9.75116e-05
5.54859e-05
0.000129959
8.98336e-05
0.000161102
0.000125117
0.000189615
0.000161661
0.000213596
0.000200918
0.00023001
0.000205548
7.63915e-05
7.62649e-05
5.2172e-06
4.78917e-06
5.71535e-08
1.12077e-08
1.94607e-11
-1.40936e-12
-2.84987e-16
-2.64392e-17
-1.35174e-20
-1.35422e-22
-7.35727e-05
3.11849e-05
-4.24264e-05
6.37659e-05
-1.03723e-05
9.70556e-05
2.25594e-05
0.000130438
5.6486e-05
0.000163306
9.13886e-05
0.000194831
0.000127484
0.000223792
0.000166305
0.000248209
0.000172527
8.00772e-05
6.07288e-05
5.36099e-06
3.3213e-06
6.67507e-08
9.53169e-09
6.5079e-11
-1.30766e-12
1.26534e-15
-7.07064e-17
-1.06297e-20
-4.17252e-22
-0.000103837
3.02647e-05
-7.37258e-05
6.24842e-05
-4.24986e-05
9.58923e-05
-1.01758e-05
0.000129791
2.31668e-05
0.000163757
5.75576e-05
0.000197137
9.30137e-05
0.000229301
0.000130963
0.000259134
0.000139967
7.95e-05
4.64813e-05
4.90145e-06
2.14671e-06
5.49758e-08
5.16588e-09
6.59968e-11
-8.20312e-13
4.25949e-15
-7.20018e-17
4.9603e-20
-1.18361e-21
-0.000132881
2.90437e-05
-0.000104132
6.06708e-05
-7.40244e-05
9.401e-05
-4.25493e-05
0.000128266
-9.92559e-06
0.000162883
2.38771e-05
0.000197438
5.86564e-05
0.000231495
9.55372e-05
0.000264726
0.000108728
7.66805e-05
3.4347e-05
4.20499e-06
1.33283e-06
3.95823e-08
2.47242e-09
4.368e-11
-3.34377e-13
3.75542e-15
-4.70877e-17
1.63999e-19
-1.15086e-21
-0.000160362
2.74809e-05
-0.000133348
5.82596e-05
-0.000104701
9.13477e-05
-7.43757e-05
0.000125836
-4.26793e-05
0.000161019
-9.51616e-06
0.000196277
2.45999e-05
0.000231494
6.04009e-05
0.000266631
7.89437e-05
7.31615e-05
2.44112e-05
3.5376e-06
8.00508e-07
2.70005e-08
1.09045e-09
2.43406e-11
-1.16372e-13
2.04154e-15
-1.86806e-17
1.55077e-19
-7.81216e-22
-0.000185906
2.55436e-05
-0.000161027
5.51605e-05
-0.00013424
8.77986e-05
-0.000105431
0.000122403
-7.49537e-05
0.000158111
-4.26052e-05
0.000194108
-9.08784e-06
0.000229964
2.57145e-05
0.000266181
5.02919e-05
6.99683e-05
1.63779e-05
3.00251e-06
4.70714e-07
1.85005e-08
4.58241e-10
1.28032e-11
-3.98384e-14
1.09673e-15
-6.2838e-18
9.58969e-20
-3.1656e-22
-0.000209119
2.3214e-05
-0.00018679
5.13065e-05
-0.000162302
8.32224e-05
-0.000135439
0.000117806
-0.000106558
0.000154007
-7.53207e-05
0.000190826
-4.25148e-05
0.000227535
-8.50374e-06
0.000264183
2.22528e-05
6.76918e-05
9.80312e-06
2.62411e-06
2.69807e-07
1.31932e-08
1.9417e-10
6.88116e-12
-1.42065e-14
5.50547e-16
-1.96682e-18
4.98074e-20
-1.00821e-22
-0.000229612
2.04922e-05
-0.000210236
4.666e-05
-0.000188499
7.75038e-05
-0.000164056
0.00011184
-0.000137233
0.000148481
-0.000107516
0.000186203
-7.56879e-05
0.000224
-4.25214e-05
0.000261553
-5.55891e-06
6.64934e-05
4.17416e-06
2.39612e-06
1.4417e-07
1.00648e-08
8.51359e-11
3.98185e-12
-5.41685e-15
2.81634e-16
-6.19988e-19
2.38943e-20
-2.8942e-23
-0.00024702
1.74076e-05
-0.000230961
4.12164e-05
-0.000212415
7.05754e-05
-0.000190884
0.000104332
-0.000166638
0.000141245
-0.000138958
0.000179923
-0.00010852
0.000219035
-7.64271e-05
0.000257905
-3.32229e-05
6.66007e-05
-1.15924e-06
2.31503e-06
5.6124e-08
8.44526e-09
3.65112e-11
2.58257e-12
-2.37736e-15
1.55935e-16
-2.08817e-19
1.16625e-20
-8.34914e-24
-0.00026105
1.40303e-05
-0.000248585
3.50323e-05
-0.000233621
6.24228e-05
-0.000215484
9.51749e-05
-0.000194363
0.000132056
-0.000169311
0.000171598
-0.000140817
0.00021222
-0.000110156
0.000252763
-6.10645e-05
6.78032e-05
-6.59868e-06
2.36407e-06
-1.84069e-08
7.93505e-09
1.04485e-11
1.96465e-12
-1.31254e-15
9.78943e-17
-8.08827e-20
6.20276e-21
-2.61127e-24
-0.0002715
1.04504e-05
-0.00026279
2.82352e-05
-0.000251714
5.31249e-05
-0.000237391
8.43305e-05
-0.00021994
0.000120752
-0.000198149
0.000160894
-0.000172254
0.000203036
-0.00014352
0.000245584
-8.9375e-05
6.97787e-05
-1.26142e-05
2.5368e-06
-1.00066e-07
8.34952e-09
-1.19133e-11
1.79528e-12
-9.97401e-16
7.32651e-17
-3.99673e-20
3.79032e-21
-9.65132e-25
-0.000278266
6.76603e-06
-0.000273324
2.0984e-05
-0.000266352
4.28727e-05
-0.000256149
7.18819e-05
-0.000242859
0.000107249
-0.000224975
0.000147578
-0.00020239
0.00019103
-0.000176222
0.000235739
-0.00011846
7.22017e-05
-1.97198e-05
2.84398e-06
-2.12791e-07
9.74224e-09
-4.01087e-11
1.96198e-12
-1.09718e-15
6.68209e-17
-2.75795e-20
2.80437e-21
-4.96729e-25
-0.000281313
3.04681e-06
-0.00028003
1.34719e-05
-0.000277293
3.19257e-05
-0.000271351
5.80752e-05
-0.000262594
9.16168e-05
-0.000249216
0.00013149
-0.000230686
0.000175875
-0.000207858
0.000222666
-0.000148416
7.45275e-05
-2.82657e-05
3.27832e-06
-3.82801e-07
1.2396e-08
-8.76619e-11
2.52556e-12
-1.34377e-15
7.36066e-17
-2.66227e-20
2.55722e-21
-4.00847e-25
-0.000280667
-6.46324e-07
-0.000282906
5.92329e-06
-0.000284444
2.06222e-05
-0.000282679
4.3254e-05
-0.000278682
7.41632e-05
-0.000270236
0.000112636
-0.000256503
0.000157307
-0.000237899
0.000205915
-0.000179054
7.60996e-05
-3.84478e-05
3.82355e-06
-6.49443e-07
1.68045e-08
-1.87122e-10
3.7393e-12
-1.62936e-15
9.6392e-17
-2.83594e-20
2.83608e-21
-4.34733e-25
-0.000276672
-3.99461e-06
-0.000282502
-1.05049e-06
-0.000287793
9.27298e-06
-0.000289875
2.78185e-05
-0.000290804
5.5376e-05
-0.000287437
9.13649e-05
-0.000279063
0.000135196
-0.000265664
0.000185073
-0.000209853
7.61798e-05
-5.0337e-05
4.44604e-06
-1.06208e-06
2.35761e-08
-4.07955e-10
6.17442e-12
-2.13486e-15
1.47025e-16
-2.66108e-20
3.76507e-21
-5.00421e-25
-7.33334e-06
-0.000269339
-0.00027841
-8.08608e-06
-0.000286633
-2.21121e-06
-0.000292791
1.21884e-05
-0.000298815
3.58297e-05
-0.000300397
6.83362e-05
-0.000297609
0.000109911
-0.000290141
0.000159673
-0.000239924
7.39604e-05
-6.38199e-05
5.07137e-06
-1.68478e-06
3.36068e-08
-9.03598e-10
1.0862e-11
-2.25226e-15
2.53121e-16
-4.31437e-21
5.88695e-21
-6.03471e-25
-1.46136e-05
-0.00027113
-2.8053e-05
-0.000241286
-0.000282198
-1.25208e-05
-0.000292558
-2.44342e-06
-0.000302757
1.61307e-05
-0.000308718
4.41508e-05
-0.000311751
8.24773e-05
-0.00031005
0.000129821
-0.00026792
6.85677e-05
-7.85383e-05
5.58164e-06
-2.58576e-06
4.75452e-08
-1.95803e-09
1.9726e-11
-3.3371e-16
4.6772e-16
1.18598e-19
1.05201e-20
-6.14855e-25
-2.21455e-05
-0.000274666
-5.61303e-05
-0.000243053
-3.75932e-05
-0.000203692
-0.000288069
-1.70104e-05
-0.000301333
-3.86753e-06
-0.000311845
1.92571e-05
-0.000321249
5.3649e-05
-0.000325192
9.76188e-05
-0.000292418
5.93796e-05
-9.36847e-05
5.8041e-06
-3.80923e-06
6.50334e-08
-4.0515e-09
3.58513e-11
9.62511e-15
8.93613e-16
6.06081e-19
2.03603e-20
3.95554e-25
-3.00513e-05
-0.000280163
-8.47554e-05
-0.000246041
-7.49589e-05
-0.000205687
-4.34465e-05
-0.000160246
-0.000296362
-2.19817e-05
-0.000311651
-4.0617e-06
-0.000326405
2.44132e-05
-0.00033476
6.32176e-05
-0.000312369
4.70544e-05
-0.000108495
5.57215e-06
-5.34427e-06
8.35386e-08
-7.87816e-09
6.30573e-11
4.81197e-14
1.70237e-15
2.31238e-18
4.08578e-20
6.23511e-24
-3.85425e-05
-0.000287871
-0.000114185
-0.000250733
-0.000113178
-0.000207822
-8.50681e-05
-0.000164066
-5.31159e-05
-0.00010713
-0.000306296
-2.73362e-05
-0.000324601
-5.86579e-06
-0.000338395
2.8048e-05
-0.00032486
3.15623e-05
-0.000122171
4.82758e-06
-7.18615e-06
9.80113e-08
-1.41143e-08
1.03155e-10
1.86534e-13
3.65234e-15
7.79234e-18
8.14101e-20
3.12562e-23
-4.79146e-05
-0.000296924
-0.000145294
-0.000256762
-0.000151929
-0.000211982
-0.000126731
-0.00016616
-9.93444e-05
-0.000117837
-6.22078e-05
-4.49223e-05
-0.000318503
-3.34339e-05
-0.000339151
-4.76219e-06
-0.000329709
1.43539e-05
-0.00013082
3.46202e-06
-9.06582e-06
9.9699e-08
-2.3134e-08
1.48916e-10
6.30298e-13
7.71574e-15
2.49756e-17
1.58989e-19
1.22953e-22
-5.85579e-05
-0.000307859
-0.000178633
-0.000263585
-0.000192564
-0.000216127
-0.000166973
-0.00017174
-0.000141357
-0.000124147
-0.000111934
-6.81107e-05
-0.000116354
7.14313e-05
-0.000332682
-3.72669e-05
-0.000327031
-3.13719e-06
-0.000133433
1.62192e-06
-9.65549e-06
7.13158e-08
-3.36914e-08
1.74333e-10
1.80216e-12
1.37392e-14
7.88105e-17
3.0992e-19
4.19194e-22
-6.54184e-05
-0.000321158
-0.000214707
-0.000271755
-0.000236111
-0.000220038
-0.0002075
-0.000175599
-0.000176234
-0.000136862
-0.000151297
-8.47848e-05
-0.00020278
1.83157e-05
-0.000133281
0.000204712
-0.000318959
-2.34615e-05
-0.000128761
-3.94702e-07
-9.32466e-06
1.95591e-08
-3.50128e-08
1.31291e-10
3.95622e-12
1.83161e-14
2.13773e-16
5.30999e-19
1.2861e-21
-3.83559e-05
-0.000308283
-0.000231896
-0.000283915
-0.000282931
-0.000224688
-0.000249775
-0.000177762
-0.000207987
-0.000143847
-0.000180022
-0.000108137
-0.000248197
-3.9368e-05
-0.000238821
0.000123856
-0.000210766
0.000415478
-0.000115666
-1.84114e-06
-7.5976e-06
-1.49271e-08
-3.13329e-08
2.10491e-11
5.70354e-12
1.44946e-14
4.36072e-16
6.87314e-19
3.36913e-21
-2.55419e-06
-9.92936e-05
-0.000111777
-0.000261131
-0.000292015
-0.000236183
-0.00029355
-0.000180088
-0.000239912
-0.000145835
-0.000203715
-0.000120155
-0.000255341
-0.000100993
-0.000283943
5.75332e-06
-0.000355614
0.000268705
-0.000102926
0.000518404
-5.67505e-06
-2.36741e-08
-2.15754e-08
-2.18942e-11
5.95536e-12
2.14717e-15
5.5374e-16
5.2887e-19
6.71611e-21
-2.36649e-08
-4.13971e-06
-6.07276e-06
-4.86617e-05
-9.02434e-05
-0.000194157
-0.00027926
-0.000190867
-0.000270662
-0.000147576
-0.000221576
-0.000127966
-0.000244114
-0.000131381
-0.000286596
-9.8339e-05
-0.000432533
8.26725e-05
-0.00022883
0.000394609
0.000184061
0.000334343
-1.30149e-08
-2.90802e-11
3.41921e-12
-1.43606e-15
5.22771e-16
7.42908e-20
8.79443e-21
-2.49601e-11
-7.91059e-09
-5.17334e-08
-1.30286e-06
-3.1821e-06
-1.67523e-05
-5.19378e-05
-0.000128384
-0.000233513
-0.000154176
-0.000233343
-0.000132981
-0.000227975
-0.000144085
-0.000258722
-0.000159256
-0.000405294
-0.000125578
-0.000296035
0.000149877
0.000254961
0.000323709
0.00140801
0.000449119
-0.00152279
1.79457e-12
-1.86704e-15
2.90288e-16
-5.49708e-20
8.0422e-21
-1.59414e-15
1.01089e-12
-3.49342e-11
-2.09653e-09
-2.32702e-08
-2.9972e-07
-1.28008e-06
-3.93258e-06
-2.72102e-05
-8.0325e-05
-0.000179315
-0.000132242
-0.000208809
-0.000148158
-0.000218444
-0.00018433
-0.000327346
-0.000237204
-0.000278374
-0.000143239
0.000237641
0.000167197
0.00131237
0.000419348
0.00171557
0.000560997
-0.00182744
0.000273983
-0.00179677
1.65573e-16
-7.00248e-20
4.27638e-21
-6.03337e-20
8.93045e-17
-1.49622e-15
1.12602e-13
-1.44895e-11
-5.52636e-10
-7.20083e-09
-7.03101e-08
-5.09852e-07
1.30613e-08
-1.42758e-05
-5.10262e-05
-0.000135928
-0.000133914
-0.000175126
-0.000187113
-0.000240302
-0.000271337
-0.000225203
-0.000290375
0.000144766
-5.03645e-05
0.00118829
0.000291272
0.00153539
0.00059953
0.00173029
0.000739852
-0.00190913
0.000414754
-0.00196821
0.000192962
-0.00198973
2.44026e-21
1.25195e-21
-4.92269e-20
9.38393e-18
-5.91545e-16
-3.64978e-14
-3.98759e-12
-1.90786e-10
-2.11642e-09
-2.13464e-08
-2.22168e-07
1.02133e-06
-7.7642e-06
-3.82764e-05
-9.80953e-05
-0.000150486
-0.000167782
-0.000255328
-0.000161167
-0.000335368
0.000112015
-0.000257624
0.00101032
0.000127607
0.00131911
0.000507552
0.00153937
0.000790445
0.00174419
0.00101512
-0.00201945
0.000617971
-0.00211235
0.000329194
-0.00210445
0.000115776
-0.00210549
1.15335e-22
-1.89737e-20
8.65056e-19
-1.52177e-16
-2.75925e-14
-9.80779e-13
-7.77951e-11
-6.92905e-10
-7.71079e-09
-1.09269e-07
1.32493e-06
-4.31511e-06
-3.29152e-05
-8.30493e-05
-0.000180761
-0.000115987
-0.000299026
0.000120444
-0.000343798
0.000790325
-3.76294e-05
0.00110266
0.000344053
0.00128588
0.000761051
0.00147132
0.00106332
0.00181932
0.0013241
-0.0021283
0.000851037
-0.00225252
0.00044742
-0.00223059
0.000189702
-0.00217838
6.11543e-05
-0.00216662
8.60739e-24
-4.57432e-21
-3.21361e-19
-3.5123e-17
-1.08033e-14
-2.56815e-13
-3.27649e-11
-2.57635e-10
-2.02381e-09
-6.13748e-08
1.59338e-06
-2.6194e-06
-3.58694e-05
-6.78358e-05
-0.00019111
5.17998e-05
-0.000230388
0.000529389
-8.28612e-05
0.000815473
0.00024956
0.00100459
0.00062533
0.00120871
0.00102365
0.00147859
0.00140405
0.00177937
0.00161063
-0.00206589
0.00101712
-0.00229439
0.000543204
-0.0023483
0.000257443
-0.00229833
0.00010777
-0.002225
1.95168e-05
-0.00218617
-4.39412e-24
-1.00257e-21
-1.79183e-19
-8.39981e-18
-3.45039e-15
-7.17516e-14
-1.30062e-11
-1.0604e-10
6.87431e-10
-3.21766e-08
1.51737e-06
-1.96566e-06
-3.30564e-05
-3.41618e-05
-9.97707e-05
0.000272714
2.62862e-05
0.000449535
0.000283077
0.00070911
0.000545045
0.000911957
0.00092208
0.00114097
0.00136128
0.00142683
0.00175658
0.00160091
0.000455007
-0.00184108
0.000454782
0.000470119
0.00047098
0.00110456
-0.00215329
0.000559206
-0.00231039
0.000277328
-0.00236819
0.000116842
-0.0023074
2.59902e-05
-0.00223148
-1.39898e-05
-0.00217219
-2.07806e-24
-2.21918e-22
-5.96105e-20
-2.05092e-18
-9.81742e-16
-2.10594e-14
-4.60172e-12
-3.96188e-11
1.236e-09
-1.78411e-08
1.39394e-06
-1.70762e-06
-9.21301e-06
3.2645e-05
0.000133707
0.000174918
0.000300903
0.000436054
0.000556133
0.000661672
0.000795334
0.000799617
0.00126343
0.00113316
0.00165495
0.00122609
0.0021314
-6.57877e-07
0.000369657
-0.000390442
0.000476529
0.000327419
-0.00196276
0.000327131
0.000285704
0.000286594
0.000370961
-0.00038994
0.000473181
-4.20713e-07
0.000322776
0.000517436
0.000325567
0.00051597
0.000506723
-0.00210075
0.000202199
-0.00223526
7.5187e-05
-0.00232654
5.41998e-06
-0.00228683
-3.59849e-05
-0.00220948
-5.18809e-05
-0.00212031
-6.08757e-25
-4.81032e-23
-1.66137e-20
-5.11951e-19
-2.63641e-16
-5.72862e-15
-1.08325e-12
-1.43232e-11
4.1564e-10
-8.41114e-09
1.04625e-06
-1.1788e-06
5.45505e-05
1.08817e-05
0.000281842
0.000202862
0.000534095
0.000462182
0.000755624
0.00046029
0.00113466
0.000848107
0.00154847
0.000868502
0.00201254
-0.000265652
-0.000265397
0.000881298
0.000607471
0.000603038
0.000609315
0.000609685
-9.32329e-07
-0.000428089
0.000366262
-2.2315e-07
0.000297029
-0.000335547
0.000515383
-0.00188991
0.000435064
-0.000426594
0.000363121
-7.65639e-07
-0.000433316
0.000292059
-0.000430626
0.000290228
0.000293986
-0.000332222
0.000511309
-4.16581e-08
0.000548876
0.000544535
-2.20169e-05
-0.00187653
-7.07514e-05
-0.00208932
-7.45612e-05
-0.00224655
-9.0206e-05
-0.00223261
-0.000113772
-0.00214759
-8.4176e-05
-0.00203613
-1.45817e-25
-1.03091e-23
-4.2838e-21
-1.20897e-19
-6.09314e-17
-1.44989e-15
-3.73366e-13
-4.46589e-12
-3.80012e-11
-2.26536e-09
7.37252e-07
-7.215e-07
8.52304e-05
2.60961e-05
0.000446076
0.000250962
0.000745316
0.000227808
0.000988107
0.00054551
0.00143726
0.00059821
0.00181876
0.00060134
0.000586106
0.000584212
0.000563176
0.000559008
-1.53245e-08
0.00013399
-0.000152668
0.000626167
0.000134414
-0.00015327
0.000621882
-6.21931e-07
0.000119663
0.000624263
0.000119985
0.000623492
-9.69129e-07
-0.00038302
0.000415088
1.32503e-06
0.000209448
-0.000249678
0.000158898
0.000112028
0.000149723
0.000133843
-0.00166063
-0.000250792
0.000411165
0.000408628
-0.00181616
0.000117405
0.000116623
0.000168538
0.000166551
-0.000379721
0.00041004
-8.96263e-07
0.000321586
0.00031873
0.000210212
-0.000247087
0.000157679
0.000111992
0.000147979
0.00013207
1.29559e-06
0.000168475
0.000132001
0.000166399
0.000137499
0.000167392
0.000133752
0.000164756
0.000136897
-0.000324096
-0.0016233
-0.000211817
-0.00195207
-0.000198919
-0.00213784
-0.000204814
-0.00214157
-0.0001757
-0.00205607
-0.000117803
-0.00191833
-3.01612e-26
-1.97782e-24
-1.18493e-21
-2.9397e-20
-2.07575e-17
-3.02032e-16
-1.61661e-13
-9.5527e-13
-1.09004e-10
-9.04846e-10
6.87452e-07
-5.83663e-07
0.000117523
1.51916e-05
0.000658487
7.7184e-05
0.000895728
0.000268207
0.00126541
0.00034665
0.00168882
0.000392362
0.000499017
0.000497208
0.000516329
0.000515187
-3.6628e-07
9.16701e-05
0.000614466
9.01825e-05
0.000613649
-2.1556e-07
6.31876e-05
0.000591874
6.03401e-05
0.000588635
-7.63701e-08
4.31948e-05
-3.2461e-05
-1.24541e-05
0.00013632
-2.39377e-05
0.000188242
0.000141835
0.000188121
-2.64715e-06
4.16785e-05
-3.23882e-05
-1.19766e-05
-2.37331e-05
0.000135799
0.000186755
0.000141014
0.000187138
-2.48022e-06
5.17963e-07
1.35271e-05
0.000140664
0.000183582
0.000142699
0.000186418
1.31096e-05
0.000140672
0.000183199
0.000142749
0.000185959
-7.81478e-07
-0.000285073
0.000129945
9.50255e-05
0.000130473
9.63728e-05
-3.58407e-05
1.1113e-05
2.33333e-07
3.07e-05
0.000152692
-8.5339e-06
3.20614e-05
-3.23747e-05
0.000120894
-2.09069e-07
-4.07482e-05
0.000146306
3.1949e-05
0.000145086
-0.00139996
-0.000586205
-0.00170453
-0.000139019
-0.000135332
-4.6134e-05
-4.26001e-05
-2.03097e-06
0.000293651
-0.000266076
9.20552e-05
0.00029494
-0.000270357
9.02809e-05
-2.18801e-06
0.000301629
0.000163088
0.000300129
0.000159523
-0.000281424
0.000127953
9.40297e-05
0.000128486
9.3656e-05
-1.88929e-06
0.000105545
6.59682e-05
9.46595e-05
7.44454e-05
0.000103555
6.64123e-05
9.27469e-05
7.33709e-05
-3.48999e-05
1.1097e-05
3.02097e-05
0.000151506
-8.08971e-06
3.14647e-05
-3.17201e-05
0.000120357
-4.01022e-05
0.000144882
3.13311e-05
0.000143317
2.53048e-05
1.0794e-05
4.86125e-07
0.00016259
-1.43763e-05
-3.16671e-05
0.000145585
1.63873e-07
0.000164707
0.000148583
2.52363e-05
1.11694e-05
0.000161682
-1.41876e-05
-3.15928e-05
0.000147146
0.000163992
0.000147807
-0.000431388
-0.00140374
-0.00034621
-0.00180478
-0.000358161
-0.00198449
-0.00029228
-0.00202499
-0.000233415
-0.00194046
-0.000153068
-0.00176526
-5.99944e-27
-3.56774e-25
-4.83519e-22
-6.59578e-21
-8.43413e-18
-4.8005e-17
-6.32087e-14
-2.82048e-13
-6.88364e-11
-3.37471e-10
5.86855e-07
-5.97023e-07
0.000128319
-2.7528e-05
0.000720816
3.35711e-05
0.00112965
0.000112677
0.00149939
0.000205348
0.000462406
0.000462098
0.000476298
0.000475031
2.597e-07
2.93098e-05
0.000532635
2.78978e-05
0.000529909
1.4911e-07
2.14885e-05
0.000524001
2.19623e-05
0.000521272
1.02267e-06
5.03682e-06
0.000135321
0.000176297
0.000135732
0.000174546
4.43369e-06
0.000135966
0.000176173
0.000137089
0.00017411
1.65985e-06
-6.02431e-06
0.000126892
0.000168716
0.000133675
0.000171999
-6.92867e-06
0.000127876
0.000167905
0.000134747
0.00017115
-2.27145e-06
-5.87043e-06
-1.08616e-05
0.000155323
-2.08185e-06
-1.85327e-05
0.000142262
-1.31196e-05
-7.44081e-08
0.000190928
8.27102e-06
-5.07443e-06
-9.31998e-06
0.000150359
-2.8731e-08
-1.09215e-05
0.000180894
1.6627e-08
-7.15109e-06
0.000167094
-2.52785e-06
-1.88414e-05
0.000144783
-2.09772e-06
-5.42434e-06
-1.17014e-05
0.000155023
-1.36497e-05
8.76507e-06
0.000189467
-4.80504e-06
-9.32784e-06
0.000149722
-1.14274e-05
0.000180082
-7.18449e-06
0.000166185
-7.12801e-06
1.11036e-05
-1.24491e-05
0.000149138
9.53422e-06
-1.69302e-08
-8.57222e-06
0.000175508
-5.88462e-06
0.000150367
4.50446e-09
0.000179174
-7.02024e-06
1.10921e-05
-1.28644e-05
0.000149465
9.97133e-06
-9.14427e-06
0.000175335
-5.77178e-06
0.000150285
0.000178736
4.8328e-05
8.68003e-06
-5.7211e-07
-5.34026e-05
0.000126912
-6.91333e-06
-4.06585e-05
0.000110268
-2.96455e-07
0.000131436
-4.32339e-05
0.000107682
-2.11703e-05
1.95083e-06
-6.15367e-08
1.25537e-05
0.00015942
-4.02977e-07
1.43498e-05
-1.81084e-05
0.000125069
-2.6374e-07
-2.9471e-05
0.000154449
1.49599e-05
0.000146439
-0.00115688
-0.000674716
-0.0013533
-0.000254366
-0.000251958
-0.000217905
-0.000214503
2.49101e-08
0.000263136
-0.00025908
-0.000143171
0.000267629
-0.000263077
-0.000139908
-1.00615e-06
-4.80842e-05
-4.63072e-05
-2.02122e-06
0.000209279
-0.000206624
-5.73916e-08
3.81505e-05
1.24405e-05
4.11144e-05
0.000220978
-0.000218404
-2.46361e-06
3.70328e-05
1.0978e-05
4.04127e-05
-3.36773e-06
4.00953e-05
6.5652e-05
4.84476e-05
1.98738e-05
6.40805e-05
2.82826e-05
5.16752e-05
5.79821e-05
4.08761e-05
6.7551e-05
4.66697e-05
2.19598e-05
6.21727e-05
2.68376e-05
5.08409e-05
6.05261e-05
4.82137e-05
8.01756e-06
-5.38396e-05
0.000124989
-6.33062e-06
-3.99796e-05
0.000108667
0.000129971
-4.30622e-05
0.000104807
-5.95764e-05
1.01836e-05
-7.99495e-07
0.000102334
-1.47241e-05
4.75577e-05
7.32746e-05
-9.74561e-07
8.69687e-05
8.901e-05
-6.06917e-05
9.28813e-06
0.000100319
-1.33878e-05
4.79688e-05
7.27571e-05
8.52439e-05
8.76193e-05
-2.099e-05
1.71398e-06
1.26246e-05
0.000158095
-1.13018e-07
1.38499e-05
-1.77639e-05
0.0001244
-2.8842e-05
0.000152358
1.51736e-05
0.000143722
2.95005e-06
1.15598e-07
0.000164947
0.000147967
3.0762e-06
0.000164161
0.000147221
-0.000477647
-0.0012723
-0.000539857
-0.00162308
-0.000465692
-0.00181108
-0.000372245
-0.00188616
-0.000298235
-0.00179529
-0.000197678
-0.00156758
-1.36798e-27
-4.99302e-26
-2.64079e-22
-1.28649e-21
-2.62264e-18
-8.64553e-18
-2.667e-14
-6.16715e-14
-2.37675e-11
-7.0196e-11
2.50825e-07
-3.24217e-07
9.72454e-05
-2.8644e-05
0.000733123
-7.22011e-05
0.00131072
-8.71717e-06
0.000415407
0.000414173
0.000441955
0.000441824
2.2306e-07
1.67486e-05
0.000466923
1.73823e-05
0.000466901
7.90309e-08
1.63903e-06
0.000491329
2.17946e-06
0.000490313
1.91741e-06
-1.49921e-05
0.000114058
0.000151471
0.000119606
0.000154587
-1.55037e-05
0.000115487
0.000150657
0.000120682
0.000153568
1.94227e-06
-2.23125e-05
0.000115799
0.000146416
0.000115978
0.000151156
-2.44719e-05
0.000117686
0.000145871
0.000117792
0.000150806
-7.47587e-06
-1.43421e-05
0.00014469
-1.09383e-05
7.0683e-08
0.000171133
-7.74412e-06
-1.57255e-05
0.000144865
4.05964e-08
-1.12032e-05
0.000167063
-7.22808e-06
-1.49789e-05
0.000145309
-1.13779e-05
0.000171249
-7.35007e-06
-1.65486e-05
0.000146008
-1.15119e-05
0.000166924
-8.01068e-06
1.54625e-05
-1.49275e-05
0.000134363
1.23406e-05
1.31262e-07
-1.26113e-05
0.000160867
-7.99701e-06
0.000141404
-1.32452e-08
0.000165133
-7.8589e-06
1.63674e-05
-1.59657e-05
0.000135333
1.27886e-05
-1.29988e-05
0.000160396
-7.77021e-06
0.000142336
0.000164654
-1.36388e-06
-2.45788e-06
2.45563e-07
-2.94512e-05
-3.64182e-05
-2.02117e-08
-3.34675e-08
8.22594e-06
2.0846e-07
-1.20087e-05
-1.13743e-08
-1.21519e-05
-1.71525e-06
-2.12909e-06
3.10903e-07
-2.92306e-05
8.27043e-06
-3.65188e-05
2.70341e-07
-1.20829e-05
-1.24081e-05
3.37017e-07
1.32233e-05
-1.22057e-05
1.03786e-05
-4.84171e-08
-9.70024e-06
1.54519e-07
-1.97477e-08
4.01966e-07
1.32681e-05
-1.24049e-05
1.05735e-05
-9.84798e-06
1.44946e-07
3.42973e-05
2.2067e-06
-8.09856e-07
-4.27129e-05
0.000133945
-4.40796e-07
-1.79366e-05
0.000110571
-4.56473e-07
0.000136294
-1.96444e-05
0.000111635
-4.07298e-06
1.28444e-06
-2.55609e-08
-2.4834e-06
-2.31583e-06
-2.20109e-06
2.00429e-06
-1.17941e-07
-5.76245e-06
-1.47808e-06
-0.000984533
-0.000650004
-0.00108814
-0.000234229
-0.0002341
-0.000236528
-0.000235995
9.57777e-08
0.000238682
-0.000212783
-0.000280025
0.000241327
-0.000214901
-0.000277995
3.69395e-07
-0.000238546
-0.000235752
9.00346e-07
0.000219336
-0.000230026
-5.33747e-05
-2.70293e-05
-4.10919e-05
-1.19933e-05
0.000228491
-0.000236909
-5.19347e-05
-2.67587e-05
-3.92491e-05
-1.26811e-05
-9.62398e-07
-2.2207e-05
1.44194e-05
-3.03069e-05
3.75376e-06
-2.28521e-05
1.30294e-05
-2.83177e-05
1.03006e-06
-6.12195e-06
1.3201e-05
-1.27672e-05
5.63102e-06
4.34398e-05
-6.14175e-07
-3.1903e-05
2.11593e-05
-6.13093e-06
1.06134e-05
2.11691e-05
-3.3655e-07
3.74734e-05
4.12865e-05
-5.82862e-06
1.68649e-05
-1.76832e-05
4.18554e-06
4.5824e-05
-3.30043e-05
1.77703e-05
-5.46641e-06
1.38187e-05
1.94998e-05
4.01324e-05
4.03013e-05
-3.58673e-06
-8.52763e-06
-1.42445e-06
6.20128e-05
-6.69872e-06
2.06526e-05
7.92265e-05
-3.01001e-05
-4.90758e-07
6.54139e-05
2.57092e-05
-7.97214e-06
3.83587e-05
-3.07306e-07
5.13837e-05
-1.29646e-06
4.97206e-05
8.98087e-05
-2.66762e-06
-1.1211e-05