/*--------------------------------*- C++ -*----------------------------------*\
| =========                 |                                                 |
| \\      /  F ield         | OpenFOAM: The Open Source CFD Toolbox           |
|  \\    /   O peration     | Version:  5.x                                   |
|   \\  /    A nd           | Web:      www.OpenFOAM.org                      |
|    \\/     M anipulation  |                                                 |
\*---------------------------------------------------------------------------*/
FoamFile
{
    version     2.0;
    format      ascii;
    class       volScalarField;
    location    "1.4";
    object      alpha.water;
}
// * * * * * * * * * * * * * * * * * * * * * * * * * * * * * * * * * * * * * //

dimensions      [0 0 0 0 0 0 0];

internalField   nonuniform List<scalar> 
12160
(
1
1
1
1
1
1
1
1
1
1
1
1
1
1
1
1
1
1
1
1
1
1
1
1
1
1
1
1
1
1
1
1
1
1
1
1
1
1
1
1
1
1
1
0.999614
0.62018
1
1
1
1
1
1
1
0.998634
0.655884
0.0270289
1
1
1
1
1
1
0.999998
0.996648
0.656854
0.0260796
0.000889291
1
1
1
1
1
1
0.999993
0.993282
0.660299
0.0333684
1.22032e-05
7.89778e-06
1
1
1
1
1
1
0.999984
0.989333
0.64722
0.042127
6.55876e-05
4.18241e-07
7.21991e-09
1
1
1
1
1
1
0.999978
0.985722
0.623843
0.0512783
0.000113468
7.39323e-08
9.58418e-13
5.03191e-13
1
1
1
1
1
1
0.999982
0.983949
0.604618
0.0514838
0.000240559
7.85537e-08
4.4419e-12
1.59478e-14
8.36878e-18
1
1
1
1
1
1
0.999993
0.985541
0.601416
0.0498279
0.000354786
2.46062e-07
8.08206e-12
9.9041e-17
9.3145e-23
1
1
1
1
1
1
0.999999
0.989974
0.617565
0.0529524
0.000488728
5.03966e-07
4.62342e-11
2.63021e-16
1.44034e-21
1
1
1
1
1
1
1
0.994951
0.649837
0.0623497
0.000681157
9.83956e-07
1.21824e-10
1.57735e-15
4.53188e-21
1
1
1
1
1
1
1
0.998616
0.686556
0.0794965
0.00102101
1.82365e-06
3.19153e-10
4.10564e-15
3.48211e-20
1
1
1
1
1
1
1
0.999987
0.716913
0.104849
0.00165609
3.49473e-06
6.96947e-10
1.18262e-14
1.01697e-19
1
1
1
1
1
1
1
1
0.736167
0.132952
0.00280729
6.89929e-06
1.54946e-09
2.64649e-14
3.41881e-19
1
1
1
1
1
1
1
1
0.742557
0.152493
0.00455047
1.34985e-05
3.35344e-09
6.16388e-14
8.06043e-19
1
1
1
1
1
1
1
1
0.735251
0.157837
0.00634524
2.44092e-05
6.9967e-09
1.35392e-13
2.01289e-18
1
1
1
1
1
1
1
1
0.715466
0.153165
0.00721029
3.81764e-05
1.34636e-08
2.84597e-13
4.58766e-18
1
1
1
1
1
1
1
1
0.687508
0.139923
0.00693529
4.96125e-05
2.29927e-08
5.55096e-13
1.00364e-17
1
1
1
1
1
1
1
1
0.65501
0.123113
0.00576447
4.74957e-05
3.41783e-08
1.00574e-12
2.02832e-17
1
1
1
1
1
1
1
1
0.62168
0.105939
0.00440075
3.49582e-05
3.2591e-08
1.68027e-12
3.76124e-17
1
1
1
1
1
1
1
1
0.590609
0.0903799
0.00324563
2.23012e-05
2.09737e-08
1.63374e-12
6.2855e-17
1
1
1
1
1
1
1
1
0.564264
0.0775706
0.00237104
1.347e-05
1.0902e-08
9.75458e-13
6.2482e-17
1
1
1
1
1
1
1
1
0.544455
0.0678853
0.00176488
8.0671e-06
5.16622e-09
4.73968e-13
3.92842e-17
0.999999
0.999999
0.999999
1
1
1
1
1
0.53231
0.0612716
0.00137011
5.00479e-06
2.41301e-09
2.15579e-13
1.94268e-17
0.999999
0.999999
0.999999
0.999999
1
1
1
1
0.528319
0.0574949
0.00112896
3.32496e-06
1.18546e-09
9.59509e-14
8.52073e-18
1
1
0.999999
0.999999
0.999999
1
1
1
0.532329
0.0563376
0.00100078
2.42653e-06
6.43618e-10
4.49517e-14
3.63176e-18
1
1
1
0.999999
0.999999
1
1
1
0.544002
0.057581
0.000965064
1.99612e-06
4.01883e-10
2.3442e-14
1.63277e-18
1
1
1
1
1
0.999999
1
1
0.562502
0.0612224
0.00100672
1.88298e-06
3.01409e-10
1.42432e-14
8.2419e-19
1
1
1
1
1
1
1
1
0.58666
0.0673643
0.00113017
2.02061e-06
2.77135e-10
1.05569e-14
4.9125e-19
1
1
1
1
1
1
1
1
0.614998
0.0760851
0.00135622
2.44455e-06
3.08519e-10
9.69555e-15
3.61876e-19
1
1
1
1
1
1
1
1
0.645852
0.0874032
0.00171128
3.29015e-06
4.0998e-10
1.08653e-14
3.32565e-19
1
1
1
1
1
1
1
1
0.677475
0.101169
0.00223434
4.80871e-06
6.38088e-10
1.46398e-14
3.74502e-19
1
1
1
1
1
1
1
1
0.708117
0.117005
0.00297134
7.42031e-06
1.1279e-09
2.33518e-14
5.09232e-19
1
1
1
1
1
1
1
1
0.736028
0.13425
0.00396562
1.18215e-05
2.16261e-09
4.28399e-14
8.26611e-19
1
1
1
1
1
1
1
1
0.759491
0.15186
0.00523872
1.90402e-05
4.34631e-09
8.60118e-14
1.56173e-18
1
1
1
1
1
1
1
1
0.777482
0.168419
0.00676063
3.03543e-05
8.87031e-09
1.81706e-13
3.26238e-18
1
1
1
1
1
1
1
1
0.789016
0.182705
0.00844089
4.69128e-05
1.78482e-08
3.8922e-13
7.20779e-18
1
1
1
1
1
1
1
0.999982
0.792677
0.193022
0.0101429
6.88598e-05
3.43959e-08
8.4586e-13
1.61363e-17
1
1
1
1
1
1
1
0.999359
0.788925
0.196712
0.0113698
9.42523e-05
6.11924e-08
1.92157e-12
3.53391e-17
0.997967
0.999997
1
1
1
1
1
1
0.779514
0.193526
0.0115664
0.000113713
9.63781e-08
4.08905e-12
7.59638e-17
0.767757
0.994198
0.999953
1
1
1
1
1
1
0.180655
0.0105781
0.000114249
1.25556e-07
7.36185e-12
1.53461e-16
0.162377
0.739504
0.983207
0.999765
0.999999
1
1
1
0.999999
1
0.00863107
9.41949e-05
1.24158e-07
1.01321e-11
2.65767e-16
0.0068401
0.128532
0.654802
0.964912
0.999288
0.999998
1
1
0.999999
0.999999
1
6.75076e-05
9.49495e-08
9.65369e-12
3.55018e-16
4.72033e-05
0.0045097
0.072966
0.547662
0.940226
0.99838
0.999991
1
0.999999
0.999997
1
1
6.44502e-08
6.7272e-12
3.31406e-16
4.06917e-08
2.84924e-05
0.00182301
0.0382779
0.447349
0.912301
0.996914
0.999983
0.999999
0.999997
0.999999
0.999998
0.999995
1
4.36024e-12
2.28761e-16
2.64419e-12
1.73936e-08
1.03741e-05
0.000710309
0.0214568
0.368
0.884256
0.995589
0.999978
0.999999
0.999997
0.999997
0.999998
0.999996
0.999993
0.999999
1.4789e-16
9.21879e-17
7.67726e-13
6.25492e-09
3.3374e-06
0.00032814
0.0136763
0.310374
0.864064
0.995004
0.999995
0.999998
0.999998
0.999997
0.999999
0.999999
0.999993
0.999993
0.999995
2.4577e-17
2.64826e-13
1.84433e-09
1.21779e-06
0.000187388
0.00986627
0.275598
0.852524
0.997834
0.999998
0.999999
0.999997
0.999998
1
1
0.999999
0.999995
0.999993
0.999985
8.53049e-18
7.29783e-14
5.61449e-10
5.34649e-07
0.000125474
0.0079912
0.252024
0.874044
0.99999
0.999999
0.999998
0.999995
0.999999
1
0.999999
1
1
0.999999
0.999998
0.999986
2.21376e-18
2.07712e-14
1.91751e-10
2.6708e-07
8.93157e-05
0.00613829
0.255065
0.922655
0.999998
0.999999
0.999996
0.999995
1
1
0.999973
0.999984
1
1
1
1
0.999999
5.86456e-19
6.52197e-15
6.96274e-11
1.37679e-07
5.73404e-05
0.00450985
0.266153
0.981626
0.999998
0.999999
0.999995
0.999997
1
1
0.999803
0.999606
0.999806
0.999971
0.999969
0.999931
1
1
1
1
1
1.6418e-19
2.12307e-15
2.54244e-11
6.3931e-08
2.80334e-05
0.00302104
0.304585
0.946771
0.999999
0.999999
0.999995
0.999998
1
0.999998
0.999182
0.999791
0.998438
0.99917
0.998198
0.99817
0.999791
0.999963
0.999971
0.999881
1
1
1
1
1
4.52614e-20
6.96852e-16
8.43894e-12
2.31845e-08
1.19337e-05
0.00187806
0.275508
0.950956
0.999999
0.999997
0.999996
0.999999
1
0.999999
0.999996
1
0.999999
0.999057
0.99969
0.997459
0.996535
0.999033
0.997813
0.997773
0.999662
0.999988
0.999977
0.999906
1
1
1
1
1
1.20737e-20
2.16862e-16
2.36333e-12
7.29753e-09
3.80883e-06
0.00144882
0.257593
0.946913
0.999878
0.999997
0.999998
0.999999
1
1
1
1
1
1
1
1
0.998853
1
0.999788
1
0.999792
0.998885
0.995996
0.997524
0.997819
0.997542
0.997803
0.998816
0.997944
0.998041
1
0.999755
1
0.9998
1
0.999994
1
0.999924
1
0.999989
1
0.999966
0.999997
1
1
1
1
1
2.8395e-21
6.7363e-17
5.39661e-13
2.10456e-09
1.37235e-06
0.00111771
0.204512
0.892963
0.999543
0.999997
0.999997
1
1
1
1
1
1
1
1
1
0.999995
1
1
1
1
0.999994
1
1
1
1
1
1
1
1
1
1
1
1
1
1
0.999326
1
0.999111
1
0.99986
1
0.999896
0.999883
0.996102
0.997336
0.99728
0.997337
0.997431
0.99891
0.998921
0.999027
0.99923
1
0.999272
1
0.999111
1
0.998999
1
0.998672
1
0.998875
1
0.998707
1
0.999788
1
0.999799
1
0.999929
1
0.999928
1
1
1
1
1
1
6.16071e-22
1.88386e-17
1.26886e-13
5.28279e-10
4.60098e-07
0.000613903
0.127813
0.812278
0.995048
0.999877
1
1
0.999997
0.999997
0.999998
0.999999
0.999998
0.999999
1
1
1
1
1
1
1
1
1
1
1
1
1
1
1
1
0.999998
1
1
1
1
1
0.999995
1
1
1
1
1
1
1
1
1
1
1
1
1
1
0.999517
1
0.99938
1
0.999904
1
0.99994
0.999995
0.99881
0.995361
0.995139
0.997196
0.996923
0.998021
0.998094
0.998398
0.998341
0.999998
1
0.999819
1
0.999983
1
0.999853
1
0.999507
0.999286
1
0.999657
1
1
0.999592
0.999318
1
0.999718
1
1
1
0.999453
1
0.999304
1
0.999161
1
0.999151
1
0.999905
1
0.999941
1
0.999982
1
0.999986
1
1
1
1
1
0.999999
1.07194e-22
5.8589e-18
2.65296e-14
1.10522e-10
8.84391e-08
0.000255261
0.0722701
0.689386
0.974588
1
1
1
1
0.999999
0.999999
0.999997
0.999997
0.999998
1
0.999998
0.999999
0.999999
1
0.999999
1
0.999998
0.999999
0.999998
0.999998
0.999999
1
0.999999
1
1
1
1
1
1
1
1
1
1
1
1
1
1
1
1
1
1
0.999706
1
0.999602
1
0.999911
0.996914
0.996396
0.994303
0.994297
0.99666
0.996558
0.998141
0.998104
0.996746
1
0.99675
1
0.996589
1
0.996589
1
0.999781
1
0.998291
1
0.999392
1
0.997542
1
0.999998
1
0.99999
1
0.999981
1
1
1
0.999643
0.999662
1
1
0.99986
1
0.999605
0.999735
1
1
0.999928
1
1
0.999671
1
0.999597
1
0.999536
1
0.999502
1
1
1
1
1
0.999999
2.24483e-23
1.66915e-18
5.23402e-15
1.31718e-11
1.42126e-08
9.70886e-05
0.0342024
0.494062
0.893401
1
1
1
1
1
1
1
1
0.999998
1
0.999998
0.999998
0.999999
1
0.999999
1
1
1
0.999998
0.999998
0.999999
1
0.999999
1
1
1
1
1
1
0.999996
0.999719
0.999565
0.998813
0.998583
0.994035
0.99457
0.994319
0.99429
0.995339
1
0.996342
1
0.995116
1
0.99607
1
0.997006
1
0.996965
1
0.996879
1
0.996446
1
0.996813
1
0.997201
1
0.99698
0.999999
0.997218
1
0.999765
1
0.998444
1
0.999482
1
0.99806
1
1
1
1
1
1
0.999999
3.87919e-24
5.3245e-19
5.41361e-16
1.49444e-12
1.51683e-09
1.62192e-05
0.011875
0.231983
0.856067
0.856079
0.621903
0.621834
0.998786
0.998856
0.984481
0.984445
1
0.999992
1
0.999992
1
1
1
0.999965
1
0.999648
1
0.999912
1
0.999608
1
0.999822
1
0.999999
1
0.999998
0.999999
1
0.999999
1
0.999997
1
0.999999
0.999999
1
1
0.999999
1
1
0.999998
0.999841
0.998633
0.998043
0.996493
0.996568
0.992285
0.992228
0.993978
0.99384
0.995771
1
0.99705
0.999999
0.995618
1
0.9967
0.999999
0.997852
0.999998
0.998338
0.999996
0.99793
0.999997
0.998212
0.999996
0.996083
1
0.996411
1
1
1
1
1
1
0.999999
9.9328e-25
8.84142e-20
7.11605e-17
3.48499e-13
1.17502e-07
5.21327e-06
0.00288346
0.0742788
0.793922
0.794405
0.446502
0.446755
0.998788
1
1
0.998773
0.998872
1
1
0.998852
1
1
1
0.999997
1
1
1
0.999996
1
1
1
0.999326
1
0.999839
1
0.999396
1
0.999925
1
1
0.999999
1
1
0.999998
0.999986
0.999537
0.999265
0.998298
0.997332
0.996915
0.995868
0.994443
0.99424
0.996482
0.988998
0.995149
0.988998
0.996552
0.988998
0.995334
0.988998
0.999416
0.995279
0.999999
0.991522
0.999405
0.995356
0.999999
0.991623
0.996233
0.999999
0.997917
1
0.995896
0.999999
0.997422
1
0.997947
1
0.999289
1
0.998116
1
0.999119
1
1
1
1
1
1
4.10284e-25
2.53453e-20
3.03009e-16
5.19703e-10
5.41002e-06
8.84968e-05
0.000598606
0.045044
0.0449221
0.000193513
0.000156191
0.670874
0.840579
0.549382
0.71323
0.669879
0.843025
0.548199
0.713914
0.254643
0.254929
0.99876
1
1
0.998761
0.998834
1
1
0.998835
0.811729
0.970444
0.928203
0.999016
0.811183
0.971076
0.928389
0.999017
1
0.999149
1
0.999749
1
0.9992
1
0.999649
1
1
0.999994
0.9999
0.99827
0.997623
0.995866
0.995231
0.994475
0.994117
0.988998
0.995384
0.998869
0.991617
0.988998
0.995448
0.998874
0.990479
0.999156
0.989281
0.997058
0.990267
0.999202
0.989279
0.997154
0.990333
0.999853
0.996737
0.999956
0.995604
0.999864
0.99639
0.999957
0.995579
0.997465
1
0.996609
1
1
1
1
1
5.99744e-25
6.29686e-19
1.88316e-11
1.36144e-06
0.000306335
0.00171455
0.000597809
0.000662384
0.000314975
0.000338791
0.0300973
0.0302414
0.0127145
0.0131949
0.603725
0.824086
0.438123
0.604283
0.602581
0.826649
0.437467
0.605329
0.166477
0.0631024
0.0890257
0.133662
0.166825
0.0630705
0.0894867
0.133728
0.99905
1
0.999973
0.999973
0.999109
1
0.999973
0.999973
0.802846
0.975465
0.869229
0.996693
0.802369
0.976183
0.869414
0.996802
1
1
0.999998
0.999994
0.999983
0.999968
0.999488
0.999266
0.99744
0.996921
0.991418
0.996832
0.99143
0.998435
0.991325
0.997111
0.991326
0.998432
0.99143
0.995457
0.99153
0.998452
0.993257
0.998224
0.991326
0.995782
0.991337
0.998089
0.992824
0.998288
0.988999
0.994548
0.989003
0.99466
0.999715
0.989798
0.998976
0.992637
0.999704
0.989779
0.998959
0.992855
1
1
1
4.53287e-23
7.23557e-14
1.21809e-07
0.000179043
0.00374489
0.0136541
0.0136667
0.014691
0.0179822
0.0178345
0.0128842
0.0215256
0.0213394
0.0152181
0.0209313
0.0240464
0.0219415
0.0122119
0.0242559
0.0165672
0.0141584
0.0143009
0.0135184
0.0190716
0.0174613
0.01692
0.0133566
0.0243456
0.0157001
0.0136819
0.485833
0.743648
0.372075
0.570906
0.48501
0.746341
0.371894
0.571929
0.0540745
0.0461237
0.0542365
0.046296
1
0.965131
0.999999
0.965251
0.68858
0.920215
0.6876
0.92188
1
1
1
0.999998
0.999999
0.999993
0.999995
0.999989
0.999988
0.999972
0.999639
0.999434
0.998826
0.996211
0.999997
0.993559
0.996952
0.992019
0.998715
0.995328
0.999998
0.993253
0.996812
0.99159
0.991574
0.995216
0.991518
0.994848
0.991536
0.995551
0.993121
0.993496
0.999068
0.998699
0.991325
0.994041
0.992818
0.993104
0.998658
0.998693
0.989366
0.998599
0.989378
0.998574
1
1
1.04871e-17
1.09828e-09
2.45051e-05
0.00200696
0.0111251
0.032866
0.0323871
0.0169049
0.0201142
0.0512764
0.0529963
0.0454357
0.0416116
0.0125735
0.0272072
0.0640428
0.0222232
0.0442546
0.0846179
0.0118253
0.0303075
0.0145987
0.0560353
0.0450992
0.0674574
0.0575569
0.0858466
0.0561419
0.0728755
0.056533
0.105735
0.0515964
0.0602029
0.190832
0.273869
0.190869
0.274095
1
1
1
0.999999
0.999999
0.999999
1
0.999991
0.999991
0.999997
1
0.99991
1
0.999991
1
0.999832
1
0.998185
0.997274
1
0.999505
1
0.999821
0.997366
0.996293
0.999964
0.999176
1
0.999574
0.99922
0.996688
0.995602
0.99357
0.998598
0.996356
0.994604
0.993251
0.99174
0.995151
0.991523
0.994395
0.991861
0.997861
0.993337
0.999246
0.991364
0.996574
0.993154
0.999307
1
5.33112e-13
3.95593e-07
0.000294953
0.00399702
0.00723155
0.0225647
0.0247041
0.00572269
0.00783764
0.105307
0.0756649
0.130212
0.0604182
0.0719001
0.0742949
0.142301
0.0596787
0.0483957
0.0440118
0.0842461
0.125686
0.0870196
0.138647
0.0806586
0.141436
0.0833663
0.121191
1
1
1
1
0.999999
1
0.999998
1
0.999998
1
1
1
1
0.999992
1
0.999858
1
0.999977
1
0.999789
1
0.997146
0.998323
0.99985
1
0.998953
1
0.996002
0.997689
1
0.999415
0.998539
1
0.996375
0.993925
0.996614
0.993414
4.40141e-10
6.87108e-06
0.000516904
0.0021897
0.00115721
0.00132358
0.00132244
0.00117805
0.010081
0.00744538
0.00304322
0.0018269
0.0633391
0.0759575
0.118593
0.0538786
0.112416
0.0734734
0.141436
0.0527334
0.0133231
0.0188812
0.0253531
0.0324453
0.0153928
0.0210797
0.0257452
0.0694618
0.0942545
0.138076
0.0893998
0.140237
1
1
1
0.999999
0.999999
0.999999
0.999999
0.999995
0.999994
0.999998
0.999994
1
0.999989
1
0.999998
1
0.999989
1
0.999983
0.999983
1
0.999937
1
0.999969
1
0.99988
1
1.34614e-08
1.32978e-05
0.000130925
0.000495763
0.000854885
0.000890924
0.0010927
0.00101541
0.0107095
0.010149
0.0125363
0.00786109
0.0136032
0.00458458
0.0106805
0.0221071
0.0095995
0.00871183
0.0188687
0.00560941
0.00288588
0.00239749
0.0498926
0.052733
0.0709544
0.0380015
0.068831
0.0498086
0.0489337
0.0357906
0.0147958
0.0129796
0.0133417
0.0151963
1
1
1
0.999999
1
0.999998
1
1
1
1
1
1
0.999998
1
0.999996
1
0.999993
1
0.999999
1
0.999986
1
0.999976
1
0.999996
1
0.999961
1
0.999979
1
0.999935
1
3.11712e-08
9.30607e-07
1.7327e-05
0.000296048
0.000194321
0.00012078
9.17486e-05
0.000826947
0.000832546
0.000925872
0.000700461
0.0097397
0.00981085
0.00975564
0.00473682
0.00659714
0.00297989
0.00960727
0.0186306
0.0136032
0.00533764
0.0131364
0.00334439
0.000784688
0.00187999
0.00151991
0.00422805
0.000643565
0.00187388
0.00139322
0.00628629
1
1
1
0.999999
1
0.999998
0.999999
0.999998
1
1
0.999998
1
1
1
1
1
1
0.999999
1
0.999999
0.999997
1
0.999998
0.999986
1
1
0.999996
0.999939
1
1
0.999988
1
0.999943
1
6.15992e-10
8.12192e-07
7.80003e-05
0.000220933
0.00016941
0.000154028
0.000118319
0.000456471
0.00135061
0.00143641
0.000612303
0.00143124
0.00060317
0.000608325
0.00284113
0.000955055
0.000584139
0.00140062
0.000422392
0.000620905
0.000402382
0.00249131
0.00124556
0.008292
0.00185107
0.000644006
0.00213062
0.000958841
0.00528391
1
1
1
1
0.999998
1
0.999998
1
1
1
0.999998
1
1
1
1
1
1
1
0.999999
1
1
0.999999
1
1
1
1
1
1
0.999997
1
1
6.62116e-09
9.07355e-06
3.10859e-05
0.000164938
0.000146792
0.000148935
0.000110714
0.000442172
0.00136329
0.00137297
0.000386392
0.00175913
0.000434075
0.000606649
0.00321095
0.000793535
0.000390716
0.0013907
0.000274277
0.000139321
0.000256363
0.000240156
0.000384014
8.37843e-05
0.000197561
0.000125836
0.000259014
0.000392054
0.00135525
0.000608325
0.00298926
0.999999
0.999999
0.999999
1
0.999998
1
0.999998
1
0.999998
1
1
1
1
1
1
0.999999
1
1
0.999998
1
0.999999
1
1
1
1
0.999999
1
1
1
1.06489e-07
1.56288e-06
5.86746e-06
8.32946e-05
5.76767e-05
6.29047e-06
3.06514e-07
3.07838e-07
0.000120383
6.59967e-05
7.64318e-05
0.000101226
5.37416e-05
7.17603e-05
0.000422528
0.00185034
0.000749919
0.000356427
0.001063
0.000292353
0.000512535
0.00321593
0.000481819
0.000270944
0.000961947
0.000190144
6.77244e-05
0.000198945
3.26139e-05
0.000102965
0.999997
0.999998
0.999998
1
0.999998
1
0.999999
1
1
1
1
1
1
1
0.999999
1
1
0.999999
1
1
1
1
1
0.999998
1
0.999998
1
1
1
0.999999
1
1.07359e-08
2.16703e-08
2.29276e-05
3.24583e-07
1.69904e-05
3.28343e-07
1.40156e-08
1.39931e-08
5.02507e-05
7.42577e-05
0.000138911
6.61941e-05
9.07392e-05
0.000135941
4.08288e-05
7.73861e-05
5.08582e-05
3.29721e-05
8.87064e-05
5.64587e-05
5.57945e-05
6.58394e-05
2.65313e-05
5.78947e-05
0.000276568
0.000172914
0.00019855
9.68203e-05
5.22014e-05
0.000176995
2.58411e-05
7.64746e-05
0.999994
0.999997
0.999998
0.999999
0.999998
0.999995
0.999999
0.999995
1
0.999999
1
0.999998
1
1
1
0.999999
1
1
0.999999
1
0.999999
1
1
1
1
1
0.999998
1
1
1
6.55085e-11
2.11945e-07
4.22971e-06
4.50795e-05
1.67538e-05
1.16001e-07
5.02629e-06
3.09782e-05
1.06091e-05
5.57051e-08
6.79804e-08
5.96572e-08
6.49343e-05
1.46949e-05
5.20159e-05
0.000140272
0.000138066
9.01488e-05
3.93276e-05
2.59971e-05
6.845e-06
6.00516e-05
8.97764e-05
3.46934e-05
0.00011943
6.73714e-05
5.30753e-05
3.39268e-05
0.999993
0.999996
0.999996
1
1
0.999997
0.999996
0.999995
0.999998
0.999999
1
0.999999
1
1
0.999998
1
0.999998
0.999998
1
0.999999
1
1
0.999995
1
0.999998
0.999999
1
1
1
1
1
1
6.69731e-11
1.47379e-06
1.953e-07
1.82059e-07
1.38869e-06
2.74757e-07
2.57561e-07
1.16985e-07
1.53758e-05
3.33842e-06
4.79875e-06
3.78552e-06
4.27416e-07
1.17984e-07
7.79082e-07
2.89357e-07
1.16985e-07
3.9566e-07
2.26758e-07
1.46166e-05
5.5062e-06
5.95381e-06
5.05462e-06
7.69004e-07
7.66851e-07
2.91266e-06
1.70085e-07
5.5524e-08
4.64771e-07
3.68788e-05
5.28286e-06
0.000104273
3.7988e-05
1.82575e-05
5.08338e-06
6.34522e-05
2.2928e-05
0.999996
0.999996
1
1
1
0.999998
0.999997
1
0.999995
0.999998
1
0.999998
0.999999
0.999999
0.999999
1
1
1
0.999998
0.999996
0.999998
1
1
1
0.999998
1
1
1
5.78192e-31
3.05938e-06
3.8893e-06
2.68038e-06
3.47844e-06
3.24138e-07
2.77032e-07
3.92733e-06
1.39119e-06
1.83191e-06
7.25589e-06
1.17984e-07
1.02095e-06
3.7588e-07
2.92506e-07
7.98123e-07
2.15793e-07
6.07668e-07
1.16936e-06
1.00003e-06
2.44714e-06
5.62068e-06
3.66173e-06
7.6233e-06
3.87538e-06
5.57051e-08
1.11432e-05
2.57062e-07
2.07313e-07
4.84064e-07
1.19064e-07
5.03312e-07
8.34368e-07
6.91961e-07
1.7748e-06
0.999996
0.999998
0.999993
0.999993
0.999995
0.999995
0.999994
0.999998
1
0.999998
1
0.999997
1
1
1
0.999997
1
0.999995
1
0.999996
1
0.999999
1
1
0.999996
1
1
0.999992
0.999999
1
0.999997
1
1
0.999996
0.999996
1
0.999999
-2.2444e-30
1.27356e-05
3.0715e-06
2.40006e-06
1.44682e-06
1.2164e-05
2.49243e-06
2.03821e-06
1.33902e-06
1.01771e-07
8.85432e-08
2.74985e-07
1.18041e-06
1.69812e-07
1.10622e-06
3.43675e-07
1.45888e-06
2.59548e-07
1.19242e-06
5.2133e-07
1.85121e-06
9.93534e-07
9.51974e-06
1.15774e-07
1.10476e-05
2.2949e-07
2.42447e-07
1.1456e-06
5.08577e-06
6.79474e-07
1.36944e-06
0.999994
0.999998
0.999988
0.99999
0.999995
0.999998
0.999995
0.999997
1
1
1
0.999996
1
0.999995
0.999999
0.999999
1
0.999993
1
0.999998
1
1
0.999998
1
1
1
1
0.999999
0.999994
0.999999
0.999992
0.999999
1
1
1
0.000107067
1.03132e-07
9.09117e-08
6.09044e-06
1.28451e-05
1.35689e-05
1.56212e-05
1.06994e-05
2.20198e-06
5.98823e-06
1.18548e-05
1.28664e-05
1.56139e-05
1.03345e-05
2.06349e-06
3.1349e-07
6.61924e-07
7.2892e-06
6.49216e-07
7.11323e-07
6.06993e-06
2.33499e-07
4.416e-07
6.87436e-06
1.29317e-06
7.22591e-07
5.22528e-06
0.999994
0.999997
0.999974
1
0.999997
0.999974
1
0.999997
0.999992
0.999997
0.999993
1
1
0.999995
1
0.999996
1
0.999992
0.999999
1
0.999996
1
1
1
0.999999
1
0.999999
0.999991
0.999998
1
0.999999
9.9589e-06
2.40334e-05
0.000240446
2.08903e-05
0.000231445
9.93363e-06
1.3937e-05
8.2133e-06
1.5614e-05
5.91056e-06
1.18619e-05
1.56141e-05
0.000120913
9.72483e-06
1.2822e-05
7.32029e-06
1.56077e-05
5.76409e-06
1.11018e-05
1.35436e-05
0.00010866
3.21764e-06
1.94537e-06
2.7488e-06
1.47877e-06
0.999994
0.999993
0.999993
0.999974
0.999988
0.999985
0.999987
0.999985
0.999977
0.999987
0.999984
0.999986
0.99998
0.999996
0.999997
1
0.999998
0.999995
1
1
0.999998
1
0.999994
0.999999
0.999999
1
0.999997
-4.25671e-34
2.39716e-05
5.92307e-06
2.39759e-05
5.97622e-06
0.000406269
0.000389801
0.000266816
3.72676e-06
7.74707e-06
4.24222e-06
1.31596e-06
1.56141e-05
9.52104e-06
1.56213e-05
5.72874e-06
8.23716e-06
1.09433e-05
0.000246544
3.01961e-06
7.47984e-06
3.78698e-06
1.11826e-06
1.56214e-05
7.6897e-06
1.56141e-05
5.24369e-06
7.44545e-06
7.2755e-06
0.999997
0.999996
0.999993
0.999995
0.999992
0.999974
0.999996
0.999994
0.999997
0.999993
0.999996
0.999997
0.999981
1
1
1
1
0.999995
0.999997
0.999998
0.999998
1
1
0.999999
1
-1.33555e-31
-2.82451e-30
6.59984e-12
-3.2485e-30
6.19415e-12
3.03261e-05
1.41298e-06
2.96016e-05
1.39267e-06
0.000845377
0.000804498
0.00038982
0.000137386
0.000121163
0.000229414
5.647e-06
4.59171e-06
3.76524e-06
1.31618e-06
1.56214e-05
9.2431e-06
1.56141e-05
7.56634e-06
0.000389592
0.000126601
0.000113254
0.000210994
7.59113e-06
4.19768e-06
3.78648e-06
1.1184e-06
1.56143e-05
7.12839e-06
1.43658e-05
6.05718e-06
0.999996
0.999998
0.999997
0.999998
0.999998
0.999993
0.999991
1
0.999999
0.999999
1
0.999997
0.999999
0.999998
0.999999
0.999999
1
1
1
1
1
1
1
1
1
1
1
1
1
9.24647e-13
1.44305e-31
1.6496e-12
7.45029e-32
2.52917e-13
7.78934e-09
2.04459e-08
5.52728e-09
1.45888e-08
0.000110683
6.64783e-06
0.000104235
5.64459e-06
0.00153667
0.000874876
0.00153786
0.00107429
0.00154423
0.00083429
0.00153501
0.00102514
0.000388806
6.14049e-05
3.74957e-05
0.000235063
0.000395221
5.59913e-05
3.62262e-05
0.000215222
0.999997
0.999995
0.999998
0.999994
0.999991
0.999998
0.999997
0.999997
0.999996
0.999995
0.999991
1
1
1
1
1
1
1
0.999999
1
1
1
1
1
1
1
0.999999
1
1
1
1
1
1
1
1
2.29239e-11
8.51188e-12
2.35656e-08
2.08594e-09
1.54074e-08
1.45036e-09
1.6742e-06
4.27717e-06
1.45305e-06
4.05458e-06
6.64691e-05
0.000100066
0.000140446
4.13625e-05
2.34603e-05
8.28046e-06
2.15086e-05
1.3874e-05
5.9887e-05
9.39216e-05
0.000129396
3.7914e-05
2.20045e-05
7.10022e-06
1.95756e-05
1.1998e-05
0.00154423
0.000924363
0.00153667
0.0012983
0.00153667
0.000888593
0.00154146
0.00125625
0.999997
0.999999
0.999998
0.999996
0.999996
0.999992
0.999995
0.999993
0.999992
1
1
0.999995
0.999996
1
0.99999
0.999997
0.999997
1
0.999983
0.999997
0.999997
1
1
1
1
1
1
1
1
7.66843e-09
1.36412e-12
1.52274e-12
1.36615e-10
6.13283e-09
1.87221e-10
5.13227e-06
6.76635e-07
4.9176e-06
8.07521e-07
2.15226e-05
6.95875e-06
2.2221e-05
7.79927e-06
1.66342e-05
1.00136e-05
1.51063e-05
9.53891e-06
2.14073e-05
6.18114e-06
2.08353e-05
6.92805e-06
1.7861e-05
9.21377e-06
1.61895e-05
8.85511e-06
5.22141e-05
0.000104002
0.000134827
1.83546e-05
5.73552e-05
1.05597e-05
6.36222e-05
1.30515e-05
4.71895e-05
9.81353e-05
0.00012554
1.63719e-05
4.96087e-05
9.13906e-06
5.32065e-05
1.13055e-05
0.999997
0.999998
0.999999
0.999999
0.999996
0.999994
0.999991
0.999975
0.999988
0.999973
1
0.999992
0.999999
0.999997
1
0.999996
0.999999
0.999998
1
0.999984
0.999999
0.999991
1
0.999991
0.999999
0.999998
1
0.99999
0.999999
0.999996
1
0.999983
0.999997
0.999995
1.2675e-07
2.69543e-08
5.56161e-07
2.49894e-08
3.99263e-07
7.19332e-06
8.78907e-06
8.01728e-06
1.06901e-05
4.37904e-10
1.6407e-05
1.06118e-05
1.73619e-05
9.0013e-06
4.07592e-06
1.66151e-06
3.03039e-06
2.02602e-06
1.61239e-05
9.69598e-06
1.77694e-05
8.41751e-06
4.53307e-06
1.94785e-06
3.78199e-06
2.29342e-06
5.98509e-05
1.10572e-05
6.43755e-05
1.53133e-05
3.81429e-05
1.74252e-05
3.65e-05
1.95318e-05
5.81402e-05
9.7956e-06
5.78661e-05
1.33087e-05
3.77624e-05
1.56156e-05
4.26131e-05
1.66701e-05
0.999999
0.999998
0.999985
1
0.999989
0.999999
0.999965
0.999976
0.999965
0.999973
1
0.999997
1
0.999999
1
1
1
1
1
0.999992
0.999999
0.999995
1
1
1
0.999999
1
0.999995
0.999999
0.999997
1
0.999996
1
0.999999
0.999999
0.999986
0.999997
0.999993
1
0.999991
0.999999
0.999998
9.58028e-06
5.14091e-08
6.58308e-06
2.87803e-05
6.16573e-06
2.56012e-05
1.46334e-05
3.77251e-06
1.95059e-05
1.22528e-05
2.41406e-05
2.5773e-05
2.23531e-05
4.03074e-05
9.12e-06
3.43976e-05
1.6345e-05
4.59109e-06
2.02224e-05
1.46475e-05
2.54182e-05
1.7691e-05
2.44284e-05
4.73702e-05
1.13271e-05
3.72619e-05
5.05444e-10
3.36679e-05
1.78446e-05
4.23543e-05
1.25427e-05
1.21034e-05
3.27349e-06
3.27605e-05
1.53013e-05
4.54363e-05
1.11714e-05
1.25971e-05
3.53814e-06
3.75016e-05
1.99816e-05
5.74227e-05
2.39267e-05
4.38203e-05
1.72308e-05
5.77246e-05
2.1303e-05
0.999999
0.999998
1
1
0.999997
0.999996
1
1
1
1
0.999976
0.999992
0.999992
0.999965
1
1
1
0.99999
0.99997
0.999989
0.999991
0.999965
1
1
1
0.999989
1
0.999995
1
0.999999
1
1
1
1
0.999999
0.999989
0.999999
0.999993
1
1
1
0.999999
7.29192e-06
3.03241e-05
0.000103581
3.91709e-05
0.000113834
1.9805e-08
7.07439e-05
4.81804e-05
6.85134e-05
5.28327e-05
7.39863e-06
2.19322e-05
5.53286e-05
3.19493e-05
1.19356e-05
4.39601e-05
3.38178e-05
0.000114386
9.26378e-06
4.91528e-05
7.88135e-06
2.52355e-05
5.22381e-05
3.0427e-05
1.4458e-05
4.75973e-05
3.4457e-05
0.000129896
1.14955e-05
5.89569e-05
1.86706e-09
5.21215e-05
1.91005e-05
6.3038e-05
1.23008e-05
2.30589e-05
4.09064e-06
5.05472e-05
1.62348e-05
6.4269e-05
1.09797e-05
2.29947e-05
4.4929e-06
0.999998
0.999998
0.999998
1
1
0.999998
0.999998
0.999994
0.999997
1
0.999998
1
1
1
1
0.999998
1
1
0.999988
0.999999
0.999996
1
1
0.999998
1
0.999999
1
0.999989
0.999996
0.999997
0.999976
0.999999
0.999985
0.999983
0.999999
0.999997
0.999972
0.999998
0.999997
1
1
1
1
1
0.999991
1
0.999999
2.23964e-06
0.000152584
7.05053e-05
0.000162571
7.37207e-05
9.16902e-05
0.000255505
9.75743e-05
0.000266794
2.17081e-06
8.61125e-05
8.36561e-05
0.000122835
5.98795e-05
5.95126e-05
1.88024e-05
5.92338e-05
2.22437e-05
8.67979e-05
7.97829e-05
9.99723e-05
5.77213e-05
8.71775e-05
2.01814e-05
8.25792e-05
2.43769e-05
1.5565e-05
3.73327e-05
5.74918e-05
0.000185395
1.96252e-05
9.10285e-05
1.72345e-05
3.81595e-05
5.64061e-05
0.000184865
2.12293e-05
0.000102053
4.29743e-08
0.999989
0.999999
0.999999
0.999999
1
0.999996
0.999996
1
1
1
1
0.999993
0.999997
1
0.999999
0.999996
1
1
1
0.999998
1
0.999988
0.99999
0.999998
0.999999
0.999999
0.999999
0.999998
1
0.999999
1
0.999997
0.999996
0.999999
0.999991
0.999998
0.999987
0.999991
0.999981
0.999999
0.999972
0.999996
0.999982
3.84235e-05
0.000206993
0.000335866
0.000196202
0.000338129
0.000198959
3.22772e-05
1.20712e-05
9.33647e-05
4.83728e-05
0.000116514
5.78732e-05
0.00020894
0.000372806
0.000125108
0.000269538
3.18282e-05
1.7421e-05
8.60966e-05
4.9352e-05
0.000120345
7.73137e-05
0.000210348
0.000373502
0.000127064
0.000274272
1.56347e-05
6.25814e-05
7.49403e-05
7.80078e-05
3.12004e-05
5.73111e-05
1.20052e-05
5.83266e-05
7.05699e-05
5.7068e-05
3.20069e-05
8.71363e-05
1.73936e-05
2.86511e-08
0.999987
0.999999
1
1
1
0.999997
0.999999
0.999998
0.999999
0.999997
0.999998
1
1
1
1
1
1
1
1
0.999999
0.999996
0.999999
0.999996
1
0.999999
1
0.999998
0.999999
0.999999
1
1
1
1
0.999988
0.999998
0.999998
0.999999
1
1
0.00247223
0.000155638
6.29538e-05
0.000157182
6.42012e-05
0.000582672
0.000358659
0.000437264
0.000363071
0.00045008
1.63482e-05
3.19258e-05
6.81481e-05
6.82776e-05
9.16636e-05
7.97116e-05
0.000252885
0.000313458
0.000168203
0.000161037
1.82535e-05
3.14147e-05
6.69912e-05
6.35456e-05
9.3579e-05
7.58008e-05
0.000259219
0.000301552
0.000174276
0.000151201
9.56034e-06
5.11856e-05
1.20105e-05
6.53995e-05
1.7421e-05
2.31989e-09
0.999994
0.999999
1
1
1
1
0.999999
1
0.999995
0.999997
0.999999
0.999996
0.999999
1
1
1
0.999999
1
0.999999
0.999994
0.999999
0.999997
0.999999
1
1
1
1
1
1
1
1
0.999999
1
1
0.999999
0.999996
0.999998
0.999998
1
1
0.00854834
0.00422104
0.00095625
0.00105839
0.000967714
0.00103678
0.000303337
0.0011659
0.000494071
0.000746183
0.000670869
0.00127342
0.00122755
0.000509779
0.000797209
0.000679872
0.00126665
0.000190494
0.000123659
0.000527689
0.000448584
0.000340267
0.000203895
0.000191162
0.000102568
0.000548656
0.000437692
0.000355244
0.000177654
1.0294e-06
1.42808e-11
0.999999
0.999998
1
1
1
1
1
1
1
1
1
1
0.999997
0.999994
0.999998
0.999999
0.999997
0.999999
1
1
1
1
0.999997
0.999994
0.999999
0.999998
0.999998
0.999999
1
1
1
1
1
1
1
1
0.0087542
0.00947638
0.0172362
0.00812758
0.015752
0.00167975
0.00135365
0.00210425
0.00137452
0.00208012
3.33305e-05
0.00199632
0.000969194
0.00202993
0.000901994
0.000739548
0.00191932
0.000714582
0.00180427
0.00201351
0.000952948
0.00207992
0.000892323
0.000708295
0.00190369
0.000701946
0.00171402
0.000963962
0.00100694
0.000960027
0.0010056
9.3391e-09
6.49745e-15
1
0.999998
0.999999
0.999999
1
1
1
1
1
1
1
1
1
1
1
1
1
1
1
1
0.999999
1
1
1
1
0.999999
0.999999
1
1
1
1
0.00881429
0.0028268
0.0257734
0.0217749
0.024088
0.0219172
0.000146132
0.00113644
0.000701866
0.000701881
0.000820682
0.000720502
0.000880105
0.0062593
0.00072966
0.000886101
0.00123681
0.00070187
0.000701866
0.000793482
0.00624201
4.07684e-07
0.00186133
0.000903148
0.00216942
0.000756164
0.00071052
0.000701919
0.00178457
0.000863063
0.0021253
0.000738672
0.000701903
0.000707594
1.18778e-11
8.71954e-20
1
1
0.999998
0.999999
0.999999
1
1
1
1
1
1
1
1
1
1
1
1
1
1
1
1
1
1
1
1
1
1
1
1
1
1
1
1
0.00113834
0.00551587
1.19405e-06
0.00582285
1.2563e-06
0.000203557
0.045275
0.0238703
0.0475669
0.024077
1.93846e-06
0.00217383
0.000735187
0.00070187
0.000701866
0.000701866
0.00193372
0.0215265
0.035318
0.00959471
0.0214641
0.000701866
0.00070187
0.0021729
0.000707495
0.000701881
0.00179872
0.0214889