/*--------------------------------*- C++ -*----------------------------------*\
| =========                 |                                                 |
| \\      /  F ield         | OpenFOAM: The Open Source CFD Toolbox           |
|  \\    /   O peration     | Version:  5.x                                   |
|   \\  /    A nd           | Web:      www.OpenFOAM.org                      |
|    \\/     M anipulation  |                                                 |
\*---------------------------------------------------------------------------*/
FoamFile
{
    version     2.0;
    format      ascii;
    class       volScalarField;
    location    "1.4";
    object      k;
}
// * * * * * * * * * * * * * * * * * * * * * * * * * * * * * * * * * * * * * //

dimensions      [0 2 -2 0 0 0 0];

internalField   nonuniform List<scalar> 
12160
(
9.95733e-09
9.93073e-09
1.00216e-08
9.9175e-09
1.00494e-08
1.00077e-08
9.91216e-09
1.0079e-08
1.00155e-08
1.00068e-08
9.9104e-09
1.00872e-08
1.00229e-08
1.00122e-08
1.00067e-08
9.91009e-09
1.00789e-08
1.00259e-08
1.00157e-08
1.00118e-08
1.00075e-08
9.91036e-09
1.00734e-08
1.00248e-08
1.00169e-08
1.00146e-08
1.00131e-08
1.00079e-08
9.91061e-09
1.00691e-08
1.00228e-08
1.00167e-08
1.00156e-08
1.00155e-08
1.00145e-08
1.00107e-08
9.91064e-09
1.00654e-08
1.00211e-08
1.00161e-08
1.00156e-08
1.00162e-08
1.00171e-08
1.00188e-08
1.00625e-08
9.91039e-09
1.006e-08
1.00199e-08
1.00155e-08
1.00152e-08
1.00161e-08
1.00174e-08
1.002e-08
1.00571e-08
1.00671e-08
9.91004e-09
1.00548e-08
1.0019e-08
1.0015e-08
1.00149e-08
1.00157e-08
1.0017e-08
1.002e-08
1.00474e-08
1.00629e-08
1.01025e-08
9.90977e-09
1.005e-08
1.00183e-08
1.00146e-08
1.00145e-08
1.00153e-08
1.00165e-08
1.00206e-08
1.00423e-08
1.00603e-08
1.00622e-08
1.00928e-08
9.90971e-09
1.00454e-08
1.00177e-08
1.00143e-08
1.00142e-08
1.0015e-08
1.00161e-08
1.00217e-08
1.00413e-08
1.00623e-08
1.00689e-08
1.00413e-08
1.0046e-08
9.90971e-09
1.00408e-08
1.00172e-08
1.0014e-08
1.00139e-08
1.00146e-08
1.00158e-08
1.00225e-08
1.00419e-08
1.00579e-08
1.00751e-08
1.00322e-08
1.00258e-08
1.00348e-08
9.90971e-09
1.00364e-08
1.00166e-08
1.00138e-08
1.00136e-08
1.00143e-08
1.00153e-08
1.00228e-08
1.00422e-08
1.00548e-08
1.00788e-08
1.00373e-08
1.00208e-08
1.00197e-08
1.00236e-08
9.90971e-09
1.00324e-08
1.00161e-08
1.00135e-08
1.00133e-08
1.00139e-08
1.00148e-08
1.00225e-08
1.00413e-08
1.00522e-08
1.00788e-08
1.00481e-08
1.00206e-08
1.0018e-08
1.00098e-08
9.90971e-09
1.00289e-08
1.00155e-08
1.00133e-08
1.00131e-08
1.00136e-08
1.00142e-08
1.00216e-08
1.00392e-08
1.0049e-08
1.00761e-08
1.00562e-08
1.00206e-08
1.00159e-08
1.00111e-08
9.90971e-09
1.00258e-08
1.00149e-08
1.0013e-08
1.00129e-08
1.00133e-08
1.00137e-08
1.00205e-08
1.00367e-08
1.00453e-08
1.00721e-08
1.00606e-08
1.00204e-08
1.00156e-08
1.0009e-08
9.90971e-09
1.0023e-08
1.00142e-08
1.00128e-08
1.00127e-08
1.00131e-08
1.00133e-08
1.00197e-08
1.00339e-08
1.0041e-08
1.00676e-08
1.00621e-08
1.0021e-08
1.00151e-08
1.00092e-08
9.90971e-09
1.00207e-08
1.00135e-08
1.00125e-08
1.00125e-08
1.00128e-08
1.0013e-08
1.0019e-08
1.00311e-08
1.00365e-08
1.00624e-08
1.00625e-08
1.00217e-08
1.00151e-08
1.00087e-08
9.90971e-09
1.00188e-08
1.00128e-08
1.00121e-08
1.00122e-08
1.00126e-08
1.00128e-08
1.00187e-08
1.00286e-08
1.00324e-08
1.00566e-08
1.00621e-08
1.00226e-08
1.00151e-08
1.00089e-08
9.90971e-09
1.00173e-08
1.00121e-08
1.00116e-08
1.00118e-08
1.00124e-08
1.00126e-08
1.00184e-08
1.00263e-08
1.00293e-08
1.00506e-08
1.00603e-08
1.00234e-08
1.00153e-08
1.00091e-08
9.90971e-09
1.00162e-08
1.00116e-08
1.00112e-08
1.00114e-08
1.0012e-08
1.00123e-08
1.00181e-08
1.00244e-08
1.00272e-08
1.00452e-08
1.00565e-08
1.00241e-08
1.00155e-08
1.00097e-08
9.90971e-09
1.00154e-08
1.00111e-08
1.00108e-08
1.0011e-08
1.00115e-08
1.00119e-08
1.00178e-08
1.00227e-08
1.00255e-08
1.00407e-08
1.00502e-08
1.00243e-08
1.00157e-08
1.00106e-08
9.90971e-09
1.0015e-08
1.00108e-08
1.00104e-08
1.00106e-08
1.00111e-08
1.00115e-08
1.00174e-08
1.00213e-08
1.0024e-08
1.00368e-08
1.00423e-08
1.00239e-08
1.00157e-08
1.00117e-08
9.90971e-09
1.0015e-08
1.00106e-08
1.00101e-08
1.00102e-08
1.00107e-08
1.0011e-08
1.00169e-08
1.00198e-08
1.00228e-08
1.00331e-08
1.0035e-08
1.00227e-08
1.00155e-08
1.00127e-08
9.9097e-09
1.00154e-08
1.00106e-08
1.00099e-08
1.00098e-08
1.00103e-08
1.00105e-08
1.00162e-08
1.00185e-08
1.00218e-08
1.00296e-08
1.0029e-08
1.00207e-08
1.00153e-08
1.00133e-08
9.9097e-09
1.00161e-08
1.00107e-08
1.00098e-08
1.00096e-08
1.00099e-08
1.00101e-08
1.00152e-08
1.00173e-08
1.00208e-08
1.00261e-08
1.00242e-08
1.00184e-08
1.00147e-08
1.00132e-08
9.90971e-09
1.00171e-08
1.0011e-08
1.00099e-08
1.00095e-08
1.00097e-08
1.00095e-08
1.00141e-08
1.00163e-08
1.00197e-08
1.0023e-08
1.00206e-08
1.00165e-08
1.00139e-08
1.00129e-08
9.90971e-09
1.00184e-08
1.00113e-08
1.00101e-08
1.00096e-08
1.00096e-08
1.00088e-08
1.00127e-08
1.00156e-08
1.00187e-08
1.00203e-08
1.00181e-08
1.00151e-08
1.00133e-08
1.00126e-08
9.90971e-09
1.002e-08
1.00118e-08
1.00104e-08
1.00099e-08
1.00097e-08
1.00085e-08
1.00112e-08
1.0015e-08
1.00175e-08
1.00181e-08
1.00163e-08
1.00141e-08
1.00128e-08
1.00123e-08
9.90971e-09
1.00219e-08
1.00123e-08
1.00107e-08
1.00102e-08
1.001e-08
1.00091e-08
1.00105e-08
1.00145e-08
1.00162e-08
1.00163e-08
1.00149e-08
1.00134e-08
1.00125e-08
1.00121e-08
9.90971e-09
1.0024e-08
1.00129e-08
1.00111e-08
1.00105e-08
1.00103e-08
1.00096e-08
1.00113e-08
1.00141e-08
1.0015e-08
1.00147e-08
1.00139e-08
1.00128e-08
1.00122e-08
1.0012e-08
9.90971e-09
1.00263e-08
1.00135e-08
1.00114e-08
1.00108e-08
1.00106e-08
1.00101e-08
1.00124e-08
1.00143e-08
1.00144e-08
1.00134e-08
1.00129e-08
1.00123e-08
1.00119e-08
1.00116e-08
9.90971e-09
1.00289e-08
1.00141e-08
1.00118e-08
1.00112e-08
1.0011e-08
1.00105e-08
1.00135e-08
1.00147e-08
1.0015e-08
1.00129e-08
1.00121e-08
1.00119e-08
1.00117e-08
1.0011e-08
9.90971e-09
1.00317e-08
1.00147e-08
1.00121e-08
1.00115e-08
1.00113e-08
1.00109e-08
1.00144e-08
1.00154e-08
1.0016e-08
1.00136e-08
1.00117e-08
1.00113e-08
1.00113e-08
1.00109e-08
9.90971e-09
1.00348e-08
1.00153e-08
1.00124e-08
1.00118e-08
1.00116e-08
1.00112e-08
1.00151e-08
1.00162e-08
1.00171e-08
1.00149e-08
1.00121e-08
1.0011e-08
1.00108e-08
1.00107e-08
9.90973e-09
1.0038e-08
1.00159e-08
1.00127e-08
1.00121e-08
1.00119e-08
1.00115e-08
1.00156e-08
1.00172e-08
1.00182e-08
1.00166e-08
1.00128e-08
1.0011e-08
1.00103e-08
1.00101e-08
9.90991e-09
1.00416e-08
1.00164e-08
1.0013e-08
1.00123e-08
1.00122e-08
1.00119e-08
1.0016e-08
1.00181e-08
1.00191e-08
1.00186e-08
1.00139e-08
1.00114e-08
1.00102e-08
1.00095e-08
9.91038e-09
1.00455e-08
1.0017e-08
1.00133e-08
1.00126e-08
1.00125e-08
1.00122e-08
1.00163e-08
1.00191e-08
1.00198e-08
1.00208e-08
1.00153e-08
1.0012e-08
1.00105e-08
1.00093e-08
1.00495e-08
9.91137e-09
1.00176e-08
1.00136e-08
1.00128e-08
1.00128e-08
1.00125e-08
1.00165e-08
1.002e-08
1.00205e-08
1.0023e-08
1.0017e-08
1.00127e-08
1.0011e-08
1.00096e-08
1.00182e-08
1.00531e-08
9.91373e-09
1.00139e-08
1.00131e-08
1.0013e-08
1.00127e-08
1.00168e-08
1.00209e-08
1.00212e-08
1.0025e-08
1.0019e-08
1.00136e-08
1.00116e-08
1.001e-08
1.00142e-08
1.00187e-08
1.00611e-08
9.91767e-09
1.00133e-08
1.00133e-08
1.0013e-08
1.0017e-08
1.00219e-08
1.00221e-08
1.0027e-08
1.00214e-08
1.00146e-08
1.00121e-08
1.00107e-08
1.00136e-08
1.00145e-08
1.00203e-08
1.00717e-08
9.92514e-09
1.00136e-08
1.00133e-08
1.00173e-08
1.00231e-08
1.00232e-08
1.0029e-08
1.00241e-08
1.00157e-08
1.00126e-08
1.00114e-08
1.0014e-08
1.00139e-08
1.00153e-08
1.00232e-08
1.009e-08
9.93953e-09
1.00137e-08
1.00176e-08
1.00245e-08
1.00246e-08
1.00313e-08
1.00275e-08
1.00169e-08
1.00131e-08
1.00119e-08
1.00141e-08
1.00143e-08
1.00147e-08
1.00169e-08
1.003e-08
1.01256e-08
9.97562e-09
1.0018e-08
1.00262e-08
1.00262e-08
1.00338e-08
1.00316e-08
1.00183e-08
1.00135e-08
1.00121e-08
1.00186e-08
1.00147e-08
1.00151e-08
1.00158e-08
1.00205e-08
1.00461e-08
1.01858e-08
1.0018e-08
1.00278e-08
1.00278e-08
1.00364e-08
1.00366e-08
1.002e-08
1.00138e-08
1.00122e-08
1.00293e-08
1.00195e-08
1.0016e-08
1.00161e-08
1.00178e-08
1.00296e-08
1.00791e-08
1.02965e-08
1.01192e-08
1.00294e-08
1.00391e-08
1.00424e-08
1.00218e-08
1.00142e-08
1.00123e-08
1.00312e-08
1.00305e-08
1.00215e-08
1.00174e-08
1.00174e-08
1.00223e-08
1.00509e-08
1.01402e-08
1.03312e-08
1.01176e-08
1.0042e-08
1.00486e-08
1.00238e-08
1.00148e-08
1.00124e-08
1.00452e-08
1.00332e-08
1.00327e-08
1.00233e-08
1.00185e-08
1.00193e-08
1.00337e-08
1.00957e-08
1.02096e-08
1.05177e-08
1.0037e-08
1.0054e-08
1.00255e-08
1.00154e-08
1.00127e-08
1.00579e-08
1.00484e-08
1.00382e-08
1.00344e-08
1.00243e-08
1.00195e-08
1.00241e-08
1.00627e-08
1.0171e-08
1.0348e-08
1.04139e-08
1.00532e-08
1.00268e-08
1.00161e-08
1.00131e-08
1.00275e-08
1.00583e-08
1.00543e-08
1.00429e-08
1.00353e-08
1.00246e-08
1.00209e-08
1.00382e-08
1.01237e-08
1.02869e-08
1.04325e-08
1.01585e-08
1.01794e-08
9.99533e-09
1.00168e-08
1.00134e-08
1.00169e-08
1.00255e-08
1.00565e-08
1.00571e-08
1.0046e-08
1.00356e-08
1.00246e-08
1.00259e-08
1.00748e-08
1.02214e-08
1.03841e-08
1.02174e-08
1.01755e-08
1.0373e-08
1.02237e-08
1.00136e-08
1.00134e-08
1.00128e-08
1.00159e-08
1.00237e-08
1.00513e-08
1.0057e-08
1.00474e-08
1.00355e-08
1.00257e-08
1.00408e-08
1.01478e-08
1.03153e-08
1.02519e-08
1.01807e-08
1.02031e-08
1.86135e-08
1.12438e-08
1.03297e-08
1.00355e-08
1.00111e-08
1.00149e-08
1.00209e-08
1.00458e-08
1.00555e-08
1.00474e-08
1.00356e-08
1.00299e-08
1.00754e-08
1.02507e-08
1.02787e-08
1.01751e-08
1.01671e-08
1.14818e-08
2.93614e-07
5.56843e-08
1.52901e-08
1.06626e-08
1.00689e-08
1.0009e-08
1.00135e-08
1.00185e-08
1.00408e-08
1.00527e-08
1.00463e-08
1.0037e-08
1.00372e-08
1.015e-08
1.02844e-08
1.01496e-08
1.01479e-08
1.03237e-08
5.51872e-08
5.64592e-06
1.48462e-06
2.21151e-07
3.263e-08
1.19754e-08
1.01472e-08
1.00073e-08
1.00124e-08
1.00168e-08
1.00357e-08
1.00484e-08
1.00443e-08
1.00387e-08
1.0053e-08
1.02466e-08
1.01196e-08
1.0125e-08
1.01534e-08
1.58476e-08
8.57528e-07
5.81423e-05
3.08475e-05
6.69915e-06
8.89393e-07
1.00478e-07
1.7219e-08
1.04024e-08
1.00062e-08
1.00116e-08
1.00158e-08
1.003e-08
1.00422e-08
1.00415e-08
1.00405e-08
1.01277e-08
1.01067e-08
1.0103e-08
1.01149e-08
1.06824e-08
1.09744e-07
7.70502e-06
0.000195607
0.000359173
0.000193768
5.00001e-05
4.97177e-05
0.000147639
2.72327e-05
3.35431e-06
3.48915e-07
3.72637e-08
1.11668e-08
1.00056e-08
1.00111e-08
1.00152e-08
1.00245e-08
1.00358e-08
1.00392e-08
1.00437e-08
1.00697e-08
1.00886e-08
1.00942e-08
1.01457e-08
1.92283e-08
7.6967e-07
5.28226e-06
0.000894027
0.000213774
0.00184822
0.000886771
0.00329352
0.00327591
0.000209885
4.31309e-05
4.22117e-05
0.000626922
0.0001004
1.17592e-05
1.20931e-06
9.11497e-08
1.23713e-08
1.00052e-08
1.00106e-08
1.00145e-08
1.00205e-08
1.00322e-08
1.00412e-08
1.00572e-08
1.00611e-08
1.00803e-08
1.00896e-08
1.07202e-08
6.20708e-08
4.58577e-07
2.95558e-06
2.92165e-06
1.72112e-06
1.71968e-06
0.000975895
0.000101722
0.00803959
0.0112325
0.000964649
0.00364352
0.00362596
9.95412e-05
2.08915e-05
2.04056e-05
0.00231038
0.000259433
3.01361e-05
2.97385e-06
1.5589e-07
1.32401e-08
1.00049e-08
1.001e-08
1.00139e-08
1.00187e-08
1.01692e-08
1.07426e-08
1.20428e-08
1.02695e-08
1.00858e-08
1.01132e-08
1.24989e-08
3.62904e-08
2.26529e-07
2.26357e-07
1.38577e-07
1.37841e-07
1.10209e-06
1.08162e-06
5.48276e-07
5.46628e-07
0.000406545
4.92298e-05
5.0783e-05
6.18203e-05
4.43152e-05
0.0223246
0.0445671
0.0164534
0.0176955
0.00406441
0.00429885
0.000403243
0.0013318
0.00135667
4.78881e-05
4.94761e-05
6.01369e-05
4.30002e-05
1.30013e-05
8.95983e-06
1.00301e-05
1.20069e-05
1.26152e-05
8.79954e-06
9.74707e-06
1.16317e-05
0.00378249
0.00042271
6.16904e-05
4.54437e-06
1.76705e-07
1.31317e-08
1.00045e-08
1.00094e-08
1.00131e-08
1.01016e-08
3.35771e-08
8.15786e-08
2.15489e-07
1.27159e-07
1.12784e-08
1.01773e-08
1.1117e-08
2.01857e-08
1.99853e-08
1.67953e-08
1.6779e-08
7.43465e-08
7.40783e-08
4.51303e-08
4.47651e-08
5.3301e-07
3.95269e-06
5.7528e-07
5.02716e-07
5.77959e-07
4.6653e-06
3.90083e-06
5.26205e-07
5.62603e-07
4.92073e-07
5.65742e-07
4.52351e-06
2.40641e-07
2.78207e-07
2.5433e-07
2.90068e-07
2.39737e-07
2.76776e-07
2.53612e-07
2.88843e-07
0.000231838
0.000152512
0.000184732
0.000188223
2.25792e-05
2.20673e-05
3.16824e-05
1.93812e-05
0.0279902
0.111823
0.236424
0.241517
0.0852489
0.089486
0.0102256
0.0123046
0.00162442
0.00203715
0.000232196
0.000149964
0.000181922
0.000186352
0.000547065
0.000549402
0.000690371
0.000437777
0.000565391
0.00062123
0.000783075
0.000450923
2.18259e-05
2.13747e-05
3.06095e-05
1.86367e-05
6.44903e-06
5.7593e-06
6.23841e-06
5.55962e-06
0.0036611
0.000722238
8.2974e-05
4.44572e-06
1.45391e-07
1.1948e-08
1.00042e-08
1.00085e-08
1.00129e-08
1.80726e-08
1.72268e-06
3.38192e-06
5.24587e-06
2.11634e-06
1.7579e-06
2.14257e-06
1.05041e-08
1.04918e-08
1.25903e-07
1.19681e-07
1.35408e-08
1.36095e-08
4.33569e-08
4.64024e-08
3.65565e-08
4.06979e-08
3.55942e-08
3.95968e-08
3.64983e-08
4.05376e-08
3.55854e-08
3.9409e-08
2.34829e-08
2.58045e-08
2.39744e-08
2.61021e-08
2.3451e-08
2.56272e-08
2.38989e-08
2.58969e-08
1.94351e-06
4.17543e-07
4.72076e-07
2.42871e-06
3.3467e-07
4.07487e-07
1.93289e-06
4.11466e-07
2.34658e-06
4.61031e-07
3.27203e-07
3.98306e-07
1.4336e-07
1.77103e-07
1.60626e-07
1.94581e-07
1.42883e-07
1.76084e-07
1.60134e-07
1.93585e-07
0.000111729
5.92418e-05
8.17908e-05
7.54534e-05
1.3529e-05
1.22002e-05
1.98067e-05
1.11529e-05
0.0211279
0.109431
0.361551
0.360129
0.335878
0.337541
0.183378
0.191204
0.0588535
0.0656979
0.00015979
0.0023111
0.000726947
0.00212562
0.000258005
0.00271859
0.000813875
0.00259391
0.000352768
0.000259772
0.000459233
0.000269779
0.000635319
0.000459077
0.000442634
0.000323053
0.000583191
0.000338493
0.000823039
0.000571197
0.000113522
5.76134e-05
8.02309e-05
7.37803e-05
0.000234801
0.000155032
0.000255587
0.000161657
1.29916e-05
1.17755e-05
1.90033e-05
1.06103e-05
3.69046e-06
3.17433e-06
3.56094e-06
3.05305e-06
0.00505109
0.000901283
7.19092e-05
3.09863e-06
7.6078e-08
1.12386e-08
1.00039e-08
1.00081e-08
1.00328e-08
3.45014e-07
6.25818e-05
5.94917e-05
5.10641e-05
7.52906e-05
0.000244716
1.98195e-05
1.98583e-05
0.000336552
0.000336379
8.73191e-07
8.79081e-07
1.60479e-05
1.57811e-05
1.58568e-08
1.5856e-08
6.71754e-08
8.42054e-08
1.66364e-08
1.63621e-08
7.43347e-08
8.94993e-08
1.71509e-05
3.29449e-05
9.35707e-07
1.64768e-06
1.79486e-05
3.30342e-05
1.01434e-06
1.69574e-06
2.49722e-08
2.85825e-08
2.33371e-08
2.65094e-08
2.49562e-08
2.84781e-08
2.33636e-08
2.63887e-08
1.75205e-08
2.01448e-08
1.67242e-08
1.83228e-08
1.78662e-08
2.03247e-08
1.67454e-08
1.82292e-08
6.64945e-05
3.12966e-05
4.85348e-05
3.96029e-05
0.0225672
0.0774152
0.247359
0.245299
0.313029
0.31092
0.36369
0.361599
0.318809
0.320713
0.144068
0.0666594
0.0349166
0.017357
0.163513
0.0723111
0.0526991
0.0220076
0.000982468
0.0048855
0.00474986
0.00327972
0.00168006
0.00510166
0.00873011
0.0037179
3.10565e-05
0.000351258
0.000129027
0.000610685
7.60216e-05
0.000363973
0.000137848
0.000745215
9.1312e-05
0.00021147
0.00029149
0.000198933
9.58605e-05
0.00030286
0.00011366
0.000265088
0.000371883
0.000251289
0.000119573
0.000394267
6.77907e-05
3.02194e-05
4.73848e-05
3.81347e-05
0.000120386
7.25559e-05
0.000133214
7.47853e-05
0.0056769
0.000692962
4.52994e-05
1.25798e-06
4.07655e-08
1.14585e-08
1.00037e-08
1.00099e-08
1.19958e-08
6.73895e-06
0.00105034
0.00046643
0.0010345
0.00309816
0.00576357
0.000192551
0.000190612
0.00112733
0.00112712
0.000468602
0.000465954
0.00892456
0.00887467
3.32549e-08
5.528e-08
2.1479e-07
5.2423e-07
3.61186e-08
5.78539e-08
2.35841e-07
5.41815e-07
2.83104e-05
5.99761e-05
2.18611e-06
5.76646e-06
2.9345e-05
6.00701e-05
2.33857e-06
5.8469e-06
4.74845e-07
1.6864e-07
4.90934e-07
1.75863e-07
0.0210721
0.0652457
0.185692
0.185805
0.218439
0.216657
0.281844
0.280094
0.33544
0.333635
0.467346
0.298816
0.443669
0.26738
0.460291
0.29674
0.440174
0.265913
0.266489
0.153309
0.373862
0.223479
0.269424
0.153864
0.372697
0.222458
0.115462
0.0393508
0.0257607
0.00598322
0.139253
0.0473162
0.0436332
0.0100492
0.000266881
1.81996e-05
0.003052
0.000209035
0.000748018
3.44583e-05
0.00656868
0.000685719
0.00396029
0.000416133
1.54826e-05
4.55191e-07
3.63913e-08
1.26339e-08
1.00035e-08
1.02619e-08
1.51974e-07
8.93046e-05
0.00839881
0.00762803
0.0157832
0.0166254
0.37707
0.377046
0.524496
0.524837
0.0504603
0.0500861
0.103433
0.103654
0.0220227
0.015905
0.00380847
0.0907758
0.0220814
0.0159155
0.00383334
0.0908501
0.111281
1.07682
0.365187
0.430415
0.111161
1.07922
0.365374
0.429674
3.2757e-06
1.08904e-06
4.07931e-05
1.29427e-05
3.35266e-06
1.13475e-06
4.1252e-05
1.33012e-05
0.00342615
0.00081811
0.000506693
0.000132279
0.00341035
0.000824163
0.000504755
0.000133896
0.0140588
0.0524912
0.139475
0.233425
0.233305
0.265613
0.262982
0.334121
0.332153
0.345937
0.344378
0.457515
0.283363
0.422324
0.240668
0.453282
0.282024
0.424317
0.240854
0.256442
0.123342
0.336662
0.186477
0.262984
0.126165
0.339469
0.187334
0.0809067
0.0246663
0.104037
0.0309852
0.00227647
0.000128212
4.39424e-06
2.63595e-07
5.38727e-08
1.10514e-08
1.00038e-08
2.59716e-08
6.21133e-06
0.000960176
0.0317056
0.0579147
0.0434842
0.129324
0.680607
0.680025
0.700453
0.699935
1.07228
0.450237
0.470317
1.01747
1.07339
0.450629
0.469988
1.01572
0.65845
0.658302
0.338311
0.373656
0.103188
1.06813
0.338073
0.373518
0.103258
1.06576
0.506186
1.35864
0.60389
1.26731
0.505897
1.36249
0.604716
1.26521
0.113352
0.0322398
0.113001
0.0322585
0.00808142
0.0363737
0.0983215
0.304426
0.302332
0.322048
0.318666
0.312044
0.310744
0.331298
0.326252
0.313813
0.551074
0.319998
0.529288
0.314142
0.543349
0.317394
0.531554
0.310702
0.501542
0.297578
0.526243
0.310141
0.497673
0.296368
0.524906
0.444813
0.267011
0.378896
0.210721
0.443762
0.266686
0.384502
0.212297
0.214144
0.0922259
0.302804
0.152677
0.226041
0.0973131
0.309059
0.155256
0.000702118
3.07853e-05
1.70449e-06
3.74673e-07
2.9116e-08
1.01358e-08
7.02919e-07
0.000146536
0.00667922
0.0740167
0.173547
0.473605
0.699939
0.698923
0.555932
0.546273
1.15488
0.691472
1.14628
0.721216
1.15602
0.691505
1.14826
0.721271
0.869009
0.868779
1.31683
0.656472
0.659364
1.23691
1.31824
0.656828
0.659081
1.23614
1.17133
0.690433
1.19084
0.697231
1.17375
0.690691
1.18988
0.697001
0.603136
1.39799
0.681961
1.38392
0.603282
1.40207
0.682886
1.38493
0.00277069
0.0216427
0.0721476
0.175224
0.394855
0.39171
0.398511
0.391632
0.423791
0.419942
0.534653
0.314634
0.346923
0.564638
0.519147
0.309843
0.343856
0.554327
0.347521
0.631949
0.356947
0.601202
0.347777
0.629835
0.356472
0.602767
0.336998
0.523354
0.309329
0.583712
0.336097
0.519634
0.308417
0.580104
0.445397
0.271131
0.447393
0.271492
0.000161609
9.20131e-06
2.09517e-06
1.66363e-07
2.92862e-08
1.9043e-05
0.00180646
0.0309542
0.149421
0.418737
1.47171
1.47256
1.6638
1.66376
0.65571
0.653944
1.27685
1.25975
1.25531
0.707176
1.2646
0.752636
1.25646
0.70739
1.2658
0.752797
0.759033
0.960236
0.705866
1.18641
0.759124
0.965729
0.706023
1.18725
1.35043
0.714022
0.715726
1.3086
1.35021
0.714108
0.715385
1.30717
1.25838
0.698731
1.28646
0.70985
1.26015
0.699027
1.28583
0.709698
0.00069001
0.00856
0.0461648
0.127609
0.310122
0.308089
0.399711
0.397114
0.480959
0.476269
0.677899
0.373141
0.660196
0.384935
0.65627
0.366892
0.644693
0.379652
0.7121
0.388017
0.726531
0.396865
0.688666
0.374139
0.697857
0.38394
0.724576
0.396232
0.68044
0.372359
0.619287
0.349068
0.610595
0.347243
0.378918
0.672661
0.396605
0.627068
0.379238
0.674426
0.396775
0.63004
4.49432e-05
9.62274e-06
8.24138e-07
1.0993e-06
0.00031545
0.0119772
0.0927622
0.287572
0.815516
1.65626
1.64738
1.68666
1.68301
1.64457
0.623419
0.836469
2.38132
1.04872
0.564039
0.630516
1.658
0.565205
0.836722
2.40947
1.04801
3.26423
1.41417
3.06518
1.26912
3.20313
1.39539
3.04604
1.25835
1.30885
0.715254
1.32905
0.745576
1.30961
0.715432
1.32976
0.745722
0.67741
1.06069
0.677694
1.06184
0.719687
1.31519
0.719391
1.31402
1.28129
0.702333
1.28314
0.702618
0.000198971
0.00245481
0.0214165
0.0825425
0.233225
0.231509
0.290677
0.28867
0.325469
0.321711
0.430424
0.426588
0.434014
0.714862
0.405763
0.826574
0.416986
0.796027
0.431415
0.703253
0.401293
0.817481
0.413701
0.782634
0.776773
0.410536
0.761227
0.407143
0.803669
0.424686
0.801726
0.744224
0.432216
0.404253
0.792879
0.42253
0.801116
0.742289
0.432231
0.404013
0.668981
0.394094
0.664183
0.393188
3.88247e-05
3.28209e-06
3.1439e-05
0.00294278
0.0447983
0.183558
0.416085
1.14021
1.14
0.802704
0.796772
1.65838
1.64484
1.37486
1.37194
0.814398
1.91474
0.946352
0.658467
2.19973
1.03594
0.827249
1.90787
0.662807
0.945223
2.18781
1.03383
2.33013
1.1421
2.37819
1.11909
2.31184
1.13798
2.36745
1.11626
1.26451
0.716634
1.26534
0.716815
0.000141328
0.000780731
0.00735705
0.0433477
0.142526
0.282901
0.280748
0.306345
0.303408
0.458663
0.302016
0.479087
0.280666
0.449363
0.29774
0.473558
0.278736
0.649109
0.813173
0.355243
0.54999
0.311979
0.418199
0.642668
0.804055
0.353702
0.543225
0.309997
0.415871
0.463031
0.446346
0.902528
0.851497
0.460711
0.443172
0.892459
0.837867
0.832616
0.452175
0.819221
0.449461
0.845553
0.459583
0.790661
0.441995
0.838015
0.458205
0.79374
0.442802
1.15597e-05
0.000452361
0.0153769
0.102383
0.248508
0.276448
0.556793
0.557496
0.393345
0.391305
0.711491
1.5447
0.824824
1.22962
0.715151
1.55698
0.826694
1.24985
0.688715
0.693016
1.78501
0.910216
1.94064
0.969515
1.77852
0.908989
1.93548
0.968531
3.771e-05
0.000463162
0.00261771
0.0182883
0.0714534
0.236588
0.235282
0.338589
0.336042
0.339324
0.335544
0.36822
0.363947
0.567865
0.306529
0.53507
0.292868
0.564612
0.306003
0.540018
0.29394
0.792169
0.613418
0.415951
0.349907
0.575234
0.322016
0.788091
0.6094
0.349353
0.414886
0.574978
0.322051
0.48393
0.912281
0.480863
0.897714
0.00359966
0.0429645
0.155489
0.169728
0.347258
0.346174
0.173484
0.170457
0.663239
0.668379
0.562915
0.566636
0.571447
1.13294
0.628676
1.0211
0.573666
1.14109
0.630477
1.03119
1.04717
0.555363
1.02634
0.548302
1.05841
0.559977
1.0417
0.55144
1.27539
0.701085
1.27854
0.701883
0.000114956
0.00135282
0.00738809
0.0356291
0.105811
0.245574
0.243923
0.353324
0.34978
0.428711
0.420331
0.343667
0.598018
0.330366
0.544064
0.339942
0.586817
0.327281
0.53237
0.595268
0.325162
0.574503
0.324699
0.594474
0.325108
0.584653
0.326538
0.0129415
0.0776868
0.100985
0.0865136
0.344015
0.34385
0.196243
0.193159
1.07932
0.551812
0.427104
0.801688
0.439365
0.688127
1.09104
0.555005
0.430636
0.798918
0.438719
0.694885
0.413077
0.4177
0.556167
1.04502
0.574093
1.03059
0.557945
1.05162
0.575818
1.03759
1.05074
0.537461
1.06402
0.539886
0.000324616
0.00350158
0.016576
0.0560051
0.138026
0.137412
0.196827
0.195911
0.203805
0.204598
0.327951
0.324386
0.557047
0.343551
0.69717
0.368552
0.69302
0.371039
0.53754
0.335212
0.673589
0.362642
0.672308
0.366243
0.668802
0.359719
0.654529
0.357148
0.64796
0.362667
0.644328
0.362397
0.0279942
0.0469386
0.0435089
0.132382
0.129797
0.0861105
0.0855664
0.235551
0.234065
0.17582
0.17125
0.864859
0.458643
0.271345
0.585283
0.328714
0.416601
0.872868
0.459376
0.267718
0.576366
0.325278
0.395064
0.282701
0.259724
0.209972
0.192936
0.293928
0.267198
0.206675
0.196609
0.000829943
0.00784644
0.0298731
0.0819409
0.180185
0.178134
0.226255
0.223693
0.275369
0.272472
0.578096
0.321067
0.270322
0.451804
0.269913
0.34206
0.271263
0.450504
0.269517
0.343054
0.570855
0.318882
0.686325
0.716882
0.367739
0.384195
0.664314
0.692729
0.364237
0.380235
0.692958
0.384061
0.674763
0.381761
0.0167238
0.0204546
0.0493679
0.156126
0.154651
0.0866674
0.085989
0.189077
0.192761
0.193752
0.215249
0.18129
0.225984
0.197148
0.195987
0.197318
0.216128
0.181695
0.228276
0.171504
0.169269
0.202469
0.352105
0.191256
0.307952
0.150894
0.142637
0.140864
0.142443
0.00188554
0.0149446
0.0462099
0.119554
0.117011
0.152341
0.149682
0.154354
0.151933
0.222819
0.218614
0.316372
0.259775
0.414875
0.239273
0.441465
0.255131
0.305525
0.436717
0.25354
0.253076
0.40619
0.237204
0.505901
0.293701
0.459153
0.264241
0.456983
0.504859
0.263707
0.293273
0.0081364
0.0317658
0.0403922
0.149023
0.148386
0.0861308
0.0856219
0.142285
0.141208
0.166779
0.167942
0.136241
0.198784
0.147631
0.143879
0.17157
0.175463
0.138664
0.204887
0.205118
0.175777
0.223305
0.165339
0.204582
0.175763
0.225904
0.166641
0.11078
0.121979
0.113876
0.125084
0.00377594
0.0248638
0.0672112
0.150016
0.147333
0.15855
0.154816
0.196766
0.191336
0.353071
0.213435
0.255925
0.297288
0.194911
0.238412
0.345562
0.211074
0.252703
0.289546
0.192813
0.232055
0.394903
0.446581
0.222327
0.250336
0.439619
0.249117
0.387928
0.220983
0.0148017
0.0178385
0.0495122
0.0777035
0.077509
0.0498006
0.0230513
0.023354
0.11721
0.21022
0.174133
0.117362
0.209654
0.173679
0.137351
0.124184
0.13652
0.156963
0.120218
0.190174
0.143633
0.126137
0.139765
0.167215
0.123231
0.197848
0.225177
0.152774
0.228218
0.154105
0.00681194
0.0371875
0.0939315
0.155559
0.152927
0.178833
0.174063
0.239876
0.295189
0.286733
0.187694
0.28758
0.191314
0.226853
0.27556
0.186579
0.283551
0.274468
0.184309
0.33537
0.197206
0.286509
0.177878
0.32916
0.195974
0.278019
0.1764
0.376209
0.219939
0.370869
0.219034
0.00854449
0.0104767
0.0707068
0.0810756
0.070817
0.0809884
0.0641022
0.0640245
0.14586
0.178071
0.148702
0.189545
0.163159
0.127465
0.116701
0.128646
0.176065
0.141968
0.147296
0.188203
0.162252
0.125555
0.114013
0.124929
0.130146
0.198702
0.132268
0.204077
0.207043
0.139217
0.206291
0.13928
0.0109861
0.0498205
0.144341
0.184767
0.182401
0.141904
0.200356
0.197691
0.207329
0.247456
0.22381
0.203776
0.23847
0.219239
0.286169
0.2648
0.174656
0.161672
0.274481
0.172723
0.256605
0.159986
0.315178
0.202333
0.301053
0.199718
0.309994
0.201693
0.291024
0.199215
0.00530086
0.00974358
0.0927787
0.120345
0.120193
0.0937045
0.092743
0.11802
0.117543
0.0934399
0.0715408
0.0716079
0.182928
0.1581
0.195537
0.136753
0.129357
0.111616
0.178795
0.19303
0.152321
0.135877
0.127608
0.10917
0.128989
0.196984
0.129883
0.19844
0.0145202
0.0650801
0.176515
0.197766
0.195068
0.172984
0.223781
0.218838
0.260612
0.281572
0.181087
0.267103
0.200825
0.178045
0.231089
0.294222
0.255593
0.27738
0.178962
0.259253
0.197113
0.176467
0.223663
0.286117
0.29077
0.282525
0.188476
0.17252
0.281862
0.187647
0.275753
0.171515
0.00471731
0.098314
0.108573
0.108593
0.0980632
0.0869249
0.0867228
0.141677
0.124242
0.155826
0.122167
0.135551
0.132858
0.174508
0.140444
0.133199
0.165605
0.129377
0.137213
0.123958
0.157036
0.122225
0.135629
0.129199
0.168731
0.138303
0.133011
0.159504
0.125451
0.170187
0.171687
0.114804
0.116894
0.164184
0.170089
0.112617
0.115969
0.0148298
0.0565827
0.1441
0.262578
0.226253
0.248929
0.256345
0.226918
0.247552
0.138332
0.219465
0.208989
0.257755
0.246988
0.290299
0.159336
0.173364
0.153809
0.257098
0.245304
0.287288
0.17286
0.159105
0.153352
0.308257
0.198997
0.301207
0.198859
0.00561903
0.116197
0.121633
0.115957
0.121692
0.13573
0.135475
0.175381
0.203976
0.132658
0.122278
0.210864
0.131999
0.214543
0.204182
0.146352
0.196783
0.14603
0.163189
0.174984
0.152138
0.176076
0.199796
0.122001
0.131385
0.203414
0.128865
0.199131
0.205763
0.143606
0.189943
0.141928
0.159168
0.169994
0.148709
0.00807113
0.0414659
0.125341
0.120987
0.0412958
0.0240633
0.0204315
0.328919
0.211758
0.353914
0.214377
0.290479
0.310783
0.427278
0.242547
0.306042
0.209976
0.343211
0.210937
0.286133
0.296613
0.405904
0.237563
0.198645
0.346379
0.254631
0.189067
0.318456
0.241382
0.251275
0.290437
0.166448
0.181306
0.25204
0.286556
0.166278
0.18048
0.00758731
0.107929
0.13811
0.178168
0.149499
0.108072
0.137851
0.177556
0.14965
0.181213
0.18078
0.215983
0.131019
0.229773
0.141044
0.237202
0.221411
0.230299
0.144074
0.148246
0.139882
0.209724
0.12862
0.220469
0.137123
0.227238
0.223457
0.216562
0.141026
0.144406
0.138233
0.000441048
0.0168142
0.0569342
0.0537198
0.0170604
0.00470828
0.00316611
0.320508
0.403927
0.199812
0.224182
0.408544
0.217345
0.312392
0.384926
0.198891
0.221189
0.383027
0.212034
0.184603
0.256738
0.177288
0.32094
0.226259
0.187176
0.181704
0.28794
0.171019
0.237091
0.171014
0.291133
0.213843
0.179873
0.171108
0.272395
0.0572883
0.184609
0.184424
0.107389
0.127039
0.146657
0.128456
0.145981
0.143718
0.107838
0.128815
0.14634
0.127899
0.148759
0.144268
0.240182
0.233148
0.183796
0.144539
0.136889
0.122532
0.230945
0.224789
0.185288
0.140963
0.133963
0.12322
0.00171427
0.00448895
0.0347705
0.175541
0.121056
0.0298994
0.173853
0.118042
0.00445356
0.000570329
0.00128372
0.430729
0.229095
0.378403
0.205761
0.406541
0.225637
0.346293
0.200382
0.201893
0.0984074
0.287815
0.138153
0.185025
0.10142
0.188716
0.0899454
0.262462
0.182755
0.136856
0.0979257
0.0260862
0.157318
0.0820754
0.157403
0.0821573
0.0872114
0.125711
0.139879
0.128282
0.128399
0.178424
0.119902
0.0748369
0.088119
0.127086
0.138566
0.126807
0.130464
0.176712
0.119181
0.0760899
0.198753
0.121733
0.197805
0.121194
0.0110212
0.0117767
0.0107553
0.00742611
0.193016
0.0907584
0.193922
0.115963
0.0049269
0.187942
0.0749185
0.170093
0.113116
0.0103162
0.0120642
0.129322
0.213181
0.0724536
0.118546
0.172464
0.0843398
0.120293
0.200916
0.0637841
0.174652
0.118557
0.0801808
0.00591233
0.102116
0.150922
0.102162
0.151038
0.0721465
0.0723899
0.0657903
0.121557
0.0948956
0.116483
0.101413
0.108878
0.16906
0.117094
0.151984
0.18442
0.115904
0.0661404
0.124683
0.0965567
0.117511
0.105011
0.109581
0.165695
0.115454
0.154269
0.182947
0.115161
0.0183385
0.0407726
0.0794985
0.0395019
0.0772598
0.0106386
0.0106007
0.0194967
0.0184855
0.013843
0.0525049
0.0733513
0.0119544
0.00613314
0.0124738
0.0102522
0.00966406
0.0421218
0.0641389
0.0511181
0.0508073
0.0891172
0.0866602
0.0786228
0.0853608
0.00599609
0.208446
0.230739
0.208824
0.230759
0.112353
0.153738
0.11256
0.15395
0.14077
0.140643
0.0910138
0.0867662
0.100798
0.106124
0.0969903
0.101358
0.0908052
0.116558
0.107655
0.174181
0.112866
0.158684
0.0918734
0.0868816
0.100515
0.107754
0.0994758
0.103971
0.0920859
0.12264
0.107573
0.169728
0.111259
0.158897
0.00452369
0.0788428
0.0821536
0.0770021
0.0771946
0.107372
0.105633
0.0800845
0.0177525
0.0656268
0.136732
0.0165267
0.0290529
0.0334697
0.0385156
0.0266224
0.0677439
0.0602844
0.0787047
0.0210689
0.067965
0.134879
0.0156112