/*--------------------------------*- C++ -*----------------------------------*\
| =========                 |                                                 |
| \\      /  F ield         | OpenFOAM: The Open Source CFD Toolbox           |
|  \\    /   O peration     | Version:  5.x                                   |
|   \\  /    A nd           | Web:      www.OpenFOAM.org                      |
|    \\/     M anipulation  |                                                 |
\*---------------------------------------------------------------------------*/
FoamFile
{
    version     2.0;
    format      ascii;
    class       surfaceScalarField;
    location    "1.4";
    object      meshPhi;
}
// * * * * * * * * * * * * * * * * * * * * * * * * * * * * * * * * * * * * * //

dimensions      [0 3 -1 0 0 0 0];

internalField   nonuniform List<scalar> 
30582
(
0
0
0
0
0
0
0
0
0
0
0
0
0
0
0
0
0
0
0
0
0
0
0
0
0
0
0
0
0
0
0
0
0
0
0
0
0
0
0
0
0
0
0
0
0
0
0
0
0
0
0
0
0
0
0
0
0
0
0
0
0
0
0
0
0
0
0
0
0
0
0
0
0
0
0
0
0
0
0
0
0
0
0
0
0
0
0
0
0
0
0
0
0
0
0
0
0
0
0
0
0
0
0
0
0
0
0
0
0
0
0
0
0
0
0
0
0
0
0
0
0
0
0
0
0
0
0
0
0
0
0
0
0
0
0
0
0
0
0
0
0
0
0
0
0
0
0
0
0
0
0
0
0
0
0
0
0
0
0
0
0
0
0
0
0
0
0
0
0
0
0
0
0
0
0
0
0
0
0
0
0
0
0
0
0
0
0
0
0
0
0
0
0
0
0
0
0
0
0
0
0
0
0
0
0
0
0
0
0
0
0
0
0
0
0
0
0
0
0
0
0
0
0
0
0
0
0
0
0
0
0
0
0
0
0
0
0
0
0
0
0
0
0
0
0
0
0
0
0
0
0
0
0
0
0
0
0
0
0
0
0
0
0
0
0
0
0
0
0
0
0
0
0
0
0
0
0
0
0
0
0
0
0
0
0
0
0
0
0
0
0
0
0
0
0
0
0
0
0
0
0
0
0
0
0
0
0
0
0
0
0
0
0
0
0
0
0
0
0
0
0
0
0
0
0
0
0
0
0
0
0
0
0
0
0
0
0
0
0
0
0
0
0
0
0
0
0
0
0
0
0
0
0
0
0
0
0
0
0
0
0
0
0
0
0
0
0
0
0
0
0
0
0
0
0
0
0
0
0
0
0
0
0
0
0
0
0
0
0
0
0
0
0
0
0
0
0
0
0
0
0
0
0
0
0
0
0
0
0
0
0
0
0
0
0
0
0
0
0
0
0
0
0
0
0
0
0
0
0
0
0
0
0
0
0
0
0
0
0
0
0
0
0
0
0
0
0
0
0
0
0
0
0
0
0
0
0
0
0
0
0
0
0
0
0
0
0
0
0
0
0
0
0
0
0
0
0
0
0
0
0
0
0
0
0
0
0
0
0
0
0
0
0
0
0
0
0
0
0
0
0
0
0
0
0
0
0
0
0
0
0
0
0
0
0
0
0
0
0
0
0
0
0
0
0
0
0
0
0
0
0
0
0
0
0
0
0
0
0
0
0
0
0
0
0
0
0
0
0
0
0
0
0
0
0
0
0
0
0
0
0
0
0
0
0
0
0
0
0
0
0
0
0
0
0
0
0
0
0
0
0
0
0
0
0
0
0
0
0
0
0
0
0
0
0
0
0
0
0
0
0
0
0
0
0
0
0
0
0
0
0
0
0
0
0
0
0
0
0
0
0
0
0
0
0
0
0
0
0
0
0
0
0
0
0
0
0
0
0
0
0
0
0
0
0
0
0
0
0
0
0
0
0
0
0
0
0
0
0
0
0
0
0
0
0
0
0
0
0
0
0
0
0
0
0
0
0
0
0
0
0
0
0
0
0
0
0
0
0
0
0
0
0
0
0
0
0
0
0
0
0
0
0
0
0
0
0
0
0
0
0
0
0
0
0
0
0
0
0
0
0
0
0
0
0
0
0
0
0
0
0
0
0
0
0
0
0
0
0
0
0
0
0
0
0
0
0
0
0
0
0
0
0
0
0
0
0
0
0
0
0
0
0
0
0
0
0
0
0
0
0
0
0
0
0
0
0
0
0
0
0
0
0
0
0
0
0
0
0
0
0
0
0
0
0
0
0
0
0
0
0
0
0
0
0
0
0
0
0
0
0
0
0
0
0
0
0
0
0
0
0
0
0
0
0
0
0
0
0
0
0
0
0
0
0
0
0
0
0
0
0
0
0
0
0
0
0
0
0
0
0
0
0
0
0
0
0
0
0
0
0
0
0
0
0
0
0
0
0
0
0
0
0
0
0
0
0
0
0
0
0
0
0
0
0
0
0
0
0
0
0
0
0
0
0
0
0
0
0
0
0
0
0
0
0
0
0
0
0
0
0
0
0
0
0
0
0
0
0
0
0
0
0
0
0
0
0
0
0
0
0
0
0
0
0
0
0
0
0
0
0
0
0
0
0
0
0
0
0
0
0
0
0
0
0
0
0
0
0
0
0
0
0
0
0
0
0
0
0
0
0
0
0
0
0
0
0
0
0
0
0
0
0
0
0
0
0
0
0
0
0
0
0
0
0
0
0
0
0
0
0
0
0
0
0
0
0
0
0
0
0
0
0
0
0
0
0
0
0
0
0
0
0
0
0
0
0
0
0
0
0
0
0
0
0
0
0
0
0
0
0
0
0
0
0
0
0
0
0
0
0
0
0
0
0
0
0
0
0
0
0
0
0
0
0
0
0
0
0
0
0
0
0
0
0
0
0
0
0
0
0
0
0
0
0
0
0
0
0
0
0
0
0
0
0
0
0
0
0
0
0
0
0
0
0
0
0
0
0
0
0
0
0
0
0
0
0
0
0
0
0
0
0
0
0
0
0
0
0
0
0
0
0
0
0
0
0
0
0
0
0
0
0
0
0
0
0
0
0
0
0
0
0
0
0
0
0
0
0
0
0
0
0
0
0
0
0
0
0
0
0
0
0
0
0
0
0
0
0
0
0
0
0
0
0
0
0
0
0
0
0
0
0
0
0
0
0
0
0
0
0
0
0
0
0
0
0
0
0
0
0
0
0
0
0
0
0
0
0
0
0
0
0
0
0
0
0
0
0
0
0
0
0
0
0
0
0
0
0
0
0
0
0
0
0
0
0
0
0
0
0
0
0
0
0
0
0
0
0
0
0
0
0
0
0
0
0
0
0
0
0
0
0
0
0
0
0
0
0
0
0
0
0
0
0
0
0
0
0
0
0
0
0
0
0
0
0
0
0
0
0
0
0
0
0
0
0
0
0
0
0
0
0
0
0
0
0
0
0
0
0
0
0
0
0
0
0
0
0
0
0
0
0
0
0
0
0
0
0
0
0
0
0
0
0
0
0
0
0
0
0
0
0
0
0
0
0
0
0
0
0
0
0
0
0
0
0
0
0
0
0
0
0
0
0
0
0
0
0
0
0
0
0
0
0
0
0
0
0
0
0
0
0
0
0
0
0
0
0
0
0
0
0
0
0
0
0
0
0
0
0
0
0
0
0
0
0
0
0
0
0
0
0
0
0
0
0
0
0
0
0
0
0
0
0
0
0
0
0
0
0
0
0
0
0
0
0
0
0
0
0
0
0
0
0
0
0
0
0
0
0
0
0
0
0
0
0
0
0
0
0
0
0
0
0
0
0
0
0
0
0
0
0
0
0
0
0
0
0
0
0
-2.80642e-18
9.89771e-18
-4.01592e-25
2.96895e-17
1.48418e-17
1.98049e-17
0
0
0
0
0
0
0
0
0
0
0
0
0
0
0
0
0
0
0
0
0
0
0
0
0
0
0
0
0
0
0
0
0
0
0
0
0
0
4.93719e-18
1.55434e-34
-7.20188e-19
1.14428e-25
2.47187e-17
-1.97927e-17
-2.75934e-18
2.96895e-17
-4.94755e-18
2.96983e-17
-1.43232e-18
-3.13754e-25
-4.94412e-17
3.58381e-34
-2.12102e-18
2.96738e-17
7.17227e-18
-4.94564e-17
0
0
0
0
0
0
0
0
0
0
0
0
0
0
0
0
0
0
0
0
0
0
0
0
0
0
0
0
0
0
0
0
0
0
0
0
0
8.22484e-19
-4.26025e-18
3.12625e-17
-3.47503e-20
-5.91637e-17
-1.97034e-17
3.95223e-17
-1.29767e-35
-1.4114e-18
1.48313e-17
1.80185e-33
-7.28026e-19
2.00054e-25
2.46604e-17
0
8.40501e-17
-8.27152e-21
-3.9553e-17
-2.2094e-35
6.91564e-19
2.96738e-17
7.17227e-18
-2.9675e-17
-4.46272e-20
3.14805e-24
-2.95978e-17
2.76242e-34
-6.49446e-21
-3.94603e-17
0
0
0
0
0
0
0
0
0
0
0
0
0
0
0
0
0
0
0
0
0
0
0
0
0
0
0
0
0
0
0
0
0
0
0
1.55285e-17
2.95949e-17
1.97002e-17
4.98815e-18
5.05506e-20
2.32722e-34
8.90482e-20
5.3375e-20
3.45446e-17
1.13632e-17
-2.72686e-18
-1.94606e-17
-1.79296e-34
2.37895e-19
1.47472e-17
-2.65803e-18
-1.96646e-17
1.06428e-34
7.80181e-20
-4.93715e-18
0
4.23202e-19
8.59929e-24
8.59496e-18
-1.4726e-17
1.10478e-17
-1.47469e-17
0
0
2.05502e-18
-4.22275e-18
2.01898e-17
1.25879e-20
2.96513e-17
9.82282e-18
-5.91637e-17
-8.92543e-20
-3.94637e-17
-2.24677e-34
-9.87152e-18
-7.89605e-17
0
-4.00196e-24
2.2107e-17
-2.45356e-18
2.20923e-17
-4.92504e-18
0
-9.85314e-18
2.5441e-18
-9.93274e-18
9.84889e-18
-1.23187e-17
9.91843e-18
-1.24478e-17
2.47249e-18
0
0
0
0
0
0
0
0
0
0
0
0
0
0
0
0
0
0
0
0
0
0
0
0
0
0
0
0
0
0
0
0
0
-1.36198e-17
2.47612e-17
-1.97668e-17
1.48392e-17
1.0018e-17
-7.7909e-35
-4.25973e-18
2.95621e-17
2.69059e-18
-3.93285e-17
-2.91813e-34
1.0028e-17
1.48622e-17
0
-3.97223e-17
1.01283e-35
-2.10984e-11
-5.68012e-12
-2.11038e-09
8.48864e-14
-3.11799e-13
1.65565e-08
2.41594e-13
1.67571e-08
-1.47131e-10
8.96599e-19
-1.73266e-19
5.66429e-19
1.74026e-19
-5.00534e-18
1.91791e-17
1.25753e-18
1.18786e-17
2.2864e-18
3.70066e-34
-4.04518e-16
9.79456e-13
1.63804e-08
-1.30701e-14
3.3059e-08
6.92192e-19
1.20102e-18
2.68922e-17
4.90042e-18
3.42959e-17
0
-3.83318e-19
1.10583e-17
-4.91259e-18
1.59532e-17
-9.821e-18
8.04243e-19
8.22067e-20
0
-5.12709e-19
8.5673e-18
-8.28742e-32
8.28626e-19
1.92337e-23
-4.88637e-18
0
3.22459e-22
-7.16437e-16
9.59495e-19
-9.78248e-18
0
0
-4.03916e-17
4.98829e-18
9.97773e-18
-1.7106e-20
1.97002e-17
0
1.41607e-18
1.29055e-18
4.91338e-18
-7.09763e-18
-2.65792e-18
-2.11482e-33
0
1.6117e-22
1.47587e-17
-2.83403e-18
-9.81223e-18
-8.17044e-20
1.35067e-17
-4.90786e-18
8.59356e-18
-4.91856e-18
0
-9.84501e-18
5.00649e-18
-1.48563e-17
9.84286e-18
-1.47695e-17
1.23924e-17
-1.24237e-17
4.92769e-18
1.21829e-18
8.2089e-20
-1.39828e-18
8.55451e-18
0
8.17831e-20
-8.56887e-26
-8.55825e-18
-9.52331e-26
6.11317e-18
0
1.69492e-21
-1.39124e-18
0
0
1.95568e-17
-8.13845e-20
-1.32362e-18
9.79459e-13
0
1.38508e-10
-1.46199e-17
-1.00014e-18
1.6338e-19
1.70862e-17
8.1197e-20
-1.32306e-18
-9.85167e-18
3.7077e-17
-9.7844e-18
0
0
0
0
0
0
0
0
0
0
0
0
0
0
0
0
0
0
0
0
0
0
0
0
0
0
0
0
0
0
0
5.50536e-18
1.7205e-20
-9.84405e-18
1.00286e-17
-9.98165e-18
-2.48802e-35
-1.24717e-18
-1.49001e-17
1.38638e-17
-3.9537e-17
-3.50273e-35
-9.70399e-20
4.9164e-18
1.14377e-17
-1.97136e-17
1.09638e-25
4.75253e-09
-3.52611e-12
1.48508e-08
8.19212e-11
1.62894e-08
1.03907e-08
-4.83621e-18
1.97828e-17
1.55219e-12
-1.19055e-10
-3.80979e-27
-4.63099e-09
3.87273e-10
1.49434e-09
-1.38139e-10
4.76442e-10
-1.01235e-08
-1.42976e-12
-7.40738e-10
-1.26244e-12
2.4264e-10
1.3995e-19
-6.83019e-19
-8.02101e-19
-9.99048e-13
1.60128e-19
-2.28544e-13
-1.45294e-13
2.74629e-16
-1.21442e-34
-1.76388e-08
-3.96765e-16
6.70278e-20
5.28913e-13
1.97106e-17
-3.40965e-34
-9.31304e-11
-4.8942e-18
0
2.14712e-09
1.62604e-08
8.00202e-20
-4.89473e-19
-9.92575e-18
0
6.17218e-19
-7.68119e-20
1.07186e-17
-1.30766e-18
4.07905e-18
6.23047e-19
-6.69922e-20
-1.78487e-19
1.47781e-17
-1.20782e-18
-2.33859e-17
5.07903e-19
1.72021e-17
0
-5.22384e-13
7.0522e-12
1.30597e-12
4.66228e-11
1.15832e-34
1.94977e-08
-2.0636e-09
-3.81785e-24
1.96736e-17
-4.33356e-35
-1.60137e-17
0
5.30526e-19
1.39586e-18
4.79883e-18
-9.89202e-19
-1.14658e-17
4.13267e-18
6.92224e-20
9.82551e-18
-1.84644e-17
6.72175e-19
8.22069e-20
0
-1.02767e-18
1.10214e-17
8.19081e-20
7.38432e-19
-2.44008e-18
0
-7.18879e-16
5.43331e-19
-1.96074e-17
-2.22852e-09
-8.24005e-20
0
2.10002e-09
2.53002e-11
0
1.17537e-13
4.26459e-22
-3.12725e-13
0
2.27795e-21
1.6421e-08
7.83595e-14
-1.63295e-14
0
0
-1.36198e-17
1.49217e-17
-9.85125e-18
-4.99427e-18
-9.81513e-18
4.63466e-34
4.09177e-18
1.34065e-18
9.96498e-18
-2.91463e-18
1.08617e-19
0
-5.52774e-34
4.96875e-18
0
0
9.10521e-17
1.82197e-08
-3.91789e-12
1.75721e-08
-2.45428e-18
-2.7044e-15
-2.43229e-18
6.92109e-19
-9.69845e-18
1.2389e-17
-4.90028e-18
2.69417e-17
0
-2.00792e-12
-1.45574e-10
7.18149e-14
-1.27495e-12
1.72567e-08
-1.50854e-17
-4.28807e-15
-2.29504e-09
1.02873e-21
2.33686e-18
-1.21891e-18
3.26957e-20
4.19622e-17
-6.14879e-18
3.95485e-17
3.91861e-18
9.96137e-19
8.20894e-20
-1.4196e-18
2.57276e-17
8.17617e-20
8.17873e-20
-1.22259e-18
1.46712e-17
-2.36029e-36
-2.45325e-18
-1.00033e-18
1.63612e-19
0
2.44573e-17
0
-1.47334e-18
5.35427e-13
0
1.67242e-08
-1.70944e-17
-1.2995e-18
8.1689e-20
2.81286e-17
0
-1.43766e-18
-2.45045e-18
1.71703e-17
9.81883e-34
6.54614e-19
-1.64748e-19
-2.85933e-18
2.69962e-17
0
2.97659e-19
-2.2094e-24
-1.00998e-21
-1.02059e-23
4.86612e-17
1.00403e-19
-2.45282e-18
8.17997e-20
0
-1.6369e-08
-1.58347e-13
-8.1772e-20
9.58988e-18
-3.6141e-18
0
0
0
0
0
0
0
0
0
0
0
0
0
0
0
0
0
0
0
0
0
0
0
0
0
0
0
0
0
-1.68897e-17
2.47826e-17
-2.31416e-20
-4.92716e-18
-4.68352e-20
-8.8374e-34
-2.46215e-18
1.96667e-17
2.23121e-17
-1.96137e-17
-1.35661e-33
5.87945e-18
-1.98345e-17
5.88127e-18
-1.94379e-17
-3.9109e-26
-4.53897e-09
1.59271e-10
-1.67599e-08
-4.069e-09
-1.67647e-08
-9.92381e-09
9.23696e-13
-3.09942e-10
-8.16232e-13
8.12773e-09
-1.19152e-26
6.7204e-11
-4.20123e-09
1.68314e-08
-4.12681e-09
1.6679e-08
1.42729e-10
4.04032e-13
8.4143e-09
7.55006e-13
8.24678e-09
7.43651e-20
6.33391e-12
-1.30595e-12
2.02793e-08
-1.10393e-34
-2.06194e-09
7.70423e-20
-5.1732e-09
3.16312e-17
1.52565e-26
-1.83787e-12
-2.18782e-17
0
-3.57853e-18
5.0417e-18
6.67869e-19
-1.29317e-17
-7.6957e-20
1.95214e-12
1.21581e-17
1.03452e-08
-3.52232e-17
-7.79377e-20
-7.0522e-12
4.89975e-09
7.53468e-18
-2.01563e-08
1.51376e-26
1.83031e-12
-1.41681e-15
7.90799e-20
2.49873e-17
-1.43533e-26
-1.24374e-17
-1.55708e-19
-1.51437e-18
-1.82971e-12
8.85084e-18
7.2736e-18
-9.79803e-09
6.64657e-18
7.90005e-20
1.49922e-17
-1.98765e-17
-3.37594e-24
4.57087e-13
-3.96301e-25
-2.47651e-18
-6.69118e-17
-7.9606e-35
1.31189e-34
2.79071e-09
-2.47209e-24
6.52971e-14
-4.67711e-34
-8.83119e-09
-1.45333e-33
5.36242e-20
-3.17402e-34
-8.25441e-19
-1.16175e-18
2.04004e-18
-2.79019e-20
-4.90219e-19
1.94716e-19
0
9.3521e-19
2.53901e-19
-1.28432e-18
-1.39701e-35
2.32893e-16
3.63084e-20
-4.6991e-34
-4.28206e-34
1.39102e-19
-7.90701e-19
-1.25537e-18
-2.32961e-18
0
8.20665e-11
1.64794e-19
0
2.17006e-09
-1.65722e-08
-1.91028e-24
6.00594e-19
1.37628e-14
0
-1.6436e-08
3.265e-14
-1.55093e-13
-1.22631e-09
4.50947e-20
7.89262e-34
1.37987e-09
-4.26967e-20
-1.17537e-13
-2.38512e-21
3.70112e-34
-4.10895e-21
-7.83575e-14
0
0
5.73703e-18
9.97995e-18
-1.32932e-32
-9.86052e-18
-9.87793e-18
1.43322e-35
8.50349e-18
-3.90664e-19
4.89282e-18
-1.37693e-17
1.16353e-17
-5.91903e-17
1.2523e-35
4.86814e-18
-3.94707e-17
1.67067e-26
-4.75247e-09
-4.63105e-09
3.91647e-10
1.8473e-08
-1.41559e-10
1.72155e-08
-1.03908e-08
-1.01235e-08
-1.48281e-12
-7.40713e-10
-1.25971e-12
2.42664e-10
-4.8076e-25
-1.20802e-12
3.26685e-08
8.16934e-11
1.62896e-08
-3.62699e-18
1.4837e-17
1.55763e-12
-1.19006e-10
-7.1593e-20
-2.76289e-19
-7.00322e-12
-4.57089e-13
-1.94776e-16
0
-1.94973e-08
-1.62081e-08
-1.38514e-19
1.19814e-18
1.72335e-17
0
-1.01783e-16
-1.46945e-17
7.15389e-20
3.40938e-19
7.11926e-19
3.80726e-20
4.99571e-19
-4.90125e-18
6.24624e-18
-6.92145e-20
6.9308e-19
7.36373e-18
-9.45919e-19
-2.33221e-17
-6.99765e-20
-1.70859e-18
-6.69306e-13
-9.99049e-13
8.00637e-20
1.50185e-13
2.46492e-13
2.00177e-17
0
-1.76388e-08
-3.59772e-09
6.70318e-20
2.45286e-17
0
-2.08531e-17
0
-2.52905e-10
3.39448e-08
-6.99686e-20
-5.82122e-19
3.98691e-19
-2.53892e-19
8.00203e-20
-3.03723e-19
-4.95626e-18
5.24003e-19
-4.52492e-18
4.07893e-18
6.69919e-20
9.84579e-18
-1.09692e-17
4.44421e-19
3.20448e-17
1.37997e-18
-8.2373e-20
-3.39425e-18
3.43532e-17
2.06975e-33
1.62056e-19
-2.43263e-18
2.67686e-17
-2.31663e-19
-1.12183e-21
0
0
1.64796e-08
4.06476e-13
-8.17732e-20
2.89544e-17
-3.62432e-18
-4.28177e-19
-4.50635e-20
-5.50795e-19
-4.26706e-20
1.05727e-19
-5.53115e-24
3.09662e-23
-5.5389e-20
-4.87154e-20
1.69321e-34
-4.86961e-20
0
0
0
0
0
0
0
0
0
0
0
0
0
0
0
0
0
0
0
0
0
0
0
0
0
0
0
0
7.42363e-17
8.18824e-34
8.60516e-18
-9.93437e-18
2.78214e-17
-9.77946e-18
3.71628e-33
8.28606e-18
4.88908e-18
-1.68825e-17
-2.96508e-17
-4.86774e-25
-5.82167e-18
3.89776e-09
2.79278e-17
8.53016e-09
-6.13766e-34
-1.40042e-17
2.46662e-17
2.89564e-17
-4.93334e-17
1.51447e-19
-2.48132e-12
-3.89182e-18
-2.62531e-10
0
-1.4152e-15
-2.30524e-19
4.96697e-09
-2.45666e-17
0
2.48949e-12
9.83852e-18
1.51322e-19
-7.47006e-19
-3.71078e-18
-7.8112e-18
2.20613e-17
-7.67556e-20
-1.67326e-12
-1.63631e-20
-9.93074e-09
1.84398e-17
-7.83003e-20
-3.33021e-12
-1.05985e-10
2.54661e-12
-4.56189e-10
0
4.5361e-10
1.68338e-08
1.55809e-19
-2.45883e-17
0
8.56118e-18
-7.82078e-20
-2.44779e-18
5.55037e-13
-9.88126e-18
2.82805e-18
2.24862e-10
2.70976e-17
-7.78301e-20
-1.22886e-17
1.841e-17
1.31334e-24
3.26487e-13
4.45986e-11
-1.34313e-34
4.71848e-20
3.26487e-13
-3.80785e-34
-1.07032e-10
4.17719e-20
-8.5381e-19
1.76385e-18
-4.72112e-20
-1.03607e-18
2.7425e-18
-7.45996e-20
-5.99997e-18
1.60096e-18
1.23972e-17
-6.0538e-16
-1.24913e-34
1.83514e-16
3.25555e-15
-6.0805e-20
-5.51182e-34
7.46035e-20
1.40113e-19
-6.86879e-19
1.36257e-18
6.62758e-18
-1.37374e-18
-3.80161e-17
-6.0812e-20
8.32762e-11
4.50939e-20
5.33922e-34
1.19813e-09
-4.2695e-20
-7.01954e-14
2.44278e-34
-3.26488e-14
0
0
2.7877e-17
-4.9387e-18
-9.92107e-18
-1.48047e-17
1.98109e-17
-9.11473e-35
2.46215e-18
1.14698e-17
-9.09831e-20
-1.68069e-17
-6.64659e-32
-3.94252e-17
-6.20586e-34
9.7531e-18
-3.93875e-17
5.28801e-27
4.53918e-09
-1.57639e-17
-5.70543e-12
-1.68318e-08
-4.11865e-09
-1.66805e-08
9.92403e-09
1.95937e-17
-4.95058e-18
1.48431e-17
7.18271e-13
8.24695e-09
3.91091e-26
1.59079e-10
-1.67598e-08
-4.06922e-09
-1.67648e-08
9.27767e-13
-3.09905e-10
-8.16229e-13
8.12773e-09
-7.79402e-20
-9.01114e-12
4.89966e-09
1.2518e-17
-2.048e-08
0
1.83031e-12
-1.40954e-15
0
5.17301e-09
2.75227e-17
0
1.78209e-12
-5.1124e-18
0
-1.58576e-18
-1.82971e-12
9.07624e-18
1.05813e-17
-9.79803e-09
1.55098e-18
0
-1.89637e-12
1.00707e-17
-1.03452e-08
-2.00096e-17
0
6.5951e-12
4.57088e-13
2.02793e-08
0
-1.62573e-08
-7.70507e-20
1.47866e-17
0
-1.10188e-17
-6.7926e-34
-2.22753e-18
-2.25409e-18
7.57689e-19
1.316e-17
7.69576e-20
7.34565e-18
-2.31607e-17
-3.85829e-20
6.52984e-14
2.13851e-12
-9.99901e-09
0
1.06812e-08
2.04662e-24
-1.50184e-13
0
7.90406e-09
-2.95279e-33
-9.33761e-20
-1.06905e-20
6.80314e-19
-1.16505e-18
0
4.90248e-19
-2.05476e-18
-5.97949e-20
1.38759e-13
-3.96302e-25
-4.06933e-18
-6.58776e-17
0
2.99289e-34
1.44437e-09
2.3857e-24
0
5.97715e-20
1.25439e-19
-3.20378e-34
-2.94067e-19
3.8118e-18
-8.74545e-19
0
8.08766e-19
0
-1.3232e-18
-4.26727e-20
-1.2413e-20
-5.69069e-20
-4.87117e-20
3.89271e-34
0
0
0
0
0
0
0
0
0
0
0
0
0
0
0
0
0
0
0
0
0
0
0
0
0
0
0
0
2.93371e-18
-1.00706e-34
-2.20448e-17
-1.98027e-17
-3.95677e-17
-7.86598e-22
-1.97892e-17
-2.92263e-33
-2.8781e-18
4.97678e-18
1.04794e-17
-2.942e-17
-2.06815e-33
9.91051e-18
-3.95051e-17
0
-2.82001e-18
-1.04477e-12
-4.73527e-10
1.48828e-17
-1.7341e-17
-6.98131e-16
-7.31968e-18
-1.14838e-18
-2.96292e-18
1.5603e-17
1.7301e-17
-7.35137e-18
2.20109e-17
-3.33099e-20
0
1.19125e-18
3.58374e-18
-1.73515e-17
8.51057e-18
-1.97236e-17
1.39718e-17
1.10519e-17
7.45687e-18
2.09203e-17
0
0
-2.11792e-19
-1.32878e-17
-3.30093e-18
0
4.04079e-17
0
7.16995e-18
-1.70392e-17
0
-6.2206e-18
1.45569e-17
0
-1.43546e-18
1.21568e-18
-1.38565e-18
1.31722e-17
-7.57239e-20
6.85703e-19
-2.35334e-18
-7.28775e-18
2.32312e-17
0
-8.97289e-18
-9.30331e-18
5.48682e-18
0
-6.67582e-16
9.05264e-34
-4.79928e-18
0
3.59949e-18
-7.05957e-34
1.82353e-18
5.0854e-18
8.25507e-18
2.07048e-17
-7.90344e-20
-7.32899e-18
1.08885e-17
-7.0238e-32
3.54571e-19
-4.32185e-35
-1.94247e-16
6.62279e-34
1.6279e-18
3.34571e-18
0
0
0
7.42519e-17
-1.58715e-33
-1.16798e-19
2.63366e-18
-4.97539e-18
-1.08448e-17
-2.24582e-17
-1.98444e-17
-9.75984e-34
-1.03157e-19
-3.94807e-17
7.42724e-36
1.96256e-19
-1.41938e-17
2.46661e-17
-1.70714e-17
2.81984e-17
-9.57493e-18
-4.00146e-35
-1.60993e-17
-2.45131e-18
3.38521e-31
3.3302e-12
-6.48899e-12
-2.54664e-12
4.56189e-10
0
-4.54164e-10
-1.68339e-08
7.79083e-20
-4.96688e-09
-2.21203e-17
0
-2.50581e-12
1.96451e-17
7.82076e-20
-2.96182e-18
2.78485e-18
-7.4328e-18
6.87542e-18
-7.39848e-18
1.84204e-17
0
1.67326e-12
-7.37364e-18
9.93047e-09
2.58252e-17
-7.57222e-20
-2.67722e-12
-1.60977e-17
-2.63029e-10
0
-1.41147e-15
7.68464e-20
-2.70356e-17
0
1.2319e-17
7.56599e-20
3.12086e-18
-1.10713e-17
-5.51335e-18
2.6844e-17
7.6753e-20
-9.82743e-18
1.72271e-17
0
-6.17734e-18
1.60688e-18
1.11618e-17
-6.02065e-16
0
1.80864e-16
3.97814e-15
6.07997e-20
-3.26487e-13
0
1.07032e-10
0
-1.40486e-18
-1.35421e-18
-2.63677e-18
9.01586e-18
-2.72179e-18
-3.28241e-17
1.21624e-19
1.03607e-18
-2.7425e-18
-4.17476e-20
3.26488e-13
4.45986e-11
0
0
0
-3.74764e-33
-1.2741e-18
2.16409e-18
-4.7211e-20
0
0
0
0
0
0
0
0
0
0
0
0
0
0
0
0
0
0
0
0
0
0
0
0
0
0
-1.48965e-17
5.25786e-33
1.13778e-17
1.64178e-17
4.87415e-18
1.60658e-17
-1.69389e-17
-4.94668e-17
7.43256e-33
-1.98789e-17
-4.93988e-18
0
-2.97007e-17
4.05617e-25
2.79163e-18
4.16919e-09
-3.34655e-13
5.60543e-12
4.23796e-09
5.5842e-18
3.3465e-13
-8.33838e-09
-8.45132e-09
8.36632e-13
1.94647e-33
5.1046e-18
-9.59962e-18
-2.09154e-19
7.60986e-20
0
4.92753e-18
-1.48028e-17
7.26986e-20
-1.58157e-18
2.15483e-12
7.18285e-13
0
1.88324e-08
1.68039e-08
-2.81833e-18
4.9719e-18
-1.74286e-18
9.16416e-35
1.0635e-17
-9.92551e-18
0
-1.48776e-18
-1.75637e-20
7.29917e-18
9.80812e-18
-1.58253e-17
-2.89428e-18
-4.90941e-18
-1.56256e-17
7.69774e-20
0
2.20121e-18
7.69819e-20
-1.6672e-17
-9.37028e-12
-2.67724e-12
0
-7.03439e-10
-1.65424e-08
-9.88081e-18
-2.32313e-17
1.53837e-19
1.22171e-17
7.68881e-20
-4.31461e-18
7.50562e-19
2.42569e-18
-7.31008e-18
1.84753e-17
-2.44373e-18
0
-2.21953e-18
9.64297e-19
0
0
1.50897e-18
0
-1.00481e-18
3.02857e-20
5.1001e-19
8.08783e-19
4.48047e-20
1.51663e-18
-2.78063e-18
7.66526e-20
-8.4888e-13
2.6121e-13
1.72017e-08
0
3.4814e-08
-5.93761e-20
0
-2.54129e-33
3.55657e-19
9.45344e-18
7.15872e-18
-3.02653e-17
-1.18771e-19
0
0
0
0
-2.85841e-18
-5.71682e-18
-2.23572e-17
-9.95392e-18
-6.94454e-17
4.96024e-18
-2.97236e-17
1.86817e-33
2.70638e-18
-1.48818e-17
-2.19906e-17
-2.96284e-17
1.893e-33
2.46194e-17
-4.94126e-17
0
2.53178e-18
3.0097e-18
1.22662e-17
-1.11011e-17
1.10239e-17
-9.88599e-18
0
3.37806e-17
1.84112e-17
-1.11762e-17
1.59341e-17
-2.47854e-18
0
-2.7262e-12
-1.95545e-08
6.14898e-18
-4.57088e-12
9.2943e-11
-2.381e-18
-1.34162e-18
2.06078e-17
6.10261e-18
-4.89217e-18
1.09501e-17
-7.38933e-18
7.92877e-20
-6.97003e-18
4.57086e-12
6.92066e-18
0
1.24795e-09
-1.58132e-19
-5.48612e-18
-1.94873e-17
0
3.28158e-18
3.63448e-18
1.58495e-19
-3.53361e-18
4.5645e-20
6.57706e-18
5.40303e-18
7.90422e-20
-2.05732e-18
2.44978e-18
6.82735e-18
1.45933e-17
-7.17992e-20
3.34898e-18
1.26007e-19
-3.82769e-18
0
6.81087e-16
-7.57547e-20
-1.22294e-17
0
2.35294e-18
1.43551e-19
5.38667e-19
-9.72415e-18
-4.5456e-18
-5.01449e-18
1.5145e-19
-9.51561e-18
8.64792e-18
-1.67051e-31
-1.58693e-18
0
-3.12257e-16
3.54467e-34
9.49692e-19
9.04331e-19
0
0
0
0
0
0
0
0
0
0
0
0
0
0
0
0
0
0
0
0
0
0
0
0
5.1787e-18
0
-2.80396e-17
1.97694e-17
-2.97546e-17
-1.47382e-17
-1.97122e-17
-1.50441e-24
4.74291e-09
-4.52404e-09
4.07277e-09
5.42836e-13
-4.4619e-09
-2.95197e-12
1.03485e-08
-9.89346e-09
-5.42796e-13
-8.14598e-09
2.95201e-12
8.92465e-09
4.73713e-24
4.00621e-09
8.74128e-09
-7.81615e-20
1.816e-10
2.67721e-12
1.32636e-12
-1.10426e-25
-1.66484e-08
-1.59325e-19
-2.36586e-25
2.05143e-08
4.44604e-10
-7.77047e-12
7.77045e-12
0
-8.36626e-13
-7.39065e-18
-3.61878e-10
2.21687e-17
1.59038e-19
-1.24783e-17
4.42306e-17
-1.20955e-19
-7.41885e-18
-3.10304e-26
-2.04753e-08
-4.96266e-12
3.99678e-09
-7.81709e-13
-7.49993e-18
-3.55492e-15
1.93181e-17
-1.64161e-18
7.79499e-13
-7.99353e-09
2.54849e-18
2.9742e-17
-1.27676e-08
0
0
-1.38464e-09
-3.51673e-20
1.30591e-13
-1.79568e-13
0
2.00399e-08
-3.91793e-13
-6.54455e-18
0
-5.1716e-18
1.65561e-33
9.64634e-22
1.70038e-18
-5.03646e-18
-5.81762e-19
1.91341e-08
0
0
-1.7941e-08
0
1.37125e-12
2.20382e-12
5.22384e-13
0
1.96226e-08
-2.6543e-09
2.12225e-13
-1.90379e-17
1.51181e-19
-1.07556e-17
-7.41294e-20
-2.84738e-18
2.68285e-18
1.08614e-18
-2.19475e-17
-1.18958e-18
5.34508e-18
-2.13456e-24
0
5.90147e-34
0
0
0
0
0
-1.48965e-17
-5.8843e-33
-2.85395e-19
8.40294e-18
1.48791e-17
-1.62564e-17
0
-2.97009e-17
-1.7111e-33
2.3894e-18
4.98909e-17
-1.66782e-17
-2.96075e-17
-8.19654e-34
2.79409e-18
1.97528e-17
-1.05958e-17
-1.99432e-17
-7.41263e-25
4.18815e-09
-1.22705e-12
1.9382e-11
4.3987e-09
1.22706e-12
-8.37753e-09
-8.71386e-09
2.45412e-12
-9.18261e-18
-7.6978e-20
0
-8.00568e-18
2.55035e-18
2.34188e-24
-7.98062e-18
2.14695e-11
6.5298e-12
0
2.03259e-08
-8.94012e-11
1.15884e-17
-2.65786e-19
-1.45722e-17
-7.69216e-20
-1.13747e-17
1.43554e-18
0
-5.77242e-18
2.20255e-18
-2.48045e-18
0
9.81163e-18
4.37979e-18
7.43683e-18
-2.02413e-18
-1.08029e-33
0
-1.60404e-17
-7.26906e-20
1.85487e-19
-5.87683e-12
-1.63244e-12
0
-3.77965e-08
-4.92387e-10
1.97424e-17
1.65024e-18
0
-2.34419e-17
0
1.34941e-18
-7.12483e-19
-3.69579e-18
1.81889e-17
-2.42415e-17
7.41683e-18
-7.66415e-20
-6.52985e-13
2.72621e-12
-1.50595e-09
0
1.95177e-08
5.93744e-20
3.91786e-13
0
1.36942e-08
-7.66492e-20
2.33349e-19
2.75497e-18
5.30487e-18
-2.74138e-17
5.93847e-20
-5.03421e-19
3.047e-18
-6.05111e-20
-2.39506e-18
9.64271e-19
0
4.47721e-20
0
0
-1.66846e-18
1.7782e-18
-4.4794e-20
0
0
0
0
0
0
0
0
0
0
0
0
0
0
0
0
0
0
0
0
1.69366e-17
-3.14157e-22
-1.00317e-17
1.00092e-17
-9.85908e-18
-1.30924e-33
-1.39724e-17
1.40913e-17
2.23953e-21
1.63952e-17
0
-1.98279e-17
-1.99069e-33
1.22392e-19
1.50581e-17
-2.45131e-19
-4.12647e-17
2.33422e-19
1.40201e-17
4.82646e-09
-1.00097e-17
8.27431e-16
0
9.90158e-13
-2.8422e-15
-1.57326e-19
-5.28927e-09
-1.45806e-17
0
-6.42915e-12
1.7119e-17
-7.77501e-20
2.90326e-18
-9.91715e-13
1.43493e-19
-2.04306e-17
-9.65195e-09
3.27193e-17
0
5.13134e-12
-2.34977e-18
1.05724e-08
2.43537e-17
0
-6.62771e-18
6.02167e-18
4.89062e-18
1.24655e-17
-8.94306e-18
9.78153e-18
1.77821e-18
1.21855e-17
-3.66677e-18
0
-1.76103e-17
-9.77956e-18
0
-1.17535e-12
-1.71006e-18
-2.10076e-08
1.67298e-33
-4.11107e-17
0
3.38449e-33
-9.76926e-10
-3.98319e-12
1.58796e-33
3.36014e-18
-3.66054e-18
-2.10382e-17
7.97512e-18
-8.07312e-20
1.22313e-17
-1.07893e-18
1.57077e-19
-7.05297e-18
-2.40983e-17
7.47479e-17
0
-2.83919e-15
0
7.44433e-18
4.93997e-18
0
5.46619e-17
4.81251e-18
-7.84344e-20
9.02306e-19
-7.73324e-20
9.25641e-18
4.44117e-17
-7.66673e-20
1.20985e-18
-5.01374e-18
-2.80199e-18
1.20765e-18
3.07139e-09
1.45935e-24
0
-7.08699e-20
4.89723e-14
3.5261e-12
0
2.65802e-08
-1.92505e-18
-1.13454e-33
3.54447e-20
-8.69809e-19
1.0248e-18
-8.10579e-18
0
0
0
0
0
0
1.67817e-17
0
6.19886e-17
-4.6081e-18
-1.03169e-17
-9.78531e-18
-1.98702e-17
-1.85593e-24
-4.61252e-09
7.91324e-11
-1.00726e-08
1.56182e-10
2.2863e-24
1.5615e-10
4.21354e-09
6.16572e-10
-1.74668e-10
8.08594e-10
3.35068e-10
5.15581e-13
-8.45873e-09
1.94397e-12
3.97494e-10
5.77768e-27
1.97141e-08
-5.09326e-12
4.32877e-09
1.84149e-08
3.93421e-12
1.78932e-08
-1.64878e-12
-8.54175e-10
7.45795e-18
-1.20261e-19
-9.68594e-13
-8.59457e-09
-1.32358e-18
4.45846e-18
-1.38815e-18
1.65393e-17
7.81641e-20
5.27795e-09
-6.52982e-12
4.79668e-12
-1.43198e-25
6.53799e-12
0
-7.23316e-26
1.64052e-08
-5.09326e-12
-7.80989e-20
-2.45412e-12
-7.3905e-18
-1.05486e-08
3.69021e-18
-7.95121e-20
5.89777e-18
-9.94444e-18
-1.91345e-08
0
0
1.71201e-08
1.78496e-08
0
-7.18287e-13
8.88055e-12
-7.43649e-18
0
4.07441e-08
6.64929e-17
-5.87681e-13
-3.10163e-13
-1.92822e-18
0
2.3628e-18
-2.71684e-18
7.41363e-20
-5.69632e-18
4.3007e-18
2.41964e-18
-2.79379e-18
4.74099e-18
6.33386e-18
-1.32817e-18
1.24161e-08
0
0
-1.41579e-24
1.30591e-13
-2.00791e-12
0
-5.17206e-09
-8.98099e-18
-5.69805e-20
0
7.88736e-20
4.7982e-19
-7.23492e-18
3.35936e-24
0
4.34124e-34
0
0
0
0
0
0
0
0
0
0
0
0
0
0
0
0
0
1.9958e-17
-4.80266e-35
-1.134e-17
-5.66164e-18
-1.74687e-19
-2.02043e-17
1.38147e-34
3.55444e-19
-1.5318e-19
1.13398e-17
-3.00149e-17
-1.01776e-24
-4.56512e-09
1.54267e-11
1.92194e-08
-2.08954e-12
2.36706e-12
-3.44732e-08
1.53604e-10
-1.69857e-08
1.89599e-08
-9.98686e-09
1.96323e-19
1.33824e-17
1.40362e-18
2.55121e-18
3.07277e-18
-1.00463e-17
-1.29236e-12
-3.2838e-10
2.99509e-24
-4.68533e-09
4.64398e-09
1.74812e-08
1.78443e-10
1.71399e-08
-1.0224e-08
-3.66894e-12
-9.25086e-09
4.80213e-13
-3.70155e-10
-7.63896e-20
1.74106e-17
-3.72199e-12
-9.79471e-13
-1.53004e-17
0
-1.95026e-08
-3.62813e-11
0
-1.47358e-17
0
1.22158e-17
-9.90829e-34
3.24231e-18
-6.84659e-19
3.67465e-18
-2.03335e-17
5.24539e-18
6.02253e-24
0
-7.41983e-18
1.10433e-17
8.3967e-18
7.54794e-20
0
-1.97932e-18
-1.71696e-17
-7.99431e-20
1.05624e-17
-1.30595e-12
0
1.62283e-08
4.06444e-18
2.93099e-17
1.15119e-17
-7.54421e-20
2.14459e-19
-2.69207e-17
-7.97214e-20
1.35426e-18
3.68082e-18
-9.2574e-18
1.0663e-19
9.63939e-18
0
1.17537e-12
-1.92569e-08
0
-7.9034e-20
0
-2.02052e-17
1.33783e-17
1.17068e-19
-1.03628e-18
-1.37437e-17
1.52811e-33
-3.91217e-17
5.37047e-18
0
-2.61197e-13
1.55083e-12
-1.08616e-09
0
1.73421e-08
9.81927e-20
-3.91782e-13
0
-1.10356e-08
7.52244e-20
1.60827e-19
6.59132e-18
1.6117e-17
-2.08841e-17
0
3.81203e-19
-9.6366e-18
0
0
0
0
0
0
6.2037e-17
1.00092e-17
1.98702e-17
-1.98615e-17
-1.00317e-17
6.34446e-34
1.39728e-17
1.10763e-17
2.52554e-17
-3.98043e-17
9.90002e-32
-1.94425e-17
-7.12461e-35
-3.21928e-18
-1.85094e-21
0
1.06355e-18
0
5.06796e-09
4.06617e-12
8.55495e-18
-7.57369e-22
-4.95742e-18
-9.7819e-18
8.72958e-18
-5.41582e-18
-3.29075e-12
-1.01322e-08
8.55673e-18
0
1.88327e-19
-9.77962e-18
1.04064e-17
6.12334e-18
1.732e-24
1.03171e-11
-1.73071e-10
-7.36123e-18
1.99824e-08
0
-1.1164e-12
1.00989e-16
0
-2.2113e-17
0
2.08291e-17
5.09089e-25
7.66115e-18
1.11551e-12
-1.34979e-17
-2.00158e-17
3.45362e-10
1.55894e-17
7.85338e-20
-1.24535e-17
1.95053e-17
-7.85432e-20
-9.92531e-12
-7.23646e-18
-2.04223e-08
0
1.21655e-16
-1.53417e-19
-2.56145e-19
-5.02795e-12
0
2.76373e-18
-1.97975e-08
8.0764e-20
1.56715e-12
2.66089e-12
-7.20344e-34
-1.01698e-09
1.79908e-08
1.56861e-19
1.50976e-18
1.22489e-18
-5.17006e-18
1.79231e-17
-7.66551e-20
0
-1.46432e-18
4.00757e-18
8.26952e-18
-8.07263e-20
-1.95646e-18
1.29454e-18
6.61978e-18
-5.04677e-19
2.77345e-24
1.77937e-12
-3.45077e-34
1.57516e-08
-7.87443e-20
-1.30549e-18
4.89585e-18
-8.66596e-09
-3.66153e-25
0
3.54296e-20
6.52974e-14
-6.36656e-13
0
1.3111e-10
3.07263e-09
2.08569e-24
-3.54437e-20
-7.50927e-13
-9.53628e-19
2.77547e-18
0
0
0
0
0
0
0
0
0
0
0
0
0
0
2.79854e-17
1.45813e-18
6.17503e-17
-1.41265e-19
-2.95873e-17
-4.54072e-18
2.0751e-19
-3.33172e-25
-1.6892e-17
-4.1494e-09
2.32258e-17
-9.05307e-09
-6.38355e-34
1.96547e-17
-1.94655e-17
3.75043e-24
-2.15483e-12
-1.68143e-12
7.84611e-18
-7.80999e-20
-1.30587e-13
-2.92209e-12
1.38221e-10
0
1.31508e-08
-1.53359e-08
0
4.94813e-09
1.45343e-17
0
1.21891e-12
-1.58613e-17
0
1.90376e-08
-1.9636e-08
-1.562e-19
-2.44805e-18
2.95077e-18
6.30161e-20
-1.39771e-18
-7.29224e-19
6.67767e-18
-8.64341e-18
-2.69074e-17
-4.00579e-18
-9.06161e-18
-1.65769e-17
1.44901e-19
-1.22707e-12
7.26698e-18
-9.89565e-09
-1.82675e-17
7.90789e-20
-5.81155e-12
5.12569e-09
-4.68198e-18
-7.38687e-10
0
3.86651e-12
5.60262e-17
7.82143e-20
2.56598e-18
0
-6.83136e-22
-5.77486e-26
-2.63809e-18
-3.86483e-12
-3.8692e-18
2.57442e-17
-1.02496e-08
6.45675e-18
0
-5.26137e-18
6.59787e-20
4.85534e-20
5.99338e-18
-1.09374e-12
-8.2223e-18
0
-8.28438e-09
-7.49281e-20
2.58335e-17
0
-2.84671e-17
4.85637e-20
1.91955e-18
2.48565e-18
-1.08509e-17
-7.08587e-18
0
1.0326e-17
-3.883e-17
1.28707e-24
0
4.69488e-16
6.92308e-18
7.58397e-34
-1.03276e-17
2.53182e-18
-5.08033e-26
0
-1.36584e-34
3.70547e-24
0
6.19718e-34
0
0
0
0
0
0
0
1.95394e-17
1.24784e-34
1.134e-17
1.13359e-17
1.98563e-17
1.74687e-19
1.13398e-17
-2.001e-17
-2.66564e-34
4.44074e-18
-2.02043e-17
-6.62267e-25
-5.73806e-18
-4.68525e-09
4.64352e-09
1.74804e-08
-7.27802e-12
1.71409e-08
-1.90516e-17
-1.0224e-08
-3.5465e-12
-9.25077e-09
2.67479e-18
1.94264e-17
-2.76067e-34
-1.02538e-18
-8.28623e-16
2.44871e-13
-2.61193e-12
-1.61611e-08
-1.13918e-11
-1.69867e-08
-1.89602e-08
-1.48486e-18
4.19845e-18
2.6293e-18
-2.82377e-18
-4.75969e-19
-8.62524e-18
4.92931e-18
9.93544e-18
9.07143e-18
7.54812e-20
0
-5.05643e-18
-3.14078e-18
-1.59874e-19
1.28638e-17
4.92242e-18
0
-6.56608e-16
2.20307e-17
1.56917e-18
7.82253e-20
0
1.36119e-17
1.4666e-17
-2.01399e-17
-1.47709e-17
1.25911e-17
1.89192e-34
-1.60165e-17
-6.68774e-18
0
4.46683e-18
-5.26724e-18
-4.9204e-18
8.37105e-20
2.13506e-19
-7.81832e-20
1.73451e-17
3.62272e-18
-5.46005e-18
-9.86998e-18
3.72616e-31
-1.57236e-18
8.60567e-18
0
3.13917e-16
2.97136e-15
7.63632e-20
-4.97411e-18
-1.22952e-18
-8.13198e-18
-2.4501e-17
-1.5047e-19
-4.57083e-13
9.14183e-13
-1.08557e-09
0
1.76505e-08
4.90828e-20
-1.95892e-13
-7.90188e-20
-3.15063e-12
-7.18266e-13
0
-1.1032e-08
0
-1.92577e-08
-1.77599e-08
-1.60964e-33
-2.68694e-18
3.8541e-18
3.86854e-18
-3.66097e-17
4.90978e-20
4.08038e-19
1.58009e-19
-1.68705e-18
4.02609e-18
-6.29204e-18
1.4253e-18
-1.48029e-17
-5.8543e-20
0
5.85366e-20
0
0
0
0
0
0
0
0
0
0
0
2.52104e-17
-2.96965e-34
1.71633e-19
5.56344e-18
2.01589e-17
6.88388e-19
-4.35169e-17
-9.25842e-18
6.07641e-34
2.88155e-17
2.02892e-17
2.22315e-17
-5.04719e-17
0
-3.38241e-17
-2.22014e-12
-4.04956e-10
9.78955e-18
-2.93843e-12
1.70461e-08
-1.48362e-17
2.3154e-17
-5.55718e-18
1.12346e-17
1.59502e-17
-3.49474e-18
2.09631e-17
-4.88116e-18
0
4.91083e-18
-2.94554e-17
6.43584e-24
-9.40091e-25
-1.97764e-18
8.83884e-17
0
0
9.2403e-20
1.95884e-13
0