/*--------------------------------*- C++ -*----------------------------------*\
| =========                 |                                                 |
| \\      /  F ield         | OpenFOAM: The Open Source CFD Toolbox           |
|  \\    /   O peration     | Version:  5.x                                   |
|   \\  /    A nd           | Web:      www.OpenFOAM.org                      |
|    \\/     M anipulation  |                                                 |
\*---------------------------------------------------------------------------*/
FoamFile
{
    version     2.0;
    format      ascii;
    class       volScalarField;
    location    "1.4";
    object      nut;
}
// * * * * * * * * * * * * * * * * * * * * * * * * * * * * * * * * * * * * * //

dimensions      [0 2 -1 0 0 0 0];

internalField   nonuniform List<scalar> 
12160
(
9.99121e-10
9.98685e-10
9.98358e-08
1.00639e-09
2.06934e-07
1.59056e-07
1.0231e-09
1.13224e-07
1.55405e-07
9.87342e-08
1.05691e-09
5.03835e-08
1.73823e-07
7.5687e-08
7.71955e-08
1.07777e-09
4.8802e-08
5.57451e-08
1.32907e-07
4.90641e-08
2.58851e-08
1.09329e-09
6.64028e-08
4.60887e-08
5.7514e-08
1.05366e-07
3.24402e-08
2.20687e-08
1.09235e-09
1.24532e-07
5.3654e-08
4.61098e-08
6.673e-08
2.19386e-07
1.59593e-08
4.97162e-09
1.07589e-09
1.34708e-07
6.76336e-08
5.09117e-08
4.44721e-08
1.41149e-07
2.69837e-08
5.20019e-09
6.53055e-09
1.05044e-09
6.19196e-08
6.5993e-08
5.74547e-08
4.05755e-08
6.10683e-08
5.85067e-08
9.32355e-09
7.20716e-09
8.53784e-09
1.02579e-09
4.9018e-08
4.7283e-08
5.40875e-08
3.95055e-08
3.77027e-08
4.32159e-08
4.33217e-08
5.29286e-09
2.78671e-08
7.42021e-09
1.01057e-09
5.45786e-08
3.96264e-08
4.25167e-08
3.61946e-08
2.91487e-08
2.94035e-08
3.19803e-08
6.63843e-09
1.1771e-08
3.5428e-09
8.03454e-09
1.00995e-09
7.82692e-08
4.09818e-08
3.64158e-08
2.98669e-08
2.69899e-08
2.98119e-08
1.70999e-08
1.12753e-08
1.13094e-08
2.52343e-09
2.70845e-09
3.9476e-09
1.02866e-09
5.82549e-08
4.98387e-08
3.64217e-08
2.60709e-08
2.52739e-08
2.92688e-08
1.65722e-08
2.93524e-08
1.05231e-08
1.42145e-08
4.12842e-09
4.87186e-09
3.55531e-09
1.07186e-09
2.97507e-08
4.47997e-08
3.66242e-08
2.51432e-08
2.36212e-08
2.07976e-08
1.42897e-08
1.8107e-07
1.19032e-08
9.59389e-09
6.61662e-09
6.91118e-09
9.57907e-09
3.36853e-09
1.1435e-09
1.87386e-08
2.74163e-08
2.9756e-08
2.51871e-08
2.27511e-08
1.62717e-08
1.02265e-08
3.15587e-08
1.41789e-08
6.51203e-09
5.83741e-09
1.26046e-08
9.98445e-09
1.40777e-08
1.25147e-09
1.37815e-08
1.83306e-08
2.1146e-08
2.29245e-08
2.12338e-08
1.48592e-08
7.54508e-09
1.49167e-08
1.71264e-08
6.27843e-09
1.09365e-08
2.49081e-08
1.03831e-08
9.92975e-09
1.4084e-09
1.11509e-08
1.37413e-08
1.53761e-08
1.82863e-08
1.82784e-08
1.47145e-08
6.08822e-09
9.0985e-09
1.95081e-08
6.01639e-09
8.93347e-09
8.68504e-09
9.18262e-08
2.0591e-08
1.63653e-09
9.62009e-09
1.12034e-08
1.20365e-08
1.4401e-08
1.51606e-08
1.47226e-08
5.36236e-09
6.29492e-09
1.49885e-08
6.18989e-09
5.9714e-09
5.37082e-09
2.14885e-08
1.5619e-07
1.97752e-09
8.67429e-09
9.70573e-09
1.00765e-08
1.1787e-08
1.24314e-08
1.31523e-08
4.96784e-09
4.80979e-09
9.2832e-09
7.12179e-09
4.36671e-09
4.10221e-09
1.3323e-08
3.04185e-08
2.51553e-09
8.06939e-09
8.77739e-09
8.88255e-09
1.01143e-08
1.03446e-08
1.07039e-08
4.72232e-09
3.98347e-09
5.99175e-09
9.16725e-09
3.50502e-09
3.61093e-09
9.41254e-09
1.84581e-08
3.43454e-09
7.67628e-09
8.1843e-09
8.12914e-09
9.06555e-09
8.95539e-09
9.1276e-09
4.61501e-09
3.46446e-09
4.3528e-09
1.20986e-08
2.99771e-09
3.36616e-09
1.00114e-08
1.27274e-08
5.10277e-09
7.421e-09
7.79917e-09
7.64341e-09
8.40033e-09
8.08742e-09
8.24555e-09
4.62858e-09
3.12394e-09
3.59474e-09
1.26432e-08
2.64553e-09
3.20091e-09
1.51985e-08
1.55085e-08
7.089e-09
7.25895e-09
7.54794e-09
7.32739e-09
7.97657e-09
7.5315e-09
7.75547e-09
4.72183e-09
2.86915e-09
3.18632e-09
1.19964e-08
2.25526e-09
3.06016e-09
2.33006e-08
3.15134e-08
5.86388e-09
7.16378e-09
7.38757e-09
7.12153e-09
7.70708e-09
7.1691e-09
7.48669e-09
4.85878e-09
2.65566e-09
3.00501e-09
1.143e-08
1.77753e-09
2.89129e-09
9.27308e-09
1.25234e-08
3.92608e-09
7.1234e-09
7.29208e-09
6.98898e-09
7.53475e-09
6.93176e-09
7.35725e-09
5.06825e-09
2.47053e-09
2.98745e-09
1.04925e-08
1.37142e-09
2.70607e-09
6.26104e-09
6.24102e-09
2.82482e-09
7.13926e-09
7.24864e-09
6.90646e-09
7.42298e-09
6.77685e-09
7.30871e-09
5.38046e-09
2.34975e-09
3.06748e-09
7.25168e-09
1.07241e-09
2.74555e-09
5.94262e-09
4.59431e-09
2.19485e-09
7.21875e-09
7.25952e-09
6.86171e-09
7.34701e-09
6.67598e-09
7.29716e-09
5.83402e-09
2.35214e-09
3.17536e-09
4.37379e-09
9.55079e-10
3.02085e-09
6.60403e-09
6.02702e-09
1.80228e-09
7.37865e-09
7.3326e-09
6.85791e-09
7.29259e-09
6.60805e-09
7.29217e-09
6.44166e-09
2.55568e-09
3.18485e-09
2.56448e-09
1.04446e-09
3.57543e-09
8.04521e-09
6.38391e-09
1.54055e-09
7.64688e-09
7.48339e-09
6.90338e-09
7.26637e-09
6.55823e-09
7.26534e-09
7.11148e-09
3.01662e-09
3.01847e-09
1.73558e-09
1.23335e-09
4.56465e-09
1.04849e-08
7.6597e-09
1.35794e-09
8.06173e-09
7.73725e-09
7.01234e-09
7.2791e-09
6.53314e-09
7.18309e-09
7.55743e-09
3.69262e-09
2.7529e-09
1.71007e-09
1.53024e-09
6.28473e-09
1.39829e-08
9.89005e-09
1.22704e-09
8.68293e-09
8.13205e-09
7.20633e-09
7.3461e-09
6.54241e-09
7.07222e-09
7.47205e-09
4.23952e-09
2.51366e-09
2.04069e-09
2.02818e-09
9.08029e-09
1.89006e-08
1.32331e-08
1.1322e-09
9.60832e-09
8.72396e-09
7.51322e-09
7.48896e-09
6.59826e-09
6.96022e-09
6.95151e-09
4.07485e-09
2.36022e-09
2.48235e-09
2.9569e-09
1.34668e-08
2.60105e-08
1.81287e-08
1.06397e-09
1.1007e-08
9.59901e-09
7.97197e-09
7.73243e-09
6.71612e-09
6.86506e-09
6.32433e-09
3.44815e-09
2.35363e-09
2.93937e-09
5.13401e-09
2.10414e-08
3.70513e-08
2.54487e-08
1.01641e-09
1.31996e-08
1.08961e-08
8.63937e-09
8.10662e-09
6.9132e-09
6.80875e-09
5.78841e-09
2.87724e-09
2.4688e-09
2.78524e-09
2.02675e-08
3.77347e-08
5.32953e-08
3.68467e-08
9.85658e-10
1.68571e-08
1.28456e-08
9.59935e-09
8.65059e-09
7.21145e-09
6.81139e-09
5.38245e-09
2.49733e-09
2.61921e-09
2.27233e-09
9.28153e-09
2.6177e-07
7.20603e-08
5.41255e-08
9.69484e-10
2.34716e-08
1.58078e-08
1.09679e-08
9.41356e-09
7.63997e-09
6.89213e-09
5.08476e-09
2.30561e-09
2.75189e-09
1.91547e-09
3.83547e-09
4.29342e-08
9.60998e-08
7.8052e-08
9.65675e-10
3.51242e-08
2.02055e-08
1.28768e-08
1.04357e-08
8.23657e-09
7.07001e-09
4.86401e-09
2.25796e-09
2.81142e-09
1.67858e-09
2.49773e-09
2.03399e-08
1.12459e-07
1.15697e-07
9.72701e-10
4.37451e-08
2.5798e-08
1.53457e-08
1.16867e-08
9.02394e-09
7.36991e-09
4.69624e-09
2.30219e-09
2.76335e-09
1.7869e-09
1.82505e-09
1.35512e-08
2.14734e-07
1.70012e-07
9.92109e-10
3.26887e-08
2.70478e-08
1.76185e-08
1.29891e-08
9.93665e-09
7.84306e-09
4.56567e-09
2.39724e-09
2.66957e-09
2.58591e-09
1.44413e-09
9.3493e-09
2.06299e-07
3.58053e-07
2.1594e-08
1.0525e-09
2.21775e-08
1.85442e-08
1.41223e-08
1.08411e-08
8.50657e-09
4.45758e-09
2.51669e-09
2.59308e-09
4.16087e-09
1.20319e-09
6.672e-09
8.67271e-08
1.52621e-07
1.73481e-08
1.40617e-08
1.19521e-09
1.7489e-08
1.42954e-08
1.13186e-08
9.26446e-09
4.37544e-09
2.64111e-09
2.5672e-09
6.56648e-09
1.03713e-09
4.88385e-09
4.68572e-08
6.5491e-08
1.5065e-08
1.26229e-08
1.00029e-08
1.45017e-09
1.33598e-08
1.14281e-08
9.87977e-09
4.33805e-09
2.77216e-09
2.59818e-09
7.79935e-09
9.26591e-10
3.73981e-09
2.95244e-08
3.66164e-08
1.20563e-08
1.20026e-08
9.36631e-09
8.51013e-09
1.75922e-09
1.12797e-08
9.74513e-09
4.36585e-09
2.93682e-09
2.70088e-09
8.6516e-09
9.03054e-10
3.003e-09
2.00685e-08
2.35212e-08
1.0758e-08
1.01942e-08
9.40165e-09
8.1438e-09
6.47461e-09
2.7885e-09
9.14099e-09
4.38502e-09
3.16402e-09
2.91679e-09
9.61534e-09
1.0198e-09
2.5211e-09
1.42364e-08
1.6288e-08
8.59394e-09
9.73033e-09
8.44114e-09
8.51766e-09
6.89784e-09
5.52343e-09
2.12271e-09
4.38044e-09
3.50067e-09
3.27807e-09
1.05913e-08
1.25016e-09
2.22448e-09
1.03372e-08
1.1803e-08
4.47168e-09
7.67248e-09
8.46734e-09
8.08357e-09
8.25174e-09
5.8954e-09
3.18557e-09
1.47814e-09
3.90572e-09
3.79074e-09
1.08025e-08
1.54458e-09
2.07988e-09
7.69282e-09
8.83682e-09
4.36202e-09
4.59478e-09
6.5987e-09
8.45132e-09
8.99344e-09
7.18489e-09
4.46964e-09
3.5745e-09
8.6709e-10
4.47626e-09
1.06266e-08
1.877e-09
2.06283e-09
5.97261e-09
6.83679e-09
5.38713e-09
5.14394e-09
4.86439e-09
6.6328e-09
1.01443e-08
9.99821e-09
7.26214e-09
4.39159e-09
2.87609e-09
5.24531e-10
1.149e-08
2.17742e-09
2.14321e-09
5.00044e-09
5.53201e-09
1.35986e-08
6.84365e-09
8.00233e-09
6.19911e-09
8.12695e-09
1.5919e-08
1.04835e-08
6.90799e-09
5.73862e-09
5.86849e-09
2.95349e-10
2.37592e-09
2.26939e-09
4.59224e-09
4.81006e-09
2.59934e-09
1.21949e-08
9.96104e-09
1.40619e-08
8.90133e-09
1.33689e-08
1.32067e-08
7.25357e-09
1.89162e-08
2.24027e-08
4.10356e-09
4.13151e-10
2.5e-09
4.88795e-09
4.55841e-09
2.84298e-09
2.69039e-09
6.57705e-09
1.12677e-08
9.04233e-09
1.65168e-08
2.21794e-08
5.98682e-09
1.87391e-08
7.74596e-08
3.93902e-08
1.30237e-08
5.41646e-09
1.69532e-10
5.59147e-09
3.26719e-09
6.82062e-09
3.50254e-09
3.11126e-09
5.21756e-09
1.46422e-08
6.47655e-09
3.3942e-08
6.83636e-09
1.00832e-08
9.044e-08
8.49747e-08
5.54887e-08
2.34887e-08
1.27684e-08
2.31626e-09
1.68794e-10
3.59799e-09
4.1096e-09
8.67959e-09
4.53138e-09
4.33517e-09
7.34326e-09
1.98486e-08
5.3008e-09
9.11555e-09
6.48676e-09
4.12604e-08
8.51222e-08
8.71731e-08
5.10884e-08
2.74104e-08
1.22836e-08
8.24002e-09
2.73019e-09
1.61108e-10
5.42767e-09
2.09767e-08
4.69998e-09
5.8295e-09
5.22801e-09
2.21706e-08
4.55986e-09
7.16921e-09
1.36809e-08
6.78892e-08
9.94741e-08
5.1541e-08
2.66267e-08
1.52478e-08
2.23416e-08
1.37523e-08
1.32122e-08
4.24489e-09
1.58588e-10
1.1042e-08
1.38482e-08
4.43705e-09
7.72959e-09
3.2777e-09
1.82276e-08
4.08279e-09
6.6661e-09
2.95058e-08
1.10519e-07
3.23404e-08
2.48646e-08
1.91787e-08
1.60578e-08
2.95872e-07
1.07694e-07
3.01106e-08
2.03044e-08
7.71397e-09
1.58603e-10
2.42186e-08
8.93531e-09
4.74092e-09
9.65413e-09
2.43514e-09
1.41031e-08
4.06166e-09
6.62923e-09
6.76337e-08
1.61801e-08
2.00983e-08
1.71491e-08
1.60416e-08
4.32469e-08
3.47724e-06
2.35812e-06
6.77865e-07
1.18325e-07
3.71994e-08
1.79919e-08
1.62958e-10
1.07011e-08
8.74741e-09
5.8793e-09
1.46265e-08
1.81606e-09
8.30004e-09
3.68524e-09
1.99657e-08
1.32302e-08
1.5667e-08
1.75115e-08
1.50952e-08
2.34671e-08
2.95874e-07
1.76302e-06
2.38419e-05
1.74551e-06
3.98923e-07
3.96184e-07
1.16402e-05
3.84487e-06
8.9008e-07
9.97789e-08
4.62271e-08
1.78153e-10
9.28882e-09
1.0469e-08
7.95353e-09
1.2975e-08
1.48386e-09
6.36638e-09
3.76874e-09
9.36701e-09
1.21037e-08
1.7627e-08
1.26174e-08
1.88992e-08
3.86104e-08
4.4512e-07
1.00461e-05
2.89942e-06
0.000151568
9.96113e-06
3.90586e-05
3.88274e-05
2.8466e-06
5.37309e-07
5.26059e-07
4.40821e-05
1.08786e-05
2.28289e-06
2.60824e-07
4.86379e-08
2.02616e-10
1.0266e-08
1.35184e-08
1.3067e-08
9.51503e-09
1.26517e-09
5.0253e-09
5.32391e-09
8.45256e-09
1.17425e-08
1.34978e-08
1.52893e-08
2.37195e-08
4.21548e-08
2.90441e-08
2.88078e-08
1.5281e-08
1.52645e-08
1.46513e-05
1.61278e-06
0.00101002
0.00108698
1.44845e-05
5.91887e-05
5.89175e-05
1.57497e-06
3.25652e-07
3.1802e-07
0.000228281
2.64509e-05
4.06725e-06
4.83902e-07
4.64071e-08
2.27628e-10
1.23235e-08
1.78345e-08
2.24204e-08
7.11616e-09
1.03178e-09
2.77347e-09
6.82816e-09
6.58267e-09
1.29643e-08
1.2267e-08
1.68071e-08
2.3773e-08
3.11547e-09
3.1149e-09
2.42239e-09
2.41803e-09
1.68167e-08
1.65665e-08
8.26155e-09
8.23975e-09
7.30065e-06
7.83183e-06
6.33533e-07
4.04718e-06
4.94957e-07
0.00105717
0.0011178
0.000850808
0.000885535
0.000109249
0.000115518
7.21994e-06
2.47759e-05
2.51789e-05
6.60121e-06
6.1828e-07
3.67806e-06
4.82811e-07
1.20218e-06
1.00367e-07
7.38083e-07
1.30853e-07
1.10119e-06
9.81993e-08
7.29784e-07
1.2692e-07
0.000524504
3.72978e-05
5.90379e-06
6.02748e-07
4.2477e-08
2.38952e-10
1.45608e-08
1.85908e-08
1.02912e-08
7.43502e-09
3.6697e-09
1.39082e-08
1.48816e-08
1.65751e-08
1.00944e-08
1.33003e-08
2.02707e-08
1.30322e-09
1.29899e-09
1.24454e-09
1.24424e-09
2.50393e-09
2.50086e-09
2.07866e-09
2.07557e-09
6.91953e-09
5.46278e-08
4.49687e-08
6.14157e-09
5.63693e-08
2.53268e-07
5.37805e-08
6.89758e-09
4.22225e-08
6.06616e-09
5.307e-08
2.46751e-07
3.29466e-09
3.16302e-08
3.42411e-09
3.38476e-08
3.28601e-09
3.10088e-08
3.41765e-09
3.35356e-08
1.47172e-05
1.98004e-06
1.10304e-05
2.3978e-06
1.64543e-06
3.22325e-07
1.51729e-06
2.6921e-07
0.00098732
0.00109287
0.00122191
0.00124028
0.00114409
0.00117829
0.00069574
0.000764657
5.18108e-05
6.56733e-05
1.22622e-05
1.96022e-06
9.80079e-06
2.41064e-06
2.76017e-05
7.3623e-06
3.47187e-05
6.04047e-06
2.67963e-05
8.36491e-06
3.84055e-05
6.30032e-06
1.42692e-06
3.1265e-07
1.38456e-06
2.59372e-07
4.50699e-07
7.96379e-08
4.0715e-07
7.69807e-08
0.000774012
5.4345e-05
6.63832e-06
4.91843e-07
3.63146e-08
2.3377e-10
1.38897e-08
8.52502e-09
6.7969e-09
4.47642e-09
1.24758e-07
1.74159e-07
2.68708e-07
2.11117e-07
1.36738e-07
1.77676e-07
9.84571e-10
9.83963e-10
4.13038e-09
4.03849e-09
1.43354e-09
1.43619e-09
2.17709e-09
2.25246e-09
1.19211e-09
1.24011e-08
1.21272e-09
1.3861e-08
1.18955e-09
1.25028e-08
1.20839e-09
1.41271e-08
1.10631e-09
9.35106e-09
1.06214e-09
1.19731e-08
1.10263e-09
9.46401e-09
1.05902e-09
1.20608e-08
3.22823e-08
6.09762e-09
4.35019e-08
1.25836e-07
5.06775e-09
4.71562e-08
3.18409e-08
6.06823e-09
1.25805e-07
4.07135e-08
5.00198e-09
4.43127e-08
2.69354e-09
2.3139e-08
2.91131e-09
2.7618e-08
2.6853e-09
2.28864e-08
2.90882e-09
2.70128e-08
5.19448e-06
8.81576e-07
4.36298e-06
1.17621e-06
1.61752e-06
2.02902e-07
1.04154e-06
1.75611e-07
0.000878104
0.000957375
0.00100431
0.00100093
0.00109715
0.00110071
0.00102567
0.00104582
0.000956212
0.00101507
1.88848e-05
0.000101525
2.35354e-05
9.8253e-05
2.79021e-05
0.00011483
2.89001e-05
0.000122856
4.72849e-06
3.81565e-06
2.68862e-05
4.64665e-06
2.16122e-05
1.36122e-05
6.19958e-06
4.76857e-06
4.11436e-05
6.26495e-06
2.95818e-05
1.73563e-05
4.76616e-06
8.57771e-07
3.93999e-06
1.15581e-06
1.07086e-05
2.34168e-06
1.08757e-05
2.46986e-06
1.18845e-06
1.9618e-07
9.44213e-07
1.67926e-07
3.03564e-07
4.9806e-08
2.72521e-07
4.8001e-08
0.000881506
5.02962e-05
4.75741e-06
3.00872e-07
3.04952e-08
2.40531e-10
8.70471e-09
5.22983e-09
4.63505e-09
5.25525e-08
3.9198e-06
2.38418e-06
2.98321e-06
1.04296e-05
2.8182e-05
3.65519e-07
3.66807e-07
8.09175e-06
8.08902e-06
2.47814e-08
2.49755e-08
1.55462e-06
1.53613e-06
9.00318e-10
7.3803e-09
1.38322e-09
1.06916e-08
9.09389e-10
7.62195e-09
1.44381e-09
1.08941e-08
1.21065e-07
1.25581e-06
7.22094e-09
3.72042e-08
1.26543e-07
1.3439e-06
7.68461e-09
4.08614e-08
1.15592e-09
1.00237e-08
1.11976e-09
1.0879e-08
1.15354e-09
1.01501e-08
1.11504e-09
1.13083e-08
1.05021e-09
6.93063e-09
1.01127e-09
7.62541e-09
1.05377e-09
7.01041e-09
1.01061e-09
7.63251e-09
2.989e-06
5.41978e-07
2.24065e-06
6.67567e-07
0.000921136
0.000828898
0.000809965
0.000803238
0.00091622
0.000910212
0.000908301
0.000905056
0.000963825
0.00096403
0.000768422
0.000657339
0.000562114
0.000473179
0.00075497
0.00060604
0.000628144
0.000467918
0.000148939
0.000445185
0.000351085
0.000351985
0.000207037
0.000454012
0.00042837
0.000321164
1.00607e-06
1.42219e-05
3.11434e-06
2.10527e-05
2.25595e-06
1.4365e-05
3.68954e-06
2.71984e-05
1.44408e-06
3.31193e-06
1.27404e-05
5.13293e-06
1.63281e-06
7.73475e-06
1.81156e-06
4.32501e-06
1.83458e-05
6.58543e-06
2.20204e-06
1.04117e-05
2.66287e-06
5.23876e-07
2.03167e-06
6.48015e-07
4.56761e-06
1.26264e-06
5.03481e-06
1.30844e-06
0.000871519
3.51516e-05
2.81299e-06
1.18878e-07
2.24372e-08
2.68053e-10
5.82321e-09
3.40823e-09
2.9922e-09
1.08398e-06
0.000153438
3.81218e-05
0.000136876
0.00067699
0.000371172
4.45145e-05
4.41158e-05
0.000134247
0.000134687
2.67041e-05
2.65358e-05
0.000288678
0.000287321
1.23227e-09
6.65686e-09
3.54659e-09
1.56998e-08
1.26992e-09
6.89248e-09
3.76591e-09
1.62818e-08
5.891e-07
3.00792e-06
3.65088e-08
1.36998e-07
5.95313e-07
3.17364e-06
3.77493e-08
1.45751e-07
5.20057e-09
1.52465e-08
5.28719e-09
1.56374e-08
0.000945761
0.000878044
0.000730573
0.00072895
0.000763824
0.00075777
0.000804857
0.000800183
0.000887421
0.000883299
0.000802161
0.000820915
0.000785866
0.000792993
0.00079452
0.000819117
0.000779961
0.000789867
0.000753614
0.000732808
0.000767969
0.000770313
0.000729645
0.000703974
0.000756528
0.000759546
0.000734484
0.000527561
0.000541605
0.000334061
0.000727954
0.000478189
0.000606384
0.000313286
1.68198e-05
1.05649e-05
0.000339666
5.66486e-05
6.33624e-05
1.56599e-05
0.000407454
0.000126949
0.000517112
1.99458e-05
9.74016e-07
6.69849e-08
1.41959e-08
3.36896e-10
3.80942e-09
2.7181e-09
2.14299e-08
1.89379e-05
0.00109427
0.000920548
0.00136053
0.00120378
0.00199787
0.00199719
0.00233526
0.00233577
0.000580564
0.00057736
0.00103801
0.001038
0.00047406
0.000380913
0.000238692
0.000801409
0.00047418
0.000381093
0.000239323
0.000801192
0.000912541
0.00222856
0.00149849
0.00161072
0.000912437
0.00223153
0.0014999
0.00160886
6.17976e-08
1.05232e-07
1.53893e-06
2.38345e-06
6.24261e-08
1.10134e-07
1.5447e-06
2.44847e-06
0.000200353
0.000133058
3.83015e-05
4.70429e-05
0.000200265
0.000133555
3.76973e-05
5.05015e-05
0.000895183
0.000910075
0.000829016
0.000751233
0.00074919
0.000779554
0.000773273
0.000810505
0.00080701
0.000830295
0.00082757
0.00078091
0.000796477
0.000766723
0.00075023
0.000776736
0.000795285
0.000765716
0.000747108
0.000774722
0.000672655
0.000746614
0.00071399
0.000744616
0.000633828
0.000735401
0.000699377
0.000651287
0.000454287
0.000676635
0.000421957
0.000196927
7.47343e-06
2.90293e-07
3.97212e-08
1.01182e-08
3.70505e-10
2.84626e-09
5.50051e-09
6.31179e-07
0.000479079
0.0012679
0.00144282
0.00144112
0.00151416
0.00175638
0.00175592
0.00195243
0.00195175
0.00188169
0.00148126
0.00151945
0.00181163
0.00188388
0.00148254
0.00152008
0.00181044
0.00171692
0.0017163
0.00142753
0.00166562
0.00103633
0.00218834
0.00142571
0.00166448
0.00103545
0.00218427
0.00147712
0.00180948
0.00148889
0.00192577
0.00147627
0.00181295
0.00148971
0.00192312
0.00117114
0.000774127
0.00117024
0.000773505
0.000852004
0.000874592
0.000864528
0.000845841
0.000840822
0.000846919
0.000839952
0.000824462
0.000820729
0.000806479
0.000798893
0.000834857
0.000849545
0.000838402
0.000828958
0.000834829
0.000841595
0.000836476
0.000830488
0.000829975
0.000810299
0.000819164
0.000826199
0.000829897
0.000806785
0.000818742
0.000824995
0.000763728
0.000786211
0.000743328
0.000716828
0.000761891
0.000785718
0.0007452
0.000713111
0.000757758
0.000623251
0.000762719
0.00068318
0.000735853
0.000584566
0.000748565
0.000661805
5.79129e-05
2.65082e-06
1.18552e-07
1.84489e-08
7.09166e-10
1.95411e-09
1.11404e-07
1.85796e-05
0.000955863
0.00139513
0.00166899
0.00197133
0.00182266
0.00182119
0.00157573
0.00157043
0.0015277
0.00153974
0.00157308
0.001605
0.00152838
0.00153958
0.00157302
0.00160448
0.0017462
0.0017461
0.00163676
0.00147439
0.00152186
0.00161288
0.00163828
0.00147508
0.00152176
0.00161178
0.00153262
0.00152761
0.00154123
0.00152928
0.00153296
0.00152701
0.00153997
0.00152882
0.00148898
0.00164489
0.00145108
0.0018283
0.00148825
0.00164751
0.00145148
0.00182751
0.000495441
0.00084792
0.000833736
0.000846139
0.000922941
0.000917536
0.000882202
0.000872695
0.000896342
0.000890717
0.000838367
0.000831256
0.000864091
0.000858447
0.000824285
0.000828438
0.000862323
0.00084975
0.000889807
0.000907893
0.000892555
0.000886206
0.000889569
0.000904953
0.000891889
0.000887062
0.000875591
0.000834395
0.000853858
0.000873222
0.000875362
0.000830393
0.000853503
0.00087002
0.000780412
0.000818091
0.000781101
0.000817376
2.86123e-05
1.62921e-06
1.1583e-07
2.85008e-09
4.38173e-09
2.14319e-06
0.000734958
0.00126271
0.00157663
0.00184113
0.00211844
0.00211909
0.0021236
0.00212317
0.00130726
0.00130422
0.00172018
0.00170407
0.00140834
0.00139603
0.00148696
0.00150589
0.00140916
0.00139606
0.00148745
0.00150572
0.00151804
0.00129766
0.00148646
0.00145062
0.00151795
0.00130161
0.00148582
0.00145112
0.00149915
0.00141052
0.00142671
0.00147137
0.00149958
0.00141095
0.00142664
0.00147043
0.00139939
0.00137116
0.00144036
0.00140475
0.00139993
0.00137086
0.0014398
0.00140451
0.000174734
0.000787527
0.000825585
0.000791422
0.000833281
0.000828843
0.000925644
0.000920907
0.000954331
0.000948144
0.000947697
0.00089044
0.000940383
0.000912175
0.000930843
0.000887685
0.000927461
0.000909539
0.000970934
0.000908632
0.000978736
0.000922473
0.000946621
0.000888648
0.000958179
0.000906152
0.00097604
0.000921649
0.000939468
0.000887584
0.000898674
0.000878825
0.000890799
0.000878145
0.000963902
0.000955725
0.000973081
0.000926775
0.000963574
0.000955762
0.000972342
0.000928997
5.24451e-06
8.81452e-07
1.11727e-08
1.33721e-07
5.3058e-05
0.00104962
0.00146855
0.00172824
0.00188382
0.00198696
0.00197951
0.00203023
0.00202664
0.00154554
0.000930115
0.00141189
0.0018738
0.00151672
0.00128884
0.000935838
0.00155263
0.00128875
0.00141347
0.00188739
0.00151862
0.00216287
0.00169346
0.00211572
0.00162084
0.00213622
0.00169114
0.00210713
0.00162088
0.00137675
0.00133356
0.00141639
0.00139723
0.00137717
0.00133352
0.00141669
0.00139713
0.00136025
0.00125617
0.00136017
0.00125677
0.0013919
0.0014344
0.0013918
0.00143355
0.00137102
0.00133023
0.00137144
0.00132996
1.89772e-05
0.000695
0.00078794
0.000791518
0.000752914
0.000747223
0.000824339
0.000819361
0.000802394
0.000796272
0.000903656
0.000898022
0.000958367
0.000989147
0.000940352
0.00105326
0.000934307
0.00102637
0.000957688
0.000978662
0.000937306
0.0010467
0.000933707
0.00101661
0.00100889
0.000934237
0.000996963
0.000933424
0.00102912
0.000956056
0.00103116
0.000984933
0.000974987
0.000936381
0.00101985
0.000955079
0.00103006
0.000981735
0.00097454
0.000935502
0.000948525
0.000963267
0.000943195
0.000962444
2.94901e-06
4.29883e-08
3.4266e-06
0.000832303
0.00127387
0.00161854
0.00170746
0.00165002
0.00164854
0.00141498
0.00140613
0.00181681
0.00180598
0.00175062
0.00174669
0.00103909
0.00170399
0.00151376
0.00133297
0.00180837
0.00154611
0.00104824
0.0016995
0.00133622
0.0015135
0.00180262
0.0015459
0.00178618
0.00155155
0.00183698
0.00156011
0.00177795
0.00155111
0.00183276
0.00156025
0.00135579
0.00135153
0.00135607
0.00135137
9.48399e-06
7.52878e-05
0.000722221
0.00076619
0.000777685
0.000808453
0.000802436
0.000811761
0.000805936
0.000793402
0.000838029
0.000805917
0.000791844
0.000783239
0.000833568
0.000799604
0.000789554
0.000945454
0.00105421
0.000891206
0.000865338
0.000833923
0.000947679
0.000939193
0.00104677
0.000890169
0.000857686
0.000831987
0.000946599
0.000999056
0.000975183
0.00110339
0.00105871
0.000998655
0.000974534
0.00109636
0.00104883
0.00105592
0.00100452
0.00104526
0.00100368
0.00107125
0.00102083
0.00103141
0.0010051
0.00106437
0.00102
0.00103275
0.00100469
1.54801e-07
9.24802e-05
0.00107296
0.00145732
0.00162634
0.00117977
0.00109572
0.00109706
0.000956592
0.00095281
0.00123764
0.00143416
0.00133543
0.00125699
0.00123811
0.0014406
0.00133512
0.00126885
0.00114992
0.00115448
0.00157649
0.00142479
0.00170629
0.0015158
0.00157289
0.00142428
0.00170364
0.00151582
5.02643e-07
3.26633e-05
0.000290435
0.000727147
0.000723463
0.000757937
0.000753448
0.000886751
0.000880607
0.000855666
0.000847365
0.00083567
0.000829119
0.000882054
0.000821269
0.000844081
0.000804012
0.000877529
0.000820281
0.000847339
0.000803565
0.00104307
0.000915505
0.0009625
0.000903651
0.00087735
0.000854708
0.00103893
0.000911398
0.000903202
0.000961948
0.000876493
0.00085425
0.00103553
0.0011099
0.00103482
0.00109913
0.000874732
0.00124443
0.00154749
0.0013221
0.000911638
0.000908046
0.000666054
0.000656076
0.00113784
0.00114422
0.00111399
0.00111818
0.00111688
0.00122941
0.00118939
0.00115084
0.0011171
0.00123442
0.00118955
0.00115732
0.00117131
0.00108287
0.00116398
0.00108959
0.00117665
0.00108263
0.00117413
0.00109
0.00134114
0.00128654
0.00134257
0.00128669
1.51313e-06
0.000106335
0.000679129
0.000702964
0.000672141
0.000756497
0.000751563
0.000874575
0.000867771
0.000911221
0.000899247
0.00089199
0.000910752
0.0008604
0.00087189
0.000890859
0.000900991
0.000858685
0.000862076
0.000901054
0.00085779
0.000880856
0.000864453
0.000898575
0.000856837
0.000889036
0.000864112
0.00103133
0.00137348
0.00132953
0.000830759
0.000877585
0.000876016
0.00068934
0.000679523
0.00120955
0.00109149
0.000953694
0.00103431
0.000980564
0.000929826
0.00121665
0.0010919
0.00095621
0.00103253
0.000981128
0.000934458
0.000915063
0.000922122
0.00111979
0.00120439
0.00115745
0.00118121
0.00112029
0.00120921
0.00115805
0.00118662
0.00120816
0.00109889
0.0012172
0.00109931
4.19085e-06
0.000290504
0.000680095
0.000653149
0.000579805
0.000576383
0.000673381
0.000670032
0.000662444
0.000662342
0.000794412
0.000788367
0.000896322
0.000899427
0.00100373
0.000916857
0.000990623
0.000914699
0.000876704
0.000892468
0.000983407
0.000914351
0.000973639
0.00091317
0.000966424
0.000909065
0.00095296
0.000907939
0.000959068
0.000930676
0.000953777
0.000929832
0.00115744
0.00113235
0.000820028
0.000667129
0.000661766
0.000545319
0.00054388
0.000717691
0.000712842
0.000645966
0.000632236
0.00109667
0.00102017
0.000770758
0.000894044
0.000867592
0.000718333
0.00110285
0.00102062
0.000769556
0.000886274
0.000866453
0.000695244
0.000581738
0.000755376
0.000479385
0.000654228
0.00059775
0.000766493
0.00047556
0.000663426
1.06655e-05
0.000646279
0.00065519
0.000597152
0.000644621
0.00063814
0.000693038
0.000687408
0.00072323
0.000718163
0.000911886
0.000864724
0.000827974
0.000799507
0.000798015
0.000692766
0.000829635
0.000798042
0.000797752
0.00069336
0.000904319
0.000863432
0.00100353
0.00101356
0.000936043
0.000949361
0.000983428
0.000991135
0.000935299
0.000948086
0.00100271
0.000963813
0.000984182
0.00096285
0.000925111
0.00066221
0.000640613
0.000653894
0.000650268
0.000485965
0.000484004
0.000444517
0.000641405
0.000669221
0.000542425
0.000647155
0.000559716
0.000456491
0.000650801
0.000673125
0.000543534
0.0006472
0.000565323
0.000636442
0.000629395
0.000674935
0.000686097
0.000666292
0.000633047
0.000397416
0.000549355
0.000378013
0.000555175
2.56677e-05
0.00065592
0.00061882
0.000547811
0.000536304
0.000595234
0.00058547
0.000570938
0.000563065
0.000645773
0.000637681
0.000667001
0.000820921
0.000767462
0.00074555
0.00079082
0.000770361
0.00065426
0.000786047
0.000769303
0.000813209
0.000757847
0.000744555
0.000841547
0.000838351
0.00080061
0.000790574
0.000798075
0.000839716
0.00079021
0.000837774
0.000561149
0.000628118
0.000563904
0.000607994
0.000606471
0.000462639
0.000461102
0.000380861
0.00055022
0.000621459
0.000445244
0.000551352
0.000508203
0.000391175
0.000560634
0.000627427
0.000457384
0.000555031
0.000519182
0.000568978
0.000656565
0.000583618
0.000630796
0.000567596
0.00065606
0.000587484
0.000631725
0.000325779
0.000502248
0.000329819
0.000514021
5.58001e-05
0.000645529
0.000592336
0.000594667
0.000585209
0.000580904
0.000570311
0.000605092
0.000593516
0.000704924
0.000709455
0.000864787
0.000644141
0.000688974
0.000574644
0.000695747
0.000707563
0.000862525
0.000634846
0.000687941
0.000567073
0.000741355
0.000789423
0.000720818
0.000765373
0.000781284
0.000764927
0.000733164
0.000720228
0.000573609
0.000503773
0.000424526
0.000453047
0.000452817
0.000426884
0.000338134
0.000340233
0.000530394
0.000544238
0.00064173
0.000531006
0.000543122
0.000640807
0.000381479
0.000519197
0.000552278
0.000423675
0.000510476
0.000482161
0.000392793
0.000525187
0.000555344
0.000440105
0.000514356
0.000493688
0.000541855
0.000582546
0.000545852
0.000583342
0.00010796
0.000629613
0.000602161
0.000589489
0.000581332
0.000589541
0.000578334
0.000579777
0.000969129
0.000634939
0.00067897
0.000633396
0.000685642
0.000562496
0.000619086
0.000681336
0.000953296
0.000619182
0.000677025
0.000676578
0.000682129
0.000625585
0.000655758
0.000667728
0.000681255
0.000613565
0.000655149
0.000720058
0.000726374
0.000712891
0.000725817
0.000512007
0.000495217
0.000426535
0.000539015
0.000427568
0.000538943
0.00061817
0.000616412
0.000470286
0.000499876
0.000597583
0.000511575
0.000618474
0.000567463
0.000433641
0.000580542
0.000496413
0.000463454
0.000594565
0.00050926
0.000616441
0.000563348
0.000427595
0.000571358
0.000525737
0.000489314
0.00052692
0.000496642
0.000506344
0.000542562
0.000504945
0.000541266
0.000198463
0.000616887
0.000591128
0.000627995
0.000621697
0.000581902
0.000673002
0.000664869
0.000620738
0.000585584
0.000788989
0.000612991
0.000573347
0.000784062
0.000620774
0.000603747
0.000646284
0.000620608
0.000604576
0.000645786
0.000592518
0.00062005
0.00065447
0.000707175
0.000636018
0.000708474
0.000646212
0.000706697
0.000620911
0.000709051
0.000573769
0.000446393
0.000506425
0.000550789
0.000421145
0.000570849
0.000506793
0.000545204
0.000416012
0.000569705
0.000646346
0.00064587
0.000494369
0.000458088
0.00049629
0.000542452
0.000550386
0.000501259
0.000487379
0.000492092
0.000448604
0.000539621
0.000546924
0.000496682
0.000516506
0.000485752
0.000516094
0.000487381
0.000321895
0.000602739
0.000644734
0.000624382
0.000617684
0.000633545
0.000693647
0.000681658
0.000608465
0.000628273
0.00066402
0.000609048
0.000716107
0.000670045
0.000571012
0.000972478
0.000600937
0.000621653
0.000660783
0.000598132
0.000711588
0.000668197
0.0005598
0.000959427
0.000622184
0.000621804
0.00068005
0.000641705
0.000609813
0.000680483
0.000612276
0.000641409
0.000701329
0.00069814
0.000807845
0.000808854
0.000698918
0.000851475
0.000851538
0.000530348
0.000570719
0.000516476
0.000578608
0.000465162
0.000639741
0.000541706
0.000629005
0.00068687
0.000562335
0.000616668
0.00051972
0.000570454
0.000519033
0.000578853
0.000465876
0.000630978
0.000531516
0.000625721
0.000686009
0.000549363
0.000607991
0.000468236
0.000486948
0.000503859
0.000518549
0.000458416
0.000484773
0.000500165
0.000517148
0.000456198
0.000556717
0.000573636
0.000703863
0.000794122
0.000587353
0.000692038
0.000796152
0.000584699
0.000555727
0.000659902
0.000638609
0.000591967
0.000584694
0.000631041
0.000622495
0.000644744
0.000610965
0.000589534
0.000581672
0.000625912
0.000644036
0.000621616
0.000610484
0.000645327
0.000700129
0.000635593
0.000701076
0.000440239
0.000650818
0.000737507
0.000651207
0.000738891
0.00103032
0.00102876
0.000515158
0.000557301
0.00058512
0.000552367
0.000567193
0.00057043
0.000613186
0.000636344
0.000671267
0.000620267