/*--------------------------------*- C++ -*----------------------------------*\
| =========                 |                                                 |
| \\      /  F ield         | OpenFOAM: The Open Source CFD Toolbox           |
|  \\    /   O peration     | Version:  5.x                                   |
|   \\  /    A nd           | Web:      www.OpenFOAM.org                      |
|    \\/     M anipulation  |                                                 |
\*---------------------------------------------------------------------------*/
FoamFile
{
    version     2.0;
    format      ascii;
    class       volScalarField;
    location    "1.4";
    object      omega;
}
// * * * * * * * * * * * * * * * * * * * * * * * * * * * * * * * * * * * * * //

dimensions      [0 0 -1 0 0 0 0];

internalField   nonuniform List<scalar> 
12160
(
0.0719999
0.0719999
0.00268152
0.0719999
0.00581668
0.00124121
0.0719999
0.00951416
0.00170064
0.00117643
0.0719999
0.0112107
0.0023632
0.00140324
0.00118451
0.0719999
0.0109057
0.00269772
0.00161597
0.0013799
0.00135161
0.0719999
0.0100958
0.00260793
0.00170356
0.00151464
0.001585
0.00140459
0.0719999
0.00948841
0.00240543
0.00167768
0.00157978
0.0016335
0.00187178
0.00232763
0.0719999
0.00920145
0.00226154
0.0016189
0.00158761
0.0016512
0.00193939
0.00303833
0.0108311
0.0719999
0.00903989
0.00219075
0.00158275
0.00155962
0.00166017
0.00188381
0.00259692
0.00939568
0.0104741
0.0719999
0.00895457
0.00215222
0.00156111
0.0015399
0.00165304
0.0018405
0.00228118
0.00786642
0.00965588
0.0207381
0.0719999
0.00893404
0.00212961
0.00154498
0.00152484
0.00164119
0.00181218
0.0024028
0.0065117
0.00960669
0.0133905
0.0201468
0.0719999
0.00899212
0.0021185
0.00153076
0.00150901
0.00162493
0.00181122
0.00274939
0.00601169
0.0100809
0.0148202
0.00846046
0.00911117
0.0719999
0.00911896
0.0021229
0.00151812
0.00148969
0.00160512
0.00182171
0.00308934
0.00605502
0.00949697
0.0134449
0.00561774
0.0045172
0.00727431
0.0719999
0.00916836
0.002144
0.00151004
0.00146842
0.00158131
0.00180451
0.00336443
0.00643234
0.00911034
0.0152644
0.00597749
0.00276302
0.00308665
0.00491373
0.0719999
0.0090787
0.00215111
0.00150576
0.00144929
0.00155588
0.00174383
0.00348454
0.00685103
0.00884536
0.0163198
0.00867322
0.00294148
0.00231723
0.0017244
0.0719999
0.00886203
0.00212806
0.00149809
0.0014342
0.00153234
0.00165796
0.00344481
0.00704994
0.00851734
0.0162861
0.0113023
0.00296948
0.00228697
0.00166431
0.0719999
0.00855262
0.00207744
0.00148276
0.00141959
0.0015098
0.00157742
0.00329688
0.0070581
0.00808157
0.0158726
0.0137361
0.00321847
0.00209143
0.00157897
0.0719999
0.00819171
0.00200773
0.00145956
0.00140177
0.00148659
0.00152518
0.00312215
0.00691818
0.00755118
0.0151423
0.0157055
0.0035109
0.0021311
0.00152671
0.0719999
0.00782163
0.00192925
0.00143085
0.00138019
0.00146184
0.00149294
0.00298999
0.00664936
0.00694952
0.0140451
0.0174554
0.00382687
0.00214193
0.00155066
0.0719999
0.00747778
0.00185166
0.00139988
0.00135564
0.00143445
0.00145983
0.00290526
0.00626663
0.00638736
0.0125611
0.0190076
0.00424236
0.00213897
0.00156495
0.0719999
0.00718849
0.00178217
0.00136976
0.00132986
0.00140483
0.00142282
0.00283332
0.00583677
0.00594751
0.0108958
0.0202243
0.0046994
0.00213693
0.00157574
0.0719999
0.00697276
0.00172556
0.00134284
0.0013048
0.00137464
0.00138387
0.00277112
0.00543493
0.00558811
0.00957783
0.0206944
0.0051939
0.0021619
0.00160137
0.0719999
0.00684207
0.0016844
0.00132068
0.00128208
0.00134588
0.00134559
0.00271178
0.00505517
0.00519538
0.00900258
0.019908
0.00563815
0.00223178
0.00165173
0.0719999
0.00680098
0.00165979
0.00130423
0.00126293
0.00132011
0.00130996
0.00264118
0.0046743
0.00479821
0.0087664
0.0176348
0.00591772
0.00229147
0.00171613
0.0719999
0.00685649
0.00165195
0.00129403
0.00124827
0.00129851
0.00127832
0.00254115
0.00426576
0.00444062
0.00855745
0.0149669
0.0058992
0.00230615
0.00172407
0.0719999
0.00699892
0.00166203
0.00129044
0.0012388
0.00128199
0.00125164
0.00239361
0.0038167
0.00414019
0.00821905
0.0120551
0.00526315
0.00229473
0.00166327
0.0719999
0.00721769
0.00168848
0.00129406
0.00123513
0.00127127
0.00123073
0.00218265
0.00334642
0.00388562
0.00760727
0.00898895
0.00430623
0.00215259
0.00157129
0.0719999
0.00750105
0.00173002
0.00130422
0.00123803
0.001267
0.00121644
0.00190862
0.00290184
0.00364421
0.00663858
0.00649331
0.00337424
0.00192003
0.0014836
0.0719999
0.0078334
0.00178539
0.00132019
0.00124682
0.00127011
0.0012099
0.00160805
0.00253589
0.00337441
0.00534088
0.0047045
0.00264296
0.00168865
0.00138719
0.0719999
0.00819635
0.00185251
0.00134132
0.0012606
0.00127986
0.0012132
0.00134601
0.00227612
0.00306162
0.00404102
0.00345051
0.00211676
0.00150047
0.00130073
0.0719999
0.00856865
0.00192843
0.00136674
0.00127857
0.00129515
0.00122546
0.00124785
0.0021216
0.0027375
0.00304059
0.00259093
0.00175256
0.00135778
0.00123006
0.0719999
0.00892794
0.00200918
0.00139541
0.00129979
0.00131508
0.00124439
0.00144968
0.0020939
0.00246781
0.00234637
0.00200694
0.00150363
0.00125316
0.00117302
0.0719999
0.00925229
0.00209002
0.00142609
0.00132335
0.00133869
0.00126863
0.00170276
0.00224705
0.00238084
0.00190467
0.00161755
0.00133327
0.00117797
0.00112715
0.0719999
0.00952192
0.00216568
0.00145731
0.00134832
0.00136505
0.0012971
0.00194075
0.0024799
0.00258938
0.00187748
0.00135454
0.00121932
0.00112647
0.00109114
0.0719999
0.00972035
0.00223085
0.00148743
0.00137373
0.00139325
0.00132893
0.00213185
0.00278029
0.00286542
0.00229883
0.00136633
0.00114787
0.00109449
0.00106462
0.0719999
0.00983862
0.00228095
0.00151482
0.00139862
0.00142239
0.00136334
0.00227081
0.00312699
0.0031359
0.00293427
0.00163655
0.0011557
0.00107939
0.00104761
0.0719999
0.00988149
0.00231343
0.00153822
0.00142215
0.00145155
0.00139951
0.00236823
0.00348604
0.00337906
0.00378795
0.00202064
0.0012392
0.00108508
0.00104188
0.0719999
0.00987777
0.00232956
0.0015572
0.00144389
0.00147991
0.00143657
0.00243797
0.00382833
0.00360326
0.00479619
0.0025726
0.00135986
0.00110945
0.00104942
0.0719999
0.00989837
0.0023377
0.00157319
0.00146413
0.00150721
0.00147349
0.00249234
0.00414005
0.00383217
0.00572276
0.0033287
0.00153307
0.00114684
0.00106305
0.00992856
0.0719999
0.00235713
0.00158981
0.00148412
0.00153395
0.00150936
0.00254087
0.0044226
0.00408477
0.00639891
0.00434495
0.00177176
0.0011994
0.00108231
0.00238509
0.00997248
0.0719999
0.00161259
0.00150648
0.00156184
0.00154404
0.00259013
0.00468828
0.00437026
0.00683926
0.00567804
0.00210039
0.00127034
0.00110774
0.00164379
0.00242301
0.0105046
0.0719999
0.00153546
0.00159346
0.00157866
0.00264422
0.00495348
0.00469143
0.00711258
0.00740685
0.00254516
0.0013652
0.00113994
0.00157458
0.00168815
0.00263307
0.0117558
0.0719999
0.00163043
0.0016174
0.00270509
0.00523455
0.00504303
0.00729927
0.00958429
0.00313295
0.00148986
0.00118035
0.00167585
0.0016294
0.00183817
0.00311564
0.0151352
0.0719999
0.00167365
0.00277543
0.00554503
0.00540388
0.00744613
0.0119742
0.00388625
0.00164977
0.00123015
0.00175639
0.00173631
0.0017767
0.00212639
0.00437092
0.0231875
0.0719999
0.0028773
0.00587701
0.00573852
0.00758334
0.0141354
0.00479402
0.00184926
0.0012907
0.00302461
0.00188493
0.00189326
0.00198673
0.0027782
0.0075502
0.0418507
0.0719999
0.00616028
0.0060136
0.00774955
0.0160502
0.0057652
0.00208532
0.00136385
0.00633227
0.00325048
0.00218703
0.00207923
0.00232214
0.0044057
0.0143563
0.0662337
0.0719999
0.00624868
0.00812648
0.0179072
0.00664121
0.00233771
0.00145038
0.00648927
0.0064092
0.003698
0.00248017
0.00227393
0.00301676
0.00791107
0.0252763
0.0689162
0.0719999
0.0089258
0.0195823
0.00723563
0.00255913
0.00154719
0.00998824
0.00681824
0.00651973
0.00399053
0.00266276
0.0025107
0.00469126
0.0149873
0.033014
0.0948628
0.0719999
0.0206664
0.00748688
0.00269124
0.00164514
0.0210268
0.0111861
0.0077842
0.00647166
0.00402269
0.00269793
0.00312948
0.0094113
0.0259828
0.0553258
0.108582
0.148369
0.00747905
0.00272559
0.00172834
0.00729811
0.0200894
0.013184
0.00880428
0.00642902
0.00385835
0.00273948
0.00552653
0.0191464
0.0489232
0.0943185
0.136436
0.0812951
0.0568889
0.00275489
0.00182508
0.00263652
0.00604392
0.0176085
0.0140332
0.00940611
0.00644181
0.00363848
0.00364776
0.0116892
0.0385009
0.0832886
0.126083
0.0852674
0.0506352
0.068557
0.0568889
0.00189248
0.00189487
0.00238029
0.00487153
0.0143362
0.0136615
0.00949647
0.00650356
0.00389807
0.00653184
0.0248855
0.0700295
0.117604
0.0815795
0.0540502
0.0389698
0.0467687
0.0688186
0.0568889
0.00180912
0.00224577
0.00380151
0.0115721
0.0128326
0.0092663
0.00669666
0.00502755
0.0126556
0.0507221
0.103331
0.0696921
0.0533893
0.0397767
0.0392146
0.0396051
0.0464104
0.0697748
0.0568889
0.00169602
0.00209642
0.00315414
0.00924183
0.0121577
0.00888659
0.00719289
0.00694305
0.0267765
0.0824407
0.0515755
0.0468146
0.03939
0.0351826
0.057209
0.0465116
0.0430619
0.0477635
0.0723455
0.0568889
0.00155317
0.00198909
0.00276183
0.00719965
0.0114227
0.00838833
0.00771464
0.0103196
0.0557229
0.0346899
0.036679
0.0356809
0.0331072
0.0401174
0.144329
0.109339
0.0624123
0.0494495
0.0521405
0.0764856
0.0568889
0.00145725
0.00192302
0.00247873
0.00539555
0.0103237
0.00790362
0.00846185
0.0245549
0.0236326
0.0266882
0.0292884
0.0300891
0.0317368
0.0586892
1.26275
0.556909
1.25653
0.599233
0.597193
0.308511
0.109488
0.0602283
0.0596168
0.0818719
0.0568889
0.00141094
0.00185142
0.0022512
0.00403323
0.00898945
0.00780304
0.00942175
0.0134827
0.0191178
0.0224113
0.0253109
0.0274246
0.0351296
0.112448
2.85422
1.49937
2.19554
2.84223
5.60605
5.58981
1.48565
0.662107
0.655113
0.986912
0.248127
0.0849598
0.0710412
0.0885914
0.0568889
0.00136618
0.00177119
0.00204884
0.00318913
0.00906648
0.00862724
0.00922486
0.0120766
0.0169215
0.0197092
0.0231801
0.0260235
0.0372382
0.144893
0.14426
0.103435
0.103389
3.25704
1.06588
7.95984
10.3337
3.23843
6.18123
6.1669
1.05308
0.479843
0.474094
2.89503
0.484164
0.126594
0.0851631
0.0962857
0.0568889
0.00131199
0.00168385
0.00195415
0.00290445
0.0115337
0.0107934
0.00999045
0.0117983
0.0148477
0.0185426
0.0213179
0.0244654
0.0450001
0.0450005
0.0375119
0.0374814
0.106233
0.105433
0.0743842
0.0742748
2.07102
0.661683
0.867974
0.735271
0.817239
21.1173
39.8702
19.3385
19.9828
6.7182
6.90316
2.05903
3.65764
3.68599
0.65301
0.854029
0.726039
0.80236
0.339843
0.364821
0.307807
0.42783
0.335247
0.361448
0.303094
0.42032
4.49853
0.70458
0.188008
0.0986487
0.103752
0.0568889
0.00125212
0.00164046
0.00198377
0.00296194
0.015106
0.0136898
0.0150098
0.013004
0.0141411
0.0171702
0.0196004
0.0261517
0.0261181
0.0252646
0.0252644
0.037966
0.0379338
0.0336183
0.0335858
0.0915824
0.266191
0.079257
0.0872587
0.0788167
0.199646
0.264256
0.0911917
0.0786924
0.0865105
0.0782551
0.196422
0.0626931
0.0570513
0.0646418
0.0581483
0.0625775
0.0569368
0.0645576
0.0580592
1.34084
1.47032
1.23158
1.64773
0.406719
0.616236
0.479186
0.58466
28.3497
102.32
193.488
194.728
74.5122
75.9459
14.6975
16.0916
3.68863
4.15147
1.34658
1.45219
1.22511
1.63301
1.96694
2.52404
2.19429
2.3662
2.00051
2.68756
2.32675
2.40351
0.401696
0.604137
0.473017
0.570923
0.222194
0.322387
0.219442
0.315867
4.47443
1.08091
0.233309
0.108391
0.110224
0.0568889
0.00122797
0.0015966
0.00213345
0.00355932
0.0240012
0.0329711
0.0449786
0.028666
0.0397886
0.053541
0.0211134
0.021108
0.0439442
0.0434478
0.0267585
0.0267862
0.0323834
0.0329336
0.0364376
0.034185
0.0361376
0.0339482
0.0364215
0.0341588
0.0361263
0.0339157
0.0328814
0.0311197
0.0333246
0.0313575
0.0328745
0.0310918
0.0333107
0.0313351
0.198727
0.0858635
0.0733127
0.142296
0.0785166
0.0685484
0.198078
0.0854063
0.139693
0.0727971
0.0778336
0.0680889
0.0560433
0.0495154
0.0590475
0.0513241
0.0559537
0.0494249
0.0589645
0.0512522
0.815954
0.983684
0.729843
1.09965
0.299805
0.476664
0.365865
0.465099
24.0608
114.303
360.001
359.795
306.135
306.657
178.788
182.827
61.5486
64.7225
2.10762
4.83955
2.82486
4.31928
2.63168
5.23567
3.16036
4.73674
1.64529
1.68767
1.40114
1.38749
1.85659
1.60859
1.87671
1.88112
1.57493
1.61836
2.1078
1.78593
0.82645
0.965021
0.727271
1.08099
1.10362
1.46762
1.15063
1.49577
0.296255
0.46657
0.36048
0.451262
0.164426
0.252944
0.162429
0.247325
5.73007
1.32878
0.232109
0.113364
0.115182
0.0568889
0.00121491
0.00164208
0.00205515
0.00608347
0.165387
0.197527
0.219921
0.329934
0.637057
0.375287
0.375965
1.77977
1.77959
0.107843
0.108224
0.863767
0.858851
0.029053
0.0264715
0.0357994
0.0283984
0.0292361
0.0265176
0.03659
0.0285747
0.340191
0.347136
0.0819793
0.0559657
0.349095
0.34823
0.0848907
0.0566369
0.0357109
0.032668
0.0353205
0.0322265
0.0357
0.032646
0.0353169
0.0321945
0.0334699
0.029788
0.0334366
0.0303377
0.0335664
0.0297796
0.0334392
0.0303188
0.593336
0.741156
0.53836
0.82673
24.4993
93.3953
305.395
305.387
341.652
341.59
400.406
399.533
330.775
332.68
187.485
101.408
62.1165
36.6816
216.583
119.317
83.8966
47.033
6.59644
9.07834
13.5291
9.31777
8.11479
9.49297
20.3798
11.5763
0.436497
1.18391
0.971398
1.72815
0.637514
1.19672
1.06163
1.87545
1.01979
1.28684
1.05048
0.931049
0.808327
1.14198
1.13767
1.46765
1.17901
1.03333
0.935556
1.28856
0.603441
0.723899
0.536571
0.805152
0.72731
1.02923
0.76035
1.04041
6.28033
1.11854
0.197685
0.113421
0.119721
0.0568889
0.00121591
0.00165726
0.00230716
0.0279663
1.42664
1.08801
1.89668
3.15005
15.528
4.19396
4.17565
7.3694
7.38146
3.62469
3.6232
30.9153
30.8877
0.0350815
0.0280066
0.0607838
0.0402868
0.0356565
0.0281168
0.0626755
0.0406707
0.80719
0.6328
0.203264
0.122344
0.813052
0.634227
0.206743
0.123035
0.0726591
0.0416119
0.0734379
0.0418541
22.2806
74.3079
254.173
254.894
285.981
285.914
350.179
350.037
377.994
377.714
582.609
364.003
564.56
337.178
579.332
362.268
564.354
336.656
353.614
209.208
486.819
290.114
369.253
218.565
492.641
292.883
157.201
74.59
47.5636
17.9106
191.294
98.9488
71.9564
32.0766
1.41023
0.843925
8.9853
2.17522
2.92865
1.0897
16.1213
5.40153
4.75898
0.770815
0.146488
0.11453
0.122677
0.0568889
0.00123427
0.00181808
0.00331678
0.22019
7.6753
8.28639
11.6008
13.8109
188.736
188.789
224.598
224.696
86.9161
86.7501
99.6449
99.8599
46.4556
41.755
15.9555
113.27
46.5675
41.7629
16.0174
113.394
121.947
483.192
243.703
267.219
121.829
483.624
243.599
267.067
0.257283
0.106979
1.31202
0.500088
0.259071
0.108254
1.31552
0.504821
17.1005
6.1485
6.55515
2.3004
17.0292
6.17095
6.52254
2.30689
15.705
57.6779
168.241
310.722
311.41
340.724
340.09
412.238
411.585
416.644
416.132
585.874
355.771
550.818
320.792
583.572
354.62
554.144
322.382
331.012
183.366
450.918
261.176
353.181
199.052
461.611
267.858
124.226
54.2967
153.756
73.432
3.04237
0.329198
0.126086
0.122353
0.120775
0.0719993
0.00134387
0.00195665
0.0252118
1.45548
25.0065
40.14
30.174
85.4094
387.506
387.277
358.759
358.619
569.848
303.955
309.53
561.633
569.778
303.958
309.186
561.031
383.506
383.558
236.991
224.335
99.5708
488.099
237.127
224.405
99.7232
487.925
342.685
750.847
405.599
658.079
342.685
751.532
405.929
657.895
96.7884
41.6467
96.5621
41.7044
9.48519
41.5894
113.729
359.909
359.567
380.259
379.386
378.482
378.619
410.796
408.38
375.889
648.669
381.676
638.498
376.294
645.619
379.442
640.05
374.351
618.96
363.27
636.944
373.71
616.86
361.979
636.254
582.424
339.618
509.729
293.963
582.448
339.417
515.971
297.706
282.602
147.976
397.006
223.48
307.183
166.471
412.869
234.595
1.12598
0.155988
0.134992
0.138388
0.0719993
0.00148158
0.00482063
0.306887
6.98764
53.0535
103.983
240.246
384.02
383.771
352.809
347.849
755.962
449.083
728.682
449.355
756.367
449.151
729.97
449.535
497.656
497.555
804.534
445.249
433.261
766.898
804.652
445.282
433.104
766.944
764.265
451.97
772.66
455.922
765.674
452.315
772.663
455.907
405.067
849.902
469.967
756.943
405.364
851.022
470.475
757.825
3.67184
25.5245
86.5353
207.086
427.822
426.915
451.722
448.762
472.8
471.465
637.731
378.504
401.489
657.743
629.814
374.009
398.755
652.341
390.558
696.061
399.915
678.399
390.95
695.986
399.682
679.51
384.881
627.226
362.273
668.458
383.952
625.769
361.355
666.77
570.72
331.42
572.772
332.15
0.335729
0.142317
0.176514
0.0719993
0.00183816
0.0546013
2.3469
24.5141
94.7722
227.435
694.715
694.905
783.478
783.618
501.591
501.406
742.275
739.258
891.346
506.561
850.46
499.794
891.636
506.706
850.99
499.957
500.008
739.972
474.864
817.866
500.098
741.951
475.174
818.165
900.796
506.211
501.664
889.372
900.388
506.12
501.446
888.973
899.23
509.59
893.151
505.32
900.155
509.919
893.061
505.3
1.09097
10.8695
55.9177
161.24
372.17
371.71
431.82
431.221
503.975
502.317
715.312
419.052
702.05
421.997
705.028
413.313
695.116
417.411
733.417
427.034
742.316
430.219
727.499
421.021
728.316
423.703
742.363
429.916
724.282
419.519
689.112
397.199
685.447
395.427
393.108
703.822
407.577
676.613
393.574
705.643
408.062
678.194
0.213446
0.240059
0.116721
0.00620832
0.561456
11.411
63.1657
166.395
432.906
833.563
832.216
830.771
830.446
1064.07
670.26
592.444
1270.85
691.439
437.634
673.745
1067.86
438.57
591.963
1276.61
690.108
1509.21
835.077
1448.76
783.006
1499.44
825.118
1445.58
776.338
950.684
536.351
938.335
533.61
950.946
536.499
938.637
533.753
498.004
844.385
498.243
844.892
517.053
916.893
516.879
916.624
934.549
527.978
935.612
528.301
0.511532
3.5321
27.1803
104.284
309.764
309.826
352.619
352.311
405.623
404.022
476.314
475.031
452.868
722.706
431.501
784.779
446.305
775.577
450.475
718.586
428.135
781.012
443.074
769.85
769.928
439.435
763.546
436.182
780.929
444.206
777.498
755.608
443.304
431.718
777.446
442.403
777.736
756.099
443.523
431.868
705.285
409.122
704.184
408.531
0.381682
0.233547
0.081891
3.53571
35.167
113.41
243.686
691.026
691.522
567.29
566.644
912.799
910.775
785.358
785.45
783.763
1123.68
625.166
493.985
1216.42
670.034
789.182
1122.61
496.032
624.529
1213.68
668.758
1304.53
736.099
1294.62
717.314
1300.28
733.652
1291.74
715.441
932.678
530.241
933.095
530.438
0.676743
1.4795
10.1867
56.5757
183.27
349.929
349.869
377.384
376.467
578.097
360.389
594.463
354.446
573.724
357.187
592.241
353.03
686.558
771.359
398.609
635.579
374.109
441.288
684.277
768.127
397.343
633.361
372.598
439.332
463.468
457.705
817.959
804.276
461.332
454.752
814.017
798.858
788.525
450.142
783.746
447.812
789.317
450.207
766.58
439.751
787.333
449.222
768.568
440.734
0.439442
0.742915
14.3313
70.2544
152.802
234.324
508.153
508.174
411.194
410.685
574.88
1077.08
617.645
978.23
577.614
1080.79
619.19
985.027
598.925
600.282
1132.27
638.842
1137.34
639.606
1130.73
638.209
1136.09
638.949
0.795872
1.32497
4.1448
25.1508
98.7658
312.147
312.274
381.831
381.603
396.561
395.985
440.629
438.957
643.799
373.238
633.908
364.259
643.411
373.046
637.31
365.795
759.461
670.032
432.157
387.214
655.649
376.756
758.561
668.643
386.794
431.298
655.998
376.999
467.324
821.949
464.685
816.753
4.11516
34.5253
100.478
128.378
380.917
381.229
260.466
259.813
582.893
584.138
505.314
506.751
511.644
921.528
528.571
887.264
513.529
924.4
530.012
891.011
894.016
512.86
881.756
503.219
899.511
517.239
887.216
505.91
950.974
544.938
952.308
545.493
1.39372
2.7497
10.8788
50.6841
157.424
324.621
324.555
403.995
403.079
470.479
467.425
385.282
656.619
383.968
624.005
381.589
651.301
381.142
617.544
660.635
379.07
652.21
375.612
661.574
379.428
657.625
377.889
12.5483
56.5621
75.9551
104.138
392.002
392.516
284.682
284.258
892.332
505.56
447.842
775.094
448.074
740.061
896.757
508.291
450.357
773.752
447.158
743.623
451.419
452.977
496.673
867.678
496
872.489
498.036
869.671
497.233
874.409
869.699
489.096
874.16
491.112
2.34991
5.88116
24.3731
85.7463
238.055
238.403
292.297
292.39
307.657
308.901
412.822
411.466
621.481
381.967
694.577
401.973
699.58
405.641
613.138
375.601
684.955
396.612
690.51
401.068
692.037
395.703
686.837
393.361
675.615
389.681
675.553
389.744
24.1863
41.4522
53.0579
198.435
196.138
157.908
157.326
328.207
328.355
272.181
270.864
788.624
449.573
352.05
654.647
378.881
579.956
791.466
450.093
347.886
650.324
375.413
568.237
485.959
343.834
438.002
294.906
491.724
348.599
434.593
296.353
3.77093
12.1409
45.5945
137.22
279.521
279.146
326.468
325.415
380.749
379.401
633.956
371.294
326.486
565.104
338.23
493.76
326.967
564.512
337.845
494.771
631.254
369.319
683.91
707.291
392.866
404.688
675.508
698.925
389.434
401.055
691.086
398.48
685.608
396.491
18.0776
30.8884
77.0635
238.763
237.826
178.341
177.662
425.354
300.529
289.519
396.826
280.134
403.748
431.878
301.147
293.138
397.636
280.74
403.797
269.472
268.94
299.983
513.201
287.045
486.46
379.687
259.644
372.642
256.573
5.70333
22.7841
74.6742
218.24
218.181
255.934
255.661
270.351
269.832
345.043
342.826
474.321
316.443
540.581
320.935
558.236
331.183
466.977
555.587
329.572
311.207
535.978
318.584
601.156
350.332
573.504
334.24
572.607
601.226
333.718
350.062
14.4995
50.5731
71.6296
245.105
244.671
186.173
185.69
373.587
256.639
268.367
377.19
247.104
391.151
377.405
256.636
273.45
383.623
249.831
394.635
360.503
267.723
382.621
262.111
360.435
267.907
384.528
263.787
340.045
242.867
345.267
243.345
8.09527
38.5169
113.468
252.27
251.761
272.937
271.46
325.183
322.378
500.863
300.843
295.94
461.526
282.9
414.886
496.677
298.312
292.981
456.089
280.276
409.216
532.677
565.706
308.437
327.077
562.688
325.675
529.115
306.823
25.8045
35.4099
116.63
171.513
171.171
116.661
68.172
68.6412
220.987
386.265
271.35
221.018
386.016
271.032
360.048
239.185
247.194
370.479
235.502
394.42
365.672
240.175
251.674
379.942
239.583
400.755
415.568
262.253
418.095
264.176
10.8975
59.0642
155.991
263.887
263.064
303.343
300.973
413.737
304.592
451.592
276.439
454.029
279.029
403.297
445.108
273.842
297.443
443.274
272.233
495.685
289.103
457.986
271.256
492.955
287.667
453.122
269.252
522.47
302.79
520.232
301.776
16.6882
21.1558
165.77
150.414
165.628
150.273
103.697
103.866
310.153
356.231
248.84
370.512
263.81
224.623
269.118
221.597
354.675
306.326
247.737
369.562
263.207
222.872
266.638
218.652
247.55
406.082
251.021
410.914
408.899
256.591
408.541
257.322
13.8568
80.7611
244.178
294.217
293.392
243.863
297.704
297.338
334.005
422.579
283.667
332.428
415.926
279.62
460.988
438.594
270.246
260.506
454.005
267.461
433.076
258.021
481.577
286.115
473.341
281.898
479.71
285.403
468.706
280.96
9.23868
21.8274
183.203
218.496
285.397
164.149
183
216.469
282.547
164.014
110.685
110.871
370.024
345.129
393.997
252.102
235.03
222.672
366.849
392.264
339.545
251.802
233.319
219.799
249.734
405.524
251.664
407.156
15.9274
107.974
273.78
316.739
315.805
273.042
322.616
321.038
428.311
448.168
272.713
438.558
280.439
265.721
404.702
302.549
425.324
446.197
270.833
433.438
277.005
264.094
399.54
298.216
467.338
454.363
277.151
268.847
462.211
275.756
450.374
267.404
6.72624
140.823
134.399
134.255
140.307
102.087
101.843
267.14
217.694
301.709
211.139
291.405
207.675
322.144
223.279
193.921
294.496
209.8
264.014
217.298
302.555
211.15
291.126
204.76
317.453
221.03
193.892
290.343
206.337
363.465
352.578
227.849
225.426
358.156
350.863
225.159
224.247
16.0626
101.636
251.205
373.052
284.91
423.814
370.42
285.019
423.384
248.92
332.572
327.256
435.421
422.423
460.031
255.964
268.887
251.748
436.104
421.721
458.992
268.401
255.953
251.198
477.675
284.229
473.898
283.648
12.7636
178.54
164.924
178.065
164.695
131.736
131.688
340.441
366.007
226.719
221.371
371.767
231.402
349.883
320.868
218.024
317.255
220.498
236.107
289.033
216.487
340.873
362.652
221.013
224.998
366.172
227.78
317.38
343.32
215.416
312.748
216.778
232.35
285.434
213.688
11.8422
85.8015
232.413
230.529
85.9228
62.5677
58.0826
482.656
289.745
497.55
298.881
456.257
335.296
542.903
322.888
466.519
287.777
491.505
295.145
453.397
324.835
530.869
316.661
320.063
494.964
316.7
314.878
475.769
304.495
431.735
459.321
258.207
272.391
433.208
457.101
258.341
271.315
21.8867
181.873
212.851
301.985
191.041
181.581
212.445
301.174
190.837
166.475
166.387
384.696
234.475
382.422
235.024
393.357
379.252
372.898
230.659
238.089
234.634
379.861
231.376
375.741
230.628
385.689
367.987
375.354
227.24
233.25
232.753
2.71524
52.5501
150.964
148.349
53.0278
22.0017
17.8516
480.552
533.275
283.71
308.822
534.75
308.881
476.737
523.745
282.419
304.727
520.38
301.746
345.922
420.736
259.699
473.541
297.961
238.491
339.372
267.908
331.804
406.553
252.391
453.575
285.863
231.727
329.229
260.767
73.0207
182.235
182.298
185.556
207.065
283.858
207.775
284.165
199.741
185.431
208.573
283.792
207.428
286.335
199.615
399.637
407.603
356.833
238.936
243.694
222.635
392.532
400.812
357.975
234.248
239.602
223.413
5.30798
25.3772
100.781
205.155
269.763
91.8776
203.534
264.804
25.0944
7.14801
9.26065
545.781
311.395
512.801
294.928
534.327
306.774
494.983
287.495
373.163
248.294
450.766
222.982
268.395
165.871
363.018
233.432
435.874
264.391
220.083
160.424
35.6114
215.352
168.424
215.425
168.456
174.502
208.055
282.095
209.629
275.45
352
220.281
159.471
174.641
209.062
280.913
208.321
277.037
350.767
219.629
159.893
384.827
232.916
383.942
231.858
13.51
41.3146
39.7447
37.2611
178.773
204.274
171.855
242.204
27.5423
174.38
178.743
159.632
234.608
35.4448
38.0684
301.47
391.736
204.809
195.874
245.884
135.773
292.616
384.223
185.306
246.549
194.362
128.56
22.1315
168.257
179
168.237
179.095
165.082
165.102
159.947
205.895
251.471
201.633
259.628
214.199
346.163
219.269
334.966
372.429
227.666
159.939
208.429
253.303
202.466
263.164
214.793
343.354
217.473
336.804
371.326
226.547
17.4664
93.5824
156.506
93.6896
157.055
44.3538
44.3115
88.672
59.3898
70.5459
168.192
119.174
45.2635
31.3001
60.7787
42.0622
50.2342
141.461
106.375
120.244
120.95
245.67
161.394
230.938
157.599
17.7058
185.28
191.572
185.513
191.609
199.11
218.421
199.022
218.311
228.6
228.399
184.547
240.934
189.306
257.644
204.226
283.802
195.452
304.327
219.376
363.423
224.924
349.188
185.424
241.089
188.97
258.989
207.114
286.801
197.005
310.572
219
359.695
222.73
349.325
8.64082
158.571
158.934
159.275
158.763
205.162
205.474
180.753
51.3136
152.952
125.698
70.6462
80.6636
130.006
91.1921
113.014
207.13
132.524
179.422
53.7852
155.288
125.178
65.5678
53.6555
95.7351
66.703
83.8368
187.13
124.152
4.24057
166.251
132.351
166.204
132.26
260.695
266.2
260.562
266.022
201.126
218.119
201.135
218.099
249.39
379.901
241.512
395.15
249.71
381.165
242.208
395.732
201.421
277.533
189.966
312.96
202.054
277.649
189.901
314.391
3.78418
96.9912
33.7308
95.2873
32.4989
206.924
206.466
207.322
206.122
256.014
255.354
221.496
276.42
211.719
299.155
78.4376
151.388
106.739
116.004
125.015
190.817
124.847
185.804
222.755
268.177
206.599
300.448
68.8971
141.13
103.676
96.8988
115.859
170.88
113.645
171.09
21.2242
6.07452
227.853
176.074
227.577
175.678
267.21
276.367
267.129
276.177
210.669
294.722
211.116
285.259
219.694
324.897
231.21
300.131
212.612
297.084
212.817
287.639
221.032
325.345
231.132
301.768
272.736
449.988
260.084
476.743
273.357
451.689
261.079
477.896
9.48896
34.7456
77.2199
35.1813
77.2196
117.253
46.0664
115.77
46.9482
261.496
263.394
260.766
261.777
240.183
364.129
250.116
343.389
241.021
358.562
247.169
344.44
185.983
247.595
161.928
288.393
185.331
243.097
160.28
287.14
16.1855
142.359
104.139
142.183
104.401
9.80454
241.219
208.448
240.943
208.145
254.515
368.695
253.18
370.851
264.49
394.215
266.34
390.518
256.322
370.456
253.992
373.681
265.039
392.208
264.83
391.423
212.653
334.915
217.572
321.07
221.01
365.97
233.365
335.676
214.419
338.016
219.409
324.189
222.065
366.107
233.432
337.546
18.1253
87.8361
22.5937
71.5462
21.6868
68.5132
211.126
142.181
207.505
141.991
251.113
371.632
253.565
361.336
249.152
376.558
255.328
359.766
251.668
365.589
250.407
361.836
249.541
366.864
249.737
359.766
214.654
379.07
230.475
349.238
214.134
374.886
229.776
348.069
28.3224
88.5353
58.392
88.6583
58.8277
205.142
143.033
205.011
143.025
13.3543
240.328
360.215
245.133
351.76
232.107
329.966
236.484
340.254
241.61
358.549
243.993
353.633
232.356
326.535
233.91
340.48
245.583
400.477
247.86
398.607
256.345
440.82
264.381
424.136
248.12
402.944
249.153
403.256
257.228
436.093
261.75
425.889
18.404
112.479
194.439
211.39
192.245
208.961
103.036
115.886
101.807
114.203
237.393
353.814
249.015
327.884
208.406
307.344
204.875
303.931
235.834
341.446
241.833
324.677
210.993
306.191
203.407
305.341
237.723
388.376
235.69
387.502
235.828
389.214
234.976
384.019
237.17
383.554
234.921
385.641
235.079
383.049
233.769
382.012
60.4974
29.7344
106.206
75.0319
105.993
75.0036
339.575
390.997
223.913
323.692
220.641
254.967
234.534
185.793
259.955
185.876
335.052
383.835
220.875
317.97
216.268
251.121
228.428
181.076
252.971
180.629
9.58534
245.887
417.23
250
409.167
249.571
410.793
247.244
413.221
248.021
410.708
249.008
408.926
256.163
445.672
262.451
430.398
255.753
439.462
258.808
430.194
16.1361
88.4335
262.394
260.179
261.752
259.913
280.334
288.928
276.804
284.721
168.835
279.795
185.114
247.866
179.687
297.415
221.835
262.661
168.544
272.139
180.531
245.41
179.703
292.87
216.282
260.418
208.385
358.477
220.332
339.72
181.89
296.678
183.664
282.854
207.908
350.817
219.835
334.653
181.522
294.488
182.386
281.698
57.1964
108.8
159.026
109.955
159.448
22.9853
124.428
111.897
123.784
112.179
434.877
390.349
260.042
235.261
381.954
230.554
278.347
197.711
332.8
205.747
425.367
383.713
254.527
231.149
371.907
224.313
269.058
192.742
321.189
198.383
19.3793
249.292
424.335
250.697
422.05
257.216
432.813
249.421
419.94
248.091
422.522
254.948
428.736
12.7848
65.5837
170.945
325.062
329.407
323.502
328.711
386.498
311.631
246.602
410.25
274.86
245.357
438.524
321.043
424.203
289.514
305.863
376.998
239.699
400.027
267.272
240.03
426.773
313.432
413.833
282.043
160.121
289.896
173.433
265.227
177.837
284.716
158.8
283.925
169.872
263.341
176.938
283.771
176.331
235.221
155.532
252.422
175.926
235.793
155.279
249.377
41.3505
139.734
144.162
139.798
144.185
180.178
202.641
181.22
203.283
48.7148
185.073
208.371
168.085
203.526
187.405
213.269
200.542
211.589
186.194
209.289
168.64
205.018
187.231
214.747
198.185
212.317
436.648
258.273
300.297
191.885
336.055
204.91
427.205
252.762
291.687
187.63
324.689
198.115
22.2453
9.53412
42.539
122.002
344.974
291.298
343.622
290.446