/*--------------------------------*- C++ -*----------------------------------*\
| =========                 |                                                 |
| \\      /  F ield         | OpenFOAM: The Open Source CFD Toolbox           |
|  \\    /   O peration     | Version:  5.x                                   |
|   \\  /    A nd           | Web:      www.OpenFOAM.org                      |
|    \\/     M anipulation  |                                                 |
\*---------------------------------------------------------------------------*/
FoamFile
{
    version     2.0;
    format      ascii;
    class       volScalarField;
    location    "1.4";
    object      p;
}
// * * * * * * * * * * * * * * * * * * * * * * * * * * * * * * * * * * * * * //

dimensions      [1 -1 -2 0 0 0 0];

internalField   nonuniform List<scalar> 
12160
(
5322.37
5332.1
4668.34
5338.25
4678.36
4014.71
5342.11
4684.35
4025.01
3360.66
5344.81
4688.27
4031.27
3371.68
2707.37
5347.47
4690.77
4034.75
3377.66
2719.28
2052.96
5352.06
4693.09
4036.8
3381.32
2725.34
2066.45
1399.93
5360.22
4697.35
4038.47
3382.79
2728.45
2071.98
1415.2
744.561
5372.2
4705.22
4042.09
3383.32
2729.04
2075.82
1420.99
763.386
215.023
5386.9
4717.51
4050.03
3385.85
2727.98
2075.53
1423.99
768.029
225.784
3.28538
5402.17
4732.64
4062.44
3392.85
2728.98
2072.13
1422.51
773.844
230.708
2.36585
-6.67553
5415.58
4748.43
4078.35
3406.06
2736.06
2070.83
1415.98
772.706
237.16
4.74107
-6.84041
-7.47715
5424.95
4762.35
4095.24
3423.41
2749.49
2076.21
1411.57
763.23
238.67
7.58045
-6.81024
-7.49874
-8.22725
5429.09
4771.79
4110.17
3442.03
2768.55
2090.74
1416.4
755.437
232.284
10.6413
-6.83158
-7.51879
-8.1693
-8.8007
5427.81
4776.18
4120.94
3458.57
2789.63
2112.43
1431.75
758.954
226.149
10.8518
-6.78904
-7.53406
-8.1599
-8.82
-9.51285
5421.59
4774.87
4125.13
3469.62
2808.5
2136.93
1456.51
773.947
227.759
10.509
-6.72661
-7.53173
-8.1753
-8.83147
-9.48564
5411.72
4768.43
4123.43
3474.7
2822.2
2158.93
1485.49
801.242
239.545
11.6983
-6.63277
-7.5004
-8.17428
-8.83242
-9.47572
5399.63
4758.18
4116.37
3472.81
2826.81
2173.06
1511.75
834.603
260.842
14.9983
-6.54596
-7.46282
-8.15959
-8.82982
-9.48332
5386.86
4745.66
4105.3
3464.93
2824.17
2179.74
1532.05
864.76
288.507
20.9687
-6.43531
-7.44735
-8.13589
-8.81965
-9.48335
5374.78
4732.44
4091.85
3452.64
2815
2176.65
1535.38
881.647
315.493
29.8463
-6.2644
-7.4531
-8.12692
-8.80577
-9.48123
5364.58
4719.96
4077.71
3437.81
2800.97
2165.91
1531.12
891.997
334.496
39.9053
-5.96794
-7.48588
-8.13265
-8.80099
-9.47766
5357.12
4709.42
4064.39
3422.29
2784.2
2149.59
1518.22
887.737
339.727
47.3124
-5.49213
-7.54143
-8.15741
-8.80505
-9.47737
5352.98
4701.7
4053.15
3407.72
2766.78
2130.26
1498.97
872.735
334.813
49.7281
-4.96441
-7.60178
-8.19852
-8.81926
-9.48001
5352.41
4697.39
4044.91
3395.43
2750.5
2110.33
1476.47
849.709
320.826
48.0681
-4.67476
-7.64257
-8.24499
-8.84277
-9.48547
5355.41
4696.75
4040.26
3386.4
2736.81
2091.8
1453.51
823.065
301.637
43.1062
-4.74311
-7.65124
-8.27361
-8.8677
-9.49315
5361.7
4699.77
4039.47
3381.23
2726.72
2076.24
1432.32
796.261
280.499
36.8547
-5.0751
-7.63758
-8.28158
-8.88404
-9.49908
5370.81
4706.18
4042.54
3380.22
2720.87
2064.75
1414.6
771.77
259.836
30.5858
-5.46814
-7.6031
-8.26914
-8.88826
-9.50207
5382.1
4715.49
4049.18
3383.36
2719.57
2058
1401.53
751.367
241.48
25.034
-5.79993
-7.56377
-8.24247
-8.88298
-9.50256
5394.8
4727.07
4058.91
3390.34
2722.78
2056.3
1393.77
736.264
226.567
20.5038
-6.04309
-7.52893
-8.21238
-8.86835
-9.50029
5408.06
4740.12
4071.06
3400.68
2730.22
2059.61
1391.62
727.162
215.723
17.1178
-6.2072
-7.49982
-8.18471
-8.85125
-9.49577
5420.99
4753.79
4084.82
3413.68
2741.37
2067.63
1395.02
724.375
209.258
14.8247
-6.30648
-7.47405
-8.16108
-8.83505
-9.49041
5432.73
4767.16
4099.32
3428.52
2755.51
2079.83
1403.66
727.913
207.236
13.502
-6.3617
-7.4522
-8.14126
-8.82093
-9.4852
5442.44
4779.34
4113.59
3444.24
2771.78
2095.46
1417.01
737.429
209.43
13.0909
-6.39198
-7.43485
-8.12529
-8.80907
-9.48057
5449.44
4789.49
4126.71
3459.87
2789.18
2113.59
1434.31
752.275
215.752
13.5303
-6.40146
-7.42279
-8.11332
-8.79954
-9.47663
5453.14
4796.87
4137.78
3474.38
2806.65
2133.17
1454.6
771.66
225.976
14.813
-6.38784
-7.41803
-8.10564
-8.79242
-9.47345
5453.07
4800.87
4146.01
3486.82
2823.09
2153.04
1476.74
794.584
239.707
16.9773
-6.35124
-7.41857
-8.10265
-8.78793
-9.47107
5449.08
4801
4150.78
3496.29
2837.43
2172
1499.47
819.888
256.423
20.041
-6.28872
-7.42464
-8.10306
-8.7862
-9.46955
5441
4797.02
4151.64
3502.07
2848.66
2188.83
1521.51
846.247
275.433
24.0423
-6.19376
-7.43652
-8.10671
-8.78644
-9.46898
5428.91
4789.21
4148.36
3503.59
2856
2202.32
1541.46
872.202
295.842
28.9434
-6.04865
-7.45193
-8.11442
-8.78858
-9.46905
5413.05
4777.11
4140.28
3500.43
2858.91
2211.55
1557.81
896.185
316.568
34.7075
-5.83816
-7.46994
-8.12541
-8.79314
-9.4698
4761.18
5381.38
4128.05
3493.11
2857.1
2215.81
1569.53
915.933
336.339
41.0881
-5.54466
-7.49035
-8.13958
-8.79965
-9.47135
4111.81
4729.22
5322.46
3480.94
2849.6
2214.55
1575.86
930.175
353.834
47.7141
-5.16549
-7.51569
-8.15668
-8.8082
-9.47357
3464.45
4079.1
4669.45
5259.14
2837.15
2207.82
1576.74
938.356
367.822
54.0852
-4.70672
-7.54435
-8.17793
-8.81865
-9.47645
2820.01
3430.8
4017.56
4605.01
5193.97
2195.34
1570.6
939.111
376.977
59.7
-4.19531
-7.57679
-8.20264
-8.83138
-9.47996
2177.67
2784.82
3366.67
3950.94
4539.11
5145.68
1557.72
935.294
379.826
63.6821
-3.69247
-7.61327
-8.23082
-8.84606
-9.48417
1539.12
2140.81
2717
3296.86
3883.72
4489.69
5091.69
921.621
375.785
64.9355
-3.34787
-7.65402
-8.26185
-8.86246
-9.48899
902.498
1500.1
2068.32
2642.85
3227.74
3832.12
4432.7
5048.61
364.877
63.0283
-3.31403
-7.68987
-8.2942
-8.87997
-9.49429
349.023
862.261
1421.75
1988.78
2571.02
3172.86
3772.7
4391.87
5008.52
57.7993
-3.66246
-7.70663
-8.32196
-8.89732
-9.49984
50.7871
317.118
780.134
1335.64
1913.37
2512.37
3113.03
3733.69
4335.22
4942.42
-4.24442
-7.70677
-8.33815
-8.9111
-9.50531
-4.79807
38.2372
255.505
691.976
1255.34
1850.83
2454.11
3074.94
3667.1
4255.47
4910.98
-7.68809
-8.33194
-8.91499
-9.5103
-7.66785
-5.55602
18.7177
199.186
613.229
1188.72
1794.02
2415.85
3008.49
3582.1
4189.73
5009.38
-8.3142
-8.9178
-9.51495
-8.29584
-7.64075
-6.32554
6.84371
155.431
550.579
1133.02
1757.23
2364.84
2945.31
3482.28
4182.57
4764.01
5565.01
-8.91116
-9.51377
-8.90318
-8.27851
-7.57309
-6.58784
1.14949
124.46
503.158
1098.05
1720.76
2327.66
2824.31
3467.24
4132.39
4644.54
5359.16
6083.25
-9.51279
-9.51269
-8.89266
-8.22275
-7.49967
-6.66184
-1.44791
103.047
473.567
1071.15
1703.94
2243.83
2881.59
3534
4087.25
4448.31
5190.63
5943.04
6658.29
-9.51333
-8.86401
-8.16855
-7.45482
-6.68574
-2.74301
90.3525
452.906
1073.08
1704.68
2347.04
2971.57
3527.71
3945.89
4146.83
4950.21
5771.17
6559.12
7288.23
-9.50972
-8.83236
-8.13418
-7.4341
-6.70136
-3.4013
81.3675
459.158
1109.1
1772.89
2397.41
2976.29
3433.01
3729.03
3728.55
4584.81
5513.44
6393.95
7211.34
7976.42
-9.49889
-8.8115
-8.11662
-7.42599
-6.70987
-4.02508
81.172
480.564
1158.59
1800.09
2401.11
2903.61
3277.62
3429.41
3230.1
4103.22
5140.09
6141.09
7061.78
7910.03
8713.86
-9.48955
-8.79921
-8.10881
-7.42305
-6.70193
-4.55799
83.6694
520.388
1165.17
1791.94
2340.61
2787.65
3056.94
3021.96
2135.89
3525.54
2139.96
2129.97
2132.54
4638.48
5792.27
6836.14
7775.23
8655.72
9497.71
-9.48223
-8.79269
-8.10429
-7.40985
-6.68439
-5.00954
95.3612
501.045
1143.6
1725.06
2238.2
2609.83
2797.18
2601.39
2205.22
1837.89
4093.97
2210.96
2375.5
2380.18
1839.22
1845.5
1845.73
5352.63
6536.8
7575.75
8535.96
9444.63
10315.3
-9.47741
-8.78839
-8.09295
-7.3905
-6.65671
-5.26411
85.8552
488.985
1088.11
1631
2095.8
2415.61
2480.66
1688.02
1687.98
1731.42
1735.28
1852.72
1542.66
4920.93
3249.09
1858.48
1955.49
1960.79
1534.77
1615.52
1607.81
6194.85
7317.77
8358.55
9337.41
10265
11165.4
-9.4741
-8.78041
-8.07509
-7.35539
-6.62001
-5.3369
79.7334
445.828
996.399
1521.98
1924.4
2184.57
1741.3
1743.58
1710.88
1712.22
1482.83
1483.16
1575.68
1572.24
1469.57
1188.76
1028.5
1125.99
1064.64
5851.12
4117.5
1976.7
1989.39
1680.65
1693.73
1473.86
1492.76
1503.47
1186.01
1035.57
1128.19
1061.85
1265.76
1169.54
1334.53
1140.5
1260.04
1169.25
1332.52
1130.31
7063.74
8132.36
9182.91
10167.7
11113
12043.5
-9.47016
-8.76881
-8.049
-7.30071
-6.55527
-5.40146
61.9405
374.256
898.9
1367.96
1718.1
1599.97
1598.38
1454.89
1453.93
1631.22
1625.09
1632.43
1622.64
1154.19
1135.48
1182.46
1168.51
1235.94
1160.26
1130.06
1157.3
1183.31
1172.6
1236.35
1159.99
1256.87
1346.27
1211.79
1288.16
1258.46
1346.53
1213.17
1288.08
1079.52
1000.07
1080.92
979.555
1015.8
945.856
950.645
994.036
6818.97
5286.21
2882.44
2882.38
2376.51
2382.67
1659.66
1672.36
1309.36
1329.82
1085.9
1010.06
1084.2
993.307
1092.28
1011.09
1179.82
976.288
1101.19
1036.35
1190.6
995.101
1016.52
952.333
953.701
997.464
1096.28
1062.7
1095.06
1060.03
7934.43
8992.99
10033.2
11013.8
11983.7
12946.4
-9.46542
-8.75156
-8.01454
-7.24809
-6.49729
-5.4374
36.8404
307.615
762.209
1188.12
1266.58
1265.19
1107
1106.55
1517.82
1506.1
1376.2
1364.32
1284.88
1375.26
1258.93
1349.79
1286.73
1374.37
1262.71
1349.25
1277.93
1372.71
1257.45
1349.85
1278.03
1371.14
1260.3
1349.99
1105.25
1147.34
1130.37
1126.69
1180.44
1173.35
1100.15
1152.68
1127.06
1131.73
1182.89
1173.71
1279.95
1271.88
1221.9
1217.99
1282.84
1273.15
1222.19
1218.5
908.4
919.69
924.574
883.362
973.349
864.802
918.76
946.85
7754.94
6474.6
3934.85
3934.26
3393.55
3391.24
2527.58
2522.1
2028.03
2033.74
1227.64
1308.4
1062.29
1146.03
1240.94
1317.11
1076.38
1150.79
810.04
865.891
857.283
925.909
1038.33
943.965
828.566
889.035
863.691
939.912
1042.85
958.99
917.447
926.297
929.681
897.002
903.999
839.98
916.88
861.956
973.93
870.556
921.541
948.3
1072.97
1023.86
1070.41
1020.39
8836.35
9881.52
10887.2
11869.5
12874.2
13875.3
-9.45921
-8.72867
-7.98009
-7.18063
-6.45611
-5.43773
18.6976
235.971
601.026
892.803
893.942
674.102
675.246
1198.91
1194.39
1021.77
1019.93
1222.49
1313.46
1135.04
1236.93
1219.71
1311.42
1135.15
1235.49
1048.97
1209.69
1081.59
1201.02
1048
1207
1081.27
1199.21
1285.74
1274.55
1284.52
1252.14
1288.52
1277.23
1284.78
1254.67
1289.74
1254.57
1296.12
1242.86
1290.08
1256.09
1295.35
1245.68
842.04
865.685
882.232
798.707
8713.29
7546.36
4944.96
4945.53
4456.9
4456.02
3703.58
3691.58
3081.87
3072.7
2009.16
2175.3
1765
1906.31
2020.07
2178.14
1776.93
1911.97
1380.03
1483.53
1566.38
1698.64
1391.3
1488.79
1579.31
1702.18
1153.02
1244.35
986.644
1024.92
1162.25
1251.4
993.585
1023.58
738.243
794.248
869.914
783.045
869.977
962.472
756.957
804.683
876.215
793.214
879.07
965.075
850.989
869.533
887.729
811.077
813.984
751.31
824.901
768.281
9755.45
10763.4
11728.4
12732.7
13784.6
14820.9
-9.45156
-8.70116
-7.94725
-7.09137
-6.38877
-5.43407
6.18908
156.653
415.158
812.428
811.992
580.191
581.004
1115.97
1113.34
959.425
955.785
1223.55
1198.06
1152.48
1143.98
1221.76
1198.65
1150.53
1144.34
1045.28
1094.52
1092.91
1113.05
1042.77
1094.42
1091.53
1113.07
1232.49
1242.32
1235.59
1243.83
9672.46
8591.15
5940.35
5949.03
5430.06
5429.02
4813.01
4806.6
4288.95
4276.54
2989.14
3308.02
2748.34
2975.35
2999.08
3309.48
2756.5
2976.97
2251.46
2430.02
2505.85
2708.72
2260.98
2432.23
2515.5
2710.82
1984.27
2097.16
1760.21
1904.45
1991.11
2096.59
1767.9
1905.25
1342.17
1470.9
1557.11
1730.59
1355.12
1478.38
1567.55
1731.02
10658.7
11609
12548.9
13599.7
14714.7
15740.2
-9.44647
-8.65859
-7.90383
-7.01529
-6.24509
-5.37233
-1.30226
72.9209
293.731
293.939
137.131
137.374
746.899
743.019
503.97
503.813
886.483
924.674
949.864
818.288
884.794
922.07
949.07
815.908
831.128
702.555
768.259
758.374
828.804
699.937
766.149
754.716
1169.53
1169.36
1115.87
1140.15
1170.76
1170.44
1116.29
1140.45
1018.69
1045.28
1057.23
1109.41
1021.59
1044.89
1059.67
1109.38
10596.9
9625.63
8546.64
5876.7
5877.58
5324.92
5317.15
4653.03
4644.92
4040.79
4039.26
2975.81
3134.91
2717.29
2804.29
2979.74
3136.44
2722.2
2805.89
2234.56
2322.03
2470.51
2547.41
2238.25
2321.99
2474.59
2548.58
1972.22
2082.23
1980.38
2081.2
11531.9
12413.3
13358.3
14481.4
15644.3
16519.9
-9.4468
-8.63209
-7.83379
-6.93811
-6.21805
-5.84278
-2.73293
24.5892
236.952
235.724
93.2657
93.0102
621.803
675.706
593.136
523.218
623.983
675.219
592.525
525.855
453.948
451.959
861.059
889.666
907.41
837.053
859.946
890.399
906.972
834.769
794.599
693.199
707.894
775.349
792.842
691.2
707.037
771.656
960.023
1006.67
964.885
1006.09
11479.3
10580.4
9648.26
6800.67
6808.01
6165.66
6165.2
5758.32
5756.27
5234.62
5213.07
3871.83
3876.97
4160.77
3632.56
3874.82
3896.32
4165.12
3640.9
3602.74
3127.01
3320.53
3383.33
3603.97
3129.11
3321.41
3386.6
2909.88
2979.3
2655.86
2696.41
2918.13
2981.9
2657.35
2697.14
2183.43
2260.06
2418.3
2468.39
2186.53
2259.11
2419.16
2468.03
12351.7
13204.3
14168.6
15407
16438.4
-9.4267
-8.58809
-7.75399
-6.86404
-6.26806
-6.31371
-1.89438
13.7346
14.1303
3.05944
3.11299
208.669
229.333
138.291
157.676
209.07
229.226
138.647
157.472
95.5065
95.2509
601.159
614.664
526.738
490.818
600.154
614.269
526.332
490.919
298.272
328.531
390.225
418.006
300.263
328.659
390.938
417.779
762.204
674.479
684.921
747.782
761.521
674.476
684.777
747.136
12314.1
11473.7
10618.1
9720.38
6736.53
6724.83
6168.82
6152.9
5719.47
5698.3
4109.23
4451.92
4799.13
4408.4
4124.02
4454.63
4796.55
4405.95
3751.32
3937.81
4032.74
3673.32
3754.37
3953.9
4038.98
3681.76
3507.1
3169.07
3244.1
3433.93
3507.79
3174.47
3245.77
3435.44
2931.62
2995.56
2944.13
2998.91
13139.7
13971.2
15057
16199
-9.40676
-8.54139
-7.6757
-6.69943
-5.62401
-6.13999
-0.192309
-0.277386
1.26718
1.2802
69.5767
70.1971
17.7413
18.1419
196.267
203.96
127.521
137.2
196.7
204.202
127.718
137.263
104.203
78.643
85.6583
100.117
104.24
78.7
85.7016
100.286
585.489
595.586
500.495
488.471
584.009
595.09
500.155
487.503
290.553
301.06
382.366
391.155
291.886
301.543
382.932
391.365
13111
12311.4
11520.8
10711.9
7553.28
7554.78
7110.76
7104.42
6591.34
6591.89
4998.29
5374
5116.43
5587.65
5013.41
5379.09
5142.68
5594.5
4749.28
5061
4551.16
4816.84
4405.84
4589.29
4777.99
5068.28
4569.86
4823.02
4412.43
4592.38
4178.81
4316.1
4189.33
4320.33
3770.55
3924.41
3999.16
3707.8
3774.61
3944.46
4005.61
3720.06
13887.6
14761.8
15842
-9.38834
-8.49936
-7.58014
-6.31483
-5.04906
-3.62655
2.19711
1.98664
0.880668
0.979093
85.4011
104.283
89.1145
67.508
70.8704
110.643
104.311
85.1667
110.62
88.7481
67.4385
70.6734
32.6334
35.8419
44.487
46.3988
33.4931
36.3213
45.2839
46.8725
198.406
205.516
132.155
136.404
198.932
205.735
132.548
136.579
118.538
111.771
118.523
112.076
474.468
463.966
474.36
463.779
265.87
277.496
267.103
277.997
13857.4
13111.7
12363.3
11635.8
8453.49
8466.02
8009.08
8006.46
7545.88
7536.81
7043.76
7043.81
5790.32
5500.72
6030.36
5435.98
5487.84
5221.34
5796.24
5538.83
6040.95
5449.65
5492.79
5233.01
5102.16
5242.1
5113.88
5247.12
4876.86
4980.86
4658.02
4371.47
4765.04
4457.91
4896.72
4987.79
4669.1
4394.1
4769.87
4465.84
4139.65
4218.81
4156.63
4224.84
14640.7
15548.4
-9.37134
-8.45839
-7.44692
-6.42784
-6.43634
-1.73663
-0.641772
-3.15563
-2.64052
14.2618
13.4052
0.881077
1.32642
104.742
88.4712
90.5863
109.897
72.2448
72.9613
104.46
87.5606
108.83
89.3238
71.3062
72.2122
26.2846
28.3025
49.9538
51.0345
26.1559
28.1301
50.0201
51.3729
120.796
124.52
121.207
124.658
14605.6
13855.2
13167.1
12487.8
11804
8440.63
8437.73
8031.15
8009.41
6283.12
6847.8
6200.94
6644.87
6320.08
6864.29
6228.33
6654.8
5764.09
5596.34
6171.79
5947.45
6354.04
5923.43
5787.35
5616.35
6180.87
5983.78
6365.85
5931.61
5705
5413.62
5537.91
5304.61
5707.9
5416.7
5544.76
5311.41
5124.73
5199.66
5133.63
5203.12
4933.16
5012.3
4420.76
4519.43
4952.05
5018.29
4437.08
4525.65
15382.2
-9.35765
-8.44063
-7.85119
-8.13415
-7.37953
-1.27984
-0.891698
-4.33371
-4.6185
9.16808
20.4594
22.8679
7.8837
8.19059
19.6568
21.7608
7.28895
0.380795
0.595552
32.4741
35.4375
48.7632
52.4996
32.4897
36.2175
48.9653
53.0766
15311
14596.1
13898
13283.1
12655.6
9304.73
9324.34
8823.86
8822.27
8381.99
8375.61
7974.53
7957.76
6438.75
6807.06
6370.63
6562.45
6459.2
6814.15
6389.93
6570.08
5744.15
5961.17
5941.92
6176.78
6176.78
6352.38
5769.54
5967.98
6181.6
5950.56
6187.14
6357.66
5477.98
5365.79
5479.74
5371.71
-9.36186
-8.68914
-8.88078
-8.63596
-5.41979
-5.39526
-5.68804
-5.68402
-3.81542
-4.10322
-5.32657
-5.44302
7.39917
15.5466
16.842
7.4795
7.58894
15.0457
17.044
7.29749
-0.245748
-0.376362
2.91485
3.25549
-0.146534
-0.603064
3.43358
4.51964
24.1407
27.0233
23.7613
26.3508
15298.9
14632.6
14005
13450.8
12834.4
9201.81
9205.01
8907.29
8883.19
8455.84
8433.18
7384.75
6688.67
7146.23
6753.64
7381.53
6686
7145.52
6746.92
6569.62
6783.75
6426.19
6584
6589.47
6790.46
6444.94
6591.37
-9.43166
-9.16834
-9.1785
-8.32488
-6.68014
-6.63239
-6.37713
-6.37324
-1.11892
-1.3597
-6.71179
-3.85125
-4.52401
-5.35689
-1.05647
-1.4363
-6.96632
-4.27127
-4.76664
-5.69268
-7.9866
-7.95592
7.01947
11.6883
12.3902
6.5684
8.48511
11.5154
12.5112
7.35625
1.12953
1.31534
1.32691
1.35335
15341
14740.3
14192.1
13649.2
10115
10130.4
9599.98
9603.01
9082.46
9089.61
8875.65
8848.16
7036.59
7744.34
7003.79
7517.67
6835.75
7295.42
7099.71
7759.19
7024.73
7524.8
6828.27
7293.06
6804.5
7032.66
6810.94
7034.51
6654.79
6848.28
6675.26
6852.84
-9.56413
-9.39802
-8.81549
-6.40744
-6.42865
-6.61235
-6.62177
-6.65446
-6.60078
-6.35696
-6.35538
-2.39902
-2.7697
-6.73701
-4.57626
-4.93421
-5.63569
-2.52128
-2.89684
-7.09637
-4.84178
-5.06676
-6.06223
-6.02661
-6.62493
-5.35875
-5.97557
-6.08927
-6.66333
-5.66695
-6.18162
15454.7
14926.8
14427.6
13865.6
10098.3
10093.4
9714.25
9684.22
9254.16
9234.12
7172.67
7691.19
8138.09
7418.59
7991.25
7460.59
8136.54
7417.25
7989.48
7459.41
7183.92
7694.09
7138.99
6938.65
7500.07
7204.88
7140.22
6951.98
7499.66
7208.31
6839.27
7039.02
6853.85
7041.62
-9.63018
-9.21275
-8.91112
-6.39875
-6.40029
-6.52114
-6.52224
-5.69002
-6.10768
-5.63585
-5.44166
-5.8024
-5.19954
-5.79605
-6.18248
-5.62486
-5.4301
-5.79287
-5.19408
-6.26069
-6.26192
-5.61894
-5.16578
-5.84991
-5.46789
-5.08222
-5.62626
-5.27435
-5.74076
15646.7
15170.6
14675.6
10912.3
10920
10471.2
10470.3
10106.6
10097.1
9622.01
9602.9
7776.19
8451.11
7757.35
8279.7
7575.41
8106.42
7799.25
7573.42
8105.09
8454.23
7771.35
8283.34
7359.99
7686.5
7553.67
7921.16
7555.31
7367.99
7921.01
7687.65
-9.59131
-9.29413
-8.7267
-6.23232
-6.22636
-6.38834
-6.38848
-5.469
-5.72676
-5.4651
-5.27312
-5.48085
-5.22787
-5.52262
-5.72873
-5.46374
-5.2697
-5.47523
-5.22135
-5.05579
-5.4353
-5.18912
-5.43858
-5.07155
-5.43682
-5.1896
-5.4321
-5.19172
-5.56931
-5.30021
-5.64176
15887.5
15446.3
14944
10969.3
10961.4
10583.4
10560.9
10019.3
10015.7
7934.2
8448.64
8718.02
8136.53
8644.3
8103
7952.88
8454.45
8719.38
8132.72
8644.27
8103.35
7952.72
7721.36
8278.04
8020.94
7736.55
8024.5
7958.55
8279.7
-9.64005
-9.20674
-6.3488
-6.24562
-6.23428
-6.34779
-6.62257
-6.63129
-5.98979
-5.02771
-5.27628
-5.981
-5.03153
-5.27636
-5.25356
-5.46105
-5.26842
-5.08389
-5.24674
-5.16773
-5.2652
-5.41998
-5.26378
-5.06984
-5.23076
-5.15948
-5.1053
-5.27397
-5.10081
-5.26923
16162.8
15751.7
15252.3
11047.9
11043.5
10541.6
10531.9
8376.99
9006.52
8449.78
8953.94
8277.14
8775.72
8407.08
8278.69
8777.5
9010.53
8473.27
8962.3
8082.77
8333.57
8279.59
8604.52
8106.88
8340.82
8294.49
8609.62
8012.37
8244.63
8028.22
8249.64
-9.62839
-9.14002
-6.09445
-6.32038
-6.08725
-6.31106
-6.61131
-6.6167
-4.94823
-4.94326
-5.08047
-4.94126
-5.17222
-5.16529
-4.87172
-5.23984
-4.94428
-4.94857
-5.08081
-4.94411
-5.17218
-5.1658
-4.88093
-5.24091
-5.15828
-5.03095
-5.14918
-5.01783
-4.9811
-5.15825
-4.97337
-5.15436
16468.1
16037.1
11940.5
11045.9
11027.6
11957.5
11439.7
11443.7
10448.9
8531.72
9067.95
10453
8561.98
9078.65
8398.41
8597.41
8640.09
8960.51
8416.95
8645.99
8612.71
8966.78
8138.06
8400.47
8284.33
8536.34
8166.99
8408.16
8308.99
8542.55
-9.66539
-9.07991
-5.95637
-5.2084
-4.92587
-6.21465
-5.94746
-5.2027
-4.91938
-6.19687
-6.51559
-6.51895
-4.90476
-4.90393
-4.91206
-5.10565
-5.0031
-5.09676
-4.9051
-4.90261
-4.90196
-5.1002
-5.00339
-5.09611
-5.1071
-4.94031
-5.09859
-4.92365
16750.5
16277.9
11954.3
10931.4
10928.3
11951.8
11554.9
11539.7
8776.7
8519.99
8976.86
8501.22
8997.39
9318.55
8693.21
9340.58
8802.86
8556.8
8991.41
8536.07
9010.04
9328.73
8724.9
9342.69
8462.22
8628.11
8685.78
8944.65
8465.95
8687.74
8644.05
8950.97
-9.71777
-6.66555
-6.44564
-6.43631
-6.66867
-7.01017
-7.02175
-4.90631
-5.09033
-4.8751
-4.99432
-4.85468
-5.26862
-4.92125
-5.10839
-6.08583
-4.95364
-5.2445
-4.91449
-5.09104
-4.87921
-4.99589
-4.85622
-5.26738
-4.92475
-5.10918
-6.07516
-4.96182
-5.24593
-4.8254
-4.84182
-4.99978
-5.03058
-4.83132
-4.83799
-5.00151
-5.02965
17019.5
16455.7
11994.9
10946.9
9433.01
8909.74
10947.9
9439.83
8925.19
11988.2
11504.3
11481.8
8710.94
9008.95
8622.68
8978.28
8929.35
9368.62
8744.61
9022.29
8649.79
8939.42
8991.15
9373.5
8505.76
8760.33
8513.06
8762.94
-9.79043
-6.39339
-6.65434
-6.3793
-6.65978
-7.01438
-7.02454
-4.82806
-4.8567
-4.96352
-5.01411
-4.89421
-5.07646
-5.06754
-4.91551
-5.05133
-4.87382
-5.10326
-5.23863
-5.1048
-5.45834
-4.82931
-4.86647
-5.01417
-4.96713
-4.90027
-5.079
-4.9237
-5.06242
-5.05466
-4.88897
-5.10701
-5.23712
-5.10504
-5.4554
17257.5
12509.1
11935.1
11910.8
12539.2
12251.1
12258.4
9114.51
9384.25
8874.4
9390.93
8886.54
9848.22
9137.96
9726.52
9162.72
9389.79
8894.5
9398.2
8898.44
9861.54
9164.23
9735.18
11365.2
9279.43
9859.65
11352.5
9323.53
9874.92
8861.79
9009.12
9131
9338.7
8887.79
9006.95
9139.36
9340.49
-9.77856
-6.32608
-5.43522
-5.1522
-6.5973
-6.30948
-5.42994
-5.14121
-6.60176
-6.99299
-7.0055
-4.77051
-4.96829
-4.82828
-4.95261
-4.93777
-5.05968
-4.8281
-4.93548
-4.99729
-5.20665
-4.78317
-4.97253
-4.83591
-4.95703
-4.95362
-4.83794
-5.04357
-4.94016
-5.00205
-5.20064
17192.7
12583.5
11891
11858.4
12622.8
12299.5
12310.5
8926.37
9062.27
9295.87
9396.34
9359.92
9724.33
8935.08
9079.91
9300.3
9402.67
9381.29
9732.15
9522
9299.43
9764.24
9241.11
9754.57
10033.7
9515.42
10115.1
9530.7
9322.84
9772.31
9291.88
9769.49
10042
9539.64
10124.7
-10.2564
-6.8914
-6.90686
-6.23998
-5.32775
-5.09738
-5.30855
-5.10568
-6.45155
-6.22458
-5.32388
-5.08747
-5.30349
-5.09721
-6.4569
-4.80689
-4.84646
-5.02528
-4.90355
-4.96988
-5.13835
-4.82657
-4.85516
-5.01412
-4.91021
-4.97234
-5.13348
17349.1
12588.6
11996.5
10227.1
9718.7
11957.6
10224.5
9710.08
12624.3
12328.2
12322.4
9220.01
9510.85
9370.43
9674.13
9232.59
9514.75
9377.28
9676.24
9530.9
9784.07
9364.34
9810.09
9672.57
10148.6
9544.52
9747.7
9362.51
9670.95
9812.2
10137
-9.66663
-6.91578
-6.75845
-6.92772
-6.7667
-6.10252
-5.20986
-5.05993
-5.27408
-5.01247
-5.01484
-5.12528
-6.40609
-6.09063
-5.20894
-5.05627
-5.27017
-5.01124
-5.00755
-5.12218
-6.40753
-4.82664
-4.95702
-4.83592
-4.9587
17482.6
12589.7
12614.9
11992.1
10086.8
9688.69
10061.9
9715.24
11960.7
10088.5
9688
10066
9708.73
12294.1
12268.9
9680.97
9398.22
9821.3
9958.13
9710.6
10091.8
9707.46
9403.98
9793.1
9707.62
9960.71
10082.3
-10.002
-6.65765
-6.95808
-6.66868
-6.97117
-6.42056
-6.41997
-6.07901
-5.13554
-4.87518
-5.05545
-4.96016
-5.07521
-4.9882
-5.11144
-4.93909
-4.81076
-4.96155
-6.06579
-5.13935
-4.87094
-5.04748
-4.96256
-5.07313
-4.98332
-5.10869
-4.9395
-4.82072
-4.96371
17518.4
12616.2
12672.8
12638.5
12694.9
11966.9
10023.4
9624.86
10049.5
9613.08
9808.16
10091.6
11920.1
10015
9625.56
10045.1
9598.99
9804.63
10092.7
12296.9
12280.5
9740.86
9967.7
9760.56
9970.15
-9.72079
-7.03203
-6.94247
-7.04582
-6.95237
-6.40842
-6.54965
-6.41021
-6.55303
-6.10508
-6.09488
-4.96169
-4.84042
-5.02372
-4.76035
-5.04871
-4.81339
-4.99515
-4.88534
-4.95999
-4.78779
-4.96615
-4.75654
-4.96005
-4.8444
-5.0231
-4.75854
-5.04507
-4.8102
-4.99191
-4.8806
-4.96288
-4.80218
-4.96989
-4.77068
17330.5
12689.9
12664.1
12711.6
12680.9
12347.3
12336
11877.7
10003.2
9605.15
9992.05
9607.13
10138.6
9769.35
10134.1
9754.7
9752.74
9985.6
11837.2
9994.88
9598.82
9983.15
9598.94
10143.9
9779.4
10139.2
9760.21
9777.09
9992.47
-9.73676
-6.95118
-7.07034
-6.96168
-7.08178
-6.61122
-6.61808
-6.61473
-6.62055
-6.1046
-6.18456
-6.09617
-6.17463
-4.96902
-4.76769
-5.02095
-4.71536
-4.96621
-4.76599
-5.01839
-4.71273
-4.93659
-4.78142
-4.96458
-4.77284
-4.9363
-4.78398
-4.96489
-4.777
17160.1
12625.6
12551.3
12642.1
12577.1
12368.9
12332.7
12357.9
12321.8
11923.4
11889.7
10114.1
9547.8
10010.2
9631.13
10140.9
9712.26
10050.9
9762.55
10091.5
9749.89
10041.3
9759.66
10107.7
9554.72
10007.8
9620.47
10137.8
9723.81
10048.7
9758.48
10103.1
9780.02
10052.6
9782.59
-9.10996
-9.62429
-6.68006
-6.7387
-6.68159
-6.7415
-6.23893
-6.32844
-6.2294
-6.3148
-5.09329
-4.83102
-5.03815
-4.89993
-5.12279
-4.97125
-5.17067
-4.93024
-5.09221
-4.8308
-5.03605
-4.89988
-5.12208
-4.97617
-5.16984
-4.93085
-4.78899
-4.73524
-4.82102
-4.717
-4.78894
-4.73434
-4.82003
-4.71908
17177
12566.8
12462.7
12590.1
12487.3
12342.3
12266.2
12321.7
12257.2
11922.6
11884.7
11890.7
11856.6
10174.7
9690.86
10262.4
9644.9
10167.8
9679.62
10254.6
9633.23
10177
9639.83
10047.4
9726.74
10168.4
9647.58
10044
9717.41
-9.14057
-6.50993
-6.54217
-6.4974
-6.54124
-9.57783
-6.40384
-6.45486
-6.38451
-6.4421
-5.23581
-4.9727
-5.17561
-5.03406
-5.29218
-5.10797
-5.33858
-5.07551
-5.23451
-4.97809
-5.17533
-5.03311
-5.28984
-5.10535
-5.33473
-5.07199
-5.01643
-4.80787
-4.97976
-4.83254
-5.04133
-4.86982
-5.02973
-4.85435
-5.01655
-4.80847
-4.97841
-4.83808
-5.04089
-4.87507
-5.03144
-4.85756
16983.8
16355.2
12260.7
12172.3
12256.1
12179.2
11920.7
11920.5
11877.7
11878.7
10269
9697.17
10277.2
9700.45
10233.9
9617.32
10181.9
9674.82
10263.3
9685
10269.1
9689.31
10230.8
9628.9
10181
9670.24
10191
9781.52
10211.9
9768.24
10184.9
9782.3
10208.4
9761.63
-9.13276
-6.60098
-6.61678
-6.60647
-6.62656
-6.18159
-6.255
-6.16993
-6.23516
-9.54074
-5.38224
-5.16163
-5.38802
-5.15213
-5.49094
-5.19387
-5.55324
-5.20166
-5.37781
-5.14958
-5.38147
-5.14318
-5.48427
-5.1942
-5.55104
-5.19107
-5.04913
-4.88418
-5.0061
-4.95496
-5.0911
-5.05345
-5.12728
-5.01607
-5.04774
-4.88958
-5.00756
-4.95463
-5.08821
-5.04544
-5.12429
-5.01126
16723
16212.2
11869.3
11916.8
11849.6
11910.1
11947.9
11824.7
11905.5
11793.8
10076.8
9632.33
10142.4
9626.8
10134.6
9674.08
10065
9719.24
10071.8
9635.08
10139.9
9616.46
10123.1
9673.05
10056.7
9702.84
10222.3
9784.55
10212.1
9793.25
10192
9719.45
10139.2
9766.21
10216.7
9783.06
10208.2
9785.71
10188.3
9732.25
10140.2
9764.73
-8.63084
-9.1774
-6.31254
-6.30512
-6.30222
-6.30087
-4.99191
-5.14748
-5.13578
-4.93526
-5.17029
-5.32348
-4.96539
-5.34203
-4.99945
-5.30898
-4.99581
-5.13906
-5.13758
-4.94729
-5.17315
-5.32031
-4.97325
-5.34112
-5.00449
-5.30922
-9.54531
-5.17937
-5.09707
-5.17187
-5.09272
-5.26281
-5.11976
-5.17467
-5.08406
-5.16727
-5.07984
-5.25719
-5.10385
-4.98264
-4.88598
-4.99869
-4.85945
-4.98262
-4.89854
-5.00047
-4.87023
16428.9
16004.3
11893.9
11906.1
11889.1
11919.1
11231.2
11409.7
11223.4
11387.6
10047.3
9722.48
10069.4
9713.22
10134.9
9509.18
10080.1
9693.38
10037.5
9707.71
10059
9695.9
10127.1
9535.41
10087.3
9674.64
10058.1
9717.87
10127.7
9682.61
9981.39
9595.91
9886.39
9651.11
10051.4
9725.92
10127.5
9676.04
9973.55
9590.4
9881.06
9639.69
-8.60566
-6.09186
-6.19297
-6.07896
-6.19162
-9.08854
-5.96109
-6.04076
-5.95114
-6.02768
-5.00742
-4.94356
-5.09045
-5.04922
-4.9099
-5.02095
-4.9434
-5.15718
-4.90353
-5.10261
-5.01378
-4.94249
-5.09213
-5.05034
-4.91213
-5.02301
-4.94276
-5.15713
-4.90344
-5.10394
-9.60935
-5.0309
-4.92025
-5.03169
-4.91009
-5.07574
-4.92711
-5.03074
-4.92706
-5.03173
-4.91593
-5.07524
-4.92954
16108.3
15710.4
15184.1
11496.6
11406.7
11478.6
11404
9144.95
9274.7
9534.71
9137.11
9597.94
9732.22
9014.09
9692.41
9190.06
9740.41
9287.87
9190.77
9555.54
9202.49
9622.73
9739.98
9063.34
9707.81
9239.49
9760.09
9845.84
9614.22
9864.21
9611.21
9889.75
9552.5
9842.29
9610.36
9860.84
9601.52
9884.06
9532.96
9889.54
9511.85
9793.05
9545.28
9882.43
9526.72
9792.3
9546.95
-8.58919
-6.23675
-6.26519
-6.23984
-6.27574
-5.80566
-5.96415
-5.80119
-5.95499
-9.27851
-5.01505
-4.87331
-4.98643
-4.78742
-5.18148
-4.79285
-5.14607
-4.8645
-5.01495
-4.87656
-4.9865
-4.79006
-5.17946
-4.79632
-5.14606
-4.85809
-4.88832
-5.03414
-4.85766
-4.98162
-4.79302
-5.01416
-4.89581
-5.03715
-4.86073
-4.983
-4.79496
-5.01587
-9.5113
15824.6
15383.7
14880.5
10978.2
10987.9
10959.9
10985.4
10882.3
10907.7
10878
10903
9410.8
9286.78
9571.24
9588.05
9328.66
9641.55
9089.36
9676.59
9326.57
9715.39
9450.98
9322.09
9602.42
9585.48
9348.68
9651.57
9114.27
9685.21
9353.56
9725.23
9740.74
9568.1
9792.05
9571.52
9704.82
9518.14
9745.4
9582.24
9793.26
9592.83
9712.18
9541.1
-7.94507
-8.88485
-5.93939
-5.85763
-5.93168
-5.85765
-4.78176
-4.84651
-4.96247
-4.73263
-5.02065
-5.07835
-4.86455
-5.28404
-4.8081
-5.1154
-4.8019
-4.85403
-4.97366
-4.75491
-5.03127
-5.08136
-4.87483
-5.28694
-4.82919
-5.12295
-8.96584
-4.97822
-4.8006
-5.00026
-4.76291
-5.01755
-4.78652
-4.98102
-4.80863
-5.00366
-4.76851
-5.01798
-4.7908
-9.42778
15587
15100.8
14601.2
10917.4
10856.1
10910.8
10864.6
10450.6
10491.1
10449.1
10483.3
9443.07
8866.77
9409.62
8913.5
9496.5
8727.49
9481.97
8923.93
9443.91
8878.43
9412.07
8915.44
9501.17
8764.82
9491.39
8935.88
9366.31
9548.35
9026.72
9363.62
9156.59
9448.27
9416.46
9564.27
9040.26
9367.49
9176.58
9455.46
-8.07055
-5.70558
-5.85816
-5.70519
-5.86254
-8.4423
-5.74375
-5.59366
-5.73436
-5.57757
-4.79881
-4.73976
-4.88613
-4.96523
-4.75799
-4.98487
-4.88454
-5.15729
-4.84605
-5.05744
-4.82423
-4.75658
-4.89563
-4.97051
-4.77194
-4.99073
-4.89931
-5.16162
-4.85942
-5.06242
-8.65178
-4.88605
-4.72204
-4.89288
-4.74747
-9.38818
15404.7
14866.5
14357.4
13786.7
10544.4
10412.6
10524.2
10412.3
8472.28
8733.82
8971.42
8462.81
8948.8
9292.91
8323.82
8940.54
8489.92
9005.7
8751.16
8505.25
8983.39
8493.81
8960.17
9299.82
8348.24
8939.99
8517.49
9016.67
9292.63
8881.57
9266.01
8991.54
9295.75
8984.2
9287.55
8880.98
9263.16
8980.19
9297.13
8991.17
-7.11005
-7.20153
-5.02345
-5.09806
-4.99721
-5.08835
-7.78697
-5.13353
-4.83622
-5.14032
-4.60961
-5.42504
-5.1278
-4.83154
-5.14067
-4.59748
-5.3965
-4.79197
-4.97433
-4.92614
-5.05581
-4.88053
-5.0032
-4.80945
-4.9814
-4.94796
-5.06348