/*--------------------------------*- C++ -*----------------------------------*\
| =========                 |                                                 |
| \\      /  F ield         | OpenFOAM: The Open Source CFD Toolbox           |
|  \\    /   O peration     | Version:  5.x                                   |
|   \\  /    A nd           | Web:      www.OpenFOAM.org                      |
|    \\/     M anipulation  |                                                 |
\*---------------------------------------------------------------------------*/
FoamFile
{
    version     2.0;
    format      ascii;
    class       volScalarField;
    location    "1.4";
    object      p_rgh;
}
// * * * * * * * * * * * * * * * * * * * * * * * * * * * * * * * * * * * * * //

dimensions      [1 -1 -2 0 0 0 0];

internalField   nonuniform List<scalar> 
12160
(
5649.37
5659.1
5649.33
5665.25
5659.36
5649.71
5669.11
5665.35
5660.01
5649.66
5671.81
5669.27
5666.26
5660.68
5650.37
5674.47
5671.77
5669.74
5666.67
5662.28
5649.95
5679.06
5674.09
5671.8
5670.32
5668.34
5663.45
5650.93
5687.22
5678.35
5673.47
5671.79
5671.45
5668.97
5666.2
5649.56
5699.2
5686.21
5677.09
5672.33
5672.04
5672.82
5671.99
5666.49
3664.72
5713.9
5698.51
5685.03
5674.86
5670.98
5672.53
5674.99
5666.34
3873.75
177.261
5729.18
5713.64
5697.43
5681.85
5671.98
5669.13
5673.5
5662.42
3884.07
170.449
6.29213
5742.58
5729.43
5713.35
5695.06
5679.06
5667.83
5666.95
5644.79
3909.65
218.065
0.110308
0.103189
5751.95
5743.35
5730.24
5712.41
5692.49
5673.2
5662.5
5615.96
3838.53
275.267
0.506696
0.025398
-0.0521919
5756.09
5752.79
5745.17
5731.03
5711.55
5687.74
5667.31
5590.47
3702.32
335.128
0.813825
0.00276144
0.00570392
0.0282973
5754.81
5757.17
5755.94
5747.57
5732.63
5709.43
5682.68
5585.3
3589.42
336.614
1.72823
-0.0124679
0.0151028
0.00900444
-0.0298497
5748.59
5755.87
5760.13
5758.62
5751.5
5733.92
5707.48
5608.1
3573.25
325.993
2.57426
-0.00888016
-0.000296026
-0.00247475
-0.0026392
5738.72
5749.43
5758.43
5763.7
5765.2
5755.93
5736.49
5657.11
3674.71
346.576
3.58696
0.0243886
0.000723999
-0.00342408
0.00727492
5726.63
5739.18
5751.37
5761.81
5769.81
5770.06
5762.75
5714.86
3875.23
408.203
4.99387
0.0655757
0.0154151
-0.000823917
-0.000318132
5713.86
5726.66
5740.3
5753.94
5767.17
5776.73
5783.05
5762.98
4106.81
520.6
7.43595
0.087347
0.0391101
0.00935032
-0.000350025
5701.79
5713.44
5726.85
5741.65
5758
5773.65
5786.38
5786.58
4302.38
686.835
11.9636
0.094157
0.0480911
0.0232285
0.00176576
5691.58
5700.96
5712.71
5726.81
5743.97
5762.91
5782.12
5797
4428.32
871.326
20.1574
0.0869572
0.0423679
0.0280103
0.00534025
5684.12
5690.42
5699.39
5711.29
5727.2
5746.59
5769.23
5792.74
4469.03
1000.02
32.5917
0.080984
0.0176226
0.0239549
0.00562618
5679.98
5682.7
5688.15
5696.72
5709.78
5727.26
5749.97
5777.74
4423.54
1035.6
45.4318
0.102614
-0.0234646
0.00974114
0.00298629
5679.41
5678.39
5679.91
5684.43
5693.51
5707.33
5727.47
5754.71
4299.68
1004.95
51.6558
0.165262
-0.0698785
-0.0137689
-0.00247242
5682.41
5677.75
5675.26
5675.4
5679.81
5688.8
5704.52
5728.07
4125.23
917.79
49.7009
0.242523
-0.0984171
-0.038704
-0.0101471
5688.7
5680.77
5674.47
5670.24
5669.72
5673.24
5683.32
5701.26
3923.62
807.204
41.3369
0.240273
-0.1063
-0.0550427
-0.0160836
5697.81
5687.18
5677.54
5669.23
5663.87
5661.75
5665.6
5676.77
3717.86
694.338
31.5886
0.180557
-0.0938709
-0.0592621
-0.0190742
5709.1
5696.49
5684.18
5672.36
5662.57
5655
5652.53
5656.37
3526.95
592.216
23.3325
0.124793
-0.0672972
-0.0539773
-0.019559
5721.8
5708.07
5693.91
5679.34
5665.78
5653.3
5644.77
5641.26
3365.73
508.181
17.0896
0.0932714
-0.0372886
-0.0393514
-0.0172932
5735.06
5721.12
5706.06
5689.68
5673.22
5656.61
5642.62
5632.16
3244.88
444.68
12.7671
0.0817921
-0.00966232
-0.0222547
-0.0127666
5747.99
5734.78
5719.82
5702.68
5684.37
5664.63
5646.02
5629.37
3170.97
401.338
9.95967
0.0845538
0.0139437
-0.00604969
-0.00741613
5759.73
5748.15
5734.31
5717.52
5698.51
5676.83
5654.66
5632.91
3146.78
376.574
8.25013
0.0937788
0.0337562
0.00806778
-0.00220149
5769.44
5760.34
5748.58
5733.24
5714.78
5692.45
5668.01
5642.43
3171.25
368.98
7.3405
0.104381
0.0497167
0.0199348
0.00243165
5776.44
5770.49
5761.7
5748.87
5732.18
5710.59
5685.31
5657.27
3242.39
377.136
7.08601
0.113206
0.061684
0.02946
0.00636421
5780.14
5777.87
5772.78
5763.39
5749.65
5730.17
5705.6
5676.66
3355.36
401.02
7.38538
0.117118
0.0693656
0.036579
0.00954721
5780.07
5781.87
5781.01
5775.82
5766.09
5750.04
5727.74
5699.58
3503.25
441.306
8.26887
0.117614
0.0723549
0.0410725
0.0119279
5776.08
5782
5785.78
5785.29
5780.43
5769
5750.47
5724.89
3677.33
498.498
9.88216
0.114729
0.0719452
0.0427954
0.0134436
5768
5778.02
5786.64
5791.07
5791.66
5785.83
5772.51
5751.25
3867.69
572.749
12.4128
0.109203
0.0682972
0.0425639
0.0140164
5755.91
5770.21
5783.36
5792.59
5799.01
5799.32
5792.46
5777.2
4063.72
663.089
16.1462
0.105197
0.060591
0.0404183
0.013946
5740.05
5758.11
5775.28
5789.44
5801.91
5808.55
5808.81
5801.19
4254.61
767.143
21.4126
0.106815
0.0496018
0.0358611
0.0132009
5742.18
5708.38
5763.05
5782.11
5800.1
5812.81
5820.53
5820.93
4429.39
880.563
28.527
0.119474
0.0354429
0.0293455
0.0116532
5746.8
5710.22
5649.46
5769.95
5792.6
5811.55
5826.86
5835.18
4577.18
996.491
37.6398
0.148367
0.0183617
0.0207985
0.0094319
5753.45
5714.1
5650.44
5586.14
5780.15
5804.82
5827.74
5843.36
4691.08
1105.64
48.5391
0.204712
-0.00285231
0.0103546
0.00655206
5763.01
5719.8
5652.56
5586.01
5520.97
5792.33
5821.6
5844.11
4764.29
1199.93
60.5773
0.296682
-0.0274927
-0.00237767
0.00303872
5774.67
5727.82
5655.67
5585.94
5520.11
5472.68
5808.72
5840.21
4787.47
1267.94
72.7561
0.425109
-0.0555394
-0.0170632
-0.00117465
5790.12
5737.81
5660
5585.86
5518.72
5470.69
5418.69
5823.48
4762.59
1292.1
81.5174
0.57514
-0.086347
-0.0334619
-0.0059959
5797.54
5751.09
5665.32
5585.85
5516.75
5467.12
5413.7
5375.61
4699.42
1270.41
82.8999
0.685508
-0.118411
-0.0509688
-0.011296
4618.27
5738.83
5672.55
5585.78
5514.02
5461.86
5407.7
5372.87
5335.52
1185.3
75.7718
0.672774
-0.145929
-0.0683232
-0.0168454
1064.84
4429.47
5602.85
5585.64
5510.37
5455.37
5402.03
5368.69
5316.22
5269.42
61.8329
0.52196
-0.162139
-0.0820996
-0.0223077
48.9929
842.221
3897.47
5425.04
5503.31
5447.82
5397.11
5363.94
5302.1
5236.46
5237.98
0.340122
-0.156162
-0.085989
-0.0273066
0.207812
32.2481
477.815
3246.15
5225.33
5432.84
5390.98
5358.85
5297.49
5217.1
5170.73
5336.38
-0.13867
-0.088798
-0.0319508
-0.120508
0.0943301
13.0476
250.639
2645.32
5025.85
5370.92
5354.16
5307.84
5234.3
5117.27
5163.56
5091
5238.01
-0.0821639
-0.0307686
-0.0741815
-0.103367
0.0258538
5.15198
140.54
2173.69
4841
5330.32
5317.67
5270.66
5113.31
5102.23
5113.38
4971.54
5032.16
5102.25
-0.0297892
-0.0296872
-0.0636636
-0.0476944
0.0464052
2.45624
89.6507
1832.25
4712.47
5300.94
5300.92
5186.82
5170.59
5168.99
5068.24
4775.3
4863.63
4962.05
5023.3
-0.0303303
-0.035008
0.0064687
0.0753317
1.46677
64.7078
1626.43
4635.26
5314.89
5301.67
5290.04
5260.56
5162.7
4926.87
4473.79
4623.23
4790.18
4924.13
4999.27
-0.026722
-0.00336462
0.0408285
0.0909187
1.02641
52.4114
1486.53
4746.96
5360.06
5369.88
5340.4
5265.27
5067.96
4709.91
4055.44
4257.85
4532.47
4758.96
4922.35
5033.46
-0.0158886
0.0174969
0.0583832
0.0970178
0.769843
40.287
1503.22
5006.57
5409.58
5397.09
5344.08
5192.55
4912.44
4410.09
3556.81
3776.33
4159.2
4506.14
4772.79
4967.03
5116.87
-0.00655446
0.0297874
0.0661884
0.0989802
0.558434
29.6467
1567.3
5335.35
5416.17
5388.93
5283.56
5076.45
4691.38
4002.13
2299.01
3198.96
2303.08
2619.7
2622.27
3657.87
4157.44
4547.19
4832.25
5058.73
5246.71
0.000767726
0.03631
0.0707138
0.111632
0.374921
19.9544
1792.41
5145.22
5394.59
5322.03
5181.04
4898.25
4430.63
3579.36
2042.2
2000.74
3115.33
2047.94
1886.64
1891.33
2002.06
2334.23
2334.46
3718.38
4247.99
4632.78
4938.96
5193.63
5410.3
0.00558812
0.0406109
0.0820478
0.130674
0.29216
12.6056
1621.43
5153.66
5339.08
5227.9
5038.34
4702.99
4111.82
2500.74
2500.67
2871.21
2875.08
1689.99
1704.99
3291.63
2274.5
1695.76
1467.81
1473.13
1697.09
2102.74
2095.02
3906.64
4374.91
4761.57
5086.41
5359.97
5606.4
0.00889427
0.048588
0.0999104
0.165667
0.273123
9.86863
1515.82
5090.69
5246.83
5118.66
4866.18
4469.68
3206.04
3208.31
3501.64
3502.98
2292.96
2293.3
2714.4
2710.96
1307.38
1431.69
1109.16
1206.63
1307.58
3566.28
2492.87
839.724
852.073
869.922
882.816
1311.67
1006.54
1017.21
1428.93
1116.23
1208.85
1304.76
1670.28
1736.98
1902.02
1544.95
1664.57
1736.66
1899.98
1534.79
4121.2
4535.44
4931.92
5262.74
5553.96
5830.54
0.0128392
0.0601853
0.125999
0.220302
0.321148
7.74892
1203.25
4754.72
5147.74
4964.08
4658.22
3718.26
3716.66
3901.09
3900.13
3092.64
3086.5
3417.88
3408.09
1880.9
1700.32
1909.17
2063.84
2131.27
1725.1
1694.9
1883.98
1910
2067.93
2131.69
1724.84
2474.83
2564.23
2269.5
2345.87
2476.41
2564.48
2270.88
2345.79
836.591
919.45
1000.27
736.782
1257.95
1026.42
1031.23
1236.16
3877.53
3010
1096.44
1096.48
915.676
921.706
522.179
534.864
500.025
520.308
842.99
929.434
1003.54
750.568
687.761
444.208
612.326
572.341
696.656
469.57
623.134
591.122
1258.66
1032.9
1034.29
1239.56
1499.56
1465.94
1498.34
1463.27
4337.73
4742.03
5128.16
5454.79
5770.71
6079.43
0.0175821
0.0774447
0.160465
0.27291
0.372867
4.58596
752.2
4292.62
4991.51
4782.53
4040.24
4038.83
4208.17
4207.71
3631.99
3620.26
3818.09
3806.2
2661.83
2752.22
2795.56
2886.45
2663.69
2751.33
2799.34
2885.9
3141.28
3236.1
2955.5
3047.9
3141.39
3234.51
2958.35
3048.04
1670.94
1910.98
1894
1692.37
2087.93
2080.85
1665.81
1916.29
1692.74
1895.35
2090.4
2081.21
2497.93
2489.87
2281.83
2277.91
2500.84
2491.14
2282.11
2278.42
666.251
839.151
843.99
641.362
1215.86
945.208
999.165
1189.34
4158.83
3537.96
1499.98
1499.94
1281.2
1279.48
745.66
740.045
568.965
574.758
9.69605
90.447
4.78054
88.3241
23.0037
99.1516
18.8219
93.0793
83.6853
301.449
130.58
30.889
143.001
379.118
102.181
324.575
136.999
44.8327
147.516
394.147
675.299
845.758
849.094
655.021
500.726
437.046
513.608
459.031
1216.44
950.948
1001.94
1190.79
1478.18
1429.05
1475.63
1425.61
4585.56
4976.55
5328.22
5656.5
6007.18
6354.33
0.0237903
0.100332
0.194911
0.34037
0.411493
2.35959
425.595
3618.52
4742.31
4321.62
4322.74
4430.55
4431.69
3968.04
3963.51
4118.08
4116.23
3251.25
3342.23
3327.38
3429.31
3248.46
3340.18
3327.48
3427.86
3567.49
3728.28
3436.34
3555.79
3566.52
3725.57
3436.01
3553.97
2662.43
2651.24
2821.34
2788.96
2665.23
2653.93
2821.61
2791.49
3149.35
3114.18
2993.34
2940.08
3149.67
3115.69
2992.56
2942.89
599.534
785.297
801.825
556.294
4462.96
3951.83
1853.34
1855.52
1699.03
1698.18
1269.84
1258.09
971.631
962.544
151.869
311.923
72.4646
208.261
163.069
314.774
84.6685
213.923
3.38519
106.564
32.3763
161.975
15.173
111.828
46.4463
165.532
-64.9562
26.3591
-73.2663
-35.0032
-55.7274
33.4077
-66.3475
-36.3541
172.749
30.8699
106.292
217.36
-37.3887
54.9764
191.513
41.2789
112.601
227.538
-28.3674
57.5756
608.483
789.158
807.325
568.668
408.772
346.294
419.685
363.263
4850.61
5204.41
5515.36
5865.69
6263.61
6645.95
0.0314415
0.127839
0.227747
0.429628
0.478316
1.38147
201.674
2581.6
4208.06
4236.79
4236.33
4332.55
4333.34
3877.36
3874.72
4047.84
4044.17
3251.67
3226.18
3341.7
3333.2
3249.89
3226.78
3339.76
3333.57
3558.42
3607.67
3442.64
3462.8
3555.91
3607.57
3441.28
3462.83
3129.32
3139.14
3132.41
3140.65
4768.06
4342
2184.96
2194.22
2005.32
2005.07
1735.14
1727.09
1535.53
1523.21
482.328
789.432
402.191
620.58
492.84
790.914
411.01
622.21
228.769
401.248
320.158
516.34
238.556
403.47
330.952
518.455
130.582
237.548
67.733
207.239
137.132
236.992
75.4135
208.042
-34.1959
94.2117
22.6831
193.773
-20.8753
101.676
33.7023
194.199
5099.83
5396
5681.9
6078.72
6539.66
6911.16
0.0365239
0.170406
0.271168
0.505711
0.621883
0.941074
70.1864
1213.35
3781.57
3781.81
2876.66
2876.6
4159.55
4155.88
4191.05
4190.68
3722.65
3599.02
3624.25
3654.52
3720.95
3596.48
3623.47
3652.04
3830.3
3864.93
3931.8
3757.3
3827.97
3862.17
3929.66
3753.37
3209.8
3209.64
3306.82
3331.1
3211.06
3210.72
3307.26
3331.42
3525.83
3552.43
3404.5
3456.67
3528.72
3552.03
3406.93
3456.65
5038.36
4722.49
4302.35
2129.46
2132.57
1912.56
1904.55
1588.42
1580.52
1296.01
1294.87
473.29
621.753
374.477
454.543
477.603
623.29
380.208
456.134
210.8
293.903
284.936
358.193
214.318
293.862
289.284
359.358
82.8184
185.404
90.3639
184.379
5318.9
5546.27
5837.27
6306.39
6815.34
7036.91
0.0361936
0.19691
0.34121
0.582875
0.649634
0.401783
18.8246
392.383
3464.19
3464.9
2057.47
2058.32
3943.85
4001.83
4083.16
4009.1
3946.28
4001.3
4082.48
4011.89
4186.95
4184.93
3697.28
3576.83
3594.6
3673.27
3696.17
3577.62
3594.19
3670.99
3788.33
3849.97
3866.81
3768.59
3786.57
3848.2
3865.95
3765.15
3503.74
3550.4
3508.66
3549.85
5266.55
5022.74
4748.52
2400.32
2408.85
2099.01
2102.51
2024.72
2026.66
1836.79
1815.97
883.203
748.252
1012.56
666.335
885.983
767.614
1016.35
674.686
768.233
465.247
646.141
571.1
769.507
467.121
647.018
574.108
412.165
472.152
313.479
349.149
421.272
474.761
316.138
349.878
147.346
219.784
228.912
277.437
150.078
218.825
230.125
277.066
5484.74
5683.29
5993.53
6577.97
6955.41
0.0563012
0.240907
0.42101
0.656909
0.635631
0.446254
6.97482
230.395
230.215
9.0794
8.94487
2874.45
3568.48
2413.14
3109.8
2870.89
3578.06
2408.59
3112.39
1214.04
1215.03
3915.73
3933.36
4008.05
3967.82
3914.95
3932.96
4007.62
3968.13
3387.97
4021.66
3768.74
4054
3387.88
4024.17
3770.11
4053.76
3790.93
3840.95
3854.11
3775.74
3790.25
3841.14
3853.97
3774.81
5447.17
5261.45
5062.86
4830.3
2350.47
2341.63
2121.74
2108.41
2007.08
1987.25
819.724
1141.14
1313.06
947.49
834.526
1143.67
1310.52
949.101
760.114
812.74
883.11
708.7
763.031
828.835
889.056
716.962
671.295
490.639
557.026
610.155
671.952
496.947
558.679
611.745
394.313
451.813
408.995
455.157
5618.69
5796.22
6227.97
6715.95
0.0762413
0.28761
0.49928
0.831608
3.34293
10.7016
8.39848
8.66037
8.77406
8.92294
215.516
216.813
86.7203
89.5366
2591.82
3472.47
1938.78
2633.83
2587.73
3482.87
1936.27
2638.22
820.85
363.464
485.668
676.346
822.376
363.377
487.754
676.801
3897.26
3910.51
3972.15
3960.12
3895.99
3910.02
3971.8
3959.14
3341.6
4007.31
3553.49
4026.76
3341.12
4010.51
3554.73
4027.36
5590.04
5444.81
5309.91
5161.72
2508.64
2510.21
2403.05
2397.8
2222.8
2225.63
1060.7
1414.88
1014.51
1456.68
1076.2
1418.89
1041.22
1463.6
976.427
1272.77
942.415
1182.91
948.002
1114.16
1005.52
1278.85
961.8
1190.4
956.101
1117.04
896.616
1015.47
907.112
1019.34
742.679
787.537
833.218
701.325
746.786
807.629
839.718
712.97
5712.54
5932.76
6359
0.0946558
0.329631
0.595776
2.55072
27.4938
87.1479
80.8836
86.1678
109.02
108.276
149.449
204.176
192.164
144.884
175.504
221.714
206.049
146.114
222.621
169.785
139.76
143.675
106.733
138.284
135.581
134.823
106.767
165.679
127.689
119.32
2130.16
3160.29
1667.88
2490.59
2127.43
3171.2
1667.53
2494.99
354.498
313.668
355.179
314.712
3979.34
3846.72
3979.25
3847.01
2906.15
3804.67
2903.64
3811.55
5682.43
5590.9
5497.48
5427.69
2743.36
2755.92
2630.48
2627.91
2511.64
2502.66
2347.89
2348.91
1512.02
1069.95
1582.69
1180.21
1371.55
1125.42
1518.4
1112.04
1593.35
1195.17
1377.07
1138.85
1170.19
1295.68
1182.11
1302.15
1109.63
1198.38
1035.44
922.283
1120.78
990.672
1130.29
1211.04
1047.62
946.282
1127.11
998.627
859.947
908.522
876.875
914.635
5811.72
6065.39
0.111653
0.370598
0.927971
16.1678
76.6581
201.956
200.17
110.506
131.394
294.089
302.436
264.835
243.54
165.385
219.668
393.106
213.649
288.466
482.031
161.761
233.178
178.521
354.601
291.564
399.293
324.744
470.953
331.345
414.828
319.398
572.149
309.029
352.763
916.435
1264.56
917.006
1265.64
5776.6
5680.29
5646.71
5623.92
5603.73
2738.37
2735.5
2661.22
2639.51
1174.53
1739.09
1262.36
1705.82
1211.55
1755.64
1290.15
1715.77
1155.14
1169.54
1554.47
1174.32
1578.51
1485.32
1182.17
1193.88
1563.71
1212.22
1590.34
1494.6
1419.74
1306.74
1268.16
1210.58
1425.3
1311.19
1279.26
1218.7
1185.54
1246.91
1195.28
1253.38
1131.68
1187.83
939.217
1017.2
1152.44
1198.74
956.168
1023.2
5899.19
0.125346
0.391776
2.73183
29.4006
48.9527
140.027
153.242
38.2607
51.3737
586.08
424.027
713.572
341.205
403.807
416.014
776.104
336.59
280.157
255.539
467.283
681.614
484.805
744.296
449.002
762.732
466.91
658.398
5827.96
5767.13
5723.24
5763.67
5796.21
2950.65
2970.24
2803.35
2801.81
2692.13
2685.83
2616.44
2599.71
1336.86
1705.1
1442.05
1633.17
1357.37
1712.19
1461.69
1640.79
1285.02
1313.27
1470.71
1521.09
1399.18
1569.8
1315.51
1323.06
1525.93
1481.28
1411.55
1575.08
1341.29
1239.27
1342.05
1247.28
0.121123
0.200243
3.51351
15.3154
8.96308
10.0962
10.5846
9.57734
62.3971
46.3611
20.2307
12.4273
356.081
421.176
647.194
304.892
622.234
407.582
767.798
298.502
81.7475
113.433
149.371
189.125
93.6917
125.789
152.068
396.097
513.543
741.571
488.223
752.004
5815.86
5803.71
5830.62
5933.35
5984.9
2860.51
2863.74
2905.03
2881
2786.34
2763.73
1952.52
1419.49
1876.96
1321.26
1949.34
1416.79
1876.25
1314.7
1464.04
1678.06
1467.68
1625.18
1483.93
1684.76
1486.72
1632.55
0.0514192
-0.222559
0.0626927
2.90408
5.67366
5.96122
8.27685
7.7397
65.8657
62.4188
75.1171
48.2693
81.3671
28.4093
65.7622
130.743
57.1096
52.8529
112.092
34.2676
16.5204
13.4716
282.906
296.73
394.089
217.995
387.033
281.042
277.397
206.797
89.2834
79.3335
81.3658
91.7417
5858.05
5911.54
6018.56
6135.11
3104.33
3119.68
2929.06
2932.13
2756.7
2763.99
2894.92
2867.5
1306.79
2014.42
1441.05
1954.89
1411.05
1870.66
1369.96
2029.35
1462.01
1962.01
1403.62
1868.28
1528.52
1756.63
1535.1
1758.46
1511.98
1705.34
1532.65
1709.9
-0.0809549
-0.561827
-0.50323
3.10351
2.33632
1.98735
1.75536
5.50896
5.59976
7.12292
5.54744
59.3455
59.3841
58.2689
29.33
39.9651
18.4223
58.4623
109.959
81.1615
32.6151
78.4747
20.1985
5.38466
11.7859
10.3046
26.5144
4.42005
11.7082
9.20912
39.0968
5971.78
6098.33
6255.27
6355.93
3092.27
3087.38
3051.05
3021.04
2942.81
2922.79
1446.95
1965.43
2087.34
1531.43
2104.11
1409.32
2085.88
1530.06
2102.33
1408.32
1458.16
1968.33
1552.96
1512.49
1914.03
1778.62
1554.18
1526.04
1913.62
1782.04
1529.4
1729.07
1544.17
1731.66
-0.147427
-0.378447
-0.107672
2.55377
2.17469
2.32779
2.0531
3.63567
8.93919
10.785
5.16033
10.1814
5.60797
4.50125
18.4015
7.55298
4.98684
9.98969
4.39535
5.07227
3.54404
15.589
8.47707
50.5843
11.852
5.19152
13.9319
6.96562
33.5109
6163.84
6342.6
6504.81
3238.53
3246.27
3131.12
3130.22
3103.86
3094.44
2961.22
2942.17
1379.45
2054.27
1537.81
2060.13
1526.03
2057.05
1402.49
1524.01
2055.71
2057.43
1551.77
2063.77
1605.59
1932.09
1638.5
2005.99
1640.12
1613.57
2005.84
1933.23
-0.108761
-0.38885
-0.315362
2.29736
2.17049
2.41192
2.11926
3.79076
9.44318
10.5088
3.84125
12.6516
4.42838
4.79252
21.2963
6.6112
3.87309
10.2369
3.35962
2.99966
3.44706
3.36473
4.1067
2.59148
3.03005
2.57627
3.25164
3.58363
9.27355
4.8375
19.4943
6404.8
6619.15
6776.96
3300.41
3292.54
3249.54
3227.07
3024.93
3021.29
1529.29
2043.71
1974.28
1558.36
2066.09
1359.15
1547.94
2049.51
1975.67
1554.52
2066.05
1359.56
1701.1
1642.54
2026.42
1942.1
1657.69
1945.65
1706.89
2028.06
-0.157092
-0.370627
1.67918
2.04074
1.85627
1.68352
1.69952
1.69082
2.19534
2.50375
2.32886
2.06428
2.41333
2.29574
3.92358
12.9209
6.49831
3.8598
8.35231
3.52404
4.49226
21.7657
4.7012
3.31062
7.7025
2.84535
2.25892
2.99442
2.0214
2.33776
6680.37
6926.4
7094.28
3387.44
3383.09
3218.55
3208.97
1305.76
1935.17
1551.11
2055.22
1541.71
2040.24
1335.86
1543.22
2042.01
1939.24
1574.57
2063.58
1660.11
1910.88
1703.61
2028.51
1684.19
1918.12
1718.47
2033.59
1706.72
1938.98
1722.56
1943.98
-0.147185
-0.322316
1.71942
1.65356
1.68124
1.66282
1.70238
1.69698
2.6237
2.6239
2.9417
2.58289
2.52499
3.02389
2.81229
2.7139
2.45823
2.49894
2.58805
2.51135
2.27862
2.51845
2.69759
2.569
3.45413
2.88274
2.93726
2.38284
2.28143
2.96479
2.10735
2.2755
6986.23
7214.75
3621.01
3396.06
3377.84
3638
3458.52
3462.59
3142.42
1466.16
2002.32
3146.57
1496.4
2013.03
1671.4
1699.93
1913.05
2062.99
1689.89
1918.93
1715.15
2069.22
1684.85
1947.24
1689.06
1941.05
1713.75
1954.92
1713.67
1947.24
-0.185484
-0.265793
1.70153
2.5018
2.57567
1.74412
1.71646
2.40354
2.53682
1.76132
1.79109
1.78765
2.61267
2.41195
2.36874
2.78537
3.03012
2.76261
2.4318
2.1983
2.3574
2.23615
2.68928
2.36383
2.49432
2.30794
2.05265
2.09769
7269.44
7460.39
3640.73
3292.51
3289.43
3638.21
3583.59
3568.51
1566.74
1475.45
1932.28
1443.84
1939.94
2108.54
1310.36
1957.61
1592.87
1512.2
1946.8
1478.61
1952.57
2118.71
1342.09
1959.78
1714.26
1725.61
1937.79
2042.12
1717.91
1939.72
1741.45
2048.4
-0.238372
1.99088
1.85751
1.86668
1.98697
1.97334
1.96159
2.7928
2.39657
2.51779
2.40932
2.54698
2.433
2.60566
2.42351
1.86523
2.73509
2.44643
2.78533
2.39026
2.52966
2.41627
2.55476
2.43675
2.60703
2.43875
1.87491
2.72638
2.44546
2.53067
2.42506
2.83397
2.47248
2.39279
2.42749
2.54292
2.36467
7539.64
7643.46
3688.75
3321.2
2055.08
1531.73
3322.32
2061.91
1547.21
3682.09
3546.47
3524.08
1651.46
1798.93
1701.58
1918.78
2008.22
2158.59
1685.09
1812.26
1728.6
2018.24
1931.63
2163.45
1714.63
1969.18
1721.87
1971.76
-0.311689
1.93091
2.02037
1.94175
2.01132
1.96781
1.95722
2.45829
2.53483
2.43127
2.29637
2.62193
2.44646
2.78893
2.76936
2.63744
2.8099
2.58352
2.62414
2.93832
2.59654
2.46933
2.54183
2.29898
2.44274
2.6154
2.51991
2.76088
2.79272
2.63168
2.79395
2.57891
2.62299
2.93555
2.594
7778.18
3528.12
3633.61
3609.39
3558.22
3607.46
3614.78
1416.34
2010.63
1506.13
2022.62
1512.82
2149.9
1611.97
2200.49
1464.64
2016.17
1526.2
2029.88
1524.73
2163.32
1638.2
2209.13
3416.47
1591.67
2171.78
3403.78
1635.78
2187.07
1767.12
1780.44
2036.31
2109.98
1793.1
1778.21
2044.66
2111.74
-0.302156
2.07731
2.62217
2.89983
2.05021
2.08907
2.62273
2.90778
2.04477
1.9836
1.97096
2.63497
2.44389
2.69741
2.58011
2.74311
2.80059
2.72498
2.62464
2.68498
2.65677
2.62764
2.50133
2.68937
2.65041
2.7264
2.71502
2.81427
2.64933
2.68142
2.65901
7714.03
3604.2
3592.12
3559.62
3643.56
3658.35
3669.48
1668.55
1681.02
2038.02
2015.07
1844.72
2209.09
1677.23
1698.61
2042.44
2021.38
1866.07
2216.88
1668.47
1616.84
2081.61
1559.12
2072.47
2180.16
1480.32
2079.89
1677.21
1640.26
2089.68
1609.87
2087.41
2188.45
1504.62
2089.52
0.231809
2.08126
2.06569
2.10026
2.81024
3.05097
2.85639
3.01513
2.19491
2.11473
2.80609
3.05521
2.86134
3.02055
2.18832
2.7683
2.84254
2.88658
2.67419
2.71953
2.76401
2.74803
2.83219
2.89451
2.6724
2.71716
2.76225
7872.72
3613
3698.92
2194.35
1685.97
3660.12
2191.86
1677.46
3648.7
3693.16
3687.44
1816.57
2107.4
1846.09
2149.74
1829.15
2111.28
1852.89
2151.82
1852.65
1935.28
1813.24
2131.82
2121.45
2299.73
1866.27
1898.84
1811.44
2119.83
2133.95
2288.14
-0.0975609
2.26914
4.36529
2.22904
4.27639
2.25323
2.92759
3.04448
2.88984
3.06075
2.94642
2.86553
3.26023
2.26332
2.91951
3.04095
2.89366
3.06072
2.94777
2.85235
3.15317
2.90609
2.76593
2.89322
2.76066
8007.84
3618.06
3643.23
3702.51
2051.99
1649.45
2022.5
1680.46
3671.18
2053.78
1648.78
2026.66
1674.08
3666.61
3641.45
1997.04
1825.41
1966.71
2274.19
2137.78
2237.11
2023.51
1831.21
1938.39
2134.81
2276.76
2227.55
-0.52552
2.52644
2.06462
2.51544
2.052
5.70553
5.56414
4.39792
2.90364
3.18859
2.98032
3.05991
2.90916
2.96211
2.88691
2.96763
2.98952
2.85967
4.24352
2.89413
3.19064
2.98461
3.05583
2.9113
2.95262
2.8896
2.96342
2.97348
2.82916
8043.62
3646.66
3703.62
3669.01
3725.7
3693.51
1997.69
1586.46
2010.99
1587.32
1940.19
2223.51
3646.64
1989.35
1587.12
2006.6
1573.22
1936.6
2224.62
3672.4
3656.02
2032.93
2259.73
2052.57
2262.17
-0.242023
1.93978
2.03329
1.92599
2.02338
2.47829
2.08716
2.4702
2.08356
9.16304
8.83508
6.16926
4.2625
3.9495
5.08703
2.84816
3.08059
2.89233
2.97756
2.93016
3.04376
2.91482
3.07108
6.16903
4.17223
3.88683
4.94135
2.86705
3.08067
2.89573
2.98076
2.92721
3.01301
2.9014
3.04525
7854.06
3720.67
3694.47
3742.29
3711.29
3722.01
3710.71
3605.72
1993.83
1603.38
1990.2
1597.64
2276.89
1893.97
2258.62
1892.99
2016.13
2248.96
3565.23
1985.55
1597
1981.32
1589.47
2282.2
1903.96
2263.74
1898.47
2040.44
2255.83
-0.257373
2.02817
1.91074
2.01766
1.89928
2.01647
2.01728
2.01289
2.01471
3.08819
2.14248
3.04323
2.14404
15.3558
10.2633
15.3224
11.9064
15.419
9.93972
15.302
11.5152
6.00303
3.56952
3.19842
4.95663
6.05384
3.5244
3.18812
4.79632
7681.33
3653.83
3575.58
3670.33
3601.41
3743.55
3708.1
3732.56
3697.21
3645.91
3612.31
2102.95
1543.51
2005.88
1619.85
2288.31
1854.36
2192.94
1910
2322.6
1989.99
2281.34
1990.76
2096.58
1550.4
2003.51
1609.21
2285.17
1865.88
2190.73
1905.88
2334.23
2020.09
2292.68
2013.67
-0.297733
-0.144399
1.96139
1.90508
1.95973
1.90221
2.04865
1.99709
2.05628
2.00882
3.45646
3.99144
4.10787
3.44888
3.07597
3.09948
3.00587
3.19195
3.40479
3.94239
4.02139
3.42125
3.065
3.08508
2.99119
3.17626
15.2643
10.4425
15.1836
13.3987
15.2049
10.1614
15.2223
13.0654
7697.64
3587.44
3481.59
3610.76
3506.25
3714.75
3631
3694.19
3622.1
3645.1
3612.59
3613.24
3584.62
2157.5
1670.18
2241.61
1627.57
2150.57
1658.97
2233.81
1615.92
2297.78
1771.59
2179.11
1847.54
2289.22
1779.3
2175.77
1838.18
-0.323041
1.79157
1.76384
1.80406
1.76481
-0.0967282
1.93668
1.84978
1.95414
1.86351
2.94591
3.08465
3.00377
3.03802
2.86747
3.0113
2.82169
3.02737
2.94625
3.073
2.99293
3.03193
2.87963
3.00751
2.8342
3.02536
3.28191
3.90265
3.97374
3.19902
3.28904
3.08178
3.33898
3.1273
3.24221
3.85579
3.90188
3.17788
3.22851
3.06535
3.25539
3.11036
7503.92
7542.95
3619.46
3528.58
3614.97
3535.54
3647.04
3630.56
3604.13
3588.87
2251.68
1676.6
2256.51
1682.98
2222.87
1612.88
2177.39
1663.71
2245.9
1664.47
2248.42
1671.9
2219.79
1624.47
2176.53
1659.15
2304.27
1890.69
2320.99
1881.59
2298.17
1891.49
2317.5
1874.96
-0.309336
1.7127
1.70728
1.70719
1.6962
1.82425
1.77251
1.84241
1.80737
-0.0587851
2.7844
2.96323
2.79116
2.95511
2.57466
2.85466
2.50642
2.84752
2.7865
2.96791
2.80094
2.95924
2.58493
2.85657
2.51457
2.86012
3.27325
3.06023
3.35684
3.01802
3.07122
2.95949
3.0358
3.00003
3.26124
3.04492
3.30428
3.00265
3.07112
2.95333
3.0869
2.9824
7241.92
7394.74
3567.94
3610.79
3548.24
3604.07
3650.22
3525.89
3607.94
3495.1
2067.25
1630.67
2140.64
1617.14
2108.29
1635.21
2026.04
1692.84
2062.27
1633.42
2138.23
1606.88
2096.88
1634.19
2017.81
1676.51
2335.32
1893.92
2321.45
1906.34
2313.1
1850.91
2270.65
1887.3
2329.72
1892.47
2317.56
1898.79
2309.39
1863.71
2271.62
1885.8
-0.394838
-0.351675
1.71102
1.90536
1.71794
1.88423
2.80332
2.73572
2.69688
2.84055
2.69681
2.7324
2.90432
2.6659
2.75812
2.64279
2.81258
2.75055
2.70058
2.8469
2.70373
2.67213
2.91232
2.721
2.77001
2.6645
-0.0628182
2.93942
2.91156
3.02947
2.86024
2.6813
2.75504
2.937
2.90461
3.0583
2.86238
2.69078
2.77304
3.07754
3.02924
3.20682
3.09535
3.12661
2.9954
3.20738
3.06425
6946.92
7182
3580.46
3586.7
3575.69
3599.7
3282.44
3452.07
3274.75
3430.01
2012.58
1682.9
2029.77
1678.52
2102.03
1474
2044.82
1660.57
2002.87
1668.19
2019.34
1661.3
2094.27
1500.26
2052.08
1641.92
2205.29
1860.32
2270.12
1829.77
2118.68
1720.04
2010.48
1788.42
2198.54
1868.39
2269.85
1823.21
2110.83
1714.49
2005.15
1776.99
-0.379134
1.7895
2.26011
1.86997
2.33991
-0.261237
2.20312
1.96549
2.19605
2.01401
2.72759
2.7736
3.01224
2.74352
2.70365
2.83331
2.83627
3.22823
2.68088
2.78128
2.72496
2.79961
2.98685
2.73093
2.72043
2.85861
2.84175
3.3449
2.69776
2.85357
-0.126593
3.07813
2.96432
3.19251
2.89229
2.78573
2.78871
3.06617
2.93539
3.20199
2.87632
2.78574
2.78941
6625.82
6885.19
7026.2
3525.47
3425.65
3507.5
3423.07
1462.12
1421.15
1851.77
1455.37
1916.09
1878.56
1316.29
1994.46
1502.57
2052.81
1434.26
1507.92
1872.6
1520.73
1940.91
1886.32
1365.65
2009.98
1551.99
2072.53
1991.33
1745.87
1995.81
1756.86
2040.57
1703.52
1987.81
1741.97
1992.44
1747.15
2034.86
1683.79
2120.41
1751.53
2032.71
1776.17
2113.3
1766.43
2031.96
1777.83
-0.400097
2.60109
1.94909
2.6745
1.96318
2.16973
3.22804
2.21717
3.31973
-0.431384
2.99226
3.11034
3.28561
3.02679
2.63464
2.72823
2.67331
2.67705
2.99741
3.07864
3.11728
3.00826
2.84056
2.73493
2.84544
2.69917
2.80286
2.82173
2.94663
3.76573
2.75488
3.0618
2.80801
2.82498
2.93562
3.76046
2.76483
3.14164
-0.0280211
6341.94
6556.58
6713.52
3328.54
3327.51
3310.29
3325.06
3256.99
3269.13
3252.71
3264.47
1732.62
1735.12
2019.53
1909.77
1804.85
2117.71
1563.93
2151.12
1811.71
2200.51
1772.77
1770.44
1924.14
2033.76
1824.81
2127.71
1588.81
2159.74
1838.66
2210.33
2033.08
1831.18
2055.09
1863.92
2020.39
1833.85
2037.77
1845.42
2056.3
1885.34
2027.74
1856.75
-0.147203
0.977356
3.8552
2.92118
3.87946
2.94133
2.48951
2.44979
2.73871
2.66546
2.85789
2.54788
3.68278
4.42104
3.14054
3.85277
2.46628
2.48088
2.6764
2.65015
2.8743
2.6849
3.68242
4.42298
3.13326
3.87861
0.00054355
2.70156
2.99993
2.82251
2.69027
2.60492
2.50961
2.66806
2.96025
2.66732
2.69055
2.81933
2.54421
0.0554436
6104.26
6272.86
6430.34
3248.51
3182.33
3241.99
3190.85
3144.4
3168.08
3142.94
3160.37
2070.02
1498.87
2041.7
1540.33
2118.98
1345.06
2099.44
1546.3
2070.88
1510.51
2044.14
1542.32
2123.67
1382.41
2108.92
1558.3
1792.92
1974.94
1646.32
1983.2
1753.82
2045.49
1843.11
1990.85
1659.81
1987.05
1773.78
2052.68
18.0015
2.38968
1.5933
2.40084
1.59768
4.489
3.75703
4.46807
3.79721
4.57371
2.37505
2.4013
2.65304
2.42716
2.77619
2.46692
3.7572
3.90198
3.21079
2.95004
2.36314
2.38104
2.6354
2.38922
2.77553
2.43414
3.78611
3.81559
3.23931
2.87732
0.261323
2.57082
2.45717
2.66474
2.47013
0.0948195
5921.79
6037.99
6185.08
6277.05
3210.57
3072.45
3190.32
3072.26
1428.17
1524.45
1927.26
1405.75
1891.68
2083.48
1252.49
1869.1
1424.35
1940.07
1541.73
1461.1
1939.22
1436.72
1903.06
2090.38
1276.93
1868.61
1451.93
1951.07
2064.73
1624.35
2008.79
1763.65
2086.05
1774.52
2059.64
1623.76
2005.94
1752.27
2087.42
1781.45
58.2318
32.0156
8.00443
8.62579
8.10694
8.4914
2.86452
9.46572
5.22456
6.61708
6.65461
9.70871
9.88676
5.33501
6.96012
6.7273
9.6921
3.29238
2.65655
5.34745
4.68621
4.16225
3.12018
3.27951
2.50642
5.46662
4.60534
4.24572
2.93554
0.291775
0.0948155
5817.36
5864.83
5960.67
6062.3
3037.06
3042.11
3034.5
3057.76
2980.89
3037.98
2974.14
3030.51
1601.64
1579.52
1936.83
1914.75
1653.3
1946.32
1513.41
2004.62
1684.14
2030.67
1629.58
1595.27
1924.04
1943.21
1667.49
1952.24
1533.68
2011.1
1696.63
2036.16
2015.14
1764.34
2017.66
1783.03
60.6891
62.4736
115.524
54.0539
106.143
13.6309
9.62123
14.9978
9.76689
14.8444
0.758164
14.6047
7.92869
14.7227
7.67546