/*--------------------------------*- C++ -*----------------------------------*\
| =========                 |                                                 |
| \\      /  F ield         | OpenFOAM: The Open Source CFD Toolbox           |
|  \\    /   O peration     | Version:  5.x                                   |
|   \\  /    A nd           | Web:      www.OpenFOAM.org                      |
|    \\/     M anipulation  |                                                 |
\*---------------------------------------------------------------------------*/
FoamFile
{
    version     2.0;
    format      ascii;
    class       surfaceScalarField;
    location    "1.4";
    object      phi;
}
// * * * * * * * * * * * * * * * * * * * * * * * * * * * * * * * * * * * * * //

dimensions      [0 3 -1 0 0 0 0];

internalField   nonuniform List<scalar> 
30582
(
0.000271063
-2.04914e-06
0.000272382
-1.31921e-06
0.000270655
-3.65851e-06
0.000270021
2.36092e-06
0.000271641
-2.30511e-06
0.000269188
-3.73048e-06
0.000263265
6.75554e-06
0.000269294
4.70806e-06
0.000271281
-4.39781e-06
0.000266612
-1.12405e-06
0.000256837
6.42877e-06
0.000262695
1.33544e-05
0.000269486
6.50272e-06
0.000267412
-5.19838e-06
0.00026309
5.13571e-06
0.000251856
4.98021e-06
0.000256091
1.30329e-05
0.000263125
1.97154e-05
0.000265562
8.35301e-06
0.000266395
-8.50381e-06
0.000255979
1.86802e-05
0.000250255
1.60169e-06
0.000251169
9.90217e-06
0.00025614
2.00182e-05
0.00026011
2.51677e-05
0.000265477
9.27148e-06
0.000256485
-9.00941e-06
0.000250681
3.77264e-05
0.000251709
-1.45387e-06
0.000249264
3.50707e-06
0.00025058
1.54617e-05
0.000253258
2.68695e-05
0.000260887
2.97578e-05
0.000256438
9.31783e-06
0.000255327
-1.36556e-05
0.000232353
7.53334e-05
0.000256418
-4.70974e-06
0.000251049
-3.23913e-06
0.000248682
5.40589e-06
0.000247741
2.0979e-05
0.000254092
3.36642e-05
0.000254521
3.16754e-05
0.000257829
6.81603e-06
0.000228738
-1.00406e-05
0.000150211
-9.74291e-05
0.000262486
-6.06766e-06
0.000256166
-9.82652e-06
0.000250489
-5.04629e-06
0.000245326
7.82072e-06
0.000247195
2.78761e-05
0.000249421
3.87636e-05
0.000256633
3.2871e-05
0.000235842
-2.8765e-07
0.000171461
-3.12904e-05
-0.000271272
0.000172857
0.000267689
-5.20273e-06
0.000262728
-1.26298e-05
0.000255837
-1.51745e-05
0.000247675
-7.39493e-06
0.000243954
1.10616e-05
0.000242522
3.4775e-05
0.000250309
4.50879e-05
0.000245573
2.31398e-05
0.00021631
-4.51372e-05
-0.000204727
-9.78355e-05
1.25888e-05
0.000160236
0.000269936
-2.24689e-06
0.000268412
-1.08871e-05
0.000263172
-1.99646e-05
0.000254286
-2.17856e-05
0.000245942
-9.3829e-06
0.000238316
1.52679e-05
0.000240013
4.50705e-05
0.000245993
4.46683e-05
0.000256244
-1.67936e-05
-9.28795e-05
-0.000156985
3.41833e-05
-0.00011943
6.24044e-05
9.7831e-05
0.000267486
2.44993e-06
0.000270748
-4.58248e-06
0.000269868
-1.7584e-05
0.000263262
-2.89405e-05
0.000253267
-2.91103e-05
0.000240911
-1.19775e-05
0.000233665
2.16164e-05
0.00023813
5.29336e-05
0.000275708
2.52041e-05
6.2663e-05
-0.000172336
-0.00010143
-2.13721e-05
7.31055e-05
-0.000130131
-4.47336e-05
0.000142565
0.000259418
8.06768e-06
0.000268536
4.66154e-06
0.000273605
-8.31925e-06
0.000271555
-2.58776e-05
0.000264033
-3.97072e-05
0.000250292
-3.84919e-05
0.000236186
-1.44989e-05
0.00023232
2.74262e-05
0.000281837
4.68042e-05
0.000165921
-7.80544e-05
-9.85457e-05
-0.00017522
4.30878e-05
8.64563e-06
-2.69028e-05
-0.000147962
8.36101e-05
5.89544e-05
0.000245749
1.36693e-05
0.000260716
1.58876e-05
0.000271701
6.56537e-06
0.000275866
-1.26296e-05
0.000274557
-3.6401e-05
0.000264023
-5.3438e-05
0.00024697
-4.92754e-05
0.000235595
-1.77738e-05
0.000286075
2.31881e-05
0.000226034
-1.33084e-05
-5.90691e-05
-0.000117531
3.36484e-05
-0.000165781
1.4179e-05
-3.24361e-05
4.03834e-05
-0.000104735
-4.74916e-05
0.000227032
1.87164e-05
0.000247137
2.72484e-05
0.000263788
2.38012e-05
0.000275057
7.3745e-06
0.000281573
-1.96454e-05
0.000277626
-5.00042e-05
0.00026389
-7.03583e-05
0.000247632
-6.13123e-05
0.000298215
-2.99136e-05
0.000273734
-2.45119e-05
2.25941e-05
-9.49715e-05
4.24574e-05
-0.00012634
1.13357e-05
-0.000162937
1.0718e-05
-2.77062e-06
-2.80419e-05
0.000204016
2.30167e-05
0.000228322
3.7532e-05
0.000250034
4.10021e-05
0.00026782
3.10381e-05
0.000281549
7.39813e-06
0.000286292
-2.83108e-05
0.000281451
-6.75656e-05
0.000267158
-8.98841e-05
0.000318317
-8.1414e-05
0.000336067
-9.22462e-05
0.000114986
-0.000116904
7.53629e-05
-0.000127877
5.67083e-06
-0.000120675
-3.26809e-07
-0.000151892
2.36416e-06
0.000177605
2.64106e-05
0.000205125
4.62132e-05
0.000230915
5.66507e-05
0.000254065
5.47565e-05
0.000274201
3.83858e-05
0.000288023
5.66639e-06
0.00029412
-4.09793e-05
0.000287653
-8.80612e-05
0.000342714
-0.000114281
0.000412843
-0.00015819
0.000217298
-0.000194559
0.000108856
-0.000150397
1.72886e-05
-0.000139495
-2.68417e-07
-0.000120734
4.1347e-06
0.000148693
2.89118e-05
0.00017851
5.30257e-05
0.000207323
6.98055e-05
0.000234577
7.61388e-05
0.000260093
6.88644e-05
0.000281663
4.47458e-05
0.00029742
2.36647e-06
0.000302588
-5.59138e-05
0.000365869
-0.000111217
0.000499439
-0.000200877
0.000332679
-0.000273571
0.00013293
-0.000218632
3.02744e-05
-0.000163383
6.04983e-06
-0.000145813
2.73724e-06
0.000118068
3.06256e-05
0.0001494
5.80218e-05
0.000180286
8.0063e-05
0.000210425
9.39578e-05
0.000239958
9.62738e-05
0.000267345
8.31829e-05
0.00029066
5.15055e-05
0.000306231
-1.27648e-06
0.000382031
-7.2075e-05
0.000581199
-0.000192977
0.000457933
-0.00032613
0.000149962
-0.000290603
3.6921e-05
-0.000225279
1.18072e-05
-0.00016914
3.66632e-06
8.63731e-05
3.16946e-05
0.000118597
6.14287e-05
0.000150777
8.75304e-05
0.000182777
0.000107711
0.000214953
0.000118964
0.000246388
0.000117231
0.000275812
9.80312e-05
0.00030161
5.61258e-05
0.000387425
-6.67092e-06
0.000635099
-0.000125976
0.000581541
-0.000316585
0.000163008
-0.000339176
3.22045e-05
-0.000285886
1.30581e-05
-0.00022653
4.88461e-06
5.4118e-05
3.22551e-05
8.67516e-05
6.35398e-05
0.000119628
9.25778e-05
0.000152692
0.000117615
0.000186409
0.000136255
0.000220243
0.000145109
0.000253831
0.000139212
0.00028662
0.000113022
0.000381386
6.21644e-05
0.000652462
-2.40333e-05
0.000685453
-0.000229887
0.000177788
-0.000331366
1.53737e-05
-0.000322346
7.1207e-06
-0.000279949
4.59698e-06
2.16889e-05
3.24291e-05
5.43733e-05
6.46334e-05
8.7497e-05
9.56709e-05
0.000121046
0.000124225
0.000155491
0.000148532
0.000190537
0.000165961
0.000226291
0.000172649
0.000263546
0.000162286
0.000365204
0.000129204
0.000645673
6.89536e-05
0.000745085
-8.36657e-05
0.000197971
-0.00025007
-8.82397e-06
-0.000307168
-5.27962e-06
-0.000309945
1.85029e-06
-1.06011e-05
3.22899e-05
2.18414e-05
6.4961e-05
5.48828e-05
9.72475e-05
8.85084e-05
0.000128208
0.000123125
0.000156591
0.000158581
0.000180488
0.000195181
0.000197071
0.000234145
0.00020205
0.000340689
0.000186801
0.000623628
0.000151249
0.000753505
6.0534e-05
0.000221176
-0.000106871
-3.08032e-05
-0.00022809
-2.11821e-05
-0.000291266
-3.13909e-06
-4.24941e-05
3.1893e-05
-1.05424e-05
6.46738e-05
2.21496e-05
9.76942e-05
5.5573e-05
0.000130183
8.99964e-05
0.000161336
0.00012536
0.000189812
0.000161981
0.000213688
0.000201303
0.000229912
0.000310032
0.000232707
0.000588754
0.000221675
0.000720717
0.000184036
0.000226803
5.4907e-05
-4.11806e-05
-9.64937e-05
-3.56215e-05
-0.000213651
-9.64309e-06
-7.3732e-05
3.12379e-05
-4.25344e-05
6.3885e-05
-1.04208e-05
9.72442e-05
2.25793e-05
0.000130688
5.6583e-05
0.000163596
9.15717e-05
0.000195125
0.000127756
0.000224037
0.000166663
0.000248329
0.00027459
0.000265354
0.00054374
0.000277721
0.00065662
0.000285772
0.000211158
0.000199681
-3.86134e-05
5.23398e-05
-4.21326e-05
-8.99826e-05
-1.51519e-05
-0.00010404
3.03085e-05
-7.38882e-05
6.25917e-05
-4.26103e-05
9.60746e-05
-1.02253e-05
0.000130049
2.3191e-05
0.00016408
5.76679e-05
0.0001975
9.32184e-05
0.000229663
0.000131266
0.000259434
0.000235007
0.000287912
0.00048808
0.000321014
0.000578439
0.000355902
0.000183284
0.000313645
-3.14801e-05
0.000192548
-4.31401e-05
5.33473e-05
-1.8859e-05
-0.000133116
2.90755e-05
-0.00010434
6.07598e-05
-7.41934e-05
9.41747e-05
-4.26662e-05
0.000128515
-9.97655e-06
0.000163216
2.39073e-05
0.00019784
5.87805e-05
0.000231938
9.57643e-05
0.000265164
0.000191611
0.00030283
0.000422372
0.000353619
0.00049387
0.000405583
0.000147681
0.000391506
-2.33741e-05
0.000305539
-3.79888e-05
0.000187397
-1.84101e-05
-0.000160614
2.74983e-05
-0.000133588
5.83244e-05
-0.000104918
9.14846e-05
-7.45542e-05
0.000126063
-4.28034e-05
0.000161342
-9.56862e-06
0.000196692
2.46361e-05
0.000231985
6.05391e-05
0.000267163
0.000144629
0.000312146
0.000346198
0.000379004
0.000405098
0.000442391
0.000110527
0.000442737
-1.69277e-05
0.000385059
-2.96082e-05
0.000297159
-1.59017e-05
-0.000186159
2.55449e-05
-0.000161286
5.51964e-05
-0.000134493
8.78989e-05
-0.000105662
0.000122592
-7.51451e-05
0.000158404
-4.27385e-05
0.000194512
-9.14194e-06
0.00023047
2.57569e-05
0.000266767
9.4519e-05
0.000317273
0.000260654
0.00039769
0.000314298
0.000469805
7.7127e-05
0.000475791
-1.25394e-05
0.000438348
-2.17046e-05
0.000377156
-1.22527e-05
-0.000209358
2.31984e-05
-0.000187052
5.131e-05
-0.000162575
8.32789e-05
-0.000135709
0.000117946
-0.000106807
0.000154254
-7.55289e-05
0.000191195
-4.26576e-05
0.000228028
-8.55897e-06
0.000264786
4.22108e-05
0.000319075
0.000168729
0.000409198
0.000225175
0.000486812
5.10642e-05
0.000495867
-9.39735e-06
0.000472649
-1.54206e-05
0.000432065
-8.74013e-06
-0.000229817
2.04597e-05
-0.000210482
4.66293e-05
-0.000188776
7.7511e-05
-0.00016435
0.00011192
-0.000137526
0.000148665
-0.000107789
0.000186515
-7.59138e-05
0.000224451
-4.26729e-05
0.000262142
-1.05987e-05
0.000317596
7.43103e-05
0.000413494
0.000140377
0.000493996
3.20524e-05
0.000505824
-6.94355e-06
0.000493414
-1.07156e-05
0.000467944
-5.9495e-06
-0.000247176
1.73591e-05
-0.000231174
4.11512e-05
-0.000212677
7.05303e-05
-0.000191184
0.000104345
-0.00016696
0.000141354
-0.000139283
0.000180159
-0.000108819
0.00021942
-7.66701e-05
0.000258448
-6.25301e-05
0.000314073
-2.07028e-05
0.000412609
5.86164e-05
0.000495255
1.76151e-05
0.000508433
-5.24695e-06
0.000504128
-7.29501e-06
0.000489993
-3.95183e-06
-0.000261144
1.39678e-05
-0.000248749
3.49346e-05
-0.000233851
6.2325e-05
-0.00021577
9.51167e-05
-0.000194694
0.000132079
-0.00016967
0.000171741
-0.000141176
0.000212515
-0.000110481
0.000253231
-0.000112177
0.000308095
-0.000113559
0.000406929
-1.92223e-05
0.000490448
5.65232e-06
0.000507217
-4.2629e-06
0.000507449
-5.02409e-06
0.000501857
-2.59169e-06
-0.000271521
1.03769e-05
-0.00026289
2.81086e-05
-0.000251894
5.29772e-05
-0.000237645
8.41999e-05
-0.00022026
0.000120683
-0.000198522
0.000160931
-0.000172655
0.00020322
-0.000143913
0.000245947
-0.000158453
0.000299507
-0.000201548
0.000396084
-9.70231e-05
0.00048473
-6.35056e-06
0.00050245
-3.72254e-06
0.000506677
-3.71938e-06
0.000506145
-1.74454e-06
-0.000278204
6.68285e-06
-0.000273347
2.08337e-05
-0.000266466
4.26809e-05
-0.00025635
7.16823e-05
-0.000243146
0.000107086
-0.00022534
0.000147501
-0.00020281
0.000191087
-0.000176666
0.000235973
-0.00020105
0.000288544
-0.000283517
0.000381476
-0.000178038
0.0004771
-1.90255e-05
0.000497405
-3.96212e-06
0.00050269
-2.95809e-06
0.000505916
-1.35587e-06
-0.00028116
2.95594e-06
-0.000279968
1.33035e-05
-0.00027733
3.16982e-05
-0.000271483
5.78144e-05
-0.000262827
9.13634e-05
-0.000249549
0.000131295
-0.000231103
0.000175794
-0.000208331
0.000222751
-0.00024001
0.000274932
-0.000357527
0.000362555
-0.000260266
0.000463703
-3.28055e-05
0.000490879
-4.04099e-06
0.000497483
-2.74728e-06
0.000502479
-1.25755e-06
-0.000280426
-7.33574e-07
-0.000282762
5.74998e-06
-0.000284395
2.03685e-05
-0.000282728
4.29427e-05
-0.000278843
7.38304e-05
-0.000270511
0.000112325
-0.000256889
0.000157081
-0.000238374
0.000205837
-0.000275508
0.000258249
-0.000422229
0.000339634
-0.000343535
0.000445823
-5.00403e-05
0.000480938
-3.41109e-06
0.000490249
-2.40046e-06
0.000497136
-1.31228e-06
-0.000276345
-4.08093e-06
-0.000282262
-1.2328e-06
-0.000287642
8.99653e-06
-0.000289829
2.7469e-05
-0.000290879
5.49785e-05
-0.000287635
9.09538e-05
-0.000279388
0.000134825
-0.000266113
0.00018482
-0.000307673
0.000238002
-0.000477817
0.000313838
-0.000425331
0.00042143
-7.26002e-05
0.000468383
-2.68041e-06
0.000480207
-1.51157e-06
0.00048936
-1.23577e-06
-7.4142e-06
-0.000268931
-0.000278083
-8.26069e-06
-0.00028639
-2.48491e-06
-0.000292656
1.18237e-05
-0.000298795
3.53844e-05
-0.000300498
6.78423e-05
-0.000297851
0.000109417
-0.000290518
0.000159231
-0.000336468
0.000213615
-0.000525141
0.000285326
-0.000504765
0.000393272
-0.000102148
0.000450978
-1.50487e-06
0.000467207
-5.03703e-08
0.000478745
-1.00458e-06
-1.47774e-05
-0.000270719
-2.82121e-05
-0.000240719
-0.000281863
-1.27875e-05
-0.000292317
-2.82371e-06
-0.000302616
1.56455e-05
-0.000308707
4.35932e-05
-0.00031189
8.18814e-05
-0.000310332
0.00012923
-0.000361639
0.000184401
-0.000565416
0.000253889
-0.000580782
0.000361343
-0.000137121
0.000428245
-4.34315e-08
0.000449517
2.29376e-06
0.000464863
-5.65894e-07
-2.2395e-05
-0.000274245
-5.64521e-05
-0.000242479
-3.76825e-05
-0.000203037
-0.000287729
-1.73754e-05
-0.000301086
-4.35409e-06
-0.000311722
1.86597e-05
-0.00032128
5.29834e-05
-0.00032536
9.69096e-05
-0.00038271
0.000150301
-0.000599561
0.000218546
-0.000652006
0.000325115
-0.000175273
0.000399497
1.75813e-06
0.000426445
5.52684e-06
0.000446284
2.50254e-07
-3.03929e-05
-0.000279731
-8.52462e-05
-0.000245451
-7.51394e-05
-0.000205022
-4.34656e-05
-0.000159571
-0.000296009
-2.24527e-05
-0.000311401
-4.67424e-06
-0.000326288
2.36676e-05
-0.000334785
6.24089e-05
-0.00039934
0.000113539
-0.000628582
0.000179323
-0.000717274
0.000283814
-0.000214421
0.000364264
4.20072e-06
0.000397056
9.767e-06
0.000422205
1.51182e-06
-3.89814e-05
-0.00028742
-0.000114856
-0.000250121
-0.000113453
-0.000207138
-8.51068e-05
-0.000163381
-5.31002e-05
-0.000106471
-0.000305931
-2.79235e-05
-0.000324343
-6.61923e-06
-0.000338329
2.72115e-05
-0.000410509
7.35781e-05
-0.000652425
0.000137382
-0.000774954
0.000237003
-0.000251546
0.00032094
8.10611e-06
0.000360361
1.5191e-05
0.000391633
3.31605e-06
-4.84618e-05
-0.00029645
-0.00014616
-0.000256117
-0.000152302
-0.000211271
-0.000126789
-0.000165456
-9.9316e-05
-0.000117165
-6.2153e-05
-4.43178e-05
-0.000318117
-3.41502e-05
-0.000338954
-5.99459e-06
-0.000415897
3.25996e-05
-0.000668935
9.0088e-05
-0.00081837
0.000180798
-0.000281968
0.000267426
1.44552e-05
0.000314593
2.21366e-05
0.000353417
5.77028e-06
-5.92198e-05
-0.000307358
-0.000179716
-0.000262894
-0.000193041
-0.000215378
-0.00016705
-0.00017101
-0.000141308
-0.000123464
-0.00011182
-6.74985e-05
-0.000116251
7.19335e-05
-0.000332684
-4.04199e-05
-0.000415025
-6.86679e-06
-0.000676407
4.00722e-05
-0.000836094
0.000107812
-0.000300714
0.000199544
2.40266e-05
0.000257855
3.07221e-05
0.000306008
8.97647e-06
-7.05407e-05
-0.000321363
-0.000216056
-0.000271018
-0.000236697
-0.000219239
-0.000207592
-0.000174836
-0.000176153
-0.000136165
-0.000151115
-8.41689e-05
-0.000202614
1.88636e-05
-0.000133203
0.000205137
-0.000409131
-4.63141e-05
-0.000670701
-1.25729e-05
-0.000823673
2.76507e-05
-0.000307084
0.00011418
3.56504e-05
0.000187918
4.05487e-05
0.000248027
1.29144e-05
-8.13408e-05
-0.00039833
-0.000251437
-0.000285983
-0.000283853
-0.000223862
-0.000249876
-0.000176955
-0.000207853
-0.000143136
-0.000179777
-0.000107503
-0.000248029
-3.87531e-05
-0.000238734
0.000124394
-0.000210473
0.00041561
-0.000651771
-6.52448e-05
-0.000781881
-5.43643e-05
-0.000295767
1.6331e-05
4.57939e-05
0.000104033
4.99228e-05
0.000178541
1.73076e-05
-0.000113682
-0.00061943
-0.000285808
-0.000363959
-0.000328672
-0.000241164
-0.000294419
-0.000179319
-0.000239701
-0.000145106
-0.000203388
-0.000119525
-0.000255148
-0.000100384
-0.000283896
6.40869e-06
-0.000355336
0.000269257
-0.00010271
0.00051832
-0.000729687
-0.00011744
-0.0002711
-7.90332e-05
4.82041e-05
1.39176e-05
5.51059e-05
9.88471e-05
2.16203e-05
-0.00016711
-0.000676258
-0.000413853
-0.000491385
-0.00038061
-0.00031202
-0.000336494
-0.000199089
-0.00027203
-0.00014699
-0.000221152
-0.000127342
-0.000243838
-0.000130835
-0.000286522
-9.77582e-05
-0.000432397
8.34696e-05
-0.000228747
0.000395294
0.000183814
0.000334505
-0.00023671
-0.00015183
4.23947e-05
-7.32248e-05
5.638e-05
1.26421e-05
2.50255e-05
-0.000205236
-0.000198584
-0.000604098
-0.000486014
-0.000550768
-0.000321227
-0.00039993
-0.000248584
-0.000305893
-0.000165227
-0.000235456
-0.000132686
-0.00022758
-0.000143601
-0.000258543
-0.000158814
-0.000405365
-0.000124791
-0.000296563
0.000151285
0.000254603
0.000324506
0.00140781
0.000449728
-0.00152304
3.47896e-05
-0.000144224
5.33444e-05
-7.01889e-05
2.56374e-05
-0.000201867
3.14222e-05
-0.000669128
-0.000133552
-0.000744333
-0.000292449
-0.000581214
-0.000139943
-0.00036463
-0.000189848
-0.000254287
-0.000146395
-0.000211951
-0.000148315
-0.000218103
-0.00018404
-0.000327455
-0.000236724
-0.000279028
-0.000142325
0.000237276
0.000168612
0.00131192
0.000420405
0.00171651
0.000561563
-0.00182834
0.000274348
-0.00179739
4.89116e-05
-0.00013979
2.32105e-05
-0.000198192
4.52374e-05
-0.000649977
1.22709e-05
-0.000768397
-0.000109489
-0.000714617
-0.000159046
-0.000507236
2.66358e-06
-0.000297777
-0.000146358
-0.000205707
-0.000152639
-0.000178582
-0.000187837
-0.000240226
-0.000271269
-0.000225726
-0.000290026
0.000144279
-4.93283e-05
0.00118814
0.000292392
0.00153647
0.000600437
0.00173151
0.000740341
-0.00191028
0.000415157
-0.00196915
0.00019328
-0.00199067
2.11122e-05
1.81162e-05
-0.000632513
2.77733e-05
-0.000743086
-1.30414e-05
-0.000715588
-0.00010852
-0.000575162
-9.11217e-05
-0.000389164
9.40506e-05
-0.000224886
-0.000127179
-0.000155156
-0.000176065
-0.000171741
-0.000256322
-0.000161418
-0.000335577
0.000111368
-0.000257115
0.00101034
0.000128465
0.00132019
0.000508681
0.00154088
0.000791063
0.00174538
0.00101549
-0.00202053
0.000618204
-0.00211333
0.000329597
-0.00210547
0.000116236
-0.0021069
1.08891e-05
-0.000721997
6.68261e-06
-0.000696313
-3.23179e-05
-0.000577803
-0.000105879
-0.000428796
-5.14907e-05
-0.000286729
0.000155893
-0.000154837
-0.000127498
-0.000136471
-0.000211334
-0.000118232
-0.000299507
0.000120093
-0.000344302
0.000790721
-3.74935e-05
0.00110383
0.000344816
0.00128768
0.000761879
0.00147254
0.0010639
0.00182015
0.00132346
-0.00212812
0.000850846
-0.00225317
0.000447731
-0.00223146
0.000190288
-0.00217952
6.15713e-05
-0.00216847
2.08244e-06
-0.000679509
-1.01214e-05
-0.000572347
-3.77732e-05
-0.000442999
-9.1673e-05
-0.000319187
-1.90307e-05
-0.000226672
0.000227729
-0.00012254
-0.000141429
-0.000114164
-0.000215402
5.19502e-05
-0.000231364
0.000530021
-8.36021e-05
0.000817143
0.000249197
0.00100653
0.000625966
0.00121012
0.0010243
0.00147977
0.00140429
0.00177969
0.00160902
-0.00206525
0.00101609
-0.00229337
0.00054298
-0.00234842
0.000258148
-0.00229932
0.000108734
-0.00222668
1.98865e-05
-0.00218836
-4.77323e-06
-0.000564435
-1.80321e-05
-0.000447261
-3.35086e-05
-0.000340911
-6.99458e-05
-0.00025494
9.23957e-06
-0.000185316
0.000290505
-0.000124679
-0.000130914
-6.1138e-05
-0.000102314
0.000273297
2.53594e-05
0.00045118
0.000282362
0.000710735
0.000544994
0.000913673
0.000922415
0.00114184
0.00136222
0.00142761
0.00175636
0.00160177
0.00045444
-0.00184149
0.000454217
0.000469602
0.000470481
0.00110244
-0.00215159
0.00055879
-0.00230918
0.00027831
-0.00236858
0.000118177
-0.00230877
2.69465e-05
-0.00223374
-1.35679e-05
-0.00217479
-8.02548e-06
-0.000446799
-1.84925e-05
-0.000348562
-2.58567e-05
-0.000274087
-5.08003e-05
-0.000205064
2.89854e-05
-0.00021033
0.000376155
-0.000161085
-3.09666e-05
3.50801e-05
0.000135903
0.000175981
0.000300558
0.000437097
0.000555999
0.000663461
0.000795206
0.0008004
0.00126386
0.00113417
0.00165567
0.0012274
0.00213073
-6.57369e-07
0.000369952
-0.00039087
0.000476015
0.000326932
-0.00196378
0.00032665
0.000285141
0.000286006
0.000371292
-0.000390389
0.000472656
-4.17064e-07
0.000323014
0.000516957
0.000325849
0.000515507
0.000506286
-0.00209909
0.000203567
-0.00223443
7.67331e-05
-0.00232714
6.83078e-06
-0.00228865
-3.53048e-05
-0.002212
-5.16869e-05
-0.0021231
-8.46782e-06
-0.000351418
-1.5636e-05
-0.00027959
-2.03554e-05
-0.000224551
-3.13187e-05
-0.000204397
2.30464e-05
-0.000233057
0.000448124
-0.000177225
0.000181338
1.39545e-05
0.000297929
0.00020353
0.000534125
0.000463584
0.000755876
0.000461098
0.00113451
0.000849043
0.00154899
0.00087031
0.00201276
-0.000266197
-0.000265939
0.000882609
0.000607424
0.000603061
0.000609131
0.000609501
-9.30309e-07
-0.000428881
0.000365873
-2.29661e-07
0.000297547
-0.00033613
0.000514828
-0.00189473
0.000437238
-0.000427433
0.000362764
-7.59587e-07
-0.000435084
0.000292104
-0.000432458
0.000290271
0.000294484
-0.000332828
0.000510771
-4.64744e-08
0.000548353
0.000544006
-1.96648e-05
-0.00187586
-6.87634e-05
-0.00208894
-7.30618e-05
-0.00224725
-8.94283e-05
-0.00223453
-0.000113464
-0.00215023
-8.40386e-05
-0.00203907
-7.48785e-06
-0.000282302
-1.29242e-05
-0.00022863
-1.62782e-05
-0.000202854
-3.28664e-05
-0.000202356
-7.65894e-06
-0.000196517
0.000467415
-0.000140787
0.000336079
3.17125e-05
0.000469747
0.000252102
0.000745607
0.000228837
0.000988137
0.000546091
0.00143746
0.000599847
0.00181945
0.000602829
0.000586037
0.000584145
0.000563263
0.000559092
-1.51863e-08
0.000134352
-0.000153016
0.000626104
0.000134789
-0.000153555
0.000621812
-6.18678e-07
0.000120059
0.000624042
0.000120405
0.000623267
-9.63448e-07
-0.000384135
0.000414842
1.32429e-06
0.000209849
-0.000250291
0.00015875
0.000111921
0.000149552
0.000133723
-0.00166631
-0.000248086
0.000412982
0.000410503
-0.00182741
0.000118541
0.000117745
0.000169673
0.000167661
-0.000380897
0.00040987
-8.8323e-07
0.000321834
0.000318994
0.00021055
-0.000247714
0.000157545
0.000111907
0.000147834
0.000131973
1.28085e-06
0.000168377
0.000131881
0.000166268
0.000137379
0.000167297
0.000133621
0.000164617
0.000136746
-0.000320887
-0.00162373
-0.000209935
-0.00195206
-0.000198321
-0.00213836
-0.000204553
-0.00214344
-0.000175423
-0.00205884
-0.000117695
-0.00192137
-6.46848e-06
-0.000230083
-1.14693e-05
-0.000195879
-2.32513e-05
-0.000185033
-5.01889e-05
-0.000149587
-5.45892e-05
-0.000217229
0.000543857
-0.000148203
0.000515994
1.92546e-05
0.000702594
7.83315e-05
0.000896112
0.000268931
0.0012653
0.000347838
0.00168947
0.000394077
0.000499126
0.000497304
0.000516459
0.000515312
-3.67394e-07
9.20692e-05
0.000614394
9.06069e-05
0.000613576
-2.19208e-07
6.3595e-05
0.000591956
6.07508e-05
0.000588729
-5.97074e-08
4.35257e-05
-3.2485e-05
-1.24307e-05
0.000136254
-2.40305e-05
0.000188101
0.000141737
0.00018805
-2.58831e-06
4.20258e-05
-3.24086e-05
-1.19455e-05
-2.3845e-05
0.000135744
0.00018661
0.000140915
0.000187064
-2.40783e-06
5.40097e-07
1.37867e-05
0.00014061
0.000183543
0.000142643
0.000186396
1.3421e-05
0.000140608
0.000183156
0.000142694
0.000185954
-7.82739e-07
-0.000286184
0.000129796
9.50113e-05
0.000130388
9.63221e-05
-3.59813e-05
1.10912e-05
2.32027e-07
3.07805e-05
0.000152627
-8.5392e-06
3.22139e-05
-3.25644e-05
0.000120811
-2.11335e-07
-4.08496e-05
0.000146093
3.20159e-05
0.000145012
-0.00140403
-0.000583172
-0.00171565
-0.00013821
-0.000134684
-4.51827e-05
-4.17643e-05
-1.99242e-06
0.00029525
-0.000268002
9.32852e-05
0.000296341
-0.000272074
9.14855e-05
-2.15467e-06
0.00030318
0.000163898
0.000301568
0.000160281
-0.000282483
0.000127817
9.40154e-05
0.000128401
9.36222e-05
-1.86253e-06
0.000105517
6.6008e-05
9.46455e-05
7.45234e-05
0.000103546
6.64644e-05
9.27577e-05
7.34479e-05
-3.50282e-05
1.1079e-05
3.02681e-05
0.000151458
-8.10414e-06
3.16441e-05
-3.19078e-05
0.000120275
-4.02083e-05
0.000144699
3.14058e-05
0.00014329
2.52926e-05
1.08303e-05
4.89346e-07
0.000162546
-1.43934e-05
-3.16756e-05
0.000145465
1.62912e-07
0.000164572
0.000148549
2.52127e-05
1.12147e-05
0.000161627
-1.42095e-05
-3.15777e-05
0.000147
0.000163838
0.000147789
-0.00042826
-0.00140541
-0.000345634
-0.00180475
-0.000358265
-0.00198464
-0.00029213
-0.00202673
-0.000233235
-0.0019433
-0.000152931
-0.00176844
-5.81191e-06
-0.000190956
-1.63887e-05
-0.000166684
-4.15973e-05
-0.000125221
-7.45509e-05
-0.000175797
-9.60186e-05
-0.000241599
0.000637254
-0.000281504
0.000816753
-7.53178e-05
0.000856243
3.44464e-05
0.0011306
0.000113607
0.00149953
0.000206718
0.000462635
0.000462319
0.000476575
0.0004753
2.58062e-07
2.96985e-05
0.000532764
2.82767e-05
0.000530036
1.52807e-07
2.18324e-05
0.000524172
2.2311e-05
0.00052143
1.0116e-06
5.3599e-06
0.000135339
0.000176285
0.000135612
0.000174538
4.80124e-06
0.000135976
0.000176163
0.000136966
0.000174092
1.65112e-06
-5.74635e-06
0.000126923
0.000168789
0.00013371
0.000171997
-6.63304e-06
0.000127909
0.000167982
0.000134789
0.000171155
-2.23906e-06
-5.78126e-06
-1.09574e-05
0.000155232
-2.13057e-06
-1.85731e-05
0.000142138
-1.31107e-05
-6.77566e-08
0.000190752
8.3222e-06
-5.0604e-06
-9.25762e-06
0.000150274
-3.06153e-08
-1.0888e-05
0.000180814
2.12167e-08
-7.15663e-06
0.00016697
-2.58136e-06
-1.8922e-05
0.000144658
-2.06494e-06
-5.31282e-06
-1.18289e-05
0.000154951
-1.36351e-05
8.81071e-06
0.000189302
-4.78147e-06
-9.26126e-06
0.000149645
-1.13918e-05
0.000180009
-7.16674e-06
0.000166037
-7.12094e-06
1.10445e-05
-1.24295e-05
0.000149116
9.52758e-06
-2.19486e-08
-8.55259e-06
0.000175467
-5.87611e-06
0.000150306
5.32474e-09
0.000179187
-7.0118e-06
1.10476e-05
-1.28581e-05
0.00014943
9.96281e-06
-9.13403e-06
0.000175293
-5.76357e-06
0.000150244
0.000178767
4.84647e-05
8.73422e-06
-5.6817e-07
-5.36125e-05
0.000126778
-6.96611e-06
-4.08682e-05
0.000110281
-2.95943e-07
0.000131333
-4.34776e-05
0.000107666
-2.12503e-05
1.95059e-06
-6.73009e-08
1.2596e-05
0.000159398
-4.18044e-07
1.44836e-05
-1.82982e-05
0.000125043
-2.70316e-07
-2.97264e-05
0.000154402
1.49826e-05
0.000146464
-0.00116158
-0.000670705
-0.00136244
-0.000253825
-0.000251489
-0.000217194
-0.000213873
1.04735e-08
0.000265101
-0.000260908
-0.000142413
0.000269441
-0.00026488
-0.000139235
-9.77596e-07
-4.71062e-05
-4.53749e-05
-1.95499e-06
0.000210446
-0.000208061
2.79189e-07
3.84216e-05
1.27215e-05
4.13973e-05
0.000221824
-0.000219495
-2.03694e-06
3.72935e-05
1.12582e-05
4.06867e-05
-3.30437e-06
4.03323e-05
6.5876e-05
4.85475e-05
2.00918e-05
6.42187e-05
2.84237e-05
5.1874e-05
5.82691e-05
4.10942e-05
6.7722e-05
4.67478e-05
2.21609e-05
6.23051e-05
2.69716e-05
5.10442e-05
6.07544e-05
4.83489e-05
8.06523e-06
-5.40251e-05
0.00012486
-6.37836e-06
-4.01851e-05
0.000108671
0.000129868
-4.33059e-05
0.000104808
-5.97679e-05
1.01802e-05
-7.89465e-07
0.000102281
-1.47359e-05
4.7765e-05
7.33112e-05
-9.61279e-07
8.69622e-05
8.89911e-05
-6.08437e-05
9.28962e-06
0.000100285
-1.34093e-05
4.81782e-05
7.27898e-05
8.52654e-05
8.76099e-05
-2.10735e-05
1.70457e-06
1.26704e-05
0.00015809
-1.16256e-07
1.39571e-05
-1.79338e-05
0.000124368
-2.90875e-05
0.000152326
1.51984e-05
0.000143754
2.96343e-06
1.06895e-07
0.000164936
0.000147922
3.10323e-06
0.000164135
0.000147168
-0.000476602
-0.00127444
-0.000540787
-0.00162223
-0.00046628
-0.00181049
-0.000372368
-0.0018876
-0.000298057
-0.00179818
-0.000197534
-0.00157091
-7.388e-06
-0.000153066
-3.00062e-05
-0.000106732
-6.00867e-05
-0.000108647
-0.000141699
-0.00018346
-0.000154155
-0.000261128
0.000616881
-0.000379695
0.00112113
-0.000126596
0.00101729
-7.89936e-05
0.0013232
-7.61111e-06
0.000415516
0.000414266
0.000442105
0.000441971
2.21772e-07
1.70261e-05
0.000467219
1.76734e-05
0.000467178
7.1691e-08
1.94625e-06
0.000491583
2.4811e-06
0.000490564
1.92435e-06
-1.47729e-05
0.000114085
0.00015154
0.000119625
0.000154654
-1.52749e-05
0.000115519
0.000150728
0.000120706
0.00015364
1.94497e-06
-2.20343e-05
0.00011579
0.000146462
0.000115993
0.000151213
-2.4181e-05
0.000117677
0.000145915
0.000117801
0.000150862
-7.46821e-06
-1.43364e-05
0.000144714
-1.09034e-05
7.30833e-08
0.00017111
-7.74138e-06
-1.56748e-05
0.000144698
4.56362e-08
-1.11169e-05
0.000167001
-7.22844e-06
-1.4978e-05
0.000145324
-1.13585e-05
0.000171232
-7.35478e-06
-1.65019e-05
0.000145844
-1.14354e-05
0.000166849
-8.02187e-06
1.53916e-05
-1.48741e-05
0.000134423
1.22188e-05
1.31561e-07
-1.25159e-05
0.000160954
-8.01182e-06
0.000141433
-1.38627e-08
0.000165081
-7.87131e-06
1.6302e-05
-1.59125e-05
0.000135391
1.26637e-05
-1.29011e-05
0.000160488
-7.77348e-06
0.000142363
0.000164606
-1.38219e-06
-2.55372e-06
2.5278e-07
-2.93965e-05
-3.64006e-05
-1.97324e-08
-2.42607e-08
8.20263e-06
2.13417e-07
-1.19641e-05
-1.05515e-08
-1.21425e-05
-1.73306e-06
-2.285e-06
3.17869e-07
-2.91616e-05
8.24037e-06
-3.65037e-05
2.7695e-07
-1.20277e-05
-1.24021e-05
3.39228e-07
1.31972e-05
-1.21705e-05
1.03866e-05
-5.22232e-08
-9.70626e-06
1.56665e-07
-2.08452e-08
4.08892e-07
1.32303e-05
-1.23685e-05
1.0579e-05
-9.86394e-06
1.47825e-07
3.45276e-05
2.22811e-06
-8.0672e-07
-4.29605e-05
0.000133804
-4.29691e-07
-1.81618e-05
0.000110575
-4.54097e-07
0.000136176
-1.99063e-05
0.000111639
-4.099e-06
1.31161e-06
-2.88718e-08
-2.41662e-06
-2.27171e-06
-2.13078e-06
1.89469e-06
-1.16082e-07
-5.87195e-06
-1.39798e-06
-0.000988925
-0.000649258
-0.00109332
-0.000233861
-0.000233848
-0.000236268
-0.000235854
8.54433e-08
0.0002407
-0.000215
-0.000279611
0.000243397
-0.000217113
-0.000277687
3.50086e-07
-0.000237752
-0.000235006
8.93432e-07
0.000221247
-0.000232079
-5.31582e-05
-2.67866e-05
-4.06265e-05
-1.19299e-05
0.000230132
-0.000238829
-5.17584e-05
-2.65032e-05
-3.88096e-05
-1.25524e-05
-9.27472e-07
-2.15918e-05
1.44739e-05
-2.96148e-05
3.70467e-06
-2.22e-05
1.30982e-05
-2.7697e-05
1.12327e-06
-6.05171e-06
1.3589e-05
-1.31104e-05
5.85227e-06
4.36379e-05
-6.42805e-07
-3.22046e-05
2.16326e-05
-6.07369e-06
1.10113e-05
2.13728e-05
-3.36014e-07
3.76838e-05
4.16138e-05
-5.70754e-06
1.72366e-05
-1.79913e-05
4.42531e-06
4.59745e-05
-3.32651e-05
1.82338e-05
-5.39379e-06
1.41912e-05
1.96974e-05
4.02999e-05
4.06315e-05
-3.5715e-06
-8.84342e-06
-1.24876e-06
6.22111e-05
-6.7116e-06
2.09418e-05
7.91728e-05
-3.03573e-05
-4.80578e-07
6.55943e-05
2.59293e-05
-7.90915e-06
3.85008e-05
-3.07343e-07
5.15986e-05
-1.28766e-06
5.00172e-05
8.97709e-05
-2.64532e-06
-1.15098e-05
1.46558e-07
6.07564e-05