/*--------------------------------*- C++ -*----------------------------------*\
| =========                 |                                                 |
| \\      /  F ield         | OpenFOAM: The Open Source CFD Toolbox           |
|  \\    /   O peration     | Version:  5.x                                   |
|   \\  /    A nd           | Web:      www.OpenFOAM.org                      |
|    \\/     M anipulation  |                                                 |
\*---------------------------------------------------------------------------*/
FoamFile
{
    version     2.0;
    format      ascii;
    class       volScalarField;
    location    "1.4";
    object      rAU;
}
// * * * * * * * * * * * * * * * * * * * * * * * * * * * * * * * * * * * * * //

dimensions      [-1 3 1 0 0 0 0];

internalField   nonuniform List<scalar> 
12160
(
1.24415e-06
1.24508e-06
1.2432e-06
1.24504e-06
1.24317e-06
1.24413e-06
1.24501e-06
1.24404e-06
1.24506e-06
1.24322e-06
1.24505e-06
1.24496e-06
1.24505e-06
1.24318e-06
1.24414e-06
1.24507e-06
1.24502e-06
1.2447e-06
1.24408e-06
1.24411e-06
1.2432e-06
1.24508e-06
1.24503e-06
1.24469e-06
1.24493e-06
1.24408e-06
1.24322e-06
1.24323e-06
1.2444e-06
1.24507e-06
1.24499e-06
1.24492e-06
1.24456e-06
1.2441e-06
1.24328e-06
1.24313e-06
1.24437e-06
1.2445e-06
1.24505e-06
1.24495e-06
1.24453e-06
1.24486e-06
1.24412e-06
1.24394e-06
2.00479e-06
1.24507e-06
1.24445e-06
1.24505e-06
1.24504e-06
1.24491e-06
1.24482e-06
1.24452e-06
1.24594e-06
1.89541e-06
4.43854e-05
1.24507e-06
1.24507e-06
1.24499e-06
1.24504e-06
1.24502e-06
1.24468e-06
1.24444e-06
1.24907e-06
1.89335e-06
4.59593e-05
0.00065896
1.24424e-06
1.24507e-06
1.24501e-06
1.24494e-06
1.24502e-06
1.24481e-06
1.24477e-06
1.25318e-06
1.88447e-06
3.62245e-05
0.00122954
0.00123423
1.24319e-06
1.24506e-06
1.24502e-06
1.24489e-06
1.24489e-06
1.245e-06
1.24494e-06
1.25725e-06
1.92248e-06
2.88804e-05
0.0011679
0.00124361
0.00124407
1.24397e-06
1.24472e-06
1.24504e-06
1.24499e-06
1.24481e-06
1.24482e-06
1.24501e-06
1.26201e-06
1.99271e-06
2.3832e-05
0.00111655
0.00124445
0.00124385
0.00124408
1.24504e-06
1.24473e-06
1.24494e-06
1.24501e-06
1.24491e-06
1.24471e-06
1.24476e-06
1.26526e-06
2.05577e-06
2.37422e-05
0.001003
0.00124346
0.00124479
0.00124375
0.00124433
1.24509e-06
1.24509e-06
1.24497e-06
1.24505e-06
1.24497e-06
1.24474e-06
1.24473e-06
1.2631e-06
2.06828e-06
2.4517e-05
0.000918909
0.00124367
0.00124379
0.00124475
0.00124254
1.24509e-06
1.24509e-06
1.24509e-06
1.24504e-06
1.24504e-06
1.24492e-06
1.24489e-06
1.25748e-06
2.01411e-06
2.30789e-05
0.000836123
0.0012436
0.00124418
0.00124388
0.00124442
1.24509e-06
1.24509e-06
1.24509e-06
1.24507e-06
1.24504e-06
1.24505e-06
1.245e-06
1.25136e-06
1.91395e-06
1.96309e-05
0.000740333
0.00124303
0.0012442
0.00124417
0.00124208
1.24508e-06
1.24509e-06
1.24509e-06
1.24509e-06
1.24507e-06
1.245e-06
1.24506e-06
1.24679e-06
1.81178e-06
1.54363e-05
0.000615652
0.00124232
0.00124415
0.00124454
0.00124269
1.24508e-06
1.24508e-06
1.24509e-06
1.24509e-06
1.24509e-06
1.24496e-06
1.24498e-06
1.2451e-06
1.73556e-06
1.17396e-05
0.000468136
0.00124004
0.00124402
0.00124452
0.00124266
1.24508e-06
1.24508e-06
1.24508e-06
1.24509e-06
1.24509e-06
1.24493e-06
1.24496e-06
1.24488e-06
1.69067e-06
9.28747e-06
0.000326452
0.00123548
0.0012435
0.00124451
0.00124223
1.24508e-06
1.24508e-06
1.24508e-06
1.24508e-06
1.24509e-06
1.24492e-06
1.24493e-06
1.24473e-06
1.67608e-06
8.11766e-06
0.000223757
0.00122636
0.00124277
0.00124415
0.00124124
1.24507e-06
1.24508e-06
1.24508e-06
1.24508e-06
1.24508e-06
1.24491e-06
1.24492e-06
1.24458e-06
1.69269e-06
7.84918e-06
0.000169473
0.0012135
0.00124262
0.00124252
0.00124028
1.24507e-06
1.24507e-06
1.24508e-06
1.24508e-06
1.24508e-06
1.2449e-06
1.24491e-06
1.24442e-06
1.73943e-06
8.09091e-06
0.000151894
0.00119881
0.00124311
0.00124369
0.00123852
1.24507e-06
1.24507e-06
1.24507e-06
1.24508e-06
1.24508e-06
1.24488e-06
1.2449e-06
1.24427e-06
1.81003e-06
8.85577e-06
0.000157358
0.00118603
0.00124418
0.00124411
0.00123992
1.24507e-06
1.24507e-06
1.24507e-06
1.24507e-06
1.24508e-06
1.24487e-06
1.24488e-06
1.24415e-06
1.89966e-06
1.00595e-05
0.000184839
0.00118794
0.00124501
0.00124466
0.00124133
1.24506e-06
1.24507e-06
1.24507e-06
1.24507e-06
1.24507e-06
1.24485e-06
1.24487e-06
1.24407e-06
2.00133e-06
1.16804e-05
0.000231683
0.00120188
0.00124502
0.00124482
0.00124351
1.24506e-06
1.24506e-06
1.24507e-06
1.24507e-06
1.24507e-06
1.24484e-06
1.24485e-06
1.24401e-06
2.10646e-06
1.3673e-05
0.000294841
0.0012164
0.00124503
0.00124422
0.00124459
1.24506e-06
1.24506e-06
1.24506e-06
1.24507e-06
1.24507e-06
1.24483e-06
1.24484e-06
1.24399e-06
2.20471e-06
1.59101e-05
0.000369495
0.00122671
0.00124504
0.00124372
0.00124341
1.24505e-06
1.24506e-06
1.24506e-06
1.24506e-06
1.24507e-06
1.24483e-06
1.24483e-06
1.24403e-06
2.28496e-06
1.81573e-05
0.000450336
0.00123324
0.00124505
0.00124334
0.00124241
1.24505e-06
1.24505e-06
1.24506e-06
1.24506e-06
1.24506e-06
1.24483e-06
1.24483e-06
1.24411e-06
2.3373e-06
2.00991e-05
0.000525194
0.00123721
0.00124505
0.00124306
0.00124165
1.24505e-06
1.24505e-06
1.24505e-06
1.24506e-06
1.24506e-06
1.24484e-06
1.24483e-06
1.24406e-06
2.35528e-06
2.14097e-05
0.00058459
0.00123959
0.00124506
0.00124285
0.00124108
1.24504e-06
1.24505e-06
1.24505e-06
1.24505e-06
1.24506e-06
1.24485e-06
1.24484e-06
1.24396e-06
2.33741e-06
2.18449e-05
0.000623923
0.00124108
0.0012426
0.00124271
0.00124067
1.24504e-06
1.24504e-06
1.24505e-06
1.24505e-06
1.24505e-06
1.24485e-06
1.24484e-06
1.24393e-06
2.28689e-06
2.13806e-05
0.000636476
0.00124218
0.00124254
0.0012402
0.00124039
1.24504e-06
1.24504e-06
1.24504e-06
1.24505e-06
1.24505e-06
1.24486e-06
1.24485e-06
1.24394e-06
2.21155e-06
2.01186e-05
0.000623015
0.00124276
0.0012425
0.00124046
0.00124022
1.24421e-06
1.24504e-06
1.24504e-06
1.24504e-06
1.24505e-06
1.24487e-06
1.24486e-06
1.24399e-06
2.12053e-06
1.82993e-05
0.000585778
0.00124259
0.00124248
0.00124088
0.00124047
1.24239e-06
1.24504e-06
1.24504e-06
1.24504e-06
1.24504e-06
1.24487e-06
1.24486e-06
1.24406e-06
2.02293e-06
1.62213e-05
0.000528232
0.00124117
0.00124504
0.0012399
0.00124089
1.2432e-06
1.24502e-06
1.24504e-06
1.24502e-06
1.24504e-06
1.24488e-06
1.24487e-06
1.24416e-06
1.92644e-06
1.41387e-05
0.000459158
0.00123963
0.00124503
0.00124298
0.00123991
1.24503e-06
1.24504e-06
1.24502e-06
1.245e-06
1.24502e-06
1.2449e-06
1.24488e-06
1.24428e-06
1.83666e-06
1.2231e-05
0.000385401
0.00123736
0.00124506
0.00124346
0.00124041
1.24577e-06
1.24503e-06
1.24504e-06
1.24501e-06
1.245e-06
1.24492e-06
1.2449e-06
1.24441e-06
1.75733e-06
1.05856e-05
0.000315416
0.00123386
0.00124506
0.00124246
0.00124087
1.24578e-06
1.24536e-06
1.24504e-06
1.24504e-06
1.24501e-06
1.24496e-06
1.24492e-06
1.24453e-06
1.69081e-06
9.23256e-06
0.000252236
0.00122832
0.00124505
0.00124249
0.00123989
1.24578e-06
1.24536e-06
1.24501e-06
1.24504e-06
1.24504e-06
1.24499e-06
1.24496e-06
1.24465e-06
1.63866e-06
8.16613e-06
0.000200701
0.00121978
0.00124505
0.00124255
0.00123995
1.24579e-06
1.24536e-06
1.24501e-06
1.24502e-06
1.245e-06
1.24503e-06
1.24499e-06
1.24477e-06
1.60079e-06
7.36556e-06
0.000161258
0.00120659
0.00124505
0.00124264
0.00124006
1.24573e-06
1.24537e-06
1.24501e-06
1.24502e-06
1.24503e-06
1.245e-06
1.24503e-06
1.2449e-06
1.57741e-06
6.79069e-06
0.000132473
0.00118776
0.00124504
0.00124277
0.00124025
1.24575e-06
1.24521e-06
1.24501e-06
1.24502e-06
1.24502e-06
1.24505e-06
1.24503e-06
1.24505e-06
1.57017e-06
6.42717e-06
0.000112151
0.00116366
0.00124502
0.00124296
0.00124052
1.24587e-06
1.24522e-06
1.24481e-06
1.24502e-06
1.24491e-06
1.24503e-06
1.24487e-06
1.24581e-06
1.57766e-06
6.30483e-06
0.000100898
0.00113698
0.00124498
0.00124321
0.00124089
1.24841e-06
1.2454e-06
1.24481e-06
1.24473e-06
1.24485e-06
1.24492e-06
1.24501e-06
1.2449e-06
1.59642e-06
6.40515e-06
9.92134e-05
0.00111746
0.00124494
0.00124353
0.00124138
1.62195e-06
1.25262e-06
1.24507e-06
1.24473e-06
1.2444e-06
1.24485e-06
1.24446e-06
1.24504e-06
1.24391e-06
6.85185e-06
0.000107503
0.0011173
0.0012449
0.00124393
0.00124203
7.62004e-06
1.6824e-06
1.26612e-06
1.24531e-06
1.24412e-06
1.2441e-06
1.24448e-06
1.24494e-06
1.24431e-06
1.2409e-06
0.000128973
0.0011374
0.00124491
0.00124442
0.00124284
0.000158399
9.58776e-06
1.89782e-06
1.28896e-06
1.24506e-06
1.2438e-06
1.24503e-06
1.24432e-06
1.24463e-06
1.24333e-06
1.23928e-06
0.00116535
0.00124399
0.00124497
0.0012438
0.00118816
0.000224809
1.67412e-05
2.26474e-06
1.32224e-06
1.24516e-06
1.24403e-06
1.24418e-06
1.24454e-06
1.24405e-06
1.24115e-06
1.24002e-06
0.00124308
0.00124459
0.00124488
0.00124232
0.0012081
0.000439463
3.15839e-05
2.76993e-06
1.36183e-06
1.24635e-06
1.24413e-06
1.24429e-06
1.24472e-06
1.24336e-06
1.23785e-06
1.24459e-06
1.24205e-06
0.0012441
0.00124317
0.00124357
0.00124125
0.00122887
0.000726371
5.50536e-05
3.36573e-06
1.40581e-06
1.24875e-06
1.24418e-06
1.24341e-06
1.24481e-06
1.23725e-06
1.2447e-06
1.2435e-06
1.24459e-06
1.2428e-06
0.0012411
0.00123928
0.00124307
0.00124053
0.00123933
0.000933601
8.43498e-05
3.99407e-06
1.43911e-06
1.25037e-06
1.24315e-06
1.24399e-06
1.2432e-06
1.2447e-06
1.24507e-06
1.24349e-06
1.24508e-06
1.24322e-06
1.24236e-06
0.00123697
0.00124266
0.00124104
0.00124022
0.00104608
0.000114087
4.49504e-06
1.45968e-06
1.2471e-06
1.2425e-06
1.24376e-06
1.24489e-06
1.24507e-06
1.24403e-06
1.24505e-06
1.24507e-06
1.24508e-06
1.24322e-06
1.23965e-06
0.00123511
0.00124036
0.00124265
0.00124173
0.0011043
0.000138069
4.91365e-06
1.42391e-06
1.24327e-06
1.24279e-06
1.24412e-06
1.24489e-06
1.24507e-06
1.24402e-06
1.24481e-06
1.24236e-06
1.24213e-06
1.24507e-06
1.24507e-06
1.2292e-06
0.00123268
0.00124377
0.00124358
0.00124249
0.00114129
0.000174043
4.858e-06
1.34906e-06
1.2437e-06
1.24412e-06
1.24507e-06
1.24507e-06
1.24505e-06
1.24502e-06
1.24639e-06
1.24236e-06
1.23784e-06
1.24292e-06
1.24507e-06
1.24507e-06
1.23409e-06
0.00123589
0.00124445
0.00124388
0.00124293
0.0011759
0.000225436
4.66004e-06
1.2683e-06
1.24491e-06
1.24507e-06
1.24507e-06
1.24506e-06
1.24502e-06
1.24448e-06
1.23952e-06
1.2473e-06
1.23898e-06
1.24748e-06
1.24744e-06
1.23994e-06
1.24177e-06
1.24448e-06
1.24503e-06
1.24504e-06
1.24507e-06
0.00123716
0.00124467
0.00124398
0.00124329
0.00120898
0.000308701
4.07575e-06
1.31513e-06
1.24507e-06
1.24507e-06
1.24507e-06
1.2447e-06
1.24416e-06
1.24331e-06
1.24965e-06
1.24423e-06
1.24229e-06
1.24951e-06
1.25306e-06
1.25237e-06
1.24423e-06
1.23899e-06
1.23898e-06
1.24387e-06
1.24445e-06
1.24502e-06
1.24504e-06
1.24507e-06
1.24507e-06
0.00123831
0.00124473
0.00124423
0.00124318
0.001228
0.000429704
4.5053e-06
1.30897e-06
1.24375e-06
1.24301e-06
1.24506e-06
1.24466e-06
1.24703e-06
1.24347e-06
1.25135e-06
1.24224e-06
1.25128e-06
1.24508e-06
1.255e-06
1.2436e-06
1.24749e-06
1.24511e-06
1.2476e-06
1.2476e-06
1.25496e-06
1.24952e-06
1.24996e-06
1.24482e-06
1.24498e-06
1.24506e-06
1.24507e-06
1.24507e-06
1.24507e-06
0.00123919
0.0012448
0.00124443
0.00124378
0.00123776
0.00050406
4.81877e-06
1.31444e-06
1.24408e-06
1.243e-06
1.24503e-06
1.24929e-06
1.24337e-06
1.2452e-06
1.25286e-06
1.25323e-06
1.25862e-06
1.25856e-06
1.25847e-06
1.25848e-06
1.25418e-06
1.262e-06
1.24186e-06
1.24443e-06
1.25786e-06
1.24368e-06
1.24272e-06
1.2222e-06
1.22098e-06
1.23894e-06
1.23795e-06
1.2541e-06
1.24686e-06
1.24667e-06
1.26273e-06
1.24519e-06
1.24585e-06
1.25988e-06
1.25229e-06
1.23947e-06
1.25009e-06
1.19706e-06
1.25242e-06
1.24027e-06
1.25045e-06
1.2031e-06
1.24447e-06
1.24469e-06
1.24505e-06
1.24507e-06
1.24507e-06
1.24507e-06
0.00123989
0.00124505
0.00124502
0.00124383
0.00123975
0.000583711
6.06501e-06
1.39429e-06
1.24564e-06
1.24505e-06
1.24906e-06
1.25459e-06
1.25456e-06
1.25032e-06
1.2507e-06
1.25335e-06
1.25406e-06
1.2557e-06
1.25576e-06
1.29907e-06
1.24136e-06
1.32967e-06
1.29266e-06
1.30724e-06
1.25433e-06
1.24971e-06
1.30661e-06
1.32841e-06
1.2929e-06
1.30653e-06
1.25411e-06
1.28867e-06
1.29537e-06
1.28433e-06
1.29606e-06
1.2889e-06
1.29522e-06
1.28553e-06
1.29557e-06
1.23247e-06
1.22432e-06
1.22097e-06
1.22965e-06
1.26456e-06
1.25083e-06
1.2518e-06
1.26191e-06
1.24245e-06
1.24196e-06
1.21918e-06
1.21879e-06
1.22449e-06
1.22367e-06
1.22202e-06
1.22089e-06
1.24104e-06
1.23971e-06
1.23261e-06
1.22635e-06
1.22233e-06
1.22965e-06
1.24796e-06
1.2412e-06
1.25222e-06
1.23833e-06
1.248e-06
1.24116e-06
1.24844e-06
1.23923e-06
1.26461e-06
1.25136e-06
1.25173e-06
1.26274e-06
1.26159e-06
1.24427e-06
1.26159e-06
1.25622e-06
1.24401e-06
1.2449e-06
1.24505e-06
1.24507e-06
1.24507e-06
1.24507e-06
0.00124046
0.00124503
0.00124501
0.00124374
0.00124086
0.000766204
9.66417e-06
1.5327e-06
1.2507e-06
1.2489e-06
1.2485e-06
1.24901e-06
1.25315e-06
1.25305e-06
1.25421e-06
1.25415e-06
1.25273e-06
1.25264e-06
1.28436e-06
1.29649e-06
1.2794e-06
1.28867e-06
1.28053e-06
1.29673e-06
1.27549e-06
1.28901e-06
1.25691e-06
1.26514e-06
1.26988e-06
1.27721e-06
1.25685e-06
1.26509e-06
1.2705e-06
1.27745e-06
1.23945e-06
1.18652e-06
1.14913e-06
1.26386e-06
1.26283e-06
1.24554e-06
1.23836e-06
1.22571e-06
1.26341e-06
1.15049e-06
1.26663e-06
1.24476e-06
1.29501e-06
1.23348e-06
1.27777e-06
1.28543e-06
1.30115e-06
1.23751e-06
1.27953e-06
1.28474e-06
1.25078e-06
1.26021e-06
1.26346e-06
1.25907e-06
1.27634e-06
1.15499e-06
1.13457e-06
1.27185e-06
1.24399e-06
1.24148e-06
1.20673e-06
1.20681e-06
1.19303e-06
1.19297e-06
1.22189e-06
1.22307e-06
1.22147e-06
1.22112e-06
1.23501e-06
1.19723e-06
1.24398e-06
1.18904e-06
1.23377e-06
1.19871e-06
1.24265e-06
1.18904e-06
1.26154e-06
1.24994e-06
1.24807e-06
1.25423e-06
1.18352e-06
1.24483e-06
1.2595e-06
1.25008e-06
1.24013e-06
1.25217e-06
1.18403e-06
1.23492e-06
1.25011e-06
1.2607e-06
1.2633e-06
1.25901e-06
1.24901e-06
1.24818e-06
1.24853e-06
1.24986e-06
1.27578e-06
1.15509e-06
1.13611e-06
1.27139e-06
1.26413e-06
1.25648e-06
1.2638e-06
1.25739e-06
1.24412e-06
1.24491e-06
1.24506e-06
1.24507e-06
1.24507e-06
1.24507e-06
0.00124111
0.00124502
0.0012449
0.00124308
0.0012423
0.000990037
1.69721e-05
1.80417e-06
1.27593e-06
1.24938e-06
1.24801e-06
1.25044e-06
1.2505e-06
1.24062e-06
1.24042e-06
1.23881e-06
1.2388e-06
1.24602e-06
1.25429e-06
1.25182e-06
1.25177e-06
1.24553e-06
1.25398e-06
1.25197e-06
1.2516e-06
1.25055e-06
1.26405e-06
1.2504e-06
1.25607e-06
1.24385e-06
1.26431e-06
1.25043e-06
1.25596e-06
1.24283e-06
1.27271e-06
1.25099e-06
1.25418e-06
1.24635e-06
1.27431e-06
1.25079e-06
1.25353e-06
1.27423e-06
1.26538e-06
1.27255e-06
1.23915e-06
1.27424e-06
1.26525e-06
1.27274e-06
1.2386e-06
1.26592e-06
1.26475e-06
1.29578e-06
1.27772e-06
1.24395e-06
1.24185e-06
1.22172e-06
1.22164e-06
1.21715e-06
1.21424e-06
1.20607e-06
1.20796e-06
1.1985e-06
1.20161e-06
1.17145e-06
1.13816e-06
1.1952e-06
1.16779e-06
1.17923e-06
1.14121e-06
1.19447e-06
1.1671e-06
1.20915e-06
1.18872e-06
1.19236e-06
1.19108e-06
1.20281e-06
1.18716e-06
1.18994e-06
1.19156e-06
1.22804e-06
1.21317e-06
1.25807e-06
1.19349e-06
1.22917e-06
1.21854e-06
1.2573e-06
1.1926e-06
1.26082e-06
1.236e-06
1.11267e-06
1.24003e-06
1.26552e-06
1.14673e-06
1.26109e-06
1.23051e-06
1.09573e-06
1.23226e-06
1.25998e-06
1.14405e-06
1.26429e-06
1.26952e-06
1.29541e-06
1.27694e-06
1.26456e-06
1.269e-06
1.26219e-06
1.26894e-06
1.24418e-06
1.24497e-06
1.24506e-06
1.24507e-06
1.24507e-06
1.24507e-06
0.00124205
0.0012449
0.00124414
0.00124328
0.00124286
0.00113297
3.52162e-05
2.51126e-06
1.39618e-06
1.23641e-06
1.23652e-06
1.23524e-06
1.23539e-06
1.24925e-06
1.24834e-06
1.23757e-06
1.23719e-06
1.24002e-06
1.25609e-06
1.24443e-06
1.26294e-06
1.24008e-06
1.25571e-06
1.2446e-06
1.26282e-06
1.20605e-06
1.23651e-06
1.2419e-06
1.2386e-06
1.20364e-06
1.23635e-06
1.24158e-06
1.23841e-06
1.27734e-06
9.19158e-07
1.27687e-06
9.20876e-07
1.24394e-06
1.24202e-06
1.22596e-06
1.2268e-06
1.2271e-06
1.22738e-06
1.23649e-06
1.23585e-06
1.22974e-06
1.22708e-06
1.10994e-06
1.06943e-06
1.14263e-06
1.10665e-06
1.11478e-06
1.06988e-06
1.14797e-06
1.10703e-06
1.17492e-06
1.12337e-06
1.15956e-06
1.11776e-06
1.17719e-06
1.12513e-06
1.1652e-06
1.12e-06
1.18443e-06
1.14987e-06
1.20256e-06
1.17954e-06
1.1864e-06
1.15266e-06
1.20191e-06
1.17965e-06
1.23147e-06
1.22428e-06
1.21367e-06
1.20673e-06
1.2306e-06
1.22164e-06
1.20948e-06
1.20171e-06
1.24446e-06
1.2447e-06
1.24507e-06
1.24507e-06
1.24507e-06
1.24507e-06
0.00124313
0.00124467
0.00124463
0.00124403
0.00124203
0.00121993
9.53681e-05
5.34634e-06
1.41253e-06
1.41254e-06
1.94581e-06
1.94605e-06
1.22696e-06
1.22127e-06
1.23e-06
1.23015e-06
1.16797e-06
1.18456e-06
1.15529e-06
1.19486e-06
1.1646e-06
1.18563e-06
1.15506e-06
1.19492e-06
1.13308e-06
1.11307e-06
1.05615e-06
1.15348e-06
1.13316e-06
1.11505e-06
1.05643e-06
1.15362e-06
1.21577e-06
1.21097e-06
1.22027e-06
1.26331e-06
1.21647e-06
1.21025e-06
1.22055e-06
1.26667e-06
1.21169e-06
1.18769e-06
1.24784e-06
1.23337e-06
1.20932e-06
1.1875e-06
1.24788e-06
1.2328e-06
1.24331e-06
1.24197e-06
1.23691e-06
1.22728e-06
1.22785e-06
1.22532e-06
1.22686e-06
1.21837e-06
1.21855e-06
1.2108e-06
1.21117e-06
1.1271e-06
1.10362e-06
1.1726e-06
1.12244e-06
1.12159e-06
1.10353e-06
1.1722e-06
1.12144e-06
1.1781e-06
1.13093e-06
1.17505e-06
1.13827e-06
1.18141e-06
1.13408e-06
1.17831e-06
1.13977e-06
1.1322e-06
1.11256e-06
1.12926e-06
1.10959e-06
1.24442e-06
1.24373e-06
1.2444e-06
1.24507e-06
1.24507e-06
1.24507e-06
0.001245
0.00124441
0.00124384
0.00124241
0.00123195
0.00122857
0.000311904
1.62474e-05
1.50444e-06
1.50357e-06
2.69037e-06
2.6889e-06
1.09927e-06
1.05935e-06
1.05407e-06
1.13426e-06
1.07004e-06
1.05974e-06
1.05421e-06
1.13311e-06
1.20961e-06
1.2097e-06
1.02861e-06
1.00937e-06
9.34341e-07
1.10153e-06
1.02486e-06
1.0121e-06
9.33756e-07
1.10231e-06
1.07733e-06
1.12957e-06
1.05893e-06
1.12866e-06
1.07747e-06
1.13026e-06
1.05884e-06
1.12866e-06
1.04839e-06
7.92062e-07
1.04682e-06
7.89575e-07
1.24345e-06
1.24293e-06
1.24203e-06
1.20877e-06
1.20971e-06
1.19592e-06
1.19971e-06
1.2249e-06
1.22723e-06
1.20926e-06
1.21245e-06
1.08902e-06
1.13814e-06
1.09157e-06
1.14215e-06
1.08926e-06
1.13927e-06
1.08626e-06
1.14195e-06
1.09858e-06
1.1262e-06
1.0863e-06
1.13849e-06
1.09969e-06
1.12695e-06
1.08597e-06
1.13854e-06
1.13822e-06
1.10356e-06
1.18178e-06
1.12801e-06
1.13408e-06
1.10351e-06
1.18289e-06
1.12775e-06
1.15055e-06
1.1108e-06
1.15143e-06
1.11409e-06
1.15367e-06
1.11504e-06
1.15355e-06
1.11545e-06
1.24356e-06
1.24155e-06
1.24249e-06
1.24469e-06
1.24507e-06
0.001244
0.00124282
0.00124214
0.00124055
0.00122486
0.00113313
0.000765172
2.52845e-05
2.53474e-05
0.000961651
0.000989426
1.58715e-06
1.26234e-06
1.95752e-06
1.4902e-06
1.58839e-06
1.2591e-06
1.96425e-06
1.48905e-06
4.67231e-06
4.66718e-06
1.11504e-06
1.04292e-06
1.05064e-06
1.12055e-06
1.11576e-06
1.0429e-06
1.05065e-06
1.12069e-06
1.38973e-06
1.0979e-06
1.24242e-06
1.06709e-06
1.38872e-06
1.09728e-06
1.24106e-06
1.06717e-06
9.8893e-07
1.12311e-06
1.06e-06
1.02089e-06
9.92505e-07
1.13229e-06
1.06181e-06
1.0352e-06
1.24341e-06
1.24295e-06
1.24389e-06
1.23016e-06
1.18693e-06
1.18757e-06
1.19656e-06
1.19937e-06
1.20152e-06
1.20201e-06
1.13035e-06
1.08989e-06
1.07979e-06
1.09372e-06
1.13231e-06
1.08519e-06
1.08063e-06
1.09672e-06
1.09049e-06
1.17209e-06
1.1045e-06
1.16216e-06
1.09067e-06
1.17261e-06
1.10467e-06
1.16202e-06
1.08337e-06
1.12936e-06
1.07701e-06
1.14393e-06
1.08379e-06
1.13099e-06
1.07754e-06
1.14462e-06
1.11843e-06
1.08042e-06
1.12026e-06
1.08088e-06
1.24211e-06
1.23759e-06
1.24135e-06
1.24314e-06
0.00124229
0.00124206
0.00124081
0.00124185
0.000941244
0.00043918
0.000689676
0.000662595
0.000700551
0.0006873
3.86987e-05
3.85241e-05
8.71874e-05
8.43104e-05
1.83001e-06
1.26279e-06
2.55554e-06
1.71389e-06
1.83286e-06
1.25926e-06
2.5633e-06
1.71097e-06
6.0133e-06
1.77986e-05
1.14771e-05
8.50996e-06
6.00234e-06
1.78026e-05
1.14235e-05
8.50402e-06
1.16528e-06
1.09476e-06
1.0707e-06
1.15683e-06
1.16563e-06
1.09466e-06
1.0707e-06
1.15697e-06
1.40232e-06
1.10234e-06
1.2792e-06
1.0656e-06
1.40584e-06
1.10207e-06
1.28236e-06
1.06618e-06
1.2437e-06
1.24337e-06
1.244e-06
1.23238e-06
1.19271e-06
1.1923e-06
1.18791e-06
1.19372e-06
1.17124e-06
1.17244e-06
1.10843e-06
1.07582e-06
1.07029e-06
1.07254e-06
1.10931e-06
1.07677e-06
1.0729e-06
1.07387e-06
1.11682e-06
1.07673e-06
1.11189e-06
1.06851e-06
1.0949e-06
1.11306e-06
1.11825e-06
1.07763e-06
1.11347e-06
1.06972e-06
1.0938e-06
1.11412e-06
1.16812e-06
1.1158e-06
1.16887e-06
1.11674e-06
1.06147e-06
1.12695e-06
1.06761e-06
1.11807e-06
1.06155e-06
1.12375e-06
1.0681e-06
1.11757e-06
1.24014e-06
1.2415e-06
1.23514e-06
0.00124118
0.00124339
0.0012431
0.00104644
0.000257267
8.38015e-05
8.01624e-05
7.51228e-05
6.04266e-05
6.07788e-05
7.34374e-05
4.98468e-05
4.77898e-05
6.6739e-05
4.93725e-05
4.27494e-05
4.89645e-05
7.84637e-05
4.24946e-05
5.98018e-05
7.26144e-05
6.74225e-05
5.97429e-05
4.53999e-05
5.54837e-05
5.38668e-05
5.89997e-05
3.73024e-05
6.11407e-05
6.38684e-05
2.10321e-06
1.42248e-06
2.86178e-06
1.81445e-06
2.10618e-06
1.42988e-06
2.86277e-06
1.81156e-06
1.77374e-05
2.30279e-05
1.76991e-05
2.2926e-05
9.64664e-07
1.05836e-06
9.64612e-07
1.05802e-06
1.5518e-06
1.1135e-06
1.55795e-06
1.11234e-06
1.24501e-06
1.24359e-06
1.24399e-06
1.23964e-06
1.2049e-06
1.2058e-06
1.19627e-06
1.19664e-06
1.18955e-06
1.18274e-06
1.18738e-06
1.19421e-06
1.05205e-06
1.05308e-06
1.06422e-06
1.08416e-06
1.08329e-06
1.07074e-06
1.05269e-06
1.04862e-06
1.06594e-06
1.07887e-06
1.08453e-06
1.07252e-06
1.14442e-06
1.08487e-06
1.14735e-06
1.08866e-06
1.14365e-06
1.06776e-06
1.11682e-06
1.11851e-06
1.04273e-06
1.08751e-06
1.14648e-06
1.0721e-06
1.11954e-06
1.09499e-06
1.04414e-06
1.08892e-06
1.14361e-06
1.07896e-06
1.14455e-06
1.07978e-06
1.24252e-06
1.23164e-06
0.00124103
0.00124366
0.00121012
0.000415339
0.000102934
3.56749e-05
3.60556e-05
6.68123e-05
5.66377e-05
2.27941e-05
2.20208e-05
2.59586e-05
2.80949e-05
7.36327e-05
3.19822e-05
1.49483e-05
4.41463e-05
2.25496e-05
1.2079e-05
7.94017e-05
2.99023e-05
6.32873e-05
1.69966e-05
2.2545e-05
1.44969e-05
1.78167e-05
1.16168e-05
1.82005e-05
1.35947e-05
1.78939e-05
9.58683e-06
1.98297e-05
1.55951e-05
4.01752e-06
2.89955e-06
4.01703e-06
2.89959e-06
1.2449e-06
1.24486e-06
1.2442e-06
1.24241e-06
1.23072e-06
1.20752e-06
1.20172e-06
1.20308e-06
1.19605e-06
1.06513e-06
1.08448e-06
1.09491e-06
1.08626e-06
1.06915e-06
1.08515e-06
1.09638e-06
1.08765e-06
1.06604e-06
1.08051e-06
1.05823e-06
1.07983e-06
1.08052e-06
1.06421e-06
1.06925e-06
1.07924e-06
1.05885e-06
1.08223e-06
1.08205e-06
1.06584e-06
1.0384e-06
1.0769e-06
1.10067e-06
1.10739e-06
1.0405e-06
1.07943e-06
1.10286e-06
1.10948e-06
1.14182e-06
1.0892e-06
1.1418e-06
1.09078e-06
1.0437e-06
9.95482e-07
1.06512e-06
1.04178e-06
1.04568e-06
9.97561e-07
9.90511e-07
1.04218e-06
1.22298e-06
0.00123908
0.00124184
0.000964045
0.00025022
0.000149682
5.09906e-05
4.67243e-05
0.000180243
0.000137018
1.02242e-05
1.435e-05
8.20152e-06
1.73641e-05
1.50977e-05
1.44983e-05
7.61869e-06
1.79102e-05
2.40955e-05
2.65614e-05
1.24702e-05
8.19234e-06
1.13769e-05
7.23545e-06
1.28956e-05
7.27875e-06
1.19362e-05
8.08695e-06
1.23042e-06
1.24498e-06
1.24452e-06
1.2433e-06
1.23991e-06
1.19917e-06
1.19359e-06
1.17039e-06
1.17016e-06
1.19077e-06
1.1903e-06
1.17263e-06
1.17281e-06
1.07204e-06
1.08308e-06
1.11794e-06
1.09161e-06
1.07338e-06
1.08392e-06
1.11348e-06
1.09112e-06
1.06124e-06
1.07697e-06
1.0179e-06
1.01496e-06
1.08705e-06
1.04382e-06
1.06512e-06
1.03382e-06
1.01375e-06
1.01927e-06
1.06728e-06
1.04362e-06
9.63629e-07
1.03721e-06
9.64611e-07
1.03989e-06
0.00123601
0.00123398
0.000824779
0.00039001
0.000562666
0.000519311
0.00052487
0.000560071
0.000107743
0.000142847
0.000308428
0.000428679
1.64596e-05
1.421e-05
8.78186e-06
2.01694e-05
9.98732e-06
1.44615e-05
7.39763e-06
2.0088e-05
7.43972e-05
5.3881e-05
4.24621e-05
3.18416e-05
6.51045e-05
5.18977e-05
3.96197e-05
1.51757e-05
1.07749e-05
7.10454e-06
1.13083e-05
6.00606e-06
1.22759e-06
1.24478e-06
1.24323e-06
1.24305e-06
1.23685e-06
1.18351e-06
1.18229e-06
1.18704e-06
1.1872e-06
1.16597e-06
1.16664e-06
1.07151e-06
1.08197e-06
1.06514e-06
1.03991e-06
1.07176e-06
1.08053e-06
1.06568e-06
1.04104e-06
1.11869e-06
1.06097e-06
1.099e-06
1.04815e-06
1.11686e-06
1.07068e-06
1.09352e-06
1.06316e-06
0.00123523
0.00122689
0.00109889
0.00083124
0.000656952
0.000643845
0.000582634
0.000605269
9.37033e-05
9.36662e-05
8.2014e-05
0.000120028
7.10633e-05
0.000189791
9.12158e-05
4.64878e-05
0.000107195
0.000109467
5.43059e-05
0.000165279
0.000317455
0.000361971
1.94451e-05
1.75004e-05
1.16563e-05
2.66841e-05
1.26581e-05
1.84015e-05
1.23001e-05
2.70927e-05
6.79289e-05
7.08019e-05
7.24295e-05
5.23077e-05
1.22761e-06
1.24445e-06
1.24303e-06
1.23952e-06
1.21019e-06
1.20975e-06
1.19822e-06
1.19767e-06
1.19508e-06
1.19186e-06
1.2002e-06
1.19733e-06
1.08421e-06
1.06842e-06
1.10142e-06
1.06813e-06
1.06762e-06
1.06471e-06
1.05568e-06
1.07075e-06
1.08174e-06
1.06901e-06
1.06761e-06
1.06507e-06
1.11365e-06
1.05616e-06
1.11515e-06
1.05833e-06
1.11073e-06
1.05704e-06
1.11215e-06
1.06075e-06
0.00123681
0.0012383
0.00121872
0.000952486
0.00103071
0.00109603
0.00112529
0.000668107
0.000666381
0.000640742
0.00072518
9.54054e-05
8.80666e-05
0.000100627
0.000173454
0.000127159
0.000266294
9.41784e-05
5.14325e-05
7.72522e-05
0.000167079
7.43248e-05
0.000247617
0.00065565
0.000402313
0.000458139
0.000219507
0.000708262
0.000401998
0.000479687
0.00016166
1.245e-06
1.2444e-06
1.24291e-06
1.23358e-06
1.19179e-06
1.19302e-06
1.19686e-06
1.1994e-06
1.18188e-06
1.18192e-06
1.10467e-06
1.07144e-06
1.09703e-06
1.07789e-06
1.08556e-06
1.07923e-06
1.09713e-06
1.07789e-06
1.08573e-06
1.06987e-06
1.08927e-06
1.07228e-06
1.10323e-06
1.10233e-06
1.04932e-06
1.06225e-06
1.1062e-06
1.10415e-06
1.05109e-06
1.0643e-06
1.0393e-06
9.96803e-07
1.04318e-06
9.98216e-07
0.00123953
0.00124201
0.00115101
0.000996566
0.00103918
0.00105817
0.00109197
0.00080512
0.000487782
0.000465675
0.000705987
0.000472079
0.000724356
0.000722765
0.000305123
0.000574347
0.000717093
0.000477503
0.000811177
0.000752031
0.000866652
0.000260096
0.000440683
0.000115883
0.000366925
0.000683337
0.000356349
0.000575489
0.000184585
1.24492e-06
1.24437e-06
1.24307e-06
1.21133e-06
1.21128e-06
1.20971e-06
1.19907e-06
1.1942e-06
1.19348e-06
1.19824e-06
1.19862e-06
1.06002e-06
1.09837e-06
1.09218e-06
1.09837e-06
1.08254e-06
1.09232e-06
1.06422e-06
1.08244e-06
1.09257e-06
1.09973e-06
1.09389e-06
1.09896e-06
1.10849e-06
1.07989e-06
1.07514e-06
1.05918e-06
1.07793e-06
1.10633e-06
1.05954e-06
1.08045e-06
0.00124426
0.0012307
0.00120288
0.00103608
0.00105219
0.00106231
0.00109869
0.000813177
0.000490016
0.000486271
0.000834854
0.000426172
0.000794135
0.000725128
0.000281256
0.00063362
0.000822983
0.000488157
0.000891473
0.000988377
0.000892382
0.000898563
0.000813492
0.00103461
0.000934237
0.00098624
0.000889864
0.000797605
0.000472426
0.000700273
0.000282209
1.24489e-06
1.24438e-06
1.24152e-06
1.20695e-06
1.19758e-06
1.21799e-06
1.20842e-06
1.19039e-06
1.19134e-06
1.0891e-06
1.09682e-06
1.1058e-06
1.08779e-06
1.10499e-06
1.07375e-06
1.09045e-06
1.0977e-06
1.10653e-06
1.0891e-06
1.10512e-06
1.07541e-06
1.11116e-06
1.09899e-06
1.06259e-06
1.07232e-06
1.09898e-06
1.07384e-06
1.11434e-06
1.06425e-06
0.00123766
0.0012393
0.00121691
0.00113
0.00115724
0.00121632
0.00122199
0.00122218
0.00108021
0.00108021
0.00105027
0.00109909
0.00108953
0.00105452
0.000805779
0.000404701
0.000670714
0.000874025
0.000561081
0.000889073
0.000758174
0.000278103
0.000782947
0.000899189
0.000584672
0.000963888
0.00106281
0.000943057
0.00109957
0.00101826
1.24484e-06
1.2444e-06
1.23913e-06
1.19676e-06
1.19765e-06
1.20093e-06
1.2021e-06
1.08897e-06
1.09651e-06
1.10346e-06
1.09979e-06
1.10563e-06
1.10424e-06
1.09366e-06
1.10487e-06
1.10518e-06
1.09946e-06
1.10609e-06
1.10138e-06
1.13087e-06
1.10174e-06
1.1429e-06
1.11489e-06
1.13035e-06
1.10388e-06
1.1443e-06
1.11716e-06
1.09287e-06
1.0026e-06
1.09512e-06
1.0037e-06
0.00122979
0.00123891
0.00119673
0.00122077
0.00120334
0.00122068
0.00120879
0.00120872
0.00106062
0.00105266
0.00100169
0.00107719
0.00104671
0.00100028
0.00107568
0.00105384
0.00107788
0.00108324
0.001044
0.00108872
0.00108282
0.00106342
0.00109829
0.00107508
0.000902455
0.000962423
0.000943448
0.00103037
0.00112276
0.000963791
0.00115247
0.00104784
1.24478e-06
1.24343e-06
1.20789e-06
1.18904e-06
1.19223e-06
1.20849e-06
1.20169e-06
1.20099e-06
1.18543e-06
1.12165e-06
1.10972e-06
1.18653e-06
1.12271e-06
1.11199e-06
1.16346e-06
1.15075e-06
1.11468e-06
1.10685e-06
1.16461e-06
1.11794e-06
1.15138e-06
1.10848e-06
1.11077e-06
1.0754e-06
1.15661e-06
1.11602e-06
1.10544e-06
1.0766e-06
1.15932e-06
1.11746e-06
0.0012205
0.00122931
0.00120804
0.00108548
0.0011213
0.0012084
0.00120634
0.0011015
0.0011326
0.00120868
0.00120615
0.00120622
0.0010669
0.00115082
0.00106952
0.000958874
0.000983886
0.00103606
0.00109526
0.0010992
0.00115991
0.00103071
0.00102489
0.00108863
0.00101794
0.00104511
0.00102782
0.00107949
1.24369e-06
1.23865e-06
1.20095e-06
1.1896e-06
1.19133e-06
1.20125e-06
1.20156e-06
1.19979e-06
1.10172e-06
1.1236e-06
1.1174e-06
1.11862e-06
1.11927e-06
1.09871e-06
1.09202e-06
1.09745e-06
1.10375e-06
1.12398e-06
1.11905e-06
1.12113e-06
1.12091e-06
1.10047e-06
1.09446e-06
1.09975e-06
1.15353e-06
1.14746e-06
1.11673e-06
1.09711e-06
1.15347e-06
1.11802e-06
1.15033e-06
1.09989e-06
0.0012084
0.00120695
0.00120913
0.00120026
0.00121077
0.00119942
0.00119896
0.00110372
0.00111323
0.00111366
0.00112713
0.0011309
0.00111992
0.00110565
0.00112132
0.00121022
0.00111705
0.00111596
0.00111316
0.00111414
0.00111103
0.00112565
0.00112964
0.00112072
0.00111316
0.00112043
0.00120199
0.00112027
0.00111743
0.00109571
0.00111127
0.000967779
0.00107772
0.0011112
0.00111252
0.00100298
0.00109199
1.2372e-06
1.23703e-06
1.20028e-06
1.17921e-06
1.11089e-06
1.12285e-06
1.17972e-06
1.11149e-06
1.11943e-06
1.20075e-06
1.20194e-06
1.20286e-06
1.13482e-06
1.14411e-06
1.07073e-06
1.11324e-06
1.07024e-06
1.09816e-06
1.1287e-06
1.14329e-06
1.06813e-06
1.07696e-06
1.11504e-06
1.10422e-06
1.09471e-06
1.06684e-06
1.09258e-06
1.06802e-06
0.00120347
0.00120542
0.00121221
0.00121002
0.00121272
0.00121434
0.00121878
0.00100061
0.00111943
0.00112936
0.00101907
0.00116342
0.0011427
0.00111964
0.00110089
0.00111052
0.00111127
0.00111158
0.00111136
0.00111482
0.00110832
0.000997586
0.00111779