/*--------------------------------*- C++ -*----------------------------------*\
| =========                 |                                                 |
| \\      /  F ield         | OpenFOAM: The Open Source CFD Toolbox           |
|  \\    /   O peration     | Version:  5.x                                   |
|   \\  /    A nd           | Web:      www.OpenFOAM.org                      |
|    \\/     M anipulation  |                                                 |
\*---------------------------------------------------------------------------*/
FoamFile
{
    version     2.0;
    format      ascii;
    class       volVectorField;
    location    "1.4";
    object      U;
}
// * * * * * * * * * * * * * * * * * * * * * * * * * * * * * * * * * * * * * //

dimensions      [0 1 -1 0 0 0 0];

internalField   nonuniform List<vector> 
12160
(
(0.205011 0 0.000892625)
(0.205165 0 0.00296646)
(0.204981 0 -0.00216822)
(0.203696 0 0.0039851)
(0.20461 0 -0.0037889)
(0.203957 0 0.000140747)
(0.200519 0 0.00424609)
(0.203093 0 -0.0026466)
(0.203803 0 0.00246983)
(0.20315 0 -0.00249391)
(0.194269 0 0.00366469)
(0.199989 0 -0.000129885)
(0.202836 0 0.00571852)
(0.200819 0 -0.00524946)
(0.200906 0 0.00193387)
(0.190641 0 0.00296624)
(0.193759 0 0.000335238)
(0.200283 0 0.00856918)
(0.199754 0 -0.00201235)
(0.198472 0 0.00231587)
(0.19806 0 0.000818631)
(0.188086 0 0.00202501)
(0.190079 0 0.000175481)
(0.193974 0 0.00802592)
(0.19749 0 0.00345212)
(0.199312 0 0.00745101)
(0.190967 0 -0.00771559)
(0.194291 0 0.0108184)
(0.188202 0 0.00107479)
(0.187409 0 -0.00101406)
(0.189921 0 0.00634123)
(0.19173 0 0.00445269)
(0.197777 0 0.0124099)
(0.191749 0 -0.00221725)
(0.187385 0 0.00263192)
(0.188555 0 0.0105019)
(0.190785 0 0.000258513)
(0.187583 0 -0.00213322)
(0.186848 0 0.00340095)
(0.18765 0 0.00344586)
(0.192382 0 0.0126994)
(0.192007 0 0.00577181)
(0.192657 0 0.00841893)
(0.16644 0 -0.0112461)
(0.117809 0 0.034697)
(0.195007 0 -0.000103378)
(0.190437 0 -0.00355612)
(0.187281 0 0.000171939)
(0.184395 0 5.42468e-05)
(0.187927 0 0.0102887)
(0.188051 0 0.00839876)
(0.193619 0 0.0137809)
(0.172732 0 -0.00477566)
(0.112164 0 0.00586532)
(-0.27016 0 -0.0889922)
(0.199327 0 -3.14778e-05)
(0.194996 0 -0.00419349)
(0.190067 0 -0.0028827)
(0.184951 0 -0.00383008)
(0.18351 0 0.00522832)
(0.184409 0 0.00752773)
(0.189412 0 0.0158925)
(0.182152 0 0.00628898)
(0.142079 0 0.00468946)
(-0.152798 0 -0.0254274)
(-0.140878 0 0.177327)
(0.202137 0 0.00042324)
(0.199677 0 -0.00373499)
(0.195054 0 -0.00432063)
(0.188389 0 -0.00774925)
(0.183632 0 -0.000681925)
(0.179403 0 0.00192558)
(0.183675 0 0.0149362)
(0.183891 0 0.0130313)
(0.183304 0 0.00927497)
(-0.143596 0 -0.0326033)
(0.152898 0 -0.0372853)
(0.0138712 0 -0.0637715)
(0.202109 0 0.000925345)
(0.202715 0 -0.00209056)
(0.200431 0 -0.00373114)
(0.194549 0 -0.009797)
(0.187271 0 -0.0065315)
(0.179446 0 -0.00604241)
(0.17626 0 0.00826154)
(0.181895 0 0.0146168)
(0.198883 0 0.015492)
(0.00559129 0 -0.0190902)
(-0.0927954 0 -0.0564994)
(0.0762745 0 -0.0290807)
(-0.018415 0 0.106524)
(0.198126 0 0.00176267)
(0.202787 0 0.000695744)
(0.204398 0 -0.00109128)
(0.201156 0 -0.00896409)
(0.194518 0 -0.00973644)
(0.184192 0 -0.0138502)
(0.175656 0 -0.00142126)
(0.174969 0 0.00605778)
(0.210179 0 0.0180087)
(0.0917903 0 0.00179334)
(-0.067447 0 -0.0822993)
(0.0326051 0 0.0399014)
(-0.0434818 0 -0.0538451)
(0.0751821 0 -0.00686102)
(0.189772 0 0.00277309)
(0.198969 0 0.00401925)
(0.20507 0 0.00301941)
(0.205922 0 -0.00507907)
(0.202696 0 -0.0088374)
(0.193459 0 -0.0183467)
(0.180983 0 -0.0113688)
(0.174769 0 -0.00839542)
(0.211587 0 0.010413)
(0.149654 0 0.0117453)
(-0.0755947 0 -0.0471824)
(0.030199 0 -0.0350099)
(0.00106057 0 -0.0327239)
(0.0470361 0 -0.0298117)
(-0.0273453 0 0.032472)
(0.177547 0 0.00374616)
(0.190818 0 0.00736573)
(0.201306 0 0.00815493)
(0.20723 0 0.00130702)
(0.209341 0 -0.00371837)
(0.203967 0 -0.0174013)
(0.192192 0 -0.0176433)
(0.180935 0 -0.0230988)
(0.218739 0 -0.0051389)
(0.183641 0 0.00373807)
(-0.0133945 0 -0.0192872)
(0.0202399 0 -0.034155)
(0.018231 0 -0.0619671)
(0.0136582 0 0.00960819)
(-0.0404915 0 -0.0371121)
(0.161793 0 0.00462446)
(0.178557 0 0.0104932)
(0.193065 0 0.0135968)
(0.20414 0 0.00894631)
(0.21191 0 0.00461901)
(0.212366 0 -0.0107998)
(0.205548 0 -0.0169784)
(0.193796 0 -0.0322252)
(0.231542 0 -0.0208308)
(0.226449 0 -0.0164069)
(0.048419 0 -0.0192717)
(0.0458143 0 -0.0417584)
(-0.000592129 0 -0.0409578)
(0.00302285 0 -0.0437855)
(-0.00203092 0 -0.0103599)
(0.143173 0 0.0053571)
(0.162692 0 0.0132711)
(0.180615 0 0.0187494)
(0.196125 0 0.0168104)
(0.208999 0 0.0147088)
(0.216227 0 6.92095e-05)
(0.21701 0 -0.00894559)
(0.209287 0 -0.0318222)
(0.249584 0 -0.0293873)
(0.279885 0 -0.0371482)
(0.119354 0 -0.0441689)
(0.0704148 0 -0.0529354)
(0.00955299 0 -0.0401673)
(-0.00353646 0 -0.0384278)
(0.00494169 0 -0.0478132)
(0.122369 0 0.00593311)
(0.143924 0 0.0155924)
(0.164481 0 0.0232962)
(0.183507 0 0.0242395)
(0.200799 0 0.0251938)
(0.214362 0 0.0131053)
(0.222874 0 0.00491333)
(0.222558 0 -0.0214626)
(0.267764 0 -0.0279029)
(0.344628 0 -0.0503461)
(0.202294 0 -0.0715443)
(0.0926948 0 -0.0799286)
(0.017888 0 -0.0470573)
(0.00311703 0 -0.0485467)
(0.00164292 0 -0.0377734)
(0.100013 0 0.00636608)
(0.122969 0 0.0174413)
(0.145403 0 0.0270615)
(0.16701 0 0.030776)
(0.187791 0 0.0350196)
(0.206383 0 0.0262053)
(0.221298 0 0.0201956)
(0.229419 0 -0.00396973)
(0.281766 0 -0.0161008)
(0.411553 0 -0.0490984)
(0.296621 0 -0.0910959)
(0.106143 0 -0.108933)
(0.0278236 0 -0.0679361)
(0.00662266 0 -0.0577228)
(0.00257699 0 -0.0472521)
(0.0766356 0 0.00668432)
(0.100472 0 0.0188562)
(0.124139 0 0.0300273)
(0.147485 0 0.0361705)
(0.170715 0 0.0435786)
(0.192938 0 0.0383748)
(0.212955 0 0.0364789)
(0.228908 0 0.0170187)
(0.289361 0 0.00341187)
(0.463045 0 -0.0337763)
(0.396406 0 -0.0863513)
(0.11568 0 -0.132621)
(0.0278994 0 -0.0900628)
(0.0110613 0 -0.0791129)
(0.0032341 0 -0.0558208)
(0.0526636 0 0.0069163)
(0.0769718 0 0.0198983)
(0.101364 0 0.0322689)
(0.125774 0 0.04041)
(0.150526 0 0.0505544)
(0.175095 0 0.0488515)
(0.198906 0 0.0518644)
(0.22124 0 0.0382388)
(0.28885 0 0.0278724)
(0.485646 0 -0.00835116)
(0.485024 0 -0.0548182)
(0.124205 0 -0.137759)
(0.019691 0 -0.104524)
(0.0087784 0 -0.100004)
(0.00398764 0 -0.0754641)
(0.0284252 0 0.00707593)
(0.052898 0 0.0206329)
(0.0776286 0 0.0339056)
(0.102597 0 0.0436097)
(0.128164 0 0.0559686)
(0.154028 0 0.0572339)
(0.180131 0 0.0652324)
(0.206644 0 0.0567848)
(0.280145 0 0.0510449)
(0.4866 0 0.020827)
(0.544759 0 -0.00939603)
(0.138489 0 -0.110768)
(0.00256823 0 -0.101095)
(0.00179112 0 -0.113412)
(0.00289594 0 -0.0941269)
(0.00418215 0 0.00717194)
(0.028576 0 0.0211239)
(0.053362 0 0.0350605)
(0.0785261 0 0.0459407)
(0.104407 0 0.0600064)
(0.130838 0 0.0636139)
(0.157999 0 0.0758122)
(0.186701 0 0.0714814)
(0.264621 0 0.0707273)
(0.474761 0 0.0500203)
(0.565603 0 0.0274712)
(0.159258 0 -0.0508865)
(-0.016906 0 -0.0756864)
(-0.010223 0 -0.109596)
(-0.000165568 0 -0.105407)
(-0.0198665 0 0.0072105)
(0.00426079 0 0.0214164)
(0.0288786 0 0.0358375)
(0.0539901 0 0.0475785)
(0.0798482 0 0.0629168)
(0.106374 0 0.0682703)
(0.133815 0 0.0838378)
(0.163199 0 0.0824426)
(0.243828 0 0.0859662)
(0.453284 0 0.0753699)
(0.554373 0 0.0604301)
(0.17402 0 0.015379)
(-0.0299401 0 -0.0314631)
(-0.0225584 0 -0.0824605)
(-0.00479862 0 -0.100192)
(-0.0435273 0 0.0071895)
(-0.0198588 0 0.0215322)
(0.0044211 0 0.0363079)
(0.0292924 0 0.0486747)
(0.0549155 0 0.0649485)
(0.0812522 0 0.0715509)
(0.108513 0 0.089733)
(0.137828 0 0.0901628)
(0.219084 0 0.0978359)
(0.424234 0 0.0950528)
(0.518 0 0.0914567)
(0.169576 0 0.0746664)
(-0.0308447 0 0.0227652)
(-0.0305593 0 -0.0361398)
(-0.0096324 0 -0.0745551)
(-0.0665945 0 0.00710254)
(-0.0435992 0 0.0214652)
(-0.0198396 0 0.0365096)
(0.00465429 0 0.0493348)
(0.0298935 0 0.0663118)
(0.0558949 0 0.0737962)
(0.0827429 0 0.0939412)
(0.111552 0 0.0953341)
(0.191079 0 0.106684)
(0.388249 0 0.110672)
(0.465259 0 0.118799)
(0.150912 0 0.123284)
(-0.0258709 0 0.0766899)
(-0.0329572 0 0.0185564)
(-0.013374 0 -0.0314602)
(-0.0888611 0 0.00694472)
(-0.0667623 0 0.0211943)
(-0.0437382 0 0.0364309)
(-0.0197843 0 0.0496165)
(0.00497593 0 0.0671528)
(0.0305575 0 0.0752884)
(0.0569131 0 0.0968566)
(0.0849863 0 0.0986732)
(0.160117 0 0.112992)
(0.344243 0 0.12298)
(0.404566 0 0.142081)
(0.124999 0 0.157285)
(-0.0198871 0 0.121483)
(-0.0307906 0 0.0712186)
(-0.0144709 0 0.0196375)
(-0.110084 0 0.00670989)
(-0.0891471 0 0.0206809)
(-0.0670881 0 0.0360335)
(-0.0438888 0 0.0495013)
(-0.0197388 0 0.0675566)
(0.00539573 0 0.0762217)
(0.0312376 0 0.0988066)
(0.0585056 0 0.100793)
(0.126353 0 0.117318)
(0.291671 0 0.132651)
(0.339748 0 0.161848)
(0.0965803 0 0.182636)
(-0.0145069 0 0.153999)
(-0.0250868 0 0.115535)
(-0.0130343 0 0.069871)
(-0.129992 0 0.00637594)
(-0.11051 0 0.0198799)
(-0.0896953 0 0.0352572)
(-0.0674939 0 0.0489347)
(-0.0441558 0 0.0674941)
(-0.0195536 0 0.0767164)
(0.00582884 0 0.100021)
(0.0322972 0 0.102164)
(0.0899951 0 0.120208)
(0.230844 0 0.140456)
(0.271729 0 0.18043)
(0.0691519 0 0.201657)
(-0.01073 0 0.176775)
(-0.0188373 0 0.149026)
(-0.0105107 0 0.112922)
(-0.148298 0 0.00592521)
(-0.130576 0 0.0187594)
(-0.111323 0 0.034031)
(-0.09042 0 0.0478275)
(-0.0681357 0 0.0668813)
(-0.0442622 0 0.0767259)
(-0.0193554 0 0.100663)
(0.00646396 0 0.103121)
(0.0515324 0 0.122152)
(0.16346 0 0.146674)
(0.203179 0 0.195472)
(0.0466971 0 0.214312)
(-0.00806007 0 0.192699)
(-0.0135816 0 0.17345)
(-0.00771059 0 0.146343)
(-0.164704 0 0.00535152)
(-0.149052 0 0.017293)
(-0.131696 0 0.0322833)
(-0.112432 0 0.0460761)
(-0.0915191 0 0.065592)
(-0.0686301 0 0.0761364)
(-0.0443644 0 0.100672)
(-0.0191173 0 0.104012)
(0.0119271 0 0.123444)
(0.0922687 0 0.150935)
(0.137295 0 0.2061)
(0.0301892 0 0.221609)
(-0.00600906 0 0.203983)
(-0.00953925 0 0.190938)
(-0.00533524 0 0.171153)
(-0.178924 0 0.00465861)
(-0.165632 0 0.0154659)
(-0.150512 0 0.0299559)
(-0.133251 0 0.0435817)
(-0.114079 0 0.0634795)
(-0.092524 0 0.0747757)
(-0.0691427 0 0.0999117)
(-0.044632 0 0.104652)
(-0.0275804 0 0.124334)
(0.0205796 0 0.15291)
(0.0754323 0 0.214045)
(0.0179699 0 0.225203)
(-0.00441729 0 0.211807)
(-0.00654894 0 0.203288)
(-0.003571 0 0.189109)
(-0.19071 0 0.00386182)
(-0.180021 0 0.0132852)
(-0.16745 0 0.0270189)
(-0.152561 0 0.0402632)
(-0.135532 0 0.0604006)
(-0.115728 0 0.0724422)
(-0.0935965 0 0.098182)
(-0.0700278 0 0.104759)
(-0.0658203 0 0.124712)
(-0.0512953 0 0.153949)
(0.0115347 0 0.219692)
(0.00848861 0 0.226322)
(-0.00341064 0 0.216971)
(-0.00441221 0 0.21178)
(-0.00236008 0 0.201872)
(-0.199868 0 0.0029882)
(-0.191956 0 0.0107843)
(-0.182197 0 0.0234819)
(-0.170021 0 0.0360756)
(-0.155546 0 0.0562354)
(-0.137956 0 0.0689373)
(-0.117529 0 0.0952543)
(-0.0952209 0 0.104039)
(-0.101773 0 0.124409)
(-0.119843 0 0.153418)
(-0.0395335 0 0.219508)
(-1.7857e-06 0 0.224664)
(-0.00296062 0 0.220513)
(-0.00310582 0 0.217273)
(-0.00152757 0 0.210693)
(-0.206309 0 0.00206987)
(-0.20122 0 0.00801709)
(-0.19447 0 0.0193972)
(-0.185282 0 0.0310271)
(-0.173755 0 0.0509075)
(-0.15886 0 0.064091)
(-0.140652 0 0.0908952)
(-0.120032 0 0.102123)
(-0.134994 0 0.123097)
(-0.184321 0 0.150769)
(-0.104199 0 0.214575)
(-0.00945111 0 0.227603)
(-0.00264552 0 0.222147)
(-0.00245606 0 0.220996)
(-0.00108623 0 0.216513)
(-0.209999 0 0.00115636)
(-0.207658 0 0.00504443)
(-0.204048 0 0.0148583)
(-0.198019 0 0.0251892)
(-0.189765 0 0.0444074)
(-0.178037 0 0.0577811)
(-0.162597 0 0.0848824)
(-0.144196 0 0.0986162)
(-0.16544 0 0.12045)
(-0.243273 0 0.146654)
(-0.164659 0 0.208234)
(-0.0189291 0 0.232756)
(-0.00327363 0 0.223713)
(-0.00205808 0 0.223569)
(-0.000936674 0 0.220407)
(-0.210783 0 0.000408003)
(-0.21121 0 0.00191342)
(-0.210808 0 0.00998935)
(-0.207959 0 0.0186969)
(-0.203203 0 0.0368209)
(-0.195032 0 0.0499605)
(-0.182921 0 0.0770327)
(-0.167361 0 0.0931273)
(-0.19323 0 0.116173)
(-0.295301 0 0.141205)
(-0.227569 0 0.199346)
(-0.0299916 0 0.234087)
(-0.00272048 0 0.224782)
(-0.00201618 0 0.2252)
(-0.000978194 0 0.222919)
(-0.209112 0 -0.000554284)
(-0.212076 0 -0.0013072)
(-0.214709 0 0.00495836)
(-0.214883 0 0.0117203)
(-0.213772 0 0.0283289)
(-0.209376 0 0.0407168)
(-0.201089 0 0.0672396)
(-0.189077 0 0.0853243)
(-0.218497 0 0.109996)
(-0.340041 0 0.13416)
(-0.290181 0 0.187113)
(-0.044787 0 0.233189)
(-0.00233379 0 0.22405)
(-0.00151268 0 0.225581)
(-0.000973899 0 0.224433)
(-0.204905 0 -0.0015631)
(-0.210366 0 -0.00432374)
(-0.215478 0 -6.69079e-07)
(-0.218631 0 0.00442979)
(-0.221298 0 0.0191458)
(-0.220686 0 0.0302944)
(-0.216518 0 0.0556207)
(-0.208707 0 0.074983)
(-0.241288 0 0.101704)
(-0.377976 0 0.125311)
(-0.350805 0 0.174032)
(-0.0640636 0 0.228558)
(-0.00160899 0 0.221953)
(-0.000724639 0 0.224718)
(-0.000851889 0 0.224812)
(-0.206121 0 -0.00734867)
(-0.192728 0 -0.00298644)
(-0.213365 0 -0.00498172)
(-0.219576 0 -0.00303735)
(-0.225745 0 0.00955146)
(-0.228652 0 0.0189688)
(-0.228771 0 0.04269)
(-0.225379 0 0.0620277)
(-0.2615 0 0.0911568)
(-0.409949 0 0.114265)
(-0.409256 0 0.159236)
(-0.0885679 0 0.219219)
(-0.000604202 0 0.217724)
(0.000666259 0 0.222214)
(-0.000639104 0 0.223788)
(-0.208797 0 -0.00979133)
(-0.194105 0 -0.0117804)
(-0.168913 0 -0.00473822)
(-0.217797 0 -0.0102546)
(-0.226642 0 1.93827e-05)
(-0.232906 0 0.00705272)
(-0.237612 0 0.0288206)
(-0.238531 0 0.0465705)
(-0.278863 0 0.0782055)
(-0.436874 0 0.100622)
(-0.464367 0 0.142461)
(-0.116408 0 0.206053)
(0.000576934 0 0.211263)
(0.00276593 0 0.217269)
(-0.000197834 0 0.221005)
(-0.213051 0 -0.01708)
(-0.196534 0 -0.0171776)
(-0.170113 0 -0.0165052)
(-0.137164 0 -0.00627798)
(-0.224212 0 -0.00937811)
(-0.233942 0 -0.00530936)
(-0.243091 0 0.0145705)
(-0.247782 0 0.028953)
(-0.293046 0 0.0624)
(-0.459806 0 0.0842063)
(-0.515137 0 0.123451)
(-0.145752 0 0.188994)
(0.00207049 0 0.201744)
(0.00554174 0 0.20945)
(0.000572831 0 0.215748)
(-0.219037 0 -0.0182245)
(-0.200324 0 -0.0274071)
(-0.17213 0 -0.0252484)
(-0.139152 0 -0.0202043)
(-0.107664 0 -0.00891453)
(-0.231826 0 -0.0173285)
(-0.244346 0 0.00030775)
(-0.252714 0 0.0101855)
(-0.303534 0 0.0438728)
(-0.4792 0 0.0643616)
(-0.560844 0 0.10233)
(-0.174976 0 0.167436)
(0.00427905 0 0.188191)
(0.00912217 0 0.198087)
(0.00169943 0 0.207474)
(-0.226137 0 -0.0285451)
(-0.205545 0 -0.0315462)
(-0.175346 0 -0.038616)
(-0.140803 0 -0.0309506)
(-0.11122 0 -0.0260215)
(-0.0501415 0 -0.0119827)
(-0.241313 0 -0.0141592)
(-0.254354 0 -0.00837212)
(-0.309862 0 0.0235521)
(-0.494198 0 0.041047)
(-0.598515 0 0.0798026)
(-0.201339 0 0.141504)
(0.00786952 0 0.169493)
(0.0136917 0 0.182375)
(0.00327136 0 0.1955)
(-0.23475 0 -0.0275542)
(-0.211606 0 -0.0450122)
(-0.179212 0 -0.0460416)
(-0.144279 0 -0.0459701)
(-0.112428 0 -0.0384903)
(-0.0619747 0 -0.0322908)
(-0.0200559 0 -0.0260268)
(-0.252273 0 -0.0268114)
(-0.311753 0 0.00259414)
(-0.503617 0 0.0158161)
(-0.621371 0 0.0540566)
(-0.221777 0 0.107725)
(0.0135806 0 0.144047)
(0.0194395 0 0.161221)
(0.00536939 0 0.179071)
(-0.245402 0 -0.0440762)
(-0.218876 0 -0.0467504)
(-0.183383 0 -0.0629014)
(-0.147168 0 -0.0544405)
(-0.11683 0 -0.0537409)
(-0.0699564 0 -0.0461659)
(-0.0436709 0 -0.0643589)
(0.124448 0 -0.0251364)
(-0.309291 0 -0.0165447)
(-0.505709 0 -0.00953484)
(-0.623683 0 0.0261926)
(-0.233058 0 0.0588757)
(0.0215272 0 0.109599)
(0.0263405 0 0.133368)
(0.00803691 0 0.157234)
(-0.302835 0 -0.0344086)
(-0.229704 0 -0.0675078)
(-0.188427 0 -0.0677353)
(-0.149367 0 -0.0719163)
(-0.119301 0 -0.0606846)
(-0.0845625 0 -0.0608874)
(-0.0610575 0 -0.0893702)
(0.0695603 0 -0.0847845)
(0.187929 0 -0.0669832)
(-0.497994 0 -0.0345785)
(-0.604937 0 -0.00486068)
(-0.23138 0 0.00204208)
(0.0302194 0 0.0646084)
(0.0337053 0 0.0975998)
(0.0112094 0 0.12908)
(-0.478018 0 -0.0581203)
(-0.288094 0 -0.0567274)
(-0.200454 0 -0.0936077)
(-0.151852 0 -0.0770201)
(-0.120209 0 -0.0756472)
(-0.0933746 0 -0.0658798)
(-0.0816274 0 -0.0989022)
(0.00446146 0 -0.110362)
(0.116746 0 -0.126452)
(0.412216 0 -0.0162165)
(-0.569886 0 -0.0408601)
(-0.215275 0 -0.058065)
(0.0364012 0 0.0134533)
(0.039698 0 0.0537808)
(0.0145492 0 0.0939606)
(-0.527841 0 -0.0752334)
(-0.430419 0 -0.08658)
(-0.260972 0 -0.0842737)
(-0.166377 0 -0.103557)
(-0.121448 0 -0.0787225)
(-0.097779 0 -0.077223)
(-0.0904379 0 -0.0933325)
(-0.0632186 0 -0.124733)
(0.00490989 0 -0.191004)
(0.272704 0 -0.088799)
(0.34562 0 0.0681118)
(-0.189263 0 -0.101445)
(0.0353557 0 -0.0367775)
(0.0423478 0 0.0049028)
(0.0176397 0 0.0523922)
(-0.163071 0 -0.130581)
(-0.454737 0 -0.123356)
(-0.322913 0 -0.124494)
(-0.213854 0 -0.0951692)
(-0.136808 0 -0.101977)
(-0.101315 0 -0.0764792)
(-0.0972067 0 -0.0909595)
(-0.0997198 0 -0.110818)
(-0.0876026 0 -0.192011)
(0.118068 0 -0.134605)
(0.305441 0 0.110231)
(0.215383 0 0.91685)
(0.0305482 0 -0.0783708)
(0.0420515 0 -0.0436154)
(0.0193493 0 0.00681498)
(0.0235593 0 -0.112867)
(-0.119194 0 -0.196861)
(-0.297769 0 -0.186033)
(-0.175778 0 -0.1469)
(-0.164502 0 -0.0954731)
(-0.114162 0 -0.0931689)
(-0.101232 0 -0.079707)
(-0.113381 0 -0.0993172)
(-0.142874 0 -0.160422)
(-0.0905875 0 -0.14336)
(0.0977768 0 0.144455)
(0.21033 0 0.882946)
(0.40998 6.27085e-28 1.17185)
(0.123104 0 1.17584)
(0.0388559 0 -0.0848236)
(0.0187864 0 -0.03853)
(0.0355535 0 -0.121312)
(0.0194381 0 -0.160362)
(-0.082528 0 -0.23679)
(-0.150226 0 -0.20796)
(-0.0431101 0 -0.146718)
(-0.124148 0 -0.0879863)
(-0.108585 0 -0.0856871)
(-0.118729 0 -0.076434)
(-0.166304 0 -0.126376)
(-0.198959 0 -0.116304)
(-0.139753 0 0.0942281)
(0.143017 0 0.86314)
(0.411316 6.02209e-28 1.07998)
(0.469194 -3.08283e-30 1.21608)
(0.260169 9.95715e-28 1.28736)
(0.0671982 0 1.26448)
(0.016824 0 -0.0797202)
(0.014706 0 -0.115049)
(0.0287562 0 -0.168826)
(0.000962949 0 -0.199054)
(-0.0775426 0 -0.228432)
(-0.0835249 0 -0.182996)
(0.0441771 0 -0.126991)
(-0.0989227 0 -0.0760041)
(-0.119654 0 -0.0749241)
(-0.167171 0 -0.082773)
(-0.24139 0 -0.0989203)
(-0.259805 0 0.0626274)
(0.0494039 0 0.755702)
(0.318162 0 0.979268)
(0.516133 0 1.09135)
(0.653375 1.87393e-26 1.27348)
(0.386005 -2.73605e-30 1.36249)
(0.207115 8.33257e-28 1.36804)
(0.0529816 0 1.38193)
(0.0107864 0 -0.161788)
(0.0137299 0 -0.20964)
(-0.0187133 0 -0.203908)
(-0.0824934 0 -0.194638)
(-0.0506076 0 -0.141854)
(0.0973459 0 -0.100255)
(-0.0913437 0 -0.0583437)
(-0.149242 0 -0.0750271)
(-0.219031 0 -0.0511969)
(-0.272906 0 0.0628826)
(-0.119622 0 0.621026)
(0.156703 0 0.807797)
(0.451621 0 0.963985)
(0.653421 5.42085e-26 1.06689)
(0.888026 -6.82113e-30 1.35513)
(0.563033 1.50065e-26 1.45641)
(0.301989 0 1.46533)
(0.115126 0 1.44261)
(0.0225094 0 1.42913)
(0.0052523 0 -0.199276)
(-0.00228262 0 -0.211374)
(-0.0286458 0 -0.180626)
(-0.0772793 0 -0.156738)
(-0.0263646 0 -0.10974)
(0.141426 0 -0.0731136)
(-0.104419 0 -0.0522488)
(-0.162604 0 -0.0661928)
(-0.224566 0 0.0593574)
(-0.230497 0 0.425018)
(0.0628492 0 0.677495)
(0.363577 -5.60324e-27 0.774738)
(0.674787 3.28334e-26 0.910609)
(0.959275 0 1.09874)
(1.07041 4.00946e-25 1.35853)
(0.715635 -4.73578e-30 1.53139)
(0.383977 2.16565e-26 1.56328)
(0.177328 0 1.51659)
(0.0704018 0 1.47085)
(0.0110381 0 1.45434)
(-0.00155216 0 -0.203006)
(-0.0123308 0 -0.188645)
(-0.0284502 0 -0.152116)
(-0.0623436 0 -0.128996)
(-0.00415769 0 -0.102808)
(0.194666 0 -0.0608811)
(-0.102839 0 -0.0496396)
(-0.16546 0 -0.0104738)
(-0.123053 0 0.275921)
(0.104951 0 0.412672)
(0.318384 -7.64009e-27 0.575926)
(0.560058 0 0.717336)
(0.861853 -1.6502e-25 0.88029)
(1.16256 -6.19032e-25 1.06014)
(1.31846 6.51901e-10 1.18634)
(0.794234 0 1.43703)
(0.437135 0 1.5242)
(0.216214 -3.61737e-27 1.5613)
(0.0950386 2.264e-27 1.53667)
(0.0194277 0 1.48599)
(-0.0077606 0 1.45644)
(-0.00531247 0 -0.182928)
(-0.0148408 0 -0.160405)
(-0.023003 0 -0.127951)
(-0.0459408 0 -0.111087)
(0.0177351 0 -0.0919524)
(0.242455 0 -0.0745157)
(-0.0996329 0 -0.0575905)
(0.000922499 0 0.0817883)
(0.158907 0 0.18629)
(0.327018 -1.52555e-42 0.365877)
(0.487265 0 0.511702)
(0.826953 2.57938e-25 0.652291)
(1.17305 -2.01522e-24 0.829687)
(1.43184 -9.34559e-10 0.974985)
(1.37811 5.71219e-09 0.985258)
(0.83832 -2.16231e-10 1.31913)
(1.37856 8.43675e-10 0.984428)
(1.42589 5.51968e-09 0.961454)
(1.43032 5.3411e-10 0.970371)
(0.37849 9.10484e-25 1.44336)
(0.200901 3.4462e-25 1.53093)
(0.0829634 -1.56326e-26 1.57059)
(0.020774 1.02663e-26 1.52944)
(-0.0123471 0 1.48363)
(-0.0137319 0 1.4314)
(-0.00651903 0 -0.157141)
(-0.0134559 0 -0.135616)
(-0.0173553 0 -0.111498)
(-0.0297667 0 -0.0974181)
(0.0243751 0 -0.113315)
(0.310711 0 -0.107546)
(0.0414624 0 -0.0383899)
(0.192487 0 0.0376702)
(0.298435 -1.567e-42 0.207811)
(0.493026 0 0.35716)
(0.700598 0 0.411501)
(1.04915 9.4471e-25 0.660986)
(1.311 -1.00048e-24 0.68231)
(1.75224 -7.72843e-10 0.67828)
(1.03328 6.68576e-09 1.07485)
(1.46198 1.19861e-08 0.780803)
(0.416996 -2.51607e-09 1.28191)
(1.03165 1.19416e-09 1.07119)
(0.889798 6.15903e-09 1.16005)
(0.88786 9.72505e-10 1.15448)
(1.44674 3.03935e-10 0.775387)
(1.62666 9.30999e-09 0.705191)
(1.61605 6.09936e-11 0.703025)
(0.0907746 2.38853e-24 1.30521)
(0.0276081 -5.61761e-25 1.40674)
(-0.0104567 0 1.51284)
(-0.0399818 7.85247e-27 1.5097)
(-0.0629194 0 1.45028)
(-0.0335182 0 1.38874)
(-0.00619139 0 -0.134007)
(-0.0108908 0 -0.117421)
(-0.0133897 0 -0.0991545)
(-0.0193133 0 -0.093086)
(0.0095431 0 -0.122161)
(0.346729 0 -0.184205)
(0.217585 0 -0.021437)
(0.266713 9.88059e-28 0.0567751)
(0.499134 3.52868e-28 0.258847)
(0.63589 8.91476e-26 0.191559)
(1.00357 0 0.456676)
(1.27442 -1.94285e-24 0.440741)
(1.64939 -4.75252e-09 0.456411)
(1.82043 -5.52858e-09 0.337014)
(1.80546 9.092e-09 0.339084)
(1.81308 1.05849e-09 0.339366)
(1.81143 7.97103e-10 0.337459)
(1.1976 1.52114e-08 0.945963)
(1.61195 1.3297e-08 0.588957)
(-0.107968 2.13004e-24 1.16264)
(0.207854 3.18186e-13 1.12612)
(1.18405 1.27503e-09 0.931538)
(0.866768 1.57003e-08 1.02761)
(0.864377 1.15915e-09 1.02571)
(1.60581 3.7842e-11 0.582325)
(1.69501 1.00921e-08 0.425262)
(1.68408 -2.6126e-09 0.431308)
(-0.135341 1.96191e-25 1.13627)
(-0.106459 0 1.3518)
(-0.0980337 0 1.47257)
(-0.10851 1.00036e-26 1.45492)
(-0.0924459 0 1.4043)
(-0.0449995 0 1.32167)
(-0.00535224 0 -0.116378)
(-0.0087692 0 -0.103329)
(-0.011759 0 -0.0955933)
(-0.0311532 0 -0.0961898)
(-0.0186656 0 -0.0955691)
(0.366926 0 -0.155597)
(0.301538 0 -0.0186628)
(0.432268 -4.1319e-28 0.0705371)
(0.603684 0 0.109379)
(0.862185 1.7027e-25 0.262713)
(1.13938 1.62088e-24 0.332634)
(1.4068 -2.00607e-09 0.30562)
(1.8209 1.90465e-11 0.263206)
(1.81379 4.75836e-10 0.263335)
(1.71202 4.77423e-10 0.191773)
(1.70454 2.85945e-10 0.184223)
(1.94259 -7.00741e-09 0.127766)
(1.93155 7.10826e-09 0.120897)
(1.99264 -7.64707e-10 0.08802)
(1.99019 1.3689e-09 0.0856103)
(1.25027 1.60597e-08 0.670988)
(1.84654 2.6828e-08 0.299761)
(1.38775 2.80334e-09 0.260221)
(1.73987 1.80264e-08 0.360133)
(1.7305 3.91863e-09 0.310818)
(-0.312451 4.63545e-24 0.995749)
(-0.292517 -8.91753e-09 1.20283)
(0.400931 3.4479e-09 0.794817)
(0.399185 2.55647e-09 0.803305)
(0.626756 -1.32129e-08 0.715756)
(0.620178 2.54486e-08 0.713602)
(1.23774 4.45175e-09 0.660098)
(1.03763 1.95003e-08 0.772244)
(1.02681 3.14182e-09 0.763321)
(1.83491 -1.11757e-08 0.284381)
(1.38096 -1.94941e-09 0.262185)
(1.71924 2.17294e-09 0.354522)
(1.70424 -3.91074e-09 0.294757)
(1.99443 2.835e-08 0.246935)
(1.65552 1.36874e-08 0.311269)
(1.93474 2.31514e-08 0.144615)
(1.75695 3.72796e-09 0.304109)
(1.98542 -1.50326e-08 0.250917)
(1.67872 -7.75679e-09 0.313324)
(1.92089 -6.38528e-09 0.140803)
(1.7474 -3.86461e-09 0.306663)
(-0.214082 0 0.996884)
(-0.212886 -1.86008e-25 1.24636)
(-0.203768 0 1.36301)
(-0.174104 1.13818e-26 1.38726)
(-0.13343 0 1.33244)
(-0.0572561 0 1.22864)
(-0.00448307 0 -0.102363)
(-0.00892918 0 -0.0939264)
(-0.023548 0 -0.0908838)
(-0.0406146 0 -0.0909803)
(-0.0587545 0 -0.143525)
(0.445444 0 -0.165229)
(0.464486 0 -0.0474404)
(0.603536 0 -0.00927747)
(0.759519 2.22109e-25 0.0892831)
(1.018 1.17453e-24 0.120174)
(1.35881 -4.90047e-10 0.18359)
(1.57414 4.93136e-10 0.0854218)
(1.56619 -3.33644e-10 0.0781538)
(1.5747 1.40862e-09 0.0478906)
(1.57386 -1.9644e-10 0.0486285)
(1.84778 -5.51085e-09 -0.0422304)
(1.85051 2.00301e-09 -0.0419593)
(1.80038 -7.04168e-09 0.0123281)
(1.80037 1.15451e-09 0.00882309)
(1.69434 2.30974e-09 -0.0693672)
(1.68414 9.22369e-10 0.20566)
(2.11873 2.21576e-09 -0.220403)
(1.78509 2.32757e-09 -0.0649004)
(2.13261 3.34112e-09 -0.0929904)
(2.08234 1.25585e-09 -0.0240342)
(1.70398 -9.3015e-10 0.206941)
(1.69119 4.93298e-10 -0.0518596)
(2.10151 -1.80343e-09 -0.227134)
(1.77617 -1.59021e-09 -0.0702347)
(2.12295 -3.8995e-09 -0.100086)
(2.06684 -5.2146e-10 -0.02372)
(1.79674 2.72788e-09 -0.103598)
(2.124 7.35999e-09 -0.055807)
(1.81356 2.15919e-09 -0.106411)
(2.13258 5.50748e-09 -0.114504)
(1.79616 -2.49783e-09 -0.108082)
(2.11997 -4.52367e-09 -0.0606837)
(1.81592 -1.98015e-09 -0.102038)
(2.12738 -4.13179e-09 -0.118154)
(1.5984 2.47088e-08 0.465982)
(1.22002 2.38924e-09 0.351159)
(1.57832 1.54722e-08 0.426006)
(1.26969 3.08742e-09 0.417649)
(1.96508 7.89538e-10 0.162801)
(1.4511 -1.22598e-09 0.140621)
(1.89554 1.19126e-09 0.239402)
(1.6686 8.06029e-10 0.124188)
(-0.402342 -1.72612e-24 0.833022)
(-0.592043 -4.37516e-09 0.969625)
(-0.42415 5.83044e-10 0.718348)
(-0.409828 -1.36575e-11 0.735146)
(-0.0849602 1.40581e-10 0.588307)
(-0.069541 1.2648e-09 0.596436)
(0.20417 9.41495e-10 0.610778)
(0.195846 4.17702e-09 0.641417)
(0.489135 -1.63132e-08 0.45901)
(0.479534 2.26865e-08 0.488606)
(1.57297 -8.06204e-09 0.465971)
(1.19987 -1.30341e-09 0.344968)
(1.55533 2.63271e-09 0.422918)
(1.2243 -2.84672e-09 0.411697)
(1.27947 2.90732e-08 0.588849)
(0.859899 2.00322e-09 0.432111)
(1.1464 2.76161e-08 0.625441)
(0.952967 3.57123e-09 0.424352)
(1.25497 -1.25781e-08 0.597618)
(0.864654 -2.03732e-09 0.432294)
(1.12515 -4.29366e-09 0.636971)
(0.942096 -3.25528e-09 0.428095)
(1.94388 2.0443e-09 0.162894)
(1.44579 1.38932e-09 0.143779)
(1.86973 1.95205e-09 0.236057)
(1.65262 -8.06906e-11 0.113544)
(2.04064 1.0967e-09 0.0757234)
(1.72938 8.44255e-10 0.152163)
(2.02333 3.66057e-11 0.0760735)
(1.72064 -9.10484e-10 0.158737)
(-0.308785 -3.9411e-25 0.887033)
(-0.350999 0 1.15993)
(-0.272329 0 1.26533)
(-0.222653 0 1.30344)
(-0.174195 0 1.25)
(-0.0763413 0 1.1196)
(-0.00443969 0 -0.0907498)
(-0.0159375 0 -0.0833973)
(-0.0359783 0 -0.0809514)
(-0.0738341 0 -0.0788422)
(-0.0816068 0 -0.171718)
(0.50123 0 -0.295019)
(0.731354 0 -0.0963816)
(0.692586 0 -0.0470146)
(0.920472 2.63885e-25 0.0237496)
(1.22265 -3.63807e-10 0.078687)
(1.37614 1.13529e-09 0.0281773)
(1.37561 -2.83795e-10 0.0294491)
(1.4485 1.63246e-09 0.0485733)
(1.44623 -9.16479e-11 0.0508006)
(1.58878 -6.88215e-09 -0.0927858)
(1.59018 1.30899e-09 -0.0944513)
(1.55267 -6.70845e-09 -0.0281064)
(1.55805 1.27417e-09 -0.0305051)
(1.76325 2.81305e-09 -0.160545)
(2.07058 6.54786e-09 -0.129041)
(1.73894 4.84829e-09 -0.194081)
(2.01885 8.63613e-09 -0.159075)
(1.76968 -2.51327e-09 -0.165072)
(2.06793 -5.27597e-09 -0.136922)
(1.7534 -3.04057e-09 -0.20249)
(2.01249 -6.47734e-09 -0.16078)
(1.54644 6.85841e-09 -0.146537)
(1.90258 9.31151e-09 -0.141032)
(1.69352 5.78529e-09 -0.175948)
(1.9654 9.47651e-09 -0.133381)
(1.55926 -3.83415e-09 -0.158421)
(1.8952 -5.60865e-09 -0.145927)
(1.70655 -3.51735e-09 -0.183073)
(1.95652 -6.52223e-09 -0.137239)
(1.68475 8.18517e-10 0.0977256)
(1.75929 -8.26934e-11 -0.145269)
(2.17034 -1.59867e-10 -0.199811)
(2.07775 1.7443e-09 -0.206011)
(1.83354 -8.07721e-12 -0.159723)
(2.16684 -3.18363e-10 -0.136863)
(1.72152 6.15699e-10 0.103501)
(1.74959 -4.5408e-11 -0.14181)
(2.06861 -8.88169e-10 -0.208865)
(2.15682 -1.81832e-10 -0.207868)
(1.82589 -1.46725e-10 -0.168587)
(2.15793 -3.9005e-10 -0.145005)
(1.83037 -1.89219e-10 -0.22342)
(2.18346 1.22127e-10 -0.156539)
(1.85723 7.69812e-12 -0.219633)
(2.18645 3.05503e-10 -0.179364)
(1.83266 -5.86364e-11 -0.227876)
(2.17949 8.25815e-11 -0.162132)
(1.85708 -3.87408e-11 -0.215101)
(2.1795 -2.25038e-10 -0.181547)
(1.59464 1.21198e-09 0.354865)
(1.36737 -1.12252e-09 0.183882)
(1.7124 1.26572e-09 0.293965)
(1.26942 6.7278e-10 0.170564)
(1.94734 6.74092e-10 0.0385416)
(1.48937 4.32471e-10 -0.0835318)
(1.87019 7.08739e-10 0.0644353)
(1.76833 3.40573e-10 0.00166144)
(-0.38902 0 0.734286)
(-0.629991 -1.48401e-09 0.785101)
(-0.79334 2.98275e-09 0.596162)
(-0.784352 -1.09828e-10 0.602717)
(-0.682417 1.50605e-09 0.621238)
(-0.672847 -4.52608e-10 0.627733)
(-0.425536 -9.90033e-09 0.575175)
(-0.415514 4.99248e-09 0.594543)
(-0.212862 -4.4378e-09 0.475827)
(-0.204816 5.11705e-09 0.502243)
(-0.117879 1.35089e-09 0.146628)
(0.450971 4.86875e-09 0.430103)
(0.165433 1.12086e-09 0.124935)
(0.539175 3.55687e-09 0.472946)
(-0.149692 -1.62844e-09 0.186927)
(0.4332 -3.62004e-09 0.446943)
(0.139191 -1.46223e-09 0.1613)
(0.530667 -4.26965e-09 0.503033)
(0.757724 2.64672e-10 0.103828)
(0.848658 -4.94414e-10 0.133614)
(0.852393 1.59277e-09 0.240852)
(0.374285 1.76826e-09 0.113199)
(0.664934 4.26412e-09 0.413645)
(1.1122 5.36182e-09 0.560738)
(0.740387 -1.42001e-09 0.140637)
(0.838571 -8.97973e-10 0.153984)
(0.83577 -1.90734e-09 0.27658)
(0.355343 -2.0513e-09 0.144466)
(0.659024 -5.1623e-09 0.443453)
(1.08716 -3.87511e-10 0.583631)
(1.56941 2.85583e-09 0.358508)
(1.35321 1.00121e-09 0.176708)
(1.69429 1.78743e-09 0.286753)
(1.24432 8.47463e-11 0.16861)
(1.35324 3.41795e-09 0.476632)
(1.15323 1.70795e-09 0.236709)
(1.32813 1.10327e-09 0.487002)
(1.13216 -1.11455e-09 0.236198)
(1.92922 -4.81119e-10 0.0234081)
(1.48479 -3.8506e-10 -0.0807105)
(1.84585 -7.39415e-10 0.0609984)
(1.73102 1.78518e-10 -0.00401106)
(2.08834 9.90298e-10 -0.0396079)
(1.83165 4.40373e-10 0.00174091)
(2.07926 -1.16832e-09 -0.0352789)
(1.81103 -5.09587e-10 -0.0122868)
(-0.466782 -4.97678e-25 0.818289)
(-0.443436 0 0.988682)
(-0.347526 0 1.13065)
(-0.281471 0 1.21121)
(-0.218913 0 1.13736)
(-0.0962978 0 0.962037)
(-0.00679823 0 -0.0774152)
(-0.027746 0 -0.0623076)
(-0.0533859 0 -0.0722857)
(-0.142682 0 -0.057492)
(-0.158341 0 -0.0917056)
(0.429179 -1.39183e-27 -0.368512)
(0.933705 -1.83046e-25 -0.118743)
(0.832756 -1.9321e-25 -0.127832)
(1.07801 -6.79515e-10 -0.095661)
(1.28255 1.5958e-09 -0.064024)
(1.279 2.3162e-10 -0.0638861)
(1.34197 1.49099e-09 -0.0865818)