/*--------------------------------*- C++ -*----------------------------------*\
| =========                 |                                                 |
| \\      /  F ield         | OpenFOAM: The Open Source CFD Toolbox           |
|  \\    /   O peration     | Version:  5.x                                   |
|   \\  /    A nd           | Web:      www.OpenFOAM.org                      |
|    \\/     M anipulation  |                                                 |
\*---------------------------------------------------------------------------*/
FoamFile
{
    version     2.0;
    format      ascii;
    class       surfaceVectorField;
    location    "1.4";
    object      Uf;
}
// * * * * * * * * * * * * * * * * * * * * * * * * * * * * * * * * * * * * * //

dimensions      [0 1 -1 0 0 0 0];

internalField   nonuniform List<vector> 
30582
(
(0.203297 0 0.00193876)
(0.204996 0 -0.000603931)
(0.204286 0 0.00348031)
(0.204888 0 -0.00039578)
(0.202992 0 -0.00298577)
(0.204469 0 -0.00107825)
(0.202516 0 0.00411675)
(0.203395 0 0.000721023)
(0.203732 0 -0.00321267)
(0.204206 0 -0.000691561)
(0.20189 0 0.00131564)
(0.203554 0 -0.00109946)
(0.197449 0 0.00395281)
(0.200254 0 0.00210008)
(0.201972 0 -0.00137708)
(0.202965 0 0.00143784)
(0.20346 0 0.00410863)
(0.202311 0 -0.0013194)
(0.199958 0 -0.00388393)
(0.202028 0 -0.000331285)
(0.192627 0 0.00331235)
(0.194014 0 0.00203429)
(0.197022 0 0.00010474)
(0.200136 0 0.00415144)
(0.202114 0 0.0071565)
(0.201295 0 0.00198593)
(0.200558 0 -0.0036165)
(0.199646 0 -0.00155958)
(0.197319 0 0.00212657)
(0.199483 0 0.00151362)
(0.188892 0 0.00249145)
(0.19036 0 0.00160424)
(0.192069 0 0.000254648)
(0.193867 0 0.00412406)
(0.197343 0 0.00829514)
(0.198887 0 0.00612889)
(0.19917 0 0.000744131)
(0.199533 0 0.002551)
(0.199799 0 0.00490629)
(0.19472 0 -0.00255124)
(0.191983 0 -0.00348642)
(0.196175 0 0.00550551)
(0.187691 0 0.00154567)
(0.187748 0 0.000525178)
(0.188378 0 -0.000424564)
(0.19 0 0.00318972)
(0.192104 0 0.00717607)
(0.192852 0 0.00633447)
(0.195081 0 0.00395685)
(0.197634 0 0.00782384)
(0.19911 0 0.00995245)
(0.19553 0 0.00283151)
(0.192362 0 -0.00494196)
(0.189176 0 -0.00270293)
(0.18801 0 0.00668875)
(0.191423 0 0.0111189)
(0.188781 0 0.000663025)
(0.187893 0 -0.000485271)
(0.186949 0 -0.00157862)
(0.187128 0 0.00114993)
(0.187934 0 0.00485805)
(0.188785 0 0.00498057)
(0.189943 0 0.00394479)
(0.192056 0 0.00850247)
(0.195667 0 0.0125559)
(0.194892 0 0.00925075)
(0.192328 0 0.00181273)
(0.192203 0 0.00284566)
(0.191494 0 0.00555117)
(0.176912 0 -0.00409684)
(0.174267 0 -0.0004688)
(0.153182 0 0.0222026)
(0.192314 0 7.59675e-05)
(0.190611 0 -0.00160021)
(0.188288 0 -0.002851)
(0.187432 0 -0.00108115)
(0.18651 0 0.00177208)
(0.185622 0 0.00177254)
(0.185805 0 0.00173501)
(0.187788 0 0.00675783)
(0.190571 0 0.0114833)
(0.190216 0 0.0106526)
(0.190889 0 0.00709694)
(0.192813 0 0.00984688)
(0.193371 0 0.0111237)
(0.182695 0 0.00208161)
(0.171556 0 -0.0079821)
(0.139302 0 -0.0030123)
(0.112658 0 0.020153)
(-0.0761758 0 -0.0287147)
(0.196864 0 -6.71067e-05)
(0.195002 0 -0.00209838)
(0.192125 0 -0.00387762)
(0.190252 0 -0.00333872)
(0.187866 0 -0.00136896)
(0.186116 0 -0.00168434)
(0.183994 0 -0.0019052)
(0.183953 0 0.00256434)
(0.185398 0 0.00773605)
(0.186168 0 0.00897956)
(0.187065 0 0.00795937)
(0.188731 0 0.0122662)
(0.192474 0 0.0148461)
(0.187885 0 0.0102185)
(0.176883 0 0.000805752)
(0.157406 0 -8.78482e-05)
(0.128595 0 0.00527216)
(-0.0203171 0 -0.00938749)
(-0.203453 0 -0.0569272)
(-0.205518 0 0.0509451)
(0.200766 0 0.0001979)
(0.199502 0 -0.00183169)
(0.197047 0 -0.00396219)
(0.195025 0 -0.00436777)
(0.191877 0 -0.00360803)
(0.189228 0 -0.00515579)
(0.185755 0 -0.00580708)
(0.184291 0 -0.00246827)
(0.182967 0 0.0022469)
(0.181457 0 0.00362701)
(0.181891 0 0.0047018)
(0.184042 0 0.0112018)
(0.187731 0 0.0154101)
(0.186652 0 0.0142674)
(0.184182 0 0.00969007)
(0.182728 0 0.00719343)
(0.162232 0 0.00700256)
(-0.000758402 0 -0.0137849)
(-0.153545 0 -0.0290472)
(5.11989e-05 0 -0.0293518)
(0.00944173 0 0.069067)
(-0.0635037 0 0.0472254)
(0.202452 0 0.000676516)
(0.202426 0 -0.000805221)
(0.20131 0 -0.00290547)
(0.200054 0 -0.00383296)
(0.197378 0 -0.00402325)
(0.194802 0 -0.00690434)
(0.190713 0 -0.00878218)
(0.18783 0 -0.007402)
(0.184458 0 -0.00363272)
(0.181539 0 -0.00313181)
(0.178736 0 -0.00209387)
(0.177832 0 0.0050062)
(0.180009 0 0.0115692)
(0.182785 0 0.0145183)
(0.184496 0 0.0138311)
(0.191387 0 0.0141347)
(0.192182 0 0.0124111)
(0.0944478 0 -0.00522059)
(-0.0696593 0 -0.0257868)
(-0.118195 0 -0.0479432)
(0.0256377 0 -0.0469778)
(0.114587 0 -0.0358304)
(0.0468031 0 -0.0462719)
(-0.00227189 0 0.0288332)
(0.200614 0 0.00134773)
(0.202448 0 0.000893677)
(0.203062 0 -0.000685069)
(0.203557 0 -0.00164223)
(0.2024 0 -0.00239949)
(0.200794 0 -0.00619069)
(0.197445 0 -0.00937683)
(0.194534 0 -0.0100085)
(0.189952 0 -0.00814814)
(0.185732 0 -0.00989069)
(0.180682 0 -0.009981)
(0.177551 0 -0.00399783)
(0.175248 0 0.00337706)
(0.175615 0 0.00708782)
(0.178599 0 0.0102993)
(0.196037 0 0.0170512)
(0.20678 0 0.0167616)
(0.145337 0 0.00797548)
(0.046997 0 -0.00855574)
(-0.0309281 0 -0.0535737)
(-0.076073 0 -0.0695138)
(-0.0300956 0 -0.00652703)
(0.0548289 0 0.00571727)
(0.0163963 0 -0.0390409)
(-0.03355 0 0.0256265)
(0.0283839 0 0.0420172)
(0.194563 0 0.00227238)
(0.198548 0 0.0029958)
(0.201403 0 0.0023723)
(0.203928 0 0.00170042)
(0.205203 0 0.000982273)
(0.20516 0 -0.00298138)
(0.203666 0 -0.00700433)
(0.201926 0 -0.00911055)
(0.198027 0 -0.0092829)
(0.193988 0 -0.0137319)
(0.187718 0 -0.0161183)
(0.182588 0 -0.0130782)
(0.177139 0 -0.00643925)
(0.175212 0 -0.00483941)
(0.174242 0 -0.00123313)
(0.193278 0 0.0089928)
(0.211377 0 0.0141772)
(0.179917 0 0.0150767)
(0.12444 0 0.00681363)
(0.00809717 0 -0.0246992)
(-0.07391 0 -0.064585)
(-0.0186244 0 -0.0544703)
(0.0323157 0 0.00211338)
(0.0168329 0 0.00264037)
(-0.020177 0 -0.0431905)
(0.00177748 0 -0.0443904)
(0.0627082 0 -0.0184384)
(0.0239188 0 0.0173753)
(0.184311 0 0.00326393)
(0.190295 0 0.00516719)
(0.195538 0 0.00570741)
(0.200138 0 0.00589959)
(0.203775 0 0.00561004)
(0.20615 0 0.0023949)
(0.206898 0 -0.00185774)
(0.207631 0 -0.00452607)
(0.20592 0 -0.00625515)
(0.203332 0 -0.0128154)
(0.198016 0 -0.0178698)
(0.192825 0 -0.0184804)
(0.185226 0 -0.0145338)
(0.180959 0 -0.0167421)
(0.176698 0 -0.0158125)
(0.196753 0 -0.0059325)
(0.214556 0 0.00256788)
(0.197614 0 0.00760315)
(0.169525 0 0.00770615)
(0.0681294 0 -0.00428693)
(-0.0443023 0 -0.0331106)
(-0.0276778 0 -0.037191)
(0.0252362 0 -0.0345786)
(0.024215 0 -0.0515359)
(0.0106342 0 -0.0474752)
(0.00735945 0 -0.00990597)
(0.0302879 0 -0.00992635)
(0.00327263 0 -0.0314218)
(-0.0356185 0 -0.00262937)
(0.170274 0 0.00418921)
(0.178052 0 0.00720137)
(0.185354 0 0.00894332)
(0.191941 0 0.0103003)
(0.19784 0 0.0109001)
(0.202723 0 0.00883817)
(0.206291 0 0.00516069)
(0.20957 0 0.00269005)
(0.211182 0 0.00048725)
(0.210854 0 -0.00704037)
(0.208219 0 -0.0140712)
(0.204758 0 -0.0176046)
(0.197917 0 -0.0173079)
(0.192994 0 -0.0243319)
(0.185726 0 -0.0277024)
(0.206238 0 -0.0208318)
(0.22366 0 -0.0130546)
(0.222594 0 -0.0099845)
(0.205299 0 -0.00642404)
(0.116029 0 -0.0080372)
(0.0169457 0 -0.0192793)
(0.0162097 0 -0.0305926)
(0.0318429 0 -0.0379905)
(0.00982389 0 -0.0399785)
(0.0085017 0 -0.0513692)
(0.0106269 0 -0.050652)
(0.00803856 0 -0.0173255)
(0.00581372 0 -0.000846146)
(-0.0210313 0 -0.023617)
(0.153012 0 0.00499403)
(0.162242 0 0.00901483)
(0.171242 0 0.0118945)
(0.179586 0 0.0144409)
(0.187525 0 0.0161959)
(0.194595 0 0.0154994)
(0.200864 0 0.0129134)
(0.206569 0 0.0115255)
(0.211164 0 0.00970886)
(0.214068 0 0.00269867)
(0.214718 0 -0.00531714)
(0.214688 0 -0.0101458)
(0.211087 0 -0.0129263)
(0.207417 0 -0.0237874)
(0.20037 0 -0.0320219)
(0.22169 0 -0.0310846)
(0.238737 0 -0.0251469)
(0.255713 0 -0.0276617)
(0.252049 0 -0.0268698)
(0.172901 0 -0.0307898)
(0.0862404 0 -0.0318311)
(0.0594168 0 -0.0383316)
(0.0565219 0 -0.0473965)
(0.0276837 0 -0.0411922)
(0.0042531 0 -0.040559)
(-0.0020643 0 -0.0381859)
(-0.000245109 0 -0.0410829)
(0.00398226 0 -0.0472185)
(0.00177311 0 -0.0292527)
(0.133204 0 0.00564766)
(0.143549 0 0.0105297)
(0.153845 0 0.0144421)
(0.163586 0 0.0181001)
(0.173186 0 0.021043)
(0.182061 0 0.0217971)
(0.190548 0 0.0205578)
(0.198462 0 0.0206988)
(0.205653 0 0.0199981)
(0.211681 0 0.0142539)
(0.216017 0 0.00664531)
(0.21955 0 0.00206697)
(0.220589 0 -0.00195475)
(0.219784 0 -0.0146858)
(0.215742 0 -0.0265964)
(0.238525 0 -0.0310031)
(0.257034 0 -0.0286385)
(0.297106 0 -0.0395217)
(0.309631 0 -0.0438055)
(0.241089 0 -0.0537477)
(0.162975 0 -0.0579783)
(0.106025 0 -0.0649394)
(0.0816416 0 -0.0665521)
(0.0441514 0 -0.0493137)
(0.0129664 0 -0.0436428)
(0.00633499 0 -0.0449345)
(-0.000201315 0 -0.0435323)
(-0.000946785 0 -0.0382044)
(0.00310101 0 -0.0427488)
(0.11152 0 0.00615152)
(0.122669 0 0.0117337)
(0.133883 0 0.016525)
(0.144664 0 0.0211409)
(0.155492 0 0.0251956)
(0.165745 0 0.0273404)
(0.175932 0 0.0275368)
(0.185649 0 0.0292954)
(0.195072 0 0.0301502)
(0.203591 0 0.0260318)
(0.211247 0 0.0197137)
(0.21783 0 0.0166156)
(0.223064 0 0.0126225)
(0.226146 0 0.000863235)
(0.226943 0 -0.0126387)
(0.252162 0 -0.0200379)
(0.274401 0 -0.0219495)
(0.339659 0 -0.0391553)
(0.374577 0 -0.0497167)
(0.320624 0 -0.0694692)
(0.249512 0 -0.0814066)
(0.154219 0 -0.0929502)
(0.0996969 0 -0.0945595)
(0.0602592 0 -0.0729748)
(0.0227057 0 -0.0575896)
(0.0122553 0 -0.0535716)
(0.00453742 0 -0.0531754)
(0.00284701 0 -0.0469698)
(0.00205292 0 -0.042555)
(0.0885507 0 0.00652661)
(0.100243 0 0.0126521)
(0.112051 0 0.018155)
(0.123554 0 0.0235478)
(0.135214 0 0.0285576)
(0.146444 0 0.0319205)
(0.157818 0 0.0334972)
(0.168862 0 0.0368)
(0.179971 0 0.0393371)
(0.190364 0 0.0370426)
(0.200508 0 0.0323439)
(0.209669 0 0.0314444)
(0.217994 0 0.0284098)
(0.225103 0 0.0191257)
(0.229675 0 0.00661794)
(0.25939 0 -0.000465631)
(0.286522 0 -0.00625804)
(0.372405 0 -0.0258296)
(0.435897 0 -0.0413693)
(0.40398 0 -0.0679399)
(0.343453 0 -0.0887024)
(0.206151 0 -0.112785)
(0.112471 0 -0.120881)
(0.0670211 0 -0.098737)
(0.0276906 0 -0.0790978)
(0.0194424 0 -0.0751932)
(0.00885548 0 -0.0685131)
(0.0049284 0 -0.0554594)
(0.00274973 0 -0.0515745)
(0.0647798 0 0.00680134)
(0.0768037 0 0.0133283)
(0.0889481 0 0.0193819)
(0.100918 0 0.0253775)
(0.113082 0 0.031158)
(0.124957 0 0.0355237)
(0.137082 0 0.0383091)
(0.149006 0 0.0429437)
(0.161216 0 0.0470975)
(0.172905 0 0.0465939)
(0.18479 0 0.0436597)
(0.195922 0 0.0451061)
(0.206858 0 0.0442398)
(0.217097 0 0.0370572)
(0.22621 0 0.0277234)
(0.258879 0 0.0208414)
(0.290567 0 0.0157511)
(0.387503 0 -0.0024334)
(0.476322 0 -0.0209511)
(0.474035 0 -0.045146)
(0.43616 0 -0.0704447)
(0.260307 0 -0.111458)
(0.122255 0 -0.135213)
(0.0676854 0 -0.117297)
(0.0241532 0 -0.0973574)
(0.0183388 0 -0.0971345)
(0.00979366 0 -0.0896516)
(0.0075245 0 -0.0756107)
(0.00366344 0 -0.0657298)
(0.0405885 0 0.00699682)
(0.0527808 0 0.0138078)
(0.065064 0 0.0202689)
(0.0773002 0 0.0267198)
(0.0897206 0 0.0330945)
(0.10198 0 0.0382458)
(0.114519 0 0.042024)
(0.126969 0 0.0477332)
(0.139808 0 0.0532855)
(0.152277 0 0.054324)
(0.165181 0 0.05308)
(0.177613 0 0.0568341)
(0.190372 0 0.0586079)
(0.202775 0 0.0535637)
(0.214967 0 0.0475939)
(0.250692 0 0.0427238)
(0.286038 0 0.039562)
(0.387725 0 0.0230837)
(0.489344 0 0.00636787)
(0.515203 0 -0.00876681)
(0.514095 0 -0.0319059)
(0.311758 0 -0.0823849)
(0.13334 0 -0.124143)
(0.0633865 0 -0.116662)
(0.0115302 0 -0.102794)
(0.010741 0 -0.111477)
(0.00534058 0 -0.106767)
(0.00583719 0 -0.0951172)
(0.00344772 0 -0.0848785)
(0.0162666 0 0.00712437)
(0.0285006 0 0.0141303)
(0.0407802 0 0.0208806)
(0.05313 0 0.0276684)
(0.0656224 0 0.0344882)
(0.0780773 0 0.0402317)
(0.0907838 0 0.0447856)
(0.103502 0 0.0513198)
(0.116619 0 0.0580054)
(0.129501 0 0.0602809)
(0.142902 0 0.0604523)
(0.156014 0 0.0661674)
(0.169717 0 0.0705693)
(0.183416 0 0.0676205)
(0.197662 0 0.0641985)
(0.235632 0 0.0624416)
(0.273901 0 0.0609732)
(0.377453 0 0.0488411)
(0.484252 0 0.0355538)
(0.526102 0 0.0256048)
(0.558819 0 0.00920178)
(0.35201 0 -0.0305193)
(0.148477 0 -0.0805618)
(0.0607915 0 -0.0896179)
(-0.00661795 0 -0.0882779)
(-0.00382744 0 -0.108143)
(-0.00395975 0 -0.111487)
(0.000812783 0 -0.107188)
(0.00138771 0 -0.0998166)
(-0.00795079 0 0.00719139)
(0.00422147 0 0.0143231)
(0.0163812 0 0.0212715)
(0.0287273 0 0.0283054)
(0.0411619 0 0.0354524)
(0.0536761 0 0.0416299)
(0.066381 0 0.0467669)
(0.0791872 0 0.0539143)
(0.0923445 0 0.0614745)
(0.10539 0 0.0646908)
(0.118935 0 0.0659628)
(0.132326 0 0.07325)
(0.146385 0 0.0798607)
(0.160599 0 0.0785705)
(0.17561 0 0.0770108)
(0.215264 0 0.079136)
(0.255515 0 0.0784145)
(0.358952 0 0.071874)
(0.467719 0 0.0628072)
(0.514568 0 0.0571742)
(0.565134 0 0.0440976)
(0.369813 0 0.0224783)
(0.165881 0 -0.0174586)
(0.064659 0 -0.0389841)
(-0.0231023 0 -0.0533789)
(-0.0197322 0 -0.0817411)
(-0.0158867 0 -0.0959079)
(-0.00751084 0 -0.102544)
(-0.00235431 0 -0.102776)
(-0.0318706 0 0.0071999)
(-0.0198627 0 0.0144)
(-0.00790688 0 0.0214748)
(0.00434095 0 0.0286878)
(0.0166121 0 0.0360748)
(0.0290855 0 0.0425683)
(0.0416796 0 0.0481314)
(0.0544528 0 0.055729)
(0.0674979 0 0.0639417)
(0.0805502 0 0.0678454)
(0.0940198 0 0.0699252)
(0.107443 0 0.0784151)
(0.121485 0 0.0868116)
(0.135821 0 0.086724)
(0.150979 0 0.0863371)
(0.191141 0 0.0916642)
(0.232523 0 0.0919538)
(0.334031 0 0.0911434)
(0.441563 0 0.0852988)
(0.485642 0 0.0852924)
(0.540543 0 0.0760806)
(0.361976 0 0.0695683)
(0.170101 0 0.0452871)
(0.0715874 0 0.0203888)
(-0.0308853 0 -0.0041075)
(-0.0302497 0 -0.0351987)
(-0.0267164 0 -0.059095)
(-0.0160955 0 -0.0765664)
(-0.00723228 0 -0.0872599)
(-0.0552989 0 0.00714563)
(-0.0435633 0 0.014357)
(-0.031901 0 0.0214984)
(-0.0198492 0 0.0288446)
(-0.00781557 0 0.0364097)
(0.00453769 0 0.0431353)
(0.0169344 0 0.0490077)
(0.0295929 0 0.0569446)
(0.0424376 0 0.0656362)
(0.0554052 0 0.0700327)
(0.0686785 0 0.0726835)
(0.0819976 0 0.0820543)
(0.0958167 0 0.0918558)
(0.110033 0 0.0925542)
(0.124998 0 0.0927714)
(0.164453 0 0.100783)
(0.205942 0 0.102299)
(0.303667 0 0.105794)
(0.407803 0 0.102932)
(0.444746 0 0.108774)
(0.49247 0 0.10525)
(0.334458 0 0.109955)
(0.158367 0 0.09919)
(0.0718527 0 0.0754825)
(-0.0289599 0 0.0499679)
(-0.031901 0 0.0194355)
(-0.0315997 0 -0.00854817)
(-0.0219667 0 -0.0328236)
(-0.0113639 0 -0.0528168)
(-0.0780303 0 0.00702293)
(-0.0666784 0 0.0141801)
(-0.0554165 0 0.0213285)
(-0.0436687 0 0.0287672)
(-0.0319576 0 0.0364699)
(-0.0198119 0 0.0433784)
(-0.00766895 0 0.0494769)
(0.00481511 0 0.0576867)
(0.0173934 0 0.066736)
(0.0302255 0 0.0714945)
(0.0432507 0 0.0745489)
(0.056404 0 0.0845463)
(0.0699135 0 0.0954119)
(0.0838646 0 0.0965781)
(0.0984501 0 0.0970184)
(0.135834 0 0.107177)
(0.176255 0 0.109866)
(0.267661 0 0.116847)
(0.366058 0 0.116881)
(0.396408 0 0.127986)
(0.433834 0 0.130544)
(0.29513 0 0.139395)
(0.137463 0 0.140435)
(0.0655126 0 0.120679)
(-0.02361 0 0.0992845)
(-0.0283308 0 0.0727861)
(-0.0323554 0 0.0451222)
(-0.0237141 0 0.0198096)
(-0.0141442 0 -0.00568384)
(-0.0998369 0 0.00682626)
(-0.0890041 0 0.0138468)
(-0.0782551 0 0.0209353)
(-0.0669252 0 0.028427)
(-0.0556447 0 0.0362304)
(-0.0438135 0 0.0432828)
(-0.0319995 0 0.0495584)
(-0.0197615 0 0.0580258)
(-0.00748249 0 0.0673565)
(0.00518583 0 0.072399)
(0.0179304 0 0.0757592)
(0.0308975 0 0.086205)
(0.0440852 0 0.0978402)
(0.0577093 0 0.0992885)
(0.0718239 0 0.0997425)
(0.105669 0 0.111507)
(0.143707 0 0.115174)
(0.225894 0 0.125106)
(0.316777 0 0.127858)
(0.341996 0 0.143514)
(0.370406 0 0.152052)
(0.250574 0 0.161703)
(0.11076 0 0.170073)
(0.055246 0 0.153339)
(-0.0175305 0 0.137885)
(-0.022487 0 0.11756)
(-0.0284919 0 0.093573)
(-0.0219125 0 0.0708388)
(-0.0138075 0 0.0449782)
(-0.120461 0 0.00654143)
(-0.110297 0 0.0133306)
(-0.100192 0 0.0202768)
(-0.0894212 0 0.0277762)
(-0.0786882 0 0.0356419)
(-0.067291 0 0.0428018)
(-0.0559153 0 0.0492155)
(-0.0440223 0 0.0579385)
(-0.0321029 0 0.0675251)
(-0.0196462 0 0.0728474)
(-0.00717643 0 0.0764712)
(0.00561229 0 0.0872482)
(0.018477 0 0.0994195)
(0.0317674 0 0.101083)
(0.0454048 0 0.101484)
(0.0742502 0 0.114368)
(0.108471 0 0.118776)
(0.178599 0 0.131264)
(0.259647 0 0.136588)
(0.2817 0 0.156574)
(0.303827 0 0.171221)
(0.204451 0 0.179542)
(0.0828952 0 0.192231)
(0.0429252 0 0.176516)
(-0.0126957 0 0.165488)
(-0.0166721 0 0.150814)
(-0.0222064 0 0.13243)
(-0.0177988 0 0.114336)
(-0.0119262 0 0.0915869)
(-0.139619 0 0.00614858)
(-0.130284 0 0.0126061)
(-0.120966 0 0.0193147)
(-0.110916 0 0.026758)
(-0.100869 0 0.0346387)
(-0.0900577 0 0.0418606)
(-0.079246 0 0.0483762)
(-0.0678148 0 0.0573558)
(-0.0563594 0 0.067185)
(-0.044209 0 0.0728028)
(-0.0320537 0 0.0767212)
(-0.0194545 0 0.0878238)
(-0.00685642 0 0.100345)
(0.00614641 0 0.102231)
(0.0193179 0 0.102647)
(0.0419147 0 0.116238)
(0.0708889 0 0.121189)
(0.126728 0 0.135819)
(0.195489 0 0.143593)
(0.217011 0 0.167237)
(0.235726 0 0.188018)
(0.159214 0 0.194086)
(0.0578449 0 0.208041)
(0.0305459 0 0.193097)
(-0.00940452 0 0.184808)
(-0.0121558 0 0.174766)
(-0.0162786 0 0.161347)
(-0.013274 0 0.147719)
(-0.00918945 0 0.129781)
(-0.157018 0 0.00563582)
(-0.148675 0 0.0116528)
(-0.140289 0 0.0180197)
(-0.131136 0 0.0253208)
(-0.121931 0 0.0331494)
(-0.111878 0 0.0403718)
(-0.101781 0 0.046944)
(-0.0909696 0 0.0561701)
(-0.0801059 0 0.0662309)
(-0.0683829 0 0.072169)
(-0.0566464 0 0.0764285)
(-0.0443133 0 0.0878733)
(-0.0319931 0 0.100667)
(-0.0192363 0 0.102956)
(-0.00641929 0 0.10357)
(0.00919552 0 0.117453)
(0.031658 0 0.122804)
(0.0719005 0 0.139031)
(0.126546 0 0.148823)
(0.150378 0 0.17517)
(0.168883 0 0.200834)
(0.116685 0 0.204715)
(0.038298 0 0.217993)
(0.020344 0 0.204853)
(-0.00704798 0 0.198391)
(-0.00879967 0 0.191822)
(-0.0115656 0 0.182272)
(-0.00945845 0 0.172261)
(-0.00655507 0 0.158859)
(-0.172363 0 0.00500197)
(-0.165168 0 0.010461)
(-0.157863 0 0.0163713)
(-0.149782 0 0.0234224)
(-0.141581 0 0.0311093)
(-0.132474 0 0.0382506)
(-0.123262 0 0.0448178)
(-0.113256 0 0.0542563)
(-0.103146 0 0.0645263)
(-0.0920215 0 0.0707998)
(-0.0808417 0 0.07545)
(-0.0688864 0 0.0872624)
(-0.0569351 0 0.100288)
(-0.0444982 0 0.103158)
(-0.032005 0 0.104335)
(-0.0233488 0 0.118359)
(-0.00794899 0 0.123893)
(0.0162534 0 0.140878)
(0.0557325 0 0.151931)
(0.0838504 0 0.180172)
(0.105284 0 0.210107)
(0.077633 0 0.211471)
(0.0240392 0 0.223422)
(0.0128859 0 0.21271)
(-0.00520764 0 0.207929)
(-0.006279 0 0.203839)
(-0.00803675 0 0.197168)
(-0.00655514 0 0.189912)
(-0.00446211 0 0.180211)
(-0.185382 0 0.00425668)
(-0.179473 0 0.00903557)
(-0.173381 0 0.0143658)
(-0.166541 0 0.0210406)
(-0.159507 0 0.0284744)
(-0.151536 0 0.0354281)
(-0.143387 0 0.0419077)
(-0.134392 0 0.0514927)
(-0.125221 0 0.0619263)
(-0.114904 0 0.0685252)
(-0.104462 0 0.0735986)
(-0.0930602 0 0.085798)
(-0.0816137 0 0.0990392)
(-0.0695852 0 0.102657)
(-0.0575032 0 0.104706)
(-0.055226 0 0.118783)
(-0.0468973 0 0.124525)
(-0.0394378 0 0.141807)
(-0.0155271 0 0.153434)
(0.0160571 0 0.183024)
(0.0439627 0 0.216893)
(0.0419607 0 0.215797)
(0.0132113 0 0.225767)
(0.00727962 0 0.217651)
(-0.00393519 0 0.214412)
(-0.00441475 0 0.211997)
(-0.00547131 0 0.207572)
(-0.00445453 0 0.202426)
(-0.00296386 0 0.195547)
(-0.195858 0 0.00342111)
(-0.191333 0 0.00740055)
(-0.186563 0 0.0120236)
(-0.181109 0 0.0181837)
(-0.175387 0 0.0252346)
(-0.168735 0 0.0318667)
(-0.161827 0 0.0381508)
(-0.154054 0 0.0477781)
(-0.146022 0 0.0582995)
(-0.136744 0 0.0651791)
(-0.127252 0 0.0706741)
(-0.116629 0 0.0832561)
(-0.105881 0 0.0967052)
(-0.0944087 0 0.101207)
(-0.0828618 0 0.104396)
(-0.0859003 0 0.118476)
(-0.0841325 0 0.124559)
(-0.0928318 0 0.141601)
(-0.0851687 0 0.153681)
(-0.0454144 0 0.183732)
(-0.0144169 0 0.219599)
(0.00576648 0 0.217551)
(0.00423922 0 0.225485)
(0.002764 0 0.22101)
(-0.00319716 0 0.218758)
(-0.00325823 0 0.21723)
(-0.0037681 0 0.214551)
(-0.0029699 0 0.211042)
(-0.00194376 0 0.206322)
(-0.203641 0 0.00252499)
(-0.200544 0 0.00559703)
(-0.197169 0 0.00938832)
(-0.193213 0 0.0148928)
(-0.188919 0 0.0214214)
(-0.18374 0 0.0275751)
(-0.178233 0 0.0335288)
(-0.171888 0 0.0430514)
(-0.165197 0 0.0535478)
(-0.157203 0 0.0606202)
(-0.148891 0 0.0664927)
(-0.139304 0 0.0794174)
(-0.12949 0 0.0930553)
(-0.118781 0 0.0985165)
(-0.107936 0 0.103073)
(-0.115107 0 0.117129)
(-0.118839 0 0.123747)
(-0.143047 0 0.140127)
(-0.15116 0 0.152082)
(-0.112021 0 0.182041)
(-0.072768 0 0.217019)
(-0.0244924 0 0.218859)
(-0.0047629 0 0.226146)
(-0.00132365 0 0.222875)
(-0.00279189 0 0.221337)
(-0.00270834 0 0.220774)
(-0.00278957 0 0.219151)
(-0.00209603 0 0.216672)
(-0.0013084 0 0.213629)
(-0.208653 0 0.00160904)
(-0.206984 0 0.00366867)
(-0.205011 0 0.00651766)
(-0.202634 0 0.0112371)
(-0.199848 0 0.0171075)
(-0.196245 0 0.0226136)
(-0.192262 0 0.0280823)
(-0.187524 0 0.0373112)
(-0.182362 0 0.0476284)
(-0.175896 0 0.0547531)
(-0.169004 0 0.0609081)
(-0.160728 0 0.0740912)
(-0.152107 0 0.0878621)
(-0.142424 0 0.0942987)
(-0.132501 0 0.100354)
(-0.142736 0 0.114394)
(-0.150787 0 0.121762)
(-0.189133 0 0.137415)
(-0.212637 0 0.148693)
(-0.17449 0 0.178476)
(-0.13353 0 0.211376)
(-0.0615646 0 0.219275)
(-0.014269 0 0.230202)
(-0.00636237 0 0.224582)
(-0.00297157 0 0.222937)
(-0.0023518 0 0.222982)
(-0.00221859 0 0.222294)
(-0.00169637 0 0.220442)
(-0.0010169 0 0.218477)
(-0.21087 0 0.000778847)
(-0.210604 0 0.00165192)
(-0.209977 0 0.00346496)
(-0.209233 0 0.00730322)
(-0.207997 0 0.0124023)
(-0.206004 0 0.0170972)
(-0.203612 0 0.0219141)
(-0.200611 0 0.0306318)
(-0.197123 0 0.0405805)
(-0.192398 0 0.0475554)
(-0.187161 0 0.0538359)
(-0.180479 0 0.0671313)
(-0.173327 0 0.0809228)
(-0.164979 0 0.0883031)
(-0.15625 0 0.0958475)
(-0.168713 0 0.109925)
(-0.180006 0 0.118293)
(-0.230371 0 0.133281)
(-0.268144 0 0.143905)
(-0.235421 0 0.172662)
(-0.195202 0 0.20375)
(-0.0973258 0 0.216947)
(-0.024604 0 0.233428)
(-0.0108248 0 0.225609)
(-0.00303073 0 0.224252)
(-0.0026449 0 0.224618)
(-0.00206048 0 0.224392)
(-0.00151814 0 0.222888)
(-0.000943157 0 0.221674)
(-0.21032 0 -7.73926e-05)
(-0.21143 0 -0.000417325)
(-0.212072 0 0.000288764)
(-0.21296 0 0.00321336)
(-0.213295 0 0.00745142)
(-0.212846 0 0.0111816)
(-0.212045 0 0.0151778)
(-0.210866 0 0.0231622)
(-0.209135 0 0.032537)
(-0.20629 0 0.0391175)
(-0.202882 0 0.0452977)
(-0.19806 0 0.0584662)
(-0.192666 0 0.0720925)
(-0.185999 0 0.0803155)
(-0.178782 0 0.0891912)
(-0.192929 0 0.103394)
(-0.20663 0 0.113057)
(-0.266636 0 0.127442)
(-0.31667 0 0.137651)
(-0.292741 0 0.164647)
(-0.257654 0 0.193175)
(-0.136179 0 0.212317)
(-0.0375301 0 0.233634)
(-0.0161627 0 0.225011)
(-0.00255831 0 0.224413)
(-0.00211657 0 0.225319)
(-0.00180036 0 0.225392)
(-0.00149505 0 0.224461)
(-0.000984206 0 0.223683)
(-0.207259 0 -0.0010632)
(-0.209739 0 -0.00236302)
(-0.211698 0 -0.0028288)
(-0.213777 0 -0.000701332)
(-0.21573 0 0.00245676)
(-0.21667 0 0.00502768)
(-0.21737 0 0.00804254)
(-0.21809 0 0.0150796)
(-0.218162 0 0.0236969)
(-0.217229 0 0.029654)
(-0.215725 0 0.0354591)
(-0.212947 0 0.04819)
(-0.20954 0 0.0613786)
(-0.204898 0 0.0701773)
(-0.199586 0 0.0801075)
(-0.215182 0 0.0944983)
(-0.230753 0 0.105814)
(-0.298237 0 0.119551)
(-0.358361 0 0.129697)
(-0.345423 0 0.154875)
(-0.319002 0 0.180514)
(-0.177123 0 0.2043)
(-0.0544499 0 0.230853)
(-0.023198 0 0.223061)
(-0.0020103 0 0.222992)
(-0.00152921 0 0.224669)
(-0.00113369 0 0.225146)
(-0.00118229 0 0.22491)
(-0.000926822 0 0.224624)
(-0.205513 0 -0.00437055)
(-0.201698 0 -0.00199729)
(-0.208563 0 -0.00584973)
(-0.211866 0 -0.00478326)
(-0.214791 0 -0.00251321)
(-0.217527 0 -0.00141365)
(-0.219491 0 0.000662961)
(-0.222188 0 0.00660766)
(-0.224098 0 0.0143059)
(-0.224975 0 0.0194249)
(-0.225373 0 0.0245817)
(-0.224728 0 0.0365924)
(-0.223387 0 0.0490976)
(-0.220949 0 0.0579721)
(-0.217891 0 0.0684478)
(-0.235103 0 0.0828808)
(-0.25235 0 0.0963834)
(-0.325618 0 0.109221)
(-0.393854 0 0.119739)
(-0.393616 0 0.143322)
(-0.378578 0 0.166568)
(-0.219688 0 0.194074)
(-0.0766108 0 0.223847)
(-0.0323339 0 0.218624)
(-0.00112864 0 0.21982)
(-0.000471355 0 0.222501)
(-3.77781e-05 0 0.223455)
(-0.000681872 0 0.223985)
(-0.000753429 0 0.224295)
(-0.207459 0 -0.00871106)
(-0.203041 0 -0.00870059)
(-0.193416 0 -0.00730013)
(-0.180539 0 -0.00389606)
(-0.211396 0 -0.00740802)
(-0.215581 0 -0.00740445)
(-0.219237 0 -0.00667786)
(-0.223109 0 -0.00160639)
(-0.226965 0 0.00474296)
(-0.229325 0 0.00874344)
(-0.231529 0 0.0129576)
(-0.233132 0 0.0239313)
(-0.233916 0 0.0356942)
(-0.233651 0 0.0441647)
(-0.232751 0 0.0542301)
(-0.252121 0 0.0684697)
(-0.271228 0 0.0846237)
(-0.349187 0 0.0959822)
(-0.42406 0 0.107382)
(-0.437158 0 0.129814)
(-0.435591 0 0.150774)
(-0.262833 0 0.181507)
(-0.10284 0 0.212578)
(-0.0439955 0 0.211333)
(-3.25734e-05 0 0.214465)
(0.00108088 0 0.217916)
(0.00172034 0 0.21972)
(0.000234216 0 0.221384)
(-0.000424418 0 0.222384)
(-0.210924 0 -0.0132015)
(-0.205683 0 -0.0120445)
(-0.195319 0 -0.0146075)
(-0.18186 0 -0.0142338)
(-0.169513 0 -0.0105317)
(-0.152277 0 -0.0055377)
(-0.215796 0 -0.0136978)
(-0.221004 0 -0.010061)
(-0.225817 0 -0.00472089)
(-0.230292 0 -0.00247701)
(-0.23379 0 0.000816617)
(-0.237998 0 0.0104279)
(-0.240959 0 0.021632)
(-0.242697 0 0.0290862)
(-0.244022 0 0.0376841)
(-0.265788 0 0.0522706)
(-0.287031 0 0.0702322)
(-0.369334 0 0.0796341)
(-0.449668 0 0.0923413)
(-0.476006 0 0.113755)
(-0.48901 0 0.132871)
(-0.305061 0 0.166231)
(-0.131454 0 0.197448)
(-0.0571687 0 0.200671)
(0.00131859 0 0.206461)
(0.00305936 0 0.210444)
(0.00414517 0 0.213325)
(0.00166939 0 0.216349)
(0.00018769 0 0.218353)
(-0.216044 0 -0.0179161)
(-0.209797 0 -0.0202303)
(-0.198429 0 -0.0220582)
(-0.184088 0 -0.0213684)
(-0.171122 0 -0.0210004)
(-0.153768 0 -0.0184259)
(-0.138158 0 -0.0131197)
(-0.119678 0 -0.00764704)
(-0.222009 0 -0.0138408)
(-0.228019 0 -0.013001)
(-0.23355 0 -0.0113721)
(-0.239144 0 -0.00265914)
(-0.244715 0 0.00737559)
(-0.247902 0 0.0132266)
(-0.251092 0 0.0194856)
(-0.275658 0 0.0342605)
(-0.299503 0 0.0530548)
(-0.386123 0 0.0612399)
(-0.471434 0 0.0741954)
(-0.510325 0 0.0950103)
(-0.537961 0 0.112797)
(-0.345057 0 0.147728)
(-0.160815 0 0.178119)
(-0.0707365 0 0.186248)
(0.00315052 0 0.194907)
(0.00559636 0 0.199445)
(0.00732532 0 0.203718)
(0.0036206 0 0.208352)
(0.00113386 0 0.211574)
(-0.222587 0 -0.0229789)
(-0.215567 0 -0.0222883)
(-0.202935 0 -0.0297201)
(-0.18759 0 -0.0332274)
(-0.173738 0 -0.0317084)
(-0.155353 0 -0.0282092)
(-0.139977 0 -0.0256887)
(-0.122537 0 -0.023225)
(-0.109442 0 -0.0173123)
(-0.0798531 0 -0.0105076)
(-0.229447 0 -0.022987)
(-0.23657 0 -0.0161688)
(-0.243256 0 -0.00698965)
(-0.24935 0 -0.00376563)
(-0.253749 0 0.000824026)
(-0.281288 0 0.015207)
(-0.30788 0 0.0336219)
(-0.398866 0 0.040392)
(-0.489316 0 0.0526016)
(-0.538858 0 0.0741003)
(-0.581222 0 0.0909656)
(-0.381093 0 0.125571)
(-0.188658 0 0.154355)
(-0.083553 0 0.167052)
(0.00607955 0 0.178759)
(0.00898539 0 0.184252)
(0.0113934 0 0.190161)
(0.00619679 0 0.196722)
(0.00248703 0 0.201434)
(-0.230444 0 -0.0285674)
(-0.222337 0 -0.0335685)
(-0.208576 0 -0.0378201)
(-0.19209 0 -0.039073)
(-0.177279 0 -0.0425664)
(-0.158452 0 -0.0424345)
(-0.142541 0 -0.0382701)
(-0.124091 0 -0.0348657)
(-0.111824 0 -0.03238)
(-0.0878746 0 -0.0292767)
(-0.0560581 0 -0.0218849)
(-0.0332383 0 -0.0192751)
(-0.238586 0 -0.0209166)
(-0.246793 0 -0.0197743)
(-0.254218 0 -0.0176733)
(-0.283053 0 -0.00341028)
(-0.311921 0 0.0129798)
(-0.40674 0 0.0182182)
(-0.501699 0 0.0283191)
(-0.557785 0 0.0494554)
(-0.613784 0 0.0668162)
(-0.410147 0 0.0975176)
(-0.211475 0 0.124464)
(-0.0938793 0 0.14169)
(0.0108413 0 0.156657)
(0.0136545 0 0.163748)
(0.0166026 0 0.171703)
(0.00953055 0 0.180702)
(0.00432769 0 0.187213)
(-0.240076 0 -0.0349091)
(-0.230518 0 -0.0334101)
(-0.215241 0 -0.046503)
(-0.19717 0 -0.0543012)
(-0.181297 0 -0.0539523)
(-0.161535 0 -0.0504025)
(-0.145724 0 -0.0504226)
(-0.128257 0 -0.0500052)
(-0.114629 0 -0.0460708)
(-0.0925973 0 -0.0424757)
(-0.0659655 0 -0.0393732)
(-0.0506242 0 -0.0489423)
(-0.0318634 0 -0.0442121)
(0.0539501 0 -0.0255645)
(-0.249516 0 -0.035521)
(-0.280781 0 -0.0234047)
(-0.311267 0 -0.00705987)
(-0.408731 0 -0.00390647)
(-0.507303 0 0.00302773)
(-0.563651 0 0.0223942)
(-0.627077 0 0.0400004)
(-0.427216 0 0.0591851)
(-0.225534 0 0.0830852)
(-0.100125 0 0.107629)
(0.0180199 0 0.126669)
(0.0199606 0 0.136619)
(0.0230418 0 0.14717)
(0.0137382 0 0.159279)
(0.00673232 0 0.168055)
(-0.274118 0 -0.0415826)
(-0.241025 0 -0.0512241)
(-0.22429 0 -0.0559064)
(-0.203263 0 -0.0576469)
(-0.185905 0 -0.0661535)
(-0.164428 0 -0.0675822)
(-0.148268 0 -0.06266)
(-0.131128 0 -0.0576828)
(-0.118066 0 -0.0574313)
(-0.102123 0 -0.0574516)
(-0.0772594 0 -0.0532094)
(-0.0631263 0 -0.0685999)
(-0.0523641 0 -0.0770569)
(0.0141478 0 -0.074965)
(0.0970043 0 -0.0547172)
(0.153853 0 -0.046864)
(-0.306846 0 -0.0255565)
(-0.403642 0 -0.0268176)
(-0.503024 0 -0.0221673)
(-0.555324 0 -0.00715262)
(-0.617761 0 0.0105276)
(-0.427533 0 0.0154525)
(-0.230312 0 0.0302055)
(-0.101419 0 0.0626809)
(0.0267377 0 0.0869054)
(0.0276163 0 0.101358)
(0.0304118 0 0.115324)
(0.018775 0 0.131412)
(0.00968578 0 0.143032)
(-0.390426 0 -0.0479491)
(-0.298746 0 -0.041217)
(-0.258899 0 -0.0650615)
(-0.214489 0 -0.0810603)
(-0.194441 0 -0.079333)
(-0.167896 0 -0.0725563)
(-0.15061 0 -0.0754229)
(-0.132715 0 -0.0738536)
(-0.119755 0 -0.0677664)
(-0.107353 0 -0.0633821)
(-0.0889686 0 -0.0633017)
(-0.0806269 0 -0.0806267)
(-0.0713424 0 -0.0943292)
(-0.0290647 0 -0.10027)
(0.0370111 0 -0.0980668)
(0.093296 0 -0.106419)
(0.152338 0 -0.0933691)
(0.311707 0 -0.0406222)
(-0.488826 0 -0.0464546)
(-0.53394 0 -0.0377793)
(-0.586417 0 -0.0230195)
(-0.410108 0 -0.0309275)
(-0.221824 0 -0.0282792)
(-0.0974894 0 0.00912653)
(0.0343452 0 0.0388028)
(0.0349587 0 0.0571106)
(0.0374424 0 0.0754972)
(0.0241274 0 0.0963006)
(0.0129807 0 0.111364)
(-0.50293 0 -0.0670135)
(-0.46457 0 -0.066802)
(-0.359256 0 -0.0739555)
(-0.272968 0 -0.0710309)
(-0.230713 0 -0.0918592)
(-0.180875 0 -0.0987739)
(-0.159115 0 -0.0888677)
(-0.134489 0 -0.0779041)
(-0.120829 0 -0.0781499)
(-0.108829 0 -0.0764654)
(-0.0955767 0 -0.0716154)
(-0.0896444 0 -0.0801347)
(-0.0860327 0 -0.0970367)