/*--------------------------------*- C++ -*----------------------------------*\
| =========                 |                                                 |
| \\      /  F ield         | OpenFOAM: The Open Source CFD Toolbox           |
|  \\    /   O peration     | Version:  5.x                                   |
|   \\  /    A nd           | Web:      www.OpenFOAM.org                      |
|    \\/     M anipulation  |                                                 |
\*---------------------------------------------------------------------------*/
FoamFile
{
    version     2.0;
    format      ascii;
    class       surfaceScalarField;
    location    "2.3";
    object      alphaPhi10;
}
// * * * * * * * * * * * * * * * * * * * * * * * * * * * * * * * * * * * * * //

dimensions      [0 3 -1 0 0 0 0];

internalField   nonuniform List<scalar> 
30582
(
0.000166484
-2.47619e-06
0.000167545
-1.0608e-06
0.000166498
-4.944e-06
0.000164394
3.15093e-06
0.000167464
-2.02611e-06
0.000166
-6.86464e-06
0.000156402
7.9912e-06
0.000164247
6.36793e-06
0.000167195
-3.22103e-06
0.000165233
-7.94614e-06
0.00014417
1.22324e-05
0.000155942
1.62962e-05
0.000164381
9.18188e-06
0.00016544
-3.42857e-06
0.000164034
-7.73645e-06
0.000129335
1.48352e-05
0.000143692
2.44819e-05
0.000156744
2.39334e-05
0.000161698
1.29241e-05
0.000164648
-4.04257e-06
0.000161039
-4.40993e-06
0.00011365
1.56848e-05
0.000129212
2.93155e-05
0.000144921
3.63053e-05
0.000153787
3.18446e-05
0.00016149
1.60822e-05
0.000158945
-1.94897e-06
0.000159473
6.25638e-07
9.6959e-05
1.66911e-05
0.000113726
3.11709e-05
0.000130298
4.39381e-05
0.000142422
4.76696e-05
0.00015468
3.86549e-05
0.000153499
2.15282e-05
0.000158494
-9.70563e-07
0.000144127
2.11715e-05
7.95599e-05
1.73991e-05
9.71858e-05
3.32311e-05
0.000114586
4.68833e-05
0.000128955
5.74057e-05
0.000144601
5.77484e-05
0.000147705
4.44488e-05
0.000154676
2.53464e-05
0.000135279
6.52543e-06
3.21205e-05
-4.5801e-06
6.14355e-05
1.81244e-05
7.98751e-05
3.47098e-05
9.79897e-05
4.98272e-05
0.00011405
6.17884e-05
0.000131536
7.04706e-05
0.000140139
6.53144e-05
0.000150145
4.89802e-05
0.000132286
2.8306e-05
3.81374e-05
1.40104e-06
-6.21725e-06
1.55092e-07
4.25935e-05
1.8842e-05
6.18134e-05
3.6186e-05
8.05667e-05
5.21328e-05
9.79522e-05
6.59246e-05
0.000116237
7.70878e-05
0.000129547
8.1063e-05
0.000143294
7.21649e-05
0.000131337
4.95479e-05
5.2774e-05
2.21877e-06
-8.29595e-06
6.62509e-08
1.67454e-07
1.46487e-09
2.30299e-05
1.95636e-05
4.29947e-05
3.76608e-05
6.24445e-05
5.43081e-05
8.07676e-05
6.93174e-05
9.94212e-05
8.27402e-05
0.000115733
9.09017e-05
0.000132438
9.19187e-05
0.000130893
7.16808e-05
6.86321e-05
1.07352e-05
-1.11112e-05
5.44483e-08
7.02935e-08
8.26342e-10
9.2586e-10
-1.13627e-12
3.02947e-06
2.00004e-05
2.33352e-05
3.92231e-05
4.3593e-05
5.65123e-05
6.28405e-05
7.22353e-05
8.17913e-05
8.69472e-05
9.96319e-05
9.88412e-05
0.000117891
0.000105446
0.000125919
9.52554e-05
8.24112e-05
2.11001e-05
-1.34381e-05
-4.52906e-09
-9.18513e-10
2.93283e-10
2.5978e-10
6.3137e-13
-1.30909e-13
3.49236e-16
-1.64389e-05
1.94683e-05
3.08128e-06
4.02543e-05
2.38339e-05
5.89822e-05
4.41138e-05
7.52389e-05
6.38183e-05
9.02083e-05
8.24649e-05
0.000104114
0.000100507
0.000116223
0.00011595
0.000113135
9.32114e-05
3.36963e-05
-1.27675e-05
-1.35094e-08
-7.45604e-09
5.47887e-12
8.85786e-12
5.48583e-13
-6.35613e-14
-2.29454e-17
2.25785e-16
-2.01899e-23
-3.40451e-05
1.76062e-05
-1.68528e-05
3.94024e-05
3.35277e-06
6.07355e-05
2.41591e-05
7.8937e-05
4.52188e-05
9.38385e-05
6.48644e-05
0.000107809
8.24655e-05
0.000122151
0.000101601
0.00012795
9.83881e-05
4.61645e-05
-1.11413e-05
1.05897e-08
-1.75961e-08
-4.27077e-14
2.87683e-12
3.96123e-15
-1.29057e-16
7.54024e-17
1.86835e-17
-1.1379e-23
-2.07143e-23
-4.84787e-05
1.44336e-05
-3.50839e-05
3.58373e-05
-1.71025e-05
5.98577e-05
2.90397e-06
8.19906e-05
2.52047e-05
9.8951e-05
4.6542e-05
0.000112161
6.47905e-05
0.00012548
8.57208e-05
0.000135482
0.000101395
5.61969e-05
-9.02351e-06
5.5148e-07
-6.9762e-08
1.67757e-11
2.20953e-12
2.08764e-15
-7.60348e-17
3.28337e-19
4.06262e-19
1.02547e-20
-4.61436e-22
-5.779e-05
9.3113e-06
-4.98964e-05
2.92461e-05
-3.62449e-05
5.49798e-05
-1.88127e-05
8.15743e-05
3.51103e-06
0.000103684
2.62859e-05
0.000119207
4.68271e-05
0.000130121
6.98662e-05
0.0001391
0.000104496
6.2602e-05
-4.43375e-06
1.10731e-06
-1.84801e-07
2.44943e-10
2.23144e-12
7.32383e-15
-1.99796e-16
3.66223e-19
1.73829e-20
2.88964e-23
-6.0227e-25
-6.03608e-05
2.57083e-06
-5.94488e-05
1.88636e-05
-5.22886e-05
4.52898e-05
-3.93359e-05
7.5503e-05
-1.92034e-05
0.000104289
3.51275e-06
0.000126457
2.65891e-05
0.000139443
5.34109e-05
0.000144752
0.000106323
6.97751e-05
3.13873e-06
1.96873e-06
-4.78316e-07
8.696e-10
9.29238e-12
2.49494e-14
-1.34387e-17
1.06918e-18
8.53111e-21
3.31504e-23
-4.68589e-25
-5.53869e-05
-4.97393e-06
-6.23548e-05
5.4769e-06
-6.31303e-05
2.97053e-05
-5.67141e-05
6.26681e-05
-4.14415e-05
9.77411e-05
-2.11571e-05
0.000128959
2.93123e-06
0.000150114
3.38334e-05
0.000157556
0.000102722
8.91841e-05
1.37695e-05
3.51441e-06
-1.07635e-06
1.26263e-09
3.22945e-11
5.43201e-14
2.85904e-15
4.17745e-18
-1.69522e-20
6.50649e-23
-2.15903e-25
-4.27197e-05
-1.26672e-05
-5.76237e-05
-9.70512e-06
-6.68091e-05
9.15563e-06
-6.85969e-05
4.15881e-05
-6.13089e-05
8.25355e-05
-4.58769e-05
0.000122461
-2.3327e-05
0.000155217
8.79889e-06
0.000174072
8.99904e-05
0.000116418
2.54361e-05
6.67101e-06
-1.35174e-06
-4.4366e-10
6.81934e-11
1.6438e-14
1.41029e-14
7.45764e-18
-7.01725e-20
2.45981e-22
1.89701e-25
-2.29059e-05
-1.98137e-05
-4.49316e-05
-2.53593e-05
-6.22358e-05
-1.42784e-05
-7.32512e-05
1.38099e-05
-7.58928e-05
5.6172e-05
-6.86201e-05
0.000105279
-5.05138e-05
0.000149648
-2.14191e-05
0.000184821
6.62736e-05
0.000147541
3.41634e-05
1.26806e-05
-7.85117e-07
-5.99672e-10
1.96426e-10
-2.10196e-13
3.05259e-14
6.27167e-18
-1.70324e-19
4.1132e-22
3.25008e-24
2.9172e-06
-2.58231e-05
-2.48744e-05
-3.98709e-05
-4.94551e-05
-3.814e-05
-6.94937e-05
-1.80359e-05
-8.23109e-05
2.0228e-05
-8.54701e-05
7.3022e-05
-7.69057e-05
0.000131671
-5.45438e-05
0.000182635
3.157e-05
0.000173405
3.36725e-05
2.1956e-05
4.3085e-07
1.11697e-07
2.1358e-09
-3.79409e-13
1.64753e-14
-3.66742e-18
-3.42844e-19
3.36487e-22
1.06395e-23
3.30923e-05
-3.01751e-05
1.39169e-06
-5.20892e-05
-2.89654e-05
-6.03606e-05
-5.65805e-05
-5.10532e-05
-7.89481e-05
-2.13987e-05
-9.37165e-05
2.84744e-05
-9.78096e-05
9.39259e-05
-8.73592e-05
0.000164482
-9.77896e-06
0.000183209
2.16162e-05
3.19745e-05
1.2024e-06
4.76593e-07
1.38036e-08
1.22251e-10
-5.84617e-13
5.10617e-17
-8.49004e-19
-1.29752e-22
1.90875e-23
6.58615e-05
-3.27692e-05
3.20562e-05
-6.08396e-05
-1.93009e-06
-7.91245e-05
-3.5243e-05
-8.16981e-05
-6.59909e-05
-6.40104e-05
-9.19574e-05
-2.31579e-05
-0.000108692
3.93566e-05
-0.00011415
0.000120717
-4.949e-05
0.000169826
2.20005e-06
3.81687e-05
1.61716e-07
1.075e-06
2.71827e-08
1.39162e-09
-1.99041e-12
9.94969e-15
-6.31702e-18
1.65649e-21
1.0298e-24
9.93216e-05
-3.34601e-05
6.54344e-05
-6.61474e-05
2.98717e-05
-9.26414e-05
-6.86879e-06
-0.000107499
-4.38788e-05
-0.00010381
-7.875e-05
-7.72177e-05
-0.000107516
-2.43331e-05
-0.000129304
5.45106e-05
-8.42732e-05
0.000130492
-1.81062e-05
3.76947e-05
-2.8863e-06
1.61233e-06
2.30225e-08
5.2532e-09
4.21669e-11
2.95537e-13
-2.77346e-16
3.79968e-19
-8.58999e-22
0.000131725
-3.24033e-05
9.94913e-05
-6.7517e-05
6.45032e-05
-0.000100779
2.66744e-05
-0.000126185
-1.38777e-05
-0.0001375
-5.50755e-05
-0.000127485
-9.45425e-05
-9.01908e-05
-0.000130778
-2.27409e-05
-0.000108059
6.63146e-05
-3.46787e-05
2.9985e-05
-6.84939e-06
1.79973e-06
-1.20461e-08
1.01321e-08
2.08985e-10
2.19503e-12
-2.99884e-15
1.20465e-17
-2.48068e-20
0.000161626
-2.99008e-05
0.000132464
-6.53763e-05
9.98146e-05
-0.000102828
6.31816e-05
-0.000137286
2.2006e-05
-0.000162068
-2.25516e-05
-0.000170024
-6.95231e-05
-0.000152503
-0.000117061
-0.000103372
-0.000116245
-1.08271e-05
-4.39536e-05
1.57064e-05
-1.07938e-05
1.56433e-06
-6.7642e-08
1.23506e-08
4.72087e-10
5.57702e-12
1.24684e-14
9.89828e-17
-2.03903e-19
0.000187944
-2.63179e-05
0.000162843
-6.02792e-05
0.000133901
-9.94623e-05
0.000100446
-0.000140093
6.12299e-05
-0.00017651
1.64949e-05
-0.000201115
-3.40396e-05
-0.000205505
-8.9764e-05
-0.000178838
-0.000106066
-9.13577e-05
-4.61006e-05
-2.70811e-06
-1.4264e-05
9.33285e-07
-1.68582e-07
1.17417e-08
7.76255e-10
6.76177e-12
6.82161e-14
2.61926e-16
-1.82385e-19
0.000209983
-2.2039e-05
0.000189532
-5.30072e-05
0.000165193
-9.15718e-05
0.000136316
-0.000135332
0.000101198
-0.000180061
5.91104e-05
-0.000219126
8.82548e-06
-0.000243977
-5.05774e-05
-0.000243363
-8.07389e-05
-0.000169514
-4.18119e-05
-2.68932e-05
-1.48153e-05
-9.67988e-08
-3.65366e-07
1.00785e-08
1.14685e-09
6.76334e-12
1.2798e-13
3.05017e-16
7.44611e-19
0.000227387
-1.74042e-05
0.000211804
-4.43109e-05
0.000192573
-8.03869e-05
0.000169147
-0.000124402
0.000139433
-0.000173567
0.000102461
-0.000223412
5.58616e-05
-0.000266157
-1.93659e-06
-0.000290961
-4.52019e-05
-0.000235296
-3.18125e-05
-4.95355e-05
-1.33023e-05
-1.326e-06
-6.49002e-07
3.34488e-09
2.25446e-09
8.82913e-12
2.75462e-13
3.34239e-16
1.75496e-18
0.000240132
-1.27453e-05
0.000229336
-3.49369e-05
0.000215344
-6.70819e-05
0.0001977
-0.00010894
0.000174092
-0.000159062
0.000143882
-0.000214988
0.000103919
-0.000271462
5.20746e-05
-0.000318164
-3.05046e-06
-0.000282182
-1.68368e-05
-6.74611e-05
-1.02803e-05
-2.7779e-06
-8.1189e-07
-1.05058e-08
4.05128e-09
3.85755e-12
1.41234e-12
1.14652e-15
4.11029e-18
0.000248327
-8.19436e-06
0.000242121
-2.55298e-05
0.000233177
-5.27699e-05
0.000221158
-9.05401e-05
0.000203995
-0.000138844
0.000181305
-0.000196485
0.000149643
-0.000260703
0.000106726
-0.000323709
4.21353e-05
-0.00030553
3.21575e-07
-7.78378e-05
-6.31735e-06
-4.1521e-06
-7.64817e-07
-3.45531e-08
5.64197e-09
-2.19659e-11
4.70308e-12
2.04543e-16
2.25546e-17
0.000252161
-3.83389e-06
0.00025039
-1.6463e-05
0.000246063
-3.84153e-05
0.000239263
-7.08749e-05
0.000228378
-0.000114923
0.000213401
-0.000170941
0.000190873
-0.000237704
0.000157621
-0.000308704
8.51619e-05
-0.00030196
1.76341e-05
-7.85919e-05
-1.32712e-06
-5.03206e-06
-4.87401e-07
-7.39937e-08
6.95059e-09
-1.08094e-10
1.02298e-11
-8.13964e-15
-2.81316e-17
0.000251965
1.96125e-07
0.000254334
-7.77807e-06
0.000254182
-2.45822e-05
0.000252256
-5.14077e-05
0.000246973
-8.94705e-05
0.000238973
-0.000140494
0.000224992
-0.000205046
0.000201253
-0.000277883
0.000124327
-0.000276737
3.46514e-05
-6.99086e-05
3.93573e-06
-5.09718e-06
-1.35002e-07
-1.11523e-07
6.32898e-09
-3.33364e-10
2.26171e-11
-5.91115e-14
-1.52321e-16
0.000247971
3.9939e-06
0.00025389
6.40299e-07
0.000257838
-1.14343e-05
0.000260624
-3.29508e-05
0.000260018
-6.44522e-05
0.000257776
-0.000108273
0.000251266
-0.000166753
0.000235953
-0.000235799
0.000157861
-0.000236347
4.92283e-05
-5.56695e-05
7.55542e-06
-4.34969e-06
2.05249e-07
-1.16492e-07
3.34578e-09
-5.98908e-10
3.16938e-11
-2.30443e-13
3.72714e-16
0.000240557
7.41409e-06
0.000249761
8.12236e-06
0.000257817
6.61475e-07
0.000264621
-1.5431e-05
0.000268125
-4.10578e-05
0.000270718
-7.7395e-05
0.000269903
-0.000126894
0.000260996
-0.000187606
0.000183234
-0.000186738
5.97145e-05
-4.03002e-05
9.01613e-06
-3.19424e-06
3.94815e-07
-9.43736e-08
-9.20622e-11
-6.35922e-10
1.93491e-11
-4.19607e-13
1.96393e-15
0.000230082
1.0475e-05
0.000242156
1.50191e-05
0.000253441
1.24989e-05
0.00026374
1.54227e-06
0.000271807
-1.91136e-05
0.000279166
-4.95051e-05
0.000282117
-8.95922e-05
0.000276462
-0.000138358
0.00019805
-0.000134845
6.58522e-05
-2.66414e-05
8.97145e-06
-2.06806e-06
4.10244e-07
-5.65047e-08
-2.48585e-09
-5.25693e-10
1.31403e-12
-4.05516e-13
1.93109e-15
0.000217188
1.28935e-05
0.000231603
2.10284e-05
0.000245453
2.30062e-05
0.000259192
1.70469e-05
0.000271698
1.65131e-06
0.000283192
-2.31398e-05
0.000290044
-5.74188e-05
0.000284225
-9.39787e-05
0.000199903
-8.65336e-05
6.80623e-05
-1.59832e-05
8.10828e-06
-1.20525e-06
3.08708e-07
-2.49267e-08
-2.80853e-09
-2.96982e-10
-9.76203e-12
-3.27351e-13
3.3536e-16
0.000202498
1.46904e-05
0.000218653
2.58437e-05
0.000234392
3.20899e-05
0.000250816
3.1382e-05
0.000266611
2.21346e-05
0.000282423
2.41996e-06
0.000294783
-2.78705e-05
0.00028715
-5.78738e-05
0.000190175
-4.78504e-05
6.69252e-05
-8.70613e-06
6.86987e-06
-5.91812e-07
1.63806e-07
-9.53211e-09
-2.00523e-09
-1.02547e-10
-7.48647e-12
-1.70004e-13
-2.32018e-16
1.55898e-05
0.000186908
0.000203798
2.95453e-05
0.000220873
3.93624e-05
0.000239189
4.37178e-05
0.000257311
4.06815e-05
0.000277297
2.72611e-05
0.000294746
2.44815e-06
0.000286187
-2.59914e-05
0.000172922
-2.15205e-05
6.30408e-05
-4.37515e-06
5.52437e-06
-2.07027e-07
4.25814e-08
-3.18156e-09
-1.13965e-09
-2.7545e-11
-3.00014e-12
-4.38772e-14
8.94085e-17
3.16205e-05
0.000187767
3.9399e-05
0.000147509
0.000205471
4.49473e-05
0.000224942
5.36093e-05
0.00024445
5.65793e-05
0.000267508
5.04704e-05
0.000288334
3.36452e-05
0.000280551
6.36097e-06
0.000154016
-6.16832e-06
5.743e-05
-2.0775e-06
4.27603e-06
-5.46331e-08
-1.28103e-09
-8.54206e-10
-5.12728e-10
-5.87035e-12
-1.03549e-12
-7.46999e-15
1.09243e-16
4.82889e-05
0.000188803
7.97725e-05
0.000147393
3.52955e-05
0.000112213
0.000208768
6.11203e-05
0.000228838
6.92206e-05
0.00025378
7.03066e-05
0.000275998
6.27424e-05
0.000267906
4.15092e-05
0.000136058
5.80889e-06
5.01182e-05
-8.331e-07
3.21066e-06
-1.49977e-08
-6.27017e-09
-1.79254e-10
-1.85809e-10
-9.92709e-13
-2.27002e-13
-9.46231e-16
2.79292e-17
6.58268e-05
0.00019123
0.000121508
0.000147067
7.19118e-05
0.000110777
2.67514e-05
8.54618e-05
0.000211327
7.86313e-05
0.000236976
8.60247e-05
0.000259017
8.7167e-05
0.000250023
7.19254e-05
0.000121089
1.6622e-05
4.18408e-05
6.58021e-08
2.29122e-06
-3.1676e-09
-5.19225e-09
-3.25049e-11
-6.04247e-11
-1.4207e-13
-2.99211e-14
-8.23423e-17
1.47192e-18
8.45768e-05
0.000192577
0.000165597
0.000147141
0.000109918
0.000109061
5.59714e-05
8.15573e-05
1.11389e-05
7.43229e-05
0.000218069
9.75385e-05
0.000239057
0.000105785
0.000228573
9.55931e-05
0.000108329
2.41502e-05
3.41759e-05
6.47086e-07
1.56524e-06
6.9399e-09
-4.55841e-09
-3.74331e-12
-2.00068e-11
-1.80168e-14
-2.86392e-15
-6.78528e-18
-3.09033e-19
0.000105052
0.000197593
0.000211664
0.000146511
0.000151357
0.000105702
8.65516e-05
7.8481e-05
2.597e-05
6.67262e-05
-1.23593e-05
8.66822e-05
0.000217308
0.000118991
0.000204792
0.000112359
9.66801e-05
2.8733e-05
2.73867e-05
9.48661e-07
1.02796e-06
1.27325e-08
-4.06713e-09
5.66445e-12
-8.2568e-12
-1.62731e-15
-2.89311e-16
-6.86105e-19
-1.34658e-19
0.000127228
0.000194739
0.000261924
0.00014733
0.000195517
0.000102351
0.00012118
7.10739e-05
4.46117e-05
5.98392e-05
-1.41503e-05
6.85172e-05
-5.34463e-05
0.000140128
0.000179765
0.000123074
8.61616e-05
3.07686e-05
2.17303e-05
1.08614e-06
6.52527e-07
1.20509e-08
-2.91417e-09
1.71663e-11
-4.69996e-12
2.74087e-15
-1.55314e-16
-3.55626e-20
-3.74282e-20
0.000129207
0.000154204
0.000314499
0.000140883
0.000244244
9.85988e-05
0.000159071
6.44603e-05
7.18148e-05
4.38708e-05
-7.67672e-06
5.33657e-05
-9.40509e-05
0.000109122
-7.4901e-05
0.000215029
7.60018e-05
3.15257e-05
1.72571e-05
1.10211e-06
4.19548e-07
9.5642e-09
-1.81588e-09
2.21866e-11
-3.25639e-12
5.12197e-15
-2.13408e-16
2.32752e-19
-1.382e-20
3.13424e-05
6.63538e-05
0.000309758
9.79333e-05
0.000294657
8.88485e-05
0.000201755
5.59098e-05
0.000106795
2.94801e-05
1.03976e-05
2.57965e-05
-0.000112538
7.1853e-05
-0.000150276
0.000184496
-0.000129156
0.000344185
1.39198e-05
1.062e-06
2.81501e-07
7.19473e-09
-1.08607e-09
1.74944e-11
-1.94707e-12
7.95803e-15
-3.04049e-16
3.86869e-19
-8.26681e-21
1.01668e-06
1.12363e-05
7.01634e-05
4.38407e-05
0.000284853
4.64762e-05
0.000246221
4.27654e-05
0.00014999
1.2708e-05
3.86615e-05
1.21627e-06
-0.000112703
2.59615e-05
-0.00022221
0.000143788
-0.000251143
0.000306483
-2.5336e-05
0.000369521
1.93019e-07
5.44313e-09
-6.52728e-10
1.0852e-11
-9.57586e-13
7.896e-15
-2.94834e-16
5.6082e-19
-5.17016e-21
4.24686e-09
1.26641e-07
2.22297e-06
6.57662e-06
6.25179e-05
1.88545e-05
0.000238691
-6.05159e-07
0.000198492
-7.46163e-06
8.71005e-05
-3.57367e-05
-8.4541e-05
-2.69451e-05
-0.000265125
6.88765e-05
-0.000342102
0.000234747
-7.19257e-05
0.000353073
6.89396e-05
0.000300582
-3.77746e-10
6.28893e-12
-5.10544e-13
5.24967e-15
-1.9954e-16
6.22802e-19
-2.29699e-21
3.37369e-12
-2.12505e-10
7.84204e-09
4.26164e-08
2.14305e-06
2.74656e-06
5.24691e-05
-6.91496e-06
0.000201074
-5.23181e-05
0.000147118
-6.89764e-05
-8.90766e-06
-0.000111275
-0.000249893
-4.21564e-05
-0.000430705
0.00015748
-0.000180666
0.000343487
8.05612e-05
0.000341451
0.00219186
0.000660542
-0.00255182
-3.00006e-13
3.05793e-15
-1.17987e-16
4.91455e-19
-6.68711e-22
1.58402e-15
-1.17742e-13
4.0838e-12
-3.13668e-10
9.67065e-09
-6.01895e-08
1.98103e-06
-1.45192e-06
4.59732e-05
-3.6126e-05
0.000164193
-0.000110422
8.87126e-05
-0.000167145
-0.000135915
-0.000224556
-0.000442506
-3.03053e-05
-0.000354484
0.000331299
4.58706e-05
0.000378177
0.0017703
0.000763017
0.0024517
0.000851288
-0.00264245
0.000453946
-0.00300577
-7.4198e-17
3.48021e-19
-3.5603e-22
2.44335e-19
-2.28854e-17
1.08962e-15
-2.17925e-13
6.2228e-12
-6.93842e-10
1.35913e-08
-2.97092e-07
2.0791e-06
-6.56235e-06
4.02666e-05
-6.79131e-05
0.000132758
-0.000187412
1.64476e-05
-0.000315411
-0.000355886
-0.000310352
-0.000457137
7.23513e-05
-1.04432e-05
0.000387612
0.00135623
0.000792247
0.00226429
0.000950436
0.00213406
0.000945946
-0.00222872
0.00069072
-0.00287922
0.000330517
-0.00333629
-5.80777e-22
-4.43682e-22
2.32503e-19
-4.0054e-17
1.27329e-15
-4.60808e-13
1.63954e-11
-2.39448e-09
3.38483e-08
-1.28654e-06
2.04283e-06
-1.38553e-05
3.32755e-05
-9.25221e-05
0.000101778
-0.000283339
-0.00015603
-0.000509724
-0.000414681
-0.000352657
-9.09392e-05
0.000152847
0.00101272
0.000731116
0.00203679
0.00101974
0.00205958
0.00102491
0.00171979
0.0010854
-0.00185924
0.000901703
-0.0024397
0.000595448
-0.00314415
0.000232393
-0.00356868
-1.48548e-21
3.57503e-19
-1.94066e-16
6.28078e-15
-1.43651e-11
4.82337e-10
-1.32665e-07
9.03925e-08
-6.3534e-06
1.50716e-06
-2.06919e-05
2.33653e-05
-0.000102596
4.43622e-05
-0.000463502
-0.000256846
-0.000665155
-0.000252308
-0.000191285
0.000703568
0.000462004
0.00174957
0.00101833
0.00197544
0.00110389
0.00165979
0.00108491
0.00150449
0.00125089
-0.00166999
0.00110464
-0.00206218
0.000813292
-0.00265754
0.0004405
-0.00335226
0.000140341
-0.00370902
-1.56626e-19
1.65361e-16
-2.90609e-13
5.95678e-11
-8.94879e-09
1.12692e-07
-2.41816e-06
1.26522e-07
-1.10005e-05
8.78205e-07
-2.88071e-05
3.42401e-05
-0.00013883
-1.37994e-05
-0.000691929
-0.000287564
-0.000629241
0.000344348
0.000167935
0.00132483
0.000886746
0.00180583
0.00118795
0.00163148
0.00113219
0.00141041
0.001179
0.00121176
0.00148554
-0.00144643
0.00130027
-0.00186561
0.00104094
-0.00228982
0.000685483
-0.00290253
0.000322911
-0.00353483
7.12265e-05
-0.00378025
-9.6093e-16
1.53073e-12
-2.65357e-10
2.81801e-08
-4.73797e-07
1.95043e-07
-4.25006e-06
-3.16981e-07
-9.61901e-06
2.11055e-06
-1.84364e-05
1.91089e-05
-0.000172699
-0.000119382
-0.000843457
6.28798e-05
-0.000347773
0.000870797
0.000621969
0.00157009
0.00112249
0.00157372
0.0012457
0.00130267
0.00123993
0.0010461
0.00134466
0.00104936
0.000398128
-0.00117592
0.000397527
0.000408261
0.00040804
0.00151087
-0.00165705
0.00125017
-0.00207485
0.000950343
-0.00255468
0.000559144
-0.00313875
0.000180178
-0.00364378
-3.2901e-05
-0.00374735
-1.4698e-12
1.23367e-09
-3.22623e-08
1.88575e-07
-1.5882e-06
-3.78851e-07
-2.98917e-06
-2.79378e-07
-4.58024e-06
1.93516e-06
-5.5877e-06
-2.55803e-06
-0.000270224
-0.000131313
-0.000640574
0.000413771
0.000109252
0.00123262
0.000959433
0.00142419
0.00127202
0.00116686
0.00138151
0.00098515
0.00130088
0.000808357
0.0015857
-5.47545e-07
0.000190565
-0.000221278
0.000429355
0.000415379
-0.00136172
0.00041495
0.000433072
0.000432883
0.000191054
-0.000221377
0.000427269
-3.85079e-07
0.000167137
0.000432079
0.000168595
0.000430116
0.0014684
-0.00187528
0.00121878
-0.00234326
0.000828958
-0.00282441
0.000364125
-0.00332256
4.00531e-06
-0.00368068
-0.000123211
-0.00362413
-4.06646e-10
3.16689e-08
-2.38197e-07
-1.06768e-11
-1.61922e-06
-4.3288e-07
-5.30003e-07
6.40592e-08
-8.83693e-07
9.3804e-08
-5.49356e-06
-1.12055e-05
-0.000376404
6.95491e-05
-0.000296388
0.000733864
0.000608012
0.00120168
0.00118194
0.000994255
0.00144463
0.00092456
0.0014421
0.000620998
0.00148824
-0.000139127
-0.000140228
0.000564635
0.000401528
0.000400436
0.000416994
0.000417235
-6.6676e-07
-0.000247787
0.000442435
-2.64866e-07
0.000139062
-0.000161786
0.000452318
-0.00159764
0.00170412
-0.000247594
0.000440379
-5.81879e-07
-0.000265351
0.000451037
-0.000264524
0.00044905
0.000139643
-0.00016153
0.000448863
-1.86236e-07
0.00043221
0.000429356
0.00150102
-0.00215704
0.00110725
-0.0026208
0.000594747
-0.00305405
0.000121277
-0.0034394
-0.000187832
-0.00361604
-0.000227188
-0.00339695
-6.64811e-09
1.20553e-08
-3.00056e-07
-3.33064e-07
-2.85191e-07
-3.11615e-08
-3.62405e-08
6.0096e-09
-1.93637e-07
-1.48451e-07
-1.26149e-05
-1.72847e-05
-0.000315343
0.000276661
0.000160793
0.000896598
0.000913095
0.000810019
0.00136617
0.000782893
0.00158629
0.000488181
0.00157492
0.000448162
0.00039418
0.00039442
0.000408169
0.000407946
3.36198e-07
6.71182e-05
-8.28409e-05
0.000416931
6.6281e-05
-8.12615e-05
0.000415763
-1.53649e-07
6.16212e-05
0.000422646
6.12691e-05
0.000422099
-2.71556e-07
-0.000183178
0.000463962
1.10806e-06
9.86099e-05
-0.000108258
0.000129387
9.976e-05
0.00012675
0.000104986
-0.00183329
0.00173705
0.000198663
0.000197583
-0.00112285
0.00048239
0.000482882
0.000467287
0.000465896
-0.000182389
0.000460834
-3.12678e-07
0.000466599
0.000463701
9.78629e-05
-0.000107399
0.000128512
0.000100689
0.000126092
0.000104228
1.00362e-06
0.000125271
9.68297e-05
0.000124021
0.000100895
0.000124547
9.85724e-05
0.000123481
0.000100412
0.00137304
-0.00242032
0.000825097
-0.00284676
0.000288614
-0.00321849
-0.000163373
-0.00346341
-0.00040007
-0.00344312
-0.000330162
-0.00306678
-7.56401e-09
-6.44244e-08
-8.78948e-08
-7.06298e-08
-1.32604e-08
-4.26116e-09
-2.10134e-09
-9.2864e-10
-9.20532e-08
-2.17042e-07
-2.31655e-05
-8.9778e-06
-7.39138e-05
0.000490135
0.000567251
0.000596317
0.0011268
0.000585024
0.00156404
0.00036767
0.00170681
0.000321004
0.000418988
0.000418846
0.000432552
0.000431687
-1.14786e-07
4.65233e-05
0.000409392
4.65006e-05
0.000409074
-1.04375e-07
3.58114e-05
0.000418986
3.57476e-05
0.000418595
4.19974e-07
2.11034e-05
-1.45883e-05
-1.16726e-06
9.11401e-05
-1.09386e-05
0.000115323
9.15306e-05
0.000116059
8.10013e-06
2.1e-05
-1.50241e-05
-1.20928e-06
-1.09925e-05
9.14525e-05
0.0001153
9.16632e-05
0.000115951
8.0666e-06
5.35574e-07
1.83839e-05
9.42862e-05
0.000117568
9.42909e-05
0.000118748
1.87483e-05
9.44225e-05
0.000117427
9.44147e-05
0.000118626
1.14439e-06
-0.000116147
0.000131508
0.000102336
0.000129808
0.000107045
-9.68337e-06
9.67585e-06
1.64219e-07
8.63596e-06
0.000120595
-9.21796e-06
7.96505e-06
-9.15335e-06
0.000110171
2.40199e-07
-1.09541e-05
0.000118563
8.62205e-06
0.00011401
-0.00203933
0.00158201
-0.00126314
0.000466579
0.000466769
0.000471065
0.000472377
-1.96661e-07
0.000130508
-0.000139398
0.000491163
0.000131809
-0.00014027
0.00049082
3.59147e-07
0.000121194
0.000475949
0.000122463
0.00047533
-0.000115728
0.000130776
0.000103821
0.00012922
0.000106475
1.00866e-06
0.000132004
0.00010132
0.000129047
0.000108185
0.00013134
0.000103563
0.000128647
0.000107813
-9.73717e-06
9.51359e-06
8.63456e-06
0.000120266
-9.02496e-06
8.46524e-06
-9.68159e-06
0.000110933
-1.10457e-05
0.000118615
8.74374e-06
0.000113467
5.69156e-06
1.10496e-05
2.1345e-07
0.000116952
-1.37837e-05
-9.42354e-06
0.000105456
2.25035e-07
0.00011454
0.000111152
5.76121e-06
1.10227e-05
0.000116611
-1.34962e-05
-9.61864e-06
0.000106671
0.000114762
0.000110566
0.0010644
-0.00265712
0.000460413
-0.00301856
-8.81695e-05
-0.00329127
-0.000475436
-0.00338793
-0.00060671
-0.00316654
-0.000409133
-0.00265765
-5.80509e-10
-7.62681e-09
-5.59514e-09
-5.64761e-09
-1.27451e-09
-1.08992e-09
-3.38507e-10
-8.05366e-10
-5.51218e-08
-2.27213e-07
-3.24189e-05
9.01207e-05
0.000301228
0.000321276
0.000842284
0.000357219
0.0013546
0.000243231
0.00168848
0.000188743
0.000452927
0.000452414
0.000467141
0.000466585
-7.87374e-08
1.78695e-05
0.000437009
1.80718e-05
0.000436443
-6.72387e-08
4.83986e-06
0.000445649
5.1257e-06
0.000444566
8.10547e-07
8.32689e-06
9.34214e-05
0.000115496
9.36337e-05
0.000116124
8.83573e-06
9.36959e-05
0.000115391
9.46701e-05
0.000116049
1.09391e-06
-5.15493e-06
9.83159e-05
0.000119293
9.58014e-05
0.000117951
-5.02262e-06
9.94145e-05
0.000119289
9.69256e-05
0.00011789
-4.55232e-06
-7.57036e-06
-1.45063e-06
0.000104714
-5.86433e-06
-4.66572e-06
0.000105057
-9.50894e-06
-1.13346e-08
0.000116425
3.82277e-06
-6.08483e-06
-8.91879e-06
9.89648e-05
9.09531e-09
-9.06271e-06
0.000109498
2.77876e-08
3.98022e-06
0.000112791
-5.8539e-06
-4.80588e-06
0.000106346
-4.46211e-06
-7.43554e-06
-1.81082e-06
0.000105166
-9.47148e-06
3.75474e-06
0.000116544
-6.01378e-06
-8.78299e-06
9.90259e-05
-9.01933e-06
0.000109495
3.92451e-06
0.000113078
-7.20262e-06
9.9823e-06
-1.05288e-05
0.000102033
8.8818e-06
3.44378e-08
-9.27647e-06
0.000110727
-6.9351e-06
0.00010229
3.59885e-08
0.000111554
-7.18235e-06
9.8144e-06
-1.04813e-05
0.000102272
8.80717e-06
-9.251e-06
0.000110723
-6.91012e-06
0.000102356
0.00011154
1.10381e-05
9.58278e-06
1.59874e-07
-1.22199e-05
0.000122925
-9.36336e-06
-1.00327e-05
0.000112578
2.37023e-07
0.000120291
-1.00433e-05
0.000116637
-1.26518e-06
2.14967e-06
-7.49305e-08
-4.58405e-07
0.000120243
-1.92164e-06
1.16423e-06
-2.81318e-07
0.000111217
-6.1443e-08
-7.80066e-07
0.000116241
9.11764e-07
0.000116421
-0.00223853
0.00126661
-0.00142689
0.000433953
0.000433406
0.000439917
0.000440129
-2.25248e-07
0.000148016
-0.000158128
0.000476784
0.000148072
-0.000158129
0.000476461
-2.27425e-07
0.000479674
0.000479724
7.18314e-07
5.05704e-05
-4.74689e-05
0.000107742
0.000134969
0.000108677
0.000135923
5.04272e-05
-4.69448e-05
0.000108333
0.000134853
0.000109121
0.000135857
5.39802e-07
5.33636e-06
2.29537e-05
0.000108331
-4.83806e-06
0.000135245
0.000107538
0.00013575
1.54277e-05
5.43455e-06
2.29041e-05
0.000108428
-4.67263e-06
0.000135199
0.000107738
0.000135639
1.53831e-05
1.1103e-05
9.48774e-06
-1.22878e-05
0.000122622
-9.11263e-06
-1.00281e-05
0.000113279
0.00012039
-1.02076e-05
0.000116142
-1.51154e-05
1.10071e-05
1.73261e-07
0.000123712
-1.49937e-05
9.13385e-06
0.00011251
2.08745e-07
0.000121697
0.000118278
-1.5172e-05
1.08701e-05
0.00012352
-1.45281e-05
9.51063e-06
0.000113996
0.000122053
0.000117985
-1.27173e-06
1.88076e-06
-4.04958e-07
0.000119987
-1.71466e-06
1.23702e-06
-3.41521e-07
0.000111756
-7.84216e-07
0.000116352
1.14435e-06
0.000115444
4.44745e-06
3.69907e-08
0.000115963
0.000111855
4.41519e-06
0.000115753
0.000111324
0.000626153
-0.00282286
-1.95779e-05
-0.00308715
-0.000501891
-0.00326877
-0.000795933
-0.00319902
-0.00077782
-0.00279785
-0.000468112
-0.00218953
-3.28748e-12
-7.98611e-11
-6.32697e-10
-1.11663e-09
-1.55345e-10
-3.76594e-10
-7.49014e-11
-4.6776e-10
-2.82314e-08
-2.85927e-07
2.57204e-05
5.7484e-05
0.000534929
0.000124538
0.00107495
9.62969e-05
0.00150153
4.38755e-05
0.000455584
0.000455106
0.000461422
0.000461238
-1.5298e-08
-2.31546e-06
0.000460098
-2.01491e-06
0.000459539
-6.69983e-08
-1.1284e-05
0.000476176
-1.10534e-05
0.000475557
9.8152e-07
-1.54306e-05
0.000101052
0.000121772
0.000101894
0.000121537
-1.57092e-05
0.000102106
0.000121731
0.000102861
0.000121423
9.57976e-07
-2.79808e-05
0.000106378
0.000123717
0.000104433
0.000122751
-2.89736e-05
0.000107369
0.000123591
0.00010526
0.000122601
-7.22059e-06
-1.18459e-05
0.000101959
-1.12106e-05
2.59814e-09
0.000110186
-7.71312e-06
-1.19547e-05
0.000101449
-3.11725e-08
-1.17607e-05
0.000108946
-7.113e-06
-1.20428e-05
0.000102369
-1.12352e-05
0.000110265
-7.38073e-06
-1.21526e-05
0.00010216
-1.17556e-05
0.00010917
-7.33374e-06
1.40103e-05
-1.49925e-05
0.000106638
1.38833e-05
-2.33585e-08
-1.5316e-05
0.000113387
-7.68001e-06
0.000105544
-1.41487e-08
0.000112433
-7.00217e-06
1.41713e-05
-1.53528e-05
0.000107598
1.39635e-05
-1.53641e-05
0.000113653
-7.38537e-06
0.00010633
0.000112685
-2.01539e-06
4.92618e-06
-7.51304e-07
-2.09489e-05
-2.24346e-05
-1.07715e-09
-2.74616e-08
8.29094e-06
-1.34948e-06
-9.36416e-06
-8.73783e-10
-9.18643e-06
-1.92584e-06
5.04603e-06
-7.37852e-07
-2.09432e-05
8.33522e-06
-2.24302e-05
-1.34389e-06
-9.35183e-06
-9.16523e-06
-1.54404e-06
8.27122e-06
-8.24323e-06
8.20015e-06
-1.72911e-08
-8.26005e-06
-1.67783e-06
-2.68015e-09
-1.50148e-06
8.31196e-06
-8.40521e-06
8.21072e-06
-8.30115e-06
-1.67761e-06
5.17024e-07
2.11916e-06
-2.90386e-08
-2.51817e-06
0.000122811
-1.90411e-06
6.77064e-07
0.000113523
-2.28305e-08
0.000118108
1.94262e-07
0.00011924
4.7412e-06
1.09387e-06
-9.26184e-09
-6.79236e-06
-1.12441e-06
-4.75742e-06
4.5929e-06
-3.76308e-08
4.69723e-06
-6.04009e-06
-0.00238237
0.000769985
-0.0015752
0.000348198
0.000347783
0.000360721
0.000360465
-1.51156e-07
0.000172003
-0.000171221
0.000433328
0.000171306
-0.000170505
0.00043248
-1.10352e-07
0.000453897
0.000453198
1.38939e-06
4.64136e-05
-5.57101e-05
0.000107418
0.00013386
0.000108802
0.00013458
4.56661e-05
-5.51816e-05
0.000108634
0.000133749
0.000110286
0.000134582
1.05028e-06
0.000105921
0.000131536
0.000107056
0.000132876
0.000106546
0.000131461
0.000108398
0.000132826
-8.57284e-06
-4.4744e-06
6.88056e-06
0.000113911
-3.39176e-06
-2.69934e-08
6.06847e-06
0.000123679
-8.25175e-06
-4.05818e-06
0.000116508
-2.32257e-08
-2.02311e-06
0.000126326
-8.36288e-06
-4.40246e-06
6.61452e-06
0.000114485
-3.37386e-06
6.0406e-06
0.000123705
-8.09128e-06
-3.90231e-06
0.000116711
-1.99682e-06
0.000126248
-5.54612e-06
6.31387e-06
-1.81017e-05
0.000125661
-6.3724e-06
-4.21767e-06
0.000118256
1.97531e-06
-2.80385e-08
0.000138058
-1.03514e-05
-7.26621e-06
0.000117064
-4.86499e-09
0.000128341
-1.9841e-08
6.00146e-06
0.000124789
-5.45266e-06
6.17514e-06
-1.8674e-05
0.000126383
-6.29493e-06
-4.13384e-06
0.000119738
1.98451e-06
0.00013819
-1.04601e-05
-7.18889e-06
0.000117196
0.000128297
5.99324e-06
0.000125121
4.66831e-07
1.97971e-06