/*--------------------------------*- C++ -*----------------------------------*\
| =========                 |                                                 |
| \\      /  F ield         | OpenFOAM: The Open Source CFD Toolbox           |
|  \\    /   O peration     | Version:  5.x                                   |
|   \\  /    A nd           | Web:      www.OpenFOAM.org                      |
|    \\/     M anipulation  |                                                 |
\*---------------------------------------------------------------------------*/
FoamFile
{
    version     2.0;
    format      ascii;
    class       volScalarField;
    location    "2.3";
    object      alpha.water;
}
// * * * * * * * * * * * * * * * * * * * * * * * * * * * * * * * * * * * * * //

dimensions      [0 0 0 0 0 0 0];

internalField   nonuniform List<scalar> 
12160
(
1
1
1
1
1
1
1
1
1
1
1
1
1
1
1
1
1
1
1
1
1
1
1
1
1
1
1
1
1
1
1
1
1
1
0.999995
1
1
1
1
1
1
1
0.999998
0.991563
0.497605
1
1
1
1
1
1
1
0.994202
0.557427
0.0198262
1
1
1
1
1
1
1
0.996852
0.583062
0.0219727
0.000873277
1
1
1
1
1
1
0.999999
0.996614
0.620814
0.0231786
0.000522185
8.98057e-06
1
1
1
1
1
1
0.999996
0.995637
0.6533
0.031269
0.000153967
3.783e-06
5.90617e-09
1
1
1
1
1
1
0.999992
0.994496
0.68392
0.0456257
4.12538e-05
4.99971e-07
6.23583e-10
2.46426e-12
1
1
1
1
1
1
0.999989
0.994043
0.713239
0.0640526
6.46006e-05
3.6983e-08
3.90295e-10
6.21002e-13
1.50842e-17
1
1
1
1
1
1
0.99999
0.994315
0.743722
0.0846073
0.000134191
5.45834e-08
5.71928e-12
6.36373e-14
2.02779e-19
1
1
1
1
1
1
0.999991
0.994989
0.777496
0.108479
0.000422045
1.12345e-07
1.46232e-11
4.21401e-16
4.78237e-18
1
1
1
1
1
1
0.999995
0.995952
0.81706
0.13937
0.00086297
3.09577e-07
3.10607e-11
7.57992e-16
1.37555e-20
1
1
1
1
1
1
0.999998
0.996955
0.857512
0.179033
0.00205192
6.52584e-07
9.41359e-11
1.48786e-15
2.75385e-20
1
1
1
1
1
1
1
0.997946
0.891033
0.230224
0.00493796
1.05452e-06
1.92605e-10
4.87692e-15
4.49279e-20
1
1
1
1
1
1
1
0.998918
0.91542
0.290087
0.0103911
2.31911e-06
4.08808e-10
9.435e-15
1.64577e-19
1
1
1
1
1
1
1
0.999776
0.932088
0.348473
0.0188326
1.88908e-05
1.01163e-09
1.91964e-14
3.07711e-19
1
1
1
1
1
1
1
0.999994
0.942582
0.396193
0.0293391
0.000151779
7.12084e-09
4.75423e-14
6.15747e-19
1
1
1
1
1
1
1
1
0.947404
0.428728
0.039621
0.000438592
1.34716e-07
3.77917e-13
1.51402e-18
0.999999
0.999999
1
1
1
1
1
1
0.949651
0.447116
0.0473113
0.000821473
8.59271e-07
8.43469e-12
1.68923e-17
1
1
0.999999
1
1
1
1
0.99997
0.951684
0.457766
0.0521402
0.00115075
2.54301e-06
1.34637e-10
3.27366e-16
1
1
1
1
1
1
1
0.999709
0.953051
0.467318
0.0551142
0.00134226
4.40798e-06
7.47059e-10
4.97242e-15
1
1
1
1
1
1
0.999999
0.999477
0.950149
0.480998
0.0580185
0.00142599
5.35617e-06
1.67911e-09
2.99136e-14
1
1
1
1
1
1
0.999999
0.999301
0.948792
0.503969
0.0620024
0.00158324
5.91313e-06
2.0309e-09
7.00655e-14
0.999999
0.999999
0.999999
1
1
1
0.999999
0.999139
0.9484
0.525325
0.0642875
0.00200424
8.46051e-06
2.65389e-09
8.45963e-14
0.999999
0.999999
0.999999
0.999999
1
1
0.999998
0.998954
0.946852
0.538478
0.0660249
0.00265366
1.41143e-05
7.769e-09
1.37645e-13
1
1
0.999999
0.999999
1
1
0.999997
0.998721
0.942811
0.539494
0.0662351
0.00322536
2.11035e-05
2.11086e-08
9.43954e-13
1
1
1
0.999999
0.999999
1
0.999996
0.998388
0.935525
0.525526
0.0641884
0.00360986
3.44208e-05
4.87952e-08
3.70543e-12
1
1
1
1
0.999999
0.999999
0.999995
0.997888
0.923905
0.495009
0.0590444
0.00365926
5.45012e-05
1.29267e-07
1.44414e-11
1
1
1
1
1
1
0.999993
0.997188
0.907422
0.449772
0.0507275
0.00333131
6.90473e-05
2.84875e-07
5.78605e-11
1
1
1
1
1
1
0.99999
0.996293
0.88641
0.394263
0.0411198
0.00278538
6.48417e-05
4.09205e-07
1.61767e-10
1
1
1
1
1
1
0.999987
0.99521
0.862029
0.333587
0.0318121
0.00213849
5.22523e-05
3.85044e-07
2.34758e-10
1
1
1
1
1
1
0.999982
0.993894
0.835729
0.273386
0.023598
0.00149525
3.37754e-05
3.20099e-07
1.99486e-10
1
1
1
1
1
1
0.99997
0.992013
0.8081
0.21911
0.0167654
0.000958149
1.70495e-05
1.99899e-07
1.61154e-10
1
1
1
1
1
1
0.999949
0.989061
0.774152
0.174219
0.0116857
0.000528455
8.21444e-06
7.94589e-08
9.04295e-11
1
1
1
1
1
1
0.999902
0.98488
0.73064
0.139541
0.00826079
0.000229042
4.03853e-06
2.53143e-08
2.62822e-11
1
1
1
1
1
1
0.999816
0.979184
0.680187
0.11129
0.00595879
8.7322e-05
1.70758e-06
7.53449e-09
5.30495e-12
1
1
1
1
1
1
0.999685
0.97281
0.630672
0.0892251
0.00431224
3.91776e-05
6.14914e-07
1.9329e-09
8.64917e-13
1
1
1
1
1
0.999999
0.999512
0.966656
0.587524
0.0746582
0.00318051
2.28678e-05
2.18384e-07
4.19608e-10
1.03974e-13
0.999999
1
1
1
1
1
0.9993
0.96117
0.552249
0.0653883
0.00241186
1.89699e-05
8.35162e-08
9.16088e-11
1.27877e-14
0.999076
0.999997
1
1
1
1
1
0.956209
0.523993
0.0595766
0.00184619
1.78472e-05
4.12726e-08
2.31607e-11
2.41063e-15
0.95241
0.998713
0.999995
1
1
1
1
1
0.501296
0.0555558
0.00146457
1.41361e-05
2.9642e-08
8.52313e-12
5.94594e-16
0.483455
0.948454
0.998201
0.999992
1
1
1
1
1
0.0524698
0.0012238
1.02432e-05
2.53336e-08
5.94305e-12
2.91445e-16
0.0497308
0.461012
0.943688
0.997808
0.999984
1
1
1
1
1
0.00105512
7.2966e-06
1.9198e-08
5.84328e-12
2.64695e-16
0.000904139
0.0463669
0.443329
0.939904
0.997022
0.999966
0.999999
1
1
0.999999
1
5.16719e-06
1.26581e-08
5.31378e-12
2.83248e-16
3.43086e-06
0.000783528
0.0454779
0.433856
0.934953
0.995985
0.999737
0.999979
0.999999
1
0.999999
1
7.92607e-09
3.74942e-12
2.82495e-16
4.488e-09
2.24855e-06
0.000852826
0.0453359
0.430247
0.93124
0.991212
0.998821
0.999942
1
0.999999
1
1
1
2.43473e-12
2.25364e-16
1.52883e-12
1.88055e-09
2.72407e-06
0.000971886
0.0479174
0.43301
0.924408
0.982103
0.998241
0.999994
0.999999
1
1
1
1
1
1.66254e-16
1.26287e-16
5.29998e-13
2.04504e-09
4.25111e-06
0.00137198
0.0505929
0.444037
0.908108
0.975899
0.999664
0.999998
1
1
1
1
1
1
1
5.48491e-17
5.9855e-13
4.8804e-09
2.28161e-05
0.00277062
0.0559981
0.450718
0.838856
0.98722
0.999991
1
1
1
1
1
1
1
1
1
9.37292e-17
2.00383e-11
7.87514e-07
0.000521803
0.00659333
0.0642025
0.431128
0.814434
0.998069
0.999999
1
1
1
1
0.999996
1
1
1
1
1
6.44051e-14
2.47822e-08
9.09682e-05
0.00205189
0.00873966
0.0805987
0.280341
0.903778
0.999999
1
1
1
1
0.999998
0.999909
0.999996
1
1
0.999999
1
1
1.95533e-10
7.44983e-06
0.000712058
0.00244528
0.00855189
0.0417265
0.236227
0.97946
1
1
1
1
1
0.999979
0.999744
0.999889
0.999747
0.999853
0.999831
0.999996
0.999996
0.999988
0.99998
0.999999
1
1.37654e-07
0.000137178
0.00110037
0.00108599
0.0037456
0.0110903
0.479623
0.999968
1
1
1
1
0.999999
0.999975
0.999559
0.999626
0.999963
0.999557
0.999466
0.999465
0.999628
0.999806
0.999799
0.999913
0.999861
0.999797
0.999891
0.999996
1
7.06164e-06
0.000316866
0.000568053
0.000183561
0.000843336
0.00835183
0.723102
0.999985
1
1
1
1
0.999999
0.999914
0.999824
0.999999
0.999983
0.999236
0.998472
0.999917
0.999253
0.999239
0.999043
0.999068
0.998455
0.999495
0.999347
0.999043
0.998836
0.99901
0.999767
0.999991
1
2.87514e-05
0.000249878
7.6428e-05
1.62589e-05
0.00028271
0.0259158
0.870014
0.999998
1
1
1
0.999999
1
1
1
1
0.999979
0.999947
1
0.999998
0.997974
1
0.998631
1
0.998592
0.999107
0.99978
0.99885
0.998748
0.998329
0.9983
0.997974
0.998204
0.998081
1
0.998578
1
0.998609
1
0.999584
1
0.999154
1
0.999451
1
0.999401
0.997321
0.997237
0.998147
0.999729
0.999988
0.999999
2.30546e-05
5.37916e-05
5.57291e-06
2.03425e-06
0.000179197
0.0556282
0.964141
0.999995
1
1
1
1
1
1
1
0.999993
0.999978
0.999995
0.999992
0.999986
0.999615
1
0.99999
1
1
0.999497
0.999891
1
0.999968
1
1
0.999987
1
0.999998
1
1
1
0.999977
1
0.999344
0.99814
1
0.997974
1
0.998713
0.999999
0.998705
0.997436
0.999659
0.999547
0.999584
0.999463
0.999465
0.997486
0.997177
0.998591
0.998481
0.999487
0.998122
0.999862
0.998027
0.999482
0.997664
0.99948
0.997633
0.999484
0.997801
0.999482
0.99763
1
0.998584
0.999998
0.998585
1
0.999187
1
0.999377
0.997237
0.997237
0.998542
0.99987
0.999989
0.999999
1.8929e-06
5.52e-06
1.26483e-06
6.30972e-07
0.000158436
0.115855
0.956468
0.999987
1
1
1
1
1
1
0.999995
0.999998
0.999996
0.999999
0.999953
1
0.999957
1
0.999966
1
0.999973
1
1
1
0.999973
1
0.999993
1
1
1
0.99974
1
1
1
1
1
0.999553
0.999955
1
1
1
1
0.999969
1
1
1
0.999938
1
0.999985
1
0.999357
0.998168
0.999916
0.997978
1
0.998775
1
0.998785
0.997237
0.998941
0.999863
0.999856
0.999864
0.999863
0.99958
0.999579
0.997487
0.9975
0.996525
1
0.996526
1
0.997241
0.999272
0.997145
0.999242
0.996526
0.997672
0.996525
0.996525
0.997659
0.999482
0.996525
0.997722
0.996526
0.996526
0.997622
0.999484
0.999488
0.99808
0.999786
0.997942
0.999464
0.997634
0.999486
0.99763
1
0.998695
1
0.99876
1
0.999352
1
0.999505
0.99724
0.997534
0.999719
0.999962
0.999994
0.999997
2.27202e-08
1.45332e-06
3.08939e-07
2.52221e-07
0.000208252
0.0936564
0.882591
0.996844
0.999885
1
1
1
1
1
1
1
1
1
1
0.999997
1
0.999998
1
0.999999
1
0.999996
1
0.999996
1
0.999999
1
0.999999
1
0.999953
1
0.999959
1
0.999973
1
0.99997
1
0.999992
1
0.999976
1
0.999991
1
0.999986
1
0.999453
0.998148
0.999811
0.998011
0.998329
0.998775
0.999701
0.9997
0.999796
0.999792
0.99956
0.9996
0.999035
0.99908
0.998585
0.999582
0.998637
0.999567
0.998677
0.999583
0.998635
0.999563
0.997483
1
0.997533
1
0.997523
1
0.997531
1
0.99657
1
0.996563
0.999982
0.997264
0.99934
0.997213
0.998832
0.997663
0.996525
0.99655
0.997998
0.996561
0.997832
0.997619
0.996526
0.996525
0.998003
0.996699
0.997369
0.999543
0.998137
0.999683
0.99813
0.99916
0.997633
0.999383
0.99769
0.998909
0.999616
0.999956
0.99999
0.999997
0.999995
5.90746e-10
2.60076e-07
2.77274e-08
2.7157e-07
0.000313649
0.0408645
0.704669
0.968085
1
1
1
1
1
1
1
1
1
0.999992
1
0.999993
1
1
1
0.999999
1
0.999996
1
0.999995
1
0.999999
1
0.999999
1
1
1
0.999992
1
0.999624
0.999684
0.999704
0.999676
0.999646
0.999638
0.999769
0.999736
0.999792
0.999791
0.999621
1
0.999646
1
0.999626
1
0.999624
1
0.999038
1
0.999138
1
0.99889
1
0.999057
1
0.997736
0.999178
0.997788
0.999448
0.997712
0.999007
0.997805
0.999446
0.997489
0.999992
0.997481
1
0.997457
1
0.997454
1
0.999768
0.99996
0.999989
0.999998
0.999998
0.999995
5.0491e-11
7.22844e-09
1.58987e-08
3.39677e-07
0.000156513
0.0125846
0.436091
0.89261
0.999797
0.999792
0.986474
0.986325
1
1
1
1
1
1
1
1
1
1
1
1
1
1
1
1
1
1
1
1
1
1
1
1
1
1
0.999999
1
0.999996
1
1
1
1
1
1
1
0.999554
0.999883
0.999819
0.999707
0.999707
0.999772
0.999754
0.99997
0.999982
1
1
0.999473
1
0.999377
1
0.999488
1
0.999418
1
0.998594
0.999864
0.998774
0.999996
0.998555
0.999853
0.998785
0.999997
0.997759
0.999257
0.997679
0.998983
0.999832
0.999985
0.999997
1
0.999996
0.999997
1.40453e-11
1.57244e-09
2.11266e-08
1.55138e-07
7.71633e-05
0.00271527
0.179599
0.687458
1
1
0.963084
0.963058
1
1
1
1
1
1
1
1
1
1
1
1
1
1
1
1
1
1
1
1
1
1
1
1
1
1
0.999998
1
1
1
0.998882
0.999474
0.999883
0.999914
0.999906
0.999833
0.999845
0.999861
0.99982
0.999755
0.999754
1
0.999997
1
0.999689
1
0.999703
1
0.999646
1
0.999453
1
0.999651
1
0.999563
1
0.999677
0.999348
1
0.99929
1
0.999413
1
0.999367
1
0.998718
0.999881
0.998806
1
0.998648
0.999879
0.998812
1
0.999851
0.99999
0.999999
1
0.999994
3.0532e-12
2.17964e-09
1.56124e-08
4.80345e-08
6.4846e-05
0.000916087
0.0515782
0.636193
0.63628
0.392445
0.392257
0.995209
1
0.984763
1
0.995058
1
0.984621
1
0.965306
0.965795
1
1
1
1
1
1
1
1
0.999365
1
0.999976
1
0.999328
1
0.999977
1
1
1
1
1
1
1
1
1
0.998946
0.997995
0.999689
0.999883
0.999959
0.999957
0.999932
0.999907
0.999877
0.999835
0.99999
0.999953
0.999901
0.999795
0.999789
0.999952
0.999883
0.999755
1
0.999848
1
0.999659
1
0.999736
1
0.999645
1
0.99946
1
0.999615
1
0.999428
1
0.999603
0.999415
1
0.999415
1
0.999886
0.99999
1
1
2.66339e-12
3.22337e-09
4.36388e-09
3.98987e-08
0.000127005
0.000700671
0.0325264
0.0325477
0.00471337
0.00471337
0.57391
0.574436
0.241882
0.24191
0.990408
1
0.979053
1
0.990295
1
0.979111
1
1
0.75321
0.937721
0.860994
1
0.752277
0.938184
0.860247
1
1
1
0.999999
1
1
1
0.999999
0.999423
1
0.999976
1
0.99945
1
0.999938
1
0.99923
0.996832
0.998439
0.99899
0.999314
0.999298
0.999646
0.999709
0.999999
0.999988
0.999945
1
0.999815
1
0.999936
1
0.999847
1
1
1
0.99991
1
0.999907
0.999997
0.999922
1
0.999864
1
0.999853
0.999989
0.999913
0.999995
0.9998
0.999988
1
0.999879
1
0.999745
1
0.999701
1
0.999662
0.999764
0.999993
0.999999
1.84469e-11
2.10833e-09
9.486e-10
3.68623e-06
0.000151002
0.00470889
0.0187795
0.0187307
0.00471337
0.00471337
0.490277
0.721257
0.461163
0.359178
0.500648
0.951747
0.720837
0.489665
0.952055
0.461717
0.357633
0.501601
0.137127
0.146322
0.169848
0.211199
0.13516
0.146794
0.168389
0.211463
0.990444
1
0.982249
1
0.990378
1
0.982269
1
0.998908
0.800123
0.998931
0.799205
1
1
1
1
0.996332
1
0.996205
1
0.998209
0.997435
0.995872
0.998415
0.99758
0.99758
0.998192
0.998191
0.998725
0.998681
0.999266
0.999257
1
0.999205
1
0.999578
1
0.999738
1
0.999188
1
0.999593
1
0.999756
0.999856
1
0.999899
1
0.999865
1
0.999871
0.999948
1
1
0.999871
1
0.999858
0.999865
1
0.999999
0.999895
1
0.999769
0.999999
0.999853
0.999991
9.60788e-11
8.97464e-11
2.12984e-07
7.38558e-05
0.00189586
0.00731808
0.0073406
0.00586641
0.00585545
0.0409214
0.0406863
0.0169994
0.0169758
0.631976
0.357963
0.248969
0.679897
0.22353
0.163009
0.631678
0.356509
0.680607
0.249783
0.221937
0.163856
0.095663
0.0541282
0.165155
0.114675
0.0941585
0.0539346
0.163911
0.115138
0.931504
1
0.930971
1
0.998807
0.996307
0.995885
0.998335
0.99758
0.997649
0.997638
0.997712
0.99777
0.996369
0.999577
0.996369
0.999809
0.996347
0.999571
0.996346
0.99979
0.997559
0.998117
0.999992
0.996857
0.99993
1
0.99759
0.998152
0.99999
0.996765
0.999914
1
1
1
0.999279
0.999738
1
1
0.999338
0.999757
0.999761
1
0.999787
1
0.999787
1
0.999907
1
0.999797
1
0.999859
1
0.999958
4.01444e-12
4.48139e-10
8.11748e-06
0.000363447
0.00561779
0.0663562
0.0657885
0.0224675
0.0223896
0.0455792
0.101283
0.0898783
0.0822208
0.0472584
0.0999228
0.0913579
0.0806919
0.11054
0.1099
0.109902
0.13002
0.137534
0.115385
0.108422
0.130136
0.136479
0.115864
0.999829
0.996563
0.996706
0.999056
0.999175
0.998402
0.998285
0.9984
0.998327
0.997985
0.997845
0.997307
0.997323
0.996369
0.998464
0.99673
0.999036
0.996346
0.998441
0.996721
0.998994
0.998127
0.997154
0.999993
0.999864
0.997001
0.999644
0.998085
0.99716
0.999843
0.999995
0.996985
0.999609
1
0.999524
1
0.999529
2.22143e-13
8.74955e-08
4.20859e-05
0.00122909
0.0118706
0.0118729
0.00655596
0.00651065
0.140503
0.140142
0.0457904
0.0455185
0.158015
0.157202
0.221005
0.192539
0.157883
0.156271
0.221485
0.192031
0.233187
0.184385
0.263551
0.304693
0.233419
0.182459
0.26451
0.303698
0.140127
0.280181
0.139181
0.280757
0.998685
0.99448
0.999348
0.999348
0.998472
0.99887
0.99882
0.998915
0.998875
0.998964
0.998922
0.999573
0.996464
0.998748
0.996453
0.999524
0.996361
0.998696
0.996356
0.996541
0.998086
0.996355
0.99745
0.996458
0.998062
0.996342
0.99742
4.79536e-11
1.93871e-06
0.000188677
0.00576268
0.0547907
0.0549851
0.0213567
0.0213815
0.28759
0.248421
0.16327
0.289656
0.243402
0.223447
0.287777
0.247164
0.16325
0.289438
0.244279
0.223802
0.112053
0.112248
0.331876
0.222935
0.331861
0.24333
0.33187
0.223275
0.331866
0.244224
0.284985
0.331883
0.28513
0.331888
0.992967
0.99772
0.999348
0.999014
0.989438
0.98917
0.994146
0.994099
0.997102
0.996926
0.998429
0.998409
0.999374
0.99984
0.999157
0.99984
0.997222
0.99984
0.999293
0.99984
0.999054
0.99984
0.996787
0.99984
0.997656
0.99937
0.997358
0.999328
0.997039
0.998424
0.996916
0.998397
1.26623e-08
2.62674e-05
0.00210026
0.0153751
0.0158513
0.0107008
0.0105426
0.124703
0.124381
0.0282274
0.0285229
0.289632
0.289124
0.306863
0.276398
0.331869
0.24134
0.289374
0.289457
0.30849
0.274702
0.331882
0.240678
0.139963
0.2594
0.215703
0.331848
0.139449
0.261279
0.214643
0.331849
0.985506
0.999197
0.999299
0.975067
0.924611
0.923572
0.95089
0.950681
0.971368
0.971164
0.998617
0.99984
0.99984
0.993797
0.99984
0.975668
0.99984
0.993626
0.99984
0.975546
0.998582
0.99984
0.99935
0.999091
0.99984
0.99984
0.999377
0.998799
0.99984
0.99984
0.998473
0.99984
0.998097
0.99984
1.47972e-06
0.000424293
0.0126361
0.0232663
0.0243533
0.0216657
0.0222743
0.153017
0.330978
0.0748261
0.0762714
0.169534
0.027234
0.15193
0.33103
0.0737019
0.075007
0.165897
0.0269352
0.0241963
0.0253742
0.33186
0.245843
0.331858
0.244221
0.19243
0.321894
0.191112
0.322731
0.991289
0.999264
0.991442
0.858907
0.859278
0.803109
0.803451
0.780364
0.780748
0.814905
0.814119
0.764305
0.99984
0.875268
0.986608
0.934684
0.99984
0.758745
0.934664
0.99984
0.99984
0.875002
0.986402
0.99792
0.99984
0.979244
0.99984
0.978753
0.997879
0.99984
0.99984
3.04438e-05
0.00104388
0.024939
0.0264273
0.0277728
0.0240255
0.0258453
0.115094
0.182764
0.0284116
0.0279371
0.0214399
0.0241357
0.114057
0.180474
0.0287362
0.0281519
0.0216938
0.0253071
0.0255976
0.0263556
0.0280805
0.0410599
0.026759
0.0265279
0.0294444
0.0462394
0.146999
0.132777
0.146407
0.132764
0.998583
0.998443
0.954032
0.675212
0.6855
0.500434
0.506742
0.41881
0.420772
0.639748
0.908183
0.92489
0.50805
0.836084
0.368493
0.637163
0.905524
0.925049
0.506956
0.832861
0.368219
0.752878
0.898439
0.882061
0.99984
0.898401
0.99984
0.752203
0.880309
6.6341e-05
0.0158704
0.00334777
0.014899
0.0175232
0.00499931
0.00163708
0.00260948
0.0397565
0.0354165
0.0236877
0.0396059
0.0353521
0.0236516
0.039687
0.0174444
0.0600975
0.0261202
0.0279584
0.0312316
0.0397721
0.0173959
0.0603513
0.0272487
0.0305438
0.0331446
0.0334381
0.0236516
0.0334162
0.0236877
0.999505
0.997516
0.930853
0.56834
0.58613
0.26791
0.274667
0.148381
0.311498
0.148405
0.200086
0.244978
0.600995
0.147761
0.245142
0.600545
0.311481
0.147703
0.190335
0.575972
0.711423
0.370361
0.605225
0.574953
0.705454
0.369471
0.604359
0.634253
0.66618
0.633663
0.661995
0.00350417
0.00207706
0.00968003
0.000786861
0.00902943
0.00120301
0.000300181
0.000634969
0.0520486
0.0587074
0.0838784
0.0551173
0.0237886
0.093314
0.0330917
0.0211733
0.0568053
0.0472903
0.0906448
0.0537224
0.024029
0.104152
0.0278696
0.0205787
0.0388936
0.0345084
0.0416942
0.0351692
0.0500171
0.0341736
0.0494814
0.0333773
0.999479
0.996302
0.99781
0.469461
0.486481
0.997814
0.980107
0.982089
0.209868
0.148405
0.215647
0.210043
0.147703
0.20736
0.210042
0.148381
0.334931
0.150211
0.210191
0.312749
0.147707
0.147703
0.437045
0.465459
0.249018
0.371451
0.436877
0.465068
0.247242
0.370554
0.000829965
0.000162373
0.0032461
0.0256812
0.0170799
3.83934e-05
0.00278978
0.0232491
0.0157722
3.4259e-05
0.000187765
0.000166881
0.0595494
0.0409799
0.054737
0.110102
0.146367
0.0813175
0.0556631
0.0549375
0.0370498
0.110551
0.148793
0.0938372
0.0460267
0.0364181
0.0463727
0.036913
0.997672
0.99443
0.997783
0.783044
0.801425
0.997804
0.99178
0.991869
0.171326
0.152713
0.285405
0.156624
0.285429
0.365757
0.17956
0.530004
0.174373
0.148476
0.285429
0.149735
0.285405
0.362842
0.19813
0.533284
0.148405
0.156285
0.222816
0.285405
0.147703
0.16318
0.147644
0.268293
1.29073e-06
4.17968e-07
7.59628e-05
7.23979e-05
4.69843e-07
4.0343e-07
4.10445e-07
1.28979e-05
0.0282614
0.00608788
0.0137679
0.0124457
9.27447e-05
0.000347713
0.000492426
7.57642e-06
1.27873e-05
1.14199e-05
2.00315e-05
0.0225736
0.00736213
0.00857335
0.0128315
3.62006e-05
0.000431186
0.000602457
6.83136e-06
1.17502e-05
1.22669e-05
0.0657408
0.0311822
0.145333
0.0635749
0.0593479
0.0321675
0.149176
0.0449133
0.99515
0.991176
0.997042
0.935879
0.901086
0.578165
0.938401
0.905498
0.59335
0.997163
0.996647
0.997015
0.149358
0.373848
0.148097
0.280888
0.285432
0.710034
0.149274
0.389176
0.147666
0.218552
0.274753
0.709915
0.14867
0.247079
0.147726
0.174129
3.50088e-07
7.55136e-07
3.39355e-07
7.85436e-07
4.29515e-07
6.18963e-07
6.65105e-07
0.0124228
0.000892366
0.000392741
0.0151504
8.02213e-05
4.74319e-05
2.97871e-07
1.97938e-07
1.95398e-07
2.3543e-07
4.65786e-07
1.40325e-07
5.04748e-07
3.32043e-07
0.0146444
0.00102598
0.0134867
0.000997651
7.59062e-05
8.12151e-05
1.60424e-07
2.89128e-07
1.92942e-07
1.87357e-07
9.90055e-07
1.36246e-07
5.0935e-07
3.41683e-07
0.996425
0.990958
0.996395
0.996469
0.990003
0.99325
0.993443
0.993441
0.992981
0.852605
0.993472
0.743035
0.999861
0.986809
0.999861
0.993859
0.993074
0.855221
0.993467
0.751758
0.999861
0.986367
0.999861
0.996148
0.994777
0.999861
0.996144
0.995592
0.999861
0.202876
0.649689
0.434685
0.924347
0.207113
0.66134
0.433865
0.925103
7.84909e-07
1.21773e-07
1.19505e-07
1.19504e-07
1.79332e-06
1.37086e-07
1.19504e-07
1.19505e-07
1.82851e-06
2.3535e-06
2.30393e-06
8.36143e-05
0.000160499
1.26761e-05
1.32896e-05
3.2029e-07
1.19506e-07
2.00603e-07
3.83616e-07
2.35633e-07
1.19504e-07
7.89215e-05
0.000197444
1.3521e-05
1.74404e-05
3.16992e-07
1.38951e-07
1.19504e-07
1.35262e-07
2.04058e-07
1.19505e-07
0.996925
0.98717
0.997173
0.997208
0.987174
0.994525
0.994552
0.809435
0.959043
0.966951
0.996887
0.991744
0.999861
0.808252
0.957387
0.966562
0.996865
0.992094
0.999861
0.99767
0.997394
0.999779
0.997528
0.999861
0.999808
0.998984
0.999915
0.997612
0.997378
0.999761
0.997787
0.999861
0.999692
0.999005
0.999915
1.3374e-06
3.2412e-06
3.0664e-06
1.41832e-06
7.09137e-07
3.09486e-07
2.72758e-06
1.19506e-07
4.31896e-06
1.12605e-06
6.68263e-07
2.13673e-07
2.09731e-06
1.19504e-07
3.39172e-06
2.3279e-07
1.1951e-07
1.19504e-07
2.03001e-07
3.79612e-07
1.0883e-06
2.30619e-07
1.19509e-07
1.19505e-07
1.31852e-07
3.12406e-07
9.66399e-07
0.99696
0.987167
0.996396
0.999915
0.999502
0.996152
0.999915
0.999586
0.987331
0.994773
0.994834
0.988876
0.999861
0.995069
0.999861
0.987724
0.999861
0.996013
0.999861
0.996956
0.998711
0.997702
0.999352
0.999861
0.999889
0.996797
0.99895
0.997874
0.999861
0.999295
0.99989
2.71125e-15
4.13665e-06
2.22325e-06
3.79842e-06
2.02406e-06
7.44332e-06
5.8777e-06
7.83799e-07
5.78056e-06
8.0282e-07
2.02554e-07
4.20933e-06
7.26211e-06
4.98173e-06
4.0415e-06
5.36344e-07
3.92567e-06
6.23554e-07
1.35765e-07
3.5258e-06
5.37713e-06
1.19506e-07
1.61866e-06
1.19504e-07
1.23783e-06
0.99769
0.985846
0.985843
0.996475
0.999915
0.999064
0.999915
0.999302
0.996234
0.999915
0.999123
0.999915
0.999422
0.992304
0.99227
0.997834
0.997141
0.998942
0.999709
0.999861
0.999915
0.997843
0.997088
0.9992
0.999861
0.999699
0.999915
-1.52024e-36
1.17259e-28
4.56971e-15
1.02597e-28
3.59078e-15
4.02465e-06
3.03466e-06
2.07429e-05
3.2588e-06
7.80241e-06
7.40115e-06
2.85727e-06
8.11582e-06
3.28322e-07
8.11899e-06
2.92005e-07
1.19505e-07
5.66308e-06
1.46101e-05
2.80036e-06
5.18598e-06
4.75613e-06
1.57275e-06
5.94239e-06
2.3162e-07
6.25928e-06
2.25263e-07
1.19505e-07
4.63754e-06
0.997175
0.985926
0.987201
0.98584
0.985809
0.997258
0.999915
0.998791
0.999915
0.998572
0.9987
0.999915
0.997126
0.999915
0.998718
0.999915
0.99848
0.998927
0.999915
0.986344
0.986294
0.998601
0.999837
0.998827
0.99985
1.15745e-16
2.76719e-17
8.60011e-18
8.55586e-18
8.23784e-18
8.75173e-10
3.64452e-15
8.6189e-10
3.61751e-15
1.99513e-05
1.51297e-05
5.71717e-05
1.67302e-05
3.22502e-05
1.93759e-05
3.30922e-06
6.5585e-06
6.11809e-06
8.71946e-07
1.00769e-05
1.27411e-07
9.57406e-06
1.28749e-07
4.89722e-05
1.12511e-05
2.22185e-05
1.08619e-05
2.85815e-06
3.89468e-06
4.27424e-06
4.42184e-07
1.00357e-05
1.19505e-07
8.61196e-06
1.19505e-07
0.995367
0.987396
0.989149
0.986974
0.988979
0.985658
0.985002
0.991931
0.999915
0.999087
0.999915
0.998672
0.99982
0.998198
0.999872
0.997657
0.998534
0.999852
0.991861
0.999915
0.999005
0.999915
0.998548
0.999817
0.998288
0.999875
0.997528
0.99868
0.999861
4.18806e-16
1.73395e-16
1.15861e-16
1.73387e-16
1.15861e-16
9.93465e-12
9.8357e-14
5.40071e-12
1.80686e-14
2.05008e-06
2.26445e-07
1.38759e-06
1.63614e-07
5.71873e-05
1.17495e-05
4.58518e-05
2.71404e-05
5.60401e-05
9.75327e-06
2.79941e-05
1.27843e-05
5.71873e-05
1.29134e-05
3.07514e-05
2.04763e-05
4.81676e-05
7.47071e-06
2.21779e-05
8.514e-06
0.995754
0.988881
0.988872
0.988872
0.988872
0.988951
0.992045
0.987937
0.991675
0.984188
0.984496
0.999915
0.999179
0.999915
0.998567
0.999763
0.997542
0.999738
0.997278
0.999663
0.997886
0.999715
0.997308
0.999915
0.999113
0.999915
0.998506
0.99972
0.996953
0.999577
0.996853
0.999649
0.997899
0.999711
0.997112
2.5708e-11
1.11306e-14
3.82308e-16
1.15977e-16
3.14591e-16
1.15977e-16
1.23375e-13
1.94051e-11
1.23375e-13
4.60938e-13
4.51441e-06
1.71854e-06
1.19229e-05
1.50239e-06
1.07793e-06
2.58414e-07
3.25749e-07
3.09027e-07
4.63465e-06
1.13532e-06
9.03491e-06
8.94133e-07
9.07897e-07
1.83705e-07
2.50462e-07
1.83061e-07
5.71717e-05
5.53534e-06
4.5284e-05
2.84005e-05
5.51609e-05
4.81081e-06
2.87001e-05
1.00822e-05
0.990179
0.988872
0.988872
0.988872
0.988872
0.993319
0.992283
0.993002
0.991914
0.984186
0.990343
0.984188
0.989591
0.999326
0.997095
0.999326
0.997694
0.999915
0.997311
0.999915
0.997991
0.999884
0.998555
0.999812
0.998105
0.999873
0.998374
0.99958
0.997974
1.5183e-09
6.04411e-12
4.70118e-11
5.83053e-12
3.69783e-11
1.2524e-11
1.64825e-13
1.25397e-13
2.56209e-14
1.11062e-13
1.27362e-13
1.4377e-08
1.25883e-08
1.41985e-13
4.91137e-11
5.62259e-12
4.90213e-12
4.85903e-11
1.40009e-12
4.36226e-09
7.81384e-09
1.23375e-13
3.14352e-11
1.63106e-13
6.91293e-12
1.55742e-12
3.07063e-06
1.1433e-06
1.25721e-05
1.04806e-06
6.16139e-07
2.49262e-07
2.90475e-07
3.25101e-07
3.33257e-06
7.55349e-07
8.19333e-06
5.5382e-07
5.51768e-07
1.78221e-07
2.2867e-07
1.81064e-07
0.989786
0.995085
0.994098
0.995645
0.993953
0.99558
0.995166
0.99342
0.994675
0.9925
0.997611
0.993923
0.997519
0.991757
0.999214
0.994351
0.999214
0.989794
0.997048
0.992649
0.996902
0.990245
0.999207
0.993556
0.999214
0.988432
0.999823
0.99601
0.999729
0.997099
0.999843
0.995479
0.999756
0.996781
5.82029e-08
2.53144e-10
2.18783e-10
2.43611e-10
2.15381e-10
2.16752e-12
2.16633e-11
1.90546e-12
1.59194e-11
1.17823e-14
4.88383e-13
1.27568e-13
2.53326e-12
1.09899e-14
2.86398e-13
4.98415e-14
2.65602e-13
1.09883e-14
2.15691e-13
1.14391e-14
1.83959e-12
8.46034e-15
1.66347e-13
5.23956e-14
2.00596e-13
6.16795e-15
1.23375e-13
2.33344e-08
1.79057e-08
1.23375e-13
5.49396e-11
4.67839e-13
8.10326e-12
5.69328e-11
1.23375e-13
1.1508e-08
1.19904e-08
1.23375e-13
4.59939e-11
1.22988e-13
1.17736e-11
9.90516e-12
0.994127
0.996316
0.999322
0.999387
0.99918
0.999281
0.996617
0.998903
0.996552
0.998812
0.99922
0.996591
0.999221
0.995541
0.999014
0.993426
0.997985
0.993743
0.999221
0.996093
0.999214
0.994774
0.998994
0.99238
0.997957
0.992536
0.998371
0.994218
0.9992
0.991379
0.997852
0.993722
0.9989
0.989871
0.998359
0.993775
0.999166
0.990719
0.997755
0.992334
0.998632
0.988516
1.58854e-06
3.67663e-11
2.28342e-09
2.02944e-07
2.20964e-09
2.20392e-07
7.27507e-13
1.09883e-14
1.53343e-12
1.71916e-12
4.02892e-12
3.99838e-13
1.53864e-11
6.30563e-12
8.45797e-13
5.5274e-12
8.33638e-13
6.16795e-15
1.18182e-12
1.5184e-12
3.44774e-12
2.79627e-13
1.00064e-11
5.95469e-12
1.0686e-12
6.22967e-12
1.02349e-13
1.12015e-12
9.22209e-14
3.53813e-12
1.19286e-14
3.98353e-13
1.09897e-14
7.17439e-13
1.4221e-14
3.53488e-12
5.18353e-15
2.69135e-13
6.09216e-15
2.60952e-11
7.00787e-14
7.09759e-12
4.54137e-11
2.75378e-11
3.57417e-14
1.26498e-11
1.04644e-11
0.997916
0.996908
0.999339
0.999265
0.999294
0.999199
0.999671
0.999517
0.999599
0.99952
0.999841
0.994597
0.999061
0.998555
0.999993
0.999537
1
0.999412
0.999916
0.994688
0.999203
0.998642
0.999998
0.999344
1
0.999363
0.999227
0.99591
0.99922
0.995854
0.999111
0.99351
0.998554
0.994591
0.999079
0.994943
0.998838
0.995057
0.999075
0.992414
0.998041
0.993589
6.34033e-07
6.53929e-07
2.49243e-06
6.21593e-07
2.49307e-06
1.02698e-08
5.52144e-10
2.99405e-08
5.39914e-10
2.99398e-08
1.09899e-14
7.73604e-13
5.62306e-13
2.1337e-12
1.06175e-12
4.12015e-12
8.45797e-13
3.56728e-12
8.3901e-13
6.16539e-12
9.72489e-15
8.60954e-13
4.28183e-13
1.66603e-12
9.09701e-13
3.59655e-12
1.0686e-12
4.37663e-12
1.06004e-12
6.26717e-12
7.73404e-14
1.16103e-12
6.9614e-14
4.43238e-12
1.56546e-14
5.76363e-13
1.73585e-14
6.45523e-13
3.52067e-14
4.60585e-12
6.77013e-15
4.22135e-13
1.3033e-14
0.999581
0.998134
0.999587
0.999134
0.999236
0.999184
0.999257
0.99898
0.999329
1
0.998781
1
1
0.997842
0.999969
0.998652
1
0.999208
0.998936
1
0.998796
1
1
0.997843
0.999962
0.99865
1
0.999631
0.995317
0.998419
0.998404
0.999968
0.99931
0.999422
0.994876
0.997861
0.998222
0.999945
0.99919
0.999465
0.994364
0.999344
0.994943
0.999449
0.99284
0.998595
0.993742
1.40845e-06
3.45722e-06
2.72544e-06
3.45843e-06
2.81205e-06
6.96708e-08
5.04136e-07
5.00698e-08
3.42526e-07
3.01358e-10
2.43257e-10
3.8294e-12
2.98258e-11
3.9417e-10
3.09543e-11
2.22519e-08
5.80093e-09
3.17388e-11
2.28626e-10
5.10233e-12
3.32737e-11
3.84495e-10
3.17388e-11
1.8928e-08
5.98433e-09
3.09543e-11
2.48919e-14
6.93029e-13
3.79123e-12
1.42689e-11
6.23185e-13
5.22853e-12
9.81382e-15
4.11314e-13
8.41257e-12
1.88442e-11
7.57516e-13
4.46304e-12
4.53229e-14
0.999923
0.999382
0.999587
0.998696
0.999274
0.998781
0.999275
0.997426
0.998193
0.99747
0.998211
0.999342
0.998673
1
1
0.997419
0.999998
0.996562
0.999956
0.99693
0.999981
0.999231
0.998511
0.999999
1
0.996936
0.999998
0.996426
0.99995
0.996553
0.999981
0.99959
0.995713
0.999233
0.998509
0.999976
0.999365
0.997965
0.994395
0.996898
0.997841
0.999822
0.999105
6.07249e-06
3.54692e-07
2.25722e-06
5.05412e-06
2.10145e-06
5.08018e-06
2.12977e-09
2.7254e-08
2.90677e-09
2.13682e-09
3.05882e-09
2.6605e-09
2.12333e-07
5.84016e-08
1.4174e-08
1.41049e-09
1.36465e-09
2.00575e-08
1.89563e-09
1.37624e-09
2.53772e-09
1.8589e-09
8.31024e-08
3.5841e-08
1.38768e-09
1.39917e-09
3.9428e-11
2.32965e-10
3.86786e-12
9.44855e-11
8.84078e-11
1.63302e-10
3.09543e-11
2.03059e-10
4.92983e-12
7.18249e-11
8.68785e-11
1.60481e-10
3.17388e-11
1.61407e-14
0.999685
0.999874
0.999521
0.999272
0.999008
0.999279
0.999007
0.997627
0.999351
0.9977
0.999363
1
0.983836
1
0.985171
1
0.989908
1
0.988358
1
0.984112
1
0.985534
1
0.990168
1
0.988636
0.999103
1
0.989759
0.999994
0.992857
0.999998
0.99909
0.999998
0.989366
0.999994
0.991978
0.999998
4.32438e-05
2.33822e-06
2.37123e-06
2.50385e-06
2.40468e-06
3.42904e-08
1.75033e-07
5.30047e-07
1.00937e-07
4.58173e-07
4.39167e-09
2.25612e-09
2.26494e-09
2.29106e-09
3.02548e-09
3.03955e-09
4.64905e-08
4.34297e-09
6.17299e-09
4.29658e-09
1.35312e-09
2.3186e-09
8.82699e-10
2.23519e-09
3.95837e-09
3.11809e-09
1.4749e-08
7.061e-09
7.20726e-09
4.77924e-09
1.73735e-11
6.8342e-11
3.17388e-11
2.58179e-10
3.23503e-11
1.06945e-13
0.995238
0.999789
0.999431
0.999354
0.999398
0.99949