/*--------------------------------*- C++ -*----------------------------------*\
| =========                 |                                                 |
| \\      /  F ield         | OpenFOAM: The Open Source CFD Toolbox           |
|  \\    /   O peration     | Version:  5.x                                   |
|   \\  /    A nd           | Web:      www.OpenFOAM.org                      |
|    \\/     M anipulation  |                                                 |
\*---------------------------------------------------------------------------*/
FoamFile
{
    version     2.0;
    format      ascii;
    class       volScalarField;
    location    "2.3";
    object      k;
}
// * * * * * * * * * * * * * * * * * * * * * * * * * * * * * * * * * * * * * //

dimensions      [0 2 -2 0 0 0 0];

internalField   nonuniform List<scalar> 
12160
(
9.94366e-09
9.90509e-09
1.00189e-08
9.87912e-09
1.00521e-08
1.0009e-08
9.86421e-09
1.00813e-08
1.00185e-08
1.00084e-08
9.85689e-09
1.01301e-08
1.00295e-08
1.0016e-08
1.00084e-08
9.85387e-09
1.01534e-08
1.00413e-08
1.00223e-08
1.0016e-08
1.00094e-08
9.85296e-09
1.01554e-08
1.00484e-08
1.00272e-08
1.00216e-08
1.00184e-08
1.00098e-08
9.85289e-09
1.01486e-08
1.00498e-08
1.00298e-08
1.00252e-08
1.00239e-08
1.00218e-08
1.00171e-08
9.85307e-09
1.01397e-08
1.00479e-08
1.00303e-08
1.0027e-08
1.00267e-08
1.00284e-08
1.0041e-08
1.01426e-08
9.85323e-09
1.01314e-08
1.00459e-08
1.00298e-08
1.00274e-08
1.00278e-08
1.00309e-08
1.00458e-08
1.01443e-08
1.01508e-08
9.85324e-09
1.0124e-08
1.00445e-08
1.00292e-08
1.00273e-08
1.00279e-08
1.00311e-08
1.00422e-08
1.01337e-08
1.01501e-08
1.02262e-08
9.85305e-09
1.01173e-08
1.00437e-08
1.00287e-08
1.00269e-08
1.00279e-08
1.00305e-08
1.00397e-08
1.01169e-08
1.01558e-08
1.0225e-08
1.02449e-08
9.85268e-09
1.01111e-08
1.0043e-08
1.00284e-08
1.00266e-08
1.00278e-08
1.00301e-08
1.00399e-08
1.0104e-08
1.01576e-08
1.02455e-08
1.01995e-08
1.01329e-08
9.85231e-09
1.01054e-08
1.00423e-08
1.00281e-08
1.00263e-08
1.00275e-08
1.003e-08
1.00423e-08
1.00937e-08
1.01562e-08
1.02008e-08
1.01764e-08
1.00775e-08
1.01231e-08
9.85216e-09
1.01044e-08
1.00415e-08
1.00278e-08
1.0026e-08
1.00272e-08
1.00298e-08
1.0045e-08
1.00867e-08
1.01495e-08
1.01952e-08
1.01028e-08
1.01042e-08
1.00701e-08
1.00756e-08
9.85213e-09
1.01046e-08
1.00411e-08
1.00275e-08
1.00256e-08
1.00268e-08
1.00295e-08
1.00468e-08
1.00831e-08
1.01401e-08
1.01969e-08
1.01126e-08
1.0051e-08
1.00575e-08
1.00224e-08
9.85212e-09
1.01049e-08
1.0041e-08
1.00272e-08
1.00252e-08
1.00263e-08
1.0029e-08
1.00474e-08
1.00817e-08
1.01284e-08
1.01983e-08
1.01245e-08
1.00433e-08
1.00374e-08
1.00371e-08
9.85213e-09
1.01058e-08
1.00411e-08
1.00271e-08
1.00248e-08
1.00258e-08
1.00283e-08
1.0047e-08
1.00805e-08
1.01149e-08
1.01953e-08
1.01409e-08
1.00436e-08
1.00301e-08
1.00207e-08
9.85256e-09
1.01071e-08
1.0041e-08
1.00271e-08
1.00246e-08
1.00253e-08
1.00274e-08
1.00457e-08
1.0079e-08
1.01071e-08
1.01882e-08
1.01505e-08
1.00486e-08
1.00273e-08
1.00173e-08
9.85415e-09
1.01081e-08
1.00408e-08
1.0027e-08
1.00245e-08
1.0025e-08
1.00264e-08
1.0044e-08
1.00764e-08
1.01015e-08
1.0175e-08
1.01633e-08
1.00526e-08
1.00281e-08
1.00152e-08
9.85592e-09
1.01065e-08
1.00405e-08
1.00268e-08
1.00244e-08
1.00248e-08
1.00255e-08
1.00421e-08
1.00734e-08
1.00966e-08
1.01577e-08
1.0179e-08
1.00565e-08
1.00285e-08
1.00159e-08
9.85752e-09
1.01043e-08
1.00406e-08
1.00266e-08
1.00242e-08
1.00246e-08
1.0025e-08
1.00402e-08
1.00705e-08
1.00918e-08
1.01437e-08
1.01983e-08
1.00679e-08
1.00294e-08
1.00161e-08
9.85882e-09
1.01034e-08
1.00408e-08
1.00265e-08
1.0024e-08
1.00244e-08
1.00248e-08
1.00389e-08
1.00678e-08
1.00866e-08
1.01321e-08
1.01897e-08
1.00938e-08
1.00312e-08
1.00173e-08
9.8598e-09
1.0103e-08
1.00409e-08
1.00264e-08
1.00238e-08
1.00241e-08
1.00245e-08
1.00379e-08
1.00649e-08
1.00813e-08
1.01218e-08
1.01772e-08
1.01227e-08
1.00389e-08
1.0019e-08
9.86042e-09
1.01028e-08
1.00407e-08
1.00263e-08
1.00235e-08
1.00238e-08
1.00243e-08
1.00368e-08
1.00618e-08
1.00761e-08
1.01108e-08
1.01662e-08
1.01367e-08
1.00539e-08
1.0022e-08
9.86069e-09
1.01029e-08
1.00405e-08
1.00261e-08
1.00233e-08
1.00235e-08
1.00245e-08
1.00355e-08
1.00583e-08
1.00717e-08
1.00988e-08
1.01588e-08
1.01414e-08
1.00676e-08
1.00271e-08
9.86066e-09
1.01033e-08
1.00401e-08
1.00259e-08
1.0023e-08
1.00232e-08
1.00245e-08
1.00343e-08
1.00543e-08
1.00678e-08
1.00894e-08
1.01553e-08
1.01413e-08
1.00775e-08
1.00332e-08
9.86037e-09
1.01037e-08
1.00398e-08
1.00257e-08
1.00228e-08
1.00229e-08
1.00242e-08
1.00327e-08
1.00497e-08
1.00639e-08
1.00822e-08
1.01516e-08
1.01393e-08
1.00805e-08
1.00385e-08
9.85989e-09
1.01043e-08
1.00392e-08
1.00257e-08
1.00227e-08
1.00226e-08
1.00236e-08
1.00305e-08
1.00451e-08
1.00597e-08
1.00759e-08
1.01374e-08
1.01364e-08
1.00786e-08
1.00409e-08
9.85925e-09
1.01049e-08
1.00386e-08
1.00256e-08
1.00228e-08
1.00225e-08
1.00227e-08
1.00279e-08
1.00404e-08
1.00547e-08
1.00707e-08
1.01139e-08
1.01277e-08
1.00776e-08
1.00407e-08
9.85858e-09
1.01052e-08
1.00378e-08
1.00256e-08
1.0023e-08
1.00228e-08
1.00226e-08
1.00254e-08
1.00359e-08
1.0049e-08
1.00629e-08
1.00899e-08
1.01141e-08
1.00775e-08
1.00406e-08
9.85799e-09
1.01052e-08
1.0037e-08
1.00255e-08
1.00232e-08
1.00232e-08
1.00235e-08
1.00254e-08
1.00323e-08
1.00436e-08
1.00548e-08
1.00727e-08
1.00972e-08
1.00721e-08
1.00416e-08
9.85756e-09
1.01054e-08
1.00361e-08
1.00254e-08
1.00235e-08
1.00236e-08
1.00246e-08
1.0028e-08
1.00327e-08
1.00391e-08
1.00473e-08
1.00587e-08
1.00791e-08
1.00639e-08
1.004e-08
9.85733e-09
1.01058e-08
1.00353e-08
1.00253e-08
1.00237e-08
1.0024e-08
1.00256e-08
1.00311e-08
1.00368e-08
1.00396e-08
1.00413e-08
1.00471e-08
1.00611e-08
1.00546e-08
1.00359e-08
9.85773e-09
1.01069e-08
1.00347e-08
1.00253e-08
1.00239e-08
1.00243e-08
1.00264e-08
1.00342e-08
1.00418e-08
1.00444e-08
1.00421e-08
1.00387e-08
1.00449e-08
1.00439e-08
1.00306e-08
9.85856e-09
1.01078e-08
1.00344e-08
1.00254e-08
1.00241e-08
1.00247e-08
1.00271e-08
1.00371e-08
1.0047e-08
1.00504e-08
1.00482e-08
1.00405e-08
1.00341e-08
1.00338e-08
1.00253e-08
9.85955e-09
1.01091e-08
1.00346e-08
1.00255e-08
1.00244e-08
1.0025e-08
1.00277e-08
1.00398e-08
1.00521e-08
1.00567e-08
1.00559e-08
1.00494e-08
1.00362e-08
1.00266e-08
1.002e-08
9.86064e-09
1.01109e-08
1.00353e-08
1.00258e-08
1.00247e-08
1.00255e-08
1.00284e-08
1.00422e-08
1.0057e-08
1.00631e-08
1.00649e-08
1.00605e-08
1.00474e-08
1.00269e-08
1.00161e-08
9.86188e-09
1.01132e-08
1.00364e-08
1.00262e-08
1.00251e-08
1.0026e-08
1.00292e-08
1.00446e-08
1.00616e-08
1.00695e-08
1.00755e-08
1.00735e-08
1.00593e-08
1.00322e-08
1.00156e-08
9.86332e-09
1.01161e-08
1.00377e-08
1.00268e-08
1.00256e-08
1.00265e-08
1.00302e-08
1.00471e-08
1.00662e-08
1.00755e-08
1.00877e-08
1.00897e-08
1.00704e-08
1.00376e-08
1.00175e-08
1.01194e-08
9.86494e-09
1.00392e-08
1.00275e-08
1.00262e-08
1.00273e-08
1.00315e-08
1.00497e-08
1.00706e-08
1.0081e-08
1.0099e-08
1.01113e-08
1.008e-08
1.00421e-08
1.00189e-08
1.00408e-08
1.0123e-08
9.86756e-09
1.00283e-08
1.00269e-08
1.00281e-08
1.0033e-08
1.00523e-08
1.0075e-08
1.00864e-08
1.01076e-08
1.01337e-08
1.00861e-08
1.00447e-08
1.00201e-08
1.00292e-08
1.00432e-08
1.01336e-08
9.87168e-09
1.00277e-08
1.0029e-08
1.00348e-08
1.00549e-08
1.00791e-08
1.00917e-08
1.01146e-08
1.01451e-08
1.00883e-08
1.00444e-08
1.00213e-08
1.00286e-08
1.00304e-08
1.00475e-08
1.01537e-08
9.88427e-09
1.00301e-08
1.00366e-08
1.00573e-08
1.00828e-08
1.00972e-08
1.01223e-08
1.01503e-08
1.00888e-08
1.0042e-08
1.00221e-08
1.00312e-08
1.00296e-08
1.00328e-08
1.00548e-08
1.02027e-08
9.91456e-09
1.00386e-08
1.00595e-08
1.00862e-08
1.0103e-08
1.01315e-08
1.01527e-08
1.00888e-08
1.00394e-08
1.00216e-08
1.00405e-08
1.00325e-08
1.00316e-08
1.00368e-08
1.00682e-08
1.02953e-08
1.00085e-08
1.00616e-08
1.00892e-08
1.01086e-08
1.01409e-08
1.01517e-08
1.00906e-08
1.00371e-08
1.00202e-08
1.00635e-08
1.00422e-08
1.00345e-08
1.00341e-08
1.00448e-08
1.01064e-08
1.0433e-08
1.00967e-08
1.00918e-08
1.01137e-08
1.01495e-08
1.01514e-08
1.00936e-08
1.00358e-08
1.00191e-08
1.00937e-08
1.00642e-08
1.00444e-08
1.00363e-08
1.00384e-08
1.00681e-08
1.01723e-08
1.06285e-08
1.04846e-08
1.0118e-08
1.01563e-08
1.0152e-08
1.00962e-08
1.00372e-08
1.00185e-08
1.01216e-08
1.00952e-08
1.00649e-08
1.00456e-08
1.00388e-08
1.00532e-08
1.04148e-08
1.3195e-08
2.13884e-08
1.0341e-08
1.0161e-08
1.01574e-08
1.00965e-08
1.00396e-08
1.00186e-08
1.01636e-08
1.01257e-08
1.00966e-08
1.00668e-08
1.0134e-08
1.27432e-08
2.39659e-08
7.58629e-08
2.09923e-07
2.77521e-08
5.83664e-06
1.03532e-08
1.00947e-08
1.00413e-08
1.00189e-08
1.88716e-08
1.02551e-08
1.02431e-08
1.03816e-08
1.80995e-08
7.05946e-08
3.87283e-07
1.12852e-06
2.53176e-06
7.86079e-07
5.66344e-06
0.00831212
1.01301e-08
1.00418e-08
1.00192e-08
1.31332e-08
3.93852e-07
3.24122e-06
1.99411e-07
1.48063e-07
8.18279e-07
4.18643e-06
1.40383e-05
2.29676e-05
1.35623e-05
5.91541e-06
0.00632807
0.00967424
0.0103677
1.00467e-08
1.00194e-08
1.0554e-08
2.22669e-07
2.69231e-05
0.000366076
4.64008e-05
1.06508e-05
3.17737e-05
9.53896e-05
0.000171
0.000115801
5.8649e-06
0.00497265
0.00776646
0.0104669
0.0116893
0.0121129
1.00198e-08
1.00483e-08
5.77674e-08
1.73074e-05
0.000873863
0.00813274
0.00163136
0.000319686
0.000571846
0.000931443
0.000670177
4.33401e-05
0.0035044
0.00631423
0.00836621
0.0121889
0.012823
0.0136402
0.0137436
1.43823e-08
5.42577e-06
0.000574191
0.0111244
0.0464929
0.0136155
0.0035589
0.00457398
0.00323195
0.000755116
0.00196384
0.00520729
0.00665007
0.00986397
0.0151436
0.0145028
0.0148996
0.0154856
0.0152543
8.20043e-07
0.000240656
0.00775397
0.0492796
0.093611
0.0374923
0.0213638
0.0136543
0.00394514
0.000755608
0.00440864
0.00539822
0.00772922
0.0124269
0.0184738
0.0175765
0.0170639
0.0172358
0.0174713
0.0167006
5.70623e-05
0.00402309
0.0411902
0.0751506
0.109595
0.0628992
0.0520537
0.0188186
0.000707037
0.00311723
0.00457275
0.00607412
0.00967726
0.0151922
0.0284769
0.0209893
0.020666
0.0202458
0.01972
0.019789
0.0181012
0.00146364
0.0257875
0.0751032
0.0725338
0.108182
0.0878354
0.0569461
0.0148781
0.00162308
0.00398067
0.0051258
0.00745042
0.0113903
0.0207545
0.534394
0.0311775
0.534835
0.488936
0.489208
0.0245809
0.0246968
0.0237212
0.0225529
0.0225969
0.0194639
0.0129637
0.0591708
0.0675848
0.0686845
0.0946592
0.0901414
0.0543083
0.00434214
0.0029945
0.00462114
0.00624478
0.0084716
0.0144489
0.132189
0.614598
0.647107
0.0280219
0.615063
0.578173
0.578808
0.647362
0.59081
0.591018
0.0291913
0.0290931
0.0274729
0.0258894
0.0258461
0.0207063
0.0370121
0.0656079
0.0564503
0.0669477
0.0709234
0.0652625
0.0430467
0.00284293
0.00378599
0.00574179
0.00707143
0.00974715
0.0479885
0.425248
0.425107
0.43539
0.435486
0.721212
0.653021
0.0322616
0.0462903
0.72152
0.678658
0.679356
0.652785
0.589458
0.589252
0.0341102
0.0338321
0.0316265
0.0296997
0.029312
0.0217107
0.0467819
0.0540983
0.0547994
0.0546323
0.044871
0.0630448
0.0304822
0.00362641
0.00452862
0.0068176
0.00753115
0.023841
0.406395
0.406477
0.419863
0.420137
0.491021
0.491478
0.523898
0.523897
0.709526
0.57531
0.901372
0.571655
0.930806
0.0369343
0.0394048
0.588406
0.588442
0.572991
0.573259
0.709319
0.728808
0.728868
0.574185
0.906004
0.572097
0.924347
0.533881
0.813017
0.518125
0.874956
0.532839
0.82113
0.518936
0.869179
0.0397377
0.038983
0.0360593
0.0338225
0.0326525
0.0223131
0.0368023
0.0385398
0.0392766
0.0369252
0.0381534
0.0710546
0.0281434
0.00511555
0.00532098
0.00701705
0.0179156
0.44274
0.442987
0.46465
0.465205
0.513859
0.513831
0.530263
0.530255
0.725625
0.829315
0.448903
0.729633
0.454341
0.479583
0.837908
0.728106
0.449403
0.730339
0.454552
0.481072
0.791552
0.487619
0.783021
0.485433
0.792492
0.487763
0.783577
0.485503
0.629302
0.96378
0.614052
1.01248
0.534233
0.935427
0.526794
0.96445
0.0428902
0.0424979
0.551233
0.551445
0.576664
0.576443
0.729817
0.729751
0.700841
0.701156
0.628282
0.970962
0.614702
1.00694
0.651292
0.973527
0.644631
1.03931
0.650871
0.987076
0.646248
1.03676
0.533062
0.942596
0.527976
0.959388
0.501931
0.911732
0.500642
0.905432
0.0458907
0.0444219
0.0408667
0.0378336
0.0355352
0.0224178
0.0161684
0.0195346
0.0246984
0.0255887
0.0382581
0.0728757
0.0297808
0.00912113
0.00569856
0.0157244
0.519082
0.519439
0.552639
0.55309
0.577622
0.577613
0.611673
0.611792
0.787655
0.484089
0.789442
0.485062
0.789759
0.484433
0.795598
0.485929
0.830035
0.506883
0.81245
0.498399
0.837781
0.508071
0.819761
0.499515
0.83545
0.758711
0.44438
0.456811
0.777517
0.448876
0.84581
0.760962
0.45877
0.444842
0.778134
0.449041
0.840317
0.477624
0.832461
0.474893
0.842136
0.477942
0.83321
0.475032
0.576333
0.970647
0.555027
1.02189
0.514561
0.919242
0.504253
0.968006
0.050145
0.0458538
0.485991
0.486476
0.535208
0.53543
0.69453
0.694455
0.699458
0.699279
1.05984
0.666438
1.05634
0.666698
1.0629
0.666859
1.05828
0.666946
0.990719
1.00125
0.628914
1.01787
0.644173
0.599789
0.994585
1.0157
0.629611
1.01936
0.644468
0.602325
0.575115
0.977149
0.556177
1.01615
0.601609
1.06077
0.601203
1.05846
0.513023
0.92443
0.505339
0.959894
0.486296
0.920024
0.485098
0.91444
0.0528004
0.0502638
0.0454733
0.0416289
0.0376633
0.0219834
0.00569167
0.0111303
0.0167631
0.0209546
0.0381198
0.066627
0.0405748
0.0164176
0.00796644
0.516764
0.517111
0.493025
0.493498
0.637711
0.637661
0.675575
0.675792
0.87889
0.54159
0.886247
0.546103
0.885595
0.542629
0.892205
0.54701
0.924589
0.583737
0.924332
0.570809
0.930854
0.584678
0.929229
0.571618
0.842983
0.477141
0.842497
0.477176
0.846515
0.477813
0.849242
0.478468
0.879736
0.493493
0.865911
0.486027
0.88853
0.495255
0.873038
0.487535
0.552741
0.960493
0.528466
1.01928
0.0594832
0.0520652
0.330675
0.330991
0.383403
0.383667
0.563538
0.56342
0.643174
0.643092
0.964726
0.615978
1.01248
0.630356
0.972959
0.617096
1.02303
0.631891
1.03034
0.642177
1.02721
0.637885
1.03465
0.6428
1.03655
0.639204
1.11708
0.64531
1.10434
0.644971
1.12143
0.646041
1.10625
0.645324
1.00719
1.02777
0.617995
0.567407
1.07661
0.629854
1.0205
1.03177
0.618759
0.570132
1.07832
0.630207
0.551401
0.966287
0.529652
1.01247
0.57633
1.05778
0.575922
1.05595
0.0606515
0.0561042
0.0496003
0.044924
0.0387061
0.0208969
0.00275294
0.00674556
0.0134938
0.0185918
0.0351544
0.0638582
0.0505165
0.0266417
0.0289842
0.656902
0.657133
0.638326
0.638919
0.689201
0.689272
0.712583
0.712638
0.927346
0.521626
0.951397
0.531288
0.935277
0.523231
0.957744
0.532611
0.991016
0.575478
0.991618
0.55329
0.99877
0.576898
0.998228
0.554646
0.901371
0.495519
0.910096
0.497317
0.0721308
0.0644461
0.159367
0.159614
0.206679
0.206929
0.324013
0.324272
0.424749
0.424607
0.786313
0.499166
0.799603
0.506054
0.796258
0.500456
0.807858
0.507151
0.878233
0.568794
0.877662
0.564063
0.885558
0.569779
0.886339
0.56522
1.01495
0.577002
1.03825
0.595221
1.02582
0.579068
1.04916
0.597434
1.08858
0.623585
1.05423
0.608529
1.09413
0.624606
1.06412
0.610435
0.0691705
0.0609444
0.0527917
0.0473946
0.0385117
0.0196101
0.0015581
0.00537015
0.0123366
0.0159565
0.0353616
0.0609768
0.057085
0.0372186
0.485241
0.4855
0.483083
0.4835
0.672656
0.672417
0.645375
0.645764
0.624344
1.00575
0.616504
1.02832
0.624212
1.00582
0.616566
1.02756
0.635955
1.01851
0.627322
1.0417
0.635883
1.02337
0.628035
1.04108
0.944983
0.514856
0.973392
0.52403
0.952259
0.516481
0.978681
0.525291
1.00718
0.558693
1.00208
0.539079
1.01374
0.560031
1.00742
0.540352
0.0870305
0.0895699
0.0601226
0.118086
0.118116
0.173533
0.173583
0.29802
0.298253
0.401938
0.402546
0.769837
0.45046
0.824947
0.468477
0.780727
0.452452
0.833217
0.470154
0.934289
0.532908
0.906795
0.516681
0.944487
0.534853
0.915994
0.518502
1.00398
0.561827
1.01525
0.564044
0.0761115
0.0634612
0.0549895
0.0486927
0.0367679
0.0166518
0.00112015
0.0051057
0.0103842
0.0140512
0.0334819
0.0594517
0.0628393
0.0566925
0.616764
0.616627
0.591842
0.591696
0.983078
0.601794
0.608557
0.975832
0.988529
0.602503
0.608217
0.974839
0.664742
0.664646
0.603031
1.07356
0.600416
1.09697
0.602682
1.07338
0.6004
1.09471
0.604036
1.07106
0.589399
1.10917
0.604
1.07819
0.590713
1.10853
1.03282
0.564353
1.03808
0.565395
0.0978391
0.120468
0.127793
0.0947975
0.0941439
0.0700908
0.070081
0.12256
0.122604
0.185551
0.185929
0.291625
0.430229
0.263169
0.494853
0.291465
0.428812
0.262933
0.492092
0.352746
0.637986
0.372094
0.591478
0.353168
0.642332
0.373049
0.592887
0.774377
0.421266
0.821876
0.445764
0.782858
0.423146
0.828001
0.44729
0.922407
0.513768
0.886465
0.489616
0.932709
0.515944
0.893943
0.491379
0.0786495
0.0640421
0.0562567
0.0470248
0.0304916
0.000921227
0.00446958
0.00887906
0.0142027
0.0335994
0.0732994
0.0658605
0.513791
0.513564
0.50813
0.50829
0.927568
0.569275
0.915369
0.580917
0.931886
0.569986
0.919535
0.581471
0.658904
0.658928
1.04022
0.572633
0.586205
1.02466
1.04479
0.573516
0.585983
1.02427
0.948702
0.581661
0.968694
0.586478
0.950816
0.581971
0.967579
0.586265
0.590837
1.06914
0.571327
1.10464
0.591169
1.07497
0.572513
1.10671
0.100115
0.136315
0.194314
0.260827
0.307284
0.305795
0.186773
0.18531
0.193676
0.194067
0.346833
0.202822
0.178023
0.294945
0.347313
0.202588
0.177923
0.297741
0.295676
0.501575
0.262649
0.563261
0.295438
0.499561
0.262209
0.561526
0.33571
0.665178
0.359104
0.625295
0.336125
0.670161
0.360173
0.626583
0.765564
0.410553
0.774055
0.412404
0.0774389
0.0628831
0.0549764
0.0438533
0.000761983
0.00410937
0.00945645
0.0166716
0.0447074
0.0575606
0.504684
0.504742
0.562824
0.563086
0.613635
0.613476
0.574911
0.574696
0.985048
0.550058
0.973825
0.571888
0.989622
0.551026
0.977214
0.572549
0.593006
0.925415
0.590623
0.965707
0.593163
0.928302
0.590972
0.966349
1.04517
0.554767
0.563711
1.04535
1.04636
0.555143
0.563139
1.04222
0.996546
0.549149
1.01093
0.558819
1.00056
0.549906
1.01156
0.558915
0.0961662
0.134249
0.211163
0.375881
0.804036
0.803182
0.685284
0.683785
0.564982
0.563042
0.569148
0.253049
0.576216
0.278711
0.563038
0.251415
0.569186
0.276318
0.486352
0.228153
0.477232
0.225462
0.365321
0.195084
0.483444
0.22747
0.475519
0.225074
0.366887
0.195068
0.435883
0.222963
0.436078
0.222757
0.29305
0.55045
0.268132
0.583631
0.292702
0.547606
0.267504
0.581608
0.0724204
0.0608739
0.0562501
0.000819534
0.00407474
0.0139475
0.0280996
0.0451723
0.133821
0.430059
0.429959
0.460017
0.460102
0.861004
0.963815
0.543847
0.829865
0.526356
0.567394
0.965936
0.86165
0.56777
0.543929
0.831506
0.526549
0.677915
0.468397
0.727548
0.482016
0.679883
0.468537
0.729483
0.482269
0.991633
0.538066
0.997756
0.555568
0.994672
0.538828
0.999573
0.556022
0.570468
1.01123
0.570716
1.01233
0.555977
1.03885
0.555561
1.0367
0.998597
0.539782
1.00269
0.540581
0.0864613
0.123652
0.193298
0.361599
1.03473
1.03458
0.979605
0.978836
1.0978
1.09552
1.01451
1.01247
0.56617
1.23063
0.610401
1.19794
0.385139
0.836705
0.565622
1.22696
0.609029
1.19611
0.384495
0.834796
0.753522
0.338165
0.752214
0.33768
0.67978
0.30687
0.648618
0.499381
0.292941
0.232855
0.678535
0.306494
0.647312
0.498119
0.292542
0.232432
0.533565
0.248875
0.531072
0.248287
0.0664719
0.0667814
0.000805526
0.00537971
0.0241827
0.0616819
0.0824587
0.360323
0.36032
0.316968
0.317088
0.232981
0.232973
0.286938
0.286896
0.955316
0.839651
0.506135
0.548736
0.748715
0.459842
0.957251
0.840782
0.549072
0.506319
0.750701
0.460157
0.465555
0.349952
0.588374
0.388485
0.467773
0.350334
0.590297
0.388864
1.00588
0.553935
1.00741
0.554311
0.0734525
0.106674
0.166861
0.299286
0.734267
1.30782
1.30717
1.23295
1.2313
2.05844
1.04899
2.03977
1.00678
2.05453
1.04765
2.03534
1.00583
1.84532
1.53996
0.908575
1.93129
0.955551
0.742381
1.84032
1.53562
0.907423
1.92674
0.954398
0.74129
0.684657
0.51356
1.42704
1.08137
0.683964
0.513129
1.42399
1.07984
0.986735
0.469779
0.986895
0.469717
0.89463
0.425247
0.596805
0.269359
0.895391
0.425287
0.594526
0.268698
0.0758596
0.000783842
0.0120611
0.049195
0.123459
0.21949
0.266565
0.266467
0.280844
0.280812
0.192971
0.326432
0.211418
0.362345
0.193074
0.327031
0.21162
0.362773
0.248225
0.248145
0.325224
0.268129
0.449919
0.327935
0.327089
0.26855
0.451724
0.328334
0.0837682
0.0838562
0.136837
0.235579
0.504641
1.62505
1.62513
1.62067
1.61962
1.51298
1.51226
1.5371
1.53648
2.3625
1.17747
2.25482
1.12199
2.36781
1.17876
2.26056
1.12333
1.72702
2.0319
0.842807
1.01022
2.11602
1.05031
1.72321
2.02864
1.00957
0.841805
2.1165
1.05047
0.621528
1.2921
0.621062
1.29025
0.00222326
0.0287593
0.102542
0.224221
0.271749
0.271599
0.657216
0.657153
0.176705
0.176487
0.212252
0.2122
0.168388
0.304337
0.167734
0.344157
0.168223
0.303645
0.167693
0.34327
0.261675
0.137971
0.287485
0.142842
0.26088
0.137682
0.285786
0.14244
0.227906
0.176737
0.228298
0.177019
0.090915
0.10001
0.180376
0.349467
0.929226
1.84938
1.84865
1.86327
1.86088
1.88375
1.88038
1.36874
2.6454
1.33943
2.63312
1.36884
2.64938
1.34059
2.63455
2.57189
1.29811
2.44622
1.25037
2.58346
1.30069
2.46063
1.2534
0.00903413
0.0622127
0.175727
0.375443
0.269667
0.269422
0.681959
0.681731
0.249975
0.128528
0.114052
0.191092
0.109877
0.179343
0.249121
0.128293
0.113996
0.191287
0.10989
0.179397
0.15269
0.152656
0.15042
0.28749
0.154418
0.2989
0.150001
0.28583
0.154095
0.296945
0.284721
0.141065
0.283492
0.140766
0.0977893
0.124762
0.241979
0.547104
1.79774
1.79816
1.92877
1.92859
1.96669
1.96721
2.12835
2.12672
3.15692
1.62865
3.20405
1.6333
2.94502
1.50299
3.14672
1.62523
3.19311
1.63074
2.94127
1.50234
2.8473
1.45446
2.85345
1.45574
2.70761
1.39885
2.72222
1.40167
0.0262502
0.117987
0.23218
0.443161
0.443112
0.26014
0.260471
0.299637
0.299306
0.550549
0.550255
0.223129
0.118865
0.101521
0.170877
0.104407
0.157602
0.223274
0.118852
0.10167
0.171781
0.104582
0.15837
0.171393
0.123986
0.163237
0.10912
0.172236
0.124111
0.164144
0.109329
0.105235
0.155686
0.331914
0.898179
1.96074
1.95982
2.10935
2.10758
2.28335
2.28231
3.39057
1.71611
1.75109
3.48413
1.7579
3.38765
1.75346
3.49469
1.76037
3.40009
3.38507
1.71488
3.36347
3.1171
1.71944
1.60364
3.35144
3.11105
1.71704
1.60232
2.95818
1.5388
2.9598
1.53898
0.0636713
0.169332
0.127734
0.20495
0.202607
0.181556
0.181309
0.238097
0.152005
0.293811
0.390477
0.220497
0.540684
0.238763
0.152131
0.293085
0.389697
0.220284
0.5386
0.317889
0.316904
0.108052
0.163816
0.108254
0.16473
0.20484
0.130178
0.205663
0.130354
0.113463
0.192422
0.454052
1.29756
1.29771
1.71942
1.71844
1.95057
1.94849
2.26366
2.26135
3.57856
1.84653
3.75357
1.88286
3.63644
1.8334
3.57243
3.64259
1.83476
1.84426
3.74626
1.88135
3.47359
1.74866
3.5835
1.80444
3.6028
3.47974
1.8086
1.74985
0.103258
0.0972058
0.145459
0.228462
0.227633
0.224013
0.223936
0.296433
0.171124
0.255873
0.421072
0.22131
0.401436
0.29619
0.171061
0.253165
0.417029
0.220555
0.392185
0.265035
0.187883
0.222927
0.165378
0.268725
0.18809
0.229596
0.166157
0.240183
0.14226
0.24065
0.142349
0.121382
0.229644
0.523625
1.14686
1.14501
1.53742
1.53277
1.89249
1.88223
3.60223
1.82524
1.63168
3.36304
1.69931
3.07957
3.61204
1.82722
1.63008
3.36207
1.70001
3.07274
3.65796
3.74469
1.83994
1.87466
3.73773
1.87311
3.66441
1.84161
0.0979674
0.161863
0.281079
0.280253
0.279899
0.280819
0.301683
0.3019
0.288178
0.265309
0.188722
0.286187
0.266913
0.188776
0.332713
0.172456
0.159877
0.205278
0.169174
0.192779
0.331042
0.172254
0.159995
0.205982
0.168446
0.198018
0.229074
0.165968
0.233857
0.166856
0.126454
0.233181
0.283412
0.642901
0.638295
0.94704
0.930637
1.81862
1.28453
2.51809
1.32678
2.97546
1.51699
1.75777
2.95528
1.51259
1.25646
2.4665
1.3135
3.39056
1.72323
3.05824
1.55719
3.40481
1.72644
3.06059
1.55838
3.36715
1.72851
3.38543
1.73202
0.170632
0.159003
0.324916
0.304269
0.323523
0.303721
0.311305
0.310422
0.469842
0.370698
0.225063
0.312497
0.205067
0.275177
0.473191
0.284165
0.369123
0.465619
0.22466
0.310536
0.204613
0.274182
0.463523
0.282046
0.154643
0.208249
0.155584
0.214396
0.249829
0.168925
0.250195
0.169073
0.119436
0.146784
0.122487
0.435226
0.431354
0.122399
0.157096
0.156488
0.577895
1.3908
1.07941
0.567278
1.34909
1.06061
2.63276
1.93056
1.33838
1.07064
2.60182
1.33319
1.8839
1.06202
3.06191
1.60875
2.71733
1.40112
3.07668
1.6124
2.71899
1.40246
0.109934
0.100136
0.33729
0.295274
0.499684
0.252662
0.337055
0.293505
0.490273
0.253402
0.188452
0.188714
0.418426
0.487108
0.255827
0.169995
0.252234
0.286859
0.417812
0.255919
0.483504
0.169995
0.251999
0.286084
0.15165
0.186188
0.152139
0.188352
0.0944555
0.0824306
0.117064
0.221787
0.218706
0.116864
0.114161
0.11373
0.45678
1.02801
0.772985
1.21998
0.943048
0.532676
0.416354
0.577763
0.438622
1.0091
0.76773
1.18122
0.929134
0.525713
0.399014
0.561935
2.15695
1.65859
1.19142
0.98082
2.11146
1.18613
1.60474
0.973237
0.0303586
0.111104
0.124717
0.124802
0.111367
0.117197
0.117141
0.415182
0.293339
0.496303
0.287101
0.49963
0.286001
0.476845
0.273938
0.146991
0.345047
0.229745
0.424976
0.292367
0.494203
0.286666
0.494042
0.286064
0.475982
0.273031
0.146594
0.357593
0.230001
0.437384
0.481426
0.267872
0.285702
0.4352
0.480263
0.267403
0.28548
0.0714942
0.0572768
0.0914873
0.134394
0.317712
0.216383
0.132972
0.317788
0.215916
0.0901401
0.102093
0.0990475
0.572989
0.211125
1.42789
0.418882
0.881858
0.2173
0.569114
0.207885
1.39486
0.878037
0.417268
0.216293
1.89348
1.1454
1.83602
1.14247
0.00621663
0.129239
0.113853
0.129418
0.11417
0.106976
0.106969
0.483774
0.488341
0.274603
0.283921
0.409401
0.229656
0.182722
0.159286
0.118428
0.221479
0.172435
0.139569
0.199876
0.167065
0.483867
0.486712
0.28393
0.273431
0.413816
0.229757
0.16086
0.180514
0.11768
0.227489
0.171819
0.137502
0.198966
0.165784
0.0507291
0.0317705
0.0834371
0.0822892
0.0311623
0.0427171
0.0430758
0.159259
0.22688
0.137493
0.194281
0.155937
0.244618
0.129318
0.169033
0.151094
0.227484
0.136241
0.192618
0.155989
0.235482
0.125863
0.169375
0.101566
0.134013
0.211051
0.0988602
0.128823
0.200243
0.349497
0.148934
0.316676
0.168543
0.346914
0.149743
0.315407
0.168484
0.00348947
0.104715
0.143903
0.161519
0.0622519
0.105046
0.145848
0.163849
0.0622198
0.061465
0.0613299
0.434525
0.244534
0.264765
0.163347
0.143326
0.155649
0.170139
0.111894
0.0968703
0.106279
0.436722
0.24452
0.268179
0.163637
0.142703
0.173231
0.157609
0.112238
0.0959449
0.107007
0.0361888
0.0277086
0.0621384
0.0604318
0.0277171
0.0308068
0.0311706
0.142165
0.109675
0.155624
0.127568
0.100972
0.115077
0.142062
0.108198
0.155414
0.127168
0.0979782
0.113989
0.116227
0.116801
0.164297
0.133322
0.211043
0.1616
0.141365
0.235644
0.111227
0.113875
0.161807
0.125772
0.200307
0.156907
0.134891
0.223842
0.00289603
0.0371448
0.0371265
0.0542146
0.136872
0.11927
0.137041
0.13248
0.0378909
0.0537698
0.137548
0.117208
0.134704
0.133186
0.0378187
0.140014
0.121183
0.132186
0.0936441
0.0817887
0.0923934
0.140392
0.122238
0.130589
0.0932749
0.0821457
0.0917535
0.0305764
0.0212172
0.0590238
0.17014
0.105355
0.0578265
0.170773
0.105411
0.0217166
0.0287655
0.0294154
0.0999629
0.116414
0.109249
0.11812
0.0988723
0.118064
0.104901
0.117908
0.0850406
0.0694727
0.107116
0.0782068
0.119341
0.0936042
0.0817088
0.0674509
0.104837
0.119592
0.0774785
0.0923961
0.000916003
0.0185142
0.0268504
0.0184838
0.0268516
0.0388762
0.120829
0.0756114
0.129079
0.0686281
0.117588
0.0850024
0.0240346
0.0381551
0.123392
0.0749066
0.128243
0.0689913
0.112576
0.0826972
0.0238311
0.104213
0.0719438
0.101803
0.0710349
0.0271581
0.0181927
0.0184352
0.0554411
0.183481
0.11716
0.21331
0.103791
0.0549754
0.184883
0.112596
0.202827
0.10482
0.0243479
0.0246087
0.0648518
0.0832945
0.0607897
0.0745363
0.0911776
0.0895055
0.0615452
0.0822317
0.0596838
0.0919572
0.0742528
0.0883144
0.00113915
0.0412405
0.0441279
0.0413867
0.0443096
0.0358078
0.0356796
0.0362934
0.108243
0.06032
0.107105
0.0587785
0.0576004
0.0795497
0.0637744
0.0699986
0.0957972
0.0665386
0.0355149
0.109487
0.0592635
0.106723
0.0583906
0.0586534
0.0779609
0.0632081
0.0701633
0.0902219
0.0644297
0.0384096
0.0150642
0.0160759
0.0155093
0.0165012
0.0517792
0.17814
0.11329
0.199623
0.103618
0.0620949
0.0859285
0.0507867
0.184559
0.110163
0.193843
0.106334
0.0597734
0.0840556
0.0196057
0.0204379
0.0553924
0.0661868
0.0521502
0.0663322
0.000967436
0.0447384
0.0438593
0.044744
0.0437058
0.0510828
0.0516257
0.0510929
0.0516983
0.0442544
0.0434489
0.104995
0.0586101
0.105861
0.0598669
0.0575413
0.0699644
0.0615457
0.0664859
0.0524174
0.0693466
0.0534402
0.0649854
0.107429
0.0581449
0.106139
0.0603792
0.0578379
0.0684938
0.0614047
0.0655386
0.0530134
0.0673805
0.0526921
0.065422
0.0628245
0.0254406
0.0449045
0.0254424
0.0446557
0.0176304
0.0192199
0.04905
0.173128
0.11467
0.192714
0.101721
0.088249
0.0630383
0.0901791
0.0622012
0.0558372
0.0704285
0.0484046
0.17619
0.109811
0.183752
0.103446
0.0883569
0.061183
0.0886216
0.0623351
0.0523999
0.0703037
0.000287298
0.0365663
0.0195098
0.0363926
0.0190927
0.0540071
0.0533866
0.0539757
0.0532489
0.0497435
0.045993
0.0493999
0.0458347
0.106277
0.0655605
0.106389
0.0653732
0.10937
0.0663075
0.109162
0.0661289
0.0574592
0.0643648
0.057838
0.0654474
0.0590823
0.0641446
0.0583559
0.0667337
0.0670948
0.0796426
0.0775002
0.0791025
0.0772583
0.0250642
0.0562568
0.0259936
0.0555806
0.0450832
0.0459711
0.162223
0.113929
0.183998
0.10195
0.0883125
0.0697279
0.0845238
0.0658472
0.0753069
0.0543758
0.0687315
0.0603022
0.167035
0.109831
0.177716
0.103861
0.0879366
0.0678136
0.0837099
0.0656371
0.0756337
0.0517688
0.0687583
0.0591276
0.00516493
0.000325991
0.0413021
0.020468
0.0409587
0.0200569
0.0483577
0.0515594
0.0482965
0.0514153
0.10569
0.0645883
0.106814
0.0602474
0.102705
0.0586657
0.104049
0.0562165
0.109368
0.0660532
0.109977
0.0616994
0.105394
0.0588723
0.104482
0.0573353
0.0612864
0.0692083
0.0608257
0.0712409
0.0634093
0.0711843
0.0631781
0.0729038
0.0779242
0.0853276
0.0662241
0.0850043
0.0669247
0.108793
0.107671
0.107398
0.106115
0.0508277
0.0816978
0.0513214
0.0801239
0.162028
0.106285
0.175707
0.100335
0.168025
0.10642
0.176032
0.103083
0.11062
0.0799095
0.0949759
0.0827732
0.110792
0.077789
0.0944165
0.0829069
0.00166433
0.0230347
0.0134775
0.0229598
0.0137118
0.000448834
0.0464861
0.0336531
0.046075
0.0328684
0.106849
0.0580942
0.104672
0.0563852
0.115359
0.0638963
0.121666
0.0591955
0.110041
0.058669
0.105497
0.0579079
0.117756
0.0621418
0.118002
0.0602484
0.0505804
0.062082
0.0560545
0.0546277
0.0525494
0.0570857
0.0564096
0.0545554
0.0523402
0.0646631
0.0584649