/*--------------------------------*- C++ -*----------------------------------*\
| =========                 |                                                 |
| \\      /  F ield         | OpenFOAM: The Open Source CFD Toolbox           |
|  \\    /   O peration     | Version:  5.x                                   |
|   \\  /    A nd           | Web:      www.OpenFOAM.org                      |
|    \\/     M anipulation  |                                                 |
\*---------------------------------------------------------------------------*/
FoamFile
{
    version     2.0;
    format      ascii;
    class       surfaceScalarField;
    location    "2.3";
    object      meshPhi;
}
// * * * * * * * * * * * * * * * * * * * * * * * * * * * * * * * * * * * * * //

dimensions      [0 3 -1 0 0 0 0];

internalField   nonuniform List<scalar> 
30582
(
0
0
0
0
0
0
0
0
0
0
0
0
0
0
0
0
0
0
0
0
0
0
0
0
0
0
0
0
0
0
0
0
0
0
0
0
0
0
0
0
0
0
0
0
0
0
0
0
0
0
0
0
0
0
0
0
0
0
0
0
0
0
0
0
0
0
0
0
0
0
0
0
0
0
0
0
0
0
0
0
0
0
0
0
0
0
0
0
0
0
0
0
0
0
0
0
0
0
0
0
0
0
0
0
0
0
0
0
0
0
0
0
0
0
0
0
0
0
0
0
0
0
0
0
0
0
0
0
0
0
0
0
0
0
0
0
0
0
0
0
0
0
0
0
0
0
0
0
0
0
0
0
0
0
0
0
0
0
0
0
0
0
0
0
0
0
0
0
0
0
0
0
0
0
0
0
0
0
0
0
0
0
0
0
0
0
0
0
0
0
0
0
0
0
0
0
0
0
0
0
0
0
0
0
0
0
0
0
0
0
0
0
0
0
0
0
0
0
0
0
0
0
0
0
0
0
0
0
0
0
0
0
0
0
0
0
0
0
0
0
0
0
0
0
0
0
0
0
0
0
0
0
0
0
0
0
0
0
0
0
0
0
0
0
0
0
0
0
0
0
0
0
0
0
0
0
0
0
0
0
0
0
0
0
0
0
0
0
0
0
0
0
0
0
0
0
0
0
0
0
0
0
0
0
0
0
0
0
0
0
0
0
0
0
0
0
0
0
0
0
0
0
0
0
0
0
0
0
0
0
0
0
0
0
0
0
0
0
0
0
0
0
0
0
0
0
0
0
0
0
0
0
0
0
0
0
0
0
0
0
0
0
0
0
0
0
0
0
0
0
0
0
0
0
0
0
0
0
0
0
0
0
0
0
0
0
0
0
0
0
0
0
0
0
0
0
0
0
0
0
0
0
0
0
0
0
0
0
0
0
0
0
0
0
0
0
0
0
0
0
0
0
0
0
0
0
0
0
0
0
0
0
0
0
0
0
0
0
0
0
0
0
0
0
0
0
0
0
0
0
0
0
0
0
0
0
0
0
0
0
0
0
0
0
0
0
0
0
0
0
0
0
0
0
0
0
0
0
0
0
0
0
0
0
0
0
0
0
0
0
0
0
0
0
0
0
0
0
0
0
0
0
0
0
0
0
0
0
0
0
0
0
0
0
0
0
0
0
0
0
0
0
0
0
0
0
0
0
0
0
0
0
0
0
0
0
0
0
0
0
0
0
0
0
0
0
0
0
0
0
0
0
0
0
0
0
0
0
0
0
0
0
0
0
0
0
0
0
0
0
0
0
0
0
0
0
0
0
0
0
0
0
0
0
0
0
0
0
0
0
0
0
0
0
0
0
0
0
0
0
0
0
0
0
0
0
0
0
0
0
0
0
0
0
0
0
0
0
0
0
0
0
0
0
0
0
0
0
0
0
0
0
0
0
0
0
0
0
0
0
0
0
0
0
0
0
0
0
0
0
0
0
0
0
0
0
0
0
0
0
0
0
0
0
0
0
0
0
0
0
0
0
0
0
0
0
0
0
0
0
0
0
0
0
0
0
0
0
0
0
0
0
0
0
0
0
0
0
0
0
0
0
0
0
0
0
0
0
0
0
0
0
0
0
0
0
0
0
0
0
0
0
0
0
0
0
0
0
0
0
0
0
0
0
0
0
0
0
0
0
0
0
0
0
0
0
0
0
0
0
0
0
0
0
0
0
0
0
0
0
0
0
0
0
0
0
0
0
0
0
0
0
0
0
0
0
0
0
0
0
0
0
0
0
0
0
0
0
0
0
0
0
0
0
0
0
0
0
0
0
0
0
0
0
0
0
0
0
0
0
0
0
0
0
0
0
0
0
0
0
0
0
0
0
0
0
0
0
0
0
0
0
0
0
0
0
0
0
0
0
0
0
0
0
0
0
0
0
0
0
0
0
0
0
0
0
0
0
0
0
0
0
0
0
0
0
0
0
0
0
0
0
0
0
0
0
0
0
0
0
0
0
0
0
0
0
0
0
0
0
0
0
0
0
0
0
0
0
0
0
0
0
0
0
0
0
0
0
0
0
0
0
0
0
0
0
0
0
0
0
0
0
0
0
0
0
0
0
0
0
0
0
0
0
0
0
0
0
0
0
0
0
0
0
0
0
0
0
0
0
0
0
0
0
0
0
0
0
0
0
0
0
0
0
0
0
0
0
0
0
0
0
0
0
0
0
0
0
0
0
0
0
0
0
0
0
0
0
0
0
0
0
0
0
0
0
0
0
0
0
0
0
0
0
0
0
0
0
0
0
0
0
0
0
0
0
0
0
0
0
0
0
0
0
0
0
0
0
0
0
0
0
0
0
0
0
0
0
0
0
0
0
0
0
0
0
0
0
0
0
0
0
0
0
0
0
0
0
0
0
0
0
0
0
0
0
0
0
0
0
0
0
0
0
0
0
0
0
0
0
0
0
0
0
0
0
0
0
0
0
0
0
0
0
0
0
0
0
0
0
0
0
0
0
0
0
0
0
0
0
0
0
0
0
0
0
0
0
0
0
0
0
0
0
0
0
0
0
0
0
0
0
0
0
0
0
0
0
0
0
0
0
0
0
0
0
0
0
0
0
0
0
0
0
0
0
0
0
0
0
0
0
0
0
0
0
0
0
0
0
0
0
0
0
0
0
0
0
0
0
0
0
0
0
0
0
0
0
0
0
0
0
0
0
0
0
0
0
0
0
0
0
0
0
0
0
0
0
0
0
0
0
0
0
0
0
0
0
0
0
0
0
0
0
0
0
0
0
0
0
0
0
0
0
0
0
0
0
0
0
0
0
0
0
0
0
0
0
0
0
0
0
0
0
0
0
0
0
0
0
0
0
0
0
0
0
0
0
0
0
0
0
0
0
0
0
0
0
0
0
0
0
0
0
0
0
0
0
0
0
0
0
0
0
0
0
0
0
0
0
0
0
0
0
0
0
0
0
0
0
0
0
0
0
0
0
0
0
0
0
0
0
0
0
0
0
0
0
0
0
0
0
0
0
0
0
0
0
0
0
0
0
0
0
0
0
0
0
0
0
0
0
0
0
0
0
0
0
0
0
0
0
0
0
0
0
0
0
0
0
0
0
0
0
0
0
0
0
0
0
0
0
0
0
0
0
0
0
0
0
0
0
0
0
0
0
0
0
0
0
0
0
0
0
0
0
0
0
0
0
0
0
0
0
0
0
0
0
0
0
0
0
0
0
0
0
0
0
0
0
0
0
0
0
0
0
0
0
0
0
0
0
0
0
0
0
0
0
0
0
0
0
0
0
0
0
0
0
0
0
0
0
0
0
0
0
0
0
0
0
0
0
0
0
0
0
0
0
0
0
0
0
0
0
0
0
0
0
0
0
0
3.55165e-18
-1.2526e-17
5.08232e-25
-3.75735e-17
-1.8783e-17
-2.50639e-17
0
0
0
0
0
0
0
0
0
0
0
0
0
0
0
0
0
0
0
0
0
0
0
0
0
0
0
0
0
0
0
0
0
0
0
0
0
0
-6.24824e-18
-1.96708e-34
9.11431e-19
-1.44814e-25
-3.12826e-17
2.50485e-17
3.49207e-18
-3.75735e-17
6.26135e-18
-3.75846e-17
1.81266e-18
3.9707e-25
6.25701e-17
-4.53548e-34
2.68425e-18
-3.75535e-17
-9.07684e-18
6.25893e-17
0
0
0
0
0
0
0
0
0
0
0
0
0
0
0
0
0
0
0
0
0
0
0
0
0
0
0
0
0
0
0
0
0
0
0
0
0
-1.04089e-18
5.39154e-18
-3.95642e-17
4.39781e-20
7.48744e-17
2.49356e-17
-5.00172e-17
1.64226e-35
1.78619e-18
-1.87696e-17
-2.28032e-33
9.21351e-19
-2.53178e-25
-3.12088e-17
0
-1.06369e-16
1.0468e-20
5.00561e-17
2.7961e-35
-8.75206e-19
-3.75535e-17
-9.07684e-18
3.7555e-17
5.64777e-20
-3.984e-24
3.74573e-17
-3.49596e-34
8.21904e-21
4.99388e-17
0
0
0
0
0
0
0
0
0
0
0
0
0
0
0
0
0
0
0
0
0
0
0
0
0
0
0
0
0
0
0
0
0
0
0
-1.96521e-17
-3.74537e-17
-2.49315e-17
-6.31273e-18
-6.3974e-20
-2.94521e-34
-1.12695e-19
-6.75485e-20
-4.37177e-17
-1.43807e-17
3.45097e-18
2.46283e-17
2.26908e-34
-3.01067e-19
-1.86632e-17
3.36386e-18
2.48864e-17
-1.34689e-34
-9.87355e-20
6.24819e-18
0
-5.35581e-19
-1.08828e-23
-1.08773e-17
1.86364e-17
-1.39814e-17
1.86629e-17
0
0
-2.60073e-18
5.34408e-18
-2.55512e-17
-1.59306e-20
-3.75251e-17
-1.24312e-17
7.48744e-17
1.12955e-19
4.99431e-17
2.84339e-34
1.24929e-17
9.99281e-17
0
5.06467e-24
-2.79774e-17
3.10509e-18
-2.79588e-17
6.23287e-18
0
1.24696e-17
-3.21967e-18
1.25703e-17
-1.24642e-17
1.55899e-17
-1.25522e-17
1.57532e-17
-3.12904e-18
0
0
0
0
0
0
0
0
0
0
0
0
0
0
0
0
0
0
0
0
0
0
0
0
0
0
0
0
0
0
0
0
0
1.72365e-17
-3.13364e-17
2.50158e-17
-1.87797e-17
-1.26782e-17
9.85974e-35
5.39088e-18
-3.74122e-17
-3.40507e-18
4.9772e-17
3.69302e-34
-1.26909e-17
-1.88088e-17
0
5.02704e-17
-1.28179e-35
2.67012e-11
7.18845e-12
2.67079e-09
-1.07424e-13
3.94597e-13
-2.0953e-08
-3.05752e-13
-2.12069e-08
1.86202e-10
-1.13469e-18
2.19275e-19
-7.16841e-19
-2.20238e-19
6.33449e-18
-2.42721e-17
-1.59146e-18
-1.5033e-17
-2.89355e-18
-4.68336e-34
9.78484e-16
-1.23956e-12
-2.07301e-08
1.65439e-14
-4.18376e-08
-8.76001e-19
-1.51994e-18
-3.40333e-17
-6.20171e-18
-4.3403e-17
0
4.85107e-19
-1.39948e-17
6.2171e-18
-2.01895e-17
1.24289e-17
-1.01781e-18
-1.04036e-19
0
6.48857e-19
-1.08423e-17
-1.03659e-19
-1.04866e-18
-4.62085e-23
7.72599e-18
0
-7.85701e-22
1.75303e-15
-1.21428e-18
1.23802e-17
0
0
5.11174e-17
-6.31291e-18
-1.26273e-17
2.16484e-20
-2.49315e-17
0
-1.7921e-18
-1.63325e-18
-6.21811e-18
8.98238e-18
3.36372e-18
1.01958e-33
0
-2.03968e-22
-1.86778e-17
3.5866e-18
1.24178e-17
1.03401e-19
-1.70933e-17
6.21112e-18
-1.08755e-17
6.22466e-18
0
1.24593e-17
-6.33594e-18
1.88014e-17
-1.24566e-17
1.86915e-17
-1.56831e-17
1.57228e-17
-6.23622e-18
-1.54181e-18
-1.03887e-19
1.76959e-18
-1.08261e-17
0
-1.035e-19
1.08443e-25
1.08309e-17
1.20522e-25
-7.73649e-18
0
-2.145e-21
1.76067e-18
0
0
-2.47501e-17
-3.29707e-25
1.6751e-18
-1.23955e-12
0
-1.75284e-10
1.85022e-17
1.26572e-18
-2.06765e-19
-2.16234e-17
-1.02758e-19
1.67439e-18
1.24677e-17
-4.69226e-17
1.23826e-17
0
0
0
0
0
0
0
0
0
0
0
0
0
0
0
0
0
0
0
0
0
0
0
0
0
0
0
0
0
0
0
-6.96729e-18
-2.17738e-20
1.24581e-17
-1.26917e-17
1.26322e-17
3.14871e-35
1.57835e-18
1.88568e-17
-1.75452e-17
5.00359e-17
4.43286e-35
1.22808e-19
-6.22193e-18
-1.44749e-17
2.49485e-17
-1.38752e-25
-6.01454e-09
4.46244e-12
-1.87943e-08
-1.03675e-10
-2.0615e-08
-1.315e-08
6.12044e-18
-2.5036e-17
-1.96436e-12
1.50669e-10
4.82147e-27
5.86073e-09
-4.90111e-10
-1.89116e-09
1.74821e-10
-6.02959e-10
1.28118e-08
1.80942e-12
9.37437e-10
1.59767e-12
-3.07071e-10
8.85588e-20
-5.87966e-19
1.70563e-18
1.26434e-12
-2.69514e-24
2.89233e-13
1.83874e-13
-6.72377e-16
1.5369e-34
2.23227e-08
9.72739e-16
0
-6.69365e-13
-2.49447e-17
4.31507e-34
1.17861e-10
6.19384e-18
0
-2.71728e-09
-2.05782e-08
-1.01269e-19
6.1945e-19
1.25615e-17
0
-7.81118e-19
9.72089e-20
-1.35649e-17
1.65491e-18
-5.16223e-18
-7.88494e-19
8.47817e-20
2.25884e-19
-1.87024e-17
1.52855e-18
2.95959e-17
-6.42775e-19
-2.177e-17
-1.61324e-25
6.611e-13
-8.92488e-12
-1.65276e-12
-5.90033e-11
-1.4659e-34
-2.46753e-08
2.61158e-09
4.83167e-24
-2.48978e-17
5.48431e-35
2.0266e-17
0
-6.71405e-19
-1.76653e-18
-6.07314e-18
1.25188e-18
1.45105e-17
-5.23008e-18
-8.76042e-20
-1.24346e-17
2.33676e-17
-8.50668e-19
-1.04037e-19
0
1.30057e-18
-1.39481e-17
-2.07317e-19
-9.3452e-19
1.08179e-17
0
1.74373e-15
-6.87611e-19
2.48141e-17
2.82029e-09
0
0
-2.65767e-09
-3.20152e-11
0
-1.48749e-13
-1.04795e-21
3.95768e-13
0
-5.58757e-21
-2.07815e-08
-9.91674e-14
2.06657e-14
0
0
1.72365e-17
-1.88841e-17
1.24672e-17
6.32048e-18
1.24215e-17
-5.86538e-34
-5.17832e-18
-1.69666e-18
-1.26111e-17
3.6886e-18
-1.3746e-19
0
6.99561e-34
-6.28817e-18
0
0
-2.26747e-16
-2.30578e-08
4.95827e-12
-2.22382e-08
3.11497e-18
6.79848e-15
3.07817e-18
-8.75896e-19
1.22738e-17
-1.56789e-17
6.20152e-18
-3.40959e-17
0
2.54111e-12
1.84231e-10
-9.08823e-14
1.6135e-12
-2.18392e-08
1.60684e-17
1.05207e-14
2.90448e-09
-1.30191e-21
-2.95741e-18
1.54259e-18
-4.13779e-20
-5.31051e-17
7.78157e-18
-5.00504e-17
-4.95917e-18
-1.26066e-18
-1.03888e-19
1.79657e-18
-3.25594e-17
-1.03473e-19
-1.03506e-19
1.54725e-18
-1.8567e-17
-7.46765e-37
3.1047e-18
1.26596e-18
-2.07058e-19
0
-3.09518e-17
2.05992e-19
1.86458e-18
-6.77611e-13
0
-2.11652e-08
2.16337e-17
1.64457e-18
-1.03381e-19
-3.55981e-17
0
1.81943e-18
3.10116e-18
-2.17298e-17
-1.3382e-33
-8.28443e-19
2.08496e-19
3.61861e-18
-3.41649e-17
0
-3.76702e-19
2.79609e-24
1.27817e-21
1.2916e-23
-6.1583e-17
-1.27065e-19
3.10416e-18
2.07036e-19
0
2.07158e-08
2.00406e-13
1.03486e-19
-1.21364e-17
4.57381e-18
0
0
0
0
0
0
0
0
0
0
0
0
0
0
0
0
0
0
0
0
0
0
0
0
0
0
0
0
0
2.13746e-17
-3.13635e-17
2.92867e-20
6.23554e-18
5.9272e-20
1.11841e-33
3.11596e-18
-2.48891e-17
-2.8237e-17
2.4822e-17
1.71685e-33
-7.44072e-18
2.51014e-17
-7.44302e-18
2.45995e-17
4.94943e-26
5.74427e-09
-2.01565e-10
2.12104e-08
5.1495e-09
2.12165e-08
1.2559e-08
-1.16898e-12
3.92245e-10
1.03298e-12
-1.0286e-08
1.50792e-26
-8.50497e-11
5.31685e-09
-2.13009e-08
5.22267e-09
-2.1108e-08
-1.8063e-10
-5.1132e-13
-1.06487e-08
-9.55495e-13
-1.04367e-08
-9.41124e-20
-8.01586e-12
1.65274e-12
-2.56644e-08
1.39708e-34
2.60949e-09
-9.75067e-20
6.54693e-09
-4.00308e-17
-1.93078e-26
2.3259e-12
2.76879e-17
0
4.52879e-18
-6.3805e-18
-8.45218e-19
1.63656e-17
9.73926e-20
-2.47053e-12
-1.53867e-17
-1.30923e-08
4.45766e-17
9.86337e-20
8.92488e-12
-6.20085e-09
-2.56842e-17
2.55087e-08
-1.91574e-26
-2.31706e-12
3.45136e-15
2.00155e-19
-3.16226e-17
1.81648e-26
1.57401e-17
1.97055e-19
1.9165e-18
2.31558e-12
-1.12011e-17
-9.20508e-18
1.23999e-08
-8.41153e-18
-9.99787e-20
-1.89734e-17
2.51546e-17
0
-5.78465e-13
5.01537e-25
4.10555e-18
1.67024e-16
1.00745e-34
-1.66026e-34
-3.53177e-09
3.52851e-20
-8.26365e-14
5.9191e-34
1.11763e-08
1.83925e-33
-6.78639e-20
4.01687e-34
1.04463e-18
1.47025e-18
-2.58177e-18
3.53111e-20
6.20395e-19
-2.46422e-19
-4.88435e-20
-1.18355e-18
-3.17975e-19
1.62536e-18
1.76797e-35
-5.59315e-16
-4.595e-20
5.94693e-34
5.41914e-34
-1.7604e-19
1.00067e-18
1.58873e-18
2.94823e-18
0
-1.03859e-10
0
0
-2.74632e-09
2.09729e-08
-1.02801e-19
-8.65961e-19
-1.74206e-14
0
2.08005e-08
-4.13205e-14
1.96276e-13
1.55195e-09
5.70694e-20
-9.98847e-34
-1.74629e-09
1.08067e-19
1.48748e-13
5.82435e-21
-4.68394e-34
1.00427e-20
9.9165e-14
0
0
-7.26048e-18
-1.26301e-17
1.83525e-32
1.24789e-17
1.2501e-17
-1.8138e-35
-1.07616e-17
4.94404e-19
-6.19209e-18
1.74257e-17
-1.4725e-17
7.4908e-17
-1.58485e-35
-6.16086e-18
4.99519e-17
-2.11431e-26
6.01447e-09
5.86081e-09
-4.95647e-10
-2.33784e-08
1.7915e-10
-2.1787e-08
1.31501e-08
1.28118e-08
1.87657e-12
9.37406e-10
1.59422e-12
-3.07102e-10
6.08424e-25
1.52881e-12
-4.13435e-08
-1.03387e-10
-2.06152e-08
4.59012e-18
-1.87769e-17
-1.97125e-12
1.50607e-10
0
2.86852e-19
8.86289e-12
5.78465e-13
4.88726e-16
0
2.46748e-08
2.05121e-08
-1.75296e-19
-1.39184e-18
-2.18098e-17
0
2.5183e-16
1.85966e-17
-9.05358e-20
-4.31472e-19
-9.00974e-19
-4.81826e-20
-6.3223e-19
6.20275e-18
-7.9049e-18
8.75941e-20
-8.77124e-19
-9.31913e-18
1.1971e-18
2.95151e-17
-8.85528e-20
1.43401e-18
8.47037e-13
1.26433e-12
1.01321e-19
-1.90066e-13
-3.11954e-13
-5.00765e-17
0
2.23227e-08
4.55308e-09
8.48317e-20
-3.1042e-17
0
2.63906e-17
0
3.20062e-10
-4.29587e-08
8.85484e-20
7.36702e-19
-5.04562e-19
3.21312e-19
-1.01269e-19
3.84375e-19
6.27238e-18
-6.63149e-19
5.72649e-18
-5.16208e-18
-8.47813e-20
-1.24603e-17
1.3882e-17
-5.62435e-19
-4.05542e-17
-1.74641e-18
1.04247e-19
4.29557e-18
-4.34756e-17
-2.61936e-33
-2.0509e-19
3.0786e-18
-3.38769e-17
2.9318e-19
1.41972e-21
-2.13133e-24
0
-2.08557e-08
-5.14422e-13
1.03488e-19
-3.66431e-17
4.58674e-18
5.41878e-19
5.70299e-20
6.97056e-19
5.40016e-20
-1.33803e-19
6.99992e-24
-3.91892e-23
7.00973e-20
0
-2.14283e-34
6.16271e-20
0
0
0
0
0
0
0
0
0
0
0
0
0
0
0
0
0
0
0
0
0
0
0
0
0
0
0
0
-9.39495e-17
-1.03626e-33
-1.08902e-17
1.25724e-17
-3.52092e-17
1.23764e-17
-4.70312e-33
-1.04864e-17
-6.18736e-18
2.13656e-17
3.75244e-17
6.16034e-25
7.36759e-18
-4.93279e-09
-3.53439e-17
-1.07953e-08
7.76749e-34
1.77229e-17
-3.12162e-17
-3.66456e-17
6.24336e-17
-9.58326e-20
3.14023e-12
2.07908e-17
3.32244e-10
0
3.47471e-15
-1.9449e-19
-6.28593e-09
3.10902e-17
0
-3.15056e-12
-1.24511e-17
-1.91505e-19
9.45371e-19
4.69616e-18
9.88544e-18
-2.79195e-17
9.71377e-20
2.11759e-12
2.07083e-20
1.25678e-08
-2.33364e-17
5.99229e-25
4.21453e-12
1.34129e-10
-3.22283e-12
5.77328e-10
0
-5.74066e-10
-2.1304e-08
0
3.11176e-17
0
-1.08346e-17
9.89755e-20
3.09779e-18
-7.02425e-13
1.25052e-17
-3.57902e-18
-2.84573e-10
-3.42933e-17
9.84975e-20
1.55517e-17
-2.32986e-17
-5.28418e-20
-4.13185e-13
-5.64416e-11
1.69979e-34
-5.97145e-20
-4.13184e-13
4.81901e-34
1.35454e-10
-5.28642e-20
1.08054e-18
-2.23223e-18
5.97479e-20
1.31119e-18
-3.47076e-18
9.44091e-20
6.88726e-18
-6.03103e-19
-8.99355e-18
1.48032e-15
1.58083e-34
-4.73034e-16
-7.87316e-15
-7.6947e-20
6.97545e-34
-9.44142e-20
-1.7732e-19
8.69276e-19
-1.72439e-18
-8.3875e-18
1.73853e-18
4.81111e-17
7.69604e-20
-1.0539e-10
-5.70683e-20
-6.75703e-34
-1.51629e-09
-5.40325e-20
8.88355e-14
-3.09145e-34
4.13187e-14
0
0
-3.52797e-17
6.25016e-18
1.25556e-17
1.8736e-17
-2.50716e-17
1.15351e-34
-3.11596e-18
-1.45156e-17
1.15143e-19
2.12699e-17
8.5645e-32
4.98944e-17
7.8538e-34
-1.2343e-17
4.98466e-17
-6.69222e-27
-5.74454e-09
1.995e-17
7.22048e-12
2.13014e-08
5.21233e-09
2.11099e-08
-1.25593e-08
-2.47967e-17
6.26518e-18
-1.87846e-17
-9.09004e-13
-1.04369e-08
-4.94943e-26
-2.01322e-10
2.12103e-08
5.14978e-09
2.12167e-08
-1.17413e-12
3.92199e-10
1.03297e-12
-1.0286e-08
-9.86369e-20
1.1404e-11
-6.20075e-09
-2.26753e-17
2.59184e-08
0
-2.31706e-12
3.44871e-15
-1.00074e-19
-6.54668e-09
-3.48312e-17
0
-2.25532e-12
6.46997e-18
0
2.00686e-18
2.31558e-12
-1.14864e-17
-1.33911e-17
1.23999e-08
-1.96283e-18
0
2.39994e-12
-1.27449e-17
1.30923e-08
2.53231e-17
-9.41128e-20
-8.34641e-12
-5.7846e-13
-2.56644e-08
0
2.05744e-08
0
-1.87132e-17
0
1.39447e-17
8.59635e-34
2.81904e-18
2.85265e-18
-9.5889e-19
-1.66546e-17
-9.73933e-20
-9.29626e-18
2.93109e-17
4.88284e-20
-8.26374e-14
-2.70639e-12
1.26542e-08
0
-1.35175e-08
0
1.90065e-13
0
-1.0003e-08
3.73689e-33
1.18172e-19
1.35294e-20
-8.60969e-19
1.47442e-18
0
-6.20431e-19
2.6004e-18
-1.51333e-19
-1.75605e-13
5.01539e-25
3.28365e-18
1.63023e-16
0
-3.78764e-34
-1.82791e-09
3.01922e-24
0
-7.56435e-20
-1.58749e-19
4.05453e-34
3.72155e-19
-4.824e-18
1.10678e-18
0
-1.02353e-18
0
1.67457e-18
5.40043e-20
1.57092e-20
7.20182e-20
-2.78599e-24
-4.9264e-34
0
0
0
0
0
0
0
0
0
0
0
0
0
0
0
0
0
0
0
0
0
0
0
0
0
0
0
0
-3.71275e-18
0
2.78987e-17
2.50612e-17
5.00748e-17
9.95476e-22
2.50441e-17
3.69872e-33
3.64236e-18
-6.29834e-18
-1.32622e-17
3.72324e-17
2.61733e-33
-1.25422e-17
4.99955e-17
0
3.56886e-18
1.32221e-12
5.99272e-10
-1.88349e-17
2.06504e-17
1.70866e-15
9.26339e-18
1.45333e-18
3.74971e-18
-1.97463e-17
-2.18952e-17
9.30349e-18
-2.78558e-17
4.21551e-20
0
-1.50758e-18
-4.53539e-18
2.19591e-17
-1.07705e-17
2.49611e-17
-1.7682e-17
-1.39866e-17
-9.43701e-18
-2.64757e-17
0
1.81729e-19
2.68032e-19
1.06342e-17
4.17748e-18
0
-6.72341e-17
0
-9.0739e-18
2.15638e-17
0
7.87245e-18
-1.84225e-17
0
1.81665e-18
-1.53849e-18
1.75361e-18
-1.667e-17
9.5832e-20
-8.67788e-19
2.97826e-18
9.22298e-18
-2.94002e-17
1.00347e-19
1.13556e-17
1.28832e-17
-6.94382e-18
0
1.64404e-15
-1.14565e-33
6.07371e-18
0
-4.55532e-18
8.9342e-34
-2.30776e-18
-6.43581e-18
-1.04472e-17
-2.62029e-17
1.00022e-19
9.27517e-18
-1.37799e-17
1.6821e-31
2.58928e-18
5.4695e-35
4.63288e-16
-8.38144e-34
-2.06019e-18
-4.23415e-18
0
0
0
-9.39691e-17
2.00862e-33
1.47814e-19
-3.33302e-18
6.29658e-18
1.37246e-17
2.84219e-17
2.51139e-17
1.23515e-33
1.30549e-19
4.99646e-17
-9.39951e-36
-2.48371e-19
1.79629e-17
-3.12161e-17
2.16046e-17
-3.56863e-17
1.21175e-17
5.06403e-35
2.03744e-17
3.10225e-18
0
-4.21452e-12
8.21212e-12
3.22289e-12
-5.77327e-10
0
5.74764e-10
2.1304e-08
9.85987e-20
6.28581e-09
2.79942e-17
0
3.17122e-12
-2.48618e-17
-9.89753e-20
3.74832e-18
-3.52436e-18
9.40654e-18
-8.70116e-18
9.36312e-18
-2.33118e-17
0
-2.11759e-12
9.33168e-18
-1.25675e-08
-3.2683e-17
9.58299e-20
3.38814e-12
1.75811e-17
3.32875e-10
0
3.46074e-15
9.72527e-20
3.42148e-17
0
-1.55902e-17
-9.57511e-20
-3.94959e-18
1.40113e-17
6.97739e-18
-3.39722e-17
-9.71344e-20
1.24371e-17
-2.18017e-17
-9.44116e-20
6.47391e-18
-2.40451e-18
-1.58755e-17
1.47728e-15
0
-4.64469e-16
-9.71027e-15
-7.69471e-20
4.13184e-13
0
-1.35454e-10
0
1.77791e-18
1.71381e-18
3.33695e-18
-1.141e-17
3.44455e-18
4.15404e-17
-1.5392e-19
-1.31119e-18
3.47076e-18
-5.28335e-20
-4.13186e-13
-5.64416e-11
0
0
0
4.74281e-33
1.61243e-18
-2.73875e-18
5.97477e-20
0
0
0
0
0
0
0
0
0
0
0
0
0
0
0
0
0
0
0
0
0
0
0
0
0
0
1.88522e-17
-6.65407e-33
-1.43991e-17
-2.07775e-17
-6.16846e-18
-2.03321e-17
2.14369e-17
6.26025e-17
-9.40625e-33
2.51576e-17
6.25164e-18
0
3.75876e-17
-5.13326e-25
-3.53294e-18
-5.2763e-09
4.23521e-13
-7.09393e-12
-5.36333e-09
-7.06706e-18
-4.23515e-13
1.05526e-08
1.06955e-08
-1.0588e-12
-2.46334e-33
-6.4601e-18
1.21488e-17
2.64694e-19
-9.63063e-20
0
-6.23601e-18
1.87337e-17
0
2.00154e-18
-2.72704e-12
-9.09013e-13
0
-2.38333e-08
-2.12661e-08
3.56673e-18
-6.29216e-18
2.20567e-18
-1.15977e-34
-1.34591e-17
1.25612e-17
0
1.88282e-18
2.22277e-20
-9.23743e-18
-1.24126e-17
2.00276e-17
3.66284e-18
6.21308e-18
1.97749e-17
-9.74184e-20
0
-2.78573e-18
-9.74241e-20
2.10992e-17
1.18585e-11
3.38817e-12
0
8.90233e-10
2.09351e-08
1.25046e-17
2.94002e-17
-1.94688e-19
-1.54613e-17
-9.73054e-20
5.46033e-18
-9.4987e-19
-3.06982e-18
9.25124e-18
-2.33813e-17
3.09265e-18
3.82949e-20
2.80892e-18
-1.22036e-18
0
0
-1.90968e-18
0
1.27164e-18
-3.8328e-20
-6.45441e-19
-1.02355e-18
-5.67024e-20
-1.91937e-18
3.51901e-18
-1.9401e-19
1.0743e-12
-3.30559e-13
-2.17695e-08
0
-4.40587e-08
-7.51435e-20
0
3.21612e-33
-4.501e-19
-1.19638e-17
-9.05968e-18
3.83022e-17
1.5031e-19
0
0
0
0
3.61745e-18
7.2349e-18
2.82941e-17
1.25971e-17
8.78863e-17
-6.27741e-18
3.76166e-17
-2.36425e-33
-3.42505e-18
1.88336e-17
2.78301e-17
3.74962e-17
-2.39568e-33
-3.11569e-17
6.25338e-17
0
-3.20408e-18
-3.80891e-18
-1.55235e-17
1.4049e-17
-1.39512e-17
1.25112e-17
0
-4.27508e-17
-2.33002e-17
1.4144e-17
-2.01654e-17
3.13671e-18
0
3.45013e-12
2.47471e-08
-7.78181e-18
5.78466e-12
-1.17623e-10
3.01327e-18
1.69789e-18
-2.60801e-17
-7.72313e-18
6.19126e-18
-1.38578e-17
9.35154e-18
2.00695e-19
8.82089e-18
-5.78463e-12
-8.7584e-18
0
-1.57934e-09
2.00123e-19
6.94293e-18
2.4662e-17
0
-4.15299e-18
-4.5996e-18
-2.00583e-19
4.47194e-18
-5.77658e-20
-8.32357e-18
-6.83778e-18
-1.00031e-19
2.60363e-18
-3.1003e-18
-8.64032e-18
-1.84685e-17
-9.08651e-20
-4.23828e-18
1.38107e-17
4.84412e-18
0
-1.71802e-15
9.58711e-20
1.54769e-17
0
-2.97775e-18
-1.8167e-19
-6.81707e-19
1.23064e-17
5.75266e-18
6.34606e-18
-1.91667e-19
1.20424e-17
-1.09443e-17
4.16776e-31
2.47126e-18
0
7.69018e-16
-4.48594e-34
-1.20188e-18
-1.14447e-18
0
0
0
0
0
0
0
0
0
0
0
0
0
0
0
0
0
0
0
0
0
0
0
0
-6.55388e-18
0
3.54854e-17
-2.50191e-17
3.76558e-17
1.86519e-17
2.49467e-17
1.9039e-24
-6.00236e-09
5.72538e-09
-5.15427e-09
-6.87013e-13
5.64674e-09
3.7358e-12
-1.30964e-08
1.25206e-08
6.86934e-13
1.03091e-08
-3.73591e-12
-1.12946e-08
-5.99505e-24
-5.07005e-09
-1.10625e-08
-9.8914e-20
-2.29823e-10
-3.38813e-12
-1.67857e-12
1.39749e-25
2.10693e-08
-2.0163e-19
2.99411e-25
-2.59618e-08
-5.62663e-10
9.83388e-12
-9.83385e-12
0
1.05879e-12
9.3532e-18
4.57973e-10
-2.80555e-17
-2.0127e-19
1.57919e-17
-5.59758e-17
1.53074e-19
9.3889e-18
3.92703e-26
2.59124e-08
6.28047e-12
-5.05811e-09
9.91906e-13
4.87765e-18
8.78202e-15
-2.4448e-17
2.07754e-18
-9.86491e-13
1.01162e-08
-3.22523e-18
-3.76399e-17
1.61579e-08
0
0
1.75232e-09
0
-1.65268e-13
2.27252e-13
0
-2.53614e-08
4.95831e-13
8.28243e-18
0
6.54489e-18
-2.09525e-33
-1.22079e-21
-2.15191e-18
6.37387e-18
7.36246e-19
-2.42151e-08
9.56421e-20
0
2.27052e-08
9.38578e-20
-1.73538e-12
-2.78903e-12
-6.61104e-13
0
-2.48333e-08
3.35914e-09
-2.68583e-13
2.40933e-17
-1.91326e-19
1.36117e-17
9.38141e-20
3.60349e-18
-3.39527e-18
-1.37456e-18
2.77755e-17
1.50547e-18
-6.76444e-18
2.70138e-24
0
-7.46858e-34
0
0
0
0
0
1.88522e-17
7.44685e-33
3.61181e-19
-1.06343e-17
-1.88302e-17
2.05732e-17
0
3.75879e-17
2.16547e-33
-3.0239e-18
-6.31393e-17
2.11071e-17
3.74696e-17
1.03731e-33
-3.53604e-18
-2.49981e-17
1.34094e-17
2.5239e-17
9.38102e-25
-5.3003e-09
1.55289e-12
-2.45288e-11
-5.56676e-09
-1.5529e-12
1.06021e-08
1.10278e-08
-3.1058e-12
1.1621e-17
9.74192e-20
0
1.01315e-17
-3.22758e-18
-2.96376e-24
1.00998e-17
-2.71706e-11
-8.26375e-12
0
-2.57233e-08
1.13141e-10
-1.46656e-17
3.36365e-19
1.84418e-17
9.73478e-20
1.43953e-17
-1.81674e-18
0
7.30526e-18
-2.78743e-18
3.13913e-18
0
-1.24171e-17
-5.54283e-18
-9.41164e-18
2.56163e-18
1.36715e-33
0
2.02998e-17
-9.19877e-20
-2.34742e-19
7.4374e-12
2.06592e-12
0
4.78332e-08
6.23137e-10
-2.49848e-17
-2.08845e-18
0
2.96668e-17
0
-1.70774e-18
9.0168e-19
4.6772e-18
-2.30188e-17
3.06787e-17
-9.38633e-18
-1.93995e-19
8.2638e-13
-3.45013e-12
1.90585e-09
0
-2.47005e-08
-7.5141e-20
-4.95824e-13
0
-1.73307e-08
9.70031e-20
-2.95314e-19
-3.48654e-18
-6.71355e-18
3.46935e-17
-7.51541e-20
6.37103e-19
-3.85611e-18
-7.65796e-20
3.03105e-18
-1.22033e-18
0
0
0
0
2.11151e-18
-2.25039e-18
5.66888e-20
0
0
0
0
0
0
0
0
0
0
0
0
0
0
0
0
0
0
0
0
-2.1434e-17
3.9758e-22
1.26956e-17
-1.26671e-17
1.24771e-17
1.6569e-33
1.76828e-17
-1.78332e-17
-2.83422e-21
-2.07489e-17
0
2.50931e-17
2.51931e-33
-1.54893e-19
-1.90567e-17
3.10224e-19
5.22224e-17
-9.84689e-20
-1.80848e-17
-6.1081e-09
1.95428e-17
-2.05881e-15
0
-1.25119e-12
6.97e-15
0
6.69382e-09
1.84524e-17
0
8.13638e-12
-2.16648e-17
9.83963e-20
-3.67421e-18
1.25506e-12
-1.81598e-19
2.58559e-17
1.2215e-08
-4.14078e-17
0
-6.49394e-12
2.97375e-18
-1.33798e-08
-3.08208e-17
0
8.38767e-18
-7.62069e-18
-6.1893e-18
-1.57757e-17
1.13178e-17
-1.2379e-17
-2.25041e-18
-1.54213e-17
4.64047e-18
0
2.22867e-17
1.23765e-17
-9.96851e-20
1.48746e-12
5.36192e-18
2.65861e-08
-2.11723e-33
1.19077e-16
1.02208e-19
-4.28322e-33
1.23635e-09
5.0409e-12
-2.00963e-33
-4.25241e-18
4.63258e-18
2.66248e-17
-1.00929e-17
1.02169e-19
-1.54793e-17
1.36544e-18
-1.98788e-19
8.4241e-18
3.28002e-17
-1.81145e-16
0
6.95728e-15
0
-5.80392e-18
-6.25175e-18
0
-1.20863e-16
-6.09045e-18
9.92622e-20
-1.14191e-18
9.78676e-20
-1.17144e-17
-5.6205e-17
9.7026e-20
-1.53112e-18
6.34512e-18
3.54604e-18
-1.52834e-18
-3.88698e-09
-1.84687e-24
0
4.48436e-20
-6.1975e-14
-4.46244e-12
0
-3.36385e-08
2.43624e-18
1.43581e-33
-4.48568e-20
1.10078e-18
-1.29693e-18
1.02582e-17
0
0
0
0
0
0
-2.1238e-17
0
-7.84494e-17
5.83176e-18
1.30565e-17
1.23838e-17
2.51467e-17
2.34877e-24
5.83736e-09
-1.00146e-10
1.27473e-08
-1.97655e-10
-2.89342e-24
-1.97615e-10
-5.33243e-09
-7.80298e-10
2.2105e-10
-1.02331e-09
-4.24044e-10
-6.52491e-13
1.07049e-08
-2.46018e-12
-5.03047e-10
-7.31192e-27
-2.49491e-08
6.44575e-12
-5.47826e-09
-2.33049e-08
-4.97892e-12
-2.26447e-08
2.08661e-12
1.081e-09
-9.43837e-18
1.52196e-19
1.2258e-12
1.08768e-08
1.67505e-18
-5.64238e-18
1.75676e-18
-2.09313e-17
-9.89203e-20
-6.67948e-09
8.26378e-12
-6.07042e-12
1.81224e-25
-8.27412e-12
-1.00821e-19
9.15389e-26
-2.07615e-08
6.44575e-12
9.88377e-20
3.1058e-12
9.35302e-18
1.33497e-08
-4.67013e-18
1.00626e-19
-7.4639e-18
1.25851e-17
2.42155e-08
-9.56337e-20
0
-2.16663e-08
-2.25894e-08
-9.38503e-20
9.09019e-13
-1.12387e-11
3.60924e-18
0
-5.15635e-08
-1.20705e-16
7.43733e-13
3.92522e-13
2.44025e-18
0
-2.99023e-18
3.43829e-18
-9.38228e-20
7.20895e-18
-5.44273e-18
-3.06217e-18
3.53567e-18
-5.99994e-18
-8.01578e-18
1.68085e-18
-1.57131e-08
0
0
-4.45076e-20
-1.6527e-13
2.54111e-12
0
6.54547e-09
1.13659e-17
7.21115e-20
0
-9.98182e-20
-6.07234e-19
9.15612e-18
-4.25142e-24
0
-5.49404e-34
0
0
0
0
0
0
0
0
0
0
0
0
0
0
0
0
0
-2.52577e-17
6.07799e-35
1.43513e-17
7.16506e-18
2.21075e-19
2.55694e-17
-1.74831e-34
-4.49831e-19
1.93857e-19
-1.4351e-17
3.79853e-17
1.28802e-24
5.77736e-09
-1.95231e-11
-2.4323e-08
2.6444e-12
-2.99561e-12
4.36274e-08
-1.94392e-10
2.14962e-08
-2.39947e-08
1.26388e-08
-2.48455e-19
-1.6936e-17
-1.77634e-18
-3.22868e-18
-3.88873e-18
1.2714e-17
1.63554e-12
4.1558e-10
-3.79042e-24
5.9295e-09
-5.87717e-09
-2.21232e-08
-2.25827e-10
-2.16913e-08
1.2939e-08
4.64321e-12
1.17074e-08
-6.07731e-13
4.68447e-10
-1.93346e-19
-2.20339e-17
4.71035e-12
1.23956e-12
1.93633e-17
0
2.46814e-08
4.59156e-11
0
1.86488e-17
0
-1.54597e-17
1.25394e-33
-4.10329e-18
8.66467e-19
-4.65044e-18
2.5733e-17
-6.63828e-18
-7.62178e-24
0
9.39013e-18
-1.39757e-17
-1.06264e-17
-9.55226e-20
0
2.50492e-18
2.17289e-17
1.01172e-19
-1.33672e-17
1.65275e-12
0
-2.05377e-08
-5.14373e-18
-3.70931e-17
-1.45689e-17
9.54754e-20
-2.71408e-19
3.40693e-17
1.00891e-19
-1.71387e-18
-4.65825e-18
1.17157e-17
-1.34945e-19
-1.21991e-17
-1.4816e-19
-1.48748e-12
2.43705e-08
0
-2.00036e-19
0
2.55707e-17
-1.69309e-17
-1.48155e-19
1.31146e-18
1.73933e-17
-1.93389e-33
4.95103e-17
-6.79658e-18
0
3.30561e-13
-1.96265e-12
1.37459e-09
0
-2.19472e-08
5.53287e-25
4.95818e-13
0
1.3966e-08
-9.52e-20
-2.03534e-19
-8.34161e-18
-2.03968e-17
2.64298e-17
0
-4.82429e-19
1.21956e-17
0
0
0
0
0
0
-7.85106e-17
-1.26671e-17
-2.51466e-17
2.51356e-17
1.26956e-17
-8.0292e-34
-1.76832e-17
-1.40175e-17
-3.19618e-17
5.03742e-17
-1.25289e-31
2.46054e-17
9.01652e-35
4.07415e-18
2.34245e-21
0
-1.34598e-18
0
-6.41373e-09
-5.14592e-12
-1.08267e-17
9.58486e-22
6.27383e-18
1.23794e-17
-1.10477e-17
6.85397e-18
4.1646e-12
1.28228e-08
-1.08289e-17
0
-2.38337e-19
1.23766e-17
-1.31697e-17
-7.74937e-18
1.96943e-19
-1.30568e-11
2.1903e-10
1.2829e-17
-2.52887e-08
0
1.41388e-12
-1.63843e-16
-1.99103e-19
2.7985e-17
0
-2.63601e-17
-6.44275e-25
-9.69553e-18
-1.41173e-12
1.70822e-17
2.53309e-17
-4.37071e-10
-1.97291e-17
-9.93881e-20
1.57605e-17
-2.46848e-17
-2.98187e-19
1.25609e-11
1.83119e-17
2.58453e-08
0
-2.13607e-16
9.70816e-20
3.24163e-19
6.36311e-12
0
-3.49762e-18
2.50546e-08
-2.10028e-25
-1.98329e-12
-3.36748e-12
9.11628e-34
1.28703e-09
-2.27682e-08
-1.98515e-19
-1.91067e-18
-1.55015e-18
6.54295e-18
-2.26825e-17
9.70105e-20
0
1.85317e-18
-5.07176e-18
-1.04655e-17
1.02163e-19
2.47599e-18
-1.6383e-18
-8.37763e-18
6.38692e-19
-3.50992e-24
-2.25187e-12
4.36711e-34
-1.99344e-08
9.96545e-20
1.65216e-18
-6.19592e-18
1.09672e-08
4.63383e-25
0
4.48375e-20
-8.26381e-14
8.05721e-13
0
-1.65925e-10
-3.88856e-09
-2.63954e-24
2.36305e-24
9.50332e-13
1.20686e-18
-3.51248e-18
0
0
0
0
0
0
0
0
0
0
0
0
0
0
-3.54168e-17
-1.84533e-18
-7.81478e-17
1.78777e-19
3.74441e-17
5.74649e-18
-2.62613e-19
4.21644e-25
2.13776e-17
5.25125e-09
-2.93933e-17
1.14571e-08
8.07867e-34
-2.4874e-17
2.46344e-17
0
2.72705e-12
2.12792e-12
-3.75357e-18
0
1.65263e-13
3.69804e-12
-1.74925e-10
0
-1.6643e-08
1.94082e-08
0
-6.26208e-09
-1.83939e-17
0
-1.54258e-12
2.00732e-17
0
-2.4093e-08
2.48503e-08
1.97678e-19
3.09812e-18
-3.73434e-18
-7.97497e-20
1.76886e-18
9.22866e-19
-8.45089e-18
1.09386e-17
3.40526e-17
5.06951e-18
1.14679e-17
2.09788e-17
-1.83379e-19
1.55291e-12
-9.1967e-18
1.25234e-08
2.31184e-17
-1.00081e-19
7.35478e-12
-6.4868e-09
8.34987e-18
9.34843e-10
0
-4.89524e-12
-1.73176e-16
9.89838e-20
-3.24737e-18
0
8.64539e-22
7.30835e-26
3.33862e-18
4.89112e-12
4.89665e-18
-3.25805e-17
1.29713e-08
-8.17131e-18
0
6.6585e-18
-8.3499e-20
6.1446e-20
-7.5849e-18
1.38418e-12
1.04057e-17
0
1.04843e-08
9.4825e-20
-3.26935e-17
0
3.60264e-17
-6.14596e-20
-2.42928e-18
-3.1457e-18
1.37323e-17
8.96749e-18
0
-1.3068e-17
4.91411e-17
0
0
-1.18046e-15
-9.34337e-18
-9.59786e-34
1.307e-17
-3.20413e-18
6.42936e-26
0
1.72853e-34
-4.68944e-24
0
-7.84281e-34
0
0
0
0
0
0
0
-2.4728e-17
-1.5792e-34
-1.43513e-17
-1.43461e-17
-2.5129e-17
-2.21075e-19
-1.4351e-17
2.53235e-17
3.37349e-34
-5.61996e-18
2.55694e-17
8.3813e-25
7.26178e-18
5.9294e-09
-5.87659e-09
-2.21223e-08
9.21067e-12
-2.16926e-08
2.41107e-17
1.2939e-08
4.48826e-12
1.17073e-08
-3.38507e-18
-2.4585e-17
3.49375e-34
2.47422e-18
2.03091e-15
-3.09892e-13
3.30551e-12
2.04526e-08
1.44168e-11
2.14975e-08
2.3995e-08
1.87916e-18
-5.31333e-18
-3.32749e-18
3.57361e-18
6.0236e-19
1.09156e-17
-6.23827e-18
-1.25738e-17
-1.14803e-17
-9.55249e-20
0
6.39915e-18
3.9748e-18
1.01164e-19
-1.62798e-17
-1.78319e-17
0
1.66414e-15
-2.78809e-17
-1.98586e-18
-9.89977e-20
0
-1.72265e-17
-1.85605e-17
2.54879e-17
1.86932e-17
-1.59346e-17
-2.39432e-34
2.02696e-17
8.46364e-18
0
-5.65297e-18
6.66593e-18
6.22698e-18
-1.05939e-19
-2.70202e-19
9.89443e-20
-2.1951e-17
-4.58472e-18
6.90995e-18
1.24909e-17
9.66749e-20
1.43807e-18
1.46914e-18
0
-7.92674e-16
-7.13785e-15
-9.66412e-20
6.29496e-18
1.55601e-18
1.02914e-17
3.10072e-17
-9.5212e-20
5.78459e-13
-1.15694e-12
1.37383e-09
0
-2.23376e-08
6.21165e-20
2.47911e-13
0
3.98727e-12
9.08998e-13
0
1.39616e-08
0
2.43715e-08
2.2476e-08
2.03707e-33
3.40044e-18
-4.87754e-18
-4.89581e-18
4.63312e-17
-6.21355e-20
-5.16391e-19
-1.99968e-19
2.13504e-18
-5.09521e-18
7.96286e-18
-1.80379e-18
1.87337e-17
-3.74715e-24
0
-7.40808e-20
0
0
0
0
0
0
0
0
0
0
0
-3.1905e-17
3.75823e-34
-2.1721e-19
-7.04078e-18
-2.5512e-17
-8.71186e-19
5.50726e-17
1.17169e-17
-7.68998e-34
-3.64674e-17
-2.56769e-17
-2.81349e-17
6.38745e-17
0
4.2806e-17
2.80969e-12
5.12492e-10
-1.23891e-17
3.71871e-12
-2.15726e-08
1.87759e-17
-2.93025e-17
7.03287e-18
-1.42179e-17
-2.01857e-17
4.42275e-18
-2.65297e-17
6.17732e-18
0
-6.21488e-18
3.72772e-17
-8.14485e-24
1.18973e-24
4.02654e-18
-1.82848e-16
0
0
0
-2.479e-13
0
2.1795e-08
-1.6659e-33
-1.68554e-33