/*--------------------------------*- C++ -*----------------------------------*\
| =========                 |                                                 |
| \\      /  F ield         | OpenFOAM: The Open Source CFD Toolbox           |
|  \\    /   O peration     | Version:  5.x                                   |
|   \\  /    A nd           | Web:      www.OpenFOAM.org                      |
|    \\/     M anipulation  |                                                 |
\*---------------------------------------------------------------------------*/
FoamFile
{
    version     2.0;
    format      ascii;
    class       volScalarField;
    location    "2.3";
    object      nut;
}
// * * * * * * * * * * * * * * * * * * * * * * * * * * * * * * * * * * * * * //

dimensions      [0 2 -1 0 0 0 0];

internalField   nonuniform List<scalar> 
12160
(
1.48453e-09
1.71006e-09
6.89017e-08
1.5976e-09
7.11197e-08
6.25869e-08
1.67377e-09
1.24148e-07
6.98126e-08
8.46184e-08
1.8026e-09
3.62078e-08
1.24867e-07
6.4261e-08
6.64883e-08
1.98581e-09
2.63586e-08
3.96109e-08
1.03271e-07
6.70082e-08
8.67741e-08
2.22823e-09
2.24966e-08
2.69883e-08
3.62103e-08
1.5007e-07
4.64322e-08
6.92e-08
2.55525e-09
2.06706e-08
2.21302e-08
2.78451e-08
4.19683e-08
7.62671e-08
2.66907e-08
6.48709e-09
3.02417e-09
1.90388e-08
2.01761e-08
2.35367e-08
3.17922e-08
4.6952e-08
4.17594e-08
7.98342e-09
1.49042e-08
3.73296e-09
1.77791e-08
1.88064e-08
2.0973e-08
2.48115e-08
4.1789e-08
3.23449e-08
1.02618e-08
1.44429e-08
1.67583e-08
4.9115e-09
1.66926e-08
1.75679e-08
1.92086e-08
2.06181e-08
3.005e-08
3.92109e-08
1.42376e-08
1.10298e-08
2.1565e-08
8.62586e-09
7.15022e-09
1.56812e-08
1.66046e-08
1.76238e-08
1.84276e-08
2.2852e-08
2.73614e-08
2.39581e-08
9.38098e-09
9.98138e-08
8.27372e-09
8.94925e-09
1.16222e-08
1.47499e-08
1.5667e-08
1.6575e-08
1.72267e-08
1.96591e-08
2.00878e-08
9.88408e-08
9.46463e-09
4.03006e-08
6.06187e-09
7.03068e-09
5.87974e-09
1.31792e-08
1.40797e-08
1.47151e-08
1.5529e-08
1.64861e-08
1.81443e-08
1.66617e-08
2.87509e-08
9.74604e-09
2.66631e-08
4.44037e-09
1.7324e-08
6.82406e-09
1.00844e-08
8.46267e-09
1.40299e-08
1.39894e-08
1.4358e-08
1.54234e-08
1.73848e-08
1.56327e-08
1.76537e-08
9.33497e-09
2.14865e-08
4.93602e-09
7.70206e-09
7.56598e-09
6.01084e-09
5.95631e-09
5.88979e-09
1.49775e-08
1.3776e-08
1.33673e-08
1.39716e-08
1.64352e-08
1.55263e-08
1.3856e-08
1.08077e-08
1.69978e-08
6.7131e-09
4.80699e-09
5.95427e-09
1.3561e-08
1.65586e-08
4.75361e-09
1.77559e-08
1.43667e-08
1.28594e-08
1.26924e-08
1.48155e-08
1.46868e-08
1.1429e-08
1.72047e-08
1.24084e-08
1.09479e-08
4.09072e-09
1.30967e-08
6.95672e-09
4.42407e-09
4.3361e-09
2.50115e-08
1.63209e-08
1.30346e-08
1.1958e-08
1.32549e-08
1.26142e-08
9.63809e-09
5.92383e-08
9.00374e-09
2.31858e-08
3.82083e-09
1.43308e-08
7.6254e-09
4.40202e-09
4.3835e-09
4.07627e-08
2.05859e-08
1.41141e-08
1.18635e-08
1.21275e-08
1.0793e-08
8.40387e-09
5.36264e-08
1.02175e-08
5.71703e-08
3.44011e-09
9.23568e-09
1.27437e-08
9.6696e-09
4.95613e-09
3.28504e-08
2.58793e-08
1.62783e-08
1.23779e-08
1.14064e-08
9.75116e-09
7.77558e-09
2.45596e-08
1.56434e-08
5.12743e-08
3.60825e-09
6.46028e-09
2.04988e-08
1.94728e-08
6.37678e-09
1.79873e-08
2.18493e-08
1.79514e-08
1.33338e-08
1.09186e-08
9.17284e-09
7.71231e-09
1.8227e-08
3.35943e-08
4.9356e-08
5.80364e-09
8.15769e-09
1.36107e-08
1.72137e-08
8.41777e-09
1.19839e-08
1.48007e-08
1.63809e-08
1.38117e-08
1.06805e-08
8.77703e-09
8.2332e-09
1.63696e-08
6.91362e-08
7.31025e-08
1.43518e-08
5.63708e-09
7.57012e-09
1.38001e-08
7.02952e-09
9.2008e-09
1.07383e-08
1.26196e-08
1.23855e-08
1.05514e-08
8.72913e-09
9.33044e-09
1.62279e-08
4.07654e-08
2.37099e-07
4.1473e-08
1.00018e-08
1.45662e-08
1.83414e-08
4.36995e-09
7.77201e-09
8.51786e-09
9.67855e-09
1.02051e-08
9.96546e-09
8.38818e-09
1.10745e-08
1.77868e-08
2.90438e-08
1.2363e-07
6.67517e-08
3.00218e-08
1.46794e-08
1.21611e-08
2.96022e-09
7.06964e-09
7.28662e-09
7.91818e-09
8.41274e-09
8.62113e-09
7.55747e-09
1.21092e-08
2.09055e-08
2.20682e-08
5.30829e-08
4.98709e-08
2.75117e-08
1.21168e-08
1.13648e-08
2.21261e-09
6.83613e-09
6.66885e-09
6.88726e-09
7.14224e-09
7.21063e-09
6.7623e-09
1.1117e-08
2.79411e-08
1.6991e-08
3.53283e-08
3.65825e-08
3.46396e-08
2.13573e-08
3.09147e-08
1.779e-09
6.92863e-09
6.46489e-09
6.37188e-09
6.32382e-09
6.27938e-09
6.11895e-09
8.77293e-09
5.13573e-08
1.35509e-08
2.94601e-08
2.74293e-08
2.69688e-08
1.9172e-08
1.5173e-08
1.50973e-09
7.3655e-09
6.56624e-09
6.20405e-09
5.87959e-09
5.68429e-09
5.53566e-09
6.74504e-09
4.04614e-08
1.18154e-08
2.25089e-08
2.12296e-08
1.77177e-08
1.24018e-08
1.59802e-08
1.33547e-09
8.20103e-09
6.97132e-09
6.31247e-09
5.733e-09
5.38087e-09
5.11206e-09
5.36879e-09
1.77847e-08
1.17906e-08
1.40314e-08
1.6162e-08
1.28852e-08
7.8189e-09
1.94215e-08
1.22066e-09
9.583e-09
7.72109e-09
6.69379e-09
5.8364e-09
5.29696e-09
4.87518e-09
4.53487e-09
1.09602e-08
1.15526e-08
1.13508e-08
1.35767e-08
8.33189e-09
5.57786e-09
1.23672e-08
1.14543e-09
1.18039e-08
8.91782e-09
7.39365e-09
6.18194e-09
5.38731e-09
4.80487e-09
4.13331e-09
7.82453e-09
1.08478e-08
1.02368e-08
1.19574e-08
5.58774e-09
4.49876e-09
7.16789e-09
1.09818e-09
1.551e-08
1.0776e-08
8.51013e-09
6.80444e-09
5.65719e-09
4.9396e-09
4.09533e-09
6.44363e-09
1.06339e-08
9.45852e-09
1.14268e-08
4.33681e-09
3.68473e-09
3.96629e-09
1.07224e-09
2.2216e-08
1.365e-08
1.01758e-08
7.69778e-09
6.08259e-09
5.20142e-09
4.42842e-09
6.74878e-09
1.08325e-08
8.21108e-09
1.07433e-08
3.60243e-09
3.13854e-09
2.46585e-09
1.06531e-09
3.59421e-08
1.79911e-08
1.2529e-08
8.95999e-09
6.96829e-09
5.69235e-09
5.30841e-09
8.25448e-09
8.84671e-09
6.01708e-09
7.54931e-09
3.24508e-09
2.88632e-09
2.39364e-09
1.07502e-09
4.81573e-08
2.36005e-08
1.55594e-08
1.06544e-08
8.28411e-09
6.35131e-09
7.12354e-09
1.07443e-08
7.90586e-09
6.06872e-09
4.24042e-09
4.10964e-09
2.70416e-09
2.63577e-09
1.09948e-09
3.3207e-08
2.74109e-08
1.86619e-08
1.25417e-08
9.82386e-09
7.48743e-09
1.03541e-08
1.39895e-08
7.78397e-09
7.75833e-09
3.94332e-09
5.53084e-09
3.01941e-09
3.02029e-09
1.14041e-09
2.23634e-08
2.44376e-08
1.96807e-08
1.4222e-08
1.12781e-08
9.36397e-09
1.70413e-08
1.6538e-08
7.78425e-09
1.01328e-08
4.10039e-09
3.3194e-09
3.70307e-09
4.17933e-09
1.19929e-09
1.67608e-08
1.90551e-08
1.79658e-08
1.49373e-08
1.20099e-08
1.18296e-08
3.74877e-08
1.49336e-08
7.66741e-09
1.45516e-08
3.42528e-09
2.46419e-09
3.8866e-09
9.39663e-09
1.27535e-09
1.37845e-08
1.53238e-08
1.54017e-08
1.41857e-08
1.18891e-08
1.46877e-08
4.06511e-08
1.19801e-08
7.61327e-09
2.13175e-08
2.81436e-09
2.68435e-09
3.59946e-09
1.84853e-08
1.37672e-09
1.18899e-08
1.30376e-08
1.31712e-08
1.27251e-08
1.14595e-08
1.73138e-08
2.49681e-08
1.01557e-08
7.95272e-09
2.1857e-08
2.40728e-09
3.62742e-09
2.89692e-09
6.43633e-09
1.1031e-08
1.57025e-09
1.15196e-08
1.15487e-08
1.1414e-08
1.0831e-08
1.63747e-08
2.02394e-08
9.10941e-09
8.50772e-09
2.02927e-08
2.47165e-09
5.16989e-09
2.50694e-09
5.00729e-09
1.07487e-08
9.85235e-09
2.11277e-09
1.04183e-08
1.0442e-08
1.00939e-08
1.34964e-08
1.76484e-08
8.72849e-09
9.43468e-09
1.74912e-08
2.90519e-09
1.44805e-08
2.26969e-09
4.28826e-09
9.78088e-09
9.67009e-09
1.026e-08
2.67189e-09
9.78294e-09
9.32143e-09
1.1167e-08
1.56e-08
9.49547e-09
1.08225e-08
1.2743e-08
3.12076e-09
1.79392e-08
2.23307e-09
3.67294e-09
9.47413e-09
8.80671e-09
1.00459e-08
1.12278e-08
4.14699e-09
8.67431e-09
9.77547e-09
1.42996e-08
1.12406e-08
1.3396e-08
9.68674e-09
3.3206e-09
7.37702e-09
2.33778e-09
3.77749e-09
8.25613e-09
8.77749e-09
8.85687e-09
1.05583e-08
1.74419e-08
3.79109e-09
8.88923e-09
1.34979e-08
1.43904e-08
1.65557e-08
8.80645e-09
3.4163e-09
5.53227e-09
2.63072e-09
4.46532e-09
8.41408e-09
7.5969e-09
8.72551e-09
8.94868e-09
1.33353e-08
1.42665e-08
2.87792e-09
1.31597e-08
1.92112e-08
2.0512e-08
8.37536e-09
3.44253e-09
5.0556e-09
2.7508e-09
5.38223e-09
1.30699e-08
7.4158e-09
7.35561e-09
8.5408e-09
9.283e-09
8.45023e-09
7.5769e-09
1.54949e-09
2.42999e-08
2.66342e-08
8.47342e-09
3.60731e-09
5.59914e-09
2.64974e-09
5.31419e-09
3.02983e-08
1.32932e-08
6.89846e-09
7.10481e-09
7.92506e-09
6.52235e-09
7.27194e-09
6.10903e-09
1.05164e-09
3.50287e-08
9.0522e-09
3.91374e-09
6.22113e-09
2.96667e-09
9.21279e-09
4.52025e-08
3.50403e-08
1.25599e-08
6.46968e-09
6.21314e-09
5.5821e-09
7.20167e-09
7.99235e-09
9.11482e-09
6.12941e-10
9.79592e-09
4.50883e-09
7.37629e-09
3.93538e-09
5.3667e-09
1.01702e-08
5.27782e-08
3.46983e-08
1.07239e-08
5.71034e-09
5.6353e-09
9.27431e-09
1.89282e-08
4.69697e-08
4.18323e-08
1.51024e-07
5.46542e-09
9.52233e-09
5.56239e-09
5.14204e-09
1.14198e-08
1.07001e-08
4.54743e-08
2.93676e-08
1.06349e-08
2.5245e-08
9.51292e-08
1.97662e-07
4.51476e-07
1.61544e-07
6.9292e-07
0.000193994
1.12412e-08
7.60023e-09
6.08632e-09
1.29803e-08
1.65138e-07
5.46312e-07
1.14364e-07
7.38641e-08
2.93238e-07
9.68697e-07
2.00126e-06
2.6854e-06
1.60803e-06
1.23368e-06
0.000199076
0.000592859
0.000114664
7.60625e-09
7.65361e-09
7.11755e-09
1.28617e-07
7.42061e-06
4.2153e-05
1.61032e-05
5.72837e-06
9.17041e-06
1.33694e-05
1.89254e-05
1.42898e-05
2.10384e-06
0.000265416
0.000643575
0.00082652
0.000729247
0.000128716
8.08958e-09
7.80531e-09
2.747e-08
4.65875e-06
0.000136017
0.000572445
0.000269848
0.000192248
0.000124541
0.000114508
7.32019e-05
1.15385e-05
0.000353696
0.000593488
0.000748115
0.000879394
0.000887852
0.000794662
0.000135847
8.38746e-09
1.31086e-06
8.42916e-05
0.000987615
0.00359533
0.00188707
0.00112947
0.000719227
0.000414504
9.79935e-05
0.000310803
0.000533296
0.000660556
0.000820854
0.000951148
0.000918248
0.000920699
0.000937292
0.000146428
2.70445e-07
3.04129e-05
0.000931333
0.00523536
0.00641796
0.00339261
0.00262054
0.00187496
0.00118046
0.000166278
0.000502098
0.000586917
0.000742098
0.000905662
0.0010067
0.000974993
0.000952756
0.000953469
0.000968547
0.000154649
1.01894e-05
0.000483797
0.00508302
0.00545524
0.00633305
0.00463587
0.0036907
0.00216226
0.000169869
0.00044131
0.000542919
0.000662261
0.000836392
0.000967279
0.000649299
0.00102025
0.00100798
0.000994038
0.000984013
0.00100667
0.000165657
0.000217672
0.00444232
0.00563227
0.00481879
0.00596569
0.00528507
0.00374836
0.00183981
0.000341386
0.000527802
0.000616774
0.000761387
0.000891972
0.000731335
0.0016417
0.000751578
0.00164223
0.00158109
0.00158142
0.00105192
0.0010516
0.00103185
0.001019
0.00105436
0.000179922
0.00367812
0.005318
0.00478683
0.00448414
0.00531686
0.00506416
0.00357129
0.00073874
0.000485526
0.000612084
0.000725408
0.000817892
0.000779899
0.00122718
0.00183087
0.00147256
0.00106533
0.00183144
0.00201961
0.00202062
0.00147251
0.00141129
0.00141123
0.00108756
0.00108838
0.0010665
0.0010612
0.00110917
0.000199556
0.00468063
0.00498549
0.0042123
0.00443194
0.00434329
0.00402196
0.00305597
0.000527027
0.000594163
0.000742111
0.000798427
0.000783085
0.000918374
0.00132225
0.00132204
0.00140412
0.0014043
0.00160336
0.00135823
0.00108317
0.000735923
0.0016033
0.0017504
0.00175085
0.00135788
0.00129087
0.0012906
0.0011116
0.00111829
0.00110174
0.00110887
0.00116619
0.000221496
0.00454146
0.00432998
0.00431972
0.00410735
0.00334909
0.00393303
0.00245033
0.00064401
0.000715787
0.000858705
0.00079727
0.000596067
0.00143015
0.00143037
0.00147122
0.00147169
0.00120161
0.00120214
0.00129622
0.0012963
0.00144133
0.00124409
0.00121451
0.001244
0.00123919
0.00108443
0.000790032
0.00173414
0.00173426
0.00167729
0.00167761
0.00144104
0.00155355
0.00155376
0.00124363
0.00121784
0.00124374
0.00123373
0.00119742
0.00116779
0.00119157
0.00120486
0.00119716
0.00117468
0.00119155
0.00120018
0.00113081
0.00114476
0.00113617
0.00115853
0.00122133
0.000252423
0.00371205
0.00389189
0.00399011
0.00352284
0.00315938
0.00420357
0.00246505
0.000846063
0.000840686
0.000872378
0.000455668
0.00153614
0.0015366
0.0015847
0.00158556
0.00130214
0.00130235
0.00132757
0.00132799
0.00111073
0.00109041
0.00111422
0.00112723
0.00113111
0.00108666
0.00109722
0.00111231
0.00111423
0.00112761
0.00113119
0.00108682
0.00118673
0.00119398
0.0011836
0.00119395
0.00118752
0.00119399
0.00118405
0.00119396
0.00131681
0.00126267
0.00130112
0.00130045
0.00112606
0.0011451
0.00112258
0.0011657
0.00108609
0.000841551
0.00169537
0.00169575
0.00173818
0.00173809
0.00156835
0.00156851
0.00150698
0.00150744
0.00131651
0.00126823
0.00130096
0.00129611
0.00138325
0.00131726
0.0013998
0.00134713
0.00138311
0.00132819
0.00139979
0.00134507
0.0011256
0.00114968
0.00112236
0.00116151
0.00109221
0.0011375
0.00109202
0.00113287
0.00114503
0.00116771
0.00117136
0.00120824
0.00127203
0.000286088
0.00287209
0.00324973
0.00343095
0.00302544
0.0032011
0.00422923
0.00254657
0.00125244
0.00092318
0.000427533
0.00168005
0.00168057
0.00173802
0.00173866
0.00139787
0.0013983
0.00144227
0.00144289
0.00118321
0.00119356
0.00118146
0.00119273
0.00118502
0.00119364
0.00118643
0.00119275
0.0012156
0.00122181
0.00119774
0.00120949
0.00122197
0.001222
0.00120401
0.0012097
0.00106305
0.00109825
0.00109088
0.00102227
0.00110435
0.00109313
0.00107058
0.00109964
0.00102242
0.0010908
0.00110467
0.00109309
0.00114293
0.00112772
0.00114272
0.00112945
0.00114416
0.00112767
0.0011433
0.00112946
0.00117982
0.00116773
0.00115939
0.00120152
0.00107215
0.00110945
0.00106783
0.00114209
0.00108722
0.000907491
0.00159161
0.0015924
0.001661
0.00166146
0.00152467
0.00152507
0.0015338
0.00153397
0.00138291
0.00141793
0.00138665
0.00142288
0.00138522
0.00141799
0.001388
0.00142291
0.00131295
0.00121508
0.00135421
0.00135563
0.00138778
0.00125636
0.00131483
0.00122548
0.00135394
0.00135647
0.0013878
0.00125637
0.0011795
0.00117205
0.00115933
0.00119723
0.00122589
0.00123918
0.0012257
0.00123736
0.00107191
0.00111283
0.00106774
0.00113675
0.00104191
0.00111555
0.0010418
0.0011118
0.00115916
0.00118943
0.00120686
0.00126131
0.00131524
0.000334346
0.00193177
0.00276522
0.00297909
0.00275052
0.00313421
0.00389103
0.00301085
0.00184078
0.000948737
0.00169519
0.0016957
0.00171493
0.00171571
0.00148702
0.00148715
0.00153509
0.0015353
0.00125651
0.00127151
0.0012614
0.00127627
0.00126237
0.00127181
0.0012658
0.00127631
0.00130959
0.00133101
0.00128888
0.00130672
0.00131447
0.00133125
0.00129268
0.0013069
0.00114034
0.00112363
0.00113107
0.00111595
0.00114285
0.0011236
0.00113605
0.00111595
0.00113682
0.00111484
0.00113536
0.00111411
0.00114299
0.00111486
0.00114091
0.00111431
0.00111934
0.00113499
0.00109686
0.00117162
0.00109615
0.000959184
0.00129579
0.0012964
0.00138775
0.00138825
0.00138045
0.00138066
0.00146822
0.00146854
0.00130933
0.00135891
0.00134078
0.00136845
0.00131553
0.00135892
0.00134895
0.00136863
0.00135677
0.00138478
0.00135314
0.00137812
0.00136031
0.00138494
0.00135986
0.00137811
0.00132133
0.00132421
0.00132145
0.00133385
0.0013239
0.0013241
0.00132257
0.00133376
0.00117708
0.00129019
0.00131511
0.00116472
0.00131511
0.00132374
0.00118577
0.00129228
0.00131481
0.00116476
0.00131602
0.00132363
0.00111913
0.00113876
0.00109687
0.00116717
0.00115291
0.00120128
0.00115278
0.00119989
0.00117617
0.0012181
0.00124461
0.00131756
0.00120906
0.000377973
0.00102375
0.00228887
0.00271816
0.00251499
0.00286572
0.00375843
0.00334493
0.00245254
0.000546242
0.00152383
0.00152403
0.00156035
0.00156092
0.00140048
0.00140072
0.00143446
0.0014346
0.00117039
0.00115081
0.00118339
0.00115699
0.00117621
0.00115102
0.00118769
0.00115702
0.00123696
0.0012325
0.00121003
0.00118269
0.00124246
0.00123262
0.00121457
0.00118279
0.00113177
0.00109587
0.00113738
0.00109583
0.001122
0.000992376
0.000939843
0.00094041
0.000995529
0.000996018
0.00105332
0.00105375
0.0011967
0.00119661
0.00119642
0.00123039
0.00119464
0.00123365
0.00120542
0.00123048
0.00120206
0.00123373
0.00124816
0.00130919
0.00124965
0.00130289
0.00125466
0.00130936
0.00125657
0.00130287
0.00122326
0.00121479
0.00124514
0.00124277
0.00123044
0.00121475
0.00125296
0.00124305
0.00129701
0.00129164
0.00126739
0.0012706
0.00130063
0.00129167
0.00127404
0.00127062
0.00121409
0.00124815
0.00128433
0.00137787
0.00109066
0.000441976
0.00073523
0.00208675
0.00255288
0.00219696
0.00282216
0.00365159
0.00353413
0.00273332
0.00157835
0.00157861
0.00171561
0.00171645
0.00140062
0.00140076
0.00142806
0.0014283
0.00130112
0.00129951
0.00129227
0.00131679
0.00130121
0.00130008
0.00129252
0.00131629
0.00131836
0.00131444
0.00131242
0.00132738
0.00131829
0.00131726
0.00131235
0.00132674
0.00115078
0.00110711
0.00115957
0.00110356
0.00115565
0.00110718
0.00116288
0.0011035
0.00119124
0.0011572
0.00117291
0.00111536
0.00119533
0.00115717
0.00117639
0.0011154
0.00119472
0.00104659
0.000779003
0.00068012
0.000679573
0.000765256
0.000765021
0.000920739
0.000921204
0.00103349
0.00103489
0.00107125
0.00108057
0.00110072
0.00109151
0.00107997
0.00108057
0.0011071
0.0010916
0.00117267
0.00116842
0.00115328
0.0011478
0.00118026
0.00116859
0.00115991
0.00114785
0.00119665
0.00117662
0.00120366
0.00117654
0.00125717
0.00127174
0.00133036
0.00144613
0.000955479
0.000456049
0.000471807
0.00201717
0.00222488
0.00194651
0.00271784
0.00354419
0.00358274
0.00104845
0.00145014
0.00145039
0.00155729
0.00155741
0.00129402
0.00128838
0.00130896
0.00131777
0.00129828
0.00128862
0.00130901
0.0013172
0.00136222
0.00136225
0.00121257
0.0012674
0.00122733
0.0012647
0.00121261
0.00126719
0.00122738
0.00126341
0.0012046
0.00124176
0.00119393
0.00126287
0.00120449
0.00124637
0.00119402
0.00126233
0.00120313
0.00115628
0.00120577
0.00115609
0.0012718
0.00118919
0.000991228
0.000504877
0.000501919
0.000454947
0.000453651
0.000606922
0.000606474
0.000726313
0.000727633
0.000878755
0.000843037
0.000841122
0.0009041
0.000878869
0.000840537
0.000840882
0.000900713
0.000953629
0.00100321
0.000965562
0.000980891
0.00095413
0.00100769
0.000966122
0.000982476
0.0010289
0.000986577
0.00105993
0.00101505
0.00103493
0.00098648
0.0010644
0.00101506
0.00113515
0.0011128
0.00110425
0.00107371
0.00114232
0.00111292
0.00110931
0.00107367
0.00128407
0.00129148
0.00139957
0.00123917
0.000586701
0.000342682
0.00141239
0.00195259
0.00177504
0.00255433
0.00381453
0.00171063
0.00160732
0.00160701
0.0016292
0.00162943
0.0012944
0.00130563
0.00132774
0.00134626
0.00129805
0.00130588
0.00133024
0.00134621
0.00145522
0.00145545
0.00122746
0.00118072
0.00122558
0.00125674
0.00123057
0.00118087
0.00122534
0.00125588
0.00126619
0.00125997
0.00126922
0.00125156
0.00126686
0.00125981
0.00126803
0.00125138
0.00117083
0.00121119
0.00114204
0.0012409
0.00117068
0.00121458
0.00114207
0.00124165
0.0013133
0.0013136
0.00123062
0.00105554
0.000858813
0.000855922
0.000655653
0.000652509
0.000656503
0.000657797
0.000750762
0.000733481
0.00068935
0.000695809
0.000752057
0.000733323
0.000689294
0.000701472
0.000831454
0.000845524
0.000782786
0.00089733
0.000831332
0.000843152
0.000782486
0.000895433
0.000889838
0.000979187
0.000921999
0.000947146
0.000890038
0.0009834
0.000922257
0.000948421
0.00101545
0.000961624
0.00102098
0.000961431
0.00129063
0.00132504
0.00149854
0.000624474
0.000232207
0.00111769
0.00188214
0.00140965
0.00246657
0.00257557
0.001676
0.00167614
0.00187032
0.0018707
0.00141864
0.00141877
0.00140009
0.00140018
0.00121403
0.00118715
0.00126039
0.00125956
0.00121748
0.00118739
0.00126268
0.00125957
0.0013134
0.00132468
0.00134374
0.00130627
0.00131344
0.00132593
0.00134367
0.00130664
0.00119383
0.00111969
0.00115151
0.00121518
0.00119468
0.00111974
0.00115132
0.00121292
0.00119953
0.00115522
0.00121407
0.00116772
0.00120181
0.00115508
0.00121437
0.00116758
0.00131658
0.00136805
0.00139342
0.00134451
0.0013518
0.00135057
0.00121506
0.00121328
0.0010403
0.00103814
0.000893425
0.000717329
0.000892759
0.000755122
0.000887707
0.000716273
0.000885986
0.000753424
0.00083405
0.000690567
0.000821881
0.000685977
0.000721382
0.000671869
0.000830666
0.000690124
0.000819876
0.000685785
0.000723963
0.00067192
0.000786299
0.00071513
0.00078685
0.000715064
0.000812023
0.00087275
0.000765107
0.000903557
0.000811769
0.000869422
0.000764616
0.000901319
0.00128568
0.0014329
0.000592531
0.000206043
0.000865066
0.00175902
0.00113469
0.00131429
0.00114461
0.00122399
0.00122416
0.00128838
0.0012885
0.00124933
0.0012577
0.00127496
0.00121801
0.00125296
0.00125586
0.00125886
0.00124954
0.00125574
0.00127488
0.00121863
0.00125281
0.00110049
0.00120415
0.0011353
0.0012118
0.00110146
0.00120392
0.00113708
0.00121187
0.00117847
0.00112954
0.00120801
0.00117876
0.00118054
0.00112962
0.00120912
0.00117873
0.00122253
0.00124446
0.0012225
0.0012452
0.00113416
0.0012019
0.00113402
0.00120031
0.00118085
0.00112549
0.00118301
0.00112533
0.00128515
0.001369
0.00145129
0.00150996
0.00158254
0.00158206
0.00152007
0.0015191
0.00148946
0.00148758
0.00138487
0.00138305
0.0010581
0.00128217
0.00110668
0.00125703
0.000869361
0.00106268
0.00105781
0.00127844
0.00110568
0.00125566
0.000869015
0.00106115
0.00100366
0.000812103
0.00100255
0.000811804
0.000955666
0.000778029
0.00093756
0.000828053
0.000765375
0.000696316
0.00095428
0.000777735
0.000936319
0.000826478
0.00076514
0.000695993
0.000857332
0.000724533
0.000854645
0.000724173
0.00135356
0.000580613
0.000159115
0.000958433
0.00138106
0.001105
0.0010138
0.00100231
0.00100228
0.000959682
0.000959741
0.000785454
0.000785899
0.000883855
0.000883782
0.00122252
0.00115877
0.00118798
0.00121543
0.00105822
0.00111023
0.00122327
0.00115934
0.00121521
0.00118783
0.00105969
0.00111015
0.000812435
0.000988312
0.000913269
0.00101658
0.000814358
0.000988162
0.00091508
0.00101663
0.00120256
0.00116572
0.00120342
0.00116562
0.00128919
0.0013186
0.00144756
0.00156063
0.00170758
0.00173547
0.00173463
0.00163741
0.00163621
0.00165602
0.00146433
0.00164136
0.00142963
0.00165165
0.00146286
0.00163797
0.00142878
0.0015675
0.00143191
0.00136765
0.00160015
0.00139754
0.00122299
0.00156443
0.00142924
0.00136713
0.00159632
0.00139668
0.00122258
0.00117958
0.00100864
0.00137551
0.00119014
0.00117935
0.00100825
0.00137378
0.00118885
0.00114084
0.000970202
0.00114045
0.000969867
0.00108961
0.000925871
0.000900562
0.000736651
0.00108931
0.000925524
0.000898207
0.000736158
0.000570989
0.00015995
0.00157268
0.00117907
0.00119362
0.00105586
0.000782027
0.000781966
0.000838115
0.000838058
0.000652655
0.000638979
0.000707424
0.000692161
0.000652806
0.000639761
0.000707522
0.000692718
0.000701615
0.000701562
0.000633877
0.000834091
0.000764711
0.000914663
0.000635796
0.000834092
0.000766531
0.000914738
0.000561894
0.00125754
0.00138402
0.00154147
0.00171799
0.00197107
0.00197065
0.00192413
0.00192295
0.00179186
0.00179082
0.00170371
0.00170315
0.00177161
0.00155681
0.00172759
0.00152758
0.00177254
0.00155632
0.00172953
0.00152741
0.00151977
0.00165759
0.00132378
0.0014684
0.00168387
0.00148894
0.00151721
0.00165575
0.00146809
0.00132335
0.00168371
0.00148868
0.00112765
0.00131084
0.00112736
0.00130948
0.000425561
0.00139425
0.00121382
0.00125193
0.00081339
0.000813043
0.0013251
0.00132484
0.000596655
0.000596309
0.000703157
0.000702949
0.000597648
0.000629252
0.000612668
0.000680157
0.000597514
0.000628053
0.000612588
0.000678964
0.000588895
0.000539531
0.000623066
0.000551268
0.000587171
0.000539164
0.000620955
0.00055109
0.000528307
0.000661328
0.000528363
0.000661567
0.000565681
0.00126622
0.00146569
0.00165988
0.00191724
0.00205732
0.00205651
0.00199212
0.00199062
0.00189663
0.00189447
0.00169334
0.00187925
0.00167783
0.00187888
0.00169311
0.00188034
0.00167746
0.00187913
0.0018623
0.00166909
0.00183895
0.00166629
0.00186567
0.00166873
0.00184474
0.0016664
0.00132666
0.00124198
0.00129165
0.00130492
0.000783273
0.000782772
0.00132776
0.00132736
0.000579963
0.000526191
0.000501196
0.000496004
0.000490669
0.000471618
0.000578649
0.000526022
0.00050114
0.000496216
0.000490648
0.000471651
0.000554213
0.000554041
0.000578161
0.000630376
0.000596804
0.000641874
0.000577948
0.000628096
0.000596581
0.000639486
0.000631845
0.000559916
0.000630151
0.000559725
0.000594533
0.00132183
0.00155222
0.00179403
0.00207104
0.00207098
0.00209908
0.00209865
0.00204869
0.00204831
0.0020118
0.00201083
0.00206554
0.0018509
0.00208745
0.00187635
0.00200183
0.00179733
0.00205831
0.00184917
0.00208223
0.00187553
0.002
0.00179684
0.00197398
0.0017878
0.00197542
0.00178734
0.00195328
0.00178451
0.00195804
0.00178431
0.00126447
0.00126779
0.00133581
0.00107436
0.00107427
0.000838187
0.00083899
0.000775568
0.000774745
0.00114939
0.00114886
0.00055118
0.00051604
0.000477581
0.000475041
0.000489602
0.000443193
0.000551164
0.000515962
0.000477686
0.000476519
0.000489714
0.000444474
0.000453135
0.000530394
0.000449136
0.000498723
0.000453934
0.000530178
0.000450616
0.000498857
0.000656915
0.00138442
0.0016386
0.00189894
0.00211518
0.00211431
0.00211838
0.00211755
0.00208626
0.00208561
0.00214023
0.00190756
0.00190494
0.0021534
0.00191513
0.00212458
0.00190498
0.00215642
0.00191494
0.00212823
0.00213724
0.00190696
0.00216516
0.00209664
0.00195787
0.0019079
0.00216043
0.00209291
0.00195744
0.00190717
0.00206317
0.0018915
0.00206255
0.00189102
0.00122772
0.00135517
0.00106189
0.000703775
0.000698594
0.000725364
0.000724732
0.000548252
0.000584226
0.00079761
0.000717465
0.0006943
0.000852712
0.000548957
0.000584134
0.000797106
0.000716074
0.000693836
0.000850418
0.000799724
0.000798271
0.00050553
0.000466154
0.000505721
0.000467779
0.000518251
0.000550922
0.000519365
0.000550952
0.000786406
0.00143566
0.00168912
0.00176043
0.00176015
0.00198227
0.00198107
0.00203433
0.00203239
0.00207633
0.00207489
0.00220411
0.00197196
0.00225588
0.00199789
0.00220957
0.00196268
0.00219747
0.00221077
0.00196229
0.00196986
0.00225171
0.00199698
0.00216455
0.0019336
0.00219903
0.00196646
0.00220515
0.0021657
0.00196647
0.00193339
0.00140616
0.00120862
0.000894511
0.000719038
0.000717141
0.000762
0.000761443
0.000630817
0.000622352
0.00075984
0.000763733
0.000700774
0.00072363
0.000629802
0.00062193
0.000756695
0.000757477
0.000699363
0.000712458
0.000603977
0.000672025
0.000521753
0.00062386
0.000610039
0.000671766
0.000531376
0.00062355
0.000579025
0.000581154
0.000579368
0.000581022
0.000957951
0.00145187
0.00155392
0.0016227
0.00162048
0.00181264
0.00180905
0.00188465
0.00187826
0.00222449
0.00198297
0.00185869
0.00213823
0.00190239
0.0020483
0.00222575
0.00198229
0.00185808
0.00213716
0.00190174
0.00204589
0.00226793
0.00226847
0.00202739
0.00201909
0.00226459
0.00201837
0.00226986
0.00202738
0.00159008
0.00138033
0.000796124
0.000790122
0.000789529
0.000795505
0.000853309
0.000853943
0.000745355
0.00058349
0.000661456
0.00074229
0.000586788
0.000661473
0.000691476
0.000629649
0.000614245
0.000493145
0.000633768
0.000468287
0.000687425
0.000628805
0.000612911
0.000492551
0.000631392
0.000476218
0.000519183
0.000610854
0.000525982
0.000611285
0.00123674
0.00135407
0.00114295
0.00117726
0.00117039
0.00134605
0.00133108
0.00158751
0.00172877
0.00186828
0.00169238
0.00201432
0.00179253
0.00155749
0.00200633
0.00179104
0.00171575
0.0018451
0.00168825
0.00217113
0.00195613
0.00203986
0.00183998
0.00217411
0.00195557
0.00203881
0.00183915
0.00221753
0.00200736
0.00222367
0.00200766
0.0017806
0.000960361
0.000809246
0.000826963
0.000806831
0.000825399
0.000874439
0.000873142
0.000765935
0.000680816
0.000704818
0.000613987
0.000671428
0.000770061
0.000759886
0.000771394
0.000679038
0.00076217
0.000704816
0.000611746
0.000671312
0.000770103
0.000750463
0.000770843
0.000586313
0.000489207
0.000586346
0.000497871
0.000542
0.00061342
0.00054256
0.000613482
0.00168051
0.00104601
0.000530579
0.000956679
0.000950755
0.000529857
0.000583193
0.00058103
0.00102147
0.00137216
0.00163242
0.00100819
0.00134811
0.00162343
0.00188404
0.00161049
0.00169589
0.00154575
0.00186884
0.0016944
0.00158749
0.00154451
0.00209209
0.00192915
0.00193359
0.00176708
0.00209583
0.00192899
0.00193184
0.00176644
0.00126035
0.000963401
0.000800008
0.000785029
0.00078121
0.000759515
0.000799416
0.000784621
0.000772604
0.000759544
0.000689726
0.00069025
0.000739455
0.000782925
0.00056335
0.00062943
0.000762758
0.000791445
0.00073894
0.000563471
0.000779745
0.000629447
0.000762898
0.000791527
0.000580079
0.000455175
0.000580268
0.000458353
0.00210648
0.000669951
0.000515248
0.000646184
0.000640485
0.000514273
0.000491014
0.000489303
0.000770005
0.00119628
0.00141359
0.00128703
0.00154388
0.00119038
0.000723823
0.00120969
0.000750509
0.00118165
0.00141147
0.00126324
0.00153834
0.00118223
0.000702773
0.00119142
0.00170627
0.00149322
0.00164854
0.00151803
0.00168394
0.00164846
0.00146407
0.00151759
0.00114961
0.000638011
0.000622995
0.000624045
0.000640345
0.000839392
0.000839997
0.000700657
0.000782365
0.000782708
0.000772074
0.000782775
0.000750883
0.000765522
0.00073469
0.00058667
0.000651335
0.000687035
0.00071083
0.000782102
0.000780722
0.000772006
0.000777464
0.000749977
0.000765056
0.000734855
0.000585081
0.000666045
0.000686317
0.000767311
0.000777407
0.000795927
0.000790482
0.000765087
0.000776063
0.000795923
0.000790426
0.00201646
0.000518665
0.000441644
0.000492663
0.000935648
0.000508989
0.000488166
0.00093596
0.00050778
0.000437225
0.000429848
0.000422528
0.000878426
0.00051666
0.00139931
0.00105354
0.0014796
0.000773228
0.000871423
0.00051134
0.00137779
0.0014793
0.0010515
0.000772174
0.00159934
0.00165882
0.00156768
0.00166061
0.00038404
0.000616295
0.000663139
0.000617777
0.000665851
0.000836335
0.000837167
0.000778341
0.000783276
0.000754135
0.000783894
0.00071455
0.000676339
0.00048719
0.00046064
0.000504919
0.000539323
0.000614221
0.000558606
0.000572682
0.000668156
0.000778135
0.000782142
0.000783703
0.000754127
0.000719923
0.00067724
0.000462584
0.000483382
0.000503177
0.00054683
0.000612519
0.000554063
0.000569873
0.000665021
0.00170174
0.000329212
0.0004142
0.000410457
0.000318506
0.000315145
0.000314171
0.000440199
0.000797591
0.000410256
0.000747136
0.000430026
0.000818502
0.00039263
0.000658316
0.000425823
0.000798687
0.000407462
0.000743406
0.000429604
0.000801367
0.000385471
0.000659762
0.000419319
0.000412
0.000791845
0.000411962
0.000402274
0.000768498
0.000667743
0.000428956
0.000944246
0.000690562
0.000662808
0.0004305
0.000942465
0.000690548
0.000279893
0.000563912
0.000635218
0.000512443
0.000476863
0.000566014
0.000638722
0.000516512
0.000477882
0.000616786
0.000616565
0.000747671
0.000718256
0.000569751
0.000572152
0.000414052
0.000452912
0.000450224