/*--------------------------------*- C++ -*----------------------------------*\
| =========                 |                                                 |
| \\      /  F ield         | OpenFOAM: The Open Source CFD Toolbox           |
|  \\    /   O peration     | Version:  5.x                                   |
|   \\  /    A nd           | Web:      www.OpenFOAM.org                      |
|    \\/     M anipulation  |                                                 |
\*---------------------------------------------------------------------------*/
FoamFile
{
    version     2.0;
    format      ascii;
    class       volScalarField;
    location    "2.3";
    object      omega;
}
// * * * * * * * * * * * * * * * * * * * * * * * * * * * * * * * * * * * * * //

dimensions      [0 0 -1 0 0 0 0];

internalField   nonuniform List<scalar> 
12160
(
0.0719999
0.0719999
0.00178506
0.0719999
0.00365317
0.00115045
0.0719999
0.00656932
0.00143117
0.00111398
0.0719999
0.010341
0.00190859
0.00129597
0.00110809
0.0719999
0.0127394
0.0026307
0.00147542
0.0013139
0.00122132
0.0719999
0.0134661
0.00317073
0.00170423
0.00145903
0.00154257
0.00126424
0.0719999
0.0132516
0.003335
0.00185673
0.00159634
0.00164367
0.00198845
0.00277323
0.0719999
0.013111
0.00326387
0.0019012
0.00167919
0.00169039
0.00217726
0.00483299
0.0135002
0.0719999
0.0131916
0.00322162
0.00189276
0.00170672
0.00171406
0.0021794
0.00467333
0.0135378
0.0130711
0.0719999
0.0134944
0.00325574
0.00189744
0.00172759
0.00173735
0.00207034
0.00363104
0.0133067
0.0128839
0.0229109
0.0719999
0.0138783
0.0033546
0.00192904
0.00175569
0.001781
0.00198563
0.00299802
0.0119336
0.0134861
0.026341
0.0267138
0.0719999
0.0142221
0.00347522
0.00197393
0.00179147
0.00183282
0.00198551
0.00282661
0.0105255
0.0142999
0.0342883
0.0276633
0.0184585
0.0719999
0.0144753
0.00358045
0.00201906
0.00182738
0.0018853
0.00206015
0.00318434
0.00905924
0.0145811
0.0288446
0.0220428
0.0100002
0.0155464
0.0719999
0.0146945
0.00365082
0.00205248
0.00185746
0.00192967
0.00214792
0.00371254
0.0079137
0.0137979
0.0251974
0.0115764
0.0137503
0.0092355
0.0115843
0.0719999
0.014963
0.00370574
0.00206833
0.00187332
0.00195932
0.00222117
0.00416565
0.00710464
0.0130369
0.022429
0.0151527
0.00574473
0.00636845
0.0023057
0.0719999
0.0153073
0.00378108
0.00207781
0.00186977
0.00196912
0.00226909
0.00446104
0.00677034
0.0120168
0.0208632
0.0166889
0.00409688
0.00412734
0.00466154
0.0719999
0.0155582
0.0038824
0.00209728
0.00185427
0.00195607
0.00227662
0.00457799
0.00682456
0.0106658
0.0198945
0.018288
0.004155
0.00276085
0.0025971
0.0719999
0.0157389
0.00396356
0.00212461
0.00184687
0.00193125
0.00223024
0.00454703
0.00708928
0.00961454
0.0190818
0.0190334
0.0049048
0.00237019
0.0017523
0.0719999
0.0161042
0.00403015
0.0021519
0.00185122
0.00191954
0.00213909
0.00440305
0.00719489
0.00888862
0.0174682
0.0202923
0.00562838
0.00240252
0.00155945
0.0719999
0.0168826
0.00415716
0.00218577
0.00186415
0.00192505
0.00205032
0.00417996
0.00715681
0.00848784
0.0151009
0.0210566
0.00639298
0.00251021
0.0016001
0.0719999
0.0177745
0.00442139
0.00224341
0.0018869
0.00193784
0.00201196
0.00391799
0.00706134
0.0083378
0.0136063
0.0230963
0.00871489
0.00270109
0.00165785
0.0719999
0.0185482
0.00471757
0.00234642
0.00193063
0.00195983
0.00200248
0.00371362
0.00695821
0.00817864
0.0125298
0.0218886
0.011827
0.00287225
0.00180433
0.0719999
0.0190835
0.00497291
0.00246561
0.00199927
0.00199566
0.00202609
0.00356287
0.00679755
0.00796445
0.0117283
0.0200964
0.0156393
0.00418475
0.00200901
0.0719999
0.0192917
0.0051493
0.00257253
0.00207476
0.00205163
0.00208984
0.00344045
0.00656509
0.00773157
0.010817
0.0186721
0.0177893
0.00644083
0.00214124
0.0719999
0.0191788
0.00521341
0.00265025
0.0021438
0.00212235
0.00221402
0.00333261
0.00626134
0.00748748
0.00966969
0.0183734
0.0185891
0.00825116
0.00272548
0.0719999
0.0187705
0.00516696
0.00268526
0.00219784
0.00218888
0.00231723
0.00331121
0.00585492
0.00721703
0.00870745
0.0188756
0.0190326
0.0100468
0.00353098
0.0719999
0.0180981
0.00501813
0.00267892
0.00223132
0.00223887
0.00237333
0.00325172
0.00535329
0.00688095
0.00802901
0.0193609
0.0194437
0.0112716
0.00431268
0.0719999
0.0172153
0.00478453
0.00263427
0.00224357
0.00226721
0.00237587
0.00310547
0.00487254
0.00646405
0.00770002
0.0180204
0.0194752
0.0117942
0.00477626
0.0719999
0.0161867
0.00448947
0.00255823
0.00223384
0.00228129
0.00234606
0.00288432
0.0043402
0.00594876
0.00765402
0.0147186
0.0185911
0.0123072
0.00488144
0.0719999
0.015086
0.00416037
0.00245914
0.00220463
0.00228663
0.00236499
0.00267476
0.0038131
0.00536095
0.00706152
0.0114304
0.0174062
0.0130482
0.00508893
0.0719999
0.0139938
0.00382442
0.00234737
0.00216068
0.00228058
0.00244374
0.00274946
0.00345553
0.00479457
0.00627438
0.00940558
0.0157962
0.0128292
0.00575465
0.0719999
0.013004
0.00350793
0.00223436
0.00210936
0.00226325
0.00252449
0.0030853
0.00365577
0.00438472
0.00545952
0.00764846
0.0135399
0.0115399
0.00595953
0.0719999
0.0121949
0.00323618
0.00213108
0.0020564
0.0022309
0.00258355
0.00343722
0.00423423
0.00453554
0.0048324
0.00588213
0.0105407
0.00955398
0.00528298
0.0719999
0.0116256
0.00302758
0.00204669
0.00200744
0.00219167
0.00262186
0.0037489
0.00486717
0.00514397
0.00502839
0.00465976
0.00669716
0.00697217
0.00432733
0.0719999
0.0114201
0.00288967
0.00198783
0.00196946
0.00215516
0.00263403
0.00400696
0.00546078
0.00586196
0.00584117
0.005196
0.00413771
0.0045093
0.00331964
0.0719999
0.0115271
0.00284918
0.00195856
0.0019485
0.00212973
0.00262545
0.00421743
0.00599579
0.00659817
0.00681259
0.00693064
0.00511342
0.00299485
0.00233847
0.0719999
0.0118471
0.00288995
0.00196371
0.00194778
0.00212381
0.00262223
0.00440501
0.00650128
0.00736703
0.00790039
0.00886753
0.00829185
0.0031993
0.00167911
0.0719999
0.0122866
0.00298958
0.00199813
0.00197104
0.00214351
0.00264377
0.00465726
0.00699634
0.00819924
0.00928958
0.0110242
0.0107536
0.00447803
0.00165743
0.0719999
0.0127782
0.00312842
0.00205562
0.00201635
0.00218835
0.00268755
0.00497463
0.00747421
0.00895567
0.0110881
0.014067
0.0121899
0.00590262
0.0021227
0.013228
0.0719999
0.00329138
0.00213183
0.00207912
0.00225432
0.00279115
0.00528416
0.00792146
0.00954714
0.0126927
0.0185258
0.0131823
0.00719074
0.00247279
0.00345608
0.0140097
0.0719999
0.00222232
0.00215634
0.00233931
0.00295002
0.0055587
0.00833419
0.0100273
0.0136532
0.0230249
0.0133528
0.00806628
0.00269228
0.00232312
0.00372886
0.0149587
0.0719999
0.00224521
0.00244373
0.00314756
0.00577363
0.00865585
0.0103992
0.0142708
0.0249957
0.0136914
0.00805795
0.00291959
0.00234398
0.0024706
0.00411474
0.0162901
0.0719999
0.00256644
0.00336255
0.00593211
0.00890729
0.010724
0.0151618
0.0254087
0.0147085
0.00723434
0.0031048
0.00270038
0.00246362
0.00270793
0.00472461
0.0192585
0.0719999
0.0035818
0.00605278
0.00909649
0.0110508
0.0166453
0.024925
0.0154511
0.00622766
0.00299717
0.00378795
0.00284714
0.00265416
0.00305809
0.0059581
0.0303267
0.0719999
0.00614135
0.00921414
0.0113565
0.0183959
0.0235293
0.0161722
0.00553827
0.00268443
0.00621236
0.00399325
0.00305633
0.00285472
0.0038355
0.0111529
0.0556529
0.0719999
0.00927637
0.0116401
0.0199641
0.0223496
0.0164647
0.00527298
0.00247666
0.00929298
0.00611047
0.00420364
0.00320165
0.0032478
0.00710887
0.0194121
0.0702722
0.0719999
0.0118732
0.020948
0.0215586
0.0163127
0.00547397
0.00234195
0.012075
0.00933664
0.00597142
0.00430904
0.00349784
0.00500366
0.0116614
0.0282179
0.0732641
0.0719999
0.0215539
0.0209066
0.0155983
0.00569168
0.00244191
0.0218533
0.0124468
0.00926077
0.00581195
0.00440383
0.0048576
0.0102943
0.021552
0.0405576
0.0821578
0.320607
0.0202283
0.0143932
0.00568147
0.00252402
0.0192083
0.0218755
0.0124524
0.00899696
0.00577533
0.00569134
0.0142919
0.033174
0.0610125
0.0653328
0.927318
12.6557
0.013176
0.00547607
0.00252013
0.0119055
0.0184925
0.0273845
0.023448
0.0137631
0.00924394
0.0262284
0.0899839
0.155668
0.147091
0.720636
11.9567
12.4251
12.058
0.00535862
0.00246799
0.00513855
0.0109811
0.0367004
0.255944
0.380061
0.160589
0.0887025
0.252041
0.490469
0.415832
0.477793
11.0287
11.3854
12.6638
13.6141
13.0369
0.00248383
0.00249588
0.00510482
0.0256637
0.405941
2.6716
2.45518
1.00302
0.813979
1.38254
1.26084
0.400376
8.78091
10.6392
11.1831
13.8606
14.4428
15.1088
13.89
0.00257437
0.012387
0.301138
3.09927
9.06901
6.96415
3.15094
3.7274
3.01237
1.64583
6.3186
9.76436
10.0674
12.0167
15.9214
15.794
16.1829
16.5216
14.6364
0.00472396
0.167224
2.34212
9.41283
14.5858
11.0512
8.15244
7.28247
3.34204
3.69559
8.78044
9.19758
10.4154
13.7213
18.3508
18.0273
17.9101
18.0769
18.0387
15.3172
0.0588648
1.53054
8.10348
13.7759
17.3052
13.5679
14.104
8.70319
2.81641
7.06359
8.42254
9.17179
11.5702
15.7061
43.8579
20.5727
20.5023
20.3672
20.0404
19.658
15.9491
0.732243
5.80497
13.3344
15.0523
18.134
16.6195
15.1923
8.0868
4.75437
7.54197
8.31065
9.78532
12.7698
28.3789
325.512
41.4828
325.676
309.239
309.346
23.3676
23.4849
22.9889
22.1325
21.4319
16.5408
3.52454
11.1265
14.1189
15.3172
17.8036
17.7999
15.2069
5.87777
6.16753
7.54986
8.60864
10.3579
18.5267
107.718
335.687
439.444
26.3034
335.836
286.28
286.451
439.632
418.631
418.795
26.841
26.7306
25.7599
24.3963
23.3023
17.0628
7.90749
13.1598
13.4013
15.1057
16.3294
16.2266
14.0861
5.39427
6.37197
7.73711
8.8567
12.4471
52.2538
321.61
321.553
310.081
310.109
449.814
480.79
29.7843
62.901
450.022
387.715
388.016
480.739
456.637
456.574
30.6858
30.2533
28.706
26.7838
25.1349
17.4739
10.3011
12.4939
12.6859
13.3011
13.398
16.0296
12.44
5.63098
6.32677
7.9394
9.44617
39.9972
284.162
284.176
285.384
285.48
408.638
408.838
404.173
404.148
492.273
462.436
742.168
459.528
751.139
34.0587
49.8775
339.306
339.304
341.617
341.713
492.228
469.125
469.099
461.7
743.942
459.98
749.228
445.861
696.199
434.825
726.187
445.086
699.027
435.515
724.208
35.1409
34.0534
31.7376
29.1942
26.7351
17.7162
9.91427
9.90258
9.84347
10.4817
12.0763
16.9034
11.4169
6.04629
6.32933
8.04359
39.3171
288.215
288.291
293.211
293.401
394.627
394.542
399.423
399.292
653.286
760.553
402.886
647.278
401.676
441.337
763.665
654.589
403.332
647.691
401.837
442.643
667.005
408.399
661.557
406.578
667.352
408.513
661.778
406.633
477.898
763.287
471.94
778.561
474.429
816.899
469.271
827.354
39.4905
50.4995
325.14
325.192
331.764
331.653
465.34
465.252
465.062
465.13
477.232
765.607
472.499
776.892
470.841
739.052
460.517
771.499
470.587
743.173
461.675
770.788
473.582
819.879
470.415
825.985
459.556
801.523
458.456
799.238
40.0783
38.0419
34.8883
31.313
27.9358
17.7576
5.62951
6.01115
7.19871
8.45785
11.9516
17.2314
11.6945
7.28271
6.17275
36.7794
308.968
309.085
317.97
318.113
413.216
413.082
424.105
424.004
665.692
405.585
668.191
406.681
666.452
405.845
670.581
407.404
682.822
414.864
678.319
412.073
685.597
415.77
680.858
412.925
785.898
690.839
407.358
446.861
704.051
410.634
790.052
692.013
448.712
407.811
704.403
410.799
735.228
423.533
728.492
420.463
736.03
423.831
728.776
420.585
488.494
831.225
478.722
850.496
479.932
828.555
472.222
847.571
46.1222
50.5282
305.346
305.498
322.22
322.266
455.529
455.358
456.03
455.863
766.38
470.008
761.794
468.557
767.316
470.284
762.448
468.721
754.572
824.027
464.414
750.848
464.176
477.401
756.436
828.819
465.022
751.483
464.38
479.418
487.593
833.711
479.738
848.749
490.754
856.029
490.499
855.419
478.607
830.702
473.281
844.418
466.735
824.73
465.635
822.485
45.5504
42.2589
37.679
33.0044
28.6361
17.5836
2.61154
4.02511
5.6269
7.61842
12.1625
17.1232
13.4762
8.91882
8.3969
304.842
304.955
287.489
287.634
428.853
428.782
440.088
440.168
699.468
425.944
702.592
427.89
701.534
426.657
704.852
428.586
706.015
438.566
717.161
436.826
708.162
439.196
718.836
437.385
739.239
424.642
744.87
427.597
740.705
425.251
747.537
428.756
773.859
442.658
762.677
436.249
777.375
444.231
765.215
437.522
493.812
846.26
481.8
869.976
54.2656
54.2807
255.192
255.316
276.276
276.367
408.229
408.08
438.063
437.914
736.807
453.289
755.141
460.636
739.594
454.109
758.392
461.695
759.405
463.741
759.129
462.866
760.596
464.135
762.246
463.827
845.424
487.318
835.707
483.542
847.062
487.908
836.437
483.838
855.672
796.603
469.919
487.164
818.644
475.812
860.621
798.406
470.609
489.485
819.376
476.121
492.704
848.541
482.877
867.457
499.893
880.549
499.594
880.039
51.5671
46.0589
39.8521
34.0963
28.7773
17.1408
1.60547
2.94712
4.96432
7.3924
12.2672
16.9906
15.1024
10.8629
53.0611
431.087
431.182
409.092
409.322
492.118
492.084
496.759
496.75
792.339
453.268
803.958
459.199
795.163
454.579
806.393
460.331
801.169
466.921
819.497
467.823
803.868
468.027
821.879
468.931
796.428
452.169
800.166
453.828
64.288
64.9412
169.568
169.729
207.607
207.757
307.61
307.731
354.934
354.843
657.224
405.696
669.327
410.209
660.566
406.715
672.06
411.073
703.62
434.463
702.324
432.932
705.814
435.16
705.364
433.829
829.713
474.981
833.845
478.948
833.704
476.697
837.344
480.621
839.297
482.786
831.809
478.931
841.232
483.567
835.226
480.424
56.9732
48.8276
41.1046
34.397
28.1935
16.6009
1.13112
2.57345
4.83242
7.26299
12.53
16.6987
16.1525
13.6166
307.435
307.549
281.58
281.686
480.257
480.037
451.925
452.121
479.853
773.945
477.07
780.932
479.717
773.662
477.026
780.647
482.383
774.861
477.987
784.774
482.356
776.895
478.558
784.692
821.164
465.047
839.441
474.855
824.006
466.484
841.598
476.023
845.489
482.795
854.349
483.321
848.086
483.967
856.368
484.448
72.8459
85.583
77.1789
173.625
173.809
226.765
226.9
323.675
323.764
388.912
388.973
718.636
416.873
749.463
429.202
722.913
418.717
752.612
430.702
796.717
456.092
786.273
450.148
800.235
457.692
789.708
451.718
838.991
477.493
843.467
479.411
60.5419
49.901
41.3344
33.671
26.978
17.2096
0.990182
2.53113
4.66729
7.21865
12.3193
16.7744
17.5394
54.0726
425.315
425.147
380.046
379.924
759.709
467.094
464.917
740.52
761.413
467.556
464.637
740.085
487.984
487.904
497.316
847.05
489.205
867.377
497.014
847.06
489.171
866.469
501.441
862.534
493.664
878.291
501.456
865.064
494.726
878.162
858.449
488.077
860.92
489.059
76.9293
101.302
128.924
187.763
187.568
154.064
154.482
201.938
202.159
255.469
255.525
331.861
510.332
312.879
547.343
331.637
510.164
312.687
546.336
369.899
635.944
385.365
603.001
370.147
637.429
386.131
603.463
752.625
426.998
775.402
439.156
756.436
428.945
777.904
440.653
812.589
461.688
802.774
456.003
816.505
463.594
805.857
457.661
61.25
49.5882
40.1958
31.6669
23.2835
0.961048
2.46726
4.54732
8.00137
13.1539
19.2158
38.5007
319.658
319.578
311.889
311.943
716.601
436.016
689.42
431.505
717.91
436.476
691.255
431.933
452.785
452.732
847.458
484.987
478.308
815.327
849.028
485.672
478.221
815.577
749.26
461.646
763.218
468.596
750.53
461.952
763.057
468.494
504.631
882.72
500.268
890.195
504.979
885.056
501.295
891.318
76.232
103.772
157.899
247.102
357.801
357.27
284.865
283.996
295.012
295.025
461.974
276.52
258.248
423.887
461.818
276.26
258.124
424.451
355.613
593.212
335.532
627.707
355.378
592.492
335.097
627.099
377.27
679.317
389.484
660.188
377.652
681.473
390.535
660.66
753.916
426.937
758.147
428.948
60.0007
47.4576
36.6866
27.922
0.931019
2.48679
5.02431
11.8268
18.1253
22.3487
301.123
301.135
300.924
301.003
432.553
432.402
410.625
410.445
811.389
463.342
772.64
454.037
812.847
464.063
773.923
454.559
451.504
698.597
439.538
739.287
451.609
700.114
439.821
739.565
875.475
495.466
489.543
860.244
875.849
495.776
489.122
859.267
830.782
475.361
832.684
478.557
832.541
476.076
832.994
478.696
73.0423
98.1316
151.543
279.567
594.788
594.701
563.992
563.583
543.098
542.359
637.04
352.765
645.433
369.094
634.261
351.005
642.432
366.75
583.121
330.386
580.659
328.673
506.419
290.36
581.996
329.608
579.989
328.199
506.776
290.315
554.347
311.779
554.207
311.521
360.889
630.707
350.451
645.926
360.573
629.85
349.854
645.286
56.3284
42.483
31.6292
1.00843
2.65435
7.92913
24.7642
34.3701
116.913
351.359
351.227
357.051
357.083
689.173
766.331
426.559
681.328
420.091
451.798
767.31
689.574
452.139
426.65
682.329
420.293
616.012
388.985
640.84
397.767
617.254
389.177
641.54
397.953
841.459
476.36
825.952
471.316
842.556
476.998
826.693
471.714
466.63
812.587
466.843
812.984
490.211
864.337
489.904
863.688
845.659
479.598
847.573
480.374
67.2773
90.3223
133.19
239.476
653.838
653.943
644.448
644.351
737.044
736.444
732.564
732.053
535.082
959.797
551.563
952.991
443.014
787.354
534.711
959.732
550.818
952.577
442.449
786.687
750.771
416.406
750.302
415.962
711.315
394.42
691.815
603.078
382.742
334.41
711.044
394.086
691.337
602.7
382.338
333.958
622.356
343.496
621.395
342.855
49.1089
34.4703
1.08425
3.59807
17.5102
55.8208
81.3365
359.491
359.5
330.284
330.389
296.619
296.441
324.644
324.623
781.432
724.608
426.047
451.474
707.521
414.188
782.534
725.223
451.832
426.258
708.414
414.501
573.036
354.091
644.25
382.149
574.407
354.531
645.077
382.502
836.446
475.187
837.124
475.55
56.9759
80.8996
115.271
191.772
430.004
753.582
753.573
752.987
752.528
1243
716.362
1242.73
704.224
1243.93
716.164
1242.6
703.981
1177.23
1075.45
664.334
1206.95
683.736
607.019
1176.35
1074.43
663.743
1206.99
683.335
606.332
580.423
509.159
1037.47
908.603
579.949
508.928
1036.55
908.306
864.92
484.208
865.358
484.31
821.059
459.294
662.703
365.653
821.981
459.509
661.903
365
36.7443
1.18658
7.66911
41.7236
103.433
207.878
340.864
340.766
335.09
335.075
295.671
510.865
298.856
523.498
295.76
511.177
299.1
523.695
353.791
353.703
513.072
321.462
588.351
358.531
514.457
321.967
589.31
358.937
38.6162
66.683
98.8692
152.828
293.739
824.451
824.666
842.287
842.258
844.362
844.453
902.203
902.14
1333.53
756.337
1305.18
734.488
1335.83
757.406
1307.04
735.448
1136.37
1225.82
636.666
687.97
1256.64
705.405
1135.78
1225.2
687.678
636.117
1257.04
705.64
551.17
985.704
550.899
985.311
2.30422
20.6271
84.4783
179.101
334.094
334.052
495.975
496.026
296.16
295.966
301.856
301.871
281.752
483.649
273.776
505.997
281.538
483.47
273.745
505.579
444.349
255.725
461.405
259.115
444.299
255.362
460.236
258.47
431.388
267.246
432.086
267.575
40.232
78.9833
123.065
210.537
484.669
898.926
898.924
935.32
934.824
993.212
992.562
808.306
1407.69
798.309
1401.43
808.479
1408.99
799.179
1402.01
1381.03
777.734
1330.22
750.39
1384.74
779.448
1333.86
752.158
6.80971
50.0916
136.048
287.713
344.282
344.189
513.617
513.6
431.019
244.261
227.561
385.262
223.933
380.271
430.522
243.892
227.474
385.491
223.969
380.36
275.508
275.532
260.17
456.062
258.742
465.668
259.54
455.074
258.296
464.35
450.618
251.94
449.88
251.491
41.7236
94.3859
155.892
304.958
868.036
868.264
918.868
918.968
959.974
960.403
1057.94
1057.63
1528.38
879.925
1534.91
870.466
1471.16
836.237
1528.79
878.898
1533.5
869.482
1470.64
836.098
1442.42
813.544
1444.48
814.471
1386.18
783.881
1390.28
785.551
20.7598
93.0653
173.812
412.49
412.478
310.361
310.458
386.345
386.328
478.993
478.956
404.821
230.342
212.574
359.71
213.248
355.606
405.095
230.351
212.839
360.49
213.558
356.31
378.239
233.761
363.447
218.799
379.429
234.094
364.265
219.159
43.2742
112.455
202.559
472.99
926.985
926.93
995.738
995.291
1094.47
1094.31
1584.21
899.635
919.235
1617.97
917.897
1594.51
920.46
1620.6
919.285
1597.61
1583.85
899.271
1553.45
1486.71
878.221
840.526
1551.28
1486.47
877.19
840.157
1433.8
813.532
1435.02
813.832
51.8615
124.952
120.289
291.215
290.022
250.296
250.173
434.285
260.181
368.364
544.245
317.582
634.076
434.939
260.438
367.687
544.213
317.487
633.336
397.499
396.988
213.741
351.419
214.059
352.154
395.253
236.291
395.99
236.597
44.9186
134.03
268.811
737.068
737.274
867.399
867.429
958.829
958.716
1090.22
1089.86
1623.58
936.396
1663.9
942.425
1645.77
934.131
1625.7
1647.66
935.012
936.242
1663.74
942.097
1604.76
904.354
1629.59
917.611
1633.81
1606.75
919.719
905.068
73.4323
80.4273
162.613
317.733
317.418
293.98
294.095
469.919
274.963
336.746
551.333
315.808
554.753
470.29
275.048
334.567
550.551
315.365
550.467
438.817
279.577
427.264
265.089
440.505
279.994
432.078
266.469
414.806
244.789
415.367
244.997
46.4335
158.172
336.97
706.76
706.591
848.167
847.279
1004.16
1002.11
1619.35
920.458
877.864
1572.82
893.246
1503.48
1622.84
921.773
877.292
1573.15
893.923
1501.91
1612.91
1650.76
907.543
928.467
1650.51
928.03
1614.37
908.37
61.6115
117.264
353.059
354.696
354.513
353.008
353.544
353.536
386.632
454.694
285.312
385.546
454.872
285.387
481.164
273.892
260.282
416.262
266.933
411.67
481.567
273.938
261.041
418.194
266.786
415.814
441.22
271.698
444.61
272.96
47.3571
172.208
247.966
546.099
545.367
703.571
699.157
1145.59
743.033
1347.81
783.971
1477.15
846.285
1128.59
1472.98
844.53
732.313
1336.78
778.027
1561.66
880.941
1499.24
846.31
1566.07
882.834
1501.17
847.337
1518.42
861.088
1522.45
862.709
95.8284
165.566
401.504
367.936
400.98
367.969
356.006
355.522
613.422
544.49
319.321
508.963
305.419
357.344
622.713
368.378
543.597
610.913
318.75
507.622
304.796
356.033
617.649
365.894
263.756
425.688
265.345
430.626
460.939
275.382
461.139
275.596
45.9853
140.328
230.855
454.934
453.696
231.004
269.373
269.328
565.75
1013.58
661.235
562.669
1000.73
653.314
1397.41
1198.74
789.191
692.633
1392.21
786.82
1186.72
687.61
1463.56
833.917
1405.32
792.9
1468
835.876
1407.46
793.947
87.2249
103.94
421.608
376.131
639.629
332.662
421.626
374.073
634.572
333.624
273.228
273.4
565.857
622.164
454.117
270.077
330.687
362.449
565.421
454.184
620.079
270.07
330.318
361.434
261.43
409.048
262.188
410.931
40.8685
123.04
227.2
343.225
341.469
227.241
232.501
232.433
593.217
859.338
546.823
947.902
610.829
447.484
575.215
477.613
584.433
853.971
543.922
935.07
603.985
444.677
567.77
471.651
1264.13
1110.74
722.714
646.115
1253.88
719.537
1096.08
641.305
26.4078
174.141
200.189
199.988
173.918
139.622
139.454
592.56
374.938
634.085
371.857
638.281
380.886
622.902
372.862
250.552
529.753
334.401
597.859
373.821
633.008
371.325
635.453
381.431
622.153
371.545
250.554
536.89
335.123
570.021
619.271
336.554
361.428
568.824
618.845
335.966
361.172
35.4553
110.431
207.152
272.792
339.563
425.124
272.392
339.532
425.216
206.164
237.509
234.416
652.29
408.634
1020.42
397.593
596.012
281.029
653.086
406.549
1012.39
593.549
396.83
280.11
1183.91
690.488
1171.17
687.98
16.1875
209.702
171.689
209.49
171.465
127.91
127.775
621.545
623.46
364.13
362.194
572.95
339.558
375.054
345.793
234.55
410.66
280.738
249.853
349.018
250.039
621.829
622.281
362.293
362.579
574.806
339.255
347.742
373.438
233.874
416.015
280.513
248.171
349.142
249.292
29.8101
96.5046
201.442
200.482
97.8389
135.548
137.109
361.789
284.457
335.14
260.034
362.621
298.861
329.365
256.765
354.829
284.823
334.365
259.102
363.099
293.85
326.516
256.721
242.218
325.274
266.531
239.974
320.238
260.564
523.4
347.201
335.374
244.066
523.401
347.836
334.662
243.986
12.4671
185.694
226.54
315.194
130.545
185.589
228.343
317.222
130.199
99.6537
99.4704
581.171
340.455
464.703
285.496
346.155
343.662
377.898
240.181
218.55
219.339
582.018
340.204
466.766
285.61
345.601
380.682
345.513
240.515
217.3
220.359
25.1224
108.212
183.22
181.598
108.761
120.828
121.73
335.925
304.302
232.937
214.364
281.586
203.052
336.115
303.381
232.809
213.969
278.361
201.763
295.965
297.202
226.075
319.664
256.73
233.465
325.851
272.779
290.373
294.476
224.647
312.76
251.04
230.173
319.118
266.797
12.2503
79.896
79.9012
137.484
213.962
270.242
209.216
285.316
105.317
137.117
214.718
268.28
207.703
285.846
105.035
347.148
317.94
316.112
219.415
202.076
201.979
347.521
319.247
314.443
218.66
202.566
201.22
22.9267
96.0123
180.038
229.11
279.157
178.658
229.29
278.709
96.7993
116.273
117.464
287.391
206.426
286.987
201.774
286.966
207.671
281.892
201.006
256.841
225.086
280.903
166.991
199.672
170.17
253.314
221.141
278.186
199.573
165.87
168.746
9.68984
61.3542
70.0381
61.3448
70.0457
118.185
192.552
228.063
198.051
220.223
297.468
191.936
87.2376
117.673
194.28
227.522
197.558
220.795
292.161
189.107
86.8731
294.613
188.074
292.018
186.609
21.4838
88.7469
89.1155
173.84
230.754
291.97
241.485
279.249
173.482
231.277
286.119
236.044
279.873
106.99
107.511
223.265
253.501
213.056
155.654
179.203
162.439
219.421
252.81
210.133
179.813
154.983
160.949
11.7271
80.8903
85.5265
81.0717
85.7309
101.209
100.879
113.507
183.793
208.792
183.077
207.32
162.791
254.252
170.033
241.28
280.856
179.391
112.903
184.648
207.67
182.697
206.988
163.909
252.445
169.235
241.762
274.198
175.893
25.5585
80.5006
82.7226
81.1378
83.2588
166.977
226.047
285.88
235.074
275.985
212.429
157.565
165.885
229.325
282.617
232.006
279.331
208.309
155.552
95.7813
97.1347
207.59
146.906
203.531
146.684
10.3122
88.7768
88.048
88.762
87.8914
116.108
118.189
115.877
117.998
122.903
122.281
180.963
206.099
181.621
208.166
161.692
239.42
164.481
235.936
159.781
245.245
162.012
237.82
182.694
205.794
181.701
208.996
161.851
237.562
163.941
234.79
160.571
242.645
160.641
238.808
32.8493
103.397
139.477
103.465
139.519
91.2697
93.6588
161.339
221.052
284.267
229.655
271.395
159.433
212.701
160.47
211.191
206.08
148.153
160.697
222.601
278.475
224.642
273.301
159.384
210.001
158.925
211.568
201.578
147.706
2.53489
82.0886
63.5292
81.8868
63.0444
123.514
123.182
123.256
122.878
128.154
124.047
127.708
123.742
181.668
212.592
181.48
213.476
183.898
213.685
183.46
214.547
159.303
230.241
159.96
231.091
161.049
230.106
160.305
233.073
34.1948
185.456
183.042
185.559
183.39
108.106
162.757
109.62
162.544
154.86
156.074
213.502
280.997
224.298
266.573
160.212
219.244
158.538
214.964
153.158
202.089
146.305
212.578
216.111
276.576
220.67
269.098
159.777
216.683
157.597
214.379
153.41
198.956
146.148
211.525
19.7792
1.30098
110.725
78.6802
110.203
77.6918
128.716
133.289
128.481
133.015
181.08
210.31
182.057
205.165
178.074
202.216
179.488
199.223
183.569
212.271
184.288
207.066
179.947
202.665
179.688
200.758
163.136
234.369
162.464
237.911
165.349
237.158
165.013
240.274
36.8991
191.387
166.877
191.651
167.828
225.188
224.783
224.832
224.429
165.394
210.692
165.976
209.497
211.562
270.598
217.917
263.199
214.941
270.768
218.13
266.684
174.439
231.563
166.454
231.967
174.493
229.078
165.775
232.236
10.4542
76.2941
62.2276
76.2225
62.788
1.36014
127.971
108.609
127.538
107.772
182.033
202.752
180.636
202.298
186.853
209.472
189.759
205.254
184.284
203.805
181.192
204.628
188.5
207.07
187.359
206.923
152.353
223.722
157.814
212.439
153.733
216.283
156.504
212.266
154.59
227.476
160.613
215.746
155.561
216.986
157.031
214.709
40.8211
172.274
220.386
226.608
220.125
226.208
274.175
281.711
272.484
279.057
222.992
276.044
224.37
274.754
241.239
332.825
257.112
295.591
226.084
275.772
224.206
278.291
242.902
325.382
251.979
297.717
167.169
219.085
164.95
216.907
167.409
218.178
164.469
217.864
5.76231
59.5021
62.985
59.7009
63.397
128.501
110.862
128.516
111.825
1.19352
187.65
208.355
189.679
205.625
180.815
215.359
208.653
193.647
188.653
205.705
187.18
206.268
181.832
213.56
206.344
194.367
144.441
208.893
150.247
201.327
147.087
227.209
159.577
207.029
147.636
211.206
151.723
206.764
149.371
222.193
156.433
210.791
42.9286
191.11
346.038
364.38
345.01
363.34
271.344
283.972
268.998
280.524
277.159
376.667
269.659
406.17
284.697
414.066
289.087
416.631
276.351
367.902
264.08
403.767
282.755
399.798
280.496
412.313
172.031
225.77
166.949
234.589
179.982
305.95
205.061
256.218
172.286
224.957
166.471
235.408
179.891
301.622
203.433
256.131
27.3039
4.19276
83.7104
69.1884
83.9316
68.6878
193.428
210.775
163.554
197.331
176.654
181.017
221.062
211.467
195.832
180.491
191.865
204.722
159.868
195.857
172.176
177.587
218.618
206.423
195.195
175.869
1.66791
153.846
226.075
158.553
217.719
148.019
200.304
153.553
220.344
155.08
217.069
147.776
199.903
141.145
213.945
147.695
199.778
141.739
206.142
143.724
201.159
43.9974
174.237
418.155
442.579
418.004
442.587
421.017
455.948
419.202
453.669
278.88
396.01
285.589
377.61
284.999
474.661
351.253
376.559
278.059
383.869
278.248
374.087
282.386
459.413
342.999
370.761
264.879
378.168
237.394
433.316
272.398
436.972
263.115
450.213
262.164
372.536
235.034
427.204
268.666
424.89
257.939
441.87
25.4538
95.5959
105.739
95.7615
106.575
6.88529
138.117
132.669
137.216
132.351
194.985
206.969
141.059
147.227
204.177
146.485
208.287
177.33
203.922
144.517
188.773
203.259
136.194
144.807
199.134
142.651
200.787
173.373
200.073
140.85
2.18864
138.83
210.484
144.606
200.087
134.984
193.465
137.958
203.405
140.955
198.621
133.975
192.443
44.0413
160.108
336.594
489.072
544.28
488.81
543.891
577.361
499.058
362.783
640.473
399.102
324.193
725.569
469.434
676.802
423.344
485.393
575.499
361.222
639.979
397.886
318.767
719.331
465.822
676.776
422.545
254.21
409.878
251.09
409.656
259.73
411.267
250.921
399.861
247.067
400.415
255.704
399.236
283.45
452.148
277
459.51
280.724
442.154
273.578
451.646
29.5801
102.409
133.771
103.422
133.649
170.264
177.391
171.117
177.808
5.0038
176.273
209.906
161.701
218.067
183.716
239.514
210.52
229.602
175.613
207.11
158.77
216.759
184.18
239.981
208.178
229.026
195.852
139.007
205.226
141.513
207.588
141.545
189.372
135.567
201.867
137.349
204.737
138.615
1.62705
43.3641
138.607
305.154
689.421
665.519
688.38
665.098
612.293
664.988
612.174
663.168
513.667
625.506
376.34
314.078
716.398
425.381
830.431
497.636
769.564
454.985
506.164
627.213
311.662
377.394
719.412
427.156
831.174
498.131
773.38
456.903
274.347
430.427
269.124
430.547
288.558
448.85
273.14
421.829
266.632
424.71
287.486
443.106
97.0117
15.0559
168.753
183.501
169.839
183.443
296.3
223.179
191.475
306.331
211.665
179.735
340.425
255.781
325.313
227.504
309.743
223.321
194.162
317.901
213.306
177.626
348.87
255.949
334.922
229.117
3.9329
147.77
220.343
145.645
224.076
155.593
239.233
146.933
217.512
144.461
221.385
155.585
238.774
1.23043
42.4776
117.778
232.781
676.197
664.571
675.961
664.639
835.052
797.697
833.335
796.231
586.644
952.152
564.61
983.516
627.867
1086.56
652.414
1059.13
585.945
952.56
564.712
982.528
626.658
1079.55
648.151
1057.39
552.848
341.838
893.249
522.833
815.953
481.115
551.608
342.45
896.566
524.417
822.035
483.859
52.2165
262.754
259.387
262.806
259.603
9.50812