/*--------------------------------*- C++ -*----------------------------------*\
| =========                 |                                                 |
| \\      /  F ield         | OpenFOAM: The Open Source CFD Toolbox           |
|  \\    /   O peration     | Version:  5.x                                   |
|   \\  /    A nd           | Web:      www.OpenFOAM.org                      |
|    \\/     M anipulation  |                                                 |
\*---------------------------------------------------------------------------*/
FoamFile
{
    version     2.0;
    format      ascii;
    class       volScalarField;
    location    "2.3";
    object      p;
}
// * * * * * * * * * * * * * * * * * * * * * * * * * * * * * * * * * * * * * //

dimensions      [1 -1 -2 0 0 0 0];

internalField   nonuniform List<scalar> 
12160
(
5246.13
5288.76
4591.73
5309.33
4634.2
3937.36
5341.27
4654.83
3979.69
3282.17
5374.06
4686.8
3999.92
3323.99
2627.58
5408.73
4719.54
4031.85
3344.38
2668.99
1971.72
5446
4754.13
4064.43
3376.42
2688.57
2012.12
1317.06
5485.97
4791.34
4098.87
3408.8
2720.53
2032.05
1356.58
660.931
5528.45
4831.3
4135.95
3443
2752.62
2064.2
1375.38
701.338
170.67
5572.72
4873.87
4175.89
3479.86
2786.49
2095.91
1407.32
719.828
191.374
0.985524
5617.45
4918.4
4218.67
3519.73
2823.02
2129.39
1438.63
751.253
200.338
1.34007
-6.59534
5660.76
4963.5
4263.7
3562.78
2862.74
2165.42
1471.6
782.346
217.901
1.49678
-6.72705
-7.4555
5700.82
5007.23
4309.6
3608.59
2906.12
2204.84
1506.93
815.272
238.022
4.03429
-6.78887
-7.47761
-8.19963
5736.4
5047.68
4354.2
3655.69
2952.97
2248.55
1545.81
850.072
260.365
8.7484
-6.79526
-7.50105
-8.21863
-8.78262
5766.27
5083.47
4395.41
3701.63
3001.75
2296.72
1589.79
888.33
284.236
14.8366
-6.77615
-7.51078
-8.16797
-8.78694
-9.51584
5790.47
5113.47
4431.7
3744.03
3049.58
2347.75
1639.51
932.39
311.086
21.7541
-6.7445
-7.51304
-8.14433
-8.80868
-9.52739
5809.28
5137.66
4462
3781.09
3093.61
2398.2
1693.25
983.598
343.859
29.8742
-6.65716
-7.49506
-8.13392
-8.82186
-9.49474
5823.28
5156.42
4486.26
3811.77
3131.77
2444.55
1746.8
1040.39
384.451
40.7719
-6.50268
-7.48714
-8.13088
-8.82971
-9.47468
5832.85
5170.37
4505.04
3835.95
3162.96
2484.25
1795.72
1098.02
432.795
55.6526
-6.13351
-7.48327
-8.1349
-8.82101
-9.46548
5837.89
5180.1
4519.1
3854.47
3187.12
2515.94
1837.05
1150.46
484.814
75.8136
-5.20244
-7.48029
-8.13133
-8.81755
-9.46713
5838.06
5185.3
4528.74
3868.31
3205.45
2539.54
1869.39
1194.03
533.484
100.474
-3.46213
-7.47067
-8.14116
-8.81528
-9.46981
5832.63
5185.63
4534.17
3878.38
3219.34
2557.18
1892.72
1226.79
574.055
125.864
-0.69218
-7.46781
-8.15567
-8.81238
-9.46981
5821.06
5180.36
4534.83
3884.31
3229.39
2570.56
1909.86
1248.89
603.544
147.958
2.88274
-7.4665
-8.18542
-8.80703
-9.47558
5803.06
5168.94
4529.85
3885.54
3235.82
2581.06
1923.09
1263.96
622.288
163.817
6.4464
-7.41887
-8.21029
-8.80604
-9.48397
5778.85
5150.93
4518.78
3881.12
3237.83
2588.4
1933.76
1275.68
634.321
173.436
9.18542
-7.3286
-8.22322
-8.82615
-9.49644
5748.93
5126.58
4500.71
3870.42
3234.24
2591.54
1941.86
1286.43
644.451
179.458
10.9418
-7.22048
-8.2307
-8.84921
-9.49653
5714.26
5096.43
4476.11
3852.37
3224.06
2589.12
1946.45
1296.04
654.903
184.956
12.038
-7.13994
-8.22861
-8.86175
-9.49397
5676.08
5061.45
4445.49
3827.4
3206.09
2579.72
1945.73
1302.92
666.97
192.153
13.1278
-7.0907
-8.21886
-8.86115
-9.49382
5635.69
5022.92
4409.87
3796.05
3180.62
2561.93
1937.46
1304.09
676.6
200.992
14.67
-7.02728
-8.20933
-8.85448
-9.49328
5594.3
4982.16
4370.63
3759.46
3148.27
2535.82
1920.03
1296.88
680.19
208.644
15.7927
-6.91007
-8.21234
-8.84486
-9.49129
5552.99
4940.44
4329.15
3719.11
3110.31
2502.12
1893.13
1280.05
675.33
212.67
16.6289
-6.73734
-8.22996
-8.83717
-9.4907
5512.62
4898.8
4286.74
3676.51
3068.45
2462.33
1857.7
1252.41
660.705
211.28
16.8239
-6.5718
-8.23206
-8.83101
-9.49333
5473.87
4858.1
4244.51
3633.06
3024.31
2418.48
1815.52
1215.3
634.638
203.114
16.0907
-6.46846
-8.23962
-8.85929
-9.50759
5437.18
4818.98
4203.32
3589.88
2979.47
2372.35
1768.75
1170.71
599.312
187.925
14.2351
-6.46523
-8.24798
-8.87985
-9.4978
5403.16
4782.15
4163.81
3547.73
2935.15
2325.74
1720.07
1120.85
557.021
166.855
11.2443
-6.57267
-8.2582
-8.8975
-9.49927
5372.14
4747.9
4126.31
3507.17
2892.06
2279.91
1671.55
1068.87
511.078
142.872
7.76495
-6.73801
-8.26805
-8.90888
-9.50452
5344.2
4716.71
4091.6
3469.05
2850.64
2235.36
1624.51
1017.93
464.382
118.013
4.35976
-6.92422
-8.26266
-8.91341
-9.51234
5319.31
4688.65
4059.98
3433.64
2811.13
2192.29
1578.77
969.731
419.762
94.13
1.35835
-7.11033
-8.25059
-8.90921
-9.51897
5297.4
4663.72
4031.67
3401.53
2774.63
2151.51
1534.02
923.315
380.09
73.2026
-1.11618
-7.26308
-8.24203
-8.89814
-9.51823
5278.22
4641.82
4006.64
3372.89
2741.67
2113.68
1490.84
877.713
344.223
56.2885
-2.93873
-7.36446
-8.23291
-8.88242
-9.51364
4622.69
5250.64
3984.76
3347.74
2712.56
2079.73
1451.04
833.582
310.604
43.4025
-4.13231
-7.43764
-8.22419
-8.85969
-9.50866
3965.74
4595.27
5222.91
3325.9
2687.24
2050.05
1415.82
793.384
279.532
33.1766
-4.90578
-7.48661
-8.20947
-8.82873
-9.50801
3307.05
3938.65
4567.85
5204.68
2665.48
2024.57
1385.6
758.564
253.698
25.4145
-5.42777
-7.50039
-8.19175
-8.81753
-9.51299
2646.89
3280.49
3911.83
4550.06
5189.05
2002.93
1360.19
729.616
233.156
20.1718
-5.76593
-7.5117
-8.17541
-8.81908
-9.50662
1984.69
2621.05
3254.61
3894.81
4534.58
5176.94
1338.98
705.857
217.307
16.7332
-5.98503
-7.50945
-8.15774
-8.82167
-9.49801
1321.38
1959.89
2596.43
3238.71
3880.08
4523.22
5164.32
686.439
204.933
14.513
-6.14912
-7.4875
-8.14241
-8.82513
-9.48798
670.66
1297.89
1936.84
2581.9
3225.03
3870.26
4509.86
5148.14
195.14
12.9853
-6.26428
-7.46027
-8.12979
-8.82025
-9.47927
187.231
650.457
1276.95
1923.82
2569.96
3216.46
3857.17
4494.77
5122.95
11.8381
-6.3419
-7.44484
-8.11948
-8.81052
-9.4738
10.8422
177.434
633.854
1265.68
1913.56
2563.61
3204.1
3840.83
4462.82
5108.31
-6.39844
-7.43648
-8.11327
-8.80192
-9.47193
-6.43858
9.65947
170.911
625.092
1258.01
1909.72
2553.87
3188.35
3806.33
4446.93
5034.4
-7.43115
-8.1105
-8.79637
-9.47001
-7.42359
-6.4641
9.44854
167.85
621.363
1256.98
1902.84
2538
3147.83
3778.06
4366.7
5183.28
-8.10731
-8.7926
-9.46925
-8.10156
-7.40742
-6.39486
9.63478
168.803
624.097
1254.51
1890.46
2493.61
3082.87
3697.37
4483.42
4625.59
5441.23
-8.78893
-9.46917
-8.78435
-8.08894
-7.36066
-6.21884
11.0103
173.156
629.817
1246.25
1844.5
2394
2989.83
3766.67
4060.33
4310.76
5053.79
5673.67
-9.46872
-9.46747
-8.77517
-8.04962
-7.25007
-5.83673
13.4091
182.499
630.603
1207.71
1742.65
2308.59
3015.57
3460.21
3871.69
4106.95
4708.01
5400.63
5986.73
-9.4641
-8.74904
-7.96946
-7.08018
-5.03213
18.3051
186.89
612.165
1116.72
1637.31
2269.2
2874.28
3410.48
3680.19
3907.7
4485.84
5105.56
5770.45
6386.96
-9.45434
-8.69982
-7.85802
-6.99455
-3.32072
21.4289
191.846
520.275
1030.69
1634.35
2317.53
2915.24
3222.8
3511.44
3729.94
4250.21
4843.98
5495.77
6190.38
6915.83
-9.43712
-8.65183
-8.01833
-6.73873
-3.16079
23.6034
125.029
467.038
1112.14
1800.79
2411.57
2787.62
3064.72
3364.51
3553.78
4020.43
4562.07
5193.49
5912.64
6720.04
7596.83
-9.42489
-8.81259
-8.39664
-6.84764
-3.90738
8.89685
88.0068
589.36
1272.4
1904.84
2369.27
2653.02
2930.93
3220.83
2657.04
3794.29
2661.43
2580.85
2583.95
4271.54
4849.6
5553.34
6400.97
7382.61
8446.52
-9.50006
-9.2121
-8.51795
-7.11919
-5.25428
-0.778733
154.419
738.856
1392.14
1943.07
2261.64
2519.83
2831.96
3076.81
2724
2592.15
3959.81
2729.33
2805.66
2810.3
2594.21
2478.19
2479.64
4454.17
5114.63
5968.24
7015.61
8206.43
9458.43
-9.69974
-9.33398
-8.29118
-7.07794
-5.88914
-1.95963
233.23
869.844
1470.43
1876.34
2135.1
2416.15
2708.38
2372.01
2369.29
2231.07
2232.29
2663.48
2559.85
4010.6
3719.02
2665.58
2725.09
2727.53
2551.4
2480.22
2472.51
4588.35
5421.01
6505.35
7792.16
9200.56
10606.5
-9.92793
-9.12177
-7.97986
-6.92331
-6.27477
2.55458
298.638
943.449
1461.89
1758.04
2019.98
2317.79
2079.29
2080.2
1932.26
1933.08
2314.24
2310.83
2192.63
2188.21
2619.01
2235.22
2119.68
2264.47
2085.09
4006.28
3658.77
2686.13
2687.7
2700.32
2697.39
2610.27
2672.94
2665.11
2232.53
2118.96
2260.51
2084.65
2218.9
1980.6
2195.46
2046.97
2215.42
1981.4
2191.87
2043.69
4745.38
5854.61
7206.92
8741.84
10342.9
11852.5
-9.72474
-8.83288
-7.85258
-7.02192
-6.39139
10.8184
362.483
950.681
1335.32
1619.17
1914
1776.59
1777.21
1629.86
1630.39
2061.21
2054.86
1912.42
1904.02
1961.14
2025.74
2046.15
1873.48
1989.64
2118.83
2025.37
1963.31
2046.44
1874.68
1989.48
2118.38
1777.65
1905.45
1827.04
1953.75
1777.52
1904.81
1826.94
1953.1
2307.22
2145.86
2291.85
2157.61
2167.97
2168.55
2198.82
2134.58
3995.41
3496.61
2553.17
2554.93
2633.96
2635.78
2626.27
2620.37
2632.33
2627.98
2304.55
2145.56
2287.97
2156.29
2347.25
2169.29
2405.27
2174.31
2344.4
2172.35
2401.68
2173.33
2169.1
2172.76
2199.71
2139.78
2163.1
2094.55
2162.48
2094.4
5034.15
6475.02
8098.72
9858.83
11593.1
13129.4
-9.63501
-8.69592
-7.89158
-7.18594
-6.69775
27.3961
352.474
830.079
1191.41
1496.24
1463.76
1463.88
1306.19
1306.72
1759.35
1751.64
1609.49
1601.94
1711.72
1835.11
1646.22
1772.61
1713.81
1835.09
1652.41
1773.19
1515.39
1635.57
1586.49
1709.43
1521.08
1635.94
1591.43
1709.67
2055.61
1934.99
2016.08
2098.6
1906.5
1972.36
2058.28
1937.15
2099.26
2016.24
1907.02
1972.48
1814.66
1866.24
1868.08
1927.88
1816.81
1866.82
1868.33
1928.02
2251.93
2197.7
2227.4
2218.48
2161.49
2155.17
2187.86
2131.07
4092.05
3268.98
2334.42
2335.6
2446.1
2446.95
2476.67
2465.95
2563.19
2554.92
2150.05
2302.56
2179.54
2330.31
2153.96
2303.07
2182.52
2330.74
2191.38
2201.05
2292.97
2191.89
2329.47
2303.08
2194.46
2202.4
2293.61
2193.64
2329.62
2303.34
2252.55
2200.34
2227.78
2221.58
2272.26
2204.4
2273.21
2207.8
2161.84
2158.09
2188.89
2129.74
2139.46
2093.09
2138.8
2091.22
5549.53
7301.76
9178.42
11109.1
12894.7
14368.5
-9.5499
-8.70205
-7.97075
-7.2632
-7.0089
21.8724
288.43
680.699
1037.07
1138.98
1139.49
966.227
966.1
1436.97
1432.87
1267.67
1266.96
1451.76
1570.93
1388.88
1510.39
1454.32
1570.41
1392.86
1509.61
1241.68
1409.21
1329.21
1452.21
1241.11
1406.81
1330.03
1450.56
1758.03
1808.68
1698.24
1738.22
1762.17
1809.9
1703.02
1740.07
1567.43
1592.35
1631.79
1660.34
1572.52
1594.08
1634.26
1661.71
2239.19
2188.75
2218.04
2212.11
4457.06
3117.77
2119.68
2121.77
2217.64
2218.53
2236.04
2225.5
2374.65
2363.78
2000.15
2152.81
2041.7
2188.81
2007.83
2153.36
2048.52
2189.4
2112.81
2253.84
2072.09
2218.68
2117.16
2254.55
2080.88
2219.77
2210.12
2256.72
2228.65
2273.64
2216.31
2258.82
2232.01
2275.03
2182.18
2223.79
2293.46
2237.09
2229.62
2276.28
2188.15
2226.72
2293.75
2239.51
2231.97
2277.05
2239.63
2191.91
2219.16
2212.91
2261.79
2211.79
2263.42
2216.53
6329.6
8337.93
10422.7
12437.9
14167.4
15533.4
-9.51785
-8.73567
-8.03047
-7.30413
-6.81447
6.43159
215.573
518.852
847.815
1091.32
1091.12
892.118
891.964
1395.65
1393.65
1246.89
1243.76
1501.28
1527.69
1438.52
1467.72
1504.53
1529.08
1441.43
1468.87
1267.66
1348.28
1365.85
1403.88
1267.73
1347.98
1367.18
1404.35
1554.35
1586.72
1561.57
1588.95
5212.97
3369.21
2095.08
2097.69
2061.2
2063.01
2017.16
2014.71
2120.86
2113.33
1764.71
1978.48
1860.52
2023.1
1765.53
1975.85
1863.87
2022
1973.49
2122.77
1913.61
2068.05
1975.98
2121.91
1918.96
2067.47
2099.9
2128.91
2134.92
2165.48
2104.67
2130.43
2136.4
2166.64
2173.01
2225.12
2151.48
2194.45
2179.69
2227.56
2156.03
2196.31
7341.35
9575.38
11759.4
13759.4
15366
16618.8
-9.5132
-8.75759
-8.08012
-7.32778
-6.4573
-2.25978
130.867
357.183
665.273
665.918
464.523
465.407
1079.71
1075.15
871.296
872.165
1229.22
1221.93
1289.46
1144.47
1228.98
1220.53
1289.22
1144.4
1161.93
997.041
1088.53
1073.97
1161.32
999.876
1087.67
1074.31
1503.99
1529.28
1438.39
1463.23
1508.47
1530.95
1442.44
1464.78
1302.21
1329.44
1370.01
1398.38
1305.44
1330.53
1372.61
1399.55
6249.63
4169.49
2658.06
1997.23
2000.18
1946.36
1942.37
2005.96
1999.92
2107.87
2101.23
1840.41
1967.46
1935.07
1997.29
1841.97
1967.38
1937.77
1998.16
2051.17
2082.38
2000.73
2036.98
2053.64
2083.49
2004.23
2038.31
2098.26
2133.79
2104.3
2135.45
8585.47
10912.6
13120.3
15002.6
16468.6
17418.7
-9.50768
-8.76754
-8.04387
-7.31925
-6.2654
-5.09086
53.7802
240.538
645.277
642.843
410.69
409.684
918.422
1006.82
950.205
823.481
920.583
1005.81
947.529
823.351
866.677
862.75
1198.51
1241.4
1266.56
1178.23
1198.69
1242.76
1266.84
1178.39
1133.48
1032.9
1057.32
1111.84
1133.74
1033.72
1057.63
1113.08
1292.37
1321.56
1297.29
1322.79
7520.73
5324.25
3569.21
2168.01
2171.38
1992.32
1991.89
1922.35
1921.36
1944.08
1933.98
1874.22
1688.74
1832.15
1741.61
1873.82
1698.63
1833.6
1743.36
1912.66
1825.46
1915.61
1787.52
1911.51
1823.65
1914.82
1785.99
1912.92
1961.83
1971.99
2011.08
1917.01
1962.9
1974.2
2012.17
2070.44
2099.12
2023.48
2050.82
2075.05
2100.79
2027.17
2052.1
9957.05
12288.8
14423.3
16143.1
17289.2
-9.49487
-8.7474
-7.97687
-7.28735
-6.53897
-4.02401
13.0967
217.964
217.631
84.7037
84.7309
576.493
637.903
460.143
539.517
577.374
637.622
461.762
538.447
405.965
404.903
946.57
975.573
900.047
835.231
947.123
975.618
899.146
835.475
677.552
738.519
765.804
811.962
680.084
739.29
766.523
812.094
1125.92
1022.59
1047.58
1092.46
1126.07
1026.5
1048.71
1094.27
8960.95
6666.96
4974.16
3657.62
2355.55
2350
2150.95
2141.36
2115.69
2103.41
1662.82
1810.92
1898.84
1661.19
1666.72
1810.77
1893.96
1654.27
1939.54
1843.45
1892.49
1895.32
1940.22
1849.31
1894.56
1897.74
1963.38
1923.77
1961.29
1922.3
1963.4
1927.13
1962.25
1922.03
1941.7
1982.95
1948.58
1984.7
11356.3
13646.6
15604.8
16964.4
-9.47053
-8.71417
-7.92563
-7.17706
-6.61662
-3.66759
13.3892
13.3964
3.69995
3.70746
210.655
210.258
73.6247
73.3987
593.353
613.643
468.42
510.659
593.054
613.212
468.316
510.383
413.099
285.503
332.002
382.066
413.31
286.63
332.006
382.214
954.633
974.95
893.026
872.348
955.789
975.438
893.265
873.214
702.687
721.662
784.505
795.277
704.218
721.646
785.909
796.121
10407.6
8188.31
6449.09
5324.91
3617.05
3619.07
3098.03
3095.63
2737.71
2736.82
2005.39
2129.19
2001.76
2273.55
2014.37
2132.35
2012.82
2275.53
1974.7
2100.13
1957.41
2060.94
1767.37
1963.42
1991.21
2104.6
1969.26
2064.74
1770.77
1963.21
1806.58
1894.19
1811.47
1896.06
1979.26
1926.81
1983.05
1920.25
1980.31
1936.3
1985.74
1924.49
12755.7
14840.5
16423.3
-9.44522
-8.66607
-7.91272
-6.76476
-6.40907
-0.990572
20.2309
20.159
9.75415
9.74548
222.507
308.433
233.153
153.684
166.896
333.102
308.993
222.604
333.147
233.08
153.974
166.856
48.4018
50.9236
100.443
106.802
48.4931
50.8719
100.453
106.707
589.322
604.838
489.407
507.497
589.899
604.942
490.078
507.936
417.871
397.424
418.17
398.327
881.272
867.665
881.849
868.986
685.056
703.551
687.239
703.736
11841.7
9686.11
8072.12
6937.37
4846.18
4849.83
4205.73
4204.22
4079.22
4074.39
3603.49
3603.56
2733.1
2603.17
2973.33
2572.94
2464.45
2204.36
2736.71
2621.82
2977.85
2581.3
2466.23
2211.23
2202.71
2300.37
2208.98
2302.95
2197.42
2261.66
2109.55
1954.64
2166.66
2037.16
2208.71
2265.21
2118.7
1967
2170.22
2041.02
1934.65
2000.15
1945.78
2003.9
13990.3
15731
-9.42476
-8.5837
-7.90871
-6.76783
-5.29927
5.29632
5.29283
1.93932
1.93618
32.3575
32.221
15.3578
15.3363
308.258
216.245
217.486
314.01
190.673
190.653
308.73
216.269
314.068
217.489
190.483
190.632
80.7366
85.5599
137.018
138.807
80.649
85.5113
136.703
138.693
478.948
504.47
480.245
504.88
13120.5
11176.9
9603.1
8578.11
7807.88
5239.3
5236.16
4638.58
4625.36
3739.82
4233.79
3629.79
3892.57
3763.9
4238.09
3645.68
3897.94
3278.24
2902.26
3465.5
3442.96
3666.42
3155.91
3288.48
2910.69
3469.24
3464.2
3672.67
3158.67
2902.01
2598.53
2830.44
2532.01
2903.61
2600.91
2833.36
2537.93
2423.16
2476.79
2430.89
2479.89
2339.2
2405.63
2062.71
2126.9
2351.88
2409.57
2074.4
2130.98
14927.1
-9.41178
-8.49183
-7.80513
-6.93757
-2.67083
8.25203
8.23484
-0.308778
-0.258314
51.192
64.2493
65.1921
45.9683
51.0993
64.0796
65.1275
45.7689
28.4836
28.3878
110.162
111.095
143.614
144.179
110.176
111.1
143.491
144.119
14094.7
12513.5
11062.1
10122.7
9426.76
6872.51
6884.7
6220.43
6220.27
5632.49
5633.26
5089.98
5083.45
4052.64
4379.71
3984.74
4066.79
4069.67
4384.89
3997.04
4071.63
3183.01
3561.8
3278.65
3651.18
3767.03
3830.66
3192.51
3568.89
3653.43
3281.93
3776.19
3834.21
2761.61
2721.41
2763.78
2727.15
-9.40913
-8.52887
-7.91378
-6.73259
2.01126
2.0252
0.139887
0.1466
24.1065
24.0728
8.41218
8.40105
63.33
92.5839
90.5545
59.9106
63.3407
92.6538
90.6304
59.8753
35.5435
44.7266
67.5587
72.6948
35.8472
44.682
67.6231
72.6366
130.06
130.686
130.18
130.71
13508.9
12481.5
11556.8
10978.1
10302
7188.74
7187.89
6717.23
6702.34
6163.24
6152.19
5187.28
4507.23
4791.78
4616.96
5185.4
4511.25
4793.91
4615.97
4370.34
4486.92
4197.31
4272.76
4390.43
4493.45
4213.03
4278.29
-9.37548
-8.71874
-8.4099
-6.45943
7.79356
7.83462
0.76934
0.789435
58.5678
65.9964
36.3283
54.0203
59.6406
28.9569
58.9438
66.0305
36.2933
54.3267
59.7117
29.0711
21.3104
21.3198
90.6704
103.379
106.356
88.6303
90.6354
103.313
106.403
88.4881
87.4732
92.7572
87.7739
92.7562
13476
12870.7
12396.2
11919.6
8726.69
8739.82
8060.72
8062.18
7452.56
7465.52
7126.05
7111.02
5418.34
6037.79
5351.1
5653.98
4904.58
5304.22
5450.11
6040.99
5366.48
5658.97
4906.54
5305.37
4829.27
4944.63
4840.72
4948.68
4622.87
4705.09
4643.22
4710.89
-9.49125
-9.04723
-10.5906
4.28854
4.2238
-4.74642
-4.83232
25.942
26.2744
11.6077
11.6933
76.5264
81.2868
53.364
63.6067
72.919
45.332
77.1469
81.4289
53.4512
63.9636
73.0219
45.6022
25.4135
27.8617
43.1155
50.4075
25.8362
28.0176
43.4344
50.5189
13903.3
13655.2
13380.7
12692.9
8966.81
8964.57
8537.1
8515.73
8059.39
8049.75
5702.18
6102.9
6933.59
6150.45
6489.01
6286.47
6926.7
6155.04
6489.85
6286.47
5714.46
6106.01
5631.8
5210.7
5792.85
5359.72
5636.51
5225.47
5793.92
5364.14
5010.12
5118.7
5024.8
5122.83
-9.59351
-11.5184
-9.53985
11.908
11.7136
0.243084
0.105194
38.106
44.8182
34.7119
37.7573
44.2227
30.4079
38.5774
45.0553
35.1267
38.3269
44.4139
31.0245
26.574
26.7889
70.7306
59.4285
70.7958
59.7051
50.0386
59.6793
50.4588
59.8758
14650.1
14603.1
14129.3
10129
10135.8
9508.12
9503.24
9016.89
9016.26
8759.31
8744.65
6893.4
7595.08
6832.31
7193.58
6504.17
6907.49
6963.73
6514.05
6908.84
7613.99
6865.35
7204.63
6042
6198.15
6441.22
6583.92
6453.88
6054.52
6588.76
6201.2
-10.5387
-10.5364
-4.98367
11.3293
11.1266
1.99712
1.85937
47.1501
57.5695
36.5465
44.447
48.3231
34.0288
47.8065
57.7753
36.846
45.1866
48.6488
34.5983
17.1715
18.6151
23.9883
24.5177
17.1697
18.5709
24.0553
24.6392
52.3717
60.6558
52.8677
60.79
15562.3
15387.3
14326.2
9887.63
9885.58
9377.76
9355.15
8983.08
8975.45
7027.45
7458.19
8044.46
7318.72
7663.1
7397.05
7061.42
7471.97
8033.37
7318.36
7663.18
7380.57
7052.36
6789.91
7200.09
6930.48
6806.8
6936.05
7071.25
7208.79
-10.2918
-13.759
-5.39532
1.82228
1.67244
-5.3073
-6.91198
-6.96063
6.89936
17.0951
18.2108
6.72377
17.0383
18.1815
49.6216
55.5955
37.1739
46.0502
49.4016
36.2261
50.4129
55.8929
37.4742
46.6426
49.7027
36.5692
22.3461
21.9734
22.2292
21.8507
16324.3
15710.5
14013.6
9744.13
9741.3
9287.49
9268.53
7498.88
7942.04
7588.35
7841.2
7419.73
7764.65
7516.34
7413.53
7759.54
7944.81
7604.68
7845.98
7239.03
7371.18
7460.38
7561.42
7264.49
7380.35
7474.46
7567.34
7167.08
7281.91
7186.31
7290.12
-13.5752
-10.7506
-3.78757
-5.97286
-3.82169
-5.94573
-6.70195
-6.73599
2.99331
9.5677
10.0253
13.6576
14.7319
4.10395
-0.211844
-0.542788
9.45322
3.0081
9.9115
13.6931
14.7267
4.36245
-0.346648
-0.663866
32.684
33.6082
32.7433
33.6502
16.3529
16.5815
16.1362
16.4298
16617.9
15489.3
11121
9705.44
9683.93
11136.8
10445
10444.2
9304.57
7594.5
7895.37
9305.78
7611.38
7899.13
7594.76
7732.86
7696.17
7848.92
7609.37
7700.88
7735.46
7849.34
7329.11
7433.42
7543.07
7624.88
7349.42
7440.59
7564.4
7633.39
-13.0323
-9.1008
-5.3499
-2.56228
-1.92166
-5.85489
-5.32118
-2.74332
-1.98647
-5.84199
-6.36075
-6.36407
6.07591
0.200958
13.7112
14.5904
7.12432
1.0771
6.00719
13.5049
0.225551
14.3384
6.95743
1.26161
29.0324
30.693
28.8221
30.4981
16457.1
15462.3
11156.3
9772.12
9761.49
11159.9
10640.6
10626.4
7631.55
7585.6
7863.94
7588.07
7878.63
7903.68
7598.41
8007.45
7647.86
7605.87
7871.12
7603.23
7882.37
7914.07
7622.29
8026.53
7669.45
7735.52
7756.12
7864.6
7674.37
7753.12
7733.85
7857.84
-11.1525
-6.6814
-6.4307
-6.4255
-6.68602
-7.09987
-7.11315
-4.4791
-3.62093
-3.81462
-4.20585
-3.04522
-4.98429
-4.16272
-4.58584
-5.85665
-4.59227
-4.91173
-4.49122
-3.77821
-3.84784
-4.30455
-3.05527
-4.98635
-4.19087
-4.60649
-5.84552
-4.60358
-4.91796
1.92071
-2.07981
3.14399
-1.5601
2.03353
-2.02356
3.21959
-1.98978
16397.4
15584.1
11279.8
9896.89
8302.71
7808.29
9894.63
8307.92
7813.03
11265
10753.2
10714.1
7693.02
7858.66
7677.1
7796.99
7831.43
8189.19
7718.12
7866.15
7692.15
7829.94
7808.52
8196.27
7674.75
7775.69
7680.29
7766.58
-10.1578
-6.29373
-6.57262
-6.28095
-6.57478
-6.95661
-6.97141
-3.43587
-4.13725
-4.35037
-3.70858
-4.27622
-4.53056
-4.7101
-4.4994
-4.72279
-4.51557
-4.79085
-5.05605
-4.91545
-5.36346
-3.41318
-4.14746
-3.71685
-4.36472
-4.30607
-4.54231
-4.51165
-4.70489
-4.72661
-4.53868
-4.79816
-5.05384
-4.91211
-5.35906
16476.7
12023.9
11334.6
11301
12059
11745.5
11741.5
8339.46
8410.95
8043.04
8519.83
7959.35
9008.24
8335.54
8882.46
8391.37
8415.86
8055.59
8523.52
7967.47
9028.5
8356.26
8886.75
10643.7
8533.75
9133.77
10630.9
8573.87
9152.05
7775.25
7953.84
7908.86
8358.22
7793.99
7945.15
7917.73
8358.73
-9.68219
-6.20953
-5.22074
-4.94403
-6.47359
-6.18737
-5.21569
-4.93097
-6.47629
-6.8437
-6.86066
-4.22278
-4.40346
-4.25049
-4.52196
-4.44842
-4.70817
-4.29234
-4.56472
-4.65596
-4.9732
-4.24556
-4.41475
-4.26589
-4.52944
-4.46308
-4.30794
-4.69453
-4.57155
-4.66057
-4.96694
16558.4
12128.1
11341.4
11307.4
12156.1
11773.5
11758.2
8017.8
8313.19
8544.6
8630.67
8514.11
9037.28
8023.88
8328.32
8546.32
8633.49
8526.1
9037.75
8924.78
8682.32
9169.68
8557.4
9089.78
9469.27
9028.22
9692.59
8936.52
8705.45
9180.45
8607.4
9106.14
9473.67
9039.66
9692.32
-9.55725
-6.74549
-6.76269
-6.09125
-5.15358
-4.93357
-5.1351
-4.93799
-6.3863
-6.07592
-5.14596
-4.91119
-5.1252
-4.91937
-6.39029
-4.29442
-4.42951
-4.73921
-4.5601
-4.6643
-4.94933
-4.315
-4.42993
-4.72468
-4.56683
-4.66395
-4.94195
16774.1
12107.7
11426.9
9693.61
9131.66
11379.6
9688.76
9122.19
12135.2
11839
11828.3
8398.59
8820.95
8520.03
9078.05
8403.37
8817.27
8523.2
9076.75
8892.35
9148.54
8700.49
9191.78
9310.73
9634.06
8909.84
9129.89
8700.02
9309.03
9197.99
9626.87
-9.51201
-6.69709
-6.67407
-6.71542
-6.69281
-6.00111
-5.07256
-4.90525
-5.12861
-4.83864
-4.74199
-4.95083
-6.33239
-5.9852
-5.06654
-4.89457
-5.12008
-4.83054
-4.72515
-4.94348
-6.33739
-4.47341
-4.68301
-4.47116
-4.68075
16928.8
12127.9
12151.2
11452.6
9612.02
9223.14
9660.75
9177.7
11413
9607.2
9211.81
9654.68
9164.37
11856.8
11846.1
9005.34
8730.48
9240.89
9344.29
9190.86
9620.47
9030.9
8740.35
9224.13
9192.61
9349.02
9615.26
-9.4917
-6.65971
-6.64573
-6.67895
-6.66451
-6.30488
-6.31024
-5.9431
-5.0359
-4.7563
-4.99414
-4.79977
-4.90743
-4.71099
-4.95504
-4.63336
-4.50096
-4.70195
-5.93176
-5.02981
-4.75423
-4.98974
-4.79188
-4.90296
-4.70197
-4.94985
-4.63064
-4.4991
-4.69944
17136.2
12160.8
12211.9
12183.6
12237.7
11448.2
9652.79
9220.22
9681.26
9209.24
9256.18
9637.85
11407.1
9647.88
9223.9
9676.8
9202.4
9253.04
9635.57
11894.7
11888.4
9090.12
9399.15
9115.33
9403.32
-9.47065
-6.66289
-6.68435
-6.67775
-6.69802
-6.28243
-6.2686
-6.28794
-6.27254
-5.92417
-5.91476
-4.98128
-4.72987
-4.97826
-4.72852
-4.91522
-4.56789
-4.85233
-4.60747
-4.74443
-4.50574
-4.73246
-4.46055
-4.97679
-4.73443
-4.9758
-4.72833
-4.91044
-4.57223
-4.85147
-4.59985
-4.74387
-4.50766
-4.73165
-4.4617
17431.8
12274.3
12390.6
12304.9
12414.6
11934.7
11934.7
11463
9646.91
9178.91
9672.44
9193.92
9651.2
9267.86
9665.43
9257.24
9139.73
9461.7
11427.4
9644.8
9182.62
9671.49
9188.61
9650.56
9278.59
9666.24
9259.9
9168.09
9466.96
-9.49598
-6.75756
-6.77878
-6.76599
-6.79234
-6.2771
-6.31023
-6.28141
-6.31049
-5.90055
-5.87866
-5.89268
-5.86935
-4.97265
-4.71217
-4.96718
-4.72476
-4.96557
-4.71123
-4.96117
-4.7211
-4.85154
-4.5631
-4.85248
-4.55561
-4.85286
-4.57139
-4.85271
-4.56507
17547
12522.2
12660.4
12540.8
12675.6
11996.2
12069.2
11993.8
12062.8
11531.8
11496
9696.56
9171.35
9695.37
9187.65
9705.07
9243.16
9719.67
9263.74
9534.03
9183.18
9535.64
9162.61
9693.45
9182.31
9694.45
9184.59
9702.38
9253.87
9721.12
9257.9
9535.73
9211.99
9540.9
9178.17
-8.69351
-9.50178
-6.33649
-6.39506
-6.33362
-6.39845
-5.88602
-5.9471
-5.87446
-5.9275
-4.95987
-4.68628
-4.9617
-4.68759
-4.94445
-4.6541
-4.91647
-4.68678
-4.95313
-4.6861
-4.955
-4.68537
-4.93984
-4.65589
-4.9124
-4.68495
-4.83916
-4.51613
-4.82904
-4.535
-4.84123
-4.52347
-4.83035
-4.54587
17762.9
12775.3
12940.9
12785
12953.9
12145.1
12292.1
12136.7
12280.9
11566.8
11566.3
11534.7
11538.5
9739.93
9266.12
9794.79
9224.23
9730.59
9254.26
9784.32
9211.97
9739.65
9201.42
9703.69
9190.42
9737.63
9213.36
9705.48
9189.26
-8.74706
-6.08709
-6.17976
-6.0747
-6.17003
-9.47781
-6.00773
-6.05695
-5.98294
-6.03643
-4.94178
-4.65184
-4.90808
-4.6925
-4.9811
-4.79496
-5.0183
-4.7402
-4.93788
-4.65337
-4.90381
-4.6918
-4.97634
-4.78206
-5.01132
-4.73549
-4.8408
-4.50385
-4.83208
-4.49218
-4.8332
-4.45815
-4.78608
-4.48397
-4.84335
-4.50781
-4.83272
-4.50135
-4.83141
-4.4652
-4.78674
-4.48982
17679.5
16941.5
12323.6
12522.9
12310.2
12509.5
11622.7
11778.8
11592.8
11741.3
9799.04
9276.31
9784.75
9290.65
9772.36
9263.03
9792.24
9264.18
9791.37
9266.88
9775.85
9281.8
9771.78
9279.34
9794.27
9264.91
9843.11
9276.18
9769.13
9259.71
9839.31
9282.79
9768.63
9256.9
-8.79364
-6.24615
-6.28119
-6.24471
-6.2904
-5.65754
-5.78477
-5.64707
-5.7609
-9.47478
-5.05963
-4.82245
-5.04207
-4.81224
-5.12365
-4.86058
-5.2356
-4.78035
-5.05005
-4.79956
-5.03255
-4.79394
-5.11624
-4.85058
-5.22917
-4.76592
-4.75442
-4.45088
-4.75797
-4.47018
-4.781
-4.57184
-4.82267
-4.52409
-4.75481
-4.45597
-4.7595
-4.47212
-4.77701
-4.55567
-4.81594
-4.51397
17254.3
16846.4
12148.7
12330.9
12116.2
12333.6
11804.7
12020.8
11766.1
11981.5
9828.49
9253.89
9770.57
9297.77
9879.55
9384.29
9911.59
9354.28
9828.34
9265.08
9771.48
9298.94
9877.38
9391.55
9908.63
9351.33
9830.54
9317.43
9786.73
9357.14
9852.54
9353.1
9798.33
9370.47
9827.93
9323.19
9786.28
9354.27
9850.64
9373.99
9804.45
9369.8
-8.11568
-8.83704
-5.77551
-5.89755
-5.76362
-5.89152
-4.47009
-4.62455
-4.71649
-4.48309
-4.76721
-4.97269
-4.61942
-5.01917
-4.49605
-4.8566
-4.47231
-4.61296
-4.72
-4.49412
-4.77226
-4.96815
-4.61879
-5.01887
-4.50197
-4.86037
-9.47541
-4.82443
-4.57873
-4.8217
-4.56846
-4.8584
-4.53351
-4.81684
-4.56282
-4.81429
-4.55023
-4.85055
-4.51343
-4.62285
-4.36399
-4.58983
-4.3758
-4.61842
-4.37556
-4.59227
-4.37217
16445.2
16427.8
12311.7
12351.3
12322.4
12368.8
11443
11784.9
11439.9
11762
9993.35
9441.02
9928.2
9507.33
10115.5
9650.36
10396.7
9521.93
9988.05
9436.04
9923.76
9494.74
10107.5
9663.75
10397.1
9498.33
9728.69
9290.86
9699.73
9308.37
9811.58
9483.81
9835.86
9434.28
9728.53
9303.51
9702.77
9308.41
9809.33
9487.95
9837.19
9429.29
-8.15006
-5.5779
-5.72536
-5.56146
-5.71357
-8.81798
-5.47535
-5.53223
-5.46318
-5.51811
-4.37206
-4.19982
-4.5979
-4.59386
-4.23457
-4.58275
-4.35095
-4.73471
-4.24251
-4.59839
-4.38239
-4.19425
-4.60167
-4.59151
-4.24033
-4.58306
-4.34855
-4.73182
-4.24157
-4.59687
-9.47319
-4.54405
-4.34551
-4.56057
-4.32941
-4.54249
-4.30223
-4.54416
-4.35367
-4.56166
-4.33221
-4.54459
-4.31023
15428.7
15572.8
15434.5
11821.6
11689.4
11813.3
11691.7
9043.79
9500.07
9636.3
9090.17
9709.91
9957.19
9271.31
10118.2
9137.09
9849.77
9512.5
9090.3
9655.1
9156.94
9732.67
9965.09
9329.6
10132.6
9191.51
9869.24
9879.87
9493.02
9837.12
9526.85
9958.96
9524.81
9874
9490.92
9835.94
9511.19
9949.82
9495.85
9669.94
9357.94
9650.94
9286.43
9671.58
9381.01
9656.16
9297.47
-8.15759
-5.78614
-5.86347
-5.77373
-5.86288
-5.26029
-5.36437
-5.25319
-5.3529
-8.80834
-4.61035
-4.26908
-4.52858
-4.31737
-4.69851
-4.42121
-4.86244
-4.34966
-4.60982
-4.26712
-4.52827
-4.31781
-4.69967
-4.42636
-4.8632
-4.35507
-4.22261
-4.54312
-4.17741
-4.41404
-4.13497
-4.43952
-4.23482
-4.54632
-4.19383
-4.42125
-4.14882
-4.44301
-9.47663
14410.1
14506.3
14465.8
10966.6
10844.1
10946.8
10846.1
11050.5
10987.8
11053.2
10984.7
9268.71
9034.48
9394.74
9549.49
9095.96
9380.72
9184.46
9579.11
9128.6
9427.02
9332.69
9072.72
9569.51
9407.93
9126.81
9393.94
9226.5
9593.34
9161.98
9439.96
9529.06
9332.29
9566.88
9289.16
9557.94
9276.21
9530.32
9342.24
9567.15
9305.7
9564.11
9308.51
-7.50163
-8.13692
-5.4027
-5.44797
-5.3852
-5.44094
-4.09229
-4.13717
-4.34502
-4.16479
-4.44504
-4.54485
-4.30359
-4.75721
-4.21889
-4.5451
-4.11038
-4.14345
-4.35216
-4.17546
-4.44935
-4.55029
-4.30302
-4.75591
-4.22576
-4.54791
-8.80843
-4.40357
-4.05996
-4.40718
-4.07266
-4.40076
-4.03742
-4.40367
-4.06321
-4.40821
-4.07165
-4.40226
-4.04206
-9.48799
13598
13474.8
13323.4
10483.7
10117.1
10481.5
10124.1
10316.2
10201.4
10316.4
10192.7
9443.73
8743.74
9338.45
8821.68
9483.21
8696.97
9586.42
8795.73
9448.37
8767.18
9348.02
8832.25
9488.39
8740.72
9597.37
8807.86
9068.51
9396.89
8933.56
9138.73
8946.17
9133.07
9128.05
9413.69
8964.93
9150.85
8978.55
9144.82
-7.48661
-5.24621
-5.36534
-5.24529
-5.3756
-8.13896
-5.14937
-5.14722
-5.13442
-5.14086
-4.0446
-3.89638
-4.27424
-4.18236
-3.9358
-4.19871
-3.97798
-4.41916
-3.94012
-4.25535
-4.0849
-3.917
-4.2865
-4.18867
-3.94813
-4.20302
-3.98483
-4.42058
-3.95272
-4.2591
-8.81675
-4.25449
-3.98095
-4.26135
-4.01163
-9.50461
13065.8
12635
12257.5
11948.5
9896.7
9385.94
9877.12
9383.74
8132.81
8568.95
8722.82
8117.19
8693.1
9014.34
7869.1
8730.58
8088.57
8711.09
8591.89
8157.49
8732.77
8141.69
8701.79
9024.48
7906.19
8738.55
8112.2
8718.33
9002.74
8752.33
9042.68
8787.39
8971.51
8729.95
9007.65
8772.8
9052.3
8796.53
8976.03
8739.9
-6.9107
-7.4636
-4.89083
-4.9793
-4.88056
-4.984
-8.14891
-4.51303
-3.99565
-4.28161
-4.04589
-4.89655
-4.51153
-3.99262
-4.28363
-4.03877
-4.8837
-3.88722
-4.07574
-3.92955
-4.10685
-3.90536
-4.07102
-3.89892
-4.07978
-3.94485
-4.11192
-3.91618
-4.07504
-8.8282
-9.5262
12923.7
12119.3
11403.2
10864.8
8421.72
8123.55
8419.38
8136.55
9177.77
8731.03
9173.36
8732.04
8298.34
8155.23