/*--------------------------------*- C++ -*----------------------------------*\
| =========                 |                                                 |
| \\      /  F ield         | OpenFOAM: The Open Source CFD Toolbox           |
|  \\    /   O peration     | Version:  5.x                                   |
|   \\  /    A nd           | Web:      www.OpenFOAM.org                      |
|    \\/     M anipulation  |                                                 |
\*---------------------------------------------------------------------------*/
FoamFile
{
    version     2.0;
    format      ascii;
    class       volScalarField;
    location    "2.3";
    object      p_rgh;
}
// * * * * * * * * * * * * * * * * * * * * * * * * * * * * * * * * * * * * * //

dimensions      [1 -1 -2 0 0 0 0];

internalField   nonuniform List<scalar> 
12160
(
5573.13
5615.76
5572.73
5636.33
5615.2
5572.36
5668.27
5635.83
5614.69
5571.17
5701.06
5667.8
5634.91
5612.99
5570.58
5735.73
5700.54
5666.85
5633.38
5611.99
5568.72
5773
5735.13
5699.43
5665.42
5631.57
5609.12
5568.06
5812.97
5772.34
5733.87
5697.81
5663.53
5629.04
5607.56
5565.93
5855.45
5812.3
5770.95
5732
5695.62
5661.19
5626.38
5564.99
2939.65
5899.72
5854.87
5810.89
5768.86
5729.49
5692.91
5658.32
5596.42
3292.57
130.256
5944.45
5899.4
5853.66
5808.73
5766.02
5726.39
5689.63
5640.83
3443.9
143.933
6.26246
5987.76
5944.5
5898.7
5851.78
5805.74
5762.42
5722.6
5670.75
3671.11
151.575
3.72221
0.132978
6027.82
5988.23
5944.59
5897.59
5849.12
5801.83
5757.91
5698.89
3871.65
204.327
1.13436
0.0718117
-0.0245787
6063.4
6028.68
5989.19
5944.69
5895.97
5845.55
5796.78
5728.1
4064.03
298.151
0.354744
0.0237079
-0.0436216
0.0463813
6093.27
6064.47
6030.41
5990.63
5944.75
5893.72
5840.75
5764.14
4250.72
418.61
0.534016
0.0104999
0.00703079
0.0420631
-0.0328453
6117.47
6094.47
6066.69
6033.03
5992.58
5944.75
5890.47
5809.53
4446.86
553.107
1.04307
0.00836379
0.0306766
0.0203173
-0.0443932
6136.28
6118.66
6097
6070.1
6036.61
5995.2
5944.22
5864.05
4667.2
709.394
3.10513
0.0267865
0.0410863
0.00714446
-0.0117414
6150.28
6137.42
6121.26
6100.77
6074.77
6041.55
5997.78
5925.55
4927.5
912.025
6.28441
0.0361887
0.0441184
-0.00071295
0.00831636
6159.85
6151.37
6140.03
6124.95
6105.96
6081.25
6046.71
5988.1
5200.5
1173.09
14.8099
0.0426326
0.0401064
0.00799095
0.0175184
6164.89
6161.09
6154.1
6143.47
6130.12
6112.94
6088.05
6045.39
5438.67
1510.98
35.5396
0.0486334
0.0436741
0.0114516
0.0158669
6165.06
6166.3
6163.74
6157.31
6148.45
6136.54
6120.39
6093.73
5622.77
1907.2
74.6891
0.0677515
0.0338497
0.0137162
0.0131888
6159.63
6166.63
6169.17
6167.38
6162.34
6154.17
6143.72
6130.69
5755.91
2294.97
135.369
0.195124
0.0193417
0.0166246
0.0131858
6148.06
6161.36
6169.83
6173.32
6172.39
6167.56
6160.87
6153.86
5843.68
2613.26
211.02
1.19489
-0.0103623
0.0219681
0.00741961
6130.06
6149.94
6164.85
6174.54
6178.82
6178.06
6174.1
6168.96
5889.2
2831.05
285.119
3.39748
-0.0341917
0.0229584
-0.000971957
6105.85
6131.92
6153.78
6170.13
6180.83
6185.4
6184.76
6180.68
5913.71
2954.8
340.615
6.36452
-0.0411972
0.0028508
-0.0134393
6075.93
6107.58
6135.71
6159.42
6177.24
6188.54
6192.87
6191.29
5935.13
3026.93
375.498
8.94664
-0.034928
-0.0202135
-0.0135283
6041.26
6077.43
6111.11
6141.37
6167.06
6186.11
6197.45
6199.62
5953.17
3091.71
396.996
10.4661
-0.0176127
-0.0327401
-0.0109699
6003.08
6042.45
6080.49
6116.4
6149.09
6176.72
6196.73
6205.36
5949.13
3183.82
418.009
11.1445
-0.00011804
-0.0321397
-0.010826
5962.69
6003.91
6044.87
6085.05
6123.62
6158.93
6188.45
6205.66
5951.22
3335.23
446.882
12.3893
0.0139676
-0.0254575
-0.010277
5921.3
5963.16
6005.63
6048.46
6091.27
6132.81
6171.03
6197.66
5952.63
3475.44
463.68
15.6697
0.0317524
-0.015832
-0.00829292
5879.99
5921.43
5964.14
6008.11
6053.31
6099.12
6144.12
6179.93
5939.17
3561.1
476.436
20.7219
0.0603058
-0.00809786
-0.00770091
5839.62
5879.8
5921.74
5965.51
6011.44
6059.33
6108.69
6151.15
5902.11
3566.02
478.072
25.1829
0.115292
-0.00182468
-0.0103305
5800.87
5839.1
5879.51
5922.06
5967.31
6015.47
6066.5
6112.41
5835.58
3471.16
463.298
28.1752
0.216489
-0.0298618
-0.0245878
5764.18
5799.98
5838.32
5878.88
5922.47
5969.34
6019.72
6065.36
5735.72
3266.55
426.155
28.5496
0.372118
-0.0497119
-0.0147974
5730.16
5763.15
5798.81
5836.73
5878.15
5922.74
5971.04
6012.07
5601.89
2964.71
366.109
25.978
0.480701
-0.0659875
-0.0162709
5699.14
5728.9
5761.31
5796.17
5835.06
5876.9
5922.52
5955.71
5439.26
2596.19
296.719
21.7109
0.436502
-0.0762695
-0.0215175
5671.2
5697.7
5726.6
5758.06
5793.64
5832.36
5875.46
5899.46
5257.17
2194.73
229.462
16.6643
0.339081
-0.0810138
-0.029337
5646.31
5669.65
5694.98
5722.64
5754.13
5789.29
5829.69
5844.81
5066.49
1797.19
170.111
11.6452
0.200245
-0.0773907
-0.03597
5624.4
5644.72
5666.67
5690.53
5717.63
5748.51
5784.89
5789.18
4873.38
1439.39
120.764
7.45695
0.072212
-0.0673748
-0.0352283
5605.22
5622.82
5641.64
5661.9
5684.67
5710.68
5741.63
5729.11
4648.99
1143.84
84.0937
4.12708
0.00917892
-0.0527143
-0.030642
5603.68
5577.64
5619.76
5636.74
5655.56
5676.73
5701.63
5664.49
4373.73
915.719
59.4048
1.80426
-0.0162082
-0.030469
-0.0256625
5600.74
5576.27
5549.91
5614.9
5630.24
5647.05
5666.04
5596.38
4062.47
730.145
42.8393
0.690481
-0.0205206
0.000336679
-0.025008
5596.05
5573.65
5548.85
5531.68
5608.48
5621.57
5635.27
5530.33
3761.65
585.429
31.0217
0.314964
-0.0117215
0.0114836
-0.0299914
5589.89
5569.49
5546.82
5531.05
5516.05
5599.93
5609.12
5471.23
3501.49
489.772
22.9198
0.181112
0.00137783
0.00992801
-0.0236182
5581.68
5564.05
5543.61
5529.81
5515.58
5503.94
5587.01
5420.58
3289.75
428.797
17.4276
0.154083
0.0179431
0.00732582
-0.0150099
5568.46
5556.88
5539.43
5527.71
5515.08
5504.22
5491.32
5376.86
3120.46
390.505
13.383
0.167597
0.0329274
0.00386815
-0.00498151
5342.47
5543.43
5533.82
5524.9
5514.03
5505.26
5490.86
5475.14
2984.62
364.021
10.6499
0.166938
0.0454566
0.00875199
0.00372632
2877.63
5302.88
5520.31
5520.79
5512.96
5505.46
5492.17
5475.76
5449.95
343.72
8.92052
0.15312
0.0557305
0.018484
0.00919726
325.724
2743.19
5262.92
5507.37
5510.5
5506.61
5493.1
5475.82
5443.82
5435.31
7.70683
0.13934
0.0618902
0.0270811
0.0110652
6.63093
303.662
2638.47
5235.62
5496.36
5506.6
5496.87
5477.35
5441.33
5427.93
5361.4
0.128673
0.0646082
0.0326264
0.0129892
0.123188
5.778
297.933
2582.8
5207.63
5490.93
5498.89
5480.94
5436.83
5413.06
5347.7
5510.28
0.0677611
0.0363979
0.0137522
0.0734784
0.13047
6.32264
297.238
2563.71
5192.17
5468.19
5483.22
5436.44
5371.87
5332.37
5464.42
4952.59
5114.23
0.0400673
0.0138263
0.044653
0.0860782
0.180801
7.31543
314.636
2583.41
5164.41
5421.25
5435.18
5336.98
5278.83
5401.67
5041.33
4637.76
4726.79
4692.67
0.0142818
0.0155317
0.0538311
0.125403
0.302874
10.4422
333.641
2653.99
5085.32
5356.36
5338.44
5251.59
5304.57
5095.21
4852.69
4433.94
4381.02
4419.63
4351.73
0.0188991
0.079956
0.205582
0.612245
20.8417
372.086
2695.48
4727.54
5313.45
5234.28
5212.2
5163.28
5045.47
4661.16
4234.66
4158.85
4124.57
4135.45
4097.96
0.0286631
0.129179
0.323409
4.44701
48.7774
426.133
2591.65
4515.98
5273.49
5231.34
5260.53
5204.23
4857.74
4492.32
4056.83
3923.25
3863
3860.78
3901.38
3972.83
0.0458828
0.177388
0.899591
16.1991
63.6614
530.076
1687.45
4900.54
5363.14
5397.79
5354.56
5076.57
4699.54
4345.18
3880.47
3693.54
3581.18
3558.55
3623.65
3777.04
3999.83
0.0581091
0.0821198
5.59361
19.0459
61.6267
274.098
1405.44
5393.71
5523.4
5501.83
5312.23
4941.83
4565.37
4200.99
2820.15
3467.61
2824.53
3070.52
3073.6
3290.88
3214.78
3264.42
3458.05
3785.62
4195.52
-0.015753
0.826833
8.64358
8.56139
27.308
74.2697
2823.54
5643.7
5643.14
5540.04
5204.49
4808.25
4465.4
4054.76
2560.92
2754.98
2979.67
2566.25
2316.18
2320.82
2757.03
2966.84
2968.28
2819.88
2826.13
3025.87
3419.01
3955.45
4553.43
-0.149843
2.28983
4.52301
1.82224
6.76325
56.0914
4254.49
5774.77
5721.41
5473.25
5077.65
4703.54
4339.54
3184.66
3181.84
3370.86
3372.08
2500.72
2721.97
2377.29
2741.77
2502.83
2236.81
2239.25
2713.53
2967.2
2959.41
2302.12
2481.58
2911.94
3542.16
4295.61
5047.49
-0.172553
1.9112
0.819318
0.719845
2.53166
169.622
5135.77
5848.43
5712.83
5354.74
4961.76
4602.9
3544.02
3544.93
3723.02
3723.85
3124.35
3120.93
3331.36
3326.93
2456.96
2478.15
2200.24
2345.11
2327.74
1720.93
2027.97
1547.64
1549.33
1888.96
1886.07
2448.22
2186.59
2178.82
2475.44
2199.53
2341.17
2327.26
2623.42
2547.81
2762.95
2451.12
2619.95
2548.51
2759.33
2447.94
1810.7
2267.63
2963.82
3838.18
4783.93
5639.46
-0.0233383
0.470569
0.367932
0.514365
1.70493
362.304
5722.34
5855.61
5586.1
5215.3
4854.13
3894.88
3895.49
4076.07
4076.59
3522.61
3516.23
3697.86
3689.45
2687.85
2590.37
2772.86
2768.8
2884.97
2683.67
2589.93
2689.91
2773.13
2769.98
2884.81
2683.23
2995.59
3123.41
2884.74
3011.46
2995.47
3122.76
2884.62
3010.81
2064.44
2065.34
2211.21
1915.11
2410.12
2249.02
2279.4
2376.42
1061.17
1212.27
763.22
764.904
1170.01
1171.84
1490.41
1484.85
1823.35
1819.07
2061.77
2065.02
2207.31
1913.82
1942.93
1603.17
1838.07
1770.79
1940.07
1606.18
1834.51
1769.78
2411.25
2253.23
2280.3
2381.59
2566.37
2497.5
2565.75
2497.42
1447.38
2235.81
3200.87
4300.55
5380.2
6262.44
-0.134075
0.181764
0.293747
0.339798
1.25614
752.694
5669.69
5734.84
5441.74
5091.09
4237.42
4237.53
4407.37
4407.9
3873.5
3865.8
4051.38
4043.82
3088.61
3212.07
3182.78
3309.27
3090.73
3212.06
3189.01
3309.84
3378.74
3498.95
3284.5
3407.48
3384.42
3499.31
3289.48
3407.72
2621.16
2698.62
2779.7
2664.29
2814
2879.86
2623.7
2700.72
2664.94
2779.86
2814.52
2879.98
3032.6
3084.23
2928.02
2987.81
3034.73
3084.81
2928.24
2987.94
2009.94
2117.27
2146.82
1976.82
2404
2235.49
2268.27
2373.28
505.85
331.962
-111.454
-110.251
328.096
328.958
691.963
681.252
1105.45
1097.17
936.33
1084.6
1125.5
1272.61
939.367
1086
1127.82
1273.83
1467.19
1637.52
1568.8
1299.68
1436.24
1738.53
1470.3
1638.84
1569.44
1301.41
1436.41
1738.79
2010.52
2119.92
2147.21
1979.93
1869.21
1802.08
1870.15
1805.49
2404.35
2238.38
2269.29
2371.95
2544.67
2498.03
2544.01
2496.24
1310.47
2408.89
3620.98
4896.29
6027.76
6847.53
-0.0666819
0.139767
0.206779
0.259697
1.28674
609.389
5195.29
5569.63
5285.74
4567.8
4568.29
4722.68
4722.55
4206.11
4202
4363.99
4363.27
3480.52
3599.71
3581.21
3702.78
3483.07
3599.18
3585.19
3701.98
3760.21
3927.8
3683.96
3806.99
3759.63
3925.37
3684.76
3805.33
3134.65
3185.37
3234.99
3275.03
3138.84
3186.6
3239.81
3276.89
3427.03
3451.96
3328.97
3357.56
3432.09
3453.68
3331.44
3358.92
1996.81
2108.49
2137.65
1970.08
213.827
-472.677
-980.573
-978.475
-555.45
-554.541
-204.777
-215.411
262.527
251.56
139.436
290.205
345.97
491.492
146.939
290.766
352.788
492.091
739.317
876.882
539.252
682.017
743.603
877.59
548.027
683.121
996.31
1038.73
1172.37
1213.73
1001.64
1041.63
1175.03
1216.33
1617.81
1462.81
1532.47
1672.54
1325.25
1370.74
1623.83
1465.76
1532.79
1674.97
1327.46
1371.94
1997.24
2111.65
2138.78
1970.85
1856.91
1807.54
1858.45
1812.24
1430.12
2781.09
4210
5571.01
6646.47
7358.41
-0.0348418
0.0956243
0.14476
0.218908
2.20419
266.279
4134.16
5265.68
5092.77
4515.68
4515.46
4644.48
4644.3
4157.05
4155.04
4335.31
4332.15
3529.38
3555.82
3627.72
3656.95
3532.66
3557.21
3630.66
3658.1
3780.79
3861.43
3715.58
3753.64
3780.87
3861.13
3716.92
3754.11
3451.18
3483.54
3458.38
3485.77
310.411
-878.608
-1660.26
-1657.54
-1366.4
-1364.55
-1078.45
-1080.77
-647.706
-655.225
-752.871
-540.11
-493.394
-331.676
-752.058
-542.715
-489.979
-332.764
-53.3235
94.0005
-276.842
-124.33
-50.5239
93.1467
-271.309
-124.891
244.499
270.827
441.451
469.2
249.336
272.68
442.918
470.368
799.77
848.441
618.533
657.632
806.48
850.858
623.108
659.491
1783.77
3362.66
4892.43
6238.4
7191.01
7789.89
-0.030197
0.0714749
0.0950099
0.195773
1.48335
82.06
2557.63
4731.32
4738.02
4738.62
4807.43
4807.66
4496.51
4491.91
4616.44
4617.22
4065.39
3896.3
3963.84
3980.73
4065.13
3894.94
3963.61
3980.64
4161.1
4160.53
4252.07
4073.16
4160.49
4163.35
4251.18
4073.5
3544.26
3569.56
3629.34
3654.18
3548.77
3571.24
3633.41
3655.75
3809.35
3836.59
3717.28
3745.65
3812.57
3837.67
3719.87
3746.82
693.538
-733.093
-1586.13
-1754.03
-1751.06
-1477.22
-1481.13
-1082.37
-1088.41
-653.523
-660.152
-671.404
-545.693
-413.2
-352.459
-669.891
-545.768
-410.611
-351.601
25.9038
54.5296
-185.803
-152.236
28.4396
55.6562
-182.334
-150.917
205.683
238.372
211.883
240.554
2373.58
4045.72
5599.27
6827.57
7639.59
7935.78
-0.0246785
0.0614761
0.1313
0.202902
1.13082
17.9723
1056.05
3604.13
4709.15
4706.69
4642.31
4641.17
4244.49
4332.94
4440.23
4313.64
4246.63
4331.9
4437.48
4313.39
4599.68
4595.72
4034.73
3928.57
3953.75
4014.45
4034.91
3930
3954.06
4014.62
4127.21
4191.8
4216.24
4105.56
4127.47
4192.63
4216.55
4106.8
3836.08
3865.3
3841.07
3866.56
1314.92
-230.457
-1330.01
-2234.01
-2230.6
-2080.58
-2081.03
-1822.27
-1823.03
-1471.88
-1481.95
-1124.95
-1474.74
-1331.39
-1256.64
-1125.34
-1463.91
-1329.91
-1254.76
-923.503
-847.456
-758.779
-1047.75
-924.636
-849.581
-759.571
-1049.32
-592.588
-545.314
-373.61
-336.186
-588.654
-544.246
-371.579
-335.097
32.7886
59.0946
-164.849
-140.131
37.5169
60.7482
-161.194
-138.866
3091.12
4767.86
6248.35
7314.11
7806.23
-0.0118727
0.0816151
0.198251
0.233952
0.772437
7.87086
304.628
3216.22
3216.27
2067.54
2066.62
4529.13
4609.59
4534.51
4676.95
4529.39
4609.28
4535.51
4675.83
4633.91
4634.97
4265.25
4294.27
4381.36
4316.55
4265.79
4294.31
4380.44
4316.74
4480.58
4544.01
4405.28
4451.53
4482.96
4544.75
4405.98
4451.65
4154.65
4191.76
4216.76
4121.18
4154.8
4195.7
4217.9
4123.01
2101.3
467.199
-579.352
-1232.38
-2037.92
-2043.44
-1912.64
-1922.12
-1616.84
-1628.95
-1663.21
-1515.04
-1590.83
-1828.24
-1658.63
-1515.16
-1595.59
-1834.92
-1054.2
-1314.97
-1266.42
-1097.39
-1053.51
-1308.76
-1264.35
-1094.92
-872.846
-761.967
-725.908
-912.837
-872.821
-758.553
-724.961
-913.069
-600.56
-560.794
-593.687
-559.053
3836.19
5471.7
6775.76
7481.39
0.0124711
0.114859
0.249382
0.344047
1.1203
6.88601
193.54
193.661
36.2971
36.3046
2908.63
2910.7
1295.15
1295.06
4520.7
4579.02
4510.85
4639.52
4519.98
4578.6
4511
4639.25
4696.42
3636.58
4502.96
4070.58
4696.65
3633.53
4504.97
4067.55
4269.55
4289.87
4364.77
4344.08
4270.72
4290.37
4365.01
4344.95
4499.86
4521.03
4432.07
4442.93
4501.49
4521.01
4433.34
4443.77
2892.49
1343.46
247.908
-219.654
-1424.21
-1422.12
-1610.42
-1613.07
-1642.03
-1642.86
-1966.03
-1842.5
-2134.81
-1863.88
-1957
-1839.31
-2123.86
-1861.86
-1830.73
-1705.37
-1681.8
-1578.63
-1713.59
-1517.88
-1813.93
-1700.87
-1669.81
-1574.83
-1710
-1518.06
-1511.8
-1424.49
-1506.55
-1422.6
-1049.48
-1241.98
-1186.14
-1107.73
-1048.42
-1231.94
-1183.45
-1103.2
4582.6
6011.54
6940.29
0.0377748
0.162939
0.262211
0.783365
1.49028
34.3767
126.345
126.011
42.3064
42.2975
2488.62
3511.25
2364.98
1871.99
2560.14
4558.03
3509.96
2485.91
4559.44
2367.47
1864.92
2564.64
753.337
802.799
943.424
1153.82
743.386
805.151
936.237
1155.02
4523.37
4576.82
4536.83
4628.01
4523.7
4576.93
4537.59
4628.45
4701.79
3829.69
4702.2
3826.67
4386.14
4372.51
4386.74
4373.89
4503.66
4536.21
4505.38
4536.4
3681.32
2184.57
1234.62
739.1
-850.151
-846.5
-1163.18
-1164.67
-948.668
-953.265
-1090.62
-1090.5
-1550.22
-1840.9
-1474.35
-1708.59
-1664.42
-1923.39
-1546.63
-1822.12
-1469.76
-1700.3
-1662.64
-1916.61
-1762.06
-1665
-1755.99
-1662.43
-1601.43
-1537.71
-1537.62
-1516.92
-1480.99
-1434.59
-1590.16
-1534.16
-1528.44
-1504.27
-1477.44
-1430.72
-1379.93
-1314.78
-1368.38
-1311.02
5162.56
6248.11
0.0582428
0.245277
0.267794
1.30644
14.5516
55.3313
55.463
45.5318
45.4593
256.757
255.36
117.675
117.518
3136.02
1885.79
1380.1
3355.86
1263.43
974.259
3135.17
1879.06
3359.1
1383.89
1255.64
978.286
573.416
366.546
955.228
708.434
565.663
365.51
948.791
710.602
4346.58
4656.2
4345.68
4656.62
4302.07
3032.14
2113.59
1725.6
1622.62
-449.57
-452.611
-719.129
-732.628
-1350.26
-872.751
-1291.32
-1045.55
-1326.04
-868.369
-1275.31
-1040.06
-1327.82
-1528.28
-1151.79
-1317.54
-1108.78
-1282.99
-1317.73
-1520.01
-1148.04
-1295.86
-1102.42
-1280.23
-1386.59
-1521.98
-1455.07
-1587.41
-1384.99
-1519.6
-1452.42
-1581.57
-1547.86
-1495.19
-1540.25
-1492.1
-1492.63
-1427.03
-1441.84
-1377.97
-1480.01
-1423.09
-1429.99
-1373.9
5444.52
0.0712143
0.337094
0.435536
3.30935
42.6191
412.146
408.719
148.363
147.92
303.974
602.672
543.581
497.612
312.991
595.342
551.305
489.106
660.24
656.507
675.833
779.379
829.898
720.741
668.299
779.976
824.548
723.053
4613.34
3714.82
2914.21
2610.28
2573
528.564
541.476
209.552
209.861
-45.9149
-44.2618
-253.705
-260.267
-1030.78
-714.426
-928.436
-857.744
-1013.65
-709.117
-916.098
-852.706
-1280.5
-1080.67
-1193.21
-1003.87
-1001.24
-950.222
-1270.82
-1073.57
-1001.5
-1189.94
-991.981
-946.494
-1390.12
-1428.34
-1387.95
-1422.63
0.0738513
0.300687
0.603433
10.0078
87.791
87.8199
53.0664
52.7558
869.559
867.355
304.108
302.372
925.094
926.435
1260.7
1108.77
924.389
921.596
1263.3
1105.98
1376.07
1105.92
1537.74
1771.51
1377.67
1094.83
1543.12
1765.92
855.145
1575.34
850.411
1578.33
4038.37
3701.25
3387.74
3465.57
3463.02
854.593
854.09
721.444
706.856
499.596
488.802
-242.636
-743.39
-470.891
-796.184
-244.214
-738.868
-468.498
-796.566
-717.689
-609.013
-743.456
-673.428
-697.21
-602.355
-727.671
-667.755
0.107473
0.126851
1.30279
44.2828
379.174
380.506
157.252
157.445
1709.32
1492.7
1029.3
1763.46
1497.04
1385.8
1710.77
1485.55
1029.12
1762.49
1502.27
1388.02
734.124
735.355
1895.15
1291.29
1872.07
1413.11
1895.08
1293.02
1872.14
1417.81
1683.41
1950.4
1684.52
1950.43
4059.6
4062
4227.91
4412.88
1789.99
1804.96
1428.82
1430.62
1145.11
1159.32
1154.71
1139.88
-307.887
308.787
-206.977
92.0878
-505.102
-119.669
-275.605
312.065
-191.062
97.0748
-500.826
-118.538
-434.386
-328.09
-421.396
-323.826
-504.84
-429.751
-483.888
-423.822
-0.00825347
0.01242
14.7239
124.371
127.797
84.9606
83.6617
862.394
860.573
216.082
218.232
1747.28
1749.12
1913.89
1702.83
2039.93
1509.89
1746.42
1751.18
1923.8
1693.17
2040.11
1506.16
926.227
1691.94
1389.58
2118.52
923.356
1704.09
1383.3
2118.63
4557.61
4833.84
5214.17
5370.25
2488.38
2493.45
2200.79
2180.84
1928.56
1920.22
-15.6439
378.059
883.81
299.774
602.818
382.289
877.01
305.339
603.645
383.204
-3.20159
381.156
49.3795
-210.605
207.711
-65.6638
53.924
-194.294
208.768
-61.2532
-291.714
-190.401
-275.08
-186.282
-0.0967451
1.05026
101.723
189.702
197.471
173.898
178.422
1023.59
2169
545.559
545.561
1164.92
220.631
1017.11
2169.56
538.396
537.823
1141.21
219.231
202.638
211.082
2092.12
1558.46
2092.17
1548.88
1258.09
2076.28
1250.28
2081.7
5249.75
5781.62
6028.34
3536.9
3540.76
3611.77
3604.41
3550.67
3547.41
3330.16
3320.77
2002.83
1199.27
1387.76
1057.23
849.513
859.098
2108.67
859.483
860.43
1218.21
1422.42
1069.54
299.556
444.653
648.708
669.706
664.245
312.278
674.529
447.696
-0.767801
7.49221
206.423
211.987
221.626
193.521
207.309
792.046
1236.66
234.457
234.554
195.747
203.167
786.054
1222.17
236.939
236.705
197.741
211.618
205.069
211.87
224.413
314.394
213.269
213.041
233.877
350.209
984.677
903.369
981.441
903.423
6093
6573.88
6534.24
4707.02
4626.15
5703.99
5635.18
6049.68
6028.36
2927.61
1640.75
1806.73
3973.44
2162.09
4907.73
2978.11
1671.54
1794.6
3980.25
2183.34
4893.12
2344.1
1327.85
1685.04
852.61
1344.93
858.175
2367.18
1704.67
-0.181477
134.937
29.2783
123.332
143.237
42.5342
15.0137
23.0469
304.394
274.15
192.478
303.118
273.635
192.192
311.927
174.509
447.775
224.744
240.206
252.84
313.269
174.494
449.78
232.771
257.542
266.037
259.654
191.846
259.384
191.971
6846.5
6907.11
6419.17
5387.06
5248.1
7320.21
7251.83
6443.62
5734.46
6558.68
6455.35
5764.61
3713.97
6465.46
5757.29
3711.89
5737.37
6579.84
6527.32
3537.03
2800.08
5020.75
3578.86
3569
2847.54
5040.66
3590.45
3165.39
3079.11
3188.33
3113.68
29.096
16.3631
77.7222
8.26457
72.7224
11.6054
4.1047
6.85116
385.098
429.768
607.368
409.314
189.509
683.437
251.239
163.006
416.268
350.841
654.873
399.512
191.198
761.762
212.587
158.498
301.624
272.987
320.561
277.482
368.156
259.133
364.244
253.489
7140.88
6699.58
2819.65
6110.1
5958.53
2835.43
2622.37
2605.83
7765.41
6539.92
6366.15
7765.34
6561.75
6428.41
6176.49
6703.53
5438.59
6806.98
6190.09
5592.37
6710.77
6824.67
4505.13
4426.26
5895.78
5170.91
4526.51
4435.94
5928.8
5185.33
4.30774
1.14089
27.0048
194.1
131.347
2.40818
23.557
175.993
121.642
2.38811
3.50339
3.32678
433.103
302.582
399.097
782.779
1046.43
594.004
405.629
400.277
274.3
785.637
1063.37
684.367
348.086
284.559
350.223
287.721
6998.02
6693.83
2861.17
3788.87
3638.01
2864.54
2734.69
2719.9
6390.32
6503.84
5848.34
6476.77
5859.19
5262
6266.69
4090.98
6384.67
6553.92
5855.36
6540.47
5863.09
5293.38
6153.6
4085.9
6662.27
6650.94
6247.32
5889.65
6671.91
6646.34
6708.84
6000.87
-1.66092
1.96591
2.50081
2.47639
1.96169
1.88479
1.87156
3.3183
211.934
48.3662
104.507
96.0084
3.42732
5.97758
6.64251
2.15228
3.19377
2.86387
3.36091
169.879
57.713
66.1719
98.8398
2.99026
6.57703
7.44912
2.15744
3.17444
2.86408
474.96
230.331
1040.3
464.775
429.763
237.504
1067.62
329.581
6963.39
6849.52
2998.21
2759.7
1653.84
3539.46
2738.26
1626.53
3432.29
2982.39
2822
2780.08
6632.63
5158.7
6646.2
5808.98
5850.97
3067.73
6658.31
5055.76
6664.22
6311.9
5863.78
3075.65
6659.33
6092.63
6671.27
6578.43
-0.675781
2.01147
2.07144
2.02439
2.07
2.02823
2.01383
93.8949
9.82422
5.92694
113.399
3.84132
3.34081
3.14576
3.18475
2.96135
3.1683
2.89484
2.79863
3.12371
2.67444
110.025
10.7993
101.328
10.3732
3.77907
3.58268
3.17219
3.15089
2.95749
3.14477
2.89149
2.80079
3.12701
2.67883
7031.11
3124
3062.96
3028.83
3167.67
3160.07
3154.49
691.72
1089.04
1759.71
1199.58
2478.5
1310.98
908.721
1357.47
740.492
1093.25
1752.97
1203.28
2422.36
1331.35
932.715
1361.75
2725.55
886.077
1446.96
2712.77
919.915
1465.26
6330.25
3254.89
4820.89
1675.82
6318.96
3162.02
4835.57
1670.85
-0.198352
2.08929
2.81295
3.0897
2.17691
2.11149
2.81794
3.10263
2.17446
2.15308
2.13567
3.79908
4.18705
3.36921
3.10234
3.23227
3.14161
3.2603
2.9893
3.02411
2.87665
3.74161
4.44901
3.36015
3.12606
3.21762
3.24423
3.15527
2.98059
3.01926
2.88291
7108.77
3263.86
3065.88
3031.69
3291.91
3179.59
3164.13
2141.66
1233.95
1526.37
1272.35
1060.86
1523.08
2156.28
1261.23
1530.89
1275.31
1070.18
1523.52
1089.53
1019.74
1488.75
894.375
1408.74
1617.19
1001.27
1658.05
1101.76
1042.94
1499.64
942.319
1425.12
1622.54
1012.62
1657.86
-0.0697971
2.2553
2.23653
2.21029
2.887
3.10829
2.92628
3.0979
2.27841
2.22312
2.89422
3.12987
2.93107
3.11639
2.26638
3.28016
3.25533
3.11639
3.01426
3.02256
2.91394
3.25957
3.25496
3.13095
3.007
3.02241
2.92036
7326.46
3247.07
3158.98
1661.56
1102.9
3113.81
1656.77
1092.87
3273.12
3249.08
3237.88
1077.42
1418.53
1032.72
1554.7
1090.69
1414.83
1028.73
1553.36
1237.45
1309.82
1166.72
1518.49
1760.66
1786.03
1256.16
1289.26
1164.92
1758.94
1525.14
1778.82
-0.0371988
2.30955
2.31513
2.28818
2.2946
2.33406
3.00027
3.1395
2.95635
3.19363
3.12762
2.95034
2.35473
2.32955
2.99152
3.14817
2.94993
3.20021
3.14397
2.95231
2.33344
3.23546
3.03743
3.23775
3.03676
7475.88
3283.07
3306.31
3192.01
1577.83
1191.3
1621.96
1148.4
3154.5
1573.06
1179.5
1615.93
1134.19
3295.68
3285.31
1338.04
1179.28
1394.56
1662.58
1619.09
1766.43
1363.5
1189.57
1375.69
1620.84
1667.38
1761.19
-0.015267
2.30959
2.3239
2.29035
2.30511
2.35517
2.34122
2.50035
2.99954
3.30791
3.06688
3.23264
3.01805
3.167
2.98429
3.23066
3.23658
3.07846
2.46093
3.00191
3.28901
3.05009
3.23015
3.00545
3.17529
2.97484
3.23287
3.23848
3.07305
7688.16
3317.38
3357.27
3340.89
3395.54
3197.19
1627.78
1191.48
1643.41
1194.88
1398.39
1770.44
3157.27
1622.89
1195.76
1638.99
1188.82
1393.41
1768.16
3387.85
3381.94
1392.95
1692.44
1416.36
1696.49
0.00811176
2.30893
2.29141
2.29406
2.27773
2.34298
2.35604
2.33742
2.35205
2.51832
2.48778
3.48744
3.40825
3.28398
3.43786
2.96331
3.34152
3.05362
3.25194
3.10269
3.25515
3.10168
3.30934
3.42628
3.35982
3.20618
3.36985
2.96456
3.31626
3.04
3.25621
3.10294
3.2532
3.09504
3.30814
7999.27
3417.94
3518.22
3452.35
3543.7
3432.95
3438.66
3257.67
1638.24
1184.42
1671.28
1195.03
1790.88
1406.64
1790.99
1413.93
1414.45
1726.21
3222.69
1636.15
1188.76
1670.34
1190.76
1790.26
1416.62
1791.78
1417.57
1441.63
1731.39
-0.0165881
2.22179
2.2023
2.21334
2.18873
2.35052
2.32496
2.34616
2.32464
2.39392
2.39531
2.39625
2.40403
3.50261
3.40279
3.42102
3.51
3.50047
3.38768
3.28391
3.39861
3.47781
3.40668
3.2575
3.48478
3.4055
3.35559
3.18987
3.38117
8108.46
3650.08
3784.42
3668.7
3799.66
3466.05
3513.1
3472.42
3509.94
3385.02
3346.8
1686.1
1173.63
1691.7
1187.83
1854.36
1404.55
1863.81
1432.54
1767.74
1439.67
1777.93
1414.61
1682.99
1185.09
1690.8
1185.28
1851.99
1419.86
1866.51
1429.98
1769.54
1468.35
1783.22
1431.66
0.11872
-0.0218824
2.30475
2.24869
2.30756
2.24525
2.38772
2.34301
2.39921
2.36253
3.09367
3.34816
3.1545
3.34196
3.07518
3.35249
3.09068
3.32685
3.10134
3.34362
3.13804
3.33925
3.0784
3.35005
3.0941
3.32761
3.49797
3.41844
3.41886
3.57544
3.48006
3.40539
3.28683
3.42027
8376.49
3895.74
4059.66
3905.49
4072.67
3575.03
3723.53
3569.45
3715.52
3420.07
3374.01
3387.97
3352.44
1728.1
1268.64
1779.4
1225.35
1714.06
1255.02
1764.21
1210.73
1861.36
1344.54
1836.91
1326.14
1859.41
1357.86
1840.52
1325.97
0.0704099
2.21441
2.12625
2.22675
2.13597
0.0032867
2.29024
2.24207
2.31494
2.26248
3.06772
3.35
3.09376
3.31718
3.04518
3.2439
3.02066
3.28619
3.07159
3.34835
3.09796
3.31781
3.04991
3.2568
3.0276
3.29085
3.07034
3.39585
3.1577
3.40302
3.05057
3.41241
3.0848
3.39751
3.06986
3.38883
3.12255
3.38997
3.05186
3.40479
3.08365
3.39054
8296.38
8172.52
3733.27
3916.78
3721.22
3903.92
3388.97
3543.18
3363.19
3513.34
1800.81
1304.38
1783.96
1339.17
1767.65
1303.73
1794
1334.73
1797.65
1305.13
1780.02
1342.45
1767.14
1326.37
1796.04
1346.38
1957.83
1416.72
1880.34
1395.89
1953.86
1427.48
1879.61
1395.55
0.02918
2.06731
2.03824
2.06874
2.02904
2.29118
2.17287
2.30161
2.19665
0.007171
2.97532
3.21718
2.99767
3.22275
2.90924
3.17462
2.79973
3.25257
2.98484
3.24005
3.00714
3.24092
2.91658
3.18455
2.80607
3.26686
3.09843
3.40691
3.09978
3.38267
3.08171
3.30401
3.05323
3.33859
3.09805
3.40173
3.0982
3.38075
3.08571
3.32024
3.05997
3.34875
7828.85
8061.35
3852.82
4029.95
3821.57
4033.57
3534.78
3730.88
3496.75
3692.41
1825.23
1279.45
1775.06
1323.78
1861.16
1398.22
1888.81
1378.04
1825.1
1294.6
1776.04
1331.14
1859.19
1413.88
1886.12
1384.83
1956.44
1472.35
1902.35
1538.13
1990.54
1533.87
1938.4
1571.29
1953.9
1481.56
1902.16
1540.43
1989.38
1565.65
1946.61
1581.24
0.055195
-0.0117729
2.19564
2.08508
2.20746
2.09122
3.21283
3.22906
2.96645
3.19869
2.91464
2.88098
3.07839
2.67878
3.19148
2.83099
3.21062
3.24063
2.96294
3.18767
2.90956
2.88549
3.07892
2.67897
3.18554
2.82719
0.00707304
3.03018
3.28963
3.04672
3.28608
2.9908
3.31563
3.03777
3.30557
3.05413
3.30434
2.99864
3.33571
3.14627
3.39632
3.17051
3.3933
3.15071
3.3848
3.16808
3.39696
6982.96
7632.72
4003.75
4038
4014.78
4056.06
3496.89
3831.08
3494.4
3808.27
1959.68
1444.77
1895.99
1483.95
2082.7
1618.9
2361.41
1493.76
1953.84
1439.09
1890.46
1470.77
2074.68
1633.87
2361.81
1470.63
1881.9
1465.38
1848.25
1488.04
1955.85
1659.01
1971.32
1614.07
1882.89
1485.58
1854.28
1494.32
1953.87
1671.74
1976.69
1616.94
0.0221499
2.07672
1.95412
2.09289
1.96591
0.00924564
2.14996
2.10658
2.16209
2.12065
3.3062
3.35188
3.08038
2.95785
3.28927
2.94109
3.17448
2.79075
3.27236
2.91649
3.2959
3.35747
3.07661
2.96021
3.28355
2.94081
3.17692
2.79365
3.27333
2.91802
0.00954829
3.16364
3.39143
3.17639
3.37826
3.14196
3.38219
3.16354
3.3833
3.17531
3.37549
3.13986
3.37422
5950.15
6763.95
7279.99
3857.38
3714.44
3848.75
3716.7
1368.74
1651.76
1953.36
1417.77
2028.06
2103.53
1590.1
2420.46
1459.93
2162.17
1665.1
1415.52
1972.15
1484.39
2050.85
2111.44
1648.47
2435.04
1514.36
2181.68
2028.17
1661.45
1981.12
1684.84
2110.02
1681.13
2023.92
1662.81
1984.34
1670.55
2101.03
1653.01
1904.97
1641.32
1895.69
1556.56
1906.73
1676.17
1906.71
1576.9
0.0247201
1.90921
1.8312
1.92161
1.83245
2.04638
1.96231
2.05335
1.97256
0.0196441
2.76268
3.09881
2.83933
3.05578
2.679
2.96137
2.52013
3.02796
2.76321
3.10083
2.83966
3.05535
2.67784
2.9562
2.51932
3.02253
3.3508
3.03029
3.20299
2.96638
3.2678
2.96325
3.33861
3.0271
3.18663
2.95919
3.25398
2.95978
0.00625133
4928.09
5684.62
6302.1
3326.93
3189.22
3306.52
3191.23
3444.85
3363
3447.19
3359.84
1595.52
1492.8
1843.04
1871.2
1591.53
1856.9
1684.88
2053.98
1636.77
1912.27
1660.29
1532.22
1891.22
1856.21
1625.96
1870.09
1727.9
2068.25
1672.96
1925.2
1824.53
1628.47
1835.84
1592.97
1873.68
1596.7
1838.29
1648.6
1854.16
1614.62
1881.01
1630.89
0.053544
0.0382702
1.9477
1.9292
1.96403
1.93638
2.95185
3.07239
2.69916
2.89228
2.61209
2.66458
2.76924
2.31464
2.84677
2.52052
2.93384
3.06613
2.69204
2.88167
2.60779
2.65915
2.76888
2.31572
2.83982
2.51771
0.0200563
2.82433
3.19726
2.85004
3.15522
2.80893
3.17224
2.82426
3.19404
2.84903
3.1563
2.80746
3.16767
-0.00503645
4118.08
4647.92
5156.49
2820.44
2450.97
2818.19
2457.93
3027.34
2883.14
3026.98
2874.37
2070.69
1494.82
1970.54
1557.74
2105.68
1388.97
2203.89
1503.91
2075.33
1516.18
1980.09
1565.65
2110.88
1430.81
2214.89
1514.01
1501.9
1823.47
1628.66
1758.35
1596.23
1730.31
1561.48
1840.28
1662.88
1770.45
1635.08
1742.04
0.352107
1.77611
1.66183
1.77816
1.65182
0.0348835
1.84645
1.85923
1.86087
1.86501
3.01402
3.02398
2.78439
2.73802
2.96636
2.70347
2.92121
2.47978
2.95769
2.64247
2.97377
3.00345
2.77214
2.73175
2.95411
2.69919
2.91416
2.47838
2.94515
2.63875
0.0120341
2.83963
3.11314
2.83278
3.08251
-0.0216264
3627.97
3808.4
4089.84
4443.74
2567.25
2049.57
2547.54
2047.23
1236.06
1492.01
1678.65
1123.81
1635.97
1804.91
812.622
1659.13
1052.17
1645.47
1510.49
1256.35
1688.59
1146.23
1644.68
1815.05
849.919
1667.17
1073.89
1652.72
1775.2
1676.67
1785.62
1783.28
1761.83
1718.37
1780.1
1695.31
1795.22
1786.76
1766.33
1722.79
1.87696
0.273827
1.86622
2.88648
1.89016
2.82793
0.0255163
2.23131
2.74077
2.45478
2.69856
1.76777
2.23277
2.74408
2.45298
2.70562
1.78117
2.90482
2.7162
2.7983
2.62073
2.84424
2.67808
2.89323
2.71219
2.78333
2.61587
2.83368
2.67422
0.000724067
-0.0431911
3575.42
3297.14
3233.52
3356.32
1419.29
1118.07
1416.52
1131.63
2186.42
1730.32
2181.88
1731.18
1471.85
1398.81
1519.05
1516.59
1279.03
1412.64
912.483
1331.75
1209.05
1353.38