/*--------------------------------*- C++ -*----------------------------------*\
| =========                 |                                                 |
| \\      /  F ield         | OpenFOAM: The Open Source CFD Toolbox           |
|  \\    /   O peration     | Version:  5.x                                   |
|   \\  /    A nd           | Web:      www.OpenFOAM.org                      |
|    \\/     M anipulation  |                                                 |
\*---------------------------------------------------------------------------*/
FoamFile
{
    version     2.0;
    format      ascii;
    class       surfaceScalarField;
    location    "2.3";
    object      phi;
}
// * * * * * * * * * * * * * * * * * * * * * * * * * * * * * * * * * * * * * //

dimensions      [0 3 -1 0 0 0 0];

internalField   nonuniform List<scalar> 
30582
(
0.000166435
-2.39765e-06
0.000167425
-9.89549e-07
0.000166448
-4.78545e-06
0.000164217
3.20752e-06
0.000167341
-1.88241e-06
0.000165947
-6.62286e-06
0.000156185
8.03209e-06
0.000164069
6.47995e-06
0.00016707
-3.00506e-06
0.000165174
-7.61609e-06
0.000143915
1.227e-05
0.000155723
1.63773e-05
0.0001642
9.35004e-06
0.000165306
-3.13744e-06
0.000163967
-7.3096e-06
0.000129044
1.48714e-05
0.000143436
2.45568e-05
0.000156524
2.40532e-05
0.000161513
1.31437e-05
0.000164507
-3.67768e-06
0.00016096
-3.87425e-06
0.000113323
1.57203e-05
0.00012892
2.93877e-05
0.000144664
3.64162e-05
0.000153564
3.2002e-05
0.000161299
1.63526e-05
0.00015879
-1.50797e-06
0.000159371
1.29254e-06
9.65995e-05
1.67239e-05
0.000113399
3.12419e-05
0.000130006
4.40456e-05
0.000142164
4.78158e-05
0.000154453
3.88479e-05
0.000153301
2.18413e-05
0.000158327
-4.63808e-07
0.00014399
2.20045e-05
7.91742e-05
1.74254e-05
9.68252e-05
3.32976e-05
0.000114258
4.69902e-05
0.000128663
5.75474e-05
0.000144341
5.79279e-05
0.000147472
4.46771e-05
0.000154468
2.57006e-05
0.000136242
7.28442e-06
6.3436e-05
-6.64278e-05
6.1036e-05
1.81383e-05
7.9487e-05
3.47636e-05
9.76268e-05
4.9929e-05
0.000113721
6.19318e-05
0.000131244
7.06443e-05
0.000139877
6.5523e-05
0.000149904
4.92408e-05
0.000132668
2.92749e-05
6.5229e-05
5.49136e-06
-0.000298128
0.0002307
4.21971e-05
1.88389e-05
6.14104e-05
3.6215e-05
8.01739e-05
5.22166e-05
9.7586e-05
6.60642e-05
0.000115908
7.72674e-05
0.000129256
8.12658e-05
0.000143029
7.23982e-05
0.000131507
5.04018e-05
8.70074e-05
7.49655e-06
-0.000376776
8.41401e-05
0.000190651
4.00056e-05
2.26546e-05
1.95425e-05
4.25942e-05
3.76551e-05
6.20344e-05
5.43545e-05
8.03677e-05
6.9435e-05
9.90514e-05
8.29209e-05
0.000115405
9.11183e-05
0.000132149
9.21456e-05
0.000131097
7.2808e-05
0.00010616
3.12497e-05
-0.000430269
6.09889e-05
0.000206722
6.80691e-05
0.000103236
-6.32303e-05
2.69051e-06
1.99641e-05
2.2956e-05
3.91808e-05
4.31844e-05
5.65051e-05
6.24195e-05
7.23027e-05
8.13822e-05
8.71043e-05
9.92583e-05
9.90675e-05
0.000117567
0.000105701
0.00012625
9.69926e-05
0.000121785
5.71825e-05
-0.000363596
-3.54231e-05
-2.19552e-05
0.000289666
0.000147892
2.3413e-05
-0.000154405
9.11747e-05
-1.6733e-05
1.94235e-05
2.73907e-06
4.0181e-05
2.34471e-05
5.89181e-05
4.36927e-05
7.5232e-05
6.33826e-05
9.03024e-05
8.20445e-05
0.000104318
0.000100131
0.000116503
0.000116305
0.000115646
0.000131974
8.6804e-05
-0.000239837
-6.65768e-05
-0.000158027
0.000100649
9.76563e-05
0.000339902
-0.00011889
-1.21016e-05
9.16633e-05
-4.88487e-07
-3.42894e-05
1.75564e-05
-1.71483e-05
3.9311e-05
3.00436e-06
6.06238e-05
2.37607e-05
7.88501e-05
4.478e-05
9.38345e-05
6.44098e-05
0.000107937
8.20323e-05
0.000122416
0.000101827
0.000130982
0.000133704
0.000113915
-0.000155088
2.0547e-06
-0.000224862
2.58007e-07
7.80519e-05
0.000120253
-2.25258e-05
0.000243537
9.81812e-05
-1.86195e-05
-0.000102646
-4.86732e-05
1.43839e-05
-3.53282e-05
3.57363e-05
-1.7401e-05
5.97164e-05
2.54733e-06
8.18372e-05
2.47904e-05
9.88397e-05
4.60798e-05
0.000112165
6.43127e-05
0.000125657
8.57404e-05
0.000138503
0.000131971
0.000132715
-9.77178e-05
5.65452e-05
-0.00028302
6.02128e-05
3.24012e-05
4.59087e-05
-8.54545e-06
0.000106273
6.34513e-05
0.000278267
-9.67306e-05
-5.79358e-05
9.2626e-06
-5.009e-05
2.91457e-05
-3.649e-05
5.48253e-05
-1.91152e-05
8.1379e-05
3.14328e-06
0.000103484
2.58499e-05
0.00011907
4.63359e-05
0.000130141
6.96788e-05
0.000141718
0.000129782
0.000140693
-3.79026e-05
7.28993e-05
-0.000344161
0.000117687
1.4049e-05
7.85651e-05
-1.10309e-05
4.83941e-05
4.15112e-05
0.000128213
-4.39015e-05
-6.04584e-05
2.52262e-06
-5.95943e-05
1.87668e-05
-5.24824e-05
4.51382e-05
-3.95806e-05
7.52907e-05
-1.9511e-05
0.000104033
3.13024e-06
0.000126204
2.61262e-05
0.000139279
5.30669e-05
0.000146753
0.000125594
0.000145906
1.87124e-05
8.40777e-05
-0.000399661
0.000128399
2.11577e-05
0.000110578
-2.25814e-07
6.77601e-05
8.63254e-06
8.12728e-05
-2.36244e-05
-5.54352e-05
-5.02321e-06
-6.24545e-05
5.38289e-06
-6.32769e-05
2.95614e-05
-5.69057e-05
6.24633e-05
-4.16866e-05
9.74663e-05
-2.14698e-05
0.000128633
2.52936e-06
0.000149801
3.34146e-05
0.000158932
0.000116127
0.00015622
6.4746e-05
9.98725e-05
-0.00035835
4.27664e-05
3.84201e-05
0.000111137
2.1593e-05
8.87597e-05
-5.81924e-06
8.2212e-05
-7.26252e-06
-4.27137e-05
-1.27214e-05
-5.76735e-05
-9.80424e-06
-6.6908e-05
9.014e-06
-6.87417e-05
4.13974e-05
-6.14989e-05
8.22756e-05
-4.61188e-05
0.000122115
-2.36484e-05
0.000154811
8.38096e-06
0.000174835
9.85627e-05
0.000176496
9.35453e-05
0.000127421
-0.000195759
-6.27185e-05
5.01325e-05
3.10541e-05
5.42964e-05
7.84333e-05
-1.11168e-05
9.40573e-05
3.16617e-06
-2.28402e-05
-1.98735e-05
-4.49277e-05
-2.54672e-05
-6.22885e-05
-1.44238e-05
-7.33551e-05
1.36274e-05
-7.60384e-05
5.59369e-05
-6.88036e-05
0.00010496
-5.0756e-05
0.000149223
-2.17607e-05
0.000184953
7.10166e-05
0.000202381
0.000101964
0.000168077
-5.80343e-05
-1.03037e-05
5.60189e-05
-6.86048e-05
5.38554e-05
3.14951e-05
-1.43013e-05
8.16179e-05
1.41972e-05
3.04801e-06
-2.58882e-05
-2.48106e-05
-3.99907e-05
-4.94548e-05
-3.83009e-05
-6.9551e-05
-1.82279e-05
-8.24142e-05
2.00033e-05
-8.56112e-05
7.27445e-05
-7.70857e-05
0.00013129
-5.4783e-05
0.000182245
3.32348e-05
0.000222735
8.65831e-05
0.000217762
1.69415e-05
9.31015e-05
6.3222e-05
-1.75068e-05
1.07606e-05
-2.55101e-05
-1.5936e-05
3.31298e-05
2.63327e-05
3.32928e-05
-3.02449e-05
1.52016e-06
-5.2219e-05
-2.89048e-05
-6.05407e-05
-5.65868e-05
-5.12651e-05
-7.90119e-05
-2.16302e-05
-9.3826e-05
2.82181e-05
-9.79492e-05
9.36081e-05
-8.75285e-05
0.000164036
-1.06046e-05
0.000226084
5.05901e-05
0.000258728
3.34017e-05
0.000201301
5.63461e-05
9.99773e-05
-2.14866e-05
1.47402e-05
-1.34324e-05
-2.80138e-05
2.26418e-05
6.61312e-05
-3.28384e-05
3.22565e-05
-6.09813e-05
-1.79992e-06
-7.9324e-05
-3.51888e-05
-8.19388e-05
-6.60058e-05
-6.42712e-05
-9.20297e-05
-2.34265e-05
-0.000108803
3.90716e-05
-0.00011428
0.00012036
-5.23765e-05
0.000205808
4.67776e-06
0.000271997
3.20173e-06
0.000288928
4.44278e-05
0.00021322
-5.43544e-06
8.3926e-05
-6.7205e-06
8.02828e-06
4.58721e-07
9.96562e-05
-3.3525e-05
6.57052e-05
-6.62871e-05
3.00721e-05
-9.28534e-05
-6.74487e-06
-0.000107768
-4.3834e-05
-0.000104111
-7.87783e-05
-7.75226e-05
-0.000107603
-2.4626e-05
-0.000129418
5.4209e-05
-8.87922e-05
0.000156775
-4.05145e-05
0.000251
-5.82701e-05
0.000333469
2.24347e-05
0.000310921
3.112e-05
0.000176664
-8.86778e-06
8.60731e-05
-2.21813e-05
0.000132117
-3.24605e-05
9.98283e-05
-6.76481e-05
6.47763e-05
-0.000100991
2.68735e-05
-0.000126472
-1.3761e-05
-0.000137841
-5.50442e-05
-0.000127845
-9.45936e-05
-9.05322e-05
-0.000130888
-2.31561e-05
-0.000113513
7.89299e-05
-7.58268e-05
0.000192088
-0.000128854
0.000321583
-1.01135e-05
0.000366017
6.11869e-05
0.000280854
-7.78493e-06
0.000175581
-2.30119e-05
0.000162065
-2.99478e-05
0.000132859
-6.54916e-05
0.000100156
-0.000103028
6.34578e-05
-0.000137576
2.22029e-05
-0.000162436
-2.24453e-05
-0.00017044
-6.9515e-05
-0.000152923
-0.000117162
-0.000104258
-0.000122311
-1.43584e-05
-9.41235e-05
9.72265e-05
-0.000193176
0.00025641
-5.03445e-05
0.000361814
9.3991e-05
0.000333213
1.13764e-05
0.000261692
-1.40755e-05
0.000188418
-2.63536e-05
0.000163286
-6.03739e-05
0.000134303
-9.96381e-05
0.000100795
-0.000140366
6.15104e-05
-0.000176883
1.66878e-05
-0.000201569
-3.395e-05
-0.000206005
-8.98088e-05
-0.000180276
-0.000111784
-0.000114784
-9.4902e-05
-1.35798e-05
-0.000237505
0.000141556
-0.000116217
0.000322283
0.000136373
0.000319433
3.56349e-05
0.000308955
-3.09021e-06
0.000210482
-2.20633e-05
0.000190011
-5.3079e-05
0.000165645
-9.17156e-05
0.000136729
-0.000135572
0.000101557
-0.000180413
5.9396e-05
-0.000219591
9.01024e-06
-0.000244529
-5.05232e-05
-0.000245291
-8.50646e-05
-0.000206996
-8.19493e-05
-0.000127737
-0.000235395
-1.56902e-05
-0.000211176
0.000236515
0.000180297
0.00027836
5.73032e-05
0.000297765
9.31272e-06
0.000227899
-1.74178e-05
0.000212307
-4.43595e-05
0.000193061
-8.04952e-05
0.000169611
-0.000124597
0.000139861
-0.000173875
0.000102835
-0.000223851
5.61534e-05
-0.000266735
-1.74635e-06
-0.000293306
-4.75587e-05
-0.000282797
-5.9659e-05
-0.000229286
-0.000202633
-0.000160499
-0.000278919
5.20532e-05
0.000220441
0.000196371
8.64393e-05
0.000249225
1.84697e-05
0.000240649
-1.27493e-05
0.000229853
-3.49639e-05
0.000215856
-6.71545e-05
0.000198201
-0.000109086
0.000174574
-0.00015931
0.00014433
-0.000215371
0.00010431
-0.000272008
5.24224e-05
-0.000320903
-3.0259e-06
-0.000337839
-3.11549e-05
-0.000311301
-0.000154966
-0.000276954
-0.000272931
-0.000166487
0.000234127
3.83675e-05
0.000123492
0.000159319
2.21228e-05
0.000248838
-8.1897e-06
0.000242642
-2.55378e-05
0.000233702
-5.28097e-05
0.000221683
-9.06365e-05
0.000204515
-0.000139028
0.00018181
-0.00019679
0.000150119
-0.000261179
0.00010726
-0.000326845
4.51403e-05
-0.00036907
7.64192e-07
-0.000369758
-9.5527e-05
-0.000370739
-0.000214866
-0.000335019
0.000218417
-0.000150777
0.000156178
5.68132e-06
1.44643e-05
0.00025266
-3.82204e-06
0.000250906
-1.64542e-05
0.00024659
-3.84264e-05
0.000239801
-7.09268e-05
0.00022892
-0.000115041
0.000213946
-0.000171163
0.000191414
-0.000238085
0.000158375
-0.000312295
9.19884e-05
-0.000373693
3.51573e-05
-0.000403463
-2.07512e-05
-0.000444534
-0.000132401
-0.000453205
0.000162664
-0.000279266
0.000146993
-0.000141593
-4.68877e-06
0.000252444
2.16601e-07
0.000254836
-7.75197e-06
0.000254704
-2.45682e-05
0.000252796
-5.14222e-05
0.000247526
-8.95323e-05
0.000239539
-0.000140634
0.000225573
-0.000205323
0.000202271
-0.000281981
0.000136376
-0.000356682
7.54809e-05
-0.000414017
7.19942e-05
-0.000496208
-3.74554e-05
-0.000539479
9.99125e-05
-0.000390454
0.000123494
-0.000255768
-5.48744e-06
0.000248426
4.01823e-06
0.000254374
6.78959e-07
0.000258351
-1.13988e-05
0.000261161
-3.29329e-05
0.000260572
-6.44685e-05
0.000258348
-0.000108342
0.000251862
-0.000166922
0.00023728
-0.000240331
0.000176965
-0.00032257
0.00012168
-0.000402881
0.000166962
-0.000508984
6.62465e-05
-0.00059991
4.8324e-05
-0.000487891
8.90322e-05
-0.000355993
4.26617e-06
0.000240981
7.44417e-06
0.000250218
8.1741e-06
0.000258307
7.23402e-07
0.000265141
-1.53787e-05
0.000268674
-4.10353e-05
0.000271293
-7.74135e-05
0.000270498
-0.000126979
0.000262679
-0.000192321
0.000211071
-0.000274437
0.000173397
-0.000374288
0.00025356
-0.000489479
0.000160246
-0.000602984
-1.56197e-06
-0.000550025
4.70509e-05
-0.00044591
9.56252e-06
0.000230473
1.0508e-05
0.000242582
1.50799e-05
0.000253903
1.25775e-05
0.000264242
1.62286e-06
0.000272348
-1.90526e-05
0.000279739
-4.94803e-05
0.000282711
-8.96265e-05
0.000278546
-0.000142847
0.000235336
-0.000216586
0.00023177
-0.00033281
0.000334769
-0.000455496
0.000228903
-0.000558136
-5.78046e-05
-0.00054674
3.51109e-06
-0.000506484
8.16671e-06
0.000217546
1.29276e-05
0.000231995
2.10951e-05
0.000245883
2.30998e-05
0.000259663
1.71563e-05
0.000272213
1.75844e-06
0.00028375
-2.30636e-05
0.000290643
-5.74115e-05
0.000286798
-9.78781e-05
0.000245775
-0.000153286
0.000297083
-0.000281899
0.000418028
-0.00041607
0.000260691
-0.000487283
-0.000121414
-0.000494526
-3.73065e-05
-0.000505921
1.81851e-06
0.000202821
1.47244e-05
0.00021901
2.59125e-05
0.000234786
3.21922e-05
0.000251252
3.15108e-05
0.000267093
2.22762e-05
0.000282958
2.55022e-06
0.000295381
-2.78024e-05
0.000290436
-6.10494e-05
0.00024327
-9.53729e-05
0.000365829
-0.000222032
0.000507542
-0.000371413
0.000231317
-0.000386695
-0.000179217
-0.000429478
-6.34877e-05
-0.000468343
-1.89991e-06
1.56222e-05
0.000187199
0.000204121
2.96136e-05
0.000221231
3.94677e-05
0.000239586
4.38582e-05
0.000257754
4.08498e-05
0.000277793
2.74405e-05
0.000295326
2.60555e-06
0.000290537
-2.79037e-05
0.000233514
-5.12932e-05
0.000430204
-0.000159748
0.000585376
-0.000299866
0.000122645
-0.000262741
-0.00020382
-0.000362093
-7.67648e-05
-0.000416201
1.48914e-06
3.16858e-05
0.000188058
3.94641e-05
0.000147735
0.000205793
4.50514e-05
0.0002253
5.37534e-05
0.00024485
5.67622e-05
0.00026796
5.06831e-05
0.00028889
3.38762e-05
0.000286249
6.89371e-06
0.000223375
-1.77645e-05
0.000485537
-0.000106626
0.000633222
-0.000207595
-1.0302e-05
-0.00016692
-0.000207187
-0.000259376
-8.71197e-05
-0.000351739
1.03348e-05
4.83882e-05
0.000189091
7.99035e-05
0.000147618
3.53406e-05
0.000112394
0.000209089
6.12624e-05
0.000229196
6.94072e-05
0.000254186
7.05362e-05
0.000276531
6.3042e-05
0.000275133
4.49922e-05
0.000213865
1.64035e-05
0.000527523
-5.97503e-05
0.00065378
-0.000127185
-0.000120571
-9.73266e-05
-0.000203048
-0.000171062
-7.21612e-05
-0.000274336
1.70215e-05
6.5962e-05
0.000191515
0.000121706
0.000147288
7.2002e-05
0.000110957
2.67735e-05
8.56209e-05
0.000211644
7.88143e-05
0.000237336
8.62574e-05
0.000259532
8.75353e-05
0.000258498
7.96774e-05
0.000205378
5.34796e-05
0.000536902
7.02452e-06
0.000639962
-4.59315e-05
-0.000198055
-4.97005e-05
-0.000187548
-0.000112826
-4.3113e-05
-0.000200111
6.86786e-06
8.47502e-05
0.000192856
0.000165866
0.000147355
0.000110055
0.000109235
5.60167e-05
8.17133e-05
1.11441e-05
7.44769e-05
0.000218384
9.77659e-05
0.000239561
0.000106229
0.000237774
0.000108259
0.000196125
8.89303e-05
0.00050702
8.33618e-05
0.000584314
6.26729e-05
-0.000229108
-1.4877e-05
-0.000171721
-6.5526e-05
-1.91599e-05
-0.000136778
-1.39517e-05
0.000105267
0.000197867
0.000212006
0.000146716
0.000151542
0.000105868
8.66243e-05
7.86275e-05
2.59775e-05
6.68797e-05
-1.23801e-05
8.68569e-05
0.000217802
0.000119525
0.000214182
0.00012982
0.000184771
0.000119613
0.000450589
0.000145362
0.000500494
0.000167182
-0.000217001
5.05665e-05
-0.000163259
-2.33373e-05
-8.1307e-06
-7.65538e-05
-3.39288e-05
0.000127852
0.000195218
0.000262347
0.000147527
0.000195751
0.000102507
0.000121283
7.12098e-05
4.46224e-05
5.99826e-05
-1.41951e-05
6.86946e-05
-5.34795e-05
0.000140336
0.000188878
0.000144829
0.00017222
0.000142371
0.000384855
0.000185347
0.000409248
0.000236607
-0.000181078
0.000131259
-0.000143523
3.08301e-05
-1.452e-05
-1.69473e-05
-4.36974e-05
0.000154195
0.000162535
0.000316267
0.000141298
0.000244533
9.8744e-05
0.000159209
6.45803e-05
7.18299e-05
4.40023e-05
-7.745e-06
5.35324e-05
-9.41253e-05
0.00010934
-7.49289e-05
0.000215265
0.000157622
0.000159427
0.00032426
0.000202966
0.000323043
0.000271551
-0.00015151
0.000207038
-0.000117349
0.000105084
-3.55511e-05
5.18608e-05
-4.37769e-05
0.000170113
0.000141704
0.000375028
0.000103773
0.000296657
8.91741e-05
0.000201942
5.60117e-05
0.000106822
2.95885e-05
1.03073e-05
2.595e-05
-0.000112664
7.20713e-05
-0.000150355
0.000184766
-0.000129188
0.000344453
0.000275564
0.000208123
0.000253695
0.000272313
-0.000126601
0.000246642
-8.75111e-05
0.000177199
-5.17175e-05
0.000121249
-3.14431e-05
0.00021236
0.000233317
0.000418143
9.85885e-05
0.000350919
4.95119e-05
0.000248151
4.29651e-05
0.000150046
1.27874e-05
3.85538e-05
1.34227e-06
-0.000112895
2.61811e-05
-0.000222373
0.00014409
-0.000251246
0.000306824
-2.53864e-05
0.000369839
0.000200523
0.000261295
-0.000106163
0.000251876
-6.25025e-05
0.000221633
-5.21198e-05
0.000177601
-1.84437e-05
0.000262784
0.000150101
0.000506587
0.000144873
0.000406046
4.34607e-05
0.000298247
-5.83449e-07
0.000200437
-7.4258e-06
8.70108e-05
-3.56695e-05
-8.48071e-05
-2.67457e-05
-0.000265415
6.92225e-05
-0.000342325
0.000235169
-7.19711e-05
0.000353409
6.86684e-05
0.000301171
-9.57691e-05
0.000250902
-5.17718e-05
0.000241146
-4.5078e-05
0.000214592
-8.23531e-06
0.000261806
-9.47918e-05
0.000601617
5.50704e-05
0.00049034
6.05795e-05
0.000357774
-1.60671e-05
0.000255867
-5.60128e-05
0.000148921
-6.93362e-05
-9.20604e-06
-0.00011127
-0.000250324
-4.18357e-05
-0.000430976
0.000157873
-0.000180558
0.000343755
8.04164e-05
0.000341661
0.00219246
0.000661217
-0.0025525
-5.41486e-05
0.000253279
-4.00195e-05
0.000236088
-2.72301e-06
0.000270709
-6.30524e-05
0.000640417
-0.000133592
0.000614327
-6.89163e-05
0.000449916
-3.15619e-05
0.000323997
-8.41975e-05
0.000211707
-0.000118799
9.08472e-05
-0.000169389
-0.000136819
-0.000224775
-0.000442908
-2.99034e-05
-0.00035435
0.000331666
4.58357e-05
0.000378336
0.0017706
0.000763522
0.00245295
0.000852529
-0.00264426
0.000454224
-0.00300673
-3.95228e-05
0.000252781
-1.96036e-06
0.000274706
-4.35195e-05
0.000693378
-0.000116014
0.000724944
-0.00024421
0.000664793
-0.000283793
0.000428608
-0.000136173
0.000283017
-0.000155507
0.000174731
-0.000202683
1.68808e-05
-0.00032309
-0.000357449
-0.000310234
-0.000457202
7.29487e-05
-1.06602e-05
0.000388162
0.00135634
0.000792592
0.00226481
0.000951658
0.00213525
0.00094796
-0.00223068
0.000691249
-0.00288129
0.000330335
-0.00333706
-4.04942e-06
-8.22111e-06
0.000725718
-7.58603e-05
0.000834455
-0.000225525
0.000896531
-0.000475949
0.000901576
-0.000756761
0.000413884
-0.000267039
0.00022481
-0.000205585
0.00014137
-0.000327172
-0.000160853
-0.000519686
-0.000415147
-0.000352289
-9.11627e-05
0.000153451
0.00101276
0.000731739
0.00203701
0.00102039
0.00206002
0.00102689
0.00171944
0.00108758
-0.00185906
0.000902866
-0.00244229
0.000595477
-0.00314643
0.000232232
-0.00356929
-2.66977e-05
0.000912257
-0.000153663
0.00107363
-0.000402629
0.00135122
-0.000925594
0.000919012
-0.00126189
0.00031847
-0.000360699
0.000156243
-0.000220458
8.08056e-05
-0.00056883
-0.000266951
-0.000667881
-0.00025239
-0.000191062
0.000703706
0.00046251
0.00175002
0.00101874
0.0019755
0.0011049
0.00165942
0.00108691
0.00150337
0.00125265
-0.00166845
0.00110638
-0.00206257
0.000813771
-0.00266059
0.000440326
-0.00335452
0.0001403
-0.00370959
-6.28564e-05
0.00121319
-0.000293219
0.00160355
-0.000654958
0.00149972
-0.0015063
0.000344684
-0.0012881
0.000152054
-0.000356511
0.000259034
-0.000398686
-2.11565e-05
-0.000814625
-0.000291161
-0.00062911
0.000344061
0.000168583
0.00132553
0.000886996
0.00180609
0.00118815
0.00163124
0.00113308
0.0014098
0.00118048
0.00121053
0.00148689
-0.00144476
0.00130195
-0.00186402
0.00104233
-0.00229113
0.000685871
-0.00290614
0.000323031
-0.00353725
7.1197e-05
-0.00378079
-0.000127757
0.00172819
-0.000417855
0.00193266
-0.0010879
0.000609322
-0.00177094
-5.55283e-05
-0.00108052
0.000195432
-0.00029291
0.000328876
-0.000748718
-0.000227179
-0.000878607
6.20964e-05
-0.000347146
0.000871304
0.000622812
0.00157041
0.00112268
0.00157383
0.00124556
0.00130232
0.00124057
0.00104515
0.00134586
0.00104784
0.000398368
-0.0011738
0.000397764
0.000408468
0.000408246
0.00151208
-0.00165489
0.0012523
-0.00207398
0.000951762
-0.00255703
0.000559586
-0.00314269
0.000180211
-0.00364627
-3.27424e-05
-0.00374805
-0.000195122
0.00205827
-0.000543464
0.00106078
-0.00153936
-0.000145741
-0.00168073
-0.000105929
-0.000779162
0.000396707
-0.000360741
-6.91116e-05
-0.000906786
-0.000175589
-0.000640921
0.000413815
0.000110343
0.00123314
0.000960083
0.00142451
0.001272
0.0011667
0.00138117
0.000984422
0.00130129
0.000807111
0.00158659
-5.49593e-07
0.000190059
-0.000220644
0.000429503
0.000415598
-0.00135897
0.000415162
0.000433343
0.000433142
0.00019055
-0.000220745
0.000427409
-3.87833e-07
0.000166657
0.000432257
0.000168114
0.000430294
0.0014704
-0.00187298
0.00122108
-0.0023433
0.000830109
-0.00282755
0.000364385
-0.00332686
4.14185e-06
-0.00368315
-0.000122969
-0.00362508
-0.000218035
0.00131216
-0.000794843
-8.35624e-06
-0.00167674
-0.000328403
-0.00145825
0.000210239
-0.000592696
0.000221451
-0.000651304
-0.000393116
-0.000689258
6.9228e-05
-0.000296334
0.000734505
0.000608975
0.00120205
0.00118255
0.000994274
0.00144443
0.000923995
0.0014416
0.000619975
0.00148843
-0.000138523
-0.000139631
0.000562814
0.000401686
0.000400601
0.000417082
0.000417335
-6.65234e-07
-0.000247129
0.000442749
-2.63854e-07
0.000138424
-0.000161149
0.000452493
-0.00159428
0.0017057
-0.000246933
0.000440685
-5.81296e-07
-0.000264696
0.000451492
-0.000263863
0.000449491
0.000139012
-0.000160896
0.000449029
-1.84968e-07
0.000432343
0.000429491
0.00150377
-0.00215567
0.00110933
-0.00262252
0.000596008
-0.00305917
0.000121657
-0.00344438
-0.000187565
-0.00361855
-0.000226973
-0.00339811
-0.00023516
0.000144955
-0.000948157
-0.000556298
-0.00144885
-0.000181073
-0.00106694
9.89472e-05
-0.000470192
-0.000174802
-0.000869619
-0.000211551
-0.000408479
0.000276853
0.000161318
0.000897046
0.000913978
0.000810239
0.00136658
0.000782386
0.00158604
0.000487369
0.00157421
0.000446734
0.000394191
0.000394432
0.000408053
0.000407831
3.35763e-07
6.65081e-05
-8.21297e-05
0.000416972
6.56615e-05
-8.05485e-05
0.000415824
-1.52563e-07
6.10367e-05
0.000422705
6.0681e-05
0.000422164
-2.7009e-07
-0.000182602
0.000464473
1.10988e-06
9.79291e-05
-0.000107742
0.000129368
9.99471e-05
0.000126738
0.000105142
-0.00183024
0.00173974
0.000198118
0.000197035
-0.00111962
0.00048321
0.000483732
0.000468015
0.00046665
-0.000181808
0.000461327
-3.13102e-07
0.000467319
0.000464405
9.71876e-05
-0.000106875
0.000128492
0.000100876
0.000126078
0.000104381
1.00528e-06
0.000125269
9.68555e-05
0.000124006
0.000101006
0.000124544
9.86341e-05
0.000123467
0.000100489
0.0013767
-0.00242304
0.000828827
-0.00285534
0.000289985
-0.0032275
-0.000162996
-0.00346895
-0.00039966
-0.00344587
-0.000329663
-0.00306844
-0.000271176
-0.00076884
-0.000735616
-0.000777291
-0.000852635
-0.000378527
-0.00058947
-0.00019006
-0.000454934
-0.000393166
-0.000688004
-5.42998e-05
-7.73258e-05
0.000490546
0.000567818
0.00059655
0.00112767
0.000584713
0.00156425
0.000366931
0.00170647
0.000319822
0.000418815
0.000418673
0.000432248
0.000431382
-1.13973e-07
4.60512e-05
0.00040929
4.60269e-05
0.000408973
-1.04255e-07
3.53957e-05
0.000418813
3.53325e-05
0.000418421
4.25566e-07
2.05747e-05
-1.44125e-05
-1.01682e-06
9.10509e-05
-1.07105e-05
0.000115316
9.14895e-05
0.000115989
8.30508e-06
2.04678e-05
-1.48288e-05
-1.05758e-06
-1.07664e-05
9.13645e-05
0.000115293
9.1627e-05
0.00011588
8.26955e-06
5.37517e-07
1.78866e-05
9.43174e-05
0.00011757
9.42982e-05
0.000118733
1.82526e-05
9.44503e-05
0.000117428
9.44282e-05
0.000118611
1.14461e-06
-0.000115575
0.000131587
0.000102526
0.000129766
0.000107283
-9.46429e-06
9.67018e-06
1.63374e-07
8.42607e-06
0.000120573
-9.19935e-06
7.76025e-06
-8.93618e-06
0.000110322
2.3898e-07
-1.07368e-05
0.000118572
8.43082e-06
0.000114142
-0.00203908
0.00158554
-0.00125919
0.000467206
0.000467364
0.000471727
0.000473014
-1.96068e-07
0.000129809
-0.000138489
0.000492087
0.000131125
-0.000139366
0.000491777
3.5917e-07
0.000120602
0.000476863
0.00012188
0.000476255
-0.000115164
0.000130844
0.000104015
0.00012919
0.000106712
1.00768e-06
0.00013208
0.00010163
0.000129139
0.00010849
0.000131417
0.000103854
0.00012874
0.000108118
-9.51504e-06
9.50783e-06
8.42052e-06
0.000120242
-9.0043e-06
8.24868e-06
-9.45944e-06
0.000111091
-1.08279e-05
0.000118625
8.54114e-06
0.000113596
5.494e-06
1.1047e-05
2.11366e-07
0.000116943
-1.37637e-05
-9.26199e-06
0.000105469
2.1879e-07
0.000114504
0.000111222
5.55733e-06
1.10158e-05
0.000116603
-1.34562e-05
-9.43643e-06
0.000106698
0.00011473
0.00011061
0.00106949
-0.0026637
0.000463774
-0.00302913
-8.73458e-05
-0.00330315
-0.000475043
-0.00339356
-0.000605776
-0.00316975
-0.00040833
-0.00266011
-0.000147593
-0.00113894
-0.00037397
-0.000845706
-0.000385457
-0.000427847
-0.000351685
-0.000505203
-0.000342896
-0.000452815
-0.000289489
0.000100709
0.000312512
0.000321533
0.000842836
0.000357028
0.00135535
0.000242484
0.0016887
0.000187684
0.000452834
0.000452321
0.000467006
0.000466451
-7.90975e-08
1.75466e-05
0.000436743
1.77486e-05
0.000436178
-6.72195e-08
4.49339e-06
0.000445368
4.77841e-06
0.000444285
8.1301e-07
7.94377e-06
9.33759e-05
0.000115451
9.35781e-05
0.00011606
8.45791e-06
9.36469e-05
0.000115344
9.46172e-05
0.000115986
1.09668e-06
-5.45477e-06
9.82421e-05
0.000119214
9.57482e-05
0.000117901
-5.32052e-06
9.9342e-05
0.000119211
9.68769e-05
0.00011784
-4.6113e-06
-7.68065e-06
-1.36419e-06
0.000104707
-5.84694e-06
-4.44829e-06
0.000105053
-9.65018e-06
-1.4409e-08
0.00011637
3.95641e-06
-6.0714e-06
-9.07188e-06
9.89522e-05
8.54828e-09
-9.21768e-06
0.000109455
2.69724e-08
4.1996e-06
0.000112759
-5.83758e-06
-4.59433e-06
0.000106364
-4.51548e-06
-7.54032e-06
-1.74571e-06
0.000105166
-9.61146e-06
3.884e-06
0.00011649
-5.9983e-06
-8.93489e-06
9.902e-05
-9.17378e-06
0.000109453
4.14247e-06
0.000113046
-7.18166e-06
1.01546e-05
-1.0677e-05
0.000102021
9.01226e-06
3.49778e-08
-9.3994e-06
0.000110742
-6.90761e-06
0.000102288
3.45915e-08
0.000111543
-7.16248e-06
9.98478e-06
-1.06279e-05
0.000102256
8.93604e-06
-9.3733e-06
0.000110737
-6.87866e-06
0.000102357
0.000111529
1.08701e-05
9.58745e-06
1.58462e-07
-1.20626e-05
0.000123033
-9.34886e-06
-9.85899e-06
0.000112797
2.36371e-07
0.000120314
-9.89408e-06
0.000116906
-1.04944e-06
2.17497e-06
-7.25204e-08
-7.17125e-07
0.000120237
-1.9219e-06
9.66376e-07
-1.12013e-07
0.00011139
-5.68291e-08
-6.13439e-07
0.000116295
7.12391e-07
0.000116571
-0.00224092
0.00127132
-0.00142322
0.000434563
0.000434005
0.000440409
0.000440598
-2.22417e-07
0.000146977
-0.000156882
0.000477333
0.000147028
-0.000156882
0.000476995
-2.27886e-07
0.000480443
0.000480448
7.17814e-07
4.97717e-05
-4.66075e-05
0.00010818
0.00013498
0.000109161
0.000135929
4.96494e-05
-4.60966e-05
0.00010867
0.000134874
0.000109518
0.00013588
5.43666e-07
5.18242e-06
2.2695e-05
0.00010879
-5.11348e-06
0.00013541
0.000107978
0.000135951
1.52166e-05
5.28011e-06
2.26458e-05
0.000108895
-4.94958e-06
0.00013538
0.000108169
0.000135856
1.5172e-05
1.09336e-05
9.48827e-06
-1.2133e-05
0.000122714
-9.10148e-06
-9.8553e-06
0.000113513
0.000120431
-1.00613e-05
0.000116406
-1.49345e-05
1.10001e-05
1.7137e-07
0.00012378
-1.49393e-05
8.96591e-06
0.000112785
2.10797e-07
0.000121771
0.000118561
-1.4992e-05
1.08624e-05
0.000123585
-1.44786e-05
9.34137e-06
0.000114271
0.000122126
0.000118261
-1.06029e-06
1.9101e-06
-6.61762e-07
0.000119982
-1.71896e-06
1.04622e-06
-1.88837e-07
0.000111953
-6.24054e-07
0.000116413
9.46257e-07
0.000115606
4.42578e-06
3.85683e-08
0.000115935
0.000111912
4.39566e-06
0.000115727
0.000111357
0.000630799
-0.00283073
-1.792e-05
-0.00309856
-0.000501977
-0.00327622
-0.000795161
-0.00320418
-0.000776676
-0.00280141
-0.000467645
-0.00219247
-6.08861e-05
-0.00105421
-0.000165469
-0.000628052
-0.000185253
-0.000566628
-0.000290261
-0.000636572
-0.000159139
-0.000414365
0.000225585
6.58208e-05
0.000568223
0.000124297
0.00107557
9.55652e-05
0.00150227
4.2763e-05
0.000455693
0.000455215
0.000461449
0.000461265
-1.60169e-08
-2.64378e-06
0.000459987
-2.34458e-06
0.000459427
-6.68798e-08
-1.16268e-05
0.000476056
-1.13973e-05
0.000475437
9.79289e-07
-1.57352e-05
0.000101002
0.000121709
0.000101828
0.000121458
-1.60154e-05
0.000102055
0.00012167
0.000102791
0.000121345
9.57754e-07
-2.83327e-05
0.00010632
0.000123642
0.000104386
0.000122698
-2.93238e-05
0.000107304
0.000123517
0.000105214
0.00012255
-7.2319e-06
-1.19422e-05
0.000101873
-1.13048e-05
7.06708e-10
0.000110103
-7.71222e-06
-1.20475e-05
0.000101389
-3.47135e-08
-1.18443e-05
0.000108876
-7.12161e-06
-1.21388e-05
0.000102279
-1.13306e-05
0.00011018
-7.37231e-06
-1.22502e-05
0.000102101
-1.184e-05
0.000109101
-7.33055e-06
1.40906e-05
-1.50863e-05
0.000106574
1.3951e-05
-2.2872e-08
-1.54012e-05
0.000113329
-7.67872e-06
0.000105477
-1.57366e-08
0.000112369
-6.99951e-06
1.4252e-05
-1.54455e-05
0.000107535
1.40311e-05
-1.54496e-05
0.000113596
-7.37952e-06
0.000106258
0.000112622
-2.03275e-06
5.02952e-06
-7.56975e-07
-2.10286e-05
-2.24781e-05
-1.34179e-09
-3.04864e-08
8.41261e-06
-1.3531e-06
-9.42447e-06
-2.38202e-09
-9.25895e-06
-1.93683e-06
5.14719e-06
-7.42594e-07
-2.10277e-05
8.4569e-06
-2.24739e-05
-1.3443e-06
-9.41412e-06
-9.2374e-06
-1.53899e-06
8.30197e-06
-8.32628e-06
8.26624e-06
-1.72701e-08
-8.36668e-06
-1.67501e-06
-3.8704e-09
-1.49689e-06
8.34497e-06
-8.49087e-06
8.27812e-06
-8.40946e-06
-1.67368e-06
3.41428e-07
2.17073e-06
-3.93645e-08
-2.33613e-06
0.000122878
-1.90629e-06
8.43826e-07
0.000113748
-2.45913e-08
0.000118139
4.4863e-07
0.000119473
4.80678e-06
1.09802e-06
-1.23978e-08
-6.93462e-06
-1.12142e-06
-4.82619e-06
4.66725e-06
-3.48169e-08
4.76517e-06
-6.17565e-06
-0.00238497
0.000774847
-0.00157242
0.000349132
0.000348723
0.00036146
0.000361206
-1.50684e-07
0.000170768
-0.000170017
0.000433963
0.000170064
-0.000169294
0.000433083
-1.07596e-07
0.000454402
0.000453673
1.39405e-06
4.52126e-05
-5.4534e-05
0.000107621
0.000133987
0.000109007
0.000134679
4.44645e-05
-5.4001e-05
0.000108848
0.000133875
0.000110496
0.00013468
1.05569e-06
0.000106195
0.00013152
0.000107385
0.000132938
0.000106824
0.00013144
0.000108733
0.000132887
-8.56967e-06
-4.64085e-06
7.10966e-06
0.00011428
-3.56144e-06
-2.86493e-08
6.27292e-06
0.00012366
-8.19314e-06
-4.24939e-06
0.000116963
-2.2525e-08
-2.19264e-06
0.000126389
-8.3715e-06
-4.56326e-06
6.83176e-06
0.000114773
-3.54505e-06
6.24862e-06
0.00012377
-8.05118e-06
-4.08984e-06
0.000117095
-2.16489e-06
0.000126426
-5.55892e-06
6.50086e-06
-1.82459e-05
0.000126094
-6.36899e-06
-4.47169e-06
0.000118512
2.0944e-06
-3.46236e-08
0.000138226
-1.04831e-05
-7.25407e-06
0.000117483
-6.85185e-09
0.000128605
-1.68194e-08
5.77822e-06
0.000124882
-5.45374e-06
6.36412e-06
-1.88289e-05
0.000126813
-6.298e-06
-4.38499e-06
0.000120005
2.10429e-06
0.00013838
-1.05931e-05
-7.17401e-06
0.000117617
0.000128614
5.76831e-06
0.000125215
2.92432e-07
2.00918e-06
-2.26484e-06
0.000122638
-1.76073e-06
8.9274e-07
0.000114192
0.000118314