/*--------------------------------*- C++ -*----------------------------------*\
| =========                 |                                                 |
| \\      /  F ield         | OpenFOAM: The Open Source CFD Toolbox           |
|  \\    /   O peration     | Version:  5.x                                   |
|   \\  /    A nd           | Web:      www.OpenFOAM.org                      |
|    \\/     M anipulation  |                                                 |
\*---------------------------------------------------------------------------*/
FoamFile
{
    version     2.0;
    format      ascii;
    class       volScalarField;
    location    "2.3";
    object      rAU;
}
// * * * * * * * * * * * * * * * * * * * * * * * * * * * * * * * * * * * * * //

dimensions      [-1 3 1 0 0 0 0];

internalField   nonuniform List<scalar> 
12160
(
9.83109e-07
9.83092e-07
9.83099e-07
9.83079e-07
9.83088e-07
9.8309e-07
9.83436e-07
9.83065e-07
9.83085e-07
9.83086e-07
9.83799e-07
9.83399e-07
9.83052e-07
9.83088e-07
9.83086e-07
9.83792e-07
9.83743e-07
9.83363e-07
9.83048e-07
9.8309e-07
9.831e-07
9.83827e-07
9.83724e-07
9.83688e-07
9.83334e-07
9.83035e-07
9.83112e-07
9.83118e-07
9.83826e-07
9.83765e-07
9.83656e-07
9.83635e-07
9.83301e-07
9.83046e-07
9.83131e-07
9.83123e-07
9.83825e-07
9.83781e-07
9.83765e-07
9.8359e-07
9.83586e-07
9.83291e-07
9.83026e-07
9.91562e-07
1.9746e-06
9.83825e-07
9.83793e-07
9.83781e-07
9.83707e-07
9.83528e-07
9.83545e-07
9.83265e-07
9.88894e-07
1.76301e-06
4.72666e-05
9.83824e-07
9.83802e-07
9.83793e-07
9.83738e-07
9.83707e-07
9.83473e-07
9.83512e-07
9.8654e-07
1.68587e-06
4.28405e-05
0.000524944
9.83823e-07
9.83807e-07
9.83802e-07
9.83761e-07
9.83738e-07
9.83663e-07
9.83424e-07
9.87002e-07
1.58385e-06
4.07074e-05
0.000645891
0.00097463
9.83822e-07
9.8381e-07
9.83807e-07
9.83772e-07
9.83761e-07
9.83735e-07
9.83668e-07
9.87921e-07
1.50523e-06
3.05249e-05
0.000852217
0.000979715
0.000983148
9.83821e-07
9.83812e-07
9.8381e-07
9.83777e-07
9.83772e-07
9.83759e-07
9.83743e-07
9.88999e-07
1.43793e-06
2.11214e-05
0.00094479
0.00098234
0.000983183
0.00098362
9.8382e-07
9.83813e-07
9.83812e-07
9.83779e-07
9.83777e-07
9.8377e-07
9.83769e-07
9.89424e-07
1.37837e-06
1.5137e-05
0.000924076
0.00098329
0.000982233
0.000983555
0.000983378
9.83819e-07
9.83815e-07
9.83813e-07
9.8378e-07
9.83779e-07
9.83802e-07
9.8378e-07
9.8917e-07
1.32191e-06
1.15027e-05
0.000867509
0.000983658
0.000983258
0.000982325
0.000983107
9.83655e-07
9.83816e-07
9.83815e-07
9.83781e-07
9.83781e-07
9.83823e-07
9.83811e-07
9.88498e-07
1.26459e-06
8.99409e-06
0.000692669
0.00098335
0.000983581
0.000983147
0.000982481
9.83652e-07
9.83775e-07
9.83816e-07
9.83782e-07
9.83781e-07
9.83822e-07
9.83829e-07
9.87536e-07
1.20337e-06
7.01443e-06
0.000528604
0.000982937
0.000983475
0.000983521
0.000983255
9.83812e-07
9.83776e-07
9.83804e-07
9.83789e-07
9.83782e-07
9.83821e-07
9.83824e-07
9.86525e-07
1.14657e-06
5.46887e-06
0.000322821
0.000982504
0.000983325
0.000983455
0.000983462
9.83819e-07
9.83812e-07
9.83806e-07
9.83792e-07
9.83788e-07
9.8382e-07
9.83821e-07
9.85514e-07
1.10341e-06
4.25801e-06
0.000165958
0.000982581
0.000983341
0.00098337
0.000983461
9.83819e-07
9.83818e-07
9.83818e-07
9.83807e-07
9.83792e-07
9.83819e-07
9.8382e-07
9.84512e-07
1.07439e-06
3.38217e-06
8.64806e-05
0.000981066
0.000983606
0.00098343
0.000983389
9.8382e-07
9.83819e-07
9.83818e-07
9.83817e-07
9.83807e-07
9.83793e-07
9.83818e-07
9.83616e-07
1.05514e-06
2.82007e-06
4.96468e-05
0.000965325
0.000983434
0.000983618
0.000983445
9.83822e-07
9.8382e-07
9.83818e-07
9.83817e-07
9.83817e-07
9.83805e-07
9.83793e-07
9.83365e-07
1.04334e-06
2.48136e-06
3.24527e-05
0.000853839
0.000983719
0.000983637
0.000983626
9.83824e-07
9.83822e-07
9.8382e-07
9.83818e-07
9.83817e-07
9.83816e-07
9.83804e-07
9.83473e-07
1.03798e-06
2.29357e-06
2.42404e-05
0.00068353
0.000983201
0.000983756
0.000983649
9.83827e-07
9.83825e-07
9.83822e-07
9.8382e-07
9.83818e-07
9.83816e-07
9.83744e-07
9.83657e-07
1.03562e-06
2.19925e-06
2.03831e-05
0.000539871
0.000982406
0.00098337
0.000983717
9.83828e-07
9.83827e-07
9.83825e-07
9.83822e-07
9.8382e-07
9.83818e-07
9.83546e-07
9.83772e-07
1.03358e-06
2.1478e-06
1.85316e-05
0.000457405
0.000979733
0.000983813
0.000983365
9.8383e-07
9.83828e-07
9.83826e-07
9.83824e-07
9.83822e-07
9.83819e-07
9.83585e-07
9.83829e-07
1.03218e-06
2.10343e-06
1.75499e-05
0.0004201
0.000978232
0.000983054
0.000983374
9.83832e-07
9.8383e-07
9.83828e-07
9.83826e-07
9.83824e-07
9.83821e-07
9.83819e-07
9.84095e-07
1.035e-06
2.04292e-06
1.66871e-05
0.000405657
0.000977589
0.000982898
0.000983134
9.83834e-07
9.83832e-07
9.8383e-07
9.83828e-07
9.83826e-07
9.83824e-07
9.83822e-07
9.84018e-07
1.03617e-06
1.94833e-06
1.56275e-05
0.000381029
0.000977122
0.000982918
0.000982996
9.83836e-07
9.83835e-07
9.83833e-07
9.83831e-07
9.83828e-07
9.83826e-07
9.83825e-07
9.83872e-07
1.03579e-06
1.86779e-06
1.50636e-05
0.000327695
0.000974448
0.00098302
0.000982984
9.83837e-07
9.83837e-07
9.83835e-07
9.83833e-07
9.83831e-07
9.83829e-07
9.83828e-07
9.83998e-07
1.03693e-06
1.82101e-06
1.46569e-05
0.000268829
0.000969721
0.000983242
0.000983092
9.83831e-07
9.83837e-07
9.83837e-07
9.83836e-07
9.83833e-07
9.83831e-07
9.83831e-07
9.84416e-07
1.04228e-06
1.8166e-06
1.45976e-05
0.000231952
0.000962971
0.000983685
0.000983332
9.83827e-07
9.83831e-07
9.83837e-07
9.83837e-07
9.83836e-07
9.83834e-07
9.83835e-07
9.85015e-07
1.04943e-06
1.86755e-06
1.50449e-05
0.000212212
0.000949966
0.000983351
0.000983739
9.82861e-07
9.83827e-07
9.83829e-07
9.83837e-07
9.83837e-07
9.83836e-07
9.8341e-07
9.85771e-07
1.06296e-06
1.9781e-06
1.63308e-05
0.000209666
0.000930307
0.000982916
0.000981575
9.82654e-07
9.83836e-07
9.83828e-07
9.83829e-07
9.83822e-07
9.83837e-07
9.83257e-07
9.8572e-07
1.08265e-06
2.17563e-06
1.89499e-05
0.000226282
0.000916901
0.000981628
0.000979552
9.83645e-07
9.83812e-07
9.83834e-07
9.83829e-07
9.83805e-07
9.83823e-07
9.83393e-07
9.86224e-07
1.10888e-06
2.48105e-06
2.32006e-05
0.000258918
0.000920068
0.000981393
0.000978242
9.83838e-07
9.8381e-07
9.83806e-07
9.83835e-07
9.83825e-07
9.83622e-07
9.83525e-07
9.87596e-07
1.13991e-06
2.93741e-06
2.97656e-05
0.000312411
0.000931071
0.000981561
0.000977295
9.83837e-07
9.83819e-07
9.83811e-07
9.83804e-07
9.83836e-07
9.83739e-07
9.83461e-07
9.89188e-07
1.176e-06
3.58275e-06
3.9742e-05
0.000393182
0.000948076
0.000980464
0.000976792
9.83836e-07
9.83829e-07
9.8382e-07
9.83796e-07
9.83811e-07
9.83839e-07
9.83677e-07
9.9131e-07
1.21645e-06
4.46789e-06
5.50943e-05
0.000501098
0.000965487
0.000980613
0.000975511
9.83517e-07
9.83837e-07
9.8383e-07
9.83793e-07
9.83797e-07
9.83831e-07
9.83882e-07
9.94499e-07
1.27001e-06
5.6153e-06
7.72701e-05
0.000642274
0.000974414
0.000982238
0.000975708
9.83516e-07
9.83695e-07
9.83837e-07
9.83792e-07
9.83793e-07
9.83812e-07
9.83796e-07
9.98906e-07
1.34585e-06
7.00438e-06
0.000106004
0.000799702
0.000978357
0.00098257
0.000976212
9.83515e-07
9.83693e-07
9.83797e-07
9.83788e-07
9.83793e-07
9.83773e-07
9.83744e-07
1.0045e-06
1.4458e-06
8.77071e-06
0.000141251
0.000903932
0.000980605
0.000982543
0.000977278
9.83456e-07
9.83693e-07
9.83791e-07
9.83779e-07
9.83788e-07
9.83713e-07
9.8373e-07
1.01093e-06
1.55901e-06
1.09097e-05
0.000185186
0.000946047
0.000982307
0.0009826
0.000978852
9.83454e-07
9.83624e-07
9.83836e-07
9.83757e-07
9.83627e-07
9.83653e-07
9.83819e-07
1.01729e-06
1.67336e-06
1.30064e-05
0.000235587
0.000961633
0.000982528
0.000982987
0.00098037
9.83268e-07
9.83623e-07
9.83762e-07
9.83815e-07
9.8362e-07
9.83626e-07
9.83978e-07
1.02316e-06
1.78032e-06
1.48365e-05
0.000288901
0.000965081
0.000982989
0.000983284
0.000981558
9.8381e-07
9.83418e-07
9.83762e-07
9.83753e-07
9.83807e-07
9.83617e-07
9.8356e-07
1.02854e-06
1.8766e-06
1.62609e-05
0.000345896
0.000965421
0.000983491
0.000983658
0.000982451
1.03236e-06
9.8433e-07
9.83589e-07
9.83752e-07
9.83768e-07
9.83782e-07
9.83535e-07
9.83553e-07
1.9618e-06
1.74156e-05
0.000399318
0.000968387
0.000982853
0.000983536
0.000983464
2.03373e-06
1.03669e-06
9.85113e-07
9.83628e-07
9.83766e-07
9.83815e-07
9.83686e-07
9.83556e-07
9.83182e-07
1.84193e-05
0.000442451
0.000971966
0.000982256
0.000983047
0.000983464
1.94052e-05
2.13233e-06
1.042e-06
9.85597e-07
9.83708e-07
9.83824e-07
9.83812e-07
9.83741e-07
9.83108e-07
9.81821e-07
0.000478701
0.000974641
0.000981853
0.000982992
0.000983039
0.000516499
2.07865e-05
2.21711e-06
1.04655e-06
9.86566e-07
9.83793e-07
9.8382e-07
9.83832e-07
9.83121e-07
9.81802e-07
9.81334e-07
0.000976392
0.000982309
0.000982574
0.000983037
0.000978685
0.000551494
2.12191e-05
2.26696e-06
1.05225e-06
9.8772e-07
9.84064e-07
9.83748e-07
9.83399e-07
9.83092e-07
9.8106e-07
9.81426e-07
0.000982749
0.000982861
0.000982631
0.000982794
0.00098035
0.000530989
2.13069e-05
2.28595e-06
1.05649e-06
9.9251e-07
9.84765e-07
9.8368e-07
9.83301e-07
9.82483e-07
9.82089e-07
9.78826e-07
9.80637e-07
0.000983413
0.000982305
0.000983883
0.000982652
0.000979673
0.00049912
2.01776e-05
2.27112e-06
1.06424e-06
1.00164e-06
9.84186e-07
9.83457e-07
9.8276e-07
9.8213e-07
9.78786e-07
9.79098e-07
9.79861e-07
9.80689e-07
0.000982353
0.00098264
0.000983841
0.000982318
0.000979467
0.000414986
1.91257e-05
2.21278e-06
1.08311e-06
1.00724e-06
9.82862e-07
9.83323e-07
9.82314e-07
9.77834e-07
9.78568e-07
9.83134e-07
9.8232e-07
9.81646e-07
9.81142e-07
0.00098243
0.000983796
0.00098361
0.000961177
0.000260017
1.72615e-05
2.17714e-06
1.17151e-06
9.92539e-07
9.8342e-07
9.83354e-07
9.82765e-07
9.75138e-07
9.75125e-07
9.83076e-07
9.83102e-07
9.83112e-07
9.81776e-07
9.77345e-07
0.000981896
0.00098375
0.000982138
0.000644493
0.000129016
1.50562e-05
2.2745e-06
1.2016e-06
9.81433e-07
9.83546e-07
9.82835e-07
9.78674e-07
9.70498e-07
9.83111e-07
9.82851e-07
9.83053e-07
9.83075e-07
9.82803e-07
9.81629e-07
9.7113e-07
0.00098101
0.000982434
0.000897413
0.00031999
0.000100548
1.20114e-05
3.48507e-06
1.08197e-06
9.83054e-07
9.82887e-07
9.81926e-07
9.7343e-07
9.82832e-07
9.83077e-07
9.8331e-07
9.82827e-07
9.83028e-07
9.83045e-07
9.83053e-07
9.81659e-07
9.76991e-07
0.000978968
0.000973281
0.000572087
0.000283096
0.000102227
2.29055e-05
4.11642e-06
1.00271e-06
9.83505e-07
9.82933e-07
9.76464e-07
9.82887e-07
9.80871e-07
9.8086e-07
9.66733e-07
9.85652e-07
9.6666e-07
9.6569e-07
9.67863e-07
9.82986e-07
9.83e-07
9.83028e-07
9.82765e-07
9.83071e-07
9.8326e-07
0.000976709
0.000863159
0.000466165
0.000466817
0.000205017
8.02663e-05
2.04294e-06
9.83089e-07
9.83438e-07
9.78951e-07
9.83021e-07
9.80918e-07
9.8261e-07
9.81139e-07
9.65101e-07
9.62926e-07
9.82641e-07
9.65066e-07
9.68572e-07
9.6871e-07
9.62903e-07
9.61437e-07
9.61407e-07
9.83039e-07
9.83104e-07
9.83185e-07
9.83091e-07
9.8271e-07
9.83533e-07
0.000971662
0.000744998
0.000622843
0.000826219
0.000527959
0.000101737
1.35766e-06
9.83229e-07
9.82517e-07
9.80868e-07
9.83005e-07
9.82657e-07
9.81075e-07
9.70039e-07
9.70024e-07
9.67093e-07
9.67159e-07
9.61713e-07
9.70725e-07
9.82861e-07
9.87626e-07
9.61687e-07
9.65572e-07
9.65535e-07
9.7121e-07
9.72366e-07
9.72716e-07
9.83871e-07
9.84073e-07
9.83922e-07
9.83183e-07
9.82962e-07
9.83559e-07
0.000954006
0.000784144
0.000910372
0.000964189
0.000760115
3.60109e-05
1.12917e-06
9.83133e-07
9.82413e-07
9.82244e-07
9.81891e-07
9.82812e-07
9.64583e-07
9.64415e-07
9.6891e-07
9.68819e-07
9.72797e-07
9.72556e-07
9.71353e-07
9.7135e-07
9.66695e-07
8.88411e-07
9.1221e-07
8.89672e-07
9.29358e-07
9.83819e-07
9.86096e-07
9.64257e-07
9.64319e-07
9.61678e-07
9.61605e-07
9.66997e-07
9.62873e-07
9.62988e-07
8.88645e-07
9.18735e-07
8.89564e-07
9.29483e-07
8.91205e-07
9.30929e-07
8.96535e-07
9.30447e-07
8.92239e-07
9.32424e-07
8.96496e-07
9.30145e-07
9.8556e-07
9.85653e-07
9.84748e-07
9.83184e-07
9.8297e-07
9.83539e-07
0.000947828
0.000929548
0.000974465
0.000978254
0.00082205
1.72695e-05
1.01895e-06
9.82991e-07
9.82381e-07
9.81858e-07
9.8533e-07
9.66193e-07
9.66238e-07
9.68363e-07
9.68482e-07
9.71595e-07
9.71611e-07
9.71921e-07
9.7195e-07
9.30222e-07
9.23551e-07
8.70126e-07
9.37048e-07
8.73616e-07
8.98251e-07
9.23107e-07
9.32501e-07
8.70089e-07
9.37807e-07
8.73354e-07
8.98147e-07
9.2303e-07
8.99815e-07
9.2716e-07
9.0072e-07
9.25587e-07
9.00732e-07
9.28251e-07
9.00775e-07
8.81272e-07
9.29773e-07
8.85768e-07
9.26527e-07
8.99019e-07
9.15927e-07
8.99349e-07
9.37312e-07
9.85472e-07
9.86006e-07
9.66672e-07
9.66678e-07
9.6782e-07
9.67837e-07
9.69039e-07
9.69368e-07
9.70959e-07
9.71069e-07
8.82364e-07
9.30392e-07
8.85715e-07
9.27166e-07
8.79627e-07
9.273e-07
8.79182e-07
9.24113e-07
8.80034e-07
9.27179e-07
8.79422e-07
9.24153e-07
8.99163e-07
9.24767e-07
8.99519e-07
9.37491e-07
8.97103e-07
9.35865e-07
8.98098e-07
9.3593e-07
9.85649e-07
9.85636e-07
9.84362e-07
9.8301e-07
9.82932e-07
9.83517e-07
0.000960865
0.000974613
0.000977885
0.000978995
0.000824473
8.40205e-06
1.02706e-06
9.82734e-07
9.83004e-07
9.85465e-07
9.65605e-07
9.65838e-07
9.68062e-07
9.68058e-07
9.7133e-07
9.71353e-07
9.70739e-07
9.70763e-07
9.28046e-07
9.02097e-07
9.36816e-07
9.01823e-07
9.3274e-07
9.01996e-07
9.40076e-07
9.01797e-07
9.32243e-07
8.84972e-07
9.36491e-07
8.97916e-07
9.31819e-07
8.85762e-07
9.36685e-07
8.97861e-07
9.30645e-07
7.93267e-07
6.70734e-07
9.05549e-07
9.12683e-07
7.98299e-07
9.30206e-07
7.99996e-07
9.05725e-07
6.69536e-07
9.11297e-07
7.97602e-07
9.04096e-07
8.90993e-07
9.03443e-07
8.87917e-07
9.08256e-07
8.92738e-07
9.05457e-07
8.88017e-07
8.91824e-07
9.37839e-07
8.97808e-07
9.36614e-07
9.11448e-07
9.48919e-07
9.16952e-07
9.47584e-07
9.85688e-07
9.86227e-07
9.67887e-07
9.6792e-07
9.66554e-07
9.66594e-07
9.68964e-07
9.6903e-07
9.69206e-07
9.69269e-07
9.34374e-07
8.88398e-07
9.37376e-07
8.8468e-07
9.33385e-07
8.88986e-07
9.3692e-07
8.85432e-07
9.08909e-07
9.29326e-07
9.07032e-07
9.26894e-07
8.99938e-07
8.81423e-07
9.1842e-07
9.29089e-07
9.06983e-07
9.28647e-07
8.99975e-07
8.81648e-07
8.92893e-07
9.37893e-07
8.97877e-07
9.36783e-07
8.89593e-07
9.32294e-07
8.89955e-07
9.32413e-07
9.11593e-07
9.53388e-07
9.17328e-07
9.47699e-07
9.07659e-07
9.44404e-07
9.08078e-07
9.4433e-07
9.85609e-07
9.85347e-07
9.83166e-07
9.82879e-07
9.82909e-07
9.83505e-07
0.000964923
0.000978986
0.000977933
0.000973367
0.00077392
1.03707e-05
1.11266e-06
9.85132e-07
9.82867e-07
9.66996e-07
9.66985e-07
9.69605e-07
9.69598e-07
9.6397e-07
9.64214e-07
9.61741e-07
9.61685e-07
9.30025e-07
8.88019e-07
9.26866e-07
8.90386e-07
9.2956e-07
8.87933e-07
9.27023e-07
8.90384e-07
9.21883e-07
8.77451e-07
9.16555e-07
8.84231e-07
9.28183e-07
8.77322e-07
9.20648e-07
8.84111e-07
9.16774e-07
8.91614e-07
9.44914e-07
9.07553e-07
9.18856e-07
8.9249e-07
9.44808e-07
9.08396e-07
9.4578e-07
8.98809e-07
9.40501e-07
9.03914e-07
9.45507e-07
8.99709e-07
9.40595e-07
9.03815e-07
9.13874e-07
9.38482e-07
9.01255e-07
9.51726e-07
9.84598e-07
9.85424e-07
9.71694e-07
9.7174e-07
9.69414e-07
9.69448e-07
9.71706e-07
9.71709e-07
9.71478e-07
9.71472e-07
9.29218e-07
8.85315e-07
9.27827e-07
8.82082e-07
9.29097e-07
8.85289e-07
9.27354e-07
8.81721e-07
9.35087e-07
8.88462e-07
9.31104e-07
8.7984e-07
9.34898e-07
8.88469e-07
9.30947e-07
8.79658e-07
9.22348e-07
8.77934e-07
9.44798e-07
8.83201e-07
9.21655e-07
8.78485e-07
9.4395e-07
8.84319e-07
9.35506e-07
7.10265e-07
8.25131e-07
8.92453e-07
8.756e-07
8.68018e-07
9.33147e-07
7.51068e-07
8.2525e-07
8.92416e-07
8.78698e-07
8.68361e-07
9.13788e-07
9.38348e-07
9.01312e-07
9.51532e-07
9.02745e-07
9.39482e-07
9.02602e-07
9.39467e-07
9.84014e-07
9.83268e-07
9.82895e-07
9.82809e-07
9.82946e-07
9.83492e-07
0.000968253
0.000979974
0.000977549
0.000974547
0.000722149
2.33054e-05
1.39197e-06
1.01428e-06
9.83812e-07
9.60356e-07
9.60373e-07
9.61619e-07
9.6136e-07
9.66435e-07
9.66864e-07
9.68124e-07
9.6816e-07
9.38246e-07
8.97679e-07
9.27868e-07
8.95635e-07
9.37695e-07
8.97542e-07
9.27713e-07
8.95566e-07
9.11748e-07
8.7284e-07
9.13676e-07
8.84436e-07
9.1686e-07
8.73314e-07
9.15742e-07
8.8433e-07
8.9652e-07
8.56356e-07
8.94301e-07
8.56153e-07
9.83324e-07
9.8337e-07
9.76563e-07
9.76518e-07
9.73662e-07
9.73671e-07
9.70667e-07
9.70699e-07
9.6876e-07
9.68759e-07
9.23618e-07
8.83715e-07
9.25089e-07
8.87612e-07
9.23813e-07
8.83757e-07
9.25419e-07
8.87598e-07
9.24419e-07
8.87466e-07
9.2483e-07
8.84386e-07
9.25986e-07
8.87438e-07
9.25378e-07
8.84446e-07
9.4016e-07
8.92721e-07
9.37734e-07
8.85659e-07
9.40316e-07
8.92866e-07
9.37575e-07
8.8513e-07
9.14409e-07
8.73606e-07
9.453e-07
8.9282e-07
9.1451e-07
8.73605e-07
9.45411e-07
8.92458e-07
9.8311e-07
9.82891e-07
9.82831e-07
9.8277e-07
9.83007e-07
9.8348e-07
0.000969831
0.00098089
0.00097942
0.00097824
0.000833306
7.06389e-05
2.24631e-06
1.09786e-06
9.59975e-07
9.60069e-07
9.74228e-07
9.74396e-07
9.71374e-07
9.71393e-07
9.6053e-07
9.60295e-07
8.77671e-07
9.1477e-07
8.88981e-07
9.20981e-07
8.85103e-07
9.16242e-07
8.88518e-07
9.21054e-07
8.81157e-07
9.22698e-07
8.81506e-07
9.20037e-07
8.88999e-07
9.23055e-07
8.81491e-07
9.21751e-07
9.44708e-07
9.02737e-07
9.36143e-07
9.03552e-07
9.42927e-07
9.02425e-07
9.36071e-07
9.03707e-07
9.23927e-07
8.89536e-07
9.31292e-07
8.96881e-07
9.24874e-07
8.8983e-07
9.31269e-07
8.96983e-07
9.83333e-07
9.83137e-07
9.83864e-07
9.76021e-07
9.76007e-07
9.74092e-07
9.74111e-07
9.72619e-07
9.72738e-07
9.71637e-07
9.71646e-07
9.22421e-07
8.81467e-07
9.30169e-07
8.89746e-07
9.22244e-07
8.81576e-07
9.30269e-07
8.89635e-07
9.28757e-07
8.94456e-07
9.3171e-07
8.93149e-07
9.30108e-07
8.94386e-07
9.31906e-07
8.93064e-07
8.75327e-07
8.40785e-07
8.74958e-07
8.4087e-07
9.83008e-07
9.82845e-07
9.82786e-07
9.82762e-07
9.83127e-07
9.83562e-07
0.000971574
0.000982406
0.000982143
0.000977905
0.000903542
0.000250256
5.41073e-06
1.42546e-06
9.68138e-07
9.68236e-07
9.92229e-07
9.92413e-07
9.21448e-07
8.74657e-07
8.8399e-07
9.31715e-07
9.1525e-07
8.74619e-07
8.84114e-07
9.25687e-07
9.65238e-07
9.65971e-07
8.88662e-07
9.00144e-07
8.66633e-07
9.27427e-07
8.88667e-07
8.99901e-07
8.66644e-07
9.27464e-07
8.93751e-07
9.30475e-07
8.86857e-07
9.3021e-07
8.93804e-07
9.33686e-07
8.86807e-07
9.32021e-07
9.0099e-07
8.07494e-07
8.95065e-07
8.08609e-07
9.83927e-07
9.83433e-07
9.83231e-07
9.73391e-07
9.73282e-07
9.73516e-07
9.73544e-07
9.68096e-07
9.69073e-07
9.70231e-07
9.71078e-07
9.11384e-07
9.42943e-07
9.14925e-07
9.42919e-07
9.11635e-07
9.43005e-07
9.15194e-07
9.43375e-07
9.02645e-07
9.43767e-07
9.01458e-07
9.42811e-07
9.02732e-07
9.42777e-07
9.01315e-07
9.42896e-07
9.42752e-07
8.94939e-07
9.38312e-07
8.90966e-07
9.4189e-07
8.94929e-07
9.38089e-07
8.90907e-07
9.51248e-07
9.14111e-07
9.44152e-07
9.07756e-07
9.51388e-07
9.14084e-07
9.44095e-07
9.07709e-07
9.82968e-07
9.82821e-07
9.8183e-07
9.82905e-07
9.83412e-07
0.00097327
0.000982718
0.000980902
0.000977495
0.000918551
0.000490057
1.84027e-05
1.51219e-06
1.51163e-06
2.43639e-06
2.43755e-06
9.14642e-07
8.73228e-07
9.37853e-07
8.70587e-07
9.16816e-07
8.72024e-07
9.38046e-07
8.69267e-07
9.9607e-07
9.96014e-07
9.17545e-07
8.74576e-07
8.80158e-07
9.18381e-07
9.20153e-07
8.74569e-07
8.80223e-07
9.1861e-07
9.17467e-07
8.46075e-07
9.38356e-07
8.92173e-07
9.21274e-07
8.52542e-07
9.36775e-07
8.93662e-07
8.47297e-07
9.21192e-07
8.83094e-07
8.82195e-07
8.39086e-07
9.35238e-07
8.85507e-07
8.67651e-07
9.83829e-07
9.84785e-07
9.83223e-07
9.7515e-07
9.67749e-07
9.6782e-07
9.75032e-07
9.75369e-07
9.68767e-07
9.68951e-07
9.4018e-07
9.07592e-07
9.0132e-07
9.43916e-07
9.41325e-07
9.07165e-07
9.00355e-07
9.43953e-07
9.21725e-07
9.47498e-07
9.21183e-07
9.48248e-07
9.21766e-07
9.47755e-07
9.21321e-07
9.48424e-07
9.04668e-07
9.44561e-07
9.01002e-07
9.41937e-07
9.04671e-07
9.44645e-07
9.00934e-07
9.41904e-07
8.99205e-07
8.70358e-07
8.98983e-07
8.70363e-07
9.82926e-07
9.82789e-07
9.78542e-07
9.83346e-07
0.000975375
0.000982554
0.000982468
0.000977796
0.000869479
0.000569725
2.7412e-05
2.73964e-05
0.000163312
0.000163314
1.6756e-06
1.67407e-06
3.89413e-06
3.89364e-06
9.23051e-07
8.71343e-07
9.37042e-07
8.78063e-07
9.27275e-07
8.71183e-07
9.36856e-07
8.77983e-07
8.86056e-07
1.21369e-06
9.51564e-07
1.06916e-06
8.87046e-07
1.21959e-06
9.5453e-07
1.07001e-06
9.38331e-07
8.90228e-07
8.92099e-07
9.39355e-07
9.42947e-07
8.90194e-07
8.91954e-07
9.37981e-07
9.25757e-07
8.87013e-07
9.2786e-07
8.91535e-07
9.34093e-07
8.91187e-07
9.26293e-07
8.96643e-07
9.8354e-07
9.85867e-07
9.84318e-07
9.74601e-07
9.51032e-07
9.51078e-07
9.56987e-07
9.56959e-07
9.57923e-07
9.57771e-07
9.41396e-07
8.85737e-07
9.23659e-07
8.81551e-07
9.42094e-07
8.864e-07
9.24535e-07
8.82163e-07
9.46186e-07
9.17284e-07
9.43035e-07
9.27294e-07
9.22912e-07
8.98822e-07
9.46667e-07
9.17607e-07
9.42616e-07
9.27189e-07
9.22966e-07
8.98746e-07
9.3892e-07
9.22207e-07
9.40276e-07
9.22177e-07
8.80544e-07
9.35834e-07
9.1286e-07
9.10097e-07
8.87623e-07
9.36311e-07
9.13065e-07
9.1083e-07
9.83033e-07
9.7991e-07
9.79959e-07
0.000977953
0.000983071
0.000982375
0.000978765
0.000854056
0.000171663
4.80534e-05
4.8167e-05
0.000166556
0.000166556
1.93105e-06
1.25e-06
1.82549e-06
2.57393e-06
1.72311e-06
9.47121e-07
1.25737e-06
1.93284e-06
9.45788e-07
1.82337e-06
2.58378e-06
1.72007e-06
6.77397e-06
5.90167e-06
5.44125e-06
4.07688e-06
6.86827e-06
5.88552e-06
5.48787e-06
4.07269e-06
9.30252e-07
8.74529e-07
9.4815e-07
8.81723e-07
9.34337e-07
8.74693e-07
9.49907e-07
8.81641e-07
8.8453e-07
1.14572e-06
8.84492e-07
1.14968e-06
8.58339e-07
8.81584e-07
8.57635e-07
8.71847e-07
9.0895e-07
8.61906e-07
9.11919e-07
8.6235e-07
9.84522e-07
9.85267e-07
9.86795e-07
9.84332e-07
9.34314e-07
9.34449e-07
9.47908e-07
9.48148e-07
9.51809e-07
9.51922e-07
9.47944e-07
9.47956e-07
8.58514e-07
8.8672e-07
8.46465e-07
9.12179e-07
8.88601e-07
9.04312e-07
8.59629e-07
8.87607e-07
8.4734e-07
9.1227e-07
8.88819e-07
9.02028e-07
9.3427e-07
9.10779e-07
9.33387e-07
9.10608e-07
9.35468e-07
9.10894e-07
9.26155e-07
9.47276e-07
9.05976e-07
9.24549e-07
9.35639e-07
9.11011e-07
9.27457e-07
9.46919e-07
9.05925e-07
9.2451e-07
9.34639e-07
9.15017e-07
9.35153e-07
9.15321e-07
9.8044e-07
9.80422e-07
0.00098117
0.000983023
0.000981634
0.000913656
0.000340297
0.000116629
0.000116316
0.000137489
0.00013771
2.31641e-05
2.32937e-05
5.4091e-05
5.41608e-05
1.31799e-06
2.45906e-06
2.91948e-06
1.18416e-06
4.04604e-06
4.88076e-06
1.31858e-06
2.46606e-06
1.1759e-06
2.91093e-06
4.06866e-06
4.85692e-06
9.75001e-06
1.59739e-05
5.70632e-06
7.68375e-06
9.90085e-06
1.6031e-05
5.74804e-06
7.65534e-06
9.67813e-07
8.27311e-07
9.68343e-07
8.27331e-07
9.81177e-07
9.86443e-07
9.86774e-07
9.84342e-07
9.70369e-07
9.47635e-07
9.47732e-07
9.6291e-07
9.62854e-07
8.52058e-07
8.13863e-07
8.73737e-07
8.39796e-07
8.51996e-07
8.14201e-07
8.75219e-07
8.40576e-07
8.68105e-07
8.80197e-07
8.32392e-07
8.84399e-07
8.49644e-07
8.4525e-07
8.67762e-07
8.81327e-07
8.32984e-07
8.8402e-07
8.50091e-07
8.44908e-07
8.54836e-07
8.88491e-07
8.85542e-07
9.17573e-07
8.55124e-07
8.88312e-07
8.86265e-07
9.17517e-07
9.04643e-07
8.76106e-07
9.04504e-07
8.76109e-07
8.69504e-07
8.48819e-07
9.30879e-07
9.12947e-07
8.69329e-07
8.48863e-07
9.30789e-07
9.12653e-07
9.80814e-07
0.000983158
0.000982062
0.000970518
0.000713156
0.00014772
1.44786e-05
1.45968e-05
4.18542e-05
4.19866e-05
1.96042e-05
9.26313e-06
1.02362e-05
1.13592e-05
1.89652e-05
9.38698e-06
1.0077e-05
1.15757e-05
8.6652e-06
8.71442e-06
8.51956e-06
7.00569e-06
6.62629e-06
7.47136e-06
8.6321e-06
6.99972e-06
6.68068e-06
7.44408e-06
9.76506e-07
9.84106e-07
9.86051e-07
9.83608e-07
9.83461e-07
9.22313e-07
9.22752e-07
9.31544e-07
9.32844e-07
9.55989e-07
9.57085e-07
9.36706e-07
9.36081e-07
8.25324e-07
8.3522e-07
8.70248e-07
8.47926e-07
8.22609e-07
8.3549e-07
8.7215e-07
8.47966e-07
8.67398e-07
8.17991e-07
8.41071e-07
7.63062e-07
8.4578e-07
7.9527e-07
8.69215e-07
8.17615e-07
7.63208e-07
8.41488e-07
8.4448e-07
7.95681e-07
8.62965e-07
8.83438e-07
8.63188e-07
8.84151e-07
0.000981871
0.000980124
0.000931548
0.000437672
7.48637e-05
7.48489e-05
0.000126669
0.000127432
6.88244e-06
6.90002e-06
2.10087e-05
2.1131e-05
5.79962e-06
5.86092e-06
4.18189e-06
4.84878e-06
5.80598e-06
5.89605e-06
4.17391e-06
4.86275e-06
3.96543e-06
4.97153e-06
3.51417e-06
3.05127e-06
3.96232e-06
5.02172e-06
3.50239e-06
3.06118e-06
6.30928e-06
3.18134e-06
6.35308e-06
3.17591e-06
9.64526e-07
9.88098e-07
9.83349e-07
9.83249e-07
9.60076e-07
8.98077e-07
8.9848e-07
9.25699e-07
9.25784e-07
9.22657e-07
9.22807e-07
7.78417e-07
8.55545e-07
8.15703e-07
8.26655e-07
7.79089e-07
8.55681e-07
8.15908e-07
8.26751e-07
8.42676e-07
8.32121e-07
8.672e-07
8.47551e-07
8.42669e-07
8.32413e-07
8.69208e-07
8.45057e-07
0.000980047
0.00097752
0.000815317
0.000146103
1.75561e-05
1.74957e-05
4.35632e-05
4.35315e-05
3.23611e-06
3.73172e-06
5.68766e-06
3.25017e-06
3.82048e-06
4.23011e-06
3.23492e-06
3.74996e-06
5.68875e-06
3.25296e-06
3.80738e-06
4.22377e-06
8.62347e-06
8.60872e-06
2.71251e-06
3.90344e-06
2.58396e-06
3.75157e-06
2.71299e-06
3.89831e-06
2.58394e-06
3.73833e-06
3.24899e-06
2.76765e-06
3.24869e-06
2.76787e-06
9.75838e-07
9.85171e-07
9.83294e-07
9.75248e-07
8.97974e-07
8.98562e-07
8.8149e-07
8.83683e-07
8.97524e-07
8.99808e-07
8.91729e-07
8.90921e-07
7.87702e-07
7.65697e-07
8.41278e-07
7.53748e-07
7.91679e-07
7.90767e-07
7.88957e-07
7.65642e-07
8.4168e-07
7.54421e-07
7.91532e-07
7.90846e-07
8.25394e-07
8.10303e-07
8.25642e-07
8.10394e-07
7.59651e-07
8.19119e-07
7.61135e-07
8.19238e-07
0.000978293
0.00095429
0.000315122
5.84795e-05
5.68672e-05
8.24833e-05
8.36338e-05
7.70176e-06
7.7213e-06
3.34629e-05
3.31336e-05
3.17886e-06
3.19947e-06
3.04708e-06
3.38826e-06
2.77656e-06
3.90277e-06
3.18857e-06
3.19613e-06
3.03132e-06
3.40911e-06
2.77631e-06
3.91241e-06
6.65073e-06
3.60581e-06
4.35442e-06
2.80476e-06
6.67282e-06
3.58299e-06
4.37493e-06
2.80634e-06
9.9759e-07
9.83604e-07
9.82869e-07
9.84801e-07
9.42463e-07
9.45359e-07
9.58507e-07
9.31524e-07
9.2385e-07
8.98134e-07
7.86287e-07
7.5974e-07
7.57019e-07
8.10527e-07
7.49003e-07
7.90816e-07
7.56332e-07
8.13812e-07
7.46096e-07
7.92609e-07
7.86769e-07
7.60837e-07
7.94236e-07
8.08862e-07
7.29124e-07
7.35098e-07
7.94833e-07
8.08567e-07
7.30393e-07
7.35399e-07
7.74166e-07
7.21202e-07
7.74906e-07
7.25982e-07
0.000972084
0.000686975
7.22758e-05
3.9522e-05
3.78368e-05
4.26756e-05
4.15975e-05
6.09389e-06
2.7559e-06
1.18805e-05
1.17631e-05
5.34211e-06
3.07216e-05
6.13549e-06
2.75583e-06
1.20535e-05
1.19566e-05
5.45633e-06
3.10474e-05
3.81329e-05
3.64558e-05
2.75948e-06
3.76983e-06
2.7603e-06
3.7967e-06
4.85477e-06
2.79041e-06
4.88752e-06
2.78433e-06
9.92107e-07
9.83481e-07
9.89149e-07
1.07335e-06
1.07272e-06
1.15514e-06
1.15446e-06
1.17591e-06
1.17671e-06
1.10253e-06
1.10719e-06
9.80972e-07
7.57441e-07
9.06756e-07
7.74369e-07
8.23509e-07
7.50864e-07
9.57502e-07
8.22494e-07
7.50491e-07
7.58316e-07
8.94621e-07
7.74841e-07
8.34583e-07
7.74972e-07
8.46188e-07
6.133e-07
8.49862e-07
8.35437e-07
6.11424e-07
7.70426e-07
0.000941216
0.000475343
3.77653e-05
3.51797e-05
3.3536e-05
3.86759e-05
3.60981e-05
7.9868e-06
4.95038e-06
3.05283e-05
3.12718e-05
3.78482e-05
3.61332e-05
8.06469e-06
5.01366e-06
3.02077e-05
3.10645e-05
3.74846e-05
3.4609e-05
3.54099e-05
3.28075e-05
3.22177e-05
2.17701e-05
3.39422e-05
3.24572e-05
3.07216e-05
1.94424e-05
5.67558e-06
6.67959e-06
5.70865e-06
6.69105e-06
9.84572e-07
9.84234e-07
1.01597e-06
1.36896e-06
1.35005e-06
1.87509e-06
1.85364e-06
2.16299e-06
2.15659e-06
1.22402e-06
8.41136e-07
8.54292e-07
1.51198e-06
9.31282e-07
1.83235e-06
1.198e-06
8.45647e-07
8.53953e-07
1.53102e-06
9.37019e-07
1.87351e-06
1.10366e-06
8.51085e-07
8.57861e-07
6.96345e-07
8.46551e-07
6.96575e-07
1.1021e-06
8.57768e-07
0.000910055
5.78419e-05
0.000218066
5.99951e-05
5.15661e-05
0.000157553
0.000349738
0.000256495
2.37253e-05
2.64884e-05
3.70644e-05
2.38227e-05
2.65285e-05
3.71003e-05
2.07629e-05
3.83217e-05
1.51845e-05
3.48632e-05
3.09428e-05
2.90846e-05
2.06754e-05
3.84026e-05
1.51185e-05
3.33602e-05
2.86265e-05
2.74657e-05
2.79332e-05
3.72539e-05
2.79229e-05
3.71729e-05
9.83497e-07
9.82465e-07
1.04798e-06
1.66094e-06
1.60779e-06
3.49082e-06
3.40638e-06
4.84463e-06
2.56071e-06
5.00904e-06
3.73877e-06
2.95654e-06
1.34473e-06
4.96765e-06
3.05745e-06
1.34501e-06
2.56295e-06
5.04329e-06
3.91493e-06
1.40365e-06
1.05458e-06
2.22932e-06
1.31522e-06
1.37689e-06
1.06325e-06
2.23363e-06
1.31684e-06
1.24189e-06
1.10117e-06
1.19394e-06
1.10188e-06
0.000211402
0.000312989
8.85787e-05
0.000535903
9.40485e-05
0.000432894
0.000732876
0.000580034
1.70785e-05
1.55428e-05
1.09877e-05
1.70551e-05
3.6772e-05
9.73182e-06
2.65883e-05
3.97795e-05
1.60118e-05
1.86275e-05
1.02196e-05
1.74936e-05
3.65214e-05
8.81204e-06
3.12996e-05
4.12027e-05
2.2369e-05
2.64231e-05
2.08828e-05
2.5874e-05
1.87838e-05
2.64453e-05
1.89906e-05
2.70095e-05
9.83345e-07
9.83978e-07
9.75175e-07
2.01242e-06
1.94364e-06
9.75212e-07
9.92151e-07
9.89954e-07
4.46346e-06
5.45137e-06
3.77016e-06
4.45893e-06
5.45141e-06
3.91371e-06
3.94584e-06
5.66591e-06
2.35182e-06
5.17477e-06
3.90739e-06
2.50031e-06
5.71033e-06
5.32362e-06
1.81911e-06
1.53602e-06
3.36572e-06
1.74568e-06
1.8187e-06
1.53634e-06
3.32391e-06
1.75307e-06
0.000528734
0.000838028
0.000221153
3.43908e-05
5.00167e-05
0.000927282
0.00024782
3.77717e-05
5.4191e-05
0.000930196
0.000812659
0.000826487
1.47099e-05
2.15951e-05
1.63608e-05
8.37988e-06
6.12789e-06
1.09169e-05
1.5854e-05
1.63199e-05
2.34471e-05
8.35162e-06
5.95329e-06
9.56808e-06
1.93826e-05
2.45686e-05
1.92245e-05
2.42874e-05
9.85013e-07
9.8793e-07
9.69431e-07
1.22935e-06
1.2018e-06
9.69518e-07
9.78522e-07
9.78185e-07
4.87981e-06
5.30128e-06
2.92124e-06
5.18179e-06
2.93942e-06
2.4067e-06
4.49129e-06
1.63455e-06
4.8168e-06
5.47487e-06
2.94179e-06
5.41121e-06
2.95692e-06
2.42581e-06
4.1407e-06
1.62611e-06
5.27681e-06
5.40351e-06
3.15817e-06
2.89212e-06
5.35931e-06
4.15115e-06
5.72452e-06
3.10381e-06
0.000938426
0.000951974
0.000888545
0.000891476
0.000951715
0.000950032
0.000950073
0.000910164
3.13397e-05
0.000121498
5.93894e-05
6.75787e-05
0.000807439
0.000672089
0.000585191
0.000951817
0.000917224
0.000892681
0.00090266
3.81035e-05
0.000105034
9.01375e-05
6.61292e-05
0.000850356
0.000631469
0.000550413
0.000952216
0.000917362
0.000892441
1.28095e-05
2.84543e-05
5.84932e-06
1.37252e-05
1.44917e-05
2.75239e-05
5.63098e-06
1.87584e-05
9.86136e-07
9.88885e-07
9.71261e-07
1.02659e-06
9.91184e-07
1.5692e-06
1.02398e-06
9.86718e-07
1.5301e-06
9.7473e-07
9.73218e-07
9.7416e-07
5.63763e-06
2.44401e-06
5.42336e-06