/*--------------------------------*- C++ -*----------------------------------*\
| =========                 |                                                 |
| \\      /  F ield         | OpenFOAM: The Open Source CFD Toolbox           |
|  \\    /   O peration     | Version:  5.x                                   |
|   \\  /    A nd           | Web:      www.OpenFOAM.org                      |
|    \\/     M anipulation  |                                                 |
\*---------------------------------------------------------------------------*/
FoamFile
{
    version     2.0;
    format      ascii;
    class       volVectorField;
    location    "2.3";
    object      U;
}
// * * * * * * * * * * * * * * * * * * * * * * * * * * * * * * * * * * * * * //

dimensions      [0 1 -1 0 0 0 0];

internalField   nonuniform List<vector> 
12160
(
(0.13758 0 0.000362373)
(0.119017 0 0.00174468)
(0.137596 0 -0.00184269)
(0.127203 0 0.00365629)
(0.119006 0 -0.0023903)
(0.137287 0 -0.000845629)
(0.121388 0 0.00487476)
(0.127102 0 -0.00172965)
(0.118551 0 0.00136405)
(0.136897 0 -0.00326011)
(0.112973 0 0.00523308)
(0.121311 0 9.51158e-05)
(0.127111 0 0.00575796)
(0.117717 0 -0.00332809)
(0.136192 0 -0.000979403)
(0.1023 0 0.00509454)
(0.112394 0 0.00258497)
(0.121533 0 0.0101367)
(0.125362 0 -0.000154986)
(0.116581 0 0.00163921)
(0.134741 0 -0.00361234)
(0.0909136 0 0.00477868)
(0.102107 0 0.00453464)
(0.113298 0 0.0128882)
(0.119435 0 0.00472397)
(0.125234 0 0.00833285)
(0.113372 0 -0.00407707)
(0.133671 0 0.00154402)
(0.0788996 0 0.00461675)
(0.0909019 0 0.00558483)
(0.103079 0 0.0144042)
(0.110696 0 0.0101791)
(0.119391 0 0.0152481)
(0.120014 0 0.00145704)
(0.111952 0 0.00334184)
(0.127163 0 -0.00091071)
(0.0661892 0 0.0045338)
(0.079031 0 0.00660142)
(0.0915257 0 0.0149242)
(0.101759 0 0.0139415)
(0.112071 0 0.0200763)
(0.112776 0 0.00888301)
(0.120698 0 0.0121264)
(0.0953673 0 -0.00371903)
(0.0632632 0 0.0142234)
(0.0529199 0 0.00456577)
(0.06641 0 0.00733906)
(0.0797042 0 0.0156697)
(0.090828 0 0.015943)
(0.103634 0 0.0232144)
(0.107488 0 0.0165591)
(0.113988 0 0.0186694)
(0.104269 0 0.00330818)
(0.0363207 0 0.00770461)
(-0.196205 0 -0.0517376)
(0.0390667 0 0.00467325)
(0.0532008 0 0.00797536)
(0.06699 0 0.0163406)
(0.079577 0 0.0177257)
(0.0927655 0 0.0247783)
(0.101426 0 0.0222605)
(0.109826 0 0.024601)
(0.09763 0 0.0123697)
(0.0580579 0 0.0137172)
(-0.246176 0 -0.00413052)
(0.0142342 0 0.175943)
(0.0245971 0 0.00482571)
(0.0393751 0 0.00855479)
(0.0537186 0 0.0171282)
(0.067109 0 0.0191583)
(0.0809857 0 0.0265171)
(0.0920242 0 0.025965)
(0.103766 0 0.029709)
(0.098412 0 0.0218003)
(0.0743603 0 0.0176714)
(-0.331231 0 -0.00905879)
(0.259681 0 0.0488511)
(0.00790366 0 -0.145213)
(0.00970562 0 0.00493801)
(0.0248874 0 0.00912404)
(0.0398598 0 0.0180145)
(0.0539943 0 0.0204147)
(0.0680127 0 0.0281612)
(0.0809539 0 0.0290086)
(0.0939762 0 0.0334746)
(0.0973753 0 0.0305211)
(0.0846399 0 0.0226595)
(-0.314888 0 0.00140068)
(0.0536915 0 0.0470549)
(0.14279 0 0.000696089)
(-0.100409 0 0.0984249)
(-0.00539149 0 0.00481087)
(0.00983915 0 0.00956342)
(0.025313 0 0.019019)
(0.0402613 0 0.0216536)
(0.0547655 0 0.0296563)
(0.0684502 0 0.0311771)
(0.0821428 0 0.0368147)
(0.0914782 0 0.0369277)
(0.0969826 0 0.0299111)
(-0.222744 0 0.0130278)
(-0.0839021 0 -0.0193102)
(0.0766796 0 0.132964)
(-0.138548 0 0.00749326)
(0.0469362 0 -0.0336417)
(-0.0195128 0 0.00434279)
(-0.00547644 0 0.00953884)
(0.0101109 0 0.0198282)
(0.025718 0 0.023062)
(0.0410919 0 0.0313148)
(0.0555016 0 0.0329611)
(0.0686937 0 0.0393356)
(0.0824927 0 0.042208)
(0.0999892 0 0.0364077)
(-0.137154 0 0.0251609)
(-0.149552 0 -0.0490243)
(0.0721693 0 0.0732225)
(-0.0336961 0 0.0678597)
(0.0920326 0 -0.0104538)
(-0.0602178 0 0.0311771)
(-0.0318077 0 0.00358678)
(-0.0200479 0 0.00883094)
(-0.00540355 0 0.0197823)
(0.0101567 0 0.0242821)
(0.0266045 0 0.0333851)
(0.0420893 0 0.0350598)
(0.0554343 0 0.0412038)
(0.0708397 0 0.0451664)
(0.099964 0 0.0423972)
(-0.0978923 0 0.0365203)
(-0.191402 0 -0.0229279)
(0.0422182 0 0.0476769)
(-0.00155308 0 0.00930031)
(0.0523756 0 0.0896057)
(-0.0982572 0 -0.00606886)
(-0.0410647 0 0.00253771)
(-0.032817 0 0.00735404)
(-0.0205363 0 0.0183742)
(-0.00618186 0 0.0244589)
(0.0108066 0 0.0352852)
(0.0276846 0 0.0379889)
(0.0422487 0 0.0431949)
(0.0589656 0 0.0468907)
(0.0986855 0 0.0461236)
(-0.0512239 0 0.0435775)
(-0.237035 0 0.00441042)
(0.00898702 0 0.055082)
(-0.0115997 0 -0.0126329)
(0.0441724 0 0.0511179)
(-0.0425361 0 0.0692579)
(-0.0455132 0 0.00123897)
(-0.0421794 0 0.00458202)
(-0.034135 0 0.0153304)
(-0.0223473 0 0.0228816)
(-0.00598169 0 0.0358945)
(0.011366 0 0.040975)
(0.0280872 0 0.0462763)
(0.0470063 0 0.0494412)
(0.0973495 0 0.048799)
(-0.00632916 0 0.0465762)
(-0.288992 0 0.00895502)
(0.0121999 0 0.0658089)
(-0.00484794 0 0.00232596)
(0.0166408 0 0.0377851)
(-0.0243318 0 0.0334225)
(-0.0446381 0 -0.000154428)
(-0.0468928 0 0.000676392)
(-0.0444924 0 0.0103986)
(-0.0370195 0 0.0191087)
(-0.0231498 0 0.0341855)
(-0.00655494 0 0.0422695)
(0.0114083 0 0.0496922)
(0.0337263 0 0.0547419)
(0.0927849 0 0.0527414)
(0.0346659 0 0.0495384)
(-0.323538 0 0.012794)
(0.0188616 0 0.0699147)
(0.00429965 0 0.0131781)
(-0.00256255 0 0.035776)
(-0.0107938 0 0.0201472)
(-0.0379601 0 -0.00182756)
(-0.0462364 0 -0.00398628)
(-0.0500445 0 0.00382032)
(-0.048263 0 0.0124142)
(-0.0395047 0 0.0293648)
(-0.0255404 0 0.0403023)
(-0.00752546 0 0.051639)
(0.0167858 0 0.0610964)
(0.0827642 0 0.0596753)
(0.064206 0 0.0558906)
(-0.205853 0 0.018277)
(0.0372626 0 0.0149791)
(0.029408 0 0.0111591)
(-0.00631653 0 0.0397845)
(-0.000757967 0 0.0228309)
(-0.0256057 0 -0.00342575)
(-0.0396672 0 -0.00875494)
(-0.0497197 0 -0.00382758)
(-0.0545056 0 0.00308471)
(-0.0528053 0 0.0204892)
(-0.044015 0 0.0342963)
(-0.0278782 0 0.0504665)
(-0.00414671 0 0.0650885)
(0.065433 0 0.0673686)
(0.078743 0 0.0680952)
(-0.0821696 0 0.0335766)
(0.0394988 0 -0.0576231)
(0.0511436 0 0.00810743)
(-0.0106045 0 0.0361921)
(0.00521383 0 0.0270161)
(-0.00842583 0 -0.00478383)
(-0.0272017 0 -0.0133801)
(-0.0430987 0 -0.0121216)
(-0.0549003 0 -0.00804843)
(-0.0608528 0 0.00817021)
(-0.059298 0 0.0231119)
(-0.0487925 0 0.0453744)
(-0.0283929 0 0.0641678)
(0.0407658 0 0.0728781)
(0.0757442 0 0.0828708)
(-0.00221928 0 0.0556664)
(0.0437282 0 -0.0383711)
(0.0295517 0 0.0054009)
(-0.0112505 0 0.0115854)
(0.0167919 0 0.0230011)
(0.0128919 0 -0.00582769)
(-0.00976488 0 -0.017496)
(-0.0304854 0 -0.0200847)
(-0.0486383 0 -0.0196918)
(-0.0619965 0 -0.00648708)
(-0.0687137 0 0.00739626)
(-0.0671662 0 0.0340074)
(-0.054465 0 0.0573094)
(0.00869937 0 0.0737665)
(0.0537663 0 0.0953546)
(0.0295847 0 0.0806824)
(0.0472848 0 0.0176832)
(-0.014024 0 0.0217819)
(-0.0121174 0 -0.0202316)
(0.0223289 0 0.0124689)
(0.0369652 0 -0.00651288)
(0.0119015 0 -0.0206489)
(-0.0125629 0 -0.0270702)
(-0.0355926 0 -0.0310503)
(-0.055728 0 -0.0223896)
(-0.0712568 0 -0.0112827)
(-0.0793162 0 0.0156087)
(-0.0776275 0 0.0403932)
(-0.0246931 0 0.0684295)
(0.0212647 0 0.0992035)
(0.0221862 0 0.100577)
(0.0391755 0 0.0717045)
(-0.0175681 0 0.0441538)
(-0.00687449 0 -0.00793883)
(0.0119688 0 -0.00183288)
(0.0619519 0 -0.00679526)
(0.0363986 0 -0.0227622)
(0.00983416 0 -0.032373)
(-0.0167843 0 -0.0411187)
(-0.0424741 0 -0.0376572)
(-0.0656654 0 -0.0307897)
(-0.0828181 0 -0.00737898)
(-0.0933187 0 0.0154226)
(-0.0546141 0 0.0535698)
(-0.01443 0 0.0909392)
(-0.0172963 0 0.108048)
(0.0296282 0 0.116439)
(0.00914757 0 0.0734775)
(-0.00411346 0 0.0236215)
(-0.011239 0 0.011264)
(0.0867945 0 -0.00667378)
(0.0618561 0 -0.0236288)
(0.0351983 0 -0.0359256)
(0.00675892 0 -0.0489035)
(-0.0227388 0 -0.0510911)
(-0.0515903 0 -0.0498836)
(-0.0774804 0 -0.0329494)
(-0.0997311 0 -0.0128262)
(-0.0782156 0 0.028573)
(-0.0472342 0 0.0694577)
(-0.0712563 0 0.101672)
(0.00609141 0 0.141405)
(0.0376029 0 0.106866)
(-0.00993305 0 0.0623468)
(-0.020586 0 0.0314641)
(0.110319 0 -0.00621782)
(0.0871434 0 -0.0233035)
(0.0616184 0 -0.037329)
(0.033484 0 -0.0540833)
(0.00230797 0 -0.0614103)
(-0.0302705 0 -0.0668565)
(-0.0632665 0 -0.0580214)
(-0.0949811 0 -0.0419266)
(-0.0911584 0 -0.00569713)
(-0.0671227 0 0.0353314)
(-0.124685 0 0.0793181)
(-0.0210254 0 0.142704)
(0.0551073 0 0.130288)
(-0.00158384 0 0.101843)
(-0.0142591 0 0.0608818)
(0.131531 0 -0.00545269)
(0.11106 0 -0.0219328)
(0.0878202 0 -0.0367648)
(0.0613773 0 -0.0561299)
(0.0309292 0 -0.0680919)
(-0.00306312 0 -0.0801898)
(-0.0400576 0 -0.079537)
(-0.0792789 0 -0.0699875)
(-0.0903676 0 -0.0444085)
(-0.0728928 0 -0.00505108)
(-0.167446 0 0.0407369)
(-0.0563014 0 0.117236)
(0.0876688 0 0.1331)
(0.0190272 0 0.122677)
(-0.00724086 0 0.0930939)
(0.149749 0 -0.0044676)
(0.132598 0 -0.0197594)
(0.11251 0 -0.0344041)
(0.0889665 0 -0.0552152)
(0.0609321 0 -0.0707102)
(0.028015 0 -0.0890081)
(-0.0103869 0 -0.0957847)
(-0.0542247 0 -0.0960951)
(-0.0756479 0 -0.0832614)
(-0.0676258 0 -0.0469156)
(-0.184154 0 -0.0063823)
(-0.120554 0 0.0687442)
(0.119239 0 0.131272)
(0.0349096 0 0.116704)
(0.0025233 0 0.112091)
(0.164595 0 -0.0033674)
(0.151048 0 -0.0170169)
(0.134635 0 -0.0306216)
(0.114921 0 -0.0517637)
(0.0904763 0 -0.0693904)
(0.0605877 0 -0.0925261)
(0.0237632 0 -0.106063)
(-0.020999 0 -0.116982)
(-0.0507931 0 -0.116527)
(-0.0538466 0 -0.0849752)
(-0.16637 0 -0.0575143)
(-0.194543 0 -0.00741034)
(0.150495 0 0.113011)
(0.0517374 0 0.0937669)
(0.0117378 0 0.111042)
(0.175925 0 -0.00227239)
(0.166024 0 -0.0139049)
(0.153525 0 -0.0258045)
(0.13809 0 -0.0463415)
(0.11801 0 -0.0646889)
(0.0926243 0 -0.0908435)
(0.0598767 0 -0.109995)
(0.0182297 0 -0.130467)
(-0.0199558 0 -0.141723)
(-0.0346373 0 -0.117636)
(-0.134932 0 -0.10512)
(-0.217991 0 -0.0799472)
(0.173766 0 0.0453369)
(0.0790318 0 0.0529882)
(0.0164035 0 0.0962354)
(0.18379 0 -0.00115919)
(0.177415 0 -0.0106286)
(0.168815 0 -0.0204054)
(0.157696 0 -0.0395385)
(0.142348 0 -0.0573444)
(0.122412 0 -0.0847311)
(0.09541 0 -0.107794)
(0.0596742 0 -0.135607)
(0.0153802 0 -0.157435)
(-0.0115411 0 -0.143188)
(-0.095447 0 -0.145317)
(-0.186775 0 -0.132645)
(0.180476 0 -0.0572693)
(0.110172 0 -0.0083919)
(0.0175206 0 0.0667411)
(0.188326 0 -5.75713e-06)
(0.185312 0 -0.00733594)
(0.18036 0 -0.0148114)
(0.173327 0 -0.0319164)
(0.162795 0 -0.0480497)
(0.14868 0 -0.075013)
(0.12822 0 -0.100158)
(0.100034 0 -0.131782)
(0.0515428 0 -0.162539)
(0.0125191 0 -0.159562)
(-0.0465996 0 -0.174879)
(-0.132344 0 -0.173963)
(0.148254 0 -0.145292)
(0.11829 0 -0.0635465)
(0.00266369 0 0.0106082)
(0.189672 0 0.00127883)
(0.18989 0 -0.00411755)
(0.188245 0 -0.00923483)
(0.184982 0 -0.0240376)
(0.178976 0 -0.0377369)
(0.170437 0 -0.0633262)
(0.156926 0 -0.0888762)
(0.135809 0 -0.121978)
(0.0852292 0 -0.157613)
(0.0395945 0 -0.164538)
(0.0156998 0 -0.193329)
(-0.0648338 0 -0.209855)
(0.0972929 0 -0.207758)
(0.101799 0 -0.0973486)
(-0.00863369 0 -0.0580864)
(0.188067 0 0.00224818)
(0.191197 0 -0.00106404)
(0.192651 0 -0.00366365)
(0.192983 0 -0.0162424)
(0.19086 0 -0.0272118)
(0.187125 0 -0.0506409)
(0.179546 0 -0.0730128)
(0.165453 0 -0.106864)
(0.117474 0 -0.142924)
(0.072203 0 -0.160759)
(0.0898532 0 -0.204911)
(0.00741767 0 -0.246004)
(0.0534889 0 -0.257542)
(0.0821865 0 -0.139574)
(-0.000100788 0 -0.111765)
(0.183853 0 0.00319331)
(0.189482 0 0.00199738)
(0.193979 0 0.00183567)
(0.197607 0 -0.00860772)
(0.198772 0 -0.0169444)
(0.19889 0 -0.037953)
(0.19638 0 -0.0556273)
(0.188136 0 -0.0900799)
(0.145778 0 -0.120579)
(0.108483 0 -0.150866)
(0.157036 0 -0.204839)
(0.0894088 0 -0.253892)
(0.0173991 0 -0.287069)
(0.0512395 0 -0.18278)
(0.00629681 0 -0.154868)
(0.177072 0 0.00412708)
(0.185037 0 0.0048888)
(0.192334 0 0.00702889)
(0.198772 0 -0.00111919)
(0.203142 0 -0.00688165)
(0.206992 0 -0.0256036)
(0.208 0 -0.0389668)
(0.203758 0 -0.0712309)
(0.168529 0 -0.0940312)
(0.149118 0 -0.134817)
(0.219321 0 -0.194252)
(0.147508 0 -0.247494)
(-0.019168 0 -0.290232)
(0.0188728 0 -0.215427)
(0.0076147 0 -0.193905)
(0.168211 0 0.00491028)
(0.178241 0 0.00751229)
(0.187676 0 0.011895)
(0.196741 0 0.00627707)
(0.204443 0 0.00294361)
(0.211551 0 -0.0135257)
(0.215218 0 -0.0242294)
(0.212757 0 -0.0525973)
(0.181994 0 -0.0675448)
(0.195069 0 -0.11295)
(0.278313 0 -0.177442)
(0.191253 0 -0.237014)
(-0.065766 0 -0.265267)
(-0.0133963 0 -0.217828)
(0.00413256 0 -0.222038)
(0.157978 0 0.00553054)
(0.169326 0 0.00968635)
(0.180538 0 0.0163213)
(0.191856 0 0.0132174)
(0.202528 0 0.0125924)
(0.212747 0 -0.00115493)
(0.219946 0 -0.00990632)
(0.217042 0 -0.0357594)
(0.185124 0 -0.0438697)
(0.246126 0 -0.0851226)
(0.342402 0 -0.157015)
(0.19506 0 -0.219335)
(-0.116878 0 -0.226789)
(-0.0418554 0 -0.201893)
(-0.00117359 0 -0.226939)
(0.146201 0 0.00592373)
(0.159053 0 0.0113988)
(0.171216 0 0.0200762)
(0.184353 0 0.0193949)
(0.197134 0 0.0217902)
(0.210565 0 0.0111857)
(0.221798 0 0.00393911)
(0.21805 0 -0.019791)
(0.179834 0 -0.0256131)
(0.297997 0 -0.0550921)
(0.411818 0 -0.133263)
(0.152387 0 -0.192308)
(-0.149723 0 -0.161289)
(-0.053122 0 -0.181938)
(-0.00148998 0 -0.216986)
(0.14707 0 0.0123691)
(0.127993 0 0.00661001)
(0.160511 0 0.0231972)
(0.174589 0 0.0245344)
(0.188807 0 0.0300963)
(0.204985 0 0.0228427)
(0.219513 0 0.0186293)
(0.216555 0 -0.00122344)
(0.170968 0 -0.0101249)
(0.344632 0 -0.0289818)
(0.46294 0 -0.106953)
(0.0329763 0 -0.149253)
(-0.157727 0 -0.0786007)
(-0.0627115 0 -0.172609)
(0.0039042 0 -0.198979)
(0.148147 0 0.0252917)
(0.128184 0 0.0136837)
(0.0949791 0 0.00642419)
(0.163249 0 0.0286432)
(0.178062 0 0.0371488)
(0.196162 0 0.0330536)
(0.212514 0 0.0331152)
(0.210864 0 0.0183055)
(0.162542 0 0.00777168)
(0.382298 0 -0.00955573)
(0.491935 0 -0.0819637)
(-0.0486581 0 -0.0915337)
(-0.1539 0 -0.0296224)
(-0.0637239 0 -0.155518)
(0.0119122 0 -0.170584)
(0.15039 0 0.0314049)
(0.128465 0 0.0279654)
(0.0945643 0 0.0132038)
(0.0760744 0 0.00547809)
(0.165679 0 0.0428756)
(0.184687 0 0.0413826)
(0.201483 0 0.046323)
(0.200485 0 0.0361601)
(0.156635 0 0.0276091)
(0.406242 0 0.00860393)
(0.493399 0 -0.0548493)
(-0.126504 0 -0.041416)
(-0.147853 0 -0.0146171)
(-0.0453935 0 -0.124588)
(0.0122238 0 -0.127527)
(0.151868 0 0.0469539)
(0.129504 0 0.0346472)
(0.0937144 0 0.0273243)
(0.0744306 0 0.0106194)
(0.052534 0 0.00285786)
(0.171237 0 0.0478061)
(0.187544 0 0.0575823)
(0.186598 0 0.050913)
(0.150593 0 0.0473776)
(0.396592 0 0.0280846)
(0.472157 0 -0.00266364)
(-0.170572 0 0.00699269)
(-0.13306 0 -0.0134366)
(-0.0213733 0 -0.0894179)
(-0.00116773 0 -0.0879292)
(0.156431 0 0.0522707)
(0.129806 0 0.0517695)
(0.0927153 0 0.0338295)
(0.0727624 0 0.0234454)
(0.0482155 0 0.00426047)
(0.0601291 0 -0.00173437)
(0.171909 0 0.0665164)
(0.170021 0 0.0621429)
(0.143567 0 0.0652031)
(0.363932 0 0.04739)
(0.411926 0 0.0561816)
(-0.17678 0 0.0702479)
(-0.12519 0 -0.0199224)
(-0.00803106 0 -0.0492416)
(-0.0193086 0 -0.0582903)
(0.155124 0 0.0730906)
(0.132177 0 0.057237)
(0.091359 0 0.0514611)
(0.0688469 0 0.0285654)
(0.0451102 0 0.0129265)
(0.0533342 0 -0.00717006)
(0.0710598 0 -0.0114704)
(0.151811 0 0.0703436)
(0.134442 0 0.0800646)
(0.316371 0 0.0652872)
(0.342694 0 0.105417)
(-0.14401 0 0.12454)
(-0.117817 0 -0.00982375)
(-0.00495206 0 -0.00712443)
(-0.0305849 0 -0.0339914)
(0.131939 0 0.0758691)
(0.128943 0 0.0796583)
(0.0901906 0 0.0571882)
(0.0652237 0 0.0452141)
(0.0379997 0 0.0158285)
(0.0463883 0 -0.00247656)
(0.0502531 0 -0.0300337)
(0.139262 0 -0.00962827)
(0.125218 0 0.0914956)
(0.266214 0 0.0789484)
(0.275288 0 0.136469)
(-0.122733 0 0.161061)
(-0.0987181 0 0.0278564)
(-0.0161964 0 0.0382886)
(-0.0348815 0 -0.00883431)
(0.111805 0 0.0998697)
(0.101817 0 0.0824022)
(0.0842022 0 0.0805553)
(0.0608452 0 0.050227)
(0.0317717 0 0.0316771)
(0.029713 0 -0.00324769)
(0.0343787 0 -0.0404768)
(0.114631 0 -0.0511414)
(0.17764 0 -0.0325259)
(0.2251 0 0.0904662)
(0.213329 0 0.15144)
(-0.104717 0 0.17399)
(-0.0768087 0 0.0773011)
(-0.0357316 0 0.0782807)
(-0.0300717 0 0.0208033)
(0.188531 0 0.0984488)
(0.0962319 0 0.105657)
(0.0554372 0 0.0838289)
(0.0523688 0 0.0727879)
(0.0234297 0 0.0371654)
(0.0144011 0 0.0108342)
(0.0098003 0 -0.0466749)
(0.0748561 0 -0.0738618)
(0.154983 0 -0.0850642)
(0.344899 0 -0.0101387)
(0.169886 0 0.15321)
(-0.0872362 0 0.164967)
(-0.0552475 0 0.111584)
(-0.0414518 0 0.109478)
(-0.0181711 0 0.0582785)
(0.128687 0 0.155445)
(0.145314 0 0.108451)
(0.0535815 0 0.106841)
(0.0210488 0 0.0755472)
(0.0126252 0 0.0619798)
(-0.00250749 0 0.0158778)
(-0.0112657 0 -0.0375881)
(0.0305742 0 -0.108469)
(0.134871 0 -0.134511)
(0.312309 0 -0.0136625)
(0.187442 0 0.0283928)
(-0.0742846 0 0.155955)
(-0.0400322 0 0.129255)
(-0.0372474 0 0.128982)
(-0.00922452 0 0.091806)
(-0.0697088 0 0.160117)
(0.0777109 0 0.158751)
(0.0780728 0 0.11712)
(0.0136441 0 0.0996197)
(-0.0204368 0 0.0672476)
(-0.0218977 0 0.0464926)
(-0.0492378 0 -0.0276901)
(-0.0261938 0 -0.109708)
(0.0734197 0 -0.173329)
(0.224329 0 -0.0523172)
(0.195552 0 0.0398632)
(0.302068 0 1.55459)
(-0.0384844 0 0.140296)
(-0.0311478 0 0.139488)
(-0.00326802 0 0.11678)
(-0.0427245 0 0.15383)
(-0.0773942 0 0.157729)
(0.00642448 0 0.162894)
(0.0132692 0 0.113398)
(-0.0361398 0 0.0954422)
(-0.0611542 0 0.0572781)
(-0.0796817 0 0.02089)
(-0.110606 0 -0.0931207)
(-0.0330404 0 -0.206839)
(0.160464 0 -0.127229)
(0.266263 0 0.0480097)
(0.347028 0 1.2768)
(0.613806 1.91001e-27 1.68238)
(0.241124 0 1.94521)
(-0.0294682 0 0.148682)
(-0.000971042 0 0.133837)
(-0.0300911 0 0.162056)
(-0.0596331 0 0.175592)
(-0.125976 0 0.185517)
(-0.110005 0 0.164)
(-0.0570222 0 0.11265)
(-0.0895224 0 0.088219)
(-0.114197 0 0.0475809)
(-0.165599 0 -0.0200101)
(-0.215645 0 -0.184598)
(-0.0161866 0 -0.221084)
(0.311766 0 -0.00523243)
(0.336045 0 1.08042)
(0.72466 8.66018e-28 1.54815)
(0.695534 -5.59576e-30 1.43536)
(0.397479 3.23981e-27 1.87434)
(0.13424 0 2.11493)
(-0.00201113 0 0.147559)
(-0.00406446 0 0.164379)
(-0.0399507 0 0.183177)
(-0.11556 0 0.221308)
(-0.240953 0 0.243863)
(-0.309799 0 0.17664)
(-0.149615 0 0.107276)
(-0.138395 0 0.0836382)
(-0.182418 0 0.0337823)
(-0.305321 0 -0.127001)
(-0.256541 0 -0.209357)
(0.116662 0 -0.00457074)
(0.302783 0 0.703551)
(0.785246 0 1.4445)
(0.746043 0 1.39831)
(0.756196 2.451e-26 1.1791)
(0.621982 -6.10841e-30 1.55171)
(0.333278 3.60125e-27 2.01249)
(0.106261 0 2.34288)
(-0.0111752 0 0.192546)
(-0.0745911 0 0.243644)
(-0.220413 0 0.297709)
(-0.447612 0 0.398303)
(-0.83285 0 0.187677)
(-0.237819 0 0.0871116)
(-0.171725 0 0.0799674)
(-0.291432 0 -0.0177381)
(-0.479845 0 -0.17684)
(-0.288281 0 -0.0960648)
(0.104676 0 0.615361)
(0.745962 0 1.25834)
(0.802977 0 1.36418)
(0.785798 6.15314e-26 1.0913)
(0.868013 -6.77968e-30 1.04449)
(0.766136 2.78584e-26 1.31069)
(0.543391 0 1.71379)
(0.223238 0 2.20971)
(0.045559 0 2.44128)
(-0.0288236 0 0.265025)
(-0.151181 0 0.346027)
(-0.356515 0 0.487331)
(-0.933676 0 0.446736)
(-0.999809 0 0.143376)
(-0.303187 0 0.0558223)
(-0.144144 0 0.086933)
(-0.571968 0 -0.0755494)
(-0.548269 0 -0.155311)
(-0.0443211 0 0.32845)
(0.604508 0 1.08936)
(0.838821 -7.50662e-27 1.25374)
(0.819575 4.00156e-26 1.10592)
(0.839908 0 0.936826)
(1.02584 1.22296e-25 0.893674)
(0.885151 -7.78467e-30 1.19639)
(0.698555 8.78735e-26 1.4604)
(0.426337 0 1.86399)
(0.152499 0 2.30048)
(0.0293426 0 2.51567)
(-0.0630197 0 0.385719)
(-0.268818 0 0.547444)
(-0.597698 0 0.62212)
(-1.30778 0 0.133842)
(-0.94123 0 0.0578469)
(-0.21352 0 0.136522)
(-0.466901 0 0.0508042)
(-0.676571 0 -0.133159)
(-0.401315 0 0.150393)
(0.316599 0 0.697292)
(0.763765 -1.45029e-26 1.15282)
(0.90641 0 1.08025)
(0.877412 -1.01125e-25 0.909572)
(0.94859 -2.01312e-25 0.697686)
(1.18125 4.29378e-10 0.752604)
(1.07757 0 1.04886)
(0.86137 0 1.30421)
(0.615761 1.16838e-25 1.61543)
(0.334451 -9.82639e-27 2.04018)
(0.0705666 0 2.43121)
(-0.0171704 0 2.53222)
(-0.120209 0 0.585423)
(-0.337272 0 0.723438)
(-1.06045 0 0.306223)
(-1.33686 0 -0.0956915)
(-0.677133 0 0.0526288)
(-0.248228 0 0.244781)
(-0.691796 0 -0.111562)
(-0.621362 0 -0.0606629)
(-0.0985079 0 0.454096)
(0.608455 2.28293e-42 0.933351)
(0.899084 0 1.02936)
(0.949433 1.85465e-25 0.842979)
(0.979522 -1.12282e-24 0.658652)
(1.08058 -1.02344e-10 0.609568)
(1.23649 1.60289e-09 0.525686)
(1.17003 -4.78745e-10 0.818441)
(1.23325 7.05482e-10 0.525905)
(1.25072 2.11875e-09 0.466693)
(1.24727 4.9724e-10 0.469895)
(1.03232 4.15186e-25 1.14771)
(0.819116 2.56037e-25 1.47558)
(0.51343 5.204e-26 1.82284)
(0.197848 -1.00007e-26 2.18369)
(-0.0363815 0 2.45081)
(-0.0567389 0 2.46768)
(-0.162641 0 0.733265)
(-0.506572 0 0.497751)
(-1.26454 0 -0.0356812)
(-1.22439 0 -0.139175)
(-0.520822 0 0.172426)
(-0.328026 0 0.0229569)
(-0.631033 0 -0.17686)
(-0.321349 0 0.113598)
(0.264682 3.17927e-42 0.721725)
(0.852122 0 0.888124)
(0.986789 0 0.725543)
(1.10122 1.90805e-26 0.655755)
(0.994817 -3.06739e-25 0.435479)
(1.26414 -3.3352e-10 0.389076)
(1.29746 1.70569e-09 0.627257)
(1.3192 2.3861e-09 0.380229)
(1.13795 -1.41876e-09 0.978281)
(1.29478 8.5394e-10 0.626855)
(1.34264 1.44597e-09 0.655689)
(1.34097 7.44495e-10 0.654044)
(1.3125 3.49181e-10 0.380531)
(1.30335 2.07882e-09 0.312658)
(1.29651 2.42751e-10 0.315836)
(1.00855 -9.88267e-26 1.36581)
(0.740138 -6.69002e-25 1.68066)
(0.356843 0 1.98188)
(0.0420009 2.03229e-27 2.27674)
(-0.137018 0 2.46285)
(-0.0912833 0 2.34354)
(-0.170804 0 0.506178)
(-0.705462 0 0.0300876)
(-1.25648 0 -0.176065)
(-0.965463 0 0.0308846)
(-0.386967 0 0.227291)
(-0.635505 0 -0.312762)
(-0.384245 0 -0.0237103)
(-0.113024 -4.19754e-27 0.281879)
(0.665334 7.51908e-27 0.718379)
(0.898575 6.40188e-26 0.613074)
(1.15655 0 0.586635)
(1.07518 -2.53329e-24 0.370341)
(1.20293 -1.75299e-09 0.316482)
(1.21819 2.74217e-10 0.169484)
(1.21449 -1.34354e-09 0.167694)
(1.24726 1.91668e-10 0.159802)
(1.24677 1.95859e-10 0.157733)
(1.36732 2.30379e-09 0.439368)
(1.39409 1.4274e-11 0.248619)
(1.20924 1.09328e-24 1.15894)
(1.41915 6.61112e-10 0.684831)
(1.36122 3.57429e-10 0.437927)
(1.38235 2.08788e-09 0.45678)
(1.37759 4.10908e-10 0.453554)
(1.38716 -1.69908e-09 0.245362)
(1.32592 -2.49061e-10 0.222607)
(1.32044 -1.81274e-09 0.219405)
(0.912327 -2.35706e-24 1.53674)
(0.547196 0 1.85512)
(0.143691 0 2.12001)
(-0.144574 1.02104e-26 2.32238)
(-0.261388 0 2.34471)
(-0.131806 0 2.15179)
(-0.205579 0 0.0755736)
(-0.702961 0 -0.312811)
(-0.885608 0 -0.222134)
(-0.598929 0 -0.108279)
(-0.341004 0 0.0377181)
(-0.621534 0 -0.228428)
(-0.236166 0 0.0742086)
(0.359007 4.59519e-27 0.47863)
(0.719921 0 0.488641)
(1.13099 2.87316e-25 0.47333)
(1.23041 -3.7767e-25 0.283811)
(1.2603 -1.1663e-09 0.256659)
(1.2029 1.76372e-11 0.130926)
(1.20322 1.47493e-10 0.13044)
(1.22481 1.73644e-10 0.0864889)
(1.22543 1.3597e-10 0.0863499)
(1.24482 -1.65332e-10 0.0422512)
(1.24375 -7.34555e-10 0.0416068)
(1.29387 -7.88835e-10 0.0583373)
(1.29343 -1.2175e-10 0.0584211)
(1.41858 -7.24547e-10 0.280751)
(1.50968 1.80621e-08 0.0873852)
(1.27141 2.2446e-08 0.0590774)
(1.4811 1.32147e-08 0.0804833)
(1.3265 3.49931e-09 0.0818114)
(1.12242 -8.29124e-24 1.29552)
(1.41392 1.29946e-09 0.783737)
(1.45375 7.47807e-10 0.343291)
(1.4545 2.51709e-10 0.346008)
(1.42247 -1.96474e-09 0.338303)
(1.42108 1.0511e-09 0.341813)
(1.4119 -1.09575e-09 0.27941)
(1.44175 -5.04781e-10 0.277853)
(1.43744 -8.9848e-10 0.277806)
(1.50246 -8.51453e-09 0.0870262)
(1.28205 -1.24043e-08 0.0682631)
(1.47815 -1.99313e-09 0.0826789)
(1.31697 -3.43541e-09 0.0828612)
(1.47206 2.01895e-08 0.0592931)
(1.20746 2.69973e-08 0.118719)
(1.43479 1.78817e-08 -0.00321459)
(1.29105 3.97416e-09 0.0694938)
(1.46599 -1.16606e-08 0.0593537)
(1.22959 -1.41194e-08 0.123997)
(1.43478 -7.01737e-09 -0.00208321)
(1.28354 -3.95449e-09 0.0690042)
(0.682566 0 1.73522)
(0.301294 -5.11485e-25 1.98162)
(-0.100691 0 2.19191)
(-0.343021 1.85169e-26 2.28995)
(-0.37617 0 2.21514)
(-0.159103 0 1.89215)
(-0.175569 0 -0.394454)
(-0.381453 0 -0.521432)
(-0.398142 0 -0.311301)
(-0.339497 0 -0.251215)
(-0.306805 0 -0.324215)
(-0.412629 0 -0.136016)
(0.127587 0 0.16789)
(0.510577 0 0.30332)
(0.938691 3.35776e-25 0.317883)
(1.1949 7.23538e-25 0.209616)
(1.31222 -6.09635e-10 0.155794)
(1.26544 4.39369e-10 0.0659662)
(1.26553 1.02268e-10 0.0660689)
(1.29469 8.28376e-10 0.010086)
(1.29393 8.64065e-11 0.0107571)
(1.25975 -2.3788e-09 0.017573)
(1.26202 -8.35165e-11 0.0190319)
(1.27174 -3.1909e-09 -0.0246879)
(1.27344 -2.74754e-10 -0.0238977)
(1.16365 3.06728e-09 -0.0936702)
(1.23126 3.67672e-09 0.072392)
(1.33623 2.85163e-09 -0.119188)
(1.15836 3.53544e-09 -0.083953)
(1.34608 3.69232e-09 -0.0996995)
(1.37842 3.84876e-09 -0.11886)
(1.24577 -2.57129e-09 0.0733823)
(1.16793 -1.06112e-09 -0.090209)
(1.33699 -3.01282e-09 -0.118389)
(1.16006 -2.19046e-09 -0.082806)
(1.34582 -4.05789e-09 -0.0994871)
(1.38047 -3.53144e-09 -0.118055)
(1.20646 4.49294e-09 -0.109098)
(1.39056 6.14285e-09 -0.09601)
(1.19776 3.65009e-09 -0.0979832)
(1.38727 5.37635e-09 -0.0849611)
(1.20834 -3.13488e-09 -0.107586)
(1.39007 -4.50855e-09 -0.0951354)
(1.19922 -2.75221e-09 -0.0963048)
(1.3869 -4.46895e-09 -0.0842677)
(1.55344 1.7709e-08 0.102794)
(1.30606 2.32769e-08 0.104334)
(1.51814 1.2802e-08 0.116642)
(1.37465 3.47788e-09 0.0925119)
(1.46256 1.40513e-09 -0.00259323)
(1.34124 1.09862e-09 0.00523347)
(1.45571 1.56956e-09 0.00704111)
(1.37423 7.8041e-10 0.00215002)
(0.899169 -1.20487e-23 1.46013)
(1.2436 1.92093e-09 0.906127)
(1.38046 4.96729e-10 0.388711)
(1.3812 2.9009e-10 0.38869)
(1.41883 4.77392e-10 0.389899)
(1.42054 2.94937e-10 0.391441)
(1.50955 -1.28829e-10 0.128607)
(1.51051 -1.2756e-09 0.128111)
(1.46667 -7.93801e-10 0.126209)
(1.46593 -6.28693e-10 0.125394)
(1.54761 -8.3076e-09 0.10374)
(1.32446 -1.27166e-08 0.104543)
(1.51746 -2.22131e-09 0.116433)
(1.36745 -3.43606e-09 0.09331)
(1.55469 2.05849e-08 0.135275)
(1.28128 2.8666e-08 0.0603998)
(1.51029 2.02502e-08 0.207082)
(1.37987 3.96944e-09 0.095933)
(1.5501 -1.1528e-08 0.13605)
(1.30906 -1.4613e-08 0.0630935)
(1.51196 -7.32911e-09 0.207367)
(1.37618 -3.91334e-09 0.0991452)
(1.45988 -5.44455e-10 -0.00221899)
(1.35358 -9.6583e-10 0.00604229)
(1.45736 -6.74645e-10 0.00702579)
(1.36958 -8.41684e-10 0.00363477)
(1.42467 2.71931e-09 -0.0163118)
(1.3398 1.60747e-09 0.00566886)
(1.42062 -2.39641e-09 -0.0158705)
(1.33274 -1.71982e-09 0.00809405)
(0.390467 -4.15829e-25 1.84884)
(-0.0227942 0 2.05598)
(-0.372092 0 2.19934)
(-0.543105 0 2.2026)
(-0.467446 0 1.9702)
(-0.183694 0 1.61178)
(-0.0567951 0 -0.586619)
(-0.176224 0 -0.537807)
(-0.204449 0 -0.352448)
(-0.211344 0 -0.377565)
(-0.227101 0 -0.414156)
(0.00794407 0 -0.0251571)
(0.33265 0 0.110611)
(0.725432 0 0.151283)
(1.09796 2.07215e-25 0.122261)
(1.35791 -4.86464e-10 0.0939007)
(1.38393 7.89029e-10 -0.0128102)
(1.38353 2.04947e-11 -0.0122538)
(1.42834 1.13807e-09 -0.0231103)
(1.42712 8.55017e-11 -0.0222863)
(1.33266 -3.29919e-09 -0.0386478)
(1.33391 4.37944e-10 -0.0384474)
(1.37098 -3.65174e-09 -0.073718)
(1.37293 8.89654e-10 -0.075875)
(1.19702 4.86282e-09 -0.133079)
(1.36891 5.48955e-09 -0.119644)
(1.1948 7.50944e-09 -0.13151)
(1.36961 7.06771e-09 -0.130331)
(1.20079 -3.11094e-09 -0.133405)
(1.3687 -4.79295e-09 -0.119318)
(1.20752 -3.92949e-09 -0.133478)
(1.37117 -5.62831e-09 -0.130416)
(1.23489 8.53681e-09 -0.164795)
(1.3929 7.00305e-09 -0.170754)
(1.21345 7.85326e-09 -0.156874)
(1.38123 7.26281e-09 -0.158977)
(1.24903 -4.20373e-09 -0.168028)
(1.39531 -4.69293e-09 -0.171092)
(1.22744 -4.17456e-09 -0.158982)
(1.38323 -5.58646e-09 -0.159378)
(1.29427 8.80281e-10 -0.0312049)
(1.18679 6.00371e-11 -0.123956)
(1.31916 1.45789e-10 -0.124403)
(1.36454 1.40161e-09 -0.129761)
(1.19688 1.2282e-10 -0.154689)
(1.31507 2.91178e-10 -0.126748)
(1.31016 -2.09105e-10 -0.0308361)
(1.19015 -6.88925e-11 -0.121916)
(1.36922 -9.67588e-10 -0.130056)
(1.31966 -9.37369e-12 -0.123804)
(1.19783 -2.55716e-10 -0.153801)
(1.31509 -2.23823e-10 -0.126521)
(1.25772 1.75727e-10 -0.149357)
(1.35048 6.00253e-10 -0.146962)
(1.25015 2.31431e-10 -0.155203)
(1.34609 5.77502e-10 -0.152588)
(1.26107 -3.16983e-10 -0.151733)
(1.35032 -5.15621e-10 -0.14781)
(1.25143 -2.91042e-10 -0.155101)
(1.346 -5.16135e-10 -0.152407)
(1.49039 1.33088e-09 0.0126013)
(1.35589 1.21854e-09 -0.00352324)
(1.46062 1.47377e-09 0.00400202)
(1.4022 7.94537e-10 -0.00462737)
(1.45791 2.81736e-10 -0.0904247)
(1.35249 1.30516e-10 -0.0928635)
(1.40225 6.07327e-10 -0.0976376)
(1.42532 1.96179e-10 -0.0871814)
(0.537012 0 1.57512)
(0.96658 2.16628e-09 1.03037)
(1.30074 3.1764e-10 0.45752)
(1.29971 1.93688e-10 0.455825)
(1.33753 -5.48132e-11 0.454727)
(1.33753 1.39112e-10 0.45404)
(1.47853 1.19961e-09 0.135936)
(1.48169 -3.5182e-09 0.134017)
(1.46279 9.37124e-10 0.138807)
(1.46529 -2.4406e-09 0.137175)
(1.38358 8.26339e-09 -0.0587819)
(1.58762 5.47623e-09 -0.050001)
(1.38683 5.33915e-09 -0.0456375)
(1.58992 4.65053e-09 -0.0366518)
(1.38926 -3.66641e-09 -0.0573988)
(1.58777 -5.25678e-09 -0.0498897)
(1.39052 -3.06552e-09 -0.0445917)
(1.59008 -5.25379e-09 -0.0364447)
(1.34819 3.09553e-09 -0.10656)
(1.34293 3.11442e-09 -0.0867032)
(1.53176 2.46807e-09 -0.0366839)
(1.35961 4.34724e-09 -0.0658171)
(1.56764 3.87715e-09 -0.0321611)
(1.49479 4.33376e-09 0.123901)
(1.3527 -2.12276e-09 -0.107879)
(1.36245 -2.37631e-09 -0.0843489)
(1.53283 -3.71718e-09 -0.0373354)
(1.36187 -2.39955e-09 -0.0642968)
(1.56747 -4.98426e-09 -0.032009)
(1.49862 -3.29806e-09 0.123821)
(1.48673 -6.83416e-10 0.0112065)
(1.36472 -1.09511e-09 -0.0021049)
(1.46149 -7.99838e-10 0.0044737)
(1.396 -9.48905e-10 -0.007181)
(1.50702 2.81361e-09 0.0444775)
(1.42613 1.62548e-09 0.00760193)
(1.50484 -2.07504e-09 0.0443491)
(1.42299 -1.54759e-09 0.00728793)
(1.45354 -4.36046e-10 -0.0892686)
(1.35863 8.96649e-12 -0.0940128)
(1.40355 -3.68766e-10 -0.0968131)
(1.41258 -3.86878e-10 -0.0840213)
(1.43279 8.45903e-10 -0.0981551)
(1.39001 3.28046e-10 -0.0882654)
(1.4303 -7.7012e-10 -0.0987302)
(1.38411 -3.53853e-10 -0.0900147)
(-0.00484119 -1.39806e-24 1.93298)
(-0.366546 0 2.05576)
(-0.654529 0 2.14038)
(-0.712439 0 2.03487)
(-0.529105 0 1.71905)
(-0.189857 0 1.28455)
(-0.0314115 0 -0.557815)
(-0.09034 0 -0.465913)
(-0.0853172 0 -0.398595)
(-0.216607 0 -0.49586)
(-0.0323889 0 -0.426345)
(0.317151 3.8296e-26 -0.0158245)
(0.505951 -5.38584e-26 0.0127303)
(0.87789 -2.16975e-25 -0.00259575)
(1.17181 -6.23229e-10 -0.0389741)
(1.38424 1.08386e-09 -0.0634814)
(1.38309 8.07147e-11 -0.0630177)