/*--------------------------------*- C++ -*----------------------------------*\
| =========                 |                                                 |
| \\      /  F ield         | OpenFOAM: The Open Source CFD Toolbox           |
|  \\    /   O peration     | Version:  5.x                                   |
|   \\  /    A nd           | Web:      www.OpenFOAM.org                      |
|    \\/     M anipulation  |                                                 |
\*---------------------------------------------------------------------------*/
FoamFile
{
    version     2.0;
    format      ascii;
    class       surfaceVectorField;
    location    "2.3";
    object      Uf;
}
// * * * * * * * * * * * * * * * * * * * * * * * * * * * * * * * * * * * * * //

dimensions      [0 1 -1 0 0 0 0];

internalField   nonuniform List<vector> 
30582
(
(0.124826 0 0.00105967)
(0.137588 0 -0.000706646)
(0.125568 0 0.00270899)
(0.119012 0 -0.000296877)
(0.124837 0 -0.00211893)
(0.137441 0 -0.00141039)
(0.123163 0 0.00427093)
(0.127152 0 0.000979574)
(0.125506 0 -0.00205703)
(0.118779 0 -0.000564745)
(0.12446 0 0.000269032)
(0.137092 0 -0.00195192)
(0.117139 0 0.00505551)
(0.121349 0 0.00249692)
(0.123052 0 -0.00080917)
(0.127106 0 0.00197897)
(0.125302 0 0.00358055)
(0.118134 0 -0.000901556)
(0.12388 0 -0.00329441)
(0.136544 0 -0.00224465)
(0.107936 0 0.0051632)
(0.112684 0 0.00388266)
(0.116793 0 0.00135109)
(0.121422 0 0.00509118)
(0.123149 0 0.00796677)
(0.126236 0 0.0028555)
(0.123979 0 -0.00172742)
(0.117149 0 -0.000941269)
(0.122977 0 0.000341546)
(0.135466 0 -0.00215432)
(0.0967827 0 0.00493521)
(0.102203 0 0.00479043)
(0.107578 0 0.00356849)
(0.112846 0 0.00777065)
(0.117392 0 0.0115247)
(0.120484 0 0.00747736)
(0.121134 0 0.00230614)
(0.125298 0 0.00401408)
(0.123382 0 0.00501581)
(0.114977 0 -0.00110335)
(0.120719 0 -0.00384677)
(0.134206 0 -0.00114184)
(0.0849925 0 0.00469699)
(0.0909077 0 0.00515453)
(0.0966907 0 0.00506439)
(0.102593 0 0.00946646)
(0.108498 0 0.013653)
(0.111997 0 0.0115234)
(0.115172 0 0.00747577)
(0.119413 0 0.0099484)
(0.120975 0 0.0118211)
(0.122624 0 0.00499407)
(0.119092 0 -0.00128539)
(0.112662 0 -0.00045241)
(0.119528 0 0.00245092)
(0.130417 0 0.000380944)
(0.0724496 0 0.00457491)
(0.0789653 0 0.00558208)
(0.0850495 0 0.00609765)
(0.0912138 0 0.0102439)
(0.0975043 0 0.0146665)
(0.102419 0 0.0141881)
(0.106623 0 0.0120771)
(0.111383 0 0.0151306)
(0.115841 0 0.0176836)
(0.116084 0 0.0120766)
(0.114975 0 0.00520297)
(0.120356 0 0.00667031)
(0.118745 0 0.00777321)
(0.10366 0 -0.000139148)
(0.107994 0 -0.00232736)
(0.0952132 0 0.00648526)
(0.0593806 0 0.00454993)
(0.0662996 0 0.00592055)
(0.0726193 0 0.00697352)
(0.0793676 0 0.011114)
(0.0856932 0 0.0153003)
(0.0911768 0 0.0154076)
(0.0964965 0 0.0149512)
(0.102696 0 0.0185374)
(0.108256 0 0.0216593)
(0.109779 0 0.0183304)
(0.110604 0 0.0127551)
(0.113382 0 0.0138887)
(0.11585 0 0.015427)
(0.112483 0 0.00784896)
(0.102182 0 -0.000174158)
(0.0658442 0 0.00218541)
(0.0475767 0 0.010935)
(-0.066471 0 -0.0195779)
(0.0457769 0 0.00461999)
(0.0530604 0 0.00627276)
(0.0596156 0 0.00766002)
(0.0667 0 0.0118115)
(0.0732198 0 0.0160082)
(0.0796406 0 0.0166652)
(0.0852904 0 0.0168423)
(0.0917967 0 0.0203069)
(0.0984337 0 0.0240033)
(0.10253 0 0.0227562)
(0.104907 0 0.0194352)
(0.108657 0 0.0207338)
(0.112427 0 0.0216615)
(0.105809 0 0.0153074)
(0.0995018 0 0.00787913)
(0.0811635 0 0.00894055)
(0.0489215 0 0.0107377)
(-0.104928 0 0.00164747)
(-0.223595 0 -0.0277225)
(-0.0909847 0 0.067993)
(0.0316478 0 0.00475016)
(0.0392209 0 0.00663249)
(0.046058 0 0.00826766)
(0.0534597 0 0.0125242)
(0.0601301 0 0.0167379)
(0.0670495 0 0.0177414)
(0.0731892 0 0.0184483)
(0.0802814 0 0.0220508)
(0.0869319 0 0.0256555)
(0.0923948 0 0.0253352)
(0.0969413 0 0.0241292)
(0.102596 0 0.0261776)
(0.107271 0 0.0271778)
(0.104119 0 0.0229094)
(0.098631 0 0.0171268)
(0.0859953 0 0.0156683)
(0.0652552 0 0.0157119)
(-0.136586 0 0.00228944)
(-0.282581 0 -0.00661658)
(0.00675427 0 0.025243)
(0.14299 0 0.111832)
(0.0110689 0 0.0117906)
(0.0169909 0 0.00488236)
(0.0247422 0 0.00700348)
(0.0319459 0 0.00884194)
(0.0396174 0 0.013257)
(0.0465255 0 0.0175753)
(0.0538564 0 0.0187974)
(0.0602755 0 0.019792)
(0.0675608 0 0.0235917)
(0.0742893 0 0.0273465)
(0.0809698 0 0.0276772)
(0.0865532 0 0.0275003)
(0.0930002 0 0.0298768)
(0.0991112 0 0.0316085)
(0.100571 0 0.0296823)
(0.0983236 0 0.0261995)
(0.091526 0 0.0230391)
(0.0796193 0 0.0201876)
(-0.120264 0 0.00971453)
(-0.3227 0 -0.00378265)
(-0.138768 0 0.018626)
(0.155043 0 0.047945)
(0.201236 0 0.0204215)
(0.0774263 0 -0.0716096)
(-0.0462529 0 -0.0186355)
(0.00201788 0 0.00487387)
(0.00977239 0 0.00728243)
(0.0172171 0 0.00934568)
(0.0251002 0 0.0140413)
(0.0323881 0 0.0185212)
(0.0400606 0 0.0198934)
(0.0468144 0 0.0210397)
(0.0543799 0 0.0250044)
(0.0610372 0 0.0289154)
(0.0682314 0 0.0295951)
(0.0744434 0 0.0301025)
(0.0815483 0 0.0330666)
(0.0881745 0 0.0351595)
(0.0927272 0 0.0346582)
(0.0946883 0 0.0337528)
(0.097179 0 0.0312436)
(0.0913384 0 0.0263176)
(-0.0690522 0 0.0180946)
(-0.272696 0 0.00726585)
(-0.199394 0 -0.0110119)
(-0.0164665 0 0.0135779)
(0.0651855 0 0.0884639)
(0.110918 0 0.0674187)
(0.00212116 0 0.00702418)
(-0.115803 0 0.0525549)
(-0.0267361 0 0.0268714)
(-0.0125497 0 0.00457474)
(-0.00543397 0 0.0072126)
(0.00205431 0 0.00955102)
(0.00997502 0 0.0146571)
(0.0175852 0 0.0194272)
(0.0255155 0 0.0211146)
(0.0327693 0 0.0223641)
(0.0406766 0 0.0264864)
(0.0475374 0 0.0304929)
(0.0551335 0 0.0312292)
(0.0615331 0 0.032077)
(0.068572 0 0.0354438)
(0.0750976 0 0.0380863)
(0.0823177 0 0.0388863)
(0.0872296 0 0.0395913)
(0.0957337 0 0.0379191)
(0.0989798 0 0.0331882)
(-0.0200859 0 0.0279616)
(-0.179877 0 0.0191484)
(-0.186148 0 -0.0210673)
(-0.118521 0 -0.0342991)
(-0.00586699 0 0.0312884)
(0.0732418 0 0.102828)
(0.0214918 0 0.103806)
(-0.0891672 0 0.0379451)
(-0.0232568 0 -0.00363062)
(0.0687481 0 -0.0219447)
(-0.00664042 0 -0.000143969)
(-0.025717 0 0.00396144)
(-0.0197803 0 0.00663658)
(-0.0128613 0 0.00918174)
(-0.00544 0 0.0145975)
(0.00225326 0 0.019805)
(0.0101338 0 0.0221142)
(0.0178204 0 0.0236774)
(0.0261613 0 0.0282576)
(0.0335854 0 0.0323591)
(0.0415906 0 0.0330357)
(0.0483071 0 0.0340198)
(0.0554679 0 0.0373278)
(0.0615239 0 0.040278)
(0.0697667 0 0.041593)
(0.0763709 0 0.0437004)
(0.0912283 0 0.0437188)
(0.100278 0 0.0394291)
(0.00104845 0 0.0373516)
(-0.116315 0 0.030891)
(-0.164278 0 0.000661867)
(-0.168648 0 -0.0358598)
(-0.0536675 0 8.16428e-05)
(0.0585386 0 0.0603363)
(0.0353081 0 0.0373828)
(-0.0168943 0 0.0383202)
(0.00934008 0 0.0743762)
(0.0736367 0 0.0400212)
(-0.00311159 0 -0.00558607)
(-0.076984 0 0.0123885)
(-0.0365049 0 0.00305758)
(-0.0323123 0 0.00553438)
(-0.0264963 0 0.00808595)
(-0.0202921 0 0.0135088)
(-0.0130507 0 0.019072)
(-0.00579271 0 0.0221747)
(0.00191049 0 0.0243712)
(0.0104816 0 0.0298523)
(0.018593 0 0.0343436)
(0.0271446 0 0.0354214)
(0.0345596 0 0.0365373)
(0.042169 0 0.039489)
(0.0482343 0 0.0422082)
(0.0572 0 0.0434558)
(0.064306 0 0.0460362)
(0.0847625 0 0.0470586)
(0.098978 0 0.044277)
(0.0243701 0 0.0442972)
(-0.073288 0 0.0400803)
(-0.167464 0 0.0185406)
(-0.212267 0 -0.00913745)
(-0.0912082 0 0.019396)
(0.0243008 0 0.0514124)
(0.0153093 0 0.0145271)
(-0.00640906 0 -0.00176365)
(0.0213098 0 0.0330368)
(0.047589 0 0.0701911)
(0.00492013 0 0.0849827)
(-0.0725476 0 0.0319297)
(-0.0434518 0 0.00188256)
(-0.041622 0 0.00362784)
(-0.0375677 0 0.00595571)
(-0.033476 0 0.0112142)
(-0.0273673 0 0.0168389)
(-0.0214418 0 0.0207248)
(-0.0143363 0 0.0236632)
(-0.00608177 0 0.0302187)
(0.00235749 0 0.0355925)
(0.0110863 0 0.0377487)
(0.0193873 0 0.0394952)
(0.0278859 0 0.0426712)
(0.0347518 0 0.0447493)
(0.0446275 0 0.045818)
(0.0522596 0 0.0481773)
(0.0781574 0 0.0490104)
(0.0973356 0 0.0474731)
(0.0461782 0 0.0478026)
(-0.0284268 0 0.0450902)
(-0.170109 0 0.0243322)
(-0.258124 0 0.00670294)
(-0.112419 0 0.0385884)
(0.0105367 0 0.060493)
(0.00206954 0 0.0253077)
(-0.00827312 0 -0.00508686)
(0.00252066 0 0.0153136)
(0.0311337 0 0.0443924)
(0.00992051 0 0.0398573)
(-0.0329259 0 0.0511812)
(-0.0453438 0 0.000536077)
(-0.046203 0 0.00100575)
(-0.044696 0 0.00261184)
(-0.0433359 0 0.00735032)
(-0.0393616 0 0.0128426)
(-0.0355772 0 0.0173675)
(-0.0296853 0 0.0209784)
(-0.0227486 0 0.028461)
(-0.0146334 0 0.0350324)
(-0.00626831 0 0.038631)
(0.00234767 0 0.041628)
(0.0113872 0 0.0460363)
(0.0195945 0 0.0479994)
(0.0309068 0 0.0499138)
(0.0398006 0 0.0521151)
(0.0698954 0 0.0516664)
(0.0941949 0 0.0507878)
(0.0660077 0 0.0504586)
(0.0140342 0 0.0480704)
(-0.164935 0 0.0285668)
(-0.299749 0 0.0108916)
(-0.135067 0 0.0428568)
(0.0158682 0 0.06788)
(0.00824976 0 0.0362576)
(-0.00016936 0 0.00780019)
(-0.00370524 0 0.0218271)
(0.00647447 0 0.0367716)
(0.00292359 0 0.0257176)
(-0.0177182 0 0.0267259)
(-0.0415764 0 -0.000998429)
(-0.0454373 0 -0.00203864)
(-0.0468412 0 -0.00167567)
(-0.0484686 0 0.00214612)
(-0.0474575 0 0.00708019)
(-0.0463777 0 0.0115782)
(-0.0426791 0 0.0157317)
(-0.0382621 0 0.0240336)
(-0.0312652 0 0.0317539)
(-0.0243451 0 0.0368437)
(-0.0161023 0 0.0412771)
(-0.0070402 0 0.0477658)
(0.00189701 0 0.0506742)
(0.0140971 0 0.0546439)
(0.0250612 0 0.0579473)
(0.0582451 0 0.0569566)
(0.0870948 0 0.0562391)
(0.0784954 0 0.0549993)
(0.0485592 0 0.0527429)
(-0.0855947 0 0.0345388)
(-0.268765 0 0.0155598)
(-0.143139 0 0.0145306)
(0.0288149 0 0.0422027)
(0.0241348 0 0.037095)
(0.0161946 0 0.0121596)
(-0.00100848 0 0.0291034)
(-0.00436447 0 0.037798)
(-0.00166027 0 0.0264824)
(-0.00544686 0 0.021501)
(-0.0320353 0 -0.00263375)
(-0.0388136 0 -0.00525549)
(-0.0432554 0 -0.00639179)
(-0.0479781 0 -0.00397899)
(-0.0501808 0 -3.76254e-05)
(-0.052275 0 0.00359381)
(-0.0515561 0 0.00770799)
(-0.0505341 0 0.0162139)
(-0.0461246 0 0.0248876)
(-0.0417599 0 0.0316566)
(-0.0345889 0 0.0372727)
(-0.0267093 0 0.0461613)
(-0.0177362 0 0.0510475)
(-0.00583608 0 0.0574865)
(0.00628578 0 0.0631102)
(0.0411093 0 0.0637756)
(0.0739216 0 0.0635561)
(0.0807536 0 0.0632511)
(0.0701586 0 0.0620471)
(-0.00898236 0 0.0448602)
(-0.146821 0 0.0259951)
(-0.0831783 0 -0.0216899)
(0.0375992 0 -0.021643)
(0.0442031 0 0.0105511)
(0.0407221 0 0.00961969)
(0.0094016 0 0.0261794)
(-0.00833766 0 0.0379723)
(-0.000551392 0 0.0308405)
(0.00237461 0 0.0249421)
(-0.0171301 0 -0.00411084)
(-0.0264037 0 -0.00835725)
(-0.0336959 0 -0.0110881)
(-0.0413829 0 -0.010521)
(-0.0467161 0 -0.00801141)
(-0.05231 0 -0.00585381)
(-0.0550161 0 -0.00253134)
(-0.0576792 0 0.00543313)
(-0.0570293 0 0.0142749)
(-0.0560516 0 0.0219085)
(-0.0516025 0 0.0286544)
(-0.0464038 0 0.040385)
(-0.0380668 0 0.0478979)
(-0.0281355 0 0.0564084)
(-0.0163207 0 0.064624)
(0.0183094 0 0.0686791)
(0.0532621 0 0.0701479)
(0.0705886 0 0.0738238)
(0.0764726 0 0.0755484)
(0.0382615 0 0.0602341)
(-0.0435261 0 0.0447196)
(-0.0192212 0 -0.00362754)
(0.0420139 0 -0.0479111)
(0.0345252 0 -0.0237256)
(0.0403914 0 0.0067422)
(0.0199463 0 0.010701)
(-0.0107261 0 0.0237793)
(0.00309362 0 0.0272423)
(0.0106479 0 0.0249908)
(0.002286 0 -0.00531038)
(-0.00909536 0 -0.0110823)
(-0.018608 0 -0.0154564)
(-0.0288436 0 -0.0168169)
(-0.0370909 0 -0.0161385)
(-0.0458685 0 -0.0158229)
(-0.052163 0 -0.0139219)
(-0.0584484 0 -0.00739767)
(-0.0618113 0 0.000776421)
(-0.0647832 0 0.00797515)
(-0.0642081 0 0.0151842)
(-0.0632321 0 0.0284915)
(-0.057814 0 0.0396404)
(-0.0516288 0 0.0505156)
(-0.0410877 0 0.0607083)
(-0.0098469 0 0.0688913)
(0.024926 0 0.0733263)
(0.0472661 0 0.0827087)
(0.064937 0 0.0891683)
(0.0526643 0 0.0794345)
(0.0127062 0 0.0682852)
(0.0225326 0 0.0333649)
(0.0474162 0 -0.0100951)
(0.0148521 0 -0.00616349)
(0.00807041 0 0.0136645)
(0.00871697 0 -0.00882213)
(-0.0119521 0 -0.0044638)
(0.00553906 0 0.0112564)
(0.0197495 0 0.0176882)
(0.0249696 0 -0.00617335)
(0.0123967 0 -0.0131786)
(0.00114012 0 -0.0190864)
(-0.0111639 0 -0.022354)
(-0.0216785 0 -0.0236086)
(-0.033039 0 -0.0254587)
(-0.0424399 0 -0.0254215)
(-0.0521832 0 -0.0211787)
(-0.0592595 0 -0.014509)
(-0.0666266 0 -0.00877848)
(-0.0703692 0 -0.00202622)
(-0.0740149 0 0.0112503)
(-0.0734616 0 0.0247263)
(-0.0723969 0 0.036663)
(-0.065647 0 0.0487761)
(-0.0395792 0 0.0631149)
(-0.00795341 0 0.0710744)
(0.014982 0 0.0854632)
(0.0379424 0 0.0972962)
(0.0379761 0 0.0960741)
(0.0250516 0 0.0907182)
(0.0343801 0 0.0734301)
(0.0422594 0 0.0449331)
(0.0148584 0 0.035829)
(-0.0161149 0 0.0330671)
(-0.0104492 0 0.0051895)
(-0.0100744 0 -0.0140303)
(-7.44072e-05 0 -0.00968799)
(0.0169813 0 0.00525475)
(0.0495984 0 -0.00665532)
(0.0366819 0 -0.0145664)
(0.0241925 0 -0.021715)
(0.0108678 0 -0.0265714)
(-0.00134993 0 -0.0297451)
(-0.0146736 0 -0.0339572)
(-0.0263915 0 -0.0361293)
(-0.0390334 0 -0.034457)
(-0.0495049 0 -0.0300911)
(-0.0606967 0 -0.0265518)
(-0.0690219 0 -0.0211228)
(-0.0770374 0 -0.0095075)
(-0.0816016 0 0.00401269)
(-0.0863175 0 0.0155775)
(-0.085711 0 0.0277969)
(-0.0661209 0 0.0471408)
(-0.0392822 0 0.0609336)
(-0.0195616 0 0.0791872)
(0.0035083 0 0.0950348)
(0.00198407 0 0.102819)
(0.00240132 0 0.104346)
(0.0259072 0 0.107288)
(0.0333207 0 0.094271)
(0.0241616 0 0.0777776)
(-0.00407656 0 0.0589455)
(-0.0108407 0 0.0300767)
(-0.00504043 0 0.00798145)
(-0.00905671 0 0.00282646)
(0.000344039 0 0.00477404)
(0.0747421 0 -0.00673398)
(0.061904 0 -0.0151368)
(0.0492792 0 -0.0231994)
(0.0357985 0 -0.0294034)
(0.0225539 0 -0.0341652)
(0.00829654 0 -0.040459)
(-0.00505863 0 -0.0450455)
(-0.0197616 0 -0.0461335)
(-0.0328758 0 -0.044434)
(-0.0470322 0 -0.0437807)
(-0.0590834 0 -0.0404214)
(-0.0715729 0 -0.0320262)
(-0.080702 0 -0.0202778)
(-0.0912746 0 -0.0099943)
(-0.0970642 0 0.00117265)
(-0.0857672 0 0.0216127)
(-0.0665938 0 0.0409603)
(-0.0509241 0 0.0614035)
(-0.0303857 0 0.080103)
(-0.0428433 0 0.0965755)
(-0.043703 0 0.104832)
(-0.00560252 0 0.126056)
(0.016826 0 0.129033)
(0.0336156 0 0.115455)
(0.0233399 0 0.0903202)
(-0.000392813 0 0.064443)
(-0.0066509 0 0.0431557)
(-0.0123497 0 0.0308462)
(-0.0166359 0 0.0214537)
(0.0990875 0 -0.00644377)
(0.086969 0 -0.0149189)
(0.0748716 0 -0.0234647)
(0.0617373 0 -0.0305437)
(0.048582 0 -0.0366335)
(0.0343412 0 -0.0447974)
(0.020155 0 -0.0515165)
(0.00453343 0 -0.0551075)
(-0.0103209 0 -0.0562964)
(-0.0265046 0 -0.0590072)
(-0.041283 0 -0.0584456)
(-0.0574284 0 -0.0537614)
(-0.0709449 0 -0.0455967)
(-0.0862308 0 -0.0374007)
(-0.0981666 0 -0.0275056)
(-0.0954448 0 -0.00939776)
(-0.0851343 0 0.0112856)
(-0.0726692 0 0.0314687)
(-0.0568698 0 0.0522429)
(-0.0859601 0 0.0752341)
(-0.0966412 0 0.0903955)
(-0.046141 0 0.123733)
(-0.0075851 0 0.14206)
(0.0305994 0 0.13836)
(0.0458899 0 0.118681)
(0.0180094 0 0.10429)
(-0.00583875 0 0.0822707)
(-0.012096 0 0.0640479)
(-0.0172588 0 0.0463033)
(0.121548 0 -0.00583186)
(0.11069 0 -0.0140113)
(0.0996452 0 -0.0226121)
(0.0874818 0 -0.0301)
(0.0751169 0 -0.0370444)
(0.0614979 0 -0.0465181)
(0.0475931 0 -0.0551157)
(0.0322066 0 -0.0610254)
(0.0166524 0 -0.0647809)
(-0.000377553 0 -0.0707781)
(-0.0168339 0 -0.0735822)
(-0.035164 0 -0.0729623)
(-0.052136 0 -0.0688751)
(-0.0712728 0 -0.0643075)
(-0.0878722 0 -0.0560816)
(-0.0926744 0 -0.0430712)
(-0.0917326 0 -0.0252248)
(-0.0820256 0 -0.00582726)
(-0.0705923 0 0.0149607)
(-0.117285 0 0.0387635)
(-0.144883 0 0.059856)
(-0.0904937 0 0.100427)
(-0.0377582 0 0.129857)
(0.0333217 0 0.139213)
(0.0704929 0 0.131707)
(0.0370671 0 0.125959)
(0.00853242 0 0.112353)
(-0.00441233 0 0.0971751)
(-0.0105566 0 0.0771313)
(0.141314 0 -0.00495577)
(0.132064 0 -0.0125505)
(0.122465 0 -0.0208365)
(0.111785 0 -0.0282464)
(0.100727 0 -0.0355739)
(0.0883933 0 -0.0457938)
(0.0755961 0 -0.0556685)
(0.0611547 0 -0.0633762)
(0.0461333 0 -0.0694126)
(0.0294721 0 -0.0784613)
(0.0125158 0 -0.0846383)
(-0.00672503 0 -0.0878295)
(-0.0254623 0 -0.0877328)
(-0.0471412 0 -0.088187)
(-0.0673573 0 -0.0831576)
(-0.0774634 0 -0.07581)
(-0.0838378 0 -0.0640074)
(-0.0789967 0 -0.0474198)
(-0.0711762 0 -0.0261693)
(-0.128524 0 -0.0055113)
(-0.178131 0 0.0169679)
(-0.144 0 0.0564374)
(-0.0871627 0 0.0927743)
(0.0314688 0 0.126227)
(0.102279 0 0.132178)
(0.061289 0 0.122906)
(0.0267264 0 0.119664)
(0.0107753 0 0.116789)
(-0.00231764 0 0.102677)
(0.157861 0 -0.0039126)
(0.150398 0 -0.0106958)
(0.142509 0 -0.018376)
(0.133616 0 -0.0252781)
(0.124233 0 -0.032496)
(0.113716 0 -0.0429099)
(0.102546 0 -0.0534741)
(0.0897214 0 -0.0623089)
(0.0761687 0 -0.0700445)
(0.0607599 0 -0.0814577)
(0.0445468 0 -0.0907827)
(0.0258891 0 -0.0974057)
(0.00675764 0 -0.10097)
(-0.015693 0 -0.106549)
(-0.0378927 0 -0.106631)
(-0.0525089 0 -0.105005)
(-0.0637981 0 -0.100043)
(-0.0647472 0 -0.0870462)
(-0.0614616 0 -0.0661143)
(-0.116998 0 -0.0527709)
(-0.176548 0 -0.0321755)
(-0.189349 0 -0.00636777)
(-0.158381 0 0.0303284)
(0.0149707 0 0.0942968)
(0.135222 0 0.122061)
(0.085488 0 0.109024)
(0.0429778 0 0.105134)
(0.0233238 0 0.114569)
(0.00698451 0 0.111562)
(0.170924 0 -0.00281504)
(0.165309 0 -0.00859545)
(0.159231 0 -0.0154471)
(0.152286 0 -0.0215045)
(0.144795 0 -0.0281916)
(0.136362 0 -0.0383347)
(0.127207 0 -0.0490285)
(0.116466 0 -0.0582938)
(0.104897 0 -0.0670187)
(0.0915503 0 -0.0799133)
(0.0771255 0 -0.0916773)
(0.0602322 0 -0.101071)
(0.0421149 0 -0.108046)
(0.0209964 0 -0.118317)
(-0.00130977 0 -0.123785)
(-0.0204774 0 -0.127802)
(-0.0356688 0 -0.129237)
(-0.0427152 0 -0.12106)
(-0.044744 0 -0.101451)
(-0.0943897 0 -0.0964198)
(-0.151977 0 -0.0815284)
(-0.19218 0 -0.0663053)
(-0.209188 0 -0.044001)
(-0.0103888 0 0.0211255)
(0.16533 0 0.0788732)
(0.114763 0 0.0782916)
(0.0648301 0 0.0731962)
(0.0340706 0 0.0976126)
(0.0138522 0 0.103573)
(0.180486 0 -0.00171086)
(0.17667 0 -0.00640408)
(0.172391 0 -0.0122522)
(0.167419 0 -0.0172542)
(0.161891 0 -0.0230809)
(0.15561 0 -0.032555)
(0.14865 0 -0.0429098)
(0.140219 0 -0.0519506)
(0.130931 0 -0.0609841)
(0.120211 0 -0.0745344)
(0.108247 0 -0.0877601)
(0.0940172 0 -0.0989847)
(0.0782324 0 -0.108885)
(0.0597755 0 -0.122814)
(0.0393172 0 -0.13306)
(0.016805 0 -0.142345)
(-0.00226941 0 -0.149649)
(-0.0157485 0 -0.147206)
(-0.0233661 0 -0.130525)
(-0.0650424 0 -0.133262)
(-0.116225 0 -0.125397)
(-0.160853 0 -0.116465)
(-0.204697 0 -0.10653)
(-0.0187578 0 -0.0687792)
(0.175595 0 -0.00642207)
(0.141969 0 0.0155712)
(0.0926196 0 0.0220253)
(0.0482764 0 0.0635194)
(0.016592 0 0.0813572)
(0.186629 0 -0.000577328)
(0.184551 0 -0.00418739)
(0.181982 0 -0.00896766)
(0.178888 0 -0.0128279)
(0.175275 0 -0.0175836)
(0.171071 0 -0.0260608)
(0.166262 0 -0.0356935)
(0.160245 0 -0.0439386)
(0.153388 0 -0.0526557)
(0.145514 0 -0.06621)
(0.136357 0 -0.0798289)
(0.125316 0 -0.0920698)
(0.112589 0 -0.103942)
(0.0977222 0 -0.120038)
(0.0804455 0 -0.133677)
(0.0556085 0 -0.147573)
(0.033855 0 -0.16001)
(0.0139497 0 -0.163711)
(0.000573141 0 -0.151448)
(-0.0290705 0 -0.161114)
(-0.0716459 0 -0.160229)
(-0.113895 0 -0.158707)
(-0.161148 0 -0.153488)
(-0.0192603 0 -0.140883)
(0.163812 0 -0.101671)
(0.149382 0 -0.062289)
(0.117135 0 -0.0362142)
(0.0564182 0 0.00230573)
(0.0108482 0 0.0384252)
(0.189495 0 0.000642236)
(0.189108 0 -0.0019894)
(0.188181 0 -0.00571238)
(0.186778 0 -0.00841304)
(0.184942 0 -0.0119984)
(0.182671 0 -0.019302)
(0.179849 0 -0.0279421)
(0.176151 0 -0.0350014)
(0.171692 0 -0.0428474)
(0.166616 0 -0.0557695)
(0.160458 0 -0.0691177)
(0.152803 0 -0.081514)
(0.14356 0 -0.0944669)
(0.132015 0 -0.11139)
(0.118782 0 -0.126836)
(0.0926318 0 -0.143531)
(0.068991 0 -0.160054)
(0.0455687 0 -0.168726)
(0.0263679 0 -0.162072)
(0.0141094 0 -0.178967)
(-0.0155636 0 -0.184186)
(-0.0557166 0 -0.193697)
(-0.0992999 0 -0.192068)
(-0.0175256 0 -0.194009)
(0.121997 0 -0.176803)
(0.125026 0 -0.117437)
(0.110246 0 -0.0805976)
(0.0548285 0 -0.0584949)
(-0.00351656 0 -0.0240443)
(0.189333 0 0.00176783)
(0.190434 0 0.000114761)
(0.191128 0 -0.00257725)
(0.19127 0 -0.00403496)
(0.191027 0 -0.00642438)
(0.190614 0 -0.0125617)
(0.189596 0 -0.0201055)
(0.187921 0 -0.0258299)
(0.185646 0 -0.0324277)
(0.183051 0 -0.0441829)
(0.179653 0 -0.0569271)
(0.174991 0 -0.0681764)
(0.169179 0 -0.080874)
(0.161189 0 -0.0977821)
(0.151705 0 -0.114354)
(0.126642 0 -0.131927)
(0.102281 0 -0.150203)
(0.0787161 0 -0.163931)
(0.0566104 0 -0.162631)
(0.0647241 0 -0.186932)
(0.0539962 0 -0.199171)
(0.0115587 0 -0.220107)
(-0.0280914 0 -0.228091)
(-0.00567245 0 -0.235067)
(0.074934 0 -0.23287)
(0.0897396 0 -0.167146)
(0.0926215 0 -0.11865)
(0.0508493 0 -0.107556)
(-0.00411556 0 -0.0851639)
(0.186319 0 0.00272491)
(0.188775 0 0.00216733)
(0.190782 0 0.000480337)
(0.192588 0 0.000359732)
(0.193762 0 -0.000889591)
(0.195129 0 -0.00593315)
(0.19587 0 -0.012391)
(0.195877 0 -0.0168386)
(0.195431 0 -0.0220326)
(0.194875 0 -0.0323832)
(0.19376 0 -0.0442407)
(0.191752 0 -0.0534653)
(0.188895 0 -0.0642426)
(0.183841 0 -0.0809203)
(0.177961 0 -0.0983972)
(0.155616 0 -0.114454)
(0.132723 0 -0.131652)
(0.112978 0 -0.150917)
(0.0912592 0 -0.155769)
(0.11462 0 -0.185164)
(0.125222 0 -0.204874)
(0.089631 0 -0.229811)
(0.0496846 0 -0.249983)
(0.0124084 0 -0.266106)
(0.0362428 0 -0.272437)
(0.0523642 0 -0.212589)
(0.0667748 0 -0.161369)
(0.0442419 0 -0.152394)
(0.00319961 0 -0.133508)
(0.180736 0 0.00366436)
(0.184445 0 0.00408661)
(0.187665 0 0.00345583)
(0.190908 0 0.0044089)
(0.193729 0 0.00445546)
(0.196376 0 0.00038328)
(0.198855 0 -0.00483022)
(0.200375 0 -0.00800473)
(0.201508 0 -0.0118681)
(0.202882 0 -0.0209813)
(0.203469 0 -0.0317235)
(0.203445 0 -0.0388856)
(0.202873 0 -0.0472232)
(0.200069 0 -0.0626623)
(0.197011 0 -0.0805715)
(0.178333 0 -0.0932332)
(0.158302 0 -0.107187)
(0.147448 0 -0.130697)
(0.130047 0 -0.14277)
(0.163902 0 -0.175114)
(0.190172 0 -0.199498)
(0.152272 0 -0.224965)
(0.120184 0 -0.250665)
(0.0351204 0 -0.272252)
(-0.00117147 0 -0.288664)
(0.0181359 0 -0.243978)
(0.0352885 0 -0.199249)
(0.0294273 0 -0.194297)
(0.00717186 0 -0.174559)
(0.172855 0 0.00452217)
(0.177656 0 0.00587236)
(0.181938 0 0.00621224)
(0.186357 0 0.00827838)
(0.190427 0 0.0094834)
(0.194537 0 0.00678398)
(0.19818 0 0.00261195)
(0.201607 0 0.000859841)
(0.204263 0 -0.00192542)
(0.207346 0 -0.00991703)
(0.209803 0 -0.0195107)
(0.211105 0 -0.0252993)
(0.212032 0 -0.0315328)
(0.210379 0 -0.0450203)
(0.208912 0 -0.0618315)
(0.192876 0 -0.0704928)
(0.176501 0 -0.0806701)
(0.181799 0 -0.104996)
(0.173827 0 -0.123786)
(0.213716 0 -0.158496)
(0.251079 0 -0.185773)
(0.205287 0 -0.213108)
(0.171676 0 -0.242207)
(0.0408711 0 -0.25652)
(-0.0433532 0 -0.277639)
(-0.0162821 0 -0.246858)
(0.00263334 0 -0.216638)
(0.0115027 0 -0.224665)
(0.006125 0 -0.208097)
(0.163159 0 0.00522315)
(0.168768 0 0.0073544)
(0.173997 0 0.008609)
(0.179389 0 0.0117889)
(0.184412 0 0.0141279)
(0.189766 0 0.0126811)
(0.194746 0 0.00977781)
(0.199635 0 0.00925369)
(0.204162 0 0.00781108)
(0.208595 0 0.000931671)
(0.212811 0 -0.00728542)
(0.215749 0 -0.0120048)
(0.217981 0 -0.0170039)
(0.21613 0 -0.0293545)
(0.215101 0 -0.0441037)
(0.19894 0 -0.0491652)
(0.184331 0 -0.0556023)
(0.21406 0 -0.0756446)
(0.222811 0 -0.0989125)
(0.268736 0 -0.136659)
(0.313524 0 -0.167138)
(0.236687 0 -0.198147)
(0.195517 0 -0.228096)
(0.0371879 0 -0.227979)
(-0.0910597 0 -0.245857)
(-0.0538107 0 -0.227285)
(-0.0279801 0 -0.20979)
(-0.00728497 0 -0.228427)
(0.00136387 0 -0.22451)
(0.152116 0 0.00572889)
(0.158515 0 0.00852599)
(0.164259 0 0.0105501)
(0.170271 0 0.0147415)
(0.176089 0 0.0182155)
(0.182445 0 0.0179905)
(0.188438 0 0.0163337)
(0.194495 0 0.0172984)
(0.200322 0 0.0172318)
(0.206547 0 0.0120152)
(0.212217 0 0.00507045)
(0.217273 0 0.00135118)
(0.221535 0 -0.00292217)
(0.218998 0 -0.0144714)
(0.217829 0 -0.0277039)
(0.198438 0 -0.0312146)
(0.182452 0 -0.0346605)
(0.24156 0 -0.0479068)
(0.27437 0 -0.0699743)
(0.328973 0 -0.10957)
(0.380661 0 -0.145034)
(0.247395 0 -0.180053)
(0.173487 0 -0.205701)
(0.0226684 0 -0.184158)
(-0.134412 0 -0.193749)
(-0.0849996 0 -0.200935)
(-0.0476163 0 -0.191826)
(-0.0216729 0 -0.215251)
(-0.00142493 0 -0.221919)
(0.146636 0 0.00920904)
(0.140399 0 0.00613308)
(0.153092 0 0.0118883)
(0.159782 0 0.0171474)
(0.165923 0 0.0216505)
(0.172903 0 0.0224529)
(0.179688 0 0.0219875)
(0.18658 0 0.02451)
(0.193317 0 0.0259803)
(0.201059 0 0.0224252)
(0.208344 0 0.0170655)
(0.215039 0 0.0148007)
(0.221493 0 0.0113498)
(0.219177 0 0.0013805)
(0.217905 0 -0.0104248)
(0.194509 0 -0.0145241)
(0.175135 0 -0.0177999)
(0.262233 0 -0.0262262)
(0.322652 0 -0.0419212)
(0.380469 0 -0.0802433)
(0.439036 0 -0.119991)
(0.222399 0 -0.147979)
(0.091983 0 -0.170589)
(-0.00266993 0 -0.127371)
(-0.152864 0 -0.119578)
(-0.106217 0 -0.172441)
(-0.0575742 0 -0.177232)
(-0.0246091 0 -0.194723)
(0.00111685 0 -0.207903)
(0.147609 0 0.0186782)
(0.141044 0 0.0127701)
(0.128088 0 0.0102117)
(0.110801 0 0.00651352)
(0.154344 0 0.0242538)
(0.16188 0 0.0260865)
(0.168974 0 0.026607)
(0.176325 0 0.0305799)
(0.183639 0 0.033654)
(0.192485 0 0.0317213)
(0.200969 0 0.0279937)
(0.20875 0 0.0278234)
(0.216667 0 0.0259361)
(0.215188 0 0.0182719)
(0.214689 0 0.00862819)
(0.189549 0 0.00365249)
(0.16753 0 -0.00109719)
(0.276633 0 -0.00924658)
(0.364151 0 -0.0191821)
(0.418284 0 -0.0545181)
(0.474921 0 -0.0943476)
(0.207143 0 -0.104277)
(-0.00772647 0 -0.120138)
(-0.0604617 0 -0.0823729)
(-0.15539 0 -0.0538935)
(-0.110725 0 -0.12574)
(-0.0653404 0 -0.163988)
(-0.0253999 0 -0.167511)
(0.00775103 0 -0.184656)
(0.149268 0 0.028524)
(0.141817 0 0.0261073)
(0.128325 0 0.0206757)
(0.110714 0 0.0134345)
(0.0947717 0 0.00987718)
(0.0842958 0 0.00593294)
(0.156816 0 0.0300364)
(0.164464 0 0.0354733)
(0.171899 0 0.0400375)
(0.181375 0 0.0394853)
(0.190639 0 0.0372552)
(0.198823 0 0.0394189)
(0.207398 0 0.0397779)
(0.2065 0 0.034608)
(0.206352 0 0.0273115)
(0.18375 0 0.0242677)
(0.160398 0 0.017779)
(0.284392 0 0.00869108)
(0.39564 0 -0.000395319)
(0.437849 0 -0.0311005)
(0.49034 0 -0.0682855)
(0.182718 0 -0.0650295)
(-0.0904281 0 -0.0662526)
(-0.0982556 0 -0.0488882)
(-0.152285 0 -0.0220533)
(-0.0996462 0 -0.0844167)
(-0.0541215 0 -0.139915)
(-0.0257503 0 -0.132992)
(0.0127661 0 -0.148864)
(0.151129 0 0.0388835)
(0.143636 0 0.032394)
(0.128984 0 0.0314926)
(0.110465 0 0.0276325)
(0.0941394 0 0.0201235)
(0.0832179 0 0.0118619)
(0.0752525 0 0.00808134)
(0.0642157 0 0.0041175)
(0.158735 0 0.044933)
(0.168458 0 0.0456365)
(0.178001 0 0.0446227)
(0.186116 0 0.0490712)
(0.194648 0 0.0520028)
(0.194041 0 0.0489188)
(0.193875 0 0.0436023)
(0.175539 0 0.0437403)
(0.154032 0 0.0375805)
(0.276614 0 0.0288455)
(0.402675 0 0.0184312)
(0.4392 0 0.0037218)
(0.479976 0 -0.0285249)
(0.161416 0 -0.0239077)
(-0.148541 0 -0.0169956)
(-0.129782 0 -0.0254119)
(-0.140661 0 -0.0140216)
(-0.0846127 0 -0.0566735)
(-0.0323351 0 -0.106847)
(-0.0232808 0 -0.0987518)
(0.00515087 0 -0.107552)
(0.154149 0 0.0499589)
(0.144643 0 0.0484229)
(0.129655 0 0.0429193)
(0.110516 0 0.0342226)
(0.0932149 0 0.0307587)
(0.0819259 0 0.0253103)
(0.0735965 0 0.0169082)
(0.0612853 0 0.00731744)
(0.0503747 0 0.0036333)
(0.0558576 0 0.000473431)
(0.163787 0 0.0500584)
(0.171573 0 0.0566102)
(0.17967 0 0.0620888)
(0.178782 0 0.0604327)
(0.178332 0 0.056578)
(0.165083 0 0.0605003)
(0.147093 0 0.0563698)
(0.257263 0 0.0488199)
(0.380263 0 0.0378224)
(0.404259 0 0.0449632)
(0.43824 0 0.0270216)
(0.147691 0 0.0332059)
(-0.17183 0 0.038901)
(-0.147881 0 -0.00774362)
(-0.12879 0 -0.0167084)
(-0.0705453 0 -0.0335034)
(-0.0143701 0 -0.0691516)
(-0.0203409 0 -0.068705)
(-0.0104637 0 -0.0729784)
(0.155777 0 0.0620534)
(0.1484 0 0.0537857)
(0.130992 0 0.0548585)
(0.110038 0 0.0516093)
(0.0920372 0 0.0423538)
(0.0794008 0 0.0310962)
(0.0708047 0 0.0261468)
(0.0589704 0 0.0179833)
(0.0466628 0 0.00846945)
(0.0501601 0 -0.00167461)
(0.0567316 0 -0.00435918)
(0.0651426 0 -0.00678982)
(0.163351 0 0.0698328)
(0.16186 0 0.0692095)
(0.160638 0 0.0662795)
(0.152232 0 0.0738537)
(0.138577 0 0.0727)
(0.229969 0 0.0668454)
(0.33794 0 0.0564184)
(0.353313 0 0.0797988)
(0.375374 0 0.0810163)
(0.13396 0 0.0901735)
(-0.16275 0 0.0976363)
(-0.147298 0 0.0267916)
(-0.122444 0 -0.0148283)
(-0.0650705 0 -0.0121472)
(-0.00609809 0 -0.0279951)
(-0.0193079 0 -0.039142)
(-0.0254465 0 -0.0460331)
(0.143531 0 0.0753665)
(0.146412 0 0.0750941)
(0.13056 0 0.0678846)
(0.110644 0 0.0572116)
(0.0907748 0 0.0547095)
(0.076881 0 0.0482175)
(0.0670353 0 0.0366081)
(0.0534071 0 0.0219516)
(0.0415549 0 0.0145483)
(0.0449867 0 0.00492875)
(0.0498612 0 -0.00499828)
(0.0515212 0 -0.019042)
(0.0606564 0 -0.0203391)
(0.105252 0 -0.0105139)
(0.14166 0 0.073131)
(0.138515 0 0.0838617)
(0.129164 0 0.0858306)
(0.200328 0 0.0809939)
(0.28864 0 0.0721786)
(0.295829 0 0.103581)
(0.306939 0 0.121082)
(0.109983 0 0.12989)
(-0.135808 0 0.142961)
(-0.121364 0 0.0707977)
(-0.107641 0 0.00918453)
(-0.0670063 0 0.0163347)
(-0.0108901 0 0.0157836)
(-0.0199167 0 -0.00882121)
(-0.0327729 0 -0.0213006)
(0.121872 0 0.0908955)
(0.121902 0 0.077862)
(0.11538 0 0.0818368)
(0.105973 0 0.0801241)
(0.0871964 0 0.0683436)
(0.0740576 0 0.0535738)
(0.0630345 0 0.048056)
(0.0484357 0 0.0381849)
(0.0348857 0 0.0234187)
(0.0330015 0 0.00592353)
(0.0380506 0 -0.00272711)
(0.0401491 0 -0.0222083)
(0.0423159 0 -0.0357973)
(0.0820055 0 -0.040994)
(0.126947 0 -0.0307792)
(0.161449 0 -0.0215171)
(0.118216 0 0.0957201)
(0.175159 0 0.0923145)
(0.243194 0 0.0847582)
(0.239771 0 0.115466)
(0.242285 0 0.144021)
(0.0852867 0 0.151756)
(-0.113632 0 0.167583)
(-0.0997707 0 0.113657)
(-0.088011 0 0.0527967)
(-0.0672246 0 0.0566795)
(-0.0266636 0 0.0584631)
(-0.023134 0 0.0274774)
(-0.0328325 0 0.00611601)
(0.150168 0 0.100279)
(0.106277 0 0.101635)
(0.0990247 0 0.0970418)
(0.0778307 0 0.083143)
(0.0698196 0 0.0829115)
(0.0668803 0 0.0765222)
(0.056607 0 0.0609544)
(0.0420086 0 0.0434446)
(0.0276007 0 0.0348272)
(0.0221916 0 0.0208548)
(0.022057 0 0.00362935)
(0.0194624 0 -0.0257974)
(0.0220895 0 -0.0428479)
(0.0540532 0 -0.0578121)
(0.0947436 0 -0.0617626)
(0.138575 0 -0.0687547)
(0.166312 0 -0.0573099)
(0.25834 0 -0.0209012)
(0.206672 0 0.0944932)
(0.197493 0 0.120511)
(0.190273 0 0.152333)
(0.0630474 0 0.154917)
(-0.0949501 0 0.169438)
(-0.0799824 0 0.137835)
(-0.065633 0 0.0945954)
(-0.0591301 0 0.0972767)
(-0.0387885 0 0.0940166)
(-0.0269514 0 0.0653987)
(-0.0235822 0 0.0397082)
(0.158609 0 0.125183)
(0.174987 0 0.1015)
(0.120773 0 0.108198)
(0.073941 0 0.106272)
(0.0545094 0 0.0980768)