/*--------------------------------*- C++ -*----------------------------------*\
| =========                 |                                                 |
| \\      /  F ield         | OpenFOAM: The Open Source CFD Toolbox           |
|  \\    /   O peration     | Version:  5.x                                   |
|   \\  /    A nd           | Web:      www.OpenFOAM.org                      |
|    \\/     M anipulation  |                                                 |
\*---------------------------------------------------------------------------*/
FoamFile
{
    version     2.0;
    format      ascii;
    class       surfaceScalarField;
    location    "1";
    object      alphaPhi10;
}
// * * * * * * * * * * * * * * * * * * * * * * * * * * * * * * * * * * * * * //

dimensions      [0 3 -1 0 0 0 0];

internalField   nonuniform List<scalar> 
30582
(
0.000284581
-2.94938e-07
0.000282127
2.45445e-06
0.00028404
-1.44464e-08
0.000277037
5.08964e-06
0.000280997
5.49781e-06
0.000282618
1.76368e-06
0.000273942
3.0956e-06
0.000275823
1.02633e-05
0.000279824
8.29201e-06
0.000279787
6.48136e-06
0.000274961
-1.019e-06
0.000272618
6.30047e-06
0.000274893
1.51942e-05
0.000274754
1.33244e-05
0.000275794
1.53323e-05
0.000276964
-2.00344e-06
0.000274231
-2.6317e-06
0.000272172
9.02147e-06
0.000269357
2.05918e-05
0.000272305
1.6813e-05
0.000267974
3.21882e-05
0.000277291
-3.27103e-07
0.000277022
-4.79384e-06
0.000274571
-5.03066e-06
0.000267058
1.13201e-05
0.000266805
2.6092e-05
0.000260992
2.37943e-05
0.000263633
5.36015e-05
0.000272414
4.87683e-06
0.000277484
-7.89461e-07
0.000278527
-8.75006e-06
0.000271611
-9.58383e-06
0.000266116
1.20092e-05
0.000254708
3.23766e-05
0.000258965
2.84622e-05
0.000242651
9.62457e-05
0.000261877
1.05373e-05
0.000273363
8.99801e-06
0.00028057
-2.83262e-06
0.000278227
-1.53654e-05
0.000272599
-1.60676e-05
0.000255996
1.07204e-05
0.000250939
4.04028e-05
0.000230799
4.01405e-05
0.000112902
-1.00854e-05
0.000245864
1.60134e-05
0.00026301
2.08895e-05
0.000276207
1.3361e-05
0.00028127
-5.87613e-06
0.000281363
-2.41294e-05
0.000267116
-2.71868e-05
0.000253692
7.96743e-06
0.000227694
4.21693e-05
0.000131384
5.15206e-06
-9.02056e-06
2.45686e-07
0.000225639
2.02245e-05
0.000246885
3.21388e-05
0.000265565
3.15316e-05
0.00027892
1.57109e-05
0.00028729
-1.18028e-05
0.000281149
-3.8163e-05
0.000266658
-4.0148e-05
0.000239722
-3.97813e-06
0.000146483
2.52119e-06
-2.85543e-06
-1.78311e-08
-2.40763e-09
2.51415e-09
0.000202788
2.28514e-05
0.000226373
4.07366e-05
0.000248963
4.87406e-05
0.000268797
4.1655e-05
0.000284959
1.80425e-05
0.000289754
-2.04076e-05
0.000284219
-5.57209e-05
0.000259902
-5.27574e-05
0.000171595
-6.63252e-06
1.97805e-06
-4.1945e-08
1.20858e-10
-6.45766e-11
1.64786e-10
8.0344e-13
0.000178867
2.39208e-05
0.000203192
4.60326e-05
0.000227796
6.19037e-05
0.000251777
6.57607e-05
0.000274375
5.22384e-05
0.000290579
1.72175e-05
0.000297927
-3.4116e-05
0.000285277
-7.10836e-05
0.000205782
-2.05115e-05
1.09516e-05
-1.51097e-07
-2.29061e-09
-2.79981e-11
5.45516e-12
-9.74552e-16
2.78758e-15
1.91864e-17
0.000155147
2.37198e-05
0.000178974
4.81382e-05
0.000203926
6.99028e-05
0.000229726
8.39544e-05
0.000256291
8.38448e-05
0.000280559
6.22581e-05
0.000299096
1.6049e-05
0.000303936
-4.68683e-05
0.000244754
-3.35359e-05
2.69742e-05
-4.64848e-07
1.96145e-08
-1.88547e-10
7.91266e-12
-1.74526e-15
7.53558e-18
-5.47321e-20
3.75763e-19
1.79687e-22
0.000132519
2.26278e-05
0.000155024
4.76697e-05
0.000179105
7.29595e-05
0.000204862
9.4767e-05
0.000232784
0.000107462
0.000261381
0.000103023
0.000288461
7.28926e-05
0.00030837
1.16862e-05
0.000271746
-2.94674e-05
5.27983e-05
-1.06874e-06
1.55262e-07
-1.06708e-09
3.13148e-11
-2.16641e-14
3.13669e-16
-4.08923e-20
3.18421e-21
-1.18231e-25
-5.82311e-27
0.000111512
2.10078e-05
0.00013224
4.54127e-05
0.000154694
7.20808e-05
0.000179158
9.86638e-05
0.000206429
0.000121122
0.000236005
0.000132838
0.000267619
0.000123866
0.00029889
8.23722e-05
0.000278974
1.96751e-07
8.04337e-05
-1.57822e-06
6.5385e-07
-3.87156e-09
1.27346e-10
-1.94798e-13
1.50666e-15
-5.59427e-19
3.44774e-21
-6.82765e-25
-6.04897e-27
9.23629e-05
1.91487e-05
0.000111141
4.21065e-05
0.000131599
6.85069e-05
0.000154075
9.71639e-05
0.000179462
0.000125631
0.000207684
0.000149442
0.000239942
0.000160515
0.00027652
0.000146236
0.000266789
2.95431e-05
8.97659e-05
-6.66288e-07
1.86024e-06
-8.63948e-09
3.78659e-10
-8.9377e-13
4.26594e-15
-5.42962e-18
1.83261e-20
-1.16129e-23
1.84727e-26
7.50939e-05
1.7269e-05
9.19562e-05
3.83335e-05
0.000110329
6.33769e-05
0.000130537
9.20445e-05
0.000153447
0.000123178
0.000179065
0.00015425
0.000209309
0.000180075
0.000245709
0.000191325
0.000234618
5.10105e-05
8.84568e-05
1.67544e-06
3.1223e-06
-7.80439e-09
1.02111e-09
-2.51918e-12
-2.15476e-14
-2.51173e-17
-7.58587e-22
-1.24528e-22
1.37634e-25
5.95753e-05
1.55186e-05
7.46938e-05
3.45314e-05
9.10853e-05
5.75771e-05
0.000109028
8.48861e-05
0.000129307
0.000116185
0.000151856
0.000150387
0.000178832
0.000184728
0.000211845
0.000213939
0.000196039
5.87404e-05
6.8481e-05
3.19223e-06
3.38709e-06
6.15986e-09
2.13322e-09
-2.83912e-12
-1.85037e-13
-7.46711e-17
-8.48491e-19
-6.09348e-22
7.46121e-26
4.55836e-05
1.39917e-05
5.92126e-05
3.09998e-05
7.38483e-05
5.17684e-05
8.97101e-05
7.68948e-05
0.000107475
0.000106718
0.000126969
0.000141072
0.00015038
0.000178839
0.000178896
0.000217677
0.000158646
5.47164e-05
4.7565e-05
2.93713e-06
2.25445e-06
2.8224e-08
2.48773e-09
3.07105e-12
-5.41641e-13
-8.66368e-17
-4.93683e-18
-2.01221e-21
-8.23045e-24
3.28415e-05
1.27422e-05
4.52795e-05
2.79249e-05
5.84527e-05
4.63954e-05
7.25238e-05
6.89547e-05
8.80516e-05
9.63182e-05
0.000104765
0.000128922
0.000124789
0.000166663
0.000148575
0.00020916
0.000126062
4.46208e-05
3.11837e-05
1.9371e-06
9.14049e-07
1.9713e-08
1.24494e-09
1.54489e-11
-4.42823e-13
1.14172e-16
-1.4818e-17
-2.49238e-21
-5.0673e-23
2.1051e-05
1.17904e-05
3.26103e-05
2.54114e-05
4.46476e-05
4.17299e-05
5.72692e-05
6.165e-05
7.09201e-05
8.60862e-05
8.52655e-05
0.000115818
0.000102297
0.000151413
0.000121689
0.000193549
9.91327e-05
3.33269e-05
1.93385e-05
1.05497e-06
3.12783e-07
7.34985e-09
2.54932e-10
6.95989e-12
-1.082e-13
5.75634e-16
-1.25426e-17
4.20731e-21
-1.66956e-22
9.90912e-06
1.11419e-05
2.09037e-05
2.3497e-05
3.21365e-05
3.79224e-05
4.36671e-05
5.5332e-05
5.58339e-05
7.67362e-05
6.82779e-05
0.000103074
8.28024e-05
0.000135313
9.8434e-05
0.000174668
7.74631e-05
2.338e-05
1.12932e-05
5.09228e-07
9.52023e-08
2.11276e-09
4.53533e-11
1.40144e-12
-8.38544e-15
2.4509e-16
-2.94241e-18
2.05334e-20
-1.32976e-22
-8.73931e-07
1.07831e-05
9.85239e-06
2.21932e-05
2.06048e-05
3.50288e-05
3.13996e-05
5.019e-05
4.24778e-05
6.86881e-05
5.34935e-05
9.15206e-05
6.60111e-05
0.000119865
7.86308e-05
0.000155116
6.02371e-05
1.56957e-05
6.19462e-06
2.2562e-07
2.60372e-08
5.15783e-10
8.46859e-12
1.92213e-13
2.49132e-17
4.52461e-17
-2.12224e-19
8.40288e-21
-2.85861e-23
-1.15719e-05
1.06979e-05
-8.36912e-07
2.14724e-05
9.73803e-06
3.30599e-05
2.0138e-05
4.62904e-05
3.05079e-05
6.21599e-05
4.05479e-05
8.16336e-05
5.15405e-05
0.000105991
6.19081e-05
0.000136588
4.6598e-05
1.0255e-05
3.21322e-06
9.34211e-08
6.70831e-09
1.12809e-10
1.54711e-12
2.09984e-14
8.08392e-17
5.6054e-18
-1.4635e-21
1.44984e-21
-1.69339e-24
-2.24328e-05
1.08609e-05
-1.14413e-05
2.13023e-05
-7.62177e-07
3.19726e-05
9.55696e-06
4.36409e-05
1.95766e-05
5.72217e-05
2.90599e-05
7.36478e-05
3.89759e-05
9.41982e-05
4.7803e-05
0.000120096
3.57905e-05
6.64065e-06
1.5984e-06
3.7105e-08
1.70312e-09
2.31706e-11
2.59474e-13
3.62037e-15
1.72331e-17
6.78325e-19
1.50089e-21
1.73264e-22
3.66782e-26
-3.36762e-05
1.12434e-05
-2.22123e-05
2.16319e-05
-1.11784e-05
3.17185e-05
-6.51124e-07
4.21807e-05
9.34488e-06
5.38726e-05
1.86553e-05
6.76263e-05
2.79049e-05
8.47189e-05
3.58279e-05
0.000106173
2.71563e-05
4.35685e-06
7.77498e-07
1.46574e-08
4.37199e-10
4.67075e-12
4.19189e-14
6.24001e-16
3.5301e-18
1.06606e-19
3.36664e-22
2.21371e-23
2.00085e-26
-4.54896e-05
1.18134e-05
-3.33731e-05
2.24041e-05
-2.17675e-05
3.2221e-05
-1.07765e-05
4.18439e-05
-5.05403e-07
5.20309e-05
8.97498e-06
6.35529e-05
1.79353e-05
7.75959e-05
2.55065e-05
9.50402e-05
2.01407e-05
2.9669e-06
3.79547e-07
6.01649e-09
1.17369e-10
9.60253e-13
7.09063e-15
1.06602e-16
5.45867e-19
1.57073e-20
5.5164e-23
2.96775e-24
3.60866e-27
-5.80221e-05
1.25325e-05
-4.51146e-05
2.35549e-05
-3.27561e-05
3.33928e-05
-2.10842e-05
4.25287e-05
-1.02739e-05
5.16125e-05
-3.12843e-07
6.13188e-05
8.69984e-06
7.27884e-05
1.63939e-05
8.67085e-05
1.42892e-05
2.14529e-06
1.90903e-07
2.71144e-09
3.43414e-11
2.14436e-13
1.38413e-15
1.91927e-17
8.74535e-20
2.32188e-21
7.45502e-24
3.75754e-25
4.66297e-28
-7.13814e-05
1.33593e-05
-5.75872e-05
2.50051e-05
-4.43402e-05
3.5139e-05
-3.1808e-05
4.41166e-05
-2.0236e-05
5.24908e-05
-9.51928e-06
6.08189e-05
-1.38593e-07
7.01572e-05
8.0758e-06
8.11064e-05
9.21816e-06
1.67577e-06
9.98265e-08
1.42018e-09
1.12967e-11
6.57241e-14
3.67222e-16
4.20196e-18
1.73357e-20
3.85815e-22
1.10656e-24
4.95143e-26
5.55169e-29
-8.56289e-05
1.42475e-05
-7.09014e-05
2.66735e-05
-5.66797e-05
3.73446e-05
-4.31516e-05
4.64825e-05
-3.06341e-05
5.45148e-05
-1.89362e-05
6.19077e-05
-8.8942e-06
6.95745e-05
1.94314e-07
7.80387e-05
4.62139e-06
1.42338e-06
5.22129e-08
8.98457e-10
4.17005e-12
3.11713e-14
1.31712e-16
1.37256e-18
4.65799e-21
8.50925e-23
2.11671e-25
7.82811e-27
7.66477e-30
-0.000100773
1.51443e-05
-8.51228e-05
2.84689e-05
-6.98913e-05
3.98852e-05
-5.52827e-05
4.94757e-05
-4.16817e-05
5.75301e-05
-2.88157e-05
6.43942e-05
-1.78653e-05
7.08788e-05
-7.61182e-06
7.73806e-05
2.16177e-07
1.31448e-06
2.29937e-08
6.8416e-10
1.64036e-12
1.85871e-14
5.21469e-17
5.95802e-19
1.51439e-21
2.5903e-23
5.24389e-26
1.64497e-27
1.35004e-30
-0.000116766
1.59933e-05
-0.000100265
3.02865e-05
-8.40487e-05
4.26263e-05
-6.83304e-05
5.2933e-05
-5.35582e-05
6.13523e-05
-3.93853e-05
6.80998e-05
-2.73091e-05
7.3838e-05
-1.56807e-05
7.89476e-05
-4.14322e-06
1.31068e-06
2.22293e-10
6.09529e-10
4.94881e-13
1.38641e-14
2.11703e-17
3.37652e-19
5.40466e-22
1.03039e-23
1.55327e-26
4.49887e-28
2.91622e-31
-0.000133509
1.67427e-05
-0.000116286
3.20145e-05
-9.91755e-05
4.54133e-05
-8.23821e-05
5.66781e-05
-6.64069e-05
6.57817e-05
-5.08418e-05
7.28088e-05
-3.74592e-05
7.82499e-05
-2.42865e-05
8.24437e-05
-8.61248e-06
1.40874e-06
-2.29636e-08
6.15383e-10
-3.03241e-13
1.23552e-14
6.14924e-18
2.47929e-19
2.01038e-22
5.55349e-24
5.47577e-27
1.64819e-28
7.60381e-32
-0.000150841
1.7332e-05
-0.000133092
3.35478e-05
-0.000115241
4.808e-05
-9.74766e-05
6.05077e-05
-8.03322e-05
7.06034e-05
-6.33488e-05
7.82887e-05
-4.85233e-05
8.38728e-05
-3.36978e-05
8.76612e-05
-1.34075e-05
1.62595e-06
-5.31203e-08
7.01916e-10
-1.18046e-12
1.25716e-14
-4.5068e-18
2.21225e-19
4.58342e-23
4.01027e-24
2.11039e-27
8.49075e-29
2.45729e-32
-0.000168552
1.77107e-05
-0.000150523
3.47636e-05
-0.00013216
5.04665e-05
-0.000113598
6.42009e-05
-9.53921e-05
7.55675e-05
-7.70343e-05
8.42888e-05
-6.06823e-05
9.04477e-05
-4.41554e-05
9.43305e-05
-1.87258e-05
2.00152e-06
-1.00418e-07
9.12688e-10
-2.59925e-12
1.44922e-14
-1.61094e-17
2.2686e-19
-5.75768e-23
3.57689e-24
5.77697e-28
6.03732e-29
8.96048e-33
-0.000186369
1.78172e-05
-0.000168373
3.55602e-05
-0.000149782
5.2386e-05
-0.000130673
6.75417e-05
-0.00011159
8.03986e-05
-9.19815e-05
9.05147e-05
-7.40876e-05
9.76941e-05
-5.58744e-05
0.000102167
-2.47779e-05
2.60029e-06
-1.83503e-07
1.36605e-09
-5.55725e-12
1.92924e-14
-3.46238e-17
2.64206e-19
-1.6982e-22
3.69645e-24
-5.03331e-28
5.38294e-29
2.12526e-33
-0.000203978
1.76085e-05
-0.000186367
3.58117e-05
-0.000167902
5.36797e-05
-0.000148564
7.02769e-05
-0.000128873
8.48248e-05
-0.00010822
9.66374e-05
-8.88524e-05
0.000105279
-6.9039e-05
0.000110859
-3.17868e-05
3.51162e-06
-3.3696e-07
2.3371e-09
-1.29419e-11
3.0398e-14
-7.33823e-17
3.58895e-19
-3.66472e-22
4.36146e-24
-1.72012e-27
5.6056e-29
-2.71228e-33
-0.000221029
1.70512e-05
-0.000204188
3.54294e-05
-0.000186244
5.41541e-05
-0.000167071
7.21876e-05
-0.000147121
8.85246e-05
-0.000125724
0.000102329
-0.000105042
0.000112827
-8.37929e-05
0.000120033
-3.99852e-05
4.84691e-06
-6.21282e-07
4.43075e-09
-3.29804e-11
5.63848e-14
-1.64799e-16
5.91386e-19
-8.04007e-22
6.05985e-24
-3.78521e-27
6.70329e-29
-8.06497e-33
1.61189e-05
-0.000237148
-0.00022148
3.43435e-05
-0.000204486
5.36709e-05
-0.000185924
7.30069e-05
-0.000166148
9.1215e-05
-0.000144396
0.000107196
-0.000122671
0.000119957
-0.000100227
0.000129261
-4.96125e-05
6.73017e-06
-1.13442e-06
8.92781e-09
-9.06787e-11
1.41219e-13
-3.9624e-16
1.17816e-18
-1.94325e-21
1.04484e-23
-8.36545e-27
9.52234e-29
-1.71876e-32
3.24957e-05
-0.000237857
3.2813e-05
-0.000269961
-0.00022226
5.21181e-05
-0.00020479
7.2537e-05
-0.000185688
9.25474e-05
-0.00016407
0.00011089
-0.000141684
0.000126209
-0.000118372
0.000138102
-6.09066e-05
9.28005e-06
-2.02181e-06
1.84014e-08
-2.6122e-10
4.6263e-13
-1.1715e-15
2.82672e-18
-5.16198e-21
2.23554e-23
-2.06033e-26
1.71102e-28
-3.87752e-32
4.94207e-05
-0.000239185
6.61652e-05
-0.000271209
2.02733e-05
-0.000290234
-0.00022329
7.06176e-05
-0.000205402
9.22507e-05
-0.000184496
0.000112973
-0.000161957
0.000131163
-0.000138182
0.00014602
-7.40954e-05
1.25872e-05
-3.47955e-06
3.76816e-08
-7.65148e-10
1.59768e-12
-4.31975e-15
8.98573e-18
-1.53706e-20
5.74749e-23
-5.85293e-26
3.91599e-28
-1.02966e-31
6.71152e-05
-0.000240984
0.000100969
-0.000273989
4.14581e-05
-0.000292394
4.36232e-06
-0.000294596
-0.000224879
9.00944e-05
-0.000205326
0.000113081
-0.000183273
0.000134289
-0.00015953
0.000152511
-8.94022e-05
1.66842e-05
-5.75041e-06
7.52301e-08
-2.22659e-09
5.54118e-12
-1.76863e-14
3.35665e-17
-5.53642e-20
1.80428e-22
-1.87843e-25
1.09928e-27
-3.24618e-31
8.59392e-05
-0.000243703
0.000137857
-0.000277872
6.41872e-05
-0.000296718
1.13962e-05
-0.000299428
-1.41305e-05
-0.000280466
-0.000226103
0.000110871
-0.000205296
0.000135104
-0.000182201
0.00015696
-0.000107034
2.1522e-05
-9.09537e-06
1.44264e-07
-6.34389e-09
1.8784e-11
-7.41849e-14
1.31138e-16
-2.34206e-19
6.9211e-22
-6.97254e-25
3.63999e-27
-1.17521e-30
0.000106117
-0.000246281
0.000177697
-0.000283543
8.90336e-05
-0.000302719
1.98184e-05
-0.00030514
-2.18897e-05
-0.000291669
-3.80785e-05
-0.000242387
-0.000227482
0.000133057
-0.00020588
0.000158783
-0.000127114
2.69099e-05
-1.37473e-05
2.62844e-07
-1.74994e-08
6.13379e-11
-3.05991e-13
5.06838e-16
-1.05124e-18
2.95231e-21
-3.05404e-24
1.43127e-26
-4.76493e-30
0.000127849
-0.000249215
0.000221124
-0.000289708
0.0001168
-0.000311309
3.10392e-05
-0.00031394
-2.77966e-05
-0.000299233
-6.27234e-05
-0.000267024
-9.81621e-05
-0.000144225
-0.000229951
0.000157128
-0.000149721
3.25225e-05
-1.99387e-05
4.56285e-07
-4.63068e-08
1.90264e-10
-1.20505e-12
1.89343e-15
-4.62399e-18
1.28318e-20
-1.48279e-23
6.4642e-26
-2.20274e-29
0.000151299
-0.000253401
0.000268645
-0.000296736
0.000147671
-0.000320579
4.49712e-05
-0.000325241
-2.84719e-05
-0.000313264
-8.10623e-05
-0.000280894
-0.000144464
-0.000220721
-0.000104049
-4.01765e-05
-0.000174941
3.78325e-05
-2.79449e-05
7.54465e-07
-1.15852e-07
5.53043e-10
-4.40075e-12
6.73811e-15
-1.84435e-17
5.41737e-20
-7.27099e-23
3.09386e-25
-1.14143e-28
4.22385e-05
-0.000202704
0.000321291
-0.000306047
0.000182264
-0.000331329
6.10372e-05
-0.000336645
-2.7635e-05
-0.000326078
-8.99087e-05
-0.000304418
-0.000164256
-0.000261103
-0.000173503
-0.000151267
-0.0003016
0.000261423
-3.8065e-05
1.18017e-06
-2.72718e-07
1.50804e-09
-1.50099e-11
2.81412e-14
-6.23995e-17
2.16259e-19
-3.31927e-22
1.46703e-24
-6.16549e-28
1.79155e-06
-5.04046e-05
0.000108041
-0.000266012
0.00022024
-0.000344022
8.07322e-05
-0.000351024
-2.39678e-05
-0.000340312
-9.62168e-05
-0.00031977
-0.000161051
-0.000307623
-0.000203271
-0.000231335
-0.000371627
-8.12397e-05
-7.5968e-05
0.000337391
-5.79576e-07
3.78436e-09
-5.09162e-11
1.39049e-13
-2.30845e-16
8.49641e-19
-1.26112e-21
6.62241e-24
-3.19186e-27
8.33603e-09
-1.0154e-06
5.88769e-06
-8.37995e-05
9.18846e-05
-0.000317405
0.000101004
-0.000364294
-2.0237e-05
-0.000354754
-0.000101106
-0.000335423
-0.000158041
-0.00032278
-0.000202224
-0.00030867
-0.00035133
-0.000251631
-9.47225e-05
-6.24851e-05
0.000297505
3.98856e-05
-1.69043e-10
6.29183e-13
-8.12444e-16
4.11358e-18
-4.36537e-21
2.80479e-23
-1.43724e-26
2.28632e-12
-3.15139e-10
4.35545e-08
-3.61178e-06
6.88838e-06
-0.000116007
4.80259e-05
-0.000343706
-1.21146e-05
-0.000371582
-0.000108007
-0.000347852
-0.000161253
-0.000332211
-0.000195415
-0.000329589
-0.000282136
-0.000377864
-8.01227e-05
-0.000266231
0.000328533
-9.35137e-05
0.00140588
0.000107104
-0.0014731
-5.22102e-16
2.02072e-17
-1.32094e-20
1.29049e-22
-5.45862e-26
8.2221e-17
1.32869e-14
1.79239e-11
-3.47678e-09
7.9563e-08
-6.58668e-06
3.77946e-06
-0.00012519
-8.21996e-06
-0.000343045
-0.000110045
-0.000362857
-0.000172433
-0.000336654
-0.000197106
-0.00033052
-0.000223419
-0.000388306
-7.44235e-05
-0.000383562
0.000316997
-0.000254694
0.00124887
6.35022e-05
0.00135164
0.000253288
-0.00149782
0.000103365
-0.00157647
8.6271e-21
6.47269e-22
-1.81402e-25
2.87571e-21
4.28293e-19
6.56924e-16
1.82849e-13
5.89248e-11
-9.08755e-09
2.61608e-08
-6.23747e-06
-1.56887e-06
-0.000115174
-6.60883e-05
-0.000325277
-0.000177238
-0.000346316
-0.000208023
-0.000325677
-0.000201048
-0.00035289
-6.83796e-05
-0.00039435
0.000270277
-0.000336843
0.00102704
-3.28705e-05
0.00117645
0.000238691
0.0013459
0.000441579
-0.00153419
0.000213481
-0.00160794
6.73493e-05
-0.00164381
-2.25437e-25
3.53022e-24
2.38289e-20
5.89744e-18
2.34034e-15
1.26251e-12
1.23584e-11
-7.05828e-09
-2.01945e-08
-4.22579e-06
-3.95237e-06
-8.30407e-05
-8.70855e-05
-0.000290203
-0.0002141
-0.000323386
-0.000210095
-0.000316544
-8.86832e-05
-0.000332586
0.000197654
-0.000321726
0.000772088
-8.18899e-05
0.000946427
0.000197153
0.00111912
0.00046547
0.00139131
0.000665973
-0.00161571
0.000364844
-0.00168555
0.000150572
-0.00169116
3.28944e-05
-0.00167669
6.61467e-23
9.04491e-20
4.23732e-17
3.20385e-16
1.94269e-12
-1.05916e-11
-2.74208e-09
-2.51366e-08
-1.81823e-06
-3.22139e-06
-4.97986e-05
-8.10116e-05
-0.000246595
-0.0002228
-0.000290372
-0.000136917
-0.000268258
9.37578e-05
-0.00022869
0.000510579
-6.02166e-05
0.000665379
0.000199158
0.000856884
0.00045939
0.00114636
0.00071043
0.0014218
0.000972456
-0.00172829
0.000562219
-0.00181309
0.000254335
-0.00178932
7.21032e-05
-0.00173037
-5.49354e-06
-0.00167122
5.17164e-22
7.56137e-21
5.91026e-17
-3.47847e-16
8.50646e-13
-8.84944e-12
-6.86433e-10
-1.45822e-08
-5.78609e-07
-1.96077e-06
-2.7987e-05
-6.7526e-05
-0.000199517
-0.000188024
-0.00022008
-3.20849e-05
-0.000142407
0.000281302
5.8793e-07
0.000388106
0.000217056
0.000616832
0.000439211
0.000894551
0.000711201
0.00114587
0.000986365
0.00154595
0.00131695
-0.00189045
0.000820606
-0.00198668
0.000389418
-0.00194817
0.000117685
-0.0018349
-1.65887e-05
-0.00171928
-4.20108e-05
-0.00162921
6.80867e-22
-1.07396e-20
2.04579e-17
-2.52471e-16
2.50413e-13
-3.79433e-12
-1.43491e-10
-6.26708e-09
-1.1181e-07
-1.15123e-06
-1.49267e-05
-5.26775e-05
-0.000136105
-0.000143252
-9.38357e-05
8.7626e-05
5.12694e-05
0.000168894
0.0002198
0.000425405
0.000408483
0.000646511
0.000687249
0.000889441
0.000967632
0.00113638
0.00139594
0.00153614
0.000383762
-0.00176767
0.000380884
0.000392768
0.000391064
0.00103463
-0.00210448
0.000539119
-0.00213638
0.000165956
-0.00199644
-3.44239e-05
-0.00181707
-9.1746e-05
-0.00166955
-7.40527e-05
-0.00155515
1.9084e-22
-6.59853e-21
5.3544e-18
-9.74618e-17
5.62848e-14
-1.23614e-12
-1.87535e-11
-2.40166e-09
1.9223e-08
-6.8607e-07
-4.7778e-06
-4.04765e-05
-5.66883e-05
-6.69016e-05
6.77413e-05
1.01156e-05
0.000210048
0.000258273
0.000386933
0.000401145
0.000653849
0.000646839
0.000929849
0.000789287
0.00131473
0.00114938
0.00178269
-8.57562e-07
0.000349437
-0.000376736
0.000411919
0.000314696
-0.00193095
0.000311994
0.000285824
0.000285398
0.000351114
-0.000377782
0.000406694
-7.18698e-07
0.000304505
0.000438418
0.000307041
0.000434419
0.000608396
-0.00217375
0.000193195
-0.00216362
-6.76755e-05
-0.00196319
-0.000157828
-0.00175099
-0.000151142
-0.00159245
-0.000100349
-0.0014548
4.40979e-23
-2.23913e-21
1.05047e-18
-2.8375e-17
1.32684e-14
-3.62456e-13
8.97794e-12
-8.9932e-10
4.0537e-08
-3.99703e-07
3.10747e-06
-2.64232e-05
3.70369e-05
-9.97044e-05
0.000191987
8.10713e-05
0.00038725
0.000170763
0.000617315
0.000399166
0.000901521
0.000527995
0.00119114
0.000748795
0.00171532
-0.000265023
-0.000265414
0.000929629
0.000489241
0.000484365
0.000510854
0.000510585
-4.61917e-07
-0.00037393
0.000312352
-3.39107e-08
0.000283311
-0.000297427
0.000426068
-0.00172382
0.000401263
-0.000374325
0.000308074
-1.5127e-07
-0.000314843
0.000226888
-0.000314351
0.000225273
0.000282193
-0.000295774
0.000420242
-3.39513e-07
0.000457045
0.000450858
0.000132977
-0.00211354
-0.000143237
-0.00208806
-0.000247483
-0.00187354
-0.000241784
-0.00166034
-0.000206954
-0.00148584
-0.000129603
-0.0013252
7.74989e-24
-5.86184e-22
2.07267e-19
-7.25648e-18
3.88017e-15
-1.02908e-13
8.82278e-12
-3.32941e-10
3.2363e-08
-1.95437e-07
9.37317e-06
-2.18093e-05
9.47894e-05
-8.11029e-05
0.00036839
-1.14246e-05
0.000569447
0.000143385
0.000873096
0.000351015
0.0010785
0.000388329
0.00155161
0.000671531
0.000484116
0.000484482
0.000503228
0.000501589
7.36172e-07
0.000134667
-0.000162092
0.00051593
0.000133044
-0.000160491
0.000512548
-3.52318e-07
0.000126521
0.000519353
0.000125852
0.000517424
2.86222e-07
-0.000272409
0.000287048
1.98379e-06
0.000173692
-0.000133886
0.000124594
6.26037e-05
0.000123291
7.37892e-05
-0.00142656
-0.000164276
0.000203816
0.000201574
-0.00053988
-9.58311e-05
-7.46904e-05
3.46405e-05
4.24408e-05
-0.00026952
0.000282106
1.40936e-07
0.000158154
0.000157468
0.000172131
-0.000129971
0.000122743
6.36362e-05
0.000121899
7.17877e-05
1.45317e-06
0.000136682
9.43899e-05
0.0001382
9.79196e-05
0.000133954
9.76943e-05
0.000135104
9.71985e-05
-0.000289486
-0.00196729
-0.000373335
-0.00196221
-0.000363183
-0.00175214
-0.000321332
-0.00154596
-0.000261741
-0.0013537
-0.000148368
-0.00117683
1.35889e-24
-1.33689e-22
4.78723e-20
-1.78755e-18
1.11365e-15
-2.69652e-14
4.66355e-12
-1.0831e-10
2.03568e-08
-1.20358e-07
1.08808e-05
-1.72534e-05
0.000167789
-0.000119785
0.000498258
-6.212e-05
0.00077517
0.000178777
0.00104533
0.000109213
0.00135762
0.000400232
0.000454723
0.00045321
0.000458117
0.000456855
-2.39593e-07
0.000113359
0.000497517
0.0001126
0.000497494
-3.43518e-08
9.70904e-05
0.000519532
9.56717e-05
0.000518483
9.80061e-07
5.84026e-05
-2.55269e-05
-1.10665e-05
9.29332e-05
-2.3787e-05
0.000157522
0.00010336
0.000157613
5.47134e-06
5.68864e-05
-2.41878e-05
-1.00184e-05
-2.38518e-05
9.26945e-05
0.00015634
0.00010246
0.000156614
6.59128e-06
7.73434e-07
4.57286e-05
0.000107243
0.000156828
0.000107478
0.000159659
4.62403e-05
0.000107318
0.000156185
0.00010686
0.000158481
9.7494e-07
-3.56413e-05
7.48717e-05
2.38202e-05
8.0814e-05
8.32211e-06
-1.79917e-05
7.74979e-06
5.4576e-07
2.09892e-05
0.000113301
-6.84473e-06
-4.01697e-06
1.55514e-05
5.79139e-05
1.71916e-07
-9.41304e-06
0.000107696
1.71102e-06
7.5811e-05
-0.00116145
-0.000554604
2.32927e-05
-0.000208455
-0.000189194
-0.000176461
-0.000153334
1.72435e-06
-6.82831e-05
0.000149934
-0.000179207
-5.7379e-05
0.000134908
-0.000150495
1.1416e-06
-1.01331e-05
-2.46511e-05
-6.38636e-06
-7.4103e-06
-3.59971e-05
7.31319e-05
2.73651e-05
7.91211e-05
9.48844e-06
-5.32991e-08
5.72636e-05
-2.26966e-06
5.75104e-05
-7.18591e-08
5.75585e-05
4.3768e-07
5.6693e-05
3.42239e-07
-1.59685e-05
8.51581e-06
1.95206e-05
0.000111221
-6.49684e-06
-2.63125e-06
1.40898e-05
5.86744e-05
-7.5829e-06
0.000107189
3.09086e-06
7.45813e-05
1.98361e-05
1.05951e-05
7.06504e-07
0.000126534
-1.1642e-05
-9.86524e-06
9.03702e-05
6.24715e-07
0.000134701
0.00010036
1.88844e-05
1.15422e-05
0.000123755
-1.31282e-05
-1.04155e-05
9.70503e-05
0.000131466
0.000101416
-0.000557438
-0.00178319
-0.000525113
-0.00180028
-0.00046501
-0.00160846
-0.000403606
-0.0014041
-0.000305182
-0.00119689
-0.000166317
-0.0010105
2.49669e-25
-2.91238e-23
1.22174e-20
-3.97666e-19
2.56028e-16
-6.10099e-15
1.87558e-12
-4.02732e-11
1.34179e-08
-6.55208e-08
1.02163e-05
-1.31751e-05
0.000193137
-0.000148818
0.000623805
-4.31852e-05
0.000997445
-5.24198e-05
0.00120697
0.000125622
0.00040317
0.000403214
0.000413653
0.000412191
1.55212e-07
5.58426e-05
0.000495816
5.52529e-05
0.000493784
1.57088e-07
3.75024e-05
0.0004763
3.92675e-05
0.000472998
1.47531e-06
3.19897e-05
0.000101721
0.000150871
0.000103998
0.000153157
3.37455e-05
0.000102661
0.000150677
0.000105236
0.000152882
1.86698e-06
2.34553e-05
0.000108191
0.000156845
0.0001061
0.00015507
2.43469e-05
0.000110226
0.000156626
0.000107973
0.000154941
-3.31007e-06
-1.44306e-05
1.01893e-05
0.000100484
-8.37867e-07
1.43112e-06
6.59899e-05
-9.61748e-06
-2.47625e-07
0.000153794
1.03142e-05
-5.96981e-06
-1.38094e-05
0.000108709
-1.27492e-07
-7.61477e-06
0.000149783
-1.09304e-07
3.92982e-06
0.000135497
-9.65451e-07
6.08042e-07
7.35559e-05
-1.8251e-06
-1.38811e-05
8.1513e-06
0.000100249
-9.45105e-06
1.07551e-05
0.000152963
-5.77691e-06
-1.30996e-05
0.000107456
-7.78812e-06
0.000149046
4.48826e-06
0.000132494
-6.71237e-06
1.37964e-05
-1.27205e-05
0.000112879
7.43798e-06
1.97222e-07
-7.46252e-06
0.000149942
-6.36885e-06
0.000113834
-9.34824e-08
0.000153237
-6.62591e-06
1.32207e-05
-1.25261e-05
0.000113249
7.94137e-06
-7.74351e-06
0.000149558
-6.31531e-06
0.000113296
0.000152226
4.59718e-06
8.48153e-06
-2.55158e-07
1.41657e-07
6.19064e-05
-8.96532e-06
2.80666e-05
2.02703e-05
1.23187e-07
6.69096e-05
4.31001e-05
1.77009e-06
-4.09231e-06
3.37507e-06
5.50727e-07
1.34804e-06
0.00011212
-3.96396e-06
-3.84401e-05
4.77623e-05
5.25558e-05
3.52563e-07
-1.2813e-06
0.000100551
-2.68953e-05
6.76412e-05
-0.000932977
-0.000785906
0.000418028
-0.000249386
-0.000238802
-0.000238296
-0.00022285
3.47045e-06
-0.000208107
0.000253268
-0.000257079
-0.000199641
0.000253349
-0.000239427
3.39506e-06
-0.000238022
-0.000214671
1.76321e-06
-0.000188126
0.000255831
-7.99256e-05
-5.3417e-05
-7.12121e-05
-4.41561e-05
-0.000176773
0.000250411
-7.24755e-05
-4.83749e-05
-6.3393e-05
-3.81262e-05
-1.95032e-07
-7.0669e-05
1.44653e-06
-2.1683e-05
-6.0378e-05
-4.58845e-06
-4.73579e-05
-2.08077e-05
1.14421e-05
-7.08494e-05
2.62116e-06
-1.64967e-05
-6.06541e-05
3.50165e-06
-3.99891e-05
-1.43658e-05
1.18536e-05
3.18492e-06
8.66439e-06
5.52174e-07
6.04752e-05
-8.8358e-06
2.63143e-05
2.39763e-05
6.60104e-05
4.12031e-05
3.26405e-06
-4.18246e-06
1.31738e-05
-2.43845e-07
4.86578e-05
-1.51624e-05
-5.49982e-05
-2.7781e-06
-2.06241e-07
3.9803e-05
1.20391e-06
-4.20396e-06
1.31613e-05
4.89095e-05
-1.43534e-05
-5.39355e-05
-2.12282e-06
4.05505e-05
7.71108e-07
-3.49757e-06
4.12297e-06
1.10091e-06
0.000110045
-3.96104e-06
-3.5879e-05
4.55499e-05
5.29645e-05
8.95579e-08
9.99929e-05
-2.51811e-05
6.80065e-05
4.03536e-06
3.71639e-07
0.000127423
7.89316e-05
4.86096e-06
0.000124855
8.17038e-05
-0.000697008
-0.00161129
-0.000641578
-0.00162371
-0.000550156
-0.00146191
-0.000471054
-0.00123822
-0.000332255
-0.00103095
-0.000176863
-0.000833647
4.08984e-26
-5.31178e-24
2.34737e-21
-8.04477e-20
6.92098e-17
-1.53349e-15
7.16028e-13
-1.26312e-11
5.07077e-09
-2.7249e-08
7.64317e-06
-8.88086e-06
0.000185704
-0.000149578
0.000780809
-0.00019489
0.00114147
-9.77168e-05
0.00034639
0.000346229
0.000368532
0.000369183
3.83243e-07
1.5753e-05
0.000424536
1.86138e-05
0.000424251
-2.65458e-07
-1.00677e-05
0.00043974
-8.34918e-06
0.000438889
1.66742e-06
1.97989e-05
0.000101249
0.000146757
0.00010486
0.000144973
1.98285e-05
0.000103204
0.000146141
0.000106307
0.000144311
1.77132e-06
2.98731e-06
0.000104475
0.000139564
0.000104299
0.000142974
1.03617e-06
0.000106482
0.000138838
0.000105967
0.00014225
-6.30403e-06
-1.28385e-05
0.000108143
-7.50714e-06
2.92575e-07
0.000144334
-6.28811e-06
-1.13045e-05
0.000108757
1.58209e-07
-4.30036e-06
0.000143538
-6.30192e-06
-1.27952e-05
0.000109232
-7.60134e-06
0.000144525
-6.05774e-06
-1.14557e-05
0.000109954
-4.05849e-06
0.00014343
-7.9971e-06
1.03056e-05
-9.69137e-06
0.00011557
4.62907e-06
9.07966e-08
-4.70143e-06
0.000148849
-7.09787e-06
0.000112194
1.73011e-07
0.00014811
-7.76807e-06
1.04869e-05
-1.01127e-05
0.00011762
4.05444e-06
-4.20859e-06
0.000149111
-6.8946e-06
0.000113899
0.000148225
-3.63317e-06
1.33003e-05
-2.1493e-07
-2.57519e-05
-2.92324e-05
-5.24318e-08
-5.68006e-08
1.28417e-05
-3.96414e-08
-1.40099e-05
-1.46263e-07
-1.04941e-05
-2.07383e-06
1.3771e-05
-6.83411e-08
-2.53013e-05
1.35275e-05
-2.91165e-05
6.18035e-08
-1.38554e-05
-1.0503e-05
2.19984e-07
1.27708e-05
-1.16609e-05
7.90058e-06
-1.68892e-08
-6.89847e-06
7.65792e-08
-8.60724e-08
2.52265e-07
1.2698e-05
-1.17389e-05
8.15767e-06
-7.12412e-06
8.03656e-08
2.44729e-06
1.13663e-05
-2.47696e-07
-9.25401e-08
4.84461e-05
-7.57776e-06
5.00381e-05
2.55722e-05
3.83335e-07
6.01295e-05
4.95813e-05
1.35932e-05
6.67618e-06
2.38466e-06
3.60709e-07
-1.01819e-05
-3.91564e-06
-2.7993e-05
3.09387e-05
2.59913e-07
7.62857e-06
-2.49103e-05
-0.000811325
-0.000818659
0.000567849
-0.000230963
-0.000225437
-0.000244525
-0.000234798
3.64248e-06
-0.00027373
0.000281401
-0.000260698
-0.000284394
0.000297503
-0.000248265
3.56201e-06
-0.000262314
-0.000250327
4.38177e-06
-0.000303725
0.000318783
-8.6561e-05
-4.81825e-05
-8.59876e-05
-5.55857e-05
-0.000311588
0.000335751
-8.07073e-05
-4.55831e-05
-8.01057e-05
-5.26491e-05
4.14445e-06
-8.47592e-05
-6.11189e-05
-8.49256e-05
-5.91859e-05
-7.91864e-05
-5.7542e-05
-7.89345e-05
-5.60272e-05
-2.77506e-05
-7.6794e-05
8.25022e-05
-5.7887e-05
-7.02316e-05
4.1407e-07
7.79947e-05
-8.93029e-05
-2.35727e-05
-7.10413e-05
-5.33929e-05
5.99815e-07
-6.11666e-05
-7.73941e-05
-2.70956e-05
-7.38179e-05
8.17995e-05
-5.33616e-05
-6.99448e-05
8.04687e-05
-8.55812e-05
-2.27656e-05
-6.65935e-05
-4.78519e-05
-5.81134e-05
-7.21234e-05
-1.11685e-05
6.17283e-05
-6.31439e-05
-9.099e-06
-1.82846e-05
-5.40263e-05
9.15489e-06
4.41125e-05
-1.82407e-07
-2.98456e-05
-2.98064e-05
-1.8687e-05
-3.79839e-05
5.59852e-07
-5.71087e-05
-6.02008e-08
1.0301e-05
2.27022e-05
-9.28916e-06
5.78254e-05
-6.02366e-05
-4.79639e-06
-1.73138e-05
-5.47159e-05
9.2528e-06
3.89685e-05
-2.10562e-05
-2.38822e-05