/*--------------------------------*- C++ -*----------------------------------*\
| =========                 |                                                 |
| \\      /  F ield         | OpenFOAM: The Open Source CFD Toolbox           |
|  \\    /   O peration     | Version:  5.x                                   |
|   \\  /    A nd           | Web:      www.OpenFOAM.org                      |
|    \\/     M anipulation  |                                                 |
\*---------------------------------------------------------------------------*/
FoamFile
{
    version     2.0;
    format      ascii;
    class       volScalarField;
    location    "1";
    object      alpha.water;
}
// * * * * * * * * * * * * * * * * * * * * * * * * * * * * * * * * * * * * * //

dimensions      [0 0 0 0 0 0 0];

internalField   nonuniform List<scalar> 
12160
(
1
1
1
1
1
1
1
1
1
1
1
1
1
1
1
1
1
1
1
1
1
1
1
1
1
1
1
1
1
1
1
1
1
1
1
1
1
1
1
1
1
1
1
0.999702
0.664584
1
1
1
1
1
1
0.999999
0.996973
0.66808
0.0303784
1
1
1
1
1
1
0.999998
0.994207
0.636169
0.033339
0.00053128
1
1
1
1
1
1
1
0.993263
0.628049
0.0380104
2.91721e-05
1.59471e-06
1
1
1
1
1
1
1
0.995919
0.642464
0.0458339
0.000110092
7.59034e-08
2.48727e-10
1
1
1
1
1
1
1
0.999009
0.672691
0.0613976
0.000234437
9.08894e-08
1.28787e-12
4.64897e-15
1
1
1
1
1
1
1
0.999994
0.700415
0.0861544
0.000563327
2.22315e-07
5.50169e-12
9.06627e-17
3.3834e-20
1
1
1
1
1
1
1
1
0.710544
0.116125
0.00124951
8.93725e-07
2.39744e-11
1.20883e-16
1.94875e-22
1
1
1
1
1
1
1
1
0.701159
0.134012
0.00257217
2.85377e-06
1.64473e-10
6.79251e-16
1.85875e-21
1
1
1
1
1
1
1
1
0.667635
0.133041
0.00414389
7.79622e-06
6.63063e-10
5.00583e-15
1.3071e-20
1
1
1
1
1
1
1
1
0.61561
0.116049
0.00473394
1.52569e-05
2.2418e-09
2.03154e-14
1.16202e-19
1
1
1
1
1
1
1
1
0.552821
0.089959
0.00390581
2.09343e-05
4.95905e-09
7.35889e-14
5.12814e-19
1
1
1
1
1
1
1
1
0.486091
0.0646141
0.00228601
1.59925e-05
7.93303e-09
1.65788e-13
2.09374e-18
1
1
1
1
1
1
1
1
0.420353
0.0438043
0.00110265
6.61613e-06
5.37633e-09
2.79878e-13
4.96783e-18
1
1
1
1
1
1
1
1
0.358838
0.0282996
0.000484242
1.9484e-06
1.46838e-09
1.88667e-13
8.99617e-18
1
1
1
1
1
1
1
1
0.303503
0.0175752
0.000198371
4.82565e-07
2.3737e-10
4.90114e-14
6.07874e-18
1
1
1
1
1
1
1
1
0.255336
0.010609
7.68718e-05
1.05905e-07
2.91523e-11
7.29629e-15
1.52597e-18
1
0.999999
1
1
1
1
1
1
0.214632
0.00631665
2.86104e-05
2.13378e-08
3.64367e-12
8.54071e-16
2.15713e-19
1
1
1
1
1
1
1
1
0.181228
0.00378118
1.04523e-05
4.10449e-09
6.15317e-13
1.13836e-16
2.52139e-20
1
1
1
1
1
1
1
1
0.154697
0.00232964
3.86646e-06
7.82544e-10
1.00332e-13
1.66531e-17
3.25625e-21
1
1
1
1
1
1
1
1
0.134505
0.00151663
1.51385e-06
1.56997e-10
1.65515e-14
2.33612e-18
4.10485e-22
1
1
1
1
1
1
1
1
0.120115
0.00106829
6.65022e-07
3.81609e-11
3.06192e-15
3.42447e-19
5.04708e-23
0.999999
0.999999
1
1
1
1
1
1
0.111042
0.000826751
3.46936e-07
1.37567e-11
7.49342e-16
6.01555e-20
6.76717e-24
0.999999
0.999999
0.999999
1
1
1
1
1
0.106898
0.000704421
2.21807e-07
6.52483e-12
2.52835e-16
1.40448e-20
1.12489e-24
0.999999
0.999999
0.999999
0.999999
1
1
1
1
0.107355
0.000657348
1.7219e-07
3.94865e-12
1.10054e-16
4.25136e-21
2.39467e-25
1
1
0.999999
0.999999
0.999999
1
1
1
0.112252
0.000665063
1.56406e-07
3.01829e-12
6.35366e-17
1.6999e-21
6.49849e-26
1
1
1
1
0.999999
1
1
1
0.121506
0.000727999
1.60533e-07
2.74987e-12
4.79581e-17
9.36598e-22
2.40498e-26
1
1
1
1
1
1
1
1
0.135085
0.000860617
1.85126e-07
2.84502e-12
4.383e-17
6.96558e-22
1.27214e-26
1
1
1
1
1
1
1
1
0.152995
0.00109553
2.42981e-07
3.311e-12
4.57058e-17
6.37104e-22
9.33396e-27
1
1
1
1
1
1
1
1
0.175243
0.00149093
3.68991e-07
4.42981e-12
5.36853e-17
6.69512e-22
8.54312e-27
1
1
1
1
1
1
1
1
0.201806
0.00213877
6.4828e-07
7.05688e-12
7.31211e-17
7.9613e-22
9.04427e-27
1
1
1
1
1
1
1
1
0.232597
0.0031757
1.28298e-06
1.33855e-11
1.2143e-16
1.10784e-21
1.08879e-26
1
1
1
1
1
1
1
1
0.26743
0.00479345
2.74238e-06
3.0354e-11
2.46718e-16
1.91946e-21
1.54665e-26
1
1
1
1
1
1
1
1
0.305995
0.00724445
6.07497e-06
9.0981e-11
5.97126e-16
4.17881e-21
2.78221e-26
1
1
1
1
1
1
1
1
0.347835
0.0108382
1.35138e-05
3.19796e-10
1.76504e-15
1.10571e-20
6.45013e-26
1
1
1
1
1
1
1
1
0.39234
0.0159253
2.95671e-05
1.17564e-09
6.37799e-15
3.4424e-20
1.85983e-25
1
1
1
1
1
1
1
1
0.43875
0.0228626
6.28476e-05
4.27467e-09
2.55887e-14
1.27468e-19
6.30043e-25
1
1
1
1
1
1
1
1
0.486213
0.0319716
0.000128639
1.50241e-08
1.04579e-13
5.42451e-19
2.45355e-24
1
1
1
1
1
1
1
1
0.533878
0.0435111
0.000252993
5.04255e-08
4.17205e-13
2.446e-18
1.09388e-23
0.580511
1
1
1
1
1
1
1
1
0.0576488
0.000479575
1.59931e-07
1.5936e-12
1.09543e-17
5.31735e-23
0.074295
0.650486
1
1
1
1
1
1
1
1
0.000872704
4.79473e-07
6.12566e-12
4.69758e-17
2.63122e-22
0.00148507
0.104788
0.730903
1
1
1
1
1
0.999999
0.999999
0.999999
1.35701e-06
2.93042e-11
1.91449e-16
1.26094e-21
3.39712e-06
0.00300648
0.149711
0.779165
0.999965
1
1
1
0.999999
0.999998
0.999999
1
1.43857e-10
8.68211e-16
5.69682e-21
6.00456e-10
9.8426e-06
0.00629781
0.181722
0.796025
0.998537
0.999997
1
1
0.999998
0.999997
1
0.999996
1
4.40023e-15
2.59023e-20
2.01729e-14
2.50761e-09
3.34233e-05
0.00849143
0.188706
0.792525
0.995401
0.999986
1
0.999999
0.999997
0.999998
0.999999
0.999994
0.999994
0.999997
1.30302e-19
6.32795e-19
8.68276e-14
1.52652e-08
5.05945e-05
0.00796632
0.168485
0.771496
0.991522
0.999977
1
0.999997
0.999997
0.999998
0.999996
0.999994
0.999994
0.999994
0.999991
2.83138e-18
5.75248e-13
2.54646e-08
3.87545e-05
0.00541274
0.130031
0.736097
0.988667
0.999985
0.999999
0.999997
0.999997
0.999998
0.999995
0.999997
0.999997
0.999996
0.999995
0.999994
2.00902e-17
9.12167e-13
1.5306e-08
2.12627e-05
0.00303775
0.0946123
0.700118
0.988328
0.999997
0.999998
0.999997
0.999997
0.999998
0.999996
1
1
1
0.999999
0.999999
1
3.0029e-17
4.96268e-13
6.74214e-09
9.44147e-06
0.00164575
0.0699867
0.677824
0.989757
0.999999
0.999999
0.999997
0.999998
0.999998
0.999999
1
1
1
1
1
0.999999
1
1.46934e-17
1.99066e-13
2.34527e-09
3.84298e-06
0.000901487
0.0548269
0.663917
0.993827
1
0.999999
0.999998
0.999997
0.999999
1
1
1
1
1
1
1
1
1
0.999999
0.999998
0.999999
5.22632e-18
6.23763e-14
7.35171e-10
1.51423e-06
0.00050333
0.0435848
0.66751
0.98553
1
0.999999
0.999998
0.999997
1
1
1
1
1
1
1
1
1
1
1
1
1
1
0.999997
0.999995
0.999999
1.45451e-18
1.73073e-14
2.20565e-10
5.78859e-07
0.000278344
0.0369786
0.601511
0.984868
0.999989
0.999999
0.999998
0.999999
1
1
1
1
1
1
1
1
1
1
1
1
1
1
1
1
1
1
0.999995
0.999994
0.999996
3.59501e-19
4.49682e-15
6.40807e-11
2.14557e-07
0.000148999
0.0278051
0.561675
0.969424
0.999891
0.999999
0.999999
0.999999
1
1
1
1
1
1
1
1
1
1
1
1
1
1
1
1
1
1
1
1
1
1
1
1
1
1
1
1
1
1
1
1
1
1
1
1
1
0.999994
0.999994
0.999992
8.15941e-20
1.16142e-15
1.69186e-11
8.26332e-08
9.2135e-05
0.0191342
0.475934
0.942077
0.999776
0.999998
0.999999
1
0.999999
1
0.999999
1
1
1
1
1
1
1
1
1
1
1
1
1
1
1
1
1
1
1
1
1
1
1
1
1
1
1
1
1
1
1
1
1.00001
1
0.999995
0.999996
0.999993
1
0.999989
1
1
1
1
1
1
1
1
1
1
1
1
1
1
1
1
1
1
1
1
1
1
1
1
1
0.999999
0.999994
0.999994
0.999992
1.8054e-20
2.76943e-16
4.67811e-12
3.02375e-08
4.48168e-05
0.0115913
0.373185
0.907011
0.997541
0.999974
0.999999
0.999999
0.999999
0.999999
1
1
1
1
1
1
1
1
1
1
1
1
1
1
1
1
1
1
1
1
1
1
1
1
1
1
1
1
1
1
1
1
1
1
1
1
1
1
1
1
1
1
1
1
1
1
1
1
1.00001
1
0.999999
0.999997
0.999996
0.999996
0.99972
0.999775
0.99975
0.999939
0.999853
0.999907
0.999977
0.999997
0.999984
0.99999
1
1
1
1
1
1
1
1
1
1
1
1
1
1
1
1
1
1
1
1
1
1
1
1
1
1
1
1
1
1
1
1
0.999997
0.999994
0.999997
0.999998
3.35756e-21
7.56595e-17
1.13381e-12
9.06925e-09
1.62068e-05
0.006308
0.257171
0.83018
0.98842
1
1
1
1
0.999999
0.999999
0.999999
0.999999
0.999998
0.999999
0.999998
0.999999
1
1
1
1
0.999998
0.999999
0.999998
0.999999
1
1
0.999999
1
1
1
0.999999
1
1
1
1
1
0.999999
1
1
1
1
1
1
1
1
1
1
1
1.00001
1.00001
1
1
1
0.999999
0.999941
0.999864
0.999839
0.999781
0.99775
0.999291
0.997241
0.998868
0.997862
0.999092
0.998232
0.998928
0.999083
0.999418
0.997781
0.998871
0.999806
0.999842
0.999238
0.999274
0.999607
0.999617
0.999947
0.999982
0.999899
0.99995
1
1
1
1
1
1
1
1
1
1
1
1
1
1
1
1
1
1
1
1
1
1
1
1
0.999997
0.999996
0.999999
0.999999
7.21311e-22
2.01486e-17
2.31583e-13
1.73013e-09
4.48679e-06
0.00274039
0.126421
0.693786
0.962523
1
1
1
1
0.999999
0.999998
0.999999
1
0.999998
0.999999
0.999998
0.999999
0.999999
1
0.999999
1
0.999998
0.999999
0.999998
0.999999
0.999998
1
0.999998
1
1
1
1
1
1.00001
1.00001
1
1
1
1
1
0.999998
0.999986
0.999951
0.999784
0.999992
0.999512
0.99996
0.999004
0.99992
0.998379
0.999514
0.998442
0.999734
0.999142
0.999866
0.997767
0.999245
0.997882
0.999246
0.996389
0.997961
0.995922
0.996815
0.996459
0.997718
0.996593
0.996588
0.998288
0.99774
0.996627
0.996671
0.999314
0.999314
0.997997
0.997144
1
1
0.999997
0.999998
0.999999
0.999999
1.25167e-22
6.14973e-18
2.36631e-14
2.56943e-10
6.31698e-07
0.00090426
0.0504805
0.491723
0.946284
0.946608
0.790735
0.791118
0.999949
0.999954
0.996614
0.996729
1
0.999998
1
1
1
1
1
0.999998
1
0.999995
1
0.999999
1
0.999995
1
0.999999
1
0.999999
1
0.999999
1
1
1
1
0.999998
0.999999
1
0.999999
0.999997
1
1
1
1.00001
1.00001
1
1
1
1
1
0.999998
0.999994
0.999972
0.999875
0.999642
0.999991
0.999183
0.999806
0.998708
0.999787
0.997627
0.998698
0.997162
0.998516
0.998182
0.999146
0.996476
0.997621
0.996698
0.997592
0.995831
0.99665
0.995631
0.996525
1
1
0.999999
0.999999
0.999999
0.999999
2.74374e-23
1.03082e-18
1.78221e-15
1.50989e-11
1.58447e-08
0.000228749
0.0160834
0.220957
0.942238
0.943382
0.644089
0.64474
0.999962
1
1
0.99995
0.999967
1
1
0.999959
1
1
1
0.999998
1
0.999998
1
0.999997
1
0.999997
1
0.999995
1
0.999997
1
0.999996
1
0.999999
0.999998
0.999999
0.999997
1
1.00001
1.00001
1.00001
1
1
1
1
1
1
0.999999
0.999999
0.999999
0.999994
0.999999
0.999993
1
0.999998
0.999999
0.999972
0.999999
0.99997
1
0.999994
1
0.999683
0.999998
0.999931
0.999854
0.99999
0.999241
0.999785
0.999004
0.999809
0.99769
0.998934
0.99643
0.996874
0.997901
0.998568
0.995764
0.996238
0.996402
0.997068
1
1
0.999999
0.999999
0.999999
1.52668e-24
1.67766e-19
5.82411e-17
1.27507e-17
2.06575e-11
3.09684e-05
0.00245892
0.121196
0.121176
0.0252836
0.0252689
0.85396
0.992817
0.743719
0.901062
0.854172
0.993497
0.744086
0.902351
0.466353
0.467313
0.999972
1
1
0.999988
0.999973
1
1
0.999979
0.933241
0.999755
0.988705
0.999996
0.933772
0.999775
0.989307
0.999996
1
1
1
1
1
1
1
0.999999
1
1.00001
1.00001
1
0.999996
1
0.999996
1
0.999996
1
0.999996
0.999999
1
0.999994
0.999999
1
1
1
0.999994
0.999995
0.999995
0.999993
0.999999
0.999996
0.999997
0.999997
0.999997
0.999999
1
0.999997
1
0.999802
0.999999
0.999984
0.999977
1
0.999287
0.999997
1
1
1
0.999999
2.19209e-25
8.26379e-21
1.27314e-17
2.09531e-11
2.03278e-07
2.29007e-05
0.000952806
0.000954041
2.55148e-19
-1.24775e-20
0.0455464
0.045525
0.0028048
0.00281421
0.802347
0.97888
0.642026
0.827708
0.803872
0.979558
0.643374
0.829548
0.414681
0.174167
0.25238
0.317214
0.416174
0.17389
0.253239
0.317827
1
1
1
1
1
1
1
1
0.937711
1
0.97315
0.999996
0.939346
1
0.974641
0.999996
1
1.00001
1.00001
1
0.999997
1
0.999994
0.999999
0.999994
0.999999
0.999992
1
0.999992
1
1
1
1
1
0.999991
0.999999
0.99999
0.999997
0.99999
0.999998
0.999999
0.999999
0.999995
0.999997
0.999998
0.999999
0.999989
0.999996
0.999992
0.999996
0.999988
0.99999
0.999991
0.999992
1
0.999995
0.999994
1
1
1
1
1.55002e-27
3.17057e-18
2.7443e-14
1.75942e-08
1.77871e-05
0.000243711
0.000203265
0.000205542
1.29824e-05
1.35065e-05
0.014006
0.124404
0.0278186
0.000440502
0.00325173
0.12657
0.124546
0.0140452
0.126877
0.0278722
0.000448047
0.00326087
4.80713e-05
4.80922e-05
0.000100119
0.000262208
4.81065e-05
4.80604e-05
0.000104298
0.000266393
0.712803
0.949035
0.605682
0.840469
0.715232
0.950473
0.608382
0.8429
0.191296
0.190964
0.191665
0.191377
0.999999
0.995992
0.999999
0.996388
0.870738
0.994318
0.873023
0.994537
1
1
1.00001
1
0.999999
1
0.999997
1
0.999998
0.999997
1
0.999994
0.999998
0.999992
1
0.999992
0.999999
0.999995
0.999994
0.99999
0.999999
0.999987
0.999999
0.999996
0.999994
0.999998
0.999995
0.999998
0.999995
0.999999
0.999993
0.999989
0.999997
0.999994
0.999993
0.999995
0.999993
0.999991
0.999992
0.999993
0.999989
0.999989
0.999992
0.999988
1
1
3.85148e-29
6.64701e-16
3.91317e-11
1.06061e-06
0.000137478
0.000447309
0.000353684
0.000454256
0.000383048
0.0001315
0.000134889
0.000121233
0.000108077
0.054279
0.0022881
0.0105686
0.0498961
9.13373e-05
4.8047e-05
0.0543917
0.00231075
0.0500127
0.0105942
9.07906e-05
4.80828e-05
4.80934e-05
4.80461e-05
4.8047e-05
4.80683e-05
4.80615e-05
4.80822e-05
4.80828e-05
4.80349e-05
0.436743
0.582755
0.438815
0.58456
1
1
1.00001
1.00001
1
0.999998
1
0.999997
0.999999
1
1
0.999998
1
0.999998
1
0.999987
0.999999
0.999996
0.999993
0.999999
0.999999
0.999999
0.999999
0.999987
0.999987
0.999988
0.999987
0.999995
0.999993
0.999998
0.999995
0.99999
0.99999
0.999991
0.999993
0.999987
0.999989
0.999991
0.999993
0.999989
0.999993
0.999999
0.999999
0.999992
0.999994
0.999989
0.999991
0.999991
0.999991
1
-1.53466e-40
4.91969e-15
5.58378e-09
4.45369e-06
0.000212518
0.000626475
0.00035336
0.000574191
0.000465794
0.000301582
0.000108756
0.000176967
0.000159311
0.000220213
9.45286e-05
0.000172925
0.000105137
0.000448841
0.000261353
6.97764e-05
4.80675e-05
5.29746e-05
4.80193e-05
6.92467e-05
4.80344e-05
5.44737e-05
4.80563e-05
1
1
1
1.00001
1
1
1.00001
0.999999
1
1
1
0.999999
1
0.999999
1
0.999998
1
1
1
0.999993
0.999999
0.999996
0.999996
0.999999
0.999998
0.999996
0.999999
0.999987
0.999987
0.999987
0.999987
0.999989
0.999995
0.999992
0.999987
0.999991
0.999987
-1.20575e-38
-3.60311e-32
5.83293e-08
4.50481e-06
0.000190685
0.000399179
4.59617e-06
5.39929e-05
0.000656846
0.000463715
0.000651163
0.000653297
0.000446729
0.000127241
0.00038402
0.000238663
0.00025974
9.70788e-05
0.000245026
0.000136586
0.000488258
0.000657089
0.000324247
0.000396198
0.000126269
0.000240129
0.000126815
0.000234236
9.29757e-05
0.000187019
9.06061e-05
0.000111838
0.999999
1
1.00001
1.00001
1
0.999997
1
0.999997
0.999998
0.999997
0.999999
1
0.999996
0.999999
0.999997
1
0.999999
0.999999
1
0.999999
0.999998
0.999999
1
0.999995
0.999998
0.999991
0.999999
-2.98471e-37
1.43502e-12
8.27723e-08
4.55903e-06
0.000137903
0.000396175
9.17522e-06
4.07422e-05
0.000549815
0.000481397
0.000438922
0.000470318
0.000190576
0.000486705
0.000120205
0.000152395
0.000472634
0.000340315
0.000159011
0.000458722
0.000494161
0.000604672
0.000393185
0.000170662
0.000394787
0.000238123
0.00027162
0.000116745
0.000312666
0.000132888
0.000373156
0.000452729
4.99227e-05
0.000173169
0.999999
1
1.00001
1
1
1
1
1
0.999999
1
0.999998
0.999992
0.999999
1
0.999996
0.999999
0.999996
0.999999
0.999995
1
0.999991
0.999996
0.999998
0.999999
0.999995
0.999998
0.999992
0.999996
0.999995
0.999995
0.999991
0.999993
-8.70003e-36
6.8828e-11
6.78128e-08
1.37062e-08
4.72752e-06
1.90586e-09
1.95124e-09
0.000150836
0.000244114
1.33914e-05
3.19351e-05
0.000532131
0.000197162
9.89416e-05
7.29477e-05
5.38392e-05
0.000251826
0.000225195
0.000111146
0.0001658
0.000202115
6.97331e-05
0.000323432
3.4714e-06
0.000133698
1.22631e-05
9.89096e-06
7.90375e-05
0.000170423
9.81092e-05
1.0795e-05
1
1
1
1
0.999999
1
0.999998
0.999995
1
0.999994
0.999999
1
1
1
1
1
0.999998
0.999991
0.999995
0.999991
0.999991
0.999998
0.999996
0.999998
1
0.999999
0.999991
0.999991
0.999993
0.999993
0.999997
0.999998
0.999991
0.999992
8.71448e-35
2.82299e-10
5.55223e-09
6.85515e-08
8.37874e-07
1.09433e-09
5.85281e-09
3.471e-06
7.70782e-05
6.40898e-05
3.471e-06
0.000107162
3.4714e-06
8.34341e-06
6.74226e-05
7.46159e-05
2.34388e-06
0.000158668
2.32689e-06
1.16088e-05
2.44034e-05
4.23268e-05
1.21897e-05
3.34001e-05
1.31779e-05
3.7969e-06
9.41688e-06
9.29732e-06
1.74723e-05
1
1
1
1
1
1
1
1
1
1
0.999997
1
1
1
1
1
1
0.999991
0.999993
0.999999
0.999999
0.999991
0.999998
1
1
0.999999
1
0.999993
0.999991
0.999999
0.999995
2.1369e-13
4.65011e-10
3.68533e-10
1.90186e-07
1.7944e-06
7.21347e-10
2.42518e-10
1.28159e-05
7.84685e-05
9.57602e-05
3.68242e-05
0.000104144
1.89445e-05
1.24199e-05
0.000121438
0.000132155
3.38912e-06
0.000168157
2.30682e-06
5.29242e-08
3.99279e-06
2.53555e-06
4.46575e-05
9.34726e-07
2.76451e-05
9.17872e-07
0.000129852
3.73314e-05
9.67175e-06
2.40791e-05
2.00476e-05
1
1
1
1
1
1
1
1
1
1
1
1
1
1
1
0.999999
1
1
0.999999
1
1
1
1
1
1
0.999992
0.999998
0.999996
1
3.49928e-12
1.98863e-10
3.47238e-14
9.4881e-11
1.89499e-10
3.5099e-14
3.5099e-14
3.47238e-14
4.72016e-08
5.39764e-08
4.82568e-06
7.43626e-07
1.7696e-06
3.52943e-05
0.000178195
0.000197453
0.000129057
0.000220204
0.000333045
8.64314e-05
8.27971e-06
7.01423e-05
0.000213604
3.52243e-06
0.000216217
2.29159e-06
9.27929e-06
3.21635e-05
6.94306e-06
0.000135634
1
1
1
1
1
1
1
1
1
0.999999
1
1
1
1
1
1
1
1
1
1
1
1
1
0.999996
1
1
1
1
1
0.999996
1
2.73197e-12
5.7891e-10
1.51593e-11
4.56324e-10
9.83143e-12
4.88441e-10
4.73968e-10
5.70835e-10
7.27459e-11
9.83105e-09
1.00863e-07
1.17924e-08
2.08099e-06
3.79458e-11
1.02665e-28
3.73981e-29
9.6088e-07
1.21088e-07
3.82771e-06
2.03504e-06
1.98306e-05
9.80681e-09
-1.52433e-25
2.62265e-29
0.000111925
0.00010334
0.00019464
6.29821e-06
5.34059e-06
1.37118e-05
2.28861e-05
5.7933e-05
1
1
0.999999
0.999999
1
1
1
1
0.999999
1
1
1
1
1
1
0.999999
1
1
1
1
1
1
1
1
0.999999
1
0.999997
1
1
1
2.09531e-11
1.04713e-07
2.18013e-10
1.33825e-12
1.06169e-11
3.97032e-07
1.91095e-10
2.48674e-12
4.15865e-12
3.70595e-07
4.83993e-08
5.38539e-08
-2.83462e-29
7.68959e-13
1.32132e-16
4.16812e-24
2.98186e-28
5.67763e-13
3.05292e-08
1.19463e-05
6.05437e-10
1.92603e-05
5.98204e-27
3.67988e-11
2.82523e-05
2.44764e-05
7.81976e-05
3.45604e-05
0.999998
0.999999
0.999995
1
1
1
0.999995
0.999995
0.999995
0.999998
1
1
1
0.999999
0.999998
1
1
1
1
1
1
1
1
1
1
0.999999
1
1
1
1
1
1
5.04645e-08
1.09061e-06
5.90653e-07
6.6466e-07
1.22146e-06
2.74138e-06
2.66316e-06
1.61099e-10
3.67105e-27
4.06636e-10
5.78043e-10
9.76412e-11
1.60768e-10
6.22949e-10
1.89803e-09
2.03106e-05
5.3198e-08
4.69109e-07
1.60768e-10
3.79084e-28
4.45077e-10
5.82011e-10
7.84671e-11
1.61099e-10
1.45413e-09
2.1684e-09
2.06511e-05
3.85062e-08
3.97904e-07
9.5921e-14
7.30568e-13
6.74888e-13
1.76093e-11
2.51566e-27
7.4624e-15
9.67661e-27
1.02985e-11
0.999996
0.999995
0.999997
1
1
0.999999
0.999997
1
1
0.999998
0.999997
0.999995
0.999995
0.999996
0.999999
0.999999
1
1
1
1
1
1
1
1
1
1
1
1
8.92665e-06
2.35863e-06
2.25054e-05
2.83794e-06
2.3424e-05
7.92096e-05
7.7683e-05
7.87725e-13
4.20743e-08
2.09419e-08
3.47416e-10
7.93027e-08
2.08215e-08
7.20649e-05
3.50306e-05
0.00017871
2.39439e-06
1.98349e-05
0.000107966
2.1883e-05
1.69926e-05
8.30272e-15
6.81119e-08
2.09171e-10
2.58237e-08
1.34195e-07
4.27003e-08
3.69539e-05
7.92095e-05
0.00017898
2.48271e-06
1.95733e-05
0.000107375
2.69102e-05
1.89586e-05
0.999997
0.999998
0.999996
0.999996
0.999995
0.999992
0.999991
0.999998
1
0.999993
0.999999
0.999993
1
0.999995
0.999999
0.999996
1
0.999998
0.999999
1
1
0.999989
0.999998
0.999998
0.999999
1
1
0.999998
0.999999
0.999994
0.999993
0.999997
0.999997
1
0.999999
1
0.999999
0.000464387
2.03608e-05
5.44263e-05
4.67223e-05
4.40233e-05
2.1168e-05
5.61672e-05
5.34903e-05
4.53967e-05
0.000257057
0.000261976
5.34809e-07
8.42884e-07
5.56282e-06
2.12749e-05
8.64321e-05
0.000107666
3.82749e-05
0.000187778
0.000323059
0.000255234
1.01178e-06
9.453e-07
5.88326e-06
2.10152e-05
9.12914e-05
3.95075e-05
0.000116069
0.000189634
0.000323791
0.000256703
0.999997
0.999998
0.999996
1
0.999995
0.999996
0.99999
0.999997
0.999997
0.999997
0.999999
0.999995
0.999999
0.999999
0.999991
0.999999
0.999997
0.999989
0.999998
0.999999
0.999994
0.999999
0.999991
0.999999
1
1
1
1
0.999993
0.999999
0.999994
0.999999
1
1
1
0.00248421
0.000522432
0.000530108
6.61643e-05
0.000135346
0.000150643
0.00029619
9.16377e-05
0.000161375
6.63523e-05
0.000135378
0.000157336
0.000293625
9.70682e-05
0.000164535
4.9598e-05
9.66814e-05
0.000145502
0.000283657
0.000411877
0.000389314
5.01644e-05
9.98271e-05
0.000152331
0.000292824
0.0004133
0.00038964
0.999995
0.999998
0.999972
1
1
0.999977
1
1
0.999988
0.999993
0.99999
0.999998
0.999998
0.999991
0.999996
0.999989
0.999996
0.999989
0.999996
1
1
0.999994
1
0.999996
1
1
1
0.999992
0.999996
0.999999
1
0.00234191
0.00318126
0.00609578
0.00317515
0.00606645
0.000287102
0.000238715
0.000187134
0.000605159
0.000157174
0.000187341
0.000560313
0.00300941
0.00028996
0.000237219
0.000192311
0.000602045
0.00015826
0.000192994
0.000553925
0.00301503
7.51584e-05
0.000382731
7.76271e-05
0.000384659
0.999994
0.999993
0.999984
0.999972
0.999989
0.999979
0.999984
0.999987
0.999983
1
1
1
1
0.999993
0.999992
1
1
0.999996
1
0.999999
0.999997
1
0.999994
1
0.999999
1
1
0.000279423
0.00585841
0.00232997
0.00581009
0.00230705
0.00882967
0.0088014
0.0053252
0.000328737
0.00114465
0.00236925
0.000185595
0.000328663
0.000199787
0.000711092
0.000158679
6.94092e-05
0.000251996
0.00533134
0.000326077
0.00109992
0.00243236
0.000180449
0.000331809
0.000201667
0.000712413
0.000156297
7.10915e-05
0.000254714
0.999998
0.999989
0.999987
0.999986
0.999988
0.99998
0.999986
0.999983
0.99999
0.999986
0.999988
0.999993
0.99998
1
1
1
1
1
1
0.999995
0.999999
1
1
1
1
-7.25982e-29
0.000672968
0.000323615
0.000675729
0.000319179
0.00824245
0.00151781
0.00824356
0.00149461
0.00980153
0.00976668
0.0129129
0.00405867
0.00709967
0.00780875
0.000869236
0.00238092
0.00508273
0.00035005
0.000380027
8.3649e-05
0.00027718
0.000112832
0.0129234
0.0038766
0.00742803
0.0076242
0.000860519
0.0022785
0.00502688
0.000330329
0.000387563
8.44061e-05
0.000281778
0.000110944
0.999997
0.99999
0.999991
0.999994
0.999991
0.999992
0.999998
1
1
1
1
1
0.999994
0.999988
0.999996
0.999994
1
0.999998
1
1
1
1
0.999999
1
1
1
1
1
1
1.88716e-10
1.36524e-05
2.39189e-08
1.29836e-05
1.75881e-08
9.50734e-05
0.00013647
9.49326e-05
0.000138082
0.00952787
0.00219477
0.0095789
0.00217507
0.0127876
0.00665427
0.0104614
0.00666539
0.0128608
0.00653332
0.0106646
0.00653309
0.0129234
0.00690742
0.0102228
0.0092359
0.0129129
0.00668292
0.0104646
0.00897711
0.999998
1
1
0.999985
0.999985
0.999994
0.999992
1
0.999998
1
0.999999
1
0.999999
1
0.999993
1
1
1
1
0.999997
0.999996
0.999998
0.999996
1
1
1
0.999998
1
1
1
1
1
1
1
1
8.19308e-09
5.74088e-12
1.4196e-05
1.00749e-07
1.35126e-05
8.48107e-08
3.41416e-05
1.0805e-05
3.21246e-05
1.03031e-05
0.0129323
0.0073704
0.0103642
0.00892492
0.0107918
0.00120892
0.00216968
0.0058398
0.0129294
0.00740635
0.0104745
0.00907347
0.0106865
0.00120174
0.00217867
0.00591353
0.00654065
0.00959826
0.00635102
0.00932853
0.00675302
0.00952627
0.00635152
0.0091415
0.999996
1
1
0.999991
0.999993
0.999994
0.999992
0.999992
0.999989
1
0.999996
1
0.999999
0.999999
0.999989
0.999999
0.999987
1
0.999994
0.999999
0.999994
0.999998
0.999997
0.999999
0.999994
1
0.999999
1
0.999999
4.4139e-09
4.79084e-08
1.55827e-07
3.0115e-08
9.29296e-08
7.62643e-12
2.11473e-06
4.66401e-08
2.22247e-06
3.25137e-08
6.05087e-05
0.0001629
0.000193309
0.000112696
7.31891e-05
3.31867e-05
2.51898e-05
0.000149936
5.35673e-05
0.000150074
0.000183
0.000102819
6.35404e-05
3.88672e-05
2.35262e-05
0.000146195
0.0115949
0.0106456
0.00635302
0.0113633
0.0134069
0.00294086
0.00539294
0.00845582
0.0116691
0.0106274
0.00635134
0.0114212
0.0133738
0.0029316
0.00540881
0.00849366
0.999994
0.999996
0.999994
0.99999
0.999977
0.999978
0.999979
0.999965
0.999972
0.999965
0.999999
0.999996
1
0.999983
0.999999
0.999997
0.999999
0.999983
0.999999
1
1
0.999995
0.999999
0.999993
0.999999
0.99999
0.999995
0.999991
0.999996
0.999987
0.999998
0.99999
0.999997
0.999994
9.40761e-10
1.96085e-07
1.71408e-07
1.32243e-07
1.25253e-07
4.89008e-06
3.80317e-07
4.75118e-06
2.93799e-07
6.27353e-10
5.46563e-06
7.71347e-06
9.14611e-06
5.51652e-06
1.40017e-06
3.72522e-08
4.93373e-08
3.49273e-07
4.82339e-06
9.04794e-06
8.49034e-06
5.44467e-06
1.19269e-06
8.94421e-08
4.36756e-08
3.86677e-07
0.000203746
0.000373097
0.000553474
0.00023892
0.000184733
0.000237647
0.000161141
0.00028627
0.000192689
0.000355941
0.000539341
0.00022184
0.000178439
0.000236415
0.000155505
0.000269134
0.999996
0.999995
0.999997
1
0.999998
0.999997
0.999965
0.999994
0.999965
1
1
0.999999
1
1
0.999989
0.999989
0.999992
0.999988
1
0.999997
1
0.999999
0.999991
0.999994
0.999991
0.999994
0.999995
0.999998
1
0.999985
0.999993
0.999994
0.999999
0.999983
0.999996
0.999999
1
0.999991
0.999993
0.999994
0.999998
0.999987
1.38196e-07
1.21488e-09
3.10808e-07
3.91181e-07
2.07703e-07
3.33972e-07
0.000161164
3.29242e-05
0.000132501
4.72299e-05
5.5478e-05
2.61955e-05
3.6702e-07
1.12655e-06
2.99908e-06
1.14315e-05
0.00015791
3.87014e-05
0.000121403
5.0817e-05
4.99526e-05
2.46572e-05
2.80329e-07
9.93598e-07
3.61548e-06
1.05582e-05
9.42152e-10
7.37876e-05
0.000164894
0.000109586
0.000138726
4.43657e-05
6.63957e-05
6.85436e-05
0.00016382
0.000105639
0.000133305
4.16753e-05
6.8255e-05
0.000388709
0.000307917
0.000392097
0.000263803
0.000391117
0.000290195
0.000393813
0.000243578
0.999999
0.999996
0.999995
0.999998
0.999995
0.999996
1
1
1
0.999994
0.999984
0.99997
0.999979
0.999981
1
1
1
1
1
1
1
1
1
1
1
1
1
1
1
1
0.999997
0.999987
0.999997
0.999995
1
0.999998
1
1
0.999998
0.999999
0.999998
1
1.20366e-08
3.01997e-07
2.25662e-07
2.50641e-07
2.0813e-07
4.65302e-09
9.3081e-07
3.33161e-07
9.32599e-07
2.49356e-07
0.000278077
0.000348841
0.000186602
0.000321329
0.000264719
0.000219835
3.06564e-06
9.47395e-06
6.10088e-05
5.8885e-05
0.000273611
0.000335488
0.000177057
0.000305889
0.000257246
0.000200762
5.90356e-06
1.05386e-05
6.10622e-05
5.43337e-05
1.95066e-10
0.000295367
0.000313864
0.00035174
0.000316417
0.000260438
0.000304417
0.000289067
0.000297361
0.000350931
0.000300159
0.000253359
0.00028906
0.999999
0.999998
1
0.999993
0.999997
0.999993
0.999997
1
0.999999
1
0.999998
1
1
0.999997
1
0.999998
1
1
0.999997
1
0.999993
1
1
0.999997
1
0.999999
1
0.999996
0.999982
0.999989
0.999994
1
0.999999
1
1
1
1
1
1
1
0.999998
0.999999
1
1
1
1
1
1.50063e-08
5.411e-08
1.60058e-08
5.64819e-08
1.70126e-08
1.64238e-07
1.73848e-07
1.23009e-07
1.37535e-07
1.36903e-08
1.33916e-06
1.7147e-05
1.52147e-05
1.30029e-06
9.08655e-08
7.8717e-08
3.93226e-08
1.22731e-07
1.30189e-06
1.78313e-05
1.50878e-05
1.24565e-06
8.80953e-08
4.37645e-08
3.18977e-08
8.95356e-08
0.000375053
0.000386406
0.000105341
6.47223e-05
0.00019187
0.000110686
0.00036103
0.000385092
0.000109023
6.31616e-05
0.000192911
0.000104655
2.45438e-11
0.999997
0.999998
0.999999
1
1
1
1
0.999999
1
0.999994
1
1
0.999999
1
1
0.999997
0.999999
0.999997
0.999999
0.999997
0.999999
0.999999
0.999998
1
1
0.999993
0.999998
0.999988
0.999998
0.999988
0.999998
1
0.999992
0.999996
1
1
1
1
1
1
1
1
1
1.22629e-06
8.29474e-08
5.09356e-08
1.5729e-08
4.56629e-08
1.60159e-08
1.76888e-08
1.48956e-08
1.20958e-08
3.30178e-08
2.3247e-08
7.04947e-09
3.83388e-08
5.49629e-08
5.40431e-08
5.64088e-08
4.59763e-08
1.18139e-08
1.94312e-08
4.77619e-08
5.66067e-08
1.03838e-08
5.2215e-08
8.90976e-08
8.95994e-08
1.04224e-07
1.8327e-08
1.23354e-06
1.33045e-05
9.23597e-06
2.63112e-06
9.56829e-08
1.61288e-07
1.25963e-06
1.21431e-05
8.90179e-06
2.4369e-06
1.28708e-07
1.85687e-07
5.56751e-14
0.999969
0.999997
0.999995
1
0.999995
1
0.999995
1
1
1
1
0.999999
0.999996
0.999999
0.999993
1
1
1
0.999999
0.999999
0.999991
0.999998
0.999996
1
1
1
1
1
1
0.999998
0.999999
0.999996
0.999999
0.999998
1
0.999991
0.999996
0.999986
0.999993
1.51182e-06
7.70217e-07
7.82124e-07
9.31889e-07
7.94247e-07
4.25945e-07
1.42154e-09
3.22709e-08
1.32353e-09
7.28639e-08
2.27299e-10
4.89266e-08
3.27749e-29
2.58734e-07
5.43062e-08
2.33466e-07
3.5734e-08
2.52708e-07
1.70605e-07
2.06268e-07
2.73609e-09
5.86301e-07
-1.67694e-27
3.8001e-07
2.06499e-07
7.61842e-07
8.5314e-08
8.76803e-07
6.40399e-07
7.60256e-07
1.99473e-09
-2.90556e-27
9.27632e-09
-2.35685e-25
-1.47888e-25
1.3853e-17
0.999964
0.999989
0.999995
0.999996
1
1
1
1
1
0.999999
1
1
1
1
1
1
1
1
0.999994
0.999998
1
1
1
0.999999
1
1
1
1
0.999997
0.999998
0.999998
0.999988
1
0.999999
0.999995
0.999993
0.999997
0.999991
1
1
8.93076e-05
3.73907e-06
2.18934e-05
3.86258e-05
4.45617e-05
6.36621e-05
2.22487e-07
1.32353e-09
2.58162e-06
1.05886e-05
3.06181e-07
3.01517e-05
1.50242e-05
1.69267e-05
3.69805e-05
4.91229e-06
4.72085e-05
6.33452e-06
9.29546e-06
7.33115e-06
1.002e-05
1.5852e-05
1.84106e-05
3.71023e-05
1.68181e-05
3.84215e-05
2.82164e-05
6.08753e-05
3.86266e-05
1.92443e-11
1.86435e-20
0.999987
0.999968
0.99999
0.999994
1
0.999999
0.999996
0.999991
1
1
1
1
1
1
1
0.999999
1
1
1
1
1
1
0.999993
0.999998
0.999994
0.999999
1
1
1
1
1
1
0.999998
0.999998
0.99999
0.999991
0.000228864
0.000488506
0.000488762
0.000496561
0.00048053
3.82408e-06
0.000419825
0.000562261
0.000525587
0.000591679
2.78233e-08
0.00015018
8.05901e-05
0.000178149
1.12385e-05
2.93645e-05
0.000179979
3.69411e-05
0.000185166
0.000169597
7.83384e-05
0.000241507
1.27668e-05
2.32739e-05
0.000298143
5.29732e-05
0.000226674
0.000220671
0.000194254
0.000239363
0.000288347
1.23552e-14
5.22624e-25
0.999999
0.999982
0.999975
0.999993
0.999994
1
1
0.999996
0.999991
1
1
1
1
1
1
1
1
1
1
1
1
1
1
1
1
1
0.999999
1
1
1
1
0.000525422
9.00634e-05
0.000941338
0.00085785
0.000888145
0.000843454
1.6258e-06
0.000832355
0.000201316
0.000282573
0.000375575
2.93073e-05
0.000612079
0.00114001
2.33123e-05
0.000528395
0.000874113
0.000271186
0.000320017
0.000434391
0.00114374
3.22174e-10
0.00014171
5.0049e-05
0.000165477
4.50273e-05
4.74469e-05
0.000643013
0.000159578
7.03688e-05
0.000112759
6.97589e-05
4.78529e-05
0.000611452
2.35875e-19
1.96828e-27
1
0.999995
0.999979
0.999988
0.999991
0.999996
0.999995
0.99999
0.99999
1
1
0.999998
0.999991
1
1
1
1
1
1
1
1
1
1
1
1
1
1
1
1
1
1
1
1
0.000103011
1.43126e-05
2.37051e-19
1.46358e-05
-5.91809e-21
6.33225e-06
0.0009808
0.000402551
0.000889426
0.000401105
9.04139e-08
0.000671265
7.85773e-05
2.93645e-05
5.79621e-05
0.000296437
0.000346326
0.00113336
0.00118291
0.0010771
0.0011834
2.32739e-05
0.00054401
0.000645394
0.00011709
0.000101335
0.000372617
0.00100353
0.00118328
0.000957736
0.00118296
1.28232e-13
0.000501905
8.89296e-05
0.000568649
0.000113979
4.85933e-21
5.13871e-26
1
0.999999
0.999991
0.99999
0.999992
0.999991
0.999997
0.999997
0.999992
0.999994
1
1
1
1
1
1
0.999999
0.999998
1
1
1
1
0.999997
0.999993
1
1
1
1
1
1
1
1
1
1
1
1
0.00257791