/*--------------------------------*- C++ -*----------------------------------*\
| =========                 |                                                 |
| \\      /  F ield         | OpenFOAM: The Open Source CFD Toolbox           |
|  \\    /   O peration     | Version:  5.x                                   |
|   \\  /    A nd           | Web:      www.OpenFOAM.org                      |
|    \\/     M anipulation  |                                                 |
\*---------------------------------------------------------------------------*/
FoamFile
{
    version     2.0;
    format      ascii;
    class       volScalarField;
    location    "1";
    object      k;
}
// * * * * * * * * * * * * * * * * * * * * * * * * * * * * * * * * * * * * * //

dimensions      [0 2 -2 0 0 0 0];

internalField   nonuniform List<scalar> 
12160
(
9.96343e-09
9.94506e-09
1.00224e-08
9.93811e-09
1.0043e-08
1.00072e-08
9.93604e-09
1.00589e-08
1.00129e-08
1.0006e-08
9.93557e-09
1.00543e-08
1.00169e-08
1.00097e-08
1.00059e-08
9.93547e-09
1.00453e-08
1.00169e-08
1.00115e-08
1.00093e-08
1.00066e-08
9.93543e-09
1.0044e-08
1.00157e-08
1.00115e-08
1.00107e-08
1.00101e-08
1.00069e-08
9.93542e-09
1.00394e-08
1.00144e-08
1.00111e-08
1.00107e-08
1.00111e-08
1.00111e-08
1.00084e-08
9.93542e-09
1.00338e-08
1.00134e-08
1.00106e-08
1.00105e-08
1.0011e-08
1.00119e-08
1.00125e-08
1.00354e-08
9.93542e-09
1.00289e-08
1.00125e-08
1.00103e-08
1.00102e-08
1.00107e-08
1.00116e-08
1.00129e-08
1.00293e-08
1.00375e-08
9.93542e-09
1.00247e-08
1.00117e-08
1.00099e-08
1.00099e-08
1.00104e-08
1.00111e-08
1.0013e-08
1.00242e-08
1.00353e-08
1.00474e-08
9.93542e-09
1.00212e-08
1.0011e-08
1.00096e-08
1.00096e-08
1.00101e-08
1.00106e-08
1.00129e-08
1.00237e-08
1.00318e-08
1.00321e-08
1.00322e-08
9.93542e-09
1.00184e-08
1.00104e-08
1.00093e-08
1.00093e-08
1.00097e-08
1.00101e-08
1.00125e-08
1.00235e-08
1.00307e-08
1.00341e-08
1.00199e-08
1.00184e-08
9.93542e-09
1.00161e-08
1.00098e-08
1.00091e-08
1.00091e-08
1.00095e-08
1.00097e-08
1.0012e-08
1.00226e-08
1.00271e-08
1.00404e-08
1.00176e-08
1.00149e-08
1.00156e-08
9.93542e-09
1.00143e-08
1.00094e-08
1.00089e-08
1.00089e-08
1.00092e-08
1.00094e-08
1.00117e-08
1.0021e-08
1.00235e-08
1.00391e-08
1.00238e-08
1.00129e-08
1.00116e-08
1.00111e-08
9.93542e-09
1.00129e-08
1.0009e-08
1.00087e-08
1.00087e-08
1.0009e-08
1.00092e-08
1.00115e-08
1.0019e-08
1.00205e-08
1.00372e-08
1.00287e-08
1.00128e-08
1.00114e-08
1.00066e-08
9.93542e-09
1.00118e-08
1.00088e-08
1.00086e-08
1.00086e-08
1.00088e-08
1.0009e-08
1.00114e-08
1.00171e-08
1.00182e-08
1.00341e-08
1.00321e-08
1.00128e-08
1.00107e-08
1.00071e-08
9.93542e-09
1.00108e-08
1.00086e-08
1.00085e-08
1.00085e-08
1.00087e-08
1.00088e-08
1.00114e-08
1.00156e-08
1.00167e-08
1.00304e-08
1.0032e-08
1.00129e-08
1.00109e-08
1.00066e-08
9.93542e-09
1.00099e-08
1.00083e-08
1.00084e-08
1.00084e-08
1.00086e-08
1.00086e-08
1.00115e-08
1.00143e-08
1.00154e-08
1.00267e-08
1.00286e-08
1.00133e-08
1.00109e-08
1.00072e-08
9.93542e-09
1.00091e-08
1.00079e-08
1.00082e-08
1.00084e-08
1.00085e-08
1.00085e-08
1.00116e-08
1.00133e-08
1.00144e-08
1.00232e-08
1.00236e-08
1.00135e-08
1.00109e-08
1.00079e-08
9.93542e-09
1.00085e-08
1.00076e-08
1.00079e-08
1.00081e-08
1.00084e-08
1.00084e-08
1.00116e-08
1.00123e-08
1.00137e-08
1.002e-08
1.00188e-08
1.00132e-08
1.00106e-08
1.00088e-08
9.93542e-09
1.0008e-08
1.00072e-08
1.00075e-08
1.00078e-08
1.00082e-08
1.00084e-08
1.00117e-08
1.00115e-08
1.00132e-08
1.0017e-08
1.00153e-08
1.00121e-08
1.00103e-08
1.00094e-08
9.93542e-09
1.00075e-08
1.00069e-08
1.00072e-08
1.00074e-08
1.00079e-08
1.00082e-08
1.00116e-08
1.00109e-08
1.00129e-08
1.00146e-08
1.00128e-08
1.00109e-08
1.00099e-08
1.00094e-08
9.93542e-09
1.00072e-08
1.00066e-08
1.00069e-08
1.00071e-08
1.00075e-08
1.00079e-08
1.00115e-08
1.00103e-08
1.00126e-08
1.00129e-08
1.00112e-08
1.001e-08
1.00094e-08
1.00092e-08
9.93542e-09
1.0007e-08
1.00064e-08
1.00066e-08
1.00068e-08
1.00072e-08
1.00075e-08
1.00113e-08
1.00098e-08
1.00123e-08
1.00117e-08
1.00101e-08
1.00094e-08
1.00091e-08
1.0009e-08
9.93542e-09
1.0007e-08
1.00062e-08
1.00063e-08
1.00064e-08
1.00069e-08
1.00072e-08
1.0011e-08
1.00095e-08
1.0012e-08
1.00107e-08
1.00094e-08
1.0009e-08
1.00089e-08
1.00088e-08
9.93542e-09
1.0007e-08
1.00062e-08
1.00061e-08
1.00061e-08
1.00065e-08
1.00068e-08
1.00107e-08
1.00093e-08
1.00116e-08
1.001e-08
1.00089e-08
1.00087e-08
1.00087e-08
1.00087e-08
9.93542e-09
1.00073e-08
1.00062e-08
1.00061e-08
1.00059e-08
1.00062e-08
1.00063e-08
1.00102e-08
1.00092e-08
1.00113e-08
1.00095e-08
1.00086e-08
1.00084e-08
1.00085e-08
1.00085e-08
9.93542e-09
1.00076e-08
1.00063e-08
1.00061e-08
1.00058e-08
1.0006e-08
1.00057e-08
1.00096e-08
1.00092e-08
1.0011e-08
1.00093e-08
1.00085e-08
1.00083e-08
1.00084e-08
1.00084e-08
9.93542e-09
1.00079e-08
1.00065e-08
1.00063e-08
1.00059e-08
1.00059e-08
1.00049e-08
1.0009e-08
1.00094e-08
1.00106e-08
1.00091e-08
1.00084e-08
1.00083e-08
1.00083e-08
1.00083e-08
9.93542e-09
1.00084e-08
1.00068e-08
1.00065e-08
1.00061e-08
1.0006e-08
1.00045e-08
1.00083e-08
1.00095e-08
1.00102e-08
1.00089e-08
1.00085e-08
1.00083e-08
1.00083e-08
1.00083e-08
9.93542e-09
1.00089e-08
1.0007e-08
1.00067e-08
1.00064e-08
1.00062e-08
1.00052e-08
1.00078e-08
1.00095e-08
1.00095e-08
1.00087e-08
1.00084e-08
1.00083e-08
1.00083e-08
1.00083e-08
9.93542e-09
1.00095e-08
1.00073e-08
1.0007e-08
1.00066e-08
1.00064e-08
1.00058e-08
1.0008e-08
1.00093e-08
1.00089e-08
1.00083e-08
1.00083e-08
1.00082e-08
1.00083e-08
1.00082e-08
9.93542e-09
1.00102e-08
1.00075e-08
1.00072e-08
1.00069e-08
1.00067e-08
1.00063e-08
1.00083e-08
1.00091e-08
1.00084e-08
1.00079e-08
1.00081e-08
1.00081e-08
1.00082e-08
1.00077e-08
9.93542e-09
1.0011e-08
1.00078e-08
1.00074e-08
1.00071e-08
1.0007e-08
1.00066e-08
1.00089e-08
1.00089e-08
1.00085e-08
1.00075e-08
1.00078e-08
1.00079e-08
1.0008e-08
1.00067e-08
9.93542e-09
1.00118e-08
1.0008e-08
1.00076e-08
1.00074e-08
1.00072e-08
1.00069e-08
1.00094e-08
1.00089e-08
1.00089e-08
1.00074e-08
1.00076e-08
1.00074e-08
1.00077e-08
1.00069e-08
9.93542e-09
1.00128e-08
1.00083e-08
1.00078e-08
1.00076e-08
1.00074e-08
1.00072e-08
1.00098e-08
1.00089e-08
1.00094e-08
1.00075e-08
1.00075e-08
1.0007e-08
1.00071e-08
1.00068e-08
9.93542e-09
1.00139e-08
1.00085e-08
1.0008e-08
1.00078e-08
1.00076e-08
1.00074e-08
1.00101e-08
1.0009e-08
1.00099e-08
1.00079e-08
1.00075e-08
1.00067e-08
1.00064e-08
1.00061e-08
9.93542e-09
1.00151e-08
1.00088e-08
1.00082e-08
1.00079e-08
1.00078e-08
1.00076e-08
1.00104e-08
1.00092e-08
1.00105e-08
1.00083e-08
1.00076e-08
1.0007e-08
1.00062e-08
1.00054e-08
9.93542e-09
1.00167e-08
1.00091e-08
1.00083e-08
1.00081e-08
1.0008e-08
1.00078e-08
1.00105e-08
1.00094e-08
1.00109e-08
1.00088e-08
1.00079e-08
1.00073e-08
1.00065e-08
1.00051e-08
1.00187e-08
9.93542e-09
1.00094e-08
1.00085e-08
1.00082e-08
1.00082e-08
1.0008e-08
1.00106e-08
1.00096e-08
1.00111e-08
1.00092e-08
1.00081e-08
1.00077e-08
1.0007e-08
1.00053e-08
1.00099e-08
1.00214e-08
9.93542e-09
1.00086e-08
1.00084e-08
1.00083e-08
1.00081e-08
1.00107e-08
1.00097e-08
1.00112e-08
1.00096e-08
1.00084e-08
1.00079e-08
1.00075e-08
1.00055e-08
1.00088e-08
1.00105e-08
1.0027e-08
9.93546e-09
1.00085e-08
1.00085e-08
1.00083e-08
1.00107e-08
1.001e-08
1.00111e-08
1.00098e-08
1.00086e-08
1.00082e-08
1.00078e-08
1.00063e-08
1.00087e-08
1.00091e-08
1.00117e-08
1.00343e-08
9.93615e-09
1.00086e-08
1.00084e-08
1.00107e-08
1.00103e-08
1.0011e-08
1.00099e-08
1.00086e-08
1.00083e-08
1.00081e-08
1.00075e-08
1.00088e-08
1.00089e-08
1.00095e-08
1.00132e-08
1.00444e-08
9.93972e-09
1.00086e-08
1.00107e-08
1.00107e-08
1.00112e-08
1.00101e-08
1.00085e-08
1.00082e-08
1.00081e-08
1.00079e-08
1.00087e-08
1.0009e-08
1.00092e-08
1.00101e-08
1.00155e-08
1.0061e-08
9.95093e-09
1.00107e-08
1.00113e-08
1.00115e-08
1.00105e-08
1.00084e-08
1.00081e-08
1.00081e-08
1.00079e-08
1.00107e-08
1.00089e-08
1.00093e-08
1.00096e-08
1.00111e-08
1.00211e-08
1.00942e-08
9.96807e-09
1.00119e-08
1.00121e-08
1.00114e-08
1.00086e-08
1.00079e-08
1.0008e-08
1.00079e-08
1.00127e-08
1.00107e-08
1.00093e-08
1.00097e-08
1.00102e-08
1.00137e-08
1.00368e-08
1.0161e-08
1.00423e-08
1.00126e-08
1.00128e-08
1.00091e-08
1.00079e-08
1.00079e-08
1.00079e-08
1.0013e-08
1.00133e-08
1.00107e-08
1.00097e-08
1.00103e-08
1.00115e-08
1.00217e-08
1.0074e-08
1.02212e-08
9.98001e-09
1.00146e-08
1.00102e-08
1.00083e-08
1.00079e-08
1.00079e-08
1.00163e-08
1.00133e-08
1.00142e-08
1.00107e-08
1.00101e-08
1.0011e-08
1.00152e-08
1.00432e-08
1.01326e-08
1.03262e-08
9.97871e-09
1.00117e-08
1.00089e-08
1.00082e-08
1.0008e-08
1.00131e-08
1.00179e-08
1.0014e-08
1.0015e-08
1.00108e-08
1.00106e-08
1.00125e-08
1.00256e-08
1.00852e-08
1.02038e-08
1.01793e-08
1.00127e-08
1.00098e-08
1.00087e-08
1.00083e-08
1.00105e-08
1.00148e-08
1.00198e-08
1.00147e-08
1.00155e-08
1.00109e-08
1.00113e-08
1.00166e-08
1.00501e-08
1.01411e-08
1.01968e-08
1.00606e-08
1.00222e-08
9.96149e-09
1.00092e-08
1.00086e-08
1.00095e-08
1.0011e-08
1.00185e-08
1.0021e-08
1.00151e-08
1.00154e-08
1.00111e-08
1.00126e-08
1.00272e-08
1.00904e-08
1.01689e-08
1.00964e-08
1.00231e-08
1.0027e-08
1.00223e-08
9.96375e-09
1.00089e-08
1.00091e-08
1.00096e-08
1.00124e-08
1.00227e-08
1.00221e-08
1.00157e-08
1.00149e-08
1.00114e-08
1.00162e-08
1.00489e-08
1.013e-08
1.0116e-08
1.00249e-08
1.00249e-08
1.00341e-08
1.00306e-08
1.00266e-08
9.96663e-09
1.00091e-08
1.00101e-08
1.00134e-08
1.00263e-08
1.00234e-08
1.00168e-08
1.00145e-08
1.00125e-08
1.00247e-08
1.00826e-08
1.01203e-08
1.00302e-08
1.00249e-08
1.00301e-08
1.00443e-08
1.00395e-08
1.00354e-08
1.00319e-08
9.97018e-09
1.00093e-08
1.00103e-08
1.00131e-08
1.00275e-08
1.00245e-08
1.00181e-08
1.00147e-08
1.00151e-08
1.00409e-08
1.01023e-08
1.00358e-08
1.00268e-08
1.00278e-08
1.00373e-08
1.00597e-08
1.00531e-08
1.00456e-08
1.00406e-08
1.00381e-08
9.97435e-09
1.00094e-08
1.00103e-08
1.00123e-08
1.00263e-08
1.00245e-08
1.00193e-08
1.00157e-08
1.00194e-08
1.00622e-08
1.00359e-08
1.00294e-08
1.00275e-08
1.00325e-08
1.00482e-08
1.00793e-08
1.00739e-08
1.00635e-08
1.00523e-08
1.00461e-08
1.00451e-08
9.97858e-09
1.00091e-08
1.00103e-08
1.00117e-08
1.00233e-08
1.00235e-08
1.00202e-08
1.00173e-08
1.00275e-08
1.00299e-08
1.003e-08
1.00287e-08
1.00299e-08
1.00392e-08
1.00619e-08
1.00937e-08
1.01e-08
1.00939e-08
1.00852e-08
1.00853e-08
1.00901e-08
1.00749e-08
1.00595e-08
1.00516e-08
1.00536e-08
9.98318e-09
1.00083e-08
1.00103e-08
1.00115e-08
1.00193e-08
1.00217e-08
1.00207e-08
1.00188e-08
1.0021e-08
1.00276e-08
1.00293e-08
1.00294e-08
1.00334e-08
1.00482e-08
1.0071e-08
1.01101e-08
1.01035e-08
1.01214e-08
1.01102e-08
1.01207e-08
1.01207e-08
1.01038e-08
1.00921e-08
1.00924e-08
1.0107e-08
1.00864e-08
1.00664e-08
1.00573e-08
1.00645e-08
9.98876e-09
1.00073e-08
1.00101e-08
1.00114e-08
1.00159e-08
1.00197e-08
1.00211e-08
1.00196e-08
1.00223e-08
1.00273e-08
1.00293e-08
1.00307e-08
1.00384e-08
1.00551e-08
1.00773e-08
1.00774e-08
1.00722e-08
1.00722e-08
1.01182e-08
1.01072e-08
1.01422e-08
1.01417e-08
1.01184e-08
1.01293e-08
1.01294e-08
1.01078e-08
1.00965e-08
1.0097e-08
1.01222e-08
1.00953e-08
1.00723e-08
1.00642e-08
1.00786e-08
9.9952e-09
1.00063e-08
1.00096e-08
1.00111e-08
1.00136e-08
1.00184e-08
1.00213e-08
1.00211e-08
1.00223e-08
1.00274e-08
1.00295e-08
1.00329e-08
1.0043e-08
1.00586e-08
1.00586e-08
1.00558e-08
1.00558e-08
1.00799e-08
1.008e-08
1.00734e-08
1.00734e-08
1.01194e-08
1.01074e-08
1.01082e-08
1.01081e-08
1.01073e-08
1.01564e-08
1.01607e-08
1.01507e-08
1.01499e-08
1.01435e-08
1.01431e-08
1.01202e-08
1.01308e-08
1.01312e-08
1.01081e-08
1.01089e-08
1.01087e-08
1.01081e-08
1.00981e-08
1.0097e-08
1.00969e-08
1.00973e-08
1.00987e-08
1.00976e-08
1.00975e-08
1.0098e-08
1.01303e-08
1.01012e-08
1.00785e-08
1.00736e-08
1.00963e-08
1.0003e-08
1.00053e-08
1.00089e-08
1.00106e-08
1.00127e-08
1.00182e-08
1.00222e-08
1.00225e-08
1.00233e-08
1.00276e-08
1.00299e-08
1.00355e-08
1.00457e-08
1.00457e-08
1.00438e-08
1.00438e-08
1.00606e-08
1.00606e-08
1.00569e-08
1.00569e-08
1.00802e-08
1.00983e-08
1.008e-08
1.00794e-08
1.00797e-08
1.00963e-08
1.00989e-08
1.00804e-08
1.00802e-08
1.00796e-08
1.00799e-08
1.00969e-08
1.00725e-08
1.0073e-08
1.00736e-08
1.00735e-08
1.00725e-08
1.0073e-08
1.00737e-08
1.00736e-08
1.01206e-08
1.01158e-08
1.01202e-08
1.01193e-08
1.01074e-08
1.01088e-08
1.01083e-08
1.01061e-08
1.01622e-08
1.01744e-08
1.01653e-08
1.01642e-08
1.01582e-08
1.01571e-08
1.0146e-08
1.01446e-08
1.01378e-08
1.01368e-08
1.01217e-08
1.0117e-08
1.01212e-08
1.01202e-08
1.01317e-08
1.0128e-08
1.01329e-08
1.01242e-08
1.01321e-08
1.01281e-08
1.01333e-08
1.01247e-08
1.01083e-08
1.01097e-08
1.01091e-08
1.01069e-08
1.00983e-08
1.00988e-08
1.0099e-08
1.00994e-08
1.01342e-08
1.01064e-08
1.00868e-08
1.00867e-08
1.01183e-08
1.00115e-08
1.00045e-08
1.0008e-08
1.00103e-08
1.00122e-08
1.00192e-08
1.00237e-08
1.00244e-08
1.00247e-08
1.00278e-08
1.00314e-08
1.00372e-08
1.00372e-08
1.00365e-08
1.00365e-08
1.00473e-08
1.00474e-08
1.00452e-08
1.00452e-08
1.00613e-08
1.0061e-08
1.0061e-08
1.00609e-08
1.00613e-08
1.0061e-08
1.00609e-08
1.00609e-08
1.00568e-08
1.0057e-08
1.00576e-08
1.00573e-08
1.00568e-08
1.0057e-08
1.00575e-08
1.00573e-08
1.00963e-08
1.008e-08
1.008e-08
1.00951e-08
1.0079e-08
1.00794e-08
1.00974e-08
1.00802e-08
1.00956e-08
1.00802e-08
1.00791e-08
1.00796e-08
1.00719e-08
1.00726e-08
1.00738e-08
1.00736e-08
1.00719e-08
1.00726e-08
1.00738e-08
1.00736e-08
1.0123e-08
1.01137e-08
1.01205e-08
1.01184e-08
1.01066e-08
1.01087e-08
1.01084e-08
1.01052e-08
1.0163e-08
1.0181e-08
1.01763e-08
1.0176e-08
1.01713e-08
1.01706e-08
1.0165e-08
1.01635e-08
1.0156e-08
1.01543e-08
1.01438e-08
1.01507e-08
1.01372e-08
1.01435e-08
1.01419e-08
1.01488e-08
1.01357e-08
1.01416e-08
1.0128e-08
1.01297e-08
1.01346e-08
1.0132e-08
1.0138e-08
1.01372e-08
1.01272e-08
1.01291e-08
1.0134e-08
1.01309e-08
1.01365e-08
1.0137e-08
1.01241e-08
1.01146e-08
1.01213e-08
1.01189e-08
1.01336e-08
1.01244e-08
1.01336e-08
1.01243e-08
1.01075e-08
1.01094e-08
1.01093e-08
1.01059e-08
1.00981e-08
1.00996e-08
1.00988e-08
1.01001e-08
1.01369e-08
1.01125e-08
1.0099e-08
1.01051e-08
1.01447e-08
1.00202e-08
1.00038e-08
1.00074e-08
1.00096e-08
1.00127e-08
1.00214e-08
1.00258e-08
1.00279e-08
1.00383e-08
1.00633e-08
1.00384e-08
1.00382e-08
1.01829e-08
1.01814e-08
1.0039e-08
1.0039e-08
1.00383e-08
1.00384e-08
1.00483e-08
1.00479e-08
1.00481e-08
1.00478e-08
1.00483e-08
1.00479e-08
1.00481e-08
1.00479e-08
1.00459e-08
1.00455e-08
1.00462e-08
1.00458e-08
1.00458e-08
1.00455e-08
1.00462e-08
1.00458e-08
1.00618e-08
1.00612e-08
1.00613e-08
1.00609e-08
1.00618e-08
1.00612e-08
1.00612e-08
1.00609e-08
1.00568e-08
1.00566e-08
1.00583e-08
1.00576e-08
1.00567e-08
1.00566e-08
1.00582e-08
1.00576e-08
1.0124e-08
1.01129e-08
1.01192e-08
1.01169e-08
1.01613e-08
1.01846e-08
1.01833e-08
1.01843e-08
1.018e-08
1.01805e-08
1.01765e-08
1.01769e-08
1.01719e-08
1.01712e-08
1.01683e-08
1.01723e-08
1.01633e-08
1.01687e-08
1.01671e-08
1.01724e-08
1.01617e-08
1.01682e-08
1.01507e-08
1.01575e-08
1.01574e-08
1.01638e-08
1.01487e-08
1.01558e-08
1.01555e-08
1.01627e-08
1.01432e-08
1.01522e-08
1.01357e-08
1.01435e-08
1.0141e-08
1.01505e-08
1.01338e-08
1.01414e-08
1.01249e-08
1.01253e-08
1.01309e-08
1.01342e-08
1.01296e-08
1.01362e-08
1.01246e-08
1.01245e-08
1.01297e-08
1.01346e-08
1.01282e-08
1.01343e-08
1.01248e-08
1.01135e-08
1.01199e-08
1.01173e-08
1.01329e-08
1.01212e-08
1.01328e-08
1.01213e-08
1.0141e-08
1.01228e-08
1.01169e-08
1.01306e-08
1.01733e-08
1.0024e-08
1.00034e-08
1.00066e-08
1.00096e-08
1.00128e-08
1.00245e-08
1.00378e-08
1.02701e-08
1.09542e-08
1.27145e-08
1.00485e-08
1.00483e-08
1.02545e-08
1.02533e-08
1.00431e-08
1.0043e-08
1.00792e-08
1.00772e-08
1.00496e-08
1.00485e-08
1.00493e-08
1.00483e-08
1.00496e-08
1.00486e-08
1.00492e-08
1.00483e-08
1.00468e-08
1.00456e-08
1.00475e-08
1.00464e-08
1.00467e-08
1.00455e-08
1.00475e-08
1.00464e-08
1.00557e-08
1.00553e-08
1.00556e-08
1.00553e-08
1.01631e-08
1.01817e-08
1.01903e-08
1.01919e-08
1.01865e-08
1.0188e-08
1.01814e-08
1.01834e-08
1.01793e-08
1.01806e-08
1.0178e-08
1.01774e-08
1.01774e-08
1.01773e-08
1.01801e-08
1.01801e-08
1.01786e-08
1.01794e-08
1.01723e-08
1.01748e-08
1.01754e-08
1.01765e-08
1.01718e-08
1.01756e-08
1.01757e-08
1.01779e-08
1.01694e-08
1.01732e-08
1.01645e-08
1.01701e-08
1.01685e-08
1.0174e-08
1.01631e-08
1.01704e-08
1.0151e-08
1.01591e-08
1.01584e-08
1.01657e-08
1.01488e-08
1.0158e-08
1.01565e-08
1.01654e-08
1.01488e-08
1.01391e-08
1.01429e-08
1.01617e-08
1.01945e-08
1.00095e-08
1.00029e-08
1.00063e-08
1.00088e-08
1.00184e-08
1.01696e-08
1.27287e-08
2.51847e-08
5.58854e-08
1.16857e-07
1.15354e-07
9.3922e-07
9.34168e-07
1.07741e-08
1.07392e-08
2.00359e-08
1.96504e-08
1.00459e-08
1.0044e-08
1.00435e-08
1.00466e-08
1.00457e-08
1.00439e-08
1.00434e-08
1.00465e-08
1.00718e-08
1.0148e-08
1.01606e-08
1.00703e-08
1.00705e-08
1.01465e-08
1.01579e-08
1.00694e-08
1.00503e-08
1.00488e-08
1.005e-08
1.00485e-08
1.00502e-08
1.00488e-08
1.00499e-08
1.00485e-08
1.00477e-08
1.00457e-08
1.00486e-08
1.00468e-08
1.00476e-08
1.00456e-08
1.00486e-08
1.00468e-08
1.01689e-08
1.01778e-08
1.01941e-08
1.01866e-08
1.01893e-08
1.01835e-08
1.0186e-08
1.01787e-08
1.01814e-08
1.01785e-08
1.0181e-08
1.01783e-08
1.0177e-08
1.0178e-08
1.01772e-08
1.01805e-08
1.01794e-08
1.01795e-08
1.01794e-08
1.01734e-08
1.01752e-08
1.01763e-08
1.01766e-08
1.01731e-08
1.01765e-08
1.0177e-08
1.01784e-08
1.01712e-08
1.01731e-08
1.01709e-08
1.01742e-08
1.01625e-08
1.01653e-08
1.0175e-08
1.01884e-08
1.01717e-08
9.93547e-09
1.00028e-08
1.00055e-08
1.00088e-08
1.09388e-08
4.70828e-08
1.5846e-07
5.17721e-07
6.98073e-06
2.14583e-07
2.13731e-07
1.3051e-06
1.30212e-06
1.07855e-08
1.09542e-08
1.45249e-08
1.35295e-08
1.07766e-08
1.09414e-08
1.45394e-08
1.3562e-08
3.63154e-08
3.63348e-08
1.00499e-08
1.00452e-08
1.00445e-08
1.00501e-08
1.00497e-08
1.00452e-08
1.00444e-08
1.005e-08
1.00893e-08
1.02133e-08
1.02909e-08
1.00784e-08
1.00886e-08
1.02133e-08
1.02905e-08
1.00782e-08
1.00474e-08
1.00455e-08
1.00473e-08
1.00455e-08
1.01791e-08
1.01812e-08
1.01916e-08
1.01873e-08
1.01924e-08
1.01844e-08
1.01884e-08
1.01821e-08
1.01854e-08
1.01796e-08
1.01827e-08
1.01748e-08
1.01757e-08
1.01739e-08
1.01767e-08
1.01742e-08
1.01772e-08
1.01731e-08
1.01785e-08
1.01758e-08
1.01782e-08
1.01767e-08
1.01775e-08
1.01758e-08
1.01807e-08
1.01776e-08
1.01797e-08
1.01787e-08
1.01773e-08
1.01784e-08
1.01775e-08
1.01813e-08
1.01789e-08
1.01808e-08
1.01794e-08
1.01748e-08
1.01751e-08
1.01773e-08
1.01767e-08
1.01755e-08
1.01765e-08
1.0179e-08
1.01785e-08
1.01885e-08
1.01998e-08
1.02011e-08
1.01721e-08
9.93587e-09
1.00024e-08
1.00054e-08
1.00119e-08
5.40217e-08
2.18845e-06
4.13477e-06
4.56415e-05
6.0905e-06
6.09748e-06
1.96842e-05
1.97346e-05
1.60758e-07
1.74741e-07
3.78858e-07
4.11573e-07
1.60349e-07
1.74241e-07
3.78758e-07
4.11398e-07
1.46556e-06
1.46567e-06
1.09686e-08
1.14577e-08
1.65756e-08
1.46638e-08
1.09682e-08
1.14614e-08
1.66112e-08
1.4701e-08
4.79276e-08
5.27123e-08
2.71482e-08
2.89319e-08
4.78829e-08
5.27269e-08
2.7118e-08
2.89434e-08
1.01649e-08
1.0314e-08
1.04818e-08
1.01242e-08
1.01648e-08
1.03127e-08
1.04834e-08
1.01239e-08
1.02016e-08
1.01881e-08
1.01895e-08
1.01863e-08
1.01779e-08
1.01827e-08
1.01766e-08
1.01795e-08
1.01758e-08
1.01773e-08
1.01749e-08
1.01734e-08
1.0177e-08
1.01754e-08
1.01761e-08
1.01732e-08
1.01784e-08
1.01768e-08
1.01766e-08
1.01763e-08
1.01758e-08
1.01773e-08
1.01735e-08
1.01771e-08
1.01724e-08
1.01787e-08
1.01775e-08
1.01783e-08
1.01778e-08
1.0178e-08
1.01751e-08
1.0181e-08
1.01773e-08
1.01801e-08
1.01785e-08
1.01781e-08
1.01814e-08
1.01786e-08
1.02292e-08
1.02279e-08
1.01793e-08
9.93807e-09
1.00023e-08
1.00048e-08
1.04801e-08
1.10042e-06
6.7174e-05
0.000311018
8.11528e-05
8.14738e-05
0.000287874
0.000289047
7.84833e-06
7.907e-06
2.26258e-05
2.28769e-05
1.58142e-07
1.82939e-07
4.48471e-07
4.96204e-07
1.56759e-07
1.82558e-07
4.46551e-07
4.95821e-07
1.41828e-06
2.65385e-06
2.93146e-06
1.22526e-06
1.4221e-06
2.66696e-06
2.94826e-06
1.22776e-06
1.11455e-08
1.17808e-08
1.62243e-08
1.46484e-08
1.11388e-08
1.17893e-08
1.62521e-08
1.4635e-08
5.4467e-08
6.43465e-08
2.722e-08
3.08754e-08
5.37015e-08
6.42535e-08
2.68144e-08
3.08939e-08
1.02498e-08
1.02012e-08
1.01949e-08
1.01887e-08
1.01764e-08
1.018e-08
1.01755e-08
1.01774e-08
1.01751e-08
1.01752e-08
1.01743e-08
1.01743e-08
1.01743e-08
1.01753e-08
1.01725e-08
1.01713e-08
1.01741e-08
1.01762e-08
1.0175e-08
1.01756e-08
1.01757e-08
1.01778e-08
1.01743e-08
1.01742e-08
1.01727e-08
1.0169e-08
1.01737e-08
1.01696e-08
1.01739e-08
1.01714e-08
1.01751e-08
1.01748e-08
1.0175e-08
1.01713e-08
1.01799e-08
1.01775e-08
1.01796e-08
1.0178e-08
1.0174e-08
1.01786e-08
1.0173e-08
1.01798e-08
1.02671e-08
1.02012e-08
9.9459e-09
1.0002e-08
1.00061e-08
3.97947e-08
2.22065e-05
0.000995153
0.0023574
6.83569e-05
6.94999e-05
0.000232907
0.000238039
6.39538e-06
3.28785e-06
6.65329e-06
8.79629e-06
9.23275e-06
3.67653e-06
3.30259e-06
6.40994e-06
3.70165e-06
6.69421e-06
8.77649e-06
9.27291e-06
2.88106e-05
2.72979e-05
1.82755e-05
1.80363e-05
2.82485e-05
2.70036e-05
1.81764e-05
1.80611e-05
1.83492e-07
2.33619e-07
4.62909e-07
5.73283e-07
1.81614e-07
2.33248e-07
4.61551e-07
5.73497e-07
1.83784e-06
1.45716e-06
1.84657e-06
1.45882e-06
1.89312e-08
1.69606e-08
1.89606e-08
1.68003e-08
8.24022e-08
1.04218e-07
8.11724e-08
1.04098e-07
1.03095e-08
1.02488e-08
1.02006e-08
1.01972e-08
1.01822e-08
1.01885e-08
1.01783e-08
1.01834e-08
1.01757e-08
1.01741e-08
1.01767e-08
1.0172e-08
1.01864e-08
1.01764e-08
1.01784e-08
1.01781e-08
1.01771e-08
1.01748e-08
1.01691e-08
1.01707e-08
1.01711e-08
1.01705e-08
1.01706e-08
1.01714e-08
1.01757e-08
1.01796e-08
1.01714e-08
1.01686e-08
1.0177e-08
1.01826e-08
1.01784e-08
1.01761e-08
1.01877e-08
1.01784e-08
1.01735e-08
1.01692e-08
1.01757e-08
1.0175e-08
1.01703e-08
1.01704e-08
1.01769e-08
1.01794e-08
1.01768e-08
1.01717e-08
1.02435e-08
9.96545e-09
1.00021e-08
1.00347e-08
9.74524e-07
0.00051043
0.00773455
0.00573364
0.00472041
0.0257926
0.0237468
6.76249e-05
6.57361e-05
0.000322984
0.000291123
3.95115e-06
7.14011e-06
7.19047e-06
4.32478e-06
1.00888e-05
9.58411e-06
3.95906e-06
7.12116e-06
4.35233e-06
7.22277e-06
1.00128e-05
9.60338e-06
3.29417e-05
2.69368e-05
1.76745e-05
1.53617e-05
3.23734e-05
2.67551e-05
1.75006e-05
1.5363e-05
6.87757e-07
9.24563e-07
6.86506e-07
9.272e-07
1.03065e-08
1.03399e-08
1.02273e-08
1.0209e-08
1.01978e-08
1.01822e-08
1.0185e-08
1.01774e-08
1.01788e-08
1.01776e-08
1.01768e-08
1.01796e-08
1.01834e-08
1.01734e-08
1.0174e-08
1.01713e-08
1.01713e-08
1.01837e-08
1.01813e-08
1.02043e-08
1.01822e-08
1.0195e-08
1.01933e-08
1.01713e-08
1.01705e-08
1.01705e-08
1.01708e-08
1.01701e-08
1.01697e-08
1.02121e-08
1.01904e-08
1.01839e-08
1.0178e-08
1.01714e-08
1.01694e-08
1.01721e-08
1.01714e-08
1.01793e-08
1.01979e-08
1.0173e-08
1.01704e-08
1.01795e-08
1.01977e-08
1.01785e-08
1.01868e-08
1.01752e-08
1.01707e-08
1.01771e-08
1.0171e-08
1.00012e-08
1.00023e-08
1.09071e-08
1.81117e-05
0.0053331
0.0478005
0.0190594
0.014324
0.0646309
0.0559029
0.00062019
0.000264527
0.000178301
0.00092463
0.000352205
0.000153004
0.000110201
0.000515224
0.00300467
0.00182685
8.48761e-05
4.67669e-05
3.66723e-05
2.28315e-05
5.4118e-05
3.47069e-05
2.67304e-05
1.91986e-05
1.00501e-08
1.03807e-08
1.03417e-08
1.02235e-08
1.02155e-08
1.02164e-08
1.02367e-08
1.01924e-08
1.02057e-08
1.01873e-08
1.01939e-08
1.01796e-08
1.01799e-08
1.01842e-08
1.01965e-08
1.01881e-08
1.02189e-08
1.01752e-08
1.01772e-08
1.01717e-08
1.01729e-08
1.01858e-08
1.0188e-08
1.02261e-08
1.02439e-08
1.01908e-08
1.02422e-08
1.01726e-08
1.01723e-08
1.01734e-08
1.01723e-08
1.01719e-08
1.01737e-08
1.02155e-08
1.01824e-08
1.01719e-08
1.01729e-08
1.00048e-08
3.74602e-08
0.000225022
0.0217065
0.171822
0.160472
0.211827
0.2015
0.0566408
0.0451427
0.134304
0.120686
0.000618458
0.000412896
0.000189417
0.0011695
0.00032036
0.00023314
0.000106345
0.00066887
0.0240103
0.0149308
0.00765741
0.00370565
0.0143155
0.00846779
0.00383776
0.00145175
0.000178453
7.49845e-05
0.000103803
4.72065e-05
1.01033e-08
1.04444e-08
1.03155e-08
1.02345e-08
1.02218e-08
1.01887e-08
1.0198e-08
1.01875e-08
1.01884e-08
1.01934e-08
1.01827e-08
1.01931e-08
1.01922e-08
1.02164e-08
1.01882e-08
1.01826e-08
1.01757e-08
1.01772e-08
1.01795e-08
1.01964e-08
1.02664e-08
1.0205e-08
1.03279e-08
1.01737e-08
1.01765e-08
1.01737e-08
1.01802e-08
1.00138e-08
7.84187e-07
0.00186032
0.0575318
0.186182
0.176759
0.210476
0.20389
0.025688
0.0123404
0.0970237
0.0979127
0.0476772
0.163059
0.0170822
0.00542339
0.0962928
0.0845014
0.0512725
0.14304
0.145407
0.135961
0.00104146
0.00135877
0.000383401
0.00320662
0.000335979
0.000556237
0.000145408
0.00138936
0.0116918
0.00430818
0.00661407
0.00150921
1.0154e-08
1.04723e-08
1.03117e-08
1.02468e-08
1.02897e-08
1.02508e-08
1.02296e-08
1.02118e-08
1.01951e-08
1.01947e-08
1.01989e-08
1.0185e-08
1.02125e-08
1.02275e-08
1.0243e-08
1.03461e-08
1.02181e-08
1.02893e-08
1.0181e-08
1.01837e-08
1.01813e-08
1.01897e-08
1.01777e-08
1.01822e-08
1.02205e-08
1.0337e-08
1.01767e-08
1.01831e-08
1.02204e-08
1.04092e-08
1.01761e-08
1.01869e-08
1.0472e-08
3.46936e-05
0.00789704
0.129579
0.12842
0.101689
0.102021
0.141972
0.134369
0.186776
0.184833
0.0612155
0.0243193
0.0607864
0.043047
0.0216613
0.0992048
0.0450478
0.0191217
0.0722979
0.064932
0.035673
0.0985098
0.115303
0.0845511
0.00914146
0.00881935
0.125087
0.0980804
0.0378844
0.0195417
1.02012e-08
1.04605e-08
1.03159e-08
1.02521e-08
1.02079e-08
1.02106e-08
1.01986e-08
1.01983e-08
1.02031e-08
1.01906e-08
1.0258e-08
1.03657e-08
1.02324e-08
1.02639e-08
1.0404e-08
1.02184e-08
1.01876e-08
1.01869e-08
1.01992e-08
1.01851e-08
1.01835e-08
1.01903e-08
1.03017e-08
1.02566e-08
1.05817e-08
1.05154e-08
1.01873e-08
1.01817e-08
1.02092e-08
1.0201e-08
1.02564e-08
1.05748e-08
1.01804e-08
1.0204e-08
6.66701e-08
0.000717575
0.0201106
0.0993688
0.100145
0.0779165
0.0782825
0.0137321
0.0119284
0.113047
0.137823
0.0615461
0.14066
0.0232812
0.0142686
0.0955163
0.0255873
0.0375494
0.0972873
0.138095
0.134923
0.00199235
0.00290182
0.00348376
0.00701535
0.0017876
0.00076192
0.00806896
0.00251698
1.02454e-08
1.04409e-08
1.03098e-08
1.02526e-08
1.02496e-08
1.02253e-08
1.02263e-08
1.02093e-08
1.02099e-08
1.02063e-08
1.01973e-08
1.02296e-08
1.02527e-08
1.02856e-08
1.04663e-08
1.02694e-08
1.03868e-08
1.01904e-08
1.01892e-08
1.01995e-08
1.01938e-08
1.01927e-08
1.021e-08
1.02996e-08
1.06599e-08
1.03273e-08
1.06732e-08
1.01932e-08
1.01896e-08
1.02222e-08
1.02211e-08
4.6172e-06
0.00530259
0.0354577
0.0746601
0.0742637
0.0609422
0.0613795
0.00325977
0.00314957
0.0782945
0.0288245
0.0253566
0.0933199
0.000471793
0.00156145
0.0604168
0.0109259
0.0306557
0.0540406
0.116815
0.131579
0.103032
0.0872612
0.114732
0.122003
0.0876988
0.0892447
3.23384e-05
5.29578e-05
9.81185e-05
5.32992e-05
1.02729e-08
1.04217e-08
1.02998e-08
1.02396e-08
1.02509e-08
1.02215e-08
1.02282e-08
1.02154e-08
1.02124e-08
1.02564e-08
1.03121e-08
1.02354e-08
1.02658e-08
1.0377e-08
1.02237e-08
1.01951e-08
1.01999e-08
1.01998e-08
1.01982e-08
1.02064e-08
1.0199e-08
1.0381e-08
1.03461e-08
1.082e-08
1.08553e-08
1.01976e-08
1.02476e-08
1.02036e-08
1.02447e-08
0.000286736
0.0199099
0.0464497
0.0516286
0.0518399
0.0464947
0.0688478
0.0688325
0.0604333
0.0943365
0.104555
0.0592001
0.0901842
0.0906753
0.00249683
0.00680647
0.0594669
0.0267764
0.0285238
0.0698646
0.000196489
0.0028793
0.0609969
0.0145409
0.0442608
0.0519965
0.0885536
0.0661568
0.0795035
0.0623593
1.02841e-08
1.04124e-08
1.03032e-08
1.02411e-08
1.02615e-08
1.02293e-08
1.02338e-08
1.02379e-08
1.02385e-08
1.02873e-08
1.03843e-08
1.0237e-08
1.0233e-08
1.02148e-08
1.02062e-08
1.02086e-08
1.02166e-08
1.02111e-08
1.02159e-08
1.03315e-08
1.07683e-08
1.03292e-08
1.06424e-08
1.0201e-08
1.02373e-08
1.02045e-08
1.0225e-08
1.04552e-08
1.13604e-08
1.02115e-08
1.02997e-08
0.00543738
0.0421371
0.0472502
0.0450386
0.0469208
0.0449319
0.0565127
0.0564518
0.0438266
0.0593771
0.0663466
0.0714951
0.087715
0.0582166
0.0601868
0.1106
0.0498031
0.0419999
0.0600083
0.0645253
0.0768785
0.0589233
0.0582448
0.107435
0.051732
0.0619635
0.0518783
0.0499201
0.0650167
0.0526999
0.0579801
0.0484734
1.02857e-08
1.0425e-08
1.03187e-08
1.02516e-08
1.02561e-08
1.03743e-08
1.03059e-08
1.03149e-08
1.02812e-08
1.0271e-08
1.02665e-08
1.02409e-08
1.02187e-08
1.0227e-08
1.03423e-08
1.0414e-08
1.0817e-08
1.08058e-08
1.02117e-08
1.02373e-08
1.02175e-08
1.02463e-08
1.04394e-08
1.14563e-08
1.04718e-08
1.17075e-08
1.02097e-08
1.02857e-08
1.02175e-08
1.03142e-08
0.0214599
0.0602267
0.0488013
0.0777333
0.051572
0.0663477
0.0478675
0.0778996
0.0500611
0.0651402
0.055849
0.0557448
0.0402691
0.0411707
0.0516385
0.0451235
0.0365216
0.0348801
0.0347181
0.037553
0.0370732
0.0402944
0.0344514
0.0338163
0.0491353
0.0578397
0.0447937
0.0439431
1.02801e-08
1.04491e-08
1.03371e-08
1.03468e-08
1.0292e-08
1.0337e-08
1.05342e-08
1.03048e-08
1.05911e-08
1.05754e-08
1.11056e-08
1.03699e-08
1.04465e-08
1.11499e-08
1.03364e-08
1.03307e-08
1.02703e-08
1.02417e-08
1.02754e-08
1.0225e-08
1.02377e-08
1.03051e-08
1.02605e-08
1.02541e-08
1.06052e-08
1.06496e-08
1.20218e-08
1.15958e-08
1.02354e-08
1.03604e-08
1.0241e-08
1.03267e-08
0.0393782
0.0776804
0.0616522
0.0621491
0.0777694
0.0898424
0.0899314
0.060151
0.0720071
0.0443245
0.0603941
0.0462316
0.118933
0.0475184
0.0570846
0.116072
0.0594197
0.089749
0.0582638
0.0726626
0.0436386
0.0591891
0.0453085
0.113077
0.0514197
0.0567461
0.116413
0.060231
0.0846215
0.0382591
0.0386604
0.0354543
0.0328614
0.0353439
0.0355406
0.0338506
0.0317397
1.02739e-08
1.0492e-08
1.03989e-08
1.15199e-08
1.04232e-08
1.0387e-08
1.03606e-08
1.02843e-08
1.02861e-08
1.03757e-08
1.07675e-08
1.03337e-08
1.09923e-08
1.07736e-08
1.09711e-08
1.35518e-08
1.29215e-08
1.19591e-08
1.02801e-08
1.02986e-08
1.02702e-08
1.04321e-08
1.04842e-08
1.03623e-08
1.10202e-08
1.3694e-08
1.02775e-08
1.05494e-08
0.0617706
0.113531
0.108888
0.115133
0.108764
0.103765
0.103649
0.0436434
0.0510691
0.0423104
0.0355092
0.0637979
0.0507381
0.344025
0.298548
0.210876
0.109796
0.108807
0.220116
0.211818
0.197784
0.0437861
0.057058
0.0354818
0.0439508
0.0722598
0.0536475
0.305459
0.35802
0.212252
0.119055
0.106956
0.222885
0.231672
0.197806
1.02686e-08
1.05647e-08
1.05387e-08
1.04127e-08