/*--------------------------------*- C++ -*----------------------------------*\
| =========                 |                                                 |
| \\      /  F ield         | OpenFOAM: The Open Source CFD Toolbox           |
|  \\    /   O peration     | Version:  5.x                                   |
|   \\  /    A nd           | Web:      www.OpenFOAM.org                      |
|    \\/     M anipulation  |                                                 |
\*---------------------------------------------------------------------------*/
FoamFile
{
    version     2.0;
    format      ascii;
    class       surfaceScalarField;
    location    "1";
    object      meshPhi;
}
// * * * * * * * * * * * * * * * * * * * * * * * * * * * * * * * * * * * * * //

dimensions      [0 3 -1 0 0 0 0];

internalField   nonuniform List<scalar> 
30582
(
0
0
0
0
0
0
0
0
0
0
0
0
0
0
0
0
0
0
0
0
0
0
0
0
0
0
0
0
0
0
0
0
0
0
0
0
0
0
0
0
0
0
0
0
0
0
0
0
0
0
0
0
0
0
0
0
0
0
0
0
0
0
0
0
0
0
0
0
0
0
0
0
0
0
0
0
0
0
0
0
0
0
0
0
0
0
0
0
0
0
0
0
0
0
0
0
0
0
0
0
0
0
0
0
0
0
0
0
0
0
0
0
0
0
0
0
0
0
0
0
0
0
0
0
0
0
0
0
0
0
0
0
0
0
0
0
0
0
0
0
0
0
0
0
0
0
0
0
0
0
0
0
0
0
0
0
0
0
0
0
0
0
0
0
0
0
0
0
0
0
0
0
0
0
0
0
0
0
0
0
0
0
0
0
0
0
0
0
0
0
0
0
0
0
0
0
0
0
0
0
0
0
0
0
0
0
0
0
0
0
0
0
0
0
0
0
0
0
0
0
0
0
0
0
0
0
0
0
0
0
0
0
0
0
0
0
0
0
0
0
0
0
0
0
0
0
0
0
0
0
0
0
0
0
0
0
0
0
0
0
0
0
0
0
0
0
0
0
0
0
0
0
0
0
0
0
0
0
0
0
0
0
0
0
0
0
0
0
0
0
0
0
0
0
0
0
0
0
0
0
0
0
0
0
0
0
0
0
0
0
0
0
0
0
0
0
0
0
0
0
0
0
0
0
0
0
0
0
0
0
0
0
0
0
0
0
0
0
0
0
0
0
0
0
0
0
0
0
0
0
0
0
0
0
0
0
0
0
0
0
0
0
0
0
0
0
0
0
0
0
0
0
0
0
0
0
0
0
0
0
0
0
0
0
0
0
0
0
0
0
0
0
0
0
0
0
0
0
0
0
0
0
0
0
0
0
0
0
0
0
0
0
0
0
0
0
0
0
0
0
0
0
0
0
0
0
0
0
0
0
0
0
0
0
0
0
0
0
0
0
0
0
0
0
0
0
0
0
0
0
0
0
0
0
0
0
0
0
0
0
0
0
0
0
0
0
0
0
0
0
0
0
0
0
0
0
0
0
0
0
0
0
0
0
0
0
0
0
0
0
0
0
0
0
0
0
0
0
0
0
0
0
0
0
0
0
0
0
0
0
0
0
0
0
0
0
0
0
0
0
0
0
0
0
0
0
0
0
0
0
0
0
0
0
0
0
0
0
0
0
0
0
0
0
0
0
0
0
0
0
0
0
0
0
0
0
0
0
0
0
0
0
0
0
0
0
0
0
0
0
0
0
0
0
0
0
0
0
0
0
0
0
0
0
0
0
0
0
0
0
0
0
0
0
0
0
0
0
0
0
0
0
0
0
0
0
0
0
0
0
0
0
0
0
0
0
0
0
0
0
0
0
0
0
0
0
0
0
0
0
0
0
0
0
0
0
0
0
0
0
0
0
0
0
0
0
0
0
0
0
0
0
0
0
0
0
0
0
0
0
0
0
0
0
0
0
0
0
0
0
0
0
0
0
0
0
0
0
0
0
0
0
0
0
0
0
0
0
0
0
0
0
0
0
0
0
0
0
0
0
0
0
0
0
0
0
0
0
0
0
0
0
0
0
0
0
0
0
0
0
0
0
0
0
0
0
0
0
0
0
0
0
0
0
0
0
0
0
0
0
0
0
0
0
0
0
0
0
0
0
0
0
0
0
0
0
0
0
0
0
0
0
0
0
0
0
0
0
0
0
0
0
0
0
0
0
0
0
0
0
0
0
0
0
0
0
0
0
0
0
0
0
0
0
0
0
0
0
0
0
0
0
0
0
0
0
0
0
0
0
0
0
0
0
0
0
0
0
0
0
0
0
0
0
0
0
0
0
0
0
0
0
0
0
0
0
0
0
0
0
0
0
0
0
0
0
0
0
0
0
0
0
0
0
0
0
0
0
0
0
0
0
0
0
0
0
0
0
0
0
0
0
0
0
0
0
0
0
0
0
0
0
0
0
0
0
0
0
0
0
0
0
0
0
0
0
0
0
0
0
0
0
0
0
0
0
0
0
0
0
0
0
0
0
0
0
0
0
0
0
0
0
0
0
0
0
0
0
0
0
0
0
0
0
0
0
0
0
0
0
0
0
0
0
0
0
0
0
0
0
0
0
0
0
0
0
0
0
0
0
0
0
0
0
0
0
0
0
0
0
0
0
0
0
0
0
0
0
0
0
0
0
0
0
0
0
0
0
0
0
0
0
0
0
0
0
0
0
0
0
0
0
0
0
0
0
0
0
0
0
0
0
0
0
0
0
0
0
0
0
0
0
0
0
0
0
0
0
0
0
0
0
0
0
0
0
0
0
0
0
0
0
0
0
0
0
0
0
0
0
0
0
0
0
0
0
0
0
0
0
0
0
0
0
0
0
0
0
0
0
0
0
0
0
0
0
0
0
0
0
0
0
0
0
0
0
0
0
0
0
0
0
0
0
0
0
0
0
0
0
0
0
0
0
0
0
0
0
0
0
0
0
0
0
0
0
0
0
0
0
0
0
0
0
0
0
0
0
0
0
0
0
0
0
0
0
0
0
0
0
0
0
0
0
0
0
0
0
0
0
0
0
0
0
0
0
0
0
0
0
0
0
0
0
0
0
0
0
0
0
0
0
0
0
0
0
0
0
0
0
0
0
0
0
0
0
0
0
0
0
0
0
0
0
0
0
0
0
0
0
0
0
0
0
0
0
0
0
0
0
0
0
0
0
0
0
0
0
0
0
0
0
0
0
0
0
0
0
0
0
0
0
0
0
0
0
0
0
0
0
0
0
0
0
0
0
0
0
0
0
0
0
0
0
0
0
0
0
0
0
0
0
0
0
0
0
0
0
0
0
0
0
0
0
0
0
0
0
0
0
0
0
0
0
0
0
0
0
0
0
0
0
0
0
0
0
0
0
0
0
0
0
0
0
0
0
0
0
0
0
0
0
0
0
0
0
0
0
0
0
0
0
0
0
0
0
0
0
0
0
0
0
0
0
0
0
0
0
0
0
0
0
0
0
0
0
0
0
0
0
0
0
0
0
0
0
0
0
0
0
0
0
0
0
0
0
0
0
0
0
0
0
0
0
0
0
0
0
0
0
0
0
0
0
0
0
0
0
0
0
0
0
0
0
0
0
0
0
0
0
0
0
0
0
0
0
0
0
0
0
0
0
0
0
0
0
0
0
0
0
0
0
0
0
0
0
0
0
0
0
0
0
0
0
0
0
0
0
0
0
0
0
0
0
0
0
0
0
0
0
0
0
0
0
0
0
0
0
0
0
0
0
0
0
0
0
0
0
0
0
0
0
0
0
0
0
0
0
0
0
0
0
0
0
0
0
0
0
0
0
0
-2.55076e-18
8.99605e-18
-3.65007e-25
2.69849e-17
1.34898e-17
1.80007e-17
0
0
0
0
0
0
0
0
0
0
0
0
0
0
0
0
0
0
0
0
0
0
0
0
0
0
0
0
0
0
0
0
0
0
0
0
0
0
4.48743e-18
1.41274e-34
-6.5458e-19
1.04004e-25
2.24669e-17
-1.79896e-17
-2.50797e-18
2.69849e-17
-4.49684e-18
2.69929e-17
-1.30183e-18
-2.85171e-25
-4.49372e-17
3.25734e-34
-1.9278e-18
2.69706e-17
6.5189e-18
-4.4951e-17
0
0
0
0
0
0
0
0
0
0
0
0
0
0
0
0
0
0
0
0
0
0
0
0
0
0
0
0
0
0
0
0
0
0
0
0
0
7.47558e-19
-3.87215e-18
2.84146e-17
-3.15846e-20
-5.37741e-17
-1.79085e-17
3.59219e-17
-1.17945e-35
-1.28283e-18
1.34802e-17
1.63771e-33
-6.61705e-19
1.8183e-25
2.24139e-17
0
7.63933e-17
-7.51801e-21
-3.59498e-17
-2.00813e-35
6.28564e-19
2.69706e-17
6.5189e-18
-2.69716e-17
-4.05617e-20
2.86127e-24
-2.69015e-17
2.51077e-34
-5.90283e-21
-3.58655e-17
0
0
0
0
0
0
0
0
0
0
0
0
0
0
0
0
0
0
0
0
0
0
0
0
0
0
0
0
0
0
0
0
0
0
0
1.41139e-17
2.68988e-17
1.79056e-17
4.53374e-18
4.59455e-20
2.11522e-34
8.09361e-20
4.85126e-20
3.13977e-17
1.03281e-17
-2.47845e-18
-1.76878e-17
-1.62963e-34
2.16223e-19
1.34037e-17
-2.41589e-18
-1.78732e-17
9.67323e-35
7.09108e-20
-4.48739e-18
0
3.84649e-19
7.81592e-24
7.81198e-18
-1.33845e-17
1.00413e-17
-1.34035e-17
0
0
1.86782e-18
-3.83806e-18
1.83506e-17
1.14412e-20
2.69502e-17
8.92799e-18
-5.37741e-17
-8.11235e-20
-3.58686e-17
-2.0421e-34
-8.97225e-18
-7.17674e-17
0
-3.6374e-24
2.00931e-17
-2.23004e-18
2.00797e-17
-4.47638e-18
0
-8.95554e-18
2.31234e-18
-9.02789e-18
8.95168e-18
-1.11965e-17
9.01488e-18
-1.13138e-17
2.24725e-18
0
0
0
0
0
0
0
0
0
0
0
0
0
0
0
0
0
0
0
0
0
0
0
0
0
0
0
0
0
0
0
0
0
-1.23791e-17
2.25055e-17
-1.79661e-17
1.34874e-17
9.10538e-18
-7.08116e-35
-3.87168e-18
2.68691e-17
2.44548e-18
-3.57457e-17
-2.65229e-34
9.11446e-18
1.35083e-17
0
-3.61037e-17
9.20567e-36
-1.91763e-11
-5.16267e-12
-1.91813e-09
7.71468e-14
-2.83395e-13
1.50483e-08
2.19588e-13
1.52306e-08
-1.33728e-10
8.14921e-19
-1.57481e-19
5.14828e-19
1.58173e-19
-4.54936e-18
1.7432e-17
1.14297e-18
1.07965e-17
2.07812e-18
3.36354e-34
-2.21395e-16
8.90236e-13
1.48882e-08
-1.18861e-14
3.00474e-08
6.29135e-19
1.09161e-18
2.44424e-17
4.45401e-18
3.11716e-17
0
-3.48399e-19
1.00509e-17
-4.46506e-18
1.44999e-17
-8.92632e-18
7.30978e-19
7.47179e-20
0
-4.66003e-19
7.78684e-18
2.2334e-19
7.5314e-19
1.28425e-23
2.14277e-21
0
1.78277e-22
-4.00037e-16
8.72087e-19
-8.89132e-18
0
0
-3.6712e-17
4.53387e-18
9.06878e-18
-1.55477e-20
1.79056e-17
0
1.28707e-18
1.17298e-18
4.46578e-18
-6.45105e-18
-2.41579e-18
-1.92217e-33
0
1.46488e-22
1.34142e-17
-2.57586e-18
-8.91836e-18
-7.42613e-20
1.22763e-17
-4.46076e-18
7.8107e-18
-4.47049e-18
0
-8.94816e-18
4.55041e-18
-1.3503e-17
8.9462e-18
-1.3424e-17
1.12635e-17
-1.1292e-17
4.47879e-18
1.10731e-18
7.46109e-20
-1.2709e-18
7.77521e-18
0
7.43328e-20
-7.78826e-26
-7.77862e-18
-8.65575e-26
5.55627e-18
0
1.54052e-21
-1.2645e-18
0
0
1.77753e-17
-7.39706e-20
-1.20304e-18
8.90235e-13
0
1.25891e-10
-1.32881e-17
-9.09027e-19
1.48497e-19
1.55297e-17
7.38001e-20
-1.20253e-18
-8.9542e-18
3.36993e-17
-8.89306e-18
0
0
0
0
0
0
0
0
0
0
0
0
0
0
0
0
0
0
0
0
0
0
0
0
0
0
0
0
0
0
0
5.00384e-18
1.56377e-20
-8.94728e-18
9.11505e-18
-9.07234e-18
-2.26137e-35
-1.13355e-18
-1.35427e-17
1.26008e-17
-3.59353e-17
-3.18364e-35
-8.81998e-20
4.46853e-18
1.03957e-17
-1.79177e-17
9.96501e-26
4.31958e-09
-3.20488e-12
1.34979e-08
7.44584e-11
1.48055e-08
9.44416e-09
-4.39564e-18
1.79806e-17
1.41079e-12
-1.08209e-10
-3.46273e-27
-4.20912e-09
3.51993e-10
1.35821e-09
-1.25555e-10
4.33039e-10
-9.20127e-09
-1.29951e-12
-6.73258e-10
-1.14743e-12
2.20536e-10
6.35949e-20
-2.96522e-20
-9.35219e-19
-9.08037e-13
0
-2.07724e-13
-1.32058e-13
1.52307e-16
-1.10378e-34
-1.60319e-08
-2.18028e-16
1.77118e-24
4.8073e-13
1.7915e-17
-3.09904e-34
-8.46465e-11
-4.44835e-18
0
1.95152e-09
1.47791e-08
7.27305e-20
-4.44883e-19
-9.02153e-18
0
5.60991e-19
-6.98145e-20
9.7422e-18
-1.18854e-18
3.70746e-18
5.66289e-19
-6.08894e-20
-1.62228e-19
1.34319e-17
-1.09779e-18
-2.12555e-17
4.61635e-19
1.5635e-17
6.50607e-20
-4.74796e-13
6.40976e-12
1.187e-12
4.23756e-11
1.0528e-34
1.77215e-08
-1.87561e-09
-6.29374e-20
1.78813e-17
-3.93878e-35
-1.45549e-17
0
4.82197e-19
1.2687e-18
4.36167e-18
-8.99088e-19
-1.04213e-17
3.75619e-18
6.29164e-20
8.93042e-18
-1.67824e-17
6.10941e-19
7.4718e-20
0
-9.34053e-19
1.00174e-17
2.23339e-19
6.71163e-19
-1.11096e-17
0
-3.88923e-16
4.93835e-19
-1.78212e-17
-2.02551e-09
7.4894e-20
0
1.90871e-09
2.29964e-11
-7.38309e-20
1.0683e-13
2.42919e-22
-2.84246e-13
0
1.2525e-21
1.49251e-08
7.12213e-14
-1.48397e-14
0
0
-1.23791e-17
1.35624e-17
-8.95382e-18
-4.5393e-18
-8.921e-18
4.21245e-34
3.71902e-18
1.21852e-18
9.05719e-18
-2.64911e-18
9.87221e-20
0
-5.02418e-34
4.5161e-18
0
0
4.70171e-17
1.65599e-08
-3.56098e-12
1.59713e-08
-4.45315e-18
-1.43741e-15
-2.21071e-18
6.2906e-19
-8.81494e-18
1.12604e-17
-4.45387e-18
2.44874e-17
0
-1.825e-12
-1.32313e-10
6.52724e-14
-1.1588e-12
1.56847e-08
-1.13777e-17
-2.34548e-15
-2.08597e-09
9.35018e-22
2.12398e-18
-1.10787e-18
2.97172e-20
3.81396e-17
-5.58865e-18
3.59457e-17
3.56163e-18
9.05391e-19
7.46112e-20
-1.29028e-18
2.33838e-17
7.43134e-20
7.43367e-20
-1.11122e-18
1.33347e-17
-2.14528e-36
-2.22976e-18
-9.09199e-19
1.48707e-19
0
2.22293e-17
0
-1.33912e-18
4.86651e-13
0
1.52007e-08
-1.55371e-17
-1.18112e-18
7.42473e-20
2.55662e-17
0
-1.30669e-18
-2.22722e-18
1.56061e-17
8.92435e-34
5.9498e-19
-1.4974e-19
-2.59885e-18
2.45369e-17
0
2.70543e-19
-2.00813e-24
-9.1797e-22
-9.27615e-24
4.42283e-17
9.12565e-20
-2.22938e-18
0
0
-1.48779e-08
-1.43926e-13
-7.43227e-20
8.71626e-18
-3.28486e-18
0
0
0
0
0
0
0
0
0
0
0
0
0
0
0
0
0
0
0
0
0
0
0
0
0
0
0
0
0
-1.5351e-17
2.2525e-17
-2.10334e-20
-4.4783e-18
-4.25686e-20
-8.03234e-34
-2.23785e-18
1.78751e-17
2.02796e-17
-1.78269e-17
-1.23302e-33
5.34385e-18
-1.80276e-17
5.3455e-18
-1.76671e-17
-3.55463e-26
-4.12548e-09
1.44762e-10
-1.52331e-08
-3.69832e-09
-1.52375e-08
-9.01978e-09
8.3955e-13
-2.81707e-10
-7.41875e-13
7.38731e-09
-1.08298e-26
6.10819e-11
-3.81851e-09
1.52981e-08
-3.75087e-09
1.51596e-08
1.29727e-10
3.67225e-13
7.64777e-09
6.86227e-13
7.49552e-09
-1.69548e-24
5.75691e-12
-1.18698e-12
1.84319e-08
-1.00337e-34
-1.87411e-09
-7.00327e-20
-4.70194e-09
2.87497e-17
1.38667e-26
-1.67044e-12
-1.98852e-17
0
-3.25253e-18
4.58242e-18
6.07028e-19
-1.17536e-17
-6.99464e-20
1.77431e-12
1.10505e-17
9.40274e-09
-3.20144e-17
7.08359e-20
-6.40976e-12
4.45339e-09
8.67784e-18
-1.83201e-08
1.37586e-26
1.66335e-12
-7.80331e-16
-7.18759e-20
2.2711e-17
-1.30458e-26
-1.13044e-17
-1.41523e-19
-1.37641e-18
-1.66302e-12
8.04455e-18
6.611e-18
-8.90545e-09
6.04108e-18
7.18037e-20
1.36265e-17
-1.80658e-17
0
4.15448e-13
-3.60199e-25
-2.25105e-18
-3.62552e-17
-7.23541e-35
1.19238e-34
2.53648e-09
-2.53414e-20
5.93487e-14
-4.25104e-34
-8.02669e-09
-1.32093e-33
4.87392e-20
-2.88488e-34
-7.50245e-19
-1.05592e-18
1.8542e-18
-2.53601e-20
-4.45561e-19
1.76978e-19
-3.50789e-20
8.50014e-19
5.71682e-19
-1.16732e-18
-1.26974e-35
1.31252e-16
3.30008e-20
-4.27103e-34
-3.89198e-34
1.2643e-19
-7.1867e-19
-1.14101e-18
-2.11739e-18
0
7.45905e-11
-1.50531e-24
0
1.97238e-09
-1.50626e-08
-7.38325e-20
5.36188e-19
1.25113e-14
0
-1.49387e-08
2.9676e-14
-1.4096e-13
-1.1146e-09
8.19734e-20
7.17362e-34
1.25417e-09
0
-1.0683e-13
-1.31642e-21
3.36396e-34
-2.25809e-21
-7.12194e-14
0
0
5.2144e-18
9.0708e-18
-1.20822e-32
-8.96225e-18
-8.97808e-18
1.30266e-35
7.72884e-18
-3.55076e-19
4.4471e-18
-1.25149e-17
1.05753e-17
-5.37982e-17
1.13822e-35
4.42467e-18
-3.5875e-17
1.51848e-26
-4.31953e-09
-4.20917e-09
3.55969e-10
1.67901e-08
-1.28664e-10
1.56472e-08
-9.44426e-09
-9.20127e-09
-1.34773e-12
-6.73236e-10
-1.14495e-12
2.20558e-10
-4.36964e-25
-1.09797e-12
2.96925e-08
7.42513e-11
1.48056e-08
-3.29658e-18
1.34854e-17
1.41573e-12
-1.08165e-10
6.50654e-20
3.6263e-19
-6.36524e-12
-4.15447e-13
-1.04498e-16
0
-1.77212e-08
-1.47316e-08
0
1.06888e-18
1.56636e-17
0
-5.53739e-17
-1.33559e-17
6.50219e-20
3.09879e-19
6.47071e-19
3.46043e-20
4.54061e-19
-4.45475e-18
5.67722e-18
-6.29092e-20
6.29942e-19
6.69291e-18
-8.59748e-19
-2.11975e-17
-1.272e-19
-1.20743e-18
-6.08334e-13
-9.08038e-13
0
1.36504e-13
2.24035e-13
9.87286e-18
0
-1.60319e-08
-3.26997e-09
-6.09253e-20
2.22941e-17
0
-1.89535e-17
0
-2.29865e-10
3.08525e-08
-6.35946e-20
-5.29092e-19
3.62371e-19
-2.30763e-19
7.27307e-20
-2.76054e-19
-4.50476e-18
4.76267e-19
-4.11271e-18
3.70735e-18
6.08891e-20
8.94886e-18
-9.96993e-18
4.03935e-19
2.91256e-17
1.25425e-18
-7.4869e-20
-3.08504e-18
3.12237e-17
1.8812e-33
1.47293e-19
-2.21102e-18
2.43301e-17
-2.10559e-19
-1.01963e-21
-7.43454e-20
0
1.49783e-08
3.69447e-13
-7.43238e-20
2.63167e-17
-3.29415e-18
-3.89171e-19
-4.09583e-20
-5.00619e-19
-3.87834e-20
9.60957e-20
-5.02727e-24
2.81453e-23
-5.03432e-20
0
1.53896e-34
-4.426e-20
0
0
0
0
0
0
0
0
0
0
0
0
0
0
0
0
0
0
0
0
0
0
0
0
0
0
0
0
6.74736e-17
7.44231e-34
7.82125e-18
-9.02937e-18
2.52869e-17
-8.88858e-18
3.37773e-33
7.53122e-18
4.4437e-18
-1.53446e-17
-2.69497e-17
-4.4243e-25
-5.29133e-18
3.54268e-09
2.53837e-17
7.75309e-09
-5.57853e-34
-1.27284e-17
2.24191e-17
2.63185e-17
-4.48392e-17
-1.37651e-19
-2.25528e-12
-1.24428e-17
-2.38615e-10
0
-7.79943e-16
6.98431e-20
4.51449e-09
-2.23287e-17
0
2.2627e-12
8.94225e-18
1.37537e-19
-6.78956e-19
-3.37274e-18
-7.09962e-18
2.00515e-17
-6.97633e-20
-1.52083e-12
-1.48725e-20
-9.02607e-09
1.676e-17
1.42336e-19
-3.02683e-12
-9.633e-11
2.31462e-12
-4.14631e-10
0
4.12287e-10
1.53003e-08
-7.08094e-20
-2.23483e-17
0
7.78128e-18
-7.10832e-20
-2.2248e-18
5.04474e-13
-8.9811e-18
2.57042e-18
2.04378e-10
2.46291e-17
-7.07399e-20
-1.11691e-17
1.67329e-17
-3.79504e-20
2.96745e-13
4.05358e-11
-1.22077e-34
4.28864e-20
2.96745e-13
-3.46097e-34
-9.72814e-11
3.79665e-20
-7.7603e-19
1.60317e-18
-4.29103e-20
-9.41687e-19
2.49266e-18
-6.78037e-20
-4.00303e-18
8.57828e-19
6.44961e-18
-3.31576e-16
-1.13534e-34
9.49484e-17
1.83127e-15
1.1053e-19
-5.0097e-34
6.78073e-20
1.27349e-19
-6.24306e-19
1.23844e-18
6.02382e-18
-1.2486e-18
-3.45529e-17
-5.52722e-20
7.569e-11
4.09859e-20
4.85283e-34
1.08898e-09
1.71888e-24
-6.38007e-14
2.22025e-34
-2.96745e-14
0
0
2.53375e-17
-4.4888e-18
-9.01729e-18
-1.3456e-17
1.80062e-17
-8.2844e-35
2.23785e-18
1.04249e-17
-8.26947e-20
-1.52758e-17
-6.0411e-32
-3.58337e-17
-5.64052e-34
8.86462e-18
-3.57994e-17
4.80629e-27
4.12567e-09
-1.43279e-17
-5.18568e-12
-1.52985e-08
-3.74345e-09
-1.51609e-08
9.01998e-09
1.78087e-17
-4.49959e-18
1.34909e-17
6.52838e-13
7.49568e-09
3.55463e-26
1.44587e-10
-1.5233e-08
-3.69852e-09
-1.52376e-08
8.43249e-13
-2.81673e-10
-7.41872e-13
7.38731e-09
1.41673e-19
-8.19025e-12
4.45331e-09
1.10453e-17
-1.86144e-08
0
1.66335e-12
-7.85264e-16
1.43743e-19
4.70176e-09
2.50154e-17
0
1.61975e-12
-4.64667e-18
0
-1.4413e-18
-1.66302e-12
8.24942e-18
9.61738e-18
-8.90545e-09
1.40969e-18
0
-1.72361e-12
9.15328e-18
-9.40274e-09
-1.81868e-17
0
5.99431e-12
4.15453e-13
1.84319e-08
0
-1.47763e-08
0
1.34396e-17
0
-1.0015e-17
-6.17381e-34
-2.02461e-18
-2.04875e-18
6.88665e-19
1.19611e-17
6.99469e-20
6.67648e-18
-2.10508e-17
-3.5068e-20
5.93499e-14
1.9437e-12
-9.08812e-09
0
9.70812e-09
3.29797e-20
-1.36503e-13
0
7.18402e-09
-2.68379e-33
-8.48697e-20
-9.71665e-21
6.18339e-19
-1.05891e-18
0
4.45588e-19
-1.86758e-18
-1.08691e-19
1.26118e-13
-3.602e-25
-4.02186e-18
-3.54757e-17
0
2.72025e-34
1.31279e-09
0
0
5.43264e-20
1.14012e-19
-2.91193e-34
-2.67278e-19
3.46455e-18
-7.94876e-19
0
7.3509e-19
0
-1.20266e-18
-3.87853e-20
-1.12822e-20
-5.17228e-20
4.42762e-20
3.53809e-34
0
0
0
0
0
0
0
0
0
0
0
0
0
0
0
0
0
0
0
0
0
0
0
0
0
0
0
0
2.66646e-18
-9.15318e-35
-2.00366e-17
-1.79987e-17
-3.59632e-17
-7.14941e-22
-1.79864e-17
-2.65638e-33
-2.61591e-18
4.52341e-18
9.52475e-18
-2.67399e-17
-1.87974e-33
9.00769e-18
-3.59063e-17
0
-2.56312e-18
-9.49598e-13
-4.30389e-10
1.3527e-17
-1.34648e-17
-3.80872e-16
-6.65288e-18
-1.04377e-18
-2.69301e-18
1.41816e-17
1.57249e-17
-6.68168e-18
2.00058e-17
-3.02754e-20
0
1.08273e-18
3.25727e-18
-1.57708e-17
7.73527e-18
-1.79268e-17
1.2699e-17
1.00451e-17
6.77756e-18
1.90145e-17
0
1.30516e-19
-1.92498e-19
-5.436e-18
-3.00022e-18
0
2.96465e-17
0
6.51678e-18
-1.54869e-17
0
-5.65392e-18
1.32308e-17
0
-1.3047e-18
1.10493e-18
-1.25942e-18
1.19722e-17
-6.88256e-20
6.23237e-19
-2.13896e-18
-6.62385e-18
2.11149e-17
7.20663e-20
-8.15548e-18
-1.3029e-17
4.98698e-18
0
-3.5473e-16
8.22797e-34
-4.36208e-18
0
3.27159e-18
-6.41646e-34
1.65741e-18
4.62213e-18
7.50305e-18
1.88187e-17
-7.18345e-20
-6.66134e-18
9.89658e-18
-3.97502e-32
-3.32324e-19
-3.92814e-35
-1.09965e-16
6.01947e-34
1.4796e-18
3.04092e-18
0
0
0
6.74877e-17
-1.44257e-33
-1.06158e-19
2.39374e-18
-4.52214e-18
-9.85685e-18
-2.04123e-17
-1.80366e-17
-8.87074e-34
-9.37593e-20
-3.58841e-17
6.75064e-36
1.78378e-19
-1.29007e-17
2.24191e-17
-1.55162e-17
2.56296e-17
-8.70267e-18
-3.63694e-35
-1.46327e-17
-2.228e-18
1.87148e-31
3.02682e-12
-5.89787e-12
-2.31464e-12
4.14631e-10
0
-4.12791e-10
-1.53003e-08
-7.08126e-20
-4.51441e-09
-2.01052e-17
0
-2.27754e-12
1.78555e-17
7.10831e-20
-2.692e-18
2.53116e-18
-6.75569e-18
6.24908e-18
-6.7245e-18
1.67423e-17
0
1.52083e-12
-6.70192e-18
9.02583e-09
2.34726e-17
1.37651e-19
-2.43333e-12
-1.00636e-17
-2.39068e-10
0
-7.76619e-16
1.39689e-19
-2.45728e-17
0
1.11967e-17
6.87675e-20
2.83656e-18
-1.00627e-17
-5.0111e-18
2.43985e-17
6.9761e-20
-8.93218e-18
1.56577e-17
1.35611e-19
-5.10874e-18
-9.72894e-19
5.15969e-18
-3.31047e-16
0
9.32339e-17
2.19384e-15
-1.64747e-24
-2.96745e-13
0
9.72814e-11
0
-1.27688e-18
-1.23084e-18
-2.39657e-18
8.19454e-18
-2.47384e-18
-2.98339e-17
1.10544e-19
9.41687e-19
-2.49266e-18
3.79448e-20
2.96746e-13
4.05358e-11
0
0
0
-3.40624e-33
-1.15803e-18
1.96694e-18
-4.29102e-20
0
0
0
0
0
0
0
0
0
0
0
0
0
0
0
0
0
0
0
0
0
0
0
0
0
0
-1.35394e-17
4.77889e-33
1.03413e-17
1.49222e-17
4.43013e-18
1.46023e-17
-1.53958e-17
-4.49605e-17
6.75547e-33
-1.8068e-17
-4.48987e-18
0
-2.6995e-17
3.68666e-25
2.53732e-18
3.78938e-09
-3.04168e-13
5.09479e-12
3.85189e-09
5.07549e-18
3.04164e-13
-7.57877e-09
-7.68143e-09
7.60416e-13
1.76915e-33
4.63958e-18
-8.72512e-18
-1.901e-19
6.91662e-20
0
4.47864e-18
-1.34543e-17
6.60759e-20
-1.43749e-18
1.95853e-12
6.52853e-13
0
1.71168e-08
1.52731e-08
-2.56159e-18
4.51897e-18
-1.58409e-18
8.32933e-35
9.66622e-18
-9.02132e-18
0
-1.35223e-18
-1.59637e-20
6.63423e-18
8.91462e-18
-1.43836e-17
-2.63062e-18
-4.46217e-18
-1.42021e-17
6.99649e-20
0
2.00068e-18
0
-1.51532e-17
-8.51666e-12
-2.43335e-12
0
-6.39358e-10
-1.50354e-08
-8.98069e-18
-2.11149e-17
1.39823e-19
1.11041e-17
6.98838e-20
-3.92155e-18
6.82187e-19
2.20471e-18
-6.64415e-18
1.67922e-17
-2.22111e-18
-2.3158e-32
-2.01734e-18
8.76451e-19
0
0
1.37151e-18
0
-9.13277e-19
2.75268e-20
4.63549e-19
7.35104e-19
4.07231e-20
1.37847e-18
-2.52732e-18
0
-7.71549e-13
2.37409e-13
1.56346e-08
0
3.16425e-08
5.39673e-20
0
-2.30979e-33
3.23257e-19
8.59225e-18
6.50658e-18
-2.75082e-17
-1.07951e-19
0
0
0
0
-2.59802e-18
-5.19603e-18
-2.03205e-17
-9.04714e-18
-6.3119e-17
4.50837e-18
-2.70159e-17
1.69798e-33
2.45984e-18
-1.35261e-17
-1.99873e-17
-2.69294e-17
1.72055e-33
2.23766e-17
-4.49112e-17
0
2.30114e-18
2.73552e-18
1.11488e-17
-1.00899e-17
1.00196e-17
-8.9854e-18
0
3.07032e-17
1.6734e-17
-1.01581e-17
1.44826e-17
-2.25275e-18
0
-2.47785e-12
-1.77731e-08
5.58882e-18
-4.15448e-12
8.44763e-11
-2.1641e-18
-1.21941e-18
1.87304e-17
5.54668e-18
-4.4465e-18
9.95256e-18
-6.71618e-18
3.95696e-24
-6.33507e-18
4.15446e-12
6.2902e-18
0
1.13427e-09
-1.43727e-19
-4.98634e-18
-1.7712e-17
0
2.98263e-18
3.30338e-18
1.44056e-19
-3.2117e-18
4.14868e-20
5.9779e-18
4.91083e-18
7.18416e-20
-1.8699e-18
2.22661e-18
6.20539e-18
1.32639e-17
0
3.04389e-18
-4.33309e-18
-3.479e-18
0
3.59995e-16
-6.88536e-20
-1.11153e-17
0
2.13859e-18
1.30474e-19
4.89595e-19
-8.8383e-18
-4.1315e-18
-4.55768e-18
1.37653e-19
-8.64876e-18
7.86012e-18
-8.92336e-32
-1.60514e-18
0
-1.70311e-16
3.22176e-34
8.63177e-19
8.21948e-19
0
0
0
0
0
0
0
0
0
0
0
0
0
0
0
0
0
0
0
0
0
0
0
0
4.70693e-18
0
-2.54853e-17
1.79685e-17
-2.7044e-17
-1.33956e-17
-1.79165e-17
-1.36736e-24
4.31084e-09
-4.11191e-09
3.70175e-09
4.93371e-13
-4.05543e-09
-2.68307e-12
9.40573e-09
-8.99219e-09
-4.93349e-13
-7.4039e-09
2.68309e-12
8.11164e-09
4.30559e-24
3.64126e-09
7.94497e-09
-7.10391e-20
1.65057e-10
2.43332e-12
1.20553e-12
-1.00367e-25
-1.51318e-08
-7.24061e-20
-2.15034e-25
1.86455e-08
4.04102e-10
-7.0626e-12
7.06258e-12
0
-7.60411e-13
-6.71738e-18
-3.28912e-10
2.01492e-17
1.4455e-19
-1.13416e-17
4.02013e-17
-1.09936e-19
-6.74301e-18
-2.82036e-26
-1.861e-08
-4.51058e-12
3.63269e-09
-7.09702e-13
-6.78896e-18
-1.93399e-15
1.75583e-17
-1.49207e-18
7.08488e-13
-7.26534e-09
2.31633e-18
2.70326e-17
-1.16045e-08
-5.17798e-20
0
-1.2585e-09
-3.19636e-20
1.18693e-13
-1.63212e-13
0
1.82143e-08
-3.56099e-13
-5.94836e-18
0
-4.70048e-18
1.50479e-33
8.76758e-22
1.54548e-18
-4.57765e-18
-5.28765e-19
1.7391e-08
6.8689e-20
0
-1.63067e-08
1.51208e-24
1.24633e-12
2.00306e-12
4.74796e-13
0
1.7835e-08
-2.4125e-09
1.92892e-13
-1.73036e-17
1.37408e-19
-9.77578e-18
-6.73764e-20
-2.58799e-18
2.43845e-18
9.87193e-19
-1.99481e-17
-1.08121e-18
4.85815e-18
-1.9401e-24
0
5.36386e-34
0
0
0
0
0
-1.35395e-17
-5.34826e-33
-2.59396e-19
7.63745e-18
1.35237e-17
-1.47755e-17
0
-2.69952e-17
-1.55522e-33
2.17173e-18
4.5346e-17
-1.51589e-17
-2.69103e-17
-7.44985e-34
2.53955e-18
1.79534e-17
-9.63053e-18
-1.81264e-17
-6.73736e-25
3.80662e-09
-1.11527e-12
1.76163e-11
3.99799e-09
1.11528e-12
-7.61436e-09
-7.92004e-09
2.23056e-12
-8.3461e-18
-6.99655e-20
0
-7.27638e-18
2.31802e-18
2.12854e-24
-7.25361e-18
1.95137e-11
5.93495e-12
0
1.84742e-08
-8.1257e-11
1.05327e-17
-2.41574e-19
-1.32447e-17
-6.99142e-20
-1.03385e-17
1.30476e-18
0
-5.24657e-18
2.0019e-18
-2.25449e-18
0
8.91781e-18
3.9808e-18
6.75935e-18
-1.83974e-18
-9.81877e-34
0
-1.45791e-17
-6.60646e-20
1.68589e-19
-5.34146e-12
-1.48373e-12
0
-3.43533e-08
-4.47532e-10
1.79439e-17
1.4999e-18
0
-2.13064e-17
0
1.22648e-18
-6.47578e-19
-3.35912e-18
1.65319e-17
-2.20331e-17
6.74117e-18
-6.96596e-20
-5.93499e-13
2.47786e-12
-1.36876e-09
0
1.77397e-08
0
3.56094e-13
0
1.24467e-08
-6.96666e-20
2.12091e-19
2.504e-18
4.82161e-18
-2.49165e-17
5.39749e-20
-4.57561e-19
2.76942e-18
-5.44639e-32
-2.17687e-18
8.76428e-19
0
-4.06928e-20
0
0
-1.51647e-18
1.61621e-18
-4.07134e-20
0
0
0
0
0
0
0
0
0
0
0
0
0
0
0
0
0
0
0
0
1.53937e-17
-2.85538e-22
-9.11782e-18
9.09742e-18
-8.96094e-18
-1.18997e-33
-1.26996e-17
1.28076e-17
2.03551e-21
1.49016e-17
0
-1.80216e-17
-1.80934e-33
1.11242e-19
1.36863e-17
-2.228e-19
-3.75056e-17
-1.41439e-19
1.3888e-17
4.38678e-09
-1.33808e-17
4.45606e-16
0
9.00534e-13
-1.56399e-15
-7.1497e-20
-4.80743e-09
-1.32523e-17
0
-5.84347e-12
1.55595e-17
-7.06673e-20
2.63878e-18
-9.01372e-13
1.30422e-19
-1.85694e-17
-8.77267e-09
2.97386e-17
0
4.66389e-12
-2.13571e-18
9.60924e-09
2.21352e-17
0
-6.02394e-18
5.47311e-18
4.44509e-18
1.13299e-17
-8.12837e-18
8.89045e-18
1.61622e-18
1.10754e-17
-3.33274e-18
0
-1.60061e-17
-8.88867e-18
7.15929e-20
-1.06828e-12
5.27566e-18
-1.90938e-08
1.52057e-33
-2.24304e-17
-1.46802e-19
3.07617e-33
-8.8793e-10
-3.62033e-12
1.4433e-33
3.05404e-18
-3.32707e-18
-1.91217e-17
7.2486e-18
-7.33767e-20
1.11171e-17
-9.80643e-19
-7.13842e-20
-7.83601e-18
-1.99102e-17
4.24513e-17
0
-1.55629e-15
2.24719e-31
6.62864e-18
4.48995e-18
0
2.6802e-17
4.3741e-18
-7.12892e-20
8.20108e-19
-7.02876e-20
8.41318e-18
4.03659e-17
-6.96831e-20
1.09964e-18
-4.557e-18
-2.54673e-18
1.09764e-18
2.79159e-09
1.3264e-24
0
-3.22062e-20
4.45113e-14
3.20488e-12
0
2.41588e-08
-1.74969e-18
-1.03119e-33
3.22157e-20
-7.90572e-19
9.31446e-19
-7.36737e-18
0
0
0
0
0
0
1.52529e-17
0
5.63416e-17
-4.18831e-18
-9.37704e-18
-8.89389e-18
-1.80601e-17
-1.68686e-24
-4.19233e-09
7.19236e-11
-9.15501e-09
1.41954e-10
2.07802e-24
1.41925e-10
3.8297e-09
5.60404e-10
-1.58756e-10
7.34934e-10
3.04544e-10
4.68613e-13
-7.68816e-09
1.76688e-12
3.61283e-10
5.25135e-27
1.79182e-08
-4.62927e-12
3.93443e-09
1.67374e-08
3.57581e-12
1.62632e-08
-1.49858e-12
-7.76361e-10
6.77855e-18
-1.09306e-19
-8.80357e-13
-7.81162e-09
-1.203e-18
4.0523e-18
-1.26169e-18
1.50326e-17
7.10435e-20
4.79714e-09
-5.93497e-12
4.35972e-12
-1.30153e-25
5.94239e-12
7.24097e-20
-6.57424e-26
1.49107e-08
-4.62927e-12
-7.09842e-20
-2.23056e-12
-6.71725e-18
-9.58764e-09
3.35404e-18
-7.22688e-20
5.3605e-18
-9.03852e-18
-1.73914e-08
0
0
1.55605e-08
1.62235e-08
0
-6.52848e-13
8.07155e-12
1.95095e-18
0
3.70324e-08
5.22808e-17
-5.34141e-13
-2.81905e-13
-1.75256e-18
0
2.14756e-18
-2.46934e-18
6.73826e-20
-5.17739e-18
3.90891e-18
2.19922e-18
-2.53928e-18
4.3091e-18
5.75686e-18
-1.20717e-18
1.1285e-08
1.03559e-19
0
0
1.18693e-13
-1.825e-12
0
-4.7009e-09
-8.16284e-18
-5.17897e-20
0
7.16884e-20
4.3611e-19
-6.57584e-18
3.05333e-24
0
3.94576e-34
0
0
0
0
0
0
0
0
0
0
0
0
0
0
0
0
0
1.81398e-17
-4.36515e-35
-1.0307e-17
-5.14588e-18
-1.58774e-19
-1.83637e-17
1.25562e-34
3.23064e-19
-1.39226e-19
1.03067e-17
-2.72806e-17
-9.25041e-25
-4.14925e-09
1.40213e-11
1.74685e-08
-1.89918e-12
2.15142e-12
-3.13328e-08
1.39611e-10
-1.54384e-08
1.72327e-08
-9.07708e-09
1.78438e-19
1.21633e-17
1.27575e-18
2.3188e-18
2.79285e-18
-9.13106e-18
-1.17463e-12
-2.98465e-10
2.72225e-24
-4.25851e-09
4.22092e-09
1.58887e-08
1.62187e-10
1.55785e-08
-9.29263e-09
-3.33471e-12
-8.40813e-09
4.36467e-13
-3.36434e-10
-6.94307e-20
1.58245e-17
-3.38293e-12
-8.90243e-13
-1.39065e-17
0
-1.77259e-08
-3.29761e-11
0
-1.33934e-17
0
1.1103e-17
-9.00567e-34
2.94694e-18
-6.22288e-19
3.3399e-18
-1.84812e-17
4.76755e-18
5.47389e-24
0
-6.7439e-18
1.00372e-17
7.63178e-18
6.86034e-20
0
-1.79901e-18
-1.56055e-17
-1.45321e-19
9.6002e-18
-1.18698e-12
0
1.47499e-08
3.69418e-18
2.66399e-17
1.04632e-17
-6.85695e-20
1.94923e-19
-2.44682e-17
-7.2459e-20
1.23089e-18
3.34551e-18
-8.41407e-18
9.69162e-20
8.76127e-18
-5.32064e-20
1.0683e-12
-1.75027e-08
0
-1.43664e-19
0
-1.83646e-17
1.21596e-17
1.06403e-19
-9.41879e-19
-1.24917e-17
1.3889e-33
-3.55578e-17
4.88124e-18
-1.36768e-19
-2.37407e-13
1.40956e-12
-9.87214e-10
0
1.57622e-08
-3.97366e-25
-3.56092e-13
0
-1.00302e-08
6.83717e-20
1.46176e-19
5.99086e-18
1.46488e-17
-1.89816e-17
0
3.46476e-19
-8.75873e-18
0
0
0
0
0
0
5.63856e-17
9.09742e-18
1.806e-17
-1.80522e-17
-9.11782e-18
5.76649e-34
1.26999e-17
1.00673e-17
2.29547e-17
-3.61782e-17
8.99815e-32
-1.76713e-17
-6.47558e-35
-2.92601e-18
-1.68232e-21
0
9.66666e-19
0
4.60628e-09
3.69575e-12
7.77562e-18
-6.88375e-22
-4.50581e-18
-8.89079e-18
7.93433e-18
-4.92245e-18
-2.99097e-12
-9.20918e-09
7.77723e-18
0
1.71171e-19
-8.88872e-18
9.45838e-18
5.56552e-18
-7.07213e-20
9.37725e-12
-1.57305e-10
-1.32775e-17
1.81621e-08
0
-1.01439e-12
8.63479e-17
0
-2.00985e-17
0
1.89316e-17
4.62712e-25
6.96324e-18
1.01389e-12
-1.22682e-17
-1.81924e-17
3.139e-10
1.41693e-17
7.13795e-20
-1.13191e-17
1.77284e-17
7.13836e-20
-9.02114e-12
-1.12056e-17
-1.85619e-08
0
9.21727e-17
6.97194e-20
-2.3281e-19
-4.56992e-12
0
2.51196e-18
-1.7994e-08
7.34065e-20
1.42438e-12
2.41849e-12
-6.54722e-34
-9.24333e-10
1.63519e-08
1.42572e-19
1.37222e-18
1.1133e-18
-4.69908e-18
1.62903e-17
-6.9672e-20
0
-1.33093e-18
3.64249e-18
7.51619e-18
-7.33723e-20
-1.77823e-18
1.17661e-18
6.01673e-18
-4.58702e-19
2.52079e-24
1.61727e-12
-3.13641e-34
1.43167e-08
-7.15709e-20
-1.18656e-18
4.44985e-18
-7.87651e-09
-3.32797e-25
0
-6.44039e-20
5.935e-14
-5.78658e-13
0
1.19166e-10
2.79272e-09
1.89569e-24
-1.69712e-24
-6.82518e-13
-8.66754e-19
2.52263e-18
0
0
0
0
0
0
0
0
0
0
0
0
0
0
2.5436e-17
1.3253e-18
5.6125e-17
-1.28396e-19
-2.6892e-17
-4.12707e-18
1.88606e-19
-3.02821e-25
-1.53532e-17
-3.7714e-09
2.111e-17
-8.22835e-09
-5.80202e-34
1.78642e-17
-1.76922e-17
5.72695e-20
-1.95853e-12
-1.52825e-12
6.99346e-18
-1.41978e-19
-1.18693e-13
-2.65589e-12
1.25629e-10
0
1.19528e-08
-1.39388e-08
0
4.49736e-09
1.32103e-17
0
1.10787e-12
-1.44164e-17
0
1.73034e-08
-1.78472e-08
-1.4197e-19
-2.22504e-18
2.68196e-18
5.72755e-20
-1.27038e-18
-6.62793e-19
6.06935e-18
-7.85601e-18
-2.44562e-17
-3.64087e-18
-8.23611e-18
-1.50668e-17
1.31701e-19
-1.11528e-12
6.60498e-18
-8.99418e-09
-1.66034e-17
7.18788e-20
-5.28213e-12
4.65875e-09
-4.63974e-18
-6.71393e-10
0
3.51366e-12
2.3416e-17
7.10892e-20
2.33223e-18
0
-6.20904e-22
-5.24878e-26
-2.39776e-18
-3.51275e-12
-3.51672e-18
2.3399e-17
-9.31585e-09
5.86855e-18
0
-4.78207e-18
5.99682e-20
-4.41299e-20
5.4474e-18
-9.94104e-13
-7.47327e-18
0
-7.52969e-09
-6.81023e-20
2.34801e-17
0
-2.58738e-17
4.41396e-20
1.74469e-18
2.25921e-18
-9.86237e-18
-6.44037e-18
0
9.38533e-18
-3.52926e-17
-4.49618e-20
0
2.49456e-16
7.06266e-18
6.89309e-34
-9.38675e-18
2.30118e-18
-4.61753e-26
0
-1.24141e-34
3.36791e-24
0
5.63263e-34
0
0
0
0
0
0
0
1.77594e-17
1.13417e-34
1.0307e-17
1.03032e-17
1.80474e-17
1.58774e-19
1.03067e-17
-1.81871e-17
-2.42281e-34
4.0362e-18
-1.83637e-17
-6.01936e-25
-5.21534e-18
-4.25843e-09
4.22051e-09
1.5888e-08
-6.61501e-12
1.55794e-08
-1.73161e-17
-9.29263e-09
-3.22342e-12
-8.40804e-09
2.43113e-18
1.76567e-17
-2.50918e-34
3.62527e-19
-4.57145e-16
2.22564e-13
-2.37398e-12
-1.46889e-08
-1.0354e-11
-1.54393e-08
-1.7233e-08
-1.3496e-18
3.81598e-18
2.38977e-18
-2.56653e-18
-4.32609e-19
-7.8395e-18
4.48026e-18
9.03035e-18
8.24504e-18
6.8605e-20
0
-4.5958e-18
-2.85466e-18
-1.42825e-32
1.1692e-17
1.13212e-17
0
-3.52455e-16
2.00238e-17
1.42622e-18
7.10991e-20
0
1.23719e-17
1.33299e-17
-1.83052e-17
-1.34253e-17
1.14441e-17
1.71957e-34
-1.45574e-17
-6.0785e-18
0
4.05991e-18
-4.7874e-18
-4.47216e-18
7.60847e-20
1.94056e-19
-7.10608e-20
1.5765e-17
3.2927e-18
-4.96265e-18
-8.97085e-18
2.07825e-31
9.71978e-19
-1.09658e-18
0
1.70476e-16
1.68498e-15
6.94067e-20
-4.52098e-18
-1.11751e-18
-7.39118e-18
-2.22691e-17
6.8382e-20
-4.15446e-13
8.30903e-13
-9.86673e-10
0
1.60426e-08
-4.46119e-20
-1.78044e-13
7.18167e-20
-2.86362e-12
-6.52834e-13
0
-1.00271e-08
0
-1.75034e-08
-1.61421e-08
-1.463e-33
-2.44217e-18
3.503e-18
3.51612e-18
-3.32746e-17
4.46251e-20
3.70867e-19
1.43615e-19
-1.53336e-18
3.65933e-18
-5.71885e-18
1.29546e-18
-1.34544e-17
-5.32099e-20
0
5.32041e-20
0
0
0
0
0
0
0
0
0
0
0
2.29138e-17
-2.69912e-34
1.55998e-19
5.05662e-18
1.83224e-17
6.25677e-19
-3.95526e-17
-8.415e-18
5.52286e-34
2.61905e-17
1.84409e-17
2.02062e-17
-4.5874e-17
0
-3.07428e-17
-2.01789e-12
-3.68065e-10
8.89775e-18
-2.67074e-12
1.54932e-08
-1.34846e-17
2.10447e-17
-5.05094e-18
1.02112e-17
1.44972e-17
-3.17638e-18
1.90534e-17
-4.43649e-18
0
4.46347e-18
-2.67721e-17
5.84955e-24
-8.54451e-25
-9.84883e-19
5.89286e-17
0