/*--------------------------------*- C++ -*----------------------------------*\
| =========                 |                                                 |
| \\      /  F ield         | OpenFOAM: The Open Source CFD Toolbox           |
|  \\    /   O peration     | Version:  5.x                                   |
|   \\  /    A nd           | Web:      www.OpenFOAM.org                      |
|    \\/     M anipulation  |                                                 |
\*---------------------------------------------------------------------------*/
FoamFile
{
    version     2.0;
    format      ascii;
    class       volScalarField;
    location    "1";
    object      nut;
}
// * * * * * * * * * * * * * * * * * * * * * * * * * * * * * * * * * * * * * //

dimensions      [0 2 -1 0 0 0 0];

internalField   nonuniform List<scalar> 
12160
(
9.73351e-10
9.5122e-10
1.85539e-07
9.86854e-10
1.12392e-07
1.41032e-07
9.93841e-10
5.70872e-08
1.25515e-07
5.93941e-08
1.00498e-09
9.41366e-08
5.31704e-08
5.09094e-08
4.23326e-08
9.89543e-10
2.25161e-07
5.42526e-08
4.23473e-08
4.45713e-08
1.92658e-08
9.86159e-10
1.23658e-07
6.53471e-08
4.86486e-08
3.06923e-08
2.70362e-08
1.77095e-08
9.90275e-10
1.08436e-07
7.37211e-08
6.01404e-08
2.71502e-08
2.85069e-08
1.48767e-08
4.87266e-09
1.01759e-09
4.90736e-08
8.483e-08
5.52434e-08
2.96904e-08
2.47589e-08
1.53574e-08
6.01171e-09
3.83443e-09
1.0698e-09
2.6352e-08
4.63375e-08
4.91351e-08
3.40239e-08
2.37989e-08
1.68026e-08
1.3134e-08
4.62307e-09
5.00204e-09
1.15167e-09
1.78731e-08
2.56218e-08
3.11581e-08
3.33745e-08
2.57604e-08
1.74747e-08
2.18519e-08
3.88883e-09
8.90756e-09
2.75047e-09
1.26706e-09
1.41239e-08
1.77726e-08
2.0337e-08
2.53645e-08
2.61219e-08
1.70047e-08
1.42829e-08
7.24733e-09
7.59204e-09
3.17981e-09
2.17239e-09
1.42156e-09
1.23873e-08
1.41359e-08
1.49601e-08
1.85148e-08
1.99755e-08
1.67358e-08
7.62713e-09
1.43651e-08
7.4046e-09
5.66783e-09
6.58792e-09
1.18803e-08
1.62285e-09
1.16795e-08
1.24442e-08
1.23067e-08
1.4584e-08
1.54022e-08
1.55179e-08
5.70001e-09
6.30604e-09
6.33297e-09
4.55362e-09
8.89511e-09
4.20558e-09
3.12487e-09
1.88184e-09
1.15997e-08
1.17684e-08
1.10713e-08
1.24267e-08
1.22542e-08
1.27741e-08
4.79543e-09
4.02481e-09
5.97443e-09
3.08854e-09
1.24211e-08
9.08778e-09
7.29529e-09
3.47037e-09
2.21439e-09
1.19605e-08
1.17176e-08
1.06251e-08
1.14272e-08
1.04382e-08
1.03561e-08
4.36163e-09
3.03639e-09
5.20189e-09
3.18308e-09
4.92584e-09
4.83292e-09
1.39496e-08
8.27339e-09
2.64388e-09
1.2666e-08
1.21084e-08
1.06914e-08
1.11492e-08
9.60927e-09
9.35453e-09
4.23604e-09
2.49095e-09
3.50855e-09
4.53117e-09
2.62731e-09
5.01823e-09
6.26358e-09
1.19031e-08
3.20672e-09
1.3658e-08
1.28509e-08
1.11364e-08
1.13743e-08
9.39344e-09
9.25658e-09
4.30953e-09
2.14756e-09
2.65271e-09
6.10282e-09
1.87997e-09
4.78372e-09
1.08345e-08
7.82442e-09
3.96323e-09
1.48879e-08
1.38927e-08
1.18951e-08
1.19902e-08
9.56564e-09
9.6644e-09
4.44169e-09
1.91582e-09
2.28663e-09
6.36548e-09
1.45394e-09
4.8065e-09
2.02719e-08
1.6013e-08
5.02119e-09
1.62911e-08
1.5186e-08
1.29308e-08
1.29504e-08
1.00414e-08
1.0451e-08
4.54146e-09
1.73581e-09
2.29227e-09
4.8269e-09
1.06719e-09
5.58466e-09
7.33366e-09
2.04571e-08
6.59092e-09
1.77713e-08
1.667e-08
1.42105e-08
1.42323e-08
1.07851e-08
1.15703e-08
4.58403e-09
1.59451e-09
2.89875e-09
2.4536e-09
8.51103e-10
5.36559e-09
4.57747e-09
6.05759e-09
9.1225e-09
1.91975e-08
1.8253e-08
1.56861e-08
1.58179e-08
1.17838e-08
1.30085e-08
4.57913e-09
1.51443e-09
4.81686e-09
1.17668e-09
8.7698e-10
5.45268e-09
4.20428e-09
4.09837e-09
1.35781e-08
2.04155e-08
1.97993e-08
1.7276e-08
1.76748e-08
1.30253e-08
1.47803e-08
4.55049e-09
1.52605e-09
6.45575e-09
9.68983e-10
1.03507e-09
5.92215e-09
4.98912e-09
4.97298e-09
2.01336e-08
2.12603e-08
2.11264e-08
1.88513e-08
1.97316e-08
1.44819e-08
1.69246e-08
4.53873e-09
1.65251e-09
4.59187e-09
1.03376e-09
1.34834e-09
7.24289e-09
7.52445e-09
5.7948e-09
1.9096e-08
2.15987e-08
2.20527e-08
2.02336e-08
2.18476e-08
1.60919e-08
1.94963e-08
4.58232e-09
1.89023e-09
3.57794e-09
1.13317e-09
1.90959e-09
9.53481e-09
1.52573e-08
9.0246e-09
1.2719e-08
2.13815e-08
2.24281e-08
2.12216e-08
2.37863e-08
1.7738e-08
2.25395e-08
4.73272e-09
2.27059e-09
3.13763e-09
1.27369e-09
2.84139e-09
1.20583e-08
2.86468e-08
2.06407e-08
8.77186e-09
2.06707e-08
2.21911e-08
2.16385e-08
2.5235e-08
1.92333e-08
2.60209e-08
5.0734e-09
2.83539e-09
2.87224e-09
1.47688e-09
4.23024e-09
1.34932e-08
2.37475e-08
8.31692e-08
6.50206e-09
1.95882e-08
2.14124e-08
2.14077e-08
2.58784e-08
2.03396e-08
2.96845e-08
5.76919e-09
3.58982e-09
2.98207e-09
1.78377e-09
6.17616e-09
1.46855e-08
1.98063e-08
4.10048e-08
5.07377e-09
1.82866e-08
2.02353e-08
2.0601e-08
2.55577e-08
2.08323e-08
3.2867e-08
7.21677e-09
4.40167e-09
3.28754e-09
2.24043e-09
8.92956e-09
1.60232e-08
1.90965e-08
2.82687e-08
4.10159e-09
1.69136e-08
1.88259e-08
1.93837e-08
2.43928e-08
2.05991e-08
3.4502e-08
1.06606e-08
4.95805e-09
3.80581e-09
2.93634e-09
1.29967e-08
1.7646e-08
1.98893e-08
2.57477e-08
3.40142e-09
1.55712e-08
1.73437e-08
1.79454e-08
2.26744e-08
1.97072e-08
3.38266e-08
2.14952e-08
5.10973e-09
4.59131e-09
4.04639e-09
1.94216e-08
2.02422e-08
2.13729e-08
2.62299e-08
2.87648e-09
1.43308e-08
1.59122e-08
1.64553e-08
2.07113e-08
1.83867e-08
3.12363e-08
2.47176e-08
5.0399e-09
5.68902e-09
5.97157e-09
2.90851e-08
2.48206e-08
2.37084e-08
2.8191e-08
2.47147e-09
1.32341e-08
1.46031e-08
1.50285e-08
1.87466e-08
1.68646e-08
2.78138e-08
1.19461e-08
5.02229e-09
6.87182e-09
1.00712e-08
4.2875e-08
3.2796e-08
2.7851e-08
3.16229e-08
2.15242e-09
1.23e-08
1.34522e-08
1.3732e-08
1.6922e-08
1.53277e-08
2.43759e-08
7.95964e-09
5.06274e-09
6.94537e-09
2.5886e-08
5.63903e-08
4.80266e-08
3.57845e-08
3.77991e-08
1.8973e-09
1.15339e-08
1.24739e-08
1.25977e-08
1.53024e-08
1.38912e-08
2.13091e-08
6.31908e-09
4.91265e-09
5.82234e-09
2.80366e-08
5.66608e-08
8.20808e-08
4.9332e-08
4.93847e-08
1.69115e-09
1.09356e-08
1.16716e-08
1.16358e-08
1.39078e-08
1.26123e-08
1.86995e-08
5.52158e-09
4.43831e-09
4.76797e-09
1.05312e-08
5.21281e-08
1.36004e-07
6.7144e-08
7.63141e-08
1.5234e-09
1.05037e-08
1.1044e-08
1.0845e-08
1.27352e-08
1.1511e-08
1.65139e-08
5.10954e-09
3.75766e-09
3.99898e-09
6.23822e-09
4.67225e-08
9.96857e-08
7.48836e-08
1.57767e-07
1.38635e-09
1.02425e-08
1.05894e-08
1.02189e-08
1.17716e-08
1.05872e-08
1.46879e-08
4.9e-09
3.09384e-09
3.47302e-09
4.2743e-09
3.54139e-08
5.90895e-08
6.66886e-08
4.77545e-07
1.27417e-09
1.01606e-08
1.03078e-08
9.75103e-09
1.10017e-08
9.83101e-09
1.31597e-08
4.80468e-09
2.56284e-09
3.14075e-09
3.16228e-09
2.55305e-08
3.88944e-08
5.22602e-08
1.72417e-07
1.18321e-09
1.02944e-08
1.02038e-08
9.43791e-09
1.04118e-08
9.22889e-09
1.18788e-08
4.77389e-09
2.17571e-09
2.9668e-09
2.47178e-09
1.8728e-08
2.83341e-08
3.90101e-08
8.82755e-08
1.07727e-08
1.0698e-09
1.03088e-08
9.27957e-09
9.99142e-09
8.76727e-09
1.08074e-08
4.77592e-09
1.90575e-09
2.94261e-09
2.01656e-09
1.36358e-08
2.23196e-08
2.99372e-08
5.5778e-08
1.07418e-08
1.20271e-08
9.64774e-10
9.29759e-09
9.73426e-09
8.43609e-09
9.91699e-09
4.78839e-09
1.72311e-09
3.13545e-09
1.70214e-09
1.00366e-08
1.86269e-08
2.41294e-08
4.03886e-08
9.5648e-09
1.18501e-08
1.6379e-08
9.18415e-10
9.65554e-09
8.23446e-09
9.19054e-09
4.79075e-09
1.60404e-09
3.4258e-09
1.4798e-09
7.48526e-09
1.62052e-08
2.06591e-08
3.23485e-08
9.82207e-09
1.02408e-08
1.51601e-08
2.7806e-08
9.18871e-10
8.17809e-09
8.62286e-09
4.76902e-09
1.54298e-09
4.00865e-09
1.32441e-09
5.5945e-09
1.45121e-08
1.8417e-08
2.74535e-08
8.30016e-09
1.02357e-08
1.20856e-08
2.04195e-08
1.92243e-08
9.8345e-10
8.23726e-09
4.71599e-09
1.5325e-09
5.09385e-09
1.21123e-09
4.17149e-09
1.31676e-08
1.6794e-08
2.43355e-08
8.07351e-09
8.60932e-09
1.12805e-08
1.40965e-08
1.53481e-08
8.27389e-09
9.82299e-10
4.63367e-09
1.55704e-09
5.77065e-09
1.1203e-09
3.09451e-09
1.19804e-08
1.55183e-08
2.21448e-08
4.56709e-09
7.87487e-09
9.47374e-09
1.21889e-08
1.21296e-08
8.07738e-09
4.15354e-09
1.5915e-09
1.60887e-09
4.42805e-09
1.04611e-09
2.28041e-09
1.09364e-08
1.45738e-08
2.05247e-08
1.69949e-09
4.42532e-09
8.11998e-09
1.00411e-08
1.0972e-08
7.98458e-09
5.88226e-09
2.47498e-09
7.19017e-10
3.11279e-09
9.89287e-10
1.71637e-09
1.00395e-08
1.41427e-08
1.95137e-08
2.33951e-09
1.83436e-09
4.3285e-09
8.93095e-09
9.42918e-09
8.78351e-09
7.31889e-09
3.46259e-09
3.63651e-09
6.62415e-10
9.74198e-10
1.34614e-09
8.96985e-09
1.45363e-08
1.93822e-08
1.28113e-09
1.92068e-09
2.05241e-09
4.34824e-09
8.80726e-09
8.77162e-09
9.96699e-09
4.79683e-09
1.26618e-08
4.86823e-09
4.55063e-10
1.11349e-09
7.56556e-09
1.58553e-08
2.07899e-08
9.63349e-10
2.59172e-09
1.87994e-09
2.24619e-09
4.5428e-09
8.17866e-09
9.89922e-09
7.56383e-09
1.53874e-08
3.61986e-08
3.98433e-09
7.04485e-10
5.93742e-09
1.89134e-08
2.51601e-08
5.43446e-09
8.20537e-10
5.12705e-09
2.09515e-09
2.4975e-09
4.87519e-09
8.78823e-09
1.46067e-08
9.99513e-09
9.02139e-08
1.72864e-08
7.52462e-09
1.03965e-09
2.2426e-10
1.72142e-08
4.08495e-08
1.17279e-08
4.92635e-09
7.88058e-10
4.81476e-09
2.52555e-09
2.88926e-09
5.82252e-09
1.30127e-08
9.03692e-09
1.86391e-08
2.71044e-08
2.10258e-08
9.12115e-10
1.02742e-09
1.29583e-09
2.06701e-10
4.68729e-08
1.77473e-08
7.91977e-09
3.37087e-09
1.00625e-09
4.61702e-09
3.4121e-09
3.70703e-09
8.23851e-09
8.85915e-09
7.68287e-09
2.18558e-08
2.87048e-08
1.22693e-09
1.15726e-09
1.61374e-09
1.08434e-09
1.54831e-09
2.03271e-10
9.11818e-09
5.4702e-09
3.4254e-09
1.30067e-09
5.10475e-09
4.15311e-09
5.22962e-09
7.31044e-09
3.85269e-09
1.21726e-08
2.4097e-08
1.72092e-09
1.32428e-09
1.59713e-09
2.09466e-09
1.73409e-09
1.34804e-09
1.99403e-09
2.00801e-10
5.86452e-09
4.03539e-09
5.02268e-09
1.51994e-09
3.18401e-09
3.85293e-09
4.45296e-09
3.27805e-09
4.9384e-09
1.73671e-08
2.62842e-09
1.98897e-09
1.80583e-09
2.30787e-09
3.17252e-09
2.42526e-09
2.13271e-09
1.74924e-09
2.3491e-09
2.04306e-10
4.45081e-09
3.71971e-09
6.55656e-09
1.82755e-09
2.07822e-09
3.51862e-09
2.92763e-09
2.39278e-09
8.19841e-09
3.57228e-09
3.18471e-09
2.25121e-09
2.58541e-09
2.55965e-09
8.42298e-09
5.26424e-09
3.39396e-09
2.62641e-09
2.10515e-09
2.08887e-09
2.13185e-10
3.16201e-09
4.17234e-09
7.15734e-09
2.72977e-09
1.80324e-09
3.4141e-09
2.3434e-09
3.16436e-09
3.57418e-09
4.01454e-09
2.73972e-09
2.94384e-09
2.81283e-09
4.32968e-09
6.38673e-10
1.94883e-08
6.41234e-10
6.00498e-10
6.02433e-10
9.13884e-09
4.75472e-09
3.31797e-09
2.39414e-09
1.71556e-09
2.22471e-10
3.65184e-09
5.6689e-09
9.65619e-09
6.97348e-09
2.23988e-09
3.0726e-09
2.29251e-09
2.76692e-09
3.43296e-09
3.31405e-09
3.13231e-09
3.5569e-09
3.485e-09
1.15731e-08
8.48351e-10
1.01646e-09
1.88697e-08
8.5052e-10
1.01708e-09
1.01779e-09
1.02315e-09
8.88486e-10
8.93665e-10
1.97667e-08
6.80103e-09
3.92719e-09
2.57123e-09
1.45143e-09
2.4133e-10
4.91404e-09
8.14117e-09
2.37709e-08
7.63413e-09
3.11257e-09
2.71018e-09
2.8103e-09
2.73701e-09
3.55949e-09
3.28225e-09
4.79378e-09
3.57885e-09
6.41606e-09
7.83323e-10
7.86585e-10
6.73246e-10
6.73484e-10
1.4193e-09
1.50671e-09
1.78073e-08
1.80685e-08
1.42598e-09
2.16295e-09
2.16788e-09
1.52135e-09
1.30682e-09
1.31802e-09
1.81343e-08
8.40958e-09
4.40778e-09
2.66033e-09
1.36438e-09
2.63962e-10
6.83396e-09
9.80431e-09
2.21267e-08
4.44742e-09
2.2927e-09
3.15107e-09
2.8372e-09
3.20297e-09
3.51929e-09
4.94501e-09
4.14567e-09
5.17705e-09
5.40503e-10
5.4017e-10
5.09644e-10
5.09862e-10
1.05414e-09
1.05698e-09
8.9206e-10
8.92975e-10
2.68552e-09
3.70442e-09
1.19651e-09
2.83972e-09
1.09344e-09
1.80241e-08
2.09327e-08
6.81763e-09
6.71439e-09
1.35337e-08
1.36937e-08
2.7188e-09
4.99256e-09
4.99708e-09
3.43941e-09
1.20221e-09
2.89192e-09
1.12747e-09
6.03369e-09
8.58068e-10
5.02021e-09
8.41902e-10
5.69303e-09
8.56765e-10
5.30294e-09
8.57333e-10
1.54144e-08
8.59545e-09
4.92343e-09
2.73928e-09
1.45989e-09
2.9772e-10
8.6123e-09
8.95833e-09
1.27883e-08
3.33758e-09
1.30498e-09
3.65169e-09
3.42192e-09
3.77195e-09
3.71679e-09
5.54472e-09
5.05918e-09
4.70095e-10
4.70418e-10
4.71141e-10
4.71599e-10
7.91063e-10
7.90867e-10
7.36365e-10
7.37151e-10
7.37114e-10
1.08962e-09
2.84122e-09
6.72568e-10
3.53709e-09
2.46991e-09
1.05322e-09
7.41572e-10
2.81281e-09
6.78376e-10
3.43448e-09
2.73884e-09
5.88455e-10
3.23991e-09
5.85364e-10
3.2116e-09
5.89102e-10
3.21094e-09
5.89553e-10
3.08859e-09
2.21919e-09
2.33068e-09
2.96054e-09
3.87123e-09
3.97671e-09
1.5091e-09
3.06027e-09
1.24631e-09
1.71812e-08
2.55729e-08
4.62459e-09
4.55562e-09
5.47034e-09
5.36982e-09
4.72578e-09
4.60916e-09
6.32688e-09
6.28795e-09
2.2852e-09
2.24366e-09
3.17871e-09
3.83574e-09
2.81465e-09
5.13255e-09
2.11545e-09
4.00273e-09
2.86814e-09
4.92357e-09
2.14178e-09
4.06291e-09
3.87733e-09
1.52034e-09
3.12235e-09
1.2709e-09
4.1867e-09
1.02403e-09
4.1987e-09
1.02904e-09
1.52256e-08
9.33555e-09
5.86236e-09
3.21146e-09
1.68493e-09
3.4161e-10
8.98764e-09
9.57863e-09
9.61412e-09
3.24045e-09
8.9374e-10
4.56407e-09
4.35608e-09
3.49276e-09
4.92527e-09
4.94979e-09
4.83339e-10
4.83645e-10
4.73116e-10
4.74028e-10
6.90019e-10
6.91472e-10
7.0091e-10
7.02942e-10
5.29318e-10
2.68465e-09
5.28728e-10
2.70568e-09
5.26128e-10
2.75942e-09
5.24968e-10
2.78074e-09
5.02629e-10
2.63852e-09
5.10065e-10
2.57705e-09
4.97469e-10
2.78349e-09
5.0555e-10
2.70516e-09
1.26048e-09
7.41905e-10
3.28364e-09
2.58037e-09
7.00247e-10
3.75849e-09
1.25308e-09
7.4922e-10
2.6965e-09
3.2019e-09
7.07789e-10
3.60544e-09
6.41984e-10
3.33659e-09
6.40618e-10
3.40486e-09
6.41841e-10
3.31323e-09
6.441e-10
3.27983e-09
3.61165e-09
2.53328e-09
3.96555e-09
3.1359e-09
4.42204e-09
1.62294e-09
3.48902e-09
1.43576e-09
1.66646e-08
3.08224e-08
4.27177e-09
4.26332e-09
4.34427e-09
4.30385e-09
4.30497e-09
4.22632e-09
4.29257e-09
4.18787e-09
2.15728e-09
1.57704e-08
2.19906e-09
1.19044e-08
2.16979e-09
1.94444e-08
2.3015e-09
1.65866e-08
2.99809e-09
6.17937e-09
5.79222e-09
2.36956e-09
7.74782e-09
3.46609e-09
3.38336e-09
6.01074e-09
7.51098e-09
2.55964e-09
1.01397e-08
3.39487e-09
3.57764e-09
2.52097e-09
4.01094e-09
3.20811e-09
5.37366e-09
3.43332e-09
5.21962e-09
3.44286e-09
4.29824e-09
1.63563e-09
3.53051e-09
1.44824e-09
3.67412e-09
1.23392e-09
3.63203e-09
1.23453e-09
1.67839e-08
1.22984e-08
7.47351e-09
4.40661e-09
1.98737e-09
4.00618e-10
9.78367e-09
9.56793e-09
8.95379e-09
2.57214e-09
7.47449e-10
5.82511e-09
4.53032e-09
5.33479e-09
4.70958e-09
4.86443e-10
4.86797e-10
4.45498e-10
4.4549e-10
6.8174e-10
6.82076e-10
6.74237e-10
6.75789e-10
4.7417e-10
2.48427e-09
4.72031e-10
3.08086e-09
4.69912e-10
2.61056e-09
4.69216e-10
3.19012e-09
4.70118e-10
3.16471e-09
4.56792e-10
3.07484e-09
4.66118e-10
3.36663e-09
4.54171e-10
3.21308e-09
6.04635e-10
2.73587e-09
6.09963e-10
2.77105e-09
6.00433e-10
2.80909e-09
6.06491e-10
2.81513e-09
5.82063e-10
2.58378e-09
5.79933e-10
2.53594e-09
5.75811e-10
2.70317e-09
5.74941e-10
2.62917e-09
4.35714e-09
2.49357e-09
4.82577e-09
3.75178e-09
1.69735e-08
3.12961e-08
4.67616e-09
4.72724e-09
4.40566e-09
4.42998e-09
4.39692e-09
4.42137e-09
4.3464e-09
4.31268e-09
2.45697e-09
1.48644e-08
2.35978e-09
1.98042e-08
2.39967e-09
1.71045e-08
2.3175e-09
2.39512e-08
2.23465e-09
2.21199e-08
2.28309e-09
2.18921e-08
2.22228e-09
2.58538e-08
2.2461e-09
2.53406e-08
2.20918e-09
8.98078e-09
2.08574e-09
1.00034e-08
2.18794e-09
7.53321e-09
2.11027e-09
7.92491e-09
4.29385e-09
2.28167e-09
1.01572e-08
5.14102e-09
2.07088e-09
1.00959e-08
4.61712e-09
2.50172e-09
7.77862e-09
6.02334e-09
2.15007e-09
7.60973e-09
4.34665e-09
2.46448e-09
4.93845e-09
3.74022e-09
5.52722e-09
3.67359e-09
5.52961e-09
3.65035e-09
2.16077e-08
1.58962e-08
1.09664e-08
6.5225e-09
2.43053e-09
4.85879e-10
1.13114e-08
1.38385e-08
6.09104e-09
2.25319e-09
8.42852e-10
4.00691e-09
5.9908e-09
7.44964e-09
7.05981e-09
6.7678e-10
6.77654e-10
5.92226e-10
5.9247e-10
8.62848e-10
8.62894e-10
8.17483e-10
8.19775e-10
5.5887e-10
2.25531e-09
5.50774e-10
2.53226e-09
5.51898e-10
2.37562e-09
5.46954e-10
2.61625e-09
5.25758e-10
2.3885e-09
5.35154e-10
2.73158e-09
5.19999e-10
2.50527e-09
5.31831e-10
2.80999e-09
5.92836e-10
2.32145e-09
5.85904e-10
2.41788e-09
2.22912e-08
3.15341e-08
6.48529e-09
6.58994e-09
5.023e-09
5.10328e-09
5.08401e-09
5.1892e-09
4.57353e-09
4.64267e-09
3.17232e-09
6.03578e-09
2.77905e-09
8.8072e-09
3.04832e-09
5.43753e-09
2.71565e-09
9.57168e-09
2.60634e-09
1.15285e-08
2.73663e-09
1.07795e-08
2.52945e-09
1.27432e-08
2.6587e-09
1.1767e-08
2.73383e-09
1.11708e-08
2.58838e-09
9.37914e-09
2.65999e-09
1.01654e-08
2.51467e-09
8.48606e-09
2.35207e-09
8.91415e-09
2.44331e-09
9.04644e-09
2.30572e-09
7.7497e-09
2.37745e-09
7.9869e-09
2.95482e-08
2.1642e-08
1.76951e-08
1.06787e-08
3.16303e-09
5.97481e-10
1.55337e-08
1.09703e-08
7.91885e-09
1.63828e-09
9.8443e-10
2.40556e-09
9.10838e-09
1.44831e-08
1.62711e-09
1.61249e-09
7.3859e-09
7.34997e-09
8.22698e-10
8.23852e-10
8.53775e-10
8.48618e-10
3.77893e-09
5.01921e-10
2.95821e-09
4.90115e-10
3.66429e-09
5.03014e-10
2.93001e-09
4.91568e-10
3.94641e-09
4.67796e-10
4.29843e-09
4.7108e-10
3.87237e-09
4.67985e-10
4.29721e-09
4.74693e-10
5.89721e-10
2.14374e-09
5.89073e-10
2.5771e-09
5.83393e-10
2.21928e-09
5.85195e-10
2.63367e-09
5.76438e-10
2.32914e-09
5.66359e-10
2.80848e-09
5.69136e-10
2.45689e-09
5.62085e-10
2.9193e-09
2.50232e-08
2.65212e-08
8.57083e-08
5.4698e-09
5.61487e-09
5.40662e-09
5.54608e-09
5.13577e-09
5.27283e-09
5.08004e-09
5.19954e-09
2.80489e-09
1.06771e-08
2.9412e-09
1.19565e-08
2.74966e-09
8.16722e-09
2.88372e-09
1.16811e-08
2.91421e-09
1.08141e-08
2.96233e-09
1.10493e-08
2.82766e-09
1.07011e-08
2.89824e-09
1.09268e-08
2.8949e-09
9.50164e-09
2.84163e-09
8.96357e-09
3.2289e-08
2.71585e-08
2.40054e-08
1.13565e-08
2.74493e-09
7.10007e-10
1.82679e-08
1.0625e-08
9.90222e-09
1.85916e-09
6.75326e-09
1.41882e-08
2.53854e-08
2.40808e-07
3.34705e-09
3.33273e-09
1.21148e-08
1.20823e-08
4.73891e-10
4.43219e-09
5.56896e-09
4.98901e-10
4.72276e-10
4.55872e-09
5.5074e-09
5.00202e-10
1.23171e-09
1.23276e-09
3.64499e-09
5.33554e-10
3.12639e-09
5.24285e-10
3.55761e-09
5.35296e-10
3.04948e-09
5.25969e-10
3.47211e-09
5.33031e-10
3.30183e-09
5.23714e-10
3.32802e-09
5.31396e-10
3.35578e-09
5.27712e-10
5.71501e-10
2.58559e-09
5.66965e-10
2.66314e-09
2.52355e-08
2.45545e-08
5.91091e-08
8.07171e-09
8.41035e-09
6.23851e-09
6.472e-09
6.79176e-09
7.04659e-09
5.08208e-09
5.25076e-09
8.34693e-09
3.16752e-09
6.31706e-09
2.99085e-09
8.64696e-09
3.13473e-09
6.55674e-09
2.95516e-09
1.41355e-08
3.10141e-09
2.77466e-08
3.00432e-09
1.49497e-08
3.09892e-09
2.11879e-08
3.0237e-09
3.19383e-09
1.22582e-08
3.16954e-09
9.66099e-09
3.11201e-09
1.15509e-08
3.09639e-09
1.01015e-08
3.08268e-09
8.62505e-09
3.11121e-09
8.77972e-09
3.01439e-09
8.85291e-09
3.05931e-09
9.0903e-09
3.75573e-08
2.73028e-08
1.15629e-08
2.66113e-09
5.38784e-10
7.47714e-08
6.95838e-09
3.87546e-09
1.65536e-08
1.31846e-07
1.0512e-07
1.52004e-06
6.58555e-08
6.59537e-08
2.02743e-07
2.03144e-07
2.22349e-09
3.45562e-08
4.25324e-09
7.39846e-08
2.21653e-09
3.40393e-08
4.24742e-09
7.34678e-08
2.31725e-08
2.31631e-08
5.42135e-10
4.04921e-09
4.20327e-09
5.53233e-10
5.39122e-10
4.21744e-09
4.20949e-09
5.53556e-10
9.74105e-10
1.38892e-08
7.02057e-10
1.10512e-08
9.74533e-10
1.45377e-08
7.01929e-10
1.05432e-08
3.23283e-09
5.5817e-10
3.60137e-09
5.3826e-10
3.20914e-09
5.54516e-10
3.772e-09
5.38125e-10
3.66104e-08
1.95434e-08
5.14037e-08
2.13455e-07
4.2235e-09
4.40589e-09
4.56904e-09
4.70284e-09
4.91016e-09
5.01981e-09
3.30122e-09
4.1315e-09
3.17635e-09
6.31381e-09
3.20425e-09
4.16675e-09
2.99561e-09
5.16066e-09
7.31601e-09
3.53519e-09
8.05038e-09
3.40394e-09
6.57868e-09
3.64674e-09
7.04859e-09
3.41543e-09
7.26476e-09
3.22976e-09
8.53776e-09
3.28206e-09
6.5199e-09
3.29787e-09
7.44884e-09
3.34451e-09
3.29061e-09
9.37572e-09
3.27546e-09
8.54107e-09
3.62627e-08
1.25539e-08
2.52306e-09
4.00682e-10
3.2426e-08
4.90088e-09
1.89402e-09
2.53235e-07
3.77579e-06
1.61811e-05
9.3851e-07
9.41779e-07
2.99474e-06
3.00688e-06
1.28437e-07
1.29119e-07
3.4206e-07
3.44704e-07
2.73969e-09
2.80073e-08
5.70754e-09
8.52215e-08
2.72251e-09
2.7267e-08
5.69048e-09
8.18261e-08
1.17561e-07
3.07141e-08
1.76115e-07
1.62814e-08
1.18032e-07
3.07643e-08
1.76295e-07
1.62879e-08
5.73444e-10
3.94998e-09
4.40089e-09
6.11564e-10
5.70304e-10
4.09784e-09
4.44545e-09
6.09973e-10
1.28179e-09
1.26718e-08
8.04028e-10
1.12331e-08
1.27208e-09
1.18924e-08
7.97278e-10
1.03171e-08
7.73251e-08
1.82243e-08
3.24731e-08
7.28282e-08
3.53987e-09
3.64472e-09
3.83147e-09
3.92593e-09
3.84749e-09
3.90871e-09
2.37353e-09
3.21357e-09
3.45912e-09
2.56693e-09
2.37061e-09
3.41272e-09
3.23869e-09
2.59101e-09
2.33725e-09
5.08819e-09
2.44669e-09
1.41565e-08
3.57304e-09
4.79815e-09
2.38296e-09
5.79694e-09
2.49057e-09
1.90305e-08
3.79556e-09
4.77395e-09
3.47027e-09
8.86135e-09
3.53982e-09
8.20111e-09
5.30705e-09
3.08464e-09
5.57914e-09
3.44263e-09
4.78038e-09
3.20139e-09
4.90248e-09
3.51051e-09
1.56614e-08
2.38374e-09
3.03358e-10
7.06289e-09
5.16454e-09
4.7212e-09
3.00944e-06
0.000166111
0.000328555
1.30157e-06
1.31963e-06
4.7131e-06
4.80258e-06
7.64439e-08
4.2111e-08
2.02901e-06
1.02692e-07
1.40086e-06
2.01984e-07
4.2225e-08
7.66598e-08
2.02617e-07
1.90223e-06
1.02691e-07
1.37334e-06
3.54069e-07
2.53944e-06
2.42436e-07
1.80905e-06
3.48831e-07
2.75702e-06
2.4226e-07
1.74232e-06
3.49652e-09
3.69825e-08
7.73179e-09
8.05453e-08
3.46581e-09
3.55751e-08
7.71045e-09
7.74027e-08
9.40553e-08
2.11199e-08
9.40304e-08
2.11219e-08
6.07462e-09
6.59242e-10
5.94632e-09
6.55109e-10
1.78088e-09
1.84436e-08
1.76019e-09
1.77685e-08
2.56845e-08
3.24294e-08
1.91208e-08
4.84452e-08
3.41319e-09
3.53154e-09
3.19069e-09
3.292e-09
3.2681e-09
3.31428e-09
3.42815e-09
3.41634e-09
6.18423e-09
3.12809e-09
2.45849e-09
1.99731e-09
3.48943e-09
3.29493e-09
7.49544e-09
3.07845e-09
2.59985e-09
2.07162e-09
3.77091e-09
4.08447e-09
2.81207e-09
7.88018e-09
2.90466e-09
6.68041e-09
3.00897e-09
8.16844e-09
2.96321e-09
2.91752e-09
5.73633e-09
7.79098e-09
3.13828e-09
6.20708e-09
2.98528e-09
3.0039e-09
4.80933e-09
6.38842e-09
2.88753e-09
6.94425e-09
2.98583e-09
5.78119e-09
2.39456e-09
2.3698e-10
4.41298e-09
3.36665e-09
1.63777e-07
8.39797e-05
0.000781743
0.000496446
0.000423357
0.00077895
0.000735599
2.07203e-06
2.05912e-06
2.11302e-05
1.99161e-05
5.33972e-08
9.61338e-08
1.148e-06
3.5454e-07
1.50965e-07
8.30736e-07
5.3446e-08
9.61999e-08
3.52951e-07
1.12649e-06
1.50638e-07
8.11327e-07
5.40455e-07
1.19256e-06
3.0584e-07
1.20857e-06
5.2167e-07
1.34752e-06
3.04822e-07
1.28929e-06
1.11883e-08
6.92435e-08
1.11532e-08
6.84245e-08
2.81695e-09
4.57143e-08
1.50284e-08
2.89907e-08
2.85555e-08
3.16514e-09
3.26088e-09
3.42129e-09
3.50855e-09
4.10689e-09
1.82592e-09
2.11903e-09
2.26726e-09
3.51521e-09
1.80328e-09
2.27995e-09
2.58352e-09
1.93922e-09
2.31829e-09
5.70006e-09
2.12887e-09
2.98916e-09
3.18354e-09
2.19771e-09
2.89513e-09
7.02393e-09
2.45043e-09
3.85609e-09
3.44226e-09
4.88805e-09
6.74103e-09
2.27172e-09
2.4935e-09
3.78182e-09
4.88442e-09
2.43277e-09
2.68865e-09
2.69577e-09
6.3895e-09
3.03127e-09
4.4e-09
3.09832e-09
5.18466e-09
2.73368e-09
5.13251e-09
3.44069e-09
3.88436e-09
2.73683e-09
4.47418e-09
1.90549e-10
2.52947e-09
2.42912e-09
4.17724e-06
0.000718099
0.0008632
0.000724923
0.000611564
0.000977401
0.000879049
3.77477e-05
5.54315e-06
9.72848e-06
2.51619e-05
1.72063e-05
3.18924e-06
4.84459e-06
1.24147e-05
0.000218028
0.000131941
1.615e-06
1.96259e-06
6.08375e-07
1.51882e-06
1.10195e-06
1.86289e-06
4.98375e-07
1.66056e-06
1.55082e-10
4.1701e-09
1.19492e-08
1.65429e-08
3.74866e-08
1.68928e-08
1.84987e-08
4.01284e-09
4.24945e-09
1.23882e-08
1.30304e-08
3.64945e-09
3.76945e-09
2.58378e-09
2.22921e-09
2.17522e-09
5.46678e-09
4.77761e-09
2.99358e-09
2.25032e-09
5.28498e-09
2.158e-09
1.9736e-09
4.33193e-09
3.86968e-09
2.44501e-09
5.22238e-09
2.45725e-09
2.20471e-09
3.2401e-09
3.17533e-09
2.68879e-09
4.19903e-09
4.45805e-09
2.30187e-09
3.47939e-09
2.48764e-09
2.69564e-09
7.69451e-09
9.08405e-05
0.000721782
0.000865053
0.000810296
0.000902108
0.000864525
0.000875015
0.000758125
0.000954345
0.000866499
2.59092e-05
1.11588e-05
1.13931e-05
3.81617e-05
1.77823e-05
5.85498e-06
6.46745e-06
2.02214e-05
0.000639617
0.000617197
0.000450944
0.000375888
0.000556093
0.000545019
0.000177058
6.82168e-05
3.77359e-06
4.34344e-06
2.24424e-06
4.00339e-06
1.34532e-10
5.05705e-09
7.09253e-09
1.95047e-08
2.2952e-08
2.29535e-09
2.47972e-09
2.6433e-09
2.78695e-09
2.75673e-09
2.85051e-09
1.78776e-09
1.91015e-09
2.53641e-09
6.69055e-09
2.13124e-09
2.31217e-09
3.63975e-09
6.65249e-09
2.17718e-09
4.17844e-09
2.46441e-09
4.51082e-09
3.08032e-09
3.12463e-09
3.2117e-09
3.02931e-09
2.83591e-09
3.33195e-07
0.000439485
0.00067283
0.00082461
0.000786237
0.000829207
0.000809668
0.000653326
0.000529589
0.000877265
0.000795515
0.000724991
0.000888315
0.000582713
0.000435008
0.000876947
0.000739542
0.000777787
0.000814182
0.000892979
0.000833242
7.60507e-05
4.46026e-05
3.06066e-05
0.000154973
1.9294e-05
1.49086e-05
1.4768e-05
4.97581e-05
0.000511355
0.000352848
0.000397499
0.000125859
1.31421e-10
3.10548e-09
6.87442e-09
2.40527e-08
8.36941e-09
8.03599e-09
5.0497e-09
4.78257e-09
8.62673e-09
9.37732e-09
2.7436e-09
2.81803e-09
3.71553e-09
1.65334e-09
1.33641e-09
2.83557e-09
1.56687e-09
2.22915e-09
3.29729e-09
1.63795e-09
1.41545e-09
3.83001e-09
2.40629e-09
2.64142e-09
1.87971e-09
4.41919e-09
2.32361e-09
3.0698e-09
1.86434e-09
3.7833e-09
2.41683e-09
2.71135e-09
3.78375e-09
2.00597e-05
0.000497505
0.000608115
0.000602383
0.00058961
0.00059009
0.000716001
0.000695174
0.00071236
0.000706623
0.000708605
0.00056382
0.000768466
0.000552835
0.000505891
0.000741264
0.000659943
0.000591854
0.0008098
0.00061787
0.000572619
0.000703073
0.000627758
0.000738944
0.000201083
0.000254494
0.000626407
0.000796744
0.000473611
0.000392554
1.34709e-10
2.61716e-09
7.27963e-09
2.88305e-08
2.16933e-09
2.22085e-09
2.64115e-09
2.71855e-09
2.56799e-09
2.65288e-09
1.98811e-09
1.90852e-09
1.60628e-09
1.29328e-09
2.47921e-09
3.78897e-09
1.54384e-09
1.359e-09
3.16118e-09
2.94936e-09
3.87402e-09
2.4735e-09
1.70685e-09
1.65774e-09
2.90315e-09
2.98136e-09
1.71465e-09
1.77804e-09
2.25015e-09
2.22372e-09
1.99838e-09
2.50163e-09
2.01882e-09
2.01567e-09
7.54371e-08
0.000317846
0.000497829
0.000519982
0.000520591
0.000514689
0.000515152
0.00024504
0.000275359
0.000547291
0.000705076
0.000524834
0.000468038
0.000340885
0.000314036
0.000549307
0.000292669
0.000449644
0.000416643
0.000574544
0.000576927
0.000128509
0.000128965
0.000165329
0.000212608
0.000106469
0.000100827
0.000318355
0.000194689
1.39505e-10
2.63033e-09
1.00519e-08
3.52123e-09
3.42738e-09
3.12158e-09
3.1103e-09
4.31811e-09
4.40265e-09
2.74165e-09
2.81493e-09
1.9181e-09
1.42424e-09
1.17227e-09
2.68477e-09
2.67787e-09
1.71477e-09
1.86233e-09
4.89492e-09
2.14722e-09
1.46292e-09
1.22396e-09
3.23157e-09
1.53887e-09
2.75888e-09
1.62951e-09
2.5297e-09
1.81374e-09
1.68758e-09
2.231e-09
2.16646e-09
4.31966e-06
0.000488243
0.000494151
0.000432178
0.000428388
0.000427576
0.00042807
0.00010525
0.000129257
0.000434042
0.000238034
0.00028429
0.000354039
4.26795e-05
9.25343e-05
0.000428802
0.000177534
0.000392743
0.000308204
0.000384268
0.000552106
0.000344079
0.000428261
0.000373857
0.000525673
0.000332914
0.000460672
3.67276e-06
1.61946e-05
4.75304e-06
1.05312e-05
1.48644e-10
2.864e-09
1.17817e-08
2.47025e-09
2.59323e-09
3.06071e-09
3.20851e-09
2.61475e-09
2.75499e-09
4.48724e-09
1.74808e-09
1.27159e-09
1.22878e-09
1.99336e-09
1.95278e-09
4.74673e-09
1.98241e-09
1.3653e-09
1.37353e-09
2.50305e-09
1.96937e-09
1.47756e-09
1.48055e-09
2.51488e-09
2.37881e-09
1.58526e-09
1.99071e-09
1.59102e-09
2.40714e-09
0.000199884
0.000584884
0.000340003
0.000389515
0.000389846
0.000340135
0.000454353
0.000453463
0.0003807
0.000347155
0.000497502
0.000374331
0.000333543
0.000456348
9.46396e-05
0.000202262
0.000394295
0.000227022
0.000338062
0.000307383
2.53689e-05
0.000125122
0.000456474
0.000216004
0.00052331
0.000310131
0.000325357
0.000373174
0.000324223
0.000378865
1.68575e-10
2.65825e-09
1.02881e-08
3.76156e-09
4.12345e-09
2.84037e-09
3.06911e-09
2.03062e-09
1.05299e-09
1.0932e-09
1.36703e-09
5.51405e-09
1.60972e-09
2.77333e-09
5.41296e-09
1.83854e-09
1.28075e-09
1.4755e-09
1.92869e-09
1.70775e-09
2.80979e-09
1.62857e-09
3.45227e-09
1.88375e-09
2.5265e-09
2.00196e-09
3.71203e-09
1.74212e-09
2.71988e-09
1.82485e-09
2.24381e-09
0.000523666
0.000624386
0.000335243
0.000325936
0.000333434
0.000325153
0.000397731
0.000396846
0.000213709
0.000271425
0.000386705
0.000298728
0.000459391
0.000333481
0.000263641
0.000518285
0.000242675
0.000209601
0.000365799
0.000278328
0.000425142
0.000337465
0.000256738
0.000508486
0.000373294
0.000289646
0.000407985
0.000290957
0.000275968
0.000334381
0.000269764
0.000332486
2.09948e-10
2.9513e-09
2.48572e-09
2.53482e-09
2.77072e-09
3.04432e-09
2.25908e-09
2.62814e-09
2.0545e-09
4.16791e-09
1.44366e-09
2.28512e-09
4.55994e-09
1.64056e-09
1.70885e-09
1.17392e-09
3.73811e-09
2.96725e-09
2.70862e-09
2.68192e-09
1.33883e-09
3.11309e-09
2.08174e-09
2.88852e-09
2.21165e-09
2.58678e-09
2.77263e-09
2.23691e-09
2.4265e-09
2.0448e-09
0.000630278
0.000587402
0.000332924
0.000418696
0.000245024
0.000385061
0.000328052
0.0004205
0.000240848
0.000379178
0.000360228
0.000359085
0.000205276
0.000204005
0.000244107
0.000304897
0.000262059
0.000236275
0.000188699
0.00020477
0.00019178
0.000294271
0.000257693
0.000233311
0.000350915
0.00027177
0.000359826
0.000254454
2.56119e-10
3.44656e-09
1.09113e-09
4.36066e-09
5.00055e-09
1.35289e-09
1.46207e-09
1.70577e-09
1.31854e-09
2.13653e-09
1.2896e-09
3.35229e-09
1.35778e-09
1.53359e-09
3.52723e-09
1.16893e-09
1.75092e-09
3.20098e-09
1.73692e-09
3.88528e-09
1.54941e-09
2.0689e-09
3.63266e-09
1.30052e-09
1.82177e-09
1.23011e-09
4.29234e-09
2.71489e-09
2.16597e-09
3.18295e-09
1.35386e-09
2.85499e-09
0.00068995
0.00042532
0.000373022
0.000374187
0.000425465
0.000464941
0.000465607
0.000255435
0.000402119
0.000218826
0.000353092
0.000225745
0.000524555
0.000229577
0.000330701
0.000493548
0.000243256
0.000423916
0.000248405
0.000406105
0.000216587
0.000348943
0.000223402
0.000507376
0.00024109
0.000329383
0.000492673
0.000241976
0.000406795
0.000207247
0.000201133
0.000257714
0.000236856
0.000197246
0.000190982
0.000252217
0.000232684
3.2576e-10
3.07191e-09
1.91644e-09
1.74195e-09
1.706e-09
5.75017e-09
2.03354e-09
1.98528e-09
8.161e-09
2.48984e-09
1.96201e-09
2.2847e-09
1.46664e-09
2.18349e-09
1.49663e-09