/*--------------------------------*- C++ -*----------------------------------*\
| =========                 |                                                 |
| \\      /  F ield         | OpenFOAM: The Open Source CFD Toolbox           |
|  \\    /   O peration     | Version:  5.x                                   |
|   \\  /    A nd           | Web:      www.OpenFOAM.org                      |
|    \\/     M anipulation  |                                                 |
\*---------------------------------------------------------------------------*/
FoamFile
{
    version     2.0;
    format      ascii;
    class       volScalarField;
    location    "1";
    object      omega;
}
// * * * * * * * * * * * * * * * * * * * * * * * * * * * * * * * * * * * * * //

dimensions      [0 0 -1 0 0 0 0];

internalField   nonuniform List<scalar> 
12160
(
0.0719999
0.0719999
0.0037023
0.0719999
0.00728435
0.00137485
0.0719999
0.0103424
0.00190285
0.00125093
0.0719999
0.0105016
0.0024647
0.00147176
0.00124581
0.0719999
0.0100312
0.00246337
0.00162623
0.00141953
0.00142344
0.0719999
0.00948854
0.00234499
0.00160714
0.00150643
0.00159158
0.00148268
0.0719999
0.00914768
0.00221515
0.00157159
0.00149758
0.00158956
0.00184454
0.00214723
0.0719999
0.00885141
0.00214343
0.00152864
0.00147983
0.0015664
0.00180864
0.00239785
0.00894038
0.0719999
0.00849595
0.00207987
0.00150399
0.00145169
0.00154558
0.0017121
0.00212733
0.00680234
0.00845627
0.0719999
0.0080045
0.00200477
0.0014745
0.00143334
0.001519
0.0016564
0.00218457
0.00534577
0.00825104
0.017839
0.0719999
0.00739013
0.00190107
0.00144341
0.00140675
0.00150093
0.00160016
0.00232182
0.00504084
0.00752714
0.00916817
0.0121285
0.0719999
0.00669821
0.00177764
0.0014024
0.00137917
0.00147464
0.00154439
0.00238932
0.00531673
0.00776799
0.00844583
0.00487116
0.00399659
0.0719999
0.00598437
0.00164778
0.00135535
0.0013441
0.00144421
0.00149343
0.00233223
0.00563412
0.00682351
0.0124281
0.00354534
0.00330888
0.0038232
0.0719999
0.0052948
0.00152466
0.0013063
0.00130519
0.00140496
0.0014495
0.00227769
0.00566023
0.00579686
0.0125466
0.00593034
0.00223177
0.00232151
0.00272671
0.0719999
0.00466077
0.00141655
0.00125941
0.00126491
0.00136063
0.00139776
0.00224031
0.00539554
0.00503847
0.0117441
0.00957995
0.00242847
0.00202207
0.00164386
0.0719999
0.00409938
0.00132673
0.00121714
0.00122616
0.00131432
0.0013424
0.00220651
0.00499121
0.00461593
0.0103322
0.0130292
0.0024744
0.00199529
0.0014851
0.0719999
0.00361722
0.001255
0.00118049
0.00119072
0.00126959
0.00128874
0.00219168
0.00457425
0.00432719
0.00899845
0.0148226
0.00247725
0.0020003
0.00151424
0.0719999
0.00321341
0.00119926
0.00114952
0.00115944
0.00122848
0.00124046
0.00219841
0.00417702
0.00392099
0.00830771
0.014654
0.00269351
0.00201969
0.00157117
0.0719999
0.00288471
0.00115682
0.00112376
0.00113251
0.00119193
0.00119874
0.00221966
0.00379356
0.00346293
0.00816582
0.0123902
0.00298286
0.00206566
0.00163763
0.0719999
0.00262459
0.00112512
0.00110268
0.00110971
0.00116021
0.00116351
0.00224553
0.00340638
0.00309285
0.00807838
0.00911508
0.00323755
0.00198719
0.0017056
0.0719999
0.00242799
0.00110188
0.00108573
0.00109075
0.00113316
0.00113412
0.0022666
0.00301253
0.00289611
0.00731582
0.00630978
0.00295497
0.00185925
0.00163239
0.0719999
0.00228907
0.00108532
0.0010724
0.00107524
0.00111052
0.00110967
0.00227428
0.00262893
0.00285658
0.00571707
0.00430801
0.00237775
0.00168174
0.00148981
0.0719999
0.00220283
0.00107409
0.00106224
0.00106279
0.00109197
0.00108933
0.00226151
0.00228134
0.00285807
0.00440521
0.00301983
0.00188812
0.00148821
0.0013713
0.0719999
0.00216425
0.00106727
0.00105492
0.00105307
0.00107709
0.00107246
0.0022206
0.00198739
0.00282118
0.00348189
0.00225542
0.00157613
0.00135382
0.00127498
0.0719999
0.00217112
0.00106425
0.00105024
0.00104587
0.00106552
0.00105848
0.00214403
0.00175839
0.00272809
0.00281493
0.00180349
0.00139433
0.00127924
0.00121867
0.0719999
0.00222176
0.00106474
0.00104807
0.00104111
0.00105703
0.001047
0.00202517
0.00159935
0.00258257
0.00232212
0.00152932
0.00128557
0.00123304
0.00119128
0.0719999
0.00231531
0.00106863
0.00104836
0.00103884
0.00105148
0.00103784
0.00185787
0.00151061
0.00240302
0.00195842
0.00135578
0.00121525
0.00119632
0.00117222
0.0719999
0.00245173
0.00107598
0.001051
0.00103909
0.00104884
0.00103114
0.00164828
0.00148529
0.00220155
0.00169059
0.00124311
0.00116566
0.00116404
0.00115029
0.0719999
0.00263135
0.00108704
0.00105589
0.00104178
0.0010491
0.00102739
0.0014152
0.00151193
0.00198096
0.00149593
0.0011688
0.00112751
0.00113506
0.00112714
0.0719999
0.00285443
0.00110222
0.00106295
0.0010467
0.0010522
0.00102758
0.00118832
0.00156495
0.00175001
0.00135387
0.00112198
0.00109601
0.0011087
0.00110457
0.0719999
0.00312084
0.0011221
0.00107216
0.00105363
0.00105788
0.00103178
0.00106396
0.00161022
0.0015235
0.0012518
0.00109522
0.00107086
0.00108402
0.00108316
0.0719999
0.00343033
0.00114736
0.00108356
0.00106247
0.00106599
0.00103863
0.00122996
0.00161344
0.00132913
0.00117602
0.00108147
0.00105251
0.00106203
0.00106282
0.0719999
0.00378218
0.00117884
0.00109721
0.00107318
0.00107642
0.00104745
0.00143129
0.00158285
0.00124315
0.00111662
0.00107315
0.00104127
0.00104475
0.00104415
0.0719999
0.0041752
0.00121742
0.00111324
0.00108579
0.00108913
0.00105796
0.00161723
0.00153338
0.00136499
0.00109675
0.00106785
0.00103647
0.00103421
0.00102895
0.0719999
0.00460686
0.00126399
0.00113176
0.00110036
0.00110413
0.00107012
0.00177088
0.00149599
0.00154823
0.00114312
0.00106556
0.00103652
0.0010294
0.00101865
0.0719999
0.00507317
0.0013193
0.0011529
0.00111696
0.00112147
0.001084
0.00188701
0.00149402
0.00173944
0.00120941
0.00106988
0.00103826
0.00102813
0.00101266
0.0719999
0.00556849
0.00138389
0.00117675
0.00113562
0.00114117
0.00109974
0.00196791
0.00153627
0.00192234
0.00129509
0.00107925
0.00104035
0.00102835
0.00100967
0.0719999
0.00608851
0.00145795
0.00120336
0.00115637
0.00116323
0.00111755
0.00201931
0.00162326
0.00208859
0.001406
0.00109318
0.00104515
0.00103079
0.00101129
0.0719999
0.00664432
0.0015418
0.00123273
0.00117915
0.00118761
0.00113761
0.00204772
0.00175202
0.00223462
0.00154757
0.00111444
0.00105485
0.0010363
0.00101508
0.00729055
0.0719999
0.00163859
0.00126499
0.00120389
0.00121421
0.00116012
0.0020589
0.00191704
0.00235883
0.00172454
0.00114765
0.00106996
0.00104594
0.00102112
0.00176076
0.00801743
0.0719999
0.00130126
0.00123059
0.00124294
0.00118529
0.00205762
0.00211046
0.00245789
0.00194284
0.00119643
0.00109002
0.00106042
0.00103041
0.00134639
0.00190846
0.00907793
0.0719999
0.00126001
0.00127376
0.0012133
0.00204792
0.00232404
0.00253052
0.00220914
0.00126404
0.00111488
0.00107893
0.00104312
0.00129587
0.00140111
0.00215138
0.00986932
0.0719999
0.00130742
0.00124441
0.00203335
0.00255062
0.00257451
0.00253062
0.00135557
0.00114373
0.00110037
0.00105884
0.00134793
0.00133898
0.00149685
0.00238809
0.0109739
0.0719999
0.00127952
0.00201722
0.0027845
0.00259672
0.00291604
0.00147957
0.00117718
0.00112356
0.00107643
0.00132281
0.00139636
0.00141462
0.00160976
0.00280381
0.0143523
0.0719999
0.00200385
0.00303183
0.00262462
0.00338531
0.00164933
0.00121745
0.00114796
0.00109517
0.00199925
0.00137808
0.00147973
0.0015025
0.00182569
0.00411305
0.0242688
0.0719999
0.00331419
0.0027025
0.00398554
0.00188764
0.00126802
0.00117385
0.00111474
0.00362239
0.00200437
0.00147537
0.00157043
0.00163849
0.00246646
0.00809812
0.0496371
0.0719999
0.00284536
0.00480819
0.00223159
0.00133477
0.00120146
0.00113501
0.00302609
0.00384584
0.00200173
0.00157468
0.00168206
0.0019446
0.00444004
0.0186241
0.0611553
0.0719999
0.00588591
0.00274395
0.00142681
0.0012313
0.00115581
0.00669331
0.00320728
0.00405682
0.00203225
0.00167039
0.00184367
0.00279225
0.00992295
0.0308
0.105199
0.0719999
0.00349163
0.00156135
0.00126351
0.00117629
0.00445943
0.00680876
0.003608
0.00423807
0.00204856
0.00176678
0.00216176
0.00533789
0.019198
0.0528369
0.0968729
0.0961274
0.00176773
0.00129894
0.00119482
0.00199989
0.00602386
0.00640283
0.00388129
0.00427693
0.00206262
0.00187143
0.00307057
0.01115
0.0345032
0.0749799
0.0917018
0.0141314
0.0568889
0.00134818
0.00120884
0.0013888
0.00234337
0.00919091
0.00615026
0.00394833
0.00407187
0.00204755
0.00213899
0.0057677
0.0212215
0.0536597
0.079222
0.0134851
0.0119917
0.012207
0.0568889
0.00122116
0.00122594
0.0014664
0.00313953
0.0124176
0.00638884
0.00401458
0.00367121
0.00205134
0.00319412
0.0114287
0.035595
0.0626649
0.0127865
0.0114934
0.0125727
0.0128444
0.0118198
0.0568889
0.00126038
0.00168656
0.0034646
0.0142607
0.00719497
0.0042438
0.0033287
0.0024065
0.00594971
0.0204443
0.0463862
0.0139536
0.011654
0.01198
0.0132221
0.0133632
0.0140704
0.0125742
0.0568889
0.00135938
0.00185079
0.00300818
0.0139906
0.00792177
0.00467488
0.00338638
0.00355105
0.0103128
0.0304697
0.014356
0.011733
0.011628
0.0124286
0.0141517
0.0140091
0.0141197
0.0154761
0.0148508
0.0568889
0.00148389
0.00193287
0.00246797
0.0121883
0.00817131
0.00524167
0.00395857
0.00537562
0.0163091
0.0123979
0.0113132
0.0113505
0.0117499
0.013155
0.0164389
0.0155401
0.0149601
0.014863
0.0168273
0.0188179
0.0568889
0.00163417
0.00201562
0.00211504
0.00908657
0.00786858
0.00571661
0.00483633
0.00766879
0.00933582
0.0102106
0.0110105
0.0111824
0.0122056
0.0143569
0.0227335
0.0195612
0.0227797
0.0214762
0.0215118
0.0175964
0.0162191
0.0156254
0.017946
0.0237595
0.0568889
0.00171821
0.00206366
0.00198602
0.00557174
0.00698107
0.00601272
0.00558862
0.00630374
0.00879154
0.0101291
0.0106916
0.0112699
0.0128449
0.017316
0.0250725
0.0264764
0.0235311
0.0251056
0.026525
0.0265352
0.0265623
0.0251523
0.0252246
0.0202344
0.0177618
0.0165565
0.019163
0.0298726
0.0568889
0.00171347
0.00206854
0.00197219
0.00348263
0.00584916
0.00630966
0.00578247
0.00687749
0.00860422
0.00988861
0.0103382
0.0115949
0.013985
0.021718
0.0217576
0.0202988
0.020304
0.0279851
0.0283807
0.0280631
0.0296678
0.0280491
0.028743
0.0287685
0.0285147
0.0274171
0.0275296
0.0231394
0.0192446
0.0175967
0.0207575
0.0368128
0.0568889
0.00165392
0.00203004
0.00202245
0.00271791
0.00544099
0.00651155
0.00637694
0.00666389
0.00853605
0.00938217
0.0104364
0.0119279
0.0177092
0.0177053
0.017171
0.0171769
0.0242029
0.0242378
0.0225299
0.0225388
0.0291031
0.0285481
0.0305597
0.0287654
0.0303616
0.0315466
0.0358875
0.0377679
0.037364
0.0338928
0.0333549
0.0292518
0.0303585
0.0303717
0.0287261
0.0306787
0.0288951
0.0304753
0.0275875
0.0294199
0.0275123
0.029452
0.0277155
0.0294599
0.0276037
0.0295301
0.024813
0.0204465
0.0189925
0.0230333
0.043561
0.0568889
0.00156547
0.00199652
0.00204206
0.0026629
0.00615627
0.00713907
0.0068384
0.0068523
0.00841138
0.00906393
0.0105119
0.0155959
0.0156022
0.0151669
0.0151752
0.0202357
0.0202302
0.0195558
0.0195619
0.0261001
0.0312725
0.0243419
0.0258176
0.024204
0.0277225
0.0312589
0.0261411
0.0243754
0.0258517
0.024241
0.027744
0.0243658
0.0225481
0.0245099
0.0226399
0.0243681
0.0225484
0.0245132
0.0226568
0.0301886
0.0314445
0.0298317
0.0321878
0.028725
0.0322885
0.0291151
0.0319767
0.0327287
0.0391314
0.0417872
0.0414794
0.0400731
0.0397073
0.038626
0.0381564
0.0361461
0.035838
0.0303903
0.0315092
0.0299482
0.0322598
0.0317268
0.0335974
0.0323413
0.0330951
0.0317428
0.0336706
0.0323867
0.0331588
0.0289142
0.0323762
0.029258
0.0320446
0.0277944
0.0312547
0.0279104
0.0312726
0.0254591
0.0217137
0.0211299
0.0262981
0.0502089
0.0568889
0.00149601
0.0018856
0.0021158
0.00280347
0.00797665
0.00844684
0.00758963
0.00733655
0.0080196
0.00909234
0.013946
0.0139512
0.0137743
0.0137886
0.018072
0.018087
0.0176012
0.0176226
0.0225775
0.0204133
0.0225491
0.0203912
0.022561
0.0203934
0.0225302
0.0203757
0.0217505
0.0196674
0.0219306
0.0197285
0.021737
0.0196597
0.0219175
0.0197184
0.0314754
0.0264792
0.0243268
0.0276823
0.0264285
0.0241299
0.0316489
0.0265155
0.0276855
0.0243612
0.0264563
0.0241687
0.0252707
0.0225261
0.0254803
0.0226898
0.0252639
0.022519
0.0254801
0.0227081
0.0310686
0.0328813
0.0304338
0.0333324
0.0287313
0.0329493
0.0292378
0.0326716
0.0322106
0.040185
0.04383
0.0437915
0.0430212
0.0428255
0.0424636
0.0420668
0.0408626
0.0403741
0.0403114
0.0389508
0.0387458
0.0372842
0.0396628
0.0382783
0.0380867
0.0365943
0.0355518
0.0341721
0.0343991
0.0371347
0.0357186
0.0344654
0.0350584
0.0341197
0.0338637
0.0365087
0.0350669
0.0343452
0.0313172
0.0329331
0.0305325
0.0334005
0.0327219
0.0338295
0.0327053
0.0338568
0.0289052
0.0330192
0.0293918
0.0327103
0.0279259
0.0321493
0.0280228
0.032157
0.0259186
0.0235441
0.0246414
0.0314096
0.0578598
0.0568889
0.00140882
0.00186485
0.00209673
0.00337125
0.0113651
0.00997948
0.00886021
0.0078977
0.00807258
0.0126006
0.0126056
0.0119809
0.0119819
0.0166389
0.0166392
0.0162426
0.0162613
0.0204948
0.0182636
0.0203869
0.0181847
0.0204814
0.0182623
0.0203824
0.0181909
0.0198478
0.0178619
0.019995
0.0177452
0.0198417
0.0178692
0.0199939
0.0177558
0.0238008
0.0205299
0.0238816
0.0205038
0.0237772
0.0205023
0.0238505
0.020481
0.0236797
0.019828
0.0236968
0.0199654
0.0236437
0.0198068
0.0236673
0.0199419
0.0314251
0.0332786
0.0305004
0.0333679
0.0307295
0.0400256
0.0445559
0.0448078
0.0442753
0.0444035
0.0438381
0.0439356
0.0434835
0.0432966
0.0443851
0.0422035
0.0437479
0.0419209
0.044104
0.0419454
0.0433219
0.0415268
0.0417066
0.0402937
0.0428679
0.0413012
0.0410887
0.0396807
0.0423348
0.0407916
0.0410256
0.0401657
0.0393975
0.0382798
0.0404116
0.0395883
0.0387863
0.0376651
0.0344212
0.0360876
0.0345631
0.0337538
0.0377329
0.0363644
0.0341887
0.0355862
0.0340387
0.0335199
0.0371724
0.0357828
0.0316105
0.0333589
0.0305847
0.033461
0.0328135
0.0337553
0.0327564
0.0337734
0.0270712
0.0268235
0.0304086
0.0397553
0.0677853
0.0568889
0.001369
0.00172806
0.00227887
0.00368918
0.0136847
0.0113949
0.0105083
0.00886997
0.00885392
0.0151773
0.0151872
0.0137986
0.0138015
0.0188607
0.0188619
0.018438
0.0184634
0.0226607
0.0185817
0.0225745
0.0183881
0.0226209
0.0185614
0.022552
0.0183813
0.0219395
0.0182601
0.0222217
0.0179877
0.0218958
0.018253
0.0221968
0.0179883
0.0240437
0.0196698
0.0240007
0.0196486
0.030592
0.0370335
0.0448964
0.0452989
0.0447684
0.0451262
0.0437973
0.0442434
0.0438331
0.0441491
0.0439381
0.0415114
0.0445911
0.0418959
0.0444411
0.0419429
0.0449095
0.042087
0.0447666
0.0423087
0.0448492
0.0421997
0.0446685
0.0421936
0.0449699
0.0422356
0.0450826
0.0429943
0.0444893
0.0428991
0.0449075
0.0428389
0.0441477
0.0426322
0.042479
0.0414629
0.0436427
0.0423973
0.0419059
0.0409655
0.0431684
0.0420182
0.0295836
0.0324496
0.0398407
0.0529491
0.0811257
0.0568889
0.00129312
0.00173743
0.0020837
0.00449026
0.0143302
0.0134762
0.0126293
0.0124607
0.0239405
0.0238305
0.0510121
0.0508932
0.0176245
0.0176331
0.0176277
0.0175827
0.0189306
0.0214669
0.0190584
0.0213265
0.0189439
0.0214701
0.0190634
0.021336
0.0185506
0.0208494
0.0184228
0.02098
0.01858
0.0208595
0.0184462
0.02099
0.0236553
0.0186863
0.0238776
0.0184781
0.0236047
0.0186664
0.0238462
0.0184682
0.0238236
0.0186744
0.0238894
0.0182171
0.0237753
0.018661
0.0238544
0.0182094
0.0321408
0.0344068
0.0427397
0.0441253
0.044721
0.0438361
0.0443994
0.0427788
0.0433317
0.0430214
0.0435176
0.0443183
0.041575
0.0450103
0.0422049
0.0448357
0.0419102
0.0454092
0.0423789
0.0453817
0.0429436
0.0453721
0.0426825
0.0454009
0.0428802
0.045601
0.0427339
0.0451301
0.0434026
0.0450521
0.0432025
0.0342356
0.0420497
0.0544516
0.0726933
0.0968362
0.0719993
0.00128286
0.00150519
0.0021343
0.00509811
0.0161621
0.0177819
0.0249716
0.0731056
0.0385044
0.0384087
0.0737454
0.0736231
0.0203984
0.0178906
0.0187622
0.0208074
0.0203931
0.0178987
0.0187824
0.0208196
0.0233241
0.0233315
0.0190415
0.0227975
0.01917
0.0232778
0.0190697
0.0228032
0.0191875
0.0232873
0.0187388
0.0231484
0.0185225
0.0233895
0.0187717
0.0231333
0.0185391
0.0233827
0.0240146
0.0188387
0.0239779
0.0188332
0.0351615
0.0347128
0.0399052
0.0430093
0.0439475
0.043062
0.043865
0.0428268
0.0435564
0.042813
0.0434543
0.0403817
0.0422516
0.0401684
0.0427545
0.0402826
0.0426029
0.0400541
0.0431228
0.0407082
0.043814
0.0411803
0.0432445
0.0406749
0.0442775
0.0412753
0.0436471
0.0444873
0.0418174
0.044979
0.0425095
0.0449999
0.0419451
0.0454296
0.0425812
0.0453918
0.0433337
0.0453156
0.0430159
0.0455264
0.0432102
0.0456559
0.043001
0.0430759
0.0571441
0.0752718
0.0981502
0.0719993
0.00117366
0.00158107
0.00198569
0.00768781
0.0305848
0.0610632
0.228893
0.208925
0.209023
0.382792
0.383205
0.0475046
0.035459
0.065843
0.052044
0.0474087
0.0354072
0.0658071
0.0520185
0.111854
0.111836
0.022859
0.0183038
0.0195703
0.0230792
0.022841
0.018309
0.0195938
0.0230836
0.0312904
0.0243522
0.0266701
0.0218951
0.0312665
0.0243526
0.0266275
0.0219072
0.0187343
0.0243766
0.0185858
0.0240506
0.0187626
0.0243546
0.0185959
0.0240398
0.0418408
0.0362902
0.0384064
0.0417868
0.0428479
0.0436492
0.0421796
0.0427572
0.0417021
0.0420869
0.0418046
0.0402509
0.0419471
0.0417124
0.0421411
0.0402171
0.0421753
0.0421357
0.0409912
0.0424174
0.0407235
0.0430185
0.040635
0.0426181
0.0403491
0.0432922
0.0412886
0.0439266
0.041697
0.0435705
0.0409989
0.0443096
0.0415504
0.0438911
0.0442633
0.0420922
0.0447042
0.0420503
0.0583886
0.07817
0.0997881
0.0719993
0.0011827
0.00146267
0.00281999
0.0156862
0.223533
0.902796
0.77783
0.779033
1.3549
1.35753
0.341677
0.342552
0.562458
0.564455
0.0554939
0.0369755
0.0805622
0.0593731
0.0552611
0.0369649
0.0803846
0.0593864
0.117316
0.210761
0.179121
0.146173
0.117372
0.211053
0.179428
0.146237
0.0247698
0.018617
0.0197404
0.0254103
0.0247349
0.0186221
0.0197588
0.0253788
0.0379086
0.02581
0.030018
0.0220316
0.0376872
0.0258489
0.0298264
0.0220656
0.0565609
0.0394357
0.0389452
0.0417001
0.0442666
0.0448933
0.0431885
0.0436745
0.0423858
0.0426893
0.0420422
0.0406333
0.0421278
0.0420046
0.0419821
0.0404004
0.042317
0.0421996
0.0421195
0.0400619
0.0422642
0.0401767
0.0413101
0.0402444
0.041944
0.039424
0.0421231
0.0394957
0.041323
0.0400208
0.0416961
0.0402442
0.0417834
0.039884
0.0414672
0.0432809
0.0413331
0.043553
0.0409441
0.0435188
0.0407672
0.0438661
0.0803448
0.101364
0.0719993
0.00112126
0.00177992
0.00560569
0.0926908
1.662
4.45229
0.90135
0.905815
1.46585
1.4772
0.399673
0.264924
0.306033
0.466222
0.35536
0.217467
0.265318
0.399931
0.217968
0.306656
0.46587
0.355623
0.74392
0.595968
0.649758
0.498399
0.740714
0.592694
0.648752
0.498035
0.0656879
0.0427138
0.097678
0.0686342
0.0653564
0.0427172
0.0974778
0.0686776
0.143882
0.184631
0.14407
0.184614
0.0202048
0.0270284
0.0202295
0.0269301
0.046119
0.0302005
0.0458146
0.0302377
0.0806254
0.0513044
0.0392866
0.0424595
0.0471518
0.0479775
0.0456611
0.0463823
0.0442799
0.0445155
0.0433075
0.0432277
0.040803
0.0425454
0.0417518
0.0426133
0.0407282
0.0415817
0.0401611
0.0422264
0.0416291
0.0420629
0.0406118
0.0413471
0.0418168
0.0402082
0.0415117
0.0396191
0.0425331
0.0404998
0.0431787
0.0424264
0.0407729
0.0405687
0.0422678
0.0397603
0.0430547
0.0424222
0.0399142
0.039955
0.0428845
0.0409864
0.0429899
0.0403686
0.102707
0.0719993
0.00120052
0.00200791
0.0186619
1.01154
9.89398
11.2695
10.431
33.112
32.2822
0.925708
0.918562
1.75871
1.6832
0.320791
0.459746
0.317782
0.240177
0.561159
0.369202
0.320955
0.459531
0.2407
0.317585
0.560305
0.36766
0.842495
0.605123
0.718795
0.466562
0.842254
0.598334
0.718371
0.462622
0.124841
0.0923615
0.124629
0.0924506
0.104644
0.0782576
0.0444623
0.0428069
0.0470826
0.0468806
0.0476706
0.045615
0.0461541
0.0446992
0.0453707
0.0439505
0.0429273
0.0448633
0.0453826
0.0437447
0.0428593
0.0438029
0.043097
0.0415995
0.0437441
0.0418814
0.0416412
0.0432303
0.042299
0.040982
0.0431792
0.041317
0.041117
0.0413754
0.040905
0.0434404
0.0425974
0.0406557
0.0402365
0.0427563
0.0420589
0.0428768
0.0410936
0.042355
0.0402241
0.0432674
0.0411065
0.0434218
0.0409312
0.0429673
0.0401366
0.0434537
0.0400826
0.0719993
0.00138571
0.00366854
0.109633
7.4267
55.376
26.2916
23.4219
66.1253
63.5948
2.53521
2.04804
1.29976
3.75138
1.91437
1.61065
1.08797
2.77982
7.02112
5.46457
1.30063
0.697638
0.944582
0.5225
1.10899
0.632884
0.862454
0.495127
0.0719993
0.108732
0.0725095
0.0439153
0.0470491
0.0508867
0.0517151
0.0488938
0.0503058
0.0453761
0.0458127
0.0457503
0.0464428
0.0445742
0.044422
0.0435924
0.0420608
0.0447818
0.0455659
0.0433246
0.0419324
0.0440544
0.0443963
0.0417613
0.0419196
0.0440248
0.0418967
0.0434511
0.043754
0.0412555
0.0411182
0.0433675
0.041441
0.0414071
0.0434086
0.0405268
0.0428773
0.0017832
0.00983094
0.783461
30.0735
198.626
198.042
234.813
233.076
64.7312
59.5451
140.729
139.28
2.79223
2.8208
1.46377
4.58652
1.88699
2.15616
1.09643
3.43232
37.5385
24.1912
16.9808
9.85838
25.743
15.5367
10.4068
4.8637
1.8944
0.885364
1.51022
0.722998
0.0719979
0.114857
0.0640031
0.0472762
0.0516926
0.0519649
0.0539752
0.0495828
0.05089
0.0476358
0.0484463
0.0469411
0.0451926
0.0438596
0.0459877
0.0481645
0.0453151
0.0446155
0.0466552
0.0447174
0.0430497
0.0445199
0.0427286
0.0442376
0.0432573
0.043909
0.0424869
0.00243618
0.0414976
4.23295
85.5073
225.782
224.816
253.828
251.819
39.3188
23.3018
110.598
123.081
65.7625
183.56
29.315
12.4674
109.805
114.262
65.9211
175.685
162.834
163.171
4.62096
5.56437
2.41338
9.67393
2.04822
3.33762
1.28982
5.62104
22.8643
12.2098
14.9439
5.15681
0.0719922
0.118956
0.0634218
0.0516781
0.0579848
0.0554382
0.054966
0.053507
0.0501065
0.0507994
0.0497261
0.0502975
0.0478702
0.0476632
0.0478504
0.0450976
0.0463262
0.0447346
0.0480287
0.0481435
0.0474475
0.0449332
0.0457329
0.0451558
0.0455723
0.0438199
0.0450569
0.0439517
0.0455119
0.0435639
0.0447981
0.0433622
0.00572846
0.317213
15.8733
213.083
213.186
172.467
172.89
198.284
193.288
262.193
261.572
86.3888
43.1332
79.1009
77.8659
42.8181
133.832
68.2601
32.3081
89.2787
105.09
62.2979
140.113
183.675
114.422
45.4611
34.6545
199.69
123.101
79.9905
49.7809
0.0719775
0.116155
0.0662827
0.0585045
0.0590138
0.0596144
0.0550976
0.0558229
0.0523179
0.0529663
0.047861
0.0461879
0.0494497
0.0491532
0.0462639
0.0494641
0.0498463
0.0492245
0.046255
0.0499602
0.0471899
0.0463707
0.04815
0.0476538
0.045277
0.0447465
0.0477109
0.0469356
0.0452381
0.0445417
0.0468411
0.0443838
0.045976
0.0439608
0.0132961
2.25762
40.3965
191.101
192.368
151.386
151.96
56.04
43.3193
206.556
195.472
117.268
300.531
68.2964
45.4362
173.885
87.4273
83.5091
233.503
240.355
233.865
15.5036
22.5009
21.0718
32.9966
12.5902
7.5567
25.3458
12.9282
0.0719467
0.112434
0.0698085
0.0698606
0.0689841
0.0637818
0.0637026
0.0587309
0.0591893
0.0558772
0.0566295
0.0527178
0.0518678
0.0517306
0.0481709
0.0492923
0.0484086
0.0531556
0.0493513
0.0492225
0.0522699
0.0518151
0.0483448
0.0490386
0.0456979
0.0490713
0.0465033
0.0489779
0.0490164
0.0466685
0.0456559
0.137832
10.8605
71.7548
172.753
173.356
142.529
143.386
30.9716
24.3667
180.384
121.094
89.1928
263.586
11.0543
16.8743
140.897
61.5427
78.0553
175.34
303.994
238.322
299.443
203.757
306.887
232.089
263.428
193.727
2.53651
2.81851
2.98643
2.48692
0.0718876
0.110162
0.0764168
0.0708049
0.0726649
0.0647968
0.0663109
0.0607383
0.0623139
0.0526333
0.0530498
0.0565157
0.0547631
0.0522766
0.0567207
0.0534191
0.0541705
0.0574274
0.0556232
0.0535259
0.0577606
0.0517071
0.0510235
0.0490472
0.0473954
0.0508186
0.0474721
0.0518688
0.0494055
1.43451
34.0408
136.616
132.546
132.975
136.695
151.529
151.793
158.743
271.742
210.16
158.149
270.382
198.698
26.3825
33.6517
150.818
117.946
84.3745
227.289
7.74528
23.012
133.626
67.3179
84.5786
167.66
272.174
177.282
245.212
164.595
0.0717744
0.112935
0.0822555
0.070346
0.0734762
0.0660398
0.0684606
0.0615123
0.0629936
0.0584198
0.0563464
0.0573467
0.0603817
0.0638032
0.0588706
0.0619548
0.0653861
0.0608426
0.06029
0.0530297
0.0499802
0.0540957
0.0512495
0.0536039
0.0509533
0.0550913
0.0530744
0.0523636
0.0491207
0.0524892
0.0493926
10.3833
67.4857
140.943
138.182
140.72
138.187
142.088
142.251
205.076
218.761
171.569
239.332
190.938
174.572
228.291
213.395
205.226
200.38
164.047
231.832
180.83
174.606
226.865
211.283
138.582
213.928
127.158
171.572
235.595
157.604
214.929
145.791
0.0715405
0.120623
0.102669
0.0724693
0.0756768
0.113055
0.0850885
0.0916587
0.0669603
0.061289
0.0650285
0.0705842
0.0633425
0.0674084
0.0557838
0.0570455
0.0516373
0.0523215
0.0577351
0.0553439
0.0584971
0.054775
0.0539583
0.0509411
0.0547706
0.051488
0.0541167
0.0523013
0.0559783
0.0532419
34.0483
102.531
146.584
185.656
210.478
172.304
145.914
185.255
207.853
171.793
155.038
155.241
196.17
201.812
211.541
147.996
139.364
147.625
183.986
183.391
193.311
136.93
133.691
144.941
140.021
212.826
124.487
172.696
0.0711729
0.133441
0.0999121
0.0743187
0.0796342
0.111175
0.0817198
0.0892718
0.0652826
0.0601751
0.0599867
0.0607448
0.0638178
0.0624255
0.0699695
0.0716206
0.0714119
0.0638386
0.0658064
0.0629764
0.0671586
0.0669227
0.0744744
0.073973
0.0568116
0.0573861
0.0516292
0.0531758
0.0572343
0.0531898
0.0587411
0.0548577
57.0739
182.64
165.278
166.091
182.787
193.234
193.149
235.484
179.069
202.556
171.044
204.796
226.73
206.982
172.617
235.179
244.268
211.714
234.552
178.926
201.482
169.624
202.811
222.867
213.28
172.28
236.289
248.913
208.02
184.606
192.213
137.572
138.74
179.187
186.094
134.212
136.407
0.0706553
0.140998
0.101173
0.0723111
0.0756686
0.0725807
0.0784189
0.0797386
0.0788186
0.114679
0.0863436
0.0947862
0.0614899
0.066161
0.0578749
0.0571549
0.0551861
0.0650177
0.0653426
0.0759809
0.0596985
0.0573871
0.0612035
0.0734347
0.057093
0.0523762
0.0578131
0.0530035
78.9802
231.466
218.343
233.884
218.147
208.482
208.175
201.055
216.457
147.677
141.571
239.906
167.621
510.249
486.949
312.044
321.021
233.118
321.161
417.398
307.631
201.276
225.594
141.548
150.399
250.982
171.343
491.429
518.871
313.41
329.568
231.932
323.931
432.26
308.991
0.0704379
0.223607
0.110555
0.118288
0.228661
0.196718
0.182085
0.0757907
0.0670416
0.0681508
0.0646624
0.0660329
0.0741848
0.0745612
0.0700533
0.0809123
0.0736205
0.0705533
0.0662081
0.0726805
0.0793709
0.0774096
0.0727545
0.0933239
0.0787392
0.0836892
0.102292
0.0871125
0.0927112
0.0614717
0.0650485
0.0585217
0.0617837
0.0652377
0.0684887
0.0621003
0.0647523
204.678
306.947
327.437
488.014
362.58
307.955
329.574
496.255
362.647
310.987
310.869
252.269
170.657
320.588
205.993
600.176
579.56
540.468
326.946
354.073
344.217
261.736
175.569
326.344
209.006
606.501
544.385
586.36
328.726
356.014
347.181
0.0701625
0.270768
0.122236
0.124595
0.28367
0.271714
0.242326
0.0685377
0.0742571
0.0646407
0.0730786
0.0749605
0.0732901
0.0699996
0.074634
0.0639602
0.0705137
0.0781664
0.0759369
0.09725
0.0844317
0.0795655
0.0805735
0.0820211
0.0853064
0.102163
0.0993686
0.106508
0.0896458
0.0866179
0.0891972
0.09267
0.0993787
0.110486
0.108797
281.345
508.665
508.759
428.848
361.568
645.039
395.672
568.013
497.606
429.857
363.171
650.259
397.179
570.414
497.604
653.141
642.225
661.494
384.171
375.749
384.79
657.377
647.458
664.632
385.866
377.617
386.414
0.0691822
0.334672
0.161863
0.118128
0.115396
0.152629
0.122116
0.120905
0.344944
0.266602
0.23007
0.075937
0.0790493
0.0812067
0.0803279
0.0750435
0.0734805
0.0850525
0.0814064
0.0933447
0.106214
0.0847217
0.0815359
0.082716
0.101088
0.101722
0.112937
0.0898016
0.0843375
0.0951198
0.111491
264.371
523.392
525.737
523.494
525.833
480.695
442.053
699.321
423.256
740.924
713.475
410.311
495.072
480.751
442.313
705.919
424.475
742.044
715.749
411.014
495.09
720.404
415.869
722.81
416.34
0.0685184
0.322237
0.315828
0.200135
0.155027
0.154486
0.165336
0.142558
0.179825
0.147785
0.148796
0.155913
0.140192
0.2251
0.220869
0.101994
0.0879215
0.137137
0.0904699
0.0852939
0.152241
0.115156
0.0913426
0.142879
0.0902857
0.11038
0.142861
146.179
512.928
501.251
513.018
501.336
490.878
490.868
451.196
438.307
649.303
399.053
726.664
412.091
741.202
424.519
712.292
745.48
427.606
451.272
438.016
650.186
399.027
726.074
411.625
742.137
424.28
712.044
746.428
427.193
0.0685231
0.239184
0.215367
0.251772
0.217798
0.181542
0.199371
0.184993
0.200856
0.185498
0.153352
0.162215
0.176356
0.181609
0.17166
0.181846
0.1731
0.149483
0.152855
0.144941
0.151303
0.110935
0.105719
0.124711
0.131763
36.1161
410.62
217.767
410.609
217.813
486.953
490.354
486.942
490.367
454.418
454.385
376.976
634.109
381.763
632.366
385.719
595.157
356.332
648.364
385.148
736.379
423.51
650.783
377.129
635.168
382
632.684
385.562
595.284
356.394
648.039
384.544
736.354
422.534
650.418
0.0691927
0.215735
0.244596
0.217375
0.253284
0.132081
0.136397
0.124012
0.182731
0.155865
0.172141
0.173354
0.192963
0.180506
0.197363
0.183995
0.152102
0.160822
0.128953
0.177673
0.148396
0.167089
0.164869
0.179675
0.169345
0.179618
0.174399
0.146751
0.150204
23.2355
147.813
136.721
147.4
136.116
433.592
217.111
433.637
217.168
448.204
446.086
448.124
446.125
371.991
619.781
367.851
625.743
372.032
619.803
367.81
625.874
351.951
603.104
357.562
594.097
352.154
603.466
357.767
594.507
0.0701706
0.331347
0.330125
0.316267
0.343213
0.132633
0.14476
0.13718
0.15243
0.110521
0.115212
0.103537
0.119834
0.120898
0.102865
0.179862
0.168457
0.168345
0.176813
0.192169
0.174882
0.191932
0.179789
0.112568
0.12185
0.126727
0.109033
0.174929
0.146413
0.162114
0.166437
0.179001
0.163714
0.176528
0.168614
72.635
12.8548
172.067
147.612
171.787
147.452
450.235
280.339
450.437
281.69
372.034
609.589
363.852
623.154
378.631
618.185
381.954
632.536
371.895
609.516
363.733
622.954
378.518
619.261
381.891
632.494
345.473
574.226
337.942
586.985
345.594
574.211
337.927
587.303
0.0704366
0.266563
0.22162
0.278469
0.22505
0.237448
0.268453
0.224405
0.224504
0.111175
0.121998
0.116659
0.131761
0.0965521
0.0885356
0.092771
0.092875
0.103191
0.0927488
0.0971105
0.0987087
0.0854914
0.12413
0.115097
0.0984521
0.0968254
0.118445
0.122225
0.101965
49.8766
134.462
150.419
135.06
151.398
3.85357
180.715
159.349
180.815
159.235
422.462
687.778
423.023
705.79
385.169
462.812
315.302
637.025
423.036
689.594
423.133
706.905
386.397
474.046
315.569
641.69
350.138
570.986
337.341
591.685
353.819
565.672
341.798
596.072
350.081
570.828
337.279
591.587
353.761
565.562
341.624
596.022
0.0706511
0.140262
0.26998
0.191617
0.245603
0.189194
0.188968
0.202655
0.18154
0.177768
0.0953679
0.0903338
0.0954402
0.0920747
0.103663
0.112198
0.112259
0.101483
0.103304
0.0962826