/*--------------------------------*- C++ -*----------------------------------*\
| =========                 |                                                 |
| \\      /  F ield         | OpenFOAM: The Open Source CFD Toolbox           |
|  \\    /   O peration     | Version:  5.x                                   |
|   \\  /    A nd           | Web:      www.OpenFOAM.org                      |
|    \\/     M anipulation  |                                                 |
\*---------------------------------------------------------------------------*/
FoamFile
{
    version     2.0;
    format      ascii;
    class       volScalarField;
    location    "1";
    object      p;
}
// * * * * * * * * * * * * * * * * * * * * * * * * * * * * * * * * * * * * * //

dimensions      [1 -1 -2 0 0 0 0];

internalField   nonuniform List<scalar> 
12160
(
5354.8
5355.85
4700.61
5358.32
4701.56
4046.72
5362.83
4703.87
4047.59
3392.21
5369.54
4708.28
4049.48
3392.78
2738.47
5375.54
4715.38
4053.88
3394.03
2739.06
2083.41
5378.09
4721.95
4061.71
3398.24
2738.85
2084.35
1430.22
5374.39
4725.16
4069.48
3407.06
2742.89
2082.33
1431.19
774.325
5362.42
4721.6
4073.93
3416.76
2753.16
2085.96
1425.36
777.742
231.376
5341.92
4710.02
4071.71
3423.07
2765.48
2097.44
1428.4
768.143
234.171
4.1645
5314.02
4689.44
4059.85
3421.62
2774.82
2113.5
1442.09
771.737
227.794
4.73387
-6.74819
5280.89
4661.2
4038.78
3410.81
2775.86
2126.81
1463.08
785.813
231.142
6.37117
-6.82787
-7.48274
5244.86
4627.58
4009.7
3389.36
2764.91
2129.73
1481.96
812.542
246.17
9.02206
-6.74267
-7.50052
-8.18945
5208.13
4591.06
3975.04
3359.1
2742.45
2120.39
1488.9
837.845
270.841
14.3315
-6.70319
-7.46945
-8.16084
-8.80862
5172.47
4553.89
3937.5
3322.92
2710.39
2097
1479.12
845.582
296.957
22.7681
-6.60747
-7.46574
-8.13402
-8.81736
-9.49339
5139.19
4517.88
3899.43
3283.84
2671.99
2062.59
1454.09
840.722
309.375
33.147
-6.4589
-7.47502
-8.13551
-8.80487
-9.48271
5109.19
4484.35
3862.72
3244.46
2630.78
2021.21
1416.56
814.512
306.942
39.843
-6.15734
-7.53136
-8.14769
-8.80775
-9.47768
5083.01
4454.18
3828.67
3206.71
2589.59
1977.14
1371.45
773.062
286.119
39.9034
-5.73548
-7.61305
-8.18935
-8.81453
-9.47966
5060.89
4427.89
3798.15
3171.92
2550.45
1933.57
1323.98
722.502
253.582
33.8654
-5.56768
-7.66867
-8.24998
-8.83981
-9.48424
5042.9
4405.71
3771.64
3140.91
2514.67
1892.61
1277.74
670.523
217.443
24.4802
-5.81767
-7.6918
-8.29175
-8.87142
-9.49374
5028.96
4387.68
3749.34
3114.11
2483.01
1855.55
1234.92
620.613
182.344
15.5606
-6.24755
-7.68355
-8.31099
-8.89398
-9.50246
5018.96
4373.74
3731.26
3091.66
2455.81
1823.05
1196.64
574.847
150.753
8.42595
-6.54343
-7.62287
-8.29195
-8.90351
-9.50614
5012.72
4363.73
3717.29
3073.51
2433.14
1795.37
1163.47
534.39
123.557
3.20741
-6.68119
-7.56306
-8.24774
-8.89638
-9.5068
5010.09
4357.49
3707.27
3059.52
2414.89
1772.45
1135.47
499.686
100.831
-0.356626
-6.74243
-7.51973
-8.20409
-8.87207
-9.50439
5010.89
4354.84
3701.02
3049.5
2400.86
1754.11
1112.47
470.698
82.2174
-2.64737
-6.775
-7.49094
-8.17353
-8.84711
-9.49697
5015.01
4355.63
3698.35
3043.24
2390.82
1740.07
1094.15
447.12
67.2156
-4.05326
-6.78892
-7.47498
-8.15522
-8.82895
-9.48923
5022.29
4359.73
3699.12
3040.55
2384.55
1730.05
1080.19
428.517
55.3289
-4.87869
-6.79411
-7.46879
-8.14402
-8.81768
-9.48327
5032.63
4366.99
3703.17
3041.27
2381.83
1723.77
1070.23
414.429
46.1174
-5.34751
-6.79443
-7.46532
-8.13905
-8.81089
-9.47942
5045.88
4377.31
3710.39
3045.26
2382.48
1721.02
1063.99
404.433
39.2224
-5.61104
-6.79258
-7.46247
-8.13631
-8.80759
-9.4771
5061.89
4390.54
3720.66
3052.4
2386.39
1721.6
1061.22
398.158
34.3689
-5.75937
-6.79059
-7.46037
-8.13417
-8.8058
-9.47591
5080.49
4406.56
3733.87
3062.6
2393.45
1725.38
1061.72
395.317
31.3209
-5.83923
-6.78971
-7.45947
-8.13239
-8.80454
-9.47526
5101.43
4425.17
3749.88
3075.75
2403.55
1732.28
1065.37
395.676
29.9278
-5.88051
-6.79044
-7.45954
-8.1313
-8.80352
-9.47483
5124.46
4446.17
3768.53
3091.74
2416.64
1742.23
1072.1
399.125
30.081
-5.8978
-6.79078
-7.46044
-8.13115
-8.80292
-9.47451
5149.22
4469.28
3789.62
3110.43
2432.61
1755.19
1081.85
405.625
31.7306
-5.89488
-6.79043
-7.46105
-8.13149
-8.80282
-9.47432
5175.34
4494.17
3812.9
3131.64
2451.37
1771.1
1094.6
415.175
34.8463
-5.87124
-6.78978
-7.46111
-8.13178
-8.80297
-9.47429
5202.35
4520.46
3838.05
3155.15
2472.75
1789.89
1110.34
427.805
39.4386
-5.82458
-6.78865
-7.46059
-8.13181
-8.80315
-9.47435
5229.76
4547.69
3864.69
3180.65
2496.55
1811.46
1129.03
443.556
45.5571
-5.74387
-6.78667
-7.45935
-8.13141
-8.80318
-9.47438
5257.02
4575.37
3892.38
3207.79
2522.53
1835.64
1150.62
462.461
53.2636
-5.61103
-6.78474
-7.45754
-8.13054
-8.80292
-9.47436
5283.58
4602.96
3920.62
3236.14
2550.33
1862.21
1175
484.524
62.6434
-5.39854
-6.78406
-7.4557
-8.12942
-8.80239
-9.47428
5308.91
4629.87
3948.86
3265.19
2579.55
1890.86
1202.01
509.69
73.7995
-5.06162
-6.78415
-7.45446
-8.12833
-8.80174
-9.47413
4655.57
5348
3976.5
3294.38
2609.69
1921.21
1231.4
537.829
86.8423
-4.53495
-6.78421
-7.45387
-8.12756
-8.80112
-9.47394
4002.97
4695.28
5389.56
3323.1
2640.17
1952.76
1262.83
568.715
101.872
-3.73154
-6.7831
-7.45391
-8.12737
-8.80066
-9.47372
3350.73
4043.99
4737.7
5412.12
2670.37
1984.95
1295.83
602.01
118.969
-2.55126
-6.77962
-7.45438
-8.12768
-8.80052
-9.47357
2699.58
3393.69
4088.27
4760.89
5416.28
2017.09
1329.85
637.258
138.169
-0.879362
-6.77207
-7.45493
-8.12818
-8.80065
-9.47351
2048.4
2745.26
3440.56
4112.92
4765.38
5407.24
1364.22
673.876
159.412
1.41843
-6.75956
-7.45574
-8.12872
-8.80093
-9.47354
1398.02
2097.58
2795.82
3466.76
4117.77
4755.17
5370.49
711.17
182.547
4.46709
-6.73721
-7.45809
-8.12964
-8.8013
-9.47362
748.27
1451.39
2152.79
2824.84
3472.99
4106.59
4719.35
5357.91
207.309
8.36696
-6.70166
-7.46481
-8.13189
-8.80203
-9.47377
233.135
807.213
1512.39
2184.81
2831.9
3461.19
4073.17
4702.62
5260.87
13.1998
-6.64945
-7.47759
-8.13694
-8.80363
-9.47406
18.9895
275.368
875.397
1548.61
2193.3
2819.25
3430.89
4051.65
4591.72
5173.08
-6.56233
-7.49613
-8.14551
-8.8068
-9.47466
-6.41015
29.8087
328.545
915.543
1560.27
2180.59
2791.03
3403.61
3956.48
4524.09
5017.28
-7.52119
-8.15727
-8.81206
-9.47578
-7.55432
-5.99739
46.325
362.621
928.769
1545.95
2152.78
2759.77
3335.12
3903.81
4363.86
5058.17
-8.17571
-8.81946
-9.4776
-8.1998
-7.61351
-5.02827
58.0152
371.589
913.039
1516.13
2119.45
2711.51
3295.68
3772.64
4436.97
5001.25
5664.38
-8.83048
-9.48016
-8.84421
-8.24432
-7.68719
-4.35419
59.7005
356.819
880.581
1480.77
2081.77
2685.42
3241.08
3857.05
4407.07
4916.61
5612.18
6294.16
-9.48385
-9.4882
-8.87016
-8.30176
-7.72233
-4.56973
51.6792
327.058
842.681
1446.3
2064.88
2676
3286.57
3829.91
4345.31
4759.75
5511.01
6243.98
6957.31
-9.49654
-8.90316
-8.33801
-7.72861
-5.35658
37.9601
295.008
808.181
1431.48
2064.88
2689.7
3254.77
3785.64
4211.74
4526.72
5338.75
6139.84
6910.97
7657.63
-9.50689
-8.91989
-8.3381
-7.69371
-6.03601
25.7057
269.41
789.887
1428.82
2066.75
2656.12
3211.08
3666.55
4019.1
4139.51
5060.29
5961.29
6810.27
7617.73
8395.37
-9.51221
-8.92329
-8.31473
-7.63476
-6.39042
17.2645
253.455
777.486
1430.55
2026.86
2608.82
3102.21
3505.4
3738.88
3627.31
4599.63
5659.97
6637.08
7523.9
8356.4
9158.54
-9.51567
-8.91173
-8.2717
-7.57281
-6.57524
12.075
241.985
778.318
1383.35
1982.35
2516.38
2967
3301.43
3331.81
2430.41
3973.26
2435.31
2394.06
2398.21
5186.52
6344.84
7366.87
8276.08
9124.68
9940.55
-9.51799
-8.8911
-8.22755
-7.53517
-6.68284
8.25776
238.06
730.753
1343.73
1901.89
2396.36
2800.75
3025.82
2866.7
2535.33
2117.19
4583.26
2537.93
2709.76
2710.6
2117.37
2095.79
2097.64
5907.44
7111.47
8139.63
9055.23
9912.31
10737.9
-9.51771
-8.86934
-8.19823
-7.51746
-6.74339
5.97701
209.469
696.187
1270.39
1792.31
2249.6
2603.7
2676.31
1910.85
1906.69
1896.68
1898.7
2221.51
1814.38
5381.71
3825.41
2219.89
2419.89
2419.17
1803.9
1883.24
1875.47
6741.52
7934.28
8942.68
9852.5
10712.3
11538.2
-9.515
-8.85498
-8.18322
-7.50738
-6.76701
2.95332
190.21
625.237
1168.52
1658
2081.07
2350.5
1854.19
1855.58
1797.77
1797.99
1696.44
1690.93
1745.51
1740.92
1928.21
1470.56
1358.47
1430.45
1389.92
6345.4
4974.11
3070.64
3060.87
2570.69
2564.17
1923.07
2232.33
2232.96
1465.08
1360.29
1428.58
1376.81
1513.53
1430.75
1551.87
1403.89
1506.04
1407.76
1545.27
1386.3
7657.66
8781.57
9757.83
10659.8
11516.4
12335.6
-9.51288
-8.84763
-8.1757
-7.50681
-6.771
0.0576692
156.693
543.382
1050.57
1500.09
1882.23
1690
1689.12
1570.57
1569.74
1719.22
1711.12
1678.47
1668.41
1324.29
1376.23
1362.34
1347.74
1420.39
1383.57
1375.9
1345.16
1365.23
1351.48
1421.8
1385.07
1383.61
1461.14
1382.96
1458.71
1382.31
1458.8
1384.7
1459.74
1680.37
1428.58
1524.12
1589.46
1425.54
1377.64
1418.65
1390.32
7408.36
6131.1
4005.74
3985.89
3558.66
3539.21
3059.38
3049.19
2474.85
2474.87
1683.27
1428.97
1523.03
1590.79
1850.77
1808.71
1972.86
1710.26
1853.22
1818.03
1975.26
1712.4
1420.14
1373.65
1414.54
1377.11
1431.94
1390.14
1428.04
1377.23
8575.89
9626.32
10576.4
11470.3
12315.5
13125.3
-9.51258
-8.84402
-8.17032
-7.50255
-6.78042
-2.42694
119.595
453.562
906.8
1339.17
1374.6
1372.45
1210.76
1212.16
1572.85
1563.53
1460.06
1450.19
1368.22
1438.19
1334.93
1402.75
1364.99
1434.97
1335.66
1401.04
1297.09
1383.05
1315.2
1390.5
1298.48
1382.06
1315.59
1388.67
1329.64
1330.96
1343.82
1382.17
1359.43
1359.89
1353.37
1343.95
1383.02
1347.04
1366.54
1364
1388.81
1383.84
1389.37
1387.32
1389.89
1384.15
1391.21
1389.22
1687.69
1443.94
1524.97
1568.73
1472.57
1439.55
1516.04
1425.39
8423.86
7377.6
4916.53
4894.99
4454.46
4433.82
4068.05
4043.85
3578.04
3554.98
2572.53
2915.06
2371.5
2672.18
2574.06
2909.96
2373.59
2664.76
1958.74
1737.05
2093.89
2168.66
2410.05
1937.72
1984.63
1748.34
2097.97
2179.12
2403.06
1938.76
1689.82
1446.94
1521.86
1573.56
1838.8
1686.3
1841.76
1686.44
1465.45
1431.47
1511.2
1408.92
1445.58
1399.02
1441.36
1387.04
9467.03
10462.9
11397.4
12274
13107.5
13900.1
-9.51385
-8.84152
-8.16529
-7.50002
-6.78182
-4.13576
79.1481
344.551
742.614
1001.79
1004.21
782.25
783.328
1287.02
1281.86
1109.53
1109.47
1250.87
1338.56
1185.49
1287.08
1248.51
1337.32
1185.8
1287.26
1096.46
1239.83
1124.51
1239.84
1092.17
1237.45
1123.82
1239.07
1370.66
1358.56
1351.08
1318.45
1371.1
1358.48
1351.64
1320.74
1300.53
1253.37
1325.68
1276.46
1304.36
1255.91
1326.82
1279.7
1751.78
1509.7
1589.53
1650.53
9369.9
8454.74
5812.94
5804.26
5383
5366.11
4926.55
4909.57
4515.47
4495.32
3364.59
3699.59
3145.89
3491.32
3373.14
3699.23
3152.94
3491.18
2759.54
3114.32
2942.41
3299.71
2760
3111.84
2950.35
3297.96
2616.07
2845.79
2429.94
2642.45
2624.92
2842.38
2430.27
2636.17
1848.79
2029.79
2174.82
1949.7
2225.82
2412.43
1863.19
2031.29
2175.25
1959.63
2223.99
2404.61
1747.68
1502.51
1583.71
1643.36
1857.86
1762.53
1866.33
1766.01
10331.1
11296.9
12208
13070.2
13885.1
14653.9
-9.51473
-8.83972
-8.15916
-7.48961
-6.76692
-5.12898
36.0415
243.629
541.891
903.554
905.158
674.069
675.045
1174.18
1172.66
1015.19
1011.84
1243.19
1208.79
1182.78
1171.12
1244.31
1210.2
1183.5
1173.07
1076.37
1109
1115.68
1137.1
1073.28
1108.87
1115.13
1138.47
1255.26
1235.73
1262.97
1239.45
10232.6
9404.9
6701.14
6716.42
6259.72
6257.13
5819.42
5805.35
5377.13
5359.04
4104.77
4663.22
4007.09
4440.85
4108.89
4667.4
4011.93
4434.86
3594.45
3930.88
3805.06
4172.71
3598.38
3928.79
3816.38
4169.56
3431.02
3590.27
3204.82
3391.34
3433.63
3589.35
3200.25
3389.96
2818.66
3030.48
3010.19
3214.02
2819.02
3027.39
3006.72
3209.61
11178.9
12118.2
13010.1
13852.9
14642.3
15377.4
-9.51502
-8.83696
-8.15039
-7.4673
-6.76387
-5.4651
10.9954
154.273
382.859
384.014
210.418
211.01
821.705
817.137
593.085
593.56
918.135
979.026
965.718
880.437
916.092
978.188
965.942
879.553
876.07
741.968
817.271
807.458
873.482
740.677
816.464
804.193
1197.55
1186.89
1148.41
1165.01
1204.78
1190.38
1152.41
1167.98
1047.84
1031.68
1067.96
1115.01
1050.84
1032.83
1072.58
1117.18
11073.8
10246.7
9452.51
6607.86
6614.36
6241.13
6228.98
5724.36
5699.5
5312.29
5303.48
4159.39
4636.72
4072.45
4374.83
4157.41
4636.15
4071.32
4367.15
3671.81
3842.09
3887.82
4100.84
3670.55
3836.58
3888.14
4092.1
3528.98
3583.49
3536.33
3581.39
12012.3
12924.7
13799.3
14617
15368.1
16067.1
-9.51346
-8.83297
-8.13576
-7.42388
-6.77422
-5.53283
-0.376734
63.5107
287.495
286.264
130.266
130.415
651.381
732.057
664.354
560.218
653.251
732.346
665.053
566.15
512.596
512.326
837.721
942.813
906.695
859.689
836.145
947.88
907.198
861.072
777.055
716.672
718.163
797.902
776.213
709.896
717.705
794.425
1013.47
979.332
1019.47
981.646
11920.1
11069.5
10309
7517.36
7516.57
7107.94
7081.07
6649.95
6613.32
6164.77
6120.82
5071.57
4829.18
5237.5
4671.93
5065.97
4831.52
5227.16
4669.25
4928.6
4385.81
4793.03
4513
4928.98
4389.42
4798.32
4516.55
4272.85
4538.57
4122.12
4304.47
4280.61
4542.89
4122.08
4300.1
3726.55
3798.3
3928.27
4052.96
3729.7
3791.32
3929.33
4043.24
12819.5
13720
14573.2
15347.9
16059
-9.5131
-8.82236
-8.11816
-7.34568
-6.79443
-5.55784
-5.38158
14.13
14.1678
1.29713
1.28069
226.205
249.532
137.353
163.993
224.404
248.064
137.717
163.238
72.927
73.251
617.566
639.146
561.189
524.526
615.885
639.572
562.717
526.268
317.463
344.696
409.174
427.315
316.464
342.487
410.791
426.665
754.132
664.645
680.062
743.124
754.236
663.584
680.334
742.87
12723.6
11918.6
11154.2
10479.3
7451.48
7413.04
6946.77
6911.12
6507.5
6473.06
5028.29
5470.86
5579.28
5071.9
5009.71
5445.79
5573.34
5050.61
5043.48
4941.68
5271.78
4758.36
5044.26
4947.66
5268.41
4762.22
4842.48
4436.85
4674.5
4579.71
4846.89
4448.96
4683.06
4581.24
4292.12
4488.85
4308.95
4498.27
13614.7
14502
15313.7
16042.2
-9.50887
-8.80816
-8.10147
-7.2851
-6.75557
-5.93875
-3.17064
-3.18228
-3.66526
-3.67587
3.19036
3.19549
-2.08905
-2.11102
185.243
187.018
106.692
112.207
185.16
186.53
107.257
112.306
34.4641
21.2733
18.5191
36.9537
34.8468
21.4191
18.679
37.6393
570.703
588.372
498.147
495.093
569.199
588.382
499.201
494.237
274.384
269.795
365.37
354.092
275.653
269.157
365.224
353.779
13502.6
12705.9
11982.7
11303.7
8168.19
8140.6
7736.69
7710.82
7145.97
7141.08
5656.2
6108.63
5673.19
6284.75
5651.55
6098.33
5680.86
6277.77
5484.57
5918.96
5375.67
5798.95
5227.24
5826.29
5501.8
5912.21
5383.87
5794.18
5204.21
5809.17
5161.66
5617.57
5150.88
5601.59
4881.63
4756.5
5029.37
4674.22
4889.26
4788.92
5036.32
4699.88
14396
15260.3
16014.9
-9.50471
-8.78772
-8.09185
-7.24175
-6.68154
-5.80348
-2.82392
-2.85178
-3.27405
-3.30949
0.288369
8.27404
0.633784
-1.00986
-1.14346
6.93274
8.33067
0.262811
7.0094
0.62272
-1.0426
-1.16165
-1.526
-1.86067
-1.35805
-1.51045
-1.57275
-1.87989
-1.39243
-1.52637
147.261
154.689
77.9596
76.7807
147.941
154.428
78.934
77.1244
16.7226
20.1248
16.8953
20.3274
455.961
452.875
456.265
451.345
226.284
237.454
227.706
237.073
14270.1
13447.6
12752.3
12104.5
8905.89
8899.66
8519.08
8482.74
7970.42
7962.39
7494.45
7495.54
6586.46
5949.4
6623.35
6004.76
6434.71
5807.75
6567.01
5965.7
6607.39
5998.22
6406.6
5777.93
5784.91
6276.56
5779.28
6267.9
5630.44
5960.09
5498.43
5228.16
5761.37
5556.45
5618.35
5953.67
5478.98
5242.4
5752.19
5553.28
4960.75
5274.14
4981.27
5273.85
15183.4
15973.6
-9.49523
-8.76338
-8.08024
-7.31693
-6.48129
-3.60049
-3.62976
-4.36605
-4.37447
-2.58424
-2.63658
-2.72612
-2.79734
2.68482
-0.784756
-0.792735
2.73716
-1.18062
-1.35963
2.72363
-0.819351
2.76941
-0.813838
-1.21207
-1.37646
-1.56692
-1.66656
-1.35705
-1.43331
-1.60827
-1.68639
-1.38528
-1.44553
47.4662
35.2258
47.9451
35.3927
15068
14170.7
13483.3
12872.7
12189.5
8746.21
8708.65
8485.06
8434.49
6534.75
7161.59
6525.43
7073
6540.07
7146.3
6544.84
7063.22
6116.25
6032.64
6677.23
6352.13
6872.43
6696.83
6180.8
6026.72
6688.88
6389.36
6866.8
6697.49
6537.86
6284.45
6062.01
5903.25
6544.5
6288.18
6044.85
5914.6
5682.87
6032.5
5717.4
6038.06
5577.84
5830.5
5224.83
5517.49
5614.35
5837.11
5212.76
5511.17
15910.2
-9.49125
-8.73648
-8.0558
-7.29165
-6.44544
-3.6626
-3.65135
-4.27065
-4.25128
-2.34694
-1.87295
-1.99763
-2.07128
-2.3937
-1.93318
-2.03253
-2.13733
-2.89244
-2.94268
-1.61305
-1.63579
-1.35723
-1.48108
-1.65861
-1.65187
-1.38733
-1.49293
15804.3
14934.4
14171.3
13600.3
13020.2
9593.18
9588.83
9176.38
9166.67
8813.75
8806.23
8202.93
8216.45
6725.39
7395.92
6791.5
7401.71
6726.83
7386.02
6757.56
7381.42
6053.23
6330.54
6456.95
6770.22
6645.95
7105.59
6115.66
6339.41
6775.46
6485.04
6609.91
7092.17
6250.42
5870.43
6257.58
5883.19
-9.48604
-8.74413
-8.03041
-7.27772
-4.69026
-4.68516
-5.10831
-5.12961
-3.72136
-3.67066
-4.20897
-4.17994
-2.30972
-1.91539
-2.03241
-2.17427
-2.34387
-1.96323
-2.06649
-2.22382
-2.58379
-2.82083
-2.41368
-2.51185
-2.54936
-2.7918
-2.40962
-2.51675
-1.64206
-1.72313
-1.68609
-1.73931
15677.1
14895.7
14267.4
13757.9
13019.5
9380.45
9421.69
9134.22
9112.37
8584.32
8567.72
7581.17
6960.36
7608.06
6902.4
7536.67
6957.02
7586.18
6877.45
6804.4
7211.56
6721.47
7107.77
6862.38
7236.65
6736.67
7117.29
-9.47914
-8.73467
-8.02559
-7.28822
-4.81546
-4.81356
-5.03618
-5.05576
-2.83018
-2.94939
-3.67203
-3.29614
-3.38892
-3.38194
-2.78363
-2.91886
-3.62827
-3.14139
-3.29927
-3.31301
-4.5431
-4.50834
-2.2941
-1.97068
-2.09512
-2.21677
-2.3077
-1.99013
-2.11929
-2.2342
-2.53881
-2.68347
-2.49898
-2.68548
15627.2
14979
14416.6
13931.4
10187.7
10195.6
9830.43
9819.87
9432.03
9422.81
9095.44
9008.76
7262.93
8014.06
7171.26
7912.52
6996.39
7777.46
7213.16
7957.82
7179.6
7880.39
6933.16
7763.47
6995.47
7600.27
6969.82
7612.01
6754.53
7199.79
6775.38
7212.13
-9.46674
-8.7431
-8.00118
-5.19393
-5.19501
-5.71947
-5.72187
-4.68787
-4.76151
-4.88303
-4.91813
-3.0717
-3.09493
-3.67903
-3.21114
-3.41515
-3.49904
-2.93144
-3.02269
-3.66423
-3.24815
-3.41914
-3.50217
-3.73979
-4.13653
-3.53602
-3.8475
-3.96585
-4.21432
-3.67226
-3.91573
15702.4
15126.6
14598.3
13953.4
10204.1
10163.4
9827.91
9788.17
9332.17
9254.12
7426.1
8299.66
8241.25
7385.23
8099.07
7508.8
8196.75
7390.07
8066.77
7440.04
7469.46
8302.89
7314.9
7023.62
8023.92
7506.97
7286.9
7028.79
8038.5
7522.3
6952.26
7356.75
6913.56
7364.44
-9.47124
-8.75551
-8.00609
-5.15615
-5.13454
-5.64388
-5.62867
-3.4423
-3.8695
-4.162
-3.55078
-3.90592
-3.70346
-3.67331
-3.95379
-4.2026
-3.68633
-3.97945
-3.75195
-4.8493
-4.85508
-3.74217
-3.55108
-3.73004
-3.54245
-3.34298
-3.67975
-3.4486
-3.75296
15843.6
15310.8
14811.8
11009.9
11005.4
10592.5
10573.9
10342.6
10300.8
9701.08
9657.47
7794.59
8543.32
7733.76
8343.08
7754.76
8606.2
7795.38
7720.15
8564.73
8528.23
7735.42
8326.5
7395.86
7890.53
7646.25
8388.34
7657.92
7446.36
8392.74
7916.83
-9.47045
-8.78348
-8.04945
-5.17051
-5.13382
-5.58964
-5.55835
-3.48066
-3.70285
-3.99955
-3.45097
-3.72517
-3.69832
-3.69773
-3.77722
-3.99085
-3.46175
-3.74163
-3.61319
-4.12622
-4.47665
-3.8075
-4.12627
-4.02253
-4.44293
-3.74947
-4.09247
-3.3471
-3.60766
-3.48233
-3.68263
16039
15546.4
15029.4
11026.6
10994.3
10650.9
10608.5
9997.73
9984.9
7965.92
8723.39
8703.8
8086.8
8606.13
8047.74
7944.52
8701.94
8694.47
8075.53
8595.46
8038.34
7898.33
7729.55
8658.27
8191.02
7732.66
8202.69
7889.95
8648.69
-9.50233
-8.79582
-5.93751
-5.54395
-5.51545
-5.93368
-6.39237
-6.39993
-5.13813
-4.09292
-4.34073
-5.11088
-3.98634
-4.30706
-3.4156
-3.64163
-3.80942
-3.4525
-3.66918
-3.63206
-3.54188
-3.66235
-3.78254
-3.47055
-3.66274
-3.57983
-3.79871
-4.01912
-3.69485
-3.97228
16299.5
15834
15331.5
11134
11115.2
10555
10584.4
8341.22
9038.44
8391.91
8998.97
8160.32
8794.2
8375.56
8163.93
8756.24
9033.03
8384.05
8988.51
8078.16
8503.58
8215.14
8818.83
8074.73
8489.79
8204.39
8791.73
7914.34
8406.99
7902.16
8397.82
-9.6062
-8.86736
-5.58746
-5.90076
-5.57372
-5.8993
-6.43018
-6.43137
-4.12862
-4.04348
-4.24427
-4.06801
-4.2765
-4.44603
-4.46237
-4.81993
-3.96554
-4.10755
-4.21875
-3.97152
-4.24684
-4.4369
-4.45467
-4.81155
-3.81539
-3.70323
-3.76444
-3.58511
-3.81895
-4.00369
-3.74789
-3.97237
16588.9
16075
11911.4
11088.1
11053.1
11899.9
11405.4
11406.4
10191.2
8507.28
9229.12
10181.8
8552.11
9235.86
8414.74
8674.91
8799.04
9297.57
8420.12
8811.01
8664.31
9302.12
8088.78
8519.55
8246.65
8614.85
8098.46
8514.68
8221.84
8595.44
-9.72782
-9.01948
-5.61988
-4.69305
-4.367
-6.11434
-5.61075
-4.69588
-4.37387
-6.09784
-6.46418
-6.45575
-4.02367
-4.04519
-3.79315
-4.04257
-4.21629
-4.37823
-4.03891
-3.75209
-4.05715
-4.01965
-4.21364
-4.37955
-3.86027
-3.72817
-3.82289
-3.63572
16800.8
16201.4
11948.8
10827.1
10868.2
11912.1
11476.4
11443.6
8621.25
8412.35
9038.86
8472.7
9096.2
9223.77
8598.85
9321.25
8634.02
8443.83
9048.49
8500.29
9102.19
9184.11
8660.02
9351.65
8589.06
8544.56
8942.13
9147.02
8525.49
8935.39
8544.53
9141.98
-10.169
-6.93828
-6.43385
-6.42045
-6.93158
-7.32411
-7.33372
-4.92234
-4.69182
-4.33085
-4.64594
-4.39614
-5.30405
-4.51636
-4.86223
-6.10681
-4.80657
-5.16536
-4.92281
-4.69976
-4.33781
-4.6489
-4.42246
-5.30088
-4.53449
-4.86735
-6.10241
-4.8134
-5.16762
-3.94642
-4.1613
-4.23379
-4.44806
-3.97565
-4.16181
-4.2393
-4.44912
16973.7
16377.6
11968.9
10744.2
9373.12
8688.29
10775.7
9361.97
8702.27
11924.1
11292
11306.6
8601.03
8848.62
8458.41
8997.58
9109.64
9468.19
8600.4
8755.48
8490.45
9123.6
8977.9
9418.56
8527.86
8955.27
8512.9
8951.26
-10.704
-6.56958
-7.18439
-6.54745
-7.17963
-7.54085
-7.5507
-4.12929
-4.46514
-4.65736
-4.4482
-4.473
-4.81361
-4.98583
-4.71763
-5.07144
-4.92045
-5.23877
-5.24347
-5.22776
-5.66775
-4.12253
-4.48389
-4.44991
-4.66475
-4.49927
-4.82171
-4.73135
-5.00645
-5.07719
-4.92623
-5.24331
-5.24996
-5.22236
-5.66271
17193.5
12472.2
11914.7
11882.7
12502.9
12107.4
12125.9
8941.24
9408.73
8801.66
9528.5
8788.83
9747.23
8984.71
9677.7
8998.57
9422.9
8847.38
9541.96
8782.94
9732.86
9010.52
9685.86
10958.9
9068.81
9835.06
10947.9
9122.89
9834.3
8711.29
8926.42
9182.49
9514.04
8756.55
8842.93
9204.1
9493.67
-13.1586
-6.80233
-5.62392
-5.2374
-7.61359
-6.7762
-5.61907
-5.22929
-7.60726
-8.43946
-8.44806
-4.41958
-4.68516
-4.61668
-4.88273
-4.84523
-5.04453
-4.61074
-4.80986
-4.98275
-5.24447
-4.44594
-4.6935
-4.6262
-4.88744
-4.87579
-4.62323
-5.05091
-4.81404
-4.99413
-5.24681
17047.8
12430.5
11794
11781.6
12468.6
12098.5
12094.4
8827.95
8955.92
9383.25
9438.39
9233.26
9821.24
8834.19
9013.67
9390.95
9459.59
9207.34
9814.88
9188.05
9140.61
9782.35
9042.31
9711.74
9754.03
9322.57
10058.1
9206.16
9104.91
9774.51
9089.92
9744.21
9760.02
9350.88
10057.1
-20.8291
-9.07961
-9.09387
-7.05176
-5.65598
-5.35827
-5.73652
-5.28864
-8.11015
-7.02965
-5.65184
-5.35474
-5.73303
-5.28371
-8.10643
-4.70707
-4.91636
-5.10394
-4.81816
-5.0026
-5.27318
-4.73024
-4.93829
-5.10655
-4.82616
-5.01079
-5.27512
17166.7
12475.8
11775.9
9928.56
9318.08
11753.7
9933.53
9318.02
12501.9
12184.3
12166.2
9027.56
9439.15
9174.99
9739.03
9022.04
9443.49
9164.06
9724.32
9289.9
9417.95
9122.28
9671.74
9651.29
9885.72
9325.94
9338.09
9071.33
9656.46
9667.83
9824.46
-19.7902
-10.7058
-12.1776
-10.721
-12.1929
-7.32352
-5.91755
-5.45135
-5.88128
-5.52433
-5.1918
-5.3464
-8.32936
-7.30757
-5.91429
-5.45764
-5.87957
-5.52315
-5.20386
-5.35121
-8.32438
-4.98535
-5.06456
-5.00589
-5.07124
17211.1
12465
12477.6
11844.1
9771.5
9335
9712.35
9355.24
11822.5
9781.79
9348.7
9724.38
9353.18
12103.6
12078.5
9399.94
9157.09
9459.1
9723.92
9472.88
9819.7
9357.55
9135.24
9354.35
9472.32
9654.46
9743.95
-12.1575
-11.8363
-10.06
-11.8506
-10.0732
-8.26479
-8.26106
-7.19894
-5.9033
-5.39148
-5.94661
-5.49276
-5.55203
-5.26908
-5.42522
-5.40706
-5.0587
-5.13795
-7.18142
-5.90108
-5.40371
-5.94568
-5.4947
-5.55549
-5.28908
-5.43241
-5.4174
-5.08086
-5.14573
17209.4
12469.8
12480.1
12470.9
12484.4
11681.5
9625.62
9346.64
9708.99
9283.31
9453.01
9806.64
11639.5
9630.42
9349.96
9707.06
9309.2
9424.27
9784.17
12180.9
12151.7
9404.27
9802.08
9408.5
9775.66
-10.9288
-8.38708
-8.05198
-8.39938
-8.06385
-8.17147
-8.03913
-8.16867
-8.03727
-6.88696
-6.87723
-5.39427
-5.14514
-5.71075
-4.77272
-5.58696
-5.25037
-5.43886
-5.40413
-5.42416
-5.1391
-5.23145
-5.3016
-5.38798
-5.15705
-5.70731
-4.7693
-5.58744
-5.25891
-5.44073
-5.40703
-5.43
-5.16293
-5.2399
-5.31867
17159.4
12477.3
12475.1
12481.5
12475.2
12219.3
12187.8
11581.3
9605.48
9144.63
9675.85
9197.21
9651.97
9415.26
9743.18
9378.4
9436.65
9829.4
11537.4
9598.83
9207.55
9674.29
9230.25
9618.84
9395.15
9734.53
9357.95
9482.35
9806.68
-10.0628
-7.42866
-7.35926
-7.43974
-7.37226
-7.70697
-7.41873
-7.70739
-7.41278
-6.93473
-7.21073
-6.92683
-7.20046
-4.78495
-4.00218
-4.55562
-4.2273
-4.77972
-4.00619
-4.5541
-4.22437
-4.51745
-5.00765
-5.15221
-4.47856
-4.5181
-5.01107
-5.14689
-4.4764
17041.4
12468.1
12460.5
12477.6
12493.6
12216.9
12190
12186.4
12158.2
11562.5
11508.5
10094.3
9245.48
9900.13
9441.11
9736.63
9311.45
9901.03
9304.77
9766.87
9502.4
9874.6
9421.06
10078.1
9252.02
9881.04
9406.28
9594.94
9160.81
9596.35
9255.31
9740.63
9503.48
9833.85
9419.05
-9.06352
-9.79062
-6.97956
-6.87614
-6.97635
-6.87398
-7.05424
-6.77349
-7.04111
-6.74975
-5.15646
-4.15983
-4.73388
-4.59605
-5.81431
-5.21139
-5.68319
-5.15327
-5.15143
-4.16789
-4.73475
-4.61214
-5.81849
-5.23468
-5.68919
-5.16678
-3.80258
-3.53721
-3.58145
-3.78486
-3.79797
-3.54023
-3.57867
-3.78124
17207.5
12421.1
12469.6
12461.5
12496.6
12104.5
12172.2
12074.4
12153.8
11555.3
11585.1
11504.8
11546.3
10138.3
9514.88
10190.7
9475.18
10122.1
9482.36
10171.7
9448.5
10161
9333.32
9876.97
9568.7
10100.9
9243.19
9750.99
9461.61
-8.91717
-6.33731
-6.41368
-6.32603
-6.402
-9.6155
-6.56254
-6.4852
-6.53777
-6.46265
-5.80162
-5.36223
-5.77776
-5.42973
-5.6923
-5.30577
-5.63267
-5.33891
-5.79945
-5.37606
-5.77949
-5.43098
-5.68832
-5.3016
-5.62942
-5.33529
-4.37484
-3.80483
-3.87309
-4.29813
-5.18805
-5.14578
-5.37125
-4.98386
-4.37878
-3.81109
-3.87449
-4.31014
-5.19648
-5.16808
-5.38136
-5.00162
16981.2
16377.8
12071.1
12094.8
12080.2
12107.5
11664.5
11830.4
11634.6
11811.7
10144.7
9512.26
10184.3
9478.81
10102.2
9281.05
9937.75
9451.06
10127.8
9480.55
10164.8
9446.4
10087.3
9276.99
9933.91
9416.72
10220.5
9588.63
10255
9572.26
10195.6
9559.05
10235.5
9528.4
-8.85229
-6.41095
-6.4307
-6.40709
-6.43552
-5.98354
-6.0502
-5.96838
-6.03277
-9.51484
-5.47352
-5.21845
-5.50566
-5.19553
-5.43815
-5.21998
-5.59756
-5.09509
-5.46199
-5.20545
-5.49826
-5.17019
-5.42699
-5.18183
-5.58224
-5.07167
-5.473
-5.29269
-5.51576
-5.2828
-5.35834
-5.0173
-5.23007
-5.18606
-5.47629
-5.30638
-5.52115
-5.29374
-5.36207
-5.04068
-5.23829
-5.20002
16800.1
16206.7
11921.5
11971.9
11887.8
11933.8
11759.5
11770.5
11730.9
11757.2
9604.6
9137.28
9677.82
9188.28
9610.7
9341.79
9695.33
9257.66
9611.06
9178.08
9692.45
9204.24
9613.58
9347.66
9699.53
9267.69
10216.3
9591.75
10264.3
9569.04
10194.4
9335.78
9871.09
9586.68
10194.8
9566.67
10246
9525.35
10155.8
9335.15
9863.96
9518.32
-8.15548
-8.80529
-5.96475
-5.96405
-5.95021
-5.95881
-4.81779
-4.8409
-5.10616
-4.84283
-5.13507
-5.19351
-4.88583
-5.31137
-4.86239
-5.16062
-4.82609
-4.86986
-5.11077
-4.86492
-5.14235
-5.20032
-4.88686
-5.3092
-4.87448
-5.16581
-9.48319
-5.10078
-4.92087
-5.14038
-4.89034
-5.03838
-4.7411
-5.09818
-4.93448
-5.1436
-4.88613
-5.03597
-4.73737
-5.18574
-4.90428
-5.04631
-5.04448
-5.19397
-4.93935
-5.0579
-5.0706
16583.2
16066.9
11955.8
11915.1
11920.5
11900.8
10950.5
11290.4
10941.1
11305.6
9762.11
9309.41
9685.74
9336.17
9932
9313.66
10047.9
9311.55
9768.66
9313.02
9691.6
9332.96
9934.33
9348.19
10055.9
9314.39
9644
9314.34
9893.61
9240.94
9638.02
9371.05
9652.2
9340.53
9584.42
9286.36
9856.65
9183.53
9621.14
9342.31
9638.43
9329.28
-8.07179
-5.69386
-5.72442
-5.67835
-5.71676
-8.7702
-5.74586
-5.70618
-5.73745
-5.69778
-4.77411
-4.66493
-4.95397
-4.92466
-4.65593
-4.92823
-4.6223
-4.99024
-4.6328
-4.90881
-4.80743
-4.67361
-4.96442
-4.92881
-4.66833
-4.9321
-4.63109
-4.99296
-4.63604
-4.91053
-9.47971
-4.89367
-4.83651
-4.9649
-4.7653
-4.83204
-4.67404
-4.89733
-4.86411
-4.97287
-4.78047
-4.83621
-4.68886
16288.6
15821.6
15323
11479.9
11404.9
11446.7
11399.7
9107.05
9205.89
9758.54
9033.93
9721.98
9761.77
8955.85
9748.11
9069.72
9847.71
9219.72
9135.05
9764.69
9099.47
9751.99
9770.86
9016.97
9746.36
9141.33
9861.61
9806.28
9353.82
9676.27
9426.44
9904.46
9418.82
9762.52
9329.81
9661.95
9363.78
9871.29
9362.77
9742.93
9425.9
9753.26
9342.48
9722.16
9408.52
9728.46
9344.33
-8.02901
-5.71557
-5.74915
-5.70967
-5.75163
-5.33444
-5.3483
-5.32454
-5.33272
-8.76593
-4.82613
-4.51416
-4.7864
-4.54843
-4.85098
-4.54672
-4.96496
-4.5626
-4.8314
-4.52119
-4.79095
-4.55718
-4.85476
-4.55472
-4.9657
-4.5706
-4.64391
-4.80356
-4.55069
-4.75457
-4.56126
-4.7802
-4.67088
-4.8126
-4.56168
-4.76024
-4.56871
-4.78304
-9.47697
16037.7
15533.6
15019.1
11095.2
11125.4
11059.2
11112.3
10800.5
10821.8
10825
10866.1
9236.99
9216.37
9735.22
9606.2
9148.67
9743.5
8992.76
9598.37
9163.76
9809.09
9321.59
9173.41
9619.23
9749.13
9089.56
9712.42
9017.97
9602.37
9119.17
9791.18
9719.51
9334.96
9652.64
9353.7
9703.79
9371.66
9666.92
9324.81
9626.21
9310.37
9672.93
9359.12
-7.30161
-8.04995
-5.33967
-5.30707
-5.31937
-5.30278
-4.25369
-4.35538
-4.43908
-4.25593
-4.46113
-4.70045
-4.2317
-4.58526
-4.25215
-4.48372
-4.26406
-4.35605
-4.44544
-4.26234
-4.46558
-4.70149
-4.2371
-4.58749
-4.25643
-4.48836
-8.75028
-4.63314
-4.34896
-4.63893
-4.36745
-4.63066
-4.36526
-4.63569
-4.36091
-4.64355
-4.3698
-4.63269
-4.36702
-9.48138
15850.5
15315
14802.7
11015.2
11001.5
10977
11003.9
10162.4
10572.5
10130.6
10606.7
9480.88
8676.24
9456.32
8789.56
9371.32
8622.18
9341.14
8673.15
9502.01
8678.63
9464.33
8828.28
9363.78
8667.67
9359.95
8699.44
9162.71
9515.23
8811.28
9234.21
8851.44
9301.52
9206.94
9525.7
8874.07
9254.83
8887.77
9305.79
-7.30211
-5.02457
-5.07828
-5.02703
-5.08911
-8.06274
-4.93005
-4.94452
-4.91206
-4.94215
-4.2508
-4.08975
-4.42867
-4.31502
-4.09043
-4.2708
-4.03986
-4.34364
-4.04846
-4.25689
-4.27367
-4.10091
-4.43727
-4.31676
-4.08607
-4.26807
-4.0301
-4.34185
-4.03962
-4.25432
-8.74417
-4.48618
-4.26741
-4.49355
-4.29147
-9.48503
15711.1
15137.7
14609.4
13929.7
10639.3
10584.2
10591
10578.2
8319.47
8637.67
8993.21
8449.97
9068
9189.47
8362.96
9077.18
8453.39
9147.54
8678.59
8386.82
9017.55
8458.8
9052.7
9159.57
8405.68
9077.19
8484.73
9146.57
9553.83
8814.31
9374.9
8929.07
9477.44
8797.54
9543.53
8808.47
9376.65
8869.05
9401.95
8696.96
-6.39856
-7.32113
-4.68951
-4.65081
-4.68192
-4.65259
-8.06271
-4.24269