/*--------------------------------*- C++ -*----------------------------------*\
| =========                 |                                                 |
| \\      /  F ield         | OpenFOAM: The Open Source CFD Toolbox           |
|  \\    /   O peration     | Version:  5.x                                   |
|   \\  /    A nd           | Web:      www.OpenFOAM.org                      |
|    \\/     M anipulation  |                                                 |
\*---------------------------------------------------------------------------*/
FoamFile
{
    version     2.0;
    format      ascii;
    class       volScalarField;
    location    "1";
    object      p_rgh;
}
// * * * * * * * * * * * * * * * * * * * * * * * * * * * * * * * * * * * * * //

dimensions      [1 -1 -2 0 0 0 0];

internalField   nonuniform List<scalar> 
12160
(
5681.8
5682.85
5681.61
5685.32
5682.56
5681.72
5689.83
5684.87
5682.59
5681.22
5696.54
5689.28
5684.48
5681.78
5681.47
5702.54
5696.38
5688.87
5683.03
5682.06
5680.41
5705.09
5702.95
5696.71
5687.24
5681.85
5681.35
5681.22
5701.39
5706.16
5704.48
5696.06
5685.89
5679.33
5682.19
5679.32
5689.42
5702.6
5708.93
5705.76
5696.16
5682.95
5676.36
5681.28
3927.66
5668.92
5691.02
5706.71
5712.08
5708.48
5694.44
5679.4
5658.31
3949.87
198.93
5641.02
5670.44
5694.85
5710.63
5717.82
5710.5
5693.08
5648.35
3766.28
217.875
3.76347
5607.89
5642.19
5673.78
5699.82
5718.86
5723.81
5714.07
5657.8
3724.53
248.507
0.239259
0.0502426
5571.86
5608.57
5644.69
5678.36
5707.91
5726.72
5732.96
5697.54
3819.61
299.716
0.879581
0.0210502
-0.0144427
5535.13
5572.06
5610.04
5648.11
5685.45
5717.38
5739.9
5737.99
4012.15
401.626
1.77208
0.0522339
0.0141617
0.0203778
5499.47
5534.89
5572.49
5611.92
5653.39
5694
5730.12
5750.56
4192.23
563.723
4.12402
0.0569287
0.0409856
0.0116428
-0.0103941
5466.19
5498.88
5534.43
5572.84
5614.99
5659.59
5705.09
5745.72
4260.9
760.12
8.97988
0.0526917
0.0394965
0.0241296
0.000284953
5436.19
5465.35
5497.72
5533.46
5573.78
5618.21
5667.56
5719.51
4206.35
877.838
18.3551
0.0110756
0.0273123
0.0212536
0.00532158
5410.01
5435.18
5463.67
5495.71
5532.59
5574.14
5622.45
5678.06
3999.35
871.872
29.5591
-0.0334771
-0.0143476
0.0144738
0.00334086
5387.89
5408.89
5433.15
5460.93
5493.45
5530.56
5574.99
5627.5
3677.9
760.373
33.7748
-0.0330374
-0.0749638
-0.0108088
-0.00124459
5369.9
5386.71
5406.64
5429.92
5457.67
5489.61
5528.75
5575.52
3293.06
589.05
27.8437
-0.0135123
-0.116707
-0.0424235
-0.0107424
5355.97
5368.68
5384.34
5403.11
5426.01
5452.55
5485.92
5525.61
2887.38
422.82
16.3018
-0.0423928
-0.135927
-0.0649811
-0.0194636
5345.96
5354.74
5366.26
5380.66
5398.81
5420.05
5447.65
5479.85
2490.72
286.523
7.88787
-0.0521614
-0.116907
-0.0745139
-0.0231449
5339.72
5344.73
5352.29
5362.51
5376.14
5392.36
5414.47
5439.39
2121.9
185.07
3.50778
-0.027422
-0.0727263
-0.0673821
-0.0238064
5337.09
5338.48
5342.27
5348.53
5357.89
5369.45
5386.47
5404.69
1791.87
114.942
1.48542
0.00489807
-0.0290824
-0.0430664
-0.0213918
5337.89
5335.84
5336.02
5338.5
5343.86
5351.11
5363.47
5375.7
1505.77
69.4133
0.619355
0.030857
0.0014728
-0.0181142
-0.0139753
5342.01
5336.63
5333.35
5332.24
5333.83
5337.07
5345.16
5352.12
1264.72
41.3658
0.274347
0.0461755
0.019779
4.84985e-05
-0.00622666
5349.29
5340.72
5334.11
5329.55
5327.55
5327.05
5331.19
5333.52
1067.33
24.8033
0.144597
0.0522399
0.0309828
0.0113151
-0.000267901
5359.63
5347.99
5338.17
5330.27
5324.82
5320.77
5321.23
5319.43
910.775
15.3251
0.0990896
0.0556875
0.0359558
0.0181136
0.00358022
5372.88
5358.3
5345.39
5334.26
5325.48
5318.02
5314.99
5309.43
791.748
10.0154
0.0848069
0.0585296
0.0386909
0.0214051
0.005899
5388.89
5371.54
5355.66
5341.4
5329.39
5318.6
5312.22
5303.16
706.977
7.08425
0.0809766
0.06063
0.0408335
0.0232017
0.00708595
5407.49
5387.56
5368.87
5351.6
5336.45
5322.38
5312.72
5300.32
653.544
5.50524
0.0796749
0.0615282
0.0426161
0.024463
0.00773582
5428.43
5406.17
5384.88
5364.75
5346.55
5329.28
5316.38
5300.68
629.14
4.70469
0.0780818
0.0614577
0.0436975
0.0254754
0.00816462
5451.46
5427.17
5403.53
5380.74
5359.64
5339.23
5323.1
5304.12
631.828
4.39522
0.0774015
0.0605631
0.043847
0.0260815
0.00848368
5476.22
5450.28
5424.62
5399.43
5375.61
5352.19
5332.85
5310.62
660.672
4.44603
0.0776383
0.0599437
0.0435077
0.0261843
0.0086735
5502.34
5475.17
5447.9
5420.64
5394.36
5368.1
5345.6
5320.17
715.183
4.86029
0.0783218
0.0598837
0.043221
0.0260279
0.00871019
5529.35
5501.46
5473.05
5444.15
5415.75
5386.89
5361.34
5332.8
795.185
5.73009
0.0796196
0.0604105
0.0431921
0.02585
0.00864914
5556.76
5528.69
5499.69
5469.65
5439.56
5408.46
5380.03
5348.56
900.765
7.26887
0.0819988
0.0616442
0.0435943
0.0258247
0.00862279
5584.02
5556.37
5527.38
5496.79
5465.53
5432.64
5401.62
5367.46
1032.02
9.85586
0.084795
0.0634611
0.044463
0.0260761
0.0086431
5610.58
5583.96
5555.62
5525.14
5493.33
5459.21
5426
5389.52
1188.92
14.0893
0.0873845
0.0652964
0.0455815
0.0266052
0.00872025
5635.91
5610.87
5583.85
5554.19
5522.55
5487.86
5453.01
5414.69
1371.07
20.8623
0.0916514
0.0665428
0.0466731
0.0272609
0.00886638
5636.57
5675
5611.5
5583.38
5552.69
5518.21
5482.4
5442.83
1577.56
31.43
0.101607
0.0671328
0.0474407
0.0278795
0.009063
5637.97
5676.28
5716.56
5612.1
5583.17
5549.76
5513.83
5473.72
1806.76
47.4462
0.125573
0.0670913
0.0476299
0.0283354
0.0092792
5639.73
5678.99
5718.7
5739.12
5613.37
5581.95
5546.83
5507.01
2056.21
70.932
0.180091
0.0666237
0.0473167
0.0284849
0.00943105
5642.58
5682.69
5723.27
5741.89
5743.28
5614.09
5580.85
5542.26
2322.56
104.179
0.297763
0.0660812
0.0468253
0.0283453
0.0094846
5645.4
5688.26
5729.57
5747.92
5746.37
5734.24
5615.22
5578.88
2601.54
149.535
0.53858
0.0652856
0.0462793
0.0280705
0.00945474
5649.02
5694.58
5738.82
5755.76
5752.76
5736.17
5697.49
5616.17
2888.26
209.121
1.01227
0.0630172
0.0453572
0.0276953
0.00937344
5653.27
5702.39
5749.79
5767.84
5761.99
5741.59
5700.35
5684.91
3177.73
284.644
1.90091
0.0565699
0.0431095
0.0269731
0.0092322
3462.53
5712.21
5763.39
5781.81
5774.9
5750.2
5708.16
5683.62
5587.87
377.227
3.5075
0.044607
0.0380589
0.025374
0.00894227
486.336
3893.36
5780.4
5799.61
5790.3
5762.25
5719.89
5686.64
5572.72
5500.08
6.29153
0.0284719
0.0294924
0.0221959
0.00833846
10.6446
686.419
4393.13
5820.54
5811.27
5777.59
5734.03
5692.61
5591.48
5505.09
5344.28
0.0100048
0.0177303
0.0169437
0.00721548
-0.00779424
21.4945
981.764
4695.23
5833.6
5796.95
5749.77
5702.76
5624.12
5538.81
5344.86
5385.17
-0.000710202
0.00953934
0.00539838
-0.0247892
-0.018561
45.0426
1192.14
4797.83
5810.87
5767.12
5716.44
5654.51
5584.68
5407.63
5417.97
5328.24
5337.38
-0.00147653
0.00283732
-0.0152103
-0.0692933
0.0849371
60.7652
1237.17
4763.62
5763.04
5731.71
5678.77
5628.41
5530.08
5492.04
5388.07
5243.6
5285.19
5313.16
-0.000854936
-0.00520647
-0.0411568
-0.126638
0.178806
56.9473
1103.64
4617.07
5706.14
5697.2
5661.87
5618.99
5575.57
5464.91
5326.3
5086.74
5184.01
5262.99
5322.33
-0.0135384
-0.074162
-0.162801
0.0835685
38.6426
851.249
4388.44
5657.65
5682.42
5661.87
5632.69
5543.77
5420.63
5192.7
4853.68
5011.77
5158.85
5275.98
5368.64
-0.0238923
-0.0908898
-0.16297
-0.0129543
21.6704
619.157
4163.03
5637.69
5679.8
5663.75
5599.11
5500.06
5301.49
4999.98
4466.4
4733.33
4980.32
5175.28
5328.73
5452.37
-0.0292085
-0.0942917
-0.139673
-0.0428219
11.7666
457.87
4023.27
5632.29
5681.55
5623.85
5551.79
5391.15
5140.23
4719.55
3954.02
4272.74
4679.09
5002.13
5234.92
5413.41
5561.54
-0.0326738
-0.0827258
-0.0966795
-0.0229416
6.47608
358.587
3934.57
5653.07
5634.35
5579.34
5459.34
5255.81
4935.87
4311.99
2593.56
3646.54
2598.46
2883.8
2887.95
4205.84
4710.01
5077.93
5333.1
5527.69
5689.55
-0.0349928
-0.0621003
-0.0525434
-0.00279139
3.63707
284.992
3950.6
5564.85
5594.73
5498.85
5339.21
5089.16
4659.27
3844.68
2372.18
2280.07
3603.08
2374.78
2220.02
2220.86
2280.25
2584.54
2586.39
4273
4822.65
5196.67
5458.25
5661.33
5832.87
-0.0347133
-0.0403429
-0.0232299
0.0078854
2.03309
241.708
3555.48
5527.04
5521.32
5389.21
5192.15
4891.08
4307.46
2723.57
2719.39
3036.47
3038.5
2058.63
1976.76
3748.25
2847.43
2057.01
1931.15
1930.43
1966.27
2370.47
2362.69
4453.09
4991.41
5345.71
5601.52
5807.31
5979.25
-0.0320062
-0.0259769
-0.00821508
0.0152276
1.12213
181.746
3315
5380.4
5419
5254.7
5022.85
4635.61
3318.92
3320.3
3588.53
3588.76
2506.56
2501.07
2884.24
2879.65
1765.84
1713.49
1439.14
1511.09
1632.91
4058
3342.95
1930.85
1921.07
1757.97
1751.47
1760.69
1745.11
1745.74
1708
1440.97
1509.24
1619.77
1918.05
1998.2
2119.36
1808.37
1910.57
1975.18
2112.73
1790.8
4715.1
5184.65
5506.85
5754.87
5957.4
6122.65
-0.0298784
-0.0186296
-0.000693373
0.0148078
0.728058
125.033
2805.32
5164.51
5300.4
5096.21
4822.35
3808.29
3807.39
4016.78
4015.94
3180.63
3172.53
3463.92
3453.86
2051
1941.08
2089.04
2243.07
2315.72
1948.42
1940.74
2071.84
2091.92
2246.81
2317.13
1949.92
2601.57
2679.1
2440.66
2516.42
2600.25
2676.75
2442.4
2517.45
1437.43
1347.9
1443.47
1346.47
1667.69
1458.22
1499.23
1632.47
4466.56
3845.98
2214.99
2195.13
2093.94
2074.48
1920.67
1910.46
1664.73
1664.73
1440.35
1348.28
1442.36
1347.83
1446.24
1241.26
1405.37
1305.77
1448.69
1250.61
1407.8
1307.9
1662.29
1454.23
1495.13
1619.26
1835.22
1793.41
1831.31
1780.5
4979.18
5375.37
5671.45
5911.38
6102.56
6258.31
-0.0295782
-0.0150223
0.00467963
0.0186769
0.394033
75.7305
2197.61
4902.75
5146.69
4933.93
4148.25
4146.09
4311.94
4313.33
3687.02
3677.69
3901.95
3892.08
2745.17
2815.15
2871.56
2939.41
2741.96
2811.93
2872.3
2937.69
3160.44
3246.43
3013.24
3088.55
3161.83
3245.43
3013.64
3086.72
1895.34
2094.6
2107.44
1947.86
2266.93
2267.39
1919.04
2107.56
1948.7
2110.65
2274.04
2271.5
2606.79
2601.83
2449.3
2447.25
2607.88
2602.14
2451.13
2449.14
1445.54
1363.36
1444.39
1326.58
1715.08
1519.96
1596.44
1667.9
4827.71
4437.46
2470.33
2448.8
2336.19
2315.55
2283.1
2258.8
2116.99
2093.66
1354.76
1697.22
1313.82
1614.48
1356.13
1692.02
1315.88
1607.05
1232.02
1172.21
1367.19
1273.33
1514.72
1372.87
1257.94
1183.49
1371.27
1283.79
1507.73
1373.92
1447.68
1366.36
1441.27
1331.41
1435.53
1283.03
1438.49
1283.18
1707.96
1511.87
1591.6
1651.43
1850.8
1804.22
1846.57
1792.26
5216.23
5557.96
5838.37
6061.07
6240.52
6379.15
-0.0308492
-0.0125192
0.00970669
0.0210435
0.196356
41.2295
1512.86
4416.92
4942.62
4430.61
4433.02
4538.7
4539.77
4056.16
4050.98
4205.85
4205.77
3279.62
3367.33
3377.83
3479.46
3277.26
3366.08
3378.14
3479.63
3614.99
3758.42
3479.26
3594.62
3610.69
3756.02
3478.56
3593.83
2747.35
2735.25
2887.89
2855.26
2747.8
2735.18
2888.47
2857.56
3160.14
3112.98
3022.9
2973.68
3163.94
3115.51
3024.03
2976.91
1509.27
1429.29
1509.12
1408.02
5119.54
4859.87
2711.76
2703.08
2609.35
2592.47
2484.8
2468.02
2401.64
2381.62
1505.44
1837.53
1452.52
1795.18
1513.77
1837.55
1457.89
1794.95
1383.85
1738.16
1409.18
1764.78
1383.31
1735.1
1414.88
1762.42
1398.57
1628.26
1370.07
1582.54
1407.04
1624.45
1370.34
1576.24
1283.09
1266.15
1411.2
1384.02
1318.33
1504.94
1297.53
1267.68
1411.64
1393.96
1316.49
1497.11
1505.17
1422.11
1503.3
1400.86
1452.65
1357.33
1461.11
1360.79
5426.21
5737.9
5995.04
6203.26
6364.12
6478.95
-0.0317353
-0.0107204
0.0158396
0.0314025
0.130849
18.0928
743.617
3646.87
4627.92
4327.91
4329.5
4426.43
4427.38
3935.57
3934.04
4103.61
4100.22
3271.3
3236.91
3372
3360.35
3272.43
3238.34
3372.72
3362.3
3589.5
3622.15
3465.41
3486.86
3586.42
3622.02
3464.87
3488.23
3152.09
3132.55
3159.79
3136.27
5328.14
5155.72
2944.68
2959.96
2830.9
2828.32
2723.1
2709.06
2608.03
2590.04
1586.78
2144.65
1653.49
2086.17
1592.87
2149.04
1661.01
2081.24
1568.85
1902.65
1614.6
1980.62
1574.16
1901.56
1628.69
1978.85
1578.12
1734.45
1514.51
1699.52
1580.62
1733.99
1508.83
1698.53
1444.32
1656.9
1478.55
1682.31
1443.26
1651.63
1472.97
1677.18
5619.98
5905.19
6143.08
6331.89
6467.33
6548.37
-0.0320172
-0.00796164
0.0246128
0.0537017
0.107421
6.35996
296.824
2566.11
4237.84
4240.29
3692.47
3694.75
4238.32
4233.74
4325.56
4326.38
3754.3
3653.39
3640.1
3716.69
3752.25
3652.59
3640.34
3715.78
3875.24
3905.44
3980.81
3806.65
3872.65
3904.14
3979.98
3803.37
3237.82
3227.16
3339.35
3355.96
3245.07
3230.67
3343.39
3358.95
3554.98
3538.82
3415.23
3462.27
3557.97
3539.97
3419.85
3464.45
5515.19
5343.54
5207.53
2855.5
2862.02
2816.77
2804.64
2635.95
2611.14
2550.97
2542.45
1647.16
2123.59
1724.63
2025.53
1647.51
2123.53
1727.15
2020.45
1649.45
1816.97
1702.58
1913.48
1649.57
1813.26
1706.14
1908.14
1640.06
1693.01
1647.79
1691.15
5799.34
6057.74
6278.32
6442.03
6539.06
6584.11
-0.0304653
-0.0039738
0.0392454
0.097105
0.0927592
2.099
94.4361
1147.93
4116.86
4120.26
2961.73
2964.72
3977.33
4058.18
4154.38
4050.2
3979.18
4058.43
4155.01
4056.04
4245.6
4245.3
3673.94
3629.98
3593.88
3695.9
3672.37
3635.11
3594.42
3697.29
3770.79
3875.56
3877.08
3791.62
3769.94
3868.79
3876.62
3788.14
3557.18
3523.06
3563.24
3525.41
5707.33
5511.83
5409.19
3114.97
3114.15
3034.36
3007.51
2904.81
2868.25
2747.98
2704.06
2072.4
1665.72
2073.97
1672.77
2066.8
1668.05
2063.65
1670.16
2092.43
1711.52
2118.64
1676.77
2092.83
1715.87
2123.93
1680.52
1766.07
2031.45
1776.63
1957.72
1775.98
2036.22
1780.24
1955.34
1693.56
1764.39
1741.93
1865.14
1698.04
1758.7
1746.24
1858.7
5952.5
6198.96
6398.2
6518.94
6576.05
-0.0301065
0.00663579
0.056832
0.17526
0.0721519
0.845176
13.8024
589.117
589.056
133.763
133.673
3618.41
4192.72
3215.43
3892.49
3617.43
4193.92
3217.29
3897.02
2117.77
2122.29
3936.16
3957.85
4042.5
4005.8
3934.46
3958.26
4044.01
4007.46
3869.11
4149.26
4007.67
4066.87
3870.12
4147.09
4011.46
4066.2
3782.86
3833.81
3849.25
3771.85
3782.97
3832.78
3849.53
3771.6
5856.74
5706.38
5598.9
5588.74
3057.84
3019.4
2882.92
2847.26
2774.52
2740.08
1702.24
2144.74
2089.26
1581.77
1683.66
2119.71
2083.38
1560.56
2049.77
1782.8
2112.88
1764.65
2050.54
1788.77
2109.51
1768.51
2006.27
1749.67
1987.3
1743.49
2010.67
1762.27
1995.85
1745.06
1748.43
1945.1
1767.02
1954.53
6093.73
6326.99
6484.66
6559.18
-0.0258695
0.0208327
0.0735036
0.235709
0.11163
0.411379
7.32764
7.32262
2.04487
2.03426
221.631
221.536
17.0514
17.0767
3367.61
4068.73
2758.99
3530.41
3373.59
4070.93
2765.12
3538.11
1813.18
799.57
1144.35
1398.61
1819.96
798.481
1148.31
1401.93
3885.62
3903.3
3969.89
3966.83
3884.13
3903.31
3970.95
3965.97
3837.32
4069.17
3915.18
4001.73
3844.8
4068.52
3920.47
4001.42
5981.65
5839.25
5771.82
5753.53
3123.48
3095.88
3026.6
3000.76
2766.25
2761.36
1684.59
2136.94
1535.88
2147.31
1679.92
2126.67
1543.55
2140.38
1679.17
2113.47
1736.17
2159.4
1745.99
2344.98
1696.36
2106.75
1744.32
2154.62
1722.93
2327.87
1843.03
2298.89
1832.23
2282.91
1852.93
1587.35
1860.22
1645.49
1860.54
1619.75
1867.15
1671.17
6221.01
6431.27
6531.92
-0.0217127
0.0412748
0.0830742
0.278806
0.304347
1.90632
3.6365
3.62082
2.50217
2.46968
69.5111
564.377
133.57
5.86711
19.1453
572.643
565.062
69.6669
574.082
133.807
5.87042
19.1706
3.82793
3.49347
4.07496
4.72237
3.78135
3.47404
4.06121
4.72708
2979.64
3924.44
2575.3
3540.6
2989.96
3929.89
2587.39
3550.95
840.584
842.563
842.336
844.539
3960.83
3943.69
3961.15
3943.6
3564.01
4048.35
3574.2
4048.82
6095.11
5926.73
5886.46
5896.38
3195.76
3189.51
3140.47
3104.13
2936.12
2928.11
2796.89
2798.01
2303.14
1501.84
2175.67
1721.46
2305.85
1678.93
2283.7
1518.19
2159.78
1714.93
2277.74
1649.11
1819.59
2311.19
1813.93
2302.53
1831.1
2160.73
1850.81
1756.45
2113.73
2084.72
1819.01
2154.32
1831.35
1770.69
2104.56
2081.56
1645.87
1959.25
1666.38
1958.97
6354.42
6490.64
-0.012236
0.0655959
0.0945293
0.210503
1.3202
5.11036
4.51793
4.87153
4.41114
3.47774
3.44348
3.65287
3.50675
249.643
14.5129
53.0178
230.116
4.03834
3.6525
250.186
14.5837
230.669
53.1156
4.00431
3.63586
3.78013
3.68029
3.80882
3.73267
3.73864
3.66064
3.78078
3.7203
1863.04
2456.4
1872.12
2464.05
6239.04
5995.76
5962.81
6008.73
5989.22
3043.96
3006.42
3115.1
3064.55
1426.14
2052.88
1586.42
2133.95
1431.5
2037.66
1605.89
2124.19
1498.95
1593.79
2059.91
1576.65
2096.91
2257.93
1563.53
1587.87
2071.61
1613.92
2091.32
2258.62
2249.27
2163.96
1773.45
1782.79
2255.93
2167.7
1756.29
1794.15
1710.94
2060.55
1745.46
2066.1
1745.2
1997.85
1719.99
2012.63
1781.72
2004.48
1707.9
2006.32
6427.22
-0.00825069
0.0924386
0.118621
0.259255
1.85821
6.09623
4.4697
5.70814
5.04078
4.72195
3.96878
4.2032
4.22572
4.23353
3.83368
4.14702
3.86554
5.31927
4.20704
3.84852
3.71508
3.86402
3.71562
3.80029
3.69883
3.84135
3.70396
6321.34
6105.39
5996.53
6080.8
6160.77
3239.08
3234.67
3155.89
3146.18
3123.89
3116.44
2844.85
2858.41
1623.46
2293.96
1862.23
2472.43
1624.88
2284.07
1828.31
2452.14
1581.37
1674.85
1985.07
2114.55
1863.37
2323.01
1643.83
1683.8
2119.85
2013.2
1827.38
2309.62
2098.73
1718.76
2105.89
1731.5
-0.0030608
0.0846518
0.143637
0.270228
3.25144
4.64594
1.93457
2.25924
6.18389
5.08053
6.23179
6.27405
5.53603
4.0313
5.26771
4.54392
4.48852
3.82449
4.50103
3.94113
5.94092
6.67042
4.95105
5.25271
3.90315
4.31256
3.85789
4.34773
3.97856
4.38067
3.92237
3.97824
6194.14
6066.72
6092.99
6240.37
6170.03
3039.16
3080.41
3131.94
3110.15
2914.83
2898.24
2148.93
1691.14
2338.79
1470.02
2104.47
1687.76
2316.91
1445.13
1698.74
2105.88
1762.66
2148.96
1756.71
2130.97
1777.89
2158.47
0.00380674
0.093822
0.147392
0.255644
2.76572
4.48675
2.03412
2.23544
6.04055
5.53
5.0319
5.35711
3.61906
5.61161
3.62972
3.67861
5.27929
4.74731
3.52307
5.5111
4.88399
5.61545
5.26356
4.24461
5.30906
4.50035
4.59096
3.93912
4.84925
3.91241
5.12964
5.42901
3.36567
3.86693
6144.22
6150.16
6242.96
6417.2
3177.03
3184.88
3159.52
3148.97
3106.27
3097.19
3114.72
3028.15
1533.12
2284.14
1608.52
2349.74
1571.68
2352.7
1483.43
2227.98
1616.86
2317.63
1508.39
2338.7
1719.48
2324.25
1693.82
2335.98
1611.63
2056.88
1632.47
2069.22
0.0161406
0.0848851
0.170207
2.14627
2.17972
1.95432
1.95191
2.97661
3.52356
2.21339
2.30792
5.74175
3.79292
2.96828
3.1351
2.81817
4.07224
4.11757
3.37069
3.38713
3.86141
2.90811
4.50186
2.67919
3.1147
2.75977
2.43353
2.93594
3.27153
3.15688
2.37091
6219.44
6298.04
6425.99
6443.68
3198.04
3157.32
3164.71
3125.01
3020.82
2942.82
1700.36
2573.9
2190.5
1498.07
2211.93
1457.53
2146.1
1502.94
2179.65
1389
1743.73
2577.13
1728.88
1597.39
2437.88
2080.72
1700.89
1602.57
2452.49
2096.07
1642.34
2046.81
1603.64
2054.52
0.0115082
0.0716292
0.161005
2.1782
2.2054
2.02501
2.04024
2.98485
3.02863
3.01352
3.05021
3.37651
3.06381
2.785
2.88254
3.04377
2.90728
3.64146
3.00749
2.22624
2.3098
2.59372
2.6018
2.55163
2.61642
2.93239
2.6307
2.86111
2.60779
6360.69
6482.73
6640.95
3336.1
3331.65
3252.42
3233.8
3339.86
3298.12
3040.29
2996.75
1397.85
2146.48
1514.22
2123.51
1705.38
2556.84
1398.68
1670.78
2515.35
2131.44
1515.89
2106.93
1641.46
2136.12
1731.09
2473.18
1742.77
1691.98
2477.57
2162.44
0.0120392
0.0418091
0.108543
2.15393
2.20228
2.07085
2.10212
3.02424
3.22332
3.38027
3.36693
3.53501
3.16463
2.80466
3.42466
3.63385
3.13652
3.93908
3.13777
2.94543
2.6229
3.10871
3.08022
3.05525
2.82362
3.15549
3.70112
3.19372
2.75892
2.97501
2.74931
6556.28
6719.28
6862.33
3357.67
3325.38
3317.04
3274.67
3003.32
2990.5
1561.02
2318.46
1960.06
1508.63
2027.92
1303.89
1539.58
2297
1950.76
1497.32
2017.23
1294.55
1646.71
1650.73
2406.64
2112.18
1653.84
2123.84
1638.32
2397.05
-0.0203818
0.0265212
2.04369
2.10586
2.13433
2.04747
1.92717
1.91962
2.16865
2.97308
2.75897
2.20097
3.09168
3.00765
4.18639
4.08454
3.78493
4.59366
5.12044
3.67584
2.96474
3.24308
4.37997
3.14794
4.35713
3.16258
3.16278
3.10005
3.25047
3.85981
6816.99
7008.69
7173.49
3473.47
3454.68
3231.94
3261.39
1270
1967.1
1493.24
2100.25
1424.89
2058.72
1304.34
1428.45
2020.75
1961.74
1485.34
2089.78
1655.5
2080.89
1639.16
2242.82
1652.04
2067.09
1628.36
2215.7
1608.69
2101.34
1596.53
2092.17
-0.125093
-0.0498496
2.05144
2.0706
2.06511
2.07198
1.88339
1.8822
3.08136
3.00117
2.80102
2.98953
2.79562
2.76399
2.92051
2.56304
3.08581
3.10333
2.85278
3.10024
2.9504
2.77319
2.92818
2.57135
3.68713
3.74144
4.29564
3.20532
3.12044
2.9934
3.31245
3.32964
7106.91
7252.66
3591.84
3438.34
3403.26
3580.32
3424.21
3425.25
2884.75
1441.71
2163.49
2875.4
1486.52
2170.23
1687.74
1777.44
2072
2400.06
1693.06
2083.96
1766.75
2404.56
1635.58
2066.32
1651.39
2019.56
1645.23
2061.44
1626.52
2000.14
-0.247918
-0.206303
2.00581
2.68489
3.01105
1.84666
2.01488
2.68203
3.00413
1.86286
1.84234
1.8508
3.03581
3.16484
3.128
2.87858
2.84322
2.83182
3.02084
3.25168
3.15291
3.03467
2.84588
2.83051
3.12257
3.22906
3.49879
3.38992
7319.76
7383.95
3635.29
3188.21
3229.39
3598.49
3505.07
3472.33
1411.31
1367.81
1994.28
1415.3
2038.75
2013.76
1216
1938.29
1424
1399.21
2003.88
1442.82
2044.72
1974.09
1277.17
1968.74
1841.09
1642.06
2194.14
2244.49
1777.46
2187.37
1641.94
2239.41
-0.689174
1.71485
1.87258
1.88654
1.72262
1.68153
1.67121
2.77588
2.68182
3.03746
2.72238
2.97763
2.39428
3.00967
2.66383
2.00323
2.88167
2.52613
2.77527
2.67387
3.03053
2.71943
2.95128
2.39733
2.99154
2.6587
2.01029
2.87468
2.52326
3.14827
3.06743
2.8609
2.78067
3.11906
3.06695
2.85541
2.77963
7493.8
7565.36
3662.78
3118.55
1995.19
1310.27
3150.07
1984.03
1324.25
3618.03
3334.21
3348.93
1541.58
1638.62
1537.3
1938.08
2188.51
2258.16
1540.87
1545.41
1569.25
2202.43
1918.38
2208.49
1736.71
2164.11
1721.7
2160.08
-1.1407
1.74891
1.65102
1.7749
1.66365
2.14897
2.12541
3.12857
2.91643
2.72407
2.80967
3.04286
2.7018
3.43309
3.23386
3.9828
2.77999
2.59557
3.45719
2.983
2.50389
3.13536
2.89791
2.80797
2.71673
3.01699
2.69386
3.23488
3.46851
3.97909
2.77483
2.58895
3.44603
3.02868
2.52462
7714.18
3491.18
3613.17
3581.23
3521.92
3463.77
3482.35
1243.08
2035.11
1433.42
2160.2
1415.14
2048.9
1458.75
2151.67
1300.5
2049.27
1479.05
2173.64
1409.19
2034.64
1484.56
2159.82
3010.16
1381.03
2147.19
2999.19
1435.09
2146.46
1616.66
1697.75
2087.82
2285.34
1661.83
1614.17
2109.39
2264.93
0.714149
1.66427
2.84557
3.1703
1.4012
1.69699
2.86433
3.23259
1.41932
2.84117
2.87666
2.98782
2.72453
2.94955
2.8016
3.49599
3.64852
3.22911
4.15778
5.17357
4.60574
2.96501
2.71695
2.94243
2.79492
3.50272
3.22593
3.70805
4.16759
5.1678
4.61491
7569.08
3451.21
3495.12
3482.8
3489.41
3457.38
3453.46
1570.12
1574.68
2125.41
2057.12
1718.06
2306
1576.31
1632.43
2133.09
2078.32
1692.14
2299.62
1334.52
1458.07
2099.73
1360.38
2029.65
1900.45
1287.47
2022.9
1352.67
1422.33
2091.88
1407.9
2062.13
1906.47
1315.85
2021.92
12.1595
4.57456
4.6291
1.78597
3.46531
3.89097
4.68178
3.48185
1.9082
1.80955
3.46963
3.94823
4.66462
3.53023
1.9391
3.24096
3.50971
3.89245
4.9006
5.84302
5.63645
3.2221
3.51197
3.94346
4.96196
5.84577
5.63708
7690.29
3500.12
3478.37
1895.84
1285.32
3456.19
1900.85
1285.38
3526.37
3549.3
3531.29
1624.13
2035.72
1650.68
2214.67
1618.64
2040.05
1639.69
2199.93
1611.65
1569.13
1571.22
1993.47
2100.21
2036.82
1647.7
1489.22
1520.25
2105.36
1989.58
1975.55
11.8516
26.7698
51.4117
26.6998
51.1337
3.32314
4.02209
4.08986
7.01698
3.76169
4.14876
6.92586
26.2241
3.36261
4.0133
4.12512
6.99361
3.77147
4.18116
6.87084
26.2772
3.30134
5.59055
3.29984
5.59872
7736.34
3493.37
3505.98
3554.5
1736.71
1295.81
1673.01
1320.44
3532.89
1746.96
1309.35
1684.95
1318.37
3476.15
3451.1
1716.01
1584.27
1604.5
2039.97
1900.06
1965.01
1673.6
1562.46
1499.64
1899.5
1970.51
1889.21
-0.0358149
49.6263
19.7877
49.179
19.5691
76.4436
76.2032
45.0793
4.73641
11.7605
20.9947
4.00183
4.89099
4.17816
8.0448
3.70091
3.21438
4.54634
45.1471
4.71727
11.3906
21.5
3.9586
4.91224
4.17298
8.048
3.67187
3.20525
4.55958
7734.57
3500.33
3510.93
3501.43
3515.22
3408.05
1600.04
1308.33
1670.53
1257.62
1585.09
1938.61
3366.11
1604.75
1311.52
1668.56
1283.44
1556.21
1916.09
3556.41
3527.18
1696.33
2094.11
1700.5
2067.68
-1.45007
6.61645
3.82556
6.62889
3.7739
71.4772
13.663
71.4891
13.4648
82.4416
82.1624
105.961
35.3136
59.0651
65.7343
9.08452
21.2979
42.3188
5.19448
5.29419
3.26926
4.67722
3.343
106.051
33.8456
61.6938
64.2603
9.01566
20.4854
41.8785
5.0369
5.34684
3.25133
4.70441
3.3113
7682.99
3508.14
3505.58
3512.22
3505.67
3594.05
3562.5
3309.32
1596.13
1142.84
1674
1187.7
1790.28
1539.96
1867.77
1516.73
1700.04
2092.78
3265.43
1589.5
1205.73
1672.46
1220.79
1757.09
1519.72
1859.09
1496.21
1745.7
2070.04
-0.583376
1.67315
1.62203
1.65607
1.60897
1.74008
2.39372
1.73841
2.41351
80.1311
19.1986
80.5603
19.0459
105.651
57.3378
87.2898
57.1756
106.242
56.3643
88.9199
56.1185
105.086
57.1557
83.0715
76.0995
105.003
55.3875
84.9775
74.0648
7562.64
3496.31
3484.71
3505.95
3518.03
3591.53
3565.44
3561.05
3533.67
3285
3231.06
2083.15
1241.21
1895.78
1429.88
1884.06
1453.55
2043.12
1452.22
1997.98
1742.52
2114.7
1652.2
2067
1247.7
1876.71
1395.04
1742.35
1302.87
1738.42
1402.7
1971.71
1743.55
2073.93
1650.13
-0.251221
-0.310728
1.78422
1.76849
1.78148
1.77045
1.5017
1.6061
1.49808
1.62561
106.44
62.9173
86.3314
74.9056
88.5634
12.4603
19.6713
49.5946
106.421
63.1969
87.2138
76.0788
87.7164
12.3795
19.7371
50.1708
55.6165
80.0173
54.3749
77.5994
57.2945
79.4467
54.3815
76.1296
7728.12
3441.8
3488.5
3482.21
3515.59
3476.93
3537.07
3446.85
3518.75
3277.83
3313.05
3227.37
3274.23
2121.05
1494.21
2169.92
1457.94
2104.87
1461.63
2150.97
1431.22
2281.79
1465.1
2008.71
1689.55
2221.65
1374.93
1882.72
1582.39
-0.0996729
1.96459
1.89362
1.97568
1.90478
-0.134404
1.75296
1.81421
1.77853
1.83653
2.69205
3.94168
3.76926
3.4817
2.92083
2.99961
2.60858
3.88972
2.63864
3.82527
3.68507
3.40134
2.84742
3.04939
2.59843
3.86329
94.8689
88.0033
54.0972
93.1209
108.217
25.8401
44.8897
69.4512
95.4502
87.8534
54.0825
93.5649
107.948
25.745
45.0044
69.7314
7501.33
7565.61
3429.89
3451.1
3439.25
3463.94
3390.98
3540.53
3361.13
3521.98
2127.3
1491.66
2163.6
1461.45
2091.16
1276.6
1933.21
1440.06
2110.42
1459.9
2144.17
1428.96
2076.33
1272.54
1929.4
1405.69
2333.85
1697.79
2364.06
1685.68
2308.94
1668.18
2344.56
1641.74
-0.0299697
1.90413
1.89015
1.90746
1.88496
2.00401
1.91046
2.01803
1.92711
-0.0328837
2.6053
2.88313
2.60754
2.88374
2.60597
2.81552
2.43817
2.94063
2.61161
2.90683
2.60963
2.90838
2.6154
2.85402
2.45336
2.96422
3.97824
5.49364
6.68648
4.44438
3.95541
4.72834
3.91369
4.92521
3.88821
5.34527
6.57014
4.29946
3.90227
4.69534
3.86114
4.77671
7319.06
7389.26
3620.06
3665.87
3586.31
3627.86
3461.8
3471.53
3433.34
3458.25
1595.09
1135.6
1676.08
1178.62
1584.5
1303.01
1656.44
1231.35
1601.58
1176.39
1690.73
1194.63
1587.4
1308.85
1660.69
1241.4
2329.4
1701.1
2373.58
1682.22
2315.58
1467.26
2002.51
1707.9
2307.9
1675.98
2355.34
1638.45
2276.9
1466.6
1995.38
1639.47
0.00356592
0.0199859
2.00886
2.02008
2.0225
2.02483
4.10209
3.27102
3.59376
3.2014
2.97253
2.86568
2.81481
2.39524
2.84817
2.61476
4.06885
3.28737
3.50396
3.20684
2.92281
2.84677
2.81301
2.39627
2.8408
2.60283
-0.000694763
3.33282
4.24364
3.58944
4.05274
3.15871
3.62866
3.29427
4.22163
3.5552
4.01445
3.14002
3.64699
5.60028
5.24317
5.75378
4.77209
5.61076
5.07076
5.75551
4.58904
7101.27
7244.6
3642.37
3595.65
3607.13
3581.44
3001.78
3332.77
2992.42
3348.11
1727.29
1270
1646.16
1301.34
1899.12
1278.48
2012.55
1278.65
1733.77
1273.41
1651.9
1298.08
1901.5
1313.04
2020.62
1281.58
1791.15
1456.75
2036
1388.1
1775.33
1495.28
1776.31
1477.88
1731.55
1428.75
1999.03
1330.65
1758.43
1466.42
1762.53
1466.56
0.0953397
1.95807
1.93771
1.97316
1.94522
0.0569737
1.88654
1.93495
1.89492
1.94265
5.03717
5.51848
4.15567
5.0512
4.85762
4.24796
2.92618
2.60645
3.34008
3.04815
4.96961
5.4091
4.072
4.93059
4.7891
4.10076
2.93875
2.61174
3.33728
3.01227
0.00303434
5.08835
5.32634
5.49073
5.37877
4.85173
5.34731
5.03619
5.17123
5.47652
5.23845
4.79322
5.21465
6806.17
6996.35
7165.06
3508.77
3423.91
3475.71
3418.78
1424.17
1352.32
2075.6
1352.2
2040.13
1908.1
1258.07
2050.17
1382.22
2160.12
1366.1
1452.12
2081.74
1417.73
2070.17
1917.21
1319.29
2048.53
1453.82
2174.05
1951.71
1485.58
1807.93
1571.95
2055.27
1569.73
1907.91
1461.42
1793.53
1509.19
2022.07
1513.58
1973.81
1665.59
1992.94
1573.37
1953.03
1648.17
1968.11
1575.2
0.141925
1.95371
1.92475
1.95961
1.92227
1.97292
1.97597
1.98254
1.99124
0.0621672
2.55677
2.97995
2.6935
2.8343
2.5272
2.83628
2.41785
2.81591
2.55122
2.978
2.68804
2.82515
2.5234
2.82802
2.41701
2.80767
5.7671
5.69335
3.60639
3.10306
4.26045
3.44113
5.63405
5.67437
3.62262
3.0859
4.26074
3.39371
0.00590673
6555.01
6706.5
6852.04
3445.62
3465.03
3409.62
3451.91
3175.15
3183.23
3199.73
3227.55
1558.75
1664.68
2183.52
1927.91
1624.86
2219.66
1467.36
2072.91
1648.91
2294.21
1643.29
1621.7
1940.93
2197.41
1565.73
2188.57
1492.59
2076.91
1604.36
2276.3
2011.83
1598.07
1915.71
1646.03
2019.35
1687.27
1959.23
1587.84
1889.25
1602.66
1988.46
1674.63
0.217208
0.123019
1.99457
2.03315
2.0148
2.0374
2.79056
2.85409
2.60517
2.80136
2.59614
2.50902
2.8399
2.48657
2.8138
2.5823
2.78047
2.85347
2.59889
2.79512
2.59195
2.50801
2.83457
2.48452
2.80978
2.57798
0.0783733
2.60367
3.00471
2.68525
2.87943
2.57972
2.84556
2.60133
2.98437
2.67822
2.87575
2.57796
2.84404
0.00156852
6367.88
6487.1
6631.96
3346.35
3327.78
3308.12
3330.21
2856.2
3249.46
2824.42
3283.79
2107.84
1308.37
2088.41
1416.45
1993.8
1239.75
1958.61
1295.53
2128.98
1310.75
2096.41
1455.15
1986.26
1285.26
1977.47
1321.84
1589.32
1941.81
1430.89
1853.79
1448.7
1898.75
1633.51
1952.27
1493.68
1874.41
1485.07
1903.05
0.223343
1.98678
1.93776
1.98541
1.92703
0.114295
2.06457
2.05845
2.08254
2.06103
2.80778
2.83093
2.62994
2.60713
2.81209
2.63296
2.85926
2.55702
2.85048
2.64232
2.78501
2.82357
2.62137
2.60628
2.81757
2.63937
2.86938
2.5631
2.8626
2.64873
0.0846274
2.60793
2.82675
2.60058
2.80267
-0.00204854
6228.49
6309.27
6437.15
6420.12
3305.47
3244.09
3257.16
3238.09
1275.33
1428.29
1949.04
1392.89
2010.87
1980.05
1291.62
2005.73
1387.81
2081.92
1469.19
1342.64
1973.36
1401.7
1995.58
1950.14
1334.37
2005.81
1419.17
2080.97
2325.95
1557.1
2117.69
1701.26
2267.74
1587.87
2315.65
1551.27
2119.44
1641.17
2192.23
1487.23
1.06192
0.224389
2.1191
2.27729
2.27754
2.44231
0.113478
2.50145
2.89947
2.76313
2.83895
2.21545
2.60357
3.01849
2.94094
2.89121
2.32962
2.87628
2.74901
2.93033
2.81896
2.9688
2.85512
3.0915
2.80025
3.15317
2.94422
3.28185
2.99233
0.097084
-0.00550554
6148.71
6158.64
6257.24
6426.61
3176.5
3174.79
3139.47
3182.01
3014.12
3343.47
2992.52
3310.71
1478.29
1545.13
2168.13
1837.33
1671.96
2243.51
1548.32
2128.48
1734.81
2324.32
1542.24
1556.83
1835.09
2179.46
1648.52
2224.77
1560.76
2137.89
1732.17
2327.29
2085.43
1578
2125.59
1590.99