/*--------------------------------*- C++ -*----------------------------------*\
| =========                 |                                                 |
| \\      /  F ield         | OpenFOAM: The Open Source CFD Toolbox           |
|  \\    /   O peration     | Version:  5.x                                   |
|   \\  /    A nd           | Web:      www.OpenFOAM.org                      |
|    \\/     M anipulation  |                                                 |
\*---------------------------------------------------------------------------*/
FoamFile
{
    version     2.0;
    format      ascii;
    class       surfaceScalarField;
    location    "1";
    object      phi;
}
// * * * * * * * * * * * * * * * * * * * * * * * * * * * * * * * * * * * * * //

dimensions      [0 3 -1 0 0 0 0];

internalField   nonuniform List<scalar> 
30582
(
0.000284618
-2.711e-07
0.000282142
2.47641e-06
0.000284078
3.22311e-08
0.000277022
5.12024e-06
0.000281014
5.54088e-06
0.000282657
1.83177e-06
0.000273889
3.13284e-06
0.000275808
1.03262e-05
0.000279842
8.35601e-06
0.00027983
6.56723e-06
0.000274899
-1.01008e-06
0.000272562
6.37843e-06
0.000274876
1.52927e-05
0.00027478
1.34058e-05
0.000275839
1.54341e-05
0.000276937
-2.03817e-06
0.000274162
-2.61004e-06
0.000272108
9.14645e-06
0.000269339
2.07332e-05
0.000272341
1.6903e-05
0.000268021
3.23034e-05
0.000277341
-4.03442e-07
0.000276986
-4.86141e-06
0.000274486
-4.98822e-06
0.000266985
1.15009e-05
0.000266786
2.62885e-05
0.000261046
2.38783e-05
0.000263679
5.37316e-05
0.000272577
4.76393e-06
0.000277533
-9.51225e-07
0.000278474
-8.8494e-06
0.000271501
-9.50428e-06
0.000266019
1.2268e-05
0.000254688
3.26463e-05
0.000259028
2.85292e-05
0.000242694
9.6393e-05
0.000262157
1.04195e-05
0.000273519
8.77851e-06
0.0002806
-3.07728e-06
0.000278146
-1.54943e-05
0.000272454
-1.59397e-05
0.000255885
1.10711e-05
0.000250923
4.07518e-05
0.000231001
4.02221e-05
0.000170148
-0.000100895
0.000246247
1.591e-05
0.00026329
2.06483e-05
0.000276367
1.30116e-05
0.000281291
-6.22212e-06
0.000281246
-2.42859e-05
0.000266921
-2.69764e-05
0.000253548
8.44557e-06
0.000228675
4.3078e-05
0.000197632
1.27383e-05
-0.000291589
0.000189449
0.000226101
2.01462e-05
0.000247273
3.1927e-05
0.000265851
3.11642e-05
0.000279064
1.52389e-05
0.000287275
-1.22513e-05
0.000280976
-3.83402e-05
0.000266405
-3.98336e-05
0.000241127
-4.00572e-06
0.000233116
7.59394e-06
-8.2116e-05
-0.000196735
-8.3408e-05
0.000272835
0.000203296
2.28045e-05
0.000226841
4.05779e-05
0.000249362
4.84157e-05
0.000269085
4.11432e-05
0.000285103
1.74115e-05
0.000289713
-2.09887e-05
0.000283977
-5.59116e-05
0.000261344
-6.00508e-05
0.000271703
-4.2593e-05
4.69514e-05
-0.000121474
3.97739e-06
-0.00028412
0.000103478
0.000169357
0.000179392
2.39044e-05
0.000203707
4.59385e-05
0.000228279
6.16615e-05
0.00025219
6.53101e-05
0.000274675
5.15706e-05
0.000290698
1.64261e-05
0.000297828
-3.48397e-05
0.00028571
-8.02778e-05
0.000312363
-0.000100711
0.000208993
-0.000204635
-1.63378e-05
-0.000101158
7.23058e-05
-0.000252948
1.12305e-05
0.000158127
0.000155663
2.37292e-05
0.000179505
4.81063e-05
0.000204456
6.97612e-05
0.000230229
8.36227e-05
0.000256728
8.32571e-05
0.000280869
6.13996e-05
0.000299218
1.50358e-05
0.000303897
-5.30269e-05
0.000353088
-0.000121002
0.000367976
-0.000259693
5.92555e-05
-0.000280228
7.54531e-05
-0.000104306
5.75722e-06
-0.000247474
8.18348e-05
7.62917e-05
0.000133006
2.26569e-05
0.000155545
4.76898e-05
0.000179649
7.29135e-05
0.000205413
9.45771e-05
0.000233317
0.000107034
0.000261849
0.000102278
0.000288788
7.18294e-05
0.000308426
1.05068e-05
0.00038259
-8.25288e-05
0.000512873
-0.000265899
0.000194319
-0.000394757
9.40811e-05
-0.000298856
3.50802e-05
-0.000133629
3.54541e-05
-0.000201094
-2.9751e-05
0.000111955
2.10507e-05
0.00013273
4.54722e-05
0.000155224
7.21141e-05
0.00017972
9.86063e-05
0.00020701
0.000120884
0.000236579
0.000132304
0.000268124
0.000122942
0.000299224
8.10311e-05
0.000393919
-8.22439e-07
0.000619695
-0.000189351
0.000378073
-0.000449654
9.12813e-05
-0.000391957
3.7479e-05
-0.000301255
2.29161e-05
-0.000121091
-1.44292e-05
9.27548e-05
1.92002e-05
0.000111587
4.21933e-05
0.000132097
6.85995e-05
0.00015462
9.72142e-05
0.000180051
0.000125566
0.000208306
0.000149157
0.000240565
0.000159864
0.000277069
0.000145097
0.000389068
8.58816e-05
0.000669834
-5.09616e-05
0.000558027
-0.000369304
8.88648e-05
-0.000447237
1.59439e-05
-0.000370422
1.57065e-05
-0.000294045
5.59809e-06
7.54294e-05
1.73254e-05
9.23498e-05
3.84375e-05
0.00011078
6.35101e-05
0.000131046
9.21742e-05
0.000154014
0.000123251
0.000179688
0.000154184
0.000209978
0.000179744
0.0002464
0.000190532
0.000370107
0.000164059
0.000682068
7.36481e-05
0.000679828
-0.000172763
9.45869e-05
-0.000375026
-1.66447e-05
-0.000414649
1.07895e-07
-0.000354823
5.9694e-06
5.98521e-05
1.55773e-05
7.50302e-05
3.46449e-05
9.14822e-05
5.77355e-05
0.000109486
8.50693e-05
0.000129831
0.000116357
0.000152448
0.000150491
0.000179493
0.000184669
0.000212574
0.00021357
0.000343737
0.000216902
0.000668519
0.000177608
0.000719605
3.38712e-05
0.0001154
-0.000193576
-5.15952e-05
-0.000340076
-2.08236e-05
-0.000393717
4.80059e-07
4.58012e-05
1.40509e-05
5.949e-05
3.11175e-05
7.41866e-05
5.19405e-05
9.01114e-05
7.71104e-05
0.000107944
0.000106956
0.000127511
0.000141295
0.000150999
0.000178985
0.000179607
0.000217635
0.000315922
0.000241385
0.000640772
0.000244648
0.00068219
0.000215023
0.000119623
2.96487e-05
-6.81086e-05
-0.000177063
-4.25466e-05
-0.000318353
-7.47957e-06
3.30002e-05
1.2801e-05
4.54973e-05
2.80435e-05
5.8731e-05
4.65732e-05
7.28646e-05
6.91873e-05
8.84592e-05
9.65949e-05
0.000105246
0.000129221
0.000125347
0.000166946
0.000149236
0.000209356
0.000289755
0.000243803
0.000608888
0.00027327
0.000583677
0.000343161
9.94576e-05
0.000235188
-6.45025e-05
2.60426e-05
-5.28904e-05
-0.000166719
-1.52351e-05
2.11517e-05
1.18485e-05
3.27692e-05
2.55291e-05
4.48659e-05
4.19086e-05
5.75486e-05
6.18892e-05
7.12644e-05
8.63821e-05
8.56798e-05
0.000116161
0.000102788
0.000151781
0.000122281
0.000193901
0.000266217
0.000232894
0.000573464
0.000279226
0.000460693
0.000396254
7.48698e-05
0.000367749
-4.59535e-05
0.000216639
-5.18824e-05
2.50346e-05
-1.85506e-05
9.95249e-06
1.11992e-05
2.10045e-05
2.36132e-05
3.22956e-05
3.80994e-05
4.38857e-05
5.55714e-05
5.61151e-05
7.70385e-05
6.86254e-05
0.000103436
8.32213e-05
0.000135727
9.89484e-05
0.000175114
0.000245168
0.00021495
0.000530555
0.000275803
0.00033867
0.00040125
5.6122e-05
0.000415002
-2.09659e-05
0.000342761
-3.71132e-05
0.00020187
-1.7094e-05
-8.87289e-07
1.08398e-05
9.89592e-06
2.23078e-05
2.07057e-05
3.52031e-05
3.15587e-05
5.04264e-05
4.26972e-05
6.89893e-05
5.37756e-05
9.18883e-05
6.636e-05
0.000120298
7.90663e-05
0.000155609
0.000225883
0.000194399
0.000476956
0.000268549
0.000236669
0.000377804
4.77266e-05
0.000409645
9.51937e-08
0.000393941
-1.71423e-05
0.00032279
-1.15327e-05
-1.16416e-05
1.07543e-05
-8.50035e-07
2.15858e-05
9.78185e-06
3.32317e-05
2.02391e-05
4.65227e-05
3.06674e-05
6.24563e-05
4.07671e-05
8.19978e-05
5.18221e-05
0.000106426
6.22674e-05
0.000137097
0.000207356
0.000174136
0.000414153
0.000257202
0.000162977
0.000342241
4.34289e-05
0.000382102
1.30226e-05
0.000396718
-1.22662e-06
0.000378025
-4.64154e-06
-2.25588e-05
1.09172e-05
-1.15108e-05
2.14151e-05
-7.74823e-07
3.21424e-05
9.60114e-06
4.38696e-05
1.9678e-05
5.75121e-05
2.92189e-05
7.40044e-05
3.91939e-05
9.4626e-05
4.80906e-05
0.000120603
0.000188463
0.00015599
0.000346193
0.000242095
0.00011365
0.000306529
3.83533e-05
0.000347317
1.9073e-05
0.000376051
8.15131e-06
0.00038734
6.9607e-07
-3.38584e-05
1.12996e-05
-2.2338e-05
2.17445e-05
-1.12472e-05
3.18874e-05
-6.63048e-07
4.24066e-05
9.38963e-06
5.41579e-05
1.87565e-05
6.79746e-05
2.80627e-05
8.51357e-05
3.6049e-05
0.000106668
0.000167826
0.00014124
0.000277854
0.000224329
8.00579e-05
0.000275687
3.30376e-05
0.000311845
2.09322e-05
0.000345458
1.25219e-05
0.000371681
3.76212e-06
-4.57279e-05
1.18695e-05
-3.3555e-05
2.25166e-05
-2.18924e-05
3.23897e-05
-1.08442e-05
4.20686e-05
-5.16391e-07
5.23127e-05
9.02019e-06
6.38942e-05
1.80359e-05
7.80014e-05
2.56659e-05
9.55188e-05
0.000143914
0.00013058
0.000214139
0.000204955
5.66177e-05
0.000247769
2.879e-05
0.000279935
2.01345e-05
0.000312643
1.38177e-05
0.000344162
5.12285e-06
-5.8316e-05
1.25881e-05
-4.53527e-05
2.36672e-05
-3.29373e-05
3.35616e-05
-2.12078e-05
4.27533e-05
-1.03404e-05
5.18926e-05
-3.22478e-07
6.16553e-05
8.7453e-06
7.31848e-05
1.64955e-05
8.71718e-05
0.000115382
0.00012405
0.000158529
0.00018619
3.96872e-05
0.000221886
2.51162e-05
0.000251443
1.84767e-05
0.000281593
1.33403e-05
0.00031312
5.40378e-06
-7.17299e-05
1.34139e-05
-5.78812e-05
2.51166e-05
-4.45779e-05
3.53077e-05
-3.1988e-05
4.43418e-05
-2.03582e-05
5.27711e-05
-9.58352e-06
6.11537e-05
-1.4695e-07
7.05476e-05
8.12259e-06
8.15578e-05
8.15257e-05
0.000121029
0.000111574
0.000171006
2.67906e-05
0.000199086
2.1095e-05
0.000225907
1.65127e-05
0.000253407
1.21589e-05
0.000282774
5.09268e-06
-8.603e-05
1.43001e-05
-7.12504e-05
2.67831e-05
-5.69737e-05
3.75125e-05
-4.33883e-05
4.6708e-05
-3.08127e-05
5.47963e-05
-1.90555e-05
6.22431e-05
-8.95628e-06
6.9963e-05
1.87989e-07
7.84822e-05
4.30419e-05
0.000120042
7.1287e-05
0.000161315
1.66844e-05
0.000181112
1.64965e-05
0.000203685
1.40828e-05
0.000228337
1.07146e-05
0.000254851
4.54464e-06
-0.000101224
1.51939e-05
-8.55251e-05
2.85748e-05
-7.02412e-05
4.00505e-05
-5.55765e-05
4.97007e-05
-4.19175e-05
5.78128e-05
-2.89912e-05
6.47319e-05
-1.79817e-05
7.12686e-05
-7.67098e-06
7.7822e-05
1.99288e-06
0.000119531
3.48772e-05
0.000156451
9.05341e-06
0.000168946
1.15515e-05
0.000186057
1.09674e-05
0.000206801
9.08681e-06
0.000229964
3.91574e-06
-0.000117262
1.60384e-05
-0.000100718
3.03864e-05
-8.44529e-05
4.27865e-05
-6.86811e-05
5.31551e-05
-5.3852e-05
6.16352e-05
-3.96185e-05
6.84401e-05
-2.74811e-05
7.42313e-05
-1.5794e-05
7.93916e-05
-3.83859e-05
0.000118201
3.161e-07
0.000154092
3.17933e-06
0.000162326
6.63731e-06
0.000173861
7.4081e-06
0.000189616
7.20048e-06
0.000208687
3.23439e-06
-0.000134044
1.67818e-05
-0.000116785
3.21056e-05
-9.96314e-05
4.55649e-05
-8.27887e-05
5.68941e-05
-6.67591e-05
6.60621e-05
-5.11339e-05
7.31507e-05
-3.76887e-05
7.86477e-05
-2.44562e-05
8.28934e-05
-7.53347e-05
0.00011634
-3.41131e-05
0.00015263
-1.97358e-06
0.000159245
2.237e-06
0.000166726
3.98033e-06
0.000177289
5.07513e-06
0.000191742
2.47733e-06
-0.000151407
1.73634e-05
-0.00013363
3.3627e-05
-0.000115745
4.82189e-05
-9.79371e-05
6.07132e-05
-8.07425e-05
7.08775e-05
-6.37011e-05
7.86293e-05
-4.88122e-05
8.42742e-05
-3.39265e-05
8.81181e-05
-0.000107315
0.000114874
-6.97072e-05
0.000151935
-7.21301e-06
0.000157869
-1.67222e-06
0.000163155
1.05238e-06
0.000169654
2.88176e-06
0.000179482
1.67533e-06
-0.00016914
1.77327e-05
-0.000151094
3.48275e-05
-0.000132706
5.0588e-05
-0.000114108
6.43903e-05
-9.5859e-05
7.58297e-05
-7.74474e-05
8.46237e-05
-6.10326e-05
9.08497e-05
-4.44464e-05
9.47941e-05
-0.000134055
0.000114858
-0.000107874
0.000153041
-1.31208e-05
0.000157842
-5.53573e-06
0.000161733
-1.34053e-06
0.000165548
9.14605e-07
0.000171622
9.15622e-07
-0.000186968
1.78281e-05
-0.000168967
3.56053e-05
-0.000150363
5.24848e-05
-0.000131229
6.77085e-05
-0.000112111
8.0642e-05
-9.24549e-05
9.08373e-05
-7.45009e-05
9.8092e-05
-5.62309e-05
0.000102634
-0.000156296
0.000117035
-0.000150175
0.000157159
-2.02094e-05
0.000160129
-9.72644e-06
0.000162033
-3.63531e-06
0.000164028
-8.07215e-07
0.00016727
2.5257e-07
-0.000204575
1.7607e-05
-0.000186973
3.58346e-05
-0.000168508
5.37503e-05
-0.000149158
7.0414e-05
-0.000129443
8.50411e-05
-0.000108752
9.69393e-05
-8.93295e-05
0.000105666
-6.94637e-05
0.000111325
-0.000175199
0.000121538
-0.000197506
0.000164365
-2.91996e-05
0.000166149
-1.4433e-05
0.000164836
-6.35063e-06
0.000164748
-2.51046e-06
0.000165731
-3.24544e-07
-0.000221611
1.70362e-05
-0.000204794
3.54272e-05
-0.000186865
5.41914e-05
-0.000167695
7.22874e-05
-0.000147734
8.87047e-05
-0.000126311
0.0001026
-0.000105583
0.000113193
-8.42877e-05
0.00012049
-0.000191929
0.000128055
-0.000249317
0.000173349
-4.01916e-05
0.000175357
-1.91639e-05
0.00017088
-9.52373e-06
0.000168009
-4.41484e-06
0.000166653
-8.70913e-07
1.60901e-05
-0.000237702
-0.000222072
3.43142e-05
-0.000205108
5.36701e-05
-0.000186566
7.3062e-05
-0.000166796
9.1349e-05
-0.000145032
0.000107426
-0.000123273
0.00012029
-0.000100792
0.000129697
-0.000207462
0.000136023
-0.000303612
0.00018235
-5.37664e-05
0.000186924
-2.3634e-05
0.000179828
-1.28794e-05
0.000174236
-6.50366e-06
0.000170098
-1.46344e-06
3.24382e-05
-0.00023842
3.26933e-05
-0.000270395
-0.000222869
5.2076e-05
-0.000205437
7.25409e-05
-0.000186359
9.26255e-05
-0.000164748
0.000111065
-0.000142342
0.000126495
-0.000119006
0.000138504
-0.00022254
0.000144775
-0.00035769
0.0001901
-7.09059e-05
0.00019949
-2.77902e-05
0.000191081
-1.6085e-05
0.000183034
-8.53284e-06
0.000176266
-2.15179e-06
4.93354e-05
-0.000239767
6.59224e-05
-0.000271649
2.00847e-05
-0.000290479
-0.000223925
7.05649e-05
-0.000206082
9.22636e-05
-0.000185204
0.000113082
-0.000162666
0.000131388
-0.000138882
0.000146371
-0.000237693
0.000153657
-0.000408945
0.00019603
-9.29705e-05
0.000212165
-3.17128e-05
0.000203413
-1.88201e-05
0.000193816
-1.04334e-05
0.000184934
-2.91674e-06
6.70032e-05
-0.000241593
0.000100603
-0.000274447
4.10856e-05
-0.00029265
4.14084e-06
-0.00029462
-0.000225551
9.00345e-05
-0.00020605
0.00011311
-0.000184022
0.000134437
-0.000160287
0.000152794
-0.00025335
0.000162028
-0.000455639
0.00020035
-0.000121765
0.000224824
-3.58031e-05
0.000216255
-2.12597e-05
0.000205852
-1.2186e-05
0.000195569
-3.67846e-06
8.58027e-05
-0.000244351
0.000137367
-0.000278357
6.36298e-05
-0.000296991
1.09558e-05
-0.000299465
-1.43738e-05
-0.000280247
-0.000226825
0.000110809
-0.00020607
0.000135157
-0.000183005
0.000157156
-0.000269853
0.000169296
-0.000496373
0.000202763
-0.000159587
0.000238172
-4.05726e-05
0.000229594
-2.35903e-05
0.000218586
-1.38325e-05
0.000207499
-4.40868e-06
0.000105958
-0.00024698
0.000177083
-0.000284068
8.82843e-05
-0.000303012
1.91495e-05
-0.000305185
-2.23683e-05
-0.00029147
-3.83119e-05
-0.000241935
-0.000228259
0.000132999
-0.000206716
0.000158869
-0.000287369
0.000174672
-0.000530112
0.000203035
-0.000209671
0.000252846
-4.6127e-05
0.000243727
-2.58367e-05
0.00023184
-1.54568e-05
0.00022021
-5.11277e-06
0.00012767
-0.000249971
0.000220385
-0.000290281
0.000115852
-0.000311636
3.01473e-05
-0.00031401
-2.85017e-05
-0.000299051
-6.31868e-05
-0.000266595
-9.84412e-05
-0.000143493
-0.000230798
0.00015708
-0.000305946
0.000177445
-0.000558388
0.000202948
-0.000275151
0.000268515
-5.19737e-05
0.000258693
-2.76822e-05
0.000245572
-1.69987e-05
0.000233382
-5.80935e-06
0.000151101
-0.000254229
0.000267779
-0.000297366
0.000146512
-0.000320941
4.38353e-05
-0.000325324
-2.94084e-05
-0.000313103
-8.17399e-05
-0.000280498
-0.000145065
-0.000219972
-0.000104325
-3.9168e-05
-0.000325445
0.000176579
-0.000583717
0.000202775
-0.000354112
0.000281909
-5.72821e-05
0.000273824
-2.83692e-05
0.00025938
-1.82074e-05
0.000246781
-6.47183e-06
0.00017158
-0.000345924
0.000320288
-0.000306738
0.000180884
-0.000331738
5.96485e-05
-0.000336754
-2.88131e-05
-0.000325919
-9.07871e-05
-0.000304056
-0.000165063
-0.000260501
-0.000174056
-0.000150241
-0.000301494
0.000262326
-0.00060823
0.000201092
-0.00044214
0.000290803
-6.2447e-05
0.000287074
-2.70298e-05
0.000272485
-1.86072e-05
0.00025978
-7.01603e-06
0.000203047
-0.000639698
0.000362388
-0.000388024
0.000218612
-0.000344466
7.90753e-05
-0.000351165
-2.54109e-05
-0.000340156
-9.73027e-05
-0.000319403
-0.000161981
-0.000307137
-0.000204001
-0.000230556
-0.000372074
-7.96605e-05
-7.66126e-05
0.000338938
-0.000532579
0.000291531
-7.00776e-05
0.000298434
-2.3246e-05
0.00028329
-1.76207e-05
0.000271498
-7.28663e-06
0.000285484
-0.000615016
0.000387533
-0.000664842
0.000249656
-0.000419068
9.90781e-05
-0.000364469
-2.20004e-05
-0.000354575
-0.000102406
-0.000335053
-0.000159056
-0.000322328
-0.000203068
-0.00030807
-0.000352132
-0.000250499
-9.54507e-05
-6.08224e-05
0.000297333
4.16052e-05
-8.43028e-05
0.000305757
-1.5563e-05
0.000290751
-1.46382e-05
0.000280308
-7.07998e-06
0.00030041
-9.92285e-05
0.000512318
-0.000739801
0.000260944
-0.000676131
0.00011359
-0.000433579
-1.48951e-05
-0.000371574
-0.000109537
-0.000347444
-0.000162368
-0.000331741
-0.000196293
-0.000329104
-0.000283032
-0.00037717
-8.08768e-05
-0.000265072
0.000328551
-9.20402e-05
0.00140656
0.00010835
-0.00147331
-1.58941e-06
0.000291784
-8.67256e-06
0.000284785
-6.14109e-06
0.00028379
1.50309e-05
0.00056438
-0.00015129
0.000302756
-0.000781613
0.000103429
-0.00066597
-1.77968e-05
-0.000430678
-0.00011766
-0.000363451
-0.000173667
-0.000336145
-0.000197985
-0.000330048
-0.000224239
-0.000387896
-7.51615e-05
-0.000382886
0.000316873
-0.000253394
0.00124968
6.48437e-05
0.00135269
0.000254579
-0.00149892
0.000104122
-0.00157743
1.51273e-06
0.000281598
-4.14055e-06
0.000271019
1.42839e-05
0.000539657
3.97535e-05
0.000332047
-0.000180581
6.33099e-05
-0.000741494
-6.18099e-05
-0.000621957
-0.00013651
-0.000411827
-0.000189014
-0.000348105
-0.000208939
-0.000325191
-0.000201767
-0.000352521
-6.90713e-05
-0.000393986
0.000270083
-0.000336096
0.001028
-3.17154e-05
0.00117739
0.000240138
0.00134693
0.000443118
-0.00153547
0.000214424
-0.00160922
6.77548e-05
-0.00164518
-7.57915e-07
3.76183e-06
0.000517238
3.67033e-05
0.000310893
6.09066e-05
3.66153e-05
-0.000153887
-0.000176567
-0.000626737
-0.000220833
-0.000537634
-0.000220439
-0.000380402
-0.000230674
-0.00032637
-0.000210813
-0.000316145
-8.92019e-05
-0.00033239
0.00019765
-0.000321553
0.000773106
-8.12025e-05
0.000947463
0.000198215
0.00112007
0.000467002
0.00139231
0.000667982
-0.00161717
0.000366131
-0.00168718
0.000151304
-0.00169277
3.31201e-05
-0.0016783
1.25359e-05
0.00029242
5.5176e-05
2.11473e-05
7.63741e-05
-0.000234565
-9.58884e-05
-0.000394234
-0.000453336
-0.000322948
-0.000435126
-0.00027064
-0.000340436
-0.0002439
-0.000293283
-0.000137345
-0.000268002
9.3815e-05
-0.000228554
0.000511437
-5.98843e-05
0.00066635
0.000199911
0.000857609
0.000460673
0.00114702
0.000712288
0.00142224
0.000975336
-0.0017296
0.000564074
-0.00181512
0.000255351
-0.00179122
7.25458e-05
-0.00173219
-5.22279e-06
-0.00167308
1.97629e-05
1.14507e-05
6.48723e-05
-0.000237402
7.92108e-05
-0.000438852
-5.12697e-05
-0.000512598
-0.000263686
-0.000368564
-0.000337201
-0.000297446
-0.00028689
-0.000208427
-0.000222201
-3.21311e-05
-0.000142056
0.000281806
1.07607e-06
0.000388602
0.000217863
0.00061716
0.00044036
0.000894846
0.00071285
0.00114608
0.000988449
0.00154586
0.0013203
-0.00189082
0.000823425
-0.00198895
0.000390713
-0.00195048
0.000118229
-0.00183691
-1.62449e-05
-0.00172117
-4.18566e-05
-0.00163122
2.26967e-05
-0.000235571
6.3041e-05
-0.000424498
6.48571e-05
-0.000537747
-2.612e-05
-0.000539698
-9.25517e-05
-0.000400488
-0.00023416
-0.000292185
-0.000203133
-0.000160391
-9.39412e-05
8.78503e-05
5.18999e-05
0.000169012
0.000220666
0.000425531
0.000409491
0.000646575
0.000688631
0.000889779
0.000969152
0.00113619
0.00139812
0.00153579
0.000384742
-0.0017674
0.000381893
0.000393484
0.000391791
0.00103825
-0.00210564
0.000540741
-0.00213898
0.000166519
-0.00199877
-3.40412e-05
-0.00181911
-9.13747e-05
-0.00167165
-7.39428e-05
-0.00155728
2.15291e-05
-0.000412185
5.0728e-05
-0.000521016
4.81266e-05
-0.000557021
-8.79553e-06
-0.000524225
3.11861e-05
-0.000431247
-9.50968e-05
-0.000280307
-8.32166e-05
-7.49578e-05
6.8867e-05
1.0077e-05
0.000210835
0.000258448
0.000387749
0.000401266
0.0006548
0.00064723
0.00093118
0.000789259
0.00131608
0.0011485
0.0017854
-8.63236e-07
0.000349379
-0.000376666
0.000412891
0.000315799
-0.00193124
0.000313098
0.000286804
0.000286387
0.000351015
-0.000377677
0.000407691
-7.32052e-07
0.000304426
0.000439168
0.000306927
0.000435147
0.000610808
-0.00217571
0.000193522
-0.00216598
-6.73669e-05
-0.00196544
-0.000157308
-0.00175318
-0.000150919
-0.00159468
-0.000100371
-0.00145691
1.74898e-05
-0.00050739
3.71032e-05
-0.000547408
3.85147e-05
-0.000543517
1.04973e-05
-0.000513349
0.000113288
-0.000457549
8.21455e-05
-0.000215936
5.77613e-05
-0.000116706
0.000195649
8.12286e-05
0.000388055
0.000171031
0.000617984
0.000399199
0.000902831
0.000528464
0.00119198
0.000747378
0.00171721
-0.000264719
-0.000265174
0.000928753
0.000489927
0.00048505
0.000511588
0.000511331
-4.70779e-07
-0.000373979
0.000313583
-4.5343e-08
0.000283314
-0.00029795
0.000427573
-0.00172443
0.000403999
-0.000374349
0.000309299
-1.55661e-07
-0.000315237
0.000228217
-0.000314711
0.000226593
0.000282249
-0.000296314
0.000421711
-3.41411e-07
0.000458105
0.000451881
0.000132806
-0.00211499
-0.000143227
-0.00209012
-0.00024702
-0.00187573
-0.000241403
-0.00166269
-0.000207008
-0.00148804
-0.000129681
-0.00132723
1.29247e-05
-0.000538918
2.86129e-05
-0.000543901
3.88983e-05
-0.000530765
2.79127e-05
-0.000512466
0.000168205
-0.000419497
0.000285707
-0.000231535
0.00017259
-9.84722e-05
0.00037535
-1.11966e-05
0.000570282
0.000142893
0.00087429
0.000351492
0.0010798
0.000387159
0.00155219
0.000670332
0.000484854
0.000485206
0.000503614
0.000501957
7.26199e-07
0.000134644
-0.000162098
0.000516655
0.000133068
-0.000160548
0.000513256
-3.57655e-07
0.000126691
0.000519898
0.00012603
0.000518011
2.8193e-07
-0.000273398
0.000288749
1.94673e-06
0.000174286
-0.000134908
0.000125093
6.32108e-05
0.0001237
7.42441e-05
-0.00142605
-0.000165573
0.000205032
0.0002028
-0.000542843
-9.56369e-05
-7.44504e-05
3.56811e-05
4.34682e-05
-0.000270551
0.000283818
1.20201e-07
0.00015973
0.000158963
0.000172676
-0.000131068
0.000123285
6.42508e-05
0.000122308
7.22052e-05
1.42441e-06
0.000136952
9.50523e-05
0.000138447
9.84173e-05
0.000134288
9.8139e-05
0.000135416
9.75908e-05
-0.000290328
-0.00196789
-0.000373299
-0.00196384
-0.000362873
-0.00175426
-0.00032146
-0.00154824
-0.000261942
-0.00135578
-0.000148472
-0.00117876
1.00247e-05
-0.000541616
2.63284e-05
-0.000532367
4.05003e-05
-0.000526426
4.18723e-05
-0.000432631
0.000181339
-0.000421076
0.000475249
-0.000262637
0.000336755
-0.000157318
0.000521471
-6.28709e-05
0.000776047
0.000178867
0.00104692
0.000108968
0.00135799
0.000398888
0.000454958
0.000453428
0.000458258
0.000456994
-2.43084e-07
0.000113549
0.000498239
0.000112776
0.000498216
-4.01055e-08
9.71739e-05
0.000520029
9.57381e-05
0.000518955
9.79667e-07
5.88435e-05
-2.54765e-05
-1.11823e-05
9.32253e-05
-2.39888e-05
0.000157762
0.000103567
0.000157728
5.16816e-06
5.72311e-05
-2.41407e-05
-1.01103e-05
-2.38958e-05
9.29286e-05
0.000156526
0.000102622
0.000156705
6.37081e-06
7.9114e-07
4.60632e-05
0.000107397
0.00015698
0.000107637
0.000159828
4.65759e-05
0.000107458
0.000156327
0.000107018
0.000158654
9.28171e-07
-3.7339e-05
7.53541e-05
2.46135e-05
8.13815e-05
8.90296e-06
-1.80214e-05
7.847e-06
5.18902e-07
2.10285e-05
0.00011372
-6.88755e-06
-3.36868e-06
1.48461e-05
5.8621e-05
1.63212e-07
-9.54584e-06
0.000108174
2.28516e-06
7.64371e-05
-0.00115938
-0.000557001
2.11808e-05
-0.000209218
-0.000189863
-0.000176855
-0.000153661
1.71846e-06
-6.66024e-05
0.000148344
-0.000179097
-5.56252e-05
0.000133249
-0.000150356
1.14609e-06
-8.46822e-06
-2.35993e-05
-4.54535e-06
-6.46534e-06
-3.77714e-05
7.36248e-05
2.80589e-05
7.96874e-05
1.00789e-05
-1.50234e-07
5.77501e-05
-1.81004e-06
5.77695e-05
3.63517e-07
5.80505e-05
7.50394e-07
5.69195e-05
7.75076e-07
-1.59717e-05
8.56949e-06
1.9529e-05
0.000111677
-6.51674e-06
-2.03143e-06
1.341e-05
5.9389e-05
-7.71237e-06
0.000107695
3.60968e-06
7.51336e-05
1.99279e-05
1.06056e-05
7.04405e-07
0.000126743
-1.16223e-05
-1.00805e-05
9.12786e-05
6.17796e-07
0.000134951
0.000101228
1.89433e-05
1.15806e-05
0.000123997
-1.31454e-05
-1.06352e-05
9.77789e-05
0.000131722
0.000102146
-0.000558323
-0.00178287
-0.000525238
-0.00180147
-0.000465129
-0.00161059
-0.000403946
-0.00140624
-0.000305385
-0.00119887
-0.000166425
-0.00101233
8.55176e-06
-0.000532997
2.69586e-05
-0.000525723
3.97976e-05
-0.000430562
3.98038e-05
-0.000439613
0.000199877
-0.000474568
0.00068718
-0.000324485
0.000503922
-0.000219777
0.000678377
-4.37922e-05
0.000998706
-5.21071e-05
0.00120799
0.000124956
0.000403073
0.00040317
0.000413569
0.000412114
1.54738e-07
5.56938e-05
0.000496283
5.50874e-05
0.000494234
1.44578e-07
3.72121e-05
0.000476595
3.89384e-05
0.000473287
1.46767e-06
3.23326e-05
0.000101899
0.000151038
0.000104191
0.000153342
3.40825e-05
0.000102824
0.000150826
0.000105438
0.000153079
1.86067e-06
2.34979e-05
0.000108388
0.000157082
0.000106293
0.000155246
2.43512e-05
0.000110431
0.000156849
0.000108174
0.000155113
-3.27573e-06
-1.42107e-05
9.85885e-06
0.000100853
-6.90008e-07
1.11253e-06
6.68673e-05
-9.50257e-06
-2.53751e-07
0.000154094
1.01799e-05
-5.94959e-06
-1.36211e-05
0.000108927
-1.16795e-07
-7.53327e-06
0.000149941
-1.44007e-07
3.69377e-06
0.000135862
-8.5869e-07
2.5311e-07
7.44887e-05
-1.72344e-06
-1.36145e-05
7.78811e-06
0.000100478
-9.34982e-06
1.06535e-05
0.000153245
-5.76818e-06
-1.28987e-05
0.000107674
-7.72447e-06
0.000149194
4.28444e-06
0.000132805
-6.71228e-06
1.36908e-05
-1.26537e-05
0.000113073
7.40689e-06
2.03009e-07
-7.44593e-06
0.000150103
-6.36576e-06
0.000114072
-8.79367e-08
0.000153454
-6.61949e-06
1.31005e-05
-1.24493e-05
0.000113427
7.90472e-06
-7.70138e-06
0.000149708
-6.30765e-06
0.000113528
0.000152438
4.7671e-06
8.57054e-06
-2.7291e-07
-8.43233e-08
6.23736e-05
-9.0507e-06
2.751e-05
2.10003e-05
9.57265e-08
6.74564e-05
4.25526e-05
2.43126e-06
-4.51429e-06
3.42925e-06
5.29049e-07
1.67542e-06
0.000112601
-3.91853e-06
-3.79719e-05
4.72115e-05
5.33e-05
3.9043e-07
-1.77472e-06
0.000101109
-2.65689e-05
6.84635e-05
-0.000929496
-0.000788205
0.000417222
-0.000250382
-0.000239752
-0.000239227
-0.000223682
3.50036e-06
-0.00020647
0.000251791
-0.000258039
-0.000198009
0.000251881
-0.000240235
3.41786e-06
-0.000238399
-0.000215004
1.73536e-06
-0.000186684
0.00025414
-7.98418e-05
-5.34093e-05
-7.10354e-05
-4.40344e-05
-0.000175272
0.0002486
-7.2379e-05
-4.83719e-05
-6.32101e-05
-3.79876e-05
-4.9615e-09
-7.04699e-05
1.67806e-06
-2.12078e-05
-6.01519e-05
-4.14169e-06
-4.70118e-05
-2.05217e-05
1.15354e-05
-7.05933e-05
3.00273e-06
-1.61011e-05
-6.04691e-05
4.26503e-06
-3.96986e-05
-1.409e-05
1.1942e-05
3.3832e-06
8.70053e-06
3.32269e-07
6.09359e-05
-8.92853e-06
2.57612e-05
2.46362e-05
6.65256e-05
4.06499e-05
3.89077e-06
-4.41075e-06
1.33186e-05
-2.33497e-07
4.89915e-05
-1.51337e-05
-5.4577e-05
-2.56916e-06
-2.33387e-07
4.01212e-05
1.65781e-06
-4.43207e-06
1.3326e-05
4.92553e-05
-1.44515e-05
-5.34804e-05
-1.91096e-06
4.08053e-05
1.27071e-06
-3.83537e-06
4.19078e-06
1.36365e-06
0.000110487
-3.90355e-06
-3.53447e-05
4.49783e-05
5.36589e-05
-2.16428e-07
0.000100563
-2.47646e-05
6.87444e-05
4.04196e-06
3.79635e-07
0.000127709
7.98134e-05
4.91218e-06
0.000125113
8.25465e-05
-0.000697574
-0.00161053
-0.000641484
-0.00162512
-0.000550445
-0.00146409
-0.000471308
-0.00124031
-0.000332411
-0.00103288
-0.00017704
-0.000835293
6.87638e-06
-0.00052239
2.36255e-05
-0.000424609
3.38443e-05
-0.000446394
4.65856e-05
-0.00045971
0.000185019
-0.000548812
0.000911508
-0.000397975
0.00068212
-0.000267315
0.0009019
-0.000200955
0.00114755
-9.76611e-05
0.000346338
0.00034617
0.000368725
0.000369375
3.76278e-07
1.54802e-05
0.000424429
1.831e-05
0.000424174
-2.48106e-07
-1.03145e-05
0.000439612
-8.60323e-06
0.000438779
1.68212e-06
1.96951e-05
0.00010144
0.000146846
0.000105047
0.000145105
1.97131e-05
0.000103375
0.000146234
0.000106493
0.000144444
1.77793e-06
2.90154e-06
0.000104527
0.00013961
0.000104393
0.000143055
9.49246e-07
0.000106529
0.000138883
0.000106061
0.000142331
-6.2855e-06
-1.27748e-05
0.000108305
-7.43828e-06
2.90629e-07
0.000144469
-6.29623e-06
-1.12246e-05
0.000108941
1.59422e-07
-4.19154e-06
0.000143673
-6.28876e-06
-1.27177e-05
0.000109381
-7.51392e-06
0.000144641
-6.06848e-06
-1.13464e-05
0.000110135
-3.93615e-06
0.000143583
-7.99644e-06
1.02164e-05
-9.63807e-06
0.000115802
4.55125e-06
9.00714e-08
-4.6327e-06
0.000149096
-7.11315e-06
0.000112393
1.72074e-07
0.000148303
-7.77031e-06
1.03837e-05
-1.00474e-05
0.000117865
3.96237e-06
-4.1393e-06
0.000149354
-6.90588e-06
0.000114117
0.000148415
-3.54313e-06
1.32544e-05
-2.0427e-07
-2.57167e-05
-2.92305e-05
-5.21433e-08
-5.59751e-08
1.27755e-05
-1.50554e-08
-1.3964e-05
-1.374e-07
-1.0461e-05
-1.99772e-06
1.36702e-05
-4.86528e-08
-2.52536e-05
1.34727e-05
-2.91209e-05
8.41811e-08
-1.38178e-05
-1.04811e-05
2.25048e-07
1.2741e-05
-1.16497e-05
7.875e-06
-1.39218e-08
-6.88422e-06
8.79105e-08
-8.19957e-08
2.60008e-07
1.26585e-05
-1.17194e-05
8.12887e-06
-7.09567e-06
8.53867e-08
2.68727e-06
1.12488e-05
-2.01848e-07
-2.74332e-07
4.89267e-05
-7.64205e-06
4.97948e-05
2.60589e-05
2.92359e-07
6.04495e-05
4.95283e-05
1.39466e-05
6.48777e-06
2.37729e-06
3.52106e-07
-1.00499e-05
-3.87347e-06
-2.80293e-05
3.09194e-05
2.44002e-07
7.43341e-06
-2.49425e-05
-0.000807377
-0.000819693
0.000568002
-0.000231752
-0.000226268
-0.000245362
-0.000235603
3.64361e-06
-0.000272367
0.000280029
-0.000261688
-0.000283087
0.000296177
-0.000249198
3.56365e-06
-0.000263367
-0.000251324
4.38059e-06
-0.000302258
0.000317384
-8.68677e-05
-4.85156e-05
-8.62832e-05
-5.59031e-05
-0.00030988
0.000334226
-8.09721e-05
-4.59062e-05
-8.03551e-05
-5.29477e-05
4.10311e-06
-8.48142e-05
-6.12657e-05
-8.51212e-05
-5.94513e-05
-7.92098e-05
-5.76673e-05
-7.90659e-05
-5.62471e-05
-2.76672e-05
-7.63603e-05
8.2089e-05
-5.79034e-05
-6.98089e-05
4.12814e-07
7.77105e-05
-8.93425e-05
-2.34439e-05
-7.06507e-05
-5.33011e-05
5.78457e-07
-6.06275e-05
-7.72381e-05
-2.70079e-05
-7.3345e-05
8.13328e-05
-5.33589e-05
-6.94184e-05
8.00309e-05
-8.55794e-05
-2.26345e-05
-6.62084e-05
-4.77121e-05
-5.75293e-05
-7.19326e-05
-1.09565e-05
6.13882e-05
-6.29022e-05
-8.73736e-06
-1.81829e-05
-5.40083e-05
9.47017e-06
4.34293e-05
-3.30834e-07
-2.91405e-05
-2.90212e-05
-1.85276e-05
-3.77467e-05
5.389e-07
-5.67864e-05
-9.50532e-08
1.03266e-05
2.32246e-05
-9.16191e-06
5.75503e-05
-6.00033e-05
-4.48619e-06
-1.72499e-05
-5.46577e-05
9.52763e-06
3.82996e-05
-2.03574e-05
-2.31701e-05
-1.71463e-05