/*--------------------------------*- C++ -*----------------------------------*\
| =========                 |                                                 |
| \\      /  F ield         | OpenFOAM: The Open Source CFD Toolbox           |
|  \\    /   O peration     | Version:  5.x                                   |
|   \\  /    A nd           | Web:      www.OpenFOAM.org                      |
|    \\/     M anipulation  |                                                 |
\*---------------------------------------------------------------------------*/
FoamFile
{
    version     2.0;
    format      ascii;
    class       volScalarField;
    location    "1";
    object      rAU;
}
// * * * * * * * * * * * * * * * * * * * * * * * * * * * * * * * * * * * * * //

dimensions      [-1 3 1 0 0 0 0];

internalField   nonuniform List<scalar> 
12160
(
1.3675e-06
1.36746e-06
1.36751e-06
1.36864e-06
1.36745e-06
1.36751e-06
1.36986e-06
1.3686e-06
1.36743e-06
1.36749e-06
1.36864e-06
1.36966e-06
1.36784e-06
1.36743e-06
1.3686e-06
1.36862e-06
1.36845e-06
1.36897e-06
1.36737e-06
1.3686e-06
1.36849e-06
1.36859e-06
1.3686e-06
1.3685e-06
1.36826e-06
1.36735e-06
1.36902e-06
1.36834e-06
1.36784e-06
1.36937e-06
1.36857e-06
1.36829e-06
1.36852e-06
1.36782e-06
1.36959e-06
1.36812e-06
1.36913e-06
1.36896e-06
1.3692e-06
1.36858e-06
1.36955e-06
1.36855e-06
1.36841e-06
1.36972e-06
2.05818e-06
1.36988e-06
1.36949e-06
1.36872e-06
1.36972e-06
1.36958e-06
1.36935e-06
1.36869e-06
1.37248e-06
2.04814e-06
4.36256e-05
1.36988e-06
1.36988e-06
1.36948e-06
1.36963e-06
1.36974e-06
1.36937e-06
1.36958e-06
1.37678e-06
2.15208e-06
3.98949e-05
0.000893914
1.36988e-06
1.36988e-06
1.36988e-06
1.36981e-06
1.36967e-06
1.36974e-06
1.36946e-06
1.37872e-06
2.17959e-06
3.51353e-05
0.00132868
0.00136585
1.36988e-06
1.36988e-06
1.36988e-06
1.36986e-06
1.36981e-06
1.36972e-06
1.36979e-06
1.37519e-06
2.12979e-06
2.92461e-05
0.00123303
0.00136717
0.00136845
1.36988e-06
1.36988e-06
1.36988e-06
1.36988e-06
1.36986e-06
1.36969e-06
1.36973e-06
1.37122e-06
2.03434e-06
2.19339e-05
0.00110758
0.00136819
0.00136766
0.00136854
1.36988e-06
1.36988e-06
1.36988e-06
1.36988e-06
1.36988e-06
1.36962e-06
1.36969e-06
1.36977e-06
1.9543e-06
1.56788e-05
0.000873839
0.00136791
0.00136864
0.00136746
0.00136898
1.36983e-06
1.36988e-06
1.36988e-06
1.36988e-06
1.36988e-06
1.36957e-06
1.36962e-06
1.36958e-06
1.92711e-06
1.16792e-05
0.000607746
0.00136612
0.00136962
0.00136866
0.00136485
1.36981e-06
1.36983e-06
1.36988e-06
1.36988e-06
1.36988e-06
1.36954e-06
1.36957e-06
1.36934e-06
1.95282e-06
1.01545e-05
0.000382698
0.00136297
0.00136711
0.00136975
0.00136676
1.36981e-06
1.36981e-06
1.36987e-06
1.36988e-06
1.36988e-06
1.36952e-06
1.36954e-06
1.36911e-06
2.05079e-06
1.0235e-05
0.000266179
0.00135604
0.00136612
0.00136742
0.00136424
1.36983e-06
1.36981e-06
1.36987e-06
1.36987e-06
1.36988e-06
1.36951e-06
1.36952e-06
1.36891e-06
2.22378e-06
1.17325e-05
0.000239309
0.00134779
0.00136657
0.00136671
0.00136235
1.36985e-06
1.36983e-06
1.36987e-06
1.36987e-06
1.36987e-06
1.3695e-06
1.36951e-06
1.3688e-06
2.47578e-06
1.51072e-05
0.000280168
0.00134162
0.00136894
0.00136829
0.00136106
1.36986e-06
1.36985e-06
1.36987e-06
1.36987e-06
1.36987e-06
1.3695e-06
1.36862e-06
1.36879e-06
2.81484e-06
2.09572e-05
0.000417241
0.00134729
0.00136969
0.00136984
0.00136369
1.36986e-06
1.36986e-06
1.36987e-06
1.36987e-06
1.36987e-06
1.36951e-06
1.36868e-06
1.36796e-06
3.25404e-06
3.07145e-05
0.000651935
0.00135925
0.00136877
0.00136967
0.00136658
1.36986e-06
1.36986e-06
1.36987e-06
1.36987e-06
1.36987e-06
1.36952e-06
1.36876e-06
1.36811e-06
3.81063e-06
4.70091e-05
0.0009231
0.001366
0.00136812
0.00136846
0.00136969
1.36986e-06
1.36986e-06
1.36986e-06
1.36987e-06
1.36987e-06
1.36954e-06
1.36885e-06
1.36827e-06
4.50333e-06
7.42313e-05
0.00114255
0.00136912
0.00136983
0.00136787
0.00136857
1.36986e-06
1.36986e-06
1.36986e-06
1.36986e-06
1.36987e-06
1.36955e-06
1.36893e-06
1.36843e-06
5.34969e-06
0.000118847
0.00127102
0.00136963
0.00136985
0.00136982
0.00136803
1.36986e-06
1.36986e-06
1.36986e-06
1.36986e-06
1.36986e-06
1.36957e-06
1.369e-06
1.36858e-06
6.35968e-06
0.000188586
0.00133051
0.00136982
0.00136985
0.00136985
0.00136796
1.36986e-06
1.36986e-06
1.36986e-06
1.36986e-06
1.36986e-06
1.36958e-06
1.36906e-06
1.3687e-06
7.52559e-06
0.000288519
0.0013544
0.00136985
0.00136985
0.00136985
0.00136786
1.36986e-06
1.36986e-06
1.36986e-06
1.36986e-06
1.36986e-06
1.36958e-06
1.36911e-06
1.3688e-06
8.80806e-06
0.000414051
0.00136334
0.00136985
0.00136985
0.00136985
0.0013679
1.36983e-06
1.36986e-06
1.36986e-06
1.36986e-06
1.36986e-06
1.36958e-06
1.36914e-06
1.36888e-06
1.01206e-05
0.000547379
0.00136662
0.00136985
0.00136985
0.00136985
0.00136802
1.36981e-06
1.36983e-06
1.36986e-06
1.36986e-06
1.36986e-06
1.36958e-06
1.36915e-06
1.36892e-06
1.13224e-05
0.000665514
0.00136786
0.00136985
0.00136985
0.00136985
0.00136816
1.36978e-06
1.36981e-06
1.36986e-06
1.36986e-06
1.36986e-06
1.36957e-06
1.36914e-06
1.36894e-06
1.22394e-05
0.000749881
0.00136837
0.00136985
0.00136985
0.00136985
0.0013683
1.36977e-06
1.36978e-06
1.36986e-06
1.36986e-06
1.36986e-06
1.36956e-06
1.36912e-06
1.36893e-06
1.27099e-05
0.000804302
0.00136886
0.00136985
0.00136985
0.00136985
0.00136843
1.36976e-06
1.36977e-06
1.36985e-06
1.36986e-06
1.36986e-06
1.36955e-06
1.36908e-06
1.36889e-06
1.26563e-05
0.000828578
0.00136907
0.00136881
0.00136975
0.00136985
0.00136854
1.36977e-06
1.36976e-06
1.36985e-06
1.36985e-06
1.36986e-06
1.36953e-06
1.36903e-06
1.36883e-06
1.21088e-05
0.000825079
0.00136769
0.00136883
0.00136774
0.00136975
0.00136864
1.3698e-06
1.36977e-06
1.36985e-06
1.36985e-06
1.36985e-06
1.36952e-06
1.36896e-06
1.36875e-06
1.11941e-05
0.000794462
0.00136767
0.00136785
0.0013678
0.00136878
0.00136872
1.36984e-06
1.3698e-06
1.36984e-06
1.36985e-06
1.36985e-06
1.3695e-06
1.36889e-06
1.36864e-06
1.00773e-05
0.000738333
0.00136892
0.00136783
0.00136781
0.00136777
0.00136877
1.36984e-06
1.36984e-06
1.36984e-06
1.36984e-06
1.36985e-06
1.36948e-06
1.36881e-06
1.36852e-06
8.90519e-06
0.000656972
0.00136871
0.0013688
0.00136779
0.00136778
0.00136776
1.36983e-06
1.36984e-06
1.36984e-06
1.36984e-06
1.36985e-06
1.36947e-06
1.36873e-06
1.36838e-06
7.78095e-06
0.000553101
0.00136829
0.00136876
0.00136774
0.00136776
0.00136777
1.36983e-06
1.36983e-06
1.36984e-06
1.36984e-06
1.36984e-06
1.36946e-06
1.36864e-06
1.36823e-06
6.76173e-06
0.000439272
0.00136784
0.00136984
0.00136767
0.00136852
0.00136776
1.37061e-06
1.36983e-06
1.36983e-06
1.36984e-06
1.36984e-06
1.36945e-06
1.36857e-06
1.36808e-06
5.87032e-06
0.000330394
0.00136689
0.00136984
0.00136963
0.00136874
0.00136851
1.37062e-06
1.37016e-06
1.36983e-06
1.36983e-06
1.36984e-06
1.36945e-06
1.3685e-06
1.36793e-06
5.10841e-06
0.000238228
0.00136482
0.00136984
0.00136984
0.00136963
0.00136873
1.37062e-06
1.37016e-06
1.36868e-06
1.36983e-06
1.36983e-06
1.36946e-06
1.36844e-06
1.36778e-06
4.46655e-06
0.000167428
0.00136023
0.00136984
0.00136984
0.00136984
0.00136867
1.37063e-06
1.37016e-06
1.36949e-06
1.36858e-06
1.36983e-06
1.36946e-06
1.36946e-06
1.36765e-06
3.9307e-06
0.000116592
0.0013502
0.00136984
0.00136984
0.00136984
0.00136859
1.37063e-06
1.37017e-06
1.36978e-06
1.36945e-06
1.36976e-06
1.36947e-06
1.36946e-06
1.3686e-06
3.48571e-06
8.15281e-05
0.00132915
0.00136984
0.00136984
0.00136984
0.00136849
1.3703e-06
1.37017e-06
1.36976e-06
1.36976e-06
1.36976e-06
1.36976e-06
1.36947e-06
1.36858e-06
3.11762e-06
5.77713e-05
0.00128761
0.00136983
0.00136984
0.00136984
0.00136839
1.37031e-06
1.36986e-06
1.36976e-06
1.36973e-06
1.36976e-06
1.36976e-06
1.3689e-06
1.36862e-06
2.81378e-06
4.17788e-05
0.00121276
0.00136982
0.00136984
0.00136984
0.00136827
1.36954e-06
1.36986e-06
1.36954e-06
1.36973e-06
1.36975e-06
1.36972e-06
1.36882e-06
1.3688e-06
2.5631e-06
3.09275e-05
0.00109277
0.00136977
0.00136984
0.00136984
0.00136814
2.35961e-06
1.36924e-06
1.36954e-06
1.36966e-06
1.36975e-06
1.36972e-06
1.36824e-06
1.36808e-06
1.36798e-06
2.34585e-05
0.000925921
0.00136962
0.00136984
0.00136984
0.00136801
1.82926e-05
2.10517e-06
1.36918e-06
1.36965e-06
1.36969e-06
1.36952e-06
1.36847e-06
1.3668e-06
1.36862e-06
1.36573e-06
0.000731705
0.00136919
0.00136984
0.00136984
0.00136788
0.000552377
1.29978e-05
1.87329e-06
1.36946e-06
1.36968e-06
1.36913e-06
1.36834e-06
1.36628e-06
1.36749e-06
1.36942e-06
1.3651e-06
0.00136692
0.00136984
0.00136984
0.00136776
0.00136363
0.000343892
9.1107e-06
1.75738e-06
1.36978e-06
1.36935e-06
1.36823e-06
1.36562e-06
1.36556e-06
1.36926e-06
1.367e-06
1.36866e-06
0.00136984
0.00136984
0.00136762
0.00136977
0.0013548
0.000188477
7.50748e-06
1.72018e-06
1.37169e-06
1.36735e-06
1.36562e-06
1.36629e-06
1.36869e-06
1.36794e-06
1.36765e-06
1.36886e-06
1.36743e-06
0.00136984
0.00136756
0.00136978
0.00136785
0.00132443
0.000144585
7.22412e-06
1.72682e-06
1.37504e-06
1.36496e-06
1.36647e-06
1.36916e-06
1.36637e-06
1.36674e-06
1.36927e-06
1.36987e-06
1.36987e-06
1.36464e-06
0.00136759
0.00136762
0.0013671
0.00136861
0.00130362
0.000152589
8.06159e-06
1.77295e-06
1.37884e-06
1.36523e-06
1.36968e-06
1.36592e-06
1.36676e-06
1.36986e-06
1.36987e-06
1.36987e-06
1.36987e-06
1.36987e-06
1.35365e-06
0.00136723
0.00136776
0.00136973
0.00131742
0.000212974
1.03998e-05
1.85508e-06
1.38251e-06
1.36913e-06
1.36819e-06
1.36693e-06
1.36987e-06
1.36986e-06
1.36986e-06
1.36985e-06
1.36986e-06
1.36987e-06
1.36987e-06
1.3564e-06
0.00136786
0.00136972
0.0013688
0.00133811
0.00033791
1.42249e-05
1.95017e-06
1.38514e-06
1.36957e-06
1.36865e-06
1.36979e-06
1.36987e-06
1.36986e-06
1.36985e-06
1.36982e-06
1.36985e-06
1.36986e-06
1.36986e-06
1.36986e-06
1.36986e-06
0.00136977
0.00136987
0.00136771
0.00135232
0.000515678
1.92147e-05
2.01691e-06
1.38367e-06
1.36967e-06
1.36986e-06
1.36986e-06
1.36986e-06
1.36985e-06
1.36982e-06
1.37047e-06
1.36983e-06
1.36985e-06
1.36986e-06
1.36986e-06
1.36986e-06
1.36986e-06
0.00136528
0.00136987
0.0013659
0.00135878
0.000715551
2.44235e-05
2.05906e-06
1.37818e-06
1.36984e-06
1.36986e-06
1.36986e-06
1.36985e-06
1.36866e-06
1.36967e-06
1.35405e-06
1.36785e-06
1.35601e-06
1.36234e-06
1.36273e-06
1.36419e-06
1.36805e-06
1.36923e-06
1.36986e-06
1.36986e-06
1.36986e-06
0.0013612
0.00136875
0.00136351
0.00136113
0.000904595
3.05771e-05
2.04808e-06
1.38982e-06
1.36914e-06
1.36986e-06
1.36986e-06
1.36871e-06
1.36857e-06
1.36675e-06
1.37697e-06
1.3688e-06
1.36179e-06
1.37691e-06
1.35707e-06
1.35691e-06
1.3688e-06
1.36222e-06
1.36081e-06
1.36684e-06
1.36922e-06
1.36868e-06
1.36987e-06
1.36987e-06
1.36986e-06
0.00135832
0.00136671
0.00136311
0.00136205
0.00106414
3.58526e-05
2.27179e-06
1.39075e-06
1.36912e-06
1.36986e-06
1.36985e-06
1.36867e-06
1.36994e-06
1.37571e-06
1.37352e-06
1.37332e-06
1.37337e-06
1.3669e-06
1.37732e-06
1.36866e-06
1.36986e-06
1.36749e-06
1.36725e-06
1.368e-06
1.37745e-06
1.37973e-06
1.37968e-06
1.36986e-06
1.36868e-06
1.36986e-06
1.36987e-06
1.36987e-06
1.36987e-06
0.00135657
0.00136647
0.00136348
0.00136206
0.00118402
4.70925e-05
2.43241e-06
1.41158e-06
1.36983e-06
1.36715e-06
1.36854e-06
1.37317e-06
1.3563e-06
1.35542e-06
1.366e-06
1.36612e-06
1.38155e-06
1.38e-06
1.38039e-06
1.37876e-06
1.36327e-06
1.36596e-06
1.37404e-06
1.3419e-06
1.37832e-06
1.36889e-06
1.36322e-06
1.36686e-06
1.36769e-06
1.36969e-06
1.37045e-06
1.36457e-06
1.36422e-06
1.36491e-06
1.36749e-06
1.37372e-06
1.34267e-06
1.37738e-06
1.36503e-06
1.3681e-06
1.37133e-06
1.37541e-06
1.36645e-06
1.36411e-06
1.37228e-06
1.38063e-06
1.36986e-06
1.36986e-06
1.36986e-06
1.36987e-06
1.36987e-06
1.36987e-06
0.00135539
0.00136703
0.00136361
0.0013656
0.00124816
6.73129e-05
2.86417e-06
1.45338e-06
1.37004e-06
1.36571e-06
1.37308e-06
1.37062e-06
1.37036e-06
1.3729e-06
1.37327e-06
1.37623e-06
1.37612e-06
1.3779e-06
1.37782e-06
1.3996e-06
1.35972e-06
1.45823e-06
1.40146e-06
1.43589e-06
1.37463e-06
1.34619e-06
1.39219e-06
1.4574e-06
1.40813e-06
1.43478e-06
1.37341e-06
1.39194e-06
1.41674e-06
1.39473e-06
1.42331e-06
1.3927e-06
1.41622e-06
1.39721e-06
1.42268e-06
1.29439e-06
1.34904e-06
1.33711e-06
1.36299e-06
1.38014e-06
1.37655e-06
1.35442e-06
1.36436e-06
1.36684e-06
1.36116e-06
1.34897e-06
1.35103e-06
1.35436e-06
1.35708e-06
1.35395e-06
1.35561e-06
1.35352e-06
1.3546e-06
1.29642e-06
1.35929e-06
1.33917e-06
1.36252e-06
1.32565e-06
1.32265e-06
1.30919e-06
1.36217e-06
1.32902e-06
1.32229e-06
1.30904e-06
1.36011e-06
1.37988e-06
1.37667e-06
1.35219e-06
1.36516e-06
1.38203e-06
1.36292e-06
1.38128e-06
1.3645e-06
1.36977e-06
1.36986e-06
1.36986e-06
1.36987e-06
1.36987e-06
1.36987e-06
0.00135448
0.00136678
0.00136989
0.00136524
0.00130283
0.000107458
3.65508e-06
1.50942e-06
1.3726e-06
1.3702e-06
1.37284e-06
1.37604e-06
1.37761e-06
1.37749e-06
1.37976e-06
1.37977e-06
1.38077e-06
1.38099e-06
1.39004e-06
1.41602e-06
1.38703e-06
1.41153e-06
1.39057e-06
1.41762e-06
1.38753e-06
1.4135e-06
1.37728e-06
1.39547e-06
1.37575e-06
1.39959e-06
1.37754e-06
1.39591e-06
1.37801e-06
1.40017e-06
1.33899e-06
1.21976e-06
1.27262e-06
1.28057e-06
1.35412e-06
1.39555e-06
1.33517e-06
1.19402e-06
1.28166e-06
1.272e-06
1.36596e-06
1.39379e-06
1.37516e-06
1.3505e-06
1.37287e-06
1.37988e-06
1.37323e-06
1.3536e-06
1.37024e-06
1.38318e-06
1.33263e-06
1.36118e-06
1.3347e-06
1.33245e-06
1.275e-06
1.38388e-06
1.37058e-06
1.31979e-06
1.35921e-06
1.35604e-06
1.31423e-06
1.31827e-06
1.33429e-06
1.33618e-06
1.34525e-06
1.34703e-06
1.34687e-06
1.3499e-06
1.3035e-06
1.31664e-06
1.30763e-06
1.30663e-06
1.29861e-06
1.31127e-06
1.30458e-06
1.30339e-06
1.34434e-06
1.31137e-06
1.34591e-06
1.32252e-06
1.33638e-06
1.31664e-06
1.34401e-06
1.31325e-06
1.33902e-06
1.32111e-06
1.33294e-06
1.31548e-06
1.3355e-06
1.36813e-06
1.33666e-06
1.36153e-06
1.33156e-06
1.31744e-06
1.33259e-06
1.34338e-06
1.2734e-06
1.38457e-06
1.36815e-06
1.30993e-06
1.38112e-06
1.34955e-06
1.38126e-06
1.34259e-06
1.36977e-06
1.36986e-06
1.36987e-06
1.36987e-06
1.36987e-06
1.36986e-06
0.001353
0.00136837
0.00136984
0.00136046
0.00133892
0.000184876
5.2932e-06
1.64791e-06
1.38335e-06
1.37025e-06
1.37272e-06
1.37496e-06
1.3753e-06
1.369e-06
1.36914e-06
1.36564e-06
1.36571e-06
1.37604e-06
1.39177e-06
1.375e-06
1.38581e-06
1.37805e-06
1.39339e-06
1.37671e-06
1.38762e-06
1.37772e-06
1.39049e-06
1.3735e-06
1.38619e-06
1.37806e-06
1.39065e-06
1.37328e-06
1.38647e-06
1.38478e-06
1.42034e-06
1.4045e-06
1.44459e-06
1.38486e-06
1.40909e-06
1.40684e-06
1.43341e-06
1.392e-06
1.42597e-06
1.37929e-06
1.38371e-06
1.39026e-06
1.42515e-06
1.38094e-06
1.37463e-06
1.35883e-06
1.37219e-06
1.37352e-06
1.35135e-06
1.35298e-06
1.35507e-06
1.33399e-06
1.33749e-06
1.31142e-06
1.31821e-06
1.29635e-06
1.31918e-06
1.3116e-06
1.33476e-06
1.30357e-06
1.28768e-06
1.30799e-06
1.2495e-06
1.30514e-06
1.28587e-06
1.30939e-06
1.24776e-06
1.29975e-06
1.2912e-06
1.30171e-06
1.25204e-06
1.29418e-06
1.28682e-06
1.29977e-06
1.25497e-06
1.24463e-06
1.28462e-06
1.28503e-06
1.28995e-06
1.30896e-06
1.29543e-06
1.3402e-06
1.30077e-06
1.34707e-06
1.35901e-06
1.34064e-06
1.33603e-06
1.25725e-06
1.3141e-06
1.34607e-06
1.37139e-06
1.35828e-06
1.32559e-06
1.26891e-06
1.31646e-06
1.36025e-06
1.37344e-06
1.37156e-06
1.36426e-06
1.34365e-06
1.34788e-06
1.3455e-06
1.34772e-06
1.36912e-06
1.36986e-06
1.36987e-06
1.36987e-06
1.36986e-06
1.36986e-06
0.00135157
0.0013671
0.00136545
0.00136031
0.00135342
0.000360312
1.07156e-05
1.96549e-06
1.42625e-06
1.36465e-06
1.36571e-06
1.36624e-06
1.36633e-06
1.37734e-06
1.37718e-06
1.37186e-06
1.37158e-06
1.37386e-06
1.40222e-06
1.37325e-06
1.38992e-06
1.37255e-06
1.40135e-06
1.37316e-06
1.38981e-06
1.32862e-06
1.36443e-06
1.3493e-06
1.35963e-06
1.33016e-06
1.36422e-06
1.34764e-06
1.35931e-06
1.26324e-06
1.28896e-06
1.2611e-06
1.27889e-06
1.36215e-06
1.35768e-06
1.34404e-06
1.32462e-06
1.33401e-06
1.33381e-06
1.33547e-06
1.33734e-06
1.32984e-06
1.31641e-06
1.22483e-06
1.26463e-06
1.22885e-06
1.27833e-06
1.22228e-06
1.25972e-06
1.22592e-06
1.27646e-06
1.29727e-06
1.29941e-06
1.25419e-06
1.30161e-06
1.29926e-06
1.29825e-06
1.25579e-06
1.30421e-06
1.32845e-06
1.28631e-06
1.2894e-06
1.23647e-06
1.32432e-06
1.28433e-06
1.28336e-06
1.23435e-06
1.2616e-06
1.25341e-06
1.27392e-06
1.23027e-06
1.28331e-06
1.26571e-06
1.27227e-06
1.22955e-06
1.36912e-06
1.36986e-06
1.36987e-06
1.36986e-06
1.36986e-06
1.36986e-06
0.00134981
0.00136666
0.00136121
0.00136024
0.00135802
0.000705899
2.62218e-05
2.77031e-06
1.43396e-06
1.43385e-06
1.72987e-06
1.7292e-06
1.36642e-06
1.36189e-06
1.36419e-06
1.36431e-06
1.38763e-06
1.36578e-06
1.40158e-06
1.32694e-06
1.3874e-06
1.37088e-06
1.40065e-06
1.32833e-06
1.39352e-06
1.36452e-06
1.38498e-06
1.35562e-06
1.39354e-06
1.35071e-06
1.3862e-06
1.35229e-06
1.31797e-06
1.39839e-06
1.37953e-06
1.36838e-06
1.3231e-06
1.38852e-06
1.38368e-06
1.36727e-06
1.3325e-06
1.27451e-06
1.26668e-06
1.26267e-06
1.33789e-06
1.27427e-06
1.30533e-06
1.26289e-06
1.36899e-06
1.36812e-06
1.35329e-06
1.33129e-06
1.3282e-06
1.3398e-06
1.34071e-06
1.32206e-06
1.31976e-06
1.31365e-06
1.2977e-06
1.25894e-06
1.24221e-06
1.27254e-06
1.2695e-06
1.25695e-06
1.23926e-06
1.26713e-06
1.26594e-06
1.34019e-06
1.31604e-06
1.29599e-06
1.31702e-06
1.34227e-06
1.31836e-06
1.2976e-06
1.32164e-06
1.3371e-06
1.26598e-06
1.34822e-06
1.26202e-06
1.36986e-06
1.36986e-06
1.36986e-06
1.36986e-06
1.36986e-06
1.36986e-06
0.00134926
0.0013614
0.00136083
0.00135979
0.00135964
0.00110417
7.85701e-05
6.16563e-06
1.42552e-06
1.43006e-06
2.11369e-06
2.12482e-06
1.328e-06
1.38074e-06
1.39392e-06
1.28817e-06
1.31264e-06
1.3821e-06
1.39448e-06
1.28603e-06
1.35664e-06
1.35314e-06
1.26196e-06
1.28494e-06
1.3641e-06
1.32379e-06
1.29471e-06
1.31333e-06
1.35922e-06
1.29431e-06
1.39943e-06
1.36275e-06
1.38291e-06
1.37898e-06
1.39922e-06
1.36335e-06
1.38329e-06
1.39035e-06
1.20883e-06
8.5296e-07
1.21236e-06
8.79012e-07
1.36986e-06
1.36778e-06
1.36069e-06
1.34476e-06
1.3424e-06
1.32999e-06
1.3408e-06
1.33729e-06
1.35387e-06
1.33704e-06
1.33875e-06
1.31873e-06
1.23423e-06
1.31247e-06
1.27205e-06
1.31828e-06
1.23143e-06
1.31086e-06
1.26991e-06
1.30871e-06
1.27489e-06
1.29068e-06
1.30023e-06
1.30852e-06
1.3115e-06
1.3092e-06
1.30051e-06
1.30501e-06
1.28049e-06
1.28756e-06
1.26349e-06
1.30712e-06
1.2778e-06
1.27868e-06
1.25657e-06
1.28095e-06
1.32191e-06
1.24329e-06
1.30333e-06
1.34942e-06
1.31384e-06
1.26151e-06
1.30109e-06
1.36986e-06
1.36986e-06
1.36986e-06
1.36986e-06
1.36986e-06
0.00134745
0.00136134
0.00136197
0.00135876
0.00135875
0.0013235
0.000380535
1.10807e-05
1.10831e-05
5.00485e-05
5.00749e-05
1.49275e-06
1.3802e-06
1.7517e-06
1.55334e-06
1.49628e-06
1.38021e-06
1.75435e-06
1.55124e-06
2.93448e-06
2.92845e-06
1.307e-06
1.34306e-06
1.35406e-06
1.33341e-06
1.33037e-06
1.34355e-06
1.354e-06
1.3275e-06
1.34789e-06
1.37225e-06
1.30061e-06
1.37752e-06
1.37892e-06
1.37111e-06
1.29114e-06
1.37612e-06
1.2892e-06
1.35138e-06
1.40282e-06
1.27565e-06
1.28993e-06
1.37328e-06
1.40414e-06
1.31014e-06
1.36986e-06
1.36745e-06
1.35941e-06
1.35464e-06
1.31878e-06
1.32591e-06
1.33343e-06
1.31899e-06
1.34362e-06
1.3257e-06
1.24734e-06
1.31498e-06
1.31642e-06
1.25834e-06
1.24873e-06
1.31152e-06
1.31294e-06
1.24957e-06
1.30676e-06
1.31482e-06
1.31985e-06
1.34156e-06
1.31084e-06
1.31672e-06
1.32326e-06
1.34712e-06
1.29613e-06
1.33049e-06
1.29699e-06
1.33272e-06
1.30133e-06
1.33101e-06
1.31721e-06
1.33403e-06
1.30387e-06
1.26858e-06
1.30944e-06
1.27764e-06
1.36986e-06
1.36986e-06
1.36986e-06
1.36986e-06
0.00134787
0.00136674
0.00136164
0.00135876
0.00135935
0.00131655
0.00064571
0.00064536
0.00129671
0.00129641
2.91681e-05
2.91834e-05
0.000337615
0.000336813
1.67869e-06
1.36551e-06
2.11764e-06
1.6373e-06
1.67228e-06
1.35251e-06
2.11805e-06
1.61647e-06
3.34591e-06
7.4547e-06
5.4246e-06
4.06151e-06
3.33426e-06
7.46542e-06
5.41034e-06
4.05446e-06
1.35637e-06
1.27945e-06
1.38219e-06
1.34789e-06
1.3691e-06
1.27996e-06
1.38248e-06
1.34694e-06
1.44679e-06
1.39009e-06
1.23203e-06
1.384e-06
1.44451e-06
1.38883e-06
1.22315e-06
1.3837e-06
1.36986e-06
1.36871e-06
1.36656e-06
1.36281e-06
1.31238e-06
1.31648e-06
1.31265e-06
1.31607e-06
1.32151e-06
1.3245e-06
1.24558e-06
1.31404e-06
1.23755e-06
1.29562e-06
1.25074e-06
1.31066e-06
1.23988e-06
1.29035e-06
1.26907e-06
1.32162e-06
1.29723e-06
1.32213e-06
1.27597e-06
1.30482e-06
1.27651e-06
1.32164e-06
1.29526e-06
1.31293e-06
1.27038e-06
1.30485e-06
1.29227e-06
1.31569e-06
1.29345e-06
1.3193e-06
1.24889e-06
1.31366e-06
1.31755e-06
1.25859e-06
1.25529e-06
1.29835e-06
1.32231e-06
1.26829e-06
1.36986e-06
1.36986e-06
1.36986e-06
0.00135202
0.0013646
0.0013612
0.00136379
0.00132905
0.00108962
0.00111352
0.0011121
0.00133437
0.00133374
7.41512e-05
1.11402e-05
4.38953e-05
0.00074822
0.000287344
1.07171e-05
1.11268e-05
7.38398e-05
1.07043e-05
4.38603e-05
0.000743448
0.000286699
0.00130906
0.00125622
0.00124424
0.00100941
0.00130741
0.00125595
0.00122885
0.00100388
1.71211e-06
1.27424e-06
2.2406e-06
1.57959e-06
1.70119e-06
1.27348e-06
2.2314e-06
1.57581e-06
6.12087e-06
6.44084e-06
6.11271e-06
6.41105e-06
1.28383e-06
1.29886e-06
1.28341e-06
1.2995e-06
1.52852e-06
1.32023e-06
1.51081e-06
1.31662e-06
1.36986e-06
1.36986e-06
1.36872e-06
1.36892e-06
1.32489e-06
1.32509e-06
1.31913e-06
1.32089e-06
1.32325e-06
1.3255e-06
1.31299e-06
1.32389e-06
1.28138e-06
1.25439e-06
1.30434e-06
1.29138e-06
1.30804e-06
1.30259e-06
1.27185e-06
1.25662e-06
1.30147e-06
1.28631e-06
1.30882e-06
1.30315e-06
1.30091e-06
1.31893e-06
1.30757e-06
1.32883e-06
1.31712e-06
1.31309e-06
1.32872e-06
1.33037e-06
1.30578e-06
1.30587e-06
1.32692e-06
1.31778e-06
1.33925e-06
1.32811e-06
1.30565e-06
1.30948e-06
1.33078e-06
1.30023e-06
1.32275e-06
1.30714e-06
1.36748e-06
1.36986e-06
0.00135314
0.0013633
0.00136236
0.00135938
0.00119237
0.000927556
0.000991848
0.00090689
0.000956284
0.00119942
0.00119623
0.00121136
0.00122471
1.96855e-05
0.000318415
7.97857e-05
2.53244e-05
0.00107698
0.000963491
1.96305e-05
0.000316524
2.52954e-05
7.96602e-05
0.00107802
0.000962723
0.00130674
0.00129629
0.00130661
0.00130884
0.00130693
0.00129092
0.00130181
0.00129892
2.80872e-06
1.80388e-06
2.79672e-06
1.79929e-06
1.36662e-06
1.36986e-06
1.36753e-06
1.36765e-06
1.35699e-06
1.33463e-06
1.33407e-06
1.34918e-06
1.34642e-06
1.25222e-06
1.30842e-06
1.2684e-06
1.31342e-06
1.26029e-06
1.29662e-06
1.27466e-06
1.30456e-06
1.30004e-06
1.26664e-06
1.30444e-06
1.26733e-06
1.31468e-06
1.30469e-06
1.30515e-06
1.3016e-06
1.3039e-06
1.27455e-06
1.31605e-06
1.30749e-06
1.30908e-06
1.28224e-06
1.29306e-06
1.32597e-06
1.3105e-06
1.2871e-06
1.31179e-06
1.33787e-06
1.31627e-06
1.29862e-06
1.33115e-06
1.30415e-06
1.22924e-06
1.29227e-06
1.33138e-06
1.25537e-06
1.27854e-06
1.30434e-06
1.34104e-06
1.25541e-06
1.36748e-06
0.00135297
0.001366
0.00136179
0.00135872
0.0011131
0.000816341
0.000981834
0.000832857
0.000898335
0.00101848
0.00117854
0.00109623
0.00113993
0.00108866
0.00118698
0.00109888
0.00120228
0.000930516
0.00106605
0.00129598
0.00130937
0.00136446
0.00137757
0.00129748
0.00131014
0.00136081
0.00137858
1.36485e-06
1.36736e-06
1.36827e-06
1.36737e-06
1.36309e-06
1.34521e-06
1.36011e-06
1.33115e-06
1.34388e-06
1.33809e-06
1.34963e-06
1.33009e-06
1.33555e-06
1.28752e-06
1.32194e-06
1.31663e-06
1.29587e-06
1.29485e-06
1.31507e-06
1.3437e-06
1.30422e-06
1.22881e-06
1.27932e-06
1.26583e-06
1.30482e-06
1.29971e-06
1.24219e-06
1.26795e-06
1.32374e-06
1.3185e-06
1.28432e-06
1.32038e-06
1.25712e-06
1.2834e-06
1.33111e-06
1.29518e-06
1.343e-06
0.00135813
0.00136705
0.00136684
0.00135516
0.0011142
0.000947655
0.00130181
0.00123928
0.000799194
0.000909848
0.000797905
0.000800866
0.000903422
0.00117939
0.00095369
0.00104295
0.00103781
0.00121293
0.00105276
0.0011371
0.000851197
0.000752683
0.000963196
0.000928444
0.00112909
0.00100676
0.00114319
0.00106059
0.00114431
0.00103844
0.00119828
0.00108639
1.35735e-06
1.36862e-06
1.36716e-06
1.36966e-06
1.3513e-06
1.31949e-06
1.32657e-06
1.31774e-06
1.31862e-06
1.31815e-06
1.33192e-06
1.3156e-06
1.26604e-06
1.31588e-06
1.26408e-06
1.31103e-06
1.26917e-06
1.30956e-06
1.27825e-06
1.30217e-06
1.30064e-06
1.25788e-06
1.26825e-06
1.32351e-06
1.32921e-06
1.31165e-06
1.26777e-06
0.00135941
0.00136834
0.00136555
0.00135527
0.00117527
0.000956937
0.00130997
0.00127162
0.000835086
0.000852419
0.000831172
0.000880392
0.00102066
0.000857913
0.00113925
0.00109776
0.000815715
0.000965702
0.00104748
0.000878805
0.000889607
0.000832966
0.000947272
0.0010666
0.000942266
0.000986539
0.00105201
0.00112545
0.000948095
0.00108037
0.000944021
0.000877159
0.00122576
0.00106305
1.34138e-06
1.36956e-06
1.3681e-06
1.35849e-06
1.3653e-06
1.35862e-06
1.35307e-06
1.34693e-06
1.35446e-06
1.34619e-06
1.33583e-06
1.33024e-06
1.21417e-06
1.31493e-06
1.2551e-06
1.29383e-06
1.23485e-06
1.27763e-06
1.25451e-06
1.30934e-06
1.29431e-06
1.29023e-06
1.28474e-06
1.29114e-06
1.30078e-06
1.26535e-06
1.32366e-06
1.29588e-06
1.299e-06
1.23537e-06
1.31128e-06
1.25828e-06
0.00136317
0.00136606
0.00136565
0.00133736
0.00133367
0.00133908
0.00133905
0.00115733
0.00107361
0.00133117
0.00131045
0.000844229
0.00102761
0.00111981
0.00118575
0.00118108
0.00103704
0.00104566
0.00109845
0.00105264
0.00102981
0.00115638
0.000976785
0.0012882
0.00106102
0.00128135
0.00126903
0.00119264
0.00102827
0.00118967
0.00125966
1.35063e-06
1.3693e-06
1.36651e-06
1.35707e-06
1.32836e-06
1.32844e-06
1.32406e-06
1.32772e-06
1.32984e-06
1.33426e-06
1.25899e-06
1.31411e-06
1.30198e-06
1.24446e-06
1.29227e-06
1.25239e-06
1.29286e-06
1.27682e-06
1.28728e-06
1.27819e-06
1.29973e-06
1.3133e-06
1.2813e-06
1.30773e-06
1.28602e-06
1.22937e-06
1.30918e-06
1.31428e-06
1.3115e-06
1.24262e-06
1.24907e-06
1.11635e-06
1.29223e-06
1.13331e-06
0.00136187
0.00136787
0.00136611
0.00135305
0.00135185
0.00134472
0.00134381
0.00131668
0.00118242
0.00116039
0.00125604
0.00111748
0.0012813
0.00131525
0.00118759
0.00115107
0.00126303
0.00108732
0.00128448
0.00133104
0.00131203
0.00124064
0.00122815
0.00119635
0.00126985
0.00131241
0.00129993
0.00130177
0.00126425
1.36986e-06
1.36951e-06
1.36315e-06
1.34628e-06
1.34429e-06
1.34575e-06
1.34211e-06
1.34214e-06
1.34145e-06
1.33054e-06
1.33185e-06
1.21945e-06
1.28495e-06
1.25328e-06
1.30789e-06
1.26213e-06
1.31567e-06
1.22583e-06
1.30034e-06
1.31209e-06
1.28461e-06
1.25617e-06
1.30632e-06
1.21631e-06
1.13609e-06
1.25491e-06
1.291e-06
1.29467e-06
1.24338e-06
1.30051e-06
1.16584e-06
0.00136457
0.00136845
0.00136239
0.00135059
0.0013489
0.00134715
0.00134454
0.00125831
0.00121632
0.0011654
0.00127257
0.0011689
0.00126445
0.00123263
0.00118075
0.00114069
0.00130035
0.00110808
0.00131221
0.00126387
0.00124093
0.00129207
0.00123023
0.00127398
0.00121419
0.00130284
0.00112886
0.00100243
0.00130703
0.000977445
0.00127827
1.36987e-06
1.36988e-06
1.36032e-06
1.33124e-06
1.34359e-06
1.33833e-06
1.33937e-06
1.32302e-06
1.32555e-06
1.28881e-06
1.31237e-06
1.27551e-06
1.26176e-06
1.28987e-06
1.22683e-06
1.29024e-06
1.31298e-06
1.27023e-06
1.27788e-06
1.28598e-06
1.24401e-06
1.26953e-06
1.22363e-06
1.25155e-06
1.18909e-06
1.25253e-06
1.18748e-06
1.28703e-06
1.2716e-06
0.00136569
0.0013659
0.00135729
0.00134526
0.00134699
0.00135727
0.00134625
0.00134557
0.00134414
0.00127402
0.00123612
0.00134548
0.00128473
0.00121329
0.00106068
0.00106882
0.00114589
0.00104263
0.000953596
0.00119956
0.00127551
0.00119324
0.00106211
0.00120673
0.00102926
0.00130213
0.00129174
0.00124938
0.00130083
0.00114104
1.36987e-06
1.36989e-06
1.35941e-06
1.34053e-06
1.35038e-06
1.33495e-06
1.3415e-06
1.21061e-06
1.28301e-06
1.27051e-06
1.28584e-06
1.28548e-06
1.31154e-06
1.23496e-06
1.28785e-06
1.30601e-06
1.28185e-06
1.27961e-06
1.28445e-06
1.30563e-06
1.26614e-06
1.33369e-06
1.30885e-06
1.31794e-06
1.28659e-06
1.35784e-06
1.32857e-06
1.21222e-06
1.17749e-06
1.24695e-06
1.17598e-06
0.00136841
0.00136402
0.00135148
0.00135944
0.00135191
0.00135945
0.00135294
0.00135261
0.00130767
0.00130976
0.0012771
0.00129662
0.0012456
0.00128017
0.00128444
0.00125486
0.00130487
0.00130869
0.00127037
0.00129514
0.00123478
0.00128179
0.00129104
0.00125662
0.00116063
0.00117188
0.00107579
0.00129761
0.00129982
0.00125943
0.00128419
0.00121564
1.36988e-06
1.36906e-06
1.34559e-06
1.32648e-06
1.33314e-06
1.34914e-06
1.33705e-06
1.34479e-06
1.32167e-06
1.27061e-06
1.30315e-06
1.32301e-06
1.28243e-06
1.29921e-06
1.32614e-06
1.32612e-06
1.26982e-06
1.28382e-06
1.35747e-06
1.3154e-06
1.36496e-06
1.32248e-06
1.31912e-06
1.25005e-06
1.31465e-06
1.21286e-06
1.34861e-06
1.24496e-06
1.33251e-06
1.25276e-06
0.00136443
0.00136557
0.00134533
0.00126477
0.00129808
0.00134632
0.00134545
0.00126602
0.001299
0.0013466
0.0013507
0.00134975
0.00133385
0.0013371
0.0012797
0.00125931
0.00131129
0.00132388
0.00132699
0.00129339
0.00133644
0.00124692
0.00131378
0.00132488
0.00122775
0.00116714
0.00115607
0.00116588
1.36901e-06
1.36326e-06
1.33668e-06
1.33756e-06
1.34845e-06
1.35415e-06
1.33617e-06
1.34114e-06
1.26471e-06
1.29237e-06
1.32198e-06
1.27263e-06
1.31978e-06
1.30696e-06
1.23233e-06
1.29312e-06
1.2681e-06
1.27589e-06
1.32206e-06
1.27698e-06
1.31987e-06
1.30185e-06
1.24167e-06
1.28567e-06
1.30289e-06
1.32785e-06
1.26018e-06
1.28937e-06
1.34447e-06
1.28696e-06
1.34242e-06
1.30766e-06
0.00134701
0.0013481
0.00134691
0.00134622
0.00134825
0.00134387
0.00134428
0.00129018
0.00125227
0.00131463
0.00125858
0.001314
0.00124967
0.00129496
0.00128505
0.00130333
0.00130657
0.00127127
0.00129364
0.00125503
0.00131543
0.00125872
0.00131477
0.00125012
0.00129318
0.00128571
0.00130188
0.00130726
0.00127056
0.0012924
0.0013232
0.00125354
0.00129563
0.00128494
0.00134118
0.00125838
0.00131118
1.36218e-06
1.35819e-06
1.32743e-06
1.3159e-06
1.29118e-06
1.2779e-06
1.32309e-06
1.27845e-06
1.28844e-06
1.34667e-06
1.32618e-06
1.3431e-06
1.32358e-06
1.34773e-06
1.31552e-06
1.27336e-06
1.27339e-06
1.328e-06
1.34638e-06
1.31913e-06
1.33166e-06
1.30936e-06
1.28935e-06
1.30903e-06
1.23473e-06
1.33863e-06
1.25513e-06
1.34025e-06
0.0013105
0.00134327
0.00131114
0.00134147
0.00131015
0.00124445
0.00124603
0.00129596
0.00132582
0.00130961
0.00125212
0.0013144
0.00130205
0.00116672
0.00122346
0.00102508
0.00129373
0.00121858
0.00112965
0.00121998
0.00120342
0.00129801
0.00132186
0.00120644
0.0013084
0.00130746
0.00129917
0.00121949
0.00115971
0.00102295
0.00129569
0.00122109
0.00112773
0.0012129
0.00119846