/*--------------------------------*- C++ -*----------------------------------*\
| =========                 |                                                 |
| \\      /  F ield         | OpenFOAM: The Open Source CFD Toolbox           |
|  \\    /   O peration     | Version:  5.x                                   |
|   \\  /    A nd           | Web:      www.OpenFOAM.org                      |
|    \\/     M anipulation  |                                                 |
\*---------------------------------------------------------------------------*/
FoamFile
{
    version     2.0;
    format      ascii;
    class       volVectorField;
    location    "1";
    object      U;
}
// * * * * * * * * * * * * * * * * * * * * * * * * * * * * * * * * * * * * * //

dimensions      [0 1 -1 0 0 0 0];

internalField   nonuniform List<vector> 
12160
(
(0.210492 0 0.00194367)
(0.216003 0 0.00356295)
(0.210246 0 -0.00213266)
(0.208679 0 0.00408463)
(0.215281 0 -0.00217297)
(0.209475 0 0.00216487)
(0.207549 0 0.00322688)
(0.207661 0 -0.00108982)
(0.214097 0 0.00569669)
(0.208193 0 -0.00121027)
(0.205127 0 0.00198187)
(0.206546 0 -0.00139983)
(0.20684 0 0.00767196)
(0.210696 0 -0.000996075)
(0.2061 0 0.00537109)
(0.207793 0 0.00119616)
(0.204361 0 -0.00268667)
(0.206109 0 0.00560333)
(0.202395 0 0.00130764)
(0.207919 0 0.00945614)
(0.202782 0 0.00317496)
(0.208148 0 0.00108091)
(0.207588 0 -0.00261061)
(0.204316 0 0.00119373)
(0.201946 0 -0.000210568)
(0.200522 0 0.0118168)
(0.199569 0 0.000170567)
(0.200322 0 0.0168169)
(0.206887 0 0.00121858)
(0.208269 0 -0.00137854)
(0.208309 0 -0.000309553)
(0.20127 0 -0.00459054)
(0.200631 0 0.00772367)
(0.190818 0 0.00385862)
(0.196086 0 0.0146978)
(0.193677 0 0.0134272)
(0.200881 0 0.00197875)
(0.207362 0 0.00171189)
(0.210059 0 0.000831847)
(0.20725 0 -0.00570973)
(0.201398 0 -0.00101815)
(0.192053 0 -0.000369889)
(0.188591 0 0.0165094)
(0.172777 0 0.00186398)
(0.125 0 0.045205)
(0.190816 0 0.00289599)
(0.201674 0 0.00490398)
(0.20966 0 0.00460666)
(0.210288 0 -0.00306074)
(0.208993 0 -0.00380488)
(0.195185 0 -0.00956772)
(0.189705 0 0.00745222)
(0.168014 0 0.00873944)
(0.131441 0 0.0228744)
(-0.350898 0 -0.101309)
(0.177094 0 0.00367124)
(0.19165 0 0.00798192)
(0.203709 0 0.00951191)
(0.211098 0 0.0034049)
(0.213837 0 -0.000720813)
(0.207346 0 -0.0124537)
(0.194081 0 -0.00670127)
(0.177364 0 -0.00182017)
(0.158762 0 0.0158839)
(-0.0921299 0 -0.0144378)
(-0.187044 0 0.198351)
(0.160832 0 0.00420327)
(0.177757 0 0.0104574)
(0.193404 0 0.0144505)
(0.206023 0 0.010999)
(0.215733 0 0.00750554)
(0.214911 0 -0.00777957)
(0.208446 0 -0.0113863)
(0.187571 0 -0.0194018)
(0.193093 0 -0.00145363)
(-0.0328706 0 -0.0116574)
(0.0495946 0 -0.105504)
(0.0673608 0 -0.0148708)
(0.143224 0 0.00447204)
(0.161258 0 0.0121293)
(0.179071 0 0.0184536)
(0.195729 0 0.0183732)
(0.210453 0 0.0176804)
(0.219066 0 0.00327454)
(0.219373 0 -0.00540883)
(0.208123 0 -0.0257723)
(0.218332 0 -0.0189825)
(0.099093 0 -0.02718)
(-0.0405334 0 -0.0566611)
(0.0813518 0 -0.0669379)
(0.0222568 0 0.099328)
(0.125328 0 0.00451316)
(0.143414 0 0.0129783)
(0.162061 0 0.0211242)
(0.180863 0 0.0243197)
(0.199555 0 0.0275602)
(0.215113 0 0.0165191)
(0.225568 0 0.00856606)
(0.222713 0 -0.0184004)
(0.25481 0 -0.0237695)
(0.218419 0 -0.0471539)
(0.0127487 0 -0.0930264)
(0.0333854 0 -0.0111386)
(-0.00369169 0 -0.0839661)
(0.0777591 0 0.00588581)
(0.107937 0 0.00438377)
(0.12532 0 0.01313)
(0.143731 0 0.0224212)
(0.163132 0 0.0282624)
(0.183706 0 0.0354118)
(0.203888 0 0.0291645)
(0.221373 0 0.0252075)
(0.231695 0 0.000146286)
(0.27825 0 -0.0137295)
(0.341537 0 -0.0526977)
(0.0771965 0 -0.116995)
(0.0772045 0 -0.0877652)
(0.0132221 0 -0.047816)
(0.0415949 0 -0.0601399)
(-0.0198364 0 0.0317828)
(0.0915699 0 0.00414008)
(0.107785 0 0.0127674)
(0.12524 0 0.0225565)
(0.144094 0 0.0301901)
(0.164853 0 0.0404542)
(0.186845 0 0.0390213)
(0.209241 0 0.0416437)
(0.229134 0 0.0234952)
(0.293188 0 0.00867286)
(0.435283 0 -0.0378772)
(0.211712 0 -0.122836)
(0.0675355 0 -0.135608)
(0.0373588 0 -0.0922454)
(0.0146578 0 -0.0336344)
(-0.0230902 0 -0.0648599)
(0.0765077 0 0.00383277)
(0.091325 0 0.0120773)
(0.107417 0 0.02184)
(0.12502 0 0.0304486)
(0.144781 0 0.0427228)
(0.166514 0 0.0451632)
(0.190652 0 0.0547226)
(0.21666 0 0.0449405)
(0.294322 0 0.0358873)
(0.489551 0 -0.00893723)
(0.366136 0 -0.0880863)
(0.0654252 0 -0.165619)
(0.0208637 0 -0.111638)
(0.018468 0 -0.093818)
(0.00153931 0 -0.0430326)
(0.0628457 0 0.00350869)
(0.0762149 0 0.0112189)
(0.0907768 0 0.0205818)
(0.10678 0 0.0295049)
(0.124888 0 0.0427354)
(0.145075 0 0.047752)
(0.168567 0 0.0627529)
(0.19618 0 0.0597115)
(0.284338 0 0.0599211)
(0.507076 0 0.026246)
(0.479562 0 -0.0270772)
(0.0630582 0 -0.15167)
(0.00231279 0 -0.127009)
(0.00628286 0 -0.118255)
(0.00643865 0 -0.0914955)
(0.050545 0 0.00319911)
(0.0625419 0 0.0103105)
(0.0755804 0 0.019047)
(0.0898845 0 0.0278082)
(0.106076 0 0.0411532)
(0.124115 0 0.0475629)
(0.145565 0 0.0660194)
(0.171643 0 0.0670536)
(0.26655 0 0.0758972)
(0.503684 0 0.0581446)
(0.532135 0 0.0199251)
(0.0770898 0 -0.0840184)
(-0.0292058 0 -0.103737)
(-0.00606127 0 -0.13448)
(0.00275206 0 -0.11048)
(0.0394737 0 0.00292374)
(0.0502581 0 0.00944225)
(0.0618954 0 0.0174425)
(0.0745709 0 0.0257333)
(0.0888333 0 0.0385925)
(0.104576 0 0.0455046)
(0.123439 0 0.0657585)
(0.146497 0 0.0684993)
(0.245978 0 0.0840321)
(0.486774 0 0.0801832)
(0.530226 0 0.0599766)
(0.0933194 0 0.0049011)
(-0.0494554 0 -0.0535256)
(-0.0264946 0 -0.112245)
(-0.00207723 0 -0.1242)
(0.0294425 0 0.00269832)
(0.0392229 0 0.00867703)
(0.0496537 0 0.0159192)
(0.060878 0 0.0235658)
(0.0733595 0 0.0355591)
(0.0869169 0 0.0423578)
(0.103175 0 0.0631117)
(0.122743 0 0.065983)
(0.225792 0 0.0864164)
(0.464691 0 0.0906061)
(0.481482 0 0.0921955)
(0.0879884 0 0.0856624)
(-0.0526687 0 0.011332)
(-0.0381989 0 -0.0597409)
(-0.00924517 0 -0.101785)
(0.0202356 0 0.00253817)
(0.029241 0 0.00805419)
(0.0386989 0 0.0145792)
(0.0487091 0 0.0215114)
(0.0596487 0 0.0324354)
(0.0712787 0 0.0387407)
(0.0851495 0 0.0590501)
(0.101291 0 0.0611532)
(0.207387 0 0.084636)
(0.441156 0 0.0928687)
(0.39857 0 0.110551)
(0.0668867 0 0.14249)
(-0.0419582 0 0.0759141)
(-0.0421054 0 0.00875908)
(-0.013519 0 -0.0545254)
(0.011626 0 0.00244185)
(0.020093 0 0.00759017)
(0.0288248 0 0.0134889)
(0.0378843 0 0.0197074)
(0.0475648 0 0.0294957)
(0.0575971 0 0.0350975)
(0.0694111 0 0.0543227)
(0.0824973 0 0.0552448)
(0.190928 0 0.0801421)
(0.414568 0 0.0903111)
(0.301301 0 0.11986)
(0.046452 0 0.163019)
(-0.0243059 0 0.122215)
(-0.0343326 0 0.072663)
(-0.0143644 0 0.00797921)
(0.00339744 0 0.00240622)
(0.0115492 0 0.0073011)
(0.0198022 0 0.0126864)
(0.0281784 0 0.0182415)
(0.0368965 0 0.026923)
(0.045684 0 0.0317288)
(0.05581 0 0.0494877)
(0.0663619 0 0.0491381)
(0.176097 0 0.074148)
(0.380896 0 0.0851443)
(0.212272 0 0.124661)
(0.0369475 0 0.159787)
(-0.00625134 0 0.143167)
(-0.0196167 0 0.117088)
(-0.011017 0 0.0678562)
(-0.00467088 0 0.00243004)
(0.00338996 0 0.00719321)
(0.0113937 0 0.0121895)
(0.0193492 0 0.0171621)
(0.0273955 0 0.0248341)
(0.0352859 0 0.0288225)
(0.0440921 0 0.0449476)
(0.0526764 0 0.0433885)
(0.162158 0 0.0675581)
(0.337512 0 0.0789537)
(0.145875 0 0.126313)
(0.0337231 0 0.144334)
(0.00615965 0 0.147417)
(-0.0054973 0 0.138093)
(-0.00578362 0 0.111205)
(-0.0127754 0 0.00251104)
(-0.00460789 0 0.00726406)
(0.00337499 0 0.0120018)
(0.01115 0 0.0164939)
(0.0188026 0 0.0232947)
(0.0261223 0 0.0264886)
(0.0339575 0 0.040974)
(0.041127 0 0.0383211)
(0.148391 0 0.0610159)
(0.288708 0 0.072911)
(0.100939 0 0.123602)
(0.0302226 0 0.128293)
(0.0126892 0 0.142301)
(0.00357316 0 0.142918)
(-0.00102326 0 0.133566)
(-0.021083 0 0.00264565)
(-0.0126433 0 0.00750713)
(-0.00448078 0 0.0121186)
(0.00334867 0 0.0162431)
(0.0108591 0 0.0223368)
(0.01791 0 0.0247818)
(0.0250953 0 0.0377427)
(0.0313561 0 0.0341006)
(0.133864 0 0.054983)
(0.236957 0 0.0680147)
(0.0708637 0 0.11646)
(0.026427 0 0.115206)
(0.0153047 0 0.132632)
(0.00826499 0 0.138828)
(0.00199686 0 0.140183)
(-0.0297504 0 0.00283401)
(-0.0208859 0 0.0079114)
(-0.012377 0 0.0125289)
(-0.00428778 0 0.0164043)
(0.00332377 0 0.0219674)
(0.0103728 0 0.0237239)
(0.0172039 0 0.0353548)
(0.0230014 0 0.0307944)
(0.117469 0 0.0497646)
(0.186247 0 0.0647701)
(0.0500374 0 0.107685)
(0.0230311 0 0.104536)
(0.0154917 0 0.121796)
(0.0101127 0 0.1304)
(0.00351445 0 0.137518)
(-0.0389039 0 0.00307443)
(-0.0294953 0 0.00845781)
(-0.0204866 0 0.0132142)
(-0.0119687 0 0.0169626)
(-0.00404387 0 0.0221785)
(0.00325683 0 0.0233155)
(0.00999809 0 0.0338625)
(0.0157176 0 0.0284127)
(0.0980505 0 0.0455561)
(0.140422 0 0.0633543)
(0.0352271 0 0.0972387)
(0.0201863 0 0.0958802)
(0.0145325 0 0.11124)
(0.0102628 0 0.120532)
(0.00402933 0 0.129996)
(-0.0486395 0 0.00334951)
(-0.0385997 0 0.00912238)
(-0.0289721 0 0.0141503)
(-0.019873 0 0.0178926)
(-0.0114608 0 0.0229504)
(-0.00368725 0 0.023545)
(0.00321894 0 0.0332775)
(0.00918149 0 0.0269365)
(0.0747326 0 0.0424516)
(0.101433 0 0.0636428)
(0.0242746 0 0.0863935)
(0.0173358 0 0.0887948)
(0.0131951 0 0.101181)
(0.00959476 0 0.110782)
(0.00396275 0 0.120598)
(-0.0590206 0 0.00364685)
(-0.0482961 0 0.00988772)
(-0.0379673 0 0.0153049)
(-0.0281687 0 0.0191602)
(-0.0191128 0 0.0242459)
(-0.0106873 0 0.0243911)
(-0.00338622 0 0.0335901)
(0.00310441 0 0.0263386)
(0.0474014 0 0.0404948)
(0.0688 0 0.0656232)
(0.0157442 0 0.0774527)
(0.0140628 0 0.0831496)
(0.0115421 0 0.0919089)
(0.00860749 0 0.10167)
(0.00362084 0 0.110967)
(-0.0700724 0 0.00395538)
(-0.0586506 0 0.0107239)
(-0.0475755 0 0.016635)
(-0.0369952 0 0.020721)
(-0.0271749 0 0.0260189)
(-0.0179391 0 0.0258175)
(-0.0100491 0 0.0347814)
(-0.00278088 0 0.026589)
(0.0171499 0 0.0396723)
(0.039987 0 0.0685477)
(0.00900961 0 0.0716492)
(0.0104512 0 0.0788)
(0.00943381 0 0.0840272)
(0.0074471 0 0.0933813)
(0.00317768 0 0.101858)
(-0.0817791 0 0.00426213)
(-0.069692 0 0.0115934)
(-0.0578675 0 0.0180894)
(-0.0464635 0 0.0225201)
(-0.0357947 0 0.0282093)
(-0.0256258 0 0.0277804)
(-0.0169692 0 0.036777)
(-0.00874201 0 0.0276647)
(-0.0139636 0 0.0400239)
(0.0128637 0 0.0711385)
(0.00440327 0 0.0687252)
(0.00666851 0 0.0759569)
(0.00683297 0 0.0779747)
(0.00609014 0 0.0862896)
(0.00268416 0 0.0936065)
(-0.094084 0 0.00455143)
(-0.0814086 0 0.0124535)
(-0.0688793 0 0.0196077)
(-0.0566544 0 0.0244899)
(-0.0450927 0 0.0307417)
(-0.0339072 0 0.0302235)
(-0.0243339 0 0.0395075)
(-0.0150077 0 0.0295313)
(-0.0434052 0 0.0415412)
(-0.0122289 0 0.071646)
(0.000450661 0 0.0670312)
(0.00320412 0 0.0748999)
(0.0041606 0 0.0737673)
(0.00461012 0 0.0807249)
(0.00214169 0 0.0865263)
(-0.106889 0 0.00480349)
(-0.093748 0 0.0132593)
(-0.0806072 0 0.0211211)
(-0.0676147 0 0.0265499)
(-0.0551617 0 0.0335245)
(-0.0429182 0 0.0330755)
(-0.0323095 0 0.0428784)
(-0.0217777 0 0.0321562)
(-0.0693977 0 0.0440677)
(-0.0389284 0 0.0701197)
(-0.00334637 0 0.0674317)
(0.0001599 0 0.0751541)
(0.0017536 0 0.0715162)
(0.00293082 0 0.0770585)
(0.0015393 0 0.0809694)
(-0.120052 0 0.0049959)
(-0.106614 0 0.0139621)
(-0.0930068 0 0.0225525)
(-0.0793522 0 0.0286068)
(-0.0660621 0 0.0364493)
(-0.0527679 0 0.0362463)
(-0.0410412 0 0.0467744)
(-0.0292461 0 0.0354999)
(-0.0913233 0 0.0475334)
(-0.0668952 0 0.0681929)
(-0.00757839 0 0.0704084)
(-0.00265733 0 0.0758833)
(-0.000174638 0 0.0708573)
(0.00134489 0 0.0752094)
(0.000946553 0 0.0771592)
(-0.133394 0 0.00511369)
(-0.119868 0 0.0145128)
(-0.105988 0 0.0238156)
(-0.0918325 0 0.0305548)
(-0.0778165 0 0.0393899)
(-0.0635355 0 0.0396242)
(-0.0506539 0 0.0510574)
(-0.0375836 0 0.0395082)
(-0.109484 0 0.0518454)
(-0.0970759 0 0.0671192)
(-0.0118692 0 0.0740428)
(-0.00560353 0 0.0768619)
(-0.00182546 0 0.0714551)
(1.58207e-05 0 0.0747858)
(0.000425574 0 0.0750694)
(-0.146693 0 0.00514294)
(-0.133329 0 0.0148535)
(-0.119417 0 0.0248191)
(-0.104975 0 0.0322754)
(-0.0904053 0 0.0422028)
(-0.0752629 0 0.0430726)
(-0.0612466 0 0.0555655)
(-0.0469401 0 0.0441048)
(-0.124692 0 0.0568751)
(-0.131112 0 0.067202)
(-0.0179995 0 0.0798502)
(-0.00888695 0 0.0788576)
(-0.0036207 0 0.0732125)
(-0.00121942 0 0.0754298)
(-4.29423e-05 0 0.0744519)
(-0.159714 0 0.00506931)
(-0.146775 0 0.0149292)
(-0.133111 0 0.0254699)
(-0.118652 0 0.0336418)
(-0.103762 0 0.0447285)
(-0.0879505 0 0.0464287)
(-0.0728863 0 0.0601114)
(-0.0574385 0 0.0491817)
(-0.137862 0 0.0624616)
(-0.16902 0 0.0686394)
(-0.0254711 0 0.0881582)
(-0.0124846 0 0.0823088)
(-0.00582657 0 0.0763093)
(-0.00251348 0 0.0770632)
(-0.000441029 0 0.0750747)
(-0.172112 0 0.0048829)
(-0.159967 0 0.014694)
(-0.146846 0 0.0256793)
(-0.132686 0 0.0345213)
(-0.117771 0 0.046795)
(-0.101551 0 0.049504)
(-0.0856021 0 0.064484)
(-0.0691665 0 0.0545894)
(-0.149808 0 0.0684162)
(-0.209588 0 0.0714478)
(-0.034598 0 0.0980483)
(-0.0159734 0 0.0868982)
(-0.00829505 0 0.0809671)
(-0.00403435 0 0.0798595)
(-0.000866695 0 0.0768661)
(-0.17255 0 0.0141148)
(-0.190439 0 0.0043752)
(-0.160377 0 0.0253679)
(-0.146849 0 0.0347856)
(-0.132261 0 0.0482227)
(-0.115964 0 0.0520872)
(-0.0993777 0 0.0684518)
(-0.0821692 0 0.06013)
(-0.161169 0 0.074518)
(-0.250794 0 0.0754975)
(-0.0459993 0 0.108001)
(-0.0192298 0 0.0923789)
(-0.010838 0 0.0870044)
(-0.00562482 0 0.0840833)
(-0.00132407 0 0.0799045)
(-0.173345 0 0.0244765)
(-0.191231 0 0.0125247)
(-0.211318 0 0.00292038)
(-0.160888 0 0.0343203)
(-0.147003 0 0.0488329)
(-0.131032 0 0.0539528)
(-0.114142 0 0.0717669)
(-0.0964405 0 0.0655522)
(-0.172412 0 0.0805173)
(-0.290473 0 0.0805574)
(-0.0605346 0 0.116947)
(-0.0222506 0 0.098735)
(-0.013086 0 0.0943441)
(-0.00706776 0 0.0897244)
(-0.00187284 0 0.0843087)
(-0.174412 0 0.033041)
(-0.192744 0 0.0219655)
(-0.212345 0 0.0082107)
(-0.221446 0 0.000651108)
(-0.161727 0 0.0484652)
(-0.14653 0 0.0548698)
(-0.129773 0 0.0741667)
(-0.111916 0 0.0705502)
(-0.183861 0 0.0861415)
(-0.327013 0 0.0862154)
(-0.0793384 0 0.124785)
(-0.0252095 0 0.106042)
(-0.0150332 0 0.102664)
(-0.00846061 0 0.0964821)
(-0.00245905 0 0.0900218)
(-0.17604 0 0.0470067)
(-0.194826 0 0.0294313)
(-0.214923 0 0.0151514)
(-0.223509 0 0.00174924)
(-0.219193 0 -0.00241292)
(-0.162166 0 0.0546103)
(-0.146064 0 0.0753508)
(-0.12846 0 0.0747695)
(-0.195821 0 0.0910948)
(-0.359829 0 0.0919763)
(-0.103903 0 0.131544)
(-0.0284603 0 0.114443)
(-0.0168206 0 0.111658)
(-0.00974696 0 0.104127)
(-0.00302427 0 0.0968711)
(-0.177475 0 0.0530148)
(-0.197916 0 0.0426507)
(-0.218534 0 0.0197361)
(-0.227259 0 0.00520013)
(-0.223506 0 -0.00704957)
(-0.195791 0 -0.00790471)
(-0.162677 0 0.0750324)
(-0.145885 0 0.0778263)
(-0.208501 0 0.0950603)
(-0.38732 0 0.0974183)
(-0.136393 0 0.135591)
(-0.0322299 0 0.124224)
(-0.0185256 0 0.121109)
(-0.010972 0 0.112451)
(-0.00356312 0 0.104582)
(-0.179101 0 0.0730394)
(-0.201151 0 0.0479918)
(-0.223804 0 0.0304808)
(-0.232516 0 0.00578426)
(-0.22795 0 -0.00730168)
(-0.208725 0 -0.0197159)
(-0.177741 0 -0.0243693)
(-0.163826 0 0.0791974)
(-0.221963 0 0.0976727)
(-0.409379 0 0.102109)
(-0.179635 0 0.136528)
(-0.0364071 0 0.135669)
(-0.0200602 0 0.130971)
(-0.0121601 0 0.121315)
(-0.00408845 0 0.112949)
(-0.181617 0 0.078389)
(-0.204821 0 0.0668329)
(-0.229588 0 0.0334068)
(-0.239938 0 0.0131362)
(-0.235829 0 -0.0116411)
(-0.216733 0 -0.0244583)
(-0.200822 0 -0.0509967)
(-0.0310463 0 -0.0236354)
(-0.236324 0 0.0983919)
(-0.428743 0 0.10556)
(-0.234443 0 0.136566)
(-0.0405262 0 0.149022)
(-0.0210571 0 0.141198)
(-0.0132023 0 0.130634)
(-0.00459919 0 0.121822)
(-0.250903 0 0.0967687)
(-0.20988 0 0.0736474)
(-0.236172 0 0.0485921)
(-0.247715 0 0.0125271)
(-0.244955 0 -0.00709327)
(-0.230853 0 -0.0333577)
(-0.212139 0 -0.0583068)
(-0.117339 0 -0.0645056)
(-0.033505 0 -0.114957)
(-0.448415 0 0.107311)
(-0.298742 0 0.136001)
(-0.0444808 0 0.164693)
(-0.0209105 0 0.151439)
(-0.0138546 0 0.140183)
(-0.00505754 0 0.131042)
(-0.467685 0 0.107296)
(-0.274077 0 0.0917742)
(-0.244509 0 0.0543687)
(-0.257194 0 0.0236836)
(-0.254672 0 -0.0124003)
(-0.2421 0 -0.030086)
(-0.230598 0 -0.0660574)
(-0.166437 0 -0.0767848)
(-0.121454 0 -0.163519)
(0.424829 0 -0.0152107)
(-0.367861 0 0.134164)
(-0.0482189 0 0.180227)
(-0.0192438 0 0.160806)
(-0.0137178 0 0.149462)
(-0.00538093 0 0.140268)
(-0.437478 0 0.137128)
(-0.486097 0 0.0982064)
(-0.301645 0 0.0724099)
(-0.267136 0 0.0235214)
(-0.265869 0 -0.003316)
(-0.253727 0 -0.0391592)
(-0.239104 0 -0.0566995)
(-0.219816 0 -0.0908495)
(-0.193492 0 -0.158967)
(0.00804486 0 -0.0621196)
(0.0665892 0 0.159271)
(-0.0567604 0 0.190814)
(-0.0148463 0 0.168241)
(-0.0124391 0 0.157579)
(-0.00543936 0 0.148936)
(-0.0687779 0 0.190013)
(-0.517122 0 0.10387)
(-0.497467 0 0.0726013)
(-0.320519 0 0.041018)
(-0.277328 0 -0.0119793)
(-0.264434 0 -0.0317698)
(-0.249276 0 -0.0649114)
(-0.238282 0 -0.0752365)
(-0.254198 0 -0.146842)
(-0.165633 0 -0.0256328)
(-0.110031 0 0.140236)
(0.0134452 0 0.963854)
(-0.00837748 0 0.172553)
(-0.00906891 0 0.163703)
(-0.00508613 0 0.156132)
(0.0059127 0 0.172087)
(-0.0916852 0 0.154621)
(-0.573701 0 0.070315)
(-0.50323 0 0.0322864)
(-0.325315 0 0.00370313)
(-0.277298 0 -0.0475838)
(-0.257538 0 -0.0572526)
(-0.246705 0 -0.0848713)
(-0.264589 0 -0.103245)
(-0.297683 0 -0.0487081)
(-0.257947 0 0.196193)
(-0.02056 0 0.902207)
(0.139906 8.73643e-28 0.962564)
(0.0473164 0 1.01625)
(-0.0041558 0 0.165777)
(-0.00397858 0 0.160885)
(0.00632994 0 0.163168)
(0.0220518 0 0.142092)
(-0.136835 0 0.0933966)
(-0.576759 0 0.0266549)
(-0.487107 0 -0.0140095)
(-0.318296 0 -0.0301419)
(-0.269046 0 -0.0778005)
(-0.248694 0 -0.0756954)
(-0.256257 0 -0.0969019)
(-0.311329 0 -0.0211084)
(-0.298128 0 0.14917)
(-0.110381 0 0.783349)
(0.1109 1.16093e-27 0.851952)
(0.253593 -2.36174e-30 0.972477)
(0.11162 5.54562e-28 1.03591)
(0.0202429 0 1.08263)
(-0.00235374 0 0.161109)
(0.00126404 0 0.157101)
(0.0195419 0 0.136739)
(0.0352472 0 0.0898728)
(-0.137901 0 0.00834282)
(-0.525842 0 -0.0266217)
(-0.441988 0 -0.0611175)
(-0.301048 0 -0.059424)
(-0.256846 0 -0.0990975)
(-0.245945 0 -0.0812411)
(-0.268455 0 -0.0444035)
(-0.281803 0 0.132246)
(-0.193646 0 0.602503)
(0.0563573 0 0.733676)
(0.260323 0 0.837416)
(0.414505 1.23014e-26 1.01786)
(0.216718 -1.40676e-30 1.08253)
(0.0838462 7.82427e-29 1.11027)
(0.0130682 0 1.11209)
(0.00604582 0 0.131564)
(0.0336359 0 0.0844516)
(0.0528089 0 0.0104526)
(-0.0961595 0 -0.0897743)
(-0.421295 0 -0.0942488)
(-0.3704 0 -0.102435)
(-0.274437 0 -0.0836657)
(-0.238458 0 -0.109261)
(-0.225311 0 -0.0415694)
(-0.228163 0 0.0655678)
(-0.195332 0 0.425819)
(0.063581 0 0.546584)
(0.253204 0 0.676245)
(0.43225 4.38011e-26 0.859543)
(0.613084 -4.42675e-30 1.06078)
(0.344479 7.23587e-27 1.14981)
(0.148716 0 1.1668)
(0.0383049 0 1.14459)
(0.00136008 0 1.12198)
(0.0120935 0 0.0796818)
(0.0470365 0 0.004503)
(0.0612295 0 -0.0718069)
(-0.0507699 0 -0.183067)
(-0.277545 0 -0.14926)
(-0.292845 0 -0.133941)
(-0.240944 0 -0.100375)
(-0.198951 0 -0.0939861)
(-0.178913 0 0.0302806)
(-0.11605 0 0.249245)
(0.10026 0 0.346561)
(0.247991 -4.45881e-27 0.476846)
(0.423569 2.69806e-26 0.686601)
(0.653337 0 0.856248)
(0.839322 4.32834e-25 1.19926)
(0.524947 -2.8979e-30 1.26432)
(0.246582 1.9657e-27 1.2699)
(0.0745703 0 1.21409)
(-0.00811016 0 1.15452)
(-0.0156151 0 1.10349)
(0.0170356 0 0.0025372)
(0.0499547 0 -0.0787704)
(0.0565216 0 -0.14012)
(-0.0249686 0 -0.236323)
(-0.130189 0 -0.178277)
(-0.220562 0 -0.163569)
(-0.187945 0 -0.0998243)
(-0.140857 0 -0.0664225)
(-0.0408275 0 0.129792)
(0.117106 0 0.161617)
(0.235839 -5.38859e-27 0.340956)
(0.397843 0 0.514206)
(0.655882 -1.76325e-25 0.688746)
(0.851582 -6.61939e-25 0.896275)
(1.11769 6.13568e-10 1.13617)
(0.701023 0 1.34755)
(0.354024 0 1.39067)
(0.111075 -2.653e-26 1.32071)
(-0.014699 5.36465e-27 1.22354)
(-0.045701 0 1.13017)
(-0.0275898 0 1.05799)
(0.0174634 0 -0.0764441)
(0.0443182 0 -0.150662)
(0.0432347 0 -0.186445)
(-0.0124094 0 -0.256564)
(-0.0126067 0 -0.199626)
(-0.129466 0 -0.187923)
(-0.121404 0 -0.0938656)
(-0.00771565 0 -0.0176818)
(0.112523 0 0.0671102)
(0.224015 -2.7954e-42 0.218263)
(0.369584 0 0.355994)
(0.644371 2.91323e-25 0.50515)
(0.810378 -1.95596e-24 0.633984)
(1.21752 -1.24946e-09 0.926357)
(1.16934 6.67674e-09 0.975754)
(0.843497 -1.59841e-10 1.26579)
(1.16099 1.10893e-09 0.977451)
(1.17587 6.57031e-09 0.872191)
(1.16742 9.37646e-10 0.878953)
(0.443214 1.03088e-24 1.43234)
(0.146005 3.51276e-25 1.44498)
(-0.0322269 -2.64297e-26 1.32793)
(-0.0871039 1.51823e-26 1.18734)
(-0.0821907 0 1.08609)
(-0.0350757 0 1.01079)
(0.0149471 0 -0.143697)
(0.033291 0 -0.200654)
(0.0319487 0 -0.212162)
(-0.000901647 0 -0.258925)
(0.0573893 0 -0.226281)
(-0.0202807 0 -0.207676)
(-0.00992166 0 -0.0785343)
(0.103704 0 -0.0551562)
(0.214347 -2.52546e-42 0.13038)
(0.351981 0 0.170902)
(0.608234 0 0.358093)
(0.758008 1.19516e-24 0.414827)
(1.15509 -1.19436e-24 0.626655)
(1.42005 -7.36543e-10 0.697901)
(0.962705 6.34971e-09 0.996188)
(1.27337 1.34353e-08 0.785653)
(0.473144 -2.69404e-09 1.24293)
(0.950204 6.04322e-10 0.998953)
(0.82556 5.12392e-09 0.987768)
(0.822823 1.99337e-10 0.987129)
(1.25372 6.00073e-11 0.785145)
(1.40315 1.05497e-08 0.679667)
(1.39274 4.47842e-10 0.676283)
(0.133764 2.84095e-24 1.44215)
(-0.0648239 -6.02589e-25 1.41593)
(-0.143062 0 1.2779)
(-0.139992 9.12368e-27 1.13646)
(-0.113427 0 1.02855)
(-0.0498396 0 0.91975)
(0.0112928 0 -0.191176)
(0.0243405 0 -0.229043)
(0.0275326 0 -0.229462)
(0.0153903 0 -0.265716)
(0.10849 0 -0.255268)
(0.13082 0 -0.219485)
(0.0904755 0 -0.0981012)
(0.20098 -4.87753e-29 -0.0258101)
(0.361856 7.25844e-28 0.0610092)
(0.569774 1.17957e-25 0.165607)
(0.752023 0 0.287331)
(1.04169 -1.41286e-24 0.353425)
(1.36843 -5.48347e-09 0.52218)
(1.47901 -7.20532e-09 0.365946)
(1.46056 9.15517e-09 0.363088)
(1.53636 8.17025e-10 0.334944)
(1.534 4.59144e-10 0.331211)
(0.936807 1.24815e-08 0.730389)
(1.23051 1.09792e-08 0.491207)
(0.048388 1.77174e-24 1.02789)
(0.0603494 -2.68839e-10 0.444465)
(0.925563 -3.73173e-10 0.72273)
(0.554823 8.67244e-09 0.606862)
(0.550677 -1.57789e-10 0.598935)
(1.21623 -9.35347e-10 0.479194)
(1.381 9.86872e-09 0.410833)
(1.35647 -2.84502e-09 0.414808)
(-0.16077 2.23078e-25 1.34451)
(-0.226266 0 1.34647)
(-0.217741 0 1.20569)
(-0.194219 1.00827e-26 1.06865)
(-0.143319 0 0.945785)
(-0.0529379 0 0.839726)
(0.00845754 0 -0.220111)
(0.0197175 0 -0.246664)
(0.0309757 0 -0.244666)
(0.0263708 0 -0.281148)
(0.138076 0 -0.317841)
(0.28769 0 -0.215312)
(0.177582 0 -0.103505)
(0.351005 1.10445e-28 -0.0781279)
(0.489397 0 0.0268714)
(0.741061 2.00218e-25 0.16877)
(0.877651 1.94777e-24 0.143896)
(1.23896 -2.22835e-09 0.334557)
(1.50177 -2.16556e-10 0.29143)
(1.50197 3.145e-10 0.289561)
(1.5496 3.81586e-10 0.277638)
(1.54446 5.23102e-11 0.274529)
(1.56957 -9.67672e-09 0.206242)
(1.55549 6.5682e-09 0.204558)
(1.63491 -1.03009e-09 0.124398)
(1.62682 1.02067e-09 0.117236)
(0.752314 8.91778e-09 0.151446)
(1.43679 2.08717e-08 0.18389)
(0.670788 1.47506e-08 -0.0234205)
(1.43884 1.40108e-08 0.188099)
(0.852916 2.78949e-09 -0.0230671)
(-0.29863 6.22231e-24 0.829054)
(-0.322894 -4.51362e-09 0.198792)
(-0.421619 -2.39543e-09 -0.336993)
(-0.332003 -2.20673e-09 -0.285986)
(0.148875 -3.91522e-09 -0.0399305)
(0.185591 1.93612e-09 -0.0326172)
(0.738379 7.74701e-10 0.141703)
(0.443898 7.79344e-09 0.0128305)
(0.449768 2.47204e-10 0.0236254)
(1.41835 -9.04376e-09 0.15863)
(0.688669 -7.55967e-09 -0.00708194)
(1.4273 1.38431e-09 0.171991)
(0.820612 -3.03925e-09 -0.0201997)
(1.56646 2.76588e-08 0.201063)
(1.17328 1.78541e-08 0.164619)
(1.58261 2.33435e-08 0.0946501)
(1.23717 3.74904e-09 0.0514042)
(1.53541 -1.52082e-08 0.20049)
(1.22018 -9.77401e-09 0.151967)
(1.54999 -5.2844e-09 0.0783561)
(1.23071 -4.09353e-09 0.0735549)
(-0.353803 0 1.23343)
(-0.330029 -1.76997e-25 1.25118)
(-0.284083 0 1.11743)
(-0.246434 1.05331e-26 0.985832)
(-0.168162 0 0.850377)
(-0.0629026 0 0.724794)
(0.00693728 0 -0.239553)
(0.0199866 0 -0.261221)
(0.0284026 0 -0.264011)
(0.0330977 0 -0.281406)
(0.140827 0 -0.326257)
(0.424936 0 -0.243292)
(0.319223 0 -0.126214)
(0.435626 0 -0.114264)
(0.685683 2.93137e-25 0.0734096)
(0.826556 1.23085e-24 -0.00920485)
(1.13094 -5.11217e-10 0.164337)
(1.44555 9.19247e-10 0.17156)
(1.43973 -2.00042e-10 0.16767)
(1.4187 1.8544e-09 0.1147)
(1.41715 -1.85858e-10 0.115221)
(1.52656 -6.23346e-09 0.0720453)
(1.52561 1.59644e-09 0.0798352)
(1.57076 -8.21194e-09 0.0471037)
(1.57741 1.5894e-09 0.0483076)
(1.09369 2.93259e-09 -0.223411)
(0.865097 -3.77889e-11 0.164372)
(1.72573 2.87863e-09 -0.118329)
(1.26811 2.86162e-09 -0.117355)
(1.77351 3.99562e-09 -0.050851)
(1.745 3.89746e-10 -0.158669)
(0.998355 -3.75984e-10 0.162977)
(1.09628 4.7512e-10 -0.219966)
(1.71472 -1.49791e-09 -0.115674)
(1.25793 -1.9665e-09 -0.108349)
(1.76529 -4.59382e-09 -0.0506815)
(1.70077 6.28213e-10 -0.171792)
(1.3391 2.97865e-09 -0.137021)
(1.82223 7.29323e-09 -0.0586156)
(1.33693 2.62847e-09 -0.147385)
(1.83504 6.10767e-09 -0.080925)
(1.34158 -2.517e-09 -0.13873)
(1.81594 -4.47521e-09 -0.0668882)
(1.32926 -2.31068e-09 -0.137993)
(1.82095 -4.49659e-09 -0.0847036)
(0.858751 1.84294e-08 0.109817)
(0.153775 1.72646e-08 -0.242159)
(0.946935 1.41477e-08 -0.0271884)
(-0.180393 3.11137e-09 -0.331577)
(1.45713 2.16887e-09 0.0126892)
(0.655847 2.44584e-09 -0.360834)
(1.32189 2.05608e-09 0.0781814)
(0.907315 1.14803e-09 -0.303613)
(-0.518159 1.24165e-24 0.660665)
(-0.565808 -2.93758e-09 -0.224525)
(-0.738912 -4.71855e-09 -0.590456)
(-0.659297 -4.56885e-09 -0.577096)
(-0.602387 -4.55225e-09 -0.453791)
(-0.506669 -4.42791e-09 -0.423728)
(-0.695192 -2.70694e-09 -0.586747)
(-0.602855 -1.78732e-09 -0.549428)
(-0.335137 1.18675e-09 -0.463529)
(-0.258935 -1.35274e-09 -0.437775)
(0.838763 -7.73611e-09 0.100021)
(0.223418 -9.51494e-09 -0.227065)
(0.929186 -1.13839e-09 -0.0421748)
(-0.146866 -3.15111e-09 -0.312635)
(0.689608 2.52825e-08 -0.103675)
(-0.276444 2.45349e-08 -0.64903)
(0.698446 2.33304e-08 0.235282)
(-0.21305 4.7541e-09 -0.449522)
(0.694324 -1.40007e-08 -0.103946)
(-0.241453 -1.23997e-08 -0.661556)
(0.686052 -6.42147e-09 0.235851)
(-0.208678 -4.74046e-09 -0.42548)
(1.42248 -3.60215e-09 0.00523084)
(0.661271 -2.28683e-09 -0.338171)
(1.31467 -3.94074e-09 0.0715152)
(0.907005 -1.66421e-09 -0.283189)
(1.64441 2.23601e-09 0.0154855)
(1.11904 1.39371e-09 -0.193733)
(1.6073 -3.0183e-09 0.0167494)
(1.14848 -1.82008e-09 -0.18366)
(-0.481932 -4.44412e-25 1.11761)
(-0.412897 0 1.13274)
(-0.356716 0 1.02371)
(-0.287787 0 0.877136)
(-0.185516 0 0.741672)
(-0.0655106 0 0.617277)
(0.00610692 0 -0.254532)
(0.0195941 0 -0.276611)
(0.0300966 0 -0.279579)
(0.028746 0 -0.285202)
(0.156238 0 -0.364843)
(0.592071 0 -0.294233)
(0.441704 0 -0.172284)
(0.591159 0 -0.132957)
(0.801739 2.99247e-25 -0.0602698)
(1.00636 -3.71804e-10 -0.00210816)
(1.22178 1.25131e-09 0.0345352)
(1.22148 -4.81973e-10 0.0417055)
(1.27236 2.42206e-09 0.0371629)
(1.27173 3.17175e-10 0.0463113)
(1.47486 -7.76983e-09 0.0189793)
(1.47652 2.73917e-09 0.0220069)
(1.4227 -8.23579e-09 0.0529277)
(1.42418 3.22339e-09 0.0491956)
(1.2865 2.89852e-09 -0.149803)
(1.77286 5.76666e-09 -0.114969)
(1.30899 4.96675e-09 -0.151164)
(1.79575 7.92864e-09 -0.0862021)
(1.30187 -2.36627e-09 -0.145105)
(1.77172 -4.85489e-09 -0.113618)
(1.32471 -2.79713e-09 -0.153207)
(1.79472 -5.84128e-09 -0.0887154)
(1.31826 7.026e-09 -0.107886)
(1.7938 1.00531e-08 -0.071829)
(1.30049 5.7453e-09 -0.119594)
(1.78452 9.19179e-09 -0.064573)
(1.34662 -3.8493e-09 -0.114757)
(1.79191 -5.58143e-09 -0.0679425)
(1.32496 -3.29758e-09 -0.117058)
(1.78293 -6.23319e-09 -0.0570683)
(0.733708 1.27594e-09 -0.0890503)
(1.20816 6.21884e-13 -0.289822)
(1.75614 4.58593e-11 -0.116178)
(1.64088 2.33251e-09 -0.314995)
(1.33518 1.30027e-11 -0.237852)
(1.82111 -1.9741e-10 -0.11172)
(0.805131 1.59124e-10 -0.0673348)
(1.19594 -4.85446e-11 -0.27789)
(1.61256 -9.78061e-10 -0.326768)
(1.74776 4.97701e-11 -0.114644)
(1.31999 -1.75005e-10 -0.225761)
(1.81013 -2.7545e-10 -0.111341)
(1.37222 -2.27819e-10 -0.22696)
(1.85922 1.32711e-10 -0.124009)
(1.37741 5.43463e-12 -0.247526)
(1.86329 2.82152e-10 -0.140813)
(1.37755 -1.02211e-10 -0.228793)
(1.85153 2.3798e-11 -0.130698)
(1.37115 -3.78073e-11 -0.250444)
(1.85098 -1.6474e-10 -0.144827)
(0.747266 8.46728e-09 0.0971088)
(0.299024 4.03938e-09 -0.514267)
(0.792917 4.8082e-09 -0.0507421)
(0.200679 4.06074e-09 -0.460796)
(1.34402 3.02814e-10 -0.187502)
(0.677352 8.5965e-10 -0.500818)
(1.26898 6.68555e-10 -0.0683652)
(0.823484 4.11181e-10 -0.461082)
(-0.598147 0 0.558138)
(-0.64564 -1.73467e-09 -0.36563)
(-0.799864 -4.78967e-09 -0.735449)
(-0.76011 -4.69058e-09 -0.774902)
(-0.777709 -4.58219e-09 -0.700434)
(-0.723106 -4.61066e-09 -0.711655)
(-0.840961 -6.89395e-09 -0.793879)
(-0.784659 -5.15271e-09 -0.831985)
(-0.821868 -7.03955e-09 -0.716849)
(-0.758485 -4.44174e-09 -0.719575)
(-0.857624 1.45391e-08 -0.835001)
(-0.697834 1.7789e-08 -0.794235)
(-0.76469 1.03237e-08 -0.810762)
(-0.563394 1.3475e-08 -0.728454)
(-0.781334 -9.49798e-09 -0.818349)
(-0.643116 -1.75891e-08 -0.815866)
(-0.680624 -7.43278e-09 -0.764073)
(-0.491131 -1.50081e-08 -0.701369)
(-0.317314 5.83559e-09 -0.727655)
(0.0787424 7.9323e-09 -0.554417)
(-0.100724 6.76306e-09 -0.464118)
(-0.641823 8.57567e-09 -0.766226)
(-0.384859 1.01156e-08 -0.633625)
(0.405511 1.25238e-08 0.349435)
(-0.259283 -2.60325e-09 -0.680032)
(0.0634122 -6.43366e-09 -0.56951)
(0.0336137 -5.73111e-09 -0.383769)
(-0.551796 -5.35059e-09 -0.71648)
(-0.287502 -1.13825e-08 -0.589525)
(0.428338 -1.16314e-08 0.341361)
(0.729173 -8.91424e-09 0.0874269)
(0.317121 -3.48595e-09 -0.500463)
(0.783989 -5.81638e-09 -0.0696323)
(0.196308 -4.34225e-09 -0.45945)
(0.582584 1.03407e-08 -0.0889584)
(0.186213 5.10291e-09 -0.488669)
(0.580474 -1.02947e-08 -0.0933049)
(0.175614 -5.32383e-09 -0.498327)
(1.32159 -1.22071e-09 -0.192982)
(0.680861 -1.27018e-09 -0.492497)
(1.26089 -1.56257e-09 -0.0711618)
(0.827607 -8.46274e-10 -0.473566)
(1.57816 7.1224e-10 -0.0775391)
(0.945091 6.01622e-10 -0.317617)
(1.54775 -1.42197e-09 -0.0855796)
(0.97205 -9.02869e-10 -0.333687)
(-0.574303 -4.89729e-25 1.01648)
(-0.470823 0 1.03464)
(-0.416302 0 0.914917)
(-0.310426 0 0.770535)
(-0.198902 0 0.628072)
(-0.0726105 0 0.490381)
(0.00399645 0 -0.269078)
(0.0161954 0 -0.286614)
(0.020332 0 -0.293197)
(0.0387984 0 -0.279305)
(0.119398 0 -0.414025)