/*--------------------------------*- C++ -*----------------------------------*\
| =========                 |                                                 |
| \\      /  F ield         | OpenFOAM: The Open Source CFD Toolbox           |
|  \\    /   O peration     | Version:  5.x                                   |
|   \\  /    A nd           | Web:      www.OpenFOAM.org                      |
|    \\/     M anipulation  |                                                 |
\*---------------------------------------------------------------------------*/
FoamFile
{
    version     2.0;
    format      ascii;
    class       surfaceVectorField;
    location    "1";
    object      Uf;
}
// * * * * * * * * * * * * * * * * * * * * * * * * * * * * * * * * * * * * * //

dimensions      [0 1 -1 0 0 0 0];

internalField   nonuniform List<vector> 
30582
(
(0.213464 0 0.00276051)
(0.210369 0 -7.98999e-05)
(0.211606 0 0.00382611)
(0.215642 0 0.000742954)
(0.21306 0 -0.00215299)
(0.209861 0 9.4993e-06)
(0.207766 0 0.00365195)
(0.20817 0 0.00156372)
(0.210762 0 -0.00162657)
(0.214689 0 0.00166233)
(0.211992 0 0.00394648)
(0.208834 0 0.000539868)
(0.205417 0 0.00259885)
(0.207047 0 0.000973899)
(0.206857 0 -0.0012462)
(0.20725 0 0.00315361)
(0.209881 0 0.00669312)
(0.212397 0 0.0025069)
(0.209871 0 -0.00110222)
(0.207147 0 0.00193552)
(0.206174 0 0.00158552)
(0.204744 0 -0.000319624)
(0.204423 0 -0.00204896)
(0.206327 0 0.00198285)
(0.206156 0 0.00662847)
(0.204617 0 0.00467039)
(0.206084 0 0.000166033)
(0.209308 0 0.00402191)
(0.206881 0 0.00743178)
(0.204441 0 0.0045488)
(0.207703 0 0.00113802)
(0.207691 0 -0.000656543)
(0.205623 0 -0.0026483)
(0.204339 0 -0.00082591)
(0.20408 0 0.00337896)
(0.204027 0 0.00284334)
(0.202004 0 0.0005418)
(0.201459 0 0.0063319)
(0.204258 0 0.010647)
(0.203744 0 0.0050711)
(0.201015 0 0.00165941)
(0.201552 0 0.0095206)
(0.208005 0 0.00115036)
(0.208209 0 -0.000132285)
(0.20774 0 -0.00198911)
(0.207949 0 -0.00156597)
(0.205863 0 0.000435393)
(0.202793 0 -0.00157845)
(0.200238 0 -0.00241999)
(0.201288 0 0.00357525)
(0.200092 0 0.00975207)
(0.19567 0 0.0080285)
(0.195783 0 0.002031)
(0.197828 0 0.00716379)
(0.197758 0 0.015748)
(0.196999 0 0.015836)
(0.204432 0 0.00160205)
(0.207124 0 0.0015901)
(0.208151 0 0.000180427)
(0.209164 0 -0.000311897)
(0.208854 0 0.00026621)
(0.20778 0 -0.0028506)
(0.203625 0 -0.00515512)
(0.201334 0 -0.00300749)
(0.199516 0 0.00331397)
(0.196342 0 0.00381372)
(0.191015 0 0.0017256)
(0.189704 0 0.00997016)
(0.19427 0 0.0156117)
(0.184432 0 0.0085591)
(0.182023 0 0.0075942)
(0.159339 0 0.0284094)
(0.196618 0 0.00244143)
(0.201277 0 0.0035402)
(0.20514 0 0.00332213)
(0.208511 0 0.00293008)
(0.210449 0 0.00273605)
(0.210174 0 -0.00100901)
(0.208608 0 -0.00437348)
(0.208122 0 -0.00499106)
(0.204343 0 -0.00242393)
(0.198291 0 -0.00504389)
(0.191913 0 -0.00500962)
(0.190879 0 0.00344165)
(0.188191 0 0.0119406)
(0.178302 0 0.0124456)
(0.173253 0 0.0053323)
(0.152109 0 0.0120671)
(0.127611 0 0.0339404)
(-0.112949 0 -0.0297361)
(0.184685 0 0.00328708)
(0.191233 0 0.00550216)
(0.197469 0 0.00645656)
(0.202691 0 0.0070156)
(0.207274 0 0.00708109)
(0.210379 0 0.00434299)
(0.210967 0 0.000200846)
(0.212063 0 -0.00204017)
(0.210937 0 -0.00224917)
(0.20817 0 -0.00782305)
(0.20019 0 -0.0110236)
(0.194633 0 -0.00853628)
(0.19016 0 0.000312666)
(0.183535 0 0.00262546)
(0.171508 0 0.00341278)
(0.163388 0 0.013156)
(0.148223 0 0.019348)
(0.0196556 0 0.00382165)
(-0.218691 0 -0.0574874)
(-0.268971 0 0.0558352)
(0.169576 0 0.00393961)
(0.177425 0 0.00709275)
(0.185456 0 0.00923071)
(0.192527 0 0.0110413)
(0.199387 0 0.012003)
(0.204866 0 0.0105886)
(0.209297 0 0.00723569)
(0.213415 0 0.00508641)
(0.215459 0 0.00342897)
(0.214374 0 -0.00401709)
(0.210731 0 -0.0100959)
(0.207896 0 -0.0123503)
(0.199803 0 -0.00906465)
(0.190826 0 -0.0126048)
(0.180847 0 -0.010689)
(0.185229 0 -0.00124525)
(0.174836 0 0.00713821)
(0.062946 0 0.00231919)
(-0.0615867 0 -0.0130352)
(-0.0212671 0 -0.0590227)
(-0.0625566 0 0.0450727)
(-0.0598427 0 0.0804112)
(0.152472 0 0.00433884)
(0.161045 0 0.00817248)
(0.170132 0 0.0113008)
(0.178414 0 0.014286)
(0.187021 0 0.0164699)
(0.194566 0 0.0167436)
(0.201812 0 0.0147187)
(0.208238 0 0.0139791)
(0.213829 0 0.0126382)
(0.217399 0 0.00581159)
(0.217284 0 -0.00220333)
(0.217142 0 -0.00688199)
(0.212981 0 -0.00837105)
(0.208285 0 -0.0180104)
(0.19601 0 -0.0226154)
(0.202952 0 -0.0190022)
(0.203777 0 -0.0102959)
(0.146093 0 -0.0132408)
(0.0352134 0 -0.0194876)
(-0.036702 0 -0.037098)
(0.00298307 0 -0.0808653)
(0.0654731 0 -0.0852394)
(0.0776082 0 -0.0411358)
(0.0448088 0 0.0499136)
(0.134544 0 0.00449278)
(0.143319 0 0.00871979)
(0.152781 0 0.0125575)
(0.161659 0 0.0164631)
(0.171208 0 0.0198008)
(0.179967 0 0.0217088)
(0.189142 0 0.021373)
(0.197642 0 0.0225862)
(0.206008 0 0.022664)
(0.212783 0 0.017522)
(0.218023 0 0.0099557)
(0.222317 0 0.00548269)
(0.22337 0 0.0016408)
(0.221043 0 -0.0114236)
(0.214285 0 -0.0220536)
(0.231467 0 -0.0258594)
(0.234271 0 -0.0213973)
(0.218375 0 -0.0318684)
(0.156744 0 -0.0372556)
(0.0559205 0 -0.0636144)
(-0.0122535 0 -0.0750051)
(-0.00357429 0 -0.0308937)
(0.0542291 0 -0.03879)
(0.0388301 0 -0.0758873)
(0.0084228 0 0.00686615)
(0.0500081 0 0.0466038)
(0.116747 0 0.00444789)
(0.125324 0 0.00881145)
(0.13463 0 0.0130548)
(0.143573 0 0.0175481)
(0.153341 0 0.0217785)
(0.162596 0 0.0250004)
(0.172671 0 0.0263086)
(0.182284 0 0.0294405)
(0.192548 0 0.0315211)
(0.201721 0 0.0287928)
(0.210651 0 0.0228977)
(0.218243 0 0.0208615)
(0.224412 0 0.0169607)
(0.228631 0 0.00501862)
(0.227925 0 -0.00904453)
(0.250481 0 -0.017387)
(0.264814 0 -0.018705)
(0.298173 0 -0.0389776)
(0.275981 0 -0.0499505)
(0.147807 0 -0.0821762)
(0.0444421 0 -0.105117)
(0.0449764 0 -0.087114)
(0.0565895 0 -0.0497919)
(0.0233038 0 -0.0318549)
(0.00431789 0 -0.0657302)
(0.0189518 0 -0.0742453)
(0.0613767 0 -0.0274205)
(0.0289617 0 0.022485)
(0.0997542 0 0.00426085)
(0.107861 0 0.00856466)
(0.116659 0 0.0129471)
(0.12528 0 0.0177088)
(0.134736 0 0.0224895)
(0.143912 0 0.0265972)
(0.154059 0 0.0292348)
(0.163992 0 0.0338937)
(0.174989 0 0.0379554)
(0.185275 0 0.0376828)
(0.196386 0 0.0341369)
(0.206564 0 0.0353706)
(0.21659 0 0.0334983)
(0.225253 0 0.0244052)
(0.231322 0 0.0119245)
(0.262441 0 0.00350693)
(0.286941 0 -0.00242863)
(0.356766 0 -0.0270604)
(0.384653 0 -0.0452217)
(0.276624 0 -0.0856524)
(0.145741 0 -0.119942)
(0.072366 0 -0.124915)
(0.0705605 0 -0.111899)
(0.0572816 0 -0.0929048)
(0.02631 0 -0.0702278)
(0.01394 0 -0.0408101)
(0.0265909 0 -0.0467692)
(0.00925258 0 -0.0603305)
(-0.0223131 0 -0.0169682)
(0.0839663 0 0.00398506)
(0.0914474 0 0.00809952)
(0.0995478 0 0.0124193)
(0.107601 0 0.0171892)
(0.116418 0 0.0221951)
(0.12513 0 0.0267784)
(0.13479 0 0.0303205)
(0.144437 0 0.0359693)
(0.155259 0 0.0415986)
(0.165683 0 0.0433212)
(0.177434 0 0.0421195)
(0.188748 0 0.0465793)
(0.201092 0 0.0482416)
(0.21295 0 0.0425168)
(0.224421 0 0.0343127)
(0.261728 0 0.0275316)
(0.295438 0 0.0224011)
(0.39137 0 -0.000274512)
(0.464769 0 -0.0232785)
(0.400709 0 -0.0620863)
(0.283558 0 -0.105307)
(0.138569 0 -0.144844)
(0.0684607 0 -0.150747)
(0.0441996 0 -0.124029)
(0.0281091 0 -0.102028)
(0.0279133 0 -0.0936505)
(0.0171873 0 -0.0639932)
(0.00809859 0 -0.036981)
(-0.0108218 0 -0.0538491)
(0.0695661 0 0.00366929)
(0.0763613 0 0.00752007)
(0.0836908 0 0.0116443)
(0.0910509 0 0.0162344)
(0.0990723 0 0.0212054)
(0.107099 0 0.0259316)
(0.115965 0 0.0299725)
(0.124954 0 0.0360989)
(0.135039 0 0.0427292)
(0.144928 0 0.0458035)
(0.156229 0 0.0464691)
(0.16754 0 0.0534535)
(0.180423 0 0.0587734)
(0.193416 0 0.0562821)
(0.207804 0 0.052392)
(0.250499 0 0.0501789)
(0.2918 0 0.0480105)
(0.400699 0 0.0291797)
(0.502373 0 0.00881076)
(0.484557 0 -0.0170099)
(0.418524 0 -0.0573103)
(0.214598 0 -0.121091)
(0.0666482 0 -0.158582)
(0.033869 0 -0.144066)
(0.0119579 0 -0.119392)
(0.0135732 0 -0.117215)
(0.01178 0 -0.106145)
(0.0124534 0 -0.0914093)
(0.00419855 0 -0.067479)
(0.056572 0 0.00335252)
(0.0626938 0 0.0069075)
(0.0692627 0 0.0107607)
(0.0758977 0 0.0150546)
(0.0830847 0 0.0198076)
(0.0903307 0 0.0244364)
(0.0982836 0 0.028649)
(0.106428 0 0.0348432)
(0.115511 0 0.0419373)
(0.124502 0 0.0457673)
(0.134765 0 0.0476566)
(0.14532 0 0.0562428)
(0.157482 0 0.0644006)
(0.170105 0 0.064415)
(0.184802 0 0.0634151)
(0.231365 0 0.0670793)
(0.277579 0 0.0679805)
(0.394011 0 0.0567362)
(0.511548 0 0.0423363)
(0.519606 0 0.0250231)
(0.509876 0 -0.00336713)
(0.278327 0 -0.0576645)
(0.0709398 0 -0.117543)
(0.0169262 0 -0.122968)
(-0.0124835 0 -0.11527)
(-0.00187427 0 -0.133568)
(8.0922e-05 0 -0.126439)
(0.00451747 0 -0.112279)
(0.00447703 0 -0.101072)
(0.0448891 0 0.0030602)
(0.0504015 0 0.00632195)
(0.056273 0 0.00987252)
(0.0622187 0 0.0138127)
(0.0686113 0 0.0182376)
(0.0750757 0 0.022613)
(0.0821143 0 0.0267615)
(0.0893589 0 0.0327316)
(0.0973741 0 0.0398615)
(0.105326 0 0.0439847)
(0.114336 0 0.0465246)
(0.123777 0 0.0558824)
(0.134619 0 0.0658878)
(0.146031 0 0.0673629)
(0.159432 0 0.0677828)
(0.20881 0 0.0765373)
(0.257802 0 0.0800008)
(0.376662 0 0.0763632)
(0.501387 0 0.0692623)
(0.516955 0 0.061422)
(0.539709 0 0.040128)
(0.312729 0 0.0115083)
(0.0865498 0 -0.0391634)
(0.0138172 0 -0.0646116)
(-0.0386962 0 -0.078408)
(-0.0278502 0 -0.111508)
(-0.0156178 0 -0.123264)
(-0.00406926 0 -0.126826)
(0.000360043 0 -0.117401)
(0.0343509 0 0.00281003)
(0.0393483 0 0.0058047)
(0.0446177 0 0.00905624)
(0.0499559 0 0.0126289)
(0.0556397 0 0.0166741)
(0.0613867 0 0.0207083)
(0.0675832 0 0.0246399)
(0.0739652 0 0.0302015)
(0.0809585 0 0.0370623)
(0.0878751 0 0.0411529)
(0.0956325 0 0.0439173)
(0.103876 0 0.0534114)
(0.113249 0 0.0644233)
(0.123091 0 0.066463)
(0.134707 0 0.0672299)
(0.186144 0 0.0793884)
(0.23694 0 0.0852348)
(0.355335 0 0.0865055)
(0.480577 0 0.0854409)
(0.484128 0 0.0861316)
(0.511648 0 0.07623)
(0.309109 0 0.0743611)
(0.0897166 0 0.0456389)
(0.0203253 0 0.0100736)
(-0.0510812 0 -0.0208085)
(-0.0438271 0 -0.0590997)
(-0.0319103 0 -0.0857595)
(-0.01787 0 -0.104385)
(-0.00560965 0 -0.112893)
(0.0247502 0 0.00261753)
(0.0293417 0 0.0053831)
(0.0341232 0 0.00836285)
(0.0389609 0 0.0115854)
(0.044048 0 0.0152433)
(0.0491814 0 0.0189015)
(0.0546481 0 0.0225295)
(0.0602633 0 0.0275844)
(0.0663451 0 0.0339834)
(0.0723191 0 0.0378329)
(0.0789339 0 0.0405332)
(0.0860332 0 0.0497196)
(0.0940101 0 0.0610629)
(0.102233 0 0.0631082)
(0.111928 0 0.0635466)
(0.165065 0 0.0777409)
(0.217315 0 0.0855183)
(0.333474 0 0.0889336)
(0.456664 0 0.0917474)
(0.431631 0 0.097932)
(0.437762 0 0.101455)
(0.274186 0 0.120814)
(0.0745928 0 0.11433)
(0.0230151 0 0.0813348)
(-0.0483766 0 0.0439086)
(-0.047387 0 0.00884839)
(-0.0396682 0 -0.0251864)
(-0.0258591 0 -0.0556472)
(-0.0114263 0 -0.0779447)
(0.0158638 0 0.00248958)
(0.0201643 0 0.00507213)
(0.024577 0 0.00782011)
(0.0290329 0 0.0107355)
(0.0336493 0 0.0140292)
(0.0382916 0 0.0173133)
(0.0431612 0 0.0206014)
(0.048137 0 0.0251174)
(0.0534488 0 0.0309525)
(0.0586229 0 0.0344399)
(0.0642596 0 0.0369029)
(0.0703449 0 0.0454961)
(0.0770903 0 0.0566654)
(0.0838234 0 0.0583999)
(0.0917118 0 0.0581729)
(0.14611 0 0.0732975)
(0.199662 0 0.0823691)
(0.310978 0 0.0864813)
(0.430096 0 0.0915785)
(0.371228 0 0.101855)
(0.345523 0 0.115247)
(0.222512 0 0.142006)
(0.0561521 0 0.152846)
(0.0212904 0 0.129471)
(-0.0344649 0 0.0992713)
(-0.0381454 0 0.07492)
(-0.0389122 0 0.0409936)
(-0.028235 0 0.00850591)
(-0.0139128 0 -0.0229953)
(0.00746436 0 0.00242388)
(0.0115876 0 0.00487983)
(0.0157534 0 0.00744435)
(0.0199476 0 0.0101084)
(0.0242216 0 0.0130841)
(0.0285016 0 0.0160216)
(0.0329141 0 0.018968)
(0.0373904 0 0.0229577)
(0.0420867 0 0.0281979)
(0.0466244 0 0.0312656)
(0.0514688 0 0.0333982)
(0.0567035 0 0.0412393)
(0.0624157 0 0.0518837)
(0.0678864 0 0.0531596)
(0.0742121 0 0.0521643)
(0.129297 0 0.0673775)
(0.183875 0 0.0771186)
(0.285912 0 0.0812542)
(0.397914 0 0.0877047)
(0.313419 0 0.102415)
(0.254005 0 0.122282)
(0.169125 0 0.146367)
(0.0420913 0 0.161388)
(0.0201003 0 0.148725)
(-0.0157243 0 0.132784)
(-0.0219612 0 0.120674)
(-0.0278352 0 0.0950741)
(-0.0226749 0 0.0698124)
(-0.0128204 0 0.0381825)
(-0.000665467 0 0.00241824)
(0.0033937 0 0.00480828)
(0.00742198 0 0.00724667)
(0.0114714 0 0.00972017)
(0.0155292 0 0.0124357)
(0.0195757 0 0.0150698)
(0.0236689 0 0.017697)
(0.027787 0 0.0212054)
(0.0320232 0 0.0258693)
(0.0360912 0 0.0285009)
(0.0403315 0 0.0302628)
(0.044888 0 0.0372923)
(0.0497697 0 0.0471975)
(0.0542432 0 0.0479618)
(0.0593003 0 0.0462378)
(0.11426 0 0.0609467)
(0.169411 0 0.0708238)
(0.256804 0 0.0747977)
(0.357715 0 0.0820216)
(0.263384 0 0.101516)
(0.177503 0 0.125494)
(0.122998 0 0.140291)
(0.0357948 0 0.151992)
(0.0215536 0 0.149429)
(7.13949e-05 0 0.145311)
(-0.00587432 0 0.141177)
(-0.0128569 0 0.127684)
(-0.0127002 0 0.113643)
(-0.0086495 0 0.0897241)
(-0.00873119 0 0.0024709)
(-0.00463939 0 0.00485566)
(-0.00063753 0 0.00722895)
(0.00338248 0 0.00957494)
(0.00733635 0 0.0120948)
(0.0112718 0 0.01448)
(0.0151792 0 0.016825)
(0.0190759 0 0.0199156)
(0.0230007 0 0.0240576)
(0.0267589 0 0.0262642)
(0.0305751 0 0.0276452)
(0.0346217 0 0.033875)
(0.0388664 0 0.0429431)
(0.0426095 0 0.0431924)
(0.046701 0 0.0408323)
(0.100533 0 0.0546594)
(0.155516 0 0.0642579)
(0.225433 0 0.068203)
(0.310613 0 0.0759055)
(0.219224 0 0.0989619)
(0.122234 0 0.124946)
(0.0880492 0 0.129372)
(0.0325715 0 0.136242)
(0.0232062 0 0.141887)
(0.0097669 0 0.144836)
(0.0048664 0 0.144714)
(-0.000919975 0 0.140527)
(-0.0032603 0 0.135473)
(-0.00348114 0 0.122485)
(-0.0169191 0 0.00257894)
(-0.0127094 0 0.00501756)
(-0.00863312 0 0.00738667)
(-0.00454434 0 0.00966908)
(-0.000581114 0 0.0120607)
(0.00336183 0 0.0142576)
(0.00720082 0 0.0163674)
(0.0110045 0 0.0191153)
(0.0147586 0 0.0228115)
(0.0183563 0 0.0246199)
(0.0219141 0 0.0256276)
(0.0256088 0 0.0311205)
(0.0293953 0 0.039344)
(0.0326568 0 0.0390919)
(0.0360683 0 0.0361921)
(0.087495 0 0.048946)
(0.141347 0 0.0579726)
(0.192674 0 0.0621918)
(0.259644 0 0.0704411)
(0.179785 0 0.0948204)
(0.0852382 0 0.119999)
(0.063683 0 0.117941)
(0.0287648 0 0.121691)
(0.0227636 0 0.131291)
(0.0143046 0 0.137423)
(0.0104771 0 0.13964)
(0.00611354 0 0.140855)
(0.00278502 0 0.141293)
(0.00052205 0 0.136904)
(-0.0253938 0 0.00274066)
(-0.0209845 0 0.00528661)
(-0.0167536 0 0.00771106)
(-0.0125102 0 0.00999378)
(-0.00843534 0 0.0123256)
(-0.00438428 0 0.0143974)
(-0.000497284 0 0.0163244)
(0.00333622 0 0.0188106)
(0.00704229 0 0.0221505)
(0.0106159 0 0.0235982)
(0.0140673 0 0.0242482)
(0.0175569 0 0.0290987)
(0.0210469 0 0.0365381)
(0.0240483 0 0.0358014)
(0.027037 0 0.0324328)
(0.0744123 0 0.0440666)
(0.125869 0 0.0523506)
(0.160056 0 0.0573215)
(0.208389 0 0.066378)
(0.143496 0 0.0894382)
(0.060044 0 0.112034)
(0.0469476 0 0.107977)
(0.0247781 0 0.109823)
(0.0209594 0 0.119986)
(0.0156991 0 0.127166)
(0.0127087 0 0.130588)
(0.00939155 0 0.134576)
(0.00588974 0 0.138017)
(0.00282158 0 0.138839)
(-0.0342959 0 0.00295529)
(-0.0296229 0 0.00565268)
(-0.0251664 0 0.00818703)
(-0.0206863 0 0.0105346)
(-0.0164192 0 0.0128746)
(-0.0121729 0 0.0148863)
(-0.00813314 0 0.0166859)
(-0.00416583 0 0.0189943)
(-0.000387297 0 0.0220739)
(0.0032903 0 0.0232047)
(0.00676511 0 0.0235179)
(0.0101855 0 0.0278406)
(0.0135268 0 0.034602)
(0.0164607 0 0.033391)
(0.0192496 0 0.0295929)
(0.0605256 0 0.0401677)
(0.107935 0 0.0476417)
(0.128946 0 0.0539452)
(0.160603 0 0.0640559)
(0.110737 0 0.0831798)
(0.0424637 0 0.102416)
(0.035112 0 0.0987836)
(0.0215924 0 0.10017)
(0.0187818 0 0.109641)
(0.0151008 0 0.116471)
(0.0128773 0 0.120293)
(0.0103634 0 0.125423)
(0.00707104 0 0.130098)
(0.00384212 0 0.133724)
(-0.043737 0 0.00321319)
(-0.0387518 0 0.00610243)
(-0.0340147 0 0.00879305)
(-0.0292337 0 0.0112712)
(-0.0247029 0 0.0136864)
(-0.0201798 0 0.0157021)
(-0.0159058 0 0.0174317)
(-0.0117147 0 0.0196494)
(-0.00775536 0 0.0225679)
(-0.00386556 0 0.0234299)
(-0.000241857 0 0.0234313)
(0.00323788 0 0.0273489)
(0.00655895 0 0.0335674)
(0.00958979 0 0.0318888)
(0.0123718 0 0.0276681)
(0.0452249 0 0.0373167)
(0.0865364 0 0.0439901)
(0.0997416 0 0.0521657)
(0.118896 0 0.0634998)
(0.0823479 0 0.0769188)
(0.0297657 0 0.0917679)
(0.0262815 0 0.090051)
(0.018837 0 0.092306)
(0.0166907 0 0.100248)
(0.0138575 0 0.106166)
(0.0120636 0 0.11029)
(0.0100053 0 0.115614)
(0.00711282 0 0.120477)
(0.00405282 0 0.125256)
(-0.0537974 0 0.00349949)
(-0.0484678 0 0.00661956)
(-0.0434112 0 0.00950845)
(-0.0382835 0 0.012176)
(-0.0334332 0 0.0147327)
(-0.0285704 0 0.0168148)
(-0.0239909 0 0.018532)
(-0.0194929 0 0.0207457)
(-0.0152688 0 0.0236039)
(-0.011074 0 0.0242537)
(-0.0071876 0 0.0239718)
(-0.00353673 0 0.0276114)
(-0.000110212 0 0.0334352)
(0.00316168 0 0.0312933)
(0.006092 0 0.0266349)
(0.0282913 0 0.0355372)
(0.061144 0 0.0414646)
(0.0717663 0 0.0518102)
(0.0836799 0 0.0646419)
(0.0585882 0 0.0719115)
(0.0200931 0 0.0818834)
(0.0191687 0 0.0822467)
(0.0158212 0 0.0859472)
(0.0144389 0 0.0916829)
(0.0123845 0 0.0965037)
(0.0109013 0 0.101031)
(0.00911927 0 0.106185)
(0.00660783 0 0.110753)
(0.00381949 0 0.11574)
(-0.0645225 0 0.00380248)
(-0.0588356 0 0.00718311)
(-0.0534381 0 0.0103095)
(-0.0479358 0 0.0132171)
(-0.0427301 0 0.0159759)
(-0.0374813 0 0.0181852)
(-0.032541 0 0.0199475)
(-0.0276718 0 0.022244)
(-0.0231098 0 0.0251403)
(-0.018526 0 0.0256369)
(-0.0142916 0 0.0251106)
(-0.0103682 0 0.028607)
(-0.00671718 0 0.034191)
(-0.00308355 0 0.0315889)
(0.000140993 0 0.0264649)
(0.0101271 0 0.0348129)
(0.0322812 0 0.0400799)
(0.0436942 0 0.0523057)
(0.053465 0 0.0670984)
(0.0389046 0 0.0690562)
(0.0125134 0 0.0745251)
(0.0130977 0 0.0761614)
(0.0123723 0 0.0809555)
(0.0117483 0 0.0841466)
(0.0105621 0 0.0879331)
(0.00949458 0 0.0926691)
(0.008036 0 0.0974886)
(0.00589261 0 0.101607)
(0.00340846 0 0.106372)
(-0.0759179 0 0.00411012)
(-0.0698822 0 0.00776863)
(-0.0641442 0 0.0111625)
(-0.0582591 0 0.0143534)
(-0.0526806 0 0.0173687)
(-0.0470195 0 0.0197644)
(-0.0416822 0 0.0216286)
(-0.036395 0 0.0240938)
(-0.0314385 0 0.0271239)
(-0.0264004 0 0.0275325)
(-0.0217433 0 0.0268076)
(-0.0174541 0 0.0302854)
(-0.0134862 0 0.0357881)
(-0.00939553 0 0.0327551)
(-0.00575329 0 0.0271316)
(-0.00837219 0 0.0351372)
(0.00149465 0 0.0398497)
(0.0150068 0 0.0530213)
(0.0261578 0 0.0698547)
(0.022195 0 0.0681706)
(0.00679012 0 0.0701743)
(0.00783907 0 0.072323)
(0.00866358 0 0.0773658)
(0.00864206 0 0.078241)
(0.00822553 0 0.0809741)
(0.00776196 0 0.0854336)
(0.00681518 0 0.089804)
(0.00506565 0 0.0933297)
(0.00293679 0 0.0976954)
(-0.0879467 0 0.00440806)
(-0.0815938 0 0.00834811)
(-0.0755386 0 0.0120273)
(-0.0692856 0 0.0155365)
(-0.0633393 0 0.0188552)
(-0.057261 0 0.0214921)
(-0.0515105 0 0.0235138)
(-0.0457781 0 0.0262313)
(-0.0403894 0 0.0294868)
(-0.034851 0 0.0298794)
(-0.0297137 0 0.0290128)
(-0.0249799 0 0.0325936)
(-0.0206107 0 0.0381544)
(-0.0159885 0 0.0347297)
(-0.0118457 0 0.0286063)
(-0.0260735 0 0.0364885)
(-0.0287893 0 0.0407893)
(-0.0130963 0 0.0533686)
(0.000237074 0 0.0713945)
(0.00665716 0 0.0683518)
(0.00238452 0 0.0678706)
(0.0038037 0 0.0707302)
(0.00497796 0 0.0754238)
(0.00541456 0 0.0744268)
(0.00555605 0 0.0758523)
(0.00572154 0 0.0797378)
(0.00540041 0 0.0834826)
(0.00411593 0 0.0862129)
(0.00242578 0 0.090035)
(-0.100533 0 0.00467859)
(-0.093916 0 0.0088915)
(-0.0875891 0 0.01286)
(-0.0810079 0 0.0167112)
(-0.0747232 0 0.0203711)
(-0.068247 0 0.0232973)
(-0.0620912 0 0.025529)
(-0.055908 0 0.0285785)
(-0.0500698 0 0.0321455)
(-0.0440054 0 0.0326007)
(-0.0383503 0 0.0316622)
(-0.0331084 0 0.0354618)
(-0.0282664 0 0.0412079)
(-0.0230558 0 0.0374548)
(-0.0183423 0 0.0308554)
(-0.0422025 0 0.0387824)
(-0.0565007 0 0.0428157)
(-0.0411668 0 0.0534702)
(-0.0255847 0 0.070876)
(-0.00778761 0 0.0689136)
(-0.0014802 0 0.0672332)
(0.000305282 0 0.0706376)
(0.00167774 0 0.0750282)
(0.00247886 0 0.0726476)
(0.00298524 0 0.0726318)
(0.0035457 0 0.0758942)
(0.00380639 0 0.0788754)
(0.00307472 0 0.0806316)
(0.00185799 0 0.0837232)
(-0.113556 0 0.00490054)
(-0.106751 0 0.00936537)
(-0.100223 0 0.0136138)
(-0.0933774 0 0.0178166)
(-0.0868081 0 0.0218432)
(-0.0799797 0 0.0250983)
(-0.0734524 0 0.0275875)
(-0.0668384 0 0.0310427)
(-0.0605575 0 0.0349999)
(-0.0539648 0 0.0356025)
(-0.0477756 0 0.034675)
(-0.0419797 0 0.0388025)
(-0.036609 0 0.0448437)
(-0.0307778 0 0.0408543)
(-0.0254452 0 0.0338429)
(-0.0565502 0 0.041965)
(-0.0804857 0 0.0458159)
(-0.0681464 0 0.0537446)
(-0.0522801 0 0.0691477)
(-0.0232533 0 0.0698293)
(-0.00540981 0 0.0689332)
(-0.00300185 0 0.0712793)
(-0.00125416 0 0.0755219)
(-7.36913e-06 0 0.0723717)
(0.000789283 0 0.0711838)
(0.00154924 0 0.0739235)
(0.00216134 0 0.0761258)
(0.00193869 0 0.0768332)
(0.00125649 0 0.0790474)
(-0.126855 0 0.00505532)
(-0.11996 0 0.00973468)
(-0.113321 0 0.0142399)
(-0.106301 0 0.0187851)
(-0.0995288 0 0.0231897)
(-0.0924197 0 0.026803)
(-0.0855809 0 0.0295894)
(-0.0785843 0 0.0335156)
(-0.0718949 0 0.0379327)
(-0.0647988 0 0.0387717)
(-0.0580852 0 0.0379502)
(-0.0517109 0 0.0425074)
(-0.0457742 0 0.0489349)
(-0.0393124 0 0.0448331)
(-0.0333352 0 0.0375219)
(-0.069365 0 0.0459541)
(-0.100541 0 0.0497086)
(-0.0941996 0 0.0546996)
(-0.0809053 0 0.0676513)
(-0.039382 0 0.0716014)
(-0.00984067 0 0.0722418)
(-0.00659097 0 0.0725445)
(-0.00415177 0 0.0763769)
(-0.0022414 0 0.0730238)
(-0.00100539 0 0.0711589)
(-7.9408e-05 0 0.0734332)
(0.000685961 0 0.0749957)
(0.000885235 0 0.0747806)
(0.000686713 0 0.0761051)
(-0.140226 0 0.00512844)
(-0.133361 0 0.00996318)
(-0.126726 0 0.0146846)
(-0.119642 0 0.0195462)
(-0.112772 0 0.0243218)
(-0.105482 0 0.0283089)
(-0.0984212 0 0.0314228)
(-0.0911189 0 0.0358739)
(-0.0840838 0 0.0408088)
(-0.0765397 0 0.0419748)
(-0.0693409 0 0.0413638)
(-0.062391 0 0.0464451)
(-0.0558754 0 0.0533315)
(-0.048797 0 0.0492726)
(-0.0421736 0 0.0418269)
(-0.0811374 0 0.0506485)
(-0.117221 0 0.0543826)
(-0.120298 0 0.0567358)
(-0.112631 0 0.067161)
(-0.0575374 0 0.0748448)
(-0.0151572 0 0.0769723)
(-0.0103781 0 0.0749178)
(-0.00729479 0 0.0778686)
(-0.00461212 0 0.0744705)
(-0.00272647 0 0.0723416)
(-0.00152244 0 0.0740599)
(-0.000605417 0 0.0751107)
(-1.35606e-05 0 0.074197)
(0.000189427 0 0.0747579)
(-0.153431 0 0.0051058)
(-0.146734 0 0.0100165)
(-0.140231 0 0.0148917)
(-0.13322 0 0.0200261)
(-0.12638 0 0.0251474)
(-0.119034 0 0.0295072)
(-0.111868 0 0.0329646)
(-0.104369 0 0.0379795)
(-0.0970834 0 0.0434769)
(-0.0891779 0 0.0450573)
(-0.0815638 0 0.0447656)
(-0.0740746 0 0.0504577)
(-0.0669968 0 0.0578587)
(-0.0593425 0 0.0540269)
(-0.0520983 0 0.0466658)
(-0.0924009 0 0.0559196)
(-0.131399 0 0.0596931)
(-0.146856 0 0.0599772)
(-0.148129 0 0.0679271)
(-0.078291 0 0.0796806)
(-0.0218999 0 0.0840411)
(-0.0152421 0 0.0791263)
(-0.0108247 0 0.0805985)
(-0.00735676 0 0.0771198)
(-0.00476295 0 0.0747747)
(-0.00306709 0 0.0757185)
(-0.00188287 0 0.0762538)
(-0.000830228 0 0.0748289)
(-0.000243407 0 0.074766)
(-0.166209 0 0.00497527)
(-0.159841 0 0.0098646)
(-0.153596 0 0.0148106)
(-0.14681 0 0.0201543)
(-0.140148 0 0.0255755)
(-0.132898 0 0.0302847)
(-0.125771 0 0.0340855)
(-0.118211 0 0.0396835)
(-0.110802 0 0.0457708)
(-0.102657 0 0.047845)
(-0.0947329 0 0.0479801)
(-0.0867763 0 0.0543605)
(-0.0791867 0 0.0623171)
(-0.0710264 0 0.0589177)
(-0.0632164 0 0.0519097)
(-0.103623 0 0.0616064)
(-0.143946 0 0.0654653)
(-0.173725 0 0.0643232)
(-0.186987 0 0.0700561)
(-0.101809 0 0.0855454)
(-0.030144 0 0.0931473)
(-0.0207223 0 0.0850094)
(-0.0143729 0 0.0846239)
(-0.0103898 0 0.0813794)
(-0.00714276 0 0.0786589)
(-0.00493045 0 0.0786044)
(-0.00331116 0 0.0784738)
(-0.00169009 0 0.0765937)
(-0.000653181 0 0.0759783)
(-0.172331 0 0.00948482)
(-0.178276 0 0.00472802)
(-0.166555 0 0.0144018)
(-0.160172 0 0.0198692)
(-0.15383 0 0.0255222)
(-0.146848 0 0.0305326)
(-0.139924 0 0.0346546)
(-0.132473 0 0.0408305)
(-0.125098 0 0.0475152)
(-0.116867 0 0.0501477)
(-0.108774 0 0.050807)
(-0.100464 0 0.0579427)
(-0.0924542 0 0.0664856)
(-0.0838857 0 0.0637332)
(-0.0755948 0 0.0573843)
(-0.115167 0 0.0675083)
(-0.155596 0 0.0714944)
(-0.200301 0 0.0695483)
(-0.227708 0 0.0734906)
(-0.127793 0 0.0915964)
(-0.0403252 0 0.103069)
(-0.026914 0 0.0922445)
(-0.0177254 0 0.089663)
(-0.0134057 0 0.0871765)
(-0.00965951 0 0.0840126)
(-0.00695993 0 0.0829775)
(-0.00487779 0 0.0819902)
(-0.00267922 0 0.0795817)
(-0.00109758 0 0.0783988)
(-0.172947 0 0.0191218)
(-0.178816 0 0.0136297)
(-0.190835 0 0.00845967)
(-0.202796 0 0.00361978)
(-0.167151 0 0.0249182)
(-0.160632 0 0.030154)
(-0.154077 0 0.0345509)
(-0.146926 0 0.041268)
(-0.139771 0 0.0485305)
(-0.131646 0 0.0517635)
(-0.12356 0 0.0530283)
(-0.115053 0 0.060971)
(-0.106756 0 0.070124)
(-0.0979091 0 0.0682284)
(-0.0892554 0 0.0628653)
(-0.12729 0 0.0733835)
(-0.166904 0 0.0775443)
(-0.225821 0 0.0753565)
(-0.268266 0 0.0780501)
(-0.155664 0 0.0971982)
(-0.05318 0 0.112514)
(-0.034125 0 0.100206)
(-0.0208425 0 0.0955851)
(-0.0161579 0 0.0942956)
(-0.0120637 0 0.0907069)
(-0.00895286 0 0.0887306)
(-0.00639969 0 0.086929)
(-0.00374885 0 0.083944)
(-0.00161384 0 0.0821261)
(-0.173878 0 0.0290824)
(-0.179824 0 0.0237105)
(-0.191987 0 0.017058)
(-0.203738 0 0.0102846)
(-0.211831 0 0.00561339)
(-0.217859 0 0.00174211)
(-0.167943 0 0.0336749)
(-0.161307 0 0.0408598)
(-0.154563 0 0.0486474)
(-0.146766 0 0.0524881)
(-0.138902 0 0.0544154)
(-0.130403 0 0.0631953)
(-0.121999 0 0.0729775)
(-0.113029 0 0.0721281)
(-0.104162 0 0.0680732)
(-0.140151 0 0.0789487)
(-0.178269 0 0.0833545)
(-0.249712 0 0.0814119)
(-0.306707 0 0.0834115)
(-0.184905 0 0.102035)
(-0.0697286 0 0.120901)
(-0.0428722 0 0.10848)
(-0.0237844 0 0.102421)
(-0.0186419 0 0.102176)
(-0.014115 0 0.0985407)
(-0.0107733 0 0.0956454)
(-0.0078251 0 0.0931334)
(-0.00476342 0 0.089652)
(-0.00218754 0 0.0871906)
(-0.175226 0 0.0394973)
(-0.181194 0 0.0319398)
(-0.193785 0 0.0260318)
(-0.205834 0 0.0184272)
(-0.213634 0 0.0114829)
(-0.219489 0 0.00485573)
(-0.222478 0 0.00124988)
(-0.220965 0 -0.00093993)
(-0.169165 0 0.0477294)
(-0.161946 0 0.0521335)
(-0.154537 0 0.0547389)
(-0.146297 0 0.0643473)
(-0.138016 0 0.074764)
(-0.129116 0 0.0751297)
(-0.120216 0 0.0726786)
(-0.153868 0 0.0838787)
(-0.190012 0 0.08864)
(-0.271845 0 0.0873939)
(-0.341727 0 0.0891215)
(-0.215457 0 0.106151)
(-0.0913244 0 0.128195)
(-0.0538995 0 0.117023)
(-0.0268522 0 0.11028)
(-0.021015 0 0.110571)
(-0.0159447 0 0.107201)
(-0.01239 0 0.103402)
(-0.00913958 0 0.100338)
(-0.00574246 0 0.0965104)
(-0.00275883 0 0.0934769)
(-0.176757 0 0.0505793)
(-0.183265 0 0.0456779)
(-0.196371 0 0.0355449)
(-0.208767 0 0.024397)
(-0.216729 0 0.0177836)
(-0.222742 0 0.0099844)
(-0.225384 0 0.00330691)
(-0.2246 0 -0.00281965)
(-0.221349 0 -0.00468628)
(-0.210185 0 -0.00526443)
(-0.170118 0 0.0538054)
(-0.162421 0 0.0641627)
(-0.154551 0 0.0751902)
(-0.145974 0 0.0768901)
(-0.137255 0 0.0763115)
(-0.16848 0 0.0878259)
(-0.202389 0 0.0930952)
(-0.291571 0 0.0929383)
(-0.372278 0 0.0947213)
(-0.24811 0 0.109365)
(-0.119691 0 0.133586)
(-0.0680667 0 0.126191)
(-0.0304293 0 0.119377)
(-0.023493 0 0.119505)
(-0.0176926 0 0.116426)
(-0.0138963 0 0.111763)
(-0.0103745 0 0.108326)
(-0.00665506 0 0.104229)
(-0.0033065 0 0.100761)
(-0.178288 0 0.0624603)
(-0.185234 0 0.0514825)
(-0.199533 0 0.0458219)
(-0.213053 0 0.0363314)
(-0.221169 0 0.0246742)
(-0.227258 0 0.0124919)
(-0.229888 0 0.00578012)
(-0.228887 0 -0.00129159)
(-0.225728 0 -0.00729273)
(-0.218604 0 -0.0136263)
(-0.202258 0 -0.0134901)
(-0.181451 0 -0.016454)
(-0.171194 0 0.074027)
(-0.163251 0 0.0770113)
(-0.155039 0 0.0785179)
(-0.183924 0 0.0903792)
(-0.215526 0 0.0963781)
(-0.30894 0 0.0976148)
(-0.397582 0 0.0997846)
(-0.283477 0 0.11146)
(-0.157254 0 0.136064)
(-0.0864002 0 0.136379)
(-0.0345951 0 0.129997)
(-0.0261451 0 0.129133)
(-0.0193774 0 0.126084)
(-0.0153428 0 0.120675)
(-0.0115927 0 0.116923)
(-0.00753027 0 0.112593)
(-0.00383456 0 0.108803)
(-0.180359 0 0.0752593)
(-0.187478 0 0.0711461)
(-0.202986 0 0.0570266)
(-0.21771 0 0.0404185)
(-0.226696 0 0.0323791)
(-0.233729 0 0.021475)
(-0.236227 0 0.00909971)
(-0.235506 0 -0.0032641)
(-0.231889 0 -0.00929241)
(-0.224287 0 -0.0162099)
(-0.212729 0 -0.0222489)
(-0.199948 0 -0.0359585)
(-0.189282 0 -0.0374386)
(-0.10762 0 -0.0239882)
(-0.1731 0 0.0787896)
(-0.200074 0 0.0909556)
(-0.229458 0 0.0980355)
(-0.325353 0 0.100947)
(-0.418789 0 0.10385)
(-0.32191 0 0.113417)
(-0.206365 0 0.136548)
(-0.110081 0 0.147406)
(-0.0389801 0 0.142404)
(-0.0287321 0 0.139532)
(-0.0207616 0 0.13613)
(-0.0166312 0 0.130111)
(-0.0127491 0 0.126016)
(-0.00837968 0 0.121477)
(-0.00435699 0 0.117425)
(-0.21626 0 0.0890717)
(-0.190674 0 0.0769425)
(-0.20735 0 0.0692903)
(-0.223023 0 0.0573613)
(-0.23288 0 0.040948)
(-0.240704 0 0.0225655)
(-0.243826 0 0.0132313)
(-0.243995 0 0.0026318)
(-0.240392 0 -0.00958804)
(-0.234826 0 -0.022917)
(-0.223793 0 -0.0287817)
(-0.210373 0 -0.0420342)
(-0.20648 0 -0.0551704)
(-0.16498 0 -0.0580112)
(-0.0741928 0 -0.0428547)
(-0.029376 0 -0.0710512)
(-0.244082 0 0.097573)
(-0.342369 0 0.102246)
(-0.437786 0 0.106443)
(-0.363742 0 0.115357)
(-0.265587 0 0.136281)
(-0.139463 0 0.157544)
(-0.0429614 0 0.156927)
(-0.0307183 0 0.150321)
(-0.0212768 0 0.146364)
(-0.0174558 0 0.139903)
(-0.0136557 0 0.135451)
(-0.00912995 0 0.130752)
(-0.00485385 0 0.126473)
(-0.359294 0 0.101144)
(-0.259441 0 0.0952451)
(-0.241978 0 0.0828775)
(-0.230056 0 0.0636368)
(-0.240341 0 0.0505546)
(-0.248802 0 0.0356589)
(-0.252454 0 0.0180044)
(-0.252564 0 -0.000416739)
(-0.249813 0 -0.00939393)
(-0.244442 0 -0.0190318)
(-0.236476 0 -0.0319673)
(-0.228041 0 -0.0503371)
(-0.221368 0 -0.0627758)
(-0.195375 0 -0.0679016)
(-0.141888 0 -0.0714986)
(-0.112681 0 -0.115915)
(-0.0774798 0 -0.133748)
(0.196744 0 -0.0631631)
(-0.45617 0 0.107303)
(-0.408138 0 0.11644)
(-0.331609 0 0.135074)
(-0.173482 0 0.165436)
(-0.046835 0 0.172529)
(-0.0318623 0 0.16043)
(-0.0202722 0 0.156164)
(-0.0173141 0 0.149585)
(-0.0139555 0 0.144864)
(-0.00961779 0 0.140119)
(-0.005262 0 0.135696)
(-0.452582 0 0.119693)
(-0.479771 0 0.104523)
(-0.380087 0 0.0937712)
(-0.291016 0 0.0817192)
(-0.273077 0 0.0610989)
(-0.258352 0 0.0383519)
(-0.262165 0 0.0238682)
(-0.263372 0 0.00966374)
(-0.26027 0 -0.00828472)
(-0.255116 0 -0.0262943)