/*--------------------------------*- C++ -*----------------------------------*\
| =========                 |                                                 |
| \\      /  F ield         | OpenFOAM: The Open Source CFD Toolbox           |
|  \\    /   O peration     | Version:  5.x                                   |
|   \\  /    A nd           | Web:      www.OpenFOAM.org                      |
|    \\/     M anipulation  |                                                 |
\*---------------------------------------------------------------------------*/
FoamFile
{
    version     2.0;
    format      ascii;
    class       volScalarField;
    location    "0.2";
    object      alpha.water;
}
// * * * * * * * * * * * * * * * * * * * * * * * * * * * * * * * * * * * * * //

dimensions      [0 0 0 0 0 0 0];

internalField   nonuniform List<scalar> 
12160
(
1
1
1
1
1
1
1
1
1
1
1
1
1
1
1
1
1
1
1
1
1
1
1
1
1
1
1
1
1
1
1
1
1
1
1
1
1
1
1
1
1
1
1
1
0.70623
1
1
1
1
1
1
1
1
0.465014
0.0859562
1
1
1
1
1
1
1
1
0.364266
0.0421405
0.000516467
1
1
1
1
1
1
1
1
0.217919
0.0171895
0.000331304
2.10703e-07
1
1
1
1
1
1
1
1
0.157425
0.0039892
6.02816e-05
1.21261e-07
6.11283e-12
1
1
1
1
1
1
1
1
0.101748
0.00137634
3.79457e-06
1.0161e-08
2.21581e-12
1.52785e-16
1
1
1
1
1
1
1
1
0.0694536
0.000373447
4.87419e-07
1.11799e-10
1.90421e-13
3.51733e-17
3.29698e-21
1
1
1
1
1
1
1
1
0.0468333
0.000115776
3.38159e-08
8.39466e-12
1.57103e-15
2.97663e-18
5.23208e-22
1
1
1
1
1
1
1
1
0.0318261
3.60698e-05
3.14748e-09
3.69456e-13
1.18379e-16
2.08261e-20
4.08446e-23
1
1
1
1
1
1
1
1
0.0217248
1.15257e-05
3.28218e-10
2.44593e-14
3.57689e-18
1.43584e-21
2.58601e-25
1
1
1
1
1
1
1
1
0.0149069
3.83473e-06
6.09919e-11
2.07944e-15
1.79759e-19
3.09857e-23
1.55676e-26
1
1
1
1
1
1
1
1
0.0102811
1.33765e-06
1.42896e-11
3.00212e-16
1.26905e-20
1.238e-24
2.51194e-28
1
1
1
1
1
1
1
1
0.00712701
4.95426e-07
3.66473e-12
5.01363e-17
1.33521e-21
7.04717e-26
8.20361e-30
1
1
1
1
1
1
1
1
0.00496593
1.97129e-07
1.04886e-12
9.47528e-18
1.59612e-22
5.3192e-27
3.63278e-31
1
1
1
1
1
1
1
1
0.00347854
8.36317e-08
3.38242e-13
2.0837e-18
2.21805e-23
4.57017e-28
1.96689e-32
1
1
1
1
1
1
1
1
0.00244993
3.717e-08
1.22697e-13
5.37241e-19
3.7185e-24
4.66546e-29
1.21883e-33
1
1
1
1
1
1
1
1
0.00173606
1.70858e-08
4.80714e-14
1.63058e-19
7.55748e-25
5.93035e-30
9.13895e-35
1
1
1
1
1
1
1
1
0.00123762
7.95999e-09
1.98898e-14
5.47997e-20
1.88828e-25
9.41602e-31
8.77624e-36
1
1
1
1
1
1
1
1
0.000891556
3.83532e-09
8.4126e-15
1.9915e-20
5.35236e-26
1.91499e-31
1.08232e-36
1
1
1
1
1
1
1
1
0.000649015
1.81679e-09
3.77685e-15
7.54258e-21
1.68451e-26
4.5254e-32
1.7794e-37
1
1
1
1
1
1
1
1
0.000481424
9.57524e-10
1.64162e-15
3.09843e-21
5.66285e-27
1.22097e-32
3.48322e-38
1
1
1
1
1
1
1
1
0.000366926
5.75527e-10
8.27612e-16
1.23634e-21
2.10211e-27
3.62058e-33
8.01475e-39
1
0.999999
1
1
1
1
1
1
0.00029199
3.7647e-10
4.47434e-16
5.67984e-22
7.57413e-28
1.19949e-33
2.08828e-39
0.999999
0.999999
0.999999
1
1
1
1
1
0.000246655
2.55854e-10
2.51694e-16
2.67644e-22
3.08138e-28
3.85239e-34
6.11596e-40
0.999999
0.999999
0.999999
0.999999
1
1
1
1
0.000225834
1.89986e-10
1.47537e-16
1.30325e-22
1.25834e-28
1.3685e-34
1.73257e-40
1
1
0.999999
0.999999
1
1
1
1
0.000226411
1.58274e-10
9.69766e-17
6.68282e-23
5.33005e-29
4.84552e-35
5.34241e-41
1
1
1
1
1
1
1
1
0.00024783
1.50512e-10
7.39523e-17
3.92155e-23
2.41003e-29
1.7922e-35
1.64129e-41
1
1
1
1
1
1
1
1
0.000291154
1.63836e-10
6.69592e-17
2.75417e-23
1.27059e-29
7.18584e-36
5.31386e-42
1
1
1
1
1
1
1
1
0.000358866
2.00538e-10
7.25215e-17
2.38097e-23
8.25823e-30
3.41967e-36
1.89459e-42
1
1
1
1
1
1
1
1
0.000455334
2.65694e-10
9.2394e-17
2.56693e-23
6.83835e-30
2.06418e-36
8.16318e-43
1
1
1
1
1
1
1
1
0.000587239
3.68905e-10
1.31541e-16
3.39192e-23
7.3443e-30
1.6409e-36
4.58775e-43
1
1
1
1
1
1
1
1
0.000762935
5.47293e-10
1.99922e-16
5.16889e-23
1.00509e-29
1.7558e-36
3.50746e-43
1
1
1
1
1
1
1
1
0.000993697
9.05178e-10
3.27403e-16
8.60972e-23
1.63428e-29
2.48627e-36
3.74411e-43
1
1
1
1
1
1
1
1
0.00129369
1.59081e-09
5.67761e-16
1.57466e-22
2.98627e-29
4.3057e-36
5.48593e-43
1
1
1
1
1
1
1
1
0.00168059
2.86029e-09
1.04452e-15
2.99764e-22
6.08471e-29
8.64578e-36
1.01055e-42
1
1
1
1
1
1
1
1
0.00217617
5.14816e-09
1.99917e-15
5.93945e-22
1.29638e-28
1.9578e-35
2.22893e-42
1
1
1
1
1
1
1
1
0.00280696
9.25036e-09
3.87981e-15
1.22414e-21
2.83775e-28
4.70084e-35
5.59309e-42
1
1
1
1
1
1
1
1
0.00360634
1.65851e-08
7.60117e-15
2.58264e-21
6.4088e-28
1.15388e-34
1.51663e-41
1
1
1
1
1
1
1
1
0.00461153
2.9696e-08
1.49992e-14
5.57548e-21
1.48571e-27
2.89407e-34
4.2109e-41
0.005868
1
1
1
1
1
1
1
1
5.39231e-08
2.97523e-14
1.23129e-20
3.5652e-27
7.44151e-34
1.18656e-40
9.83698e-08
0.00845626
1
1
1
1
1
1
1
1
6.10357e-14
2.74072e-20
8.8712e-27
1.99925e-33
3.41353e-40
1.25084e-13
2.47416e-07
0.0140981
1
1
1
1
1
1
1
1
6.42244e-20
2.23191e-26
5.62164e-33
1.03318e-39
1.48735e-19
3.92055e-13
1.03874e-06
0.0227175
1
1
1
1
1
1
1
1
6.00878e-26
1.60858e-32
3.28586e-39
1.58175e-25
5.92297e-19
2.41764e-12
4.07614e-06
0.0352634
1
1
1
1
1
1
0.999999
0.999999
1
4.99049e-32
1.07215e-38
1.50296e-31
8.10047e-25
5.27969e-18
1.41503e-11
1.48627e-05
0.0528077
1
1
1
1
1
1
0.999999
0.999999
0.999999
1
3.83338e-38
1.32715e-37
9.95523e-31
1.04028e-23
4.52199e-17
7.61677e-11
4.93192e-05
0.0762345
1
1
1
1
1
1
0.999999
0.999999
0.999999
0.999999
1
1.13862e-36
1.83786e-29
1.28918e-22
3.50994e-16
4.89635e-10
0.000147039
0.105929
1
1
1
1
1
1
0.999999
0.999999
0.999999
0.999999
0.999999
0.999999
3.01972e-35
3.26287e-28
1.42493e-21
2.66074e-15
3.97895e-09
0.000390999
0.141218
1
1
1
1
1
1
0.999999
0.999999
0.999999
0.999999
0.999999
0.999999
1
7.62961e-34
5.08444e-27
1.38634e-20
2.56573e-14
2.71857e-08
0.000917693
0.180098
1
1
1
1
1
1
0.999999
0.999999
0.999999
0.999999
0.999999
0.999999
0.999999
1
1.66401e-32
6.57791e-26
1.51982e-19
2.23641e-13
1.44616e-07
0.00188178
0.218784
1
1
1
1
1
1
0.999999
0.999998
0.999999
0.999988
0.999994
0.999994
0.999999
0.999999
0.999999
0.999999
0.999999
1
2.88819e-31
8.28694e-25
1.61012e-18
1.48577e-12
5.81153e-07
0.00333214
0.251812
1
1
1
1
1
0.999999
0.999999
0.999994
0.999997
0.999999
0.99999
0.999997
0.999995
0.99999
0.999993
0.999994
0.999999
0.999999
0.999999
0.999999
0.999999
1
4.30895e-30
1.0274e-23
1.29831e-17
7.15114e-12
1.73522e-06
0.00498709
0.275945
1
1
1
1
1
1
0.999998
0.999997
0.999998
0.999997
0.999993
0.999992
0.999999
0.999999
0.999993
0.999992
0.999996
0.999992
0.999994
1
0.999999
0.999999
0.999999
0.999999
0.999999
1
6.10416e-29
9.88228e-23
7.33944e-17
2.45978e-11
3.76022e-06
0.00656114
0.294903
1
1
1
1
1
0.999998
0.999997
0.999998
0.999997
1
1
1
1
0.99999
1
0.999996
0.999999
0.999996
0.999999
0.999999
0.999999
0.999997
0.999994
0.999999
0.99999
0.99999
0.999999
0.999999
0.999994
0.999995
0.999996
1
1
1
0.999998
1
1
1
1
0.999999
0.999999
0.999999
0.999999
0.999999
1
6.85113e-28
6.51354e-22
2.85983e-16
6.77117e-11
6.53799e-06
0.00797553
0.307015
1
1
1
1
0.999998
0.999997
0.999997
0.999997
1
1
1
1.00001
1.00001
1
1
1.00001
1
1
1
1.00001
1
1.00001
1
1
1.00001
1
1.00001
1
1.00001
1.00001
1.00001
1
0.999995
0.999997
0.999993
0.999983
1
1
1
1.00001
0.999999
0.999999
0.999999
0.999997
0.999998
0.999998
1
1
1
1
0.999992
0.999995
0.999993
0.999986
0.999998
0.999994
1
0.999983
0.999997
0.999996
1
0.999986
1
1
0.999999
1
1
1.00001
1
1.00001
0.999999
0.999999
0.999999
0.999999
0.999999
1
5.19382e-27
2.85614e-21
7.6524e-16
1.55355e-10
9.47962e-06
0.008953
0.310965
1
1
1
0.999997
0.999998
0.999998
1
1
1
1
1
1.00002
1
1.00002
1.00001
1.00002
1.00001
1.00002
1.00001
1.00002
1.00001
1.00002
1.00001
1.00002
1.00001
1.00002
1.00001
1.00001
1.00001
1.00001
1
1.00001
1.00001
1.00001
1.00001
1
1.00001
1.00001
1.00001
1.00002
1.00001
1.00002
1.00001
1.00002
1.00002
1.00002
1.00001
0.999997
1
0.999997
0.999993
1.00001
1.00001
1
1.00002
0.999999
0.999999
0.999998
0.999996
0.999997
0.999998
1
1
1
1
1.00001
1
1.00001
1
1.00001
1
1.00001
1.00001
1.00001
1
1.00001
1.00001
1.00001
1
1.00001
1
1.00001
1.00001
1.00001
1
0.999994
1
0.999998
0.999988
0.999999
0.999991
0.999998
0.999994
1.00001
1.00001
1.00001
1.00001
1
1.00001
1.00001
1.00001
0.999999
0.999999
0.999999
0.999999
0.999999
1
2.53564e-26
7.96861e-21
1.65604e-15
2.75244e-10
1.18193e-05
0.00912709
0.303338
1
1
0.999999
1
1
1
0.999998
1
0.999999
1
1.00002
1
1.00002
1
1.00002
1.00001
1.00001
1.00001
1.00001
1.00001
1.00002
1.00001
1.00001
1.00001
1.00001
1.00001
1.00003
1.00002
1.00003
1.00002
1.00003
1.00002
1.00003
1.00002
1.00004
1.00002
1.00004
1.00002
1.00004
1.00003
1.00003
1.00003
0.999999
1
1
0.999996
0.999999
0.999999
0.999997
0.999992
0.999995
0.999995
0.999999
0.999999
1
1
1.00001
1
1.00001
1
1.00001
1
1.00001
1
1.00001
1
1.00001
1
1.00001
1
1.00001
1
1.00001
1.00001
1.00001
1.00001
1.00001
1.00001
1.00001
1.00001
1
1
1
1
1.00001
1
1.00001
1
1
1
1.00001
1
0.999999
1
1
1
1
1
1
1
0.999999
0.999999
0.999999
0.999999
0.999999
1
7.52528e-26
1.64247e-20
2.87973e-15
3.66486e-10
1.12726e-05
0.00821447
0.275663
1
1
1
1
1
1
1.00001
1.00001
1.00001
1.00001
1.00003
1.00001
1.00003
1.00001
1.00003
1.00002
1.00002
1.00001
1.00003
1.00001
1.00003
1.00001
1.00002
1.00001
1.00002
1.00001
1.00006
1.00006
1.00006
1.00006
0.999999
0.999999
0.999999
0.999992
0.999993
0.999992
0.999998
0.999996
0.999996
0.999999
1
1
1
1
1
1
1
1
1.00001
1
1
1
1.00001
1
1.00001
1
1.00002
1.00001
1.00002
1.00001
1.00002
1.00001
1.00002
1.00001
1.00001
1.00001
1.00002
1.00001
1.00001
1.00001
1.00002
1.00001
0.999999
0.999999
0.999999
0.999999
0.999999
1
1.51527e-25
2.83902e-20
3.48855e-15
3.15647e-10
7.67805e-06
0.00551698
0.230035
0.999997
1
1
1
1
1.00001
1
1
1
1.00001
1.00004
1.00001
1.00003
1.00002
1.00003
1.00002
1.00003
1.00001
1.00002
1.00001
1.00002
1.00002
1.00002
1.00001
1.00002
1.00005
1.00005
1.00005
1.00004
1.00005
1.00004
1.00004
1.00004
1.00004
1.00003
1.00004
1.00003
1.00004
1.00004
1.00004
1.00004
0.999999
0.999999
0.999999
0.999993
0.999992
0.999994
0.999997
1
1
1.00001
1.00001
1.00001
1
1
1
1.00001
1.00001
1.00001
1
1.00001
1.00001
1.00001
1
1.00001
1.00001
1.00001
1
1.00004
1.00001
1.00003
1.00001
0.999999
0.999999
0.999999
0.999999
0.999999
1
2.64345e-25
3.02584e-20
3.00507e-15
1.17825e-10
7.49973e-07
0.000989352
0.0984758
0.854896
0.99999
0.999992
1
1
1.00002
1.00001
1
1.00002
1.00001
1
1
1.00001
1
1
1.00002
1.00004
1.00002
1.00003
1.00004
1.00003
1.00005
1.00003
1.00002
1.00003
1.00002
1.00003
1.00004
1.00003
1.00003
1.00003
1.00005
1.00003
1.00004
1.00005
0.999999
0.999999
0.999999
0.999999
0.999994
0.999995
0.999994
0.999994
0.999998
0.999994
0.999999
1
1.00001
1
1.00001
1.00001
1.00001
1
1.00001
1.00001
1.00002
1.00001
1.00002
1.00001
1.00003
1.00002
1.00002
1.00002
1.00001
1.00002
1.00001
1.00002
1.00002
1.00002
1.00001
1.00003
1.00002
1.00002
1.00001
1.00002
1.00002
1.00002
1.00001
0.999999
0.999999
0.999999
0.999999
1
2.44868e-25
2.87226e-20
8.15997e-16
7.3151e-12
1.10763e-07
0.00116249
0.00573659
0.850228
0.849012
0.338331
0.336097
0.999892
1
0.99836
1
0.999901
1
0.998347
1
0.992347
0.992378
1.00003
1.00001
1
1.00003
1.00002
1.00002
1.00001
1.00002
1
1
1.00001
1
1
1
1
1
1.00004
1.00004
1.00003
1.00004
1.00004
1.00003
1.00005
1.00003
0.999999
0.999999
0.999999
0.999999
0.999996
0.999996
0.999998
1
0.999999
1
1
0.999999
0.999999
0.999997
1
0.999999
1
1
1.00001
1.00001
1
1.00002
1.00001
1.00001
1
1.00002
1.00001
1.00002
1.00001
1.00002
1.00001
1.00003
1.00001
1.00002
1.00002
1
1.00002
1.00001
0.999999
0.999999
0.999999
1
2.60399e-25
5.90616e-21
1.16751e-16
4.73586e-14
8.67124e-06
4.43525e-06
-3.03588e-22
-7.2826e-22
3.06385e-20
-3.08224e-20
0.819762
0.816035
0.266942
0.256041
0.999926
1
0.998444
1
0.999929
1
0.998495
1
1
0.933798
1
0.987642
1
0.933418
1
0.987253
1.00004
1.00003
1.00001
1.00003
1.00003
1.00005
1.00003
1.00002
1
1.00001
1.00001
1.00001
1
1.00001
1
1.00001
0.999999
0.999999
0.999999
0.999999
1
0.999998
1
1
1
1
1
1
1
1
1
1
1
1
1.00001
1
1.00001
1
1
1
1.00001
1
1.00001
1.00001
1
1
1
1
1
1
1.00001
1.00001
1
1.00002
1.00001
1.00001
1
1.00002
0.999999
0.999999
1
3.81958e-26
1.82776e-21
2.00772e-18
9.51518e-09
2.93159e-06
1.21341e-07
0
-3.76064e-24
-4.72018e-26
1.22965e-26
0.919747
0.944058
0.99418
0.69797
0.894294
1
0.94412
0.920231
1
0.993939
0.692129
0.893617
0.131872
0.100797
0.380849
0.47989
0.119832
0.106501
0.361287
0.475598
1
0.999992
0.999328
0.999989
1
1.00002
0.999299
1.00002
0.99999
0.983278
1.00002
0.983404
1.00003
1.00002
1.00003
1.00002
1.00001
1
1.00001
1.00003
0.999999
0.999999
0.999999
0.999999
0.999999
0.999992
0.999994
0.999993
1
1.00001
1.00001
1.00001
1
1.00001
1
1.00001
1
1
1.00001
1.00001
1.00001
1.00001
1
1
1
1
1
1
1.00001
1
1.00001
1.00001
1
1.00001
1.00001
1.00001
1.00001
1.00001
1.00001
1.00001
1.00001
1
1.00001
1
0.999999
0.999999
2.41477e-26
2.1378e-23
3.73945e-13
3.49353e-07
4.73571e-07
3.40799e-08
4.22286e-07
3.23795e-09
1.42722e-12
7.63493e-25
2.80855e-23
5.72513e-09
7.05117e-08
0.996946
0.92834
0.999743
1
0.732765
0.952384
0.997135
0.937782
1
0.999748
0.741071
0.949459
0.125524
0.0973338
0.441166
0.621201
0.120841
0.103601
0.438941
0.617058
0.998773
0.999966
0.998803
1.00004
0.999999
0.999999
0.999999
0.999999
0.999998
0.999994
0.999994
0.999998
1
1.00001
1
1.00001
1
1.00001
1.00001
1.00001
1.00001
1.00001
1.00001
1
1.00001
1.00001
1.00001
1.00001
1.00001
1.00001
1.00002
1.00001
1.00001
1
1
1.00001
1.00001
1
1.00001
1.00001
1.00001
1.00001
1
1.00001
1
1.00001
1
1.00001
1
1.00001
1.00001
1.00001
1
0.999999
2.42698e-27
4.32904e-18
1.24021e-09
3.03797e-08
1.08851e-08
5.00951e-07
2.11914e-06
3.66091e-09
4.30259e-12
1.31444e-06
3.11227e-05
1.08943e-05
1.5571e-06
9.32342e-06
4.39933e-05
2.3124e-05
1.08198e-05
1.88756e-06
1.32921e-05
0.0265281
0.0148047
0.323646
0.395233
0.0397773
0.0222165
0.363766
0.462368
0.999999
0.999999
0.999999
0.999999
0.999999
0.999999
0.999996
0.999997
0.999998
0.999995
0.999999
1.00001
1.00001
1.00001
1.00001
1.00001
1
1.00001
1.00001
1.00001
1.00001
1
1
1
1
1.00001
1.00001
1.00001
1.00001
1
1
1.00001
1.00001
1
1.00001
1
1.00001
4.36639e-23
1.98808e-14
3.16851e-11
7.56674e-11
3.49466e-29
1.46614e-28
5.88327e-15
7.94114e-16
1.62982e-06
4.31615e-06
-4.08811e-28
2.7477e-28
7.5212e-06
1.71987e-06
3.87971e-06
2.45136e-06
3.28788e-05
1.2577e-05
1.81834e-05
1.49215e-05
1.32672e-06
1.73221e-05
1.14355e-06
1.41872e-05
3.52906e-06
4.60141e-05
3.52698e-06
5.96291e-05
1.80744e-06
1.89583e-06
2.10318e-06
1.99254e-06
0.999999
0.999999
0.999999
0.999999
0.999999
0.999999
1
1.00001
1.00001
1.00001
1.00002
1.00001
1.00002
1
1.00001
1.00001
1.00002
1.00001
1.00002
1.00003
1.00002
1.00002
1.00001
1.00003
1.00003
1.00002
1.00001
1.13061e-20
7.67383e-17
1.786e-14
8.67253e-16
5.04667e-11
2.36173e-12
2.20974e-13
2.80621e-14
1.79795e-06
3.02097e-06
5.06923e-11
1.15692e-07
3.09323e-09
4.0302e-11
4.23801e-06
3.13217e-06
4.0302e-11
4.0302e-11
1.55388e-09
5.01175e-11
1.13284e-09
3.04926e-10
1.5195e-05
1.06667e-06
1.0107e-06
1.11195e-06
5.86712e-05
4.50768e-06
6.74071e-06
3.85638e-06
1.78552e-06
3.7606e-07
3.06949e-06
3.75616e-07
0.999999
0.999999
0.999999
0.999999
0.999999
0.999997
0.999999
0.999997
0.999998
1
1.00002
1.00002
1.00002
1.00001
1.00002
1.00001
1.00001
1.00001
1.00002
1.00002
1.00003
1.00002
1.00002
1.00002
1.00001
1.00001
1.00002
1.00001
1.00004
1.00002
1.00003
1.00002
-1.11339e-41
1.38962e-36
1.14584e-19
1.3833e-17
3.85128e-35
3.746e-35
-1.83368e-34
2.20942e-10
1.87696e-11
1.97397e-12
1.45323e-13
9.31521e-07
2.14967e-07
7.84981e-10
8.4522e-10
8.14264e-10
1.00228e-09
5.06923e-11
3.42543e-07
1.07294e-09
3.68272e-10
1.13956e-07
7.00959e-11
2.59929e-10
1.13939e-10
1.69254e-10
3.44651e-11
5.6586e-13
1.45833e-11
1.53698e-16
2.59463e-11
1
0.999999
0.999999
0.999999
1
1
1.00001
1.00001
1.00001
1.00002
1.00002
1.00001
1.00001
1.00003
1.00002
1.00002
1.00002
1.00003
1.00002
1.00002
1.00003
1.00002
1.00002
1.00001
1.00001
1.00001
1.00003
1.00003
1.00002
1.00001
1
1
1.00002
1.00001
3.45099e-31
-7.25483e-53
5.60008e-24
-2.50803e-36
-6.11636e-54
-6.28007e-43
-1.11477e-42
1.59383e-10
5.96003e-11
4.29997e-11
1.09648e-10
9.17566e-11
1.33263e-11
3.35288e-13
3.30292e-12
1.71399e-13
8.42913e-14
3.61161e-13
4.37331e-14
3.92932e-12
1.71464e-13
6.32602e-16
6.03845e-16
6.41646e-09
1.48099e-16
1.47912e-09
1.14423e-10
1.73899e-13
1.4066e-10
1
0.999999
0.999999
0.999999
0.999998
0.999999
1
0.999998
1
1.00002
1.00002
1.00002
1.00001
1.00002
1.00001
1.00002
1.00001
1.00002
1.00002
1.00002
1.00002
1.00002
1.00002
1.00002
1.00001
1.00002
1.00002
1.00002
1.00003
1.00002
1.00002
2.47657e-33
-8.88408e-58
3.45519e-28
2.05691e-39
2.67801e-19
2.79807e-29
6.8246e-47
4.82037e-11
3.27135e-11
1.39053e-10
3.37856e-10
2.87522e-10
1.40475e-10
5.51567e-13
1.57141e-12
5.50571e-14
3.35727e-15
2.18535e-13
2.54992e-14
-5.2365e-32
1.89743e-35
6.03215e-13
1.37303e-12
-9.61932e-32
-8.04422e-36
1.4844e-31
7.53755e-15
7.69428e-13
7.61133e-13
7.45239e-13
7.53083e-13
1
0.999999
1
0.999998
0.999999
1
1.00001
1.00001
1.00001
1.00002
1.00001
1.00001
1.00002
1.00001
1.00002
1.00002
1.00002
1.00001
1.00002
1.00001
1.00002
1.00002
1.00002
1.00001
1.00001
1.00002
1.00001
1.00002
1.00002
3.72291e-38
-9.40626e-63
-1.18983e-47
9.41171e-46
-4.22561e-46
9.72487e-47
3.5946e-47
1.04764e-46
2.37938e-18
1.67269e-38
1.08063e-16
4.77827e-19
2.0955e-19
2.70693e-17
2.72272e-11
4.73902e-11
2.018e-10
7.29543e-10
8.2335e-10
3.75602e-10
6.35424e-14
4.46712e-14
8.46837e-14
-2.34369e-42
1.39406e-12
3.15156e-17
4.12686e-23
1.02599e-13
3.15599e-19
1.73236e-15
1
0.999999
1
1
1
1.00001
1.00001
1.00001
1.00001
1.00002
1.00001
1.00001
1.00001
1.00001
1.00001
1.00001
1.00001
1.00002
1.00001
1.00002
1.00002
1.00002
1.00001
1.00003
1.00002
1.00002
1.00001
1.00002
1.00001
1.00002
1.00002
4.3732e-44
8.71184e-38
8.96066e-29
3.30024e-56
1.83244e-27
-8.93541e-57
2.75865e-38
2.72195e-38
7.53751e-19
1.78744e-18
2.7409e-17
1.7467e-18
1.42777e-16
1.29616e-19
-9.50555e-37
1.16878e-44
3.91312e-19
1.50341e-19
4.32774e-18
3.55184e-19
2.61623e-17
3.41892e-20
1.5081e-36
-2.49863e-44
1.0804e-10
1.56059e-10
1.75142e-12
4.41006e-17
1.28741e-13
1.64656e-13
4.07894e-19
1.38213e-15
1
0.999999
1
1.00001
1.00001
0.999996
0.999997
0.999997
1.00001
1.00001
1.00001
1.00001
1.00001
1.00001
1.00002
1.00001
1.00001
1.00001
1.00002
1.00001
1.00001
1.00001
1.00002
1.00001
1.00001
1.00001
1.00003
1.00002
1.00002
1.00001
-1.62785e-64
3.13953e-36
1.8015e-28
4.79922e-27
5.5245e-29
7.18578e-65
3.28265e-27
1.23722e-25
1.04507e-27
-3.84054e-56
-4.66364e-54
4.92849e-54
1.18755e-18
7.99263e-36
1.68836e-31
3.37397e-32
-6.00475e-37
-1.74535e-46
2.6386e-19
4.09012e-19
-3.95461e-37
4.11127e-31
-4.77958e-38
7.75913e-36
5.03221e-11
5.57172e-11
7.46569e-13
1.42074e-17
1
0.999999
0.999996
1
1
0.999996
1
1
1.00001
1.00001
1.00001
1.00001
1.00001
1.00001
1.00001
1.00001
1.00001
1.00001
1.00001
1.00001
1.00001
1.00001
1.00001
1.00001
1.00001
1.00001
1.00001
1.00001
1.00001
1.00001
1.00001
1.00001
2.29052e-52
3.51008e-35
2.208e-36
8.30535e-36
3.60544e-34
3.12842e-58
3.76497e-57
3.08944e-46
4.84358e-27
1.29458e-28
5.56738e-28
1.27447e-28
-4.69782e-48
3.01927e-30
1.83707e-30
5.88989e-34
-2.1221e-48
3.8383e-36
3.06712e-29
7.32718e-26
2.559e-27
7.11117e-27
2.47583e-27
2.92971e-47
9.02447e-28
1.01588e-28
6.49091e-33
1.83158e-32
-1.87654e-51
3.71026e-19
5.08188e-29
4.35238e-20
2.49772e-28
7.48828e-20
1.02118e-27
1.21931e-20
2.71739e-27
1
1
1
1
1
1
1
1
1
0.999998
1
1
1.00001
1
1.00001
1
1.00001
1.00001
1.00001
1
1.00001
1.00001
1
1.00001
1.00001
1.00001
1.00001
1
5.76301e-90
1.03192e-33
1.30394e-34
1.23346e-32
1.50534e-33
5.65571e-39
7.38461e-39
2.45142e-29
3.8522e-29
7.02803e-31
2.40391e-29
6.5477e-48
2.00242e-48
3.70549e-34
4.68151e-34
9.80056e-35
-1.92463e-51
1.01426e-34
1.4416e-32
4.21412e-34
5.76812e-33
2.40391e-29
1.58766e-27
2.45142e-29
2.41708e-29
6.48397e-34
5.56004e-30
5.70462e-33
4.33312e-33
9.11375e-34
1.92802e-33
4.77922e-34
1.02861e-31
6.12651e-33
3.63293e-32
1
1
1
1
0.999996
0.999996
0.999996
1
1
1
1
1
1
1
1
1
1
1
1
1
1
1
1
1
1
1
1
1
1
1
1
1
1
1
1
1
1
7.46552e-57
2.63977e-32
9.17211e-33
5.57913e-34
5.16325e-35
1.29252e-31
7.08702e-32
7.24531e-33
1.97982e-33
4.55542e-38
4.78496e-38
4.8122e-30
6.94845e-31
4.98986e-52
3.14031e-34
2.92438e-34
1.63359e-33
2.96326e-34
1.92123e-34
9.49485e-33
2.41623e-32
3.22405e-28
7.02803e-31
6.02783e-34
1.02003e-31
3.66801e-33
4.59919e-33
2.11441e-33
1.89698e-34
1.01808e-31
2.26408e-31
1
0.999998
1
1
0.999996
0.999998
1
1
1
1
1
1
1
1
1
1
1
1
1
1
0.999996
1
1
1
1
1
1
1
1
1
1
1
1
1
1
0
1.20241e-69
2.31741e-70
3.78958e-31
6.7477e-32
1.95264e-30
3.93523e-30
4.26077e-33
1.94695e-37
5.17465e-32
3.6311e-31
4.09012e-32
5.64855e-31
5.24625e-32
7.33211e-37
2.57851e-34
2.8821e-34
1.20147e-29
3.87215e-34
3.4587e-32
1.44964e-30
3.63838e-33
1.92745e-33
1.31195e-32
9.73e-33
3.5121e-31
5.87116e-31
1
0.999998
1
1
1
1
1
1.00001
0.999998
0.999998
1
0.999997
1
0.999992
1
0.999997
1
1
1
0.999999
1
0.999992
1
1
1
1
1.00001
0.999999
1
1
1
2.84331e-55
2.07486e-54
1.6841e-55
3.68713e-51
2.09531e-49
2.85422e-35
2.70201e-31
9.26811e-29
6.91221e-29
2.6976e-31
3.10198e-27
4.20913e-28
7.86494e-74
1.17741e-33
5.30236e-32
1.43844e-32
3.36181e-31
2.19113e-32
3.53623e-32
6.99884e-31
7.43668e-42
4.19377e-29
1.03283e-30
8.0148e-33
7.33292e-31
1
0.999999
1
1
1
1
1
1
1
1
1
1
1.00001
0.999999
1
1
0.999991
1
1
0.999999
1
1
0.999997
1.00001
1
1
1.00001
1.00174e-57
-4.04295e-56
2.9572e-56
7.04862e-53
3.81812e-56
4.91887e-75
1.98036e-46
3.85805e-38
6.79289e-35
9.92191e-53
3.74337e-53
1.17852e-35
4.03729e-32
3.75572e-26
5.98499e-27
9.70789e-34
5.05881e-26
3.79115e-27
2.47972e-36
2.38423e-33
1.34114e-51
-4.57281e-52
1.04124e-33
4.44025e-32
2.10211e-33
3.34271e-31
1.43597e-33
7.97875e-32
8.4869e-31
1
1
1
1
1
1
1
1
1
0.999998
1
1
1
1
1
1
0.999999
1
1
1
1
1
1
1
1.00001
1.25764e-54
3.56301e-58
1.62607e-59
-4.99607e-75
2.41446e-59
-1.82856e-50
-1.332e-51
4.68578e-66
-1.79775e-54
-1.75476e-57
4.21113e-55
2.56179e-40
2.21763e-38
5.05694e-39
1.18295e-57
-4.7033e-52
2.33829e-40
2.09721e-40
4.33821e-54
7.8891e-39
5.50713e-25
6.53222e-26
-3.41434e-42
4.61959e-39
1.52462e-36
2.03732e-37
4.52297e-54
1.14047e-33
7.78294e-37
-1.1504e-51
8.13591e-35
5.32715e-32
2.36095e-33
4.33196e-31
3.78731e-35
1
1
1
1
1
1
1
1
1
1
1
0.999998
1
1
1
0.999999
0.999998
1
1
1
1
1
1
1
1
1
0.999997
0.999997
1
0
6.31288e-55
1.94834e-55
6.88191e-55
1.93813e-55
-5.87903e-53
-2.03993e-54
-8.57756e-56
-2.23847e-57
2.54937e-49
6.96331e-66
4.05164e-48
-1.10936e-65
6.02726e-44
-5.7502e-53
-6.82538e-46
-1.53547e-53
1.56662e-42
-1.14427e-54
3.24794e-46
-9.5918e-54
2.37674e-40
6.52601e-39
1.31985e-39
4.47097e-40
2.38089e-38
7.5942e-37
1.51733e-37
2.81348e-38
1
1
1
1
1
1
1
1
1
0.999995
0.999993
1
0.999999
1
0.999997
1
0.999998
1
0.999997
1
1
1
0.999999
1
1
1
0.999996
1
1
1
0.999998
1
1
1
0.999998
-4.13786e-61
1.21346e-44
1.84281e-41
8.74597e-42
1.7127e-42
1.25886e-42
7.39467e-43
2.06238e-38
1.24539e-42
1.65477e-36
2.17032e-47
-2.07968e-49
1.35413e-47
-2.15435e-49
5.57212e-48
-6.07282e-52
4.40233e-46
-2.36609e-50
2.58056e-48
2.01695e-48
4.22735e-47
3.10569e-48
5.63003e-49
1.6065e-49
4.85561e-47
1.28627e-49
4.11305e-45
-5.06492e-45
-2.66921e-45
-6.94588e-46
2.26474e-65
-7.1203e-50
4.38288e-46
-4.20397e-51
1
1
1
1
1
1
1
1
0.999998
0.999999
1
0.999998
0.999999
1
0.99999
1
0.999989
1
0.999992
1
0.999988
1
0.999995
1
0.999995
1
0.999999
1
0.999993
2.61238e-45
9.90976e-39
6.59477e-42
1.20389e-38
-2.24558e-58
3.68366e-40
6.38328e-37
2.09235e-37
1.73743e-35
1.44503e-36
8.0757e-42
4.10815e-60
1.96997e-60
4.32116e-43
9.27281e-39
2.05003e-39
9.17802e-37
7.47679e-44
1.09304e-40
-7.25723e-60
-2.18936e-59
4.10056e-43
1.71489e-36
5.31324e-37
9.26794e-35
5.60994e-37
2.51225e-46
-2.25302e-46
3.75595e-46
5.07836e-47
1.44131e-47
2.79433e-47
6.54142e-45
-1.82599e-65
2.26623e-47
4.34805e-49
4.31628e-47
8.8748e-49
1.45495e-49
2.34527e-49
1.34678e-45
1.49365e-49
1
0.999999
1
1
0.999998
1
0.999987
0.999989
0.999987
0.999987
1
0.999996
1
0.999996
1
0.999996
1
0.999996
1
0.999997
1
0.999993
1
0.999995
1
0.999993
1
0.999993
1
0.999993
0.999999
0.999993
1
0.999988
2.60983e-45
1.65998e-45
1.95074e-45
1.85286e-45
5.70583e-45
1.12691e-36
9.90017e-40
1.08645e-35
7.85127e-39
1.96112e-38
1.04386e-35
1.37337e-37
2.10523e-35
1.37545e-37
1.89773e-36
1.96051e-37
2.78006e-36
1.02507e-37
1.75352e-34
3.6751e-36
8.29284e-34
3.6279e-36
9.61423e-36
2.62964e-36
1.81467e-35
8.04976e-37
6.72864e-42
7.26753e-47
3.64405e-43
8.57474e-44
1.63469e-40
5.86926e-41
2.04731e-38
7.74203e-44
1.49027e-60
1.58061e-60
1.01318e-44
2.56485e-61
6.42028e-36
4.05229e-36
7.55739e-34
5.28913e-38
1
1
0.999973
0.999999
0.999979
1
0.999986
0.999984
0.999984
0.999988
1
0.999997
1
0.999991
1
0.999993
1
0.99999
0.999996
0.999998
0.999997
0.999988
1
0.999993
1
0.999989
1
0.999994
1
0.999998
1
0.999995
1
0.999999
1
0.999995
1
0.999995
1
0.999997
1
1
1.65679e-25
1.08321e-41
2.40406e-64
-4.45649e-46
9.89694e-44
-3.81845e-44
9.5685e-37
4.03114e-37
6.89502e-35
9.76573e-37
7.83381e-36
2.6685e-35
-5.88886e-57
1.69014e-41
3.29796e-40
1.11355e-37
1.01093e-35
4.98844e-36
2.69827e-34
1.09947e-35
6.18392e-35
1.4369e-34
4.06086e-56
6.51113e-39
2.85684e-37
2.42142e-36
5.66729e-59
3.05071e-34
2.0907e-39
1.21284e-34
4.86206e-39
5.2654e-35
4.82749e-38
4.72593e-33
9.15129e-34
1.05137e-32
1.66092e-34
3.35696e-34
1.03003e-36
2.24025e-41
-1.84859e-44
-4.45242e-57
2.8156e-42
2.09313e-41
7.59959e-54
2.25101e-33
3.34536e-38
1
1
1
1
1
1
0.999968
0.999989
0.999969
0.999993
1
0.999993
1
0.999988
1
0.999985
1
0.999992
0.999994
0.999989
0.999994
0.999985
1
0.999992
1
0.999989
0.999999
0.99999
0.999999
0.99999
1
0.999976
0.999999
0.999985
0.999999
0.99999
1
0.999988
0.999999
0.999975
0.999999
0.999992
2.58851e-21
-1.16999e-43
1.60054e-26
-2.33812e-43
1.60425e-26
2.02589e-22
-3.87948e-41
-4.25288e-41
-2.24297e-40
-5.74537e-39
3.81118e-37
7.18664e-37
2.26721e-34
2.85051e-34
6.21804e-37
2.84391e-35
-1.04629e-41
2.30226e-41
2.03431e-39
5.50731e-37
3.92786e-36
6.43416e-36
7.70551e-34
1.57996e-33
9.32729e-36
2.92518e-34
-1.08762e-40
8.17031e-39
6.25098e-37
8.38993e-36
-2.45496e-39
4.65919e-33
5.56758e-62
5.54257e-34
-5.08329e-59
4.55039e-34
2.45421e-38
4.50004e-32
1.74622e-33
4.21319e-32
2.0379e-32
1.24253e-33
9.97455e-37
1
1
1
0.999985
1
0.999986
1
0.999975
0.999966
0.999999
0.999989
0.999999
0.999994
0.99998
0.999999
0.999991
0.999999
0.999956
0.999965
0.999999
0.999993
0.999999
0.999996
0.999982
0.999993
0.999994
0.999999
1
0.999976
0.999999
0.999988
0.999998
0.999974
0.999999
0.99998
0.999999
0.999989
0.999999
0.999986
0.999998
0.999977
0.999996
0.999984
0.999998
0.999971
0.999997
0.999971
3.96757e-17
5.28068e-40
1.16517e-32
1.09551e-39
3.99834e-33
2.06906e-29
-2.34443e-44
3.58481e-43
7.26276e-45
3.27442e-17
-2.20509e-40
-4.38005e-41
-1.44313e-41
-4.32212e-41
6.56658e-39
4.1925e-47
7.55564e-57
1.77506e-39
-2.37326e-39
-4.64177e-40
-6.48107e-40
-4.72431e-40
-1.08328e-38
-2.48319e-39
-1.29738e-38
-6.80936e-39
4.52308e-40
9.13096e-40
-1.44231e-41
-8.54271e-44
-1.6638e-56
2.75346e-54
9.13096e-40
4.52308e-40
-1.72665e-40
-4.96716e-58
-6.40887e-54
-4.31107e-53
1.3047e-19
1
1
1
0.999972
1
0.999977
1
0.999961
0.999996
0.999961
0.999993
0.999966
0.999982
1
0.999997
0.99997
0.999999
0.999979
0.999999
0.99997
0.999998
0.999956
0.999983
0.999993
1
0.999988
0.999999
0.999973
0.999994
0.99999
0.999999
0.999999
0.999984
0.999998
0.999983
0.999998
0.999973
0.999998
0.999983
0.999998
0.999961
0.999996
0.999958
5.3083e-14
8.56355e-13
-3.71962e-35
-2.26722e-34
-4.08517e-34
-4.6732e-33
4.88681e-29
6.98875e-30
5.4753e-30
6.98919e-27
1.79074e-28
2.19459e-30
2.18477e-20
1.42886e-38
3.9987e-23
1.13103e-23
4.25908e-25
1.62748e-30
1.716e-26
5.89815e-24
2.92884e-24
2.34497e-30
-8.19284e-37
-7.91666e-40
3.15082e-23
3.61146e-22
2.1137e-13
-2.4141e-40
-4.4766e-41
-1.50712e-41
-4.31253e-41
4.28696e-50
1.37175e-47
-5.43215e-39
-5.21458e-40
-1.90163e-39
-5.59359e-40
3.69144e-31
7.59492e-31
1.42444e-16
1
1
1
1
1
1.00001
1.00001
0.999963
0.999994
0.999963
0.999994
0.999999
0.999985
0.999998
0.999976
0.999999
0.999986
0.999999
0.999975
0.999995
0.999972
0.999997
0.999966
0.999999
0.999995
0.999999
0.999974
0.999984
1
0.999988
0.999999
0.999973
0.999999
0.999967
1
0.999981
0.999998
0.999966
0.999995
2.35987e-10
-8.52602e-33
5.19983e-28
3.63515e-33
-6.45379e-28
4.61123e-10
1.09427e-18
6.90654e-20
5.12969e-18
8.98057e-20
1.61938e-29
-8.96124e-45
3.41471e-30
5.45696e-48
3.76392e-27
4.26026e-30
2.65042e-19
7.44208e-20
7.96411e-32
4.79397e-32
1.5865e-44
1.18587e-42
-1.29114e-48
-3.09297e-46
4.31194e-25
-2.22568e-43
1.46502e-18
3.74543e-19
1.38625e-25
2.68052e-20
1.23277e-11
8.34046e-31
3.60721e-30
4.3071e-31
7.13233e-31
3.79973e-21
1
1
1
1
0.999995
1
0.999995
1
0.999974
0.999971
0.999995
0.99999
0.999999
0.999997
0.999997
1
0.999998
1
0.999977
0.99997
0.999997
0.999991
1
0.999999
0.999997
0.999999
0.999998
1
0.999998
0.999998
0.999999
0.99998
0.999999
0.999983
0.999998
0.999986
0.999999
0.999976
0.999999
0.999991
1.57678e-09
3.12057e-08
-1.81204e-35
0
5.75261e-33
3.45636e-28
9.72245e-09
1.76818e-30
2.46082e-19
3.70341e-19
1.90514e-16
4.37441e-13
1.09039e-30
9.18894e-19
4.96443e-19
2.96302e-13
2.52747e-12
4.24223e-22
4.65393e-22
2.46718e-19
9.09727e-20
4.67825e-20
2.00157e-20
1.49456e-20
1.60601e-20
2.92191e-18
1.13305e-18
6.56757e-19
3.72662e-19
2.25932e-16
8.27978e-26
1
1
1
1
1
1
1
1
0.999977
1.00001
0.999973
1
0.999972
0.999978
0.999998
0.999995
0.999972
0.999998
0.999973
1
0.999972
1
0.99996
0.999978
0.999994
0.999998
0.999974
0.999998
0.999973
0.999999
0.999978
1
0.999999
0.999985
0.999999
0.99996
6.2358e-08
1.7101e-06
1.33275e-06
1.22485e-06
1.10733e-06
1.96557e-07
3.45551e-27
1.84837e-06
4.59706e-08
1.06909e-06
1.03557e-11
5.32582e-14
1.56573e-14
1.0468e-15
1.67106e-13
1.53898e-13
2.68954e-13
3.15837e-13
1.25136e-11
2.65835e-13
1.84209e-13
9.06643e-15
1.50874e-12
1.09615e-13
1.14413e-13
1.86779e-12
2.97294e-11
8.71441e-21
1.23798e-20
1.25591e-20
5.83135e-20
8.63924e-21
1.7504e-25
1
1
1
1
1
0.99998
1
0.999982
1
1
0.999997
1
1
0.999978
0.999998
0.999996
0.999999
0.999993
0.999978
0.999977
0.999993
0.999984
0.999998
0.999976
0.999998
0.999974
0.999993
0.999974
0.999995
0.999975
0.999997
5.32892e-07
3.38374e-07
2.78504e-05
1.49763e-05
3.24542e-05
1.61289e-05
4.21766e-08
1.19917e-07
1.8608e-25
2.30516e-09
3.20451e-07
7.93904e-14
4.94191e-10
1.42906e-05