/*--------------------------------*- C++ -*----------------------------------*\
| =========                 |                                                 |
| \\      /  F ield         | OpenFOAM: The Open Source CFD Toolbox           |
|  \\    /   O peration     | Version:  5.x                                   |
|   \\  /    A nd           | Web:      www.OpenFOAM.org                      |
|    \\/     M anipulation  |                                                 |
\*---------------------------------------------------------------------------*/
FoamFile
{
    version     2.0;
    format      ascii;
    class       surfaceScalarField;
    location    "0.2";
    object      alphaPhi10;
}
// * * * * * * * * * * * * * * * * * * * * * * * * * * * * * * * * * * * * * //

dimensions      [0 3 -1 0 0 0 0];

internalField   nonuniform List<scalar> 
30582
(
0.000209135
3.13707e-05
0.000169694
3.94383e-05
0.000208656
6.32569e-05
0.00012455
4.51451e-05
0.000168882
7.92078e-05
0.000208185
9.56864e-05
9.44648e-05
3.00818e-05
0.00012357
9.04593e-05
0.000167588
0.000119802
0.000204857
0.000131555
6.79479e-05
2.65168e-05
9.33095e-05
6.03384e-05
0.000121605
0.000136444
0.000162642
0.000162011
0.000205779
0.000166639
4.9296e-05
1.86504e-05
6.68684e-05
5.29558e-05
9.0864e-05
9.10769e-05
0.00011706
0.000182027
0.00016098
0.00020681
0.000197199
0.000210485
3.52452e-05
1.40491e-05
4.84102e-05
3.7108e-05
6.46171e-05
7.92021e-05
8.65145e-05
0.000121624
0.000114289
0.000228721
0.000146932
0.000257077
0.000208972
0.000242773
2.51534e-05
1.00924e-05
3.45291e-05
2.79256e-05
4.65873e-05
5.51397e-05
6.10122e-05
0.000104707
8.26342e-05
0.000153278
0.000103241
0.000272416
0.000145819
0.000320229
0.000182542
0.000301738
1.79083e-05
7.24139e-06
2.45989e-05
2.0024e-05
3.30804e-05
4.1429e-05
4.37213e-05
7.24306e-05
5.73186e-05
0.000130024
7.2831e-05
0.000183686
0.000101484
0.000316754
0.000118064
0.000384706
0.00015327
6.92661e-06
1.27432e-05
5.16493e-06
1.74888e-05
1.43508e-05
2.34836e-05
2.96223e-05
3.08505e-05
5.42967e-05
4.05389e-05
8.92122e-05
4.98144e-05
0.00015304
6.8974e-05
0.000216196
8.4343e-05
0.000350476
6.929e-05
6.96961e-05
3.31683e-05
-6.14972e-07
9.07624e-06
3.66881e-06
1.24304e-05
1.02232e-05
1.66491e-05
2.11871e-05
2.17886e-05
3.86872e-05
2.82952e-05
6.65405e-05
3.47279e-05
0.000104302
4.62131e-05
0.000175802
5.24824e-05
0.000248057
5.12035e-05
4.08982e-05
1.07758e-05
1.35832e-06
2.79767e-08
-2.68203e-10
6.47427e-06
2.60199e-06
8.84511e-06
7.25627e-06
1.1807e-05
1.50648e-05
1.5382e-05
2.75959e-05
1.97945e-05
4.719e-05
2.3957e-05
7.7313e-05
3.13045e-05
0.000119214
3.3833e-05
0.000194451
2.44322e-05
1.22372e-05
3.44615e-06
2.98083e-07
2.18025e-08
8.21363e-10
-2.17303e-11
-5.40257e-15
4.62813e-06
1.8463e-06
6.30477e-06
5.14332e-06
8.38537e-06
1.06773e-05
1.0871e-05
1.95738e-05
1.38686e-05
3.35219e-05
1.66025e-05
5.45445e-05
2.12044e-05
8.74141e-05
2.1589e-05
0.000131459
1.68311e-05
4.89648e-06
5.19601e-07
2.82849e-08
6.53371e-10
8.83659e-11
-1.37644e-12
1.57568e-14
-2.8476e-16
-8.78577e-20
3.31733e-06
1.31218e-06
4.5043e-06
3.64688e-06
5.96782e-06
7.56084e-06
7.69828e-06
1.3848e-05
9.74188e-06
2.36979e-05
1.15389e-05
3.8584e-05
1.44801e-05
6.12674e-05
1.38485e-05
9.51547e-05
9.8162e-06
1.44429e-06
1.14261e-07
3.82902e-09
3.85636e-11
1.35032e-12
-1.8543e-15
1.79939e-15
-1.81795e-17
2.54557e-19
-2.84251e-21
-1.62943e-24
2.38385e-06
9.33968e-07
3.22675e-06
2.58952e-06
4.2581e-06
5.35681e-06
5.46572e-06
9.79321e-06
6.86348e-06
1.67245e-05
8.05236e-06
2.71823e-05
9.93402e-06
4.31284e-05
9.06513e-06
6.60497e-05
6.53877e-06
4.77348e-07
1.81055e-08
2.83693e-10
4.88757e-12
7.91925e-14
1.91911e-16
1.8986e-17
-2.33842e-20
3.00155e-20
-1.55697e-22
3.87208e-24
-1.01004e-26
1.71674e-06
6.65638e-07
2.31728e-06
1.84208e-06
3.04661e-06
3.80054e-06
3.89187e-06
6.931e-06
4.85193e-06
1.18049e-05
5.64153e-06
1.91345e-05
6.85538e-06
3.02603e-05
5.96944e-06
4.62232e-05
4.21412e-06
1.55167e-07
3.59392e-09
2.69756e-11
2.4246e-13
3.66036e-15
3.40818e-17
1.27704e-18
1.66766e-21
2.52237e-22
-1.09834e-25
4.43635e-25
-4.97571e-28
1.23846e-06
4.76912e-07
1.66781e-06
1.31403e-06
2.1855e-06
2.7021e-06
2.77936e-06
4.91257e-06
3.44172e-06
8.3415e-06
3.96897e-06
1.34778e-05
4.75527e-06
2.12348e-05
3.9723e-06
3.22572e-05
2.77068e-06
5.0723e-08
7.30276e-10
2.56036e-12
2.13438e-14
2.40374e-16
1.3155e-18
4.00171e-20
2.89747e-22
1.73192e-23
1.30541e-26
3.30588e-27
4.05278e-31
8.95112e-07
3.44248e-07
1.20293e-06
9.4299e-07
1.57189e-06
1.92767e-06
1.99058e-06
3.49031e-06
2.44959e-06
5.9043e-06
2.80352e-06
9.50704e-06
3.3154e-06
1.49179e-05
2.66737e-06
2.254e-05
1.82452e-06
1.70927e-08
1.5954e-10
3.63585e-13
2.40527e-15
1.71457e-17
9.88794e-20
1.93921e-21
6.3662e-24
3.81804e-25
1.82436e-27
2.1009e-28
5.50042e-32
6.43857e-07
2.53153e-07
8.68785e-07
6.80404e-07
1.13355e-06
1.38296e-06
1.42999e-06
2.48897e-06
1.74936e-06
4.19047e-06
1.98794e-06
6.7196e-06
2.32244e-06
1.04998e-05
1.80639e-06
1.57789e-05
1.20242e-06
5.95924e-09
3.76654e-11
8.48427e-14
4.42196e-16
2.22682e-18
9.6282e-21
1.15849e-22
4.12952e-25
1.43591e-26
2.48366e-29
3.3944e-30
5.73426e-33
4.5806e-07
1.8573e-07
6.24729e-07
4.9686e-07
8.18169e-07
9.96803e-07
1.03017e-06
1.78421e-06
1.25374e-06
2.98556e-06
1.41518e-06
4.76351e-06
1.63436e-06
7.40761e-06
1.23242e-06
1.10737e-05
7.90383e-07
2.17755e-09
9.49062e-12
2.14972e-14
8.25534e-17
3.6923e-19
1.32816e-21
1.17879e-23
3.27065e-26
7.2515e-28
1.37444e-30
1.03093e-31
5.26236e-35
3.17926e-07
1.37917e-07
4.4391e-07
3.64022e-07
5.87807e-07
7.25914e-07
7.42348e-07
1.28476e-06
9.01259e-07
2.13762e-06
1.0115e-06
3.3901e-06
1.15562e-06
5.24269e-06
8.46821e-07
7.79324e-06
5.16248e-07
8.46987e-10
2.55623e-12
6.0115e-15
1.59285e-17
6.88017e-20
1.76985e-22
1.39934e-24
3.17489e-27
5.42669e-29
8.33537e-32
4.23604e-33
2.4208e-36
2.10586e-07
1.06077e-07
3.0817e-07
2.7268e-07
4.17287e-07
5.32496e-07
5.32596e-07
9.34036e-07
6.47985e-07
1.53751e-06
7.25214e-07
2.4242e-06
8.20872e-07
3.72533e-06
5.86133e-07
5.50366e-06
3.33765e-07
3.53192e-10
7.44472e-13
1.8854e-15
3.41241e-18
1.47765e-20
2.64484e-23
1.91899e-25
3.08188e-28
4.63658e-30
5.61021e-33
2.28751e-34
1.07444e-37
1.24461e-07
8.80209e-08
2.04782e-07
2.12287e-07
2.89862e-07
4.0034e-07
3.77913e-07
6.85863e-07
4.64022e-07
1.11651e-06
5.19995e-07
1.7419e-06
5.85281e-07
2.65957e-06
4.0825e-07
3.90339e-06
2.13083e-07
1.55947e-10
2.30017e-13
6.67368e-16
8.08359e-19
3.71455e-21
4.6026e-24
3.15022e-26
3.51875e-29
4.6801e-31
3.9915e-34
1.4093e-35
5.06006e-39
4.91418e-08
7.87311e-08
1.21607e-07
1.75507e-07
1.93008e-07
3.12136e-07
2.62928e-07
5.16356e-07
3.29075e-07
8.20291e-07
3.71788e-07
1.2637e-06
4.17384e-07
1.90903e-06
2.85948e-07
2.78164e-06
1.33948e-07
7.21193e-11
7.4254e-14
2.59357e-16
2.09677e-19
1.10272e-21
9.35462e-25
6.27011e-27
4.84886e-30
5.84555e-32
3.46249e-35
1.04569e-36
2.64606e-40
-2.40009e-08
7.46329e-08
4.83202e-08
1.53743e-07
1.14762e-07
2.56767e-07
1.75548e-07
4.02272e-07
2.29225e-07
6.17646e-07
2.63694e-07
9.28564e-07
2.97695e-07
1.38305e-06
1.99997e-07
1.99459e-06
8.28408e-08
3.40673e-11
2.51489e-14
1.08108e-16
5.89386e-20
3.68485e-22
2.16813e-25
1.53806e-27
8.0239e-31
9.12999e-33
3.75414e-36
9.89137e-38
1.7397e-41
-1.00174e-07
7.45957e-08
-2.31905e-08
1.44231e-07
4.55783e-08
2.23248e-07
1.04678e-07
3.29542e-07
1.53329e-07
4.80337e-07
1.83976e-07
6.98788e-07
2.10875e-07
1.016e-06
1.41432e-07
1.44156e-06
5.01135e-08
1.661e-11
8.98569e-15
4.63649e-17
1.85082e-20
1.34871e-22
5.44009e-26
4.34494e-28
1.56447e-31
1.8292e-33
5.06422e-37
1.20373e-38
1.47687e-42
-1.83326e-07
8.07788e-08
-9.69851e-08
1.45815e-07
-2.16144e-08
2.09402e-07
4.19235e-08
2.85502e-07
9.17991e-08
3.9196e-07
1.23199e-07
5.42453e-07
1.47221e-07
7.6346e-07
9.96655e-08
1.05819e-06
3.00418e-08
7.75294e-12
3.61719e-15
2.09632e-17
6.53455e-21
5.16044e-23
1.49415e-26
1.37596e-28
3.35986e-32
4.31555e-34
8.34338e-38
1.95409e-39
1.61285e-43
-2.78602e-07
9.50997e-08
-1.76841e-07
1.60943e-07
-9.03304e-08
2.13019e-07
-1.85409e-08
2.68078e-07
3.74002e-08
3.38978e-07
7.41422e-08
4.41083e-07
9.88245e-08
5.91282e-07
6.95256e-08
7.94099e-07
1.76793e-08
3.77157e-12
1.50926e-15
8.89439e-18
2.90287e-21
2.12595e-23
4.52572e-27
4.65719e-29
8.20657e-33
1.17046e-34
1.54094e-38
3.82218e-40
2.2255e-44
-3.94103e-07
1.18091e-07
-2.68393e-07
1.90244e-07
-1.64381e-07
2.36202e-07
-7.98268e-08
2.73674e-07
-1.41865e-08
3.18363e-07
3.09627e-08
3.81192e-07
6.02184e-08
4.79235e-07
4.71659e-08
6.13763e-07
1.02799e-08
1.9447e-12
7.70761e-16
4.28168e-18
1.21276e-21
8.34972e-24
1.61979e-27
1.73333e-29
2.27546e-33
3.4869e-35
3.30692e-39
8.83256e-41
3.50631e-45
-5.39991e-07
1.49014e-07
-3.80056e-07
2.33665e-07
-2.49504e-07
2.78664e-07
-1.45666e-07
3.03751e-07
-6.61913e-08
3.25791e-07
-9.40714e-09
3.58061e-07
2.69285e-08
4.13796e-07
3.02825e-08
4.95829e-07
5.87845e-09
1.32218e-12
4.34916e-16
2.31573e-18
6.25283e-22
3.82751e-24
5.95394e-28
6.23205e-30
7.62829e-34
1.16139e-35
8.17677e-40
2.30985e-41
6.59492e-46
-7.26611e-07
1.87563e-07
-5.21654e-07
2.91509e-07
-3.53732e-07
3.4056e-07
-2.21689e-07
3.57546e-07
-1.22036e-07
3.6144e-07
-4.97907e-08
3.66786e-07
-3.70824e-09
3.88647e-07
1.65082e-08
4.27265e-07
3.26737e-09
9.31998e-13
2.45145e-16
1.35707e-18
3.1986e-22
1.86676e-24
2.63393e-28
2.59298e-30
2.52307e-34
3.76824e-36
2.39308e-40
6.82943e-42
1.45503e-46
-9.64147e-07
2.35557e-07
-7.02769e-07
3.65878e-07
-4.86026e-07
4.23631e-07
-3.15174e-07
4.35708e-07
-1.8673e-07
4.24414e-07
-9.31071e-08
4.06347e-07
-3.4105e-08
3.9797e-07
4.38026e-09
4.00847e-07
1.62732e-09
7.16097e-13
1.25979e-16
8.24956e-19
1.58893e-22
9.46183e-25
1.1298e-28
1.10259e-30
9.78906e-35
1.38419e-36
6.93909e-41
1.97209e-42
3.71643e-47
-1.26372e-06
2.96377e-07
-9.32674e-07
4.61368e-07
-6.54923e-07
5.31969e-07
-4.33856e-07
5.41439e-07
-2.66378e-07
5.16094e-07
-1.43404e-07
4.76019e-07
-6.67424e-08
4.3999e-07
-7.13121e-09
4.09936e-07
4.43715e-10
6.13063e-13
5.7296e-17
5.60754e-19
7.33831e-23
5.02177e-25
4.74792e-29
4.85388e-31
3.60778e-35
5.1043e-37
2.28984e-41
6.3143e-43
9.49278e-48
-1.63987e-06
3.74351e-07
-1.22193e-06
5.83627e-07
-8.68936e-07
6.7227e-07
-5.85032e-07
6.80492e-07
-3.67279e-07
6.41073e-07
-2.05323e-07
5.77989e-07
-1.04515e-07
5.14187e-07
-1.91496e-08
4.52482e-07
-6.72428e-10
5.93738e-13
1.12887e-17
4.391e-19
3.24206e-23
3.04152e-25
1.91495e-29
2.26712e-31
1.32657e-35
1.95912e-37
7.26482e-42
2.01831e-43
2.78786e-48
-2.11223e-06
4.73419e-07
-1.58496e-06
7.39235e-07
-1.13816e-06
8.51977e-07
-7.76181e-07
8.61146e-07
-4.95489e-07
8.0648e-07
-2.83563e-07
7.18002e-07
-1.50748e-07
6.23698e-07
-3.25646e-08
5.27706e-07
-2.02967e-09
6.48665e-13
-2.91076e-17
4.0414e-19
9.67636e-24
2.18999e-25
7.39173e-30
1.23135e-31
4.80354e-36
8.1024e-38
2.33278e-42
6.77189e-44
7.81678e-49
-2.70641e-06
5.97504e-07
-2.04131e-06
9.34413e-07
-1.47637e-06
1.07968e-06
-1.01655e-06
1.09231e-06
-6.57453e-07
1.02172e-06
-3.82752e-07
9.04129e-07
-2.08816e-07
7.75057e-07
-4.84895e-08
6.39274e-07
-3.9936e-09
7.82293e-13
-7.84998e-17
4.38566e-19
-7.61356e-24
1.92094e-25
1.61744e-30
8.19175e-32
1.73204e-36
3.96609e-38
7.6396e-43
2.48805e-44
2.20789e-49
-3.45307e-06
7.50113e-07
-2.61606e-06
1.17668e-06
-1.90206e-06
1.36416e-06
-1.31889e-06
1.3845e-06
-8.6136e-07
1.29684e-06
-5.08027e-07
1.14645e-06
-2.82327e-07
9.76936e-07
-6.81002e-08
7.9414e-07
-6.99546e-09
1.00874e-12
-1.55691e-16
5.49244e-19
-2.82214e-23
2.07107e-25
-2.62356e-30
6.86974e-32
4.1359e-37
2.44662e-38
2.57145e-43
1.10128e-44
6.34981e-50
-4.38788e-06
9.36125e-07
-3.33887e-06
1.47408e-06
-2.43888e-06
1.71678e-06
-1.7001e-06
1.74889e-06
-1.11835e-06
1.64388e-06
-6.66042e-07
1.45583e-06
-3.75436e-07
1.23973e-06
-9.31141e-08
1.00165e-06
-1.1597e-08
1.35036e-12
-2.82755e-16
7.58491e-19
-6.2577e-23
2.68819e-25
-7.90748e-30
7.36658e-32
-4.60648e-37
1.9663e-38
6.17774e-44
6.31606e-45
1.87566e-50
-5.55132e-06
1.16155e-06
-4.24414e-06
1.83796e-06
-3.1144e-06
2.1499e-06
-2.18134e-06
2.20039e-06
-1.44296e-06
2.07628e-06
-8.65705e-07
1.84553e-06
-4.93508e-07
1.5749e-06
-1.25336e-07
1.27213e-06
-1.85647e-08
2.16183e-12
-4.97532e-16
1.1071e-18
-1.24544e-22
3.9699e-25
-1.79142e-29
9.90008e-32
-1.52126e-36
2.09802e-38
-5.96609e-44
4.87409e-45
3.09224e-51
1.43474e-06
-6.99061e-06
-5.37065e-06
2.28095e-06
-3.96057e-06
2.6807e-06
-2.78718e-06
2.75528e-06
-1.85329e-06
2.61212e-06
-1.1185e-06
2.33089e-06
-6.434e-07
1.99667e-06
-1.66996e-07
1.61714e-06
-2.88898e-08
3.88373e-12
-9.30492e-16
1.74587e-18
-2.48468e-22
6.33811e-25
-3.80678e-29
1.56002e-31
-3.67483e-36
2.91683e-38
-2.1811e-43
5.18232e-45
-6.33902e-51
2.82071e-06
-6.76316e-06
4.62402e-06
-1.16184e-05
-5.0133e-06
3.32762e-06
-3.54618e-06
3.43615e-06
-2.37026e-06
3.27122e-06
-1.43845e-06
2.93257e-06
-8.33788e-07
2.52202e-06
-2.2078e-07
2.0511e-06
-4.38146e-08
6.94671e-12
-1.8715e-15
3.07135e-18
-4.91917e-22
1.10058e-24
-8.40385e-29
2.72912e-31
-8.54022e-36
4.89653e-38
-5.68014e-43
7.45373e-45
-1.7077e-50
4.1163e-06
-6.31426e-06
9.09842e-06
-1.12415e-05
6.95799e-06
-1.85794e-05
-4.49042e-06
4.26637e-06
-3.01818e-06
4.08068e-06
-1.84191e-06
3.67335e-06
-1.07516e-06
3.17368e-06
-2.89885e-07
2.59145e-06
-6.4872e-08
1.2302e-11
-3.96734e-15
5.72569e-18
-1.00775e-21
2.02931e-24
-1.8531e-28
5.28172e-31
-2.12184e-35
9.40622e-38
-1.43981e-42
1.33137e-44
-4.0701e-50
5.27892e-06
-5.65755e-06
1.32792e-05
-1.04982e-05
1.3692e-05
-1.79767e-05
1.01619e-05
-2.87424e-05
-3.82468e-06
5.06821e-06
-2.34792e-06
4.58385e-06
-1.38008e-06
3.97698e-06
-3.78355e-07
3.26192e-06
-9.38747e-08
2.15212e-11
-8.67806e-15
1.08819e-17
-2.1892e-21
3.97144e-24
-4.19451e-28
1.07155e-30
-5.37755e-35
2.02677e-37
-3.85498e-42
2.80867e-44
-1.09708e-49
6.27304e-06
-4.82228e-06
1.70329e-05
-9.41371e-06
1.99816e-05
-1.67886e-05
1.99844e-05
-2.77972e-05
1.43886e-05
-4.31297e-05
-2.97848e-06
5.69533e-06
-1.76293e-06
4.96479e-06
-4.91369e-07
4.08924e-06
-1.32984e-07
3.74559e-11
-1.94246e-14
2.06502e-17
-4.9829e-21
8.08978e-24
-1.00358e-27
2.26866e-30
-1.3891e-34
4.61124e-37
-1.0663e-41
6.71724e-44
-3.33301e-49
7.05192e-06
-3.7596e-06
2.02456e-05
-8.03668e-06
2.56294e-05
-1.50619e-05
2.91377e-05
-2.594e-05
2.82524e-05
-4.16566e-05
1.99718e-05
-6.30987e-05
-2.24123e-06
6.17174e-06
-6.35452e-07
5.10784e-06
-1.84835e-07
6.52548e-11
-4.39781e-14
3.92699e-17
-1.18396e-20
1.67536e-23
-2.53252e-27
5.01169e-30
-3.69703e-34
1.08169e-36
-3.04667e-41
1.72454e-43
-1.10128e-48
7.64509e-06
-2.83524e-06
2.27678e-05
-6.28272e-06
3.04702e-05
-1.28775e-05
3.73404e-05
-2.3263e-05
4.11e-05
-3.8784e-05
3.90571e-05
-6.07367e-05
2.72572e-05
-9.03525e-05
-8.18118e-07
6.35342e-06
-2.5208e-07
1.13499e-10
-9.97007e-14
7.53608e-17
-2.90729e-20
3.52608e-23
-6.70874e-27
1.13939e-29
-1.01513e-33
2.62804e-36
-9.02747e-41
4.54947e-43
-3.73576e-48
7.87963e-06
-1.0531e-06
2.46935e-05
-4.76118e-06
3.42849e-05
-1.00971e-05
4.43674e-05
-1.9903e-05
5.25472e-05
-3.47071e-05
5.65086e-05
-5.62315e-05
5.30167e-05
-8.64918e-05
3.79577e-05
-0.000128307
-3.38537e-07
2.02297e-10
-2.29409e-13
1.45661e-16
-7.28134e-20
7.59086e-23
-1.86013e-26
2.67255e-29
-2.92199e-33
6.60159e-36
-2.79913e-40
1.23277e-42
-1.25224e-47
3.68535e-10
-4.25922e-07
2.54763e-05
-1.83595e-06
3.72107e-05
-7.68647e-06
4.99199e-05
-1.56483e-05
6.23127e-05
-2.9666e-05
7.18485e-05
-5.00437e-05
7.6029e-05
-7.92405e-05
7.27891e-05
-0.000121321
4.87235e-05
-0.000177029
-5.23329e-13
2.94187e-16
-1.89165e-19
1.65099e-22
-5.16066e-26
6.49948e-29
-8.9813e-33
1.73429e-35
-9.14603e-40
3.44824e-42
-4.18653e-47
6.03452e-16
-7.74168e-13
2.1191e-09
-7.8193e-07
3.84744e-05
-3.09937e-06
5.41878e-05
-1.19534e-05
7.00328e-05
-2.33665e-05
8.47897e-05
-4.26047e-05
9.57511e-05
-6.97632e-05
0.00010198
-0.00010843
9.66835e-05
-0.00016928
8.66825e-05
-0.000263711
-4.76414e-19
3.80838e-22
-1.51348e-25
1.60175e-28
-2.76247e-32
4.77574e-35
-3.22072e-39
1.01923e-41
-1.47254e-46
8.80622e-22
-5.743e-19
4.33892e-15
-6.64796e-12
8.30246e-09
-1.35445e-06
5.61665e-05
-5.07764e-06
7.5957e-05
-1.78766e-05
9.49772e-05
-3.35523e-05
0.000112006
-5.88575e-05
0.000125702
-9.34829e-05
0.000133346
-0.000145091
0.000151433
-0.00023403
0.000103597
-0.000367309
-4.16799e-25
4.24469e-28
-9.27496e-32
1.3408e-34
-1.12702e-38
3.17845e-41
-5.66504e-46
1.11294e-27
-2.7535e-25
8.0404e-21
-9.23142e-18
2.53116e-14
-4.15505e-11
2.99174e-08
-2.21874e-06
7.89349e-05
-8.05497e-06
0.000102735
-2.56338e-05
0.000124624
-4.61689e-05
0.000144433
-7.75881e-05
0.000161151
-0.000121288
0.000189379
-0.000183039
0.00018357
-0.000314005
0.000474439
-0.000220133
-0.000621615
-2.83056e-31
4.0957e-34
-4.34633e-38
1.01872e-40
-2.1888e-45
1.22593e-33
8.9695e-32
1.30436e-26
-1.20403e-23
6.80663e-20
-8.57129e-17
1.37289e-13
-2.34841e-10
9.9396e-08
-3.48029e-06
0.000106991
-1.231e-05
0.000134064
-3.50733e-05
0.000158598
-6.03336e-05
0.000181336
-9.77729e-05
0.000212042
-0.000143951
0.00023187
-0.00023134
0.00037872
-0.000218288
0.000463459
-0.000143064
-0.000540529
-6.72159e-05
-0.0005544
-1.46677e-37
3.58915e-40
-9.65594e-45
1.23279e-39
2.93504e-37
1.85515e-32
-1.3091e-29
1.59052e-25
-1.62891e-22
5.42425e-19
-6.32761e-16
6.80439e-13
-1.16575e-09
2.98344e-07
-5.23435e-06
0.000139711
-1.79577e-05
0.000168896
-4.5371e-05
0.000195524
-7.45217e-05
0.000226039
-0.00011177
0.000254829
-0.00016691
0.000319635
-0.000172256
0.000391214
-0.000146044
0.000454468
-0.000106751
-0.000490782
-9.44351e-05
-0.000513311
-5.11693e-05
-0.000503231
-3.62972e-44
1.74335e-43
2.41553e-38
-1.09293e-35
3.24621e-31
-2.55869e-28
1.83835e-24
-1.85208e-21
3.88983e-18
-4.55069e-15
5.52905e-12
-5.03082e-09
8.00772e-07
-7.50949e-06
0.000175594
-2.46552e-05
0.000205187
-5.50341e-05
0.000234975
-8.34584e-05
0.000264953
-0.000121896
0.000286123
-0.0001334
0.000345352
-0.000126394
0.000413166
-0.000104743
0.000463634
-8.45544e-05
-0.000485831
-9.50673e-05
-0.00049015
-7.86113e-05
-0.000485869
-4.0103e-05
-0.000463129
-4.67309e-42
6.06455e-37
-3.0532e-34
5.38241e-30
-4.27397e-27
1.87886e-23
-1.69738e-20
3.18733e-17
-4.35709e-14
4.35188e-11
-1.86907e-08
1.91024e-06
-1.01829e-05
0.000211863
-3.13317e-05
0.000240755
-6.08138e-05
0.000268819
-8.73246e-05
0.000265826
-0.0001016
0.000315782
-0.000103831
0.000377622
-9.08506e-05
0.000429354
-7.04633e-05
0.000462498
-5.05462e-05
-0.000496506
-9.39817e-05
-0.000486917
-9.28253e-05
-0.000475936
-6.98663e-05
-0.000456105
-3.67681e-05
-0.00042636
-1.88109e-40
1.4338e-35
-7.34254e-33
7.75434e-29
-5.3882e-26
1.79414e-22
-1.83692e-19
3.20223e-16
-3.97768e-13
2.70121e-10
-5.85877e-08
4.00863e-06
-1.29101e-05
0.000245385
-3.59628e-05
0.00027022
-6.22156e-05
0.000252315
-7.38136e-05
0.000295018
-8.08367e-05
0.000347413
-7.36231e-05
0.000396059
-5.75561e-05
0.000439632
-4.75968e-05
0.000534521
-4.02161e-05
-0.000544851
-8.98458e-05
-0.000500642
-0.00010367
-0.000476071
-9.24517e-05
-0.000453351
-6.83791e-05
-0.000424494
-3.57745e-05
-0.000390586
-6.40729e-39
2.89471e-34
-1.31775e-31
9.42401e-28
-6.76169e-25
2.08643e-21
-2.03268e-18
2.58727e-15
-2.66972e-12
1.28724e-09
-1.4991e-07
7.35405e-06
-1.49876e-05
0.000271431
-3.71746e-05
0.000244248
-5.41492e-05
0.000279173
-5.79691e-05
0.000322318
-5.57413e-05
0.000366377
-4.39407e-05
0.000417462
-3.53868e-05
0.000474416
1.25084e-05
0.000439802
-4.13678e-06
-0.000558537
-1.40823e-05
5.05588e-05
4.61804e-05
-0.000107304
-0.000527392
-0.000116958
-0.000487354
-0.000110934
-0.000457589
-9.61746e-05
-0.000425555
-6.93781e-05
-0.00039089
-3.62073e-05
-0.000354379
-1.63002e-37
4.6507e-33
-1.98743e-30
1.22678e-26
-8.78422e-24
2.10073e-20
-1.68152e-17
1.54559e-14
-1.22588e-11
4.59984e-09
-2.96336e-07
1.16876e-05
-1.58853e-05
0.0002403
-3.32274e-05
0.000267447
-4.24233e-05
0.000301944
-3.75957e-05
0.00034017
-2.95346e-05
0.000392666
-1.91446e-05
0.000423357
1.5672e-05
0.000464977
-1.26671e-05
-3.10849e-06
-3.88859e-06
-2.74669e-05
3.03274e-05
-2.07686e-05
-0.00059151
-2.85919e-05
-1.04154e-05
-1.45555e-05
-5.93717e-07
-2.48579e-05
8.2613e-06
-3.25149e-06
8.83693e-06
4.10848e-05
1.2545e-05
2.97903e-05
-0.000142527
-0.000501822
-0.000126765
-0.000471523
-0.000121841
-0.000431923
-0.000101388
-0.000393545
-7.15742e-05
-0.000355523
-3.71403e-05
-0.000317238
-3.11471e-36
6.90471e-32
-2.94069e-29
1.47933e-25
-8.88439e-23
1.53098e-19
-9.10886e-17
6.61263e-14
-3.65928e-11
1.21637e-08
-4.34841e-07
1.32392e-05
-1.45604e-05
0.000260844
-2.66244e-05
0.000285959
-2.64384e-05
0.000316837
-1.42637e-05
0.000364478
-1.34648e-06
0.000388481
1.57317e-05
0.000479603
1.04711e-06
-7.74626e-05
-8.02863e-05
0.00030545
-6.71156e-05
-7.23337e-05
1.41304e-06
-9.49202e-07
-3.53964e-06
-7.5118e-05
3.04222e-05
1.76739e-06
2.40997e-05
-1.20924e-06
5.66976e-06
-0.000546952
-0.000187084
-6.88158e-05
1.18268e-05
-4.29241e-06
-0.000117557
3.63162e-05
-0.000111657
2.39933e-05
2.25106e-05
4.50344e-06
-1.6985e-05
2.2249e-06
-1.45029e-05
-2.57601e-05
-0.000135849
-0.000492738
-0.000147013
-0.000446351
-0.000133181
-0.000400129
-0.000106399
-0.000358721
-7.41318e-05
-0.000318532
-3.81432e-05
-0.000279095
-5.34941e-35
9.64034e-31
-3.53532e-28
1.29933e-24
-5.77076e-22
7.70367e-19
-2.79857e-16
2.05287e-13
-7.17414e-11
1.98503e-08
-4.84629e-07
1.70599e-05
-1.2147e-05
0.000276447
-1.71128e-05
0.000296913
-6.51442e-06
0.000332471
1.77433e-05
0.000359304
2.78307e-05
0.000472528
2.28064e-05
0.000349877
-1.65152e-05
-1.56525e-05
-6.3675e-06
-4.84373e-06
2.52719e-06
-6.06553e-05
5.60681e-05
-6.50557e-05
-6.39438e-05
6.47799e-05
-7.06427e-05
1.66571e-06
-6.95232e-05
8.61535e-06
-6.88674e-05
5.64022e-06
1.44261e-06
1.6601e-05
1.11696e-05
4.57204e-06
-8.1825e-05
8.67933e-05
3.52682e-05
-4.34783e-05
3.59931e-05
-3.16531e-05
-0.000525514
-0.000157287
-5.40056e-06
-1.81617e-05
-0.000293089
-1.17515e-05
-2.0066e-05
-2.97957e-05
-3.80342e-05
2.72624e-05
-9.48924e-06
-1.24742e-07
4.76417e-05
3.29696e-05
-8.98557e-05
9.10359e-05
3.22186e-05
-4.3608e-05
3.28168e-05
-3.5021e-05
4.90381e-06
2.84746e-05
-5.00874e-05
5.49532e-06
-2.90465e-05
2.64643e-05
-4.44515e-05
2.5343e-06
-3.04792e-05
-0.00016944
-0.00047031
-0.0001679
-0.000411631
-0.000141651
-0.000364876
-0.000111344
-0.000321508
-7.64936e-05
-0.000280181
-3.89892e-05
-0.000240106
-7.50453e-34
1.00104e-29
-2.74313e-27
7.64421e-24
-2.12867e-21
2.66017e-18
-5.12103e-16
5.28601e-13
-7.50498e-11
3.39676e-08
-4.5682e-07
2.03907e-05
-8.45954e-06
0.000284316
-4.51616e-06
0.000303151
2.28047e-05
0.000325818
5.12289e-05
0.000429629
7.073e-05
0.00038843
-6.49575e-06
-6.9811e-06
-1.26806e-07
-2.14344e-06
2.56854e-06
-7.25654e-05
-1.60416e-05
-7.18038e-05
-1.01475e-05
2.07451e-06
-6.26283e-05
-1.83792e-05
-6.29111e-05
-1.1662e-05
7.53108e-07
-0.000138675
-4.25219e-06
7.62914e-05
-4.90739e-05
-8.68381e-06
1.58991e-05
-4.43328e-05
2.16659e-05
6.53796e-05
-0.00013784
-6.24408e-06
7.66525e-05
-1.07586e-05
-4.90107e-05
1.55517e-05
-4.43412e-05
2.11685e-05
6.49317e-05
1.05166e-06
-0.000126597
-3.28381e-05
3.1106e-05
-3.37835e-05
3.10449e-05
-0.000127644
-3.16022e-05
3.0911e-05
-3.34948e-05
3.0681e-05
5.06977e-06
0.000110194
3.92507e-05
-5.09493e-05
3.62955e-05
-4.18972e-05
4.61014e-05
2.10522e-05
2.04375e-07
-5.38295e-05
2.17396e-05
-1.88118e-05
-4.11403e-05
4.02114e-05
-2.37378e-05
1.48907e-07
3.68069e-05
2.63268e-05
-3.42971e-05
-1.74443e-05
-0.00049328
-0.000201675
-0.000401237
-2.31089e-05
-2.08817e-05
-1.72145e-06
-3.42591e-06
1.51923e-06
-0.000116733
0.00011779
-1.43277e-05
-0.000115105
0.000120206
-2.36481e-05
1.99531e-06
-0.00010456
-4.39627e-05
-0.00010248
-4.86634e-05
0.00011102
3.58049e-05
-4.92062e-05
3.27527e-05
-4.37544e-05
3.22472e-06
4.95608e-05
-2.4637e-05
4.79531e-05
-2.28251e-05
4.71717e-05
-2.15285e-05
4.4711e-05
-2.56191e-05
4.85889e-05
2.05887e-05
-5.64637e-05
1.97089e-05
-1.84433e-05
-4.03838e-05
4.01691e-05
-2.49501e-05
3.86796e-05
2.44313e-05
-3.39781e-05
-2.08382e-05
-6.13089e-05
2.65982e-05
5.91288e-07
8.76441e-06
-2.49334e-05
1.17849e-05
-4.11911e-05
8.65145e-07
-5.31861e-06
-2.49607e-05
-6.30503e-05
2.64281e-05
7.21409e-06
-2.43472e-05
1.12649e-05
-3.76133e-05
-7.34553e-06
-2.67645e-05
-0.000209623
-0.000428587
-0.000177381
-0.000375901
-0.000149465
-0.000326756
-0.000115523
-0.000282479
-7.83006e-05
-0.000240869
-3.9578e-05
-0.000200527
-6.8035e-33
6.81392e-29
-1.18381e-26
2.97369e-23
-3.61314e-21
5.87808e-18
-1.29793e-16
1.27219e-12
3.88258e-11
4.85425e-08
-2.98404e-07
2.24183e-05
-3.29513e-06
0.000284653
1.39824e-05
0.000293161
5.54616e-05
0.000360099
0.000120759
0.000403731
2.45862e-06
1.27324e-06
2.6847e-05
2.48505e-05
1.80415e-06
-5.16428e-05
-1.92854e-05
-5.35853e-05
-1.45028e-05
1.35177e-06
-4.90327e-05
-4.08868e-06
-5.4561e-05
1.8392e-07
1.32303e-06
-0.000124664
-3.53144e-05
2.71268e-05
-3.77875e-05
2.67088e-05
-0.000126558
-3.23244e-05
2.85921e-05
-3.40975e-05
2.79282e-05
1.54198e-06
-0.00011003
-4.04744e-05
2.23179e-05
-4.0484e-05
2.40777e-05
-0.000111663
-3.68705e-05
2.33238e-05
-3.6626e-05
2.51376e-05
-1.98021e-05
-3.17955e-05
2.58154e-05
-2.32917e-05
-1.52402e-05
6.34121e-07
-3.52689e-05
-2.61333e-05
9.93664e-08
-7.59231e-06
2.96928e-05
-1.71889e-05
-4.1147e-05
-1.77924e-05
2.08754e-08
-3.2926e-05
1.12338e-05
5.27359e-07
5.30596e-05
-8.74958e-06
-1.46902e-05
-2.66385e-07
-3.34153e-05
-1.94726e-05
-3.24081e-05
2.61702e-05
-2.33002e-05
-2.60297e-05
2.99463e-05
-7.73781e-06
-1.68842e-05
-4.21305e-05
-1.77346e-05
-3.28749e-05
1.11505e-05
5.25676e-05
-9.14423e-06
-1.69683e-05
4.25961e-05
-4.25601e-05
-1.59059e-05
3.46224e-05
5.27415e-09
-3.30639e-05
1.25751e-05
-1.71647e-05
-1.51697e-05
4.31318e-10
1.55467e-05
-1.64402e-05
4.42946e-05
-4.5163e-05
-1.42937e-05
3.49096e-05
-3.39816e-05
1.35482e-05
-1.69032e-05
-1.44276e-05
1.5813e-05
-2.79382e-05
1.89091e-05
-1.14785e-07
1.88984e-05
2.94962e-05
-1.84375e-05
3.68346e-05
-2.91353e-05
1.30316e-07
2.65962e-05
3.78605e-05
-2.4014e-05
4.93208e-05
2.13116e-05
1.55062e-07
-5.06901e-05
1.64211e-06
-2.1842e-05
-3.39536e-05
3.73041e-05
-5.2463e-06
2.30405e-07
4.16759e-05
1.19161e-05
-2.29341e-05
-7.15212e-06
-0.000440566
-0.000262337
-0.000406851
-6.18932e-05
-5.63499e-05
-4.17922e-05
-3.6025e-05
3.04644e-06
-0.00010731
9.69805e-05
-1.58254e-05
-0.000110138
9.79257e-05
-5.62248e-06
2.93486e-06
5.82321e-06
9.57709e-06
1.65358e-06
-0.000115844
0.000118582
-4.63936e-05
3.69551e-05
-4.48077e-05
3.55582e-05
-0.000118295
0.000116369
-4.59312e-05
3.60719e-05
-4.49741e-05
3.47644e-05
1.52423e-06
-7.11089e-05
1.05455e-05
-3.31221e-05
-7.4084e-05
1.54576e-05
-4.96284e-05
2.08734e-05
1.97493e-05
-7.26905e-05
1.12947e-05
-3.38804e-05
-7.54278e-05
1.48135e-05
-4.95739e-05
2.05643e-05
1.94664e-05
-2.88522e-05
1.86527e-05
1.8441e-05
2.74486e-05
-1.81164e-05
3.75195e-05
-2.84404e-05
2.4594e-05
3.75159e-05
-2.5098e-05
1.07653e-07
2.77312e-05
-5.08523e-08
4.06712e-05
-3.17006e-05
-5.08112e-05
-1.32339e-05
6.97118e-07
2.62236e-05
-8.04468e-06
-1.26357e-06
2.79396e-05
3.88859e-05
-3.1712e-05
-5.02418e-05
-1.22649e-05
2.37273e-05
-1.04056e-05
4.99845e-05
2.06777e-05
-5.03723e-05
-4.25972e-07
-2.15782e-05
-3.24298e-05
3.6595e-05
-7.53721e-06
4.25237e-05
1.05445e-05
-2.14121e-05
-1.11782e-05
2.24362e-05
4.64798e-07
-1.17855e-05
-2.48242e-05
2.2362e-05
-1.24878e-05
-2.60809e-05
-0.00020887
-0.000397098
-0.000189856
-0.000335509
-0.00015608
-0.000286198
-0.000118414
-0.000242366
-7.94609e-05
-0.000200986
-3.99292e-05
-0.000160598
-3.35737e-32
2.95889e-28
-2.04909e-26
6.39765e-23
-9.01309e-23
1.36267e-17
3.40235e-15
2.26596e-12
2.77664e-10
5.88065e-08
-6.63387e-09
2.24347e-05
4.2484e-06
0.000269824
3.73195e-05
0.000282411
0.00013315
0.000326733
3.41191e-05
3.21144e-05
6.69459e-05
6.45767e-05
2.07564e-07
-5.54469e-05
8.66525e-06
-5.86641e-05
5.58377e-06
-1.9114e-07
-5.30774e-05
2.46685e-05
-5.42043e-05
2.01994e-05
1.44317e-06
-0.000102557
-3.80234e-05
2.21722e-05
-3.41737e-05
2.17891e-05
-0.000104727
-3.46945e-05
2.29864e-05
-3.09689e-05
2.26876e-05
1.85691e-06
-7.59629e-05
-3.02112e-05
6.9238e-06
-2.97998e-05
2.05735e-05
-8.02715e-05
-2.6511e-05
7.95264e-06
-2.54978e-05
2.16652e-05
-1.67651e-05
-4.5254e-05
-1.58555e-05
-3.44349e-05
-2.55979e-07
1.19745e-05
-1.69337e-05
-4.74584e-05
-1.86543e-05
-4.61373e-07
-3.7083e-05
1.28519e-05
-1.61181e-05
-4.75041e-05
-1.38653e-05
-3.5086e-05
1.33224e-05
-1.6066e-05
-4.88299e-05
-1.67058e-05
-3.71911e-05
1.35155e-05
-1.49858e-05
4.5426e-05
-4.03737e-05
-3.0537e-05
3.74527e-05
-5.12075e-07
-3.93248e-05
9.69698e-06
-1.5975e-05
-2.65367e-05
-5.41975e-07
9.03197e-06
-1.42187e-05
4.59167e-05
-4.08498e-05
-2.77188e-05
3.73779e-05
-3.8834e-05
1.00412e-05
-1.52918e-05
-2.42475e-05
9.48121e-06
-1.27835e-05
1.24015e-05
-5.40134e-06
-1.45637e-05
-1.45666e-05
2.61589e-08
2.83849e-07
1.76824e-05
-9.78584e-06
-2.11056e-05
5.82806e-08
-1.75745e-05
-1.26111e-05
1.41281e-05
-5.32572e-06
-1.46078e-05
1.82409e-05
-1.44797e-05
-9.68541e-06
-2.11185e-05
-1.74262e-05
-1.21167e-05
2.17231e-05
-2.3171e-05
1.73281e-05
2.71021e-07
-1.62527e-05
-1.2207e-05
1.71637e-07
-1.18383e-05
2.18052e-05
-2.32733e-05
1.73808e-05
-1.64868e-05
-1.20829e-05
-3.28261e-05
2.44826e-05
-1.27859e-07
2.22995e-05
1.56551e-05
-2.33047e-05
3.85638e-05
-7.0903e-06
1.12094e-07
1.20143e-05
4.48572e-05
-5.8249e-06
1.19595e-05
9.36012e-06
4.32369e-07
-1.06137e-05
-9.95e-06
-1.13339e-05
1.53452e-05
3.49155e-07
1.54692e-05
-6.99322e-06
-0.000396151
-0.000253285
-0.000382333
-7.04495e-05
-7.4655e-05
-7.04698e-05
-7.12799e-05
3.21699e-06
-0.000104377
9.4973e-05
-5.57058e-05
-0.000104895
8.84465e-05
-3.66848e-05
3.42639e-06
-5.26154e-05
-3.95673e-05
2.44658e-06
-0.000133636
0.000132206
-5.523e-05
4.58795e-05
-4.92981e-05
4.18294e-05
-0.000128312
0.000125388
-4.9133e-05
4.82055e-05
-4.35522e-05
4.42081e-05
1.55314e-06
-4.49994e-05
3.83074e-05
-4.47494e-05
4.06891e-05
-4.21276e-05
3.97675e-05
-4.05087e-05
4.20655e-05
-2.21228e-05
-4.90107e-05
4.19199e-05
-1.71799e-05
-3.94193e-05
-2.838e-07
3.48035e-05
1.96844e-05
-2.35005e-05
-5.1879e-05
-1.84387e-05
-1.7466e-07
-4.10751e-05
1.38884e-05
-2.15068e-05
-4.83577e-05
3.97602e-05
-1.58269e-05
-3.95382e-05
3.41374e-05
1.96824e-05
-2.3055e-05
-5.19948e-05
-1.82817e-05
-4.1783e-05
1.37795e-05
-2.23485e-05
5.6015e-05
-6.16437e-05
-5.14458e-06
-3.04889e-05
-6.05339e-05
3.70494e-06
3.85222e-05
-2.83714e-07
-8.44885e-06
-3.67147e-05
-2.39262e-05
-2.15658e-05
-2.54677e-07
-5.35073e-06
3.03914e-07
3.67709e-06
1.15203e-05
-2.15926e-05
5.61506e-05
-6.18383e-05
-6.5997e-06
-2.98199e-05