/*--------------------------------*- C++ -*----------------------------------*\
| =========                 |                                                 |
| \\      /  F ield         | OpenFOAM: The Open Source CFD Toolbox           |
|  \\    /   O peration     | Version:  5.x                                   |
|   \\  /    A nd           | Web:      www.OpenFOAM.org                      |
|    \\/     M anipulation  |                                                 |
\*---------------------------------------------------------------------------*/
FoamFile
{
    version     2.0;
    format      ascii;
    class       volScalarField;
    location    "0.2";
    object      k;
}
// * * * * * * * * * * * * * * * * * * * * * * * * * * * * * * * * * * * * * //

dimensions      [0 2 -2 0 0 0 0];

internalField   nonuniform List<scalar> 
12160
(
9.98852e-09
9.98715e-09
1.00062e-08
9.98705e-09
1.00058e-08
1.00021e-08
9.98705e-09
1.00051e-08
1.00021e-08
1.00018e-08
9.98705e-09
1.00037e-08
1.00021e-08
1.00019e-08
1.00018e-08
9.98705e-09
1.00031e-08
1.00018e-08
1.00018e-08
1.00019e-08
1.00019e-08
9.98705e-09
1.00026e-08
1.00018e-08
1.00017e-08
1.00018e-08
1.00019e-08
1.0002e-08
9.98705e-09
1.00023e-08
1.00017e-08
1.00017e-08
1.00017e-08
1.00018e-08
1.0002e-08
1.0002e-08
9.98705e-09
1.0002e-08
1.00017e-08
1.00017e-08
1.00017e-08
1.00017e-08
1.00018e-08
1.00019e-08
1.00024e-08
9.98705e-09
1.00019e-08
1.00016e-08
1.00017e-08
1.00017e-08
1.00017e-08
1.00018e-08
1.00017e-08
1.0002e-08
1.00028e-08
9.98705e-09
1.00018e-08
1.00016e-08
1.00016e-08
1.00017e-08
1.00017e-08
1.00017e-08
1.00017e-08
1.00018e-08
1.0002e-08
1.00022e-08
9.98705e-09
1.00017e-08
1.00016e-08
1.00016e-08
1.00016e-08
1.00017e-08
1.00017e-08
1.00017e-08
1.00018e-08
1.00018e-08
1.00021e-08
1.0002e-08
9.98705e-09
1.00017e-08
1.00016e-08
1.00016e-08
1.00016e-08
1.00016e-08
1.00017e-08
1.00017e-08
1.00017e-08
1.00017e-08
1.00018e-08
1.00019e-08
1.0002e-08
9.98705e-09
1.00017e-08
1.00016e-08
1.00016e-08
1.00016e-08
1.00016e-08
1.00016e-08
1.00017e-08
1.00017e-08
1.00017e-08
1.00018e-08
1.00017e-08
1.00018e-08
1.00019e-08
9.98705e-09
1.00017e-08
1.00016e-08
1.00016e-08
1.00016e-08
1.00016e-08
1.00016e-08
1.00017e-08
1.00017e-08
1.00016e-08
1.00017e-08
1.00017e-08
1.00017e-08
1.00018e-08
1.00019e-08
9.98705e-09
1.00017e-08
1.00016e-08
1.00016e-08
1.00016e-08
1.00016e-08
1.00016e-08
1.00017e-08
1.00016e-08
1.00016e-08
1.00016e-08
1.00017e-08
1.00017e-08
1.00017e-08
1.00017e-08
9.98705e-09
1.00016e-08
1.00016e-08
1.00016e-08
1.00016e-08
1.00016e-08
1.00016e-08
1.00017e-08
1.00016e-08
1.00016e-08
1.00016e-08
1.00016e-08
1.00017e-08
1.00017e-08
1.00017e-08
9.98705e-09
1.00015e-08
1.00016e-08
1.00016e-08
1.00016e-08
1.00016e-08
1.00016e-08
1.00017e-08
1.00016e-08
1.00016e-08
1.00016e-08
1.00016e-08
1.00016e-08
1.00017e-08
1.00017e-08
9.98705e-09
1.00012e-08
1.00014e-08
1.00016e-08
1.00016e-08
1.00016e-08
1.00016e-08
1.00017e-08
1.00016e-08
1.00016e-08
1.00016e-08
1.00016e-08
1.00016e-08
1.00017e-08
1.00017e-08
9.98705e-09
1.00008e-08
1.00011e-08
1.00015e-08
1.00016e-08
1.00016e-08
1.00016e-08
1.00017e-08
1.00016e-08
1.00016e-08
1.00016e-08
1.00016e-08
1.00016e-08
1.00016e-08
1.00017e-08
9.98705e-09
1.00006e-08
1.00008e-08
1.00012e-08
1.00014e-08
1.00016e-08
1.00016e-08
1.00017e-08
1.00016e-08
1.00017e-08
1.00016e-08
1.00016e-08
1.00016e-08
1.00016e-08
1.00016e-08
9.98705e-09
1.00004e-08
1.00006e-08
1.00009e-08
1.00011e-08
1.00015e-08
1.00016e-08
1.00017e-08
1.00017e-08
1.00017e-08
1.00017e-08
1.00016e-08
1.00016e-08
1.00016e-08
1.00016e-08
9.98705e-09
1.00002e-08
1.00004e-08
1.00006e-08
1.00008e-08
1.00012e-08
1.00015e-08
1.00016e-08
1.00017e-08
1.00017e-08
1.00017e-08
1.00017e-08
1.00016e-08
1.00016e-08
1.00016e-08
9.98705e-09
1.00002e-08
1.00002e-08
1.00004e-08
1.00005e-08
1.00009e-08
1.00012e-08
1.00016e-08
1.00016e-08
1.00017e-08
1.00017e-08
1.00017e-08
1.00017e-08
1.00016e-08
1.00016e-08
9.98705e-09
1.00001e-08
1.00001e-08
1.00002e-08
1.00003e-08
1.00006e-08
1.00009e-08
1.00016e-08
1.00016e-08
1.00016e-08
1.00016e-08
1.00017e-08
1.00017e-08
1.00017e-08
1.00016e-08
9.98705e-09
1.00001e-08
1.00001e-08
1.00001e-08
1.00002e-08
1.00004e-08
1.00006e-08
1.00016e-08
1.00016e-08
1.00016e-08
1.00016e-08
1.00016e-08
1.00017e-08
1.00017e-08
1.00016e-08
9.98705e-09
1.00001e-08
1e-08
1.00001e-08
1.00001e-08
1.00002e-08
1.00004e-08
1.00016e-08
1.00016e-08
1.00016e-08
1.00016e-08
1.00016e-08
1.00016e-08
1.00016e-08
1.00016e-08
9.98705e-09
1.00001e-08
1e-08
1e-08
1e-08
1.00001e-08
1.00002e-08
1.00016e-08
1.00016e-08
1.00016e-08
1.00016e-08
1.00016e-08
1.00016e-08
1.00016e-08
1.00016e-08
9.98705e-09
1.00001e-08
1.00001e-08
1e-08
9.99996e-09
1e-08
1.00001e-08
1.00016e-08
1.00017e-08
1.00017e-08
1.00016e-08
1.00016e-08
1.00016e-08
1.00016e-08
1.00016e-08
9.98705e-09
1.00002e-08
1.00001e-08
1.00001e-08
9.99996e-09
9.99998e-09
9.99992e-09
1.00015e-08
1.00017e-08
1.00018e-08
1.00017e-08
1.00017e-08
1.00016e-08
1.00016e-08
1.00016e-08
9.98705e-09
1.00004e-08
1.00002e-08
1.00001e-08
1e-08
9.99999e-09
9.99985e-09
1.00015e-08
1.00017e-08
1.00017e-08
1.00016e-08
1.00017e-08
1.00017e-08
1.00016e-08
1.00016e-08
9.98705e-09
1.00005e-08
1.00004e-08
1.00002e-08
1.00001e-08
1e-08
9.99987e-09
1.00014e-08
1.00015e-08
1.00016e-08
1.00015e-08
1.00016e-08
1.00017e-08
1.00017e-08
1.00016e-08
9.98705e-09
1.00007e-08
1.00005e-08
1.00004e-08
1.00002e-08
1.00001e-08
9.99995e-09
1.00012e-08
1.00014e-08
1.00014e-08
1.00011e-08
1.00015e-08
1.00016e-08
1.00016e-08
1.00016e-08
9.98705e-09
1.00009e-08
1.00007e-08
1.00005e-08
1.00003e-08
1.00002e-08
1.00001e-08
1.00009e-08
1.00013e-08
1.00013e-08
1.00008e-08
1.00013e-08
1.00014e-08
1.00015e-08
1.00015e-08
9.98705e-09
1.0001e-08
1.00009e-08
1.00007e-08
1.00005e-08
1.00004e-08
1.00002e-08
1.00011e-08
1.00012e-08
1.00012e-08
1.00005e-08
1.00011e-08
1.00012e-08
1.00014e-08
1.00013e-08
9.98705e-09
1.00012e-08
1.0001e-08
1.00009e-08
1.00007e-08
1.00005e-08
1.00003e-08
1.00012e-08
1.00013e-08
1.00012e-08
1.00004e-08
1.0001e-08
1.00008e-08
1.00012e-08
1.00011e-08
9.98705e-09
1.00013e-08
1.00011e-08
1.0001e-08
1.00009e-08
1.00007e-08
1.00005e-08
1.00013e-08
1.00014e-08
1.00013e-08
1.00005e-08
1.00009e-08
1.00004e-08
1.00009e-08
1.00009e-08
9.98705e-09
1.00014e-08
1.00013e-08
1.00012e-08
1.0001e-08
1.00009e-08
1.00007e-08
1.00014e-08
1.00015e-08
1.00015e-08
1.00008e-08
1.0001e-08
1.00002e-08
1.00006e-08
1.00006e-08
9.98705e-09
1.00014e-08
1.00013e-08
1.00013e-08
1.00011e-08
1.0001e-08
1.00009e-08
1.00014e-08
1.00016e-08
1.00017e-08
1.00011e-08
1.00011e-08
1.00005e-08
1.00004e-08
1.00003e-08
9.98705e-09
1.00015e-08
1.00014e-08
1.00013e-08
1.00012e-08
1.00012e-08
1.00011e-08
1.00015e-08
1.00017e-08
1.00018e-08
1.00014e-08
1.00013e-08
1.00009e-08
1.00005e-08
1.00001e-08
1.00015e-08
9.98705e-09
1.00015e-08
1.00014e-08
1.00013e-08
1.00013e-08
1.00012e-08
1.00015e-08
1.00017e-08
1.00018e-08
1.00016e-08
1.00014e-08
1.00012e-08
1.00007e-08
1.00002e-08
1.00015e-08
1.00016e-08
9.98705e-09
1.00015e-08
1.00014e-08
1.00014e-08
1.00013e-08
1.00015e-08
1.00016e-08
1.00016e-08
1.00016e-08
1.00016e-08
1.00014e-08
1.0001e-08
1.00004e-08
1.00015e-08
1.00015e-08
1.00017e-08
9.98705e-09
1.00015e-08
1.00014e-08
1.00014e-08
1.00015e-08
1.00014e-08
1.00013e-08
1.00014e-08
1.00016e-08
1.00015e-08
1.00012e-08
1.00008e-08
1.00015e-08
1.00015e-08
1.00016e-08
1.00017e-08
9.98705e-09
1.00015e-08
1.00014e-08
1.00016e-08
1.00012e-08
1.00009e-08
1.00011e-08
1.00014e-08
1.00015e-08
1.00013e-08
1.0001e-08
1.00015e-08
1.00015e-08
1.00016e-08
1.00016e-08
1.00018e-08
9.98705e-09
1.00015e-08
1.00016e-08
1.00011e-08
1.00006e-08
1.00007e-08
1.00011e-08
1.00013e-08
1.00013e-08
1.00012e-08
1.00015e-08
1.00015e-08
1.00016e-08
1.00016e-08
1.00016e-08
1.00019e-08
9.98705e-09
1.00016e-08
1.00011e-08
1.00005e-08
1.00004e-08
1.00007e-08
1.0001e-08
1.00012e-08
1.00012e-08
1.00016e-08
1.00015e-08
1.00016e-08
1.00016e-08
1.00016e-08
1.00016e-08
1.00021e-08
9.98705e-09
1.00013e-08
1.00008e-08
1.00006e-08
1.00006e-08
1.00008e-08
1.00011e-08
1.00011e-08
1.00016e-08
1.00016e-08
1.00016e-08
1.00016e-08
1.00016e-08
1.00016e-08
1.00017e-08
1.00024e-08
9.98705e-09
1.00015e-08
1.00011e-08
1.00008e-08
1.00008e-08
1.0001e-08
1.00011e-08
1.00021e-08
1.00017e-08
1.00016e-08
1.00016e-08
1.00016e-08
1.00016e-08
1.00016e-08
1.00017e-08
1.00029e-08
9.98732e-09
1.0002e-08
1.00014e-08
1.00011e-08
1.00011e-08
1.00011e-08
1.00025e-08
1.00019e-08
1.00017e-08
1.00016e-08
1.00016e-08
1.00016e-08
1.00016e-08
1.00017e-08
1.00017e-08
1.0004e-08
9.99081e-09
1.00021e-08
1.00016e-08
1.00013e-08
1.00012e-08
1.00024e-08
1.00021e-08
1.00022e-08
1.00017e-08
1.00016e-08
1.00016e-08
1.00016e-08
1.00017e-08
1.00017e-08
1.00019e-08
1.00051e-08
1.00102e-08
1.00021e-08
1.00017e-08
1.00015e-08
1.00023e-08
1.0002e-08
1.00021e-08
1.00023e-08
1.00018e-08
1.00016e-08
1.00016e-08
1.00017e-08
1.00017e-08
1.00017e-08
1.00022e-08
1.00054e-08
1.00018e-08
9.99028e-09
1.00021e-08
1.00017e-08
1.00021e-08
1.00019e-08
1.0002e-08
1.00019e-08
1.00022e-08
1.0002e-08
1.00016e-08
1.00017e-08
1.00017e-08
1.00017e-08
1.00018e-08
1.00024e-08
1.00018e-08
1.00017e-08
1.00017e-08
9.99017e-09
1.00019e-08
1.00018e-08
1.00018e-08
1.00018e-08
1.00018e-08
1.00016e-08
1.0002e-08
1.00021e-08
1.00016e-08
1.00017e-08
1.00017e-08
1.00017e-08
1.00018e-08
1.00017e-08
1.00017e-08
1.00017e-08
1.00017e-08
1.00017e-08
9.99009e-09
1.00017e-08
1.00017e-08
1.00017e-08
1.00015e-08
1.00015e-08
1.00019e-08
1.00022e-08
1.00016e-08
1.00017e-08
1.00017e-08
1.00017e-08
1.00017e-08
1.00017e-08
1.00017e-08
1.00017e-08
1.00016e-08
1.00017e-08
1.00017e-08
9.99007e-09
1.00016e-08
1.00016e-08
1.00015e-08
1.00015e-08
1.00018e-08
1.00021e-08
1.00022e-08
1.00016e-08
1.00017e-08
1.00017e-08
1.00017e-08
1.00017e-08
1.00017e-08
1.00017e-08
1.00017e-08
1.00017e-08
1.00017e-08
1.00017e-08
1.00017e-08
9.99007e-09
1.00016e-08
1.00016e-08
1.00016e-08
1.00019e-08
1.00024e-08
1.00025e-08
1.00021e-08
1.00016e-08
1.00017e-08
1.00017e-08
1.00017e-08
1.00017e-08
1.00017e-08
1.00017e-08
1.0002e-08
1.00017e-08
1.00017e-08
1.00017e-08
1.00017e-08
1.00017e-08
9.99007e-09
1.00016e-08
1.00017e-08
1.00019e-08
1.00024e-08
1.0003e-08
1.00028e-08
1.0002e-08
1.00017e-08
1.00017e-08
1.00017e-08
1.00017e-08
1.00017e-08
1.00017e-08
1.00018e-08
1.00025e-08
1.0002e-08
1.00024e-08
1.00045e-08
1.00046e-08
1.00017e-08
1.00017e-08
1.00017e-08
1.00017e-08
1.00017e-08
9.99008e-09
1.00017e-08
1.00019e-08
1.00023e-08
1.00028e-08
1.00032e-08
1.00028e-08
1.0002e-08
1.00016e-08
1.00017e-08
1.00017e-08
1.00017e-08
1.00017e-08
1.00017e-08
1.00035e-08
1.00043e-08
1.00036e-08
1.00019e-08
1.00041e-08
1.0005e-08
1.0005e-08
1.00043e-08
1.00048e-08
1.0005e-08
1.00017e-08
1.00017e-08
1.00017e-08
1.00017e-08
1.00017e-08
9.99009e-09
1.00018e-08
1.00021e-08
1.00025e-08
1.00028e-08
1.0003e-08
1.00028e-08
1.00019e-08
1.00016e-08
1.00017e-08
1.00017e-08
1.00017e-08
1.00017e-08
1.00025e-08
1.0007e-08
1.00071e-08
1.00037e-08
1.00036e-08
1.00046e-08
1.00089e-08
1.00018e-08
1.00027e-08
1.00049e-08
1.00056e-08
1.00055e-08
1.00089e-08
1.00081e-08
1.00079e-08
1.00017e-08
1.00017e-08
1.00017e-08
1.00017e-08
1.00017e-08
9.99009e-09
1.00019e-08
1.00021e-08
1.00023e-08
1.00026e-08
1.00029e-08
1.00025e-08
1.00019e-08
1.00017e-08
1.00017e-08
1.00017e-08
1.00017e-08
1.00022e-08
1.00045e-08
1.00042e-08
1.00043e-08
1.0004e-08
1.00103e-08
1.00103e-08
1.00088e-08
1.00087e-08
1.00093e-08
1.00098e-08
1.00116e-08
1.00099e-08
1.00114e-08
1.00018e-08
1.00025e-08
1.00068e-08
1.0007e-08
1.00081e-08
1.00081e-08
1.00094e-08
1.00083e-08
1.00084e-08
1.00098e-08
1.00117e-08
1.001e-08
1.00115e-08
1.00099e-08
1.00113e-08
1.00105e-08
1.00112e-08
1.001e-08
1.00112e-08
1.00106e-08
1.00113e-08
1.00017e-08
1.00017e-08
1.00017e-08
1.00017e-08
1.00017e-08
9.99009e-09
1.00018e-08
1.00019e-08
1.00021e-08
1.00024e-08
1.00027e-08
1.00025e-08
1.0002e-08
1.00017e-08
1.00017e-08
1.00017e-08
1.00021e-08
1.00039e-08
1.00036e-08
1.00033e-08
1.00031e-08
1.00085e-08
1.00082e-08
1.00082e-08
1.00079e-08
1.00119e-08
1.0012e-08
1.00116e-08
1.00112e-08
1.00106e-08
1.00109e-08
1.0012e-08
1.00118e-08
1.00116e-08
1.00111e-08
1.00106e-08
1.00109e-08
1.00107e-08
1.00097e-08
1.00108e-08
1.00097e-08
1.00104e-08
1.00095e-08
1.00106e-08
1.00096e-08
1.00103e-08
1.00118e-08
1.00102e-08
1.00117e-08
1.00111e-08
1.00122e-08
1.00112e-08
1.0012e-08
1.00019e-08
1.00028e-08
1.00056e-08
1.00053e-08
1.00058e-08
1.00059e-08
1.00108e-08
1.00108e-08
1.00124e-08
1.00125e-08
1.00105e-08
1.00119e-08
1.00104e-08
1.00118e-08
1.00093e-08
1.00107e-08
1.00099e-08
1.00109e-08
1.00094e-08
1.00109e-08
1.00101e-08
1.00111e-08
1.00111e-08
1.00121e-08
1.00114e-08
1.00119e-08
1.00111e-08
1.00117e-08
1.00112e-08
1.00118e-08
1.00017e-08
1.00017e-08
1.00017e-08
1.00017e-08
1.00017e-08
9.99009e-09
1.00017e-08
1.00017e-08
1.00019e-08
1.00024e-08
1.00029e-08
1.00026e-08
1.00021e-08
1.00017e-08
1.00018e-08
1.00021e-08
1.00035e-08
1.00034e-08
1.00034e-08
1.00034e-08
1.00073e-08
1.00071e-08
1.00059e-08
1.00057e-08
1.00106e-08
1.00097e-08
1.00106e-08
1.00097e-08
1.00103e-08
1.00093e-08
1.00103e-08
1.00093e-08
1.00102e-08
1.00092e-08
1.00105e-08
1.00096e-08
1.001e-08
1.00089e-08
1.00102e-08
1.00092e-08
1.00124e-08
1.00117e-08
1.00113e-08
1.0012e-08
1.00114e-08
1.00108e-08
1.00123e-08
1.00117e-08
1.00119e-08
1.00113e-08
1.00113e-08
1.00108e-08
1.00108e-08
1.00101e-08
1.0011e-08
1.00103e-08
1.00106e-08
1.00099e-08
1.00109e-08
1.00101e-08
1.00116e-08
1.00123e-08
1.00115e-08
1.00123e-08
1.00112e-08
1.00109e-08
1.00113e-08
1.00109e-08
1.00018e-08
1.00027e-08
1.00068e-08
1.00064e-08
1.00064e-08
1.0006e-08
1.00102e-08
1.00098e-08
1.00099e-08
1.00096e-08
1.00118e-08
1.00112e-08
1.00122e-08
1.00118e-08
1.00118e-08
1.00112e-08
1.00122e-08
1.00118e-08
1.00124e-08
1.00124e-08
1.00121e-08
1.00124e-08
1.00125e-08
1.00123e-08
1.00123e-08
1.00124e-08
1.0012e-08
1.00124e-08
1.00125e-08
1.00125e-08
1.00118e-08
1.00124e-08
1.00118e-08
1.00124e-08
1.0011e-08
1.00122e-08
1.0011e-08
1.00122e-08
1.00114e-08
1.00111e-08
1.00116e-08
1.0011e-08
1.00115e-08
1.00114e-08
1.00114e-08
1.00116e-08
1.00017e-08
1.00017e-08
1.00017e-08
1.00017e-08
1.00017e-08
9.9901e-09
1.00014e-08
1.00013e-08
1.00016e-08
1.00025e-08
1.00033e-08
1.00028e-08
1.0002e-08
1.00017e-08
1.00019e-08
1.00033e-08
1.00034e-08
1.00033e-08
1.00034e-08
1.00039e-08
1.0004e-08
1.00033e-08
1.00034e-08
1.00098e-08
1.00084e-08
1.00093e-08
1.00079e-08
1.00098e-08
1.00083e-08
1.00093e-08
1.00077e-08
1.00078e-08
1.00073e-08
1.00088e-08
1.00073e-08
1.00078e-08
1.00074e-08
1.00087e-08
1.00072e-08
1.00106e-08
1.001e-08
1.00106e-08
1.00099e-08
1.00104e-08
1.00097e-08
1.00103e-08
1.00095e-08
1.00103e-08
1.00095e-08
1.00105e-08
1.00097e-08
1.00101e-08
1.00093e-08
1.00102e-08
1.00094e-08
1.00117e-08
1.00111e-08
1.00115e-08
1.00115e-08
1.00018e-08
1.00023e-08
1.0005e-08
1.0005e-08
1.00062e-08
1.00059e-08
1.00104e-08
1.00099e-08
1.00107e-08
1.00102e-08
1.00116e-08
1.00108e-08
1.00114e-08
1.00106e-08
1.00114e-08
1.00103e-08
1.00112e-08
1.00102e-08
1.00114e-08
1.00106e-08
1.00113e-08
1.00104e-08
1.00113e-08
1.00103e-08
1.00111e-08
1.001e-08
1.00116e-08
1.00113e-08
1.00116e-08
1.00113e-08
1.00116e-08
1.00112e-08
1.00116e-08
1.00113e-08
1.00123e-08
1.00115e-08
1.00104e-08
1.00119e-08
1.00114e-08
1.00105e-08
1.00122e-08
1.00115e-08
1.00103e-08
1.00119e-08
1.00114e-08
1.00105e-08
1.00118e-08
1.00112e-08
1.00116e-08
1.00115e-08
1.00116e-08
1.0012e-08
1.00116e-08
1.00119e-08
1.00017e-08
1.00017e-08
1.00017e-08
1.00017e-08
1.00017e-08
9.99009e-09
1.00009e-08
1.00007e-08
1.00014e-08
1.00029e-08
1.00036e-08
1.0003e-08
1.00019e-08
1.00019e-08
1.00024e-08
1.00029e-08
1.00031e-08
1.00022e-08
1.00021e-08
1.00071e-08
1.00074e-08
1.00065e-08
1.00066e-08
1.00101e-08
1.00092e-08
1.00097e-08
1.00085e-08
1.00101e-08
1.00091e-08
1.00097e-08
1.00085e-08
1.00084e-08
1.00075e-08
1.00092e-08
1.00079e-08
1.00085e-08
1.00076e-08
1.00092e-08
1.0008e-08
1.00095e-08
1.00084e-08
1.00091e-08
1.00079e-08
1.00018e-08
1.0002e-08
1.0005e-08
1.00051e-08
1.00055e-08
1.00054e-08
1.00065e-08
1.00066e-08
1.00081e-08
1.00076e-08
1.00116e-08
1.00118e-08
1.00116e-08
1.00112e-08
1.00113e-08
1.00114e-08
1.00112e-08
1.00106e-08
1.00117e-08
1.00112e-08
1.00118e-08
1.00114e-08
1.00114e-08
1.00107e-08
1.00115e-08
1.00109e-08
1.00119e-08
1.00112e-08
1.00115e-08
1.00109e-08
1.00118e-08
1.00109e-08
1.00116e-08
1.00109e-08
1.00114e-08
1.00109e-08
1.00114e-08
1.00107e-08
1.00114e-08
1.00108e-08
1.00115e-08
1.00108e-08
1.00017e-08
1.00017e-08
1.00017e-08
1.00017e-08
1.00018e-08
9.99004e-09
1.00011e-08
1.00007e-08
1.00018e-08
1.00028e-08
1.00036e-08
1.0003e-08
1.0003e-08
1.0002e-08
1.00045e-08
1.00046e-08
1.00059e-08
1.0006e-08
1.00058e-08
1.00058e-08
1.00047e-08
1.00047e-08
1.00084e-08
1.00085e-08
1.00087e-08
1.00084e-08
1.00081e-08
1.00089e-08
1.00082e-08
1.00089e-08
1.0008e-08
1.0009e-08
1.00077e-08
1.00087e-08
1.00078e-08
1.00091e-08
1.00077e-08
1.0009e-08
1.00094e-08
1.00085e-08
1.00091e-08
1.00083e-08
1.00092e-08
1.00082e-08
1.00091e-08
1.0008e-08
1.00088e-08
1.00087e-08
1.00089e-08
1.00083e-08
1.00091e-08
1.00082e-08
1.0009e-08
1.0008e-08
1.00017e-08
1.00019e-08
1.0003e-08
1.00059e-08
1.00059e-08
1.00058e-08
1.00058e-08
1.00099e-08
1.00104e-08
1.00122e-08
1.00121e-08
1.00123e-08
1.00124e-08
1.00124e-08
1.00122e-08
1.00122e-08
1.00123e-08
1.00122e-08
1.00118e-08
1.00119e-08
1.00118e-08
1.00122e-08
1.00122e-08
1.00117e-08
1.00113e-08
1.0012e-08
1.00118e-08
1.00111e-08
1.00114e-08
1.00114e-08
1.00111e-08
1.00017e-08
1.00017e-08
1.00017e-08
1.00018e-08
1.00029e-08
9.98706e-09
1.00022e-08
1.00017e-08
1.00022e-08
1.00023e-08
1.00031e-08
1.00047e-08
1.00422e-08
1.00173e-08
1.00059e-08
1.00059e-08
1.0006e-08
1.00059e-08
1.00084e-08
1.00073e-08
1.00071e-08
1.00071e-08
1.00086e-08
1.00073e-08
1.0007e-08
1.00074e-08
1.00068e-08
1.00068e-08
1.00082e-08
1.00088e-08
1.00083e-08
1.00088e-08
1.00071e-08
1.00086e-08
1.00072e-08
1.00087e-08
1.0008e-08
1.00093e-08
1.00079e-08
1.0009e-08
1.00076e-08
1.00094e-08
1.00082e-08
1.0009e-08
1.00086e-08
1.00079e-08
1.00085e-08
1.0007e-08
1.00017e-08
1.00018e-08
1.00027e-08
1.00064e-08
1.00063e-08
1.00061e-08
1.0006e-08
1.00079e-08
1.00082e-08
1.00091e-08
1.00084e-08
1.0011e-08
1.00118e-08
1.00103e-08
1.00121e-08
1.00114e-08
1.00121e-08
1.00108e-08
1.00123e-08
1.00124e-08
1.00118e-08
1.00118e-08
1.00123e-08
1.00123e-08
1.00118e-08
1.00117e-08
1.00123e-08
1.00116e-08
1.00114e-08
1.00113e-08
1.00116e-08
1.00116e-08
1.00112e-08
1.00113e-08
1.00115e-08
1.00104e-08
1.00116e-08
1.0011e-08
1.00117e-08
1.00102e-08
1.00114e-08
1.0011e-08
1.00117e-08
1.00017e-08
1.00017e-08
1.00018e-08
1.00029e-08
9.98706e-09
1.00026e-08
1.00029e-08
1.00018e-08
1.0004e-08
1.00051e-08
1.00273e-08
1.00899e-08
1.00216e-08
1.00275e-08
1.00414e-08
1.00724e-08
1.00093e-08
1.0009e-08
1.00093e-08
1.00103e-08
1.00093e-08
1.0009e-08
1.00096e-08
1.00107e-08
1.00123e-08
1.00135e-08
1.00091e-08
1.00076e-08
1.00071e-08
1.00082e-08
1.00093e-08
1.0008e-08
1.00073e-08
1.00084e-08
1.00093e-08
1.00088e-08
1.00091e-08
1.00088e-08
1.00093e-08
1.00086e-08
1.00092e-08
1.00087e-08
1.0007e-08
1.00094e-08
1.00078e-08
1.00089e-08
1.00072e-08
1.00095e-08
1.00083e-08
1.00089e-08
1.00017e-08
1.00017e-08
1.00021e-08
1.00059e-08
1.00116e-08
1.00105e-08
1.00132e-08
1.00129e-08
1.00126e-08
1.00129e-08
1.00115e-08
1.001e-08
1.0011e-08
1.00117e-08
1.00112e-08
1.00093e-08
1.00106e-08
1.00112e-08
1.00118e-08
1.0013e-08
1.00113e-08
1.00128e-08
1.0012e-08
1.0013e-08
1.00115e-08
1.00128e-08
1.00123e-08
1.00116e-08
1.00112e-08
1.00124e-08
1.00123e-08
1.00116e-08
1.0011e-08
1.00124e-08
1.00113e-08
1.00105e-08
1.00114e-08
1.00104e-08
1.00017e-08
1.00018e-08
1.00029e-08
9.98706e-09
1.00007e-08
1.00044e-08
1.0003e-08
1.00006e-08
1.00236e-08
1.00553e-08
1.00252e-08
1.01514e-08
1.00904e-08
1.00887e-08
1.00216e-08
1.00369e-08
1.00298e-08
1.00931e-08
1.00103e-08
1.00086e-08
1.00107e-08
1.00102e-08
1.00101e-08
1.00083e-08
1.00109e-08
1.00106e-08
1.0012e-08
1.00156e-08
1.00162e-08
1.00142e-08
1.00142e-08
1.00209e-08
1.00217e-08
1.00142e-08
1.00096e-08
1.00083e-08
1.00085e-08
1.00094e-08
1.00097e-08
1.0009e-08
1.0009e-08
1.00095e-08
1.00098e-08
1.00076e-08
1.00092e-08
1.0007e-08
1.00095e-08
1.0007e-08
1.00092e-08
1.00067e-08
1.00017e-08
1.00017e-08
1.00018e-08
1.00032e-08
1.00124e-08
1.00116e-08
1.00157e-08
1.00154e-08
1.00166e-08
1.00162e-08
1.0015e-08
1.00139e-08
1.00151e-08
1.0015e-08
1.00148e-08
1.00136e-08
1.00147e-08
1.00144e-08
1.0015e-08
1.00136e-08
1.00149e-08
1.00138e-08
1.00135e-08
1.00127e-08
1.00152e-08
1.0014e-08
1.00151e-08
1.00141e-08
1.00133e-08
1.00127e-08
1.00133e-08
1.00118e-08
1.00131e-08
1.00114e-08
1.0012e-08
1.00135e-08
1.00119e-08
1.00131e-08
1.00121e-08
1.00135e-08
1.0012e-08
1.0013e-08
1.00018e-08
1.00029e-08
9.98705e-09
1.00007e-08
1.0001e-08
1.00057e-08
1.0016e-08
1.00283e-08
1.00334e-08
9.98942e-09
1.01714e-08
1.008e-08
1.0077e-08
1.00205e-08
1.00181e-08
1.00171e-08
1.0022e-08
1.00328e-08
1.00167e-08
1.00256e-08
1.00242e-08
1.00204e-08
9.99181e-09
1.00372e-08
1.0001e-08
9.98169e-09
9.98036e-09
1.00151e-08
1.00377e-08
1.01191e-08
1.00999e-08
1.00647e-08
1.0051e-08
1.00119e-08
1.00074e-08
1.0013e-08
1.00086e-08
1.00111e-08
1.00088e-08
1.00121e-08
1.00121e-08
1.00088e-08
1.00157e-08
1.00172e-08
1.00181e-08
1.00064e-08
1.00089e-08
1.00065e-08
1.0009e-08
1.00107e-08
1.00064e-08
1.001e-08
1.00059e-08
1.00018e-08
1.00017e-08
1.00017e-08
1.00025e-08
1.00071e-08
1.0007e-08
1.00088e-08
1.00085e-08
1.0018e-08
1.00173e-08
1.00194e-08
1.00193e-08
1.00169e-08
1.0018e-08
1.00187e-08
1.00171e-08
1.00165e-08
1.00163e-08
1.00168e-08
1.00178e-08
1.00184e-08
1.00171e-08
1.00161e-08
1.00159e-08
1.00159e-08
1.00151e-08
1.00157e-08
1.00147e-08
1.00153e-08
1.00142e-08
1.00146e-08
1.00149e-08
1.00131e-08
1.00136e-08
1.00155e-08
1.00144e-08
1.00149e-08
1.00149e-08
1.00134e-08
1.00136e-08
1.00142e-08
1.0013e-08
1.0014e-08
1.00126e-08
1.00029e-08
9.98705e-09
1.00016e-08
9.99993e-09
1.00042e-08
1.00175e-08
1.00054e-08
9.99651e-09
1.01915e-08
9.96841e-09
1.00436e-08
9.92411e-09
1.02369e-08
1.00323e-08
1.01634e-08
1.00211e-08
9.98702e-09
1.00717e-08
1.00144e-08
9.97589e-09
1.00929e-08
1.00259e-08
9.9336e-09
1.00022e-08
1.00552e-08
9.90093e-09
1.01476e-08
9.8773e-09
9.91456e-09
9.94202e-09
1.00572e-08
9.85516e-09
1.01884e-08
9.83463e-09
1.02134e-08
1.00133e-08
1.00024e-08
1.0013e-08
1.0019e-08
1.00028e-08
1.00018e-08
1.00017e-08
1.00018e-08
1.00058e-08
1.0011e-08
1.00107e-08
1.00137e-08
1.00124e-08
1.00184e-08
1.00181e-08
1.00189e-08
1.00185e-08
1.0018e-08
1.00179e-08
1.00186e-08
1.0018e-08
1.00176e-08
1.00185e-08
1.00174e-08
1.00188e-08
1.0019e-08
1.00195e-08
1.00177e-08
1.00186e-08
1.00175e-08
1.0019e-08
1.00192e-08
1.00194e-08
1.00163e-08
1.00154e-08
1.00167e-08
1.00166e-08
1.00167e-08
1.00157e-08
1.0017e-08
1.00166e-08
1.00163e-08
1.00155e-08
1.00161e-08
1.00152e-08
1.00159e-08
1.00148e-08
1.00143e-08
1.00124e-08
1.00161e-08
1.00149e-08
1.00145e-08
1.00126e-08
9.98706e-09
1.00023e-08
1.00012e-08
1.00051e-08
1.00118e-08
1.0008e-08
1.00341e-08
1.03758e-08
9.98111e-09
1.01248e-08
9.88333e-09
9.80072e-09
9.76369e-09
9.89033e-09
1.0427e-08
1.03558e-08
1.03949e-08
1.04338e-08
9.9326e-09
1.04084e-08
9.68378e-09
9.72847e-09
9.74373e-09
9.90386e-09
9.69396e-09
1.03257e-08
9.35502e-09
1.03779e-08
9.98706e-09
1.00027e-08
1.00017e-08
1.00017e-08
1.00025e-08
1.00101e-08
1.001e-08
1.00137e-08
1.00137e-08
1.00116e-08
1.00117e-08
1.00178e-08
1.0018e-08
1.00192e-08
1.00183e-08
1.00192e-08
1.00187e-08
1.00189e-08
1.00183e-08
1.00189e-08
1.00183e-08
1.0017e-08
1.00167e-08
1.00154e-08
1.00152e-08
1.00175e-08
1.00161e-08
1.00172e-08
1.00168e-08
1.00152e-08
1.00156e-08
1.00179e-08
1.00168e-08
1.00136e-08
1.00152e-08
1.00142e-08
1.00156e-08
1.00075e-08
9.99454e-09
1.00057e-08
1.00038e-08
1.01036e-08
9.94576e-09
1.01309e-08
9.89987e-09
1.01693e-08
1.04748e-08
1.00292e-08
1.01272e-08
9.743e-09
9.80287e-09
9.55994e-09
9.88614e-09
1.02626e-08
1.04762e-08
1.01156e-08
1.04837e-08
1.00894e-08
1.00804e-08
1.00336e-08
9.69395e-09
1.06183e-08
1.05593e-08
1.06289e-08
1.03017e-08
9.77938e-09
9.56691e-09
1.02546e-08
1.02678e-08
9.98705e-09
1.00026e-08
1.00017e-08
1.00017e-08
1.0007e-08
1.00157e-08
1.00157e-08
1.00192e-08
1.00192e-08
1.002e-08
1.00203e-08
1.00196e-08
1.00198e-08
1.00189e-08
1.00197e-08
1.00198e-08
1.00198e-08
1.00188e-08
1.00198e-08
1.00208e-08
1.00196e-08
1.002e-08
1.00192e-08
1.00207e-08
1.00199e-08
1.00195e-08
1.00187e-08
1.00109e-08
9.99923e-09
9.99641e-09
1.00096e-08
1.01595e-08
1.00778e-08
1.0059e-08
1.00101e-08
1.01757e-08
1.0351e-08
1.0332e-08
1.0159e-08
1.02956e-08
1.01506e-08
1.07565e-08
1.0685e-08
1.04925e-08
1.04676e-08
1.04902e-08
1.03145e-08
1.0145e-08
1.01429e-08
9.51609e-09
9.93854e-09
9.2495e-09
1.00286e-08
9.97409e-09
1.05475e-08
9.62059e-09
1.06768e-08
1.01216e-08
1.00211e-08
1.09558e-08
1.07689e-08
9.98705e-09
1.00025e-08
1.00017e-08
1.00024e-08
1.00114e-08
1.00114e-08
1.00133e-08
1.00132e-08
1.00156e-08
1.00161e-08
1.0021e-08
1.00217e-08
1.00213e-08
1.00212e-08
1.00206e-08
1.00197e-08
1.00202e-08
1.002e-08
1.00216e-08
1.00216e-08
1.00211e-08
1.00202e-08
1.00206e-08
1.00204e-08
1.00194e-08
1.00182e-08
1.00199e-08
1.00188e-08
1.002e-08
1.0018e-08
1.00206e-08
1.00188e-08
9.99608e-09
1.00065e-08
9.99728e-09
1.0036e-08
9.9377e-09
9.9969e-09
9.99314e-09
1.01536e-08
1.0299e-08
1.00612e-08
1.00955e-08
1.01948e-08
1.02097e-08
1.02108e-08
1.0141e-08
1.02933e-08
1.01477e-08
1.06344e-08
1.03878e-08
1.03989e-08
1.0347e-08
1.03953e-08
1.03436e-08
1.0143e-08
1.01229e-08
1.01769e-08
1.01177e-08
1.02788e-08
1.02639e-08
1.02828e-08
1.026e-08
9.98705e-09
1.00024e-08
1.00018e-08
1.00067e-08
1.00157e-08
1.00156e-08
1.00183e-08
1.0018e-08
1.0021e-08
1.00216e-08
1.00221e-08
1.00216e-08
1.00216e-08
1.00222e-08
1.00216e-08
1.00221e-08
1.00223e-08
1.00226e-08
1.0022e-08
1.00226e-08
1.00225e-08
1.0022e-08
1.0022e-08
1.00187e-08
1.00217e-08
1.00164e-08
1.00225e-08
1.00196e-08
1.0022e-08
1.00176e-08
1.00174e-08
1.0015e-08
1.00184e-08
1.00161e-08
1.00004e-08
1.00028e-08
1.00052e-08
1.00454e-08
1.00304e-08
9.99731e-09
9.97009e-09
1.01496e-08
1.01044e-08
1.01793e-08
1.01131e-08
1.0175e-08
1.01194e-08
1.02819e-08
1.02564e-08
1.02766e-08
1.02711e-08
1.02681e-08
1.02081e-08
1.01208e-08
1.0191e-08
1.00105e-08
1.01782e-08
1.03205e-08
1.03679e-08
1.02676e-08
1.02047e-08
1.03887e-08
1.04167e-08
9.98707e-09
1.00022e-08
1.00021e-08
1.00119e-08
1.00121e-08
1.00157e-08
1.00156e-08
1.00144e-08
1.00142e-08
1.00252e-08
1.00256e-08
1.00237e-08
1.0023e-08
1.00233e-08
1.0022e-08
1.0023e-08
1.0022e-08
1.0024e-08
1.00234e-08
1.00226e-08
1.00235e-08
1.00234e-08
1.00223e-08
1.00214e-08
1.00201e-08
1.00232e-08
1.00222e-08
1.00235e-08
1.00218e-08
1.00227e-08
1.00206e-08
1.00072e-08
9.99981e-09
1.00083e-08
1.00833e-08
1.00783e-08
1.00334e-08
1.00219e-08
1.01879e-08
1.01352e-08
1.02289e-08
1.02534e-08
1.02573e-08
1.01839e-08
1.03122e-08
1.0241e-08
1.03033e-08
1.03244e-08
1.03322e-08
1.02479e-08
1.00939e-08
1.01298e-08
1.01062e-08
1.01307e-08
1.01073e-08
1.01557e-08
1.01515e-08
1.02028e-08
1.02946e-08
1.0231e-08
1.0404e-08
1.05472e-08
9.98708e-09
1.0002e-08
1.00044e-08
1.00131e-08
1.00125e-08
1.002e-08
1.00188e-08
1.00276e-08
1.00279e-08
1.00253e-08
1.00247e-08
1.00267e-08
1.00275e-08
1.00261e-08
1.00274e-08
1.00254e-08
1.00251e-08
1.00272e-08
1.00275e-08
1.00263e-08
1.00276e-08
1.0024e-08
1.00226e-08
1.00227e-08
1.0021e-08
1.00225e-08
1.00207e-08
1.00242e-08
1.0023e-08
1.00022e-08
9.99878e-09
1.00463e-08
1.00554e-08
1.00419e-08
1.00449e-08
1.0021e-08
1.00441e-08
1.01075e-08
1.00947e-08
1.01252e-08
1.01003e-08
1.00966e-08
1.01675e-08
1.02981e-08
1.02206e-08
1.02431e-08
1.02906e-08
1.02567e-08
1.0244e-08
1.03832e-08
1.03328e-08
1.02772e-08
1.0335e-08
1.0276e-08
1.02398e-08
1.01083e-08
1.01177e-08
1.01304e-08
1.01663e-08
9.9871e-09
1.0002e-08
1.00116e-08
1.00187e-08
1.0017e-08
1.00278e-08
1.00265e-08
1.00295e-08
1.00281e-08
1.00304e-08
1.00287e-08
1.00291e-08
1.0028e-08
1.0029e-08
1.00293e-08
1.00282e-08
1.00277e-08
1.00303e-08
1.00289e-08
1.00267e-08
1.00255e-08
1.00291e-08
1.00275e-08
1.00269e-08
1.00257e-08
1.00292e-08
1.00276e-08
1.00251e-08
1.00235e-08
1.00254e-08
1.00238e-08
9.99481e-09
1.00075e-08
1.01018e-08
1.00665e-08
1.01118e-08
1.0086e-08
1.0027e-08
1.00351e-08
1.01201e-08
1.01151e-08
1.00561e-08
1.01134e-08
1.01413e-08
1.01762e-08
1.01114e-08
1.01679e-08
1.01109e-08
1.0127e-08
1.00337e-08
1.01102e-08
1.01816e-08
1.01572e-08
1.01223e-08
1.02086e-08
1.01031e-08
1.01322e-08
1.01478e-08
1.01726e-08
1.01191e-08
1.01205e-08
1.01262e-08
1.01547e-08
9.98719e-09
1.00027e-08
1.00165e-08
1.00306e-08
1.00293e-08
1.00152e-08
1.00256e-08
1.00255e-08
1.00364e-08
1.00296e-08
1.00283e-08
1.0036e-08
1.00288e-08
1.00271e-08
1.00307e-08
1.00301e-08
1.0029e-08
1.0029e-08
1.00307e-08
1.00292e-08
1.00299e-08
1.00287e-08
1.0028e-08
1.00268e-08
1.00297e-08
1.00281e-08
1.00281e-08
1.00269e-08
1.00297e-08
1.00281e-08
9.99419e-09
1.00659e-08
1.01693e-08
1.01841e-08
1.01136e-08
1.01296e-08
1.0215e-08
1.02937e-08
1.01328e-08
1.01402e-08
1.0086e-08
1.0084e-08
1.01268e-08
1.01334e-08
1.01188e-08
1.00948e-08
1.01043e-08
1.01543e-08
1.01339e-08
1.0119e-08
1.01526e-08
1.00996e-08
1.00803e-08
1.01823e-08
1.01098e-08
1.01239e-08
1.0143e-08
1.01433e-08
9.98748e-09
1.00053e-08
1.00256e-08
1.00262e-08
1.00263e-08
1.00232e-08
1.00328e-08
1.0032e-08
1.00354e-08
1.00356e-08
1.00368e-08
1.00337e-08
1.00355e-08
1.00352e-08
1.00326e-08
1.00317e-08
1.00352e-08
1.00353e-08
1.00363e-08
1.00332e-08
1.00351e-08
1.00348e-08
1.00323e-08
1.00315e-08
1.00289e-08
1.00317e-08
1.00266e-08
1.00317e-08
1.00292e-08
1.00272e-08
1.00317e-08
1.00317e-08
1.00022e-08
1.03318e-08
1.01269e-08
1.01108e-08
1.02615e-08
1.00553e-08
1.00383e-08
1.01517e-08
1.01834e-08
1.01845e-08
1.02818e-08
1.01758e-08
1.01897e-08
1.01746e-08
1.02467e-08
1.02576e-08
1.01504e-08
1.02013e-08
1.01735e-08
1.03424e-08
1.02377e-08
1.03509e-08
1.02306e-08
1.02183e-08
1.02098e-08
1.0292e-08
1.02549e-08
1.0167e-08
1.02427e-08
1.01335e-08
1.01839e-08
1.01309e-08
1.01403e-08
1.01523e-08
1.02402e-08
1.01397e-08
1.01982e-08
9.988e-09
1.00159e-08
1.00308e-08
1.00403e-08
1.00279e-08
1.00297e-08
1.00408e-08
1.00281e-08
1.00299e-08
1.00233e-08
1.00407e-08
1.00381e-08
1.00333e-08
1.00342e-08
1.00336e-08
1.00297e-08