/*--------------------------------*- C++ -*----------------------------------*\
| =========                 |                                                 |
| \\      /  F ield         | OpenFOAM: The Open Source CFD Toolbox           |
|  \\    /   O peration     | Version:  5.x                                   |
|   \\  /    A nd           | Web:      www.OpenFOAM.org                      |
|    \\/     M anipulation  |                                                 |
\*---------------------------------------------------------------------------*/
FoamFile
{
    version     2.0;
    format      ascii;
    class       surfaceScalarField;
    location    "0.2";
    object      meshPhi;
}
// * * * * * * * * * * * * * * * * * * * * * * * * * * * * * * * * * * * * * //

dimensions      [0 3 -1 0 0 0 0];

internalField   nonuniform List<scalar> 
30582
(
0
0
0
0
0
0
0
0
0
0
0
0
0
0
0
0
0
0
0
0
0
0
0
0
0
0
0
0
0
0
0
0
0
0
0
0
0
0
0
0
0
0
0
0
0
0
0
0
0
0
0
0
0
0
0
0
0
0
0
0
0
0
0
0
0
0
0
0
0
0
0
0
0
0
0
0
0
0
0
0
0
0
0
0
0
0
0
0
0
0
0
0
0
0
0
0
0
0
0
0
0
0
0
0
0
0
0
0
0
0
0
0
0
0
0
0
0
0
0
0
0
0
0
0
0
0
0
0
0
0
0
0
0
0
0
0
0
0
0
0
0
0
0
0
0
0
0
0
0
0
0
0
0
0
0
0
0
0
0
0
0
0
0
0
0
0
0
0
0
0
0
0
0
0
0
0
0
0
0
0
0
0
0
0
0
0
0
0
0
0
0
0
0
0
0
0
0
0
0
0
0
0
0
0
0
0
0
0
0
0
0
0
0
0
0
0
0
0
0
0
0
0
0
0
0
0
0
0
0
0
0
0
0
0
0
0
0
0
0
0
0
0
0
0
0
0
0
0
0
0
0
0
0
0
0
0
0
0
0
0
0
0
0
0
0
0
0
0
0
0
0
0
0
0
0
0
0
0
0
0
0
0
0
0
0
0
0
0
0
0
0
0
0
0
0
0
0
0
0
0
0
0
0
0
0
0
0
0
0
0
0
0
0
0
0
0
0
0
0
0
0
0
0
0
0
0
0
0
0
0
0
0
0
0
0
0
0
0
0
0
0
0
0
0
0
0
0
0
0
0
0
0
0
0
0
0
0
0
0
0
0
0
0
0
0
0
0
0
0
0
0
0
0
0
0
0
0
0
0
0
0
0
0
0
0
0
0
0
0
0
0
0
0
0
0
0
0
0
0
0
0
0
0
0
0
0
0
0
0
0
0
0
0
0
0
0
0
0
0
0
0
0
0
0
0
0
0
0
0
0
0
0
0
0
0
0
0
0
0
0
0
0
0
0
0
0
0
0
0
0
0
0
0
0
0
0
0
0
0
0
0
0
0
0
0
0
0
0
0
0
0
0
0
0
0
0
0
0
0
0
0
0
0
0
0
0
0
0
0
0
0
0
0
0
0
0
0
0
0
0
0
0
0
0
0
0
0
0
0
0
0
0
0
0
0
0
0
0
0
0
0
0
0
0
0
0
0
0
0
0
0
0
0
0
0
0
0
0
0
0
0
0
0
0
0
0
0
0
0
0
0
0
0
0
0
0
0
0
0
0
0
0
0
0
0
0
0
0
0
0
0
0
0
0
0
0
0
0
0
0
0
0
0
0
0
0
0
0
0
0
0
0
0
0
0
0
0
0
0
0
0
0
0
0
0
0
0
0
0
0
0
0
0
0
0
0
0
0
0
0
0
0
0
0
0
0
0
0
0
0
0
0
0
0
0
0
0
0
0
0
0
0
0
0
0
0
0
0
0
0
0
0
0
0
0
0
0
0
0
0
0
0
0
0
0
0
0
0
0
0
0
0
0
0
0
0
0
0
0
0
0
0
0
0
0
0
0
0
0
0
0
0
0
0
0
0
0
0
0
0
0
0
0
0
0
0
0
0
0
0
0
0
0
0
0
0
0
0
0
0
0
0
0
0
0
0
0
0
0
0
0
0
0
0
0
0
0
0
0
0
0
0
0
0
0
0
0
0
0
0
0
0
0
0
0
0
0
0
0
0
0
0
0
0
0
0
0
0
0
0
0
0
0
0
0
0
0
0
0
0
0
0
0
0
0
0
0
0
0
0
0
0
0
0
0
0
0
0
0
0
0
0
0
0
0
0
0
0
0
0
0
0
0
0
0
0
0
0
0
0
0
0
0
0
0
0
0
0
0
0
0
0
0
0
0
0
0
0
0
0
0
0
0
0
0
0
0
0
0
0
0
0
0
0
0
0
0
0
0
0
0
0
0
0
0
0
0
0
0
0
0
0
0
0
0
0
0
0
0
0
0
0
0
0
0
0
0
0
0
0
0
0
0
0
0
0
0
0
0
0
0
0
0
0
0
0
0
0
0
0
0
0
0
0
0
0
0
0
0
0
0
0
0
0
0
0
0
0
0
0
0
0
0
0
0
0
0
0
0
0
0
0
0
0
0
0
0
0
0
0
0
0
0
0
0
0
0
0
0
0
0
0
0
0
0
0
0
0
0
0
0
0
0
0
0
0
0
0
0
0
0
0
0
0
0
0
0
0
0
0
0
0
0
0
0
0
0
0
0
0
0
0
0
0
0
0
0
0
0
0
0
0
0
0
0
0
0
0
0
0
0
0
0
0
0
0
0
0
0
0
0
0
0
0
0
0
0
0
0
0
0
0
0
0
0
0
0
0
0
0
0
0
0
0
0
0
0
0
0
0
0
0
0
0
0
0
0
0
0
0
0
0
0
0
0
0
0
0
0
0
0
0
0
0
0
0
0
0
0
0
0
0
0
0
0
0
0
0
0
0
0
0
0
0
0
0
0
0
0
0
0
0
0
0
0
0
0
0
0
0
0
0
0
0
0
0
0
0
0
0
0
0
0
0
0
0
0
0
0
0
0
0
0
0
0
0
0
0
0
0
0
0
0
0
0
0
0
0
0
0
0
0
0
0
0
0
0
0
0
0
0
0
0
0
0
0
0
0
0
0
0
0
0
0
0
0
0
0
0
0
0
0
0
0
0
0
0
0
0
0
0
0
0
0
0
0
0
0
0
0
0
0
0
0
0
0
0
0
0
0
0
0
0
0
0
0
0
0
0
0
0
0
0
0
0
0
0
0
0
0
0
0
0
0
0
0
0
0
0
0
0
0
0
0
0
0
0
0
0
0
0
0
0
0
0
0
0
0
0
0
0
0
0
0
0
0
0
0
0
0
0
0
0
0
0
0
0
0
0
0
0
0
0
0
0
0
0
0
0
0
0
0
0
0
0
0
0
0
0
0
0
0
0
0
0
0
0
0
0
0
0
0
0
0
0
0
0
0
0
0
0
0
0
0
0
0
0
0
0
0
0
0
0
0
0
0
0
0
0
0
0
0
0
0
0
0
0
0
0
0
0
0
0
0
0
0
0
0
0
0
0
0
0
0
0
0
0
0
0
0
0
0
0
0
0
0
0
0
0
0
0
0
0
0
0
0
0
0
0
0
0
0
0
0
0
0
0
0
0
0
0
0
0
0
0
0
0
0
0
0
0
0
0
0
0
0
0
0
0
0
0
0
0
0
0
0
0
0
0
0
0
0
0
0
0
0
0
0
0
0
0
0
0
0
0
0
0
0
0
0
0
0
0
0
0
0
0
0
0
0
0
0
0
0
0
0
0
0
0
0
0
0
0
0
0
0
0
0
0
0
0
2.5145e-18
-8.86818e-18
3.59819e-25
-2.66013e-17
-1.3298e-17
-1.77448e-17
0
0
0
0
0
0
0
0
0
0
0
0
0
0
0
0
0
0
0
0
0
0
0
0
0
0
0
0
0
0
0
0
0
0
0
0
0
0
-4.42364e-18
-1.39266e-34
6.45276e-19
-1.02526e-25
-2.21475e-17
1.77339e-17
2.47232e-18
-2.66013e-17
4.43292e-18
-2.66092e-17
1.28333e-18
2.81118e-25
4.42985e-17
-3.21104e-34
1.9004e-18
-2.65872e-17
-6.42624e-18
4.43121e-17
0
0
0
0
0
0
0
0
0
0
0
0
0
0
0
0
0
0
0
0
0
0
0
0
0
0
0
0
0
0
0
0
0
0
0
0
0
-7.36932e-19
3.81712e-18
-2.80107e-17
3.11357e-20
5.30097e-17
1.76539e-17
-3.54113e-17
1.16269e-35
1.26459e-18
-1.32886e-17
-1.61443e-33
6.523e-19
-1.79245e-25
-2.20953e-17
0
-7.53075e-17
7.41115e-21
3.54388e-17
1.97959e-35
-6.1963e-19
-2.65872e-17
-6.42624e-18
2.65883e-17
3.99852e-20
-2.8206e-24
2.65191e-17
-2.47508e-34
5.81893e-21
3.53557e-17
0
0
0
0
0
0
0
0
0
0
0
0
0
0
0
0
0
0
0
0
0
0
0
0
0
0
0
0
0
0
0
0
0
0
0
-1.39133e-17
-2.65165e-17
-1.76511e-17
-4.4693e-18
-4.52925e-20
-2.08515e-34
-7.97857e-20
-4.78231e-20
-3.09514e-17
-1.01813e-17
2.44322e-18
1.74364e-17
1.60647e-34
-2.1315e-19
-1.32132e-17
2.38155e-18
1.76191e-17
-9.53574e-35
-6.99029e-20
4.4236e-18
0
-3.79182e-19
-7.70482e-24
-4.6251e-17
6.5965e-17
-4.61731e-17
6.16759e-17
0
0
-1.84127e-18
3.78351e-18
-1.80898e-17
-1.12786e-20
-2.65671e-17
-8.80109e-18
5.30097e-17
7.99704e-20
3.53588e-17
2.01307e-34
8.84472e-18
7.07473e-17
0
3.58569e-24
-7.37873e-17
2.41864e-17
-6.48647e-17
1.54243e-17
0
1.54565e-17
-4.57063e-18
1.1204e-17
-8.84073e-18
1.32847e-17
-8.88675e-18
4.65374e-18
-2.21531e-18
0
0
0
0
0
0
0
0
0
0
0
0
0
0
0
0
0
0
0
0
0
0
0
0
0
0
0
0
0
0
0
0
0
1.22031e-17
-2.21856e-17
1.77108e-17
-1.32957e-17
-8.97595e-18
6.98051e-35
3.81665e-18
-2.64872e-17
-2.41073e-18
3.52377e-17
2.61459e-34
-8.98491e-18
-1.33163e-17
0
3.55906e-17
-5.39837e-34
1.89036e-11
5.08929e-12
1.89087e-09
-7.60438e-14
2.79368e-13
-1.48344e-08
-2.16456e-13
-1.50141e-08
1.31827e-10
-2.51522e-18
1.07436e-19
-2.79794e-18
-2.23721e-19
3.42157e-18
-2.8396e-17
7.74734e-18
-2.84854e-17
-4.07771e-18
-5.73831e-34
-4.11363e-18
-8.77569e-13
-1.46766e-08
1.17116e-14
-2.96203e-08
2.57887e-18
3.27844e-18
-6.81186e-17
1.10814e-18
-3.51607e-17
0
3.43447e-19
-5.72571e-17
6.37701e-17
-5.2773e-17
7.04757e-17
-1.63254e-18
-7.36559e-20
0
1.3849e-18
-1.34026e-16
7.33885e-20
-1.85789e-18
-1.36196e-20
1.10639e-16
0
7.64632e-20
-1.84032e-16
-1.78956e-18
1.538e-16
0
0
3.61902e-17
-4.46943e-18
-8.93988e-18
1.53267e-20
-1.76511e-17
0
-1.26877e-18
-1.15631e-18
-4.40231e-18
6.35936e-18
2.38145e-18
7.21847e-34
0
-1.44406e-22
-1.32236e-17
2.53925e-18
8.79159e-18
7.32058e-20
-7.48819e-17
1.75914e-17
-7.91597e-17
1.3215e-17
0
8.85694e-18
-6.79905e-18
1.33987e-17
-1.3249e-17
8.87807e-18
-1.11034e-17
6.84883e-18
-4.41513e-18
-2.11454e-18
-7.35504e-20
2.69052e-18
-1.85661e-16
1.46512e-19
-8.06039e-19
-4.22152e-21
3.61491e-17
3.6029e-20
-1.63218e-16
-6.01315e-19
5.05359e-17
5.28717e-18
0
0
-1.22694e-16
-2.33427e-25
5.61041e-18
-8.77498e-13
0
-1.24103e-10
1.35846e-16
7.54924e-18
1.46386e-19
-1.56671e-16
-4.89164e-34
1.82469e-18
2.76471e-17
-1.33661e-16
4.38114e-17
0
0
0
0
0
0
0
0
0
0
0
0
0
0
0
0
0
0
0
0
0
0
0
0
0
0
0
0
0
0
0
-4.93271e-18
-1.54154e-20
8.8201e-18
-8.98549e-18
8.94339e-18
2.22923e-35
1.11744e-18
1.33502e-17
-1.24217e-17
3.54245e-17
3.13839e-35
8.69461e-20
-4.40501e-18
-1.0248e-17
1.76631e-17
-9.82337e-26
-4.25818e-09
3.15935e-12
-1.33061e-08
-7.34e-11
-1.45951e-08
-9.30993e-09
1.2112e-17
-5.96749e-17
-1.39074e-12
1.06671e-10
3.41351e-27
4.14929e-09
-3.4699e-10
-1.33891e-09
1.2377e-10
-4.26884e-10
9.07049e-09
1.28104e-12
6.63689e-10
1.13112e-12
-2.17401e-10
-6.26945e-20
1.95652e-18
2.92227e-18
8.95125e-13
2.15207e-19
2.04774e-13
1.30185e-13
1.62377e-18
1.82592e-34
1.58041e-08
-1.17569e-17
6.00575e-20
-4.73898e-13
-3.08671e-17
4.95732e-34
8.34435e-11
2.09535e-17
0
-1.92378e-09
-1.4569e-08
-7.16967e-20
1.28838e-18
5.56859e-18
6.2691e-20
5.61409e-19
6.65247e-19
-2.7026e-18
-7.50132e-20
-7.23345e-18
9.53514e-18
-6.00239e-20
-9.16058e-19
-8.82161e-18
-2.45153e-19
2.97236e-17
-3.88979e-18
-2.88059e-17
0
4.68048e-13
-6.31865e-12
-1.17012e-12
-4.17733e-11
-1.89346e-34
-1.74696e-08
1.84895e-09
6.20463e-20
-1.77451e-17
2.2774e-34
1.43776e-17
6.41067e-20
-6.29775e-19
3.30777e-19
-4.29967e-18
-6.57627e-19
1.57431e-17
-3.7028e-18
-6.20222e-20
-8.80349e-18
1.87793e-17
-1.90881e-18
-7.3656e-20
0
1.78153e-18
-1.32929e-16
1.46777e-19
-2.29216e-18
1.19403e-16
0
-1.78554e-16
-1.36371e-18
1.66992e-16
1.99672e-09
1.47659e-19
0
-1.88158e-09
-2.26711e-11
0
-1.05312e-13
-3.47579e-20
2.80195e-13
0
1.93213e-19
-1.47129e-08
-7.02097e-14
1.46276e-14
0
0
1.22031e-17
-1.33696e-17
8.82655e-18
4.47478e-18
8.79419e-18
-4.15258e-34
-3.66616e-18
-1.2012e-18
-8.92845e-18
2.61146e-18
-9.73189e-20
0
4.95277e-34
-4.45191e-18
0
0
6.59527e-18
-1.63245e-08
3.51037e-12
-1.57443e-08
6.627e-18
-1.86764e-16
-4.7324e-19
3.27378e-18
4.41467e-18
-5.49062e-17
5.49256e-18
-3.51959e-17
0
1.79906e-12
1.30432e-10
-6.43423e-14
1.14233e-12
-1.54618e-08
1.20696e-17
-1.05475e-16
2.05632e-09
4.75133e-19
-1.6368e-18
-2.90476e-20
-1.94573e-19
-3.75975e-17
4.4137e-18
-4.39805e-17
-3.08331e-18
-2.63697e-18
-2.49536e-33
2.0896e-18
-1.84562e-16
-7.32572e-20
-7.91036e-19
4.05304e-17
-1.68695e-16
-2.42467e-19
6.37242e-17
5.4418e-18
7.32968e-20
0
-1.18311e-16
-7.29183e-20
5.67249e-18
-4.79657e-13
0
-1.49846e-08
1.44635e-16
7.20925e-18
7.31919e-20
-1.66518e-16
-1.45502e-19
2.09299e-18
2.98079e-17
-1.30448e-16
4.38115e-17
-1.36487e-18
4.30469e-33
4.06298e-18
-2.85875e-17
-7.27458e-20
-6.5878e-19
-1.07347e-20
5.48758e-22
9.11658e-20
-4.3599e-17
-7.21233e-19
7.69641e-18
1.4658e-19
0
1.46664e-08
1.41881e-13
1.46533e-19
-1.94662e-17
-1.09488e-18
0
0
0
0
0
0
0
0
0
0
0
0
0
0
0
0
0
0
0
0
0
0
0
0
0
0
0
0
0
1.51328e-17
-2.22048e-17
2.07345e-20
4.41465e-18
4.19635e-20
7.91817e-34
2.20604e-18
-1.7621e-17
-1.99913e-17
1.75736e-17
1.2155e-33
-5.26789e-18
1.77713e-17
-5.26952e-18
1.7416e-17
3.50411e-26
4.06684e-09
-1.42704e-10
1.50166e-08
3.64575e-09
1.50209e-08
8.89157e-09
-8.27613e-13
2.77702e-10
7.31335e-13
-7.28231e-09
1.06758e-26
-6.02137e-11
3.76423e-09
-1.50807e-08
3.69756e-09
-1.49441e-08
-1.27883e-10
-3.62e-13
-7.53907e-09
-6.76465e-13
-7.38898e-09
6.66315e-20
-5.67508e-12
1.17011e-12
-1.81699e-08
1.78716e-35
1.84747e-09
6.90373e-20
4.6351e-09
-3.49229e-17
-1.36696e-26
1.6467e-12
2.93611e-17
0
1.58314e-18
-4.51728e-18
2.70204e-18
1.15866e-17
1.37905e-19
-1.74908e-12
-1.30779e-17
-9.2691e-09
4.56868e-17
1.77489e-24
6.31866e-12
-4.39009e-09
-4.92905e-18
1.80597e-08
-1.35631e-26
-1.63936e-12
-1.07242e-17
-7.08542e-20
-2.66276e-17
1.28604e-26
2.11165e-17
-1.39511e-19
1.44245e-18
1.63939e-12
-2.36655e-18
-1.13068e-17
8.77887e-09
9.77249e-19
0
-8.88718e-18
3.89079e-17
5.35716e-20
-4.09542e-13
3.55079e-25
5.02043e-18
-5.26626e-18
2.32547e-34
-2.13084e-34
-2.50043e-09
2.21495e-24
-5.85043e-14
7.36945e-34
7.9126e-09
5.35542e-20
1.865e-19
2.2906e-34
1.27115e-18
9.82371e-19
-6.00347e-18
2.49997e-20
7.25143e-19
-1.8966e-18
-6.91601e-20
-1.17311e-18
1.1452e-19
1.56952e-18
2.25573e-35
-4.81787e-18
-3.25318e-20
5.80325e-34
3.45808e-20
-6.27182e-19
7.08455e-19
2.63231e-18
2.0873e-18
3.25278e-20
-7.35304e-11
0
0
-1.94434e-09
1.48485e-08
7.27831e-20
-1.68591e-18
-1.23312e-14
0
1.47264e-08
-2.92555e-14
1.3896e-13
1.09875e-09
-4.04041e-20
-6.60742e-34
-1.23634e-09
-3.82539e-20
1.05311e-13
-1.11303e-20
-3.31679e-34
6.15807e-20
7.0207e-14
0
0
-5.14029e-18
-8.94187e-18
1.29932e-32
8.83486e-18
8.85046e-18
-1.28414e-35
-7.61899e-18
3.50029e-19
-4.38389e-18
1.23371e-17
-1.0425e-17
5.30335e-17
-1.12204e-35
-4.36178e-18
3.53651e-17
-1.4969e-26
4.25813e-09
4.14934e-09
-3.50909e-10
-1.65515e-08
1.26835e-10
-1.54248e-08
9.31003e-09
9.07049e-09
1.32858e-12
6.63667e-10
1.12869e-12
-2.17423e-10
4.30753e-25
1.08239e-12
-2.92704e-08
-7.31959e-11
-1.45952e-08
5.5141e-18
-6.8194e-17
-1.39561e-12
1.06627e-10
1.28287e-19
1.25848e-19
6.27477e-12
4.09527e-13
-1.13357e-17
0
1.74693e-08
1.45222e-08
0
-5.74037e-19
-2.42643e-17
0
-6.68352e-18
1.32942e-17
6.40977e-20
-1.57424e-19
-2.66726e-19
-3.41124e-20
-1.23814e-18
8.00498e-18
-7.59244e-18
0
-1.59891e-19
-6.59778e-18
-1.24209e-18
2.54163e-17
3.98837e-24
2.88325e-18
5.99689e-13
8.95126e-13
-7.17337e-20
-1.34561e-13
-2.20853e-13
1.4863e-18
0
1.5804e-08
3.2235e-09
0
-2.40929e-17
0
1.53567e-17
0
2.26598e-10
-3.0414e-08
6.26907e-20
1.6444e-18
3.10075e-19
-4.65028e-18
0
1.46092e-18
3.39549e-18
-7.50286e-19
9.45971e-18
-6.48017e-18
0
-1.09887e-17
2.74544e-17
-4.00718e-18
-2.87116e-17
-2.35794e-18
0
4.26785e-18
-3.07799e-17
-7.27435e-20
-5.3726e-19
2.18029e-18
-2.83447e-17
-4.56144e-19
1.00514e-21
0
0
-1.47654e-08
-3.6419e-13
7.32674e-20
-2.59426e-17
3.24733e-18
3.8364e-19
0
5.41698e-19
3.82322e-20
-9.47299e-20
-3.42654e-21
2.90667e-20
-6.16909e-20
4.36469e-20
-3.65404e-34
-4.36309e-20
0
0
0
0
0
0
0
0
0
0
0
0
0
0
0
0
0
0
0
0
0
0
0
0
0
0
0
0
-6.65145e-17
-7.33653e-34
-7.71008e-18
8.90103e-18
-2.49275e-17
8.76224e-18
-3.32972e-33
-7.42417e-18
-4.38054e-18
1.51265e-17
2.65666e-17
4.36141e-25
5.21612e-18
-3.49233e-09
-2.50229e-17
-7.64289e-09
5.49924e-34
1.25475e-17
-2.21005e-17
-2.59444e-17
4.42019e-17
1.35694e-19
2.22321e-12
5.71135e-17
2.35223e-10
0
-6.19992e-17
6.88476e-20
-4.45033e-09
8.59491e-17
0
-2.23053e-12
-7.1618e-17
-1.35581e-19
-6.27909e-18
1.75955e-17
3.23156e-17
-6.35286e-17
0
1.49921e-12
2.42534e-17
8.89778e-09
-9.58542e-17
-4.24243e-25
2.98384e-12
9.49607e-11
-2.28165e-12
4.08738e-10
0
-4.06427e-10
-1.50829e-08
0
1.05563e-16
0
-8.80049e-17
0
9.71767e-18
-4.97306e-13
2.09016e-17
-4.79131e-17
-2.01473e-10
-1.12621e-16
-8.73844e-26
2.85439e-17
-1.24294e-16
-7.48208e-20
-2.92527e-13
-3.99596e-11
1.20342e-34
0
-2.92524e-13
5.34959e-34
9.58987e-11
-3.74269e-20
7.65e-19
-1.58038e-18
4.23004e-20
1.8426e-18
-4.23598e-18
-6.684e-20
7.40846e-18
-1.57272e-18
-9.05482e-18
-1.87516e-17
4.78414e-35
2.28905e-17
-3.71673e-17
5.44803e-20
6.40038e-34
1.33687e-19
1.38617e-18
-9.34843e-19
3.65676e-18
-1.03795e-17
3.05411e-18
3.70998e-17
0
-7.46142e-11
8.08086e-20
-4.78385e-34
-1.0735e-09
-3.82557e-20
6.28939e-14
-1.8798e-34
2.92527e-14
0
0
-2.49774e-17
4.425e-18
8.88912e-18
1.32647e-17
-1.77503e-17
8.16665e-35
-2.20604e-18
-1.02768e-17
8.15193e-20
1.50587e-17
6.06351e-32
3.53244e-17
5.56035e-34
-8.73862e-18
3.52905e-17
-4.73797e-27
-4.06703e-09
1.41242e-17
5.11198e-12
1.5081e-08
3.69024e-09
1.49454e-08
-8.89177e-09
-1.75556e-17
6.59292e-18
-4.40643e-17
-6.43559e-13
-7.38913e-09
-3.50411e-26
-1.42532e-10
1.50165e-08
3.64595e-09
1.5021e-08
-8.31266e-13
2.77669e-10
7.31336e-13
-7.28231e-09
6.98332e-20
8.07384e-12
-4.39002e-09
-2.79812e-18
1.83498e-08
0
-1.63936e-12
-1.28222e-17
1.417e-19
-4.63493e-09
-3.33084e-17
0
-1.59672e-12
1.89627e-17
-6.9756e-20
1.46367e-18
1.63939e-12
-6.96553e-18
-1.4313e-17
8.77887e-09
-3.45337e-18
-7.0783e-20
1.69911e-12
-1.56375e-17
9.2691e-09
2.7969e-17
9.47068e-25
-5.90911e-12
-4.0955e-13
-1.81699e-08
0
1.45663e-08
-6.90318e-20
-3.92913e-17
0
2.18724e-17
-6.6589e-20
-3.86191e-19
2.01963e-18
3.12643e-18
-3.23432e-18
0
-1.09788e-17
3.27516e-17
-3.45651e-20
-5.8507e-14
-1.91607e-12
8.95895e-09
0
-9.57014e-09
0
1.34562e-13
0
-7.08191e-09
2.64565e-33
8.36634e-20
9.57854e-21
8.42252e-19
1.04386e-18
0
-5.15985e-19
2.20351e-18
5.35752e-20
-1.24325e-13
3.5508e-25
4.96942e-18
-4.3951e-18
0
-2.65809e-34
-1.29413e-09
2.49742e-20
0
0
-1.12392e-19
2.34393e-34
1.64094e-18
-3.78503e-18
7.83578e-19
0
-7.24641e-19
0
1.18557e-18
3.8234e-20
1.11218e-20
5.09876e-20
0
-3.4878e-34
0
0
0
0
0
0
0
0
0
0
0
0
0
0
0
0
0
0
0
0
0
0
0
0
0
0
0
0
-2.62856e-18
0
1.97518e-17
1.77429e-17
3.5452e-17
7.04779e-22
1.77308e-17
2.61863e-33
2.57873e-18
-4.45911e-18
-9.38937e-18
2.63599e-17
1.85303e-33
-8.87965e-18
3.53959e-17
0
2.52669e-18
9.36104e-13
4.24271e-10
-1.33347e-17
1.31441e-17
-3.08189e-17
6.55831e-18
1.02893e-18
4.52198e-18
-1.86032e-17
-1.55014e-17
5.4884e-18
-2.1918e-17
2.98451e-20
0
-1.06734e-18
-3.21097e-18
1.55466e-17
-7.62533e-18
1.7672e-17
-1.25185e-17
-9.90228e-18
-6.68123e-18
-1.87443e-17
0
1.28661e-19
-1.28314e-17
9.68685e-18
1.29516e-17
0
-2.38026e-17
-4.51302e-33
-1.89214e-17
1.52668e-17
0
1.52352e-17
-1.30428e-17
0
-3.00132e-18
-1.08922e-18
1.68902e-17
-1.1802e-17
-6.78473e-20
-6.35343e-18
2.10856e-18
1.82014e-17
-2.08148e-17
7.10453e-20
2.86569e-17
1.53439e-17
-2.35697e-17
0
-2.45136e-17
1.41678e-19
1.74423e-17
0
-5.42433e-18
7.10034e-20
9.41067e-18
3.26279e-18
-3.16444e-17
-2.39069e-17
-7.08135e-20
8.72577e-18
-1.52072e-17
1.57643e-33
7.69134e-19
2.65358e-35
5.18336e-18
-7.19887e-34
-1.45857e-18
-2.9977e-18
0
0
0
-6.65284e-17
1.42206e-33
1.0465e-19
-2.35972e-18
4.45787e-18
9.71675e-18
2.01222e-17
1.77802e-17
8.74466e-34
9.24266e-20
3.5374e-17
-6.65469e-36
-1.75842e-19
1.27174e-17
-2.21004e-17
1.52957e-17
-2.52653e-17
8.57897e-18
3.58524e-35
1.44247e-17
2.19633e-18
1.40312e-19
-2.98378e-12
5.81403e-12
2.28182e-12
-4.08738e-10
0
4.06924e-10
1.50829e-08
6.98045e-20
4.45024e-09
1.21036e-16
0
2.24516e-12
-9.02158e-17
0
1.02073e-17
-4.41166e-18
2.5405e-17
-4.70358e-17
1.50982e-17
-1.16045e-16
1.39476e-19
-1.49921e-12
3.29919e-17
-8.89754e-09
-1.30917e-16
-6.7847e-20
2.39872e-12
5.71114e-17
2.3567e-10
0
-6.30792e-17
6.88504e-20
8.81562e-17
0
-7.49281e-17
5.23687e-25
-8.49146e-18
1.3144e-17
3.29672e-17
-6.13296e-17
-1.37539e-19
1.98472e-17
-1.05775e-16
0
8.01872e-18
-3.2846e-19
-1.12653e-17
-1.99904e-17
0
2.25181e-17
4.57156e-17
0
2.92524e-13
0
-9.58987e-11
2.65238e-33
1.3862e-18
-3.25254e-19
2.36243e-18
-1.46434e-17
5.49277e-18
3.01594e-17
0
-1.8426e-18
4.23598e-18
-5.61767e-25
-2.92527e-13
-3.99596e-11
0
4.22754e-20
0
3.35783e-33
1.14157e-18
-7.91609e-19
2.20827e-35
0
0
0
0
0
0
0
0
0
0
0
0
0
0
0
0
0
0
0
0
0
0
0
0
0
0
1.3347e-17
-4.71096e-33
-1.01943e-17
-1.47101e-17
-4.36716e-18
-1.43947e-17
1.5177e-17
4.43214e-17
-6.65945e-33
1.78112e-17
4.42605e-18
0
2.66113e-17
-3.63426e-25
-2.50125e-18
-3.73552e-09
2.99845e-13
-5.02237e-12
-3.79714e-09
-5.00335e-18
-2.99841e-13
7.47105e-09
7.57224e-09
-7.49608e-13
-1.744e-33
-4.57363e-18
8.6011e-18
2.70917e-18
1.21318e-33
0
-8.86455e-18
1.43677e-17
0
6.54372e-18
-1.9307e-12
-6.43576e-13
0
-1.68735e-08
-1.5056e-08
1.01007e-17
-1.77077e-17
5.35418e-18
-1.3619e-19
-8.76336e-18
1.88047e-17
0
1.33301e-18
-6.24188e-18
-2.27934e-18
-1.2442e-18
2.3095e-17
6.51746e-18
-2.22788e-18
1.75516e-17
-6.89705e-20
0
-6.61439e-18
0
1.73392e-17
8.3956e-12
2.39879e-12
0
6.30271e-10
1.48217e-08
1.08998e-17
2.37135e-17
0
-1.64923e-17
-6.88905e-20
4.96192e-18
-3.94563e-18
6.60435e-18
1.86326e-17
-6.05054e-17
2.37892e-18
-2.71121e-20
5.90619e-18
-4.27442e-18
0
4.01181e-20
9.19613e-19
0
-6.90605e-19
2.71355e-20
2.00463e-18
-5.69957e-18
-4.01443e-20
4.98528e-21
-2.05448e-18
0
7.60582e-13
-2.34032e-13
-1.54124e-08
0
-3.11928e-08
0
0
-6.86782e-20
5.20762e-19
1.33029e-18
-7.13467e-18
2.66956e-17
5.32084e-20
0
0
0
0
2.56109e-18
5.12218e-18
2.00317e-17
8.91855e-18
6.22219e-17
-4.44429e-18
2.66319e-17
-1.67384e-33
-2.42487e-18
1.33338e-17
1.97032e-17
2.65466e-17
-1.6961e-33
-2.20585e-17
4.42728e-17
0
-2.26843e-18
-2.69664e-18
-1.32159e-17
1.88771e-17
-1.66145e-17
1.77154e-17
0
-3.02668e-17
-2.20814e-17
1.00138e-17
-1.99294e-17
6.66219e-18
0
2.44264e-12
1.75205e-08
-8.81694e-18
4.09544e-12
-8.3276e-11
6.65302e-18
1.8357e-18
-2.24619e-17
-4.40871e-18
4.38974e-18
-2.40887e-17
6.62072e-18
-3.90072e-24
2.52112e-17
-4.0954e-12
-2.05159e-17
0
-1.11815e-09
-7.08419e-20
1.96084e-17
2.84346e-17
0
-1.39366e-17
-1.30752e-17
0
8.46252e-18
6.73173e-18
-3.06495e-17
-2.85046e-17
-7.08205e-20
3.75653e-18
8.73502e-18
-2.07298e-17
-1.85538e-17
6.43308e-20
-1.29428e-17
-1.14218e-18
1.26987e-17
0
4.80775e-17
1.3575e-19
1.09573e-17
0
-2.10819e-18
6.43095e-20
-3.64468e-18
8.71268e-18
1.76568e-17
4.4929e-18
6.78484e-20
8.52582e-18
-7.74839e-18
-9.05316e-33
-1.17286e-18
0
-7.69516e-18
-4.44091e-34
-8.50908e-19
-8.10266e-19
0
0
0
0
0
0
0
0
0
0
0
0
0
0
0
0
0
0
0
0
0
0
0
0
-4.64003e-18
0
2.5123e-17
-1.77131e-17
2.66596e-17
1.32052e-17
1.76618e-17
1.34793e-24
-4.24956e-09
4.05346e-09
-3.64913e-09
-4.86466e-13
3.99779e-09
2.64483e-12
-9.27204e-09
8.86438e-09
4.86333e-13
7.29867e-09
-2.64495e-12
-7.99634e-09
-4.24439e-24
-3.5895e-09
-7.83204e-09
2.06439e-24
-1.62711e-10
-2.39867e-12
-1.18838e-12
9.89401e-26
1.49167e-08
0
2.11977e-25
-1.83805e-08
-3.9836e-10
6.96221e-12
-6.96213e-12
6.99746e-20
7.49598e-13
2.64906e-17
3.24237e-10
-1.03749e-16
-7.12481e-20
2.51783e-17
-1.19235e-16
-1.77242e-18
2.98647e-17
2.78027e-26
1.83455e-08
4.44647e-12
-3.58105e-09
6.98367e-13
1.85584e-17
-1.14904e-16
-3.23548e-17
5.43202e-18
-6.98415e-13
7.16207e-09
6.56405e-18
-3.72235e-17
1.14395e-08
5.10474e-20
0
1.24061e-09
-6.30202e-20
-1.17006e-13
1.60885e-13
0
-1.79554e-08
3.5104e-13
8.54519e-18
5.10587e-20
2.8848e-18
-3.15311e-20
-8.64296e-22
-2.33929e-18
1.09311e-17
5.24641e-18
-1.71438e-08
6.77129e-20
0
1.60749e-08
-1.49059e-24
-1.22861e-12
-1.97459e-12
-4.68049e-13
0
-1.75815e-08
2.37821e-09
-1.90145e-13
1.87268e-17
6.77276e-20
9.63683e-18
0
3.73311e-18
-3.07956e-18
-9.73161e-19
2.83267e-17
1.06584e-18
-4.7891e-18
1.91253e-24
0
-6.8586e-34
0
0
0
0
0
1.3347e-17
5.27224e-33
2.55709e-19
-7.52889e-18
-1.33314e-17
1.45654e-17
0
2.66115e-17
1.53311e-33
-2.14086e-18
-4.47015e-17
1.49434e-17
2.65278e-17
7.34396e-34
-2.50346e-18
-1.76982e-17
9.49364e-18
1.78688e-17
6.64159e-25
-3.75251e-09
1.09942e-12
-1.73659e-11
-3.94117e-09
-1.09942e-12
7.50613e-09
7.80747e-09
-2.19885e-12
1.61389e-17
1.37942e-19
0
6.87308e-18
-1.20877e-17
-6.8973e-20
1.83267e-17
-1.92363e-11
-5.85056e-12
0
-1.82117e-08
8.0102e-11
-1.02424e-17
1.10423e-17
2.31112e-17
0
8.86593e-18
-7.5666e-18
-1.98439e-34
2.08611e-18
-3.04338e-18
1.75779e-17
1.10129e-17
-6.15732e-17
-2.4557e-18
4.33169e-18
1.91754e-18
-6.81797e-20
0
2.20602e-17
3.97735e-24
2.97762e-32
5.26555e-12
1.46264e-12
0
3.38651e-08
4.41172e-10
-1.98883e-17
2.54221e-18
6.80954e-20
2.97913e-17
0
-1.20905e-18
6.2143e-19
3.31137e-18
-1.50352e-17
2.17199e-17
-1.10346e-17
6.86695e-20
5.85065e-13
-2.44263e-12
1.34931e-09
0
-1.74875e-08
-1.06397e-19
-3.51034e-13
0
-1.22698e-08
2.37976e-33
2.60068e-18
-5.00591e-18
-6.5333e-18
2.73274e-17
5.32077e-20
4.53135e-19
-1.36649e-18
2.71085e-20
6.41405e-18
-3.1487e-18
0
-6.88581e-25
0
-5.42672e-20
1.44227e-18
-5.88298e-18
4.01347e-20
0
0
0
0
0
0
0
0
0
0
0
0
0
0
0
0
0
0
0
0
-1.51749e-17
2.8148e-22
8.98822e-18
-8.96811e-18
8.83357e-18
1.17306e-33
1.25191e-17
-1.26256e-17
-2.00658e-21
-1.46898e-17
0
1.77655e-17
1.78362e-33
-1.09661e-19
-1.34918e-17
2.19633e-19
3.69725e-17
-6.97141e-20
-4.1447e-17
-4.32443e-09
6.35347e-17
9.98926e-17
0
-8.88627e-13
-9.53294e-17
7.04808e-20
4.7391e-09
9.00454e-17
0
5.76043e-12
-8.02597e-17
0
-1.51485e-17
8.88563e-13
1.73553e-17
6.93147e-17
8.64798e-09
-8.33812e-17
-1.4073e-19
-4.5976e-12
2.41226e-17
-9.47265e-09
-1.11046e-16
0
4.69897e-17
-3.62949e-17
-2.18805e-18
-2.63096e-17
1.98809e-17
2.19049e-18
1.35994e-17
-5.37229e-17
-7.66067e-18
-2.0242e-18
3.29996e-17
-2.19189e-18
-1.41151e-19
1.05307e-12
1.21636e-18
1.88225e-08
-4.57992e-33
-1.0287e-17
-7.23575e-20
-9.15146e-33
8.75308e-10
3.56888e-12
0
-1.32101e-17
3.27978e-18
4.22088e-17
-7.14557e-18
1.44668e-19
-1.72758e-17
1.96624e-18
7.03695e-20
1.32456e-17
1.74399e-17
-2.44004e-17
0
-5.96955e-17
1.13892e-32
-5.72949e-19
-4.39364e-18
0
-1.35708e-17
1.04911e-18
-9.14202e-25
4.26194e-18
2.23022e-18
-2.12192e-17
-3.97921e-17
0
2.66029e-19
-8.88588e-18
-7.70885e-19
1.09828e-18
-2.75191e-09
-1.30755e-24
0
0
-4.38789e-14
-3.15933e-12
0
-2.38154e-08
-4.07497e-19
1.01706e-33
0
-1.06627e-18
-9.18206e-19
7.26265e-18
0
0
0
0
0
0
-1.50361e-17
0
-5.55408e-17
4.12878e-18
9.24375e-18
8.76748e-18
1.78034e-17
1.66288e-24
4.13274e-09
-7.09013e-11
9.02488e-09
-1.39936e-10
-2.04849e-24
-1.39908e-10
-3.77526e-09
-5.52439e-10
1.56499e-10
-7.24489e-10
-3.00216e-10
-4.61944e-13
7.57888e-09
-1.74176e-12
-3.56148e-10
-5.17671e-27
-1.76635e-08
4.56348e-12
-3.87851e-09
-1.64995e-08
-3.52497e-12
-1.6032e-08
1.47729e-12
7.65324e-10
-2.24626e-17
-5.5591e-20
8.67843e-13
7.70059e-09
1.16858e-18
-4.38407e-17
1.13341e-18
-2.89668e-17
-7.00357e-20
-4.72895e-09
5.85067e-12
-4.29773e-12
1.28303e-25
-5.85802e-12
-1.34977e-24
6.48079e-26
-1.46988e-08
4.56355e-12
-1.3995e-19
2.19884e-12
2.42832e-17
9.45136e-09
-1.01543e-16
0
-1.10396e-16
2.76428e-17
1.71442e-08
-6.77102e-20
0
-1.53393e-08
-1.59929e-08
-6.64505e-20
6.43575e-13
-7.95683e-12
-1.70751e-18
0
-3.6506e-08
-3.57002e-17
5.26549e-13
2.77899e-13
1.41535e-17
-6.77239e-20
-2.48493e-18
2.43424e-18
0
3.66093e-18
-4.80961e-18
4.37968e-18
1.62707e-17
-4.42382e-18
-2.66692e-18
1.19001e-18
-1.11246e-08
5.10439e-20
0
3.15106e-20
-1.17007e-13
1.79906e-12
0
4.63408e-09
8.04682e-18
-5.10536e-20
0
-7.06694e-20
-4.29911e-19
6.48237e-18
-3.00993e-24
0
-4.61559e-34
0
0
0
0
0
0
0
0
0
0
0
0
0
0
0
0
0
-1.7882e-17
4.30311e-35
1.01605e-17
5.07274e-18
1.56517e-19
1.81027e-17
-1.23777e-34
-3.18472e-19
1.37247e-19
-1.01602e-17
2.68929e-17
9.11893e-25
4.09027e-09
-1.3822e-11
-1.72202e-08
1.87219e-12
-2.12084e-12
3.08874e-08
-1.37626e-10
1.52189e-08
-1.69878e-08
8.94806e-09
5.63589e-20
-9.95352e-18
-4.73091e-22
1.07166e-18
-3.77108e-18
4.42956e-18
1.15793e-12
2.94223e-10
-2.68355e-24
4.19798e-09
-4.16093e-09
-1.56628e-08
-1.59882e-10
-1.5357e-08
9.16055e-09
3.28731e-12
8.28862e-09
-4.3026e-13
3.31652e-10
-1.36886e-19
-4.12841e-17
3.33485e-12
8.77592e-13
3.97328e-17
0
1.7474e-08
3.25074e-11
7.00901e-20
3.06078e-17
0
-2.83647e-17
-1.36838e-19
-1.53649e-17
3.77777e-18
-3.29243e-18
4.59962e-17
-4.69978e-18
-3.29795e-18
7.0051e-20
-2.35066e-18
-4.37956e-17
-1.83239e-17
2.34869e-34
0
-7.13512e-18
2.30258e-17
0
-2.5722e-17
1.17011e-12
0
-1.45403e-08
4.45684e-19
-2.86009e-17
-2.96053e-17
0
-6.24217e-18
2.7456e-17
0
-9.58645e-18
-1.46134e-17
-2.11823e-18
-9.55387e-20
-1.53332e-17
0
-1.05312e-12
1.72539e-08
0
1.41626e-19
0
1.20532e-17
-3.38076e-17
-5.24455e-20
9.2886e-19
2.20634e-17
9.09927e-34
3.2799e-17
-1.44069e-17
-6.74138e-20
2.34031e-13
-1.38952e-12
9.73182e-10
0
-1.55382e-08
-4.39893e-20
3.51027e-13
0
9.88767e-09
-6.73998e-20
-1.44098e-19
-5.90571e-18
-1.44406e-17
1.87118e-17
-4.39819e-20
-2.29211e-18
1.5682e-17
0
0
0
0
0
0
-5.55841e-17
-8.96811e-18
-1.78033e-17
1.77956e-17
8.98822e-18
-5.68453e-34
-1.25194e-17
-9.92417e-18
-2.26284e-17
3.5664e-17
-8.87025e-32
1.74202e-17
6.38354e-35
2.88442e-18
1.65841e-21
0
-9.52926e-19
0
-4.54081e-09
-3.64324e-12
-6.57077e-18
-3.34366e-17
2.90396e-17
-4.38251e-18
-4.12746e-17
4.43089e-17
2.94847e-12
9.07829e-09
-1.09264e-18
-1.10338e-17
3.99314e-17
-6.57227e-18
-5.21289e-17
1.61527e-17
6.97176e-20
-9.244e-12
1.55069e-10
5.47265e-17
-1.79039e-08
0
9.99489e-13
-1.18059e-16
-7.04808e-20
9.22142e-17
0
-7.69348e-17
-4.56135e-25
-1.61925e-17
-9.99475e-13
2.19462e-17
7.7585e-17
-3.09438e-10
-6.88965e-17
-7.0365e-20
3.30757e-17
-1.07622e-16
1.40742e-19
8.89291e-12
1.58411e-17
1.8298e-08
0
-9.35183e-17
0
-6.42654e-18
4.50496e-12
0
2.03245e-18
1.77382e-08
1.48696e-25
-1.4041e-12
-2.38411e-12
5.01143e-33
9.11195e-10
-1.61195e-08
-7.02724e-20
5.82186e-19
2.60448e-22
-1.06946e-17
-3.58855e-17
6.86817e-20
3.27209e-20
-1.42574e-18
-1.4269e-18
-1.8545e-18
1.6099e-33
1.16169e-17
5.54423e-18
-4.82121e-17
-2.63664e-17
7.05686e-20
-1.59428e-12
2.26111e-33
-1.41132e-08
7.05536e-20
4.42836e-18
-6.89266e-18
7.76456e-09
3.28067e-25
0
-3.17443e-20
-5.85074e-14
5.70433e-13
0
-1.17473e-10
-2.75303e-09
-1.86874e-24
3.17569e-20
6.72818e-13
8.544e-19
-2.46927e-18
0
0
0
0
0
0
0
0
0
0
0
0
0
0
-2.50745e-17
-1.30646e-18
-5.53273e-17
1.26571e-19
2.65097e-17
4.06841e-18
-1.85925e-19
2.98517e-25
1.5135e-17
3.71779e-09
-2.08099e-17
8.1114e-09
5.71955e-34
-1.76103e-17
1.74407e-17
-5.64588e-20
1.93071e-12
1.50653e-12
-2.06913e-17
-6.99799e-20
1.17003e-13
2.61814e-12
-1.23843e-10
0
-1.17829e-08
1.37407e-08
-6.49873e-20
-4.43344e-09
-3.26458e-17
0
-1.09212e-12
3.44861e-17
0
-1.70574e-08
1.75936e-08
-2.09928e-19
4.65169e-19
-2.64384e-18
5.64614e-20
7.40029e-18
6.53372e-19
-1.06948e-17
6.21786e-18
2.41086e-17
-6.22197e-18
8.11905e-18
2.03799e-17
6.49148e-20
1.09943e-12
-1.93987e-17
8.86634e-09
4.12205e-17
-7.08552e-20
5.20707e-12
-4.59254e-09
3.14893e-17
6.61849e-10
0
-3.46275e-12
-3.27452e-17
7.0081e-20
6.66367e-18
0
9.75023e-19
1.41475e-19
6.03225e-18
3.46282e-12
7.5156e-18
-5.21566e-17
9.18343e-09
-4.27639e-17
1.40062e-19
-2.53158e-18
-1.75481e-19
-4.35026e-20
-1.99873e-17
9.79974e-13
1.45949e-17
0
7.42267e-09
-1.34269e-19
-2.05481e-17
0
2.07315e-17
0
-6.59362e-18
-2.2271e-18
2.40943e-17
6.34882e-18
-6.71484e-20
-7.01393e-18
2.98359e-17
0
0
3.33967e-17
-1.11303e-17
-1.00417e-33
1.15434e-17
-4.91925e-18
4.5519e-26
0
1.69421e-35
-3.32004e-24
0
-5.55257e-34
0
0
0
0
0
0
0
-1.7507e-17
-1.11805e-34
-1.01605e-17
-1.01568e-17
-1.77909e-17
-1.56517e-19
-1.01602e-17
1.79286e-17
2.38837e-34
-3.97883e-18
1.81027e-17
5.93381e-25
5.14121e-18
4.19791e-09
-4.16052e-09
-1.56622e-08
6.521e-12
-1.5358e-08
1.70699e-17
9.16055e-09
3.17762e-12
8.28853e-09
-1.7092e-19
-2.84807e-17
5.74598e-34
5.61647e-18
-1.02768e-17
-2.19396e-13
2.34024e-12
1.44801e-08
1.02069e-11
1.52198e-08
1.69881e-08
1.70952e-18
-6.07385e-18
-2.49749e-18
1.81705e-18
2.64115e-18
1.01807e-18
-4.32938e-18
-1.12453e-17
-2.5238e-17
6.76299e-20
0
1.87311e-17
-6.89443e-18
-7.16221e-20
-3.06946e-17
-1.25666e-17
0
-4.54783e-17
-3.05926e-17
9.71109e-18
0
0
-3.71132e-17
-2.83647e-17
4.38437e-17
3.06707e-17
-3.25761e-17
7.76111e-34
2.74306e-17
-8.01444e-18
-7.14285e-20
-1.22535e-17
1.24884e-18
2.2907e-18
-1.09272e-17
8.87992e-18
-1.40102e-19
-5.28608e-17
-4.14749e-17
8.7907e-18
2.03994e-18
0
5.09231e-18
1.11466e-18
0
1.60828e-17
-6.80177e-17
1.3684e-19
1.00342e-19
1.10163e-18
-6.74003e-20
1.42663e-17
-6.74101e-20
4.09537e-13
-8.19088e-13
9.72648e-10
0
-1.58146e-08
4.39774e-20
1.75511e-13
0
2.82292e-12
6.43547e-13
0
9.88453e-09
0
1.72546e-08
1.59126e-08
-6.74042e-20
2.40745e-18
-3.45321e-18
-3.46615e-18
3.28017e-17
-8.79816e-20
-2.56219e-18
7.07868e-20
4.99108e-18
-1.28047e-18
8.2233e-18
-1.63676e-17
2.05349e-17
5.24535e-20
0
5.24479e-20
0
0
0
0
0
0
0
0
0
0
0
-2.25881e-17
2.66076e-34
-1.53781e-19
-4.98475e-18
-1.8062e-17
-6.16784e-19
3.89904e-17
8.29539e-18
-5.44436e-34
-2.58182e-17
-1.81787e-17
-1.9919e-17
4.5222e-17
0
3.03059e-17
1.98922e-12
3.62832e-10
-1.20605e-17
2.63279e-12
-1.5273e-08
2.63515e-17
-2.07456e-17
4.95354e-18
-3.98912e-17
-2.18576e-17
1.31739e-17
-3.03911e-17
8.69269e-18
0
-4.40003e-18
2.63916e-17
-5.76641e-24
8.42305e-25
9.95636e-18
-3.30203e-17
0
0
0