/*--------------------------------*- C++ -*----------------------------------*\
| =========                 |                                                 |
| \\      /  F ield         | OpenFOAM: The Open Source CFD Toolbox           |
|  \\    /   O peration     | Version:  5.x                                   |
|   \\  /    A nd           | Web:      www.OpenFOAM.org                      |
|    \\/     M anipulation  |                                                 |
\*---------------------------------------------------------------------------*/
FoamFile
{
    version     2.0;
    format      ascii;
    class       volScalarField;
    location    "0.2";
    object      nut;
}
// * * * * * * * * * * * * * * * * * * * * * * * * * * * * * * * * * * * * * //

dimensions      [0 2 -1 0 0 0 0];

internalField   nonuniform List<scalar> 
12160
(
1.21915e-09
1.30281e-09
1.08789e-08
2.13503e-09
7.4615e-09
1.16303e-08
2.25936e-09
7.43131e-09
8.1537e-09
8.35244e-09
3.65073e-09
1.13184e-08
7.85781e-09
6.83301e-09
8.38957e-09
4.43874e-09
1.14306e-08
1.15472e-08
6.81421e-09
7.90539e-09
6.75593e-09
6.64728e-09
1.78922e-08
1.17602e-08
9.97177e-09
7.57892e-09
6.51629e-09
5.7969e-09
8.97433e-09
2.10459e-08
1.82271e-08
1.08822e-08
1.02085e-08
6.8483e-09
5.27041e-09
4.25691e-09
1.26332e-08
3.11755e-08
2.15665e-08
1.64308e-08
1.16867e-08
9.0762e-09
6.39884e-09
4.9288e-09
1.17245e-09
1.76973e-08
4.09637e-08
3.16434e-08
2.03236e-08
1.69942e-08
1.0717e-08
8.56737e-09
8.90654e-09
1.5217e-09
8.78334e-10
2.48091e-08
5.69805e-08
4.16553e-08
2.93498e-08
2.17593e-08
1.50549e-08
1.14995e-08
7.0009e-09
2.22688e-09
4.97678e-09
1.70093e-09
3.47481e-08
7.86211e-08
5.7809e-08
3.93157e-08
3.08723e-08
1.97728e-08
1.51713e-08
8.22184e-09
1.6236e-09
4.24247e-09
1.05034e-09
3.22258e-09
4.85857e-08
1.08839e-07
7.96693e-08
5.47093e-08
4.1641e-08
2.74504e-08
2.12764e-08
6.58265e-09
3.34497e-09
2.74073e-09
1.50345e-09
3.88716e-09
3.65157e-09
6.77816e-08
1.50659e-07
1.10171e-07
7.57379e-08
5.78705e-08
3.74748e-08
2.82556e-08
6.3404e-09
4.93534e-09
2.54621e-09
1.29153e-09
5.34168e-09
3.02786e-09
5.42435e-09
9.43082e-08
2.08346e-07
1.52349e-07
1.05092e-07
8.01207e-08
5.20391e-08
3.85928e-08
5.95394e-09
9.12371e-09
3.99743e-09
2.48662e-09
5.42183e-09
6.39396e-09
3.49784e-09
9.79154e-09
1.30915e-07
2.87508e-07
2.10483e-07
1.45733e-07
1.11144e-07
7.21762e-08
5.29758e-08
5.79511e-09
1.42697e-08
4.81189e-09
3.64937e-09
7.49016e-09
1.76679e-08
9.85122e-09
4.96079e-09
1.38709e-07
3.95752e-07
2.90219e-07
2.01807e-07
1.54067e-07
1.00211e-07
7.29724e-08
5.74634e-09
2.13493e-08
5.55148e-09
6.83671e-09
9.67172e-09
1.27691e-08
2.60023e-08
1.88778e-08
1.38709e-07
5.41823e-07
3.99297e-07
2.78813e-07
2.13294e-07
1.38997e-07
1.00681e-07
5.79552e-09
2.89493e-08
5.68775e-09
1.12933e-08
1.34604e-08
1.11479e-08
1.5112e-08
7.55999e-08
1.38709e-07
7.37937e-07
5.46927e-07
3.843e-07
2.94709e-07
1.92491e-07
1.38955e-07
5.935e-09
3.58243e-08
5.75718e-09
1.789e-08
1.68732e-08
1.41068e-08
1.20685e-08
2.28249e-08
1.38709e-07
9.99028e-07
7.45825e-07
5.27531e-07
4.06462e-07
2.66004e-07
1.91676e-07
6.17509e-09
4.0265e-08
5.82716e-09
2.71506e-08
2.27286e-08
1.71664e-08
1.47307e-08
1.68257e-08
1.38709e-07
1.3349e-06
1.01282e-06
7.21302e-07
5.58751e-07
3.66767e-07
2.64135e-07
6.54012e-09
4.14188e-08
5.96292e-09
4.01138e-08
3.14892e-08
2.30742e-08
1.7561e-08
2.01053e-08
1.38709e-07
1.74284e-06
1.35882e-06
9.83354e-07
7.66122e-07
5.03869e-07
3.63639e-07
7.06473e-09
3.97004e-08
6.18957e-09
5.91273e-08
4.408e-08
3.18293e-08
2.3438e-08
2.36934e-08
1.38709e-07
2.21599e-06
1.79179e-06
1.32663e-06
1.04933e-06
6.90163e-07
4.99605e-07
7.80263e-09
3.66862e-08
6.54718e-09
8.68523e-08
6.16258e-08
4.48025e-08
3.20913e-08
3.14764e-08
1.38709e-07
2.68844e-06
2.31067e-06
1.7693e-06
1.43043e-06
9.43689e-07
6.85899e-07
8.82177e-09
3.39068e-08
7.07544e-09
1.26116e-07
8.62917e-08
6.39419e-08
4.49798e-08
4.29103e-08
1.38709e-07
3.06341e-06
2.85379e-06
2.32124e-06
1.94523e-06
1.28357e-06
9.43246e-07
1.02514e-08
3.20623e-08
7.80952e-09
1.74098e-07
1.17899e-07
9.26931e-08
6.38715e-08
6.00231e-08
1.38709e-07
3.20942e-06
3.30062e-06
2.93622e-06
2.6407e-06
1.7389e-06
1.3047e-06
1.22493e-08
3.09388e-08
8.8342e-09
2.05301e-07
1.51023e-07
1.36638e-07
9.23189e-08
8.51865e-08
1.38709e-07
3.06588e-06
3.4676e-06
3.48186e-06
3.52754e-06
2.33781e-06
1.82836e-06
1.49783e-08
3.21392e-08
1.02425e-08
2.08859e-07
1.80753e-07
1.9935e-07
1.35194e-07
1.23106e-07
1.38709e-07
2.69733e-06
3.27992e-06
3.70655e-06
4.4677e-06
3.08191e-06
2.62685e-06
1.89822e-08
3.37163e-08
1.22115e-08
1.84751e-07
2.04638e-07
2.82547e-07
1.95444e-07
1.80391e-07
1.38709e-07
2.24277e-06
2.83639e-06
3.48219e-06
4.95507e-06
3.81819e-06
3.95905e-06
2.50588e-08
3.61214e-08
1.49526e-08
2.02966e-07
2.20092e-07
3.61911e-07
2.79824e-07
2.62316e-07
1.38709e-07
1.79522e-06
2.31942e-06
2.95412e-06
4.51363e-06
4.18009e-06
6.38005e-06
3.52501e-08
3.93823e-08
1.89057e-08
2.06678e-07
2.30779e-07
3.91448e-07
3.72456e-07
3.8187e-07
1.38709e-07
1.40875e-06
1.83466e-06
2.36828e-06
3.58745e-06
3.84969e-06
8.88545e-06
5.57183e-08
4.31923e-08
2.48586e-08
2.27126e-07
2.4894e-07
4.40204e-07
4.42201e-07
5.2031e-07
1.38709e-07
1.09466e-06
1.42834e-06
1.84534e-06
2.72047e-06
3.12427e-06
6.51411e-06
1.21012e-07
4.65192e-08
3.4665e-08
2.53426e-07
2.66977e-07
4.70509e-07
4.90449e-07
6.30755e-07
1.38709e-07
8.47685e-07
1.10465e-06
1.42245e-06
2.0434e-06
2.40525e-06
4.0255e-06
8.28798e-07
4.89026e-08
5.3386e-08
2.94947e-07
2.91663e-07
5.16737e-07
5.33453e-07
7.0987e-07
1.38709e-07
6.56371e-07
8.52832e-07
1.09288e-06
1.54035e-06
1.82454e-06
2.68275e-06
1.01049e-07
5.01289e-08
9.99524e-08
3.26916e-07
3.24284e-07
5.91596e-07
5.76657e-07
7.62824e-07
1.38709e-07
5.09165e-07
6.59098e-07
8.40015e-07
1.16759e-06
1.38321e-06
1.89222e-06
5.32805e-08
4.9939e-08
1.7199e-07
3.54231e-07
3.65944e-07
7.34305e-07
6.41515e-07
8.21388e-07
1.09735e-07
3.96322e-07
5.10745e-07
6.47242e-07
8.90305e-07
1.05214e-06
1.38129e-06
3.60156e-08
4.85514e-08
8.8112e-08
3.67118e-07
4.02355e-07
9.91308e-07
7.69506e-07
9.25355e-07
8.58114e-08
3.09509e-07
3.97314e-07
5.00454e-07
6.82833e-07
8.03862e-07
1.02984e-06
2.69426e-08
4.62624e-08
5.12082e-08
3.65464e-07
4.20543e-07
1.47737e-06
1.04416e-06
1.14093e-06
6.74676e-08
2.42956e-07
3.10228e-07
3.88717e-07
5.26732e-07
6.17273e-07
7.78457e-07
2.13608e-08
4.3683e-08
3.54713e-08
3.46416e-07
4.12174e-07
1.83451e-06
1.60082e-06
1.66867e-06
5.32491e-08
1.91161e-07
2.4348e-07
3.03261e-07
4.0863e-07
4.76517e-07
5.94498e-07
1.76377e-08
4.13323e-08
2.67376e-08
3.20666e-07
3.82417e-07
1.37967e-06
2.09016e-06
3.43534e-06
4.23039e-08
1.51914e-07
1.91622e-07
2.37809e-07
3.18658e-07
3.69819e-07
4.57677e-07
1.50141e-08
3.95935e-08
2.12744e-08
3.00734e-07
3.52613e-07
9.92143e-07
1.55777e-06
8.73735e-06
1.19223e-07
2.93469e-08
1.5218e-07
1.87136e-07
2.49826e-07
2.88501e-07
3.54727e-07
1.31033e-08
3.85795e-08
1.76411e-08
2.73089e-07
3.18736e-07
7.66801e-07
1.07754e-06
2.78914e-06
1.19667e-07
8.38161e-08
1.81917e-08
1.48408e-07
1.96714e-07
2.26152e-07
2.76591e-07
1.16929e-08
3.84073e-08
1.50544e-08
2.5514e-07
2.90564e-07
6.28664e-07
7.88727e-07
1.5462e-06
1.17018e-07
8.40234e-08
5.2323e-08
1.15282e-08
1.55921e-07
1.78123e-07
2.16788e-07
1.0642e-08
3.91378e-08
1.31662e-08
2.46923e-07
2.6511e-07
5.24492e-07
6.37103e-07
1.0557e-06
1.23317e-07
8.20359e-08
5.24654e-08
3.3181e-08
7.56843e-09
1.41014e-07
1.70917e-07
9.85646e-09
4.05512e-08
1.17712e-08
2.43731e-07
2.44361e-07
4.46967e-07
5.29911e-07
8.36698e-07
1.1186e-07
8.62017e-08
5.11698e-08
3.33385e-08
2.1801e-08
5.11488e-09
1.3529e-07
9.28191e-09
4.25418e-08
1.07317e-08
2.36324e-07
2.22818e-07
3.91949e-07
4.42858e-07
7.03806e-07
1.0786e-07
7.83601e-08
5.39033e-08
3.25819e-08
2.19716e-08
1.45999e-08
3.53969e-09
8.86151e-09
4.44322e-08
9.93555e-09
2.11383e-07
1.98525e-07
3.37942e-07
3.82555e-07
6.04207e-07
8.60447e-09
7.53344e-08
4.88143e-08
3.44188e-08
2.15583e-08
1.48511e-08
1.00625e-08
2.50228e-09
4.59504e-08
9.35061e-09
1.75581e-07
1.69081e-07
2.7783e-07
3.22089e-07
5.29603e-07
4.37671e-08
8.14073e-09
4.73113e-08
3.12362e-08
2.2872e-08
1.47231e-08
1.02898e-08
6.66503e-09
1.78794e-09
8.9106e-09
1.35078e-07
1.41168e-07
2.16541e-07
2.5978e-07
4.43257e-07
8.71972e-09
4.27543e-08
8.18408e-09
3.05437e-08
2.0844e-08
1.57369e-08
1.03415e-08
7.16137e-09
4.66441e-09
1.31087e-09
1.02452e-07
1.13767e-07
1.68776e-07
2.04984e-07
3.46594e-07
7.84905e-08
8.26236e-09
3.39844e-08
8.5295e-09
2.06301e-08
1.44784e-08
1.11792e-08
7.50434e-09
4.93833e-09
2.91812e-09
1.34301e-09
9.2668e-08
1.29231e-07
1.6292e-07
2.71355e-07
7.49137e-08
5.22951e-08
8.18759e-09
2.56275e-08
9.37656e-09
1.45505e-08
1.04817e-08
8.26634e-09
5.36179e-09
3.5527e-09
1.32166e-09
1.4591e-09
1.02448e-07
1.2706e-07
2.1339e-07
8.01948e-08
5.3233e-08
3.37733e-08
8.24151e-09
1.89493e-08
1.10673e-08
1.0737e-08
7.97117e-09
6.12705e-09
4.47101e-09
1.76202e-09
1.17706e-09
1.80836e-09
8.20973e-10
1.01641e-07
1.66745e-07
7.94875e-08
5.56416e-08
3.56338e-08
2.23235e-08
8.29714e-09
1.43497e-08
1.45557e-08
8.32421e-09
6.28661e-09
5.13373e-09
2.60323e-09
1.68292e-09
1.89247e-09
4.32492e-09
2.678e-09
6.78333e-10
1.33692e-07
1.04757e-07
5.5212e-08
3.69375e-08
2.47948e-08
1.56703e-08
8.23802e-09
1.12436e-08
2.29749e-08
6.75421e-09
5.51493e-09
3.60272e-09
2.43092e-09
2.66497e-09
3.93564e-09
6.40368e-09
6.70259e-09
4.38829e-09
7.22008e-10
7.33919e-08
3.68592e-08
2.55875e-08
1.84238e-08
1.13012e-08
7.99312e-09
9.28392e-09
4.54828e-08
5.88318e-09
4.55811e-09
3.26287e-09
3.68118e-09
3.88251e-09
3.99424e-09
3.88178e-09
4.41004e-08
9.46523e-09
5.09234e-09
7.72425e-10
4.94412e-08
2.57356e-08
1.89261e-08
1.46573e-08
8.25024e-09
7.74888e-09
8.22221e-09
3.35012e-08
5.22138e-09
4.68122e-09
4.14878e-09
4.3831e-09
3.79595e-09
4.52154e-09
8.96076e-09
6.89806e-09
1.32921e-08
6.88586e-09
4.79948e-09
8.32826e-10
3.45975e-08
1.93059e-08
1.51466e-08
1.24782e-08
6.26425e-09
7.67342e-09
8.22319e-09
1.84479e-08
5.03847e-09
5.69285e-09
4.47056e-09
4.12079e-09
6.63928e-09
2.47395e-09
1.16928e-09
3.05009e-09
8.0307e-09
8.10905e-09
5.53604e-09
4.58837e-09
9.05919e-10
2.59196e-08
1.5682e-08
1.31909e-08
1.12784e-08
5.07418e-09
7.34594e-09
9.10662e-09
1.32613e-08
5.47561e-09
6.37307e-09
4.1419e-09
6.85036e-09
2.50484e-09
5.07396e-09
5.94758e-10
2.9562e-09
7.25036e-10
5.09584e-10
5.24366e-10
3.93583e-09
6.62292e-09
5.84551e-09
4.80525e-09
4.34741e-09
9.96632e-10
2.11259e-08
1.38379e-08
1.25655e-08
1.08966e-08
4.64978e-09
6.15571e-09
1.13532e-08
1.22014e-08
5.62399e-09
5.79047e-09
4.96725e-09
3.07539e-09
3.46417e-09
6.60649e-10
5.72405e-10
4.42847e-10
1.947e-09
5.56751e-10
3.9834e-10
4.08116e-10
5.35275e-10
6.21267e-10
6.39414e-10
6.05361e-09
4.68402e-09
4.81104e-09
4.40314e-09
4.15782e-09
1.11125e-09
1.88397e-08
1.33701e-08
1.31521e-08
1.10941e-08
4.62906e-09
4.85416e-09
1.1079e-08
1.11349e-08
5.34417e-09
5.61368e-09
3.25153e-09
7.42085e-09
8.60524e-10
7.61071e-10
7.62413e-10
5.0752e-10
5.04153e-10
5.70798e-10
9.7259e-10
3.18922e-09
9.05694e-10
6.00076e-10
6.74317e-10
6.64466e-10
9.81656e-10
1.06913e-09
1.0493e-09
5.05692e-09
3.88774e-09
4.33304e-09
4.12103e-09
4.01256e-09
1.25888e-09
1.8461e-08
1.42956e-08
1.50392e-08
1.11903e-08
4.60589e-09
4.82287e-09
1.14597e-08
9.60521e-09
4.30914e-09
3.95422e-09
3.88828e-09
1.05805e-09
5.81603e-10
5.66953e-10
5.88772e-10
5.69562e-10
1.0164e-09
1.02269e-09
8.72895e-10
8.7654e-10
1.00009e-09
5.14219e-10
7.77993e-10
4.67182e-10
7.31662e-10
3.11299e-09
5.84535e-10
6.89335e-10
6.98642e-10
8.67786e-10
8.7893e-10
1.01769e-09
8.97793e-10
9.06576e-10
5.03376e-10
7.67321e-10
4.7586e-10
7.31899e-10
5.58286e-10
7.74363e-10
4.05607e-10
6.41937e-10
5.4776e-10
7.9381e-10
4.18287e-10
6.33528e-10
4.26492e-09
3.78439e-09
3.98097e-09
3.93567e-09
3.91597e-09
1.4528e-09
2.01319e-08
1.72348e-08
1.59906e-08
1.22976e-08
4.33741e-09
4.05222e-09
1.09813e-08
7.02636e-09
3.99375e-09
2.40206e-09
1.12638e-09
5.9134e-10
5.75478e-10
5.59282e-10
5.51984e-10
9.5385e-10
9.26439e-10
9.34506e-10
9.01054e-10
9.39541e-10
8.39026e-10
7.21638e-10
8.15735e-10
6.47398e-10
5.62763e-10
8.62073e-10
9.43628e-10
7.28009e-10
8.10871e-10
6.51547e-10
5.58466e-10
7.65601e-10
5.65617e-10
7.26803e-10
5.67582e-10
7.39089e-10
5.66192e-10
7.18115e-10
5.68782e-10
4.81707e-10
8.53458e-10
4.60016e-10
1.06536e-09
1.42186e-09
7.43555e-10
1.36749e-09
7.90089e-10
2.47671e-09
7.08069e-10
6.31398e-10
6.06534e-10
6.1313e-10
6.15886e-10
1.38755e-09
1.37905e-09
1.11468e-09
1.11308e-09
4.87506e-10
8.42482e-10
4.77116e-10
1.05272e-09
4.51853e-10
1.23945e-09
3.82634e-10
7.73963e-10
4.48608e-10
1.22006e-09
3.93006e-10
8.30084e-10
1.27062e-09
7.49094e-10
1.27925e-09
8.03702e-10
1.2598e-09
6.6843e-10
1.22411e-09
6.72295e-10
5.0022e-09
3.58922e-09
3.76632e-09
3.83432e-09
3.86056e-09
1.71318e-09
2.54802e-08
2.04726e-08
1.9614e-08
7.94628e-09
4.4283e-09
3.82565e-09
8.62082e-09
5.48279e-09
1.7557e-09
1.1515e-09
5.78903e-10
5.8056e-10
5.24409e-10
5.28783e-10
8.70839e-10
8.35052e-10
8.73848e-10
8.2388e-10
7.76608e-10
5.76605e-10
7.67915e-10
5.79198e-10
7.45836e-10
5.69422e-10
7.43259e-10
5.75196e-10
7.4287e-10
5.93368e-10
7.50199e-10
5.91015e-10
7.29847e-10
5.90862e-10
7.34022e-10
5.87259e-10
8.84419e-10
5.94872e-10
1.04177e-09
1.17528e-09
7.13377e-10
1.24163e-09
8.73714e-10
5.95226e-10
1.20718e-09
1.04261e-09
7.14449e-10
1.25227e-09
7.57494e-10
1.28621e-09
7.23602e-10
1.24555e-09
7.4412e-10
1.36422e-09
7.17117e-10
1.29365e-09
1.32949e-09
7.74204e-10
1.39414e-09
9.18527e-10
2.493e-09
8.63356e-10
1.86343e-09
1.07714e-09
2.63056e-09
8.92586e-10
6.94795e-10
6.58781e-10
7.06963e-10
6.68042e-10
1.09201e-09
1.03314e-09
1.14053e-09
1.09955e-09
8.12832e-10
5.39575e-10
7.44764e-10
5.89481e-10
8.2207e-10
5.42501e-10
7.37176e-10
5.88119e-10
6.34482e-10
1.7637e-09
8.61757e-10
6.66217e-10
7.4962e-10
6.63362e-10
6.25799e-10
1.82037e-09
8.31235e-10
6.54481e-10
7.38661e-10
6.67785e-10
1.26552e-09
7.79755e-10
1.34997e-09
9.3509e-10
1.04369e-09
6.95376e-10
1.03113e-09
7.29926e-10
2.36978e-09
8.86134e-10
1.81078e-09
1.02968e-09
2.27911e-09
8.93698e-10
2.45652e-09
8.83171e-10
3.4495e-09
3.45971e-09
3.68074e-09
3.79471e-09
3.83386e-09
2.07023e-09
3.49144e-08
3.21687e-08
1.15349e-08
8.0384e-09
3.62342e-09
2.6168e-09
6.25045e-09
2.97424e-09
1.44313e-09
5.19903e-10
5.24383e-10
4.34604e-10
4.41101e-10
5.43469e-10
5.49016e-10
4.93526e-10
4.94278e-10
7.36906e-10
5.56513e-10
6.97246e-10
5.44167e-10
7.29596e-10
5.54174e-10
6.96379e-10
5.41872e-10
6.96718e-10
4.76922e-10
6.6239e-10
5.12886e-10
7.36021e-10
4.66723e-10
6.58789e-10
5.2341e-10
7.32887e-10
1.54161e-09
6.35408e-10
1.61404e-09
7.1594e-10
1.6412e-09
6.21298e-10
1.68387e-09
6.0321e-10
1.30673e-09
5.80344e-10
1.70765e-09
6.00286e-10
1.42377e-09
5.74136e-10
1.79094e-09
1.69378e-09
7.39943e-10
1.9329e-09
7.20967e-10
2.58236e-09
1.50573e-09
6.3442e-10
6.39385e-10
6.76933e-10
6.58167e-10
1.10425e-09
1.04252e-09
1.05528e-09
1.00021e-09
8.1222e-10
4.65311e-10
7.94661e-10
4.97572e-10
8.41336e-10
4.60146e-10
8.19719e-10
4.92875e-10
8.70863e-10
5.11905e-10
8.57008e-10
4.97659e-10
8.92162e-10
5.0868e-10
8.71669e-10
4.95545e-10
8.15196e-10
1.35395e-09
8.29787e-10
1.38602e-09
8.11341e-10
1.39203e-09
8.176e-10
1.3832e-09
6.53065e-10
6.63162e-10
1.22242e-09
1.55021e-09
7.74632e-10
1.46333e-09
6.39531e-10
6.61512e-10
1.23008e-09
1.48494e-09
7.61142e-10
1.41052e-09
1.69818e-09
7.511e-10
1.95152e-09
7.23005e-10
1.4269e-09
6.26709e-10
1.40157e-09
6.45398e-10
3.09666e-09
3.45421e-09
3.68714e-09
3.78841e-09
3.82563e-09
2.56069e-09
9.29759e-08
1.86807e-08
9.52742e-09
4.89563e-09
5.00021e-09
1.86315e-09
2.3833e-09
2.11759e-09
9.87259e-10
4.84022e-10
4.81503e-10
5.94099e-10
5.76113e-10
8.47152e-10
8.48404e-10
8.24785e-10
8.28509e-10
6.47055e-10
1.2563e-09
6.75072e-10
1.19326e-09
6.46709e-10
1.32936e-09
6.847e-10
1.23592e-09
7.654e-10
6.21341e-10
6.77691e-10
1.0195e-09
8.21226e-10
5.95924e-10
6.79436e-10
1.05896e-09
6.03172e-10
1.07256e-09
5.83402e-10
1.02818e-09
2.37499e-09
3.1311e-09
4.34032e-10
4.4439e-10
7.44649e-10
7.5108e-10
6.66962e-10
6.75236e-10
1.09988e-09
1.02909e-09
3.98496e-09
4.56223e-10
1.75858e-09
5.16412e-10
3.42e-09
4.47939e-10
1.45893e-09
5.01666e-10
9.24442e-10
4.96514e-10
1.24003e-09
5.21516e-10
9.5425e-10
4.87624e-10
1.26454e-09
5.07801e-10
8.29144e-10
1.76681e-09
8.16893e-10
1.40245e-09
7.92201e-10
2.1856e-09
8.0778e-10
1.54759e-09
8.68915e-10
1.30259e-09
8.44121e-10
1.25061e-09
8.57009e-10
1.3544e-09
8.61202e-10
1.28875e-09
3.11691e-09
3.54273e-09
3.72146e-09
3.79923e-09
3.82674e-09
3.18524e-09
5.27593e-08
1.13467e-08
6.15435e-09
4.31935e-09
1.94691e-09
7.90201e-10
8.78783e-10
9.13366e-09
6.67415e-10
6.70139e-10
7.60586e-10
7.60646e-10
7.96691e-10
7.93365e-10
5.90251e-10
6.10971e-10
6.47229e-10
7.62561e-10
6.53808e-10
7.0284e-10
6.5031e-10
7.69127e-10
6.64295e-10
7.05979e-10
6.24989e-10
7.12571e-10
5.74994e-10
7.05136e-10
6.27293e-10
7.08398e-10
5.92132e-10
7.00102e-10
7.05413e-10
1.20112e-09
7.94171e-10
1.50503e-09
6.96998e-10
1.23918e-09
7.89136e-10
1.58743e-09
7.44952e-10
1.08921e-09
8.11869e-10
1.4829e-09
7.50474e-10
1.14337e-09
8.18599e-10
1.6048e-09
2.60126e-09
1.72681e-09
9.98973e-10
6.15358e-10
6.14802e-10
6.13032e-10
6.18275e-10
1.62884e-09
1.72869e-09
1.33398e-09
1.31694e-09
1.34862e-09
6.21694e-10
1.41835e-09
1.27097e-09
1.73509e-09
6.35322e-10
1.21625e-09
1.27042e-09
1.11994e-09
1.68306e-09
1.35131e-09
1.46314e-09
1.06254e-09
1.87755e-09
1.25372e-09
1.48638e-09
1.08667e-09
1.55404e-09
1.05592e-09
1.48329e-09
3.37559e-09
3.64228e-09
3.76566e-09
3.81563e-09
3.83111e-09
3.82123e-09
1.63532e-08
1.02529e-08
3.97096e-09
5.10847e-09
3.38549e-09
8.36821e-10
6.35873e-08
2.97147e-08
8.22604e-10
8.03572e-10
8.66993e-10
8.79168e-10
6.9029e-10
5.36811e-10
5.21305e-10
6.85587e-10
6.93747e-10
5.47173e-10
5.1128e-10
7.00358e-10
8.18209e-10
8.12901e-10
1.5225e-09
6.12995e-10
1.32576e-09
5.8371e-10
1.55036e-09
6.16027e-10
1.39425e-09
5.83394e-10
1.33397e-09
6.54857e-10
1.1367e-09
6.09221e-10
1.35964e-09
6.61902e-10
1.14913e-09
6.06678e-10
5.95184e-10
1.22573e-09
5.97901e-10
1.29133e-09
3.11205e-09
2.33967e-09
1.05393e-09
6.68563e-10
6.34871e-10
8.80807e-10
8.64705e-10
6.82137e-10
7.06718e-10
1.43955e-09
1.29864e-09
4.45739e-10
1.11207e-09
3.76363e-10
8.89904e-10
4.54584e-10
1.1082e-09
3.97165e-10
8.38527e-10
6.31454e-10
7.00742e-10
8.05395e-10
8.10389e-10
6.27439e-10
6.92871e-10
8.41548e-10
7.71081e-10
6.24895e-10
1.85936e-09
7.65414e-10
1.70871e-09
6.29066e-10
1.80443e-09
7.71043e-10
1.67264e-09
2.0041e-09
2.06706e-09
1.24836e-09
1.58021e-09
1.7125e-09
2.28161e-09
1.23408e-09
1.60456e-09
3.56986e-09
3.73547e-09
3.80684e-09
3.83041e-09
2.9255e-09
1.63081e-08
5.17445e-09
3.9258e-09
1.4663e-09
1.44457e-09
5.73595e-09
1.16312e-07
4.43297e-09
5.11487e-09
1.52145e-08
1.83651e-08
7.14771e-10
7.65307e-10
7.18052e-10
1.02034e-09
7.10565e-10
7.86845e-10
7.27834e-10
1.04654e-09
1.52447e-09
1.60958e-09
6.77532e-10
1.13115e-09
7.19338e-10
6.9053e-10
6.88507e-10
1.08759e-09
6.99026e-10
7.07088e-10
7.20371e-10
7.44433e-10
7.40555e-10
7.21466e-10
7.02921e-10
7.56919e-10
7.33271e-10
7.24178e-10
1.15486e-09
6.57536e-10
1.17684e-09
5.98462e-10
1.16582e-09
6.63516e-10
1.20847e-09
5.97515e-10
3.53453e-09
2.80787e-09
1.71878e-09
2.4723e-09
9.55162e-10
8.69091e-10
1.25548e-09
1.20184e-09
1.39286e-09
1.48291e-09
1.40624e-09
3.28859e-10
3.26759e-10
1.61261e-09
1.15568e-09
3.17427e-10
3.1772e-10
1.25157e-09
1.6782e-09
7.95477e-10
1.03893e-09
7.55595e-10
1.6416e-09
7.85591e-10
1.02641e-09
7.3889e-10
1.33255e-09
8.63896e-10
1.47891e-09
9.12772e-10
1.34024e-09
8.7249e-10
1.46125e-09
9.02491e-10
7.30004e-10
1.67918e-09
7.68342e-10
1.54994e-09
3.7272e-09
3.81116e-09
3.83758e-09
2.21854e-09
6.3905e-09
1.09155e-08
3.88983e-09
3.80479e-09
1.33196e-09
5.91949e-09
5.58911e-10
5.91337e-10
4.15024e-10
4.15554e-10
4.94735e-09
6.05378e-09
2.43273e-08
3.09561e-08
6.49837e-10
1.48258e-09
6.60774e-10
1.21475e-09
6.59344e-10
1.51053e-09
6.79767e-10
1.22269e-09
1.29205e-09
1.21123e-09
2.57437e-09
8.86043e-10
1.41226e-09
1.34038e-09
3.17203e-09
9.19311e-10
7.03932e-10
1.30003e-09
1.00776e-09
6.92177e-10
7.0235e-10
1.26832e-09
1.00188e-09
6.86658e-10
6.17641e-10
1.42326e-09
5.80582e-10
1.24486e-09
6.18607e-10
1.50808e-09
5.77293e-10
1.20715e-09
3.77208e-09
3.61887e-09
4.01813e-09
5.69821e-10
1.00951e-09
9.43337e-10
1.27464e-09
1.2448e-09
1.26574e-09
1.22841e-09
7.85046e-10
4.60284e-10
1.89484e-09
4.27843e-10
8.44538e-10
4.70052e-10
1.71286e-09
4.24354e-10
8.2177e-10
4.64321e-10
8.06446e-10
6.12389e-10
2.85115e-09
5.14072e-10
8.44859e-10
4.79192e-10
7.82943e-10
6.41656e-10
2.3051e-09
5.17027e-10
9.79952e-10
9.24606e-10
8.95236e-10
8.54435e-10
1.36598e-09
7.90059e-10
1.58204e-09
8.85865e-10
1.4571e-09
7.95118e-10
1.59917e-09
9.06405e-10
3.8463e-09
3.86313e-09
1.73479e-09
8.86821e-09
3.867e-09
3.06113e-09
1.2154e-09
2.21477e-09
7.88696e-10
1.02607e-09
1.09929e-09
4.34765e-10
4.35247e-10
1.5055e-09
1.06051e-09
2.63971e-09
2.76374e-09
1.3785e-08
7.3774e-09
1.17921e-09
1.70578e-09
9.458e-09
3.18643e-09
3.34166e-09
1.7893e-08
2.93714e-08
4.24185e-08
7.06507e-09
2.00242e-08
2.64159e-08
2.95884e-08
8.94729e-09
3.10947e-08
7.05907e-10
1.36471e-09
7.50917e-10
1.3293e-09
7.11482e-10
1.42352e-09
7.60544e-10
1.40138e-09
3.19356e-09
8.53143e-10
3.75187e-09
9.03519e-10
1.17766e-09
5.5146e-10
1.16898e-09
5.46439e-10
6.68563e-10
1.09601e-09
6.71438e-10
1.11904e-09
3.94164e-09
3.97288e-09
5.04535e-09
1.54781e-09
6.36959e-10
6.22551e-10
6.29642e-10
6.08351e-10
1.24986e-09
1.17879e-09
1.11311e-09
1.09923e-09
7.39353e-10
2.28207e-09
5.49228e-10
7.25803e-10
6.41e-10
2.53831e-09
7.42298e-10
2.27606e-09
5.42939e-10
7.38033e-10
6.39326e-10
2.72424e-09
9.1173e-10
1.16032e-09
8.68e-10
1.22813e-09
8.45676e-10
1.69781e-09
7.51336e-10
8.41762e-10
1.35854e-09
1.37559e-09
8.15172e-10
1.85075e-09
7.60903e-10
8.68563e-10
1.40898e-09
1.27095e-09
8.40008e-10
1.29728e-09
7.93011e-10
1.28056e-09
3.92176e-09
1.40989e-09
4.66274e-09
8.47806e-09
1.80606e-09
8.47315e-10
5.19757e-10
1.22687e-09
1.51688e-09
4.62393e-10
5.02331e-10
1.09544e-09
1.20684e-09
6.61374e-10
6.94507e-10
1.08746e-09
1.6689e-09
3.98043e-09
1.71584e-09
3.00836e-09
1.04296e-08
1.19138e-09
1.84677e-09
1.97172e-09
4.22473e-09
3.31953e-09
1.22131e-08
2.39332e-08
6.09741e-08
6.97937e-09
4.6243e-08
2.36328e-08
6.23459e-08
7.41399e-09
5.52185e-08
7.33175e-10
2.30225e-09
7.57315e-10
2.56095e-09
4.03326e-09
4.15763e-09
4.41884e-09
8.0603e-09
9.44379e-10
6.7051e-10
6.58573e-10
1.05398e-09
9.53111e-10
2.43472e-09
4.01508e-10
1.7781e-09
5.5893e-10
3.31783e-09
4.02862e-10
1.69852e-09
5.56208e-10
9.88763e-10
1.35833e-09
7.36273e-10
1.06739e-09
6.77113e-10
7.56285e-10
1.02999e-09
1.4775e-09
7.34176e-10
1.15095e-09
7.09042e-10
7.75995e-10
1.21464e-09
1.83586e-09
7.52665e-10
7.9109e-10
1.33804e-09
1.73997e-09
7.66759e-10
8.21482e-10
8.89688e-10
1.33885e-09
8.19106e-10
1.47619e-09
1.39869e-09
1.50707e-09
7.79035e-10
2.04766e-09
1.3161e-09
1.85204e-09
7.98896e-10
1.68735e-09
1.18419e-09
1.44676e-08
2.91991e-09
8.47687e-10
6.41768e-10
4.15469e-10
1.43663e-09
2.14712e-09
7.7171e-10
9.55525e-10
2.63742e-09
6.56633e-10
2.14394e-09
5.6691e-10
2.8017e-09
7.89466e-10
2.43178e-09
6.71133e-10
1.12181e-09
1.40265e-09
2.8491e-08
3.55633e-08
2.40614e-08
1.03736e-07
3.49032e-08
3.89459e-08
2.16122e-08
5.27862e-08
1.0218e-09
4.21378e-09
4.55895e-09
4.88521e-09
1.66245e-09
5.68186e-10
5.61258e-10
8.42229e-10
8.36924e-10
7.58634e-10
7.65506e-10
1.99878e-09
2.00354e-09
1.62487e-09
5.06017e-10
1.72497e-09
1.15741e-09
2.09029e-09
5.09215e-10
1.48829e-09
1.19285e-09
6.77536e-10
7.73063e-10
1.00829e-09
1.15136e-09
6.76026e-10
1.16398e-09
7.16917e-10
7.76854e-10
1.15535e-09
1.05913e-09
7.23227e-10
1.18441e-09
1.19032e-09
9.66568e-10
1.20394e-09
1.09681e-09
6.89516e-09
1.53314e-09
1.18951e-09
1.0803e-09
1.02591e-09
1.00338e-09
1.18947e-09
9.98237e-10
2.681e-09
3.82047e-09
1.93729e-09
2.23735e-09
1.34359e-09
3.19717e-10
2.73765e-09
6.04412e-10
1.357e-09
3.52094e-10
4.51484e-09
7.29312e-10
2.75673e-09
1.33485e-09
1.19833e-09
1.31742e-09
2.31491e-09
2.14445e-09
2.14572e-09
2.12681e-09
3.61866e-10
7.55615e-10
4.26908e-10
6.50207e-10
9.01732e-10
4.42402e-09
4.76681e-09
6.16539e-09
7.77333e-10
7.75898e-10
7.77205e-10
9.59217e-10
9.54797e-10
1.24831e-09
1.25822e-09
4.53154e-10
2.50801e-09
5.54564e-10
2.7838e-09
4.54451e-10
2.04775e-09
5.61987e-10
2.6694e-09
1.11285e-09
1.7979e-09
1.24486e-09
1.2886e-09
1.09917e-09
1.91622e-09
1.02776e-09
1.31408e-09
1.43593e-09
1.45363e-09
9.73695e-09
9.91513e-10
1.93192e-09
1.66277e-09
1.26931e-09
8.79025e-10
2.565e-09
2.48937e-09
1.32033e-09
1.05261e-09
1.30051e-09
1.03936e-09
2.25596e-09
2.34184e-09
4.04061e-09
1.59283e-09
5.67344e-09
1.39782e-09
2.39065e-09
2.34744e-09
2.45673e-09
6.49165e-10
1.09494e-09
1.32829e-09
1.87034e-09
8.9168e-10
1.02072e-09
1.52271e-09
1.34271e-09
1.7435e-09
1.89516e-09
3.94981e-09
8.10344e-10
4.55204e-09
5.07474e-09
2.09218e-09
4.75022e-10
4.73739e-10
9.09727e-10
8.98941e-10
7.32435e-10
7.58176e-10
1.83524e-09
1.91351e-09
2.56184e-09
4.32941e-10
7.69621e-10
6.62306e-10
1.06203e-09
6.02001e-10
2.60158e-09
4.48074e-10
8.2543e-10
7.1921e-10
1.31363e-09
6.39551e-10
1.15027e-09
1.05357e-09
1.26107e-09
1.15909e-09
1.27869e-09
1.68174e-09
1.36232e-09
1.3019e-09
1.89044e-09
1.52431e-09
1.88499e-09
1.78925e-09
1.56949e-09
3.56703e-10
3.18897e-10
3.49964e-09
3.70989e-09
3.14245e-09
1.93473e-09
1.11954e-09
1.71336e-09
1.64836e-09
8.68217e-10
1.82148e-09
8.85435e-10
1.85904e-09
3.46974e-09
4.5253e-09
1.69112e-09
3.83961e-09
1.52163e-09
1.4075e-09
1.38313e-09
1.54029e-09
2.18198e-09
2.5623e-09
1.50298e-09
2.63053e-09
2.48678e-09
7.37157e-10
4.55404e-09
3.24955e-09
9.81119e-10
6.4965e-10
6.41595e-10
1.14014e-09
1.11858e-09
1.49522e-09
1.54447e-09
1.87686e-09
5.68249e-10
4.07619e-10
1.01252e-09
5.77153e-10
1.48413e-09
4.09103e-10
9.468e-10
5.74921e-10
1.66968e-09
1.92734e-09
5.76805e-10
1.19566e-09
5.69338e-10
8.43525e-10
9.92338e-10
1.17952e-09
6.30855e-10
9.44818e-10
1.10033e-09
5.64785e-10
7.09194e-10
6.22144e-10
7.36551e-10
1.71338e-09
1.90779e-09
1.04551e-09
6.23216e-10
5.37725e-10
2.06142e-10
1.83749e-10
1.26279e-09
2.06008e-09
1.18404e-09
2.2935e-09
1.74058e-09
1.05326e-09
1.67145e-09
4.21799e-09
8.16171e-10
2.78901e-09
1.10952e-09
1.44198e-09
2.70148e-09
2.56415e-09
2.2122e-09
1.4117e-09
2.87824e-09
1.98478e-09
1.49105e-09
3.93048e-09
2.20145e-09
3.57179e-09
6.78904e-10
3.79239e-09
5.15887e-09
4.95296e-10
5.0235e-10
6.79919e-10
6.73653e-10
7.91707e-10
7.77173e-10
1.68287e-09
1.72455e-09
1.07852e-09
3.75654e-10
7.68139e-10
5.31883e-10
1.47088e-09
5.36249e-10
1.18535e-09
1.76603e-09
5.45719e-10
3.86534e-10
7.53777e-10
5.12536e-10
6.58465e-10
1.17952e-09
8.96775e-10
8.49077e-10
9.45618e-10
6.6892e-10
8.45091e-10
1.20585e-09
2.38791e-09
9.04376e-10
9.13183e-10
4.77941e-10
4.65355e-10
2.2471e-10
2.19863e-10
1.71632e-09
5.12523e-09
1.99782e-09
1.38698e-09
3.13923e-09
1.05462e-09
2.21734e-09
2.78797e-09
1.05562e-09
1.47655e-09
2.05269e-09
1.0205e-09
5.33494e-10
6.69447e-10
5.34131e-10
9.30958e-10
4.9254e-10
5.81432e-10
5.79534e-10
1.00818e-09
1.98772e-09
4.0817e-09
3.83649e-09
3.26918e-09
6.2454e-10
3.23065e-09
1.98936e-09
5.48326e-10
5.27309e-10
1.01907e-09
9.46648e-10
1.41318e-09
1.42227e-09
9.35688e-10
5.19949e-10
4.06305e-10
8.82815e-10
5.3119e-10
1.42371e-09
9.55275e-10
5.27368e-10
4.06607e-10
9.49664e-10
5.33048e-10
1.61229e-09
5.86392e-10
8.42605e-10
9.70598e-10
8.02988e-10
7.92135e-10
8.14565e-10
5.97544e-10
9.76652e-10
1.13199e-09
9.44594e-10
3.55585e-10
2.21113e-10
2.18231e-10
3.45259e-10
2.23308e-10
2.27516e-10
5.53324e-10
4.17706e-10
6.50784e-10
5.54778e-10
3.98707e-10
6.58151e-10
1.83804e-09
2.3605e-09
2.53703e-09
1.76022e-09
2.90295e-09
1.2642e-09
1.3081e-09
3.41502e-09
1.36857e-09
2.00006e-09
2.36601e-09
1.46455e-09
4.04902e-10
1.09424e-09
3.8342e-10
1.03466e-09
5.50575e-10
1.97803e-09
7.84439e-10
7.66436e-10
7.12822e-10
1.62384e-09
1.48854e-09
1.31071e-09
3.47723e-10
8.53647e-10
4.99836e-10
1.63812e-09
5.16917e-10
1.53831e-09
1.88571e-09
5.26286e-10
3.45101e-10
1.03014e-09
5.07618e-10
7.66538e-10
1.13824e-09
8.3686e-10
1.29836e-09
7.84808e-10
1.1484e-09
8.60322e-10
1.46691e-09
5.56464e-10
1.21066e-09
5.82005e-10
1.23688e-09
1.75863e-09
1.00577e-09
5.10881e-10
4.50864e-10
4.98166e-10
4.47216e-10
2.38163e-10
2.41096e-10
3.02653e-10
6.33488e-10
7.21867e-10
6.09566e-10
6.68488e-10
7.54572e-10
3.89393e-10
5.87427e-10
6.48415e-10
3.07535e-10
7.40866e-10
6.11955e-10
6.83402e-10
7.67064e-10
3.91074e-10
5.93134e-10
2.07771e-09
7.0095e-10
2.00006e-09
6.20441e-10
3.63959e-10
8.68821e-10
3.57701e-10
8.77351e-10
5.57412e-10
1.29152e-09
4.49099e-10
9.98042e-10
9.48656e-10
4.15891e-10
5.77507e-10
5.7219e-10
1.07594e-09
1.03987e-09
4.35652e-10
1.05964e-09
1.01651e-09
4.24328e-10
9.91814e-10
1.0211e-09
1.51527e-09
9.10269e-10
9.45585e-10
1.43053e-09
1.12061e-09
1.02516e-09
8.32412e-10
1.49529e-09
9.08112e-10
2.0635e-09
8.26689e-10
1.63242e-09
9.3271e-10
2.1426e-09
3.54615e-09
9.86832e-10
8.56214e-10
6.30015e-10
3.78263e-10
3.87193e-10
8.2144e-10
6.02594e-10
3.54461e-10
3.97307e-10
2.81312e-10
2.83251e-10
3.42957e-10
3.17161e-10
3.60857e-10
7.22568e-10
8.43466e-10
1.04575e-09
3.53982e-10
3.57799e-10
3.10081e-10
7.49447e-10
8.65496e-10
1.00954e-09
1.19236e-09
4.36335e-10
1.1116e-09
4.20101e-10
7.89143e-10
2.78297e-09
4.47461e-10
2.53725e-09
2.46356e-09
4.20346e-10
8.94284e-10
8.71221e-10
1.20429e-09
1.20335e-09
6.65981e-10
2.19713e-09
6.26726e-10
6.25541e-10
2.88075e-09
3.70697e-10
1.41428e-09
1.18596e-09
6.61861e-10
2.20444e-09
6.22591e-10
6.19775e-10
2.88182e-09
3.78016e-10
7.77256e-10
9.0263e-10
1.48816e-09
1.11795e-09
8.22659e-10
1.42162e-09
9.77347e-10
1.24471e-09
8.99202e-10
1.19341e-09
3.04798e-10
2.99656e-10
9.52125e-10
4.24529e-10
3.63416e-10
2.70262e-10
6.72588e-10
6.84288e-10
8.49276e-10
9.69523e-10
5.50081e-10
2.94266e-10
6.54126e-10
5.3697e-10
2.23376e-10
5.43489e-10
2.84556e-10
6.46064e-10
6.7099e-10
8.30037e-10
8.10886e-10
6.1658e-10
3.00726e-10
6.9284e-10
5.24147e-10
2.39144e-10
6.22778e-10
3.47426e-10
4.91733e-10
1.02725e-09
1.02659e-09
3.53879e-10
4.62431e-10
1.06137e-09
9.97492e-10
7.76826e-10
5.85572e-10
7.64861e-10
1.0426e-09
3.6174e-10
9.93435e-10
1.04456e-09
3.52426e-10
1.01268e-09
6.19245e-10
1.10082e-09
9.99561e-10
7.37948e-10
8.84917e-10
5.66662e-10