/*--------------------------------*- C++ -*----------------------------------*\
| =========                 |                                                 |
| \\      /  F ield         | OpenFOAM: The Open Source CFD Toolbox           |
|  \\    /   O peration     | Version:  5.x                                   |
|   \\  /    A nd           | Web:      www.OpenFOAM.org                      |
|    \\/     M anipulation  |                                                 |
\*---------------------------------------------------------------------------*/
FoamFile
{
    version     2.0;
    format      ascii;
    class       volScalarField;
    location    "0.2";
    object      omega;
}
// * * * * * * * * * * * * * * * * * * * * * * * * * * * * * * * * * * * * * //

dimensions      [0 0 -1 0 0 0 0];

internalField   nonuniform List<scalar> 
12160
(
0.0719999
0.0719999
0.006155
0.0719999
0.00579465
0.0016105
0.0719999
0.00533674
0.00150155
0.00135253
0.0719999
0.00364936
0.00143129
0.00127701
0.00132278
0.0719999
0.00298837
0.00120105
0.00123475
0.00125418
0.00146304
0.0719999
0.00229974
0.00114203
0.00112954
0.00120489
0.00131331
0.0015408
0.0719999
0.00190059
0.00107556
0.00109847
0.00112737
0.00122913
0.00141904
0.00165709
0.0719999
0.00161188
0.00105057
0.001059
0.00108966
0.00114254
0.00123547
0.00133845
0.00205092
0.0719999
0.00142036
0.0010308
0.0010423
0.00105668
0.00109531
0.00116959
0.00113628
0.00163007
0.0027074
0.0719999
0.00128966
0.00102039
0.00102758
0.00103944
0.00106237
0.00109584
0.00109174
0.00128498
0.00141588
0.00165762
0.0719999
0.00120078
0.00101348
0.00101905
0.00102607
0.00104218
0.00106853
0.00106507
0.00131492
0.00128029
0.00187257
0.00146543
0.0719999
0.00114015
0.00100907
0.001013
0.00101795
0.00102831
0.00104376
0.00107604
0.00115699
0.00121958
0.00140021
0.00133103
0.00139839
0.0719999
0.00109864
0.00100617
0.00100894
0.00101226
0.00101937
0.00103005
0.00108484
0.00110917
0.0012043
0.00142868
0.00122886
0.00127584
0.00133581
0.0719999
0.00107014
0.00100424
0.00100618
0.00100844
0.00101324
0.00102045
0.00109328
0.00106873
0.0011262
0.00121117
0.00120352
0.00116928
0.00120972
0.00129766
0.0719999
0.0010505
0.00100294
0.00100429
0.00100583
0.00100911
0.00101401
0.00109753
0.00104744
0.00110883
0.00114275
0.00112487
0.00114029
0.00113227
0.00114626
0.0719999
0.00103695
0.00100205
0.00100299
0.00100405
0.0010063
0.00100964
0.00109832
0.00103375
0.00109922
0.00108692
0.00109738
0.00110457
0.00112534
0.00108874
0.0719999
0.00102759
0.00100144
0.0010021
0.00100283
0.00100438
0.00100667
0.00109623
0.00102535
0.00109763
0.00105702
0.00106655
0.0010912
0.00109889
0.0010919
0.0719999
0.00102109
0.00100094
0.00100148
0.00100198
0.00100306
0.00100464
0.00109178
0.00102064
0.00109636
0.00103824
0.00104731
0.00106446
0.00108839
0.00107438
0.0719999
0.00101707
0.00100057
0.00100098
0.00100139
0.00100215
0.00100324
0.00108524
0.00101844
0.00109413
0.00102567
0.00103311
0.00104684
0.00106315
0.00106644
0.0719999
0.00101437
0.00100032
0.0010006
0.0010009
0.00100151
0.00100227
0.00107717
0.00101772
0.0010901
0.00101717
0.00102301
0.00103293
0.00104632
0.00104753
0.0719999
0.00101292
0.00100017
0.00100034
0.00100054
0.001001
0.0010016
0.00106821
0.00101793
0.0010839
0.00101155
0.00101595
0.00102291
0.00103267
0.00103489
0.0719999
0.00101245
0.00100009
0.00100017
0.00100029
0.00100061
0.00100109
0.00105871
0.00101821
0.00107611
0.00100785
0.00101111
0.00101582
0.0010228
0.0010246
0.0719999
0.00101266
0.00100004
0.00100009
0.00100015
0.00100035
0.00100066
0.00104942
0.00101813
0.00106736
0.00100546
0.00100775
0.00101091
0.00101578
0.00101717
0.0719999
0.00101261
0.00100002
0.00100004
0.00100007
0.00100018
0.00100036
0.00104056
0.00101748
0.00105814
0.00100431
0.00100559
0.00100748
0.00101093
0.00101189
0.0719999
0.00101255
0.00100001
0.00100002
0.00100003
0.00100009
0.00100018
0.0010325
0.00101654
0.00104895
0.00100379
0.00100435
0.00100514
0.00100754
0.00100824
0.0719999
0.0010125
0.00100001
0.00100001
0.00100001
0.00100004
0.00100008
0.00102566
0.00101463
0.00104028
0.00100346
0.00100354
0.00100375
0.00100525
0.00100569
0.0719999
0.00101253
0.00100001
0.001
0.000999999
0.00100001
0.00100003
0.00101968
0.00101285
0.00103239
0.00100334
0.00100303
0.00100283
0.00100385
0.00100397
0.0719999
0.0010127
0.00100002
0.00100001
0.000999995
0.001
0.001
0.00101466
0.00101117
0.00102552
0.00100275
0.00100273
0.00100233
0.00100287
0.00100291
0.0719999
0.00101311
0.00100003
0.00100001
0.000999997
0.000999999
0.000999992
0.00101042
0.00100958
0.00101965
0.00100238
0.00100247
0.00100207
0.0010023
0.00100217
0.0719999
0.00101389
0.00100006
0.00100003
0.001
0.001
0.000999987
0.00100682
0.00100821
0.0010147
0.00100194
0.00100215
0.00100178
0.00100198
0.00100173
0.0719999
0.00101519
0.00100011
0.00100006
0.00100002
0.00100001
0.000999988
0.00100365
0.00100719
0.00101053
0.00100151
0.00100184
0.00100153
0.00100171
0.00100148
0.0719999
0.00101716
0.0010002
0.00100011
0.00100004
0.00100003
0.000999997
0.00100089
0.00100652
0.00100704
0.00100106
0.00100156
0.00100128
0.00100144
0.00100124
0.0719999
0.00101997
0.00100033
0.0010002
0.00100009
0.00100006
0.00100002
0.00100204
0.00100613
0.00100413
0.00100074
0.0010013
0.001001
0.00100117
0.00100102
0.0719999
0.00102383
0.00100049
0.00100033
0.00100017
0.00100011
0.00100005
0.00100459
0.00100606
0.00100229
0.00100053
0.00100107
0.00100072
0.00100093
0.0010008
0.0719999
0.00102897
0.0010007
0.0010005
0.0010003
0.00100021
0.00100011
0.00100734
0.0010063
0.00100296
0.00100046
0.0010009
0.00100038
0.00100071
0.0010006
0.0719999
0.00103572
0.00100096
0.00100071
0.00100046
0.00100035
0.00100021
0.00101035
0.00100679
0.00100506
0.0010005
0.00100081
0.00100016
0.00100046
0.00100038
0.0719999
0.00104444
0.00100129
0.00100097
0.00100067
0.00100052
0.00100037
0.00101366
0.00100751
0.00100759
0.00100067
0.00100082
0.0010001
0.00100023
0.00100019
0.0719999
0.00105557
0.0010017
0.0010013
0.00100092
0.00100075
0.00100056
0.00101726
0.00100841
0.0010105
0.0010009
0.00100093
0.00100018
0.00100013
0.00100007
0.0719999
0.00106967
0.00100223
0.00100171
0.00100124
0.00100102
0.0010008
0.00102114
0.00100937
0.00101373
0.00100117
0.0010011
0.0010004
0.00100016
0.00100003
0.00108755
0.0719999
0.00100287
0.00100223
0.00100164
0.00100137
0.00100109
0.00102528
0.00101031
0.00101715
0.00100148
0.00100132
0.00100065
0.00100031
0.00100006
0.00100373
0.00112416
0.0719999
0.00100287
0.00100213
0.0010018
0.00100146
0.00102955
0.00101115
0.00102087
0.00100175
0.00100155
0.00100088
0.00100055
0.00100017
0.0010037
0.0010055
0.00120454
0.0719999
0.00100274
0.00100234
0.00100192
0.00103387
0.00101179
0.00102484
0.00100195
0.00100176
0.00100112
0.00100077
0.00100036
0.00100353
0.0010054
0.0010093
0.00132956
0.0719999
0.00100301
0.00100249
0.00103811
0.00101227
0.00102899
0.00100211
0.00100198
0.00100135
0.00100102
0.00100055
0.00100386
0.00100517
0.00100893
0.00101561
0.00151744
0.0719999
0.00100321
0.0010422
0.00101264
0.00103321
0.00100234
0.00100225
0.00100155
0.00100132
0.00100075
0.0010041
0.00100564
0.00100853
0.00101446
0.00102569
0.00179915
0.0719999
0.00104611
0.00101301
0.00103744
0.00100263
0.00100256
0.00100179
0.00100159
0.00100095
0.00104937
0.00100601
0.00100933
0.00101378
0.00102258
0.00104216
0.00222228
0.0719999
0.00101317
0.00104151
0.00100303
0.00100295
0.00100213
0.0010019
0.00100111
0.00101384
0.00105544
0.0010099
0.00101502
0.00102142
0.00103424
0.00106971
0.00292045
0.0719999
0.0010453
0.0010037
0.00100342
0.00100257
0.00100224
0.00100133
0.00104824
0.00101459
0.00105911
0.00101588
0.00102325
0.00103221
0.00105067
0.00112053
0.00397342
0.0719999
0.00100468
0.0010041
0.00100311
0.00100264
0.00100163
0.00100607
0.00105401
0.00101706
0.00105988
0.00102442
0.00103465
0.00104695
0.00107314
0.00121994
0.00665092
0.0719999
0.00100506
0.00100389
0.00100316
0.00100196
0.00100635
0.00100869
0.00105784
0.00102162
0.00105702
0.0010361
0.00104966
0.00106591
0.0011069
0.001497
0.00890408
0.0290467
0.0010048
0.00100394
0.00100244
0.00100604
0.00100887
0.00101373
0.00105978
0.00102803
0.00105067
0.00105118
0.00106791
0.00109086
0.00114904
0.00194299
0.00812883
0.00130834
0.0568889
0.00100486
0.00100307
0.00100613
0.00100846
0.00101341
0.00102109
0.00106034
0.00103565
0.00104114
0.00106921
0.0010887
0.00111377
0.00126309
0.00221714
0.0012934
0.0011135
0.00119166
0.0568889
0.00100376
0.00100471
0.00100864
0.0010128
0.00101963
0.00103015
0.00106
0.0010433
0.00102944
0.00108885
0.00110521
0.00116182
0.0013082
0.00120426
0.00113063
0.00107144
0.00107793
0.00112462
0.0568889
0.00100657
0.00101301
0.00101895
0.00102706
0.00104072
0.00105934
0.00104991
0.00101825
0.00110611
0.00112719
0.00117672
0.00114995
0.00113255
0.00111519
0.00112441
0.00102079
0.00106372
0.00111102
0.0568889
0.00100974
0.00101906
0.00102665
0.00103528
0.00105235
0.00105875
0.001055
0.0010197
0.0011217
0.00112328
0.00113099
0.00112019
0.00112485
0.00111115
0.00110714
0.00108147
0.0010503
0.00108307
0.00111606
0.0568889
0.00101424
0.00102619
0.00103499
0.00104363
0.00106421
0.00105917
0.00105849
0.00103438
0.00112604
0.00109965
0.00111665
0.0011172
0.00107963
0.0011947
0.00154938
0.00119737
0.00107258
0.00107395
0.00110047
0.00112138
0.0568889
0.00101971
0.00103373
0.00104268
0.00105125
0.00107513
0.00106341
0.00106136
0.00104496
0.00111578
0.0010861
0.00111681
0.00107117
0.00119077
0.00123085
0.00306498
0.00142297
0.00262022
0.00742411
0.00754074
0.00115774
0.00108716
0.00109654
0.0011141
0.00112743
0.0568889
0.0010254
0.00104063
0.00104849
0.00105693
0.00108271
0.00107478
0.00106127
0.00104637
0.00110944
0.00108554
0.00109201
0.00115101
0.00116802
0.00383309
0.00653229
0.00517309
0.00136541
0.00630733
0.00826761
0.00837073
0.00580125
0.00734389
0.0074371
0.00110528
0.0011152
0.00111443
0.00112416
0.00113285
0.0568889
0.00103032
0.00104581
0.00105128
0.00105949
0.00108638
0.00109322
0.00106663
0.00104682
0.00110895
0.00107735
0.00114405
0.00108036
0.00219669
0.00917113
0.00917963
0.00567616
0.00564304
0.00674033
0.0105621
0.00128027
0.00239734
0.00695479
0.0084702
0.00842655
0.0105681
0.00960819
0.00948069
0.00112245
0.00113569
0.00112651
0.00113232
0.00113724
0.0568889
0.0010339
0.00104813
0.00105059
0.00105965
0.0010889
0.0011057
0.00106928
0.00104836
0.00112152
0.00111668
0.00111283
0.00178463
0.00667427
0.00657358
0.00629225
0.00617722
0.0120515
0.0120969
0.0107091
0.0107202
0.0110065
0.0131886
0.0150207
0.0136391
0.0150057
0.00132349
0.00256555
0.0095632
0.00964025
0.0100912
0.0101516
0.0110799
0.0102245
0.0102536
0.0134594
0.0150697
0.0138889
0.0150388
0.0131559
0.0147022
0.0136498
0.0149725
0.013316
0.0146065
0.0137367
0.0150832
0.00113937
0.001144
0.00113792
0.00113804
0.00114027
0.0568889
0.00103545
0.00104672
0.0010482
0.00105664
0.00109565
0.00112651
0.00107245
0.00106021
0.00113428
0.00118305
0.00166138
0.00570176
0.00561594
0.00504171
0.00501265
0.0102502
0.0100881
0.0101058
0.00991877
0.0147721
0.0146008
0.0143148
0.0145194
0.0136961
0.0133666
0.0145232
0.0147917
0.0143577
0.0145587
0.0137416
0.0134332
0.0140695
0.0129423
0.0142957
0.0128998
0.0140848
0.0128416
0.0143308
0.0129004
0.0142503
0.014966
0.0143055
0.0145269
0.0130649
0.0144786
0.0133511
0.0141565
0.00136012
0.00288846
0.00827408
0.00811493
0.00885854
0.0088941
0.0123227
0.0123236
0.0148151
0.0148039
0.0145631
0.0150416
0.0145277
0.0146445
0.0130865
0.0142742
0.0141055
0.0144747
0.0133479
0.014317
0.0142317
0.0144925
0.0133631
0.0144403
0.0137128
0.0140743
0.0130694
0.0139843
0.0131621
0.0141427
0.00113047
0.00115354
0.00114475
0.00114126
0.00114204
0.0568889
0.00103407
0.00104277
0.00104199
0.00106849
0.00109277
0.0011462
0.00108391
0.00108181
0.00128636
0.00160566
0.00536747
0.00537766
0.00516297
0.005187
0.00930022
0.00909984
0.00776165
0.00752765
0.0140008
0.0129139
0.0140354
0.0129621
0.0139592
0.0126383
0.0139525
0.0126687
0.0137454
0.0125212
0.0139744
0.0128693
0.0136372
0.012254
0.013862
0.0125754
0.0145473
0.0146879
0.0132045
0.0136548
0.0142278
0.0129829
0.0145565
0.0146746
0.0135948
0.0132022
0.0141932
0.0129712
0.0135892
0.0121443
0.013872
0.0124755
0.0134665
0.0119791
0.0138033
0.0124012
0.0141415
0.0145912
0.0138113
0.0145351
0.0114689
0.011964
0.0118988
0.0114
0.00132307
0.00265202
0.0094018
0.00914726
0.00884924
0.00858412
0.0120446
0.0117081
0.0114768
0.0112688
0.0156026
0.0143298
0.0161013
0.0146663
0.0155604
0.0143377
0.0160772
0.0146868
0.0160014
0.0151762
0.0142759
0.0163027
0.0152753
0.0162691
0.0159766
0.015199
0.0142574
0.0162501
0.015248
0.0164249
0.0145151
0.0146273
0.0141246
0.0145934
0.0141021
0.0151833
0.014458
0.0152183
0.0115014
0.0120831
0.0120467
0.0116784
0.0118475
0.0125919
0.0117661
0.0128989
0.00116933
0.0011583
0.00114726
0.00114247
0.00114304
0.0568889
0.00103017
0.00103357
0.00105013
0.00105857
0.00111651
0.0012012
0.00110721
0.00116296
0.001463
0.00499569
0.00502637
0.00526542
0.00531069
0.00579327
0.00582957
0.00478511
0.0047851
0.0135494
0.011915
0.0134015
0.0113895
0.0134345
0.0116725
0.0132801
0.0111739
0.0121181
0.0105124
0.0131216
0.010766
0.011944
0.0105081
0.0129949
0.0105818
0.0135498
0.0116869
0.013761
0.0113626
0.0134042
0.0114172
0.0136145
0.0110745
0.0134356
0.0110517
0.0137524
0.0110219
0.013284
0.0108023
0.0135921
0.0107397
0.0126651
0.0126538
0.0120755
0.0133382
0.001255
0.00198287
0.00757842
0.00746782
0.00883839
0.00873724
0.0118564
0.0115082
0.0125453
0.0122017
0.0153747
0.0146116
0.0152176
0.0143325
0.0150046
0.0141368
0.0149272
0.0139224
0.0150205
0.0139468
0.0148945
0.0139013
0.0148649
0.013754
0.0146836
0.0136154
0.0148749
0.013851
0.0148411
0.0137478
0.0148049
0.0137793
0.0147027
0.0136417
0.0154105
0.0148838
0.0126457
0.0135991
0.0146848
0.0128006
0.0154064
0.0146598
0.0123543
0.013619
0.0144282
0.0125206
0.0127741
0.0126568
0.0121221
0.0133352
0.0135987
0.0146536
0.0138525
0.0146308
0.00118124
0.00115732
0.00114675
0.00114268
0.0011481
0.0568889
0.00102183
0.00103778
0.00104193
0.00110053
0.00111684
0.00132794
0.00127787
0.00136604
0.00179636
0.00400419
0.00398368
0.00259899
0.00259933
0.00957537
0.00958759
0.00869811
0.0087023
0.0133036
0.0112019
0.013196
0.0108818
0.0131637
0.0110336
0.0130437
0.0107981
0.0126103
0.0103724
0.0132015
0.0106038
0.012479
0.0104908
0.0130727
0.0106028
0.0126727
0.0096588
0.0124078
0.00930221
0.00124937
0.00142616
0.00779273
0.00788332
0.00789635
0.0078311
0.00879323
0.00884295
0.00925665
0.00880699
0.0139085
0.0149176
0.0140437
0.0146282
0.0135927
0.0145232
0.0138003
0.0141156
0.014947
0.0151745
0.0145803
0.0152956
0.0145514
0.0146787
0.0141756
0.0148281
0.0150175
0.0138944
0.0148724
0.0136997
0.0148626
0.0134754
0.014798
0.0135915
0.0145769
0.0136628
0.014655
0.0135645
0.0144993
0.0135257
0.0145995
0.0136185
0.00117443
0.001153
0.00114527
0.00114696
0.00126745
0.0568889
0.001022
0.001031
0.0010698
0.00109153
0.00127109
0.00172763
0.00249128
0.00136522
0.00619597
0.0061959
0.00690998
0.00690976
0.00769297
0.00767882
0.00653991
0.0066602
0.0117663
0.0136089
0.0120656
0.013602
0.0117782
0.0136134
0.0120564
0.0136384
0.0113066
0.0131172
0.0110026
0.0134009
0.0112905
0.0131697
0.0109566
0.0134581
0.0122787
0.00968896
0.0124972
0.00988804
0.0120492
0.009481
0.0122501
0.00968367
0.013695
0.0116533
0.0131946
0.0106269
0.0136213
0.0114959
0.0130028
0.0104025
0.00121093
0.00145593
0.00287554
0.00880286
0.00874987
0.00831694
0.0083682
0.0107058
0.0111677
0.0138451
0.0137458
0.0146431
0.0152712
0.0143184
0.0149308
0.0144203
0.0152472
0.0142702
0.0146304
0.0140503
0.0143253
0.014103
0.0149395
0.0138799
0.0137808
0.0138978
0.014487
0.0140353
0.0138152
0.0141474
0.0134009
0.00116131
0.00114846
0.0011481
0.00126535
0.00416815
0.0719993
0.00101953
0.00104511
0.00110357
0.00117638
0.00146916
0.00414346
0.0324419
0.0145821
0.00751217
0.00741639
0.00667852
0.00673193
0.0126484
0.0103042
0.00969676
0.011347
0.012706
0.0103232
0.0097707
0.0113879
0.00870932
0.0086693
0.0100669
0.0134287
0.0104663
0.0133735
0.00997597
0.0134027
0.0103693
0.0133717
0.00997209
0.0130694
0.00996456
0.0132746
0.00990007
0.0131187
0.00999069
0.0133041
0.0135424
0.0102071
0.0135134
0.0100942
0.00117455
0.00128232
0.0023845
0.00942846
0.00924428
0.00778953
0.00783689
0.0111106
0.0113155
0.00958151
0.00907851
0.0137816
0.0148319
0.0136182
0.0153563
0.014195
0.0151049
0.0140813
0.0156397
0.0151741
0.0153418
0.0141513
0.0157497
0.0150666
0.0153487
0.014112
0.0157852
0.0149491
0.0131546
0.0140632
0.0135976
0.0149241
0.0132508
0.0140245
0.0136334
0.0118016
0.0132554
0.0129468
0.0136826
0.0113224
0.0128346
0.0127688
0.0135473
0.00115149
0.00114895
0.00126431
0.00416049
0.0719993
0.00102143
0.00107181
0.00111525
0.00139215
0.00290365
0.0218573
0.0867487
0.0206204
0.022133
0.0502419
0.0548293
0.0131319
0.0109901
0.0125282
0.0111781
0.0131495
0.0108664
0.0125897
0.0112549
0.0123331
0.0126765
0.0128101
0.00953819
0.00926118
0.0119854
0.0129159
0.00967455
0.00935621
0.0120702
0.0134098
0.0113534
0.0135653
0.0117556
0.0134891
0.0112246
0.0136546
0.0117009
0.00911182
0.0132144
0.00951528
0.0131578
0.00902247
0.0132878
0.00947802
0.0132123
0.00115296
0.0011936
0.00171372
0.00583451
0.0137256
0.0130453
0.0146437
0.0143608
0.0142749
0.0145062
0.0141832
0.0132904
0.0140349
0.014172
0.013982
0.0126037
0.0136127
0.0139738
0.0139365
0.0159102
0.0142235
0.0156299
0.0141805
0.0160384
0.0144153
0.0157532
0.0146645
0.0150036
0.0136195
0.0153175
0.0146864
0.0150081
0.0137838
0.0153103
0.015067
0.0131691
0.0150961
0.0134539
0.00114862
0.00126115
0.00414318
0.0719993
0.00105731
0.00107267
0.00124186
0.00198692
0.019642
0.0473496
0.115485
0.117891
0.095864
0.0958852
0.0228875
0.0253137
0.0528475
0.0597599
0.0133065
0.00927575
0.0131119
0.0107174
0.0133321
0.00934199
0.0131792
0.0109127
0.0132408
0.0166704
0.0162532
0.0150429
0.0136305
0.0175063
0.017362
0.0153593
0.0134631
0.0100964
0.0110504
0.0136783
0.0135814
0.0101355
0.0110258
0.0137837
0.0132678
0.00851563
0.0132723
0.00828954
0.0132974
0.00842766
0.0132935
0.00815792
0.00114557
0.00114832
0.00124982
0.00374945
0.0147872
0.0142571
0.0171891
0.016946
0.0182448
0.0179808
0.0183701
0.0174864
0.0181657
0.0186584
0.0181204
0.0171127
0.017768
0.018092
0.0179369
0.0168465
0.0175492
0.0162348
0.0155909
0.0159685
0.0180694
0.0170956
0.0176733
0.0164208
0.0155283
0.0159859
0.0160229
0.0150456
0.0160179
0.0146483
0.013918
0.0163349
0.0143014
0.0156133
0.0141105
0.0163892
0.014362
0.0157316
0.00125424
0.00410587
0.0719993
0.00104517
0.00114889
0.00140695
0.0135595
0.0271353
0.0452922
0.112723
0.115108
0.0965143
0.0965706
0.022453
0.0182187
0.0156708
0.0280051
0.0230217
0.0148506
0.019129
0.0238233
0.0160177
0.0166053
0.0305026
0.0248152
0.0628509
0.0622626
0.0393896
0.0376355
0.0684653
0.0637456
0.0439606
0.0411257
0.0139996
0.00942029
0.0144586
0.0109115
0.0140858
0.00945802
0.0145931
0.0110297
0.011311
0.0162635
0.0119121
0.0167227
0.00784475
0.0133248
0.00768929
0.0133534
0.0136022
0.00846609
0.0136859
0.0084792
0.00124181
0.00113672
0.00112622
0.00219131
0.0115113
0.0113015
0.0129564
0.0128225
0.0196722
0.0191076
0.0216297
0.0214702
0.0194934
0.0208024
0.0224088
0.0201066
0.019832
0.0186319
0.0192984
0.0205649
0.0220741
0.0200381
0.0194812
0.018342
0.0185129
0.0180469
0.0184246
0.0176203
0.0176371
0.0159429
0.0173984
0.0170798
0.0149581
0.0149836
0.0177687
0.0160691
0.01745
0.017113
0.0152684
0.0151865
0.0162293
0.0153108
0.0163384
0.0149607
0.00403622
0.0719993
0.00114451
0.00115377
0.00508539
0.0100978
0.0105797
0.0905778
0.0997644
0.057973
0.0602635
0.120383
0.124136
0.103499
0.105645
0.0200693
0.0247931
0.0179098
0.0128705
0.0299918
0.0263228
0.0209795
0.025775
0.0134578
0.0181041
0.0310391
0.0268434
0.0732362
0.0826039
0.0424058
0.044196
0.0735661
0.0808914
0.0428493
0.0447752
0.0151476
0.00927707
0.0153825
0.00957146
0.00392273
0.00122246
0.00112038
0.00122257
0.00691305
0.0156318
0.015472
0.0159873
0.0151707
0.0212892
0.0219503
0.021947
0.0226566
0.0206549
0.0215589
0.0215244
0.0219872
0.020902
0.0212425
0.0205469
0.0223979
0.0228256
0.0228457
0.0208697
0.0211332
0.0206087
0.0223319
0.0227941
0.0227239
0.0186677
0.0170061
0.0196511
0.0191148
0.0188638
0.0170607
0.0197679
0.0191709
0.0186365
0.0177864
0.0187871
0.0174758
0.0174067
0.016223
0.0171586
0.0145424
0.0175826
0.0161657
0.0171972
0.0148375
0.0719993
0.00109133
0.00190389
0.00429737
0.00701229
0.012188
0.119835
0.143668
0.0783317
0.087246
0.132074
0.149601
0.13693
0.140219
0.141189
0.156742
0.142662
0.149956
0.131119
0.14298
0.122312
0.116042
0.0823176
0.079631
0.121693
0.11717
0.07859
0.0784255
0.0719993
0.00376005
0.00119757
0.00111264
0.00225797
0.016432
0.0163477
0.0184781
0.0184431
0.0168869
0.0169361
0.0189253
0.0187482
0.021624
0.0216743
0.0217319
0.0222156
0.021212
0.0215577
0.021694
0.0217565
0.0203592
0.0203074
0.0179799
0.0181976
0.0216221
0.0193719
0.0203781
0.0202706
0.0182799
0.0180554
0.0217475
0.0199598
0.0165325
0.018177
0.0170873
0.0182585
0.00134684
0.0021004
0.002347
0.00351399
0.0775964
0.0771098
0.0593698
0.0542174
0.177176
0.207135
0.137247
0.148676
0.147177
0.16221
0.150502
0.141991
0.148544
0.170098
0.151691
0.151493
0.165415
0.196677
0.158919
0.186625
0.202259
0.204391
0.184889
0.190511
0.16105
0.146242
0.163338
0.150641
0.0719979
0.00355575
0.00117724
0.00117801
0.00911461
0.020868
0.0208484
0.0220522
0.0219855
0.0228813
0.0228646
0.0236739
0.0222407
0.0227672
0.0228305
0.0234708
0.0221684
0.0223955
0.022644
0.0225349
0.0209932
0.0225195
0.0222383
0.022574
0.0210496
0.0224702
0.0217257
0.00186589
0.00200774
0.00172466
0.00625165
0.149434
0.137961
0.102435
0.0848174
0.175002
0.207034
0.221413
0.200231
0.227382
0.19911
0.213673
0.225458
0.251152
0.266328
0.264133
0.235622
0.193012
0.193984
0.178905
0.169216
0.161659
0.160506
0.18145
0.185274
0.168925
0.181777
0.172843
0.196002
0.210513
0.208415
0.0719922
0.0033181
0.00116903
0.00212284
0.0196228
0.0195984
0.0195176
0.0194361
0.0225187
0.0229002
0.0232375
0.0233535
0.0253899
0.0260971
0.0258288
0.0246088
0.0245615
0.0248113
0.0253869
0.0261069
0.0259486
0.0247747
0.024394
0.0248169
0.0231398
0.02238
0.0232246
0.0227369
0.022185
0.020919
0.0228086
0.0220272
0.00153916
0.00179967
0.00157867
0.0678577
0.0517417
0.0558089
0.0520833
0.229938
0.232264
0.169874
0.131822
0.198504
0.225771
0.228631
0.210686
0.229747
0.206369
0.263499
0.251173
0.276887
0.308653
0.287902
0.284518
0.242618
0.258203
0.265743
0.267602
0.237959
0.260139
0.292619
0.287043
0.0719775
0.00302139
0.00124727
0.00874397
0.0230783
0.0229223
0.0213129
0.0210887
0.0248041
0.0251148
0.025677
0.0261537
0.0268451
0.0266882
0.0259892
0.0266931
0.0272668
0.0269976
0.0262434
0.026911
0.0258423
0.0263286
0.0260426
0.024548
0.0263828
0.0212218
0.0262496
0.025017
0.0263436
0.0221773
0.0233519
0.0198895
0.0238881
0.020996
0.00152703
0.00130578
0.00210393
0.108434
0.100788
0.0505348
0.0470028
0.254801
0.258072
0.266648
0.243501
0.260646
0.243361
0.267778
0.26282
0.258506
0.220994
0.24936
0.2131
0.210438
0.197492
0.265737
0.267329
0.315785
0.351514
0.290159
0.272667
0.346419
0.313728
0.0719467
0.00271336
0.00161854
0.0228219
0.0229744
0.0248077
0.0247072
0.0222911
0.0219549
0.0283687
0.0283573
0.0296374
0.029427
0.0289981
0.0276608
0.0279007
0.0278978
0.029645
0.0278793
0.028332
0.0296655
0.0291309
0.0279194
0.0260966
0.0240635
0.0282032
0.0274743
0.0280987
0.0262496
0.0278742
0.0243135
0.00119227
0.00216821
0.00246733
0.155987
0.153889
0.0869465
0.0859067
0.275373
0.261354
0.276613
0.307417
0.288788
0.271695
0.261181
0.254502
0.263901
0.252608
0.262144
0.227
0.178855
0.242681
0.212126
0.245766
0.180069
0.23779
0.207673
0.245168
0.303525
0.270077
0.343496
0.294241
0.0718876
0.00224336
0.00487032
0.0234853
0.0231618
0.0248056
0.0239609
0.0316638
0.031746
0.0316623
0.0312847
0.0332802
0.033736
0.0319628
0.0333272
0.0316107
0.0313042
0.0333471
0.0334434
0.0319518
0.0330361
0.030396
0.0273903
0.0281929
0.0258646
0.0272933
0.0254088
0.0304049
0.0282854
0.00176689
0.00175361
0.138356
0.114722
0.11397
0.136305
0.099122
0.0999054
0.226497
0.181119
0.255775
0.226822
0.180649
0.257579
0.311097
0.282632
0.284958
0.330147
0.310362
0.296263
0.265583
0.2534
0.270506
0.330446
0.295263
0.262033
0.218964
0.2454
0.218795
0.253746
0.0717744
0.00164548
0.016002
0.0271139
0.02605
0.0312036
0.0298516
0.0364354
0.0362162
0.0368286
0.0358398
0.0346805
0.0353396
0.0354602
0.0344684
0.0353322
0.0354475
0.0363735
0.0358902
0.033223
0.0309404
0.0352507
0.0333768
0.0331978
0.0309198
0.0351388
0.0331999
0.0319478
0.0285915
0.0320565
0.0286866
0.00127807
0.00596037
0.204501
0.206475
0.201728
0.205427
0.125554
0.126342
0.267258
0.245543
0.412045
0.239406
0.342801
0.357819
0.235621
0.325306
0.245391
0.26605
0.415973
0.239485
0.346175
0.355424
0.233634
0.3245
0.250335
0.251527
0.255428
0.248247
0.262173
0.275583
0.262602
0.284884
0.0715405
0.00267641
0.0374389
0.0363504
0.0353836
0.0355983
0.0430077
0.042811
0.0423381
0.0370698
0.0366754
0.041923
0.0361442
0.0351984
0.0355428
0.0365755
0.0325084
0.0361287
0.0356596
0.0325414
0.0361973
0.0356346
0.0339086
0.0315565
0.0350588
0.0327253
0.0338646
0.0314397
0.0348159
0.0325071
0.00116395
0.0820481
0.332903
0.358067
0.239911
0.29071
0.325322
0.355365
0.23899
0.293944
0.189042
0.189645
0.286357
0.293683
0.262917
0.316029
0.383458
0.349306
0.284964
0.262814
0.293235
0.324349
0.380051
0.348193
0.268008
0.266909
0.275551
0.266074
0.0711729
0.0066312
0.0494051
0.0292116
0.0288642
0.0478853
0.0406603
0.0399453
0.0426489
0.0426869
0.0451184
0.0400902
0.0448014
0.0430891
0.0396607
0.0406126
0.0422187
0.042342
0.0447623
0.0394718
0.0442322
0.042729
0.0390715
0.040038
0.0347808
0.0382375
0.0304688
0.0384161
0.0348916
0.0312544
0.0379315
0.0382828
0.00217775
0.369412
0.229507
0.22754
0.330615
0.142901
0.1316
0.350876
0.460406
0.355866
0.56286
0.343761
0.392362
0.396505
0.468988
0.424286
0.366537
0.419401
0.350699
0.46067
0.347835
0.554106
0.339035
0.394125
0.392967
0.470746
0.419118
0.366892
0.423319
0.303487
0.370396
0.357137
0.399424
0.302667
0.365299
0.354348
0.396943
0.0706553
0.0236861
0.0454729
0.0482515
0.0363574
0.0381103
0.0482372
0.036285
0.0381465
0.0399452
0.0485265
0.0461469
0.041108
0.0420265
0.0408003
0.0342807
0.0392546
0.0384927
0.0413127
0.0422129
0.0405129
0.0393259
0.0342173
0.0384248
0.0353389
0.0314309
0.035448
0.0321599
0.0047145
0.478682
0.435678
0.44945
0.36162
0.148355
0.126735
0.370826
0.426889
0.524396
0.466953
0.446718
0.502248
0.509876
0.465113
0.832611
0.469114
0.618857
0.742636
0.476996
0.659904
0.363755
0.421386
0.459388
0.52686
0.445221
0.499739
0.462241
0.498675
0.821512
0.463578
0.620269
0.718368
0.459087
0.647396
0.0704379
0.14388
0.0625019
0.061092
0.146076
0.093384
0.0875947
0.0515131
0.0504874
0.0426996
0.0402481
0.0468453
0.052842
0.0478164
0.0432599
0.0503374
0.050843
0.0435384
0.0420943
0.0473352
0.0523003
0.048193
0.0455001
0.061379
0.0519194
0.0547755
0.061602
0.0505493
0.0515472
0.0425863
0.0425042
0.0388525
0.0417855
0.0427528
0.0431708
0.0387702
0.0426515
0.00297859
0.741924
0.678237
0.503514
0.47604
0.715443
0.659835
0.478495
0.402921
0.141584
0.10098
0.460277
0.522361
0.520451
0.613608
0.552349
0.578395
0.515753
0.685094
0.865059
0.705188
0.457425
0.518065
0.516604
0.599706
0.543753
0.513131
0.557666
0.66893
0.828893
0.670147
0.0701625
0.117528
0.053591
0.0515042
0.108969
0.0320661
0.0367541
0.0407915
0.0436309
0.0348262
0.0341964
0.0458446
0.0443355
0.0414839
0.0453367
0.0364108
0.0380375
0.0467756
0.0466853
0.059133
0.0514161
0.051512
0.0543489
0.0616977
0.0578298
0.064754
0.0680837
0.0587647
0.0534724
0.0553285
0.054956
0.0629108
0.0582509
0.0631346
0.0665061
0.00250313
0.0179676
0.0157416
0.966377
0.813307
0.758271
0.97136
0.700072
0.202994
0.922549
0.777711
0.714329
0.93022
0.664369
0.141
0.561239
0.635363
0.824293
0.82668
0.738364
0.814101
0.554619
0.618982
0.743153
0.791831
0.695564
0.754255
0.0691821
0.0462564
0.0666609
0.0651883
0.0655389
0.0663231
0.0635127
0.0654212
0.0353025
0.0112418
0.0183461
0.0425582
0.035459
0.0452342
0.0397538
0.0486039
0.0472575
0.0466169
0.0439384
0.0497895
0.0602047
0.0467063
0.0411693
0.0383898
0.0624128
0.0497546
0.0609426
0.0486277
0.042357
0.0415554
0.0611963
0.00209387
0.0315959
0.052566
0.0220346
0.0258179
0.804193
1.18226
1.05777
1.23267
0.897845
1.17555
1.04416
0.175954
0.754995
1.11065
0.941497
1.15821
0.86663
1.11502
1.00155
0.117126
0.743557
0.773484
0.69093
0.746745
0.0685184
0.0104494
0.00862866
0.0586157
0.0738465
0.0661926
0.0770176
0.067906
0.0584931
0.0736745
0.0655688
0.0765936
0.0680327
0.00521479
0.00669893
0.0505635
0.0449965
0.0649449
0.0461995
0.0366648
0.0686146
0.0498854
0.0463656
0.0655159
0.0383122
0.0469817
0.0679868
0.00157387
0.0386762
0.0255902
0.0221958
0.0190954
0.221343
0.122803
0.771646
1.09326
0.807341
1.08331
0.778101
1.34594
1.53993
1.35732
1.3978
1.17808
0.983205
0.721986
1.06598
0.781678
1.05431
0.7513
1.19234
1.45445
1.28348
1.12659
1.15303
0.990197
0.0685231
0.0114094
0.00893874
0.0117716
0.00999014
0.0504822
0.068378
0.0644347
0.0697937
0.0649768
0.0615142
0.0727169
0.0500686
0.0687997
0.0641952
0.070029
0.0652477
0.0608826
0.0706695
0.0135276
0.0157033
0.0572904
0.0643592
0.0572318
0.0635131
0.00265117
0.0432269
0.059589
0.0401369
0.043351
0.258922
0.227993
0.161784
0.185125
0.720197
0.661289
1.03048
0.78851
1.06027
0.763655
1.39244
1.56657
1.35649
1.61534
1.57495
1.63096
1.38549
1.77651
1.02863
0.760411
1.05529
0.72839
1.32455
1.38507
1.24797
1.52828
1.48793
1.5857
1.33063
1.68853
0.0691927
0.0089359
0.0114804
0.0100079
0.0119497
0.00758353
0.0137301
0.0583515
0.0619449
0.0609733
0.0625713
0.0616058
0.0649474
0.0642921
0.0694174
0.0665
0.0462382
0.0440445
0.0580243
0.0614437
0.0603548
0.0616669
0.0614606
0.0652557
0.0639479
0.069742
0.0664653
0.045893
0.0425929
0.00182771
0.0999961
0.0960661
0.0885002
0.0847582
0.199511
0.22585
0.173752
0.209784
0.709232
0.596644
0.641405
0.542897
0.96211
0.70465
0.990869
0.698812
0.946697
0.6612
0.930327
0.657794
1.00988
1.03996
1.14541
0.858398
0.990468
0.971748
1.11209
0.814556
0.0701706
0.0105153
0.0474969
0.00861907
0.0366401
0.00756553
0.0131015
0.0138787
0.0160971
0.0546814
0.0549911
0.0687036
0.0595393
0.0653101
0.061011
0.060458
0.0576561
0.0576318
0.0610732
0.0638228
0.0559817
0.0606342
0.062502
0.0683968
0.059404
0.0652592
0.0618146
0.0602461