/*--------------------------------*- C++ -*----------------------------------*\
| =========                 |                                                 |
| \\      /  F ield         | OpenFOAM: The Open Source CFD Toolbox           |
|  \\    /   O peration     | Version:  5.x                                   |
|   \\  /    A nd           | Web:      www.OpenFOAM.org                      |
|    \\/     M anipulation  |                                                 |
\*---------------------------------------------------------------------------*/
FoamFile
{
    version     2.0;
    format      ascii;
    class       volScalarField;
    location    "0.2";
    object      p;
}
// * * * * * * * * * * * * * * * * * * * * * * * * * * * * * * * * * * * * * //

dimensions      [1 -1 -2 0 0 0 0];

internalField   nonuniform List<scalar> 
12160
(
5174.36
5167.12
4523.67
5125.15
4514.71
3880.36
5081.52
4472.01
3865.73
3237.22
5045.22
4427.07
3820.44
3215.71
2604.91
5009.42
4390.29
3772.38
3167.8
2571.59
1975.78
4983.49
4354.31
3734.47
3115.86
2518.89
1926.34
1353.69
4961.58
4328.38
3698.08
3077.04
2460.21
1868.09
1282.82
744.41
4945.46
4306.62
3672.15
3040.32
2419.52
1800.95
1218.3
644.952
260.609
4933.29
4290.66
3650.7
3014.59
2381.95
1758.98
1140.7
570.567
174.036
21.8109
4924.31
4278.65
3635.06
2993.7
2356.29
1720.91
1098.35
476.134
124.46
7.47858
-7.09571
4917.69
4269.81
3623.37
2978.6
2336
1695.84
1059.92
432.076
68.4782
-0.675848
-6.98085
-7.77878
4912.84
4263.31
3614.8
2967.42
2321.53
1676.64
1035.75
392.538
46.9157
-4.8065
-6.90685
-7.67826
-8.35496
4909.28
4258.54
3608.53
2959.28
2310.98
1663.22
1017.7
369.651
28.0649
-5.6154
-6.81388
-7.58585
-8.28078
-8.93357
4906.67
4255.05
3603.95
2953.37
2303.38
1653.6
1005.29
353.705
17.3214
-5.95152
-6.78478
-7.48196
-8.2217
-8.88997
-9.51614
4904.78
4252.5
3600.61
2949.07
2297.9
1646.78
996.56
343.285
9.85261
-6.06009
-6.77213
-7.45662
-8.1518
-8.85721
-9.50254
4903.41
4250.65
3598.17
2945.95
2293.96
1641.93
990.455
336.347
4.90942
-6.11829
-6.78116
-7.44838
-8.13315
-8.81657
-9.49267
4902.44
4249.32
3596.41
2943.68
2291.11
1638.48
986.17
331.71
1.58441
-6.15032
-6.80046
-7.45461
-8.12516
-8.80543
-9.47896
4901.76
4248.37
3595.14
2942.05
2289.06
1636.01
983.153
328.589
-0.660963
-6.17224
-6.81831
-7.46905
-8.12832
-8.79992
-9.47555
4901.3
4247.71
3594.24
2940.88
2287.59
1634.25
981.026
326.474
-2.18531
-6.18866
-6.83424
-7.4827
-8.13792
-8.80129
-9.47354
4901
4247.27
3593.62
2940.05
2286.54
1633
979.525
325.036
-3.22388
-6.20111
-6.84761
-7.49533
-8.14748
-8.80676
-9.47384
4900.81
4246.98
3593.19
2939.47
2285.8
1632.11
978.467
324.055
-3.93333
-6.20931
-6.85801
-7.50625
-8.15663
-8.81243
-9.47559
4900.69
4246.79
3592.91
2939.08
2285.29
1631.48
977.721
323.384
-4.4171
-6.21227
-6.86465
-7.51485
-8.16469
-8.818
-9.47745
4900.62
4246.67
3592.74
2938.82
2284.93
1631.04
977.197
322.924
-4.74573
-6.20969
-6.8666
-7.52024
-8.17104
-8.82296
-9.47933
4900.57
4246.6
3592.62
2938.65
2284.7
1630.74
976.829
322.604
-4.96894
-6.20255
-6.86337
-7.52157
-8.1749
-8.82685
-9.48102
4900.56
4246.55
3592.54
2938.54
2284.54
1630.54
976.57
322.38
-5.12273
-6.19328
-6.85594
-7.51854
-8.17557
-8.82916
-9.48234
4900.6
4246.53
3592.49
2938.46
2284.43
1630.4
976.388
322.218
-5.23172
-6.18537
-6.84683
-7.51207
-8.17289
-8.82943
-9.48312
4900.71
4246.57
3592.47
2938.41
2284.36
1630.3
976.26
322.099
-5.31363
-6.1823
-6.83941
-7.50438
-8.16767
-8.8276
-9.48317
4900.93
4246.68
3592.51
2938.39
2284.31
1630.23
976.171
322.011
-5.37763
-6.18601
-6.83706
-7.49844
-8.16174
-8.82424
-9.4825
4901.24
4246.89
3592.63
2938.43
2284.3
1630.2
976.114
321.95
-5.42774
-6.19589
-6.84121
-7.49693
-8.15737
-8.82051
-9.48131
4901.66
4247.2
3592.83
2938.54
2284.34
1630.19
976.086
321.914
-5.46401
-6.20872
-6.85102
-7.50101
-8.15661
-8.8179
-9.48002
4902.2
4247.61
3593.12
2938.73
2284.44
1630.23
976.09
321.9
-5.48547
-6.21996
-6.86316
-7.50966
-8.16016
-8.81765
-9.47914
4902.88
4248.13
3593.5
2938.99
2284.61
1630.32
976.127
321.907
-5.49196
-6.22568
-6.87331
-7.51988
-8.16706
-8.82011
-9.47911
4903.74
4248.79
3593.98
2939.33
2284.83
1630.45
976.198
321.93
-5.48537
-6.2244
-6.87796
-7.52799
-8.17487
-8.82457
-9.48002
4904.82
4249.62
3594.6
2939.77
2285.13
1630.63
976.303
321.968
-5.46909
-6.21751
-6.87612
-7.53124
-8.18075
-8.82942
-9.4816
4906.16
4250.67
3595.39
2940.34
2285.51
1630.86
976.444
322.018
-5.44629
-6.20844
-6.86947
-7.52911
-8.18279
-8.83288
-9.48327
4907.81
4251.98
3596.39
2941.06
2286
1631.17
976.63
322.084
-5.41842
-6.20051
-6.86139
-7.52333
-8.18084
-8.83387
-9.48441
4909.82
4253.59
3597.62
2941.97
2286.63
1631.57
976.874
322.171
-5.38436
-6.19551
-6.85457
-7.51672
-8.17641
-8.83247
-9.48468
4912.26
4255.54
3599.14
2943.09
2287.42
1632.08
977.19
322.285
-5.34112
-6.19328
-6.85036
-7.51141
-8.17163
-8.82969
-9.48415
4915.22
4257.91
3600.98
2944.47
2288.41
1632.73
977.594
322.435
-5.28512
-6.19281
-6.84827
-7.5081
-8.16788
-8.82686
-9.4832
4260.79
4921.09
3603.22
2946.15
2289.61
1633.52
978.102
322.628
-5.21284
-6.19369
-6.84749
-7.50625
-8.16546
-8.82467
-9.48226
3605.95
4266.52
4933.17
2948.21
2291.1
1634.51
978.741
322.876
-5.12025
-6.19652
-6.84813
-7.50537
-8.1639
-8.82317
-9.48154
2950.71
3611.38
4278.3
4950.35
2292.91
1635.73
979.541
323.197
-5.00111
-6.20188
-6.85117
-7.50596
-8.16306
-8.82208
-9.48101
2295.13
2955.71
3622.59
4295.09
4973.57
1637.23
980.54
323.611
-4.84588
-6.20883
-6.85706
-7.50905
-8.16366
-8.82149
-9.48059
1639.08
2299.57
2966.06
3638.59
4317.8
5003.86
981.777
324.145
-4.64239
-6.21459
-6.86428
-7.5147
-8.16653
-8.82204
-9.48038
983.305
1642.78
2308.82
2980.88
3660.27
4347.44
5041.75
324.823
-4.3779
-6.21598
-6.86952
-7.52093
-8.17131
-8.8242
-9.48063
325.674
986.389
1650.55
2322.15
3001.06
3688.61
4384.55
5088.44
-4.04157
-6.2119
-6.86986
-7.5246
-8.17598
-8.82742
-9.48149
-3.62082
327.433
992.919
1661.87
2340.42
3027.5
3724.12
4430.38
5139.2
-6.20388
-6.86512
-7.52366
-8.178
-8.83012
-9.48264
-6.1948
-2.76199
331.313
1002.55
1677.56
2364.48
3060.7
3767.68
4482.57
5214.12
-6.85776
-7.51889
-8.17638
-8.8308
-9.48348
-6.85045
-6.18103
-0.892361
337.36
1016.05
1698.47
2394.84
3101.15
3817.42
4553.8
5183.17
-7.51288
-8.17244
-8.82928
-9.48355
-7.50737
-6.83919
-6.15665
1.95787
346.384
1034.23
1725.14
2431.66
3147.49
3880.63
4606.41
5449.73
-8.16828
-8.8268
-9.48293
-8.16467
-7.4983
-6.8176
-6.12536
6.09991
359.372
1057.59
1757.64
2473.8
3202.62
3931.49
4743.42
5528.57
6278.84
-8.82458
-9.48213
-8.82262
-8.15803
-7.47999
-6.79058
-6.08859
11.887
377.238
1086.12
1794.9
2521.42
3253.38
4028.78
4789.96
5576.61
6305.77
7055.64
-9.48149
-9.48087
-8.81847
-8.14401
-7.45761
-6.76313
-6.04769
19.6302
400.479
1118.77
1835.94
2567.01
3317.01
4066.27
4833.03
5600.63
6334.58
7074.51
7827.25
-9.4794
-8.80955
-8.12745
-7.43671
-6.74191
-5.99419
29.5133
428.55
1154.04
1875.21
2612.91
3349.1
4101.44
4852.41
5618.67
6357.59
7096.28
7839.74
8588.53
-9.47631
-8.79948
-8.11326
-7.42246
-6.72941
-5.90287
41.4071
459.691
1187.88
1911.19
2639.76
3377.22
4115.1
4874.86
5613.21
6376.27
7117.97
7857.21
8598.35
9342.01
-9.47294
-8.79155
-8.10456
-7.41499
-6.725
-5.73259
54.7663
490.521
1217
1934.22
2661.4
3386.92
4135.34
4842.43
5613.96
6384.42
7138.67
7878.12
8614.74
9350.81
10087.4
-9.47048
-8.78703
-8.09997
-7.41228
-6.73
-5.43694
68.3862
516.325
1236.55
1951.34
2668.51
3400.52
4098.13
4908.51
4375.06
6388.08
4392.57
4049.4
4067.83
7153.98
7901.03
8636.61
9367.24
10096.1
10824.7
-9.46914
-8.78429
-8.09786
-7.41613
-6.74724
-5.00738
80.1841
534.776
1250.41
1957
2674.67
3365.04
4138.33
4721.93
4710.82
4354.12
7184.25
4730.85
5003.52
5027.97
4344.58
4080.38
4067.96
7918.62
8662.72
9390.81
10113.2
10833.7
11553.7
-9.46819
-8.78276
-8.10102
-7.43081
-6.77599
-4.50402
89.0906
548.676
1255.3
1956.24
2642.42
3377.74
3996.57
3830.67
3816.42
3529.41
3519.87
4711.06
4378.11
7963.23
7217.99
4703.13
4995.94
4996.84
4353.51
4150.04
4123.31
8687.26
9420.67
10138.4
10851.7
11563.1
12273.9
-9.46758
-8.78499
-8.11273
-7.45601
-6.79938
-4.01383
96.1872
555.686
1252.16
1930.88
2628.78
3273.98
3242.92
3228.47
2948.62
2937.08
3668.93
3664.59
3440.37
3434.06
4713.71
3709.2
3593.18
3792.7
3487.32
8740
7921.25
5612.65
5604.08
5323.46
5312.16
4686.44
4983.81
4966.18
3706.96
3595.4
3790.99
3488.88
3599.07
3241.95
3510.48
3319.36
3592.63
3237.89
3500.78
3312.64
9453.63
10170.6
10878.5
11581.9
12283.7
12985.1
-9.46834
-8.79201
-8.1306
-7.47442
-6.82523
-3.5655
100.633
555.119
1232.27
1898.63
2550.2
2653.95
2643.86
2346.97
2339.36
3139.05
3131.62
2860.93
2852.51
3080.4
3259.59
3328.16
2927.75
3153.65
3425.21
3259.23
3083.36
3326.96
2931.39
3153.41
3419.3
2703.59
2909.63
2817.87
3035.17
2708.7
2909.63
2821.19
3035.18
4039.47
3713.24
3909.23
3838.51
3817.93
3727.75
3956.28
3597.07
9515.35
8706.36
6169.18
6152.19
5881.47
5865.04
5541.93
5532.26
5059.17
5050.28
4040.55
3715.08
3907.74
3841.76
4258.09
3966.96
4311.21
3961.11
4258.52
3959.5
4303.47
3959.18
3815.58
3728.1
3953.8
3601.49
3633.07
3396.93
3628.09
3392.75
10209.3
10913.7
11610.3
12303.3
12995.1
13687
-9.47035
-8.80102
-8.14012
-7.49545
-6.83743
-3.2809
101.685
542.343
1197.03
1826.66
2032.27
2031.06
1737.93
1739
2569.08
2561.07
2322.89
2312.66
2584.18
2780.16
2470.12
2659.15
2593.14
2783.24
2484.54
2664.36
2254.67
2420.02
2365.82
2538.58
2269
2425.64
2379.03
2544.41
3294.43
3083.25
3405.79
3479.04
2977.27
3280.67
3292.83
3086.68
3474.98
3404.25
2978.79
3278.93
2779.57
3052.3
2884.5
3176.43
2779.1
3045.99
2883.28
3172.27
4234.07
3857.56
4104.15
3976.23
3800.03
3763.82
3960
3623.83
10269.3
9546.3
6789.43
6771.23
6485.9
6466.72
6110.68
6097.11
5809.78
5801.12
4496.03
4765.07
4412.09
4710.86
4507.39
4768.64
4419.94
4713.05
4185.97
3966.28
4464.53
4299.64
4613.34
4300.93
4199.2
3970.48
4468.22
4308.94
4616.65
4297.6
4235.44
3859.56
4102.99
3980.29
4381.21
4051.69
4380.81
4051.73
3793.18
3754.63
3953.23
3614.28
3641.26
3466.82
3636.24
3460.88
10957.9
11648.2
12332.9
13015.3
13697.3
14379.6
-9.47276
-8.80542
-8.15512
-7.50597
-6.86435
-3.27014
98.0165
513.699
1141.35
1457.41
1459
1174.48
1177.8
2041.41
2033.22
1746.33
1741.35
2147.83
2309.28
2024.64
2197.47
2158.02
2313.7
2037.92
2201.6
1829.88
1995.84
1910.78
2086.74
1836.8
2000.25
1915.88
2090.79
2666.64
2910.33
2549.95
2780.61
2666.72
2903.77
2551.75
2774.92
2339.4
2548.48
2443.87
2659.01
2348.69
2547.19
2448.2
2657.85
4238.56
3895.54
4107.06
4012.94
11011.7
10284.7
7425.66
7431.91
7107.51
7089.92
6757.73
6731.49
6438.26
6420.13
4956.58
5220.65
4825.38
5099.47
4989.04
5230.99
4848.62
5106.68
4600.64
4864.77
4703.47
4996.01
4614.46
4872.65
4725.1
5001.08
4617.63
4987.54
4492.72
4840.77
4622.13
4986.13
4495.69
4839.94
4138.94
4261.5
4584.04
4344.35
4381.94
4715.37
4139.79
4274.99
4585.43
4339.77
4387.97
4715.95
4232.91
3887.94
4100.91
4006.12
4359.51
4111.28
4353.69
4106.49
11696.6
12372.9
13045.7
13717.8
14389.9
15062.5
-9.47481
-8.81655
-8.1641
-7.52672
-6.88569
-3.68263
86.2882
467.485
997.96
1444.71
1441
1138.12
1140.44
1989.66
1989.9
1709.7
1704.84
2227.66
2419.32
2105.36
2285.18
2232.82
2418.44
2110.23
2284.38
1830.4
1937.04
1963.42
2119.09
1831.78
1935.59
1962.11
2118.13
2337.82
2530.15
2345.88
2529.9
11755.9
11053.9
8022.9
8050.92
7772.56
7787.61
7380.36
7374.54
7139.22
7115.25
5452.18
5920.74
5411.58
5821.26
5471.63
5927.45
5433.87
5827.95
5122.55
5383.18
5265.96
5568.53
5148.35
5393.27
5298.09
5576.44
5154.77
5415.03
5035.95
5354.34
5165.91
5414.13
5030.43
5354.67
4755.31
5145.44
4899.62
5284.97
4759.14
5143.27
4896.57
5282.11
12424.2
13086.8
13748.6
14410.5
15072.9
15735.8
-9.4802
-8.8251
-8.17847
-7.54444
-6.93451
-4.84705
69.5232
374.333
874.539
869.08
575.406
575.62
1454.37
1448.21
1164.41
1162.43
1690.44
1684.26
1818.51
1561.48
1691.46
1684.66
1818.23
1562.83
1571.16
1322.54
1451.9
1448.02
1571.93
1326.5
1452.82
1448.99
2242.91
2408.42
2133.48
2275.24
2246.47
2408.06
2134.59
2274.88
1849.55
1962.64
2004.21
2131.03
1853.72
1961.15
2003.6
2128.21
12486.9
11819.9
11118.9
7909.57
7912.98
7670.03
7635.78
7372.84
7351.5
6920.72
6915.46
5477.77
5891.02
5536.27
5943.14
5485.86
5893.75
5549.43
5947.17
5329.55
5611.76
5470.57
5797.16
5338.85
5608.59
5481.87
5794.06
5212.73
5472.78
5228.64
5469.93
13139
13790.2
14441.6
15093.6
15746.2
16399.5
-9.48272
-8.83104
-8.17784
-7.56378
-7.06006
-5.55214
23.4889
274.646
820.93
817.176
536.115
532.323
1208.18
1329.79
1216.91
1105.83
1209.74
1330.54
1216.3
1104.94
1104.74
1098.08
1759.28
1692.23
1876.49
1586.99
1757.43
1691.54
1873.76
1585.58
1639.75
1362.18
1507.67
1487.23
1638.18
1363.61
1506.07
1487.63
1822.35
2002.5
1824.57
1999
13202.6
12562.2
11911
8651.37
8637.83
8411.63
8396.36
8025.88
8022.13
7764.24
7731.67
6292.5
6040.66
6348.54
5970.89
6283.66
6069.67
6355.64
5970.3
6202.02
5734.66
6055.43
5850.86
6193.98
5734.44
6052.79
5848.31
5685.26
5917.36
5632.43
5887.32
5691.19
5921.34
5635.44
5894.01
5393.09
5656.56
5524.56
5794.92
5408.47
5656.47
5532.61
5795.15
13842.8
14483.5
15124.8
15767
16409.8
-9.48235
-8.82825
-8.18216
-7.65086
-6.90889
-5.78537
-4.41518
241.427
240.435
54.5973
54.3461
725.335
810.718
593.746
669.701
726.147
810.617
598.924
671.612
512.912
510.059
1236.8
1356.3
1176.69
1102.21
1238.68
1355.12
1176.25
1102.03
852.813
955.079
989.088
1093.16
853.345
953.721
988.26
1091.9
1613.38
1364.47
1498.83
1461.31
1611.61
1366.12
1497.1
1463.63
13906.7
13278.6
12674.6
12016.3
8694.8
8670.39
8161.68
8155.33
7870.71
7838.84
6194.71
6589.97
6690.43
6240.56
6226.7
6608.13
6697.01
6242.18
6281.08
6152.66
6463.56
5986.84
6273.71
6154.27
6460.58
5979
6258.81
5841.3
6167.06
5896.45
6246.8
5840.4
6162.25
5884.41
5743.74
6008.44
5763.47
6011.12
14536.1
15166.6
15798.3
16430.7
-9.47752
-8.83487
-8.20004
-7.38894
-7.69011
-6.37912
-4.9148
-4.89047
-3.24354
-3.24732
218.972
215.631
43.1341
40.9201
739.527
830.023
604.27
658.951
740.089
829.022
604.963
658.242
548.208
346.835
401.862
484.311
547.19
345.798
400.505
482.892
1259.33
1370.27
1232.78
1133.22
1257.65
1368.72
1231.12
1131.64
871.16
988.45
986.009
1117.58
871.883
986.796
984.64
1115.72
14599.5
13982.6
13371.9
12725.6
9306.5
9293.26
8974.27
8955.6
8324.2
8331.33
6703.18
7171.04
6668.94
7220.26
6729.28
7186.27
6698.03
7223.17
6569.27
6949.19
6486.45
6838.13
6215.6
6654.68
6603.2
6955.19
6492.52
6825.06
6181.36
6642.53
6234.47
6590.7
6240.51
6596.05
6399.3
6230.96
6491.2
6096.42
6387.7
6241.41
6491.97
6093.09
15219.1
15840
16462
-9.47512
-8.84673
-8.12694
-7.59739
-6.80801
-6.15211
-4.3434
-4.31534
-2.66216
-2.67195
229.273
354.545
289.528
122.354
158.561
397.103
353.116
227.328
395.911
289.138
120.928
158.09
12.136
11.0139
48.5696
55.1603
11.2488
10.8228
48.0512
57.7215
742.295
825.344
623.025
691.986
742.116
824.263
622.721
691.235
552.148
475.688
550.562
473.043
1236.43
1102.21
1233.97
1101.19
851.401
954.221
852.043
952.759
15282.2
14674.1
14069.1
13466.9
9960.25
9972.06
9657.94
9638.35
9099.02
9083.08
8526.09
8539.68
7352.36
6815.31
7400.97
6891.64
7191.76
6677.24
7354.98
6865.29
7418.6
6905.54
7192.91
6673.79
6777.81
7228.43
6784.38
7227.76
6653.17
6978.77
6582.82
6423.47
6897.96
6605.21
6657.82
6972.3
6569.7
6446.91
6884.77
6609.6
6368.48
6604.61
6384.14
6612.74
15892.3
16503.7
-9.47776
-8.81345
-8.26393
-7.38178
-6.41082
-3.94815
-3.91177
-4.13679
-4.12426
-3.55283
-3.52445
-2.05935
-1.98924
341.37
200.488
268.001
400.576
117.594
164.536
339.893
196.478
399.756
264.403
115.001
161.9
6.3285
3.05998
40.8783
56.414
6.46288
5.32082
41.914
61.773
589.416
679.71
587.816
678.282
15955.1
15355.9
14759.1
14160.5
13529.8
9730.23
9737.3
9523.06
9495.14
7466.22
8061.8
7431.28
7957.29
7493.81
8070.63
7454.2
7963.34
7151.16
6916.7
7621.14
7274.59
7799.41
7473.38
7172.85
6942.58
7629.12
7306.58
7805.03
7482.67
7731.98
7200.69
7119.91
6955.12
7725.03
7209.82
7118.62
6981.38
6910.3
7226.74
6929.64
7238.05
6754.42
7041.67
6469.83
6689.36
6759.78
7015.74
6497.16
6694.3
16555.8
-9.45988
-8.8622
-8.06301
-7.40465
-6.26624
-3.80134
-3.73277
-4.11416
-4.06644
-2.62557
-2.10777
-2.18502
-2.45771
-2.63786
-2.03857
-2.1495
-2.4428
-2.76867
-2.74621
0.223726
-0.745196
16.0615
21.2414
1.63282
0.142064
21.3661
35.099
16618.5
16028.4
15439.6
14850.6
14270.1
10588.8
10612.2
10105.3
10116.3
9871.57
9879.02
9366.58
9366.54
7571.6
8070.2
7521.38
7982.64
7572.33
8073.04
7516.92
7971.55
7126.63
7326.9
7441.39
7776.16
7523.04
8013.1
7155.68
7326.45
7776.08
7446.67
7506.73
7992.63
7374.82
7043.27
7376.54
7065.29
-9.48606
-8.76342
-7.99081
-7.18599
-4.47795
-4.46491
-4.92972
-4.93618
-3.65415
-3.63199
-3.97472
-3.95646
-2.26213
-1.73188
-1.8919
-2.26378
-2.3555
-1.68843
-1.86391
-2.304
-2.48516
-2.7157
-2.2385
-2.45837
-2.47666
-2.70267
-2.21445
-2.46258
-0.918793
-1.27284
-0.496846
-1.19419
16691.5
16111.8
15532.4
14955.2
14286.9
10346.3
10350.3
10094
10079.8
9713.29
9667.31
8312.7
7775.79
8317.3
7710.25
8308.38
7769.51
8302.33
7701.56
7742.97
7999.45
7745.73
8096.37
7724.21
7979.45
7703.3
8078.25
-9.45533
-8.75618
-7.9649
-7.19307
-4.46411
-4.40863
-4.91221
-4.92997
-2.78658
-2.89762
-3.47566
-3.05013
-3.2924
-3.21148
-2.76911
-2.89798
-3.4383
-2.96604
-3.2951
-3.07015
-4.13021
-4.06068
-1.98291
-1.27027
-1.71944
-1.80013
-1.98322
-1.34442
-1.63962
-1.81945
-2.48964
-2.76662
-2.48372
-2.73518
16774.6
16205.3
15632.7
15093.5
11076.5
11108.7
10602.8
10617.3
10312
10351.8
10042.8
10003.7
8105.4
8798.07
8036.3
8604.93
7803.76
8472.71
8117.46
8789.59
8051.3
8604.27
7784.24
8459.12
7881.9
8586.79
7851.55
8548.95
7778.02
8133.35
7779.56
8119.92
-9.44522
-8.72496
-7.99211
-5.32969
-5.32633
-5.70207
-5.71625
-4.61536
-4.52797
-4.93058
-4.88805
-2.90817
-3.06987
-3.42753
-3.08481
-3.33183
-3.27562
-2.90215
-3.10381
-3.3438
-2.9211
-3.29149
-2.98948
-3.60362
-3.9191
-3.40022
-3.71442
-3.4865
-3.87523
-3.02232
-3.5662
16867.5
16309.9
15740.7
15096.9
10964.7
10971.3
10585
10576.6
10230.3
10217.9
8020.73
8654.37
8925.78
8245.99
8820.33
8280.42
8915.34
8229.54
8809.5
8259.35
8009.67
8640.87
8230.1
7979.04
9035.58
8404.77
8182.84
7992.13
8966.72
8385.63
7917.1
8470.14
7922.62
8456.48
-9.44847
-8.73844
-8.0719
-5.35241
-5.33729
-5.72154
-5.71623
-3.62286
-3.86605
-4.35622
-3.73599
-4.10051
-3.97928
-3.43821
-3.78999
-4.30027
-3.64466
-4.04416
-3.90787
-5.00874
-4.98774
-3.52712
-3.28165
-3.44911
-3.08327
-3.34681
-3.6765
-3.06407
-3.54847
16970
16421.4
15868.1
11744.1
11761.4
11242.7
11255
11148.2
11150.4
10655.8
10620.8
8585.17
9242.02
8573.85
9158.57
8299.54
8949.27
8609.43
8288.24
8939.54
9249.76
8571.33
9155.79
8248.06
8596.87
8367.01
9067.03
8360.63
8246.88
9061.64
8582.98
-9.46344
-8.77679
-8.11107
-5.4065
-5.39896
-5.75454
-5.7544
-3.55809
-3.82061
-4.16044
-3.56492
-3.96194
-3.83827
-3.46403
-3.74339
-4.14175
-3.5746
-3.94922
-3.83461
-4.31092
-4.67544
-3.97255
-4.36499
-4.2496
-4.63093
-3.96927
-4.33755
-3.44154
-3.73087
-3.30173
-3.63874
17081.5
16537.9
15945
11754.4
11746.8
11339.1
11310.1
10874
10883.1
8464.36
9094.51
9380.2
8753.85
9172.75
8786.05
8490.34
9104.08
9381.59
8754.73
9176.97
8783.29
8582.42
8626.17
9319.87
9053.25
8612.99
9029.55
8574.56
9311.34
-9.48479
-8.81341
-6.06286
-5.6762
-5.67048
-6.06056
-6.39305
-6.40501
-5.19192
-4.40752
-4.67434
-5.18415
-4.40993
-4.67111
-3.53821
-3.87522
-4.03604
-3.66573
-3.95654
-3.75007
-3.3756
-3.77443
-4.01199
-3.60627
-3.93366
-3.71882
-4.08919
-4.43029
-4.10518
-4.4316
17202.2
16696
16102.3
11780.7
11756.6
11328.9
11310
8973.37
9633.17
9029.14
9537.85
8769.69
9296.9
9016.27
8797.46
9304.69
9656.87
9045.78
9544.42
8752.24
9099.11
8802.01
9230.77
8770.84
9105.4
8812.78
9233.14
8667.1
9203.42
8669.28
9195.01
-9.5247
-8.86482
-5.69487
-6.03865
-5.68864
-6.02841
-6.33898
-6.34849
-4.55298
-4.50292
-4.55387
-4.47781
-4.60547
-4.80048
-4.52876
-4.87067
-4.52593
-4.56225
-4.56376
-4.48265
-4.60223
-4.80238
-4.54245
-4.87243
-4.06543
-3.74005
-4.08566
-3.80416
-4.29256
-4.5043
-4.31714
-4.50655
17333.2
16838.6
12410.1
11762
11727.2
12422.9
12021.2
12019
10879.2
8992.23
9624.81
10902.9
9026.07
9638.86
9037.47
9226.57
9260.49
9773.28
9030.46
9251.6
9231.25
9776.63
8777.26
9159.26
8958.26
9327.51
8797.36
9160.56
8953.76
9306.24
-9.54379
-8.87551
-5.5834
-4.95946
-4.69963
-6.20204
-5.55962
-4.96116
-4.70471
-6.17427
-6.43853
-6.43744
-4.4379
-4.56882
-4.31718
-4.5656
-4.56462
-4.84872
-4.46098
-4.36298
-4.56487
-4.57932
-4.56943
-4.84783
-4.2079
-4.01269
-4.20812
-4.05164
17477.5
16918.7
12525.5
11643.8
11626.7
12529.5
12117.4
12085.5
9254.89
8981.21
9411.68
8964.45
9491.11
9802.66
9273.3
10008.9
9269.72
9018.15
9415.82
8998.97
9495.24
9811.02
9292.17
10007.9
9159.93
9186.51
9458.96
9705.28
9141.8
9450.78
9207.16
9714.39
-9.53249
-6.6651
-6.37404
-6.36418
-6.67395
-6.96468
-6.98943
-4.78132
-4.8334
-4.78838
-4.83029
-4.67488
-5.13374
-4.82837
-5.02391
-5.94574
-5.09133
-5.34027
-4.79001
-4.82807
-4.79377
-4.83666
-4.67614
-5.13256
-4.81686
-5.02196
-5.94051
-5.0951
-5.33838
-4.34054
-4.5862
-4.6347
-4.79818
-4.35721
-4.57524
-4.64183
-4.78993
17623.9
17079.1
12517.2
11453.5
9917.18
9322.25
11431.2
9921.86
9330.7
12476.9
12072.1
12047.2
9203.31
9208.4
9071.66
9339.42
9603.79
9642.15
9229.31
9222.25
9100.18
9619.13
9352.11
9650.96
9165.17
9552.34
9170.27
9561.35
-9.51987
-6.492
-6.57335
-6.47951
-6.56398
-6.89066
-6.92043
-4.62936
-4.75653
-4.86058
-4.91694
-4.96126
-5.16077
-5.3836
-5.25661
-5.29212
-5.12478
-5.2272
-5.58767
-5.42143
-5.76634
-4.63506
-4.74784
-4.9305
-4.85457
-4.94354
-5.16048
-5.23332
-5.34629
-5.28301
-5.12265
-5.22578
-5.57344
-5.41236
-5.75883
17778.9
13029.6
12523.1
12471.7
13074.5
12761.1
12745
9490.44
9801.6
9337.72
10006.2
9238.47
10279.5
9531.29
10141.5
9568.36
9796.91
9369.77
10003.8
9241.91
10310.4
9528.78
10116.8
11590.9
9552.92
10234.2
11614.2
9623.37
10251
9226.24
9356.29
9525.28
10005.6
9240.51
9359.21
9531.19
10003.7
-9.51145
-6.50069
-5.70533
-5.41003
-6.5099
-6.46884
-5.69802
-5.39753
-6.52172
-6.85512
-6.8785
-4.71083
-4.96158
-5.011
-5.13458
-5.22865
-5.21773
-5.10263
-5.31041
-5.25518
-5.51233
-4.69081
-4.9574
-4.99825
-5.13805
-5.20646
-5.06482
-5.18267
-5.2904
-5.24246
-5.49568
17795
13054.3
12432.4
12376.4
13096.8
12766.8
12757.4
9352.07
9509.02
9984.42
9924.54
9748.54
10375.3
9371.72
9518.44
9988.4
9866.41
9614.46
10183.1
9733.79
9636.21
10225.7
9520.36
10182.5
10265.1
9918.27
10670
9779.53
9628.6
10217.4
9562.64
10173.6
10302.1
9932.47
10661.6
-9.53205
-6.83444
-6.85383
-6.4106
-5.70651
-5.35508
-5.68743
-5.4561
-6.52371
-6.38019
-5.68719
-5.33484
-5.67205
-5.4184
-6.53256
-5.01497
-4.96932
-5.18432
-5.2161
-5.21331
-5.45036
-4.98238
-4.95592
-5.15612
-5.20246
-5.19495
-5.43004
17929
13032.5
12366.6
10509.9
9905.45
12320.2
10506
9899.08
13067.4
12771
12767.9
9572.87
10064.9
9714.86
10424
9609.69
10088.6
9709.65
10421.9
9929.86
9969.95
9732.13
10191.8
10353.6
10402
9936.21
9956.87
9705.52
10336.6
10197.1
10404.2
-9.53702
-6.81889
-6.81715
-6.84268
-6.83959
-6.32413
-5.64006
-5.2829
-5.63629
-5.32187
-5.05886
-5.39525
-6.53806
-6.29019
-5.63253
-5.28169
-5.62438
-5.3298
-5.02399
-5.37298
-6.54646
-5.10485
-5.2757
-5.03166
-5.24956
17940.7
12971.1
13000.7
12430.3
10316.2
9850.56
10288.3
9880.69
12377.9
10317.3
9852.28
10288
9878.33
12735.3
12720.6
9951.47
9756.32
10062.9
10256.2
10099.3
10467.2
9982.12
9762.54
10067.4
10111
10263
10474.6
-9.56542
-6.81339
-6.82026
-6.8403
-6.8465
-6.55397
-6.56025
-6.29927
-5.52282
-5.14851
-5.50108
-5.16126
-5.25998
-4.93332
-5.28963
-4.89286
-5.10128
-5.25783
-6.27751
-5.51003
-5.16525
-5.50222
-5.15498
-5.26313
-4.93279
-5.2823
-4.91861
-5.02496
-5.22231
17943
12976.3
12966.8
13008.4
13005.1
12305.6
10162.7
9828.73
10252.5
9759.89
10096.9
10570.9
12259.2
10161
9844.27
10253.4
9762.36
10103.2
10577.1
12779.6
12767.5
10005.4
10372.6
10047
10382.4
-9.52837
-6.82815
-6.85626
-6.85016
-6.87237
-6.54959
-6.55672
-6.56113
-6.56711
-6.31472
-6.28656
-5.54927
-5.21986
-5.53075
-5.24659
-5.21464
-4.72703
-5.22197
-4.7382
-5.16033
-4.90253
-5.14759
-4.86101
-5.5518
-5.24162
-5.52996
-5.26099
-5.20059
-4.76072
-5.22769
-4.72092
-5.15634
-4.89927
-5.13928
-4.85885
17935.4
12967.1
12979.4
13005.7
13013.3
12764.8
12758.8
12295.7
10216.8
9759.13
10291
9740.21
10302.8
10061.4
10468.8
9973.87
10031.5
10401.1
12255.1
10213.7
9759.37
10284.3
9734.95
10312.4
10086.5
10480.8
9997.39
10064.7
10409.1
-9.53801
-6.89599
-6.93844
-6.91496
-6.96183
-6.55855
-6.5619
-6.56806
-6.56803
-6.32174
-6.29828
-6.29254
-6.28396
-5.56876
-5.2232
-5.56826
-5.25902
-5.56787
-5.26527
-5.57326
-5.26425
-5.31886
-4.99761
-5.3251
-5.00006
-5.32785
-5.02227
-5.32758
-5.01706
17805.5
12976.3
13039.5
13006.5
13073.1
12763.4
12782.1
12758.7
12770.5
12325
12285.6
10374.3
9843.29
10475
9827.79
10463.4
9954.84
10566.6
9950.81
10240.9
9980.55
10391.2
9890.18
10368.4
9846.27
10466.2
9817.73
10452
9958.58
10558.9
9936.79
10249.1
10027.5
10414
9924.15
-8.87912
-9.54557
-6.5594
-6.58826
-6.56951
-6.60035
-6.28617
-6.32602
-6.26445
-6.30425
-5.58233
-5.19976
-5.56114
-5.24521
-5.56915
-5.27973
-5.56937
-5.26633
-5.57869
-5.26422
-5.57136
-5.2614
-5.56681
-5.28278
-5.55656
-5.27332
-5.35339
-4.95274
-5.33141
-5.03247
-5.33819
-4.97229
-5.34009
-4.97244
17790.4
13059.6
13039.4
13101.4
13078.7
12736.1
12778.4
12724.2
12774
12324.2
12298.7
12285.4
12260
10347.5
9852.66
10394.7
9828.37
10338.9
9834.36
10380.7
9813.58
10751.5
10008.8
10655
10037
10734.3
10010.1
10643.1
10022.3
-8.89184
-6.32426
-6.41632
-6.32541
-6.41344
-9.53381
-6.36977
-6.36937
-6.34049
-6.36117
-5.53473
-5.26296
-5.56113
-5.23799
-5.58431
-5.32464
-5.59442
-5.34264
-5.52711
-5.26864
-5.54938
-5.22958
-5.57751
-5.3229
-5.58144
-5.33731
-5.38271
-4.93802
-5.32723
-5.01331
-5.38342
-5.01113
-5.35848
-5.05355
-5.36132
-4.97809
-5.3405
-4.97035
-5.38841
-5.06216
-5.36985
-5.06575
17634.8
17090.9
12772.4
12782.1
12763.9
12747.7
12311.5
12441.8
12270.8
12386.7
10349.4
9852.07
10392.2
9829.25
10380.9
9841.99
10476
9832.54
10340.8
9834.53
10379
9814.57
10372.1
9848.15
10468.5
9821.35
10744.8
10071.7
10772.8
10055.4
10731.1
10063.8
10758.7
10040.2
-8.8765
-6.35642
-6.4287
-6.35305
-6.4348
-5.96296
-6.16281
-5.98777
-6.13045
-9.50679
-5.62259
-5.32429
-5.6263
-5.34964
-5.66014
-5.3891
-5.74528
-5.35454
-5.60696
-5.28575
-5.60298
-5.31735
-5.64272
-5.34617
-5.72495
-5.3185
-5.27589
-4.9307
-5.33405
-4.91948
-5.28081
-4.87341
-5.22967
-5.0566
-5.28582
-5.00406
-5.36006
-4.91581
-5.28662
-4.93229
-5.23721
-5.06168
17490.1
16928.5
12532.8
12519.7
12477.7
12483.4
12377.4
12444.4
12324.7
12373.1
10219.9
9758.58
10286.5
9743.16
10171.1
9835.79
10259.5
9768.46
10218.2
9760.49
10278.6
9745.16
10169.1
9845.86
10255.7
9770.41
10745.3
10072.4
10773.4
10057.6
10756.8
10011.4
10652.8
10045.3
10731.2
10064.6
10759.2
10043
10738.1
10015.4
10641.9
10034.2
-8.1917
-8.85998
-6.08749
-6.0989
-6.06694
-6.08878
-5.13775
-5.21873
-5.19387
-5.1126
-5.18978
-5.51868
-4.85334
-5.20752
-5.04735
-5.20118
-5.07877
-5.16001
-5.18876
-5.07903
-5.18268
-5.4976
-4.86074
-5.20511
-5.02141
-5.19593
-9.48475
-5.26771
-4.94295
-5.28672
-4.94613
-5.34957
-5.0119
-5.2613
-4.95239
-5.28287
-4.95738
-5.32204
-4.96914
-5.15954
-4.77462
-5.08315
-4.93486
-5.16881
-4.81715
-5.10183
-4.93593
17345.9
16852.2
12526.8
12417.2
12536.7
12431
11586
12079.2
11624.3
12059.6
10325.1
9859.86
10297.9
9887.85
10513.3
9918.44
10671.5
9905.77
10320.7
9855.88
10292.4
9883.18
10510.8
9942.3
10673.2
9902.33
10473.5
9954.26
10564.3
9954.35
10314.5
10073.9
10477.5
9987.85
10468
9965.38
10558.5
9966.28
10323.3
10081.9
10485.5
10001.9
-8.21343
-5.71504
-5.85054
-5.703
-5.84832
-8.83584
-5.69348
-5.70797
-5.6568
-5.69244
-5.02903
-5.00202
-5.14645
-5.22773
-5.09348
-5.29
-4.85409
-5.05699
-5.02067
-5.19253
-4.93764
-4.87606
-5.11304
-5.15764
-5.03673
-5.25858
-4.83404
-5.05569
-4.96628
-5.17141
-9.46746
-5.07404
-4.80108
-5.06948
-4.85104
-5.04781
-4.79645
-5.02917
-4.81019
-5.069
-4.75069
-5.00443
-4.71456
17215.4
16709.1
16114.1
12115
12029.6
12090
12025.9
9615.79
9746.85
10223.5
9508.92
10175
10265.3
9493.02
10280.5
9547.25
10228.7
9769.61
9654.1
10225.8
9576.02
10177.8
10308.5
9570.82
10312.2
9625.92
10250.4
10471
10106.8
10581.5
10066.4
10399.3
9970.58
10477
10108.3
10583.5
10075.1
10405.2
9953.69
10258
10001.5
10401.5
9907.63
10264.6
10021.5
10418.2
9930.62
-8.17343
-5.85337
-5.88161
-5.85341
-5.8929
-5.32884
-5.5708
-5.32511
-5.54998
-8.80947
-4.91102
-4.81687
-4.85929
-4.75083
-4.98811
-4.66387
-4.99837
-4.7364
-4.89431
-4.80747
-4.85506
-4.71845
-4.97632
-4.65387
-4.99242
-4.71242
-4.81361
-5.0876
-4.76269
-4.88284
-4.74301
-4.99254
-4.68421
-5.02129
-4.74179
-4.87687
-4.70541
-4.97173
-9.44648
17095.3
16551.6
15955.4
11770.4
11788.6
11736.4
11768.7
11462.1
11658.3
11435.3
11637
9912.71
9732.73
10363.7
10195.5
9717.99
10431.4
9534.85
10144.1
9752.21
10376.6
9961.23
9715.9
10208.1
10350.7
9715.57
10429.6
9530.05
10118.3
9614.41
10182.5
10374.8
10049.5
10416.3
10016.3
10261
9960.88
10385.8
10068.3
10420.4
10046.8
10273.4
9988.98
-7.54359
-8.11021
-5.58109
-5.53717
-5.55712
-5.54091
-4.59047
-4.63292
-4.61539
-4.58463
-4.68276
-4.92935
-4.45391
-4.78016
-4.56055
-4.73956
-4.57878
-4.61303
-4.61576
-4.56887
-4.67689
-4.92196
-4.45012
-4.77721
-4.54113
-4.73596
-8.86901
-4.92356
-4.6742
-4.88713
-4.67395
-4.85356
-4.59267
-4.89631
-4.64733
-4.88827
-4.63178
-4.83915
-4.55069
-9.48089
16984.4
16435.8
15880.1
11761.7
11751.8
11757.4
11771.7
10873.9
11335.9
10900.7
11319.5
9783.22
9338.84
10005.3
9231.82
9921.41
9280.01
10015.2
9327.41
9778.05
9366.87
9999.45
9233.92
9925.17
9294.02
10012.3
9333.6
9742.44
10105.3
9511.3
9926.45
9575.58
10066.9
9784.18
10121.8
9514.91
9862.99
9615.35
10087.9
-7.36153
-5.24698
-5.23759
-5.25878
-5.25085
-8.10467
-5.25357
-5.22815
-5.22008
-5.21016
-4.46816
-4.45719
-4.59762
-4.65211
-4.52062
-4.659
-4.40163
-4.60643
-4.44618
-4.6229
-4.45275
-4.42935
-4.59389
-4.65344
-4.48661
-4.64393
-4.37708
-4.60392
-4.40915
-4.61311
-8.84144
-4.62449
-4.35282
-4.61327
-4.33066
-9.49816
16882.6
16324.5
15754.4
15111.5
11344.2
11251.9
11317.9
11264.2
8979.34
9267.21
9425.41
8966.1
9498.41
9806.77
8980.66
9639.53
8995.93
9628.13
9271.19
9020.9
9429.06
9002.17
9504.96
9812.83
9022.87
9662.46
9026.91
9641.35
10000.5
9345.72
9977.7
9354.91
9650.58
9223.04
9997.19
9368.86
9980.22
9363.17
9656.42
9228.47
-6.6341
-7.71613
-5.01376
-5.02697
-4.99714
-5.0183
-8.17664
-4.53223
-4.30374
-4.46393
-4.23344
-4.89728