/*--------------------------------*- C++ -*----------------------------------*\
| =========                 |                                                 |
| \\      /  F ield         | OpenFOAM: The Open Source CFD Toolbox           |
|  \\    /   O peration     | Version:  5.x                                   |
|   \\  /    A nd           | Web:      www.OpenFOAM.org                      |
|    \\/     M anipulation  |                                                 |
\*---------------------------------------------------------------------------*/
FoamFile
{
    version     2.0;
    format      ascii;
    class       volScalarField;
    location    "0.2";
    object      p_rgh;
}
// * * * * * * * * * * * * * * * * * * * * * * * * * * * * * * * * * * * * * //

dimensions      [1 -1 -2 0 0 0 0];

internalField   nonuniform List<scalar> 
12160
(
5501.36
5494.12
5504.67
5452.15
5495.71
5515.36
5408.52
5453.01
5500.73
5526.22
5372.22
5408.07
5455.44
5504.71
5547.91
5336.42
5371.29
5407.38
5456.8
5514.59
5572.78
5310.49
5335.31
5369.47
5404.86
5461.89
5523.34
5604.69
5288.58
5309.37
5333.07
5366.04
5403.21
5465.09
5533.83
5649.41
5272.46
5287.62
5307.14
5329.32
5362.52
5397.95
5469.3
5549.95
4188.17
5260.29
5271.66
5285.7
5303.59
5324.95
5355.98
5391.7
5475.57
2762.02
561.536
5251.31
5259.65
5270.06
5282.7
5299.29
5317.91
5349.35
5381.13
2152.95
275.249
3.31433
5244.69
5250.8
5258.37
5267.6
5278.99
5292.84
5310.92
5337.08
1284.24
112.229
2.15894
-0.256198
5239.84
5244.3
5249.8
5256.42
5264.53
5273.64
5286.75
5297.54
926.727
26.1666
0.373693
-0.156354
-0.179956
5236.28
5239.54
5243.53
5248.29
5253.98
5260.22
5268.7
5274.65
598.677
9.14023
0.0791465
-0.0647795
-0.105779
-0.104572
5233.67
5236.05
5238.95
5242.37
5246.38
5250.6
5256.29
5258.71
408.587
2.57939
0.0855599
0.0390432
-0.0466935
-0.0609711
-0.0331367
5231.78
5233.5
5235.61
5238.07
5240.9
5243.78
5247.56
5248.28
275.498
0.871507
0.0950971
0.0643771
0.0231973
-0.0282082
-0.0195399
5230.41
5231.65
5233.17
5234.95
5236.96
5238.93
5241.46
5241.35
187.212
0.318586
0.0858635
0.0726135
0.0418507
0.0124272
-0.00967133
5229.44
5230.32
5231.41
5232.68
5234.11
5235.48
5237.17
5236.71
127.791
0.134222
0.0665443
0.066389
0.0498417
0.0235679
0.00403998
5228.76
5229.37
5230.14
5231.05
5232.06
5233.01
5234.16
5233.59
87.6827
0.0645603
0.0486912
0.0519515
0.0466839
0.0290767
0.00744546
5228.3
5228.71
5229.24
5229.88
5230.59
5231.25
5232.03
5231.47
60.4692
0.0326483
0.0327628
0.0383015
0.0370804
0.0277135
0.00945962
5228
5228.27
5228.61
5229.05
5229.54
5229.99
5230.53
5230.04
41.9145
0.0149704
0.0193892
0.0256673
0.0275249
0.0222354
0.00915637
5227.81
5227.97
5228.19
5228.47
5228.8
5229.11
5229.47
5229.05
29.2036
0.004912
0.00898711
0.0147476
0.0183671
0.0165696
0.00741285
5227.69
5227.79
5227.91
5228.08
5228.29
5228.48
5228.72
5228.38
20.4598
0.00125028
0.00234927
0.00615087
0.0103098
0.0110014
0.00554616
5227.62
5227.67
5227.74
5227.82
5227.93
5228.04
5228.2
5227.92
14.4188
0.00354449
0.000396735
0.00076195
0.00396342
0.00604402
0.00367006
5227.57
5227.59
5227.62
5227.65
5227.7
5227.74
5227.83
5227.6
10.2311
0.0105613
0.00362839
-0.000572832
0.000105636
0.00214844
0.00198141
5227.56
5227.54
5227.54
5227.54
5227.54
5227.54
5227.57
5227.38
7.30931
0.0197667
0.0110635
0.00246076
-0.000566157
-0.00015789
0.000654534
5227.6
5227.53
5227.49
5227.46
5227.43
5227.4
5227.39
5227.22
5.27848
0.0276526
0.020173
0.00893302
0.0021134
-0.000432553
-0.000116677
5227.72
5227.57
5227.47
5227.41
5227.36
5227.3
5227.26
5227.1
3.84964
0.0307113
0.0275923
0.016614
0.00732847
0.00139528
-0.000175605
5227.93
5227.68
5227.51
5227.4
5227.31
5227.23
5227.17
5227.01
2.85492
0.0269949
0.0299401
0.0225597
0.0132647
0.00476295
0.000495475
5228.24
5227.89
5227.63
5227.44
5227.3
5227.2
5227.12
5226.95
2.16896
0.0171134
0.0257904
0.024066
0.0176316
0.00848575
0.00168893
5228.66
5228.2
5227.83
5227.55
5227.34
5227.19
5227.09
5226.91
1.71654
0.00428472
0.0159788
0.0199904
0.0183893
0.0110966
0.00298114
5229.2
5228.61
5228.12
5227.73
5227.44
5227.23
5227.09
5226.9
1.44332
-0.00695435
0.00383659
0.0113422
0.0148405
0.0113538
0.00385551
5229.88
5229.13
5228.5
5227.99
5227.6
5227.31
5227.13
5226.91
1.3212
-0.0126819
-0.00630731
0.00111444
0.00794212
0.00889247
0.00388878
5230.74
5229.78
5228.98
5228.33
5227.83
5227.44
5227.2
5226.93
1.33099
-0.0113969
-0.0109575
-0.00699138
0.000133142
0.00443301
0.00297618
5231.82
5230.62
5229.6
5228.77
5228.12
5227.62
5227.3
5226.97
1.46621
-0.00450881
-0.00912065
-0.0102387
-0.00575142
-0.000416821
0.00139814
5233.16
5231.67
5230.39
5229.34
5228.51
5227.86
5227.44
5227.02
1.72961
0.00455814
-0.00247253
-0.00811288
-0.00778709
-0.00388328
-0.000267259
5234.81
5232.98
5231.39
5230.06
5229
5228.17
5227.63
5227.08
2.13352
0.0124934
0.00561063
-0.00232925
-0.00584184
-0.00487438
-0.00140958
5236.82
5234.58
5232.62
5230.97
5229.63
5228.57
5227.87
5227.17
2.70331
0.0174907
0.0124258
0.00427824
-0.00141288
-0.00346518
-0.00168246
5239.26
5236.54
5234.14
5232.09
5230.42
5229.08
5228.19
5227.29
3.47907
0.0197243
0.016645
0.00959085
0.00337118
-0.000693172
-0.00115341
5242.22
5238.91
5235.98
5233.47
5231.41
5229.73
5228.6
5227.43
4.5108
0.0201928
0.0187261
0.012901
0.00711671
0.00214398
-0.000204545
5241.79
5248.09
5238.22
5235.15
5232.61
5230.52
5229.1
5227.63
5.8646
0.0193189
0.0195053
0.0147452
0.00953848
0.00433096
0.000734069
5240.95
5247.52
5260.17
5237.21
5234.1
5231.51
5229.74
5227.88
7.6232
0.0164957
0.0188707
0.0156237
0.0110971
0.00583189
0.00145549
5239.71
5246.38
5259.3
5277.35
5235.91
5232.73
5230.54
5228.2
9.89092
0.0111441
0.0158334
0.0150358
0.0119379
0.00692476
0.00198551
5238.13
5244.71
5257.59
5276.09
5300.57
5234.23
5231.54
5228.61
12.7983
0.00420185
0.00993763
0.0119452
0.011344
0.00751314
0.00240545
5236.08
5242.57
5255.06
5273.58
5298.79
5330.86
5232.78
5229.14
16.5049
-0.00152689
0.00271943
0.00629973
0.00847459
0.00696452
0.0026203
5234.31
5239.78
5251.82
5269.89
5295.27
5328.43
5368.75
5229.82
21.2087
-0.00287593
-0.00252294
6.4107e-05
0.00369147
0.00480494
0.00236587
5230.67
5237.39
5247.55
5265.15
5290.07
5323.61
5365.55
5415.44
27.1273
0.00128912
-0.00286336
-0.00360363
-0.000973801
0.00158331
0.00151325
34.5258
5232.43
5243.92
5258.87
5283.42
5316.5
5359.12
5411.38
5466.2
0.0094561
0.00188048
-0.00266092
-0.00300074
-0.00112065
0.00035772
0.0188082
49.7583
5236.31
5253.55
5274.56
5307.48
5349.7
5402.68
5463.57
5541.12
0.00923728
0.0021074
-0.00138052
-0.00179977
-0.000483229
0.0165469
0.033506
82.9594
5242.36
5267.05
5295.47
5337.84
5390.15
5452.42
5534.8
5510.17
0.00811367
0.00255997
-0.000282105
-0.000548237
0.0136318
0.0278068
0.0627966
133.677
5251.38
5285.23
5322.14
5374.66
5436.49
5515.63
5587.41
5776.73
0.00671799
0.00219817
7.31202e-05
0.0103351
0.0227029
0.0493971
0.112936
207.492
5264.37
5308.59
5354.64
5416.8
5491.62
5566.49
5724.42
5855.57
5951.84
0.00442482
0.000872243
0.00637641
0.0169701
0.0410043
0.0764182
0.216658
310.71
5282.24
5337.12
5391.9
5464.42
5542.38
5663.78
5770.96
5903.6
5978.77
6074.64
0.00150952
0.00212384
0.0105349
0.0309921
0.0633878
0.103872
0.471426
448.553
5305.48
5369.77
5432.94
5510.01
5606.01
5701.26
5814.02
5927.62
6007.58
6093.51
6192.25
0.00359584
0.0194528
0.0475498
0.0842903
0.125096
1.13145
623.345
5333.55
5405.04
5472.21
5555.91
5638.1
5736.43
5833.38
5945.63
6030.6
6115.29
6204.75
6299.53
0.00669272
0.0295235
0.0617412
0.0985383
0.137616
2.73698
831.211
5364.69
5438.88
5508.19
5582.76
5666.21
5750.04
5855.74
5940.1
6049.31
6136.99
6222.23
6309.35
6399.01
0.0100596
0.0374467
0.0704464
0.106006
0.142186
6.17634
1060.49
5395.52
5468
5531.22
5604.39
5675.86
5770.17
5823.1
5940.67
6057.53
6157.78
6243.17
6325.76
6407.81
6490.38
0.0125231
0.0419705
0.0750347
0.108716
0.137994
12.4559
1288.95
5421.32
5487.55
5548.33
5611.48
5689.33
5732.57
5888.68
4538.21
6061.37
4555.72
4539.14
4557.56
6173.31
6266.21
6347.67
6424.26
6499.11
6573.72
0.013859
0.0447081
0.0771409
0.10487
0.123745
21.8875
1484.17
5439.77
5501.41
5553.97
5617.53
5653.45
5771.77
5699.9
4547.67
4517
6204.07
4567.7
4513.78
4538.23
4507.45
4569.12
4556.7
6284.18
6373.91
6447.85
6516.23
6582.74
6648.68
0.0148113
0.0462399
0.0739776
0.0901908
0.102914
32.6628
1627.09
5453.67
5506.28
5553.15
5584.97
5665.13
5627.73
4643.39
4629.12
4669.2
4659.67
4548.18
4540.49
6329.78
6240.01
4540.26
4507.19
4508.1
4515.89
4637.26
4610.53
6398.84
6477.81
6541.48
6600.72
6658.1
6714.93
0.0154156
0.0440083
0.0622761
0.0649867
0.0934185
42.9228
1739.47
5460.67
5503.11
5527.57
5570.56
5559.09
4707.65
4693.2
4739.38
4727.84
4479.05
4474.73
4579.1
4572.79
4551.33
3952.13
3673.85
3873.35
3730.31
6452.61
6290.1
4472.86
4464.29
4510.74
4499.47
4524.06
4496.59
4478.96
3949.88
3676.08
3871.65
3731.83
4003.6
3809.4
4077.97
3723.84
3997.16
3805.31
4068.24
3717.14
6511.08
6573.73
6627.51
6676.95
6724.68
6772.12
0.0146585
0.036987
0.044399
0.0465792
0.0866255
52.1499
1811.18
5460.07
5483.05
5494.75
5490.33
4772.24
4762.13
4793.17
4785.56
4600.47
4593.03
4646.39
4637.98
3807.11
3824.43
4054.86
3823.08
4048.99
3990.06
3824.07
3810.05
4053.66
3826.72
4048.75
3984.15
3921.56
4127.59
3875.58
4092.88
3926.67
4127.59
3878.91
4092.9
3796.54
3632.57
3828.58
3595.52
4060.08
3808.33
4036.87
3839.23
6573.56
6421.24
4378.42
4361.43
4416.74
4400.32
4403.2
4393.53
4249.05
4240.13
3797.63
3634.39
3827.07
3598.81
3853.57
3399.52
3743.72
3556.63
3853.99
3392.08
3736.01
3554.69
4057.73
3808.68
4034.38
3843.64
4036.34
3800.21
4031.36
3796.03
6612.65
6662.75
6705.29
6744.28
6782.14
6820.05
0.0126501
0.0279825
0.0348815
0.0255536
0.0946017
58.5014
1834.16
5447.17
5447.36
5421.51
4805.92
4804.7
4839.11
4840.17
4683.25
4675.24
4764.78
4754.55
3961.15
4157.13
4006.78
4195.82
3970.12
4160.21
4021.2
4201.02
4118.05
4283.41
4063.9
4236.64
4132.39
4289.02
4077.12
4242.47
3860.12
3846.89
4169.42
4044.73
3884.78
4188.18
3858.51
3850.29
4040.66
4167.87
3886.31
4186.43
3997.59
4270.31
3944.46
4236.37
3997.12
4264
3943.22
4232.2
3991.93
3776.98
4023.56
3734.08
4042.53
3844.24
4040.41
3866.34
6673.21
6606.17
4343.23
4325.04
4367.62
4348.44
4325.22
4311.66
4348.37
4339.7
3278.07
3547.11
3354.38
3653.15
3289.43
3550.68
3362.22
3655.34
3459.25
3401.44
3737.82
3404.3
3718
3736.08
3472.51
3405.64
3741.52
3413.6
3721.31
3732.76
3993.29
3778.97
4022.4
3738.15
3977.94
3648.42
3977.54
3648.47
4035.69
3835.03
4033.64
3856.79
4046.47
3872.03
4041.46
3866.1
6707.09
6743.27
6773.87
6802.29
6830.26
6858.58
0.0102398
0.0235847
0.0198854
0.0150346
0.0837311
59.5925
1788.11
5418.1
5390.51
4886.22
4887.8
4930.93
4934.25
4810.54
4802.35
4842.65
4837.66
4176.62
4338.07
4217.02
4389.87
4186.8
4342.48
4230.29
4393.98
4348.45
4514.45
4265.57
4441.53
4355.36
4518.84
4270.65
4445.57
4043.37
4287.04
4086.81
4317.46
4043.46
4280.5
4088.63
4311.77
4199.09
4408.14
4141.15
4356.26
4208.35
4406.84
4145.46
4355.11
3996.05
3815.13
4026.66
3770.43
6761.36
6689.81
4324.49
4330.77
4333.86
4316.29
4315.84
4289.61
4324.1
4305.96
3093.22
3357.27
3127.31
3401.41
3125.67
3367.62
3150.55
3408.62
3223.67
3487.81
3166.83
3459.35
3237.48
3495.68
3188.45
3464.43
3399.63
3769.55
3432.79
3780.84
3404.12
3768.13
3435.75
3780.01
3573.25
3497.86
3820.41
3778.67
3474.44
3807.87
3574.12
3511.39
3821.81
3774.09
3480.46
3808.44
3990.4
3807.53
4020.5
3763.61
3954.3
3706.08
3948.47
3701.27
6791.78
6813.9
6832.71
6850.76
6868.9
6887.52
0.00819144
0.0124493
0.0108992
-0.00571994
0.0586365
53.5152
1622.6
5370.64
5242.92
4869.08
4865.34
4890.48
4892.77
4751.09
4751.31
4798.14
4793.24
4255.84
4447.48
4294.64
4474.44
4261.01
4446.61
4299.51
4473.64
4343.61
4450.22
4313.22
4468.88
4344.98
4448.77
4311.91
4467.92
4234.77
4427.1
4242.81
4426.83
6851.5
6804.78
4266.45
4294.5
4343.77
4358.84
4284.05
4278.25
4370.09
4346.13
2933.64
3402.15
3056.83
3466.49
2953.1
3408.88
3079.13
3473.19
3093.78
3354.41
3073.61
3376.14
3119.58
3364.5
3105.74
3384.07
3295.13
3555.4
3338.69
3657.1
3306.29
3554.51
3333.19
3657.44
3378.6
3768.74
3362.78
3748.14
3382.42
3766.55
3359.72
3745.27
6865.33
6873.82
6881.65
6889.55
6897.88
6906.82
0.00280317
0.00389896
-0.00346424
-0.0234396
-0.0148773
35.607
1352.25
5274.12
4948.12
4942.64
4977.8
4978.02
4871.18
4864.99
4909.56
4907.5
4526.64
4358.72
4492.93
4397.82
4527.68
4359.14
4492.69
4399.14
4570.36
4486.09
4615.46
4447.28
4571.15
4490.03
4616.36
4448.24
4283.28
4448.79
4324.53
4466.27
4286.87
4448.44
4325.66
4465.94
4356.8
4469.86
4351.57
4478.37
4360.94
4468.38
4350.94
4475.57
6928.31
6916.75
6874
4157.23
4160.67
4245.69
4211.45
4284.42
4263.12
4159.31
4154.06
2964.61
3377.86
3186.53
3593.38
2972.7
3380.58
3199.68
3597.41
3301.41
3583.62
3281.34
3607.92
3310.69
3580.44
3292.62
3604.82
3315.83
3575.94
3331.77
3573.08
6926.09
6923.26
6920.65
6918.64
6917.2
6916.46
0.000281466
-0.00203687
-0.00283748
-0.0427878
-0.188039
6.79998
575.554
4456.29
4884.76
4880.99
4929.77
4925.95
4534.33
4655.93
4706.95
4596.08
4535.83
4656.63
4706.26
4595.01
4837.74
4831.06
4595.55
4379.51
4563.74
4423.31
4593.77
4378.86
4561.1
4421.89
4633.54
4521.18
4666.63
4481.05
4632.01
4522.6
4665.07
4481.44
4366.2
4546.31
4368.45
4542.91
6989.89
7004.62
7011.17
4248.98
4235.45
4338.08
4322.83
4280.76
4277.07
4347.47
4314.91
3293.32
2877.15
3185
2971.66
3284.48
2906.17
3192.13
2971.08
3365.83
3060.22
3381.01
3014.55
3357.79
3059.97
3378.34
3012.03
3178.06
3410.18
3285.11
3540.04
3183.99
3414.15
3288.13
3546.72
3352.77
3616.25
3333.56
3603.94
3368.12
3616.15
3341.59
3604.16
6975.89
6962.49
6949.84
6937.99
6926.83
0.000647975
0.000748037
-0.00716129
-0.129919
-0.0415472
7.63834
32.9422
4246.81
4240.05
1764.72
1753.21
4696.55
4782.41
4724.31
4807.13
4697.37
4782.27
4729.41
4809
4859.17
4856.44
4555.6
4675.03
4658.02
4583.64
4557.43
4673.89
4657.59
4583.35
4658.25
4760.58
4628.67
4732.74
4658.77
4759.19
4627.82
4731.47
4642.24
4533.76
4668.11
4490.17
4640.45
4535.42
4666.45
4492.46
7039.81
7066.43
7119.34
7125.7
4301.16
4276.78
4097.83
4091.47
4137.72
4105.86
2868.65
3263.86
3200.42
2750.43
2900.65
3282.04
3207.05
2752.13
3287.33
2993.73
3304.64
2993.06
3279.95
2995.33
3301.66
2985.22
3422.57
3154.06
3479.85
3060.17
3410.55
3153.11
3475.01
3048.12
3199.95
3464.68
3219.66
3467.34
7015.09
6991.65
6969.28
6947.66
0.00547626
-0.00587054
-0.0250636
0.131865
-0.764828
-0.143509
0.463819
0.488142
2.46659
2.46282
4070.69
4049.87
1390.69
1333.65
4704.58
4795.41
4726.69
4787.82
4705.18
4794.42
4727.6
4787.11
4831.53
4500.29
4849.54
4714.76
4830.53
4497.52
4848.12
4711.7
4574.36
4685.27
4704.58
4605.04
4572.67
4683.81
4702.97
4603.44
4670.52
4787.85
4633.69
4765.27
4671.24
4786.19
4632.31
4763.41
7078.61
7116.02
7161.02
7175.45
4261.78
4248.54
4264.13
4245.51
3944.45
3951.58
2731.52
3199.35
2531.6
3082.83
2757.64
3214.61
2560.71
3085.78
2763.82
3143.69
2846.88
3198.56
2734.31
3173.37
2797.73
3149.71
2852.92
3185.48
2700.07
3161.23
2915.79
3272
2921.82
3277.35
3370.55
3061.76
3322
3067.61
3358.94
3072.19
3322.77
3064.32
7044.13
7011.03
6978.98
0.00787422
-0.0177378
0.0479875
-0.0768968
0.0760147
0.0488864
1.02658
1.05461
3.04011
3.03028
4476.4
4545.36
4880.01
3456.93
4429.79
4836.01
4544.22
4476.72
4834.81
4878.51
3427.67
4426.08
690.252
530.55
1932.64
2427.93
627.917
559.461
1835.61
2409.31
4714.27
4797.3
4740.75
4812.45
4714.1
4796.33
4740.34
4811.81
4840.71
4692.64
4839.25
4690.55
4741.39
4607.14
4738.95
4606.15
4684.08
4786.9
4684.73
4785.53
7107.25
7153.3
7203.28
7258.82
4250.13
4261.97
4279.36
4259.78
4064.69
4048.75
3828.49
3842.07
3069.02
2367.68
2953.26
2608.27
3062.89
2548.39
3071.62
2417.7
2970.95
2622.16
3064.03
2544.93
2812.45
3263.06
2818.99
3262.37
2853.78
3179.39
2935.15
2951.7
3250.3
3133.44
2858.41
3172.92
2922
2975.14
3237.09
3137.83
3053.54
3289.68
3069.2
3297.81
7063.32
7020.7
0.00524224
0.0155318
-0.0891592
0.140318
0.451838
2.07257
2.11124
2.21732
2.22985
1.80527
1.8336
3.63055
3.70093
4799.61
4522.86
4922.48
4872.46
3623.37
4719.61
4798.98
4562.8
4871.64
4918.92
3660.49
4703.01
651.207
504.258
2218.26
3120.35
627.475
538.462
2208.35
3105.32
4736.05
4831.3
4734.59
4830.16
7126.15
7180.94
7238.7
7296.6
7329.56
4028
4035.11
4153.09
4125.18
2357.59
2953.08
2492.22
3018.22
2385.19
2961.95
2515.14
3024.28
2533.81
2477.78
3003.79
2499.04
3023.84
3034.45
2555.47
2503.63
3011.75
2531.02
3029.47
3043.72
3443.37
3080.16
2831.29
2834.58
3436.4
3089.28
2829.98
2860.84
2938.3
3254.75
2957.63
3266.05
2921.73
3208.99
2964.93
3184.49
2927.08
3183.05
2992.24
3189.4
7072.83
0.0231202
-0.0332786
0.111376
0.113037
0.583306
2.20397
2.28215
2.22717
2.27484
2.81381
3.3253
3.1416
2.98316
2.84493
3.46227
3.2415
3.04822
2.91156
2.99855
140.638
79.8733
1624.31
1984.13
209.626
118.565
1828.38
2330.57
7135.53
7199.4
7264.83
7331.17
7410.74
4234.67
4258.11
4084.79
4095.85
4181.74
4189.25
4008.46
4008.45
2469.61
2968.21
2592.06
3053.34
2470.32
2971.04
2587.58
3042.24
2654.72
2671.18
2969.5
3120.47
2740.38
3230.49
2683.75
2670.75
3120.4
2974.76
2724.09
3210
3223.08
2891.52
3224.79
2913.52
-0.00308117
0.0653636
0.182757
0.328149
2.19297
2.20597
2.08096
2.07452
2.33633
2.37445
2.35106
2.36916
3.2034
3.55321
3.40459
3.17429
3.24744
3.6539
3.50797
3.20161
3.2523
3.1134
3.33067
3.18327
3.27329
3.29055
3.36793
3.43157
4.23342
3.87984
4.65691
3.95899
7208.5
7282.87
7358.08
7437.7
7437.43
4005.03
4009.01
4091.66
4077.55
4043.7
3997.72
2880.42
2506.47
3048
2277.79
2876.13
2500.15
3033.01
2269.16
2637.13
2893.63
2786.83
3137.52
2618.37
2873.62
2744.4
3119.38
0.0276179
0.0723122
0.207407
0.316599
2.1991
2.25454
2.09387
2.07607
2.94948
2.84543
2.57511
2.83772
2.59477
2.83981
2.98091
2.84571
2.61237
2.92116
2.59207
2.98095
2.18117
2.25065
3.52572
4.04537
3.59589
3.63219
3.76108
3.98945
3.7061
3.6277
3.10639
2.82152
3.11947
2.85296
7291.58
7376.57
7459.09
7579.33
4065.79
4098.04
3931.92
3946.46
3986.24
4026.22
4061.94
4022.87
2375.49
3068.07
2473.42
3042.07
2378.94
3047.89
2387.56
3059.65
2488.35
3041.38
2359.35
3034.26
2605.83
3310.72
2575.41
3272.84
2634.9
2990.33
2636.43
2976.89
0.0376584
0.10303
0.178716
2.01042
2.01373
1.97171
1.95752
2.04544
2.13276
2.07216
2.11459
2.8516
2.68579
2.62185
2.83036
2.58335
2.77379
2.85229
2.65259
2.70559
2.9941
2.62437
3.05993
2.79318
2.47775
2.81937
2.50515
2.91022
2.52154
3.19724
2.65336
7384.55
7481.44
7568.38
7587.26
3958.6
3965.28
3921.73
3913.31
3918.89
3906.42
2294.86
2928.53
2874.94
2358.68
2933.1
2229.02
2864.56
2342.16
2922.22
2208.1
2283.73
2914.99
2643.93
2552.73
3449.47
2978.48
2596.62
2565.72
3380.57
2959.3
2607.15
3160.17
2612.56
3146.47
0.0342775
0.0886991
0.0951563
1.98143
1.99651
1.94734
1.95264
2.78208
2.53889
2.38753
2.8422
2.4777
2.7646
2.96672
2.61493
2.44343
2.93354
2.53405
2.8359
1.98569
2.00662
2.55172
2.7972
2.62977
2.99557
2.90486
2.57514
3.18757
2.70316
7487.11
7593.4
7697.23
4070.38
4087.6
3902.56
3914.9
4145.5
4147.75
3994.86
3959.94
2188.31
2845.1
2354.19
2938.93
2250.05
2899.83
2212.53
2238.68
2890.07
2852.85
2351.61
2936.11
2493.53
2842.39
2451.72
3151.78
2445.3
2492.26
3146.35
2828.44
0.0190485
0.0484957
0.0469262
1.91654
1.92402
1.90594
1.90606
2.86458
2.60208
2.57504
3.01107
2.61407
2.8972
2.95867
2.6793
2.59371
3.00142
2.62679
2.90082
2.76035
2.3959
2.92618
2.53373
2.82156
2.44033
2.92937
2.56113
2.86411
2.57478
3.00393
2.66691
7598.71
7710.73
7777.98
4085.51
4077.98
4005.18
3976.21
3879.48
3888.58
2059.34
2689.5
2636.37
2175.54
2594.46
2042.09
2085.26
2699.05
2637.78
2176.36
2598.66
2039.38
2330.69
2547.26
3068.17
2974.37
2534.02
2950.64
2322.77
3059.6
-0.00283499
0.00892471
1.91834
1.97361
1.97929
1.9206
1.92649
1.91454
2.11452
2.6581
2.3913
2.12228
2.6556
2.39447
2.915
2.57801
2.69101
2.92958
2.63876
2.97699
3.07765
2.67881
2.71503
2.98902
2.66162
3.00819
2.80837
2.46724
2.7923
2.46589
7719.72
7870.69
7944.3
4120.18
4096.14
4005.76
3986.94
1902.06
2561.76
2130.37
2639.06
2034.16
2561.35
1944.95
2061.88
2569.12
2585.51
2146.96
2645.61
2329.43
2676.33
2225.93
2654.7
2347.97
2682.58
2236.64
2657.03
2361.32
2897.69
2363.47
2889.25
-0.0435906
-0.0473094
1.94403
1.9327
1.95019
1.94286
1.97459
1.96508
2.65701
2.54166
2.49071
2.57964
2.45199
2.40954
2.85411
2.5123
2.51866
2.64776
2.48083
2.57475
2.45519
2.40764
2.8404
2.51048
2.68257
3.00798
2.66231
2.94381
2.61001
2.39825
2.58539
2.39598
7851.22
8016.23
4090.55
4112.11
4077.35
4103.41
4040.02
4037.83
3572.7
1926.59
2559.12
3596.41
1960.4
2573.18
2310.35
2329.01
2533.37
2875.69
2303.27
2524.44
2333.6
2878.99
2323.9
2705.94
2362.9
2732.17
2343.94
2707.21
2358.34
2710.87
-0.0638847
-0.0632541
2.04228
2.41848
2.67842
1.75581
2.066
2.41676
2.67329
1.78348
1.86758
1.86866
2.62158
2.64122
2.60398
2.35555
2.49489
2.36133
2.59856
2.55818
2.64519
2.34182
2.49009
2.36222
2.58326
2.77848
2.58304
2.73952
7996.36
8101.17
4211.99
4004.9
3987.82
4215.95
4146.03
4114.17
2044.85
1936.56
2367.03
1906.95
2433.57
2592.58
1890.39
2625.9
2059.64
1973.43
2371.13
1941.41
2437.69
2600.92
1909.26
2624.96
2411.91
2283.91
2710.91
2802.68
2393.68
2702.69
2304.48
2811.74
-0.0530935
1.97861
1.92749
1.93731
1.9697
2.01637
1.99161
2.91689
2.54024
2.57993
2.53803
2.69889
2.5646
2.69766
2.50214
2.00302
2.59651
2.34762
2.90808
2.54556
2.57457
2.53166
2.6976
2.56565
2.70916
2.50407
2.0082
2.59267
2.34945
2.75416
2.64253
2.46
2.43055
2.7375
2.65353
2.45287
2.43881
8143.97
8266.82
4211.06
3827.8
2539.23
1944.21
3805.57
2543.91
1952.66
4170.82
4114.22
4089.38
2143.76
1998.36
2150.45
2279.88
2682.57
2432.07
2169.7
2012.15
2178.88
2697.87
2292.56
2440.86
2373.97
2761.15
2379.03
2770.14
-0.0411238
1.80694
2.06778
1.81932
2.07709
2.08863
2.05884
2.6285
2.62473
2.5207
2.34093
2.554
2.35449
2.46992
2.42601
2.39052
2.55728
2.45492
2.26592
2.61367
2.2689
2.62283
2.63346
2.32737
2.52672
2.57171
2.35477
2.44928
2.50722
2.39961
2.55936
2.45627
2.28012
2.62268
2.27633
8299.49
4048.58
4221.55
4170.24
4093.53
4117.44
4101.34
1792.25
2427.96
1969.41
2637.91
1864.71
2581.14
2005.29
2615.47
1870.23
2423.26
2001.41
2635.44
1868.14
2612.16
2002.71
2590.69
3642.15
1865.12
2546.28
3665.41
1935.54
2563.16
2131.55
2127.57
2430.56
2776.85
2145.77
2130.42
2436.46
2774.92
-0.0350385
1.79713
2.32741
2.62274
2.12513
1.82888
2.33465
2.63511
2.11325
2.12056
2.09716
2.69261
2.44187
2.51342
2.38983
2.44959
2.63111
2.4485
2.24071
2.42309
2.33658
2.71265
2.44606
2.52615
2.38635
2.4718
2.4863
2.66619
2.26072
2.43581
2.35323
8316.22
4074.99
4133.5
4077.55
4117.53
4125.71
4116.33
2094.2
2127.77
2726.54
2543.27
2233.31
2860.09
2113.82
2137.12
2730.51
2485.11
2099.16
2667.83
1880.25
1953.66
2543.07
1838.37
2500.44
2411.51
1883.16
2634.8
1926.02
1945.97
2534.8
1880.56
2491.47
2448.58
1897.42
2626.39
-0.0572557
2.1373
2.11791
1.87919
2.32838
2.68429
2.35204
2.57883
2.10378
1.90953
2.34763
2.70451
2.36738
2.6164
2.09488
2.55784
2.71459
2.67034
2.35672
2.47064
2.40436
2.59045
2.72804
2.69857
2.37037
2.48901
2.42469
8452.57
4056.87
4068.79
2477.14
1872.68
4022.41
2473.34
1866.4
4091.76
4136.02
4132.95
2169.44
2661.45
2190.55
2899.56
2206.24
2685.12
2185.2
2897.43
2251.62
2121.09
2181.09
2513.55
2802.49
2553.05
2257.95
2107.95
2154.39
2785.47
2518.8
2555.27
-0.0622138
2.15068
2.15213
2.12689
2.12969
1.94952
2.38564
2.75556
2.40225
2.70396
2.80917
2.47283
2.08649
1.98338
2.39313
2.75674
2.41411
2.69595
2.84407
2.4951
2.07803
2.6031
2.43227
2.67632
2.45842
8465.87
3999.35
4028.96
4140.5
2281.29
1811.19
2248.84
1845.76
4088.14
2282.41
1812.91
2248.5
1843.48
4107.85
4093.11
2267.52
2183.56
2208.24
2572.28
2526.44
2612.44
2298.15
2189.74
2212.6
2538.17
2579.02
2619.82
-0.0889874
2.1559
2.14936
2.129
2.12312
2.0714
2.06506
1.97276
2.48654
2.85333
2.50078
2.84828
2.60176
2.94209
2.58581
2.96887
2.63534
2.47881
1.99445
2.49929
2.83654
2.49959
2.85446
2.59862
2.94264
2.59315
2.94313
2.71169
2.51433
8468.16
4006.71
3997.5
4038.8
4035.77
4031.98
2136.97
1790.28
2213.92
1734.1
2228.91
2702.84
3985.61
2135.37
1805.82
2214.86
1736.6
2235.13
2709.02
4155.06
4142.97
2297.46
2664.58
2338.92
2674.42
-0.0496074
2.14366
2.1195
2.12165
2.10338
2.0758
2.06792
2.06422
2.05748
1.96279
1.99087
2.46189
2.78448
2.47361
2.76472
2.63793
3.1309
2.63595
3.11437
2.60858
2.85737
2.61233
2.90788
2.45933
2.76267
2.47435
2.75026
2.65199
3.09719
2.63023
3.13166
2.61257
2.86066
2.62065
2.91007
8458.98
3997.75
4009.73
4036.38
4043.62
4139.43
4133.49
4023.64
2207.49
1757.34
2289.12
1730.72
2441.05
2185.97
2593.38
2112.16
2294.9
2664.42
3983.09
2204.41
1757.54
2282.42
1725.48
2450.61
2211.08
2605.35
2135.66
2328.08
2672.41
-0.0586169
2.08336
2.04264
2.06438
2.01924
2.06907
2.07328
2.05952
2.0671
1.95579
1.97382
1.98492
1.98807
2.44847
2.79761
2.45254
2.75835
2.44934
2.75549
2.44751
2.75307
2.56035
2.87066
2.54316
2.87915
2.55137
2.84599
2.54069
2.86217
8326.69
4004.47
4063.74
4034.64
4097.29
4138.01
4157.39
4133.38
4145.86
4047.58
4008.2
2363.15
1839.01
2470.62
1816.53
2610.83
2096.95
2708.67
2098.28
2472.01
2220.65
2631.28
2121.29
2357.21
1841.95
2461.9
1806.5
2599.45
2100.64
2700.98
2084.21
2480.23
2267.58
2654.06
2155.24
-0.0668958
-0.0656787
2.08184
2.0555
2.07167
2.04335
1.98757
1.96409
2.00921
1.98578
2.43504
2.82091
2.45953
2.7723
2.44185
2.72479
2.43517
2.74482
2.43866
2.7564
2.44928
2.75607
2.44417
2.72169
2.44794
2.73777
2.5333
2.9382
2.55953
2.85422
2.5485
2.91864
2.55084
2.91427
8311
4080.28
4058.31
4122.1
4097.65
4108.44
4143.15
4096.63
4138.92
4046.71
4026.57
4007.94
3988.02
2330.24
1831.99
2373.9
1811.1
2321.73
1813.64
2359.9
1796.35
2872.27
2140.57
2786.74
2157.89
2855.1
2141.81
2774.85
2143.17
-0.0743811
1.97724
1.8897
1.97605
1.89256
-0.0527117
1.9282
1.92966
1.95739
1.93774
2.47477
2.73877
2.44061
2.77169
2.44197
2.71422
2.44453
2.68376
2.48236
2.73304
2.45233
2.78003
2.44874
2.71596
2.45748
2.68903
2.50424
2.95267
2.56346
2.87364
2.4955
2.85747
2.51011
2.82537
2.52564
2.91259
2.55019
2.91661
2.49052
2.80643
2.49874
2.81319
8154.92
8278.71
4131.2
4138.33
4122.77
4103.95
4037.86
4151.78
3997.25
4096.73
2332.06
1831.47
2371.54
1811.79
2369.86
1837.56
2471.51
1821.44
2323.45
1813.9
2358.34
1797.14
2361.13
1843.68
2463.94
1810.3
2858.14
2180.82
2881.9
2168.74
2844.38
2172.9
2867.76
2153.61
-0.0541901
1.95703
1.89072
1.9604
1.88464
1.98575
1.79482
1.96091
1.82709
-0.0248382
2.41236
2.71535
2.41344
2.68535
2.37275
2.64609
2.29005
2.67838
2.42793
2.75387
2.43671
2.71751
2.3901
2.68896
2.31029
2.71428
2.57696
2.92692
2.52356
2.93337
2.5819
3.00244
2.64623
2.80608
2.56704
2.85355
2.49755
2.93706
2.5761
2.94362
2.6387
2.80104
8009
8111.04
4231.5
4213.68
4176.39
4177.38
4079.55
4145.5
4026.92
4074.24
2210.38
1756.93
2284.75
1733.56
2144.83
1796.97
2220.52
1742.13
2208.77
1758.8
2276.95
1735.65
2142.83
1807.06
2216.76
1744.16
2858.36
2181.82
2882.71
2170.65
2877.85
2142.83
2784.17
2166.37
2844.29
2173.93
2868.54
2156.08
2859.17
2146.84
2773.28
2155.28
-0.0337805
-0.0347121
1.88365
1.88212
1.90412
1.8922
2.54516
2.63487
2.48907
2.56918
2.49207
2.33498
2.84447
2.49043
2.64018
2.48641
2.60417
2.69358
2.49418
2.60276
2.49914
2.35605
2.83697
2.49272
2.6661
2.49162
-0.00226338
2.58689
2.92541
2.5817
2.90841
2.49963
2.83724
2.59331
2.916
2.58555
2.89718
2.52716
2.88
2.60958
2.98569
2.67718
2.83425
2.60032
2.9432
2.65851
2.8332
7863.97
8029.84
4213.33
4097.79
4223.21
4111.53
3637.55
4121.64
3675.9
4102.11
2290.11
1820.28
2258.16
1852.96
2480.41
1883.38
2636.15
1872.94
2285.88
1816.36
2252.8
1848.42
2477.96
1907.21
2637.89
1869.61
2620.65
2096.75
2706.73
2101.58
2451.82
2198.21
2601.57
2125.28
2615.18
2107.84
2700.88
2113.5
2460.63
2206.2
2609.59
2139.22
-0.0464004
1.93458
1.80987
1.94659
1.81208
-0.00870548
1.93183
1.93061
1.96847
1.94609
2.64923
2.54968
2.53183
2.32398
2.43036
2.23384
2.67134
2.46847
2.4942
2.32235
2.74064
2.67566
2.56524
2.39408
2.48716
2.26529
2.69143
2.46978
2.54862
2.34348
0.0152792
2.63365
2.93586
2.66748
2.85663
2.63664
2.88797
2.67853
2.92678
2.66796
2.95701
2.68002
2.9699
7732.96
7883.84
7956.15
4143.96
4048.58
4119.05
4044.96
1933.1
1893.54
2540.53
1827.24
2493.15
2411.7
1795.37
2582.61
1859.8
2541.11
1916.33
1971.41
2542.84
1894.28
2496.02
2454.83
1873.24
2614.47
1938.45
2562.83
2616.39
2238.63
2713.06
2211.98
2550.15
2121.7
2622.35
2240.12
2715.04
2220.58
2556
2104.6
2488.89
2241.33
2641.2
2138.64
2495.52
2261.37
2657.9
2161.72
-0.00261464
1.81549
1.79216
1.81544
1.78086
1.97732
1.7522
1.98106
1.77297
0.0185161
2.46201
2.55102
2.50862
2.62232
2.38941
2.71855
2.38415
2.64121
2.47873
2.56047
2.51287
2.6547
2.40119
2.72855
2.39005
2.66518
2.75981
2.48582
2.61772
2.49759
2.65976
2.41023
2.88922
2.55213
2.63867
2.50357
2.69738
2.43105
0.0363985
7612.52
7724.42
7788.31
4121.03
4128.19
4086.99
4108.28
3837.06
4019.76
3810.36
3998.5
2234.73
2181.18
2811.95
2517.22
2194.38
2907.53
2009.57
2618.66
2237.56
2861.77
2283.26
2164.3
2529.84
2799.01
2191.78
2905.77
2004.79
2592.88
2099.57
2667.6
2667.13
2312.7
2679.39
2308.76
2576.53
2276.69
2678.13
2331.49
2683.47
2339.44
2588.93
2304.81
-0.0339743
0.0620789
1.75277
1.80294
1.77672
1.79915
2.45365
2.57644
2.42877
2.47243
2.37435
2.28007
2.61741
2.29128
2.50501
2.32606
2.46542
2.5964
2.42843
2.48826
2.38023
2.28747
2.62119
2.29417
2.52444
2.32964
-0.0405229
2.30433
2.58301
2.37009
2.55393
2.35613
2.61699
2.33162
2.60992
2.36897
2.59616
2.37057
2.65903
0.002062
7501.53
7607.81
7709.3
4092.82
4077.97
4088.52
4097.85
3567.99
4012.92
3594.81
3996.58
2410.18
1971.06
2637.43
1858.84
2543.9
1897.69
2632.66
1949.97
2405.05
1999.13
2631.54
1861.02
2547.67
1911.63
2629.81
1956.19
2169.16
2531.9
2130.98
2546.03
2173.02
2664.16
2210.99
2548.32
2134.59
2482.56
2212.81
2685.11
0.152575
1.75898
1.77297
1.74714
1.75973
0.0688928
1.74103
1.77459
1.7745
1.79251
2.59042
2.46315
2.461
2.26825
2.38153
2.24315
2.49725
2.29248
2.45158
2.2749
2.6059
2.49108
2.46474
2.26697
2.4156
2.25827
2.52181
2.29499
2.48867
2.2847
-0.0126599
2.46963
2.74127
2.48086
2.76348
-0.0151769
7399.6
7496.04
7582.09
7601.88
4010.34
3911.76
3984.09
3924.16
1935.37
2058.04
2381.27
1909.09
2441.3
2597.36
1909.35
2568.09
1930.37
2562.51
2061.91
1976.91
2384.9
1945.12
2447.84
2603.4
1951.59
2591.08
1961.35
2575.74
2772.6
2088.51
2720.48
2127.15
2440.89
2013.48
2769.29
2111.72
2722.99
2135.4
2446.7
2018.81
0.215309
-0.198453
1.64912
1.64372
1.66572
1.65237
-0.00219036
2.2119
2.43229
2.27215
2.5108
1.76328
2.22678
2.46175
2.28011
2.54535
1.79217
2.59303
2.45206
2.54239
2.3929
2.66092
2.44809
2.62662
2.46609
2.5819
2.40786
2.70366