/*--------------------------------*- C++ -*----------------------------------*\
| =========                 |                                                 |
| \\      /  F ield         | OpenFOAM: The Open Source CFD Toolbox           |
|  \\    /   O peration     | Version:  5.x                                   |
|   \\  /    A nd           | Web:      www.OpenFOAM.org                      |
|    \\/     M anipulation  |                                                 |
\*---------------------------------------------------------------------------*/
FoamFile
{
    version     2.0;
    format      ascii;
    class       surfaceScalarField;
    location    "0.2";
    object      phi;
}
// * * * * * * * * * * * * * * * * * * * * * * * * * * * * * * * * * * * * * //

dimensions      [0 3 -1 0 0 0 0];

internalField   nonuniform List<scalar> 
30582
(
0.000209337
3.09855e-05
0.000170072
3.92657e-05
0.000208871
6.24723e-05
0.000125016
4.50559e-05
0.000169274
7.88624e-05
0.000208441
9.44621e-05
9.49145e-05
3.01017e-05
0.000124051
9.02791e-05
0.000168023
0.000119281
0.000205164
0.000129837
6.83438e-05
2.65707e-05
9.37665e-05
6.03862e-05
0.000122122
0.00013618
0.000163125
0.000161321
0.00020617
0.000164345
4.96238e-05
1.87201e-05
6.72679e-05
5.30692e-05
9.13376e-05
9.11708e-05
0.000117615
0.00018169
0.000161546
0.000205945
0.000197749
0.000207456
3.55069e-05
1.41168e-05
4.87379e-05
3.725e-05
6.50235e-05
7.93833e-05
8.70039e-05
0.000121782
0.000114916
0.00022832
0.000147616
0.000256078
0.000209609
0.000238922
2.53548e-05
1.0152e-05
3.47899e-05
2.80647e-05
4.69151e-05
5.53584e-05
6.14241e-05
0.000104963
8.31566e-05
0.000153541
0.000103946
0.00027199
0.000146624
0.000319064
0.000183378
0.000296866
1.80631e-05
7.29168e-06
2.47989e-05
2.01429e-05
3.33385e-05
4.16411e-05
4.40472e-05
7.27352e-05
5.77443e-05
0.000130375
7.3382e-05
0.000184105
0.000102273
0.00031634
0.000119109
0.000383333
0.000227425
1.18161e-05
1.28604e-05
5.20274e-06
1.76412e-05
1.44494e-05
2.36801e-05
2.98013e-05
3.11032e-05
5.45851e-05
4.08657e-05
8.96137e-05
5.02466e-05
0.000153511
6.95553e-05
0.000216823
8.52799e-05
0.000350169
0.000192037
0.000418721
0.000379112
-0.000374388
9.16329e-06
3.69718e-06
1.25458e-05
1.02984e-05
1.6797e-05
2.13325e-05
2.19786e-05
3.89259e-05
2.85423e-05
6.69085e-05
3.50477e-05
0.000104813
4.66479e-05
0.000176418
5.31377e-05
0.000248966
0.000180723
0.000361482
0.000432487
0.000365346
5.46476e-05
-0.000429078
6.5393e-06
2.62415e-06
8.93089e-06
7.3123e-06
1.19185e-05
1.5177e-05
1.55233e-05
2.77878e-05
1.99771e-05
4.74911e-05
2.41916e-05
7.77646e-05
3.16163e-05
0.000119844
3.42884e-05
0.000195267
0.000149481
0.000280208
0.000418813
0.000375156
0.000102641
0.000317353
-0.000129272
-0.000299806
4.67661e-06
1.86283e-06
6.36858e-06
5.18665e-06
8.46851e-06
1.07625e-05
1.09769e-05
1.97236e-05
1.40027e-05
3.37622e-05
1.67726e-05
5.49101e-05
2.14266e-05
8.79543e-05
2.18931e-05
0.000132239
0.000137095
0.000207653
0.000301265
0.000397756
5.0923e-05
0.000426874
-7.37503e-05
0.000261831
-8.2072e-05
-0.000217735
3.35293e-06
1.32373e-06
4.55165e-06
3.67981e-06
6.02937e-06
7.62594e-06
7.77716e-06
1.39624e-05
9.84124e-06
2.38852e-05
1.16618e-05
3.88731e-05
1.46383e-05
6.16983e-05
1.40504e-05
9.5797e-05
0.000125326
0.000144008
0.000181556
0.000327361
6.18503e-05
0.000386828
-9.88808e-06
0.000363011
-5.2262e-05
0.00023202
-4.81645e-05
-0.000169571
2.41035e-06
9.42518e-07
3.26164e-06
2.61363e-06
4.30343e-06
5.40578e-06
5.5237e-06
9.8795e-06
6.93677e-06
1.6867e-05
8.14184e-06
2.74052e-05
1.00465e-05
4.3465e-05
9.20089e-06
6.65478e-05
0.000119728
0.000101396
0.000111493
0.000214071
5.86654e-05
0.000330546
2.27346e-05
0.000354205
-8.71824e-06
0.000319466
-2.86873e-05
0.000212542
-1.11186e-05
1.73708e-06
6.7312e-07
2.34354e-06
1.86036e-06
3.08015e-06
3.83681e-06
3.93428e-06
6.9952e-06
4.90528e-06
1.1911e-05
5.70653e-06
1.93024e-05
6.93577e-06
3.0516e-05
6.06071e-06
4.66052e-05
0.00011399
7.22859e-05
6.7689e-05
0.000145201
5.15543e-05
0.000221186
3.92095e-05
0.000314072
1.44446e-05
0.000331041
-3.24304e-06
0.000294021
-6.71464e-06
1.25366e-06
4.83229e-07
1.68787e-06
1.32848e-06
2.21084e-06
2.72946e-06
2.81077e-06
4.96021e-06
3.4805e-06
8.41996e-06
4.01577e-06
1.36018e-05
4.8127e-06
2.14255e-05
4.03416e-06
3.25426e-05
0.00010948
5.11147e-05
4.35899e-05
9.63894e-05
4.04256e-05
0.000156338
3.79437e-05
0.000222455
2.67246e-05
0.000301793
9.54642e-06
0.000318251
4.56512e-08
9.05527e-07
3.47955e-07
1.21742e-06
9.53355e-07
1.5909e-06
1.94816e-06
2.01422e-06
3.52583e-06
2.47824e-06
5.96236e-06
2.83731e-06
9.59837e-06
3.35634e-06
1.50582e-05
2.7096e-06
2.27501e-05
0.000105068
3.69557e-05
2.90415e-05
6.56706e-05
3.01005e-05
0.000106726
3.1271e-05
0.000163017
2.65354e-05
0.000222648
1.63617e-05
0.000294978
3.7948e-06
6.51015e-07
2.5434e-07
8.785e-07
6.86558e-07
1.14691e-06
1.3971e-06
1.44737e-06
2.51481e-06
1.77068e-06
4.23322e-06
2.01271e-06
6.78685e-06
2.35178e-06
1.06029e-05
1.83544e-06
1.59323e-05
0.000100461
2.73571e-05
1.99421e-05
4.60628e-05
2.16517e-05
7.41296e-05
2.3749e-05
0.000114257
2.23058e-05
0.000167253
1.61358e-05
0.000222876
5.73131e-06
4.64099e-07
1.86715e-07
6.31836e-07
5.00655e-07
8.27236e-07
1.00597e-06
1.04219e-06
1.80207e-06
1.26911e-06
3.01621e-06
1.43333e-06
4.81246e-06
1.65558e-06
7.48295e-06
1.25253e-06
1.11857e-05
9.53882e-05
2.10045e-05
1.38498e-05
3.34519e-05
1.52519e-05
5.24643e-05
1.72788e-05
8.06077e-05
1.71661e-05
0.000119404
1.36007e-05
0.000169792
5.5415e-06
3.23489e-07
1.40371e-07
4.50414e-07
3.67776e-07
5.94923e-07
7.32673e-07
7.50759e-07
1.29718e-06
9.11864e-07
2.15914e-06
1.02439e-06
3.42503e-06
1.17091e-06
5.29703e-06
8.60807e-07
7.87457e-06
8.95867e-05
1.69846e-05
9.60363e-06
2.52412e-05
1.05915e-05
3.80973e-05
1.22906e-05
5.74529e-05
1.25932e-05
8.51863e-05
1.04979e-05
0.000122512
4.64625e-06
2.14324e-07
1.08956e-07
3.13884e-07
2.76635e-07
4.23871e-07
5.38528e-07
5.39523e-07
9.43656e-07
6.55663e-07
1.5532e-06
7.34174e-07
2.44923e-06
8.31676e-07
3.76418e-06
5.95886e-07
5.56184e-06
8.2882e-05
1.45727e-05
6.68898e-06
1.98723e-05
7.24833e-06
2.85475e-05
8.63588e-06
4.17388e-05
9.00264e-06
6.10427e-05
7.71825e-06
8.79691e-05
3.58242e-06
1.25108e-07
8.91572e-08
2.0795e-07
2.14874e-07
2.95153e-07
4.05156e-07
3.84145e-07
6.93664e-07
4.70462e-07
1.12866e-06
5.26647e-07
1.7606e-06
5.92908e-07
2.68792e-06
4.15089e-07
3.94488e-06
7.53285e-05
1.31042e-05
4.66566e-06
1.65523e-05
4.85895e-06
2.22048e-05
6.00434e-06
3.11486e-05
6.34346e-06
4.43861e-05
5.52437e-06
6.32344e-05
2.6337e-06
4.75174e-08
7.77718e-08
1.21531e-07
1.75896e-07
1.95452e-07
3.14611e-07
2.67485e-07
5.21688e-07
3.34585e-07
8.29371e-07
3.77307e-07
1.27787e-06
4.23063e-07
1.93037e-06
2.90758e-07
2.81219e-06
6.70442e-05
1.22149e-05
3.2635e-06
1.44549e-05
3.21568e-06
1.81287e-05
4.1484e-06
2.40149e-05
4.41285e-06
3.3054e-05
3.89468e-06
4.60057e-05
1.88509e-06
-2.5653e-08
7.35481e-08
4.66437e-08
1.53222e-07
1.14372e-07
2.57288e-07
1.77349e-07
4.04835e-07
2.3292e-07
6.23302e-07
2.6814e-07
9.38456e-07
3.02177e-07
1.39871e-06
2.03397e-07
2.01771e-06
5.83467e-05
1.14974e-05
2.33016e-06
1.3106e-05
2.16693e-06
1.54439e-05
2.84529e-06
1.93794e-05
3.02501e-06
2.53668e-05
2.71246e-06
3.42176e-05
1.32868e-06
-1.00689e-07
7.5427e-08
-2.41347e-08
1.44874e-07
4.43182e-08
2.23751e-07
1.04284e-07
3.30666e-07
1.54665e-07
4.83224e-07
1.86775e-07
7.04694e-07
2.14258e-07
1.02639e-06
1.43859e-07
1.45829e-06
4.93182e-05
1.10441e-05
1.73269e-06
1.20814e-05
1.56604e-06
1.36734e-05
1.95741e-06
1.62865e-05
2.05375e-06
2.03112e-05
1.86387e-06
2.61907e-05
9.2602e-07
-1.84012e-07
8.35217e-08
-9.67542e-08
1.48315e-07
-2.18598e-08
2.11457e-07
4.12253e-08
2.87212e-07
9.16174e-08
3.94003e-07
1.24251e-07
5.45909e-07
1.49351e-07
7.69701e-07
1.01411e-07
1.06894e-06
4.08389e-05
9.9536e-06
1.43822e-06
1.13676e-05
1.24949e-06
1.2405e-05
1.38762e-06
1.42199e-05
1.39959e-06
1.69085e-05
1.27168e-06
2.08784e-05
6.36684e-07
-2.82034e-07
9.79517e-08
-1.77464e-07
1.64143e-07
-8.98099e-08
2.16408e-07
-1.82739e-08
2.71245e-07
3.72404e-08
3.41897e-07
7.42663e-08
4.44223e-07
9.98523e-08
5.95568e-07
7.07789e-08
8.00489e-07
3.27843e-05
9.16004e-06
1.24836e-06
1.0214e-05
1.23708e-06
1.14307e-05
1.04274e-06
1.27594e-05
9.96839e-07
1.46091e-05
8.71546e-07
1.72907e-05
4.35036e-07
-4.01703e-07
1.19454e-07
-2.72424e-07
1.92636e-07
-1.65305e-07
2.39514e-07
-7.93111e-08
2.77493e-07
-1.36538e-08
3.22309e-07
3.11896e-08
3.85165e-07
6.06857e-08
4.83538e-07
4.80424e-08
6.18466e-07
2.54059e-05
8.22873e-06
1.15325e-06
9.34824e-06
1.16459e-06
1.03696e-05
8.96866e-07
1.16206e-05
7.60045e-07
1.30085e-05
6.20755e-07
1.4856e-05
2.98591e-07
-5.50899e-07
1.49048e-07
-3.88219e-07
2.3506e-07
-2.53932e-07
2.81054e-07
-1.46934e-07
3.06994e-07
-6.58712e-08
3.29682e-07
-8.86195e-09
3.62411e-07
2.73259e-08
4.18582e-07
3.0848e-08
5.00833e-07
1.87089e-05
7.36188e-06
1.05189e-06
8.4136e-06
1.15023e-06
9.45372e-06
8.14038e-07
1.05205e-05
6.76309e-07
1.17422e-05
4.7062e-07
1.31724e-05
2.12641e-07
-7.38826e-07
1.8796e-07
-5.32401e-07
2.93255e-07
-3.61735e-07
3.42771e-07
-2.26174e-07
3.60137e-07
-1.23542e-07
3.64524e-07
-4.97414e-08
3.70476e-07
-3.39457e-09
3.93074e-07
1.67877e-08
4.32634e-07
1.2697e-05
6.53693e-06
9.04624e-07
7.55142e-06
1.08841e-06
8.54511e-06
7.7625e-07
9.56296e-06
6.18303e-07
1.0632e-05
4.08199e-07
1.18338e-05
1.6126e-07
-9.76755e-07
2.3805e-07
-7.14013e-07
3.6968e-07
-4.95843e-07
4.2742e-07
-3.22482e-07
4.3904e-07
-1.9089e-07
4.27376e-07
-9.46176e-08
4.09277e-07
-3.43652e-08
4.01331e-07
4.38155e-09
4.05372e-07
7.16911e-06
5.95126e-06
6.7228e-07
6.75466e-06
9.61787e-07
7.70334e-06
7.24152e-07
8.64807e-06
5.91665e-07
9.64177e-06
3.71353e-07
1.0705e-05
1.38045e-07
-1.27821e-06
3.01459e-07
-9.44019e-07
4.67993e-07
-6.6483e-07
5.38709e-07
-4.42325e-07
5.47303e-07
-2.72574e-07
5.20709e-07
-1.46824e-07
4.79516e-07
-6.80757e-08
4.42897e-07
-7.41215e-09
4.12978e-07
1.97662e-06
5.55915e-06
3.87614e-07
6.17319e-06
7.29458e-07
6.96201e-06
6.27565e-07
7.81322e-06
5.50018e-07
8.7225e-06
3.50044e-07
9.69386e-06
1.26718e-07
-1.65958e-06
3.81165e-07
-1.2355e-06
5.92598e-07
-8.79095e-07
6.82093e-07
-5.93453e-07
6.89787e-07
-3.74176e-07
6.48898e-07
-2.10059e-07
5.83931e-07
-1.07e-07
5.18407e-07
-1.97185e-08
4.55088e-07
-3.0207e-06
5.35979e-06
7.50928e-08
5.789e-06
4.45924e-07
6.39568e-06
4.69482e-07
7.09403e-06
4.74734e-07
7.8912e-06
3.23523e-07
8.76355e-06
1.23066e-07
-2.14055e-06
4.80642e-07
-1.60439e-06
7.49582e-07
-1.15097e-06
8.64096e-07
-7.85145e-07
8.73539e-07
-5.02403e-07
8.17888e-07
-2.88738e-07
7.27527e-07
-1.54045e-07
6.3096e-07
-3.3437e-08
5.32069e-07
-7.94883e-06
5.34145e-06
-2.30783e-07
5.59472e-06
1.40601e-07
6.02401e-06
2.7286e-07
6.54121e-06
3.54738e-07
7.18869e-06
2.76515e-07
7.93235e-06
1.15113e-07
-2.74517e-06
6.0439e-07
-2.06974e-06
9.45689e-07
-1.49521e-06
1.09344e-06
-1.02842e-06
1.10701e-06
-6.65209e-07
1.03608e-06
-3.88122e-07
9.17123e-07
-2.12567e-07
7.8599e-07
-4.97094e-08
6.47206e-07
-1.29206e-05
5.4822e-06
-5.13308e-07
5.58325e-06
-1.55265e-07
5.836e-06
6.04142e-08
6.1827e-06
2.07959e-07
6.6481e-06
2.06557e-07
7.23722e-06
9.74791e-08
-3.50213e-06
7.56967e-07
-2.65477e-06
1.18946e-06
-1.92957e-06
1.37989e-06
-1.33658e-06
1.40134e-06
-8.72035e-07
1.31356e-06
-5.14415e-07
1.16217e-06
-2.86592e-07
9.91046e-07
-6.97575e-08
8.06008e-07
-1.80179e-05
5.74058e-06
-7.67523e-07
5.7251e-06
-4.2308e-07
5.82305e-06
-1.46142e-07
6.00403e-06
5.26732e-08
6.30053e-06
1.21231e-07
6.7073e-06
7.05999e-08
-4.44604e-06
9.44122e-07
-3.3872e-06
1.48974e-06
-2.47586e-06
1.73589e-06
-1.72565e-06
1.76895e-06
-1.13423e-06
1.66343e-06
-6.75025e-07
1.47405e-06
-3.80832e-07
1.25634e-06
-9.53295e-08
1.01659e-06
-2.32678e-05
6.05993e-06
-1.00334e-06
5.98206e-06
-6.61072e-07
5.95664e-06
-3.36659e-07
5.99513e-06
-9.59227e-08
6.12839e-06
3.14813e-08
6.36968e-06
3.90721e-08
-5.61795e-06
1.17221e-06
-4.30065e-06
1.85804e-06
-3.16004e-06
2.17427e-06
-2.21522e-06
2.22569e-06
-1.46554e-06
2.10037e-06
-8.78888e-07
1.86732e-06
-5.01002e-07
1.59423e-06
-1.28274e-07
1.2893e-06
-2.87013e-05
6.4559e-06
-1.22533e-06
6.29481e-06
-8.73532e-07
6.19881e-06
-5.11911e-07
6.12699e-06
-2.29663e-07
6.11793e-06
-5.46442e-08
6.20327e-06
6.29947e-09
1.44954e-06
-7.06719e-06
-5.43462e-06
2.3066e-06
-4.01356e-06
2.71198e-06
-2.8286e-06
2.788e-06
-1.88284e-06
2.64323e-06
-1.13689e-06
2.35852e-06
-6.53951e-07
2.02037e-06
-1.70864e-07
1.63691e-06
-3.42606e-05
6.85814e-06
-1.44647e-06
6.69864e-06
-1.0855e-06
6.51862e-06
-6.70038e-07
6.35826e-06
-3.54287e-07
6.24767e-06
-1.38144e-07
6.19655e-06
-2.47051e-08
2.85232e-06
-6.83728e-06
4.67254e-06
-1.17396e-05
-5.07333e-06
3.36674e-06
-3.59416e-06
3.47793e-06
-2.4062e-06
3.31167e-06
-1.46225e-06
2.96879e-06
-8.48067e-07
2.55276e-06
-2.25847e-07
2.07548e-06
-3.98263e-05
7.22118e-06
-1.68065e-06
7.13065e-06
-1.26657e-06
6.90758e-06
-8.28307e-07
6.68639e-06
-4.70321e-07
6.47424e-06
-2.20228e-07
6.32699e-06
-5.01233e-08
4.16346e-06
-6.38435e-06
9.19454e-06
-1.13596e-05
7.02497e-06
-1.87647e-05
-4.54507e-06
4.31797e-06
-3.05996e-06
4.13201e-06
-1.87084e-06
3.72049e-06
-1.09351e-06
3.21435e-06
-2.96507e-07
2.62355e-06
-4.52671e-05
7.54271e-06
-1.96909e-06
7.56558e-06
-1.43151e-06
7.34817e-06
-9.65876e-07
7.07274e-06
-5.917e-07
6.81719e-06
-2.96368e-07
6.55074e-06
-7.18189e-08
5.34044e-06
-5.72197e-06
1.34204e-05
-1.06106e-05
1.38224e-05
-1.81579e-05
1.02505e-05
-2.90158e-05
-3.87274e-06
5.13102e-06
-2.38187e-06
4.64327e-06
-1.40269e-06
4.0298e-06
-3.86986e-07
3.30492e-06
-5.04404e-05
7.82037e-06
-2.36985e-06
8.0012e-06
-1.62129e-06
7.82363e-06
-1.10476e-06
7.53664e-06
-7.02735e-07
7.21107e-06
-3.65462e-07
6.89634e-06
-9.56592e-08
6.3474e-06
-4.87964e-06
1.72158e-05
-9.51768e-06
2.01727e-05
-1.69614e-05
2.01567e-05
-2.80648e-05
1.4502e-05
-4.35184e-05
-3.01815e-06
5.76748e-06
-1.79017e-06
5.03087e-06
-5.02607e-07
4.14546e-06
-5.52404e-05
8.11375e-06
-2.95297e-06
8.43606e-06
-1.89385e-06
8.32645e-06
-1.2786e-06
8.05327e-06
-8.18434e-07
7.6951e-06
-4.19682e-07
7.28893e-06
-1.21379e-07
7.13693e-06
-3.80768e-06
2.04659e-05
-8.12996e-06
2.58771e-05
-1.52225e-05
2.93907e-05
-2.61958e-05
2.84742e-05
-4.20373e-05
2.0114e-05
-6.36326e-05
-2.27404e-06
6.25141e-06
-6.49957e-07
5.17821e-06
-5.95903e-05
8.48707e-06
-3.76413e-06
8.91383e-06
-2.32163e-06
8.86754e-06
-1.53979e-06
8.6186e-06
-9.58293e-07
8.23154e-06
-4.76285e-07
7.78093e-06
-1.47125e-07
7.73864e-06
-2.87582e-06
2.30197e-05
-6.36155e-06
3.07693e-05
-1.30225e-05
3.76693e-05
-2.35014e-05
4.14263e-05
-3.9148e-05
3.9337e-05
-6.126e-05
2.74309e-05
-9.10633e-05
-8.3667e-07
6.43807e-06
-6.33612e-05
8.93264e-06
-4.83942e-06
9.51493e-06
-2.94857e-06
9.49066e-06
-1.94039e-06
9.25272e-06
-1.15406e-06
8.82334e-06
-5.56799e-07
8.32883e-06
-1.74389e-07
7.97881e-06
-1.07693e-06
2.49718e-05
-4.82814e-06
3.46283e-05
-1.02207e-05
4.4766e-05
-2.01194e-05
5.29719e-05
-3.50471e-05
5.69199e-05
-5.67309e-05
5.33622e-05
-8.71912e-05
3.81618e-05
-0.000129225
-6.6677e-05
9.7408e-06
-6.21086e-06
1.02502e-05
-3.82339e-06
1.03185e-05
-2.50838e-06
1.00075e-05
-1.44266e-06
9.51401e-06
-6.90226e-07
8.94831e-06
-2.05666e-07
1.09781e-05
-6.96818e-05
2.57719e-05
-1.87712e-06
3.75923e-05
-7.79234e-06
5.03796e-05
-1.58346e-05
6.28284e-05
-2.99762e-05
7.23823e-05
-5.05098e-05
7.6535e-05
-7.99042e-05
7.322e-05
-0.00012225
4.88905e-05
-0.000178116
-7.90777e-06
1.14047e-05
-4.92455e-06
1.13006e-05
-3.22816e-06
1.09878e-05
-1.84912e-06
1.0372e-05
-8.86716e-07
9.6839e-06
-2.47711e-07
1.28522e-05
-9.79306e-06
3.04093e-05
-7.43206e-05
3.88832e-05
-3.16811e-06
5.47013e-05
-1.21143e-05
7.06294e-05
-2.3636e-05
8.54363e-05
-4.30309e-05
9.64039e-05
-7.03796e-05
0.000102606
-0.000109291
9.72029e-05
-0.000170564
8.70403e-05
-0.000265157
-6.26211e-06
1.27219e-05
-4.11136e-06
1.21608e-05
-2.34575e-06
1.14586e-05
-1.15843e-06
1.06215e-05
-3.06324e-07
1.43877e-05
-7.81088e-06
3.67833e-05
-1.61745e-05
4.28796e-05
-7.8319e-05
5.67219e-05
-5.18884e-06
7.66256e-05
-1.81108e-05
9.57251e-05
-3.39256e-05
0.000112791
-5.94194e-05
0.000126494
-9.4269e-05
0.000134099
-0.000146188
0.000152213
-0.000235737
0.000103989
-0.000369146
-5.16216e-06
1.37687e-05
-2.97807e-06
1.27925e-05
-1.47547e-06
1.17737e-05
-3.87372e-07
1.56148e-05
-6.39634e-06
4.19842e-05
-1.30353e-05
5.11443e-05
-2.44609e-05
5.95123e-05
-8.11109e-05
7.96649e-05
-8.22839e-06
0.000103573
-2.59596e-05
0.000125527
-4.66627e-05
0.000145369
-7.8295e-05
0.000162093
-0.000122264
0.000190436
-0.000184411
0.000184377
-0.000316125
0.000477753
-0.000221174
-0.000625725
-3.73482e-06
1.45312e-05
-1.86868e-06
1.31968e-05
-4.79425e-07
1.65435e-05
-4.66981e-06
4.59841e-05
-1.0414e-05
5.77404e-05
-1.96375e-05
7.06824e-05
-3.56493e-05
8.21009e-05
-8.35463e-05
0.000107913
-1.25687e-05
0.000135071
-3.5504e-05
0.000159657
-6.09523e-05
0.000182425
-9.86284e-05
0.000213258
-0.000145086
0.000233105
-0.00023314
0.000381365
-0.000219738
0.000466655
-0.00014381
-0.000544021
-6.76728e-05
-0.000558054
-2.32978e-06
1.49966e-05
-6.04086e-07
1.71174e-05
-2.9123e-06
4.89042e-05
-7.60165e-06
6.29442e-05
-1.56113e-05
7.86656e-05
-2.75683e-05
9.60824e-05
-4.96037e-05
0.00011005
-8.56806e-05
0.000140825
-1.83228e-05
0.00017006
-4.59069e-05
0.000196728
-7.52559e-05
0.000227349
-0.00011272
0.000256246
-0.000168227
0.000321745
-0.00017352
0.000393879
-0.000146964
0.000457495
-0.000107299
-0.000494006
-9.50156e-05
-0.00051668
-5.14828e-05
-0.000506572
-7.53174e-07
-9.48046e-07
5.06559e-05
-4.66984e-06
6.67064e-05
-1.13482e-05
8.48566e-05
-2.17447e-05
0.000104828
-3.62089e-05
0.000126979
-6.64578e-05
0.00014222
-8.70742e-05
0.000176872
-2.51357e-05
0.000206479
-5.56585e-05
0.000236343
-8.42506e-05
0.000266429
-0.000122904
0.000287908
-0.000134391
0.000347557
-0.000127199
0.000415856
-0.000105327
0.000466748
-8.49884e-05
-0.000489059
-9.56049e-05
-0.000493418
-7.90677e-05
-0.000489096
-4.03439e-05
-0.000466229
-1.54639e-06
6.8987e-05
-6.93007e-06
8.91896e-05
-1.56299e-05
0.00011147
-2.83027e-05
0.000135169
-4.43085e-05
0.000161444
-8.56163e-05
0.000176846
-8.70476e-05
0.000213255
-3.19115e-05
0.000242159
-6.14742e-05
0.000270303
-8.81243e-05
0.000267393
-0.000102389
0.000317684
-0.000104518
0.000380013
-9.13567e-05
0.000432178
-7.07583e-05
0.000465558
-5.0719e-05
-0.000499828
-9.44897e-05
-0.000490175
-9.33583e-05
-0.000479128
-7.02781e-05
-0.000459163
-3.69991e-05
-0.00042923
-2.31495e-06
9.1827e-05
-9.53011e-06
0.000115986
-2.00948e-05
0.000140966
-3.40535e-05
0.000167344
-5.01885e-05
0.000196153
-0.000104917
0.000210941
-8.47347e-05
0.000246841
-3.65932e-05
0.00027169
-6.28616e-05
0.000253709
-7.44402e-05
0.0002967
-8.14047e-05
0.000349517
-7.40216e-05
0.000398559
-5.77384e-05
0.00044247
-4.76712e-05
0.000538215
-4.04779e-05
-0.000548457
-9.03207e-05
-0.000503998
-0.000104251
-0.000479283
-9.29955e-05
-0.000456412
-6.88034e-05
-0.00042736
-3.60021e-05
-0.000393229
-3.18213e-06
0.000118697
-1.22232e-05
0.000144849
-2.39689e-05
0.00017068
-3.74006e-05
0.000197508
-5.15648e-05
0.000225461
-0.000119454
0.000241233
-7.91281e-05
0.00027289
-3.77922e-05
0.000245534
-5.4686e-05
0.000280663
-5.84029e-05
0.000324152
-5.60397e-05
0.00036856
-4.40222e-05
0.000420105
-3.53737e-05
0.000477703
1.28404e-05
0.000442913
-4.12714e-06
-0.000562196
-1.40956e-05
5.06974e-05
4.63304e-05
-0.000107797
-0.000530981
-0.000117583
-0.000490666
-0.000111572
-0.000460708
-9.67717e-05
-0.000428445
-6.98211e-05
-0.000393543
-3.64424e-05
-0.000356788
-4.08889e-06
0.000147077
-1.44676e-05
0.000172857
-2.61666e-05
0.000197009
-3.69123e-05
0.000221192
-4.72911e-05
0.00024364
-0.000121852
0.000263913
-7.01512e-05
0.000241495
-3.37535e-05
0.000268782
-4.28052e-05
0.000303532
-3.77823e-05
0.000342052
-2.95315e-05
0.000395046
-1.89625e-05
0.000426129
1.62015e-05
0.00046811
-1.23573e-05
-3.13197e-06
-3.67455e-06
-2.77948e-05
3.04744e-05
-2.08634e-05
-0.000595161
-2.86795e-05
-1.05934e-05
-1.46974e-05
-4.06467e-07
-2.51316e-05
8.30925e-06
-3.27279e-06
9.14798e-06
4.11472e-05
1.28731e-05
2.97771e-05
-0.000143269
-0.000505295
-0.000127459
-0.00047478
-0.0001226
-0.000434881
-0.00010204
-0.000396228
-7.20417e-05
-0.000357946
-3.73858e-05
-0.000319403
-4.88889e-06
0.000174026
-1.56539e-05
0.00019651
-2.56601e-05
0.000216469
-3.21451e-05
0.000234777
-3.838e-05
0.000248996
-0.000106913
0.000228859
-5.7513e-05
0.000262045
-2.70162e-05
0.000287329
-2.66022e-05
0.000318444
-1.4174e-05
0.000366575
-1.05945e-06
0.000390807
1.63602e-05
0.000482778
1.53396e-06
-7.77376e-05
-8.05732e-05
0.000306953
-6.71522e-05
-7.23807e-05
1.45073e-06
-8.96928e-07
-3.56966e-06
-7.55463e-05
3.04574e-05
1.75343e-06
2.40686e-05
-1.08018e-06
5.73175e-06
-0.000550555
-0.000187875
-6.9203e-05
1.18223e-05
-4.3178e-06
-0.000118027
3.62055e-05
-0.000112127
2.39082e-05
2.24481e-05
4.6501e-06
-1.70353e-05
2.2525e-06
-1.47743e-05
-2.60955e-05
-0.000136515
-0.00049624
-0.000147929
-0.000449451
-0.000134049
-0.000402873
-0.000107096
-0.000361174
-7.46235e-05
-0.00032071
-3.83988e-05
-0.000281005
-5.36085e-06
0.000196159
-1.52902e-05
0.000213013
-2.21669e-05
0.000226468
-2.37957e-05
0.000238297
-2.7647e-05
0.000208528
-8.65784e-05
0.000248441
-4.39083e-05
0.000277629
-1.73171e-05
0.00029825
-6.40862e-06
0.00033417
1.82315e-05
0.000361186
2.85625e-05
0.000475552
2.35875e-05
0.000351775
-1.65099e-05
-1.56262e-05
-6.34985e-06
-4.80158e-06
2.54678e-06
-6.12015e-05
5.6453e-05
-6.49505e-05
-6.44734e-05
6.51953e-05
-7.05546e-05
1.68954e-06
-7.00393e-05
8.5994e-06
-6.93702e-05
5.68958e-06
1.45522e-06
1.66576e-05
1.12648e-05
4.6041e-06
-8.25012e-05
8.75476e-05
3.52326e-05
-4.3417e-05
3.59959e-05
-3.17305e-05
-0.000528991
-0.00015808
-5.27007e-06
-1.81689e-05
-0.000294668
-1.19285e-05
-2.03121e-05
-2.97018e-05
-3.79786e-05
2.74438e-05
-9.51665e-06
-1.66908e-07
4.77606e-05
3.30173e-05
-9.06025e-05
9.18486e-05
3.21632e-05
-4.35629e-05
3.28086e-05
-3.50853e-05
4.95221e-06
2.83471e-05
-5.02845e-05
5.37751e-06
-2.92137e-05
2.63229e-05
-4.46178e-05
2.37895e-06
-3.06339e-05
-0.000170527
-0.000473641
-0.000169028
-0.000414472
-0.000142586
-0.000367381
-0.000112083
-0.000323714
-7.70071e-05
-0.000282102
-3.92526e-05
-0.000241753
-5.26356e-06
0.000210956
-1.32159e-05
0.000220362
-1.60694e-05
0.000227127
-1.27077e-05
0.000195881
-1.50694e-05
0.000225858
-6.40226e-05
0.00026233
-2.86119e-05
0.000285414
-4.48134e-06
0.000304484
2.32774e-05
0.000327332
5.20857e-05
0.000432197
7.19175e-05
0.000390645
-6.35897e-06
-6.83787e-06
-3.73716e-08
-2.04902e-06
2.58076e-06
-7.30268e-05
-1.61014e-05
-7.2261e-05
-1.01561e-05
2.07692e-06
-6.30412e-05
-1.84128e-05
-6.33284e-05
-1.16574e-05
7.50608e-07
-0.000139678
-3.96665e-06
7.65849e-05
-4.90768e-05
-8.40334e-06
1.58877e-05
-4.43396e-05
2.16836e-05
6.56352e-05
-0.000138879
-5.99597e-06
7.69657e-05
-1.04827e-05
-4.90047e-05
1.55393e-05
-4.4338e-05
2.11925e-05
6.52004e-05
1.07612e-06
-0.000127515
-3.28853e-05
3.10973e-05
-3.38289e-05
3.10226e-05
-0.000128583
-3.1614e-05
3.09215e-05
-3.35108e-05
3.06734e-05
5.09125e-06
0.000111006
3.92565e-05
-5.09304e-05
3.62927e-05
-4.19037e-05
4.64203e-05
2.11232e-05
2.03844e-07
-5.40738e-05
2.15595e-05
-1.88313e-05
-4.13794e-05
4.04973e-05
-2.3703e-05
1.50312e-07
3.71442e-05
2.62899e-05
-3.44362e-05
-1.75502e-05
-0.000496516
-0.000203002
-0.000403307
-2.31036e-05
-2.08923e-05
-1.85592e-06
-3.58703e-06
1.51878e-06
-0.000117478
0.000118749
-1.47171e-05
-0.000115842
0.00012117
-2.41225e-05
1.98703e-06
-0.000105352
-4.3815e-05
-0.000103292
-4.85388e-05
0.000111866
3.57985e-05
-4.9206e-05
3.27354e-05
-4.37692e-05
3.22337e-06
4.95529e-05
-2.46034e-05
4.81178e-05
-2.28745e-05
4.71503e-05
-2.15053e-05
4.48541e-05
-2.56845e-05
4.89459e-05
2.06272e-05
-5.67292e-05
1.95232e-05
-1.84691e-05
-4.0621e-05
4.04572e-05
-2.49299e-05
3.90513e-05
2.4384e-05
-3.41271e-05
-2.09521e-05
-6.15799e-05
2.65917e-05
5.93689e-07
8.66783e-06
-2.48696e-05
1.19116e-05
-4.12926e-05
8.75231e-07
-5.35957e-06
-2.5145e-05
-6.33388e-05
2.64147e-05
7.1127e-06
-2.42723e-05
1.13933e-05
-3.77342e-05
-7.39004e-06
-2.69523e-05
-0.00021108
-0.000431588
-0.000178542
-0.000378514
-0.000150454
-0.000329009
-0.000116299
-0.000284422
-7.88313e-05
-0.000242525
-3.98475e-05
-0.000201907
-4.54045e-06
0.000216667
-9.51959e-06
0.000218688
-7.70195e-06
0.000184
-9.94065e-07
0.000205369
5.27444e-06
0.000233431
-3.51615e-05
0.000267479
-1.06787e-05
0.00028565
1.43521e-05
0.00029429
5.63195e-05
0.000362028
0.000122254
0.00040598
2.68168e-06
1.48026e-06
2.72127e-05
2.5209e-05
1.8043e-06
-5.19411e-05
-1.9264e-05
-5.39108e-05
-1.44508e-05
1.3506e-06
-4.92712e-05
-4.05748e-06
-5.48532e-05
2.44954e-07
1.33679e-06
-0.000125598
-3.53537e-05
2.71339e-05
-3.78052e-05
2.67015e-05
-0.000127497
-3.23303e-05
2.86112e-05
-3.41035e-05
2.79271e-05
1.54746e-06
-0.000110902
-4.05072e-05
2.22773e-05
-4.04865e-05
2.40531e-05
-0.000112522
-3.689e-05
2.32895e-05
-3.66191e-05
2.51172e-05
-1.98103e-05
-3.20357e-05
2.61039e-05
-2.33346e-05
-1.51819e-05
7.91968e-07
-3.53054e-05
-2.635e-05
9.79762e-08
-7.58476e-06
2.98838e-05
-1.72025e-05
-4.13493e-05
-1.78232e-05
1.85106e-08
-3.31342e-05
1.12319e-05
5.34239e-07
5.3209e-05
-8.63266e-06
-1.46463e-05
-1.03862e-07
-3.34663e-05
-1.94748e-05
-3.26543e-05
2.64719e-05
-2.33473e-05
-2.62499e-05
3.01414e-05
-7.72896e-06
-1.68945e-05
-4.23418e-05
-1.77557e-05
-3.30899e-05
1.11563e-05
5.27254e-05
-9.02663e-06
-1.69683e-05
4.28067e-05
-4.28348e-05
-1.58886e-05
3.48121e-05
-7.69812e-10
-3.33014e-05
1.26204e-05
-1.71635e-05
-1.52079e-05
-1.76954e-09
1.55095e-05
-1.64234e-05
4.45174e-05
-4.54376e-05
-1.42703e-05
3.51123e-05
-3.42278e-05
1.36136e-05
-1.68907e-05
-1.44442e-05
1.58035e-05
-2.82397e-05
1.88994e-05
-1.12715e-07
1.92066e-05
2.95027e-05
-1.84483e-05
3.71177e-05
-2.91025e-05
1.31662e-07
2.66164e-05
3.81321e-05
-2.40193e-05
4.96139e-05
2.13213e-05
2.26769e-07
-5.08165e-05
1.21389e-06
-2.18439e-05
-3.41303e-05
3.75482e-05
-5.27689e-06
2.39602e-07
4.20163e-05
1.18209e-05
-2.30412e-05
-7.31764e-06
-0.000443404
-0.000264192
-0.000408907
-6.23192e-05
-5.66601e-05
-4.21438e-05
-3.62777e-05
3.06058e-06
-0.000108202
9.77215e-05
-1.56836e-05
-0.000111035
9.86649e-05
-5.46276e-06
2.93988e-06
5.75063e-06
9.48984e-06
1.65736e-06
-0.000116717
0.000119511
-4.64843e-05
3.68405e-05
-4.48946e-05
3.54014e-05
-0.000119215
0.000117291
-4.60224e-05
3.59454e-05
-4.50667e-05
3.46024e-05
1.55817e-06
-7.13746e-05
1.02927e-05
-3.29844e-05
-7.42956e-05
1.55506e-05
-4.96001e-05
2.0746e-05
1.95892e-05
-7.29464e-05
1.1056e-05
-3.37439e-05
-7.56397e-05
1.48988e-05
-4.95565e-05
2.0422e-05
1.93133e-05
-2.91779e-05
1.86518e-05
1.87599e-05
2.74507e-05
-1.8132e-05
3.78034e-05
-2.84203e-05
2.46084e-05
3.77866e-05
-2.51009e-05
3.83733e-07
2.77408e-05
-4.78997e-08
4.06827e-05
-3.17211e-05
-5.10613e-05
-1.3195e-05
6.94401e-07
2.63939e-05
-8.06317e-06
-9.88341e-07
2.79552e-05
3.8895e-05
-3.17441e-05
-5.04861e-05
-1.22211e-05
2.38715e-05
-1.04293e-05
5.02782e-05
2.0661e-05
-5.04936e-05
-6.93536e-07
-2.15882e-05
-3.25808e-05
3.6818e-05
-7.57913e-06
4.28775e-05
1.04356e-05
-2.15179e-05
-1.13544e-05
2.2436e-05
4.65584e-07
-1.18589e-05
-2.49577e-05
2.23675e-05
-1.25567e-05
-2.6206e-05
-0.000210314
-0.000399816
-0.000191121
-0.000337846
-0.000157133
-0.000288177
-0.000119218
-0.000244036
-8.00034e-05
-0.000202372
-4.02029e-05
-0.000161707
-3.25707e-06
0.000213391
-4.16816e-06
0.000176148
1.50739e-07
0.000186335
1.79414e-05
0.000211488
2.71206e-05
0.000233303
-1.01092e-06
0.000260716
1.42547e-05
0.000270571
3.80721e-05
0.000283541
0.000134807
0.000328375
3.4618e-05
3.25987e-05
6.7508e-05
6.51346e-05
2.14291e-07
-5.56759e-05
8.87234e-06
-5.89251e-05
5.76756e-06
-1.90345e-07
-5.32079e-05
2.4936e-05
-5.43589e-05
2.04537e-05
1.4441e-06
-0.000103288
-3.8044e-05
2.21477e-05
-3.42123e-05
2.1753e-05
-0.000105447
-3.47047e-05
2.29688e-05
-3.09976e-05
2.266e-05
1.84286e-06
-7.64698e-05
-3.01956e-05
6.86472e-06
-2.98754e-05
2.05152e-05
-8.07738e-05
-2.65085e-05
7.89955e-06
-2.55632e-05
2.16117e-05
-1.67753e-05
-4.55913e-05
-1.5822e-05
-3.47223e-05
-2.63548e-07
1.20293e-05
-1.69448e-05
-4.77812e-05
-1.8675e-05
-4.67714e-07
-3.73776e-05
1.28476e-05
-1.611e-05
-4.78269e-05
-1.38308e-05
-3.53727e-05
1.33837e-05
-1.60662e-05
-4.91422e-05
-1.67214e-05
-3.74771e-05
1.35078e-05
-1.50063e-05
4.57047e-05
-4.06195e-05
-3.05819e-05
3.77504e-05
-5.13427e-07
-3.96514e-05
9.66658e-06
-1.59765e-05
-2.6581e-05
-5.41111e-07
9.00883e-06
-1.42305e-05
4.61754e-05
-4.10865e-05
-2.77483e-05
3.76654e-05
-3.91477e-05
1.00207e-05
-1.52943e-05
-2.4291e-05
9.46088e-06
-1.2782e-05
1.25887e-05
-5.40574e-06
-1.46369e-05
-1.46371e-05
2.59483e-08
2.82366e-07
1.79142e-05
-9.79731e-06
-2.11905e-05
5.58042e-08
-1.76528e-05
-1.26148e-05
1.43388e-05
-5.32749e-06
-1.46794e-05
1.84739e-05
-1.45486e-05
-9.68924e-06
-2.12008e-05
-1.75037e-05
-1.2091e-05
2.18315e-05
-2.3343e-05
1.74019e-05
2.78222e-07
-1.63751e-05
-1.22071e-05
1.74141e-07
-1.18151e-05
2.1908e-05
-2.3448e-05
1.74569e-05
-1.66185e-05
-1.20767e-05
-3.3164e-05
2.4489e-05
-1.2872e-07
2.26515e-05
1.5642e-05
-2.33198e-05
3.88167e-05
-7.05172e-06
1.13123e-07
1.20213e-05
4.5098e-05
-5.81153e-06
1.19769e-05
9.36744e-06
3.64148e-07
-1.07665e-05
-9.95097e-06
-1.13567e-05
1.5373e-05
3.44421e-07
1.55126e-05
-7.05248e-06
-0.000398976
-0.000254742
-0.000384763
-7.08301e-05
-7.50139e-05
-7.08557e-05
-7.16351e-05
3.22331e-06
-0.000104979
9.54952e-05
-5.60578e-05
-0.000105524
8.90222e-05
-3.69324e-05
3.42838e-06
-5.28314e-05
-3.97066e-05
2.47465e-06
-0.000134641
0.000133171
-5.52003e-05
4.59389e-05
-4.92571e-05
4.1853e-05
-0.000129251
0.000126294
-4.90712e-05
4.82648e-05
-4.34861e-05
4.42454e-05
1.5555e-06
-4.50537e-05
3.82731e-05
-4.47845e-05
4.06644e-05
-4.21709e-05
3.9736e-05
-4.05225e-05
4.20519e-05
-2.21787e-05
-4.93712e-05
4.22847e-05
-1.72186e-05
-3.9812e-05
-2.95305e-07
3.51377e-05
1.95833e-05
-2.35369e-05
-5.20959e-05
-1.86329e-05
-1.74032e-07
-4.12642e-05
1.34904e-05
-2.15404e-05
-4.87307e-05
4.01251e-05
-1.58762e-05
-3.99396e-05
3.447e-05
1.95775e-05
-2.30891e-05
-5.22101e-05
-1.84984e-05
-4.19741e-05
1.33731e-05
-2.23743e-05
5.61728e-05
-6.17957e-05
-4.98688e-06
-3.05055e-05
-6.07666e-05
3.78171e-06
3.85696e-05
-2.96031e-07
-8.34644e-06
-3.67852e-05
-2.39349e-05
-2.15885e-05
-2.55684e-07
-5.62816e-06
3.07279e-07
3.46333e-06
1.17242e-05
-2.15975e-05
5.63083e-05