/*--------------------------------*- C++ -*----------------------------------*\
| =========                 |                                                 |
| \\      /  F ield         | OpenFOAM: The Open Source CFD Toolbox           |
|  \\    /   O peration     | Version:  5.x                                   |
|   \\  /    A nd           | Web:      www.OpenFOAM.org                      |
|    \\/     M anipulation  |                                                 |
\*---------------------------------------------------------------------------*/
FoamFile
{
    version     2.0;
    format      ascii;
    class       volScalarField;
    location    "0.2";
    object      rAU;
}
// * * * * * * * * * * * * * * * * * * * * * * * * * * * * * * * * * * * * * //

dimensions      [-1 3 1 0 0 0 0];

internalField   nonuniform List<scalar> 
12160
(
1.38846e-06
1.38896e-06
1.38843e-06
1.38909e-06
1.38897e-06
1.38815e-06
1.38912e-06
1.3891e-06
1.38913e-06
1.38763e-06
1.38913e-06
1.38914e-06
1.38912e-06
1.38871e-06
1.38732e-06
1.38953e-06
1.38914e-06
1.38932e-06
1.38895e-06
1.38779e-06
1.38699e-06
1.38955e-06
1.38953e-06
1.38931e-06
1.3893e-06
1.38789e-06
1.38727e-06
1.38666e-06
1.38957e-06
1.38955e-06
1.38962e-06
1.38934e-06
1.38924e-06
1.38698e-06
1.38714e-06
1.38627e-06
1.38958e-06
1.38957e-06
1.38962e-06
1.38962e-06
1.38946e-06
1.38856e-06
1.38668e-06
1.38691e-06
1.96542e-06
1.38959e-06
1.38958e-06
1.38962e-06
1.38962e-06
1.38962e-06
1.38893e-06
1.38791e-06
1.38668e-06
2.98326e-06
1.59662e-05
1.3896e-06
1.38959e-06
1.38962e-06
1.38962e-06
1.38962e-06
1.38927e-06
1.38824e-06
1.38753e-06
3.80293e-06
3.23124e-05
0.000913917
1.3896e-06
1.3896e-06
1.38962e-06
1.38962e-06
1.38962e-06
1.38935e-06
1.38871e-06
1.38792e-06
6.34811e-06
7.67026e-05
0.00104265
0.00138713
1.3896e-06
1.3896e-06
1.38961e-06
1.38961e-06
1.38962e-06
1.38944e-06
1.38894e-06
1.38845e-06
8.77361e-06
0.000280454
0.00130858
0.0013877
0.00138926
1.38961e-06
1.3896e-06
1.38961e-06
1.38961e-06
1.38961e-06
1.38949e-06
1.38914e-06
1.38875e-06
1.35342e-05
0.000588477
0.00138208
0.00138777
0.00138808
0.00138938
1.38961e-06
1.38961e-06
1.38961e-06
1.38961e-06
1.38961e-06
1.38953e-06
1.38928e-06
1.389e-06
1.97454e-05
0.00101531
0.00138713
0.0013896
0.00138787
0.00138942
0.00138674
1.38961e-06
1.38961e-06
1.38961e-06
1.38961e-06
1.38961e-06
1.38956e-06
1.38938e-06
1.38917e-06
2.90837e-05
0.00124521
0.00138854
0.0013896
0.0013896
0.00138953
0.00138866
1.38961e-06
1.38961e-06
1.38961e-06
1.38961e-06
1.38961e-06
1.38957e-06
1.38945e-06
1.3893e-06
4.23795e-05
0.00134095
0.0013896
0.0013896
0.00138959
0.00138957
0.00138832
1.38961e-06
1.38961e-06
1.38961e-06
1.38961e-06
1.38961e-06
1.38959e-06
1.3895e-06
1.38939e-06
6.12164e-05
0.00137354
0.0013896
0.0013896
0.00138959
0.00138955
0.00138818
1.38961e-06
1.38961e-06
1.38961e-06
1.38961e-06
1.38961e-06
1.38959e-06
1.38953e-06
1.38945e-06
8.7452e-05
0.00138411
0.0013896
0.0013896
0.0013896
0.00138957
0.00138824
1.38961e-06
1.38961e-06
1.38961e-06
1.38961e-06
1.38961e-06
1.3896e-06
1.38955e-06
1.3895e-06
0.000123307
0.0013876
0.0013896
0.0013896
0.0013896
0.0013896
0.00138856
1.38961e-06
1.38961e-06
1.38961e-06
1.38961e-06
1.38961e-06
1.3896e-06
1.38957e-06
1.38953e-06
0.000171154
0.0013888
0.0013896
0.0013896
0.0013896
0.0013896
0.0013888
1.38961e-06
1.38961e-06
1.38961e-06
1.38961e-06
1.38961e-06
1.38961e-06
1.38958e-06
1.38955e-06
0.000233138
0.00138924
0.0013896
0.0013896
0.0013896
0.0013896
0.00138901
1.38961e-06
1.38961e-06
1.38961e-06
1.38961e-06
1.38961e-06
1.38961e-06
1.38959e-06
1.38957e-06
0.000310542
0.0013894
0.00138948
0.0013896
0.0013896
0.0013896
0.00138917
1.38961e-06
1.38961e-06
1.38961e-06
1.38961e-06
1.38961e-06
1.38961e-06
1.3896e-06
1.38958e-06
0.000403093
0.00138948
0.0013895
0.00138948
0.0013896
0.0013896
0.00138929
1.38961e-06
1.38961e-06
1.38961e-06
1.38961e-06
1.38961e-06
1.38961e-06
1.3896e-06
1.38959e-06
0.000508211
0.00138951
0.00138951
0.0013895
0.0013896
0.0013896
0.00138937
1.38961e-06
1.38961e-06
1.38961e-06
1.38961e-06
1.38961e-06
1.38961e-06
1.3896e-06
1.3896e-06
0.000621346
0.00138952
0.00138952
0.00138943
0.0013896
0.0013896
0.00138943
1.38961e-06
1.38961e-06
1.38961e-06
1.38961e-06
1.38961e-06
1.38961e-06
1.3896e-06
1.3896e-06
0.000734939
0.00138946
0.00138953
0.00138944
0.00138951
0.0013896
0.00138947
1.38961e-06
1.38961e-06
1.38961e-06
1.38961e-06
1.38961e-06
1.38961e-06
1.38961e-06
1.3896e-06
0.000842946
0.00138947
0.00138947
0.00138946
0.00138944
0.0013896
0.00138949
1.38961e-06
1.38961e-06
1.38961e-06
1.38961e-06
1.38961e-06
1.38961e-06
1.3896e-06
1.38961e-06
0.000938222
0.00138949
0.00138948
0.00138947
0.00138945
0.00138952
0.00138951
1.38961e-06
1.38961e-06
1.38961e-06
1.38961e-06
1.38961e-06
1.38961e-06
1.3896e-06
1.38961e-06
0.00101673
0.0013895
0.00138949
0.00138948
0.00138946
0.00138952
0.00138952
1.38961e-06
1.38961e-06
1.38961e-06
1.38961e-06
1.38961e-06
1.38961e-06
1.3896e-06
1.38961e-06
0.00107565
0.00138951
0.0013895
0.00138949
0.00138948
0.00138953
0.00138953
1.38961e-06
1.38961e-06
1.38961e-06
1.38961e-06
1.38961e-06
1.38961e-06
1.3896e-06
1.38961e-06
0.00111472
0.00138951
0.0013895
0.00138949
0.00138948
0.00138954
0.00138954
1.38961e-06
1.38961e-06
1.38961e-06
1.38961e-06
1.38961e-06
1.38961e-06
1.3896e-06
1.38961e-06
0.00113362
0.00138952
0.00138951
0.0013895
0.00138949
0.00138954
0.00138954
1.38961e-06
1.38961e-06
1.38961e-06
1.38961e-06
1.38961e-06
1.38961e-06
1.38961e-06
1.38961e-06
0.00113297
0.00138952
0.00138952
0.00138951
0.0013895
0.00138954
0.00138955
1.38961e-06
1.38961e-06
1.38961e-06
1.38961e-06
1.38961e-06
1.38961e-06
1.38961e-06
1.38961e-06
0.00111366
0.00138953
0.00138952
0.00138951
0.00138951
0.00138955
0.00138955
1.38961e-06
1.38961e-06
1.38961e-06
1.38961e-06
1.38961e-06
1.38961e-06
1.3896e-06
1.3896e-06
0.00107634
0.00138952
0.00138952
0.00138952
0.00138951
0.00138955
0.00138955
1.38961e-06
1.38961e-06
1.38961e-06
1.38961e-06
1.38961e-06
1.38961e-06
1.3896e-06
1.3896e-06
0.00102275
0.00138952
0.00138952
0.00138952
0.00138951
0.00138955
0.00138956
1.3896e-06
1.38961e-06
1.38961e-06
1.38961e-06
1.38961e-06
1.38961e-06
1.3896e-06
1.3896e-06
0.000955019
0.00138951
0.00138952
0.00138952
0.00138951
0.00138955
0.00138956
1.3896e-06
1.3896e-06
1.38961e-06
1.38961e-06
1.38961e-06
1.38961e-06
1.3896e-06
1.38959e-06
0.000875718
0.00138951
0.00138951
0.00138951
0.00138951
0.00138955
0.00138956
1.38962e-06
1.3896e-06
1.38961e-06
1.38961e-06
1.38961e-06
1.38961e-06
1.38959e-06
1.38959e-06
0.000788507
0.0013895
0.00138951
0.00138951
0.00138951
0.00138955
0.00138956
1.38962e-06
1.3896e-06
1.38961e-06
1.38961e-06
1.38961e-06
1.3896e-06
1.38959e-06
1.38958e-06
0.000697301
0.00138949
0.0013895
0.0013895
0.00138952
0.00138955
0.00138956
1.38963e-06
1.3896e-06
1.38958e-06
1.38961e-06
1.38961e-06
1.3896e-06
1.38958e-06
1.38957e-06
0.000606152
0.00138948
0.00138949
0.0013895
0.00138954
0.00138956
0.00138956
1.38963e-06
1.38962e-06
1.38958e-06
1.38956e-06
1.38961e-06
1.3896e-06
1.38957e-06
1.38956e-06
0.000518709
0.00138949
0.00138948
0.00138949
0.00138954
0.00138959
0.00138956
1.38963e-06
1.38962e-06
1.38961e-06
1.38956e-06
1.38953e-06
1.38959e-06
1.38956e-06
1.38955e-06
0.000437808
0.00138953
0.00138949
0.00138948
0.00138954
0.0013896
0.00138955
1.3896e-06
1.38962e-06
1.38961e-06
1.38961e-06
1.38953e-06
1.38949e-06
1.38954e-06
1.38953e-06
0.000365291
0.00138952
0.00138953
0.00138947
0.00138954
0.0013896
0.00138955
1.38953e-06
1.38959e-06
1.38961e-06
1.38961e-06
1.3896e-06
1.38949e-06
1.38943e-06
1.38951e-06
0.000301918
0.0013895
0.00138952
0.00138945
0.00138953
0.0013896
0.00138955
1.38948e-06
1.38949e-06
1.38956e-06
1.38961e-06
1.3896e-06
1.38959e-06
1.38943e-06
1.38934e-06
0.000247848
0.00138948
0.00138951
0.00138952
0.00138952
0.00138959
0.00138954
0.000202546
1.38943e-06
1.38941e-06
1.38952e-06
1.3896e-06
1.3896e-06
1.38958e-06
1.38934e-06
1.38922e-06
0.00138944
0.0013895
0.00138951
0.00138959
0.00138959
0.00138953
0.0013894
0.0001471
1.38931e-06
1.38929e-06
1.38947e-06
1.3896e-06
1.38959e-06
1.38957e-06
1.38923e-06
1.38787e-06
0.00138949
0.0013895
0.00138959
0.00138959
0.00138953
0.00138951
0.00138915
9.21311e-05
1.38913e-06
1.38912e-06
1.38941e-06
1.38959e-06
1.38958e-06
1.38955e-06
1.38824e-06
1.38427e-06
0.00138949
0.00138959
0.00138959
0.00138952
0.00138951
0.00138961
0.00138798
5.86502e-05
1.38888e-06
1.38889e-06
1.38934e-06
1.38958e-06
1.38956e-06
1.38953e-06
1.38529e-06
1.37627e-06
0.00138959
0.00138959
0.00138951
0.00138961
0.00138961
0.00138959
0.00138369
3.83596e-05
1.38854e-06
1.38861e-06
1.38926e-06
1.38957e-06
1.38954e-06
1.38837e-06
1.38283e-06
1.38229e-06
1.38126e-06
0.00138959
0.00138949
0.0013896
0.00138961
0.0013896
0.00138959
0.00136888
2.58519e-05
1.3881e-06
1.38827e-06
1.38923e-06
1.38956e-06
1.38901e-06
1.38782e-06
1.38626e-06
1.38525e-06
1.38481e-06
1.38728e-06
0.00138947
0.00138946
0.0013896
0.0013896
0.00138959
0.00138959
0.00132383
1.80098e-05
1.38756e-06
1.38792e-06
1.38906e-06
1.38947e-06
1.38889e-06
1.38935e-06
1.38874e-06
1.38347e-06
1.38462e-06
1.3896e-06
1.38961e-06
0.00138942
0.0013896
0.0013896
0.00138959
0.00138958
0.00121075
1.30084e-05
1.38693e-06
1.3874e-06
1.38924e-06
1.38947e-06
1.38961e-06
1.38961e-06
1.38745e-06
1.3874e-06
1.38403e-06
1.38961e-06
1.38961e-06
1.38961e-06
0.00138933
0.0013896
0.00138959
0.00138959
0.00138918
0.00100461
9.77997e-06
1.38623e-06
1.38724e-06
1.38853e-06
1.38961e-06
1.38961e-06
1.38906e-06
1.38848e-06
1.38401e-06
1.38788e-06
1.38961e-06
1.38961e-06
1.38961e-06
1.38961e-06
0.0013892
0.0013896
0.00138959
0.00138958
0.00138838
0.000731713
7.67952e-06
1.38552e-06
1.38621e-06
1.38692e-06
1.38961e-06
1.38919e-06
1.38872e-06
1.38246e-06
1.38323e-06
1.38722e-06
1.38962e-06
1.38961e-06
1.38961e-06
1.38961e-06
1.38961e-06
0.00138905
0.00138959
0.00138959
0.00138958
0.00138794
0.000488587
6.32683e-06
1.38491e-06
1.38436e-06
1.3867e-06
1.3894e-06
1.38901e-06
1.38766e-06
1.38506e-06
1.38834e-06
1.37745e-06
1.3885e-06
1.38178e-06
1.38292e-06
1.38689e-06
1.38839e-06
1.38961e-06
1.38961e-06
1.38961e-06
1.38961e-06
0.00138886
0.00138959
0.00138959
0.00138958
0.00138709
0.000325632
5.49785e-06
1.38453e-06
1.38396e-06
1.38656e-06
1.38925e-06
1.38928e-06
1.38442e-06
1.38409e-06
1.38305e-06
1.38679e-06
1.37747e-06
1.38348e-06
1.37315e-06
1.37565e-06
1.38627e-06
1.38079e-06
1.3798e-06
1.38709e-06
1.3882e-06
1.38961e-06
1.38961e-06
1.38961e-06
1.38961e-06
0.00138865
0.00138959
0.00138959
0.00138958
0.0013853
0.000232699
5.01802e-06
1.3842e-06
1.38371e-06
1.38946e-06
1.38936e-06
1.38751e-06
1.38632e-06
1.37308e-06
1.37298e-06
1.37978e-06
1.37965e-06
1.38723e-06
1.37338e-06
1.38312e-06
1.38543e-06
1.38648e-06
1.3861e-06
1.38504e-06
1.37225e-06
1.37203e-06
1.37152e-06
1.38657e-06
1.38858e-06
1.38961e-06
1.38961e-06
1.38961e-06
1.38961e-06
0.00138844
0.00138959
0.00138959
0.00138958
0.00138237
0.000183846
4.69593e-06
1.38402e-06
1.38669e-06
1.38933e-06
1.38583e-06
1.38928e-06
1.3774e-06
1.37786e-06
1.37936e-06
1.37873e-06
1.35495e-06
1.35636e-06
1.36451e-06
1.36431e-06
1.36957e-06
1.34793e-06
1.33004e-06
1.34632e-06
1.33886e-06
1.38538e-06
1.38622e-06
1.37882e-06
1.37764e-06
1.36807e-06
1.36741e-06
1.3701e-06
1.36426e-06
1.36477e-06
1.35121e-06
1.33453e-06
1.34954e-06
1.32363e-06
1.34158e-06
1.32585e-06
1.31695e-06
1.35353e-06
1.34389e-06
1.32453e-06
1.3176e-06
1.33623e-06
1.38657e-06
1.3879e-06
1.38961e-06
1.38961e-06
1.38961e-06
1.38961e-06
0.00138826
0.00138959
0.00138955
0.00138958
0.0013784
0.00015487
4.51089e-06
1.38396e-06
1.38682e-06
1.38731e-06
1.38849e-06
1.38189e-06
1.38058e-06
1.38207e-06
1.38137e-06
1.36644e-06
1.36647e-06
1.37034e-06
1.37141e-06
1.30768e-06
1.34745e-06
1.34577e-06
1.30229e-06
1.33567e-06
1.31109e-06
1.34443e-06
1.30836e-06
1.34476e-06
1.30249e-06
1.33503e-06
1.31071e-06
1.34073e-06
1.33073e-06
1.32134e-06
1.32711e-06
1.32454e-06
1.32819e-06
1.32233e-06
1.32544e-06
1.33352e-06
1.32266e-06
1.34619e-06
1.31899e-06
1.35187e-06
1.3668e-06
1.36531e-06
1.3689e-06
1.3838e-06
1.382e-06
1.37887e-06
1.37986e-06
1.38107e-06
1.38047e-06
1.36734e-06
1.36661e-06
1.35659e-06
1.35585e-06
1.33708e-06
1.3251e-06
1.34966e-06
1.31546e-06
1.31807e-06
1.30234e-06
1.32764e-06
1.33081e-06
1.32018e-06
1.31147e-06
1.32983e-06
1.33344e-06
1.35261e-06
1.36838e-06
1.36699e-06
1.36796e-06
1.32424e-06
1.37311e-06
1.32436e-06
1.37474e-06
1.3859e-06
1.38961e-06
1.38961e-06
1.38961e-06
1.38961e-06
1.38961e-06
0.00138812
0.00138956
0.00138954
0.00138949
0.00137406
0.000139666
4.45361e-06
1.38423e-06
1.38841e-06
1.38809e-06
1.38281e-06
1.38242e-06
1.38491e-06
1.38344e-06
1.38044e-06
1.38131e-06
1.37943e-06
1.38165e-06
1.33476e-06
1.33791e-06
1.34348e-06
1.35751e-06
1.31447e-06
1.33333e-06
1.34177e-06
1.35414e-06
1.34078e-06
1.36272e-06
1.35325e-06
1.36241e-06
1.3473e-06
1.36242e-06
1.35645e-06
1.36199e-06
1.34131e-06
1.30537e-06
1.32303e-06
1.34732e-06
1.35139e-06
1.33775e-06
1.34344e-06
1.30136e-06
1.34697e-06
1.32468e-06
1.34847e-06
1.33823e-06
1.34063e-06
1.32667e-06
1.33669e-06
1.33751e-06
1.33977e-06
1.32378e-06
1.33653e-06
1.33643e-06
1.35068e-06
1.34363e-06
1.35958e-06
1.32605e-06
1.36918e-06
1.37599e-06
1.38263e-06
1.3684e-06
1.38398e-06
1.38283e-06
1.37864e-06
1.38065e-06
1.38235e-06
1.38374e-06
1.36255e-06
1.36263e-06
1.36727e-06
1.36768e-06
1.33242e-06
1.34166e-06
1.30147e-06
1.34011e-06
1.33379e-06
1.34262e-06
1.30175e-06
1.34098e-06
1.33743e-06
1.30404e-06
1.32803e-06
1.30179e-06
1.34145e-06
1.33978e-06
1.33687e-06
1.30579e-06
1.32758e-06
1.30194e-06
1.34091e-06
1.34244e-06
1.35358e-06
1.35372e-06
1.36069e-06
1.33407e-06
1.34256e-06
1.32337e-06
1.34453e-06
1.32432e-06
1.37071e-06
1.37631e-06
1.38362e-06
1.36688e-06
1.35333e-06
1.36666e-06
1.35166e-06
1.36646e-06
1.38962e-06
1.38961e-06
1.38961e-06
1.38961e-06
1.38961e-06
1.38961e-06
0.00138801
0.00138954
0.0013895
0.00138841
0.00137145
0.000137259
4.56548e-06
1.38673e-06
1.38544e-06
1.38258e-06
1.38296e-06
1.37966e-06
1.38034e-06
1.38285e-06
1.38485e-06
1.38354e-06
1.38334e-06
1.33858e-06
1.36014e-06
1.34954e-06
1.36018e-06
1.34623e-06
1.35984e-06
1.35352e-06
1.35998e-06
1.33289e-06
1.33581e-06
1.33855e-06
1.35794e-06
1.33901e-06
1.33683e-06
1.34262e-06
1.35758e-06
1.35423e-06
1.34945e-06
1.32563e-06
1.34125e-06
1.35089e-06
1.34699e-06
1.32468e-06
1.33741e-06
1.3608e-06
1.33432e-06
1.34951e-06
1.33989e-06
1.36175e-06
1.3379e-06
1.34946e-06
1.34146e-06
1.36811e-06
1.37462e-06
1.3814e-06
1.3639e-06
1.38702e-06
1.38069e-06
1.38666e-06
1.38658e-06
1.37814e-06
1.38008e-06
1.36247e-06
1.36683e-06
1.35942e-06
1.35938e-06
1.3285e-06
1.30427e-06
1.33629e-06
1.31888e-06
1.32835e-06
1.30471e-06
1.33034e-06
1.32003e-06
1.34013e-06
1.32461e-06
1.33876e-06
1.32634e-06
1.32315e-06
1.32397e-06
1.31895e-06
1.32737e-06
1.33387e-06
1.32896e-06
1.34456e-06
1.33731e-06
1.33616e-06
1.32906e-06
1.34454e-06
1.33753e-06
1.34318e-06
1.36745e-06
1.24326e-06
1.31688e-06
1.33548e-06
1.32714e-06
1.34647e-06
1.3671e-06
1.24167e-06
1.31903e-06
1.33471e-06
1.32694e-06
1.36907e-06
1.37544e-06
1.38225e-06
1.36418e-06
1.33565e-06
1.34507e-06
1.33549e-06
1.34899e-06
1.38962e-06
1.38961e-06
1.38961e-06
1.38961e-06
1.38961e-06
1.38961e-06
0.00138795
0.00138952
0.00138819
0.00138746
0.0013704
0.000150844
5.02189e-06
1.38526e-06
1.38759e-06
1.38537e-06
1.38627e-06
1.38473e-06
1.38558e-06
1.37214e-06
1.37263e-06
1.38234e-06
1.3829e-06
1.35628e-06
1.34575e-06
1.36833e-06
1.36269e-06
1.3579e-06
1.34556e-06
1.36576e-06
1.36384e-06
1.3453e-06
1.32411e-06
1.35565e-06
1.33728e-06
1.35011e-06
1.32548e-06
1.35778e-06
1.3391e-06
1.3559e-06
1.35984e-06
1.3534e-06
1.36528e-06
1.38962e-06
1.38201e-06
1.36989e-06
1.37147e-06
1.38183e-06
1.38242e-06
1.38173e-06
1.3758e-06
1.37987e-06
1.37677e-06
1.29263e-06
1.31746e-06
1.31548e-06
1.32134e-06
1.30011e-06
1.31731e-06
1.32099e-06
1.32043e-06
1.31936e-06
1.33101e-06
1.32404e-06
1.33616e-06
1.32691e-06
1.33042e-06
1.3268e-06
1.33576e-06
1.34647e-06
1.33325e-06
1.34332e-06
1.33769e-06
1.34221e-06
1.32811e-06
1.33437e-06
1.32946e-06
1.31869e-06
1.31994e-06
1.34007e-06
1.3207e-06
1.31783e-06
1.31756e-06
1.33687e-06
1.31587e-06
1.38962e-06
1.38961e-06
1.38961e-06
1.38961e-06
1.38961e-06
1.38961e-06
0.001388
0.00138936
0.0013874
0.00138479
0.00137587
0.000213169
6.01152e-06
1.38822e-06
1.37869e-06
1.37862e-06
1.37967e-06
1.37954e-06
1.37748e-06
1.37788e-06
1.37479e-06
1.37554e-06
1.35168e-06
1.31724e-06
1.33586e-06
1.34256e-06
1.35454e-06
1.31777e-06
1.33862e-06
1.34225e-06
1.36482e-06
1.3561e-06
1.36524e-06
1.35848e-06
1.36543e-06
1.3583e-06
1.36612e-06
1.35933e-06
1.36145e-06
1.3811e-06
1.37957e-06
1.3659e-06
1.36316e-06
1.38201e-06
1.37536e-06
1.36574e-06
1.35028e-06
1.36823e-06
1.38261e-06
1.36581e-06
1.35196e-06
1.36874e-06
1.3831e-06
1.36634e-06
1.38897e-06
1.38905e-06
1.38262e-06
1.37856e-06
1.37278e-06
1.37978e-06
1.37621e-06
1.36946e-06
1.36702e-06
1.35683e-06
1.35676e-06
1.30989e-06
1.32988e-06
1.33936e-06
1.33825e-06
1.30851e-06
1.33027e-06
1.33401e-06
1.33593e-06
1.34004e-06
1.34853e-06
1.34412e-06
1.35639e-06
1.33944e-06
1.34377e-06
1.33819e-06
1.35559e-06
1.37143e-06
1.27312e-06
1.37267e-06
1.25617e-06
1.38962e-06
1.38961e-06
1.38961e-06
1.38961e-06
1.38961e-06
1.38961e-06
0.00138794
0.00138877
0.00138732
0.00138548
0.00138636
0.000697816
1.40027e-05
1.62197e-06
1.38637e-06
1.38658e-06
1.38797e-06
1.38799e-06
1.34817e-06
1.36854e-06
1.35262e-06
1.35449e-06
1.34952e-06
1.36946e-06
1.35381e-06
1.35626e-06
1.37773e-06
1.37796e-06
1.37976e-06
1.32525e-06
1.34751e-06
1.36175e-06
1.38011e-06
1.31594e-06
1.34707e-06
1.36186e-06
1.37576e-06
1.36275e-06
1.36789e-06
1.36438e-06
1.37645e-06
1.36527e-06
1.3675e-06
1.36605e-06
1.31861e-06
1.32667e-06
1.29909e-06
1.3259e-06
1.38962e-06
1.38898e-06
1.38395e-06
1.38106e-06
1.38167e-06
1.38442e-06
1.38377e-06
1.37347e-06
1.37865e-06
1.37169e-06
1.37434e-06
1.3229e-06
1.29833e-06
1.3208e-06
1.32282e-06
1.32628e-06
1.30663e-06
1.32471e-06
1.32887e-06
1.34835e-06
1.32273e-06
1.33726e-06
1.33525e-06
1.34816e-06
1.32569e-06
1.33627e-06
1.33788e-06
1.3543e-06
1.31087e-06
1.36981e-06
1.33364e-06
1.35721e-06
1.31481e-06
1.35881e-06
1.32164e-06
1.36072e-06
1.36926e-06
1.3643e-06
1.36972e-06
1.36378e-06
1.3641e-06
1.36373e-06
1.37016e-06
1.38961e-06
1.38961e-06
1.38961e-06
1.38961e-06
1.38961e-06
0.00138782
0.00138881
0.00138716
0.0013871
0.00138647
0.000636387
0.000211428
1.62129e-06
1.61983e-06
4.08856e-06
4.08901e-06
1.36039e-06
1.37855e-06
1.36067e-06
1.35859e-06
1.35964e-06
1.3801e-06
1.35749e-06
1.36059e-06
1.38887e-06
1.38921e-06
1.35237e-06
1.34996e-06
1.35206e-06
1.35599e-06
1.3529e-06
1.34996e-06
1.35212e-06
1.35763e-06
1.36061e-06
1.37652e-06
1.34573e-06
1.35551e-06
1.36055e-06
1.3773e-06
1.34395e-06
1.35595e-06
1.33864e-06
1.35326e-06
1.36637e-06
1.33481e-06
1.33853e-06
1.36747e-06
1.36648e-06
1.33672e-06
1.38962e-06
1.38898e-06
1.38499e-06
1.37911e-06
1.36586e-06
1.37306e-06
1.3648e-06
1.35933e-06
1.35459e-06
1.3481e-06
1.30153e-06
1.30397e-06
1.29568e-06
1.28882e-06
1.31097e-06
1.30312e-06
1.29755e-06
1.29813e-06
1.32665e-06
1.35478e-06
1.32235e-06
1.35959e-06
1.3317e-06
1.36264e-06
1.32512e-06
1.36007e-06
1.32776e-06
1.35384e-06
1.32872e-06
1.34947e-06
1.32774e-06
1.35662e-06
1.33135e-06
1.34459e-06
1.38562e-06
1.2009e-06
1.38988e-06
1.21161e-06
1.38961e-06
1.38961e-06
1.38961e-06
1.38961e-06
0.00138802
0.0013873
0.00138721
0.00138831
0.00137107
0.00137259
0.00128945
0.0012873
0.00127729
0.0012773
1.67748e-06
1.68579e-06
5.10224e-06
5.31159e-06
1.35508e-06
1.35952e-06
1.36103e-06
1.36954e-06
1.35664e-06
1.35982e-06
1.35795e-06
1.36993e-06
1.36062e-06
1.45871e-06
1.36359e-06
1.37077e-06
1.36027e-06
1.46284e-06
1.36364e-06
1.3715e-06
1.36857e-06
1.38563e-06
1.36233e-06
1.35511e-06
1.37561e-06
1.38537e-06
1.36155e-06
1.35425e-06
1.37129e-06
1.35953e-06
1.36705e-06
1.32605e-06
1.36835e-06
1.36003e-06
1.36934e-06
1.32698e-06
1.38962e-06
1.38962e-06
1.38854e-06
1.38193e-06
1.36304e-06
1.36539e-06
1.35564e-06
1.35593e-06
1.35283e-06
1.35461e-06
1.28929e-06
1.31457e-06
1.2785e-06
1.31462e-06
1.2961e-06
1.31238e-06
1.28484e-06
1.31172e-06
1.31032e-06
1.32199e-06
1.33809e-06
1.33253e-06
1.30582e-06
1.30747e-06
1.31548e-06
1.32679e-06
1.34155e-06
1.33517e-06
1.3107e-06
1.30986e-06
1.34495e-06
1.30617e-06
1.35121e-06
1.30709e-06
1.26946e-06
1.37561e-06
1.27343e-06
1.37309e-06
1.27737e-06
1.3775e-06
1.27776e-06
1.37271e-06
1.38961e-06
1.38961e-06
1.38961e-06
0.00138816
0.00138675
0.0013892
0.00138531
0.00137556
0.00138416
0.00133231
0.00130594
0.00132293
0.00132245
1.49172e-06
1.45311e-06
1.38115e-06
1.96705e-06
1.548e-06
1.3682e-06
1.45426e-06
1.49192e-06
1.36835e-06
1.38101e-06
1.98337e-06
1.54722e-06
1.02135e-05
1.33306e-05
3.58179e-06
2.85182e-06
1.12621e-05
1.23892e-05
3.77255e-06
2.86386e-06
1.37426e-06
1.37743e-06
1.35948e-06
1.3583e-06
1.36678e-06
1.37756e-06
1.35341e-06
1.35867e-06
1.3339e-06
1.39582e-06
1.33315e-06
1.39442e-06
1.31585e-06
1.33766e-06
1.31871e-06
1.34188e-06
1.37308e-06
1.36164e-06
1.35941e-06
1.36134e-06
1.38961e-06
1.38962e-06
1.38617e-06
1.3847e-06
1.3784e-06
1.37926e-06
1.37285e-06
1.37728e-06
1.3583e-06
1.36371e-06
1.34376e-06
1.34526e-06
1.32986e-06
1.28878e-06
1.32258e-06
1.33099e-06
1.32391e-06
1.29386e-06
1.32765e-06
1.29301e-06
1.32281e-06
1.3328e-06
1.32129e-06
1.29569e-06
1.33956e-06
1.31754e-06
1.3383e-06
1.31308e-06
1.3551e-06
1.32352e-06
1.32564e-06
1.3579e-06
1.28921e-06
1.338e-06
1.35115e-06
1.32333e-06
1.32586e-06
1.36561e-06
1.29174e-06
1.33957e-06
1.35255e-06
1.32915e-06
1.34995e-06
1.32772e-06
1.38961e-06
1.38961e-06
0.00138744
0.00138885
0.00138866
0.00138217
0.00138243
0.00136249
0.00136057
0.00135849
0.00135989
0.00135636
0.00133338
0.00135621
0.00135684
1.35192e-06
1.47284e-06
1.3677e-06
1.35197e-06
1.87012e-06
1.42545e-06
1.3515e-06
1.45687e-06
1.35102e-06
1.37026e-06
1.84957e-06
1.43372e-06
1.05764e-05
1.35914e-05
3.0772e-06
2.16882e-06
1.10426e-05
1.25257e-05
3.0942e-06
2.17974e-06
1.3405e-06
1.32119e-06
1.33971e-06
1.31977e-06
1.38961e-06
1.38962e-06
1.38962e-06
1.38619e-06
1.38132e-06
1.3721e-06
1.36406e-06
1.38349e-06
1.37832e-06
1.27824e-06
1.29982e-06
1.29608e-06
1.30734e-06
1.28576e-06
1.30057e-06
1.30535e-06
1.30557e-06
1.30093e-06
1.29002e-06
1.33349e-06
1.29715e-06
1.33433e-06
1.33754e-06
1.30194e-06
1.28982e-06
1.33419e-06
1.30245e-06
1.335e-06
1.33714e-06
1.32766e-06
1.32518e-06
1.28152e-06
1.35885e-06
1.32246e-06
1.32927e-06
1.2796e-06
1.35701e-06
1.35765e-06
1.31935e-06
1.34614e-06
1.31521e-06
1.35538e-06
1.32171e-06
1.36287e-06
1.17768e-06
1.3532e-06
1.31652e-06
1.3757e-06
1.18322e-06
1.38961e-06
0.00138954
0.00138786
0.00138579
0.00138207
0.00138066
0.00135883
0.00135057
0.00137334
0.00137191
0.00128855
0.00124104
0.00127003
0.00127096
0.00132527
0.00121787
0.00125442
0.00128543
0.00134448
0.00133913
4.78107e-05
8.13646e-05
4.05826e-06
3.27197e-06
3.25661e-05
5.38106e-05
3.65511e-06
2.9061e-06
1.38961e-06
1.38961e-06
1.38962e-06
1.38589e-06
1.38576e-06
1.37837e-06
1.37851e-06
1.37817e-06
1.3716e-06
1.37821e-06
1.38127e-06
1.35767e-06
1.36107e-06
1.31794e-06
1.30457e-06
1.34764e-06
1.31899e-06
1.3146e-06
1.30539e-06
1.34323e-06
1.31355e-06
1.32693e-06
1.29927e-06
1.3006e-06
1.28031e-06
1.33217e-06
1.30499e-06
1.32653e-06
1.3105e-06
1.28454e-06
1.30749e-06
1.33156e-06
1.3134e-06
1.21266e-06
1.29063e-06
1.2221e-06
1.29287e-06
0.00138776
0.0013878
0.0013836
0.00138445
0.00137726
0.0013814
0.0013783
0.00138208
0.0013532
0.00134753
0.00135887
0.0013677
0.00125237
0.00122687
0.00120058
0.00123492
0.00121627
0.00122437
0.00117393
0.00123243
0.0013409
0.00132631
0.00130756
0.00132216
0.00132788
0.00128208
0.00133087
0.00128006
0.000660586
0.000689678
0.00054618
0.000568961
1.38961e-06
1.38962e-06
1.38962e-06
1.38119e-06
1.38173e-06
1.36073e-06
1.36188e-06
1.37192e-06
1.36174e-06
1.35771e-06
1.34848e-06
1.29974e-06
1.3058e-06
1.31287e-06
1.27689e-06
1.29975e-06
1.30969e-06
1.31207e-06
1.27884e-06
1.36504e-06
1.35716e-06
1.35698e-06
1.33761e-06
1.36662e-06
1.35843e-06
1.34037e-06
1.31633e-06
0.00138927
0.00138701
0.0013821
0.0013854
0.00136529
0.00137016
0.00136538
0.00136993
0.00132468
0.00135171
0.00129673
0.00129943
0.00130517
0.00129759
0.00130807
0.00133239
0.00129737
0.00127943
0.00129179
0.00129473
0.00134543
0.00135707
0.00129968
0.00130748
0.00121242
0.00129617
0.00127992
0.00130282
0.00124885
0.00129868
0.00129159
0.00133077
0.00135447
0.00133595
1.38961e-06
1.38962e-06
1.38569e-06
1.38194e-06
1.3709e-06
1.37197e-06
1.36651e-06
1.36866e-06
1.3649e-06
1.3713e-06
1.35675e-06
1.35981e-06
1.26333e-06
1.29647e-06
1.29682e-06
1.33088e-06
1.2913e-06
1.31804e-06
1.27105e-06
1.30077e-06
1.3005e-06
1.32919e-06
1.29454e-06
1.31444e-06
1.36542e-06
1.35053e-06
1.3432e-06
1.31859e-06
1.35154e-06
1.29712e-06
1.354e-06
1.31349e-06
0.00138389
0.00138817
0.00138112
0.00138609
0.00138134
0.00138093
0.00137934
0.00136722
0.00137428
0.00137368
0.0013799
0.00118572
0.00130799
0.00130749
0.00120816
0.00130684
0.00128166
0.00125134
0.00130075
0.0013366
0.00132201
0.00132602
0.00133536
0.00130087
0.00132126
0.00130036
0.00133317
0.00133632
0.00132335
0.00133938
0.00134114
1.38961e-06
1.38962e-06
1.38094e-06
1.3794e-06
1.38042e-06
1.37779e-06
1.37784e-06
1.37573e-06
1.34551e-06
1.34703e-06
1.28945e-06
1.30246e-06
1.28244e-06
1.29961e-06
1.30486e-06
1.2918e-06
1.28888e-06
1.29837e-06
1.30763e-06
1.28865e-06
1.29136e-06
1.30495e-06
1.28802e-06
1.33943e-06
1.32475e-06
1.23422e-06
1.29918e-06
1.35447e-06
1.32633e-06
1.25171e-06
1.31623e-06
1.06945e-06
1.35978e-06
1.0929e-06
0.00138199
0.00138659
0.00138108
0.00137611
0.00137355
0.00137339
0.00137184
0.00131344
0.00133862
0.00131839
0.00133042
0.00132029
0.00130411
0.00133402
0.00134141
0.00133897
0.00132653
0.00134246
0.0013187
0.00136051
0.00136153
0.00138127
0.00129315
0.00135541
0.00131649
0.00130415
0.00133501
0.00128076
0.00133848
1.38961e-06
1.38554e-06
1.38125e-06
1.37501e-06
1.37748e-06
1.37027e-06
1.3727e-06
1.38074e-06
1.38419e-06
1.35538e-06
1.3573e-06
1.28658e-06
1.27874e-06
1.31784e-06
1.29036e-06
1.29477e-06
1.29113e-06
1.2789e-06
1.29378e-06
1.29658e-06
1.28419e-06
1.30693e-06
1.29451e-06
1.31532e-06
1.28637e-06
1.29926e-06
1.27289e-06
1.29633e-06
1.32411e-06
1.27826e-06
1.28253e-06
0.00137498
0.00138722
0.00137971
0.00135679
0.00135761
0.00135568
0.00135608
0.00135673
0.00135551
0.00135311
0.00133359
0.0013345
0.0013234
0.00135505
0.00135953
0.00136107
0.00133472
0.00135588
0.00132034
0.00127097
0.00134335
0.00129127
0.00134626
0.00127018
0.00133309
0.00129198
0.00133776
0.00133092
0.00133764
0.00125673
0.00132046
1.38961e-06
1.37999e-06
1.38012e-06
1.37723e-06
1.37901e-06
1.38314e-06
1.38497e-06
1.34981e-06
1.35215e-06
1.31118e-06
1.28191e-06
1.28202e-06
1.30762e-06
1.29541e-06
1.27755e-06
1.30804e-06
1.28436e-06
1.28267e-06
1.30999e-06
1.29565e-06
1.27801e-06
1.33176e-06
1.35258e-06
1.27828e-06
1.28935e-06
1.35014e-06
1.2775e-06
1.33951e-06
1.28587e-06
0.001375
0.00138441
0.00135423
0.00138326
0.00138344
0.0013665
0.00137598
0.0013884
0.00135183
0.00126311
0.00135797
0.00135181
0.00126094
0.00135997
0.00132158
0.0013438
0.00138282
0.00130916
0.00133637
0.00134712
0.0013143
0.00133638
0.00136704
0.0012883
0.00134693
0.00134015
0.00130639
0.00133525
0.00130985
0.00134964
1.38529e-06
1.38412e-06
1.37976e-06
1.37443e-06
1.37695e-06
1.36656e-06
1.37013e-06
1.26027e-06
1.28037e-06
1.30163e-06
1.301e-06
1.30306e-06
1.29199e-06
1.27324e-06
1.30111e-06
1.29449e-06
1.28011e-06
1.3039e-06
1.30213e-06
1.34154e-06
1.30762e-06
1.34023e-06
1.30126e-06
1.3394e-06
1.31015e-06
1.33808e-06
1.29922e-06
1.31566e-06
1.25218e-06
1.32845e-06
1.25679e-06
0.00136259
0.0013815
0.00135627
0.00136243
0.00135553
0.00136592
0.00137141
0.00137766
0.00126875
0.00123701
0.0013624
0.0012417
0.00136597
0.00133368
0.00128735
0.00134272
0.00123724
0.0012702
0.00136296
0.00124144
0.0013677
0.00133498
0.00128811
0.00134309
0.00134915
0.0013741
0.00134323
0.00134418
0.00128077
0.00132454
0.00128042
0.00134604
1.3853e-06
1.38826e-06
1.37588e-06
1.36569e-06
1.36788e-06
1.37701e-06
1.37149e-06
1.3722e-06
1.34263e-06
1.29161e-06
1.2942e-06
1.34487e-06
1.29319e-06
1.29081e-06
1.35913e-06
1.32947e-06
1.34766e-06
1.32362e-06
1.3677e-06
1.3538e-06
1.32247e-06
1.3009e-06
1.34004e-06
1.32745e-06
1.33191e-06
1.30131e-06
1.34428e-06
1.3255e-06
1.33348e-06
1.30377e-06
0.00136022
0.00137589
0.00134954
0.00135838
0.00126423
0.00135858
0.00134821
0.00135533
0.00126271
0.00136082
0.00138783
0.0013905
0.00127429
0.00132821
0.00114734
0.00130694
0.0013455
0.0013438
0.0012779
0.0011411
0.0013274
0.00131536
0.00134668
0.00134102
0.00121123
0.00115719
0.0012083
0.00112537
1.38789e-06
1.38389e-06
1.3682e-06
1.36543e-06
1.36658e-06
1.37118e-06
1.37361e-06
1.37447e-06
1.29634e-06
1.28177e-06
1.34563e-06
1.27394e-06
1.33205e-06
1.30439e-06
1.26875e-06
1.2914e-06
1.30028e-06
1.28502e-06
1.34456e-06
1.27555e-06
1.331e-06
1.3021e-06
1.27779e-06
1.29e-06
1.32574e-06
1.33288e-06
1.31788e-06
1.32902e-06
1.35228e-06
1.33632e-06
1.32265e-06
1.30429e-06
0.00135661
0.00137161
0.00135804
0.00135823
0.00136869
0.00137488
0.0013758
0.00125777
0.00136072
0.00126544
0.00136454
0.00127149
0.0013076
0.00125282
0.00130501
0.00134479
0.00128165
0.00131704
0.00126585
0.00136176
0.00125737
0.00136308
0.00126394
0.00131119
0.0012584
0.00130894
0.00134678
0.00128325
0.00132354
0.00124058
0.00126072
0.00122132
0.00135177
0.00124585
0.0012825
0.00122447
0.00134598
1.38487e-06
1.38124e-06
1.36882e-06
1.34583e-06
1.27799e-06
1.32052e-06
1.34688e-06
1.27708e-06
1.32048e-06
1.37773e-06
1.36612e-06
1.37068e-06
1.35755e-06
1.34403e-06
1.29768e-06
1.3078e-06
1.30711e-06
1.29013e-06
1.3601e-06
1.34169e-06
1.29938e-06
1.29988e-06
1.30916e-06
1.2895e-06
1.36421e-06
1.27368e-06
1.34877e-06
1.2828e-06
0.00137911
0.00136366
0.00138043
0.00136286
0.00138172
0.00137654
0.00137815
0.00114549
0.00120002
0.00129132
0.00134432
0.00137318
0.00131067
0.00127719
0.00121901
0.00137025
0.00123186
0.00134912
0.00134838
0.00130132
0.00134072
0.00113405
0.00121028
0.0013449
0.00130371
0.00137533
0.00131261
0.00122319
0.00127968
0.00137141
0.00123749
0.00135516
0.00135112
0.00130126
0.00134299
1.38493e-06
1.37178e-06
1.36446e-06
1.36914e-06
1.37399e-06
1.37717e-06
1.37578e-06
1.2491e-06
1.33231e-06
1.27414e-06
1.32631e-06
1.29308e-06
1.29376e-06