/*--------------------------------*- C++ -*----------------------------------*\
| =========                 |                                                 |
| \\      /  F ield         | OpenFOAM: The Open Source CFD Toolbox           |
|  \\    /   O peration     | Version:  5.x                                   |
|   \\  /    A nd           | Web:      www.OpenFOAM.org                      |
|    \\/     M anipulation  |                                                 |
\*---------------------------------------------------------------------------*/
FoamFile
{
    version     2.0;
    format      ascii;
    class       volVectorField;
    location    "0.2";
    object      U;
}
// * * * * * * * * * * * * * * * * * * * * * * * * * * * * * * * * * * * * * //

dimensions      [0 1 -1 0 0 0 0];

internalField   nonuniform List<vector> 
12160
(
(0.166541 0 0.00551868)
(0.156073 0 0.00658098)
(0.166029 0 0.0118694)
(0.0935166 0 0.0072939)
(0.155646 0 0.0164176)
(0.165118 0 0.0266815)
(0.0907177 0 0.00489112)
(0.0929032 0 0.0200632)
(0.155226 0 0.0323988)
(0.162489 0 0.0263117)
(0.0544251 0 0.00433216)
(0.0898017 0 0.013822)
(0.0917973 0 0.0362266)
(0.151817 0 0.0367645)
(0.161817 0 0.0529952)
(0.0459174 0 0.00307617)
(0.0536314 0 0.0125197)
(0.0878692 0 0.0244006)
(0.088535 0 0.0448431)
(0.151968 0 0.062983)
(0.154783 0 0.0414314)
(0.0300672 0 0.00234656)
(0.0451399 0 0.00899721)
(0.0519646 0 0.0214452)
(0.0841673 0 0.0310153)
(0.0871833 0 0.0689142)
(0.142085 0 0.0581801)
(0.161037 0 0.077245)
(0.022531 0 0.00171148)
(0.0294958 0 0.00691679)
(0.0435266 0 0.0152199)
(0.0492358 0 0.0279271)
(0.0811167 0 0.0466754)
(0.0790557 0 0.0679947)
(0.145649 0 0.0957677)
(0.146412 0 0.0631913)
(0.0159155 0 0.00124839)
(0.0220564 0 0.00506319)
(0.0283359 0 0.0116087)
(0.0409654 0 0.0198832)
(0.0466853 0 0.0399659)
(0.0724281 0 0.046962)
(0.0787359 0 0.0996214)
(0.117293 0 0.101241)
(0.13959 0 0.126508)
(0.0113668 0 0.00090527)
(0.0155573 0 0.00370119)
(0.0210974 0 0.0084492)
(0.026534 0 0.0153219)
(0.0381376 0 0.0279787)
(0.0408882 0 0.0408963)
(0.0694789 0 0.069564)
(0.067614 0 0.0978402)
(0.183628 0 0.130169)
(0.142028 0 -0.115306)
(0.00810231 0 0.000654282)
(0.0110965 0 0.00268689)
(0.0148384 0 0.00615145)
(0.0196302 0 0.0111897)
(0.0245297 0 0.0211742)
(0.0328744 0 0.0285251)
(0.0385926 0 0.0584621)
(0.0545969 0 0.063648)
(0.116702 0 0.112965)
(0.393394 0 0.11541)
(-0.0255383 0 -0.131815)
(0.00578174 0 0.000472464)
(0.00790118 0 0.00194304)
(0.0105564 0 0.00445203)
(0.0137483 0 0.00817071)
(0.0179168 0 0.0152792)
(0.0209577 0 0.021719)
(0.0298138 0 0.0408906)
(0.0289964 0 0.0498711)
(0.140065 0 0.0835824)
(0.269451 0 0.112563)
(0.112072 0 0.1017)
(-0.0845977 0 -0.104813)
(0.00413292 0 0.000341352)
(0.00563335 0 0.00140332)
(0.0075004 0 0.00321232)
(0.00974281 0 0.00592565)
(0.0124555 0 0.011044)
(0.0151154 0 0.015682)
(0.0188463 0 0.0309136)
(0.0210614 0 0.0330345)
(0.0959384 0 0.0673659)
(0.323097 0 0.0979415)
(0.0361386 0 0.123799)
(-0.0982061 0 0.0871229)
(-0.0464739 0 -0.079938)
(0.00296088 0 0.000247072)
(0.00402399 0 0.00101367)
(0.00533824 0 0.00231593)
(0.00689975 0 0.00428312)
(0.00876558 0 0.00794403)
(0.0104235 0 0.0113468)
(0.0132762 0 0.0222569)
(0.0128472 0 0.023894)
(0.102288 0 0.0473871)
(0.160998 0 0.0739113)
(0.045788 0 0.140119)
(-0.0180881 0 0.123677)
(-0.06895 0 0.0723068)
(-0.0284468 0 -0.0509288)
(0.00212679 0 0.000179412)
(0.00288119 0 0.000733142)
(0.00380753 0 0.0016704)
(0.00489755 0 0.00309247)
(0.00617206 0 0.00570462)
(0.00728116 0 0.00817098)
(0.00904138 0 0.0160533)
(0.00852144 0 0.0166554)
(0.0904512 0 0.0352384)
(0.113443 0 0.05334)
(0.0421645 0 0.120257)
(0.00513479 0 0.110692)
(-0.0137419 0 0.103238)
(-0.0392223 0 0.0658367)
(-0.0059327 0 -0.0467762)
(0.00153112 0 0.000130781)
(0.00206851 0 0.000531514)
(0.00272273 0 0.00120647)
(0.0034852 0 0.00223331)
(0.00436006 0 0.00409633)
(0.00509476 0 0.00587615)
(0.00623858 0 0.0115223)
(0.00557412 0 0.0117279)
(0.0878449 0 0.0251298)
(0.062732 0 0.0373329)
(0.0442522 0 0.0764964)
(0.0254825 0 0.0989003)
(0.00218112 0 0.106503)
(-0.00639109 0 0.0931191)
(-0.0095832 0 0.0624193)
(0.00110575 0 9.56887e-05)
(0.00148835 0 0.00038658)
(0.00195254 0 0.000873404)
(0.0024873 0 0.00161484)
(0.0030899 0 0.0029445)
(0.00357996 0 0.004226)
(0.00431898 0 0.00826223)
(0.00369746 0 0.00826437)
(0.0840513 0 0.018031)
(0.0407251 0 0.0271416)
(0.0328671 0 0.0527108)
(0.0319256 0 0.0706615)
(0.017171 0 0.0975236)
(0.00218856 0 0.10093)
(-0.00117058 0 0.0877376)
(0.00079764 0 6.99736e-05)
(0.00107408 0 0.000282475)
(0.00140356 0 0.000634305)
(0.00178059 0 0.00117024)
(0.00219722 0 0.00212061)
(0.00252541 0 0.00304252)
(0.00300611 0 0.00592544)
(0.00247381 0 0.00584299)
(0.0808357 0 0.0128812)
(0.0263705 0 0.0195404)
(0.0262922 0 0.0350987)
(0.0251492 0 0.0520945)
(0.022087 0 0.0718349)
(0.0106837 0 0.0944981)
(0.00131766 0 0.0977718)
(0.000574768 0 5.17101e-05)
(0.0007744 0 0.000206899)
(0.00101207 0 0.000462967)
(0.001278 0 0.00085068)
(0.00156792 0 0.00153146)
(0.00178859 0 0.00219444)
(0.00210229 0 0.00425492)
(0.00166967 0 0.00414386)
(0.0775561 0 0.00921137)
(0.0179119 0 0.0147015)
(0.0190138 0 0.0242378)
(0.0205754 0 0.0368472)
(0.0178187 0 0.0542909)
(0.0134198 0 0.0718638)
(0.00384181 0 0.0927419)
(0.000413204 0 3.84041e-05)
(0.00055793 0 0.00015364)
(0.000729519 0 0.000339264)
(0.000920282 0 0.000621268)
(0.00112226 0 0.00110986)
(0.00127178 0 0.00158687)
(0.00147705 0 0.00306165)
(0.00113581 0 0.00294882)
(0.0740291 0 0.00660903)
(0.0123811 0 0.0115078)
(0.0135659 0 0.0171782)
(0.0150859 0 0.0263149)
(0.0147717 0 0.0391145)
(0.0108578 0 0.0553467)
(0.00462439 0 0.0718626)
(0.000291669 0 2.9205e-05)
(0.000401045 0 0.000114923)
(0.000525534 0 0.000251729)
(0.000662629 0 0.000455567)
(0.000806147 0 0.000808239)
(0.000907456 0 0.00115131)
(0.00104264 0 0.00220932)
(0.000778202 0 0.00210584)
(0.0700315 0 0.00479163)
(0.00860144 0 0.00944763)
(0.00948835 0 0.0124245)
(0.0108741 0 0.0190432)
(0.0109406 0 0.0282535)
(0.00901048 0 0.0404468)
(0.0037173 0 0.0559702)
(0.000199095 0 2.29624e-05)
(0.000283066 0 8.8133e-05)
(0.000377518 0 0.000188425)
(0.000476872 0 0.000337749)
(0.000579367 0 0.000591519)
(0.000650122 0 0.000839213)
(0.000739136 0 0.00160012)
(0.000536979 0 0.00150967)
(0.0653937 0 0.00352215)
(0.00596003 0 0.00810793)
(0.00655489 0 0.00921232)
(0.00768639 0 0.0141142)
(0.0079415 0 0.0205521)
(0.00669143 0 0.0294733)
(0.00307205 0 0.0412478)
(0.000125543 0 1.90596e-05)
(0.000193153 0 6.97542e-05)
(0.00026631 0 0.000144476)
(0.00034224 0 0.000252747)
(0.000416273 0 0.000437291)
(0.000466015 0 0.000614675)
(0.000526401 0 0.00116462)
(0.000372947 0 0.0010867)
(0.0600672 0 0.00267707)
(0.00414516 0 0.00731642)
(0.00442291 0 0.0070686)
(0.0053801 0 0.010833)
(0.00563803 0 0.0152032)
(0.00486673 0 0.0215316)
(0.00228089 0 0.030211)
(6.37716e-05 0 1.69777e-05)
(0.000121862 0 5.81409e-05)
(0.000181598 0 0.000114341)
(0.000241353 0 0.000193539)
(0.000298264 0 0.000326932)
(0.000334121 0 0.000454808)
(0.0003755 0 0.000852381)
(0.00026084 0 0.000786194)
(0.0540875 0 0.00206309)
(0.00291628 0 0.00695327)
(0.00292748 0 0.00563476)
(0.00371671 0 0.00865884)
(0.0039542 0 0.0115315)
(0.00345947 0 0.0159419)
(0.00165925 0 0.0221264)
(7.92575e-06 0 1.64261e-05)
(6.21371e-05 0 5.15359e-05)
(0.000114599 0 9.52357e-05)
(0.000164664 0 0.000152937)
(0.000210181 0 0.000249965)
(0.000239187 0 0.000340301)
(0.000268103 0 0.000629601)
(0.000182541 0 0.000572102)
(0.0476519 0 0.00160048)
(0.00204382 0 0.00684025)
(0.00196406 0 0.00465464)
(0.00254691 0 0.00732467)
(0.00272333 0 0.00901657)
(0.00242818 0 0.0120749)
(0.00117975 0 0.0163914)
(-4.66417e-05 0 1.7216e-05)
(8.15872e-06 0 4.94617e-05)
(5.86027e-05 0 8.42968e-05)
(0.000104184 0 0.000127243)
(0.000143502 0 0.000197169)
(0.000168482 0 0.000260461)
(0.000191294 0 0.000470756)
(0.000128237 0 0.000419946)
(0.0408916 0 0.00126234)
(0.00148344 0 0.00672671)
(0.00134889 0 0.00399658)
(0.00176122 0 0.00647373)
(0.00184812 0 0.00733255)
(0.00167534 0 0.00941755)
(0.000828188 0 0.0124047)
(-0.000105713 0 1.95248e-05)
(-4.46097e-05 0 5.14914e-05)
(8.14902e-06 0 8.09571e-05)
(5.38145e-05 0 0.000112704)
(9.11465e-05 0 0.0001636)
(0.000115244 0 0.000205679)
(0.000134643 0 0.000359737)
(9.0915e-05 0 0.000312251)
(0.0341532 0 0.00100141)
(0.00118141 0 0.00669971)
(0.0010159 0 0.00356116)
(0.00121315 0 0.00593194)
(0.00126491 0 0.00617663)
(0.00114139 0 0.00765833)
(0.000571902 0 0.00965618)
(-0.000173011 0 2.34836e-05)
(-0.000101796 0 5.80051e-05)
(-4.11792e-05 0 8.4201e-05)
(8.39869e-06 0 0.000108593)
(4.77524e-05 0 0.000144312)
(7.35073e-05 0 0.000170784)
(9.22976e-05 0 0.00028358)
(6.37795e-05 0 0.000237196)
(0.0278874 0 0.000811122)
(0.00100105 0 0.00616814)
(0.000929943 0 0.00325774)
(0.000885019 0 0.00553185)
(0.000866502 0 0.00539252)
(0.000784778 0 0.00647555)
(0.00039012 0 0.00782384)
(-0.000254001 0 2.92686e-05)
(-0.000167016 0 6.92821e-05)
(-9.47186e-05 0 9.47528e-05)
(-3.60105e-05 0 0.000113279)
(8.74441e-06 0 0.000138347)
(3.90828e-05 0 0.00015103)
(5.94956e-05 0 0.000234552)
(4.4039e-05 0 0.000185965)
(0.0219791 0 0.000666798)
(0.000896954 0 0.00579226)
(0.000909198 0 0.00300283)
(0.000724354 0 0.005211)
(0.000638853 0 0.00486195)
(0.000540128 0 0.00568417)
(0.000268344 0 0.00658385)
(-0.000354025 0 3.72274e-05)
(-0.00024543 0 8.60851e-05)
(-0.000155669 0 0.000113101)
(-8.39995e-05 0 0.000127779)
(-2.9352e-05 0 0.000143843)
(8.31105e-06 0 0.000144991)
(3.26812e-05 0 0.000206895)
(2.9231e-05 0 0.000152984)
(0.0166327 0 0.000560201)
(0.000827906 0 0.00528787)
(0.000868142 0 0.00279538)
(0.000639709 0 0.00479471)
(0.000536656 0 0.00445711)
(0.000397722 0 0.00514792)
(0.00018495 0 0.00574635)
(-0.000479552 0 4.7722e-05)
(-0.000342152 0 0.00010934)
(-0.000228748 0 0.000140436)
(-0.000138552 0 0.000152768)
(-7.0324e-05 0 0.000161743)
(-2.16578e-05 0 0.000151097)
(8.91134e-06 0 0.000197945)
(1.7693e-05 0 0.000134222)
(0.0118117 0 0.000483168)
(0.000732719 0 0.00479891)
(0.000841369 0 0.00260098)
(0.000596822 0 0.0044273)
(0.000484532 0 0.00411625)
(0.000328822 0 0.00472354)
(0.000136552 0 0.00517883)
(-0.00063818 0 6.13769e-05)
(-0.000463455 0 0.000140355)
(-0.000318754 0 0.000178308)
(-0.000203846 0 0.0001897)
(-0.000116793 0 0.000192898)
(-5.36148e-05 0 0.000170143)
(-1.39615e-05 0 0.000205862)
(7.84558e-06 0 0.000127868)
(0.00745979 0 0.000435019)
(0.000588908 0 0.00431335)
(0.00076891 0 0.00241969)
(0.000564613 0 0.00404648)
(0.000455315 0 0.00381362)
(0.000292178 0 0.0043507)
(0.000112231 0 0.00472974)
(-0.000839083 0 7.88733e-05)
(-0.000616785 0 0.000180936)
(-0.000431579 0 0.000228792)
(-0.000284271 0 0.000240826)
(-0.000172221 0 0.0002392)
(-8.96942e-05 0 0.000203113)
(-3.80416e-05 0 0.000231371)
(-1.14722e-06 0 0.000132643)
(0.00341215 0 0.00041438)
(0.000395296 0 0.00397708)
(0.000635148 0 0.00226423)
(0.000506477 0 0.0036903)
(0.000427781 0 0.00352539)
(0.000271801 0 0.00401076)
(9.83579e-05 0 0.004354)
(-0.00109356 0 0.000101319)
(-0.000811041 0 0.000233284)
(-0.000574321 0 0.000294878)
(-0.000385152 0 0.00030891)
(-0.000240413 0 0.000303433)
(-0.000132627 0 0.000251915)
(-6.50624e-05 0 0.000275745)
(-1.00923e-05 0 0.000148916)
(-0.000419563 0 0.000423081)
(0.000171484 0 0.00376484)
(0.000437222 0 0.00214842)
(0.000410498 0 0.00337075)
(0.000383073 0 0.00325588)
(0.000252254 0 0.00369568)
(9.41488e-05 0 0.00401176)
(-0.00141504 0 0.000129971)
(-0.00105711 0 0.000300389)
(-0.000755382 0 0.000380277)
(-0.000512847 0 0.000398046)
(-0.000325976 0 0.000389342)
(-0.000185441 0 0.000319552)
(-9.70312e-05 0 0.00034162)
(-1.9762e-05 0 0.000177512)
(-0.00414368 0 0.000463296)
(-5.47226e-05 0 0.00367776)
(0.000218938 0 0.00208518)
(0.000277434 0 0.00313222)
(0.000311087 0 0.003029)
(0.00022361 0 0.00340829)
(8.97465e-05 0 0.00369254)
(-0.00181958 0 0.000166213)
(-0.00136812 0 0.000385777)
(-0.000985005 0 0.000489834)
(-0.000674864 0 0.000513252)
(-0.000434376 0 0.000502115)
(-0.000251726 0 0.00040992)
(-0.000136308 0 0.000433137)
(-3.08855e-05 0 0.000220249)
(-0.00786041 0 0.000532409)
(-0.000276643 0 0.0037122)
(-1.94838e-06 0 0.00207796)
(0.000123604 0 0.00298582)
(0.000209904 0 0.0028597)
(0.000180824 0 0.00316407)
(7.9617e-05 0 0.003404)
(-0.00232797 0 0.000211839)
(-0.00175958 0 0.000493871)
(-0.00127529 0 0.000629297)
(-0.000880343 0 0.000661063)
(-0.000572064 0 0.000648169)
(-0.00033579 0 0.000528504)
(-0.000185661 0 0.000555755)
(-4.4425e-05 0 0.000279814)
(-0.0116338 0 0.000629916)
(-0.000474511 0 0.00386027)
(-0.000216308 0 0.00212724)
(-2.91222e-05 0 0.0029285)
(9.66922e-05 0 0.00276623)
(0.000122577 0 0.0029811)
(6.30572e-05 0 0.00316271)
(-0.00296093 0 0.000268988)
(-0.00225152 0 0.000629707)
(-0.00164072 0 0.000805756)
(-0.00114031 0 0.000849277)
(-0.00074687 0 0.00083568)
(-0.000442666 0 0.000682021)
(-0.000248336 0 0.000716893)
(-6.14532e-05 0 0.000359892)
(-0.0155646 0 0.000756585)
(-0.000657295 0 0.00409332)
(-0.00040048 0 0.0022243)
(-0.000180675 0 0.00296365)
(-1.504e-05 0 0.00274728)
(5.64091e-05 0 0.00287737)
(4.06763e-05 0 0.00298498)
(-0.00375484 0 0.000340052)
(-0.00286398 0 0.000799485)
(-0.00210023 0 0.00102745)
(-0.00146778 0 0.00108732)
(-0.000968171 0 0.00107445)
(-0.000578512 0 0.000878985)
(-0.000328219 0 0.000925736)
(-8.32666e-05 0 0.00046542)
(-0.0196561 0 0.000914329)
(-0.000822103 0 0.00437049)
(-0.00057504 0 0.00236473)
(-0.000313691 0 0.00307832)
(-0.00012233 0 0.00280087)
(-7.4632e-06 0 0.00284825)
(1.70761e-05 0 0.00288681)
(-0.00471702 0 0.000428229)
(-0.00363233 0 0.00101022)
(-0.00267245 0 0.00130458)
(-0.00187967 0 0.00138633)
(-0.0012472 0 0.00137659)
(-0.000750742 0 0.00112961)
(-0.000430041 0 0.00119377)
(-0.000111419 0 0.000602599)
(-0.0238452 0 0.00111094)
(-0.000989442 0 0.0047207)
(-0.000724759 0 0.00253242)
(-0.000441709 0 0.00325608)
(-0.00021436 0 0.00292252)
(-7.09931e-05 0 0.0028903)
(-6.73897e-06 0 0.0028627)
(-0.0045634 0 0.00127165)
(-0.00681155 0 0.000606777)
(-0.00339041 0 0.00164851)
(-0.00239282 0 0.00176029)
(-0.00159848 0 0.00175627)
(-0.000968201 0 0.00144644)
(-0.00055946 0 0.00153503)
(-0.000147818 0 0.000779101)
(-0.0280731 0 0.00135381)
(-0.00117886 0 0.00507645)
(-0.000870756 0 0.00273352)
(-0.000554838 0 0.00348912)
(-0.000309146 0 0.00308692)
(-0.00013184 0 0.00299725)
(-2.90509e-05 0 0.00290941)
(-0.00426079 0 0.0020754)
(-0.00659104 0 0.00179908)
(-0.0109973 0 0.000986245)
(-0.00303698 0 0.00222423)
(-0.00203659 0 0.00223131)
(-0.00124231 0 0.00184427)
(-0.000723363 0 0.00196669)
(-0.000194705 0 0.0010044)
(-0.0322564 0 0.0016506)
(-0.0013752 0 0.00539282)
(-0.00101913 0 0.00296614)
(-0.000663408 0 0.00376324)
(-0.000390782 0 0.00330491)
(-0.000194244 0 0.00315686)
(-4.47526e-05 0 0.00302221)
(-0.0038181 0 0.00280033)
(-0.00615655 0 0.00293673)
(-0.0106432 0 0.00292119)
(-0.0173555 0 0.00155645)
(-0.00258691 0 0.00282104)
(-0.00158459 0 0.00234179)
(-0.000930438 0 0.00250929)
(-0.000254831 0 0.00129003)
(-0.0362751 0 0.00201077)
(-0.00162531 0 0.00566291)
(-0.00115295 0 0.00324193)
(-0.000782423 0 0.00407674)
(-0.00047692 0 0.00355733)
(-0.000245158 0 0.00337875)
(-6.20019e-05 0 0.00318652)
(-0.00325505 0 0.00355362)
(-0.00552154 0 0.00396236)
(-0.00994438 0 0.00476892)
(-0.0167949 0 0.00460156)
(-0.0264559 0 0.00238388)
(-0.00201515 0 0.00295886)
(-0.00118991 0 0.0031883)
(-0.000331783 0 0.00164998)
(-0.0400358 0 0.00244623)
(-0.00199053 0 0.00587836)
(-0.00132327 0 0.00355663)
(-0.000897993 0 0.0044114)
(-0.000577148 0 0.00386027)
(-0.00029118 0 0.00362948)
(-7.93401e-05 0 0.00341732)
(-0.00253865 0 0.0037254)
(-0.00471443 0 0.00503183)
(-0.00892603 0 0.00643209)
(-0.0156899 0 0.00750898)
(-0.0255818 0 0.0070258)
(-0.0391322 0 0.00358537)
(-0.00151672 0 0.00403135)
(-0.000429748 0 0.00210141)
(-0.043472 0 0.00296436)
(-0.00251849 0 0.00608628)
(-0.00157805 0 0.00392193)
(-0.00105456 0 0.0047713)
(-0.000670771 0 0.0042064)
(-0.00033962 0 0.00394206)
(-9.88521e-05 0 0.0036787)
(-0.00191543 0 0.00507888)
(-0.00368573 0 0.00527069)
(-0.007634 0 0.00817647)
(-0.014087 0 0.0101149)
(-0.0238673 0 0.0114488)
(-0.0377791 0 0.0105032)
(-0.0568489 0 0.00531718)
(-0.000554903 0 0.00266413)
(-0.0464937 0 0.0035811)
(-0.00315804 0 0.00635325)
(-0.00197956 0 0.00435167)
(-0.0013048 0 0.00516074)
(-0.000793746 0 0.00459449)
(-0.000388091 0 0.00429463)
(-0.000122823 0 0.00399825)
(-0.000711557 0 0.00336585)
(-0.00279295 0 0.00718974)
(-0.00598604 0 0.00855572)
(-0.0120635 0 0.0128593)
(-0.0214072 0 0.0153798)
(-0.0351427 0 0.0170437)
(-0.0546121 0 0.0154384)
(-0.0790522 0 0.00811767)
(-0.0491407 0 0.00441267)
(-0.00407329 0 0.00674647)
(-0.00248384 0 0.00490421)
(-0.00166183 0 0.005608)
(-0.000976416 0 0.00504085)
(-0.000464436 0 0.00469958)
(-0.000144009 0 0.00435508)
(-0.0511833 0 0.00549872)
(-0.00106778 0 0.00478826)
(-0.00455763 0 0.0116752)
(-0.00948752 0 0.0134397)
(-0.0183344 0 0.019521)
(-0.0314264 0 0.0227576)
(-0.0503699 0 0.0248838)
(-0.0759324 0 0.0230972)
(-0.117887 0 0.0114685)
(-0.00517146 0 0.00740491)
(-0.00322534 0 0.00554092)
(-0.00210615 0 0.00618739)
(-0.0012272 0 0.00558111)
(-0.000594184 0 0.00517404)
(-0.000171065 0 0.00476196)
(-0.00656376 0 0.00825296)
(-0.0553434 0 0.0076683)
(-0.00181242 0 0.00784449)
(-0.00725352 0 0.0183146)
(-0.0144553 0 0.0203694)
(-0.0268653 0 0.0287372)
(-0.0446635 0 0.0328965)
(-0.069413 0 0.0364904)
(-0.109925 0 0.0328685)
(-0.134575 0 0.0252433)
(-0.00408026 0 0.0064395)
(-0.00271109 0 0.00688097)
(-0.00153441 0 0.00627229)
(-0.000758452 0 0.00576464)
(-0.000208498 0 0.00525008)
(-0.00522456 0 0.00754559)
(-0.00956834 0 0.00944072)
(-0.0579243 0 0.0124199)
(-0.0030246 0 0.0124458)
(-0.0110814 0 0.0276454)
(-0.0212064 0 0.0298981)
(-0.0379293 0 0.0411334)
(-0.0609295 0 0.0471194)
(-0.0962463 0 0.0520856)
(-0.138121 0 0.0590012)
(-0.290638 0 0.0571608)
(-0.00338777 0 0.00785052)
(-0.00196188 0 0.00711044)
(-0.000964392 0 0.0064948)
(-0.000258186 0 0.00587161)
(-0.00430564 0 0.00898352)
(-0.00771935 0 0.00987766)
(-0.0147795 0 0.0136975)
(-0.0602044 0 0.0194621)
(-0.0048825 0 0.0190551)
(-0.0162619 0 0.0402419)
(-0.0298806 0 0.0425767)
(-0.0512398 0 0.0576706)
(-0.0814105 0 0.0658838)
(-0.117265 0 0.0838997)
(-0.228062 0 0.0639268)
(-0.228909 0 0.384768)
(-0.0024562 0 0.00821582)
(-0.0012335 0 0.00739603)
(-0.00031595 0 0.00663073)
(-0.00313801 0 0.00949993)
(-0.00623279 0 0.0115019)
(-0.011864 0 0.015015)
(-0.0220917 0 0.0197319)
(-0.0619098 0 0.0293613)
(-0.00761713 0 0.0282175)
(-0.0228307 0 0.0565066)
(-0.0401366 0 0.0590521)
(-0.06648 0 0.0788177)
(-0.0982731 0 0.097005)
(-0.167949 0 0.114213)
(-0.22291 0 0.277485)
(-0.120566 -1.78208e-27 0.3467)
(-0.0300938 0 0.415342)
(-0.00153938 0 0.00855096)
(-0.000398154 0 0.00757917)
(-0.00196529 0 0.00992437)
(-0.00455121 0 0.0122891)
(-0.00941199 0 0.0169784)
(-0.0173636 0 0.0225124)
(-0.0316197 0 0.0289797)
(-0.0632816 0 0.0426621)
(-0.011401 0 0.0404073)
(-0.0304191 0 0.0766265)
(-0.0512283 0 0.0796154)
(-0.0790646 0 0.108287)
(-0.123553 0 0.126268)
(-0.165822 0 0.227554)
(-0.119873 -1.32708e-27 0.285444)
(-0.0950786 3.24892e-30 0.320253)
(-0.0670878 -2.04419e-27 0.362355)
(-0.0223112 0 0.345149)
(-0.000498998 0 0.00876771)
(-0.000636475 0 0.0102005)
(-0.00281352 0 0.0128991)
(-0.00686271 0 0.0180989)
(-0.0136778 0 0.0248267)
(-0.0237171 0 0.0329107)
(-0.0434682 0 0.0416674)
(-0.0643212 0 0.0596188)
(-0.0161652 0 0.0559273)
(-0.0381746 0 0.100272)
(-0.0599781 0 0.105584)
(-0.0916922 0 0.138252)
(-0.120182 0 0.201118)
(-0.10395 0 0.244208)
(-0.0950861 0 0.292381)
(-0.0702935 -1.3542e-26 0.320434)
(-0.0727013 3.5516e-30 0.331451)
(-0.0517908 -1.94811e-27 0.33231)
(-0.0159857 0 0.325761)
(-0.000921415 0 0.0132596)
(-0.00419408 0 0.0190204)
(-0.0098931 0 0.0262047)
(-0.018625 0 0.0354211)
(-0.0301104 0 0.0465217)
(-0.0577857 0 0.0577502)
(-0.0647329 0 0.0800177)
(-0.0213786 0 0.0746028)
(-0.0441793 0 0.126983)
(-0.066753 0 0.132567)
(-0.0879006 0 0.186468)
(-0.0866529 0 0.22028)
(-0.0817386 0 0.264802)
(-0.0684753 -3.66857e-26 0.300435)
(-0.0536076 3.25456e-30 0.323693)
(-0.0707855 -1.43824e-26 0.327116)
(-0.0651539 0 0.324225)
(-0.0426859 0 0.316938)
(-0.014242 0 0.298108)
(-0.00139679 0 0.0194942)
(-0.00602669 0 0.0274178)
(-0.0132906 0 0.0370057)
(-0.0233969 0 0.0486792)
(-0.0353884 0 0.0632119)
(-0.0731099 0 0.0769097)
(-0.0639444 0 0.102875)
(-0.0258125 0 0.0958701)
(-0.0474574 0 0.15387)
(-0.0627421 0 0.165782)
(-0.0683557 0 0.206633)
(-0.0662815 4.55336e-27 0.242178)
(-0.0606611 -2.17192e-26 0.276793)
(-0.0304844 0 0.301582)
(-0.0263749 2.41536e-27 0.362677)
(-0.0702516 3.56821e-30 0.335797)
(-0.0741804 -4.39834e-26 0.32347)
(-0.0616417 0 0.311985)
(-0.0401587 0 0.295388)
(-0.0136002 0 0.274286)
(-0.002014 0 0.0279787)
(-0.00810049 0 0.0383762)
(-0.0165194 0 0.0503203)
(-0.0269327 0 0.0641916)
(-0.0384758 0 0.0820566)
(-0.0868715 0 0.0979227)
(-0.0610027 0 0.12676)
(-0.0283772 0 0.117559)
(-0.0451747 0 0.179688)
(-0.0498525 0 0.184686)
(-0.0512017 8.12965e-27 0.226713)
(-0.0489849 0 0.254848)
(-0.0191573 -8.58273e-27 0.286803)
(-0.0507739 3.18517e-26 0.342451)
(-0.0280337 -1.29999e-10 0.330911)
(-0.0641291 0 0.36123)
(-0.0817336 0 0.331215)
(-0.0769234 -5.81208e-26 0.313315)
(-0.0622552 6.96696e-27 0.294941)
(-0.0398095 0 0.27367)
(-0.0136813 0 0.250019)
(-0.00270073 0 0.0389922)
(-0.0100234 0 0.0514803)
(-0.0188997 0 0.0654263)
(-0.0281798 0 0.0808227)
(-0.0376366 0 0.101208)
(-0.0924258 0 0.119359)
(-0.0560028 0 0.149227)
(-0.0273536 0 0.137564)
(-0.0368809 0 0.196637)
(-0.0362134 5.1515e-43 0.20118)
(-0.0356469 0 0.239358)
(-0.0116565 2.20931e-26 0.270876)
(-0.0421434 3.76489e-25 0.298471)
(0.0785616 -3.8508e-10 0.280517)
(0.00228287 4.16996e-09 0.0208479)
(-0.102601 2.05528e-10 0.396374)
(-0.0360589 4.02073e-09 0.0255974)
(0.213849 5.10161e-09 -0.0444699)
(0.197977 4.19306e-09 -0.0291654)
(-0.0992418 -4.49973e-26 0.343367)
(-0.0879415 -2.01346e-26 0.32143)
(-0.0822078 -2.82321e-26 0.298592)
(-0.0644503 1.31368e-26 0.274897)
(-0.0406877 0 0.250496)
(-0.0140155 0 0.225401)
(-0.00335947 0 0.0520642)
(-0.0113566 0 0.0660067)
(-0.0196713 0 0.081027)
(-0.0263538 0 0.0967553)
(-0.0327662 0 0.117337)
(-0.0880345 0 0.139364)
(-0.0478876 0 0.167685)
(-0.0230073 0 0.151595)
(-0.0263615 4.2308e-43 0.210599)
(-0.0215737 0 0.21214)
(-0.00499488 0 0.256914)
(-0.022267 4.46906e-25 0.269273)
(0.0734959 -2.02009e-25 0.318201)
(-0.108141 1.22781e-10 0.179884)
(-0.0299828 4.45221e-09 0.111047)
(0.16516 -1.04877e-09 -0.0180875)
(-0.117598 3.47064e-10 0.376514)
(-0.0607772 4.58307e-09 0.0928786)
(-0.00223515 6.37038e-09 0.32441)
(-0.0190144 5.53466e-09 0.305886)
(0.0764387 -2.32006e-09 -0.0377543)
(0.0496223 -4.08511e-09 0.164915)
(-0.0130848 -2.95515e-09 0.175537)
(-0.109674 3.41225e-25 0.33214)
(-0.0990702 5.0342e-26 0.308308)
(-0.088189 0 0.279209)
(-0.0671612 6.08491e-27 0.252473)
(-0.0419799 0 0.226216)
(-0.0143972 0 0.200129)
(-0.00386408 0 0.0663619)
(-0.0117293 0 0.0806358)
(-0.0182698 0 0.0954975)
(-0.0214197 0 0.110098)
(-0.026154 0 0.127008)
(-0.0706325 0 0.154166)
(-0.0378067 0 0.180479)
(-0.0169104 2.62969e-27 0.162561)
(-0.0134525 -3.20351e-27 0.219257)
(0.00206095 1.29659e-26 0.226208)
(0.00208238 0 0.253483)
(0.0514817 2.14767e-24 0.32064)
(-0.078179 5.38831e-10 0.219955)
(-0.202176 -1.49785e-09 -0.168843)
(-0.224715 -6.65951e-09 -0.178976)
(0.0662838 -2.11844e-09 -0.149735)
(0.0545468 -2.16883e-09 -0.156199)
(0.203298 -6.16354e-10 0.0191452)
(-0.126316 -2.92902e-09 -0.227799)
(-0.0807546 -1.37082e-26 0.357378)
(-0.175812 -1.07887e-10 0.159373)
(0.123918 -1.9253e-09 0.00623774)
(0.227522 1.33419e-09 -0.092907)
(0.161006 2.18967e-10 -0.135485)
(-0.165429 -6.06673e-09 -0.235958)
(-0.123 -2.60606e-09 -0.133923)
(-0.118367 -6.91154e-09 -0.165321)
(-0.129246 5.77139e-25 0.323683)
(-0.110706 0 0.287697)
(-0.0931554 0 0.256721)
(-0.0699571 5.54227e-27 0.228295)
(-0.0432508 0 0.200927)
(-0.0147177 0 0.174243)
(-0.00404566 0 0.0805446)
(-0.0108939 0 0.0939661)
(-0.0146415 0 0.107221)
(-0.0152617 0 0.120025)
(-0.0144272 0 0.131729)
(-0.0561553 0 0.167978)
(-0.0271559 0 0.190035)
(-0.00873513 -2.508e-27 0.16882)
(0.00465105 0 0.22617)
(0.0233547 -2.75941e-26 0.222213)
(0.0452064 1.49647e-24 0.304983)
(-0.029334 3.23852e-10 0.242816)
(-0.0145669 -3.36321e-09 -0.197961)
(-0.0125809 -3.34061e-09 -0.191413)
(0.0228011 -2.65829e-09 -0.176156)
(0.0276829 -2.70822e-09 -0.1748)
(-0.199931 -3.62889e-09 -0.343725)
(-0.2093 1.34821e-09 -0.337865)
(-0.0253655 -1.2117e-09 -0.370605)
(-0.0278713 -3.59429e-10 -0.372512)
(-0.13081 -1.16688e-09 -0.231076)
(0.555654 3.83962e-08 -0.455697)
(-0.562994 5.41997e-08 -0.386711)
(0.533743 2.6387e-08 -0.38938)
(-0.369038 7.45004e-09 -0.352126)
(-0.109773 2.14542e-24 0.339935)
(-0.178181 -1.57584e-11 0.245321)
(0.0414471 -1.79886e-09 -0.315642)
(0.00345202 -1.94889e-09 -0.313376)
(-0.0234369 -4.03226e-09 -0.275444)
(-0.0576122 -1.06615e-09 -0.270511)
(-0.175998 -6.14131e-09 -0.242066)
(0.0748895 1.65404e-09 -0.275988)
(0.0524164 -4.36441e-09 -0.270649)
(0.531276 -1.8436e-08 -0.481542)
(-0.557146 -2.92046e-08 -0.383239)
(0.508426 -5.11267e-09 -0.409199)
(-0.405924 -7.21416e-09 -0.341773)
(0.443913 4.88324e-08 -0.575495)
(-0.681276 5.30083e-08 0.187178)
(0.159845 3.98488e-08 -0.729276)
(-0.351342 9.40606e-09 -0.334196)
(0.415496 -2.82409e-08 -0.602476)
(-0.60628 -2.68697e-08 0.202348)
(0.125249 -1.13641e-08 -0.73797)
(-0.37584 -9.26263e-09 -0.341156)
(-0.149458 0 0.301187)
(-0.118975 3.48943e-26 0.264534)
(-0.0982149 0 0.232137)
(-0.0724164 4.95046e-27 0.202696)
(-0.0442543 0 0.174862)
(-0.0149416 0 0.147877)
(-0.00375227 0 0.0932752)
(-0.00870904 0 0.104603)
(-0.0103179 0 0.115439)
(-0.00353706 0 0.126392)
(-0.010136 0 0.140567)
(-0.0365179 0 0.177265)
(-0.015053 0 0.194517)
(0.00251953 0 0.170716)
(0.0304485 1.03132e-26 0.220247)
(0.0587466 4.16035e-25 0.262395)
(0.0511853 2.61091e-10 0.275913)
(-0.00223325 -2.19869e-09 -0.146428)
(-0.00468689 -2.33168e-09 -0.147623)
(0.0158321 -1.51664e-09 -0.123287)
(0.0087677 -1.73556e-09 -0.136107)
(-0.110458 -3.35547e-09 -0.302085)
(-0.0699799 -4.23374e-10 -0.307021)
(-0.142993 -3.95294e-09 -0.299408)
(-0.100761 -6.12458e-10 -0.304487)
(-0.49851 9.39572e-09 -0.317767)
(-0.463159 7.98072e-09 0.23008)
(0.36425 1.18218e-08 -0.333011)
(-0.480337 8.56509e-09 -0.442726)
(0.399502 1.0477e-08 -0.324455)
(-0.131375 9.7958e-09 -0.629425)
(-0.438494 -5.86211e-09 0.249642)
(-0.495462 -5.69404e-09 -0.316482)
(0.363457 -1.24663e-08 -0.332395)
(-0.476779 -5.66402e-09 -0.45298)
(0.396742 -1.08158e-08 -0.322666)
(-0.141215 -1.00763e-08 -0.62591)
(-0.518553 1.0685e-08 -0.443794)
(0.397687 1.27425e-08 -0.349665)
(-0.487796 8.57211e-09 -0.477428)
(0.410462 1.2035e-08 -0.380268)
(-0.500415 -7.1709e-09 -0.469809)
(0.39753 -1.03142e-08 -0.357178)
(-0.482355 -6.4928e-09 -0.49085)
(0.407998 -1.06236e-08 -0.381763)
(0.57229 3.74312e-08 -0.181717)
(-0.669863 5.38027e-08 -0.376963)
(0.551479 2.67062e-08 -0.316179)
(-0.574993 6.65166e-09 -0.330898)
(0.108468 1.51598e-08 -0.463256)
(-0.0961797 9.8582e-09 -0.340653)
(0.245578 1.44713e-08 -0.434321)
(-0.10129 7.46115e-09 -0.260623)
(-0.15423 1.7223e-24 0.310227)
(-0.218088 -4.68908e-10 0.273849)
(0.0047378 -4.0132e-09 -0.257508)
(0.0108678 -3.99321e-09 -0.260792)
(0.0874676 -3.76185e-09 -0.288057)
(0.0801097 -3.80402e-09 -0.298168)
(-0.123321 -2.91128e-09 -0.256115)
(-0.135164 -1.22714e-09 -0.253407)
(-0.328421 -2.55193e-09 -0.41521)
(-0.326179 -1.76611e-09 -0.432047)
(0.544926 -1.68563e-08 -0.184602)
(-0.632715 -2.88907e-08 -0.37847)
(0.522545 -4.42461e-09 -0.331971)
(-0.581049 -6.53756e-09 -0.346934)
(0.650014 4.83649e-08 -0.222263)
(-0.404341 6.23778e-08 -0.633478)
(0.635088 4.84675e-08 0.265975)
(-0.353569 9.81639e-09 -0.423201)
(0.627424 -2.8233e-08 -0.212027)
(-0.357528 -3.15133e-08 -0.646036)
(0.601073 -1.57066e-08 0.281914)
(-0.386567 -9.87991e-09 -0.400861)
(0.0766013 -1.60158e-08 -0.46573)
(-0.1277 -9.43812e-09 -0.333644)
(0.217032 -1.67167e-08 -0.441906)
(-0.153863 -8.03654e-09 -0.233185)
(-0.108009 1.54408e-08 -0.491839)
(-0.307197 8.20887e-09 -0.210231)
(-0.123839 -1.64857e-08 -0.485749)
(-0.328732 -8.5087e-09 -0.212303)
(-0.154432 -5.92109e-26 0.276917)
(-0.127539 0 0.238722)
(-0.10235 0 0.205707)
(-0.0742029 0 0.176132)
(-0.044924 0 0.148287)
(-0.0150773 0 0.121198)
(-0.00297894 0 0.103221)
(-0.00615194 0 0.111709)
(-0.00108879 0 0.120025)
(0.00145808 0 0.1307)
(0.01935 0 0.142413)
(-0.0157246 0 0.180194)
(-0.000231011 0 0.193831)
(0.01971 0 0.16355)
(0.053888 9.06084e-26 0.2267)
(0.125472 5.57218e-11 0.247796)
(-0.0116539 -1.39094e-10 -0.143982)
(-0.0175288 -2.74128e-10 -0.157506)
(0.0846896 8.08959e-10 -0.141374)
(0.0766489 2.43215e-10 -0.14646)
(-0.125585 -3.59956e-09 -0.284143)
(-0.0891804 -2.45221e-10 -0.287397)
(-0.0393228 -4.10101e-09 -0.212883)
(-0.00122646 -7.39554e-10 -0.22268)
(-0.527039 1.1492e-08 -0.444874)
(0.375127 1.21449e-08 -0.332619)
(-0.516591 1.71435e-08 -0.45684)
(0.406482 1.42939e-08 -0.355036)
(-0.500877 -7.04478e-09 -0.470733)
(0.38147 -1.06024e-08 -0.341884)
(-0.48086 -8.5998e-09 -0.47508)
(0.409189 -1.15422e-08 -0.358885)
(-0.471068 1.90755e-08 -0.433805)
(0.398539 1.34987e-08 -0.39822)
(-0.507176 1.76629e-08 -0.453293)
(0.40166 1.40493e-08 -0.384358)
(-0.435131 -9.09563e-09 -0.440069)
(0.395807 -9.44496e-09 -0.395211)
(-0.469089 -9.00833e-09 -0.461754)
(0.400262 -1.09707e-08 -0.384484)
(-0.336924 3.56506e-09 -0.258667)
(-0.0750381 2.86911e-10 -0.51438)
(-0.00472166 8.59566e-10 -0.558679)
(0.0731188 6.36858e-09 -0.335572)
(-0.089092 1.12696e-09 -0.468549)
(0.106263 2.49236e-09 -0.390437)
(-0.322731 -3.48252e-09 -0.27232)
(-0.0748964 -2.63356e-10 -0.514663)
(0.0730532 -6.64451e-09 -0.340837)
(-0.00671334 -4.72064e-10 -0.557566)
(-0.0897182 -1.21009e-09 -0.468418)
(0.105162 -1.64896e-09 -0.385826)
(-0.131462 2.11071e-09 -0.427397)
(0.0256769 3.73516e-09 -0.321611)
(-0.104146 1.85828e-09 -0.446074)
(0.102563 3.56043e-09 -0.373939)
(-0.113791 -1.94367e-09 -0.428967)
(0.0439716 -3.89238e-09 -0.32493)
(-0.0954741 -1.91699e-09 -0.446798)
(0.108437 -3.52168e-09 -0.372352)
(0.291583 1.84538e-08 -0.221634)
(-0.120211 1.06475e-08 -0.375168)
(0.246895 1.57176e-08 -0.374917)
(-0.0841408 8.64916e-09 -0.371538)
(-0.0449429 3.40548e-09 -0.170893)