/*--------------------------------*- C++ -*----------------------------------*\
| =========                 |                                                 |
| \\      /  F ield         | OpenFOAM: The Open Source CFD Toolbox           |
|  \\    /   O peration     | Version:  5.x                                   |
|   \\  /    A nd           | Web:      www.OpenFOAM.org                      |
|    \\/     M anipulation  |                                                 |
\*---------------------------------------------------------------------------*/
FoamFile
{
    version     2.0;
    format      ascii;
    class       surfaceVectorField;
    location    "0.2";
    object      Uf;
}
// * * * * * * * * * * * * * * * * * * * * * * * * * * * * * * * * * * * * * //

dimensions      [0 1 -1 0 0 0 0];

internalField   nonuniform List<vector> 
30582
(
(0.157003 0 0.00605455)
(0.166285 0 0.00913217)
(0.127554 0 0.00694061)
(0.15586 0 0.0117802)
(0.156654 0 0.0141637)
(0.165573 0 0.0184121)
(0.093762 0 0.00608185)
(0.0932099 0 0.01376)
(0.126956 0 0.0182566)
(0.155436 0 0.0236597)
(0.15633 0 0.0295655)
(0.163803 0 0.0278403)
(0.0711858 0 0.00460916)
(0.0902597 0 0.00935766)
(0.0930387 0 0.0169149)
(0.0923502 0 0.0275712)
(0.126016 0 0.0343298)
(0.153521 0 0.0357858)
(0.153872 0 0.0315846)
(0.162153 0 0.038266)
(0.0512579 0 0.00369857)
(0.0540283 0 0.00840791)
(0.0703253 0 0.0131651)
(0.0888354 0 0.0187721)
(0.0915911 0 0.0302611)
(0.0901661 0 0.0415892)
(0.122343 0 0.0408397)
(0.151893 0 0.0483981)
(0.154629 0 0.0580335)
(0.1583 0 0.0484364)
(0.0372178 0 0.00270813)
(0.0455287 0 0.00603018)
(0.0504512 0 0.0107428)
(0.052798 0 0.016793)
(0.0685029 0 0.0229098)
(0.0860182 0 0.0283421)
(0.0882108 0 0.0378679)
(0.0878591 0 0.055488)
(0.12116 0 0.065975)
(0.147027 0 0.061786)
(0.148311 0 0.0498802)
(0.15791 0 0.0611423)
(0.0266301 0 0.0020262)
(0.0297815 0 0.00462877)
(0.0365536 0 0.00794777)
(0.0443332 0 0.0119991)
(0.0487674 0 0.0183048)
(0.0506002 0 0.0251197)
(0.0652526 0 0.0294575)
(0.082642 0 0.0378581)
(0.0861877 0 0.0576962)
(0.0831195 0 0.0697287)
(0.110712 0 0.0631311)
(0.143867 0 0.0768265)
(0.157206 0 0.0865887)
(0.153724 0 0.0704161)
(0.0190161 0 0.00147788)
(0.0222937 0 0.0033885)
(0.0260925 0 0.00598174)
(0.0289159 0 0.00920214)
(0.0351862 0 0.0133983)
(0.042246 0 0.0178322)
(0.0460679 0 0.0238694)
(0.0479605 0 0.033214)
(0.062368 0 0.0432909)
(0.0767724 0 0.047731)
(0.0779593 0 0.057385)
(0.0788958 0 0.0830655)
(0.109967 0 0.0977117)
(0.131471 0 0.0957229)
(0.137535 0 0.0823854)
(0.143001 0 0.0874936)
(0.0135473 0 0.00107531)
(0.0157364 0 0.00247747)
(0.0185992 0 0.00437614)
(0.0215769 0 0.00672327)
(0.0250038 0 0.0100149)
(0.027435 0 0.0136537)
(0.0330353 0 0.0175823)
(0.0395515 0 0.0234297)
(0.0433087 0 0.0339189)
(0.0437868 0 0.0412554)
(0.0550362 0 0.0439022)
(0.0709535 0 0.0572325)
(0.0767045 0 0.0844594)
(0.0731749 0 0.0966101)
(0.0893323 0 0.0995256)
(0.15046 0 0.115005)
(0.170568 0 0.128355)
(0.140809 0 0.0034825)
(0.00964527 0 0.000778655)
(0.0112316 0 0.00179926)
(0.013231 0 0.00318956)
(0.0151979 0 0.0049094)
(0.01776 0 0.00729011)
(0.0203638 0 0.00994704)
(0.0233273 0 0.0132374)
(0.0255319 0 0.0178979)
(0.0306496 0 0.0245462)
(0.035506 0 0.0288667)
(0.0376848 0 0.0346556)
(0.0397404 0 0.0485762)
(0.0521662 0 0.0639638)
(0.0620378 0 0.0674034)
(0.0639606 0 0.0805924)
(0.0921576 0 0.106941)
(0.144027 0 0.121491)
(0.288511 0 0.125621)
(0.284333 0 0.00107735)
(0.0582441 0 -0.110341)
(0.00687246 0 0.000562566)
(0.00800174 0 0.00130164)
(0.00940938 0 0.00231164)
(0.0108264 0 0.00356148)
(0.0125977 0 0.00529423)
(0.0142933 0 0.00724805)
(0.0164839 0 0.0096668)
(0.0187735 0 0.0129926)
(0.0214069 0 0.0182005)
(0.0227437 0 0.0219386)
(0.0262857 0 0.0250918)
(0.0313441 0 0.0337626)
(0.0349857 0 0.0495981)
(0.0337945 0 0.055825)
(0.0398537 0 0.0566984)
(0.0973307 0 0.0773954)
(0.135542 0 0.0981432)
(0.193076 0 0.110397)
(0.324364 0 0.113974)
(0.252732 0 0.109608)
(0.0409861 0 -0.0140195)
(-0.0550678 0 -0.12646)
(0.00490447 0 0.000406327)
(0.00570755 0 0.00094042)
(0.0066982 0 0.00167078)
(0.00770079 0 0.00257439)
(0.00893881 0 0.00382664)
(0.0101496 0 0.00524867)
(0.0116424 0 0.00703825)
(0.0131019 0 0.00944135)
(0.014983 0 0.0131428)
(0.0165161 0 0.0158515)
(0.0181436 0 0.0186736)
(0.019902 0 0.0254983)
(0.0237121 0 0.0358578)
(0.0254375 0 0.0386046)
(0.0257166 0 0.0413778)
(0.0624672 0 0.0617895)
(0.11211 0 0.0754022)
(0.231581 0 0.0871077)
(0.314108 0 0.105187)
(0.152794 0 0.114573)
(0.0769815 0 0.112848)
(0.00693362 0 0.0952097)
(-0.0969533 0 -0.00799162)
(-0.0655358 0 -0.0883603)
(0.00350746 0 0.000293792)
(0.00407846 0 0.000679518)
(0.00477646 0 0.00120677)
(0.0054858 0 0.00185875)
(0.00635135 0 0.00276014)
(0.00720008 0 0.00378906)
(0.00823266 0 0.00509705)
(0.00925419 0 0.00682099)
(0.0105021 0 0.0094803)
(0.0114395 0 0.0114713)
(0.0125794 0 0.0134951)
(0.0141958 0 0.0183278)
(0.0160698 0 0.0265467)
(0.0158467 0 0.0288394)
(0.01642 0 0.0284237)
(0.0616743 0 0.0425974)
(0.102821 0 0.0572875)
(0.128468 0 0.0657089)
(0.225947 0 0.0858197)
(0.184442 0 0.12365)
(0.0381926 0 0.132031)
(0.00902545 0 0.130367)
(-0.0553124 0 0.105563)
(-0.083578 0 0.0785523)
(-0.0615537 0 -0.00313884)
(-0.0374603 0 -0.0641717)
(0.0025147 0 0.00021294)
(0.00292104 0 0.000491547)
(0.00341376 0 0.000872158)
(0.00391576 0 0.00134231)
(0.00452201 0 0.0019903)
(0.0051179 0 0.00273292)
(0.00583284 0 0.0036825)
(0.0065359 0 0.00491564)
(0.007381 0 0.00681432)
(0.00802338 0 0.0082602)
(0.00874629 0 0.00974483)
(0.00973246 0 0.0132078)
(0.0109787 0 0.0191275)
(0.0108988 0 0.0205936)
(0.0105379 0 0.0202425)
(0.0516489 0 0.0314109)
(0.0939942 0 0.0412588)
(0.107865 0 0.0463884)
(0.136167 0 0.063534)
(0.101581 0 0.103589)
(0.0463882 0 0.1301)
(0.0254616 0 0.120252)
(-0.00741602 0 0.117127)
(-0.015915 0 0.110863)
(-0.0391963 0 0.08791)
(-0.054086 0 0.0696087)
(-0.0361237 0 0.007973)
(-0.0171898 0 -0.0499766)
(0.00180776 0 0.000154881)
(0.00209765 0 0.000356286)
(0.00244624 0 0.000631429)
(0.00280196 0 0.000970527)
(0.00322756 0 0.00143637)
(0.00364637 0 0.0019719)
(0.00414276 0 0.00265908)
(0.0046288 0 0.00354053)
(0.00520263 0 0.00489333)
(0.00563341 0 0.00593824)
(0.00610635 0 0.00701331)
(0.00675987 0 0.00947753)
(0.00753485 0 0.0137678)
(0.00730774 0 0.0147679)
(0.00690074 0 0.0141698)
(0.0481828 0 0.0222122)
(0.0897953 0 0.0301391)
(0.0765916 0 0.0332466)
(0.0836192 0 0.0452654)
(0.0788471 0 0.0689574)
(0.0439995 0 0.0981821)
(0.0338236 0 0.104597)
(0.0170509 0 0.104744)
(0.00365796 0 0.110111)
(-0.00653864 0 0.104885)
(-0.0100665 0 0.0975647)
(-0.0215157 0 0.0795993)
(-0.0244029 0 0.0637652)
(-0.00833894 0 0.008307)
(0.00130281 0 0.000113079)
(0.00150973 0 0.000258992)
(0.00175767 0 0.000458406)
(0.00201053 0 0.000703245)
(0.0023101 0 0.00103845)
(0.00260502 0 0.00142473)
(0.0029507 0 0.00192132)
(0.00328755 0 0.00255169)
(0.003679 0 0.00351531)
(0.00397001 0 0.00426858)
(0.00427988 0 0.00504375)
(0.00470687 0 0.00679565)
(0.00520181 0 0.0098777)
(0.00496801 0 0.0105533)
(0.00454557 0 0.00998082)
(0.0448124 0 0.0158349)
(0.0854918 0 0.0215488)
(0.064285 0 0.0241275)
(0.0507665 0 0.0321919)
(0.0477995 0 0.04761)
(0.0386661 0 0.0644981)
(0.038089 0 0.0712492)
(0.029407 0 0.0846551)
(0.0213268 0 0.0993837)
(0.0108334 0 0.101974)
(0.00218484 0 0.10291)
(-0.00243231 0 0.0970593)
(-0.00378085 0 0.0897939)
(-0.00503595 0 0.0751911)
(0.000940245 0 8.27168e-05)
(0.00108992 0 0.000189264)
(0.00126591 0 0.000334065)
(0.00144595 0 0.00051115)
(0.00165812 0 0.000752797)
(0.00186656 0 0.00103178)
(0.00210807 0 0.00139056)
(0.00234226 0 0.00184189)
(0.0026104 0 0.00252889)
(0.00280766 0 0.00307141)
(0.00301181 0 0.00362902)
(0.00329304 0 0.00487451)
(0.0036095 0 0.00708346)
(0.00339639 0 0.00754312)
(0.00302565 0 0.00704287)
(0.0422663 0 0.0112542)
(0.0821099 0 0.0154333)
(0.0552109 0 0.0173671)
(0.0326923 0 0.0233072)
(0.0335086 0 0.0321727)
(0.0303195 0 0.0438264)
(0.0290082 0 0.0512616)
(0.0284576 0 0.0612956)
(0.0270063 0 0.0716581)
(0.0200434 0 0.0845649)
(0.0139274 0 0.0954981)
(0.00715989 0 0.0976856)
(0.00175311 0 0.0989342)
(3.42383e-05 0 0.0927992)
(0.000679145 0 6.07607e-05)
(0.00078602 0 0.000138727)
(0.000913074 0 0.000244351)
(0.00104308 0 0.000373396)
(0.00119317 0 0.000547874)
(0.00134078 0 0.000749581)
(0.00151066 0 0.00100905)
(0.00167425 0 0.00133281)
(0.0018587 0 0.00182341)
(0.00199291 0 0.00221402)
(0.00212797 0 0.00261471)
(0.00231385 0 0.00350126)
(0.00251724 0 0.00508278)
(0.00233789 0 0.00539642)
(0.00203222 0 0.00498588)
(0.0400147 0 0.00800946)
(0.0788004 0 0.0110299)
(0.0493738 0 0.0127804)
(0.021781 0 0.0170995)
(0.0226921 0 0.0223127)
(0.0225756 0 0.02962)
(0.0234338 0 0.0356227)
(0.0234531 0 0.044403)
(0.0214839 0 0.0534518)
(0.0199014 0 0.0629851)
(0.0177534 0 0.0717201)
(0.0122714 0 0.0830802)
(0.00726279 0 0.0933417)
(0.00284608 0 0.0952346)
(0.000488261 0 4.4998e-05)
(0.000566349 0 0.000103223)
(0.000658879 0 0.000180033)
(0.00075196 0 0.000273725)
(0.000860176 0 0.000400566)
(0.000966178 0 0.000547196)
(0.00108552 0 0.000734955)
(0.00120013 0 0.000967605)
(0.00132803 0 0.00131879)
(0.00141986 0 0.00160022)
(0.00150952 0 0.00188795)
(0.00163282 0 0.00252018)
(0.00176383 0 0.00365297)
(0.00161905 0 0.00386768)
(0.00137659 0 0.00354105)
(0.0378491 0 0.00570969)
(0.0753454 0 0.00789864)
(0.0449686 0 0.00963142)
(0.0149565 0 0.0130904)
(0.0157389 0 0.0159299)
(0.016239 0 0.0206768)
(0.0170499 0 0.0251867)
(0.0178117 0 0.0315343)
(0.0176735 0 0.0381366)
(0.0167293 0 0.0466352)
(0.0143382 0 0.0548405)
(0.012102 0 0.063532)
(0.00902215 0 0.0717936)
(0.00429846 0 0.0822093)
(0.000348074 0 3.37637e-05)
(0.000407124 0 7.71357e-05)
(0.000473879 0 0.000134109)
(0.000541732 0 0.000203188)
(0.000620424 0 0.000295108)
(0.000696074 0 0.000401071)
(0.000781641 0 0.000537681)
(0.000863214 0 0.000705807)
(0.000951839 0 0.00095771)
(0.00101486 0 0.00116053)
(0.00107499 0 0.00136716)
(0.00115721 0 0.00181918)
(0.00124168 0 0.00263169)
(0.00112762 0 0.00277867)
(0.000939407 0 0.00252358)
(0.0355834 0 0.00408028)
(0.0715408 0 0.00569228)
(0.0413153 0 0.00752743)
(0.0103873 0 0.0104686)
(0.0109347 0 0.0117772)
(0.011439 0 0.0147801)
(0.01222 0 0.0181437)
(0.012959 0 0.0226469)
(0.0130133 0 0.0273878)
(0.0128745 0 0.0336357)
(0.0118911 0 0.0398546)
(0.0102006 0 0.0478305)
(0.00728755 0 0.0556732)
(0.0041561 0 0.0638459)
(0.000242617 0 2.60559e-05)
(0.000287368 0 5.9029e-05)
(0.000337812 0 0.000101409)
(0.000389282 0 0.000151936)
(0.00044619 0 0.000219796)
(0.000501203 0 0.000297351)
(0.000563066 0 0.000396134)
(0.000620998 0 0.000517175)
(0.000683905 0 0.000698916)
(0.000728135 0 0.000845661)
(0.000768286 0 0.000993873)
(0.000823296 0 0.00131783)
(0.000878181 0 0.00190202)
(0.000789806 0 0.00200236)
(0.000645611 0 0.0018051)
(0.0330857 0 0.00292409)
(0.0671897 0 0.00415123)
(0.0379958 0 0.00619559)
(0.00720269 0 0.00877184)
(0.00757816 0 0.00904573)
(0.0079437 0 0.0108041)
(0.00858737 0 0.0134127)
(0.00921794 0 0.0165567)
(0.00940781 0 0.0198689)
(0.00944485 0 0.0243687)
(0.00881601 0 0.0289434)
(0.00787353 0 0.0349113)
(0.00604129 0 0.0408919)
(0.00348467 0 0.0485435)
(0.000160743 0 2.09937e-05)
(0.000196124 0 4.6642e-05)
(0.000235414 0 7.88618e-05)
(0.000274688 0 0.000116331)
(0.000317902 0 0.000166255)
(0.000359879 0 0.000222477)
(0.00040464 0 0.00029487)
(0.000446572 0 0.000382977)
(0.000491752 0 0.00051372)
(0.000522692 0 0.000619248)
(0.000550628 0 0.000725946)
(0.000588261 0 0.000959279)
(0.000623754 0 0.00138043)
(0.00055604 0 0.00144832)
(0.000446919 0 0.00129631)
(0.0303019 0 0.00210246)
(0.0621612 0 0.00309584)
(0.0347694 0 0.00541132)
(0.00501671 0 0.00770865)
(0.00519146 0 0.00724898)
(0.0054363 0 0.00813096)
(0.0059675 0 0.0102306)
(0.00647688 0 0.0124591)
(0.00666221 0 0.0146947)
(0.00675194 0 0.0178537)
(0.00640411 0 0.0211103)
(0.00578875 0 0.0254674)
(0.00448618 0 0.0298889)
(0.0026868 0 0.0356804)
(9.38309e-05 0 1.80094e-05)
(0.000123702 0 3.88485e-05)
(0.000155963 0 6.38962e-05)
(0.000187375 0 9.19837e-05)
(0.000221364 0 0.000129274)
(0.000253831 0 0.000170377)
(0.000288107 0 0.00022288)
(0.000320252 0 0.000286567)
(0.00035285 0 0.000381622)
(0.000375197 0 0.000458059)
(0.000394983 0 0.000534031)
(0.000420758 0 0.000701936)
(0.000444678 0 0.00100711)
(0.000393619 0 0.00105277)
(0.00031132 0 0.000935109)
(0.02723 0 0.00151785)
(0.0564961 0 0.00236736)
(0.0314917 0 0.00495357)
(0.00349923 0 0.00713323)
(0.00353631 0 0.00614641)
(0.00364425 0 0.00634529)
(0.00406981 0 0.00809979)
(0.00450323 0 0.00973631)
(0.00466715 0 0.0111628)
(0.00475757 0 0.0133511)
(0.00454874 0 0.0156267)
(0.00414332 0 0.0187118)
(0.00326301 0 0.0218683)
(0.00197527 0 0.0261329)
(3.5638e-05 0 1.66994e-05)
(6.29543e-05 0 3.44978e-05)
(9.11489e-05 0 5.48089e-05)
(0.000118231 0 7.6643e-05)
(0.000146588 0 0.000104704)
(0.000173131 0 0.000134679)
(0.000200612 0 0.000173057)
(0.000225767 0 0.000219381)
(0.000250941 0 0.000288107)
(0.000268726 0 0.000342631)
(0.000282979 0 0.000397046)
(0.000301112 0 0.000518616)
(0.000317295 0 0.000740001)
(0.00027902 0 0.000769625)
(0.000218071 0 0.000678196)
(0.0239562 0 0.00110144)
(0.0502829 0 0.00182973)
(0.0280657 0 0.00469985)
(0.00244761 0 0.00689626)
(0.00244017 0 0.00546416)
(0.00241179 0 0.00514033)
(0.00273719 0 0.00673177)
(0.00311129 0 0.00798581)
(0.00322002 0 0.00876009)
(0.00330962 0 0.0102629)
(0.00319119 0 0.0118456)
(0.00292104 0 0.0139913)
(0.00231962 0 0.0161969)
(0.00141381 0 0.0192333)
(-1.92398e-05 0 1.68245e-05)
(8.04223e-06 0 3.32076e-05)
(3.4983e-05 0 5.04896e-05)
(6.03699e-05 0 6.79657e-05)
(8.57789e-05 0 8.97175e-05)
(0.000109392 0 0.000112108)
(0.000133011 0 0.000139976)
(0.000154083 0 0.000173303)
(0.000174692 0 0.000223332)
(0.000189332 0 0.000262112)
(0.000201104 0 0.000300027)
(0.000215241 0 0.000387696)
(0.000226632 0 0.000549473)
(0.00019817 0 0.000567659)
(0.000152549 0 0.000495348)
(0.0205369 0 0.000804446)
(0.0437598 0 0.0014299)
(0.0245676 0 0.00450313)
(0.00174761 0 0.00678297)
(0.00169635 0 0.00504272)
(0.00162522 0 0.0043227)
(0.00186264 0 0.00583802)
(0.00213396 0 0.00689541)
(0.00219751 0 0.0071962)
(0.00226875 0 0.00816706)
(0.00219933 0 0.00925323)
(0.00203437 0 0.0107345)
(0.00162819 0 0.0122626)
(0.000996508 0 0.0143803)
(-7.55164e-05 0 1.83806e-05)
(-4.56257e-05 0 3.46663e-05)
(-1.81011e-05 0 5.04856e-05)
(8.15387e-06 0 6.54119e-05)
(3.32385e-05 0 8.26121e-05)
(5.62086e-05 0 9.9251e-05)
(7.82123e-05 0 0.000119909)
(9.7665e-05 0 0.000144081)
(0.000116 0 0.000180236)
(0.000129373 0 0.00020686)
(0.00014008 0 0.000232826)
(0.000151562 0 0.000296339)
(0.000160693 0 0.000414754)
(0.000141104 0 0.000424024)
(0.000107895 0 0.00036562)
(0.0171406 0 0.000591837)
(0.0369885 0 0.00113071)
(0.0210365 0 0.0044032)
(0.00129951 0 0.00671309)
(0.00124967 0 0.00473188)
(0.00117454 0 0.00377693)
(0.00128102 0 0.00526102)
(0.00146805 0 0.00620044)
(0.00151307 0 0.00615652)
(0.0015403 0 0.00674944)
(0.00149475 0 0.00754222)
(0.00139791 0 0.0085301)
(0.00112362 0 0.00955377)
(0.000694511 0 0.0110183)
(-0.000138009 0 2.15218e-05)
(-0.000103754 0 3.90763e-05)
(-7.2566e-05 0 5.47773e-05)
(-4.28945e-05 0 6.81656e-05)
(-1.63948e-05 0 8.25934e-05)
(8.27386e-06 0 9.54747e-05)
(3.09188e-05 0 0.00011063)
(5.07834e-05 0 0.000127401)
(6.87137e-05 0 0.00015387)
(8.23269e-05 0 0.000171679)
(9.31877e-05 0 0.000188077)
(0.000103771 0 0.000233694)
(0.000112013 0 0.000321319)
(9.92107e-05 0 0.000323676)
(7.6059e-05 0 0.00027439)
(0.0139891 0 0.000441602)
(0.030629 0 0.000905422)
(0.0175771 0 0.00403961)
(0.00107866 0 0.00643156)
(0.00105567 0 0.00453218)
(0.000937127 0 0.0034081)
(0.000950462 0 0.0048586)
(0.00104071 0 0.00573012)
(0.00103983 0 0.0054713)
(0.00104969 0 0.00578111)
(0.00102484 0 0.00639167)
(0.000953768 0 0.00706166)
(0.000765758 0 0.00775282)
(0.000477511 0 0.00873185)
(-0.000211525 0 2.64018e-05)
(-0.000170014 0 4.66481e-05)
(-0.000133099 0 6.36936e-05)
(-9.82575e-05 0 7.67958e-05)
(-6.73571e-05 0 8.95239e-05)
(-3.85948e-05 0 9.94612e-05)
(-1.37054e-05 0 0.000110957)
(8.57155e-06 0 0.000122469)
(2.79306e-05 0 0.000141303)
(4.34177e-05 0 0.000151658)
(5.56995e-05 0 0.000160818)
(6.65015e-05 0 0.000193561)
(7.48888e-05 0 0.000258849)
(6.81681e-05 0 0.000254952)
(5.30847e-05 0 0.000211353)
(0.0110214 0 0.000336623)
(0.0245881 0 0.000738319)
(0.0143922 0 0.0037842)
(0.000936269 0 0.00597853)
(0.000955125 0 0.0041453)
(0.000927817 0 0.00312915)
(0.000827149 0 0.00455734)
(0.000782051 0 0.00537)
(0.000761936 0 0.00499743)
(0.000747625 0 0.00512488)
(0.000703313 0 0.00562103)
(0.000653666 0 0.00607636)
(0.000526563 0 0.00653615)
(0.000326275 0 0.00719832)
(-0.000301277 0 3.32835e-05)
(-0.000249715 0 5.79087e-05)
(-0.000204319 0 7.77583e-05)
(-0.000161342 0 9.17403e-05)
(-0.000123978 0 0.000104008)
(-8.93591e-05 0 0.000112058)
(-5.9483e-05 0 0.000120594)
(-3.26812e-05 0 0.000127536)
(-1.02404e-05 0 0.000141119)
(8.52773e-06 0 0.000145525)
(2.33921e-05 0 0.000147984)
(3.5882e-05 0 0.00017085)
(4.5514e-05 0 0.0002206)
(4.43632e-05 0 0.000210692)
(3.60322e-05 0 0.000169329)
(0.00833829 0 0.000264754)
(0.0190543 0 0.000613025)
(0.0114035 0 0.00346036)
(0.000864931 0 0.00553783)
(0.000882548 0 0.00386195)
(0.000873453 0 0.00289818)
(0.000774455 0 0.00420842)
(0.000672646 0 0.00500101)
(0.000630505 0 0.00463305)
(0.000570031 0 0.00465773)
(0.000518286 0 0.00509498)
(0.000465571 0 0.00541366)
(0.00036254 0 0.00571603)
(0.000223942 0 0.00616139)
(-0.000413174 0 4.25212e-05)
(-0.000348088 0 7.35531e-05)
(-0.000291166 0 9.78159e-05)
(-0.000237089 0 0.000113952)
(-0.000190448 0 0.00012689)
(-0.00014711 0 0.000133848)
(-0.0001102 0 0.000140384)
(-7.71617e-05 0 0.00014363)
(-4.94039e-05 0 0.000152872)
(-2.55049e-05 0 0.000151522)
(-6.64643e-06 0 0.000148071)
(8.61119e-06 0 0.000163631)
(2.04943e-05 0 0.000202381)
(2.5187e-05 0 0.000185673)
(2.31362e-05 0 0.000143519)
(0.00592042 0 0.000218228)
(0.0140316 0 0.000521344)
(0.0086827 0 0.00315149)
(0.000788914 0 0.00504121)
(0.000834637 0 0.0035381)
(0.000862683 0 0.00269732)
(0.000732483 0 0.00390553)
(0.000610526 0 0.00460937)
(0.000562121 0 0.00426967)
(0.000507229 0 0.00428516)
(0.000432738 0 0.00468151)
(0.000352969 0 0.00493384)
(0.000267138 0 0.00515917)
(0.00015948 0 0.00546007)
(-0.000554119 0 5.461e-05)
(-0.000471504 0 9.44144e-05)
(-0.000399303 0 0.000124985)
(-0.000330453 0 0.000144717)
(-0.0002713 0 0.000159541)
(-0.000216297 0 0.000166168)
(-0.00016963 0 0.000171398)
(-0.000127673 0 0.00017151)
(-9.26575e-05 0 0.000177459)
(-6.19695e-05 0 0.000170545)
(-3.73058e-05 0 0.000160704)
(-1.78096e-05 0 0.000170271)
(-2.54592e-06 0 0.000201939)
(8.37846e-06 0 0.000177476)
(1.25909e-05 0 0.000131017)
(0.00373871 0 0.000191906)
(0.00952273 0 0.000458879)
(0.0062003 0 0.00284834)
(0.000678465 0 0.00455398)
(0.000750815 0 0.00323263)
(0.000816319 0 0.00250953)
(0.000702992 0 0.0035934)
(0.000582185 0 0.0042352)
(0.000526069 0 0.00395066)
(0.000463725 0 0.00396359)
(0.000388354 0 0.00431494)
(0.000306152 0 0.00453546)
(0.000220528 0 0.00471803)
(0.000120945 0 0.00495229)
(-0.000732566 0 7.02032e-05)
(-0.000627483 0 0.000121715)
(-0.000535513 0 0.000160825)
(-0.000447517 0 0.000185694)
(-0.00037188 0 0.000203774)
(-0.000301512 0 0.000210926)
(-0.00024186 0 0.00021549)
(-0.000188033 0 0.000212837)
(-0.000143169 0 0.000216255)
(-0.000103244 0 0.000203532)
(-7.09629e-05 0 0.000186774)
(-4.58282e-05 0 0.000191484)
(-2.57738e-05 0 0.00021873)
(-7.55432e-06 0 0.000184452)
(3.28619e-06 0 0.000130277)
(0.00170998 0 0.000183029)
(0.0053768 0 0.000424608)
(0.00392754 0 0.00263984)
(0.000504207 0 0.00414372)
(0.000612028 0 0.00294321)
(0.000721347 0 0.00234127)
(0.000637695 0 0.00329766)
(0.000543111 0 0.0038668)
(0.000496197 0 0.0036367)
(0.000443747 0 0.00366823)
(0.000363557 0 0.00398321)
(0.000278518 0 0.00417922)
(0.000195269 0 0.00434456)
(0.000103533 0 0.0045402)
(-0.000958655 0 9.01955e-05)
(-0.000825062 0 0.000156912)
(-0.000708018 0 0.000207344)
(-0.000595553 0 0.000239285)
(-0.00049862 0 0.000262128)
(-0.000408366 0 0.000270599)
(-0.000331742 0 0.00027517)
(-0.000262342 0 0.000270086)
(-0.000204433 0 0.000271602)
(-0.000152424 0 0.000252428)
(-0.000110117 0 0.000227731)
(-7.73783e-05 0 0.000228363)
(-5.10565e-05 0 0.000253755)
(-2.40668e-05 0 0.000207213)
(-5.55917e-06 0 0.000140852)
(-0.000210354 0 0.000189805)
(0.00148246 0 0.000418769)
(0.00179182 0 0.00251)
(0.000290709 0 0.00387002)
(0.000416259 0 0.00273828)
(0.000547099 0 0.00220581)
(0.000522824 0 0.00303355)
(0.000470671 0 0.00352911)
(0.000444775 0 0.0033447)
(0.000412511 0 0.00338944)
(0.000340017 0 0.003668)
(0.000262536 0 0.00385182)
(0.000182975 0 0.00400474)
(9.50383e-05 0 0.00418136)
(-0.00124469 0 0.000115773)
(-0.00107533 0 0.000201952)
(-0.000926634 0 0.000267134)
(-0.000783212 0 0.000308452)
(-0.000659318 0 0.000337958)
(-0.000543584 0 0.000348754)
(-0.000445087 0 0.000353873)
(-0.000355564 0 0.000346487)
(-0.000280635 0 0.000346768)
(-0.000212927 0 0.000320222)
(-0.000157544 0 0.000286035)
(-0.000114829 0 0.000283077)
(-8.02494e-05 0 0.000308975)
(-4.2412e-05 0 0.000246884)
(-1.4789e-05 0 0.000163341)
(-0.00207687 0 0.000212917)
(-0.00226551 0 0.000443368)
(-0.000237143 0 0.00246336)
(5.63193e-05 0 0.00372092)
(0.000195211 0 0.00261378)
(0.000334446 0 0.00211652)
(0.000357329 0 0.00283697)
(0.00035211 0 0.00325042)
(0.000360792 0 0.00309108)
(0.000356049 0 0.00314144)
(0.000303341 0 0.00337808)
(0.000242645 0 0.0035507)
(0.000171001 0 0.00368526)
(9.22992e-05 0 0.00385073)
(-0.00160541 0 0.000148252)
(-0.00139158 0 0.000259246)
(-0.0012033 0 0.000343464)
(-0.00102106 0 0.00039715)
(-0.000863222 0 0.000435542)
(-0.000715123 0 0.000449769)
(-0.000588856 0 0.000456163)
(-0.000473611 0 0.00044664)
(-0.000376806 0 0.000446228)
(-0.000288852 0 0.000410834)
(-0.000216552 0 0.000365137)
(-0.000160875 0 0.000359024)
(-0.000115533 0 0.000387786)
(-6.39581e-05 0 0.000305876)
(-2.5078e-05 0 0.000199071)
(-0.00394006 0 0.00025339)
(-0.00596159 0 0.000498159)
(-0.00221016 0 0.00249904)
(-0.000173087 0 0.00369513)
(-2.83353e-05 0 0.00257134)
(0.000105452 0 0.00208154)
(0.000171271 0 0.00271989)
(0.000204644 0 0.00305837)
(0.000243669 0 0.00290153)
(0.000266052 0 0.0029436)
(0.000245955 0 0.00313233)
(0.000207388 0 0.0032851)
(0.000151614 0 0.0033957)
(8.63346e-05 0 0.00354699)
(-0.00205887 0 0.000189229)
(-0.00178958 0 0.000331791)
(-0.00155231 0 0.0004403)
(-0.00132171 0 0.00051008)
(-0.0011214 0 0.000560188)
(-0.000932674 0 0.000579338)
(-0.000771309 0 0.000587813)
(-0.000623464 0 0.000576206)
(-0.000498912 0 0.000575794)
(-0.000385083 0 0.000529747)
(-0.00029109 0 0.000469738)
(-0.000218694 0 0.000460681)
(-0.000159425 0 0.000494989)
(-9.0366e-05 0 0.000387875)
(-3.72824e-05 0 0.000250297)
(-0.00583232 0 0.000313751)
(-0.00969043 0 0.000581596)
(-0.00416746 0 0.00261082)
(-0.000384979 0 0.00378689)
(-0.000246476 0 0.00261217)
(-0.00011645 0 0.00210282)
(-1.55352e-05 0 0.00268223)
(4.53105e-05 0 0.0029569)
(0.000110148 0 0.00279154)
(0.000155968 0 0.00281255)
(0.00016624 0 0.00294895)
(0.000154919 0 0.00307177)
(0.000121941 0 0.00315347)
(7.3109e-05 0 0.00328228)
(-0.00262659 0 0.000240668)
(-0.00228974 0 0.000423029)
(-0.00199109 0 0.000562395)
(-0.00170015 0 0.000652976)
(-0.00144717 0 0.000718304)
(-0.0012078 0 0.000744278)
(-0.00100243 0 0.00075601)
(-0.000813606 0 0.000742472)
(-0.000654033 0 0.000742756)
(-0.000507366 0 0.000683721)
(-0.000385809 0 0.000605947)
(-0.000292063 0 0.000594219)
(-0.000214943 0 0.000637038)
(-0.000123557 0 0.000497813)
(-5.23187e-05 0 0.000320208)
(-0.00780448 0 0.000397754)
(-0.0135134 0 0.000693815)
(-0.00614557 0 0.00278291)
(-0.000575639 0 0.00397783)
(-0.000437495 0 0.0027265)
(-0.000317314 0 0.0021762)
(-0.000198492 0 0.00272436)
(-0.000109606 0 0.00294623)
(-2.20811e-05 0 0.00275946)
(3.95047e-05 0 0.00275667)
(7.65505e-05 0 0.00284474)
(9.09244e-05 0 0.00292877)
(8.16268e-05 0 0.0029752)
(5.29496e-05 0 0.00307305)
(-0.00333453 0 0.000304834)
(-0.00291245 0 0.000537105)
(-0.00254041 0 0.000715352)
(-0.00217587 0 0.000832535)
(-0.00185688 0 0.00091759)
(-0.00155425 0 0.000952948)
(-0.00129423 0 0.000969348)
(-0.00105424 0 0.000954128)
(-0.000850683 0 0.000956131)
(-0.000662691 0 0.000881335)
(-0.000506266 0 0.000781377)
(-0.000385443 0 0.000767254)
(-0.000285623 0 0.000822246)
(-0.000165801 0 0.000642365)
(-7.14979e-05 0 0.000413124)
(-0.00985872 0 0.000510643)
(-0.0174507 0 0.000836156)
(-0.00819337 0 0.00299049)
(-0.000752504 0 0.00423314)
(-0.000616167 0 0.00289997)
(-0.000495809 0 0.00229514)
(-0.000357086 0 0.00283677)
(-0.000252493 0 0.00302149)
(-0.000151502 0 0.00280487)
(-7.19417e-05 0 0.00277431)
(-1.12516e-05 0 0.00281662)
(2.36112e-05 0 0.00286268)
(3.67428e-05 0 0.00287596)
(2.9304e-05 0 0.00293546)
(-0.00421346 0 0.000384534)
(-0.00369359 0 0.000678753)
(-0.0032255 0 0.000905783)
(-0.00276821 0 0.00105702)
(-0.00237002 0 0.00116725)
(-0.00198995 0 0.00121508)
(-0.00166141 0 0.00123816)
(-0.00135749 0 0.00122183)
(-0.00109917 0 0.00122685)
(-0.000859458 0 0.00113288)
(-0.000659163 0 0.00100541)
(-0.000504276 0 0.000989362)
(-0.00037575 0 0.00106094)
(-0.000219818 0 0.000829812)
(-9.62062e-05 0 0.000534621)
(-0.0119642 0 0.000659216)
(-0.0215259 0 0.00101351)
(-0.0103228 0 0.00324287)
(-0.000918992 0 0.00454715)
(-0.000773431 0 0.0031064)
(-0.000655155 0 0.00244932)
(-0.000508375 0 0.00300505)
(-0.000383931 0 0.00316799)
(-0.000264025 0 0.00291789)
(-0.000172246 0 0.00286224)
(-9.66615e-05 0 0.00286232)
(-4.09835e-05 0 0.00286947)
(-7.10109e-06 0 0.00285103)
(4.72458e-06 0 0.00287465)
(-0.00464021 0 0.000854481)
(-0.00530039 0 0.000482696)
(-0.00407599 0 0.0011421)
(-0.00351137 0 0.00133561)
(-0.00301015 0 0.00147807)
(-0.00253263 0 0.00154282)
(-0.00212144 0 0.00157497)
(-0.00173908 0 0.00155807)
(-0.00141215 0 0.00156812)
(-0.0011077 0 0.00145105)
(-0.000852662 0 0.00128942)
(-0.000655101 0 0.00127212)
(-0.00049046 0 0.00136592)
(-0.000288928 0 0.00107045)
(-0.000128149 0 0.000691633)
(-0.0140922 0 0.000852022)
(-0.0256954 0 0.00123346)
(-0.0125121 0 0.00350656)
(-0.00108485 0 0.00490016)
(-0.000930099 0 0.0033648)
(-0.000814134 0 0.00263386)
(-0.000639799 0 0.00321685)
(-0.000502526 0 0.00337364)
(-0.000375427 0 0.00308234)
(-0.000265714 0 0.00300545)
(-0.000173099 0 0.00297537)
(-0.000103609 0 0.00294425)
(-5.00222e-05 0 0.00289911)
(-1.85288e-05 0 0.00288626)
(-0.0044121 0 0.0016814)
(-0.00512799 0 0.00143254)
(-0.00670129 0 0.00120906)
(-0.0088047 0 0.000803818)
(-0.00380498 0 0.00186386)
(-0.0032137 0 0.00194947)
(-0.00269561 0 0.00199431)
(-0.0022147 0 0.00197857)
(-0.00180467 0 0.00199591)
(-0.0014204 0 0.00185072)
(-0.00109668 0 0.00164713)
(-0.000845782 0 0.00162977)
(-0.000636047 0 0.00175276)
(-0.000377081 0 0.00137689)
(-0.000169387 0 0.000892755)
(-0.016202 0 0.00109965)
(-0.0298696 0 0.00150352)
(-0.0147242 0 0.00375868)
(-0.00126048 0 0.00523605)
(-0.00109899 0 0.0036459)
(-0.000949933 0 0.00285086)
(-0.000767083 0 0.00346975)
(-0.000621227 0 0.00362739)
(-0.00047281 0 0.00329964)
(-0.000352739 0 0.00319688)
(-0.000251695 0 0.00313857)
(-0.000165173 0 0.00307777)
(-8.82965e-05 0 0.00301314)
(-3.75923e-05 0 0.00296631)
(-0.00403945 0 0.00245429)
(-0.00478824 0 0.00233815)
(-0.0063738 0 0.00237917)
(-0.00851978 0 0.00238174)
(-0.0108203 0 0.00196338)
(-0.0140735 0 0.00128231)
(-0.00340878 0 0.00251486)
(-0.00281195 0 0.00250027)
(-0.00229499 0 0.00252879)
(-0.00181059 0 0.00235067)
(-0.00140312 0 0.00209525)
(-0.00108637 0 0.00207918)
(-0.000820127 0 0.00224041)
(-0.000489095 0 0.00176458)
(-0.000222383 0 0.00114847)
(-0.0182348 0 0.00141507)
(-0.0339502 0 0.00183229)
(-0.0169408 0 0.00399635)
(-0.00147681 0 0.00552907)
(-0.00126407 0 0.00393795)
(-0.00107364 0 0.00310526)
(-0.000900778 0 0.00375712)
(-0.000724404 0 0.00392138)
(-0.000570164 0 0.00355271)
(-0.000443773 0 0.00343224)
(-0.00031797 0 0.00336419)
(-0.000222278 0 0.0032688)
(-0.000128124 0 0.00317565)
(-5.38639e-05 0 0.00310509)
(-0.00353658 0 0.0031481)
(-0.00429145 0 0.00315481)
(-0.00583904 0 0.00347265)
(-0.00795788 0 0.0038881)
(-0.0102938 0 0.00386318)
(-0.0136185 0 0.00379369)
(-0.0170752 0 0.00309403)
(-0.0217618 0 0.0019861)
(-0.00290458 0 0.00319061)
(-0.00230104 0 0.00297106)
(-0.00178639 0 0.00265305)
(-0.00138725 0 0.00264152)
(-0.00105201 0 0.00285182)
(-0.000631108 0 0.00225204)
(-0.000290242 0 0.00147161)
(-0.0201452 0 0.0018143)
(-0.0378301 0 0.00223042)
(-0.0191328 0 0.00421811)
(-0.00177738 0 0.0057716)
(-0.00147429 0 0.00423927)
(-0.00121598 0 0.00340068)
(-0.00102547 0 0.00407226)
(-0.000828565 0 0.00424556)
(-0.000679785 0 0.00385348)
(-0.000527049 0 0.00371014)
(-0.00038405 0 0.0036222)
(-0.000274099 0 0.00350523)
(-0.00016225 0 0.00340325)
(-7.1744e-05 0 0.00330295)
(-0.00289686 0 0.00374169)
(-0.00365977 0 0.00400456)
(-0.00511798 0 0.00445476)
(-0.00713822 0 0.00524478)
(-0.0094352 0 0.00563798)
(-0.012721 0 0.00619164)
(-0.0162424 0 0.00608413)
(-0.0210487 0 0.00586038)
(-0.0260188 0 0.00472808)
(-0.0326388 0 0.00300773)
(-0.0022636 0 0.00334556)
(-0.00176594 0 0.0033396)
(-0.00134262 0 0.00361355)
(-0.000809828 0 0.00286203)
(-0.000376959 0 0.00187771)
(-0.0219017 0 0.00231668)
(-0.0414301 0 0.00270761)
(-0.0212772 0 0.00445419)
(-0.00221472 0 0.00598324)
(-0.00178429 0 0.00455019)
(-0.0014204 0 0.00374091)
(-0.00118892 0 0.0044116)
(-0.000958949 0 0.00459295)
(-0.000784382 0 0.00419179)
(-0.000613822 0 0.00403488)
(-0.000458383 0 0.0039345)
(-0.000314765 0 0.00378716)
(-0.000195017 0 0.00366131)
(-9.1034e-05 0 0.00354917)
(-0.00222704 0 0.0042071)
(-0.00285574 0 0.0041968)
(-0.00420009 0 0.00529575)
(-0.00609753 0 0.0066647)
(-0.00828001 0 0.00723228)
(-0.0114168 0 0.00834432)
(-0.0148885 0 0.00887133)
(-0.0196468 0 0.00955476)
(-0.0247245 0 0.00928345)
(-0.0315281 0 0.00883136)
(-0.0384556 0 0.00708241)
(-0.0477244 0 0.00448462)
(-0.00170552 0 0.0045598)
(-0.00103581 0 0.00361981)
(-0.000487472 0 0.00238525)
(-0.0234616 0 0.00294585)
(-0.0446925 0 0.00327548)
(-0.023315 0 0.00474297)
(-0.00282308 0 0.00622096)
(-0.00224902 0 0.00489341)
(-0.00174124 0 0.0041387)
(-0.00144143 0 0.00478293)
(-0.00115484 0 0.00496776)
(-0.000924152 0 0.00456639)
(-0.000718716 0 0.00440217)
(-0.00052943 0 0.00428458)
(-0.000357218 0 0.00411992)
(-0.000231223 0 0.00397839)