/*--------------------------------*- C++ -*----------------------------------*\
| =========                 |                                                 |
| \\      /  F ield         | OpenFOAM: The Open Source CFD Toolbox           |
|  \\    /   O peration     | Version:  5.x                                   |
|   \\  /    A nd           | Web:      www.OpenFOAM.org                      |
|    \\/     M anipulation  |                                                 |
\*---------------------------------------------------------------------------*/
FoamFile
{
    version     2.0;
    format      ascii;
    class       volScalarField;
    location    "2.5";
    object      alpha.water;
}
// * * * * * * * * * * * * * * * * * * * * * * * * * * * * * * * * * * * * * //

dimensions      [0 0 0 0 0 0 0];

internalField   nonuniform List<scalar> 
12160
(
1
1
1
1
1
1
1
1
1
1
1
1
1
1
1
1
1
1
1
1
1
1
1
1
1
1
1
1
1
1
1
1
1
1
0.999995
1
1
1
1
1
1
1
0.999998
0.992984
0.4912
1
1
1
1
1
1
1
0.994681
0.570296
0.0232435
1
1
1
1
1
1
1
0.997349
0.605234
0.0309529
0.000917286
1
1
1
1
1
1
0.999999
0.997514
0.654929
0.0350285
0.000675274
1.0838e-05
1
1
1
1
1
1
0.999997
0.997109
0.699724
0.0520031
0.000329973
5.25664e-06
5.90396e-09
1
1
1
1
1
1
0.999995
0.996551
0.743214
0.0745815
4.58621e-05
1.3556e-06
1.22837e-09
2.63178e-12
1
1
1
1
1
1
0.999993
0.996436
0.784961
0.104928
8.40668e-05
5.84645e-08
1.37593e-09
7.81878e-13
5.55633e-17
1
1
1
1
1
1
0.999993
0.996661
0.824757
0.139774
0.000628694
6.09248e-08
1.38301e-11
2.64035e-13
1.16862e-18
1
1
1
1
1
1
0.999994
0.997008
0.858747
0.17665
0.00223037
2.65173e-07
1.95573e-11
2.98607e-15
2.41551e-17
1
1
1
1
1
1
0.999996
0.997488
0.88718
0.218098
0.00453798
2.01162e-06
4.25577e-11
1.70427e-15
1.2938e-19
1
1
1
1
1
1
0.999998
0.99805
0.91154
0.266107
0.00802529
7.06488e-06
1.78915e-10
3.8507e-15
1.06088e-19
1
1
1
1
1
1
1
0.998668
0.932058
0.322132
0.0131102
1.37687e-05
6.19941e-10
1.26107e-14
2.23024e-19
1
1
1
1
1
1
1
0.99931
0.947911
0.385635
0.0209574
1.63709e-05
8.64378e-10
2.69508e-14
7.17485e-19
1
1
1
1
1
1
1
0.999863
0.958793
0.45129
0.032702
4.39128e-05
1.1181e-09
3.69321e-14
1.31231e-18
1
1
1
1
1
1
1
0.999996
0.965044
0.507523
0.0488233
0.000260545
8.93515e-09
6.41555e-14
1.61489e-18
1
1
1
1
1
1
1
0.999996
0.966336
0.543299
0.0666587
0.000858401
2.76234e-07
5.87839e-13
2.23872e-18
0.999999
0.999999
1
1
1
1
1
0.999938
0.962986
0.553111
0.0804099
0.00183247
2.21718e-06
2.39563e-11
2.67948e-17
1
1
0.999999
1
1
1
0.999998
0.99947
0.954094
0.534205
0.08558
0.00279612
7.94166e-06
5.16587e-10
8.61083e-16
1
1
1
1
1
1
0.999991
0.998159
0.934573
0.491024
0.0802513
0.00327591
1.68386e-05
3.88404e-09
2.07685e-14
1
1
1
1
1
1
0.999978
0.996427
0.906229
0.43786
0.0660272
0.0030935
2.29154e-05
1.22088e-08
1.82806e-13
1
1
1
1
1
1
0.99996
0.994441
0.878177
0.381798
0.0470546
0.00240614
2.33022e-05
1.74468e-08
6.99201e-13
1
0.999999
1
1
1
1
0.999939
0.992282
0.850321
0.322997
0.0306285
0.00167022
1.99794e-05
1.7997e-08
9.53944e-13
0.999999
0.999999
0.999999
1
1
1
0.999919
0.990054
0.822902
0.269188
0.0202197
0.00120134
1.34373e-05
1.79155e-08
9.56089e-13
0.999999
0.999999
0.999999
0.999999
1
1
0.999903
0.988007
0.796795
0.223461
0.0139086
0.000862989
8.98462e-06
1.67721e-08
1.75095e-12
1
1
0.999999
0.999999
0.999999
1
0.999894
0.986323
0.773409
0.186228
0.0100585
0.000632659
7.97264e-06
1.96961e-08
2.75184e-12
1
1
1
1
0.999999
0.999999
0.999895
0.985155
0.753996
0.159217
0.007763
0.000456967
8.22992e-06
3.29422e-08
5.20535e-12
1
1
1
1
1
1
0.999905
0.984712
0.739591
0.1405
0.00645991
0.000342713
7.5235e-06
5.05008e-08
1.15736e-11
1
1
1
1
1
1
0.99992
0.985045
0.731631
0.127847
0.00565978
0.000288421
5.77866e-06
5.25481e-08
1.89587e-11
1
1
1
1
1
1
0.999935
0.985866
0.730326
0.120188
0.00513309
0.000249635
4.58665e-06
4.01803e-08
1.74767e-11
1
1
1
1
1
1
0.999946
0.986742
0.733854
0.116524
0.00477821
0.000211393
3.31831e-06
3.32282e-08
1.11587e-11
1
1
1
1
1
1
0.999955
0.987156
0.737693
0.115358
0.00452326
0.00017468
2.02608e-06
2.38326e-08
8.93965e-12
1
1
1
1
1
1
0.999958
0.987334
0.736332
0.114543
0.00433754
0.000132389
1.34347e-06
1.14715e-08
5.91264e-12
1
1
1
1
1
1
0.999943
0.987378
0.728773
0.112581
0.004207
7.67992e-05
1.0072e-06
4.61777e-09
2.27383e-12
1
1
1
1
1
1
0.999905
0.986473
0.717348
0.111749
0.00407229
3.61055e-05
6.00513e-07
2.01173e-09
6.62591e-13
1
1
1
1
1
1
0.999849
0.985226
0.707941
0.116355
0.00425558
2.14417e-05
2.81058e-07
7.53994e-10
1.7137e-13
1
1
1
1
1
1
0.999777
0.984238
0.703345
0.12345
0.00487923
2.15246e-05
1.25508e-07
2.21278e-10
3.13471e-14
0.999999
1
1
1
1
1
0.999691
0.983541
0.701257
0.130738
0.0056992
4.48659e-05
6.34171e-08
6.35641e-11
5.38653e-15
0.999596
0.999999
1
1
1
1
1
0.982886
0.699423
0.135695
0.00634494
6.64469e-05
5.71991e-08
2.02719e-11
1.422e-15
0.982278
0.999441
0.999997
1
1
1
1
1
0.697
0.137896
0.00660292
7.71784e-05
1.16627e-07
1.28218e-11
5.3486e-16
0.693208
0.981487
0.999189
0.999996
1
1
1
1
1
0.138287
0.00657281
7.58901e-05
1.67448e-07
2.68669e-11
8.27851e-16
0.137363
0.683776
0.979182
0.998914
0.99999
1
1
1
1
1
0.0063997
6.78635e-05
1.59274e-07
5.44819e-11
1.81033e-15
0.00622025
0.133803
0.665868
0.97553
0.998319
0.999971
0.999997
1
1
1
1
5.92287e-05
1.20876e-07
5.59306e-11
3.8849e-15
5.39741e-05
0.00595694
0.128111
0.643055
0.969989
0.997214
0.999568
0.999933
0.999997
1
1
1
8.83728e-08
3.69629e-11
4.59998e-15
7.17079e-08
5.02661e-05
0.00602431
0.121816
0.621804
0.963059
0.990932
0.997586
0.999837
0.999999
0.999999
1
0.999999
1
2.22559e-11
3.43137e-15
1.45632e-11
6.52922e-08
6.77315e-05
0.00683662
0.118857
0.598772
0.949903
0.97526
0.996894
0.999985
0.999999
1
1
0.999986
0.999995
0.999999
2.26931e-15
1.50152e-15
1.46269e-11
3.1497e-07
0.000328187
0.00896282
0.112201
0.570448
0.908459
0.968136
0.999488
0.999998
1
1
0.999998
0.999941
0.999968
0.999991
0.999999
9.8791e-15
6.73365e-09
3.65982e-05
0.00150886
0.00961411
0.0998957
0.540109
0.824861
0.986185
0.999987
1
1
1
0.999995
0.999936
0.999864
0.999962
0.999991
0.999999
5.26256e-11
3.41003e-06
0.000446434
0.00208014
0.00859803
0.0931371
0.489754
0.816656
0.997562
1
1
1
1
0.999998
0.99997
0.999661
0.999866
0.999983
0.999998
1
7.98772e-08
9.21878e-05
0.000812127
0.00146768
0.00744769
0.108607
0.310356
0.897671
1
1
1
1
1
1
0.999978
0.99957
0.999529
0.999959
0.999998
1
1
5.65757e-06
0.000222857
0.000463737
0.000368103
0.00695194
0.0596299
0.239862
0.973677
1
1
1
1
1
1
0.999966
0.999434
0.999965
0.999998
0.999997
0.998592
0.999786
0.999995
1
1
0.999999
2.03956e-05
0.000142639
8.19703e-05
0.000118406
0.00506088
0.0138494
0.517739
0.999998
1
1
1
1
1
0.999998
0.999748
0.999983
0.997686
0.99974
0.999511
0.999486
0.999989
0.99999
0.999994
0.998451
0.999969
0.999996
0.999995
0.999999
0.999996
9.4971e-06
3.19136e-05
1.83446e-05
8.23447e-05
0.000772463
0.00494026
0.836512
1
1
1
1
1
0.999995
0.999989
0.999958
0.999999
0.999999
0.999908
1
0.997238
0.998287
0.999904
0.999621
0.999613
0.99998
1
0.999831
0.999873
0.999975
0.999893
0.999931
0.999995
0.999993
1.05868e-06
8.89658e-06
5.384e-06
1.6203e-05
0.000123565
0.0320604
0.971011
1
1
1
1
0.999999
0.999999
0.999996
0.999999
1
0.999908
0.999916
0.999974
0.999965
0.999998
1
0.999986
1
0.999821
0.99914
0.997238
0.998649
0.998576
0.998824
0.998789
0.999998
0.999933
0.999922
1
0.999607
1
0.999331
1
1
1
0.999993
0.999981
0.99987
0.999997
0.999832
0.999967
0.999435
0.999174
0.999686
0.999976
0.999993
1.76392e-07
2.83793e-06
1.33608e-06
1.31672e-06
1.23236e-05
0.127221
0.994784
1
1
1
1
1
1
1
1
0.999983
0.999998
0.999984
0.999992
0.999903
0.999984
1
0.999918
1
1
0.99982
0.999787
1
0.999926
1
1
0.999976
1
0.999964
1
0.99997
1
0.99996
1
1
1
1
0.999926
1
0.999614
1
0.999516
0.999878
0.997351
0.997374
0.997313
0.997508
0.997422
0.998846
0.999215
0.999667
0.99978
1
1
1
0.999939
1
1
1
0.999689
1
0.999994
1
0.999709
1
0.999475
1
0.999332
1
0.999937
0.999999
0.999761
0.999513
0.997174
0.997572
0.999357
0.999904
0.999991
2.92193e-08
8.72751e-07
5.68479e-07
1.58331e-07
6.62898e-06
0.282014
0.993383
0.999999
1
1
1
1
1
1
0.999998
1
0.999999
1
0.999986
1
0.999986
1
0.999999
1
0.999999
1
0.99999
1
0.999988
1
0.999995
1
0.999993
1
1
0.999913
1
1
0.999922
1
0.999789
0.999825
1
1
0.999942
1
0.999984
1
0.99997
1
0.999972
1
0.999956
1
1
0.999923
1
0.999824
1
0.999382
1
0.999389
0.999884
0.999553
0.997332
0.997296
0.997293
0.99727
0.997233
0.997228
0.997235
0.997851
0.999133
1
0.999152
1
0.999138
1
0.999137
1
0.999865
0.999832
1
0.999607
1
1
0.999877
0.999821
1
0.99918
1
1
1
0.999833
1
0.999722
1
0.9996
1
0.999572
1
0.99949
1
0.999509
1
0.999958
1
0.99983
0.997778
0.995892
0.99643
0.99921
0.99964
0.999982
1.00047e-09
3.62917e-07
1.05822e-07
1.49128e-08
1.13233e-05
0.26648
0.977979
0.99922
0.999895
1
1
1
1
1
1
1
1
0.999999
1
0.999999
1
1
1
1
1
0.999999
1
0.999999
1
1
1
1
1
0.999992
1
0.999987
1
1
1
0.999999
1
0.999991
1
0.999992
1
0.999996
1
0.999994
1
1
0.99987
1
0.999685
0.999624
0.999918
0.999257
0.999236
0.998867
0.998812
0.997284
0.997296
0.997233
0.997226
0.997329
0.997671
0.997553
0.998478
0.997618
0.99913
0.997737
0.999237
0.998017
0.999616
0.997874
0.999594
0.998577
1
0.998337
1
0.999266
1
0.99924
1
0.999148
1
0.999147
1
0.99989
0.999875
1
1
0.999411
1
0.999831
0.999729
1
1
0.999147
1
1
0.999762
1
0.999612
1
0.999554
1
0.999503
0.996037
0.995889
0.997313
0.998785
0.999199
0.999979
3.39691e-11
6.43015e-08
3.48188e-09
1.46029e-08
2.68076e-05
0.130787
0.840771
0.977453
1
1
1
1
1
1
1
1
1
0.999999
1
0.999999
1
1
1
1
1
1
1
0.999999
1
1
1
1
1
1
1
0.999998
1
0.999556
0.999918
0.999912
0.999894
0.999783
0.999781
0.998744
0.998737
0.998132
0.99815
0.997239
0.997386
0.997218
0.997212
0.997226
0.997344
0.997221
0.997217
0.997226
0.99743
0.997221
0.997218
0.997431
0.998434
0.997226
0.997221
0.997576
0.998486
0.997743
0.99931
0.998017
0.999948
0.998005
0.999957
0.998612
1
0.998165
1
0.998946
1
0.998472
1
0.997423
0.996805
0.998718
0.997346
0.998901
0.999984
3.97378e-12
1.25122e-09
2.00659e-09
2.22925e-08
1.62842e-05
0.0364037
0.533062
0.908154
0.999604
0.999599
0.985867
0.985742
1
1
0.999998
0.999997
1
1
1
1
1
1
1
1
1
1
1
1
1
1
1
1
1
1
1
1
1
1
1
1
1
1
1
1
1
1
1
1
0.999702
0.999918
0.999793
0.999656
0.999617
0.999529
0.999482
0.99726
0.997261
0.997395
0.997377
0.99722
0.997214
0.997225
0.997209
0.997221
0.997217
0.997221
0.99721
0.997414
0.998226
0.997318
0.997722
0.997771
0.999567
0.997389
0.99843
0.997678
0.998883
0.998039
1
0.999468
0.999462
0.997924
0.995458
0.998855
0.999991
1.7106e-12
4.15075e-10
3.51392e-09
1.84148e-08
7.70673e-06
0.00564835
0.221668
0.703175
1
1
0.967112
0.967064
1
1
1
1
1
1
1
1
1
1
1
1
1
1
1
1
1
1
1
1
1
1
1
1
1
1
1
1
1
1
0.999827
0.999918
0.999898
0.999478
0.9994
0.999202
0.999223
0.998554
0.99853
0.997339
0.997424
0.998628
0.997496
0.999842
0.997236
0.998709
0.997472
0.999834
0.997295
0.997228
0.997228
0.997222
0.997228
0.997228
0.997228
0.997226
0.997233
0.997225
0.99722
0.997341
0.997806
0.997267
0.997221
0.997337
0.998435
0.997628
0.999035
0.997549
0.998771
0.997861
0.999904
0.997562
0.999528
0.999767
0.999785
0.996156
0.99348
0.999056
8.40585e-13
1.29911e-09
5.30431e-09
5.11662e-06
0.000405652
0.00871153
0.0661592
0.613485
0.613457
0.35732
0.356959
0.993302
1
0.973674
1
0.993164
1
0.973621
1
0.934655
0.935246
1
1
1
1
1
1
1
1
0.999237
1
0.999958
1
0.999197
1
0.999958
1
1
1
1
1
1
1
1
1
0.999523
0.999893
0.999917
0.999795
0.999391
0.999382
0.999347
0.999325
0.998864
0.998867
0.997806
1
1
0.997344
0.997743
1
1
0.997429
0.998949
0.99755
0.99974
0.997324
0.999098
0.997619
0.999776
0.997432
0.997826
0.997259
0.997227
0.997303
0.998051
0.997263
0.997223
0.997364
0.997261
0.997219
0.997271
0.997301
0.999785
0.999683
0.992092
0.99272
4.5155e-11
2.05544e-09
3.04452e-06
0.000545471
0.00967602
0.0696258
0.0358208
0.0357848
0.0944385
0.0943664
0.538651
0.539078
0.240341
0.240216
0.984795
1
0.955714
1
0.984693
1
0.955909
1
0.998599
0.714
0.90312
0.823407
0.999046
0.713067
0.903958
0.823065
1
1
1
1
1
1
1
1
1
1
0.999969
1
1
1
0.99997
1
0.99749
0.999088
0.99977
0.99974
0.999796
0.999792
0.999743
0.999802
0.99981
0.999811
0.999165
1
0.999175
1
0.999184
1
0.999194
1
0.998782
1
0.998268
1
0.997349
1
0.998743
1
0.998375
1
0.997442
1
0.997869
0.99998
0.997936
0.999984
0.999632
0.997729
0.999876
0.997532
0.999715
0.99776
0.999913
0.997626
0.999591
0.999268
0.987247
3.2198e-10
3.95483e-07
0.000276922
0.00701869
0.049504
0.209463
0.0874385
0.0870447
0.251767
0.2519
0.450272
0.682304
0.414909
0.338741
0.512834
0.922006
0.681995
0.449805
0.922696
0.414128
0.336898
0.512053
0.114188
0.184439
0.158238
0.22316
0.112689
0.185111
0.157343
0.223201
0.975499
1
0.954156
0.999979
0.975554
1
0.954525
0.999987
0.993822
0.743055
0.994405
0.74252
1
0.999987
1
0.999986
0.991326
1
0.991109
1
0.983586
0.968263
0.998892
0.999507
0.999166
0.999189
0.999668
0.999697
0.999607
0.999622
0.99967
0.999693
1
0.999293
1
0.999502
1
0.999184
1
0.999338
1
0.999533
1
0.999204
0.999214
1
0.999257
1
0.998968
1
0.998787
0.99814
1
0.999999
0.998965
1
0.99883
0.998177
1
1
0.998168
0.999985
0.998212
0.999991
0.999808
0.99898
5.80093e-09
3.89062e-05
0.00224459
0.0150057
0.0697845
0.255244
0.255061
0.1624
0.162831
0.167824
0.16854
0.316678
0.316866
0.585633
0.322576
0.293117
0.65764
0.217451
0.338113
0.585658
0.32093
0.657894
0.293322
0.214785
0.337033
0.0896515
0.114972
0.141741
0.23719
0.0893295
0.116597
0.139917
0.237168
0.871414
1
0.871362
1
0.993141
0.803194
0.880449
0.998123
0.999063
0.999076
0.999118
0.999192
0.99932
0.997876
1
0.99827
1
0.997924
1
0.998428
1
0.998795
0.999041
1
0.998723
1
1
0.998929
0.999092
1
0.998763
1
1
0.999999
0.999998
0.999422
0.999453
1
0.999999
0.999484
0.999446
0.999379
0.999998
0.999353
0.999999
0.999292
0.999999
0.998759
0.999999
0.999179
0.999999
0.998694
1
0.999804
9.58793e-07
0.000283549
0.00336963
0.0130695
0.0586878
0.280803
0.280852
0.211417
0.21229
0.441712
0.10603
0.12644
0.150054
0.442166
0.104581
0.134567
0.147891
0.35029
0.350098
0.0895547
0.0643617
0.121532
0.147873
0.0892252
0.0643016
0.120388
0.146824
0.996231
0.907914
0.416354
0.798432
0.995237
0.998185
0.998171
0.998938
0.998989
0.999063
0.999004
0.99891
0.998982
0.997876
1
0.998142
1
0.997921
1
0.998265
1
0.999048
0.998514
1
1
0.998275
1
0.999097
0.998653
1
1
0.998407
1
0.999998
0.999541
0.999999
0.999536
9.65443e-06
0.000416271
0.00276908
0.0111304
0.0713916
0.0714596
0.0170106
0.0170106
0.309084
0.309713
0.229454
0.230041
0.442166
0.195381
0.32731
0.246157
0.442613
0.19123
0.346824
0.244322
0.267983
0.460333
0.268084
0.460438
0.26689
0.460174
0.266931
0.460333
0.126751
0.186192
0.121719
0.170889
0.980065
0.663191
0.3781
0.798358
0.982159
0.998695
0.998619
0.998987
0.998979
0.998782
0.9988
1
0.997705
1
0.99724
1
0.997761
1
0.99725
0.997889
1
0.997787
1
0.997919
1
0.997891
1
1.57003e-05
0.00032949
0.00117715
0.0169123
0.0749797
0.0746086
0.0300331
0.0302559
0.303078
0.460438
0.426332
0.300606
0.457898
0.261016
0.302971
0.460333
0.42903
0.300204
0.457654
0.261375
0.239166
0.23881
0.437935
0.249206
0.461079
0.28728
0.443063
0.243048
0.461014
0.285008
0.315926
0.460612
0.315967
0.460451
0.958669
0.523161
0.377504
0.850375
0.895777
0.89439
0.985608
0.985575
0.998981
0.998766
0.99938
0.999357
0.997697
1
0.997697
1
0.99724
1
0.997616
1
0.997615
1
0.99725
1
0.997718
1
0.997713
0.999999
0.997663
1
0.997641
0.999999
8.23995e-06
9.55185e-05
0.00090411
0.0264489
0.0267529
0.00725986
0.00733215
0.0590616
0.0585019
0.0467532
0.0476848
0.296223
0.457198
0.454641
0.288973
0.458166
0.283183
0.295569
0.456942
0.454325
0.288702
0.457898
0.282922
0.117728
0.219918
0.233396
0.456251
0.11676
0.218142
0.232702
0.45598
0.950693
0.645618
0.478197
0.816631
0.915571
0.914077
0.958325
0.958062
0.995303
0.995087
0.997697
1
0.999973
0.99895
0.999999
0.999509
0.999984
0.99886
0.999999
0.999456
0.997615
1
0.997795
0.997712
0.999998
0.999997
0.997759
0.99767
0.999993
0.999985
0.997645
1
0.997626
0.999986
2.84798e-06
5.87947e-06
0.00289773
0.0261209
0.0262019
0.0084144
0.00846253
0.153277
0.30007
0.0622945
0.0425211
0.103269
0.0378987
0.152921
0.297545
0.0637305
0.0419045
0.103071
0.0392785
0.0691365
0.0696708
0.457805
0.280913
0.457542
0.280688
0.201897
0.400193
0.20159
0.399746
0.971593
0.894551
0.865214
0.676123
0.674835
0.892169
0.881122
0.905444
0.901832
0.924593
0.923423
0.947682
0.999922
0.994121
0.999922
0.999754
0.999991
0.94503
0.999722
0.999991
0.999922
0.994129
0.999923
0.998592
0.999999
0.999385
0.999985
0.999308
0.998518
0.999985
0.999998
9.96545e-08
3.98172e-05
0.00370136
0.011331
0.0114722
0.00636952
0.00636171
0.102881
0.179492
0.126985
0.0335382
0.0577504
0.0403472
0.102254
0.179775
0.131338
0.0347915
0.0603367
0.0425272
0.0314255
0.0309873
0.0561669
0.140797
0.0309448
0.0310418
0.0556799
0.139823
0.150524
0.130024
0.150761
0.130046
0.994885
0.974687
0.925174
0.772833
0.748741
0.895833
0.882424
0.900304
0.895427
0.932894
0.999921
0.989572
0.823179
0.993157
0.803493
0.931313
0.999922
0.98875
0.818824
0.992174
0.799357
0.975196
0.999922
0.999912
0.999923
0.999923
0.999923
0.974546
0.999912
9.94963e-07
0.000701471
0.000292642
0.00401759
0.00398485
0.000268949
9.49453e-06
7.2518e-06
0.00497042
0.0277337
0.0236343
0.00488302
0.0274189
0.0235892
0.0491182
0.0311677
0.161047
0.0342348
0.104942
0.0516294
0.0487264
0.0311677
0.161129
0.0365502
0.113864
0.0538003
0.0574545
0.095762
0.0576749
0.0946153
0.998198
0.993676
0.953091
0.800684
0.795199
0.913645
0.893086
0.884971
0.989489
0.839511
0.969255
0.80349
0.95771
0.879133
0.799341
0.955346
0.989522
0.836933
0.967581
0.900725
0.998752
0.827834
0.973728
0.898143
0.998633
0.82418
0.971804
0.948296
0.999912
0.946897
0.999911
0.000215445
5.81272e-06
0.000310059
6.69473e-06
0.000290846
6.06414e-06
6.14589e-06
4.4023e-06
0.000387087
0.00688373
0.00673252
0.0112443
0.00836373
0.000229923
0.000240222
6.18294e-05
0.00681523
0.000364612
0.00661227
0.0109895
0.00811617
0.000221969
0.000224745
6.28666e-05
0.158975
0.0542438
0.161047
0.0562332
0.0393029
0.0249064
0.038437
0.0246853
0.997901
0.99525
0.983153
0.857937
0.854411
0.985728
0.925483
0.93411
0.926082
0.916303
0.989572
0.909572
0.906512
0.989605
0.834663
0.881688
0.947707
0.974597
0.829321
0.944451
0.879852
0.973537
0.845138
0.996229
0.813282
0.965896
0.842079
0.995791
0.809601
0.963667
1.9694e-06
1.73126e-07
3.49879e-06
1.25548e-05
9.10194e-06
1.13946e-06
3.59921e-06
1.27825e-05
8.70621e-06
8.92119e-07
5.1421e-06
3.51722e-06
0.00231225
2.97654e-06
0.0173119
0.016061
0.00226976
4.06969e-05
0.00232546
0.0170523
4.2789e-06
0.0162134
0.00226975
4.4473e-05
0.103298
0.0602871
0.116249
0.0618174
0.993762
0.995258
0.993065
0.90024
0.901778
0.994665
0.964674
0.970728
0.91315
0.922809
0.990931
0.921666
0.990844
0.994582
0.866942
0.994977
0.894351
0.91287
0.990844
0.911356
0.990665
0.994977
0.847029
0.995079
0.856322
0.903346
0.966081
0.986431
0.850144
0.963871
0.901715
0.985544
5.35406e-09
1.16154e-06
7.80108e-07
8.00568e-07
1.10432e-06
1.73827e-07
1.68743e-07
1.99113e-07
1.47737e-05
2.28765e-06
4.55077e-06
2.56394e-06
1.39535e-07
1.18568e-07
2.08501e-07
7.60658e-07
1.18568e-07
1.56781e-07
2.05313e-07
1.58449e-05
4.07014e-06
5.60264e-06
3.7291e-06
1.39507e-07
1.41438e-07
2.74995e-07
6.16452e-07
1.18572e-07
1.40154e-07
0.000689975
2.91574e-06
0.000657796
2.85761e-05
0.000761992
4.18984e-06
0.000674515
3.26168e-05
0.992154
0.992897
0.997348
0.930641
0.995079
0.868537
0.934484
0.995174
0.848604
0.997702
0.991102
0.992427
0.913045
0.904957
0.920431
0.990566
0.991088
0.99001
0.904199
0.88928
0.917523
0.990524
0.989987
0.989858
0.884621
0.980622
0.879018
0.978569
1.27637e-08
1.39672e-06
3.38474e-06
1.07104e-06
2.75841e-06
6.63798e-07
6.52025e-07
2.82293e-06
4.00382e-07
5.09264e-07
1.91011e-05
1.1856e-07
1.5823e-07
1.18803e-07
1.65508e-07
1.63695e-06
3.0153e-07
9.36619e-07
1.48157e-06
1.81877e-07
1.80334e-06
3.30803e-06
4.47672e-07
2.28341e-05
5.89276e-07
1.1857e-07
1.32031e-07
1.20126e-07
1.18577e-07
1.17008e-06
1.97487e-07
6.34467e-07
9.84562e-07
1.2584e-07
1.274e-06
0.997835
0.989885
0.998026
0.99825
0.989031
0.995562
0.996006
0.95298
0.995174
0.893121
0.99527
0.866887
0.999648
0.92495
0.997246
0.955922
0.99527
0.888934
0.995357
0.859436
0.999648
0.927299
0.998092
0.99537
0.962687
0.999419
0.995283
0.958802
0.998865
0.905468
0.903834
0.992998
0.991579
0.8908
0.889464
0.992534
0.991644
1.64827e-07
7.65849e-06
2.11445e-06
7.77431e-07
5.94725e-06
5.39787e-06
1.53133e-06
4.98769e-07
4.25072e-06
1.28371e-06
1.26609e-06
1.1856e-07
1.18556e-07
1.1856e-07
4.83019e-07
1.18796e-07
1.28413e-07
1.18562e-07
6.90894e-07
1.67839e-06
1.52739e-06
1.18565e-07
1.18562e-07
1.18568e-07
3.31969e-07
1.18577e-07
1.18569e-07
1.18591e-07
6.04777e-07
1.58405e-06
1.2492e-06
0.996548
0.986356
0.998936
0.999027
0.986683
0.997263
0.997414
0.903726
0.905332
0.991506
0.993191
0.937903
0.996765
0.891215
0.90725
0.991749
0.995446
0.937458
0.996793
0.995984
0.981602
0.999941
0.969692
0.999839
1
0.99937
1
0.996637
0.979468
0.999411
0.964016
0.999078
1
0.999613
1
3.66915e-07
1.44751e-06
1.42696e-06
2.08266e-05
2.10511e-06
5.93474e-06
3.59688e-06
2.91518e-06
6.95976e-06
1.44024e-05
1.53901e-06
3.79233e-06
3.05241e-06
1.76705e-06
4.80535e-06
1.18568e-07
1.18803e-07
5.44528e-07
7.99581e-07
1.57415e-06
1.24113e-06
1.18569e-07
1.18577e-07
1.83161e-07
6.52725e-07
1.57757e-06
1.35839e-06
0.996092
0.986158
0.998981
1
0.999192
0.999078
1
0.999518
0.986433
0.99528
0.995305
0.908287
0.996211
0.954075
0.999098
0.909736
0.997798
0.951383
0.997809
0.988072
0.99646
0.966008
0.999941
0.999724
0.999969
0.987956
0.997151
0.962978
0.998223
0.999602
0.999968
1.11093e-15
1.49264e-06
5.28332e-07
1.45499e-06
5.1349e-07
3.04745e-05
2.02775e-05
9.30369e-06
6.90561e-06
8.1396e-06
9.27984e-07
2.62771e-06
4.92821e-06
2.05686e-05
1.51742e-05
5.9524e-06
6.40688e-06
5.77623e-06
4.51472e-07
1.9576e-06
3.37218e-06
1.1881e-07
1.53344e-06
1.18591e-07
1.56153e-06
0.996399
0.98545
0.98545
0.998685
1
0.998442
0.999982
0.998578
0.998541
0.999999
0.998611
0.99998
0.998976
0.991346
0.991086
0.989849
0.980817
0.996097
0.999959
0.999884
0.99995
0.990318
0.979415
0.996521
0.998444
0.999898
0.999946
1.08055e-36
-2.34549e-34
9.55843e-16
-4.85847e-35
8.2157e-16
6.64481e-07
5.27395e-07
2.22805e-05
3.04225e-05
1.2367e-05
2.94446e-05
1.1754e-05
5.7481e-06
7.86945e-07
4.15431e-06
5.53782e-07
1.18817e-07
1.81188e-06
1.6557e-05
1.87348e-05
7.19663e-06
1.90505e-05
7.36772e-06
4.81285e-06
4.96194e-07
3.01044e-06
4.19207e-07
1.18595e-07
1.68811e-06
0.994897
0.98545
0.985616
0.98545
0.98545
0.99804
1
0.998604
1
0.998755
0.996064
0.999922
0.997662
0.999991
0.99847
0.999996
0.998341
0.996193
0.999906
0.986976
0.986684
0.993579
0.999956
0.993554
0.999957
6.75566e-17
2.11758e-17
-1.93927e-36
6.71078e-18
-5.58918e-50
1.72504e-33
2.50332e-13
-1.61679e-33
1.36237e-13
4.57904e-06
3.61009e-06
2.98041e-06
9.49079e-06
1.22106e-05
8.74923e-06
1.11521e-05
1.87531e-06
9.24749e-06
1.8263e-06
2.62976e-06
1.37639e-07
2.33848e-06
5.35362e-07
3.41427e-06
6.809e-06
1.19539e-05
6.37704e-06
7.54249e-06
7.25863e-07
6.6777e-06
9.33425e-07
3.20294e-06
1.18605e-07
2.25507e-06
1.88537e-07
0.993698
0.987411
0.989905
0.986343
0.989167
0.986586
0.985644
0.994527
0.999913
0.999115
0.999904
0.99871
0.999832
0.995636
0.999887
0.995319
0.994555
0.999956
0.994658
0.999872
0.998408
0.999852
0.998037
0.999773
0.995438
0.999852
0.994762
0.994325
0.999955
3.18379e-13
8.18599e-17
6.76425e-17
8.14254e-17
6.76425e-17
1.96787e-12
5.36145e-13
9.6118e-13
2.15372e-13
4.48683e-07
1.06599e-07
3.51599e-07
7.35038e-08
1.84541e-06
1.77433e-06
5.4562e-07
2.7559e-06
1.85423e-06
1.30595e-06
5.12065e-07
1.99474e-06
3.20748e-06
1.60486e-06
4.95589e-06
9.74216e-07
2.15098e-06
4.89858e-07
3.9103e-06
3.31349e-07
0.99559
0.9916
0.989718
0.991164
0.989446
0.989201
0.994047
0.988188
0.993395
0.988324
0.989573
1
0.999499
1
0.99961
0.999707
0.996415
0.999357
0.99482
0.999957
0.994196
0.999957
0.993362
1
0.998921
1
0.999193
0.999588
0.994809
0.999054
0.993717
0.999957
0.99383
0.999957
0.992831
2.59979e-11
2.46232e-10
2.13818e-14
1.57537e-16
5.62712e-15
1.00315e-16
2.46862e-09
1.5017e-11
1.30382e-09
5.13558e-12
1.75896e-08
2.67918e-07
2.22955e-07
4.41795e-08
7.82644e-08
3.71691e-08
7.24199e-08
5.99414e-08
2.23699e-08
1.93518e-07
2.20815e-07
3.22687e-08
7.49471e-08
2.00008e-08
5.51896e-08
3.31633e-08
1.06201e-06
3.85568e-07
2.36282e-07
5.43311e-07
1.03231e-06
3.05243e-07
2.0638e-07
3.07409e-07
0.99717
0.98888
0.993902
0.98888
0.993604
0.99686
0.996172
0.996419
0.995601
0.988807
0.995621
0.989224
0.995259
1
0.999049
1
0.999012
1
0.999542
1
0.999449
0.999853
0.997932
0.999777
0.998611
0.999673
0.996325
0.999482
0.997136
6.13396e-09
1.03514e-13
1.76279e-11
1.03507e-13
1.36496e-11
3.90733e-09
2.67567e-12
4.5284e-13
6.74202e-13
1.1505e-13
1.07749e-10
2.39029e-09
1.67817e-08
9.04506e-12
3.663e-11
4.046e-12
2.25942e-11
9.08732e-12
2.60666e-13
1.19779e-09
9.39621e-09
2.40814e-13
9.977e-12
1.9235e-13
7.64424e-12
2.83322e-12
2.62726e-09
6.05077e-08
2.35813e-08
6.08822e-09
2.25928e-08
6.21131e-09
1.95749e-08
1.49687e-08
1.9863e-09
4.02196e-08
1.96884e-08
3.44202e-09
8.61933e-09
2.11825e-09
1.28217e-08
6.22886e-09
0.994604
0.996796
0.997117
0.997035
0.997094
0.997236
0.998385
0.998298
0.998056
0.9979
1
0.999578
1
0.99957
1
0.999354
1
0.999407
1
0.999546
1
0.999461
1
0.999243
1
0.999271
0.99983
0.998997
0.999836
0.999205
0.999741
0.997962
0.999754
0.997926
2.68597e-07
1.37048e-11
1.05774e-08
1.36771e-11
9.92495e-09
3.90485e-13
6.64415e-12
2.34631e-13
4.07908e-12
3.32553e-12
7.17819e-12
3.74828e-12
1.55534e-11
3.21611e-12
2.62875e-12
4.2762e-13
5.16849e-13
1.32693e-12
2.31963e-12
4.02996e-13
5.14898e-12
4.39589e-13
8.2635e-13
8.43699e-14
1.88314e-13
1.5705e-13
1.04317e-09
6.24282e-10
7.38637e-09
1.59974e-11
6.35849e-11
4.97109e-12
2.42507e-11
4.37286e-12
4.78199e-10
2.2832e-10
4.82453e-09
4.28911e-12
1.79574e-11
1.91018e-13
5.18426e-12
8.27847e-13
0.991562
0.988854
0.994063
0.977685
0.993754
0.979779
0.999102
0.99965
0.998955
0.999593
1
0.999261
1
0.999216
1
0.999093
1
0.998973
1
0.999185
1
0.999095
1
0.999
1
0.998821
0.999747
0.998266
0.999704
0.998535
0.999744
0.998203
0.999809
0.998158
0.999701
0.997683
0.999631
0.998093
0.999703
0.997955
0.999783
0.99775
8.73074e-07
9.23626e-09
2.58321e-10
5.5123e-08
2.42989e-10
6.30973e-08
5.69651e-15
2.0154e-13
9.73704e-14
3.25723e-13
2.07798e-13
3.41963e-13
5.21706e-12
1.19333e-12
1.83675e-13
1.82369e-13
5.56723e-15
2.09826e-14
7.40099e-14
2.09477e-13
1.40878e-13
1.23074e-13
3.07388e-12
8.58831e-13
1.4101e-13
1.40931e-13
9.66535e-10
7.80314e-12
5.29805e-12
1.58482e-11
4.63545e-12
2.45395e-12
1.63772e-12
1.83971e-12
1.97699e-13
3.37238e-12
1.81615e-13
6.68376e-13
8.38131e-14
7.21072e-15
7.07561e-12
1.52012e-11
7.79213e-15
7.79213e-15
7.40666e-14
2.84067e-12
7.21072e-15
0.983756
0.909056
0.877013
0.811322
0.879997
0.806438
0.977968
0.937536
0.98768
0.952018
1
0.999451
1
0.999816
1
0.999881
1
0.999945
1
0.999393
1
0.999743
1
0.999935
1
0.999946
0.999957
0.998392
0.99994
0.998377
0.999962
0.998265
0.999974
0.998651
0.999961
0.998406
0.999937
0.998403
0.999966
0.998201
0.999974
0.998486
8.74941e-07
1.06477e-07
4.41669e-07
1.09191e-07
2.41051e-07
2.4021e-07
5.4888e-11
7.62404e-10
5.04818e-11
1.25266e-09
8.20665e-14
5.69651e-15
3.2772e-13
3.01051e-14
2.52067e-13
5.87943e-13
4.15091e-12
1.45551e-12
2.527e-13
2.5279e-13
5.56723e-15
5.56723e-15
1.85551e-13
1.41453e-13
1.55331e-13
2.05988e-12
1.92506e-12
7.83606e-13
1.84379e-13
2.07713e-13
1.15012e-11
4.79817e-12
7.91748e-12
1.07214e-11
5.12966e-12
1.1135e-12
1.23443e-12
1.09553e-12
6.62063e-14
2.19512e-12
1.33203e-14
4.65797e-13
1.354e-14
0.977139
0.731807
0.439115
0.746989
0.524298
0.774341
0.538868
0.934181
0.997145
0.986073
0.816446
0.980992
0.999431
0.789782
0.992338
0.833058
0.990986
0.999029
0.971244
0.992348
0.898881
0.988926
0.999722
0.848354
0.992411
0.907711
0.992338
0.999991
0.998344
0.999984
0.999004
0.999914
0.998892
0.999992
0.998349
0.999982
0.999023
0.999954
0.999471
0.999946
0.998168
0.999967
0.99878
0.999956
0.997996
0.999971
0.998555
1.64306e-06
1.08702e-06
1.08251e-06
1.07969e-06
1.08728e-06
1.72331e-09
1.35776e-08
1.86439e-09
5.78441e-09
2.63921e-08
1.78553e-10
2.59911e-12
3.65458e-11
1.99516e-11
1.8811e-10
1.69224e-11
1.02064e-10
1.69196e-11
2.28578e-10
9.03326e-12
5.27989e-11
2.48536e-11
2.73572e-10
2.15178e-11
1.6332e-10
2.14497e-11
5.69651e-15
5.80292e-14
2.58842e-12
2.074e-11
6.95834e-14
8.34569e-14
5.56723e-15
5.56723e-15
8.25152e-12
2.68239e-11
5.54619e-14
1.73799e-13
2.32069e-14
0.979327
0.739213
0.438403
0.414963
0.449886
0.412147
0.436102
0.654808
0.450502
0.68748
0.462833
0.977004
0.819868
0.921339
0.989511
0.686721
0.859471
0.620708
0.923693
0.631152
0.894329
0.990464
0.892279
0.995088
0.952509
0.783924
0.903624
0.67683
0.934362
0.716747
0.923748
0.999991
0.997497
0.99998
0.997145
0.998654
0.992823
0.999992
0.997489
0.999979
0.997592
0.999327
0.996316
7.27557e-07
1.77989e-06
1.374e-07
7.62405e-08
9.19228e-08
7.67585e-08
2.85769e-09
6.93044e-11
5.59623e-09
2.48596e-09
1.32824e-08
1.02482e-09
5.34224e-10
5.59975e-10
5.23785e-09
1.76529e-08
3.75606e-09
9.28254e-11
7.73246e-09
3.22405e-09
1.79523e-08
1.4076e-09
5.59975e-10
5.34224e-10
5.42882e-09
2.62588e-08
2.52592e-10
5.71693e-10
6.86248e-11
2.76585e-10
2.43753e-10
1.02956e-09
2.66753e-10
7.03506e-10
1.0867e-10
3.8122e-10
3.24393e-10
1.27229e-09
3.44222e-10
4.71179e-15
0.987321
0.877537
0.463936
0.557818
0.561253
0.539388
0.546201
0.742635
0.804595
0.707813
0.778851
0.87551
0.518316
0.871653
0.477032
0.886238
0.458068
0.916442
0.482467
0.875951
0.537465
0.869279
0.454085
0.881321
0.438875
0.914854
0.444572
0.94485
0.977431
0.517966
0.756651
0.518397
0.689193
0.971184
0.985815
0.552347
0.767727
0.554595
0.699319
1.14977e-05
7.32071e-07
1.05756e-07
7.78486e-07
1.05749e-07
4.71159e-07
7.31199e-08
6.88074e-07
1.04731e-07
7.27448e-07
3.95573e-09
6.76066e-08
3.00578e-09
3.20878e-08
2.58293e-07
1.21126e-07
5.31219e-08
3.16338e-07
3.12831e-07
2.08078e-07
5.85817e-09
9.92247e-08
4.36615e-09
4.75052e-08
3.72924e-07
1.55115e-07
9.49566e-08
4.54114e-07
4.47283e-07
2.7129e-07
5.4691e-12
2.48308e-09
3.25602e-09
2.77458e-09
3.79653e-09
2.44059e-14
0.996164
0.980704
0.82004
0.878225
0.867313
0.91087
0.856244
0.9085
0.779774
0.604
0.947245
0.821272
0.975019
0.917845
0.841843
0.983449
0.857841
0.982818
0.549447