/*--------------------------------*- C++ -*----------------------------------*\
| =========                 |                                                 |
| \\      /  F ield         | OpenFOAM: The Open Source CFD Toolbox           |
|  \\    /   O peration     | Version:  5.x                                   |
|   \\  /    A nd           | Web:      www.OpenFOAM.org                      |
|    \\/     M anipulation  |                                                 |
\*---------------------------------------------------------------------------*/
FoamFile
{
    version     2.0;
    format      ascii;
    class       surfaceScalarField;
    location    "2.5";
    object      alphaPhi10;
}
// * * * * * * * * * * * * * * * * * * * * * * * * * * * * * * * * * * * * * //

dimensions      [0 3 -1 0 0 0 0];

internalField   nonuniform List<scalar> 
30582
(
0.000117497
4.66075e-07
0.000114026
3.4706e-06
0.000117513
9.36073e-07
0.000106367
7.65846e-06
0.000113915
7.06782e-06
0.000117468
1.49358e-06
9.43649e-05
1.20026e-05
0.000106239
1.53353e-05
0.000113972
1.0564e-05
0.000116821
2.75965e-06
7.7591e-05
1.67739e-05
9.39396e-05
2.43015e-05
0.000106503
2.28037e-05
0.000112273
1.51124e-05
0.000116539
4.38983e-06
5.81964e-05
1.93946e-05
7.70742e-05
3.36393e-05
9.47254e-05
3.60793e-05
0.000104052
3.10247e-05
0.000112051
1.96002e-05
0.000114131
8.53351e-06
3.81847e-05
2.00117e-05
5.80103e-05
3.84585e-05
7.82558e-05
5.0109e-05
9.17764e-05
4.8355e-05
0.000104086
3.89892e-05
0.000106823
2.69077e-05
0.000113988
1.29439e-05
1.78264e-05
2.03584e-05
3.81483e-05
3.98737e-05
5.90252e-05
5.76891e-05
7.5644e-05
6.62414e-05
9.25557e-05
5.98855e-05
9.66877e-05
4.91245e-05
0.000107022
3.38736e-05
9.92552e-05
3.22309e-05
-1.91484e-06
1.97412e-05
1.78007e-05
4.07059e-05
3.88198e-05
6.00792e-05
5.74913e-05
7.58417e-05
7.75212e-05
8.12759e-05
8.54294e-05
7.11438e-05
9.78402e-05
5.83059e-05
8.58443e-05
4.5522e-05
1.12939e-05
-1.91611e-06
-2.005e-05
1.81352e-05
-2.0579e-06
3.95998e-05
1.81131e-05
6.14126e-05
3.79191e-05
7.96513e-05
5.98435e-05
9.35195e-05
7.30089e-05
9.36964e-05
8.73778e-05
8.16061e-05
7.82409e-05
6.49344e-05
1.15735e-05
1.44364e-05
-9.32174e-06
2.97813e-07
-3.54734e-05
1.54234e-05
-2.03761e-05
3.64534e-05
-2.30553e-06
6.00185e-05
1.73215e-05
8.20102e-05
3.98081e-05
9.96868e-05
5.77745e-05
0.000108754
7.56799e-05
0.000105394
7.00784e-05
8.9084e-05
2.24341e-05
1.61871e-05
-1.20133e-05
1.48921e-07
1.50077e-07
5.24689e-09
-4.75779e-05
1.21045e-05
-3.59618e-05
3.1009e-05
-2.11672e-05
5.53151e-05
-3.50628e-06
8.08462e-05
1.79436e-05
0.000103875
3.89626e-05
0.000118499
6.0639e-05
0.000123794
6.3822e-05
0.000110687
3.0368e-05
2.95612e-05
-1.767e-05
1.80078e-07
1.07013e-07
8.25937e-10
1.34694e-09
3.09771e-12
-5.62434e-05
8.66544e-06
-4.81939e-05
2.43367e-05
-3.71531e-05
4.69948e-05
-2.29682e-05
7.47771e-05
-4.2832e-06
0.000103073
1.71653e-05
0.000125672
4.10645e-05
0.000138072
5.39741e-05
0.000132284
3.83739e-05
4.10704e-05
-2.08735e-05
1.38374e-08
-8.75403e-10
9.63101e-10
4.81945e-10
7.18158e-13
-1.73526e-13
5.27908e-16
-6.13752e-05
5.1318e-06
-5.69483e-05
1.74199e-05
-4.95677e-05
3.67513e-05
-3.94323e-05
6.34588e-05
-2.49089e-05
9.54028e-05
-5.82937e-06
0.000126068
1.7153e-05
0.000149581
3.86769e-05
0.000151585
4.50574e-05
5.44863e-05
-2.16654e-05
6.04381e-08
-1.02494e-08
7.95015e-12
3.63175e-11
2.10662e-12
-1.62051e-13
-1.35031e-17
2.17798e-16
1.15078e-19
-6.30147e-05
1.63945e-06
-6.21908e-05
1.03743e-05
-5.82694e-05
2.61216e-05
-5.21821e-05
4.95012e-05
-4.20812e-05
8.06312e-05
-2.76634e-05
0.000117237
-8.61829e-06
0.000151836
1.72332e-05
0.000169048
4.52667e-05
7.11953e-05
-2.1247e-05
8.14215e-07
-7.86447e-08
1.4224e-11
3.05842e-12
1.78182e-14
-4.92367e-16
4.15557e-16
3.58284e-17
-6.552e-23
-1.07119e-22
-6.1271e-05
-1.74367e-06
-6.39776e-05
3.42621e-06
-6.35017e-05
1.56065e-05
-6.11914e-05
3.51308e-05
-5.50254e-05
6.24454e-05
-4.59005e-05
9.88682e-05
-3.26275e-05
0.000141243
-8.29687e-06
0.000175496
3.90823e-05
8.91405e-05
-1.99752e-05
2.50999e-06
-6.02491e-07
6.54386e-10
6.11232e-13
8.55002e-15
-1.91173e-16
1.85959e-18
5.48328e-18
5.21595e-20
-2.28395e-21
-5.5536e-05
-5.73504e-06
-6.24322e-05
-3.28902e-06
-6.56565e-05
5.58102e-06
-6.66089e-05
2.1024e-05
-6.38718e-05
4.39772e-05
-5.95104e-05
7.60553e-05
-5.20431e-05
0.000118282
-3.30784e-05
0.000164478
2.7414e-05
0.000110408
-1.87015e-05
5.08334e-06
-1.54645e-06
4.65391e-09
-1.41911e-11
2.69788e-14
4.59589e-17
1.89839e-18
6.35354e-20
3.93331e-22
-7.35916e-24
-4.49951e-05
-1.05408e-05
-5.68947e-05
-1.12725e-05
-6.44837e-05
-4.46181e-06
-6.87071e-05
7.67924e-06
-6.91215e-05
2.62737e-05
-6.85926e-05
5.30594e-05
-6.60014e-05
9.00124e-05
-5.34238e-05
0.000137545
1.28112e-05
0.000118788
-1.86046e-05
8.39536e-06
-2.89949e-06
1.67739e-08
-1.77876e-10
2.78433e-13
1.23819e-15
4.08855e-18
1.73638e-20
1.99285e-22
-2.44291e-24
-2.90766e-05
-1.59185e-05
-4.65943e-05
-2.08412e-05
-5.95092e-05
-1.62471e-05
-6.79796e-05
-5.1893e-06
-7.15923e-05
1.01501e-05
-7.37849e-05
3.1466e-05
-7.4852e-05
6.19096e-05
-6.79182e-05
0.000103858
-1.19862e-06
0.000110519
-1.93611e-05
1.1489e-05
-4.34634e-06
3.54859e-08
-5.17137e-10
1.59439e-12
8.19914e-15
1.28562e-17
4.83757e-23
4.27515e-22
-4.61358e-25
-7.45361e-06
-2.1623e-05
-3.08002e-05
-3.17127e-05
-4.96644e-05
-3.0686e-05
-6.37037e-05
-2.0523e-05
-7.2e-05
-4.78158e-06
-7.61979e-05
1.25631e-05
-7.93582e-05
3.59722e-05
-7.71423e-05
7.0803e-05
-1.35695e-05
9.14551e-05
-1.93675e-05
1.30026e-05
-5.66189e-06
5.5297e-08
-1.89579e-10
2.13236e-12
3.84854e-14
3.81399e-17
-1.49915e-19
1.08391e-21
2.50997e-24
1.96372e-05
-2.70909e-05
-9.18671e-06
-4.32365e-05
-3.41965e-05
-4.71806e-05
-5.47154e-05
-3.96743e-05
-6.89053e-05
-2.36177e-05
-7.67457e-05
-4.23383e-06
-8.16251e-05
1.483e-05
-8.25129e-05
4.11981e-05
-2.38069e-05
6.74189e-05
-1.7625e-05
1.27065e-05
-6.89483e-06
8.02549e-08
9.80804e-11
1.35526e-12
5.355e-14
3.66371e-17
-5.12133e-19
2.0264e-21
1.564e-23
5.13727e-05
-3.17354e-05
1.80674e-05
-5.4345e-05
-1.26753e-05
-6.47577e-05
-3.97905e-05
-6.21056e-05
-6.08325e-05
-4.77471e-05
-7.54092e-05
-2.49542e-05
-8.45648e-05
-1.29411e-06
-8.68499e-05
1.91388e-05
-3.40547e-05
4.4457e-05
-1.52208e-05
1.10534e-05
-7.70811e-06
7.36869e-08
-2.67847e-09
8.3021e-12
5.855e-14
4.3282e-17
-9.31205e-19
1.89701e-21
4.07133e-23
8.64287e-05
-3.5056e-05
5.016e-05
-6.38279e-05
1.4813e-05
-8.18333e-05
-1.83066e-05
-8.62415e-05
-4.66726e-05
-7.62655e-05
-6.93797e-05
-5.37766e-05
-8.47294e-05
-2.47896e-05
-9.13984e-05
3.25435e-06
-4.47905e-05
2.65501e-05
-1.4957e-05
9.0223e-06
-7.80263e-06
4.89388e-08
-3.98002e-08
1.71716e-10
6.85019e-13
4.05729e-16
-9.56516e-19
2.30871e-21
5.02927e-23
0.000123079
-3.66502e-05
8.57168e-05
-7.06129e-05
4.75951e-05
-9.661e-05
9.76207e-06
-0.000109902
-2.56017e-05
-0.000107312
-5.65703e-05
-8.90748e-05
-7.98549e-05
-5.86511e-05
-9.505e-05
-2.10752e-05
-5.5317e-05
1.25445e-05
-1.76251e-05
7.07027e-06
-7.60196e-06
1.01517e-07
-1.51055e-07
6.1311e-10
2.66006e-11
2.10324e-14
1.28034e-17
2.2132e-20
3.82385e-23
0.000159473
-3.63943e-05
0.000122972
-7.39052e-05
8.41908e-05
-0.000107209
4.37124e-05
-0.00013056
2.74866e-06
-0.000138252
-3.5827e-05
-0.000128055
-6.87514e-05
-0.000100178
-9.35458e-05
-5.98917e-05
-6.54548e-05
-8.35224e-06
-2.17336e-05
4.6126e-06
-7.79144e-06
2.56006e-07
-2.70438e-07
4.87701e-10
2.20767e-10
1.8725e-13
1.67913e-15
5.88189e-19
-2.28034e-22
0.000193903
-3.44301e-05
0.000159966
-7.33885e-05
0.00012267
-0.000112385
8.19446e-05
-0.000145441
3.80911e-05
-0.000165903
-6.52783e-06
-0.000167551
-4.93934e-05
-0.000147408
-8.3081e-05
-0.000109753
-7.08266e-05
-4.17755e-05
-2.35096e-05
-1.29626e-06
-8.65837e-06
3.69804e-07
-3.21415e-07
1.20467e-09
7.08187e-10
2.77485e-13
4.68788e-14
5.15625e-18
-4.45157e-20
0.00022499
-3.10871e-05
0.000194946
-6.94097e-05
0.000160916
-0.000111634
0.000122291
-0.000152731
7.85446e-05
-0.000185894
3.09241e-05
-0.000203355
-1.91486e-05
-0.000197776
-6.31392e-05
-0.000165065
-6.59484e-05
-8.54387e-05
-2.129e-05
-1.16523e-05
-9.43177e-06
1.8166e-07
-3.13015e-07
3.67809e-09
1.29878e-09
1.11561e-12
3.03637e-13
1.85224e-17
-9.07055e-19
0.000251798
-2.68079e-05
0.00022647
-6.26109e-05
0.000196989
-0.000105483
0.000162477
-0.00015182
0.000121599
-0.000195786
7.44282e-05
-0.000229398
2.10593e-05
-0.000243514
-3.13576e-05
-0.000225088
-4.61294e-05
-0.000134855
-1.64755e-05
-1.88068e-05
-7.8927e-06
-3.12642e-07
-3.56645e-07
5.72325e-09
1.8582e-09
2.13832e-12
7.20439e-13
1.13864e-16
-1.27291e-18
0.000273804
-2.20055e-05
0.000253595
-5.39333e-05
0.000229344
-9.49657e-05
0.000200281
-0.000143286
0.000164527
-0.000194747
0.000120956
-0.000242314
6.82787e-05
-0.000276529
1.10368e-05
-0.000278538
-1.65345e-05
-0.000177232
-8.03844e-06
-2.11807e-05
-4.69118e-06
-6.90381e-07
-3.81702e-07
1.9838e-09
2.54027e-09
3.40397e-12
9.4231e-13
1.01274e-16
1.10959e-17
0.000290802
-1.69987e-05
0.000275798
-4.42084e-05
0.000257027
-8.16166e-05
0.000234026
-0.000128711
0.000204678
-0.000183438
0.000167424
-0.000241215
0.000119244
-0.000293144
6.10945e-05
-0.000315935
1.68094e-05
-0.000204423
1.55432e-06
-1.99305e-05
-2.4228e-06
-8.37545e-07
-3.23719e-07
-3.96623e-09
2.56101e-09
-6.49552e-13
1.29362e-12
9.703e-19
2.21671e-17
0.000302826
-1.20234e-05
0.000292937
-3.41376e-05
0.000279598
-6.67794e-05
0.000262672
-0.000110263
0.000240086
-0.000164118
0.000210799
-0.000226813
0.000170434
-0.000292231
0.000114802
-0.000333041
5.19602e-05
-0.000216014
1.01962e-05
-1.71544e-05
-9.37636e-07
-8.59979e-07
-1.79181e-07
-7.57752e-09
1.97653e-09
-6.92949e-12
1.90682e-12
-3.28701e-16
2.72506e-17
0.000310008
-7.18235e-06
0.000305092
-2.4179e-05
0.000296963
-5.15032e-05
0.000285784
-8.98913e-05
0.000269758
-0.000139936
0.000248709
-0.000202028
0.000218113
-0.000274296
0.00016805
-0.000329193
8.73414e-05
-0.00020962
1.74141e-05
-1.4111e-05
9.69961e-08
-8.11016e-07
-7.43173e-08
-9.73994e-09
1.51076e-09
-1.67205e-11
2.06948e-12
-1.695e-15
2.69272e-17
0.00031242
-2.41169e-06
0.000312395
-1.44852e-05
0.00030919
-3.6405e-05
0.000303456
-6.91745e-05
0.000293426
-0.00011356
0.000279912
-0.000171139
0.000259583
-0.000243302
0.000217082
-0.000305858
0.00012076
-0.000185019
2.26628e-05
-1.14318e-05
8.61739e-07
-6.94327e-07
-1.61789e-08
-1.22736e-08
1.14134e-09
-3.61419e-11
2.28793e-12
-5.46677e-15
-3.60332e-17
0.000310279
2.14137e-06
0.000314823
-4.83922e-06
0.000316462
-2.17578e-05
0.000316039
-4.89882e-05
0.000311404
-8.71518e-05
0.000304411
-0.000138058
0.000292416
-0.000203802
0.000258921
-0.000268056
0.000151937
-0.000156951
2.7525e-05
-9.48059e-06
1.36368e-06
-5.50975e-07
7.99032e-09
-1.26214e-08
7.22084e-10
-6.71701e-11
3.28516e-12
-1.58786e-14
-7.42601e-17
0.000304263
6.01591e-06
0.000312702
4.26185e-06
0.000319096
-7.47324e-06
0.000323758
-2.94765e-05
0.000324108
-6.16931e-05
0.000322628
-0.000105369
0.000316384
-0.000161893
0.000291295
-0.000221068
0.000180211
-0.000128286
3.23406e-05
-7.86337e-06
1.67001e-06
-4.54409e-07
1.66109e-08
-9.92469e-09
2.49093e-10
-8.03242e-11
3.04386e-12
-3.18958e-14
3.94794e-17
0.000294345
9.91754e-06
0.000306119
1.25994e-05
0.000316949
6.4097e-06
0.00032624
-9.9551e-06
0.000331964
-3.73321e-05
0.000335924
-7.4989e-05
0.000333689
-0.00012258
0.000314442
-0.000172832
0.000204607
-0.000100652
3.73452e-05
-6.41824e-06
1.91442e-06
-3.74914e-07
2.22185e-08
-7.67575e-09
-2.60873e-11
-6.44613e-11
1.48772e-12
-3.3564e-14
1.24475e-16
0.000281195
1.31502e-05
0.000295919
2.01174e-05
0.000310146
1.94023e-05
0.000323658
8.99166e-06
0.00033502
-1.30108e-05
0.000344699
-4.61067e-05
0.000346597
-8.78351e-05
0.000330767
-0.000129704
0.000222174
-7.54915e-05
4.3159e-05
-5.12775e-06
2.14534e-06
-2.92114e-07
2.36749e-08
-5.21091e-09
-1.90206e-10
-5.15987e-11
-1.65766e-14
-2.2587e-14
7.05575e-17
0.000265649
1.5546e-05
0.000282663
2.64059e-05
0.000299416
3.08468e-05
0.000316415
2.66448e-05
0.000332543
1.14683e-05
0.000347613
-1.59252e-05
0.000356176
-5.56493e-05
0.000342775
-9.33488e-05
0.000232186
-5.37922e-05
4.97967e-05
-3.96281e-06
2.38225e-06
-2.14307e-07
1.99895e-08
-2.82693e-09
-2.52581e-10
-3.37234e-11
-6.75985e-13
-1.76853e-14
7.93621e-19
0.000248361
1.72882e-05
0.000267029
3.118e-05
0.000285487
4.03355e-05
0.000305032
4.22301e-05
0.00032453
3.46579e-05
0.000344722
1.43597e-05
0.000361718
-2.14521e-05
0.000351412
-6.01147e-05
0.000233303
-3.58927e-05
5.65562e-05
-2.9695e-06
2.60699e-06
-1.37477e-07
1.23643e-08
-1.56258e-09
-2.33777e-10
-1.44361e-11
-5.16928e-13
-1.0907e-14
-1.88066e-17
1.80161e-05
0.000230344
0.000249598
3.47197e-05
0.00026914
4.75263e-05
0.000290332
5.50357e-05
0.000311839
5.49217e-05
0.00033606
4.332e-05
0.000359589
1.64871e-05
0.000354522
-2.2867e-05
0.000226759
-2.00396e-05
6.25564e-05
-2.15288e-06
2.78511e-06
-6.33409e-08
2.23922e-09
-8.71025e-10
-2.03329e-10
-5.07758e-12
-2.52243e-13
-3.73189e-15
-6.23725e-19
3.64685e-05
0.000231146
4.38377e-05
0.000186507
0.000251066
5.27938e-05
0.00027312
6.47385e-05
0.000295539
7.13349e-05
0.000322361
6.86207e-05
0.000349355
5.35357e-05
0.000349266
2.08539e-05
0.000212229
-3.34442e-06
6.6393e-05
-1.31719e-06
2.91571e-06
-2.2588e-08
-2.60281e-09
-3.59603e-10
-1.3977e-10
-1.69126e-12
-1.38682e-13
-9.33018e-16
8.92533e-18
5.56105e-05
0.000231924
8.87238e-05
0.000186259
3.80138e-05
0.000148493
0.000254169
7.17446e-05
0.000276664
8.36141e-05
0.000304932
8.87634e-05
0.000332812
8.51234e-05
0.000334403
6.49166e-05
0.000197296
1.44597e-05
6.63325e-05
-9.35656e-08
2.99553e-06
-8.33185e-09
-2.74211e-09
-1.14693e-10
-7.05074e-11
-4.45129e-13
-5.12167e-14
-1.90538e-16
2.80877e-18
7.57366e-05
0.000234043
0.000135099
0.000185549
7.72779e-05
0.000146995
2.7618e-05
0.000120875
0.000256156
9.22519e-05
0.000284793
0.000103753
0.000312041
0.000109467
0.000314146
9.99232e-05
0.000185657
2.96914e-05
6.49479e-05
1.41693e-06
3.18551e-06
9.35228e-10
-3.72342e-09
-3.1142e-11
-3.11197e-11
-9.02431e-14
-1.04991e-14
-2.5703e-17
-1.90782e-19
9.72032e-05
0.00023469
0.000184037
0.000185104
0.000118057
0.00014477
5.77705e-05
0.000116843
1.07865e-05
0.000110088
0.000262869
0.000114176
0.000288728
0.000126961
0.000290623
0.000125939
0.000175548
4.14948e-05
5.99026e-05
2.80176e-06
3.52215e-06
2.79034e-08
-4.44314e-09
-6.66379e-12
-1.26982e-11
-1.55713e-14
-1.30807e-15
-3.10503e-18
-2.28312e-19
0.000120487
0.000239585
0.000235209
0.000183517
0.000162411
0.000140751
8.97583e-05
0.000112783
2.46313e-05
0.000102998
-1.3878e-05
0.000123966
0.000264029
0.000138726
0.000264593
0.00014467
0.000164881
5.0624e-05
5.33212e-05
3.83957e-06
3.60984e-06
5.88154e-08
-1.54654e-09
1.35501e-11
-9.95975e-12
-2.63534e-15
-8.98441e-17
-4.68187e-19
-9.63782e-20
0.000145438
0.000238886
0.00029106
0.000183734
0.000209541
0.000136387
0.000126033
0.000104476
4.19195e-05
9.54942e-05
-1.87237e-05
0.000107844
-5.42246e-05
0.000178191
0.000236571
0.000157393
0.00015282
5.74732e-05
4.63765e-05
4.53087e-06
3.31515e-06
8.19966e-08
4.02827e-09
1.14671e-10
-1.3375e-11
6.68479e-16
-2.83377e-16
-4.50198e-20
-2.98863e-20
0.000164603
0.000207348
0.000349979
0.000179361
0.000261585
0.000131688
0.0001662
9.62193e-05
6.72754e-05
7.91203e-05
-1.631e-05
9.30806e-05
-9.65999e-05
0.000150219
-6.77677e-05
0.000245959
0.000139117
6.22521e-05
3.99671e-05
4.95549e-06
2.77517e-06
9.11563e-08
6.295e-09
2.30353e-10
-1.98453e-11
2.39206e-14
-1.19586e-15
3.87385e-19
-3.02795e-20
6.45898e-05
0.000124277
0.000392379
0.000140046
0.000316321
0.000123855
0.000212342
8.55426e-05
0.000100735
6.27598e-05
-3.16719e-06
6.59775e-05
-0.000120178
0.000116659
-0.000141751
0.000224202
-0.000116719
0.000362678
3.46875e-05
5.1671e-06
2.2617e-06
8.87793e-08
5.54392e-09
2.58841e-10
-1.52476e-11
7.94475e-14
-4.74604e-15
2.00602e-18
-4.08938e-20
5.23574e-06
2.98604e-05
0.000152179
8.46289e-05
0.000349718
8.15589e-05
0.000262647
7.27118e-05
0.000143301
4.29717e-05
1.90179e-05
4.05748e-05
-0.000130093
7.58926e-05
-0.000219231
0.000194139
-0.000233309
0.000340793
-1.18979e-05
0.000374575
1.78462e-06
8.25176e-08
3.3394e-09
2.17262e-10
-1.0262e-11
9.31959e-14
-4.6836e-15
6.21324e-18
-9.59839e-20
7.79856e-08
1.3885e-06
1.21914e-05
1.88027e-05
0.000132528
4.2868e-05
0.000294963
2.44849e-05
0.000193454
2.16221e-05
6.30905e-05
-1.10557e-06
-0.000115219
2.57026e-05
-0.000278854
0.000135516
-0.000330135
0.000290964
-4.11952e-05
0.00037009
7.35592e-05
0.000301016
1.26597e-09
1.71407e-10
-7.01579e-12
6.58436e-14
-3.27594e-15
8.08115e-18
-1.14497e-19
1.52292e-10
-1.10182e-09
1.73996e-07
6.1111e-07
1.08219e-05
7.38387e-06
0.000110023
-2.04034e-06
0.000228812
-3.39059e-05
0.000123467
-3.95802e-05
-4.5106e-05
-7.10212e-05
-0.000278324
2.52314e-05
-0.000409675
0.000215058
-0.000106626
0.000356395
9.71944e-05
0.000346455
0.002309
0.000644803
-0.00265279
-6.20681e-12
4.26796e-14
-1.89115e-15
6.16148e-18
-9.10692e-20
3.34483e-14
-7.23988e-12
3.50639e-10
-9.49651e-09
2.015e-07
-6.82592e-07
9.57463e-06
-7.09562e-06
8.57866e-05
-4.82605e-05
0.000166818
-9.69132e-05
5.26391e-05
-0.000136445
-0.000171416
-0.000176634
-0.000431104
4.67695e-05
-0.000243707
0.000352139
0.000112649
0.000340941
0.00188219
0.000773268
0.00281255
0.00083005
-0.00299779
0.000430452
-0.00308324
-1.1467e-15
4.17678e-18
-6.53722e-20
3.09541e-18
-1.45475e-15
8.07145e-14
-1.66517e-11
7.94956e-10
-5.95276e-08
3.0632e-07
-4.18364e-06
7.96584e-06
-2.22423e-05
6.22199e-05
-8.63061e-05
0.000117388
-0.000175743
-3.39076e-06
-0.000298239
-0.000347885
-0.000258672
-0.000364643
0.00016772
7.09517e-05
0.000393836
0.00145722
0.000765913
0.0025932
0.000992624
0.00267718
0.00104226
-0.00288936
0.000690325
-0.00325766
0.000365882
-0.00344912
-4.37001e-20
6.4558e-20
1.37767e-17
-5.43883e-14
2.01037e-12
-2.04971e-09
1.76361e-08
-1.11238e-06
3.13731e-07
-7.18877e-06
5.38001e-06
-2.95784e-05
4.06625e-05
-0.000106477
9.80623e-05
-0.000274528
-0.000126006
-0.000515401
-0.00033658
-0.000286665
-1.64767e-05
0.000255149
0.00109463
0.000756428
0.00231225
0.00104686
0.00249146
0.00117835
0.00230348
0.00125596
-0.00251701
0.000974232
-0.00317329
0.000671716
-0.0035635
0.00030758
-0.0037567
-1.75192e-16
2.61479e-13
-8.93944e-11
6.97448e-09
-2.18292e-07
1.39712e-07
-2.74678e-06
1.49794e-07
-6.61464e-06
2.66516e-06
-2.85487e-05
2.76033e-05
-0.000102513
7.0027e-05
-0.000479452
-0.000182245
-0.000671182
-0.000157336
-0.000145805
0.000809412
0.000540364
0.00200033
0.00106835
0.0022952
0.00124312
0.00213841
0.00134345
0.00170277
0.00147196
-0.00191844
0.00124733
-0.00279028
0.000942778
-0.00344444
0.000588165
-0.00384411
0.000262138
-0.00401884
-6.78606e-13
6.53408e-10
-2.29712e-08
1.33691e-07
-1.0312e-06
4.77572e-08
-2.53754e-06
1.76564e-08
-4.33056e-06
5.82471e-07
-2.44729e-05
4.68021e-05
-0.000133942
3.87859e-05
-0.000723833
-0.000237872
-0.000590913
0.000423251
0.000240356
0.00160947
0.000931223
0.00207006
0.00129349
0.00198294
0.0013986
0.00157772
0.00146853
0.001131
0.00171973
-0.00137856
0.00153068
-0.00220161
0.0012521
-0.00310007
0.000901408
-0.00375779
0.000558388
-0.00414038
0.000222468
-0.00424131
-4.25333e-10
2.99078e-08
-1.90173e-07
7.78708e-08
-1.05233e-06
-2.95615e-07
-6.29103e-07
-1.51206e-07
-2.62517e-06
2.35891e-06
-5.92233e-06
3.05862e-05
-0.000173113
-8.80507e-05
-0.000887162
5.28805e-05
-0.000220542
0.00115037
0.000699459
0.00180617
0.00119512
0.00184902
0.00142741
0.00145623
0.00152009
0.000990122
0.00160941
0.000755267
0.000437222
-0.000806934
0.000436476
0.000449149
0.000448655
0.00175359
-0.00160027
0.00154123
-0.00249207
0.00121608
-0.00341506
0.000840452
-0.00403987
0.000438846
-0.00435676
0.000132448
-0.00437376
-7.00169e-09
2.86083e-08
-2.03456e-07
-1.56866e-07
-2.2311e-07
-7.35888e-08
-1.28899e-07
-2.73808e-08
-9.95922e-07
4.4452e-06
-1.75092e-06
6.56611e-06
-0.000304753
-0.000162905
-0.0006761
0.000624491
0.000305338
0.0014714
0.00103423
0.00167077
0.00137336
0.00134356
0.00154008
0.000989773
0.00152043
0.000599366
0.00176531
-6.62874e-07
9.37894e-05
-0.000102123
0.000446233
0.000451579
-0.000898917
0.000450787
0.000472385
0.000471983
9.37422e-05
-0.000101907
0.000443992
-4.56578e-07
8.44804e-05
0.000458913
8.50319e-05
0.000456908
0.00173605
-0.00179628
0.0014956
-0.00277313
0.00110748
-0.00368214
0.000667403
-0.00426843
0.000286566
-0.00451087
4.09635e-05
-0.00441472
-5.44929e-09
-2.25157e-08
-4.99656e-08
-4.83874e-08
-4.16666e-08
-1.02382e-08
-7.14591e-08
1.30951e-07
7.09724e-08
4.16765e-07
-2.7345e-06
-6.95173e-06
-0.000535717
0.000172685
-0.000224297
0.0010095
0.000767236
0.00143588
0.00126912
0.00120579
0.00151113
0.00097298
0.00155687
0.000520916
0.00159888
-4.45805e-05
-4.58702e-05
0.00031198
0.000420889
0.000419969
0.00043611
0.000436313
-7.35269e-07
-0.000109886
0.000460177
-3.06594e-07
2.2935e-05
-1.92689e-05
0.000442881
-0.0010506
0.00188904
-0.0001096
0.000457843
-7.31745e-07
-0.000103087
0.00046645
-0.000102387
0.000464173
2.38794e-05
-1.93186e-05
0.000439133
-1.23773e-07
0.000437393
0.000434793
0.00173005
-0.00203727
0.00136962
-0.0030355
0.000887225
-0.00390192
0.000410132
-0.00439194
2.96466e-05
-0.00449955
-0.000105314
-0.00430939
-4.02113e-10
-3.49561e-09
-1.10098e-08
-1.10985e-08
-7.72468e-09
1.49593e-10
-1.42757e-08
2.85542e-08
-1.59472e-08
3.16041e-09
-1.08137e-05
-1.57758e-05
-0.000439737
0.000490473
0.000294731
0.00113987
0.00106325
0.00102997
0.00144494
0.000886434
0.00159768
0.000479043
0.00159875
0.000297575
0.000397145
0.000397453
0.000409404
0.000409279
2.12865e-07
-1.35986e-05
1.48066e-05
0.000419464
-1.41241e-05
1.58985e-05
0.000418401
-2.29408e-07
-6.41535e-06
0.000429155
-6.79967e-06
0.00042876
-3.09751e-07
-1.79757e-05
0.000459254
1.32114e-06
-2.49281e-05
3.59686e-05
0.000120905
9.27306e-05
0.000120347
9.65365e-05
-0.00123761
0.00191705
2.15601e-05
2.06605e-05
-0.000260788
0.00048471
0.000485489
0.000467603
0.000465841
-1.72515e-05
0.000455526
-4.69072e-07
0.00047061
0.000467219
-2.57393e-05
3.7334e-05
0.000120104
9.3409e-05
0.000119535
9.56959e-05
1.26595e-06
0.000120574
9.1591e-05
0.000117883
9.59578e-05
0.000119914
9.31848e-05
0.00011743
9.56524e-05
0.00160651
-0.00227504
0.00110075
-0.00324872
0.000518895
-0.00400985
7.79103e-06
-0.0043695
-0.000233361
-0.00437147
-0.000257664
-0.00405172
-3.28437e-11
-4.61488e-10
-2.39276e-09
-1.39879e-09
-9.88041e-10
1.17685e-10
-5.00511e-10
8.39159e-10
-4.85744e-09
-1.40584e-08
-5.10743e-05
8.4738e-05
-6.93032e-05
0.000726456
0.00070814
0.000803142
0.00129008
0.000732986
0.00159839
0.000405643
0.00167108
0.000265468
0.000402983
0.000402705
0.000413111
0.000412056
-1.50476e-07
-1.19925e-05
0.000402873
-1.20251e-05
0.000402528
-1.09112e-07
-1.22642e-05
0.00040978
-1.22526e-05
0.000409397
3.10629e-07
-6.13096e-05
1.20356e-05
2.96878e-05
8.26924e-05
1.32793e-05
0.000108253
8.70201e-05
0.000112147
3.52985e-05
-6.13242e-05
1.16135e-05
2.96554e-05
1.32209e-05
8.28873e-05
0.000108211
8.70987e-05
0.000112045
3.52997e-05
5.51893e-07
-5.12313e-05
9.25198e-05
0.00011591
9.28427e-05
0.000117186
-5.0747e-05
9.27557e-05
0.000115888
9.2936e-05
0.000117146
1.3622e-06
5.21827e-05
0.000126207
9.37942e-05
0.000121749
9.99353e-05
2.55377e-05
9.4732e-06
1.4764e-07
-2.51728e-05
0.000110919
-9.43634e-06
-2.65679e-05
2.79763e-05
0.000100738
1.73793e-07
2.65384e-05
0.000109737
-2.45677e-05
0.000103987
-0.00140465
0.00176866
-0.000304588
0.000494003
0.000494225
0.000485889
0.000486735
-2.73893e-07
-6.59526e-05
7.14937e-05
0.000479632
-6.44798e-05
7.07887e-05
0.000479096
3.32554e-07
-6.08006e-05
0.000462273
-6.01535e-05
0.000462008
5.32524e-05
0.000125461
9.483e-05
0.00012117
9.95189e-05
1.0285e-06
0.00012834
0.00010066
0.000128212
0.000103815
0.000127702
0.000102669
0.000127628
0.000103417
2.54249e-05
9.3554e-06
-2.50955e-05
0.000110566
-9.11843e-06
-2.58692e-05
2.71502e-05
0.000101254
2.63477e-05
0.000109668
-2.42818e-05
0.000103463
-2.43185e-05
1.04679e-05
2.50352e-07
0.000109002
-1.52373e-05
2.03395e-05
9.85244e-05
3.408e-07
0.000107672
0.000102196
-2.42624e-05
1.05159e-05
0.000108816
-1.52628e-05
2.00527e-05
0.000100005
0.000107901
0.000101934
0.00130458
-0.00247883
0.000643951
-0.00336955
-1.06813e-05
-0.00398754
-0.000394531
-0.00420655
-0.000550719
-0.00407826
-0.000401726
-0.00364999
-3.9569e-12
-3.76108e-11
-4.68371e-10
3.98049e-12
-1.03473e-10
8.00207e-13
-6.83346e-12
-1.09031e-10
-2.293e-09
-9.9876e-09
-7.42419e-05
0.000291946
0.000358061
0.000530583
0.0009807
0.000519733
0.00150333
0.000299166
0.00170486
0.000180235
0.000433289
0.000432757
0.000445395
0.00044487
-8.72412e-08
-1.50345e-05
0.000405841
-1.47322e-05
0.000405097
-5.94114e-08
-1.49861e-05
0.000413122
-1.46916e-05
0.000411956
9.13716e-07
-4.95446e-05
8.90277e-05
0.000111493
8.8514e-05
0.000111193
-4.91827e-05
8.95223e-05
0.000111524
8.96022e-05
0.000111218
1.18389e-06
-4.63835e-05
9.07414e-05
0.000112563
8.97382e-05
0.000112404
-4.63452e-05
9.1911e-05
0.000112546
9.09644e-05
0.000112349
-4.68644e-06
-2.67898e-05
2.18434e-05
9.2324e-05
-7.03764e-06
2.53975e-05
9.34436e-05
-2.79127e-05
-3.73251e-08
0.000104851
2.67072e-05
-6.3896e-06
-2.85507e-05
9.51695e-05
1.64414e-09
-2.80314e-05
0.000105895
1.01229e-08
3.35186e-05
0.000102381
-7.02215e-06
2.54492e-05
9.47944e-05
-4.52049e-06
-2.66104e-05
2.13883e-05
9.26221e-05
-2.78485e-05
2.66187e-05
0.000104883
-6.30843e-06
-2.83534e-05
9.51493e-05
-2.7961e-05
0.00010585
3.34822e-05
0.000102706
-7.39885e-06
2.89168e-05
-2.76027e-05
9.8604e-05
2.81349e-05
2.53312e-08
-2.75512e-05
0.000107901
-7.10634e-06
0.000100315
2.64529e-08
0.000110197
-7.38417e-06
2.86954e-05
-2.74329e-05
9.88765e-05
2.80383e-05
-2.74119e-05
0.000107903
-7.08084e-06
0.000100358
0.000110169
-2.81345e-05
9.33543e-06
2.71262e-07
3.03978e-05
0.000114337
-9.26582e-06
2.9518e-05
0.000101518
2.99585e-07
0.000110587
3.1662e-05
0.00010712
3.4282e-05
2.65198e-06
-2.21957e-08
-3.45779e-05
0.000108585
-2.19468e-06
-3.40304e-05
3.53449e-05
0.000101595
-5.13412e-08
3.53878e-05
0.000106465
-3.20726e-05
0.000104631
-0.00153248
0.00143218
-0.000342204
0.00045276
0.000452196
0.00044969
0.000449777
-1.84666e-07
-7.25111e-05
7.83626e-05
0.000488384
-7.23983e-05
7.83774e-05
0.000488095
-2.21115e-07
0.000485145
0.000484954
7.78494e-07
-0.000131222
0.000155503
9.88234e-05
0.000126199
0.000101482
0.00012828
-0.00013105
0.000155988
9.92337e-05
0.000126099
0.000101743
0.000128172
6.74687e-07
-4.17463e-05
-2.18099e-05
0.000105703
-5.06965e-05
0.000132838
0.000101168
0.00012987
-2.47681e-05
-4.16186e-05
-2.184e-05
0.000106321
-5.06317e-05
0.00013297
0.000101526
0.000129902
-2.4817e-05
-2.79959e-05
9.44006e-06
3.02334e-05
0.000114055
-9.25092e-06
2.89973e-05
0.000102234
0.000110571
3.11804e-05
0.000106766
2.95865e-05
1.04171e-05
1.91093e-07
0.000118543
-1.68308e-05
-3.36442e-05
0.000109389
2.38217e-07
0.000118899
0.000112247
2.95146e-05
1.03597e-05
0.000118252
-1.63886e-05
-3.31836e-05
0.000110625
0.000119152
0.000111766
3.42719e-05
2.45793e-06
-3.44977e-05
0.000108312
-1.98553e-06
-3.40471e-05
3.55799e-05
0.000101711
3.54091e-05
0.000106494
-3.17917e-05
0.000103664
3.69189e-06
3.4338e-08
0.000104241
9.92083e-05
3.60487e-06
0.000104231
9.91925e-05
0.00076155
-0.00259428
-3.93629e-05
-0.00333268
-0.000584404
-0.00379106
-0.0008643
-0.00389075
-0.00083985
-0.0036396
-0.000548176
-0.00310174
-9.17632e-14
-2.90116e-13
-7.65344e-11
3.73088e-13
-2.64759e-12
-3.34251e-11
-2.84052e-12
-2.36002e-11
-1.82551e-09
-9.06739e-09
6.56768e-05
0.000239307
0.000640685
0.000276846
0.00122359
0.000166455
0.00163604
3.05671e-05
0.000460933
0.000460488
0.000466614
0.000466497
3.40339e-09
-1.84569e-05
0.000436756
-1.81828e-05
0.000436251
-9.40863e-08
-2.60992e-05
0.000453132
-2.58858e-05
0.000452479
1.10638e-06
-4.53788e-05
8.98067e-05
0.000111278
9.09763e-05
0.000111714
-4.58423e-05
9.09627e-05
0.000111225
9.19466e-05
0.000111557
9.84349e-07
-4.88936e-05
9.60093e-05
0.000113829
9.3345e-05
0.000112432
-5.02938e-05
9.70202e-05
0.000113733
9.42592e-05
0.000112346
-7.10749e-06
-2.78416e-05
9.63743e-05
-2.81087e-05
1.529e-08
0.000104947
-7.50567e-06
-2.64907e-05
9.46752e-05
-5.48922e-08
-2.69209e-05
0.000102599
-7.05188e-06
-2.77755e-05
9.69169e-05
-2.79804e-05
0.000105055
-7.1494e-06
-2.66008e-05
9.55769e-05
-2.68453e-05
0.000102866
-7.49951e-06
2.57923e-05
-2.40143e-05
9.64576e-05
2.61714e-05
-1.5924e-08
-2.48538e-05
0.000103788
-7.58218e-06
9.66158e-05
-3.75542e-08
0.000104086
-7.15741e-06
2.59172e-05
-2.43415e-05
9.74928e-05
2.61694e-05
-2.48633e-05
0.000104077
-7.26317e-06
9.75442e-05
0.000104385
-2.10197e-06
2.35083e-05
-6.76669e-07
-2.71003e-05
-2.89398e-05
-1.38317e-08
-7.65279e-08
2.71531e-05
-1.15435e-06
-1.87777e-05
-1.76816e-08
-1.87419e-05
-1.96639e-06
2.37584e-05
-6.49696e-07
-2.70804e-05
2.7212e-05
-2.89211e-05
-1.1253e-06
-1.87961e-05
-1.87473e-05
-1.48105e-06
1.83529e-05
-1.77956e-05
1.81922e-05
-2.57169e-08
-1.72873e-05
-1.46193e-06
-2.25879e-08
-1.42739e-06
1.83729e-05
-1.79292e-05
1.81896e-05
-1.73272e-05
-1.42724e-06
-3.76678e-05
2.501e-06
-3.69225e-08
3.84928e-05
0.000111065
-2.20853e-06
3.80144e-05
0.000101055
-4.87256e-08
0.000106167
4.071e-05
0.000106906
2.27298e-05
1.32591e-06
2.76642e-08
-2.5547e-05
-1.26157e-06
-2.27282e-05
2.25703e-05
-2.78965e-08
2.25369e-05
-2.44386e-05
-0.00163851
0.000867908
-0.000412991
0.00037254
0.000372317
0.000378609
0.000378447
-1.59183e-07
-7.53317e-05
8.82641e-05
0.000439974
-7.58851e-05
8.9277e-05
0.000438654
-3.98865e-08
0.000452741
0.000452232
1.49079e-06
-0.000181619
0.000184539
0.00010954
0.000136421
0.000105935
0.000132117
-0.000182375
0.000185089
0.000110985
0.000136454
0.000107426
0.000132144
1.10755e-06
9.95335e-05
0.000125096
0.00010342
0.000129878
0.000100159
0.000125249
0.000104816
0.000129986
-8.3096e-06
-4.85096e-05
5.30886e-05
0.000102579
-4.70978e-05
-2.1766e-08
5.30337e-05
0.00011204
-7.90654e-06
-4.35583e-05
0.000104451
-2.76303e-08
-4.19152e-05
0.000115218
-8.14525e-06
-4.82983e-05
5.26677e-05
0.000103005
-4.70275e-05
5.28906e-05
0.000112069
-7.76563e-06
-4.33961e-05
0.000104603
-4.18917e-05
0.000115243
-6.60809e-06
4.1931e-05
-5.37851e-05
0.000124183
-9.38117e-06
-4.53157e-05
0.000113391
3.81637e-05
-7.29032e-08
0.000134346
-4.61596e-05
-7.69663e-06
0.000107203
-4.5925e-08
0.000118467
-2.12482e-08
-3.70787e-05
0.000121826
-6.37021e-06
4.18649e-05
-5.41751e-05
0.000124995
-9.29007e-06
-4.51811e-05
0.000114466
3.81576e-05
0.000134568
-4.61982e-05
-7.54492e-06
0.000107524
0.000118577
-3.70481e-05
0.000122072