/*--------------------------------*- C++ -*----------------------------------*\
| =========                 |                                                 |
| \\      /  F ield         | OpenFOAM: The Open Source CFD Toolbox           |
|  \\    /   O peration     | Version:  5.x                                   |
|   \\  /    A nd           | Web:      www.OpenFOAM.org                      |
|    \\/     M anipulation  |                                                 |
\*---------------------------------------------------------------------------*/
FoamFile
{
    version     2.0;
    format      ascii;
    class       volScalarField;
    location    "2.5";
    object      k;
}
// * * * * * * * * * * * * * * * * * * * * * * * * * * * * * * * * * * * * * //

dimensions      [0 2 -2 0 0 0 0];

internalField   nonuniform List<scalar> 
12160
(
9.93823e-09
9.89739e-09
1.00193e-08
9.86981e-09
1.00534e-08
1.00097e-08
9.85344e-09
1.00863e-08
1.00197e-08
1.00091e-08
9.84508e-09
1.01384e-08
1.00316e-08
1.00171e-08
1.00091e-08
9.84148e-09
1.01678e-08
1.00458e-08
1.00239e-08
1.00171e-08
1.00102e-08
9.84031e-09
1.01731e-08
1.00559e-08
1.00297e-08
1.00232e-08
1.00197e-08
1.00105e-08
9.84015e-09
1.01669e-08
1.0059e-08
1.00334e-08
1.00274e-08
1.00258e-08
1.00234e-08
1.00194e-08
9.84032e-09
1.01577e-08
1.00576e-08
1.00346e-08
1.00297e-08
1.00291e-08
1.00309e-08
1.00459e-08
1.01623e-08
9.84048e-09
1.01494e-08
1.00556e-08
1.00342e-08
1.00304e-08
1.00305e-08
1.00339e-08
1.00523e-08
1.01643e-08
1.01728e-08
9.84049e-09
1.01425e-08
1.0054e-08
1.00336e-08
1.00304e-08
1.00307e-08
1.00342e-08
1.00479e-08
1.01524e-08
1.01735e-08
1.02463e-08
9.84029e-09
1.01366e-08
1.0053e-08
1.00331e-08
1.00301e-08
1.00308e-08
1.00336e-08
1.00442e-08
1.01328e-08
1.01785e-08
1.02612e-08
1.02855e-08
9.83992e-09
1.01312e-08
1.00521e-08
1.00328e-08
1.00299e-08
1.00308e-08
1.00332e-08
1.00435e-08
1.01165e-08
1.01797e-08
1.02907e-08
1.02526e-08
1.01575e-08
9.83956e-09
1.01264e-08
1.00512e-08
1.00325e-08
1.00296e-08
1.00306e-08
1.00331e-08
1.00457e-08
1.01033e-08
1.01756e-08
1.02508e-08
1.02369e-08
1.01026e-08
1.01507e-08
9.83941e-09
1.01262e-08
1.00502e-08
1.00322e-08
1.00293e-08
1.00303e-08
1.00331e-08
1.00487e-08
1.00942e-08
1.01644e-08
1.0239e-08
1.01469e-08
1.01541e-08
1.00901e-08
1.0092e-08
9.83941e-09
1.0127e-08
1.00496e-08
1.00318e-08
1.0029e-08
1.003e-08
1.00329e-08
1.00509e-08
1.0089e-08
1.01525e-08
1.02324e-08
1.01455e-08
1.00723e-08
1.00854e-08
1.00276e-08
9.83972e-09
1.01275e-08
1.00493e-08
1.00315e-08
1.00286e-08
1.00295e-08
1.00325e-08
1.0052e-08
1.0087e-08
1.01393e-08
1.02245e-08
1.01635e-08
1.00595e-08
1.00493e-08
1.00525e-08
9.8408e-09
1.01308e-08
1.00489e-08
1.00312e-08
1.00281e-08
1.0029e-08
1.00319e-08
1.00519e-08
1.00861e-08
1.01259e-08
1.02144e-08
1.01818e-08
1.00646e-08
1.00373e-08
1.00287e-08
9.84346e-09
1.01324e-08
1.00482e-08
1.00311e-08
1.00279e-08
1.00285e-08
1.00309e-08
1.00509e-08
1.00853e-08
1.01178e-08
1.0202e-08
1.01912e-08
1.00732e-08
1.00345e-08
1.00223e-08
9.84737e-09
1.01328e-08
1.00473e-08
1.00308e-08
1.00277e-08
1.00282e-08
1.00298e-08
1.00491e-08
1.00835e-08
1.01121e-08
1.01874e-08
1.02015e-08
1.00793e-08
1.00361e-08
1.00197e-08
9.85131e-09
1.01314e-08
1.00469e-08
1.00305e-08
1.00276e-08
1.0028e-08
1.00288e-08
1.0047e-08
1.00808e-08
1.01071e-08
1.01709e-08
1.02133e-08
1.00767e-08
1.00369e-08
1.00205e-08
9.85482e-09
1.01297e-08
1.0047e-08
1.00303e-08
1.00274e-08
1.00279e-08
1.00284e-08
1.0045e-08
1.00781e-08
1.01023e-08
1.01571e-08
1.02353e-08
1.00849e-08
1.00367e-08
1.00207e-08
9.85755e-09
1.01292e-08
1.00473e-08
1.00302e-08
1.00273e-08
1.00277e-08
1.00282e-08
1.00437e-08
1.00755e-08
1.00973e-08
1.01449e-08
1.02229e-08
1.01177e-08
1.00378e-08
1.00214e-08
9.85937e-09
1.0129e-08
1.00474e-08
1.00303e-08
1.00272e-08
1.00276e-08
1.00283e-08
1.0043e-08
1.00728e-08
1.00919e-08
1.01337e-08
1.02038e-08
1.01548e-08
1.00499e-08
1.00228e-08
9.86026e-09
1.01287e-08
1.00473e-08
1.00302e-08
1.00272e-08
1.00276e-08
1.0029e-08
1.00426e-08
1.00704e-08
1.00868e-08
1.01216e-08
1.01874e-08
1.01713e-08
1.00715e-08
1.00266e-08
9.86025e-09
1.01285e-08
1.0047e-08
1.00301e-08
1.00271e-08
1.00277e-08
1.00303e-08
1.00427e-08
1.00677e-08
1.00827e-08
1.01093e-08
1.01766e-08
1.01756e-08
1.00907e-08
1.00344e-08
9.85946e-09
1.01283e-08
1.00466e-08
1.00299e-08
1.0027e-08
1.00277e-08
1.0031e-08
1.00429e-08
1.00642e-08
1.00792e-08
1.01e-08
1.01713e-08
1.01752e-08
1.01066e-08
1.00442e-08
9.85803e-09
1.0128e-08
1.00462e-08
1.00298e-08
1.00268e-08
1.00274e-08
1.0031e-08
1.0042e-08
1.00603e-08
1.00761e-08
1.00938e-08
1.01677e-08
1.01738e-08
1.01139e-08
1.00541e-08
9.85611e-09
1.01277e-08
1.00455e-08
1.00297e-08
1.00267e-08
1.0027e-08
1.00301e-08
1.00401e-08
1.00564e-08
1.0073e-08
1.00911e-08
1.01544e-08
1.01712e-08
1.01136e-08
1.00596e-08
9.85384e-09
1.01274e-08
1.00448e-08
1.00296e-08
1.00269e-08
1.0027e-08
1.00288e-08
1.00372e-08
1.00517e-08
1.00679e-08
1.00872e-08
1.01305e-08
1.01616e-08
1.01123e-08
1.00595e-08
9.85142e-09
1.01269e-08
1.00439e-08
1.00295e-08
1.0027e-08
1.00274e-08
1.00288e-08
1.00342e-08
1.00465e-08
1.00612e-08
1.00784e-08
1.01078e-08
1.01452e-08
1.0108e-08
1.00586e-08
9.84898e-09
1.01262e-08
1.00429e-08
1.00293e-08
1.00272e-08
1.0028e-08
1.00302e-08
1.00345e-08
1.00422e-08
1.00538e-08
1.00678e-08
1.00902e-08
1.01198e-08
1.00936e-08
1.00567e-08
9.84663e-09
1.01256e-08
1.00418e-08
1.00291e-08
1.00273e-08
1.00284e-08
1.00319e-08
1.00377e-08
1.00428e-08
1.00476e-08
1.00564e-08
1.00724e-08
1.00956e-08
1.00772e-08
1.00489e-08
9.84502e-09
1.01255e-08
1.00408e-08
1.00289e-08
1.00273e-08
1.00287e-08
1.00332e-08
1.00414e-08
1.00475e-08
1.00485e-08
1.00472e-08
1.00548e-08
1.00713e-08
1.00612e-08
1.0036e-08
9.8449e-09
1.01255e-08
1.004e-08
1.00288e-08
1.00274e-08
1.00288e-08
1.0034e-08
1.00448e-08
1.00533e-08
1.00545e-08
1.00487e-08
1.00421e-08
1.00488e-08
1.00454e-08
1.00261e-08
9.84547e-09
1.01249e-08
1.00398e-08
1.00287e-08
1.00275e-08
1.00288e-08
1.00344e-08
1.00477e-08
1.00591e-08
1.00621e-08
1.0057e-08
1.0045e-08
1.00343e-08
1.00316e-08
1.00188e-08
9.84636e-09
1.01248e-08
1.00407e-08
1.00288e-08
1.00276e-08
1.00289e-08
1.00344e-08
1.005e-08
1.00645e-08
1.00701e-08
1.00674e-08
1.00577e-08
1.00367e-08
1.00228e-08
1.00131e-08
9.84741e-09
1.01256e-08
1.00423e-08
1.00292e-08
1.00279e-08
1.00291e-08
1.00344e-08
1.00519e-08
1.00695e-08
1.00783e-08
1.00787e-08
1.0072e-08
1.00503e-08
1.00227e-08
1.00097e-08
9.8486e-09
1.01275e-08
1.00443e-08
1.00299e-08
1.00283e-08
1.00294e-08
1.00343e-08
1.00536e-08
1.0074e-08
1.00863e-08
1.00917e-08
1.00872e-08
1.0064e-08
1.00283e-08
1.00094e-08
9.84999e-09
1.01302e-08
1.00466e-08
1.00307e-08
1.00288e-08
1.00299e-08
1.00343e-08
1.00552e-08
1.00783e-08
1.00932e-08
1.01071e-08
1.01064e-08
1.00762e-08
1.00349e-08
1.00111e-08
1.01338e-08
9.85189e-09
1.0049e-08
1.00318e-08
1.00295e-08
1.00306e-08
1.00352e-08
1.00568e-08
1.00825e-08
1.00983e-08
1.0122e-08
1.01354e-08
1.00882e-08
1.00416e-08
1.00129e-08
1.00515e-08
1.01389e-08
9.85443e-09
1.00329e-08
1.00303e-08
1.00314e-08
1.00365e-08
1.00584e-08
1.00864e-08
1.01013e-08
1.01316e-08
1.01687e-08
1.00966e-08
1.00477e-08
1.0015e-08
1.00342e-08
1.00553e-08
1.01504e-08
9.85843e-09
1.00313e-08
1.00324e-08
1.00381e-08
1.00601e-08
1.00892e-08
1.01045e-08
1.01347e-08
1.0186e-08
1.01024e-08
1.00508e-08
1.00182e-08
1.00323e-08
1.00362e-08
1.00602e-08
1.01728e-08
9.87027e-09
1.00335e-08
1.004e-08
1.00617e-08
1.00913e-08
1.01084e-08
1.0138e-08
1.01941e-08
1.01086e-08
1.00501e-08
1.00213e-08
1.00348e-08
1.00339e-08
1.0039e-08
1.0068e-08
1.0227e-08
9.90418e-09
1.00419e-08
1.00634e-08
1.00933e-08
1.0113e-08
1.0143e-08
1.01891e-08
1.01149e-08
1.00484e-08
1.00225e-08
1.0044e-08
1.00366e-08
1.00362e-08
1.00434e-08
1.0081e-08
1.03346e-08
1.00115e-08
1.00652e-08
1.00952e-08
1.01177e-08
1.01501e-08
1.01823e-08
1.01263e-08
1.00475e-08
1.00225e-08
1.00669e-08
1.00463e-08
1.00389e-08
1.00392e-08
1.00519e-08
1.01218e-08
1.05028e-08
1.03205e-08
1.00969e-08
1.01221e-08
1.01586e-08
1.0181e-08
1.01373e-08
1.00506e-08
1.00229e-08
1.00984e-08
1.0068e-08
1.00489e-08
1.00413e-08
1.00442e-08
1.00789e-08
1.09502e-08
2.15121e-08
4.14166e-08
1.0126e-08
1.01668e-08
1.01841e-08
1.01452e-08
1.00638e-08
1.00252e-08
1.01292e-08
1.00996e-08
1.00692e-08
1.00509e-08
1.00449e-08
1.00642e-08
3.15813e-08
2.59401e-07
8.00745e-07
1.70613e-08
1.01741e-08
1.02402e-08
1.01692e-08
1.00763e-08
1.00299e-08
1.02767e-08
1.01334e-08
1.01014e-08
1.00728e-08
1.03467e-08
7.06376e-08
5.07349e-07
3.41537e-06
9.48177e-06
4.18233e-07
4.69432e-05
1.52645e-08
1.13838e-08
1.00915e-08
1.00355e-08
1.04554e-06
2.37029e-08
4.6928e-08
6.26164e-08
3.47838e-07
1.79452e-06
1.137e-05
3.30807e-05
7.46763e-05
1.27287e-05
5.25276e-05
0.0200796
8.06402e-08
1.06304e-08
1.004e-08
3.16975e-06
7.63353e-05
0.000278967
9.59499e-05
2.8636e-05
2.4301e-05
8.76685e-05
0.000275172
0.000422169
0.000173141
5.6307e-05
0.0170411
0.0220772
0.0224453
4.23681e-08
1.00894e-08
1.51369e-06
9.29642e-05
0.00236545
0.0106286
0.00377293
0.000764121
0.000516495
0.00119404
0.00182393
0.00102816
9.04155e-05
0.0147339
0.0195878
0.0229525
0.0245994
0.0244261
1.36126e-08
2.32528e-07
4.69321e-05
0.00229463
0.0207144
0.0515998
0.0211196
0.00389321
0.00446908
0.00575169
0.00351858
0.000317344
0.0121491
0.0174045
0.0197137
0.0244339
0.0264288
0.0273471
0.0262873
1.02727e-05
0.00132277
0.0194421
0.0594564
0.0904401
0.0375354
0.0121796
0.0163318
0.00956304
0.00315348
0.00930295
0.0152424
0.0169477
0.0204842
0.0251257
0.0284527
0.0297071
0.0301811
0.0280629
0.000444841
0.0133844
0.0552825
0.0806165
0.101975
0.0462892
0.0345698
0.0238966
0.00863918
0.00758561
0.0133605
0.0144988
0.0170349
0.0204108
0.024738
0.0298603
0.0323177
0.0332273
0.0335114
0.0299044
0.00652378
0.0465761
0.0646882
0.082891
0.0966966
0.052273
0.0589701
0.0242349
0.00670048
0.0131402
0.0125273
0.0140839
0.0166453
0.0196892
0.0298538
0.029152
0.0338489
0.0358366
0.0368921
0.0370755
0.0318579
0.0289459
0.0619964
0.0606673
0.0756009
0.0850404
0.0630272
0.0530471
0.0226623
0.0135571
0.0117337
0.0119508
0.0134954
0.0155567
0.020972
0.501708
0.0338635
0.502199
0.498497
0.498872
0.0331624
0.0373468
0.0394878
0.0410923
0.0414508
0.0340544
0.044155
0.060476
0.0606216
0.069837
0.0698164
0.0824444
0.051004
0.0156716
0.0130214
0.0106936
0.011307
0.0125701
0.0156455
0.0879609
0.555255
0.593381
0.0323604
0.555832
0.562676
0.563442
0.593651
0.598879
0.599079
0.0373809
0.041517
0.0440476
0.0461514
0.0466045
0.0366078
0.0399419
0.0547739
0.0628079
0.0672691
0.0623108
0.0711872
0.0461577
0.0155813
0.011313
0.0101602
0.010532
0.0118093
0.0328146
0.430633
0.430675
0.445615
0.445714
0.646629
0.573173
0.03674
0.0468258
0.646915
0.67205
0.672817
0.572877
0.567962
0.567683
0.0423404
0.047049
0.0499473
0.0523282
0.0526898
0.0392815
0.0253627
0.047147
0.0632944
0.0641623
0.0407145
0.0621332
0.039226
0.0145639
0.0108603
0.00980889
0.00970341
0.0197577
0.392332
0.392385
0.404683
0.40493
0.499446
0.499609
0.534503
0.534488
0.624371
0.505046
0.796758
0.500358
0.82416
0.0410231
0.0410583
0.557015
0.557105
0.516695
0.517069
0.62404
0.672215
0.672157
0.503865
0.797286
0.500019
0.817351
0.499987
0.760332
0.49279
0.809504
0.499454
0.768235
0.493581
0.806908
0.0489831
0.0548126
0.0577212
0.059592
0.0593446
0.0418083
0.0175653
0.0342409
0.0478593
0.0397495
0.0292718
0.0783838
0.0367656
0.0141222
0.0111425
0.00931358
0.0173124
0.394306
0.394577
0.406633
0.407186
0.491683
0.491649
0.501467
0.501466
0.718411
0.77743
0.45092
0.746552
0.464429
0.459286
0.786738
0.719394
0.451093
0.746481
0.464449
0.460766
0.775474
0.48367
0.78854
0.490328
0.776827
0.483864
0.788612
0.490341
0.545821
0.825086
0.528489
0.8739
0.466234
0.825705
0.461028
0.847432
0.0472923
0.0424234
0.585121
0.585272
0.594805
0.594694
0.699633
0.699696
0.623168
0.624087
0.545077
0.828082
0.528516
0.870227
0.58507
0.898973
0.583493
0.940958
0.584227
0.908205
0.584341
0.936328
0.46504
0.827682
0.461109
0.842034
0.46043
0.825668
0.460126
0.824162
0.0586394
0.065505
0.0673262
0.0674129
0.0659126
0.0439583
0.010363
0.0175145
0.02034
0.0195856
0.0339627
0.0808364
0.0320582
0.0166068
0.011169
0.0179622
0.470269
0.470617
0.493955
0.494337
0.494249
0.494286
0.519569
0.519759
0.731682
0.453834
0.731784
0.4528
0.73533
0.454401
0.738264
0.453725
0.743279
0.460095
0.742216
0.459217
0.751296
0.461307
0.749943
0.460353
0.771669
0.753284
0.446144
0.433882
0.793357
0.457759
0.780672
0.75411
0.435515
0.446304
0.793311
0.457776
0.809215
0.46491
0.83228
0.475617
0.811523
0.465316
0.832757
0.475703
0.49912
0.840091
0.475883
0.895902
0.447934
0.82592
0.443932
0.845057
0.0573133
0.0452573
0.48236
0.482775
0.504037
0.504178
0.743527
0.743349
0.746373
0.746181
1.05616
0.649069
1.01591
0.631096
1.05817
0.649343
1.01742
0.631354
0.893102
0.922268
0.552091
0.911613
0.569858
0.536627
0.898343
0.930483
0.553142
0.914921
0.57062
0.537883
0.498529
0.84495
0.476564
0.893148
0.533743
0.959562
0.532756
0.954667
0.446569
0.825915
0.443869
0.837843
0.439389
0.81621
0.439449
0.816566
0.0726308
0.079105
0.0776619
0.0748895
0.071626
0.0453409
0.00422525
0.00803559
0.0108614
0.0189822
0.0531034
0.0709212
0.0374061
0.0215885
0.0134119
0.531776
0.532107
0.509369
0.509898
0.578309
0.578289
0.627609
0.627802
0.738817
0.457891
0.747753
0.462182
0.746017
0.45899
0.753695
0.46308
0.79055
0.50402
0.777409
0.482244
0.795664
0.504761
0.782445
0.48307
0.768592
0.439642
0.766068
0.436205
0.773491
0.440574
0.774069
0.437719
0.767492
0.433296
0.773286
0.436481
0.776743
0.435142
0.781208
0.438121
0.476267
0.832542
0.453322
0.885377
0.0737398
0.0504772
0.349895
0.35012
0.388404
0.388708
0.632547
0.632554
0.661834
0.661741
1.10231
0.680612
1.10781
0.682149
1.11153
0.681862
1.11636
0.683305
1.09715
0.676184
1.11286
0.684229
1.09985
0.676529
1.11995
0.685126
1.11702
0.630892
1.07021
0.608921
1.11957
0.631319
1.07166
0.609255
0.93632
0.92438
0.543108
0.51192
0.967895
0.55908
0.942474
0.929876
0.544203
0.513129
0.971296
0.559843
0.475871
0.836777
0.454106
0.883586
0.508508
0.951336
0.507657
0.947533
0.0911372
0.094381
0.0866649
0.0806415
0.0752746
0.0455021
0.0018339
0.00434258
0.0115632
0.0182385
0.0527266
0.0804517
0.0517075
0.0326367
0.0350597
0.678302
0.678527
0.665231
0.665844
0.62357
0.623606
0.665085
0.665105
0.767965
0.434909
0.794061
0.445083
0.77627
0.436566
0.800144
0.446358
0.856582
0.504262
0.84088
0.469994
0.863151
0.505406
0.847436
0.471306
0.775262
0.42784
0.784245
0.429705
0.0987538
0.0633404
0.188826
0.189024
0.230999
0.231217
0.470933
0.47099
0.527429
0.527283
0.920409
0.576835
0.947022
0.585652
0.929159
0.577919
0.953415
0.586536
1.03282
0.632502
0.979784
0.608839
1.04117
0.633658
0.986992
0.609784
1.14789
0.644346
1.15926
0.651997
1.15746
0.646229
1.16708
0.653589
1.14967
0.650762
1.158
0.65687
1.15256
0.651305
1.16463
0.658097
0.114881
0.107076
0.0920627
0.0841148
0.0766179
0.0436319
0.00101995
0.00395603
0.0146018
0.023715
0.0702735
0.0968827
0.0840249
0.0495221
0.544893
0.545213
0.545842
0.546301
0.697973
0.697726
0.68249
0.682937
0.573773
0.91727
0.560353
0.953089
0.573753
0.916936
0.560348
0.952877
0.596958
0.980448
0.600684
0.980777
0.597227
0.986038
0.601526
0.982289
0.783635
0.428182
0.808195
0.437801
0.790776
0.42979
0.81304
0.438971
0.877972
0.492886
0.850162
0.460206
0.883488
0.493966
0.855261
0.461406
0.139109
0.102031
0.0853349
0.257169
0.257469
0.350505
0.350774
0.519281
0.519715
0.595457
0.596738
0.970823
0.547826
1.01141
0.560581
0.980375
0.549553
1.01908
0.562129
1.09357
0.610675
1.04656
0.582971
1.10344
0.612615
1.0549
0.584655
1.15082
0.633849
1.16093
0.635898
0.134061
0.113099
0.0926618
0.0863158
0.0740883
0.0369499
0.000836673
0.00489915
0.0183225
0.041878
0.112687
0.207247
0.130341
0.0817151
0.679305
0.679149
0.649404
0.649278
1.00862
0.621696
0.635431
1.00739
1.01404
0.622378
0.634996
1.0057
0.711506
0.711409
0.556103
0.980202
0.547254
1.01244
0.555902
0.979681
0.54718
1.01084
0.566634
1.03822
0.573261
1.0321
0.566982
1.04507
0.574582
1.03326
0.915309
0.502603
0.919596
0.503414
0.167013
0.175838
0.129004
0.235212
0.235616
0.325816
0.326588
0.372887
0.373367
0.456647
0.456747
0.492997
0.841048
0.481196
0.858593
0.493299
0.840702
0.481171
0.858415
0.520008
0.902858
0.522777
0.888042
0.520909
0.908085
0.524037
0.891559
0.990687
0.527529
1.02297
0.543955
0.997904
0.529138
1.02874
0.545418
1.11172
0.598509
1.05881
0.567836
1.12152
0.600626
1.06675
0.569643
0.141644
0.10977
0.0909484
0.0852114
0.0643024
0.000832172
0.00741232
0.0267669
0.0631257
0.149383
0.211087
0.196408
0.501054
0.50083
0.415197
0.415254
0.99519
0.617026
0.977698
0.626625
0.999272
0.617672
0.982158
0.627201
0.692742
0.692766
1.06846
0.592183
0.615658
1.06125
1.07347
0.593117
0.61539
1.06042
1.0088
0.62224
1.02099
0.623988
1.01184
0.622652
1.02077
0.6239
0.560019
1.04673
0.561814
1.0401
0.560657
1.05285
0.563062
1.04349
0.173999
0.212905
0.247811
0.29557
0.509925
0.509314
0.476462
0.476531
0.51601
0.5162
0.814186
0.453755
0.43454
0.759414
0.814647
0.453555
0.43445
0.761457
0.486961
0.925585
0.476465
0.937408
0.487504
0.926185
0.476622
0.93939
0.501177
0.955412
0.507822
0.956714
0.50221
0.961339
0.509175
0.960897
1.00032
0.520791
1.00797
0.522436
0.134905
0.0999225
0.0895977
0.0837837
0.00155015
0.015757
0.0474922
0.0905845
0.131206
0.12792
0.20361
0.203741
0.324879
0.324814
0.567993
0.56782
0.460609
0.460315
1.03534
0.585011
1.0213
0.606092
1.03984
0.585956
1.02459
0.606743
0.61268
0.932322
0.598631
0.991205
0.612919
0.935572
0.59901
0.992405
1.07524
0.573326
0.589786
1.07582
1.07696
0.573826
0.589401
1.07383
1.04763
0.582203
1.0628
0.591498
1.0523
0.583086
1.06422
0.591735
0.161528
0.212924
0.285482
0.438457
0.836676
0.835773
0.756494
0.754844
0.705537
0.703087
0.988101
0.481707
0.948127
0.480904
0.980547
0.479933
0.937695
0.477928
0.942717
0.477762
0.947104
0.475276
0.867576
0.447471
0.938728
0.476772
0.944749
0.474764
0.869201
0.447517
0.916195
0.463253
0.91751
0.463409
0.487374
0.988459
0.483412
0.977699
0.487892
0.989581
0.483648
0.979738
0.116946
0.0925649
0.0977231
0.00503664
0.032048
0.063424
0.0857079
0.0882967
0.126246
0.201826
0.201973
0.23559
0.235536
0.778389
0.946319
0.49941
0.705918
0.464944
0.558509
0.948867
0.77915
0.558958
0.499482
0.707921
0.465133
0.383709
0.339381
0.483996
0.364394
0.388241
0.339547
0.486175
0.364535
1.02277
0.562914
1.02975
0.577943
1.02617
0.563714
1.03179
0.578433
0.577233
1.01477
0.577538
1.01606
0.582451
1.07327
0.582213
1.07196
1.03492
0.567188
1.03965
0.56811
0.136386
0.188227
0.265924
0.42283
1.1365
1.13619
1.03751
1.03677
0.948611
0.946054
0.914587
0.912294
0.601716
1.25587
0.620548
1.27476
0.532964
1.12548
0.601232
1.25208
0.61894
1.27312
0.532082
1.12297
1.11684
0.517671
1.1131
0.516747
1.07247
0.504782
1.0656
0.979125
0.500184
0.47206
1.06971
0.504028
1.06277
0.979285
0.499566
0.471969
0.994122
0.479221
0.994485
0.47929
0.100844
0.108016
0.0147158
0.0464891
0.0643674
0.0614938
0.0726631
0.171998
0.172054
0.137734
0.13777
0.193596
0.193809
0.175504
0.175581
0.914242
0.750634
0.457136
0.528664
0.636443
0.397985
0.91662
0.751955
0.529065
0.457344
0.639039
0.398429
0.235885
0.232997
0.373219
0.283528
0.23821
0.233274
0.374871
0.283855
1.02491
0.56899
1.02664
0.56941
0.114737
0.154301
0.222279
0.348033
0.719549
1.1632
1.16214
1.08894
1.08714
1.58923
0.817962
1.59933
0.795034
1.58217
0.815671
1.59426
0.793926
1.52902
1.38716
0.753201
1.55131
0.772701
0.674412
1.52255
1.38255
0.751827
1.54585
0.771437
0.673198
0.645276
0.580647
1.3392
1.24125
0.644798
0.580238
1.33701
1.24007
1.20769
0.564297
1.20618
0.563831
1.16387
0.54328
1.03282
0.490176
1.1616
0.542552
1.03215
0.489915
0.115369
0.0276459
0.0515783
0.0527556
0.0560179
0.092107
0.11854
0.118621
0.101099
0.101012
0.111179
0.211276
0.133419
0.188292
0.111385
0.211217
0.1334
0.18909
0.123103
0.123338
0.193865
0.162766
0.260899
0.226185
0.194874
0.16308
0.262211
0.226518
0.120634
0.12819
0.169563
0.266817
0.482608
1.37525
1.37509
1.33508
1.33373
1.15545
1.154
1.16686
1.16497
1.70771
0.852948
1.65677
0.824953
1.71189
0.853834
1.66387
0.826512
1.48206
1.54668
0.726948
0.775415
1.59859
0.801226
1.47512
1.54581
0.775213
0.725449
1.60396
0.802322
0.614901
1.29183
0.614959
1.29234
0.03792
0.0474756
0.0504964
0.0600474
0.147715
0.147605
0.228612
0.22884
0.0834536
0.0836088
0.0764721
0.0763005
0.0895319
0.13709
0.0957733
0.140256
0.0899486
0.138165
0.096052
0.141709
0.143492
0.0861259
0.138875
0.086998
0.143636
0.0861693
0.139957
0.0872909
0.132877
0.113649
0.13372
0.113862
0.124762
0.13577
0.184844
0.327018
0.719966
1.30657
1.30593
1.30008
1.29845
1.24862
1.24502
0.916081
1.79776
0.898826
1.76751
0.914813
1.7941
0.898113
1.7634
1.74995
0.874369
1.68327
0.852874
1.7544
0.875392
1.69369
0.855015
0.041265
0.0477798
0.0503819
0.0758946
0.106597
0.106506
0.188898
0.189084
0.115171
0.0757775
0.0419916
0.0758423
0.0570702
0.0511985
0.115682
0.0759256
0.0421224
0.076315
0.0572241
0.0515247
0.0455358
0.045542
0.0883308
0.127397
0.0944921
0.13122
0.0886273
0.128472
0.0947618
0.132345
0.119952
0.0814077
0.120596
0.0815627
0.126166
0.135229
0.202766
0.415298
1.19951
1.1991
1.27382
1.27311
1.21468
1.21526
1.27814
1.27757
1.86587
0.969525
1.90301
0.951851
1.85942
0.931955
1.8556
0.966114
1.895
0.949975
1.85196
0.930361
1.83361
0.911296
1.83059
0.910669
1.77097
0.893156
1.77469
0.89385
0.0408075
0.0472742
0.0485676
0.146851
0.146938
0.161684
0.161508
0.0723006
0.0722214
0.127353
0.127721
0.0912853
0.0675284
0.0370574
0.0548305
0.0483688
0.040297
0.0918069
0.0676656
0.0371445
0.0552038
0.048497
0.0405103
0.0436352
0.0375654
0.0310798
0.0299666
0.0434678
0.0375093
0.0311173
0.0300012
0.121984
0.124889
0.223316
0.557623
1.12962
1.128
1.22786
1.2261
1.29731
1.29844
1.90297
0.966827
0.994548
1.92944
0.989525
1.84747
0.998032
1.93703
0.991505
1.86184
1.90102
0.966328
1.87841
1.8594
0.944388
0.928478
1.87287
1.85318
0.943255
0.927108
1.82092
0.913393
1.81585
0.912305
0.0390935
0.030795
0.0618392
0.12323
0.123233
0.152157
0.152108
0.0387641
0.0342775
0.0668298
0.0755666
0.0473229
0.11696
0.0386759
0.0342414
0.0665895
0.07593
0.0473175
0.116231
0.0890206
0.0890793
0.0344626
0.034473
0.0345497
0.0346724
0.0322332
0.0323941
0.0322547
0.0324012
0.109494
0.10399
0.24024
0.783895
0.782645
0.930379
0.928463
0.972426
0.969805
1.15595
1.15066
1.85304
0.989915
1.97626
1.01908
1.9555
1.01264
1.84424
1.97071
1.01623
0.987036
1.98241
1.02056
1.89836
0.966197
1.92412
0.992576
1.9434
1.89904
0.996597
0.966525
0.0142552
0.0580863
0.080973
0.135334
0.135339
0.151248
0.151268
0.0412759
0.0355455
0.0562262
0.061806
0.0458055
0.0779021
0.0411828
0.0355342
0.0560474
0.0615994
0.0456285
0.0775711
0.160586
0.0996666
0.12642
0.0723296
0.160679
0.0995793
0.12651
0.0722461
0.0373557
0.0357296
0.0373212
0.0357227
0.0888422
0.0805009
0.235989
0.672055
0.669759
0.798159
0.794901
0.931158
0.926947
1.87921
0.96789
0.794459
1.68831
0.868893
1.44236
1.87209
0.966
0.791459
1.6726
0.865546
1.43227
1.92965
1.94573
0.997069
1.01436
1.96233
1.01757
1.93116
0.9973
0.0323035
0.0941949
0.0643677
0.155367
0.155457
0.0642688
0.174259
0.173953
0.149704
0.157056
0.0980911
0.149638
0.157192
0.0980205
0.0437263
0.0387244
0.051608
0.0563999
0.048964
0.0800475
0.0434858
0.0387742
0.051489
0.0571342
0.048627
0.0801202
0.117198
0.0703254
0.117197
0.0702385
0.0669068
0.0651303
0.162549
0.503746
0.500845
0.66927
0.664491
1.12503
0.636233
1.32179
0.670896
1.4451
0.746525
1.11174
1.43444
0.744004
0.631002
1.31578
0.669586
1.80411
0.929012
1.55419
0.803838
1.79107
0.926564
1.54436
0.802236
1.8606
0.972744
1.85501
0.971828
0.103694
0.0575325
0.0667372
0.107048
0.0665159
0.106478
0.151107
0.151044
0.114727
0.206833
0.116078
0.181919
0.110844
0.0927808
0.0821853
0.108934
0.204085
0.11366
0.115408
0.180994
0.110631
0.0923876
0.0821033
0.107809
0.052071
0.0742031
0.0519494
0.074143
0.147713
0.0833361
0.146953
0.0830844
0.0501985
0.0494463
0.167222
0.428182
0.424541
0.165131
0.263623
0.260539
0.596193
1.10568
0.591125
0.592793
1.09738
0.58834
1.35974
1.23272
0.693622
0.620409
1.3602
0.693949
1.232
0.620175
1.6587
0.878126
1.41792
0.747813
1.64533
0.876306
1.41838
0.748459
0.0226258
0.053099
0.0935789
0.105846
0.121742
0.0803588
0.0927834
0.106252
0.121924
0.0796374
0.109308
0.10945
0.154239
0.145922
0.193324
0.099533
0.0839071
0.0974854
0.152558
0.190681
0.146899
0.0988516
0.0834575
0.0978161
0.0700964
0.115254
0.0699087
0.114822
0.0394314
0.0536024
0.186696
0.339681
0.335176
0.182947
0.242505
0.237299
0.779765
0.971855
0.512385
1.04697
0.556586
0.422108
0.573336
0.397453
0.775877
0.967864
0.511118
1.03778
0.553743
0.421373
0.562537
0.391759
1.26725
1.1682
0.646923
0.589796
1.27519
0.648401
1.1628
0.588743
0.0100615
0.0919591
0.0967594
0.0969536
0.0926244
0.114012
0.113673
0.120915
0.102147
0.144624
0.0951414
0.124444
0.130801
0.109276
0.0891038
0.0854765
0.120517
0.106503
0.122626
0.102207
0.147208
0.0949275
0.124489
0.126197
0.107483
0.0879793
0.084665
0.123395
0.104079
0.118783
0.143585
0.0839623
0.0938385
0.119086
0.14292
0.0841253
0.0937662
0.0335289
0.0529383
0.157022
0.339052
0.352215
0.570816
0.33251
0.351497
0.568129
0.151887
0.213612
0.205066
0.856957
0.682748
1.08325
0.460315
0.5533
0.3757
0.860486
0.680656
1.07495
0.552024
0.460868
0.375109
1.20027
0.615228
1.20251
0.615612
0.00637554
0.0790211
0.0703838
0.0794397
0.0708011
0.0693226
0.0690267
0.162965
0.146182
0.085039
0.0993077
0.12839
0.0753687
0.0754733
0.0946925
0.0686392
0.111883
0.0923374
0.0709559
0.10606
0.129788
0.161978
0.149125
0.0990244
0.0854935
0.127872
0.0746778
0.0940019
0.0735656
0.0673457
0.113409
0.0901211
0.0697416
0.106035
0.127418
0.0286336
0.021703
0.152809
0.14848
0.0217769
0.0722884
0.0725698
0.31824
0.333579
0.549199
0.307153
0.560905
0.332288
0.429378
0.248309
0.298779
0.331045
0.535318
0.303009
0.553488
0.318699
0.408972
0.243501
0.219619
0.304492
0.249602
0.212024
0.286117
0.239366
0.739942
0.62893
0.421602
0.355252
0.745962
0.622595
0.422049
0.354079
0.00290047
0.0614402
0.101005
0.091389
0.0392947
0.0615163
0.102217
0.0912763
0.0393395
0.0362531
0.0359873
0.143551
0.0834691
0.10694
0.0660608
0.0718591
0.078005
0.0913144
0.0572514
0.0446264
0.0496491
0.143394
0.083515
0.104799
0.0654709
0.0720655
0.0905007
0.0765308
0.057023
0.043991
0.0490965
0.0236483
0.0371917
0.106688
0.103133
0.0375618
0.0559765
0.0555107
0.615151
0.488409
0.343757
0.258948
0.351191
0.198125
0.606804
0.466913
0.342415
0.255231
0.33462
0.194614
0.244991
0.279217
0.168585
0.297995
0.210671
0.177592
0.221966
0.326579
0.228887
0.267605
0.165172
0.28047
0.202442
0.170913
0.210705
0.314509
0.00166167
0.0225266
0.0224411
0.0490298
0.0963523
0.0689445
0.0962918
0.0763599
0.0278115
0.0491075
0.0964498
0.0681415
0.09414
0.0753897
0.0276082
0.0756775
0.0640882
0.0647341
0.0493882
0.0398782
0.0419229
0.0758007
0.0629669
0.0629939
0.0495095
0.0393652
0.0412273
0.0220052
0.0233929
0.109703
0.231449
0.179171
0.105653
0.231183
0.173109
0.0243038
0.0437597
0.0444571
0.412195
0.234674
0.316727
0.182553
0.391434
0.232242
0.30416
0.180569
0.232875
0.183155
0.286458
0.127884
0.165424
0.110354
0.220171
0.167205
0.277947
0.164112
0.125186
0.106464
0.000769464
0.0138347
0.0132037
0.0136897
0.0131495
0.0423941
0.0824589
0.0571778
0.088313
0.0548404
0.0604571
0.0399319
0.0207165
0.0423038
0.0847249
0.0572212
0.0876881
0.0544481
0.0594893
0.0393362
0.0202554
0.0588857
0.0379079
0.0588852
0.0376402
0.0248892
0.0177276
0.0179263
0.0960146
0.242876
0.191306
0.250638
0.179643
0.0939788
0.237573
0.177078
0.2379
0.170582
0.0291575
0.0291623
0.191632
0.233948
0.185379
0.120175
0.1408
0.111147
0.178915
0.227695
0.167206
0.139886
0.118198
0.10749
0.000805498
0.0134978
0.0140895
0.0134992
0.0141392
0.0190057
0.0186031
0.0382312
0.0775081
0.048199
0.0770531
0.0500959
0.0387387
0.0558688
0.0383964
0.0536925
0.05554
0.0368288
0.0383203
0.078265
0.047977
0.0762134
0.0495864
0.0381054
0.0551125
0.0380348
0.0517568
0.0562333
0.0368212
0.0310845
0.0165779
0.0188129
0.0166836
0.0185823
0.0776167
0.218489
0.179916
0.237936
0.160886
0.175325
0.106647
0.0757982
0.220148
0.16952
0.229859
0.159768
0.158657
0.103823
0.0193111
0.0206161
0.190886
0.125031
0.175117
0.123347
0.00069777
0.016131
0.0187992
0.016115
0.0186796
0.0188166
0.0181349
0.0186766
0.0180823
0.0356409
0.0356827
0.0721225
0.0440918
0.0738856
0.0425699
0.035902
0.0385941
0.0325047
0.0439308
0.0484299
0.0538867
0.038792
0.0552149
0.0745211
0.0445191
0.0740299
0.0433688
0.0355163
0.0377308
0.0322503
0.0426971
0.0481298
0.0546468
0.0388738
0.0552874
0.0379699
0.0245552
0.0322311
0.0243385
0.0321134
0.0149786
0.0172647
0.0646848
0.202413
0.153343
0.207602
0.151765
0.10826
0.162646
0.104563
0.156272
0.187169
0.12272
0.0635762
0.202057
0.145698
0.199347
0.151258
0.10774
0.147646
0.102692
0.14661
0.170338
0.12171
0.000353205
0.0191842
0.0186772
0.0189905
0.0182683
0.0209289
0.0246983
0.0208662
0.0246284
0.0317011
0.0298099
0.0315302
0.0295077
0.0742736
0.0383467
0.0747594
0.0403158
0.0765986
0.0389513
0.0768792
0.0409505
0.0305224
0.0355743
0.0315212
0.033257
0.0302669
0.0346782
0.0311903
0.0322232
0.0392598
0.0359267
0.0295195
0.0361629
0.029964
0.0218793
0.0372149
0.0230263
0.0370223
0.0551376
0.0558186
0.183883
0.136832
0.196772
0.121882
0.11738
0.147676
0.133801
0.158657
0.108844
0.164397
0.106992
0.152156
0.187834
0.130799
0.190089
0.124272
0.117774
0.143692
0.133691
0.15396
0.111376
0.148745
0.107602
0.138555
0.0062868
0.00045265
0.0225493
0.0125481
0.022365
0.0123069
0.0301316
0.0351611
0.0297863
0.0347372
0.0761044
0.0354279
0.0752053
0.0355857
0.0766174
0.0361856
0.0813175
0.0349092
0.0784378
0.0360007
0.0773921
0.0361051
0.0784414
0.0357025
0.0799585
0.0352349
0.0279723
0.026687
0.0269786
0.0291261
0.0280467
0.0265592
0.0271057
0.0287166
0.0475877
0.0237488
0.0360527
0.0236591
0.0357718
0.046549
0.0405025
0.0465534
0.041005
0.0565176
0.0691445
0.0570152
0.0682374
0.186496
0.124104
0.198436
0.11691
0.191145
0.123598
0.197619
0.119944
0.0965703
0.105674
0.103641
0.103351
0.0965801
0.102843
0.103423
0.103184
0.00155659
0.0253778
0.018721
0.0251301
0.018805
0.000770984
0.0399442
0.0376134
0.039234
0.0367063
0.0847506
0.0375632
0.0823316
0.0375263
0.096568
0.0494532
0.105974
0.0439963
0.0861194
0.0369214
0.0809209
0.0377231
0.0989548
0.0479597
0.102454
0.0444019
0.0240666
0.0237209