/*--------------------------------*- C++ -*----------------------------------*\
| =========                 |                                                 |
| \\      /  F ield         | OpenFOAM: The Open Source CFD Toolbox           |
|  \\    /   O peration     | Version:  5.x                                   |
|   \\  /    A nd           | Web:      www.OpenFOAM.org                      |
|    \\/     M anipulation  |                                                 |
\*---------------------------------------------------------------------------*/
FoamFile
{
    version     2.0;
    format      ascii;
    class       surfaceScalarField;
    location    "2.5";
    object      meshPhi;
}
// * * * * * * * * * * * * * * * * * * * * * * * * * * * * * * * * * * * * * //

dimensions      [0 3 -1 0 0 0 0];

internalField   nonuniform List<scalar> 
30582
(
0
0
0
0
0
0
0
0
0
0
0
0
0
0
0
0
0
0
0
0
0
0
0
0
0
0
0
0
0
0
0
0
0
0
0
0
0
0
0
0
0
0
0
0
0
0
0
0
0
0
0
0
0
0
0
0
0
0
0
0
0
0
0
0
0
0
0
0
0
0
0
0
0
0
0
0
0
0
0
0
0
0
0
0
0
0
0
0
0
0
0
0
0
0
0
0
0
0
0
0
0
0
0
0
0
0
0
0
0
0
0
0
0
0
0
0
0
0
0
0
0
0
0
0
0
0
0
0
0
0
0
0
0
0
0
0
0
0
0
0
0
0
0
0
0
0
0
0
0
0
0
0
0
0
0
0
0
0
0
0
0
0
0
0
0
0
0
0
0
0
0
0
0
0
0
0
0
0
0
0
0
0
0
0
0
0
0
0
0
0
0
0
0
0
0
0
0
0
0
0
0
0
0
0
0
0
0
0
0
0
0
0
0
0
0
0
0
0
0
0
0
0
0
0
0
0
0
0
0
0
0
0
0
0
0
0
0
0
0
0
0
0
0
0
0
0
0
0
0
0
0
0
0
0
0
0
0
0
0
0
0
0
0
0
0
0
0
0
0
0
0
0
0
0
0
0
0
0
0
0
0
0
0
0
0
0
0
0
0
0
0
0
0
0
0
0
0
0
0
0
0
0
0
0
0
0
0
0
0
0
0
0
0
0
0
0
0
0
0
0
0
0
0
0
0
0
0
0
0
0
0
0
0
0
0
0
0
0
0
0
0
0
0
0
0
0
0
0
0
0
0
0
0
0
0
0
0
0
0
0
0
0
0
0
0
0
0
0
0
0
0
0
0
0
0
0
0
0
0
0
0
0
0
0
0
0
0
0
0
0
0
0
0
0
0
0
0
0
0
0
0
0
0
0
0
0
0
0
0
0
0
0
0
0
0
0
0
0
0
0
0
0
0
0
0
0
0
0
0
0
0
0
0
0
0
0
0
0
0
0
0
0
0
0
0
0
0
0
0
0
0
0
0
0
0
0
0
0
0
0
0
0
0
0
0
0
0
0
0
0
0
0
0
0
0
0
0
0
0
0
0
0
0
0
0
0
0
0
0
0
0
0
0
0
0
0
0
0
0
0
0
0
0
0
0
0
0
0
0
0
0
0
0
0
0
0
0
0
0
0
0
0
0
0
0
0
0
0
0
0
0
0
0
0
0
0
0
0
0
0
0
0
0
0
0
0
0
0
0
0
0
0
0
0
0
0
0
0
0
0
0
0
0
0
0
0
0
0
0
0
0
0
0
0
0
0
0
0
0
0
0
0
0
0
0
0
0
0
0
0
0
0
0
0
0
0
0
0
0
0
0
0
0
0
0
0
0
0
0
0
0
0
0
0
0
0
0
0
0
0
0
0
0
0
0
0
0
0
0
0
0
0
0
0
0
0
0
0
0
0
0
0
0
0
0
0
0
0
0
0
0
0
0
0
0
0
0
0
0
0
0
0
0
0
0
0
0
0
0
0
0
0
0
0
0
0
0
0
0
0
0
0
0
0
0
0
0
0
0
0
0
0
0
0
0
0
0
0
0
0
0
0
0
0
0
0
0
0
0
0
0
0
0
0
0
0
0
0
0
0
0
0
0
0
0
0
0
0
0
0
0
0
0
0
0
0
0
0
0
0
0
0
0
0
0
0
0
0
0
0
0
0
0
0
0
0
0
0
0
0
0
0
0
0
0
0
0
0
0
0
0
0
0
0
0
0
0
0
0
0
0
0
0
0
0
0
0
0
0
0
0
0
0
0
0
0
0
0
0
0
0
0
0
0
0
0
0
0
0
0
0
0
0
0
0
0
0
0
0
0
0
0
0
0
0
0
0
0
0
0
0
0
0
0
0
0
0
0
0
0
0
0
0
0
0
0
0
0
0
0
0
0
0
0
0
0
0
0
0
0
0
0
0
0
0
0
0
0
0
0
0
0
0
0
0
0
0
0
0
0
0
0
0
0
0
0
0
0
0
0
0
0
0
0
0
0
0
0
0
0
0
0
0
0
0
0
0
0
0
0
0
0
0
0
0
0
0
0
0
0
0
0
0
0
0
0
0
0
0
0
0
0
0
0
0
0
0
0
0
0
0
0
0
0
0
0
0
0
0
0
0
0
0
0
0
0
0
0
0
0
0
0
0
0
0
0
0
0
0
0
0
0
0
0
0
0
0
0
0
0
0
0
0
0
0
0
0
0
0
0
0
0
0
0
0
0
0
0
0
0
0
0
0
0
0
0
0
0
0
0
0
0
0
0
0
0
0
0
0
0
0
0
0
0
0
0
0
0
0
0
0
0
0
0
0
0
0
0
0
0
0
0
0
0
0
0
0
0
0
0
0
0
0
0
0
0
0
0
0
0
0
0
0
0
0
0
0
0
0
0
0
0
0
0
0
0
0
0
0
0
0
0
0
0
0
0
0
0
0
0
0
0
0
0
0
0
0
0
0
0
0
0
0
0
0
0
0
0
0
0
0
0
0
0
0
0
0
0
0
0
0
0
0
0
0
0
0
0
0
0
0
0
0
0
0
0
0
0
0
0
0
0
0
0
0
0
0
0
0
0
0
0
0
0
0
0
0
0
0
0
0
0
0
0
0
0
0
0
0
0
0
0
0
0
0
0
0
0
0
0
0
0
0
0
0
0
0
0
0
0
0
0
0
0
0
0
0
0
0
0
0
0
0
0
0
0
0
0
0
0
0
0
0
0
0
0
0
0
0
0
0
0
0
0
0
0
0
0
0
0
0
0
0
0
0
0
0
0
0
0
0
0
0
0
0
0
0
0
0
0
0
0
0
0
0
0
0
0
0
0
0
0
0
0
0
0
0
0
0
0
0
0
0
0
0
0
0
0
0
0
0
0
0
0
0
0
0
0
0
0
0
0
0
0
0
0
0
0
0
0
0
0
0
0
0
0
0
0
0
0
0
0
0
0
0
0
0
0
0
0
0
0
0
0
0
0
0
0
0
0
0
0
0
0
0
0
0
0
0
0
0
0
0
0
0
0
0
0
0
0
0
0
0
0
0
0
0
0
0
0
0
0
0
0
0
0
0
0
0
0
0
0
0
0
0
0
0
0
0
0
0
0
0
0
0
0
0
0
0
0
0
0
0
0
0
0
0
0
0
0
0
0
0
0
0
0
0
0
0
0
0
0
0
0
0
0
0
0
0
0
0
0
0
0
0
0
0
0
0
0
0
0
0
0
0
0
0
0
0
0
0
0
0
0
0
0
0
0
0
0
0
0
0
0
0
0
0
0
0
0
0
0
0
0
0
0
0
0
0
0
0
0
0
0
0
0
0
0
0
0
0
0
0
0
0
0
0
0
0
0
0
-3.41673e-18
1.20502e-17
-4.88925e-25
3.61461e-17
1.80694e-17
2.41118e-17
0
0
0
0
0
0
0
0
0
0
0
0
0
0
0
0
0
0
0
0
0
0
0
0
0
0
0
0
0
0
0
0
0
0
0
0
0
0
6.01088e-18
1.89236e-34
-8.76806e-19
1.39312e-25
3.00943e-17
-2.4097e-17
-3.35941e-18
3.61461e-17
-6.02348e-18
3.61568e-17
-1.7438e-18
-3.81985e-25
-6.01931e-17
4.36318e-34
-2.58228e-18
3.61269e-17
8.73202e-18
-6.02116e-17
0
0
0
0
0
0
0
0
0
0
0
0
0
0
0
0
0
0
0
0
0
0
0
0
0
0
0
0
0
0
0
0
0
0
0
0
0
1.00135e-18
-5.18673e-18
3.80612e-17
-4.23074e-20
-7.203e-17
-2.39883e-17
4.81171e-17
-1.57987e-35
-1.71834e-18
1.80566e-17
2.1937e-33
-8.8635e-19
2.4356e-25
3.00232e-17
0
1.02328e-16
-1.00703e-20
-4.81545e-17
-2.68988e-35
8.41958e-19
3.61269e-17
8.73202e-18
-3.61284e-17
-5.43322e-20
3.83265e-24
-3.60344e-17
3.36316e-34
-7.9068e-21
-4.80417e-17
0
0
0
0
0
0
0
0
0
0
0
0
0
0
0
0
0
0
0
0
0
0
0
0
0
0
0
0
0
0
0
0
0
0
0
1.89055e-17
3.60308e-17
2.39844e-17
6.07291e-18
6.15437e-20
2.83332e-34
1.08413e-19
6.49824e-20
4.2057e-17
1.38344e-17
-3.31987e-18
-2.36927e-17
-2.18288e-34
2.8963e-19
1.79542e-17
-3.23607e-18
-2.3941e-17
1.29572e-34
9.49846e-20
-6.01083e-18
0
5.15235e-19
1.04694e-23
1.04641e-17
-1.79284e-17
1.34503e-17
-1.79539e-17
0
0
2.50193e-18
-5.14106e-18
2.45805e-17
1.53254e-20
3.60996e-17
1.1959e-17
-7.203e-17
-1.08664e-19
-4.80458e-17
-2.73538e-34
-1.20183e-17
-9.6132e-17
0
-4.87227e-24
2.69146e-17
-2.98713e-18
2.68967e-17
-5.99609e-18
0
-1.19959e-17
3.09736e-18
-1.20928e-17
1.19907e-17
-1.49976e-17
1.20754e-17
-1.51548e-17
3.01018e-18
0
0
0
0
0
0
0
0
0
0
0
0
0
0
0
0
0
0
0
0
0
0
0
0
0
0
0
0
0
0
0
0
0
-1.65817e-17
3.0146e-17
-2.40655e-17
1.80663e-17
1.21966e-17
-9.48518e-35
-5.18609e-18
3.59909e-17
3.27571e-18
-4.78812e-17
-3.55273e-34
1.22088e-17
1.80943e-17
0
-4.83607e-17
1.23309e-35
-2.56869e-11
-6.91537e-12
-2.56933e-09
1.03334e-13
-3.79606e-13
2.0157e-08
2.9414e-13
2.04013e-08
-1.79128e-10
1.09158e-18
-2.10945e-19
6.89609e-19
2.11872e-19
-6.09385e-18
2.335e-17
1.531e-18
1.44619e-17
2.78362e-18
4.50544e-34
-1.06588e-15
1.19247e-12
1.99426e-08
-1.59185e-14
4.02483e-08
8.42723e-19
1.4622e-18
3.27404e-17
5.96611e-18
4.17542e-17
0
-4.66678e-19
1.34631e-17
-5.98092e-18
1.94225e-17
-1.19568e-17
9.79141e-19
1.00084e-19
0
-6.24208e-19
1.04304e-17
9.97208e-20
1.00883e-18
5.61716e-23
-1.18963e-17
0
8.56981e-22
-1.91417e-15
1.16816e-18
-1.19099e-17
0
0
-4.91755e-17
6.07309e-18
1.21476e-17
-2.0826e-20
2.39844e-17
0
1.72402e-18
1.5712e-18
5.98189e-18
-8.64115e-18
-3.23593e-18
-2.57473e-33
0
1.96219e-22
1.79683e-17
-3.45035e-18
-1.19461e-17
-9.94726e-20
1.6444e-17
-5.97516e-18
1.04624e-17
-5.9882e-18
0
-1.1986e-17
6.09524e-18
-1.80871e-17
1.19834e-17
-1.79814e-17
1.50873e-17
-1.51255e-17
5.99931e-18
1.48323e-18
9.99409e-20
-1.70237e-18
1.04148e-17
0
9.95684e-20
-1.04323e-25
-1.04194e-17
-1.15943e-25
7.44259e-18
0
2.06351e-21
-1.69379e-18
0
0
2.38099e-17
9.90832e-20
-1.61147e-18
1.19247e-12
0
1.68624e-10
-1.77993e-17
-1.21764e-18
1.9891e-19
2.0802e-17
9.88548e-20
-1.61078e-18
-1.19941e-17
4.51401e-17
-1.19122e-17
0
0
0
0
0
0
0
0
0
0
0
0
0
0
0
0
0
0
0
0
0
0
0
0
0
0
0
0
0
0
0
6.70261e-18
2.09466e-20
-1.19848e-17
1.22096e-17
-1.21523e-17
-3.02909e-35
-1.51839e-18
-1.81404e-17
1.68787e-17
-4.81351e-17
-4.26446e-35
-1.18143e-19
5.98557e-18
1.3925e-17
-2.40007e-17
1.33481e-25
5.78605e-09
-4.29292e-12
1.80804e-08
9.97365e-11
1.98319e-08
1.26504e-08
-5.88793e-18
2.40849e-17
1.88974e-12
-1.44945e-10
-4.63831e-27
-5.63809e-09
4.71493e-10
1.81932e-09
-1.6818e-10
5.80054e-10
-1.23251e-08
-1.74068e-12
-9.01825e-10
-1.53698e-12
2.95406e-10
-4.81428e-24
-3.99951e-19
-1.3858e-18
-1.21632e-12
9.74765e-20
-2.78245e-13
-1.76896e-13
7.32525e-16
-1.47851e-34
-2.14747e-08
-1.06156e-15
-2.37248e-24
6.43936e-13
2.3997e-17
-4.15115e-34
-1.13383e-10
-5.95854e-18
0
2.61405e-09
1.97965e-08
9.74221e-20
-5.95918e-19
-1.20843e-17
0
7.51444e-19
-9.35161e-20
1.30496e-17
-1.59204e-18
4.96612e-18
7.5854e-19
-8.1561e-20
-2.17303e-19
1.79919e-17
-1.47048e-18
-2.84716e-17
6.18357e-19
2.0943e-17
8.71484e-20
-6.35986e-13
8.58584e-12
1.58997e-12
5.67618e-11
1.41022e-34
2.37379e-08
-2.51237e-09
-4.64812e-24
2.39519e-17
-5.27597e-35
-1.94961e-17
0
6.45899e-19
1.69942e-18
5.84243e-18
-1.20432e-18
-1.39593e-17
5.0314e-18
8.42762e-20
1.19622e-17
-2.24799e-17
8.18352e-19
1.00084e-19
0
-1.25116e-18
1.34182e-17
9.97206e-20
8.99018e-19
-1.48707e-17
0
-1.90522e-15
6.61489e-19
-2.38714e-17
-2.71315e-09
-1.0032e-19
0
2.55671e-09
3.0798e-11
9.89012e-20
1.43098e-13
1.14408e-21
-3.80736e-13
0
6.10259e-21
1.9992e-08
9.54002e-14
-1.98806e-14
0
0
-1.65817e-17
1.81667e-17
-1.19936e-17
-6.08037e-18
-1.19496e-17
5.64256e-34
4.98161e-18
1.6322e-18
1.21321e-17
-3.54847e-18
1.32238e-19
0
-6.72986e-34
6.04929e-18
0
0
2.48554e-16
2.21819e-08
-4.76991e-12
2.13934e-08
-8.93553e-18
-7.43573e-15
-2.96124e-18
8.42621e-19
-1.18076e-17
1.50833e-17
-5.96593e-18
3.28007e-17
0
-2.44458e-12
-1.77232e-10
8.74299e-14
-1.55221e-12
2.10095e-08
-1.84701e-17
-1.14903e-14
-2.79414e-09
1.25245e-21
2.84506e-18
-1.48399e-18
3.9806e-20
5.10877e-17
-7.48596e-18
4.8149e-17
4.77078e-18
1.21277e-18
9.99413e-20
-1.72832e-18
3.13225e-17
9.95424e-20
9.95735e-20
-1.48847e-18
1.78617e-17
-2.87359e-36
-2.98675e-18
-1.21787e-18
1.99192e-19
0
2.9776e-17
2.37545e-24
-1.79374e-18
6.51864e-13
0
2.03612e-08
-2.08119e-17
-1.5821e-18
9.94538e-20
3.42457e-17
0
-1.75031e-18
-2.98335e-18
2.09043e-17
1.19541e-33
7.96972e-19
-2.00575e-19
-3.48114e-18
3.2867e-17
0
3.62391e-19
-2.68987e-24
-1.22961e-21
-1.24253e-23
5.92435e-17
1.22237e-19
-2.98624e-18
-9.95886e-20
0
-1.99288e-08
-1.92783e-13
-9.95549e-20
1.16754e-17
-4.40006e-18
0
0
0
0
0
0
0
0
0
0
0
0
0
0
0
0
0
0
0
0
0
0
0
0
0
0
0
0
0
-2.05626e-17
3.01721e-17
-2.81742e-20
-5.99866e-18
-5.70204e-20
-1.07593e-33
-2.99759e-18
2.39435e-17
2.71643e-17
-2.38791e-17
-1.65162e-33
7.15805e-18
-2.41478e-17
7.16027e-18
-2.3665e-17
-4.7614e-26
-5.52605e-09
1.93907e-10
-2.04046e-08
-4.95388e-09
-2.04105e-08
-1.20819e-08
1.12457e-12
-3.77344e-10
-9.93737e-13
9.89526e-09
-1.45064e-26
8.18188e-11
-5.11487e-09
2.04917e-08
-5.02427e-09
2.03062e-08
1.73768e-10
4.91896e-13
1.02441e-08
9.19197e-13
1.00402e-08
9.05395e-20
7.71134e-12
-1.58995e-12
2.46894e-08
-1.344e-34
-2.51036e-09
-1.87611e-19
-6.29822e-09
3.85101e-17
1.85743e-26
-2.23755e-12
-2.6636e-17
0
-4.35674e-18
6.13812e-18
8.1311e-19
-1.57439e-17
-9.36928e-20
2.37667e-12
1.48021e-17
1.25949e-08
-4.28831e-17
-9.48843e-20
-8.58583e-12
5.96529e-09
1.86483e-17
-2.45397e-08
1.84296e-26
2.22923e-12
-3.76584e-15
9.62773e-20
3.04213e-17
-1.74748e-26
-1.51421e-17
-1.89569e-19
-1.8437e-18
-2.22761e-12
1.07756e-17
8.85539e-18
-1.19288e-08
8.09199e-18
9.61807e-20
1.82526e-17
-2.4199e-17
-7.27935e-20
5.56489e-13
-4.82484e-25
-3.30307e-18
-1.81535e-16
-9.69179e-35
1.59719e-34
3.39761e-09
-6.78924e-20
7.94972e-14
-5.69424e-34
-1.07517e-08
-1.76938e-33
6.52858e-20
-3.86428e-34
-1.00495e-18
-1.4144e-18
2.48369e-18
-3.39697e-20
-5.96827e-19
2.37061e-19
6.62513e-25
1.13859e-18
-2.02053e-19
-1.56361e-18
-1.70081e-35
6.09527e-16
4.42044e-20
-5.72101e-34
-5.21328e-34
1.69353e-19
-9.62653e-19
-1.52838e-18
-2.83623e-18
0
9.99133e-11
-2.0063e-19
0
2.64199e-09
-2.01762e-08
0
8.31901e-19
1.67499e-14
0
-2.00103e-08
3.97505e-14
-1.88818e-13
-1.49299e-09
0
9.60902e-34
1.67995e-09
1.03962e-19
-1.43097e-13
-6.35159e-21
4.506e-34
-1.09491e-20
-9.5398e-14
0
0
6.98466e-18
1.21503e-17
-1.6184e-32
-1.20049e-17
-1.20261e-17
1.7449e-35
1.03527e-17
-4.75622e-19
5.95686e-18
-1.67637e-17
1.41656e-17
-7.20624e-17
1.52464e-35
5.92681e-18
-4.80543e-17
2.03399e-26
-5.78598e-09
-5.63816e-09
4.76818e-10
2.24902e-08
-1.72344e-10
2.09593e-08
-1.26505e-08
-1.23251e-08
-1.80528e-12
-9.01795e-10
-1.53366e-12
2.95436e-10
-5.85311e-25
-1.47073e-12
3.97729e-08
9.94591e-11
1.9832e-08
-4.41575e-18
1.80636e-17
1.89637e-12
-1.44886e-10
-8.71623e-20
-6.8729e-19
-8.5262e-12
-5.5649e-13
-5.3457e-16
0
-2.37374e-08
-1.97329e-08
-8.43182e-20
2.37566e-18
2.09813e-17
0
-2.74889e-16
-1.78901e-17
8.70965e-20
4.15081e-19
8.66747e-19
4.63522e-20
6.08212e-19
-5.96712e-18
7.6046e-18
-8.42665e-20
8.43803e-19
8.96511e-18
-1.15163e-18
-2.83939e-17
0
-1.78462e-18
-8.1486e-13
-1.21631e-12
9.7475e-20
1.82846e-13
3.00103e-13
5.50057e-17
0
-2.14746e-08
-4.38011e-09
8.16091e-20
2.98628e-17
0
-2.5388e-17
0
-3.07904e-10
4.13267e-08
-8.51846e-20
-7.08715e-19
4.85394e-19
-3.09105e-19
9.74223e-20
-3.69773e-19
-6.0341e-18
6.37957e-19
-5.50895e-18
4.96598e-18
8.15606e-20
1.19869e-17
-1.33547e-17
5.41068e-19
3.90136e-17
1.68007e-18
-1.00287e-19
-4.13239e-18
4.1824e-17
2.51985e-33
1.97299e-19
-2.96165e-18
3.259e-17
-2.82042e-19
-1.36579e-21
9.95832e-20
0
2.00634e-08
4.94867e-13
-9.95563e-20
3.52511e-17
-4.4125e-18
-5.21293e-19
-5.48634e-20
-6.70576e-19
-5.19501e-20
1.2872e-19
-6.734e-24
3.77004e-23
-6.74344e-20
0
2.06143e-34
-5.9286e-20
0
0
0
0
0
0
0
0
0
0
0
0
0
0
0
0
0
0
0
0
0
0
0
0
0
0
0
0
9.03805e-17
9.96893e-34
1.04765e-17
-1.20948e-17
3.38717e-17
-1.19062e-17
4.52445e-33
1.0088e-17
5.95231e-18
-2.0554e-17
-3.60989e-17
-5.92632e-25
-7.08771e-18
4.7454e-09
3.40013e-17
1.03852e-08
-7.47241e-34
-1.70497e-17
3.00303e-17
3.52535e-17
-6.00618e-17
0
-3.02094e-12
-1.7097e-17
-3.19622e-10
0
-3.79044e-15
-1.87105e-19
6.04714e-09
-2.99091e-17
0
3.03087e-12
1.19781e-17
1.8423e-19
-9.09457e-19
-4.51776e-18
-9.5099e-18
2.68589e-17
-9.34475e-20
-2.03714e-12
-1.99216e-20
-1.20904e-08
2.24499e-17
-9.53293e-20
-4.05442e-12
-1.29033e-10
3.10042e-12
-5.55396e-10
0
5.52258e-10
2.04947e-08
-9.48488e-20
-2.99355e-17
0
1.0423e-17
-9.52155e-20
-2.9801e-18
6.7574e-13
-1.20301e-17
3.44306e-18
2.73763e-10
3.29905e-17
-9.47557e-20
-1.49609e-17
2.24136e-17
-1.59895e-24
3.97488e-13
5.42974e-11
-1.63521e-34
5.74461e-20
3.97488e-13
-4.63594e-34
-1.30308e-10
5.08559e-20
-1.03949e-18
2.14743e-18
-5.74781e-20
-1.26138e-18
3.33891e-18
1.81645e-19
-7.10225e-18
1.20361e-19
1.52976e-17
-1.6141e-15
-1.52078e-34
5.20594e-16
8.56789e-15
0
-6.71047e-34
9.08275e-20
1.70583e-19
-8.36254e-19
1.65889e-18
8.06887e-18
-1.67249e-18
-4.62834e-17
-7.40367e-20
1.01386e-10
-5.49029e-20
6.50033e-34
1.45869e-09
-5.19799e-20
-8.54607e-14
2.97401e-34
-3.97492e-14
0
0
3.39394e-17
-6.01272e-18
-1.20786e-17
-1.80242e-17
2.41192e-17
-1.10969e-34
2.99759e-18
1.39641e-17
-1.10769e-19
-2.04619e-17
-8.09202e-32
-4.7999e-17
-7.55544e-34
1.18741e-17
-4.7953e-17
6.43799e-27
5.52632e-09
-1.91921e-17
-6.94618e-12
-2.04922e-08
-5.01432e-09
-2.0308e-08
1.20822e-08
2.38547e-17
-6.02717e-18
1.8071e-17
8.74472e-13
1.00404e-08
4.76141e-26
1.93674e-10
-2.04045e-08
-4.95415e-09
-2.04107e-08
1.12953e-12
-3.77299e-10
-9.93733e-13
9.89526e-09
9.4885e-20
-1.09708e-11
5.96519e-09
2.19113e-17
-2.49338e-08
0
2.22923e-12
-3.76638e-15
-1.92542e-19
6.29798e-09
3.3508e-17
0
2.16964e-12
-6.22418e-18
0
-1.93062e-18
-2.22761e-12
1.105e-17
1.28824e-17
-1.19288e-08
1.88827e-18
0
-2.30877e-12
1.22608e-17
-1.25949e-08
-2.43611e-17
1.81077e-19
8.02933e-12
5.56495e-13
2.46895e-08
0
-1.97928e-08
-1.87608e-19
1.80023e-17
0
-1.3415e-17
-8.26978e-34
-2.71195e-18
-2.74428e-18
9.22463e-19
1.60219e-17
9.36935e-20
8.9431e-18
-2.81974e-17
4.69673e-20
7.9498e-14
2.60357e-12
-1.21735e-08
0
1.3004e-08
2.49169e-24
-1.82845e-13
0
9.62295e-09
-3.59493e-33
-1.13682e-19
-1.30154e-20
8.28261e-19
-1.41841e-18
0
5.96862e-19
-2.50161e-18
1.45584e-19
1.68934e-13
-4.82486e-25
-4.09371e-18
-1.79048e-16
0
3.64376e-34
1.75847e-09
-6.78733e-20
0
7.27699e-20
1.52719e-19
-3.90051e-34
-3.58017e-19
4.64075e-18
-1.06473e-18
0
9.84648e-19
0
-1.61096e-18
-5.19527e-20
-1.51124e-20
-6.92823e-20
2.68015e-24
4.73925e-34
0
0
0
0
0
0
0
0
0
0
0
0
0
0
0
0
0
0
0
0
0
0
0
0
0
0
0
0
3.5717e-18
-1.22606e-34
-2.68389e-17
-2.41092e-17
-4.81725e-17
-9.57659e-22
-2.40927e-17
-3.55821e-33
-3.50399e-18
6.05908e-18
1.27583e-17
-3.5818e-17
-2.51791e-33
1.20657e-17
-4.80962e-17
0
-3.43328e-18
-1.27198e-12
-5.76507e-10
1.81193e-17
-2.4409e-17
-1.87526e-15
-8.91149e-18
-1.39812e-18
-3.60726e-18
1.89961e-17
2.10635e-17
-8.95006e-18
2.67976e-17
-4.05537e-20
0
1.45031e-18
4.3631e-18
-2.11249e-17
1.03614e-17
-2.40128e-17
1.70103e-17
1.34553e-17
9.07851e-18
2.54699e-17
0
0
-2.5785e-19
-1.61704e-17
-4.01878e-18
0
7.1956e-17
0
8.72919e-18
-2.07446e-17
0
-7.57339e-18
1.77226e-17
0
-1.74763e-18
1.48005e-18
-1.68699e-18
1.60367e-17
-9.21915e-20
8.34822e-19
-2.86512e-18
-8.87261e-18
2.82833e-17
-9.6537e-20
-1.09242e-17
-7.83691e-18
6.68004e-18
0
-1.79784e-15
1.10213e-33
-5.84298e-18
0
4.38227e-18
-8.5948e-34
2.22009e-18
6.19132e-18
1.00503e-17
2.52075e-17
-9.62219e-20
-8.92282e-18
1.32564e-17
-1.83158e-31
-2.37903e-19
-5.26172e-35
-5.02967e-16
8.06304e-34
1.98192e-18
4.0733e-18
0
0
0
9.03993e-17
-1.93231e-33
-1.42199e-19
3.2064e-18
-6.05738e-18
-1.32032e-17
-2.73422e-17
-2.41599e-17
-1.18823e-33
-1.2559e-19
-4.80665e-17
9.04244e-36
2.38936e-19
-1.72805e-17
3.00302e-17
-2.07838e-17
3.43306e-17
-1.16572e-17
-4.87166e-35
-1.96004e-17
-2.98439e-18
9.00398e-31
4.05441e-12
-7.90015e-12
-3.10046e-12
5.55395e-10
0
-5.52929e-10
-2.04947e-08
2.16448e-24
-6.04702e-09
-2.69307e-17
0
-3.05075e-12
2.39173e-17
9.52153e-20
-3.60592e-18
3.39047e-18
-9.0492e-18
8.37061e-18
-9.00743e-18
2.24262e-17
0
2.03715e-12
-8.97718e-18
1.209e-08
3.14414e-17
0
-3.25943e-12
-2.00331e-17
-3.2023e-10
0
-3.78892e-15
-9.35545e-20
-3.29151e-17
0
1.49979e-17
9.21136e-20
3.79955e-18
-1.3479e-17
-6.71233e-18
3.26817e-17
9.34444e-20
-1.19646e-17
2.09735e-17
9.0825e-20
-7.49719e-18
2.12603e-19
1.34491e-17
-1.61133e-15
0
5.08694e-16
1.05933e-14
-7.4024e-20
-3.97488e-13
0
1.30308e-10
0
-1.71037e-18
-1.6487e-18
-3.21019e-18
1.09765e-17
-3.31369e-18
-3.99623e-17
1.48073e-19
1.26138e-18
-3.33891e-18
-5.08265e-20
3.97489e-13
5.42974e-11
0
0
0
-4.56264e-33
-1.55118e-18
2.63471e-18
-5.74779e-20
0
0
0
0
0
0
0
0
0
0
0
0
0
0
0
0
0
0
0
0
0
0
0
0
0
0
-1.8136e-17
6.40129e-33
1.38521e-17
1.99881e-17
5.93413e-18
1.95597e-17
-2.06226e-17
-6.02243e-17
9.04892e-33
-2.42019e-17
-6.01415e-18
0
-3.61597e-17
4.93826e-25
3.39872e-18
5.07586e-09
-4.07432e-13
6.82444e-12
5.15958e-09
6.79859e-18
4.07426e-13
-1.01517e-08
-1.02892e-08
1.01857e-12
2.36976e-33
6.21469e-18
-1.16872e-17
-2.54638e-19
9.26477e-20
0
5.99912e-18
-1.8022e-17
8.85033e-20
-1.92551e-18
2.62344e-12
8.7449e-13
0
2.29279e-08
2.04583e-08
-3.43123e-18
6.05313e-18
-2.12188e-18
1.11571e-34
1.29478e-17
-1.2084e-17
0
-1.8113e-18
-2.13833e-20
8.88651e-18
1.19411e-17
-1.92668e-17
-3.5237e-18
-5.97705e-18
-1.90237e-17
9.37176e-20
0
2.6799e-18
-1.87451e-19
-2.02976e-17
-1.1408e-11
-3.25946e-12
0
-8.56414e-10
-2.01398e-08
-1.20296e-17
-2.82833e-17
1.87292e-19
1.48739e-17
9.36089e-20
-5.2529e-18
9.13786e-19
2.9532e-18
-8.89979e-18
2.24931e-17
-2.97516e-18
-7.36803e-20
-2.70221e-18
1.174e-18
0
0
1.83713e-18
0
-1.22333e-18
3.68719e-20
6.20921e-19
9.84668e-19
5.45483e-20
1.84645e-18
-3.38533e-18
0
-1.03348e-12
3.18008e-13
2.09425e-08
0
4.2385e-08
0
0
-3.09395e-33
4.33001e-19
1.15093e-17
8.71552e-18
-3.68471e-17
-1.446e-19
0
0
0
0
-3.48003e-18
-6.96005e-18
-2.72192e-17
-1.21186e-17
-8.45476e-17
6.03894e-18
-3.61876e-17
2.27443e-33
3.29494e-18
-1.81181e-17
-2.67729e-17
-3.60717e-17
2.30467e-33
2.99733e-17
-6.01582e-17
0
3.08236e-18
3.66421e-18
1.49338e-17
-1.35153e-17
1.34212e-17
-1.20359e-17
0
4.11268e-17
2.2415e-17
-1.36067e-17
1.93993e-17
-3.01755e-18
0
-3.31907e-12
-2.3807e-08
7.48619e-18
-5.5649e-12
1.13154e-10
-2.8988e-18
-1.63339e-18
2.50893e-17
7.42974e-18
-5.95606e-18
1.33314e-17
-8.99628e-18
5.30033e-24
-8.48579e-18
5.56486e-12
8.42568e-18
0
1.51934e-09
-1.92521e-19
-6.67918e-18
-2.37251e-17
0
3.99522e-18
4.42486e-18
1.92963e-19
-4.30206e-18
5.55714e-20
8.00737e-18
6.57802e-18
9.62314e-20
-2.50472e-18
2.98253e-18
8.31208e-18
1.77669e-17
8.74132e-20
4.07728e-18
-5.82327e-18
-4.6601e-18
0
1.87015e-15
-9.2229e-20
-1.48889e-17
0
2.86463e-18
1.74769e-19
6.5581e-19
-1.18389e-17
-5.53413e-18
-6.10499e-18
1.84386e-19
-1.1585e-17
1.05286e-17
-4.55779e-31
-1.93844e-18
0
-8.40334e-16
4.31552e-34
1.15622e-18
1.10099e-18
0
0
0
0
0
0
0
0
0
0
0
0
0
0
0
0
0
0
0
0
0
0
0
0
6.30491e-18
0
-3.41374e-17
2.40687e-17
-3.62253e-17
-1.79433e-17
-2.3999e-17
-1.83157e-24
5.77434e-09
-5.50788e-09
4.95847e-09
6.60928e-13
-5.43223e-09
-3.59388e-12
1.25989e-08
-1.2045e-08
-6.60838e-13
-9.91748e-09
3.59398e-12
1.08655e-08
5.76731e-24
4.87744e-09
1.06422e-08
-1.90316e-19
2.21093e-10
3.25942e-12
1.6148e-12
-1.34441e-25
-2.02689e-08
-9.69852e-20
-2.88036e-25
2.49755e-08
5.41287e-10
-9.46031e-12
9.46029e-12
0
-1.01857e-12
-8.99788e-18
-4.40575e-10
2.69897e-17
1.93624e-19
-1.5192e-17
5.38493e-17
-1.47259e-19
-9.03222e-18
-3.77785e-26
-2.4928e-08
-6.04189e-12
4.86596e-09
-9.54925e-13
-3.23386e-18
-9.58899e-15
2.35192e-17
-1.99861e-18
9.49015e-13
-9.73187e-09
3.10271e-18
3.621e-17
-1.55441e-08
-6.93636e-20
0
-1.68575e-09
4.28151e-20
1.58991e-13
-2.18617e-13
0
2.4398e-08
-4.76997e-13
-7.96779e-18
0
-6.29626e-18
2.01565e-33
1.17441e-21
2.07016e-18
-6.13173e-18
-7.08277e-19
2.32952e-08
-9.20088e-20
0
-2.18427e-08
2.02543e-24
1.66946e-12
2.68308e-12
6.35992e-13
0
2.38899e-08
-3.23153e-09
2.5838e-13
-2.3178e-17
1.84058e-19
-1.30946e-17
-9.02502e-20
-3.46659e-18
3.26628e-18
1.32234e-18
-2.67204e-17
-1.44827e-18
6.50747e-18
-2.59876e-24
0
7.18486e-34
0
0
0
0
0
-1.81361e-17
-7.16396e-33
-3.4746e-19
1.02303e-17
1.81149e-17
-1.97916e-17
0
-3.616e-17
-2.08321e-33
2.90902e-18
6.07407e-17
-2.03052e-17
-3.60462e-17
-9.97903e-34
3.40171e-18
2.40484e-17
-1.29e-17
-2.42802e-17
-9.02465e-25
5.09894e-09
-1.4939e-12
2.3597e-11
5.35529e-09
1.4939e-12
-1.01994e-08
-1.06089e-08
2.98782e-12
-1.11795e-17
-9.37183e-20
0
-9.74666e-18
3.10497e-18
2.85117e-24
-9.71616e-18
2.61384e-11
7.94982e-12
0
2.47461e-08
-1.08843e-10
1.41085e-17
-3.23587e-19
-1.77412e-17
-9.36497e-20
-1.38484e-17
1.74772e-18
0
-7.02774e-18
2.68154e-18
-3.01987e-18
0
1.19454e-17
5.33226e-18
9.05411e-18
-2.46432e-18
-1.31522e-33
0
-1.95287e-17
5.40445e-24
2.25825e-19
-7.15486e-12
-1.98744e-12
0
-4.60161e-08
-5.99464e-10
2.40357e-17
2.00911e-18
0
-2.85398e-17
0
1.64286e-18
-8.67426e-19
-4.49952e-18
2.21444e-17
-2.95132e-17
9.02976e-18
-9.33163e-20
-7.94987e-13
3.31907e-12
-1.83345e-09
0
2.37622e-08
0
4.76987e-13
0
1.66723e-08
-9.3318e-20
2.84095e-19
3.35409e-18
6.45851e-18
-3.33755e-17
7.22991e-20
-6.129e-19
3.70963e-18
3.68352e-20
-2.91591e-18
1.17397e-18
0
-5.45077e-20
0
0
-2.0313e-18
2.1649e-18
-5.45353e-20
0
0
0
0
0
0
0
0
0
0
0
0
0
0
0
0
0
0
0
0
2.06198e-17
-3.82477e-22
-1.22133e-17
1.21859e-17
-1.20031e-17
-1.59396e-33
-1.7011e-17
1.71558e-17
2.72655e-21
1.99606e-17
0
-2.41399e-17
-2.4236e-33
1.49008e-19
1.83327e-17
-2.98439e-19
-5.02385e-17
0
1.91615e-17
5.87606e-09
-2.19266e-17
2.25503e-15
0
1.20316e-12
-7.61054e-15
9.57697e-20
-6.43953e-09
-1.77514e-17
0
-7.82729e-12
2.08418e-17
-9.46584e-20
3.53463e-18
-1.20738e-12
1.74699e-19
-2.48737e-17
-1.17509e-08
3.98347e-17
0
6.24725e-12
-2.86078e-18
1.28715e-08
2.96499e-17
0
-8.06903e-18
7.33119e-18
5.95418e-18
1.51764e-17
-1.08879e-17
1.19087e-17
2.16492e-18
1.48355e-17
-4.46418e-18
0
-2.14401e-17
-1.19063e-17
-9.5905e-20
-1.43095e-12
6.10195e-19
-2.55761e-08
2.0368e-33
-1.37542e-16
1.96645e-19
4.12051e-33
-1.18938e-09
-4.84941e-12
1.93329e-33
4.09087e-18
-4.45659e-18
-2.56134e-17
9.70946e-18
-9.82877e-20
1.48913e-17
-1.31357e-18
9.56174e-20
-9.58775e-18
-2.83945e-17
1.99621e-16
0
-7.59712e-15
0
9.09959e-18
6.01425e-18
0
1.35289e-16
5.85908e-18
-9.54914e-20
1.09853e-18
-9.41498e-20
1.12694e-17
5.40698e-17
-9.33401e-20
1.47296e-18
-6.10408e-18
-3.41133e-18
1.47028e-18
3.73932e-09
1.77671e-24
0
-4.314e-20
5.9622e-14
4.29292e-12
0
3.23606e-08
-2.34369e-18
-1.38127e-33
4.31528e-20
-1.05897e-18
1.24767e-18
-9.86855e-18
0
0
0
0
0
0
2.04312e-17
0
7.54692e-17
-5.61022e-18
-1.25605e-17
-1.19133e-17
-2.41914e-17
-2.25954e-24
-5.6156e-09
9.63413e-11
-1.22631e-08
1.90147e-10
2.7835e-24
1.90108e-10
5.12986e-09
7.50655e-10
-2.12652e-10
9.84437e-10
4.07935e-10
6.27704e-13
-1.02982e-08
2.36672e-12
4.83937e-10
7.03415e-27
2.40014e-08
-6.20088e-12
5.27015e-09
2.24196e-08
4.78977e-12
2.17845e-08
-2.00734e-12
-1.03993e-09
9.07982e-18
-1.46414e-19
-1.17923e-12
-1.04636e-08
-1.61142e-18
5.42804e-18
-1.69003e-18
2.01361e-17
9.51624e-20
6.42574e-09
-7.94985e-12
5.83982e-12
-1.74339e-25
7.9598e-12
-1.83407e-24
-8.80615e-26
1.99728e-08
-6.20088e-12
-9.5083e-20
-2.98782e-12
-8.99771e-18
-1.28426e-08
4.49272e-18
-9.68036e-20
7.18035e-18
-1.2107e-17
-2.32956e-08
0
0
2.08432e-08
2.17313e-08
8.44306e-24
-8.74487e-13
1.08118e-11
-2.89772e-19
0
4.96046e-08
1.22379e-16
-7.1548e-13
-3.7761e-13
-2.34755e-18
0
2.87664e-18
-3.30767e-18
9.02586e-20
-6.93509e-18
5.23597e-18
2.94584e-18
-3.40135e-18
5.77201e-18
7.71127e-18
-1.617e-18
1.51162e-08
-6.93578e-20
0
-8.5632e-20
1.58989e-13
-2.44457e-12
0
-6.29682e-09
-1.09341e-17
-6.9372e-20
0
9.60262e-20
5.84166e-19
-8.80829e-18
4.08992e-24
0
5.28532e-34
0
0
0
0
0
0
0
0
0
0
0
0
0
0
0
0
0
2.42982e-17
-5.84709e-35
-1.38061e-17
-6.89287e-18
-2.12676e-19
-2.45981e-17
1.6819e-34
4.32742e-19
-1.86492e-19
1.38058e-17
-3.65423e-17
-1.23909e-24
-5.55789e-09
1.87815e-11
2.3399e-08
-2.54395e-12
2.88182e-12
-4.19701e-08
1.87008e-10
-2.06796e-08
2.30831e-08
-1.21587e-08
2.39017e-19
1.62926e-17
1.70886e-18
3.10602e-18
3.741e-18
-1.2231e-17
-1.57341e-12
-3.99793e-10
3.64643e-24
-5.70424e-09
5.6539e-09
2.12828e-08
2.17248e-10
2.08672e-08
-1.24474e-08
-4.46682e-12
-1.12626e-08
5.84644e-13
-4.50652e-10
0
2.11969e-17
-4.53141e-12
-1.19248e-12
-1.86277e-17
0
-2.37438e-08
-4.41713e-11
0
-1.79403e-17
0
1.48724e-17
-1.2063e-33
3.94741e-18
-8.33551e-19
4.47378e-18
-2.47554e-17
6.3861e-18
7.33224e-24
0
-9.03341e-18
1.34448e-17
1.02227e-17
9.18938e-20
0
-2.40976e-18
-2.09034e-17
-1.94656e-19
1.28594e-17
-1.58996e-12
0
1.97575e-08
4.94833e-18
3.56839e-17
1.40154e-17
-9.18484e-20
2.61098e-19
-3.27751e-17
-9.70584e-20
1.64877e-18
4.48129e-18
-1.12706e-17
1.29819e-19
1.17357e-17
0
1.43097e-12
-2.34447e-08
0
9.62185e-20
0
-2.45993e-17
1.62877e-17
1.42527e-19
-1.26164e-18
-1.67325e-17
1.86043e-33
-4.76294e-17
6.53839e-18
0
-3.18002e-13
1.88809e-12
-1.32237e-09
0
2.11134e-08
-5.32268e-25
-4.76981e-13
0
-1.34354e-08
9.15834e-20
1.95802e-19
8.02473e-18
1.96219e-17
-2.54257e-17
0
4.64103e-19
-1.17323e-17
0
0
0
0
0
0
7.55281e-17
1.21859e-17
2.41913e-17
-2.41808e-17
-1.22133e-17
7.72418e-34
1.70114e-17
1.3485e-17
3.07476e-17
-4.84605e-17
1.2053e-31
-2.36706e-17
-8.674e-35
-3.91937e-18
-2.25346e-21
0
1.29484e-18
0
6.17008e-09
4.95043e-12
1.04154e-17
-9.22074e-22
-6.0355e-18
-1.19092e-17
1.0628e-17
-6.5936e-18
-4.00639e-12
-1.23356e-08
1.04176e-17
0
2.29282e-19
-1.19064e-17
1.26694e-17
7.45498e-18
1.89466e-19
1.25608e-11
-2.10709e-10
-9.21338e-18
2.4328e-08
0
-1.36044e-12
1.66433e-16
0
-2.69218e-17
0
2.53588e-17
6.198e-25
9.32721e-18
1.3581e-12
-1.64332e-17
-2.43686e-17
4.20467e-10
1.89796e-17
9.56125e-20
-1.51618e-17
2.37471e-17
-6.05118e-24
-1.20838e-11
-1.75244e-17
-2.48635e-08
0
2.19918e-16
-2.43127e-24
-3.11848e-19
-6.12137e-12
0
3.36475e-18
-2.41028e-08
0
1.90795e-12
3.23955e-12
-8.76996e-34
-1.23814e-09
2.19032e-08
1.90974e-19
1.83808e-18
1.49126e-18
-6.29439e-18
2.18208e-17
-9.33252e-20
0
-1.78277e-18
4.87909e-18
1.00679e-17
-9.82817e-20
-2.38193e-18
1.57606e-18
8.05937e-18
-6.14429e-19
3.37659e-24
2.16633e-12
-4.20121e-34
1.91771e-08
-9.58688e-20
-1.58939e-18
5.96055e-18
-1.05505e-08
-4.4578e-25
0
4.31344e-20
7.95016e-14
-7.7511e-13
0
1.59621e-10
3.74084e-09
2.53927e-24
0
-9.1423e-13
-1.16101e-18
3.37905e-18
0
0
0
0
0
0
0
0
0
0
0
0
0
0
3.40714e-17
1.77523e-18
7.51791e-17
-1.71985e-19
-3.60216e-17
-5.52819e-18
2.52637e-19
-4.05627e-25
-2.05655e-17
-5.05176e-09
2.82767e-17
-1.10218e-08
-7.77177e-34
2.3929e-17
-2.36986e-17
7.67167e-20
-2.62345e-12
-2.04708e-12
6.44288e-18
-1.90174e-19
-1.58987e-13
-3.55755e-12
1.6828e-10
0
1.60107e-08
-1.86709e-08
3.04648e-24
6.02419e-09
1.76951e-17
0
1.48398e-12
-1.93107e-17
0
2.31777e-08
-2.39063e-08
-1.90168e-19
-2.98042e-18
3.59247e-18
7.67201e-20
-1.70167e-18
-8.87807e-19
8.12985e-18
-1.05231e-17
-3.2759e-17
-4.87693e-18
-1.10322e-17
-2.01819e-17
1.76413e-19
-1.49391e-12
8.84733e-18
-1.20476e-08
-2.22401e-17
9.62811e-20
-7.07538e-12
6.24037e-09
-4.66849e-18
-8.9933e-10
0
4.70982e-12
1.92876e-16
-9.52266e-20
3.12401e-18
0
-8.31697e-22
-7.03071e-26
-3.21179e-18
-4.70531e-12
-4.71063e-18
3.13428e-17
-1.24785e-08
7.86089e-18
0
-6.40555e-18
8.0327e-20
0
7.29676e-18
-1.33159e-12
-1.00104e-17
0
-1.0086e-08
-9.12227e-20
3.14515e-17
0
-3.46578e-17
5.91248e-20
2.337e-18
3.0262e-18
-1.32106e-17
-8.62683e-18
0
1.25716e-17
-4.72743e-17
6.02277e-20
0
1.29014e-15
7.40664e-18
9.23325e-34
-1.25735e-17
3.08241e-18
-6.18511e-26
0
-1.66286e-34
4.5113e-24
0
7.54487e-34
0
0
0
0
0
0
0
2.37887e-17
1.51921e-34
1.38061e-17
1.38011e-17
2.41744e-17
2.12676e-19
1.38058e-17
-2.43615e-17
-3.24534e-34
5.40647e-18
-2.45981e-17
-8.0629e-25
-6.98591e-18
-5.70415e-09
5.65335e-09
2.12819e-08
-8.86076e-12
2.08685e-08
-2.31948e-17
-1.24474e-08
-4.31776e-12
-1.12625e-08
3.25648e-18
2.3651e-17
-3.36103e-34
-3.951e-18
-2.21804e-15
2.98126e-13
-3.17994e-12
-1.96756e-08
-1.38692e-11
-2.06808e-08
-2.30835e-08
-1.80778e-18
5.11148e-18
3.20109e-18
-3.43785e-18
-5.79477e-19
-1.0501e-17
6.00129e-18
1.20961e-17
1.10442e-17
9.1896e-20
0
-6.15605e-18
-3.8238e-18
0
1.56613e-17
6.58886e-18
0
-1.81108e-15
2.68217e-17
1.91042e-18
9.52369e-20
0
1.65721e-17
1.78554e-17
-2.45196e-17
-1.79831e-17
1.53293e-17
2.30336e-34
-1.94996e-17
-8.14211e-18
0
5.43822e-18
-6.4127e-18
-5.99043e-18
1.01915e-19
2.59937e-19
-9.51856e-20
2.11171e-17
4.41055e-18
-6.64745e-18
-1.20164e-17
-9.30024e-20
-4.58512e-19
4.55932e-18
0
8.66533e-16
7.77072e-15
9.29699e-20
-6.05582e-18
-1.4969e-18
-9.90044e-18
-2.98293e-17
1.83192e-19
-5.56486e-13
1.11299e-12
-1.32164e-09
0
2.1489e-08
0
-2.38492e-13
-9.62029e-20
-3.8358e-12
-8.74467e-13
0
-1.34312e-08
0
-2.34457e-08
-2.16222e-08
-1.95969e-33
-3.27127e-18
4.69225e-18
4.70983e-18
-4.45712e-17
5.97751e-20
4.96774e-19
1.92371e-19
-2.05393e-18
4.90165e-18
-7.66036e-18
1.73526e-18
-1.80221e-17
-7.12815e-20
0
7.12665e-20
0
0
0
0
0
0
0
0
0
0
0
3.06929e-17
-3.61546e-34
2.08958e-19
6.77331e-18
2.45428e-17
8.38091e-19
-5.29805e-17
-1.12718e-17
7.39784e-34
3.5082e-17
2.47014e-17
2.70661e-17
-6.1448e-17
0
-4.11798e-17
-2.70295e-12
-4.93024e-10
1.19185e-17
-3.57744e-12
2.07531e-08
-1.80626e-17
2.81893e-17
-6.7657e-18
1.36778e-17
1.94189e-17
-4.25474e-18
2.55219e-17
-5.94266e-18
0
5.97879e-18
-3.58611e-17
7.83544e-24
-1.14453e-24
-5.42721e-18
1.9132e-16
0
0
3.00536e-25
2.38483e-13
0