/*--------------------------------*- C++ -*----------------------------------*\
| =========                 |                                                 |
| \\      /  F ield         | OpenFOAM: The Open Source CFD Toolbox           |
|  \\    /   O peration     | Version:  5.x                                   |
|   \\  /    A nd           | Web:      www.OpenFOAM.org                      |
|    \\/     M anipulation  |                                                 |
\*---------------------------------------------------------------------------*/
FoamFile
{
    version     2.0;
    format      ascii;
    class       volScalarField;
    location    "2.5";
    object      nut;
}
// * * * * * * * * * * * * * * * * * * * * * * * * * * * * * * * * * * * * * //

dimensions      [0 2 -1 0 0 0 0];

internalField   nonuniform List<scalar> 
12160
(
1.92384e-09
2.60499e-09
1.01867e-07
2.31174e-09
3.91879e-08
5.73189e-08
2.68533e-09
5.8782e-08
3.90559e-08
6.10668e-08
3.10789e-09
2.39367e-08
6.18134e-08
3.55406e-08
3.81736e-08
3.90405e-09
2.01111e-08
2.46642e-08
5.20553e-08
3.63464e-08
3.78625e-08
5.33571e-09
1.72382e-08
2.00604e-08
2.35392e-08
6.05739e-08
2.84369e-08
3.4666e-08
8.20424e-09
1.62138e-08
1.67129e-08
2.07175e-08
2.48883e-08
4.07043e-08
2.43749e-08
7.59172e-09
1.39937e-08
1.55367e-08
1.56077e-08
1.7685e-08
2.20477e-08
2.62274e-08
3.64897e-08
9.02196e-09
1.63266e-08
1.30905e-08
1.5509e-08
1.50296e-08
1.61459e-08
1.79672e-08
2.76622e-08
2.28584e-08
1.21964e-08
1.68061e-08
1.6524e-08
8.32267e-09
1.65236e-08
1.49142e-08
1.51477e-08
1.55439e-08
2.15707e-08
2.53878e-08
1.48458e-08
1.31679e-08
2.44745e-08
8.25414e-09
6.09414e-09
1.90415e-08
1.58477e-08
1.45976e-08
1.41017e-08
1.72955e-08
1.94468e-08
2.27992e-08
1.19788e-08
9.5277e-08
9.62738e-09
1.0781e-08
5.02747e-09
2.36623e-08
1.82455e-08
1.52306e-08
1.35387e-08
1.49336e-08
1.48664e-08
4.08687e-08
1.17663e-08
4.81539e-08
8.2777e-09
9.23384e-09
7.73696e-09
4.47986e-09
3.19112e-08
2.25806e-08
1.73218e-08
1.41147e-08
1.38102e-08
1.21228e-08
2.11799e-08
1.18715e-08
2.73844e-08
5.67242e-09
1.9491e-08
7.99792e-09
1.27561e-08
4.24594e-09
4.92972e-08
2.97605e-08
2.12677e-08
1.58707e-08
1.38419e-08
1.11017e-08
1.41196e-08
1.20265e-08
1.70361e-08
5.7475e-09
7.05894e-09
1.33697e-08
8.07124e-09
8.18203e-09
4.22049e-09
8.98359e-08
4.14375e-08
2.76086e-08
1.88394e-08
1.51984e-08
1.15456e-08
1.23989e-08
1.38121e-08
1.38012e-08
1.23773e-08
4.58139e-09
6.64872e-09
1.17773e-08
2.22314e-08
4.42396e-09
8.5051e-08
5.60468e-08
3.68285e-08
2.31352e-08
1.79985e-08
1.32615e-08
1.28449e-08
1.74705e-08
1.15589e-08
5.21907e-08
3.75853e-09
9.74186e-09
7.73231e-09
5.8582e-09
4.99361e-09
4.11565e-08
5.32097e-08
4.57256e-08
2.92035e-08
2.18852e-08
1.61941e-08
1.43729e-08
2.48559e-08
1.01329e-08
2.11597e-07
3.83673e-09
9.12364e-09
7.86056e-09
4.5608e-09
6.1985e-09
2.36816e-08
3.35494e-08
4.12323e-08
3.50744e-08
2.61515e-08
2.01637e-08
1.58536e-08
4.12203e-08
1.02034e-08
1.44871e-07
3.90367e-09
1.80263e-08
1.20127e-08
9.7304e-09
8.44458e-09
1.57479e-08
2.10013e-08
2.86957e-08
3.47467e-08
2.9274e-08
2.50784e-08
1.71867e-08
6.78298e-08
1.13085e-08
8.13315e-08
4.38051e-09
1.17401e-08
1.55852e-08
1.83856e-08
8.87618e-09
1.14865e-08
1.44215e-08
1.95573e-08
2.54482e-08
2.58223e-08
2.86163e-08
1.83376e-08
5.87379e-08
1.41532e-08
6.95657e-08
5.10257e-09
3.0261e-08
1.39192e-08
2.69893e-08
5.53584e-09
9.05474e-09
1.07615e-08
1.38386e-08
1.70624e-08
1.94445e-08
2.46343e-08
2.12715e-08
3.98016e-08
2.05964e-08
6.34445e-08
7.10927e-09
2.55074e-08
1.05747e-08
1.64217e-08
3.45092e-09
7.60257e-09
8.57089e-09
1.03115e-08
1.22041e-08
1.48931e-08
1.81218e-08
2.9803e-08
3.25038e-08
3.2873e-08
5.41292e-08
9.95322e-09
4.06307e-08
1.16216e-08
1.17938e-08
2.40715e-09
6.76423e-09
7.21796e-09
8.19724e-09
9.43184e-09
1.13752e-08
1.27023e-08
8.44869e-08
3.16837e-08
4.84568e-08
5.87741e-08
1.92984e-08
1.99331e-08
7.72472e-09
9.76472e-09
1.83437e-09
6.37352e-09
6.42466e-09
6.90478e-09
7.61605e-09
8.54981e-09
9.57476e-09
4.13905e-08
3.68576e-08
4.87132e-08
7.23047e-08
3.8204e-08
1.42775e-08
6.50817e-09
1.39132e-08
1.48747e-09
6.31792e-09
6.05397e-09
6.1536e-09
6.43165e-09
6.82177e-09
7.79957e-09
1.77665e-08
4.96993e-08
3.67246e-08
7.16438e-08
6.55309e-08
1.32367e-08
8.98227e-09
8.9856e-09
1.26524e-09
6.54773e-09
5.99809e-09
5.81066e-09
5.74395e-09
5.86931e-09
6.4517e-09
1.12521e-08
1.14688e-07
2.65828e-08
4.58296e-08
7.81844e-08
1.35065e-08
1.45361e-08
6.91985e-09
1.11751e-09
7.11102e-09
6.21751e-09
5.7589e-09
5.41342e-09
5.30644e-09
5.48539e-09
7.90929e-09
3.2208e-08
2.30486e-08
2.60069e-08
6.47333e-08
1.35879e-08
2.46089e-08
1.16079e-08
1.01737e-09
8.07743e-09
6.74009e-09
5.96965e-09
5.35243e-09
5.03958e-09
4.86506e-09
6.09688e-09
1.7641e-08
2.24783e-08
1.68364e-08
3.65249e-08
1.22076e-08
2.47334e-08
1.01679e-08
9.49445e-10
9.61212e-09
7.61366e-09
6.46693e-09
5.5342e-09
5.00098e-09
4.55425e-09
5.04102e-09
1.27313e-08
1.82908e-08
1.75157e-08
1.75693e-08
9.55163e-09
1.50038e-08
8.92926e-09
9.04421e-10
1.20491e-08
8.94481e-09
7.2908e-09
5.98004e-09
5.16752e-09
4.50118e-09
4.50615e-09
9.60408e-09
1.51994e-08
1.89796e-08
1.003e-08
7.59226e-09
9.91977e-09
6.96588e-09
8.76655e-10
1.61795e-08
1.0942e-08
8.50616e-09
6.74866e-09
5.54914e-09
4.7034e-09
4.57949e-09
7.78796e-09
1.22435e-08
1.63172e-08
6.90691e-09
7.42702e-09
6.32108e-09
4.54665e-09
8.62659e-10
2.3963e-08
1.39526e-08
1.02277e-08
7.8067e-09
6.08779e-09
5.14652e-09
5.22739e-09
7.95461e-09
9.5467e-09
1.04873e-08
6.32226e-09
7.23894e-09
4.76479e-09
3.67263e-09
8.63429e-10
3.90447e-08
1.82611e-08
1.25334e-08
9.10248e-09
7.00239e-09
5.96503e-09
6.46054e-09
9.05012e-09
8.23022e-09
7.38768e-09
5.2607e-09
5.9596e-09
3.85554e-09
3.49878e-09
8.74456e-10
3.80128e-08
2.29751e-08
1.52248e-08
1.05575e-08
8.41297e-09
7.16624e-09
8.65316e-09
1.02481e-08
8.54879e-09
9.13691e-09
3.03301e-09
5.4989e-09
3.47161e-09
3.84204e-09
8.97581e-10
2.45935e-08
2.39438e-08
1.72986e-08
1.18608e-08
9.78544e-09
8.54855e-09
1.22609e-08
1.10364e-08
9.12642e-09
1.36529e-08
2.13608e-09
5.52346e-09
4.36277e-09
4.40192e-09
9.33228e-10
1.73635e-08
1.94844e-08
1.6956e-08
1.28451e-08
1.0711e-08
1.00208e-08
1.83241e-08
1.1246e-08
9.59606e-09
1.69175e-08
1.91447e-09
4.48585e-09
7.42076e-09
6.72559e-09
9.81988e-10
1.36166e-08
1.52428e-08
1.48694e-08
1.29545e-08
1.06799e-08
1.12781e-08
2.84815e-08
1.08066e-08
1.00048e-08
1.75137e-08
1.90734e-09
3.93194e-09
8.5266e-09
2.00826e-08
1.0425e-09
1.15739e-08
1.25611e-08
1.2702e-08
1.19577e-08
1.00298e-08
1.22737e-08
4.23356e-08
1.00468e-08
1.05811e-08
1.72181e-08
1.98532e-09
5.10953e-09
5.39104e-09
2.31204e-08
1.12231e-09
1.02089e-08
1.09687e-08
1.10453e-08
1.07052e-08
9.52249e-09
1.28412e-08
4.21415e-08
9.38381e-09
1.09755e-08
1.6377e-08
2.26076e-09
9.12736e-09
3.64882e-09
9.544e-09
9.66344e-09
1.26674e-09
9.88067e-09
9.89517e-09
9.69734e-09
9.05242e-09
1.15915e-08
2.53899e-08
9.09779e-09
1.10273e-08
1.63986e-08
2.84071e-09
1.7776e-08
2.99032e-09
7.91929e-09
9.4108e-09
8.90608e-09
1.64439e-09
9.05885e-09
8.98841e-09
8.57389e-09
9.86191e-09
1.68771e-08
1.057e-08
1.08051e-08
1.5576e-08
3.6673e-09
2.08122e-08
3.06594e-09
6.35578e-09
8.66244e-09
8.70924e-09
9.57311e-09
1.99061e-09
8.47844e-09
8.10026e-09
8.69719e-09
1.35839e-08
1.36938e-08
1.09596e-08
1.47434e-08
4.17381e-09
1.10552e-08
3.3096e-09
4.48975e-09
8.32609e-09
8.01875e-09
9.27443e-09
1.09658e-08
2.69065e-09
7.63997e-09
8.03904e-09
1.21979e-08
1.96939e-08
1.19442e-08
2.02586e-08
4.33379e-09
8.64418e-09
3.33289e-09
4.23813e-09
7.39411e-09
7.89129e-09
8.27629e-09
1.00576e-08
1.72854e-08
2.52516e-09
7.61337e-09
1.14214e-08
2.81642e-08
1.42446e-08
2.7913e-08
3.88143e-09
8.07685e-09
3.17681e-09
4.6253e-09
7.48626e-09
6.97426e-09
8.01619e-09
8.50473e-09
1.29859e-08
1.46563e-08
2.0948e-09
1.09328e-08
3.72494e-08
1.8314e-08
3.45448e-08
3.8298e-09
1.35875e-08
2.87647e-09
5.10736e-09
1.07403e-08
6.91166e-09
6.96248e-09
7.92958e-09
9.12626e-09
8.67998e-09
7.84527e-09
1.32918e-09
3.95859e-08
2.48704e-08
4.2778e-08
4.1098e-09
1.66487e-08
2.67545e-09
4.62847e-09
3.94419e-08
1.06796e-08
6.67519e-09
6.68693e-09
7.57088e-09
6.96392e-09
8.33646e-09
1.33427e-08
3.88034e-09
3.38662e-08
5.28452e-08
4.51478e-09
1.7232e-08
3.99398e-09
5.76407e-09
4.67053e-08
3.46343e-08
1.05559e-08
6.22794e-09
6.06682e-09
5.63839e-09
1.43338e-08
6.2814e-08
1.53555e-07
9.71146e-10
6.21211e-08
4.98596e-09
1.53606e-08
6.19648e-09
3.6149e-09
6.68745e-08
6.07527e-08
2.87054e-08
9.15567e-09
5.72619e-09
2.93847e-08
1.63928e-07
7.78606e-07
2.09857e-06
4.72016e-07
1.16371e-06
7.96269e-09
1.79666e-08
8.4387e-09
3.92498e-09
1.7803e-07
7.65727e-08
2.27578e-07
1.16023e-07
1.31615e-07
5.86975e-07
2.71629e-06
5.76464e-06
1.59702e-05
4.563e-06
4.81241e-06
0.000418964
1.33601e-07
1.08407e-08
4.93815e-09
1.8273e-06
1.14405e-05
3.06189e-05
5.0423e-05
2.62736e-05
7.4756e-06
1.90524e-05
3.94859e-05
5.38635e-05
2.64116e-05
8.46732e-06
0.000455313
0.00109748
0.000234207
3.56532e-08
5.92382e-09
6.14556e-07
2.90271e-05
0.000234995
0.000853705
0.000811987
0.000426496
0.000150704
0.000179539
0.000228433
0.00012985
1.79102e-05
0.000563278
0.00113805
0.00121707
0.00127908
0.000244916
7.34938e-09
9.84027e-08
1.08971e-05
0.000340572
0.00200889
0.00415672
0.00271215
0.00101974
0.00119173
0.000826337
0.000434303
9.95838e-05
0.000749447
0.00107048
0.00114737
0.00123608
0.00127713
0.00132892
0.00024026
2.7859e-06
0.000163943
0.00240613
0.00599149
0.0070169
0.00360674
0.00199144
0.00218698
0.0013744
0.000566432
0.000841371
0.00101594
0.00107526
0.00116732
0.00124715
0.00128741
0.00132067
0.00137685
0.000242711
7.04293e-05
0.00185959
0.00588815
0.00633756
0.00700033
0.00406339
0.00339268
0.00251063
0.00136873
0.000761623
0.000973561
0.00100423
0.00108921
0.00116887
0.00122819
0.00130027
0.00132236
0.00136245
0.00143089
0.000242298
0.00147958
0.00571847
0.00570223
0.00606482
0.00652101
0.00444363
0.0043018
0.0024687
0.00081535
0.000992371
0.000944935
0.00100567
0.00108855
0.00114733
0.000722972
0.00127106
0.00131984
0.00134084
0.0014005
0.00148326
0.000248316
0.00499647
0.00586497
0.00528573
0.00563367
0.0059227
0.0047101
0.00397025
0.00218526
0.00105684
0.000932414
0.00093765
0.00100141
0.00105937
0.000860234
0.0016471
0.00083438
0.00164774
0.00166166
0.00166214
0.00128705
0.00131896
0.00135472
0.00144007
0.00154289
0.000260576
0.00529968
0.00554705
0.00531802
0.00535249
0.00510351
0.00538367
0.0038879
0.00139135
0.00102887
0.000900816
0.000931263
0.000979379
0.000923642
0.00109534
0.00175758
0.00143331
0.00125573
0.00175835
0.00190024
0.00190149
0.00143328
0.00145352
0.00145341
0.00128817
0.00132215
0.00137606
0.00148574
0.00160729
0.000281499
0.00447259
0.00536131
0.00556685
0.00517591
0.00466187
0.00497602
0.00356209
0.00127264
0.000966885
0.000900263
0.000916637
0.000901912
0.000780001
0.00143045
0.0014304
0.00148764
0.0014878
0.00150552
0.00128158
0.00126337
0.000754021
0.00150545
0.00160083
0.00160128
0.00128106
0.00128623
0.00128597
0.0012887
0.00133727
0.00140917
0.00153861
0.0016758
0.000315676
0.0037535
0.00517185
0.00569424
0.00501977
0.00368767
0.00475565
0.00304699
0.00124237
0.000980435
0.000912109
0.000869267
0.000553809
0.00144765
0.00144781
0.00147699
0.00147744
0.00126967
0.00126981
0.00133803
0.0013381
0.00134128
0.00116957
0.0011461
0.00116639
0.0011701
0.00124353
0.000848777
0.00170059
0.00170097
0.00157703
0.00157764
0.00134071
0.0014211
0.00142095
0.00116912
0.00114616
0.00116589
0.00116407
0.00117233
0.00115025
0.00118743
0.00116577
0.00117214
0.00115702
0.00118731
0.00116361
0.0012991
0.00137071
0.00145707
0.00159676
0.0017481
0.000360003
0.00321202
0.00448324
0.00485124
0.004022
0.00326923
0.00545991
0.00288505
0.00128975
0.00104649
0.000898613
0.000461225
0.00146888
0.00146939
0.00149819
0.00149908
0.00129146
0.00129164
0.00130505
0.00130546
0.00111825
0.00108173
0.00114634
0.00115683
0.00117267
0.00109648
0.00108927
0.00111861
0.00114618
0.00115653
0.00117261
0.00109644
0.00118305
0.00120527
0.00119654
0.00121512
0.00118431
0.00120532
0.00119657
0.00121512
0.00121989
0.00116397
0.00120283
0.00120247
0.00105444
0.00107817
0.00104962
0.00109605
0.00123475
0.000898186
0.00178629
0.00178653
0.00179008
0.00179008
0.00153125
0.00153161
0.00136169
0.00136318
0.00121958
0.00116645
0.00120247
0.00119951
0.00127611
0.00124147
0.00128934
0.00125957
0.00127588
0.00124906
0.00128918
0.00125591
0.00105403
0.00107928
0.00104934
0.00109149
0.00105833
0.00108737
0.00105816
0.00108604
0.00132772
0.00142214
0.00151625
0.00165979
0.00181934
0.000417019
0.00244408
0.00325716
0.00327243
0.00299059
0.00366601
0.00541931
0.00272485
0.00154046
0.00111586
0.000470292
0.00160098
0.00160151
0.00164542
0.00164596
0.00130059
0.00130103
0.00133456
0.00133526
0.00114483
0.00116609
0.00114132
0.00116182
0.00114832
0.00116622
0.00114688
0.00116181
0.00115191
0.00117238
0.00114751
0.00116914
0.001159
0.00117252
0.00115451
0.00116929
0.00104352
0.00110159
0.001114
0.00102836
0.00112515
0.0011218
0.00105008
0.00110182
0.0010282
0.00111379
0.0011249
0.00112168
0.00112546
0.00112258
0.0011474
0.00113969
0.00112713
0.00112254
0.00114771
0.00113966
0.00109276
0.00108537
0.00106955
0.00112396
0.00100279
0.00105485
0.000999447
0.0010698
0.00124273
0.000968964
0.00162664
0.00162725
0.00165189
0.00165212
0.00159061
0.00159089
0.00159188
0.001592
0.00137207
0.00138897
0.00135016
0.00137127
0.00137355
0.00138903
0.00135111
0.00137132
0.00121499
0.00115697
0.0012224
0.00125777
0.00126874
0.00115851
0.00121873
0.00116322
0.00122275
0.00126025
0.00126917
0.00115856
0.00109242
0.00108873
0.00106935
0.00112154
0.00113651
0.00117017
0.0011363
0.00116655
0.00100257
0.00105484
0.000999358
0.00106473
0.00100249
0.00105509
0.00100241
0.00105532
0.00137449
0.00148316
0.00157917
0.00172461
0.00188313
0.00049285
0.00167321
0.00241415
0.00261181
0.00300952
0.00454127
0.00490061
0.00308201
0.00200496
0.00125849
0.00171888
0.00171934
0.00175742
0.00175832
0.00141569
0.00141586
0.0014779
0.00147807
0.00115139
0.00117272
0.00115869
0.00117733
0.0011583
0.00117302
0.00116363
0.00117739
0.00121627
0.00124038
0.00118235
0.00120403
0.00122065
0.00124062
0.00118679
0.00120427
0.0010905
0.00108586
0.00107966
0.00107167
0.00109442
0.00108591
0.00108608
0.00107173
0.00106187
0.00104845
0.00107303
0.00105961
0.00106888
0.00104846
0.00107953
0.00105979
0.00103521
0.00105722
0.00101232
0.00109214
0.00127167
0.00105748
0.00136524
0.00136566
0.00143353
0.00143421
0.00146755
0.00146795
0.00149871
0.00149906
0.00140153
0.00142466
0.00139861
0.0014221
0.00140827
0.0014247
0.00140497
0.00142218
0.00139281
0.00141689
0.00140225
0.00142409
0.00139503
0.001417
0.00140717
0.00142405
0.00131465
0.00129723
0.00129315
0.00128039
0.00131597
0.0012971
0.00129394
0.00128032
0.00113093
0.00120161
0.0011957
0.00108656
0.00123028
0.00122077
0.00113522
0.00120535
0.00119589
0.00108669
0.00123262
0.00122093
0.00103503
0.00106017
0.00101227
0.00109082
0.00107157
0.00113624
0.00107141
0.00113362
0.00142863
0.0015525
0.0016378
0.00178419
0.00184851
0.000564936
0.00125757
0.00191916
0.0017943
0.00265781
0.0042743
0.00513592
0.00379797
0.00278703
0.000647002
0.00154981
0.00154999
0.00161207
0.00161269
0.00133173
0.0013319
0.0013842
0.00138427
0.0010639
0.00105263
0.00108101
0.00106091
0.00107061
0.00105283
0.00108557
0.00106095
0.00115846
0.00116134
0.00111588
0.0010928
0.0011635
0.00116143
0.00112083
0.00109292
0.00104899
0.00102032
0.0010553
0.00102028
0.0013161
0.00110417
0.0009821
0.00098258
0.00106533
0.001066
0.00126278
0.0012628
0.00133448
0.00133451
0.00128224
0.00131242
0.00128776
0.00131567
0.00128985
0.00131254
0.00129315
0.00131574
0.00135303
0.00136967
0.00131385
0.00134433
0.00135998
0.00136989
0.00131934
0.0013443
0.00130132
0.00127964
0.00131407
0.0012945
0.0013072
0.00127961
0.00131936
0.00129465
0.00132563
0.00131135
0.00132298
0.00131084
0.0013273
0.00131129
0.00132717
0.00131081
0.00151412
0.00161897
0.00168374
0.00184165
0.00166259
0.000706891
0.00102992
0.00155374
0.00157551
0.00233638
0.00460333
0.0053048
0.00469782
0.00328376
0.00168503
0.00168535
0.00184502
0.00184589
0.0014288
0.00142892
0.00148127
0.00148149
0.00124463
0.00123856
0.00123014
0.0012659
0.00124468
0.00123866
0.0012303
0.00126569
0.00127457
0.00128662
0.00128142
0.00128501
0.00127454
0.00129001
0.00128135
0.00128595
0.00104687
0.00100994
0.001056
0.00101011
0.00105211
0.00101001
0.00105931
0.00101005
0.00111677
0.00109406
0.00108178
0.00103379
0.00112046
0.001094
0.00108537
0.0010338
0.00145218
0.00114365
0.000834264
0.000919052
0.000919624
0.00107476
0.00107521
0.00118511
0.001186
0.00121733
0.0012196
0.00119481
0.00117183
0.00120956
0.00117737
0.00120172
0.00117194
0.00121492
0.00117751
0.00126523
0.00123935
0.00123208
0.00120477
0.00127199
0.00123954
0.00123776
0.00120487
0.00128204
0.00124542
0.00128756
0.00124528
0.0016069
0.00166412
0.0017139
0.00191713
0.00155923
0.000746014
0.000275202
0.00117418
0.00233284
0.00219782
0.00422344
0.00602385
0.00465887
0.00142136
0.00152781
0.00152813
0.00164365
0.00164382
0.00130955
0.00131133
0.00134188
0.00134178
0.00131376
0.00131155
0.00134193
0.00134073
0.0014165
0.0014166
0.00116236
0.00120858
0.0011691
0.00121273
0.00116232
0.001208
0.00116907
0.0012117
0.0011655
0.00122005
0.00117602
0.00121452
0.00116539
0.00122444
0.00117606
0.00121511
0.00113583
0.00109585
0.00113804
0.00109564
0.00158346
0.00139771
0.0010211
0.000789099
0.000790004
0.000938841
0.000939961
0.00101328
0.00101413
0.00111835
0.00111907
0.00110678
0.00114793
0.00109877
0.00115414
0.00110719
0.00114695
0.00109872
0.00115407
0.00112214
0.0011549
0.00111161
0.00116226
0.00112295
0.00115949
0.00111235
0.00116556
0.00115819
0.001089
0.00117694
0.00110762
0.0011627
0.00108899
0.0011807
0.00110769
0.00124457
0.00118746
0.00120303
0.00114213
0.00125057
0.0011875
0.00120789
0.00114212
0.00166531
0.00167229
0.00175918
0.00199659
0.000868538
0.000216017
0.00104938
0.00194785
0.00215273
0.00308962
0.00272618
0.00219538
0.00158267
0.00158234
0.00142513
0.0014252
0.00134032
0.00136358
0.00137382
0.00140305
0.0013436
0.00136379
0.00137643
0.00140301
0.00149592
0.00149617
0.00124399
0.00120326
0.00126329
0.00128412
0.00124737
0.00120342
0.00126316
0.00128319
0.00130568
0.00130766
0.00130196
0.00129511
0.00130706
0.0013075
0.0013015
0.00129495
0.00113834
0.00119611
0.00113173
0.00120037
0.00113818
0.00119968
0.00113173
0.00120197
0.00165394
0.00156634
0.00138753
0.00110791
0.0011048
0.00110459
0.00104841
0.00104925
0.00105155
0.0010526
0.00112376
0.00106235
0.00104319
0.00109019
0.00112464
0.00106235
0.00104344
0.00109326
0.00103929
0.00112628
0.00102584
0.00113347
0.0010394
0.00112646
0.00102575
0.00113479
0.00105613
0.00114439
0.00106477
0.00114581
0.0010565
0.00114845
0.00106504
0.001149
0.0011566
0.00106818
0.00116078
0.00106807
0.00167268
0.00166437
0.00187444
0.000862768
0.000346455
0.00191859
0.00188155
0.00210731
0.0018856
0.00120019
0.000757994
0.000758562
0.000924611
0.000924341
0.00135966
0.00135969
0.00122779
0.00122756
0.0012436
0.00122805
0.0012918
0.00130123
0.00124691
0.00122826
0.00129404
0.00130128
0.00133762
0.00132696
0.00135365
0.00132287
0.00133768
0.00132859
0.00135357
0.00132366
0.00121112
0.00114103
0.00118478
0.00123447
0.00121237
0.00114112
0.00118469
0.00123309
0.00122875
0.00119238
0.00124341
0.00120371
0.00123142
0.00119226
0.00124426
0.00120361
0.0016585
0.00164124
0.00156839
0.00145194
0.00138276
0.0013815
0.00127508
0.00127328
0.00116102
0.00115878
0.00116407
0.00100091
0.00113871
0.00100284
0.00115957
0.00100048
0.00113197
0.00100177
0.0011435
0.00100029
0.00113789
0.000991371
0.00109423
0.000990394
0.00114032
0.000999895
0.00113621
0.000991196
0.00109603
0.000990497
0.00111948
0.00100538
0.00112075
0.00100548
0.001022
0.00115028
0.00100657
0.00114843
0.00102199
0.0011503
0.00100632
0.00114947
0.00164764
0.00173577
0.000846631
0.0010557
0.00185636
0.00171376
0.00148162
0.00104271
0.000790165
0.000683582
0.0006843
0.000760447
0.000760282
0.00118085
0.00124068
0.00122073
0.00111469
0.0011801
0.00124373
0.00124212
0.00118102
0.00124358
0.00122056
0.00111579
0.00117988
0.000785085
0.00103076
0.00089545
0.0010544
0.000790367
0.00103018
0.000897799
0.00105419
0.00119516
0.00115869
0.00122667
0.00120523
0.00119742
0.00115877
0.00122792
0.00120521
0.00123085
0.00124412
0.00123082
0.00124499
0.0011667
0.00122265
0.00116662
0.00122168
0.00119986
0.00115598
0.00120239
0.00115587
0.00164415
0.00163209
0.00163798
0.00160497
0.0016655
0.00166483
0.00157161
0.00157071
0.00139017
0.00138794
0.00131625
0.00131403
0.00108303
0.0012956
0.0011123
0.00129242
0.00102489
0.00122468
0.00108272
0.00129159
0.00111102
0.00129108
0.00102461
0.00122307
0.00121221
0.0010066
0.00120988
0.00100632
0.00118621
0.000997027
0.00118262
0.00113936
0.000993203
0.000980593
0.00118409
0.000996656
0.00118087
0.00113896
0.000992944
0.000980338
0.00114955
0.000991993
0.00114935
0.00099181
0.00166452
0.000852583
0.00170946
0.00162158
0.00134241
0.000952007
0.000786271
0.00065864
0.000658767
0.000643043
0.000642938
0.000623367
0.00062408
0.00063182
0.000631896
0.00119022
0.00109241
0.00113052
0.00119051
0.000973396
0.00103814
0.00119123
0.0010931
0.00119026
0.0011303
0.000975529
0.00103807
0.000553399
0.000829628
0.000708897
0.000879695
0.000556539
0.000829316
0.000710666
0.000879686
0.00121172
0.00118299
0.0012127
0.0011829
0.00166326
0.00161632
0.00161519
0.00165002
0.00168808
0.0016402
0.00163889
0.001544
0.00154253
0.00146267
0.00129842
0.00146081
0.00127643
0.00145689
0.00129646
0.00145673
0.00127537
0.0014425
0.00136338
0.00125684
0.00144491
0.00126596
0.00116843
0.00143818
0.00136025
0.00125617
0.00144018
0.00126491
0.00116784
0.00114252
0.00106032
0.00133145
0.00126947
0.00114215
0.00105996
0.00132989
0.00126844
0.00125244
0.00104607
0.00125102
0.00104564
0.0012301
0.00102746
0.00116259
0.000986163
0.00122756
0.00102675
0.00116184
0.000985833
0.000882898
0.00155623
0.0013353
0.00102162
0.000842161
0.000732187
0.000521737
0.000522005
0.000530072
0.000529564
0.000496356
0.000521085
0.000562338
0.000493393
0.000496326
0.000520593
0.000561968
0.00049429
0.000487847
0.000488295
0.000486137
0.000652856
0.000570906
0.000777675
0.000487066
0.000652882
0.000572434
0.000777726
0.000946113
0.00167128
0.00157133
0.00160411
0.00167316
0.00182232
0.00182165
0.00175298
0.00175141
0.00156317
0.00156132
0.00148111
0.00147934
0.00151008
0.00132396
0.00148603
0.00131301
0.0015106
0.00132336
0.00148893
0.00131279
0.00142721
0.00146945
0.00124532
0.00130729
0.00147926
0.00131684
0.00142241
0.00146873
0.00130705
0.00124464
0.00148179
0.00131674
0.00110438
0.00129954
0.00110409
0.00129931
0.00135051
0.00108524
0.00102663
0.000827735
0.000634709
0.000634379
0.000856225
0.000856856
0.000412083
0.000412493
0.000438098
0.000437277
0.000448872
0.00040984
0.000476764
0.000418228
0.000449218
0.000411458
0.000476876
0.000420542
0.000429829
0.000435277
0.000420112
0.000442404
0.000429304
0.000435007
0.000421882
0.000442586
0.000400992
0.000538245
0.000402227
0.00053826
0.00109291
0.00165442
0.0015212
0.00158576
0.00169325
0.00173573
0.00173485
0.00166652
0.0016653
0.00153432
0.00153159
0.00137403
0.00154456
0.00135869
0.00153855
0.00137373
0.00154245
0.00135816
0.0015366
0.00152794
0.0013544
0.00152114
0.00136735
0.00152886
0.00135396
0.00152612
0.0013674
0.00118608
0.00106459
0.001124
0.000804612
0.000515606
0.000515423
0.000752311
0.000753191
0.000381727
0.000418177
0.000314269
0.000304967
0.000369453
0.000251351
0.000382532
0.000418217
0.000314496
0.00030602
0.000369651
0.000251962
0.000315156
0.000315191
0.000454833
0.000398563
0.000479176
0.000406049
0.000455095
0.000400565
0.000479408
0.000408142
0.000392774
0.000440741
0.000393944
0.00044081
0.00125744
0.00160895
0.00146761
0.00155192
0.00170012
0.00169916
0.00171418
0.00171318
0.00161503
0.00161483
0.00155979
0.00155939
0.00159189
0.00142389
0.00159546
0.00140616
0.00157669
0.00138696
0.00158365
0.00142162
0.00159062
0.00140538
0.00157305
0.00138653
0.00156195
0.0013799
0.00155975
0.00137942
0.00154963
0.00138871
0.00155029
0.00138833
0.00117097
0.00118113
0.00123293
0.000685042
0.000685928
0.000900587
0.000900369
0.000384299
0.000384151
0.000568523
0.000570229
0.000340397
0.00040733
0.000300378
0.000256
0.000350437
0.000216978
0.000341514
0.000407454
0.000300558
0.000257145
0.000350713
0.000217477
0.000229838
0.000297219
0.000186162
0.000271572
0.000228966
0.000296996
0.000186229
0.000271657
0.00132992
0.0015246
0.00139976
0.00149032
0.00161141
0.00160932
0.00162135
0.00161991
0.00157916
0.00157971
0.00160494
0.00142955
0.00146124
0.00161911
0.00145676
0.00158658
0.0014616
0.00162205
0.00145657
0.00159265
0.00160285
0.00142894
0.00159408
0.00158
0.00142358
0.00140154
0.00159099
0.00157606
0.00142318
0.00140107
0.00157159
0.00140287
0.00156819
0.00140247
0.00128906
0.00140081
0.00111906
0.000627433
0.000627818
0.000858663
0.000858814
0.000210917
0.000285166
0.000387487
0.000311604
0.000327587
0.000404488
0.000210498
0.000285072
0.000387354
0.00031254
0.000327705
0.000403556
0.000456485
0.000457085
0.000297047
0.00019689
0.000297334
0.000197698
0.000189146
0.000285293
0.000189173
0.000285321
0.00127999
0.00136584
0.00129154
0.00138572
0.00138359
0.00146754
0.00146489
0.0014356
0.00143228
0.00148079
0.00147635
0.00159979
0.0014619
0.00165221
0.00149222
0.0016411
0.00148683
0.00159247
0.0016474
0.00148682
0.00145977
0.00165368
0.0014919
0.00161045
0.00145227
0.00163161
0.00148777
0.00164043
0.00160989
0.00148792
0.00145198
0.00133441
0.00160942
0.000809469
0.000651933
0.000652119
0.000795439
0.00079576
0.000218966
0.000292831
0.000364688
0.000280256
0.000331978
0.000319875
0.000218509
0.000292868
0.000364518
0.000279456
0.000331453
0.000319535
0.000539415
0.000536642
0.00042964
0.000428037
0.000539392
0.000536401
0.000429857
0.000427818
0.000206772
0.000299196
0.000206565
0.000299183
0.00111463
0.00110967
0.00110904
0.00126346
0.00125999
0.00131326
0.00130974
0.00132191
0.00131794
0.00160942
0.00144922
0.00130369
0.00151544
0.00136258
0.00140102
0.00160435
0.00144827
0.00130261
0.00150704
0.00136144
0.00139565
0.0016462
0.00165856
0.00150094
0.00152126
0.00166571
0.0015214
0.00164629
0.00150069
0.00153523
0.00119804
0.000397841
0.000781123
0.00078204
0.000397156
0.000694082
0.000693075
0.000672288
0.000532337
0.000534261
0.000672123
0.000532779
0.00053413
0.00023107
0.000311949
0.000355071
0.000264219
0.000353475
0.000322395
0.000229912
0.000312215
0.000354685
0.000266006
0.000351991
0.000322638
0.000411148
0.000427752
0.000411268
0.000427566
0.00087539
0.000847537
0.00080717
0.00106899
0.00106405
0.00115197
0.00114665
0.00124092
0.00117155
0.00133536
0.00118116
0.00139488
0.00125334
0.00123112
0.00138857
0.0012518
0.00116808
0.0013305
0.00118008
0.00157833
0.00143473
0.0014486
0.00132003
0.00156996
0.00143379
0.00144183
0.00131895
0.0016361
0.00150363
0.00163212
0.00150319
0.00204985
0.000701902
0.000386519
0.000511909
0.000385442
0.000509606
0.000644604
0.000644366
0.000386408
0.000625784
0.000570302
0.000576934
0.000563065
0.000442818
0.000308387
0.000499803
0.000620452
0.0003844
0.00056921
0.000574956
0.00056267
0.000441894
0.000307193
0.000496674
0.000363433
0.000310169
0.000363028
0.000310039
0.000472392
0.000466992
0.000470911
0.000466618
0.000713476
0.000600806
0.000640746
0.000965773
0.000959754
0.00063337
0.000774567
0.000766493
0.00106509
0.00122526
0.00112271
0.00106089
0.00121867
0.00112081
0.00134526
0.00128274
0.00120963
0.00113965
0.00134399
0.00120887
0.00128136
0.00113918
0.00153113
0.00141925
0.00139041
0.00128672
0.00152212
0.00141864
0.0013891
0.0012862
0.00105951
0.000679144
0.00044051
0.000465661
0.000379597
0.000433885
0.000437446
0.000466546
0.000379719
0.000430466
0.000561725
0.000562091
0.000456241
0.000407116
0.000566493
0.000511307
0.00042184
0.000428627
0.000452993
0.000561525
0.000408742
0.000510244
0.000420922
0.000429091
0.0004226
0.000403393
0.00042227
0.000402471
0.00063677
0.00051268
0.000665831
0.000821028
0.000813165
0.000654368
0.000725416
0.000713322
0.00104668
0.0011643
0.00106516
0.00119892
0.00109739
0.000973186
0.000895985
0.000978858
0.00104303
0.00116
0.00106362
0.0011914
0.00109526
0.000972855
0.000886814
0.000974231
0.00130597
0.001259
0.00118001
0.00112558
0.0013101
0.00117987
0.00125451
0.00112487
0.00073642
0.000518704
0.000527212
0.000528663
0.000522561
0.000677618
0.000676983
0.000386986
0.00045394
0.000422567
0.000429827
0.00038489
0.000538045
0.000346099
0.000401641
0.000435235
0.000392815
0.000479851
0.000388005
0.000453609
0.000426535
0.000428716
0.00038458
0.000525854
0.00034243
0.000399461
0.000432006
0.000396808
0.000473039
0.000371505
0.000408889
0.000409175
0.000424387
0.000371534
0.000407955
0.000409204
0.00042438
0.000646145
0.000467058
0.000597821
0.000804436
0.000905919
0.00088991
0.000793844
0.000906548
0.000887637
0.000582268
0.000652011
0.000633935
0.00109443
0.000970981
0.00123137
0.00102751
0.0011142
0.000923191
0.00109569
0.000968941
0.00122446
0.00111344
0.00102701
0.000923116
0.00128219
0.00116384
0.00128286
0.00116358
0.000283107
0.00045116
0.000459239
0.000453502
0.000462453
0.000551783
0.000551089
0.000444002
0.000418519
0.000395593
0.000438568
0.000390395
0.000366122
0.000282895
0.000344596
0.000368909
0.000379133
0.000442286
0.000363433
0.00036411
0.000554989
0.000442719
0.000424672
0.000438577
0.000397515
0.000389694
0.000365216
0.000342527
0.000278425
0.000366085
0.00038126
0.00043676
0.000360416
0.000362877
0.00054853
0.000717034
0.000265893
0.000581043
0.000568188
0.000260993
0.000423837
0.000421723
0.000671083
0.000880381
0.000887004
0.000842078
0.000888946
0.000993472
0.000787308
0.000765049
0.000648444
0.000879775
0.000874255
0.000840151
0.000882811
0.000978654
0.000765579
0.00076322
0.00064931
0.000654189
0.000820929
0.000633955
0.00063255
0.000810256
0.00102181
0.00094038
0.000999352
0.000908889
0.001026
0.000934759
0.000998883
0.000908804
0.000215837
0.000397871
0.000488611
0.000337544
0.000331619
0.000398767
0.000492325
0.000337632
0.000332993
0.000377421
0.000376825
0.000420895
0.000394293
0.00035615
0.000349229
0.000284526
0.000297118
0.00032799
0.000328773
0.000282213
0.000294616
0.000422051
0.00039623
0.000352459
0.000349152
0.000286146
0.000327187
0.000294239