/*--------------------------------*- C++ -*----------------------------------*\
| =========                 |                                                 |
| \\      /  F ield         | OpenFOAM: The Open Source CFD Toolbox           |
|  \\    /   O peration     | Version:  5.x                                   |
|   \\  /    A nd           | Web:      www.OpenFOAM.org                      |
|    \\/     M anipulation  |                                                 |
\*---------------------------------------------------------------------------*/
FoamFile
{
    version     2.0;
    format      ascii;
    class       volScalarField;
    location    "2.5";
    object      omega;
}
// * * * * * * * * * * * * * * * * * * * * * * * * * * * * * * * * * * * * * //

dimensions      [0 0 -1 0 0 0 0];

internalField   nonuniform List<scalar> 
12160
(
0.0719999
0.0719999
0.00171679
0.0719999
0.0035696
0.00115031
0.0719999
0.00658946
0.00142848
0.00111461
0.0719999
0.0107788
0.0019145
0.00130082
0.00111689
0.0719999
0.0138225
0.00276823
0.00147953
0.0013151
0.0012162
0.0719999
0.015078
0.00351627
0.00175999
0.00145672
0.0015433
0.00125782
0.0719999
0.0151029
0.00385425
0.00197535
0.00163251
0.00165598
0.00196988
0.00288562
0.0719999
0.0150736
0.00385323
0.00207339
0.00174471
0.0017293
0.00218854
0.00502396
0.0139257
0.0719999
0.0152009
0.00384239
0.0020882
0.0018024
0.00176162
0.00223025
0.00493219
0.0140337
0.0136734
0.0719999
0.0155024
0.0038955
0.00210544
0.00184225
0.00180412
0.00212226
0.00385398
0.0138465
0.0135388
0.0228478
0.0719999
0.0158314
0.00400361
0.00214849
0.00188388
0.00186771
0.00205945
0.00309452
0.0123929
0.0139593
0.0270226
0.0284333
0.0719999
0.0160825
0.00411627
0.00219996
0.00192933
0.00193667
0.00208445
0.00280663
0.0107736
0.0148294
0.0352206
0.0303051
0.0197705
0.0719999
0.0162185
0.00419908
0.0022439
0.00196845
0.00200152
0.0021825
0.00312959
0.00915254
0.0148275
0.033141
0.026709
0.01229
0.0170481
0.0719999
0.0162653
0.00423626
0.00227046
0.00199639
0.00205067
0.00228536
0.00365446
0.00796758
0.0137547
0.028314
0.0165938
0.0177289
0.0109414
0.0123746
0.0719999
0.0162758
0.00424078
0.00227636
0.00200845
0.00207709
0.00235765
0.00411749
0.00711203
0.0129227
0.0236
0.01865
0.00799432
0.00919963
0.00266066
0.0719999
0.0162677
0.00424017
0.00227233
0.00200126
0.00208063
0.00239491
0.00443401
0.00669014
0.0119577
0.0204777
0.0211665
0.00575842
0.00528167
0.00631355
0.0719999
0.0161376
0.00423444
0.00227277
0.00198127
0.00206343
0.00239587
0.00458628
0.00661943
0.0108322
0.0188046
0.0227876
0.00653931
0.00341466
0.00354796
0.0719999
0.0161129
0.00419092
0.00227486
0.00196807
0.00203817
0.00234945
0.00459741
0.00680059
0.00984803
0.0175262
0.023662
0.00750584
0.00291381
0.00210207
0.0719999
0.0166111
0.0041849
0.00227587
0.00196638
0.00203095
0.00226163
0.00447796
0.00696494
0.00911553
0.0160574
0.0245979
0.00851691
0.0029907
0.0017812
0.0719999
0.0176406
0.00434706
0.00230343
0.00197926
0.00204913
0.00218511
0.0042602
0.00699923
0.00861858
0.0142393
0.0242681
0.0079836
0.00321653
0.0018142
0.0719999
0.0188164
0.0046743
0.00239272
0.00202074
0.00208371
0.00216801
0.00399499
0.00694797
0.00833894
0.0129657
0.0249679
0.00989496
0.00335969
0.00191001
0.0719999
0.0198883
0.00504365
0.0025481
0.00211085
0.00213547
0.00218912
0.00378677
0.00686034
0.00813873
0.0119622
0.0225575
0.01295
0.00337611
0.0020214
0.0719999
0.0206667
0.00537978
0.00272795
0.0022399
0.00222204
0.00228173
0.0036529
0.0067125
0.00795361
0.0111797
0.0197519
0.0165259
0.00504485
0.00224821
0.0719999
0.0210201
0.005625
0.00289759
0.00238532
0.00236589
0.00248271
0.00363283
0.00653726
0.00777715
0.0103527
0.017807
0.018564
0.00782195
0.00244045
0.0719999
0.0209633
0.00573086
0.00302882
0.00252702
0.00253875
0.00275284
0.0037533
0.00631009
0.00763247
0.00940181
0.0171191
0.0191036
0.00983761
0.00325059
0.0719999
0.0205377
0.0057036
0.00309653
0.0026412
0.00269029
0.0029816
0.00395575
0.00595494
0.00750443
0.00866921
0.017305
0.0195007
0.0118502
0.00437957
0.0719999
0.0197787
0.00555438
0.00310416
0.00270914
0.00279337
0.00312351
0.00408129
0.0056947
0.00732457
0.00831091
0.0177531
0.0200929
0.0132649
0.0056133
0.0719999
0.0187598
0.00530199
0.00305555
0.00273513
0.0028367
0.00315321
0.00405518
0.00546568
0.00713464
0.00868033
0.0170016
0.020532
0.0140564
0.00647106
0.0719999
0.0175655
0.00497379
0.00295859
0.00272125
0.00286691
0.0031102
0.00388425
0.0051173
0.00680385
0.0089789
0.0148256
0.0202936
0.0148424
0.00674556
0.0719999
0.0162856
0.00460101
0.00282546
0.00266789
0.00289056
0.00316539
0.00369027
0.00469336
0.00627838
0.00854949
0.013249
0.0197805
0.0154565
0.00707301
0.0719999
0.0150081
0.00421401
0.00267113
0.00258196
0.00288032
0.0033019
0.00381171
0.00437215
0.00560872
0.00769807
0.0120072
0.0176618
0.0148707
0.00784353
0.0719999
0.0138299
0.00384225
0.0025113
0.00247735
0.00283231
0.00340724
0.00415371
0.00456301
0.00508768
0.00647248
0.0100603
0.0149465
0.0129779
0.00805838
0.0719999
0.0128537
0.0035151
0.00236133
0.00236814
0.00273836
0.00343409
0.00447061
0.00509938
0.00536482
0.0055091
0.00736383
0.0115357
0.0105353
0.00620726
0.0719999
0.0123324
0.00325848
0.00223466
0.00226665
0.00261704
0.00339406
0.00468657
0.00569396
0.00615652
0.00596531
0.00550622
0.00711531
0.00766637
0.0044355
0.0719999
0.0124352
0.00312404
0.00214226
0.00218475
0.00250246
0.00330252
0.00481296
0.00625152
0.00703361
0.00733157
0.00685614
0.00416977
0.00458789
0.00309397
0.0719999
0.0129693
0.0031623
0.00210016
0.00212848
0.0024132
0.00317811
0.00486854
0.00676061
0.00788127
0.00875415
0.0100535
0.0051748
0.00272024
0.00203571
0.0719999
0.0137506
0.00332265
0.00211787
0.00210615
0.00236065
0.00305945
0.00488207
0.00724393
0.00875066
0.0101031
0.0128059
0.00863002
0.00274708
0.00142044
0.0719999
0.0146303
0.00356532
0.00218159
0.0021257
0.00235328
0.00295341
0.00494683
0.00769776
0.00963539
0.0116659
0.0152009
0.0108982
0.00401231
0.0013803
0.0719999
0.0155327
0.00385478
0.00228056
0.00218066
0.00238621
0.00287811
0.00509021
0.00812858
0.0103401
0.0135825
0.0182238
0.0120234
0.00574002
0.00176276
0.0162798
0.0719999
0.00416959
0.00240528
0.00226157
0.0024498
0.00292455
0.00527843
0.00852457
0.0107584
0.0153052
0.0227791
0.0128546
0.00757475
0.0020813
0.00445809
0.0175065
0.0719999
0.00254868
0.00236123
0.00254061
0.00305971
0.00547867
0.00881875
0.0108473
0.0160677
0.0278245
0.0129051
0.00901392
0.0024053
0.00269561
0.00493726
0.018362
0.0719999
0.00247504
0.00265824
0.00324859
0.00564038
0.00888452
0.010926
0.0155153
0.0302089
0.0139504
0.00950881
0.00291955
0.00259424
0.00293976
0.00534249
0.019227
0.0719999
0.00280064
0.00346324
0.00576257
0.0088397
0.0110166
0.0152906
0.0307318
0.0158159
0.00905481
0.00333197
0.00295534
0.00277708
0.0032042
0.00585783
0.0208599
0.0719999
0.00369069
0.00586445
0.00877458
0.0110983
0.0155255
0.0286245
0.0174544
0.00823895
0.0032869
0.00391022
0.00317216
0.00299287
0.00357242
0.00672264
0.0312714
0.0719999
0.00595452
0.0087107
0.01116
0.0162362
0.0261169
0.0189631
0.00794143
0.00303892
0.00603742
0.00420105
0.00341195
0.00324294
0.00432826
0.0120756
0.0561389
0.0719999
0.00866894
0.0112102
0.0172048
0.0246686
0.019707
0.00859487
0.00300863
0.00863312
0.00601507
0.00447001
0.0036243
0.00371994
0.00803273
0.0201936
0.0706789
0.0719999
0.0112559
0.0180492
0.0240106
0.0197573
0.0100162
0.00318935
0.0113029
0.00860748
0.00597357
0.00467714
0.00400242
0.00572218
0.0131897
0.0347435
0.0924519
0.0719999
0.01861
0.0234874
0.0192052
0.0109188
0.00427462
0.018896
0.0114885
0.0085713
0.00596864
0.00494528
0.00647452
0.0163864
0.0485307
0.0960257
0.0899671
0.911725
0.0228688
0.0180958
0.0109918
0.0050209
0.0247988
0.0211548
0.0262909
0.0201228
0.011528
0.015276
0.0624928
0.161859
0.303657
0.133744
2.43514
18.4383
0.0170352
0.0104823
0.00523322
0.0190078
0.0789495
0.339693
0.617061
0.360213
0.135809
0.223893
0.662656
1.01228
0.613525
1.91236
17.3194
18.2316
17.766
0.0101076
0.00513596
0.0114798
0.0755722
0.94498
3.54315
3.50898
1.79163
0.805959
1.57455
2.38311
1.80347
1.52207
16.0536
17.2117
18.8587
19.2322
18.5337
0.005147
0.00556716
0.047274
0.863228
4.80996
9.28776
7.78704
3.81783
3.16144
4.31606
3.64085
1.42287
13.5317
16.2586
17.1816
19.7672
20.6939
20.5784
19.2262
0.0173978
0.604657
4.4057
9.92347
12.8889
10.407
6.11598
7.46774
5.91176
4.19255
11.0569
15.0032
15.7614
17.548
20.1466
22.1006
22.4939
21.9204
19.8634
0.275322
3.40739
9.38878
12.7204
14.5671
11.3918
10.1895
9.51816
6.31184
9.9598
13.7234
14.4377
15.6397
17.462
20.1419
22.9647
24.4394
24.3879
23.4199
20.5023
2.02555
8.14486
11.3444
13.6675
14.8285
11.7636
13.7082
9.81684
8.21792
13.2413
13.2573
14.0044
15.2913
17.1609
41.2932
22.9351
25.6462
26.7269
26.3422
24.996
21.1585
5.79328
10.5706
11.4776
13.4195
14.3584
13.3813
13.3612
10.3705
12.8279
12.5842
12.7454
13.4764
14.6848
24.3794
304.601
40.5852
304.78
300
300.139
25.7661
28.3153
29.1483
28.5349
26.8656
21.8727
8.33164
10.9024
11.3993
13.0476
13.6801
15.3138
13.1186
11.2636
12.656
11.871
12.1416
12.8348
16.9389
80.3045
315.92
413.993
25.7702
316.111
296.108
296.316
414.191
412.02
412.19
29.0187
31.4012
32.0099
31.063
28.9957
22.6752
8.93038
10.2165
11.2825
12.9966
13.3661
14.306
12.958
12.2433
11.7004
11.2858
11.4898
13.0937
42.0699
301.046
301.087
299.544
299.579
429.504
447.241
29.0808
62.1015
429.717
419.812
420.174
447.191
441.573
441.443
32.8552
35.1829
35.4445
34.0101
31.4416
23.487
6.75708
9.11607
11.1155
12.7819
11.0407
13.0651
12.8737
11.7227
11.0771
10.7541
11.1628
35.6759
271.013
271.02
273.993
274.075
393.366
393.453
399.47
399.44
465.503
431.82
695.191
428.982
704.35
32.9893
48.3736
327.542
327.521
327.638
327.748
465.453
473.024
473.034
430.976
695.617
428.874
702.147
426.489
661.016
415.006
694.393
426.106
663.978
415.713
693.449
37.7053
39.9885
39.6145
37.3205
33.948
24.23
5.46861
7.63753
9.86539
9.88302
8.95372
14.3562
12.7435
10.9495
10.6475
10.3644
37.5357
268.439
268.53
271.416
271.624
380.719
380.638
384.253
384.13
642.441
718.69
393.356
645.341
396.042
418.875
722.264
643.112
393.564
645.451
396.08
420.238
655.484
401.296
659.019
403.523
655.931
401.442
659.063
403.534
447.434
708.858
439.37
726.752
442.162
765.842
439.235
773.167
38.301
47.2322
327.562
327.603
332.278
332.216
456.904
456.838
457.644
457.818
446.939
709.919
439.526
725.483
458.481
724.121
452.551
747.05
457.9
727.109
453.267
745.536
441.201
766.886
439.425
771.451
435.053
759.323
434.835
758.866
44.1656
46.0609
44.4031
40.6152
36.2288
24.8458
4.24004
5.37723
6.21558
6.54907
9.26422
14.9164
11.7651
10.7804
10.0093
38.1937
293.739
293.858
300.201
300.334
380.018
379.918
389.319
389.256
639.12
389.192
641.174
389.731
640.354
389.634
643.714
390.532
645.258
392.445
646.803
392.783
648.228
393.431
649.575
393.702
739.485
683.815
400.489
421.914
705.114
408.058
743.443
684.42
423.568
400.706
705.228
408.117
719.01
414.144
725.365
417.321
719.991
414.519
725.584
417.407
456.754
774.013
444.94
797.091
446.688
782.976
444.178
789.921
46.1187
46.7069
296.537
296.682
305.128
305.17
467.447
467.252
468.863
468.706
769.759
467.301
752.438
460.228
770.39
467.478
753.027
460.398
735.067
797.14
451.644
724.786
449.153
463.206
737.117
799.921
452.373
725.986
449.599
464.268
456.353
776.084
445.657
796.36
469.635
820.019
468.853
818.371
445.427
782.978
444.155
786.91
438.296
773.594
438.391
773.76
52.8422
53.3354
49.179
43.4241
38.0356
25.2357
2.52523
3.32853
4.15858
6.3074
11.3915
14.4719
12.1369
10.7676
10.6571
309.374
309.483
289.838
289.992
408.499
408.437
424.664
424.745
641.675
390.451
645.345
392.567
644.064
391.29
647.708
393.312
649.979
406.343
657.511
400.525
651.837
406.861
659.294
401.13
704.807
404.877
709.546
407.031
706.756
405.719
712.72
408.424
722.772
413.272
720.655
411.927
726.686
415.03
723.653
413.402
460.068
787.484
447.803
810.682
57.9865
47.7334
256.289
256.375
270.943
271.026
431.023
430.911
441.602
441.437
786.5
477.735
792.076
479.676
789.287
478.599
794.577
480.462
787.725
477.232
793.623
480.467
788.404
477.439
795.888
481.111
849.671
486.338
827.595
475.573
850.756
486.716
828.209
475.861
827.923
769.282
454.218
471.136
786.725
457.972
830.215
771.455
455.061
472.194
787.996
458.54
459.764
789.287
448.6
810.019
474.547
837.267
473.819
835.848
63.7936
60.7931
52.9154
45.1979
39.0333
25.2833
1.45829
2.26276
4.27981
6.86223
12.3357
15.6645
13.6145
11.7102
54.188
437.668
437.762
412.656
412.879
468.241
468.206
480.483
480.474
721.841
413.165
734.553
419.53
725.074
414.659
737.071
420.714
739.414
434.207
753.559
430.083
741.857
435.157
756.08
431.237
739.059
419.321
743.147
421.164
75.0353
57.365
192.268
192.375
216.833
216.901
372.935
372.972
395.231
395.114
717.815
439.521
735.405
445.137
720.362
440.305
737.284
445.784
763.336
461.79
745.737
452.896
765.579
462.561
748.095
453.607
882.101
503.535
882.191
503.669
885.451
505.019
884.58
504.84
867.26
496.254
875.296
501.105
868.348
496.692
877.528
502.053
75.8731
66.1383
54.6774
45.6735
39.1123
24.7603
0.966734
2.17663
5.6455
10.1503
15.2658
18.2632
17.886
15.0809
323.373
323.502
295.845
295.955
488.504
488.29
460.745
460.979
460.998
740.593
455.52
752.897
460.964
740.262
455.455
752.854
468.36
762.032
468.765
763.243
468.581
764.366
469.446
763.861
748.553
423.968
765.337
433.421
751.611
425.531
767.516
434.604
786.17
450.51
785.895
445.166
788.507
451.521
787.987
446.318
95.793
89.2156
102.288
279.82
279.972
326.123
326.237
438.172
438.209
489.148
489.29
812.534
467.494
836.18
476.129
815.808
468.925
838.805
477.387
864.327
492.738
849.425
483.886
867.486
494.229
852.265
485.244
897.642
508.943
901.651
510.646
83.4278
67.9636
54.065
45.0234
37.7219
25.6306
0.973806
2.72487
7.85414
19.0543
26.6813
32.5755
27.9769
57.4906
444.627
444.432
395.099
394.981
770.205
474.095
473.539
750.785
771.86
474.535
473.195
750.111
502.298
502.195
478.424
811.038
468.1
834.843
478.269
810.995
468.045
834.237
486.171
850.97
487.459
849.8
486.515
853.505
488.565
850.347
805.852
458.642
808.051
459.471
105.473
125.804
126.338
298.077
298.247
347.041
347.449
368.002
368.163
408.322
408.15
445.433
732.666
437.941
743.923
445.541
732.986
437.939
743.818
463.406
781.764
470.288
764.063
463.876
783.176
471.107
764.917
855.374
484.418
869.178
491.101
858.262
485.896
871.297
492.393
893.259
504.024
880.125
497.173
896.804
505.79
883.151
498.758
85.0557
65.6406
51.6993
42.6785
33.8263
1.14735
4.21429
13.7418
29.3236
48.3502
77.4294
89.4644
316.587
316.513
291.34
291.365
742.5
452.504
711.661
446.617
743.728
452.91
713.553
447.039
463.089
463.025
858.901
492.15
487.347
826.437
860.586
492.859
487.184
826.399
772.621
475.843
784.192
481.804
774.136
476.215
784.298
481.792
491.96
875.11
496.419
866.479
492.589
877.612
497.525
868.146
105.203
135.925
178.599
266.782
461.556
461.088
454.463
454.166
490.712
490.406
724.522
427.125
416.548
696.587
724.363
426.935
416.364
696.5
468.551
821.809
464.465
827.027
469.022
822.209
464.658
827.809
474.539
834.862
476.933
834.967
475.354
837.075
478.082
836.287
864.882
487.549
868.355
489.142
80.6519
60.0361
47.7998
38.6284
1.64903
8.2128
25.241
42.9859
69.5831
106.583
268.616
268.589
351.369
351.4
417.748
417.611
375.154
374.984
832.531
476.373
790.607
465.783
833.931
477.06
791.78
466.265
458.037
702.598
442.235
749.286
458.197
704.184
442.542
749.744
887.802
502.466
497.801
871.481
888.312
502.861
497.515
870.846
852.6
488.272
854.745
491.394
854.539
489.058
855.302
491.633
97.3935
129.734
182.022
301.98
605.077
604.976
593.291
592.833
607.686
606.747
848.829
481.272
832.633
479.541
845.609
479.702
828.377
477.082
824.412
477.622
832.334
479.413
792.865
451.812
823.216
476.822
831.489
478.981
793.044
451.81
818.408
460.775
818.655
460.883
476.881
859.319
480.259
851.336
477.395
860.277
480.611
852.337
70.9775
53.3279
41.7355
3.5018
17.2639
37.0086
57.8474
84.6797
159.772
295.248
295.153
309.805
309.801
659.179
762.741
409.109
633.289
393.988
449.061
763.91
659.725
449.474
409.226
634.456
394.222
488.749
329.253
540.506
345.593
491.217
329.6
541.519
345.797
855.758
485.818
839.468
479.528
856.986
486.475
840.272
479.944
468.973
815.654
469.231
816.119
499.23
877.82
499.06
877.449
862.529
490.655
864.65
491.502
82.9524
115.329
162.349
263.45
682.381
682.462
660.159
660.064
682.372
681.624
694.845
694.27
555.584
969.332
557.899
986.33
520.021
919.003
555.298
969.41
557.094
986.083
519.302
918.16
921.326
514.278
920.006
513.5
904.118
506.287
901.051
859.362
503.607
481.403
903.406
505.719
899.988
859.804
503.116
481.435
864.791
483.089
865.257
483.248
60.5849
43.8971
8.60844
28.669
47.9492
64.5938
92.4149
261.141
261.176
214.191
214.283
310.565
310.552
277.776
277.864
768.131
687.136
404.359
444.065
653.838
383.364
769.471
687.914
444.497
404.623
655.069
383.816
426.248
280.845
526.478
322.302
428.02
281.285
527.492
322.678
845.826
480.975
846.579
481.37
68.9832
95.4642
137.618
210.926
426.253
709.18
709.106
705.272
704.775
1086.52
629.968
1094.82
622.859
1085.99
629.153
1094.41
622.505
1059.98
1017.44
599.284
1073.63
610.366
577.195
1058.66
1016.39
598.509
1073.37
609.876
576.449
564.784
547.616
1005.82
977.766
564.548
547.415
1005.35
977.637
964.27
539.443
964.159
539.219
946.159
528.76
888.373
497.054
946.263
528.416
888.372
496.956
45.3854
17.7646
38.6269
51.6392
66.5169
125.797
227.202
227.241
190.727
190.746
223.991
405.453
237.258
381.626
224.419
405.724
237.38
382.549
252.338
252.59
398.787
249.313
456.99
290.848
400.097
249.784
458.063
291.257
46.4289
76.7015
107.911
166.333
288.441
754.67
754.859
761.606
761.518
739.169
739.115
787.829
787.489
1130.87
644.238
1114.9
628.293
1133.25
645.203
1117.49
629.583
1038.43
1052.56
583.744
593.145
1080.67
608.445
1037.06
1052.48
593.099
582.86
1082.45
609.324
556.784
994.073
556.983
994.63
28.0783
43.7467
49.1863
72.5443
232.729
232.677
267
267.07
202.517
202.691
174.555
174.49
199.46
334.496
200.882
335.358
200.234
335.794
201.419
336.969
333.834
197.865
330.567
196.648
334.579
198.087
331.743
197.229
331.37
211.148
332.448
211.536
47.2362
82.0647
121.512
206.222
425.199
752.747
752.764
780.12
779.712
813.793
812.893
666.713
1163.93
661.54
1148.81
665.931
1163.15
661.274
1147.6
1145.3
645.577
1106.59
623.741
1147.52
646.54
1109.8
625.286
34.7911
44.881
44.8238
94.3244
206.742
206.639
251.09
251.044
301.711
181.209
133.617
248.69
154.472
203.693
302.412
181.546
133.936
249.379
154.806
204.494
144.487
144.49
194.205
319.64
197.197
323.162
194.745
320.727
197.664
324.261
305.397
184.706
306.125
185.029
47.5273
84.048
138.161
267.604
705.544
705.705
743.109
743.123
752.112
752.56
819.429
819.275
1172.11
680.898
1192.76
676.917
1179.32
671.94
1171.72
679.589
1191.36
675.955
1177.31
671
1173.92
660.408
1173.65
660.181
1142.83
643.155
1144.74
643.833
34.8492
40.0246
39.3921
214.368
214.217
179.532
179.379
188.136
188.003
224.007
223.982
268.173
165.783
123.37
214.182
138.024
185.719
268.823
166.069
123.585
214.68
138.281
186.274
189.852
126.39
166.95
110.345
189.844
126.295
167.091
110.438
46.7642
81.9159
159.539
374.163
701.016
700.922
757.307
756.894
821.515
821.95
1185.7
676.315
680.621
1191.67
679.263
1164.44
682.835
1194.19
680.712
1169.02
1186.02
676.254
1178.36
1176.83
663.388
662.469
1177.17
1175.83
662.778
661.716
1158.65
651.091
1157.93
650.497
30.327
21.9837
55.2602
196.404
196.287
177.202
177.114
183.789
120.202
172.47
242.508
144.459
289.155
183.735
120.115
171.908
242.945
144.391
288.017
195.013
194.886
116.017
175.088
116.198
175.381
170.415
113.547
170.504
113.561
44.3328
76.1368
186.01
565.694
565.662
633.974
633.809
677.367
677.107
780.632
779.392
1158.3
677.142
1196.13
682.929
1191.58
681.074
1158.1
1196.26
683.497
676.157
1198.79
684.068
1178.78
665.299
1179.28
667.158
1184.69
1179.6
669.793
665.659
10.6828
36.0915
100.032
207.588
207.537
190.144
190.093
188.504
121.386
154.176
220.534
137.977
243.539
188.472
121.332
153.758
220.426
137.662
242.762
297.704
185.723
294.246
168.98
297.889
185.643
294.306
168.871
180.661
119.419
180.676
119.401
39.9355
72.5446
212.786
531.916
531.559
607.768
606.915
704.401
703.332
1167.63
667.868
609.393
1114.08
637.682
1029.51
1166.88
667.004
607.594
1109.86
635.756
1026.24
1172.18
1173.14
664.297
666.787
1178.07
668.839
1173.03
664.563
21.0414
78.6239
161.793
198.902
198.784
161.822
251.064
250.988
222.678
295.031
183.601
222.635
295.042
183.514
189.234
124.137
145.346
213.459
138.522
248.29
189.141
124.191
145.168
214.786
138.149
248.329
285.052
164.407
284.964
164.275
34.6198
76.8466
201.381
471.237
470.696
580.977
579.509
906.613
543.07
989.842
568
1036.01
595.631
903.033
1033.04
594.349
540.203
988.94
567.409
1143.05
647.518
1072.89
608.954
1140.84
646.233
1071.12
608.238
1137.22
646.932
1136.57
646.511
50.5861
81.9666
172.662
209.115
172.57
208.943
234.418
234.407
296.907
330.518
203.537
315.32
196.859
209.524
266.5
217.954
328.929
295.681
202.751
314.796
196.617
209.072
267.269
217.061
143.275
239.235
143.101
239.141
312.692
178.453
312.062
178.057
29.9091
82.3
260.981
443.357
442.343
260.718
340.349
339.91
559.759
902.409
526.516
558.77
900.469
524.923
1010.77
961.004
573.417
544.387
1012.06
574.048
961.484
544.404
1083.32
618.724
1019.79
581.179
1080.95
617.71
1021.08
581.914
21.355
78.1852
212.433
227.302
320.714
185.208
212.103
227.742
321.091
185.003
194.593
194.719
338.064
358.428
341.264
194.664
198.907
227.436
336.777
339.578
359.393
193.734
198.273
227.961
165.87
285.712
165.554
285.293
26.4139
104.553
280.395
413.727
412.188
279.578
334.298
332.668
744.986
834.712
481.041
873.263
507.193
433.738
639.895
406.038
743.867
834.366
480.547
871.064
505.583
433.13
634.334
402.121
970.351
927.882
548.236
523.995
973.354
549.552
926.896
523.386
13.6627
177.286
183.53
183.394
177.251
168.254
167.911
312.453
225.022
342.251
221.348
323.324
243.104
315.737
221.849
196.391
306.803
221.95
316.041
225.32
345.125
221.423
323.7
239.985
313.884
220.245
195.981
310.968
220.022
319.734
351.16
205.199
221.116
320.526
350.332
205.583
220.949
24.2439
113.344
262.656
421.478
388.793
641.431
418.86
387.731
640.047
260.854
327.621
323.481
783.02
703.153
879.711
447.989
496.589
406.958
785.34
702.475
877.894
495.781
448.745
406.351
936.103
528.621
937.372
529.068
22.5199
175.151
153.262
175.169
153.099
125.634
125.255
367.036
349.284
214.966
226.436
328.872
205.857
266.789
274.793
186.06
295.102
208.773
195.238
291.285
233.857
365.872
351.154
225.786
215.07
328.134
204.476
274.436
264.221
183.962
297.458
206.34
193.503
292.207
232.291
22.3643
81.6232
262.991
261.322
83.4384
170.557
172.079
474.218
378.903
619.162
364.756
630.977
334.471
545.374
324.566
460.763
376.284
612.314
360.66
626.96
325.651
534.2
319.044
338.234
465.45
304.048
334.446
452.324
295.42
724.148
668.804
421.875
390.864
727.062
666.049
422.521
389.61
13.4382
154.422
206.719
270.747
118.494
154.266
207.62
270.343
118.139
96.0548
95.5013
341.061
211.693
300.267
189.162
252.558
262.539
278.406
174.137
158.13
168.521
339.755
210.774
297.337
187.514
251.849
276.602
260.097
172.812
156.053
167.209
20.2841
120.145
230.675
228.219
120.624
155.468
155.36
656.653
586.218
381.993
334.953
498.281
291.135
653.4
576.148
380.519
330.541
488.57
286.598
407.149
438.805
263.874
456.807
287.826
256.924
389.675
299.375
393.535
430.859
259.371
444.864
280.053
249.124
379.592
293.087
9.82772
75.3142
75.0973
138.744
197.342
239.007
195.055
251.862
100.013
138.65
197.177
238.235
193.176
250.318
99.504
249.764
236.976
241.073
157.696
147.586
154.524
249.099
234.761
238.111
156.901
145.869
152.788
19.4331
95.7355
238.248
259.746
353.827
235.041
258.505
347.249
96.8113
136.394
137.319
541.135
314.564
471.949
275.539
531.342
311.307
464.399
272.7
405.585
353.916
448.223
233.165
259.975
209.912
396.723
338.601
443.101
258.019
228.77
202.817
9.27225
59.6829
57.3303
59.2817
57.1611
129.918
185.827
222.84
188.946
221.582
234.114
151.555
86.7966
129.765
187.253
223.208
188.139
220.317
232.474
150.088
85.9156
229.015
143.806
228.639
142.691
20.5735
83.1734
83.4719
222.068
261.431
365.806
264.135
357.704
220.477
257.199
352.073
256.134
348.122
109.803
109.969
372.268
406.887
357.005
220.783
238.614
209.229
363.65
403.369
340.742
237.189
217.351
202.458
9.38324
55.7809
56.4619
55.7477
56.5388
82.1366
81.1937
123.46
181.527
208.179
179.996
213.541
151.173
227.676
150.027
225.355
223.354
142.997
123.386
181.904
207.99
179.121
212.305
149.493
226.312
148.933
221.729
224.283
142.548
23.0014
80.1369
85.9003
80.4038
85.7286
198.054
248.549
353.465
258.427
335.131
345.54
202.727
196.434
249.071
344.176
253.288
334.322
331.486
197.401
88.758
90.8553
368.92
219.95
358.354
216.757
8.68091
57.6012
60.6379
57.5831
60.4384
79.9999
77.9642
79.5818
77.6907
117.415
117.135
173.9
199.834
176.172
197.809
143.597
191.684
136.135
204.054
157.637
221.9
146.153
227.493
175.711
200.603
176.106
198.637
142.74
190.067
135.573
201.713
157.114
223.141
146.07
227.572
25.552
99.8698
116.935
99.7883
117.069
79.1449
83.0756
179.99
235.61
315.585
233.412
320.819
198.849
332.653
198.365
326.06
360.649
214.706
179.005
235.28
307.802
228.414
320.183
197.207
320.428
194.583
318.504
349.681
212.231
3.21122
59.6447
65.4765
59.3894
64.8906
81.9224
87.4019
81.6513
87.093
108.215
103.344
107.645
102.894
172.298
182.657
169.195
189.533
173.952
183.447
170.863
190.139
130.144
185.741
132.885
180.421
129.832
183.985
132.276
178.414
26.1676
124.591
112.773
125.078
113.72
97.8428
130.225
99.652
130.29
165.948
166.496
217.728
295.73
225.011
280.056
201.906
309.833
202.272
325.004
202.44
335.845
201.633
323.807
219.817
289.699
221.015
282.757
201.679
306.617
201.857
321.138
203.876
325.871
200.966
315.625
25.5903
1.77635
83.3747
64.6607
82.9456
64.0772
102.941
109.79
102.469
109.328
166.344
173.634
166.071
174.665
165.142
172.226
167.729
171.439
168.211
174.578
167.85
175.264
166.603
171.55
166.639
172.022
124.819
162.968
122.311
169.443
125.114
162.491
122.718
168.543
28.8747
96.8704
103.539
97.5925
103.897
147.33
137.761
147.604
138.82
168.729
188.188
169.156
187.562
216.366
280.955
221.796
272.846
218.792
280.305
221.282
276.289
171.189
259.172
177.952
256.366
171.175
256.51
177.525
256.223
10.6075
84.946
76.5105
84.7803
76.8518
2.39375
116.861
114.756
116.302
113.902
168.251
173.852
167.526
174.051
174.834
189.88
180.524
182.339
169.32
172.871
166.412
174.494
176.583
187.783
178.149
183.269
116.293
153.644
118.056
149.205
115.423
153.684
118.375
147.773
117.063
154.105
118.713
150.304
116.038
152.49
117.873
148.799
33.5062
88.1496
115.625
124.637
117.135
124.983
199.515
200.903
198.768
200.362
221.303
282.358
223.171
278.366
225.657
304
232.396
287.376
223.386
281.241
222.26
281.098
227.746
299.135
229.068
289.712
168.8
236.777
161.37
242.564
168.969
236.339
161.264
243.575
10.2052
52.0459
74.8109
53.0706
75.0179
142.173
128.34
142.126
129.361
1.38754
186.006
202.468
185.928
205.978
186.954
235.956
217.844
210.519
186.112
199.903
182.998
205.692
188.037
234.6
215.825
211.34
118.067
160.869
120.951
159.294
118.241
183.784
129.992
164.164
118.533
159.232
120.393
159.616
119.556
179.039
126.304
166.173
42.5505
93.1411
199.692
175.6
196.792
171.664
186.971
174.628
185.56
171.199
234.645
310.864
236.526
303.519
240.654
316.444
247.898
306.004
236.6
304.611
232.057
306.519
243.39
310.591
244.245
309.278
160.423
243.601
166.339
237.166
170.14
268.432
175.392
257.316
160.79
243.167
166.061
238.482
170.225
266.706
174.883
257.795
39.135
5.34837
90.8436
79.0716
91.8415
78.8642
212.514
226.902
166.499
220.582
186.225
186.327
249.567
224.284
226.896
195.904
213.066
220.101
162.762
221.551
181.918
182.288
248.064
218.684
228.169
191.295
2.66986
139.265
204.792
139.834
203.903
145.955
213.752
136.547
197.644
134.352
200.588
145.772
214.672
107.886
160.232
111.412
148.643
108.99
154.851
108.22
151.09
53.7874
117.395
231.429
221.544
230.764
222.308
282.63
276.715
277.252
270.59
238.782
313.686
249.647
289.552
228.029
341.748
279.535
282.926
239.714
306.273
244.622
289.932
226.777
328.798
270.76
279.634
181.809
264.231
173.419
277.447
179.952
270.156
169.745
280.526
182.157
263.384
173.498
278.384
179.872
264.702
168.229
279.775
29.7574
142.029
143.289
142.131
143.54
11.8661
162.675
164.781
161.979
164.214
207.124
234.977
139.268
150.581
240.096
157.128
252.282
195.488
252.176
165.66
205.694
234.455
135.287
148.342
238.669
154.116
244.204
191.051
251.3
163.063
2.91822
116.322
176.483
117.206
176.97
127.512
199.976
113.594
168.958
112.341
173.519
126.929
200.744
59.8229
160.815
277.281
355.997
415.212
353.895
414.853
410.151
342.647
255.191
433.957
287.48
234.232
520.835
366.744
463.541
311.18
327.945
399.487
248.608
422.394
279.504
227.051
510.215
359.43
452.576
303.419
162.269
255.661
161.211
243.227
170.991
261.547
161.303
252.372
159.908
240.836
167.747
252.809
213.029
294.261
196.239
313.91
213.042
291.144
195.859
313.183
37.9675
137.84
158.641
138.219
158.596
199.726
205.392
200.414
206.125
8.83946
200.944
256.431
183.206
266.48
211.345
289.32
233.611
282.099
199.62
254.57
180.516
265.92
211.259
291.235
231.553
281.947
213.883
137.347
254.292
167.65
260.632
165.299
214.979
135.243
252.025
164.462
260.256
163.372
2.0314
60.3095
171.318
324.214
625.824
699.367
623.867
698.874
547.906
578.778
544.547
575.349
374.413
458.895
279.95
218.546
495.777
302.981
672.817
403.496
573.249
347.921
367.509
454.356
215.541
278.17
492.385
301.232
666.197
399.948
570.273
346.043
179.974
283.258
184.665
287.9
193.377
321.508
179.175
280.928
184.085
285.338
192.135
318.092
112.556
27.4893
198.897
205.24
199.312
205.111
332.865
284.259
217.179
342.102
234.098
207.663
374.429
273.263
359.23
248.358
342.447
284.398
219.271
352.009
235.744
206.44
382.821
273.435
368.387
249.919
4.91771
185.517
280.64
180.229
285.765
192.029
298.215
184.83
278.525
179.392
283.913
191.7
297.598
1.38113
58.2105
157.674
283.639
782.377
821.163
782.215
821.216
774.633
812.412
771.69
810.912
535.246
860.758
501.834
909.57
561.596
948.687
580.108
948.241
530.188
854.567
497.38
901.942
556.407
933.696
571.494
939.848
432.696
261.565
754.593
440.754
677.289
408.067
429.221
260.284
752.585
439.446
676.191
407.392
71.453
286.617
300.82
286.729
301.008
14.5695
273.935
272.149
274.946
272.366
320.947
337.516
196.86
205.055
361.727
220.102
398.933