/*--------------------------------*- C++ -*----------------------------------*\
| =========                 |                                                 |
| \\      /  F ield         | OpenFOAM: The Open Source CFD Toolbox           |
|  \\    /   O peration     | Version:  5.x                                   |
|   \\  /    A nd           | Web:      www.OpenFOAM.org                      |
|    \\/     M anipulation  |                                                 |
\*---------------------------------------------------------------------------*/
FoamFile
{
    version     2.0;
    format      ascii;
    class       volScalarField;
    location    "2.5";
    object      p;
}
// * * * * * * * * * * * * * * * * * * * * * * * * * * * * * * * * * * * * * //

dimensions      [1 -1 -2 0 0 0 0];

internalField   nonuniform List<scalar> 
12160
(
5249.09
5309.04
4594.65
5335.02
4654.5
3939.86
5381.96
4680.5
3999.45
3284.56
5424.74
4727.45
4025.44
3343.8
2629.1
5469.82
4770.29
4072.38
3369.82
2687.67
1972.98
5516.04
4815.46
4115.23
3416.78
2713.7
2030.86
1317.15
5562.51
4861.79
4160.61
3459.71
2760.57
2056.96
1373.53
660.169
5608.48
4908.41
4207.2
3505.36
2803.61
2103.78
1399.7
717.752
171.004
5652.88
4954.58
4254.14
3552.32
2849.64
2146.99
1446.21
743.527
201.623
2.1603
5694.32
4999.26
4300.72
3599.73
2897.09
2193.5
1489.63
789.138
215.475
4.31826
-6.53976
5731.51
5041.09
4345.98
3646.9
2945.1
2241.57
1536.62
833.053
242.936
5.48449
-6.66262
-7.4692
5762.66
5078.75
4388.59
3692.98
2993.04
2290.31
1585.34
880.885
272.545
10.8707
-6.72533
-7.49934
-8.16275
5785.78
5110.42
4427.23
3736.77
3040.2
2339.17
1634.86
930.666
306.997
18.2823
-6.75387
-7.49913
-8.20204
-8.80149
5799.2
5133.99
4459.96
3776.9
3085.55
2387.65
1684.68
981.23
344.428
28.5037
-6.72155
-7.48909
-8.1645
-8.80356
-9.48623
5802.1
5147.62
4484.54
3811.3
3127.65
2435.01
1734.66
1031.98
383.157
40.8675
-6.59336
-7.4757
-8.12559
-8.80901
-9.51129
5794.88
5150.7
4498.97
3837.41
3164.17
2479.84
1784.43
1083.27
423.804
54.432
-6.15846
-7.49909
-8.12121
-8.81326
-9.49259
5778.72
5143.31
4502.14
3852.84
3192.17
2519.65
1832.45
1135.45
467.428
70.3009
-5.41661
-7.5237
-8.14114
-8.81146
-9.47217
5755.53
5126.74
4494.35
3856.34
3208.84
2550.91
1875.92
1187
514.93
89.3908
-4.24249
-7.52281
-8.17438
-8.81952
-9.47021
5727.47
5102.97
4476.91
3847.92
3213.49
2570.23
1910.3
1235.23
565.229
112.724
-2.53075
-7.51217
-8.17795
-8.83177
-9.47369
5696.65
5074.28
4451.94
3829.16
3204.46
2574.85
1931.17
1274.66
614.334
140.645
0.0382882
-7.48892
-8.17294
-8.83183
-9.48066
5665
5042.83
4421.92
3802.37
3183.86
2564.13
1937.97
1299.72
655.094
171.384
3.94019
-7.47714
-8.15913
-8.82776
-9.48237
5633.99
5010.63
4389.2
3770.31
3154.47
2540.96
1927.16
1308.7
680.659
199.581
9.45136
-7.41041
-8.17139
-8.81764
-9.48292
5604.66
4979.15
4355.85
3735.63
3119.53
2508.17
1900.93
1294.63
685.036
218.722
15.7799
-7.26656
-8.21322
-8.81578
-9.48269
5577.72
4949.47
4323.43
3700.54
3082.11
2469.44
1863.61
1263.88
678.033
224.672
20.7628
-7.02617
-8.26385
-8.81029
-9.48836
5553.59
4922.31
4293.06
3666.68
3044.6
2428.41
1819.85
1220.92
645.79
215.971
22.6693
-6.77375
-8.29444
-8.8223
-9.50917
5532.52
4898.08
4265.45
3635.24
3008.77
2387.81
1774.31
1171.61
602.163
194.552
20.8179
-6.63652
-8.29185
-8.85387
-9.52583
5514.56
4877.02
4241.02
3606.97
2975.87
2349.46
1729.88
1121.11
554.346
166.712
15.8645
-6.68227
-8.29654
-8.89675
-9.52512
5499.54
4859.16
4219.99
3582.24
2946.7
2314.69
1688.46
1072.33
505.952
138.828
9.37562
-6.85262
-8.29773
-8.9054
-9.51332
5487.13
4844.31
4202.35
3561.26
2921.61
2284.37
1651.35
1027.6
460.837
113.329
3.86692
-7.07327
-8.28727
-8.88917
-9.51415
5476.91
4832.12
4187.88
3543.98
2900.74
2258.82
1619.65
988.234
421.179
91.7613
0.351224
-7.18766
-8.24956
-8.88193
-9.52335
5468.44
4822.1
4176.14
3530.1
2884.01
2238.1
1593.58
955.358
387.807
74.2829
-1.81778
-7.24983
-8.21074
-8.86388
-9.5138
5461.34
4813.78
4166.58
3519.06
2870.99
2222.14
1573.09
929.079
361.412
60.4468
-3.15974
-7.2862
-8.17884
-8.85113
-9.50469
5455.19
4806.8
4158.69
3510.15
2861
2210.43
1558.08
909.365
341.834
50.6953
-3.95914
-7.3116
-8.15516
-8.84042
-9.49625
5449.82
4800.85
4152.05
3502.75
2853.11
2201.89
1547.99
895.884
328.305
43.9853
-4.41222
-7.31933
-8.1386
-8.83004
-9.48986
5445
4795.62
4146.29
3496.46
2846.57
2195.2
1541.51
888.025
320.412
39.4437
-4.72152
-7.33469
-8.1256
-8.8186
-9.48804
5440.3
4790.88
4141.27
3491.14
2840.91
2189.42
1536.86
884.184
316.752
36.6206
-4.94578
-7.36295
-8.125
-8.8105
-9.49122
5435.42
4786.29
4136.74
3486.52
2835.92
2184.26
1532.43
881.557
315.536
35.1379
-5.12416
-7.39366
-8.13247
-8.80996
-9.49253
5430.17
4781.52
4132.37
3482.37
2831.66
2179.91
1527.85
878.051
314.799
34.5009
-5.27599
-7.42902
-8.14269
-8.81388
-9.49212
5424.3
4776.36
4127.82
3478.36
2827.97
2176.27
1523.63
873.9
312.92
34.0694
-5.40421
-7.46755
-8.15555
-8.81686
-9.49058
4770.56
5413.46
4122.85
3474.14
2824.46
2173.23
1520.45
870.506
310.248
33.4752
-5.49147
-7.50231
-8.17011
-8.81632
-9.49113
4117.21
4759.85
5393.52
3469.45
2820.71
2170.39
1518.27
868.602
310.017
33.5067
-5.53727
-7.52247
-8.179
-8.81706
-9.49406
3464.04
4106.72
4740.06
5370.38
2816.4
2167.25
1516.36
868.117
311.456
35.3843
-5.46877
-7.52949
-8.18266
-8.8253
-9.49519
2811.29
3453.89
4087.17
4717.11
5343.17
2163.46
1514.05
867.768
314.218
38.1366
-5.26884
-7.55593
-8.18207
-8.83148
-9.49224
2158.72
2801.52
3434.76
4064.56
4689.83
5313.11
1510.95
866.595
316.32
40.7478
-5.00307
-7.571
-8.17952
-8.83543
-9.48828
1506.74
2149.43
2782.87
3412.57
4037.62
4660.23
5281.29
864.306
316.861
42.4439
-4.79762
-7.54903
-8.18393
-8.84573
-9.48535
860.667
1497.94
2131.3
2761.23
3386.16
4008.76
4627.44
5245.65
316.029
43.1331
-4.69962
-7.53596
-8.1918
-8.85282
-9.48055
313.96
852.384
1480.4
2110.18
2735.94
3357.6
3974.99
4591.62
5205.19
43.1604
-4.69157
-7.52065
-8.19437
-8.84629
-9.47897
42.7754
308.769
836.146
1459.96
2085.97
2708.04
3323.13
3937.39
4545.17
5178.48
-4.72839
-7.50538
-8.18853
-8.84334
-9.48197
-4.77023
41.5734
299.45
817.251
1437.71
2058.67
2673.95
3283.35
3884.4
4516.71
5115.22
-7.48999
-8.1774
-8.8379
-9.48339
-7.47229
-4.80664
39.9343
288.91
799.061
1411.9
2025.22
2631.63
3223.57
3847.91
4440.26
5219.46
-8.16366
-8.82997
-9.48363
-8.14705
-7.42947
-4.63319
38.7727
281.917
776.984
1378.98
1982.23
2561.18
3156.28
3776.48
4539.68
4630.84
5426.22
-8.82021
-9.48218
-8.80837
-8.11059
-7.30772
-4.12511
40.1219
270.451
748.468
1337.08
1908.9
2457.97
3090.36
3831.98
4117.73
4326.21
5001.27
5593.78
-9.47927
-9.47508
-8.78339
-8.02971
-7.17098
-2.69013
38.504
252.937
716.844
1272.67
1793.5
2373.3
3108.97
3531.2
3921.32
4036.4
4676.3
5306.6
5820.11
-9.46611
-8.74035
-8.00751
-6.8373
-2.10776
33.4868
234.901
677.913
1167.72
1696.06
2348.5
2960.13
3470.67
3669.01
3777.12
4351.27
4970.78
5584.89
6113.05
-9.45258
-8.75204
-8.12498
-6.53638
-2.71864
29.2798
230.845
563.648
1076.49
1676.45
2392.28
2991.92
3280.41
3443.17
3568.08
4036.87
4586.46
5217.99
5879.23
6530.38
-9.46251
-8.96451
-8.13834
-6.71515
-3.97301
31.8698
151.721
500.906
1128.47
1848.13
2494.89
2880.85
3078.64
3276.96
3392.86
3767.32
4196.12
4747.31
5463.73
6272.98
7115.1
-9.59781
-9.15826
-8.0456
-7.135
-4.3816
15.4959
95.6958
589.451
1316.82
1990.57
2460.86
2709.38
2924.93
3136.05
2545.54
3554.12
2550.64
2487.9
2491.42
3863.59
4269.51
4888.4
5763.5
6833.89
7960.76
-9.78479
-8.95481
-8.0119
-7.26457
-5.14617
0.253931
167.258
786.432
1479.53
2016.92
2331.12
2555.79
2817.94
3027.37
2595.97
2520.72
3599.02
2601.64
2630.24
2635.89
2523.02
2411.79
2412.73
3836.22
4278.3
5056.76
6250.45
7644.1
9054.12
-9.63998
-8.79409
-7.98133
-7.24531
-6.13477
-2.8832
268
953.416
1550.56
1942.54
2182.26
2435.78
2726.15
2347.26
2345.57
2236.05
2237.8
2568.11
2529.29
3455.07
3455.38
2570.44
2611.38
2614.97
2519.65
2451.26
2441.94
3707.13
4293.07
5399.72
6999
8706.6
10377.4
-9.54544
-8.70264
-7.94413
-7.06341
-6.4549
4.30594
367.492
1048.13
1534.23
1812.81
2050.62
2330.68
2102.25
2103.4
1959.86
1960.68
2314.31
2311.94
2234.02
2229.67
2587.3
2221.45
2120.27
2263.5
2079.21
3213.03
3289.86
2626.93
2629.04
2649.21
2646.63
2577.38
2615.97
2608.38
2219.07
2122.47
2260.7
2078.47
2199.47
1981.91
2213.22
2042.09
2195.5
1977.51
2208.03
2037.11
3553.71
4465.95
6043.37
8028.96
10031
11902.4
-9.47994
-8.64393
-7.83265
-6.95016
-6.35233
29.328
467.265
1063.21
1419.77
1659.54
1935.47
1798.01
1798.67
1646.71
1647.16
2100.21
2093.31
1958
1949.25
1993.17
2022.83
2075.6
1912.75
2030.21
2132.32
2023.74
1996.48
2076.13
1913.99
2030.1
2132.16
1825.54
1952.99
1876.91
2003.35
1825.48
1952.53
1876.83
2002.82
2312.32
2163.38
2303.76
2172.99
2193.43
2191.71
2225.24
2153.98
2947.61
2999.71
2449.22
2450.61
2550.71
2552.4
2663.92
2657.76
2673.58
2668.33
2308.07
2159.52
2299.11
2167.14
2338.04
2147.53
2406.93
2180.13
2334.99
2149.65
2403.01
2177.76
2193.74
2196.01
2226.05
2157.24
2165.52
2110.23
2164.96
2110.78
3533.87
4993.6
7033.11
9337.21
11548.3
13525.5
-9.45319
-8.57395
-7.93221
-7.11518
-6.79605
70.0702
471.446
949.343
1261.77
1533.63
1484.11
1484.07
1331.74
1332.46
1799.95
1791.57
1640.03
1632.59
1757.1
1875.3
1688.37
1807.83
1757.97
1875.07
1694.82
1808.72
1570.42
1688.51
1632.12
1749.58
1575.85
1688.71
1637.61
1750.21
2068.84
1983.85
2051.79
2111.46
1961.96
2013.93
2073.17
1987.41
2113.01
2052.98
1963.97
2014.72
1885.34
1933.7
1922.46
1973.11
1887.76
1934.49
1924.46
1973.87
2288.47
2229.41
2262.96
2251.41
2208.2
2203.57
2239.07
2172.95
2787.81
2686.79
2221.06
2222.27
2338.71
2339.01
2521.86
2510.83
2606.32
2598.02
2235.66
2379.07
2248.98
2392.16
2238.78
2379.39
2252.15
2392.67
2242.24
2210.58
2357.8
2238.78
2379.88
2358.9
2247.81
2212.41
2359.16
2242.57
2380.81
2359.31
2289.02
2233.79
2263.68
2255.42
2314.7
2251.11
2315.03
2253.34
2207.22
2204.87
2239.9
2168.93
2158.53
2110.27
2158.15
2110.02
3934.37
5923.82
8341.47
10861.3
13163.7
15134.6
-9.4493
-8.51491
-7.90527
-6.9329
-7.65615
70.2938
376.414
790.194
1096.79
1168.85
1169.37
1004.6
1004.42
1472.38
1468.18
1301.45
1300.74
1502.88
1617.38
1433.61
1552.66
1505.11
1616.8
1437.53
1552.05
1271.68
1446.01
1368.66
1490.71
1272.19
1444.09
1369.63
1489.32
1799.64
1849.73
1743.33
1790.26
1802.09
1850.68
1745.98
1791.32
1626.13
1651.56
1690.77
1720.98
1632.25
1653.65
1693.69
1722.45
2312.52
2246.24
2286.77
2263.89
3021.48
2398.12
1976.14
1977.75
2085.65
2086.19
2326.47
2315.18
2424.46
2412.6
2107.41
2257.18
2148.91
2293.46
2116.27
2258.08
2157.55
2294.72
2213.95
2352.67
2182.09
2327.7
2218.17
2353.5
2192.21
2329.41
2311.58
2360.09
2322.83
2371.53
2318.33
2362.24
2326.28
2372.8
2255.79
2300.41
2390.04
2335.77
2297.61
2359.9
2259.15
2304.42
2390.93
2337.04
2300.77
2361.1
2312.95
2248.19
2287.42
2265.22
2323.39
2259.08
2323.35
2259.35
4831.36
7244.59
9899.01
12473.1
14749.7
16619
-9.51621
-8.54571
-7.98988
-6.76109
-7.19604
34.847
275.849
609.843
921.319
1128.71
1128.61
937.467
937.381
1446.03
1443.97
1296.66
1293.67
1557.44
1584.98
1489.62
1521.91
1561.34
1586.6
1493.05
1523.21
1309.6
1394.41
1413.05
1450.83
1310
1394.25
1414.87
1451.45
1613.62
1644.96
1621.45
1647.19
3864.58
2471.27
1833.99
1835.63
1855.36
1857.04
2109.52
2106.78
2210.06
2202.13
1948.52
2208.34
2046.03
2201.86
1949.32
2205.85
2047.96
2200.45
2086.2
2234
2062.38
2216.67
2090.88
2233.89
2070.47
2216.92
2262.9
2295.68
2279.45
2310.8
2271.86
2298.85
2284.76
2313.7
2307.68
2351.48
2292.85
2331.13
2314.99
2354.14
2299.75
2334.07
6199.09
8872.43
11531.9
14037.6
16217.1
17958.2
-9.48818
-8.46656
-7.99688
-6.68804
-5.6291
7.80933
188.661
439.262
744.817
745.68
555.112
556.005
1135.72
1131.23
932.894
934.271
1279.16
1268.44
1339.58
1193.9
1278.73
1268.08
1339.8
1193.28
1218.23
1050.8
1142.19
1130.69
1217.09
1051.83
1141.01
1128.42
1557.63
1584.79
1495.66
1522.22
1563.5
1586.84
1500.36
1523.94
1349.87
1379.5
1412.63
1442.18
1353.61
1380.79
1415.63
1443.48
5277.68
3180.23
2517.96
1974.13
1973.04
2009.04
2006.39
2342.57
2336.03
2401.33
2395.45
2078.79
2251.42
2174.33
2235.3
2082.58
2252.2
2178.07
2236.5
2235.15
2263.44
2206.38
2237.91
2240.18
2265.64
2210.6
2239.55
2294.5
2333.46
2307.12
2337.38
7901.51
10576.9
13102.9
15477.2
17564.7
18795.5
-9.51605
-8.39545
-7.83483
-6.79984
-4.75819
6.00263
102.296
356.562
745.349
741.819
520.028
518.6
978.691
1070.46
1022.69
888.165
980.674
1069.48
1021.04
889.524
953.12
948.795
1272.61
1297.32
1329.47
1250.96
1273.62
1300.46
1330.43
1253.24
1212.3
1104.78
1129.01
1191.49
1212.74
1106.19
1129.26
1193.77
1346.96
1380.05
1352.93
1381.79
7037.5
4637.01
3328.81
2677.49
2676.78
2417.59
2414.11
2254.94
2251.01
2307.5
2294.61
2301.57
2134.08
2282.51
2167.26
2301.36
2144.12
2283.95
2168.1
2321.15
2205.46
2308.92
2191.92
2320.63
2204.61
2309.14
2190.38
2249.44
2316.19
2276.54
2320.85
2255.22
2317.95
2280.06
2322.41
2285.84
2315.02
2281.6
2315.69
2293.93
2318.02
2287.36
2317.81
9718.17
12163.8
14504.2
16799.1
18435.4
-9.47473
-8.34237
-7.42205
-6.65072
-3.97499
23.2157
222.885
348.137
347.463
229.902
230.02
665.621
731.686
549.743
640.993
665.756
731.024
551.352
640.136
527.097
525.911
1025.25
1053.36
985.702
917.362
1026.4
1053.8
985.245
917.898
764.072
829.225
857.207
907.411
765.659
828.554
857.722
906.545
1214.11
1119.51
1142.37
1186.12
1214.48
1122.92
1143.2
1189.85
8946.33
6529.35
4800.07
4277.06
2970.37
2961.97
2734.2
2724.4
2674.19
2664.13
2129.11
2282.79
2371.61
2086.16
2131.56
2282.08
2367.62
2080.55
2431.8
2367.64
2407.32
2392.34
2432.4
2370.87
2408.56
2393.81
2416.44
2339.44
2383.7
2377.71
2416.73
2342.3
2384.59
2377.42
2319.68
2376.43
2326.63
2378.16
11401.6
13535.2
15694.9
17687.9
-9.40914
-8.32254
-7.28168
-6.07692
0.353385
42.3329
175.183
175.18
178.171
178.331
345.157
344.474
220.244
219.264
697.077
719.224
567.584
615.356
697.157
719.242
567.901
615.423
517.216
380.535
439.789
482.071
517.35
382.224
439.523
482.625
1049.23
1072.05
987.35
964.062
1050.21
1072.52
987.468
965.035
811.089
832.367
892.581
911.873
812.918
832.679
892.725
912.124
10752.2
8547.63
6760.2
5802.34
4281.43
4279.88
3812.69
3809.33
3485.89
3485.41
2633.84
2777.43
2653.26
2961.69
2634.8
2777.72
2654.23
2960.44
2598.7
2735.77
2583.71
2694.1
2282.11
2499.69
2611.95
2738.91
2592.14
2697.08
2284.34
2499.51
2349.12
2420.22
2350.4
2420.94
2522.67
2487.69
2547.35
2459.47
2523.68
2494.38
2549.14
2463.11
12787.2
14607.4
16606
-9.33663
-8.33254
-7.67765
-6.62652
18.8617
76.7224
161.636
161.24
166.867
166.563
313.82
405.008
335.941
251.378
281.837
439.628
405.952
315.094
439.942
336.332
252.825
282.045
188.698
207.329
202.694
224.261
189.019
207.131
203.803
224.487
708.17
726.342
596.914
615.786
709.501
726.961
598.001
616.328
522.983
503.168
523.233
503.848
994.962
965.545
995.109
966.102
795.295
820.108
797.857
820.691
12198.6
10518.5
8782.16
7629.51
5521.06
5526.86
4813.94
4811.1
4887.31
4878.6
4447.35
4446.79
3480.08
3328.71
3736.51
3312.59
3144.78
2837.72
3484.4
3352.26
3742.65
3322.59
3146.6
2843.88
2892.33
2980.55
2898.8
2983.22
2881.8
2922.44
2801.44
2576.21
2836.26
2651.62
2893.14
2926.19
2806.06
2584.75
2838.6
2654.04
2527.69
2589.25
2533.78
2591.27
13772.5
15475.1
-9.34256
-8.71982
-9.34512
-5.01094
21.1953
100.942
101.083
46.0796
46.3023
166.164
165.505
176.886
176.764
393.084
304.369
317.574
405.512
279.918
299.97
395.163
305.271
406.195
317.98
280.308
300.222
203.915
216.896
217.859
234.803
204.477
217.104
218.606
235.006
587.637
608.722
588.845
609.111
13183.1
11833.9
10829.9
9508.56
8725.64
5920.84
5917.84
5370.07
5357.04
4428.02
4982.55
4320.59
4610.27
4439.67
4981.49
4332.13
4614.04
3946.71
3557.23
4182.24
4133.56
4389.28
3890.56
3959.74
3567.09
4186.89
4157.12
4396.15
3893.57
3641.82
3344
3532.03
3276.43
3643.35
3346.55
3534.97
3282.84
3150.28
3195.22
3158.09
3198.26
3036.48
3079.01
2723.45
2774.62
3049.79
3082.84
2728.71
2776.4
14703.8
-9.47212
-9.85344
-10.2341
-4.23785
18.2942
116.741
116.786
56.2539
56.4906
196.361
192.078
208.614
174.017
196.195
192.13
208.653
174.447
181.933
181.695
219.034
227.965
220.794
231.458
219.68
228.209
221.632
231.869
14128.9
12712.2
11872.3
11268
10369.6
7645.4
7661.03
6903.49
6901.12
6322.6
6321.26
5859.77
5856.5
4675.07
5061.43
4628.59
4745.04
4703.93
5070.17
4644.48
4751.23
3806.58
4231.54
3976.9
4352.73
4433.94
4534
3818.12
4238.91
4355.14
3980.39
4445.44
4538.27
3498.21
3449.2
3501.11
3457.23
-9.85076
-10.2841
-9.53727
-3.62514
17.2612
17.345
6.49012
6.51908
126.186
125.966
57.1077
57.4932
200.596
206.644
222.606
181.951
200.738
207.827
223.361
182.688
143.237
169.08
167.696
193.144
144.297
168.915
168.545
193.389
233.343
250.185
234.766
250.672
13631.9
12473.2
12167.1
11827.8
11298.9
7885.11
7885.94
7421.17
7406.56
6931.67
6913.27
5908.73
5159.57
5464.98
5297.91
5905.85
5161.15
5466.6
5293.2
5029.99
5152.38
4830.58
4922.55
5050.96
5159.39
4847.47
4928.61
-9.98033
-10.1443
-8.72967
-2.93644
17.8704
17.952
5.1102
5.1489
147.577
168.478
104.948
119.191
144.882
86.6053
148.212
168.535
104.893
119.55
144.93
86.7913
57.6563
57.7045
209.566
208.173
223.802
191.159
210.099
208.92
224.392
191.629
167.446
189.934
168.236
189.993
13352.7
12571
12566.6
12532.8
9377.48
9391.25
8700.89
8698.89
8093.32
8106.1
7761.15
7746.22
5990.64
6683.1
5930.78
6250.27
5500.53
5921.07
6033.25
6689.47
5948.63
6256.43
5499.69
5921.53
5474.16
5577.17
5483.13
5580.79
5260.15
5339.26
5281.24
5345.98
-9.96813
-9.5895
-8.31536
0.398901
0.415172
-4.54063
-4.56948
18.6637
18.7839
6.9531
7.12128
146.966
170.732
100.228
108.671
130.794
85.6394
147.94
170.803
100.284
108.83
130.791
86.0313
29.3308
34.1892
47.8038
60.623
29.7004
34.2513
48.1139
60.7213
13379.2
12959.1
13163.1
13259
9512.6
9510.09
9073.25
9052.21
8609.03
8597.52
6199.54
6654.83
7495.87
6604.58
7013.94
6766.89
7490.98
6609.4
7015.37
6764.66
6217.44
6660.19
6174.25
5801.56
6323.02
5940.78
6182.89
5817.65
6326.61
5946.1
5635.55
5722.6
5649.26
5726.56
-9.90053
-9.50495
-7.59231
-0.0373239
-0.0379191
-3.93264
-3.95301
25.9012
28.9313
19.4622
21.5009
26.2338
16.8821
26.2498
29.0437
19.5188
21.6145
26.2688
16.9012
9.86942
9.9104
94.5614
77.248
94.6482
77.6468
41.2894
47.7606
41.5311
47.8672
13761.5
13678.9
13892.7
10637
10640.1
10155.1
10152.3
9704.53
9706.32
9350.54
9339.68
7328.67
8138.56
7205.1
7665.63
6879.53
7365.52
7375.9
6891.15
7369.23
8149.29
7232.12
7674.67
6513.99
6703
6820.22
7036.34
6835.7
6527.01
7041.11
6706.68
-10.2021
-8.74063
-8.50219
-2.56828
-2.56715
-4.78287
-4.79322
25.7857
30.899
20.6433
25.6648
30.6772
19.324
26.0874
31.0443
20.7477
25.8678
30.8749
19.3134
1.93177
1.28502
9.4761
11.9557
1.92084
1.27741
9.41637
11.8664
32.605
36.0199
32.8854
36.1504
14382.3
14548.3
14551.2
10768.1
10760.2
10415.5
10396.5
9920.99
9922.21
7522.89
8049.07
8784.06
7892.49
8372.07
8002.25
7554.55
8060.45
8783.88
7894.92
8374.19
8001.72
7484.52
7133.47
7698.53
7366.82
7160.2
7375.03
7501.08
7705.45
-9.23026
-9.41695
-5.90603
-5.45427
-5.44006
-5.903
-6.43291
-6.43569
-4.23913
-0.0231197
-0.283632
-4.23861
-0.0620104
-0.312468
27.0281
31.5449
22.4779
26.4139
31.3798
19.6546
27.3938
31.7086
22.5717
26.5123
31.5754
19.5027
5.01838
5.16586
4.97398
5.09053
15141.1
15226.3
15082.6
10914.3
10915.4
10540.1
10535.8
8380.5
9223.36
8369.34
8876.89
8136.26
8628.05
8421.61
8140.77
8631.39
9235.36
8396.61
8886.65
7807.48
8021.5
8088.08
8276.24
7834.33
8030.21
8105.64
8282.55
7668.85
7838.7
7691.15
7846.17
-10.3767
-8.76804
-5.38295
-5.63734
-5.37698
-5.62975
-6.2237
-6.22135
-3.981
-3.19928
-3.64339
-1.43778
-1.79629
-4.32083
-4.19886
-4.54132
-3.21449
-3.98671
-3.64463
-1.4826
-1.82758
-4.32137
-4.2058
-4.54137
14.174
13.1683
14.2537
13.0981
1.76686
1.39412
1.63419
1.30215
15816.4
15737.5
11869.8
10999.2
10983.9
11887.7
11409.6
11411.6
10556.7
8547.55
9132.13
10563.2
8586.77
9147.26
8345.2
8603.03
8534.19
8822.53
8367.63
8541.31
8625.7
8831.69
7932.79
8090.01
8201.17
8364.13
7957.15
8096.82
8225.69
8371.15
-9.66815
-8.64792
-5.29933
-4.33044
-4.01715
-5.63776
-5.29033
-4.33206
-4.02175
-5.62237
-6.08652
-6.07749
-3.59533
-3.82544
-1.45438
-1.67557
-3.82084
-4.10782
-3.6034
-1.51754
-3.82541
-1.69435
-3.82392
-4.10869
7.93964
7.58345
8.29234
7.47059
16377.1
16153.8
11965.3
10970.5
10968.9
11961.7
11577.8
11563.6
8851.5
8609.08
9118.82
8563.29
9106.12
9466.3
8791.75
9638.46
8880.62
8645.7
9133.74
8606.61
9123.39
9475.22
8826.09
9643.42
8474.32
8666.81
8587.67
8860.25
8485.27
8592.52
8692.58
8869.52
-9.53114
-6.28898
-6.00046
-5.98723
-6.29053
-6.75236
-6.76552
-4.44445
-4.32472
-4.03853
-4.28744
-4.0504
-4.89484
-4.11785
-4.55491
-5.52613
-4.37608
-4.71377
-4.45007
-4.32292
-4.03895
-4.28883
-4.04587
-4.89401
-4.12144
-4.55501
-5.51453
-4.38831
-4.71861
-3.6605
-3.88278
-3.88868
-4.16172
-3.66421
-3.87769
-3.89142
-4.16037
16852.5
16455.5
12043.9
10998.5
9613.85
9001.78
10999.4
9619.96
9022.5
12033.1
11537.3
11520.4
8824.87
9034.36
8683.23
9116.06
8929.25
9388.63
8860.49
9054.19
8712.84
8935.77
9127.09
9394.94
8559.54
8682.44
8575.73
8689.56
-9.41585
-5.98371
-6.24363
-5.96656
-6.24274
-6.68823
-6.70123
-3.8753
-3.97206
-4.25236
-4.16207
-4.07055
-4.41394
-4.43432
-4.29894
-4.56916
-4.33075
-4.62614
-4.81782
-4.77227
-5.21003
-3.8724
-3.99373
-4.16114
-4.2615
-4.07468
-4.41632
-4.3153
-4.42719
-4.57643
-4.35358
-4.63372
-4.8157
-4.76572
-5.20421
17162.1
12751.3
12031.4
12004.8
12780.1
12428.6
12418.5
9132.21
9590.82
9031.33
9638.43
8998.77
9917.89
9246.39
9864.6
9171.22
9596.48
9050.35
9646.28
9011.96
9919.16
9276.02
9874.65
11442.1
9323.45
9942.45
11435.6
9367.97
9958.09
8909.76
9057.32
9165.14
9419.14
8945.45
9064.58
9174.91
9422.68
-9.41179
-5.97336
-5.07473
-4.75503
-6.24857
-5.95154
-5.06847
-4.74363
-6.24922
-6.64395
-6.6606
-3.93573
-4.256
-4.06434
-4.36197
-4.25416
-4.37195
-4.09387
-4.3628
-4.47379
-4.69836
-3.97299
-4.26752
-4.0735
-4.36647
-4.28351
-4.11393
-4.36768
-4.36922
-4.48208
-4.6961
17356.4
12791.8
11986.6
11953.5
12807.7
12448.3
12433.9
9051.75
9249.38
9445.23
9579.8
9439.5
9851.52
9070.42
9269.53
9452.1
9588.18
9464.04
9861.55
9651.3
9362
9884.93
9281.32
9854.79
10249.1
9553.22
10241.1
9663.62
9388.46
9896.45
9334.92
9870.97
10252.4
9569.07
10244
-9.42483
-6.62635
-6.64164
-5.95248
-5.05861
-4.80497
-5.06683
-4.79684
-6.24453
-5.93472
-5.05115
-4.7936
-5.05949
-4.78466
-6.24547
-4.12475
-4.24784
-4.41409
-4.34432
-4.44982
-4.68544
-4.15556
-4.26808
-4.41182
-4.35321
-4.45582
-4.68399
17483.1
12738.6
12081.5
10358.8
9789.18
12033
10355
9775.83
12760.1
12460.8
12449.7
9344.65
9650.79
9435.97
9796.86
9364.37
9657.83
9450.51
9801.96
9639.64
9889.32
9474.47
9902.41
9811.24
10320.9
9659.42
9868.45
9483.78
9814.93
9910.02
10314.3
-9.4612
-6.63061
-6.66086
-6.64726
-6.67494
-5.94865
-5.05248
-4.78456
-5.07345
-4.75414
-4.41676
-4.70575
-6.256
-5.92854
-5.04924
-4.78475
-5.06991
-4.75225
-4.41865
-4.70602
-6.25771
-4.28414
-4.47469
-4.30208
-4.47872
17462.9
12721.4
12743
12090.1
10221.6
9784.1
10254
9772.53
12048.8
10216.4
9777.46
10249.8
9758.58
12454.6
12442
9739.03
9561.7
9893.66
9972.24
9825.21
10242.4
9777.1
9578.67
9875.55
9830.07
9982.31
10237.2
-9.48478
-6.67071
-6.68227
-6.68516
-6.69693
-6.27946
-6.28353
-5.95927
-5.01833
-4.6811
-5.01208
-4.70426
-4.74456
-4.42214
-4.74009
-4.41538
-4.31047
-4.53064
-5.94203
-5.01447
-4.68207
-5.00852
-4.7026
-4.74502
-4.43038
-4.7418
-4.42294
-4.32859
-4.53497
17353.4
12693.2
12658.2
12718.8
12688.9
12083.4
10248.3
9766.67
10266.2
9767.25
9908.71
10274.4
12039.3
10243.2
9776.09
10265
9761.17
9905.3
10274
12446.4
12435.6
9723.52
9960.29
9757.39
9968.64
-9.49557
-6.70973
-6.77095
-6.72313
-6.78361
-6.30317
-6.33944
-6.30819
-6.34121
-5.99774
-5.98051
-5.08417
-4.70104
-5.03944
-4.74133
-4.74052
-4.40819
-4.75208
-4.41989
-4.63597
-4.32999
-4.5988
-4.36344
-5.07923
-4.70659
-5.0366
-4.74123
-4.73806
-4.41097
-4.75171
-4.41799
-4.63807
-4.34764
-4.60293
-4.37338
17275.5
12607.8
12586.9
12638.1
12612.6
12422.1
12413.9
12068.2
10228.3
9748.13
10314.9
9743.41
10320.7
9919.9
10302.1
9912.63
9784.22
10088.2
12028.5
10222
9750.98
10311.5
9734.38
10319
9928.48
10303.3
9919.59
9816.72
10095.8
-9.51735
-6.83537
-6.87397
-6.84585
-6.88871
-6.37004
-6.42325
-6.37174
-6.42364
-6.01579
-6.04007
-6.00116
-6.02449
-5.11888
-4.82636
-5.15473
-4.77933
-5.11241
-4.81887
-5.14681
-4.77829
-4.85177
-4.42535
-4.78528
-4.51638
-4.8463
-4.42877
-4.78564
-4.50269
16871.1
12551.5
12505.3
12575
12528.4
12370.5
12327.4
12367.6
12322.4
12069.6
12032.8
10321.5
9762.98
10344.2
9748.13
10281.2
9851.4
10353
9841.83
10165.6
9820.99
10147.4
9821.5
10316.7
9774.58
10343.9
9740.95
10265.5
9851.43
10347
9814.4
10166.7
9847.86
10152.3
9832.44
-8.83567
-9.52447
-6.4554
-6.51959
-6.45263
-6.52132
-6.08461
-6.14898
-6.06596
-6.12782
-5.18086
-4.83491
-5.16481
-4.84914
-5.17508
-4.85181
-5.18329
-4.83824
-5.17242
-4.82495
-5.15657
-4.83851
-5.16861
-4.8463
-5.17682
-4.83058
-4.88578
-4.54173
-4.91548
-4.52479
-4.87984
-4.53333
-4.9096
-4.5115
16622.6
12494
12243.6
12520.9
12270.5
12285
12236.7
12276.9
12225.7
12021.5
11935.6
11988.5
11907
10385.4
9782.6
10352.9
9810.03
10375.6
9768.62
10341.7
9797.87
10347.3
9953.14
10556.2
9803.88
10339.5
9970.34
10557
9792.05
-8.83984
-6.25624
-6.32634
-6.2432
-6.31935
-9.49282
-6.22042
-6.24601
-6.19226
-6.22623
-5.21472
-4.89007
-5.18712
-4.93631
-5.23124
-5.01687
-5.26891
-4.96668
-5.20719
-4.8815
-5.18
-4.92561
-5.22542
-5.00352
-5.26017
-4.95905
-4.95897
-4.56878
-4.94477
-4.55866
-4.97617
-4.59044
-5.02301
-4.5927
-4.95627
-4.55376
-4.93616
-4.5607
-4.97047
-4.5818
-5.01702
-4.58253
16192.2
15882.8
12148.2
12016.5
12135.4
12010.5
11892.8
11849.3
11857.7
11812.3
10291.6
9766.6
10324.2
9740.57
10219.2
9625.52
10166.8
9682.46
10283.2
9754.23
10314
9729.91
10217.2
9643.83
10169.4
9682.7
10489.4
9827.27
10337.2
9940.59
10484.2
9829.43
10334.6
9935.56
-8.83976
-6.36157
-6.38943
-6.36035
-6.39741
-5.90196
-5.97984
-5.89393
-5.95688
-9.47634
-5.28287
-5.04916
-5.28023
-5.03486
-5.33631
-5.06133
-5.45251
-5.00989
-5.27314
-5.02313
-5.26903
-5.01442
-5.32913
-5.05222
-5.44692
-4.99547
-5.01997
-4.62098
-5.02253
-4.69397
-5.02326
-4.7862
-5.04474
-4.75054
-5.01318
-4.60984
-5.01541
-4.68146
-5.01936
-4.77677
-5.0403
-4.7429
15770.6
15455.2
11650.3
11601.7
11618.8
11589.4
11807.8
11642
11761.7
11608.3
10086.8
9597.9
10120.1
9588.36
10060
9565.98
10060.9
9584
10084.4
9606.91
10120.1
9587.25
10056.4
9575.89
10058.4
9582.46
10352.9
9878.7
10380.2
9865.26
10262.3
9777.51
10242.6
9803.98
10348.3
9880.9
10377.5
9861.77
10261.1
9798.07
10247.8
9806.9
-8.18995
-8.81728
-5.97927
-6.00321
-5.96573
-5.99642
-4.75155
-4.88229
-4.96389
-4.73616
-4.99438
-5.2303
-4.80659
-5.21292
-4.7365
-5.05866
-4.75503
-4.87402
-4.96872
-4.75093
-5.00154
-5.22667
-4.80812
-5.21587
-4.74649
-5.06567
-9.46825
-5.07475
-4.81832
-5.06056
-4.82994
-5.10819
-4.78455
-5.06755
-4.80344
-5.05397
-4.81257
-5.10145
-4.76841
-4.90659
-4.63375
-4.88275
-4.63735
-4.90484
-4.65063
-4.88547
-4.64313
15441.1
14999.5
11536.6
11320.9
11527.6
11332.9
11040.2
11170.1
11035.1
11155.2
9969.13
9589.91
10057.4
9524.71
10051.9
9243.3
9893.34
9480.12
9965.55
9585.07
10052.7
9518.9
10053.3
9263.13
9902.23
9478.96
10187.4
9751.41
10224.1
9743.81
10119.5
9689.29
10097.5
9707.07
10186.5
9767.77
10228.1
9746.59
10118.6
9695.65
10098.6
9712.21
-8.13513
-5.71616
-5.76536
-5.70103
-5.75639
-8.77878
-5.68258
-5.69713
-5.66913
-5.68151
-4.67088
-4.57564
-4.86545
-4.84989
-4.56304
-4.84683
-4.62175
-4.98872
-4.5345
-4.85467
-4.68678
-4.58301
-4.87101
-4.85064
-4.56954
-4.84768
-4.62852
-4.98806
-4.53437
-4.85427
-9.45442
-4.83728
-4.66536
-4.88921
-4.6373
-4.83561
-4.61564
-4.83901
-4.6784
-4.89174
-4.64429
-4.83814
-4.6277
15384.6
14534
14372.2
11208.5
11017.2
11190.5
11013.4
9044.68
9301.6
9556.77
8989.97
9514.58
9847.18
8802.11
9555.31
9027.86
9609.17
9316.76
9102.21
9584.56
9067.64
9558.47
9855.66
8845.54
9579.22
9076.7
9639.37
10047
9704.72
10091.6
9669.41
10007.3
9573.54
10045.3
9703.95
10091.4
9662.79
10006.4
9558
9938.89
9561.74
9909.97
9565.09
9940.69
9584.31
9914.74
9583.12
-8.08673
-5.77341
-5.82517
-5.76724
-5.8271
-5.39811
-5.42353
-5.39106
-5.41197
-8.73894
-4.817
-4.54464
-4.75789
-4.54714
-4.87599
-4.55406
-5.00271
-4.55391
-4.81583
-4.54029
-4.75856
-4.54418
-4.87526
-4.5589
-5.00227
-4.55392
-4.56958
-4.79188
-4.4793
-4.69786
-4.42807
-4.7041
-4.58965
-4.79623
-4.48891
-4.70213
-4.43266
-4.70811
-9.45044
15233.5
14213
13973.3
10722.5
10607.6
10706.7
10609.7
10798
10796.5
10788.3
10790.4
9285.68
9121.95
9502.6
9584.41
9095.64
9464.81
8904.51
9540.78
9076.28
9474.83
9343.3
9167.68
9604.65
9527.98
9116.77
9486.75
8925.4
9558.54
9098.42
9495.54
9807.2
9598.44
9929.33
9541.05
9712.01
9453.23
9814.79
9612.43
9932.44
9572.36
9724.05
9488.97
-7.32194
-8.01383
-5.38398
-5.34316
-5.36732
-5.33979
-4.26781
-4.33015
-4.50156
-4.30754
-4.56824
-4.73577
-4.34257
-4.77884
-4.32858
-4.62899
-4.28399
-4.33369
-4.50902
-4.32079
-4.57419
-4.73912
-4.34859
-4.78105
-4.33931
-4.63427
-8.71551
-4.67302
-4.35258
-4.68446
-4.33925
-4.63049
-4.30293
-4.67212
-4.35048
-4.68369
-4.33317
-4.63114
-4.3025
-9.46123
14640.6
14013.2
13415.5
10429.3
10287.3
10426.9
10292.1
10416.6
10326.6
10424.4
10323.3
9336.98
8774.73
9310.55
8833.86
9400.82
8682.56
9473.89
8861.64
9333.16
8788.97
9318.84
8839.97
9394.38
8709.54
9468.51
8874.49
9191.98
9498.21
8844.4
9186.5
8917.27
9218.69
9258.07
9521.01
8859.01
9199.34
8934.27
9231.11
-7.23982
-5.00064
-5.07259
-4.99944
-5.08339
-7.98896
-5.09598
-4.97906
-5.08904
-4.97392
-4.23486
-4.12321
-4.46292
-4.38348
-4.13735
-4.37233
-4.11694
-4.51122
-4.11639
-4.39851
-4.26178
-4.14289
-4.47311
-4.389
-4.15345
-4.37831
-4.12833
-4.51537
-4.13265
-4.40455
-8.72222
-4.48885
-4.23219
-4.49412
-4.25259
-9.46711
13731.2
13423.1
12788.8
12485
10111.3
9692.18
10093.4
9693.1
8388.35
8692.09
8921.47
8370.81
8916.4
9253.7
8130.79
8985.97
8309.42
8879.63
8708.15
8417.84
8932.54
8406.01
8931.76
9249.6
8203.91
9010.53
8344.26
8894.42
9178.44
8863.53
9176.22
8944.41
9161.03
8915.51
9172.84
8874.48
9178.88
8936.95
9155.35
8916.6
-6.48378
-7.25828
-4.46831
-4.52418
-4.45971
-4.5265
-8.03898
-4.37191
-4.02406
-4.2871
-3.94645
-4.62246
-4.37259
-4.02923
-4.2919
-3.94523
-4.61177
-4.08417
-4.25704
-4.04719
-4.222
-4.08249
-4.23824
-4.10362
-4.2645
-4.07168
-4.23052
-4.10259
-4.246
-8.73277
-9.47627
13086.3
12557.2
11947.3
11404.3
8861.25
8552.76
8860.3
8564.39
9584.28
9175.18
9582.31