/*--------------------------------*- C++ -*----------------------------------*\
| =========                 |                                                 |
| \\      /  F ield         | OpenFOAM: The Open Source CFD Toolbox           |
|  \\    /   O peration     | Version:  5.x                                   |
|   \\  /    A nd           | Web:      www.OpenFOAM.org                      |
|    \\/     M anipulation  |                                                 |
\*---------------------------------------------------------------------------*/
FoamFile
{
    version     2.0;
    format      ascii;
    class       volScalarField;
    location    "2.5";
    object      p_rgh;
}
// * * * * * * * * * * * * * * * * * * * * * * * * * * * * * * * * * * * * * //

dimensions      [1 -1 -2 0 0 0 0];

internalField   nonuniform List<scalar> 
12160
(
5576.09
5636.04
5575.65
5662.02
5635.5
5574.86
5708.96
5661.49
5634.45
5573.56
5751.74
5708.45
5660.44
5632.81
5572.1
5796.82
5751.29
5707.38
5658.82
5630.67
5569.98
5843.04
5796.46
5750.23
5705.78
5656.7
5627.86
5568.16
5889.51
5842.79
5795.61
5748.71
5703.57
5653.96
5624.51
5565.17
5935.48
5889.41
5842.2
5794.36
5746.61
5700.78
5650.69
5588.38
2904.41
5979.88
5935.58
5889.14
5841.32
5792.64
5743.99
5697.21
5622.46
3374.28
152.641
6021.32
5980.26
5935.72
5888.73
5840.09
5790.5
5740.63
5681.15
3582.16
202.649
6.61994
6058.51
6022.08
5980.98
5935.9
5888.1
5838.57
5787.61
5725.87
3885.6
229.112
4.83684
0.13323
6089.66
6059.75
6023.59
5981.98
5936.04
5887.31
5836.33
5771.72
4163.98
339.856
2.40533
0.0611552
0.0123041
6112.78
6091.42
6062.22
6025.77
5983.2
5936.17
5885.84
5818.77
4439.95
487.407
0.427746
0.0320548
-0.0270301
0.0275065
6126.2
6114.99
6094.96
6065.9
6028.55
5984.65
5935.65
5868.77
4709.22
685.982
0.722158
0.0323485
0.0105132
0.0254361
-0.0032294
6129.1
6128.62
6119.54
6100.3
6070.65
6032
5985.63
5920.62
4968.95
914.628
4.58656
0.0457604
0.0494127
0.0199855
-0.0282885
6121.88
6131.7
6133.97
6126.41
6107.17
6076.84
6035.4
5973.61
5198.36
1157.07
16.0092
0.0239018
0.0537964
0.0157426
-0.00958958
6105.72
6124.3
6137.13
6141.85
6135.17
6116.65
6083.43
6028.14
5399.89
1430.2
32.5815
0.0124111
0.0338612
0.0175441
0.0108301
6082.53
6107.74
6129.35
6145.34
6151.84
6147.91
6126.91
6082.44
5582.67
1747.28
57.6791
0.0512678
0.000626147
0.00948223
0.0127871
6054.47
6083.97
6111.91
6136.92
6156.49
6167.23
6161.3
6133.71
5746.92
2118.34
94.2743
0.112279
-0.00294458
-0.00276507
0.00930651
6023.65
6055.28
6086.94
6118.16
6147.46
6171.85
6182.17
6176.28
5884.06
2540.41
150.676
0.155076
0.00206733
-0.00283178
0.00233796
5992
6023.83
6056.92
6091.38
6126.86
6161.13
6188.97
6204.05
5985.25
2978.66
235.147
0.373795
0.0158781
0.00124205
0.000632992
5960.99
5991.63
6024.2
6059.31
6097.47
6137.96
6178.16
6213.68
6045.53
3355.88
351.253
2.06818
0.00368323
0.0113585
7.4922e-05
5931.66
5960.14
5990.85
6024.64
6062.53
6105.17
6151.94
6199.61
6057.08
3597.08
479.935
6.70402
-0.0359589
0.0132213
0.000307067
5904.72
5930.47
5958.43
5989.54
6025.12
6066.44
6114.61
6168.57
6031.48
3663.93
579.252
14.2631
-0.0707407
0.0187057
-0.00536475
5880.59
5903.31
5928.05
5955.68
5987.6
6025.41
6070.84
6123.33
5949.85
3537.88
616.627
21.7559
-0.054578
0.00670555
-0.0261727
5859.52
5879.08
5900.45
5924.24
5951.77
5984.81
6025.27
6067.59
5797.82
3248.45
578.219
25.4979
0.0206711
-0.0248368
-0.0428278
5841.56
5858.01
5876.02
5895.97
5918.87
5946.46
5980.79
6008.6
5592.59
2890.63
475.687
24.0817
0.065612
-0.0676451
-0.0421205
5826.54
5840.16
5854.98
5871.25
5889.7
5911.69
5939.3
5950.09
5388.42
2514.78
339.044
18.7469
0.067578
-0.0762489
-0.0303184
5814.13
5825.31
5837.35
5850.26
5864.61
5881.37
5902.1
5894.78
5188.6
2124.31
220.849
12.9969
0.0509029
-0.0600087
-0.0311509
5803.91
5813.11
5822.88
5832.98
5843.74
5855.82
5870.31
5844.5
4996.67
1768.77
145.928
9.35958
0.035177
-0.0527717
-0.0403505
5795.44
5803.09
5811.13
5819.1
5827.01
5835.1
5844.17
5801.59
4818.32
1467.47
100.464
6.75522
0.037639
-0.0347322
-0.030802
5788.34
5794.78
5801.57
5808.06
5813.99
5819.14
5823.65
5767.06
4662.05
1222.54
72.7096
4.98827
0.0612754
-0.0219551
-0.0216948
5782.19
5787.8
5793.69
5799.15
5804
5807.43
5808.63
5741.62
4534.66
1045.14
56.1631
3.64281
0.0870532
-0.0111316
-0.0132554
5776.82
5781.85
5787.05
5791.75
5796.11
5798.89
5798.59
5725.97
4441.14
922.251
46.7706
2.77663
0.0978468
-0.000593622
-0.0068616
5772
5776.62
5781.29
5785.46
5789.57
5792.19
5792.17
5719.74
4389.04
839.175
40.9723
2.35336
0.0965955
0.0108647
-0.00503917
5767.3
5771.88
5776.27
5780.14
5783.91
5786.41
5787.59
5719.92
4378.13
788.813
37.1349
2.03368
0.0874645
0.018855
-0.00821991
5762.42
5767.28
5771.74
5775.52
5778.92
5781.26
5783.2
5721.59
4396.51
764.589
34.522
1.71563
0.0696282
0.0193377
-0.00952762
5757.17
5762.52
5767.37
5771.37
5774.66
5776.91
5778.66
5720.11
4417.09
756.718
32.6212
1.40443
0.0488579
0.0153318
-0.00912555
5751.3
5757.36
5762.82
5767.36
5770.97
5773.27
5774.46
5716.83
4407.66
751.225
31.2189
1.04815
0.0304188
0.0122396
-0.00757731
5751.56
5740.46
5757.85
5763.14
5767.46
5770.23
5771.21
5713.66
4363
738.455
30.2361
0.595721
0.0131184
0.0127241
-0.00813318
5752.21
5740.85
5720.52
5758.45
5763.71
5767.39
5768.87
5707.32
4299.32
733.32
29.2662
0.269808
0.000901876
0.0119604
-0.0110602
5753.04
5741.72
5721.06
5697.38
5759.41
5764.25
5766.72
5700.73
4248.52
763.79
30.5921
0.152615
-0.005362
0.00370291
-0.0121959
5754.29
5742.89
5722.17
5698.11
5670.17
5760.45
5764.1
5695.53
4225.76
810.58
35.0703
0.126795
-0.00604117
-0.00247364
-0.00924507
5755.71
5744.52
5723.76
5699.56
5670.82
5640.11
5760.64
5690.95
4216.27
858.424
40.9612
0.287099
-0.00399805
-0.00643261
-0.0052796
5756.03
5746.43
5725.87
5701.57
5672.62
5641.23
5608.29
5685.44
4206.62
890.889
45.5965
0.47122
-0.00846426
-0.0167251
-0.00234727
5678.83
5746.57
5728.29
5704.23
5675.17
5643.76
5608.44
5572.65
4192.34
905.236
47.4643
0.564917
-0.0158498
-0.0238203
0.00245033
4169.21
5666.67
5727.96
5707.16
5678.94
5646.61
5609.99
5572.62
5532.19
907.693
47.2658
0.570545
-0.0180014
-0.0172886
0.00402854
901.574
4111.64
5639.14
5706.35
5682.93
5651.04
5612.13
5572.39
5526.17
5505.48
46.0414
0.525507
-0.0122319
-0.014335
0.00102451
44.7685
878.272
4002.87
5602.35
5681.57
5655.57
5616.94
5572.35
5519.4
5497.7
5442.22
0.476019
-0.00141474
-0.0089037
-0.000393462
0.454241
42.9257
841.304
3865.64
5557.01
5651.07
5620.67
5574.44
5512.57
5482.91
5421.26
5546.46
0.012063
-0.0009657
-0.000633364
0.028541
0.469206
43.5614
801.071
3740.63
5500.97
5591.47
5570.56
5503.71
5445.28
5411.47
5520.68
4957.84
5099.22
0.00878696
0.000816901
0.0206301
0.064941
0.72218
49.642
784.053
3601.25
5407.99
5483.01
5494.73
5400.93
5379.35
5466.97
5098.73
4653.2
4674.27
4612.78
0.00372521
0.0079169
0.0456087
0.147865
2.81585
65.663
741.125
3426.44
5173.28
5388.35
5388.66
5316.3
5397.97
5166.2
4902.31
4363.37
4349.32
4325.61
4185.12
0.0168922
0.088707
0.46638
12.0205
70.7133
659.731
3239.92
4724.71
5360.05
5293.01
5291.5
5249.13
5105.66
4649.98
4104.06
4024.33
3989.83
3949.91
3824.05
0.0304216
0.107037
3.69597
16.6137
63.132
613.575
2956.22
4570.25
5317.14
5273.45
5335.28
5280.91
4915.36
4424.05
3894.96
3710.02
3605.62
3583.03
3590.24
3587.38
0.0212429
0.677603
6.66916
11.8333
53.9861
712.185
1880.82
4904.48
5379.47
5445.12
5437.87
5169.8
4713.47
4257.63
3719.56
3440.57
3215.7
3112.43
3174.74
3329.98
3518.1
-0.06121
1.63638
3.91666
3.15173
50.1766
391.819
1433.31
5365.47
5567.83
5587.56
5403.83
4998.2
4559.37
4116.22
2708.69
3227.59
2713.79
2977.64
2981.16
2884.3
2635.04
2599.46
2820.52
3236.9
3709.76
-0.108569
1.13228
0.83254
1.14607
36.4391
92.4273
3048.05
5691.42
5730.53
5613.89
5273.98
4844.21
4451.39
4005.34
2432.86
2683.6
2621.11
2438.53
2140.74
2146.4
2685.9
2900.53
2901.47
2204.31
1989.56
2113.8
2653.48
3393.1
4149.14
-0.0670115
0.316392
0.343492
0.894386
6.03143
33.9929
4919.08
5858.41
5801.54
5539.45
5124.82
4723.17
4357.3
3159.98
3158.23
3375.84
3377.6
2405.25
2691.66
1826.13
2479.08
2407.58
2122.82
2126.41
2682.02
2938.48
2929.07
1419
1350.29
1803.13
2748.3
3801.62
4818.44
-0.0524115
0.204833
0.27484
0.579332
1.25977
209.511
5765.5
5953.12
5785.17
5409.51
4992.4
4615.79
3566.98
3568.12
3750.62
3751.44
3124.36
3122.01
3372.71
3368.35
2424.93
2464.38
2200.94
2344.14
2322.15
927.603
1663.2
1488.68
1490.86
1837.45
1834.92
2415
2128.78
2121.2
2461.98
2203.13
2341.37
2321.27
2603.99
2549.35
2780.71
2446.57
2600.02
2544.85
2775.49
2441.54
611.25
871.072
1795.9
3125.5
4472.13
5689.45
0.00473098
0.210098
0.353258
0.580731
0.599216
825.176
5997.29
5968.17
5670.55
5255.66
4875.6
3916.3
3916.95
4092.91
4093.36
3561.6
3554.72
3743.43
3734.69
2719.81
2587.67
2802.31
2808
2925.54
2697.16
2588.48
2723.01
2802.82
2809.25
2925.43
2697
3043.47
3170.95
2934.58
3061.06
3043.39
3170.48
2934.5
3060.53
2069.39
2082.71
2223.12
1930.02
2435.58
2272.26
2305.82
2396.02
6.1881
720.645
663.158
664.649
1089.63
1091.45
1526.51
1519.92
1863.72
1858.37
2065.16
2078.84
2218.44
1924.2
1933.52
1580.08
1839.44
1775.77
1930.46
1582.24
1835.55
1773.38
2435.89
2276.55
2306.64
2399.23
2568.79
2513.48
2568.23
2513.96
-61.0799
754.661
2140.02
3781.78
5335.87
6658.54
0.0300853
0.262752
0.24743
0.407004
0.116422
1826.68
5993.67
5854.17
5512.1
5128.48
4257.77
4257.72
4432.92
4433.64
3914.11
3905.73
4081.92
4074.47
3134.04
3252.26
3224.98
3344.49
3134.93
3252.03
3231.45
3345.37
3433.75
3551.89
3330.15
3447.63
3439.19
3552.08
3335.65
3448.26
2634.54
2747.42
2815.41
2677.14
2869.38
2921.43
2638.72
2750.88
2678.69
2816.59
2871.41
2922.22
3103.3
3151.69
2982.36
3033.04
3105.71
3152.48
2984.33
3033.79
2046.33
2148.84
2182.37
2009.31
2450.71
2283.93
2319.48
2415.31
-807.9
-252.024
-218.62
-217.321
226.151
226.511
741.34
730.322
1148.95
1139.75
1018.77
1161.11
1192.18
1334.45
1021.87
1161.44
1195.35
1334.96
1515.63
1645.83
1631.09
1343.81
1484.55
1794.06
1521.22
1647.67
1632.47
1347.97
1485.48
1794.47
2046.87
2153.22
2183.09
2013.34
1911.43
1848
1911.76
1850.24
2449.73
2285.22
2320.3
2411.32
2563.74
2515.46
2563.37
2515.17
-306.969
1039
2802.3
4653.17
6299.16
7613.77
0.0337071
0.317293
0.270597
0.588209
-0.711477
1730.49
5812.99
5690.77
5345.5
4597.67
4598.17
4761.06
4760.87
4241.52
4237.31
4397.78
4397.05
3531.64
3646.15
3625.95
3745.04
3533.86
3645.57
3629.87
3744.42
3790.21
3964.6
3723.41
3845.48
3790.72
3962.65
3724.37
3844.08
3176.32
3226.42
3280.13
3327.08
3178.8
3227.38
3282.81
3328.14
3485.72
3511.17
3387.98
3418.2
3491.83
3513.25
3390.88
3419.66
2070.02
2165.84
2206.36
2021.46
-1227.25
-1196.44
-1122.74
-1121.06
-684.864
-684.166
-108.793
-120.104
316.141
304.297
249.032
398.132
455.017
597.993
257.354
396.336
463.34
597.962
839.729
976.233
648.721
791.658
843.165
976.536
658.124
792.762
1094.5
1142.09
1263.71
1311.61
1101.37
1144.25
1267.25
1312.87
1690.16
1536.87
1626.42
1770.08
1390.65
1452.4
1693.58
1541.02
1627.32
1771.37
1394.04
1453.6
2070.44
2167.81
2207.02
2022.81
1918.17
1854.06
1918.14
1854.34
-54.0445
1708.45
3702.69
5614.42
7234.71
8444.18
-0.0332089
0.283857
0.185153
0.760018
-0.145142
852.815
4950.21
5402.56
5166.27
4553.07
4552.95
4689.83
4689.72
4207.43
4205.36
4385.08
4382.06
3585.56
3613.11
3678.83
3711.14
3589.47
3614.74
3682.28
3712.44
3822.74
3907.57
3762.78
3800.59
3823.14
3907.41
3764.62
3801.21
3510.45
3541.79
3518.27
3544.01
-1037.64
-1777.54
-1922.13
-1920.42
-1572.71
-1571.01
-982.916
-985.616
-553.912
-561.875
-563.063
-303.672
-302.176
-146.355
-562.226
-306.033
-300.242
-147.768
63.0623
210.436
-123.869
30.3833
67.3359
208.299
-115.783
30.6399
407.793
438.882
586.06
614.751
415.955
439.354
590.936
616.559
932.901
974.785
758.858
794.31
939.73
977.441
765.271
797.246
654.535
2679.29
4673.65
6536.56
8051.11
9129.35
-0.00518419
0.362447
0.178134
0.833129
1.34957
239.963
3153.81
4889.48
4816.78
4817.6
4895.35
4895.7
4552.51
4547.99
4678.03
4679.32
4115.33
3942.81
4013.96
4030.15
4114.89
3942.49
4014.19
4029.52
4217.4
4214.29
4305.73
4129.88
4216.26
4215.31
4304.53
4127.6
3597.9
3625.06
3686.61
3713.18
3603.79
3627.13
3691.33
3714.91
3857.02
3886.65
3759.9
3789.45
3860.75
3887.93
3762.89
3790.75
-279.221
-1722.53
-1726.12
-1776.94
-1777.86
-1413.71
-1416.17
-737.395
-743.902
-352.883
-358.701
-427.367
-254.739
-168.891
-107.901
-423.585
-253.967
-165.153
-106.706
212.276
238.908
23.0339
53.6657
216.568
238.383
27.0934
53.7539
402.07
438.755
414.013
440.557
1691.87
3713.62
5597.46
7339.27
8745.79
9312.6
-0.0330539
0.433554
0.340198
0.721285
2.16155
47.2685
1338.04
3796.94
4809.22
4805.67
4769.33
4767.67
4304.76
4396.58
4512.71
4378.33
4306.72
4395.56
4510.99
4379.56
4686.12
4681.77
4108.83
3984.49
4016.66
4087.18
4109.84
3987.7
4017.65
4089.47
4206.04
4263.68
4287.93
4185.21
4206.47
4265.1
4288.17
4187.49
3890.68
3923.79
3896.71
3925.56
825.827
-920.153
-1570.49
-1722.61
-1722.98
-1652.74
-1656.28
-1484.8
-1488.56
-1100.21
-1113.36
-693.487
-1021.49
-880.533
-823.648
-693.934
-1011.37
-879.035
-822.973
-507.162
-461.507
-358.045
-636.481
-507.668
-462.385
-357.845
-638.004
-250.754
-183.995
-64.4913
-21.2714
-245.072
-182.228
-60.9516
-21.189
250.406
276.713
96.02
127.43
257.996
277.928
101.727
127.88
2852.81
4644.37
6360.61
8027.62
8961.33
0.00827034
0.486645
0.752987
0.908666
5.67426
83.4786
595.263
3239.55
3238.71
2035.72
2034.02
4610.69
4703.37
4578.28
4778.43
4610.25
4702.68
4579.64
4777.52
4620.93
4622.32
4343.93
4372.06
4467.02
4398.68
4345.06
4372.49
4466.54
4399.16
4566.61
4634.72
4496.62
4546.98
4568.04
4634.02
4497.11
4546.1
4242.84
4288.68
4311.56
4214.85
4243.21
4292.12
4312.4
4218.58
2082.73
317.802
-754.711
-612.513
-1420.61
-1428.95
-1327.02
-1336.71
-1054.56
-1064.63
-1189.66
-1043.33
-1118.41
-1394.72
-1186.99
-1044
-1122.35
-1400.53
-558.784
-783.524
-750.766
-593.38
-558.628
-780.521
-749.644
-592.225
-413.622
-340.393
-296.055
-450.874
-413.972
-337.568
-295.161
-451.334
-217.109
-160.253
-210.182
-158.727
3882.24
5362.8
6935.66
8273.89
0.0738595
0.506478
0.918162
5.54217
73.5865
480.353
373.036
372.839
722.598
722.347
2877.67
2878.99
1434.01
1432.41
4602.19
4684.6
4513.75
4744.22
4601.89
4684.63
4514.88
4744.29
4794.55
3557.39
4457.01
4009.75
4796.6
3554.91
4460.41
4008.86
4364.14
4386.97
4459.09
4435.8
4365.15
4387.45
4459.21
4436.77
4610.45
4631.74
4540.12
4559.52
4612.28
4632.04
4540.27
4559.78
3250.11
1687.31
550.757
253.619
-762.262
-763.799
-896.221
-899.804
-893.026
-893.492
-1334.49
-1194.26
-1480.68
-1175.75
-1333.59
-1193.94
-1479.76
-1176.94
-1202.1
-1069.72
-1049.53
-945.464
-1189.96
-981.624
-1188.71
-1066.56
-1041.51
-942.484
-1188.05
-981.794
-962.479
-898.408
-961.434
-897.7
-504.955
-674.302
-621.446
-561.813
-504.184
-667.718
-619.771
-558.414
4615.53
5784.81
7243.77
0.146375
0.499943
2.75882
53.6247
365.177
1380.34
636.079
633.569
1606.78
1607.22
2395.4
3435.09
2254.41
1872.18
2733.22
4532.66
3434.67
2394.54
4536.04
2251.2
1864.85
2729.69
776.566
1153.74
988.393
1330.3
769.235
1156.96
985.084
1330.72
4582.92
4698.32
4528.7
4736.21
4584.48
4698.95
4531.31
4736.79
4785.11
3690.93
4787.87
3689.33
4499.83
4470.35
4500
4470.95
4594.73
4652.77
4596.49
4653.36
4157.65
3236.09
1923.96
1424.46
-184.316
-178.652
-562.898
-565.888
-145.014
-153.794
-248.655
-249.327
-803.249
-1115.76
-711.175
-968.611
-984.083
-1287.75
-798.939
-1092.35
-704.969
-958.761
-982.275
-1281.68
-1069.9
-984.826
-1063.63
-982.164
-913.643
-876.928
-841.781
-889.08
-811.389
-820.125
-902.292
-873.179
-837.336
-880.667
-809.053
-817.704
-781.163
-725.624
-775.228
-723.63
4945.19
6001.8
0.14049
0.452313
17.1603
115.23
506.256
1642.12
1641.15
1083.31
1086.27
1069.84
1073
1982.63
1983.55
3013.82
1809.33
1685.52
3347.93
1323.63
1920.18
3016.01
1802.59
3349.75
1686.88
1311.29
1915.28
665.956
807.994
920.77
1407.74
664.878
816.483
912.537
1407.84
4206.04
4760.45
4207.05
4760.85
4414.65
5266.25
4207.65
2657.51
2531.21
223.838
220.637
4.42521
-9.26824
-669.746
-126.152
-609.893
-328.788
-658.314
-127.162
-599.127
-324.993
-665.05
-877.408
-435.089
-635.842
-386.247
-548.342
-652.653
-867.781
-430.434
-612.477
-379.358
-545.336
-646.773
-776.499
-754.091
-841.811
-645.253
-773.952
-751.428
-835.379
-819.229
-776.754
-811.328
-773.727
-793.457
-753.639
-777.078
-730.253
-779.734
-749.821
-771.596
-728.479
5222.64
0.0199549
1.4764
25.4573
101.431
426.723
1806.52
1806.84
1401.91
1407.68
2598.89
755.486
879.462
993.794
2601.15
747.912
922.281
982.467
2171.6
2170.25
680.92
561.353
827.806
968.958
679.887
561.291
822.979
964.175
4681.6
4695.48
8463.94
5262.66
3542.79
1302.83
1318.52
889.372
886.731
638.064
637.144
507.507
503.909
-416.04
-40.5276
-291.536
-184.244
-387.426
-31.7904
-276.257
-178.051
-661.052
-417.254
-494.986
-302.954
-340.417
-248.583
-649.736
-410.488
-300.525
-491.505
-329.522
-244.3
-653.509
-700.614
-650.62
-692.584
-0.276312
2.2162
21.2469
87.441
499.704
500.238
132.637
132.667
1978.87
1982.38
1513.46
1517.51
2602.27
1241.72
1953.05
1521.39
2604.83
1221.03
2056.67
1512.18
1682.94
2809.85
1663.07
2757.47
1677.71
2808.73
1657.5
2757.12
889.704
1211.94
865.275
1133.81
4337.71
6614.93
9071.25
5824.64
4571.5
1552.07
1553.42
1424.95
1410.46
1269.05
1250.58
476.495
-97.5823
195.711
-119.506
473.652
-96.3366
197.321
-124.189
-64.9115
46.6905
-117.279
-36.2654
-44.1268
53.6958
-100.909
-30.2164
-0.348645
1.59014
9.05305
131.452
523.64
521.248
222.32
223.917
1886.92
2807.93
2688.06
1893.03
2843.78
1670.56
1886.95
2807.38
2704.26
1891.03
2842.4
1672.87
1571.92
1569.72
2588.97
1535.44
2674.98
1753.89
2617.29
1503.51
2675.22
1742.03
1936.05
2765.95
1937.07
2765.11
4261.28
7947.94
9475.91
6141.8
3096.74
3120.21
2125.89
2124.14
1773.99
1788.28
1784.13
1769.41
274.022
953.181
380.81
687.484
90.7554
496.305
317.128
959.632
399.089
693.644
89.8214
496.753
210.174
301.133
219.14
304.749
129.23
196.326
150.41
203.041
-0.407195
0.0808848
7.23541
201.683
203.927
58.788
59.3133
418.329
414.72
341.029
347.71
1855.6
2804.77
2853.82
1822.2
2844.13
1803.07
1852.83
2803.37
2851.97
1820.77
2842.54
1801.88
788.054
1445.96
1504.2
2901.69
782.231
1434.66
1500.19
2900.1
4363.39
7256.13
9250.86
7124.99
3097.45
3105.42
2687.45
2668.19
2327.29
2317.17
486.974
929.073
1445.28
723.597
1126.82
718.585
1440.42
728.913
1128.22
716.852
505.302
934.424
600.517
387.724
736.999
514.536
609.336
404.009
740.6
519.925
338.1
412.654
351.885
416.669
-0.39081
-0.625965
24.217
198.672
199.263
68.2008
68.549
1013.05
1955.34
445.884
307.511
711.46
278.955
1011.12
1939.29
455.611
303.574
710.192
288.265
499.95
503.72
2880.78
1789.25
2879.27
1788.28
1308.47
2553.37
1306.79
2550.68
4547.77
5780.9
6822.11
5446.1
5459.03
3605.72
3683.89
3363.29
3390.41
3191.52
3188.49
1266.27
1742.22
1022.09
1446.54
831.639
1316.21
1330.42
843.41
1319.9
1752.98
1049.02
1455.57
767.683
948.592
908.684
1121.26
924.593
781.092
1126.02
952.267
-0.718686
0.435703
29.8213
87.6494
88.6823
51.6224
51.5522
692.321
1188.99
881.826
252.568
416.64
297.545
688.599
1190.95
911.22
261.004
433.829
312.202
230.999
227.259
403.467
989.205
227.589
227.634
400.047
982.391
987.115
861.392
988.885
861.664
4947.97
5944.42
6994.69
4839.58
5016.25
3844.85
3924.08
3623.2
3658.52
1547.36
1644.65
2110.57
2476.32
1838.83
2582.28
1589.1
1656.01
2115.96
2507.33
1847.4
2609.67
1387.81
1055.13
1447.45
1288.45
1081.8
1296.64
1408.39
1454.35
0.261116
5.58781
4.40847
32.8986
32.6624
4.22253
1.96554
1.94413
39.3471
202.803
173.606
38.7095
200.539
173.258
350.135
238.929
1111.49
258.572
729.405
373.348
347.976
239.094
1112.13
273.926
788.385
387.783
407.815
671.924
409.285
663.944
5675.7
6456.78
7306.91
4779.13
4822.24
3848.81
3994.96
2121.86
2226.27
2576.72
2190.06
2723.08
2177.13
2204.22
2755.47
2196.37
2238.08
2621.73
2211.35
2021.79
1606.82
2643.13
1872.82
2065.16
1616.28
2684.65
1891.75
1688.9
1533.61
1720
1541.07
1.14498
0.100675
4.62209
2.38733
4.48135
2.38982
2.14092
2.12878
6.01708
52.2898
50.7816
84.8967
64.2288
4.54527
4.95577
3.29768
51.7926
5.84953
49.9341
83.0548
62.4518
4.48745
4.83465
3.30521
1092.61
385.589
1106.66
398.927
279.689
180.043
273.584
178.425
6354.31
6957
3690.29
4435.1
4446.72
3686.76
4022.52
3955.8
3789.82
2072.75
2140.11
3916.8
2181.07
2155.02
2729.3
2520.79
2158.58
2100.05
2787.59
2187.56
2556.04
2116.48
2477.94
1661.09
2836.12
1993.53
2521.98
1670.72
2884.86
2015.23
-0.169597
0.165858
2.353
3.14004
3.42798
2.32914
2.36272
3.14007
3.42042
2.34247
2.26226
2.2578
19.7712
3.40604
125.165
116.295
19.2461
3.39536
19.8564
123.307
3.41547
117.33
19.2429
3.4217
715.541
423.385
803.759
433.654
6955.07
7378.06
3709.3
4092.93
4079.58
3692.47
3887.79
3825.44
2267.09
2107.77
2138.07
2058.17
2113.23
2295.31
2390.25
2292.55
2431.58
2214.26
2153.58
2174.12
2131.74
2301.39
2571.48
2296.81
2694.92
2430.79
2068.34
2051.29
2747.45
2088.06
2467.73
2066.63
-0.0516928
2.36476
2.30753
2.32089
2.36266
2.23025
2.21703
3.25529
3.15775
3.34662
3.11437
3.34226
2.80457
3.40906
2.97271
2.42867
3.31267
2.97533
3.24959
3.16742
3.35935
3.12074
3.35533
2.80527
3.40565
2.9731
2.43908
3.30037
2.9703
8.32445
3.36701
7.86822
3.27337
8.83121
3.38134
7.98398
3.30392
7446.91
7705.81
3759.77
3901.17
2272.19
2592.72
3872.84
2277.61
2760.38
3746.03
3650.24
3622.89
2378.63
2508.91
2312.27
2123.08
2069.74
2250.55
2476.59
2641.63
2361.91
2080.11
2138.18
2257.93
2551.17
2022.75
2605.33
2043.78
0.063013
2.32681
2.42672
2.34115
2.42215
2.29701
2.28389
3.40303
3.41216
3.13267
3.23429
3.4456
3.1025
3.42014
3.38496
3.12605
3.35362
3.06316
3.04739
3.26429
2.83968
3.40947
3.39087
3.2623
3.12413
3.44146
3.09992
3.36823
3.42725
3.11517
3.32995
3.0532
3.04559
3.27032
2.84117
7703.19
3860.98
3746.2
3717.85
3897.53
3823.24
3809.32
1795.63
2252.75
2449.78
2304.95
2605.59
2222.27
2284.65
2359.27
1812.09
2257.7
2499.56
2312.13
2673.67
2223.64
2296.58
2362.95
3530.1
1922.23
2259.04
3524.29
1996.56
2278.96
2485.09
2523.07
2120.08
2251.23
2624.7
2634.05
2133.12
2254.28
0.0661828
2.38794
2.97498
3.28398
2.43776
2.39093
2.97649
3.29301
2.42242
2.34323
2.32642
3.46859
3.14833
3.46096
3.16606
3.42499
3.47789
3.45815
3.19354
3.21735
3.16252
3.43136
3.13681
3.4518
3.16043
3.39567
3.43809
3.48211
3.18646
3.20834
3.1626
7910.38
3934.91
3696.52
3662.77
3947.89
3830.76
3815.18
2491.94
2566.2
2248.96
2248.73
2390.47
2360.56
2601.3
2572.15
2254.06
2240.47
2418.32
2370.37
1829.27
1820.62
2202.75
1831.92
2173.92
2395.52
1523.18
2205.91
1836.51
1863.41
2218.34
1929.01
2195.96
2398.87
1537.15
2208.83
0.0534411
2.35836
2.34289
2.5098
2.99318
3.28207
3.00154
3.26149
2.44294
2.47427
2.99603
3.2762
3.00445
3.26432
2.42338
3.44896
3.43699
3.44485
3.23455
3.24621
3.17903
3.41817
3.41679
3.44431
3.22455
3.24025
3.1814
8043.67
3887.06
3792.15
2326.1
1762.91
3742.94
2322.31
1747.05
3906.09
3866.46
3855.23
2619.52
2275.36
2256.81
2279.24
2628.5
2270.65
2291.51
2294.01
2052.89
2068.25
2179.79
2224.6
2262.21
2472.29
2073.56
2041.92
2211.92
2277.2
2234.82
2465.65
0.0136021
2.35233
2.31315
2.33534
2.29894
2.57688
3.1358
3.3286
3.02054
3.33696
3.45856
3.18298
2.41101
2.51504
3.09807
3.30148
3.02003
3.31981
3.45295
3.17744
2.39584
3.42473
3.2451
3.40682
3.24129
8022.2
3880.09
3901.67
3811.2
2186.77
1757.24
2214.65
1749.03
3771.15
2181.59
1749.26
2210.51
1731.99
3901.75
3891.37
2133.03
2134.01
2069.65
2288.61
2253.27
2388.05
2167.47
2161.59
2048.13
2269.02
2299.14
2382.88
-0.00834675
2.29859
2.28735
2.28414
2.2727
2.35163
2.34633
2.49688
3.23446
3.4196
3.22516
3.39933
3.16232
3.45945
3.16804
3.45069
3.42706
3.22
2.46675
3.14475
3.37725
3.14558
3.3658
3.15452
3.44896
3.15733
3.44209
3.40898
3.21473
7926.88
3854.03
3817.81
3879.58
3849.95
3826
2222.61
1739.43
2227.61
1751.43
2071.63
2406.96
3785.08
2217.62
1749.93
2226.51
1748.71
2067.15
2406.63
3934.09
3925.85
2065.03
2252.66
2099.03
2260.99
-0.016809
2.26209
2.20481
2.24869
2.19214
2.32222
2.2852
2.31716
2.28339
2.31763
2.32678
2.95084
3.37919
3.06256
3.34
3.19953
3.46446
3.17843
3.44701
3.15335
3.43098
3.17924
3.40961
2.95923
3.35214
3.0633
3.32105
3.17368
3.45264
3.15863
3.44191
3.15571
3.41321
3.17448
3.397
7858.72
3751.28
3707.75
3791.18
3740
3912.27
3912.3
3841.42
2219.6
1753.43
2313.85
1744.22
2460.24
2078.84
2427.53
2087.68
2089.69
2351.86
3800.69
2213.7
1761.89
2310.86
1740.62
2459.08
2088.93
2429.06
2098.99
2123.93
2359.51
-0.0379626
2.14397
2.10711
2.13349
2.09235
2.25758
2.21193
2.25583
2.2115
2.26544
2.23291
2.27921
2.24815
2.91314
3.20867
2.87044
3.26012
2.91965
3.21235
2.87807
3.25501
3.05269
3.45554
3.12194
3.3705
3.04985
3.44334
3.11336
3.37914
7434.05
3654.94
3621.71
3682.41
3647.27
3838.11
3754.09
3844.02
3754.73
3888.71
3841.62
2310.32
1762.7
2339.84
1739.96
2430.89
2021.64
2500.16
2029.91
2397.06
2106.09
2387.78
2104.13
2305.56
1778.89
2339.56
1736.15
2416.1
2034.25
2496.55
2011.09
2398.14
2135.76
2392.67
2119.15
-0.0234388
-0.0445765
2.18584
2.12417
2.18855
2.12238
2.18915
2.14113
2.20772
2.16221
2.83666
3.1879
2.85765
3.16873
2.83656
3.153
2.82183
3.17339
2.84511
3.19723
2.86585
3.17921
2.84297
3.15834
2.82812
3.18078
3.00928
3.35225
2.97732
3.36618
3.01499
3.36
2.98296
3.37762
7169.96
3614.41
3317.26
3641.35
3346.84
3684.47
3634.58
3680.15
3628.54
3836.53
3699.66
3800.13
3674.16
2368.14
1769.46
2332.1
1800.59
2358.42
1751.5
2320.95
1784.95
2469.23
2101.15
2689.74
1935.62
2462.83
2130.94
2692.77
1935.36
-0.022322
2.04526
1.97968
2.05825
1.98666
-0.0116851
2.07755
2.05301
2.10562
2.07269
2.79479
3.11168
2.81476
3.07337
2.79503
3.02199
2.77005
3.05972
2.80229
3.1202
2.82178
3.08399
2.80083
3.03534
2.77874
3.06729
2.92799
3.32239
2.9461
3.32834
2.90293
3.2782
2.84573
3.28633
2.93069
3.33724
2.95468
3.32629
2.90853
3.28681
2.85167
3.29645
6763.4
7098.75
3531.86
3398.33
3519.34
3390.62
3632.41
3573.25
3600.1
3539.64
2274.27
1749.35
2303.52
1726.52
2208.19
1626.22
2162.22
1676.08
2265.82
1737.21
2293.35
1716.75
2206.21
1645.37
2164.93
1677.42
2604.02
1944.27
2447.55
2060.18
2599.5
1954.55
2445.58
2065.2
-0.0150841
1.95188
1.93008
1.9531
1.92212
2.04675
1.97779
2.05475
2.00066
0.00560382
2.75207
2.99047
2.7595
3.00013
2.69658
2.97387
2.58281
3.02303
2.76175
3.01648
2.77066
3.02044
2.70369
2.98291
2.58833
3.03731
2.83289
3.23664
2.83514
3.15888
2.83944
3.08965
2.83116
3.11214
2.83969
3.24777
2.84224
3.17141
2.84336
3.09913
2.83561
3.11982
6369.41
6735.89
3398.02
3480.83
3369.12
3451.18
3517.26
3345.84
3472.49
3312.78
2077.28
1602.13
2118.31
1584.96
2033.71
1534.39
2021.92
1565.83
2074.89
1611.71
2118.37
1584.88
2030.15
1545.05
2019.52
1565.57
2468
2001.7
2491.8
1989.87
2385.45
1923.07
2375.5
1939.57
2463.68
2008.46
2489.71
1989.83
2384.56
1945.54
2380.87
1945.67
-0.0249056
0.00806532
1.99187
1.97825
2.00534
1.98506
2.93137
2.97132
2.71905
2.94562
2.68747
2.62337
2.89123
2.48503
2.95103
2.62893
2.92791
2.97957
2.71422
2.93086
2.68028
2.62697
2.88959
2.48196
2.94101
2.62188
0.0142408
2.77985
3.05004
2.80786
3.0246
2.74102
3.06459
2.78705
3.06495
2.81445
3.042
2.74775
3.08074
2.86253
3.12655
2.87759
3.13175
2.86428
3.10972
2.87487
3.126
6113.01
6978.7
4244.53
4569.61
4210.77
4622.14
3266.45
3709.01
3184.24
3579.05
1934.18
1554.68
2017.61
1491.2
2019.02
1209.08
1858.01
1447.67
1930.66
1550.33
2012.96
1486.09
2020.42
1228.5
1866.97
1446.59
2334.86
1906.44
2367
1903.69
2257.08
1827.07
2221.78
1854.98
2333.93
1922.66
2370.95
1906.25
2256.11
1833.9
2222.93
1861.39
0.039045
1.93427
1.89842
1.94939
1.90585
0.0504673
1.94273
1.94146
1.95614
1.95703
3.00738
2.97607
2.81284
2.70182
2.96079
2.67702
2.90368
2.53674
2.98037
2.66021
2.99151
2.96871
2.80728
2.70108
2.95434
2.67619
2.89694
2.53741
2.98053
2.66062
0.0283246
2.87042
3.07158
2.84775
3.07037
2.84884
3.06878
2.86869
3.05857
2.84523
3.06341
2.84632
3.05676
6118.65
8073.29
10785.4
5252.1
6828.94
5016.42
6709.05
1866.98
1470.42
1980.73
2716.82
1978.6
1997.99
2720.91
1916.28
2622.44
1990.81
1470.76
1639.97
1960.34
2161.84
1961.63
2004.19
2313.99
1939.74
2097.96
2010.66
2192.43
1849.36
2223.31
1822.69
2158.83
1733.14
2190.77
1848.54
2223.11
1815.87
2157.56
1712.95
2170.18
1815.61
2149.89
1805.44
2171.9
1839.5
2154.62
1825.2
0.0974906
1.90378
1.8569
1.90988
1.855
1.90806
1.89957
1.91512
1.91102
0.0892731
2.55603
2.82326
2.61002
2.82601
2.50152
2.82836
2.37981
2.8237
2.55721
2.82766
2.60937
2.82898
2.50226
2.82352
2.3802
2.82369
3.00383
2.78154
2.9011
2.68257
2.97469
2.69867
2.98378
2.7772
2.89155
2.67831
2.97013
2.69468
0.0324339
5946.6
7685.56
10388.3
7543.68
7157.1
7549.45
7264.64
5802.26
7351.06
5543.69
7250.93
1783.84
2929.21
2544.32
1986.58
3926.52
2997.22
4230.56
2588.99
4330.48
2753.25
1738.14
2428.61
1964.03
2334.54
3217
2687.29
3829.5
2526.53
3710
2553.1
2099.58
1880.84
2192.52
1855.37
2037.91
1823.94
2107.16
1894.87
2195.63
1883.19
2044.74
1832.76
0.193135
0.172994
1.95089
1.9975
1.96719
2.00084
2.77634
2.87921
2.54264
2.74954
2.48896
2.47365
2.72876
2.2926
2.73702
2.43675
2.76024
2.87574
2.53523
2.73636
2.48306
2.47032
2.72272
2.29034
2.7263
2.43152
0.112979
2.55488
2.90464
2.57276
2.88863
2.57921
2.90674
2.55581
2.90677
2.57355
2.89477
2.57858
2.90723
0.0217199
5277.86
6265.28
9620.43
6148.07
5977.05
6286.89
6097.18
4988.88
4433.1
5250.83
4618.17
2880.89
4952.28
2887.34
5312.77
2861.74
5296.9
2707.62
5298.36
2873.83
4825.55
2913.09
5487.91
2891.55
5465.44
2714
5590.52
2035.85
2095.55
5018.04
3600.29
5076.13
4114.44
1902.64
2054.91
4779.14
3531.46
4825.42
4051.98
0.360589
2.01044
1.93871
2.01193
1.92793
0.188452
1.89914
2.0285
1.90628
2.03384
2.82375
2.7976
2.59572
2.53711
2.76657
2.53067
2.7823
2.38987
2.78353
2.50072
2.79692
2.77823
2.58556
2.53174
2.75133
2.52496
2.77121
2.38667
2.76825
2.49514
0.106565
2.60528
2.86192
2.60003
2.84158
0.0158771
4284.55
4764.77
6085.72
5888.95
3749.57
3005.64
3812.81
3023.98
2893.96
4334.76
2248.54
2573.76
2035.4
2635.97
2176.72
2031.45
2247.28
1935.29
4743.71
3123.67
2298.43
2740
2063.49
2686.09
2323.44
2059.3
2352.07
1955.25
2904.95
4814.61
2872.83
4898.02
2867.28
4639.62
2970.88
4822.3
2935
4969.3
2952.45
4880.21
0.623538
0.379375
2.54477
2.61653
2.58361
2.60447
0.135477
2.37228
2.75159
2.47119
2.79884
2.29494
2.37156
2.76389
2.47281
2.80161
2.33315
2.7335
2.53725
2.74685
2.52678
2.73702
2.51896
2.71925
2.52982
2.74511
2.52192
2.73001
2.51244
0.0961538
0.00673321
3610.53
3740.93
3917.96
4121.35
2223.24
1846.69
2225.35
1860.13
3048.18
2586.85
3063.41
2600.29
3477.17
2472.55
2009.68
2387.2
2358.5
1929.18
2009.76
1769.57
2223.43
1808
3756.93