/*--------------------------------*- C++ -*----------------------------------*\
| =========                 |                                                 |
| \\      /  F ield         | OpenFOAM: The Open Source CFD Toolbox           |
|  \\    /   O peration     | Version:  5.x                                   |
|   \\  /    A nd           | Web:      www.OpenFOAM.org                      |
|    \\/     M anipulation  |                                                 |
\*---------------------------------------------------------------------------*/
FoamFile
{
    version     2.0;
    format      ascii;
    class       surfaceScalarField;
    location    "2.5";
    object      phi;
}
// * * * * * * * * * * * * * * * * * * * * * * * * * * * * * * * * * * * * * //

dimensions      [0 3 -1 0 0 0 0];

internalField   nonuniform List<scalar> 
30582
(
0.000117379
5.5958e-07
0.000113823
3.55527e-06
0.000117393
1.1248e-06
0.0001061
7.72361e-06
0.00011371
7.23825e-06
0.000117344
1.78202e-06
9.40484e-05
1.20514e-05
0.000105969
1.54651e-05
0.000113761
1.08207e-05
0.000116691
3.15434e-06
7.72356e-05
1.68128e-05
9.36212e-05
2.43989e-05
0.000106229
2.29979e-05
0.000112054
1.54573e-05
0.000116397
4.90157e-06
5.78128e-05
1.94229e-05
7.6717e-05
3.37172e-05
9.44027e-05
3.62248e-05
0.000103771
3.12811e-05
0.000111821
2.00338e-05
0.000113973
9.17858e-06
3.77828e-05
2.00301e-05
5.76249e-05
3.85151e-05
7.78947e-05
5.02253e-05
9.14475e-05
4.85486e-05
0.000103796
3.93059e-05
0.000106579
2.74281e-05
0.000113806
1.37471e-05
1.74161e-05
2.03667e-05
3.77444e-05
3.99106e-05
5.86362e-05
5.77736e-05
7.52774e-05
6.63954e-05
9.2218e-05
6.01265e-05
9.63885e-05
4.94962e-05
0.000106758
3.44756e-05
9.90298e-05
3.32353e-05
-2.32248e-06
1.97386e-05
1.73882e-05
4.07228e-05
3.84122e-05
6.01345e-05
5.70965e-05
7.59546e-05
7.71466e-05
8.14669e-05
8.50826e-05
7.14325e-05
9.75257e-05
5.87288e-05
8.617e-05
4.73354e-05
2.23005e-05
-2.28622e-05
-2.04415e-05
1.8119e-05
-2.46859e-06
3.95954e-05
1.76963e-05
6.14388e-05
3.75057e-05
7.97254e-05
5.94414e-05
9.36597e-05
7.26259e-05
9.39235e-05
8.70174e-05
8.19408e-05
7.82618e-05
6.66371e-05
1.88645e-05
5.07715e-05
-0.000336952
0.000312483
-3.58315e-05
1.539e-05
-2.07714e-05
3.64218e-05
-2.72119e-06
6.00128e-05
1.6898e-05
8.20464e-05
3.93873e-05
9.97795e-05
5.73633e-05
0.000108922
7.52855e-05
0.000105655
6.98915e-05
9.03112e-05
3.50462e-05
5.04553e-05
-0.000382827
9.66468e-05
0.000162405
0.000150015
-4.78823e-05
1.20508e-05
-3.63244e-05
3.0943e-05
-2.15699e-05
5.52705e-05
-3.93106e-06
8.08419e-05
1.75118e-05
0.000103922
3.85323e-05
0.00011861
6.02188e-05
0.000123989
6.35799e-05
0.000111967
4.38216e-05
8.15358e-05
-0.000425
9.26282e-05
0.000201777
5.72744e-05
0.000124378
2.56359e-05
-5.64728e-05
8.59048e-06
-4.85032e-05
2.42297e-05
-3.7525e-05
4.68981e-05
-2.33823e-05
7.47217e-05
-4.71874e-06
0.000103072
1.67235e-05
0.000125731
4.0625e-05
0.000138204
5.37102e-05
0.000133859
5.21783e-05
0.00010361
-0.000347352
3.88779e-06
-1.90274e-05
0.000313433
0.000163711
1.79419e-05
-0.000141326
0.000166962
-6.15107e-05
5.03797e-06
-5.71819e-05
1.72691e-05
-4.98871e-05
3.65918e-05
-3.98185e-05
6.33343e-05
-2.53378e-05
9.53408e-05
-6.27795e-06
0.000126074
1.67004e-05
0.000149655
3.83603e-05
0.000153554
5.79506e-05
0.000128086
-0.00025195
8.2089e-06
-0.000211706
0.000196566
9.66016e-05
0.000380542
-0.000117962
-5.42143e-06
8.27062e-05
8.42555e-05
-6.30438e-05
1.53315e-06
-6.23285e-05
1.01846e-05
-5.85126e-05
2.58946e-05
-5.25176e-05
4.92909e-05
-4.24857e-05
8.04823e-05
-2.81113e-05
0.000117174
-9.0829e-06
0.000151857
1.68263e-05
0.000171189
5.53347e-05
0.00015617
-0.00018059
5.67258e-05
-0.000354994
0.000151497
5.24671e-05
0.000240701
-3.56283e-05
0.000298208
9.57089e-05
-1.84241e-05
-9.2044e-05
-6.11934e-05
-1.85037e-06
-6.40089e-05
3.21363e-06
-6.36477e-05
1.53198e-05
-6.14491e-05
3.48262e-05
-5.53805e-05
6.21857e-05
-4.63308e-05
9.87018e-05
-3.30999e-05
0.000141191
-8.80631e-06
0.00017749
4.56232e-05
0.000180901
-0.000131965
0.000107546
-0.000474098
0.00017583
9.51785e-06
0.000194446
-1.26585e-05
0.000217731
6.14215e-05
0.000332495
-9.47892e-05
-5.53599e-05
-5.83349e-06
-6.23529e-05
-3.50633e-06
-6.5689e-05
5.25492e-06
-6.67647e-05
2.06354e-05
-6.41473e-05
4.3593e-05
-5.98964e-05
7.57513e-05
-5.2505e-05
0.000118107
-3.36708e-05
0.000166056
3.07291e-05
0.000192384
-9.94724e-05
0.000148408
-0.000498101
0.000131549
-2.00412e-05
0.000205389
2.1057e-06
0.000179682
3.75055e-05
0.000241647
-4.84141e-05
-4.47381e-05
-1.06219e-05
-5.67145e-05
-1.1472e-05
-6.44011e-05
-4.7942e-06
-6.87433e-05
7.23356e-06
-6.92896e-05
2.57776e-05
-6.88992e-05
5.25958e-05
-6.64227e-05
8.9669e-05
-5.40435e-05
0.00013848
1.36538e-05
0.000183131
-8.10789e-05
0.00017399
-0.000494641
0.000144948
-4.31219e-05
0.000154629
2.01511e-05
0.000187344
1.03004e-05
0.000206887
-2.30676e-05
-2.87613e-05
-1.59767e-05
-4.63311e-05
-2.10052e-05
-5.93204e-05
-1.65527e-05
-6.78911e-05
-5.6464e-06
-7.1641e-05
9.58501e-06
-7.3979e-05
3.08575e-05
-7.51884e-05
6.13615e-05
-6.84997e-05
0.000104125
-1.86273e-06
0.000153996
-6.97166e-05
0.000171769
-0.000441997
0.000121347
-4.42469e-05
0.000146073
2.91842e-05
0.000145596
9.11867e-08
0.000197553
-3.54661e-06
-7.10465e-06
-2.16567e-05
-3.0478e-05
-3.18299e-05
-4.93891e-05
-3.09366e-05
-6.35013e-05
-2.09425e-05
-7.19055e-05
-5.38192e-06
-7.62464e-05
1.18524e-05
-7.95677e-05
3.52368e-05
-7.76051e-05
7.04669e-05
-1.49692e-05
0.000117232
-5.79317e-05
0.000142211
-0.000356927
8.66987e-05
-1.41865e-05
9.12865e-05
4.97171e-05
0.00012554
-7.11214e-06
0.0001528
7.9735e-06
1.99976e-05
-2.71023e-05
-8.83077e-06
-4.3304e-05
-3.38599e-05
-4.73591e-05
-5.44204e-05
-4.00175e-05
-6.86849e-05
-2.41631e-05
-7.66386e-05
-4.98971e-06
-8.16985e-05
1.39833e-05
-8.27857e-05
4.04174e-05
-2.53921e-05
8.08899e-05
-4.42392e-05
0.000103539
-0.000274399
5.96826e-05
4.6416e-06
6.78705e-05
5.43609e-05
8.66427e-05
-1.73449e-05
0.000135773
1.58921e-05
5.17253e-05
-3.17277e-05
1.8434e-05
-5.43671e-05
-1.2305e-05
-6.48588e-05
-3.94321e-05
-6.23474e-05
-6.05115e-05
-4.81909e-05
-7.51624e-05
-2.56392e-05
-8.44536e-05
-2.2346e-06
-8.69459e-05
1.81435e-05
-3.56181e-05
5.06434e-05
-3.28803e-05
6.9531e-05
-0.000197888
2.70282e-05
-2.71913e-05
9.15154e-05
4.30473e-05
7.91841e-05
-2.43107e-05
9.36086e-05
2.69528e-05
8.67587e-05
-3.50335e-05
5.05176e-05
-6.38113e-05
1.51921e-05
-8.18643e-05
-1.79148e-05
-8.63762e-05
-4.62835e-05
-7.65754e-05
-6.90216e-05
-5.43318e-05
-8.44539e-05
-2.5639e-05
-9.12595e-05
2.07902e-06
-4.64095e-05
2.89349e-05
-2.88e-05
4.65631e-05
-0.000137228
8.87158e-06
-8.31538e-05
8.29907e-05
4.1873e-05
9.26897e-05
-1.20444e-05
6.69177e-05
2.77002e-05
0.000123376
-3.66177e-05
8.60506e-05
-7.05665e-05
4.79629e-05
-9.6582e-05
1.01601e-05
-0.000109939
-2.518e-05
-0.00010748
-5.61414e-05
-8.94556e-05
-7.94561e-05
-5.93296e-05
-9.47244e-05
-2.21741e-05
-5.72169e-05
1.28865e-05
-3.21264e-05
3.22614e-05
-0.000101846
1.11811e-05
-0.000114162
3.98799e-05
5.25331e-05
7.23306e-05
1.1628e-05
6.90174e-05
1.35032e-05
0.000159733
-3.63564e-05
0.000123272
-7.38388e-05
8.4532e-05
-0.000107136
4.40954e-05
-0.000130517
3.17264e-06
-0.000138292
-3.53668e-05
-0.000128254
-6.82762e-05
-0.000100636
-9.30879e-05
-6.09661e-05
-6.77531e-05
-1.1638e-05
-3.91748e-05
1.99349e-05
-9.19562e-05
2.23714e-05
-0.000110911
7.93022e-06
6.05173e-05
3.18958e-05
3.65716e-05
4.7387e-05
-3.39713e-06
0.000194124
-3.43909e-05
0.000160227
-7.33113e-05
0.000122975
-0.000112281
8.22967e-05
-0.000145337
3.84951e-05
-0.00016584
-6.07022e-06
-0.000167588
-4.88869e-05
-0.000147644
-8.26116e-05
-0.000111112
-7.42094e-05
-5.45098e-05
-4.42197e-05
-6.59312e-06
-0.000101858
2.98362e-05
-9.89013e-05
1.03616e-05
6.1914e-05
6.53356e-06
4.99953e-05
1.84721e-05
-1.40012e-05
0.000225174
-3.105e-05
0.000195166
-6.93301e-05
0.000161178
-0.000111514
0.000122602
-0.000152586
7.89117e-05
-0.000185753
3.13545e-05
-0.000203264
-1.86484e-05
-0.000197827
-6.2716e-05
-0.000167539
-7.07895e-05
-0.000114532
-4.36781e-05
-5.50514e-05
-0.00012357
1.51195e-05
-9.64832e-05
2.7418e-05
6.34662e-05
8.80942e-06
4.89202e-05
7.60872e-06
-1.49974e-05
0.000251949
-2.67755e-05
0.000226651
-6.25356e-05
0.000197208
-0.00010536
0.000162741
-0.000151654
0.000121918
-0.000195593
7.48139e-05
-0.000229213
2.15241e-05
-0.000243437
-3.09231e-05
-0.00022962
-5.07795e-05
-0.000187549
-3.77923e-05
-0.000120417
-0.000135454
-4.31675e-05
-0.000127827
4.64631e-05
7.9818e-05
1.10664e-05
4.68204e-05
1.09094e-05
-2.37045e-06
0.000273929
-2.19795e-05
0.000253744
-5.38677e-05
0.000229522
-9.485e-05
0.000200498
-0.000143117
0.000164793
-0.000194529
0.000121285
-0.000242064
6.86916e-05
-0.00027638
1.16362e-05
-0.000285996
-1.83636e-05
-0.000262036
-2.10286e-05
-0.000204313
-0.000120921
-0.00013495
-0.000192098
2.11043e-05
0.000108937
1.73447e-05
5.23449e-05
5.54209e-06
1.27828e-05
0.000290909
-1.69798e-05
0.00027592
-4.41561e-05
0.000257171
-8.1516e-05
0.000234199
-0.000128551
0.000204892
-0.000183216
0.000167692
-0.000240936
0.000119592
-0.000292965
6.20913e-05
-0.000326836
2.08183e-05
-0.000325178
6.36254e-06
-0.000289427
-9.58179e-05
-0.000229416
-0.000227464
-9.95849e-05
0.00014393
-1.38883e-05
7.18748e-05
-2.18485e-06
2.32073e-05
0.00030292
-1.20113e-05
0.00029304
-3.41001e-05
0.000279714
-6.66998e-05
0.000262808
-0.000110125
0.000240251
-0.00016391
0.000211008
-0.000226532
0.000170716
-0.000292059
0.000116439
-0.000347312
6.51151e-05
-0.000371132
4.44919e-05
-0.000363307
-5.48268e-05
-0.000330418
-0.000175454
-0.000281426
0.000183034
-0.000138689
0.000106535
-4.85477e-05
2.83465e-05
0.000310096
-7.17622e-06
0.000305184
-2.41554e-05
0.000297061
-5.14469e-05
0.000285892
-8.97833e-05
0.000269882
-0.000139756
0.000248863
-0.000201765
0.000218332
-0.000274148
0.000170504
-0.000346124
0.000112449
-0.000394646
9.01225e-05
-0.000416763
9.59097e-06
-0.000427725
-9.89552e-05
-0.000406917
0.000184503
-0.000282895
0.000122843
-0.000154997
1.22114e-05
0.000312506
-2.40968e-06
0.000312481
-1.44731e-05
0.000309276
-3.63703e-05
0.000303545
-6.91e-05
0.00029352
-0.000113421
0.00028002
-0.000170913
0.000259742
-0.000243175
0.000220399
-0.000324044
0.000159501
-0.000393176
0.000137844
-0.000442368
0.000101579
-0.000508751
-2.9701e-05
-0.00049698
0.000142373
-0.000364788
0.000102758
-0.000262809
-1.04658e-05
0.000310366
2.13966e-06
0.000314907
-4.83583e-06
0.000316544
-2.1741e-05
0.000316119
-4.89442e-05
0.000311479
-8.70593e-05
0.000304486
-0.000137887
0.000292526
-0.000203697
0.000262976
-0.000285751
0.000204815
-0.000369358
0.000190646
-0.000445978
0.00019812
-0.000538909
2.08816e-05
-0.000559334
8.72113e-05
-0.000441818
8.03758e-05
-0.000342407
-9.07751e-06
0.000304356
6.0102e-06
0.000312789
4.25762e-06
0.000319178
-7.46981e-06
0.000323834
-2.94562e-05
0.000324177
-6.16415e-05
0.000322688
-0.000105261
0.000316457
-0.000161818
0.000295816
-0.000236538
0.00024603
-0.000326967
0.000247459
-0.00042617
0.000280817
-0.000528675
5.43112e-05
-0.000572339
3.52168e-05
-0.000507341
5.75898e-05
-0.000419033
2.59446e-06
0.000294446
9.90956e-06
0.000306211
1.25889e-05
0.000317032
6.40315e-06
0.000326315
-9.95154e-06
0.000332032
-3.73111e-05
0.000335981
-7.49351e-05
0.000333743
-0.000122548
0.000319099
-0.000185102
0.000280159
-0.000270666
0.000306488
-0.000385995
0.000358616
-0.000503969
8.3187e-05
-0.000557551
-5.00032e-06
-0.000532122
2.80578e-05
-0.000477809
6.4734e-06
0.000281306
1.31406e-05
0.000296018
2.0102e-05
0.000310234
1.93868e-05
0.000323737
8.98178e-06
0.00033509
-1.30097e-05
0.000344759
-4.60881e-05
0.000346651
-8.78427e-05
0.000335323
-0.000138772
0.000303773
-0.000208715
0.000368263
-0.000332442
0.000435762
-0.000463142
0.000102188
-0.00052297
-4.7451e-05
-0.0005151
-4.5648e-07
-0.000503608
4.26312e-06
0.000265771
1.55344e-05
0.000282773
2.63863e-05
0.000299513
3.08235e-05
0.0003165
2.66238e-05
0.000332616
1.14552e-05
0.000347675
-1.59258e-05
0.000356237
-5.56745e-05
0.000347269
-9.97887e-05
0.000315229
-0.000150228
0.000431088
-0.00027154
0.000514026
-0.000410705
0.000103241
-0.000464194
-0.00010084
-0.00046958
-2.28983e-05
-0.000492658
7.75669e-08
0.000248496
1.72756e-05
0.00026715
3.11566e-05
0.000285594
4.03056e-05
0.000305125
4.21987e-05
0.000324609
3.46314e-05
0.000344787
1.43431e-05
0.000361785
-2.14733e-05
0.000355958
-6.43635e-05
0.000316471
-0.000101031
0.000492644
-0.000211784
0.000589659
-0.000347174
7.9444e-05
-0.000386907
-0.000147344
-0.000417689
-3.20925e-05
-0.000460385
-2.45091e-06
1.80027e-05
0.000230493
0.000249732
3.46938e-05
0.000269259
4.74907e-05
0.000290435
5.49949e-05
0.000311925
5.48818e-05
0.00033613
4.32881e-05
0.000359663
1.64647e-05
0.000359105
-2.46198e-05
0.000309429
-5.73214e-05
0.000549732
-0.000158119
0.000652935
-0.00027506
2.03066e-05
-0.000288036
-0.000169196
-0.000365055
-3.81978e-05
-0.000411583
-1.82253e-07
3.64411e-05
0.000231294
4.38021e-05
0.000186691
0.000251199
5.27544e-05
0.000273236
6.46899e-05
0.000295638
7.12826e-05
0.00032244
6.85721e-05
0.000349445
5.35062e-05
0.000353806
2.17639e-05
0.000294414
-9.6049e-06
0.000592332
-9.99214e-05
0.000703106
-0.000208289
-5.49937e-05
-0.00019976
-0.000177804
-0.000279428
-4.7905e-05
-0.000355348
7.65726e-06
5.55688e-05
0.000232071
8.86525e-05
0.000186443
3.79766e-05
0.000148714
0.0002543
7.16908e-05
0.000276776
8.35517e-05
0.000305024
8.8698e-05
0.000332931
8.50868e-05
0.000339269
6.80427e-05
0.000278274
3.79045e-05
0.000589292
-6.56524e-06
0.000732342
-0.000129158
-0.000126985
-0.000136299
-0.000181062
-0.000196503
-4.49601e-05
-0.000282373
9.78387e-06
7.568e-05
0.000234188
0.000134992
0.000185732
7.72031e-05
0.000147217
2.75783e-05
0.000121136
0.000256284
9.21829e-05
0.000284901
0.000103675
0.000312195
0.000109433
0.000319156
0.0001052
0.000264215
8.21018e-05
0.000538969
8.82277e-05
0.000719654
6.12289e-06
-0.000173257
-8.28866e-05
-0.00018143
-0.000135932
-3.03534e-05
-0.00021111
-3.56496e-06
9.71309e-05
0.000234833
0.000183894
0.000185286
0.000117945
0.00014499
5.76912e-05
0.000117104
1.07443e-05
0.000110392
0.000262995
0.000114089
0.000288921
0.000126949
0.000295543
0.000133046
0.000250632
0.000118782
0.000466124
0.000154947
0.000668251
0.000139631
-0.000131945
-3.51889e-05
-0.000182539
-8.17781e-05
-1.32733e-05
-0.000153012
-2.57185e-05
0.000120397
0.000239729
0.000235031
0.000183696
0.000162263
0.000140968
8.96412e-05
0.00011304
2.45442e-05
0.000103304
-1.39158e-05
0.000124308
0.000264261
0.000138749
0.000269282
0.00015321
0.00023594
0.000147739
0.000395617
0.000189288
0.000593012
0.000230186
-2.50839e-05
3.277e-05
-0.000174179
-4.35484e-05
-3.24425e-06
-9.18073e-05
-4.47029e-05
0.000145506
0.000239152
0.000290848
0.000183912
0.000209359
0.0001366
0.000125878
0.000104731
4.17858e-05
9.57984e-05
-1.88091e-05
0.000108197
-5.42611e-05
0.000178569
0.000240959
0.000167072
0.000219399
0.000169752
0.000336806
0.00020655
0.000507623
0.000274677
5.60756e-05
0.000149026
-0.000150297
8.88751e-06
-2.20404e-05
-2.47525e-05
-5.58302e-05
0.000175108
0.000211358
0.000350324
0.000179676
0.000261374
0.000131898
0.000166011
9.64673e-05
6.70922e-05
7.94241e-05
-1.64499e-05
9.34392e-05
-9.66717e-05
0.000150608
-6.77623e-05
0.000246331
0.000200741
0.00018573
0.000289281
0.000217276
0.000421698
0.000292476
8.31207e-05
0.000247632
-0.000119047
0.000117777
-6.82828e-05
5.51299e-05
-5.01914e-05
0.000195133
0.000180716
0.000418653
0.000143029
0.000316857
0.000124193
0.000212127
8.57821e-05
0.0001005
6.30594e-05
-3.36626e-06
6.63406e-05
-0.000120299
0.000117066
-0.000141764
0.00022461
-0.000116678
0.000363009
0.00025171
0.000223301
0.000347414
0.00029156
7.57021e-05
0.000299895
-9.22947e-05
0.000220881
-8.99873e-05
0.000139482
-3.58119e-05
0.000227199
0.000219644
0.000473303
0.000126065
0.000376231
8.36545e-05
0.000263274
7.30463e-05
0.000143019
4.32633e-05
1.87573e-05
4.09359e-05
-0.000130283
7.63245e-05
-0.000219292
0.000194594
-0.000233265
0.000341196
-1.19452e-05
0.000374954
0.000284554
0.000286161
5.36858e-05
0.000313577
-7.458e-05
0.000282182
-8.44483e-05
0.000215343
-2.88744e-05
0.000284031
0.000227722
0.000548365
0.000144582
0.000436292
6.60043e-05
0.000321538
2.53902e-05
0.000194108
2.19572e-05
6.27602e-05
-7.39587e-07
-0.000115491
2.61446e-05
-0.000279001
0.000136034
-0.000330145
0.000291475
-4.12301e-05
0.000370481
7.35117e-05
0.000301443
2.3474e-05
0.000316373
-7.1154e-05
0.000310151
-7.30505e-05
0.000270785
-2.51809e-05
0.00032913
-2.16256e-05
0.000673026
0.00010306
0.000521354
5.95197e-05
0.000390572
-3.02931e-06
0.000254261
-3.47632e-05
0.000124127
-3.94093e-05
-4.54758e-05
-7.07551e-05
-0.000278593
2.57367e-05
-0.000409653
0.000215542
-0.000106504
0.000356749
9.70855e-05
0.000346908
0.00230826
0.000644965
-0.00265178
-8.37675e-05
0.000328985
-6.9928e-05
0.000307028
-2.29925e-05
0.000357786
-0.000112425
0.000837673
-0.000186273
0.000734935
-0.000110521
0.000508571
-5.84794e-05
0.000329227
-7.79952e-05
0.000189886
-0.000100522
5.37569e-05
-0.000138642
-0.00017256
-0.000176788
-0.000431257
4.73411e-05
-0.000243365
0.000352403
0.000112596
0.000341239
0.00188167
0.000773494
0.0028134
0.000830315
-0.00299875
0.000431266
-0.00308305
-7.9651e-05
0.000338706
-2.42558e-05
0.00038045
-0.000102315
0.0009726
-0.000247352
0.00106764
-0.000518981
0.000898645
-0.000500595
0.000460041
-0.000189293
0.00025728
-0.000145389
0.000139586
-0.000186352
-3.47893e-06
-0.000307723
-0.000349504
-0.000258541
-0.000364379
0.000168355
7.11292e-05
0.00039387
0.00145699
0.000765918
0.00259425
0.000992645
0.00267901
0.0010432
-0.00289189
0.000691614
-0.0032591
0.000367262
-0.00345031
-2.95225e-05
-3.97089e-05
0.00107724
-0.000206954
0.00131941
-0.000499119
0.00140777
-0.00102811
0.000708605
-0.000749159
0.000347369
-0.000279382
0.000180829
-0.000186632
0.000134755
-0.000324586
-0.000130408
-0.000526819
-0.000336793
-0.000286127
-1.62629e-05
0.000255747
0.00109453
0.000756331
0.00231351
0.00104666
0.00249326
0.0011784
0.00230802
0.00125688
-0.0025217
0.000976189
-0.00317647
0.000673893
-0.00356573
0.000308966
-0.00375927
-8.8454e-05
0.00148848
-0.000376021
0.00181905
-0.000910395
0.00103833
-0.00135783
0.000315008
-0.000716798
0.000206611
-0.000305164
0.000131488
-0.000183365
0.00013218
-0.000587174
-0.000189352
-0.00067426
-0.000157095
-0.000145295
0.000809568
0.00054071
0.0020016
0.00106824
0.00229699
0.00124293
0.00214253
0.00134389
0.00170658
0.00147295
-0.00192266
0.00124968
-0.00279519
0.000945572
-0.00344815
0.000590984
-0.00384775
0.000263899
-0.00402317
-0.000171504
0.0020445
-0.000601478
0.00147053
-0.00134259
0.000260157
-0.00130298
3.64372e-05
-0.000546624
4.79924e-05
-0.000221668
0.000276608
-0.000327793
8.03796e-05
-0.000856906
-0.000240877
-0.000590478
0.000423568
0.000240705
0.0016109
0.000931418
0.00207168
0.00129354
0.0019863
0.00139916
0.00158096
0.00146951
0.0011324
0.00172103
-0.00138047
0.00153323
-0.00220621
0.00125517
-0.00310479
0.000904809
-0.00376197
0.000561347
-0.0041452
0.000223962
-0.00424713
-0.000259865
0.00175927
-0.000890224
0.000410271
-0.0014927
-0.000251826
-0.00101472
-0.000146506
-0.000352126
0.000120253
-6.53137e-05
0.000484014
-0.000731427
-0.000164
-0.000933783
5.28867e-05
-0.000219797
0.00115201
0.000699592
0.00180757
0.00119553
0.00185142
0.00142842
0.00145864
0.00152148
0.000991029
0.00161088
0.000753719
0.000437627
-0.000805667
0.000436883
0.000449479
0.000448984
0.00175596
-0.0016032
0.00154536
-0.0024964
0.00121908
-0.00341906
0.000843615
-0.00404424
0.000441137
-0.00436237
0.00013352
-0.00438066
-0.000348817
0.000544122
-0.00102407
-0.000418421
-0.00132611
-0.000352522
-0.000808704
-8.01245e-05
-0.000151748
0.00048937
-7.06697e-05
0.000127138
-0.00102256
-0.000204982
-0.000675914
0.000625969
0.000306245
0.00147272
0.00103444
0.00167252
0.00137443
0.00134535
0.00154171
0.000990287
0.00152223
0.000597904
0.00176669
-6.61885e-07
9.32036e-05
-0.000101475
0.00044656
0.00045213
-0.000898838
0.000451335
0.000473034
0.000472637
9.31558e-05
-0.000101258
0.000444323
-4.5587e-07
8.38971e-05
0.000459241
8.44461e-05
0.000457238
0.00174198
-0.00179982
0.00149859
-0.00277591
0.00111004
-0.00368548
0.000669545
-0.00427265
0.000287702
-0.00451655
4.13043e-05
-0.00442196
-0.000374035
-0.000634536
-0.000807958
-0.000624423
-0.00105421
-0.000223335
-0.000665492
0.000316477
2.11435e-05
0.000601868
-0.000545401
-0.00041829
-0.000809256
0.000173543
-0.000223488
0.001011
0.000767966
0.00143726
0.00126971
0.00120726
0.00151251
0.000973367
0.00155863
0.00051988
0.00160025
-4.38225e-05
-4.51126e-05
0.000309622
0.000421179
0.000420271
0.000436347
0.000436551
-7.34673e-07
-0.000109194
0.000460583
-3.05487e-07
2.21553e-05
-1.84317e-05
0.000443142
-0.00105076
0.0018939
-0.00010891
0.000458253
-7.32022e-07
-0.000102254
0.000466826
-0.000101567
0.000464561
2.30988e-05
-1.84838e-05
0.000439403
-1.24549e-07
0.000437698
0.000435099
0.00173637
-0.0020376
0.00137133
-0.0030372
0.000888662
-0.0039046
0.000410773
-0.00439572
2.95661e-05
-0.00450481
-0.00010599
-0.00431597
-0.000201124
-0.00087991
-0.00055247
-0.000511367
-0.000766173
0.000129529
-0.000478545
0.000688394
-6.53849e-05
7.42115e-05
-0.0010379
-0.000167844
-0.000467869
0.000491867
0.000295644
0.00114123
0.001064
0.00103119
0.00144578
0.000887047
0.00159883
0.000478463
0.00160005
0.000295915
0.000397331
0.00039764
0.000409555
0.000409429
2.13853e-07
-1.42787e-05
1.55853e-05
0.000419658
-1.4811e-05
1.66892e-05
0.000418607
-2.27274e-07
-7.05212e-06
0.000429348
-7.43793e-06
0.00042895
-3.09287e-07
-1.70069e-05
0.000459467
1.32075e-06
-2.58601e-05
3.70441e-05
0.000120899
9.27958e-05
0.000120358
9.65849e-05
-0.00123714
0.00192275
2.0617e-05
1.97226e-05
-0.000256718
0.000485468
0.00048625
0.000468244
0.000466496
-1.62821e-05
0.000455742
-4.72087e-07
0.000470908
0.00046753
-2.66715e-05
3.84092e-05
0.000120099
9.35226e-05
0.000119547
9.58176e-05
1.26588e-06
0.000120593
9.16479e-05
0.000117886
9.603e-05
0.000119938
9.32654e-05
0.000117436
9.57441e-05
0.00160784
-0.00227411
0.00110122
-0.00324976
0.00051875
-0.00401258
6.94329e-06
-0.0043731
-0.000234536
-0.00437627
-0.000258661
-0.00405731
-9.85339e-05
-0.000685039
-0.000378796
-0.000197239
-0.000439406
0.000411205
-0.000201356
0.000277984
-0.000269159
-0.000369664
-0.000836084
9.33999e-05
-6.94024e-05
0.000727859
0.000709011
0.000804284
0.0012909
0.000733863
0.00159897
0.000405628
0.00167166
0.000264493
0.000403153
0.000402873
0.000413251
0.000412195
-1.49212e-07
-1.25655e-05
0.000402994
-1.25981e-05
0.000402651
-1.08645e-07
-1.27447e-05
0.000409843
-1.2734e-05
0.000409457
3.0642e-07
-6.18921e-05
1.22188e-05
2.98608e-05
8.27682e-05
1.34719e-05
0.000108294
8.70552e-05
0.000112077
3.54607e-05
-6.19087e-05
1.18e-05
2.98262e-05
1.34157e-05
8.29677e-05
0.000108245
8.71289e-05
0.000111975
3.5464e-05
5.47661e-07
-5.17465e-05
9.25528e-05
0.000115904
9.29326e-05
0.000117205
-5.12592e-05
9.27849e-05
0.000115882
9.3018e-05
0.000117163
1.36106e-06
5.34077e-05
0.000126196
9.38323e-05
0.000121725
9.99885e-05
2.57601e-05
9.4475e-06
1.4915e-07
-2.53909e-05
0.000110933
-9.41419e-06
-2.67869e-05
2.8208e-05
0.000100789
1.72758e-07
2.67817e-05
0.000109749
-2.47894e-05
0.000104035
-0.00140181
0.00177251
-0.000299943
0.000495363
0.000495581
0.000487097
0.000487939
-2.72728e-07
-6.73821e-05
7.30508e-05
0.000480073
-6.59121e-05
7.23543e-05
0.000479535
3.32083e-07
-6.21039e-05
0.000462633
-6.14596e-05
0.000462375
5.44751e-05
0.000125449
9.48682e-05
0.000121147
9.95722e-05
1.02316e-06
0.000128325
0.000100756
0.00012822
0.000103888
0.000127687
0.000102758
0.000127636
0.000103488
2.56475e-05
9.33195e-06
-2.53123e-05
0.00011058
-9.09564e-06
-2.61056e-05
2.73949e-05
0.000101329
2.65912e-05
0.00010968
-2.45054e-05
0.000103549
-2.45124e-05
1.04396e-05
2.49671e-07
0.000109025
-1.52238e-05
2.05453e-05
9.85453e-05
3.30238e-07
0.000107678
0.000102225
-2.44557e-05
1.04881e-05
0.000108842
-1.52298e-05
2.02577e-05
0.000100038
0.000107907
0.000101985
0.00130435
-0.00247724
0.000643008
-0.00337401
-1.24825e-05
-0.00399315
-0.000397095
-0.00421054
-0.000553133
-0.00408179
-0.000403086
-0.00365422
-7.13153e-05
-0.000333009
-0.000243023
7.56509e-05
-0.000103848
9.95082e-05
-2.28758e-05
-0.00029443
-0.000344389
-0.000454511
-0.000288173
0.000298069
0.000360387
0.000531742
0.000981553
0.000520726
0.00150404
0.00029956
0.00170504
0.00017986
0.000433333
0.0004328
0.000445344
0.000444819
-8.68294e-08
-1.54019e-05
0.000405897
-1.50995e-05
0.000405152
-5.91504e-08
-1.52693e-05
0.000413178
-1.49746e-05
0.000412011
9.14958e-07
-5.00669e-05
8.91057e-05
0.000111531
8.8542e-05
0.000111176
-4.97035e-05
8.95918e-05
0.000111562
8.96407e-05
0.000111203
1.1831e-06
-4.68751e-05
9.07639e-05
0.000112535
8.9772e-05
0.000112406
-4.68365e-05
9.19283e-05
0.000112518
9.10013e-05
0.000112351
-4.65612e-06
-2.69134e-05
2.19633e-05
9.23743e-05
-7.03387e-06
2.56227e-05
9.34284e-05
-2.80512e-05
-2.95689e-08
0.000104898
2.68621e-05
-6.34457e-06
-2.87302e-05
9.52166e-05
5.923e-09
-2.82288e-05
0.000105924
9.36929e-09
3.37248e-05
0.000102348
-7.01537e-06
2.56769e-05
9.47918e-05
-4.49666e-06
-2.67334e-05
2.15103e-05
9.26875e-05
-2.79889e-05
2.67722e-05
0.000104935
-6.27105e-06
-2.85306e-05
9.51971e-05
-2.81573e-05
0.000105878
3.36904e-05
0.000102674
-7.37305e-06
2.90714e-05
-2.7746e-05
9.86005e-05
2.82803e-05
2.55538e-08
-2.76646e-05
0.000107888
-7.06868e-06
0.000100342
2.90662e-08
0.000110199
-7.35817e-06
2.88475e-05
-2.75761e-05
9.88718e-05
2.81833e-05
-2.75243e-05
0.000107891
-7.04885e-06
0.000100384
0.000110169
-2.83819e-05
9.31253e-06
2.70908e-07
3.06907e-05
0.000114304
-9.24665e-06
2.97606e-05
0.000101526
2.96507e-07
0.000110582
3.19572e-05
0.000107104
3.4502e-05
2.64229e-06
-2.04695e-08
-3.47811e-05
0.00010859
-2.19481e-06
-3.42713e-05
3.56018e-05
0.000101653
-5.26681e-08
3.5626e-05
0.000106461
-3.22819e-05
0.000104687
-0.00152933
0.00143187
-0.000336648
0.000453912
0.000453367
0.000450916
0.000451015
-1.82379e-07
-7.41548e-05
8.00555e-05
0.000489645
-7.40473e-05
8.00729e-05
0.000489373
-2.19594e-07
0.000486212
0.000486026
7.77968e-07
-0.000132599
0.000157141
9.89262e-05
0.000126118
0.000101512
0.000128152
-0.000132391
0.00015759
9.93062e-05
0.000126017
0.000101748
0.000128044
6.82267e-07
-4.2045e-05
-2.21442e-05
0.000105641
-5.09591e-05
0.000132841
0.000101251
0.000129824
-2.50751e-05
-4.19189e-05
-2.21746e-05
0.000106283
-5.08986e-05
0.000132968
0.000101676
0.000129856
-2.51251e-05
-2.82428e-05
9.41588e-06
3.05253e-05
0.000114021
-9.22606e-06
2.9239e-05
0.00010225
0.000110566
3.14724e-05
0.000106755
2.98929e-05
1.03876e-05
1.91233e-07
0.000118544
-1.67888e-05
-3.39367e-05
0.000109436
2.36759e-07
0.000118922
0.000112296
2.98206e-05
1.03305e-05
0.000118252
-1.63455e-05
-3.34779e-05
0.000110662
0.000119173
0.000111813
3.44896e-05
2.45111e-06
-3.47021e-05
0.000108321
-1.98164e-06
-3.42877e-05
3.58338e-05
0.000101765
3.56458e-05
0.00010649
-3.20115e-05
0.000103724
3.68054e-06
3.60945e-08
0.000104278
9.92469e-05
3.60215e-06
0.000104265
9.92521e-05
0.000760086
-0.00259432
-4.21922e-05
-0.0033443
-0.000590459
-0.00379979
-0.000870272
-0.0038934
-0.000842836
-0.00364204
-0.000549969
-0.00310425
-4.41121e-05
-7.27772e-05
-9.45962e-05
4.86675e-06
-9.20435e-06
-0.000141569
-0.00017573
-0.000568772
-0.000230123
-0.000224496
0.000234392
0.000245333
0.000646796
0.000277871
0.00122441
0.000167041
0.00163656
3.03905e-05
0.000460946
0.000460501
0.000466589
0.00046647
3.79564e-09
-1.86526e-05
0.000436712
-1.83784e-05
0.000436208
-9.3867e-08
-2.62795e-05
0.000453065
-2.60655e-05
0.000452412
1.10579e-06
-4.57636e-05
8.98233e-05
0.000111262
9.09657e-05
0.000111674
-4.62257e-05
9.09765e-05
0.000111208
9.19367e-05
0.000111516
9.81601e-07
-4.91903e-05
9.60085e-05
0.000113796
9.33649e-05
0.000112417
-5.05908e-05
9.70169e-05
0.000113701
9.4276e-05
0.000112332
-7.09919e-06
-2.79517e-05
9.64105e-05
-2.82112e-05
1.3147e-08
0.000104985
-7.49134e-06
-2.66138e-05
9.47019e-05
-5.43071e-08
-2.70512e-05
0.000102624
-7.04048e-06
-2.79069e-05
9.6963e-05
-2.8085e-05
0.000105095
-7.13497e-06
-2.67334e-05
9.56021e-05
-2.69774e-05
0.000102893
-7.47072e-06
2.59074e-05
-2.4131e-05
9.64528e-05
2.62881e-05
-1.30812e-08
-2.49674e-05
0.000103783
-7.56406e-06
9.66232e-05
-4.02974e-08
0.000104095
-7.1352e-06
2.60393e-05
-2.44607e-05
9.74849e-05
2.6287e-05
-2.49775e-05
0.000104071
-7.23972e-06
9.75469e-05
0.000104394
-2.07483e-06
2.37162e-05
-6.8529e-07
-2.71873e-05
-2.89946e-05
-1.28412e-08
-7.49054e-08
2.73558e-05
-1.13671e-06
-1.88416e-05
-1.65579e-08
-1.88076e-05
-1.94486e-06
2.3975e-05
-6.60361e-07
-2.71674e-05
2.74164e-05
-2.89736e-05
-1.11187e-06
-1.8858e-05
-1.88128e-05
-1.49336e-06
1.84523e-05
-1.78043e-05
1.83018e-05
-2.38832e-08
-1.73298e-05
-1.44926e-06
-2.14851e-08
-1.44433e-06
1.84713e-05
-1.79392e-05
1.82984e-05
-1.73708e-05
-1.41636e-06
-3.79533e-05
2.48994e-06
-3.60504e-08
3.88189e-05
0.000111002
-2.20072e-06
3.82958e-05
0.000101033
-4.66281e-08
0.000106121
4.10498e-05
0.00010684
2.28826e-05
1.31384e-06
3.57898e-08
-2.56259e-05
-1.24637e-06
-2.28932e-05
2.27049e-05
-2.82172e-08
2.26738e-05
-2.4509e-05
-0.00163539
0.000866147
-0.000406852
0.000372417
0.000372193
0.000378813
0.000378648
-1.5835e-07
-7.69906e-05
9.00097e-05
0.000441051
-7.75427e-05
9.10249e-05
0.000439726
-3.91997e-08
0.00045402
0.000453506
1.4873e-06
-0.000183628
0.000186513
0.000109895
0.000136736
0.000106273
0.000132336
-0.000184295
0.000187062
0.000111338
0.000136683
0.000107766
0.000132333
1.10242e-06
9.97555e-05
0.000125133
0.000103728
0.000129964
0.000100311
0.000125133
0.000105058
0.000129909
-8.29136e-06
-4.88282e-05
5.3495e-05
0.000102551
-4.73802e-05
-1.85849e-08
5.33582e-05
0.000111932
-7.92741e-06
-4.38026e-05
0.000104414
-2.76078e-08
-4.22108e-05
0.000115083
-8.13447e-06
-4.862e-05
5.30755e-05
0.000102985
-4.73109e-05
5.32146e-05
0.00011196
-7.78589e-06
-4.36587e-05
0.000104572
-4.21883e-05
0.000115108
-6.65164e-06
4.21384e-05
-5.40359e-05
0.00012419
-9.37736e-06
-4.56315e-05
0.000113486
3.84597e-05
-7.61515e-08
0.000134295
-4.6443e-05
-7.67722e-06
0.000107264
-4.83259e-08
0.000118444
-2.53494e-08
-3.74031e-05
0.000121875
-6.3955e-06
4.20816e-05
-5.44265e-05
0.000125024
-9.27744e-06
-4.54989e-05
0.00011454
3.84558e-05
0.000134521
-4.64807e-05
-7.52e-06
0.000107619
0.000118555
-3.73731e-05
0.000122119
-3.79736e-05
2.2616e-06
3.88211e-05