/*--------------------------------*- C++ -*----------------------------------*\
| =========                 |                                                 |
| \\      /  F ield         | OpenFOAM: The Open Source CFD Toolbox           |
|  \\    /   O peration     | Version:  5.x                                   |
|   \\  /    A nd           | Web:      www.OpenFOAM.org                      |
|    \\/     M anipulation  |                                                 |
\*---------------------------------------------------------------------------*/
FoamFile
{
    version     2.0;
    format      ascii;
    class       volScalarField;
    location    "2.5";
    object      rAU;
}
// * * * * * * * * * * * * * * * * * * * * * * * * * * * * * * * * * * * * * //

dimensions      [-1 3 1 0 0 0 0];

internalField   nonuniform List<scalar> 
12160
(
1.02213e-06
1.02212e-06
1.02213e-06
1.02213e-06
1.0221e-06
1.02212e-06
1.02238e-06
1.02209e-06
1.02209e-06
1.02212e-06
1.02263e-06
1.02233e-06
1.02205e-06
1.02207e-06
1.02211e-06
1.02263e-06
1.02255e-06
1.02227e-06
1.02202e-06
1.02205e-06
1.0221e-06
1.02267e-06
1.02254e-06
1.02247e-06
1.02221e-06
1.02199e-06
1.02204e-06
1.02208e-06
1.02267e-06
1.02261e-06
1.02259e-06
1.02239e-06
1.02216e-06
1.02197e-06
1.02201e-06
1.02208e-06
1.02267e-06
1.02263e-06
1.02261e-06
1.02252e-06
1.02231e-06
1.02212e-06
1.02193e-06
1.02932e-06
2.07967e-06
1.02267e-06
1.02264e-06
1.02263e-06
1.02257e-06
1.02252e-06
1.02224e-06
1.02206e-06
1.02754e-06
1.79172e-06
4.22413e-05
1.02267e-06
1.02264e-06
1.02264e-06
1.02261e-06
1.02257e-06
1.02244e-06
1.02218e-06
1.025e-06
1.68853e-06
3.20273e-05
0.000533062
1.02267e-06
1.02264e-06
1.02265e-06
1.02263e-06
1.02261e-06
1.0226e-06
1.02229e-06
1.02496e-06
1.56083e-06
2.8406e-05
0.000610078
0.00101103
1.02267e-06
1.02263e-06
1.02264e-06
1.02263e-06
1.02263e-06
1.02267e-06
1.0226e-06
1.02549e-06
1.46104e-06
1.93196e-05
0.000768727
0.00101662
0.00102189
1.02255e-06
1.02263e-06
1.02263e-06
1.02262e-06
1.02263e-06
1.02267e-06
1.02268e-06
1.02582e-06
1.37562e-06
1.35462e-05
0.000977865
0.00101995
0.00102202
0.00102209
1.02236e-06
1.02261e-06
1.02263e-06
1.0226e-06
1.02262e-06
1.02267e-06
1.02268e-06
1.02591e-06
1.30188e-06
9.66379e-06
0.000943
0.00102185
0.00102071
0.00102238
0.00102186
1.02247e-06
1.02263e-06
1.02259e-06
1.0226e-06
1.0226e-06
1.02267e-06
1.02268e-06
1.02569e-06
1.23907e-06
7.27129e-06
0.00062906
0.00102175
0.00102147
0.00102078
0.00102202
1.02265e-06
1.02265e-06
1.02264e-06
1.02257e-06
1.0226e-06
1.02267e-06
1.02268e-06
1.02533e-06
1.19002e-06
5.76174e-06
0.000317087
0.00102148
0.00102171
0.00102136
0.00102096
1.02266e-06
1.02265e-06
1.02265e-06
1.02263e-06
1.02261e-06
1.02267e-06
1.02267e-06
1.02487e-06
1.15186e-06
4.67163e-06
0.000185091
0.00102014
0.00102174
0.00102167
0.00102156
1.02267e-06
1.02266e-06
1.02264e-06
1.02266e-06
1.02264e-06
1.02267e-06
1.02267e-06
1.02437e-06
1.12113e-06
3.8319e-06
0.000113626
0.00101501
0.00102229
0.0010217
0.00102169
1.02267e-06
1.02267e-06
1.02264e-06
1.02264e-06
1.02267e-06
1.02267e-06
1.02267e-06
1.02383e-06
1.09659e-06
3.16752e-06
7.26512e-05
0.00100844
0.00102234
0.0010219
0.00102169
1.02267e-06
1.02267e-06
1.02267e-06
1.02264e-06
1.02267e-06
1.02267e-06
1.02267e-06
1.02325e-06
1.07841e-06
2.64729e-06
4.66656e-05
0.00100595
0.00102229
0.00102198
0.00102189
1.02267e-06
1.02267e-06
1.02267e-06
1.02267e-06
1.02263e-06
1.02267e-06
1.02266e-06
1.02275e-06
1.06645e-06
2.26304e-06
3.03891e-05
0.00097954
0.0010223
0.00102213
0.00102199
1.02267e-06
1.02267e-06
1.02267e-06
1.02267e-06
1.02267e-06
1.02263e-06
1.02259e-06
1.02266e-06
1.05962e-06
2.01329e-06
2.05473e-05
0.000811287
0.00102229
0.00102222
0.0010221
1.02268e-06
1.02268e-06
1.02267e-06
1.02267e-06
1.02267e-06
1.02267e-06
1.02248e-06
1.02259e-06
1.05825e-06
1.8809e-06
1.51241e-05
0.000550522
0.00102195
0.00102222
0.00102218
1.02268e-06
1.02268e-06
1.02268e-06
1.02267e-06
1.02267e-06
1.02267e-06
1.02235e-06
1.02255e-06
1.0619e-06
1.84752e-06
1.25709e-05
0.000361358
0.00102013
0.00102233
0.00102222
1.02268e-06
1.02268e-06
1.02268e-06
1.02268e-06
1.02267e-06
1.02267e-06
1.02219e-06
1.02289e-06
1.07163e-06
1.91255e-06
1.18235e-05
0.000269569
0.00101456
0.00102252
0.00102237
1.02268e-06
1.02268e-06
1.02268e-06
1.02268e-06
1.02268e-06
1.02267e-06
1.02265e-06
1.02406e-06
1.09377e-06
2.07952e-06
1.25979e-05
0.00023927
0.00100549
0.00102259
0.00102255
1.02269e-06
1.02269e-06
1.02268e-06
1.02268e-06
1.02268e-06
1.02267e-06
1.02269e-06
1.02629e-06
1.12764e-06
2.33002e-06
1.52583e-05
0.000250009
0.000999396
0.00102242
0.00102261
1.02269e-06
1.02269e-06
1.02269e-06
1.02268e-06
1.02268e-06
1.02268e-06
1.02271e-06
1.0283e-06
1.16329e-06
2.66855e-06
2.12716e-05
0.00030018
0.000999146
0.00102239
0.00102261
1.02269e-06
1.02269e-06
1.02269e-06
1.02269e-06
1.02268e-06
1.02268e-06
1.02274e-06
1.03047e-06
1.20096e-06
3.14877e-06
3.22883e-05
0.000382328
0.00100221
0.00102239
0.00102263
1.02269e-06
1.02269e-06
1.02269e-06
1.02269e-06
1.02269e-06
1.02268e-06
1.02276e-06
1.03271e-06
1.24073e-06
3.77045e-06
4.80808e-05
0.000463259
0.00100845
0.00102249
0.00102253
1.02269e-06
1.02269e-06
1.02269e-06
1.02269e-06
1.02269e-06
1.02269e-06
1.02278e-06
1.03455e-06
1.28202e-06
4.53415e-06
6.8379e-05
0.00054676
0.00101264
0.00102216
0.00102216
1.02236e-06
1.02269e-06
1.02269e-06
1.02269e-06
1.02269e-06
1.02269e-06
1.02279e-06
1.03586e-06
1.3201e-06
5.44631e-06
9.21335e-05
0.00062335
0.00101321
0.0010218
0.00102034
1.02172e-06
1.02268e-06
1.02269e-06
1.02269e-06
1.02269e-06
1.02269e-06
1.0228e-06
1.03701e-06
1.35319e-06
6.36322e-06
0.000115727
0.000698153
0.00101194
0.00102151
0.00101813
1.02187e-06
1.02266e-06
1.02269e-06
1.02269e-06
1.02269e-06
1.02269e-06
1.02264e-06
1.03764e-06
1.37937e-06
7.20548e-06
0.000135983
0.000759194
0.00101167
0.00102099
0.00101651
1.02253e-06
1.02264e-06
1.02266e-06
1.02269e-06
1.02267e-06
1.02265e-06
1.0223e-06
1.03732e-06
1.39476e-06
7.91561e-06
0.000152397
0.000791486
0.00101463
0.00102062
0.00101561
1.02269e-06
1.02267e-06
1.02266e-06
1.02267e-06
1.0227e-06
1.02248e-06
1.02237e-06
1.0363e-06
1.39776e-06
8.42016e-06
0.000165612
0.000816462
0.00101442
0.00102036
0.0010151
1.02269e-06
1.02268e-06
1.02267e-06
1.02266e-06
1.02268e-06
1.02263e-06
1.02234e-06
1.03566e-06
1.39154e-06
8.68802e-06
0.000175956
0.00084247
0.00101689
0.00102036
0.00101475
1.02269e-06
1.02269e-06
1.02268e-06
1.02266e-06
1.02266e-06
1.0227e-06
1.02259e-06
1.0355e-06
1.38475e-06
8.78062e-06
0.000184282
0.000869111
0.00101835
0.00102102
0.00101451
1.02227e-06
1.02269e-06
1.02269e-06
1.02266e-06
1.02266e-06
1.0227e-06
1.02267e-06
1.03561e-06
1.38771e-06
8.84771e-06
0.00019089
0.0009019
0.00101959
0.00102061
0.00101435
1.02227e-06
1.0225e-06
1.02269e-06
1.02267e-06
1.02266e-06
1.02269e-06
1.02253e-06
1.03561e-06
1.40257e-06
9.00572e-06
0.000195882
0.000948343
0.00102001
0.00102109
0.00101453
1.02226e-06
1.0225e-06
1.02262e-06
1.02266e-06
1.02267e-06
1.02268e-06
1.02242e-06
1.03627e-06
1.425e-06
9.06566e-06
0.000201312
0.000985834
0.00102046
0.00102107
0.00101559
1.02222e-06
1.0225e-06
1.02261e-06
1.02263e-06
1.02266e-06
1.02264e-06
1.0226e-06
1.03738e-06
1.44372e-06
8.71117e-06
0.000194677
0.00100014
0.0010205
0.00102161
0.00101718
1.02222e-06
1.02245e-06
1.02269e-06
1.0226e-06
1.02237e-06
1.02257e-06
1.02273e-06
1.03859e-06
1.45311e-06
8.22656e-06
0.000174206
0.00100074
0.00102042
0.00102152
0.00101918
1.02207e-06
1.02245e-06
1.02263e-06
1.02267e-06
1.02236e-06
1.02234e-06
1.02278e-06
1.0395e-06
1.45754e-06
7.77153e-06
0.000153016
0.000978244
0.00102153
0.00102197
0.00101978
1.02232e-06
1.02228e-06
1.02263e-06
1.02262e-06
1.02258e-06
1.02238e-06
1.02234e-06
1.04034e-06
1.46156e-06
7.48957e-06
0.000139656
0.000958126
0.00102255
0.00102238
0.00102089
1.0406e-06
1.02258e-06
1.02249e-06
1.02262e-06
1.02262e-06
1.02254e-06
1.02232e-06
1.02236e-06
1.46691e-06
7.37066e-06
0.000134981
0.000948433
0.00102203
0.00102239
0.00102202
1.47465e-06
1.04156e-06
1.02308e-06
1.02251e-06
1.02262e-06
1.02267e-06
1.02245e-06
1.0223e-06
1.02184e-06
7.34961e-06
0.000135556
0.000949187
0.0010215
0.00102198
0.00102226
7.39535e-06
1.49529e-06
1.04422e-06
1.02344e-06
1.02257e-06
1.02268e-06
1.02264e-06
1.02251e-06
1.02181e-06
1.02034e-06
0.000138759
0.000956287
0.00102118
0.00102099
0.00102193
0.000142058
7.59113e-06
1.53638e-06
1.04819e-06
1.0242e-06
1.02266e-06
1.02268e-06
1.02267e-06
1.02176e-06
1.02032e-06
1.01994e-06
0.000964383
0.00102111
0.00102028
0.00102104
0.000969206
0.000147074
7.94492e-06
1.59077e-06
1.05425e-06
1.02548e-06
1.0231e-06
1.02274e-06
1.02193e-06
1.02171e-06
1.01964e-06
1.02007e-06
0.00102107
0.00101993
0.00102035
0.00102113
0.000972828
0.000145714
8.35169e-06
1.64487e-06
1.06186e-06
1.03197e-06
1.02485e-06
1.02263e-06
1.02189e-06
1.02136e-06
1.02054e-06
1.02088e-06
1.02163e-06
0.00101991
0.00101995
0.0010202
0.0010213
0.000957171
0.000130619
8.55335e-06
1.70736e-06
1.0764e-06
1.04828e-06
1.02424e-06
1.02199e-06
1.02129e-06
1.02022e-06
1.01691e-06
1.01989e-06
1.02171e-06
1.02237e-06
0.00101985
0.00101995
0.00102075
0.0010221
0.000767689
0.000102309
9.04096e-06
1.79021e-06
1.12486e-06
1.05437e-06
1.02182e-06
1.02131e-06
1.02023e-06
1.02004e-06
1.01422e-06
1.0208e-06
1.02163e-06
1.02167e-06
1.02236e-06
0.0010198
0.00102228
0.00098254
0.000405816
9.57328e-05
1.01204e-05
1.88798e-06
1.23757e-06
1.0318e-06
1.0221e-06
1.02145e-06
1.02006e-06
1.01859e-06
1.01906e-06
1.02168e-06
1.02173e-06
1.0216e-06
1.02163e-06
1.02094e-06
0.00101881
0.00101786
0.000703106
0.000330229
0.000105885
1.08303e-05
2.08111e-06
1.24463e-06
1.02058e-06
1.02193e-06
1.02186e-06
1.01871e-06
1.01872e-06
1.02168e-06
1.02169e-06
1.02192e-06
1.0217e-06
1.02154e-06
1.02158e-06
1.01725e-06
0.0010166
0.000932338
0.000561337
0.000411202
0.000120169
9.3125e-06
3.27467e-06
1.13221e-06
1.02141e-06
1.02186e-06
1.02101e-06
1.01885e-06
1.02175e-06
1.01658e-06
1.01678e-06
1.02205e-06
1.02204e-06
1.02159e-06
1.0215e-06
1.02154e-06
1.00346e-06
0.00101056
0.00083265
0.000693172
0.000740274
0.000127403
1.68189e-05
4.20271e-06
1.04811e-06
1.02178e-06
1.02179e-06
1.02035e-06
1.02182e-06
1.01664e-06
1.01797e-06
1.00268e-06
1.02117e-06
1.00268e-06
1.00226e-06
1.00225e-06
1.02301e-06
1.02178e-06
1.02153e-06
1.02146e-06
1.02123e-06
1.00702e-06
0.000998266
0.000891438
0.000940025
0.000906536
0.000167399
6.81718e-05
1.96347e-06
1.0213e-06
1.02179e-06
1.02075e-06
1.02113e-06
1.01679e-06
1.01915e-06
1.02222e-06
1.00309e-06
1.00182e-06
1.02396e-06
1.00377e-06
1.00355e-06
1.0043e-06
1.00184e-06
1.0017e-06
1.00165e-06
1.02317e-06
1.02158e-06
1.02151e-06
1.02049e-06
1.0213e-06
1.0223e-06
0.00100004
0.000987157
0.000999677
0.000936886
0.000572254
0.000163205
1.22017e-06
1.02143e-06
1.02116e-06
1.02074e-06
1.01587e-06
1.01766e-06
1.02224e-06
1.00815e-06
1.00776e-06
1.00812e-06
1.0081e-06
1.00113e-06
1.00824e-06
1.0244e-06
1.02534e-06
1.00123e-06
1.00126e-06
1.00129e-06
1.00807e-06
1.00847e-06
1.00859e-06
1.0217e-06
1.02156e-06
1.02092e-06
1.02128e-06
1.0214e-06
1.02228e-06
0.0010053
0.00101009
0.00101341
0.00099668
0.000902853
3.05479e-05
1.05114e-06
1.02146e-06
1.02115e-06
1.0198e-06
1.01833e-06
1.02215e-06
1.00563e-06
1.00563e-06
1.00688e-06
1.00689e-06
1.00945e-06
1.00943e-06
1.00568e-06
1.00571e-06
1.00777e-06
9.11754e-07
9.46358e-07
9.17458e-07
9.62818e-07
1.02251e-06
1.02647e-06
1.00556e-06
1.0057e-06
1.00424e-06
1.00433e-06
1.00774e-06
1.00564e-06
1.00582e-06
9.13219e-07
9.5268e-07
9.17663e-07
9.63745e-07
9.16892e-07
9.52535e-07
9.24897e-07
9.63837e-07
9.1705e-07
9.65014e-07
9.24795e-07
9.64214e-07
1.0216e-06
1.02207e-06
1.02225e-06
1.02164e-06
1.02137e-06
1.02225e-06
0.00100996
0.00101645
0.00101671
0.00101599
0.000985279
7.9693e-06
1.0259e-06
1.02144e-06
1.02064e-06
1.01986e-06
1.02274e-06
1.00584e-06
1.00589e-06
1.00535e-06
1.00549e-06
1.00627e-06
1.00631e-06
1.00628e-06
1.00633e-06
9.35364e-07
9.3894e-07
9.39426e-07
9.64843e-07
9.06364e-07
9.24375e-07
9.53441e-07
9.35587e-07
9.37848e-07
9.65804e-07
9.0621e-07
9.24236e-07
9.57543e-07
9.19137e-07
9.46504e-07
9.28237e-07
9.59807e-07
9.19845e-07
9.48656e-07
9.28283e-07
9.23388e-07
9.4876e-07
9.18539e-07
9.62362e-07
9.22426e-07
9.49477e-07
9.21553e-07
9.65629e-07
1.02175e-06
1.02746e-06
1.00278e-06
1.00288e-06
1.0049e-06
1.005e-06
1.00674e-06
1.00559e-06
1.00599e-06
1.00512e-06
9.24407e-07
9.5845e-07
9.19481e-07
9.64749e-07
9.08854e-07
9.52621e-07
8.93886e-07
9.5679e-07
9.09888e-07
9.5293e-07
8.9277e-07
9.57094e-07
9.22169e-07
9.6304e-07
9.22925e-07
9.70693e-07
9.26264e-07
9.63797e-07
9.24725e-07
9.63378e-07
1.02204e-06
1.02433e-06
1.02384e-06
1.02192e-06
1.02138e-06
1.02221e-06
0.00101536
0.00101848
0.00101869
0.00101848
0.000935403
3.61242e-06
1.02751e-06
1.02124e-06
1.02112e-06
1.02456e-06
1.00439e-06
1.0046e-06
1.00577e-06
1.00578e-06
1.00813e-06
1.00817e-06
1.00947e-06
1.0095e-06
9.62247e-07
9.13373e-07
9.76463e-07
9.13433e-07
9.63861e-07
9.14816e-07
9.76543e-07
9.13599e-07
9.63979e-07
9.20803e-07
9.68438e-07
9.22776e-07
9.64165e-07
9.21439e-07
9.67835e-07
9.22173e-07
9.54172e-07
7.28731e-07
8.53348e-07
9.36791e-07
9.52309e-07
8.69358e-07
9.58e-07
7.29256e-07
9.38319e-07
8.47147e-07
9.54275e-07
8.68805e-07
9.45887e-07
9.11739e-07
9.14002e-07
9.15766e-07
9.47268e-07
9.12358e-07
9.17669e-07
9.15777e-07
9.28026e-07
9.5227e-07
9.22888e-07
9.65507e-07
9.41646e-07
9.73927e-07
9.35322e-07
9.77004e-07
1.02174e-06
1.0247e-06
1.00662e-06
1.00667e-06
1.00683e-06
1.00688e-06
1.00295e-06
1.00311e-06
1.00728e-06
1.00681e-06
9.56603e-07
9.19099e-07
9.35991e-07
9.20486e-07
9.58432e-07
9.19345e-07
9.38425e-07
9.20535e-07
9.8373e-07
9.49562e-07
9.26701e-07
9.65601e-07
9.19463e-07
8.8405e-07
9.79369e-07
9.49462e-07
9.26746e-07
9.66077e-07
9.19428e-07
8.83256e-07
9.28779e-07
9.65283e-07
9.24864e-07
9.68113e-07
9.11967e-07
9.57746e-07
9.14058e-07
9.57952e-07
9.41764e-07
9.672e-07
9.32938e-07
9.76968e-07
9.38648e-07
9.22139e-07
9.4058e-07
9.21298e-07
1.02377e-06
1.02564e-06
1.02496e-06
1.02202e-06
1.0216e-06
1.02218e-06
0.00101938
0.00101952
0.0010196
0.00101636
0.000856846
3.82342e-06
1.04355e-06
1.02111e-06
1.0215e-06
1.00459e-06
1.00465e-06
1.00703e-06
1.00703e-06
1.00323e-06
1.00323e-06
1.00104e-06
1.00106e-06
9.6828e-07
9.15261e-07
9.68296e-07
9.22844e-07
9.69093e-07
9.15847e-07
9.69854e-07
9.22779e-07
9.63094e-07
9.1047e-07
9.55934e-07
9.21052e-07
9.66963e-07
9.10221e-07
9.60049e-07
9.20774e-07
9.47738e-07
9.07977e-07
9.61077e-07
9.09249e-07
9.47958e-07
9.0985e-07
9.60834e-07
9.10814e-07
9.70971e-07
9.24651e-07
9.66691e-07
9.30454e-07
9.70746e-07
9.2596e-07
9.66572e-07
9.31605e-07
9.25982e-07
9.76124e-07
9.37421e-07
9.61529e-07
1.02199e-06
1.02347e-06
1.00685e-06
1.00685e-06
1.00644e-06
1.00652e-06
1.00678e-06
1.00658e-06
1.00578e-06
1.00582e-06
9.59222e-07
9.11264e-07
9.64067e-07
9.09584e-07
9.58841e-07
9.09898e-07
9.61636e-07
9.07761e-07
9.63996e-07
9.13646e-07
9.66114e-07
9.04315e-07
9.65084e-07
9.13346e-07
9.63476e-07
9.03283e-07
9.47751e-07
9.10166e-07
9.11101e-07
8.99427e-07
9.4865e-07
9.10524e-07
9.14401e-07
8.99321e-07
9.22419e-07
9.02979e-07
8.57832e-07
9.0442e-07
9.70223e-07
8.88268e-07
9.18721e-07
9.07564e-07
8.58083e-07
9.03987e-07
9.6899e-07
8.88028e-07
9.26578e-07
9.71607e-07
9.35492e-07
9.6361e-07
9.25982e-07
9.79005e-07
9.26817e-07
9.80614e-07
1.02552e-06
1.02558e-06
1.02406e-06
1.02241e-06
1.02206e-06
1.02215e-06
0.00101993
0.00102001
0.0010183
0.00101273
0.00086453
7.74859e-06
1.21364e-06
1.04414e-06
1.02401e-06
9.97052e-07
9.97077e-07
9.98617e-07
9.98523e-07
1.00747e-06
1.00779e-06
1.00486e-06
1.00521e-06
9.72387e-07
9.21506e-07
9.6996e-07
9.34846e-07
9.72026e-07
9.22209e-07
9.701e-07
9.34772e-07
9.43727e-07
9.04695e-07
9.46569e-07
9.20479e-07
9.47299e-07
9.04615e-07
9.49189e-07
9.20381e-07
9.29318e-07
8.99152e-07
9.29211e-07
8.99163e-07
1.02203e-06
1.02184e-06
1.00491e-06
1.00487e-06
1.00547e-06
1.00542e-06
1.00407e-06
1.00435e-06
1.00245e-06
1.0022e-06
9.38237e-07
8.87151e-07
9.34519e-07
9.02823e-07
9.38481e-07
8.86646e-07
9.41191e-07
9.02821e-07
9.59882e-07
9.13758e-07
9.59412e-07
9.19168e-07
9.59522e-07
9.12745e-07
9.60391e-07
9.19211e-07
9.60908e-07
9.01401e-07
9.61111e-07
8.90273e-07
9.51352e-07
9.00271e-07
9.5053e-07
8.89153e-07
9.66512e-07
9.08097e-07
9.74248e-07
9.11784e-07
9.66678e-07
9.08053e-07
9.74036e-07
9.1167e-07
1.0241e-06
1.02464e-06
1.02259e-06
1.02383e-06
1.02244e-06
1.0221e-06
0.00102015
0.00102039
0.0010177
0.00101718
0.000929805
2.69734e-05
1.91286e-06
1.12393e-06
9.94182e-07
9.94369e-07
1.0162e-06
1.01634e-06
1.00438e-06
1.00393e-06
9.96929e-07
9.9642e-07
9.11185e-07
9.62306e-07
9.29981e-07
9.56533e-07
9.10966e-07
9.65288e-07
9.30466e-07
9.60665e-07
9.03153e-07
9.5569e-07
9.12394e-07
9.45416e-07
9.03091e-07
9.66662e-07
9.12339e-07
9.58797e-07
9.74087e-07
9.38903e-07
9.69685e-07
9.40815e-07
9.74018e-07
9.38968e-07
9.6962e-07
9.40869e-07
9.58609e-07
9.32121e-07
9.65371e-07
9.44707e-07
9.58654e-07
9.32381e-07
9.65386e-07
9.44722e-07
1.02178e-06
1.02179e-06
1.01837e-06
9.99395e-07
9.99408e-07
1.00575e-06
1.00607e-06
1.0081e-06
1.00881e-06
1.00376e-06
1.0037e-06
9.33988e-07
8.79516e-07
9.53712e-07
9.06084e-07
9.34527e-07
8.79694e-07
9.60758e-07
9.06055e-07
9.55545e-07
9.14398e-07
9.67159e-07
9.24345e-07
9.54048e-07
9.13251e-07
9.66953e-07
9.23652e-07
9.17878e-07
8.98251e-07
9.17943e-07
8.97483e-07
1.02189e-06
1.02185e-06
1.02337e-06
1.02497e-06
1.02261e-06
1.02225e-06
0.00102192
0.00102123
0.00101831
0.00101904
0.000984859
0.000144378
4.57835e-06
1.45276e-06
1.00637e-06
1.00666e-06
1.03131e-06
1.03164e-06
9.64869e-07
9.09673e-07
9.11656e-07
9.67412e-07
9.57888e-07
9.09638e-07
9.11797e-07
9.60659e-07
1.00365e-06
1.00396e-06
9.15089e-07
9.47082e-07
8.96978e-07
9.6995e-07
9.18183e-07
9.50414e-07
8.96556e-07
9.79006e-07
9.24872e-07
9.69347e-07
9.21781e-07
9.73556e-07
9.32083e-07
9.69244e-07
9.25631e-07
9.78359e-07
9.1533e-07
8.36281e-07
9.07443e-07
8.37252e-07
1.02154e-06
1.02162e-06
1.02176e-06
1.00396e-06
1.00385e-06
1.0023e-06
1.00244e-06
1.00462e-06
1.00502e-06
1.00746e-06
1.00804e-06
9.28502e-07
9.7132e-07
9.23382e-07
9.62464e-07
9.27752e-07
9.71651e-07
9.23762e-07
9.63553e-07
9.2484e-07
9.69114e-07
9.03758e-07
9.74087e-07
9.24345e-07
9.67618e-07
9.03863e-07
9.73959e-07
9.67147e-07
8.95932e-07
9.6555e-07
9.02122e-07
9.65989e-07
8.95894e-07
9.66324e-07
9.01461e-07
9.48735e-07
9.15694e-07
9.70256e-07
9.29972e-07
9.48125e-07
9.1491e-07
9.70197e-07
9.29263e-07
1.02152e-06
1.02148e-06
1.02516e-06
1.02283e-06
1.02293e-06
0.00102148
0.00102069
0.00101794
0.000999559
0.000718189
0.000103622
1.5098e-05
1.62336e-06
1.62338e-06
2.81243e-06
2.81527e-06
9.50675e-07
8.95338e-07
9.8107e-07
9.07955e-07
9.53916e-07
8.9524e-07
9.82955e-07
9.07921e-07
1.06852e-06
1.06817e-06
9.5138e-07
9.09291e-07
9.07221e-07
9.4794e-07
9.51263e-07
9.09219e-07
9.07239e-07
9.47396e-07
9.43974e-07
8.66796e-07
9.62725e-07
9.21304e-07
9.47581e-07
8.65264e-07
9.56153e-07
9.20056e-07
8.29329e-07
9.3483e-07
8.98385e-07
8.58698e-07
8.75194e-07
9.63429e-07
9.25067e-07
9.07393e-07
1.02136e-06
1.0215e-06
1.02168e-06
1.01204e-06
9.96057e-07
9.966e-07
1.00757e-06
1.008e-06
9.95516e-07
9.95935e-07
9.45508e-07
8.9805e-07
8.8638e-07
9.59066e-07
9.48808e-07
8.98467e-07
8.86334e-07
9.59036e-07
9.3822e-07
9.70009e-07
9.34493e-07
9.73722e-07
9.38071e-07
9.72228e-07
9.34462e-07
9.75521e-07
9.16854e-07
9.58749e-07
8.99543e-07
9.61576e-07
9.17049e-07
9.57938e-07
8.99997e-07
9.61372e-07
9.31801e-07
9.08971e-07
9.31824e-07
9.08733e-07
1.02061e-06
1.02159e-06
1.02585e-06
1.02509e-06
0.00102021
0.00101821
0.0010061
0.000656524
9.69273e-05
1.45044e-05
2.69916e-05
2.70211e-05
1.04802e-05
1.04867e-05
1.8591e-06
1.85764e-06
4.13549e-06
4.13735e-06
9.62616e-07
8.96811e-07
9.88786e-07
9.05754e-07
9.64191e-07
8.96692e-07
9.8687e-07
9.05669e-07
9.21331e-07
1.32789e-06
9.82134e-07
1.1684e-06
9.21154e-07
1.33177e-06
9.81263e-07
1.1706e-06
9.5849e-07
9.04743e-07
9.19878e-07
9.72287e-07
9.56732e-07
9.04746e-07
9.2035e-07
9.6707e-07
9.542e-07
9.17242e-07
9.62306e-07
9.34299e-07
9.60096e-07
9.17098e-07
9.40427e-07
9.26841e-07
1.01812e-06
1.02215e-06
1.02164e-06
1.01165e-06
9.86134e-07
9.86799e-07
9.92046e-07
9.91738e-07
9.9072e-07
9.9082e-07
9.59066e-07
8.99325e-07
9.47616e-07
8.88546e-07
9.59437e-07
9.0046e-07
9.48004e-07
8.88658e-07
9.64071e-07
9.24673e-07
9.56539e-07
9.31595e-07
9.25686e-07
8.84246e-07
9.65252e-07
9.25144e-07
9.55374e-07
9.31763e-07
9.24595e-07
8.83727e-07
9.5279e-07
9.23873e-07
9.54267e-07
9.23549e-07
9.07607e-07
9.53285e-07
9.20024e-07
9.34428e-07
9.07476e-07
9.53321e-07
9.19919e-07
9.33197e-07
1.02037e-06
1.01976e-06
1.02659e-06
0.00101798
0.00101774
0.000796992
0.000128139
2.01982e-05
4.85356e-06
1.14554e-05
1.15061e-05
4.01329e-06
4.01101e-06
2.18778e-06
1.39017e-06
2.24986e-06
2.83958e-06
1.7657e-06
1.01079e-06
1.39129e-06
2.19008e-06
1.01003e-06
2.25454e-06
2.85487e-06
1.76806e-06
8.39425e-06
5.02942e-06
6.08953e-06
4.05633e-06
8.50182e-06
5.00862e-06
6.1235e-06
4.05598e-06
9.81345e-07
9.12129e-07
1.01531e-06
9.20037e-07
9.83784e-07
9.12021e-07
1.01423e-06
9.20182e-07
9.20788e-07
1.23405e-06
9.23517e-07
1.23547e-06
9.20187e-07
9.57105e-07
9.05114e-07
9.22504e-07
8.7461e-07
8.38283e-07
8.82389e-07
8.38163e-07
1.03568e-06
1.04672e-06
1.0225e-06
1.022e-06
9.60499e-07
9.60563e-07
9.82e-07
9.84181e-07
9.88075e-07
9.88837e-07
9.79047e-07
9.78482e-07
8.9243e-07
9.26295e-07
8.75379e-07
9.48556e-07
8.95203e-07
9.10527e-07
8.93323e-07
9.27383e-07
8.76026e-07
9.48765e-07
8.95877e-07
9.1025e-07
9.542e-07
9.19697e-07
9.53815e-07
9.19836e-07
9.61775e-07
9.27817e-07
9.37217e-07
9.66962e-07
8.99901e-07
9.32608e-07
9.62016e-07
9.27941e-07
9.37575e-07
9.6608e-07
9.00253e-07
9.32556e-07
9.57139e-07
9.23177e-07
9.57661e-07
9.23275e-07
1.02094e-06
1.00945e-06
0.00101468
0.000981581
0.000317323
6.38237e-05
1.42868e-05
3.93127e-06
3.93466e-06
6.12202e-06
6.10653e-06
5.97055e-06
5.94558e-06
3.19366e-06
3.19147e-06
1.60508e-06
2.58387e-06
2.52669e-06
1.25756e-06
4.36183e-06
2.79365e-06
1.60507e-06
2.59658e-06
1.25696e-06
2.52809e-06
4.41293e-06
2.80154e-06
1.06781e-05
8.20024e-06
6.81893e-06
3.99468e-06
1.0708e-05
8.0924e-06
6.90457e-06
3.99515e-06
1.08917e-06
9.04169e-07
1.08924e-06
9.10766e-07
1.0154e-06
1.24201e-06
1.1575e-06
1.02334e-06
1.01432e-06
9.79981e-07
9.79986e-07
1.00012e-06
1.00063e-06
8.6591e-07
8.59255e-07
9.16728e-07
8.8497e-07
8.93783e-07
8.58343e-07
9.16562e-07
8.85767e-07
9.24492e-07
9.01882e-07
8.79004e-07
9.26659e-07
8.87454e-07
8.70422e-07
9.24732e-07
9.01507e-07
8.79411e-07
9.27254e-07
8.88151e-07
8.70117e-07
8.83127e-07
9.15825e-07
9.15926e-07
9.50566e-07
8.83276e-07
9.1586e-07
9.17008e-07
9.50534e-07
9.38163e-07
9.08241e-07
9.38194e-07
9.10345e-07
9.37758e-07
8.41257e-07
9.42343e-07
9.15797e-07
9.37704e-07
8.41254e-07
9.41883e-07
9.15169e-07
1.01552e-06
0.0010124
0.000798495
0.000234033
7.15342e-05
1.69546e-05
3.60925e-06
3.60915e-06
4.75757e-06
4.73826e-06
2.20878e-06
9.04687e-06
7.55613e-06
6.28752e-06
2.2065e-06
9.16846e-06
7.11908e-06
6.37244e-06
2.8822e-06
2.88337e-06
1.09425e-05
1.45627e-05
7.97799e-06
6.36838e-06
1.09828e-05
1.45747e-05
8.05226e-06
6.41009e-06
1.02398e-06
1.10712e-06
2.3078e-06
1.27989e-06
1.0264e-06
9.74121e-07
9.7467e-07
9.91885e-07
9.92026e-07
9.84642e-07
9.84884e-07
9.77147e-07
9.80866e-07
8.98825e-07
8.66825e-07
9.27319e-07
8.88281e-07
8.95298e-07
8.66757e-07
9.26643e-07
8.8846e-07
9.07874e-07
9.09972e-07
7.89838e-07
8.69065e-07
9.13805e-07
8.64177e-07
9.13924e-07
9.10087e-07
8.69715e-07
8.10839e-07
9.13675e-07
8.64787e-07
7.80902e-07
8.97126e-07
7.81407e-07
8.97717e-07
0.00100612
0.000721959
0.000268971
8.2984e-05
1.38557e-05
1.38427e-05
5.50835e-05
5.50209e-05
3.27049e-06
3.26431e-06
4.39027e-06
4.38008e-06
2.21547e-06
4.99382e-06
2.96721e-06
3.97337e-06
2.21311e-06
5.09344e-06
2.80409e-06
4.00069e-06
3.66304e-06
2.12758e-06
3.65285e-06
2.11956e-06
3.67853e-06
2.12835e-06
3.66795e-06
2.11991e-06
7.6394e-06
5.04892e-06
7.95622e-06
5.49091e-06
1.04221e-06
1.5254e-06
2.62441e-06
1.28321e-06
1.03217e-06
9.43422e-07
9.59333e-07
9.79285e-07
9.92836e-07
9.50561e-07
9.50764e-07
8.34403e-07
9.20142e-07
8.58274e-07
8.46924e-07
8.35211e-07
9.20215e-07
8.57542e-07
8.48066e-07
9.04401e-07
8.66664e-07
9.39411e-07
8.77523e-07
9.04345e-07
8.67351e-07
9.3935e-07
8.84693e-07
0.00100416
0.000764182
0.000462601
5.67284e-05
1.32691e-05
1.33325e-05
3.25241e-05
3.22773e-05
3.25788e-06
2.1273e-06
2.31808e-06
3.29087e-06
2.14201e-06
3.79752e-06
3.2589e-06
2.12769e-06
2.30408e-06
3.29515e-06
2.1431e-06
3.79261e-06
4.22517e-06
4.2318e-06
2.21585e-06
3.85539e-06
2.04642e-06
3.41188e-06
2.19095e-06
3.96145e-06
2.04833e-06
3.4374e-06
3.10466e-06
2.10487e-06
3.1042e-06
2.10553e-06
1.06276e-06
1.93933e-06
2.69478e-06
1.20401e-06
1.05927e-06
1.06072e-06
9.83763e-07
9.85806e-07
9.63457e-07
9.66915e-07
9.64611e-07
9.63818e-07
8.62329e-07
8.39997e-07
8.97205e-07
8.3269e-07
8.55292e-07
8.47257e-07
8.59585e-07
8.3978e-07
8.97174e-07
8.33703e-07
8.55734e-07
8.48151e-07
8.99202e-07
8.37779e-07
8.99652e-07
8.37469e-07
8.13767e-07
7.88388e-07
8.14193e-07
7.89607e-07
0.000995122
0.000923024
0.000524271
3.64809e-05
3.60788e-05
0.000118936
0.000117851
1.67682e-05
1.69236e-05
2.12812e-05
2.08736e-05
3.31627e-06
2.12878e-06
2.18395e-06
3.4253e-06
2.13946e-06
3.53606e-06
3.32352e-06
2.13009e-06
2.18646e-06
3.42839e-06
2.14087e-06
3.53935e-06
8.41413e-06
4.45865e-06
4.27647e-06
2.18911e-06
8.48384e-06
4.49453e-06
4.28903e-06
2.19035e-06
1.06093e-06
1.58753e-06
2.15757e-06
1.2412e-06
1.03278e-06
1.04166e-06
1.02056e-06
1.02671e-06
9.51874e-07
9.52506e-07
8.64667e-07
8.42485e-07
8.29421e-07
8.76271e-07
8.16313e-07
8.42667e-07
8.29284e-07
8.76826e-07
8.16382e-07
8.43218e-07
8.58999e-07
8.42579e-07
8.94619e-07
8.86717e-07
8.21223e-07
8.38611e-07
8.94405e-07
8.85089e-07
8.22136e-07
8.39433e-07
8.77934e-07
7.93129e-07
8.78703e-07
7.93522e-07
0.000989776
0.00101024
0.000260236
3.67934e-05
3.66765e-05
0.000104168
0.000103611
6.50445e-06
3.31162e-06
1.5627e-05
2.25013e-05
9.38151e-06
2.53779e-05
6.52003e-06
3.33935e-06
1.53044e-05
2.28365e-05
9.40338e-06
2.45152e-05
1.44233e-05
1.43155e-05
2.16301e-06
3.54451e-06
2.16414e-06
3.5475e-06
4.92339e-06
2.47628e-06
4.93081e-06
2.47896e-06
1.03106e-06
1.14342e-06
1.18473e-06
1.42494e-06
1.433e-06
1.10502e-06
1.12163e-06
1.09559e-06
1.10302e-06
1.04335e-06
1.04488e-06
9.0099e-07
8.29488e-07
8.90056e-07
8.2795e-07
8.44238e-07
8.32076e-07
8.99632e-07
8.45136e-07
8.32223e-07
8.29839e-07
8.89828e-07
8.28685e-07
8.83504e-07
8.08476e-07
8.2043e-07
7.88792e-07
8.2332e-07
8.82097e-07
7.86543e-07
8.10771e-07
0.000975878
0.000971714
0.000216413
7.98105e-05
7.89135e-05
0.000135776
0.000135914
9.60955e-06
5.46983e-06
7.70426e-06
2.88148e-05
1.66699e-05
2.40461e-05
9.66758e-06
5.46206e-06
7.45342e-06
2.78226e-05
1.60022e-05
2.28458e-05
2.99018e-05
2.82127e-05
1.70805e-05
6.83563e-06
3.03646e-05
2.8175e-05
1.72315e-05
6.88077e-06
6.57045e-06
7.41741e-06
6.5608e-06
7.41644e-06
1.00689e-06
1.04874e-06
1.09903e-06
1.26333e-06
1.30735e-06
1.11209e-06
1.1332e-06
1.07543e-06
1.08205e-06
9.37605e-07
8.31165e-07
8.58096e-07
1.03424e-06
8.40871e-07
1.01112e-06
9.32105e-07
8.31591e-07
8.5957e-07
1.03677e-06
8.42804e-07
1.01981e-06
9.12434e-07
9.14528e-07
8.0398e-07
8.58196e-07
9.11428e-07
8.5897e-07
9.09552e-07
8.04144e-07
0.00100394
0.000593581
0.000772185
0.000199812
0.00020115
0.000786657
0.000985282
0.000987543
0.000167303
3.42712e-05
3.67119e-05
0.00016989
3.46571e-05
3.67864e-05
1.98171e-05
2.99627e-05
6.12276e-06
2.81591e-05
9.48685e-06
1.8793e-05
1.99983e-05
2.9962e-05
6.1177e-06
2.64487e-05
8.72672e-06
1.80607e-05
1.69714e-05
9.94968e-06
1.69182e-05
1.00786e-05
1.01353e-06
1.02851e-06
1.06473e-06
1.2188e-06
1.22834e-06
1.07571e-06
1.10159e-06
9.54296e-07
8.62119e-07
1.02803e-06
8.8198e-07
1.05755e-06
8.86862e-07
9.62493e-07
1.06402e-06
8.91094e-07
8.62754e-07
1.03391e-06
8.84142e-07
9.98155e-07
8.41026e-07
1.08048e-06
8.57173e-07
9.98734e-07
8.42556e-07
1.08733e-06
8.59286e-07
8.6273e-07
7.84262e-07
8.67227e-07
7.84677e-07
0.000826358
0.00100181
0.000761712
0.000992866
0.000773258
0.000993406
0.00100214
0.00100408
0.000712403
0.000122069
0.000119691
8.01781e-05
9.90468e-05
0.000782588
0.000786984
0.000889067
0.000123105
0.000722972
0.000122277
8.18868e-05
0.000101627
0.000787789
0.000797101
0.000888469
6.22108e-06
1.7937e-05
6.1253e-06
1.73279e-05
2.46747e-05
3.55767e-05
2.52079e-05
3.56468e-05
1.02429e-06
1.02704e-06
1.0119e-06
1.13438e-06
1.14066e-06
1.00944e-06
1.06811e-06
1.05808e-06
1.05492e-06
9.72064e-07
8.74482e-07
1.07834e-06
9.77674e-07
8.75694e-07
1.10183e-06
1.02894e-06
9.23893e-07
8.92908e-07
1.10646e-06
9.29349e-07
1.03275e-06
8.98258e-07
1.059e-06
8.6542e-07
1.07135e-06
8.30137e-07
1.06413e-06
8.66381e-07
1.0771e-06
8.32428e-07
0.00099497
0.00101285
0.000997163
0.000926895
0.000955374
0.000997154
0.000997047
0.000926784
0.000955879
0.000997331
0.00100102
0.00100332
0.000285783
0.000971804
5.10306e-05
5.031e-05
0.000285469
0.000932065
0.000284915
5.17357e-05
0.000970378
4.91058e-05
0.000285264
0.000928122
7.96232e-06
1.55368e-05
7.18373e-06
1.50832e-05
1.02862e-06
1.02519e-06
9.99696e-07
1.07943e-06
1.07772e-06
9.98676e-07
1.02438e-06
1.01847e-06
9.64891e-07
9.81683e-07
8.98805e-07
9.83013e-07
8.97084e-07
8.83007e-07
1.00612e-06
8.94645e-07
9.88413e-07
9.92438e-07
8.9975e-07
9.89317e-07
8.98476e-07
8.83109e-07
1.05168e-06
8.95073e-07
1.04078e-06
9.98894e-07
9.21711e-07
8.64842e-07
1.04706e-06
9.23773e-07
9.79587e-07
8.82427e-07
0.00099742
0.00101099
0.00100603
0.00100679
0.00101082
0.00100114
0.00100099
0.000958175
0.000936402
0.000974152
0.000955665
0.00096535
0.000948273
0.000975691
0.000961677
0.00100049
0.000970492
0.000950375
0.000960435
0.00093537
0.000980583
0.00095438
0.00097131
0.000947002
0.000979297
0.000962143
0.00100047
0.000971726
0.000950793
0.000538833
0.000954399
0.000557401
0.000929035
0.000517791
0.000953627
0.000551595
0.000924111
1.02967e-06
1.02272e-06
9.86635e-07
1.04454e-06
9.06081e-07
1.03558e-06
1.04065e-06
9.06744e-07
1.05619e-06
9.87699e-07
9.90084e-07
9.9039e-07
9.56637e-07
1.02668e-06
9.21214e-07
8.95809e-07
8.28912e-07
8.87001e-07
9.69064e-07
1.04455e-06
9.4005e-07
8.50183e-07
8.96279e-07
8.87774e-07
1.04914e-06
9.24437e-07
9.94126e-07
9.26666e-07
0.00101057
0.00101013
0.00100974